% Model:              1 neuron.mph
% Version:            COMSOL 6.1.0.252
% Date:               Mar 26 2023, 15:07
% Dimension:          0
% Nodes:              14017
% Expressions:        14017
% Description:        Electric field norm, Electric field, X component, Electric field, Y component, Electric field, Z component, Tangential electric field, X component, Tangential electric field, Y component, Tangential electric field, Z component, Electric field, x component, Electric field, y component, Electric field, z component, Tangential electric field, x component, Tangential electric field, y component, Tangential electric field, z component, Electric potential
% Length unit:        mm
% x
2
% y
14.200000000000001
% z
2
% es.normE (V/m) @ t=0
0.10685042951611368
% es.EX (V/m) @ t=0
-0.0707973659411767
% es.EY (V/m) @ t=0
0.0346975675325254
% es.EZ (V/m) @ t=0
-0.07211675305291365
% es.tEX (V/m) @ t=0
-0.0707973659411758
% es.tEY (V/m) @ t=0
0
% es.tEZ (V/m) @ t=0
-0.07211675305291076
% es.Ex (V/m) @ t=0
-0.0707973659411767
% es.Ey (V/m) @ t=0
0.0346975675325254
% es.Ez (V/m) @ t=0
-0.07211675305291365
% es.tEx (V/m) @ t=0
-0.0707973659411758
% es.tEy (V/m) @ t=0
0
% es.tEz (V/m) @ t=0
-0.07211675305291076
% V (V) @ t=0
0.022203767326955552
% es.normE (V/m) @ t=0.02
0.09785261471320078
% es.EX (V/m) @ t=0.02
-0.06483555942094732
% es.EY (V/m) @ t=0.02
0.031775704814190675
% es.EZ (V/m) @ t=0.02
-0.06604384168372057
% es.tEX (V/m) @ t=0.02
-0.06483555942094532
% es.tEY (V/m) @ t=0.02
0
% es.tEZ (V/m) @ t=0.02
-0.06604384168371835
% es.Ex (V/m) @ t=0.02
-0.06483555942094732
% es.Ey (V/m) @ t=0.02
0.031775704814190675
% es.Ez (V/m) @ t=0.02
-0.06604384168372057
% es.tEx (V/m) @ t=0.02
-0.06483555942094532
% es.tEy (V/m) @ t=0.02
0
% es.tEz (V/m) @ t=0.02
-0.06604384168371835
% V (V) @ t=0.02
0.02033400052297743
% es.normE (V/m) @ t=0.04
0.09875072199560915
% es.EX (V/m) @ t=0.04
-0.06543063077800326
% es.EY (V/m) @ t=0.04
0.03206734742392214
% es.EZ (V/m) @ t=0.04
-0.06665000284951361
% es.tEX (V/m) @ t=0.04
-0.0654306307780026
% es.tEY (V/m) @ t=0.04
0
% es.tEZ (V/m) @ t=0.04
-0.06665000284951539
% es.Ex (V/m) @ t=0.04
-0.06543063077800326
% es.Ey (V/m) @ t=0.04
0.03206734742392214
% es.Ez (V/m) @ t=0.04
-0.06665000284951361
% es.tEx (V/m) @ t=0.04
-0.0654306307780026
% es.tEy (V/m) @ t=0.04
0
% es.tEz (V/m) @ t=0.04
-0.06665000284951539
% V (V) @ t=0.04
0.020520629301199765
% es.normE (V/m) @ t=0.06
0.09965846455024484
% es.EX (V/m) @ t=0.06
-0.06603208631262092
% es.EY (V/m) @ t=0.06
0.03236211889828411
% es.EZ (V/m) @ t=0.06
-0.06726266716484197
% es.tEX (V/m) @ t=0.06
-0.06603208631261936
% es.tEY (V/m) @ t=0.06
0
% es.tEZ (V/m) @ t=0.06
-0.06726266716484486
% es.Ex (V/m) @ t=0.06
-0.06603208631262092
% es.Ey (V/m) @ t=0.06
0.03236211889828411
% es.Ez (V/m) @ t=0.06
-0.06726266716484197
% es.tEx (V/m) @ t=0.06
-0.06603208631261936
% es.tEy (V/m) @ t=0.06
0
% es.tEz (V/m) @ t=0.06
-0.06726266716484486
% V (V) @ t=0.06
0.02070926031099344
% es.normE (V/m) @ t=0.08
0.10057670012862223
% es.EX (V/m) @ t=0.08
-0.06664049435368646
% es.EY (V/m) @ t=0.08
0.03266029777475765
% es.EZ (V/m) @ t=0.08
-0.06788241355699753
% es.tEX (V/m) @ t=0.08
-0.06664049435368624
% es.tEY (V/m) @ t=0.08
0
% es.tEZ (V/m) @ t=0.08
-0.06788241355699676
% es.Ex (V/m) @ t=0.08
-0.06664049435368646
% es.Ey (V/m) @ t=0.08
0.03266029777475765
% es.Ez (V/m) @ t=0.08
-0.06788241355699753
% es.tEx (V/m) @ t=0.08
-0.06664049435368624
% es.tEy (V/m) @ t=0.08
0
% es.tEz (V/m) @ t=0.08
-0.06788241355699676
% V (V) @ t=0.08
0.020900071795630793
% es.normE (V/m) @ t=0.1
0.10150947125544275
% es.EX (V/m) @ t=0.1
-0.06725853341214894
% es.EY (V/m) @ t=0.1
0.0329631967833528
% es.EZ (V/m) @ t=0.1
-0.06851197045501145
% es.tEX (V/m) @ t=0.1
-0.06725853341214472
% es.tEY (V/m) @ t=0.1
0
% es.tEZ (V/m) @ t=0.1
-0.06851197045500912
% es.Ex (V/m) @ t=0.1
-0.06725853341214894
% es.Ey (V/m) @ t=0.1
0.0329631967833528
% es.Ez (V/m) @ t=0.1
-0.06851197045501145
% es.tEx (V/m) @ t=0.1
-0.06725853341214472
% es.tEy (V/m) @ t=0.1
0
% es.tEz (V/m) @ t=0.1
-0.06851197045500912
% V (V) @ t=0.1
0.02109390380118388
% es.normE (V/m) @ t=0.12
0.10244224238223758
% es.EX (V/m) @ t=0.12
-0.06787657247060608
% es.EY (V/m) @ t=0.12
0.03326609579189821
% es.EZ (V/m) @ t=0.12
-0.06914152735301649
% es.tEX (V/m) @ t=0.12
-0.06787657247059986
% es.tEY (V/m) @ t=0.12
0
% es.tEZ (V/m) @ t=0.12
-0.06914152735301815
% es.Ex (V/m) @ t=0.12
-0.06787657247060608
% es.Ey (V/m) @ t=0.12
0.03326609579189821
% es.Ez (V/m) @ t=0.12
-0.06914152735301649
% es.tEx (V/m) @ t=0.12
-0.06787657247059986
% es.tEy (V/m) @ t=0.12
0
% es.tEz (V/m) @ t=0.12
-0.06914152735301815
% V (V) @ t=0.12
0.021287735806736967
% es.normE (V/m) @ t=0.14
0.10337501350904764
% es.EX (V/m) @ t=0.14
-0.06849461152906322
% es.EY (V/m) @ t=0.14
0.03356899480047204
% es.EZ (V/m) @ t=0.14
-0.0697710842510304
% es.tEX (V/m) @ t=0.14
-0.06849461152906544
% es.tEY (V/m) @ t=0.14
0
% es.tEZ (V/m) @ t=0.14
-0.06977108425103407
% es.Ex (V/m) @ t=0.14
-0.06849461152906322
% es.Ey (V/m) @ t=0.14
0.03356899480047204
% es.Ez (V/m) @ t=0.14
-0.0697710842510304
% es.tEx (V/m) @ t=0.14
-0.06849461152906544
% es.tEy (V/m) @ t=0.14
0
% es.tEz (V/m) @ t=0.14
-0.06977108425103407
% V (V) @ t=0.14
0.021481567812290048
% es.normE (V/m) @ t=0.16
0.10435264401579251
% es.EX (V/m) @ t=0.16
-0.06914237368416742
% es.EY (V/m) @ t=0.16
0.033886461006844115
% es.EZ (V/m) @ t=0.16
-0.0704309181740328
% es.tEX (V/m) @ t=0.16
-0.06914237368416787
% es.tEY (V/m) @ t=0.16
0
% es.tEZ (V/m) @ t=0.16
-0.07043091817403235
% es.Ex (V/m) @ t=0.16
-0.06914237368416742
% es.Ey (V/m) @ t=0.16
0.033886461006844115
% es.Ez (V/m) @ t=0.16
-0.0704309181740328
% es.tEx (V/m) @ t=0.16
-0.06914237368416787
% es.tEy (V/m) @ t=0.16
0
% es.tEz (V/m) @ t=0.16
-0.07043091817403235
% V (V) @ t=0.16
0.02168472170191494
% es.normE (V/m) @ t=0.18
0.1053385836307543
% es.EX (V/m) @ t=0.18
-0.06979564131945004
% es.EY (V/m) @ t=0.18
0.034206625432009474
% es.EZ (V/m) @ t=0.18
-0.07109636017894516
% es.tEX (V/m) @ t=0.18
-0.06979564131944871
% es.tEY (V/m) @ t=0.18
0
% es.tEZ (V/m) @ t=0.18
-0.07109636017895038
% es.Ex (V/m) @ t=0.18
-0.06979564131945004
% es.Ey (V/m) @ t=0.18
0.034206625432009474
% es.Ez (V/m) @ t=0.18
-0.07109636017894516
% es.tEx (V/m) @ t=0.18
-0.06979564131944871
% es.tEy (V/m) @ t=0.18
0
% es.tEz (V/m) @ t=0.18
-0.07109636017895038
% V (V) @ t=0.18
0.021889602243666637
% es.normE (V/m) @ t=0.2
0.1063245232457294
% es.EX (V/m) @ t=0.2
-0.07044890895473799
% es.EY (V/m) @ t=0.2
0.03452678985716062
% es.EZ (V/m) @ t=0.2
-0.07176180218387884
% es.tEX (V/m) @ t=0.2
-0.0704489089547331
% es.tEY (V/m) @ t=0.2
0
% es.tEZ (V/m) @ t=0.2
-0.0717618021838824
% es.Ex (V/m) @ t=0.2
-0.07044890895473799
% es.Ey (V/m) @ t=0.2
0.03452678985716062
% es.Ez (V/m) @ t=0.2
-0.07176180218387884
% es.tEx (V/m) @ t=0.2
-0.0704489089547331
% es.tEy (V/m) @ t=0.2
0
% es.tEz (V/m) @ t=0.2
-0.0717618021838824
% V (V) @ t=0.2
0.022094482785418333
% es.normE (V/m) @ t=0.22
0.10731046286069029
% es.EX (V/m) @ t=0.22
-0.07110217659002416
% es.EY (V/m) @ t=0.22
0.03484695428229756
% es.EZ (V/m) @ t=0.22
-0.07242724418880009
% es.tEX (V/m) @ t=0.22
-0.0711021765900175
% es.tEY (V/m) @ t=0.22
0
% es.tEZ (V/m) @ t=0.22
-0.07242724418879698
% es.Ex (V/m) @ t=0.22
-0.07110217659002416
% es.Ey (V/m) @ t=0.22
0.03484695428229756
% es.Ez (V/m) @ t=0.22
-0.07242724418880009
% es.tEx (V/m) @ t=0.22
-0.0711021765900175
% es.tEy (V/m) @ t=0.22
0
% es.tEz (V/m) @ t=0.22
-0.07242724418879698
% V (V) @ t=0.22
0.02229936332717004
% es.normE (V/m) @ t=0.24
0.10829640247567573
% es.EX (V/m) @ t=0.24
-0.0717554442253121
% es.EY (V/m) @ t=0.24
0.035167118707484235
% es.EZ (V/m) @ t=0.24
-0.07309268619373199
% es.tEX (V/m) @ t=0.24
-0.07175544422530544
% es.tEY (V/m) @ t=0.24
0
% es.tEZ (V/m) @ t=0.24
-0.0730926861937291
% es.Ex (V/m) @ t=0.24
-0.0717554442253121
% es.Ey (V/m) @ t=0.24
0.035167118707484235
% es.Ez (V/m) @ t=0.24
-0.07309268619373199
% es.tEx (V/m) @ t=0.24
-0.07175544422530544
% es.tEy (V/m) @ t=0.24
0
% es.tEz (V/m) @ t=0.24
-0.0730926861937291
% V (V) @ t=0.24
0.022504243868921737
% es.normE (V/m) @ t=0.26
0.10928234209064969
% es.EX (V/m) @ t=0.26
-0.07240871186059827
% es.EY (V/m) @ t=0.26
0.03548728313263183
% es.EZ (V/m) @ t=0.26
-0.07375812819866745
% es.tEX (V/m) @ t=0.26
-0.07240871186060005
% es.tEY (V/m) @ t=0.26
0
% es.tEZ (V/m) @ t=0.26
-0.07375812819866479
% es.Ex (V/m) @ t=0.26
-0.07240871186059827
% es.Ey (V/m) @ t=0.26
0.03548728313263183
% es.Ez (V/m) @ t=0.26
-0.07375812819866745
% es.tEx (V/m) @ t=0.26
-0.07240871186060005
% es.tEy (V/m) @ t=0.26
0
% es.tEz (V/m) @ t=0.26
-0.07375812819866479
% V (V) @ t=0.26
0.022709124410673437
% es.normE (V/m) @ t=0.28
0.11026828170561509
% es.EX (V/m) @ t=0.28
-0.07306197949588267
% es.EY (V/m) @ t=0.28
0.03580744755779364
% es.EZ (V/m) @ t=0.28
-0.07442357020358514
% es.tEX (V/m) @ t=0.28
-0.07306197949588444
% es.tEY (V/m) @ t=0.28
0
% es.tEZ (V/m) @ t=0.28
-0.0744235702035898
% es.Ex (V/m) @ t=0.28
-0.07306197949588267
% es.Ey (V/m) @ t=0.28
0.03580744755779364
% es.Ez (V/m) @ t=0.28
-0.07442357020358514
% es.tEx (V/m) @ t=0.28
-0.07306197949588444
% es.tEy (V/m) @ t=0.28
0
% es.tEz (V/m) @ t=0.28
-0.0744235702035898
% V (V) @ t=0.28
0.022914004952425134
% es.normE (V/m) @ t=0.3
0.1112934685610079
% es.EX (V/m) @ t=0.3
-0.07374125171959633
% es.EY (V/m) @ t=0.3
0.036140356749687186
% es.EZ (V/m) @ t=0.3
-0.07511550141730083
% es.tEX (V/m) @ t=0.3
-0.073741251719595
% es.tEY (V/m) @ t=0.3
0
% es.tEZ (V/m) @ t=0.3
-0.07511550141729706
% es.Ex (V/m) @ t=0.3
-0.07374125171959633
% es.Ey (V/m) @ t=0.3
0.036140356749687186
% es.Ez (V/m) @ t=0.3
-0.07511550141730083
% es.tEx (V/m) @ t=0.3
-0.073741251719595
% es.tEy (V/m) @ t=0.3
0
% es.tEz (V/m) @ t=0.3
-0.07511550141729706
% V (V) @ t=0.3
0.023127041161387533
% es.normE (V/m) @ t=0.32
0.11233606816776366
% es.EX (V/m) @ t=0.32
-0.0744320613515157
% es.EY (V/m) @ t=0.32
0.03647892038885914
% es.EZ (V/m) @ t=0.32
-0.0758191850498271
% es.tEX (V/m) @ t=0.32
-0.07443206135151126
% es.tEY (V/m) @ t=0.32
0
% es.tEZ (V/m) @ t=0.32
-0.07581918504982688
% es.Ex (V/m) @ t=0.32
-0.0744320613515157
% es.Ey (V/m) @ t=0.32
0.03647892038885914
% es.Ez (V/m) @ t=0.32
-0.0758191850498271
% es.tEx (V/m) @ t=0.32
-0.07443206135151126
% es.tEy (V/m) @ t=0.32
0
% es.tEz (V/m) @ t=0.32
-0.07581918504982688
% V (V) @ t=0.32
0.023343695780307497
% es.normE (V/m) @ t=0.34
0.11337866777453087
% es.EX (V/m) @ t=0.34
-0.0751228709834244
% es.EY (V/m) @ t=0.34
0.03681748402808438
% es.EZ (V/m) @ t=0.34
-0.07652286868235514
% es.tEX (V/m) @ t=0.34
-0.0751228709834244
% es.tEY (V/m) @ t=0.34
0
% es.tEZ (V/m) @ t=0.34
-0.07652286868235669
% es.Ex (V/m) @ t=0.34
-0.0751228709834244
% es.Ey (V/m) @ t=0.34
0.03681748402808438
% es.Ez (V/m) @ t=0.34
-0.07652286868235514
% es.tEx (V/m) @ t=0.34
-0.0751228709834244
% es.tEy (V/m) @ t=0.34
0
% es.tEz (V/m) @ t=0.34
-0.07652286868235669
% V (V) @ t=0.34
0.023560350399227454
% es.normE (V/m) @ t=0.36
0.11442126738130177
% es.EX (V/m) @ t=0.36
-0.07581368061534022
% es.EY (V/m) @ t=0.36
0.03715604766729541
% es.EZ (V/m) @ t=0.36
-0.07722655231488851
% es.tEX (V/m) @ t=0.36
-0.07581368061534421
% es.tEY (V/m) @ t=0.36
0
% es.tEZ (V/m) @ t=0.36
-0.07722655231488651
% es.Ex (V/m) @ t=0.36
-0.07581368061534022
% es.Ey (V/m) @ t=0.36
0.03715604766729541
% es.Ez (V/m) @ t=0.36
-0.07722655231488851
% es.tEx (V/m) @ t=0.36
-0.07581368061534421
% es.tEy (V/m) @ t=0.36
0
% es.tEz (V/m) @ t=0.36
-0.07722655231488651
% V (V) @ t=0.36
0.02377700501814742
% es.normE (V/m) @ t=0.38
0.11546386698807007
% es.EX (V/m) @ t=0.38
-0.07650449024725425
% es.EY (V/m) @ t=0.38
0.037494611306524206
% es.EZ (V/m) @ t=0.38
-0.07793023594741122
% es.tEX (V/m) @ t=0.38
-0.07650449024725381
% es.tEY (V/m) @ t=0.38
0
% es.tEZ (V/m) @ t=0.38
-0.07793023594740922
% es.Ex (V/m) @ t=0.38
-0.07650449024725425
% es.Ey (V/m) @ t=0.38
0.037494611306524206
% es.Ez (V/m) @ t=0.38
-0.07793023594741122
% es.tEx (V/m) @ t=0.38
-0.07650449024725381
% es.tEy (V/m) @ t=0.38
0
% es.tEz (V/m) @ t=0.38
-0.07793023594740922
% V (V) @ t=0.38
0.02399365963706738
% es.normE (V/m) @ t=0.4
0.11650646659481861
% es.EX (V/m) @ t=0.4
-0.07719529987916118
% es.EY (V/m) @ t=0.4
0.03783317494571037
% es.EZ (V/m) @ t=0.4
-0.07863391957993215
% es.tEX (V/m) @ t=0.4
-0.0771952998791523
% es.tEY (V/m) @ t=0.4
0
% es.tEZ (V/m) @ t=0.4
-0.07863391957993171
% es.Ex (V/m) @ t=0.4
-0.07719529987916118
% es.Ey (V/m) @ t=0.4
0.03783317494571037
% es.Ez (V/m) @ t=0.4
-0.07863391957993215
% es.tEx (V/m) @ t=0.4
-0.0771952998791523
% es.tEy (V/m) @ t=0.4
0
% es.tEz (V/m) @ t=0.4
-0.07863391957993171
% V (V) @ t=0.4
0.024210314255987343
% es.normE (V/m) @ t=0.42
0.11754906620159067
% es.EX (V/m) @ t=0.42
-0.077886109511077
% es.EY (V/m) @ t=0.42
0.03817173858492495
% es.EZ (V/m) @ t=0.42
-0.07933760321246552
% es.tEX (V/m) @ t=0.42
-0.07788610951107255
% es.tEY (V/m) @ t=0.42
0
% es.tEZ (V/m) @ t=0.42
-0.07933760321246153
% es.Ex (V/m) @ t=0.42
-0.077886109511077
% es.Ey (V/m) @ t=0.42
0.03817173858492495
% es.Ez (V/m) @ t=0.42
-0.07933760321246552
% es.tEx (V/m) @ t=0.42
-0.07788610951107255
% es.tEy (V/m) @ t=0.42
0
% es.tEz (V/m) @ t=0.42
-0.07933760321246153
% V (V) @ t=0.42
0.024426968874907307
% es.normE (V/m) @ t=0.44
0.11866138052151456
% es.EX (V/m) @ t=0.44
-0.0786231109787785
% es.EY (V/m) @ t=0.44
0.038532940700360285
% es.EZ (V/m) @ t=0.44
-0.08008833952750471
% es.tEX (V/m) @ t=0.44
-0.07862311097877717
% es.tEY (V/m) @ t=0.44
0
% es.tEZ (V/m) @ t=0.44
-0.08008833952750427
% es.Ex (V/m) @ t=0.44
-0.0786231109787785
% es.Ey (V/m) @ t=0.44
0.038532940700360285
% es.Ez (V/m) @ t=0.44
-0.08008833952750471
% es.tEx (V/m) @ t=0.44
-0.07862311097877717
% es.tEy (V/m) @ t=0.44
0
% es.tEz (V/m) @ t=0.44
-0.08008833952750427
% V (V) @ t=0.44
0.024658110374539268
% es.normE (V/m) @ t=0.46
0.11983269085525906
% es.EX (V/m) @ t=0.46
-0.07939920224633212
% es.EY (V/m) @ t=0.46
0.03891330060606535
% es.EZ (V/m) @ t=0.46
-0.08087889413314286
% es.tEX (V/m) @ t=0.46
-0.07939920224632946
% es.tEY (V/m) @ t=0.46
0
% es.tEZ (V/m) @ t=0.46
-0.08087889413313776
% es.Ex (V/m) @ t=0.46
-0.07939920224633212
% es.Ey (V/m) @ t=0.46
0.03891330060606535
% es.Ez (V/m) @ t=0.46
-0.08087889413314286
% es.tEx (V/m) @ t=0.46
-0.07939920224632946
% es.tEy (V/m) @ t=0.46
0
% es.tEz (V/m) @ t=0.46
-0.08087889413313776
% V (V) @ t=0.46
0.024901511384057863
% es.normE (V/m) @ t=0.48
0.12100400118901669
% es.EX (V/m) @ t=0.48
-0.08017529351389108
% es.EY (V/m) @ t=0.48
0.03929366051177041
% es.EZ (V/m) @ t=0.48
-0.08166944873879523
% es.tEX (V/m) @ t=0.48
-0.08017529351389197
% es.tEY (V/m) @ t=0.48
0
% es.tEZ (V/m) @ t=0.48
-0.08166944873878523
% es.Ex (V/m) @ t=0.48
-0.08017529351389108
% es.Ey (V/m) @ t=0.48
0.03929366051177041
% es.Ez (V/m) @ t=0.48
-0.08166944873879523
% es.tEx (V/m) @ t=0.48
-0.08017529351389197
% es.tEy (V/m) @ t=0.48
0
% es.tEz (V/m) @ t=0.48
-0.08166944873878523
% V (V) @ t=0.48
0.02514491239357646
% es.normE (V/m) @ t=0.5
0.12217531152276354
% es.EX (V/m) @ t=0.5
-0.0809513847814376
% es.EY (V/m) @ t=0.5
0.03967402041748613
% es.EZ (V/m) @ t=0.5
-0.0824600033444387
% es.tEX (V/m) @ t=0.5
-0.0809513847814336
% es.tEY (V/m) @ t=0.5
0
% es.tEZ (V/m) @ t=0.5
-0.08246000334444004
% es.Ex (V/m) @ t=0.5
-0.0809513847814376
% es.Ey (V/m) @ t=0.5
0.03967402041748613
% es.Ez (V/m) @ t=0.5
-0.0824600033444387
% es.tEx (V/m) @ t=0.5
-0.0809513847814336
% es.tEy (V/m) @ t=0.5
0
% es.tEz (V/m) @ t=0.5
-0.08246000334444004
% V (V) @ t=0.5
0.025388313403095063
% es.normE (V/m) @ t=0.52
0.12334662185652251
% es.EX (V/m) @ t=0.52
-0.08172747604899833
% es.EY (V/m) @ t=0.52
0.040054380323176986
% es.EZ (V/m) @ t=0.52
-0.08325055795009817
% es.tEX (V/m) @ t=0.52
-0.08172747604899655
% es.tEY (V/m) @ t=0.52
0
% es.tEZ (V/m) @ t=0.52
-0.08325055795009484
% es.Ex (V/m) @ t=0.52
-0.08172747604899833
% es.Ey (V/m) @ t=0.52
0.040054380323176986
% es.Ez (V/m) @ t=0.52
-0.08325055795009817
% es.tEx (V/m) @ t=0.52
-0.08172747604899655
% es.tEy (V/m) @ t=0.52
0
% es.tEz (V/m) @ t=0.52
-0.08325055795009484
% V (V) @ t=0.52
0.02563171441261367
% es.normE (V/m) @ t=0.54
0.12451793219026454
% es.EX (V/m) @ t=0.54
-0.08250356731654662
% es.EY (V/m) @ t=0.54
0.04043474022889271
% es.EZ (V/m) @ t=0.54
-0.08404111255573277
% es.tEX (V/m) @ t=0.54
-0.08250356731654884
% es.tEY (V/m) @ t=0.54
0
% es.tEZ (V/m) @ t=0.54
-0.08404111255573543
% es.Ex (V/m) @ t=0.54
-0.08250356731654662
% es.Ey (V/m) @ t=0.54
0.04043474022889271
% es.Ez (V/m) @ t=0.54
-0.08404111255573277
% es.tEx (V/m) @ t=0.54
-0.08250356731654884
% es.tEy (V/m) @ t=0.54
0
% es.tEz (V/m) @ t=0.54
-0.08404111255573543
% V (V) @ t=0.54
0.025875115422132257
% es.normE (V/m) @ t=0.56
0.12568924252401148
% es.EX (V/m) @ t=0.56
-0.0832796585841109
% es.EY (V/m) @ t=0.56
0.04081510013458356
% es.EZ (V/m) @ t=0.56
-0.08483166716137092
% es.tEX (V/m) @ t=0.56
-0.0832796585841118
% es.tEY (V/m) @ t=0.56
0
% es.tEZ (V/m) @ t=0.56
-0.0848316671613687
% es.Ex (V/m) @ t=0.56
-0.0832796585841109
% es.Ey (V/m) @ t=0.56
0.04081510013458356
% es.Ez (V/m) @ t=0.56
-0.08483166716137092
% es.tEx (V/m) @ t=0.56
-0.0832796585841118
% es.tEy (V/m) @ t=0.56
0
% es.tEz (V/m) @ t=0.56
-0.0848316671613687
% V (V) @ t=0.56
0.026118516431650862
% es.normE (V/m) @ t=0.58
0.12686055285777137
% es.EX (V/m) @ t=0.58
-0.08405574985166453
% es.EY (V/m) @ t=0.58
0.041195460040302834
% es.EZ (V/m) @ t=0.58
-0.08562222176702505
% es.tEX (V/m) @ t=0.58
-0.08405574985166053
% es.tEY (V/m) @ t=0.58
0
% es.tEZ (V/m) @ t=0.58
-0.0856222217670235
% es.Ex (V/m) @ t=0.58
-0.08405574985166453
% es.Ey (V/m) @ t=0.58
0.041195460040302834
% es.Ez (V/m) @ t=0.58
-0.08562222176702505
% es.tEx (V/m) @ t=0.58
-0.08405574985166053
% es.tEy (V/m) @ t=0.58
0
% es.tEz (V/m) @ t=0.58
-0.0856222217670235
% V (V) @ t=0.58
0.02636191744116946
% es.normE (V/m) @ t=0.6
0.1280318631915278
% es.EX (V/m) @ t=0.6
-0.08483184111921283
% es.EY (V/m) @ t=0.6
0.041575819946018555
% es.EZ (V/m) @ t=0.6
-0.08641277637268097
% es.tEX (V/m) @ t=0.6
-0.08483184111921238
% es.tEY (V/m) @ t=0.6
0
% es.tEZ (V/m) @ t=0.6
-0.08641277637267808
% es.Ex (V/m) @ t=0.6
-0.08483184111921283
% es.Ey (V/m) @ t=0.6
0.041575819946018555
% es.Ez (V/m) @ t=0.6
-0.08641277637268097
% es.tEx (V/m) @ t=0.6
-0.08483184111921238
% es.tEy (V/m) @ t=0.6
0
% es.tEz (V/m) @ t=0.6
-0.08641277637267808
% V (V) @ t=0.6
0.02660531845068806
% es.normE (V/m) @ t=0.62
0.12920317352527447
% es.EX (V/m) @ t=0.62
-0.08560793238677
% es.EY (V/m) @ t=0.62
0.04195617985173783
% es.EZ (V/m) @ t=0.62
-0.08720333097831201
% es.tEX (V/m) @ t=0.62
-0.08560793238676867
% es.tEY (V/m) @ t=0.62
0
% es.tEZ (V/m) @ t=0.62
-0.08720333097831157
% es.Ex (V/m) @ t=0.62
-0.08560793238677
% es.Ey (V/m) @ t=0.62
0.04195617985173783
% es.Ez (V/m) @ t=0.62
-0.08720333097831201
% es.tEx (V/m) @ t=0.62
-0.08560793238676867
% es.tEy (V/m) @ t=0.62
0
% es.tEz (V/m) @ t=0.62
-0.08720333097831157
% V (V) @ t=0.62
0.02684871946020666
% es.normE (V/m) @ t=0.64
0.13037448385903797
% es.EX (V/m) @ t=0.64
-0.08638402365432718
% es.EY (V/m) @ t=0.64
0.04233653975745355
% es.EZ (V/m) @ t=0.64
-0.0879938855839697
% es.tEX (V/m) @ t=0.64
-0.08638402365432407
% es.tEY (V/m) @ t=0.64
0
% es.tEZ (V/m) @ t=0.64
-0.08799388558397325
% es.Ex (V/m) @ t=0.64
-0.08638402365432718
% es.Ey (V/m) @ t=0.64
0.04233653975745355
% es.Ez (V/m) @ t=0.64
-0.0879938855839697
% es.tEx (V/m) @ t=0.64
-0.08638402365432407
% es.tEy (V/m) @ t=0.64
0
% es.tEz (V/m) @ t=0.64
-0.08799388558397325
% V (V) @ t=0.64
0.027092120469725253
% es.normE (V/m) @ t=0.66
0.13154579419278825
% es.EX (V/m) @ t=0.66
-0.08716011492188258
% es.EY (V/m) @ t=0.66
0.042716899663172825
% es.EZ (V/m) @ t=0.66
-0.08878444018960785
% es.tEX (V/m) @ t=0.66
-0.08716011492187636
% es.tEY (V/m) @ t=0.66
0
% es.tEZ (V/m) @ t=0.66
-0.08878444018960674
% es.Ex (V/m) @ t=0.66
-0.08716011492188258
% es.Ey (V/m) @ t=0.66
0.042716899663172825
% es.Ez (V/m) @ t=0.66
-0.08878444018960785
% es.tEx (V/m) @ t=0.66
-0.08716011492187636
% es.tEy (V/m) @ t=0.66
0
% es.tEz (V/m) @ t=0.66
-0.08878444018960674
% V (V) @ t=0.66
0.027335521479243858
% es.normE (V/m) @ t=0.68
0.13271710452653854
% es.EX (V/m) @ t=0.68
-0.0879362061894362
% es.EY (V/m) @ t=0.68
0.04309725956889565
% es.EZ (V/m) @ t=0.68
-0.089574994795246
% es.tEX (V/m) @ t=0.68
-0.08793620618943176
% es.tEY (V/m) @ t=0.68
0
% es.tEZ (V/m) @ t=0.68
-0.08957499479524711
% es.Ex (V/m) @ t=0.68
-0.0879362061894362
% es.Ey (V/m) @ t=0.68
0.04309725956889565
% es.Ez (V/m) @ t=0.68
-0.089574994795246
% es.tEx (V/m) @ t=0.68
-0.08793620618943176
% es.tEy (V/m) @ t=0.68
0
% es.tEz (V/m) @ t=0.68
-0.08957499479524711
% V (V) @ t=0.68
0.027578922488762453
% es.normE (V/m) @ t=0.7
0.13388841486028694
% es.EX (V/m) @ t=0.7
-0.08871229745698628
% es.EY (V/m) @ t=0.7
0.0434776194745794
% es.EZ (V/m) @ t=0.7
-0.09036554940090369
% es.tEX (V/m) @ t=0.7
-0.0887122974569845
% es.tEY (V/m) @ t=0.7
0
% es.tEZ (V/m) @ t=0.7
-0.09036554940090213
% es.Ex (V/m) @ t=0.7
-0.08871229745698628
% es.Ey (V/m) @ t=0.7
0.0434776194745794
% es.Ez (V/m) @ t=0.7
-0.09036554940090369
% es.tEx (V/m) @ t=0.7
-0.0887122974569845
% es.tEy (V/m) @ t=0.7
0
% es.tEz (V/m) @ t=0.7
-0.09036554940090213
% V (V) @ t=0.7
0.02782232349828105
% es.normE (V/m) @ t=0.72
0.1350910644372974
% es.EX (V/m) @ t=0.72
-0.08950915360332878
% es.EY (V/m) @ t=0.72
0.043868156181193996
% es.EZ (V/m) @ t=0.72
-0.09117725585517533
% es.tEX (V/m) @ t=0.72
-0.08950915360332745
% es.tEY (V/m) @ t=0.72
0
% es.tEZ (V/m) @ t=0.72
-0.09117725585517644
% es.Ex (V/m) @ t=0.72
-0.08950915360332878
% es.Ey (V/m) @ t=0.72
0.043868156181193996
% es.Ez (V/m) @ t=0.72
-0.09117725585517533
% es.tEx (V/m) @ t=0.72
-0.08950915360332745
% es.tEy (V/m) @ t=0.72
0
% es.tEz (V/m) @ t=0.72
-0.09117725585517644
% V (V) @ t=0.72
0.028072236874421543
% es.normE (V/m) @ t=0.74
0.13639319683626386
% es.EX (V/m) @ t=0.74
-0.09037192546828443
% es.EY (V/m) @ t=0.74
0.044290997971316415
% es.EZ (V/m) @ t=0.74
-0.09205610641926754
% es.tEX (V/m) @ t=0.74
-0.09037192546828088
% es.tEY (V/m) @ t=0.74
0
% es.tEZ (V/m) @ t=0.74
-0.0920561064192642
% es.Ex (V/m) @ t=0.74
-0.09037192546828443
% es.Ey (V/m) @ t=0.74
0.044290997971316415
% es.Ez (V/m) @ t=0.74
-0.09205610641926754
% es.tEx (V/m) @ t=0.74
-0.09037192546828088
% es.tEy (V/m) @ t=0.74
0
% es.tEz (V/m) @ t=0.74
-0.0920561064192642
% V (V) @ t=0.74
0.02834282300912275
% es.normE (V/m) @ t=0.76
0.1376953292352558
% es.EX (V/m) @ t=0.76
-0.09123469733324185
% es.EY (V/m) @ t=0.76
0.04471383976150989
% es.EZ (V/m) @ t=0.76
-0.09293495698336152
% es.tEX (V/m) @ t=0.76
-0.09123469733324185
% es.tEY (V/m) @ t=0.76
0
% es.tEZ (V/m) @ t=0.76
-0.09293495698335952
% es.Ex (V/m) @ t=0.76
-0.09123469733324185
% es.Ey (V/m) @ t=0.76
0.04471383976150989
% es.Ez (V/m) @ t=0.76
-0.09293495698336152
% es.tEx (V/m) @ t=0.76
-0.09123469733324185
% es.tEy (V/m) @ t=0.76
0
% es.tEz (V/m) @ t=0.76
-0.09293495698335952
% V (V) @ t=0.76
0.02861340914382395
% es.normE (V/m) @ t=0.78
0.13899746163424662
% es.EX (V/m) @ t=0.78
-0.09209746919820105
% es.EY (V/m) @ t=0.78
0.0451366815516927
% es.EZ (V/m) @ t=0.78
-0.09381380754745727
% es.tEX (V/m) @ t=0.78
-0.09209746919820239
% es.tEY (V/m) @ t=0.78
0
% es.tEZ (V/m) @ t=0.78
-0.09381380754745439
% es.Ex (V/m) @ t=0.78
-0.09209746919820105
% es.Ey (V/m) @ t=0.78
0.0451366815516927
% es.Ez (V/m) @ t=0.78
-0.09381380754745727
% es.tEx (V/m) @ t=0.78
-0.09209746919820239
% es.tEy (V/m) @ t=0.78
0
% es.tEz (V/m) @ t=0.78
-0.09381380754745439
% V (V) @ t=0.78
0.028883995278525157
% es.normE (V/m) @ t=0.8
0.14029959403322004
% es.EX (V/m) @ t=0.8
-0.09296024106316025
% es.EY (V/m) @ t=0.8
0.04555952334182933
% es.EZ (V/m) @ t=0.8
-0.09469265811154948
% es.tEX (V/m) @ t=0.8
-0.0929602410631567
% es.tEY (V/m) @ t=0.8
0
% es.tEZ (V/m) @ t=0.8
-0.0946926581115568
% es.Ex (V/m) @ t=0.8
-0.09296024106316025
% es.Ey (V/m) @ t=0.8
0.04555952334182933
% es.Ez (V/m) @ t=0.8
-0.09469265811154948
% es.tEx (V/m) @ t=0.8
-0.0929602410631567
% es.tEy (V/m) @ t=0.8
0
% es.tEz (V/m) @ t=0.8
-0.0946926581115568
% V (V) @ t=0.8
0.02915458141322636
% es.normE (V/m) @ t=0.82
0.14160172643219324
% es.EX (V/m) @ t=0.82
-0.09382301292811768
% es.EY (V/m) @ t=0.82
0.04598236513198728
% es.EZ (V/m) @ t=0.82
-0.0955715086756328
% es.tEX (V/m) @ t=0.82
-0.09382301292811723
% es.tEY (V/m) @ t=0.82
0
% es.tEZ (V/m) @ t=0.82
-0.09557150867563746
% es.Ex (V/m) @ t=0.82
-0.09382301292811768
% es.Ey (V/m) @ t=0.82
0.04598236513198728
% es.Ez (V/m) @ t=0.82
-0.0955715086756328
% es.tEx (V/m) @ t=0.82
-0.09382301292811723
% es.tEy (V/m) @ t=0.82
0
% es.tEz (V/m) @ t=0.82
-0.09557150867563746
% V (V) @ t=0.82
0.02942516754792756
% es.normE (V/m) @ t=0.84
0.14290385883119328
% es.EX (V/m) @ t=0.84
-0.09468578479307332
% es.EY (V/m) @ t=0.84
0.04640520692220207
% es.EZ (V/m) @ t=0.84
-0.09645035923973033
% es.tEX (V/m) @ t=0.84
-0.09468578479307466
% es.tEY (V/m) @ t=0.84
0
% es.tEZ (V/m) @ t=0.84
-0.09645035923973966
% es.Ex (V/m) @ t=0.84
-0.09468578479307332
% es.Ey (V/m) @ t=0.84
0.04640520692220207
% es.Ez (V/m) @ t=0.84
-0.09645035923973033
% es.tEx (V/m) @ t=0.84
-0.09468578479307466
% es.tEy (V/m) @ t=0.84
0
% es.tEz (V/m) @ t=0.84
-0.09645035923973966
% V (V) @ t=0.84
0.02969575368262876
% es.normE (V/m) @ t=0.86
0.14420599123018188
% es.EX (V/m) @ t=0.86
-0.0955485566580272
% es.EY (V/m) @ t=0.86
0.04682804871237778
% es.EZ (V/m) @ t=0.86
-0.09732920980383142
% es.tEX (V/m) @ t=0.86
-0.09554855665802497
% es.tEY (V/m) @ t=0.86
0
% es.tEZ (V/m) @ t=0.86
-0.09732920980382764
% es.Ex (V/m) @ t=0.86
-0.0955485566580272
% es.Ey (V/m) @ t=0.86
0.04682804871237778
% es.Ez (V/m) @ t=0.86
-0.09732920980383142
% es.tEx (V/m) @ t=0.86
-0.09554855665802497
% es.tEy (V/m) @ t=0.86
0
% es.tEz (V/m) @ t=0.86
-0.09732920980382764
% V (V) @ t=0.86
0.029966339817329966
% es.normE (V/m) @ t=0.88
0.14550812362914953
% es.EX (V/m) @ t=0.88
-0.09641132852297929
% es.EY (V/m) @ t=0.88
0.04725089050250375
% es.EZ (V/m) @ t=0.88
-0.09820806036792717
% es.tEX (V/m) @ t=0.88
-0.0964113285229784
% es.tEY (V/m) @ t=0.88
0
% es.tEZ (V/m) @ t=0.88
-0.09820806036792273
% es.Ex (V/m) @ t=0.88
-0.09641132852297929
% es.Ey (V/m) @ t=0.88
0.04725089050250375
% es.Ez (V/m) @ t=0.88
-0.09820806036792717
% es.tEx (V/m) @ t=0.88
-0.0964113285229784
% es.tEy (V/m) @ t=0.88
0
% es.tEz (V/m) @ t=0.88
-0.09820806036792273
% V (V) @ t=0.88
0.03023692595203117
% es.normE (V/m) @ t=0.9
0.14681025602812142
% es.EX (V/m) @ t=0.9
-0.09727410038793494
% es.EY (V/m) @ t=0.9
0.047673732292672355
% es.EZ (V/m) @ t=0.9
-0.09908691093200517
% es.tEX (V/m) @ t=0.9
-0.09727410038793582
% es.tEY (V/m) @ t=0.9
0
% es.tEZ (V/m) @ t=0.9
-0.09908691093200361
% es.Ex (V/m) @ t=0.9
-0.09727410038793494
% es.Ey (V/m) @ t=0.9
0.047673732292672355
% es.Ez (V/m) @ t=0.9
-0.09908691093200517
% es.tEx (V/m) @ t=0.9
-0.09727410038793582
% es.tEy (V/m) @ t=0.9
0
% es.tEz (V/m) @ t=0.9
-0.09908691093200361
% V (V) @ t=0.9
0.030507512086732372
% es.normE (V/m) @ t=0.92
0.1481123884271324
% es.EX (V/m) @ t=0.92
-0.09813687225290124
% es.EY (V/m) @ t=0.92
0.04809657408286583
% es.EZ (V/m) @ t=0.92
-0.09996576149611869
% es.tEX (V/m) @ t=0.92
-0.09813687225289991
% es.tEY (V/m) @ t=0.92
0
% es.tEZ (V/m) @ t=0.92
-0.09996576149611269
% es.Ex (V/m) @ t=0.92
-0.09813687225290124
% es.Ey (V/m) @ t=0.92
0.04809657408286583
% es.Ez (V/m) @ t=0.92
-0.09996576149611869
% es.tEx (V/m) @ t=0.92
-0.09813687225289991
% es.tEy (V/m) @ t=0.92
0
% es.tEz (V/m) @ t=0.92
-0.09996576149611269
% V (V) @ t=0.92
0.030778098221433577
% es.normE (V/m) @ t=0.94
0.14941452082609388
% es.EX (V/m) @ t=0.94
-0.09899964411785511
% es.EY (V/m) @ t=0.94
0.04851941587300601
% es.EZ (V/m) @ t=0.94
-0.10084461206019668
% es.tEX (V/m) @ t=0.94
-0.09899964411785733
% es.tEY (V/m) @ t=0.94
0
% es.tEZ (V/m) @ t=0.94
-0.10084461206020778
% es.Ex (V/m) @ t=0.94
-0.09899964411785511
% es.Ey (V/m) @ t=0.94
0.04851941587300601
% es.Ez (V/m) @ t=0.94
-0.10084461206019668
% es.tEx (V/m) @ t=0.94
-0.09899964411785733
% es.tEy (V/m) @ t=0.94
0
% es.tEz (V/m) @ t=0.94
-0.10084461206020778
% V (V) @ t=0.94
0.031048684356134774
% es.normE (V/m) @ t=0.96
0.15071665322506742
% es.EX (V/m) @ t=0.96
-0.09986241598280188
% es.EY (V/m) @ t=0.96
0.048942257663146194
% es.EZ (V/m) @ t=0.96
-0.10172346262429954
% es.tEX (V/m) @ t=0.96
-0.09986241598280055
% es.tEY (V/m) @ t=0.96
0
% es.tEZ (V/m) @ t=0.96
-0.10172346262430287
% es.Ex (V/m) @ t=0.96
-0.09986241598280188
% es.Ey (V/m) @ t=0.96
0.048942257663146194
% es.Ez (V/m) @ t=0.96
-0.10172346262429954
% es.tEx (V/m) @ t=0.96
-0.09986241598280055
% es.tEy (V/m) @ t=0.96
0
% es.tEz (V/m) @ t=0.96
-0.10172346262430287
% V (V) @ t=0.96
0.03131927049083598
% es.normE (V/m) @ t=0.98
0.15207307881599913
% es.EX (V/m) @ t=0.98
-0.10076116163731541
% es.EY (V/m) @ t=0.98
0.04938273009544503
% es.EZ (V/m) @ t=0.98
-0.10263895739141304
% es.tEX (V/m) @ t=0.98
-0.10076116163730697
% es.tEY (V/m) @ t=0.98
0
% es.tEZ (V/m) @ t=0.98
-0.10263895739140905
% es.Ex (V/m) @ t=0.98
-0.10076116163731541
% es.Ey (V/m) @ t=0.98
0.04938273009544503
% es.Ez (V/m) @ t=0.98
-0.10263895739141304
% es.tEx (V/m) @ t=0.98
-0.10076116163730697
% es.tEy (V/m) @ t=0.98
0
% es.tEz (V/m) @ t=0.98
-0.10263895739140905
% V (V) @ t=0.98
0.03160113887717123
% es.normE (V/m) @ t=1
0.15352287465213763
% es.EX (V/m) @ t=1
-0.10172177290393947
% es.EY (V/m) @ t=1
0.0498535226713166
% es.EZ (V/m) @ t=1
-0.10361747070835037
% es.tEX (V/m) @ t=1
-0.10172177290393547
% es.tEY (V/m) @ t=1
0
% es.tEZ (V/m) @ t=1
-0.10361747070834904
% es.Ex (V/m) @ t=1
-0.10172177290393947
% es.Ey (V/m) @ t=1
0.0498535226713166
% es.Ez (V/m) @ t=1
-0.10361747070835037
% es.tEx (V/m) @ t=1
-0.10172177290393547
% es.tEy (V/m) @ t=1
0
% es.tEz (V/m) @ t=1
-0.10361747070834904
% V (V) @ t=1
0.031902409817753066
% es.normE (V/m) @ t=1.02
0.1549726704882785
% es.EX (V/m) @ t=1.02
-0.10268238417055642