% Model:              1 neuron.mph
% Version:            COMSOL 6.1.0.252
% Date:               Mar 26 2023, 14:57
% Dimension:          0
% Nodes:              14017
% Expressions:        14017
% Description:        Electric field norm, Electric field, X component, Electric field, Y component, Electric field, Z component, Tangential electric field, X component, Tangential electric field, Y component, Tangential electric field, Z component, Electric field, x component, Electric field, y component, Electric field, z component, Tangential electric field, x component, Tangential electric field, y component, Tangential electric field, z component, Electric potential
% Length unit:        mm
% x
2
% y
14.200000000000003
% z
1.33
% es.normE (V/m) @ t=0
0.09838531296251711
% es.EX (V/m) @ t=0
-0.09426452970692978
% es.EY (V/m) @ t=0
-0.0191775530375331
% es.EZ (V/m) @ t=0
0.020641940445520035
% es.tEX (V/m) @ t=0
-0.09426452970693155
% es.tEY (V/m) @ t=0
0
% es.tEZ (V/m) @ t=0
0.0206419404455227
% es.Ex (V/m) @ t=0
-0.09426452970692978
% es.Ey (V/m) @ t=0
-0.0191775530375331
% es.Ez (V/m) @ t=0
0.020641940445520035
% es.tEx (V/m) @ t=0
-0.09426452970693155
% es.tEy (V/m) @ t=0
0
% es.tEz (V/m) @ t=0
0.0206419404455227
% V (V) @ t=0
0.022186468749603585
% es.normE (V/m) @ t=0.02
0.0901008144059376
% es.EX (V/m) @ t=0.02
-0.08632702016410576
% es.EY (V/m) @ t=0.02
-0.017562714342592045
% es.EZ (V/m) @ t=0.02
0.01890379356425065
% es.tEX (V/m) @ t=0.02
-0.08632702016410754
% es.tEY (V/m) @ t=0.02
0
% es.tEZ (V/m) @ t=0.02
0.0189037935642542
% es.Ex (V/m) @ t=0.02
-0.08632702016410576
% es.Ey (V/m) @ t=0.02
-0.017562714342592045
% es.Ez (V/m) @ t=0.02
0.01890379356425065
% es.tEx (V/m) @ t=0.02
-0.08632702016410754
% es.tEy (V/m) @ t=0.02
0
% es.tEz (V/m) @ t=0.02
0.0189037935642542
% V (V) @ t=0.02
0.020318265430966674
% es.normE (V/m) @ t=0.04
0.09092802570432838
% es.EX (V/m) @ t=0.04
-0.08711958443670298
% es.EY (V/m) @ t=0.04
-0.01772395678883143
% es.EZ (V/m) @ t=0.04
0.019077348395697413
% es.tEX (V/m) @ t=0.04
-0.08711958443669943
% es.tEY (V/m) @ t=0.04
0
% es.tEZ (V/m) @ t=0.04
0.019077348395706295
% es.Ex (V/m) @ t=0.04
-0.08711958443670298
% es.Ey (V/m) @ t=0.04
-0.01772395678883143
% es.Ez (V/m) @ t=0.04
0.019077348395697413
% es.tEx (V/m) @ t=0.04
-0.08711958443669943
% es.tEy (V/m) @ t=0.04
0
% es.tEz (V/m) @ t=0.04
0.019077348395706295
% V (V) @ t=0.04
0.02050480646069216
% es.normE (V/m) @ t=0.06
0.09176408364117611
% es.EX (V/m) @ t=0.06
-0.08792062481399121
% es.EY (V/m) @ t=0.06
-0.017886923647768782
% es.EZ (V/m) @ t=0.06
0.01925275931499293
% es.tEX (V/m) @ t=0.06
-0.08792062481398055
% es.tEY (V/m) @ t=0.06
0
% es.tEZ (V/m) @ t=0.06
0.019252759314995593
% es.Ex (V/m) @ t=0.06
-0.08792062481399121
% es.Ey (V/m) @ t=0.06
-0.017886923647768782
% es.Ez (V/m) @ t=0.06
0.01925275931499293
% es.tEx (V/m) @ t=0.06
-0.08792062481398055
% es.tEy (V/m) @ t=0.06
0
% es.tEz (V/m) @ t=0.06
0.019252759314995593
% V (V) @ t=0.06
0.020693342459335025
% es.normE (V/m) @ t=0.08
0.09260987802521188
% es.EX (V/m) @ t=0.08
-0.08873099383590066
% es.EY (V/m) @ t=0.08
-0.018051788363504073
% es.EZ (V/m) @ t=0.08
0.019430213010084074
% es.tEX (V/m) @ t=0.08
-0.08873099383590066
% es.tEY (V/m) @ t=0.08
0
% es.tEZ (V/m) @ t=0.08
0.01943021301008674
% es.Ex (V/m) @ t=0.08
-0.08873099383590066
% es.Ey (V/m) @ t=0.08
-0.018051788363504073
% es.Ez (V/m) @ t=0.08
0.019430213010084074
% es.tEx (V/m) @ t=0.08
-0.08873099383590066
% es.tEy (V/m) @ t=0.08
0
% es.tEz (V/m) @ t=0.08
0.01943021301008674
% V (V) @ t=0.08
0.020884074084534618
% es.normE (V/m) @ t=0.1
0.09346896650952405
% es.EX (V/m) @ t=0.1
-0.08955410014632648
% es.EY (V/m) @ t=0.1
-0.018219244404299673
% es.EZ (V/m) @ t=0.1
0.019610455901805324
% es.tEX (V/m) @ t=0.1
-0.08955410014631937
% es.tEY (V/m) @ t=0.1
0
% es.tEZ (V/m) @ t=0.1
0.019610455901809765
% es.Ex (V/m) @ t=0.1
-0.08955410014632648
% es.Ey (V/m) @ t=0.1
-0.018219244404299673
% es.Ez (V/m) @ t=0.1
0.019610455901805324
% es.tEx (V/m) @ t=0.1
-0.08955410014631937
% es.tEy (V/m) @ t=0.1
0
% es.tEz (V/m) @ t=0.1
0.019610455901809765
% V (V) @ t=0.1
0.02107780360813868
% es.normE (V/m) @ t=0.12
0.09432805499384839
% es.EX (V/m) @ t=0.12
-0.0903772064567665
% es.EY (V/m) @ t=0.12
-0.01838670044509172
% es.EZ (V/m) @ t=0.12
0.01979069879352302
% es.tEX (V/m) @ t=0.12
-0.09037720645676117
% es.tEY (V/m) @ t=0.12
0
% es.tEZ (V/m) @ t=0.12
0.01979069879353368
% es.Ex (V/m) @ t=0.12
-0.0903772064567665
% es.Ey (V/m) @ t=0.12
-0.01838670044509172
% es.Ez (V/m) @ t=0.12
0.01979069879352302
% es.tEx (V/m) @ t=0.12
-0.09037720645676117
% es.tEy (V/m) @ t=0.12
0
% es.tEz (V/m) @ t=0.12
0.01979069879353368
% V (V) @ t=0.12
0.02127153313174275
% es.normE (V/m) @ t=0.14
0.09518714347816852
% es.EX (V/m) @ t=0.14
-0.09120031276721008
% es.EY (V/m) @ t=0.14
-0.018554156485819817
% es.EZ (V/m) @ t=0.14
0.01997094168526381
% es.tEX (V/m) @ t=0.14
-0.0912003127672083
% es.tEY (V/m) @ t=0.14
0
% es.tEZ (V/m) @ t=0.14
0.019970941685266475
% es.Ex (V/m) @ t=0.14
-0.09120031276721008
% es.Ey (V/m) @ t=0.14
-0.018554156485819817
% es.Ez (V/m) @ t=0.14
0.01997094168526381
% es.tEx (V/m) @ t=0.14
-0.0912003127672083
% es.tEy (V/m) @ t=0.14
0
% es.tEz (V/m) @ t=0.14
0.019970941685266475
% V (V) @ t=0.14
0.021465262655346824
% es.normE (V/m) @ t=0.16
0.09608785200038472
% es.EX (V/m) @ t=0.16
-0.09206329589638429
% es.EY (V/m) @ t=0.16
-0.018729725226091176
% es.EZ (V/m) @ t=0.16
0.020159916758204943
% es.tEX (V/m) @ t=0.16
-0.09206329589637896
% es.tEY (V/m) @ t=0.16
0
% es.tEZ (V/m) @ t=0.16
0.020159916758218266
% es.Ex (V/m) @ t=0.16
-0.09206329589638429
% es.Ey (V/m) @ t=0.16
-0.018729725226091176
% es.Ez (V/m) @ t=0.16
0.020159916758204943
% es.tEx (V/m) @ t=0.16
-0.09206329589637896
% es.tEy (V/m) @ t=0.16
0
% es.tEz (V/m) @ t=0.16
0.020159916758218266
% V (V) @ t=0.16
0.021668377744075203
% es.normE (V/m) @ t=0.18
0.09699586166488135
% es.EX (V/m) @ t=0.18
-0.09293327436583176
% es.EY (V/m) @ t=0.18
-0.018906717126331074
% es.EZ (V/m) @ t=0.18
0.02035042366297901
% es.tEX (V/m) @ t=0.18
-0.092933274365814
% es.tEY (V/m) @ t=0.18
0
% es.tEZ (V/m) @ t=0.18
0.020350423662977235
% es.Ex (V/m) @ t=0.18
-0.09293327436583176
% es.Ey (V/m) @ t=0.18
-0.018906717126331074
% es.Ez (V/m) @ t=0.18
0.02035042366297901
% es.tEx (V/m) @ t=0.18
-0.092933274365814
% es.tEy (V/m) @ t=0.18
0
% es.tEz (V/m) @ t=0.18
0.020350423662977235
% V (V) @ t=0.18
0.021873139283639178
% es.normE (V/m) @ t=0.2
0.09790387132935989
% es.EX (V/m) @ t=0.2
-0.0938032528352668
% es.EY (V/m) @ t=0.2
-0.019083709026535445
% es.EZ (V/m) @ t=0.2
0.020540930567756632
% es.tEX (V/m) @ t=0.2
-0.09380325283525792
% es.tEY (V/m) @ t=0.2
0
% es.tEZ (V/m) @ t=0.2
0.020540930567756632
% es.Ex (V/m) @ t=0.2
-0.0938032528352668
% es.Ey (V/m) @ t=0.2
-0.019083709026535445
% es.Ez (V/m) @ t=0.2
0.020540930567756632
% es.tEx (V/m) @ t=0.2
-0.09380325283525792
% es.tEy (V/m) @ t=0.2
0
% es.tEz (V/m) @ t=0.2
0.020540930567756632
% V (V) @ t=0.2
0.022077900823203156
% es.normE (V/m) @ t=0.22
0.09881188099384806
% es.EX (V/m) @ t=0.22
-0.09467323130471073
% es.EY (V/m) @ t=0.22
-0.019260700926789553
% es.EZ (V/m) @ t=0.22
0.020731437472493397
% es.tEX (V/m) @ t=0.22
-0.09467323130469474
% es.tEY (V/m) @ t=0.22
0
% es.tEZ (V/m) @ t=0.22
0.020731437472500502
% es.Ex (V/m) @ t=0.22
-0.09467323130471073
% es.Ey (V/m) @ t=0.22
-0.019260700926789553
% es.Ez (V/m) @ t=0.22
0.020731437472493397
% es.tEx (V/m) @ t=0.22
-0.09467323130469474
% es.tEy (V/m) @ t=0.22
0
% es.tEz (V/m) @ t=0.22
0.020731437472500502
% V (V) @ t=0.22
0.022282662362767127
% es.normE (V/m) @ t=0.24
0.09971989065833539
% es.EX (V/m) @ t=0.24
-0.09554320977415465
% es.EY (V/m) @ t=0.24
-0.01943769282700103
% es.EZ (V/m) @ t=0.24
0.02092194437726569
% es.tEX (V/m) @ t=0.24
-0.09554320977414044
% es.tEY (V/m) @ t=0.24
0
% es.tEZ (V/m) @ t=0.24
0.020921944377268353
% es.Ex (V/m) @ t=0.24
-0.09554320977415465
% es.Ey (V/m) @ t=0.24
-0.01943769282700103
% es.Ez (V/m) @ t=0.24
0.02092194437726569
% es.tEx (V/m) @ t=0.24
-0.09554320977414044
% es.tEy (V/m) @ t=0.24
0
% es.tEz (V/m) @ t=0.24
0.020921944377268353
% V (V) @ t=0.24
0.022487423902331105
% es.normE (V/m) @ t=0.26
0.10062790032283186
% es.EX (V/m) @ t=0.26
-0.09641318824360567
% es.EY (V/m) @ t=0.26
-0.01961468472723027
% es.EZ (V/m) @ t=0.26
0.02111245128203265
% es.tEX (V/m) @ t=0.26
-0.09641318824360212
% es.tEY (V/m) @ t=0.26
0
% es.tEZ (V/m) @ t=0.26
0.021112451282035316
% es.Ex (V/m) @ t=0.26
-0.09641318824360567
% es.Ey (V/m) @ t=0.26
-0.01961468472723027
% es.Ez (V/m) @ t=0.26
0.02111245128203265
% es.tEx (V/m) @ t=0.26
-0.09641318824360212
% es.tEy (V/m) @ t=0.26
0
% es.tEz (V/m) @ t=0.26
0.021112451282035316
% V (V) @ t=0.26
0.022692185441895076
% es.normE (V/m) @ t=0.28
0.10153590998729935
% es.EX (V/m) @ t=0.28
-0.09728316671303361
% es.EY (V/m) @ t=0.28
-0.019791676627445298
% es.EZ (V/m) @ t=0.28
0.021302958186780074
% es.tEX (V/m) @ t=0.28
-0.09728316671303361
% es.tEY (V/m) @ t=0.28
0
% es.tEZ (V/m) @ t=0.28
0.021302958186779186
% es.Ex (V/m) @ t=0.28
-0.09728316671303361
% es.Ey (V/m) @ t=0.28
-0.019791676627445298
% es.Ez (V/m) @ t=0.28
0.021302958186780074
% es.tEx (V/m) @ t=0.28
-0.09728316671303361
% es.tEy (V/m) @ t=0.28
0
% es.tEz (V/m) @ t=0.28
0.021302958186779186
% V (V) @ t=0.28
0.02289694698145905
% es.normE (V/m) @ t=0.3
0.10248076281258123
% es.EX (V/m) @ t=0.3
-0.0981884451995434
% es.EY (V/m) @ t=0.3
-0.01997585010439451
% es.EZ (V/m) @ t=0.3
0.02150119504938175
% es.tEX (V/m) @ t=0.3
-0.09818844519952918
% es.tEY (V/m) @ t=0.3
0
% es.tEZ (V/m) @ t=0.3
0.021501195049394184
% es.Ex (V/m) @ t=0.3
-0.0981884451995434
% es.Ey (V/m) @ t=0.3
-0.01997585010439451
% es.Ez (V/m) @ t=0.3
0.02150119504938175
% es.tEx (V/m) @ t=0.3
-0.09818844519952918
% es.tEy (V/m) @ t=0.3
0
% es.tEz (V/m) @ t=0.3
0.021501195049394184
% V (V) @ t=0.3
0.02311001687049962
% es.normE (V/m) @ t=0.32
0.10344090313695121
% es.EX (V/m) @ t=0.32
-0.09910837088154878
% es.EY (V/m) @ t=0.32
-0.02016300346542721
% es.EZ (V/m) @ t=0.32
0.021702639338261775
% es.tEX (V/m) @ t=0.32
-0.09910837088153812
% es.tEY (V/m) @ t=0.32
0
% es.tEZ (V/m) @ t=0.32
0.02170263933827421
% es.Ex (V/m) @ t=0.32
-0.09910837088154878
% es.Ey (V/m) @ t=0.32
-0.02016300346542721
% es.Ez (V/m) @ t=0.32
0.021702639338261775
% es.tEx (V/m) @ t=0.32
-0.09910837088153812
% es.tEy (V/m) @ t=0.32
0
% es.tEz (V/m) @ t=0.32
0.02170263933827421
% V (V) @ t=0.32
0.02332653418050933
% es.normE (V/m) @ t=0.34
0.10440104346131916
% es.EX (V/m) @ t=0.34
-0.10002829656355239
% es.EY (V/m) @ t=0.34
-0.020350156826431487
% es.EZ (V/m) @ t=0.34
0.02190408362716667
% es.tEX (V/m) @ t=0.34
-0.10002829656355772
% es.tEY (V/m) @ t=0.34
0
% es.tEZ (V/m) @ t=0.34
0.021904083627170223
% es.Ex (V/m) @ t=0.34
-0.10002829656355239
% es.Ey (V/m) @ t=0.34
-0.020350156826431487
% es.Ez (V/m) @ t=0.34
0.02190408362716667
% es.tEx (V/m) @ t=0.34
-0.10002829656355772
% es.tEy (V/m) @ t=0.34
0
% es.tEz (V/m) @ t=0.34
0.021904083627170223
% V (V) @ t=0.34
0.023543051490519037
% es.normE (V/m) @ t=0.36
0.10536118378567828
% es.EX (V/m) @ t=0.36
-0.10094822224555244
% es.EY (V/m) @ t=0.36
-0.020537310187425106
% es.EZ (V/m) @ t=0.36
0.02210552791605558
% es.tEX (V/m) @ t=0.36
-0.10094822224555955
% es.tEY (V/m) @ t=0.36
0
% es.tEZ (V/m) @ t=0.36
0.022105527916068013
% es.Ex (V/m) @ t=0.36
-0.10094822224555244
% es.Ey (V/m) @ t=0.36
-0.020537310187425106
% es.Ez (V/m) @ t=0.36
0.02210552791605558
% es.tEx (V/m) @ t=0.36
-0.10094822224555955
% es.tEy (V/m) @ t=0.36
0
% es.tEz (V/m) @ t=0.36
0.022105527916068013
% V (V) @ t=0.36
0.023759568800528746
% es.normE (V/m) @ t=0.38
0.10632132411006123
% es.EX (V/m) @ t=0.38
-0.10186814792757914
% es.EY (V/m) @ t=0.38
-0.020724463548408067
% es.EZ (V/m) @ t=0.38
0.022306972204946263
% es.tEX (V/m) @ t=0.38
-0.10186814792756138
% es.tEY (V/m) @ t=0.38
0
% es.tEZ (V/m) @ t=0.38
0.02230697220495692
% es.Ex (V/m) @ t=0.38
-0.10186814792757914
% es.Ey (V/m) @ t=0.38
-0.020724463548408067
% es.Ez (V/m) @ t=0.38
0.022306972204946263
% es.tEx (V/m) @ t=0.38
-0.10186814792756138
% es.tEy (V/m) @ t=0.38
0
% es.tEz (V/m) @ t=0.38
0.02230697220495692
% V (V) @ t=0.38
0.023976086110538457
% es.normE (V/m) @ t=0.4
0.10728146443443408
% es.EX (V/m) @ t=0.4
-0.1027880736095863
% es.EY (V/m) @ t=0.4
-0.020911616909437214
% es.EZ (V/m) @ t=0.4
0.02250841649383517
% es.tEX (V/m) @ t=0.4
-0.10278807360958098
% es.tEY (V/m) @ t=0.4
0
% es.tEZ (V/m) @ t=0.4
0.022508416493838723
% es.Ex (V/m) @ t=0.4
-0.1027880736095863
% es.Ey (V/m) @ t=0.4
-0.020911616909437214
% es.Ez (V/m) @ t=0.4
0.02250841649383517
% es.tEx (V/m) @ t=0.4
-0.10278807360958098
% es.tEy (V/m) @ t=0.4
0
% es.tEz (V/m) @ t=0.4
0.022508416493838723
% V (V) @ t=0.4
0.02419260342054817
% es.normE (V/m) @ t=0.42
0.10824160475880315
% es.EX (V/m) @ t=0.42
-0.10370799929159702
% es.EY (V/m) @ t=0.42
-0.021098770270423728
% es.EZ (V/m) @ t=0.42
0.022709860782729407
% es.tEX (V/m) @ t=0.42
-0.1037079992915757
% es.tEY (V/m) @ t=0.42
0
% es.tEZ (V/m) @ t=0.42
0.02270986078274717
% es.Ex (V/m) @ t=0.42
-0.10370799929159702
% es.Ey (V/m) @ t=0.42
-0.021098770270423728
% es.Ez (V/m) @ t=0.42
0.022709860782729407
% es.tEx (V/m) @ t=0.42
-0.1037079992915757
% es.tEy (V/m) @ t=0.42
0
% es.tEz (V/m) @ t=0.42
0.02270986078274717
% V (V) @ t=0.42
0.024409120730557878
% es.normE (V/m) @ t=0.44
0.10926837716257227
% es.EX (V/m) @ t=0.44
-0.10469176622623344
% es.EY (V/m) @ t=0.44
-0.021298911751138405
% es.EZ (V/m) @ t=0.44
0.022925284957684866
% es.tEX (V/m) @ t=0.44
-0.10469176622622811
% es.tEY (V/m) @ t=0.44
0
% es.tEZ (V/m) @ t=0.44
0.022925284957693748
% es.Ex (V/m) @ t=0.44
-0.10469176622623344
% es.Ey (V/m) @ t=0.44
-0.021298911751138405
% es.Ez (V/m) @ t=0.44
0.022925284957684866
% es.tEx (V/m) @ t=0.44
-0.10469176622622811
% es.tEy (V/m) @ t=0.44
0
% es.tEz (V/m) @ t=0.44
0.022925284957693748
% V (V) @ t=0.44
0.02464066396913752
% es.normE (V/m) @ t=0.46
0.11034692484970726
% es.EX (V/m) @ t=0.46
-0.10572513988147669
% es.EY (V/m) @ t=0.46
-0.02150914542140825
% es.EZ (V/m) @ t=0.46
0.023151571956777417
% es.tEX (V/m) @ t=0.46
-0.10572513988146426
% es.tEY (V/m) @ t=0.46
0
% es.tEZ (V/m) @ t=0.46
0.023151571956784522
% es.Ex (V/m) @ t=0.46
-0.10572513988147669
% es.Ey (V/m) @ t=0.46
-0.02150914542140825
% es.Ez (V/m) @ t=0.46
0.023151571956777417
% es.tEx (V/m) @ t=0.46
-0.10572513988146426
% es.tEy (V/m) @ t=0.46
0
% es.tEz (V/m) @ t=0.46
0.023151571956784522
% V (V) @ t=0.46
0.024883882840784247
% es.normE (V/m) @ t=0.48
0.11142547253684774
% es.EX (V/m) @ t=0.48
-0.10675851353671995
% es.EY (V/m) @ t=0.48
-0.021719379091710067
% es.EZ (V/m) @ t=0.48
0.023377858955866415
% es.tEX (V/m) @ t=0.48
-0.10675851353671462
% es.tEY (V/m) @ t=0.48
0
% es.tEZ (V/m) @ t=0.48
0.02337785895586819
% es.Ex (V/m) @ t=0.48
-0.10675851353671995
% es.Ey (V/m) @ t=0.48
-0.021719379091710067
% es.Ez (V/m) @ t=0.48
0.023377858955866415
% es.tEx (V/m) @ t=0.48
-0.10675851353671462
% es.tEy (V/m) @ t=0.48
0
% es.tEz (V/m) @ t=0.48
0.02337785895586819
% V (V) @ t=0.48
0.025127101712430974
% es.normE (V/m) @ t=0.5
0.11250402022399104
% es.EX (V/m) @ t=0.5
-0.10779188719196497
% es.EY (V/m) @ t=0.5
-0.021929612762011885
% es.EZ (V/m) @ t=0.5
0.023604145954960742
% es.tEX (V/m) @ t=0.5
-0.10779188719195432
% es.tEY (V/m) @ t=0.5
0
% es.tEZ (V/m) @ t=0.5
0.02360414595496607
% es.Ex (V/m) @ t=0.5
-0.10779188719196497
% es.Ey (V/m) @ t=0.5
-0.021929612762011885
% es.Ez (V/m) @ t=0.5
0.023604145954960742
% es.tEx (V/m) @ t=0.5
-0.10779188719195432
% es.tEy (V/m) @ t=0.5
0
% es.tEz (V/m) @ t=0.5
0.02360414595496607
% V (V) @ t=0.5
0.025370320584077705
% es.normE (V/m) @ t=0.52
0.11358256791113595
% es.EX (V/m) @ t=0.52
-0.10882526084720112
% es.EY (V/m) @ t=0.52
-0.022139846432384758
% es.EZ (V/m) @ t=0.52
0.023830432954037306
% es.tEX (V/m) @ t=0.52
-0.10882526084720112
% es.tEY (V/m) @ t=0.52
0
% es.tEZ (V/m) @ t=0.52
0.023830432954056846
% es.Ex (V/m) @ t=0.52
-0.10882526084720112
% es.Ey (V/m) @ t=0.52
-0.022139846432384758
% es.Ez (V/m) @ t=0.52
0.023830432954037306
% es.tEx (V/m) @ t=0.52
-0.10882526084720112
% es.tEy (V/m) @ t=0.52
0
% es.tEz (V/m) @ t=0.52
0.023830432954056846
% V (V) @ t=0.52
0.025613539455724428
% es.normE (V/m) @ t=0.54
0.11466111559826234
% es.EX (V/m) @ t=0.54
-0.10985863450243905
% es.EY (V/m) @ t=0.54
-0.02235008010264039
% es.EZ (V/m) @ t=0.54
0.024056719953126304
% es.tEX (V/m) @ t=0.54
-0.10985863450244437
% es.tEY (V/m) @ t=0.54
0
% es.tEZ (V/m) @ t=0.54
0.02405671995314762
% es.Ex (V/m) @ t=0.54
-0.10985863450243905
% es.Ey (V/m) @ t=0.54
-0.02235008010264039
% es.Ez (V/m) @ t=0.54
0.024056719953126304
% es.tEx (V/m) @ t=0.54
-0.10985863450244437
% es.tEy (V/m) @ t=0.54
0
% es.tEz (V/m) @ t=0.54
0.02405671995314762
% V (V) @ t=0.54
0.025856758327371162
% es.normE (V/m) @ t=0.56
0.11573966328540393
% es.EX (V/m) @ t=0.56
-0.11089200815768052
% es.EY (V/m) @ t=0.56
-0.022560313772952867
% es.EZ (V/m) @ t=0.56
0.024283006952218855
% es.tEX (V/m) @ t=0.56
-0.11089200815766631
% es.tEY (V/m) @ t=0.56
0
% es.tEZ (V/m) @ t=0.56
0.024283006952224184
% es.Ex (V/m) @ t=0.56
-0.11089200815768052
% es.Ey (V/m) @ t=0.56
-0.022560313772952867
% es.Ez (V/m) @ t=0.56
0.024283006952218855
% es.tEx (V/m) @ t=0.56
-0.11089200815766631
% es.tEy (V/m) @ t=0.56
0
% es.tEz (V/m) @ t=0.56
0.024283006952224184
% V (V) @ t=0.56
0.026099977199017885
% es.normE (V/m) @ t=0.58
0.11681821097255482
% es.EX (V/m) @ t=0.58
-0.11192538181294154
% es.EY (V/m) @ t=0.58
-0.02277054744322271
% es.EZ (V/m) @ t=0.58
0.024509293951306077
% es.tEX (V/m) @ t=0.58
-0.11192538181293799
% es.tEY (V/m) @ t=0.58
0
% es.tEZ (V/m) @ t=0.58
0.02450929395131496
% es.Ex (V/m) @ t=0.58
-0.11192538181294154
% es.Ey (V/m) @ t=0.58
-0.02277054744322271
% es.Ez (V/m) @ t=0.58
0.024509293951306077
% es.tEx (V/m) @ t=0.58
-0.11192538181293799
% es.tEy (V/m) @ t=0.58
0
% es.tEz (V/m) @ t=0.58
0.02450929395131496
% V (V) @ t=0.58
0.026343196070664612
% es.normE (V/m) @ t=0.6
0.11789675865969158
% es.EX (V/m) @ t=0.6
-0.11295875546817591
% es.EY (V/m) @ t=0.6
-0.02298078111352808
% es.EZ (V/m) @ t=0.6
0.024735580950414615
% es.tEX (V/m) @ t=0.6
-0.11295875546817769
% es.tEY (V/m) @ t=0.6
0
% es.tEZ (V/m) @ t=0.6
0.024735580950405733
% es.Ex (V/m) @ t=0.6
-0.11295875546817591
% es.Ey (V/m) @ t=0.6
-0.02298078111352808
% es.Ez (V/m) @ t=0.6
0.024735580950414615
% es.tEx (V/m) @ t=0.6
-0.11295875546817769
% es.tEy (V/m) @ t=0.6
0
% es.tEz (V/m) @ t=0.6
0.024735580950405733
% V (V) @ t=0.6
0.026586414942311343
% es.normE (V/m) @ t=0.62
0.11897530634682718
% es.EX (V/m) @ t=0.62
-0.11399212912341383
% es.EY (V/m) @ t=0.62
-0.023191014783840558
% es.EZ (V/m) @ t=0.62
0.02496186794949473
% es.tEX (V/m) @ t=0.62
-0.11399212912341028
% es.tEY (V/m) @ t=0.62
0
% es.tEZ (V/m) @ t=0.62
0.024961867949489402
% es.Ex (V/m) @ t=0.62
-0.11399212912341383
% es.Ey (V/m) @ t=0.62
-0.023191014783840558
% es.Ez (V/m) @ t=0.62
0.02496186794949473
% es.tEx (V/m) @ t=0.62
-0.11399212912341028
% es.tEy (V/m) @ t=0.62
0
% es.tEz (V/m) @ t=0.62
0.024961867949489402
% V (V) @ t=0.62
0.02682963381395807
% es.normE (V/m) @ t=0.64
0.12005385403397245
% es.EX (V/m) @ t=0.64
-0.11502550277865708
% es.EY (V/m) @ t=0.64
-0.023401248454170798
% es.EZ (V/m) @ t=0.64
0.025188154948580177
% es.tEX (V/m) @ t=0.64
-0.11502550277864643
% es.tEY (V/m) @ t=0.64
0
% es.tEZ (V/m) @ t=0.64
0.025188154948590835
% es.Ex (V/m) @ t=0.64
-0.11502550277865708
% es.Ey (V/m) @ t=0.64
-0.023401248454170798
% es.Ez (V/m) @ t=0.64
0.025188154948580177
% es.tEx (V/m) @ t=0.64
-0.11502550277864643
% es.tEy (V/m) @ t=0.64
0
% es.tEz (V/m) @ t=0.64
0.025188154948590835
% V (V) @ t=0.64
0.027072852685604804
% es.normE (V/m) @ t=0.66
0.12113240172111012
% es.EX (V/m) @ t=0.66
-0.11605887643389501
% es.EY (V/m) @ t=0.66
-0.023611482124469063
% es.EZ (V/m) @ t=0.66
0.025414441947683386
% es.tEX (V/m) @ t=0.66
-0.11605887643388613
% es.tEY (V/m) @ t=0.66
0
% es.tEZ (V/m) @ t=0.66
0.025414441947674504
% es.Ex (V/m) @ t=0.66
-0.11605887643389501
% es.Ey (V/m) @ t=0.66
-0.023611482124469063
% es.Ez (V/m) @ t=0.66
0.025414441947683386
% es.tEx (V/m) @ t=0.66
-0.11605887643388613
% es.tEy (V/m) @ t=0.66
0
% es.tEz (V/m) @ t=0.66
0.025414441947674504
% V (V) @ t=0.66
0.027316071557251534
% es.normE (V/m) @ t=0.68
0.12221094940822597
% es.EX (V/m) @ t=0.68
-0.11709225008911694
% es.EY (V/m) @ t=0.68
-0.023821715794753118
% es.EZ (V/m) @ t=0.68
0.02564072894676883
% es.tEX (V/m) @ t=0.68
-0.11709225008912227
% es.tEY (V/m) @ t=0.68
0
% es.tEZ (V/m) @ t=0.68
0.025640728946763502
% es.Ex (V/m) @ t=0.68
-0.11709225008911694
% es.Ey (V/m) @ t=0.68
-0.023821715794753118
% es.Ez (V/m) @ t=0.68
0.02564072894676883
% es.tEx (V/m) @ t=0.68
-0.11709225008912227
% es.tEy (V/m) @ t=0.68
0
% es.tEz (V/m) @ t=0.68
0.025640728946763502
% V (V) @ t=0.68
0.027559290428898264
% es.normE (V/m) @ t=0.7
0.12328949709537357
% es.EX (V/m) @ t=0.7
-0.1181256237443673
% es.EY (V/m) @ t=0.7
-0.02403194946505849
% es.EZ (V/m) @ t=0.7
0.025867015945856053
% es.tEX (V/m) @ t=0.7
-0.11812562374435842
% es.tEY (V/m) @ t=0.7
0
% es.tEZ (V/m) @ t=0.7
0.025867015945868488
% es.Ex (V/m) @ t=0.7
-0.1181256237443673
% es.Ey (V/m) @ t=0.7
-0.02403194946505849
% es.Ez (V/m) @ t=0.7
0.025867015945856053
% es.tEx (V/m) @ t=0.7
-0.11812562374435842
% es.tEy (V/m) @ t=0.7
0
% es.tEz (V/m) @ t=0.7
0.025867015945868488
% V (V) @ t=0.7
0.02780250930054499
% es.normE (V/m) @ t=0.72
0.12440110213988166
% es.EX (V/m) @ t=0.72
-0.11919067017836582
% es.EY (V/m) @ t=0.72
-0.024248626772266135
% es.EZ (V/m) @ t=0.72
0.026100238614017002
% es.tEX (V/m) @ t=0.72
-0.11919067017836227
% es.tEY (V/m) @ t=0.72
0
% es.tEZ (V/m) @ t=0.72
0.02610023861402233
% es.Ex (V/m) @ t=0.72
-0.11919067017836582
% es.Ey (V/m) @ t=0.72
-0.024248626772266135
% es.Ez (V/m) @ t=0.72
0.026100238614017002
% es.tEx (V/m) @ t=0.72
-0.11919067017836227
% es.tEy (V/m) @ t=0.72
0
% es.tEz (V/m) @ t=0.72
0.02610023861402233
% V (V) @ t=0.72
0.028053182800495628
% es.normE (V/m) @ t=0.74
0.12559998316758905
% es.EX (V/m) @ t=0.74
-0.12033933711704314
% es.EY (V/m) @ t=0.74
-0.02448231616974894
% es.EZ (V/m) @ t=0.74
0.026351772405167395
% es.tEX (V/m) @ t=0.74
-0.12033933711703071
% es.tEY (V/m) @ t=0.74
0
% es.tEZ (V/m) @ t=0.74
0.026351772405172724
% es.Ex (V/m) @ t=0.74
-0.12033933711704314
% es.Ey (V/m) @ t=0.74
-0.02448231616974894
% es.Ez (V/m) @ t=0.74
0.026351772405167395
% es.tEx (V/m) @ t=0.74
-0.12033933711703071
% es.tEy (V/m) @ t=0.74
0
% es.tEz (V/m) @ t=0.74
0.026351772405172724
% V (V) @ t=0.74
0.02832353754743778
% es.normE (V/m) @ t=0.76
0.12679886419530417
% es.EX (V/m) @ t=0.76
-0.12148800405573468
% es.EY (V/m) @ t=0.76
-0.024716005567199772
% es.EZ (V/m) @ t=0.76
0.026603306196319565
% es.tEX (V/m) @ t=0.76
-0.12148800405572757
% es.tEY (V/m) @ t=0.76
0
% es.tEZ (V/m) @ t=0.76
0.026603306196324894
% es.Ex (V/m) @ t=0.76
-0.12148800405573468
% es.Ey (V/m) @ t=0.76
-0.024716005567199772
% es.Ez (V/m) @ t=0.76
0.026603306196319565
% es.tEx (V/m) @ t=0.76
-0.12148800405572757
% es.tEy (V/m) @ t=0.76
0
% es.tEz (V/m) @ t=0.76
0.026603306196324894
% V (V) @ t=0.76
0.02859389229437993
% es.normE (V/m) @ t=0.78
0.12799774522301596
% es.EX (V/m) @ t=0.78
-0.12263667099442266
% es.EY (V/m) @ t=0.78
-0.02494969496469679
% es.EZ (V/m) @ t=0.78
0.026854839987429102
% es.tEX (V/m) @ t=0.78
-0.12263667099440667
% es.tEY (V/m) @ t=0.78
0
% es.tEZ (V/m) @ t=0.78
0.026854839987441537
% es.Ex (V/m) @ t=0.78
-0.12263667099442266
% es.Ey (V/m) @ t=0.78
-0.02494969496469679
% es.Ez (V/m) @ t=0.78
0.026854839987429102
% es.tEx (V/m) @ t=0.78
-0.12263667099440667
% es.tEy (V/m) @ t=0.78
0
% es.tEz (V/m) @ t=0.78
0.026854839987441537
% V (V) @ t=0.78
0.028864247041322073
% es.normE (V/m) @ t=0.8
0.1291966262507123
% es.EX (V/m) @ t=0.8
-0.12378533793309998
% es.EY (V/m) @ t=0.8
-0.0251833843621192
% es.EZ (V/m) @ t=0.8
0.02710637377858305
% es.tEX (V/m) @ t=0.8
-0.12378533793308222
% es.tEY (V/m) @ t=0.8
0
% es.tEZ (V/m) @ t=0.8
0.027106373778590154
% es.Ex (V/m) @ t=0.8
-0.12378533793309998
% es.Ey (V/m) @ t=0.8
-0.0251833843621192
% es.Ez (V/m) @ t=0.8
0.02710637377858305
% es.tEx (V/m) @ t=0.8
-0.12378533793308222
% es.tEy (V/m) @ t=0.8
0
% es.tEz (V/m) @ t=0.8
0.027106373778590154
% V (V) @ t=0.8
0.02913460178826422
% es.normE (V/m) @ t=0.82
0.13039550727842275
% es.EX (V/m) @ t=0.82
-0.12493400487177553
% es.EY (V/m) @ t=0.82
-0.02541707375963398
% es.EZ (V/m) @ t=0.82
0.027357907569726336
% es.tEX (V/m) @ t=0.82
-0.12493400487177553
% es.tEY (V/m) @ t=0.82
0
% es.tEZ (V/m) @ t=0.82
0.02735790756973344
% es.Ex (V/m) @ t=0.82
-0.12493400487177553
% es.Ey (V/m) @ t=0.82
-0.02541707375963398
% es.Ez (V/m) @ t=0.82
0.027357907569726336
% es.tEx (V/m) @ t=0.82
-0.12493400487177553
% es.tEy (V/m) @ t=0.82
0
% es.tEz (V/m) @ t=0.82
0.02735790756973344
% V (V) @ t=0.82
0.029404956535206365
% es.normE (V/m) @ t=0.84
0.1315943883061175
% es.EX (V/m) @ t=0.84
-0.12608267181044752
% es.EY (V/m) @ t=0.84
-0.0256507631570706
% es.EZ (V/m) @ t=0.84
0.027609441360883835
% es.tEX (V/m) @ t=0.84
-0.12608267181045107
% es.tEY (V/m) @ t=0.84
0
% es.tEZ (V/m) @ t=0.84
0.027609441360889164
% es.Ex (V/m) @ t=0.84
-0.12608267181044752
% es.Ey (V/m) @ t=0.84
-0.0256507631570706
% es.Ez (V/m) @ t=0.84
0.027609441360883835
% es.tEx (V/m) @ t=0.84
-0.12608267181045107
% es.tEy (V/m) @ t=0.84
0
% es.tEz (V/m) @ t=0.84
0.027609441360889164
% V (V) @ t=0.84
0.02967531128214852
% es.normE (V/m) @ t=0.86
0.13279326933385618
% es.EX (V/m) @ t=0.86
-0.12723133874916215
% es.EY (V/m) @ t=0.86
-0.025884452554549853
% es.EZ (V/m) @ t=0.86
0.027860975152016465
% es.tEX (V/m) @ t=0.86
-0.1272313387491586
% es.tEY (V/m) @ t=0.86
0
% es.tEZ (V/m) @ t=0.86
0.027860975152025347
% es.Ex (V/m) @ t=0.86
-0.12723133874916215
% es.Ey (V/m) @ t=0.86
-0.025884452554549853
% es.Ez (V/m) @ t=0.86
0.027860975152016465
% es.tEx (V/m) @ t=0.86
-0.1272313387491586
% es.tEy (V/m) @ t=0.86
0
% es.tEz (V/m) @ t=0.86
0.027860975152025347
% V (V) @ t=0.86
0.029945666029090667
% es.normE (V/m) @ t=0.88
0.13399215036155948
% es.EX (V/m) @ t=0.88
-0.12838000568783947
% es.EY (V/m) @ t=0.88
-0.02611814195200779
% es.EZ (V/m) @ t=0.88
0.02811250894317041
% es.tEX (V/m) @ t=0.88
-0.1283800056878377
% es.tEY (V/m) @ t=0.88
0
% es.tEZ (V/m) @ t=0.88
0.02811250894317574
% es.Ex (V/m) @ t=0.88
-0.12838000568783947
% es.Ey (V/m) @ t=0.88
-0.02611814195200779
% es.Ez (V/m) @ t=0.88
0.02811250894317041
% es.tEx (V/m) @ t=0.88
-0.1283800056878377
% es.tEy (V/m) @ t=0.88
0
% es.tEz (V/m) @ t=0.88
0.02811250894317574
% V (V) @ t=0.88
0.03021602077603281
% es.normE (V/m) @ t=0.9
0.13519103138927696
% es.EX (V/m) @ t=0.9
-0.12952867262653278
% es.EY (V/m) @ t=0.9
-0.026351831349490595
% es.EZ (V/m) @ t=0.9
0.028364042734295936
% es.tEX (V/m) @ t=0.9
-0.12952867262651324
% es.tEY (V/m) @ t=0.9
0
% es.tEZ (V/m) @ t=0.9
0.028364042734306594
% es.Ex (V/m) @ t=0.9
-0.12952867262653278
% es.Ey (V/m) @ t=0.9
-0.026351831349490595
% es.Ez (V/m) @ t=0.9
0.028364042734295936
% es.tEx (V/m) @ t=0.9
-0.12952867262651324
% es.tEy (V/m) @ t=0.9
0
% es.tEz (V/m) @ t=0.9
0.028364042734306594
% V (V) @ t=0.9
0.030486375522974958
% es.normE (V/m) @ t=0.92
0.13638991241700982
% es.EX (V/m) @ t=0.92
-0.13067733956523142
% es.EY (V/m) @ t=0.92
-0.02658552074698406
% es.EZ (V/m) @ t=0.92
0.02861557652546054
% es.tEX (V/m) @ t=0.92
-0.1306773395652172
% es.tEY (V/m) @ t=0.92
0
% es.tEZ (V/m) @ t=0.92
0.02861557652546942
% es.Ex (V/m) @ t=0.92
-0.13067733956523142
% es.Ey (V/m) @ t=0.92
-0.02658552074698406
% es.Ez (V/m) @ t=0.92
0.02861557652546054
% es.tEx (V/m) @ t=0.92
-0.1306773395652172
% es.tEy (V/m) @ t=0.92
0
% es.tEz (V/m) @ t=0.92
0.02861557652546942
% V (V) @ t=0.92
0.03075673026991711
% es.normE (V/m) @ t=0.94
0.13758879344472
% es.EX (V/m) @ t=0.94
-0.13182600650391763
% es.EY (V/m) @ t=0.94
-0.0268192101444491
% es.EZ (V/m) @ t=0.94
0.028867110316600275
% es.tEX (V/m) @ t=0.94
-0.13182600650389986
% es.tEY (V/m) @ t=0.94
0
% es.tEZ (V/m) @ t=0.94
0.028867110316603828
% es.Ex (V/m) @ t=0.94
-0.13182600650391763
% es.Ey (V/m) @ t=0.94
-0.0268192101444491
% es.Ez (V/m) @ t=0.94
0.028867110316600275
% es.tEx (V/m) @ t=0.94
-0.13182600650389986
% es.tEy (V/m) @ t=0.94
0
% es.tEz (V/m) @ t=0.94
0.028867110316603828
% V (V) @ t=0.94
0.031027085016859256
% es.normE (V/m) @ t=0.96
0.13878767447241525
% es.EX (V/m) @ t=0.96
-0.13297467344258607
% es.EY (V/m) @ t=0.96
-0.027052899541924802
% es.EZ (V/m) @ t=0.96
0.02911864410774001
% es.tEX (V/m) @ t=0.96
-0.13297467344257186
% es.tEY (V/m) @ t=0.96
0
% es.tEZ (V/m) @ t=0.96
0.02911864410775067
% es.Ex (V/m) @ t=0.96
-0.13297467344258607
% es.Ey (V/m) @ t=0.96
-0.027052899541924802
% es.Ez (V/m) @ t=0.96
0.02911864410774001
% es.tEx (V/m) @ t=0.96
-0.13297467344257186
% es.tEy (V/m) @ t=0.96
0
% es.tEz (V/m) @ t=0.96
0.02911864410775067
% V (V) @ t=0.96
0.0312974397638014
% es.normE (V/m) @ t=0.98
0.1400429833633457
% es.EX (V/m) @ t=0.98
-0.13417740481251528
% es.EY (V/m) @ t=0.98
-0.02729758802350446
% es.EZ (V/m) @ t=0.98
0.029382016867188554
% es.tEX (V/m) @ t=0.98
-0.1341774048124975
% es.tEY (V/m) @ t=0.98
0
% es.tEZ (V/m) @ t=0.98
0.029382016867199212
% es.Ex (V/m) @ t=0.98
-0.13417740481251528
% es.Ey (V/m) @ t=0.98
-0.02729758802350446
% es.Ez (V/m) @ t=0.98
0.029382016867188554
% es.tEx (V/m) @ t=0.98
-0.1341774048124975
% es.tEy (V/m) @ t=0.98
0
% es.tEz (V/m) @ t=0.98
0.029382016867199212
% V (V) @ t=0.98
0.03158051932717263
% es.normE (V/m) @ t=1
0.14137767286604425
% es.EX (V/m) @ t=1
-0.13545619200629488
% es.EY (V/m) @ t=1
-0.027557749606213378
% es.EZ (V/m) @ t=1
0.029662044245352348
% es.tEX (V/m) @ t=1
-0.13545619200628067
% es.tEY (V/m) @ t=1
0
% es.tEZ (V/m) @ t=1
0.02966204424536123
% es.Ex (V/m) @ t=1
-0.13545619200629488
% es.Ey (V/m) @ t=1
-0.027557749606213378
% es.Ez (V/m) @ t=1
0.029662044245352348
% es.tEx (V/m) @ t=1
-0.13545619200628067
% es.tEy (V/m) @ t=1
0
% es.tEz (V/m) @ t=1
0.02966204424536123