% Model:              1 neuron.mph
% Version:            COMSOL 6.1.0.252
% Date:               Mar 26 2023, 15:01
% Dimension:          0
% Nodes:              14017
% Expressions:        14017
% Description:        Electric field norm, Electric field, X component, Electric field, Y component, Electric field, Z component, Tangential electric field, X component, Tangential electric field, Y component, Tangential electric field, Z component, Electric field, x component, Electric field, y component, Electric field, z component, Tangential electric field, x component, Tangential electric field, y component, Tangential electric field, z component, Electric potential
% Length unit:        mm
% x
2
% y
14.200000000000001
% z
1
% es.normE (V/m) @ t=0
0.12615850296061923
% es.EX (V/m) @ t=0
-0.09345839278493528
% es.EY (V/m) @ t=0
-0.030347073245270195
% es.EZ (V/m) @ t=0
0.07912364901069424
% es.tEX (V/m) @ t=0
-0.09345839278494328
% es.tEY (V/m) @ t=0
0
% es.tEZ (V/m) @ t=0
0.07912364901069902
% es.Ex (V/m) @ t=0
-0.09345839278493528
% es.Ey (V/m) @ t=0
-0.030347073245270195
% es.Ez (V/m) @ t=0
0.07912364901069424
% es.tEx (V/m) @ t=0
-0.09345839278494328
% es.tEy (V/m) @ t=0
0
% es.tEz (V/m) @ t=0
0.07912364901069902
% V (V) @ t=0
0.02220738011941096
% es.normE (V/m) @ t=0.02
0.1155348554020891
% es.EX (V/m) @ t=0.02
-0.0855883800299928
% es.EY (V/m) @ t=0.02
-0.02779158469395071
% es.EZ (V/m) @ t=0.02
0.07246074686906098
% es.tEX (V/m) @ t=0.02
-0.08558838002999536
% es.tEY (V/m) @ t=0.02
0
% es.tEZ (V/m) @ t=0.02
0.07246074686906612
% es.Ex (V/m) @ t=0.02
-0.0855883800299928
% es.Ey (V/m) @ t=0.02
-0.02779158469395071
% es.Ez (V/m) @ t=0.02
0.07246074686906098
% es.tEx (V/m) @ t=0.02
-0.08558838002999536
% es.tEy (V/m) @ t=0.02
0
% es.tEz (V/m) @ t=0.02
0.07246074686906612
% V (V) @ t=0.02
0.020337324806626516
% es.normE (V/m) @ t=0.04
0.11659535197320506
% es.EX (V/m) @ t=0.04
-0.08637399734564255
% es.EY (V/m) @ t=0.04
-0.02804668418045253
% es.EZ (V/m) @ t=0.04
0.07312586540187035
% es.tEX (V/m) @ t=0.04
-0.086373997345642
% es.tEY (V/m) @ t=0.04
0
% es.tEZ (V/m) @ t=0.04
0.07312586540187915
% es.Ex (V/m) @ t=0.04
-0.08637399734564255
% es.Ey (V/m) @ t=0.04
-0.02804668418045253
% es.Ez (V/m) @ t=0.04
0.07312586540187035
% es.tEx (V/m) @ t=0.04
-0.086373997345642
% es.tEy (V/m) @ t=0.04
0
% es.tEz (V/m) @ t=0.04
0.07312586540187915
% V (V) @ t=0.04
0.02052400151194331
% es.normE (V/m) @ t=0.06
0.11766724109280419
% es.EX (V/m) @ t=0.06
-0.08716805428000285
% es.EY (V/m) @ t=0.06
-0.028304524100882134
% es.EZ (V/m) @ t=0.06
0.07379812907420596
% es.tEX (V/m) @ t=0.06
-0.08716805428001873
% es.tEY (V/m) @ t=0.06
0
% es.tEZ (V/m) @ t=0.06
0.07379812907421535
% es.Ex (V/m) @ t=0.06
-0.08716805428000285
% es.Ey (V/m) @ t=0.06
-0.028304524100882134
% es.Ez (V/m) @ t=0.06
0.07379812907420596
% es.tEx (V/m) @ t=0.06
-0.08716805428001873
% es.tEy (V/m) @ t=0.06
0
% es.tEz (V/m) @ t=0.06
0.07379812907421535
% V (V) @ t=0.06
0.020712683603568875
% es.normE (V/m) @ t=0.08
0.11875148417145062
% es.EX (V/m) @ t=0.08
-0.0879712630507008
% es.EY (V/m) @ t=0.08
-0.028565335710172945
% es.EZ (V/m) @ t=0.08
0.07447814085993157
% es.tEX (V/m) @ t=0.08
-0.08797126305072078
% es.tEY (V/m) @ t=0.08
0
% es.tEZ (V/m) @ t=0.08
0.0744781408599382
% es.Ex (V/m) @ t=0.08
-0.0879712630507008
% es.Ey (V/m) @ t=0.08
-0.028565335710172945
% es.Ez (V/m) @ t=0.08
0.07447814085993157
% es.tEx (V/m) @ t=0.08
-0.08797126305072078
% es.tEy (V/m) @ t=0.08
0
% es.tEz (V/m) @ t=0.08
0.0744781408599382
% V (V) @ t=0.08
0.02090354030213855
% es.normE (V/m) @ t=0.1
0.1198529406081094
% es.EX (V/m) @ t=0.1
-0.08878722350972268
% es.EY (V/m) @ t=0.1
-0.028830287914747288
% es.EZ (V/m) @ t=0.1
0.07516894846010766
% es.tEX (V/m) @ t=0.1
-0.08878722350972901
% es.tEY (V/m) @ t=0.1
0
% es.tEZ (V/m) @ t=0.1
0.07516894846012034
% es.Ex (V/m) @ t=0.1
-0.08878722350972268
% es.Ey (V/m) @ t=0.1
-0.028830287914747288
% es.Ez (V/m) @ t=0.1
0.07516894846010766
% es.tEx (V/m) @ t=0.1
-0.08878722350972901
% es.tEy (V/m) @ t=0.1
0
% es.tEz (V/m) @ t=0.1
0.07516894846012034
% V (V) @ t=0.1
0.02109742698386359
% es.normE (V/m) @ t=0.12
0.12095439704479419
% es.EX (V/m) @ t=0.12
-0.08960318396876588
% es.EY (V/m) @ t=0.12
-0.0290952401193465
% es.EZ (V/m) @ t=0.12
0.07585975606029052
% es.tEX (V/m) @ t=0.12
-0.08960318396875522
% es.tEY (V/m) @ t=0.12
0
% es.tEZ (V/m) @ t=0.12
0.07585975606029471
% es.Ex (V/m) @ t=0.12
-0.08960318396876588
% es.Ey (V/m) @ t=0.12
-0.0290952401193465
% es.Ez (V/m) @ t=0.12
0.07585975606029052
% es.tEx (V/m) @ t=0.12
-0.08960318396875522
% es.tEy (V/m) @ t=0.12
0
% es.tEz (V/m) @ t=0.12
0.07585975606029471
% V (V) @ t=0.12
0.021291313665588632
% es.normE (V/m) @ t=0.14
0.12205585348144478
% es.EX (V/m) @ t=0.14
-0.09041914442778776
% es.EY (V/m) @ t=0.14
-0.02936019232390663
% es.EZ (V/m) @ t=0.14
0.07655056366045901
% es.tEX (V/m) @ t=0.14
-0.09041914442779209
% es.tEY (V/m) @ t=0.14
0
% es.tEZ (V/m) @ t=0.14
0.07655056366046153
% es.Ex (V/m) @ t=0.14
-0.09041914442778776
% es.Ey (V/m) @ t=0.14
-0.02936019232390663
% es.Ez (V/m) @ t=0.14
0.07655056366045901
% es.tEx (V/m) @ t=0.14
-0.09041914442779209
% es.tEy (V/m) @ t=0.14
0
% es.tEz (V/m) @ t=0.14
0.07655056366046153
% V (V) @ t=0.14
0.021485200347313674
% es.normE (V/m) @ t=0.16
0.12321012750707742
% es.EX (V/m) @ t=0.16
-0.0912742322091269
% es.EY (V/m) @ t=0.16
-0.029637849719019727
% es.EZ (V/m) @ t=0.16
0.07727449720947696
% es.tEX (V/m) @ t=0.16
-0.09127423220911668
% es.tEY (V/m) @ t=0.16
0
% es.tEZ (V/m) @ t=0.16
0.07727449720947721
% es.Ex (V/m) @ t=0.16
-0.0912742322091269
% es.Ey (V/m) @ t=0.16
-0.029637849719019727
% es.Ez (V/m) @ t=0.16
0.07727449720947696
% es.tEx (V/m) @ t=0.16
-0.09127423220911668
% es.tEy (V/m) @ t=0.16
0
% es.tEz (V/m) @ t=0.16
0.07727449720947721
% V (V) @ t=0.16
0.021688384482717066
% es.normE (V/m) @ t=0.18
0.12437439552779155
% es.EX (V/m) @ t=0.18
-0.0921367235519277
% es.EY (V/m) @ t=0.18
-0.029917911154448973
% es.EZ (V/m) @ t=0.18
0.07800469875702157
% es.tEX (V/m) @ t=0.18
-0.0921367235519136
% es.tEY (V/m) @ t=0.18
0
% es.tEZ (V/m) @ t=0.18
0.07800469875702598
% es.Ex (V/m) @ t=0.18
-0.0921367235519277
% es.Ey (V/m) @ t=0.18
-0.029917911154448973
% es.Ez (V/m) @ t=0.18
0.07800469875702157
% es.tEx (V/m) @ t=0.18
-0.0921367235519136
% es.tEy (V/m) @ t=0.18
0
% es.tEz (V/m) @ t=0.18
0.07800469875702598
% V (V) @ t=0.18
0.02189332785605966
% es.normE (V/m) @ t=0.2
0.1255386635485016
% es.EX (V/m) @ t=0.2
-0.0929992148947214
% es.EY (V/m) @ t=0.2
-0.03019797258986756
% es.EZ (V/m) @ t=0.2
0.0787349003045722
% es.tEX (V/m) @ t=0.2
-0.09299921489472485
% es.tEY (V/m) @ t=0.2
0
% es.tEZ (V/m) @ t=0.2
0.07873490030456765
% es.Ex (V/m) @ t=0.2
-0.0929992148947214
% es.Ey (V/m) @ t=0.2
-0.03019797258986756
% es.Ez (V/m) @ t=0.2
0.0787349003045722
% es.tEx (V/m) @ t=0.2
-0.09299921489472485
% es.tEy (V/m) @ t=0.2
0
% es.tEz (V/m) @ t=0.2
0.07873490030456765
% V (V) @ t=0.2
0.02209827122940226
% es.normE (V/m) @ t=0.22
0.12670293156921925
% es.EX (V/m) @ t=0.22
-0.09386170623754353
% es.EY (V/m) @ t=0.22
-0.030478034025282597
% es.EZ (V/m) @ t=0.22
0.07946510185210268
% es.tEX (V/m) @ t=0.22
-0.09386170623755719
% es.tEY (V/m) @ t=0.22
0
% es.tEZ (V/m) @ t=0.22
0.07946510185210975
% es.Ex (V/m) @ t=0.22
-0.09386170623754353
% es.Ey (V/m) @ t=0.22
-0.030478034025282597
% es.Ez (V/m) @ t=0.22
0.07946510185210268
% es.tEx (V/m) @ t=0.22
-0.09386170623755719
% es.tEy (V/m) @ t=0.22
0
% es.tEz (V/m) @ t=0.22
0.07946510185210975
% V (V) @ t=0.22
0.02230321460274485
% es.normE (V/m) @ t=0.24
0.12786719958993048
% es.EX (V/m) @ t=0.24
-0.09472419758034434
% es.EY (V/m) @ t=0.24
-0.03075809546068342
% es.EZ (V/m) @ t=0.24
0.08019530339965361
% es.tEX (V/m) @ t=0.24
-0.094724197580347
% es.tEY (V/m) @ t=0.24
0
% es.tEZ (V/m) @ t=0.24
0.08019530339965808
% es.Ex (V/m) @ t=0.24
-0.09472419758034434
% es.Ey (V/m) @ t=0.24
-0.03075809546068342
% es.Ez (V/m) @ t=0.24
0.08019530339965361
% es.tEx (V/m) @ t=0.24
-0.094724197580347
% es.tEy (V/m) @ t=0.24
0
% es.tEz (V/m) @ t=0.24
0.08019530339965808
% V (V) @ t=0.24
0.022508157976087444
% es.normE (V/m) @ t=0.26
0.12903146761063644
% es.EX (V/m) @ t=0.26
-0.0955866889231416
% es.EY (V/m) @ t=0.26
-0.031038156896109115
% es.EZ (V/m) @ t=0.26
0.08092550494719075
% es.tEX (V/m) @ t=0.26
-0.09558668892315825
% es.tEY (V/m) @ t=0.26
0
% es.tEZ (V/m) @ t=0.26
0.0809255049471922
% es.Ex (V/m) @ t=0.26
-0.0955866889231416
% es.Ey (V/m) @ t=0.26
-0.031038156896109115
% es.Ez (V/m) @ t=0.26
0.08092550494719075
% es.tEx (V/m) @ t=0.26
-0.09558668892315825
% es.tEy (V/m) @ t=0.26
0
% es.tEz (V/m) @ t=0.26
0.0809255049471922
% V (V) @ t=0.26
0.022713101349430043
% es.normE (V/m) @ t=0.28
0.13019573563136977
% es.EX (V/m) @ t=0.28
-0.09644918026596727
% es.EY (V/m) @ t=0.28
-0.031318218331541914
% es.EZ (V/m) @ t=0.28
0.08165570649473525
% es.tEX (V/m) @ t=0.28
-0.09644918026596572
% es.tEY (V/m) @ t=0.28
0
% es.tEZ (V/m) @ t=0.28
0.08165570649474141
% es.Ex (V/m) @ t=0.28
-0.09644918026596727
% es.Ey (V/m) @ t=0.28
-0.031318218331541914
% es.Ez (V/m) @ t=0.28
0.08165570649473525
% es.tEx (V/m) @ t=0.28
-0.09644918026596572
% es.tEy (V/m) @ t=0.28
0
% es.tEz (V/m) @ t=0.28
0.08165570649474141
% V (V) @ t=0.28
0.022918044722772635
% es.normE (V/m) @ t=0.3
0.13140599166594763
% es.EX (V/m) @ t=0.3
-0.09734573959962489
% es.EY (V/m) @ t=0.3
-0.03160934203154042
% es.EZ (V/m) @ t=0.3
0.08241475064480999
% es.tEX (V/m) @ t=0.3
-0.09734573959963988
% es.tEY (V/m) @ t=0.3
0
% es.tEZ (V/m) @ t=0.3
0.08241475064482673
% es.Ex (V/m) @ t=0.3
-0.09734573959962489
% es.Ey (V/m) @ t=0.3
-0.03160934203154042
% es.Ez (V/m) @ t=0.3
0.08241475064480999
% es.tEx (V/m) @ t=0.3
-0.09734573959963988
% es.tEy (V/m) @ t=0.3
0
% es.tEz (V/m) @ t=0.3
0.08241475064482673
% V (V) @ t=0.3
0.023131083222719385
% es.normE (V/m) @ t=0.32
0.13263719824864817
% es.EX (V/m) @ t=0.32
-0.09825781913129816
% es.EY (V/m) @ t=0.32
-0.03190550531661174
% es.EZ (V/m) @ t=0.32
0.08318693448675671
% es.tEX (V/m) @ t=0.32
-0.0982578191313187
% es.tEY (V/m) @ t=0.32
0
% es.tEZ (V/m) @ t=0.32
0.08318693448677372
% es.Ex (V/m) @ t=0.32
-0.09825781913129816
% es.Ey (V/m) @ t=0.32
-0.03190550531661174
% es.Ez (V/m) @ t=0.32
0.08318693448675671
% es.tEx (V/m) @ t=0.32
-0.0982578191313187
% es.tEy (V/m) @ t=0.32
0
% es.tEz (V/m) @ t=0.32
0.08318693448677372
% V (V) @ t=0.32
0.023347809582287986
% es.normE (V/m) @ t=0.34
0.13386840483134954
% es.EX (V/m) @ t=0.34
-0.09916989866298564
% es.EY (V/m) @ t=0.34
-0.032201668601643973
% es.EZ (V/m) @ t=0.34
0.08395911832870298
% es.tEX (V/m) @ t=0.34
-0.09916989866299053
% es.tEY (V/m) @ t=0.34
0
% es.tEZ (V/m) @ t=0.34
0.08395911832870606
% es.Ex (V/m) @ t=0.34
-0.09916989866298564
% es.Ey (V/m) @ t=0.34
-0.032201668601643973
% es.Ez (V/m) @ t=0.34
0.08395911832870298
% es.tEx (V/m) @ t=0.34
-0.09916989866299053
% es.tEy (V/m) @ t=0.34
0
% es.tEz (V/m) @ t=0.34
0.08395911832870606
% V (V) @ t=0.34
0.02356453594185659
% es.normE (V/m) @ t=0.36
0.13509961141405458
% es.EX (V/m) @ t=0.36
-0.10008197819466957
% es.EY (V/m) @ t=0.36
-0.03249783188670108
% es.EZ (V/m) @ t=0.36
0.0847313021706497
% es.tEX (V/m) @ t=0.36
-0.1000819781946658
% es.tEY (V/m) @ t=0.36
0
% es.tEZ (V/m) @ t=0.36
0.08473130217065972
% es.Ex (V/m) @ t=0.36
-0.10008197819466957
% es.Ey (V/m) @ t=0.36
-0.03249783188670108
% es.Ez (V/m) @ t=0.36
0.0847313021706497
% es.tEx (V/m) @ t=0.36
-0.1000819781946658
% es.tEy (V/m) @ t=0.36
0
% es.tEz (V/m) @ t=0.36
0.08473130217065972
% V (V) @ t=0.36
0.023781262301425195
% es.normE (V/m) @ t=0.38
0.1363308179967602
% es.EX (V/m) @ t=0.38
-0.10099405772633929
% es.EY (V/m) @ t=0.38
-0.032793995171786605
% es.EZ (V/m) @ t=0.38
0.08550348601260321
% es.tEX (V/m) @ t=0.38
-0.1009940577263484
% es.tEY (V/m) @ t=0.38
0
% es.tEZ (V/m) @ t=0.38
0.08550348601261337
% es.Ex (V/m) @ t=0.38
-0.10099405772633929
% es.Ey (V/m) @ t=0.38
-0.032793995171786605
% es.Ez (V/m) @ t=0.38
0.08550348601260321
% es.tEx (V/m) @ t=0.38
-0.1009940577263484
% es.tEy (V/m) @ t=0.38
0
% es.tEz (V/m) @ t=0.38
0.08550348601261337
% V (V) @ t=0.38
0.0239979886609938
% es.normE (V/m) @ t=0.4
0.13756202457947317
% es.EX (V/m) @ t=0.4
-0.10190613725803743
% es.EY (V/m) @ t=0.4
-0.03309015845683305
% es.EZ (V/m) @ t=0.4
0.08627566985454993
% es.tEX (V/m) @ t=0.4
-0.10190613725804498
% es.tEY (V/m) @ t=0.4
0
% es.tEZ (V/m) @ t=0.4
0.08627566985455326
% es.Ex (V/m) @ t=0.4
-0.10190613725803743
% es.Ey (V/m) @ t=0.4
-0.03309015845683305
% es.Ez (V/m) @ t=0.4
0.08627566985454993
% es.tEx (V/m) @ t=0.4
-0.10190613725804498
% es.tEy (V/m) @ t=0.4
0
% es.tEz (V/m) @ t=0.4
0.08627566985455326
% V (V) @ t=0.4
0.024214715020562407
% es.normE (V/m) @ t=0.42
0.13879323116218212
% es.EX (V/m) @ t=0.42
-0.10281821678972136
% es.EY (V/m) @ t=0.42
-0.03338632174190792
% es.EZ (V/m) @ t=0.42
0.08704785369649609
% es.tEX (V/m) @ t=0.42
-0.10281821678973457
% es.tEY (V/m) @ t=0.42
0
% es.tEZ (V/m) @ t=0.42
0.08704785369650647
% es.Ex (V/m) @ t=0.42
-0.10281821678972136
% es.Ey (V/m) @ t=0.42
-0.03338632174190792
% es.Ez (V/m) @ t=0.42
0.08704785369649609
% es.tEx (V/m) @ t=0.42
-0.10281821678973457
% es.tEy (V/m) @ t=0.42
0
% es.tEz (V/m) @ t=0.42
0.08704785369650647
% V (V) @ t=0.42
0.024431441380131005
% es.normE (V/m) @ t=0.44
0.1401055122420437
% es.EX (V/m) @ t=0.44
-0.10379035645760482
% es.EY (V/m) @ t=0.44
-0.033701987141569134
% es.EZ (V/m) @ t=0.44
0.0878708855635261
% es.tEX (V/m) @ t=0.44
-0.10379035645762602
% es.tEY (V/m) @ t=0.44
0
% es.tEZ (V/m) @ t=0.44
0.08787088556353684
% es.Ex (V/m) @ t=0.44
-0.10379035645760482
% es.Ey (V/m) @ t=0.44
-0.033701987141569134
% es.Ez (V/m) @ t=0.44
0.0878708855635261
% es.tEx (V/m) @ t=0.44
-0.10379035645762602
% es.tEy (V/m) @ t=0.44
0
% es.tEz (V/m) @ t=0.44
0.08787088556353684
% V (V) @ t=0.44
0.024662438902628515
% es.normE (V/m) @ t=0.46
0.1414887865773787
% es.EX (V/m) @ t=0.46
-0.10481508805937878
% es.EY (V/m) @ t=0.46
-0.03403472965739596
% es.EZ (V/m) @ t=0.46
0.08873844273702161
% es.tEX (V/m) @ t=0.46
-0.1048150880593719
% es.tEY (V/m) @ t=0.46
0
% es.tEZ (V/m) @ t=0.46
0.08873844273703524
% es.Ex (V/m) @ t=0.46
-0.10481508805937878
% es.Ey (V/m) @ t=0.46
-0.03403472965739596
% es.Ez (V/m) @ t=0.46
0.08873844273702161
% es.tEx (V/m) @ t=0.46
-0.1048150880593719
% es.tEy (V/m) @ t=0.46
0
% es.tEz (V/m) @ t=0.46
0.08873844273703524
% V (V) @ t=0.46
0.024905933034425023
% es.normE (V/m) @ t=0.48
0.14287206091269544
% es.EX (V/m) @ t=0.48
-0.10583981966113143
% es.EY (V/m) @ t=0.48
-0.03436747217319436
% es.EZ (V/m) @ t=0.48
0.08960599991052409
% es.tEX (V/m) @ t=0.48
-0.10583981966112477
% es.tEY (V/m) @ t=0.48
0
% es.tEZ (V/m) @ t=0.48
0.08960599991052653
% es.Ex (V/m) @ t=0.48
-0.10583981966113143
% es.Ey (V/m) @ t=0.48
-0.03436747217319436
% es.Ez (V/m) @ t=0.48
0.08960599991052409
% es.tEx (V/m) @ t=0.48
-0.10583981966112477
% es.tEy (V/m) @ t=0.48
0
% es.tEz (V/m) @ t=0.48
0.08960599991052653
% V (V) @ t=0.48
0.025149427166221525
% es.normE (V/m) @ t=0.5
0.1442553352480299
% es.EX (V/m) @ t=0.5
-0.1068645512629054
% es.EY (V/m) @ t=0.5
-0.034700214689038944
% es.EZ (V/m) @ t=0.5
0.09047355708401195
% es.tEX (V/m) @ t=0.5
-0.10686455126288841
% es.tEY (V/m) @ t=0.5
0
% es.tEZ (V/m) @ t=0.5
0.09047355708401739
% es.Ex (V/m) @ t=0.5
-0.1068645512629054
% es.Ey (V/m) @ t=0.5
-0.034700214689038944
% es.Ez (V/m) @ t=0.5
0.09047355708401195
% es.tEx (V/m) @ t=0.5
-0.10686455126288841
% es.tEy (V/m) @ t=0.5
0
% es.tEz (V/m) @ t=0.5
0.09047355708401739
% V (V) @ t=0.5
0.02539292129801803
% es.normE (V/m) @ t=0.52
0.14563860958334776
% es.EX (V/m) @ t=0.52
-0.10788928286465449
% es.EY (V/m) @ t=0.52
-0.035032957204851556
% es.EZ (V/m) @ t=0.52
0.09134111425751498
% es.tEX (V/m) @ t=0.52
-0.1078892828646626
% es.tEY (V/m) @ t=0.52
0
% es.tEZ (V/m) @ t=0.52
0.09134111425752334
% es.Ex (V/m) @ t=0.52
-0.10788928286465449
% es.Ey (V/m) @ t=0.52
-0.035032957204851556
% es.Ez (V/m) @ t=0.52
0.09134111425751498
% es.tEx (V/m) @ t=0.52
-0.1078892828646626
% es.tEy (V/m) @ t=0.52
0
% es.tEz (V/m) @ t=0.52
0.09134111425752334
% V (V) @ t=0.52
0.025636415429814534
% es.normE (V/m) @ t=0.54
0.14702188391867022
% es.EX (V/m) @ t=0.54
-0.1089140144664178
% es.EY (V/m) @ t=0.54
-0.03536569972067838
% es.EZ (V/m) @ t=0.54
0.09220867143100306
% es.tEX (V/m) @ t=0.54
-0.10891401446642612
% es.tEY (V/m) @ t=0.54
0
% es.tEZ (V/m) @ t=0.54
0.09220867143102174
% es.Ex (V/m) @ t=0.54
-0.1089140144664178
% es.Ey (V/m) @ t=0.54
-0.03536569972067838
% es.Ez (V/m) @ t=0.54
0.09220867143100306
% es.tEx (V/m) @ t=0.54
-0.10891401446642612
% es.tEy (V/m) @ t=0.54
0
% es.tEz (V/m) @ t=0.54
0.09220867143102174
% V (V) @ t=0.54
0.02587990956161103
% es.normE (V/m) @ t=0.56
0.14840515825400177
% es.EX (V/m) @ t=0.56
-0.10993874606819176
% es.EY (V/m) @ t=0.56
-0.03569844223649099
% es.EZ (V/m) @ t=0.56
0.09307622860449855
% es.tEX (V/m) @ t=0.56
-0.109938746068179
% es.tEY (V/m) @ t=0.56
0
% es.tEZ (V/m) @ t=0.56
0.09307622860450593
% es.Ex (V/m) @ t=0.56
-0.10993874606819176
% es.Ey (V/m) @ t=0.56
-0.03569844223649099
% es.Ez (V/m) @ t=0.56
0.09307622860449855
% es.tEx (V/m) @ t=0.56
-0.109938746068179
% es.tEy (V/m) @ t=0.56
0
% es.tEz (V/m) @ t=0.56
0.09307622860450593
% V (V) @ t=0.56
0.02612340369340754
% es.normE (V/m) @ t=0.58
0.14978843258931354
% es.EX (V/m) @ t=0.58
-0.11096347766994086
% es.EY (V/m) @ t=0.58
-0.03603118475231781
% es.EZ (V/m) @ t=0.58
0.0939437857779864
% es.tEX (V/m) @ t=0.58
-0.11096347766993908
% es.tEY (V/m) @ t=0.58
0
% es.tEZ (V/m) @ t=0.58
0.09394378577800389
% es.Ex (V/m) @ t=0.58
-0.11096347766994086
% es.Ey (V/m) @ t=0.58
-0.03603118475231781
% es.Ez (V/m) @ t=0.58
0.0939437857779864
% es.tEx (V/m) @ t=0.58
-0.11096347766993908
% es.tEy (V/m) @ t=0.58
0
% es.tEz (V/m) @ t=0.58
0.09394378577800389
% V (V) @ t=0.58
0.02636689782520404
% es.normE (V/m) @ t=0.6
0.1511717069246384
% es.EX (V/m) @ t=0.6
-0.1119882092716935
% es.EY (V/m) @ t=0.6
-0.036363927268130425
% es.EZ (V/m) @ t=0.6
0.09481134295149643
% es.tEX (V/m) @ t=0.6
-0.1119882092716955
% es.tEY (V/m) @ t=0.6
0
% es.tEZ (V/m) @ t=0.6
0.09481134295149607
% es.Ex (V/m) @ t=0.6
-0.1119882092716935
% es.Ey (V/m) @ t=0.6
-0.036363927268130425
% es.Ez (V/m) @ t=0.6
0.09481134295149643
% es.tEx (V/m) @ t=0.6
-0.1119882092716955
% es.tEy (V/m) @ t=0.6
0
% es.tEz (V/m) @ t=0.6
0.09481134295149607
% V (V) @ t=0.6
0.026610391957000542
% es.normE (V/m) @ t=0.62
0.1525549812599714
% es.EX (V/m) @ t=0.62
-0.11301294087344971
% es.EY (V/m) @ t=0.62
-0.03669666978398567
% es.EZ (V/m) @ t=0.62
0.09567890012499883
% es.tEX (V/m) @ t=0.62
-0.11301294087345182
% es.tEY (V/m) @ t=0.62
0
% es.tEZ (V/m) @ t=0.62
0.09567890012500158
% es.Ex (V/m) @ t=0.62
-0.11301294087344971
% es.Ey (V/m) @ t=0.62
-0.03669666978398567
% es.Ez (V/m) @ t=0.62
0.09567890012499883
% es.tEx (V/m) @ t=0.62
-0.11301294087345182
% es.tEy (V/m) @ t=0.62
0
% es.tEz (V/m) @ t=0.62
0.09567890012500158
% V (V) @ t=0.62
0.026853886088797053
% es.normE (V/m) @ t=0.64
0.1539382555952812
% es.EX (V/m) @ t=0.64
-0.1140376724751988
% es.EY (V/m) @ t=0.64
-0.03702941229978407
% es.EZ (V/m) @ t=0.64
0.09654645729849443
% es.tEX (V/m) @ t=0.64
-0.11403767247522956
% es.tEY (V/m) @ t=0.64
0
% es.tEZ (V/m) @ t=0.64
0.09654645729850708
% es.Ex (V/m) @ t=0.64
-0.1140376724751988
% es.Ey (V/m) @ t=0.64
-0.03702941229978407
% es.Ez (V/m) @ t=0.64
0.09654645729849443
% es.tEx (V/m) @ t=0.64
-0.11403767247522956
% es.tEy (V/m) @ t=0.64
0
% es.tEz (V/m) @ t=0.64
0.09654645729850708
% V (V) @ t=0.64
0.027097380220593558
% es.normE (V/m) @ t=0.66
0.1553215299306178
% es.EX (V/m) @ t=0.66
-0.11506240407697987
% es.EY (V/m) @ t=0.66
-0.037362154815614446
% es.EZ (V/m) @ t=0.66
0.09741401447198272
% es.tEX (V/m) @ t=0.66
-0.1150624040769791
% es.tEY (V/m) @ t=0.66
0
% es.tEZ (V/m) @ t=0.66
0.09741401447199127
% es.Ex (V/m) @ t=0.66
-0.11506240407697987
% es.Ey (V/m) @ t=0.66
-0.037362154815614446
% es.Ez (V/m) @ t=0.66
0.09741401447198272
% es.tEx (V/m) @ t=0.66
-0.1150624040769791
% es.tEy (V/m) @ t=0.66
0
% es.tEz (V/m) @ t=0.66
0.09741401447199127
% V (V) @ t=0.66
0.027340874352390056
% es.normE (V/m) @ t=0.68
0.15670480426592362
% es.EX (V/m) @ t=0.68
-0.11608713567872542
% es.EY (V/m) @ t=0.68
-0.037694897331409294
% es.EZ (V/m) @ t=0.68
0.09828157164547757
% es.tEX (V/m) @ t=0.68
-0.11608713567873552
% es.tEY (V/m) @ t=0.68
0
% es.tEZ (V/m) @ t=0.68
0.09828157164548212
% es.Ex (V/m) @ t=0.68
-0.11608713567872542
% es.Ey (V/m) @ t=0.68
-0.037694897331409294
% es.Ez (V/m) @ t=0.68
0.09828157164547757
% es.tEx (V/m) @ t=0.68
-0.11608713567873552
% es.tEy (V/m) @ t=0.68
0
% es.tEz (V/m) @ t=0.68
0.09828157164548212
% V (V) @ t=0.68
0.02758436848418656
% es.normE (V/m) @ t=0.7
0.15808807860127
% es.EX (V/m) @ t=0.7
-0.11711186728050293
% es.EY (V/m) @ t=0.7
-0.03802763984725388
% es.EZ (V/m) @ t=0.7
0.09914912881898025
% es.tEX (V/m) @ t=0.7
-0.11711186728050627
% es.tEY (V/m) @ t=0.7
0
% es.tEZ (V/m) @ t=0.7
0.09914912881898097
% es.Ex (V/m) @ t=0.7
-0.11711186728050293
% es.Ey (V/m) @ t=0.7
-0.03802763984725388
% es.Ez (V/m) @ t=0.7
0.09914912881898025
% es.tEx (V/m) @ t=0.7
-0.11711186728050627
% es.tEy (V/m) @ t=0.7
0
% es.tEz (V/m) @ t=0.7
0.09914912881898097
% V (V) @ t=0.7
0.02782786261598307
% es.normE (V/m) @ t=0.72
0.15950619404653346
% es.EX (V/m) @ t=0.72
-0.11816240920241583
% es.EY (V/m) @ t=0.72
-0.03836876337005535
% es.EZ (V/m) @ t=0.72
0.10003853751501929
% es.tEX (V/m) @ t=0.72
-0.11816240920242083
% es.tEY (V/m) @ t=0.72
0
% es.tEZ (V/m) @ t=0.72
0.10003853751502056
% es.Ex (V/m) @ t=0.72
-0.11816240920241583
% es.Ey (V/m) @ t=0.72
-0.03836876337005535
% es.Ez (V/m) @ t=0.72
0.10003853751501929
% es.tEx (V/m) @ t=0.72
-0.11816240920242083
% es.tEy (V/m) @ t=0.72
0
% es.tEz (V/m) @ t=0.72
0.10003853751502056
% V (V) @ t=0.72
0.028077489856449443
% es.normE (V/m) @ t=0.74
0.161044039457104
% es.EX (V/m) @ t=0.74
-0.1193016471717172
% es.EY (V/m) @ t=0.74
-0.03873868786040191
% es.EZ (V/m) @ t=0.74
0.10100303802178784
% es.tEX (V/m) @ t=0.74
-0.11930164717170655
% es.tEY (V/m) @ t=0.74
0
% es.tEZ (V/m) @ t=0.74
0.101003038021803
% es.Ex (V/m) @ t=0.74
-0.1193016471717172
% es.Ey (V/m) @ t=0.74
-0.03873868786040191
% es.Ez (V/m) @ t=0.74
0.10100303802178784
% es.tEx (V/m) @ t=0.74
-0.11930164717170655
% es.tEy (V/m) @ t=0.74
0
% es.tEz (V/m) @ t=0.74
0.101003038021803
% V (V) @ t=0.74
0.028348193259218776
% es.normE (V/m) @ t=0.76
0.16258188486763872
% es.EX (V/m) @ t=0.76
-0.12044088514096885
% es.EY (V/m) @ t=0.76
-0.0391086123507165
% es.EZ (V/m) @ t=0.76
0.10196753852857027
% es.tEX (V/m) @ t=0.76
-0.12044088514096751
% es.tEY (V/m) @ t=0.76
0
% es.tEZ (V/m) @ t=0.76
0.10196753852857077
% es.Ex (V/m) @ t=0.76
-0.12044088514096885
% es.Ey (V/m) @ t=0.76
-0.0391086123507165
% es.Ez (V/m) @ t=0.76
0.10196753852857027
% es.tEx (V/m) @ t=0.76
-0.12044088514096751
% es.tEy (V/m) @ t=0.76
0
% es.tEz (V/m) @ t=0.76
0.10196753852857077
% V (V) @ t=0.76
0.028618896661988098
% es.normE (V/m) @ t=0.78
0.16411973027819005
% es.EX (V/m) @ t=0.78
-0.1215801231102489
% es.EY (V/m) @ t=0.78
-0.03947853684104885
% es.EZ (V/m) @ t=0.78
0.10293203903533882
% es.tEX (V/m) @ t=0.78
-0.1215801231102498
% es.tEY (V/m) @ t=0.78
0
% es.tEZ (V/m) @ t=0.78
0.10293203903534653
% es.Ex (V/m) @ t=0.78
-0.1215801231102489
% es.Ey (V/m) @ t=0.78
-0.03947853684104885
% es.Ez (V/m) @ t=0.78
0.10293203903533882
% es.tEx (V/m) @ t=0.78
-0.1215801231102498
% es.tEy (V/m) @ t=0.78
0
% es.tEz (V/m) @ t=0.78
0.10293203903534653
% V (V) @ t=0.78
0.02888960006475743
% es.normE (V/m) @ t=0.8
0.16565757568873085
% es.EX (V/m) @ t=0.8
-0.1227193610795112
% es.EY (V/m) @ t=0.8
-0.03984846133135633
% es.EZ (V/m) @ t=0.8
0.10389653954212114
% es.tEX (V/m) @ t=0.8
-0.1227193610795072
% es.tEY (V/m) @ t=0.8
0
% es.tEZ (V/m) @ t=0.8
0.10389653954212896
% es.Ex (V/m) @ t=0.8
-0.1227193610795112
% es.Ey (V/m) @ t=0.8
-0.03984846133135633
% es.Ez (V/m) @ t=0.8
0.10389653954212114
% es.tEx (V/m) @ t=0.8
-0.1227193610795072
% es.tEy (V/m) @ t=0.8
0
% es.tEz (V/m) @ t=0.8
0.10389653954212896
% V (V) @ t=0.8
0.02916030346752677
% es.normE (V/m) @ t=0.82
0.16719542109927868
% es.EX (V/m) @ t=0.82
-0.1238585990487735
% es.EY (V/m) @ t=0.82
-0.04021838582171
% es.EZ (V/m) @ t=0.82
0.1048610400488969
% es.tEX (V/m) @ t=0.82
-0.12385859904877172
% es.tEY (V/m) @ t=0.82
0
% es.tEZ (V/m) @ t=0.82
0.10486104004890429
% es.Ex (V/m) @ t=0.82
-0.1238585990487735
% es.Ey (V/m) @ t=0.82
-0.04021838582171
% es.Ez (V/m) @ t=0.82
0.1048610400488969
% es.tEx (V/m) @ t=0.82
-0.12385859904877172
% es.tEy (V/m) @ t=0.82
0
% es.tEz (V/m) @ t=0.82
0.10486104004890429
% V (V) @ t=0.82
0.0294310068702961
% es.normE (V/m) @ t=0.84
0.1687332665098247
% es.EX (V/m) @ t=0.84
-0.1249978370180358
% es.EY (V/m) @ t=0.84
-0.040588310312056564
% es.EZ (V/m) @ t=0.84
0.10582554055567256
% es.tEX (V/m) @ t=0.84
-0.12499783701803602
% es.tEY (V/m) @ t=0.84
0
% es.tEZ (V/m) @ t=0.84
0.10582554055567961
% es.Ex (V/m) @ t=0.84
-0.1249978370180358
% es.Ey (V/m) @ t=0.84
-0.040588310312056564
% es.Ez (V/m) @ t=0.84
0.10582554055567256
% es.tEx (V/m) @ t=0.84
-0.12499783701803602
% es.tEy (V/m) @ t=0.84
0
% es.tEz (V/m) @ t=0.84
0.10582554055567961
% V (V) @ t=0.84
0.02970171027306544
% es.normE (V/m) @ t=0.86
0.170271111920362
% es.EX (V/m) @ t=0.86
-0.126137074987291
% es.EY (V/m) @ t=0.86
-0.04095823480237115
% es.EZ (V/m) @ t=0.86
0.10679004106245493
% es.tEX (V/m) @ t=0.86
-0.12613707498730786
% es.tEY (V/m) @ t=0.86
0
% es.tEZ (V/m) @ t=0.86
0.10679004106246914
% es.Ex (V/m) @ t=0.86
-0.126137074987291
% es.Ey (V/m) @ t=0.86
-0.04095823480237115
% es.Ez (V/m) @ t=0.86
0.10679004106245493
% es.tEx (V/m) @ t=0.86
-0.12613707498730786
% es.tEy (V/m) @ t=0.86
0
% es.tEz (V/m) @ t=0.86
0.10679004106246914
% V (V) @ t=0.86
0.02997241367583477
% es.normE (V/m) @ t=0.88
0.17180895733092139
% es.EX (V/m) @ t=0.88
-0.12727631295657815
% es.EY (V/m) @ t=0.88
-0.0413281592926964
% es.EZ (V/m) @ t=0.88
0.10775454156923064
% es.tEX (V/m) @ t=0.88
-0.1272763129565757
% es.tEY (V/m) @ t=0.88
0
% es.tEZ (V/m) @ t=0.88
0.10775454156924491
% es.Ex (V/m) @ t=0.88
-0.12727631295657815
% es.Ey (V/m) @ t=0.88
-0.0413281592926964
% es.Ez (V/m) @ t=0.88
0.10775454156923064
% es.tEx (V/m) @ t=0.88
-0.1272763129565757
% es.tEy (V/m) @ t=0.88
0
% es.tEz (V/m) @ t=0.88
0.10775454156924491
% V (V) @ t=0.88
0.030243117078604102
% es.normE (V/m) @ t=0.9
0.17334680274147432
% es.EX (V/m) @ t=0.9
-0.1284155509258582
% es.EY (V/m) @ t=0.9
-0.04169808378301809
% es.EZ (V/m) @ t=0.9
0.10871904207600586
% es.tEX (V/m) @ t=0.9
-0.12841555092585089
% es.tEY (V/m) @ t=0.9
0
% es.tEZ (V/m) @ t=0.9
0.10871904207601268
% es.Ex (V/m) @ t=0.9
-0.1284155509258582
% es.Ey (V/m) @ t=0.9
-0.04169808378301809
% es.Ez (V/m) @ t=0.9
0.10871904207600586
% es.tEx (V/m) @ t=0.9
-0.12841555092585089
% es.tEy (V/m) @ t=0.9
0
% es.tEz (V/m) @ t=0.9
0.10871904207601268
% V (V) @ t=0.9
0.030513820481373428
% es.normE (V/m) @ t=0.92
0.17488464815201754
% es.EX (V/m) @ t=0.92
-0.1295547888951205
% es.EY (V/m) @ t=0.92
-0.042068008273353996
% es.EZ (V/m) @ t=0.92
0.10968354258278107
% es.tEX (V/m) @ t=0.92
-0.1295547888951225
% es.tEY (V/m) @ t=0.92
0
% es.tEZ (V/m) @ t=0.92
0.10968354258278756
% es.Ex (V/m) @ t=0.92
-0.1295547888951205
% es.Ey (V/m) @ t=0.92
-0.042068008273353996
% es.Ez (V/m) @ t=0.92
0.10968354258278107
% es.tEx (V/m) @ t=0.92
-0.1295547888951225
% es.tEy (V/m) @ t=0.92
0
% es.tEz (V/m) @ t=0.92
0.10968354258278756
% V (V) @ t=0.92
0.030784523884142767
% es.normE (V/m) @ t=0.94
0.17642249356257528
% es.EX (V/m) @ t=0.94
-0.13069402686440057
% es.EY (V/m) @ t=0.94
-0.04243793276367569
% es.EZ (V/m) @ t=0.94
0.11064804308956394
% es.tEX (V/m) @ t=0.94
-0.13069402686439768
% es.tEY (V/m) @ t=0.94
0
% es.tEZ (V/m) @ t=0.94
0.11064804308957044
% es.Ex (V/m) @ t=0.94
-0.13069402686440057
% es.Ey (V/m) @ t=0.94
-0.04243793276367569
% es.Ez (V/m) @ t=0.94
0.11064804308956394
% es.tEx (V/m) @ t=0.94
-0.13069402686439768
% es.tEy (V/m) @ t=0.94
0
% es.tEz (V/m) @ t=0.94
0.11064804308957044
% V (V) @ t=0.94
0.031055227286912103
% es.normE (V/m) @ t=0.96
0.17796033897310023
% es.EX (V/m) @ t=0.96
-0.1318332648336451
% es.EY (V/m) @ t=0.96
-0.042807857254025805
% es.EZ (V/m) @ t=0.96
0.11161254359632561
% es.tEX (V/m) @ t=0.96
-0.13183326483365132
% es.tEY (V/m) @ t=0.96
0
% es.tEZ (V/m) @ t=0.96
0.11161254359633199
% es.Ex (V/m) @ t=0.96
-0.1318332648336451
% es.Ey (V/m) @ t=0.96
-0.042807857254025805
% es.Ez (V/m) @ t=0.96
0.11161254359632561
% es.tEx (V/m) @ t=0.96
-0.13183326483365132
% es.tEy (V/m) @ t=0.96
0
% es.tEz (V/m) @ t=0.96
0.11161254359633199
% V (V) @ t=0.96
0.03132593068968143
% es.normE (V/m) @ t=0.98
0.1795589795591601
% es.EX (V/m) @ t=0.98
-0.13301753997146193
% es.EY (V/m) @ t=0.98
-0.043192405789206134
% es.EZ (V/m) @ t=0.98
0.11261517341108146
% es.tEX (V/m) @ t=0.98
-0.13301753997146504
% es.tEY (V/m) @ t=0.98
0
% es.tEZ (V/m) @ t=0.98
0.11261517341108718
% es.Ex (V/m) @ t=0.98
-0.13301753997146193
% es.Ey (V/m) @ t=0.98
-0.043192405789206134
% es.Ez (V/m) @ t=0.98
0.11261517341108146
% es.tEx (V/m) @ t=0.98
-0.13301753997146504
% es.tEy (V/m) @ t=0.98
0
% es.tEz (V/m) @ t=0.98
0.11261517341108718
% V (V) @ t=0.98
0.031607335628719896
% es.normE (V/m) @ t=1
0.18127130453644566
% es.EX (V/m) @ t=1
-0.13428603269802153
% es.EY (V/m) @ t=1
-0.04360430066605758
% es.EZ (V/m) @ t=1
0.11368910340923077
% es.tEX (V/m) @ t=1
-0.13428603269801864
% es.tEY (V/m) @ t=1
0
% es.tEZ (V/m) @ t=1
0.11368910340923621
% es.Ex (V/m) @ t=1
-0.13428603269802153
% es.Ey (V/m) @ t=1
-0.04360430066605758
% es.Ez (V/m) @ t=1
0.11368910340923077
% es.tEx (V/m) @ t=1
-0.13428603269801864
% es.tEy (V/m) @ t=1
0
% es.tEz (V/m) @ t=1
0.11368910340923621
% V (V) @ t=1
0.031908751985209205
% es.normE (V/m) @ t=1.02
0.18298362951370592
% es.EX (V/m) @ t=1.02
-0.13555452542457047
% es.EY (V/m) @ t=1.02
-0.04401619554285574
% es.EZ (V/m) @ t=1.02
0.11476303340737276
% es.tEX (V/m) @ t=1.02