% Model:              1 neuron.mph
% Version:            COMSOL 6.1.0.252
% Date:               Mar 26 2023, 15:01
% Dimension:          0
% Nodes:              14017
% Expressions:        14017
% Description:        Electric field norm, Electric field, X component, Electric field, Y component, Electric field, Z component, Tangential electric field, X component, Tangential electric field, Y component, Tangential electric field, Z component, Electric field, x component, Electric field, y component, Electric field, z component, Tangential electric field, x component, Tangential electric field, y component, Tangential electric field, z component, Electric potential
% Length unit:        mm
% x
1.6600000000000001
% y
14.200000000000001
% z
1
% es.normE (V/m) @ t=0
0.10453245472950012
% es.EX (V/m) @ t=0
-0.038339920774790315
% es.EY (V/m) @ t=0
0.011677779964176294
% es.EZ (V/m) @ t=0
0.09654384507500247
% es.tEX (V/m) @ t=0
-0.03833992077479209
% es.tEY (V/m) @ t=0
0
% es.tEZ (V/m) @ t=0
0.09654384507499891
% es.Ex (V/m) @ t=0
-0.038339920774790315
% es.Ey (V/m) @ t=0
0.011677779964176294
% es.Ez (V/m) @ t=0
0.09654384507500247
% es.tEx (V/m) @ t=0
-0.03833992077479209
% es.tEy (V/m) @ t=0
0
% es.tEz (V/m) @ t=0
0.09654384507499891
% V (V) @ t=0
0.022184942211339164
% es.normE (V/m) @ t=0.02
0.09572990927386674
% es.EX (V/m) @ t=0.02
-0.03511136465029807
% es.EY (V/m) @ t=0.02
0.010694408922158782
% es.EZ (V/m) @ t=0.02
0.08841401031387619
% es.tEX (V/m) @ t=0.02
-0.03511136465029274
% es.tEY (V/m) @ t=0.02
0
% es.tEZ (V/m) @ t=0.02
0.08841401031387086
% es.Ex (V/m) @ t=0.02
-0.03511136465029807
% es.Ey (V/m) @ t=0.02
0.010694408922158782
% es.Ez (V/m) @ t=0.02
0.08841401031387619
% es.tEx (V/m) @ t=0.02
-0.03511136465029274
% es.tEy (V/m) @ t=0.02
0
% es.tEz (V/m) @ t=0.02
0.08841401031387086
% V (V) @ t=0.02
0.020316776366343738
% es.normE (V/m) @ t=0.04
0.09660861587531148
% es.EX (V/m) @ t=0.04
-0.03543365249565511
% es.EY (V/m) @ t=0.04
0.010792573101733094
% es.EZ (V/m) @ t=0.04
0.08922556415066474
% es.tEX (V/m) @ t=0.04
-0.035433652495653334
% es.tEY (V/m) @ t=0.04
0
% es.tEZ (V/m) @ t=0.04
0.0892255641506754
% es.Ex (V/m) @ t=0.04
-0.03543365249565511
% es.Ey (V/m) @ t=0.04
0.010792573101733094
% es.Ez (V/m) @ t=0.04
0.08922556415066474
% es.tEx (V/m) @ t=0.04
-0.035433652495653334
% es.tEy (V/m) @ t=0.04
0
% es.tEz (V/m) @ t=0.04
0.0892255641506754
% V (V) @ t=0.04
0.02050326445714821
% es.normE (V/m) @ t=0.06
0.09749676212081569
% es.EX (V/m) @ t=0.06
-0.035759402580660904
% es.EY (V/m) @ t=0.06
0.01089179182341482
% es.EZ (V/m) @ t=0.06
0.0900458362279597
% es.tEX (V/m) @ t=0.06
-0.035759402580660904
% es.tEY (V/m) @ t=0.06
0
% es.tEZ (V/m) @ t=0.06
0.09004583622796325
% es.Ex (V/m) @ t=0.06
-0.035759402580660904
% es.Ey (V/m) @ t=0.06
0.01089179182341482
% es.Ez (V/m) @ t=0.06
0.0900458362279597
% es.tEx (V/m) @ t=0.06
-0.035759402580660904
% es.tEy (V/m) @ t=0.06
0
% es.tEz (V/m) @ t=0.06
0.09004583622796325
% V (V) @ t=0.06
0.020691755908040677
% es.normE (V/m) @ t=0.08
0.09839514461791254
% es.EX (V/m) @ t=0.08
-0.03608890709183932
% es.EY (V/m) @ t=0.08
0.010992154078134364
% es.EZ (V/m) @ t=0.08
0.09087556227071758
% es.tEX (V/m) @ t=0.08
-0.03608890709183399
% es.tEY (V/m) @ t=0.08
0
% es.tEZ (V/m) @ t=0.08
0.09087556227071403
% es.Ex (V/m) @ t=0.08
-0.03608890709183932
% es.Ey (V/m) @ t=0.08
0.010992154078134364
% es.Ez (V/m) @ t=0.08
0.09087556227071758
% es.tEx (V/m) @ t=0.08
-0.03608890709183399
% es.tEy (V/m) @ t=0.08
0
% es.tEz (V/m) @ t=0.08
0.09087556227071403
% V (V) @ t=0.08
0.02088241976866441
% es.normE (V/m) @ t=0.1
0.0993077897705914
% es.EX (V/m) @ t=0.1
-0.03642364282332444
% es.EY (V/m) @ t=0.1
0.011094109671709207
% es.EZ (V/m) @ t=0.1
0.09171846097264691
% es.tEX (V/m) @ t=0.1
-0.036423642823308455
% es.tEY (V/m) @ t=0.1
0
% es.tEZ (V/m) @ t=0.1
0.09171846097264869
% es.Ex (V/m) @ t=0.1
-0.03642364282332444
% es.Ey (V/m) @ t=0.1
0.011094109671709207
% es.Ez (V/m) @ t=0.1
0.09171846097264691
% es.tEx (V/m) @ t=0.1
-0.036423642823308455
% es.tEy (V/m) @ t=0.1
0
% es.tEz (V/m) @ t=0.1
0.09171846097264869
% V (V) @ t=0.1
0.021076110550962483
% es.normE (V/m) @ t=0.12
0.10022043492327373
% es.EX (V/m) @ t=0.12
-0.03675837855479891
% es.EY (V/m) @ t=0.12
0.011196065265320687
% es.EZ (V/m) @ t=0.12
0.09256135967457979
% es.tEX (V/m) @ t=0.12
-0.03675837855479003
% es.tEY (V/m) @ t=0.12
0
% es.tEZ (V/m) @ t=0.12
0.09256135967458334
% es.Ex (V/m) @ t=0.12
-0.03675837855479891
% es.Ey (V/m) @ t=0.12
0.011196065265320687
% es.Ez (V/m) @ t=0.12
0.09256135967457979
% es.tEx (V/m) @ t=0.12
-0.03675837855479003
% es.tEy (V/m) @ t=0.12
0
% es.tEz (V/m) @ t=0.12
0.09256135967458334
% V (V) @ t=0.12
0.021269801333260552
% es.normE (V/m) @ t=0.14
0.10113308007595105
% es.EX (V/m) @ t=0.14
-0.037093114286278706
% es.EY (V/m) @ t=0.14
0.01129802085894327
% es.EZ (V/m) @ t=0.14
0.09340425837650379
% es.tEX (V/m) @ t=0.14
-0.03709311428628048
% es.tEY (V/m) @ t=0.14
0
% es.tEZ (V/m) @ t=0.14
0.09340425837650557
% es.Ex (V/m) @ t=0.14
-0.037093114286278706
% es.Ey (V/m) @ t=0.14
0.01129802085894327
% es.Ez (V/m) @ t=0.14
0.09340425837650379
% es.tEx (V/m) @ t=0.14
-0.03709311428628048
% es.tEy (V/m) @ t=0.14
0
% es.tEz (V/m) @ t=0.14
0.09340425837650557
% V (V) @ t=0.14
0.021463492115558622
% es.normE (V/m) @ t=0.16
0.10208948883091515
% es.EX (V/m) @ t=0.16
-0.03744390135470077
% es.EY (V/m) @ t=0.16
0.011404865488543914
% es.EZ (V/m) @ t=0.16
0.09428757619265227
% es.tEX (V/m) @ t=0.16
-0.03744390135469544
% es.tEY (V/m) @ t=0.16
0
% es.tEZ (V/m) @ t=0.16
0.09428757619264694
% es.Ex (V/m) @ t=0.16
-0.03744390135470077
% es.Ey (V/m) @ t=0.16
0.011404865488543914
% es.Ez (V/m) @ t=0.16
0.09428757619265227
% es.tEx (V/m) @ t=0.16
-0.03744390135469544
% es.tEy (V/m) @ t=0.16
0
% es.tEz (V/m) @ t=0.16
0.09428757619264694
% V (V) @ t=0.16
0.02166647095767012
% es.normE (V/m) @ t=0.18
0.10305417841112297
% es.EX (V/m) @ t=0.18
-0.037797725611763866
% es.EY (V/m) @ t=0.18
0.011512635207697741
% es.EZ (V/m) @ t=0.18
0.09517854199946463
% es.tEX (V/m) @ t=0.18
-0.03779772561176742
% es.tEY (V/m) @ t=0.18
0
% es.tEZ (V/m) @ t=0.18
0.09517854199947529
% es.Ex (V/m) @ t=0.18
-0.037797725611763866
% es.Ey (V/m) @ t=0.18
0.011512635207697741
% es.Ez (V/m) @ t=0.18
0.09517854199946463
% es.tEx (V/m) @ t=0.18
-0.03779772561176742
% es.tEy (V/m) @ t=0.18
0
% es.tEz (V/m) @ t=0.18
0.09517854199947529
% V (V) @ t=0.18
0.021871207260240236
% es.normE (V/m) @ t=0.2
0.10401886799135669
% es.EX (V/m) @ t=0.2
-0.038151549868844725
% es.EY (V/m) @ t=0.2
0.011620404926878214
% es.EZ (V/m) @ t=0.2
0.09606950780629475
% es.tEX (V/m) @ t=0.2
-0.038151549868844725
% es.tEY (V/m) @ t=0.2
0
% es.tEZ (V/m) @ t=0.2
0.09606950780630363
% es.Ex (V/m) @ t=0.2
-0.038151549868844725
% es.Ey (V/m) @ t=0.2
0.011620404926878214
% es.Ez (V/m) @ t=0.2
0.09606950780629475
% es.tEx (V/m) @ t=0.2
-0.038151549868844725
% es.tEy (V/m) @ t=0.2
0
% es.tEz (V/m) @ t=0.2
0.09606950780630363
% V (V) @ t=0.2
0.022075943562810337
% es.normE (V/m) @ t=0.22
0.10498355757158034
% es.EX (V/m) @ t=0.22
-0.038505374125911374
% es.EY (V/m) @ t=0.22
0.011728174646074008
% es.EZ (V/m) @ t=0.22
0.09696047361311777
% es.tEX (V/m) @ t=0.22
-0.03850537412591848
% es.tEY (V/m) @ t=0.22
0
% es.tEZ (V/m) @ t=0.22
0.09696047361312665
% es.Ex (V/m) @ t=0.22
-0.038505374125911374
% es.Ey (V/m) @ t=0.22
0.011728174646074008
% es.Ez (V/m) @ t=0.22
0.09696047361311777
% es.tEx (V/m) @ t=0.22
-0.03850537412591848
% es.tEy (V/m) @ t=0.22
0
% es.tEz (V/m) @ t=0.22
0.09696047361312665
% V (V) @ t=0.22
0.022280679865380446
% es.normE (V/m) @ t=0.24
0.10594824715181193
% es.EX (V/m) @ t=0.24
-0.038859198382990456
% es.EY (V/m) @ t=0.24
0.011835944365241158
% es.EZ (V/m) @ t=0.24
0.0978514394199479
% es.tEX (V/m) @ t=0.24
-0.03885919838298513
% es.tEY (V/m) @ t=0.24
0
% es.tEZ (V/m) @ t=0.24
0.09785143941994434
% es.Ex (V/m) @ t=0.24
-0.038859198382990456
% es.Ey (V/m) @ t=0.24
0.011835944365241158
% es.Ez (V/m) @ t=0.24
0.0978514394199479
% es.tEx (V/m) @ t=0.24
-0.03885919838298513
% es.tEy (V/m) @ t=0.24
0
% es.tEz (V/m) @ t=0.24
0.09785143941994434
% V (V) @ t=0.24
0.022485416167950547
% es.normE (V/m) @ t=0.26
0.10691293673203398
% es.EX (V/m) @ t=0.26
-0.039213022640057105
% es.EY (V/m) @ t=0.26
0.011943714084422519
% es.EZ (V/m) @ t=0.26
0.09874240522677091
% es.tEX (V/m) @ t=0.26
-0.03921302264006421
% es.tEY (V/m) @ t=0.26
0
% es.tEZ (V/m) @ t=0.26
0.09874240522676558
% es.Ex (V/m) @ t=0.26
-0.039213022640057105
% es.Ey (V/m) @ t=0.26
0.011943714084422519
% es.Ez (V/m) @ t=0.26
0.09874240522677091
% es.tEx (V/m) @ t=0.26
-0.03921302264006421
% es.tEy (V/m) @ t=0.26
0
% es.tEz (V/m) @ t=0.26
0.09874240522676558
% V (V) @ t=0.26
0.02269015247052066
% es.normE (V/m) @ t=0.28
0.10787762631225967
% es.EX (V/m) @ t=0.28
-0.039566846897137964
% es.EY (V/m) @ t=0.28
0.01205148380358989
% es.EZ (V/m) @ t=0.28
0.09963337103359393
% es.tEX (V/m) @ t=0.28
-0.03956684689712908
% es.tEY (V/m) @ t=0.28
0
% es.tEZ (V/m) @ t=0.28
0.0996333710335886
% es.Ex (V/m) @ t=0.28
-0.039566846897137964
% es.Ey (V/m) @ t=0.28
0.01205148380358989
% es.Ez (V/m) @ t=0.28
0.09963337103359393
% es.tEx (V/m) @ t=0.28
-0.03956684689712908
% es.tEy (V/m) @ t=0.28
0
% es.tEz (V/m) @ t=0.28
0.0996333710335886
% V (V) @ t=0.28
0.022894888773090764
% es.normE (V/m) @ t=0.3
0.108880420661065
% es.EX (V/m) @ t=0.3
-0.03993464706547378
% es.EY (V/m) @ t=0.3
0.012163510370057251
% es.EZ (V/m) @ t=0.3
0.10055952954625447
% es.tEX (V/m) @ t=0.3
-0.03993464706548977
% es.tEY (V/m) @ t=0.3
0
% es.tEZ (V/m) @ t=0.3
0.10055952954624914
% es.Ex (V/m) @ t=0.3
-0.03993464706547378
% es.Ey (V/m) @ t=0.3
0.012163510370057251
% es.Ez (V/m) @ t=0.3
0.10055952954625447
% es.tEx (V/m) @ t=0.3
-0.03993464706548977
% es.tEy (V/m) @ t=0.3
0
% es.tEz (V/m) @ t=0.3
0.10055952954624914
% V (V) @ t=0.3
0.023107712023070593
% es.normE (V/m) @ t=0.32
0.10990057422414214
% es.EX (V/m) @ t=0.32
-0.040308814175487484
% es.EY (V/m) @ t=0.32
0.012277476208861327
% es.EZ (V/m) @ t=0.32
0.10150172063814011
% es.tEX (V/m) @ t=0.32
-0.04030881417549459
% es.tEY (V/m) @ t=0.32
0
% es.tEZ (V/m) @ t=0.32
0.10150172063815077
% es.Ex (V/m) @ t=0.32
-0.040308814175487484
% es.Ey (V/m) @ t=0.32
0.012277476208861327
% es.Ez (V/m) @ t=0.32
0.10150172063814011
% es.tEx (V/m) @ t=0.32
-0.04030881417549459
% es.tEy (V/m) @ t=0.32
0
% es.tEz (V/m) @ t=0.32
0.10150172063815077
% V (V) @ t=0.32
0.023324219406514274
% es.normE (V/m) @ t=0.34
0.11092072778721514
% es.EX (V/m) @ t=0.34
-0.04068298128549408
% es.EY (V/m) @ t=0.34
0.01239144204763698
% es.EZ (V/m) @ t=0.34
0.10244391173002754
% es.tEX (V/m) @ t=0.34
-0.040682981285495856
% es.tEY (V/m) @ t=0.34
0
% es.tEZ (V/m) @ t=0.34
0.10244391173003109
% es.Ex (V/m) @ t=0.34
-0.04068298128549408
% es.Ey (V/m) @ t=0.34
0.01239144204763698
% es.Ez (V/m) @ t=0.34
0.10244391173002754
% es.tEx (V/m) @ t=0.34
-0.040682981285495856
% es.tEy (V/m) @ t=0.34
0
% es.tEz (V/m) @ t=0.34
0.10244391173003109
% V (V) @ t=0.34
0.02354072678995795
% es.normE (V/m) @ t=0.36
0.11194088135031471
% es.EX (V/m) @ t=0.36
-0.041057148395511334
% es.EY (V/m) @ t=0.36
0.01250540788646859
% es.EZ (V/m) @ t=0.36
0.10338610282193272
% es.tEX (V/m) @ t=0.36
-0.04105714839550778
% es.tEY (V/m) @ t=0.36
0
% es.tEZ (V/m) @ t=0.36
0.10338610282192917
% es.Ex (V/m) @ t=0.36
-0.041057148395511334
% es.Ey (V/m) @ t=0.36
0.01250540788646859
% es.Ez (V/m) @ t=0.36
0.10338610282193272
% es.tEx (V/m) @ t=0.36
-0.04105714839550778
% es.tEy (V/m) @ t=0.36
0
% es.tEz (V/m) @ t=0.36
0.10338610282192917
% V (V) @ t=0.36
0.02375723417340162
% es.normE (V/m) @ t=0.38
0.11296103491339807
% es.EX (V/m) @ t=0.38
-0.041431315505525035
% es.EY (V/m) @ t=0.38
0.012619373725254901
% es.EZ (V/m) @ t=0.38
0.10432829391382725
% es.tEX (V/m) @ t=0.38
-0.04143131550552326
% es.tEY (V/m) @ t=0.38
0
% es.tEZ (V/m) @ t=0.38
0.1043282939138308
% es.Ex (V/m) @ t=0.38
-0.041431315505525035
% es.Ey (V/m) @ t=0.38
0.012619373725254901
% es.Ez (V/m) @ t=0.38
0.10432829391382725
% es.tEx (V/m) @ t=0.38
-0.04143131550552326
% es.tEy (V/m) @ t=0.38
0
% es.tEz (V/m) @ t=0.38
0.1043282939138308
% V (V) @ t=0.38
0.0239737415568453
% es.normE (V/m) @ t=0.4
0.11398118847647705
% es.EX (V/m) @ t=0.4
-0.04180548261553518
% es.EY (V/m) @ t=0.4
0.01273333956404299
% es.EZ (V/m) @ t=0.4
0.10527048500571823
% es.tEX (V/m) @ t=0.4
-0.04180548261553518
% es.tEY (V/m) @ t=0.4
0
% es.tEZ (V/m) @ t=0.4
0.10527048500571468
% es.Ex (V/m) @ t=0.4
-0.04180548261553518
% es.Ey (V/m) @ t=0.4
0.01273333956404299
% es.Ez (V/m) @ t=0.4
0.10527048500571823
% es.tEx (V/m) @ t=0.4
-0.04180548261553518
% es.tEy (V/m) @ t=0.4
0
% es.tEz (V/m) @ t=0.4
0.10527048500571468
% V (V) @ t=0.4
0.02419024894028897
% es.normE (V/m) @ t=0.42
0.11500134203955521
% es.EX (V/m) @ t=0.42
-0.04217964972554533
% es.EY (V/m) @ t=0.42
0.012847305402853282
% es.EZ (V/m) @ t=0.42
0.10621267609760565
% es.tEX (V/m) @ t=0.42
-0.04217964972553112
% es.tEY (V/m) @ t=0.42
0
% es.tEZ (V/m) @ t=0.42
0.1062126760976021
% es.Ex (V/m) @ t=0.42
-0.04217964972554533
% es.Ey (V/m) @ t=0.42
0.012847305402853282
% es.Ez (V/m) @ t=0.42
0.10621267609760565
% es.tEx (V/m) @ t=0.42
-0.04217964972553112
% es.tEy (V/m) @ t=0.42
0
% es.tEz (V/m) @ t=0.42
0.1062126760976021
% V (V) @ t=0.42
0.02440675632373265
% es.normE (V/m) @ t=0.44
0.1160886723627496
% es.EX (V/m) @ t=0.44
-0.04257845574261587
% es.EY (V/m) @ t=0.44
0.012968775830954016
% es.EZ (V/m) @ t=0.44
0.10721691009801759
% es.tEX (V/m) @ t=0.44
-0.04257845574261232
% es.tEY (V/m) @ t=0.44
0
% es.tEZ (V/m) @ t=0.44
0.10721691009802115
% es.Ex (V/m) @ t=0.44
-0.04257845574261587
% es.Ey (V/m) @ t=0.44
0.012968775830954016
% es.Ez (V/m) @ t=0.44
0.10721691009801759
% es.tEx (V/m) @ t=0.44
-0.04257845574261232
% es.tEy (V/m) @ t=0.44
0
% es.tEz (V/m) @ t=0.44
0.10721691009802115
% V (V) @ t=0.44
0.024637520450604876
% es.normE (V/m) @ t=0.46
0.11723482632418078
% es.EX (V/m) @ t=0.46
-0.04299883693172646
% es.EY (V/m) @ t=0.46
0.013096817687151319
% es.EZ (V/m) @ t=0.46
0.10827547225595069
% es.tEX (V/m) @ t=0.46
-0.042998836931722906
% es.tEY (V/m) @ t=0.46
0
% es.tEZ (V/m) @ t=0.46
0.10827547225595424
% es.Ex (V/m) @ t=0.46
-0.04299883693172646
% es.Ey (V/m) @ t=0.46
0.013096817687151319
% es.Ez (V/m) @ t=0.46
0.10827547225595069
% es.tEx (V/m) @ t=0.46
-0.042998836931722906
% es.tEy (V/m) @ t=0.46
0
% es.tEz (V/m) @ t=0.46
0.10827547225595424
% V (V) @ t=0.46
0.024880768560274442
% es.normE (V/m) @ t=0.48
0.11838098028559904
% es.EX (V/m) @ t=0.48
-0.043419218120826386
% es.EY (V/m) @ t=0.48
0.01322485954329733
% es.EZ (V/m) @ t=0.48
0.10933403441388023
% es.tEX (V/m) @ t=0.48
-0.04341921812083349
% es.tEY (V/m) @ t=0.48
0
% es.tEZ (V/m) @ t=0.48
0.10933403441388378
% es.Ex (V/m) @ t=0.48
-0.043419218120826386
% es.Ey (V/m) @ t=0.48
0.01322485954329733
% es.Ez (V/m) @ t=0.48
0.10933403441388023
% es.tEx (V/m) @ t=0.48
-0.04341921812083349
% es.tEy (V/m) @ t=0.48
0
% es.tEz (V/m) @ t=0.48
0.10933403441388378
% V (V) @ t=0.48
0.025124016669944012
% es.normE (V/m) @ t=0.5
0.11952713424702922
% es.EX (V/m) @ t=0.5
-0.043839599309920985
% es.EY (V/m) @ t=0.5
0.013352901399508843
% es.EZ (V/m) @ t=0.5
0.11039259657181688
% es.tEX (V/m) @ t=0.5
-0.04383959930993164
% es.tEY (V/m) @ t=0.5
0
% es.tEZ (V/m) @ t=0.5
0.11039259657181333
% es.Ex (V/m) @ t=0.5
-0.043839599309920985
% es.Ey (V/m) @ t=0.5
0.013352901399508843
% es.Ez (V/m) @ t=0.5
0.11039259657181688
% es.tEx (V/m) @ t=0.5
-0.04383959930993164
% es.tEy (V/m) @ t=0.5
0
% es.tEz (V/m) @ t=0.5
0.11039259657181333
% V (V) @ t=0.5
0.025367264779613583
% es.normE (V/m) @ t=0.52
0.12067328820845247
% es.EX (V/m) @ t=0.52
-0.04425998049904045
% es.EY (V/m) @ t=0.52
0.013480943255664624
% es.EZ (V/m) @ t=0.52
0.11145115872974287
% es.tEX (V/m) @ t=0.52
-0.0442599804990369
% es.tEY (V/m) @ t=0.52
0
% es.tEZ (V/m) @ t=0.52
0.11145115872973932
% es.Ex (V/m) @ t=0.52
-0.04425998049904045
% es.Ey (V/m) @ t=0.52
0.013480943255664624
% es.Ez (V/m) @ t=0.52
0.11145115872974287
% es.tEx (V/m) @ t=0.52
-0.0442599804990369
% es.tEy (V/m) @ t=0.52
0
% es.tEz (V/m) @ t=0.52
0.11145115872973932
% V (V) @ t=0.52
0.02561051288928315
% es.normE (V/m) @ t=0.54
0.12181944216986872
% es.EX (V/m) @ t=0.54
-0.04468036168814038
% es.EY (V/m) @ t=0.54
0.01360898511185149
% es.EZ (V/m) @ t=0.54
0.11250972088766531
% es.tEX (V/m) @ t=0.54
-0.04468036168815104
% es.tEY (V/m) @ t=0.54
0
% es.tEZ (V/m) @ t=0.54
0.11250972088766886
% es.Ex (V/m) @ t=0.54
-0.04468036168814038
% es.Ey (V/m) @ t=0.54
0.01360898511185149
% es.Ez (V/m) @ t=0.54
0.11250972088766531
% es.tEx (V/m) @ t=0.54
-0.04468036168815104
% es.tEy (V/m) @ t=0.54
0
% es.tEz (V/m) @ t=0.54
0.11250972088766886
% V (V) @ t=0.54
0.025853760998952716
% es.normE (V/m) @ t=0.56
0.12296559613128837
% es.EX (V/m) @ t=0.56
-0.04510074287724741
% es.EY (V/m) @ t=0.56
0.01373702696801593
% es.EZ (V/m) @ t=0.56
0.1135682830455913
% es.tEX (V/m) @ t=0.56
-0.045100742877236755
% es.tEY (V/m) @ t=0.56
0
% es.tEZ (V/m) @ t=0.56
0.1135682830455913
% es.Ex (V/m) @ t=0.56
-0.04510074287724741
% es.Ey (V/m) @ t=0.56
0.01373702696801593
% es.Ez (V/m) @ t=0.56
0.1135682830455913
% es.tEx (V/m) @ t=0.56
-0.045100742877236755
% es.tEy (V/m) @ t=0.56
0
% es.tEz (V/m) @ t=0.56
0.1135682830455913
% V (V) @ t=0.56
0.02609700910862229
% es.normE (V/m) @ t=0.58
0.12411175009271695
% es.EX (V/m) @ t=0.58
-0.04552112406634379
% es.EY (V/m) @ t=0.58
0.013865068824207238
% es.EZ (V/m) @ t=0.58
0.11462684520352795
% es.tEX (V/m) @ t=0.58
-0.04552112406634734
% es.tEY (V/m) @ t=0.58
0
% es.tEZ (V/m) @ t=0.58
0.1146268452035244
% es.Ex (V/m) @ t=0.58
-0.04552112406634379
% es.Ey (V/m) @ t=0.58
0.013865068824207238
% es.Ez (V/m) @ t=0.58
0.11462684520352795
% es.tEx (V/m) @ t=0.58
-0.04552112406634734
% es.tEy (V/m) @ t=0.58
0
% es.tEz (V/m) @ t=0.58
0.1146268452035244
% V (V) @ t=0.58
0.026340257218291852
% es.normE (V/m) @ t=0.6
0.1252579040541367
% es.EX (V/m) @ t=0.6
-0.045941505255457926
% es.EY (V/m) @ t=0.6
0.013993110680378784
% es.EZ (V/m) @ t=0.6
0.11568540736145039
% es.tEX (V/m) @ t=0.6
-0.04594150525545082
% es.tEY (V/m) @ t=0.6
0
% es.tEZ (V/m) @ t=0.6
0.11568540736145394
% es.Ex (V/m) @ t=0.6
-0.045941505255457926
% es.Ey (V/m) @ t=0.6
0.013993110680378784
% es.Ez (V/m) @ t=0.6
0.11568540736145039
% es.tEx (V/m) @ t=0.6
-0.04594150525545082
% es.tEy (V/m) @ t=0.6
0
% es.tEz (V/m) @ t=0.6
0.11568540736145394
% V (V) @ t=0.6
0.026583505327961422
% es.normE (V/m) @ t=0.62
0.12640405801557375
% es.EX (V/m) @ t=0.62
-0.04636188644456318
% es.EY (V/m) @ t=0.62
0.01412115253658719
% es.EZ (V/m) @ t=0.62
0.11674396951939059
% es.tEX (V/m) @ t=0.62
-0.046361886444566736
% es.tEY (V/m) @ t=0.62
0
% es.tEZ (V/m) @ t=0.62
0.11674396951939414
% es.Ex (V/m) @ t=0.62
-0.04636188644456318
% es.Ey (V/m) @ t=0.62
0.01412115253658719
% es.Ez (V/m) @ t=0.62
0.11674396951939059
% es.tEx (V/m) @ t=0.62
-0.046361886444566736
% es.tEy (V/m) @ t=0.62
0
% es.tEz (V/m) @ t=0.62
0.11674396951939414
% V (V) @ t=0.62
0.026826753437630992
% es.normE (V/m) @ t=0.64
0.12755021197699865
% es.EX (V/m) @ t=0.64
-0.04678226763366666
% es.EY (V/m) @ t=0.64
0.01424919439275163
% es.EZ (V/m) @ t=0.64
0.11780253167732369
% es.tEX (V/m) @ t=0.64
-0.046782267633670216
% es.tEY (V/m) @ t=0.64
0
% es.tEZ (V/m) @ t=0.64
0.11780253167732013
% es.Ex (V/m) @ t=0.64
-0.04678226763366666
% es.Ey (V/m) @ t=0.64
0.01424919439275163
% es.Ez (V/m) @ t=0.64
0.11780253167732369
% es.tEx (V/m) @ t=0.64
-0.046782267633670216
% es.tEy (V/m) @ t=0.64
0
% es.tEz (V/m) @ t=0.64
0.11780253167732013
% V (V) @ t=0.64
0.02707000154730056
% es.normE (V/m) @ t=0.66
0.128696365938416
% es.EX (V/m) @ t=0.66
-0.047202648822779025
% es.EY (V/m) @ t=0.66
0.014377236248907188
% es.EZ (V/m) @ t=0.66
0.11886109383524612
% es.tEX (V/m) @ t=0.66
-0.04720264882276837
% es.tEY (V/m) @ t=0.66
0
% es.tEZ (V/m) @ t=0.66
0.11886109383525323
% es.Ex (V/m) @ t=0.66
-0.047202648822779025
% es.Ey (V/m) @ t=0.66
0.014377236248907188
% es.Ez (V/m) @ t=0.66
0.11886109383524612
% es.tEx (V/m) @ t=0.66
-0.04720264882276837
% es.tEy (V/m) @ t=0.66
0
% es.tEz (V/m) @ t=0.66
0.11886109383525323
% V (V) @ t=0.66
0.02731324965697013
% es.normE (V/m) @ t=0.68
0.12984251989984613
% es.EX (V/m) @ t=0.68
-0.04762303001187895
% es.EY (V/m) @ t=0.68
0.014505278105100938
% es.EZ (V/m) @ t=0.68
0.11991965599318277
% es.tEX (V/m) @ t=0.68
-0.0476230300118754
% es.tEY (V/m) @ t=0.68
0
% es.tEZ (V/m) @ t=0.68
0.11991965599317922
% es.Ex (V/m) @ t=0.68
-0.04762303001187895
% es.Ey (V/m) @ t=0.68
0.014505278105100938
% es.Ez (V/m) @ t=0.68
0.11991965599318277
% es.tEx (V/m) @ t=0.68
-0.0476230300118754
% es.tEy (V/m) @ t=0.68
0
% es.tEz (V/m) @ t=0.68
0.11991965599317922
% V (V) @ t=0.68
0.027556497766639695
% es.normE (V/m) @ t=0.7
0.1309886738612644
% es.EX (V/m) @ t=0.7
-0.04804341120097533
% es.EY (V/m) @ t=0.7
0.014633319961258495
% es.EZ (V/m) @ t=0.7
0.12097821815111232
% es.tEX (V/m) @ t=0.7
-0.04804341120097888
% es.tEY (V/m) @ t=0.7
0
% es.tEZ (V/m) @ t=0.7
0.12097821815110876
% es.Ex (V/m) @ t=0.7
-0.04804341120097533
% es.Ey (V/m) @ t=0.7
0.014633319961258495
% es.Ez (V/m) @ t=0.7
0.12097821815111232
% es.tEx (V/m) @ t=0.7
-0.04804341120097888
% es.tEy (V/m) @ t=0.7
0
% es.tEz (V/m) @ t=0.7
0.12097821815110876
% V (V) @ t=0.7
0.02779974587630927
% es.normE (V/m) @ t=0.72
0.1321636964658717
% es.EX (V/m) @ t=0.72
-0.048474380616511326
% es.EY (V/m) @ t=0.72
0.014764586873451169
% es.EZ (V/m) @ t=0.72
0.122063442773932
% es.tEX (V/m) @ t=0.72
-0.048474380616511326
% es.tEY (V/m) @ t=0.72
0
% es.tEZ (V/m) @ t=0.72
0.12206344277392489
% es.Ex (V/m) @ t=0.72
-0.048474380616511326
% es.Ey (V/m) @ t=0.72
0.014764586873451169
% es.Ez (V/m) @ t=0.72
0.122063442773932
% es.tEx (V/m) @ t=0.72
-0.048474380616511326
% es.tEy (V/m) @ t=0.72
0
% es.tEz (V/m) @ t=0.72
0.12206344277392489
% V (V) @ t=0.72
0.028049120897988736
% es.normE (V/m) @ t=0.74
0.13343792491236114
% es.EX (V/m) @ t=0.74
-0.04894173601353735
% es.EY (V/m) @ t=0.74
0.014906936550853622
% es.EZ (V/m) @ t=0.74
0.12324029180250662
% es.tEX (V/m) @ t=0.74
-0.04894173601354801
% es.tEY (V/m) @ t=0.74
0
% es.tEZ (V/m) @ t=0.74
0.12324029180251728
% es.Ex (V/m) @ t=0.74
-0.04894173601353735
% es.Ey (V/m) @ t=0.74
0.014906936550853622
% es.Ez (V/m) @ t=0.74
0.12324029180250662
% es.tEx (V/m) @ t=0.74
-0.04894173601354801
% es.tEy (V/m) @ t=0.74
0
% es.tEz (V/m) @ t=0.74
0.12324029180251728
% V (V) @ t=0.74
0.02831955078741759
% es.normE (V/m) @ t=0.76
0.13471215335887016
% es.EX (V/m) @ t=0.76
-0.04940909141058114
% es.EY (V/m) @ t=0.76
0.015049286228255188
% es.EZ (V/m) @ t=0.76
0.12441714083109545
% es.tEX (V/m) @ t=0.76
-0.04940909141058469
% es.tEY (V/m) @ t=0.76
0
% es.tEZ (V/m) @ t=0.76
0.1244171408310919
% es.Ex (V/m) @ t=0.76
-0.04940909141058114
% es.Ey (V/m) @ t=0.76
0.015049286228255188
% es.Ez (V/m) @ t=0.76
0.12441714083109545
% es.tEx (V/m) @ t=0.76
-0.04940909141058469
% es.tEy (V/m) @ t=0.76
0
% es.tEz (V/m) @ t=0.76
0.1244171408310919
% V (V) @ t=0.76
0.028589980676846448
% es.normE (V/m) @ t=0.78
0.13598638180536826
% es.EX (V/m) @ t=0.78
-0.04987644680762848
% es.EY (V/m) @ t=0.78
0.015191635905635659
% es.EZ (V/m) @ t=0.78
0.12559398985967363
% es.tEX (V/m) @ t=0.78
-0.049876446807632036
% es.tEY (V/m) @ t=0.78
0
% es.tEZ (V/m) @ t=0.78
0.12559398985967007
% es.Ex (V/m) @ t=0.78
-0.04987644680762848
% es.Ey (V/m) @ t=0.78
0.015191635905635659
% es.Ez (V/m) @ t=0.78
0.12559398985967363
% es.tEx (V/m) @ t=0.78
-0.049876446807632036
% es.tEy (V/m) @ t=0.78
0
% es.tEz (V/m) @ t=0.78
0.12559398985967007
% V (V) @ t=0.78
0.028860410566275294
% es.normE (V/m) @ t=0.8
0.13726061025186073
% es.EX (V/m) @ t=0.8
-0.05034380220466694
% es.EY (V/m) @ t=0.8
0.015333985583053433
% es.EZ (V/m) @ t=0.8
0.1267708388882447
% es.tEX (V/m) @ t=0.8
-0.050343802204670496
% es.tEY (V/m) @ t=0.8
0
% es.tEZ (V/m) @ t=0.8
0.12677083888825535
% es.Ex (V/m) @ t=0.8
-0.05034380220466694
% es.Ey (V/m) @ t=0.8
0.015333985583053433
% es.Ez (V/m) @ t=0.8
0.1267708388882447
% es.tEx (V/m) @ t=0.8
-0.050343802204670496
% es.tEy (V/m) @ t=0.8
0
% es.tEz (V/m) @ t=0.8
0.12677083888825535
% V (V) @ t=0.8
0.029130840455704153
% es.normE (V/m) @ t=0.82
0.13853483869837913
% es.EX (V/m) @ t=0.82
-0.050811157601733825
% es.EY (V/m) @ t=0.82
0.015476335260433904
% es.EZ (V/m) @ t=0.82
0.12794768791683708
% es.tEX (V/m) @ t=0.82
-0.05081115760173205
% es.tEY (V/m) @ t=0.82
0
% es.tEZ (V/m) @ t=0.82
0.12794768791684774
% es.Ex (V/m) @ t=0.82
-0.050811157601733825
% es.Ey (V/m) @ t=0.82
0.015476335260433904
% es.Ez (V/m) @ t=0.82
0.12794768791683708
% es.tEx (V/m) @ t=0.82
-0.05081115760173205
% es.tEy (V/m) @ t=0.82
0
% es.tEz (V/m) @ t=0.82
0.12794768791684774
% V (V) @ t=0.82
0.029401270345133006
% es.normE (V/m) @ t=0.84
0.1398090671448713
% es.EX (V/m) @ t=0.84
-0.0512785129987563
% es.EY (V/m) @ t=0.84
0.015618684937842797
% es.EZ (V/m) @ t=0.84
0.12912453694541526
% es.tEX (V/m) @ t=0.84
-0.051278512998752745
% es.tEY (V/m) @ t=0.84
0
% es.tEZ (V/m) @ t=0.84
0.1291245369454117
% es.Ex (V/m) @ t=0.84
-0.0512785129987563
% es.Ey (V/m) @ t=0.84
0.015618684937842797
% es.Ez (V/m) @ t=0.84
0.12912453694541526
% es.tEx (V/m) @ t=0.84
-0.051278512998752745
% es.tEy (V/m) @ t=0.84
0
% es.tEz (V/m) @ t=0.84
0.1291245369454117
% V (V) @ t=0.84
0.02967170023456186
% es.normE (V/m) @ t=0.86
0.14108329559137328
% es.EX (V/m) @ t=0.86
-0.05174586839578943
% es.EY (V/m) @ t=0.86
0.015761034615216607
% es.EZ (V/m) @ t=0.86
0.1303013859740041
% es.tEX (V/m) @ t=0.86
-0.05174586839580364
% es.tEY (V/m) @ t=0.86
0
% es.tEZ (V/m) @ t=0.86
0.13030138597400054
% es.Ex (V/m) @ t=0.86
-0.05174586839578943
% es.Ey (V/m) @ t=0.86
0.015761034615216607
% es.Ez (V/m) @ t=0.86
0.1303013859740041
% es.tEx (V/m) @ t=0.86
-0.05174586839580364
% es.tEy (V/m) @ t=0.86
0
% es.tEz (V/m) @ t=0.86
0.13030138597400054
% V (V) @ t=0.86
0.029942130123990718
% es.normE (V/m) @ t=0.88
0.14235752403787708
% es.EX (V/m) @ t=0.88
-0.05221322379284743
% es.EY (V/m) @ t=0.88
0.015903384292642375
% es.EZ (V/m) @ t=0.88
0.1314782350025787
% es.tEX (V/m) @ t=0.88
-0.05221322379285098
% es.tEY (V/m) @ t=0.88
0
% es.tEZ (V/m) @ t=0.88
0.13147823500259648
% es.Ex (V/m) @ t=0.88
-0.05221322379284743
% es.Ey (V/m) @ t=0.88
0.015903384292642375
% es.Ez (V/m) @ t=0.88
0.1314782350025787
% es.tEx (V/m) @ t=0.88
-0.05221322379285098
% es.tEy (V/m) @ t=0.88
0
% es.tEz (V/m) @ t=0.88
0.13147823500259648
% V (V) @ t=0.88
0.030212560013419567
% es.normE (V/m) @ t=0.9
0.14363175248436397
% es.EX (V/m) @ t=0.9
-0.05268057918988234
% es.EY (V/m) @ t=0.9
0.016045733970021958
% es.EZ (V/m) @ t=0.9
0.13265508403114978
% es.tEX (V/m) @ t=0.9
-0.052680579189878785
% es.tEY (V/m) @ t=0.9
0
% es.tEZ (V/m) @ t=0.9
0.13265508403116044
% es.Ex (V/m) @ t=0.9
-0.05268057918988234
% es.Ey (V/m) @ t=0.9
0.016045733970021958
% es.Ez (V/m) @ t=0.9
0.13265508403114978
% es.tEx (V/m) @ t=0.9
-0.052680579189878785
% es.tEy (V/m) @ t=0.9
0
% es.tEz (V/m) @ t=0.9
0.13265508403116044
% V (V) @ t=0.9
0.030482989902848426
% es.normE (V/m) @ t=0.92
0.14490598093089022
% es.EX (V/m) @ t=0.92
-0.05314793458693501
% es.EY (V/m) @ t=0.92
0.016188083647431517
% es.EZ (V/m) @ t=0.92
0.13383193305975283
% es.tEX (V/m) @ t=0.92
-0.053147934586945667
% es.tEY (V/m) @ t=0.92
0
% es.tEZ (V/m) @ t=0.92
0.13383193305974928
% es.Ex (V/m) @ t=0.92
-0.05314793458693501
% es.Ey (V/m) @ t=0.92
0.016188083647431517
% es.Ez (V/m) @ t=0.92
0.13383193305975283
% es.tEx (V/m) @ t=0.92
-0.053147934586945667
% es.tEy (V/m) @ t=0.92
0
% es.tEz (V/m) @ t=0.92
0.13383193305974928
% V (V) @ t=0.92
0.030753419792277272
% es.normE (V/m) @ t=0.94
0.14618020937738113
% es.EX (V/m) @ t=0.94
-0.053615289983980574
% es.EY (V/m) @ t=0.94
0.016330433324811988
% es.EZ (V/m) @ t=0.94
0.1350087820883239
% es.tEX (V/m) @ t=0.94
-0.05361528998397702
% es.tEY (V/m) @ t=0.94
0
% es.tEZ (V/m) @ t=0.94
0.13500878208832034
% es.Ex (V/m) @ t=0.94
-0.053615289983980574
% es.Ey (V/m) @ t=0.94
0.016330433324811988
% es.Ez (V/m) @ t=0.94
0.1350087820883239
% es.tEx (V/m) @ t=0.94
-0.05361528998397702
% es.tEy (V/m) @ t=0.94
0
% es.tEz (V/m) @ t=0.94
0.13500878208832034
% V (V) @ t=0.94
0.031023849681706128
% es.normE (V/m) @ t=0.96
0.1474544378238649
% es.EX (V/m) @ t=0.96
-0.054082645381004824
% es.EY (V/m) @ t=0.96
0.016472783002227986
% es.EZ (V/m) @ t=0.96
0.13618563111689141
% es.tEX (V/m) @ t=0.96
-0.054082645381008376
% es.tEY (V/m) @ t=0.96
0
% es.tEZ (V/m) @ t=0.96
0.13618563111688786
% es.Ex (V/m) @ t=0.96
-0.054082645381004824
% es.Ey (V/m) @ t=0.96
0.016472783002227986
% es.Ez (V/m) @ t=0.96
0.13618563111689141
% es.tEx (V/m) @ t=0.96
-0.054082645381008376
% es.tEy (V/m) @ t=0.96
0
% es.tEz (V/m) @ t=0.96
0.13618563111688786
% V (V) @ t=0.96
0.03129427957113498
% es.normE (V/m) @ t=0.98
0.1487790399700185
% es.EX (V/m) @ t=0.98
-0.0545684766720651
% es.EY (V/m) @ t=0.98
0.016620760136097257
% es.EZ (V/m) @ t=0.98
0.1374090041467042
% es.tEX (V/m) @ t=0.98
-0.05456847667206155
% es.tEY (V/m) @ t=0.98
0
% es.tEZ (V/m) @ t=0.98
0.13740900414671486
% es.Ex (V/m) @ t=0.98
-0.0545684766720651
% es.Ey (V/m) @ t=0.98
0.016620760136097257
% es.Ez (V/m) @ t=0.98
0.1374090041467042
% es.tEx (V/m) @ t=0.98
-0.05456847667206155
% es.tEy (V/m) @ t=0.98
0
% es.tEz (V/m) @ t=0.98
0.13740900414671486
% V (V) @ t=0.98
0.03157540018411111
% es.normE (V/m) @ t=1
0.15019783879104406
% es.EX (V/m) @ t=1
-0.055088857098803956
% es.EY (V/m) @ t=1
0.01677926037420918
% es.EZ (V/m) @ t=1
0.13871937507912335
% es.tEX (V/m) @ t=1
-0.05508885709880751
% es.tEY (V/m) @ t=1
0
% es.tEZ (V/m) @ t=1
0.138719375079134
% es.Ex (V/m) @ t=1
-0.055088857098803956
% es.Ey (V/m) @ t=1
0.01677926037420918
% es.Ez (V/m) @ t=1
0.13871937507912335
% es.tEx (V/m) @ t=1
-0.05508885709880751
% es.tEy (V/m) @ t=1
0
% es.tEz (V/m) @ t=1
0.138719375079134
% V (V) @ t=1
0.03187651199520831
% es.normE (V/m) @ t=1.02
0.15161663761204341
% es.EX (V/m) @ t=1.02
-0.05560923752550906
% es.EY (V/m) @ t=1.02