% Model:              1 neuron.mph
% Version:            COMSOL 6.1.0.252
% Date:               Mar 26 2023, 15:07
% Dimension:          0
% Nodes:              14017
% Expressions:        14017
% Description:        Electric field norm, Electric field, X component, Electric field, Y component, Electric field, Z component, Tangential electric field, X component, Tangential electric field, Y component, Tangential electric field, Z component, Electric field, x component, Electric field, y component, Electric field, z component, Tangential electric field, x component, Tangential electric field, y component, Tangential electric field, z component, Electric potential
% Length unit:        mm
% x
1
% y
14.200000000000001
% z
1.66
% es.normE (V/m) @ t=0
0.10452920449432875
% es.EX (V/m) @ t=0
0.09916074279695142
% es.EY (V/m) @ t=0
-0.007133714019069259
% es.EZ (V/m) @ t=0
-0.03228949991046903
% es.tEX (V/m) @ t=0
0.0991607427969603
% es.tEY (V/m) @ t=0
0
% es.tEZ (V/m) @ t=0
-0.032289499910477915
% es.Ex (V/m) @ t=0
0.09916074279695142
% es.Ey (V/m) @ t=0
-0.007133714019069259
% es.Ez (V/m) @ t=0
-0.03228949991046903
% es.tEx (V/m) @ t=0
0.0991607427969603
% es.tEy (V/m) @ t=0
0
% es.tEz (V/m) @ t=0
-0.032289499910477915
% V (V) @ t=0
0.022185622303006632
% es.normE (V/m) @ t=0.02
0.09572685876565026
% es.EX (V/m) @ t=0.02
0.09081047222235394
% es.EY (V/m) @ t=0.02
-0.006532987959047887
% es.EZ (V/m) @ t=0.02
-0.02957041920938508
% es.tEX (V/m) @ t=0.02
0.09081047222236283
% es.tEY (V/m) @ t=0.02
0
% es.tEZ (V/m) @ t=0.02
-0.029570419209377974
% es.Ex (V/m) @ t=0.02
0.09081047222235394
% es.Ey (V/m) @ t=0.02
-0.006532987959047887
% es.Ez (V/m) @ t=0.02
-0.02957041920938508
% es.tEx (V/m) @ t=0.02
0.09081047222236283
% es.tEy (V/m) @ t=0.02
0
% es.tEz (V/m) @ t=0.02
-0.029570419209377974
% V (V) @ t=0.02
0.02031738348133835
% es.normE (V/m) @ t=0.04
0.09660545551148643
% es.EX (V/m) @ t=0.04
0.09164394557001643
% es.EY (V/m) @ t=0.04
-0.006592948790085984
% es.EZ (V/m) @ t=0.04
-0.029841821345101494
% es.tEX (V/m) @ t=0.04
0.0916439455700262
% es.tEY (V/m) @ t=0.04
0
% es.tEZ (V/m) @ t=0.04
-0.0298418213451086
% es.Ex (V/m) @ t=0.04
0.09164394557001643
% es.Ey (V/m) @ t=0.04
-0.006592948790085984
% es.Ez (V/m) @ t=0.04
-0.029841821345101494
% es.tEx (V/m) @ t=0.04
0.0916439455700262
% es.tEy (V/m) @ t=0.04
0
% es.tEz (V/m) @ t=0.04
-0.0298418213451086
% V (V) @ t=0.04
0.020503859745637412
% es.normE (V/m) @ t=0.06
0.09749347821043045
% es.EX (V/m) @ t=0.06
0.09248636076874561
% es.EY (V/m) @ t=0.06
-0.006653552906456639
% es.EZ (V/m) @ t=0.06
-0.03011613519431222
% es.tEX (V/m) @ t=0.06
0.09248636076874828
% es.tEY (V/m) @ t=0.06
0
% es.tEZ (V/m) @ t=0.06
-0.03011613519431222
% es.Ex (V/m) @ t=0.06
0.09248636076874561
% es.Ey (V/m) @ t=0.06
-0.006653552906456639
% es.Ez (V/m) @ t=0.06
-0.03011613519431222
% es.tEx (V/m) @ t=0.06
0.09248636076874828
% es.tEy (V/m) @ t=0.06
0
% es.tEz (V/m) @ t=0.06
-0.03011613519431222
% V (V) @ t=0.06
0.020692336605273275
% es.normE (V/m) @ t=0.08
0.09839176598301415
% es.EX (V/m) @ t=0.08
0.09333851384195668
% es.EY (V/m) @ t=0.08
-0.006714857574145583
% es.EZ (V/m) @ t=0.08
-0.03039361996850687
% es.tEX (V/m) @ t=0.08
0.09333851384195668
% es.tEY (V/m) @ t=0.08
0
% es.tEZ (V/m) @ t=0.08
-0.03039361996849621
% es.Ex (V/m) @ t=0.08
0.09333851384195668
% es.Ey (V/m) @ t=0.08
-0.006714857574145583
% es.Ez (V/m) @ t=0.08
-0.03039361996850687
% es.tEx (V/m) @ t=0.08
0.09333851384195668
% es.tEy (V/m) @ t=0.08
0
% es.tEz (V/m) @ t=0.08
-0.03039361996849621
% V (V) @ t=0.08
0.020882992157859152
% es.normE (V/m) @ t=0.1
0.0993042735342377
% es.EX (V/m) @ t=0.1
0.09420415638679991
% es.EY (V/m) @ t=0.1
-0.006777132686252685
% es.EZ (V/m) @ t=0.1
-0.030675497292904197
% es.tEX (V/m) @ t=0.1
0.09420415638680524
% es.tEY (V/m) @ t=0.1
0
% es.tEZ (V/m) @ t=0.1
-0.030675497292921072
% es.Ex (V/m) @ t=0.1
0.09420415638679991
% es.Ey (V/m) @ t=0.1
-0.006777132686252685
% es.Ez (V/m) @ t=0.1
-0.030675497292904197
% es.tEx (V/m) @ t=0.1
0.09420415638680524
% es.tEy (V/m) @ t=0.1
0
% es.tEz (V/m) @ t=0.1
-0.030675497292921072
% V (V) @ t=0.1
0.02107666576297774
% es.normE (V/m) @ t=0.12
0.1002167810854676
% es.EX (V/m) @ t=0.12
0.09506979893164136
% es.EY (V/m) @ t=0.12
-0.006839407798381103
% es.EZ (V/m) @ t=0.12
-0.03095737461732284
% es.tEX (V/m) @ t=0.12
0.0950697989316378
% es.tEY (V/m) @ t=0.12
0
% es.tEZ (V/m) @ t=0.12
-0.030957374617331723
% es.Ex (V/m) @ t=0.12
0.09506979893164136
% es.Ey (V/m) @ t=0.12
-0.006839407798381103
% es.Ez (V/m) @ t=0.12
-0.03095737461732284
% es.tEx (V/m) @ t=0.12
0.0950697989316378
% es.tEy (V/m) @ t=0.12
0
% es.tEz (V/m) @ t=0.12
-0.030957374617331723
% V (V) @ t=0.12
0.02127033936809633
% es.normE (V/m) @ t=0.14
0.10112928863669664
% es.EX (V/m) @ t=0.14
0.0959354414764837
% es.EY (V/m) @ t=0.14
-0.006901682910516627
% es.EZ (V/m) @ t=0.14
-0.03123925194173438
% es.tEX (V/m) @ t=0.14
0.09593544147648725
% es.tEY (V/m) @ t=0.14
0
% es.tEZ (V/m) @ t=0.14
-0.031239251941737045
% es.Ex (V/m) @ t=0.14
0.0959354414764837
% es.Ey (V/m) @ t=0.14
-0.006901682910516627
% es.Ez (V/m) @ t=0.14
-0.03123925194173438
% es.tEx (V/m) @ t=0.14
0.09593544147648725
% es.tEy (V/m) @ t=0.14
0
% es.tEz (V/m) @ t=0.14
-0.031239251941737045
% V (V) @ t=0.14
0.021464012973214923
% es.normE (V/m) @ t=0.16
0.10208568104332987
% es.EX (V/m) @ t=0.16
0.09684271501644037
% es.EY (V/m) @ t=0.16
-0.006966952993387565
% es.EZ (V/m) @ t=0.16
-0.031534685479847724
% es.tEX (V/m) @ t=0.16
0.09684271501644748
% es.tEY (V/m) @ t=0.16
0
% es.tEZ (V/m) @ t=0.16
-0.03153468547984062
% es.Ex (V/m) @ t=0.16
0.09684271501644037
% es.Ey (V/m) @ t=0.16
-0.006966952993387565
% es.Ez (V/m) @ t=0.16
-0.031534685479847724
% es.tEx (V/m) @ t=0.16
0.09684271501644748
% es.tEy (V/m) @ t=0.16
0
% es.tEz (V/m) @ t=0.16
-0.03153468547984062
% V (V) @ t=0.16
0.021667000844519745
% es.normE (V/m) @ t=0.18
0.103050202051257
% es.EX (V/m) @ t=0.18
0.09775769968494341
% es.EY (V/m) @ t=0.18
-0.007032777821670777
% es.EZ (V/m) @ t=0.18
-0.03183262997655589
% es.tEX (V/m) @ t=0.18
0.09775769968495318
% es.tEY (V/m) @ t=0.18
0
% es.tEZ (V/m) @ t=0.18
-0.031832629976560334
% es.Ex (V/m) @ t=0.18
0.09775769968494341
% es.Ey (V/m) @ t=0.18
-0.007032777821670777
% es.Ez (V/m) @ t=0.18
-0.03183262997655589
% es.tEx (V/m) @ t=0.18
0.09775769968495318
% es.tEy (V/m) @ t=0.18
0
% es.tEz (V/m) @ t=0.18
-0.031832629976560334
% V (V) @ t=0.18
0.02187171395692349
% es.normE (V/m) @ t=0.2
0.10401472305917608
% es.EX (V/m) @ t=0.2
0.09867268435342691
% es.EY (V/m) @ t=0.2
-0.007098602650010832
% es.EZ (V/m) @ t=0.2
-0.03213057447328538
% es.tEX (V/m) @ t=0.2
0.09867268435343846
% es.tEY (V/m) @ t=0.2
0
% es.tEZ (V/m) @ t=0.2
-0.032130574473291595
% es.Ex (V/m) @ t=0.2
0.09867268435342691
% es.Ey (V/m) @ t=0.2
-0.007098602650010832
% es.Ez (V/m) @ t=0.2
-0.03213057447328538
% es.tEx (V/m) @ t=0.2
0.09867268435343846
% es.tEy (V/m) @ t=0.2
0
% es.tEz (V/m) @ t=0.2
-0.032130574473291595
% V (V) @ t=0.2
0.02207642706932724
% es.normE (V/m) @ t=0.22
0.1049792440670957
% es.EX (V/m) @ t=0.22
0.0995876690219184
% es.EY (V/m) @ t=0.22
-0.007164427478279833
% es.EZ (V/m) @ t=0.22
-0.03242851897000776
% es.tEX (V/m) @ t=0.22
0.09958766902192195
% es.tEY (V/m) @ t=0.22
0
% es.tEZ (V/m) @ t=0.22
-0.03242851897001664
% es.Ex (V/m) @ t=0.22
0.0995876690219184
% es.Ey (V/m) @ t=0.22
-0.007164427478279833
% es.Ez (V/m) @ t=0.22
-0.03242851897000776
% es.tEx (V/m) @ t=0.22
0.09958766902192195
% es.tEy (V/m) @ t=0.22
0
% es.tEz (V/m) @ t=0.22
-0.03242851897001664
% V (V) @ t=0.22
0.02228114018173099
% es.normE (V/m) @ t=0.24
0.1059437650750191
% es.EX (V/m) @ t=0.24
0.100502653690409
% es.EY (V/m) @ t=0.24
-0.007230252306584362
% es.EZ (V/m) @ t=0.24
-0.03272646346673724
% es.tEX (V/m) @ t=0.24
0.10050265369041345
% es.tEY (V/m) @ t=0.24
0
% es.tEZ (V/m) @ t=0.24
-0.03272646346673014
% es.Ex (V/m) @ t=0.24
0.100502653690409
% es.Ey (V/m) @ t=0.24
-0.007230252306584362
% es.Ez (V/m) @ t=0.24
-0.03272646346673724
% es.tEx (V/m) @ t=0.24
0.10050265369041345
% es.tEy (V/m) @ t=0.24
0
% es.tEz (V/m) @ t=0.24
-0.03272646346673014
% V (V) @ t=0.24
0.022485853294134734
% es.normE (V/m) @ t=0.26
0.10690828608292587
% es.EX (V/m) @ t=0.26
0.1014176383588854
% es.EY (V/m) @ t=0.26
-0.007296077134874679
% es.EZ (V/m) @ t=0.26
-0.03302440796345962
% es.tEX (V/m) @ t=0.26
0.10141763835889162
% es.tEY (V/m) @ t=0.26
0
% es.tEZ (V/m) @ t=0.26
-0.033024407963454294
% es.Ex (V/m) @ t=0.26
0.1014176383588854
% es.Ey (V/m) @ t=0.26
-0.007296077134874679
% es.Ez (V/m) @ t=0.26
-0.03302440796345962
% es.tEx (V/m) @ t=0.26
0.10141763835889162
% es.tEy (V/m) @ t=0.26
0
% es.tEz (V/m) @ t=0.26
-0.033024407963454294
% V (V) @ t=0.26
0.02269056640653849
% es.normE (V/m) @ t=0.28
0.10787280709085235
% es.EX (V/m) @ t=0.28
0.10233262302738311
% es.EY (V/m) @ t=0.28
-0.007361901963157891
% es.EZ (V/m) @ t=0.28
-0.033322352460182
% es.tEX (V/m) @ t=0.28
0.10233262302738932
% es.tEY (V/m) @ t=0.28
0
% es.tEZ (V/m) @ t=0.28
-0.03332235246017934
% es.Ex (V/m) @ t=0.28
0.10233262302738311
% es.Ey (V/m) @ t=0.28
-0.007361901963157891
% es.Ez (V/m) @ t=0.28
-0.033322352460182
% es.tEx (V/m) @ t=0.28
0.10233262302738932
% es.tEy (V/m) @ t=0.28
0
% es.tEz (V/m) @ t=0.28
-0.03332235246017934
% V (V) @ t=0.28
0.022895279518942234
% es.normE (V/m) @ t=0.3
0.10887572272777164
% es.EX (V/m) @ t=0.3
0.10328403043531509
% es.EY (V/m) @ t=0.3
-0.007430347077040267
% es.EZ (V/m) @ t=0.3
-0.033632157213688174
% es.tEX (V/m) @ t=0.3
0.10328403043532308
% es.tEY (V/m) @ t=0.3
0
% es.tEZ (V/m) @ t=0.3
-0.03363215721368906
% es.Ex (V/m) @ t=0.3
0.10328403043531509
% es.Ey (V/m) @ t=0.3
-0.007430347077040267
% es.Ez (V/m) @ t=0.3
-0.033632157213688174
% es.tEx (V/m) @ t=0.3
0.10328403043532308
% es.tEy (V/m) @ t=0.3
0
% es.tEz (V/m) @ t=0.3
-0.03363215721368906
% V (V) @ t=0.3
0.023108141633705278
% es.normE (V/m) @ t=0.32
0.10989567283952292
% es.EX (V/m) @ t=0.32
0.10425159745343926
% es.EY (V/m) @ t=0.32
-0.007499954728274361
% es.EZ (V/m) @ t=0.32
-0.03394722398564198
% es.tEX (V/m) @ t=0.32
0.10425159745344104
% es.tEY (V/m) @ t=0.32
0
% es.tEZ (V/m) @ t=0.32
-0.03394722398563754
% es.Ex (V/m) @ t=0.32
0.10425159745343926
% es.Ey (V/m) @ t=0.32
-0.007499954728274361
% es.Ez (V/m) @ t=0.32
-0.03394722398564198
% es.tEx (V/m) @ t=0.32
0.10425159745344104
% es.tEy (V/m) @ t=0.32
0
% es.tEz (V/m) @ t=0.32
-0.03394722398563754
% V (V) @ t=0.32
0.023324619201443464
% es.normE (V/m) @ t=0.34
0.11091562295127468
% es.EX (V/m) @ t=0.34
0.10521916447156343
% es.EY (V/m) @ t=0.34
-0.00756956237951556
% es.EZ (V/m) @ t=0.34
-0.03426229075759579
% es.tEX (V/m) @ t=0.34
0.10521916447156521
% es.tEY (V/m) @ t=0.34
0
% es.tEZ (V/m) @ t=0.34
-0.03426229075759579
% es.Ex (V/m) @ t=0.34
0.10521916447156343
% es.Ey (V/m) @ t=0.34
-0.00756956237951556
% es.Ez (V/m) @ t=0.34
-0.03426229075759579
% es.tEx (V/m) @ t=0.34
0.10521916447156521
% es.tEy (V/m) @ t=0.34
0
% es.tEz (V/m) @ t=0.34
-0.03426229075759579
% V (V) @ t=0.34
0.02354109676918165
% es.normE (V/m) @ t=0.36
0.11193557306300975
% es.EX (V/m) @ t=0.36
0.10618673148967694
% es.EY (V/m) @ t=0.36
-0.00763917003069281
% es.EZ (V/m) @ t=0.36
-0.034577357529542496
% es.tEX (V/m) @ t=0.36
0.10618673148968316
% es.tEY (V/m) @ t=0.36
0
% es.tEZ (V/m) @ t=0.36
-0.03457735752954427
% es.Ex (V/m) @ t=0.36
0.10618673148967694
% es.Ey (V/m) @ t=0.36
-0.00763917003069281
% es.Ez (V/m) @ t=0.36
-0.034577357529542496
% es.tEx (V/m) @ t=0.36
0.10618673148968316
% es.tEy (V/m) @ t=0.36
0
% es.tEz (V/m) @ t=0.36
-0.03457735752954427
% V (V) @ t=0.36
0.02375757433691983
% es.normE (V/m) @ t=0.38
0.11295552317475688
% es.EX (V/m) @ t=0.38
0.10715429850780112
% es.EY (V/m) @ t=0.38
-0.007708777681898482
% es.EZ (V/m) @ t=0.38
-0.0348924243014892
% es.tEX (V/m) @ t=0.38
0.10715429850780733
% es.tEY (V/m) @ t=0.38
0
% es.tEZ (V/m) @ t=0.38
-0.03489242430148476
% es.Ex (V/m) @ t=0.38
0.10715429850780112
% es.Ey (V/m) @ t=0.38
-0.007708777681898482
% es.Ez (V/m) @ t=0.38
-0.0348924243014892
% es.tEx (V/m) @ t=0.38
0.10715429850780733
% es.tEy (V/m) @ t=0.38
0
% es.tEz (V/m) @ t=0.38
-0.03489242430148476
% V (V) @ t=0.38
0.023974051904658015
% es.normE (V/m) @ t=0.4
0.11397547328650859
% es.EX (V/m) @ t=0.4
0.10812186552593062
% es.EY (V/m) @ t=0.4
-0.007778385333097049
% es.EZ (V/m) @ t=0.4
-0.035207491073435904
% es.tEX (V/m) @ t=0.4
0.10812186552593239
% es.tEY (V/m) @ t=0.4
0
% es.tEZ (V/m) @ t=0.4
-0.035207491073439456
% es.Ex (V/m) @ t=0.4
0.10812186552593062
% es.Ey (V/m) @ t=0.4
-0.007778385333097049
% es.Ez (V/m) @ t=0.4
-0.035207491073435904
% es.tEx (V/m) @ t=0.4
0.10812186552593239
% es.tEy (V/m) @ t=0.4
0
% es.tEz (V/m) @ t=0.4
-0.035207491073439456
% V (V) @ t=0.4
0.024190529472396194
% es.normE (V/m) @ t=0.42
0.1149954233982825
% es.EX (V/m) @ t=0.42
0.1090894325440761
% es.EY (V/m) @ t=0.42
-0.00784799298436667
% es.EZ (V/m) @ t=0.42
-0.03552255784538971
% es.tEX (V/m) @ t=0.42
0.10908943254408499
% es.tEY (V/m) @ t=0.42
0
% es.tEZ (V/m) @ t=0.42
-0.0355225578453906
% es.Ex (V/m) @ t=0.42
0.1090894325440761
% es.Ey (V/m) @ t=0.42
-0.00784799298436667
% es.Ez (V/m) @ t=0.42
-0.03552255784538971
% es.tEx (V/m) @ t=0.42
0.10908943254408499
% es.tEy (V/m) @ t=0.42
0
% es.tEz (V/m) @ t=0.42
-0.0355225578453906
% V (V) @ t=0.42
0.024407007040134383
% es.normE (V/m) @ t=0.44
0.11608357374265411
% es.EX (V/m) @ t=0.44
0.11012169713292508
% es.EY (V/m) @ t=0.44
-0.007922255035573755
% es.EZ (V/m) @ t=0.44
-0.035858691953023936
% es.tEX (V/m) @ t=0.44
0.11012169713293218
% es.tEY (V/m) @ t=0.44
0
% es.tEZ (V/m) @ t=0.44
-0.03585869195303282
% es.Ex (V/m) @ t=0.44
0.11012169713292508
% es.Ey (V/m) @ t=0.44
-0.007922255035573755
% es.Ez (V/m) @ t=0.44
-0.035858691953023936
% es.tEx (V/m) @ t=0.44
0.11012169713293218
% es.tEy (V/m) @ t=0.44
0
% es.tEz (V/m) @ t=0.44
-0.03585869195303282
% V (V) @ t=0.44
0.024637959649841713
% es.normE (V/m) @ t=0.46
0.11722943847309093
% es.EX (V/m) @ t=0.46
0.11120871198331628
% es.EY (V/m) @ t=0.46
-0.00800045586876763
% es.EZ (V/m) @ t=0.46
-0.03621265427471343
% es.tEX (V/m) @ t=0.46
0.11120871198333315
% es.tEY (V/m) @ t=0.46
0
% es.tEZ (V/m) @ t=0.46
-0.036212654274720535
% es.Ex (V/m) @ t=0.46
0.11120871198331628
% es.Ey (V/m) @ t=0.46
-0.00800045586876763
% es.Ez (V/m) @ t=0.46
-0.03621265427471343
% es.tEx (V/m) @ t=0.46
0.11120871198333315
% es.tEy (V/m) @ t=0.46
0
% es.tEz (V/m) @ t=0.46
-0.036212654274720535
% V (V) @ t=0.46
0.02488116175091009
% es.normE (V/m) @ t=0.48
0.11837530320354242
% es.EX (V/m) @ t=0.48
0.11229572683372346
% es.EY (V/m) @ t=0.48
-0.008078656701954401
% es.EZ (V/m) @ t=0.48
-0.03656661659640292
% es.tEX (V/m) @ t=0.48
0.11229572683373323
% es.tEY (V/m) @ t=0.48
0
% es.tEZ (V/m) @ t=0.48
-0.03656661659640914
% es.Ex (V/m) @ t=0.48
0.11229572683372346
% es.Ey (V/m) @ t=0.48
-0.008078656701954401
% es.Ez (V/m) @ t=0.48
-0.03656661659640292
% es.tEx (V/m) @ t=0.48
0.11229572683373323
% es.tEy (V/m) @ t=0.48
0
% es.tEz (V/m) @ t=0.48
-0.03656661659640914
% V (V) @ t=0.48
0.025124363851978467
% es.normE (V/m) @ t=0.5
0.11952116793398854
% es.EX (V/m) @ t=0.5
0.1133827416841342
% es.EY (V/m) @ t=0.5
-0.008156857535077222
% es.EZ (V/m) @ t=0.5
-0.036920578918078206
% es.tEX (V/m) @ t=0.5
0.11338274168413598
% es.tEY (V/m) @ t=0.5
0
% es.tEZ (V/m) @ t=0.5
-0.036920578918083535
% es.Ex (V/m) @ t=0.5
0.1133827416841342
% es.Ey (V/m) @ t=0.5
-0.008156857535077222
% es.Ez (V/m) @ t=0.5
-0.036920578918078206
% es.tEx (V/m) @ t=0.5
0.11338274168413598
% es.tEy (V/m) @ t=0.5
0
% es.tEz (V/m) @ t=0.5
-0.036920578918083535
% V (V) @ t=0.5
0.025367565953046844
% es.normE (V/m) @ t=0.52
0.12066703266443493
% es.EX (V/m) @ t=0.52
0.11446975653454139
% es.EY (V/m) @ t=0.52
-0.00823505836822136
% es.EZ (V/m) @ t=0.52
-0.037274541239760595
% es.tEX (V/m) @ t=0.52
0.11446975653455738
% es.tEY (V/m) @ t=0.52
0
% es.tEZ (V/m) @ t=0.52
-0.037274541239769476
% es.Ex (V/m) @ t=0.52
0.11446975653454139
% es.Ey (V/m) @ t=0.52
-0.00823505836822136
% es.Ez (V/m) @ t=0.52
-0.037274541239760595
% es.tEx (V/m) @ t=0.52
0.11446975653455738
% es.tEy (V/m) @ t=0.52
0
% es.tEz (V/m) @ t=0.52
-0.037274541239769476
% V (V) @ t=0.52
0.025610768054115225
% es.normE (V/m) @ t=0.54
0.12181289739487629
% es.EX (V/m) @ t=0.54
0.1155567713849397
% es.EY (V/m) @ t=0.54
-0.008313259201415235
% es.EZ (V/m) @ t=0.54
-0.03762850356144298
% es.tEX (V/m) @ t=0.54
0.1155567713849468
% es.tEY (V/m) @ t=0.54
0
% es.tEZ (V/m) @ t=0.54
-0.03762850356145098
% es.Ex (V/m) @ t=0.54
0.1155567713849397
% es.Ey (V/m) @ t=0.54
-0.008313259201415235
% es.Ez (V/m) @ t=0.54
-0.03762850356144298
% es.tEx (V/m) @ t=0.54
0.1155567713849468
% es.tEy (V/m) @ t=0.54
0
% es.tEz (V/m) @ t=0.54
-0.03762850356145098
% V (V) @ t=0.54
0.0258539701551836
% es.normE (V/m) @ t=0.56
0.12295876212533594
% es.EX (V/m) @ t=0.56
0.11664378623535931
% es.EY (V/m) @ t=0.56
-0.008391460034580689
% es.EZ (V/m) @ t=0.56
-0.03798246588312537
% es.tEX (V/m) @ t=0.56
0.1166437862353682
% es.tEY (V/m) @ t=0.56
0
% es.tEZ (V/m) @ t=0.56
-0.03798246588312715
% es.Ex (V/m) @ t=0.56
0.11664378623535931
% es.Ey (V/m) @ t=0.56
-0.008391460034580689
% es.Ez (V/m) @ t=0.56
-0.03798246588312537
% es.tEx (V/m) @ t=0.56
0.1166437862353682
% es.tEy (V/m) @ t=0.56
0
% es.tEz (V/m) @ t=0.56
-0.03798246588312715
% V (V) @ t=0.56
0.02609717225625198
% es.normE (V/m) @ t=0.58
0.12410462685577495
% es.EX (V/m) @ t=0.58
0.11773080108575051
% es.EY (V/m) @ t=0.58
-0.008469660867774564
% es.EZ (V/m) @ t=0.58
-0.03833642820482197
% es.tEX (V/m) @ t=0.58
0.11773080108576206
% es.tEY (V/m) @ t=0.58
0
% es.tEZ (V/m) @ t=0.58
-0.03833642820482552
% es.Ex (V/m) @ t=0.58
0.11773080108575051
% es.Ey (V/m) @ t=0.58
-0.008469660867774564
% es.Ez (V/m) @ t=0.58
-0.03833642820482197
% es.tEx (V/m) @ t=0.58
0.11773080108576206
% es.tEy (V/m) @ t=0.58
0
% es.tEz (V/m) @ t=0.58
-0.03833642820482552
% V (V) @ t=0.58
0.02634037435732036
% es.normE (V/m) @ t=0.6
0.1252504915862199
% es.EX (V/m) @ t=0.6
0.1188178159361577
% es.EY (V/m) @ t=0.6
-0.008547861700897386
% es.EZ (V/m) @ t=0.6
-0.03869039052650436
% es.tEX (V/m) @ t=0.6
0.11881781593616392
% es.tEY (V/m) @ t=0.6
0
% es.tEZ (V/m) @ t=0.6
-0.038690390526510576
% es.Ex (V/m) @ t=0.6
0.1188178159361577
% es.Ey (V/m) @ t=0.6
-0.008547861700897386
% es.Ez (V/m) @ t=0.6
-0.03869039052650436
% es.tEx (V/m) @ t=0.6
0.11881781593616392
% es.tEy (V/m) @ t=0.6
0
% es.tEz (V/m) @ t=0.6
-0.038690390526510576
% V (V) @ t=0.6
0.026583576458388734
% es.normE (V/m) @ t=0.62
0.1263963563166499
% es.EX (V/m) @ t=0.62
0.1199048307865489
% es.EY (V/m) @ t=0.62
-0.008626062534055734
% es.EZ (V/m) @ t=0.62
-0.03904435284817964
% es.tEX (V/m) @ t=0.62
0.11990483078655778
% es.tEY (V/m) @ t=0.62
0
% es.tEZ (V/m) @ t=0.62
-0.03904435284819474
% es.Ex (V/m) @ t=0.62
0.1199048307865489
% es.Ey (V/m) @ t=0.62
-0.008626062534055734
% es.Ez (V/m) @ t=0.62
-0.03904435284817964
% es.tEx (V/m) @ t=0.62
0.11990483078655778
% es.tEy (V/m) @ t=0.62
0
% es.tEz (V/m) @ t=0.62
-0.03904435284819474
% V (V) @ t=0.62
0.026826778559457115
% es.normE (V/m) @ t=0.64
0.12754222104711146
% es.EX (V/m) @ t=0.64
0.12099184563696852
% es.EY (V/m) @ t=0.64
-0.00870426336724961
% es.EZ (V/m) @ t=0.64
-0.03939831516986203
% es.tEX (V/m) @ t=0.64
0.12099184563697474
% es.tEY (V/m) @ t=0.64
0
% es.tEZ (V/m) @ t=0.64
-0.03939831516987269
% es.Ex (V/m) @ t=0.64
0.12099184563696852
% es.Ey (V/m) @ t=0.64
-0.00870426336724961
% es.Ez (V/m) @ t=0.64
-0.03939831516986203
% es.tEx (V/m) @ t=0.64
0.12099184563697474
% es.tEy (V/m) @ t=0.64
0
% es.tEz (V/m) @ t=0.64
-0.03939831516987269
% V (V) @ t=0.64
0.027069980660525496
% es.normE (V/m) @ t=0.66
0.1286880857775608
% es.EX (V/m) @ t=0.66
0.1220788604873757
% es.EY (V/m) @ t=0.66
-0.00878246420037243
% es.EZ (V/m) @ t=0.66
-0.03975227749155863
% es.tEX (V/m) @ t=0.66
0.12207886048738281
% es.tEY (V/m) @ t=0.66
0
% es.tEZ (V/m) @ t=0.66
-0.03975227749155685
% es.Ex (V/m) @ t=0.66
0.1220788604873757
% es.Ey (V/m) @ t=0.66
-0.00878246420037243
% es.Ez (V/m) @ t=0.66
-0.03975227749155863
% es.tEx (V/m) @ t=0.66
0.12207886048738281
% es.tEy (V/m) @ t=0.66
0
% es.tEz (V/m) @ t=0.66
-0.03975227749155685
% V (V) @ t=0.66
0.027313182761593866
% es.normE (V/m) @ t=0.68
0.1298339505079886
% es.EX (V/m) @ t=0.68
0.1231658753377669
% es.EY (V/m) @ t=0.68
-0.008860665033530779
% es.EZ (V/m) @ t=0.68
-0.04010623981322681
% es.tEX (V/m) @ t=0.68
0.12316587533777579
% es.tEY (V/m) @ t=0.68
0
% es.tEZ (V/m) @ t=0.68
-0.04010623981323569
% es.Ex (V/m) @ t=0.68
0.1231658753377669
% es.Ey (V/m) @ t=0.68
-0.008860665033530779
% es.Ez (V/m) @ t=0.68
-0.04010623981322681
% es.tEx (V/m) @ t=0.68
0.12316587533777579
% es.tEy (V/m) @ t=0.68
0
% es.tEz (V/m) @ t=0.68
-0.04010623981323569
% V (V) @ t=0.68
0.027556384862662247
% es.normE (V/m) @ t=0.7
0.13097981523845434
% es.EX (V/m) @ t=0.7
0.12425289018818653
% es.EY (V/m) @ t=0.7
-0.008938865866689127
% es.EZ (V/m) @ t=0.7
-0.04046020213493051
% es.tEX (V/m) @ t=0.7
0.12425289018819363
% es.tEY (V/m) @ t=0.7
0
% es.tEZ (V/m) @ t=0.7
-0.04046020213492518
% es.Ex (V/m) @ t=0.7
0.12425289018818653
% es.Ey (V/m) @ t=0.7
-0.008938865866689127
% es.Ez (V/m) @ t=0.7
-0.04046020213493051
% es.tEx (V/m) @ t=0.7
0.12425289018819363
% es.tEy (V/m) @ t=0.7
0
% es.tEz (V/m) @ t=0.7
-0.04046020213492518
% V (V) @ t=0.7
0.027799586963730624
% es.normE (V/m) @ t=0.72
0.13215633839293078
% es.EX (V/m) @ t=0.72
0.12536898889312376
% es.EY (V/m) @ t=0.72
-0.009019159020063228
% es.EZ (V/m) @ t=0.72
-0.04082363496693375
% es.tEX (V/m) @ t=0.72
0.1253689888931362
% es.tEY (V/m) @ t=0.72
0
% es.tEZ (V/m) @ t=0.72
-0.04082363496694086
% es.Ex (V/m) @ t=0.72
0.12536898889312376
% es.Ey (V/m) @ t=0.72
-0.009019159020063228
% es.Ez (V/m) @ t=0.72
-0.04082363496693375
% es.tEx (V/m) @ t=0.72
0.1253689888931362
% es.tEy (V/m) @ t=0.72
0
% es.tEz (V/m) @ t=0.72
-0.04082363496694086
% V (V) @ t=0.72
0.028049296109481134
% es.normE (V/m) @ t=0.74
0.1334301831871414
% es.EX (V/m) @ t=0.74
0.1265774109480713
% es.EY (V/m) @ t=0.74
-0.009106094003065834
% es.EZ (V/m) @ t=0.74
-0.041217130844401595
% es.tEX (V/m) @ t=0.74
0.1265774109480713
% es.tEY (V/m) @ t=0.74
0
% es.tEZ (V/m) @ t=0.74
-0.041217130844406924
% es.Ex (V/m) @ t=0.74
0.1265774109480713
% es.Ey (V/m) @ t=0.74
-0.009106094003065834
% es.Ez (V/m) @ t=0.74
-0.041217130844401595
% es.tEx (V/m) @ t=0.74
0.1265774109480713
% es.tEy (V/m) @ t=0.74
0
% es.tEz (V/m) @ t=0.74
-0.041217130844406924
% V (V) @ t=0.74
0.02831966111990688
% es.normE (V/m) @ t=0.76
0.13470402798133393
% es.EX (V/m) @ t=0.76
0.12778583300300284
% es.EY (V/m) @ t=0.76
-0.009193028986025809
% es.EZ (V/m) @ t=0.76
-0.04161062672186944
% es.tEX (V/m) @ t=0.76
0.1277858330030064
% es.tEY (V/m) @ t=0.76
0
% es.tEZ (V/m) @ t=0.76
-0.04161062672187121
% es.Ex (V/m) @ t=0.76
0.12778583300300284
% es.Ey (V/m) @ t=0.76
-0.009193028986025809
% es.Ez (V/m) @ t=0.76
-0.04161062672186944
% es.tEx (V/m) @ t=0.76
0.1277858330030064
% es.tEy (V/m) @ t=0.76
0
% es.tEz (V/m) @ t=0.76
-0.04161062672187121
% V (V) @ t=0.76
0.028590026130332624
% es.normE (V/m) @ t=0.78
0.1359778727755245
% es.EX (V/m) @ t=0.78
0.12899425505793438
% es.EY (V/m) @ t=0.78
-0.00927996396902131
% es.EZ (V/m) @ t=0.78
-0.04200412259932307
% es.tEX (V/m) @ t=0.78
0.12899425505793882
% es.tEY (V/m) @ t=0.78
0
% es.tEZ (V/m) @ t=0.78
-0.04200412259933195
% es.Ex (V/m) @ t=0.78
0.12899425505793438
% es.Ey (V/m) @ t=0.78
-0.00927996396902131
% es.Ez (V/m) @ t=0.78
-0.04200412259932307
% es.tEx (V/m) @ t=0.78
0.12899425505793882
% es.tEy (V/m) @ t=0.78
0
% es.tEz (V/m) @ t=0.78
-0.04200412259933195
% V (V) @ t=0.78
0.028860391140758373
% es.normE (V/m) @ t=0.8
0.13725171756976004
% es.EX (V/m) @ t=0.8
0.13020267711289613
% es.EY (V/m) @ t=0.8
-0.00936689895209497
% es.EZ (V/m) @ t=0.8
-0.04239761847681223
% es.tEX (V/m) @ t=0.8
0.13020267711289524
% es.tEY (V/m) @ t=0.8
0
% es.tEZ (V/m) @ t=0.8
-0.04239761847681223
% es.Ex (V/m) @ t=0.8
0.13020267711289613
% es.Ey (V/m) @ t=0.8
-0.00936689895209497
% es.Ez (V/m) @ t=0.8
-0.04239761847681223
% es.tEx (V/m) @ t=0.8
0.13020267711289524
% es.tEy (V/m) @ t=0.8
0
% es.tEz (V/m) @ t=0.8
-0.04239761847681223
% V (V) @ t=0.8
0.029130756151184115
% es.normE (V/m) @ t=0.82
0.13852556236395253
% es.EX (V/m) @ t=0.82
0.13141109916782945
% es.EY (V/m) @ t=0.82
-0.00945383393506205
% es.EZ (V/m) @ t=0.82
-0.04279111435427296
% es.tEX (V/m) @ t=0.82
0.13141109916783655
% es.tEY (V/m) @ t=0.82
0
% es.tEZ (V/m) @ t=0.82
-0.04279111435427829
% es.Ex (V/m) @ t=0.82
0.13141109916782945
% es.Ey (V/m) @ t=0.82
-0.00945383393506205
% es.Ez (V/m) @ t=0.82
-0.04279111435427296
% es.tEx (V/m) @ t=0.82
0.13141109916783655
% es.tEy (V/m) @ t=0.82
0
% es.tEz (V/m) @ t=0.82
-0.04279111435427829
% V (V) @ t=0.82
0.029401121161609863
% es.normE (V/m) @ t=0.84
0.13979940715814723
% es.EX (V/m) @ t=0.84
0.132619521222761
% es.EY (V/m) @ t=0.84
-0.009540768918085973
% es.EZ (V/m) @ t=0.84
-0.0431846102317337
% es.tEX (V/m) @ t=0.84
0.13261952122276988
% es.tEY (V/m) @ t=0.84
0
% es.tEZ (V/m) @ t=0.84
-0.043184610231735476
% es.Ex (V/m) @ t=0.84
0.132619521222761
% es.Ey (V/m) @ t=0.84
-0.009540768918085973
% es.Ez (V/m) @ t=0.84
-0.0431846102317337
% es.tEx (V/m) @ t=0.84
0.13261952122276988
% es.tEy (V/m) @ t=0.84
0
% es.tEz (V/m) @ t=0.84
-0.043184610231735476
% V (V) @ t=0.84
0.029671486172035605
% es.normE (V/m) @ t=0.86
0.14107325195236092
% es.EX (V/m) @ t=0.86
0.13382794327771563
% es.EY (V/m) @ t=0.86
-0.009627703901067264
% es.EZ (V/m) @ t=0.86
-0.04357810610919444
% es.tEX (V/m) @ t=0.86
0.13382794327771919
% es.tEY (V/m) @ t=0.86
0
% es.tEZ (V/m) @ t=0.86
-0.04357810610920154
% es.Ex (V/m) @ t=0.86
0.13382794327771563
% es.Ey (V/m) @ t=0.86
-0.009627703901067264
% es.Ez (V/m) @ t=0.86
-0.04357810610919444
% es.tEx (V/m) @ t=0.86
0.13382794327771919
% es.tEy (V/m) @ t=0.86
0
% es.tEz (V/m) @ t=0.86
-0.04357810610920154
% V (V) @ t=0.86
0.02994185118246135
% es.normE (V/m) @ t=0.88
0.14234709674656043
% es.EX (V/m) @ t=0.88
0.13503636533265428
% es.EY (V/m) @ t=0.88
-0.009714638884062765
% es.EZ (V/m) @ t=0.88
-0.04397160198665517
% es.tEX (V/m) @ t=0.88
0.1350363653326676
% es.tEY (V/m) @ t=0.88
0
% es.tEZ (V/m) @ t=0.88
-0.0439716019866605
% es.Ex (V/m) @ t=0.88
0.13503636533265428
% es.Ey (V/m) @ t=0.88
-0.009714638884062765
% es.Ez (V/m) @ t=0.88
-0.04397160198665517
% es.tEx (V/m) @ t=0.88
0.1350363653326676
% es.tEy (V/m) @ t=0.88
0
% es.tEz (V/m) @ t=0.88
-0.0439716019866605
% V (V) @ t=0.88
0.030212216192887092
% es.normE (V/m) @ t=0.9
0.14362094154075994
% es.EX (V/m) @ t=0.9
0.13624478738759294
% es.EY (V/m) @ t=0.9
-0.009801573867058266
% es.EZ (V/m) @ t=0.9
-0.04436509786411591
% es.tEX (V/m) @ t=0.9
0.13624478738760182
% es.tEY (V/m) @ t=0.9
0
% es.tEZ (V/m) @ t=0.9
-0.04436509786411946
% es.Ex (V/m) @ t=0.9
0.13624478738759294
% es.Ey (V/m) @ t=0.9
-0.009801573867058266
% es.Ez (V/m) @ t=0.9
-0.04436509786411591
% es.tEx (V/m) @ t=0.9
0.13624478738760182
% es.tEy (V/m) @ t=0.9
0
% es.tEz (V/m) @ t=0.9
-0.04436509786411946
% V (V) @ t=0.9
0.030482581203312847
% es.normE (V/m) @ t=0.92
0.1448947863349751
% es.EX (V/m) @ t=0.92
0.13745320944254757
% es.EY (V/m) @ t=0.92
-0.009888508850060873
% es.EZ (V/m) @ t=0.92
-0.04475859374157665
% es.tEX (V/m) @ t=0.92
0.13745320944255823
% es.tEY (V/m) @ t=0.92
0
% es.tEZ (V/m) @ t=0.92
-0.044758593741581976
% es.Ex (V/m) @ t=0.92
0.13745320944254757
% es.Ey (V/m) @ t=0.92
-0.009888508850060873
% es.Ez (V/m) @ t=0.92
-0.04475859374157665
% es.tEx (V/m) @ t=0.92
0.13745320944255823
% es.tEy (V/m) @ t=0.92
0
% es.tEz (V/m) @ t=0.92
-0.044758593741581976
% V (V) @ t=0.92
0.03075294621373859
% es.normE (V/m) @ t=0.94
0.14616863112917466
% es.EX (V/m) @ t=0.94
0.13866163149747912
% es.EY (V/m) @ t=0.94
-0.009975443833091902
% es.EZ (V/m) @ t=0.94
-0.045152089619051594
% es.tEX (V/m) @ t=0.94
0.13866163149748534
% es.tEY (V/m) @ t=0.94
0
% es.tEZ (V/m) @ t=0.94
-0.04515208961904804
% es.Ex (V/m) @ t=0.94
0.13866163149747912
% es.Ey (V/m) @ t=0.94
-0.009975443833091902
% es.Ez (V/m) @ t=0.94
-0.045152089619051594
% es.tEx (V/m) @ t=0.94
0.13866163149748534
% es.tEy (V/m) @ t=0.94
0
% es.tEz (V/m) @ t=0.94
-0.04515208961904804
% V (V) @ t=0.94
0.031023311224164324
% es.normE (V/m) @ t=0.96
0.14744247592336457
% es.EX (V/m) @ t=0.96
0.13987005355240711
% es.EY (V/m) @ t=0.96
-0.010062378816094508
% es.EZ (V/m) @ t=0.96
-0.04554558549651233
% es.tEX (V/m) @ t=0.96
0.13987005355241156
% es.tEY (V/m) @ t=0.96
0
% es.tEZ (V/m) @ t=0.96
-0.045545585496519436
% es.Ex (V/m) @ t=0.96
0.13987005355240711
% es.Ey (V/m) @ t=0.96
-0.010062378816094508
% es.Ez (V/m) @ t=0.96
-0.04554558549651233
% es.tEx (V/m) @ t=0.96
0.13987005355241156
% es.tEy (V/m) @ t=0.96
0
% es.tEz (V/m) @ t=0.96
-0.045545585496519436
% V (V) @ t=0.96
0.031293676234590076
% es.normE (V/m) @ t=0.98
0.14876943444221832
% es.EX (V/m) @ t=0.98
0.1411288614912749
% es.EY (V/m) @ t=0.98
-0.010152938604996109
% es.EZ (V/m) @ t=0.98
-0.04595548842213759
% es.tEX (V/m) @ t=0.98
0.14112886149128734
% es.tEY (V/m) @ t=0.98
0
% es.tEZ (V/m) @ t=0.98
-0.045955488422135815
% es.Ex (V/m) @ t=0.98
0.1411288614912749
% es.Ey (V/m) @ t=0.98
-0.010152938604996109
% es.Ez (V/m) @ t=0.98
-0.04595548842213759
% es.tEx (V/m) @ t=0.98
0.14112886149128734
% es.tEy (V/m) @ t=0.98
0
% es.tEz (V/m) @ t=0.98
-0.045955488422135815
% V (V) @ t=0.98
0.03157531427674132
% es.normE (V/m) @ t=1
0.15018773482767736
% es.EX (V/m) @ t=1
0.1424743201163441
% es.EY (V/m) @ t=1
-0.01024973212236091
% es.EZ (V/m) @ t=1
-0.04639360722636354
% es.tEX (V/m) @ t=1
0.1424743201163512
% es.tEY (V/m) @ t=1
0
% es.tEZ (V/m) @ t=1
-0.046393607226361766
% es.Ex (V/m) @ t=1
0.1424743201163441
% es.Ey (V/m) @ t=1
-0.01024973212236091
% es.Ez (V/m) @ t=1
-0.04639360722636354
% es.tEx (V/m) @ t=1
0.1424743201163512
% es.tEy (V/m) @ t=1
0
% es.tEz (V/m) @ t=1
-0.046393607226361766
% V (V) @ t=1
0.031876339017281444
% es.normE (V/m) @ t=1.02
0.1516060352131358