% Model:              1 neuron.mph
% Version:            COMSOL 6.1.0.252
% Date:               Mar 26 2023, 15:01
% Dimension:          0
% Nodes:              14017
% Expressions:        14017
% Description:        Electric field norm, Electric field, X component, Electric field, Y component, Electric field, Z component, Tangential electric field, X component, Tangential electric field, Y component, Tangential electric field, Z component, Electric field, x component, Electric field, y component, Electric field, z component, Tangential electric field, x component, Tangential electric field, y component, Tangential electric field, z component, Electric potential
% Length unit:        mm
% x
2
% y
14.200000000000001
% z
2
% es.normE (V/m) @ t=0
0.10685043479299991
% es.EX (V/m) @ t=0
-0.07079736944324821
% es.EY (V/m) @ t=0
0.034697569250450755
% es.EZ (V/m) @ t=0
-0.07211675660676597
% es.tEX (V/m) @ t=0
-0.07079736944324866
% es.tEY (V/m) @ t=0
0
% es.tEZ (V/m) @ t=0
-0.07211675660676753
% es.Ex (V/m) @ t=0
-0.07079736944324821
% es.Ey (V/m) @ t=0
0.034697569250450755
% es.Ez (V/m) @ t=0
-0.07211675660676597
% es.tEx (V/m) @ t=0
-0.07079736944324866
% es.tEy (V/m) @ t=0
0
% es.tEz (V/m) @ t=0
-0.07211675660676753
% V (V) @ t=0
0.02220376842672618
% es.normE (V/m) @ t=0.02
0.09785269516897986
% es.EX (V/m) @ t=0.02
-0.06483561272252203
% es.EY (V/m) @ t=0.02
0.031775730945295066
% es.EZ (V/m) @ t=0.02
-0.06604389599062621
% es.tEX (V/m) @ t=0.02
-0.0648356127225187
% es.tEY (V/m) @ t=0.02
0
% es.tEZ (V/m) @ t=0.02
-0.06604389599062921
% es.Ex (V/m) @ t=0.02
-0.06483561272252203
% es.Ey (V/m) @ t=0.02
0.031775730945295066
% es.Ez (V/m) @ t=0.02
-0.06604389599062621
% es.tEx (V/m) @ t=0.02
-0.0648356127225187
% es.tEy (V/m) @ t=0.02
0
% es.tEz (V/m) @ t=0.02
-0.06604389599062921
% V (V) @ t=0.02
0.020334017250001828
% es.normE (V/m) @ t=0.04
0.09875088689230475
% es.EX (V/m) @ t=0.04
-0.06543073998023985
% es.EY (V/m) @ t=0.04
0.032067400977826566
% es.EZ (V/m) @ t=0.04
-0.06665011419481814
% es.tEX (V/m) @ t=0.04
-0.06543073998024185
% es.tEY (V/m) @ t=0.04
0
% es.tEZ (V/m) @ t=0.04
-0.06665011419482392
% es.Ex (V/m) @ t=0.04
-0.06543073998023985
% es.Ey (V/m) @ t=0.04
0.032067400977826566
% es.Ez (V/m) @ t=0.04
-0.06665011419481814
% es.tEx (V/m) @ t=0.04
-0.06543073998024185
% es.tEy (V/m) @ t=0.04
0
% es.tEz (V/m) @ t=0.04
-0.06665011419482392
% V (V) @ t=0.04
0.02052066359522215
% es.normE (V/m) @ t=0.06
0.0996587275599964
% es.EX (V/m) @ t=0.06
-0.06603226050380684
% es.EY (V/m) @ t=0.06
0.03236220431311132
% es.EZ (V/m) @ t=0.06
-0.06726284474828148
% es.tEX (V/m) @ t=0.06
-0.06603226050380506
% es.tEY (V/m) @ t=0.06
0
% es.tEZ (V/m) @ t=0.06
-0.0672628447482767
% es.Ex (V/m) @ t=0.06
-0.06603226050380684
% es.Ey (V/m) @ t=0.06
0.03236220431311132
% es.Ez (V/m) @ t=0.06
-0.06726284474828148
% es.tEx (V/m) @ t=0.06
-0.06603226050380506
% es.tEy (V/m) @ t=0.06
0
% es.tEz (V/m) @ t=0.06
-0.0672628447482767
% V (V) @ t=0.06
0.020709315000584514
% es.normE (V/m) @ t=0.08
0.10057703142858211
% es.EX (V/m) @ t=0.08
-0.06664071383182879
% es.EY (V/m) @ t=0.08
0.032660405362946676
% es.EZ (V/m) @ t=0.08
-0.06788263719463394
% es.tEX (V/m) @ t=0.08
-0.06664071383182657
% es.tEY (V/m) @ t=0.08
0
% es.tEZ (V/m) @ t=0.08
-0.06788263719463716
% es.Ex (V/m) @ t=0.08
-0.06664071383182879
% es.Ey (V/m) @ t=0.08
0.032660405362946676
% es.Ez (V/m) @ t=0.08
-0.06788263719463394
% es.tEx (V/m) @ t=0.08
-0.06664071383182657
% es.tEy (V/m) @ t=0.08
0
% es.tEz (V/m) @ t=0.08
-0.06788263719463716
% V (V) @ t=0.08
0.020900140659187154
% es.normE (V/m) @ t=0.1
0.10150991417197507
% es.EX (V/m) @ t=0.1
-0.06725882696560603
% es.EY (V/m) @ t=0.1
0.03296334060982531
% es.EZ (V/m) @ t=0.1
-0.06851226931180321
% es.tEX (V/m) @ t=0.1
-0.06725882696560315
% es.tEY (V/m) @ t=0.1
0
% es.tEZ (V/m) @ t=0.1
-0.06851226931180554
% es.Ex (V/m) @ t=0.1
-0.06725882696560603
% es.Ey (V/m) @ t=0.1
0.03296334060982531
% es.Ez (V/m) @ t=0.1
-0.06851226931180321
% es.tEx (V/m) @ t=0.1
-0.06725882696560315
% es.tEy (V/m) @ t=0.1
0
% es.tEz (V/m) @ t=0.1
-0.06851226931180554
% V (V) @ t=0.1
0.021093995808112817
% es.normE (V/m) @ t=0.12
0.10244279691540177
% es.EX (V/m) @ t=0.12
-0.06787694009939571
% es.EY (V/m) @ t=0.12
0.03326627585677144
% es.EZ (V/m) @ t=0.12
-0.0691419014289778
% es.tEX (V/m) @ t=0.12
-0.06787694009939749
% es.tEY (V/m) @ t=0.12
0
% es.tEZ (V/m) @ t=0.12
-0.06914190142897725
% es.Ex (V/m) @ t=0.12
-0.06787694009939571
% es.Ey (V/m) @ t=0.12
0.03326627585677144
% es.Ez (V/m) @ t=0.12
-0.0691419014289778
% es.tEx (V/m) @ t=0.12
-0.06787694009939749
% es.tEy (V/m) @ t=0.12
0
% es.tEz (V/m) @ t=0.12
-0.06914190142897725
% V (V) @ t=0.12
0.021287850957038473
% es.normE (V/m) @ t=0.14
0.1033756796588018
% es.EX (V/m) @ t=0.14
-0.06849505323316762
% es.EY (V/m) @ t=0.14
0.03356921110366429
% es.EZ (V/m) @ t=0.14
-0.06977153354615595
% es.tEX (V/m) @ t=0.14
-0.06849505323317029
% es.tEY (V/m) @ t=0.14
0
% es.tEZ (V/m) @ t=0.14
-0.06977153354615262
% es.Ex (V/m) @ t=0.14
-0.06849505323316762
% es.Ey (V/m) @ t=0.14
0.03356921110366429
% es.Ez (V/m) @ t=0.14
-0.06977153354615595
% es.tEx (V/m) @ t=0.14
-0.06849505323317029
% es.tEy (V/m) @ t=0.14
0
% es.tEz (V/m) @ t=0.14
-0.06977153354615262
% V (V) @ t=0.14
0.02148170610596413
% es.normE (V/m) @ t=0.16
0.10435329657102954
% es.EX (V/m) @ t=0.16
-0.06914280632034142
% es.EY (V/m) @ t=0.16
0.03388667289905456
% es.EZ (V/m) @ t=0.16
-0.07043135835138692
% es.tEX (V/m) @ t=0.16
-0.06914280632033964
% es.tEY (V/m) @ t=0.16
0
% es.tEZ (V/m) @ t=0.16
-0.0704313583513928
% es.Ex (V/m) @ t=0.16
-0.06914280632034142
% es.Ey (V/m) @ t=0.16
0.03388667289905456
% es.Ez (V/m) @ t=0.16
-0.07043135835138692
% es.tEx (V/m) @ t=0.16
-0.06914280632033964
% es.tEy (V/m) @ t=0.16
0
% es.tEz (V/m) @ t=0.16
-0.0704313583513928
% V (V) @ t=0.16
0.02168485719659901
% es.normE (V/m) @ t=0.18
0.10533937795641343
% es.EX (V/m) @ t=0.18
-0.06979616779582187
% es.EY (V/m) @ t=0.18
0.03420688336695932
% es.EZ (V/m) @ t=0.18
-0.07109689613183434
% es.tEX (V/m) @ t=0.18
-0.06979616779581566
% es.tEY (V/m) @ t=0.18
0
% es.tEZ (V/m) @ t=0.18
-0.07109689613183523
% es.Ex (V/m) @ t=0.18
-0.06979616779582187
% es.Ey (V/m) @ t=0.18
0.03420688336695932
% es.Ez (V/m) @ t=0.18
-0.07109689613183434
% es.tEx (V/m) @ t=0.18
-0.06979616779581566
% es.tEy (V/m) @ t=0.18
0
% es.tEz (V/m) @ t=0.18
-0.07109689613183523
% V (V) @ t=0.18
0.021889767239082567
% es.normE (V/m) @ t=0.2
0.10632545934178576
% es.EX (V/m) @ t=0.2
-0.07044952927129877
% es.EY (V/m) @ t=0.2
0.034527093834835654
% es.EZ (V/m) @ t=0.2
-0.07176243391228176
% es.tEX (V/m) @ t=0.2
-0.07044952927129877
% es.tEY (V/m) @ t=0.2
0
% es.tEZ (V/m) @ t=0.2
-0.07176243391228465
% es.Ex (V/m) @ t=0.2
-0.07044952927129877
% es.Ey (V/m) @ t=0.2
0.034527093834835654
% es.Ez (V/m) @ t=0.2
-0.07176243391228176
% es.tEx (V/m) @ t=0.2
-0.07044952927129877
% es.tEy (V/m) @ t=0.2
0
% es.tEz (V/m) @ t=0.2
-0.07176243391228465
% V (V) @ t=0.2
0.022094677281566125
% es.normE (V/m) @ t=0.22
0.1073115407271709
% es.EX (V/m) @ t=0.22
-0.07110289074677567
% es.EY (V/m) @ t=0.22
0.03484730430274041
% es.EZ (V/m) @ t=0.22
-0.07242797169273452
% es.tEX (V/m) @ t=0.22
-0.07110289074677478
% es.tEY (V/m) @ t=0.22
0
% es.tEZ (V/m) @ t=0.22
-0.07242797169273785
% es.Ex (V/m) @ t=0.22
-0.07110289074677567
% es.Ey (V/m) @ t=0.22
0.03484730430274041
% es.Ez (V/m) @ t=0.22
-0.07242797169273452
% es.tEx (V/m) @ t=0.22
-0.07110289074677478
% es.tEy (V/m) @ t=0.22
0
% es.tEz (V/m) @ t=0.22
-0.07242797169273785
% V (V) @ t=0.22
0.022299587324049675
% es.normE (V/m) @ t=0.24
0.10829762211256563
% es.EX (V/m) @ t=0.24
-0.071756252222265
% es.EY (V/m) @ t=0.24
0.03516751477063451
% es.EZ (V/m) @ t=0.24
-0.07309350947319437
% es.tEX (V/m) @ t=0.24
-0.07175625222226145
% es.tEY (V/m) @ t=0.24
0
% es.tEZ (V/m) @ t=0.24
-0.0730935094731946
% es.Ex (V/m) @ t=0.24
-0.071756252222265
% es.Ey (V/m) @ t=0.24
0.03516751477063451
% es.Ez (V/m) @ t=0.24
-0.07309350947319437
% es.tEx (V/m) @ t=0.24
-0.07175625222226145
% es.tEy (V/m) @ t=0.24
0
% es.tEz (V/m) @ t=0.24
-0.0730935094731946
% V (V) @ t=0.24
0.022504497366533233
% es.normE (V/m) @ t=0.26
0.10928370349794143
% es.EX (V/m) @ t=0.26
-0.07240961369774013
% es.EY (V/m) @ t=0.26
0.035487725238521506
% es.EZ (V/m) @ t=0.26
-0.07375904725364357
% es.tEX (V/m) @ t=0.26
-0.07240961369774102
% es.tEY (V/m) @ t=0.26
0
% es.tEZ (V/m) @ t=0.26
-0.07375904725363691
% es.Ex (V/m) @ t=0.26
-0.07240961369774013
% es.Ey (V/m) @ t=0.26
0.035487725238521506
% es.Ez (V/m) @ t=0.26
-0.07375904725364357
% es.tEx (V/m) @ t=0.26
-0.07240961369774102
% es.tEy (V/m) @ t=0.26
0
% es.tEz (V/m) @ t=0.26
-0.07375904725363691
% V (V) @ t=0.26
0.02270940740901679
% es.normE (V/m) @ t=0.28
0.1102697848833157
% es.EX (V/m) @ t=0.28
-0.07306297517321703
% es.EY (V/m) @ t=0.28
0.03580793570643337
% es.EZ (V/m) @ t=0.28
-0.07442458503407678
% es.tEX (V/m) @ t=0.28
-0.07306297517321347
% es.tEY (V/m) @ t=0.28
0
% es.tEZ (V/m) @ t=0.28
-0.0744245850340759
% es.Ex (V/m) @ t=0.28
-0.07306297517321703
% es.Ey (V/m) @ t=0.28
0.03580793570643337
% es.Ez (V/m) @ t=0.28
-0.07442458503407678
% es.tEx (V/m) @ t=0.28
-0.07306297517321347
% es.tEy (V/m) @ t=0.28
0
% es.tEz (V/m) @ t=0.28
-0.0744245850340759
% V (V) @ t=0.28
0.02291431745150034
% es.normE (V/m) @ t=0.3
0.11129481595977399
% es.EX (V/m) @ t=0.3
-0.07374214414590874
% es.EY (V/m) @ t=0.3
0.03614079431417139
% es.EZ (V/m) @ t=0.3
-0.07511641114047407
% es.tEX (V/m) @ t=0.3
-0.07374214414590874
% es.tEY (V/m) @ t=0.3
0
% es.tEZ (V/m) @ t=0.3
-0.07511641114047474
% es.Ex (V/m) @ t=0.3
-0.07374214414590874
% es.Ey (V/m) @ t=0.3
0.03614079431417139
% es.Ez (V/m) @ t=0.3
-0.07511641114047407
% es.tEx (V/m) @ t=0.3
-0.07374214414590874
% es.tEy (V/m) @ t=0.3
0
% es.tEz (V/m) @ t=0.3
-0.07511641114047474
% V (V) @ t=0.3
0.02312732130399787
% es.normE (V/m) @ t=0.32
0.11233759116800737
% es.EX (V/m) @ t=0.32
-0.07443307012149347
% es.EY (V/m) @ t=0.32
0.03647941497693097
% es.EZ (V/m) @ t=0.32
-0.07582021329869804
% es.tEX (V/m) @ t=0.32
-0.0744330701214917
% es.tEY (V/m) @ t=0.32
0
% es.tEZ (V/m) @ t=0.32
-0.0758202132986956
% es.Ex (V/m) @ t=0.32
-0.07443307012149347
% es.Ey (V/m) @ t=0.32
0.03647941497693097
% es.Ez (V/m) @ t=0.32
-0.07582021329869804
% es.tEx (V/m) @ t=0.32
-0.0744330701214917
% es.tEy (V/m) @ t=0.32
0
% es.tEz (V/m) @ t=0.32
-0.0758202132986956
% V (V) @ t=0.32
0.023344012416324323
% es.normE (V/m) @ t=0.34
0.11338036637624203
% es.EX (V/m) @ t=0.34
-0.0751239960970782
% es.EY (V/m) @ t=0.34
0.036818035639683444
% es.EZ (V/m) @ t=0.34
-0.07652401545692733
% es.tEX (V/m) @ t=0.34
-0.07512399609707465
% es.tEY (V/m) @ t=0.34
0
% es.tEZ (V/m) @ t=0.34
-0.07652401545692378
% es.Ex (V/m) @ t=0.34
-0.0751239960970782
% es.Ey (V/m) @ t=0.34
0.036818035639683444
% es.Ez (V/m) @ t=0.34
-0.07652401545692733
% es.tEx (V/m) @ t=0.34
-0.07512399609707465
% es.tEy (V/m) @ t=0.34
0
% es.tEz (V/m) @ t=0.34
-0.07652401545692378
% V (V) @ t=0.34
0.023560703528650778
% es.normE (V/m) @ t=0.36
0.11442314158445088
% es.EX (V/m) @ t=0.36
-0.07581492207266471
% es.EY (V/m) @ t=0.36
0.037156656302389734
% es.EZ (V/m) @ t=0.36
-0.07722781761513886
% es.tEX (V/m) @ t=0.36
-0.07581492207266516
% es.tEY (V/m) @ t=0.36
0
% es.tEZ (V/m) @ t=0.36
-0.07722781761513775
% es.Ex (V/m) @ t=0.36
-0.07581492207266471
% es.Ey (V/m) @ t=0.36
0.037156656302389734
% es.Ez (V/m) @ t=0.36
-0.07722781761513886
% es.tEx (V/m) @ t=0.36
-0.07581492207266516
% es.tEy (V/m) @ t=0.36
0
% es.tEz (V/m) @ t=0.36
-0.07722781761513775
% V (V) @ t=0.36
0.02377739464097723
% es.normE (V/m) @ t=0.38
0.11546591679268893
% es.EX (V/m) @ t=0.38
-0.076505848048253
% es.EY (V/m) @ t=0.38
0.03749527696515642
% es.EZ (V/m) @ t=0.38
-0.07793161977336283
% es.tEX (V/m) @ t=0.38
-0.07650584804824812
% es.tEY (V/m) @ t=0.38
0
% es.tEZ (V/m) @ t=0.38
-0.07793161977336593
% es.Ex (V/m) @ t=0.38
-0.076505848048253
% es.Ey (V/m) @ t=0.38
0.03749527696515642
% es.Ez (V/m) @ t=0.38
-0.07793161977336283
% es.tEx (V/m) @ t=0.38
-0.07650584804824812
% es.tEy (V/m) @ t=0.38
0
% es.tEz (V/m) @ t=0.38
-0.07793161977336593
% V (V) @ t=0.38
0.023994085753303675
% es.normE (V/m) @ t=0.4
0.11650869200089073
% es.EX (V/m) @ t=0.4
-0.07719677402382885
% es.EY (V/m) @ t=0.4
0.03783389762786271
% es.EZ (V/m) @ t=0.4
-0.07863542193157436
% es.tEX (V/m) @ t=0.4
-0.07719677402382441
% es.tEY (V/m) @ t=0.4
0
% es.tEZ (V/m) @ t=0.4
-0.0786354219315728
% es.Ex (V/m) @ t=0.4
-0.07719677402382885
% es.Ey (V/m) @ t=0.4
0.03783389762786271
% es.Ez (V/m) @ t=0.4
-0.07863542193157436
% es.tEx (V/m) @ t=0.4
-0.07719677402382441
% es.tEy (V/m) @ t=0.4
0
% es.tEz (V/m) @ t=0.4
-0.0786354219315728
% V (V) @ t=0.4
0.024210776865630126
% es.normE (V/m) @ t=0.42
0.11755146720912293
% es.EX (V/m) @ t=0.42
-0.07788769999941536
% es.EY (V/m) @ t=0.42
0.03817251829061874
% es.EZ (V/m) @ t=0.42
-0.07933922408979655
% es.tEX (V/m) @ t=0.42
-0.07788769999941492
% es.tEY (V/m) @ t=0.42
0
% es.tEZ (V/m) @ t=0.42
-0.07933922408979388
% es.Ex (V/m) @ t=0.42
-0.07788769999941536
% es.Ey (V/m) @ t=0.42
0.03817251829061874
% es.Ez (V/m) @ t=0.42
-0.07933922408979655
% es.tEx (V/m) @ t=0.42
-0.07788769999941492
% es.tEy (V/m) @ t=0.42
0
% es.tEz (V/m) @ t=0.42
-0.07933922408979388
% V (V) @ t=0.42
0.024427467977956578
% es.normE (V/m) @ t=0.44
0.11866290857542114
% es.EX (V/m) @ t=0.44
-0.07862412340579894
% es.EY (V/m) @ t=0.44
0.03853343691391231
% es.EZ (V/m) @ t=0.44
-0.08008937089183554
% es.tEX (V/m) @ t=0.44
-0.0786241234057945
% es.tEY (V/m) @ t=0.44
0
% es.tEZ (V/m) @ t=0.44
-0.08008937089183421
% es.Ex (V/m) @ t=0.44
-0.07862412340579894
% es.Ey (V/m) @ t=0.44
0.03853343691391231
% es.Ez (V/m) @ t=0.44
-0.08008937089183554
% es.tEx (V/m) @ t=0.44
-0.0786241234057945
% es.tEy (V/m) @ t=0.44
0
% es.tEz (V/m) @ t=0.44
-0.08008937089183421
% V (V) @ t=0.44
0.024658427931995568
% es.normE (V/m) @ t=0.46
0.11983447777810236
% es.EX (V/m) @ t=0.46
-0.07940038684621875
% es.EY (V/m) @ t=0.46
0.038913880848713944
% es.EZ (V/m) @ t=0.46
-0.08088009959386433
% es.tEX (V/m) @ t=0.46
-0.07940038684621697
% es.tEY (V/m) @ t=0.46
0
% es.tEZ (V/m) @ t=0.46
-0.08088009959386278
% es.Ex (V/m) @ t=0.46
-0.07940038684621875
% es.Ey (V/m) @ t=0.46
0.038913880848713944
% es.Ez (V/m) @ t=0.46
-0.08088009959386433
% es.tEx (V/m) @ t=0.46
-0.07940038684621697
% es.tEy (V/m) @ t=0.46
0
% es.tEz (V/m) @ t=0.46
-0.08088009959386278
% V (V) @ t=0.46
0.024901882462749776
% es.normE (V/m) @ t=0.48
0.12100604698077434
% es.EX (V/m) @ t=0.48
-0.0801766502866279
% es.EY (V/m) @ t=0.48
0.039294324783497814
% es.EZ (V/m) @ t=0.48
-0.08167082829589845
% es.tEX (V/m) @ t=0.48
-0.08017665028662835
% es.tEY (V/m) @ t=0.48
0
% es.tEZ (V/m) @ t=0.48
-0.08167082829589845
% es.Ex (V/m) @ t=0.48
-0.0801766502866279
% es.Ey (V/m) @ t=0.48
0.039294324783497814
% es.Ez (V/m) @ t=0.48
-0.08167082829589845
% es.tEx (V/m) @ t=0.48
-0.08017665028662835
% es.tEy (V/m) @ t=0.48
0
% es.tEz (V/m) @ t=0.48
-0.08167082829589845
% V (V) @ t=0.48
0.025145336993504
% es.normE (V/m) @ t=0.5
0.12217761618347546
% es.EX (V/m) @ t=0.5
-0.08095291372705837
% es.EY (V/m) @ t=0.5
0.03967476871832787
% es.EZ (V/m) @ t=0.5
-0.08246155699793256
% es.tEX (V/m) @ t=0.5
-0.08095291372705793
% es.tEY (V/m) @ t=0.5
0
% es.tEZ (V/m) @ t=0.5
-0.0824615569979339
% es.Ex (V/m) @ t=0.5
-0.08095291372705837
% es.Ey (V/m) @ t=0.5
0.03967476871832787
% es.Ez (V/m) @ t=0.5
-0.08246155699793256
% es.tEx (V/m) @ t=0.5
-0.08095291372705793
% es.tEy (V/m) @ t=0.5
0
% es.tEz (V/m) @ t=0.5
-0.0824615569979339
% V (V) @ t=0.5
0.02538879152425821
% es.normE (V/m) @ t=0.52
0.12334918538615217
% es.EX (V/m) @ t=0.52
-0.08172917716747463
% es.EY (V/m) @ t=0.52
0.04005521265311174
% es.EZ (V/m) @ t=0.52
-0.08325228569996668
% es.tEX (V/m) @ t=0.52
-0.08172917716747286
% es.tEY (V/m) @ t=0.52
0
% es.tEZ (V/m) @ t=0.52
-0.08325228569996956
% es.Ex (V/m) @ t=0.52
-0.08172917716747463
% es.Ey (V/m) @ t=0.52
0.04005521265311174
% es.Ez (V/m) @ t=0.52
-0.08325228569996668
% es.tEx (V/m) @ t=0.52
-0.08172917716747286
% es.tEy (V/m) @ t=0.52
0
% es.tEz (V/m) @ t=0.52
-0.08325228569996956
% V (V) @ t=0.52
0.025632246055012423
% es.normE (V/m) @ t=0.54
0.12452075458884646
% es.EX (V/m) @ t=0.54
-0.08250544060789444
% es.EY (V/m) @ t=0.54
0.04043565658792403
% es.EZ (V/m) @ t=0.54
-0.08404301440200967
% es.tEX (V/m) @ t=0.54
-0.08250544060789178
% es.tEY (V/m) @ t=0.54
0
% es.tEZ (V/m) @ t=0.54
-0.08404301440200546
% es.Ex (V/m) @ t=0.54
-0.08250544060789444
% es.Ey (V/m) @ t=0.54
0.04043565658792403
% es.Ez (V/m) @ t=0.54
-0.08404301440200967
% es.tEx (V/m) @ t=0.54
-0.08250544060789178
% es.tEy (V/m) @ t=0.54
0
% es.tEz (V/m) @ t=0.54
-0.08404301440200546
% V (V) @ t=0.54
0.025875700585766635
% es.normE (V/m) @ t=0.56
0.12569232379151132
% es.EX (V/m) @ t=0.56
-0.0832817040483107
% es.EY (V/m) @ t=0.56
0.04081610052269724
% es.EZ (V/m) @ t=0.56
-0.08483374310403136
% es.tEX (V/m) @ t=0.56
-0.0832817040483107
% es.tEY (V/m) @ t=0.56
0
% es.tEZ (V/m) @ t=0.56
-0.0848337431040338
% es.Ex (V/m) @ t=0.56
-0.0832817040483107
% es.Ey (V/m) @ t=0.56
0.04081610052269724
% es.Ez (V/m) @ t=0.56
-0.08483374310403136
% es.tEx (V/m) @ t=0.56
-0.0832817040483107
% es.tEy (V/m) @ t=0.56
0
% es.tEz (V/m) @ t=0.56
-0.0848337431040338
% V (V) @ t=0.56
0.026119155116520854
% es.normE (V/m) @ t=0.58
0.12686389299420556
% es.EX (V/m) @ t=0.58
-0.08405796748873229
% es.EY (V/m) @ t=0.58
0.041196544457513085
% es.EZ (V/m) @ t=0.58
-0.0856244718060708
% es.tEX (V/m) @ t=0.58
-0.08405796748872563
% es.tEY (V/m) @ t=0.58
0
% es.tEZ (V/m) @ t=0.58
-0.08562447180606947
% es.Ex (V/m) @ t=0.58
-0.08405796748873229
% es.Ey (V/m) @ t=0.58
0.041196544457513085
% es.Ez (V/m) @ t=0.58
-0.0856244718060708
% es.tEx (V/m) @ t=0.58
-0.08405796748872563
% es.tEy (V/m) @ t=0.58
0
% es.tEz (V/m) @ t=0.58
-0.08562447180606947
% V (V) @ t=0.58
0.026362609647275066
% es.normE (V/m) @ t=0.6
0.12803546219687864
% es.EX (V/m) @ t=0.6
-0.08483423092914322
% es.EY (V/m) @ t=0.6
0.04157698839230761
% es.EZ (V/m) @ t=0.6
-0.08641520050809959
% es.tEX (V/m) @ t=0.6
-0.084834230929141
% es.tEY (V/m) @ t=0.6
0
% es.tEZ (V/m) @ t=0.6
-0.08641520050809803
% es.Ex (V/m) @ t=0.6
-0.08483423092914322
% es.Ey (V/m) @ t=0.6
0.04157698839230761
% es.Ez (V/m) @ t=0.6
-0.08641520050809959
% es.tEx (V/m) @ t=0.6
-0.084834230929141
% es.tEy (V/m) @ t=0.6
0
% es.tEz (V/m) @ t=0.6
-0.08641520050809803
% V (V) @ t=0.6
0.02660606417802928
% es.normE (V/m) @ t=0.62
0.1292070313995541
% es.EX (V/m) @ t=0.62
-0.08561049436956303
% es.EY (V/m) @ t=0.62
0.04195743232709148
% es.EZ (V/m) @ t=0.62
-0.08720592921012837
% es.tEX (V/m) @ t=0.62
-0.08561049436956303
% es.tEY (V/m) @ t=0.62
0
% es.tEZ (V/m) @ t=0.62
-0.08720592921013348
% es.Ex (V/m) @ t=0.62
-0.08561049436956303
% es.Ey (V/m) @ t=0.62
0.04195743232709148
% es.Ez (V/m) @ t=0.62
-0.08720592921012837
% es.tEx (V/m) @ t=0.62
-0.08561049436956303
% es.tEy (V/m) @ t=0.62
0
% es.tEz (V/m) @ t=0.62
-0.08720592921013348
% V (V) @ t=0.62
0.0268495187087835
% es.normE (V/m) @ t=0.64
0.13037860060224246
% es.EX (V/m) @ t=0.64
-0.08638675780998284
% es.EY (V/m) @ t=0.64
0.04233787626190377
% es.EZ (V/m) @ t=0.64
-0.08799665791216249
% es.tEX (V/m) @ t=0.64
-0.0863867578099855
% es.tEY (V/m) @ t=0.64
0
% es.tEZ (V/m) @ t=0.64
-0.08799665791216205
% es.Ex (V/m) @ t=0.64
-0.08638675780998284
% es.Ey (V/m) @ t=0.64
0.04233787626190377
% es.Ez (V/m) @ t=0.64
-0.08799665791216249
% es.tEx (V/m) @ t=0.64
-0.0863867578099855
% es.tEy (V/m) @ t=0.64
0
% es.tEz (V/m) @ t=0.64
-0.08799665791216205
% V (V) @ t=0.64
0.027092973239537712
% es.normE (V/m) @ t=0.66
0.13155016980492154
% es.EX (V/m) @ t=0.66
-0.08716302125040087
% es.EY (V/m) @ t=0.66
0.042718320196691195
% es.EZ (V/m) @ t=0.66
-0.0887873866141966
% es.tEX (V/m) @ t=0.66
-0.08716302125039688
% es.tEY (V/m) @ t=0.66
0
% es.tEZ (V/m) @ t=0.66
-0.08878738661420482
% es.Ex (V/m) @ t=0.66
-0.08716302125040087
% es.Ey (V/m) @ t=0.66
0.042718320196691195
% es.Ez (V/m) @ t=0.66
-0.0887873866141966
% es.tEx (V/m) @ t=0.66
-0.08716302125039688
% es.tEy (V/m) @ t=0.66
0
% es.tEz (V/m) @ t=0.66
-0.08878738661420482
% V (V) @ t=0.66
0.027336427770291927
% es.normE (V/m) @ t=0.68
0.1327217390076135
% es.EX (V/m) @ t=0.68
-0.08793928469081713
% es.EY (V/m) @ t=0.68
0.043098764131503486
% es.EZ (V/m) @ t=0.68
-0.0895781153162396
% es.tEX (V/m) @ t=0.68
-0.08793928469081935
% es.tEY (V/m) @ t=0.68
0
% es.tEZ (V/m) @ t=0.68
-0.08957811531624049
% es.Ex (V/m) @ t=0.68
-0.08793928469081713
% es.Ey (V/m) @ t=0.68
0.043098764131503486
% es.Ez (V/m) @ t=0.68
-0.0895781153162396
% es.tEx (V/m) @ t=0.68
-0.08793928469081935
% es.tEy (V/m) @ t=0.68
0
% es.tEz (V/m) @ t=0.68
-0.08957811531624049
% V (V) @ t=0.68
0.02757988230104614
% es.normE (V/m) @ t=0.7
0.1338933082102936
% es.EX (V/m) @ t=0.7
-0.08871554813123694
% es.EY (V/m) @ t=0.7
0.04347920806630512
% es.EZ (V/m) @ t=0.7
-0.09036884401826661
% es.tEX (V/m) @ t=0.7
-0.08871554813123828
% es.tEY (V/m) @ t=0.7
0
% es.tEZ (V/m) @ t=0.7
-0.09036884401825485
% es.Ex (V/m) @ t=0.7
-0.08871554813123694
% es.Ey (V/m) @ t=0.7
0.04347920806630512
% es.Ez (V/m) @ t=0.7
-0.09036884401826661
% es.tEx (V/m) @ t=0.7
-0.08871554813123828
% es.tEy (V/m) @ t=0.7
0
% es.tEz (V/m) @ t=0.7
-0.09036884401825485
% V (V) @ t=0.7
0.02782333683180035
% es.normE (V/m) @ t=0.72
0.13509438634683482
% es.EX (V/m) @ t=0.72
-0.08951136350867728
% es.EY (V/m) @ t=0.72
0.04386923445592217
% es.EZ (V/m) @ t=0.72
-0.09117948943428367
% es.tEX (V/m) @ t=0.72
-0.08951136350867284
% es.tEY (V/m) @ t=0.72
0
% es.tEZ (V/m) @ t=0.72
-0.09117948943428233
% es.Ex (V/m) @ t=0.72
-0.08951136350867728
% es.Ey (V/m) @ t=0.72
0.04386923445592217
% es.Ez (V/m) @ t=0.72
-0.09117948943428367
% es.tEx (V/m) @ t=0.72
-0.08951136350867284
% es.tEy (V/m) @ t=0.72
0
% es.tEz (V/m) @ t=0.72
-0.09117948943428233
% V (V) @ t=0.72
0.028072923473903333
% es.normE (V/m) @ t=0.74
0.13639687065652717
% es.EX (V/m) @ t=0.74
-0.09037436827083667
% es.EY (V/m) @ t=0.74
0.04429219053658073
% es.EZ (V/m) @ t=0.74
-0.09205857777530468
% es.tEX (V/m) @ t=0.74
-0.09037436827083356
% es.tEY (V/m) @ t=0.74
0
% es.tEZ (V/m) @ t=0.74
-0.09205857777530335
% es.Ex (V/m) @ t=0.74
-0.09037436827083667
% es.Ey (V/m) @ t=0.74
0.04429219053658073
% es.Ez (V/m) @ t=0.74
-0.09205857777530468
% es.tEx (V/m) @ t=0.74
-0.09037436827083356
% es.tEy (V/m) @ t=0.74
0
% es.tEz (V/m) @ t=0.74
-0.09205857777530335
% V (V) @ t=0.74
0.02834358285105853
% es.normE (V/m) @ t=0.76
0.13769935496620042
% es.EX (V/m) @ t=0.76
-0.09123737303298363
% es.EY (V/m) @ t=0.76
0.04471514661724285
% es.EZ (V/m) @ t=0.76
-0.09293766611630794
% es.tEX (V/m) @ t=0.76
-0.09123737303298363
% es.tEY (V/m) @ t=0.76
0
% es.tEZ (V/m) @ t=0.76
-0.0929376661163106
% es.Ex (V/m) @ t=0.76
-0.09123737303298363
% es.Ey (V/m) @ t=0.76
0.04471514661724285
% es.Ez (V/m) @ t=0.76
-0.09293766611630794
% es.tEx (V/m) @ t=0.76
-0.09123737303298363
% es.tEy (V/m) @ t=0.76
0
% es.tEz (V/m) @ t=0.76
-0.0929376661163106
% V (V) @ t=0.76
0.028614242228213717
% es.normE (V/m) @ t=0.78
0.1390018392759043
% es.EX (V/m) @ t=0.78
-0.09210037779514657
% es.EY (V/m) @ t=0.78
0.04513810269793339
% es.EZ (V/m) @ t=0.78
-0.09381675445732718
% es.tEX (V/m) @ t=0.78
-0.0921003777951479
% es.tEY (V/m) @ t=0.78
0
% es.tEZ (V/m) @ t=0.78
-0.09381675445732474
% es.Ex (V/m) @ t=0.78
-0.09210037779514657
% es.Ey (V/m) @ t=0.78
0.04513810269793339
% es.Ez (V/m) @ t=0.78
-0.09381675445732718
% es.tEx (V/m) @ t=0.78
-0.0921003777951479
% es.tEy (V/m) @ t=0.78
0
% es.tEz (V/m) @ t=0.78
-0.09381675445732474
% V (V) @ t=0.78
0.028884901605368905
% es.normE (V/m) @ t=0.8
0.14030432358560116
% es.EX (V/m) @ t=0.8
-0.09296338255730774
% es.EY (V/m) @ t=0.8
0.04556105877860972
% es.EZ (V/m) @ t=0.8
-0.09469584279834464
% es.tEX (V/m) @ t=0.8
-0.09296338255730907
% es.tEY (V/m) @ t=0.8
0
% es.tEZ (V/m) @ t=0.8
-0.09469584279834597
% es.Ex (V/m) @ t=0.8
-0.09296338255730774
% es.Ey (V/m) @ t=0.8
0.04556105877860972
% es.Ez (V/m) @ t=0.8
-0.09469584279834464
% es.tEx (V/m) @ t=0.8
-0.09296338255730907
% es.tEy (V/m) @ t=0.8
0
% es.tEz (V/m) @ t=0.8
-0.09469584279834597
% V (V) @ t=0.8
0.029155560982524094
% es.normE (V/m) @ t=0.82
0.1416068078952651
% es.EX (V/m) @ t=0.82
-0.09382638731946003
% es.EY (V/m) @ t=0.82
0.045984014859243416
% es.EZ (V/m) @ t=0.82
-0.09557493113934257
% es.tEX (V/m) @ t=0.82
-0.09382638731945514
% es.tEY (V/m) @ t=0.82
0
% es.tEZ (V/m) @ t=0.82
-0.09557493113933879
% es.Ex (V/m) @ t=0.82
-0.09382638731946003
% es.Ey (V/m) @ t=0.82
0.045984014859243416
% es.Ez (V/m) @ t=0.82
-0.09557493113934257
% es.tEx (V/m) @ t=0.82
-0.09382638731945514
% es.tEy (V/m) @ t=0.82
0
% es.tEz (V/m) @ t=0.82
-0.09557493113933879
% V (V) @ t=0.82
0.029426220359679282
% es.normE (V/m) @ t=0.84
0.14290929220496776
% es.EX (V/m) @ t=0.84
-0.09468939208162297
% es.EY (V/m) @ t=0.84
0.04640697093993751
% es.EZ (V/m) @ t=0.84
-0.09645401948035826
% es.tEX (V/m) @ t=0.84
-0.09468939208162253
% es.tEY (V/m) @ t=0.84
0
% es.tEZ (V/m) @ t=0.84
-0.09645401948035981
% es.Ex (V/m) @ t=0.84
-0.09468939208162297
% es.Ey (V/m) @ t=0.84
0.04640697093993751
% es.Ez (V/m) @ t=0.84
-0.09645401948035826
% es.tEx (V/m) @ t=0.84
-0.09468939208162253
% es.tEy (V/m) @ t=0.84
0
% es.tEz (V/m) @ t=0.84
-0.09645401948035981
% V (V) @ t=0.84
0.029696879736834474
% es.normE (V/m) @ t=0.86
0.14421177651464362
% es.EX (V/m) @ t=0.86
-0.09555239684377703
% es.EY (V/m) @ t=0.86
0.04682992702057476
% es.EZ (V/m) @ t=0.86
-0.09733310782137039
% es.tEX (V/m) @ t=0.86
-0.09555239684378014
% es.tEY (V/m) @ t=0.86
0
% es.tEZ (V/m) @ t=0.86
-0.09733310782136684
% es.Ex (V/m) @ t=0.86
-0.09555239684377703
% es.Ey (V/m) @ t=0.86
0.04682992702057476
% es.Ez (V/m) @ t=0.86
-0.09733310782137039
% es.tEx (V/m) @ t=0.86
-0.09555239684378014
% es.tEy (V/m) @ t=0.86
0
% es.tEz (V/m) @ t=0.86
-0.09733310782136684
% V (V) @ t=0.86
0.02996753911398967
% es.normE (V/m) @ t=0.88
0.14551426082433694
% es.EX (V/m) @ t=0.88
-0.09641540160593998
% es.EY (V/m) @ t=0.88
0.047252883101247534
% es.EZ (V/m) @ t=0.88
-0.09821219616238253
% es.tEX (V/m) @ t=0.88
-0.09641540160594086
% es.tEY (V/m) @ t=0.88
0
% es.tEZ (V/m) @ t=0.88
-0.09821219616238097
% es.Ex (V/m) @ t=0.88
-0.09641540160593998
% es.Ey (V/m) @ t=0.88
0.047252883101247534
% es.Ez (V/m) @ t=0.88
-0.09821219616238253
% es.tEx (V/m) @ t=0.88
-0.09641540160594086
% es.tEy (V/m) @ t=0.88
0
% es.tEz (V/m) @ t=0.88
-0.09821219616238097
% V (V) @ t=0.88
0.03023819849114486
% es.normE (V/m) @ t=0.9
0.14681674513401025
% es.EX (V/m) @ t=0.9
-0.09727840636809404
% es.EY (V/m) @ t=0.9
0.047675839181898994
% es.EZ (V/m) @ t=0.9
-0.099091284503384
% es.tEX (V/m) @ t=0.9
-0.09727840636809404
% es.tEY (V/m) @ t=0.9
0
% es.tEZ (V/m) @ t=0.9
-0.099091284503388
% es.Ex (V/m) @ t=0.9
-0.09727840636809404
% es.Ey (V/m) @ t=0.9
0.047675839181898994
% es.Ez (V/m) @ t=0.9
-0.099091284503384
% es.tEx (V/m) @ t=0.9
-0.09727840636809404
% es.tEy (V/m) @ t=0.9
0
% es.tEz (V/m) @ t=0.9
-0.099091284503388
% V (V) @ t=0.9
0.030508857868300047
% es.normE (V/m) @ t=0.92
0.1481192294436989
% es.EX (V/m) @ t=0.92
-0.09814141113024633
% es.EY (V/m) @ t=0.92
0.04809879526257177
% es.EZ (V/m) @ t=0.92
-0.09997037284439969
% es.tEX (V/m) @ t=0.92
-0.0981414111302481
% es.tEY (V/m) @ t=0.92
0
% es.tEZ (V/m) @ t=0.92
-0.09997037284440213
% es.Ex (V/m) @ t=0.92
-0.09814141113024633
% es.Ey (V/m) @ t=0.92
0.04809879526257177
% es.Ez (V/m) @ t=0.92
-0.09997037284439969
% es.tEx (V/m) @ t=0.92
-0.0981414111302481
% es.tEy (V/m) @ t=0.92
0
% es.tEz (V/m) @ t=0.92
-0.09997037284440213
% V (V) @ t=0.92
0.030779517245455235
% es.normE (V/m) @ t=0.94
0.14942171375337693
% es.EX (V/m) @ t=0.94
-0.0990044158924075
% es.EY (V/m) @ t=0.94
0.04852175134322323
% es.EZ (V/m) @ t=0.94
-0.10084946118540117
% es.tEX (V/m) @ t=0.94
-0.09900441589240527
% es.tEY (V/m) @ t=0.94
0
% es.tEZ (V/m) @ t=0.94
-0.10084946118540206
% es.Ex (V/m) @ t=0.94
-0.0990044158924075
% es.Ey (V/m) @ t=0.94
0.04852175134322323
% es.Ez (V/m) @ t=0.94
-0.10084946118540117
% es.tEx (V/m) @ t=0.94
-0.09900441589240527
% es.tEy (V/m) @ t=0.94
0
% es.tEz (V/m) @ t=0.94
-0.10084946118540206
% V (V) @ t=0.94
0.031050176622610424
% es.normE (V/m) @ t=0.96
0.1507241980630667
% es.EX (V/m) @ t=0.96
-0.09986742065456333
% es.EY (V/m) @ t=0.96
0.04894470742389956
% es.EZ (V/m) @ t=0.96
-0.1017285495264133
% es.tEX (V/m) @ t=0.96
-0.099867420654562
% es.tEY (V/m) @ t=0.96
0
% es.tEZ (V/m) @ t=0.96
-0.10172854952640886
% es.Ex (V/m) @ t=0.96
-0.09986742065456333
% es.Ey (V/m) @ t=0.96
0.04894470742389956
% es.Ez (V/m) @ t=0.96
-0.1017285495264133
% es.tEx (V/m) @ t=0.96
-0.099867420654562
% es.tEy (V/m) @ t=0.96
0
% es.tEz (V/m) @ t=0.96
-0.10172854952640886
% V (V) @ t=0.96
0.031320835999765616
% es.normE (V/m) @ t=0.98
0.1520781729826929
% es.EX (V/m) @ t=0.98
-0.10076454243382571
% es.EY (V/m) @ t=0.98
0.04938438405415724
% es.EZ (V/m) @ t=0.98
-0.10264239035333844
% es.tEX (V/m) @ t=0.98
-0.10076454243382216
% es.tEY (V/m) @ t=0.98
0
% es.tEZ (V/m) @ t=0.98
-0.10264239035333844
% es.Ex (V/m) @ t=0.98
-0.10076454243382571
% es.Ey (V/m) @ t=0.98
0.04938438405415724
% es.Ez (V/m) @ t=0.98
-0.10264239035333844
% es.tEx (V/m) @ t=0.98
-0.10076454243382216
% es.tEy (V/m) @ t=0.98
0
% es.tEz (V/m) @ t=0.98
-0.10264239035333844
% V (V) @ t=0.98
0.03160219517263432
% es.normE (V/m) @ t=1
0.15352843315180276
% es.EX (V/m) @ t=1
-0.1017254615832961
% es.EY (V/m) @ t=1
0.04985532740061416
% es.EZ (V/m) @ t=1
-0.10362121685007608
% es.tEX (V/m) @ t=1
-0.10172546158328899
% es.tEY (V/m) @ t=1
0
% es.tEZ (V/m) @ t=1
-0.10362121685007497
% es.Ex (V/m) @ t=1
-0.1017254615832961
% es.Ey (V/m) @ t=1
0.04985532740061416
% es.Ez (V/m) @ t=1
-0.10362121685007608
% es.tEx (V/m) @ t=1
-0.10172546158328899
% es.tEy (V/m) @ t=1
0
% es.tEz (V/m) @ t=1
-0.10362121685007497
% V (V) @ t=1
0.03190356250818893
% es.normE (V/m) @ t=1.02
0.154978693320935
% es.EX (V/m) @ t=1.02