% Model:              1 neuron.mph
% Version:            COMSOL 6.1.0.252
% Date:               Mar 26 2023, 14:59
% Dimension:          0
% Nodes:              14017
% Expressions:        14017
% Description:        Electric field norm, Electric field, X component, Electric field, Y component, Electric field, Z component, Tangential electric field, X component, Tangential electric field, Y component, Tangential electric field, Z component, Electric field, x component, Electric field, y component, Electric field, z component, Tangential electric field, x component, Tangential electric field, y component, Tangential electric field, z component, Electric potential
% Length unit:        mm
% x
2
% y
14.200000000000001
% z
1
% es.normE (V/m) @ t=0
0.12615848643876507
% es.EX (V/m) @ t=0
-0.09345838054571942
% es.EY (V/m) @ t=0
-0.030347069270135307
% es.EZ (V/m) @ t=0
0.07912363864866917
% es.tEX (V/m) @ t=0
-0.09345838054572919
% es.tEY (V/m) @ t=0
0
% es.tEZ (V/m) @ t=0
0.07912363864867444
% es.Ex (V/m) @ t=0
-0.09345838054571942
% es.Ey (V/m) @ t=0
-0.030347069270135307
% es.Ez (V/m) @ t=0
0.07912363864866917
% es.tEx (V/m) @ t=0
-0.09345838054572919
% es.tEy (V/m) @ t=0
0
% es.tEz (V/m) @ t=0
0.07912363864867444
% V (V) @ t=0
0.022207377210292346
% es.normE (V/m) @ t=0.02
0.11553477488804745
% es.EX (V/m) @ t=0.02
-0.08558832038657727
% es.EY (V/m) @ t=0.02
-0.027791565321169998
% es.EZ (V/m) @ t=0.02
0.07246069637283056
% es.tEX (V/m) @ t=0.02
-0.0855883203865826
% es.tEY (V/m) @ t=0.02
0
% es.tEZ (V/m) @ t=0.02
0.0724606963728327
% es.Ex (V/m) @ t=0.02
-0.08558832038657727
% es.Ey (V/m) @ t=0.02
-0.027791565321169998
% es.Ez (V/m) @ t=0.02
0.07246069637283056
% es.tEx (V/m) @ t=0.02
-0.0855883203865826
% es.tEy (V/m) @ t=0.02
0
% es.tEz (V/m) @ t=0.02
0.0724606963728327
% V (V) @ t=0.02
0.02033731062651091
% es.normE (V/m) @ t=0.04
0.11659520218798299
% es.EX (V/m) @ t=0.04
-0.08637388639116494
% es.EY (V/m) @ t=0.04
-0.028046648127343587
% es.EZ (V/m) @ t=0.04
0.07312577146098179
% es.tEX (V/m) @ t=0.04
-0.08637388639116694
% es.tEY (V/m) @ t=0.04
0
% es.tEZ (V/m) @ t=0.04
0.07312577146099453
% es.Ex (V/m) @ t=0.04
-0.08637388639116494
% es.Ey (V/m) @ t=0.04
-0.028046648127343587
% es.Ez (V/m) @ t=0.04
0.07312577146098179
% es.tEx (V/m) @ t=0.04
-0.08637388639116694
% es.tEy (V/m) @ t=0.04
0
% es.tEz (V/m) @ t=0.04
0.07312577146099453
% V (V) @ t=0.04
0.02052397511286694
% es.normE (V/m) @ t=0.06
0.11766696265755111
% es.EX (V/m) @ t=0.06
-0.08716784802348698
% es.EY (V/m) @ t=0.06
-0.028304457095739366
% es.EZ (V/m) @ t=0.06
0.07379795444674095
% es.tEX (V/m) @ t=0.06
-0.08716784802348354
% es.tEY (V/m) @ t=0.06
0
% es.tEZ (V/m) @ t=0.06
0.07379795444674153
% es.Ex (V/m) @ t=0.06
-0.08716784802348698
% es.Ey (V/m) @ t=0.06
-0.028304457095739366
% es.Ez (V/m) @ t=0.06
0.07379795444674095
% es.tEx (V/m) @ t=0.06
-0.08716784802348354
% es.tEy (V/m) @ t=0.06
0
% es.tEz (V/m) @ t=0.06
0.07379795444674153
% V (V) @ t=0.06
0.02071263455018338
% es.normE (V/m) @ t=0.08
0.11875122025892529
% es.EX (V/m) @ t=0.08
-0.08797106754820305
% es.EY (V/m) @ t=0.08
-0.028565272213821657
% es.EZ (V/m) @ t=0.08
0.07447797534012018
% es.tEX (V/m) @ t=0.08
-0.08797106754821082
% es.tEY (V/m) @ t=0.08
0
% es.tEZ (V/m) @ t=0.08
0.07447797534011746
% es.Ex (V/m) @ t=0.08
-0.08797106754820305
% es.Ey (V/m) @ t=0.08
-0.028565272213821657
% es.Ez (V/m) @ t=0.08
0.07447797534012018
% es.tEx (V/m) @ t=0.08
-0.08797106754821082
% es.tEy (V/m) @ t=0.08
0
% es.tEz (V/m) @ t=0.08
0.07447797534011746
% V (V) @ t=0.08
0.02090349382751543
% es.normE (V/m) @ t=0.1
0.11985249619883068
% es.EX (V/m) @ t=0.1
-0.08878689428148334
% es.EY (V/m) @ t=0.1
-0.028830181045055525
% es.EZ (V/m) @ t=0.1
0.07516866973579314
% es.tEX (V/m) @ t=0.1
-0.08878689428147812
% es.tEY (V/m) @ t=0.1
0
% es.tEZ (V/m) @ t=0.1
0.07516866973578984
% es.Ex (V/m) @ t=0.1
-0.08878689428148334
% es.Ey (V/m) @ t=0.1
-0.028830181045055525
% es.Ez (V/m) @ t=0.1
0.07516866973579314
% es.tEx (V/m) @ t=0.1
-0.08878689428147812
% es.tEy (V/m) @ t=0.1
0
% es.tEz (V/m) @ t=0.1
0.07516866973578984
% V (V) @ t=0.1
0.021097348801995104
% es.normE (V/m) @ t=0.12
0.1209537721387397
% es.EX (V/m) @ t=0.12
-0.08960272101474587
% es.EY (V/m) @ t=0.12
-0.029095089876303604
% es.EZ (V/m) @ t=0.12
0.07585936413148742
% es.tEX (V/m) @ t=0.12
-0.08960272101475608
% es.tEY (V/m) @ t=0.12
0
% es.tEZ (V/m) @ t=0.12
0.07585936413149819
% es.Ex (V/m) @ t=0.12
-0.08960272101474587
% es.Ey (V/m) @ t=0.12
-0.029095089876303604
% es.Ez (V/m) @ t=0.12
0.07585936413148742
% es.tEx (V/m) @ t=0.12
-0.08960272101475608
% es.tEy (V/m) @ t=0.12
0
% es.tEz (V/m) @ t=0.12
0.07585936413149819
% V (V) @ t=0.12
0.021291203776474785
% es.normE (V/m) @ t=0.14
0.12205504807865564
% es.EX (V/m) @ t=0.14
-0.0904185477480226
% es.EY (V/m) @ t=0.14
-0.029359998707555235
% es.EZ (V/m) @ t=0.14
0.07655005852717456
% es.tEX (V/m) @ t=0.14
-0.09041854774801261
% es.tEY (V/m) @ t=0.14
0
% es.tEZ (V/m) @ t=0.14
0.076550058527185
% es.Ex (V/m) @ t=0.14
-0.0904185477480226
% es.Ey (V/m) @ t=0.14
-0.029359998707555235
% es.Ez (V/m) @ t=0.14
0.07655005852717456
% es.tEx (V/m) @ t=0.14
-0.09041854774801261
% es.tEy (V/m) @ t=0.14
0
% es.tEz (V/m) @ t=0.14
0.076550058527185
% V (V) @ t=0.14
0.021485058750954463
% es.normE (V/m) @ t=0.16
0.12320974387297261
% es.EX (V/m) @ t=0.16
-0.09127394798269606
% es.EY (V/m) @ t=0.16
-0.029637757535112996
% es.EZ (V/m) @ t=0.16
0.07727425660066525
% es.tEX (V/m) @ t=0.16
-0.0912739479827055
% es.tEY (V/m) @ t=0.16
0
% es.tEZ (V/m) @ t=0.16
0.07727425660067011
% es.Ex (V/m) @ t=0.16
-0.09127394798269606
% es.Ey (V/m) @ t=0.16
-0.029637757535112996
% es.Ez (V/m) @ t=0.16
0.07727425660066525
% es.tEx (V/m) @ t=0.16
-0.0912739479827055
% es.tEy (V/m) @ t=0.16
0
% es.tEz (V/m) @ t=0.16
0.07727425660067011
% V (V) @ t=0.16
0.02168831709544219
% es.normE (V/m) @ t=0.18
0.12437371545136397
% es.EX (V/m) @ t=0.18
-0.09213621973094632
% es.EY (V/m) @ t=0.18
-0.029917747626541313
% es.EZ (V/m) @ t=0.18
0.07800427222801462
% es.tEX (V/m) @ t=0.18
-0.09213621973094321
% es.tEY (V/m) @ t=0.18
0
% es.tEZ (V/m) @ t=0.18
0.07800427222802142
% es.Ex (V/m) @ t=0.18
-0.09213621973094632
% es.Ey (V/m) @ t=0.18
-0.029917747626541313
% es.Ez (V/m) @ t=0.18
0.07800427222801462
% es.tEx (V/m) @ t=0.18
-0.09213621973094321
% es.tEy (V/m) @ t=0.18
0
% es.tEz (V/m) @ t=0.18
0.07800427222802142
% V (V) @ t=0.18
0.021893208234150762
% es.normE (V/m) @ t=0.2
0.12553768702975812
% es.EX (V/m) @ t=0.2
-0.09299849147919659
% es.EY (V/m) @ t=0.2
-0.030197737717962525
% es.EZ (V/m) @ t=0.2
0.07873428785537115
% es.tEX (V/m) @ t=0.2
-0.09299849147920225
% es.tEY (V/m) @ t=0.2
0
% es.tEZ (V/m) @ t=0.2
0.07873428785538605
% es.Ex (V/m) @ t=0.2
-0.09299849147919659
% es.Ey (V/m) @ t=0.2
-0.030197737717962525
% es.Ez (V/m) @ t=0.2
0.07873428785537115
% es.tEx (V/m) @ t=0.2
-0.09299849147920225
% es.tEy (V/m) @ t=0.2
0
% es.tEz (V/m) @ t=0.2
0.07873428785538605
% V (V) @ t=0.2
0.022098099372859333
% es.normE (V/m) @ t=0.22
0.1267016586081555
% es.EX (V/m) @ t=0.22
-0.09386076322743975
% es.EY (V/m) @ t=0.22
-0.0304777278094015
% es.EZ (V/m) @ t=0.22
0.0794643034827344
% es.tEX (V/m) @ t=0.22
-0.09386076322743664
% es.tEY (V/m) @ t=0.22
0
% es.tEZ (V/m) @ t=0.22
0.07946430348273648
% es.Ex (V/m) @ t=0.22
-0.09386076322743975
% es.Ey (V/m) @ t=0.22
-0.0304777278094015
% es.Ez (V/m) @ t=0.22
0.0794643034827344
% es.tEx (V/m) @ t=0.22
-0.09386076322743664
% es.tEy (V/m) @ t=0.22
0
% es.tEz (V/m) @ t=0.22
0.07946430348273648
% V (V) @ t=0.22
0.022302990511567904
% es.normE (V/m) @ t=0.24
0.12786563018654354
% es.EX (V/m) @ t=0.24
-0.09472303497568291
% es.EY (V/m) @ t=0.24
-0.03075771790081916
% es.EZ (V/m) @ t=0.24
0.0801943191100909
% es.tEX (V/m) @ t=0.24
-0.09472303497567791
% es.tEY (V/m) @ t=0.24
0
% es.tEZ (V/m) @ t=0.24
0.08019431911010155
% es.Ex (V/m) @ t=0.24
-0.09472303497568291
% es.Ey (V/m) @ t=0.24
-0.03075771790081916
% es.Ez (V/m) @ t=0.24
0.0801943191100909
% es.tEx (V/m) @ t=0.24
-0.09472303497567791
% es.tEy (V/m) @ t=0.24
0
% es.tEz (V/m) @ t=0.24
0.08019431911010155
% V (V) @ t=0.24
0.02250788165027648
% es.normE (V/m) @ t=0.26
0.1290296017648981
% es.EX (V/m) @ t=0.26
-0.09558530672389409
% es.EY (V/m) @ t=0.26
-0.031037707992233265
% es.EZ (V/m) @ t=0.26
0.08092433473743324
% es.tEX (V/m) @ t=0.26
-0.09558530672390164
% es.tEY (V/m) @ t=0.26
0
% es.tEZ (V/m) @ t=0.26
0.08092433473743021
% es.Ex (V/m) @ t=0.26
-0.09558530672389409
% es.Ey (V/m) @ t=0.26
-0.031037707992233265
% es.Ez (V/m) @ t=0.26
0.08092433473743324
% es.tEx (V/m) @ t=0.26
-0.09558530672390164
% es.tEy (V/m) @ t=0.26
0
% es.tEz (V/m) @ t=0.26
0.08092433473743021
% V (V) @ t=0.26
0.02271277278898505
% es.normE (V/m) @ t=0.28
0.13019357334329534
% es.EX (V/m) @ t=0.28
-0.09644757847215146
% es.EY (V/m) @ t=0.28
-0.031317698083665135
% es.EZ (V/m) @ t=0.28
0.08165435036478219
% es.tEX (V/m) @ t=0.28
-0.09644757847213936
% es.tEY (V/m) @ t=0.28
0
% es.tEZ (V/m) @ t=0.28
0.08165435036478819
% es.Ex (V/m) @ t=0.28
-0.09644757847215146
% es.Ey (V/m) @ t=0.28
-0.031317698083665135
% es.Ez (V/m) @ t=0.28
0.08165435036478219
% es.tEx (V/m) @ t=0.28
-0.09644757847213936
% es.tEy (V/m) @ t=0.28
0
% es.tEz (V/m) @ t=0.28
0.08165435036478819
% V (V) @ t=0.28
0.02291766392769362
% es.normE (V/m) @ t=0.3
0.13140493376295778
% es.EX (V/m) @ t=0.3
-0.09734495593955828
% es.EY (V/m) @ t=0.3
-0.03160908742747637
% es.EZ (V/m) @ t=0.3
0.0824140871597504
% es.tEX (V/m) @ t=0.3
-0.09734495593955095
% es.tEY (V/m) @ t=0.3
0
% es.tEZ (V/m) @ t=0.3
0.08241408715975673
% es.Ex (V/m) @ t=0.3
-0.09734495593955828
% es.Ey (V/m) @ t=0.3
-0.03160908742747637
% es.Ez (V/m) @ t=0.3
0.0824140871597504
% es.tEx (V/m) @ t=0.3
-0.09734495593955095
% es.tEy (V/m) @ t=0.3
0
% es.tEz (V/m) @ t=0.3
0.08241408715975673
% V (V) @ t=0.3
0.023130896810785864
% es.normE (V/m) @ t=0.32
0.13263571298547014
% es.EX (V/m) @ t=0.32
-0.09825671888297194
% es.EY (V/m) @ t=0.32
-0.03190514790961885
% es.EZ (V/m) @ t=0.32
0.08318600297154552
% es.tEX (V/m) @ t=0.32
-0.09825671888296938
% es.tEY (V/m) @ t=0.32
0
% es.tEZ (V/m) @ t=0.32
0.08318600297155054
% es.Ex (V/m) @ t=0.32
-0.09825671888297194
% es.Ey (V/m) @ t=0.32
-0.03190514790961885
% es.Ez (V/m) @ t=0.32
0.08318600297154552
% es.tEx (V/m) @ t=0.32
-0.09825671888296938
% es.tEy (V/m) @ t=0.32
0
% es.tEz (V/m) @ t=0.32
0.08318600297155054
% V (V) @ t=0.32
0.02334754793929907
% es.normE (V/m) @ t=0.34
0.1338664922079805
% es.EX (V/m) @ t=0.34
-0.0991684818263856
% es.EY (V/m) @ t=0.34
-0.032201208391771985
% es.EZ (V/m) @ t=0.34
0.08395791878333339
% es.tEX (V/m) @ t=0.34
-0.09916848182638438
% es.tEY (V/m) @ t=0.34
0
% es.tEZ (V/m) @ t=0.34
0.0839579187833368
% es.Ex (V/m) @ t=0.34
-0.0991684818263856
% es.Ey (V/m) @ t=0.34
-0.032201208391771985
% es.Ez (V/m) @ t=0.34
0.08395791878333339
% es.tEx (V/m) @ t=0.34
-0.09916848182638438
% es.tEy (V/m) @ t=0.34
0
% es.tEz (V/m) @ t=0.34
0.0839579187833368
% V (V) @ t=0.34
0.023564199067812274
% es.normE (V/m) @ t=0.36
0.13509727143049885
% es.EX (V/m) @ t=0.36
-0.10008024476980992
% es.EY (V/m) @ t=0.36
-0.032497268873942886
% es.EZ (V/m) @ t=0.36
0.0847298345951146
% es.tEX (V/m) @ t=0.36
-0.10008024476979571
% es.tEY (V/m) @ t=0.36
0
% es.tEZ (V/m) @ t=0.36
0.08472983459511596
% es.Ex (V/m) @ t=0.36
-0.10008024476980992
% es.Ey (V/m) @ t=0.36
-0.032497268873942886
% es.Ez (V/m) @ t=0.36
0.0847298345951146
% es.tEx (V/m) @ t=0.36
-0.10008024476979571
% es.tEy (V/m) @ t=0.36
0
% es.tEz (V/m) @ t=0.36
0.08472983459511596
% V (V) @ t=0.36
0.023780850196325483
% es.normE (V/m) @ t=0.38
0.13632805065299264
% es.EX (V/m) @ t=0.38
-0.10099200771320582
% es.EY (V/m) @ t=0.38
-0.032793329356099576
% es.EZ (V/m) @ t=0.38
0.08550175040689564
% es.tEX (V/m) @ t=0.38
-0.10099200771320704
% es.tEY (V/m) @ t=0.38
0
% es.tEZ (V/m) @ t=0.38
0.08550175040690977
% es.Ex (V/m) @ t=0.38
-0.10099200771320582
% es.Ey (V/m) @ t=0.38
-0.032793329356099576
% es.Ez (V/m) @ t=0.38
0.08550175040689564
% es.tEx (V/m) @ t=0.38
-0.10099200771320704
% es.tEy (V/m) @ t=0.38
0
% es.tEz (V/m) @ t=0.38
0.08550175040690977
% V (V) @ t=0.38
0.02399750132483868
% es.normE (V/m) @ t=0.4
0.13755882987550463
% es.EX (V/m) @ t=0.4
-0.10190377065661949
% es.EY (V/m) @ t=0.4
-0.03308938983825982
% es.EZ (V/m) @ t=0.4
0.0862736662186834
% es.tEX (V/m) @ t=0.4
-0.10190377065661849
% es.tEY (V/m) @ t=0.4
0
% es.tEZ (V/m) @ t=0.4
0.08627366621868893
% es.Ex (V/m) @ t=0.4
-0.10190377065661949
% es.Ey (V/m) @ t=0.4
-0.03308938983825982
% es.Ez (V/m) @ t=0.4
0.0862736662186834
% es.tEx (V/m) @ t=0.4
-0.10190377065661849
% es.tEy (V/m) @ t=0.4
0
% es.tEz (V/m) @ t=0.4
0.08627366621868893
% V (V) @ t=0.4
0.02421415245335189
% es.normE (V/m) @ t=0.42
0.13878960909802202
% es.EX (V/m) @ t=0.42
-0.10281553360004736
% es.EY (V/m) @ t=0.42
-0.03338545032041651
% es.EZ (V/m) @ t=0.42
0.08704558203046431
% es.tEX (V/m) @ t=0.42
-0.10281553360005102
% es.tEY (V/m) @ t=0.42
0
% es.tEZ (V/m) @ t=0.42
0.08704558203046808
% es.Ex (V/m) @ t=0.42
-0.10281553360004736
% es.Ey (V/m) @ t=0.42
-0.03338545032041651
% es.Ez (V/m) @ t=0.42
0.08704558203046431
% es.tEx (V/m) @ t=0.42
-0.10281553360005102
% es.tEy (V/m) @ t=0.42
0
% es.tEz (V/m) @ t=0.42
0.08704558203046808
% V (V) @ t=0.42
0.024430803581865092
% es.normE (V/m) @ t=0.44
0.14010636565592957
% es.EX (V/m) @ t=0.44
-0.10379098867134573
% es.EY (V/m) @ t=0.44
-0.03370219240850858
% es.EZ (V/m) @ t=0.44
0.08787142080789118
% es.tEX (V/m) @ t=0.44
-0.10379098867133663
% es.tEY (V/m) @ t=0.44
0
% es.tEZ (V/m) @ t=0.44
0.08787142080789723
% es.Ex (V/m) @ t=0.44
-0.10379098867134573
% es.Ey (V/m) @ t=0.44
-0.03370219240850858
% es.Ez (V/m) @ t=0.44
0.08787142080789118
% es.tEx (V/m) @ t=0.44
-0.10379098867133663
% es.tEy (V/m) @ t=0.44
0
% es.tEz (V/m) @ t=0.44
0.08787142080789723
% V (V) @ t=0.44
0.02466258909510692
% es.normE (V/m) @ t=0.46
0.14148888351078198
% es.EX (V/m) @ t=0.46
-0.10481515980156075
% es.EY (V/m) @ t=0.46
-0.03403475319141336
% es.EZ (V/m) @ t=0.46
0.08873850352637513
% es.tEX (V/m) @ t=0.46
-0.10481515980156797
% es.tEY (V/m) @ t=0.46
0
% es.tEZ (V/m) @ t=0.46
0.08873850352638035
% es.Ex (V/m) @ t=0.46
-0.10481515980156075
% es.Ey (V/m) @ t=0.46
-0.03403475319141336
% es.Ez (V/m) @ t=0.46
0.08873850352637513
% es.tEx (V/m) @ t=0.46
-0.10481515980156797
% es.tEy (V/m) @ t=0.46
0
% es.tEz (V/m) @ t=0.46
0.08873850352638035
% V (V) @ t=0.46
0.024905950412178003
% es.normE (V/m) @ t=0.48
0.14287140136563414
% es.EX (V/m) @ t=0.48
-0.10583933093176157
% es.EY (V/m) @ t=0.48
-0.03436731397433945
% es.EZ (V/m) @ t=0.48
0.08960558624486734
% es.tEX (V/m) @ t=0.48
-0.10583933093177078
% es.tEY (V/m) @ t=0.48
0
% es.tEZ (V/m) @ t=0.48
0.08960558624487147
% es.Ex (V/m) @ t=0.48
-0.10583933093176157
% es.Ey (V/m) @ t=0.48
-0.03436731397433945
% es.Ez (V/m) @ t=0.48
0.08960558624486734
% es.tEx (V/m) @ t=0.48
-0.10583933093177078
% es.tEy (V/m) @ t=0.48
0
% es.tEz (V/m) @ t=0.48
0.08960558624487147
% V (V) @ t=0.48
0.025149311729249075
% es.normE (V/m) @ t=0.5
0.14425391922049186
% es.EX (V/m) @ t=0.5
-0.10686350206196238
% es.EY (V/m) @ t=0.5
-0.03469987475727265
% es.EZ (V/m) @ t=0.5
0.09047266896336564
% es.tEX (V/m) @ t=0.5
-0.10686350206198436
% es.tEY (V/m) @ t=0.5
0
% es.tEZ (V/m) @ t=0.5
0.0904726689633768
% es.Ex (V/m) @ t=0.5
-0.10686350206196238
% es.Ey (V/m) @ t=0.5
-0.03469987475727265
% es.Ez (V/m) @ t=0.5
0.09047266896336564
% es.tEx (V/m) @ t=0.5
-0.10686350206198436
% es.tEy (V/m) @ t=0.5
0
% es.tEz (V/m) @ t=0.5
0.0904726689633768
% V (V) @ t=0.5
0.025392673046320164
% es.normE (V/m) @ t=0.52
0.14563643707535512
% es.EX (V/m) @ t=0.52
-0.1078876731921774
% es.EY (V/m) @ t=0.52
-0.0350324355402023
% es.EZ (V/m) @ t=0.52
0.0913397516818574
% es.tEX (V/m) @ t=0.52
-0.10788767319218007
% es.tEY (V/m) @ t=0.52
0
% es.tEZ (V/m) @ t=0.52
0.09133975168187458
% es.Ex (V/m) @ t=0.52
-0.1078876731921774
% es.Ey (V/m) @ t=0.52
-0.0350324355402023
% es.Ez (V/m) @ t=0.52
0.0913397516818574
% es.tEx (V/m) @ t=0.52
-0.10788767319218007
% es.tEy (V/m) @ t=0.52
0
% es.tEz (V/m) @ t=0.52
0.09133975168187458
% V (V) @ t=0.52
0.02563603436339125
% es.normE (V/m) @ t=0.54
0.1470189549302077
% es.EX (V/m) @ t=0.54
-0.10891184432238532
% es.EY (V/m) @ t=0.54
-0.03536499632307155
% es.EZ (V/m) @ t=0.54
0.09220683440036365
% es.tEX (V/m) @ t=0.54
-0.10891184432238288
% es.tEY (V/m) @ t=0.54
0
% es.tEZ (V/m) @ t=0.54
0.0922068344003728
% es.Ex (V/m) @ t=0.54
-0.10891184432238532
% es.Ey (V/m) @ t=0.54
-0.03536499632307155
% es.Ez (V/m) @ t=0.54
0.09220683440036365
% es.tEx (V/m) @ t=0.54
-0.10891184432238288
% es.tEy (V/m) @ t=0.54
0
% es.tEz (V/m) @ t=0.54
0.0922068344003728
% V (V) @ t=0.54
0.025879395680462325
% es.normE (V/m) @ t=0.56
0.1484014727850716
% es.EX (V/m) @ t=0.56
-0.1099360154526039
% es.EY (V/m) @ t=0.56
-0.03569755710601186
% es.EZ (V/m) @ t=0.56
0.0930739171188481
% es.tEX (V/m) @ t=0.56
-0.10993601545261045
% es.tEY (V/m) @ t=0.56
0
% es.tEZ (V/m) @ t=0.56
0.09307391711885638
% es.Ex (V/m) @ t=0.56
-0.1099360154526039
% es.Ey (V/m) @ t=0.56
-0.03569755710601186
% es.Ez (V/m) @ t=0.56
0.0930739171188481
% es.tEx (V/m) @ t=0.56
-0.10993601545261045
% es.tEy (V/m) @ t=0.56
0
% es.tEz (V/m) @ t=0.56
0.09307391711885638
% V (V) @ t=0.56
0.026122756997533407
% es.normE (V/m) @ t=0.58
0.14978399063991651
% es.EX (V/m) @ t=0.58
-0.1109601865827905
% es.EY (V/m) @ t=0.58
-0.0360301178889344
% es.EZ (V/m) @ t=0.58
0.09394099983734686
% es.tEX (V/m) @ t=0.58
-0.11096018658279194
% es.tEY (V/m) @ t=0.58
0
% es.tEZ (V/m) @ t=0.58
0.0939409998373546
% es.Ex (V/m) @ t=0.58
-0.1109601865827905
% es.Ey (V/m) @ t=0.58
-0.0360301178889344
% es.Ez (V/m) @ t=0.58
0.09394099983734686
% es.tEx (V/m) @ t=0.58
-0.11096018658279194
% es.tEy (V/m) @ t=0.58
0
% es.tEz (V/m) @ t=0.58
0.0939409998373546
% V (V) @ t=0.58
0.026366118314604486
% es.normE (V/m) @ t=0.6
0.15116650849477206
% es.EX (V/m) @ t=0.6
-0.11198435771300197
% es.EY (V/m) @ t=0.6
-0.036362678671824966
% es.EZ (V/m) @ t=0.6
0.09480808255584547
% es.tEX (V/m) @ t=0.6
-0.11198435771301263
% es.tEY (V/m) @ t=0.6
0
% es.tEZ (V/m) @ t=0.6
0.09480808255585238
% es.Ex (V/m) @ t=0.6
-0.11198435771300197
% es.Ey (V/m) @ t=0.6
-0.036362678671824966
% es.Ez (V/m) @ t=0.6
0.09480808255584547
% es.tEx (V/m) @ t=0.6
-0.11198435771301263
% es.tEy (V/m) @ t=0.6
0
% es.tEz (V/m) @ t=0.6
0.09480808255585238
% V (V) @ t=0.6
0.026609479631675564
% es.normE (V/m) @ t=0.62
0.1525490263496308
% es.EX (V/m) @ t=0.62
-0.11300852884320634
% es.EY (V/m) @ t=0.62
-0.03669523945475106
% es.EZ (V/m) @ t=0.62
0.09567516527434397
% es.tEX (V/m) @ t=0.62
-0.113008528843212
% es.tEY (V/m) @ t=0.62
0
% es.tEZ (V/m) @ t=0.62
0.09567516527435016
% es.Ex (V/m) @ t=0.62
-0.11300852884320634
% es.Ey (V/m) @ t=0.62
-0.03669523945475106
% es.Ez (V/m) @ t=0.62
0.09567516527434397
% es.tEx (V/m) @ t=0.62
-0.113008528843212
% es.tEy (V/m) @ t=0.62
0
% es.tEz (V/m) @ t=0.62
0.09567516527435016
% V (V) @ t=0.62
0.026852840948746647
% es.normE (V/m) @ t=0.64
0.15393154420447938
% es.EX (V/m) @ t=0.64
-0.1140326999734036
% es.EY (V/m) @ t=0.64
-0.0370278002376736
% es.EZ (V/m) @ t=0.64
0.09654224799283603
% es.tEX (V/m) @ t=0.64
-0.11403269997342547
% es.tEY (V/m) @ t=0.64
0
% es.tEZ (V/m) @ t=0.64
0.09654224799283417
% es.Ex (V/m) @ t=0.64
-0.1140326999734036
% es.Ey (V/m) @ t=0.64
-0.0370278002376736
% es.Ez (V/m) @ t=0.64
0.09654224799283603
% es.tEx (V/m) @ t=0.64
-0.11403269997342547
% es.tEy (V/m) @ t=0.64
0
% es.tEz (V/m) @ t=0.64
0.09654224799283417
% V (V) @ t=0.64
0.027096202265817732
% es.normE (V/m) @ t=0.66
0.15531406205935136
% es.EX (V/m) @ t=0.66
-0.11505687110362217
% es.EY (V/m) @ t=0.66
-0.037360361020610355
% es.EZ (V/m) @ t=0.66
0.0974093307113347
% es.tEX (V/m) @ t=0.66
-0.11505687110363894
% es.tEY (V/m) @ t=0.66
0
% es.tEZ (V/m) @ t=0.66
0.09740933071134616
% es.Ex (V/m) @ t=0.66
-0.11505687110362217
% es.Ey (V/m) @ t=0.66
-0.037360361020610355
% es.Ez (V/m) @ t=0.66
0.0974093307113347
% es.tEx (V/m) @ t=0.66
-0.11505687110363894
% es.tEy (V/m) @ t=0.66
0
% es.tEz (V/m) @ t=0.66
0.09740933071134616
% V (V) @ t=0.66
0.02733956358288881
% es.normE (V/m) @ t=0.68
0.156696579914206
% es.EX (V/m) @ t=0.68
-0.11608104223383364
% es.EY (V/m) @ t=0.68
-0.037692921803515134
% es.EZ (V/m) @ t=0.68
0.0982764134298264
% es.tEX (V/m) @ t=0.68
-0.1160810422338382
% es.tEY (V/m) @ t=0.68
0
% es.tEZ (V/m) @ t=0.68
0.09827641342982307
% es.Ex (V/m) @ t=0.68
-0.11608104223383364
% es.Ey (V/m) @ t=0.68
-0.037692921803515134
% es.Ez (V/m) @ t=0.68
0.0982764134298264
% es.tEx (V/m) @ t=0.68
-0.1160810422338382
% es.tEy (V/m) @ t=0.68
0
% es.tEz (V/m) @ t=0.68
0.09827641342982307
% V (V) @ t=0.68
0.027582924899959893
% es.normE (V/m) @ t=0.7
0.15807909776906973
% es.EX (V/m) @ t=0.7
-0.11710521336405932
% es.EY (V/m) @ t=0.7
-0.03802548258639504
% es.EZ (V/m) @ t=0.7
0.0991434961483254
% es.tEX (V/m) @ t=0.7
-0.11710521336404456
% es.tEY (V/m) @ t=0.7
0
% es.tEZ (V/m) @ t=0.7
0.09914349614833506
% es.Ex (V/m) @ t=0.7
-0.11710521336405932
% es.Ey (V/m) @ t=0.7
-0.03802548258639504
% es.Ez (V/m) @ t=0.7
0.0991434961483254
% es.tEx (V/m) @ t=0.7
-0.11710521336404456
% es.tEy (V/m) @ t=0.7
0
% es.tEz (V/m) @ t=0.7
0.09914349614833506
% V (V) @ t=0.7
0.02782628621703098
% es.normE (V/m) @ t=0.72
0.15950497427323182
% es.EX (V/m) @ t=0.72
-0.11816150464157715
% es.EY (V/m) @ t=0.72
-0.038368473171022544
% es.EZ (V/m) @ t=0.72
0.10003777239256884
% es.tEX (V/m) @ t=0.72
-0.11816150464158959
% es.tEY (V/m) @ t=0.72
0
% es.tEZ (V/m) @ t=0.72
0.10003777239256761
% es.Ex (V/m) @ t=0.72
-0.11816150464157715
% es.Ey (V/m) @ t=0.72
-0.038368473171022544
% es.Ez (V/m) @ t=0.72
0.10003777239256884
% es.tEx (V/m) @ t=0.72
-0.11816150464158959
% es.tEy (V/m) @ t=0.72
0
% es.tEz (V/m) @ t=0.72
0.10003777239256761
% V (V) @ t=0.72
0.028077279854246642
% es.normE (V/m) @ t=0.74
0.16104169526546613
% es.EX (V/m) @ t=0.74
-0.11929990966902082
% es.EY (V/m) @ t=0.74
-0.0387381270869156
% es.EZ (V/m) @ t=0.74
0.10100156769445068
% es.tEX (V/m) @ t=0.74
-0.11929990966901882
% es.tEY (V/m) @ t=0.74
0
% es.tEZ (V/m) @ t=0.74
0.10100156769445778
% es.Ex (V/m) @ t=0.74
-0.11929990966902082
% es.Ey (V/m) @ t=0.74
-0.0387381270869156
% es.Ez (V/m) @ t=0.74
0.10100156769445068
% es.tEx (V/m) @ t=0.74
-0.11929990966901882
% es.tEy (V/m) @ t=0.74
0
% es.tEz (V/m) @ t=0.74
0.10100156769445778
% V (V) @ t=0.74
0.028347785183656896
% es.normE (V/m) @ t=0.76
0.16257841625771052
% es.EX (V/m) @ t=0.76
-0.12043831469647515
% es.EY (V/m) @ t=0.76
-0.039107781002854836
% es.EZ (V/m) @ t=0.76
0.10196536299631831
% es.tEX (V/m) @ t=0.76
-0.1204383146964727
% es.tEY (V/m) @ t=0.76
0
% es.tEZ (V/m) @ t=0.76
0.10196536299632664
% es.Ex (V/m) @ t=0.76
-0.12043831469647515
% es.Ey (V/m) @ t=0.76
-0.039107781002854836
% es.Ez (V/m) @ t=0.76
0.10196536299631831
% es.tEx (V/m) @ t=0.76
-0.1204383146964727
% es.tEy (V/m) @ t=0.76
0
% es.tEz (V/m) @ t=0.76
0.10196536299632664
% V (V) @ t=0.76
0.02861829051306713
% es.normE (V/m) @ t=0.78
0.16411513724992258
% es.EX (V/m) @ t=0.78
-0.12157671972389394
% es.EY (V/m) @ t=0.78
-0.03947743491873368
% es.EZ (V/m) @ t=0.78
0.10292915829819949
% es.tEX (V/m) @ t=0.78
-0.12157671972390194
% es.tEY (V/m) @ t=0.78
0
% es.tEZ (V/m) @ t=0.78
0.10292915829820881
% es.Ex (V/m) @ t=0.78
-0.12157671972389394
% es.Ey (V/m) @ t=0.78
-0.03947743491873368
% es.Ez (V/m) @ t=0.78
0.10292915829819949
% es.tEx (V/m) @ t=0.78
-0.12157671972390194
% es.tEy (V/m) @ t=0.78
0
% es.tEz (V/m) @ t=0.78
0.10292915829820881
% V (V) @ t=0.78
0.028888795842477385
% es.normE (V/m) @ t=0.8
0.1656518582421646
% es.EX (V/m) @ t=0.8
-0.12271512475135538
% es.EY (V/m) @ t=0.8
-0.03984708883464094
% es.EZ (V/m) @ t=0.8
0.10389295360006723
% es.tEX (V/m) @ t=0.8
-0.12271512475135227
% es.tEY (V/m) @ t=0.8
0
% es.tEZ (V/m) @ t=0.8
0.10389295360007766
% es.Ex (V/m) @ t=0.8
-0.12271512475135538
% es.Ey (V/m) @ t=0.8
-0.03984708883464094
% es.Ez (V/m) @ t=0.8
0.10389295360006723
% es.tEx (V/m) @ t=0.8
-0.12271512475135227
% es.tEy (V/m) @ t=0.8
0
% es.tEz (V/m) @ t=0.8
0.10389295360007766
% V (V) @ t=0.8
0.029159301171887624
% es.normE (V/m) @ t=0.82
0.167188579234406
% es.EX (V/m) @ t=0.82
-0.1238535297788026
% es.EY (V/m) @ t=0.82
-0.040216742750533996
% es.EZ (V/m) @ t=0.82
0.10485674890195618
% es.tEX (V/m) @ t=0.82
-0.12385352977880992
% es.tEY (V/m) @ t=0.82
0
% es.tEZ (V/m) @ t=0.82
0.10485674890196073
% es.Ex (V/m) @ t=0.82
-0.1238535297788026
% es.Ey (V/m) @ t=0.82
-0.040216742750533996
% es.Ez (V/m) @ t=0.82
0.10485674890195618
% es.tEx (V/m) @ t=0.82
-0.12385352977880992
% es.tEy (V/m) @ t=0.82
0
% es.tEz (V/m) @ t=0.82
0.10485674890196073
% V (V) @ t=0.82
0.029429806501297874
% es.normE (V/m) @ t=0.84
0.16872530022663754
% es.EX (V/m) @ t=0.84
-0.12499193480624626
% es.EY (V/m) @ t=0.84
-0.04058639666645192
% es.EZ (V/m) @ t=0.84
0.10582054420382403
% es.tEX (V/m) @ t=0.84
-0.12499193480624982
% es.tEY (V/m) @ t=0.84
0
% es.tEZ (V/m) @ t=0.84
0.1058205442038358
% es.Ex (V/m) @ t=0.84
-0.12499193480624626
% es.Ey (V/m) @ t=0.84
-0.04058639666645192
% es.Ez (V/m) @ t=0.84
0.10582054420382403
% es.tEx (V/m) @ t=0.84
-0.12499193480624982
% es.tEy (V/m) @ t=0.84
0
% es.tEz (V/m) @ t=0.84
0.1058205442038358
% V (V) @ t=0.84
0.02970031183070812
% es.normE (V/m) @ t=0.86
0.17026202121889458
% es.EX (V/m) @ t=0.86
-0.12613033983371835
% es.EY (V/m) @ t=0.86
-0.04095605058235208
% es.EZ (V/m) @ t=0.86
0.10678433950570582
% es.tEX (V/m) @ t=0.86
-0.1261303398337108
% es.tEY (V/m) @ t=0.86
0
% es.tEZ (V/m) @ t=0.86
0.1067843395057122
% es.Ex (V/m) @ t=0.86
-0.12613033983371835
% es.Ey (V/m) @ t=0.86
-0.04095605058235208
% es.Ez (V/m) @ t=0.86
0.10678433950570582
% es.tEx (V/m) @ t=0.86
-0.1261303398337108
% es.tEy (V/m) @ t=0.86
0
% es.tEz (V/m) @ t=0.86
0.1067843395057122
% V (V) @ t=0.86
0.02997081716011836
% es.normE (V/m) @ t=0.88
0.17179874221109953
% es.EX (V/m) @ t=0.88
-0.1272687448611336
% es.EY (V/m) @ t=0.88
-0.04132570449823092
% es.EZ (V/m) @ t=0.88
0.10774813480757989
% es.tEX (V/m) @ t=0.88
-0.1272687448611438
% es.tEY (V/m) @ t=0.88
0
% es.tEZ (V/m) @ t=0.88
0.10774813480758727
% es.Ex (V/m) @ t=0.88
-0.1272687448611336
% es.Ey (V/m) @ t=0.88
-0.04132570449823092
% es.Ez (V/m) @ t=0.88
0.10774813480757989
% es.tEx (V/m) @ t=0.88
-0.1272687448611438
% es.tEy (V/m) @ t=0.88
0
% es.tEz (V/m) @ t=0.88
0.10774813480758727
% V (V) @ t=0.88
0.03024132248952861
% es.normE (V/m) @ t=0.9
0.1733354632033452
% es.EX (V/m) @ t=0.9
-0.12840714988859148
% es.EY (V/m) @ t=0.9
-0.04169535841414529
% es.EZ (V/m) @ t=0.9
0.1087119301094549
% es.tEX (V/m) @ t=0.9
-0.1284071498886048
% es.tEY (V/m) @ t=0.9
0
% es.tEZ (V/m) @ t=0.9
0.10871193010946323
% es.Ex (V/m) @ t=0.9
-0.12840714988859148
% es.Ey (V/m) @ t=0.9
-0.04169535841414529
% es.Ez (V/m) @ t=0.9
0.1087119301094549
% es.tEx (V/m) @ t=0.9
-0.1284071498886048
% es.tEy (V/m) @ t=0.9
0
% es.tEz (V/m) @ t=0.9
0.10871193010946323
% V (V) @ t=0.9
0.030511827818938856
% es.normE (V/m) @ t=0.92
0.1748721841955978
% es.EX (V/m) @ t=0.92
-0.12954555491604935
% es.EY (V/m) @ t=0.92
-0.04206501233007032
% es.EZ (V/m) @ t=0.92
0.10967572541133686
% es.tEX (V/m) @ t=0.92
-0.12954555491605158
% es.tEY (V/m) @ t=0.92
0
% es.tEZ (V/m) @ t=0.92
0.10967572541134629
% es.Ex (V/m) @ t=0.92
-0.12954555491604935
% es.Ey (V/m) @ t=0.92
-0.04206501233007032
% es.Ez (V/m) @ t=0.92
0.10967572541133686
% es.tEx (V/m) @ t=0.92
-0.12954555491605158
% es.tEy (V/m) @ t=0.92
0
% es.tEz (V/m) @ t=0.92
0.10967572541134629
% V (V) @ t=0.92
0.030782333148349102
% es.normE (V/m) @ t=0.94
0.17640890518783425
% es.EX (V/m) @ t=0.94
-0.13068395994350368
% es.EY (V/m) @ t=0.94
-0.04243466624595982
% es.EZ (V/m) @ t=0.94
0.11063952071321087
% es.tEX (V/m) @ t=0.94
-0.13068395994350235
% es.tEY (V/m) @ t=0.94
0
% es.tEZ (V/m) @ t=0.94
0.11063952071321426
% es.Ex (V/m) @ t=0.94
-0.13068395994350368
% es.Ey (V/m) @ t=0.94
-0.04243466624595982
% es.Ez (V/m) @ t=0.94
0.11063952071321087
% es.tEx (V/m) @ t=0.94
-0.13068395994350235
% es.tEy (V/m) @ t=0.94
0
% es.tEz (V/m) @ t=0.94
0.11063952071321426
% V (V) @ t=0.94
0.031052838477759345
% es.normE (V/m) @ t=0.96
0.17794562618005277
% es.EX (V/m) @ t=0.96
-0.13182236497091893
% es.EY (V/m) @ t=0.96
-0.04280432016187419
% es.EZ (V/m) @ t=0.96
0.11160331601509293
% es.tEX (V/m) @ t=0.96
-0.1318223649709278
% es.tEY (V/m) @ t=0.96
0
% es.tEZ (V/m) @ t=0.96
0.11160331601510443
% es.Ex (V/m) @ t=0.96
-0.13182236497091893
% es.Ey (V/m) @ t=0.96
-0.04280432016187419
% es.Ez (V/m) @ t=0.96
0.11160331601509293
% es.tEx (V/m) @ t=0.96
-0.1318223649709278
% es.tEy (V/m) @ t=0.96
0
% es.tEz (V/m) @ t=0.96
0.11160331601510443
% V (V) @ t=0.96
0.03132334380716959
% es.normE (V/m) @ t=0.98
0.17955618513462251
% es.EX (V/m) @ t=0.98
-0.13301546926279784
% es.EY (V/m) @ t=0.98
-0.04319173559157008
% es.EZ (V/m) @ t=0.98
0.11261342075207742
% es.tEX (V/m) @ t=0.98
-0.1330154692627905
% es.tEY (V/m) @ t=0.98
0
% es.tEZ (V/m) @ t=0.98
0.11261342075208258
% es.Ex (V/m) @ t=0.98
-0.13301546926279784
% es.Ey (V/m) @ t=0.98
-0.04319173559157008
% es.Ez (V/m) @ t=0.98
0.11261342075207742
% es.tEx (V/m) @ t=0.98
-0.1330154692627905
% es.tEy (V/m) @ t=0.98
0
% es.tEz (V/m) @ t=0.98
0.11261342075208258
% V (V) @ t=0.98
0.0316068466561452
% es.normE (V/m) @ t=1
0.1812669346849988
% es.EX (V/m) @ t=1
-0.13428279488627481
% es.EY (V/m) @ t=1
-0.043603251586851854
% es.EZ (V/m) @ t=1
0.11368636267679588
% es.tEX (V/m) @ t=1
-0.13428279488628103
% es.tEY (V/m) @ t=1
0
% es.tEZ (V/m) @ t=1
0.11368636267680365
% es.Ex (V/m) @ t=1
-0.13428279488627481
% es.Ey (V/m) @ t=1
-0.043603251586851854
% es.Ez (V/m) @ t=1
0.11368636267679588
% es.tEx (V/m) @ t=1
-0.13428279488628103
% es.tEy (V/m) @ t=1
0
% es.tEz (V/m) @ t=1
0.11368636267680365
% V (V) @ t=1
0.03190798581562263
% es.normE (V/m) @ t=1.02
0.182977684235412
% es.EX (V/m) @ t=1.02
-0.13555012050978732
% es.EY (V/m) @ t=1.02
-0.04401476758212297
% es.EZ (V/m) @ t=1.02
0.11475930460153533