% Model:              1 neuron.mph
% Version:            COMSOL 6.1.0.252
% Date:               Mar 26 2023, 15:01
% Dimension:          0
% Nodes:              14017
% Expressions:        14017
% Description:        Electric field norm, Electric field, X component, Electric field, Y component, Electric field, Z component, Tangential electric field, X component, Tangential electric field, Y component, Tangential electric field, Z component, Electric field, x component, Electric field, y component, Electric field, z component, Tangential electric field, x component, Tangential electric field, y component, Tangential electric field, z component, Electric potential
% Length unit:        mm
% x
2
% y
14.200000000000001
% z
1.6600000000000001
% es.normE (V/m) @ t=0
0.08672823202400477
% es.EX (V/m) @ t=0
-0.08270654360441687
% es.EY (V/m) @ t=0
0.007357921552656466
% es.EZ (V/m) @ t=0
-0.02504545598397545
% es.tEX (V/m) @ t=0
-0.08270654360441032
% es.tEY (V/m) @ t=0
0
% es.tEZ (V/m) @ t=0
-0.025045455983975007
% es.Ex (V/m) @ t=0
-0.08270654360441687
% es.Ey (V/m) @ t=0
0.007357921552656466
% es.Ez (V/m) @ t=0
-0.02504545598397545
% es.tEx (V/m) @ t=0
-0.08270654360441032
% es.tEy (V/m) @ t=0
0
% es.tEz (V/m) @ t=0
-0.025045455983975007
% V (V) @ t=0
0.022187250850585764
% es.normE (V/m) @ t=0.02
0.07942495756994458
% es.EX (V/m) @ t=0.02
-0.0757419304314203
% es.EY (V/m) @ t=0.02
0.006738320309300994
% es.EZ (V/m) @ t=0.02
-0.022936409896028742
% es.tEX (V/m) @ t=0.02
-0.0757419304314162
% es.tEY (V/m) @ t=0.02
0
% es.tEZ (V/m) @ t=0.02
-0.02293640989603052
% es.Ex (V/m) @ t=0.02
-0.0757419304314203
% es.Ey (V/m) @ t=0.02
0.006738320309300994
% es.Ez (V/m) @ t=0.02
-0.022936409896028742
% es.tEx (V/m) @ t=0.02
-0.0757419304314162
% es.tEy (V/m) @ t=0.02
0
% es.tEz (V/m) @ t=0.02
-0.02293640989603052
% V (V) @ t=0.02
0.0203188905980011
% es.normE (V/m) @ t=0.04
0.08015400071340652
% es.EX (V/m) @ t=0.04
-0.0764371669896442
% es.EY (V/m) @ t=0.04
0.006800171476606609
% es.EZ (V/m) @ t=0.04
-0.023146943661113528
% es.tEX (V/m) @ t=0.04
-0.07643716698964109
% es.tEY (V/m) @ t=0.04
0
% es.tEZ (V/m) @ t=0.04
-0.02314694366111425
% es.Ex (V/m) @ t=0.04
-0.0764371669896442
% es.Ey (V/m) @ t=0.04
0.006800171476606609
% es.Ez (V/m) @ t=0.04
-0.023146943661113528
% es.tEx (V/m) @ t=0.04
-0.07643716698964109
% es.tEy (V/m) @ t=0.04
0
% es.tEz (V/m) @ t=0.04
-0.02314694366111425
% V (V) @ t=0.04
0.02050539809538664
% es.normE (V/m) @ t=0.06
0.08089087572106281
% es.EX (V/m) @ t=0.06
-0.07713987224726793
% es.EY (V/m) @ t=0.06
0.006862687089175368
% es.EZ (V/m) @ t=0.06
-0.023359739093399057
% es.tEX (V/m) @ t=0.06
-0.07713987224725916
% es.tEY (V/m) @ t=0.06
0
% es.tEZ (V/m) @ t=0.06
-0.023359739093396392
% es.Ex (V/m) @ t=0.06
-0.07713987224726793
% es.Ey (V/m) @ t=0.06
0.006862687089175368
% es.Ez (V/m) @ t=0.06
-0.023359739093399057
% es.tEx (V/m) @ t=0.06
-0.07713987224725916
% es.tEy (V/m) @ t=0.06
0
% es.tEz (V/m) @ t=0.06
-0.023359739093396392
% V (V) @ t=0.06
0.02069390916133143
% es.normE (V/m) @ t=0.08
0.08163624352465138
% es.EX (V/m) @ t=0.08
-0.07785067649391353
% es.EY (V/m) @ t=0.08
0.006925923218661478
% es.EZ (V/m) @ t=0.08
-0.02357498703765093
% es.tEX (V/m) @ t=0.08
-0.0778506764939042
% es.tEY (V/m) @ t=0.08
0
% es.tEZ (V/m) @ t=0.08
-0.023574987037652928
% es.Ex (V/m) @ t=0.08
-0.07785067649391353
% es.Ey (V/m) @ t=0.08
0.006925923218661478
% es.Ez (V/m) @ t=0.08
-0.02357498703765093
% es.tEx (V/m) @ t=0.08
-0.0778506764939042
% es.tEy (V/m) @ t=0.08
0
% es.tEz (V/m) @ t=0.08
-0.023574987037652928
% V (V) @ t=0.08
0.02088459286306767
% es.normE (V/m) @ t=0.1
0.0823934447442539
% es.EX (V/m) @ t=0.1
-0.07857276544669312
% es.EY (V/m) @ t=0.1
0.00699016327857116
% es.EZ (V/m) @ t=0.1
-0.023793652183351055
% es.tEX (V/m) @ t=0.1
-0.07857276544669212
% es.tEY (V/m) @ t=0.1
0
% es.tEZ (V/m) @ t=0.1
-0.023793652183349945
% es.Ex (V/m) @ t=0.1
-0.07857276544669312
% es.Ey (V/m) @ t=0.1
0.00699016327857116
% es.Ez (V/m) @ t=0.1
-0.023793652183351055
% es.tEx (V/m) @ t=0.1
-0.07857276544669212
% es.tEy (V/m) @ t=0.1
0
% es.tEz (V/m) @ t=0.1
-0.023793652183349945
% V (V) @ t=0.1
0.021078303801458646
% es.normE (V/m) @ t=0.12
0.08315064596390011
% es.EX (V/m) @ t=0.12
-0.07929485439951
% es.EY (V/m) @ t=0.12
0.007054403338552007
% es.EZ (V/m) @ t=0.12
-0.024012317329058286
% es.tEX (V/m) @ t=0.12
-0.07929485439950046
% es.tEY (V/m) @ t=0.12
0
% es.tEZ (V/m) @ t=0.12
-0.024012317329056287
% es.Ex (V/m) @ t=0.12
-0.07929485439951
% es.Ey (V/m) @ t=0.12
0.007054403338552007
% es.Ez (V/m) @ t=0.12
-0.024012317329058286
% es.tEx (V/m) @ t=0.12
-0.07929485439950046
% es.tEy (V/m) @ t=0.12
0
% es.tEz (V/m) @ t=0.12
-0.024012317329056287
% V (V) @ t=0.12
0.021272014739849614
% es.normE (V/m) @ t=0.14
0.08390784718350236
% es.EX (V/m) @ t=0.14
-0.08001694335228604
% es.EY (V/m) @ t=0.14
0.007118643398504321
% es.EZ (V/m) @ t=0.14
-0.024230982474756635
% es.tEX (V/m) @ t=0.14
-0.08001694335227416
% es.tEY (V/m) @ t=0.14
0
% es.tEZ (V/m) @ t=0.14
-0.02423098247475597
% es.Ex (V/m) @ t=0.14
-0.08001694335228604
% es.Ey (V/m) @ t=0.14
0.007118643398504321
% es.Ez (V/m) @ t=0.14
-0.024230982474756635
% es.tEx (V/m) @ t=0.14
-0.08001694335227416
% es.tEy (V/m) @ t=0.14
0
% es.tEz (V/m) @ t=0.14
-0.02423098247475597
% V (V) @ t=0.14
0.021465725678240583
% es.normE (V/m) @ t=0.16
0.08470135805795852
% es.EX (V/m) @ t=0.16
-0.08077365819433385
% es.EY (V/m) @ t=0.16
0.0071859639329550085
% es.EZ (V/m) @ t=0.16
-0.024460133301388354
% es.tEX (V/m) @ t=0.16
-0.08077365819432902
% es.tEY (V/m) @ t=0.16
0
% es.tEZ (V/m) @ t=0.16
-0.024460133301383635
% es.Ex (V/m) @ t=0.16
-0.08077365819433385
% es.Ey (V/m) @ t=0.16
0.0071859639329550085
% es.Ez (V/m) @ t=0.16
-0.024460133301388354
% es.tEx (V/m) @ t=0.16
-0.08077365819432902
% es.tEy (V/m) @ t=0.16
0
% es.tEz (V/m) @ t=0.16
-0.024460133301383635
% V (V) @ t=0.16
0.021668725643018045
% es.normE (V/m) @ t=0.18
0.085501739342809
% es.EX (V/m) @ t=0.18
-0.08153692484940495
% es.EY (V/m) @ t=0.18
0.007253867346123433
% es.EZ (V/m) @ t=0.18
-0.024691268198960226
% es.tEX (V/m) @ t=0.18
-0.08153692484940311
% es.tEY (V/m) @ t=0.18
0
% es.tEZ (V/m) @ t=0.18
-0.024691268198955285
% es.Ex (V/m) @ t=0.18
-0.08153692484940495
% es.Ey (V/m) @ t=0.18
0.007253867346123433
% es.Ez (V/m) @ t=0.18
-0.024691268198960226
% es.tEx (V/m) @ t=0.18
-0.08153692484940311
% es.tEy (V/m) @ t=0.18
0
% es.tEz (V/m) @ t=0.18
-0.024691268198955285
% V (V) @ t=0.18
0.02187348325114634
% es.normE (V/m) @ t=0.2
0.08630212062767044
% es.EX (V/m) @ t=0.2
-0.08230019150448492
% es.EY (V/m) @ t=0.2
0.007321770759327495
% es.EZ (V/m) @ t=0.2
-0.02492240309653032
% es.tEX (V/m) @ t=0.2
-0.082300191504463
% es.tEY (V/m) @ t=0.2
0
% es.tEZ (V/m) @ t=0.2
-0.0249224030965296
% es.Ex (V/m) @ t=0.2
-0.08230019150448492
% es.Ey (V/m) @ t=0.2
0.007321770759327495
% es.Ez (V/m) @ t=0.2
-0.02492240309653032
% es.tEx (V/m) @ t=0.2
-0.082300191504463
% es.tEy (V/m) @ t=0.2
0
% es.tEz (V/m) @ t=0.2
-0.0249224030965296
% V (V) @ t=0.2
0.02207824085927463
% es.normE (V/m) @ t=0.22
0.08710250191249949
% es.EX (V/m) @ t=0.22
-0.08306345815953464
% es.EY (V/m) @ t=0.22
0.007389674172489369
% es.EZ (V/m) @ t=0.22
-0.025153537994100528
% es.tEX (V/m) @ t=0.22
-0.08306345815952998
% es.tEY (V/m) @ t=0.22
0
% es.tEZ (V/m) @ t=0.22
-0.025153537994103026
% es.Ex (V/m) @ t=0.22
-0.08306345815953464
% es.Ey (V/m) @ t=0.22
0.007389674172489369
% es.Ez (V/m) @ t=0.22
-0.025153537994100528
% es.tEx (V/m) @ t=0.22
-0.08306345815952998
% es.tEy (V/m) @ t=0.22
0
% es.tEz (V/m) @ t=0.22
-0.025153537994103026
% V (V) @ t=0.22
0.02228299846740292
% es.normE (V/m) @ t=0.24
0.0879028831973615
% es.EX (V/m) @ t=0.24
-0.0838267248146129
% es.EY (V/m) @ t=0.24
0.007457577585671227
% es.EZ (V/m) @ t=0.24
-0.02538467289168478
% es.tEX (V/m) @ t=0.24
-0.08382672481460585
% es.tEY (V/m) @ t=0.24
0
% es.tEZ (V/m) @ t=0.24
-0.025384672891684
% es.Ex (V/m) @ t=0.24
-0.0838267248146129
% es.Ey (V/m) @ t=0.24
0.007457577585671227
% es.Ez (V/m) @ t=0.24
-0.02538467289168478
% es.tEx (V/m) @ t=0.24
-0.08382672481460585
% es.tEy (V/m) @ t=0.24
0
% es.tEz (V/m) @ t=0.24
-0.025384672891684
% V (V) @ t=0.24
0.02248775607553121
% es.normE (V/m) @ t=0.26
0.08870326448220343
% es.EX (V/m) @ t=0.26
-0.08458999146967505
% es.EY (V/m) @ t=0.26
0.00752548099883299
% es.EZ (V/m) @ t=0.26
-0.025615807789258538
% es.tEX (V/m) @ t=0.26
-0.08458999146966573
% es.tEY (V/m) @ t=0.26
0
% es.tEZ (V/m) @ t=0.26
-0.02561580778925432
% es.Ex (V/m) @ t=0.26
-0.08458999146967505
% es.Ey (V/m) @ t=0.26
0.00752548099883299
% es.Ez (V/m) @ t=0.26
-0.025615807789258538
% es.tEx (V/m) @ t=0.26
-0.08458999146966573
% es.tEy (V/m) @ t=0.26
0
% es.tEz (V/m) @ t=0.26
-0.02561580778925432
% V (V) @ t=0.26
0.022692513683659505
% es.normE (V/m) @ t=0.28
0.08950364576705394
% es.EX (V/m) @ t=0.28
-0.08535325812474609
% es.EY (V/m) @ t=0.28
0.00759338441200863
% es.EZ (V/m) @ t=0.28
-0.025846942686828633
% es.tEX (V/m) @ t=0.28
-0.08535325812473271
% es.tEY (V/m) @ t=0.28
0
% es.tEZ (V/m) @ t=0.28
-0.02584694268683352
% es.Ex (V/m) @ t=0.28
-0.08535325812474609
% es.Ey (V/m) @ t=0.28
0.00759338441200863
% es.Ez (V/m) @ t=0.28
-0.025846942686828633
% es.tEx (V/m) @ t=0.28
-0.08535325812473271
% es.tEy (V/m) @ t=0.28
0
% es.tEz (V/m) @ t=0.28
-0.02584694268683352
% V (V) @ t=0.28
0.022897271291787792
% es.normE (V/m) @ t=0.3
0.09033564173128722
% es.EX (V/m) @ t=0.3
-0.0861466734652217
% es.EY (V/m) @ t=0.3
0.007663969975550411
% es.EZ (V/m) @ t=0.3
-0.02608720724979602
% es.tEX (V/m) @ t=0.3
-0.08614667346522609
% es.tEY (V/m) @ t=0.3
0
% es.tEZ (V/m) @ t=0.3
-0.026087207249793742
% es.Ex (V/m) @ t=0.3
-0.0861466734652217
% es.Ey (V/m) @ t=0.3
0.007663969975550411
% es.Ez (V/m) @ t=0.3
-0.02608720724979602
% es.tEx (V/m) @ t=0.3
-0.08614667346522609
% es.tEy (V/m) @ t=0.3
0
% es.tEz (V/m) @ t=0.3
-0.026087207249793742
% V (V) @ t=0.3
0.023110116688871533
% es.normE (V/m) @ t=0.32
0.09118204024970765
% es.EX (V/m) @ t=0.32
-0.08695382350374337
% es.EY (V/m) @ t=0.32
0.007735777434076385
% es.EZ (V/m) @ t=0.32
-0.026331630972455666
% es.tEX (V/m) @ t=0.32
-0.08695382350374636
% es.tEY (V/m) @ t=0.32
0
% es.tEZ (V/m) @ t=0.32
-0.02633163097246083
% es.Ex (V/m) @ t=0.32
-0.08695382350374337
% es.Ey (V/m) @ t=0.32
0.007735777434076385
% es.Ez (V/m) @ t=0.32
-0.026331630972455666
% es.tEx (V/m) @ t=0.32
-0.08695382350374636
% es.tEy (V/m) @ t=0.32
0
% es.tEz (V/m) @ t=0.32
-0.02633163097246083
% V (V) @ t=0.32
0.023326646602798234
% es.normE (V/m) @ t=0.34
0.09202843876813885
% es.EX (V/m) @ t=0.34
-0.08776097354227569
% es.EY (V/m) @ t=0.34
0.007807584892573383
% es.EZ (V/m) @ t=0.34
-0.026576054695125972
% es.tEX (V/m) @ t=0.34
-0.08776097354227552
% es.tEY (V/m) @ t=0.34
0
% es.tEZ (V/m) @ t=0.34
-0.02657605469512747
% es.Ex (V/m) @ t=0.34
-0.08776097354227569
% es.Ey (V/m) @ t=0.34
0.007807584892573383
% es.Ez (V/m) @ t=0.34
-0.026576054695125972
% es.tEx (V/m) @ t=0.34
-0.08776097354227552
% es.tEy (V/m) @ t=0.34
0
% es.tEz (V/m) @ t=0.34
-0.02657605469512747
% V (V) @ t=0.34
0.02354317651672494
% es.normE (V/m) @ t=0.36
0.09287483728657463
% es.EX (V/m) @ t=0.36
-0.08856812358081873
% es.EY (V/m) @ t=0.36
0.007879392351028303
% es.EZ (V/m) @ t=0.36
-0.026820478417789118
% es.tEX (V/m) @ t=0.36
-0.08856812358080912
% es.tEY (V/m) @ t=0.36
0
% es.tEZ (V/m) @ t=0.36
-0.026820478417787008
% es.Ex (V/m) @ t=0.36
-0.08856812358081873
% es.Ey (V/m) @ t=0.36
0.007879392351028303
% es.Ez (V/m) @ t=0.36
-0.026820478417789118
% es.tEx (V/m) @ t=0.36
-0.08856812358080912
% es.tEy (V/m) @ t=0.36
0
% es.tEz (V/m) @ t=0.36
-0.026820478417787008
% V (V) @ t=0.36
0.023759706430651634
% es.normE (V/m) @ t=0.38
0.09372123580499328
% es.EX (V/m) @ t=0.38
-0.08937527361934039
% es.EY (V/m) @ t=0.38
0.007951199809533405
% es.EZ (V/m) @ t=0.38
-0.027064902140448766
% es.tEX (V/m) @ t=0.38
-0.08937527361932851
% es.tEY (V/m) @ t=0.38
0
% es.tEZ (V/m) @ t=0.38
-0.027064902140450986
% es.Ex (V/m) @ t=0.38
-0.08937527361934039
% es.Ey (V/m) @ t=0.38
0.007951199809533405
% es.Ez (V/m) @ t=0.38
-0.027064902140448766
% es.tEx (V/m) @ t=0.38
-0.08937527361932851
% es.tEy (V/m) @ t=0.38
0
% es.tEz (V/m) @ t=0.38
-0.027064902140450986
% V (V) @ t=0.38
0.023976236344578336
% es.normE (V/m) @ t=0.4
0.09456763432341725
% es.EX (V/m) @ t=0.4
-0.09018242365786744
% es.EY (V/m) @ t=0.4
0.008023007268016746
% es.EZ (V/m) @ t=0.4
-0.027309325863115463
% es.tEX (V/m) @ t=0.4
-0.09018242365786033
% es.tEY (V/m) @ t=0.4
0
% es.tEZ (V/m) @ t=0.4
-0.027309325863113187
% es.Ex (V/m) @ t=0.4
-0.09018242365786744
% es.Ey (V/m) @ t=0.4
0.008023007268016746
% es.Ez (V/m) @ t=0.4
-0.027309325863115463
% es.tEx (V/m) @ t=0.4
-0.09018242365786033
% es.tEy (V/m) @ t=0.4
0
% es.tEz (V/m) @ t=0.4
-0.027309325863113187
% V (V) @ t=0.4
0.024192766258505038
% es.normE (V/m) @ t=0.42
0.09541403284183615
% es.EX (V/m) @ t=0.42
-0.0909895736963855
% es.EY (V/m) @ t=0.42
0.008094814726528843
% es.EZ (V/m) @ t=0.42
-0.027553749585785825
% es.tEX (V/m) @ t=0.42
-0.09098957369637972
% es.tEY (V/m) @ t=0.42
0
% es.tEZ (V/m) @ t=0.42
-0.02755374958577983
% es.Ex (V/m) @ t=0.42
-0.0909895736963855
% es.Ey (V/m) @ t=0.42
0.008094814726528843
% es.Ez (V/m) @ t=0.42
-0.027553749585785825
% es.tEx (V/m) @ t=0.42
-0.09098957369637972
% es.tEy (V/m) @ t=0.42
0
% es.tEz (V/m) @ t=0.42
-0.02755374958577983
% V (V) @ t=0.42
0.024409296172431736
% es.normE (V/m) @ t=0.44
0.09631616645327305
% es.EX (V/m) @ t=0.44
-0.09184987441229803
% es.EY (V/m) @ t=0.44
0.008171350674077815
% es.EZ (V/m) @ t=0.44
-0.027814268260389796
% es.tEX (V/m) @ t=0.44
-0.09184987441229264
% es.tEY (V/m) @ t=0.44
0
% es.tEZ (V/m) @ t=0.44
-0.027814268260389685
% es.Ex (V/m) @ t=0.44
-0.09184987441229803
% es.Ey (V/m) @ t=0.44
0.008171350674077815
% es.Ez (V/m) @ t=0.44
-0.027814268260389796
% es.tEx (V/m) @ t=0.44
-0.09184987441229264
% es.tEy (V/m) @ t=0.44
0
% es.tEz (V/m) @ t=0.44
-0.027814268260389685
% V (V) @ t=0.44
0.024640084313339694
% es.normE (V/m) @ t=0.46
0.0972671047546393
% es.EX (V/m) @ t=0.46
-0.0927567167627269
% es.EY (V/m) @ t=0.46
0.008252027144839635
% es.EZ (V/m) @ t=0.46
-0.02808888055352271
% es.tEX (V/m) @ t=0.46
-0.09275671676271813
% es.tEY (V/m) @ t=0.46
0
% es.tEZ (V/m) @ t=0.46
-0.028088880553521545
% es.Ex (V/m) @ t=0.46
-0.0927567167627269
% es.Ey (V/m) @ t=0.46
0.008252027144839635
% es.Ez (V/m) @ t=0.46
-0.02808888055352271
% es.tEx (V/m) @ t=0.46
-0.09275671676271813
% es.tEy (V/m) @ t=0.46
0
% es.tEz (V/m) @ t=0.46
-0.028088880553521545
% V (V) @ t=0.46
0.024883357736124732
% es.normE (V/m) @ t=0.48
0.09821804305599256
% es.EX (V/m) @ t=0.48
-0.09366355911314866
% es.EY (V/m) @ t=0.48
0.008332703615551718
% es.EZ (V/m) @ t=0.48
-0.028363492846648575
% es.tEX (V/m) @ t=0.48
-0.09366355911314717
% es.tEY (V/m) @ t=0.48
0
% es.tEZ (V/m) @ t=0.48
-0.028363492846653404
% es.Ex (V/m) @ t=0.48
-0.09366355911314866
% es.Ey (V/m) @ t=0.48
0.008332703615551718
% es.Ez (V/m) @ t=0.48
-0.028363492846648575
% es.tEx (V/m) @ t=0.48
-0.09366355911314717
% es.tEy (V/m) @ t=0.48
0
% es.tEz (V/m) @ t=0.48
-0.028363492846653404
% V (V) @ t=0.48
0.025126631158909764
% es.normE (V/m) @ t=0.5
0.09916898135736649
% es.EX (V/m) @ t=0.5
-0.09457040146358453
% es.EY (V/m) @ t=0.5
0.00841338008631265
% es.EZ (V/m) @ t=0.5
-0.028638105139785153
% es.tEX (V/m) @ t=0.5
-0.09457040146357709
% es.tEY (V/m) @ t=0.5
0
% es.tEZ (V/m) @ t=0.5
-0.02863810513978704
% es.Ex (V/m) @ t=0.5
-0.09457040146358453
% es.Ey (V/m) @ t=0.5
0.00841338008631265
% es.Ez (V/m) @ t=0.5
-0.028638105139785153
% es.tEx (V/m) @ t=0.5
-0.09457040146357709
% es.tEy (V/m) @ t=0.5
0
% es.tEz (V/m) @ t=0.5
-0.02863810513978704
% V (V) @ t=0.5
0.025369904581694802
% es.normE (V/m) @ t=0.52
0.1001199196587213
% es.EX (V/m) @ t=0.52
-0.0954772438140063
% es.EY (V/m) @ t=0.52
0.008494056557031393
% es.EZ (V/m) @ t=0.52
-0.028912717432914514
% es.tEX (V/m) @ t=0.52
-0.09547724381399902
% es.tEY (V/m) @ t=0.52
0
% es.tEZ (V/m) @ t=0.52
-0.028912717432915347
% es.Ex (V/m) @ t=0.52
-0.0954772438140063
% es.Ey (V/m) @ t=0.52
0.008494056557031393
% es.Ez (V/m) @ t=0.52
-0.028912717432914514
% es.tEx (V/m) @ t=0.52
-0.09547724381399902
% es.tEy (V/m) @ t=0.52
0
% es.tEz (V/m) @ t=0.52
-0.028912717432915347
% V (V) @ t=0.52
0.025613178004479837
% es.normE (V/m) @ t=0.54
0.10107085796009432
% es.EX (V/m) @ t=0.54
-0.09638408616443689
% es.EY (V/m) @ t=0.54
0.008574733027828851
% es.EZ (V/m) @ t=0.54
-0.02918732972605459
% es.tEX (V/m) @ t=0.54
-0.0963840861644254
% es.tEY (V/m) @ t=0.54
0
% es.tEZ (V/m) @ t=0.54
-0.02918732972605209
% es.Ex (V/m) @ t=0.54
-0.09638408616443689
% es.Ey (V/m) @ t=0.54
0.008574733027828851
% es.Ez (V/m) @ t=0.54
-0.02918732972605459
% es.tEx (V/m) @ t=0.54
-0.0963840861644254
% es.tEy (V/m) @ t=0.54
0
% es.tEz (V/m) @ t=0.54
-0.02918732972605209
% V (V) @ t=0.54
0.025856451427264872
% es.normE (V/m) @ t=0.56
0.10202179626145104
% es.EX (V/m) @ t=0.56
-0.09729092851486398
% es.EY (V/m) @ t=0.56
0.008655409498533828
% es.EZ (V/m) @ t=0.56
-0.0294619420191769
% es.tEX (V/m) @ t=0.56
-0.09729092851484467
% es.tEY (V/m) @ t=0.56
0
% es.tEZ (V/m) @ t=0.56
-0.029461942019176846
% es.Ex (V/m) @ t=0.56
-0.09729092851486398
% es.Ey (V/m) @ t=0.56
0.008655409498533828
% es.Ez (V/m) @ t=0.56
-0.0294619420191769
% es.tEx (V/m) @ t=0.56
-0.09729092851484467
% es.tEy (V/m) @ t=0.56
0
% es.tEz (V/m) @ t=0.56
-0.029461942019176846
% V (V) @ t=0.56
0.026099724850049914
% es.normE (V/m) @ t=0.58
0.10297273456280422
% es.EX (V/m) @ t=0.58
-0.09819777086528036
% es.EY (V/m) @ t=0.58
0.008736085969281326
% es.EZ (V/m) @ t=0.58
-0.02973655431230987
% es.tEX (V/m) @ t=0.58
-0.09819777086527459
% es.tEY (V/m) @ t=0.58
0
% es.tEZ (V/m) @ t=0.58
-0.029736554312308705
% es.Ex (V/m) @ t=0.58
-0.09819777086528036
% es.Ey (V/m) @ t=0.58
0.008736085969281326
% es.Ez (V/m) @ t=0.58
-0.02973655431230987
% es.tEx (V/m) @ t=0.58
-0.09819777086527459
% es.tEy (V/m) @ t=0.58
0
% es.tEz (V/m) @ t=0.58
-0.029736554312308705
% V (V) @ t=0.58
0.02634299827283495
% es.normE (V/m) @ t=0.6
0.10392367286416175
% es.EX (V/m) @ t=0.6
-0.09910461321570385
% es.EY (V/m) @ t=0.6
0.008816762440000181
% es.EZ (V/m) @ t=0.6
-0.03001116660544284
% es.tEX (V/m) @ t=0.6
-0.09910461321570274
% es.tEY (V/m) @ t=0.6
0
% es.tEZ (V/m) @ t=0.6
-0.030011166605444117
% es.Ex (V/m) @ t=0.6
-0.09910461321570385
% es.Ey (V/m) @ t=0.6
0.008816762440000181
% es.Ez (V/m) @ t=0.6
-0.03001116660544284
% es.tEx (V/m) @ t=0.6
-0.09910461321570274
% es.tEy (V/m) @ t=0.6
0
% es.tEz (V/m) @ t=0.6
-0.030011166605444117
% V (V) @ t=0.6
0.026586271695619987
% es.normE (V/m) @ t=0.62
0.10487461116553524
% es.EX (V/m) @ t=0.62
-0.1000114555661416
% es.EY (V/m) @ t=0.62
0.008897438910746902
% es.EZ (V/m) @ t=0.62
-0.03028577889857581
% es.tEX (V/m) @ t=0.62
-0.10001145556613267
% es.tEY (V/m) @ t=0.62
0
% es.tEZ (V/m) @ t=0.62
-0.030285778898583082
% es.Ex (V/m) @ t=0.62
-0.1000114555661416
% es.Ey (V/m) @ t=0.62
0.008897438910746902
% es.Ez (V/m) @ t=0.62
-0.03028577889857581
% es.tEx (V/m) @ t=0.62
-0.10001145556613267
% es.tEy (V/m) @ t=0.62
0
% es.tEz (V/m) @ t=0.62
-0.030285778898583082
% V (V) @ t=0.62
0.026829545118405018
% es.normE (V/m) @ t=0.64
0.10582554946689397
% es.EX (V/m) @ t=0.64
-0.10091829791656337
% es.EY (V/m) @ t=0.64
0.008978115381487406
% es.EZ (V/m) @ t=0.64
-0.030560391191712277
% es.tEX (V/m) @ t=0.64
-0.10091829791656082
% es.tEY (V/m) @ t=0.64
0
% es.tEZ (V/m) @ t=0.64
-0.030560391191707836
% es.Ex (V/m) @ t=0.64
-0.10091829791656337
% es.Ey (V/m) @ t=0.64
0.008978115381487406
% es.Ez (V/m) @ t=0.64
-0.030560391191712277
% es.tEx (V/m) @ t=0.64
-0.10091829791656082
% es.tEy (V/m) @ t=0.64
0
% es.tEz (V/m) @ t=0.64
-0.030560391191707836
% V (V) @ t=0.64
0.02707281854119006
% es.normE (V/m) @ t=0.66
0.10677648776824812
% es.EX (V/m) @ t=0.66
-0.10182514026698503
% es.EY (V/m) @ t=0.66
0.009058791852235015
% es.EZ (V/m) @ t=0.66
-0.03083500348483109
% es.tEX (V/m) @ t=0.66
-0.10182514026698009
% es.tEY (V/m) @ t=0.66
0
% es.tEZ (V/m) @ t=0.66
-0.030835003484836143
% es.Ex (V/m) @ t=0.66
-0.10182514026698503
% es.Ey (V/m) @ t=0.66
0.009058791852235015
% es.Ez (V/m) @ t=0.66
-0.03083500348483109
% es.tEx (V/m) @ t=0.66
-0.10182514026698009
% es.tEy (V/m) @ t=0.66
0
% es.tEz (V/m) @ t=0.66
-0.030835003484836143
% V (V) @ t=0.66
0.027316091963975095
% es.normE (V/m) @ t=0.68
0.10772742606960774
% es.EX (V/m) @ t=0.68
-0.10273198261740857
% es.EY (V/m) @ t=0.68
0.009139468322953759
% es.EZ (V/m) @ t=0.68
-0.03110961577797111
% es.tEX (V/m) @ t=0.68
-0.10273198261740824
% es.tEY (V/m) @ t=0.68
0
% es.tEZ (V/m) @ t=0.68
-0.031109615777970667
% es.Ex (V/m) @ t=0.68
-0.10273198261740857
% es.Ey (V/m) @ t=0.68
0.009139468322953759
% es.Ez (V/m) @ t=0.68
-0.03110961577797111
% es.tEx (V/m) @ t=0.68
-0.10273198261740824
% es.tEy (V/m) @ t=0.68
0
% es.tEz (V/m) @ t=0.68
-0.031109615777970667
% V (V) @ t=0.68
0.02755936538676013
% es.normE (V/m) @ t=0.7
0.10867836437098054
% es.EX (V/m) @ t=0.7
-0.10363882496784449
% es.EY (V/m) @ t=0.7
0.009220144793736895
% es.EZ (V/m) @ t=0.7
-0.031384228071096976
% es.tEX (V/m) @ t=0.7
-0.10363882496783638
% es.tEY (V/m) @ t=0.7
0
% es.tEZ (V/m) @ t=0.7
-0.03138422807110608
% es.Ex (V/m) @ t=0.7
-0.10363882496784449
% es.Ey (V/m) @ t=0.7
0.009220144793736895
% es.Ez (V/m) @ t=0.7
-0.031384228071096976
% es.tEx (V/m) @ t=0.7
-0.10363882496783638
% es.tEy (V/m) @ t=0.7
0
% es.tEz (V/m) @ t=0.7
-0.03138422807110608
% V (V) @ t=0.7
0.027802638809545168
% es.normE (V/m) @ t=0.72
0.10965325431235105
% es.EX (V/m) @ t=0.72
-0.1045685082425149
% es.EY (V/m) @ t=0.72
0.009302853300003466
% es.EZ (V/m) @ t=0.72
-0.03166575730505816
% es.tEX (V/m) @ t=0.72
-0.1045685082425063
% es.tEY (V/m) @ t=0.72
0
% es.tEZ (V/m) @ t=0.72
-0.03166575730506249
% es.Ex (V/m) @ t=0.72
-0.1045685082425149
% es.Ey (V/m) @ t=0.72
0.009302853300003466
% es.Ez (V/m) @ t=0.72
-0.03166575730505816
% es.tEx (V/m) @ t=0.72
-0.1045685082425063
% es.tEy (V/m) @ t=0.72
0
% es.tEz (V/m) @ t=0.72
-0.03166575730506249
% V (V) @ t=0.72
0.028052039781957652
% es.normE (V/m) @ t=0.74
0.11071045302726082
% es.EX (V/m) @ t=0.74
-0.10557668336409454
% es.EY (V/m) @ t=0.74
0.009392544808531578
% es.EZ (V/m) @ t=0.74
-0.031971056306584145
% es.tEX (V/m) @ t=0.74
-0.10557668336408632
% es.tEY (V/m) @ t=0.74
0
% es.tEZ (V/m) @ t=0.74
-0.03197105630659358
% es.Ex (V/m) @ t=0.74
-0.10557668336409454
% es.Ey (V/m) @ t=0.74
0.009392544808531578
% es.Ez (V/m) @ t=0.74
-0.031971056306584145
% es.tEx (V/m) @ t=0.74
-0.10557668336408632
% es.tEy (V/m) @ t=0.74
0
% es.tEz (V/m) @ t=0.74
-0.03197105630659358
% V (V) @ t=0.74
0.028322497813264617
% es.normE (V/m) @ t=0.76
0.11176765174213776
% es.EX (V/m) @ t=0.76
-0.1065848584856493
% es.EY (V/m) @ t=0.76
0.009482236316988857
% es.EZ (V/m) @ t=0.76
-0.03227635530809947
% es.tEX (V/m) @ t=0.76
-0.1065848584856397
% es.tEY (V/m) @ t=0.76
0
% es.tEZ (V/m) @ t=0.76
-0.03227635530810247
% es.Ex (V/m) @ t=0.76
-0.1065848584856493
% es.Ey (V/m) @ t=0.76
0.009482236316988857
% es.Ez (V/m) @ t=0.76
-0.03227635530809947
% es.tEx (V/m) @ t=0.76
-0.1065848584856397
% es.tEy (V/m) @ t=0.76
0
% es.tEz (V/m) @ t=0.76
-0.03227635530810247
% V (V) @ t=0.76
0.028592955844571572
% es.normE (V/m) @ t=0.78
0.11282485045703662
% es.EX (V/m) @ t=0.78
-0.10759303360722006
% es.EY (V/m) @ t=0.78
0.009571927825488435
% es.EZ (V/m) @ t=0.78
-0.03258165430962545
% es.tEX (V/m) @ t=0.78
-0.10759303360721084
% es.tEY (V/m) @ t=0.78
0
% es.tEZ (V/m) @ t=0.78
-0.0325816543096229
% es.Ex (V/m) @ t=0.78
-0.10759303360722006
% es.Ey (V/m) @ t=0.78
0.009571927825488435
% es.Ez (V/m) @ t=0.78
-0.03258165430962545
% es.tEx (V/m) @ t=0.78
-0.10759303360721084
% es.tEy (V/m) @ t=0.78
0
% es.tEz (V/m) @ t=0.78
-0.0325816543096229
% V (V) @ t=0.78
0.028863413875878527
% es.normE (V/m) @ t=0.8
0.11388204917193813
% es.EX (V/m) @ t=0.8
-0.10860120872879253
% es.EY (V/m) @ t=0.8
0.009661619334023541
% es.EZ (V/m) @ t=0.8
-0.03288695331114444
% es.tEX (V/m) @ t=0.8
-0.10860120872878909
% es.tEY (V/m) @ t=0.8
0
% es.tEZ (V/m) @ t=0.8
-0.03288695331113978
% es.Ex (V/m) @ t=0.8
-0.10860120872879253
% es.Ey (V/m) @ t=0.8
0.009661619334023541
% es.Ez (V/m) @ t=0.8
-0.03288695331114444
% es.tEx (V/m) @ t=0.8
-0.10860120872878909
% es.tEy (V/m) @ t=0.8
0
% es.tEz (V/m) @ t=0.8
-0.03288695331113978
% V (V) @ t=0.8
0.029133871907185492
% es.normE (V/m) @ t=0.82
0.11493924788681663
% es.EX (V/m) @ t=0.82
-0.10960938385034913
% es.EY (V/m) @ t=0.82
0.00975131084246672
% es.EZ (V/m) @ t=0.82
-0.033192252312663206
% es.tEX (V/m) @ t=0.82
-0.10960938385034602
% es.tEY (V/m) @ t=0.82
0
% es.tEZ (V/m) @ t=0.82
-0.03319225231266376
% es.Ex (V/m) @ t=0.82
-0.10960938385034913
% es.Ey (V/m) @ t=0.82
0.00975131084246672
% es.Ez (V/m) @ t=0.82
-0.033192252312663206
% es.tEx (V/m) @ t=0.82
-0.10960938385034602
% es.tEy (V/m) @ t=0.82
0
% es.tEz (V/m) @ t=0.82
-0.03319225231266376
% V (V) @ t=0.82
0.029404329938492447
% es.normE (V/m) @ t=0.84
0.11599644660172177
% es.EX (V/m) @ t=0.84
-0.11061755897192516
% es.EY (V/m) @ t=0.84
0.009841002351016814
% es.EZ (V/m) @ t=0.84
-0.03349755131417864
% es.tEX (V/m) @ t=0.84
-0.11061755897191539
% es.tEY (V/m) @ t=0.84
0
% es.tEZ (V/m) @ t=0.84
-0.03349755131416998
% es.Ex (V/m) @ t=0.84
-0.11061755897192516
% es.Ey (V/m) @ t=0.84
0.009841002351016814
% es.Ez (V/m) @ t=0.84
-0.03349755131417864
% es.tEx (V/m) @ t=0.84
-0.11061755897191539
% es.tEy (V/m) @ t=0.84
0
% es.tEz (V/m) @ t=0.84
-0.03349755131416998
% V (V) @ t=0.84
0.02967478796979941
% es.normE (V/m) @ t=0.86
0.11705364531659608
% es.EX (V/m) @ t=0.86
-0.11162573409347631
% es.EY (V/m) @ t=0.86
0.009930693859458994
% es.EZ (V/m) @ t=0.86
-0.03380285031570118
% es.tEX (V/m) @ t=0.86
-0.11162573409347232
% es.tEY (V/m) @ t=0.86
0
% es.tEZ (V/m) @ t=0.86
-0.03380285031570107
% es.Ex (V/m) @ t=0.86
-0.11162573409347631
% es.Ey (V/m) @ t=0.86
0.009930693859458994
% es.Ez (V/m) @ t=0.86
-0.03380285031570118
% es.tEx (V/m) @ t=0.86
-0.11162573409347232
% es.tEy (V/m) @ t=0.86
0
% es.tEz (V/m) @ t=0.86
-0.03380285031570107
% V (V) @ t=0.86
0.029945246001106374
% es.normE (V/m) @ t=0.88
0.11811084403150893
% es.EX (V/m) @ t=0.88
-0.11263390921506133
% es.EY (V/m) @ t=0.88
0.010020385367987106
% es.EZ (V/m) @ t=0.88
-0.03410814931722006
% es.tEX (V/m) @ t=0.88
-0.11263390921505056
% es.tEY (V/m) @ t=0.88
0
% es.tEZ (V/m) @ t=0.88
-0.0341081493172215
% es.Ex (V/m) @ t=0.88
-0.11263390921506133
% es.Ey (V/m) @ t=0.88
0.010020385367987106
% es.Ez (V/m) @ t=0.88
-0.03410814931722006
% es.tEx (V/m) @ t=0.88
-0.11263390921505056
% es.tEy (V/m) @ t=0.88
0
% es.tEz (V/m) @ t=0.88
-0.0341081493172215
% V (V) @ t=0.88
0.03021570403241333
% es.normE (V/m) @ t=0.9
0.11916804274638998
% es.EX (V/m) @ t=0.9
-0.11364208433661782
% es.EY (V/m) @ t=0.9
0.01011007687647325
% es.EZ (V/m) @ t=0.9
-0.034413448318735385
% es.tEX (V/m) @ t=0.9
-0.1136420843366075
% es.tEY (V/m) @ t=0.9
0
% es.tEZ (V/m) @ t=0.9
-0.03441344831873483
% es.Ex (V/m) @ t=0.9
-0.11364208433661782
% es.Ey (V/m) @ t=0.9
0.01011007687647325
% es.Ez (V/m) @ t=0.9
-0.034413448318735385
% es.tEx (V/m) @ t=0.9
-0.1136420843366075
% es.tEy (V/m) @ t=0.9
0
% es.tEz (V/m) @ t=0.9
-0.03441344831873483
% V (V) @ t=0.9
0.03048616206372029
% es.normE (V/m) @ t=0.92
0.12022524146128276
% es.EX (V/m) @ t=0.92
-0.1146502594581833
% es.EY (V/m) @ t=0.92
0.010199768384972385
% es.EZ (V/m) @ t=0.92
-0.034718747320257815
% es.tEX (V/m) @ t=0.92
-0.11465025945816976
% es.tEY (V/m) @ t=0.92
0
% es.tEZ (V/m) @ t=0.92
-0.034718747320262366
% es.Ex (V/m) @ t=0.92
-0.1146502594581833
% es.Ey (V/m) @ t=0.92
0.010199768384972385
% es.Ez (V/m) @ t=0.92
-0.034718747320257815
% es.tEx (V/m) @ t=0.92
-0.11465025945816976
% es.tEy (V/m) @ t=0.92
0
% es.tEz (V/m) @ t=0.92
-0.034718747320262366
% V (V) @ t=0.92
0.030756620095027245
% es.normE (V/m) @ t=0.94
0.1212824401761798
% es.EX (V/m) @ t=0.94
-0.11565843457975233
% es.EY (V/m) @ t=0.94
0.010289459893494168
% es.EZ (V/m) @ t=0.94
-0.03502404632177669
% es.tEX (V/m) @ t=0.94
-0.115658434579748
% es.tEY (V/m) @ t=0.94
0
% es.tEZ (V/m) @ t=0.94
-0.03502404632177569
% es.Ex (V/m) @ t=0.94
-0.11565843457975233
% es.Ey (V/m) @ t=0.94
0.010289459893494168
% es.Ez (V/m) @ t=0.94
-0.03502404632177669
% es.tEx (V/m) @ t=0.94
-0.115658434579748
% es.tEy (V/m) @ t=0.94
0
% es.tEz (V/m) @ t=0.94
-0.03502404632177569
% V (V) @ t=0.94
0.03102707812633421
% es.normE (V/m) @ t=0.96
0.12233963889105877
% es.EX (V/m) @ t=0.96
-0.11666660970130704
% es.EY (V/m) @ t=0.96
0.010379151401951558
% es.EZ (V/m) @ t=0.96
-0.03532934532329912
% es.tEX (V/m) @ t=0.96
-0.11666660970130316
% es.tEY (V/m) @ t=0.96
0
% es.tEZ (V/m) @ t=0.96
-0.03532934532329257
% es.Ex (V/m) @ t=0.96
-0.11666660970130704
% es.Ey (V/m) @ t=0.96
0.010379151401951558
% es.Ez (V/m) @ t=0.96
-0.03532934532329912
% es.tEx (V/m) @ t=0.96
-0.11666660970130316
% es.tEy (V/m) @ t=0.96
0
% es.tEz (V/m) @ t=0.96
-0.03532934532329257
% V (V) @ t=0.96
0.03129753615764117
% es.normE (V/m) @ t=0.98
0.12343863155602891
% es.EX (V/m) @ t=0.98
-0.11771464078142402
% es.EY (V/m) @ t=0.98
0.010472388654708453
% es.EZ (V/m) @ t=0.98
-0.035646713480910086
% es.tEX (V/m) @ t=0.98
-0.11771464078141669
% es.tEY (V/m) @ t=0.98
0
% es.tEZ (V/m) @ t=0.98
-0.03564671348091064
% es.Ex (V/m) @ t=0.98
-0.11771464078142402
% es.Ey (V/m) @ t=0.98
0.010472388654708453
% es.Ez (V/m) @ t=0.98
-0.035646713480910086
% es.tEx (V/m) @ t=0.98
-0.11771464078141669
% es.tEy (V/m) @ t=0.98
0
% es.tEz (V/m) @ t=0.98
-0.03564671348091064
% V (V) @ t=0.98
0.031578686024982504
% es.normE (V/m) @ t=1
0.12461577712912274
% es.EX (V/m) @ t=1
-0.11883720080799587
% es.EY (V/m) @ t=1
0.010572256298218785
% es.EZ (V/m) @ t=1
-0.03598665044679805
% es.tEX (V/m) @ t=1
-0.11883720080798454
% es.tEY (V/m) @ t=1
0
% es.tEZ (V/m) @ t=1
-0.035986650446800716
% es.Ex (V/m) @ t=1
-0.11883720080799587
% es.Ey (V/m) @ t=1
0.010572256298218785
% es.Ez (V/m) @ t=1
-0.03598665044679805