% Model:              1 neuron.mph
% Version:            COMSOL 6.1.0.252
% Date:               Mar 26 2023, 15:03
% Dimension:          0
% Nodes:              14017
% Expressions:        14017
% Description:        Electric field norm, Electric field, X component, Electric field, Y component, Electric field, Z component, Tangential electric field, X component, Tangential electric field, Y component, Tangential electric field, Z component, Electric field, x component, Electric field, y component, Electric field, z component, Tangential electric field, x component, Tangential electric field, y component, Tangential electric field, z component, Electric potential
% Length unit:        mm
% x
1.66
% y
14.200000000000001
% z
2
% es.normE (V/m) @ t=0
0.0955541849546567
% es.EX (V/m) @ t=0
-0.04173192827454031
% es.EY (V/m) @ t=0
0.018129889452701775
% es.EZ (V/m) @ t=0
-0.08402592179363566
% es.tEX (V/m) @ t=0
-0.041731928274536756
% es.tEY (V/m) @ t=0
0
% es.tEZ (V/m) @ t=0
-0.08402592179364099
% es.Ex (V/m) @ t=0
-0.04173192827454031
% es.Ey (V/m) @ t=0
0.018129889452701775
% es.Ez (V/m) @ t=0
-0.08402592179363566
% es.tEx (V/m) @ t=0
-0.041731928274536756
% es.tEy (V/m) @ t=0
0
% es.tEz (V/m) @ t=0
-0.08402592179364099
% V (V) @ t=0
0.022184636074485717
% es.normE (V/m) @ t=0.02
0.0875075177644659
% es.EX (V/m) @ t=0.02
-0.0382176610413012
% es.EY (V/m) @ t=0.02
0.01660316211157209
% es.EZ (V/m) @ t=0.02
-0.07695005560574586
% es.tEX (V/m) @ t=0.02
-0.038217661041297646
% es.tEY (V/m) @ t=0.02
0
% es.tEZ (V/m) @ t=0.02
-0.07695005560575208
% es.Ex (V/m) @ t=0.02
-0.0382176610413012
% es.Ey (V/m) @ t=0.02
0.01660316211157209
% es.Ez (V/m) @ t=0.02
-0.07695005560574586
% es.tEx (V/m) @ t=0.02
-0.038217661041297646
% es.tEy (V/m) @ t=0.02
0
% es.tEz (V/m) @ t=0.02
-0.07695005560575208
% V (V) @ t=0.02
0.02031645644106654
% es.normE (V/m) @ t=0.04
0.08831058324379712
% es.EX (V/m) @ t=0.04
-0.03856838833115006
% es.EY (V/m) @ t=0.04
0.016755531024518433
% es.EZ (V/m) @ t=0.04
-0.077656234228062
% es.tEX (V/m) @ t=0.04
-0.038568388331162495
% es.tEY (V/m) @ t=0.04
0
% es.tEZ (V/m) @ t=0.04
-0.07765623422806733
% es.Ex (V/m) @ t=0.04
-0.03856838833115006
% es.Ey (V/m) @ t=0.04
0.016755531024518433
% es.Ez (V/m) @ t=0.04
-0.077656234228062
% es.tEx (V/m) @ t=0.04
-0.038568388331162495
% es.tEy (V/m) @ t=0.04
0
% es.tEz (V/m) @ t=0.04
-0.07765623422806733
% V (V) @ t=0.04
0.02050290267969267
% es.normE (V/m) @ t=0.06
0.0891222098855819
% es.EX (V/m) @ t=0.06
-0.038922854756869185
% es.EY (V/m) @ t=0.06
0.016909524299439482
% es.EZ (V/m) @ t=0.06
-0.078369941051605
% es.tEX (V/m) @ t=0.06
-0.03892285475687096
% es.tEY (V/m) @ t=0.06
0
% es.tEZ (V/m) @ t=0.06
-0.07836994105160944
% es.Ex (V/m) @ t=0.06
-0.038922854756869185
% es.Ey (V/m) @ t=0.06
0.016909524299439482
% es.Ez (V/m) @ t=0.06
-0.078369941051605
% es.tEx (V/m) @ t=0.06
-0.03892285475687096
% es.tEy (V/m) @ t=0.06
0
% es.tEz (V/m) @ t=0.06
-0.07836994105160944
% V (V) @ t=0.06
0.020691336500169955
% es.normE (V/m) @ t=0.08
0.08994335211840264
% es.EX (V/m) @ t=0.08
-0.03928147674599103
% es.EY (V/m) @ t=0.08
0.017065322982876552
% es.EZ (V/m) @ t=0.08
-0.07909201556692835
% es.tEX (V/m) @ t=0.08
-0.039281476745987476
% es.tEY (V/m) @ t=0.08
0
% es.tEZ (V/m) @ t=0.08
-0.07909201556692924
% es.Ex (V/m) @ t=0.08
-0.03928147674599103
% es.Ey (V/m) @ t=0.08
0.017065322982876552
% es.Ez (V/m) @ t=0.08
-0.07909201556692835
% es.tEx (V/m) @ t=0.08
-0.039281476745987476
% es.tEy (V/m) @ t=0.08
0
% es.tEz (V/m) @ t=0.08
-0.07909201556692924
% V (V) @ t=0.08
0.02088197960304572
% es.normE (V/m) @ t=0.1
0.09077731208663276
% es.EX (V/m) @ t=0.1
-0.039645696381338524
% es.EY (V/m) @ t=0.1
0.017223553596025454
% es.EZ (V/m) @ t=0.1
-0.07982536156909958
% es.tEX (V/m) @ t=0.1
-0.039645696381338524
% es.tEY (V/m) @ t=0.1
0
% es.tEZ (V/m) @ t=0.1
-0.07982536156911024
% es.Ex (V/m) @ t=0.1
-0.039645696381338524
% es.Ey (V/m) @ t=0.1
0.017223553596025454
% es.Ez (V/m) @ t=0.1
-0.07982536156909958
% es.tEx (V/m) @ t=0.1
-0.039645696381338524
% es.tEy (V/m) @ t=0.1
0
% es.tEz (V/m) @ t=0.1
-0.07982536156911024
% V (V) @ t=0.1
0.02107559866371711
% es.normE (V/m) @ t=0.12
0.09161127205487474
% es.EX (V/m) @ t=0.12
-0.040009916016693126
% es.EY (V/m) @ t=0.12
0.01738178420922054
% es.EZ (V/m) @ t=0.12
-0.08055870757127082
% es.tEX (V/m) @ t=0.12
-0.0400099160166949
% es.tEY (V/m) @ t=0.12
0
% es.tEZ (V/m) @ t=0.12
-0.08055870757127792
% es.Ex (V/m) @ t=0.12
-0.040009916016693126
% es.Ey (V/m) @ t=0.12
0.01738178420922054
% es.Ez (V/m) @ t=0.12
-0.08055870757127082
% es.tEx (V/m) @ t=0.12
-0.0400099160166949
% es.tEy (V/m) @ t=0.12
0
% es.tEz (V/m) @ t=0.12
-0.08055870757127792
% V (V) @ t=0.12
0.02126921772438851
% es.normE (V/m) @ t=0.14
0.09244523202310531
% es.EX (V/m) @ t=0.14
-0.04037413565203707
% es.EY (V/m) @ t=0.14
0.0175400148223801
% es.EZ (V/m) @ t=0.14
-0.08129205357344205
% es.tEX (V/m) @ t=0.14
-0.04037413565204062
% es.tEY (V/m) @ t=0.14
0
% es.tEZ (V/m) @ t=0.14
-0.08129205357344205
% es.Ex (V/m) @ t=0.14
-0.04037413565203707
% es.Ey (V/m) @ t=0.14
0.0175400148223801
% es.Ez (V/m) @ t=0.14
-0.08129205357344205
% es.tEx (V/m) @ t=0.14
-0.04037413565204062
% es.tEy (V/m) @ t=0.14
0
% es.tEz (V/m) @ t=0.14
-0.08129205357344205
% V (V) @ t=0.14
0.021462836785059905
% es.normE (V/m) @ t=0.16
0.09331986327073265
% es.EX (V/m) @ t=0.16
-0.04075611949395608
% es.EY (V/m) @ t=0.16
0.01770596232632471
% es.EZ (V/m) @ t=0.16
-0.08206116318186929
% es.tEX (V/m) @ t=0.16
-0.040756119493966736
% es.tEY (V/m) @ t=0.16
0
% es.tEZ (V/m) @ t=0.16
-0.08206116318187462
% es.Ex (V/m) @ t=0.16
-0.04075611949395608
% es.Ey (V/m) @ t=0.16
0.01770596232632471
% es.Ez (V/m) @ t=0.16
-0.08206116318186929
% es.tEx (V/m) @ t=0.16
-0.040756119493966736
% es.tEy (V/m) @ t=0.16
0
% es.tEz (V/m) @ t=0.16
-0.08206116318187462
% V (V) @ t=0.16
0.021665897973379415
% es.normE (V/m) @ t=0.18
0.09420126047572022
% es.EX (V/m) @ t=0.18
-0.041141058538322284
% es.EY (V/m) @ t=0.18
0.017873193590098424
% es.EZ (V/m) @ t=0.18
-0.08283622232122667
% es.tEX (V/m) @ t=0.18
-0.04114105853832939
% es.tEY (V/m) @ t=0.18
0
% es.tEZ (V/m) @ t=0.18
-0.08283622232123466
% es.Ex (V/m) @ t=0.18
-0.041141058538322284
% es.Ey (V/m) @ t=0.18
0.017873193590098424
% es.Ez (V/m) @ t=0.18
-0.08283622232122667
% es.tEx (V/m) @ t=0.18
-0.04114105853832939
% es.tEy (V/m) @ t=0.18
0
% es.tEz (V/m) @ t=0.18
-0.08283622232123466
% V (V) @ t=0.18
0.021870529926965504
% es.normE (V/m) @ t=0.2
0.09508265768069803
% es.EX (V/m) @ t=0.2
-0.041525997582681384
% es.EY (V/m) @ t=0.2
0.01804042485388635
% es.EZ (V/m) @ t=0.2
-0.0836112814605734
% es.tEX (V/m) @ t=0.2
-0.04152599758267783
% es.tEY (V/m) @ t=0.2
0
% es.tEZ (V/m) @ t=0.2
-0.08361128146057961
% es.Ex (V/m) @ t=0.2
-0.041525997582681384
% es.Ey (V/m) @ t=0.2
0.01804042485388635
% es.Ez (V/m) @ t=0.2
-0.0836112814605734
% es.tEx (V/m) @ t=0.2
-0.04152599758267783
% es.tEy (V/m) @ t=0.2
0
% es.tEz (V/m) @ t=0.2
-0.08361128146057961
% V (V) @ t=0.2
0.022075161880551593
% es.normE (V/m) @ t=0.22
0.09596405488567249
% es.EX (V/m) @ t=0.22
-0.04191093662703693
% es.EY (V/m) @ t=0.22
0.018207656117631643
% es.EZ (V/m) @ t=0.22
-0.08438634059992722
% es.tEX (V/m) @ t=0.22
-0.04191093662704404
% es.tEY (V/m) @ t=0.22
0
% es.tEZ (V/m) @ t=0.22
-0.08438634059992811
% es.Ex (V/m) @ t=0.22
-0.04191093662703693
% es.Ey (V/m) @ t=0.22
0.018207656117631643
% es.Ez (V/m) @ t=0.22
-0.08438634059992722
% es.tEx (V/m) @ t=0.22
-0.04191093662704404
% es.tEy (V/m) @ t=0.22
0
% es.tEz (V/m) @ t=0.22
-0.08438634059992811
% V (V) @ t=0.22
0.022279793834137675
% es.normE (V/m) @ t=0.24
0.09684545209065563
% es.EX (V/m) @ t=0.24
-0.042295875671410244
% es.EY (V/m) @ t=0.24
0.018374887381398253
% es.EZ (V/m) @ t=0.24
-0.0851613997392775
% es.tEX (V/m) @ t=0.24
-0.042295875671410244
% es.tEY (V/m) @ t=0.24
0
% es.tEZ (V/m) @ t=0.24
-0.0851613997392846
% es.Ex (V/m) @ t=0.24
-0.042295875671410244
% es.Ey (V/m) @ t=0.24
0.018374887381398253
% es.Ez (V/m) @ t=0.24
-0.0851613997392775
% es.tEx (V/m) @ t=0.24
-0.042295875671410244
% es.tEy (V/m) @ t=0.24
0
% es.tEz (V/m) @ t=0.24
-0.0851613997392846
% V (V) @ t=0.24
0.02248442578772377
% es.normE (V/m) @ t=0.26
0.09772684929564664
% es.EX (V/m) @ t=0.26
-0.0426808147157729
% es.EY (V/m) @ t=0.26
0.018542118645164862
% es.EZ (V/m) @ t=0.26
-0.08593645887864199
% es.tEX (V/m) @ t=0.26
-0.04268081471578
% es.tEY (V/m) @ t=0.26
0
% es.tEZ (V/m) @ t=0.26
-0.08593645887864376
% es.Ex (V/m) @ t=0.26
-0.0426808147157729
% es.Ey (V/m) @ t=0.26
0.018542118645164862
% es.Ez (V/m) @ t=0.26
-0.08593645887864199
% es.tEx (V/m) @ t=0.26
-0.04268081471578
% es.tEy (V/m) @ t=0.26
0
% es.tEz (V/m) @ t=0.26
-0.08593645887864376
% V (V) @ t=0.26
0.022689057741309852
% es.normE (V/m) @ t=0.28
0.0986082465006069
% es.EX (V/m) @ t=0.28
-0.043065753760128445
% es.EY (V/m) @ t=0.28
0.01870934990891726
% es.EZ (V/m) @ t=0.28
-0.08671151801797805
% es.tEX (V/m) @ t=0.28
-0.043065753760142655
% es.tEY (V/m) @ t=0.28
0
% es.tEZ (V/m) @ t=0.28
-0.08671151801799049
% es.Ex (V/m) @ t=0.28
-0.043065753760128445
% es.Ey (V/m) @ t=0.28
0.01870934990891726
% es.Ez (V/m) @ t=0.28
-0.08671151801797805
% es.tEx (V/m) @ t=0.28
-0.043065753760142655
% es.tEy (V/m) @ t=0.28
0
% es.tEz (V/m) @ t=0.28
-0.08671151801799049
% V (V) @ t=0.28
0.02289368969489594
% es.normE (V/m) @ t=0.3
0.09952603517374888
% es.EX (V/m) @ t=0.3
-0.043466585118608236
% es.EY (V/m) @ t=0.3
0.01888348576131449
% es.EZ (V/m) @ t=0.3
-0.08751857871923718
% es.tEX (V/m) @ t=0.3
-0.043466585118608236
% es.tEY (V/m) @ t=0.3
0
% es.tEZ (V/m) @ t=0.3
-0.08751857871924251
% es.Ex (V/m) @ t=0.3
-0.043466585118608236
% es.Ey (V/m) @ t=0.3
0.01888348576131449
% es.Ez (V/m) @ t=0.3
-0.08751857871923718
% es.tEx (V/m) @ t=0.3
-0.043466585118608236
% es.tEy (V/m) @ t=0.3
0
% es.tEz (V/m) @ t=0.3
-0.08751857871924251
% V (V) @ t=0.3
0.023106770905208553
% es.normE (V/m) @ t=0.32
0.10045797831326687
% es.EX (V/m) @ t=0.32
-0.04387359779477151
% es.EY (V/m) @ t=0.32
0.0190603071543336
% es.EZ (V/m) @ t=0.32
-0.08833808643226249
% es.tEX (V/m) @ t=0.32
-0.043873597794775065
% es.tEY (V/m) @ t=0.32
0
% es.tEZ (V/m) @ t=0.32
-0.08833808643227137
% es.Ex (V/m) @ t=0.32
-0.04387359779477151
% es.Ey (V/m) @ t=0.32
0.0190603071543336
% es.Ez (V/m) @ t=0.32
-0.08833808643226249
% es.tEx (V/m) @ t=0.32
-0.043873597794775065
% es.tEy (V/m) @ t=0.32
0
% es.tEz (V/m) @ t=0.32
-0.08833808643227137
% V (V) @ t=0.32
0.02332313845505208
% es.normE (V/m) @ t=0.34
0.10138992145282466
% es.EX (V/m) @ t=0.34
-0.044280610470949
% es.EY (V/m) @ t=0.34
0.01923712854743087
% es.EZ (V/m) @ t=0.34
-0.0891575941453091
% es.tEX (V/m) @ t=0.34
-0.04428061047095966
% es.tEY (V/m) @ t=0.34
0
% es.tEZ (V/m) @ t=0.34
-0.08915759414531266
% es.Ex (V/m) @ t=0.34
-0.044280610470949
% es.Ey (V/m) @ t=0.34
0.01923712854743087
% es.Ez (V/m) @ t=0.34
-0.0891575941453091
% es.tEx (V/m) @ t=0.34
-0.04428061047095966
% es.tEy (V/m) @ t=0.34
0
% es.tEz (V/m) @ t=0.34
-0.08915759414531266
% V (V) @ t=0.34
0.023539506004895606
% es.normE (V/m) @ t=0.36
0.10232186459235408
% es.EX (V/m) @ t=0.36
-0.04468762314711583
% es.EY (V/m) @ t=0.36
0.01941394994048551
% es.EZ (V/m) @ t=0.36
-0.08997710185833796
% es.tEX (V/m) @ t=0.36
-0.04468762314712649
% es.tEY (V/m) @ t=0.36
0
% es.tEZ (V/m) @ t=0.36
-0.08997710185834329
% es.Ex (V/m) @ t=0.36
-0.04468762314711583
% es.Ey (V/m) @ t=0.36
0.01941394994048551
% es.Ez (V/m) @ t=0.36
-0.08997710185833796
% es.tEx (V/m) @ t=0.36
-0.04468762314712649
% es.tEy (V/m) @ t=0.36
0
% es.tEz (V/m) @ t=0.36
-0.08997710185834329
% V (V) @ t=0.36
0.023755873554739137
% es.normE (V/m) @ t=0.38
0.10325380773188528
% es.EX (V/m) @ t=0.38
-0.04509463582328266
% es.EY (V/m) @ t=0.38
0.01959077133353304
% es.EZ (V/m) @ t=0.38
-0.09079660957137037
% es.tEX (V/m) @ t=0.38
-0.04509463582328621
% es.tEY (V/m) @ t=0.38
0
% es.tEZ (V/m) @ t=0.38
-0.09079660957137037
% es.Ex (V/m) @ t=0.38
-0.04509463582328266
% es.Ey (V/m) @ t=0.38
0.01959077133353304
% es.Ez (V/m) @ t=0.38
-0.09079660957137037
% es.tEx (V/m) @ t=0.38
-0.04509463582328621
% es.tEy (V/m) @ t=0.38
0
% es.tEz (V/m) @ t=0.38
-0.09079660957137037
% V (V) @ t=0.38
0.023972241104582667
% es.normE (V/m) @ t=0.4
0.10418575087141316
% es.EX (V/m) @ t=0.4
-0.045501648499445935
% es.EY (V/m) @ t=0.4
0.01976759272658768
% es.EZ (V/m) @ t=0.4
-0.09161611728439922
% es.tEX (V/m) @ t=0.4
-0.045501648499460146
% es.tEY (V/m) @ t=0.4
0
% es.tEZ (V/m) @ t=0.4
-0.09161611728440278
% es.Ex (V/m) @ t=0.4
-0.045501648499445935
% es.Ey (V/m) @ t=0.4
0.01976759272658768
% es.Ez (V/m) @ t=0.4
-0.09161611728439922
% es.tEx (V/m) @ t=0.4
-0.045501648499460146
% es.tEy (V/m) @ t=0.4
0
% es.tEz (V/m) @ t=0.4
-0.09161611728440278
% V (V) @ t=0.4
0.0241886086544262
% es.normE (V/m) @ t=0.42
0.10511769401093654
% es.EX (V/m) @ t=0.42
-0.04590866117561632
% es.EY (V/m) @ t=0.42
0.019944414119635212
% es.EZ (V/m) @ t=0.42
-0.09243562499742097
% es.tEX (V/m) @ t=0.42
-0.04590866117562342
% es.tEY (V/m) @ t=0.42
0
% es.tEZ (V/m) @ t=0.42
-0.09243562499742453
% es.Ex (V/m) @ t=0.42
-0.04590866117561632
% es.Ey (V/m) @ t=0.42
0.019944414119635212
% es.Ez (V/m) @ t=0.42
-0.09243562499742097
% es.tEx (V/m) @ t=0.42
-0.04590866117562342
% es.tEy (V/m) @ t=0.42
0
% es.tEz (V/m) @ t=0.42
-0.09243562499742453
% V (V) @ t=0.42
0.02440497620426973
% es.normE (V/m) @ t=0.44
0.10611650419118367
% es.EX (V/m) @ t=0.44
-0.046344872667337
% es.EY (V/m) @ t=0.44
0.020133922023816808
% es.EZ (V/m) @ t=0.44
-0.09331393477474137
% es.tEX (V/m) @ t=0.44
-0.046344872667337
% es.tEY (V/m) @ t=0.44
0
% es.tEZ (V/m) @ t=0.44
-0.0933139347747467
% es.Ex (V/m) @ t=0.44
-0.046344872667337
% es.Ey (V/m) @ t=0.44
0.020133922023816808
% es.Ez (V/m) @ t=0.44
-0.09331393477474137
% es.tEx (V/m) @ t=0.44
-0.046344872667337
% es.tEy (V/m) @ t=0.44
0
% es.tEz (V/m) @ t=0.44
-0.0933139347747467
% V (V) @ t=0.44
0.024636869374089876
% es.normE (V/m) @ t=0.46
0.1071632274944152
% es.EX (V/m) @ t=0.46
-0.04680200637162457
% es.EY (V/m) @ t=0.46
0.020332520361186823
% es.EZ (V/m) @ t=0.46
-0.09423437877108398
% es.tEX (V/m) @ t=0.46
-0.046802006371628124
% es.tEY (V/m) @ t=0.46
0
% es.tEZ (V/m) @ t=0.46
-0.09423437877109109
% es.Ex (V/m) @ t=0.46
-0.04680200637162457
% es.Ey (V/m) @ t=0.46
0.020332520361186823
% es.Ez (V/m) @ t=0.46
-0.09423437877108398
% es.tEx (V/m) @ t=0.46
-0.046802006371628124
% es.tEy (V/m) @ t=0.46
0
% es.tEz (V/m) @ t=0.46
-0.09423437877109109
% V (V) @ t=0.46
0.02487988732125166
% es.normE (V/m) @ t=0.48
0.1082099507976702
% es.EX (V/m) @ t=0.48
-0.047259140075926354
% es.EY (V/m) @ t=0.48
0.020531118698578155
% es.EZ (V/m) @ t=0.48
-0.0951548227674408
% es.tEX (V/m) @ t=0.48
-0.047259140075926354
% es.tEY (V/m) @ t=0.48
0
% es.tEZ (V/m) @ t=0.48
-0.09515482276744436
% es.Ex (V/m) @ t=0.48
-0.047259140075926354
% es.Ey (V/m) @ t=0.48
0.020531118698578155
% es.Ez (V/m) @ t=0.48
-0.0951548227674408
% es.tEx (V/m) @ t=0.48
-0.047259140075926354
% es.tEy (V/m) @ t=0.48
0
% es.tEz (V/m) @ t=0.48
-0.09515482276744436
% V (V) @ t=0.48
0.02512290526841344
% es.normE (V/m) @ t=0.5
0.10925667410090448
% es.EX (V/m) @ t=0.5
-0.047716273780213925
% es.EY (V/m) @ t=0.5
0.020729717035955275
% es.EZ (V/m) @ t=0.5
-0.09607526676378342
% es.tEX (V/m) @ t=0.5
-0.04771627378021748
% es.tEY (V/m) @ t=0.5
0
% es.tEZ (V/m) @ t=0.5
-0.09607526676379052
% es.Ex (V/m) @ t=0.5
-0.047716273780213925
% es.Ey (V/m) @ t=0.5
0.020729717035955275
% es.Ez (V/m) @ t=0.5
-0.09607526676378342
% es.tEx (V/m) @ t=0.5
-0.04771627378021748
% es.tEy (V/m) @ t=0.5
0
% es.tEz (V/m) @ t=0.5
-0.09607526676379052
% V (V) @ t=0.5
0.025365923215575233
% es.normE (V/m) @ t=0.52
0.11030339740415127
% es.EX (V/m) @ t=0.52
-0.048173407484512154
% es.EY (V/m) @ t=0.52
0.020928315373353712
% es.EZ (V/m) @ t=0.52
-0.09699571076012958
% es.tEX (V/m) @ t=0.52
-0.04817340748452281
% es.tEY (V/m) @ t=0.52
0
% es.tEZ (V/m) @ t=0.52
-0.09699571076013491
% es.Ex (V/m) @ t=0.52
-0.048173407484512154
% es.Ey (V/m) @ t=0.52
0.020928315373353712
% es.Ez (V/m) @ t=0.52
-0.09699571076012958
% es.tEx (V/m) @ t=0.52
-0.04817340748452281
% es.tEy (V/m) @ t=0.52
0
% es.tEz (V/m) @ t=0.52
-0.09699571076013491
% V (V) @ t=0.52
0.025608941162737018
% es.normE (V/m) @ t=0.54
0.11135012070740492
% es.EX (V/m) @ t=0.54
-0.04863054118881749
% es.EY (V/m) @ t=0.54
0.02112691371075215
% es.EZ (V/m) @ t=0.54
-0.0979161547564793
% es.tEX (V/m) @ t=0.54
-0.04863054118882104
% es.tEY (V/m) @ t=0.54
0
% es.tEZ (V/m) @ t=0.54
-0.09791615475648818
% es.Ex (V/m) @ t=0.54
-0.04863054118881749
% es.Ey (V/m) @ t=0.54
0.02112691371075215
% es.Ez (V/m) @ t=0.54
-0.0979161547564793
% es.tEx (V/m) @ t=0.54
-0.04863054118882104
% es.tEy (V/m) @ t=0.54
0
% es.tEz (V/m) @ t=0.54
-0.09791615475648818
% V (V) @ t=0.54
0.025851959109898803
% es.normE (V/m) @ t=0.56
0.11239684401065231
% es.EX (V/m) @ t=0.56
-0.04908767489310506
% es.EY (V/m) @ t=0.56
0.021325512048122164
% es.EZ (V/m) @ t=0.56
-0.09883659875283612
% es.tEX (V/m) @ t=0.56
-0.049087674893112165
% es.tEY (V/m) @ t=0.56
0
% es.tEZ (V/m) @ t=0.56
-0.09883659875284145
% es.Ex (V/m) @ t=0.56
-0.04908767489310506
% es.Ey (V/m) @ t=0.56
0.021325512048122164
% es.Ez (V/m) @ t=0.56
-0.09883659875283612
% es.tEx (V/m) @ t=0.56
-0.049087674893112165
% es.tEy (V/m) @ t=0.56
0
% es.tEz (V/m) @ t=0.56
-0.09883659875284145
% V (V) @ t=0.56
0.026094977057060587
% es.normE (V/m) @ t=0.58
0.11344356731388022
% es.EX (V/m) @ t=0.58
-0.04954480859739263
% es.EY (V/m) @ t=0.58
0.021524110385485073
% es.EZ (V/m) @ t=0.58
-0.09975704274917163
% es.tEX (V/m) @ t=0.58
-0.049544808597396184
% es.tEY (V/m) @ t=0.58
0
% es.tEZ (V/m) @ t=0.58
-0.09975704274917518
% es.Ex (V/m) @ t=0.58
-0.04954480859739263
% es.Ey (V/m) @ t=0.58
0.021524110385485073
% es.Ez (V/m) @ t=0.58
-0.09975704274917163
% es.tEx (V/m) @ t=0.58
-0.049544808597396184
% es.tEy (V/m) @ t=0.58
0
% es.tEz (V/m) @ t=0.58
-0.09975704274917518
% V (V) @ t=0.58
0.026337995004222375
% es.normE (V/m) @ t=0.6
0.11449029061713532
% es.EX (V/m) @ t=0.6
-0.05000194230169086
% es.EY (V/m) @ t=0.6
0.02172270872289772
% es.EZ (V/m) @ t=0.6
-0.10067748674552135
% es.tEX (V/m) @ t=0.6
-0.050001942301708624
% es.tEY (V/m) @ t=0.6
0
% es.tEZ (V/m) @ t=0.6
-0.10067748674553201
% es.Ex (V/m) @ t=0.6
-0.05000194230169086
% es.Ey (V/m) @ t=0.6
0.02172270872289772
% es.Ez (V/m) @ t=0.6
-0.10067748674552135
% es.tEx (V/m) @ t=0.6
-0.050001942301708624
% es.tEy (V/m) @ t=0.6
0
% es.tEz (V/m) @ t=0.6
-0.10067748674553201
% V (V) @ t=0.6
0.026581012951384164
% es.normE (V/m) @ t=0.62
0.11553701392036839
% es.EX (V/m) @ t=0.62
-0.05045907600598554
% es.EY (V/m) @ t=0.62
0.02192130706023221
% es.EZ (V/m) @ t=0.62
-0.10159793074186396
% es.tEX (V/m) @ t=0.62
-0.05045907600599264
% es.tEY (V/m) @ t=0.62
0
% es.tEZ (V/m) @ t=0.62
-0.10159793074186751
% es.Ex (V/m) @ t=0.62
-0.05045907600598554
% es.Ey (V/m) @ t=0.62
0.02192130706023221
% es.Ez (V/m) @ t=0.62
-0.10159793074186396
% es.tEx (V/m) @ t=0.62
-0.05045907600599264
% es.tEy (V/m) @ t=0.62
0
% es.tEz (V/m) @ t=0.62
-0.10159793074186751
% V (V) @ t=0.62
0.026824030898545955
% es.normE (V/m) @ t=0.64
0.1165837372236233
% es.EX (V/m) @ t=0.64
-0.050916209710283766
% es.EY (V/m) @ t=0.64
0.02211990539763775
% es.EZ (V/m) @ t=0.64
-0.10251837473821368
% es.tEX (V/m) @ t=0.64
-0.05091620971028732
% es.tEY (V/m) @ t=0.64
0
% es.tEZ (V/m) @ t=0.64
-0.10251837473822256
% es.Ex (V/m) @ t=0.64
-0.050916209710283766
% es.Ey (V/m) @ t=0.64
0.02211990539763775
% es.Ez (V/m) @ t=0.64
-0.10251837473821368
% es.tEx (V/m) @ t=0.64
-0.05091620971028732
% es.tEy (V/m) @ t=0.64
0
% es.tEz (V/m) @ t=0.64
-0.10251837473822256
% V (V) @ t=0.64
0.02706704884570774
% es.normE (V/m) @ t=0.66
0.11763046052687408
% es.EX (V/m) @ t=0.66
-0.05137334341457844
% es.EY (V/m) @ t=0.66
0.022318503735043294
% es.EZ (V/m) @ t=0.66
-0.10343881873455985
% es.tEX (V/m) @ t=0.66
-0.05137334341458555
% es.tEY (V/m) @ t=0.66
0
% es.tEZ (V/m) @ t=0.66
-0.10343881873455985
% es.Ex (V/m) @ t=0.66
-0.05137334341457844
% es.Ey (V/m) @ t=0.66
0.022318503735043294
% es.Ez (V/m) @ t=0.66
-0.10343881873455985
% es.tEx (V/m) @ t=0.66
-0.05137334341458555
% es.tEy (V/m) @ t=0.66
0
% es.tEz (V/m) @ t=0.66
-0.10343881873455985
% V (V) @ t=0.66
0.02731006679286952
% es.normE (V/m) @ t=0.68
0.11867718383012021
% es.EX (V/m) @ t=0.68
-0.05183047711887667
% es.EY (V/m) @ t=0.68
0.02251710207241331
% es.EZ (V/m) @ t=0.68
-0.10435926273090601
% es.tEX (V/m) @ t=0.68
-0.05183047711887312
% es.tEY (V/m) @ t=0.68
0
% es.tEZ (V/m) @ t=0.68
-0.10435926273091845
% es.Ex (V/m) @ t=0.68
-0.05183047711887667
% es.Ey (V/m) @ t=0.68
0.02251710207241331
% es.Ez (V/m) @ t=0.68
-0.10435926273090601
% es.tEx (V/m) @ t=0.68
-0.05183047711887312
% es.tEy (V/m) @ t=0.68
0
% es.tEz (V/m) @ t=0.68
-0.10435926273091845
% V (V) @ t=0.68
0.02755308474003131
% es.normE (V/m) @ t=0.7
0.11972390713336867
% es.EX (V/m) @ t=0.7
-0.052287610823167796
% es.EY (V/m) @ t=0.7
0.02271570040977622
% es.EZ (V/m) @ t=0.7
-0.10527970672725928
% es.tEX (V/m) @ t=0.7
-0.05228761082318201
% es.tEY (V/m) @ t=0.7
0
% es.tEZ (V/m) @ t=0.7
-0.10527970672726283
% es.Ex (V/m) @ t=0.7
-0.052287610823167796
% es.Ey (V/m) @ t=0.7
0.02271570040977622
% es.Ez (V/m) @ t=0.7
-0.10527970672725928
% es.tEx (V/m) @ t=0.7
-0.05228761082318201
% es.tEy (V/m) @ t=0.7
0
% es.tEz (V/m) @ t=0.7
-0.10527970672726283
% V (V) @ t=0.7
0.027796102687193094
% es.normE (V/m) @ t=0.72
0.12080652965864205
% es.EX (V/m) @ t=0.72
-0.052760423160950864
% es.EY (V/m) @ t=0.72
0.02292111007325559
% es.EZ (V/m) @ t=0.72
-0.10623171875222326
% es.tEX (V/m) @ t=0.72
-0.05276042316095442
% es.tEY (V/m) @ t=0.72
0
% es.tEZ (V/m) @ t=0.72
-0.1062317187522357
% es.Ex (V/m) @ t=0.72
-0.052760423160950864
% es.Ey (V/m) @ t=0.72
0.02292111007325559
% es.Ez (V/m) @ t=0.72
-0.10623171875222326
% es.tEx (V/m) @ t=0.72
-0.05276042316095442
% es.tEy (V/m) @ t=0.72
0
% es.tEz (V/m) @ t=0.72
-0.1062317187522357
% V (V) @ t=0.72
0.028047455247542697
% es.normE (V/m) @ t=0.74
0.12196989900755931
% es.EX (V/m) @ t=0.74
-0.05326850088281887
% es.EY (V/m) @ t=0.74
0.023141840206413633
% es.EZ (V/m) @ t=0.74
-0.10725473560394505
% es.tEX (V/m) @ t=0.74
-0.05326850088282953
% es.tEY (V/m) @ t=0.74
0
% es.tEZ (V/m) @ t=0.74
-0.10725473560395571
% es.Ex (V/m) @ t=0.74
-0.05326850088281887
% es.Ey (V/m) @ t=0.74
0.023141840206413633
% es.Ez (V/m) @ t=0.74
-0.10725473560394505
% es.tEx (V/m) @ t=0.74
-0.05326850088282953
% es.tEy (V/m) @ t=0.74
0
% es.tEz (V/m) @ t=0.74
-0.10725473560395571
% V (V) @ t=0.74
0.028317554552340626
% es.normE (V/m) @ t=0.76
0.12313326835645595
% es.EX (V/m) @ t=0.76
-0.05377657860467977
% es.EY (V/m) @ t=0.76
0.023362570339543254
% es.EZ (V/m) @ t=0.76
-0.10827775245565263
% es.tEX (V/m) @ t=0.76
-0.05377657860467977
% es.tEY (V/m) @ t=0.76
0
% es.tEZ (V/m) @ t=0.76
-0.10827775245566151
% es.Ex (V/m) @ t=0.76
-0.05377657860467977
% es.Ey (V/m) @ t=0.76
0.023362570339543254
% es.Ez (V/m) @ t=0.76
-0.10827775245565263
% es.tEx (V/m) @ t=0.76
-0.05377657860467977
% es.tEy (V/m) @ t=0.76
0
% es.tEz (V/m) @ t=0.76
-0.10827775245566151
% V (V) @ t=0.76
0.028587653857138556
% es.normE (V/m) @ t=0.78
0.12429663770539029
% es.EX (V/m) @ t=0.78
-0.054284656326558434
% es.EY (V/m) @ t=0.78
0.023583300472729718
% es.EZ (V/m) @ t=0.78
-0.10930076930738153
% es.tEX (V/m) @ t=0.78
-0.05428465632655133
% es.tEY (V/m) @ t=0.78
0
% es.tEZ (V/m) @ t=0.78
-0.10930076930738863
% es.Ex (V/m) @ t=0.78
-0.054284656326558434
% es.Ey (V/m) @ t=0.78
0.023583300472729718
% es.Ez (V/m) @ t=0.78
-0.10930076930738153
% es.tEx (V/m) @ t=0.78
-0.05428465632655133
% es.tEy (V/m) @ t=0.78
0
% es.tEz (V/m) @ t=0.78
-0.10930076930738863
% V (V) @ t=0.78
0.028857753161936485
% es.normE (V/m) @ t=0.8
0.12546000705430466
% es.EX (V/m) @ t=0.8
-0.05479273404842644
% es.EY (V/m) @ t=0.8
0.023804030605866444
% es.EZ (V/m) @ t=0.8
-0.11032378615910332
% es.tEX (V/m) @ t=0.8
-0.054792734048433545
% es.tEY (V/m) @ t=0.8
0
% es.tEZ (V/m) @ t=0.8
-0.11032378615911043
% es.Ex (V/m) @ t=0.8
-0.05479273404842644
% es.Ey (V/m) @ t=0.8
0.023804030605866444
% es.Ez (V/m) @ t=0.8
-0.11032378615910332
% es.tEx (V/m) @ t=0.8
-0.054792734048433545
% es.tEy (V/m) @ t=0.8
0
% es.tEz (V/m) @ t=0.8
-0.11032378615911043
% V (V) @ t=0.8
0.02912785246673441
% es.normE (V/m) @ t=0.82
0.12662337640321944
% es.EX (V/m) @ t=0.82
-0.055300811770294445
% es.EY (V/m) @ t=0.82
0.02402476073905291
% es.EZ (V/m) @ t=0.82
-0.11134680301081445
% es.tEX (V/m) @ t=0.82
-0.05530081177030155
% es.tEY (V/m) @ t=0.82
0
% es.tEZ (V/m) @ t=0.82
-0.11134680301082334
% es.Ex (V/m) @ t=0.82
-0.055300811770294445
% es.Ey (V/m) @ t=0.82
0.02402476073905291
% es.Ez (V/m) @ t=0.82
-0.11134680301081445
% es.tEx (V/m) @ t=0.82
-0.05530081177030155
% es.tEy (V/m) @ t=0.82
0
% es.tEz (V/m) @ t=0.82
-0.11134680301082334
% V (V) @ t=0.82
0.02939795177153234
% es.normE (V/m) @ t=0.84
0.12778674575212248
% es.EX (V/m) @ t=0.84
-0.05580888949216245
% es.EY (V/m) @ t=0.84
0.024245490872175424
% es.EZ (V/m) @ t=0.84
-0.11236981986252559
% es.tEX (V/m) @ t=0.84
-0.05580888949216245
% es.tEY (V/m) @ t=0.84
0
% es.tEZ (V/m) @ t=0.84
-0.11236981986252559
% es.Ex (V/m) @ t=0.84
-0.05580888949216245
% es.Ey (V/m) @ t=0.84
0.024245490872175424
% es.Ez (V/m) @ t=0.84
-0.11236981986252559
% es.tEx (V/m) @ t=0.84
-0.05580888949216245
% es.tEy (V/m) @ t=0.84
0
% es.tEz (V/m) @ t=0.84
-0.11236981986252559
% V (V) @ t=0.84
0.02966805107633027
% es.normE (V/m) @ t=0.86
0.12895011510104176
% es.EX (V/m) @ t=0.86
-0.0563169672140269
% es.EY (V/m) @ t=0.86
0.02446622100534057
% es.EZ (V/m) @ t=0.86
-0.11339283671424738
% es.tEX (V/m) @ t=0.86
-0.056316967214041114
% es.tEY (V/m) @ t=0.86
0
% es.tEZ (V/m) @ t=0.86
-0.11339283671424205
% es.Ex (V/m) @ t=0.86
-0.0563169672140269
% es.Ey (V/m) @ t=0.86
0.02446622100534057
% es.Ez (V/m) @ t=0.86
-0.11339283671424738
% es.tEx (V/m) @ t=0.86
-0.056316967214041114
% es.tEy (V/m) @ t=0.86
0
% es.tEz (V/m) @ t=0.86
-0.11339283671424205
% V (V) @ t=0.86
0.0299381503811282
% es.normE (V/m) @ t=0.88
0.1301134844499623
% es.EX (V/m) @ t=0.88
-0.056825044935891356
% es.EY (V/m) @ t=0.88
0.024686951138527036
% es.EZ (V/m) @ t=0.88
-0.11441585356596562
% es.tEX (V/m) @ t=0.88
-0.05682504493589491
% es.tEY (V/m) @ t=0.88
0
% es.tEZ (V/m) @ t=0.88
-0.11441585356596207
% es.Ex (V/m) @ t=0.88
-0.056825044935891356
% es.Ey (V/m) @ t=0.88
0.024686951138527036
% es.Ez (V/m) @ t=0.88
-0.11441585356596562
% es.tEx (V/m) @ t=0.88
-0.05682504493589491
% es.tEy (V/m) @ t=0.88
0
% es.tEz (V/m) @ t=0.88
-0.11441585356596207
% V (V) @ t=0.88
0.030208249685926124
% es.normE (V/m) @ t=0.9
0.1312768537988744
% es.EX (V/m) @ t=0.9
-0.05733312265775936
% es.EY (V/m) @ t=0.9
0.024907681271692184
% es.EZ (V/m) @ t=0.9
-0.11543887041767675
% es.tEX (V/m) @ t=0.9
-0.05733312265778068
% es.tEY (V/m) @ t=0.9
0
% es.tEZ (V/m) @ t=0.9
-0.11543887041769096
% es.Ex (V/m) @ t=0.9
-0.05733312265775936
% es.Ey (V/m) @ t=0.9
0.024907681271692184
% es.Ez (V/m) @ t=0.9
-0.11543887041767675
% es.tEx (V/m) @ t=0.9
-0.05733312265778068
% es.tEy (V/m) @ t=0.9
0
% es.tEz (V/m) @ t=0.9
-0.11543887041769096
% V (V) @ t=0.9
0.030478348990724054
% es.normE (V/m) @ t=0.92
0.13244022314779727
% es.EX (V/m) @ t=0.92
-0.057841200379638025
% es.EY (V/m) @ t=0.92
0.025128411404821804
% es.EZ (V/m) @ t=0.92
-0.1164618872694021
% es.tEX (V/m) @ t=0.92
-0.05784120037964868
% es.tEY (V/m) @ t=0.92
0
% es.tEZ (V/m) @ t=0.92
-0.11646188726941098
% es.Ex (V/m) @ t=0.92
-0.057841200379638025
% es.Ey (V/m) @ t=0.92
0.025128411404821804
% es.Ez (V/m) @ t=0.92
-0.1164618872694021
% es.tEx (V/m) @ t=0.92
-0.05784120037964868
% es.tEy (V/m) @ t=0.92
0
% es.tEz (V/m) @ t=0.92
-0.11646188726941098
% V (V) @ t=0.92
0.03074844829552198
% es.normE (V/m) @ t=0.94
0.13360359249669754
% es.EX (V/m) @ t=0.94
-0.05834927810150603
% es.EY (V/m) @ t=0.94
0.025349141537986952
% es.EZ (V/m) @ t=0.94
-0.11748490412109902
% es.tEX (V/m) @ t=0.94
-0.058349278101513136
% es.tEY (V/m) @ t=0.94
0
% es.tEZ (V/m) @ t=0.94
-0.11748490412111323
% es.Ex (V/m) @ t=0.94
-0.05834927810150603
% es.Ey (V/m) @ t=0.94
0.025349141537986952
% es.Ez (V/m) @ t=0.94
-0.11748490412109902
% es.tEx (V/m) @ t=0.94
-0.058349278101513136
% es.tEy (V/m) @ t=0.94
0
% es.tEz (V/m) @ t=0.94
-0.11748490412111323
% V (V) @ t=0.94
0.031018547600319912
% es.normE (V/m) @ t=0.96
0.13476696184560774
% es.EX (V/m) @ t=0.96
-0.05885735582335627
% es.EY (V/m) @ t=0.96
0.025569871671144995
% es.EZ (V/m) @ t=0.96
-0.11850792097281726
% es.tEX (V/m) @ t=0.96
-0.05885735582336338
% es.tEY (V/m) @ t=0.96
0
% es.tEZ (V/m) @ t=0.96
-0.11850792097281193
% es.Ex (V/m) @ t=0.96
-0.05885735582335627
% es.Ey (V/m) @ t=0.96
0.025569871671144995
% es.Ez (V/m) @ t=0.96
-0.11850792097281726
% es.tEx (V/m) @ t=0.96
-0.05885735582336338
% es.tEy (V/m) @ t=0.96
0
% es.tEz (V/m) @ t=0.96
-0.11850792097281193
% V (V) @ t=0.96
0.03128864690511784
% es.normE (V/m) @ t=0.98
0.13599093698314718
% es.EX (V/m) @ t=0.98
-0.05939190378127179
% es.EY (V/m) @ t=0.98
0.02580210094248514
% es.EZ (V/m) @ t=0.98
-0.11958423095769888
% es.tEX (V/m) @ t=0.98
-0.0593919037812789
% es.tEY (V/m) @ t=0.98
0
% es.tEZ (V/m) @ t=0.98
-0.11958423095770598
% es.Ex (V/m) @ t=0.98
-0.05939190378127179
% es.Ey (V/m) @ t=0.98
0.02580210094248514
% es.Ez (V/m) @ t=0.98
-0.11958423095769888
% es.tEx (V/m) @ t=0.98
-0.0593919037812789
% es.tEy (V/m) @ t=0.98
0
% es.tEz (V/m) @ t=0.98
-0.11958423095770598
% V (V) @ t=0.98
0.03157281651724812
% es.normE (V/m) @ t=1
0.13728593263743075
% es.EX (V/m) @ t=1
-0.05995747072077506
% es.EY (V/m) @ t=1
0.02604780540746532
% es.EZ (V/m) @ t=1
-0.12072299216947613
% es.tEX (V/m) @ t=1
-0.05995747072077151
% es.tEY (V/m) @ t=1
0
% es.tEZ (V/m) @ t=1
-0.12072299216948146
% es.Ex (V/m) @ t=1
-0.05995747072077506
% es.Ey (V/m) @ t=1
0.02604780540746532
% es.Ez (V/m) @ t=1
-0.12072299216947613
% es.tEx (V/m) @ t=1
-0.05995747072077151
% es.tEy (V/m) @ t=1
0
% es.tEz (V/m) @ t=1