% Model:              1 neuron.mph
% Version:            COMSOL 6.1.0.252
% Date:               Mar 26 2023, 15:07
% Dimension:          0
% Nodes:              14017
% Expressions:        14017
% Description:        Electric field norm, Electric field, X component, Electric field, Y component, Electric field, Z component, Tangential electric field, X component, Tangential electric field, Y component, Tangential electric field, Z component, Electric field, x component, Electric field, y component, Electric field, z component, Tangential electric field, x component, Tangential electric field, y component, Tangential electric field, z component, Electric potential
% Length unit:        mm
% x
1
% y
14.2
% z
1.33
% es.normE (V/m) @ t=0
0.12265634963187987
% es.EX (V/m) @ t=0
0.11607238276598153
% es.EY (V/m) @ t=0
-0.024323350166261193
% es.EZ (V/m) @ t=0
0.03130745439563665
% es.tEX (V/m) @ t=0
0.11607238276598508
% es.tEY (V/m) @ t=0
0
% es.tEZ (V/m) @ t=0
0.031307454395621104
% es.Ex (V/m) @ t=0
0.11607238276598153
% es.Ey (V/m) @ t=0
-0.024323350166261193
% es.Ez (V/m) @ t=0
0.03130745439563665
% es.tEx (V/m) @ t=0
0.11607238276598508
% es.tEy (V/m) @ t=0
0
% es.tEz (V/m) @ t=0
0.031307454395621104
% V (V) @ t=0
0.022184781039535327
% es.normE (V/m) @ t=0.02
0.11232752717398307
% es.EX (V/m) @ t=0.02
0.10629799246659744
% es.EY (V/m) @ t=0.02
-0.022275094479466517
% es.EZ (V/m) @ t=0.02
0.02867107121340151
% es.tEX (V/m) @ t=0.02
0.1062979924666152
% es.tEY (V/m) @ t=0.02
0
% es.tEZ (V/m) @ t=0.02
0.028671071213385968
% es.Ex (V/m) @ t=0.02
0.10629799246659744
% es.Ey (V/m) @ t=0.02
-0.022275094479466517
% es.Ez (V/m) @ t=0.02
0.02867107121340151
% es.tEx (V/m) @ t=0.02
0.1062979924666152
% es.tEy (V/m) @ t=0.02
0
% es.tEz (V/m) @ t=0.02
0.028671071213385968
% V (V) @ t=0.02
0.020316613060195277
% es.normE (V/m) @ t=0.04
0.11335848756743255
% es.EX (V/m) @ t=0.04
0.10727361280489589
% es.EY (V/m) @ t=0.04
-0.022479538935183285
% es.EZ (V/m) @ t=0.04
0.028934218991059968
% es.tEX (V/m) @ t=0.04
0.10727361280490655
% es.tEY (V/m) @ t=0.04
0
% es.tEZ (V/m) @ t=0.04
0.028934218991058636
% es.Ex (V/m) @ t=0.04
0.10727361280489589
% es.Ey (V/m) @ t=0.04
-0.022479538935183285
% es.Ez (V/m) @ t=0.04
0.028934218991059968
% es.tEx (V/m) @ t=0.04
0.10727361280490655
% es.tEy (V/m) @ t=0.04
0
% es.tEz (V/m) @ t=0.04
0.028934218991058636
% V (V) @ t=0.04
0.02050308225344401
% es.normE (V/m) @ t=0.06
0.1144005085366229
% es.EX (V/m) @ t=0.06
0.1082597000067409
% es.EY (V/m) @ t=0.06
-0.02268617675674811
% es.EZ (V/m) @ t=0.06
0.02920018993174489
% es.tEX (V/m) @ t=0.06
0.10825970000677287
% es.tEY (V/m) @ t=0.06
0
% es.tEZ (V/m) @ t=0.06
0.029200189931744003
% es.Ex (V/m) @ t=0.06
0.1082597000067409
% es.Ey (V/m) @ t=0.06
-0.02268617675674811
% es.Ez (V/m) @ t=0.06
0.02920018993174489
% es.tEx (V/m) @ t=0.06
0.10825970000677287
% es.tEy (V/m) @ t=0.06
0
% es.tEz (V/m) @ t=0.06
0.029200189931744003
% V (V) @ t=0.06
0.020691551966169265
% es.normE (V/m) @ t=0.08
0.11545457471674446
% es.EX (V/m) @ t=0.08
0.10925718585541944
% es.EY (V/m) @ t=0.08
-0.022895203202079273
% es.EZ (V/m) @ t=0.08
0.029469235353401402
% es.tEX (V/m) @ t=0.08
0.1092571858554301
% es.tEY (V/m) @ t=0.08
0
% es.tEZ (V/m) @ t=0.08
0.02946923535338586
% es.Ex (V/m) @ t=0.08
0.10925718585541944
% es.Ey (V/m) @ t=0.08
-0.022895203202079273
% es.Ez (V/m) @ t=0.08
0.029469235353401402
% es.tEx (V/m) @ t=0.08
0.1092571858554301
% es.tEy (V/m) @ t=0.08
0
% es.tEz (V/m) @ t=0.08
0.02946923535338586
% V (V) @ t=0.08
0.020882200289229318
% es.normE (V/m) @ t=0.1
0.11652532662552094
% es.EX (V/m) @ t=0.1
0.11027046177443367
% es.EY (V/m) @ t=0.1
-0.023107538508451597
% es.EZ (V/m) @ t=0.1
0.02974253972541563
% es.tEX (V/m) @ t=0.1
0.11027046177445143
% es.tEY (V/m) @ t=0.1
0
% es.tEZ (V/m) @ t=0.1
0.02974253972541474
% es.Ex (V/m) @ t=0.1
0.11027046177443367
% es.Ey (V/m) @ t=0.1
-0.023107538508451597
% es.Ez (V/m) @ t=0.1
0.02974253972541563
% es.tEx (V/m) @ t=0.1
0.11027046177445143
% es.tEy (V/m) @ t=0.1
0
% es.tEz (V/m) @ t=0.1
0.02974253972541474
% V (V) @ t=0.1
0.02107586655037864
% es.normE (V/m) @ t=0.12
0.11759607853430529
% es.EX (V/m) @ t=0.12
0.11128373769345501
% es.EY (V/m) @ t=0.12
-0.023319873814827474
% es.EZ (V/m) @ t=0.12
0.030015844097431632
% es.tEX (V/m) @ t=0.12
0.11128373769345856
% es.tEY (V/m) @ t=0.12
0
% es.tEZ (V/m) @ t=0.12
0.0300158440974303
% es.Ex (V/m) @ t=0.12
0.11128373769345501
% es.Ey (V/m) @ t=0.12
-0.023319873814827474
% es.Ez (V/m) @ t=0.12
0.030015844097431632
% es.tEx (V/m) @ t=0.12
0.11128373769345856
% es.tEy (V/m) @ t=0.12
0
% es.tEz (V/m) @ t=0.12
0.0300158440974303
% V (V) @ t=0.12
0.021269532811527974
% es.normE (V/m) @ t=0.14
0.1186668304430604
% es.EX (V/m) @ t=0.14
0.11229701361244082
% es.EY (V/m) @ t=0.14
-0.023532209121212233
% es.EZ (V/m) @ t=0.14
0.03028914846945785
% es.tEX (V/m) @ t=0.14
0.11229701361244437
% es.tEY (V/m) @ t=0.14
0
% es.tEZ (V/m) @ t=0.14
0.03028914846945696
% es.Ex (V/m) @ t=0.14
0.11229701361244082
% es.Ey (V/m) @ t=0.14
-0.023532209121212233
% es.Ez (V/m) @ t=0.14
0.03028914846945785
% es.tEx (V/m) @ t=0.14
0.11229701361244437
% es.tEy (V/m) @ t=0.14
0
% es.tEz (V/m) @ t=0.14
0.03028914846945696
% V (V) @ t=0.14
0.0214631990726773
% es.normE (V/m) @ t=0.16
0.11978907758770653
% es.EX (V/m) @ t=0.16
0.11335902059877512
% es.EY (V/m) @ t=0.16
-0.02375475618375944
% es.EZ (V/m) @ t=0.16
0.03057559675378707
% es.tEX (V/m) @ t=0.16
0.11335902059877867
% es.tEY (V/m) @ t=0.16
0
% es.tEZ (V/m) @ t=0.16
0.03057559675375776
% es.Ex (V/m) @ t=0.16
0.11335902059877512
% es.Ey (V/m) @ t=0.16
-0.02375475618375944
% es.Ez (V/m) @ t=0.16
0.03057559675378707
% es.tEx (V/m) @ t=0.16
0.11335902059877867
% es.tEy (V/m) @ t=0.16
0
% es.tEz (V/m) @ t=0.16
0.03057559675375776
% V (V) @ t=0.16
0.02166617924682145
% es.normE (V/m) @ t=0.18
0.12092086297137707
% es.EX (V/m) @ t=0.18
0.1144300538291887
% es.EY (V/m) @ t=0.18
-0.023979194725649577
% es.EZ (V/m) @ t=0.18
0.030864479627897623
% es.tEX (V/m) @ t=0.18
0.11443005382919225
% es.tEY (V/m) @ t=0.18
0
% es.tEZ (V/m) @ t=0.18
0.03086447962788208
% es.Ex (V/m) @ t=0.18
0.1144300538291887
% es.Ey (V/m) @ t=0.18
-0.023979194725649577
% es.Ez (V/m) @ t=0.18
0.030864479627897623
% es.tEx (V/m) @ t=0.18
0.11443005382919225
% es.tEy (V/m) @ t=0.18
0
% es.tEz (V/m) @ t=0.18
0.03086447962788208
% V (V) @ t=0.18
0.02187088459664442
% es.normE (V/m) @ t=0.2
0.12205264835504019
% es.EX (V/m) @ t=0.2
0.11550108705959516
% es.EY (V/m) @ t=0.2
-0.024203633267504188
% es.EZ (V/m) @ t=0.2
0.031153362502033044
% es.tEX (V/m) @ t=0.2
0.11550108705961648
% es.tEY (V/m) @ t=0.2
0
% es.tEZ (V/m) @ t=0.2
0.031153362502017945
% es.Ex (V/m) @ t=0.2
0.11550108705959516
% es.Ey (V/m) @ t=0.2
-0.024203633267504188
% es.Ez (V/m) @ t=0.2
0.031153362502033044
% es.tEx (V/m) @ t=0.2
0.11550108705961648
% es.tEy (V/m) @ t=0.2
0
% es.tEz (V/m) @ t=0.2
0.031153362502017945
% V (V) @ t=0.2
0.02207558994646739
% es.normE (V/m) @ t=0.22
0.12318443373873048
% es.EX (V/m) @ t=0.22
0.1165721202900265
% es.EY (V/m) @ t=0.22
-0.024428071809358798
% es.EZ (V/m) @ t=0.22
0.031442245376182676
% es.tEX (V/m) @ t=0.22
0.11657212029003006
% es.tEY (V/m) @ t=0.22
0
% es.tEZ (V/m) @ t=0.22
0.031442245376181344
% es.Ex (V/m) @ t=0.22
0.1165721202900265
% es.Ey (V/m) @ t=0.22
-0.024428071809358798
% es.Ez (V/m) @ t=0.22
0.031442245376182676
% es.tEx (V/m) @ t=0.22
0.11657212029003006
% es.tEy (V/m) @ t=0.22
0
% es.tEz (V/m) @ t=0.22
0.031442245376181344
% V (V) @ t=0.22
0.02228029529629036
% es.normE (V/m) @ t=0.24
0.12431621912238702
% es.EX (V/m) @ t=0.24
0.11764315352041521
% es.EY (V/m) @ t=0.24
-0.02465251035125071
% es.EZ (V/m) @ t=0.24
0.0317311282503292
% es.tEX (V/m) @ t=0.24
0.11764315352043653
% es.tEY (V/m) @ t=0.24
0
% es.tEZ (V/m) @ t=0.24
0.0317311282503141
% es.Ex (V/m) @ t=0.24
0.11764315352041521
% es.Ey (V/m) @ t=0.24
-0.02465251035125071
% es.Ez (V/m) @ t=0.24
0.0317311282503292
% es.tEx (V/m) @ t=0.24
0.11764315352043653
% es.tEy (V/m) @ t=0.24
0
% es.tEz (V/m) @ t=0.24
0.0317311282503141
% V (V) @ t=0.24
0.022485000646113334
% es.normE (V/m) @ t=0.26
0.1254480045060679
% es.EX (V/m) @ t=0.26
0.1187141867508501
% es.EY (V/m) @ t=0.26
-0.0248769488930769
% es.EZ (V/m) @ t=0.26
0.03202001112445085
% es.tEX (V/m) @ t=0.26
0.1187141867508501
% es.tEY (V/m) @ t=0.26
0
% es.tEZ (V/m) @ t=0.26
0.032020011124435754
% es.Ex (V/m) @ t=0.26
0.1187141867508501
% es.Ey (V/m) @ t=0.26
-0.0248769488930769
% es.Ez (V/m) @ t=0.26
0.03202001112445085
% es.tEx (V/m) @ t=0.26
0.1187141867508501
% es.tEy (V/m) @ t=0.26
0
% es.tEz (V/m) @ t=0.26
0.032020011124435754
% V (V) @ t=0.26
0.022689705995936303
% es.normE (V/m) @ t=0.28
0.12657978988973922
% es.EX (V/m) @ t=0.28
0.11978521998124947
% es.EY (V/m) @ t=0.28
-0.02510138743500967
% es.EZ (V/m) @ t=0.28
0.032308893998584054
% es.tEX (V/m) @ t=0.28
0.11978521998126723
% es.tEY (V/m) @ t=0.28
0
% es.tEZ (V/m) @ t=0.28
0.032308893998583166
% es.Ex (V/m) @ t=0.28
0.11978521998124947
% es.Ey (V/m) @ t=0.28
-0.02510138743500967
% es.Ez (V/m) @ t=0.28
0.032308893998584054
% es.tEx (V/m) @ t=0.28
0.11978521998126723
% es.tEy (V/m) @ t=0.28
0
% es.tEz (V/m) @ t=0.28
0.032308893998583166
% V (V) @ t=0.28
0.022894411345759272
% es.normE (V/m) @ t=0.3
0.12775662818637326
% es.EX (V/m) @ t=0.3
0.12089888776662505
% es.EY (V/m) @ t=0.3
-0.02533476018806624
% es.EZ (V/m) @ t=0.3
0.0326092764187953
% es.tEX (V/m) @ t=0.3
0.12089888776664282
% es.tEY (V/m) @ t=0.3
0
% es.tEZ (V/m) @ t=0.3
0.032609276418779753
% es.Ex (V/m) @ t=0.3
0.12089888776662505
% es.Ey (V/m) @ t=0.3
-0.02533476018806624
% es.Ez (V/m) @ t=0.3
0.0326092764187953
% es.tEx (V/m) @ t=0.3
0.12089888776664282
% es.tEy (V/m) @ t=0.3
0
% es.tEz (V/m) @ t=0.3
0.032609276418779753
% V (V) @ t=0.3
0.023107265388937696
% es.normE (V/m) @ t=0.32
0.12895345502650363
% es.EX (V/m) @ t=0.32
0.12203147114701096
% es.EY (V/m) @ t=0.32
-0.02557209676631267
% es.EZ (V/m) @ t=0.32
0.03291476082159894
% es.tEX (V/m) @ t=0.32
0.12203147114703228
% es.tEY (V/m) @ t=0.32
0
% es.tEZ (V/m) @ t=0.32
0.03291476082158207
% es.Ex (V/m) @ t=0.32
0.12203147114701096
% es.Ey (V/m) @ t=0.32
-0.02557209676631267
% es.Ez (V/m) @ t=0.32
0.03291476082159894
% es.tEx (V/m) @ t=0.32
0.12203147114703228
% es.tEy (V/m) @ t=0.32
0
% es.tEz (V/m) @ t=0.32
0.03291476082158207
% V (V) @ t=0.32
0.023323734747996074
% es.normE (V/m) @ t=0.34
0.13015028186666816
% es.EX (V/m) @ t=0.34
0.12316405452744306
% es.EY (V/m) @ t=0.34
-0.025809433344507582
% es.EZ (V/m) @ t=0.34
0.033220245224405254
% es.tEX (V/m) @ t=0.34
0.1231640545274324
% es.tEY (V/m) @ t=0.34
0
% es.tEZ (V/m) @ t=0.34
0.033220245224390155
% es.Ex (V/m) @ t=0.34
0.12316405452744306
% es.Ey (V/m) @ t=0.34
-0.025809433344507582
% es.Ez (V/m) @ t=0.34
0.033220245224405254
% es.tEx (V/m) @ t=0.34
0.1231640545274324
% es.tEy (V/m) @ t=0.34
0
% es.tEz (V/m) @ t=0.34
0.033220245224390155
% V (V) @ t=0.34
0.023540204107054444
% es.normE (V/m) @ t=0.36
0.13134710870677585
% es.EX (V/m) @ t=0.36
0.12429663790780054
% es.EY (V/m) @ t=0.36
-0.026046769922810853
% es.EZ (V/m) @ t=0.36
0.033525729627181367
% es.tEX (V/m) @ t=0.36
0.1242966379078041
% es.tEY (V/m) @ t=0.36
0
% es.tEZ (V/m) @ t=0.36
0.03352572962718048
% es.Ex (V/m) @ t=0.36
0.12429663790780054
% es.Ey (V/m) @ t=0.36
-0.026046769922810853
% es.Ez (V/m) @ t=0.36
0.033525729627181367
% es.tEx (V/m) @ t=0.36
0.1242966379078041
% es.tEy (V/m) @ t=0.36
0
% es.tEz (V/m) @ t=0.36
0.03352572962718048
% V (V) @ t=0.36
0.023756673466112828
% es.normE (V/m) @ t=0.38
0.1325439355468918
% es.EX (V/m) @ t=0.38
0.1254292212881829
% es.EY (V/m) @ t=0.38
-0.026284106501021753
% es.EZ (V/m) @ t=0.38
0.03383121402996947
% es.tEX (V/m) @ t=0.38
0.12542922128820422
% es.tEY (V/m) @ t=0.38
0
% es.tEZ (V/m) @ t=0.38
0.03383121402995437
% es.Ex (V/m) @ t=0.38
0.1254292212881829
% es.Ey (V/m) @ t=0.38
-0.026284106501021753
% es.Ez (V/m) @ t=0.38
0.03383121402996947
% es.tEx (V/m) @ t=0.38
0.12542922128820422
% es.tEy (V/m) @ t=0.38
0
% es.tEz (V/m) @ t=0.38
0.03383121402995437
% V (V) @ t=0.38
0.023973142825171205
% es.normE (V/m) @ t=0.4
0.13374076238705593
% es.EX (V/m) @ t=0.4
0.12656180466860079
% es.EY (V/m) @ t=0.4
-0.026521443079266405
% es.EZ (V/m) @ t=0.4
0.034136698432788215
% es.tEX (V/m) @ t=0.4
0.12656180466859013
% es.tEY (V/m) @ t=0.4
0
% es.tEZ (V/m) @ t=0.4
0.034136698432773116
% es.Ex (V/m) @ t=0.4
0.12656180466860079
% es.Ey (V/m) @ t=0.4
-0.026521443079266405
% es.Ez (V/m) @ t=0.4
0.034136698432788215
% es.tEx (V/m) @ t=0.4
0.12656180466859013
% es.tEy (V/m) @ t=0.4
0
% es.tEz (V/m) @ t=0.4
0.034136698432773116
% V (V) @ t=0.4
0.024189612184229575
% es.normE (V/m) @ t=0.42
0.13493758922717997
% es.EX (V/m) @ t=0.42
0.1276943880489867
% es.EY (V/m) @ t=0.42
-0.026758779657482634
% es.EZ (V/m) @ t=0.42
0.03444218283559053
% es.tEX (V/m) @ t=0.42
0.12769438804900446
% es.tEY (V/m) @ t=0.42
0
% es.tEZ (V/m) @ t=0.42
0.03444218283557543
% es.Ex (V/m) @ t=0.42
0.1276943880489867
% es.Ey (V/m) @ t=0.42
-0.026758779657482634
% es.Ez (V/m) @ t=0.42
0.03444218283559053
% es.tEx (V/m) @ t=0.42
0.12769438804900446
% es.tEy (V/m) @ t=0.42
0
% es.tEz (V/m) @ t=0.42
0.03444218283557543
% V (V) @ t=0.42
0.02440608154328796
% es.normE (V/m) @ t=0.44
0.13621444337936314
% es.EX (V/m) @ t=0.44
0.12890270302457907
% es.EY (V/m) @ t=0.44
-0.02701198604138
% es.EZ (V/m) @ t=0.44
0.03476809382475832
% es.tEX (V/m) @ t=0.44
0.12890270302459328
% es.tEY (V/m) @ t=0.44
0
% es.tEZ (V/m) @ t=0.44
0.03476809382474144
% es.Ex (V/m) @ t=0.44
0.12890270302457907
% es.Ey (V/m) @ t=0.44
-0.02701198604138
% es.Ez (V/m) @ t=0.44
0.03476809382475832
% es.tEx (V/m) @ t=0.44
0.12890270302459328
% es.tEy (V/m) @ t=0.44
0
% es.tEz (V/m) @ t=0.44
0.03476809382474144
% V (V) @ t=0.44
0.024637025395430025
% es.normE (V/m) @ t=0.46
0.1375590205730466
% es.EX (V/m) @ t=0.46
0.13017510579510727
% es.EY (V/m) @ t=0.46
-0.02727862223415123
% es.EZ (V/m) @ t=0.46
0.03511129079448594
% es.tEX (V/m) @ t=0.46
0.13017510579511082
% es.tEY (V/m) @ t=0.46
0
% es.tEZ (V/m) @ t=0.46
0.035111290794468175
% es.Ex (V/m) @ t=0.46
0.13017510579510727
% es.Ey (V/m) @ t=0.46
-0.02727862223415123
% es.Ez (V/m) @ t=0.46
0.03511129079448594
% es.tEx (V/m) @ t=0.46
0.13017510579511082
% es.tEy (V/m) @ t=0.46
0
% es.tEz (V/m) @ t=0.46
0.035111290794468175
% V (V) @ t=0.46
0.024880218274439307
% es.normE (V/m) @ t=0.48
0.13890359776671263
% es.EX (V/m) @ t=0.48
0.1314475085656177
% es.EY (V/m) @ t=0.48
-0.027545258426920682
% es.EZ (V/m) @ t=0.48
0.03545448776421267
% es.tEX (V/m) @ t=0.48
0.13144750856563903
% es.tEY (V/m) @ t=0.48
0
% es.tEZ (V/m) @ t=0.48
0.0354544877641958
% es.Ex (V/m) @ t=0.48
0.1314475085656177
% es.Ey (V/m) @ t=0.48
-0.027545258426920682
% es.Ez (V/m) @ t=0.48
0.03545448776421267
% es.tEx (V/m) @ t=0.48
0.13144750856563903
% es.tEy (V/m) @ t=0.48
0
% es.tEz (V/m) @ t=0.48
0.0354544877641958
% V (V) @ t=0.48
0.02512341115344859
% es.normE (V/m) @ t=0.5
0.14024817496035635
% es.EX (V/m) @ t=0.5
0.13271991133610683
% es.EY (V/m) @ t=0.5
-0.027811894619691913
% es.EZ (V/m) @ t=0.5
0.035797684733929636
% es.tEX (V/m) @ t=0.5
0.1327199113361246
% es.tEY (V/m) @ t=0.5
0
% es.tEZ (V/m) @ t=0.5
0.03579768473391187
% es.Ex (V/m) @ t=0.5
0.13271991133610683
% es.Ey (V/m) @ t=0.5
-0.027811894619691913
% es.Ez (V/m) @ t=0.5
0.035797684733929636
% es.tEx (V/m) @ t=0.5
0.1327199113361246
% es.tEy (V/m) @ t=0.5
0
% es.tEz (V/m) @ t=0.5
0.03579768473391187
% V (V) @ t=0.5
0.025366604032457874
% es.normE (V/m) @ t=0.52
0.14159275215402856
% es.EX (V/m) @ t=0.52
0.13399231410663148
% es.EY (V/m) @ t=0.52
-0.028078530812441826
% es.EZ (V/m) @ t=0.52
0.036140881703643046
% es.tEX (V/m) @ t=0.52
0.1339923141066528
% es.tEY (V/m) @ t=0.52
0
% es.tEZ (V/m) @ t=0.52
0.03614088170362617
% es.Ex (V/m) @ t=0.52
0.13399231410663148
% es.Ey (V/m) @ t=0.52
-0.028078530812441826
% es.Ez (V/m) @ t=0.52
0.036140881703643046
% es.tEx (V/m) @ t=0.52
0.1339923141066528
% es.tEy (V/m) @ t=0.52
0
% es.tEz (V/m) @ t=0.52
0.03614088170362617
% V (V) @ t=0.52
0.02560979691146716
% es.normE (V/m) @ t=0.54
0.14293732934769088
% es.EX (V/m) @ t=0.54
0.13526471687714192
% es.EY (V/m) @ t=0.54
-0.028345167005213057
% es.EZ (V/m) @ t=0.54
0.03648407867335379
% es.tEX (V/m) @ t=0.54
0.13526471687714547
% es.tEY (V/m) @ t=0.54
0
% es.tEZ (V/m) @ t=0.54
0.03648407867333692
% es.Ex (V/m) @ t=0.54
0.13526471687714192
% es.Ey (V/m) @ t=0.54
-0.028345167005213057
% es.Ez (V/m) @ t=0.54
0.03648407867335379
% es.tEx (V/m) @ t=0.54
0.13526471687714547
% es.tEy (V/m) @ t=0.54
0
% es.tEz (V/m) @ t=0.54
0.03648407867333692
% V (V) @ t=0.54
0.02585298979047644
% es.normE (V/m) @ t=0.56
0.14428190654135464
% es.EX (V/m) @ t=0.56
0.13653711964765236
% es.EY (V/m) @ t=0.56
-0.02861180319798251
% es.EZ (V/m) @ t=0.56
0.036827275643071644
% es.tEX (V/m) @ t=0.56
0.1365371196476559
% es.tEY (V/m) @ t=0.56
0
% es.tEZ (V/m) @ t=0.56
0.03682727564305477
% es.Ex (V/m) @ t=0.56
0.13653711964765236
% es.Ey (V/m) @ t=0.56
-0.02861180319798251
% es.Ez (V/m) @ t=0.56
0.036827275643071644
% es.tEx (V/m) @ t=0.56
0.1365371196476559
% es.tEy (V/m) @ t=0.56
0
% es.tEz (V/m) @ t=0.56
0.03682727564305477
% V (V) @ t=0.56
0.026096182669485726
% es.normE (V/m) @ t=0.58
0.1456264837350189
% es.EX (V/m) @ t=0.58
0.13780952241816635
% es.EY (V/m) @ t=0.58
-0.028878439390746635
% es.EZ (V/m) @ t=0.58
0.03717047261278239
% es.tEX (V/m) @ t=0.58
0.13780952241818767
% es.tEY (V/m) @ t=0.58
0
% es.tEZ (V/m) @ t=0.58
0.037170472612765515
% es.Ex (V/m) @ t=0.58
0.13780952241816635
% es.Ey (V/m) @ t=0.58
-0.028878439390746635
% es.Ez (V/m) @ t=0.58
0.03717047261278239
% es.tEx (V/m) @ t=0.58
0.13780952241818767
% es.tEy (V/m) @ t=0.58
0
% es.tEz (V/m) @ t=0.58
0.037170472612765515
% V (V) @ t=0.58
0.026339375548495005
% es.normE (V/m) @ t=0.6
0.14697106092870182
% es.EX (V/m) @ t=0.6
0.1390819251886981
% es.EY (V/m) @ t=0.6
-0.02914507558348234
% es.EZ (V/m) @ t=0.6
0.037513669582522446
% es.tEX (V/m) @ t=0.6
0.13908192518870166
% es.tEY (V/m) @ t=0.6
0
% es.tEZ (V/m) @ t=0.6
0.03751366958249136
% es.Ex (V/m) @ t=0.6
0.1390819251886981
% es.Ey (V/m) @ t=0.6
-0.02914507558348234
% es.Ez (V/m) @ t=0.6
0.037513669582522446
% es.tEx (V/m) @ t=0.6
0.13908192518870166
% es.tEy (V/m) @ t=0.6
0
% es.tEz (V/m) @ t=0.6
0.03751366958249136
% V (V) @ t=0.6
0.02658256842750429
% es.normE (V/m) @ t=0.62
0.14831563812235676
% es.EX (V/m) @ t=0.62
0.1403543279591979
% es.EY (V/m) @ t=0.62
-0.029411711776285543
% es.EZ (V/m) @ t=0.62
0.03785686655221898
% es.tEX (V/m) @ t=0.62
0.14035432795921565
% es.tEY (V/m) @ t=0.62
0
% es.tEZ (V/m) @ t=0.62
0.03785686655220388
% es.Ex (V/m) @ t=0.62
0.1403543279591979
% es.Ey (V/m) @ t=0.62
-0.029411711776285543
% es.Ez (V/m) @ t=0.62
0.03785686655221898
% es.tEx (V/m) @ t=0.62
0.14035432795921565
% es.tEy (V/m) @ t=0.62
0
% es.tEz (V/m) @ t=0.62
0.03785686655220388
% V (V) @ t=0.62
0.026825761306513575
% es.normE (V/m) @ t=0.64
0.1496602153160165
% es.EX (V/m) @ t=0.64
0.14162673072970122
% es.EY (V/m) @ t=0.64
-0.02967834796906743
% es.EZ (V/m) @ t=0.64
0.03820006352193772
% es.tEX (V/m) @ t=0.64
0.14162673072972254
% es.tEY (V/m) @ t=0.64
0
% es.tEZ (V/m) @ t=0.64
0.03820006352193683
% es.Ex (V/m) @ t=0.64
0.14162673072970122
% es.Ey (V/m) @ t=0.64
-0.02967834796906743
% es.Ez (V/m) @ t=0.64
0.03820006352193772
% es.tEx (V/m) @ t=0.64
0.14162673072972254
% es.tEy (V/m) @ t=0.64
0
% es.tEz (V/m) @ t=0.64
0.03820006352193683
% V (V) @ t=0.64
0.02706895418552286
% es.normE (V/m) @ t=0.66
0.15100479250968507
% es.EX (V/m) @ t=0.66
0.14289913350022942
% es.EY (V/m) @ t=0.66
-0.029944984161788923
% es.EZ (V/m) @ t=0.66
0.0385432604916458
% es.tEX (V/m) @ t=0.66
0.14289913350023298
% es.tEY (V/m) @ t=0.66
0
% es.tEZ (V/m) @ t=0.66
0.038543260491630704
% es.Ex (V/m) @ t=0.66
0.14289913350022942
% es.Ey (V/m) @ t=0.66
-0.029944984161788923
% es.Ez (V/m) @ t=0.66
0.0385432604916458
% es.tEx (V/m) @ t=0.66
0.14289913350023298
% es.tEy (V/m) @ t=0.66
0
% es.tEz (V/m) @ t=0.66
0.038543260491630704
% V (V) @ t=0.66
0.02731214706453214
% es.normE (V/m) @ t=0.68
0.15234936970333238
% es.EX (V/m) @ t=0.68
0.144171536270715
% es.EY (V/m) @ t=0.68
-0.030211620354577917
% es.EZ (V/m) @ t=0.68
0.03888645746137609
% es.tEX (V/m) @ t=0.68
0.14417153627075052
% es.tEY (V/m) @ t=0.68
0
% es.tEZ (V/m) @ t=0.68
0.0388864574613752
% es.Ex (V/m) @ t=0.68
0.144171536270715
% es.Ey (V/m) @ t=0.68
-0.030211620354577917
% es.Ez (V/m) @ t=0.68
0.03888645746137609
% es.tEx (V/m) @ t=0.68
0.14417153627075052
% es.tEy (V/m) @ t=0.68
0
% es.tEz (V/m) @ t=0.68
0.0388864574613752
% V (V) @ t=0.68
0.027555339943541427
% es.normE (V/m) @ t=0.7
0.15369394689698754
% es.EX (V/m) @ t=0.7
0.14544393904122543
% es.EY (V/m) @ t=0.7
-0.03047825654729941
% es.EZ (V/m) @ t=0.7
0.039229654431097494
% es.tEX (V/m) @ t=0.7
0.14544393904123254
% es.tEY (V/m) @ t=0.7
0
% es.tEZ (V/m) @ t=0.7
0.039229654431096606
% es.Ex (V/m) @ t=0.7
0.14544393904122543
% es.Ey (V/m) @ t=0.7
-0.03047825654729941
% es.Ez (V/m) @ t=0.7
0.039229654431097494
% es.tEx (V/m) @ t=0.7
0.14544393904123254
% es.tEy (V/m) @ t=0.7
0
% es.tEz (V/m) @ t=0.7
0.039229654431096606
% V (V) @ t=0.7
0.02779853282255071
% es.normE (V/m) @ t=0.72
0.1550744992097122
% es.EX (V/m) @ t=0.72
0.1467503858515613
% es.EY (V/m) @ t=0.72
-0.03075202678056499
% es.EZ (V/m) @ t=0.72
0.03958203388468462
% es.tEX (V/m) @ t=0.72
0.14675038585156486
% es.tEY (V/m) @ t=0.72
0
% es.tEZ (V/m) @ t=0.72
0.03958203388466952
% es.Ex (V/m) @ t=0.72
0.1467503858515613
% es.Ey (V/m) @ t=0.72
-0.03075202678056499
% es.Ez (V/m) @ t=0.72
0.03958203388468462
% es.tEx (V/m) @ t=0.72
0.14675038585156486
% es.tEy (V/m) @ t=0.72
0
% es.tEz (V/m) @ t=0.72
0.03958203388466952
% V (V) @ t=0.72
0.028048232499500638
% es.normE (V/m) @ t=0.74
0.15656925039861877
% es.EX (V/m) @ t=0.74
0.14816490154925788
% es.EY (V/m) @ t=0.74
-0.031048443204403142
% es.EZ (V/m) @ t=0.74
0.03996356207681018
% es.tEX (V/m) @ t=0.74
0.1481649015492792
% es.tEY (V/m) @ t=0.74
0
% es.tEZ (V/m) @ t=0.74
0.03996356207679508
% es.Ex (V/m) @ t=0.74
0.14816490154925788
% es.Ey (V/m) @ t=0.74
-0.031048443204403142
% es.Ez (V/m) @ t=0.74
0.03996356207681018
% es.tEx (V/m) @ t=0.74
0.1481649015492792
% es.tEy (V/m) @ t=0.74
0
% es.tEz (V/m) @ t=0.74
0.03996356207679508
% V (V) @ t=0.74
0.028318587257873333
% es.normE (V/m) @ t=0.76
0.15806400158756298
% es.EX (V/m) @ t=0.76
0.14957941724700063
% es.EY (V/m) @ t=0.76
-0.03134485962822886
% es.EZ (V/m) @ t=0.76
0.040345090268921524
% es.tEX (V/m) @ t=0.76
0.14957941724702195
% es.tEY (V/m) @ t=0.76
0
% es.tEZ (V/m) @ t=0.76
0.040345090268906425
% es.Ex (V/m) @ t=0.76
0.14957941724700063
% es.Ey (V/m) @ t=0.76
-0.03134485962822886
% es.Ez (V/m) @ t=0.76
0.040345090268921524
% es.tEx (V/m) @ t=0.76
0.14957941724702195
% es.tEy (V/m) @ t=0.76
0
% es.tEz (V/m) @ t=0.76
0.040345090268906425
% V (V) @ t=0.76
0.028588942016246045
% es.normE (V/m) @ t=0.78
0.159558752776471
% es.EX (V/m) @ t=0.78
0.1509939329446972
% es.EY (V/m) @ t=0.78
-0.03164127605206524
% es.EZ (V/m) @ t=0.78
0.04072661846105419
% es.tEX (V/m) @ t=0.78
0.1509939329447043
% es.tEY (V/m) @ t=0.78
0
% es.tEZ (V/m) @ t=0.78
0.04072661846103909
% es.Ex (V/m) @ t=0.78
0.1509939329446972
% es.Ey (V/m) @ t=0.78
-0.03164127605206524
% es.Ez (V/m) @ t=0.78
0.04072661846105419
% es.tEx (V/m) @ t=0.78
0.1509939329447043
% es.tEy (V/m) @ t=0.78
0
% es.tEz (V/m) @ t=0.78
0.04072661846103909
% V (V) @ t=0.78
0.028859296774618747
% es.normE (V/m) @ t=0.8
0.16105350396539037
% es.EX (V/m) @ t=0.8
0.15240844864241154
% es.EY (V/m) @ t=0.8
-0.031937692475846546
% es.EZ (V/m) @ t=0.8
0.041108146653208166
% es.tEX (V/m) @ t=0.8
0.1524084486424293
% es.tEY (V/m) @ t=0.8
0
% es.tEZ (V/m) @ t=0.8
0.04110814665319307
% es.Ex (V/m) @ t=0.8
0.15240844864241154
% es.Ey (V/m) @ t=0.8
-0.031937692475846546
% es.Ez (V/m) @ t=0.8
0.041108146653208166
% es.tEx (V/m) @ t=0.8
0.1524084486424293
% es.tEy (V/m) @ t=0.8
0
% es.tEz (V/m) @ t=0.8
0.04110814665319307
% V (V) @ t=0.8
0.029129651532991446
% es.normE (V/m) @ t=0.82
0.1625482551543195
% es.EX (V/m) @ t=0.82
0.1538229643401401
% es.EY (V/m) @ t=0.82
-0.03223410889966871
% es.EZ (V/m) @ t=0.82
0.04148967484531596
% es.tEX (V/m) @ t=0.82
0.15382296434012943
% es.tEY (V/m) @ t=0.82
0
% es.tEZ (V/m) @ t=0.82
0.04148967484530264
% es.Ex (V/m) @ t=0.82
0.1538229643401401
% es.Ey (V/m) @ t=0.82
-0.03223410889966871
% es.Ez (V/m) @ t=0.82
0.04148967484531596
% es.tEx (V/m) @ t=0.82
0.15382296434012943
% es.tEy (V/m) @ t=0.82
0
% es.tEz (V/m) @ t=0.82
0.04148967484530264
% V (V) @ t=0.82
0.02940000629136415
% es.normE (V/m) @ t=0.84
0.164043006343227
% es.EX (V/m) @ t=0.84
0.15523748003784021
% es.EY (V/m) @ t=0.84
-0.03253052532346601
% es.EZ (V/m) @ t=0.84
0.04187120303746372
% es.tEX (V/m) @ t=0.84
0.15523748003784732
% es.tEY (V/m) @ t=0.84
0
% es.tEZ (V/m) @ t=0.84
0.04187120303743441
% es.Ex (V/m) @ t=0.84
0.15523748003784021
% es.Ey (V/m) @ t=0.84
-0.03253052532346601
% es.Ez (V/m) @ t=0.84
0.04187120303746372
% es.tEx (V/m) @ t=0.84
0.15523748003784732
% es.tEy (V/m) @ t=0.84
0
% es.tEz (V/m) @ t=0.84
0.04187120303743441
% V (V) @ t=0.84
0.029670361049736856
% es.normE (V/m) @ t=0.86
0.1655377575321403
% es.EX (V/m) @ t=0.86
0.1566519957355439
% es.EY (V/m) @ t=0.86
-0.03282694174732015
% es.EZ (V/m) @ t=0.86
0.042252731229576845
% es.tEX (V/m) @ t=0.86
0.156651995735551
% es.tEY (V/m) @ t=0.86
0
% es.tEZ (V/m) @ t=0.86
0.042252731229561746
% es.Ex (V/m) @ t=0.86
0.1566519957355439
% es.Ey (V/m) @ t=0.86
-0.03282694174732015
% es.Ez (V/m) @ t=0.86
0.042252731229576845
% es.tEx (V/m) @ t=0.86
0.156651995735551
% es.tEy (V/m) @ t=0.86
0
% es.tEz (V/m) @ t=0.86
0.042252731229561746
% V (V) @ t=0.86
0.029940715808109555
% es.normE (V/m) @ t=0.88
0.16703250872106956
% es.EX (V/m) @ t=0.88
0.15806651143327244
% es.EY (V/m) @ t=0.88
-0.03312335817111567
% es.EZ (V/m) @ t=0.88
0.042634259421705956
% es.tEX (V/m) @ t=0.88
0.1580665114332902
% es.tEY (V/m) @ t=0.88
0
% es.tEZ (V/m) @ t=0.88
0.04263425942169086
% es.Ex (V/m) @ t=0.88
0.15806651143327244
% es.Ey (V/m) @ t=0.88
-0.03312335817111567
% es.Ez (V/m) @ t=0.88
0.042634259421705956
% es.tEx (V/m) @ t=0.88
0.1580665114332902
% es.tEy (V/m) @ t=0.88
0
% es.tEz (V/m) @ t=0.88
0.04263425942169086
% V (V) @ t=0.88
0.030211070566482257
% es.normE (V/m) @ t=0.9
0.16852725990998635
% es.EX (V/m) @ t=0.9
0.15948102713097967
% es.EY (V/m) @ t=0.9
-0.033419774594952045
% es.EZ (V/m) @ t=0.9
0.04301578761383329
% es.tEX (V/m) @ t=0.9
0.15948102713100099
% es.tEY (V/m) @ t=0.9
0
% es.tEZ (V/m) @ t=0.9
0.04301578761381819
% es.Ex (V/m) @ t=0.9
0.15948102713097967
% es.Ey (V/m) @ t=0.9
-0.033419774594952045
% es.Ez (V/m) @ t=0.9
0.04301578761383329
% es.tEx (V/m) @ t=0.9
0.15948102713100099
% es.tEy (V/m) @ t=0.9
0
% es.tEz (V/m) @ t=0.9
0.04301578761381819
% V (V) @ t=0.9
0.030481425324854976
% es.normE (V/m) @ t=0.92
0.17002201109889584
% es.EX (V/m) @ t=0.92
0.1608955428286798
% es.EY (V/m) @ t=0.92
-0.0337161910187902
% es.EZ (V/m) @ t=0.92
0.04339731580595707
% es.tEX (V/m) @ t=0.92
0.1608955428286869
% es.tEY (V/m) @ t=0.92
0
% es.tEZ (V/m) @ t=0.92
0.04339731580594197
% es.Ex (V/m) @ t=0.92
0.1608955428286798
% es.Ey (V/m) @ t=0.92
-0.0337161910187902
% es.Ez (V/m) @ t=0.92
0.04339731580595707
% es.tEx (V/m) @ t=0.92
0.1608955428286869
% es.tEy (V/m) @ t=0.92
0
% es.tEz (V/m) @ t=0.92
0.04339731580594197
% V (V) @ t=0.92
0.03075178008322767
% es.normE (V/m) @ t=0.94
0.17151676228781346
% es.EX (V/m) @ t=0.94
0.16231005852639768
% es.EY (V/m) @ t=0.94
-0.034012607442573284
% es.EZ (V/m) @ t=0.94
0.043778843998089734
% es.tEX (V/m) @ t=0.94
0.16231005852640124
% es.tEY (V/m) @ t=0.94
0
% es.tEZ (V/m) @ t=0.94
0.043778843998060424
% es.Ex (V/m) @ t=0.94
0.16231005852639768
% es.Ey (V/m) @ t=0.94
-0.034012607442573284
% es.Ez (V/m) @ t=0.94
0.043778843998089734
% es.tEx (V/m) @ t=0.94
0.16231005852640124
% es.tEy (V/m) @ t=0.94
0
% es.tEz (V/m) @ t=0.94
0.043778843998060424
% V (V) @ t=0.94
0.03102213484160038
% es.normE (V/m) @ t=0.96
0.173011513476749
% es.EX (V/m) @ t=0.96
0.16372457422412268
% es.EY (V/m) @ t=0.96
-0.034309023866399
% es.EZ (V/m) @ t=0.96
0.044160372190233055
% es.tEX (V/m) @ t=0.96
0.16372457422412978
% es.tEY (V/m) @ t=0.96
0
% es.tEZ (V/m) @ t=0.96
0.044160372190217956
% es.Ex (V/m) @ t=0.96
0.16372457422412268
% es.Ey (V/m) @ t=0.96
-0.034309023866399
% es.Ez (V/m) @ t=0.96
0.044160372190233055
% es.tEx (V/m) @ t=0.96
0.16372457422412978
% es.tEy (V/m) @ t=0.96
0
% es.tEz (V/m) @ t=0.96
0.044160372190217956
% V (V) @ t=0.96
0.03129248959997307
% es.normE (V/m) @ t=0.98
0.17456858921455704
% es.EX (V/m) @ t=0.98
0.16519806900413414
% es.EY (V/m) @ t=0.98
-0.03461779955125621
% es.EZ (V/m) @ t=0.98
0.04455780842787416
% es.tEX (V/m) @ t=0.98
0.16519806900414125
% es.tEY (V/m) @ t=0.98
0
% es.tEZ (V/m) @ t=0.98
0.04455780842785906
% es.Ex (V/m) @ t=0.98
0.16519806900413414
% es.Ey (V/m) @ t=0.98
-0.03461779955125621
% es.Ez (V/m) @ t=0.98
0.04455780842787416
% es.tEx (V/m) @ t=0.98
0.16519806900414125
% es.tEy (V/m) @ t=0.98
0
% es.tEz (V/m) @ t=0.98
0.04455780842785906
% V (V) @ t=0.98
0.03157411696260533
% es.normE (V/m) @ t=1
0.1762328470540025
% es.EX (V/m) @ t=1
0.1667729925486583
% es.EY (V/m) @ t=1
-0.034947829967979516
% es.EZ (V/m) @ t=1
0.04498260238863239
% es.tEX (V/m) @ t=1
0.1667729925486796
% es.tEY (V/m) @ t=1
0
% es.tEZ (V/m) @ t=1
0.04498260238861551
% es.Ex (V/m) @ t=1
0.1667729925486583
% es.Ey (V/m) @ t=1
-0.034947829967979516
% es.Ez (V/m) @ t=1
0.04498260238863239
% es.tEx (V/m) @ t=1
0.1667729925486796
% es.tEy (V/m) @ t=1
0
% es.tEz (V/m) @ t=1
0.04498260238861551
% V (V) @ t=1
0.03187513028849562
% es.normE (V/m) @ t=1.02
0.1778971048934923
% es.EX (V/m) @ t=1.02
0.1683479160932393
% es.EY (V/m) @ t=1.02
-0.03527786038467795
% es.EZ (V/m) @ t=1.02
0.04540739634937285
% es.tEX (V/m) @ t=1.02
0.16834791609325706
% es.tEY (V/m) @ t=1.02
0
% es.tEZ (V/m) @ t=1.02
0.045407396349357754
% es.Ex (V/m) @ t=1.02