% Model:              1 neuron.mph
% Version:            COMSOL 6.1.0.252
% Date:               Mar 26 2023, 15:07
% Dimension:          0
% Nodes:              14017
% Expressions:        14017
% Description:        Electric field norm, Electric field, X component, Electric field, Y component, Electric field, Z component, Tangential electric field, X component, Tangential electric field, Y component, Tangential electric field, Z component, Electric field, x component, Electric field, y component, Electric field, z component, Tangential electric field, x component, Tangential electric field, y component, Tangential electric field, z component, Electric potential
% Length unit:        mm
% x
1.33
% y
14.200000000000003
% z
1.3300000000000003
% es.normE (V/m) @ t=0
0.05115956164435679
% es.EX (V/m) @ t=0
0.03221449498978579
% es.EY (V/m) @ t=0
0.022009231018643938
% es.EZ (V/m) @ t=0
0.03309260960038918
% es.tEX (V/m) @ t=0
0.03221449498978535
% es.tEY (V/m) @ t=0
0
% es.tEZ (V/m) @ t=0
0.03309260960038429
% es.Ex (V/m) @ t=0
0.03221449498978579
% es.Ey (V/m) @ t=0
0.022009231018643938
% es.Ez (V/m) @ t=0
0.03309260960038918
% es.tEx (V/m) @ t=0
0.03221449498978535
% es.tEy (V/m) @ t=0
0
% es.tEz (V/m) @ t=0
0.03309260960038429
% V (V) @ t=0
0.022161992083447695
% es.normE (V/m) @ t=0.02
0.04685144363812004
% es.EX (V/m) @ t=0.02
0.02950173042773674
% es.EY (V/m) @ t=0.02
0.020155846008517386
% es.EZ (V/m) @ t=0.02
0.030305899498711875
% es.tEX (V/m) @ t=0.02
0.029501730427746065
% es.tEY (V/m) @ t=0.02
0
% es.tEZ (V/m) @ t=0.02
0.030305899498699773
% es.Ex (V/m) @ t=0.02
0.02950173042773674
% es.Ey (V/m) @ t=0.02
0.020155846008517386
% es.Ez (V/m) @ t=0.02
0.030305899498711875
% es.tEx (V/m) @ t=0.02
0.029501730427746065
% es.tEy (V/m) @ t=0.02
0
% es.tEz (V/m) @ t=0.02
0.030305899498699773
% V (V) @ t=0.02
0.020295743149326414
% es.normE (V/m) @ t=0.04
0.04728145384211592
% es.EX (V/m) @ t=0.04
0.029772502127777933
% es.EY (V/m) @ t=0.04
0.020340839655907494
% es.EZ (V/m) @ t=0.04
0.03058405199721348
% es.tEX (V/m) @ t=0.04
0.02977250212777882
% es.tEY (V/m) @ t=0.04
0
% es.tEZ (V/m) @ t=0.04
0.030584051997212924
% es.Ex (V/m) @ t=0.04
0.029772502127777933
% es.Ey (V/m) @ t=0.04
0.020340839655907494
% es.Ez (V/m) @ t=0.04
0.03058405199721348
% es.tEx (V/m) @ t=0.04
0.02977250212777882
% es.tEy (V/m) @ t=0.04
0
% es.tEz (V/m) @ t=0.04
0.030584051997212924
% V (V) @ t=0.04
0.020482020795124362
% es.normE (V/m) @ t=0.06
0.04771607737703721
% es.EX (V/m) @ t=0.06
0.030046178778707855
% es.EY (V/m) @ t=0.06
0.02052781799302128
% es.EZ (V/m) @ t=0.06
0.030865188635333496
% es.tEX (V/m) @ t=0.06
0.03004617877872162
% es.tEY (V/m) @ t=0.06
0
% es.tEZ (V/m) @ t=0.06
0.030865188635338825
% es.Ex (V/m) @ t=0.06
0.030046178778707855
% es.Ey (V/m) @ t=0.06
0.02052781799302128
% es.Ez (V/m) @ t=0.06
0.030865188635333496
% es.tEx (V/m) @ t=0.06
0.03004617877872162
% es.tEy (V/m) @ t=0.06
0
% es.tEz (V/m) @ t=0.06
0.030865188635338825
% V (V) @ t=0.06
0.020670296905397845
% es.normE (V/m) @ t=0.08
0.0481557249291402
% es.EX (V/m) @ t=0.08
0.030323018987899353
% es.EY (V/m) @ t=0.08
0.02071695770042492
% es.EZ (V/m) @ t=0.08
0.03114957506209859
% es.tEX (V/m) @ t=0.08
0.030323018987906014
% es.tEY (V/m) @ t=0.08
0
% es.tEZ (V/m) @ t=0.08
0.031149575062080714
% es.Ex (V/m) @ t=0.08
0.030323018987899353
% es.Ey (V/m) @ t=0.08
0.02071695770042492
% es.Ez (V/m) @ t=0.08
0.03114957506209859
% es.tEx (V/m) @ t=0.08
0.030323018987906014
% es.tEy (V/m) @ t=0.08
0
% es.tEz (V/m) @ t=0.08
0.031149575062080714
% V (V) @ t=0.08
0.020860749388063936
% es.normE (V/m) @ t=0.1
0.04860233204279636
% es.EX (V/m) @ t=0.1
0.03060424154246011
% es.EY (V/m) @ t=0.1
0.020909091464055507
% es.EZ (V/m) @ t=0.1
0.031438463285548
% es.tEX (V/m) @ t=0.1
0.030604241542472987
% es.tEY (V/m) @ t=0.1
0
% es.tEZ (V/m) @ t=0.1
0.03143846328556421
% es.Ex (V/m) @ t=0.1
0.03060424154246011
% es.Ey (V/m) @ t=0.1
0.020909091464055507
% es.Ez (V/m) @ t=0.1
0.031438463285548
% es.tEx (V/m) @ t=0.1
0.030604241542472987
% es.tEy (V/m) @ t=0.1
0
% es.tEz (V/m) @ t=0.1
0.03143846328556421
% V (V) @ t=0.1
0.021054216708691266
% es.normE (V/m) @ t=0.12
0.04904893915644433
% es.EX (V/m) @ t=0.12
0.03088546409701909
% es.EY (V/m) @ t=0.12
0.02110122522764879
% es.EZ (V/m) @ t=0.12
0.03172735150901129
% es.tEX (V/m) @ t=0.12
0.030885464097021753
% es.tEY (V/m) @ t=0.12
0
% es.tEZ (V/m) @ t=0.12
0.03172735150899442
% es.Ex (V/m) @ t=0.12
0.03088546409701909
% es.Ey (V/m) @ t=0.12
0.02110122522764879
% es.Ez (V/m) @ t=0.12
0.03172735150901129
% es.tEx (V/m) @ t=0.12
0.030885464097021753
% es.tEy (V/m) @ t=0.12
0
% es.tEz (V/m) @ t=0.12
0.03172735150899442
% V (V) @ t=0.12
0.021247684029318602
% es.normE (V/m) @ t=0.14
0.049495546270133195
% es.EX (V/m) @ t=0.14
0.031166686651580733
% es.EY (V/m) @ t=0.14
0.02129335899131135
% es.EZ (V/m) @ t=0.14
0.03201623973248913
% es.tEX (V/m) @ t=0.14
0.03116668665158695
% es.tEY (V/m) @ t=0.14
0
% es.tEZ (V/m) @ t=0.14
0.032016239732481466
% es.Ex (V/m) @ t=0.14
0.031166686651580733
% es.Ey (V/m) @ t=0.14
0.02129335899131135
% es.Ez (V/m) @ t=0.14
0.03201623973248913
% es.tEx (V/m) @ t=0.14
0.03116668665158695
% es.tEy (V/m) @ t=0.14
0
% es.tEz (V/m) @ t=0.14
0.032016239732481466
% V (V) @ t=0.14
0.021441151349945932
% es.normE (V/m) @ t=0.16
0.04996363187720804
% es.EX (V/m) @ t=0.16
0.03146143392987
% es.EY (V/m) @ t=0.16
0.021494732966110597
% es.EZ (V/m) @ t=0.16
0.0323190213365625
% es.tEX (V/m) @ t=0.16
0.03146143392987444
% es.tEY (V/m) @ t=0.16
0
% es.tEZ (V/m) @ t=0.16
0.03231902133656561
% es.Ex (V/m) @ t=0.16
0.03146143392987
% es.Ey (V/m) @ t=0.16
0.021494732966110597
% es.Ez (V/m) @ t=0.16
0.0323190213365625
% es.tEx (V/m) @ t=0.16
0.03146143392987444
% es.tEy (V/m) @ t=0.16
0
% es.tEz (V/m) @ t=0.16
0.03231902133656561
% V (V) @ t=0.16
0.021643923016001956
% es.normE (V/m) @ t=0.18
0.05043569585236728
% es.EX (V/m) @ t=0.18
0.031758686334038444
% es.EY (V/m) @ t=0.18
0.021697818465065133
% es.EZ (V/m) @ t=0.18
0.03262437635121529
% es.tEX (V/m) @ t=0.18
0.03175868633403489
% es.tEY (V/m) @ t=0.18
0
% es.tEZ (V/m) @ t=0.18
0.03262437635121884
% es.Ex (V/m) @ t=0.18
0.031758686334038444
% es.Ey (V/m) @ t=0.18
0.021697818465065133
% es.Ez (V/m) @ t=0.18
0.03262437635121529
% es.tEx (V/m) @ t=0.18
0.03175868633403489
% es.tEy (V/m) @ t=0.18
0
% es.tEz (V/m) @ t=0.18
0.03262437635121884
% V (V) @ t=0.18
0.021848418085578053
% es.normE (V/m) @ t=0.2
0.050907759827537834
% es.EX (V/m) @ t=0.2
0.03205593873820156
% es.EY (V/m) @ t=0.2
0.021900903964032103
% es.EZ (V/m) @ t=0.2
0.03292973136588251
% es.tEX (V/m) @ t=0.2
0.032055938738205114
% es.tEY (V/m) @ t=0.2
0
% es.tEZ (V/m) @ t=0.2
0.03292973136587918
% es.Ex (V/m) @ t=0.2
0.03205593873820156
% es.Ey (V/m) @ t=0.2
0.021900903964032103
% es.Ez (V/m) @ t=0.2
0.03292973136588251
% es.tEx (V/m) @ t=0.2
0.032055938738205114
% es.tEy (V/m) @ t=0.2
0
% es.tEz (V/m) @ t=0.2
0.03292973136587918
% V (V) @ t=0.2
0.022052913155154157
% es.normE (V/m) @ t=0.22
0.051379823802699745
% es.EX (V/m) @ t=0.22
0.032353191142362014
% es.EY (V/m) @ t=0.22
0.022103989463004403
% es.EZ (V/m) @ t=0.22
0.033235086380535406
% es.tEX (V/m) @ t=0.22
0.032353191142362014
% es.tEY (V/m) @ t=0.22
0
% es.tEZ (V/m) @ t=0.22
0.03323508638053596
% es.Ex (V/m) @ t=0.22
0.032353191142362014
% es.Ey (V/m) @ t=0.22
0.022103989463004403
% es.Ez (V/m) @ t=0.22
0.033235086380535406
% es.tEx (V/m) @ t=0.22
0.032353191142362014
% es.tEy (V/m) @ t=0.22
0
% es.tEz (V/m) @ t=0.22
0.03323508638053596
% V (V) @ t=0.22
0.022257408224730248
% es.normE (V/m) @ t=0.24
0.05185188777788852
% es.EX (V/m) @ t=0.24
0.03265044354653046
% es.EY (V/m) @ t=0.24
0.022307074961984696
% es.EZ (V/m) @ t=0.24
0.033540441395216725
% es.tEX (V/m) @ t=0.24
0.03265044354653446
% es.tEY (V/m) @ t=0.24
0
% es.tEZ (V/m) @ t=0.24
0.03354044139521406
% es.Ex (V/m) @ t=0.24
0.03265044354653046
% es.Ey (V/m) @ t=0.24
0.022307074961984696
% es.Ez (V/m) @ t=0.24
0.033540441395216725
% es.tEx (V/m) @ t=0.24
0.03265044354653446
% es.tEy (V/m) @ t=0.24
0
% es.tEz (V/m) @ t=0.24
0.03354044139521406
% V (V) @ t=0.24
0.02246190329430635
% es.normE (V/m) @ t=0.26
0.05232395175305323
% es.EX (V/m) @ t=0.26
0.03294769595067848
% es.EY (V/m) @ t=0.26
0.022510160460981865
% es.EZ (V/m) @ t=0.26
0.03384579640986951
% es.tEX (V/m) @ t=0.26
0.03294769595068958
% es.tEY (V/m) @ t=0.26
0
% es.tEZ (V/m) @ t=0.26
0.03384579640986374
% es.Ex (V/m) @ t=0.26
0.03294769595067848
% es.Ey (V/m) @ t=0.26
0.022510160460981865
% es.Ez (V/m) @ t=0.26
0.03384579640986951
% es.tEx (V/m) @ t=0.26
0.03294769595068958
% es.tEy (V/m) @ t=0.26
0
% es.tEz (V/m) @ t=0.26
0.03384579640986374
% V (V) @ t=0.26
0.022666398363882446
% es.normE (V/m) @ t=0.28
0.05279601572823404
% es.EX (V/m) @ t=0.28
0.033244948354846926
% es.EY (V/m) @ t=0.28
0.022713245959954165
% es.EZ (V/m) @ t=0.28
0.034151151424543835
% es.tEX (V/m) @ t=0.28
0.03324494835485714
% es.tEY (V/m) @ t=0.28
0
% es.tEZ (V/m) @ t=0.28
0.034151151424552495
% es.Ex (V/m) @ t=0.28
0.033244948354846926
% es.Ey (V/m) @ t=0.28
0.022713245959954165
% es.Ez (V/m) @ t=0.28
0.034151151424543835
% es.tEx (V/m) @ t=0.28
0.03324494835485714
% es.tEy (V/m) @ t=0.28
0
% es.tEz (V/m) @ t=0.28
0.034151151424552495
% V (V) @ t=0.28
0.02287089343345854
% es.normE (V/m) @ t=0.3
0.053286871126511905
% es.EX (V/m) @ t=0.3
0.03355403346628005
% es.EY (V/m) @ t=0.3
0.022924415671242038
% es.EZ (V/m) @ t=0.3
0.03446866169043061
% es.tEX (V/m) @ t=0.3
0.03355403346627961
% es.tEY (V/m) @ t=0.3
0
% es.tEZ (V/m) @ t=0.3
0.034468661690425506
% es.Ex (V/m) @ t=0.3
0.03355403346628005
% es.Ey (V/m) @ t=0.3
0.022924415671242038
% es.Ez (V/m) @ t=0.3
0.03446866169043061
% es.tEx (V/m) @ t=0.3
0.03355403346627961
% es.tEy (V/m) @ t=0.3
0
% es.tEz (V/m) @ t=0.3
0.034468661690425506
% V (V) @ t=0.3
0.02308352882577731
% es.normE (V/m) @ t=0.32
0.053786063681133534
% es.EX (V/m) @ t=0.32
0.033868368373303426
% es.EY (V/m) @ t=0.32
0.023139172090232307
% es.EZ (V/m) @ t=0.32
0.034791564854426804
% es.tEX (V/m) @ t=0.32
0.03386836837331186
% es.tEY (V/m) @ t=0.32
0
% es.tEZ (V/m) @ t=0.32
0.03479156485445145
% es.Ex (V/m) @ t=0.32
0.033868368373303426
% es.Ey (V/m) @ t=0.32
0.023139172090232307
% es.Ez (V/m) @ t=0.32
0.034791564854426804
% es.tEx (V/m) @ t=0.32
0.03386836837331186
% es.tEy (V/m) @ t=0.32
0
% es.tEz (V/m) @ t=0.32
0.03479156485445145
% V (V) @ t=0.32
0.023299775820201582
% es.normE (V/m) @ t=0.34
0.05428525623575859
% es.EX (V/m) @ t=0.34
0.03418270328031081
% es.EY (V/m) @ t=0.34
0.023353928509233235
% es.EZ (V/m) @ t=0.34
0.03511446801843676
% es.tEX (V/m) @ t=0.34
0.03418270328031925
% es.tEY (V/m) @ t=0.34
0
% es.tEZ (V/m) @ t=0.34
0.035114468018434764
% es.Ex (V/m) @ t=0.34
0.03418270328031081
% es.Ey (V/m) @ t=0.34
0.023353928509233235
% es.Ez (V/m) @ t=0.34
0.03511446801843676
% es.tEx (V/m) @ t=0.34
0.03418270328031925
% es.tEy (V/m) @ t=0.34
0
% es.tEz (V/m) @ t=0.34
0.035114468018434764
% V (V) @ t=0.34
0.023516022814625854
% es.normE (V/m) @ t=0.36
0.05478444879036973
% es.EX (V/m) @ t=0.36
0.03449703818734129
% es.EY (V/m) @ t=0.36
0.023568684928178207
% es.EZ (V/m) @ t=0.36
0.03543737118243995
% es.tEX (V/m) @ t=0.36
0.03449703818734928
% es.tEY (V/m) @ t=0.36
0
% es.tEZ (V/m) @ t=0.36
0.03543737118243584
% es.Ex (V/m) @ t=0.36
0.03449703818734129
% es.Ey (V/m) @ t=0.36
0.023568684928178207
% es.Ez (V/m) @ t=0.36
0.03543737118243995
% es.tEx (V/m) @ t=0.36
0.03449703818734928
% es.tEy (V/m) @ t=0.36
0
% es.tEz (V/m) @ t=0.36
0.03543737118243584
% V (V) @ t=0.36
0.023732269809050126
% es.normE (V/m) @ t=0.38
0.05528364134497318
% es.EX (V/m) @ t=0.38
0.03481137309436377
% es.EY (V/m) @ t=0.38
0.023783441347159595
% es.EZ (V/m) @ t=0.38
0.03576027434641482
% es.tEX (V/m) @ t=0.38
0.03481137309436644
% es.tEY (V/m) @ t=0.38
0
% es.tEZ (V/m) @ t=0.38
0.03576027434640494
% es.Ex (V/m) @ t=0.38
0.03481137309436377
% es.Ey (V/m) @ t=0.38
0.023783441347159595
% es.Ez (V/m) @ t=0.38
0.03576027434641482
% es.tEx (V/m) @ t=0.38
0.03481137309436644
% es.tEy (V/m) @ t=0.38
0
% es.tEz (V/m) @ t=0.38
0.03576027434640494
% V (V) @ t=0.38
0.023948516803474394
% es.normE (V/m) @ t=0.4
0.0557828338996178
% es.EX (V/m) @ t=0.4
0.03512570800137915
% es.EY (V/m) @ t=0.4
0.023998197766183615
% es.EZ (V/m) @ t=0.4
0.036083177510431885
% es.tEX (V/m) @ t=0.4
0.0351257080013907
% es.tEY (V/m) @ t=0.4
0
% es.tEZ (V/m) @ t=0.4
0.0360831775104451
% es.Ex (V/m) @ t=0.4
0.03512570800137915
% es.Ey (V/m) @ t=0.4
0.023998197766183615
% es.Ez (V/m) @ t=0.4
0.036083177510431885
% es.tEx (V/m) @ t=0.4
0.0351257080013907
% es.tEy (V/m) @ t=0.4
0
% es.tEz (V/m) @ t=0.4
0.0360831775104451
% V (V) @ t=0.4
0.024164763797898663
% es.normE (V/m) @ t=0.42
0.05628202645423938
% es.EX (V/m) @ t=0.42
0.035440042908402525
% es.EY (V/m) @ t=0.42
0.02421295418515257
% es.EZ (V/m) @ t=0.42
0.036406080674442176
% es.tEX (V/m) @ t=0.42
0.03544004290841851
% es.tEY (V/m) @ t=0.42
0
% es.tEZ (V/m) @ t=0.42
0.036406080674449726
% es.Ex (V/m) @ t=0.42
0.035440042908402525
% es.Ey (V/m) @ t=0.42
0.02421295418515257
% es.Ez (V/m) @ t=0.42
0.036406080674442176
% es.tEx (V/m) @ t=0.42
0.03544004290841851
% es.tEy (V/m) @ t=0.42
0
% es.tEz (V/m) @ t=0.42
0.036406080674449726
% V (V) @ t=0.42
0.024381010792322935
% es.normE (V/m) @ t=0.44
0.05681459813687206
% es.EX (V/m) @ t=0.44
0.03577539621314774
% es.EY (V/m) @ t=0.44
0.024442070558266416
% es.EZ (V/m) @ t=0.44
0.036750575152931786
% es.tEX (V/m) @ t=0.44
0.03577539621316017
% es.tEY (V/m) @ t=0.44
0
% es.tEZ (V/m) @ t=0.44
0.03675057515292224
% es.Ex (V/m) @ t=0.44
0.03577539621314774
% es.Ey (V/m) @ t=0.44
0.024442070558266416
% es.Ez (V/m) @ t=0.44
0.036750575152931786
% es.tEx (V/m) @ t=0.44
0.03577539621316017
% es.tEy (V/m) @ t=0.44
0
% es.tEz (V/m) @ t=0.44
0.03675057515292224
% V (V) @ t=0.44
0.024611717411142462
% es.normE (V/m) @ t=0.46
0.05737541687680793
% es.EX (V/m) @ t=0.46
0.03612853631822599
% es.EY (V/m) @ t=0.46
0.024683339029716755
% es.EZ (V/m) @ t=0.46
0.037113341262060784
% es.tEX (V/m) @ t=0.46
0.03612853631822688
% es.tEY (V/m) @ t=0.46
0
% es.tEZ (V/m) @ t=0.46
0.037113341262056565
% es.Ex (V/m) @ t=0.46
0.03612853631822599
% es.Ey (V/m) @ t=0.46
0.024683339029716755
% es.Ez (V/m) @ t=0.46
0.037113341262060784
% es.tEx (V/m) @ t=0.46
0.03612853631822688
% es.tEy (V/m) @ t=0.46
0
% es.tEz (V/m) @ t=0.46
0.037113341262056565
% V (V) @ t=0.46
0.024854660474214887
% es.normE (V/m) @ t=0.48
0.057936235616785195
% es.EX (V/m) @ t=0.48
0.03648167642330602
% es.EY (V/m) @ t=0.48
0.024924607501249696
% es.EZ (V/m) @ t=0.48
0.03747610737119711
% es.tEX (V/m) @ t=0.48
0.03648167642331934
% es.tEY (V/m) @ t=0.48
0
% es.tEZ (V/m) @ t=0.48
0.03747610737121576
% es.Ex (V/m) @ t=0.48
0.03648167642330602
% es.Ey (V/m) @ t=0.48
0.024924607501249696
% es.Ez (V/m) @ t=0.48
0.03747610737119711
% es.tEx (V/m) @ t=0.48
0.03648167642331934
% es.tEy (V/m) @ t=0.48
0
% es.tEz (V/m) @ t=0.48
0.03747610737121576
% V (V) @ t=0.48
0.0250976035372873
% es.normE (V/m) @ t=0.5
0.05849705435674024
% es.EX (V/m) @ t=0.5
0.03683481652838516
% es.EY (V/m) @ t=0.5
0.025165875972700924
% es.EZ (V/m) @ t=0.5
0.03783887348035431
% es.tEX (V/m) @ t=0.5
0.036834816528397596
% es.tEY (V/m) @ t=0.5
0
% es.tEZ (V/m) @ t=0.5
0.037838873480371404
% es.Ex (V/m) @ t=0.5
0.03683481652838516
% es.Ey (V/m) @ t=0.5
0.025165875972700924
% es.Ez (V/m) @ t=0.5
0.03783887348035431
% es.tEx (V/m) @ t=0.5
0.036834816528397596
% es.tEy (V/m) @ t=0.5
0
% es.tEz (V/m) @ t=0.5
0.037838873480371404
% V (V) @ t=0.5
0.02534054660035973
% es.normE (V/m) @ t=0.52
0.0590578730966896
% es.EX (V/m) @ t=0.52
0.03718795663346519
% es.EY (V/m) @ t=0.52
0.025407144444179686
% es.EZ (V/m) @ t=0.52
0.03820163958948353
% es.tEX (V/m) @ t=0.52
0.0371879566334723
% es.tEY (V/m) @ t=0.52
0
% es.tEZ (V/m) @ t=0.52
0.03820163958947731
% es.Ex (V/m) @ t=0.52
0.03718795663346519
% es.Ey (V/m) @ t=0.52
0.025407144444179686
% es.Ez (V/m) @ t=0.52
0.03820163958948353
% es.tEx (V/m) @ t=0.52
0.0371879566334723
% es.tEy (V/m) @ t=0.52
0
% es.tEz (V/m) @ t=0.52
0.03820163958947731
% V (V) @ t=0.52
0.02558348966343215
% es.normE (V/m) @ t=0.54
0.05961869183666091
% es.EX (V/m) @ t=0.54
0.03754109673855055
% es.EY (V/m) @ t=0.54
0.02564841291569131
% es.EZ (V/m) @ t=0.54
0.03856440569861963
% es.tEX (V/m) @ t=0.54
0.03754109673854966
% es.tEY (V/m) @ t=0.54
0
% es.tEZ (V/m) @ t=0.54
0.03856440569862585
% es.Ex (V/m) @ t=0.54
0.03754109673855055
% es.Ey (V/m) @ t=0.54
0.02564841291569131
% es.Ez (V/m) @ t=0.54
0.03856440569861963
% es.tEx (V/m) @ t=0.54
0.03754109673854966
% es.tEy (V/m) @ t=0.54
0
% es.tEz (V/m) @ t=0.54
0.03856440569862585
% V (V) @ t=0.54
0.025826432726504568
% es.normE (V/m) @ t=0.56
0.06017951057659726
% es.EX (V/m) @ t=0.56
0.037894236843623474
% es.EY (V/m) @ t=0.56
0.025889681387129215
% es.EZ (V/m) @ t=0.56
0.03892717180776284
% es.tEX (V/m) @ t=0.56
0.03789423684363502
% es.tEY (V/m) @ t=0.56
0
% es.tEZ (V/m) @ t=0.56
0.03892717180773886
% es.Ex (V/m) @ t=0.56
0.037894236843623474
% es.Ey (V/m) @ t=0.56
0.025889681387129215
% es.Ez (V/m) @ t=0.56
0.03892717180776284
% es.tEx (V/m) @ t=0.56
0.03789423684363502
% es.tEy (V/m) @ t=0.56
0
% es.tEz (V/m) @ t=0.56
0.03892717180773886
% V (V) @ t=0.56
0.026069375789576993
% es.normE (V/m) @ t=0.58
0.06074032931657403
% es.EX (V/m) @ t=0.58
0.03824737694871061
% es.EY (V/m) @ t=0.58
0.02613094985865061
% es.EZ (V/m) @ t=0.58
0.039289937916899165
% es.tEX (V/m) @ t=0.58
0.03824737694871683
% es.tEY (V/m) @ t=0.58
0
% es.tEZ (V/m) @ t=0.58
0.03928993791690516
% es.Ex (V/m) @ t=0.58
0.03824737694871061
% es.Ey (V/m) @ t=0.58
0.02613094985865061
% es.Ez (V/m) @ t=0.58
0.039289937916899165
% es.tEx (V/m) @ t=0.58
0.03824737694871683
% es.tEy (V/m) @ t=0.58
0
% es.tEz (V/m) @ t=0.58
0.03928993791690516
% V (V) @ t=0.58
0.026312318852649407
% es.normE (V/m) @ t=0.6
0.06130114805650184
% es.EX (V/m) @ t=0.6
0.03860051705376755
% es.EY (V/m) @ t=0.6
0.026372218330102726
% es.EZ (V/m) @ t=0.6
0.03965270402603527
% es.tEX (V/m) @ t=0.6
0.038600517053783534
% es.tEY (V/m) @ t=0.6
0
% es.tEZ (V/m) @ t=0.6
0.03965270402603238
% es.Ex (V/m) @ t=0.6
0.03860051705376755
% es.Ey (V/m) @ t=0.6
0.026372218330102726
% es.Ez (V/m) @ t=0.6
0.03965270402603527
% es.tEx (V/m) @ t=0.6
0.038600517053783534
% es.tEy (V/m) @ t=0.6
0
% es.tEz (V/m) @ t=0.6
0.03965270402603238
% V (V) @ t=0.6
0.026555261915721835
% es.normE (V/m) @ t=0.62
0.06186196679644348
% es.EX (V/m) @ t=0.62
0.038953657158853794
% es.EY (V/m) @ t=0.62
0.02661348680157616
% es.EZ (V/m) @ t=0.62
0.040015470135150055
% es.tEX (V/m) @ t=0.62
0.038953657158858235
% es.tEY (V/m) @ t=0.62
0
% es.tEZ (V/m) @ t=0.62
0.04001547013514184
% es.Ex (V/m) @ t=0.62
0.038953657158853794
% es.Ey (V/m) @ t=0.62
0.02661348680157616
% es.Ez (V/m) @ t=0.62
0.040015470135150055
% es.tEx (V/m) @ t=0.62
0.038953657158858235
% es.tEy (V/m) @ t=0.62
0
% es.tEz (V/m) @ t=0.62
0.04001547013514184
% V (V) @ t=0.62
0.026798204978794257
% es.normE (V/m) @ t=0.64
0.06242278553641705
% es.EX (V/m) @ t=0.64
0.03930679726394093
% es.EY (V/m) @ t=0.64
0.026854755273090447
% es.EZ (V/m) @ t=0.64
0.04037823624428616
% es.tEX (V/m) @ t=0.64
0.039306797263947146
% es.tEY (V/m) @ t=0.64
0
% es.tEZ (V/m) @ t=0.64
0.04037823624430459
% es.Ex (V/m) @ t=0.64
0.03930679726394093
% es.Ey (V/m) @ t=0.64
0.026854755273090447
% es.Ez (V/m) @ t=0.64
0.04037823624428616
% es.tEx (V/m) @ t=0.64
0.039306797263947146
% es.tEy (V/m) @ t=0.64
0
% es.tEz (V/m) @ t=0.64
0.04037823624430459
% V (V) @ t=0.64
0.027041148041866678
% es.normE (V/m) @ t=0.66
0.06298360427636518
% es.EX (V/m) @ t=0.66
0.03965993736900586
% es.EY (V/m) @ t=0.66
0.02709602374457809
% es.EZ (V/m) @ t=0.66
0.04074100235342226
% es.tEX (V/m) @ t=0.66
0.03965993736901474
% es.tEY (V/m) @ t=0.66
0
% es.tEZ (V/m) @ t=0.66
0.04074100235342115
% es.Ex (V/m) @ t=0.66
0.03965993736900586
% es.Ey (V/m) @ t=0.66
0.02709602374457809
% es.Ez (V/m) @ t=0.66
0.04074100235342226
% es.tEx (V/m) @ t=0.66
0.03965993736901474
% es.tEy (V/m) @ t=0.66
0
% es.tEz (V/m) @ t=0.66
0.04074100235342115
% V (V) @ t=0.66
0.027284091104939096
% es.normE (V/m) @ t=0.68
0.06354442301632937
% es.EX (V/m) @ t=0.68
0.04001307747408411
% es.EY (V/m) @ t=0.68
0.027337292216051523
% es.EZ (V/m) @ t=0.68
0.04110376846257968
% es.tEX (V/m) @ t=0.68
0.04001307747409921
% es.tEY (V/m) @ t=0.68
0
% es.tEZ (V/m) @ t=0.68
0.04110376846258745
% es.Ex (V/m) @ t=0.68
0.04001307747408411
% es.Ey (V/m) @ t=0.68
0.027337292216051523
% es.Ez (V/m) @ t=0.68
0.04110376846257968
% es.tEx (V/m) @ t=0.68
0.04001307747409921
% es.tEy (V/m) @ t=0.68
0
% es.tEz (V/m) @ t=0.68
0.04110376846258745
% V (V) @ t=0.68
0.027527034168011524
% es.normE (V/m) @ t=0.7
0.06410524175628665
% es.EX (V/m) @ t=0.7
0.04036621757917125
% es.EY (V/m) @ t=0.7
0.02757856068752762
% es.EZ (V/m) @ t=0.7
0.04146653457171601
% es.tEX (V/m) @ t=0.7
0.040366217579187236
% es.tEY (V/m) @ t=0.7
0
% es.tEZ (V/m) @ t=0.7
0.041466534571728886
% es.Ex (V/m) @ t=0.7
0.04036621757917125
% es.Ey (V/m) @ t=0.7
0.02757856068752762
% es.Ez (V/m) @ t=0.7
0.04146653457171601
% es.tEx (V/m) @ t=0.7
0.040366217579187236
% es.tEy (V/m) @ t=0.7
0
% es.tEz (V/m) @ t=0.7
0.041466534571728886
% V (V) @ t=0.7
0.02776997723108394
% es.normE (V/m) @ t=0.72
0.06468106560160997
% es.EX (V/m) @ t=0.72
0.0407288061962241
% es.EY (V/m) @ t=0.72
0.027826284468801532
% es.EZ (V/m) @ t=0.72
0.0418390067502985
% es.tEX (V/m) @ t=0.72
0.04072880619623742
% es.tEY (V/m) @ t=0.72
0
% es.tEZ (V/m) @ t=0.72
0.04183900675029406
% es.Ex (V/m) @ t=0.72
0.0407288061962241
% es.Ey (V/m) @ t=0.72
0.027826284468801532
% es.Ez (V/m) @ t=0.72
0.0418390067502985
% es.tEx (V/m) @ t=0.72
0.04072880619623742
% es.tEy (V/m) @ t=0.72
0
% es.tEz (V/m) @ t=0.72
0.04183900675029406
% V (V) @ t=0.72
0.028019420408094742
% es.normE (V/m) @ t=0.74
0.06530452142743834
% es.EX (V/m) @ t=0.74
0.0411213880274266
% es.EY (V/m) @ t=0.74
0.028094499888186242
% es.EZ (V/m) @ t=0.74
0.042242289729574
% es.tEX (V/m) @ t=0.74
0.04112138802743992
% es.tEY (V/m) @ t=0.74
0
% es.tEZ (V/m) @ t=0.74
0.04224228972956112
% es.Ex (V/m) @ t=0.74
0.0411213880274266
% es.Ey (V/m) @ t=0.74
0.028094499888186242
% es.Ez (V/m) @ t=0.74
0.042242289729574
% es.tEx (V/m) @ t=0.74
0.04112138802743992
% es.tEy (V/m) @ t=0.74
0
% es.tEz (V/m) @ t=0.74
0.04224228972956112
% V (V) @ t=0.74
0.02828949744893218
% es.normE (V/m) @ t=0.76
0.06592797725329413
% es.EX (V/m) @ t=0.76
0.0415139698586362
% es.EY (V/m) @ t=0.76
0.028362715307613584
% es.EZ (V/m) @ t=0.76
0.042645572708856605
% es.tEX (V/m) @ t=0.76
0.041513969858639754
% es.tEY (V/m) @ t=0.76
0
% es.tEZ (V/m) @ t=0.76
0.04264557270886371
% es.Ex (V/m) @ t=0.76
0.0415139698586362
% es.Ey (V/m) @ t=0.76
0.028362715307613584
% es.Ez (V/m) @ t=0.76
0.042645572708856605
% es.tEx (V/m) @ t=0.76
0.041513969858639754
% es.tEy (V/m) @ t=0.76
0
% es.tEz (V/m) @ t=0.76
0.04264557270886371
% V (V) @ t=0.76
0.028559574489769608
% es.normE (V/m) @ t=0.78
0.06655143307913647
% es.EX (V/m) @ t=0.78
0.0419065516898538
% es.EY (V/m) @ t=0.78
0.028630930726998294
% es.EZ (V/m) @ t=0.78
0.04304885568813899
% es.tEX (V/m) @ t=0.78
0.04190655168986179
% es.tEY (V/m) @ t=0.78
0
% es.tEZ (V/m) @ t=0.78
0.04304885568815919
% es.Ex (V/m) @ t=0.78
0.0419065516898538
% es.Ey (V/m) @ t=0.78
0.028630930726998294
% es.Ez (V/m) @ t=0.78
0.04304885568813899
% es.tEx (V/m) @ t=0.78
0.04190655168986179
% es.tEy (V/m) @ t=0.78
0
% es.tEz (V/m) @ t=0.78
0.04304885568815919
% V (V) @ t=0.78
0.028829651530607042
% es.normE (V/m) @ t=0.8
0.06717488890501526
% es.EX (V/m) @ t=0.8
0.042299133521057186
% es.EY (V/m) @ t=0.8
0.028899146146466492
% es.EZ (V/m) @ t=0.8
0.043452138667436024
% es.tEX (V/m) @ t=0.8
0.04229913352106163
% es.tEY (V/m) @ t=0.8
0
% es.tEZ (V/m) @ t=0.8
0.04345213866743691
% es.Ex (V/m) @ t=0.8
0.042299133521057186
% es.Ey (V/m) @ t=0.8
0.028899146146466492
% es.Ez (V/m) @ t=0.8
0.043452138667436024
% es.tEx (V/m) @ t=0.8
0.04229913352106163
% es.tEy (V/m) @ t=0.8
0
% es.tEz (V/m) @ t=0.8
0.04345213866743691
% V (V) @ t=0.8
0.029099728571444484
% es.normE (V/m) @ t=0.82
0.0677983447308723
% es.EX (V/m) @ t=0.82
0.0426917153522508
% es.EY (V/m) @ t=0.82
0.029167361565909822
% es.EZ (V/m) @ t=0.82
0.04385542164672551
% es.tEX (V/m) @ t=0.82
0.042691715352264126
% es.tEY (V/m) @ t=0.82
0
% es.tEZ (V/m) @ t=0.82
0.0438554216467395
% es.Ex (V/m) @ t=0.82
0.0426917153522508
% es.Ey (V/m) @ t=0.82
0.029167361565909822
% es.Ez (V/m) @ t=0.82
0.04385542164672551
% es.tEx (V/m) @ t=0.82
0.042691715352264126
% es.tEy (V/m) @ t=0.82
0
% es.tEz (V/m) @ t=0.82
0.0438554216467395
% V (V) @ t=0.82
0.02936980561228191
% es.normE (V/m) @ t=0.84
0.06842180055673841
% es.EX (V/m) @ t=0.84
0.043084297183475506
% es.EY (V/m) @ t=0.84
0.029435576985306966
% es.EZ (V/m) @ t=0.84
0.04425870462602943
% es.tEX (V/m) @ t=0.84
0.043084297183486164
% es.tEY (V/m) @ t=0.84
0
% es.tEZ (V/m) @ t=0.84
0.04425870462601367
% es.Ex (V/m) @ t=0.84
0.043084297183475506
% es.Ey (V/m) @ t=0.84
0.029435576985306966
% es.Ez (V/m) @ t=0.84
0.04425870462602943
% es.tEx (V/m) @ t=0.84
0.043084297183486164
% es.tEy (V/m) @ t=0.84
0
% es.tEz (V/m) @ t=0.84
0.04425870462601367
% V (V) @ t=0.84
0.029639882653119343
% es.normE (V/m) @ t=0.86
0.06904525638259273
% es.EX (V/m) @ t=0.86
0.04347687901467978
% es.EY (V/m) @ t=0.86
0.029703792404749407
% es.EZ (V/m) @ t=0.86
0.04466198760530493
% es.tEX (V/m) @ t=0.86
0.043476879014686
% es.tEY (V/m) @ t=0.86
0
% es.tEZ (V/m) @ t=0.86
0.04466198760530915
% es.Ex (V/m) @ t=0.86
0.04347687901467978
% es.Ey (V/m) @ t=0.86
0.029703792404749407
% es.Ez (V/m) @ t=0.86
0.04466198760530493
% es.tEx (V/m) @ t=0.86
0.043476879014686
% es.tEy (V/m) @ t=0.86
0
% es.tEz (V/m) @ t=0.86
0.04466198760530915
% V (V) @ t=0.86
0.02990995969395678
% es.normE (V/m) @ t=0.88
0.06966871220844469
% es.EX (V/m) @ t=0.88
0.043869460845889385
% es.EY (V/m) @ t=0.88
0.029972007824189184
% es.EZ (V/m) @ t=0.88
0.045065270584573325
% es.tEX (V/m) @ t=0.88
0.04386946084589738
% es.tEY (V/m) @ t=0.88
0
% es.tEZ (V/m) @ t=0.88
0.045065270584579764
% es.Ex (V/m) @ t=0.88
0.043869460845889385
% es.Ey (V/m) @ t=0.88
0.029972007824189184
% es.Ez (V/m) @ t=0.88
0.045065270584573325
% es.tEx (V/m) @ t=0.88
0.04386946084589738
% es.tEy (V/m) @ t=0.88
0
% es.tEz (V/m) @ t=0.88
0.045065270584579764
% V (V) @ t=0.88
0.030180036734794215
% es.normE (V/m) @ t=0.9
0.07029216803431029
% es.EX (V/m) @ t=0.9
0.04426204267709899
% es.EY (V/m) @ t=0.9
0.030240223243618303
% es.EZ (V/m) @ t=0.9
0.04546855356386992
% es.tEX (V/m) @ t=0.9
0.04426204267710698
% es.tEY (V/m) @ t=0.9
0
% es.tEZ (V/m) @ t=0.9
0.045468553563861036
% es.Ex (V/m) @ t=0.9
0.04426204267709899
% es.Ey (V/m) @ t=0.9
0.030240223243618303
% es.Ez (V/m) @ t=0.9
0.04546855356386992
% es.tEx (V/m) @ t=0.9
0.04426204267710698
% es.tEy (V/m) @ t=0.9
0
% es.tEz (V/m) @ t=0.9
0.045468553563861036
% V (V) @ t=0.9
0.030450113775631647
% es.normE (V/m) @ t=0.92
0.07091562386016186
% es.EX (V/m) @ t=0.92
0.04465462450829616
% es.EY (V/m) @ t=0.92
0.030508438663032322
% es.EZ (V/m) @ t=0.92
0.045871836543166955
% es.tEX (V/m) @ t=0.92
0.04465462450831037
% es.tEY (V/m) @ t=0.92
0
% es.tEZ (V/m) @ t=0.92
0.04587183654316007
% es.Ex (V/m) @ t=0.92
0.04465462450829616
% es.Ey (V/m) @ t=0.92
0.030508438663032322
% es.Ez (V/m) @ t=0.92
0.045871836543166955
% es.tEx (V/m) @ t=0.92
0.04465462450831037
% es.tEy (V/m) @ t=0.92
0
% es.tEz (V/m) @ t=0.92
0.04587183654316007
% V (V) @ t=0.92
0.03072019081646908
% es.normE (V/m) @ t=0.94
0.07153907968602562
% es.EX (V/m) @ t=0.94
0.04504720633951198
% es.EY (V/m) @ t=0.94
0.030776654082458776
% es.EZ (V/m) @ t=0.94
0.04627511952245644
% es.tEX (V/m) @ t=0.94
0.04504720633952175
% es.tEY (V/m) @ t=0.94
0
% es.tEZ (V/m) @ t=0.94
0.04627511952245911
% es.Ex (V/m) @ t=0.94
0.04504720633951198
% es.Ey (V/m) @ t=0.94
0.030776654082458776
% es.Ez (V/m) @ t=0.94
0.04627511952245644
% es.tEx (V/m) @ t=0.94
0.04504720633952175
% es.tEy (V/m) @ t=0.94
0
% es.tEz (V/m) @ t=0.94
0.04627511952245911
% V (V) @ t=0.94
0.030990267857306512
% es.normE (V/m) @ t=0.96
0.07216253551191111
% es.EX (V/m) @ t=0.96
0.045439788170721584
% es.EY (V/m) @ t=0.96
0.031044869501912764
% es.EZ (V/m) @ t=0.96
0.04667840250176725
% es.tEX (V/m) @ t=0.96
0.04543978817072869
% es.tEY (V/m) @ t=0.96
0
% es.tEZ (V/m) @ t=0.96
0.046678402501761695
% es.Ex (V/m) @ t=0.96
0.045439788170721584
% es.Ey (V/m) @ t=0.96
0.031044869501912764
% es.Ez (V/m) @ t=0.96
0.04667840250176725
% es.tEx (V/m) @ t=0.96
0.04543978817072869
% es.tEy (V/m) @ t=0.96
0
% es.tEz (V/m) @ t=0.96
0.046678402501761695
% V (V) @ t=0.96
0.031260344898143944
% es.normE (V/m) @ t=0.98
0.07281198670262817
% es.EX (V/m) @ t=0.98
0.04584873893819541
% es.EY (V/m) @ t=0.98
0.031324268324328663
% es.EZ (V/m) @ t=0.98
0.04709850060571319
% es.tEX (V/m) @ t=0.98
0.04584873893820962
% es.tEY (V/m) @ t=0.98
0
% es.tEZ (V/m) @ t=0.98
0.04709850060571341
% es.Ex (V/m) @ t=0.98
0.04584873893819541
% es.Ey (V/m) @ t=0.98
0.031324268324328663
% es.Ez (V/m) @ t=0.98
0.04709850060571319
% es.tEx (V/m) @ t=0.98
0.04584873893820962
% es.tEy (V/m) @ t=0.98
0
% es.tEz (V/m) @ t=0.98
0.04709850060571341
% V (V) @ t=0.98
0.031541682963641154
% es.normE (V/m) @ t=1
0.07350614319623791
% es.EX (V/m) @ t=1
0.046285840041620396
% es.EY (V/m) @ t=1
0.03162289970679666
% es.EZ (V/m) @ t=1
0.04754751637426757
% es.tEX (V/m) @ t=1
0.046285840041631054
% es.tEY (V/m) @ t=1
0
% es.tEZ (V/m) @ t=1
0.0475475163742729
% es.Ex (V/m) @ t=1
0.046285840041620396
% es.Ey (V/m) @ t=1
0.03162289970679666
% es.Ez (V/m) @ t=1
0.04754751637426757
% es.tEx (V/m) @ t=1
0.046285840041631054
% es.tEy (V/m) @ t=1
0
% es.tEz (V/m) @ t=1
0.0475475163742729
% V (V) @ t=1
0.0318423870784803
% es.normE (V/m) @ t=1.02
0.0742002996899112
% es.EX (V/m) @ t=1.02
0.04672294114503028
% es.EY (V/m) @ t=1.02
0.03192153108937035
% es.EZ (V/m) @ t=1.02
0.04799653214286459
% es.tEX (V/m) @ t=1.02
0.04672294114504805