% Model:              1 neuron.mph
% Version:            COMSOL 6.1.0.252
% Date:               Mar 18 2023, 12:14
% Dimension:          0
% Nodes:              14017
% Expressions:        14017
% Description:        Electric field norm, Electric field, X component, Electric field, Y component, Electric field, Z component, Tangential electric field, X component, Tangential electric field, Y component, Tangential electric field, Z component, Electric field, x component, Electric field, y component, Electric field, z component, Tangential electric field, x component, Tangential electric field, y component, Tangential electric field, z component, Electric potential
% Length unit:        mm
% x
1.33
% y
12.2
% z
1.33
% es.normE (V/m) @ t=0
7.712090355293811
% es.EX (V/m) @ t=0
5.97597505762003
% es.EY (V/m) @ t=0
-0.915696718376398
% es.EZ (V/m) @ t=0
4.774158568273066
% es.tEX (V/m) @ t=0
5.975975057620055
% es.tEY (V/m) @ t=0
0
% es.tEZ (V/m) @ t=0
4.774158568273071
% es.Ex (V/m) @ t=0
5.97597505762003
% es.Ey (V/m) @ t=0
-0.915696718376398
% es.Ez (V/m) @ t=0
4.774158568273066
% es.tEx (V/m) @ t=0
5.975975057620055
% es.tEy (V/m) @ t=0
0
% es.tEz (V/m) @ t=0
4.774158568273071
% V (V) @ t=0
0.0063688975720747635
% es.normE (V/m) @ t=0.02
6.6610227587360935
% es.EX (V/m) @ t=0.02
5.161519643489982
% es.EY (V/m) @ t=0.02
-0.7908979787723425
% es.EZ (V/m) @ t=0.02
4.123496667975059
% es.tEX (V/m) @ t=0.02
5.161519643490005
% es.tEY (V/m) @ t=0.02
0
% es.tEZ (V/m) @ t=0.02
4.123496667975054
% es.Ex (V/m) @ t=0.02
5.161519643489982
% es.Ey (V/m) @ t=0.02
-0.7908979787723425
% es.Ez (V/m) @ t=0.02
4.123496667975059
% es.tEx (V/m) @ t=0.02
5.161519643490005
% es.tEy (V/m) @ t=0.02
0
% es.tEz (V/m) @ t=0.02
4.123496667975054
% V (V) @ t=0.02
0.005500891419781415
% es.normE (V/m) @ t=0.04
6.7222987283848274
% es.EX (V/m) @ t=0.04
5.209001408622536
% es.EY (V/m) @ t=0.04
-0.7981735933367666
% es.EZ (V/m) @ t=0.04
4.161429470672567
% es.tEX (V/m) @ t=0.04
5.209001408622573
% es.tEY (V/m) @ t=0.04
0
% es.tEZ (V/m) @ t=0.04
4.161429470672563
% es.Ex (V/m) @ t=0.04
5.209001408622536
% es.Ey (V/m) @ t=0.04
-0.7981735933367666
% es.Ez (V/m) @ t=0.04
4.161429470672567
% es.tEx (V/m) @ t=0.04
5.209001408622573
% es.tEy (V/m) @ t=0.04
0
% es.tEz (V/m) @ t=0.04
4.161429470672563
% V (V) @ t=0.04
0.0055514951269269456
% es.normE (V/m) @ t=0.06
6.784136885593833
% es.EX (V/m) @ t=0.06
5.256918804199589
% es.EY (V/m) @ t=0.06
-0.8055159600820252
% es.EZ (V/m) @ t=0.06
4.19971029416381
% es.tEX (V/m) @ t=0.06
5.256918804199592
% es.tEY (V/m) @ t=0.06
0
% es.tEZ (V/m) @ t=0.06
4.1997102941638005
% es.Ex (V/m) @ t=0.06
5.256918804199589
% es.Ey (V/m) @ t=0.06
-0.8055159600820252
% es.Ez (V/m) @ t=0.06
4.19971029416381
% es.tEx (V/m) @ t=0.06
5.256918804199592
% es.tEy (V/m) @ t=0.06
0
% es.tEz (V/m) @ t=0.06
4.1997102941638005
% V (V) @ t=0.06
0.005602563108244153
% es.normE (V/m) @ t=0.08
6.846896178171619
% es.EX (V/m) @ t=0.08
5.305549970169089
% es.EY (V/m) @ t=0.08
-0.8129676919502442
% es.EZ (V/m) @ t=0.08
4.23856135023751
% es.tEX (V/m) @ t=0.08
5.3055499701691105
% es.tEY (V/m) @ t=0.08
0
% es.tEZ (V/m) @ t=0.08
4.238561350237515
% es.Ex (V/m) @ t=0.08
5.305549970169089
% es.Ey (V/m) @ t=0.08
-0.8129676919502442
% es.Ez (V/m) @ t=0.08
4.23856135023751
% es.tEx (V/m) @ t=0.08
5.3055499701691105
% es.tEy (V/m) @ t=0.08
0
% es.tEz (V/m) @ t=0.08
4.238561350237515
% V (V) @ t=0.08
0.005654391783498866
% es.normE (V/m) @ t=0.1
6.910343128865133
% es.EX (V/m) @ t=0.1
5.354713989419203
% es.EY (V/m) @ t=0.1
-0.8205010685114056
% es.EZ (V/m) @ t=0.1
4.2778381038541164
% es.tEX (V/m) @ t=0.1
5.354713989419226
% es.tEY (V/m) @ t=0.1
0
% es.tEZ (V/m) @ t=0.1
4.277838103854113
% es.Ex (V/m) @ t=0.1
5.354713989419203
% es.Ey (V/m) @ t=0.1
-0.8205010685114056
% es.Ez (V/m) @ t=0.1
4.2778381038541164
% es.tEx (V/m) @ t=0.1
5.354713989419226
% es.tEy (V/m) @ t=0.1
0
% es.tEz (V/m) @ t=0.1
4.277838103854113
% V (V) @ t=0.1
0.005706788342017434
% es.normE (V/m) @ t=0.12
6.973790079558668
% es.EX (V/m) @ t=0.12
5.403878008669342
% es.EY (V/m) @ t=0.12
-0.8280344450725927
% es.EZ (V/m) @ t=0.12
4.3171148574707185
% es.tEX (V/m) @ t=0.12
5.403878008669354
% es.tEY (V/m) @ t=0.12
0
% es.tEZ (V/m) @ t=0.12
4.317114857470715
% es.Ex (V/m) @ t=0.12
5.403878008669342
% es.Ey (V/m) @ t=0.12
-0.8280344450725927
% es.Ez (V/m) @ t=0.12
4.3171148574707185
% es.tEx (V/m) @ t=0.12
5.403878008669354
% es.tEy (V/m) @ t=0.12
0
% es.tEz (V/m) @ t=0.12
4.317114857470715
% V (V) @ t=0.12
0.0057591849005360005
% es.normE (V/m) @ t=0.14
7.037765112958252
% es.EX (V/m) @ t=0.14
5.453451235345726
% es.EY (V/m) @ t=0.14
-0.8356305338594749
% es.EZ (V/m) @ t=0.14
4.356718511207724
% es.tEX (V/m) @ t=0.14
5.453451235345758
% es.tEY (V/m) @ t=0.14
0
% es.tEZ (V/m) @ t=0.14
4.356718511207724
% es.Ex (V/m) @ t=0.14
5.453451235345726
% es.Ey (V/m) @ t=0.14
-0.8356305338594749
% es.Ez (V/m) @ t=0.14
4.356718511207724
% es.tEx (V/m) @ t=0.14
5.453451235345758
% es.tEy (V/m) @ t=0.14
0
% es.tEz (V/m) @ t=0.14
4.356718511207724
% V (V) @ t=0.14
0.005812017583524016
% es.normE (V/m) @ t=0.16
7.104616025459707
% es.EX (V/m) @ t=0.16
5.5052529597025375
% es.EY (V/m) @ t=0.16
-0.8435681463838582
% es.EZ (V/m) @ t=0.16
4.398102426282245
% es.tEX (V/m) @ t=0.16
5.505252959702544
% es.tEY (V/m) @ t=0.16
0
% es.tEZ (V/m) @ t=0.16
4.398102426282246
% es.Ex (V/m) @ t=0.16
5.5052529597025375
% es.Ey (V/m) @ t=0.16
-0.8435681463838582
% es.Ez (V/m) @ t=0.16
4.398102426282245
% es.tEx (V/m) @ t=0.16
5.505252959702544
% es.tEy (V/m) @ t=0.16
0
% es.tEz (V/m) @ t=0.16
4.398102426282246
% V (V) @ t=0.16
0.005867225351386004
% es.normE (V/m) @ t=0.18
7.17146693796111
% es.EX (V/m) @ t=0.18
5.557054684059285
% es.EY (V/m) @ t=0.18
-0.8515057589082424
% es.EZ (V/m) @ t=0.18
4.439486341356757
% es.tEX (V/m) @ t=0.18
5.557054684059317
% es.tEY (V/m) @ t=0.18
0
% es.tEZ (V/m) @ t=0.18
4.439486341356758
% es.Ex (V/m) @ t=0.18
5.557054684059285
% es.Ey (V/m) @ t=0.18
-0.8515057589082424
% es.Ez (V/m) @ t=0.18
4.439486341356757
% es.tEx (V/m) @ t=0.18
5.557054684059317
% es.tEy (V/m) @ t=0.18
0
% es.tEz (V/m) @ t=0.18
4.439486341356758
% V (V) @ t=0.18
0.005922433119247995
% es.normE (V/m) @ t=0.2
7.238317850462572
% es.EX (V/m) @ t=0.2
5.6088564084160915
% es.EY (V/m) @ t=0.2
-0.859443371432608
% es.EZ (V/m) @ t=0.2
4.48087025643129
% es.tEX (V/m) @ t=0.2
5.608856408416103
% es.tEY (V/m) @ t=0.2
0
% es.tEZ (V/m) @ t=0.2
4.480870256431283
% es.Ex (V/m) @ t=0.2
5.6088564084160915
% es.Ey (V/m) @ t=0.2
-0.859443371432608
% es.Ez (V/m) @ t=0.2
4.48087025643129
% es.tEx (V/m) @ t=0.2
5.608856408416103
% es.tEy (V/m) @ t=0.2
0
% es.tEz (V/m) @ t=0.2
4.480870256431283
% V (V) @ t=0.2
0.005977640887109983
% es.normE (V/m) @ t=0.22
7.3051687629640245
% es.EX (V/m) @ t=0.22
5.660658132772898
% es.EY (V/m) @ t=0.22
-0.8673809839569806
% es.EZ (V/m) @ t=0.22
4.522254171505805
% es.tEX (V/m) @ t=0.22
5.660658132772918
% es.tEY (V/m) @ t=0.22
0
% es.tEZ (V/m) @ t=0.22
4.522254171505796
% es.Ex (V/m) @ t=0.22
5.660658132772898
% es.Ey (V/m) @ t=0.22
-0.8673809839569806
% es.Ez (V/m) @ t=0.22
4.522254171505805
% es.tEx (V/m) @ t=0.22
5.660658132772918
% es.tEy (V/m) @ t=0.22
0
% es.tEz (V/m) @ t=0.22
4.522254171505796
% V (V) @ t=0.22
0.006032848654971973
% es.normE (V/m) @ t=0.24
7.372019675465445
% es.EX (V/m) @ t=0.24
5.712459857129667
% es.EY (V/m) @ t=0.24
-0.8753185964813648
% es.EZ (V/m) @ t=0.24
4.563638086580317
% es.tEX (V/m) @ t=0.24
5.712459857129676
% es.tEY (V/m) @ t=0.24
0
% es.tEZ (V/m) @ t=0.24
4.563638086580321
% es.Ex (V/m) @ t=0.24
5.712459857129667
% es.Ey (V/m) @ t=0.24
-0.8753185964813648
% es.Ez (V/m) @ t=0.24
4.563638086580317
% es.tEx (V/m) @ t=0.24
5.712459857129676
% es.tEy (V/m) @ t=0.24
0
% es.tEz (V/m) @ t=0.24
4.563638086580321
% V (V) @ t=0.24
0.006088056422833963
% es.normE (V/m) @ t=0.26
7.438870587966903
% es.EX (V/m) @ t=0.26
5.764261581486467
% es.EY (V/m) @ t=0.26
-0.8832562090057534
% es.EZ (V/m) @ t=0.26
4.60502200165484
% es.tEX (V/m) @ t=0.26
5.76426158148649
% es.tEY (V/m) @ t=0.26
0
% es.tEZ (V/m) @ t=0.26
4.60502200165484
% es.Ex (V/m) @ t=0.26
5.764261581486467
% es.Ey (V/m) @ t=0.26
-0.8832562090057534
% es.Ez (V/m) @ t=0.26
4.60502200165484
% es.tEx (V/m) @ t=0.26
5.76426158148649
% es.tEy (V/m) @ t=0.26
0
% es.tEz (V/m) @ t=0.26
4.60502200165484
% V (V) @ t=0.26
0.00614326419069595
% es.normE (V/m) @ t=0.28
7.508173657777232
% es.EX (V/m) @ t=0.28
5.817963121760382
% es.EY (V/m) @ t=0.28
-0.8914842771222009
% es.EZ (V/m) @ t=0.28
4.647924526770753
% es.tEX (V/m) @ t=0.28
5.817963121760409
% es.tEY (V/m) @ t=0.28
0
% es.tEZ (V/m) @ t=0.28
4.647924526770748
% es.Ex (V/m) @ t=0.28
5.817963121760382
% es.Ey (V/m) @ t=0.28
-0.8914842771222009
% es.Ez (V/m) @ t=0.28
4.647924526770753
% es.tEx (V/m) @ t=0.28
5.817963121760409
% es.tEy (V/m) @ t=0.28
0
% es.tEz (V/m) @ t=0.28
4.647924526770748
% V (V) @ t=0.28
0.006200495905815846
% es.normE (V/m) @ t=0.3
7.582680687412937
% es.EX (V/m) @ t=0.3
5.8756964448525615
% es.EY (V/m) @ t=0.3
-0.9003287490991729
% es.EZ (V/m) @ t=0.3
4.6940498409039275
% es.tEX (V/m) @ t=0.3
5.875696444852581
% es.tEY (V/m) @ t=0.3
0
% es.tEZ (V/m) @ t=0.3
4.694049840903931
% es.Ex (V/m) @ t=0.3
5.8756964448525615
% es.Ey (V/m) @ t=0.3
-0.9003287490991729
% es.Ez (V/m) @ t=0.3
4.6940498409039275
% es.tEx (V/m) @ t=0.3
5.875696444852581
% es.tEy (V/m) @ t=0.3
0
% es.tEz (V/m) @ t=0.3
4.694049840903931
% V (V) @ t=0.3
0.006262022834859329
% es.normE (V/m) @ t=0.32
7.65718771705075
% es.EX (V/m) @ t=0.32
5.933429767944745
% es.EY (V/m) @ t=0.32
-0.9091732210761538
% es.EZ (V/m) @ t=0.32
4.740175155037101
% es.tEX (V/m) @ t=0.32
5.933429767944753
% es.tEY (V/m) @ t=0.32
0
% es.tEZ (V/m) @ t=0.32
4.740175155037093
% es.Ex (V/m) @ t=0.32
5.933429767944745
% es.Ey (V/m) @ t=0.32
-0.9091732210761538
% es.Ez (V/m) @ t=0.32
4.740175155037101
% es.tEx (V/m) @ t=0.32
5.933429767944753
% es.tEy (V/m) @ t=0.32
0
% es.tEz (V/m) @ t=0.32
4.740175155037093
% V (V) @ t=0.32
0.006323549763902813
% es.normE (V/m) @ t=0.34
7.731694746690637
% es.EX (V/m) @ t=0.34
5.99116309103697
% es.EY (V/m) @ t=0.34
-0.9180176930531392
% es.EZ (V/m) @ t=0.34
4.786300469170275
% es.tEX (V/m) @ t=0.34
5.991163091036983
% es.tEY (V/m) @ t=0.34
0
% es.tEZ (V/m) @ t=0.34
4.786300469170271
% es.Ex (V/m) @ t=0.34
5.99116309103697
% es.Ey (V/m) @ t=0.34
-0.9180176930531392
% es.Ez (V/m) @ t=0.34
4.786300469170275
% es.tEx (V/m) @ t=0.34
5.991163091036983
% es.tEy (V/m) @ t=0.34
0
% es.tEz (V/m) @ t=0.34
4.786300469170271
% V (V) @ t=0.34
0.006385076692946297
% es.normE (V/m) @ t=0.36
7.806201776332484
% es.EX (V/m) @ t=0.36
6.048896414129153
% es.EY (V/m) @ t=0.36
-0.9268621650301254
% es.EZ (V/m) @ t=0.36
4.83242578330346
% es.tEX (V/m) @ t=0.36
6.048896414129168
% es.tEY (V/m) @ t=0.36
0
% es.tEZ (V/m) @ t=0.36
4.8324257833034485
% es.Ex (V/m) @ t=0.36
6.048896414129153
% es.Ey (V/m) @ t=0.36
-0.9268621650301254
% es.Ez (V/m) @ t=0.36
4.83242578330346
% es.tEx (V/m) @ t=0.36
6.048896414129168
% es.tEy (V/m) @ t=0.36
0
% es.tEz (V/m) @ t=0.36
4.8324257833034485
% V (V) @ t=0.36
0.006446603621989779
% es.normE (V/m) @ t=0.38
7.880708805976237
% es.EX (V/m) @ t=0.38
6.1066297372213185
% es.EY (V/m) @ t=0.38
-0.935706637007133
% es.EZ (V/m) @ t=0.38
4.878551097436634
% es.tEX (V/m) @ t=0.38
6.106629737221356
% es.tEY (V/m) @ t=0.38
0
% es.tEZ (V/m) @ t=0.38
4.878551097436625
% es.Ex (V/m) @ t=0.38
6.1066297372213185
% es.Ey (V/m) @ t=0.38
-0.935706637007133
% es.Ez (V/m) @ t=0.38
4.878551097436634
% es.tEx (V/m) @ t=0.38
6.106629737221356
% es.tEy (V/m) @ t=0.38
0
% es.tEz (V/m) @ t=0.38
4.878551097436625
% V (V) @ t=0.38
0.006508130551033262
% es.normE (V/m) @ t=0.4
7.955215835621894
% es.EX (V/m) @ t=0.4
6.164363060313526
% es.EY (V/m) @ t=0.4
-0.9445511089841174
% es.EZ (V/m) @ t=0.4
4.924676411569804
% es.tEX (V/m) @ t=0.4
6.164363060313557
% es.tEY (V/m) @ t=0.4
0
% es.tEZ (V/m) @ t=0.4
4.924676411569802
% es.Ex (V/m) @ t=0.4
6.164363060313526
% es.Ey (V/m) @ t=0.4
-0.9445511089841174
% es.Ez (V/m) @ t=0.4
4.924676411569804
% es.tEx (V/m) @ t=0.4
6.164363060313557
% es.tEy (V/m) @ t=0.4
0
% es.tEz (V/m) @ t=0.4
4.924676411569802
% V (V) @ t=0.4
0.006569657480076747
% es.normE (V/m) @ t=0.42
8.029722865269331
% es.EX (V/m) @ t=0.42
6.222096383405667
% es.EY (V/m) @ t=0.42
-0.953395580961125
% es.EZ (V/m) @ t=0.42
4.970801725702993
% es.tEX (V/m) @ t=0.42
6.2220963834057
% es.tEY (V/m) @ t=0.42
0
% es.tEZ (V/m) @ t=0.42
4.9708017257029935
% es.Ex (V/m) @ t=0.42
6.222096383405667
% es.Ey (V/m) @ t=0.42
-0.953395580961125
% es.Ez (V/m) @ t=0.42
4.970801725702993
% es.tEx (V/m) @ t=0.42
6.2220963834057
% es.tEy (V/m) @ t=0.42
0
% es.tEz (V/m) @ t=0.42
4.9708017257029935
% V (V) @ t=0.42
0.006631184409120231
% es.normE (V/m) @ t=0.44
8.104229894918582
% es.EX (V/m) @ t=0.44
6.279829706497882
% es.EY (V/m) @ t=0.44
-0.9622400529381059
% es.EZ (V/m) @ t=0.44
5.016927039836164
% es.tEX (V/m) @ t=0.44
6.2798297064979005
% es.tEY (V/m) @ t=0.44
0
% es.tEZ (V/m) @ t=0.44
5.016927039836163
% es.Ex (V/m) @ t=0.44
6.279829706497882
% es.Ey (V/m) @ t=0.44
-0.9622400529381059
% es.Ez (V/m) @ t=0.44
5.016927039836164
% es.tEx (V/m) @ t=0.44
6.2798297064979005
% es.tEy (V/m) @ t=0.44
0
% es.tEz (V/m) @ t=0.44
5.016927039836163
% V (V) @ t=0.44
0.0066927113381637145
% es.normE (V/m) @ t=0.46
8.178736924569524
% es.EX (V/m) @ t=0.46
6.337563029590051
% es.EY (V/m) @ t=0.46
-0.9710845249150948
% es.EZ (V/m) @ t=0.46
5.063052353969334
% es.tEX (V/m) @ t=0.46
6.337563029590087
% es.tEY (V/m) @ t=0.46
0
% es.tEZ (V/m) @ t=0.46
5.06305235396934
% es.Ex (V/m) @ t=0.46
6.337563029590051
% es.Ey (V/m) @ t=0.46
-0.9710845249150948
% es.Ez (V/m) @ t=0.46
5.063052353969334
% es.tEx (V/m) @ t=0.46
6.337563029590087
% es.tEy (V/m) @ t=0.46
0
% es.tEz (V/m) @ t=0.46
5.06305235396934
% V (V) @ t=0.46
0.0067542382672071966
% es.normE (V/m) @ t=0.48
8.253243954222164
% es.EX (V/m) @ t=0.48
6.395296352682241
% es.EY (V/m) @ t=0.48
-0.9799289968920926
% es.EZ (V/m) @ t=0.48
5.1091776681025145
% es.tEX (V/m) @ t=0.48
6.3952963526822595
% es.tEY (V/m) @ t=0.48
0
% es.tEZ (V/m) @ t=0.48
5.109177668102517
% es.Ex (V/m) @ t=0.48
6.395296352682241
% es.Ey (V/m) @ t=0.48
-0.9799289968920926
% es.Ez (V/m) @ t=0.48
5.1091776681025145
% es.tEx (V/m) @ t=0.48
6.3952963526822595
% es.tEy (V/m) @ t=0.48
0
% es.tEz (V/m) @ t=0.48
5.109177668102517
% V (V) @ t=0.48
0.00681576519625068
% es.normE (V/m) @ t=0.5
8.327750983876442
% es.EX (V/m) @ t=0.5
6.453029675774445
% es.EY (V/m) @ t=0.5
-0.988773468869077
% es.EZ (V/m) @ t=0.5
5.155302982235689
% es.tEX (V/m) @ t=0.5
6.453029675774446
% es.tEY (V/m) @ t=0.5
0
% es.tEZ (V/m) @ t=0.5
5.1553029822356935
% es.Ex (V/m) @ t=0.5
6.453029675774445
% es.Ey (V/m) @ t=0.5
-0.988773468869077
% es.Ez (V/m) @ t=0.5
5.155302982235689
% es.tEx (V/m) @ t=0.5
6.453029675774446
% es.tEy (V/m) @ t=0.5
0
% es.tEz (V/m) @ t=0.5
5.1553029822356935
% V (V) @ t=0.5
0.006877292125294165
% es.normE (V/m) @ t=0.52
8.402258013532265
% es.EX (V/m) @ t=0.52
6.510762998866603
% es.EY (V/m) @ t=0.52
-0.9976179408460615
% es.EZ (V/m) @ t=0.52
5.201428296368859
% es.tEX (V/m) @ t=0.52
6.510762998866632
% es.tEY (V/m) @ t=0.52
0
% es.tEZ (V/m) @ t=0.52
5.201428296368857
% es.Ex (V/m) @ t=0.52
6.510762998866603
% es.Ey (V/m) @ t=0.52
-0.9976179408460615
% es.Ez (V/m) @ t=0.52
5.201428296368859
% es.tEx (V/m) @ t=0.52
6.510762998866632
% es.tEy (V/m) @ t=0.52
0
% es.tEz (V/m) @ t=0.52
5.201428296368857
% V (V) @ t=0.52
0.006938819054337648
% es.normE (V/m) @ t=0.54
8.476765043189687
% es.EX (V/m) @ t=0.54
6.568496321958822
% es.EY (V/m) @ t=0.54
-1.006462412823046
% es.EZ (V/m) @ t=0.54
5.247553610502036
% es.tEX (V/m) @ t=0.54
6.568496321958819
% es.tEY (V/m) @ t=0.54
0
% es.tEZ (V/m) @ t=0.54
5.247553610502034
% es.Ex (V/m) @ t=0.54
6.568496321958822
% es.Ey (V/m) @ t=0.54
-1.006462412823046
% es.Ez (V/m) @ t=0.54
5.247553610502036
% es.tEx (V/m) @ t=0.54
6.568496321958819
% es.tEy (V/m) @ t=0.54
0
% es.tEz (V/m) @ t=0.54
5.247553610502034
% V (V) @ t=0.54
0.007000345983381131
% es.normE (V/m) @ t=0.56
8.55693791681843
% es.EX (V/m) @ t=0.56
6.630621870269933
% es.EY (V/m) @ t=0.56
-1.0159836275084118
% es.EZ (V/m) @ t=0.56
5.2971828772361755
% es.tEX (V/m) @ t=0.56
6.630621870269961
% es.tEY (V/m) @ t=0.56
0
% es.tEZ (V/m) @ t=0.56
5.2971828772361755
% es.Ex (V/m) @ t=0.56
6.630621870269933
% es.Ey (V/m) @ t=0.56
-1.0159836275084118
% es.Ez (V/m) @ t=0.56
5.2971828772361755
% es.tEx (V/m) @ t=0.56
6.630621870269961
% es.tEy (V/m) @ t=0.56
0
% es.tEz (V/m) @ t=0.56
5.2971828772361755
% V (V) @ t=0.56
0.007066558245003978
% es.normE (V/m) @ t=0.58
8.640153769516331
% es.EX (V/m) @ t=0.58
6.695106369771848
% es.EY (V/m) @ t=0.58
-1.0258683032956082
% es.EZ (V/m) @ t=0.58
5.348694026785565
% es.tEX (V/m) @ t=0.58
6.695106369771846
% es.tEY (V/m) @ t=0.58
0
% es.tEZ (V/m) @ t=0.58
5.348694026785569
% es.Ex (V/m) @ t=0.58
6.695106369771848
% es.Ey (V/m) @ t=0.58
-1.0258683032956082
% es.Ez (V/m) @ t=0.58
5.348694026785565
% es.tEx (V/m) @ t=0.58
6.695106369771846
% es.tEy (V/m) @ t=0.58
0
% es.tEz (V/m) @ t=0.58
5.348694026785569
% V (V) @ t=0.58
0.00713528687824168
% es.normE (V/m) @ t=0.6
8.723369622221725
% es.EX (V/m) @ t=0.6
6.759590869273797
% es.EY (V/m) @ t=0.6
-1.0357529790827904
% es.EZ (V/m) @ t=0.6
5.400205176334964
% es.tEX (V/m) @ t=0.6
6.7595908692738025
% es.tEY (V/m) @ t=0.6
0
% es.tEZ (V/m) @ t=0.6
5.400205176334962
% es.Ex (V/m) @ t=0.6
6.759590869273797
% es.Ey (V/m) @ t=0.6
-1.0357529790827904
% es.Ez (V/m) @ t=0.6
5.400205176334964
% es.tEx (V/m) @ t=0.6
6.7595908692738025
% es.tEy (V/m) @ t=0.6
0
% es.tEz (V/m) @ t=0.6
5.400205176334962
% V (V) @ t=0.6
0.007204015511479384
% es.normE (V/m) @ t=0.62
8.806585474934305
% es.EX (V/m) @ t=0.62
6.824075368775677
% es.EY (V/m) @ t=0.62
-1.0456376548700117
% es.EZ (V/m) @ t=0.62
5.451716325884346
% es.tEX (V/m) @ t=0.62
6.824075368775702
% es.tEY (V/m) @ t=0.62
0
% es.tEZ (V/m) @ t=0.62
5.451716325884349
% es.Ex (V/m) @ t=0.62
6.824075368775677
% es.Ey (V/m) @ t=0.62
-1.0456376548700117
% es.Ez (V/m) @ t=0.62
5.451716325884346
% es.tEx (V/m) @ t=0.62
6.824075368775702
% es.tEy (V/m) @ t=0.62
0
% es.tEz (V/m) @ t=0.62
5.451716325884349
% V (V) @ t=0.62
0.007272744144717089
% es.normE (V/m) @ t=0.64
8.889801327653974
% es.EX (V/m) @ t=0.64
6.888559868277599
% es.EY (V/m) @ t=0.64
-1.0555223306572223
% es.EZ (V/m) @ t=0.64
5.503227475433745
% es.tEX (V/m) @ t=0.64
6.888559868277616
% es.tEY (V/m) @ t=0.64
0
% es.tEZ (V/m) @ t=0.64
5.503227475433742
% es.Ex (V/m) @ t=0.64
6.888559868277599
% es.Ey (V/m) @ t=0.64
-1.0555223306572223
% es.Ez (V/m) @ t=0.64
5.503227475433745
% es.tEx (V/m) @ t=0.64
6.888559868277616
% es.tEy (V/m) @ t=0.64
0
% es.tEz (V/m) @ t=0.64
5.503227475433742
% V (V) @ t=0.64
0.007341472777954792
% es.normE (V/m) @ t=0.66
8.973017180380449
% es.EX (V/m) @ t=0.66
6.953044367779485
% es.EY (V/m) @ t=0.66
-1.0654070064444525
% es.EZ (V/m) @ t=0.66
5.554738624983127
% es.tEX (V/m) @ t=0.66
6.953044367779515
% es.tEY (V/m) @ t=0.66
0
% es.tEZ (V/m) @ t=0.66
5.55473862498313
% es.Ex (V/m) @ t=0.66
6.953044367779485
% es.Ey (V/m) @ t=0.66
-1.0654070064444525
% es.Ez (V/m) @ t=0.66
5.554738624983127
% es.tEx (V/m) @ t=0.66
6.953044367779515
% es.tEy (V/m) @ t=0.66
0
% es.tEz (V/m) @ t=0.66
5.55473862498313
% V (V) @ t=0.66
0.007410201411192497
% es.normE (V/m) @ t=0.68
9.056233033113589
% es.EX (V/m) @ t=0.68
7.017528867281371
% es.EY (V/m) @ t=0.68
-1.0752916822316383
% es.EZ (V/m) @ t=0.68
5.606249774532513
% es.tEX (V/m) @ t=0.68
7.0175288672814
% es.tEY (V/m) @ t=0.68
0
% es.tEZ (V/m) @ t=0.68
5.6062497745325155
% es.Ex (V/m) @ t=0.68
7.017528867281371
% es.Ey (V/m) @ t=0.68
-1.0752916822316383
% es.Ez (V/m) @ t=0.68
5.606249774532513
% es.tEx (V/m) @ t=0.68
7.0175288672814
% es.tEy (V/m) @ t=0.68
0
% es.tEz (V/m) @ t=0.68
5.6062497745325155
% V (V) @ t=0.68
0.007478930044430199
% es.normE (V/m) @ t=0.7
9.139448885853245
% es.EX (V/m) @ t=0.7
7.0820133667833
% es.EY (V/m) @ t=0.7
-1.0851763580188738
% es.EZ (V/m) @ t=0.7
5.657760924081905
% es.tEX (V/m) @ t=0.7
7.082013366783328
% es.tEY (V/m) @ t=0.7
0
% es.tEZ (V/m) @ t=0.7
5.657760924081909
% es.Ex (V/m) @ t=0.7
7.0820133667833
% es.Ey (V/m) @ t=0.7
-1.0851763580188738
% es.Ez (V/m) @ t=0.7
5.657760924081905
% es.tEx (V/m) @ t=0.7
7.082013366783328
% es.tEy (V/m) @ t=0.7
0
% es.tEz (V/m) @ t=0.7
5.657760924081909
% V (V) @ t=0.7
0.007547658677667905
% es.normE (V/m) @ t=0.72
9.22266473859918
% es.EX (V/m) @ t=0.72
7.1464978662852
% es.EY (V/m) @ t=0.72
-1.0950610338060454
% es.EZ (V/m) @ t=0.72
5.709272073631301
% es.tEX (V/m) @ t=0.72
7.146497866285227
% es.tEY (V/m) @ t=0.72
0
% es.tEZ (V/m) @ t=0.72
5.70927207363129
% es.Ex (V/m) @ t=0.72
7.1464978662852
% es.Ey (V/m) @ t=0.72
-1.0950610338060454
% es.Ez (V/m) @ t=0.72
5.709272073631301
% es.tEx (V/m) @ t=0.72
7.146497866285227
% es.tEy (V/m) @ t=0.72
0
% es.tEz (V/m) @ t=0.72
5.70927207363129
% V (V) @ t=0.72
0.0076163873109056065
% es.normE (V/m) @ t=0.74
9.305880591351265
% es.EX (V/m) @ t=0.74
7.210982365787143
% es.EY (V/m) @ t=0.74
-1.1049457095932436
% es.EZ (V/m) @ t=0.74
5.760783223180669
% es.tEX (V/m) @ t=0.74
7.210982365787141
% es.tEY (V/m) @ t=0.74
0
% es.tEZ (V/m) @ t=0.74
5.760783223180669
% es.Ex (V/m) @ t=0.74
7.210982365787143
% es.Ey (V/m) @ t=0.74
-1.1049457095932436
% es.Ez (V/m) @ t=0.74
5.760783223180669
% es.tEx (V/m) @ t=0.74
7.210982365787141
% es.tEy (V/m) @ t=0.74
0
% es.tEz (V/m) @ t=0.74
5.760783223180669
% V (V) @ t=0.74
0.007685115944143311
% es.normE (V/m) @ t=0.76
9.389096444109281
% es.EX (V/m) @ t=0.76
7.275466865289001
% es.EY (V/m) @ t=0.76
-1.1148303853804755
% es.EZ (V/m) @ t=0.76
5.812294372730072
% es.tEX (V/m) @ t=0.76
7.275466865289012
% es.tEY (V/m) @ t=0.76
0
% es.tEZ (V/m) @ t=0.76
5.8122943727300695
% es.Ex (V/m) @ t=0.76
7.275466865289001
% es.Ey (V/m) @ t=0.76
-1.1148303853804755
% es.Ez (V/m) @ t=0.76
5.812294372730072
% es.tEx (V/m) @ t=0.76
7.275466865289012
% es.tEy (V/m) @ t=0.76
0
% es.tEz (V/m) @ t=0.76
5.8122943727300695
% V (V) @ t=0.76
0.007753844577381015
% es.normE (V/m) @ t=0.78
9.47231229687315
% es.EX (V/m) @ t=0.78
7.339951364790923
% es.EY (V/m) @ t=0.78
-1.1247150611676826
% es.EZ (V/m) @ t=0.78
5.863805522279464
% es.tEX (V/m) @ t=0.78
7.339951364790954
% es.tEY (V/m) @ t=0.78
0
% es.tEZ (V/m) @ t=0.78
5.863805522279456
% es.Ex (V/m) @ t=0.78
7.339951364790923
% es.Ey (V/m) @ t=0.78
-1.1247150611676826
% es.Ez (V/m) @ t=0.78
5.863805522279464
% es.tEx (V/m) @ t=0.78
7.339951364790954
% es.tEy (V/m) @ t=0.78
0
% es.tEz (V/m) @ t=0.78
5.863805522279456
% V (V) @ t=0.78
0.007822573210618716
% es.normE (V/m) @ t=0.8
9.555528149642655
% es.EX (V/m) @ t=0.8
7.404435864292816
% es.EY (V/m) @ t=0.8
-1.1345997369548737
% es.EZ (V/m) @ t=0.8
5.915316671828849
% es.tEX (V/m) @ t=0.8
7.404435864292825
% es.tEY (V/m) @ t=0.8
0
% es.tEZ (V/m) @ t=0.8
5.915316671828836
% es.Ex (V/m) @ t=0.8
7.404435864292816
% es.Ey (V/m) @ t=0.8
-1.1345997369548737
% es.Ez (V/m) @ t=0.8
5.915316671828849
% es.tEx (V/m) @ t=0.8
7.404435864292825
% es.tEy (V/m) @ t=0.8
0
% es.tEz (V/m) @ t=0.8
5.915316671828836
% V (V) @ t=0.8
0.00789130184385642
% es.normE (V/m) @ t=0.82
9.63874400241768
% es.EX (V/m) @ t=0.82
7.468920363794716
% es.EY (V/m) @ t=0.82
-1.144484412742102
% es.EZ (V/m) @ t=0.82
5.9668278213782315
% es.tEX (V/m) @ t=0.82
7.468920363794711
% es.tEY (V/m) @ t=0.82
0
% es.tEZ (V/m) @ t=0.82
5.966827821378223
% es.Ex (V/m) @ t=0.82
7.468920363794716
% es.Ey (V/m) @ t=0.82
-1.144484412742102
% es.Ez (V/m) @ t=0.82
5.9668278213782315
% es.tEx (V/m) @ t=0.82
7.468920363794711
% es.tEy (V/m) @ t=0.82
0
% es.tEz (V/m) @ t=0.82
5.966827821378223
% V (V) @ t=0.82
0.007960030477094126
% es.normE (V/m) @ t=0.84
9.731604458269178
% es.EX (V/m) @ t=0.84
7.540871368797423
% es.EY (V/m) @ t=0.84
-1.1554992694595754
% es.EZ (V/m) @ t=0.84
6.024322472432615
% es.tEX (V/m) @ t=0.84
7.540871368797449
% es.tEY (V/m) @ t=0.84
0
% es.tEZ (V/m) @ t=0.84
6.024322472432613
% es.Ex (V/m) @ t=0.84
7.540871368797423
% es.Ey (V/m) @ t=0.84
-1.1554992694595754
% es.Ez (V/m) @ t=0.84
6.024322472432615
% es.tEx (V/m) @ t=0.84
7.540871368797449
% es.tEy (V/m) @ t=0.84
0
% es.tEz (V/m) @ t=0.84
6.024322472432613
% V (V) @ t=0.84
0.008036700552374335
% es.normE (V/m) @ t=0.86
9.824652853748649
% es.EX (V/m) @ t=0.86
7.612967869877255
% es.EY (V/m) @ t=0.86
-1.1665361494504225
% es.EZ (V/m) @ t=0.86
6.081933721003272
% es.tEX (V/m) @ t=0.86
7.612967869877286
% es.tEY (V/m) @ t=0.86
0
% es.tEZ (V/m) @ t=0.86
6.081933721003288
% es.Ex (V/m) @ t=0.86
7.612967869877255
% es.Ey (V/m) @ t=0.86
-1.1665361494504225
% es.Ez (V/m) @ t=0.86
6.081933721003272
% es.tEx (V/m) @ t=0.86
7.612967869877286
% es.tEy (V/m) @ t=0.86
0
% es.tEz (V/m) @ t=0.86
6.081933721003288
% V (V) @ t=0.86
0.008113525378583708
% es.normE (V/m) @ t=0.88
9.917701249274542
% es.EX (V/m) @ t=0.88
7.685064370957081
% es.EY (V/m) @ t=0.88
-1.1775730294412856
% es.EZ (V/m) @ t=0.88
6.139544969573906
% es.tEX (V/m) @ t=0.88
7.685064370957111
% es.tEY (V/m) @ t=0.88
0
% es.tEZ (V/m) @ t=0.88
6.1395449695739055
% es.Ex (V/m) @ t=0.88
7.685064370957081
% es.Ey (V/m) @ t=0.88
-1.1775730294412856
% es.Ez (V/m) @ t=0.88
6.139544969573906
% es.tEx (V/m) @ t=0.88
7.685064370957111
% es.tEy (V/m) @ t=0.88
0
% es.tEz (V/m) @ t=0.88
6.1395449695739055
% V (V) @ t=0.88
0.008190350204793083
% es.normE (V/m) @ t=0.9
10.010749644845577
% es.EX (V/m) @ t=0.9
7.757160872036891
% es.EY (V/m) @ t=0.9
-1.1886099094321292
% es.EZ (V/m) @ t=0.9
6.1971562181445545
% es.tEX (V/m) @ t=0.9
7.75716087203692
% es.tEY (V/m) @ t=0.9
0
% es.tEZ (V/m) @ t=0.9
6.197156218144552
% es.Ex (V/m) @ t=0.9
7.757160872036891
% es.Ey (V/m) @ t=0.9
-1.1886099094321292
% es.Ez (V/m) @ t=0.9
6.1971562181445545
% es.tEx (V/m) @ t=0.9
7.75716087203692
% es.tEy (V/m) @ t=0.9
0
% es.tEz (V/m) @ t=0.9
6.197156218144552
% V (V) @ t=0.9
0.008267175031002457
% es.normE (V/m) @ t=0.92
10.103798040460543
% es.EX (V/m) @ t=0.92
7.829257373116731
% es.EY (V/m) @ t=0.92
-1.199646789422978
% es.EZ (V/m) @ t=0.92
6.254767466715222
% es.tEX (V/m) @ t=0.92
7.829257373116759
% es.tEY (V/m) @ t=0.92
0
% es.tEZ (V/m) @ t=0.92
6.254767466715212
% es.Ex (V/m) @ t=0.92
7.829257373116731
% es.Ey (V/m) @ t=0.92
-1.199646789422978
% es.Ez (V/m) @ t=0.92
6.254767466715222
% es.tEx (V/m) @ t=0.92
7.829257373116759
% es.tEy (V/m) @ t=0.92
0
% es.tEz (V/m) @ t=0.92
6.254767466715212
% V (V) @ t=0.92
0.00834399985721183
% es.normE (V/m) @ t=0.94
10.196846436118165
% es.EX (V/m) @ t=0.94
7.901353874196542
% es.EY (V/m) @ t=0.94
-1.2106836694138448
% es.EZ (V/m) @ t=0.94
6.312378715285856
% es.tEX (V/m) @ t=0.94
7.901353874196582
% es.tEY (V/m) @ t=0.94
0
% es.tEZ (V/m) @ t=0.94
6.312378715285852
% es.Ex (V/m) @ t=0.94
7.901353874196542
% es.Ey (V/m) @ t=0.94
-1.2106836694138448
% es.Ez (V/m) @ t=0.94
6.312378715285856
% es.tEx (V/m) @ t=0.94
7.901353874196582
% es.tEy (V/m) @ t=0.94
0
% es.tEz (V/m) @ t=0.94
6.312378715285852
% V (V) @ t=0.94
0.008420824683421207
% es.normE (V/m) @ t=0.96
10.28989483181735
% es.EX (V/m) @ t=0.96
7.973450375276382
% es.EY (V/m) @ t=0.96
-1.2217205494046954
% es.EZ (V/m) @ t=0.96
6.369989963856499
% es.tEX (V/m) @ t=0.96
7.973450375276421
% es.tEY (V/m) @ t=0.96
0
% es.tEZ (V/m) @ t=0.96
6.369989963856505
% es.Ex (V/m) @ t=0.96
7.973450375276382
% es.Ey (V/m) @ t=0.96
-1.2217205494046954
% es.Ez (V/m) @ t=0.96
6.369989963856499
% es.tEx (V/m) @ t=0.96
7.973450375276421
% es.tEy (V/m) @ t=0.96
0
% es.tEz (V/m) @ t=0.96
6.369989963856505
% V (V) @ t=0.96
0.008497649509630579
% es.normE (V/m) @ t=0.98
10.382943227556936
% es.EX (V/m) @ t=0.98
8.0455468763562
% es.EY (V/m) @ t=0.98
-1.232757429395532
% es.EZ (V/m) @ t=0.98
6.427601212427144
% es.tEX (V/m) @ t=0.98
8.04554687635623
% es.tEY (V/m) @ t=0.98
0
% es.tEZ (V/m) @ t=0.98
6.427601212427152
% es.Ex (V/m) @ t=0.98
8.0455468763562
% es.Ey (V/m) @ t=0.98
-1.232757429395532
% es.Ez (V/m) @ t=0.98
6.427601212427144
% es.tEx (V/m) @ t=0.98
8.04554687635623
% es.tEy (V/m) @ t=0.98
0
% es.tEz (V/m) @ t=0.98
6.427601212427152
% V (V) @ t=0.98
0.008574474335839955
% es.normE (V/m) @ t=1
10.475991623335888
% es.EX (V/m) @ t=1
8.117643377436039
% es.EY (V/m) @ t=1
-1.2437943093863808
% es.EZ (V/m) @ t=1
6.48521246099779
% es.tEX (V/m) @ t=1
8.11764337743607
% es.tEY (V/m) @ t=1
0
% es.tEZ (V/m) @ t=1
6.48521246099779
% es.Ex (V/m) @ t=1
8.117643377436039
% es.Ey (V/m) @ t=1
-1.2437943093863808
% es.Ez (V/m) @ t=1
6.48521246099779
% es.tEx (V/m) @ t=1
8.11764337743607
% es.tEy (V/m) @ t=1
0
% es.tEz (V/m) @ t=1
6.48521246099779
% V (V) @ t=1
0.008651299162049327
% es.normE (V/m) @ t=1.02
10.569040019153125
% es.EX (V/m) @ t=1.02
8.189739878515852
% es.EY (V/m) @ t=1.02
-1.2548311893772492
% es.EZ (V/m) @ t=1.02
6.5428237095684345
% es.tEX (V/m) @ t=1.02
8.189739878515864
% es.tEY (V/m) @ t=1.02
0
% es.tEZ (V/m) @ t=1.02
6.54282370956843
% es.Ex (V/m) @ t=1.02
8.189739878515852
% es.Ey (V/m) @ t=1.02
-1.2548311893772492
% es.Ez (V/m) @ t=1.02
6.5428237095684345
% es.tEx (V/m) @ t=1.02
8.189739878515864
% es.tEy (V/m) @ t=1.02
0
% es.tEz (V/m) @ t=1.02
6.54282370956843
% V (V) @ t=1.02
0.008728123988258701
% es.normE (V/m) @ t=1.04
10.662088415007656
% es.EX (V/m) @ t=1.04
8.261836379595655
% es.EY (V/m) @ t=1.04
-1.2658680693681212
% es.EZ (V/m) @ t=1.04
6.600434958139081
% es.tEX (V/m) @ t=1.04
8.261836379595717
% es.tEY (V/m) @ t=1.04
0
% es.tEZ (V/m) @ t=1.04
6.600434958139069
% es.Ex (V/m) @ t=1.04
8.261836379595655
% es.Ey (V/m) @ t=1.04
-1.2658680693681212
% es.Ez (V/m) @ t=1.04
6.600434958139081
% es.tEx (V/m) @ t=1.04
8.261836379595717
% es.tEy (V/m) @ t=1.04
0
% es.tEz (V/m) @ t=1.04
6.600434958139069
% V (V) @ t=1.04
0.008804948814468078
% es.normE (V/m) @ t=1.06
10.755136810898591
% es.EX (V/m) @ t=1.06
8.333932880675551
% es.EY (V/m) @ t=1.06
-1.2769049493589613
% es.EZ (V/m) @ t=1.06
6.6580462067097255
% es.tEX (V/m) @ t=1.06
8.333932880675569
% es.tEY (V/m) @ t=1.06
0