% Model:              1 neuron.mph
% Version:            COMSOL 6.1.0.252
% Date:               Mar 18 2023, 12:19
% Dimension:          0
% Nodes:              14017
% Expressions:        14017
% Description:        Electric field norm, Electric field, X component, Electric field, Y component, Electric field, Z component, Tangential electric field, X component, Tangential electric field, Y component, Tangential electric field, Z component, Electric field, x component, Electric field, y component, Electric field, z component, Tangential electric field, x component, Tangential electric field, y component, Tangential electric field, z component, Electric potential
% Length unit:        mm
% x
2
% y
12.199999999999998
% z
2
% es.normE (V/m) @ t=0
0.7181989521786671
% es.EX (V/m) @ t=0
-0.5141661258097819
% es.EY (V/m) @ t=0
0.19581167804439326
% es.EZ (V/m) @ t=0
-0.45881087793146413
% es.tEX (V/m) @ t=0
-0.5141661258097836
% es.tEY (V/m) @ t=0
0
% es.tEZ (V/m) @ t=0
-0.45881087793146147
% es.Ex (V/m) @ t=0
-0.5141661258097819
% es.Ey (V/m) @ t=0
0.19581167804439326
% es.Ez (V/m) @ t=0
-0.45881087793146413
% es.tEx (V/m) @ t=0
-0.5141661258097836
% es.tEy (V/m) @ t=0
0
% es.tEz (V/m) @ t=0
-0.45881087793146147
% V (V) @ t=0
0.007308961990616772
% es.normE (V/m) @ t=0.02
0.6203193238471292
% es.EX (V/m) @ t=0.02
-0.4440930783346263
% es.EY (V/m) @ t=0.02
0.1691255153798581
% es.EZ (V/m) @ t=0.02
-0.39628191128412116
% es.tEX (V/m) @ t=0.02
-0.4440930783346282
% es.tEY (V/m) @ t=0.02
0
% es.tEZ (V/m) @ t=0.02
-0.3962819112841176
% es.Ex (V/m) @ t=0.02
-0.4440930783346263
% es.Ey (V/m) @ t=0.02
0.1691255153798581
% es.Ez (V/m) @ t=0.02
-0.39628191128412116
% es.tEx (V/m) @ t=0.02
-0.4440930783346282
% es.tEy (V/m) @ t=0.02
0
% es.tEz (V/m) @ t=0.02
-0.3962819112841176
% V (V) @ t=0.02
0.006312861241835264
% es.normE (V/m) @ t=0.04
0.626027965899262
% es.EX (V/m) @ t=0.04
-0.44817995480812556
% es.EY (V/m) @ t=0.04
0.17068193525024733
% es.EZ (V/m) @ t=0.04
-0.3999287933477196
% es.tEX (V/m) @ t=0.04
-0.44817995480812467
% es.tEY (V/m) @ t=0.04
0
% es.tEZ (V/m) @ t=0.04
-0.3999287933477218
% es.Ex (V/m) @ t=0.04
-0.44817995480812556
% es.Ey (V/m) @ t=0.04
0.17068193525024733
% es.Ez (V/m) @ t=0.04
-0.3999287933477196
% es.tEx (V/m) @ t=0.04
-0.44817995480812467
% es.tEy (V/m) @ t=0.04
0
% es.tEz (V/m) @ t=0.04
-0.3999287933477218
% V (V) @ t=0.04
0.006370956839344841
% es.normE (V/m) @ t=0.06
0.6317906826124293
% es.EX (V/m) @ t=0.06
-0.4523055438087872
% es.EY (V/m) @ t=0.06
0.1722530974395784
% es.EZ (V/m) @ t=0.06
-0.4036102206562595
% es.tEX (V/m) @ t=0.06
-0.4523055438087913
% es.tEY (V/m) @ t=0.06
0
% es.tEZ (V/m) @ t=0.06
-0.40361022065626084
% es.Ex (V/m) @ t=0.06
-0.4523055438087872
% es.Ey (V/m) @ t=0.06
0.1722530974395784
% es.Ez (V/m) @ t=0.06
-0.4036102206562595
% es.tEx (V/m) @ t=0.06
-0.4523055438087913
% es.tEy (V/m) @ t=0.06
0
% es.tEz (V/m) @ t=0.06
-0.40361022065626084
% V (V) @ t=0.06
0.006429602855000066
% es.normE (V/m) @ t=0.08
0.6376352137134821
% es.EX (V/m) @ t=0.08
-0.4564897046930677
% es.EY (V/m) @ t=0.08
0.1738465661211157
% es.EZ (V/m) @ t=0.08
-0.4073439135836341
% es.tEX (V/m) @ t=0.08
-0.45648970469306915
% es.tEY (V/m) @ t=0.08
0
% es.tEZ (V/m) @ t=0.08
-0.40734391358363187
% es.Ex (V/m) @ t=0.08
-0.4564897046930677
% es.Ey (V/m) @ t=0.08
0.1738465661211157
% es.Ez (V/m) @ t=0.08
-0.4073439135836341
% es.tEx (V/m) @ t=0.08
-0.45648970469306915
% es.tEy (V/m) @ t=0.08
0
% es.tEz (V/m) @ t=0.08
-0.40734391358363187
% V (V) @ t=0.08
0.006489081408397613
% es.normE (V/m) @ t=0.1
0.6435493264505056
% es.EX (V/m) @ t=0.1
-0.46072367988982965
% es.EY (V/m) @ t=0.1
0.1754590060650465
% es.EZ (V/m) @ t=0.1
-0.4111220574609953
% es.tEX (V/m) @ t=0.1
-0.46072367988982843
% es.tEY (V/m) @ t=0.1
0
% es.tEZ (V/m) @ t=0.1
-0.4111220574609957
% es.Ex (V/m) @ t=0.1
-0.46072367988982965
% es.Ey (V/m) @ t=0.1
0.1754590060650465
% es.Ez (V/m) @ t=0.1
-0.4111220574609953
% es.tEx (V/m) @ t=0.1
-0.46072367988982843
% es.tEy (V/m) @ t=0.1
0
% es.tEz (V/m) @ t=0.1
-0.4111220574609957
% V (V) @ t=0.1
0.006549268019871708
% es.normE (V/m) @ t=0.12
0.6494634391875274
% es.EX (V/m) @ t=0.12
-0.46495765508658893
% es.EY (V/m) @ t=0.12
0.17707144600897795
% es.EZ (V/m) @ t=0.12
-0.41490020133835737
% es.tEX (V/m) @ t=0.12
-0.46495765508658815
% es.tEY (V/m) @ t=0.12
0
% es.tEZ (V/m) @ t=0.12
-0.4149002013383596
% es.Ex (V/m) @ t=0.12
-0.46495765508658893
% es.Ey (V/m) @ t=0.12
0.17707144600897795
% es.Ez (V/m) @ t=0.12
-0.41490020133835737
% es.tEx (V/m) @ t=0.12
-0.46495765508658815
% es.tEy (V/m) @ t=0.12
0
% es.tEz (V/m) @ t=0.12
-0.4149002013383596
% V (V) @ t=0.12
0.006609454631345803
% es.normE (V/m) @ t=0.14
0.6554066866086008
% es.EX (V/m) @ t=0.14
-0.46921248812959504
% es.EY (V/m) @ t=0.14
0.17869182956473106
% es.EZ (V/m) @ t=0.14
-0.41869695733938617
% es.tEX (V/m) @ t=0.14
-0.46921248812959715
% es.tEY (V/m) @ t=0.14
0
% es.tEZ (V/m) @ t=0.14
-0.41869695733938617
% es.Ex (V/m) @ t=0.14
-0.46921248812959504
% es.Ey (V/m) @ t=0.14
0.17869182956473106
% es.Ez (V/m) @ t=0.14
-0.41869695733938617
% es.tEx (V/m) @ t=0.14
-0.46921248812959715
% es.tEy (V/m) @ t=0.14
0
% es.tEz (V/m) @ t=0.14
-0.41869695733938617
% V (V) @ t=0.14
0.006669937704143669
% es.normE (V/m) @ t=0.16
0.6616412930684188
% es.EX (V/m) @ t=0.16
-0.4736759083679273
% es.EY (V/m) @ t=0.16
0.18039165256449885
% es.EZ (V/m) @ t=0.16
-0.4226798423697131
% es.tEX (V/m) @ t=0.16
-0.4736759083679265
% es.tEY (V/m) @ t=0.16
0
% es.tEZ (V/m) @ t=0.16
-0.422679842369722
% es.Ex (V/m) @ t=0.16
-0.4736759083679273
% es.Ey (V/m) @ t=0.16
0.18039165256449885
% es.Ez (V/m) @ t=0.16
-0.4226798423697131
% es.tEx (V/m) @ t=0.16
-0.4736759083679265
% es.tEy (V/m) @ t=0.16
0
% es.tEz (V/m) @ t=0.16
-0.422679842369722
% V (V) @ t=0.16
0.00673338551430242
% es.normE (V/m) @ t=0.18
0.6678758995282502
% es.EX (V/m) @ t=0.18
-0.47813932860626107
% es.EY (V/m) @ t=0.18
0.18209147556427863
% es.EZ (V/m) @ t=0.18
-0.42666272740005384
% es.tEX (V/m) @ t=0.18
-0.47813932860625874
% es.tEY (V/m) @ t=0.18
0
% es.tEZ (V/m) @ t=0.18
-0.4266627274000552
% es.Ex (V/m) @ t=0.18
-0.47813932860626107
% es.Ey (V/m) @ t=0.18
0.18209147556427863
% es.Ez (V/m) @ t=0.18
-0.42666272740005384
% es.tEx (V/m) @ t=0.18
-0.47813932860625874
% es.tEy (V/m) @ t=0.18
0
% es.tEz (V/m) @ t=0.18
-0.4266627274000552
% V (V) @ t=0.18
0.00679683332446117
% es.normE (V/m) @ t=0.2
0.6741105059880725
% es.EX (V/m) @ t=0.2
-0.48260274884459176
% es.EY (V/m) @ t=0.2
0.18379129856405796
% es.EZ (V/m) @ t=0.2
-0.4306456124303848
% es.tEX (V/m) @ t=0.2
-0.4826027488445881
% es.tEY (V/m) @ t=0.2
0
% es.tEZ (V/m) @ t=0.2
-0.43064561243038746
% es.Ex (V/m) @ t=0.2
-0.48260274884459176
% es.Ey (V/m) @ t=0.2
0.18379129856405796
% es.Ez (V/m) @ t=0.2
-0.4306456124303848
% es.tEx (V/m) @ t=0.2
-0.4826027488445881
% es.tEy (V/m) @ t=0.2
0
% es.tEz (V/m) @ t=0.2
-0.43064561243038746
% V (V) @ t=0.2
0.0068602811346199204
% es.normE (V/m) @ t=0.22
0.6803451124478959
% es.EX (V/m) @ t=0.22
-0.4870661690829261
% es.EY (V/m) @ t=0.22
0.1854911215638304
% es.EZ (V/m) @ t=0.22
-0.43462849746071663
% es.tEX (V/m) @ t=0.22
-0.4870661690829243
% es.tEY (V/m) @ t=0.22
0
% es.tEZ (V/m) @ t=0.22
-0.43462849746071974
% es.Ex (V/m) @ t=0.22
-0.4870661690829261
% es.Ey (V/m) @ t=0.22
0.1854911215638304
% es.Ez (V/m) @ t=0.22
-0.43462849746071663
% es.tEx (V/m) @ t=0.22
-0.4870661690829243
% es.tEy (V/m) @ t=0.22
0
% es.tEz (V/m) @ t=0.22
-0.43462849746071974
% V (V) @ t=0.22
0.006923728944778672
% es.normE (V/m) @ t=0.24
0.6865797189077206
% es.EX (V/m) @ t=0.24
-0.49152958932125357
% es.EY (V/m) @ t=0.24
0.18719094456360952
% es.EZ (V/m) @ t=0.24
-0.43861138249105336
% es.tEX (V/m) @ t=0.24
-0.4915295893212517
% es.tEY (V/m) @ t=0.24
0
% es.tEZ (V/m) @ t=0.24
-0.4386113824910529
% es.Ex (V/m) @ t=0.24
-0.49152958932125357
% es.Ey (V/m) @ t=0.24
0.18719094456360952
% es.Ez (V/m) @ t=0.24
-0.43861138249105336
% es.tEx (V/m) @ t=0.24
-0.4915295893212517
% es.tEy (V/m) @ t=0.24
0
% es.tEz (V/m) @ t=0.24
-0.4386113824910529
% V (V) @ t=0.24
0.006987176754937421
% es.normE (V/m) @ t=0.26
0.6928143253675458
% es.EX (V/m) @ t=0.26
-0.49599300955958425
% es.EY (V/m) @ t=0.26
0.18889076756338863
% es.EZ (V/m) @ t=0.26
-0.4425942675213883
% es.tEX (V/m) @ t=0.26
-0.49599300955958237
% es.tEY (V/m) @ t=0.26
0
% es.tEZ (V/m) @ t=0.26
-0.44259426752138875
% es.Ex (V/m) @ t=0.26
-0.49599300955958425
% es.Ey (V/m) @ t=0.26
0.18889076756338863
% es.Ez (V/m) @ t=0.26
-0.4425942675213883
% es.tEx (V/m) @ t=0.26
-0.49599300955958237
% es.tEy (V/m) @ t=0.26
0
% es.tEz (V/m) @ t=0.26
-0.44259426752138875
% V (V) @ t=0.26
0.0070506245650961705
% es.normE (V/m) @ t=0.28
0.6991875628170325
% es.EX (V/m) @ t=0.28
-0.5005556781316641
% es.EY (V/m) @ t=0.28
0.19062839452315283
% es.EZ (V/m) @ t=0.28
-0.4466657105098455
% es.tEX (V/m) @ t=0.28
-0.500555678131662
% es.tEY (V/m) @ t=0.28
0
% es.tEZ (V/m) @ t=0.28
-0.4466657105098468
% es.Ex (V/m) @ t=0.28
-0.5005556781316641
% es.Ey (V/m) @ t=0.28
0.19062839452315283
% es.Ez (V/m) @ t=0.28
-0.4466657105098455
% es.tEx (V/m) @ t=0.28
-0.500555678131662
% es.tEy (V/m) @ t=0.28
0
% es.tEz (V/m) @ t=0.28
-0.4466657105098468
% V (V) @ t=0.28
0.007115482093020403
% es.normE (V/m) @ t=0.3
0.706144517187163
% es.EX (V/m) @ t=0.3
-0.505536239787339
% es.EY (V/m) @ t=0.3
0.19252519809393198
% es.EZ (V/m) @ t=0.3
-0.4511100338964038
% es.tEX (V/m) @ t=0.3
-0.5055362397873393
% es.tEY (V/m) @ t=0.3
0
% es.tEZ (V/m) @ t=0.3
-0.4511100338964038
% es.Ex (V/m) @ t=0.3
-0.505536239787339
% es.Ey (V/m) @ t=0.3
0.19252519809393198
% es.Ez (V/m) @ t=0.3
-0.4511100338964038
% es.tEx (V/m) @ t=0.3
-0.5055362397873393
% es.tEy (V/m) @ t=0.3
0
% es.tEz (V/m) @ t=0.3
-0.4511100338964038
% V (V) @ t=0.3
0.007186275350863485
% es.normE (V/m) @ t=0.32
0.7131014715572942
% es.EX (V/m) @ t=0.32
-0.5105168014430111
% es.EY (V/m) @ t=0.32
0.19442200166471468
% es.EZ (V/m) @ t=0.32
-0.4555543572829599
% es.tEX (V/m) @ t=0.32
-0.5105168014430115
% es.tEY (V/m) @ t=0.32
0
% es.tEZ (V/m) @ t=0.32
-0.4555543572829608
% es.Ex (V/m) @ t=0.32
-0.5105168014430111
% es.Ey (V/m) @ t=0.32
0.19442200166471468
% es.Ez (V/m) @ t=0.32
-0.4555543572829599
% es.tEx (V/m) @ t=0.32
-0.5105168014430115
% es.tEy (V/m) @ t=0.32
0
% es.tEz (V/m) @ t=0.32
-0.4555543572829608
% V (V) @ t=0.32
0.007257068608706566
% es.normE (V/m) @ t=0.34
0.7200584259274325
% es.EX (V/m) @ t=0.34
-0.5154973630986859
% es.EY (V/m) @ t=0.34
0.19631880523549472
% es.EZ (V/m) @ t=0.34
-0.45999868066952043
% es.tEX (V/m) @ t=0.34
-0.5154973630986832
% es.tEY (V/m) @ t=0.34
0
% es.tEZ (V/m) @ t=0.34
-0.45999868066951866
% es.Ex (V/m) @ t=0.34
-0.5154973630986859
% es.Ey (V/m) @ t=0.34
0.19631880523549472
% es.Ez (V/m) @ t=0.34
-0.45999868066952043
% es.tEx (V/m) @ t=0.34
-0.5154973630986832
% es.tEy (V/m) @ t=0.34
0
% es.tEz (V/m) @ t=0.34
-0.45999868066951866
% V (V) @ t=0.34
0.007327861866549644
% es.normE (V/m) @ t=0.36
0.7270153802975653
% es.EX (V/m) @ t=0.36
-0.5204779247543615
% es.EY (V/m) @ t=0.36
0.1982156088062843
% es.EZ (V/m) @ t=0.36
-0.4644430040560632
% es.tEX (V/m) @ t=0.36
-0.5204779247543627
% es.tEY (V/m) @ t=0.36
0
% es.tEZ (V/m) @ t=0.36
-0.46444300405606853
% es.Ex (V/m) @ t=0.36
-0.5204779247543615
% es.Ey (V/m) @ t=0.36
0.1982156088062843
% es.Ez (V/m) @ t=0.36
-0.4644430040560632
% es.tEx (V/m) @ t=0.36
-0.5204779247543627
% es.tEy (V/m) @ t=0.36
0
% es.tEz (V/m) @ t=0.36
-0.46444300405606853
% V (V) @ t=0.36
0.007398655124392726
% es.normE (V/m) @ t=0.38
0.7339723346677104
% es.EX (V/m) @ t=0.38
-0.5254584864100359
% es.EY (V/m) @ t=0.38
0.2001124123770628
% es.EZ (V/m) @ t=0.38
-0.4688873274426246
% es.tEX (V/m) @ t=0.38
-0.5254584864100362
% es.tEY (V/m) @ t=0.38
0
% es.tEZ (V/m) @ t=0.38
-0.46888732744262374
% es.Ex (V/m) @ t=0.38
-0.5254584864100359
% es.Ey (V/m) @ t=0.38
0.2001124123770628
% es.Ez (V/m) @ t=0.38
-0.4688873274426246
% es.tEx (V/m) @ t=0.38
-0.5254584864100362
% es.tEy (V/m) @ t=0.38
0
% es.tEz (V/m) @ t=0.38
-0.46888732744262374
% V (V) @ t=0.38
0.007469448382235805
% es.normE (V/m) @ t=0.4
0.7409292890378497
% es.EX (V/m) @ t=0.4
-0.5304390480657081
% es.EY (V/m) @ t=0.4
0.20200921594783972
% es.EZ (V/m) @ t=0.4
-0.47333165082917716
% es.tEX (V/m) @ t=0.4
-0.5304390480657084
% es.tEY (V/m) @ t=0.4
0
% es.tEZ (V/m) @ t=0.4
-0.47333165082918427
% es.Ex (V/m) @ t=0.4
-0.5304390480657081
% es.Ey (V/m) @ t=0.4
0.20200921594783972
% es.Ez (V/m) @ t=0.4
-0.47333165082917716
% es.tEx (V/m) @ t=0.4
-0.5304390480657084
% es.tEy (V/m) @ t=0.4
0
% es.tEz (V/m) @ t=0.4
-0.47333165082918427
% V (V) @ t=0.4
0.007540241640078886
% es.normE (V/m) @ t=0.42
0.7478862434080009
% es.EX (V/m) @ t=0.42
-0.5354196097213865
% es.EY (V/m) @ t=0.42
0.20390601951861753
% es.EZ (V/m) @ t=0.42
-0.47777597421573503
% es.tEX (V/m) @ t=0.42
-0.5354196097213855
% es.tEY (V/m) @ t=0.42
0
% es.tEZ (V/m) @ t=0.42
-0.47777597421573503
% es.Ex (V/m) @ t=0.42
-0.5354196097213865
% es.Ey (V/m) @ t=0.42
0.20390601951861753
% es.Ez (V/m) @ t=0.42
-0.47777597421573503
% es.tEx (V/m) @ t=0.42
-0.5354196097213855
% es.tEy (V/m) @ t=0.42
0
% es.tEz (V/m) @ t=0.42
-0.47777597421573503
% V (V) @ t=0.42
0.007611034897921966
% es.normE (V/m) @ t=0.44
0.7548431977781522
% es.EX (V/m) @ t=0.44
-0.5404001713770531
% es.EY (V/m) @ t=0.44
0.2058028230893998
% es.EZ (V/m) @ t=0.44
-0.4822202976023018
% es.tEX (V/m) @ t=0.44
-0.5404001713770503
% es.tEY (V/m) @ t=0.44
0
% es.tEZ (V/m) @ t=0.44
-0.48222029760230267
% es.Ex (V/m) @ t=0.44
-0.5404001713770531
% es.Ey (V/m) @ t=0.44
0.2058028230893998
% es.Ez (V/m) @ t=0.44
-0.4822202976023018
% es.tEx (V/m) @ t=0.44
-0.5404001713770503
% es.tEy (V/m) @ t=0.44
0
% es.tEz (V/m) @ t=0.44
-0.48222029760230267
% V (V) @ t=0.44
0.007681828155765046
% es.normE (V/m) @ t=0.46
0.7618001521483087
% es.EX (V/m) @ t=0.46
-0.5453807330327395
% es.EY (V/m) @ t=0.46
0.20769962666018893
% es.EZ (V/m) @ t=0.46
-0.48666462098884544
% es.tEX (V/m) @ t=0.46
-0.5453807330327403
% es.tEY (V/m) @ t=0.46
0
% es.tEZ (V/m) @ t=0.46
-0.48666462098884544
% es.Ex (V/m) @ t=0.46
-0.5453807330327395
% es.Ey (V/m) @ t=0.46
0.20769962666018893
% es.Ez (V/m) @ t=0.46
-0.48666462098884544
% es.tEx (V/m) @ t=0.46
-0.5453807330327403
% es.tEy (V/m) @ t=0.46
0
% es.tEz (V/m) @ t=0.46
-0.48666462098884544
% V (V) @ t=0.46
0.007752621413608127
% es.normE (V/m) @ t=0.48
0.7687571065184583
% es.EX (V/m) @ t=0.48
-0.5503612946884063
% es.EY (V/m) @ t=0.48
0.20959643023096097
% es.EZ (V/m) @ t=0.48
-0.4911089443754033
% es.tEX (V/m) @ t=0.48
-0.5503612946884053
% es.tEY (V/m) @ t=0.48
0
% es.tEZ (V/m) @ t=0.48
-0.491108944375406
% es.Ex (V/m) @ t=0.48
-0.5503612946884063
% es.Ey (V/m) @ t=0.48
0.20959643023096097
% es.Ez (V/m) @ t=0.48
-0.4911089443754033
% es.tEx (V/m) @ t=0.48
-0.5503612946884053
% es.tEy (V/m) @ t=0.48
0
% es.tEz (V/m) @ t=0.48
-0.491108944375406
% V (V) @ t=0.48
0.007823414671451206
% es.normE (V/m) @ t=0.5
0.7757140608886148
% es.EX (V/m) @ t=0.5
-0.5553418563440874
% es.EY (V/m) @ t=0.5
0.21149323380173835
% es.EZ (V/m) @ t=0.5
-0.4955532677619505
% es.tEX (V/m) @ t=0.5
-0.555341856344088
% es.tEY (V/m) @ t=0.5
0
% es.tEZ (V/m) @ t=0.5
-0.49555326776195585
% es.Ex (V/m) @ t=0.5
-0.5553418563440874
% es.Ey (V/m) @ t=0.5
0.21149323380173835
% es.Ez (V/m) @ t=0.5
-0.4955532677619505
% es.tEx (V/m) @ t=0.5
-0.555341856344088
% es.tEy (V/m) @ t=0.5
0
% es.tEz (V/m) @ t=0.5
-0.49555326776195585
% V (V) @ t=0.5
0.007894207929294288
% es.normE (V/m) @ t=0.52
0.7826710152587812
% es.EX (V/m) @ t=0.52
-0.560322417999762
% es.EY (V/m) @ t=0.52
0.2133900373725175
% es.EZ (V/m) @ t=0.52
-0.49999759114851505
% es.tEX (V/m) @ t=0.52
-0.5603224179997588
% es.tEY (V/m) @ t=0.52
0
% es.tEZ (V/m) @ t=0.52
-0.49999759114852704
% es.Ex (V/m) @ t=0.52
-0.560322417999762
% es.Ey (V/m) @ t=0.52
0.2133900373725175
% es.Ez (V/m) @ t=0.52
-0.49999759114851505
% es.tEx (V/m) @ t=0.52
-0.5603224179997588
% es.tEy (V/m) @ t=0.52
0
% es.tEz (V/m) @ t=0.52
-0.49999759114852704
% V (V) @ t=0.52
0.007965001187137366
% es.normE (V/m) @ t=0.54
0.789627969628945
% es.EX (V/m) @ t=0.54
-0.5653029796554369
% es.EY (V/m) @ t=0.54
0.21528684094331418
% es.EZ (V/m) @ t=0.54
-0.5044419145350645
% es.tEX (V/m) @ t=0.54
-0.5653029796554376
% es.tEY (V/m) @ t=0.54
0
% es.tEZ (V/m) @ t=0.54
-0.50444191453506
% es.Ex (V/m) @ t=0.54
-0.5653029796554369
% es.Ey (V/m) @ t=0.54
0.21528684094331418
% es.Ez (V/m) @ t=0.54
-0.5044419145350645
% es.tEx (V/m) @ t=0.54
-0.5653029796554376
% es.tEy (V/m) @ t=0.54
0
% es.tEz (V/m) @ t=0.54
-0.50444191453506
% V (V) @ t=0.54
0.008035794444980447
% es.normE (V/m) @ t=0.56
0.7969082106168628
% es.EX (V/m) @ t=0.56
-0.5705149811094637
% es.EY (V/m) @ t=0.56
0.21727175246056651
% es.EZ (V/m) @ t=0.56
-0.5090927854424097
% es.tEX (V/m) @ t=0.56
-0.5705149811094627
% es.tEY (V/m) @ t=0.56
0
% es.tEZ (V/m) @ t=0.56
-0.5090927854424177
% es.Ex (V/m) @ t=0.56
-0.5705149811094637
% es.Ey (V/m) @ t=0.56
0.21727175246056651
% es.Ez (V/m) @ t=0.56
-0.5090927854424097
% es.tEx (V/m) @ t=0.56
-0.5705149811094627
% es.tEy (V/m) @ t=0.56
0
% es.tEz (V/m) @ t=0.56
-0.5090927854424177
% V (V) @ t=0.56
0.008109882855579755
% es.normE (V/m) @ t=0.58
0.8046858136536448
% es.EX (V/m) @ t=0.58
-0.5760830423753719
% es.EY (V/m) @ t=0.58
0.2193922141254956
% es.EZ (V/m) @ t=0.58
-0.5140614205023097
% es.tEX (V/m) @ t=0.58
-0.5760830423753713
% es.tEY (V/m) @ t=0.58
0
% es.tEZ (V/m) @ t=0.58
-0.5140614205023057
% es.Ex (V/m) @ t=0.58
-0.5760830423753719
% es.Ey (V/m) @ t=0.58
0.2193922141254956
% es.Ez (V/m) @ t=0.58
-0.5140614205023097
% es.tEx (V/m) @ t=0.58
-0.5760830423753713
% es.tEy (V/m) @ t=0.58
0
% es.tEz (V/m) @ t=0.58
-0.5140614205023057
% V (V) @ t=0.58
0.008189040711792165
% es.normE (V/m) @ t=0.6
0.812463416690423
% es.EX (V/m) @ t=0.6
-0.5816511036412703
% es.EY (V/m) @ t=0.6
0.221512675790428
% es.EZ (V/m) @ t=0.6
-0.5190300555622063
% es.tEX (V/m) @ t=0.6
-0.5816511036412697
% es.tEY (V/m) @ t=0.6
0
% es.tEZ (V/m) @ t=0.6
-0.5190300555622045
% es.Ex (V/m) @ t=0.6
-0.5816511036412703
% es.Ey (V/m) @ t=0.6
0.221512675790428
% es.Ez (V/m) @ t=0.6
-0.5190300555622063
% es.tEx (V/m) @ t=0.6
-0.5816511036412697
% es.tEy (V/m) @ t=0.6
0
% es.tEz (V/m) @ t=0.6
-0.5190300555622045
% V (V) @ t=0.6
0.008268198568004575
% es.normE (V/m) @ t=0.62
0.8202410197272059
% es.EX (V/m) @ t=0.62
-0.5872191649071802
% es.EY (V/m) @ t=0.62
0.22363313745535973
% es.EZ (V/m) @ t=0.62
-0.5239986906220899
% es.tEX (V/m) @ t=0.62
-0.5872191649071805
% es.tEY (V/m) @ t=0.62
0
% es.tEZ (V/m) @ t=0.62
-0.5239986906220926
% es.Ex (V/m) @ t=0.62
-0.5872191649071802
% es.Ey (V/m) @ t=0.62
0.22363313745535973
% es.Ez (V/m) @ t=0.62
-0.5239986906220899
% es.tEx (V/m) @ t=0.62
-0.5872191649071805
% es.tEy (V/m) @ t=0.62
0
% es.tEz (V/m) @ t=0.62
-0.5239986906220926
% V (V) @ t=0.62
0.008347356424216981
% es.normE (V/m) @ t=0.64
0.8280186227639897
% es.EX (V/m) @ t=0.64
-0.5927872261730768
% es.EY (V/m) @ t=0.64
0.2257535991202877
% es.EZ (V/m) @ t=0.64
-0.528967325681986
% es.tEX (V/m) @ t=0.64
-0.5927872261730756
% es.tEY (V/m) @ t=0.64
0
% es.tEZ (V/m) @ t=0.64
-0.5289673256819913
% es.Ex (V/m) @ t=0.64
-0.5927872261730768
% es.Ey (V/m) @ t=0.64
0.2257535991202877
% es.Ez (V/m) @ t=0.64
-0.528967325681986
% es.tEx (V/m) @ t=0.64
-0.5927872261730756
% es.tEy (V/m) @ t=0.64
0
% es.tEz (V/m) @ t=0.64
-0.5289673256819913
% V (V) @ t=0.64
0.00842651428042939
% es.normE (V/m) @ t=0.66
0.8357962258007825
% es.EX (V/m) @ t=0.66
-0.5983552874389727
% es.EY (V/m) @ t=0.66
0.2278740607852201
% es.EZ (V/m) @ t=0.66
-0.5339359607418857
% es.tEX (V/m) @ t=0.66
-0.5983552874389739
% es.tEY (V/m) @ t=0.66
0
% es.tEZ (V/m) @ t=0.66
-0.5339359607418803
% es.Ex (V/m) @ t=0.66
-0.5983552874389727
% es.Ey (V/m) @ t=0.66
0.2278740607852201
% es.Ez (V/m) @ t=0.66
-0.5339359607418857
% es.tEx (V/m) @ t=0.66
-0.5983552874389739
% es.tEy (V/m) @ t=0.66
0
% es.tEz (V/m) @ t=0.66
-0.5339359607418803
% V (V) @ t=0.66
0.008505672136641797
% es.normE (V/m) @ t=0.68
0.8435738288375819
% es.EX (V/m) @ t=0.68
-0.60392334870488
% es.EY (V/m) @ t=0.68
0.22999452245016228
% es.EZ (V/m) @ t=0.68
-0.5389045958017764
% es.tEX (V/m) @ t=0.68
-0.6039233487048776
% es.tEY (V/m) @ t=0.68
0
% es.tEZ (V/m) @ t=0.68
-0.53890459580178
% es.Ex (V/m) @ t=0.68
-0.60392334870488
% es.Ey (V/m) @ t=0.68
0.22999452245016228
% es.Ez (V/m) @ t=0.68
-0.5389045958017764
% es.tEx (V/m) @ t=0.68
-0.6039233487048776
% es.tEy (V/m) @ t=0.68
0
% es.tEz (V/m) @ t=0.68
-0.53890459580178
% V (V) @ t=0.68
0.008584829992854204
% es.normE (V/m) @ t=0.7
0.8513514318743813
% es.EX (V/m) @ t=0.7
-0.6094914099707899
% es.EY (V/m) @ t=0.7
0.23211498411508424
% es.EZ (V/m) @ t=0.7
-0.5438732308616658
% es.tEX (V/m) @ t=0.7
-0.6094914099707895
% es.tEY (V/m) @ t=0.7
0
% es.tEZ (V/m) @ t=0.7
-0.5438732308616716
% es.Ex (V/m) @ t=0.7
-0.6094914099707899
% es.Ey (V/m) @ t=0.7
0.23211498411508424
% es.Ez (V/m) @ t=0.7
-0.5438732308616658
% es.tEx (V/m) @ t=0.7
-0.6094914099707895
% es.tEy (V/m) @ t=0.7
0
% es.tEz (V/m) @ t=0.7
-0.5438732308616716
% V (V) @ t=0.7
0.008663987849066614
% es.normE (V/m) @ t=0.72
0.8591290349111911
% es.EX (V/m) @ t=0.72
-0.6150594712366956
% es.EY (V/m) @ t=0.72
0.23423544578001376
% es.EZ (V/m) @ t=0.72
-0.548841865921565
% es.tEX (V/m) @ t=0.72
-0.6150594712366959
% es.tEY (V/m) @ t=0.72
0
% es.tEZ (V/m) @ t=0.72
-0.5488418659215606
% es.Ex (V/m) @ t=0.72
-0.6150594712366956
% es.Ey (V/m) @ t=0.72
0.23423544578001376
% es.Ez (V/m) @ t=0.72
-0.548841865921565
% es.tEx (V/m) @ t=0.72
-0.6150594712366959
% es.tEy (V/m) @ t=0.72
0
% es.tEz (V/m) @ t=0.72
-0.5488418659215606
% V (V) @ t=0.72
0.00874314570527902
% es.normE (V/m) @ t=0.74
0.8669066379479944
% es.EX (V/m) @ t=0.74
-0.6206275325025895
% es.EY (V/m) @ t=0.74
0.2363559074449446
% es.EZ (V/m) @ t=0.74
-0.5538105009814611
% es.tEX (V/m) @ t=0.74
-0.6206275325025903
% es.tEY (V/m) @ t=0.74
0
% es.tEZ (V/m) @ t=0.74
-0.5538105009814593
% es.Ex (V/m) @ t=0.74
-0.6206275325025895
% es.Ey (V/m) @ t=0.74
0.2363559074449446
% es.Ez (V/m) @ t=0.74
-0.5538105009814611
% es.tEx (V/m) @ t=0.74
-0.6206275325025903
% es.tEy (V/m) @ t=0.74
0
% es.tEz (V/m) @ t=0.74
-0.5538105009814593
% V (V) @ t=0.74
0.00882230356149143
% es.normE (V/m) @ t=0.76
0.8746842409848077
% es.EX (V/m) @ t=0.76
-0.6261955937684968
% es.EY (V/m) @ t=0.76
0.2384763691098788
% es.EZ (V/m) @ t=0.76
-0.5587791360413519
% es.tEX (V/m) @ t=0.76
-0.6261955937684978
% es.tEY (V/m) @ t=0.76
0
% es.tEZ (V/m) @ t=0.76
-0.5587791360413545
% es.Ex (V/m) @ t=0.76
-0.6261955937684968
% es.Ey (V/m) @ t=0.76
0.2384763691098788
% es.Ez (V/m) @ t=0.76
-0.5587791360413519
% es.tEx (V/m) @ t=0.76
-0.6261955937684978
% es.tEy (V/m) @ t=0.76
0
% es.tEz (V/m) @ t=0.76
-0.5587791360413545
% V (V) @ t=0.76
0.008901461417703838
% es.normE (V/m) @ t=0.78
0.8824618440216268
% es.EX (V/m) @ t=0.78
-0.6317636550344031
% es.EY (V/m) @ t=0.78
0.24059683077481675
% es.EZ (V/m) @ t=0.78
-0.5637477711012449
% es.tEX (V/m) @ t=0.78
-0.6317636550343997
% es.tEY (V/m) @ t=0.78
0
% es.tEZ (V/m) @ t=0.78
-0.5637477711012533
% es.Ex (V/m) @ t=0.78
-0.6317636550344031
% es.Ey (V/m) @ t=0.78
0.24059683077481675
% es.Ez (V/m) @ t=0.78
-0.5637477711012449
% es.tEx (V/m) @ t=0.78
-0.6317636550343997
% es.tEy (V/m) @ t=0.78
0
% es.tEz (V/m) @ t=0.78
-0.5637477711012533
% V (V) @ t=0.78
0.008980619273916244
% es.normE (V/m) @ t=0.8
0.8902394470584492
% es.EX (V/m) @ t=0.8
-0.6373317163003049
% es.EY (V/m) @ t=0.8
0.24271729243975715
% es.EZ (V/m) @ t=0.8
-0.5687164061611427
% es.tEX (V/m) @ t=0.8
-0.6373317163003047
% es.tEY (V/m) @ t=0.8
0
% es.tEZ (V/m) @ t=0.8
-0.5687164061611449
% es.Ex (V/m) @ t=0.8
-0.6373317163003049
% es.Ey (V/m) @ t=0.8
0.24271729243975715
% es.Ez (V/m) @ t=0.8
-0.5687164061611427
% es.tEx (V/m) @ t=0.8
-0.6373317163003047
% es.tEy (V/m) @ t=0.8
0
% es.tEz (V/m) @ t=0.8
-0.5687164061611449
% V (V) @ t=0.8
0.009059777130128654
% es.normE (V/m) @ t=0.82
0.8980170500952769
% es.EX (V/m) @ t=0.82
-0.642899777566213
% es.EY (V/m) @ t=0.82
0.24483775410468
% es.EZ (V/m) @ t=0.82
-0.5736850412210437
% es.tEX (V/m) @ t=0.82
-0.6428997775662084
% es.tEY (V/m) @ t=0.82
0
% es.tEZ (V/m) @ t=0.82
-0.5736850412210401
% es.Ex (V/m) @ t=0.82
-0.642899777566213
% es.Ey (V/m) @ t=0.82
0.24483775410468
% es.Ez (V/m) @ t=0.82
-0.5736850412210437
% es.tEx (V/m) @ t=0.82
-0.6428997775662084
% es.tEy (V/m) @ t=0.82
0
% es.tEz (V/m) @ t=0.82
-0.5736850412210401
% V (V) @ t=0.82
0.00913893498634106
% es.normE (V/m) @ t=0.84
0.9063508833459701
% es.EX (V/m) @ t=0.84
-0.6488660608109469
% es.EY (V/m) @ t=0.84
0.24710995060214636
% es.EZ (V/m) @ t=0.84
-0.5790089653108184
% es.tEX (V/m) @ t=0.84
-0.6488660608109436
% es.tEY (V/m) @ t=0.84
0
% es.tEZ (V/m) @ t=0.84
-0.5790089653108135
% es.Ex (V/m) @ t=0.84
-0.6488660608109469
% es.Ey (V/m) @ t=0.84
0.24710995060214636
% es.Ez (V/m) @ t=0.84
-0.5790089653108184
% es.tEx (V/m) @ t=0.84
-0.6488660608109436
% es.tEy (V/m) @ t=0.84
0
% es.tEz (V/m) @ t=0.84
-0.5790089653108135
% V (V) @ t=0.84
0.009223740912335758
% es.normE (V/m) @ t=0.86
0.9150618157349757
% es.EX (V/m) @ t=0.86
-0.655102320697222
% es.EY (V/m) @ t=0.86
0.2494850165108169
% es.EZ (V/m) @ t=0.86
-0.5845737594283
% es.tEX (V/m) @ t=0.86
-0.6551023206972211
% es.tEY (V/m) @ t=0.86
0
% es.tEZ (V/m) @ t=0.86
-0.5845737594283076
% es.Ex (V/m) @ t=0.86
-0.655102320697222
% es.Ey (V/m) @ t=0.86
0.2494850165108169
% es.Ez (V/m) @ t=0.86
-0.5845737594283
% es.tEx (V/m) @ t=0.86
-0.6551023206972211
% es.tEy (V/m) @ t=0.86
0
% es.tEz (V/m) @ t=0.86
-0.5845737594283076
% V (V) @ t=0.86
0.009312375976329095
% es.normE (V/m) @ t=0.88
0.923772748124
% es.EX (V/m) @ t=0.88
-0.6613385805835099
% es.EY (V/m) @ t=0.88
0.25186008241948343
% es.EZ (V/m) @ t=0.88
-0.5901385535457733
% es.tEX (V/m) @ t=0.88
-0.6613385805835112
% es.tEY (V/m) @ t=0.88
0
% es.tEZ (V/m) @ t=0.88
-0.5901385535457813
% es.Ex (V/m) @ t=0.88
-0.6613385805835099
% es.Ey (V/m) @ t=0.88
0.25186008241948343
% es.Ez (V/m) @ t=0.88
-0.5901385535457733
% es.tEx (V/m) @ t=0.88
-0.6613385805835112
% es.tEy (V/m) @ t=0.88
0
% es.tEz (V/m) @ t=0.88
-0.5901385535457813
% V (V) @ t=0.88
0.009401011040322434
% es.normE (V/m) @ t=0.9
0.9324836805130347
% es.EX (V/m) @ t=0.9
-0.6675748404697988
% es.EY (V/m) @ t=0.9
0.25423514832815974
% es.EZ (V/m) @ t=0.9
-0.5957033476632407
% es.tEX (V/m) @ t=0.9
-0.6675748404698001
% es.tEY (V/m) @ t=0.9
0
% es.tEZ (V/m) @ t=0.9
-0.5957033476632434
% es.Ex (V/m) @ t=0.9
-0.6675748404697988
% es.Ey (V/m) @ t=0.9
0.25423514832815974
% es.Ez (V/m) @ t=0.9
-0.5957033476632407
% es.tEx (V/m) @ t=0.9
-0.6675748404698001
% es.tEy (V/m) @ t=0.9
0
% es.tEz (V/m) @ t=0.9
-0.5957033476632434
% V (V) @ t=0.9
0.009489646104315772
% es.normE (V/m) @ t=0.92
0.9411946129020934
% es.EX (V/m) @ t=0.92
-0.673811100356084
% es.EY (V/m) @ t=0.92
0.25661021423684605
% es.EZ (V/m) @ t=0.92
-0.6012681417807215
% es.tEX (V/m) @ t=0.92
-0.6738111003560827
% es.tEY (V/m) @ t=0.92
0
% es.tEZ (V/m) @ t=0.92
-0.6012681417807277
% es.Ex (V/m) @ t=0.92
-0.673811100356084
% es.Ey (V/m) @ t=0.92
0.25661021423684605
% es.Ez (V/m) @ t=0.92
-0.6012681417807215
% es.tEx (V/m) @ t=0.92
-0.6738111003560827
% es.tEy (V/m) @ t=0.92
0
% es.tEz (V/m) @ t=0.92
-0.6012681417807277
% V (V) @ t=0.92
0.00957828116830911
% es.normE (V/m) @ t=0.94
0.9499055452911584
% es.EX (V/m) @ t=0.94
-0.6800473602423684
% es.EY (V/m) @ t=0.94
0.258985280145517
% es.EZ (V/m) @ t=0.94
-0.6068329358982014
% es.tEX (V/m) @ t=0.94
-0.680047360242364
% es.tEY (V/m) @ t=0.94
0
% es.tEZ (V/m) @ t=0.94
-0.6068329358981979
% es.Ex (V/m) @ t=0.94
-0.6800473602423684
% es.Ey (V/m) @ t=0.94
0.258985280145517
% es.Ez (V/m) @ t=0.94
-0.6068329358982014
% es.tEx (V/m) @ t=0.94
-0.680047360242364
% es.tEy (V/m) @ t=0.94
0
% es.tEz (V/m) @ t=0.94
-0.6068329358981979
% V (V) @ t=0.94
0.00966691623230245
% es.normE (V/m) @ t=0.96
0.958616477680232
% es.EX (V/m) @ t=0.96
-0.6862836201286531
% es.EY (V/m) @ t=0.96
0.26136034605420466
% es.EZ (V/m) @ t=0.96
-0.6123977300156667
% es.tEX (V/m) @ t=0.96
-0.6862836201286515
% es.tEY (V/m) @ t=0.96
0
% es.tEZ (V/m) @ t=0.96
-0.6123977300156627
% es.Ex (V/m) @ t=0.96
-0.6862836201286531
% es.Ey (V/m) @ t=0.96
0.26136034605420466
% es.Ez (V/m) @ t=0.96
-0.6123977300156667
% es.tEx (V/m) @ t=0.96
-0.6862836201286515
% es.tEy (V/m) @ t=0.96
0
% es.tEz (V/m) @ t=0.96
-0.6123977300156627
% V (V) @ t=0.96
0.009755551296295788
% es.normE (V/m) @ t=0.98
0.9673274100693168
% es.EX (V/m) @ t=0.98
-0.6925198800149373
% es.EY (V/m) @ t=0.98
0.2637354119628681
% es.EZ (V/m) @ t=0.98
-0.6179625241331417
% es.tEX (V/m) @ t=0.98
-0.6925198800149341
% es.tEY (V/m) @ t=0.98
0
% es.tEZ (V/m) @ t=0.98
-0.6179625241331452
% es.Ex (V/m) @ t=0.98
-0.6925198800149373
% es.Ey (V/m) @ t=0.98
0.2637354119628681
% es.Ez (V/m) @ t=0.98
-0.6179625241331417
% es.tEx (V/m) @ t=0.98
-0.6925198800149341
% es.tEy (V/m) @ t=0.98
0
% es.tEz (V/m) @ t=0.98
-0.6179625241331452
% V (V) @ t=0.98
0.009844186360289126
% es.normE (V/m) @ t=1
0.9760383424584168
% es.EX (V/m) @ t=1
-0.698756139901221
% es.EY (V/m) @ t=1
0.2661104778715424
% es.EZ (V/m) @ t=1
-0.6235273182506185
% es.tEX (V/m) @ t=1
-0.6987561399012212
% es.tEY (V/m) @ t=1
0
% es.tEZ (V/m) @ t=1
-0.6235273182506171
% es.Ex (V/m) @ t=1
-0.698756139901221
% es.Ey (V/m) @ t=1
0.2661104778715424
% es.Ez (V/m) @ t=1
-0.6235273182506185
% es.tEx (V/m) @ t=1
-0.6987561399012212
% es.tEy (V/m) @ t=1
0
% es.tEz (V/m) @ t=1
-0.6235273182506171
% V (V) @ t=1
0.009932821424282465
% es.normE (V/m) @ t=1.02
0.9847492748475273
% es.EX (V/m) @ t=1.02
-0.7049923997875027
% es.EY (V/m) @ t=1.02
0.2684855437802285
% es.EZ (V/m) @ t=1.02
-0.6290921123680913
% es.tEX (V/m) @ t=1.02
-0.7049923997875012
% es.tEY (V/m) @ t=1.02
0
% es.tEZ (V/m) @ t=1.02
-0.6290921123680944
% es.Ex (V/m) @ t=1.02
-0.7049923997875027
% es.Ey (V/m) @ t=1.02
0.2684855437802285
% es.Ez (V/m) @ t=1.02
-0.6290921123680913
% es.tEx (V/m) @ t=1.02
-0.7049923997875012