% Model:              1 neuron.mph
% Version:            COMSOL 6.1.0.252
% Date:               Mar 18 2023, 12:18
% Dimension:          0
% Nodes:              14017
% Expressions:        14017
% Description:        Electric field norm, Electric field, X component, Electric field, Y component, Electric field, Z component, Tangential electric field, X component, Tangential electric field, Y component, Tangential electric field, Z component, Electric field, x component, Electric field, y component, Electric field, z component, Tangential electric field, x component, Tangential electric field, y component, Tangential electric field, z component, Electric potential
% Length unit:        mm
% x
2
% y
12.199999999999998
% z
2
% es.normE (V/m) @ t=0
0.7247662746494574
% es.EX (V/m) @ t=0
-0.5188676471599273
% es.EY (V/m) @ t=0
0.19760217304314143
% es.EZ (V/m) @ t=0
-0.4630064405723662
% es.tEX (V/m) @ t=0
-0.5188676471599285
% es.tEY (V/m) @ t=0
0
% es.tEZ (V/m) @ t=0
-0.4630064405723662
% es.Ex (V/m) @ t=0
-0.5188676471599273
% es.Ey (V/m) @ t=0
0.19760217304314143
% es.Ez (V/m) @ t=0
-0.4630064405723662
% es.tEx (V/m) @ t=0
-0.5188676471599285
% es.tEy (V/m) @ t=0
0
% es.tEz (V/m) @ t=0
-0.4630064405723662
% V (V) @ t=0
0.007375797118420533
% es.normE (V/m) @ t=0.02
0.6259888509801144
% es.EX (V/m) @ t=0.02
-0.44815187125244493
% es.EY (V/m) @ t=0.02
0.170671238180355
% es.EZ (V/m) @ t=0.02
-0.39990391358191824
% es.tEX (V/m) @ t=0.02
-0.4481518712524424
% es.tEY (V/m) @ t=0.02
0
% es.tEZ (V/m) @ t=0.02
-0.39990391358192134
% es.Ex (V/m) @ t=0.02
-0.44815187125244493
% es.Ey (V/m) @ t=0.02
0.170671238180355
% es.Ez (V/m) @ t=0.02
-0.39990391358191824
% es.tEx (V/m) @ t=0.02
-0.4481518712524424
% es.tEy (V/m) @ t=0.02
0
% es.tEz (V/m) @ t=0.02
-0.39990391358192134
% V (V) @ t=0.02
0.006370559607990913
% es.normE (V/m) @ t=0.04
0.6317470921838463
% es.EX (V/m) @ t=0.04
-0.45227425533132204
% es.EY (V/m) @ t=0.04
0.17224118081841744
% es.EZ (V/m) @ t=0.04
-0.40358248240617245
% es.tEX (V/m) @ t=0.04
-0.45227425533132415
% es.tEY (V/m) @ t=0.04
0
% es.tEZ (V/m) @ t=0.04
-0.4035824824061738
% es.Ex (V/m) @ t=0.04
-0.45227425533132204
% es.Ey (V/m) @ t=0.04
0.17224118081841744
% es.Ez (V/m) @ t=0.04
-0.40358248240617245
% es.tEx (V/m) @ t=0.04
-0.45227425533132415
% es.tEy (V/m) @ t=0.04
0
% es.tEz (V/m) @ t=0.04
-0.4035824824061738
% V (V) @ t=0.04
0.006429160016803269
% es.normE (V/m) @ t=0.06
0.6375591065210205
% es.EX (V/m) @ t=0.06
-0.4564351361552085
% es.EY (V/m) @ t=0.06
0.173825784269537
% es.EZ (V/m) @ t=0.06
-0.40729540343197046
% es.tEX (V/m) @ t=0.06
-0.45643513615521014
% es.tEY (V/m) @ t=0.06
0
% es.tEZ (V/m) @ t=0.06
-0.4072954034319727
% es.Ex (V/m) @ t=0.06
-0.4564351361552085
% es.Ey (V/m) @ t=0.06
0.173825784269537
% es.Ez (V/m) @ t=0.06
-0.40729540343197046
% es.tEx (V/m) @ t=0.06
-0.45643513615521014
% es.tEy (V/m) @ t=0.06
0
% es.tEz (V/m) @ t=0.06
-0.4072954034319727
% V (V) @ t=0.06
0.006488307665000254
% es.normE (V/m) @ t=0.08
0.6434554388602451
% es.EX (V/m) @ t=0.08
-0.46065638111607454
% es.EY (V/m) @ t=0.08
0.1754333763538216
% es.EZ (V/m) @ t=0.08
-0.4110621898072586
% es.tEX (V/m) @ t=0.08
-0.4606563811160731
% es.tEY (V/m) @ t=0.08
0
% es.tEZ (V/m) @ t=0.08
-0.41106218980725817
% es.Ex (V/m) @ t=0.08
-0.46065638111607454
% es.Ey (V/m) @ t=0.08
0.1754333763538216
% es.Ez (V/m) @ t=0.08
-0.4110621898072586
% es.tEx (V/m) @ t=0.08
-0.4606563811160731
% es.tEy (V/m) @ t=0.08
0
% es.tEz (V/m) @ t=0.08
-0.41106218980725817
% V (V) @ t=0.08
0.006548313401382539
% es.normE (V/m) @ t=0.1
0.649419466567779
% es.EX (V/m) @ t=0.1
-0.4649260898970754
% es.EY (V/m) @ t=0.1
0.177059425042293
% es.EZ (V/m) @ t=0.1
-0.41487222240024346
% es.tEX (V/m) @ t=0.1
-0.46492608989707906
% es.tEY (V/m) @ t=0.1
0
% es.tEZ (V/m) @ t=0.1
-0.41487222240023947
% es.Ex (V/m) @ t=0.1
-0.4649260898970754
% es.Ey (V/m) @ t=0.1
0.177059425042293
% es.Ez (V/m) @ t=0.1
-0.41487222240024346
% es.tEx (V/m) @ t=0.1
-0.46492608989707906
% es.tEy (V/m) @ t=0.1
0
% es.tEz (V/m) @ t=0.1
-0.41487222240023947
% V (V) @ t=0.1
0.0066090080605848145
% es.normE (V/m) @ t=0.12
0.6553834942753075
% es.EX (V/m) @ t=0.12
-0.4691957986780734
% es.EY (V/m) @ t=0.12
0.17868547373077126
% es.EZ (V/m) @ t=0.12
-0.4186822549932221
% es.tEX (V/m) @ t=0.12
-0.4691957986780777
% es.tEY (V/m) @ t=0.12
0
% es.tEZ (V/m) @ t=0.12
-0.4186822549932234
% es.Ex (V/m) @ t=0.12
-0.4691957986780734
% es.Ey (V/m) @ t=0.12
0.17868547373077126
% es.Ez (V/m) @ t=0.12
-0.4186822549932221
% es.tEx (V/m) @ t=0.12
-0.4691957986780777
% es.tEy (V/m) @ t=0.12
0
% es.tEz (V/m) @ t=0.12
-0.4186822549932234
% V (V) @ t=0.12
0.006669702719787091
% es.normE (V/m) @ t=0.14
0.6613859432170923
% es.EX (V/m) @ t=0.14
-0.4734930135555816
% es.EY (V/m) @ t=0.14
0.18032199799394388
% es.EZ (V/m) @ t=0.14
-0.42251683233780346
% es.tEX (V/m) @ t=0.14
-0.47349301355558193
% es.tEY (V/m) @ t=0.14
0
% es.tEZ (V/m) @ t=0.14
-0.422516832337803
% es.Ex (V/m) @ t=0.14
-0.4734930135555816
% es.Ey (V/m) @ t=0.14
0.18032199799394388
% es.Ez (V/m) @ t=0.14
-0.42251683233780346
% es.tEx (V/m) @ t=0.14
-0.47349301355558193
% es.tEy (V/m) @ t=0.14
0
% es.tEz (V/m) @ t=0.14
-0.422516832337803
% V (V) @ t=0.14
0.006730788372784016
% es.normE (V/m) @ t=0.16
0.6676717189332688
% es.EX (V/m) @ t=0.16
-0.4779930645405439
% es.EY (V/m) @ t=0.16
0.1820357714878027
% es.EZ (V/m) @ t=0.16
-0.42653240817019533
% es.tEX (V/m) @ t=0.16
-0.47799306454054435
% es.tEY (V/m) @ t=0.16
0
% es.tEZ (V/m) @ t=0.16
-0.4265324081701918
% es.Ex (V/m) @ t=0.16
-0.4779930645405439
% es.Ey (V/m) @ t=0.16
0.1820357714878027
% es.Ez (V/m) @ t=0.16
-0.42653240817019533
% es.tEx (V/m) @ t=0.16
-0.47799306454054435
% es.tEy (V/m) @ t=0.16
0
% es.tEz (V/m) @ t=0.16
-0.4265324081701918
% V (V) @ t=0.16
0.00679475730146967
% es.normE (V/m) @ t=0.18
0.6739574946494403
% es.EX (V/m) @ t=0.18
-0.4824931155255038
% es.EY (V/m) @ t=0.18
0.18374954498165175
% es.EZ (V/m) @ t=0.18
-0.43054798400258765
% es.tEX (V/m) @ t=0.18
-0.4824931155255032
% es.tEY (V/m) @ t=0.18
0
% es.tEZ (V/m) @ t=0.18
-0.4305479840025894
% es.Ex (V/m) @ t=0.18
-0.4824931155255038
% es.Ey (V/m) @ t=0.18
0.18374954498165175
% es.Ez (V/m) @ t=0.18
-0.43054798400258765
% es.tEx (V/m) @ t=0.18
-0.4824931155255032
% es.tEy (V/m) @ t=0.18
0
% es.tEz (V/m) @ t=0.18
-0.4305479840025894
% V (V) @ t=0.18
0.006858726230155322
% es.normE (V/m) @ t=0.2
0.6802432703656199
% es.EX (V/m) @ t=0.2
-0.48699316651046953
% es.EY (V/m) @ t=0.2
0.18546331847550013
% es.EZ (V/m) @ t=0.2
-0.4345635598349862
% es.tEX (V/m) @ t=0.2
-0.4869931665104692
% es.tEY (V/m) @ t=0.2
0
% es.tEZ (V/m) @ t=0.2
-0.4345635598349853
% es.Ex (V/m) @ t=0.2
-0.48699316651046953
% es.Ey (V/m) @ t=0.2
0.18546331847550013
% es.Ez (V/m) @ t=0.2
-0.4345635598349862
% es.tEx (V/m) @ t=0.2
-0.4869931665104692
% es.tEy (V/m) @ t=0.2
0
% es.tEz (V/m) @ t=0.2
-0.4345635598349853
% V (V) @ t=0.2
0.006922695158840976
% es.normE (V/m) @ t=0.22
0.6865290460817983
% es.EX (V/m) @ t=0.22
-0.4914932174954382
% es.EY (V/m) @ t=0.22
0.18717709196936183
% es.EZ (V/m) @ t=0.22
-0.43857913566737317
% es.tEX (V/m) @ t=0.22
-0.4914932174954372
% es.tEY (V/m) @ t=0.22
0
% es.tEZ (V/m) @ t=0.22
-0.4385791356673714
% es.Ex (V/m) @ t=0.22
-0.4914932174954382
% es.Ey (V/m) @ t=0.22
0.18717709196936183
% es.Ez (V/m) @ t=0.22
-0.43857913566737317
% es.tEx (V/m) @ t=0.22
-0.4914932174954372
% es.tEy (V/m) @ t=0.22
0
% es.tEz (V/m) @ t=0.22
-0.4385791356673714
% V (V) @ t=0.22
0.006986664087526629
% es.normE (V/m) @ t=0.24
0.692814821797973
% es.EX (V/m) @ t=0.24
-0.49599326848039604
% es.EY (V/m) @ t=0.24
0.18889086546322242
% es.EZ (V/m) @ t=0.24
-0.44259471149976637
% es.tEX (V/m) @ t=0.24
-0.4959932684803978
% es.tEY (V/m) @ t=0.24
0
% es.tEZ (V/m) @ t=0.24
-0.4425947114997708
% es.Ex (V/m) @ t=0.24
-0.49599326848039604
% es.Ey (V/m) @ t=0.24
0.18889086546322242
% es.Ez (V/m) @ t=0.24
-0.44259471149976637
% es.tEx (V/m) @ t=0.24
-0.4959932684803978
% es.tEy (V/m) @ t=0.24
0
% es.tEz (V/m) @ t=0.24
-0.4425947114997708
% V (V) @ t=0.24
0.007050633016212282
% es.normE (V/m) @ t=0.26
0.699100597514148
% es.EX (V/m) @ t=0.26
-0.5004933194653559
% es.EY (V/m) @ t=0.26
0.19060463895707502
% es.EZ (V/m) @ t=0.26
-0.4466102873321618
% es.tEX (V/m) @ t=0.26
-0.5004933194653531
% es.tEY (V/m) @ t=0.26
0
% es.tEZ (V/m) @ t=0.26
-0.44661028733216135
% es.Ex (V/m) @ t=0.26
-0.5004933194653559
% es.Ey (V/m) @ t=0.26
0.19060463895707502
% es.Ez (V/m) @ t=0.26
-0.4466102873321618
% es.tEx (V/m) @ t=0.26
-0.5004933194653531
% es.tEy (V/m) @ t=0.26
0
% es.tEz (V/m) @ t=0.26
-0.44661028733216135
% V (V) @ t=0.26
0.007114601944897936
% es.normE (V/m) @ t=0.28
0.7055668440270239
% es.EX (V/m) @ t=0.28
-0.5051225864656236
% es.EY (V/m) @ t=0.28
0.1923675446354156
% es.EZ (V/m) @ t=0.28
-0.45074117587085194
% es.tEX (V/m) @ t=0.28
-0.5051225864656248
% es.tEY (V/m) @ t=0.28
0
% es.tEZ (V/m) @ t=0.28
-0.4507411758708493
% es.Ex (V/m) @ t=0.28
-0.5051225864656236
% es.Ey (V/m) @ t=0.28
0.1923675446354156
% es.Ez (V/m) @ t=0.28
-0.45074117587085194
% es.tEx (V/m) @ t=0.28
-0.5051225864656248
% es.tEy (V/m) @ t=0.28
0
% es.tEz (V/m) @ t=0.28
-0.4507411758708493
% V (V) @ t=0.28
0.007180410160851725
% es.normE (V/m) @ t=0.3
0.7125777155400511
% es.EX (V/m) @ t=0.3
-0.5101418017213232
% es.EY (V/m) @ t=0.3
0.19427872148267045
% es.EZ (V/m) @ t=0.3
-0.4552200552414103
% es.tEX (V/m) @ t=0.3
-0.510141801721324
% es.tEY (V/m) @ t=0.3
0
% es.tEZ (V/m) @ t=0.3
-0.45522005524141296
% es.Ex (V/m) @ t=0.3
-0.5101418017213232
% es.Ey (V/m) @ t=0.3
0.19427872148267045
% es.Ez (V/m) @ t=0.3
-0.4552200552414103
% es.tEx (V/m) @ t=0.3
-0.510141801721324
% es.tEy (V/m) @ t=0.3
0
% es.tEz (V/m) @ t=0.3
-0.45522005524141296
% V (V) @ t=0.3
0.007251768980264266
% es.normE (V/m) @ t=0.32
0.7195885870533045
% es.EX (V/m) @ t=0.32
-0.5151610169770308
% es.EY (V/m) @ t=0.32
0.1961898983299155
% es.EZ (V/m) @ t=0.32
-0.45969893461196243
% es.tEX (V/m) @ t=0.32
-0.5151610169770311
% es.tEY (V/m) @ t=0.32
0
% es.tEZ (V/m) @ t=0.32
-0.45969893461196154
% es.Ex (V/m) @ t=0.32
-0.5151610169770308
% es.Ey (V/m) @ t=0.32
0.1961898983299155
% es.Ez (V/m) @ t=0.32
-0.45969893461196243
% es.tEx (V/m) @ t=0.32
-0.5151610169770311
% es.tEy (V/m) @ t=0.32
0
% es.tEz (V/m) @ t=0.32
-0.45969893461196154
% V (V) @ t=0.32
0.007323127799676807
% es.normE (V/m) @ t=0.34
0.7265994585667794
% es.EX (V/m) @ t=0.34
-0.5201802322327364
% es.EY (V/m) @ t=0.34
0.19810107517716413
% es.EZ (V/m) @ t=0.34
-0.4641778139825119
% es.tEX (V/m) @ t=0.34
-0.5201802322327371
% es.tEY (V/m) @ t=0.34
0
% es.tEZ (V/m) @ t=0.34
-0.4641778139825128
% es.Ex (V/m) @ t=0.34
-0.5201802322327364
% es.Ey (V/m) @ t=0.34
0.19810107517716413
% es.Ez (V/m) @ t=0.34
-0.4641778139825119
% es.tEx (V/m) @ t=0.34
-0.5201802322327371
% es.tEy (V/m) @ t=0.34
0
% es.tEz (V/m) @ t=0.34
-0.4641778139825128
% V (V) @ t=0.34
0.00739448661908935
% es.normE (V/m) @ t=0.36
0.7336103300804685
% es.EX (V/m) @ t=0.36
-0.5251994474884395
% es.EY (V/m) @ t=0.36
0.2000122520244172
% es.EZ (V/m) @ t=0.36
-0.4686566933530587
% es.tEX (V/m) @ t=0.36
-0.5251994474884389
% es.tEY (V/m) @ t=0.36
0
% es.tEZ (V/m) @ t=0.36
-0.46865669335306226
% es.Ex (V/m) @ t=0.36
-0.5251994474884395
% es.Ey (V/m) @ t=0.36
0.2000122520244172
% es.Ez (V/m) @ t=0.36
-0.4686566933530587
% es.tEx (V/m) @ t=0.36
-0.5251994474884389
% es.tEy (V/m) @ t=0.36
0
% es.tEz (V/m) @ t=0.36
-0.46865669335306226
% V (V) @ t=0.36
0.007465845438501891
% es.normE (V/m) @ t=0.38
0.7406212015943677
% es.EX (V/m) @ t=0.38
-0.5302186627441435
% es.EY (V/m) @ t=0.38
0.20192342887166093
% es.EZ (V/m) @ t=0.38
-0.47313557272360995
% es.tEX (V/m) @ t=0.38
-0.5302186627441434
% es.tEY (V/m) @ t=0.38
0
% es.tEZ (V/m) @ t=0.38
-0.47313557272360995
% es.Ex (V/m) @ t=0.38
-0.5302186627441435
% es.Ey (V/m) @ t=0.38
0.20192342887166093
% es.Ez (V/m) @ t=0.38
-0.47313557272360995
% es.tEx (V/m) @ t=0.38
-0.5302186627441434
% es.tEy (V/m) @ t=0.38
0
% es.tEz (V/m) @ t=0.38
-0.47313557272360995
% V (V) @ t=0.38
0.007537204257914433
% es.normE (V/m) @ t=0.4
0.7476320731084712
% es.EX (V/m) @ t=0.4
-0.5352378779998411
% es.EY (V/m) @ t=0.4
0.20383460571890333
% es.EZ (V/m) @ t=0.4
-0.4776144520941683
% es.tEX (V/m) @ t=0.4
-0.5352378779998406
% es.tEY (V/m) @ t=0.4
0
% es.tEZ (V/m) @ t=0.4
-0.4776144520941692
% es.Ex (V/m) @ t=0.4
-0.5352378779998411
% es.Ey (V/m) @ t=0.4
0.20383460571890333
% es.Ez (V/m) @ t=0.4
-0.4776144520941683
% es.tEx (V/m) @ t=0.4
-0.5352378779998406
% es.tEy (V/m) @ t=0.4
0
% es.tEz (V/m) @ t=0.4
-0.4776144520941692
% V (V) @ t=0.4
0.007608563077326974
% es.normE (V/m) @ t=0.42
0.7546429446227707
% es.EX (V/m) @ t=0.42
-0.5402570932555467
% es.EY (V/m) @ t=0.42
0.20574578256615617
% es.EZ (V/m) @ t=0.42
-0.4820933314647107
% es.tEX (V/m) @ t=0.42
-0.5402570932555457
% es.tEY (V/m) @ t=0.42
0
% es.tEZ (V/m) @ t=0.42
-0.48209333146471334
% es.Ex (V/m) @ t=0.42
-0.5402570932555467
% es.Ey (V/m) @ t=0.42
0.20574578256615617
% es.Ez (V/m) @ t=0.42
-0.4820933314647107
% es.tEx (V/m) @ t=0.42
-0.5402570932555457
% es.tEy (V/m) @ t=0.42
0
% es.tEz (V/m) @ t=0.42
-0.48209333146471334
% V (V) @ t=0.42
0.007679921896739517
% es.normE (V/m) @ t=0.44
0.7616538161372689
% es.EX (V/m) @ t=0.44
-0.5452763085112479
% es.EY (V/m) @ t=0.44
0.20765695941340834
% es.EZ (V/m) @ t=0.44
-0.4865722108352655
% es.tEX (V/m) @ t=0.44
-0.5452763085112469
% es.tEY (V/m) @ t=0.44
0
% es.tEZ (V/m) @ t=0.44
-0.4865722108352646
% es.Ex (V/m) @ t=0.44
-0.5452763085112479
% es.Ey (V/m) @ t=0.44
0.20765695941340834
% es.Ez (V/m) @ t=0.44
-0.4865722108352655
% es.tEx (V/m) @ t=0.44
-0.5452763085112469
% es.tEy (V/m) @ t=0.44
0
% es.tEz (V/m) @ t=0.44
-0.4865722108352646
% V (V) @ t=0.44
0.007751280716152059
% es.normE (V/m) @ t=0.46
0.7686646876519552
% es.EX (V/m) @ t=0.46
-0.5502955237669572
% es.EY (V/m) @ t=0.46
0.2095681362606563
% es.EZ (V/m) @ t=0.46
-0.49105109020581583
% es.tEX (V/m) @ t=0.46
-0.5502955237669567
% es.tEY (V/m) @ t=0.46
0
% es.tEZ (V/m) @ t=0.46
-0.4910510902058167
% es.Ex (V/m) @ t=0.46
-0.5502955237669572
% es.Ey (V/m) @ t=0.46
0.2095681362606563
% es.Ez (V/m) @ t=0.46
-0.49105109020581583
% es.tEx (V/m) @ t=0.46
-0.5502955237669567
% es.tEy (V/m) @ t=0.46
0
% es.tEz (V/m) @ t=0.46
-0.4910510902058167
% V (V) @ t=0.46
0.0078226395355646
% es.normE (V/m) @ t=0.48
0.7756755591668131
% es.EX (V/m) @ t=0.48
-0.5553147390226552
% es.EY (V/m) @ t=0.48
0.2114793131078958
% es.EZ (V/m) @ t=0.48
-0.4955299695763635
% es.tEX (V/m) @ t=0.48
-0.5553147390226545
% es.tEY (V/m) @ t=0.48
0
% es.tEZ (V/m) @ t=0.48
-0.49552996957636974
% es.Ex (V/m) @ t=0.48
-0.5553147390226552
% es.Ey (V/m) @ t=0.48
0.2114793131078958
% es.Ez (V/m) @ t=0.48
-0.4955299695763635
% es.tEx (V/m) @ t=0.48
-0.5553147390226545
% es.tEy (V/m) @ t=0.48
0
% es.tEz (V/m) @ t=0.48
-0.49552996957636974
% V (V) @ t=0.48
0.007893998354977142
% es.normE (V/m) @ t=0.5
0.7826864306818615
% es.EX (V/m) @ t=0.5
-0.5603339542783626
% es.EY (V/m) @ t=0.5
0.21339048995514975
% es.EZ (V/m) @ t=0.5
-0.5000088489469152
% es.tEX (V/m) @ t=0.5
-0.5603339542783616
% es.tEY (V/m) @ t=0.5
0
% es.tEZ (V/m) @ t=0.5
-0.5000088489469103
% es.Ex (V/m) @ t=0.5
-0.5603339542783626
% es.Ey (V/m) @ t=0.5
0.21339048995514975
% es.Ez (V/m) @ t=0.5
-0.5000088489469152
% es.tEx (V/m) @ t=0.5
-0.5603339542783616
% es.tEy (V/m) @ t=0.5
0
% es.tEz (V/m) @ t=0.5
-0.5000088489469103
% V (V) @ t=0.5
0.007965357174389684
% es.normE (V/m) @ t=0.52
0.7896973021970771
% es.EX (V/m) @ t=0.52
-0.5653531695340638
% es.EY (V/m) @ t=0.52
0.21530166680240304
% es.EZ (V/m) @ t=0.52
-0.5044877283174651
% es.tEX (V/m) @ t=0.52
-0.5653531695340623
% es.tEY (V/m) @ t=0.52
0
% es.tEZ (V/m) @ t=0.52
-0.5044877283174696
% es.Ex (V/m) @ t=0.52
-0.5653531695340638
% es.Ey (V/m) @ t=0.52
0.21530166680240304
% es.Ez (V/m) @ t=0.52
-0.5044877283174651
% es.tEx (V/m) @ t=0.52
-0.5653531695340623
% es.tEy (V/m) @ t=0.52
0
% es.tEz (V/m) @ t=0.52
-0.5044877283174696
% V (V) @ t=0.52
0.008036715993802226
% es.normE (V/m) @ t=0.54
0.7967081737124544
% es.EX (V/m) @ t=0.54
-0.5703723847897623
% es.EY (V/m) @ t=0.54
0.21721284364963833
% es.EZ (V/m) @ t=0.54
-0.508966607688015
% es.tEX (V/m) @ t=0.54
-0.5703723847897635
% es.tEY (V/m) @ t=0.54
0
% es.tEZ (V/m) @ t=0.54
-0.5089666076880173
% es.Ex (V/m) @ t=0.54
-0.5703723847897623
% es.Ey (V/m) @ t=0.54
0.21721284364963833
% es.Ez (V/m) @ t=0.54
-0.508966607688015
% es.tEx (V/m) @ t=0.54
-0.5703723847897635
% es.tEy (V/m) @ t=0.54
0
% es.tEz (V/m) @ t=0.54
-0.5089666076880173
% V (V) @ t=0.54
0.00810807481321477
% es.normE (V/m) @ t=0.56
0.804137124842615
% es.EX (V/m) @ t=0.56
-0.5756909654730787
% es.EY (V/m) @ t=0.56
0.2192377320932939
% es.EZ (V/m) @ t=0.56
-0.5137126533991969
% es.tEX (V/m) @ t=0.56
-0.5756909654730773
% es.tEY (V/m) @ t=0.56
0
% es.tEZ (V/m) @ t=0.56
-0.5137126533991996
% es.Ex (V/m) @ t=0.56
-0.5756909654730787
% es.Ey (V/m) @ t=0.56
0.2192377320932939
% es.Ez (V/m) @ t=0.56
-0.5137126533991969
% es.tEx (V/m) @ t=0.56
-0.5756909654730773
% es.tEy (V/m) @ t=0.56
0
% es.tEz (V/m) @ t=0.56
-0.5137126533991996
% V (V) @ t=0.56
0.008183698610173514
% es.normE (V/m) @ t=0.58
0.811971232525276
% es.EX (V/m) @ t=0.58
-0.5812996580393537
% es.EY (V/m) @ t=0.58
0.2213728172474123
% es.EZ (V/m) @ t=0.58
-0.5187176071972806
% es.tEX (V/m) @ t=0.58
-0.5812996580393521
% es.tEY (V/m) @ t=0.58
0
% es.tEZ (V/m) @ t=0.58
-0.518717607197285
% es.Ex (V/m) @ t=0.58
-0.5812996580393537
% es.Ey (V/m) @ t=0.58
0.2213728172474123
% es.Ez (V/m) @ t=0.58
-0.5187176071972806
% es.tEx (V/m) @ t=0.58
-0.5812996580393521
% es.tEy (V/m) @ t=0.58
0
% es.tEz (V/m) @ t=0.58
-0.518717607197285
% V (V) @ t=0.58
0.008263455551953349
% es.normE (V/m) @ t=0.6
0.8198053402094598
% es.EX (V/m) @ t=0.6
-0.5869083506056301
% es.EY (V/m) @ t=0.6
0.22350790240153362
% es.EZ (V/m) @ t=0.6
-0.523722560995362
% es.tEX (V/m) @ t=0.6
-0.5869083506056294
% es.tEY (V/m) @ t=0.6
0
% es.tEZ (V/m) @ t=0.6
-0.523722560995366
% es.Ex (V/m) @ t=0.6
-0.5869083506056301
% es.Ey (V/m) @ t=0.6
0.22350790240153362
% es.Ez (V/m) @ t=0.6
-0.523722560995362
% es.tEx (V/m) @ t=0.6
-0.5869083506056294
% es.tEy (V/m) @ t=0.6
0
% es.tEz (V/m) @ t=0.6
-0.523722560995366
% V (V) @ t=0.6
0.008343212493733182
% es.normE (V/m) @ t=0.62
0.8276394478951179
% es.EX (V/m) @ t=0.62
-0.5925170431719091
% es.EY (V/m) @ t=0.62
0.22564298755565226
% es.EZ (V/m) @ t=0.62
-0.528727514793434
% es.tEX (V/m) @ t=0.62
-0.5925170431719076
% es.tEY (V/m) @ t=0.62
0
% es.tEZ (V/m) @ t=0.62
-0.5287275147934398
% es.Ex (V/m) @ t=0.62
-0.5925170431719091
% es.Ey (V/m) @ t=0.62
0.22564298755565226
% es.Ez (V/m) @ t=0.62
-0.528727514793434
% es.tEx (V/m) @ t=0.62
-0.5925170431719076
% es.tEy (V/m) @ t=0.62
0
% es.tEz (V/m) @ t=0.62
-0.5287275147934398
% V (V) @ t=0.62
0.008422969435513017
% es.normE (V/m) @ t=0.64
0.8354735555822167
% es.EX (V/m) @ t=0.64
-0.5981257357381784
% es.EY (V/m) @ t=0.64
0.22777807270976735
% es.EZ (V/m) @ t=0.64
-0.533732468591519
% es.tEX (V/m) @ t=0.64
-0.5981257357381773
% es.tEY (V/m) @ t=0.64
0
% es.tEZ (V/m) @ t=0.64
-0.5337324685915243
% es.Ex (V/m) @ t=0.64
-0.5981257357381784
% es.Ey (V/m) @ t=0.64
0.22777807270976735
% es.Ez (V/m) @ t=0.64
-0.533732468591519
% es.tEx (V/m) @ t=0.64
-0.5981257357381773
% es.tEy (V/m) @ t=0.64
0
% es.tEz (V/m) @ t=0.64
-0.5337324685915243
% V (V) @ t=0.64
0.00850272637729285
% es.normE (V/m) @ t=0.66
0.8433076632707066
% es.EX (V/m) @ t=0.66
-0.6037344283044604
% es.EY (V/m) @ t=0.66
0.2299131578638849
% es.EZ (V/m) @ t=0.66
-0.5387374223895818
% es.tEX (V/m) @ t=0.66
-0.603734428304459
% es.tEY (V/m) @ t=0.66
0
% es.tEZ (V/m) @ t=0.66
-0.538737422389592
% es.Ex (V/m) @ t=0.66
-0.6037344283044604
% es.Ey (V/m) @ t=0.66
0.2299131578638849
% es.Ez (V/m) @ t=0.66
-0.5387374223895818
% es.tEx (V/m) @ t=0.66
-0.603734428304459
% es.tEy (V/m) @ t=0.66
0
% es.tEz (V/m) @ t=0.66
-0.538737422389592
% V (V) @ t=0.66
0.008582483319072685
% es.normE (V/m) @ t=0.68
0.8511417709605639
% es.EX (V/m) @ t=0.68
-0.6093431208707306
% es.EY (V/m) @ t=0.68
0.23204824301800064
% es.EZ (V/m) @ t=0.68
-0.5437423761876703
% es.tEX (V/m) @ t=0.68
-0.6093431208707296
% es.tEY (V/m) @ t=0.68
0
% es.tEZ (V/m) @ t=0.68
-0.543742376187673
% es.Ex (V/m) @ t=0.68
-0.6093431208707306
% es.Ey (V/m) @ t=0.68
0.23204824301800064
% es.Ez (V/m) @ t=0.68
-0.5437423761876703
% es.tEx (V/m) @ t=0.68
-0.6093431208707296
% es.tEy (V/m) @ t=0.68
0
% es.tEz (V/m) @ t=0.68
-0.543742376187673
% V (V) @ t=0.68
0.008662240260852518
% es.normE (V/m) @ t=0.7
0.8589758786517401
% es.EX (V/m) @ t=0.7
-0.614951813437007
% es.EY (V/m) @ t=0.7
0.23418332817211662
% es.EZ (V/m) @ t=0.7
-0.5487473299857459
% es.tEX (V/m) @ t=0.7
-0.6149518134370038
% es.tEY (V/m) @ t=0.7
0
% es.tEZ (V/m) @ t=0.7
-0.5487473299857504
% es.Ex (V/m) @ t=0.7
-0.614951813437007
% es.Ey (V/m) @ t=0.7
0.23418332817211662
% es.Ez (V/m) @ t=0.7
-0.5487473299857459
% es.tEx (V/m) @ t=0.7
-0.6149518134370038
% es.tEy (V/m) @ t=0.7
0
% es.tEz (V/m) @ t=0.7
-0.5487473299857504
% V (V) @ t=0.7
0.008741997202632353
% es.normE (V/m) @ t=0.72
0.8668099863442071
% es.EX (V/m) @ t=0.72
-0.6205605060032776
% es.EY (V/m) @ t=0.72
0.23631841332622794
% es.EZ (V/m) @ t=0.72
-0.5537522837838358
% es.tEX (V/m) @ t=0.72
-0.6205605060032777
% es.tEY (V/m) @ t=0.72
0
% es.tEZ (V/m) @ t=0.72
-0.5537522837838402
% es.Ex (V/m) @ t=0.72
-0.6205605060032776
% es.Ey (V/m) @ t=0.72
0.23631841332622794
% es.Ez (V/m) @ t=0.72
-0.5537522837838358
% es.tEx (V/m) @ t=0.72
-0.6205605060032777
% es.tEy (V/m) @ t=0.72
0
% es.tEz (V/m) @ t=0.72
-0.5537522837838402
% V (V) @ t=0.72
0.008821754144412186
% es.normE (V/m) @ t=0.74
0.8746440940379241
% es.EX (V/m) @ t=0.74
-0.6261691985695549
% es.EY (V/m) @ t=0.74
0.23845349848035458
% es.EZ (V/m) @ t=0.74
-0.5587572375819101
% es.tEX (V/m) @ t=0.74
-0.6261691985695572
% es.tEY (V/m) @ t=0.74
0
% es.tEZ (V/m) @ t=0.74
-0.5587572375819141
% es.Ex (V/m) @ t=0.74
-0.6261691985695549
% es.Ey (V/m) @ t=0.74
0.23845349848035458
% es.Ez (V/m) @ t=0.74
-0.5587572375819101
% es.tEx (V/m) @ t=0.74
-0.6261691985695572
% es.tEy (V/m) @ t=0.74
0
% es.tEz (V/m) @ t=0.74
-0.5587572375819141
% V (V) @ t=0.74
0.008901511086192021
% es.normE (V/m) @ t=0.76
0.8824782017328638
% es.EX (V/m) @ t=0.76
-0.6317778911358359
% es.EY (V/m) @ t=0.76
0.24058858363446411
% es.EZ (V/m) @ t=0.76
-0.5637621913799937
% es.tEX (V/m) @ t=0.76
-0.6317778911358367
% es.tEY (V/m) @ t=0.76
0
% es.tEZ (V/m) @ t=0.76
-0.5637621913799995
% es.Ex (V/m) @ t=0.76
-0.6317778911358359
% es.Ey (V/m) @ t=0.76
0.24058858363446411
% es.Ez (V/m) @ t=0.76
-0.5637621913799937
% es.tEx (V/m) @ t=0.76
-0.6317778911358367
% es.tEy (V/m) @ t=0.76
0
% es.tEz (V/m) @ t=0.76
-0.5637621913799995
% V (V) @ t=0.76
0.008981268027971855
% es.normE (V/m) @ t=0.78
0.8903123094289775
% es.EX (V/m) @ t=0.78
-0.6373865837021139
% es.EY (V/m) @ t=0.78
0.24272366878858742
% es.EZ (V/m) @ t=0.78
-0.5687671451780569
% es.tEX (V/m) @ t=0.78
-0.6373865837021162
% es.tEY (V/m) @ t=0.78
0
% es.tEZ (V/m) @ t=0.78
-0.5687671451780574
% es.Ex (V/m) @ t=0.78
-0.6373865837021139
% es.Ey (V/m) @ t=0.78
0.24272366878858742
% es.Ez (V/m) @ t=0.78
-0.5687671451780569
% es.tEx (V/m) @ t=0.78
-0.6373865837021162
% es.tEy (V/m) @ t=0.78
0
% es.tEz (V/m) @ t=0.78
-0.5687671451780574
% V (V) @ t=0.78
0.009061024969751688
% es.normE (V/m) @ t=0.8
0.8981464171262521
% es.EX (V/m) @ t=0.8
-0.6429952762683843
% es.EY (V/m) @ t=0.8
0.24485875394269785
% es.EZ (V/m) @ t=0.8
-0.5737720989761406
% es.tEX (V/m) @ t=0.8
-0.6429952762683815
% es.tEY (V/m) @ t=0.8
0
% es.tEZ (V/m) @ t=0.8
-0.5737720989761472
% es.Ex (V/m) @ t=0.8
-0.6429952762683843
% es.Ey (V/m) @ t=0.8
0.24485875394269785
% es.Ez (V/m) @ t=0.8
-0.5737720989761406
% es.tEx (V/m) @ t=0.8
-0.6429952762683815
% es.tEy (V/m) @ t=0.8
0
% es.tEz (V/m) @ t=0.8
-0.5737720989761472
% V (V) @ t=0.8
0.009140781911531523
% es.normE (V/m) @ t=0.82
0.9059805248246537
% es.EX (V/m) @ t=0.82
-0.6486039688346544
% es.EY (V/m) @ t=0.82
0.24699383909682338
% es.EZ (V/m) @ t=0.82
-0.5787770527742215
% es.tEX (V/m) @ t=0.82
-0.648603968834657
% es.tEY (V/m) @ t=0.82
0
% es.tEZ (V/m) @ t=0.82
-0.5787770527742317
% es.Ex (V/m) @ t=0.82
-0.6486039688346544
% es.Ey (V/m) @ t=0.82
0.24699383909682338
% es.Ez (V/m) @ t=0.82
-0.5787770527742215
% es.tEx (V/m) @ t=0.82
-0.648603968834657
% es.tEy (V/m) @ t=0.82
0
% es.tEz (V/m) @ t=0.82
-0.5787770527742317
% V (V) @ t=0.82
0.009220538853311356
% es.normE (V/m) @ t=0.84
0.9145306625537282
% es.EX (V/m) @ t=0.84
-0.6547249720575186
% es.EY (V/m) @ t=0.84
0.2493255821743543
% es.EZ (V/m) @ t=0.84
-0.5842390011352827
% es.tEX (V/m) @ t=0.84
-0.6547249720575192
% es.tEY (V/m) @ t=0.84
0
% es.tEZ (V/m) @ t=0.84
-0.5842390011352849
% es.Ex (V/m) @ t=0.84
-0.6547249720575186
% es.Ey (V/m) @ t=0.84
0.2493255821743543
% es.Ez (V/m) @ t=0.84
-0.5842390011352827
% es.tEx (V/m) @ t=0.84
-0.6547249720575192
% es.tEy (V/m) @ t=0.84
0
% es.tEz (V/m) @ t=0.84
-0.5842390011352849
% V (V) @ t=0.84
0.009307529064835004
% es.normE (V/m) @ t=0.86
0.9232985533348042
% es.EX (V/m) @ t=0.86
-0.6610017749018451
% es.EY (V/m) @ t=0.86
0.25171713121067496
% es.EZ (V/m) @ t=0.86
-0.5898399268511914
% es.tEX (V/m) @ t=0.86
-0.6610017749018455
% es.tEY (V/m) @ t=0.86
0
% es.tEZ (V/m) @ t=0.86
-0.5898399268511882
% es.Ex (V/m) @ t=0.86
-0.6610017749018451
% es.Ey (V/m) @ t=0.86
0.25171713121067496
% es.Ez (V/m) @ t=0.86
-0.5898399268511914
% es.tEx (V/m) @ t=0.86
-0.6610017749018455
% es.tEy (V/m) @ t=0.86
0
% es.tEz (V/m) @ t=0.86
-0.5898399268511882
% V (V) @ t=0.86
0.009396718997706374
% es.normE (V/m) @ t=0.88
0.9320664441189529
% es.EX (V/m) @ t=0.88
-0.6672785777461752
% es.EY (V/m) @ t=0.88
0.25410868024701316
% es.EZ (V/m) @ t=0.88
-0.5954408525670951
% es.tEX (V/m) @ t=0.88
-0.6672785777461776
% es.tEY (V/m) @ t=0.88
0
% es.tEZ (V/m) @ t=0.88
-0.5954408525670916
% es.Ex (V/m) @ t=0.88
-0.6672785777461752
% es.Ey (V/m) @ t=0.88
0.25410868024701316
% es.Ez (V/m) @ t=0.88
-0.5954408525670951
% es.tEx (V/m) @ t=0.88
-0.6672785777461776
% es.tEy (V/m) @ t=0.88
0
% es.tEz (V/m) @ t=0.88
-0.5954408525670916
% V (V) @ t=0.88
0.009485908930577746
% es.normE (V/m) @ t=0.9
0.9408343349060846
% es.EX (V/m) @ t=0.9
-0.6735553805904917
% es.EY (V/m) @ t=0.9
0.2565002292833407
% es.EZ (V/m) @ t=0.9
-0.6010417782830197
% es.tEX (V/m) @ t=0.9
-0.6735553805904875
% es.tEY (V/m) @ t=0.9
0
% es.tEZ (V/m) @ t=0.9
-0.6010417782830171
% es.Ex (V/m) @ t=0.9
-0.6735553805904917
% es.Ey (V/m) @ t=0.9
0.2565002292833407
% es.Ez (V/m) @ t=0.9
-0.6010417782830197
% es.tEx (V/m) @ t=0.9
-0.6735553805904875
% es.tEy (V/m) @ t=0.9
0
% es.tEz (V/m) @ t=0.9
-0.6010417782830171
% V (V) @ t=0.9
0.009575098863449117
% es.normE (V/m) @ t=0.92
0.9496022256961159
% es.EX (V/m) @ t=0.92
-0.6798321834348233
% es.EY (V/m) @ t=0.92
0.2588917783196709
% es.EZ (V/m) @ t=0.92
-0.6066427039989244
% es.tEX (V/m) @ t=0.92
-0.6798321834348204
% es.tEY (V/m) @ t=0.92
0
% es.tEZ (V/m) @ t=0.92
-0.6066427039989204
% es.Ex (V/m) @ t=0.92
-0.6798321834348233
% es.Ey (V/m) @ t=0.92
0.2588917783196709
% es.Ez (V/m) @ t=0.92
-0.6066427039989244
% es.tEx (V/m) @ t=0.92
-0.6798321834348204
% es.tEy (V/m) @ t=0.92
0
% es.tEz (V/m) @ t=0.92
-0.6066427039989204
% V (V) @ t=0.92
0.009664288796320485
% es.normE (V/m) @ t=0.94
0.9583701164889535
% es.EX (V/m) @ t=0.94
-0.6861089862791443
% es.EY (V/m) @ t=0.94
0.2612833273559969
% es.EZ (V/m) @ t=0.94
-0.6122436297148233
% es.tEX (V/m) @ t=0.94
-0.6861089862791432
% es.tEY (V/m) @ t=0.94
0
% es.tEZ (V/m) @ t=0.94
-0.6122436297148228
% es.Ex (V/m) @ t=0.94
-0.6861089862791443
% es.Ey (V/m) @ t=0.94
0.2612833273559969
% es.Ez (V/m) @ t=0.94
-0.6122436297148233
% es.tEx (V/m) @ t=0.94
-0.6861089862791432
% es.tEy (V/m) @ t=0.94
0
% es.tEz (V/m) @ t=0.94
-0.6122436297148228
% V (V) @ t=0.94
0.009753478729191857
% es.normE (V/m) @ t=0.96
0.9671380072845456
% es.EX (V/m) @ t=0.96
-0.692385789123467
% es.EY (V/m) @ t=0.96
0.2636748763923318
% es.EZ (V/m) @ t=0.96
-0.617844555430731
% es.tEX (V/m) @ t=0.96
-0.6923857891234624
% es.tEY (V/m) @ t=0.96
0
% es.tEZ (V/m) @ t=0.96
-0.6178445554307261
% es.Ex (V/m) @ t=0.96
-0.692385789123467
% es.Ey (V/m) @ t=0.96
0.2636748763923318
% es.Ez (V/m) @ t=0.96
-0.617844555430731
% es.tEx (V/m) @ t=0.96
-0.6923857891234624
% es.tEy (V/m) @ t=0.96
0
% es.tEz (V/m) @ t=0.96
-0.6178445554307261
% V (V) @ t=0.96
0.009842668662063228
% es.normE (V/m) @ t=0.98
0.9759058980828119
% es.EX (V/m) @ t=0.98
-0.6986625919677882
% es.EY (V/m) @ t=0.98
0.26606642542866554
% es.EZ (V/m) @ t=0.98
-0.623445481146649
% es.tEX (V/m) @ t=0.98
-0.6986625919677922
% es.tEY (V/m) @ t=0.98
0
% es.tEZ (V/m) @ t=0.98
-0.6234454811466508
% es.Ex (V/m) @ t=0.98
-0.6986625919677882
% es.Ey (V/m) @ t=0.98
0.26606642542866554
% es.Ez (V/m) @ t=0.98
-0.623445481146649
% es.tEx (V/m) @ t=0.98
-0.6986625919677922
% es.tEy (V/m) @ t=0.98
0
% es.tEz (V/m) @ t=0.98
-0.6234454811466508
% V (V) @ t=0.98
0.009931858594934596
% es.normE (V/m) @ t=1
0.9846737888836691
% es.EX (V/m) @ t=1
-0.7049393948121154
% es.EY (V/m) @ t=1
0.2684579744649913
% es.EZ (V/m) @ t=1
-0.6290464068625523
% es.tEX (V/m) @ t=1
-0.7049393948121145
% es.tEY (V/m) @ t=1
0
% es.tEZ (V/m) @ t=1
-0.6290464068625479
% es.Ex (V/m) @ t=1
-0.7049393948121154
% es.Ey (V/m) @ t=1
0.2684579744649913
% es.Ez (V/m) @ t=1
-0.6290464068625523
% es.tEx (V/m) @ t=1
-0.7049393948121145
% es.tEy (V/m) @ t=1
0
% es.tEz (V/m) @ t=1
-0.6290464068625479
% V (V) @ t=1
0.010021048527805968
% es.normE (V/m) @ t=1.02
0.9934416796870604
% es.EX (V/m) @ t=1.02
-0.7112161976564331
% es.EY (V/m) @ t=1.02
0.2708495235013313
% es.EZ (V/m) @ t=1.02
-0.6346473325784658
% es.tEX (V/m) @ t=1.02
-0.7112161976564306
% es.tEY (V/m) @ t=1.02
0
% es.tEZ (V/m) @ t=1.02
-0.6346473325784654
% es.Ex (V/m) @ t=1.02
-0.7112161976564331
% es.Ey (V/m) @ t=1.02
0.2708495235013313
% es.Ez (V/m) @ t=1.02
-0.6346473325784658
% es.tEx (V/m) @ t=1.02
-0.7112161976564306