% Model:              1 neuron.mph
% Version:            COMSOL 6.0.0.405
% Date:               Mar 9 2023, 13:15
% Dimension:          0
% Nodes:              14017
% Expressions:        14017
% Description:        Electric field norm, Electric field, X component, Electric field, Y component, Electric field, Z component, Tangential electric field, X component, Tangential electric field, Y component, Tangential electric field, Z component, Electric field, x component, Electric field, y component, Electric field, z component, Tangential electric field, x component, Tangential electric field, y component, Tangential electric field, z component, Electric potential
% Length unit:        mm
% x
1.66
% y
12.2
% z
1
% es.normE (V/m) @ t=0
1.498537234265204
% es.EX (V/m) @ t=0
-0.534132724936428
% es.EY (V/m) @ t=0
0.16969233086976232
% es.EZ (V/m) @ t=0
1.3854869906152891
% es.tEX (V/m) @ t=0
-0.5341327249364352
% es.tEY (V/m) @ t=0
0
% es.tEZ (V/m) @ t=0
1.385486990615294
% es.Ex (V/m) @ t=0
-0.534132724936428
% es.Ey (V/m) @ t=0
0.16969233086976232
% es.Ez (V/m) @ t=0
1.3854869906152891
% es.tEx (V/m) @ t=0
-0.5341327249364352
% es.tEy (V/m) @ t=0
0
% es.tEz (V/m) @ t=0
1.385486990615294
% V (V) @ t=0
0.007296061645643072
% es.normE (V/m) @ t=0.02
1.294313876579125
% es.EX (V/m) @ t=0.02
-0.46134015288160735
% es.EY (V/m) @ t=0.02
0.1465663576534355
% es.EZ (V/m) @ t=0.02
1.1966703241304582
% es.tEX (V/m) @ t=0.02
-0.4613401528816127
% es.tEY (V/m) @ t=0.02
0
% es.tEZ (V/m) @ t=0.02
1.1966703241304595
% es.Ex (V/m) @ t=0.02
-0.46134015288160735
% es.Ey (V/m) @ t=0.02
0.1465663576534355
% es.Ez (V/m) @ t=0.02
1.1966703241304582
% es.tEx (V/m) @ t=0.02
-0.4613401528816127
% es.tEy (V/m) @ t=0.02
0
% es.tEz (V/m) @ t=0.02
1.1966703241304595
% V (V) @ t=0.02
0.006301741033904946
% es.normE (V/m) @ t=0.04
1.3062165288015772
% es.EX (V/m) @ t=0.04
-0.4655826828743038
% es.EY (V/m) @ t=0.04
0.1479142231799251
% es.EZ (V/m) @ t=0.04
1.2076750358319268
% es.tEX (V/m) @ t=0.04
-0.4655826828743127
% es.tEY (V/m) @ t=0.04
0
% es.tEZ (V/m) @ t=0.04
1.2076750358319277
% es.Ex (V/m) @ t=0.04
-0.4655826828743038
% es.Ey (V/m) @ t=0.04
0.1479142231799251
% es.Ez (V/m) @ t=0.04
1.2076750358319268
% es.tEx (V/m) @ t=0.04
-0.4655826828743127
% es.tEy (V/m) @ t=0.04
0
% es.tEz (V/m) @ t=0.04
1.2076750358319277
% V (V) @ t=0.04
0.006359691420707081
% es.normE (V/m) @ t=0.06
1.318233113191138
% es.EX (V/m) @ t=0.06
-0.4698658195802854
% es.EY (V/m) @ t=0.06
0.1492750049365239
% es.EZ (V/m) @ t=0.06
1.2187850848262247
% es.tEX (V/m) @ t=0.06
-0.4698658195802943
% es.tEY (V/m) @ t=0.06
0
% es.tEZ (V/m) @ t=0.06
1.2187850848262256
% es.Ex (V/m) @ t=0.06
-0.4698658195802854
% es.Ey (V/m) @ t=0.06
0.1492750049365239
% es.Ez (V/m) @ t=0.06
1.2187850848262247
% es.tEx (V/m) @ t=0.06
-0.4698658195802943
% es.tEy (V/m) @ t=0.06
0
% es.tEz (V/m) @ t=0.06
1.2187850848262256
% V (V) @ t=0.06
0.006418195856664874
% es.normE (V/m) @ t=0.08
1.3304173232538847
% es.EX (V/m) @ t=0.08
-0.47420871138824827
% es.EY (V/m) @ t=0.08
0.15065472860098605
% es.EZ (V/m) @ t=0.08
1.2300501132926307
% es.tEX (V/m) @ t=0.08
-0.4742087113882554
% es.tEY (V/m) @ t=0.08
0
% es.tEZ (V/m) @ t=0.08
1.2300501132926316
% es.Ex (V/m) @ t=0.08
-0.47420871138824827
% es.Ey (V/m) @ t=0.08
0.15065472860098605
% es.Ez (V/m) @ t=0.08
1.2300501132926307
% es.tEx (V/m) @ t=0.08
-0.4742087113882554
% es.tEy (V/m) @ t=0.08
0
% es.tEz (V/m) @ t=0.08
1.2300501132926316
% V (V) @ t=0.08
0.006477518184441383
% es.normE (V/m) @ t=0.1
1.3427508436475182
% es.EX (V/m) @ t=0.1
-0.47860482925567316
% es.EY (V/m) @ t=0.1
0.1520513245170395
% es.EZ (V/m) @ t=0.1
1.2414531876551207
% es.tEX (V/m) @ t=0.1
-0.47860482925568026
% es.tEY (V/m) @ t=0.1
0
% es.tEZ (V/m) @ t=0.1
1.2414531876551216
% es.Ex (V/m) @ t=0.1
-0.47860482925567316
% es.Ey (V/m) @ t=0.1
0.1520513245170395
% es.Ez (V/m) @ t=0.1
1.2414531876551207
% es.tEx (V/m) @ t=0.1
-0.47860482925568026
% es.tEy (V/m) @ t=0.1
0
% es.tEz (V/m) @ t=0.1
1.2414531876551216
% V (V) @ t=0.1
0.006537569038438019
% es.normE (V/m) @ t=0.12
1.3550843640411454
% es.EX (V/m) @ t=0.12
-0.4830009471230875
% es.EY (V/m) @ t=0.12
0.15344792043308197
% es.EZ (V/m) @ t=0.12
1.2528562620176062
% es.tEX (V/m) @ t=0.12
-0.4830009471230946
% es.tEY (V/m) @ t=0.12
0
% es.tEZ (V/m) @ t=0.12
1.2528562620176071
% es.Ex (V/m) @ t=0.12
-0.4830009471230875
% es.Ey (V/m) @ t=0.12
0.15344792043308197
% es.Ez (V/m) @ t=0.12
1.2528562620176062
% es.tEx (V/m) @ t=0.12
-0.4830009471230946
% es.tEy (V/m) @ t=0.12
0
% es.tEz (V/m) @ t=0.12
1.2528562620176071
% V (V) @ t=0.12
0.006597619892434655
% es.normE (V/m) @ t=0.14
1.3674633926436686
% es.EX (V/m) @ t=0.14
-0.48741328370454295
% es.EY (V/m) @ t=0.14
0.15484968118768216
% es.EZ (V/m) @ t=0.14
1.2643014115443956
% es.tEX (V/m) @ t=0.14
-0.48741328370455184
% es.tEY (V/m) @ t=0.14
0
% es.tEZ (V/m) @ t=0.14
1.2643014115443956
% es.Ex (V/m) @ t=0.14
-0.48741328370454295
% es.Ey (V/m) @ t=0.14
0.15484968118768216
% es.Ez (V/m) @ t=0.14
1.2643014115443956
% es.tEx (V/m) @ t=0.14
-0.48741328370455184
% es.tEy (V/m) @ t=0.14
0
% es.tEz (V/m) @ t=0.14
1.2643014115443956
% V (V) @ t=0.14
0.006657891811698018
% es.normE (V/m) @ t=0.16
1.3804668575992487
% es.EX (V/m) @ t=0.16
-0.4920481637542352
% es.EY (V/m) @ t=0.16
0.15632231075978054
% es.EZ (V/m) @ t=0.16
1.2763238912450836
% es.tEX (V/m) @ t=0.16
-0.49204816375423877
% es.tEY (V/m) @ t=0.16
0
% es.tEZ (V/m) @ t=0.16
1.2763238912450845
% es.Ex (V/m) @ t=0.16
-0.4920481637542352
% es.Ey (V/m) @ t=0.16
0.15632231075978054
% es.Ez (V/m) @ t=0.16
1.2763238912450836
% es.tEx (V/m) @ t=0.16
-0.49204816375423877
% es.tEy (V/m) @ t=0.16
0
% es.tEz (V/m) @ t=0.16
1.2763238912450845
% V (V) @ t=0.16
0.006721197055987975
% es.normE (V/m) @ t=0.18
1.393470322554847
% es.EX (V/m) @ t=0.18
-0.49668304380392914
% es.EY (V/m) @ t=0.18
0.15779494033187114
% es.EZ (V/m) @ t=0.18
1.2883463709457672
% es.tEX (V/m) @ t=0.18
-0.49668304380393624
% es.tEY (V/m) @ t=0.18
0
% es.tEZ (V/m) @ t=0.18
1.288346370945768
% es.Ex (V/m) @ t=0.18
-0.49668304380392914
% es.Ey (V/m) @ t=0.18
0.15779494033187114
% es.Ez (V/m) @ t=0.18
1.2883463709457672
% es.tEx (V/m) @ t=0.18
-0.49668304380393624
% es.tEy (V/m) @ t=0.18
0
% es.tEz (V/m) @ t=0.18
1.288346370945768
% V (V) @ t=0.18
0.006784502300277929
% es.normE (V/m) @ t=0.2
1.4064737875104665
% es.EX (V/m) @ t=0.2
-0.5013179238536196
% es.EY (V/m) @ t=0.2
0.15926756990397672
% es.EZ (V/m) @ t=0.2
1.3003688506464508
% es.tEX (V/m) @ t=0.2
-0.5013179238536267
% es.tEY (V/m) @ t=0.2
0
% es.tEZ (V/m) @ t=0.2
1.3003688506464526
% es.Ex (V/m) @ t=0.2
-0.5013179238536196
% es.Ey (V/m) @ t=0.2
0.15926756990397672
% es.Ez (V/m) @ t=0.2
1.3003688506464508
% es.tEx (V/m) @ t=0.2
-0.5013179238536267
% es.tEy (V/m) @ t=0.2
0
% es.tEz (V/m) @ t=0.2
1.3003688506464526
% V (V) @ t=0.2
0.006847807544567884
% es.normE (V/m) @ t=0.22
1.4194772524661063
% es.EX (V/m) @ t=0.22
-0.505952803903319
% es.EY (V/m) @ t=0.22
0.16074019947606344
% es.EZ (V/m) @ t=0.22
1.3123913303471326
% es.tEX (V/m) @ t=0.22
-0.5059528039033279
% es.tEY (V/m) @ t=0.22
0
% es.tEZ (V/m) @ t=0.22
1.3123913303471335
% es.Ex (V/m) @ t=0.22
-0.505952803903319
% es.Ey (V/m) @ t=0.22
0.16074019947606344
% es.Ez (V/m) @ t=0.22
1.3123913303471326
% es.tEx (V/m) @ t=0.22
-0.5059528039033279
% es.tEy (V/m) @ t=0.22
0
% es.tEz (V/m) @ t=0.22
1.3123913303471335
% V (V) @ t=0.22
0.00691111278885784
% es.normE (V/m) @ t=0.24
1.4324807174217744
% es.EX (V/m) @ t=0.24
-0.5105876839530201
% es.EY (V/m) @ t=0.24
0.16221282904815382
% es.EZ (V/m) @ t=0.24
1.3244138100478215
% es.tEX (V/m) @ t=0.24
-0.510587683953029
% es.tEY (V/m) @ t=0.24
0
% es.tEZ (V/m) @ t=0.24
1.3244138100478198
% es.Ex (V/m) @ t=0.24
-0.5105876839530201
% es.Ey (V/m) @ t=0.24
0.16221282904815382
% es.Ez (V/m) @ t=0.24
1.3244138100478215
% es.tEx (V/m) @ t=0.24
-0.510587683953029
% es.tEy (V/m) @ t=0.24
0
% es.tEz (V/m) @ t=0.24
1.3244138100478198
% V (V) @ t=0.24
0.006974418033147796
% es.normE (V/m) @ t=0.26
1.4454841823774562
% es.EX (V/m) @ t=0.26
-0.5152225640027072
% es.EY (V/m) @ t=0.26
0.16368545862025397
% es.EZ (V/m) @ t=0.26
1.3364362897485087
% es.tEX (V/m) @ t=0.26
-0.5152225640027089
% es.tEY (V/m) @ t=0.26
0
% es.tEZ (V/m) @ t=0.26
1.3364362897485105
% es.Ex (V/m) @ t=0.26
-0.5152225640027072
% es.Ey (V/m) @ t=0.26
0.16368545862025397
% es.Ez (V/m) @ t=0.26
1.3364362897485087
% es.tEx (V/m) @ t=0.26
-0.5152225640027089
% es.tEy (V/m) @ t=0.26
0
% es.tEz (V/m) @ t=0.26
1.3364362897485105
% V (V) @ t=0.26
0.007037723277437751
% es.normE (V/m) @ t=0.28
1.4587093916132774
% es.EX (V/m) @ t=0.28
-0.5199365225867629
% es.EY (V/m) @ t=0.28
0.16518296240070252
% es.EZ (V/m) @ t=0.28
1.3486637833075292
% es.tEX (V/m) @ t=0.28
-0.5199365225867718
% es.tEY (V/m) @ t=0.28
0
% es.tEZ (V/m) @ t=0.28
1.348663783307532
% es.Ex (V/m) @ t=0.28
-0.5199365225867629
% es.Ey (V/m) @ t=0.28
0.16518296240070252
% es.Ez (V/m) @ t=0.28
1.3486637833075292
% es.tEx (V/m) @ t=0.28
-0.5199365225867718
% es.tEy (V/m) @ t=0.28
0
% es.tEz (V/m) @ t=0.28
1.348663783307532
% V (V) @ t=0.28
0.007102118353612696
% es.normE (V/m) @ t=0.3
1.4732316926457538
% es.EX (V/m) @ t=0.3
-0.5251130505684674
% es.EY (V/m) @ t=0.3
0.16682596770913094
% es.EZ (V/m) @ t=0.3
1.362090504162984
% es.tEX (V/m) @ t=0.3
-0.5251130505684762
% es.tEY (V/m) @ t=0.3
0
% es.tEZ (V/m) @ t=0.3
1.3620905041629863
% es.Ex (V/m) @ t=0.3
-0.5251130505684674
% es.Ey (V/m) @ t=0.3
0.16682596770913094
% es.Ez (V/m) @ t=0.3
1.362090504162984
% es.tEx (V/m) @ t=0.3
-0.5251130505684762
% es.tEy (V/m) @ t=0.3
0
% es.tEz (V/m) @ t=0.3
1.3620905041629863
% V (V) @ t=0.3
0.007172888394658848
% es.normE (V/m) @ t=0.32
1.487753993680721
% es.EX (V/m) @ t=0.32
-0.5302895785501736
% es.EY (V/m) @ t=0.32
0.16846897301755537
% es.EZ (V/m) @ t=0.32
1.3755172250184358
% es.tEX (V/m) @ t=0.32
-0.5302895785501807
% es.tEY (V/m) @ t=0.32
0
% es.tEZ (V/m) @ t=0.32
1.375517225018438
% es.Ex (V/m) @ t=0.32
-0.5302895785501736
% es.Ey (V/m) @ t=0.32
0.16846897301755537
% es.Ez (V/m) @ t=0.32
1.3755172250184358
% es.tEx (V/m) @ t=0.32
-0.5302895785501807
% es.tEy (V/m) @ t=0.32
0
% es.tEz (V/m) @ t=0.32
1.375517225018438
% V (V) @ t=0.32
0.0072436584357050025
% es.normE (V/m) @ t=0.34
1.5022762947181147
% es.EX (V/m) @ t=0.34
-0.5354661065318834
% es.EY (V/m) @ t=0.34
0.17011197832598124
% es.EZ (V/m) @ t=0.34
1.3889439458738897
% es.tEX (V/m) @ t=0.34
-0.5354661065318923
% es.tEY (V/m) @ t=0.34
0
% es.tEZ (V/m) @ t=0.34
1.3889439458738897
% es.Ex (V/m) @ t=0.34
-0.5354661065318834
% es.Ey (V/m) @ t=0.34
0.17011197832598124
% es.Ez (V/m) @ t=0.34
1.3889439458738897
% es.tEx (V/m) @ t=0.34
-0.5354661065318923
% es.tEy (V/m) @ t=0.34
0
% es.tEz (V/m) @ t=0.34
1.3889439458738897
% V (V) @ t=0.34
0.007314428476751158
% es.normE (V/m) @ t=0.36
1.5167985957578587
% es.EX (V/m) @ t=0.36
-0.5406426345135825
% es.EY (V/m) @ t=0.36
0.171754983634407
% es.EZ (V/m) @ t=0.36
1.402370666729345
% es.tEX (V/m) @ t=0.36
-0.5406426345135896
% es.tEY (V/m) @ t=0.36
0
% es.tEZ (V/m) @ t=0.36
1.402370666729345
% es.Ex (V/m) @ t=0.36
-0.5406426345135825
% es.Ey (V/m) @ t=0.36
0.171754983634407
% es.Ez (V/m) @ t=0.36
1.402370666729345
% es.tEx (V/m) @ t=0.36
-0.5406426345135896
% es.tEy (V/m) @ t=0.36
0
% es.tEz (V/m) @ t=0.36
1.402370666729345
% V (V) @ t=0.36
0.007385198517797312
% es.normE (V/m) @ t=0.38
1.5313208967998917
% es.EX (V/m) @ t=0.38
-0.5458191624952871
% es.EY (V/m) @ t=0.38
0.17339798894282787
% es.EZ (V/m) @ t=0.38
1.4157973875848024
% es.tEX (V/m) @ t=0.38
-0.5458191624952942
% es.tEY (V/m) @ t=0.38
0
% es.tEZ (V/m) @ t=0.38
1.415797387584802
% es.Ex (V/m) @ t=0.38
-0.5458191624952871
% es.Ey (V/m) @ t=0.38
0.17339798894282787
% es.Ez (V/m) @ t=0.38
1.4157973875848024
% es.tEx (V/m) @ t=0.38
-0.5458191624952942
% es.tEy (V/m) @ t=0.38
0
% es.tEz (V/m) @ t=0.38
1.415797387584802
% V (V) @ t=0.38
0.007455968558843465
% es.normE (V/m) @ t=0.4
1.5458431978441385
% es.EX (V/m) @ t=0.4
-0.5509956904769915
% es.EY (V/m) @ t=0.4
0.17504099425125064
% es.EZ (V/m) @ t=0.4
1.4292241084402528
% es.tEX (V/m) @ t=0.4
-0.5509956904769986
% es.tEY (V/m) @ t=0.4
0
% es.tEZ (V/m) @ t=0.4
1.4292241084402537
% es.Ex (V/m) @ t=0.4
-0.5509956904769915
% es.Ey (V/m) @ t=0.4
0.17504099425125064
% es.Ez (V/m) @ t=0.4
1.4292241084402528
% es.tEx (V/m) @ t=0.4
-0.5509956904769986
% es.tEy (V/m) @ t=0.4
0
% es.tEz (V/m) @ t=0.4
1.4292241084402537
% V (V) @ t=0.4
0.0075267385998896204
% es.normE (V/m) @ t=0.42
1.5603654988905578
% es.EX (V/m) @ t=0.42
-0.5561722184587101
% es.EY (V/m) @ t=0.42
0.1766839995596715
% es.EZ (V/m) @ t=0.42
1.4426508292957116
% es.tEX (V/m) @ t=0.42
-0.5561722184587172
% es.tEY (V/m) @ t=0.42
0
% es.tEZ (V/m) @ t=0.42
1.4426508292957143
% es.Ex (V/m) @ t=0.42
-0.5561722184587101
% es.Ey (V/m) @ t=0.42
0.1766839995596715
% es.Ez (V/m) @ t=0.42
1.4426508292957116
% es.tEx (V/m) @ t=0.42
-0.5561722184587172
% es.tEy (V/m) @ t=0.42
0
% es.tEz (V/m) @ t=0.42
1.4426508292957143
% V (V) @ t=0.42
0.0075975086409357726
% es.normE (V/m) @ t=0.44
1.5748877999390625
% es.EX (V/m) @ t=0.44
-0.5613487464404077
% es.EY (V/m) @ t=0.44
0.17832700486809216
% es.EZ (V/m) @ t=0.44
1.4560775501511625
% es.tEX (V/m) @ t=0.44
-0.5613487464404148
% es.tEY (V/m) @ t=0.44
0
% es.tEZ (V/m) @ t=0.44
1.4560775501511651
% es.Ex (V/m) @ t=0.44
-0.5613487464404077
% es.Ey (V/m) @ t=0.44
0.17832700486809216
% es.Ez (V/m) @ t=0.44
1.4560775501511625
% es.tEx (V/m) @ t=0.44
-0.5613487464404148
% es.tEy (V/m) @ t=0.44
0
% es.tEz (V/m) @ t=0.44
1.4560775501511651
% V (V) @ t=0.44
0.007668278681981927
% es.normE (V/m) @ t=0.46
1.5894101009896142
% es.EX (V/m) @ t=0.46
-0.5665252744221085
% es.EY (V/m) @ t=0.46
0.17997001017652503
% es.EZ (V/m) @ t=0.46
1.4695042710066168
% es.tEX (V/m) @ t=0.46
-0.5665252744221192
% es.tEY (V/m) @ t=0.46
0
% es.tEZ (V/m) @ t=0.46
1.4695042710066186
% es.Ex (V/m) @ t=0.46
-0.5665252744221085
% es.Ey (V/m) @ t=0.46
0.17997001017652503
% es.Ez (V/m) @ t=0.46
1.4695042710066168
% es.tEx (V/m) @ t=0.46
-0.5665252744221192
% es.tEy (V/m) @ t=0.46
0
% es.tEz (V/m) @ t=0.46
1.4695042710066186
% V (V) @ t=0.46
0.007739048723028083
% es.normE (V/m) @ t=0.48
1.6039324020421555
% es.EX (V/m) @ t=0.48
-0.5717018024038165
% es.EY (V/m) @ t=0.48
0.18161301548495123
% es.EZ (V/m) @ t=0.48
1.482930991862073
% es.tEX (V/m) @ t=0.48
-0.5717018024038236
% es.tEY (V/m) @ t=0.48
0
% es.tEZ (V/m) @ t=0.48
1.482930991862073
% es.Ex (V/m) @ t=0.48
-0.5717018024038165
% es.Ey (V/m) @ t=0.48
0.18161301548495123
% es.Ez (V/m) @ t=0.48
1.482930991862073
% es.tEx (V/m) @ t=0.48
-0.5717018024038236
% es.tEy (V/m) @ t=0.48
0
% es.tEz (V/m) @ t=0.48
1.482930991862073
% V (V) @ t=0.48
0.007809818764074237
% es.normE (V/m) @ t=0.5
1.6184547030966239
% es.EX (V/m) @ t=0.5
-0.5768783303855174
% es.EY (V/m) @ t=0.5
0.183256020793365
% es.EZ (V/m) @ t=0.5
1.496357712717527
% es.tEX (V/m) @ t=0.5
-0.576878330385528
% es.tEY (V/m) @ t=0.5
0
% es.tEZ (V/m) @ t=0.5
1.4963577127175265
% es.Ex (V/m) @ t=0.5
-0.5768783303855174
% es.Ey (V/m) @ t=0.5
0.183256020793365
% es.Ez (V/m) @ t=0.5
1.496357712717527
% es.tEx (V/m) @ t=0.5
-0.576878330385528
% es.tEy (V/m) @ t=0.5
0
% es.tEz (V/m) @ t=0.5
1.4963577127175265
% V (V) @ t=0.5
0.00788058880512039
% es.normE (V/m) @ t=0.52
1.632977004152977
% es.EX (V/m) @ t=0.52
-0.5820548583672255
% es.EY (V/m) @ t=0.52
0.18489902610178954
% es.EZ (V/m) @ t=0.52
1.5097844335729795
% es.tEX (V/m) @ t=0.52
-0.5820548583672326
% es.tEY (V/m) @ t=0.52
0
% es.tEZ (V/m) @ t=0.52
1.509784433572979
% es.Ex (V/m) @ t=0.52
-0.5820548583672255
% es.Ey (V/m) @ t=0.52
0.18489902610178954
% es.Ez (V/m) @ t=0.52
1.5097844335729795
% es.tEx (V/m) @ t=0.52
-0.5820548583672326
% es.tEy (V/m) @ t=0.52
0
% es.tEz (V/m) @ t=0.52
1.509784433572979
% V (V) @ t=0.52
0.007951358846166545
% es.normE (V/m) @ t=0.54
1.6474993052111564
% es.EX (V/m) @ t=0.54
-0.5872313863489299
% es.EY (V/m) @ t=0.54
0.18654203141021308
% es.EZ (V/m) @ t=0.54
1.5232111544284286
% es.tEX (V/m) @ t=0.54
-0.587231386348937
% es.tEY (V/m) @ t=0.54
0
% es.tEZ (V/m) @ t=0.54
1.5232111544284281
% es.Ex (V/m) @ t=0.54
-0.5872313863489299
% es.Ey (V/m) @ t=0.54
0.18654203141021308
% es.Ez (V/m) @ t=0.54
1.5232111544284286
% es.tEx (V/m) @ t=0.54
-0.587231386348937
% es.tEy (V/m) @ t=0.54
0
% es.tEz (V/m) @ t=0.54
1.5232111544284281
% V (V) @ t=0.54
0.008022128887212699
% es.normE (V/m) @ t=0.56
1.6625403175662363
% es.EX (V/m) @ t=0.56
-0.5925927830090906
% es.EY (V/m) @ t=0.56
0.18824387930553055
% es.EZ (V/m) @ t=0.56
1.537117455867938
% es.tEX (V/m) @ t=0.56
-0.5925927830090977
% es.tEY (V/m) @ t=0.56
0
% es.tEZ (V/m) @ t=0.56
1.537117455867941
% es.Ex (V/m) @ t=0.56
-0.5925927830090906
% es.Ey (V/m) @ t=0.56
0.18824387930553055
% es.Ez (V/m) @ t=0.56
1.537117455867938
% es.tEx (V/m) @ t=0.56
-0.5925927830090977
% es.tEy (V/m) @ t=0.56
0
% es.tEz (V/m) @ t=0.56
1.537117455867941
% V (V) @ t=0.56
0.008095419822733504
% es.normE (V/m) @ t=0.58
1.678779455696005
% es.EX (V/m) @ t=0.58
-0.5983811916322764
% es.EY (V/m) @ t=0.58
0.19008164253677928
% es.EZ (V/m) @ t=0.58
1.5521314984799237
% es.tEX (V/m) @ t=0.58
-0.5983811916322835
% es.tEY (V/m) @ t=0.58
0
% es.tEZ (V/m) @ t=0.58
1.5521314984799242
% es.Ex (V/m) @ t=0.58
-0.5983811916322764
% es.Ey (V/m) @ t=0.58
0.19008164253677928
% es.Ez (V/m) @ t=0.58
1.5521314984799237
% es.tEx (V/m) @ t=0.58
-0.5983811916322835
% es.tEy (V/m) @ t=0.58
0
% es.tEz (V/m) @ t=0.58
1.5521314984799242
% V (V) @ t=0.58
0.008174533551532361
% es.normE (V/m) @ t=0.6
1.6950185938266622
% es.EX (V/m) @ t=0.6
-0.6041696002554835
% es.EY (V/m) @ t=0.6
0.19191940576802502
% es.EZ (V/m) @ t=0.6
1.5671455410919148
% es.tEX (V/m) @ t=0.6
-0.6041696002554906
% es.tEY (V/m) @ t=0.6
0
% es.tEZ (V/m) @ t=0.6
1.5671455410919162
% es.Ex (V/m) @ t=0.6
-0.6041696002554835
% es.Ey (V/m) @ t=0.6
0.19191940576802502
% es.Ez (V/m) @ t=0.6
1.5671455410919148
% es.tEx (V/m) @ t=0.6
-0.6041696002554906
% es.tEy (V/m) @ t=0.6
0
% es.tEz (V/m) @ t=0.6
1.5671455410919162
% V (V) @ t=0.6
0.008253647280331216
% es.normE (V/m) @ t=0.62
1.7112577319581632
% es.EX (V/m) @ t=0.62
-0.6099580088786836
% es.EY (V/m) @ t=0.62
0.1937571689992743
% es.EZ (V/m) @ t=0.62
1.582159583703902
% es.tEX (V/m) @ t=0.62
-0.6099580088786978
% es.tEY (V/m) @ t=0.62
0
% es.tEZ (V/m) @ t=0.62
1.5821595837039064
% es.Ex (V/m) @ t=0.62
-0.6099580088786836
% es.Ey (V/m) @ t=0.62
0.1937571689992743
% es.Ez (V/m) @ t=0.62
1.582159583703902
% es.tEx (V/m) @ t=0.62
-0.6099580088786978
% es.tEy (V/m) @ t=0.62
0
% es.tEz (V/m) @ t=0.62
1.5821595837039064
% V (V) @ t=0.62
0.008332761009130074
% es.normE (V/m) @ t=0.64
1.7274968700904938
% es.EX (V/m) @ t=0.64
-0.6157464175018766
% es.EY (V/m) @ t=0.64
0.1955949322305327
% es.EZ (V/m) @ t=0.64
1.5971736263158935
% es.tEX (V/m) @ t=0.64
-0.6157464175018837
% es.tEY (V/m) @ t=0.64
0
% es.tEZ (V/m) @ t=0.64
1.5971736263158958
% es.Ex (V/m) @ t=0.64
-0.6157464175018766
% es.Ey (V/m) @ t=0.64
0.1955949322305327
% es.Ez (V/m) @ t=0.64
1.5971736263158935
% es.tEx (V/m) @ t=0.64
-0.6157464175018837
% es.tEy (V/m) @ t=0.64
0
% es.tEz (V/m) @ t=0.64
1.5971736263158958
% V (V) @ t=0.64
0.008411874737928933
% es.normE (V/m) @ t=0.66
1.743736008223631
% es.EX (V/m) @ t=0.66
-0.6215348261250695
% es.EY (V/m) @ t=0.66
0.19743269546178777
% es.EZ (V/m) @ t=0.66
1.6121876689278878
% es.tEX (V/m) @ t=0.66
-0.6215348261250766
% es.tEY (V/m) @ t=0.66
0
% es.tEZ (V/m) @ t=0.66
1.6121876689278842
% es.Ex (V/m) @ t=0.66
-0.6215348261250695
% es.Ey (V/m) @ t=0.66
0.19743269546178777
% es.Ez (V/m) @ t=0.66
1.6121876689278878
% es.tEx (V/m) @ t=0.66
-0.6215348261250766
% es.tEy (V/m) @ t=0.66
0
% es.tEz (V/m) @ t=0.66
1.6121876689278842
% V (V) @ t=0.66
0.008490988466727788
% es.normE (V/m) @ t=0.68
1.7599751463575417
% es.EX (V/m) @ t=0.68
-0.6273232347482696
% es.EY (V/m) @ t=0.68
0.19927045869302984
% es.EZ (V/m) @ t=0.68
1.6272017115398723
% es.tEX (V/m) @ t=0.68
-0.6273232347482767
% es.tEY (V/m) @ t=0.68
0
% es.tEZ (V/m) @ t=0.68
1.6272017115398736
% es.Ex (V/m) @ t=0.68
-0.6273232347482696
% es.Ey (V/m) @ t=0.68
0.19927045869302984
% es.Ez (V/m) @ t=0.68
1.6272017115398723
% es.tEx (V/m) @ t=0.68
-0.6273232347482767
% es.tEy (V/m) @ t=0.68
0
% es.tEz (V/m) @ t=0.68
1.6272017115398736
% V (V) @ t=0.68
0.008570102195526647
% es.normE (V/m) @ t=0.7
1.776214284492217
% es.EX (V/m) @ t=0.7
-0.6331116433714661
% es.EY (V/m) @ t=0.7
0.20110822192428635
% es.EZ (V/m) @ t=0.7
1.6422157541518616
% es.tEX (V/m) @ t=0.7
-0.6331116433714696
% es.tEY (V/m) @ t=0.7
0
% es.tEZ (V/m) @ t=0.7
1.642215754151862
% es.Ex (V/m) @ t=0.7
-0.6331116433714661
% es.Ey (V/m) @ t=0.7
0.20110822192428635
% es.Ez (V/m) @ t=0.7
1.6422157541518616
% es.tEx (V/m) @ t=0.7
-0.6331116433714696
% es.tEy (V/m) @ t=0.7
0
% es.tEz (V/m) @ t=0.7
1.642215754151862
% V (V) @ t=0.7
0.008649215924325505
% es.normE (V/m) @ t=0.72
1.7924534226276323
% es.EX (V/m) @ t=0.72
-0.6389000519946624
% es.EY (V/m) @ t=0.72
0.2029459851555322
% es.EZ (V/m) @ t=0.72
1.6572297967638527
% es.tEX (V/m) @ t=0.72
-0.6389000519946695
% es.tEY (V/m) @ t=0.72
0
% es.tEZ (V/m) @ t=0.72
1.6572297967638576
% es.Ex (V/m) @ t=0.72
-0.6389000519946624
% es.Ey (V/m) @ t=0.72
0.2029459851555322
% es.Ez (V/m) @ t=0.72
1.6572297967638527
% es.tEx (V/m) @ t=0.72
-0.6389000519946695
% es.tEy (V/m) @ t=0.72
0
% es.tEz (V/m) @ t=0.72
1.6572297967638576
% V (V) @ t=0.72
0.008728329653124362
% es.normE (V/m) @ t=0.74
1.8086925607637712
% es.EX (V/m) @ t=0.74
-0.6446884606178624
% es.EY (V/m) @ t=0.74
0.20478374838678648
% es.EZ (V/m) @ t=0.74
1.6722438393758448
% es.tEX (V/m) @ t=0.74
-0.6446884606178767
% es.tEY (V/m) @ t=0.74
0
% es.tEZ (V/m) @ t=0.74
1.6722438393758425
% es.Ex (V/m) @ t=0.74
-0.6446884606178624
% es.Ey (V/m) @ t=0.74
0.20478374838678648
% es.Ez (V/m) @ t=0.74
1.6722438393758448
% es.tEx (V/m) @ t=0.74
-0.6446884606178767
% es.tEy (V/m) @ t=0.74
0
% es.tEz (V/m) @ t=0.74
1.6722438393758425
% V (V) @ t=0.74
0.008807443381923219
% es.normE (V/m) @ t=0.76
1.8249316989006084
% es.EX (V/m) @ t=0.76
-0.6504768692410624
% es.EY (V/m) @ t=0.76
0.206621511618029
% es.EZ (V/m) @ t=0.76
1.6872578819878368
% es.tEX (V/m) @ t=0.76
-0.6504768692410695
% es.tEY (V/m) @ t=0.76
0
% es.tEZ (V/m) @ t=0.76
1.6872578819878337
% es.Ex (V/m) @ t=0.76
-0.6504768692410624
% es.Ey (V/m) @ t=0.76
0.206621511618029
% es.Ez (V/m) @ t=0.76
1.6872578819878368
% es.tEx (V/m) @ t=0.76
-0.6504768692410695
% es.tEy (V/m) @ t=0.76
0
% es.tEz (V/m) @ t=0.76
1.6872578819878337
% V (V) @ t=0.76
0.008886557110722077
% es.normE (V/m) @ t=0.78
1.8411708370381206
% es.EX (V/m) @ t=0.78
-0.6562652778642518
% es.EY (V/m) @ t=0.78
0.2084592748492866
% es.EZ (V/m) @ t=0.78
1.7022719245998235
% es.tEX (V/m) @ t=0.78
-0.6562652778642625
% es.tEY (V/m) @ t=0.78
0
% es.tEZ (V/m) @ t=0.78
1.702271924599824
% es.Ex (V/m) @ t=0.78
-0.6562652778642518
% es.Ey (V/m) @ t=0.78
0.2084592748492866
% es.Ez (V/m) @ t=0.78
1.7022719245998235
% es.tEx (V/m) @ t=0.78
-0.6562652778642625
% es.tEy (V/m) @ t=0.78
0
% es.tEz (V/m) @ t=0.78
1.702271924599824
% V (V) @ t=0.78
0.008965670839520936
% es.normE (V/m) @ t=0.8
1.857409975176302
% es.EX (V/m) @ t=0.8
-0.6620536864874554
% es.EY (V/m) @ t=0.8
0.21029703808054
% es.EZ (V/m) @ t=0.8
1.717285967211812
% es.tEX (V/m) @ t=0.8
-0.6620536864874625
% es.tEY (V/m) @ t=0.8
0
% es.tEZ (V/m) @ t=0.8
1.7172859672118124
% es.Ex (V/m) @ t=0.8
-0.6620536864874554
% es.Ey (V/m) @ t=0.8
0.21029703808054
% es.Ez (V/m) @ t=0.8
1.717285967211812
% es.tEx (V/m) @ t=0.8
-0.6620536864874625
% es.tEy (V/m) @ t=0.8
0
% es.tEz (V/m) @ t=0.8
1.7172859672118124
% V (V) @ t=0.8
0.009044784568319792
% es.normE (V/m) @ t=0.82
1.8736491133151323
% es.EX (V/m) @ t=0.82
-0.6678420951106554
% es.EY (V/m) @ t=0.82
0.21213480131178164
% es.EZ (V/m) @ t=0.82
1.7323000098238035
% es.tEX (V/m) @ t=0.82
-0.6678420951106625
% es.tEY (V/m) @ t=0.82
0
% es.tEZ (V/m) @ t=0.82
1.7323000098238026
% es.Ex (V/m) @ t=0.82
-0.6678420951106554
% es.Ey (V/m) @ t=0.82
0.21213480131178164
% es.Ez (V/m) @ t=0.82
1.7323000098238035
% es.tEx (V/m) @ t=0.82
-0.6678420951106625
% es.tEy (V/m) @ t=0.82
0
% es.tEz (V/m) @ t=0.82
1.7323000098238026
% V (V) @ t=0.82
0.009123898297118647
% es.normE (V/m) @ t=0.84
1.8907814101372713
% es.EX (V/m) @ t=0.84
-0.6739487220535147
% es.EY (V/m) @ t=0.84
0.21407450140103057
% es.EZ (V/m) @ t=0.84
1.7481398366496248
% es.tEX (V/m) @ t=0.84
-0.6739487220535219
% es.tEY (V/m) @ t=0.84
0
% es.tEZ (V/m) @ t=0.84
1.7481398366496252
% es.Ex (V/m) @ t=0.84
-0.6739487220535147
% es.Ey (V/m) @ t=0.84
0.21407450140103057
% es.Ez (V/m) @ t=0.84
1.7481398366496248
% es.tEx (V/m) @ t=0.84
-0.6739487220535219
% es.tEy (V/m) @ t=0.84
0
% es.tEz (V/m) @ t=0.84
1.7481398366496252
% V (V) @ t=0.84
0.009207326418580668
% es.normE (V/m) @ t=0.86
1.9089695373626752
% es.EX (V/m) @ t=0.86
-0.6804315246782956
% es.EY (V/m) @ t=0.86
0.2161347041914301
% es.EZ (V/m) @ t=0.86
1.7649558484421197
% es.tEX (V/m) @ t=0.86
-0.6804315246783063
% es.tEY (V/m) @ t=0.86
0
% es.tEZ (V/m) @ t=0.86
1.764955848442117
% es.Ex (V/m) @ t=0.86
-0.6804315246782956
% es.Ey (V/m) @ t=0.86
0.2161347041914301
% es.Ez (V/m) @ t=0.86
1.7649558484421197
% es.tEx (V/m) @ t=0.86
-0.6804315246783063
% es.tEy (V/m) @ t=0.86
0
% es.tEz (V/m) @ t=0.86
1.764955848442117
% V (V) @ t=0.86
0.009295854716562801
% es.normE (V/m) @ t=0.88
1.9271576645888397
% es.EX (V/m) @ t=0.88
-0.686914327303087
% es.EY (V/m) @ t=0.88
0.2181949069818223
% es.EZ (V/m) @ t=0.88
1.7817718602346027
% es.tEX (V/m) @ t=0.88
-0.6869143273030976
% es.tEY (V/m) @ t=0.88
0
% es.tEZ (V/m) @ t=0.88
1.7817718602346062
% es.Ex (V/m) @ t=0.88
-0.686914327303087
% es.Ey (V/m) @ t=0.88
0.2181949069818223
% es.Ez (V/m) @ t=0.88
1.7817718602346027
% es.tEx (V/m) @ t=0.88
-0.6869143273030976
% es.tEy (V/m) @ t=0.88
0
% es.tEz (V/m) @ t=0.88
1.7817718602346062
% V (V) @ t=0.88
0.009384383014544938
% es.normE (V/m) @ t=0.9
1.9453457918157737
% es.EX (V/m) @ t=0.9
-0.6933971299278751
% es.EY (V/m) @ t=0.9
0.22025510977221052
% es.EZ (V/m) @ t=0.9
1.7985878720271051
% es.tEX (V/m) @ t=0.9
-0.6933971299278893
% es.tEY (V/m) @ t=0.9
0
% es.tEZ (V/m) @ t=0.9
1.7985878720271025
% es.Ex (V/m) @ t=0.9
-0.6933971299278751
% es.Ey (V/m) @ t=0.9
0.22025510977221052
% es.Ez (V/m) @ t=0.9
1.7985878720271051
% es.tEx (V/m) @ t=0.9
-0.6933971299278893
% es.tEy (V/m) @ t=0.9
0
% es.tEz (V/m) @ t=0.9
1.7985878720271025
% V (V) @ t=0.9
0.009472911312527072
% es.normE (V/m) @ t=0.92
1.963533919043432
% es.EX (V/m) @ t=0.92
-0.6998799325526808
% es.EY (V/m) @ t=0.92
0.2223153125625994
% es.EZ (V/m) @ t=0.92
1.8154038838195978
% es.tEX (V/m) @ t=0.92
-0.6998799325526879
% es.tEY (V/m) @ t=0.92
0
% es.tEZ (V/m) @ t=0.92
1.815403883819597
% es.Ex (V/m) @ t=0.92
-0.6998799325526808
% es.Ey (V/m) @ t=0.92
0.2223153125625994
% es.Ez (V/m) @ t=0.92
1.8154038838195978
% es.tEx (V/m) @ t=0.92
-0.6998799325526879
% es.tEy (V/m) @ t=0.92
0
% es.tEz (V/m) @ t=0.92
1.815403883819597
% V (V) @ t=0.92
0.009561439610509209
% es.normE (V/m) @ t=0.94
1.9817220462717884
% es.EX (V/m) @ t=0.94
-0.7063627351774756
% es.EY (V/m) @ t=0.94
0.2243755153529854
% es.EZ (V/m) @ t=0.94
1.8322198956120808
% es.tEX (V/m) @ t=0.94
-0.7063627351774863
% es.tEY (V/m) @ t=0.94
0
% es.tEZ (V/m) @ t=0.94
1.832219895612086
% es.Ex (V/m) @ t=0.94
-0.7063627351774756
% es.Ey (V/m) @ t=0.94
0.2243755153529854
% es.Ez (V/m) @ t=0.94
1.8322198956120808
% es.tEx (V/m) @ t=0.94
-0.7063627351774863
% es.tEy (V/m) @ t=0.94
0
% es.tEz (V/m) @ t=0.94
1.832219895612086
% V (V) @ t=0.94
0.009649967908491344
% es.normE (V/m) @ t=0.96
1.9999101735008464
% es.EX (V/m) @ t=0.96
-0.71284553780226
% es.EY (V/m) @ t=0.96
0.2264357181433867
% es.EZ (V/m) @ t=0.96
1.8490359074045797
% es.tEX (V/m) @ t=0.96
-0.7128455378022707
% es.tEY (V/m) @ t=0.96
0
% es.tEZ (V/m) @ t=0.96
1.849035907404577
% es.Ex (V/m) @ t=0.96
-0.71284553780226
% es.Ey (V/m) @ t=0.96
0.2264357181433867
% es.Ez (V/m) @ t=0.96
1.8490359074045797
% es.tEx (V/m) @ t=0.96
-0.7128455378022707
% es.tEy (V/m) @ t=0.96
0
% es.tEz (V/m) @ t=0.96
1.849035907404577
% V (V) @ t=0.96
0.009738496206473478
% es.normE (V/m) @ t=0.98
2.0180983007305695
% es.EX (V/m) @ t=0.98
-0.7193283404270515
% es.EY (V/m) @ t=0.98
0.22849592093378446
% es.EZ (V/m) @ t=0.98
1.8658519191970697
% es.tEX (V/m) @ t=0.98
-0.7193283404270551
% es.tEY (V/m) @ t=0.98
0
% es.tEZ (V/m) @ t=0.98
1.8658519191970715
% es.Ex (V/m) @ t=0.98
-0.7193283404270515
% es.Ey (V/m) @ t=0.98
0.22849592093378446
% es.Ez (V/m) @ t=0.98
1.8658519191970697
% es.tEx (V/m) @ t=0.98
-0.7193283404270551
% es.tEy (V/m) @ t=0.98
0
% es.tEz (V/m) @ t=0.98
1.8658519191970715
% V (V) @ t=0.98
0.009827024504455611
% es.normE (V/m) @ t=1
2.0362864279609485
% es.EX (V/m) @ t=1
-0.7258111430518466
% es.EY (V/m) @ t=1
0.2305561237241618
% es.EZ (V/m) @ t=1
1.8826679309895642
% es.tEX (V/m) @ t=1
-0.7258111430518608
% es.tEY (V/m) @ t=1
0
% es.tEZ (V/m) @ t=1
1.8826679309895642
% es.Ex (V/m) @ t=1
-0.7258111430518466
% es.Ey (V/m) @ t=1
0.2305561237241618
% es.Ez (V/m) @ t=1
1.8826679309895642
% es.tEx (V/m) @ t=1
-0.7258111430518608
% es.tEy (V/m) @ t=1
0
% es.tEz (V/m) @ t=1
1.8826679309895642
% V (V) @ t=1
0.009915552802437746
% es.normE (V/m) @ t=1.02
2.054474555191959
% es.EX (V/m) @ t=1.02
-0.732293945676638
% es.EY (V/m) @ t=1.02
0.23261632651455488
% es.EZ (V/m) @ t=1.02
1.8994839427820525
% es.tEX (V/m) @ t=1.02
-0.7322939456766451
% es.tEY (V/m) @ t=1.02
0
% es.tEZ (V/m) @ t=1.02
1.8994839427820516
% es.Ex (V/m) @ t=1.02
-0.732293945676638
% es.Ey (V/m) @ t=1.02
0.23261632651455488
% es.Ez (V/m) @ t=1.02
1.8994839427820525
% es.tEx (V/m) @ t=1.02
-0.7322939456766451
% es.tEy (V/m) @ t=1.02
0
% es.tEz (V/m) @ t=1.02
1.8994839427820516
% V (V) @ t=1.02
0.010004081100419882
% es.normE (V/m) @ t=1.04
2.072662682423594
% es.EX (V/m) @ t=1.04
-0.7387767483014225
% es.EY (V/m) @ t=1.04
0.2346765293049573
% es.EZ (V/m) @ t=1.04
1.9162999545745487
% es.tEX (V/m) @ t=1.04