% Model:              1 neuron.mph
% Version:            COMSOL 6.1.0.252
% Date:               Mar 18 2023, 12:14
% Dimension:          0
% Nodes:              14017
% Expressions:        14017
% Description:        Electric field norm, Electric field, X component, Electric field, Y component, Electric field, Z component, Tangential electric field, X component, Tangential electric field, Y component, Tangential electric field, Z component, Electric field, x component, Electric field, y component, Electric field, z component, Tangential electric field, x component, Tangential electric field, y component, Tangential electric field, z component, Electric potential
% Length unit:        mm
% x
1.33
% y
12.2
% z
1
% es.normE (V/m) @ t=0
1.5576592146059367
% es.EX (V/m) @ t=0
0.48078966650995003
% es.EY (V/m) @ t=0
0.11647873235244599
% es.EZ (V/m) @ t=0
1.4770053181047653
% es.tEX (V/m) @ t=0
0.48078966650994914
% es.tEY (V/m) @ t=0
0
% es.tEZ (V/m) @ t=0
1.4770053181047693
% es.Ex (V/m) @ t=0
0.48078966650995003
% es.Ey (V/m) @ t=0
0.11647873235244599
% es.Ez (V/m) @ t=0
1.4770053181047653
% es.tEx (V/m) @ t=0
0.48078966650994914
% es.tEy (V/m) @ t=0
0
% es.tEz (V/m) @ t=0
1.4770053181047693
% V (V) @ t=0
0.007285207169513849
% es.normE (V/m) @ t=0.02
1.3453685061511114
% es.EX (V/m) @ t=0.02
0.4152636657347484
% es.EY (V/m) @ t=0.02
0.10060404528494188
% es.EZ (V/m) @ t=0.02
1.2757067911618207
% es.tEX (V/m) @ t=0.02
0.41526366573474505
% es.tEY (V/m) @ t=0.02
0
% es.tEZ (V/m) @ t=0.02
1.2757067911618218
% es.Ex (V/m) @ t=0.02
0.4152636657347484
% es.Ey (V/m) @ t=0.02
0.10060404528494188
% es.Ez (V/m) @ t=0.02
1.2757067911618207
% es.tEx (V/m) @ t=0.02
0.41526366573474505
% es.tEy (V/m) @ t=0.02
0
% es.tEz (V/m) @ t=0.02
1.2757067911618218
% V (V) @ t=0.02
0.006292318750470069
% es.normE (V/m) @ t=0.04
1.3577447979762638
% es.EX (V/m) @ t=0.04
0.4190837524288352
% es.EY (V/m) @ t=0.04
0.10152952038061935
% es.EZ (V/m) @ t=0.04
1.2874422520790898
% es.tEX (V/m) @ t=0.04
0.4190837524288362
% es.tEY (V/m) @ t=0.04
0
% es.tEZ (V/m) @ t=0.04
1.2874422520790842
% es.Ex (V/m) @ t=0.04
0.4190837524288352
% es.Ey (V/m) @ t=0.04
0.10152952038061935
% es.Ez (V/m) @ t=0.04
1.2874422520790898
% es.tEx (V/m) @ t=0.04
0.4190837524288362
% es.tEy (V/m) @ t=0.04
0
% es.tEz (V/m) @ t=0.04
1.2874422520790842
% V (V) @ t=0.04
0.006350202942925761
% es.normE (V/m) @ t=0.06
1.3702346381491177
% es.EX (V/m) @ t=0.06
0.422938887132724
% es.EY (V/m) @ t=0.06
0.10246348638569353
% es.EZ (V/m) @ t=0.06
1.2992853819390606
% es.tEX (V/m) @ t=0.06
0.4229388871327231
% es.tEY (V/m) @ t=0.06
0
% es.tEZ (V/m) @ t=0.06
1.2992853819390708
% es.Ex (V/m) @ t=0.06
0.422938887132724
% es.Ey (V/m) @ t=0.06
0.10246348638569353
% es.Ez (V/m) @ t=0.06
1.2992853819390606
% es.tEx (V/m) @ t=0.06
0.4229388871327231
% es.tEy (V/m) @ t=0.06
0
% es.tEz (V/m) @ t=0.06
1.2992853819390708
% V (V) @ t=0.06
0.0064086182055517645
% es.normE (V/m) @ t=0.08
1.3829105273163047
% es.EX (V/m) @ t=0.08
0.42685144811236897
% es.EY (V/m) @ t=0.08
0.10341136491011949
% es.EZ (V/m) @ t=0.08
1.3113049273409345
% es.tEX (V/m) @ t=0.08
0.4268514481123695
% es.tEY (V/m) @ t=0.08
0
% es.tEZ (V/m) @ t=0.08
1.3113049273409416
% es.Ex (V/m) @ t=0.08
0.42685144811236897
% es.Ey (V/m) @ t=0.08
0.10341136491011949
% es.Ez (V/m) @ t=0.08
1.3113049273409345
% es.tEx (V/m) @ t=0.08
0.4268514481123695
% es.tEy (V/m) @ t=0.08
0
% es.tEz (V/m) @ t=0.08
1.3113049273409416
% V (V) @ t=0.08
0.006467903607650136
% es.normE (V/m) @ t=0.1
1.395725308230812
% es.EX (V/m) @ t=0.1
0.4308068797122486
% es.EY (V/m) @ t=0.1
0.10436962959184837
% es.EZ (V/m) @ t=0.1
1.3234561727982568
% es.tEX (V/m) @ t=0.1
0.4308068797122502
% es.tEY (V/m) @ t=0.1
0
% es.tEZ (V/m) @ t=0.1
1.3234561727982577
% es.Ex (V/m) @ t=0.1
0.4308068797122486
% es.Ey (V/m) @ t=0.1
0.10436962959184837
% es.Ez (V/m) @ t=0.1
1.3234561727982568
% es.tEx (V/m) @ t=0.1
0.4308068797122502
% es.tEy (V/m) @ t=0.1
0
% es.tEz (V/m) @ t=0.1
1.3234561727982577
% V (V) @ t=0.1
0.006527838597735487
% es.normE (V/m) @ t=0.12
1.408540089145307
% es.EX (V/m) @ t=0.12
0.43476231131211784
% es.EY (V/m) @ t=0.12
0.10532789427357903
% es.EZ (V/m) @ t=0.12
1.3356074182555693
% es.tEX (V/m) @ t=0.12
0.4347623113121166
% es.tEY (V/m) @ t=0.12
0
% es.tEZ (V/m) @ t=0.12
1.3356074182555648
% es.Ex (V/m) @ t=0.12
0.43476231131211784
% es.Ey (V/m) @ t=0.12
0.10532789427357903
% es.Ez (V/m) @ t=0.12
1.3356074182555693
% es.tEx (V/m) @ t=0.12
0.4347623113121166
% es.tEy (V/m) @ t=0.12
0
% es.tEz (V/m) @ t=0.12
1.3356074182555648
% V (V) @ t=0.12
0.006587773587820838
% es.normE (V/m) @ t=0.14
1.4214615278695297
% es.EX (V/m) @ t=0.14
0.4387506639691
% es.EY (V/m) @ t=0.14
0.1062941344690691
% es.EZ (V/m) @ t=0.14
1.3478597989474328
% es.tEX (V/m) @ t=0.14
0.438750663969099
% es.tEY (V/m) @ t=0.14
0
% es.tEZ (V/m) @ t=0.14
1.347859798947427
% es.Ex (V/m) @ t=0.14
0.4387506639691
% es.Ey (V/m) @ t=0.14
0.1062941344690691
% es.Ez (V/m) @ t=0.14
1.3478597989474328
% es.tEx (V/m) @ t=0.14
0.438750663969099
% es.tEy (V/m) @ t=0.14
0
% es.tEz (V/m) @ t=0.14
1.347859798947427
% V (V) @ t=0.14
0.006648207444502502
% es.normE (V/m) @ t=0.16
1.434963813045441
% es.EX (V/m) @ t=0.16
0.44291830100525054
% es.EY (V/m) @ t=0.16
0.10730380841661491
% es.EZ (V/m) @ t=0.16
1.3606629507669146
% es.tEX (V/m) @ t=0.16
0.4429183010052533
% es.tEY (V/m) @ t=0.16
0
% es.tEZ (V/m) @ t=0.16
1.360662950766919
% es.Ex (V/m) @ t=0.16
0.44291830100525054
% es.Ey (V/m) @ t=0.16
0.10730380841661491
% es.Ez (V/m) @ t=0.16
1.3606629507669146
% es.tEx (V/m) @ t=0.16
0.4429183010052533
% es.tEy (V/m) @ t=0.16
0
% es.tEz (V/m) @ t=0.16
1.360662950766919
% V (V) @ t=0.16
0.0067113580726336835
% es.normE (V/m) @ t=0.18
1.4484660982213393
% es.EX (V/m) @ t=0.18
0.44708593804139907
% es.EY (V/m) @ t=0.18
0.10831348236416782
% es.EZ (V/m) @ t=0.18
1.3734661025863826
% es.tEX (V/m) @ t=0.18
0.44708593804139696
% es.tEY (V/m) @ t=0.18
0
% es.tEZ (V/m) @ t=0.18
1.3734661025863808
% es.Ex (V/m) @ t=0.18
0.44708593804139907
% es.Ey (V/m) @ t=0.18
0.10831348236416782
% es.Ez (V/m) @ t=0.18
1.3734661025863826
% es.tEx (V/m) @ t=0.18
0.44708593804139696
% es.tEy (V/m) @ t=0.18
0
% es.tEz (V/m) @ t=0.18
1.3734661025863808
% V (V) @ t=0.18
0.006774508700764865
% es.normE (V/m) @ t=0.2
1.461968383397254
% es.EX (V/m) @ t=0.2
0.45125357507756303
% es.EY (V/m) @ t=0.2
0.10932315631171008
% es.EZ (V/m) @ t=0.2
1.3862692544058643
% es.tEX (V/m) @ t=0.2
0.45125357507756547
% es.tEY (V/m) @ t=0.2
0
% es.tEZ (V/m) @ t=0.2
1.3862692544058657
% es.Ex (V/m) @ t=0.2
0.45125357507756303
% es.Ey (V/m) @ t=0.2
0.10932315631171008
% es.Ez (V/m) @ t=0.2
1.3862692544058643
% es.tEx (V/m) @ t=0.2
0.45125357507756547
% es.tEy (V/m) @ t=0.2
0
% es.tEz (V/m) @ t=0.2
1.3862692544058657
% V (V) @ t=0.2
0.006837659328896047
% es.normE (V/m) @ t=0.22
1.4754706685731576
% es.EX (V/m) @ t=0.22
0.45542121211370223
% es.EY (V/m) @ t=0.22
0.11033283025927709
% es.EZ (V/m) @ t=0.22
1.39907240622534
% es.tEX (V/m) @ t=0.22
0.45542121211370556
% es.tEY (V/m) @ t=0.22
0
% es.tEZ (V/m) @ t=0.22
1.3990724062253417
% es.Ex (V/m) @ t=0.22
0.45542121211370223
% es.Ey (V/m) @ t=0.22
0.11033283025927709
% es.Ez (V/m) @ t=0.22
1.39907240622534
% es.tEx (V/m) @ t=0.22
0.45542121211370556
% es.tEy (V/m) @ t=0.22
0
% es.tEz (V/m) @ t=0.22
1.3990724062253417
% V (V) @ t=0.22
0.006900809957027229
% es.normE (V/m) @ t=0.24
1.4889729537490581
% es.EX (V/m) @ t=0.24
0.45958884914986353
% es.EY (V/m) @ t=0.24
0.11134250420682112
% es.EZ (V/m) @ t=0.24
1.411875558044807
% es.tEX (V/m) @ t=0.24
0.459588849149867
% es.tEY (V/m) @ t=0.24
0
% es.tEZ (V/m) @ t=0.24
1.4118755580448124
% es.Ex (V/m) @ t=0.24
0.45958884914986353
% es.Ey (V/m) @ t=0.24
0.11134250420682112
% es.Ez (V/m) @ t=0.24
1.411875558044807
% es.tEx (V/m) @ t=0.24
0.459588849149867
% es.tEy (V/m) @ t=0.24
0
% es.tEz (V/m) @ t=0.24
1.4118755580448124
% V (V) @ t=0.24
0.006963960585158411
% es.normE (V/m) @ t=0.26
1.5024752389249683
% es.EX (V/m) @ t=0.26
0.4637564861860174
% es.EY (V/m) @ t=0.26
0.11235217815436671
% es.EZ (V/m) @ t=0.26
1.4246787098642866
% es.tEX (V/m) @ t=0.26
0.4637564861860213
% es.tEY (V/m) @ t=0.26
0
% es.tEZ (V/m) @ t=0.26
1.424678709864283
% es.Ex (V/m) @ t=0.26
0.4637564861860174
% es.Ey (V/m) @ t=0.26
0.11235217815436671
% es.Ez (V/m) @ t=0.26
1.4246787098642866
% es.tEx (V/m) @ t=0.26
0.4637564861860213
% es.tEy (V/m) @ t=0.26
0
% es.tEz (V/m) @ t=0.26
1.424678709864283
% V (V) @ t=0.26
0.0070271112132895925
% es.normE (V/m) @ t=0.28
1.5164729607356118
% es.EX (V/m) @ t=0.28
0.46807705314451076
% es.EY (V/m) @ t=0.28
0.11339890856244017
% es.EZ (V/m) @ t=0.28
1.4379516420103657
% es.tEX (V/m) @ t=0.28
0.4680770531445191
% es.tEY (V/m) @ t=0.28
0
% es.tEZ (V/m) @ t=0.28
1.437951642010372
% es.Ex (V/m) @ t=0.28
0.46807705314451076
% es.Ey (V/m) @ t=0.28
0.11339890856244017
% es.Ez (V/m) @ t=0.28
1.4379516420103657
% es.tEx (V/m) @ t=0.28
0.4680770531445191
% es.tEy (V/m) @ t=0.28
0
% es.tEz (V/m) @ t=0.28
1.437951642010372
% V (V) @ t=0.28
0.007092577267817719
% es.normE (V/m) @ t=0.3
1.5315220964719256
% es.EX (V/m) @ t=0.3
0.4727221674592754
% es.EY (V/m) @ t=0.3
0.11452428006383164
% es.EZ (V/m) @ t=0.3
1.4522215403530558
% es.tEX (V/m) @ t=0.3
0.4727221674592741
% es.tEY (V/m) @ t=0.3
0
% es.tEZ (V/m) @ t=0.3
1.4522215403530492
% es.Ex (V/m) @ t=0.3
0.4727221674592754
% es.Ey (V/m) @ t=0.3
0.11452428006383164
% es.Ez (V/m) @ t=0.3
1.4522215403530558
% es.tEx (V/m) @ t=0.3
0.4727221674592741
% es.tEy (V/m) @ t=0.3
0
% es.tEz (V/m) @ t=0.3
1.4522215403530492
% V (V) @ t=0.3
0.007162957112297808
% es.normE (V/m) @ t=0.32
1.546571232208241
% es.EX (V/m) @ t=0.32
0.4773672817740422
% es.EY (V/m) @ t=0.32
0.11564965156521967
% es.EZ (V/m) @ t=0.32
1.466491438695746
% es.tEX (V/m) @ t=0.32
0.4773672817740362
% es.tEY (V/m) @ t=0.32
0
% es.tEZ (V/m) @ t=0.32
1.466491438695746
% es.Ex (V/m) @ t=0.32
0.4773672817740422
% es.Ey (V/m) @ t=0.32
0.11564965156521967
% es.Ez (V/m) @ t=0.32
1.466491438695746
% es.tEx (V/m) @ t=0.32
0.4773672817740362
% es.tEy (V/m) @ t=0.32
0
% es.tEz (V/m) @ t=0.32
1.466491438695746
% V (V) @ t=0.32
0.0072333369567779
% es.normE (V/m) @ t=0.34
1.5616203679445468
% es.EX (V/m) @ t=0.34
0.482012396088801
% es.EY (V/m) @ t=0.34
0.1167750230665987
% es.EZ (V/m) @ t=0.34
1.480761337038428
% es.tEX (V/m) @ t=0.34
0.4820123960887983
% es.tEY (V/m) @ t=0.34
0
% es.tEZ (V/m) @ t=0.34
1.4807613370384285
% es.Ex (V/m) @ t=0.34
0.482012396088801
% es.Ey (V/m) @ t=0.34
0.1167750230665987
% es.Ez (V/m) @ t=0.34
1.480761337038428
% es.tEx (V/m) @ t=0.34
0.4820123960887983
% es.tEy (V/m) @ t=0.34
0
% es.tEz (V/m) @ t=0.34
1.4807613370384285
% V (V) @ t=0.34
0.007303716801257989
% es.normE (V/m) @ t=0.36
1.5766695036808636
% es.EX (V/m) @ t=0.36
0.4866575104035661
% es.EY (V/m) @ t=0.36
0.11790039456799017
% es.EZ (V/m) @ t=0.36
1.4950312353811173
% es.tEX (V/m) @ t=0.36
0.48665751040356753
% es.tEY (V/m) @ t=0.36
0
% es.tEZ (V/m) @ t=0.36
1.49503123538112
% es.Ex (V/m) @ t=0.36
0.4866575104035661
% es.Ey (V/m) @ t=0.36
0.11790039456799017
% es.Ez (V/m) @ t=0.36
1.4950312353811173
% es.tEx (V/m) @ t=0.36
0.48665751040356753
% es.tEy (V/m) @ t=0.36
0
% es.tEz (V/m) @ t=0.36
1.49503123538112
% V (V) @ t=0.36
0.007374096645738078
% es.normE (V/m) @ t=0.38
1.5917186394171754
% es.EX (V/m) @ t=0.38
0.4913026247183233
% es.EY (V/m) @ t=0.38
0.11902576606937254
% es.EZ (V/m) @ t=0.38
1.5093011337238038
% es.tEX (V/m) @ t=0.38
0.49130262471832253
% es.tEY (V/m) @ t=0.38
0
% es.tEZ (V/m) @ t=0.38
1.5093011337238025
% es.Ex (V/m) @ t=0.38
0.4913026247183233
% es.Ey (V/m) @ t=0.38
0.11902576606937254
% es.Ez (V/m) @ t=0.38
1.5093011337238038
% es.tEx (V/m) @ t=0.38
0.49130262471832253
% es.tEy (V/m) @ t=0.38
0
% es.tEz (V/m) @ t=0.38
1.5093011337238025
% V (V) @ t=0.38
0.007444476490218168
% es.normE (V/m) @ t=0.4
1.6067677751534926
% es.EX (V/m) @ t=0.4
0.4959477390330864
% es.EY (V/m) @ t=0.4
0.12015113757074114
% es.EZ (V/m) @ t=0.4
1.523571032066494
% es.tEX (V/m) @ t=0.4
0.49594773903308464
% es.tEY (V/m) @ t=0.4
0
% es.tEZ (V/m) @ t=0.4
1.5235710320664992
% es.Ex (V/m) @ t=0.4
0.4959477390330864
% es.Ey (V/m) @ t=0.4
0.12015113757074114
% es.Ez (V/m) @ t=0.4
1.523571032066494
% es.tEx (V/m) @ t=0.4
0.49594773903308464
% es.tEy (V/m) @ t=0.4
0
% es.tEz (V/m) @ t=0.4
1.5235710320664992
% V (V) @ t=0.4
0.007514856334698258
% es.normE (V/m) @ t=0.42
1.621816910889811
% es.EX (V/m) @ t=0.42
0.5005928533478498
% es.EY (V/m) @ t=0.42
0.12127650907216436
% es.EZ (V/m) @ t=0.42
1.53784093040918
% es.tEX (V/m) @ t=0.42
0.5005928533478539
% es.tEY (V/m) @ t=0.42
0
% es.tEZ (V/m) @ t=0.42
1.5378409304091818
% es.Ex (V/m) @ t=0.42
0.5005928533478498
% es.Ey (V/m) @ t=0.42
0.12127650907216436
% es.Ez (V/m) @ t=0.42
1.53784093040918
% es.tEx (V/m) @ t=0.42
0.5005928533478539
% es.tEy (V/m) @ t=0.42
0
% es.tEz (V/m) @ t=0.42
1.5378409304091818
% V (V) @ t=0.42
0.007585236179178347
% es.normE (V/m) @ t=0.44
1.6368660466261336
% es.EX (V/m) @ t=0.44
0.5052379676626118
% es.EY (V/m) @ t=0.44
0.12240188057354373
% es.EZ (V/m) @ t=0.44
1.5521108287518732
% es.tEX (V/m) @ t=0.44
0.5052379676626089
% es.tEY (V/m) @ t=0.44
0
% es.tEZ (V/m) @ t=0.44
1.5521108287518715
% es.Ex (V/m) @ t=0.44
0.5052379676626118
% es.Ey (V/m) @ t=0.44
0.12240188057354373
% es.Ez (V/m) @ t=0.44
1.5521108287518732
% es.tEx (V/m) @ t=0.44
0.5052379676626089
% es.tEy (V/m) @ t=0.44
0
% es.tEz (V/m) @ t=0.44
1.5521108287518715
% V (V) @ t=0.44
0.0076556160236584386
% es.normE (V/m) @ t=0.46
1.651915182362461
% es.EX (V/m) @ t=0.46
0.5098830819773861
% es.EY (V/m) @ t=0.46
0.12352725207491
% es.EZ (V/m) @ t=0.46
1.5663807270945673
% es.tEX (V/m) @ t=0.46
0.5098830819773852
% es.tEY (V/m) @ t=0.46
0
% es.tEZ (V/m) @ t=0.46
1.56638072709457
% es.Ex (V/m) @ t=0.46
0.5098830819773861
% es.Ey (V/m) @ t=0.46
0.12352725207491
% es.Ez (V/m) @ t=0.46
1.5663807270945673
% es.tEx (V/m) @ t=0.46
0.5098830819773852
% es.tEy (V/m) @ t=0.46
0
% es.tEz (V/m) @ t=0.46
1.56638072709457
% V (V) @ t=0.46
0.0077259958681385275
% es.normE (V/m) @ t=0.48
1.6669643180987714
% es.EX (V/m) @ t=0.48
0.5145281962921348
% es.EY (V/m) @ t=0.48
0.12465262357630125
% es.EZ (V/m) @ t=0.48
1.580650625437249
% es.tEX (V/m) @ t=0.48
0.5145281962921331
% es.tEY (V/m) @ t=0.48
0
% es.tEZ (V/m) @ t=0.48
1.5806506254372579
% es.Ex (V/m) @ t=0.48
0.5145281962921348
% es.Ey (V/m) @ t=0.48
0.12465262357630125
% es.Ez (V/m) @ t=0.48
1.580650625437249
% es.tEx (V/m) @ t=0.48
0.5145281962921331
% es.tEy (V/m) @ t=0.48
0
% es.tEz (V/m) @ t=0.48
1.5806506254372579
% V (V) @ t=0.48
0.007796375712618616
% es.normE (V/m) @ t=0.5
1.6820134538350984
% es.EX (V/m) @ t=0.5
0.5191733106069046
% es.EY (V/m) @ t=0.5
0.12577799507770726
% es.EZ (V/m) @ t=0.5
1.594920523779939
% es.tEX (V/m) @ t=0.5
0.5191733106069094
% es.tEY (V/m) @ t=0.5
0
% es.tEZ (V/m) @ t=0.5
1.5949205237799422
% es.Ex (V/m) @ t=0.5
0.5191733106069046
% es.Ey (V/m) @ t=0.5
0.12577799507770726
% es.Ez (V/m) @ t=0.5
1.594920523779939
% es.tEx (V/m) @ t=0.5
0.5191733106069094
% es.tEy (V/m) @ t=0.5
0
% es.tEz (V/m) @ t=0.5
1.5949205237799422
% V (V) @ t=0.5
0.007866755557098707
% es.normE (V/m) @ t=0.52
1.6970625895714058
% es.EX (V/m) @ t=0.52
0.5238184249216694
% es.EY (V/m) @ t=0.52
0.12690336657908607
% es.EZ (V/m) @ t=0.52
1.6091904221226114
% es.tEX (V/m) @ t=0.52
0.5238184249216715
% es.tEY (V/m) @ t=0.52
0
% es.tEZ (V/m) @ t=0.52
1.6091904221226176
% es.Ex (V/m) @ t=0.52
0.5238184249216694
% es.Ey (V/m) @ t=0.52
0.12690336657908607
% es.Ez (V/m) @ t=0.52
1.6091904221226114
% es.tEx (V/m) @ t=0.52
0.5238184249216715
% es.tEy (V/m) @ t=0.52
0
% es.tEz (V/m) @ t=0.52
1.6091904221226176
% V (V) @ t=0.52
0.007937135401578798
% es.normE (V/m) @ t=0.54
1.7121117253077398
% es.EX (V/m) @ t=0.54
0.5284635392364203
% es.EY (V/m) @ t=0.54
0.12802873808046888
% es.EZ (V/m) @ t=0.54
1.6234603204653153
% es.tEX (V/m) @ t=0.54
0.5284635392364265
% es.tEY (V/m) @ t=0.54
0
% es.tEZ (V/m) @ t=0.54
1.6234603204653215
% es.Ex (V/m) @ t=0.54
0.5284635392364203
% es.Ey (V/m) @ t=0.54
0.12802873808046888
% es.Ez (V/m) @ t=0.54
1.6234603204653153
% es.tEx (V/m) @ t=0.54
0.5284635392364265
% es.tEy (V/m) @ t=0.54
0
% es.tEz (V/m) @ t=0.54
1.6234603204653215
% V (V) @ t=0.54
0.008007515246058888
% es.normE (V/m) @ t=0.56
1.7283044039385964
% es.EX (V/m) @ t=0.56
0.5334615806593945
% es.EY (V/m) @ t=0.56
0.12923957860095636
% es.EZ (V/m) @ t=0.56
1.6388145667833052
% es.tEX (V/m) @ t=0.56
0.5334615806593987
% es.tEY (V/m) @ t=0.56
0
% es.tEZ (V/m) @ t=0.56
1.6388145667833118
% es.Ex (V/m) @ t=0.56
0.5334615806593945
% es.Ey (V/m) @ t=0.56
0.12923957860095636
% es.Ez (V/m) @ t=0.56
1.6388145667833052
% es.tEx (V/m) @ t=0.56
0.5334615806593987
% es.tEy (V/m) @ t=0.56
0
% es.tEz (V/m) @ t=0.56
1.6388145667833118
% V (V) @ t=0.56
0.008083252912179664
% es.normE (V/m) @ t=0.58
1.745111250044539
% es.EX (V/m) @ t=0.58
0.5386491701543713
% es.EY (V/m) @ t=0.58
0.13049632233321773
% es.EZ (V/m) @ t=0.58
1.6547511885078459
% es.tEX (V/m) @ t=0.58
0.5386491701543719
% es.tEY (V/m) @ t=0.58
0
% es.tEZ (V/m) @ t=0.58
1.654751188507852
% es.Ex (V/m) @ t=0.58
0.5386491701543713
% es.Ey (V/m) @ t=0.58
0.13049632233321773
% es.Ez (V/m) @ t=0.58
1.6547511885078459
% es.tEx (V/m) @ t=0.58
0.5386491701543719
% es.tEy (V/m) @ t=0.58
0
% es.tEz (V/m) @ t=0.58
1.654751188507852
% V (V) @ t=0.58
0.008161868126492746
% es.normE (V/m) @ t=0.6
1.7619180961504857
% es.EX (V/m) @ t=0.6
0.5438367596493627
% es.EY (V/m) @ t=0.6
0.13175306606548287
% es.EZ (V/m) @ t=0.6
1.6706878102323826
% es.tEX (V/m) @ t=0.6
0.5438367596493663
% es.tEY (V/m) @ t=0.6
0
% es.tEZ (V/m) @ t=0.6
1.6706878102323959
% es.Ex (V/m) @ t=0.6
0.5438367596493627
% es.Ey (V/m) @ t=0.6
0.13175306606548287
% es.Ez (V/m) @ t=0.6
1.6706878102323826
% es.tEx (V/m) @ t=0.6
0.5438367596493663
% es.tEy (V/m) @ t=0.6
0
% es.tEz (V/m) @ t=0.6
1.6706878102323959
% V (V) @ t=0.6
0.008240483340805828
% es.normE (V/m) @ t=0.62
1.7787249422564408
% es.EX (V/m) @ t=0.62
0.5490243491443447
% es.EY (V/m) @ t=0.62
0.13300980979772692
% es.EZ (V/m) @ t=0.62
1.6866244319569295
% es.tEX (V/m) @ t=0.62
0.5490243491443465
% es.tEY (V/m) @ t=0.62
0
% es.tEZ (V/m) @ t=0.62
1.6866244319569308
% es.Ex (V/m) @ t=0.62
0.5490243491443447
% es.Ey (V/m) @ t=0.62
0.13300980979772692
% es.Ez (V/m) @ t=0.62
1.6866244319569295
% es.tEx (V/m) @ t=0.62
0.5490243491443465
% es.tEy (V/m) @ t=0.62
0
% es.tEz (V/m) @ t=0.62
1.6866244319569308
% V (V) @ t=0.62
0.00831909855511891
% es.normE (V/m) @ t=0.64
1.7955317883623896
% es.EX (V/m) @ t=0.64
0.554211938639318
% es.EY (V/m) @ t=0.64
0.13426655353000994
% es.EZ (V/m) @ t=0.64
1.7025610536814666
% es.tEX (V/m) @ t=0.64
0.5542119386393196
% es.tEY (V/m) @ t=0.64
0
% es.tEZ (V/m) @ t=0.64
1.7025610536814675
% es.Ex (V/m) @ t=0.64
0.554211938639318
% es.Ey (V/m) @ t=0.64
0.13426655353000994
% es.Ez (V/m) @ t=0.64
1.7025610536814666
% es.tEx (V/m) @ t=0.64
0.5542119386393196
% es.tEy (V/m) @ t=0.64
0
% es.tEz (V/m) @ t=0.64
1.7025610536814675
% V (V) @ t=0.64
0.008397713769431991
% es.normE (V/m) @ t=0.66
1.8123386344683539
% es.EX (V/m) @ t=0.66
0.5593995281343129
% es.EY (V/m) @ t=0.66
0.13552329726227286
% es.EZ (V/m) @ t=0.66
1.7184976754060113
% es.tEX (V/m) @ t=0.66
0.5593995281343211
% es.tEY (V/m) @ t=0.66
0
% es.tEZ (V/m) @ t=0.66
1.7184976754060148
% es.Ex (V/m) @ t=0.66
0.5593995281343129
% es.Ey (V/m) @ t=0.66
0.13552329726227286
% es.Ez (V/m) @ t=0.66
1.7184976754060113
% es.tEx (V/m) @ t=0.66
0.5593995281343211
% es.tEy (V/m) @ t=0.66
0
% es.tEz (V/m) @ t=0.66
1.7184976754060148
% V (V) @ t=0.66
0.00847632898374507
% es.normE (V/m) @ t=0.68
1.8291454805742982
% es.EX (V/m) @ t=0.68
0.5645871176292848
% es.EY (V/m) @ t=0.68
0.13678004099451946
% es.EZ (V/m) @ t=0.68
1.7344342971305404
% es.tEX (V/m) @ t=0.68
0.56458711762928
% es.tEY (V/m) @ t=0.68
0
% es.tEZ (V/m) @ t=0.68
1.7344342971305426
% es.Ex (V/m) @ t=0.68
0.5645871176292848
% es.Ey (V/m) @ t=0.68
0.13678004099451946
% es.Ez (V/m) @ t=0.68
1.7344342971305404
% es.tEx (V/m) @ t=0.68
0.56458711762928
% es.tEy (V/m) @ t=0.68
0
% es.tEz (V/m) @ t=0.68
1.7344342971305426
% V (V) @ t=0.68
0.008554944198058153
% es.normE (V/m) @ t=0.7
1.8459523266802635
% es.EX (V/m) @ t=0.7
0.5697747071242719
% es.EY (V/m) @ t=0.7
0.13803678472681458
% es.EZ (V/m) @ t=0.7
1.7503709188550802
% es.tEX (V/m) @ t=0.7
0.5697747071242745
% es.tEY (V/m) @ t=0.7
0
% es.tEZ (V/m) @ t=0.7
1.7503709188550864
% es.Ex (V/m) @ t=0.7
0.5697747071242719
% es.Ey (V/m) @ t=0.7
0.13803678472681458
% es.Ez (V/m) @ t=0.7
1.7503709188550802
% es.tEx (V/m) @ t=0.7
0.5697747071242745
% es.tEy (V/m) @ t=0.7
0
% es.tEz (V/m) @ t=0.7
1.7503709188550864
% V (V) @ t=0.7
0.008633559412371233
% es.normE (V/m) @ t=0.72
1.8627591727862327
% es.EX (V/m) @ t=0.72
0.5749622966192562
% es.EY (V/m) @ t=0.72
0.13929352845903364
% es.EZ (V/m) @ t=0.72
1.766307540579628
% es.tEX (V/m) @ t=0.72
0.5749622966192618
% es.tEY (V/m) @ t=0.72
0
% es.tEZ (V/m) @ t=0.72
1.7663075405796285
% es.Ex (V/m) @ t=0.72
0.5749622966192562
% es.Ey (V/m) @ t=0.72
0.13929352845903364
% es.Ez (V/m) @ t=0.72
1.766307540579628
% es.tEx (V/m) @ t=0.72
0.5749622966192618
% es.tEy (V/m) @ t=0.72
0
% es.tEz (V/m) @ t=0.72
1.7663075405796285
% V (V) @ t=0.72
0.008712174626684317
% es.normE (V/m) @ t=0.74
1.8795660188922025
% es.EX (V/m) @ t=0.74
0.5801498861142314
% es.EY (V/m) @ t=0.74
0.14055027219131666
% es.EZ (V/m) @ t=0.74
1.7822441623041718
% es.tEX (V/m) @ t=0.74
0.5801498861142349
% es.tEY (V/m) @ t=0.74
0
% es.tEZ (V/m) @ t=0.74
1.7822441623041758
% es.Ex (V/m) @ t=0.74
0.5801498861142314
% es.Ey (V/m) @ t=0.74
0.14055027219131666
% es.Ez (V/m) @ t=0.74
1.7822441623041718
% es.tEx (V/m) @ t=0.74
0.5801498861142349
% es.tEy (V/m) @ t=0.74
0
% es.tEz (V/m) @ t=0.74
1.7822441623041758
% V (V) @ t=0.74
0.008790789840997397
% es.normE (V/m) @ t=0.76
1.896372864998166
% es.EX (V/m) @ t=0.76
0.5853374756092139
% es.EY (V/m) @ t=0.76
0.14180701592357647
% es.EZ (V/m) @ t=0.76
1.7981807840287054
% es.tEX (V/m) @ t=0.76
0.5853374756092151
% es.tEY (V/m) @ t=0.76
0
% es.tEZ (V/m) @ t=0.76
1.7981807840287125
% es.Ex (V/m) @ t=0.76
0.5853374756092139
% es.Ey (V/m) @ t=0.76
0.14180701592357647
% es.Ez (V/m) @ t=0.76
1.7981807840287054
% es.tEx (V/m) @ t=0.76
0.5853374756092151
% es.tEy (V/m) @ t=0.76
0
% es.tEz (V/m) @ t=0.76
1.7981807840287125
% V (V) @ t=0.76
0.008869405055310479
% es.normE (V/m) @ t=0.78
1.9131797111041364
% es.EX (V/m) @ t=0.78
0.590525065104201
% es.EY (V/m) @ t=0.78
0.14306375965583784
% es.EZ (V/m) @ t=0.78
1.814117405753242
% es.tEX (V/m) @ t=0.78
0.5905250651042024
% es.tEY (V/m) @ t=0.78
0
% es.tEZ (V/m) @ t=0.78
1.8141174057532545
% es.Ex (V/m) @ t=0.78
0.590525065104201
% es.Ey (V/m) @ t=0.78
0.14306375965583784
% es.Ez (V/m) @ t=0.78
1.814117405753242
% es.tEx (V/m) @ t=0.78
0.5905250651042024
% es.tEy (V/m) @ t=0.78
0
% es.tEz (V/m) @ t=0.78
1.8141174057532545
% V (V) @ t=0.78
0.00894802026962356
% es.normE (V/m) @ t=0.8
1.929986557210118
% es.EX (V/m) @ t=0.8
0.5957126545991855
% es.EY (V/m) @ t=0.8
0.14432050338808744
% es.EZ (V/m) @ t=0.8
1.83005402747779
% es.tEX (V/m) @ t=0.8
0.5957126545991827
% es.tEY (V/m) @ t=0.8
0
% es.tEZ (V/m) @ t=0.8
1.8300540274777894
% es.Ex (V/m) @ t=0.8
0.5957126545991855
% es.Ey (V/m) @ t=0.8
0.14432050338808744
% es.Ez (V/m) @ t=0.8
1.83005402747779
% es.tEx (V/m) @ t=0.8
0.5957126545991827
% es.tEy (V/m) @ t=0.8
0
% es.tEz (V/m) @ t=0.8
1.8300540274777894
% V (V) @ t=0.8
0.009026635483936642
% es.normE (V/m) @ t=0.82
1.946793403316099
% es.EX (V/m) @ t=0.82
0.6009002440941676
% es.EY (V/m) @ t=0.82
0.14557724712035813
% es.EZ (V/m) @ t=0.82
1.8459906492023337
% es.tEX (V/m) @ t=0.82
0.60090024409417
% es.tEY (V/m) @ t=0.82
0
% es.tEZ (V/m) @ t=0.82
1.8459906492023386
% es.Ex (V/m) @ t=0.82
0.6009002440941676
% es.Ey (V/m) @ t=0.82
0.14557724712035813
% es.Ez (V/m) @ t=0.82
1.8459906492023337
% es.tEx (V/m) @ t=0.82
0.60090024409417
% es.tEy (V/m) @ t=0.82
0
% es.tEz (V/m) @ t=0.82
1.8459906492023386
% V (V) @ t=0.82
0.009105250698249724
% es.normE (V/m) @ t=0.84
1.9655512256953815
% es.EX (V/m) @ t=0.84
0.606690174647697
% es.EY (V/m) @ t=0.84
0.14698003505955137
% es.EZ (V/m) @ t=0.84
1.863777167540717
% es.tEX (V/m) @ t=0.84
0.6066901746476958
% es.tEY (V/m) @ t=0.84
0
% es.tEZ (V/m) @ t=0.84
1.8637771675407286
% es.Ex (V/m) @ t=0.84
0.606690174647697
% es.Ey (V/m) @ t=0.84
0.14698003505955137
% es.Ez (V/m) @ t=0.84
1.863777167540717
% es.tEx (V/m) @ t=0.84
0.6066901746476958
% es.tEy (V/m) @ t=0.84
0
% es.tEz (V/m) @ t=0.84
1.8637771675407286
% V (V) @ t=0.84
0.009192955850938215
% es.normE (V/m) @ t=0.86
1.9843470657784916
% es.EX (V/m) @ t=0.86
0.6124918427217223
% es.EY (V/m) @ t=0.86
0.14838566888952798
% es.EZ (V/m) @ t=0.86
1.881599733893875
% es.tEX (V/m) @ t=0.86
0.6124918427217239
% es.tEY (V/m) @ t=0.86
0
% es.tEZ (V/m) @ t=0.86
1.8815997338938715
% es.Ex (V/m) @ t=0.86
0.6124918427217223
% es.Ey (V/m) @ t=0.86
0.14838566888952798
% es.Ez (V/m) @ t=0.86
1.881599733893875
% es.tEx (V/m) @ t=0.86
0.6124918427217239
% es.tEy (V/m) @ t=0.86
0
% es.tEz (V/m) @ t=0.86
1.8815997338938715
% V (V) @ t=0.86
0.009280838134732381
% es.normE (V/m) @ t=0.88
2.0031429058615906
% es.EX (V/m) @ t=0.88
0.6182935107957105
% es.EY (V/m) @ t=0.88
0.1497913027194886
% es.EZ (V/m) @ t=0.88
1.899422300247012
% es.tEX (V/m) @ t=0.88
0.6182935107957164
% es.tEY (V/m) @ t=0.88
0
% es.tEZ (V/m) @ t=0.88
1.8994223002470214
% es.Ex (V/m) @ t=0.88
0.6182935107957105
% es.Ey (V/m) @ t=0.88
0.1497913027194886
% es.Ez (V/m) @ t=0.88
1.899422300247012
% es.tEx (V/m) @ t=0.88
0.6182935107957164
% es.tEy (V/m) @ t=0.88
0
% es.tEz (V/m) @ t=0.88
1.8994223002470214
% V (V) @ t=0.88
0.009368720418526547
% es.normE (V/m) @ t=0.9
2.0219387459447384
% es.EX (V/m) @ t=0.9
0.6240951788697334
% es.EY (V/m) @ t=0.9
0.15119693654947575
% es.EZ (V/m) @ t=0.9
1.9172448666001665
% es.tEX (V/m) @ t=0.9
0.6240951788697373
% es.tEY (V/m) @ t=0.9
0
% es.tEZ (V/m) @ t=0.9
1.9172448666001802
% es.Ex (V/m) @ t=0.9
0.6240951788697334
% es.Ey (V/m) @ t=0.9
0.15119693654947575
% es.Ez (V/m) @ t=0.9
1.9172448666001665
% es.tEx (V/m) @ t=0.9
0.6240951788697373
% es.tEy (V/m) @ t=0.9
0
% es.tEz (V/m) @ t=0.9
1.9172448666001802
% V (V) @ t=0.9
0.009456602702320715
% es.normE (V/m) @ t=0.92
2.0407345860278703
% es.EX (V/m) @ t=0.92
0.6298968469437207
% es.EY (V/m) @ t=0.92
0.1526025703794508
% es.EZ (V/m) @ t=0.92
1.9350674329532955
% es.tEX (V/m) @ t=0.92
0.6298968469437227
% es.tEY (V/m) @ t=0.92
0
% es.tEZ (V/m) @ t=0.92
1.9350674329533
% es.Ex (V/m) @ t=0.92
0.6298968469437207
% es.Ey (V/m) @ t=0.92
0.1526025703794508
% es.Ez (V/m) @ t=0.92
1.9350674329532955
% es.tEx (V/m) @ t=0.92
0.6298968469437227
% es.tEy (V/m) @ t=0.92
0
% es.tEz (V/m) @ t=0.92
1.9350674329533
% V (V) @ t=0.92
0.009544484986114881
% es.normE (V/m) @ t=0.94
2.059530426111043
% es.EX (V/m) @ t=0.94
0.6356985150177309
% es.EY (V/m) @ t=0.94
0.15400820420942551
% es.EZ (V/m) @ t=0.94
1.9528899993064397
% es.tEX (V/m) @ t=0.94
0.6356985150177366
% es.tEY (V/m) @ t=0.94
0
% es.tEZ (V/m) @ t=0.94
1.9528899993064446
% es.Ex (V/m) @ t=0.94
0.6356985150177309
% es.Ey (V/m) @ t=0.94
0.15400820420942551
% es.Ez (V/m) @ t=0.94
1.9528899993064397
% es.tEx (V/m) @ t=0.94
0.6356985150177366
% es.tEy (V/m) @ t=0.94
0
% es.tEz (V/m) @ t=0.94
1.9528899993064446
% V (V) @ t=0.94
0.00963236726990905
% es.normE (V/m) @ t=0.96
2.078326266194249
% es.EX (V/m) @ t=0.96
0.6415001830917438
% es.EY (V/m) @ t=0.96
0.15541383803940922
% es.EZ (V/m) @ t=0.96
1.9707125656595976
% es.tEX (V/m) @ t=0.96
0.6415001830917504
% es.tEY (V/m) @ t=0.96
0
% es.tEZ (V/m) @ t=0.96
1.9707125656595998
% es.Ex (V/m) @ t=0.96
0.6415001830917438
% es.Ey (V/m) @ t=0.96
0.15541383803940922
% es.Ez (V/m) @ t=0.96
1.9707125656595976
% es.tEx (V/m) @ t=0.96
0.6415001830917504
% es.tEy (V/m) @ t=0.96
0
% es.tEz (V/m) @ t=0.96
1.9707125656595998
% V (V) @ t=0.96
0.009720249553703217
% es.normE (V/m) @ t=0.98
2.0971221062774523
% es.EX (V/m) @ t=0.98
0.6473018511657338
% es.EY (V/m) @ t=0.98
0.1568194718693805
% es.EZ (V/m) @ t=0.98
1.9885351320127418
% es.tEX (V/m) @ t=0.98
0.6473018511657358
% es.tEY (V/m) @ t=0.98
0
% es.tEZ (V/m) @ t=0.98
1.9885351320127427
% es.Ex (V/m) @ t=0.98
0.6473018511657338
% es.Ey (V/m) @ t=0.98
0.1568194718693805
% es.Ez (V/m) @ t=0.98
1.9885351320127418
% es.tEx (V/m) @ t=0.98
0.6473018511657358
% es.tEy (V/m) @ t=0.98
0
% es.tEz (V/m) @ t=0.98
1.9885351320127427
% V (V) @ t=0.98
0.009808131837497385
% es.normE (V/m) @ t=1
2.115917946360679
% es.EX (V/m) @ t=1
0.6531035192397548
% es.EY (V/m) @ t=1
0.1582251056993499
% es.EZ (V/m) @ t=1
2.0063576983658824
% es.tEX (V/m) @ t=1
0.6531035192397496
% es.tEY (V/m) @ t=1
0
% es.tEZ (V/m) @ t=1
2.0063576983658926
% es.Ex (V/m) @ t=1
0.6531035192397548
% es.Ey (V/m) @ t=1
0.1582251056993499
% es.Ez (V/m) @ t=1
2.0063576983658824
% es.tEx (V/m) @ t=1
0.6531035192397496
% es.tEy (V/m) @ t=1
0
% es.tEz (V/m) @ t=1
2.0063576983658926
% V (V) @ t=1
0.009896014121291551
% es.normE (V/m) @ t=1.02
2.134713786443922
% es.EX (V/m) @ t=1.02
0.6589051873137518
% es.EY (V/m) @ t=1.02
0.15963073952932838
% es.EZ (V/m) @ t=1.02
2.0241802647190292
% es.tEX (V/m) @ t=1.02
0.6589051873137493
% es.tEY (V/m) @ t=1.02
0
% es.tEZ (V/m) @ t=1.02
2.0241802647190426
% es.Ex (V/m) @ t=1.02
0.6589051873137518
% es.Ey (V/m) @ t=1.02
0.15963073952932838
% es.Ez (V/m) @ t=1.02
2.0241802647190292
% es.tEx (V/m) @ t=1.02
0.6589051873137493
% es.tEy (V/m) @ t=1.02
0
% es.tEz (V/m) @ t=1.02
2.0241802647190426
% V (V) @ t=1.02
0.00998389640508572
% es.normE (V/m) @ t=1.04
2.1535096265271756
% es.EX (V/m) @ t=1.04
0.6647068553877484
% es.EY (V/m) @ t=1.04
0.16103637335929655
% es.EZ (V/m) @ t=1.04
2.0420028310721694
% es.tEX (V/m) @ t=1.04
0.6647068553877489
% es.tEY (V/m) @ t=1.04
0
% es.tEZ (V/m) @ t=1.04
2.042002831072171
% es.Ex (V/m) @ t=1.04
0.6647068553877484
% es.Ey (V/m) @ t=1.04
0.16103637335929655
% es.Ez (V/m) @ t=1.04