% Model:              1 neuron.mph
% Version:            COMSOL 6.0.0.405
% Date:               Mar 9 2023, 13:27
% Dimension:          0
% Nodes:              14017
% Expressions:        14017
% Description:        Electric field norm, Electric field, X component, Electric field, Y component, Electric field, Z component, Tangential electric field, X component, Tangential electric field, Y component, Tangential electric field, Z component, Electric field, x component, Electric field, y component, Electric field, z component, Tangential electric field, x component, Tangential electric field, y component, Tangential electric field, z component, Electric potential
% Length unit:        mm
% x
1.3300000000000003
% y
12.200000000000001
% z
1.66
% es.normE (V/m) @ t=0
7.306721728987723
% es.EX (V/m) @ t=0
4.636842283850655
% es.EY (V/m) @ t=0
1.3865776937420466
% es.EZ (V/m) @ t=0
-5.079047717316287
% es.tEX (V/m) @ t=0
4.636842283850645
% es.tEY (V/m) @ t=0
0
% es.tEZ (V/m) @ t=0
-5.079047717316273
% es.Ex (V/m) @ t=0
4.636842283850655
% es.Ey (V/m) @ t=0
1.3865776937420466
% es.Ez (V/m) @ t=0
-5.079047717316287
% es.tEx (V/m) @ t=0
4.636842283850645
% es.tEy (V/m) @ t=0
0
% es.tEz (V/m) @ t=0
-5.079047717316273
% V (V) @ t=0
0.006258781739541303
% es.normE (V/m) @ t=0.02
6.310947640328013
% es.EX (V/m) @ t=0.02
4.004924499933187
% es.EY (V/m) @ t=0.02
1.1976122216762788
% es.EZ (V/m) @ t=0.02
-4.386865327660685
% es.tEX (V/m) @ t=0.02
4.00492449993318
% es.tEY (V/m) @ t=0.02
0
% es.tEZ (V/m) @ t=0.02
-4.386865327660674
% es.Ex (V/m) @ t=0.02
4.004924499933187
% es.Ey (V/m) @ t=0.02
1.1976122216762788
% es.Ez (V/m) @ t=0.02
-4.386865327660685
% es.tEx (V/m) @ t=0.02
4.00492449993318
% es.tEy (V/m) @ t=0.02
0
% es.tEz (V/m) @ t=0.02
-4.386865327660674
% V (V) @ t=0.02
0.0054058229191726965
% es.normE (V/m) @ t=0.04
6.368987126464848
% es.EX (V/m) @ t=0.04
4.041756332271543
% es.EY (V/m) @ t=0.04
1.2086262204034235
% es.EZ (V/m) @ t=0.04
-4.427209728496626
% es.tEX (V/m) @ t=0.04
4.041756332271536
% es.tEY (V/m) @ t=0.04
0
% es.tEZ (V/m) @ t=0.04
-4.427209728496611
% es.Ex (V/m) @ t=0.04
4.041756332271543
% es.Ey (V/m) @ t=0.04
1.2086262204034235
% es.Ez (V/m) @ t=0.04
-4.427209728496626
% es.tEx (V/m) @ t=0.04
4.041756332271536
% es.tEy (V/m) @ t=0.04
0
% es.tEz (V/m) @ t=0.04
-4.427209728496611
% V (V) @ t=0.04
0.005455538318454896
% es.normE (V/m) @ t=0.06
6.427555966094118
% es.EX (V/m) @ t=0.06
4.078924094109116
% es.EY (V/m) @ t=0.06
1.2197406617638644
% es.EZ (V/m) @ t=0.06
-4.467922090353039
% es.tEX (V/m) @ t=0.06
4.078924094109102
% es.tEY (V/m) @ t=0.06
0
% es.tEZ (V/m) @ t=0.06
-4.467922090353032
% es.Ex (V/m) @ t=0.06
4.078924094109116
% es.Ey (V/m) @ t=0.06
1.2197406617638644
% es.Ez (V/m) @ t=0.06
-4.467922090353039
% es.tEx (V/m) @ t=0.06
4.078924094109102
% es.tEy (V/m) @ t=0.06
0
% es.tEz (V/m) @ t=0.06
-4.467922090353032
% V (V) @ t=0.06
0.005505707189795943
% es.normE (V/m) @ t=0.08
6.487004419749612
% es.EX (V/m) @ t=0.08
4.116650063367255
% es.EY (V/m) @ t=0.08
1.2310219991279545
% es.EZ (V/m) @ t=0.08
-4.509245882157272
% es.tEX (V/m) @ t=0.08
4.11665006336724
% es.tEY (V/m) @ t=0.08
0
% es.tEZ (V/m) @ t=0.08
-4.509245882157257
% es.Ex (V/m) @ t=0.08
4.116650063367255
% es.Ey (V/m) @ t=0.08
1.2310219991279545
% es.Ez (V/m) @ t=0.08
-4.509245882157272
% es.tEx (V/m) @ t=0.08
4.11665006336724
% es.tEy (V/m) @ t=0.08
0
% es.tEz (V/m) @ t=0.08
-4.509245882157257
% V (V) @ t=0.08
0.005556629608763778
% es.normE (V/m) @ t=0.1
6.547093912179134
% es.EX (V/m) @ t=0.1
4.1547828390085115
% es.EY (V/m) @ t=0.1
1.2424249657594257
% es.EZ (V/m) @ t=0.1
-4.551015267474632
% es.tEX (V/m) @ t=0.1
4.154782839008506
% es.tEY (V/m) @ t=0.1
0
% es.tEZ (V/m) @ t=0.1
-4.551015267474621
% es.Ex (V/m) @ t=0.1
4.1547828390085115
% es.Ey (V/m) @ t=0.1
1.2424249657594257
% es.Ez (V/m) @ t=0.1
-4.551015267474632
% es.tEx (V/m) @ t=0.1
4.154782839008506
% es.tEy (V/m) @ t=0.1
0
% es.tEz (V/m) @ t=0.1
-4.551015267474621
% V (V) @ t=0.1
0.005608101192743161
% es.normE (V/m) @ t=0.12
6.607183404608664
% es.EX (V/m) @ t=0.12
4.192915614649767
% es.EY (V/m) @ t=0.12
1.2538279323909056
% es.EZ (V/m) @ t=0.12
-4.592784652791998
% es.tEX (V/m) @ t=0.12
4.192915614649756
% es.tEY (V/m) @ t=0.12
0
% es.tEZ (V/m) @ t=0.12
-4.5927846527919876
% es.Ex (V/m) @ t=0.12
4.192915614649767
% es.Ey (V/m) @ t=0.12
1.2538279323909056
% es.Ez (V/m) @ t=0.12
-4.592784652791998
% es.tEx (V/m) @ t=0.12
4.192915614649756
% es.tEy (V/m) @ t=0.12
0
% es.tEz (V/m) @ t=0.12
-4.5927846527919876
% V (V) @ t=0.12
0.005659572776722543
% es.normE (V/m) @ t=0.14
6.667809886054089
% es.EX (V/m) @ t=0.14
4.231389160735089
% es.EY (V/m) @ t=0.14
1.2653328160112276
% es.EZ (V/m) @ t=0.14
-4.634927313751929
% es.tEX (V/m) @ t=0.14
4.23138916073508
% es.tEY (V/m) @ t=0.14
0
% es.tEZ (V/m) @ t=0.14
-4.634927313751917
% es.Ex (V/m) @ t=0.14
4.231389160735089
% es.Ey (V/m) @ t=0.14
1.2653328160112276
% es.Ez (V/m) @ t=0.14
-4.634927313751929
% es.tEx (V/m) @ t=0.14
4.23138916073508
% es.tEy (V/m) @ t=0.14
0
% es.tEz (V/m) @ t=0.14
-4.634927313751917
% V (V) @ t=0.14
0.0057115042862819695
% es.normE (V/m) @ t=0.16
6.731117100687403
% es.EX (V/m) @ t=0.16
4.271563886196182
% es.EY (V/m) @ t=0.16
1.2773464851865504
% es.EZ (V/m) @ t=0.16
-4.678933425124553
% es.tEX (V/m) @ t=0.16
4.271563886196164
% es.tEY (V/m) @ t=0.16
0
% es.tEZ (V/m) @ t=0.16
-4.678933425124542
% es.Ex (V/m) @ t=0.16
4.271563886196182
% es.Ey (V/m) @ t=0.16
1.2773464851865504
% es.Ez (V/m) @ t=0.16
-4.678933425124553
% es.tEx (V/m) @ t=0.16
4.271563886196164
% es.tEy (V/m) @ t=0.16
0
% es.tEz (V/m) @ t=0.16
-4.678933425124542
% V (V) @ t=0.16
0.005765731816299723
% es.normE (V/m) @ t=0.18
6.7944243153207085
% es.EX (V/m) @ t=0.18
4.311738611657237
% es.EY (V/m) @ t=0.18
1.2893601543618838
% es.EZ (V/m) @ t=0.18
-4.722939536497174
% es.tEX (V/m) @ t=0.18
4.311738611657233
% es.tEY (V/m) @ t=0.18
0
% es.tEZ (V/m) @ t=0.18
-4.722939536497166
% es.Ex (V/m) @ t=0.18
4.311738611657237
% es.Ey (V/m) @ t=0.18
1.2893601543618838
% es.Ez (V/m) @ t=0.18
-4.722939536497174
% es.tEx (V/m) @ t=0.18
4.311738611657233
% es.tEy (V/m) @ t=0.18
0
% es.tEz (V/m) @ t=0.18
-4.722939536497166
% V (V) @ t=0.18
0.005819959346317474
% es.normE (V/m) @ t=0.2
6.857731529954018
% es.EX (V/m) @ t=0.2
4.3519133371183205
% es.EY (V/m) @ t=0.2
1.3013738235372136
% es.EZ (V/m) @ t=0.2
-4.766945647869788
% es.tEX (V/m) @ t=0.2
4.351913337118313
% es.tEY (V/m) @ t=0.2
0
% es.tEZ (V/m) @ t=0.2
-4.766945647869784
% es.Ex (V/m) @ t=0.2
4.3519133371183205
% es.Ey (V/m) @ t=0.2
1.3013738235372136
% es.Ez (V/m) @ t=0.2
-4.766945647869788
% es.tEx (V/m) @ t=0.2
4.351913337118313
% es.tEy (V/m) @ t=0.2
0
% es.tEz (V/m) @ t=0.2
-4.766945647869784
% V (V) @ t=0.2
0.005874186876335228
% es.normE (V/m) @ t=0.22
6.921038744587335
% es.EX (V/m) @ t=0.22
4.392088062579389
% es.EY (V/m) @ t=0.22
1.313387492712526
% es.EZ (V/m) @ t=0.22
-4.810951759242423
% es.tEX (V/m) @ t=0.22
4.392088062579374
% es.tEY (V/m) @ t=0.22
0
% es.tEZ (V/m) @ t=0.22
-4.810951759242411
% es.Ex (V/m) @ t=0.22
4.392088062579389
% es.Ey (V/m) @ t=0.22
1.313387492712526
% es.Ez (V/m) @ t=0.22
-4.810951759242423
% es.tEx (V/m) @ t=0.22
4.392088062579374
% es.tEy (V/m) @ t=0.22
0
% es.tEz (V/m) @ t=0.22
-4.810951759242411
% V (V) @ t=0.22
0.00592841440635298
% es.normE (V/m) @ t=0.24
6.984345959220636
% es.EX (V/m) @ t=0.24
4.432262788040471
% es.EY (V/m) @ t=0.24
1.3254011618878576
% es.EZ (V/m) @ t=0.24
-4.854957870615033
% es.tEX (V/m) @ t=0.24
4.432262788040461
% es.tEY (V/m) @ t=0.24
0
% es.tEZ (V/m) @ t=0.24
-4.854957870615025
% es.Ex (V/m) @ t=0.24
4.432262788040471
% es.Ey (V/m) @ t=0.24
1.3254011618878576
% es.Ez (V/m) @ t=0.24
-4.854957870615033
% es.tEx (V/m) @ t=0.24
4.432262788040461
% es.tEy (V/m) @ t=0.24
0
% es.tEz (V/m) @ t=0.24
-4.854957870615025
% V (V) @ t=0.24
0.005982641936370735
% es.normE (V/m) @ t=0.26
7.0476531738539485
% es.EX (V/m) @ t=0.26
4.472437513501547
% es.EY (V/m) @ t=0.26
1.3374148310631875
% es.EZ (V/m) @ t=0.26
-4.898963981987654
% es.tEX (V/m) @ t=0.26
4.4724375135015375
% es.tEY (V/m) @ t=0.26
0
% es.tEZ (V/m) @ t=0.26
-4.8989639819876425
% es.Ex (V/m) @ t=0.26
4.472437513501547
% es.Ey (V/m) @ t=0.26
1.3374148310631875
% es.Ez (V/m) @ t=0.26
-4.898963981987654
% es.tEx (V/m) @ t=0.26
4.4724375135015375
% es.tEy (V/m) @ t=0.26
0
% es.tEz (V/m) @ t=0.26
-4.8989639819876425
% V (V) @ t=0.26
0.006036869466388488
% es.normE (V/m) @ t=0.28
7.113450742243914
% es.EX (V/m) @ t=0.28
4.514192712449518
% es.EY (V/m) @ t=0.28
1.3499005649589544
% es.EZ (V/m) @ t=0.28
-4.9447010414513075
% es.tEX (V/m) @ t=0.28
4.5141927124495025
% es.tEY (V/m) @ t=0.28
0
% es.tEZ (V/m) @ t=0.28
-4.944701041451296
% es.Ex (V/m) @ t=0.28
4.514192712449518
% es.Ey (V/m) @ t=0.28
1.3499005649589544
% es.Ez (V/m) @ t=0.28
-4.9447010414513075
% es.tEx (V/m) @ t=0.28
4.5141927124495025
% es.tEy (V/m) @ t=0.28
0
% es.tEz (V/m) @ t=0.28
-4.944701041451296
% V (V) @ t=0.28
0.006093231965662891
% es.normE (V/m) @ t=0.3
7.184002317596742
% es.EX (V/m) @ t=0.3
4.558964985554336
% es.EY (V/m) @ t=0.3
1.3632874555525591
% es.EZ (V/m) @ t=0.3
-4.99374242635644
% es.tEX (V/m) @ t=0.3
4.558964985554338
% es.tEY (V/m) @ t=0.3
0
% es.tEZ (V/m) @ t=0.3
-4.993742426356429
% es.Ex (V/m) @ t=0.3
4.558964985554336
% es.Ey (V/m) @ t=0.3
1.3632874555525591
% es.Ez (V/m) @ t=0.3
-4.99374242635644
% es.tEx (V/m) @ t=0.3
4.558964985554338
% es.tEy (V/m) @ t=0.3
0
% es.tEz (V/m) @ t=0.3
-4.993742426356429
% V (V) @ t=0.3
0.006153670054071424
% es.normE (V/m) @ t=0.32
7.254553892950211
% es.EX (V/m) @ t=0.32
4.603737258659164
% es.EY (V/m) @ t=0.32
1.37667434614619
% es.EZ (V/m) @ t=0.32
-5.042783811261584
% es.tEX (V/m) @ t=0.32
4.60373725865916
% es.tEY (V/m) @ t=0.32
0
% es.tEZ (V/m) @ t=0.32
-5.042783811261569
% es.Ex (V/m) @ t=0.32
4.603737258659164
% es.Ey (V/m) @ t=0.32
1.37667434614619
% es.Ez (V/m) @ t=0.32
-5.042783811261584
% es.tEx (V/m) @ t=0.32
4.60373725865916
% es.tEy (V/m) @ t=0.32
0
% es.tEz (V/m) @ t=0.32
-5.042783811261569
% V (V) @ t=0.32
0.006214108142479959
% es.normE (V/m) @ t=0.34
7.325105468304267
% es.EX (V/m) @ t=0.34
4.648509531764001
% es.EY (V/m) @ t=0.34
1.3900612367397822
% es.EZ (V/m) @ t=0.34
-5.091825196166699
% es.tEX (V/m) @ t=0.34
4.648509531763995
% es.tEY (V/m) @ t=0.34
0
% es.tEZ (V/m) @ t=0.34
-5.091825196166687
% es.Ex (V/m) @ t=0.34
4.648509531764001
% es.Ey (V/m) @ t=0.34
1.3900612367397822
% es.Ez (V/m) @ t=0.34
-5.091825196166699
% es.tEx (V/m) @ t=0.34
4.648509531763995
% es.tEy (V/m) @ t=0.34
0
% es.tEz (V/m) @ t=0.34
-5.091825196166687
% V (V) @ t=0.34
0.006274546230888494
% es.normE (V/m) @ t=0.36
7.395657043658927
% es.EX (V/m) @ t=0.36
4.69328180486883
% es.EY (V/m) @ t=0.36
1.4034481273333919
% es.EZ (V/m) @ t=0.36
-5.140866581071839
% es.tEX (V/m) @ t=0.36
4.693281804868821
% es.tEY (V/m) @ t=0.36
0
% es.tEZ (V/m) @ t=0.36
-5.140866581071828
% es.Ex (V/m) @ t=0.36
4.69328180486883
% es.Ey (V/m) @ t=0.36
1.4034481273333919
% es.Ez (V/m) @ t=0.36
-5.140866581071839
% es.tEx (V/m) @ t=0.36
4.693281804868821
% es.tEy (V/m) @ t=0.36
0
% es.tEz (V/m) @ t=0.36
-5.140866581071828
% V (V) @ t=0.36
0.006334984319297028
% es.normE (V/m) @ t=0.38
7.466208619014168
% es.EX (V/m) @ t=0.38
4.738054077973663
% es.EY (V/m) @ t=0.38
1.4168350179269982
% es.EZ (V/m) @ t=0.38
-5.189907965976982
% es.tEX (V/m) @ t=0.38
4.738054077973649
% es.tEY (V/m) @ t=0.38
0
% es.tEZ (V/m) @ t=0.38
-5.189907965976968
% es.Ex (V/m) @ t=0.38
4.738054077973663
% es.Ey (V/m) @ t=0.38
1.4168350179269982
% es.Ez (V/m) @ t=0.38
-5.189907965976982
% es.tEx (V/m) @ t=0.38
4.738054077973649
% es.tEy (V/m) @ t=0.38
0
% es.tEz (V/m) @ t=0.38
-5.189907965976968
% V (V) @ t=0.38
0.006395422407705562
% es.normE (V/m) @ t=0.4
7.536760194369938
% es.EX (V/m) @ t=0.4
4.782826351078472
% es.EY (V/m) @ t=0.4
1.4302219085206027
% es.EZ (V/m) @ t=0.4
-5.238949350882114
% es.tEX (V/m) @ t=0.4
4.782826351078459
% es.tEY (V/m) @ t=0.4
0
% es.tEZ (V/m) @ t=0.4
-5.2389493508821
% es.Ex (V/m) @ t=0.4
4.782826351078472
% es.Ey (V/m) @ t=0.4
1.4302219085206027
% es.Ez (V/m) @ t=0.4
-5.238949350882114
% es.tEx (V/m) @ t=0.4
4.782826351078459
% es.tEy (V/m) @ t=0.4
0
% es.tEz (V/m) @ t=0.4
-5.2389493508821
% V (V) @ t=0.4
0.006455860496114095
% es.normE (V/m) @ t=0.42
7.6073117697262695
% es.EX (V/m) @ t=0.42
4.827598624183311
% es.EY (V/m) @ t=0.42
1.443608799114216
% es.EZ (V/m) @ t=0.42
-5.287990735787255
% es.tEX (V/m) @ t=0.42
4.827598624183306
% es.tEY (V/m) @ t=0.42
0
% es.tEZ (V/m) @ t=0.42
-5.28799073578724
% es.Ex (V/m) @ t=0.42
4.827598624183311
% es.Ey (V/m) @ t=0.42
1.443608799114216
% es.Ez (V/m) @ t=0.42
-5.287990735787255
% es.tEx (V/m) @ t=0.42
4.827598624183306
% es.tEy (V/m) @ t=0.42
0
% es.tEz (V/m) @ t=0.42
-5.28799073578724
% V (V) @ t=0.42
0.00651629858452263
% es.normE (V/m) @ t=0.44
7.677863345083111
% es.EX (V/m) @ t=0.44
4.872370897288141
% es.EY (V/m) @ t=0.44
1.4569956897078065
% es.EZ (V/m) @ t=0.44
-5.337032120692377
% es.tEX (V/m) @ t=0.44
4.872370897288138
% es.tEY (V/m) @ t=0.44
0
% es.tEZ (V/m) @ t=0.44
-5.3370321206923625
% es.Ex (V/m) @ t=0.44
4.872370897288141
% es.Ey (V/m) @ t=0.44
1.4569956897078065
% es.Ez (V/m) @ t=0.44
-5.337032120692377
% es.tEx (V/m) @ t=0.44
4.872370897288138
% es.tEy (V/m) @ t=0.44
0
% es.tEz (V/m) @ t=0.44
-5.3370321206923625
% V (V) @ t=0.44
0.006576736672931163
% es.normE (V/m) @ t=0.46
7.7484149204404815
% es.EX (V/m) @ t=0.46
4.917143170392979
% es.EY (V/m) @ t=0.46
1.4703825803014001
% es.EZ (V/m) @ t=0.46
-5.386073505597521
% es.tEX (V/m) @ t=0.46
4.917143170392967
% es.tEY (V/m) @ t=0.46
0
% es.tEZ (V/m) @ t=0.46
-5.386073505597506
% es.Ex (V/m) @ t=0.46
4.917143170392979
% es.Ey (V/m) @ t=0.46
1.4703825803014001
% es.Ez (V/m) @ t=0.46
-5.386073505597521
% es.tEx (V/m) @ t=0.46
4.917143170392967
% es.tEy (V/m) @ t=0.46
0
% es.tEz (V/m) @ t=0.46
-5.386073505597506
% V (V) @ t=0.46
0.006637174761339698
% es.normE (V/m) @ t=0.48
7.818966495798336
% es.EX (V/m) @ t=0.48
4.9619154434978
% es.EY (V/m) @ t=0.48
1.4837694708950169
% es.EZ (V/m) @ t=0.48
-5.43511489050265
% es.tEX (V/m) @ t=0.48
4.961915443497793
% es.tEY (V/m) @ t=0.48
0
% es.tEZ (V/m) @ t=0.48
-5.435114890502636
% es.Ex (V/m) @ t=0.48
4.9619154434978
% es.Ey (V/m) @ t=0.48
1.4837694708950169
% es.Ez (V/m) @ t=0.48
-5.43511489050265
% es.tEx (V/m) @ t=0.48
4.961915443497793
% es.tEy (V/m) @ t=0.48
0
% es.tEz (V/m) @ t=0.48
-5.435114890502636
% V (V) @ t=0.48
0.006697612849748231
% es.normE (V/m) @ t=0.5
7.889518071156688
% es.EX (V/m) @ t=0.5
5.00668771660263
% es.EY (V/m) @ t=0.5
1.4971563614886252
% es.EZ (V/m) @ t=0.5
-5.484156275407793
% es.tEX (V/m) @ t=0.5
5.006687716602613
% es.tEY (V/m) @ t=0.5
0
% es.tEZ (V/m) @ t=0.5
-5.484156275407779
% es.Ex (V/m) @ t=0.5
5.00668771660263
% es.Ey (V/m) @ t=0.5
1.4971563614886252
% es.Ez (V/m) @ t=0.5
-5.484156275407793
% es.tEx (V/m) @ t=0.5
5.006687716602613
% es.tEy (V/m) @ t=0.5
0
% es.tEz (V/m) @ t=0.5
-5.484156275407779
% V (V) @ t=0.5
0.006758050938156766
% es.normE (V/m) @ t=0.52
7.9600696465155
% es.EX (V/m) @ t=0.52
5.051459989707455
% es.EY (V/m) @ t=0.52
1.510543252082235
% es.EZ (V/m) @ t=0.52
-5.533197660312926
% es.tEX (V/m) @ t=0.52
5.051459989707438
% es.tEY (V/m) @ t=0.52
0
% es.tEZ (V/m) @ t=0.52
-5.533197660312915
% es.Ex (V/m) @ t=0.52
5.051459989707455
% es.Ey (V/m) @ t=0.52
1.510543252082235
% es.Ez (V/m) @ t=0.52
-5.533197660312926
% es.tEx (V/m) @ t=0.52
5.051459989707438
% es.tEy (V/m) @ t=0.52
0
% es.tEz (V/m) @ t=0.52
-5.533197660312915
% V (V) @ t=0.52
0.0068184890265653
% es.normE (V/m) @ t=0.54
8.030621221874775
% es.EX (V/m) @ t=0.54
5.096232262812279
% es.EY (V/m) @ t=0.54
1.523930142675836
% es.EZ (V/m) @ t=0.54
-5.582239045218065
% es.tEX (V/m) @ t=0.54
5.096232262812274
% es.tEY (V/m) @ t=0.54
0
% es.tEZ (V/m) @ t=0.54
-5.582239045218055
% es.Ex (V/m) @ t=0.54
5.096232262812279
% es.Ey (V/m) @ t=0.54
1.523930142675836
% es.Ez (V/m) @ t=0.54
-5.582239045218065
% es.tEx (V/m) @ t=0.54
5.096232262812274
% es.tEy (V/m) @ t=0.54
0
% es.tEz (V/m) @ t=0.54
-5.582239045218055
% V (V) @ t=0.54
0.006878927114973834
% es.normE (V/m) @ t=0.56
8.1069013668841
% es.EX (V/m) @ t=0.56
5.144639933769773
% es.EY (V/m) @ t=0.56
1.5384038424902655
% es.EZ (V/m) @ t=0.56
-5.635262394665172
% es.tEX (V/m) @ t=0.56
5.144639933769767
% es.tEY (V/m) @ t=0.56
0
% es.tEZ (V/m) @ t=0.56
-5.6352623946651645
% es.Ex (V/m) @ t=0.56
5.144639933769773
% es.Ey (V/m) @ t=0.56
1.5384038424902655
% es.Ez (V/m) @ t=0.56
-5.635262394665172
% es.tEx (V/m) @ t=0.56
5.144639933769767
% es.tEy (V/m) @ t=0.56
0
% es.tEz (V/m) @ t=0.56
-5.6352623946651645
% V (V) @ t=0.56
0.006944273158447371
% es.normE (V/m) @ t=0.58
8.185665665953884
% es.EX (V/m) @ t=0.58
5.194624069514618
% es.EY (V/m) @ t=0.58
1.5533488295026185
% es.EZ (V/m) @ t=0.58
-5.690012495114345
% es.tEX (V/m) @ t=0.58
5.1946240695146155
% es.tEY (V/m) @ t=0.58
0
% es.tEZ (V/m) @ t=0.58
-5.690012495114331
% es.Ex (V/m) @ t=0.58
5.194624069514618
% es.Ey (V/m) @ t=0.58
1.5533488295026185
% es.Ez (V/m) @ t=0.58
-5.690012495114345
% es.tEx (V/m) @ t=0.58
5.1946240695146155
% es.tEy (V/m) @ t=0.58
0
% es.tEz (V/m) @ t=0.58
-5.690012495114331
% V (V) @ t=0.58
0.007011747502220206
% es.normE (V/m) @ t=0.6
8.264429965024366
% es.EX (V/m) @ t=0.6
5.244608205259462
% es.EY (V/m) @ t=0.6
1.5682938165149773
% es.EZ (V/m) @ t=0.6
-5.744762595563499
% es.tEX (V/m) @ t=0.6
5.244608205259457
% es.tEY (V/m) @ t=0.6
0
% es.tEZ (V/m) @ t=0.6
-5.744762595563491
% es.Ex (V/m) @ t=0.6
5.244608205259462
% es.Ey (V/m) @ t=0.6
1.5682938165149773
% es.Ez (V/m) @ t=0.6
-5.744762595563499
% es.tEx (V/m) @ t=0.6
5.244608205259457
% es.tEy (V/m) @ t=0.6
0
% es.tEz (V/m) @ t=0.6
-5.744762595563491
% V (V) @ t=0.6
0.007079221845993043
% es.normE (V/m) @ t=0.62
8.343194264095555
% es.EX (V/m) @ t=0.62
5.294592341004323
% es.EY (V/m) @ t=0.62
1.5832388035273215
% es.EZ (V/m) @ t=0.62
-5.799512696012668
% es.tEX (V/m) @ t=0.62
5.2945923410043125
% es.tEY (V/m) @ t=0.62
0
% es.tEZ (V/m) @ t=0.62
-5.799512696012657
% es.Ex (V/m) @ t=0.62
5.294592341004323
% es.Ey (V/m) @ t=0.62
1.5832388035273215
% es.Ez (V/m) @ t=0.62
-5.799512696012668
% es.tEx (V/m) @ t=0.62
5.2945923410043125
% es.tEy (V/m) @ t=0.62
0
% es.tEz (V/m) @ t=0.62
-5.799512696012657
% V (V) @ t=0.62
0.007146696189765877
% es.normE (V/m) @ t=0.64
8.421958563167397
% es.EX (V/m) @ t=0.64
5.344576476749177
% es.EY (V/m) @ t=0.64
1.5981837905396588
% es.EZ (V/m) @ t=0.64
-5.854262796461828
% es.tEX (V/m) @ t=0.64
5.344576476749161
% es.tEY (V/m) @ t=0.64
0
% es.tEZ (V/m) @ t=0.64
-5.854262796461818
% es.Ex (V/m) @ t=0.64
5.344576476749177
% es.Ey (V/m) @ t=0.64
1.5981837905396588
% es.Ez (V/m) @ t=0.64
-5.854262796461828
% es.tEx (V/m) @ t=0.64
5.344576476749161
% es.tEy (V/m) @ t=0.64
0
% es.tEz (V/m) @ t=0.64
-5.854262796461818
% V (V) @ t=0.64
0.007214170533538716
% es.normE (V/m) @ t=0.66
8.500722862239884
% es.EX (V/m) @ t=0.66
5.394560612494015
% es.EY (V/m) @ t=0.66
1.6131287775519887
% es.EZ (V/m) @ t=0.66
-5.909012896910991
% es.tEX (V/m) @ t=0.66
5.394560612494002
% es.tEY (V/m) @ t=0.66
0
% es.tEZ (V/m) @ t=0.66
-5.909012896910977
% es.Ex (V/m) @ t=0.66
5.394560612494015
% es.Ey (V/m) @ t=0.66
1.6131287775519887
% es.Ez (V/m) @ t=0.66
-5.909012896910991
% es.tEx (V/m) @ t=0.66
5.394560612494002
% es.tEy (V/m) @ t=0.66
0
% es.tEz (V/m) @ t=0.66
-5.909012896910977
% V (V) @ t=0.66
0.007281644877311551
% es.normE (V/m) @ t=0.68
8.579487161313018
% es.EX (V/m) @ t=0.68
5.444544748238856
% es.EY (V/m) @ t=0.68
1.6280737645643542
% es.EZ (V/m) @ t=0.68
-5.963762997360162
% es.tEX (V/m) @ t=0.68
5.444544748238844
% es.tEY (V/m) @ t=0.68
0
% es.tEZ (V/m) @ t=0.68
-5.963762997360147
% es.Ex (V/m) @ t=0.68
5.444544748238856
% es.Ey (V/m) @ t=0.68
1.6280737645643542
% es.Ez (V/m) @ t=0.68
-5.963762997360162
% es.tEx (V/m) @ t=0.68
5.444544748238844
% es.tEy (V/m) @ t=0.68
0
% es.tEz (V/m) @ t=0.68
-5.963762997360147
% V (V) @ t=0.68
0.007349119221084388
% es.normE (V/m) @ t=0.7
8.658251460386765
% es.EX (V/m) @ t=0.7
5.494528883983705
% es.EY (V/m) @ t=0.7
1.6430187515767019
% es.EZ (V/m) @ t=0.7
-6.018513097809333
% es.tEX (V/m) @ t=0.7
5.494528883983685
% es.tEY (V/m) @ t=0.7
0
% es.tEZ (V/m) @ t=0.7
-6.018513097809321
% es.Ex (V/m) @ t=0.7
5.494528883983705
% es.Ey (V/m) @ t=0.7
1.6430187515767019
% es.Ez (V/m) @ t=0.7
-6.018513097809333
% es.tEx (V/m) @ t=0.7
5.494528883983685
% es.tEy (V/m) @ t=0.7
0
% es.tEz (V/m) @ t=0.7
-6.018513097809321
% V (V) @ t=0.7
0.007416593564857225
% es.normE (V/m) @ t=0.72
8.737015759461096
% es.EX (V/m) @ t=0.72
5.544513019728553
% es.EY (V/m) @ t=0.72
1.6579637385890145
% es.EZ (V/m) @ t=0.72
-6.073263198258492
% es.tEX (V/m) @ t=0.72
5.544513019728537
% es.tEY (V/m) @ t=0.72
0
% es.tEZ (V/m) @ t=0.72
-6.073263198258484
% es.Ex (V/m) @ t=0.72
5.544513019728553
% es.Ey (V/m) @ t=0.72
1.6579637385890145
% es.Ez (V/m) @ t=0.72
-6.073263198258492
% es.tEx (V/m) @ t=0.72
5.544513019728537
% es.tEy (V/m) @ t=0.72
0
% es.tEz (V/m) @ t=0.72
-6.073263198258484
% V (V) @ t=0.72
0.007484067908630061
% es.normE (V/m) @ t=0.74
8.815780058536024
% es.EX (V/m) @ t=0.74
5.594497155473395
% es.EY (V/m) @ t=0.74
1.6729087256013728
% es.EZ (V/m) @ t=0.74
-6.128013298707666
% es.tEX (V/m) @ t=0.74
5.594497155473386
% es.tEY (V/m) @ t=0.74
0
% es.tEZ (V/m) @ t=0.74
-6.1280132987076446
% es.Ex (V/m) @ t=0.74
5.594497155473395
% es.Ey (V/m) @ t=0.74
1.6729087256013728
% es.Ez (V/m) @ t=0.74
-6.128013298707666
% es.tEx (V/m) @ t=0.74
5.594497155473386
% es.tEy (V/m) @ t=0.74
0
% es.tEz (V/m) @ t=0.74
-6.1280132987076446
% V (V) @ t=0.74
0.007551542252402895
% es.normE (V/m) @ t=0.76
8.894544357611508
% es.EX (V/m) @ t=0.76
5.644481291218236
% es.EY (V/m) @ t=0.76
1.6878537126137276
% es.EZ (V/m) @ t=0.76
-6.182763399156818
% es.tEX (V/m) @ t=0.76
5.644481291218226
% es.tEY (V/m) @ t=0.76
0
% es.tEZ (V/m) @ t=0.76
-6.182763399156803
% es.Ex (V/m) @ t=0.76
5.644481291218236
% es.Ey (V/m) @ t=0.76
1.6878537126137276
% es.Ez (V/m) @ t=0.76
-6.182763399156818
% es.tEx (V/m) @ t=0.76
5.644481291218226
% es.tEy (V/m) @ t=0.76
0
% es.tEz (V/m) @ t=0.76
-6.182763399156803
% V (V) @ t=0.76
0.007619016596175732
% es.normE (V/m) @ t=0.78
8.973308656687554
% es.EX (V/m) @ t=0.78
5.6944654269630846
% es.EY (V/m) @ t=0.78
1.7027986996260651
% es.EZ (V/m) @ t=0.78
-6.2375134996059955
% es.tEX (V/m) @ t=0.78
5.694465426963076
% es.tEY (V/m) @ t=0.78
0
% es.tEZ (V/m) @ t=0.78
-6.237513499605981
% es.Ex (V/m) @ t=0.78
5.6944654269630846
% es.Ey (V/m) @ t=0.78
1.7027986996260651
% es.Ez (V/m) @ t=0.78
-6.2375134996059955
% es.tEx (V/m) @ t=0.78
5.694465426963076
% es.tEy (V/m) @ t=0.78
0
% es.tEz (V/m) @ t=0.78
-6.237513499605981
% V (V) @ t=0.78
0.007686490939948569
% es.normE (V/m) @ t=0.8
9.052072955764135
% es.EX (V/m) @ t=0.8
5.744449562707944
% es.EY (V/m) @ t=0.8
1.7177436866384093
% es.EZ (V/m) @ t=0.8
-6.292263600055142
% es.tEX (V/m) @ t=0.8
5.744449562707931
% es.tEY (V/m) @ t=0.8
0
% es.tEZ (V/m) @ t=0.8
-6.2922636000551195
% es.Ex (V/m) @ t=0.8
5.744449562707944
% es.Ey (V/m) @ t=0.8
1.7177436866384093
% es.Ez (V/m) @ t=0.8
-6.292263600055142
% es.tEx (V/m) @ t=0.8
5.744449562707931
% es.tEy (V/m) @ t=0.8
0
% es.tEz (V/m) @ t=0.8
-6.2922636000551195
% V (V) @ t=0.8
0.007753965283721406
% es.normE (V/m) @ t=0.82
9.131315592520192
% es.EX (V/m) @ t=0.82
5.794737244248649
% es.EY (V/m) @ t=0.82
1.7327794854306973
% es.EZ (V/m) @ t=0.82
-6.347346213372058
% es.tEX (V/m) @ t=0.82
5.794737244248637
% es.tEY (V/m) @ t=0.82
0
% es.tEZ (V/m) @ t=0.82
-6.347346213372036
% es.Ex (V/m) @ t=0.82
5.794737244248649
% es.Ey (V/m) @ t=0.82
1.7327794854306973
% es.Ez (V/m) @ t=0.82
-6.347346213372058
% es.tEx (V/m) @ t=0.82
5.794737244248637
% es.tEy (V/m) @ t=0.82
0
% es.tEz (V/m) @ t=0.82
-6.347346213372036
% V (V) @ t=0.82
0.007821849228518762
% es.normE (V/m) @ t=0.84
9.219407305064951
% es.EX (V/m) @ t=0.84
5.8506404143259445
% es.EY (V/m) @ t=0.84
1.7494952696361739
% es.EZ (V/m) @ t=0.84
-6.408580195683709
% es.tEX (V/m) @ t=0.84
5.850640414325935
% es.tEY (V/m) @ t=0.84
0
% es.tEZ (V/m) @ t=0.84
-6.408580195683687
% es.Ex (V/m) @ t=0.84
5.8506404143259445
% es.Ey (V/m) @ t=0.84
1.7494952696361739
% es.Ez (V/m) @ t=0.84
-6.408580195683709
% es.tEx (V/m) @ t=0.84
5.850640414325935
% es.tEy (V/m) @ t=0.84
0
% es.tEz (V/m) @ t=0.84
-6.408580195683687
% V (V) @ t=0.84
0.00789731064560916
% es.normE (V/m) @ t=0.86
9.307499017609837
% es.EX (V/m) @ t=0.86
5.906543584403271
% es.EY (V/m) @ t=0.86
1.7662110538416043
% es.EZ (V/m) @ t=0.86
-6.469814177995359
% es.tEX (V/m) @ t=0.86
5.906543584403257
% es.tEY (V/m) @ t=0.86
0
% es.tEZ (V/m) @ t=0.86
-6.469814177995345
% es.Ex (V/m) @ t=0.86
5.906543584403271
% es.Ey (V/m) @ t=0.86
1.7662110538416043
% es.Ez (V/m) @ t=0.86
-6.469814177995359
% es.tEx (V/m) @ t=0.86
5.906543584403257
% es.tEy (V/m) @ t=0.86
0
% es.tEz (V/m) @ t=0.86
-6.469814177995345
% V (V) @ t=0.86
0.007972772062699559
% es.normE (V/m) @ t=0.88
9.395590730154801
% es.EX (V/m) @ t=0.88
5.962446754480577
% es.EY (V/m) @ t=0.88
1.7829268380470804
% es.EZ (V/m) @ t=0.88
-6.5310481603070025
% es.tEX (V/m) @ t=0.88
5.9624467544805615
% es.tEY (V/m) @ t=0.88
0
% es.tEZ (V/m) @ t=0.88
-6.531048160306987
% es.Ex (V/m) @ t=0.88
5.962446754480577
% es.Ey (V/m) @ t=0.88
1.7829268380470804
% es.Ez (V/m) @ t=0.88
-6.5310481603070025
% es.tEx (V/m) @ t=0.88
5.9624467544805615
% es.tEy (V/m) @ t=0.88
0
% es.tEz (V/m) @ t=0.88
-6.531048160306987
% V (V) @ t=0.88
0.00804823347978996
% es.normE (V/m) @ t=0.9
9.48368244269988
% es.EX (V/m) @ t=0.9
6.01834992455788
% es.EY (V/m) @ t=0.9
1.799642622252561
% es.EZ (V/m) @ t=0.9
-6.592282142618649
% es.tEX (V/m) @ t=0.9
6.018349924557863
% es.tEY (V/m) @ t=0.9
0
% es.tEZ (V/m) @ t=0.9
-6.592282142618634
% es.Ex (V/m) @ t=0.9
6.01834992455788
% es.Ey (V/m) @ t=0.9
1.799642622252561
% es.Ez (V/m) @ t=0.9
-6.592282142618649
% es.tEx (V/m) @ t=0.9
6.018349924557863
% es.tEy (V/m) @ t=0.9
0
% es.tEz (V/m) @ t=0.9
-6.592282142618634
% V (V) @ t=0.9
0.008123694896880355
% es.normE (V/m) @ t=0.92
9.571774155245041
% es.EX (V/m) @ t=0.92
6.074253094635193
% es.EY (V/m) @ t=0.92
1.8163584064580482
% es.EZ (V/m) @ t=0.92
-6.653516124930282
% es.tEX (V/m) @ t=0.92
6.074253094635182
% es.tEY (V/m) @ t=0.92
0
% es.tEZ (V/m) @ t=0.92
-6.653516124930267
% es.Ex (V/m) @ t=0.92
6.074253094635193
% es.Ey (V/m) @ t=0.92
1.8163584064580482
% es.Ez (V/m) @ t=0.92
-6.653516124930282
% es.tEx (V/m) @ t=0.92
6.074253094635182
% es.tEy (V/m) @ t=0.92
0
% es.tEz (V/m) @ t=0.92
-6.653516124930267
% V (V) @ t=0.92
0.008199156313970755
% es.normE (V/m) @ t=0.94
9.659865867790321
% es.EX (V/m) @ t=0.94
6.130156264712509
% es.EY (V/m) @ t=0.94
1.8330741906634964
% es.EZ (V/m) @ t=0.94
-6.714750107241944
% es.tEX (V/m) @ t=0.94
6.130156264712498
% es.tEY (V/m) @ t=0.94
0
% es.tEZ (V/m) @ t=0.94
-6.714750107241929
% es.Ex (V/m) @ t=0.94
6.130156264712509
% es.Ey (V/m) @ t=0.94
1.8330741906634964
% es.Ez (V/m) @ t=0.94
-6.714750107241944
% es.tEx (V/m) @ t=0.94
6.130156264712498
% es.tEy (V/m) @ t=0.94
0
% es.tEz (V/m) @ t=0.94
-6.714750107241929
% V (V) @ t=0.94
0.008274617731061156
% es.normE (V/m) @ t=0.96
9.747957580335697
% es.EX (V/m) @ t=0.96
6.186059434789817
% es.EY (V/m) @ t=0.96
1.8497899748689584
% es.EZ (V/m) @ t=0.96
-6.775984089553598
% es.tEX (V/m) @ t=0.96
6.186059434789799
% es.tEY (V/m) @ t=0.96
0
% es.tEZ (V/m) @ t=0.96
-6.775984089553583
% es.Ex (V/m) @ t=0.96
6.186059434789817
% es.Ey (V/m) @ t=0.96
1.8497899748689584
% es.Ez (V/m) @ t=0.96
-6.775984089553598
% es.tEx (V/m) @ t=0.96
6.186059434789799
% es.tEy (V/m) @ t=0.96
0
% es.tEz (V/m) @ t=0.96
-6.775984089553583
% V (V) @ t=0.96
0.008350079148151553
% es.normE (V/m) @ t=0.98
9.83604929288115
% es.EX (V/m) @ t=0.98
6.2419626048671315
% es.EY (V/m) @ t=0.98
1.8665057590744425
% es.EZ (V/m) @ t=0.98
-6.83721807186524
% es.tEX (V/m) @ t=0.98
6.241962604867114
% es.tEY (V/m) @ t=0.98
0
% es.tEZ (V/m) @ t=0.98
-6.837218071865226
% es.Ex (V/m) @ t=0.98
6.2419626048671315
% es.Ey (V/m) @ t=0.98
1.8665057590744425
% es.Ez (V/m) @ t=0.98
-6.83721807186524
% es.tEx (V/m) @ t=0.98
6.241962604867114
% es.tEy (V/m) @ t=0.98
0
% es.tEz (V/m) @ t=0.98
-6.837218071865226
% V (V) @ t=0.98
0.008425540565241954
% es.normE (V/m) @ t=1
9.924141005426687
% es.EX (V/m) @ t=1
6.297865774944437
% es.EY (V/m) @ t=1
1.8832215432798796
% es.EZ (V/m) @ t=1
-6.898452054176888
% es.tEX (V/m) @ t=1
6.297865774944429
% es.tEY (V/m) @ t=1
0
% es.tEZ (V/m) @ t=1
-6.898452054176873
% es.Ex (V/m) @ t=1
6.297865774944437
% es.Ey (V/m) @ t=1
1.8832215432798796
% es.Ez (V/m) @ t=1
-6.898452054176888
% es.tEx (V/m) @ t=1
6.297865774944429
% es.tEy (V/m) @ t=1
0
% es.tEz (V/m) @ t=1
-6.898452054176873
% V (V) @ t=1
0.008501001982332355
% es.normE (V/m) @ t=1.02
10.012232717972331
% es.EX (V/m) @ t=1.02
6.353768945021745
% es.EY (V/m) @ t=1.02
1.8999373274853673
% es.EZ (V/m) @ t=1.02
-6.959686036488549
% es.tEX (V/m) @ t=1.02
6.353768945021737
% es.tEY (V/m) @ t=1.02
0
% es.tEZ (V/m) @ t=1.02
-6.9596860364885265
% es.Ex (V/m) @ t=1.02
6.353768945021745
% es.Ey (V/m) @ t=1.02
1.8999373274853673
% es.Ez (V/m) @ t=1.02
-6.959686036488549
% es.tEx (V/m) @ t=1.02
6.353768945021737
% es.tEy (V/m) @ t=1.02
0
% es.tEz (V/m) @ t=1.02
-6.9596860364885265
% V (V) @ t=1.02
0.00857646339942275
% es.normE (V/m) @ t=1.04
10.100324430518027
% es.EX (V/m) @ t=1.04
6.409672115099058
% es.EY (V/m) @ t=1.04
1.9166531116908185
% es.EZ (V/m) @ t=1.04
-7.020920018800167
% es.tEX (V/m) @ t=1.04
6.409672115099046
% es.tEY (V/m) @ t=1.04
0
% es.tEZ (V/m) @ t=1.04
-7.020920018800152
% es.Ex (V/m) @ t=1.04
6.409672115099058
% es.Ey (V/m) @ t=1.04
1.9166531116908185
% es.Ez (V/m) @ t=1.04
-7.020920018800167
% es.tEx (V/m) @ t=1.04
6.409672115099046
% es.tEy (V/m) @ t=1.04
0
% es.tEz (V/m) @ t=1.04
-7.020920018800152
% V (V) @ t=1.04
0.00865192481651315
% es.normE (V/m) @ t=1.06
10.188416143063845
% es.EX (V/m) @ t=1.06
6.465575285176383