% Model:              1 neuron.mph
% Version:            COMSOL 6.0.0.405
% Date:               Mar 9 2023, 13:17
% Dimension:          0
% Nodes:              14017
% Expressions:        14017
% Description:        Electric field norm, Electric field, X component, Electric field, Y component, Electric field, Z component, Tangential electric field, X component, Tangential electric field, Y component, Tangential electric field, Z component, Electric field, x component, Electric field, y component, Electric field, z component, Tangential electric field, x component, Tangential electric field, y component, Tangential electric field, z component, Electric potential
% Length unit:        mm
% x
1.3300000000000003
% y
12.200000000000001
% z
1.66
% es.normE (V/m) @ t=0
7.39890577429882
% es.EX (V/m) @ t=0
4.695343376100803
% es.EY (V/m) @ t=0
1.4040711449983656
% es.EZ (V/m) @ t=0
-5.143125853490901
% es.tEX (V/m) @ t=0
4.695343376100791
% es.tEY (V/m) @ t=0
0
% es.tEZ (V/m) @ t=0
-5.14312585349089
% es.Ex (V/m) @ t=0
4.695343376100803
% es.Ey (V/m) @ t=0
1.4040711449983656
% es.Ez (V/m) @ t=0
-5.143125853490901
% es.tEx (V/m) @ t=0
4.695343376100791
% es.tEy (V/m) @ t=0
0
% es.tEz (V/m) @ t=0
-5.14312585349089
% V (V) @ t=0
0.006337743873564491
% es.normE (V/m) @ t=0.02
6.390562763706346
% es.EX (V/m) @ t=0.02
4.0554492344012125
% es.EY (V/m) @ t=0.02
1.2127205092166258
% es.EZ (V/m) @ t=0.02
-4.4422066459637115
% es.tEX (V/m) @ t=0.02
4.055449234401202
% es.tEY (V/m) @ t=0.02
0
% es.tEZ (V/m) @ t=0.02
-4.442206645963701
% es.Ex (V/m) @ t=0.02
4.0554492344012125
% es.Ey (V/m) @ t=0.02
1.2127205092166258
% es.Ez (V/m) @ t=0.02
-4.4422066459637115
% es.tEx (V/m) @ t=0.02
4.055449234401202
% es.tEy (V/m) @ t=0.02
0
% es.tEz (V/m) @ t=0.02
-4.442206645963701
% V (V) @ t=0.02
0.005474018819457656
% es.normE (V/m) @ t=0.04
6.4493286259463645
% es.EX (V/m) @ t=0.04
4.092742056120998
% es.EY (V/m) @ t=0.04
1.2238723545228796
% es.EZ (V/m) @ t=0.04
-4.4830559422888125
% es.tEX (V/m) @ t=0.04
4.09274205612099
% es.tEY (V/m) @ t=0.04
0
% es.tEZ (V/m) @ t=0.04
-4.483055942288805
% es.Ex (V/m) @ t=0.04
4.092742056120998
% es.Ey (V/m) @ t=0.04
1.2238723545228796
% es.Ez (V/m) @ t=0.04
-4.4830559422888125
% es.tEx (V/m) @ t=0.04
4.09274205612099
% es.tEy (V/m) @ t=0.04
0
% es.tEz (V/m) @ t=0.04
-4.483055942288805
% V (V) @ t=0.04
0.00552435633573888
% es.normE (V/m) @ t=0.06
6.50862310915414
% es.EX (V/m) @ t=0.06
4.130370311320824
% es.EY (V/m) @ t=0.06
1.235124514726831
% es.EZ (V/m) @ t=0.06
-4.52427271574774
% es.tEX (V/m) @ t=0.06
4.130370311320809
% es.tEY (V/m) @ t=0.06
0
% es.tEZ (V/m) @ t=0.06
-4.5242727157477365
% es.Ex (V/m) @ t=0.06
4.130370311320824
% es.Ey (V/m) @ t=0.06
1.235124514726831
% es.Ez (V/m) @ t=0.06
-4.52427271574774
% es.tEx (V/m) @ t=0.06
4.130370311320809
% es.tEy (V/m) @ t=0.06
0
% es.tEz (V/m) @ t=0.06
-4.5242727157477365
% V (V) @ t=0.06
0.005575146732883173
% es.normE (V/m) @ t=0.08
6.568825389146389
% es.EX (V/m) @ t=0.08
4.168574650925247
% es.EY (V/m) @ t=0.08
1.2465489451008518
% es.EZ (V/m) @ t=0.08
-4.566120519154325
% es.tEX (V/m) @ t=0.08
4.168574650925246
% es.tEY (V/m) @ t=0.08
0
% es.tEZ (V/m) @ t=0.08
-4.566120519154321
% es.Ex (V/m) @ t=0.08
4.168574650925247
% es.Ey (V/m) @ t=0.08
1.2465489451008518
% es.Ez (V/m) @ t=0.08
-4.566120519154325
% es.tEx (V/m) @ t=0.08
4.168574650925246
% es.tEy (V/m) @ t=0.08
0
% es.tEz (V/m) @ t=0.08
-4.566120519154321
% V (V) @ t=0.08
0.005626714737272288
% es.normE (V/m) @ t=0.1
6.629652864328347
% es.EX (V/m) @ t=0.1
4.207175737031529
% es.EY (V/m) @ t=0.1
1.258092017095373
% es.EZ (V/m) @ t=0.1
-4.608402909788557
% es.tEX (V/m) @ t=0.1
4.2071757370315135
% es.tEY (V/m) @ t=0.1
0
% es.tEZ (V/m) @ t=0.1
-4.608402909788542
% es.Ex (V/m) @ t=0.1
4.207175737031529
% es.Ey (V/m) @ t=0.1
1.258092017095373
% es.Ez (V/m) @ t=0.1
-4.608402909788557
% es.tEx (V/m) @ t=0.1
4.2071757370315135
% es.tEy (V/m) @ t=0.1
0
% es.tEz (V/m) @ t=0.1
-4.608402909788542
% V (V) @ t=0.1
0.005678818275954138
% es.normE (V/m) @ t=0.12
6.690480339510288
% es.EX (V/m) @ t=0.12
4.2457768231378035
% es.EY (V/m) @ t=0.12
1.2696350890899173
% es.EZ (V/m) @ t=0.12
-4.650685300422775
% es.tEX (V/m) @ t=0.12
4.245776823137781
% es.tEY (V/m) @ t=0.12
0
% es.tEZ (V/m) @ t=0.12
-4.650685300422764
% es.Ex (V/m) @ t=0.12
4.2457768231378035
% es.Ey (V/m) @ t=0.12
1.2696350890899173
% es.Ez (V/m) @ t=0.12
-4.650685300422775
% es.tEx (V/m) @ t=0.12
4.245776823137781
% es.tEy (V/m) @ t=0.12
0
% es.tEz (V/m) @ t=0.12
-4.650685300422764
% V (V) @ t=0.12
0.005730921814635991
% es.normE (V/m) @ t=0.14
6.751938049690125
% es.EX (V/m) @ t=0.14
4.284777843782281
% es.EY (V/m) @ t=0.14
1.2812977590974788
% es.EZ (V/m) @ t=0.14
-4.693405789322299
% es.tEX (V/m) @ t=0.14
4.2847778437822654
% es.tEY (V/m) @ t=0.14
0
% es.tEZ (V/m) @ t=0.14
-4.693405789322289
% es.Ex (V/m) @ t=0.14
4.284777843782281
% es.Ey (V/m) @ t=0.14
1.2812977590974788
% es.Ez (V/m) @ t=0.14
-4.693405789322299
% es.tEx (V/m) @ t=0.14
4.2847778437822654
% es.tEy (V/m) @ t=0.14
0
% es.tEz (V/m) @ t=0.14
-4.693405789322289
% V (V) @ t=0.14
0.005783565231073668
% es.normE (V/m) @ t=0.16
6.816009124088437
% es.EX (V/m) @ t=0.16
4.325437253147474
% es.EY (V/m) @ t=0.16
1.2934563602559843
% es.EZ (V/m) @ t=0.16
-4.73794291857749
% es.tEX (V/m) @ t=0.16
4.325437253147465
% es.tEY (V/m) @ t=0.16
0
% es.tEZ (V/m) @ t=0.16
-4.737942918577478
% es.Ex (V/m) @ t=0.16
4.325437253147474
% es.Ey (V/m) @ t=0.16
1.2934563602559843
% es.Ez (V/m) @ t=0.16
-4.73794291857749
% es.tEx (V/m) @ t=0.16
4.325437253147465
% es.tEy (V/m) @ t=0.16
0
% es.tEz (V/m) @ t=0.16
-4.737942918577478
% V (V) @ t=0.16
0.005838447331834149
% es.normE (V/m) @ t=0.18
6.88008019848677
% es.EX (V/m) @ t=0.18
4.36609666251268
% es.EY (V/m) @ t=0.18
1.3056149614144634
% es.EZ (V/m) @ t=0.18
-4.78248004783269
% es.tEX (V/m) @ t=0.18
4.366096662512675
% es.tEY (V/m) @ t=0.18
0
% es.tEZ (V/m) @ t=0.18
-4.782480047832682
% es.Ex (V/m) @ t=0.18
4.36609666251268
% es.Ey (V/m) @ t=0.18
1.3056149614144634
% es.Ez (V/m) @ t=0.18
-4.78248004783269
% es.tEx (V/m) @ t=0.18
4.366096662512675
% es.tEy (V/m) @ t=0.18
0
% es.tEz (V/m) @ t=0.18
-4.782480047832682
% V (V) @ t=0.18
0.0058933294325946295
% es.normE (V/m) @ t=0.2
6.944151272885106
% es.EX (V/m) @ t=0.2
4.406756071877872
% es.EY (V/m) @ t=0.2
1.3177735625729674
% es.EZ (V/m) @ t=0.2
-4.827017177087898
% es.tEX (V/m) @ t=0.2
4.40675607187787
% es.tEY (V/m) @ t=0.2
0
% es.tEZ (V/m) @ t=0.2
-4.827017177087887
% es.Ex (V/m) @ t=0.2
4.406756071877872
% es.Ey (V/m) @ t=0.2
1.3177735625729674
% es.Ez (V/m) @ t=0.2
-4.827017177087898
% es.tEx (V/m) @ t=0.2
4.40675607187787
% es.tEy (V/m) @ t=0.2
0
% es.tEz (V/m) @ t=0.2
-4.827017177087887
% V (V) @ t=0.2
0.005948211533355111
% es.normE (V/m) @ t=0.22
7.008222347283429
% es.EX (V/m) @ t=0.22
4.447415481243081
% es.EY (V/m) @ t=0.22
1.3299321637314407
% es.EZ (V/m) @ t=0.22
-4.8715543063430875
% es.tEX (V/m) @ t=0.22
4.447415481243063
% es.tEY (V/m) @ t=0.22
0
% es.tEZ (V/m) @ t=0.22
-4.871554306343077
% es.Ex (V/m) @ t=0.22
4.447415481243081
% es.Ey (V/m) @ t=0.22
1.3299321637314407
% es.Ez (V/m) @ t=0.22
-4.8715543063430875
% es.tEx (V/m) @ t=0.22
4.447415481243063
% es.tEy (V/m) @ t=0.22
0
% es.tEz (V/m) @ t=0.22
-4.871554306343077
% V (V) @ t=0.22
0.006003093634115592
% es.normE (V/m) @ t=0.24
7.072293421681751
% es.EX (V/m) @ t=0.24
4.488074890608284
% es.EY (V/m) @ t=0.24
1.3420907648899323
% es.EZ (V/m) @ t=0.24
-4.916091435598274
% es.tEX (V/m) @ t=0.24
4.488074890608276
% es.tEY (V/m) @ t=0.24
0
% es.tEZ (V/m) @ t=0.24
-4.916091435598263
% es.Ex (V/m) @ t=0.24
4.488074890608284
% es.Ey (V/m) @ t=0.24
1.3420907648899323
% es.Ez (V/m) @ t=0.24
-4.916091435598274
% es.tEx (V/m) @ t=0.24
4.488074890608276
% es.tEy (V/m) @ t=0.24
0
% es.tEz (V/m) @ t=0.24
-4.916091435598263
% V (V) @ t=0.24
0.006057975734876072
% es.normE (V/m) @ t=0.26
7.136364496080091
% es.EX (V/m) @ t=0.26
4.52873429997348
% es.EY (V/m) @ t=0.26
1.3542493660484256
% es.EZ (V/m) @ t=0.26
-4.960628564853489
% es.tEX (V/m) @ t=0.26
4.528734299973468
% es.tEY (V/m) @ t=0.26
0
% es.tEZ (V/m) @ t=0.26
-4.9606285648534785
% es.Ex (V/m) @ t=0.26
4.52873429997348
% es.Ey (V/m) @ t=0.26
1.3542493660484256
% es.Ez (V/m) @ t=0.26
-4.960628564853489
% es.tEx (V/m) @ t=0.26
4.528734299973468
% es.tEy (V/m) @ t=0.26
0
% es.tEz (V/m) @ t=0.26
-4.9606285648534785
% V (V) @ t=0.26
0.006112857835636552
% es.normE (V/m) @ t=0.28
7.203345701778883
% es.EX (V/m) @ t=0.28
4.571239481450166
% es.EY (V/m) @ t=0.28
1.366960211762612
% es.EZ (V/m) @ t=0.28
-5.007189342533895
% es.tEX (V/m) @ t=0.28
4.571239481450149
% es.tEY (V/m) @ t=0.28
0
% es.tEZ (V/m) @ t=0.28
-5.007189342533883
% es.Ex (V/m) @ t=0.28
4.571239481450166
% es.Ey (V/m) @ t=0.28
1.366960211762612
% es.Ez (V/m) @ t=0.28
-5.007189342533895
% es.tEx (V/m) @ t=0.28
4.571239481450149
% es.tEy (V/m) @ t=0.28
0
% es.tEz (V/m) @ t=0.28
-5.007189342533883
% V (V) @ t=0.28
0.006170235262675489
% es.normE (V/m) @ t=0.3
7.274718445816555
% es.EX (V/m) @ t=0.3
4.616530028311948
% es.EY (V/m) @ t=0.3
1.3805044230152141
% es.EZ (V/m) @ t=0.3
-5.056803910137859
% es.tEX (V/m) @ t=0.3
4.6165300283119315
% es.tEY (V/m) @ t=0.3
0
% es.tEZ (V/m) @ t=0.3
-5.056803910137855
% es.Ex (V/m) @ t=0.3
4.616530028311948
% es.Ey (V/m) @ t=0.3
1.3805044230152141
% es.Ez (V/m) @ t=0.3
-5.056803910137859
% es.tEx (V/m) @ t=0.3
4.6165300283119315
% es.tEy (V/m) @ t=0.3
0
% es.tEz (V/m) @ t=0.3
-5.056803910137855
% V (V) @ t=0.3
0.006231378265863999
% es.normE (V/m) @ t=0.32
7.346091189855761
% es.EX (V/m) @ t=0.32
4.661820575173747
% es.EY (V/m) @ t=0.32
1.3940486342678218
% es.EZ (V/m) @ t=0.32
-5.106418477741812
% es.tEX (V/m) @ t=0.32
4.66182057517373
% es.tEY (V/m) @ t=0.32
0
% es.tEZ (V/m) @ t=0.32
-5.106418477741805
% es.Ex (V/m) @ t=0.32
4.661820575173747
% es.Ey (V/m) @ t=0.32
1.3940486342678218
% es.Ez (V/m) @ t=0.32
-5.106418477741812
% es.tEx (V/m) @ t=0.32
4.66182057517373
% es.tEy (V/m) @ t=0.32
0
% es.tEz (V/m) @ t=0.32
-5.106418477741805
% V (V) @ t=0.32
0.006292521269052509
% es.normE (V/m) @ t=0.34
7.417463933896453
% es.EX (V/m) @ t=0.34
4.707111122035533
% es.EY (V/m) @ t=0.34
1.4075928455204347
% es.EZ (V/m) @ t=0.34
-5.156033045345779
% es.tEX (V/m) @ t=0.34
4.707111122035525
% es.tEY (V/m) @ t=0.34
0
% es.tEZ (V/m) @ t=0.34
-5.156033045345765
% es.Ex (V/m) @ t=0.34
4.707111122035533
% es.Ey (V/m) @ t=0.34
1.4075928455204347
% es.Ez (V/m) @ t=0.34
-5.156033045345779
% es.tEx (V/m) @ t=0.34
4.707111122035525
% es.tEy (V/m) @ t=0.34
0
% es.tEz (V/m) @ t=0.34
-5.156033045345765
% V (V) @ t=0.34
0.006353664272241018
% es.normE (V/m) @ t=0.36
7.488836677938579
% es.EX (V/m) @ t=0.36
4.7524016688973205
% es.EY (V/m) @ t=0.36
1.4211370567730228
% es.EZ (V/m) @ t=0.36
-5.20564761294974
% es.tEX (V/m) @ t=0.36
4.752401668897312
% es.tEY (V/m) @ t=0.36
0
% es.tEZ (V/m) @ t=0.36
-5.205647612949729
% es.Ex (V/m) @ t=0.36
4.7524016688973205
% es.Ey (V/m) @ t=0.36
1.4211370567730228
% es.Ez (V/m) @ t=0.36
-5.20564761294974
% es.tEx (V/m) @ t=0.36
4.752401668897312
% es.tEy (V/m) @ t=0.36
0
% es.tEz (V/m) @ t=0.36
-5.205647612949729
% V (V) @ t=0.36
0.006414807275429528
% es.normE (V/m) @ t=0.38
7.560209421982115
% es.EX (V/m) @ t=0.38
4.797692215759124
% es.EY (V/m) @ t=0.38
1.4346812680256464
% es.EZ (V/m) @ t=0.38
-5.255262180553704
% es.tEX (V/m) @ t=0.38
4.797692215759108
% es.tEY (V/m) @ t=0.38
0
% es.tEZ (V/m) @ t=0.38
-5.255262180553693
% es.Ex (V/m) @ t=0.38
4.797692215759124
% es.Ey (V/m) @ t=0.38
1.4346812680256464
% es.Ez (V/m) @ t=0.38
-5.255262180553704
% es.tEx (V/m) @ t=0.38
4.797692215759108
% es.tEy (V/m) @ t=0.38
0
% es.tEz (V/m) @ t=0.38
-5.255262180553693
% V (V) @ t=0.38
0.0064759502786180395
% es.normE (V/m) @ t=0.4
7.631582166027005
% es.EX (V/m) @ t=0.4
4.842982762620895
% es.EY (V/m) @ t=0.4
1.448225479278263
% es.EZ (V/m) @ t=0.4
-5.304876748157671
% es.tEX (V/m) @ t=0.4
4.842982762620887
% es.tEY (V/m) @ t=0.4
0
% es.tEZ (V/m) @ t=0.4
-5.30487674815766
% es.Ex (V/m) @ t=0.4
4.842982762620895
% es.Ey (V/m) @ t=0.4
1.448225479278263
% es.Ez (V/m) @ t=0.4
-5.304876748157671
% es.tEx (V/m) @ t=0.4
4.842982762620887
% es.tEy (V/m) @ t=0.4
0
% es.tEz (V/m) @ t=0.4
-5.30487674815766
% V (V) @ t=0.4
0.0065370932818065485
% es.normE (V/m) @ t=0.42
7.702954910073204
% es.EX (V/m) @ t=0.42
4.888273309482683
% es.EY (V/m) @ t=0.42
1.4617696905308688
% es.EZ (V/m) @ t=0.42
-5.354491315761621
% es.tEX (V/m) @ t=0.42
4.888273309482679
% es.tEY (V/m) @ t=0.42
0
% es.tEZ (V/m) @ t=0.42
-5.3544913157616065
% es.Ex (V/m) @ t=0.42
4.888273309482683
% es.Ey (V/m) @ t=0.42
1.4617696905308688
% es.Ez (V/m) @ t=0.42
-5.354491315761621
% es.tEx (V/m) @ t=0.42
4.888273309482679
% es.tEy (V/m) @ t=0.42
0
% es.tEz (V/m) @ t=0.42
-5.3544913157616065
% V (V) @ t=0.42
0.0065982362849950574
% es.normE (V/m) @ t=0.44
7.774327654120707
% es.EX (V/m) @ t=0.44
4.93356385634448
% es.EY (V/m) @ t=0.44
1.4753139017834904
% es.EZ (V/m) @ t=0.44
-5.404105883365578
% es.tEX (V/m) @ t=0.44
4.933563856344472
% es.tEY (V/m) @ t=0.44
0
% es.tEZ (V/m) @ t=0.44
-5.404105883365564
% es.Ex (V/m) @ t=0.44
4.93356385634448
% es.Ey (V/m) @ t=0.44
1.4753139017834904
% es.Ez (V/m) @ t=0.44
-5.404105883365578
% es.tEx (V/m) @ t=0.44
4.933563856344472
% es.tEy (V/m) @ t=0.44
0
% es.tEz (V/m) @ t=0.44
-5.404105883365564
% V (V) @ t=0.44
0.006659379288183569
% es.normE (V/m) @ t=0.46
7.845700398169452
% es.EX (V/m) @ t=0.46
4.97885440320626
% es.EY (V/m) @ t=0.46
1.4888581130360912
% es.EZ (V/m) @ t=0.46
-5.453720450969539
% es.tEX (V/m) @ t=0.46
4.978854403206258
% es.tEY (V/m) @ t=0.46
0
% es.tEZ (V/m) @ t=0.46
-5.453720450969532
% es.Ex (V/m) @ t=0.46
4.97885440320626
% es.Ey (V/m) @ t=0.46
1.4888581130360912
% es.Ez (V/m) @ t=0.46
-5.453720450969539
% es.tEx (V/m) @ t=0.46
4.978854403206258
% es.tEy (V/m) @ t=0.46
0
% es.tEz (V/m) @ t=0.46
-5.453720450969532
% V (V) @ t=0.46
0.006720522291372079
% es.normE (V/m) @ t=0.48
7.917073142219433
% es.EX (V/m) @ t=0.48
5.024144950068068
% es.EY (V/m) @ t=0.48
1.502402324288711
% es.EZ (V/m) @ t=0.48
-5.503335018573511
% es.tEX (V/m) @ t=0.48
5.024144950068059
% es.tEY (V/m) @ t=0.48
0
% es.tEZ (V/m) @ t=0.48
-5.503335018573499
% es.Ex (V/m) @ t=0.48
5.024144950068068
% es.Ey (V/m) @ t=0.48
1.502402324288711
% es.Ez (V/m) @ t=0.48
-5.503335018573511
% es.tEx (V/m) @ t=0.48
5.024144950068059
% es.tEy (V/m) @ t=0.48
0
% es.tEz (V/m) @ t=0.48
-5.503335018573499
% V (V) @ t=0.48
0.006781665294560589
% es.normE (V/m) @ t=0.5
7.9884458862705685
% es.EX (V/m) @ t=0.5
5.069435496929847
% es.EY (V/m) @ t=0.5
1.5159465355413184
% es.EZ (V/m) @ t=0.5
-5.552949586177457
% es.tEX (V/m) @ t=0.5
5.069435496929845
% es.tEY (V/m) @ t=0.5
0
% es.tEZ (V/m) @ t=0.5
-5.552949586177442
% es.Ex (V/m) @ t=0.5
5.069435496929847
% es.Ey (V/m) @ t=0.5
1.5159465355413184
% es.Ez (V/m) @ t=0.5
-5.552949586177457
% es.tEx (V/m) @ t=0.5
5.069435496929845
% es.tEy (V/m) @ t=0.5
0
% es.tEz (V/m) @ t=0.5
-5.552949586177442
% V (V) @ t=0.5
0.006842808297749099
% es.normE (V/m) @ t=0.52
8.059818630322876
% es.EX (V/m) @ t=0.52
5.114726043791639
% es.EY (V/m) @ t=0.52
1.5294907467939158
% es.EZ (V/m) @ t=0.52
-5.602564153781424
% es.tEX (V/m) @ t=0.52
5.114726043791629
% es.tEY (V/m) @ t=0.52
0
% es.tEZ (V/m) @ t=0.52
-5.602564153781416
% es.Ex (V/m) @ t=0.52
5.114726043791639
% es.Ey (V/m) @ t=0.52
1.5294907467939158
% es.Ez (V/m) @ t=0.52
-5.602564153781424
% es.tEx (V/m) @ t=0.52
5.114726043791629
% es.tEy (V/m) @ t=0.52
0
% es.tEz (V/m) @ t=0.52
-5.602564153781416
% V (V) @ t=0.52
0.006903951300937609
% es.normE (V/m) @ t=0.54
8.131191374376314
% es.EX (V/m) @ t=0.54
5.160016590653436
% es.EY (V/m) @ t=0.54
1.5430349580465395
% es.EZ (V/m) @ t=0.54
-5.652178721385388
% es.tEX (V/m) @ t=0.54
5.160016590653426
% es.tEY (V/m) @ t=0.54
0
% es.tEZ (V/m) @ t=0.54
-5.652178721385373
% es.Ex (V/m) @ t=0.54
5.160016590653436
% es.Ey (V/m) @ t=0.54
1.5430349580465395
% es.Ez (V/m) @ t=0.54
-5.652178721385388
% es.tEx (V/m) @ t=0.54
5.160016590653426
% es.tEy (V/m) @ t=0.54
0
% es.tEz (V/m) @ t=0.54
-5.652178721385373
% V (V) @ t=0.54
0.006965094304126118
% es.normE (V/m) @ t=0.56
8.209265097309396
% es.EX (V/m) @ t=0.56
5.209548290499403
% es.EY (V/m) @ t=0.56
1.5578507548915692
% es.EZ (V/m) @ t=0.56
-5.7064598643001725
% es.tEX (V/m) @ t=0.56
5.209548290499386
% es.tEY (V/m) @ t=0.56
0
% es.tEZ (V/m) @ t=0.56
-5.7064598643001645
% es.Ex (V/m) @ t=0.56
5.209548290499403
% es.Ey (V/m) @ t=0.56
1.5578507548915692
% es.Ez (V/m) @ t=0.56
-5.7064598643001725
% es.tEx (V/m) @ t=0.56
5.209548290499386
% es.tEy (V/m) @ t=0.56
0
% es.tEz (V/m) @ t=0.56
-5.7064598643001645
% V (V) @ t=0.56
0.007032006338865719
% es.normE (V/m) @ t=0.58
8.288940702630647
% es.EX (V/m) @ t=0.58
5.260093846408063
% es.EY (V/m) @ t=0.58
1.5729705268035166
% es.EZ (V/m) @ t=0.58
-5.761856561331609
% es.tEX (V/m) @ t=0.58
5.260093846408054
% es.tEY (V/m) @ t=0.58
0
% es.tEZ (V/m) @ t=0.58
-5.761856561331594
% es.Ex (V/m) @ t=0.58
5.260093846408063
% es.Ey (V/m) @ t=0.58
1.5729705268035166
% es.Ez (V/m) @ t=0.58
-5.761856561331609
% es.tEx (V/m) @ t=0.58
5.260093846408054
% es.tEy (V/m) @ t=0.58
0
% es.tEz (V/m) @ t=0.58
-5.761856561331594
% V (V) @ t=0.58
0.007100297472080584
% es.normE (V/m) @ t=0.6
8.368616308004833
% es.EX (V/m) @ t=0.6
5.310639402316737
% es.EY (V/m) @ t=0.6
1.5880902987154424
% es.EZ (V/m) @ t=0.6
-5.817253258363035
% es.tEX (V/m) @ t=0.6
5.310639402316735
% es.tEY (V/m) @ t=0.6
0
% es.tEZ (V/m) @ t=0.6
-5.817253258363021
% es.Ex (V/m) @ t=0.6
5.310639402316737
% es.Ey (V/m) @ t=0.6
1.5880902987154424
% es.Ez (V/m) @ t=0.6
-5.817253258363035
% es.tEx (V/m) @ t=0.6
5.310639402316735
% es.tEy (V/m) @ t=0.6
0
% es.tEz (V/m) @ t=0.6
-5.817253258363021
% V (V) @ t=0.6
0.007168588605295453
% es.normE (V/m) @ t=0.62
8.448291913430452
% es.EX (V/m) @ t=0.62
5.361184958225383
% es.EY (V/m) @ t=0.62
1.6032100706273824
% es.EZ (V/m) @ t=0.62
-5.872649955394472
% es.tEX (V/m) @ t=0.62
5.361184958225374
% es.tEY (V/m) @ t=0.62
0
% es.tEZ (V/m) @ t=0.62
-5.872649955394461
% es.Ex (V/m) @ t=0.62
5.361184958225383
% es.Ey (V/m) @ t=0.62
1.6032100706273824
% es.Ez (V/m) @ t=0.62
-5.872649955394472
% es.tEx (V/m) @ t=0.62
5.361184958225374
% es.tEy (V/m) @ t=0.62
0
% es.tEz (V/m) @ t=0.62
-5.872649955394461
% V (V) @ t=0.62
0.00723687973851032
% es.normE (V/m) @ t=0.64
8.527967518906069
% es.EX (V/m) @ t=0.64
5.41173051413405
% es.EY (V/m) @ t=0.64
1.618329842539298
% es.EZ (V/m) @ t=0.64
-5.928046652425888
% es.tEX (V/m) @ t=0.64
5.411730514134048
% es.tEY (V/m) @ t=0.64
0
% es.tEZ (V/m) @ t=0.64
-5.92804665242588
% es.Ex (V/m) @ t=0.64
5.41173051413405
% es.Ey (V/m) @ t=0.64
1.618329842539298
% es.Ez (V/m) @ t=0.64
-5.928046652425888
% es.tEx (V/m) @ t=0.64
5.411730514134048
% es.tEy (V/m) @ t=0.64
0
% es.tEz (V/m) @ t=0.64
-5.92804665242588
% V (V) @ t=0.64
0.0073051708717251865
% es.normE (V/m) @ t=0.66
8.607643124430314
% es.EX (V/m) @ t=0.66
5.462276070042728
% es.EY (V/m) @ t=0.66
1.6334496144512238
% es.EZ (V/m) @ t=0.66
-5.983443349457324
% es.tEX (V/m) @ t=0.66
5.462276070042719
% es.tEY (V/m) @ t=0.66
0
% es.tEZ (V/m) @ t=0.66
-5.983443349457313
% es.Ex (V/m) @ t=0.66
5.462276070042728
% es.Ey (V/m) @ t=0.66
1.6334496144512238
% es.Ez (V/m) @ t=0.66
-5.983443349457324
% es.tEx (V/m) @ t=0.66
5.462276070042719
% es.tEy (V/m) @ t=0.66
0
% es.tEz (V/m) @ t=0.66
-5.983443349457313
% V (V) @ t=0.66
0.007373462004940054
% es.normE (V/m) @ t=0.68
8.687318730001802
% es.EX (V/m) @ t=0.68
5.5128216259513705
% es.EY (V/m) @ t=0.68
1.6485693863631639
% es.EZ (V/m) @ t=0.68
-6.038840046488756
% es.tEX (V/m) @ t=0.68
5.512821625951364
% es.tEY (V/m) @ t=0.68
0
% es.tEZ (V/m) @ t=0.68
-6.038840046488746
% es.Ex (V/m) @ t=0.68
5.5128216259513705
% es.Ey (V/m) @ t=0.68
1.6485693863631639
% es.Ez (V/m) @ t=0.68
-6.038840046488756
% es.tEx (V/m) @ t=0.68
5.512821625951364
% es.tEy (V/m) @ t=0.68
0
% es.tEz (V/m) @ t=0.68
-6.038840046488746
% V (V) @ t=0.68
0.007441753138154923
% es.normE (V/m) @ t=0.7
8.766994335619295
% es.EX (V/m) @ t=0.7
5.563367181860045
% es.EY (V/m) @ t=0.7
1.6636891582750826
% es.EZ (V/m) @ t=0.7
-6.094236743520183
% es.tEX (V/m) @ t=0.7
5.563367181860036
% es.tEY (V/m) @ t=0.7
0
% es.tEZ (V/m) @ t=0.7
-6.094236743520172
% es.Ex (V/m) @ t=0.7
5.563367181860045
% es.Ey (V/m) @ t=0.7
1.6636891582750826
% es.Ez (V/m) @ t=0.7
-6.094236743520183
% es.tEx (V/m) @ t=0.7
5.563367181860036
% es.tEy (V/m) @ t=0.7
0
% es.tEz (V/m) @ t=0.7
-6.094236743520172
% V (V) @ t=0.7
0.007510044271369788
% es.normE (V/m) @ t=0.72
8.846669941281533
% es.EX (V/m) @ t=0.72
5.613912737768716
% es.EY (V/m) @ t=0.72
1.678808930187019
% es.EZ (V/m) @ t=0.72
-6.1496334405516055
% es.tEX (V/m) @ t=0.72
5.6139127377686995
% es.tEY (V/m) @ t=0.72
0
% es.tEZ (V/m) @ t=0.72
-6.149633440551598
% es.Ex (V/m) @ t=0.72
5.613912737768716
% es.Ey (V/m) @ t=0.72
1.678808930187019
% es.Ez (V/m) @ t=0.72
-6.1496334405516055
% es.tEx (V/m) @ t=0.72
5.6139127377686995
% es.tEy (V/m) @ t=0.72
0
% es.tEz (V/m) @ t=0.72
-6.149633440551598
% V (V) @ t=0.72
0.007578335404584657
% es.normE (V/m) @ t=0.74
8.926345546987303
% es.EX (V/m) @ t=0.74
5.664458293677368
% es.EY (V/m) @ t=0.74
1.693928702098959
% es.EZ (V/m) @ t=0.74
-6.205030137583043
% es.tEX (V/m) @ t=0.74
5.664458293677345
% es.tEY (V/m) @ t=0.74
0
% es.tEZ (V/m) @ t=0.74
-6.2050301375830355
% es.Ex (V/m) @ t=0.74
5.664458293677368
% es.Ey (V/m) @ t=0.74
1.693928702098959
% es.Ez (V/m) @ t=0.74
-6.205030137583043
% es.tEx (V/m) @ t=0.74
5.664458293677345
% es.tEy (V/m) @ t=0.74
0
% es.tEz (V/m) @ t=0.74
-6.2050301375830355
% V (V) @ t=0.74
0.007646626537799524
% es.normE (V/m) @ t=0.76
9.00602115273546
% es.EX (V/m) @ t=0.76
5.7150038495860285
% es.EY (V/m) @ t=0.76
1.709048474010864
% es.EZ (V/m) @ t=0.76
-6.2604268346144725
% es.tEX (V/m) @ t=0.76
5.715003849586019
% es.tEY (V/m) @ t=0.76
0
% es.tEZ (V/m) @ t=0.76
-6.260426834614457
% es.Ex (V/m) @ t=0.76
5.7150038495860285
% es.Ey (V/m) @ t=0.76
1.709048474010864
% es.Ez (V/m) @ t=0.76
-6.2604268346144725
% es.tEx (V/m) @ t=0.76
5.715003849586019
% es.tEy (V/m) @ t=0.76
0
% es.tEz (V/m) @ t=0.76
-6.260426834614457
% V (V) @ t=0.76
0.007714917671014391
% es.normE (V/m) @ t=0.78
9.085696758524902
% es.EX (V/m) @ t=0.78
5.765549405494681
% es.EY (V/m) @ t=0.78
1.7241682459228294
% es.EZ (V/m) @ t=0.78
-6.315823531645916
% es.tEX (V/m) @ t=0.78
5.7655494054946725
% es.tEY (V/m) @ t=0.78
0
% es.tEZ (V/m) @ t=0.78
-6.315823531645901
% es.Ex (V/m) @ t=0.78
5.765549405494681
% es.Ey (V/m) @ t=0.78
1.7241682459228294
% es.Ez (V/m) @ t=0.78
-6.315823531645916
% es.tEx (V/m) @ t=0.78
5.7655494054946725
% es.tEy (V/m) @ t=0.78
0
% es.tEz (V/m) @ t=0.78
-6.315823531645901
% V (V) @ t=0.78
0.007783208804229259
% es.normE (V/m) @ t=0.8
9.165372364354528
% es.EX (V/m) @ t=0.8
5.816094961403349
% es.EY (V/m) @ t=0.8
1.739288017834741
% es.EZ (V/m) @ t=0.8
-6.371220228677338
% es.tEX (V/m) @ t=0.8
5.816094961403332
% es.tEY (V/m) @ t=0.8
0
% es.tEZ (V/m) @ t=0.8
-6.371220228677323
% es.Ex (V/m) @ t=0.8
5.816094961403349
% es.Ey (V/m) @ t=0.8
1.739288017834741
% es.Ez (V/m) @ t=0.8
-6.371220228677338
% es.tEx (V/m) @ t=0.8
5.816094961403332
% es.tEy (V/m) @ t=0.8
0
% es.tEz (V/m) @ t=0.8
-6.371220228677323
% V (V) @ t=0.8
0.007851499937444124
% es.normE (V/m) @ t=0.82
9.24705393075433
% es.EX (V/m) @ t=0.82
5.867920913360852
% es.EY (V/m) @ t=0.82
1.7547884829432725
% es.EZ (V/m) @ t=0.82
-6.428005664442255
% es.tEX (V/m) @ t=0.82
5.867920913360837
% es.tEY (V/m) @ t=0.82
0
% es.tEZ (V/m) @ t=0.82
-6.428005664442248
% es.Ex (V/m) @ t=0.82
5.867920913360852
% es.Ey (V/m) @ t=0.82
1.7547884829432725
% es.Ez (V/m) @ t=0.82
-6.428005664442255
% es.tEx (V/m) @ t=0.82
5.867920913360837
% es.tEy (V/m) @ t=0.82
0
% es.tEz (V/m) @ t=0.82
-6.428005664442248
% V (V) @ t=0.82
0.007921490207170633
% es.normE (V/m) @ t=0.84
9.336034470747212
% es.EX (V/m) @ t=0.84
5.924405768983544
% es.EY (V/m) @ t=0.84
1.7716741545513646
% es.EZ (V/m) @ t=0.84
-6.489844224185027
% es.tEX (V/m) @ t=0.84
5.924405768983528
% es.tEY (V/m) @ t=0.84
0
% es.tEZ (V/m) @ t=0.84
-6.489844224185019
% es.Ex (V/m) @ t=0.84
5.924405768983544
% es.Ey (V/m) @ t=0.84
1.7716741545513646
% es.Ez (V/m) @ t=0.84
-6.489844224185027
% es.tEx (V/m) @ t=0.84
5.924405768983528
% es.tEy (V/m) @ t=0.84
0
% es.tEz (V/m) @ t=0.84
-6.489844224185019
% V (V) @ t=0.84
0.007997663027467196
% es.normE (V/m) @ t=0.86
9.425015010814953
% es.EX (V/m) @ t=0.86
5.980890624606213
% es.EY (V/m) @ t=0.86
1.788559826159485
% es.EZ (V/m) @ t=0.86
-6.551682783927798
% es.tEX (V/m) @ t=0.86
5.980890624606196
% es.tEY (V/m) @ t=0.86
0
% es.tEZ (V/m) @ t=0.86
-6.5516827839277765
% es.Ex (V/m) @ t=0.86
5.980890624606213
% es.Ey (V/m) @ t=0.86
1.788559826159485
% es.Ez (V/m) @ t=0.86
-6.551682783927798
% es.tEx (V/m) @ t=0.86
5.980890624606196
% es.tEy (V/m) @ t=0.86
0
% es.tEz (V/m) @ t=0.86
-6.5516827839277765
% V (V) @ t=0.86
0.008073835847763758
% es.normE (V/m) @ t=0.88
9.513995550955467
% es.EX (V/m) @ t=0.88
6.0373754802288975
% es.EY (V/m) @ t=0.88
1.805445497767567
% es.EZ (V/m) @ t=0.88
-6.613521343670523
% es.tEX (V/m) @ t=0.88
6.0373754802288815
% es.tEY (V/m) @ t=0.88
0
% es.tEZ (V/m) @ t=0.88
-6.6135213436705085
% es.Ex (V/m) @ t=0.88
6.0373754802288975
% es.Ey (V/m) @ t=0.88
1.805445497767567
% es.Ez (V/m) @ t=0.88
-6.613521343670523
% es.tEx (V/m) @ t=0.88
6.0373754802288815
% es.tEy (V/m) @ t=0.88
0
% es.tEz (V/m) @ t=0.88
-6.6135213436705085
% V (V) @ t=0.88
0.008150008668060323
% es.normE (V/m) @ t=0.9
9.602976091166758
% es.EX (V/m) @ t=0.9
6.0938603358515815
% es.EY (V/m) @ t=0.9
1.822331169375663
% es.EZ (V/m) @ t=0.9
-6.67535990341328
% es.tEX (V/m) @ t=0.9
6.093860335851563
% es.tEY (V/m) @ t=0.9
0
% es.tEZ (V/m) @ t=0.9
-6.6753599034132725
% es.Ex (V/m) @ t=0.9
6.0938603358515815
% es.Ey (V/m) @ t=0.9
1.822331169375663
% es.Ez (V/m) @ t=0.9
-6.67535990341328
% es.tEx (V/m) @ t=0.9
6.093860335851563
% es.tEy (V/m) @ t=0.9
0
% es.tEz (V/m) @ t=0.9
-6.6753599034132725
% V (V) @ t=0.9
0.008226181488356887
% es.normE (V/m) @ t=0.92
9.691956631446871
% es.EX (V/m) @ t=0.92
6.150345191474255
% es.EY (V/m) @ t=0.92
1.839216840983776
% es.EZ (V/m) @ t=0.92
-6.7371984631560515
% es.tEX (V/m) @ t=0.92
6.150345191474236
% es.tEY (V/m) @ t=0.92
0
% es.tEZ (V/m) @ t=0.92
-6.737198463156037
% es.Ex (V/m) @ t=0.92
6.150345191474255
% es.Ey (V/m) @ t=0.92
1.839216840983776
% es.Ez (V/m) @ t=0.92
-6.7371984631560515
% es.tEx (V/m) @ t=0.92
6.150345191474236
% es.tEy (V/m) @ t=0.92
0
% es.tEz (V/m) @ t=0.92
-6.737198463156037
% V (V) @ t=0.92
0.00830235430865345
% es.normE (V/m) @ t=0.94
9.780937171793905
% es.EX (V/m) @ t=0.94
6.20683004709694
% es.EY (V/m) @ t=0.94
1.8561025125918862
% es.EZ (V/m) @ t=0.94
-6.799037022898798
% es.tEX (V/m) @ t=0.94
6.206830047096918
% es.tEY (V/m) @ t=0.94
0
% es.tEZ (V/m) @ t=0.94
-6.79903702289879
% es.Ex (V/m) @ t=0.94
6.20683004709694
% es.Ey (V/m) @ t=0.94
1.8561025125918862
% es.Ez (V/m) @ t=0.94
-6.799037022898798
% es.tEx (V/m) @ t=0.94
6.206830047096918
% es.tEy (V/m) @ t=0.94
0
% es.tEz (V/m) @ t=0.94
-6.79903702289879
% V (V) @ t=0.94
0.008378527128950012
% es.normE (V/m) @ t=0.96
9.869917712206066
% es.EX (V/m) @ t=0.96
6.263314902719626
% es.EY (V/m) @ t=0.96
1.8729881841999996
% es.EZ (V/m) @ t=0.96
-6.860875582641555
% es.tEX (V/m) @ t=0.96
6.263314902719609
% es.tEY (V/m) @ t=0.96
0
% es.tEZ (V/m) @ t=0.96
-6.86087558264154
% es.Ex (V/m) @ t=0.96
6.263314902719626
% es.Ey (V/m) @ t=0.96
1.8729881841999996
% es.Ez (V/m) @ t=0.96
-6.860875582641555
% es.tEx (V/m) @ t=0.96
6.263314902719609
% es.tEy (V/m) @ t=0.96
0
% es.tEz (V/m) @ t=0.96
-6.86087558264154
% V (V) @ t=0.96
0.008454699949246573
% es.normE (V/m) @ t=0.98
9.958898252681607
% es.EX (V/m) @ t=0.98
6.319799758342302
% es.EY (V/m) @ t=0.98
1.8898738558081063
% es.EZ (V/m) @ t=0.98
-6.922714142384308
% es.tEX (V/m) @ t=0.98
6.319799758342283
% es.tEY (V/m) @ t=0.98
0
% es.tEZ (V/m) @ t=0.98
-6.922714142384294
% es.Ex (V/m) @ t=0.98
6.319799758342302
% es.Ey (V/m) @ t=0.98
1.8898738558081063
% es.Ez (V/m) @ t=0.98
-6.922714142384308
% es.tEx (V/m) @ t=0.98
6.319799758342283
% es.tEy (V/m) @ t=0.98
0
% es.tEz (V/m) @ t=0.98
-6.922714142384294
% V (V) @ t=0.98
0.008530872769543136
% es.normE (V/m) @ t=1
10.047878793218825
% es.EX (V/m) @ t=1
6.3762846139649625
% es.EY (V/m) @ t=1
1.9067595274162055
% es.EZ (V/m) @ t=1
-6.984552702127058
% es.tEX (V/m) @ t=1
6.376284613964945
% es.tEY (V/m) @ t=1
0
% es.tEZ (V/m) @ t=1
-6.9845527021270435
% es.Ex (V/m) @ t=1
6.3762846139649625
% es.Ey (V/m) @ t=1
1.9067595274162055
% es.Ez (V/m) @ t=1
-6.984552702127058
% es.tEx (V/m) @ t=1
6.376284613964945
% es.tEy (V/m) @ t=1
0
% es.tEz (V/m) @ t=1
-6.9845527021270435
% V (V) @ t=1
0.0086070455898397
% es.normE (V/m) @ t=1.02
10.136859333816119
% es.EX (V/m) @ t=1.02
6.432769469587649
% es.EY (V/m) @ t=1.02
1.923645199024298
% es.EZ (V/m) @ t=1.02
-7.0463912618698
% es.tEX (V/m) @ t=1.02
6.432769469587634
% es.tEY (V/m) @ t=1.02
0
% es.tEZ (V/m) @ t=1.02
-7.046391261869786
% es.Ex (V/m) @ t=1.02
6.432769469587649
% es.Ey (V/m) @ t=1.02
1.923645199024298
% es.Ez (V/m) @ t=1.02
-7.0463912618698
% es.tEx (V/m) @ t=1.02
6.432769469587634
% es.tEy (V/m) @ t=1.02
0
% es.tEz (V/m) @ t=1.02
-7.046391261869786
% V (V) @ t=1.02
0.008683218410136265
% es.normE (V/m) @ t=1.04
10.225839874471939
% es.EX (V/m) @ t=1.04
6.489254325210334
% es.EY (V/m) @ t=1.04
1.940530870632383
% es.EZ (V/m) @ t=1.04
-7.108229821612579
% es.tEX (V/m) @ t=1.04
6.489254325210323
% es.tEY (V/m) @ t=1.04
0
% es.tEZ (V/m) @ t=1.04
-7.108229821612564
% es.Ex (V/m) @ t=1.04
6.489254325210334
% es.Ey (V/m) @ t=1.04
1.940530870632383
% es.Ez (V/m) @ t=1.04
-7.108229821612579
% es.tEx (V/m) @ t=1.04
6.489254325210323
% es.tEy (V/m) @ t=1.04
0
% es.tEz (V/m) @ t=1.04
-7.108229821612564
% V (V) @ t=1.04
0.008759391230432827
% es.normE (V/m) @ t=1.06
10.31482041518472
% es.EX (V/m) @ t=1.06
6.54573918083301
% es.EY (V/m) @ t=1.06