% Model:              1 neuron.mph
% Version:            COMSOL 6.0.0.405
% Date:               Mar 9 2023, 13:15
% Dimension:          0
% Nodes:              14017
% Expressions:        14017
% Description:        Electric field norm, Electric field, X component, Electric field, Y component, Electric field, Z component, Tangential electric field, X component, Tangential electric field, Y component, Tangential electric field, Z component, Electric field, x component, Electric field, y component, Electric field, z component, Tangential electric field, x component, Tangential electric field, y component, Tangential electric field, z component, Electric potential
% Length unit:        mm
% x
1
% y
12.2
% z
1.33
% es.normE (V/m) @ t=0
1.4670925520814517
% es.EX (V/m) @ t=0
1.3557852128440677
% es.EY (V/m) @ t=0
0.08536883974817644
% es.EZ (V/m) @ t=0
0.5480943360378996
% es.tEX (V/m) @ t=0
1.355785212844066
% es.tEY (V/m) @ t=0
0
% es.tEZ (V/m) @ t=0
0.5480943360379005
% es.Ex (V/m) @ t=0
1.3557852128440677
% es.Ey (V/m) @ t=0
0.08536883974817644
% es.Ez (V/m) @ t=0
0.5480943360378996
% es.tEx (V/m) @ t=0
1.355785212844066
% es.tEy (V/m) @ t=0
0
% es.tEz (V/m) @ t=0
0.5480943360379005
% V (V) @ t=0
0.007318089546470759
% es.normE (V/m) @ t=0.02
1.2671545272681914
% es.EX (V/m) @ t=0.02
1.1710163529656534
% es.EY (V/m) @ t=0.02
0.07373462148714238
% es.EZ (V/m) @ t=0.02
0.4733990502594978
% es.tEX (V/m) @ t=0.02
1.1710163529656548
% es.tEY (V/m) @ t=0.02
0
% es.tEZ (V/m) @ t=0.02
0.47339905025949536
% es.Ex (V/m) @ t=0.02
1.1710163529656534
% es.Ey (V/m) @ t=0.02
0.07373462148714238
% es.Ez (V/m) @ t=0.02
0.4733990502594978
% es.tEx (V/m) @ t=0.02
1.1710163529656548
% es.tEy (V/m) @ t=0.02
0
% es.tEz (V/m) @ t=0.02
0.47339905025949536
% V (V) @ t=0.02
0.006320766933791401
% es.normE (V/m) @ t=0.04
1.2788073852656752
% es.EX (V/m) @ t=0.04
1.1817851135430688
% es.EY (V/m) @ t=0.04
0.0744127017662683
% es.EZ (V/m) @ t=0.04
0.47775247357476736
% es.tEX (V/m) @ t=0.04
1.1817851135430706
% es.tEY (V/m) @ t=0.04
0
% es.tEZ (V/m) @ t=0.04
0.47775247357476847
% es.Ex (V/m) @ t=0.04
1.1817851135430688
% es.Ey (V/m) @ t=0.04
0.0744127017662683
% es.Ez (V/m) @ t=0.04
0.47775247357476736
% es.tEx (V/m) @ t=0.04
1.1817851135430706
% es.tEy (V/m) @ t=0.04
0
% es.tEz (V/m) @ t=0.04
0.47775247357476847
% V (V) @ t=0.04
0.006378892292373528
% es.normE (V/m) @ t=0.06
1.2905717643996018
% es.EX (V/m) @ t=0.06
1.1926569324083607
% es.EY (V/m) @ t=0.06
0.07509727721468662
% es.EZ (V/m) @ t=0.06
0.4821475645202602
% es.tEX (V/m) @ t=0.06
1.192656932408358
% es.tEY (V/m) @ t=0.06
0
% es.tEZ (V/m) @ t=0.06
0.4821475645202602
% es.Ex (V/m) @ t=0.06
1.1926569324083607
% es.Ey (V/m) @ t=0.06
0.07509727721468662
% es.Ez (V/m) @ t=0.06
0.4821475645202602
% es.tEx (V/m) @ t=0.06
1.192656932408358
% es.tEy (V/m) @ t=0.06
0
% es.tEz (V/m) @ t=0.06
0.4821475645202602
% V (V) @ t=0.06
0.006437573379262582
% es.normE (V/m) @ t=0.08
1.3025003053133202
% es.EX (V/m) @ t=0.08
1.2036804626544777
% es.EY (V/m) @ t=0.08
0.07579138843229777
% es.EZ (V/m) @ t=0.08
0.4866039748197446
% es.tEX (V/m) @ t=0.08
1.2036804626544724
% es.tEY (V/m) @ t=0.08
0
% es.tEZ (V/m) @ t=0.08
0.4866039748197415
% es.Ex (V/m) @ t=0.08
1.2036804626544777
% es.Ey (V/m) @ t=0.08
0.07579138843229777
% es.Ez (V/m) @ t=0.08
0.4866039748197446
% es.tEx (V/m) @ t=0.08
1.2036804626544724
% es.tEy (V/m) @ t=0.08
0
% es.tEz (V/m) @ t=0.08
0.4866039748197415
% V (V) @ t=0.08
0.006497074810139478
% es.normE (V/m) @ t=0.1
1.314575071141122
% es.EX (V/m) @ t=0.1
1.2148391277879877
% es.EY (V/m) @ t=0.1
0.07649399350904323
% es.EZ (V/m) @ t=0.1
0.49111500451529255
% es.tEX (V/m) @ t=0.1
1.2148391277879913
% es.tEY (V/m) @ t=0.1
0
% es.tEZ (V/m) @ t=0.1
0.49111500451529455
% es.Ex (V/m) @ t=0.1
1.2148391277879877
% es.Ey (V/m) @ t=0.1
0.07649399350904323
% es.Ez (V/m) @ t=0.1
0.49111500451529255
% es.tEx (V/m) @ t=0.1
1.2148391277879913
% es.tEy (V/m) @ t=0.1
0
% es.tEz (V/m) @ t=0.1
0.49111500451529455
% V (V) @ t=0.1
0.006557306951473416
% es.normE (V/m) @ t=0.12
1.3266498369689312
% es.EX (V/m) @ t=0.12
1.2259977929214996
% es.EY (V/m) @ t=0.12
0.07719659858578509
% es.EZ (V/m) @ t=0.12
0.49562603421085827
% es.tEX (V/m) @ t=0.12
1.2259977929214996
% es.tEY (V/m) @ t=0.12
0
% es.tEZ (V/m) @ t=0.12
0.49562603421085427
% es.Ex (V/m) @ t=0.12
1.2259977929214996
% es.Ey (V/m) @ t=0.12
0.07719659858578509
% es.Ez (V/m) @ t=0.12
0.49562603421085827
% es.tEx (V/m) @ t=0.12
1.2259977929214996
% es.tEy (V/m) @ t=0.12
0
% es.tEz (V/m) @ t=0.12
0.49562603421085427
% V (V) @ t=0.12
0.006617539092807357
% es.normE (V/m) @ t=0.14
1.3387691407794495
% es.EX (V/m) @ t=0.14
1.2371976157496465
% es.EY (V/m) @ t=0.14
0.0779018002515881
% es.EZ (V/m) @ t=0.14
0.500153705736547
% es.tEX (V/m) @ t=0.14
1.2371976157496416
% es.tEY (V/m) @ t=0.14
0
% es.tEZ (V/m) @ t=0.14
0.5001537057365457
% es.Ex (V/m) @ t=0.14
1.2371976157496465
% es.Ey (V/m) @ t=0.14
0.0779018002515881
% es.Ez (V/m) @ t=0.14
0.500153705736547
% es.tEx (V/m) @ t=0.14
1.2371976157496416
% es.tEy (V/m) @ t=0.14
0
% es.tEz (V/m) @ t=0.14
0.5001537057365457
% V (V) @ t=0.14
0.006677992971800339
% es.normE (V/m) @ t=0.16
1.3514995680812958
% es.EX (V/m) @ t=0.16
1.2489621797831116
% es.EY (V/m) @ t=0.16
0.07864263075541744
% es.EZ (V/m) @ t=0.16
0.5049097264760056
% es.tEX (V/m) @ t=0.16
1.2489621797831116
% es.tEY (V/m) @ t=0.16
0
% es.tEZ (V/m) @ t=0.16
0.5049097264760061
% es.Ex (V/m) @ t=0.16
1.2489621797831116
% es.Ey (V/m) @ t=0.16
0.07864263075541744
% es.Ez (V/m) @ t=0.16
0.5049097264760056
% es.tEx (V/m) @ t=0.16
1.2489621797831116
% es.tEy (V/m) @ t=0.16
0
% es.tEz (V/m) @ t=0.16
0.5049097264760061
% V (V) @ t=0.16
0.006741489401984089
% es.normE (V/m) @ t=0.18
1.3642299953831434
% es.EX (V/m) @ t=0.18
1.2607267438165746
% es.EY (V/m) @ t=0.18
0.07938346125925388
% es.EZ (V/m) @ t=0.18
0.509665747215458
% es.tEX (V/m) @ t=0.18
1.2607267438165737
% es.tEY (V/m) @ t=0.18
0
% es.tEZ (V/m) @ t=0.18
0.5096657472154575
% es.Ex (V/m) @ t=0.18
1.2607267438165746
% es.Ey (V/m) @ t=0.18
0.07938346125925388
% es.Ez (V/m) @ t=0.18
0.509665747215458
% es.tEx (V/m) @ t=0.18
1.2607267438165737
% es.tEy (V/m) @ t=0.18
0
% es.tEz (V/m) @ t=0.18
0.5096657472154575
% V (V) @ t=0.18
0.006804985832167837
% es.normE (V/m) @ t=0.2
1.376960422685002
% es.EX (V/m) @ t=0.2
1.2724913078500402
% es.EY (V/m) @ t=0.2
0.08012429176308422
% es.EZ (V/m) @ t=0.2
0.5144217679549219
% es.tEX (V/m) @ t=0.2
1.272491307850042
% es.tEY (V/m) @ t=0.2
0
% es.tEZ (V/m) @ t=0.2
0.514421767954921
% es.Ex (V/m) @ t=0.2
1.2724913078500402
% es.Ey (V/m) @ t=0.2
0.08012429176308422
% es.Ez (V/m) @ t=0.2
0.5144217679549219
% es.tEx (V/m) @ t=0.2
1.272491307850042
% es.tEy (V/m) @ t=0.2
0
% es.tEz (V/m) @ t=0.2
0.514421767954921
% V (V) @ t=0.2
0.006868482262351584
% es.normE (V/m) @ t=0.22
1.3896908499868672
% es.EX (V/m) @ t=0.22
1.2842558718835075
% es.EY (V/m) @ t=0.22
0.08086512226691528
% es.EZ (V/m) @ t=0.22
0.5191777886943889
% es.tEX (V/m) @ t=0.22
1.2842558718835084
% es.tEY (V/m) @ t=0.22
0
% es.tEZ (V/m) @ t=0.22
0.5191777886943876
% es.Ex (V/m) @ t=0.22
1.2842558718835075
% es.Ey (V/m) @ t=0.22
0.08086512226691528
% es.Ez (V/m) @ t=0.22
0.5191777886943889
% es.tEx (V/m) @ t=0.22
1.2842558718835084
% es.tEy (V/m) @ t=0.22
0
% es.tEz (V/m) @ t=0.22
0.5191777886943876
% V (V) @ t=0.22
0.006931978692535333
% es.normE (V/m) @ t=0.24
1.4024212772887317
% es.EX (V/m) @ t=0.24
1.2960204359169731
% es.EY (V/m) @ t=0.24
0.08160595277075089
% es.EZ (V/m) @ t=0.24
0.5239338094338457
% es.tEX (V/m) @ t=0.24
1.296020435916975
% es.tEY (V/m) @ t=0.24
0
% es.tEZ (V/m) @ t=0.24
0.5239338094338484
% es.Ex (V/m) @ t=0.24
1.2960204359169731
% es.Ey (V/m) @ t=0.24
0.08160595277075089
% es.Ez (V/m) @ t=0.24
0.5239338094338457
% es.tEx (V/m) @ t=0.24
1.296020435916975
% es.tEy (V/m) @ t=0.24
0
% es.tEz (V/m) @ t=0.24
0.5239338094338484
% V (V) @ t=0.24
0.006995475122719082
% es.normE (V/m) @ t=0.26
1.4151517045906075
% es.EX (V/m) @ t=0.26
1.3077849999504414
% es.EY (V/m) @ t=0.26
0.08234678327457934
% es.EZ (V/m) @ t=0.26
0.528689830173315
% es.tEX (V/m) @ t=0.26
1.3077849999504476
% es.tEY (V/m) @ t=0.26
0
% es.tEZ (V/m) @ t=0.26
0.5286898301733123
% es.Ex (V/m) @ t=0.26
1.3077849999504414
% es.Ey (V/m) @ t=0.26
0.08234678327457934
% es.Ez (V/m) @ t=0.26
0.528689830173315
% es.tEx (V/m) @ t=0.26
1.3077849999504476
% es.tEy (V/m) @ t=0.26
0
% es.tEz (V/m) @ t=0.26
0.5286898301733123
% V (V) @ t=0.26
0.007058971552902831
% es.normE (V/m) @ t=0.28
1.4280995314892584
% es.EX (V/m) @ t=0.28
1.3197504932585757
% es.EY (V/m) @ t=0.28
0.0831001604718502
% es.EZ (V/m) @ t=0.28
0.5335270160404879
% es.tEX (V/m) @ t=0.28
1.3197504932585753
% es.tEY (V/m) @ t=0.28
0
% es.tEZ (V/m) @ t=0.28
0.5335270160404884
% es.Ex (V/m) @ t=0.28
1.3197504932585757
% es.Ey (V/m) @ t=0.28
0.0831001604718502
% es.Ez (V/m) @ t=0.28
0.5335270160404879
% es.tEx (V/m) @ t=0.28
1.3197504932585753
% es.tEy (V/m) @ t=0.28
0
% es.tEz (V/m) @ t=0.28
0.5335270160404884
% V (V) @ t=0.28
0.007123561004321618
% es.normE (V/m) @ t=0.3
1.4423190359851095
% es.EX (V/m) @ t=0.3
1.3328913211162563
% es.EY (V/m) @ t=0.3
0.08392692947477753
% es.EZ (V/m) @ t=0.3
0.5388389768203163
% es.tEX (V/m) @ t=0.3
1.3328913211162545
% es.tEY (V/m) @ t=0.3
0
% es.tEZ (V/m) @ t=0.3
0.5388389768203186
% es.Ex (V/m) @ t=0.3
1.3328913211162563
% es.Ey (V/m) @ t=0.3
0.08392692947477753
% es.Ez (V/m) @ t=0.3
0.5388389768203163
% es.tEx (V/m) @ t=0.3
1.3328913211162545
% es.tEy (V/m) @ t=0.3
0
% es.tEz (V/m) @ t=0.3
0.5388389768203186
% V (V) @ t=0.3
0.00719454407669502
% es.normE (V/m) @ t=0.32
1.45653854048149
% es.EX (V/m) @ t=0.32
1.3460321489739204
% es.EY (V/m) @ t=0.32
0.08475369847770226
% es.EZ (V/m) @ t=0.32
0.5441509376001474
% es.tEX (V/m) @ t=0.32
1.3460321489739187
% es.tEY (V/m) @ t=0.32
0
% es.tEZ (V/m) @ t=0.32
0.5441509376001465
% es.Ex (V/m) @ t=0.32
1.3460321489739204
% es.Ey (V/m) @ t=0.32
0.08475369847770226
% es.Ez (V/m) @ t=0.32
0.5441509376001474
% es.tEx (V/m) @ t=0.32
1.3460321489739187
% es.tEy (V/m) @ t=0.32
0
% es.tEz (V/m) @ t=0.32
0.5441509376001465
% V (V) @ t=0.32
0.007265527149068425
% es.normE (V/m) @ t=0.34
1.4707580449783983
% es.EX (V/m) @ t=0.34
1.3591729768315846
% es.EY (V/m) @ t=0.34
0.0855804674806262
% es.EZ (V/m) @ t=0.34
0.5494628983799736
% es.tEX (V/m) @ t=0.34
1.3591729768315943
% es.tEY (V/m) @ t=0.34
0
% es.tEZ (V/m) @ t=0.34
0.5494628983799754
% es.Ex (V/m) @ t=0.34
1.3591729768315846
% es.Ey (V/m) @ t=0.34
0.0855804674806262
% es.Ez (V/m) @ t=0.34
0.5494628983799736
% es.tEx (V/m) @ t=0.34
1.3591729768315943
% es.tEy (V/m) @ t=0.34
0
% es.tEz (V/m) @ t=0.34
0.5494628983799754
% V (V) @ t=0.34
0.007336510221441827
% es.normE (V/m) @ t=0.36
1.4849775494758384
% es.EX (V/m) @ t=0.36
1.3723138046892647
% es.EY (V/m) @ t=0.36
0.0864072364835553
% es.EZ (V/m) @ t=0.36
0.554774859159811
% es.tEX (V/m) @ t=0.36
1.372313804689263
% es.tEY (V/m) @ t=0.36
0
% es.tEZ (V/m) @ t=0.36
0.5547748591598092
% es.Ex (V/m) @ t=0.36
1.3723138046892647
% es.Ey (V/m) @ t=0.36
0.0864072364835553
% es.Ez (V/m) @ t=0.36
0.554774859159811
% es.tEx (V/m) @ t=0.36
1.372313804689263
% es.tEy (V/m) @ t=0.36
0
% es.tEz (V/m) @ t=0.36
0.5547748591598092
% V (V) @ t=0.36
0.00740749329381523
% es.normE (V/m) @ t=0.38
1.4991970539737713
% es.EX (V/m) @ t=0.38
1.3854546325469412
% es.EY (V/m) @ t=0.38
0.08723400548647742
% es.EZ (V/m) @ t=0.38
0.5600868199396407
% es.tEX (V/m) @ t=0.38
1.385454632546944
% es.tEY (V/m) @ t=0.38
0
% es.tEZ (V/m) @ t=0.38
0.5600868199396416
% es.Ex (V/m) @ t=0.38
1.3854546325469412
% es.Ey (V/m) @ t=0.38
0.08723400548647742
% es.Ez (V/m) @ t=0.38
0.5600868199396407
% es.tEx (V/m) @ t=0.38
1.385454632546944
% es.tEy (V/m) @ t=0.38
0
% es.tEz (V/m) @ t=0.38
0.5600868199396416
% V (V) @ t=0.38
0.007478476366188632
% es.normE (V/m) @ t=0.4
1.5134165584721777
% es.EX (V/m) @ t=0.4
1.398595460404609
% es.EY (V/m) @ t=0.4
0.08806077448940486
% es.EZ (V/m) @ t=0.4
0.5653987807194611
% es.tEX (V/m) @ t=0.4
1.3985954604046071
% es.tEY (V/m) @ t=0.4
0
% es.tEZ (V/m) @ t=0.4
0.5653987807194594
% es.Ex (V/m) @ t=0.4
1.398595460404609
% es.Ey (V/m) @ t=0.4
0.08806077448940486
% es.Ez (V/m) @ t=0.4
0.5653987807194611
% es.tEx (V/m) @ t=0.4
1.3985954604046071
% es.tEy (V/m) @ t=0.4
0
% es.tEz (V/m) @ t=0.4
0.5653987807194594
% V (V) @ t=0.4
0.007549459438562035
% es.normE (V/m) @ t=0.42
1.5276360629710597
% es.EX (V/m) @ t=0.42
1.4117362882622775
% es.EY (V/m) @ t=0.42
0.08888754349233491
% es.EZ (V/m) @ t=0.42
0.5707107414992909
% es.tEX (V/m) @ t=0.42
1.4117362882622837
% es.tEY (V/m) @ t=0.42
0
% es.tEZ (V/m) @ t=0.42
0.5707107414992882
% es.Ex (V/m) @ t=0.42
1.4117362882622775
% es.Ey (V/m) @ t=0.42
0.08888754349233491
% es.Ez (V/m) @ t=0.42
0.5707107414992909
% es.tEx (V/m) @ t=0.42
1.4117362882622837
% es.tEy (V/m) @ t=0.42
0
% es.tEz (V/m) @ t=0.42
0.5707107414992882
% V (V) @ t=0.42
0.007620442510935437
% es.normE (V/m) @ t=0.44
1.541855567470402
% es.EX (V/m) @ t=0.44
1.4248771161199478
% es.EY (V/m) @ t=0.44
0.0897143124952623
% es.EZ (V/m) @ t=0.44
0.5760227022791233
% es.tEX (V/m) @ t=0.44
1.424877116119947
% es.tEY (V/m) @ t=0.44
0
% es.tEZ (V/m) @ t=0.44
0.5760227022791224
% es.Ex (V/m) @ t=0.44
1.4248771161199478
% es.Ey (V/m) @ t=0.44
0.0897143124952623
% es.Ez (V/m) @ t=0.44
0.5760227022791233
% es.tEx (V/m) @ t=0.44
1.424877116119947
% es.tEy (V/m) @ t=0.44
0
% es.tEz (V/m) @ t=0.44
0.5760227022791224
% V (V) @ t=0.44
0.007691425583308842
% es.normE (V/m) @ t=0.46
1.55607507197019
% es.EX (V/m) @ t=0.46
1.4380179439776226
% es.EY (V/m) @ t=0.46
0.0905410814981924
% es.EZ (V/m) @ t=0.46
0.5813346630589442
% es.tEX (V/m) @ t=0.46
1.4380179439776253
% es.tEY (V/m) @ t=0.46
0
% es.tEZ (V/m) @ t=0.46
0.5813346630589478
% es.Ex (V/m) @ t=0.46
1.4380179439776226
% es.Ey (V/m) @ t=0.46
0.0905410814981924
% es.Ez (V/m) @ t=0.46
0.5813346630589442
% es.tEx (V/m) @ t=0.46
1.4380179439776253
% es.tEy (V/m) @ t=0.46
0
% es.tEz (V/m) @ t=0.46
0.5813346630589478
% V (V) @ t=0.46
0.007762408655682246
% es.normE (V/m) @ t=0.48
1.5702945764704146
% es.EX (V/m) @ t=0.48
1.4511587718352938
% es.EY (V/m) @ t=0.48
0.09136785050110913
% es.EZ (V/m) @ t=0.48
0.5866466238387833
% es.tEX (V/m) @ t=0.48
1.451158771835293
% es.tEY (V/m) @ t=0.48
0
% es.tEZ (V/m) @ t=0.48
0.5866466238387815
% es.Ex (V/m) @ t=0.48
1.4511587718352938
% es.Ey (V/m) @ t=0.48
0.09136785050110913
% es.Ez (V/m) @ t=0.48
0.5866466238387833
% es.tEx (V/m) @ t=0.48
1.451158771835293
% es.tEy (V/m) @ t=0.48
0
% es.tEz (V/m) @ t=0.48
0.5866466238387815
% V (V) @ t=0.48
0.007833391728055647
% es.normE (V/m) @ t=0.5
1.5845140809710558
% es.EX (V/m) @ t=0.5
1.464299599692965
% es.EY (V/m) @ t=0.5
0.09219461950403918
% es.EZ (V/m) @ t=0.5
0.5919585846186086
% es.tEX (V/m) @ t=0.5
1.4642995996929677
% es.tEY (V/m) @ t=0.5
0
% es.tEZ (V/m) @ t=0.5
0.5919585846186086
% es.Ex (V/m) @ t=0.5
1.464299599692965
% es.Ey (V/m) @ t=0.5
0.09219461950403918
% es.Ez (V/m) @ t=0.5
0.5919585846186086
% es.tEx (V/m) @ t=0.5
1.4642995996929677
% es.tEy (V/m) @ t=0.5
0
% es.tEz (V/m) @ t=0.5
0.5919585846186086
% V (V) @ t=0.5
0.00790437480042905
% es.normE (V/m) @ t=0.52
1.598733585472103
% es.EX (V/m) @ t=0.52
1.4774404275506292
% es.EY (V/m) @ t=0.52
0.09302138850696301
% es.EZ (V/m) @ t=0.52
0.5972705453984384
% es.tEX (V/m) @ t=0.52
1.4774404275506283
% es.tEY (V/m) @ t=0.52
0
% es.tEZ (V/m) @ t=0.52
0.5972705453984375
% es.Ex (V/m) @ t=0.52
1.4774404275506292
% es.Ey (V/m) @ t=0.52
0.09302138850696301
% es.Ez (V/m) @ t=0.52
0.5972705453984384
% es.tEx (V/m) @ t=0.52
1.4774404275506283
% es.tEy (V/m) @ t=0.52
0
% es.tEz (V/m) @ t=0.52
0.5972705453984375
% V (V) @ t=0.52
0.007975357872802452
% es.normE (V/m) @ t=0.54
1.6129530899735607
% es.EX (V/m) @ t=0.54
1.4905812554083075
% es.EY (V/m) @ t=0.54
0.09384815750988151
% es.EZ (V/m) @ t=0.54
0.6025825061782617
% es.tEX (V/m) @ t=0.54
1.490581255408303
% es.tEY (V/m) @ t=0.54
0
% es.tEZ (V/m) @ t=0.54
0.6025825061782606
% es.Ex (V/m) @ t=0.54
1.4905812554083075
% es.Ey (V/m) @ t=0.54
0.09384815750988151
% es.Ez (V/m) @ t=0.54
0.6025825061782617
% es.tEx (V/m) @ t=0.54
1.490581255408303
% es.tEy (V/m) @ t=0.54
0
% es.tEz (V/m) @ t=0.54
0.6025825061782606
% V (V) @ t=0.54
0.008046340945175855
% es.normE (V/m) @ t=0.56
1.6276802817001204
% es.EX (V/m) @ t=0.56
1.5041912411723342
% es.EY (V/m) @ t=0.56
0.0947045124652246
% es.EZ (V/m) @ t=0.56
0.6080841611141858
% es.tEX (V/m) @ t=0.56
1.5041912411723342
% es.tEY (V/m) @ t=0.56
0
% es.tEZ (V/m) @ t=0.56
0.6080841611141885
% es.Ex (V/m) @ t=0.56
1.5041912411723342
% es.Ey (V/m) @ t=0.56
0.0947045124652246
% es.Ez (V/m) @ t=0.56
0.6080841611141858
% es.tEx (V/m) @ t=0.56
1.5041912411723342
% es.tEy (V/m) @ t=0.56
0
% es.tEz (V/m) @ t=0.56
0.6080841611141885
% V (V) @ t=0.56
0.008119852567946827
% es.normE (V/m) @ t=0.58
1.6435801356661672
% es.EX (V/m) @ t=0.58
1.5188848936788468
% es.EY (V/m) @ t=0.58
0.09562920541988246
% es.EZ (V/m) @ t=0.58
0.6140239739611983
% es.tEX (V/m) @ t=0.58
1.5188848936788482
% es.tEY (V/m) @ t=0.58
0
% es.tEZ (V/m) @ t=0.58
0.6140239739612001
% es.Ex (V/m) @ t=0.58
1.5188848936788468
% es.Ey (V/m) @ t=0.58
0.09562920541988246
% es.Ez (V/m) @ t=0.58
0.6140239739611983
% es.tEx (V/m) @ t=0.58
1.5188848936788482
% es.tEy (V/m) @ t=0.58
0
% es.tEz (V/m) @ t=0.58
0.6140239739612001
% V (V) @ t=0.58
0.008199204667741423
% es.normE (V/m) @ t=0.6
1.6594799896324086
% es.EX (V/m) @ t=0.6
1.5335785461853644
% es.EY (V/m) @ t=0.6
0.09655389837453054
% es.EZ (V/m) @ t=0.6
0.619963786808202
% es.tEX (V/m) @ t=0.6
1.533578546185363
% es.tEY (V/m) @ t=0.6
0
% es.tEZ (V/m) @ t=0.6
0.6199637868081975
% es.Ex (V/m) @ t=0.6
1.5335785461853644
% es.Ey (V/m) @ t=0.6
0.09655389837453054
% es.Ez (V/m) @ t=0.6
0.619963786808202
% es.tEx (V/m) @ t=0.6
1.533578546185363
% es.tEy (V/m) @ t=0.6
0
% es.tEz (V/m) @ t=0.6
0.6199637868081975
% V (V) @ t=0.6
0.008278556767536022
% es.normE (V/m) @ t=0.62
1.675379843598829
% es.EX (V/m) @ t=0.62
1.5482721986918682
% es.EY (V/m) @ t=0.62
0.09747859132918935
% es.EZ (V/m) @ t=0.62
0.6259035996552136
% es.tEX (V/m) @ t=0.62
1.548272198691877
% es.tEY (V/m) @ t=0.62
0
% es.tEZ (V/m) @ t=0.62
0.6259035996552109
% es.Ex (V/m) @ t=0.62
1.5482721986918682
% es.Ey (V/m) @ t=0.62
0.09747859132918935
% es.Ez (V/m) @ t=0.62
0.6259035996552136
% es.tEx (V/m) @ t=0.62
1.548272198691877
% es.tEy (V/m) @ t=0.62
0
% es.tEz (V/m) @ t=0.62
0.6259035996552109
% V (V) @ t=0.62
0.008357908867330621
% es.normE (V/m) @ t=0.64
1.6912796975654318
% es.EX (V/m) @ t=0.64
1.5629658511983786
% es.EY (V/m) @ t=0.64
0.09840328428383038
% es.EZ (V/m) @ t=0.64
0.6318434125022092
% es.tEX (V/m) @ t=0.64
1.5629658511983786
% es.tEY (V/m) @ t=0.64
0
% es.tEZ (V/m) @ t=0.64
0.6318434125022101
% es.Ex (V/m) @ t=0.64
1.5629658511983786
% es.Ey (V/m) @ t=0.64
0.09840328428383038
% es.Ez (V/m) @ t=0.64
0.6318434125022092
% es.tEx (V/m) @ t=0.64
1.5629658511983786
% es.tEy (V/m) @ t=0.64
0
% es.tEz (V/m) @ t=0.64
0.6318434125022101
% V (V) @ t=0.64
0.00843726096712522
% es.normE (V/m) @ t=0.66
1.7071795515322221
% es.EX (V/m) @ t=0.66
1.5776595037048975
% es.EY (V/m) @ t=0.66
0.09932797723848452
% es.EZ (V/m) @ t=0.66
0.637783225349208
% es.tEX (V/m) @ t=0.66
1.577659503704898
% es.tEY (V/m) @ t=0.66
0
% es.tEZ (V/m) @ t=0.66
0.6377832253492088
% es.Ex (V/m) @ t=0.66
1.5776595037048975
% es.Ey (V/m) @ t=0.66
0.09932797723848452
% es.Ez (V/m) @ t=0.66
0.637783225349208
% es.tEx (V/m) @ t=0.66
1.577659503704898
% es.tEy (V/m) @ t=0.66
0
% es.tEz (V/m) @ t=0.66
0.6377832253492088
% V (V) @ t=0.66
0.008516613066919818
% es.normE (V/m) @ t=0.68
1.7230794054991732
% es.EX (V/m) @ t=0.68
1.5923531562114008
% es.EY (V/m) @ t=0.68
0.10025267019313366
% es.EZ (V/m) @ t=0.68
0.6437230381962145
% es.tEX (V/m) @ t=0.68
1.592353156211412
% es.tEY (V/m) @ t=0.68
0
% es.tEZ (V/m) @ t=0.68
0.6437230381962187
% es.Ex (V/m) @ t=0.68
1.5923531562114008
% es.Ey (V/m) @ t=0.68
0.10025267019313366
% es.Ez (V/m) @ t=0.68
0.6437230381962145
% es.tEx (V/m) @ t=0.68
1.592353156211412
% es.tEy (V/m) @ t=0.68
0
% es.tEz (V/m) @ t=0.68
0.6437230381962187
% V (V) @ t=0.68
0.008595965166714417
% es.normE (V/m) @ t=0.7
1.7389792594663085
% es.EX (V/m) @ t=0.7
1.6070468087179188
% es.EY (V/m) @ t=0.7
0.10117736314778614
% es.EZ (V/m) @ t=0.7
0.649662851043227
% es.tEX (V/m) @ t=0.7
1.6070468087179153
% es.tEY (V/m) @ t=0.7
0
% es.tEZ (V/m) @ t=0.7
0.6496628510432272
% es.Ex (V/m) @ t=0.7
1.6070468087179188
% es.Ey (V/m) @ t=0.7
0.10117736314778614
% es.Ez (V/m) @ t=0.7
0.649662851043227
% es.tEx (V/m) @ t=0.7
1.6070468087179153
% es.tEy (V/m) @ t=0.7
0
% es.tEz (V/m) @ t=0.7
0.6496628510432272
% V (V) @ t=0.7
0.008675317266509015
% es.normE (V/m) @ t=0.72
1.754879113433594
% es.EX (V/m) @ t=0.72
1.6217404612244306
% es.EY (V/m) @ t=0.72
0.10210205610242451
% es.EZ (V/m) @ t=0.72
0.6556026638902204
% es.tEX (V/m) @ t=0.72
1.6217404612244408
% es.tEY (V/m) @ t=0.72
0
% es.tEZ (V/m) @ t=0.72
0.6556026638902184
% es.Ex (V/m) @ t=0.72
1.6217404612244306
% es.Ey (V/m) @ t=0.72
0.10210205610242451
% es.Ez (V/m) @ t=0.72
0.6556026638902204
% es.tEx (V/m) @ t=0.72
1.6217404612244408
% es.tEy (V/m) @ t=0.72
0
% es.tEz (V/m) @ t=0.72
0.6556026638902184
% V (V) @ t=0.72
0.008754669366303612
% es.normE (V/m) @ t=0.74
1.770778967401045
% es.EX (V/m) @ t=0.74
1.6364341137309446
% es.EY (V/m) @ t=0.74
0.10302674905708664
% es.EZ (V/m) @ t=0.74
0.661542476737224
% es.tEX (V/m) @ t=0.74
1.636434113730945
% es.tEY (V/m) @ t=0.74
0
% es.tEZ (V/m) @ t=0.74
0.6615424767372269
% es.Ex (V/m) @ t=0.74
1.6364341137309446
% es.Ey (V/m) @ t=0.74
0.10302674905708664
% es.Ez (V/m) @ t=0.74
0.661542476737224
% es.tEx (V/m) @ t=0.74
1.636434113730945
% es.tEy (V/m) @ t=0.74
0
% es.tEz (V/m) @ t=0.74
0.6615424767372269
% V (V) @ t=0.74
0.008834021466098211
% es.normE (V/m) @ t=0.76
1.7866788213686458
% es.EX (V/m) @ t=0.76
1.6511277662374497
% es.EY (V/m) @ t=0.76
0.10395144201173667
% es.EZ (V/m) @ t=0.76
0.667482289584235
% es.tEX (V/m) @ t=0.76
1.6511277662374484
% es.tEY (V/m) @ t=0.76
0
% es.tEZ (V/m) @ t=0.76
0.667482289584235
% es.Ex (V/m) @ t=0.76
1.6511277662374497
% es.Ey (V/m) @ t=0.76
0.10395144201173667
% es.Ez (V/m) @ t=0.76
0.667482289584235
% es.tEx (V/m) @ t=0.76
1.6511277662374484
% es.tEy (V/m) @ t=0.76
0
% es.tEz (V/m) @ t=0.76
0.667482289584235
% V (V) @ t=0.76
0.00891337356589281
% es.normE (V/m) @ t=0.78
1.802578675336409
% es.EX (V/m) @ t=0.78
1.6658214187439748
% es.EY (V/m) @ t=0.78
0.10487613496638204
% es.EZ (V/m) @ t=0.78
0.6734221024312297
% es.tEX (V/m) @ t=0.78
1.6658214187439766
% es.tEY (V/m) @ t=0.78
0
% es.tEZ (V/m) @ t=0.78
0.6734221024312288
% es.Ex (V/m) @ t=0.78
1.6658214187439748
% es.Ey (V/m) @ t=0.78
0.10487613496638204
% es.Ez (V/m) @ t=0.78
0.6734221024312297
% es.tEx (V/m) @ t=0.78
1.6658214187439766
% es.tEy (V/m) @ t=0.78
0
% es.tEz (V/m) @ t=0.78
0.6734221024312288
% V (V) @ t=0.78
0.008992725665687408
% es.normE (V/m) @ t=0.8
1.8184785293042975
% es.EX (V/m) @ t=0.8
1.6805150712504675
% es.EY (V/m) @ t=0.8
0.10580082792103007
% es.EZ (V/m) @ t=0.8
0.6793619152782475
% es.tEX (V/m) @ t=0.8
1.6805150712504657
% es.tEY (V/m) @ t=0.8
0
% es.tEZ (V/m) @ t=0.8
0.6793619152782475
% es.Ex (V/m) @ t=0.8
1.6805150712504675
% es.Ey (V/m) @ t=0.8
0.10580082792103007
% es.Ez (V/m) @ t=0.8
0.6793619152782475
% es.tEx (V/m) @ t=0.8
1.6805150712504657
% es.tEy (V/m) @ t=0.8
0
% es.tEz (V/m) @ t=0.8
0.6793619152782475
% V (V) @ t=0.8
0.009072077765482005
% es.normE (V/m) @ t=0.82
1.834378383272346
% es.EX (V/m) @ t=0.82
1.6952087237569868
% es.EY (V/m) @ t=0.82
0.10672552087568354
% es.EZ (V/m) @ t=0.82
0.6853017281252423
% es.tEX (V/m) @ t=0.82
1.6952087237569833
% es.tEY (V/m) @ t=0.82
0
% es.tEZ (V/m) @ t=0.82
0.6853017281252378
% es.Ex (V/m) @ t=0.82
1.6952087237569868
% es.Ey (V/m) @ t=0.82
0.10672552087568354
% es.Ez (V/m) @ t=0.82
0.6853017281252423
% es.tEx (V/m) @ t=0.82
1.6952087237569833
% es.tEy (V/m) @ t=0.82
0
% es.tEz (V/m) @ t=0.82
0.6853017281252378
% V (V) @ t=0.82
0.009151429865276605
% es.normE (V/m) @ t=0.84
1.851151623469514
% es.EX (V/m) @ t=0.84
1.710709422784105
% es.EY (V/m) @ t=0.84
0.10770139170298842
% es.EZ (V/m) @ t=0.84
0.6915680040345342
% es.tEX (V/m) @ t=0.84
1.710709422784106
% es.tEY (V/m) @ t=0.84
0
% es.tEZ (V/m) @ t=0.84
0.6915680040345404
% es.Ex (V/m) @ t=0.84
1.710709422784105
% es.Ey (V/m) @ t=0.84
0.10770139170298842
% es.Ez (V/m) @ t=0.84
0.6915680040345342
% es.tEx (V/m) @ t=0.84
1.710709422784106
% es.tEy (V/m) @ t=0.84
0
% es.tEz (V/m) @ t=0.84
0.6915680040345404
% V (V) @ t=0.84
0.009235109724042104
% es.normE (V/m) @ t=0.86
1.868957320442537
% es.EX (V/m) @ t=0.86
1.7271641563733136
% es.EY (V/m) @ t=0.86
0.1087377614706807
% es.EZ (V/m) @ t=0.86
0.6982202019900705
% es.tEX (V/m) @ t=0.86
1.7271641563733109
% es.tEY (V/m) @ t=0.86
0
% es.tEZ (V/m) @ t=0.86
0.6982202019900723
% es.Ex (V/m) @ t=0.86
1.7271641563733136
% es.Ey (V/m) @ t=0.86
0.1087377614706807
% es.Ez (V/m) @ t=0.86
0.6982202019900705
% es.tEx (V/m) @ t=0.86
1.7271641563733109
% es.tEy (V/m) @ t=0.86
0
% es.tEz (V/m) @ t=0.86
0.6982202019900723
% V (V) @ t=0.86
0.009323905560051988
% es.normE (V/m) @ t=0.88
1.886763017415722
% es.EX (V/m) @ t=0.88
1.743618889962506
% es.EY (V/m) @ t=0.88
0.10977413123837765
% es.EZ (V/m) @ t=0.88
0.7048723999456235
% es.tEX (V/m) @ t=0.88
1.743618889962514
% es.tEY (V/m) @ t=0.88
0
% es.tEZ (V/m) @ t=0.88
0.7048723999456188
% es.Ex (V/m) @ t=0.88
1.743618889962506
% es.Ey (V/m) @ t=0.88
0.10977413123837765
% es.Ez (V/m) @ t=0.88
0.7048723999456235
% es.tEx (V/m) @ t=0.88
1.743618889962514
% es.tEy (V/m) @ t=0.88
0
% es.tEz (V/m) @ t=0.88
0.7048723999456188
% V (V) @ t=0.88
0.009412701396061873
% es.normE (V/m) @ t=0.9
1.9045687143890826
% es.EX (V/m) @ t=0.9
1.760073623551711
% es.EY (V/m) @ t=0.9
0.11081050100607526
% es.EZ (V/m) @ t=0.9
0.7115245979011713
% es.tEX (V/m) @ t=0.9
1.760073623551719
% es.tEY (V/m) @ t=0.9
0
% es.tEZ (V/m) @ t=0.9
0.7115245979011702
% es.Ex (V/m) @ t=0.9
1.760073623551711
% es.Ey (V/m) @ t=0.9
0.11081050100607526
% es.Ez (V/m) @ t=0.9
0.7115245979011713
% es.tEx (V/m) @ t=0.9
1.760073623551719
% es.tEy (V/m) @ t=0.9
0
% es.tEz (V/m) @ t=0.9
0.7115245979011702
% V (V) @ t=0.9
0.009501497232071759
% es.normE (V/m) @ t=0.92
1.9223744113626107
% es.EX (V/m) @ t=0.92
1.7765283571409203
% es.EY (V/m) @ t=0.92
0.1118468707737722
% es.EZ (V/m) @ t=0.92
0.7181767958567236
% es.tEX (V/m) @ t=0.92
1.7765283571409132
% es.tEY (V/m) @ t=0.92
0
% es.tEZ (V/m) @ t=0.92
0.7181767958567233
% es.Ex (V/m) @ t=0.92
1.7765283571409203
% es.Ey (V/m) @ t=0.92
0.1118468707737722
% es.Ez (V/m) @ t=0.92
0.7181767958567236
% es.tEx (V/m) @ t=0.92
1.7765283571409132
% es.tEy (V/m) @ t=0.92
0
% es.tEz (V/m) @ t=0.92
0.7181767958567233
% V (V) @ t=0.92
0.009590293068081646
% es.normE (V/m) @ t=0.94
1.9401801083362717
% es.EX (V/m) @ t=0.94
1.7929830907301056
% es.EY (V/m) @ t=0.94
0.1128832405414637
% es.EZ (V/m) @ t=0.94
0.724828993812271
% es.tEX (V/m) @ t=0.94
1.7929830907301056
% es.tEY (V/m) @ t=0.94
0
% es.tEZ (V/m) @ t=0.94
0.7248289938122698
% es.Ex (V/m) @ t=0.94
1.7929830907301056
% es.Ey (V/m) @ t=0.94
0.1128832405414637
% es.Ez (V/m) @ t=0.94
0.724828993812271
% es.tEx (V/m) @ t=0.94
1.7929830907301056
% es.tEy (V/m) @ t=0.94
0
% es.tEz (V/m) @ t=0.94
0.7248289938122698
% V (V) @ t=0.94
0.00967908890409153
% es.normE (V/m) @ t=0.96
1.9579858053101007
% es.EX (V/m) @ t=0.96
1.8094378243193123
% es.EY (V/m) @ t=0.96
0.1139196103091551
% es.EZ (V/m) @ t=0.96
0.7314811917678066
% es.tEX (V/m) @ t=0.96
1.8094378243193052
% es.tEY (V/m) @ t=0.96
0
% es.tEZ (V/m) @ t=0.96
0.7314811917678083
% es.Ex (V/m) @ t=0.96
1.8094378243193123
% es.Ey (V/m) @ t=0.96
0.1139196103091551
% es.Ez (V/m) @ t=0.96
0.7314811917678066
% es.tEx (V/m) @ t=0.96
1.8094378243193052
% es.tEy (V/m) @ t=0.96
0
% es.tEz (V/m) @ t=0.96
0.7314811917678083
% V (V) @ t=0.96
0.009767884740101415
% es.normE (V/m) @ t=0.98
1.9757915022840842
% es.EX (V/m) @ t=0.98
1.82589255790852
% es.EY (V/m) @ t=0.98
0.11495598007684837
% es.EZ (V/m) @ t=0.98
0.7381333897233586
% es.tEX (V/m) @ t=0.98
1.8258925579085155
% es.tEY (V/m) @ t=0.98
0
% es.tEZ (V/m) @ t=0.98
0.7381333897233637
% es.Ex (V/m) @ t=0.98
1.82589255790852
% es.Ey (V/m) @ t=0.98
0.11495598007684837
% es.Ez (V/m) @ t=0.98
0.7381333897233586
% es.tEx (V/m) @ t=0.98
1.8258925579085155
% es.tEy (V/m) @ t=0.98
0
% es.tEz (V/m) @ t=0.98
0.7381333897233637
% V (V) @ t=0.98
0.009856680576111304
% es.normE (V/m) @ t=1
1.9935971992582076
% es.EX (V/m) @ t=1
1.8423472914977213
% es.EY (V/m) @ t=1
0.11599234984454354
% es.EZ (V/m) @ t=1
0.74478558767891
% es.tEX (V/m) @ t=1
1.8423472914977204
% es.tEY (V/m) @ t=1
0
% es.tEZ (V/m) @ t=1
0.7447855876789151
% es.Ex (V/m) @ t=1
1.8423472914977213
% es.Ey (V/m) @ t=1
0.11599234984454354
% es.Ez (V/m) @ t=1
0.74478558767891
% es.tEx (V/m) @ t=1
1.8423472914977204
% es.tEy (V/m) @ t=1
0
% es.tEz (V/m) @ t=1
0.7447855876789151
% V (V) @ t=1
0.00994547641212119
% es.normE (V/m) @ t=1.02
2.0114028962324517
% es.EX (V/m) @ t=1.02
1.8588020250869066
% es.EY (V/m) @ t=1.02
0.11702871961222705
% es.EZ (V/m) @ t=1.02
0.7514377856344485
% es.tEX (V/m) @ t=1.02
1.8588020250869022
% es.tEY (V/m) @ t=1.02
0
% es.tEZ (V/m) @ t=1.02
0.751437785634451
% es.Ex (V/m) @ t=1.02
1.8588020250869066
% es.Ey (V/m) @ t=1.02
0.11702871961222705
% es.Ez (V/m) @ t=1.02
0.7514377856344485
% es.tEx (V/m) @ t=1.02
1.8588020250869022
% es.tEy (V/m) @ t=1.02
0
% es.tEz (V/m) @ t=1.02
0.751437785634451
% V (V) @ t=1.02
0.010034272248131073
% es.normE (V/m) @ t=1.04
2.0292085932068624
% es.EX (V/m) @ t=1.04
1.875256758676115
% es.EY (V/m) @ t=1.04
0.11806508937992755
% es.EZ (V/m) @ t=1.04
0.7580899835900097
% es.tEX (V/m) @ t=1.04
1.875256758676107
% es.tEY (V/m) @ t=1.04
0
% es.tEZ (V/m) @ t=1.04
0.7580899835900112
% es.Ex (V/m) @ t=1.04
1.875256758676115
% es.Ey (V/m) @ t=1.04
0.11806508937992755
% es.Ez (V/m) @ t=1.04
0.7580899835900097