% Model:              1 neuron.mph
% Version:            COMSOL 6.0.0.405
% Date:               Mar 9 2023, 13:20
% Dimension:          0
% Nodes:              14017
% Expressions:        14017
% Description:        Electric field norm, Electric field, X component, Electric field, Y component, Electric field, Z component, Tangential electric field, X component, Tangential electric field, Y component, Tangential electric field, Z component, Electric field, x component, Electric field, y component, Electric field, z component, Tangential electric field, x component, Tangential electric field, y component, Tangential electric field, z component, Electric potential
% Length unit:        mm
% x
1.33
% y
12.2
% z
1
% es.normE (V/m) @ t=0
1.5848750047007187
% es.EX (V/m) @ t=0
0.4891930384111909
% es.EY (V/m) @ t=0
0.11851396669868863
% es.EZ (V/m) @ t=0
1.5028109530369287
% es.tEX (V/m) @ t=0
0.48919303841119444
% es.tEY (V/m) @ t=0
0
% es.tEZ (V/m) @ t=0
1.502810953036935
% es.Ex (V/m) @ t=0
0.4891930384111909
% es.Ey (V/m) @ t=0
0.11851396669868863
% es.Ez (V/m) @ t=0
1.5028109530369287
% es.tEx (V/m) @ t=0
0.48919303841119444
% es.tEy (V/m) @ t=0
0
% es.tEz (V/m) @ t=0
1.502810953036935
% V (V) @ t=0
0.00741249420073663
% es.normE (V/m) @ t=0.02
1.3688863539501257
% es.EX (V/m) @ t=0.02
0.4225252292190448
% es.EY (V/m) @ t=0.02
0.10236274239083526
% es.EZ (V/m) @ t=0.02
1.2980060888713785
% es.tEX (V/m) @ t=0.02
0.422525229219044
% es.tEY (V/m) @ t=0.02
0
% es.tEZ (V/m) @ t=0.02
1.2980060888713751
% es.Ex (V/m) @ t=0.02
0.4225252292190448
% es.Ey (V/m) @ t=0.02
0.10236274239083526
% es.Ez (V/m) @ t=0.02
1.2980060888713785
% es.tEx (V/m) @ t=0.02
0.422525229219044
% es.tEy (V/m) @ t=0.02
0
% es.tEz (V/m) @ t=0.02
1.2980060888713751
% V (V) @ t=0.02
0.006402310665129534
% es.normE (V/m) @ t=0.04
1.381475930582246
% es.EX (V/m) @ t=0.04
0.4264111713933092
% es.EY (V/m) @ t=0.04
0.10330416750003779
% es.EZ (V/m) @ t=0.04
1.3099437834961614
% es.tEX (V/m) @ t=0.04
0.42641117139331186
% es.tEY (V/m) @ t=0.04
0
% es.tEZ (V/m) @ t=0.04
1.3099437834961707
% es.Ex (V/m) @ t=0.04
0.4264111713933092
% es.Ey (V/m) @ t=0.04
0.10330416750003779
% es.Ez (V/m) @ t=0.04
1.3099437834961614
% es.tEx (V/m) @ t=0.04
0.42641117139331186
% es.tEy (V/m) @ t=0.04
0
% es.tEz (V/m) @ t=0.04
1.3099437834961707
% V (V) @ t=0.04
0.006461192314897445
% es.normE (V/m) @ t=0.06
1.3941852009830211
% es.EX (V/m) @ t=0.06
0.4303340576378638
% es.EY (V/m) @ t=0.06
0.10425454380092425
% es.EZ (V/m) @ t=0.06
1.3219949744835389
% es.tEX (V/m) @ t=0.06
0.4303340576378609
% es.tEY (V/m) @ t=0.06
0
% es.tEZ (V/m) @ t=0.06
1.3219949744835429
% es.Ex (V/m) @ t=0.06
0.4303340576378638
% es.Ey (V/m) @ t=0.06
0.10425454380092425
% es.Ez (V/m) @ t=0.06
1.3219949744835389
% es.tEx (V/m) @ t=0.06
0.4303340576378609
% es.tEy (V/m) @ t=0.06
0
% es.tEz (V/m) @ t=0.06
1.3219949744835429
% V (V) @ t=0.06
0.006520633598619078
% es.normE (V/m) @ t=0.08
1.4070737181745496
% es.EX (V/m) @ t=0.08
0.43431227178139564
% es.EY (V/m) @ t=0.08
0.10521832318800939
% es.EZ (V/m) @ t=0.08
1.3342161306880382
% es.tEX (V/m) @ t=0.08
0.43431227178139764
% es.tEY (V/m) @ t=0.08
0
% es.tEZ (V/m) @ t=0.08
1.3342161306880502
% es.Ex (V/m) @ t=0.08
0.43431227178139564
% es.Ey (V/m) @ t=0.08
0.10521832318800939
% es.Ez (V/m) @ t=0.08
1.3342161306880382
% es.tEx (V/m) @ t=0.08
0.43431227178139764
% es.tEy (V/m) @ t=0.08
0
% es.tEz (V/m) @ t=0.08
1.3342161306880502
% V (V) @ t=0.08
0.006580913392220361
% es.normE (V/m) @ t=0.1
1.4201172950863603
% es.EX (V/m) @ t=0.1
0.438338348028933
% es.EY (V/m) @ t=0.1
0.10619369708555604
% es.EZ (V/m) @ t=0.1
1.3465843174692824
% es.tEX (V/m) @ t=0.1
0.4383383480289389
% es.tEY (V/m) @ t=0.1
0
% es.tEZ (V/m) @ t=0.1
1.3465843174692793
% es.Ex (V/m) @ t=0.1
0.438338348028933
% es.Ey (V/m) @ t=0.1
0.10619369708555604
% es.Ez (V/m) @ t=0.1
1.3465843174692824
% es.tEx (V/m) @ t=0.1
0.4383383480289389
% es.tEy (V/m) @ t=0.1
0
% es.tEz (V/m) @ t=0.1
1.3465843174692793
% V (V) @ t=0.1
0.006641918549477129
% es.normE (V/m) @ t=0.12
1.4331608719981639
% es.EX (V/m) @ t=0.12
0.44236442427646727
% es.EY (V/m) @ t=0.12
0.10716907098311479
% es.EZ (V/m) @ t=0.12
1.3589525042505195
% es.tEX (V/m) @ t=0.12
0.4423644242764695
% es.tEY (V/m) @ t=0.12
0
% es.tEZ (V/m) @ t=0.12
1.3589525042505226
% es.Ex (V/m) @ t=0.12
0.44236442427646727
% es.Ey (V/m) @ t=0.12
0.10716907098311479
% es.Ez (V/m) @ t=0.12
1.3589525042505195
% es.tEx (V/m) @ t=0.12
0.4423644242764695
% es.tEy (V/m) @ t=0.12
0
% es.tEz (V/m) @ t=0.12
1.3589525042505226
% V (V) @ t=0.12
0.0067029237067339
% es.normE (V/m) @ t=0.14
1.446262805377732
% es.EX (V/m) @ t=0.14
0.44640851299093764
% es.EY (V/m) @ t=0.14
0.10814880868622812
% es.EZ (V/m) @ t=0.14
1.3713760258429337
% es.tEX (V/m) @ t=0.14
0.44640851299093853
% es.tEY (V/m) @ t=0.14
0
% es.tEZ (V/m) @ t=0.14
1.371376025842931
% es.Ex (V/m) @ t=0.14
0.44640851299093764
% es.Ey (V/m) @ t=0.14
0.10814880868622812
% es.Ez (V/m) @ t=0.14
1.3713760258429337
% es.tEx (V/m) @ t=0.14
0.44640851299093853
% es.tEy (V/m) @ t=0.14
0
% es.tEz (V/m) @ t=0.14
1.371376025842931
% V (V) @ t=0.14
0.0067642017907262875
% es.normE (V/m) @ t=0.16
1.4600140056152333
% es.EX (V/m) @ t=0.16
0.45065300618936244
% es.EY (V/m) @ t=0.16
0.10917709755139593
% es.EZ (V/m) @ t=0.16
1.3844151957150426
% es.tEX (V/m) @ t=0.16
0.45065300618935566
% es.tEY (V/m) @ t=0.16
0
% es.tEZ (V/m) @ t=0.16
1.3844151957150466
% es.Ex (V/m) @ t=0.16
0.45065300618936244
% es.Ey (V/m) @ t=0.16
0.10917709755139593
% es.Ez (V/m) @ t=0.16
1.3844151957150426
% es.tEx (V/m) @ t=0.16
0.45065300618935566
% es.tEy (V/m) @ t=0.16
0
% es.tEz (V/m) @ t=0.16
1.3844151957150466
% V (V) @ t=0.16
0.006828516423894851
% es.normE (V/m) @ t=0.18
1.4737652058527395
% es.EX (V/m) @ t=0.18
0.4548974993877949
% es.EY (V/m) @ t=0.18
0.11020538641658661
% es.EZ (V/m) @ t=0.18
1.3974543655871523
% es.tEX (V/m) @ t=0.18
0.45489749938779056
% es.tEY (V/m) @ t=0.18
0
% es.tEZ (V/m) @ t=0.18
1.397454365587155
% es.Ex (V/m) @ t=0.18
0.4548974993877949
% es.Ey (V/m) @ t=0.18
0.11020538641658661
% es.Ez (V/m) @ t=0.18
1.3974543655871523
% es.tEx (V/m) @ t=0.18
0.45489749938779056
% es.tEy (V/m) @ t=0.18
0
% es.tEz (V/m) @ t=0.18
1.397454365587155
% V (V) @ t=0.18
0.006892831057063415
% es.normE (V/m) @ t=0.2
1.4875164060902464
% es.EX (V/m) @ t=0.2
0.4591419925862251
% es.EY (V/m) @ t=0.2
0.11123367528176686
% es.EZ (V/m) @ t=0.2
1.4104935354592643
% es.tEX (V/m) @ t=0.2
0.45914199258622546
% es.tEY (V/m) @ t=0.2
0
% es.tEZ (V/m) @ t=0.2
1.4104935354592705
% es.Ex (V/m) @ t=0.2
0.4591419925862251
% es.Ey (V/m) @ t=0.2
0.11123367528176686
% es.Ez (V/m) @ t=0.2
1.4104935354592643
% es.tEx (V/m) @ t=0.2
0.45914199258622546
% es.tEy (V/m) @ t=0.2
0
% es.tEz (V/m) @ t=0.2
1.4104935354592705
% V (V) @ t=0.2
0.006957145690231979
% es.normE (V/m) @ t=0.22
1.5012676063277501
% es.EX (V/m) @ t=0.22
0.4633864857846506
% es.EY (V/m) @ t=0.22
0.11226196414696088
% es.EZ (V/m) @ t=0.22
1.4235327053313735
% es.tEX (V/m) @ t=0.22
0.46338648578465325
% es.tEY (V/m) @ t=0.22
0
% es.tEZ (V/m) @ t=0.22
1.4235327053313718
% es.Ex (V/m) @ t=0.22
0.4633864857846506
% es.Ey (V/m) @ t=0.22
0.11226196414696088
% es.Ez (V/m) @ t=0.22
1.4235327053313735
% es.tEx (V/m) @ t=0.22
0.46338648578465325
% es.tEy (V/m) @ t=0.22
0
% es.tEz (V/m) @ t=0.22
1.4235327053313718
% V (V) @ t=0.22
0.007021460323400543
% es.normE (V/m) @ t=0.24
1.5150188065652572
% es.EX (V/m) @ t=0.24
0.4676309789830805
% es.EY (V/m) @ t=0.24
0.11329025301213203
% es.EZ (V/m) @ t=0.24
1.4365718752034864
% es.tEX (V/m) @ t=0.24
0.46763097898308104
% es.tEY (V/m) @ t=0.24
0
% es.tEZ (V/m) @ t=0.24
1.4365718752034802
% es.Ex (V/m) @ t=0.24
0.4676309789830805
% es.Ey (V/m) @ t=0.24
0.11329025301213203
% es.Ez (V/m) @ t=0.24
1.4365718752034864
% es.tEx (V/m) @ t=0.24
0.46763097898308104
% es.tEy (V/m) @ t=0.24
0
% es.tEz (V/m) @ t=0.24
1.4365718752034802
% V (V) @ t=0.24
0.0070857749565691065
% es.normE (V/m) @ t=0.26
1.5287700068027639
% es.EX (V/m) @ t=0.26
0.4718754721815094
% es.EY (V/m) @ t=0.26
0.11431854187731416
% es.EZ (V/m) @ t=0.26
1.4496110450755983
% es.tEX (V/m) @ t=0.26
0.4718754721815088
% es.tEY (V/m) @ t=0.26
0
% es.tEZ (V/m) @ t=0.26
1.4496110450756028
% es.Ex (V/m) @ t=0.26
0.4718754721815094
% es.Ey (V/m) @ t=0.26
0.11431854187731416
% es.Ez (V/m) @ t=0.26
1.4496110450755983
% es.tEx (V/m) @ t=0.26
0.4718754721815088
% es.tEy (V/m) @ t=0.26
0
% es.tEz (V/m) @ t=0.26
1.4496110450756028
% V (V) @ t=0.26
0.00715008958973767
% es.normE (V/m) @ t=0.28
1.542800634387657
% es.EX (V/m) @ t=0.28
0.47620622206344254
% es.EY (V/m) @ t=0.28
0.11536772216471403
% es.EZ (V/m) @ t=0.28
1.462915171469748
% es.tEX (V/m) @ t=0.28
0.4762062220634462
% es.tEY (V/m) @ t=0.28
0
% es.tEZ (V/m) @ t=0.28
1.4629151714697493
% es.Ex (V/m) @ t=0.28
0.47620622206344254
% es.Ey (V/m) @ t=0.28
0.11536772216471403
% es.Ez (V/m) @ t=0.28
1.462915171469748
% es.tEx (V/m) @ t=0.28
0.4762062220634462
% es.tEy (V/m) @ t=0.28
0
% es.tEz (V/m) @ t=0.28
1.4629151714697493
% V (V) @ t=0.28
0.007215712282985394
% es.normE (V/m) @ t=0.3
1.558148062377799
% es.EX (V/m) @ t=0.3
0.48094345626717816
% es.EY (V/m) @ t=0.3
0.11651535320682693
% es.EZ (V/m) @ t=0.3
1.477467904554885
% es.tEX (V/m) @ t=0.3
0.4809434562671697
% es.tEY (V/m) @ t=0.3
0
% es.tEZ (V/m) @ t=0.3
1.4774679045548869
% es.Ex (V/m) @ t=0.3
0.48094345626717816
% es.Ey (V/m) @ t=0.3
0.11651535320682693
% es.Ez (V/m) @ t=0.3
1.477467904554885
% es.tEx (V/m) @ t=0.3
0.4809434562671697
% es.tEy (V/m) @ t=0.3
0
% es.tEz (V/m) @ t=0.3
1.4774679045548869
% V (V) @ t=0.3
0.00728749920481885
% es.normE (V/m) @ t=0.32
1.5734954903679457
% es.EX (V/m) @ t=0.32
0.48568069047090856
% es.EY (V/m) @ t=0.32
0.11766298424892241
% es.EZ (V/m) @ t=0.32
1.4920206376400285
% es.tEX (V/m) @ t=0.32
0.48568069047091456
% es.tEY (V/m) @ t=0.32
0
% es.tEZ (V/m) @ t=0.32
1.4920206376400316
% es.Ex (V/m) @ t=0.32
0.48568069047090856
% es.Ey (V/m) @ t=0.32
0.11766298424892241
% es.Ez (V/m) @ t=0.32
1.4920206376400285
% es.tEx (V/m) @ t=0.32
0.48568069047091456
% es.tEy (V/m) @ t=0.32
0
% es.tEz (V/m) @ t=0.32
1.4920206376400316
% V (V) @ t=0.32
0.0073592861266523054
% es.normE (V/m) @ t=0.34
1.5888429183580914
% es.EX (V/m) @ t=0.34
0.49041792467463363
% es.EY (V/m) @ t=0.34
0.11881061529104042
% es.EZ (V/m) @ t=0.34
1.5065733707251692
% es.tEX (V/m) @ t=0.34
0.4904179246746381
% es.tEY (V/m) @ t=0.34
0
% es.tEZ (V/m) @ t=0.34
1.5065733707251692
% es.Ex (V/m) @ t=0.34
0.49041792467463363
% es.Ey (V/m) @ t=0.34
0.11881061529104042
% es.Ez (V/m) @ t=0.34
1.5065733707251692
% es.tEx (V/m) @ t=0.34
0.4904179246746381
% es.tEy (V/m) @ t=0.34
0
% es.tEz (V/m) @ t=0.34
1.5065733707251692
% V (V) @ t=0.34
0.007431073048485762
% es.normE (V/m) @ t=0.36
1.604190346348236
% es.EX (V/m) @ t=0.36
0.4951551588783546
% es.EY (V/m) @ t=0.36
0.11995824633314656
% es.EZ (V/m) @ t=0.36
1.5211261038103094
% es.tEX (V/m) @ t=0.36
0.4951551588783545
% es.tEY (V/m) @ t=0.36
0
% es.tEZ (V/m) @ t=0.36
1.521126103810312
% es.Ex (V/m) @ t=0.36
0.4951551588783546
% es.Ey (V/m) @ t=0.36
0.11995824633314656
% es.Ez (V/m) @ t=0.36
1.5211261038103094
% es.tEx (V/m) @ t=0.36
0.4951551588783545
% es.tEy (V/m) @ t=0.36
0
% es.tEz (V/m) @ t=0.36
1.521126103810312
% V (V) @ t=0.36
0.007502859970319217
% es.normE (V/m) @ t=0.38
1.6195377743383848
% es.EX (V/m) @ t=0.38
0.4998923930820939
% es.EY (V/m) @ t=0.38
0.12110587737525613
% es.EZ (V/m) @ t=0.38
1.5356788368954462
% es.tEX (V/m) @ t=0.38
0.4998923930820851
% es.tEY (V/m) @ t=0.38
0
% es.tEZ (V/m) @ t=0.38
1.5356788368954426
% es.Ex (V/m) @ t=0.38
0.4998923930820939
% es.Ey (V/m) @ t=0.38
0.12110587737525613
% es.Ez (V/m) @ t=0.38
1.5356788368954462
% es.tEx (V/m) @ t=0.38
0.4998923930820851
% es.tEy (V/m) @ t=0.38
0
% es.tEz (V/m) @ t=0.38
1.5356788368954426
% V (V) @ t=0.38
0.007574646892152674
% es.normE (V/m) @ t=0.4
1.6348852023285327
% es.EX (V/m) @ t=0.4
0.5046296272858172
% es.EY (V/m) @ t=0.4
0.12225350841735105
% es.EZ (V/m) @ t=0.4
1.5502315699805869
% es.tEX (V/m) @ t=0.4
0.5046296272858228
% es.tEY (V/m) @ t=0.4
0
% es.tEZ (V/m) @ t=0.4
1.5502315699805873
% es.Ex (V/m) @ t=0.4
0.5046296272858172
% es.Ey (V/m) @ t=0.4
0.12225350841735105
% es.Ez (V/m) @ t=0.4
1.5502315699805869
% es.tEx (V/m) @ t=0.4
0.5046296272858228
% es.tEy (V/m) @ t=0.4
0
% es.tEz (V/m) @ t=0.4
1.5502315699805873
% V (V) @ t=0.4
0.00764643381398613
% es.normE (V/m) @ t=0.42
1.650232630318684
% es.EX (V/m) @ t=0.42
0.5093668614895512
% es.EY (V/m) @ t=0.42
0.1234011394594815
% es.EZ (V/m) @ t=0.42
1.5647843030657236
% es.tEX (V/m) @ t=0.42
0.5093668614895535
% es.tEY (V/m) @ t=0.42
0
% es.tEZ (V/m) @ t=0.42
1.564784303065732
% es.Ex (V/m) @ t=0.42
0.5093668614895512
% es.Ey (V/m) @ t=0.42
0.1234011394594815
% es.Ez (V/m) @ t=0.42
1.5647843030657236
% es.tEx (V/m) @ t=0.42
0.5093668614895535
% es.tEy (V/m) @ t=0.42
0
% es.tEz (V/m) @ t=0.42
1.564784303065732
% V (V) @ t=0.42
0.007718220735819585
% es.normE (V/m) @ t=0.44
1.6655800583088531
% es.EX (V/m) @ t=0.44
0.5141040956932864
% es.EY (V/m) @ t=0.44
0.12454877050158564
% es.EZ (V/m) @ t=0.44
1.579337036150879
% es.tEX (V/m) @ t=0.44
0.5141040956932841
% es.tEY (V/m) @ t=0.44
0
% es.tEZ (V/m) @ t=0.44
1.5793370361508767
% es.Ex (V/m) @ t=0.44
0.5141040956932864
% es.Ey (V/m) @ t=0.44
0.12454877050158564
% es.Ez (V/m) @ t=0.44
1.579337036150879
% es.tEx (V/m) @ t=0.44
0.5141040956932841
% es.tEy (V/m) @ t=0.44
0
% es.tEz (V/m) @ t=0.44
1.5793370361508767
% V (V) @ t=0.44
0.007790007657653041
% es.normE (V/m) @ t=0.46
1.6809274862989974
% es.EX (V/m) @ t=0.46
0.5188413298970062
% es.EY (V/m) @ t=0.46
0.1256964015436952
% es.EZ (V/m) @ t=0.46
1.5938897692360117
% es.tEX (V/m) @ t=0.46
0.5188413298970076
% es.tEY (V/m) @ t=0.46
0
% es.tEZ (V/m) @ t=0.46
1.5938897692360126
% es.Ex (V/m) @ t=0.46
0.5188413298970062
% es.Ey (V/m) @ t=0.46
0.1256964015436952
% es.Ez (V/m) @ t=0.46
1.5938897692360117
% es.tEx (V/m) @ t=0.46
0.5188413298970076
% es.tEy (V/m) @ t=0.46
0
% es.tEz (V/m) @ t=0.46
1.5938897692360126
% V (V) @ t=0.46
0.007861794579486499
% es.normE (V/m) @ t=0.48
1.6962749142891558
% es.EX (V/m) @ t=0.48
0.5235785641007349
% es.EY (V/m) @ t=0.48
0.12684403258579902
% es.EZ (V/m) @ t=0.48
1.6084425023211555
% es.tEX (V/m) @ t=0.48
0.5235785641007382
% es.tEY (V/m) @ t=0.48
0
% es.tEZ (V/m) @ t=0.48
1.6084425023211573
% es.Ex (V/m) @ t=0.48
0.5235785641007349
% es.Ey (V/m) @ t=0.48
0.12684403258579902
% es.Ez (V/m) @ t=0.48
1.6084425023211555
% es.tEx (V/m) @ t=0.48
0.5235785641007382
% es.tEy (V/m) @ t=0.48
0
% es.tEz (V/m) @ t=0.48
1.6084425023211573
% V (V) @ t=0.48
0.007933581501319955
% es.normE (V/m) @ t=0.5
1.7116223422793009
% es.EX (V/m) @ t=0.5
0.5283157983044517
% es.EY (V/m) @ t=0.5
0.1279916636278967
% es.EZ (V/m) @ t=0.5
1.6229952354062882
% es.tEX (V/m) @ t=0.5
0.5283157983044546
% es.tEY (V/m) @ t=0.5
0
% es.tEZ (V/m) @ t=0.5
1.622995235406293
% es.Ex (V/m) @ t=0.5
0.5283157983044517
% es.Ey (V/m) @ t=0.5
0.1279916636278967
% es.Ez (V/m) @ t=0.5
1.6229952354062882
% es.tEx (V/m) @ t=0.5
0.5283157983044546
% es.tEy (V/m) @ t=0.5
0
% es.tEz (V/m) @ t=0.5
1.622995235406293
% V (V) @ t=0.5
0.00800536842315341
% es.normE (V/m) @ t=0.52
1.7269697702694753
% es.EX (V/m) @ t=0.52
0.5330530325081947
% es.EY (V/m) @ t=0.52
0.12913929467002538
% es.EZ (V/m) @ t=0.52
1.6375479684914396
% es.tEX (V/m) @ t=0.52
0.5330530325081995
% es.tEY (V/m) @ t=0.52
0
% es.tEZ (V/m) @ t=0.52
1.6375479684914378
% es.Ex (V/m) @ t=0.52
0.5330530325081947
% es.Ey (V/m) @ t=0.52
0.12913929467002538
% es.Ez (V/m) @ t=0.52
1.6375479684914396
% es.tEx (V/m) @ t=0.52
0.5330530325081995
% es.tEy (V/m) @ t=0.52
0
% es.tEz (V/m) @ t=0.52
1.6375479684914378
% V (V) @ t=0.52
0.008077155344986866
% es.normE (V/m) @ t=0.54
1.7423171982596302
% es.EX (V/m) @ t=0.54
0.5377902667119233
% es.EY (V/m) @ t=0.54
0.13028692571212963
% es.EZ (V/m) @ t=0.54
1.6521007015765758
% es.tEX (V/m) @ t=0.54
0.5377902667119301
% es.tEY (V/m) @ t=0.54
0
% es.tEZ (V/m) @ t=0.54
1.6521007015765772
% es.Ex (V/m) @ t=0.54
0.5377902667119233
% es.Ey (V/m) @ t=0.54
0.13028692571212963
% es.Ez (V/m) @ t=0.54
1.6521007015765758
% es.tEx (V/m) @ t=0.54
0.5377902667119301
% es.tEy (V/m) @ t=0.54
0
% es.tEz (V/m) @ t=0.54
1.6521007015765772
% V (V) @ t=0.54
0.008148942266820322
% es.normE (V/m) @ t=0.56
1.7583177891659472
% es.EX (V/m) @ t=0.56
0.5427291275512158
% es.EY (V/m) @ t=0.56
0.1314833894389984
% es.EZ (V/m) @ t=0.56
1.6672727716491451
% es.tEX (V/m) @ t=0.56
0.5427291275512189
% es.tEY (V/m) @ t=0.56
0
% es.tEZ (V/m) @ t=0.56
1.667272771649147
% es.Ex (V/m) @ t=0.56
0.5427291275512158
% es.Ey (V/m) @ t=0.56
0.1314833894389984
% es.Ez (V/m) @ t=0.56
1.6672727716491451
% es.tEx (V/m) @ t=0.56
0.5427291275512189
% es.tEy (V/m) @ t=0.56
0
% es.tEz (V/m) @ t=0.56
1.667272771649147
% V (V) @ t=0.56
0.00822378701086201
% es.normE (V/m) @ t=0.58
1.7754784107214503
% es.EX (V/m) @ t=0.58
0.5480260814039936
% es.EY (V/m) @ t=0.58
0.13276658100909267
% es.EZ (V/m) @ t=0.58
1.6835447968321757
% es.tEX (V/m) @ t=0.58
0.5480260814039966
% es.tEY (V/m) @ t=0.58
0
% es.tEZ (V/m) @ t=0.58
1.6835447968321766
% es.Ex (V/m) @ t=0.58
0.5480260814039936
% es.Ey (V/m) @ t=0.58
0.13276658100909267
% es.Ez (V/m) @ t=0.58
1.6835447968321757
% es.tEx (V/m) @ t=0.58
0.5480260814039966
% es.tEy (V/m) @ t=0.58
0
% es.tEz (V/m) @ t=0.58
1.6835447968321766
% V (V) @ t=0.58
0.008304062509457527
% es.normE (V/m) @ t=0.6
1.7926390322769579
% es.EX (V/m) @ t=0.6
0.5533230352567898
% es.EY (V/m) @ t=0.6
0.13404977257918738
% es.EZ (V/m) @ t=0.6
1.6998168220151988
% es.tEX (V/m) @ t=0.6
0.5533230352567884
% es.tEY (V/m) @ t=0.6
0
% es.tEZ (V/m) @ t=0.6
1.699816822015201
% es.Ex (V/m) @ t=0.6
0.5533230352567898
% es.Ey (V/m) @ t=0.6
0.13404977257918738
% es.Ez (V/m) @ t=0.6
1.6998168220151988
% es.tEx (V/m) @ t=0.6
0.5533230352567884
% es.tEy (V/m) @ t=0.6
0
% es.tEz (V/m) @ t=0.6
1.699816822015201
% V (V) @ t=0.6
0.008384338008053044
% es.normE (V/m) @ t=0.62
1.8097996538324599
% es.EX (V/m) @ t=0.62
0.5586199891095651
% es.EY (V/m) @ t=0.62
0.13533296414928586
% es.EZ (V/m) @ t=0.62
1.716088847198216
% es.tEX (V/m) @ t=0.62
0.558619989109566
% es.tEY (V/m) @ t=0.62
0
% es.tEZ (V/m) @ t=0.62
1.7160888471982112
% es.Ex (V/m) @ t=0.62
0.5586199891095651
% es.Ey (V/m) @ t=0.62
0.13533296414928586
% es.Ez (V/m) @ t=0.62
1.716088847198216
% es.tEx (V/m) @ t=0.62
0.558619989109566
% es.tEy (V/m) @ t=0.62
0
% es.tEz (V/m) @ t=0.62
1.7160888471982112
% V (V) @ t=0.62
0.008464613506648563
% es.normE (V/m) @ t=0.64
1.8269602753879897
% es.EX (V/m) @ t=0.64
0.5639169429623548
% es.EY (V/m) @ t=0.64
0.13661615571939956
% es.EZ (V/m) @ t=0.64
1.7323608723812507
% es.tEX (V/m) @ t=0.64
0.5639169429623578
% es.tEY (V/m) @ t=0.64
0
% es.tEZ (V/m) @ t=0.64
1.7323608723812498
% es.Ex (V/m) @ t=0.64
0.5639169429623548
% es.Ey (V/m) @ t=0.64
0.13661615571939956
% es.Ez (V/m) @ t=0.64
1.7323608723812507
% es.tEx (V/m) @ t=0.64
0.5639169429623578
% es.tEy (V/m) @ t=0.64
0
% es.tEz (V/m) @ t=0.64
1.7323608723812498
% V (V) @ t=0.64
0.008544889005244081
% es.normE (V/m) @ t=0.66
1.8441208969435001
% es.EX (V/m) @ t=0.66
0.5692138968151358
% es.EY (V/m) @ t=0.66
0.13789934728950315
% es.EZ (V/m) @ t=0.66
1.7486328975642627
% es.tEX (V/m) @ t=0.66
0.5692138968151426
% es.tEY (V/m) @ t=0.66
0
% es.tEZ (V/m) @ t=0.66
1.7486328975642724
% es.Ex (V/m) @ t=0.66
0.5692138968151358
% es.Ey (V/m) @ t=0.66
0.13789934728950315
% es.Ez (V/m) @ t=0.66
1.7486328975642627
% es.tEx (V/m) @ t=0.66
0.5692138968151426
% es.tEy (V/m) @ t=0.66
0
% es.tEz (V/m) @ t=0.66
1.7486328975642724
% V (V) @ t=0.66
0.0086251645038396
% es.normE (V/m) @ t=0.68
1.861281518499032
% es.EX (V/m) @ t=0.68
0.5745108506679228
% es.EY (V/m) @ t=0.68
0.13918253885960286
% es.EZ (V/m) @ t=0.68
1.7649049227472897
% es.tEX (V/m) @ t=0.68
0.5745108506679273
% es.tEY (V/m) @ t=0.68
0
% es.tEZ (V/m) @ t=0.68
1.7649049227472968
% es.Ex (V/m) @ t=0.68
0.5745108506679228
% es.Ey (V/m) @ t=0.68
0.13918253885960286
% es.Ez (V/m) @ t=0.68
1.7649049227472897
% es.tEx (V/m) @ t=0.68
0.5745108506679273
% es.tEy (V/m) @ t=0.68
0
% es.tEz (V/m) @ t=0.68
1.7649049227472968
% V (V) @ t=0.68
0.00870544000243512
% es.normE (V/m) @ t=0.7
1.8784421400545974
% es.EX (V/m) @ t=0.7
0.5798078045207202
% es.EY (V/m) @ t=0.7
0.14046573042969235
% es.EZ (V/m) @ t=0.7
1.7811769479303439
% es.tEX (V/m) @ t=0.7
0.5798078045207262
% es.tEY (V/m) @ t=0.7
0
% es.tEZ (V/m) @ t=0.7
1.7811769479303514
% es.Ex (V/m) @ t=0.7
0.5798078045207202
% es.Ey (V/m) @ t=0.7
0.14046573042969235
% es.Ez (V/m) @ t=0.7
1.7811769479303439
% es.tEx (V/m) @ t=0.7
0.5798078045207262
% es.tEy (V/m) @ t=0.7
0
% es.tEz (V/m) @ t=0.7
1.7811769479303514
% V (V) @ t=0.7
0.008785715501030637
% es.normE (V/m) @ t=0.72
1.8956027616101285
% es.EX (V/m) @ t=0.72
0.5851047583734913
% es.EY (V/m) @ t=0.72
0.14174892199979994
% es.EZ (V/m) @ t=0.72
1.7974489731133638
% es.tEX (V/m) @ t=0.72
0.5851047583734896
% es.tEY (V/m) @ t=0.72
0
% es.tEZ (V/m) @ t=0.72
1.7974489731133652
% es.Ex (V/m) @ t=0.72
0.5851047583734913
% es.Ey (V/m) @ t=0.72
0.14174892199979994
% es.Ez (V/m) @ t=0.72
1.7974489731133638
% es.tEx (V/m) @ t=0.72
0.5851047583734896
% es.tEy (V/m) @ t=0.72
0
% es.tEz (V/m) @ t=0.72
1.7974489731133652
% V (V) @ t=0.72
0.008865990999626155
% es.normE (V/m) @ t=0.74
1.9127633831656614
% es.EX (V/m) @ t=0.74
0.5904017122262778
% es.EY (V/m) @ t=0.74
0.14303211356989654
% es.EZ (V/m) @ t=0.74
1.8137209982963758
% es.tEX (V/m) @ t=0.74
0.5904017122262815
% es.tEY (V/m) @ t=0.74
0
% es.tEZ (V/m) @ t=0.74
1.8137209982963771
% es.Ex (V/m) @ t=0.74
0.5904017122262778
% es.Ey (V/m) @ t=0.74
0.14303211356989654
% es.Ez (V/m) @ t=0.74
1.8137209982963758
% es.tEx (V/m) @ t=0.74
0.5904017122262815
% es.tEy (V/m) @ t=0.74
0
% es.tEz (V/m) @ t=0.74
1.8137209982963771
% V (V) @ t=0.74
0.008946266498221674
% es.normE (V/m) @ t=0.76
1.9299240047212423
% es.EX (V/m) @ t=0.76
0.5956986660790796
% es.EY (V/m) @ t=0.76
0.14431530514000313
% es.EZ (V/m) @ t=0.76
1.8299930234794277
% es.tEX (V/m) @ t=0.76
0.5956986660790804
% es.tEY (V/m) @ t=0.76
0
% es.tEZ (V/m) @ t=0.76
1.82999302347943
% es.Ex (V/m) @ t=0.76
0.5956986660790796
% es.Ey (V/m) @ t=0.76
0.14431530514000313
% es.Ez (V/m) @ t=0.76
1.8299930234794277
% es.tEx (V/m) @ t=0.76
0.5956986660790804
% es.tEy (V/m) @ t=0.76
0
% es.tEz (V/m) @ t=0.76
1.82999302347943
% V (V) @ t=0.76
0.009026541996817192
% es.normE (V/m) @ t=0.78
1.9470846262767874
% es.EX (V/m) @ t=0.78
0.6009956199318556
% es.EY (V/m) @ t=0.78
0.1455984967100855
% es.EZ (V/m) @ t=0.78
1.8462650486624468
% es.tEX (V/m) @ t=0.78
0.6009956199318509
% es.tEY (V/m) @ t=0.78
0
% es.tEZ (V/m) @ t=0.78
1.8462650486624455
% es.Ex (V/m) @ t=0.78
0.6009956199318556
% es.Ey (V/m) @ t=0.78
0.1455984967100855
% es.Ez (V/m) @ t=0.78
1.8462650486624468
% es.tEx (V/m) @ t=0.78
0.6009956199318509
% es.tEy (V/m) @ t=0.78
0
% es.tEz (V/m) @ t=0.78
1.8462650486624455
% V (V) @ t=0.78
0.00910681749541271
% es.normE (V/m) @ t=0.8
1.9642452478323382
% es.EX (V/m) @ t=0.8
0.6062925737846409
% es.EY (V/m) @ t=0.8
0.146881688280194
% es.EZ (V/m) @ t=0.8
1.8625370738454623
% es.tEX (V/m) @ t=0.8
0.6062925737846427
% es.tEY (V/m) @ t=0.8
0
% es.tEZ (V/m) @ t=0.8
1.8625370738454698
% es.Ex (V/m) @ t=0.8
0.6062925737846409
% es.Ey (V/m) @ t=0.8
0.146881688280194
% es.Ez (V/m) @ t=0.8
1.8625370738454623
% es.tEx (V/m) @ t=0.8
0.6062925737846427
% es.tEy (V/m) @ t=0.8
0
% es.tEz (V/m) @ t=0.8
1.8625370738454698
% V (V) @ t=0.8
0.009187092994008229
% es.normE (V/m) @ t=0.82
1.981405869387915
% es.EX (V/m) @ t=0.82
0.6115895276374308
% es.EY (V/m) @ t=0.82
0.1481648798502906
% es.EZ (V/m) @ t=0.82
1.8788090990284996
% es.tEX (V/m) @ t=0.82
0.6115895276374346
% es.tEY (V/m) @ t=0.82
0
% es.tEZ (V/m) @ t=0.82
1.878809099028496
% es.Ex (V/m) @ t=0.82
0.6115895276374308
% es.Ey (V/m) @ t=0.82
0.1481648798502906
% es.Ez (V/m) @ t=0.82
1.8788090990284996
% es.tEx (V/m) @ t=0.82
0.6115895276374346
% es.tEy (V/m) @ t=0.82
0
% es.tEz (V/m) @ t=0.82
1.878809099028496
% V (V) @ t=0.82
0.009267368492603746
% es.normE (V/m) @ t=0.84
1.99969250451694
% es.EX (V/m) @ t=0.84
0.6172340991398612
% es.EY (V/m) @ t=0.84
0.14953224365729856
% es.EZ (V/m) @ t=0.84
1.896148816589005
% es.tEX (V/m) @ t=0.84
0.6172340991398642
% es.tEY (V/m) @ t=0.84
0
% es.tEZ (V/m) @ t=0.84
1.8961488165890206
% es.Ex (V/m) @ t=0.84
0.6172340991398612
% es.Ey (V/m) @ t=0.84
0.14953224365729856
% es.Ez (V/m) @ t=0.84
1.896148816589005
% es.tEx (V/m) @ t=0.84
0.6172340991398642
% es.tEy (V/m) @ t=0.84
0
% es.tEz (V/m) @ t=0.84
1.8961488165890206
% V (V) @ t=0.84
0.009352919411311729
% es.normE (V/m) @ t=0.86
2.018917686978516
% es.EX (V/m) @ t=0.86
0.6231684145898813
% es.EY (V/m) @ t=0.86
0.15096976614644786
% es.EZ (V/m) @ t=0.86
1.9143784699872968
% es.tEX (V/m) @ t=0.86
0.623168414589891
% es.tEY (V/m) @ t=0.86
0
% es.tEZ (V/m) @ t=0.86
1.9143784699873052
% es.Ex (V/m) @ t=0.86
0.6231684145898813
% es.Ey (V/m) @ t=0.86
0.15096976614644786
% es.Ez (V/m) @ t=0.86
1.9143784699872968
% es.tEx (V/m) @ t=0.86
0.623168414589891
% es.tEy (V/m) @ t=0.86
0
% es.tEz (V/m) @ t=0.86
1.9143784699873052
% V (V) @ t=0.86
0.009442867463048376
% es.normE (V/m) @ t=0.88
2.038142869440126
% es.EX (V/m) @ t=0.88
0.6291027300399068
% es.EY (V/m) @ t=0.88
0.1524072886356005
% es.EZ (V/m) @ t=0.88
1.9326081233855978
% es.tEX (V/m) @ t=0.88
0.6291027300399037
% es.tEY (V/m) @ t=0.88
0
% es.tEZ (V/m) @ t=0.88
1.9326081233856076
% es.Ex (V/m) @ t=0.88
0.6291027300399068
% es.Ey (V/m) @ t=0.88
0.1524072886356005
% es.Ez (V/m) @ t=0.88
1.9326081233855978
% es.tEx (V/m) @ t=0.88
0.6291027300399037
% es.tEy (V/m) @ t=0.88
0
% es.tEz (V/m) @ t=0.88
1.9326081233856076
% V (V) @ t=0.88
0.009532815514785022
% es.normE (V/m) @ t=0.9
2.05736805190175
% es.EX (V/m) @ t=0.9
0.6350370454899251
% es.EY (V/m) @ t=0.9
0.15384481112477122
% es.EZ (V/m) @ t=0.9
1.9508377767838923
% es.tEX (V/m) @ t=0.9
0.6350370454899306
% es.tEY (V/m) @ t=0.9
0
% es.tEZ (V/m) @ t=0.9
1.9508377767839047
% es.Ex (V/m) @ t=0.9
0.6350370454899251
% es.Ey (V/m) @ t=0.9
0.15384481112477122
% es.Ez (V/m) @ t=0.9
1.9508377767838923
% es.tEx (V/m) @ t=0.9
0.6350370454899306
% es.tEy (V/m) @ t=0.9
0
% es.tEz (V/m) @ t=0.9
1.9508377767839047
% V (V) @ t=0.9
0.00962276356652167
% es.normE (V/m) @ t=0.92
2.0765932343633944
% es.EX (V/m) @ t=0.92
0.6409713609399512
% es.EY (V/m) @ t=0.92
0.15528233361392862
% es.EZ (V/m) @ t=0.92
1.9690674301821844
% es.tEX (V/m) @ t=0.92
0.6409713609399574
% es.tEY (V/m) @ t=0.92
0
% es.tEZ (V/m) @ t=0.92
1.9690674301821804
% es.Ex (V/m) @ t=0.92
0.6409713609399512
% es.Ey (V/m) @ t=0.92
0.15528233361392862
% es.Ez (V/m) @ t=0.92
1.9690674301821844
% es.tEx (V/m) @ t=0.92
0.6409713609399574
% es.tEy (V/m) @ t=0.92
0
% es.tEz (V/m) @ t=0.92
1.9690674301821804
% V (V) @ t=0.92
0.009712711618258317
% es.normE (V/m) @ t=0.94
2.095818416825071
% es.EX (V/m) @ t=0.94
0.6469056763899838
% es.EY (V/m) @ t=0.94
0.15671985610308325
% es.EZ (V/m) @ t=0.94
1.9872970835804868
% es.tEX (V/m) @ t=0.94
0.6469056763899843
% es.tEY (V/m) @ t=0.94
0
% es.tEZ (V/m) @ t=0.94
1.9872970835804793
% es.Ex (V/m) @ t=0.94
0.6469056763899838
% es.Ey (V/m) @ t=0.94
0.15671985610308325
% es.Ez (V/m) @ t=0.94
1.9872970835804868
% es.tEx (V/m) @ t=0.94
0.6469056763899843
% es.tEy (V/m) @ t=0.94
0
% es.tEz (V/m) @ t=0.94
1.9872970835804793
% V (V) @ t=0.94
0.009802659669994962
% es.normE (V/m) @ t=0.96
2.115043599286767
% es.EX (V/m) @ t=0.96
0.6528399918400021
% es.EY (V/m) @ t=0.96
0.15815737859223944
% es.EZ (V/m) @ t=0.96
2.005526736978793
% es.tEX (V/m) @ t=0.96
0.6528399918400112
% es.tEY (V/m) @ t=0.96
0
% es.tEZ (V/m) @ t=0.96
2.005526736978796
% es.Ex (V/m) @ t=0.96
0.6528399918400021
% es.Ey (V/m) @ t=0.96
0.15815737859223944
% es.Ez (V/m) @ t=0.96
2.005526736978793
% es.tEx (V/m) @ t=0.96
0.6528399918400112
% es.tEy (V/m) @ t=0.96
0
% es.tEz (V/m) @ t=0.96
2.005526736978796
% V (V) @ t=0.96
0.00989260772173161
% es.normE (V/m) @ t=0.98
2.1342687817484824
% es.EX (V/m) @ t=0.98
0.6587743072900353
% es.EY (V/m) @ t=0.98
0.15959490108138474
% es.EZ (V/m) @ t=0.98
2.0237563903770948
% es.tEX (V/m) @ t=0.98
0.658774307290038
% es.tEY (V/m) @ t=0.98
0
% es.tEZ (V/m) @ t=0.98
2.023756390377093
% es.Ex (V/m) @ t=0.98
0.6587743072900353
% es.Ey (V/m) @ t=0.98
0.15959490108138474
% es.Ez (V/m) @ t=0.98
2.0237563903770948
% es.tEx (V/m) @ t=0.98
0.658774307290038
% es.tEy (V/m) @ t=0.98
0
% es.tEz (V/m) @ t=0.98
2.023756390377093
% V (V) @ t=0.98
0.009982555773468255
% es.normE (V/m) @ t=1
2.1534939642101962
% es.EX (V/m) @ t=1
0.6647086227400525
% es.EY (V/m) @ t=1
0.16103242357055714
% es.EZ (V/m) @ t=1
2.041986043775378
% es.tEX (V/m) @ t=1
0.6647086227400578
% es.tEY (V/m) @ t=1
0
% es.tEZ (V/m) @ t=1
2.04198604377539
% es.Ex (V/m) @ t=1
0.6647086227400525
% es.Ey (V/m) @ t=1
0.16103242357055714
% es.Ez (V/m) @ t=1
2.041986043775378
% es.tEx (V/m) @ t=1
0.6647086227400578
% es.tEy (V/m) @ t=1
0
% es.tEz (V/m) @ t=1
2.04198604377539
% V (V) @ t=1
0.010072503825204904
% es.normE (V/m) @ t=1.02
2.172719146671949
% es.EX (V/m) @ t=1.02
0.6706429381900793
% es.EY (V/m) @ t=1.02
0.16246994605973064
% es.EZ (V/m) @ t=1.02
2.06021569717368
% es.tEX (V/m) @ t=1.02
0.6706429381900847
% es.tEY (V/m) @ t=1.02
0
% es.tEZ (V/m) @ t=1.02
2.0602156971736783
% es.Ex (V/m) @ t=1.02
0.6706429381900793
% es.Ey (V/m) @ t=1.02
0.16246994605973064
% es.Ez (V/m) @ t=1.02
2.06021569717368
% es.tEx (V/m) @ t=1.02
0.6706429381900847
% es.tEy (V/m) @ t=1.02
0
% es.tEz (V/m) @ t=1.02
2.0602156971736783
% V (V) @ t=1.02
0.010162451876941548
% es.normE (V/m) @ t=1.04
2.191944329133722
% es.EX (V/m) @ t=1.04
0.6765772536401125
% es.EY (V/m) @ t=1.04
0.16390746854885685
% es.EZ (V/m) @ t=1.04
2.078445350571986
% es.tEX (V/m) @ t=1.04
0.6765772536401187
% es.tEY (V/m) @ t=1.04
0
% es.tEZ (V/m) @ t=1.04
2.0784453505720055
% es.Ex (V/m) @ t=1.04
0.6765772536401125
% es.Ey (V/m) @ t=1.04
0.16390746854885685