% Model:              1 neuron.mph
% Version:            COMSOL 6.0.0.405
% Date:               Mar 9 2023, 13:30
% Dimension:          0
% Nodes:              14017
% Expressions:        14017
% Description:        Electric field norm, Electric field, X component, Electric field, Y component, Electric field, Z component, Tangential electric field, X component, Tangential electric field, Y component, Tangential electric field, Z component, Electric field, x component, Electric field, y component, Electric field, z component, Tangential electric field, x component, Tangential electric field, y component, Tangential electric field, z component, Electric potential
% Length unit:        mm
% x
1.33
% y
12.2
% z
1.33
% es.normE (V/m) @ t=0
7.754183519513727
% es.EX (V/m) @ t=0
6.008592900689457
% es.EY (V/m) @ t=0
-0.9206945124492405
% es.EZ (V/m) @ t=0
4.800215658969834
% es.tEX (V/m) @ t=0
6.0085929006894645
% es.tEY (V/m) @ t=0
0
% es.tEZ (V/m) @ t=0
4.800215658969826
% es.Ex (V/m) @ t=0
6.008592900689457
% es.Ey (V/m) @ t=0
-0.9206945124492405
% es.Ez (V/m) @ t=0
4.800215658969834
% es.tEx (V/m) @ t=0
6.0085929006894645
% es.tEy (V/m) @ t=0
0
% es.tEz (V/m) @ t=0
4.800215658969826
% V (V) @ t=0
0.006403659150764765
% es.normE (V/m) @ t=0.02
6.697442067403902
% es.EX (V/m) @ t=0.02
5.189740834301087
% es.EY (V/m) @ t=0.02
-0.7952221046523267
% es.EZ (V/m) @ t=0.02
4.146041453121269
% es.tEX (V/m) @ t=0.02
5.189740834301097
% es.tEY (V/m) @ t=0.02
0
% es.tEZ (V/m) @ t=0.02
4.146041453121265
% es.Ex (V/m) @ t=0.02
5.189740834301087
% es.Ey (V/m) @ t=0.02
-0.7952221046523267
% es.Ez (V/m) @ t=0.02
4.146041453121269
% es.tEx (V/m) @ t=0.02
5.189740834301097
% es.tEy (V/m) @ t=0.02
0
% es.tEz (V/m) @ t=0.02
4.146041453121265
% V (V) @ t=0.02
0.005530967384531709
% es.normE (V/m) @ t=0.04
6.7590501631530655
% es.EX (V/m) @ t=0.04
5.237479960774937
% es.EY (V/m) @ t=0.04
-0.8025371495078293
% es.EZ (V/m) @ t=0.04
4.1841798566661845
% es.tEX (V/m) @ t=0.04
5.237479960774955
% es.tEY (V/m) @ t=0.04
0
% es.tEZ (V/m) @ t=0.04
4.184179856666182
% es.Ex (V/m) @ t=0.04
5.237479960774937
% es.Ey (V/m) @ t=0.04
-0.8025371495078293
% es.Ez (V/m) @ t=0.04
4.1841798566661845
% es.tEx (V/m) @ t=0.04
5.237479960774955
% es.tEy (V/m) @ t=0.04
0
% es.tEz (V/m) @ t=0.04
4.184179856666182
% V (V) @ t=0.04
0.005581845362019131
% es.normE (V/m) @ t=0.06
6.821215488001345
% es.EX (V/m) @ t=0.06
5.285650879177073
% es.EY (V/m) @ t=0.06
-0.8099183645323045
% es.EZ (V/m) @ t=0.06
4.222663204824066
% es.tEX (V/m) @ t=0.06
5.285650879177098
% es.tEY (V/m) @ t=0.06
0
% es.tEZ (V/m) @ t=0.06
4.222663204824064
% es.Ex (V/m) @ t=0.06
5.285650879177073
% es.Ey (V/m) @ t=0.06
-0.8099183645323045
% es.Ez (V/m) @ t=0.06
4.222663204824066
% es.tEx (V/m) @ t=0.06
5.285650879177098
% es.tEy (V/m) @ t=0.06
0
% es.tEz (V/m) @ t=0.06
4.222663204824064
% V (V) @ t=0.06
0.0056331835324843855
% es.normE (V/m) @ t=0.08
6.88432545261959
% es.EX (V/m) @ t=0.08
5.334553785094567
% es.EY (V/m) @ t=0.08
-0.8174117438642714
% es.EZ (V/m) @ t=0.08
4.261731328556683
% es.tEX (V/m) @ t=0.08
5.3345537850945846
% es.tEY (V/m) @ t=0.08
0
% es.tEZ (V/m) @ t=0.08
4.26173132855668
% es.Ex (V/m) @ t=0.08
5.334553785094567
% es.Ey (V/m) @ t=0.08
-0.8174117438642714
% es.Ez (V/m) @ t=0.08
4.261731328556683
% es.tEx (V/m) @ t=0.08
5.3345537850945846
% es.tEy (V/m) @ t=0.08
0
% es.tEz (V/m) @ t=0.08
4.26173132855668
% V (V) @ t=0.08
0.005685301822173871
% es.normE (V/m) @ t=0.1
6.94810077633003
% es.EX (V/m) @ t=0.1
5.383972268022706
% es.EY (V/m) @ t=0.1
-0.8249841263720237
% es.EZ (V/m) @ t=0.1
4.301211340246899
% es.tEX (V/m) @ t=0.1
5.383972268022717
% es.tEY (V/m) @ t=0.1
0
% es.tEZ (V/m) @ t=0.1
4.301211340246896
% es.Ex (V/m) @ t=0.1
5.383972268022706
% es.Ey (V/m) @ t=0.1
-0.8249841263720237
% es.Ez (V/m) @ t=0.1
4.301211340246899
% es.tEx (V/m) @ t=0.1
5.383972268022717
% es.tEy (V/m) @ t=0.1
0
% es.tEz (V/m) @ t=0.1
4.301211340246896
% V (V) @ t=0.1
0.005737969590548602
% es.normE (V/m) @ t=0.12
7.011876100040487
% es.EX (V/m) @ t=0.12
5.433390750950863
% es.EY (V/m) @ t=0.12
-0.8325565088797742
% es.EZ (V/m) @ t=0.12
4.340691351937124
% es.tEX (V/m) @ t=0.12
5.433390750950893
% es.tEY (V/m) @ t=0.12
0
% es.tEZ (V/m) @ t=0.12
4.34069135193713
% es.Ex (V/m) @ t=0.12
5.433390750950863
% es.Ey (V/m) @ t=0.12
-0.8325565088797742
% es.Ez (V/m) @ t=0.12
4.340691351937124
% es.tEx (V/m) @ t=0.12
5.433390750950893
% es.tEy (V/m) @ t=0.12
0
% es.tEz (V/m) @ t=0.12
4.34069135193713
% V (V) @ t=0.12
0.005790637358923333
% es.normE (V/m) @ t=0.14
7.07627635622155
% es.EX (V/m) @ t=0.14
5.483293482960725
% es.EY (V/m) @ t=0.14
-0.8402030907999176
% es.EZ (V/m) @ t=0.14
4.38055822912915
% es.tEX (V/m) @ t=0.14
5.4832934829607325
% es.tEY (V/m) @ t=0.14
0
% es.tEZ (V/m) @ t=0.14
4.380558229129148
% es.Ex (V/m) @ t=0.14
5.483293482960725
% es.Ey (V/m) @ t=0.14
-0.8402030907999176
% es.Ez (V/m) @ t=0.14
4.38055822912915
% es.tEx (V/m) @ t=0.14
5.4832934829607325
% es.tEy (V/m) @ t=0.14
0
% es.tEz (V/m) @ t=0.14
4.380558229129148
% V (V) @ t=0.14
0.005843821212867332
% es.normE (V/m) @ t=0.16
7.143458476547719
% es.EX (V/m) @ t=0.16
5.53535183213094
% es.EY (V/m) @ t=0.16
-0.8481799687035325
% es.EZ (V/m) @ t=0.16
4.422147224020357
% es.tEX (V/m) @ t=0.16
5.535351832130958
% es.tEY (V/m) @ t=0.16
0
% es.tEZ (V/m) @ t=0.16
4.422147224020356
% es.Ex (V/m) @ t=0.16
5.53535183213094
% es.Ey (V/m) @ t=0.16
-0.8481799687035325
% es.Ez (V/m) @ t=0.16
4.422147224020357
% es.tEx (V/m) @ t=0.16
5.535351832130958
% es.tEy (V/m) @ t=0.16
0
% es.tEz (V/m) @ t=0.16
4.422147224020356
% V (V) @ t=0.16
0.005899302402937165
% es.normE (V/m) @ t=0.18
7.2106405968739065
% es.EX (V/m) @ t=0.18
5.587410181301172
% es.EY (V/m) @ t=0.18
-0.8561568466071563
% es.EZ (V/m) @ t=0.18
4.46373621891157
% es.tEX (V/m) @ t=0.18
5.587410181301198
% es.tEY (V/m) @ t=0.18
0
% es.tEZ (V/m) @ t=0.18
4.463736218911567
% es.Ex (V/m) @ t=0.18
5.587410181301172
% es.Ey (V/m) @ t=0.18
-0.8561568466071563
% es.Ez (V/m) @ t=0.18
4.46373621891157
% es.tEx (V/m) @ t=0.18
5.587410181301198
% es.tEy (V/m) @ t=0.18
0
% es.tEz (V/m) @ t=0.18
4.463736218911567
% V (V) @ t=0.18
0.005954783593006997
% es.normE (V/m) @ t=0.2
7.277822717200058
% es.EX (V/m) @ t=0.2
5.6394685304713645
% es.EY (V/m) @ t=0.2
-0.8641337245107339
% es.EZ (V/m) @ t=0.2
4.505325213802784
% es.tEX (V/m) @ t=0.2
5.639468530471381
% es.tEY (V/m) @ t=0.2
0
% es.tEZ (V/m) @ t=0.2
4.505325213802783
% es.Ex (V/m) @ t=0.2
5.6394685304713645
% es.Ey (V/m) @ t=0.2
-0.8641337245107339
% es.Ez (V/m) @ t=0.2
4.505325213802784
% es.tEx (V/m) @ t=0.2
5.639468530471381
% es.tEy (V/m) @ t=0.2
0
% es.tEz (V/m) @ t=0.2
4.505325213802783
% V (V) @ t=0.2
0.006010264783076828
% es.normE (V/m) @ t=0.22
7.3450048375262185
% es.EX (V/m) @ t=0.22
5.691526879641575
% es.EY (V/m) @ t=0.22
-0.8721106024143443
% es.EZ (V/m) @ t=0.22
4.54691420869398
% es.tEX (V/m) @ t=0.22
5.691526879641607
% es.tEY (V/m) @ t=0.22
0
% es.tEZ (V/m) @ t=0.22
4.546914208693983
% es.Ex (V/m) @ t=0.22
5.691526879641575
% es.Ey (V/m) @ t=0.22
-0.8721106024143443
% es.Ez (V/m) @ t=0.22
4.54691420869398
% es.tEx (V/m) @ t=0.22
5.691526879641607
% es.tEy (V/m) @ t=0.22
0
% es.tEz (V/m) @ t=0.22
4.546914208693983
% V (V) @ t=0.22
0.006065745973146659
% es.normE (V/m) @ t=0.24
7.412186957852402
% es.EX (V/m) @ t=0.24
5.7435852288118
% es.EY (V/m) @ t=0.24
-0.8800874803179557
% es.EZ (V/m) @ t=0.24
4.588503203585199
% es.tEX (V/m) @ t=0.24
5.743585228811819
% es.tEY (V/m) @ t=0.24
0
% es.tEZ (V/m) @ t=0.24
4.588503203585191
% es.Ex (V/m) @ t=0.24
5.7435852288118
% es.Ey (V/m) @ t=0.24
-0.8800874803179557
% es.Ez (V/m) @ t=0.24
4.588503203585199
% es.tEx (V/m) @ t=0.24
5.743585228811819
% es.tEy (V/m) @ t=0.24
0
% es.tEz (V/m) @ t=0.24
4.588503203585191
% V (V) @ t=0.24
0.0061212271632164915
% es.normE (V/m) @ t=0.26
7.47936907817858
% es.EX (V/m) @ t=0.26
5.795643577982025
% es.EY (V/m) @ t=0.26
-0.8880643582215209
% es.EZ (V/m) @ t=0.26
4.630092198476417
% es.tEX (V/m) @ t=0.26
5.7956435779820445
% es.tEY (V/m) @ t=0.26
0
% es.tEZ (V/m) @ t=0.26
4.630092198476406
% es.Ex (V/m) @ t=0.26
5.795643577982025
% es.Ey (V/m) @ t=0.26
-0.8880643582215209
% es.Ez (V/m) @ t=0.26
4.630092198476417
% es.tEx (V/m) @ t=0.26
5.7956435779820445
% es.tEy (V/m) @ t=0.26
0
% es.tEz (V/m) @ t=0.26
4.630092198476406
% V (V) @ t=0.26
0.0061767083532863224
% es.normE (V/m) @ t=0.28
7.549447432115082
% es.EX (V/m) @ t=0.28
5.849947867581737
% es.EY (V/m) @ t=0.28
-0.896388263247271
% es.EZ (V/m) @ t=0.28
4.6734710489338465
% es.tEX (V/m) @ t=0.28
5.849947867581749
% es.tEY (V/m) @ t=0.28
0
% es.tEZ (V/m) @ t=0.28
4.673471048933851
% es.Ex (V/m) @ t=0.28
5.849947867581737
% es.Ey (V/m) @ t=0.28
-0.896388263247271
% es.Ez (V/m) @ t=0.28
4.6734710489338465
% es.tEx (V/m) @ t=0.28
5.849947867581749
% es.tEy (V/m) @ t=0.28
0
% es.tEz (V/m) @ t=0.28
4.673471048933851
% V (V) @ t=0.28
0.0062345875922651586
% es.normE (V/m) @ t=0.3
7.624315038779484
% es.EX (V/m) @ t=0.3
5.907966075918099
% es.EY (V/m) @ t=0.3
-0.9052860172113109
% es.EZ (V/m) @ t=0.3
4.719809629772428
% es.tEX (V/m) @ t=0.3
5.907966075918123
% es.tEY (V/m) @ t=0.3
0
% es.tEZ (V/m) @ t=0.3
4.719809629772419
% es.Ex (V/m) @ t=0.3
5.907966075918099
% es.Ey (V/m) @ t=0.3
-0.9052860172113109
% es.Ez (V/m) @ t=0.3
4.719809629772428
% es.tEx (V/m) @ t=0.3
5.907966075918123
% es.tEy (V/m) @ t=0.3
0
% es.tEz (V/m) @ t=0.3
4.719809629772419
% V (V) @ t=0.3
0.006296432278705403
% es.normE (V/m) @ t=0.32
7.699182645480187
% es.EX (V/m) @ t=0.32
5.965984284254483
% es.EY (V/m) @ t=0.32
-0.9141837711753302
% es.EZ (V/m) @ t=0.32
4.766148210610995
% es.tEX (V/m) @ t=0.32
5.965984284254512
% es.tEY (V/m) @ t=0.32
0
% es.tEZ (V/m) @ t=0.32
4.766148210610988
% es.Ex (V/m) @ t=0.32
5.965984284254483
% es.Ey (V/m) @ t=0.32
-0.9141837711753302
% es.Ez (V/m) @ t=0.32
4.766148210610995
% es.tEx (V/m) @ t=0.32
5.965984284254512
% es.tEy (V/m) @ t=0.32
0
% es.tEz (V/m) @ t=0.32
4.766148210610988
% V (V) @ t=0.32
0.006358276965145647
% es.normE (V/m) @ t=0.34
7.7740502522161545
% es.EX (V/m) @ t=0.34
6.02400249259088
% es.EY (V/m) @ t=0.34
-0.9230815251393558
% es.EZ (V/m) @ t=0.34
4.812486791449572
% es.tEX (V/m) @ t=0.34
6.024002492590887
% es.tEY (V/m) @ t=0.34
0
% es.tEZ (V/m) @ t=0.34
4.812486791449571
% es.Ex (V/m) @ t=0.34
6.02400249259088
% es.Ey (V/m) @ t=0.34
-0.9230815251393558
% es.Ez (V/m) @ t=0.34
4.812486791449572
% es.tEx (V/m) @ t=0.34
6.024002492590887
% es.tEy (V/m) @ t=0.34
0
% es.tEz (V/m) @ t=0.34
4.812486791449571
% V (V) @ t=0.34
0.006420121651585891
% es.normE (V/m) @ t=0.36
7.848917858986326
% es.EX (V/m) @ t=0.36
6.082020700927239
% es.EY (V/m) @ t=0.36
-0.931979279103385
% es.EZ (V/m) @ t=0.36
4.858825372288143
% es.tEX (V/m) @ t=0.36
6.082020700927261
% es.tEY (V/m) @ t=0.36
0
% es.tEZ (V/m) @ t=0.36
4.858825372288139
% es.Ex (V/m) @ t=0.36
6.082020700927239
% es.Ey (V/m) @ t=0.36
-0.931979279103385
% es.Ez (V/m) @ t=0.36
4.858825372288143
% es.tEx (V/m) @ t=0.36
6.082020700927261
% es.tEy (V/m) @ t=0.36
0
% es.tEz (V/m) @ t=0.36
4.858825372288139
% V (V) @ t=0.36
0.006481966338026135
% es.normE (V/m) @ t=0.38
7.9237854657897895
% es.EX (V/m) @ t=0.38
6.140038909263633
% es.EY (V/m) @ t=0.38
-0.9408770330674177
% es.EZ (V/m) @ t=0.38
4.9051639531267055
% es.tEX (V/m) @ t=0.38
6.1400389092636365
% es.tEY (V/m) @ t=0.38
0
% es.tEZ (V/m) @ t=0.38
4.905163953126706
% es.Ex (V/m) @ t=0.38
6.140038909263633
% es.Ey (V/m) @ t=0.38
-0.9408770330674177
% es.Ez (V/m) @ t=0.38
4.9051639531267055
% es.tEx (V/m) @ t=0.38
6.1400389092636365
% es.tEy (V/m) @ t=0.38
0
% es.tEz (V/m) @ t=0.38
4.905163953126706
% V (V) @ t=0.38
0.0065438110244663795
% es.normE (V/m) @ t=0.4
7.998653072625588
% es.EX (V/m) @ t=0.4
6.198057117600016
% es.EY (V/m) @ t=0.4
-0.9497747870314379
% es.EZ (V/m) @ t=0.4
4.951502533965283
% es.tEX (V/m) @ t=0.4
6.198057117600054
% es.tEY (V/m) @ t=0.4
0
% es.tEZ (V/m) @ t=0.4
4.951502533965276
% es.Ex (V/m) @ t=0.4
6.198057117600016
% es.Ey (V/m) @ t=0.4
-0.9497747870314379
% es.Ez (V/m) @ t=0.4
4.951502533965283
% es.tEx (V/m) @ t=0.4
6.198057117600054
% es.tEy (V/m) @ t=0.4
0
% es.tEz (V/m) @ t=0.4
4.951502533965276
% V (V) @ t=0.4
0.006605655710906624
% es.normE (V/m) @ t=0.42
8.073520679492805
% es.EX (V/m) @ t=0.42
6.256075325936378
% es.EY (V/m) @ t=0.42
-0.9586725409954786
% es.EZ (V/m) @ t=0.42
4.997841114803861
% es.tEX (V/m) @ t=0.42
6.2560753259364
% es.tEY (V/m) @ t=0.42
0
% es.tEZ (V/m) @ t=0.42
4.997841114803851
% es.Ex (V/m) @ t=0.42
6.256075325936378
% es.Ey (V/m) @ t=0.42
-0.9586725409954786
% es.Ez (V/m) @ t=0.42
4.997841114803861
% es.tEx (V/m) @ t=0.42
6.2560753259364
% es.tEy (V/m) @ t=0.42
0
% es.tEz (V/m) @ t=0.42
4.997841114803851
% V (V) @ t=0.42
0.006667500397346867
% es.normE (V/m) @ t=0.44
8.148388286390604
% es.EX (V/m) @ t=0.44
6.314093534272777
% es.EY (V/m) @ t=0.44
-0.967570294959506
% es.EZ (V/m) @ t=0.44
5.044179695642416
% es.tEX (V/m) @ t=0.44
6.3140935342728035
% es.tEY (V/m) @ t=0.44
0
% es.tEZ (V/m) @ t=0.44
5.04417969564242
% es.Ex (V/m) @ t=0.44
6.314093534272777
% es.Ey (V/m) @ t=0.44
-0.967570294959506
% es.Ez (V/m) @ t=0.44
5.044179695642416
% es.tEx (V/m) @ t=0.44
6.3140935342728035
% es.tEy (V/m) @ t=0.44
0
% es.tEz (V/m) @ t=0.44
5.04417969564242
% V (V) @ t=0.44
0.006729345083787112
% es.normE (V/m) @ t=0.46
8.223255893318129
% es.EX (V/m) @ t=0.46
6.372111742609149
% es.EY (V/m) @ t=0.46
-0.9764680489235467
% es.EZ (V/m) @ t=0.46
5.090518276480991
% es.tEX (V/m) @ t=0.46
6.372111742609191
% es.tEY (V/m) @ t=0.46
0
% es.tEZ (V/m) @ t=0.46
5.0905182764809815
% es.Ex (V/m) @ t=0.46
6.372111742609149
% es.Ey (V/m) @ t=0.46
-0.9764680489235467
% es.Ez (V/m) @ t=0.46
5.090518276480991
% es.tEx (V/m) @ t=0.46
6.372111742609191
% es.tEy (V/m) @ t=0.46
0
% es.tEz (V/m) @ t=0.46
5.0905182764809815
% V (V) @ t=0.46
0.006791189770227355
% es.normE (V/m) @ t=0.48
8.298123500274585
% es.EX (V/m) @ t=0.48
6.430129950945519
% es.EY (V/m) @ t=0.48
-0.9853658028875341
% es.EZ (V/m) @ t=0.48
5.136856857319579
% es.tEX (V/m) @ t=0.48
6.4301299509455525
% es.tEY (V/m) @ t=0.48
0
% es.tEZ (V/m) @ t=0.48
5.136856857319571
% es.Ex (V/m) @ t=0.48
6.430129950945519
% es.Ey (V/m) @ t=0.48
-0.9853658028875341
% es.Ez (V/m) @ t=0.48
5.136856857319579
% es.tEx (V/m) @ t=0.48
6.4301299509455525
% es.tEy (V/m) @ t=0.48
0
% es.tEz (V/m) @ t=0.48
5.136856857319571
% V (V) @ t=0.48
0.0068530344566676005
% es.normE (V/m) @ t=0.5
8.372991107259208
% es.EX (V/m) @ t=0.5
6.488148159281931
% es.EY (V/m) @ t=0.5
-0.9942635568515863
% es.EZ (V/m) @ t=0.5
5.183195438158135
% es.tEX (V/m) @ t=0.5
6.488148159281941
% es.tEY (V/m) @ t=0.5
0
% es.tEZ (V/m) @ t=0.5
5.1831954381581395
% es.Ex (V/m) @ t=0.5
6.488148159281931
% es.Ey (V/m) @ t=0.5
-0.9942635568515863
% es.Ez (V/m) @ t=0.5
5.183195438158135
% es.tEx (V/m) @ t=0.5
6.488148159281941
% es.tEy (V/m) @ t=0.5
0
% es.tEz (V/m) @ t=0.5
5.1831954381581395
% V (V) @ t=0.5
0.006914879143107844
% es.normE (V/m) @ t=0.52
8.447858714271218
% es.EX (V/m) @ t=0.52
6.5461663676183
% es.EY (V/m) @ t=0.52
-1.0031613108156412
% es.EZ (V/m) @ t=0.52
5.229534018996709
% es.tEX (V/m) @ t=0.52
6.54616636761833
% es.tEY (V/m) @ t=0.52
0
% es.tEZ (V/m) @ t=0.52
5.229534018996701
% es.Ex (V/m) @ t=0.52
6.5461663676183
% es.Ey (V/m) @ t=0.52
-1.0031613108156412
% es.Ez (V/m) @ t=0.52
5.229534018996709
% es.tEx (V/m) @ t=0.52
6.54616636761833
% es.tEy (V/m) @ t=0.52
0
% es.tEz (V/m) @ t=0.52
5.229534018996701
% V (V) @ t=0.52
0.006976723829548088
% es.normE (V/m) @ t=0.54
8.522726321309895
% es.EX (V/m) @ t=0.54
6.604184575954662
% es.EY (V/m) @ t=0.54
-1.0120590647796561
% es.EZ (V/m) @ t=0.54
5.27587259983528
% es.tEX (V/m) @ t=0.54
6.60418457595469
% es.tEY (V/m) @ t=0.54
0
% es.tEZ (V/m) @ t=0.54
5.275872599835283
% es.Ex (V/m) @ t=0.54
6.604184575954662
% es.Ey (V/m) @ t=0.54
-1.0120590647796561
% es.Ez (V/m) @ t=0.54
5.27587259983528
% es.tEx (V/m) @ t=0.54
6.60418457595469
% es.tEy (V/m) @ t=0.54
0
% es.tEz (V/m) @ t=0.54
5.275872599835283
% V (V) @ t=0.54
0.007038568515988333
% es.normE (V/m) @ t=0.56
8.604211519136427
% es.EX (V/m) @ t=0.56
6.667326857649811
% es.EY (V/m) @ t=0.56
-1.021735532034974
% es.EZ (V/m) @ t=0.56
5.326314620645424
% es.tEX (V/m) @ t=0.56
6.667326857649839
% es.tEY (V/m) @ t=0.56
0
% es.tEZ (V/m) @ t=0.56
5.326314620645435
% es.Ex (V/m) @ t=0.56
6.667326857649811
% es.Ey (V/m) @ t=0.56
-1.021735532034974
% es.Ez (V/m) @ t=0.56
5.326314620645424
% es.tEx (V/m) @ t=0.56
6.667326857649839
% es.tEy (V/m) @ t=0.56
0
% es.tEz (V/m) @ t=0.56
5.326314620645435
% V (V) @ t=0.56
0.0071058642630376385
% es.normE (V/m) @ t=0.58
8.687744754177514
% es.EX (V/m) @ t=0.58
6.7320549570968575
% es.EY (V/m) @ t=0.58
-1.0316529984474556
% es.EZ (V/m) @ t=0.58
5.378026589696992
% es.tEX (V/m) @ t=0.58
6.732054957096895
% es.tEY (V/m) @ t=0.58
0
% es.tEZ (V/m) @ t=0.58
5.378026589696989
% es.Ex (V/m) @ t=0.58
6.7320549570968575
% es.Ey (V/m) @ t=0.58
-1.0316529984474556
% es.Ez (V/m) @ t=0.58
5.378026589696992
% es.tEx (V/m) @ t=0.58
6.732054957096895
% es.tEy (V/m) @ t=0.58
0
% es.tEz (V/m) @ t=0.58
5.378026589696989
% V (V) @ t=0.58
0.007174847025099283
% es.normE (V/m) @ t=0.6
8.77127798922037
% es.EX (V/m) @ t=0.6
6.796783056543891
% es.EY (V/m) @ t=0.6
-1.0415704648599426
% es.EZ (V/m) @ t=0.6
5.429738558748561
% es.tEX (V/m) @ t=0.6
6.796783056543923
% es.tEY (V/m) @ t=0.6
0
% es.tEZ (V/m) @ t=0.6
5.429738558748558
% es.Ex (V/m) @ t=0.6
6.796783056543891
% es.Ey (V/m) @ t=0.6
-1.0415704648599426
% es.Ez (V/m) @ t=0.6
5.429738558748561
% es.tEx (V/m) @ t=0.6
6.796783056543923
% es.tEy (V/m) @ t=0.6
0
% es.tEz (V/m) @ t=0.6
5.429738558748558
% V (V) @ t=0.6
0.007243829787160927
% es.normE (V/m) @ t=0.62
8.854811224264962
% es.EX (V/m) @ t=0.62
6.861511155990923
% es.EY (V/m) @ t=0.62
-1.0514879312724403
% es.EZ (V/m) @ t=0.62
5.481450527800131
% es.tEX (V/m) @ t=0.62
6.861511155990936
% es.tEY (V/m) @ t=0.62
0
% es.tEZ (V/m) @ t=0.62
5.481450527800119
% es.Ex (V/m) @ t=0.62
6.861511155990923
% es.Ey (V/m) @ t=0.62
-1.0514879312724403
% es.Ez (V/m) @ t=0.62
5.481450527800131
% es.tEx (V/m) @ t=0.62
6.861511155990936
% es.tEy (V/m) @ t=0.62
0
% es.tEz (V/m) @ t=0.62
5.481450527800119
% V (V) @ t=0.62
0.00731281254922257
% es.normE (V/m) @ t=0.64
8.93834445931125
% es.EX (V/m) @ t=0.64
6.926239255437984
% es.EY (V/m) @ t=0.64
-1.061405397684963
% es.EZ (V/m) @ t=0.64
5.5331624968516815
% es.tEX (V/m) @ t=0.64
6.926239255438006
% es.tEY (V/m) @ t=0.64
0
% es.tEZ (V/m) @ t=0.64
5.533162496851681
% es.Ex (V/m) @ t=0.64
6.926239255437984
% es.Ey (V/m) @ t=0.64
-1.061405397684963
% es.Ez (V/m) @ t=0.64
5.5331624968516815
% es.tEx (V/m) @ t=0.64
6.926239255438006
% es.tEy (V/m) @ t=0.64
0
% es.tEz (V/m) @ t=0.64
5.533162496851681
% V (V) @ t=0.64
0.007381795311284219
% es.normE (V/m) @ t=0.66
9.021877694359148
% es.EX (V/m) @ t=0.66
6.9909673548849955
% es.EY (V/m) @ t=0.66
-1.0713228640974428
% es.EZ (V/m) @ t=0.66
5.58487446590326
% es.tEX (V/m) @ t=0.66
6.9909673548850195
% es.tEY (V/m) @ t=0.66
0
% es.tEZ (V/m) @ t=0.66
5.5848744659032565
% es.Ex (V/m) @ t=0.66
6.9909673548849955
% es.Ey (V/m) @ t=0.66
-1.0713228640974428
% es.Ez (V/m) @ t=0.66
5.58487446590326
% es.tEx (V/m) @ t=0.66
6.9909673548850195
% es.tEy (V/m) @ t=0.66
0
% es.tEz (V/m) @ t=0.66
5.5848744659032565
% V (V) @ t=0.66
0.007450778073345863
% es.normE (V/m) @ t=0.68
9.10541092940867
% es.EX (V/m) @ t=0.68
7.05569545433205
% es.EY (V/m) @ t=0.68
-1.0812403305099831
% es.EZ (V/m) @ t=0.68
5.636586434954827
% es.tEX (V/m) @ t=0.68
7.05569545433209
% es.tEY (V/m) @ t=0.68
0
% es.tEZ (V/m) @ t=0.68
5.6365864349548245
% es.Ex (V/m) @ t=0.68
7.05569545433205
% es.Ey (V/m) @ t=0.68
-1.0812403305099831
% es.Ez (V/m) @ t=0.68
5.636586434954827
% es.tEx (V/m) @ t=0.68
7.05569545433209
% es.tEy (V/m) @ t=0.68
0
% es.tEz (V/m) @ t=0.68
5.6365864349548245
% V (V) @ t=0.68
0.007519760835407509
% es.normE (V/m) @ t=0.7
9.188944164459729
% es.EX (V/m) @ t=0.7
7.120423553779097
% es.EY (V/m) @ t=0.7
-1.0911577969224595
% es.EZ (V/m) @ t=0.7
5.688298404006392
% es.tEX (V/m) @ t=0.7
7.120423553779103
% es.tEY (V/m) @ t=0.7
0
% es.tEZ (V/m) @ t=0.7
5.688298404006379
% es.Ex (V/m) @ t=0.7
7.120423553779097
% es.Ey (V/m) @ t=0.7
-1.0911577969224595
% es.Ez (V/m) @ t=0.7
5.688298404006392
% es.tEx (V/m) @ t=0.7
7.120423553779103
% es.tEy (V/m) @ t=0.7
0
% es.tEz (V/m) @ t=0.7
5.688298404006379
% V (V) @ t=0.7
0.0075887435974691525
% es.normE (V/m) @ t=0.72
9.272477399512276
% es.EX (V/m) @ t=0.72
7.185151653226122
% es.EY (V/m) @ t=0.72
-1.1010752633349572
% es.EZ (V/m) @ t=0.72
5.740010373057953
% es.tEX (V/m) @ t=0.72
7.1851516532261455
% es.tEY (V/m) @ t=0.72
0
% es.tEZ (V/m) @ t=0.72
5.740010373057949
% es.Ex (V/m) @ t=0.72
7.185151653226122
% es.Ey (V/m) @ t=0.72
-1.1010752633349572
% es.Ez (V/m) @ t=0.72
5.740010373057953
% es.tEx (V/m) @ t=0.72
7.1851516532261455
% es.tEy (V/m) @ t=0.72
0
% es.tEz (V/m) @ t=0.72
5.740010373057949
% V (V) @ t=0.72
0.007657726359530799
% es.normE (V/m) @ t=0.74
9.35601063456632
% es.EX (V/m) @ t=0.74
7.249879752673184
% es.EY (V/m) @ t=0.74
-1.110992729747446
% es.EZ (V/m) @ t=0.74
5.791722342109521
% es.tEX (V/m) @ t=0.74
7.249879752673202
% es.tEY (V/m) @ t=0.74
0
% es.tEZ (V/m) @ t=0.74
5.791722342109518
% es.Ex (V/m) @ t=0.74
7.249879752673184
% es.Ey (V/m) @ t=0.74
-1.110992729747446
% es.Ez (V/m) @ t=0.74
5.791722342109521
% es.tEx (V/m) @ t=0.74
7.249879752673202
% es.tEy (V/m) @ t=0.74
0
% es.tEz (V/m) @ t=0.74
5.791722342109518
% V (V) @ t=0.74
0.007726709121592444
% es.normE (V/m) @ t=0.76
9.439543869621787
% es.EX (V/m) @ t=0.76
7.314607852120231
% es.EY (V/m) @ t=0.76
-1.1209101961599615
% es.EZ (V/m) @ t=0.76
5.843434311161088
% es.tEX (V/m) @ t=0.76
7.314607852120243
% es.tEY (V/m) @ t=0.76
0
% es.tEZ (V/m) @ t=0.76
5.843434311161086
% es.Ex (V/m) @ t=0.76
7.314607852120231
% es.Ey (V/m) @ t=0.76
-1.1209101961599615
% es.Ez (V/m) @ t=0.76
5.843434311161088
% es.tEx (V/m) @ t=0.76
7.314607852120243
% es.tEy (V/m) @ t=0.76
0
% es.tEz (V/m) @ t=0.76
5.843434311161086
% V (V) @ t=0.76
0.0077956918836540896
% es.normE (V/m) @ t=0.78
9.523077104678624
% es.EX (V/m) @ t=0.78
7.379335951567256
% es.EY (V/m) @ t=0.78
-1.1308276625724805
% es.EZ (V/m) @ t=0.78
5.895146280212657
% es.tEX (V/m) @ t=0.78
7.379335951567285
% es.tEY (V/m) @ t=0.78
0
% es.tEZ (V/m) @ t=0.78
5.89514628021264
% es.Ex (V/m) @ t=0.78
7.379335951567256
% es.Ey (V/m) @ t=0.78
-1.1308276625724805
% es.Ez (V/m) @ t=0.78
5.895146280212657
% es.tEx (V/m) @ t=0.78
7.379335951567285
% es.tEy (V/m) @ t=0.78
0
% es.tEz (V/m) @ t=0.78
5.89514628021264
% V (V) @ t=0.78
0.007864674645715735
% es.normE (V/m) @ t=0.8
9.606610339736868
% es.EX (V/m) @ t=0.8
7.4440640510143385
% es.EY (V/m) @ t=0.8
-1.1407451289849906
% es.EZ (V/m) @ t=0.8
5.946858249264235
% es.tEX (V/m) @ t=0.8
7.44406405101437
% es.tEY (V/m) @ t=0.8
0
% es.tEZ (V/m) @ t=0.8
5.946858249264223
% es.Ex (V/m) @ t=0.8
7.4440640510143385
% es.Ey (V/m) @ t=0.8
-1.1407451289849906
% es.Ez (V/m) @ t=0.8
5.946858249264235
% es.tEx (V/m) @ t=0.8
7.44406405101437
% es.tEy (V/m) @ t=0.8
0
% es.tEz (V/m) @ t=0.8
5.946858249264223
% V (V) @ t=0.8
0.007933657407777382
% es.normE (V/m) @ t=0.82
9.691635383585307
% es.EX (V/m) @ t=0.82
7.509949598777018
% es.EY (V/m) @ t=0.82
-1.1508424493321971
% es.EZ (V/m) @ t=0.82
5.999491073271784
% es.tEX (V/m) @ t=0.82
7.509949598777053
% es.tEY (V/m) @ t=0.82
0
% es.tEZ (V/m) @ t=0.82
5.999491073271781
% es.Ex (V/m) @ t=0.82
7.509949598777018
% es.Ey (V/m) @ t=0.82
-1.1508424493321971
% es.Ez (V/m) @ t=0.82
5.999491073271784
% es.tEx (V/m) @ t=0.82
7.509949598777053
% es.tEy (V/m) @ t=0.82
0
% es.tEz (V/m) @ t=0.82
5.999491073271781
% V (V) @ t=0.82
0.008003877566513154
% es.normE (V/m) @ t=0.84
9.78508262746508
% es.EX (V/m) @ t=0.84
7.582369671097137
% es.EY (V/m) @ t=0.84
-1.1619551583904641
% es.EZ (V/m) @ t=0.84
6.057322703344582
% es.tEX (V/m) @ t=0.84
7.582369671097162
% es.tEY (V/m) @ t=0.84
0
% es.tEZ (V/m) @ t=0.84
6.057322703344572
% es.Ex (V/m) @ t=0.84
7.582369671097137
% es.Ey (V/m) @ t=0.84
-1.1619551583904641
% es.Ez (V/m) @ t=0.84
6.057322703344582
% es.tEx (V/m) @ t=0.84
7.582369671097162
% es.tEy (V/m) @ t=0.84
0
% es.tEz (V/m) @ t=0.84
6.057322703344572
% V (V) @ t=0.84
0.008081083608631178
% es.normE (V/m) @ t=0.86
9.878529871452894
% es.EX (V/m) @ t=0.86
7.654789743417212
% es.EY (V/m) @ t=0.86
-1.1730678674487258
% es.EZ (V/m) @ t=0.86
6.115154333417365
% es.tEX (V/m) @ t=0.86
7.654789743417227
% es.tEY (V/m) @ t=0.86
0
% es.tEZ (V/m) @ t=0.86
6.1151543334173635
% es.Ex (V/m) @ t=0.86
7.654789743417212
% es.Ey (V/m) @ t=0.86
-1.1730678674487258
% es.Ez (V/m) @ t=0.86
6.115154333417365
% es.tEx (V/m) @ t=0.86
7.654789743417227
% es.tEy (V/m) @ t=0.86
0
% es.tEz (V/m) @ t=0.86
6.1151543334173635
% V (V) @ t=0.86
0.0081582896507492
% es.normE (V/m) @ t=0.88
9.971977115545785
% es.EX (V/m) @ t=0.88
7.727209815737323
% es.EY (V/m) @ t=0.88
-1.1841805765069573
% es.EZ (V/m) @ t=0.88
6.172985963490152
% es.tEX (V/m) @ t=0.88
7.7272098157373215
% es.tEY (V/m) @ t=0.88
0
% es.tEZ (V/m) @ t=0.88
6.172985963490155
% es.Ex (V/m) @ t=0.88
7.727209815737323
% es.Ey (V/m) @ t=0.88
-1.1841805765069573
% es.Ez (V/m) @ t=0.88
6.172985963490152
% es.tEx (V/m) @ t=0.88
7.7272098157373215
% es.tEy (V/m) @ t=0.88
0
% es.tEz (V/m) @ t=0.88
6.172985963490155
% V (V) @ t=0.88
0.008235495692867223
% es.normE (V/m) @ t=0.9
10.065424359740781
% es.EX (V/m) @ t=0.9
7.799629888057399
% es.EY (V/m) @ t=0.9
-1.1952932855652154
% es.EZ (V/m) @ t=0.9
6.230817593562944
% es.tEX (V/m) @ t=0.9
7.799629888057444
% es.tEY (V/m) @ t=0.9
0
% es.tEZ (V/m) @ t=0.9
6.2308175935629535
% es.Ex (V/m) @ t=0.9
7.799629888057399
% es.Ey (V/m) @ t=0.9
-1.1952932855652154
% es.Ez (V/m) @ t=0.9
6.230817593562944
% es.tEx (V/m) @ t=0.9
7.799629888057444
% es.tEy (V/m) @ t=0.9
0
% es.tEz (V/m) @ t=0.9
6.2308175935629535
% V (V) @ t=0.9
0.008312701734985245
% es.normE (V/m) @ t=0.92
10.158871604035099
% es.EX (V/m) @ t=0.92
7.8720499603775025
% es.EY (V/m) @ t=0.92
-1.206405994623454
% es.EZ (V/m) @ t=0.92
6.288649223635728
% es.tEX (V/m) @ t=0.92
7.872049960377538
% es.tEY (V/m) @ t=0.92
0
% es.tEZ (V/m) @ t=0.92
6.288649223635724
% es.Ex (V/m) @ t=0.92
7.8720499603775025
% es.Ey (V/m) @ t=0.92
-1.206405994623454
% es.Ez (V/m) @ t=0.92
6.288649223635728
% es.tEx (V/m) @ t=0.92
7.872049960377538
% es.tEy (V/m) @ t=0.92
0
% es.tEz (V/m) @ t=0.92
6.288649223635724
% V (V) @ t=0.92
0.00838990777710327
% es.normE (V/m) @ t=0.94
10.252318848425968
% es.EX (V/m) @ t=0.94
7.94447003269755
% es.EY (V/m) @ t=0.94
-1.2175187036817121
% es.EZ (V/m) @ t=0.94
6.346480853708519
% es.tEX (V/m) @ t=0.94
7.944470032697577
% es.tEY (V/m) @ t=0.94
0
% es.tEZ (V/m) @ t=0.94
6.346480853708521
% es.Ex (V/m) @ t=0.94
7.94447003269755
% es.Ey (V/m) @ t=0.94
-1.2175187036817121
% es.Ez (V/m) @ t=0.94
6.346480853708519
% es.tEx (V/m) @ t=0.94
7.944470032697577
% es.tEy (V/m) @ t=0.94
0
% es.tEz (V/m) @ t=0.94
6.346480853708521
% V (V) @ t=0.94
0.008467113819221293
% es.normE (V/m) @ t=0.96
10.345766092910871
% es.EX (V/m) @ t=0.96
8.016890105017675
% es.EY (V/m) @ t=0.96
-1.2286314127399702
% es.EZ (V/m) @ t=0.96
6.404312483781309
% es.tEX (V/m) @ t=0.96
8.016890105017685
% es.tEY (V/m) @ t=0.96
0
% es.tEZ (V/m) @ t=0.96
6.40431248378132
% es.Ex (V/m) @ t=0.96
8.016890105017675
% es.Ey (V/m) @ t=0.96
-1.2286314127399702
% es.Ez (V/m) @ t=0.96
6.404312483781309
% es.tEx (V/m) @ t=0.96
8.016890105017685
% es.tEy (V/m) @ t=0.96
0
% es.tEz (V/m) @ t=0.96
6.40431248378132
% V (V) @ t=0.96
0.008544319861339314
% es.normE (V/m) @ t=0.98
10.439213337487207
% es.EX (V/m) @ t=0.98
8.089310177337772
% es.EY (V/m) @ t=0.98
-1.2397441217981982
% es.EZ (V/m) @ t=0.98
6.462144113854107
% es.tEX (V/m) @ t=0.98
8.089310177337794
% es.tEY (V/m) @ t=0.98
0
% es.tEZ (V/m) @ t=0.98
6.462144113854097
% es.Ex (V/m) @ t=0.98
8.089310177337772
% es.Ey (V/m) @ t=0.98
-1.2397441217981982
% es.Ez (V/m) @ t=0.98
6.462144113854107
% es.tEx (V/m) @ t=0.98
8.089310177337794
% es.tEy (V/m) @ t=0.98
0
% es.tEz (V/m) @ t=0.98
6.462144113854097
% V (V) @ t=0.98
0.008621525903457336
% es.normE (V/m) @ t=1
10.53266058215253
% es.EX (V/m) @ t=1
8.161730249657847
% es.EY (V/m) @ t=1
-1.2508568308564634
% es.EZ (V/m) @ t=1
6.519975743926888
% es.tEX (V/m) @ t=1
8.161730249657873
% es.tEY (V/m) @ t=1
0
% es.tEZ (V/m) @ t=1
6.5199757439268815
% es.Ex (V/m) @ t=1
8.161730249657847
% es.Ey (V/m) @ t=1
-1.2508568308564634
% es.Ez (V/m) @ t=1
6.519975743926888
% es.tEx (V/m) @ t=1
8.161730249657873
% es.tEy (V/m) @ t=1
0
% es.tEz (V/m) @ t=1
6.5199757439268815
% V (V) @ t=1
0.00869873194557536
% es.normE (V/m) @ t=1.02
10.626107826904557
% es.EX (V/m) @ t=1.02
8.234150321977959
% es.EY (V/m) @ t=1.02
-1.26196953991475
% es.EZ (V/m) @ t=1.02
6.577807373999676
% es.tEX (V/m) @ t=1.02
8.234150321977996
% es.tEY (V/m) @ t=1.02
0
% es.tEZ (V/m) @ t=1.02
6.577807373999659
% es.Ex (V/m) @ t=1.02
8.234150321977959
% es.Ey (V/m) @ t=1.02
-1.26196953991475
% es.Ez (V/m) @ t=1.02
6.577807373999676
% es.tEx (V/m) @ t=1.02
8.234150321977996
% es.tEy (V/m) @ t=1.02
0
% es.tEz (V/m) @ t=1.02
6.577807373999659
% V (V) @ t=1.02
0.008775937987693385
% es.normE (V/m) @ t=1.04
10.719555071740993
% es.EX (V/m) @ t=1.04
8.30657039429807
% es.EY (V/m) @ t=1.04
-1.2730822489729743
% es.EZ (V/m) @ t=1.04
6.6356390040724875
% es.tEX (V/m) @ t=1.04
8.306570394298118
% es.tEY (V/m) @ t=1.04
0
% es.tEZ (V/m) @ t=1.04
6.635639004072479
% es.Ex (V/m) @ t=1.04
8.30657039429807
% es.Ey (V/m) @ t=1.04
-1.2730822489729743
% es.Ez (V/m) @ t=1.04
6.6356390040724875
% es.tEx (V/m) @ t=1.04
8.306570394298118
% es.tEy (V/m) @ t=1.04
0
% es.tEz (V/m) @ t=1.04
6.635639004072479
% V (V) @ t=1.04
0.008853144029811407
% es.normE (V/m) @ t=1.06
10.813002316659606
% es.EX (V/m) @ t=1.06
8.37899046661816
% es.EY (V/m) @ t=1.06
-1.2841949580312164
% es.EZ (V/m) @ t=1.06
6.693470634145271
% es.tEX (V/m) @ t=1.06
8.3789904666182
% es.tEY (V/m) @ t=1.06
0