% Model:              1 neuron.mph
% Version:            COMSOL 6.0.0.405
% Date:               Mar 9 2023, 13:31
% Dimension:          0
% Nodes:              14017
% Expressions:        14017
% Description:        Electric field norm, Electric field, X component, Electric field, Y component, Electric field, Z component, Tangential electric field, X component, Tangential electric field, Y component, Tangential electric field, Z component, Electric field, x component, Electric field, y component, Electric field, z component, Tangential electric field, x component, Tangential electric field, y component, Tangential electric field, z component, Electric potential
% Length unit:        mm
% x
2
% y
12.2
% z
1.6599999999999997
% es.normE (V/m) @ t=0
1.249887543547905
% es.EX (V/m) @ t=0
-1.2077222638262404
% es.EY (V/m) @ t=0
0.09303881594312807
% es.EZ (V/m) @ t=0
-0.30781421356099403
% es.tEX (V/m) @ t=0
-1.2077222638262555
% es.tEY (V/m) @ t=0
0
% es.tEZ (V/m) @ t=0
-0.30781421356098804
% es.Ex (V/m) @ t=0
-1.2077222638262404
% es.Ey (V/m) @ t=0
0.09303881594312807
% es.Ez (V/m) @ t=0
-0.30781421356099403
% es.tEx (V/m) @ t=0
-1.2077222638262555
% es.tEy (V/m) @ t=0
0
% es.tEz (V/m) @ t=0
-0.30781421356098804
% V (V) @ t=0
0.007243352017911004
% es.normE (V/m) @ t=0.02
1.0795531336952124
% es.EX (V/m) @ t=0.02
-1.0431341287018396
% es.EY (V/m) @ t=0.02
0.08035950725342023
% es.EZ (V/m) @ t=0.02
-0.2658653598293905
% es.tEX (V/m) @ t=0.02
-1.0431341287018405
% es.tEY (V/m) @ t=0.02
0
% es.tEZ (V/m) @ t=0.02
-0.2658653598293892
% es.Ex (V/m) @ t=0.02
-1.0431341287018396
% es.Ey (V/m) @ t=0.02
0.08035950725342023
% es.Ez (V/m) @ t=0.02
-0.2658653598293905
% es.tEx (V/m) @ t=0.02
-1.0431341287018405
% es.tEy (V/m) @ t=0.02
0
% es.tEz (V/m) @ t=0.02
-0.2658653598293892
% V (V) @ t=0.02
0.00625622948190249
% es.normE (V/m) @ t=0.04
1.0894842044041075
% es.EX (V/m) @ t=0.04
-1.0527301712780783
% es.EY (V/m) @ t=0.04
0.08109875573088832
% es.EZ (V/m) @ t=0.04
-0.26831112250137457
% es.tEX (V/m) @ t=0.04
-1.05273017127808
% es.tEY (V/m) @ t=0.04
0
% es.tEZ (V/m) @ t=0.04
-0.2683111225013688
% es.Ex (V/m) @ t=0.04
-1.0527301712780783
% es.Ey (V/m) @ t=0.04
0.08109875573088832
% es.Ez (V/m) @ t=0.04
-0.26831112250137457
% es.tEx (V/m) @ t=0.04
-1.05273017127808
% es.tEy (V/m) @ t=0.04
0
% es.tEz (V/m) @ t=0.04
-0.2683111225013688
% V (V) @ t=0.04
0.0063137819772680825
% es.normE (V/m) @ t=0.06
1.099505082429554
% es.EX (V/m) @ t=0.06
-1.0624129923370225
% es.EY (V/m) @ t=0.06
0.0818446874706647
% es.EZ (V/m) @ t=0.06
-0.2707789996411236
% es.tEX (V/m) @ t=0.06
-1.0624129923370198
% es.tEY (V/m) @ t=0.06
0
% es.tEZ (V/m) @ t=0.06
-0.2707789996411245
% es.Ex (V/m) @ t=0.06
-1.0624129923370225
% es.Ey (V/m) @ t=0.06
0.0818446874706647
% es.Ez (V/m) @ t=0.06
-0.2707789996411236
% es.tEx (V/m) @ t=0.06
-1.0624129923370198
% es.tEy (V/m) @ t=0.06
0
% es.tEz (V/m) @ t=0.06
-0.2707789996411245
% V (V) @ t=0.06
0.006371854994809601
% es.normE (V/m) @ t=0.08
1.1096782732488624
% es.EX (V/m) @ t=0.08
-1.072242987788643
% es.EY (V/m) @ t=0.08
0.08260195720915275
% es.EZ (V/m) @ t=0.08
-0.2732843876818807
% es.tEX (V/m) @ t=0.08
-1.0722429877886501
% es.tEY (V/m) @ t=0.08
0
% es.tEZ (V/m) @ t=0.08
-0.27328438768187446
% es.Ex (V/m) @ t=0.08
-1.072242987788643
% es.Ey (V/m) @ t=0.08
0.08260195720915275
% es.Ez (V/m) @ t=0.08
-0.2732843876818807
% es.tEx (V/m) @ t=0.08
-1.0722429877886501
% es.tEy (V/m) @ t=0.08
0
% es.tEz (V/m) @ t=0.08
-0.27328438768187446
% V (V) @ t=0.08
0.006430810688537028
% es.normE (V/m) @ t=0.1
1.1199586680207718
% es.EX (V/m) @ t=0.1
-1.0821765705766717
% es.EY (V/m) @ t=0.1
0.08336720709327522
% es.EZ (V/m) @ t=0.1
-0.27581617742370645
% es.tEX (V/m) @ t=0.1
-1.0821765705766762
% es.tEY (V/m) @ t=0.1
0
% es.tEZ (V/m) @ t=0.1
-0.2758161774237138
% es.Ex (V/m) @ t=0.1
-1.0821765705766717
% es.Ey (V/m) @ t=0.1
0.08336720709327522
% es.Ez (V/m) @ t=0.1
-0.27581617742370645
% es.tEx (V/m) @ t=0.1
-1.0821765705766762
% es.tEy (V/m) @ t=0.1
0
% es.tEz (V/m) @ t=0.1
-0.2758161774237138
% V (V) @ t=0.1
0.006490387645741762
% es.normE (V/m) @ t=0.12
1.130239062792661
% es.EX (V/m) @ t=0.12
-1.0921101533646769
% es.EY (V/m) @ t=0.12
0.08413245697739019
% es.EZ (V/m) @ t=0.12
-0.2783479671655431
% es.tEX (V/m) @ t=0.12
-1.0921101533646773
% es.tEY (V/m) @ t=0.12
0
% es.tEZ (V/m) @ t=0.12
-0.27834796716554333
% es.Ex (V/m) @ t=0.12
-1.0921101533646769
% es.Ey (V/m) @ t=0.12
0.08413245697739019
% es.Ez (V/m) @ t=0.12
-0.2783479671655431
% es.tEx (V/m) @ t=0.12
-1.0921101533646773
% es.tEy (V/m) @ t=0.12
0
% es.tEz (V/m) @ t=0.12
-0.27834796716554333
% V (V) @ t=0.12
0.006549964602946494
% es.normE (V/m) @ t=0.14
1.1406203817823002
% es.EX (V/m) @ t=0.14
-1.1021412559865236
% es.EY (V/m) @ t=0.14
0.08490521873977835
% es.EZ (V/m) @ t=0.14
-0.2809046108425264
% es.tEX (V/m) @ t=0.14
-1.1021412559865205
% es.tEY (V/m) @ t=0.14
0
% es.tEZ (V/m) @ t=0.14
-0.2809046108425246
% es.Ex (V/m) @ t=0.14
-1.1021412559865236
% es.Ey (V/m) @ t=0.14
0.08490521873977835
% es.Ez (V/m) @ t=0.14
-0.2809046108425264
% es.tEx (V/m) @ t=0.14
-1.1021412559865205
% es.tEy (V/m) @ t=0.14
0
% es.tEz (V/m) @ t=0.14
-0.2809046108425246
% V (V) @ t=0.14
0.006610126463541863
% es.normE (V/m) @ t=0.16
1.1514499083604088
% es.EX (V/m) @ t=0.16
-1.1126054472220481
% es.EY (V/m) @ t=0.16
0.08571134098707095
% es.EZ (V/m) @ t=0.16
-0.28357163161822574
% es.tEX (V/m) @ t=0.16
-1.1126054472220552
% es.tEY (V/m) @ t=0.16
0
% es.tEZ (V/m) @ t=0.16
-0.2835716316182211
% es.Ex (V/m) @ t=0.16
-1.1126054472220481
% es.Ey (V/m) @ t=0.16
0.08571134098707095
% es.Ez (V/m) @ t=0.16
-0.28357163161822574
% es.tEx (V/m) @ t=0.16
-1.1126054472220552
% es.tEy (V/m) @ t=0.16
0
% es.tEz (V/m) @ t=0.16
-0.2835716316182211
% V (V) @ t=0.16
0.006672885898278058
% es.normE (V/m) @ t=0.18
1.1622794349385237
% es.EX (V/m) @ t=0.18
-1.1230696384575847
% es.EY (V/m) @ t=0.18
0.08651746323437592
% es.EZ (V/m) @ t=0.18
-0.2862386523938987
% es.tEX (V/m) @ t=0.18
-1.123069638457583
% es.tEY (V/m) @ t=0.18
0
% es.tEZ (V/m) @ t=0.18
-0.2862386523938998
% es.Ex (V/m) @ t=0.18
-1.1230696384575847
% es.Ey (V/m) @ t=0.18
0.08651746323437592
% es.Ez (V/m) @ t=0.18
-0.2862386523938987
% es.tEx (V/m) @ t=0.18
-1.123069638457583
% es.tEy (V/m) @ t=0.18
0
% es.tEz (V/m) @ t=0.18
-0.2862386523938998
% V (V) @ t=0.18
0.00673564533301425
% es.normE (V/m) @ t=0.2
1.1731089615166204
% es.EX (V/m) @ t=0.2
-1.1335338296930995
% es.EY (V/m) @ t=0.2
0.08732358548166319
% es.EZ (V/m) @ t=0.2
-0.28890567316958937
% es.tEX (V/m) @ t=0.2
-1.1335338296930964
% es.tEY (V/m) @ t=0.2
0
% es.tEZ (V/m) @ t=0.2
-0.28890567316958915
% es.Ex (V/m) @ t=0.2
-1.1335338296930995
% es.Ey (V/m) @ t=0.2
0.08732358548166319
% es.Ez (V/m) @ t=0.2
-0.28890567316958937
% es.tEx (V/m) @ t=0.2
-1.1335338296930964
% es.tEy (V/m) @ t=0.2
0
% es.tEz (V/m) @ t=0.2
-0.28890567316958915
% V (V) @ t=0.2
0.006798404767750443
% es.normE (V/m) @ t=0.22
1.1839384880947361
% es.EX (V/m) @ t=0.22
-1.1439980209286338
% es.EY (V/m) @ t=0.22
0.08812970772896639
% es.EZ (V/m) @ t=0.22
-0.29157269394527563
% es.tEX (V/m) @ t=0.22
-1.143998020928633
% es.tEY (V/m) @ t=0.22
0
% es.tEZ (V/m) @ t=0.22
-0.29157269394527674
% es.Ex (V/m) @ t=0.22
-1.1439980209286338
% es.Ey (V/m) @ t=0.22
0.08812970772896639
% es.Ez (V/m) @ t=0.22
-0.29157269394527563
% es.tEx (V/m) @ t=0.22
-1.143998020928633
% es.tEy (V/m) @ t=0.22
0
% es.tEz (V/m) @ t=0.22
-0.29157269394527674
% V (V) @ t=0.22
0.006861164202486636
% es.normE (V/m) @ t=0.24
1.1947680146728417
% es.EX (V/m) @ t=0.24
-1.1544622121641588
% es.EY (V/m) @ t=0.24
0.08893582997624921
% es.EZ (V/m) @ t=0.24
-0.2942397147209628
% es.tEX (V/m) @ t=0.24
-1.1544622121641606
% es.tEY (V/m) @ t=0.24
0
% es.tEZ (V/m) @ t=0.24
-0.29423971472095545
% es.Ex (V/m) @ t=0.24
-1.1544622121641588
% es.Ey (V/m) @ t=0.24
0.08893582997624921
% es.Ez (V/m) @ t=0.24
-0.2942397147209628
% es.tEx (V/m) @ t=0.24
-1.1544622121641606
% es.tEy (V/m) @ t=0.24
0
% es.tEz (V/m) @ t=0.24
-0.29423971472095545
% V (V) @ t=0.24
0.0069239236372228286
% es.normE (V/m) @ t=0.26
1.2055975412509512
% es.EX (V/m) @ t=0.26
-1.1649264033996913
% es.EY (V/m) @ t=0.26
0.08974195222354353
% es.EZ (V/m) @ t=0.26
-0.29690673549663305
% es.tEX (V/m) @ t=0.26
-1.164926403399683
% es.tEY (V/m) @ t=0.26
0
% es.tEZ (V/m) @ t=0.26
-0.2969067354966288
% es.Ex (V/m) @ t=0.26
-1.1649264033996913
% es.Ey (V/m) @ t=0.26
0.08974195222354353
% es.Ez (V/m) @ t=0.26
-0.29690673549663305
% es.tEx (V/m) @ t=0.26
-1.164926403399683
% es.tEy (V/m) @ t=0.26
0
% es.tEz (V/m) @ t=0.26
-0.2969067354966288
% V (V) @ t=0.26
0.0069866830719590226
% es.normE (V/m) @ t=0.28
1.2168934742665583
% es.EX (V/m) @ t=0.28
-1.1758413159550827
% es.EY (V/m) @ t=0.28
0.09058268590489588
% es.EZ (V/m) @ t=0.28
-0.2996884621590439
% es.tEX (V/m) @ t=0.28
-1.175841315955088
% es.tEY (V/m) @ t=0.28
0
% es.tEZ (V/m) @ t=0.28
-0.2996884621590432
% es.Ex (V/m) @ t=0.28
-1.1758413159550827
% es.Ey (V/m) @ t=0.28
0.09058268590489588
% es.Ez (V/m) @ t=0.28
-0.2996884621590439
% es.tEx (V/m) @ t=0.28
-1.175841315955088
% es.tEy (V/m) @ t=0.28
0
% es.tEz (V/m) @ t=0.28
-0.2996884621590432
% V (V) @ t=0.28
0.0070521495868966465
% es.normE (V/m) @ t=0.3
1.2289583592461064
% es.EX (V/m) @ t=0.3
-1.1874993208354487
% es.EY (V/m) @ t=0.3
0.09148048254258878
% es.EZ (V/m) @ t=0.3
-0.30265930138456154
% es.tEX (V/m) @ t=0.3
-1.187499320835446
% es.tEY (V/m) @ t=0.3
0
% es.tEZ (V/m) @ t=0.3
-0.302659301384562
% es.Ex (V/m) @ t=0.3
-1.1874993208354487
% es.Ey (V/m) @ t=0.3
0.09148048254258878
% es.Ez (V/m) @ t=0.3
-0.30265930138456154
% es.tEx (V/m) @ t=0.3
-1.187499320835446
% es.tEy (V/m) @ t=0.3
0
% es.tEz (V/m) @ t=0.3
-0.302659301384562
% V (V) @ t=0.3
0.007122079193399139
% es.normE (V/m) @ t=0.32
1.2410232442258995
% es.EX (V/m) @ t=0.32
-1.1991573257158095
% es.EY (V/m) @ t=0.32
0.09237827918030567
% es.EZ (V/m) @ t=0.32
-0.3056301406100945
% es.tEX (V/m) @ t=0.32
-1.1991573257158077
% es.tEY (V/m) @ t=0.32
0
% es.tEZ (V/m) @ t=0.32
-0.3056301406100932
% es.Ex (V/m) @ t=0.32
-1.1991573257158095
% es.Ey (V/m) @ t=0.32
0.09237827918030567
% es.Ez (V/m) @ t=0.32
-0.3056301406100945
% es.tEx (V/m) @ t=0.32
-1.1991573257158077
% es.tEy (V/m) @ t=0.32
0
% es.tEz (V/m) @ t=0.32
-0.3056301406100932
% V (V) @ t=0.32
0.0071920087999016325
% es.normE (V/m) @ t=0.34
1.2530881292059313
% es.EX (V/m) @ t=0.34
-1.2108153305961746
% es.EY (V/m) @ t=0.34
0.09327607581799696
% es.EZ (V/m) @ t=0.34
-0.30860097983562507
% es.tEX (V/m) @ t=0.34
-1.2108153305961729
% es.tEY (V/m) @ t=0.34
0
% es.tEZ (V/m) @ t=0.34
-0.3086009798356244
% es.Ex (V/m) @ t=0.34
-1.2108153305961746
% es.Ey (V/m) @ t=0.34
0.09327607581799696
% es.Ez (V/m) @ t=0.34
-0.30860097983562507
% es.tEx (V/m) @ t=0.34
-1.2108153305961729
% es.tEy (V/m) @ t=0.34
0
% es.tEz (V/m) @ t=0.34
-0.3086009798356244
% V (V) @ t=0.34
0.007261938406404123
% es.normE (V/m) @ t=0.36
1.265153014186187
% es.EX (V/m) @ t=0.36
-1.2224733354765345
% es.EY (V/m) @ t=0.36
0.09417387245570763
% es.EZ (V/m) @ t=0.36
-0.31157181906114295
% es.tEX (V/m) @ t=0.36
-1.2224733354765398
% es.tEY (V/m) @ t=0.36
0
% es.tEZ (V/m) @ t=0.36
-0.31157181906114495
% es.Ex (V/m) @ t=0.36
-1.2224733354765345
% es.Ey (V/m) @ t=0.36
0.09417387245570763
% es.Ez (V/m) @ t=0.36
-0.31157181906114295
% es.tEx (V/m) @ t=0.36
-1.2224733354765398
% es.tEy (V/m) @ t=0.36
0
% es.tEz (V/m) @ t=0.36
-0.31157181906114495
% V (V) @ t=0.36
0.007331868012906617
% es.normE (V/m) @ t=0.38
1.2772178991666796
% es.EX (V/m) @ t=0.38
-1.2341313403569032
% es.EY (V/m) @ t=0.38
0.09507166909342463
% es.EZ (V/m) @ t=0.38
-0.3145426582866744
% es.tEX (V/m) @ t=0.38
-1.2341313403568996
% es.tEY (V/m) @ t=0.38
0
% es.tEZ (V/m) @ t=0.38
-0.31454265828667083
% es.Ex (V/m) @ t=0.38
-1.2341313403569032
% es.Ey (V/m) @ t=0.38
0.09507166909342463
% es.Ez (V/m) @ t=0.38
-0.3145426582866744
% es.tEx (V/m) @ t=0.38
-1.2341313403568996
% es.tEy (V/m) @ t=0.38
0
% es.tEz (V/m) @ t=0.38
-0.31454265828667083
% V (V) @ t=0.38
0.007401797619409106
% es.normE (V/m) @ t=0.4
1.2892827841474006
% es.EX (V/m) @ t=0.4
-1.245789345237288
% es.EY (V/m) @ t=0.4
0.09596946573110154
% es.EZ (V/m) @ t=0.4
-0.31751349751220115
% es.tEX (V/m) @ t=0.4
-1.245789345237288
% es.tEY (V/m) @ t=0.4
0
% es.tEZ (V/m) @ t=0.4
-0.31751349751219493
% es.Ex (V/m) @ t=0.4
-1.245789345237288
% es.Ey (V/m) @ t=0.4
0.09596946573110154
% es.Ez (V/m) @ t=0.4
-0.31751349751220115
% es.tEx (V/m) @ t=0.4
-1.245789345237288
% es.tEy (V/m) @ t=0.4
0
% es.tEz (V/m) @ t=0.4
-0.31751349751219493
% V (V) @ t=0.4
0.0074717272259115985
% es.normE (V/m) @ t=0.42
1.3013476691283037
% es.EX (V/m) @ t=0.42
-1.2574473501176415
% es.EY (V/m) @ t=0.42
0.09686726236880783
% es.EZ (V/m) @ t=0.42
-0.3204843367377206
% es.tEX (V/m) @ t=0.42
-1.2574473501176495
% es.tEY (V/m) @ t=0.42
0
% es.tEZ (V/m) @ t=0.42
-0.3204843367377137
% es.Ex (V/m) @ t=0.42
-1.2574473501176415
% es.Ey (V/m) @ t=0.42
0.09686726236880783
% es.Ez (V/m) @ t=0.42
-0.3204843367377206
% es.tEx (V/m) @ t=0.42
-1.2574473501176495
% es.tEy (V/m) @ t=0.42
0
% es.tEz (V/m) @ t=0.42
-0.3204843367377137
% V (V) @ t=0.42
0.007541656832414091
% es.normE (V/m) @ t=0.44
1.3134125541094346
% es.EX (V/m) @ t=0.44
-1.269105354998013
% es.EY (V/m) @ t=0.44
0.0977650590065266
% es.EZ (V/m) @ t=0.44
-0.323455175963254
% es.tEX (V/m) @ t=0.44
-1.2691053549980147
% es.tEY (V/m) @ t=0.44
0
% es.tEZ (V/m) @ t=0.44
-0.32345517596325024
% es.Ex (V/m) @ t=0.44
-1.269105354998013
% es.Ey (V/m) @ t=0.44
0.0977650590065266
% es.Ez (V/m) @ t=0.44
-0.323455175963254
% es.tEx (V/m) @ t=0.44
-1.2691053549980147
% es.tEy (V/m) @ t=0.44
0
% es.tEz (V/m) @ t=0.44
-0.32345517596325024
% V (V) @ t=0.44
0.007611586438916583
% es.normE (V/m) @ t=0.46
1.3254774390907647
% es.EX (V/m) @ t=0.46
-1.280763359878387
% es.EY (V/m) @ t=0.46
0.098662855644224
% es.EZ (V/m) @ t=0.46
-0.32642601518878056
% es.tEX (V/m) @ t=0.46
-1.2807633598783887
% es.tEY (V/m) @ t=0.46
0
% es.tEZ (V/m) @ t=0.46
-0.3264260151887797
% es.Ex (V/m) @ t=0.46
-1.280763359878387
% es.Ey (V/m) @ t=0.46
0.098662855644224
% es.Ez (V/m) @ t=0.46
-0.32642601518878056
% es.tEx (V/m) @ t=0.46
-1.2807633598783887
% es.tEy (V/m) @ t=0.46
0
% es.tEz (V/m) @ t=0.46
-0.3264260151887797
% V (V) @ t=0.46
0.007681516045419075
% es.normE (V/m) @ t=0.48
1.3375423240722877
% es.EX (V/m) @ t=0.48
-1.2924213647587601
% es.EY (V/m) @ t=0.48
0.09956065228193028
% es.EZ (V/m) @ t=0.48
-0.3293968544143
% es.tEX (V/m) @ t=0.48
-1.2924213647587628
% es.tEY (V/m) @ t=0.48
0
% es.tEZ (V/m) @ t=0.48
-0.32939685441429845
% es.Ex (V/m) @ t=0.48
-1.2924213647587601
% es.Ey (V/m) @ t=0.48
0.09956065228193028
% es.Ez (V/m) @ t=0.48
-0.3293968544143
% es.tEx (V/m) @ t=0.48
-1.2924213647587628
% es.tEy (V/m) @ t=0.48
0
% es.tEz (V/m) @ t=0.48
-0.32939685441429845
% V (V) @ t=0.48
0.007751445651921566
% es.normE (V/m) @ t=0.5
1.349607209053982
% es.EX (V/m) @ t=0.5
-1.3040793696391129
% es.EY (V/m) @ t=0.5
0.10045844891962141
% es.EZ (V/m) @ t=0.5
-0.3323676936398292
% es.tEX (V/m) @ t=0.5
-1.3040793696391084
% es.tEY (V/m) @ t=0.5
0
% es.tEZ (V/m) @ t=0.5
-0.33236769363982965
% es.Ex (V/m) @ t=0.5
-1.3040793696391129
% es.Ey (V/m) @ t=0.5
0.10045844891962141
% es.Ez (V/m) @ t=0.5
-0.3323676936398292
% es.tEx (V/m) @ t=0.5
-1.3040793696391084
% es.tEy (V/m) @ t=0.5
0
% es.tEz (V/m) @ t=0.5
-0.33236769363982965
% V (V) @ t=0.5
0.007821375258424058
% es.normE (V/m) @ t=0.52
1.3616720940358804
% es.EX (V/m) @ t=0.52
-1.315737374519486
% es.EY (V/m) @ t=0.52
0.10135624555734024
% es.EZ (V/m) @ t=0.52
-0.33533853286535087
% es.tEX (V/m) @ t=0.52
-1.3157373745194842
% es.tEY (V/m) @ t=0.52
0
% es.tEZ (V/m) @ t=0.52
-0.3353385328653573
% es.Ex (V/m) @ t=0.52
-1.315737374519486
% es.Ey (V/m) @ t=0.52
0.10135624555734024
% es.Ez (V/m) @ t=0.52
-0.33533853286535087
% es.tEx (V/m) @ t=0.52
-1.3157373745194842
% es.tEy (V/m) @ t=0.52
0
% es.tEz (V/m) @ t=0.52
-0.3353385328653573
% V (V) @ t=0.52
0.007891304864926552
% es.normE (V/m) @ t=0.54
1.373736979017964
% es.EX (V/m) @ t=0.54
-1.3273953793998672
% es.EY (V/m) @ t=0.54
0.1022540421950322
% es.EZ (V/m) @ t=0.54
-0.33830937209087075
% es.tEX (V/m) @ t=0.54
-1.3273953793998707
% es.tEY (V/m) @ t=0.54
0
% es.tEZ (V/m) @ t=0.54
-0.3383093720908672
% es.Ex (V/m) @ t=0.54
-1.3273953793998672
% es.Ey (V/m) @ t=0.54
0.1022540421950322
% es.Ez (V/m) @ t=0.54
-0.33830937209087075
% es.tEx (V/m) @ t=0.54
-1.3273953793998707
% es.tEy (V/m) @ t=0.54
0
% es.tEz (V/m) @ t=0.54
-0.3383093720908672
% V (V) @ t=0.54
0.007961234471429044
% es.normE (V/m) @ t=0.56
1.386873265200458
% es.EX (V/m) @ t=0.56
-1.3400887706637414
% es.EY (V/m) @ t=0.56
0.10323131084340298
% es.EZ (V/m) @ t=0.56
-0.3415436553949607
% es.tEX (V/m) @ t=0.56
-1.340088770663744
% es.tEY (V/m) @ t=0.56
0
% es.tEZ (V/m) @ t=0.56
-0.3415436553949629
% es.Ex (V/m) @ t=0.56
-1.3400887706637414
% es.Ey (V/m) @ t=0.56
0.10323131084340298
% es.Ez (V/m) @ t=0.56
-0.3415436553949607
% es.tEx (V/m) @ t=0.56
-1.340088770663744
% es.tEy (V/m) @ t=0.56
0
% es.tEz (V/m) @ t=0.56
-0.3415436553949629
% V (V) @ t=0.56
0.00803738398469868
% es.normE (V/m) @ t=0.58
1.4003385556074954
% es.EX (V/m) @ t=0.58
-1.3531001067770205
% es.EY (V/m) @ t=0.58
0.10423298363388822
% es.EZ (V/m) @ t=0.58
-0.3448588366992855
% es.tEX (V/m) @ t=0.58
-1.353100106777024
% es.tEY (V/m) @ t=0.58
0
% es.tEZ (V/m) @ t=0.58
-0.34485883669928796
% es.Ex (V/m) @ t=0.58
-1.3531001067770205
% es.Ey (V/m) @ t=0.58
0.10423298363388822
% es.Ez (V/m) @ t=0.58
-0.3448588366992855
% es.tEx (V/m) @ t=0.58
-1.353100106777024
% es.tEy (V/m) @ t=0.58
0
% es.tEz (V/m) @ t=0.58
-0.34485883669928796
% V (V) @ t=0.58
0.008115443497319266
% es.normE (V/m) @ t=0.6
1.4138038460155429
% es.EX (V/m) @ t=0.6
-1.366111442890321
% es.EY (V/m) @ t=0.6
0.10523465642439644
% es.EZ (V/m) @ t=0.6
-0.34817401800362924
% es.tEX (V/m) @ t=0.6
-1.3661114428903218
% es.tEY (V/m) @ t=0.6
0
% es.tEZ (V/m) @ t=0.6
-0.34817401800362546
% es.Ex (V/m) @ t=0.6
-1.366111442890321
% es.Ey (V/m) @ t=0.6
0.10523465642439644
% es.Ez (V/m) @ t=0.6
-0.34817401800362924
% es.tEx (V/m) @ t=0.6
-1.3661114428903218
% es.tEy (V/m) @ t=0.6
0
% es.tEz (V/m) @ t=0.6
-0.34817401800362546
% V (V) @ t=0.6
0.008193503009939852
% es.normE (V/m) @ t=0.62
1.4272691364245178
% es.EX (V/m) @ t=0.62
-1.379122779003601
% es.EY (V/m) @ t=0.62
0.10623632921488163
% es.EZ (V/m) @ t=0.62
-0.3514891993079512
% es.tEX (V/m) @ t=0.62
-1.3791227790036071
% es.tEY (V/m) @ t=0.62
0
% es.tEZ (V/m) @ t=0.62
-0.35148919930794875
% es.Ex (V/m) @ t=0.62
-1.379122779003601
% es.Ey (V/m) @ t=0.62
0.10623632921488163
% es.Ez (V/m) @ t=0.62
-0.3514891993079512
% es.tEx (V/m) @ t=0.62
-1.3791227790036071
% es.tEy (V/m) @ t=0.62
0
% es.tEz (V/m) @ t=0.62
-0.35148919930794875
% V (V) @ t=0.62
0.008271562522560437
% es.normE (V/m) @ t=0.64
1.4407344268344389
% es.EX (V/m) @ t=0.64
-1.3921341151168978
% es.EY (V/m) @ t=0.64
0.1072380020053641
% es.EZ (V/m) @ t=0.64
-0.3548043806122798
% es.tEX (V/m) @ t=0.64
-1.3921341151168942
% es.tEY (V/m) @ t=0.64
0
% es.tEZ (V/m) @ t=0.64
-0.3548043806122809
% es.Ex (V/m) @ t=0.64
-1.3921341151168978
% es.Ey (V/m) @ t=0.64
0.1072380020053641
% es.Ez (V/m) @ t=0.64
-0.3548043806122798
% es.tEx (V/m) @ t=0.64
-1.3921341151168942
% es.tEy (V/m) @ t=0.64
0
% es.tEz (V/m) @ t=0.64
-0.3548043806122809
% V (V) @ t=0.64
0.008349622035181022
% es.normE (V/m) @ t=0.66
1.454199717245273
% es.EX (V/m) @ t=0.66
-1.4051454512302062
% es.EY (V/m) @ t=0.66
0.10823967479584928
% es.EZ (V/m) @ t=0.66
-0.3581195619166062
% es.tEX (V/m) @ t=0.66
-1.4051454512302008
% es.tEY (V/m) @ t=0.66
0
% es.tEZ (V/m) @ t=0.66
-0.35811956191660244
% es.Ex (V/m) @ t=0.66
-1.4051454512302062
% es.Ey (V/m) @ t=0.66
0.10823967479584928
% es.Ez (V/m) @ t=0.66
-0.3581195619166062
% es.tEx (V/m) @ t=0.66
-1.4051454512302008
% es.tEy (V/m) @ t=0.66
0
% es.tEz (V/m) @ t=0.66
-0.35811956191660244
% V (V) @ t=0.66
0.008427681547801609
% es.normE (V/m) @ t=0.68
1.4676650076569597
% es.EX (V/m) @ t=0.68
-1.4181567873434826
% es.EY (V/m) @ t=0.68
0.10924134758636372
% es.EZ (V/m) @ t=0.68
-0.36143474322094726
% es.tEX (V/m) @ t=0.68
-1.4181567873434862
% es.tEY (V/m) @ t=0.68
0
% es.tEZ (V/m) @ t=0.68
-0.3614347432209435
% es.Ex (V/m) @ t=0.68
-1.4181567873434826
% es.Ey (V/m) @ t=0.68
0.10924134758636372
% es.Ez (V/m) @ t=0.68
-0.36143474322094726
% es.tEx (V/m) @ t=0.68
-1.4181567873434862
% es.tEy (V/m) @ t=0.68
0
% es.tEz (V/m) @ t=0.68
-0.3614347432209435
% V (V) @ t=0.68
0.008505741060422194
% es.normE (V/m) @ t=0.7
1.4811302980695125
% es.EX (V/m) @ t=0.7
-1.4311681234567795
% es.EY (V/m) @ t=0.7
0.11024302037684797
% es.EZ (V/m) @ t=0.7
-0.36474992452526966
% es.tEX (V/m) @ t=0.7
-1.4311681234567786
% es.tEY (V/m) @ t=0.7
0
% es.tEZ (V/m) @ t=0.7
-0.36474992452527033
% es.Ex (V/m) @ t=0.7
-1.4311681234567795
% es.Ey (V/m) @ t=0.7
0.11024302037684797
% es.Ez (V/m) @ t=0.7
-0.36474992452526966
% es.tEx (V/m) @ t=0.7
-1.4311681234567786
% es.tEy (V/m) @ t=0.7
0
% es.tEz (V/m) @ t=0.7
-0.36474992452527033
% V (V) @ t=0.7
0.00858380057304278
% es.normE (V/m) @ t=0.72
1.4945955884829032
% es.EX (V/m) @ t=0.72
-1.4441794595700834
% es.EY (V/m) @ t=0.72
0.1112446931673216
% es.EZ (V/m) @ t=0.72
-0.36806510582959784
% es.tEX (V/m) @ t=0.72
-1.444179459570078
% es.tEY (V/m) @ t=0.72
0
% es.tEZ (V/m) @ t=0.72
-0.3680651058295936
% es.Ex (V/m) @ t=0.72
-1.4441794595700834
% es.Ey (V/m) @ t=0.72
0.1112446931673216
% es.Ez (V/m) @ t=0.72
-0.36806510582959784
% es.tEx (V/m) @ t=0.72
-1.444179459570078
% es.tEy (V/m) @ t=0.72
0
% es.tEz (V/m) @ t=0.72
-0.3680651058295936
% V (V) @ t=0.72
0.008661860085663367
% es.normE (V/m) @ t=0.74
1.5080608788970962
% es.EX (V/m) @ t=0.74
-1.4571907956833776
% es.EY (V/m) @ t=0.74
0.11224636595784138
% es.EZ (V/m) @ t=0.74
-0.3713802871339247
% es.tEX (V/m) @ t=0.74
-1.4571907956833776
% es.tEY (V/m) @ t=0.74
0
% es.tEZ (V/m) @ t=0.74
-0.37138028713392224
% es.Ex (V/m) @ t=0.74
-1.4571907956833776
% es.Ey (V/m) @ t=0.74
0.11224636595784138
% es.Ez (V/m) @ t=0.74
-0.3713802871339247
% es.tEx (V/m) @ t=0.74
-1.4571907956833776
% es.tEy (V/m) @ t=0.74
0
% es.tEz (V/m) @ t=0.74
-0.37138028713392224
% V (V) @ t=0.74
0.008739919598283952
% es.normE (V/m) @ t=0.76
1.521526169312084
% es.EX (V/m) @ t=0.76
-1.4702021317966851
% es.EY (V/m) @ t=0.76
0.11324803874832212
% es.EZ (V/m) @ t=0.76
-0.37469546843824486
% es.tEX (V/m) @ t=0.76
-1.4702021317966931
% es.tEY (V/m) @ t=0.76
0
% es.tEZ (V/m) @ t=0.76
-0.3746954684382491
% es.Ex (V/m) @ t=0.76
-1.4702021317966851
% es.Ey (V/m) @ t=0.76
0.11324803874832212
% es.Ez (V/m) @ t=0.76
-0.37469546843824486
% es.tEx (V/m) @ t=0.76
-1.4702021317966931
% es.tEy (V/m) @ t=0.76
0
% es.tEz (V/m) @ t=0.76
-0.3746954684382491
% V (V) @ t=0.76
0.008817979110904537
% es.normE (V/m) @ t=0.78
1.5349914597278111
% es.EX (V/m) @ t=0.78
-1.4832134679099624
% es.EY (V/m) @ t=0.78
0.11424971153880192
% es.EZ (V/m) @ t=0.78
-0.37801064974257503
% es.tEX (V/m) @ t=0.78
-1.4832134679099784
% es.tEY (V/m) @ t=0.78
0
% es.tEZ (V/m) @ t=0.78
-0.3780106497425777
% es.Ex (V/m) @ t=0.78
-1.4832134679099624
% es.Ey (V/m) @ t=0.78
0.11424971153880192
% es.Ez (V/m) @ t=0.78
-0.37801064974257503
% es.tEx (V/m) @ t=0.78
-1.4832134679099784
% es.tEy (V/m) @ t=0.78
0
% es.tEz (V/m) @ t=0.78
-0.3780106497425777
% V (V) @ t=0.78
0.008896038623525122
% es.normE (V/m) @ t=0.8
1.5484567501443076
% es.EX (V/m) @ t=0.8
-1.4962248040232584
% es.EY (V/m) @ t=0.8
0.11525138432931908
% es.EZ (V/m) @ t=0.8
-0.3813258310469161
% es.tEX (V/m) @ t=0.8
-1.496224804023262
% es.tEY (V/m) @ t=0.8
0
% es.tEZ (V/m) @ t=0.8
-0.381325831046901
% es.Ex (V/m) @ t=0.8
-1.4962248040232584
% es.Ey (V/m) @ t=0.8
0.11525138432931908
% es.Ez (V/m) @ t=0.8
-0.3813258310469161
% es.tEx (V/m) @ t=0.8
-1.496224804023262
% es.tEy (V/m) @ t=0.8
0
% es.tEz (V/m) @ t=0.8
-0.381325831046901
% V (V) @ t=0.8
0.008974098136145707
% es.normE (V/m) @ t=0.82
1.5621647350864052
% es.EX (V/m) @ t=0.82
-1.509470645906065
% es.EY (V/m) @ t=0.82
0.11627112577850379
% es.EZ (V/m) @ t=0.82
-0.38470078604892244
% es.tEX (V/m) @ t=0.82
-1.5094706459060703
% es.tEY (V/m) @ t=0.82
0
% es.tEZ (V/m) @ t=0.82
-0.38470078604892777
% es.Ex (V/m) @ t=0.82
-1.509470645906065
% es.Ey (V/m) @ t=0.82
0.11627112577850379
% es.Ez (V/m) @ t=0.82
-0.38470078604892244
% es.tEx (V/m) @ t=0.82
-1.5094706459060703
% es.tEy (V/m) @ t=0.82
0
% es.tEz (V/m) @ t=0.82
-0.38470078604892777
% V (V) @ t=0.82
0.009053563995034696
% es.normE (V/m) @ t=0.84
1.5772206038431806
% es.EX (V/m) @ t=0.84
-1.5240188926583809
% es.EY (V/m) @ t=0.84
0.1173912174627384
% es.EZ (V/m) @ t=0.84
-0.388407713927867
% es.tEX (V/m) @ t=0.84
-1.5240188926583862
% es.tEY (V/m) @ t=0.84
0
% es.tEZ (V/m) @ t=0.84
-0.38840771392787055
% es.Ex (V/m) @ t=0.84
-1.5240188926583809
% es.Ey (V/m) @ t=0.84
0.1173912174627384
% es.Ez (V/m) @ t=0.84
-0.388407713927867
% es.tEx (V/m) @ t=0.84
-1.5240188926583862
% es.tEy (V/m) @ t=0.84
0
% es.tEz (V/m) @ t=0.84
-0.38840771392787055
% V (V) @ t=0.84
0.009140840460169948
% es.normE (V/m) @ t=0.86
1.5922764726005694
% es.EX (V/m) @ t=0.86
-1.5385671394107074
% es.EY (V/m) @ t=0.86
0.11851130914697394
% es.EZ (V/m) @ t=0.86
-0.392114641806796
% es.tEX (V/m) @ t=0.86
-1.538567139410695
% es.tEY (V/m) @ t=0.86
0
% es.tEZ (V/m) @ t=0.86
-0.392114641806792
% es.Ex (V/m) @ t=0.86
-1.5385671394107074
% es.Ey (V/m) @ t=0.86
0.11851130914697394
% es.Ez (V/m) @ t=0.86
-0.392114641806796
% es.tEx (V/m) @ t=0.86
-1.538567139410695
% es.tEy (V/m) @ t=0.86
0
% es.tEz (V/m) @ t=0.86
-0.392114641806792
% V (V) @ t=0.86
0.009228116925305204
% es.normE (V/m) @ t=0.88
1.6073323413585172
% es.EX (V/m) @ t=0.88
-1.5531153861629976
% es.EY (V/m) @ t=0.88
0.11963140083120055
% es.EZ (V/m) @ t=0.88
-0.3958215696857441
% es.tEX (V/m) @ t=0.88
-1.5531153861630145
% es.tEY (V/m) @ t=0.88
0
% es.tEZ (V/m) @ t=0.88
-0.39582156968573656
% es.Ex (V/m) @ t=0.88
-1.5531153861629976
% es.Ey (V/m) @ t=0.88
0.11963140083120055
% es.Ez (V/m) @ t=0.88
-0.3958215696857441
% es.tEx (V/m) @ t=0.88
-1.5531153861630145
% es.tEy (V/m) @ t=0.88
0
% es.tEz (V/m) @ t=0.88
-0.39582156968573656
% V (V) @ t=0.88
0.009315393390440454
% es.normE (V/m) @ t=0.9
1.6223882101170735
% es.EX (V/m) @ t=0.9
-1.5676636329153268
% es.EY (V/m) @ t=0.9
0.12075149251544148
% es.EZ (V/m) @ t=0.9
-0.3995284975646771
% es.tEX (V/m) @ t=0.9
-1.5676636329153304
% es.tEY (V/m) @ t=0.9
0
% es.tEZ (V/m) @ t=0.9
-0.39952849756467046
% es.Ex (V/m) @ t=0.9
-1.5676636329153268
% es.Ey (V/m) @ t=0.9
0.12075149251544148
% es.Ez (V/m) @ t=0.9
-0.3995284975646771
% es.tEx (V/m) @ t=0.9
-1.5676636329153304
% es.tEy (V/m) @ t=0.9
0
% es.tEz (V/m) @ t=0.9
-0.39952849756467046
% V (V) @ t=0.9
0.00940266985557571
% es.normE (V/m) @ t=0.92
1.6374440788761695
% es.EX (V/m) @ t=0.92
-1.5822118796676374
% es.EY (V/m) @ t=0.92
0.12187158419968769
% es.EZ (V/m) @ t=0.92
-0.40323542544360924
% es.tEX (V/m) @ t=0.92
-1.5822118796676357
% es.tEY (V/m) @ t=0.92
0
% es.tEZ (V/m) @ t=0.92
-0.403235425443615
% es.Ex (V/m) @ t=0.92
-1.5822118796676374
% es.Ey (V/m) @ t=0.92
0.12187158419968769
% es.Ez (V/m) @ t=0.92
-0.40323542544360924
% es.tEx (V/m) @ t=0.92
-1.5822118796676357
% es.tEy (V/m) @ t=0.92
0
% es.tEz (V/m) @ t=0.92
-0.403235425443615
% V (V) @ t=0.92
0.009489946320710964
% es.normE (V/m) @ t=0.94
1.6524999476358129
% es.EX (V/m) @ t=0.94
-1.5967601264199542
% es.EY (V/m) @ t=0.94
0.12299167588390814
% es.EZ (V/m) @ t=0.94
-0.40694235332254447
% es.tEX (V/m) @ t=0.94
-1.5967601264199445
% es.tEY (V/m) @ t=0.94
0
% es.tEZ (V/m) @ t=0.94
-0.4069423533225436
% es.Ex (V/m) @ t=0.94
-1.5967601264199542
% es.Ey (V/m) @ t=0.94
0.12299167588390814
% es.Ez (V/m) @ t=0.94
-0.40694235332254447
% es.tEx (V/m) @ t=0.94
-1.5967601264199445
% es.tEy (V/m) @ t=0.94
0
% es.tEz (V/m) @ t=0.94
-0.4069423533225436
% V (V) @ t=0.94
0.009577222785846218
% es.normE (V/m) @ t=0.96
1.6675558163959774
% es.EX (V/m) @ t=0.96
-1.6113083731722604
% es.EY (V/m) @ t=0.96
0.12411176756816056
% es.EZ (V/m) @ t=0.96
-0.41064928120148636
% es.tEX (V/m) @ t=0.96
-1.6113083731722693
% es.tEY (V/m) @ t=0.96
0
% es.tEZ (V/m) @ t=0.96
-0.4106492812014757
% es.Ex (V/m) @ t=0.96
-1.6113083731722604
% es.Ey (V/m) @ t=0.96
0.12411176756816056
% es.Ez (V/m) @ t=0.96
-0.41064928120148636
% es.tEx (V/m) @ t=0.96
-1.6113083731722693
% es.tEy (V/m) @ t=0.96
0
% es.tEz (V/m) @ t=0.96
-0.4106492812014757
% V (V) @ t=0.96
0.009664499250981468
% es.normE (V/m) @ t=0.98
1.6826116851566466
% es.EX (V/m) @ t=0.98
-1.625856619924562
% es.EY (V/m) @ t=0.98
0.12523185925237923
% es.EZ (V/m) @ t=0.98
-0.41435620908042115
% es.tEX (V/m) @ t=0.98
-1.625856619924571
% es.tEY (V/m) @ t=0.98
0
% es.tEZ (V/m) @ t=0.98
-0.4143562090804256
% es.Ex (V/m) @ t=0.98
-1.625856619924562
% es.Ey (V/m) @ t=0.98
0.12523185925237923
% es.Ez (V/m) @ t=0.98
-0.41435620908042115
% es.tEx (V/m) @ t=0.98
-1.625856619924571
% es.tEy (V/m) @ t=0.98
0
% es.tEz (V/m) @ t=0.98
-0.4143562090804256
% V (V) @ t=0.98
0.009751775716116724
% es.normE (V/m) @ t=1
1.697667553917828
% es.EX (V/m) @ t=1
-1.6404048666768771
% es.EY (V/m) @ t=1
0.12635195093661833
% es.EZ (V/m) @ t=1
-0.41806313695934616
% es.tEX (V/m) @ t=1
-1.6404048666768851
% es.tEY (V/m) @ t=1
0
% es.tEZ (V/m) @ t=1
-0.41806313695934705
% es.Ex (V/m) @ t=1
-1.6404048666768771
% es.Ey (V/m) @ t=1
0.12635195093661833
% es.Ez (V/m) @ t=1
-0.41806313695934616
% es.tEx (V/m) @ t=1
-1.6404048666768851
% es.tEy (V/m) @ t=1
0
% es.tEz (V/m) @ t=1
-0.41806313695934705
% V (V) @ t=1
0.009839052181251978
% es.normE (V/m) @ t=1.02
1.7127234226795056
% es.EX (V/m) @ t=1.02
-1.6549531134292002
% es.EY (V/m) @ t=1.02
0.1274720426208521
% es.EZ (V/m) @ t=1.02
-0.4217700648382796
% es.tEX (V/m) @ t=1.02
-1.6549531134291993
% es.tEY (V/m) @ t=1.02
0
% es.tEZ (V/m) @ t=1.02
-0.4217700648382845
% es.Ex (V/m) @ t=1.02
-1.6549531134292002
% es.Ey (V/m) @ t=1.02
0.1274720426208521
% es.Ez (V/m) @ t=1.02
-0.4217700648382796
% es.tEx (V/m) @ t=1.02