% Model:              1 neuron.mph
% Version:            COMSOL 6.1.0.252
% Date:               Mar 18 2023, 12:18
% Dimension:          0
% Nodes:              14017
% Expressions:        14017
% Description:        Electric field norm, Electric field, X component, Electric field, Y component, Electric field, Z component, Tangential electric field, X component, Tangential electric field, Y component, Tangential electric field, Z component, Electric field, x component, Electric field, y component, Electric field, z component, Tangential electric field, x component, Tangential electric field, y component, Tangential electric field, z component, Electric potential
% Length unit:        mm
% x
1.33
% y
12.2
% z
1
% es.normE (V/m) @ t=0
1.5408484604379153
% es.EX (V/m) @ t=0
0.47560044727416884
% es.EY (V/m) @ t=0
0.11522163052648315
% es.EZ (V/m) @ t=0
1.4610651334413962
% es.tEX (V/m) @ t=0
0.47560044727417505
% es.tEY (V/m) @ t=0
0
% es.tEZ (V/m) @ t=0
1.461065133441398
% es.Ex (V/m) @ t=0
0.47560044727416884
% es.Ey (V/m) @ t=0
0.11522163052648315
% es.Ez (V/m) @ t=0
1.4610651334413962
% es.tEx (V/m) @ t=0
0.47560044727417505
% es.tEy (V/m) @ t=0
0
% es.tEz (V/m) @ t=0
1.461065133441398
% V (V) @ t=0
0.007206583430565362
% es.normE (V/m) @ t=0.02
1.3308482896718363
% es.EX (V/m) @ t=0.02
0.41078150008794245
% es.EY (V/m) @ t=0.02
0.09951822897471824
% es.EZ (V/m) @ t=0.02
1.2619385253075195
% es.tEX (V/m) @ t=0.02
0.4107815000879427
% es.tEY (V/m) @ t=0.02
0
% es.tEZ (V/m) @ t=0.02
1.2619385253075226
% es.Ex (V/m) @ t=0.02
0.41078150008794245
% es.Ey (V/m) @ t=0.02
0.09951822897471824
% es.Ez (V/m) @ t=0.02
1.2619385253075195
% es.tEx (V/m) @ t=0.02
0.4107815000879427
% es.tEy (V/m) @ t=0.02
0
% es.tEz (V/m) @ t=0.02
1.2619385253075226
% V (V) @ t=0.02
0.006224407826869603
% es.normE (V/m) @ t=0.04
1.3430902728427254
% es.EX (V/m) @ t=0.04
0.4145601280191309
% es.EY (V/m) @ t=0.04
0.10043366048501318
% es.EZ (V/m) @ t=0.04
1.2735466328663685
% es.tEX (V/m) @ t=0.04
0.4145601280191329
% es.tEY (V/m) @ t=0.04
0
% es.tEZ (V/m) @ t=0.04
1.273546632866366
% es.Ex (V/m) @ t=0.04
0.4145601280191309
% es.Ey (V/m) @ t=0.04
0.10043366048501318
% es.Ez (V/m) @ t=0.04
1.2735466328663685
% es.tEx (V/m) @ t=0.04
0.4145601280191329
% es.tEy (V/m) @ t=0.04
0
% es.tEz (V/m) @ t=0.04
1.273546632866366
% V (V) @ t=0.04
0.006281663839482764
% es.normE (V/m) @ t=0.06
1.3554465773808282
% es.EX (V/m) @ t=0.06
0.4183740425318049
% es.EY (V/m) @ t=0.06
0.10135764073415326
% es.EZ (V/m) @ t=0.06
1.2852631423691536
% es.tEX (V/m) @ t=0.06
0.4183740425318092
% es.tEY (V/m) @ t=0.06
0
% es.tEZ (V/m) @ t=0.06
1.2852631423691498
% es.Ex (V/m) @ t=0.06
0.4183740425318049
% es.Ey (V/m) @ t=0.06
0.10135764073415326
% es.Ez (V/m) @ t=0.06
1.2852631423691536
% es.tEx (V/m) @ t=0.06
0.4183740425318092
% es.tEy (V/m) @ t=0.06
0
% es.tEz (V/m) @ t=0.06
1.2852631423691498
% V (V) @ t=0.06
0.0063394545368691815
% es.normE (V/m) @ t=0.08
1.367982141516709
% es.EX (V/m) @ t=0.08
0.42224328756402674
% es.EY (V/m) @ t=0.08
0.1022950256451044
% es.EZ (V/m) @ t=0.08
1.2971496296191725
% es.tEX (V/m) @ t=0.08
0.42224328756402585
% es.tEY (V/m) @ t=0.08
0
% es.tEZ (V/m) @ t=0.08
1.2971496296191614
% es.Ex (V/m) @ t=0.08
0.42224328756402674
% es.Ey (V/m) @ t=0.08
0.1022950256451044
% es.Ez (V/m) @ t=0.08
1.2971496296191725
% es.tEx (V/m) @ t=0.08
0.42224328756402585
% es.tEy (V/m) @ t=0.08
0
% es.tEz (V/m) @ t=0.08
1.2971496296191614
% V (V) @ t=0.08
0.006398083636407771
% es.normE (V/m) @ t=0.1
1.380661625624585
% es.EX (V/m) @ t=0.1
0.4261569551371933
% es.EY (V/m) @ t=0.1
0.10324317259371263
% es.EZ (V/m) @ t=0.1
1.3091725848347915
% es.tEX (V/m) @ t=0.1
0.4261569551371913
% es.tEY (V/m) @ t=0.1
0
% es.tEZ (V/m) @ t=0.1
1.3091725848347897
% es.Ex (V/m) @ t=0.1
0.4261569551371933
% es.Ey (V/m) @ t=0.1
0.10324317259371263
% es.Ez (V/m) @ t=0.1
1.3091725848347915
% es.tEx (V/m) @ t=0.1
0.4261569551371913
% es.tEy (V/m) @ t=0.1
0
% es.tEz (V/m) @ t=0.1
1.3091725848347897
% V (V) @ t=0.1
0.006457385853680477
% es.normE (V/m) @ t=0.12
1.393341109732451
% es.EX (V/m) @ t=0.12
0.43007062271034957
% es.EY (V/m) @ t=0.12
0.10419131954234384
% es.EZ (V/m) @ t=0.12
1.321195540050402
% es.tEX (V/m) @ t=0.12
0.4300706227103497
% es.tEY (V/m) @ t=0.12
0
% es.tEZ (V/m) @ t=0.12
1.3211955400504038
% es.Ex (V/m) @ t=0.12
0.43007062271034957
% es.Ey (V/m) @ t=0.12
0.10419131954234384
% es.Ez (V/m) @ t=0.12
1.321195540050402
% es.tEx (V/m) @ t=0.12
0.4300706227103497
% es.tEy (V/m) @ t=0.12
0
% es.tEz (V/m) @ t=0.12
1.3211955400504038
% V (V) @ t=0.12
0.006516688070953185
% es.normE (V/m) @ t=0.14
1.4061022768289728
% es.EX (V/m) @ t=0.14
0.4340095027653349
% es.EY (V/m) @ t=0.14
0.10514557456132345
% es.EZ (V/m) @ t=0.14
1.3332959487758624
% es.tEX (V/m) @ t=0.14
0.43400950276533834
% es.tEY (V/m) @ t=0.14
0
% es.tEZ (V/m) @ t=0.14
1.33329594877587
% es.Ex (V/m) @ t=0.14
0.4340095027653349
% es.Ey (V/m) @ t=0.14
0.10514557456132345
% es.Ez (V/m) @ t=0.14
1.3332959487758624
% es.tEx (V/m) @ t=0.14
0.43400950276533834
% es.tEy (V/m) @ t=0.14
0
% es.tEz (V/m) @ t=0.14
1.33329594877587
% V (V) @ t=0.14
0.00657637231179902
% es.normE (V/m) @ t=0.16
1.4194657925524528
% es.EX (V/m) @ t=0.16
0.43813430530009934
% es.EY (V/m) @ t=0.16
0.10614487185718147
% es.EZ (V/m) @ t=0.16
1.3459675170056515
% es.tEX (V/m) @ t=0.16
0.4381343053001068
% es.tEY (V/m) @ t=0.16
0
% es.tEZ (V/m) @ t=0.16
1.3459675170056506
% es.Ex (V/m) @ t=0.16
0.43813430530009934
% es.Ey (V/m) @ t=0.16
0.10614487185718147
% es.Ez (V/m) @ t=0.16
1.3459675170056515
% es.tEx (V/m) @ t=0.16
0.4381343053001068
% es.tEy (V/m) @ t=0.16
0
% es.tEz (V/m) @ t=0.16
1.3459675170056506
% V (V) @ t=0.16
0.006638873679913877
% es.normE (V/m) @ t=0.18
1.4328293082759145
% es.EX (V/m) @ t=0.18
0.4422591078348701
% es.EY (V/m) @ t=0.18
0.10714416915304614
% es.EZ (V/m) @ t=0.18
1.3586390852354193
% es.tEX (V/m) @ t=0.18
0.4422591078348681
% es.tEY (V/m) @ t=0.18
0
% es.tEZ (V/m) @ t=0.18
1.3586390852354242
% es.Ex (V/m) @ t=0.18
0.4422591078348701
% es.Ey (V/m) @ t=0.18
0.10714416915304614
% es.Ez (V/m) @ t=0.18
1.3586390852354193
% es.tEx (V/m) @ t=0.18
0.4422591078348681
% es.tEy (V/m) @ t=0.18
0
% es.tEz (V/m) @ t=0.18
1.3586390852354242
% V (V) @ t=0.18
0.006701375048028733
% es.normE (V/m) @ t=0.2
1.4461928239993764
% es.EX (V/m) @ t=0.2
0.44638391036963865
% es.EY (V/m) @ t=0.2
0.10814346644891826
% es.EZ (V/m) @ t=0.2
1.371310653465187
% es.tEX (V/m) @ t=0.2
0.4463839103696401
% es.tEY (V/m) @ t=0.2
0
% es.tEZ (V/m) @ t=0.2
1.3713106534651995
% es.Ex (V/m) @ t=0.2
0.44638391036963865
% es.Ey (V/m) @ t=0.2
0.10814346644891826
% es.Ez (V/m) @ t=0.2
1.371310653465187
% es.tEx (V/m) @ t=0.2
0.4463839103696401
% es.tEy (V/m) @ t=0.2
0
% es.tEz (V/m) @ t=0.2
1.3713106534651995
% V (V) @ t=0.2
0.0067638764161435895
% es.normE (V/m) @ t=0.22
1.4595563397228455
% es.EX (V/m) @ t=0.22
0.45050871290440364
% es.EY (V/m) @ t=0.22
0.1091427637447655
% es.EZ (V/m) @ t=0.22
1.3839822216949655
% es.tEX (V/m) @ t=0.22
0.450508712904405
% es.tEY (V/m) @ t=0.22
0
% es.tEZ (V/m) @ t=0.22
1.383982221694966
% es.Ex (V/m) @ t=0.22
0.45050871290440364
% es.Ey (V/m) @ t=0.22
0.1091427637447655
% es.Ez (V/m) @ t=0.22
1.3839822216949655
% es.tEx (V/m) @ t=0.22
0.450508712904405
% es.tEy (V/m) @ t=0.22
0
% es.tEz (V/m) @ t=0.22
1.383982221694966
% V (V) @ t=0.22
0.006826377784258446
% es.normE (V/m) @ t=0.24
1.472919855446317
% es.EX (V/m) @ t=0.24
0.4546335154391725
% es.EY (V/m) @ t=0.24
0.1101420610406324
% es.EZ (V/m) @ t=0.24
1.396653789924744
% es.tEX (V/m) @ t=0.24
0.45463351543917696
% es.tEY (V/m) @ t=0.24
0
% es.tEZ (V/m) @ t=0.24
1.3966537899247484
% es.Ex (V/m) @ t=0.24
0.4546335154391725
% es.Ey (V/m) @ t=0.24
0.1101420610406324
% es.Ez (V/m) @ t=0.24
1.396653789924744
% es.tEx (V/m) @ t=0.24
0.45463351543917696
% es.tEy (V/m) @ t=0.24
0
% es.tEz (V/m) @ t=0.24
1.3966537899247484
% V (V) @ t=0.24
0.006888879152373301
% es.normE (V/m) @ t=0.26
1.4862833711697696
% es.EX (V/m) @ t=0.26
0.45875831797393973
% es.EY (V/m) @ t=0.26
0.11114135833648642
% es.EZ (V/m) @ t=0.26
1.4093253581545038
% es.tEX (V/m) @ t=0.26
0.4587583179739454
% es.tEY (V/m) @ t=0.26
0
% es.tEZ (V/m) @ t=0.26
1.409325358154513
% es.Ex (V/m) @ t=0.26
0.45875831797393973
% es.Ey (V/m) @ t=0.26
0.11114135833648642
% es.Ez (V/m) @ t=0.26
1.4093253581545038
% es.tEx (V/m) @ t=0.26
0.4587583179739454
% es.tEy (V/m) @ t=0.26
0
% es.tEz (V/m) @ t=0.26
1.409325358154513
% V (V) @ t=0.26
0.006951380520488157
% es.normE (V/m) @ t=0.28
1.5000306422198768
% es.EX (V/m) @ t=0.28
0.4630015471993415
% es.EY (V/m) @ t=0.28
0.11216935698120589
% es.EZ (V/m) @ t=0.28
1.4223608186683112
% es.tEX (V/m) @ t=0.28
0.4630015471993474
% es.tEY (V/m) @ t=0.28
0
% es.tEZ (V/m) @ t=0.28
1.4223608186683148
% es.Ex (V/m) @ t=0.28
0.4630015471993415
% es.Ey (V/m) @ t=0.28
0.11216935698120589
% es.Ez (V/m) @ t=0.28
1.4223608186683112
% es.tEx (V/m) @ t=0.28
0.4630015471993474
% es.tEy (V/m) @ t=0.28
0
% es.tEz (V/m) @ t=0.28
1.4223608186683148
% V (V) @ t=0.28
0.007015679012448673
% es.normE (V/m) @ t=0.3
1.5149360105831158
% es.EX (V/m) @ t=0.3
0.4676021646424626
% es.EY (V/m) @ t=0.3
0.11328397059299156
% es.EZ (V/m) @ t=0.3
1.4364944337799885
% es.tEX (V/m) @ t=0.3
0.4676021646424644
% es.tEY (V/m) @ t=0.3
0
% es.tEZ (V/m) @ t=0.3
1.436494433779984
% es.Ex (V/m) @ t=0.3
0.4676021646424626
% es.Ey (V/m) @ t=0.3
0.11328397059299156
% es.Ez (V/m) @ t=0.3
1.4364944337799885
% es.tEx (V/m) @ t=0.3
0.4676021646424644
% es.tEy (V/m) @ t=0.3
0
% es.tEz (V/m) @ t=0.3
1.436494433779984
% V (V) @ t=0.3
0.007085400867037933
% es.normE (V/m) @ t=0.32
1.5298413789463472
% es.EX (V/m) @ t=0.32
0.47220278208558353
% es.EY (V/m) @ t=0.32
0.11439858420479154
% es.EZ (V/m) @ t=0.32
1.4506280488916499
% es.tEX (V/m) @ t=0.32
0.4722027820855814
% es.tEY (V/m) @ t=0.32
0
% es.tEZ (V/m) @ t=0.32
1.4506280488916605
% es.Ex (V/m) @ t=0.32
0.47220278208558353
% es.Ey (V/m) @ t=0.32
0.11439858420479154
% es.Ez (V/m) @ t=0.32
1.4506280488916499
% es.tEx (V/m) @ t=0.32
0.4722027820855814
% es.tEy (V/m) @ t=0.32
0
% es.tEz (V/m) @ t=0.32
1.4506280488916605
% V (V) @ t=0.32
0.007155122721627194
% es.normE (V/m) @ t=0.34
1.5447467473096048
% es.EX (V/m) @ t=0.34
0.476803399528705
% es.EY (V/m) @ t=0.34
0.11551319781656444
% es.EZ (V/m) @ t=0.34
1.4647616640033343
% es.tEX (V/m) @ t=0.34
0.47680339952870554
% es.tEY (V/m) @ t=0.34
0
% es.tEZ (V/m) @ t=0.34
1.464761664003337
% es.Ex (V/m) @ t=0.34
0.476803399528705
% es.Ey (V/m) @ t=0.34
0.11551319781656444
% es.Ez (V/m) @ t=0.34
1.4647616640033343
% es.tEx (V/m) @ t=0.34
0.47680339952870554
% es.tEy (V/m) @ t=0.34
0
% es.tEz (V/m) @ t=0.34
1.464761664003337
% V (V) @ t=0.34
0.007224844576216452
% es.normE (V/m) @ t=0.36
1.5596521156728689
% es.EX (V/m) @ t=0.36
0.48140401697182433
% es.EY (V/m) @ t=0.36
0.11662781142836431
% es.EZ (V/m) @ t=0.36
1.4788952791150174
% es.tEX (V/m) @ t=0.36
0.48140401697182966
% es.tEY (V/m) @ t=0.36
0
% es.tEZ (V/m) @ t=0.36
1.4788952791150258
% es.Ex (V/m) @ t=0.36
0.48140401697182433
% es.Ey (V/m) @ t=0.36
0.11662781142836431
% es.Ez (V/m) @ t=0.36
1.4788952791150174
% es.tEx (V/m) @ t=0.36
0.48140401697182966
% es.tEy (V/m) @ t=0.36
0
% es.tEz (V/m) @ t=0.36
1.4788952791150258
% V (V) @ t=0.36
0.007294566430805711
% es.normE (V/m) @ t=0.38
1.5745574840361354
% es.EX (V/m) @ t=0.38
0.4860046344149528
% es.EY (V/m) @ t=0.38
0.11774242504016219
% es.EZ (V/m) @ t=0.38
1.4930288942266938
% es.tEX (V/m) @ t=0.38
0.4860046344149538
% es.tEY (V/m) @ t=0.38
0
% es.tEZ (V/m) @ t=0.38
1.493028894226697
% es.Ex (V/m) @ t=0.38
0.4860046344149528
% es.Ey (V/m) @ t=0.38
0.11774242504016219
% es.Ez (V/m) @ t=0.38
1.4930288942266938
% es.tEx (V/m) @ t=0.38
0.4860046344149538
% es.tEy (V/m) @ t=0.38
0
% es.tEz (V/m) @ t=0.38
1.493028894226697
% V (V) @ t=0.38
0.007364288285394971
% es.normE (V/m) @ t=0.4
1.589462852399409
% es.EX (V/m) @ t=0.4
0.4906052518580747
% es.EY (V/m) @ t=0.4
0.11885703865196395
% es.EZ (V/m) @ t=0.4
1.5071625093383734
% es.tEX (V/m) @ t=0.4
0.4906052518580708
% es.tEY (V/m) @ t=0.4
0
% es.tEZ (V/m) @ t=0.4
1.5071625093383787
% es.Ex (V/m) @ t=0.4
0.4906052518580747
% es.Ey (V/m) @ t=0.4
0.11885703865196395
% es.Ez (V/m) @ t=0.4
1.5071625093383734
% es.tEx (V/m) @ t=0.4
0.4906052518580708
% es.tEy (V/m) @ t=0.4
0
% es.tEz (V/m) @ t=0.4
1.5071625093383787
% V (V) @ t=0.4
0.00743401013998423
% es.normE (V/m) @ t=0.42
1.6043682207626828
% es.EX (V/m) @ t=0.42
0.49520586930119403
% es.EY (V/m) @ t=0.42
0.11997165226373885
% es.EZ (V/m) @ t=0.42
1.5212961244500502
% es.tEX (V/m) @ t=0.42
0.4952058693011949
% es.tEY (V/m) @ t=0.42
0
% es.tEZ (V/m) @ t=0.42
1.5212961244500498
% es.Ex (V/m) @ t=0.42
0.49520586930119403
% es.Ey (V/m) @ t=0.42
0.11997165226373885
% es.Ez (V/m) @ t=0.42
1.5212961244500502
% es.tEx (V/m) @ t=0.42
0.4952058693011949
% es.tEy (V/m) @ t=0.42
0
% es.tEz (V/m) @ t=0.42
1.5212961244500498
% V (V) @ t=0.42
0.00750373199457349
% es.normE (V/m) @ t=0.44
1.6192735891259464
% es.EX (V/m) @ t=0.44
0.4998064867443113
% es.EY (V/m) @ t=0.44
0.12108626587554594
% es.EZ (V/m) @ t=0.44
1.5354297395617085
% es.tEX (V/m) @ t=0.44
0.49980648674431194
% es.tEY (V/m) @ t=0.44
0
% es.tEZ (V/m) @ t=0.44
1.5354297395617174
% es.Ex (V/m) @ t=0.44
0.4998064867443113
% es.Ey (V/m) @ t=0.44
0.12108626587554594
% es.Ez (V/m) @ t=0.44
1.5354297395617085
% es.tEx (V/m) @ t=0.44
0.49980648674431194
% es.tEy (V/m) @ t=0.44
0
% es.tEz (V/m) @ t=0.44
1.5354297395617174
% V (V) @ t=0.44
0.00757345384916275
% es.normE (V/m) @ t=0.46
1.6341789574892416
% es.EX (V/m) @ t=0.46
0.5044071041874388
% es.EY (V/m) @ t=0.46
0.12220087948733693
% es.EZ (V/m) @ t=0.46
1.549563354673392
% es.tEX (V/m) @ t=0.46
0.5044071041874432
% es.tEY (V/m) @ t=0.46
0
% es.tEZ (V/m) @ t=0.46
1.5495633546733956
% es.Ex (V/m) @ t=0.46
0.5044071041874388
% es.Ey (V/m) @ t=0.46
0.12220087948733693
% es.Ez (V/m) @ t=0.46
1.549563354673392
% es.tEx (V/m) @ t=0.46
0.5044071041874432
% es.tEy (V/m) @ t=0.46
0
% es.tEz (V/m) @ t=0.46
1.5495633546733956
% V (V) @ t=0.46
0.00764317570375201
% es.normE (V/m) @ t=0.48
1.649084325852527
% es.EX (V/m) @ t=0.48
0.5090077216305615
% es.EY (V/m) @ t=0.48
0.12331549309912393
% es.EZ (V/m) @ t=0.48
1.5636969697850622
% es.tEX (V/m) @ t=0.48
0.5090077216305602
% es.tEY (V/m) @ t=0.48
0
% es.tEZ (V/m) @ t=0.48
1.5636969697850702
% es.Ex (V/m) @ t=0.48
0.5090077216305615
% es.Ey (V/m) @ t=0.48
0.12331549309912393
% es.Ez (V/m) @ t=0.48
1.5636969697850622
% es.tEx (V/m) @ t=0.48
0.5090077216305602
% es.tEy (V/m) @ t=0.48
0
% es.tEz (V/m) @ t=0.48
1.5636969697850702
% V (V) @ t=0.48
0.007712897558341268
% es.normE (V/m) @ t=0.5
1.6639896942158465
% es.EX (V/m) @ t=0.5
0.5136083390736911
% es.EY (V/m) @ t=0.5
0.12443010671092747
% es.EZ (V/m) @ t=0.5
1.577830584896759
% es.tEX (V/m) @ t=0.5
0.5136083390736914
% es.tEY (V/m) @ t=0.5
0
% es.tEZ (V/m) @ t=0.5
1.5778305848967555
% es.Ex (V/m) @ t=0.5
0.5136083390736911
% es.Ey (V/m) @ t=0.5
0.12443010671092747
% es.Ez (V/m) @ t=0.5
1.577830584896759
% es.tEx (V/m) @ t=0.5
0.5136083390736914
% es.tEy (V/m) @ t=0.5
0
% es.tEz (V/m) @ t=0.5
1.5778305848967555
% V (V) @ t=0.5
0.0077826194129305285
% es.normE (V/m) @ t=0.52
1.6788950625791212
% es.EX (V/m) @ t=0.52
0.5182089565168018
% es.EY (V/m) @ t=0.52
0.12554472032272013
% es.EZ (V/m) @ t=0.52
1.5919642000084107
% es.tEX (V/m) @ t=0.52
0.5182089565168013
% es.tEY (V/m) @ t=0.52
0
% es.tEZ (V/m) @ t=0.52
1.5919642000084142
% es.Ex (V/m) @ t=0.52
0.5182089565168018
% es.Ey (V/m) @ t=0.52
0.12554472032272013
% es.Ez (V/m) @ t=0.52
1.5919642000084107
% es.tEx (V/m) @ t=0.52
0.5182089565168013
% es.tEy (V/m) @ t=0.52
0
% es.tEz (V/m) @ t=0.52
1.5919642000084142
% V (V) @ t=0.52
0.007852341267519786
% es.normE (V/m) @ t=0.54
1.6938004309424486
% es.EX (V/m) @ t=0.54
0.5228095739599358
% es.EY (V/m) @ t=0.54
0.12665933393451112
% es.EZ (V/m) @ t=0.54
1.6060978151201049
% es.tEX (V/m) @ t=0.54
0.5228095739599397
% es.tEY (V/m) @ t=0.54
0
% es.tEZ (V/m) @ t=0.54
1.6060978151201084
% es.Ex (V/m) @ t=0.54
0.5228095739599358
% es.Ey (V/m) @ t=0.54
0.12665933393451112
% es.Ez (V/m) @ t=0.54
1.6060978151201049
% es.tEx (V/m) @ t=0.54
0.5228095739599397
% es.tEy (V/m) @ t=0.54
0
% es.tEz (V/m) @ t=0.54
1.6060978151201084
% V (V) @ t=0.54
0.007922063122109047
% es.normE (V/m) @ t=0.56
1.7095949231472862
% es.EX (V/m) @ t=0.56
0.5276845384842719
% es.EY (V/m) @ t=0.56
0.1278404541203838
% es.EZ (V/m) @ t=0.56
1.6210745444283674
% es.tEX (V/m) @ t=0.56
0.5276845384842659
% es.tEY (V/m) @ t=0.56
0
% es.tEZ (V/m) @ t=0.56
1.6210745444283674
% es.Ex (V/m) @ t=0.56
0.5276845384842719
% es.Ey (V/m) @ t=0.56
0.1278404541203838
% es.Ez (V/m) @ t=0.56
1.6210745444283674
% es.tEx (V/m) @ t=0.56
0.5276845384842659
% es.tEy (V/m) @ t=0.56
0
% es.tEz (V/m) @ t=0.56
1.6210745444283674
% V (V) @ t=0.56
0.007995952235405493
% es.normE (V/m) @ t=0.58
1.7262510559027016
% es.EX (V/m) @ t=0.58
0.5328253698755947
% es.EY (V/m) @ t=0.58
0.12908602512676448
% es.EZ (V/m) @ t=0.58
1.6368683268248296
% es.tEX (V/m) @ t=0.58
0.5328253698756029
% es.tEY (V/m) @ t=0.58
0
% es.tEZ (V/m) @ t=0.58
1.6368683268248319
% es.Ex (V/m) @ t=0.58
0.5328253698755947
% es.Ey (V/m) @ t=0.58
0.12908602512676448
% es.Ez (V/m) @ t=0.58
1.6368683268248296
% es.tEx (V/m) @ t=0.58
0.5328253698756029
% es.tEy (V/m) @ t=0.58
0
% es.tEz (V/m) @ t=0.58
1.6368683268248319
% V (V) @ t=0.58
0.008073879795225315
% es.normE (V/m) @ t=0.6
1.7429071886581613
% es.EX (V/m) @ t=0.6
0.5379662012669104
% es.EY (V/m) @ t=0.6
0.13033159613315126
% es.EZ (V/m) @ t=0.6
1.6526621092212945
% es.tEX (V/m) @ t=0.6
0.5379662012669115
% es.tEY (V/m) @ t=0.6
0
% es.tEZ (V/m) @ t=0.6
1.6526621092212999
% es.Ex (V/m) @ t=0.6
0.5379662012669104
% es.Ey (V/m) @ t=0.6
0.13033159613315126
% es.Ez (V/m) @ t=0.6
1.6526621092212945
% es.tEx (V/m) @ t=0.6
0.5379662012669115
% es.tEy (V/m) @ t=0.6
0
% es.tEz (V/m) @ t=0.6
1.6526621092212999
% V (V) @ t=0.6
0.008151807355045138
% es.normE (V/m) @ t=0.62
1.7595633214136674
% es.EX (V/m) @ t=0.62
0.5431070326582398
% es.EY (V/m) @ t=0.62
0.1315771671395144
% es.EZ (V/m) @ t=0.62
1.6684558916177603
% es.tEX (V/m) @ t=0.62
0.5431070326582343
% es.tEY (V/m) @ t=0.62
0
% es.tEZ (V/m) @ t=0.62
1.6684558916177643
% es.Ex (V/m) @ t=0.62
0.5431070326582398
% es.Ey (V/m) @ t=0.62
0.1315771671395144
% es.Ez (V/m) @ t=0.62
1.6684558916177603
% es.tEx (V/m) @ t=0.62
0.5431070326582343
% es.tEy (V/m) @ t=0.62
0
% es.tEz (V/m) @ t=0.62
1.6684558916177643
% V (V) @ t=0.62
0.008229734914864962
% es.normE (V/m) @ t=0.64
1.776219454169222
% es.EX (V/m) @ t=0.64
0.548247864049563
% es.EY (V/m) @ t=0.64
0.13282273814586565
% es.EZ (V/m) @ t=0.64
1.6842496740142363
% es.tEX (V/m) @ t=0.64
0.5482478640495643
% es.tEY (V/m) @ t=0.64
0
% es.tEZ (V/m) @ t=0.64
1.6842496740142359
% es.Ex (V/m) @ t=0.64
0.548247864049563
% es.Ey (V/m) @ t=0.64
0.13282273814586565
% es.Ez (V/m) @ t=0.64
1.6842496740142363
% es.tEx (V/m) @ t=0.64
0.5482478640495643
% es.tEy (V/m) @ t=0.64
0
% es.tEz (V/m) @ t=0.64
1.6842496740142359
% V (V) @ t=0.64
0.008307662474684783
% es.normE (V/m) @ t=0.66
1.79287558692481
% es.EX (V/m) @ t=0.66
0.5533886954408961
% es.EY (V/m) @ t=0.66
0.13406830915225387
% es.EZ (V/m) @ t=0.66
1.7000434564106985
% es.tEX (V/m) @ t=0.66
0.5533886954408942
% es.tEY (V/m) @ t=0.66
0
% es.tEZ (V/m) @ t=0.66
1.7000434564107003
% es.Ex (V/m) @ t=0.66
0.5533886954408961
% es.Ey (V/m) @ t=0.66
0.13406830915225387
% es.Ez (V/m) @ t=0.66
1.7000434564106985
% es.tEx (V/m) @ t=0.66
0.5533886954408942
% es.tEy (V/m) @ t=0.66
0
% es.tEz (V/m) @ t=0.66
1.7000434564107003
% V (V) @ t=0.66
0.008385590034504606
% es.normE (V/m) @ t=0.68
1.809531719680447
% es.EX (V/m) @ t=0.68
0.558529526832223
% es.EY (V/m) @ t=0.68
0.13531388015862467
% es.EZ (V/m) @ t=0.68
1.7158372388071745
% es.tEX (V/m) @ t=0.68
0.5585295268322241
% es.tEY (V/m) @ t=0.68
0
% es.tEZ (V/m) @ t=0.68
1.715837238807179
% es.Ex (V/m) @ t=0.68
0.558529526832223
% es.Ey (V/m) @ t=0.68
0.13531388015862467
% es.Ez (V/m) @ t=0.68
1.7158372388071745
% es.tEx (V/m) @ t=0.68
0.5585295268322241
% es.tEy (V/m) @ t=0.68
0
% es.tEz (V/m) @ t=0.68
1.715837238807179
% V (V) @ t=0.68
0.008463517594324427
% es.normE (V/m) @ t=0.7
1.826187852436088
% es.EX (V/m) @ t=0.7
0.5636703582235275
% es.EY (V/m) @ t=0.7
0.13655945116500268
% es.EZ (V/m) @ t=0.7
1.7316310212036212
% es.tEX (V/m) @ t=0.7
0.5636703582235327
% es.tEY (V/m) @ t=0.7
0
% es.tEZ (V/m) @ t=0.7
1.7316310212036274
% es.Ex (V/m) @ t=0.7
0.5636703582235275
% es.Ey (V/m) @ t=0.7
0.13655945116500268
% es.Ez (V/m) @ t=0.7
1.7316310212036212
% es.tEx (V/m) @ t=0.7
0.5636703582235327
% es.tEy (V/m) @ t=0.7
0
% es.tEz (V/m) @ t=0.7
1.7316310212036274
% V (V) @ t=0.7
0.008541445154144251
% es.normE (V/m) @ t=0.72
1.842843985191797
% es.EX (V/m) @ t=0.72
0.5688111896148527
% es.EY (V/m) @ t=0.72
0.13780502217137647
% es.EZ (V/m) @ t=0.72
1.7474248036000941
% es.tEX (V/m) @ t=0.72
0.5688111896148556
% es.tEY (V/m) @ t=0.72
0
% es.tEZ (V/m) @ t=0.72
1.7474248036000972
% es.Ex (V/m) @ t=0.72
0.5688111896148527
% es.Ey (V/m) @ t=0.72
0.13780502217137647
% es.Ez (V/m) @ t=0.72
1.7474248036000941
% es.tEx (V/m) @ t=0.72
0.5688111896148556
% es.tEy (V/m) @ t=0.72
0
% es.tEz (V/m) @ t=0.72
1.7474248036000972
% V (V) @ t=0.72
0.008619372713964074
% es.normE (V/m) @ t=0.74
1.8595001179475448
% es.EX (V/m) @ t=0.74
0.5739520210061755
% es.EY (V/m) @ t=0.74
0.13905059317774726
% es.EZ (V/m) @ t=0.74
1.7632185859965706
% es.tEX (V/m) @ t=0.74
0.5739520210061713
% es.tEY (V/m) @ t=0.74
0
% es.tEZ (V/m) @ t=0.74
1.763218585996567
% es.Ex (V/m) @ t=0.74
0.5739520210061755
% es.Ey (V/m) @ t=0.74
0.13905059317774726
% es.Ez (V/m) @ t=0.74
1.7632185859965706
% es.tEx (V/m) @ t=0.74
0.5739520210061713
% es.tEy (V/m) @ t=0.74
0
% es.tEz (V/m) @ t=0.74
1.763218585996567
% V (V) @ t=0.74
0.008697300273783896
% es.normE (V/m) @ t=0.76
1.8761562507033112
% es.EX (V/m) @ t=0.76
0.5790928523975005
% es.EY (V/m) @ t=0.76
0.14029616418411628
% es.EZ (V/m) @ t=0.76
1.7790123683930288
% es.tEX (V/m) @ t=0.76
0.5790928523975012
% es.tEY (V/m) @ t=0.76
0
% es.tEZ (V/m) @ t=0.76
1.7790123683930386
% es.Ex (V/m) @ t=0.76
0.5790928523975005
% es.Ey (V/m) @ t=0.76
0.14029616418411628
% es.Ez (V/m) @ t=0.76
1.7790123683930288
% es.tEx (V/m) @ t=0.76
0.5790928523975012
% es.tEy (V/m) @ t=0.76
0
% es.tEz (V/m) @ t=0.76
1.7790123683930386
% V (V) @ t=0.76
0.008775227833603719
% es.normE (V/m) @ t=0.78
1.8928123834591282
% es.EX (V/m) @ t=0.78
0.5842336837888317
% es.EY (V/m) @ t=0.78
0.1415417351904974
% es.EZ (V/m) @ t=0.78
1.7948061507895012
% es.tEX (V/m) @ t=0.78
0.5842336837888382
% es.tEY (V/m) @ t=0.78
0
% es.tEZ (V/m) @ t=0.78
1.7948061507895101
% es.Ex (V/m) @ t=0.78
0.5842336837888317
% es.Ey (V/m) @ t=0.78
0.1415417351904974
% es.Ez (V/m) @ t=0.78
1.7948061507895012
% es.tEx (V/m) @ t=0.78
0.5842336837888382
% es.tEy (V/m) @ t=0.78
0
% es.tEz (V/m) @ t=0.78
1.7948061507895101
% V (V) @ t=0.78
0.008853155393423542
% es.normE (V/m) @ t=0.8
1.9094685162149638
% es.EX (V/m) @ t=0.8
0.5893745151801426
% es.EY (V/m) @ t=0.8
0.14278730619685032
% es.EZ (V/m) @ t=0.8
1.810599933185967
% es.tEX (V/m) @ t=0.8
0.5893745151801397
% es.tEY (V/m) @ t=0.8
0
% es.tEZ (V/m) @ t=0.8
1.8105999331859657
% es.Ex (V/m) @ t=0.8
0.5893745151801426
% es.Ey (V/m) @ t=0.8
0.14278730619685032
% es.Ez (V/m) @ t=0.8
1.810599933185967
% es.tEx (V/m) @ t=0.8
0.5893745151801397
% es.tEy (V/m) @ t=0.8
0
% es.tEz (V/m) @ t=0.8
1.8105999331859657
% V (V) @ t=0.8
0.008931082953243363
% es.normE (V/m) @ t=0.82
1.9261246489708292
% es.EX (V/m) @ t=0.82
0.5945153465714591
% es.EY (V/m) @ t=0.82
0.14403287720324776
% es.EZ (V/m) @ t=0.82
1.8263937155824248
% es.tEX (V/m) @ t=0.82
0.5945153465714625
% es.tEY (V/m) @ t=0.82
0
% es.tEZ (V/m) @ t=0.82
1.8263937155824355
% es.Ex (V/m) @ t=0.82
0.5945153465714591
% es.Ey (V/m) @ t=0.82
0.14403287720324776
% es.Ez (V/m) @ t=0.82
1.8263937155824248
% es.tEx (V/m) @ t=0.82
0.5945153465714625
% es.tEy (V/m) @ t=0.82
0
% es.tEz (V/m) @ t=0.82
1.8263937155824355
% V (V) @ t=0.82
0.009009010513063187
% es.normE (V/m) @ t=0.84
1.9443015445972218
% es.EX (V/m) @ t=0.84
0.6001260550296483
% es.EY (V/m) @ t=0.84
0.14539206702698515
% es.EZ (V/m) @ t=0.84
1.8436293703098383
% es.tEX (V/m) @ t=0.84
0.6001260550296479
% es.tEY (V/m) @ t=0.84
0
% es.tEZ (V/m) @ t=0.84
1.8436293703098503
% es.Ex (V/m) @ t=0.84
0.6001260550296483
% es.Ey (V/m) @ t=0.84
0.14539206702698515
% es.Ez (V/m) @ t=0.84
1.8436293703098383
% es.tEx (V/m) @ t=0.84
0.6001260550296479
% es.tEy (V/m) @ t=0.84
0
% es.tEz (V/m) @ t=0.84
1.8436293703098503
% V (V) @ t=0.84
0.009094004735000693
% es.normE (V/m) @ t=0.86
1.9629409218771232
% es.EX (V/m) @ t=0.86
0.6058796585617381
% es.EY (V/m) @ t=0.86
0.14678580965284393
% es.EZ (V/m) @ t=0.86
1.8613035151612491
% es.tEX (V/m) @ t=0.86
0.6058796585617472
% es.tEY (V/m) @ t=0.86
0
% es.tEZ (V/m) @ t=0.86
1.8613035151612625
% es.Ex (V/m) @ t=0.86
0.6058796585617381
% es.Ey (V/m) @ t=0.86
0.14678580965284393
% es.Ez (V/m) @ t=0.86
1.8613035151612491
% es.tEx (V/m) @ t=0.86
0.6058796585617472
% es.tEy (V/m) @ t=0.86
0
% es.tEz (V/m) @ t=0.86
1.8613035151612625
% V (V) @ t=0.86
0.009181148010971571
% es.normE (V/m) @ t=0.88
1.9815802991571383
% es.EX (V/m) @ t=0.88
0.6116332620938446
% es.EY (V/m) @ t=0.88
0.14817955227871182
% es.EZ (V/m) @ t=0.88
1.8789776600126813
% es.tEX (V/m) @ t=0.88
0.6116332620938465
% es.tEY (V/m) @ t=0.88
0
% es.tEZ (V/m) @ t=0.88
1.8789776600126817
% es.Ex (V/m) @ t=0.88
0.6116332620938446
% es.Ey (V/m) @ t=0.88
0.14817955227871182
% es.Ez (V/m) @ t=0.88
1.8789776600126813
% es.tEx (V/m) @ t=0.88
0.6116332620938465
% es.tEy (V/m) @ t=0.88
0
% es.tEz (V/m) @ t=0.88
1.8789776600126817
% V (V) @ t=0.88
0.009268291286942452
% es.normE (V/m) @ t=0.9
2.000219676437231
% es.EX (V/m) @ t=0.9
0.6173868656259476
% es.EY (V/m) @ t=0.9
0.14957329490455085
% es.EZ (V/m) @ t=0.9
1.8966518048641072
% es.tEX (V/m) @ t=0.9
0.6173868656259529
% es.tEY (V/m) @ t=0.9
0
% es.tEZ (V/m) @ t=0.9
1.8966518048641134
% es.Ex (V/m) @ t=0.9
0.6173868656259476
% es.Ey (V/m) @ t=0.9
0.14957329490455085
% es.Ez (V/m) @ t=0.9
1.8966518048641072
% es.tEx (V/m) @ t=0.9
0.6173868656259529
% es.tEy (V/m) @ t=0.9
0
% es.tEz (V/m) @ t=0.9
1.8966518048641134
% V (V) @ t=0.9
0.009355434562913328
% es.normE (V/m) @ t=0.92
2.018859053717415
% es.EX (V/m) @ t=0.92
0.623140469158045
% es.EY (V/m) @ t=0.92
0.15096703753042717
% es.EZ (V/m) @ t=0.92
1.9143259497155403
% es.tEX (V/m) @ t=0.92
0.6231404691580522
% es.tEY (V/m) @ t=0.92
0
% es.tEZ (V/m) @ t=0.92
1.9143259497155451
% es.Ex (V/m) @ t=0.92
0.623140469158045
% es.Ey (V/m) @ t=0.92
0.15096703753042717
% es.Ez (V/m) @ t=0.92
1.9143259497155403
% es.tEx (V/m) @ t=0.92
0.6231404691580522
% es.tEy (V/m) @ t=0.92
0
% es.tEz (V/m) @ t=0.92
1.9143259497155451
% V (V) @ t=0.92
0.00944257783888421
% es.normE (V/m) @ t=0.94
2.037498430997664
% es.EX (V/m) @ t=0.94
0.6288940726901546
% es.EY (V/m) @ t=0.94
0.15236078015628762
% es.EZ (V/m) @ t=0.94
1.9320000945669533
% es.tEX (V/m) @ t=0.94
0.6288940726901515
% es.tEY (V/m) @ t=0.94
0
% es.tEZ (V/m) @ t=0.94
1.932000094566952
% es.Ex (V/m) @ t=0.94
0.6288940726901546
% es.Ey (V/m) @ t=0.94
0.15236078015628762
% es.Ez (V/m) @ t=0.94
1.9320000945669533
% es.tEx (V/m) @ t=0.94
0.6288940726901515
% es.tEy (V/m) @ t=0.94
0
% es.tEz (V/m) @ t=0.94
1.932000094566952
% V (V) @ t=0.94
0.009529721114855087
% es.normE (V/m) @ t=0.96
2.056137808277996
% es.EX (V/m) @ t=0.96
0.6346476762222498
% es.EY (V/m) @ t=0.96
0.1537545227821504
% es.EZ (V/m) @ t=0.96
1.9496742394183753
% es.tEX (V/m) @ t=0.96
0.6346476762222437
% es.tEY (V/m) @ t=0.96
0
% es.tEZ (V/m) @ t=0.96
1.9496742394183766
% es.Ex (V/m) @ t=0.96
0.6346476762222498
% es.Ey (V/m) @ t=0.96
0.1537545227821504
% es.Ez (V/m) @ t=0.96
1.9496742394183753
% es.tEx (V/m) @ t=0.96
0.6346476762222437
% es.tEy (V/m) @ t=0.96
0
% es.tEz (V/m) @ t=0.96
1.9496742394183766
% V (V) @ t=0.96
0.009616864390825965
% es.normE (V/m) @ t=0.98
2.074777185558411
% es.EX (V/m) @ t=0.98
0.6404012797543421
% es.EY (V/m) @ t=0.98
0.15514826540800541
% es.EZ (V/m) @ t=0.98
1.9673483842698043
% es.tEX (V/m) @ t=0.98
0.640401279754343
% es.tEY (V/m) @ t=0.98
0
% es.tEZ (V/m) @ t=0.98
1.967348384269794
% es.Ex (V/m) @ t=0.98
0.6404012797543421
% es.Ey (V/m) @ t=0.98
0.15514826540800541
% es.Ez (V/m) @ t=0.98
1.9673483842698043
% es.tEx (V/m) @ t=0.98
0.640401279754343
% es.tEy (V/m) @ t=0.98
0
% es.tEz (V/m) @ t=0.98
1.967348384269794
% V (V) @ t=0.98
0.009704007666796844
% es.normE (V/m) @ t=1
2.093416562838888
% es.EX (V/m) @ t=1
0.6461548832864572
% es.EY (V/m) @ t=1
0.1565420080338693
% es.EZ (V/m) @ t=1
1.985022529121212
% es.tEX (V/m) @ t=1
0.6461548832864565
% es.tEY (V/m) @ t=1
0
% es.tEZ (V/m) @ t=1
1.985022529121208
% es.Ex (V/m) @ t=1
0.6461548832864572
% es.Ey (V/m) @ t=1
0.1565420080338693
% es.Ez (V/m) @ t=1
1.985022529121212
% es.tEx (V/m) @ t=1
0.6461548832864565
% es.tEy (V/m) @ t=1
0
% es.tEz (V/m) @ t=1
1.985022529121208
% V (V) @ t=1
0.009791150942767723
% es.normE (V/m) @ t=1.02
2.1120559401194594
% es.EX (V/m) @ t=1.02
0.6519084868185597
% es.EY (V/m) @ t=1.02
0.1579357506597182
% es.EZ (V/m) @ t=1.02
2.0026966739726473
% es.tEX (V/m) @ t=1.02
0.651908486818563
% es.tEY (V/m) @ t=1.02
0
% es.tEZ (V/m) @ t=1.02
2.0026966739726557
% es.Ex (V/m) @ t=1.02
0.6519084868185597
% es.Ey (V/m) @ t=1.02
0.1579357506597182
% es.Ez (V/m) @ t=1.02
2.0026966739726473
% es.tEx (V/m) @ t=1.02
0.651908486818563
% es.tEy (V/m) @ t=1.02
0
% es.tEz (V/m) @ t=1.02
2.0026966739726557
% V (V) @ t=1.02
0.009878294218738603
% es.normE (V/m) @ t=1.04
2.1306953174000833
% es.EX (V/m) @ t=1.04
0.6576620903506519
% es.EY (V/m) @ t=1.04
0.15932949328557156
% es.EZ (V/m) @ t=1.04
2.0203708188240665
% es.tEX (V/m) @ t=1.04
0.657662090350648
% es.tEY (V/m) @ t=1.04
0
% es.tEZ (V/m) @ t=1.04
2.0203708188240714
% es.Ex (V/m) @ t=1.04
0.6576620903506519
% es.Ey (V/m) @ t=1.04
0.15932949328557156