% Model:              1 neuron.mph
% Version:            COMSOL 6.1.0.252
% Date:               Mar 18 2023, 12:13
% Dimension:          0
% Nodes:              14017
% Expressions:        14017
% Description:        Electric field norm, Electric field, X component, Electric field, Y component, Electric field, Z component, Tangential electric field, X component, Tangential electric field, Y component, Tangential electric field, Z component, Electric field, x component, Electric field, y component, Electric field, z component, Tangential electric field, x component, Tangential electric field, y component, Tangential electric field, z component, Electric potential
% Length unit:        mm
% x
1.66
% y
12.200000000000001
% z
1.66
% es.normE (V/m) @ t=0
20.517191866159333
% es.EX (V/m) @ t=0
-9.689400892820458
% es.EY (V/m) @ t=0
7.7738966284842625
% es.EZ (V/m) @ t=0
9.318996485158227
% es.tEX (V/m) @ t=0
-9.689400892820466
% es.tEY (V/m) @ t=0
0
% es.tEZ (V/m) @ t=0
9.318996485158237
% es.Ex (V/m) @ t=0
-9.689400892820458
% es.Ey (V/m) @ t=0
7.7738966284842625
% es.Ez (V/m) @ t=0
9.318996485158227
% es.tEx (V/m) @ t=0
-9.689400892820466
% es.tEy (V/m) @ t=0
0
% es.tEz (V/m) @ t=0
9.318996485158237
% V (V) @ t=0
0.006439231498534278
% es.normE (V/m) @ t=0.02
17.720920128978392
% es.EX (V/m) @ t=0.02
-8.368840341540547
% es.EY (V/m) @ t=0.02
6.714398487761333
% es.EZ (V/m) @ t=0.02
8.048917717044766
% es.tEX (V/m) @ t=0.02
-8.368840341540533
% es.tEY (V/m) @ t=0.02
0
% es.tEZ (V/m) @ t=0.02
8.048917717044759
% es.Ex (V/m) @ t=0.02
-8.368840341540547
% es.Ey (V/m) @ t=0.02
6.714398487761333
% es.Ez (V/m) @ t=0.02
8.048917717044766
% es.tEx (V/m) @ t=0.02
-8.368840341540533
% es.tEy (V/m) @ t=0.02
0
% es.tEz (V/m) @ t=0.02
8.048917717044759
% V (V) @ t=0.02
0.0055616337380431915
% es.normE (V/m) @ t=0.04
17.88392366855847
% es.EX (V/m) @ t=0.04
-8.445819977453127
% es.EY (V/m) @ t=0.04
6.776159986427178
% es.EZ (V/m) @ t=0.04
8.122954653017153
% es.tEX (V/m) @ t=0.04
-8.44581997745313
% es.tEY (V/m) @ t=0.04
0
% es.tEZ (V/m) @ t=0.04
8.12295465301716
% es.Ex (V/m) @ t=0.04
-8.445819977453127
% es.Ey (V/m) @ t=0.04
6.776159986427178
% es.Ez (V/m) @ t=0.04
8.122954653017153
% es.tEx (V/m) @ t=0.04
-8.44581997745313
% es.tEy (V/m) @ t=0.04
0
% es.tEz (V/m) @ t=0.04
8.12295465301716
% V (V) @ t=0.04
0.0056127916959264135
% es.normE (V/m) @ t=0.06
18.048398148447497
% es.EX (V/m) @ t=0.06
-8.523494201068075
% es.EY (V/m) @ t=0.06
6.838478803513688
% es.EZ (V/m) @ t=0.06
8.197659764120786
% es.tEX (V/m) @ t=0.06
-8.523494201068072
% es.tEY (V/m) @ t=0.06
0
% es.tEZ (V/m) @ t=0.06
8.1976597641208
% es.Ex (V/m) @ t=0.06
-8.523494201068075
% es.Ey (V/m) @ t=0.06
6.838478803513688
% es.Ez (V/m) @ t=0.06
8.197659764120786
% es.tEx (V/m) @ t=0.06
-8.523494201068072
% es.tEy (V/m) @ t=0.06
0
% es.tEz (V/m) @ t=0.06
8.1976597641208
% V (V) @ t=0.06
0.005664411313448623
% es.normE (V/m) @ t=0.08
18.215379678505705
% es.EX (V/m) @ t=0.08
-8.602352493407473
% es.EY (V/m) @ t=0.08
6.901747554319382
% es.EZ (V/m) @ t=0.08
8.273503502927959
% es.tEX (V/m) @ t=0.08
-8.60235249340747
% es.tEY (V/m) @ t=0.08
0
% es.tEZ (V/m) @ t=0.08
8.273503502927952
% es.Ex (V/m) @ t=0.08
-8.602352493407473
% es.Ey (V/m) @ t=0.08
6.901747554319382
% es.Ez (V/m) @ t=0.08
8.273503502927959
% es.tEx (V/m) @ t=0.08
-8.60235249340747
% es.tEy (V/m) @ t=0.08
0
% es.tEz (V/m) @ t=0.08
8.273503502927952
% V (V) @ t=0.08
0.00571681774266156
% es.normE (V/m) @ t=0.1
18.384108210356104
% es.EX (V/m) @ t=0.1
-8.682035886979001
% es.EY (V/m) @ t=0.1
6.965678252751889
% es.EZ (V/m) @ t=0.1
8.350140678046529
% es.tEX (V/m) @ t=0.1
-8.682035886979016
% es.tEY (V/m) @ t=0.1
0
% es.tEZ (V/m) @ t=0.1
8.350140678046529
% es.Ex (V/m) @ t=0.1
-8.682035886979001
% es.Ey (V/m) @ t=0.1
6.965678252751889
% es.Ez (V/m) @ t=0.1
8.350140678046529
% es.tEx (V/m) @ t=0.1
-8.682035886979016
% es.tEy (V/m) @ t=0.1
0
% es.tEz (V/m) @ t=0.1
8.350140678046529
% V (V) @ t=0.1
0.00576977245026586
% es.normE (V/m) @ t=0.12
18.552836742206445
% es.EX (V/m) @ t=0.12
-8.761719280550523
% es.EY (V/m) @ t=0.12
7.029608951184386
% es.EZ (V/m) @ t=0.12
8.426777853165042
% es.tEX (V/m) @ t=0.12
-8.761719280550501
% es.tEY (V/m) @ t=0.12
0
% es.tEZ (V/m) @ t=0.12
8.42677785316505
% es.Ex (V/m) @ t=0.12
-8.761719280550523
% es.Ey (V/m) @ t=0.12
7.029608951184386
% es.Ez (V/m) @ t=0.12
8.426777853165042
% es.tEx (V/m) @ t=0.12
-8.761719280550501
% es.tEy (V/m) @ t=0.12
0
% es.tEz (V/m) @ t=0.12
8.42677785316505
% V (V) @ t=0.12
0.005822727157870159
% es.normE (V/m) @ t=0.14
18.723264914196893
% es.EX (V/m) @ t=0.14
-8.842205255089205
% es.EY (V/m) @ t=0.14
7.094183618760436
% es.EZ (V/m) @ t=0.14
8.504187090089033
% es.tEX (V/m) @ t=0.14
-8.842205255089219
% es.tEY (V/m) @ t=0.14
0
% es.tEZ (V/m) @ t=0.14
8.504187090089005
% es.Ex (V/m) @ t=0.14
-8.842205255089205
% es.Ey (V/m) @ t=0.14
7.094183618760436
% es.Ez (V/m) @ t=0.14
8.504187090089033
% es.tEx (V/m) @ t=0.14
-8.842205255089219
% es.tEy (V/m) @ t=0.14
0
% es.tEz (V/m) @ t=0.14
8.504187090089005
% V (V) @ t=0.14
0.005876215304063898
% es.normE (V/m) @ t=0.16
18.90100400635264
% es.EX (V/m) @ t=0.16
-8.926143492985638
% es.EY (V/m) @ t=0.16
7.1615282885776494
% es.EZ (V/m) @ t=0.16
8.58491731366735
% es.tEX (V/m) @ t=0.16
-8.926143492985634
% es.tEY (V/m) @ t=0.16
0
% es.tEZ (V/m) @ t=0.16
8.584917313667347
% es.Ex (V/m) @ t=0.16
-8.926143492985638
% es.Ey (V/m) @ t=0.16
7.1615282885776494
% es.Ez (V/m) @ t=0.16
8.58491731366735
% es.tEx (V/m) @ t=0.16
-8.926143492985634
% es.tEy (V/m) @ t=0.16
0
% es.tEz (V/m) @ t=0.16
8.584917313667347
% V (V) @ t=0.16
0.005931998010646355
% es.normE (V/m) @ t=0.18
19.078743098508365
% es.EX (V/m) @ t=0.18
-9.01008173088205
% es.EY (V/m) @ t=0.18
7.228872958394856
% es.EZ (V/m) @ t=0.18
8.66564753724559
% es.tEX (V/m) @ t=0.18
-9.010081730882053
% es.tEY (V/m) @ t=0.18
0
% es.tEZ (V/m) @ t=0.18
8.665647537245604
% es.Ex (V/m) @ t=0.18
-9.01008173088205
% es.Ey (V/m) @ t=0.18
7.228872958394856
% es.Ez (V/m) @ t=0.18
8.66564753724559
% es.tEx (V/m) @ t=0.18
-9.010081730882053
% es.tEy (V/m) @ t=0.18
0
% es.tEz (V/m) @ t=0.18
8.665647537245604
% V (V) @ t=0.18
0.005987780717228812
% es.normE (V/m) @ t=0.2
19.256482190664222
% es.EX (V/m) @ t=0.2
-9.094019968778532
% es.EY (V/m) @ t=0.2
7.296217628212105
% es.EZ (V/m) @ t=0.2
8.746377760823933
% es.tEX (V/m) @ t=0.2
-9.094019968778511
% es.tEY (V/m) @ t=0.2
0
% es.tEZ (V/m) @ t=0.2
8.746377760823947
% es.Ex (V/m) @ t=0.2
-9.094019968778532
% es.Ey (V/m) @ t=0.2
7.296217628212105
% es.Ez (V/m) @ t=0.2
8.746377760823933
% es.tEx (V/m) @ t=0.2
-9.094019968778511
% es.tEy (V/m) @ t=0.2
0
% es.tEz (V/m) @ t=0.2
8.746377760823947
% V (V) @ t=0.2
0.006043563423811267
% es.normE (V/m) @ t=0.22
19.434221282819973
% es.EX (V/m) @ t=0.22
-9.177958206674944
% es.EY (V/m) @ t=0.22
7.363562298029294
% es.EZ (V/m) @ t=0.22
8.82710798440219
% es.tEX (V/m) @ t=0.22
-9.177958206674937
% es.tEY (V/m) @ t=0.22
0
% es.tEZ (V/m) @ t=0.22
8.827107984402204
% es.Ex (V/m) @ t=0.22
-9.177958206674944
% es.Ey (V/m) @ t=0.22
7.363562298029294
% es.Ez (V/m) @ t=0.22
8.82710798440219
% es.tEx (V/m) @ t=0.22
-9.177958206674937
% es.tEy (V/m) @ t=0.22
0
% es.tEz (V/m) @ t=0.22
8.827107984402204
% V (V) @ t=0.22
0.006099346130393724
% es.normE (V/m) @ t=0.24
19.611960374975762
% es.EX (V/m) @ t=0.24
-9.261896444571377
% es.EY (V/m) @ t=0.24
7.430906967846504
% es.EZ (V/m) @ t=0.24
8.907838207980443
% es.tEX (V/m) @ t=0.24
-9.261896444571349
% es.tEY (V/m) @ t=0.24
0
% es.tEZ (V/m) @ t=0.24
8.907838207980433
% es.Ex (V/m) @ t=0.24
-9.261896444571377
% es.Ey (V/m) @ t=0.24
7.430906967846504
% es.Ez (V/m) @ t=0.24
8.907838207980443
% es.tEx (V/m) @ t=0.24
-9.261896444571349
% es.tEy (V/m) @ t=0.24
0
% es.tEz (V/m) @ t=0.24
8.907838207980433
% V (V) @ t=0.24
0.00615512883697618
% es.normE (V/m) @ t=0.26
19.789699467131594
% es.EX (V/m) @ t=0.26
-9.345834682467789
% es.EY (V/m) @ t=0.26
7.498251637663714
% es.EZ (V/m) @ t=0.26
8.988568431558715
% es.tEX (V/m) @ t=0.26
-9.34583468246781
% es.tEY (V/m) @ t=0.26
0
% es.tEZ (V/m) @ t=0.26
8.988568431558718
% es.Ex (V/m) @ t=0.26
-9.345834682467789
% es.Ey (V/m) @ t=0.26
7.498251637663714
% es.Ez (V/m) @ t=0.26
8.988568431558715
% es.tEx (V/m) @ t=0.26
-9.34583468246781
% es.tEy (V/m) @ t=0.26
0
% es.tEz (V/m) @ t=0.26
8.988568431558718
% V (V) @ t=0.26
0.006210911543558637
% es.normE (V/m) @ t=0.28
19.97527314700829
% es.EX (V/m) @ t=0.28
-9.43347424358602
% es.EY (V/m) @ t=0.28
7.568565104487607
% es.EZ (V/m) @ t=0.28
9.072855920881032
% es.tEX (V/m) @ t=0.28
-9.433474243586016
% es.tEY (V/m) @ t=0.28
0
% es.tEZ (V/m) @ t=0.28
9.072855920881011
% es.Ex (V/m) @ t=0.28
-9.43347424358602
% es.Ey (V/m) @ t=0.28
7.568565104487607
% es.Ez (V/m) @ t=0.28
9.072855920881032
% es.tEx (V/m) @ t=0.28
-9.433474243586016
% es.tEy (V/m) @ t=0.28
0
% es.tEz (V/m) @ t=0.28
9.072855920881011
% V (V) @ t=0.28
0.006269152885080995
% es.normE (V/m) @ t=0.3
20.173245246521127
% es.EX (V/m) @ t=0.3
-9.526971235898387
% es.EY (V/m) @ t=0.3
7.643576762513543
% es.EZ (V/m) @ t=0.3
9.162772867045312
% es.tEX (V/m) @ t=0.3
-9.526971235898401
% es.tEY (V/m) @ t=0.3
0
% es.tEZ (V/m) @ t=0.3
9.162772867045305
% es.Ex (V/m) @ t=0.3
-9.526971235898387
% es.Ey (V/m) @ t=0.3
7.643576762513543
% es.Ez (V/m) @ t=0.3
9.162772867045312
% es.tEx (V/m) @ t=0.3
-9.526971235898401
% es.tEy (V/m) @ t=0.3
0
% es.tEz (V/m) @ t=0.3
9.162772867045305
% V (V) @ t=0.3
0.006331285074316258
% es.normE (V/m) @ t=0.32
20.37121734603495
% es.EX (V/m) @ t=0.32
-9.620468228210783
% es.EY (V/m) @ t=0.32
7.718588420539458
% es.EZ (V/m) @ t=0.32
9.25268981320956
% es.tEX (V/m) @ t=0.32
-9.620468228210797
% es.tEY (V/m) @ t=0.32
0
% es.tEZ (V/m) @ t=0.32
9.252689813209543
% es.Ex (V/m) @ t=0.32
-9.620468228210783
% es.Ey (V/m) @ t=0.32
7.718588420539458
% es.Ez (V/m) @ t=0.32
9.25268981320956
% es.tEx (V/m) @ t=0.32
-9.620468228210797
% es.tEy (V/m) @ t=0.32
0
% es.tEz (V/m) @ t=0.32
9.252689813209543
% V (V) @ t=0.32
0.006393417263551522
% es.normE (V/m) @ t=0.34
20.569189445549803
% es.EX (V/m) @ t=0.34
-9.713965220523193
% es.EY (V/m) @ t=0.34
7.793600078565383
% es.EZ (V/m) @ t=0.34
9.34260675937389
% es.tEX (V/m) @ t=0.34
-9.713965220523214
% es.tEY (V/m) @ t=0.34
0
% es.tEZ (V/m) @ t=0.34
9.342606759373894
% es.Ex (V/m) @ t=0.34
-9.713965220523193
% es.Ey (V/m) @ t=0.34
7.793600078565383
% es.Ez (V/m) @ t=0.34
9.34260675937389
% es.tEx (V/m) @ t=0.34
-9.713965220523214
% es.tEy (V/m) @ t=0.34
0
% es.tEz (V/m) @ t=0.34
9.342606759373894
% V (V) @ t=0.34
0.006455549452786787
% es.normE (V/m) @ t=0.36
20.76716154506556
% es.EX (V/m) @ t=0.36
-9.807462212835617
% es.EY (V/m) @ t=0.36
7.868611736591323
% es.EZ (V/m) @ t=0.36
9.432523705538138
% es.tEX (V/m) @ t=0.36
-9.807462212835599
% es.tEY (V/m) @ t=0.36
0
% es.tEZ (V/m) @ t=0.36
9.43252370553816
% es.Ex (V/m) @ t=0.36
-9.807462212835617
% es.Ey (V/m) @ t=0.36
7.868611736591323
% es.Ez (V/m) @ t=0.36
9.432523705538138
% es.tEx (V/m) @ t=0.36
-9.807462212835599
% es.tEy (V/m) @ t=0.36
0
% es.tEz (V/m) @ t=0.36
9.43252370553816
% V (V) @ t=0.36
0.00651768164202205
% es.normE (V/m) @ t=0.38
20.965133644582174
% es.EX (V/m) @ t=0.38
-9.900959205147977
% es.EY (V/m) @ t=0.38
7.9436233946172194
% es.EZ (V/m) @ t=0.38
9.522440651702404
% es.tEX (V/m) @ t=0.38
-9.900959205147966
% es.tEY (V/m) @ t=0.38
0
% es.tEZ (V/m) @ t=0.38
9.522440651702397
% es.Ex (V/m) @ t=0.38
-9.900959205147977
% es.Ey (V/m) @ t=0.38
7.9436233946172194
% es.Ez (V/m) @ t=0.38
9.522440651702404
% es.tEx (V/m) @ t=0.38
-9.900959205147966
% es.tEy (V/m) @ t=0.38
0
% es.tEz (V/m) @ t=0.38
9.522440651702397
% V (V) @ t=0.38
0.006579813831257314
% es.normE (V/m) @ t=0.4
21.163105744099745
% es.EX (V/m) @ t=0.4
-9.99445619746038
% es.EY (V/m) @ t=0.4
8.01863505264319
% es.EZ (V/m) @ t=0.4
9.612357597866705
% es.tEX (V/m) @ t=0.4
-9.994456197460401
% es.tEY (V/m) @ t=0.4
0
% es.tEZ (V/m) @ t=0.4
9.612357597866719
% es.Ex (V/m) @ t=0.4
-9.99445619746038
% es.Ey (V/m) @ t=0.4
8.01863505264319
% es.Ez (V/m) @ t=0.4
9.612357597866705
% es.tEx (V/m) @ t=0.4
-9.994456197460401
% es.tEy (V/m) @ t=0.4
0
% es.tEz (V/m) @ t=0.4
9.612357597866719
% V (V) @ t=0.4
0.006641946020492579
% es.normE (V/m) @ t=0.42
21.361077843618098
% es.EX (V/m) @ t=0.42
-10.087953189772769
% es.EY (V/m) @ t=0.42
8.093646710669091
% es.EZ (V/m) @ t=0.42
9.702274544030924
% es.tEX (V/m) @ t=0.42
-10.087953189772755
% es.tEY (V/m) @ t=0.42
0
% es.tEZ (V/m) @ t=0.42
9.702274544030871
% es.Ex (V/m) @ t=0.42
-10.087953189772769
% es.Ey (V/m) @ t=0.42
8.093646710669091
% es.Ez (V/m) @ t=0.42
9.702274544030924
% es.tEx (V/m) @ t=0.42
-10.087953189772755
% es.tEy (V/m) @ t=0.42
0
% es.tEz (V/m) @ t=0.42
9.702274544030871
% V (V) @ t=0.42
0.006704078209727843
% es.normE (V/m) @ t=0.44
21.559049943137367
% es.EX (V/m) @ t=0.44
-10.181450182085179
% es.EY (V/m) @ t=0.44
8.168658368694999
% es.EZ (V/m) @ t=0.44
9.792191490195215
% es.tEX (V/m) @ t=0.44
-10.181450182085172
% es.tEY (V/m) @ t=0.44
0
% es.tEZ (V/m) @ t=0.44
9.792191490195222
% es.Ex (V/m) @ t=0.44
-10.181450182085179
% es.Ey (V/m) @ t=0.44
8.168658368694999
% es.Ez (V/m) @ t=0.44
9.792191490195215
% es.tEx (V/m) @ t=0.44
-10.181450182085172
% es.tEy (V/m) @ t=0.44
0
% es.tEz (V/m) @ t=0.44
9.792191490195222
% V (V) @ t=0.44
0.006766210398963107
% es.normE (V/m) @ t=0.46
21.75702204265741
% es.EX (V/m) @ t=0.46
-10.274947174397553
% es.EY (V/m) @ t=0.46
8.243670026720942
% es.EZ (V/m) @ t=0.46
9.88210843635948
% es.tEX (V/m) @ t=0.46
-10.274947174397543
% es.tEY (V/m) @ t=0.46
0
% es.tEZ (V/m) @ t=0.46
9.882108436359488
% es.Ex (V/m) @ t=0.46
-10.274947174397553
% es.Ey (V/m) @ t=0.46
8.243670026720942
% es.Ez (V/m) @ t=0.46
9.88210843635948
% es.tEx (V/m) @ t=0.46
-10.274947174397543
% es.tEy (V/m) @ t=0.46
0
% es.tEz (V/m) @ t=0.46
9.882108436359488
% V (V) @ t=0.46
0.0068283425881983705
% es.normE (V/m) @ t=0.48
21.954994142178293
% es.EX (V/m) @ t=0.48
-10.36844416670997
% es.EY (V/m) @ t=0.48
8.318681684746874
% es.EZ (V/m) @ t=0.48
9.972025382523782
% es.tEX (V/m) @ t=0.48
-10.368444166709963
% es.tEY (V/m) @ t=0.48
0
% es.tEZ (V/m) @ t=0.48
9.972025382523782
% es.Ex (V/m) @ t=0.48
-10.36844416670997
% es.Ey (V/m) @ t=0.48
8.318681684746874
% es.Ez (V/m) @ t=0.48
9.972025382523782
% es.tEx (V/m) @ t=0.48
-10.368444166709963
% es.tEy (V/m) @ t=0.48
0
% es.tEz (V/m) @ t=0.48
9.972025382523782
% V (V) @ t=0.48
0.006890474777433635
% es.normE (V/m) @ t=0.5
22.15296624169992
% es.EX (V/m) @ t=0.5
-10.46194115902236
% es.EY (V/m) @ t=0.5
8.393693342772778
% es.EZ (V/m) @ t=0.5
10.061942328688072
% es.tEX (V/m) @ t=0.5
-10.461941159022388
% es.tEY (V/m) @ t=0.5
0
% es.tEZ (V/m) @ t=0.5
10.061942328688104
% es.Ex (V/m) @ t=0.5
-10.46194115902236
% es.Ey (V/m) @ t=0.5
8.393693342772778
% es.Ez (V/m) @ t=0.5
10.061942328688072
% es.tEx (V/m) @ t=0.5
-10.461941159022388
% es.tEy (V/m) @ t=0.5
0
% es.tEz (V/m) @ t=0.5
10.061942328688104
% V (V) @ t=0.5
0.006952606966668899
% es.normE (V/m) @ t=0.52
22.350938341222317
% es.EX (V/m) @ t=0.52
-10.555438151334762
% es.EY (V/m) @ t=0.52
8.468705000798735
% es.EZ (V/m) @ t=0.52
10.151859274852349
% es.tEX (V/m) @ t=0.52
-10.555438151334748
% es.tEY (V/m) @ t=0.52
0
% es.tEZ (V/m) @ t=0.52
10.151859274852342
% es.Ex (V/m) @ t=0.52
-10.555438151334762
% es.Ey (V/m) @ t=0.52
8.468705000798735
% es.Ez (V/m) @ t=0.52
10.151859274852349
% es.tEx (V/m) @ t=0.52
-10.555438151334748
% es.tEy (V/m) @ t=0.52
0
% es.tEz (V/m) @ t=0.52
10.151859274852342
% V (V) @ t=0.52
0.007014739155904164
% es.normE (V/m) @ t=0.54
22.54891044074538
% es.EX (V/m) @ t=0.54
-10.64893514364715
% es.EY (V/m) @ t=0.54
8.54371665882466
% es.EZ (V/m) @ t=0.54
10.241776221016568
% es.tEX (V/m) @ t=0.54
-10.648935143647137
% es.tEY (V/m) @ t=0.54
0
% es.tEZ (V/m) @ t=0.54
10.241776221016579
% es.Ex (V/m) @ t=0.54
-10.64893514364715
% es.Ey (V/m) @ t=0.54
8.54371665882466
% es.Ez (V/m) @ t=0.54
10.241776221016568
% es.tEx (V/m) @ t=0.54
-10.648935143647137
% es.tEy (V/m) @ t=0.54
0
% es.tEz (V/m) @ t=0.54
10.241776221016579
% V (V) @ t=0.54
0.007076871345139426
% es.normE (V/m) @ t=0.56
22.765119846932095
% es.EX (V/m) @ t=0.56
-10.75101514732571
% es.EY (V/m) @ t=0.56
8.625631978427755
% es.EZ (V/m) @ t=0.56
10.340003294559086
% es.tEX (V/m) @ t=0.56
-10.751015147325717
% es.tEY (V/m) @ t=0.56
0
% es.tEZ (V/m) @ t=0.56
10.340003294559125
% es.Ex (V/m) @ t=0.56
-10.75101514732571
% es.Ey (V/m) @ t=0.56
8.625631978427755
% es.Ez (V/m) @ t=0.56
10.340003294559086
% es.tEx (V/m) @ t=0.56
-10.751015147325717
% es.tEy (V/m) @ t=0.56
0
% es.tEz (V/m) @ t=0.56
10.340003294559125
% V (V) @ t=0.56
0.007144731871120513
% es.normE (V/m) @ t=0.58
22.98634197560665
% es.EX (V/m) @ t=0.58
-10.855454285170936
% es.EY (V/m) @ t=0.58
8.709444844615245
% es.EZ (V/m) @ t=0.58
10.440514497131748
% es.tEX (V/m) @ t=0.58
-10.855454285170918
% es.tEY (V/m) @ t=0.58
0
% es.tEZ (V/m) @ t=0.58
10.440514497131744
% es.Ex (V/m) @ t=0.58
-10.855454285170936
% es.Ey (V/m) @ t=0.58
8.709444844615245
% es.Ez (V/m) @ t=0.58
10.440514497131748
% es.tEx (V/m) @ t=0.58
-10.855454285170918
% es.tEy (V/m) @ t=0.58
0
% es.tEz (V/m) @ t=0.58
10.440514497131744
% V (V) @ t=0.58
0.007214166892853539
% es.normE (V/m) @ t=0.6
23.207564104386854
% es.EX (V/m) @ t=0.6
-10.95989342301612
% es.EY (V/m) @ t=0.6
8.79325771080272
% es.EZ (V/m) @ t=0.6
10.541025699704324
% es.tEX (V/m) @ t=0.6
-10.959893423016105
% es.tEY (V/m) @ t=0.6
0
% es.tEZ (V/m) @ t=0.6
10.541025699704335
% es.Ex (V/m) @ t=0.6
-10.95989342301612
% es.Ey (V/m) @ t=0.6
8.79325771080272
% es.Ez (V/m) @ t=0.6
10.541025699704324
% es.tEx (V/m) @ t=0.6
-10.959893423016105
% es.tEy (V/m) @ t=0.6
0
% es.tEz (V/m) @ t=0.6
10.541025699704335
% V (V) @ t=0.6
0.007283601914586567
% es.normE (V/m) @ t=0.62
23.42878623326982
% es.EX (V/m) @ t=0.62
-11.064332560861317
% es.EY (V/m) @ t=0.62
8.877070576990196
% es.EZ (V/m) @ t=0.62
10.641536902276968
% es.tEX (V/m) @ t=0.62
-11.064332560861303
% es.tEY (V/m) @ t=0.62
0
% es.tEZ (V/m) @ t=0.62
10.641536902276982
% es.Ex (V/m) @ t=0.62
-11.064332560861317
% es.Ey (V/m) @ t=0.62
8.877070576990196
% es.Ez (V/m) @ t=0.62
10.641536902276968
% es.tEx (V/m) @ t=0.62
-11.064332560861303
% es.tEy (V/m) @ t=0.62
0
% es.tEz (V/m) @ t=0.62
10.641536902276982
% V (V) @ t=0.62
0.007353036936319593
% es.normE (V/m) @ t=0.64
23.650008362252613
% es.EX (V/m) @ t=0.64
-11.168771698706529
% es.EY (V/m) @ t=0.64
8.96088344317771
% es.EZ (V/m) @ t=0.64
10.742048104849587
% es.tEX (V/m) @ t=0.64
-11.168771698706525
% es.tEY (V/m) @ t=0.64
0
% es.tEZ (V/m) @ t=0.64
10.742048104849545
% es.Ex (V/m) @ t=0.64
-11.168771698706529
% es.Ey (V/m) @ t=0.64
8.96088344317771
% es.Ez (V/m) @ t=0.64
10.742048104849587
% es.tEx (V/m) @ t=0.64
-11.168771698706525
% es.tEy (V/m) @ t=0.64
0
% es.tEz (V/m) @ t=0.64
10.742048104849545
% V (V) @ t=0.64
0.0074224719580526215
% es.normE (V/m) @ t=0.66
23.871230491332415
% es.EX (V/m) @ t=0.66
-11.273210836551698
% es.EY (V/m) @ t=0.66
9.044696309365182
% es.EZ (V/m) @ t=0.66
10.84255930742215
% es.tEX (V/m) @ t=0.66
-11.273210836551698
% es.tEY (V/m) @ t=0.66
0
% es.tEZ (V/m) @ t=0.66
10.842559307422164
% es.Ex (V/m) @ t=0.66
-11.273210836551698
% es.Ey (V/m) @ t=0.66
9.044696309365182
% es.Ez (V/m) @ t=0.66
10.84255930742215
% es.tEx (V/m) @ t=0.66
-11.273210836551698
% es.tEy (V/m) @ t=0.66
0
% es.tEz (V/m) @ t=0.66
10.842559307422164
% V (V) @ t=0.66
0.007491906979785646
% es.normE (V/m) @ t=0.68
24.092452620506656
% es.EX (V/m) @ t=0.68
-11.377649974396896
% es.EY (V/m) @ t=0.68
9.12850917555264
% es.EZ (V/m) @ t=0.68
10.943070509994762
% es.tEX (V/m) @ t=0.68
-11.377649974396896
% es.tEY (V/m) @ t=0.68
0
% es.tEZ (V/m) @ t=0.68
10.943070509994755
% es.Ex (V/m) @ t=0.68
-11.377649974396896
% es.Ey (V/m) @ t=0.68
9.12850917555264
% es.Ez (V/m) @ t=0.68
10.943070509994762
% es.tEx (V/m) @ t=0.68
-11.377649974396896
% es.tEy (V/m) @ t=0.68
0
% es.tEz (V/m) @ t=0.68
10.943070509994755
% V (V) @ t=0.68
0.007561342001518674
% es.normE (V/m) @ t=0.7
24.31367474977273
% es.EX (V/m) @ t=0.7
-11.482089112242093
% es.EY (V/m) @ t=0.7
9.212322041740155
% es.EZ (V/m) @ t=0.7
11.043581712567367
% es.tEX (V/m) @ t=0.7
-11.482089112242072
% es.tEY (V/m) @ t=0.7
0
% es.tEZ (V/m) @ t=0.7
11.043581712567374
% es.Ex (V/m) @ t=0.7
-11.482089112242093
% es.Ey (V/m) @ t=0.7
9.212322041740155
% es.Ez (V/m) @ t=0.7
11.043581712567367
% es.tEx (V/m) @ t=0.7
-11.482089112242072
% es.tEy (V/m) @ t=0.7
0
% es.tEz (V/m) @ t=0.7
11.043581712567374
% V (V) @ t=0.7
0.007630777023251701
% es.normE (V/m) @ t=0.72
24.53489687912809
% es.EX (V/m) @ t=0.72
-11.586528250087284
% es.EY (V/m) @ t=0.72
9.296134907927637
% es.EZ (V/m) @ t=0.72
11.144092915139968
% es.tEX (V/m) @ t=0.72
-11.58652825008729
% es.tEY (V/m) @ t=0.72
0
% es.tEZ (V/m) @ t=0.72
11.144092915139964
% es.Ex (V/m) @ t=0.72
-11.586528250087284
% es.Ey (V/m) @ t=0.72
9.296134907927637
% es.Ez (V/m) @ t=0.72
11.144092915139968
% es.tEx (V/m) @ t=0.72
-11.58652825008729
% es.tEy (V/m) @ t=0.72
0
% es.tEz (V/m) @ t=0.72
11.144092915139964
% V (V) @ t=0.72
0.007700212044984727
% es.normE (V/m) @ t=0.74
24.756119008570497
% es.EX (V/m) @ t=0.74
-11.690967387932503
% es.EY (V/m) @ t=0.74
9.379947774115141
% es.EZ (V/m) @ t=0.74
11.244604117712626
% es.tEX (V/m) @ t=0.74
-11.690967387932524
% es.tEY (V/m) @ t=0.74
0
% es.tEZ (V/m) @ t=0.74
11.24460411771264
% es.Ex (V/m) @ t=0.74
-11.690967387932503
% es.Ey (V/m) @ t=0.74
9.379947774115141
% es.Ez (V/m) @ t=0.74
11.244604117712626
% es.tEx (V/m) @ t=0.74
-11.690967387932524
% es.tEy (V/m) @ t=0.74
0
% es.tEz (V/m) @ t=0.74
11.24460411771264
% V (V) @ t=0.74
0.007769647066717756
% es.normE (V/m) @ t=0.76
24.977341138097408
% es.EX (V/m) @ t=0.76
-11.795406525777686
% es.EY (V/m) @ t=0.76
9.463760640302603
% es.EZ (V/m) @ t=0.76
11.345115320285203
% es.tEX (V/m) @ t=0.76
-11.795406525777686
% es.tEY (V/m) @ t=0.76
0
% es.tEZ (V/m) @ t=0.76
11.345115320285174
% es.Ex (V/m) @ t=0.76
-11.795406525777686
% es.Ey (V/m) @ t=0.76
9.463760640302603
% es.Ez (V/m) @ t=0.76
11.345115320285203
% es.tEx (V/m) @ t=0.76
-11.795406525777686
% es.tEy (V/m) @ t=0.76
0
% es.tEz (V/m) @ t=0.76
11.345115320285174
% V (V) @ t=0.76
0.007839082088450782
% es.normE (V/m) @ t=0.78
25.19856326770673
% es.EX (V/m) @ t=0.78
-11.899845663622827
% es.EY (V/m) @ t=0.78
9.547573506490107
% es.EZ (V/m) @ t=0.78
11.445626522857811
% es.tEX (V/m) @ t=0.78
-11.89984566362282
% es.tEY (V/m) @ t=0.78
0
% es.tEZ (V/m) @ t=0.78
11.445626522857822
% es.Ex (V/m) @ t=0.78
-11.899845663622827
% es.Ey (V/m) @ t=0.78
9.547573506490107
% es.Ez (V/m) @ t=0.78
11.445626522857811
% es.tEx (V/m) @ t=0.78
-11.89984566362282
% es.tEy (V/m) @ t=0.78
0
% es.tEz (V/m) @ t=0.78
11.445626522857822
% V (V) @ t=0.78
0.007908517110183807
% es.normE (V/m) @ t=0.8
25.419785397396296
% es.EX (V/m) @ t=0.8
-12.004284801468017
% es.EY (V/m) @ t=0.8
9.631386372677564
% es.EZ (V/m) @ t=0.8
11.546137725430384
% es.tEX (V/m) @ t=0.8
-12.004284801468014
% es.tEY (V/m) @ t=0.8
0
% es.tEZ (V/m) @ t=0.8
11.546137725430384
% es.Ex (V/m) @ t=0.8
-12.004284801468017
% es.Ey (V/m) @ t=0.8
9.631386372677564
% es.Ez (V/m) @ t=0.8
11.546137725430384
% es.tEx (V/m) @ t=0.8
-12.004284801468014
% es.tEy (V/m) @ t=0.8
0
% es.tEz (V/m) @ t=0.8
11.546137725430384
% V (V) @ t=0.8
0.007977952131916835
% es.normE (V/m) @ t=0.82
25.645644120026482
% es.EX (V/m) @ t=0.82
-12.110926654947292
% es.EY (V/m) @ t=0.82
9.716958838157314
% es.EZ (V/m) @ t=0.82
11.648743171253745
% es.tEX (V/m) @ t=0.82
-12.110926654947274
% es.tEY (V/m) @ t=0.82
0
% es.tEZ (V/m) @ t=0.82
11.648743171253756
% es.Ex (V/m) @ t=0.82
-12.110926654947292
% es.Ey (V/m) @ t=0.82
9.716958838157314
% es.Ez (V/m) @ t=0.82
11.648743171253745
% es.tEx (V/m) @ t=0.82
-12.110926654947274
% es.tEy (V/m) @ t=0.82
0
% es.tEz (V/m) @ t=0.82
11.648743171253756
% V (V) @ t=0.82
0.008048840291313086
% es.normE (V/m) @ t=0.84
25.892400896347233
% es.EX (V/m) @ t=0.84
-12.227496589391833
% es.EY (V/m) @ t=0.84
9.810462170413626
% es.EZ (V/m) @ t=0.84
11.760787791264054
% es.tEX (V/m) @ t=0.84
-12.227496589391844
% es.tEY (V/m) @ t=0.84
0
% es.tEZ (V/m) @ t=0.84
11.76078779126405
% es.Ex (V/m) @ t=0.84
-12.227496589391833
% es.Ey (V/m) @ t=0.84
9.810462170413626
% es.Ez (V/m) @ t=0.84
11.760787791264054
% es.tEx (V/m) @ t=0.84
-12.227496589391844
% es.tEy (V/m) @ t=0.84
0
% es.tEz (V/m) @ t=0.84
11.76078779126405
% V (V) @ t=0.84
0.008126278033484077
% es.normE (V/m) @ t=0.86
26.139157672799662
% es.EX (V/m) @ t=0.86
-12.344066523836403
% es.EY (V/m) @ t=0.86
9.903965502669912
% es.EZ (V/m) @ t=0.86
11.872832411274384
% es.tEX (V/m) @ t=0.86
-12.34406652383641
% es.tEY (V/m) @ t=0.86
0
% es.tEZ (V/m) @ t=0.86
11.872832411274373
% es.Ex (V/m) @ t=0.86
-12.344066523836403
% es.Ey (V/m) @ t=0.86
9.903965502669912
% es.Ez (V/m) @ t=0.86
11.872832411274384
% es.tEx (V/m) @ t=0.86
-12.34406652383641
% es.tEy (V/m) @ t=0.86
0
% es.tEz (V/m) @ t=0.86
11.872832411274373
% V (V) @ t=0.86
0.008203715775655075
% es.normE (V/m) @ t=0.88
26.38591444938003
% es.EX (V/m) @ t=0.88
-12.460636458280973
% es.EY (V/m) @ t=0.88
9.997468834926202
% es.EZ (V/m) @ t=0.88
11.984877031284732
% es.tEX (V/m) @ t=0.88
-12.460636458280959
% es.tEY (V/m) @ t=0.88
0
% es.tEZ (V/m) @ t=0.88
11.984877031284725
% es.Ex (V/m) @ t=0.88
-12.460636458280973
% es.Ey (V/m) @ t=0.88
9.997468834926202
% es.Ez (V/m) @ t=0.88
11.984877031284732
% es.tEx (V/m) @ t=0.88
-12.460636458280959
% es.tEy (V/m) @ t=0.88
0
% es.tEz (V/m) @ t=0.88
11.984877031284725
% V (V) @ t=0.88
0.008281153517826073
% es.normE (V/m) @ t=0.9
26.632671226084717
% es.EX (V/m) @ t=0.9
-12.577206392725522
% es.EY (V/m) @ t=0.9
10.0909721671825
% es.EZ (V/m) @ t=0.9
12.09692165129502
% es.tEX (V/m) @ t=0.9
-12.577206392725515
% es.tEY (V/m) @ t=0.9
0
% es.tEZ (V/m) @ t=0.9
12.096921651295048
% es.Ex (V/m) @ t=0.9
-12.577206392725522
% es.Ey (V/m) @ t=0.9
10.0909721671825
% es.Ez (V/m) @ t=0.9
12.09692165129502
% es.tEx (V/m) @ t=0.9
-12.577206392725515
% es.tEy (V/m) @ t=0.9
0
% es.tEz (V/m) @ t=0.9
12.096921651295048
% V (V) @ t=0.9
0.00835859125999707
% es.normE (V/m) @ t=0.92
26.87942800291043
% es.EX (V/m) @ t=0.92
-12.693776327170085
% es.EY (V/m) @ t=0.92
10.18447549943878
% es.EZ (V/m) @ t=0.92
12.208966271305368
% es.tEX (V/m) @ t=0.92
-12.693776327170085
% es.tEY (V/m) @ t=0.92
0
% es.tEZ (V/m) @ t=0.92
12.208966271305371
% es.Ex (V/m) @ t=0.92
-12.693776327170085
% es.Ey (V/m) @ t=0.92
10.18447549943878
% es.Ez (V/m) @ t=0.92
12.208966271305368
% es.tEx (V/m) @ t=0.92
-12.693776327170085
% es.tEy (V/m) @ t=0.92
0
% es.tEz (V/m) @ t=0.92
12.208966271305371
% V (V) @ t=0.92
0.008436029002168064
% es.normE (V/m) @ t=0.94
27.126184779853787
% es.EX (V/m) @ t=0.94
-12.810346261614654
% es.EY (V/m) @ t=0.94
10.277978831695076
% es.EZ (V/m) @ t=0.94
12.321010891315684
% es.tEX (V/m) @ t=0.94
-12.81034626161464
% es.tEY (V/m) @ t=0.94
0
% es.tEZ (V/m) @ t=0.94
12.321010891315694
% es.Ex (V/m) @ t=0.94
-12.810346261614654
% es.Ey (V/m) @ t=0.94
10.277978831695076
% es.Ez (V/m) @ t=0.94
12.321010891315684
% es.tEx (V/m) @ t=0.94
-12.81034626161464
% es.tEy (V/m) @ t=0.94
0
% es.tEz (V/m) @ t=0.94
12.321010891315694
% V (V) @ t=0.94
0.00851346674433906
% es.normE (V/m) @ t=0.96
27.372941556911606
% es.EX (V/m) @ t=0.96
-12.926916196059189
% es.EY (V/m) @ t=0.96
10.371482163951427
% es.EZ (V/m) @ t=0.96
12.433055511326032
% es.tEX (V/m) @ t=0.96
-12.926916196059196
% es.tEY (V/m) @ t=0.96
0
% es.tEZ (V/m) @ t=0.96
12.433055511326046
% es.Ex (V/m) @ t=0.96
-12.926916196059189
% es.Ey (V/m) @ t=0.96
10.371482163951427
% es.Ez (V/m) @ t=0.96
12.433055511326032
% es.tEx (V/m) @ t=0.96
-12.926916196059196
% es.tEy (V/m) @ t=0.96
0
% es.tEz (V/m) @ t=0.96
12.433055511326046
% V (V) @ t=0.96
0.008590904486510056
% es.normE (V/m) @ t=0.98
27.61969833408081
% es.EX (V/m) @ t=0.98
-13.043486130503773
% es.EY (V/m) @ t=0.98
10.464985496207678
% es.EZ (V/m) @ t=0.98
12.545100131336309
% es.tEX (V/m) @ t=0.98
-13.043486130503751
% es.tEY (V/m) @ t=0.98
0
% es.tEZ (V/m) @ t=0.98
12.545100131336312
% es.Ex (V/m) @ t=0.98
-13.043486130503773
% es.Ey (V/m) @ t=0.98
10.464985496207678
% es.Ez (V/m) @ t=0.98
12.545100131336309
% es.tEx (V/m) @ t=0.98
-13.043486130503751
% es.tEy (V/m) @ t=0.98
0
% es.tEz (V/m) @ t=0.98
12.545100131336312
% V (V) @ t=0.98
0.008668342228681052
% es.normE (V/m) @ t=1
27.866455111358515
% es.EX (V/m) @ t=1
-13.16005606494835
% es.EY (V/m) @ t=1
10.558488828463975
% es.EZ (V/m) @ t=1
12.657144751346667
% es.tEX (V/m) @ t=1
-13.160056064948343
% es.tEY (V/m) @ t=1
0
% es.tEZ (V/m) @ t=1
12.657144751346692
% es.Ex (V/m) @ t=1
-13.16005606494835
% es.Ey (V/m) @ t=1
10.558488828463975
% es.Ez (V/m) @ t=1
12.657144751346667
% es.tEx (V/m) @ t=1
-13.160056064948343
% es.tEy (V/m) @ t=1
0
% es.tEz (V/m) @ t=1
12.657144751346692
% V (V) @ t=1
0.008745779970852047
% es.normE (V/m) @ t=1.02
28.11321188874173
% es.EX (V/m) @ t=1.02
-13.276625999392891
% es.EY (V/m) @ t=1.02
10.651992160720244
% es.EZ (V/m) @ t=1.02
12.769189371357001
% es.tEX (V/m) @ t=1.02
-13.276625999392884
% es.tEY (V/m) @ t=1.02
0
% es.tEZ (V/m) @ t=1.02
12.769189371356987
% es.Ex (V/m) @ t=1.02
-13.276625999392891
% es.Ey (V/m) @ t=1.02
10.651992160720244
% es.Ez (V/m) @ t=1.02
12.769189371357001
% es.tEx (V/m) @ t=1.02
-13.276625999392884
% es.tEy (V/m) @ t=1.02
0
% es.tEz (V/m) @ t=1.02
12.769189371356987
% V (V) @ t=1.02
0.008823217713023043
% es.normE (V/m) @ t=1.04
28.359968666227857
% es.EX (V/m) @ t=1.04
-13.393195933837447
% es.EY (V/m) @ t=1.04
10.745495492976563
% es.EZ (V/m) @ t=1.04
12.881233991367349
% es.tEX (V/m) @ t=1.04
-13.393195933837461
% es.tEY (V/m) @ t=1.04
0
% es.tEZ (V/m) @ t=1.04
12.881233991367338
% es.Ex (V/m) @ t=1.04
-13.393195933837447
% es.Ey (V/m) @ t=1.04
10.745495492976563
% es.Ez (V/m) @ t=1.04
12.881233991367349
% es.tEx (V/m) @ t=1.04
-13.393195933837461
% es.tEy (V/m) @ t=1.04
0
% es.tEz (V/m) @ t=1.04
12.881233991367338
% V (V) @ t=1.04