% Model:              1 neuron.mph
% Version:            COMSOL 6.0.0.405
% Date:               Mar 9 2023, 13:28
% Dimension:          0
% Nodes:              14017
% Expressions:        14017
% Description:        Electric field norm, Electric field, X component, Electric field, Y component, Electric field, Z component, Tangential electric field, X component, Tangential electric field, Y component, Tangential electric field, Z component, Electric field, x component, Electric field, y component, Electric field, z component, Tangential electric field, x component, Tangential electric field, y component, Tangential electric field, z component, Electric potential
% Length unit:        mm
% x
1.33
% y
12.2
% z
1.33
% es.normE (V/m) @ t=0
7.737985531217426
% es.EX (V/m) @ t=0
5.99604146213159
% es.EY (V/m) @ t=0
-0.9187711883625198
% es.EZ (V/m) @ t=0
4.790188176392347
% es.tEX (V/m) @ t=0
5.996041462131593
% es.tEY (V/m) @ t=0
0
% es.tEZ (V/m) @ t=0
4.790188176392336
% es.Ex (V/m) @ t=0
5.99604146213159
% es.Ey (V/m) @ t=0
-0.9187711883625198
% es.Ez (V/m) @ t=0
4.790188176392347
% es.tEx (V/m) @ t=0
5.996041462131593
% es.tEy (V/m) @ t=0
0
% es.tEz (V/m) @ t=0
4.790188176392336
% V (V) @ t=0
0.006390282173603544
% es.normE (V/m) @ t=0.02
6.683452035860016
% es.EX (V/m) @ t=0.02
5.178900276929891
% es.EY (V/m) @ t=0.02
-0.7935609173595886
% es.EZ (V/m) @ t=0.02
4.13738084690493
% es.tEX (V/m) @ t=0.02
5.178900276929923
% es.tEY (V/m) @ t=0.02
0
% es.tEZ (V/m) @ t=0.02
4.137380846904925
% es.Ex (V/m) @ t=0.02
5.178900276929891
% es.Ey (V/m) @ t=0.02
-0.7935609173595886
% es.Ez (V/m) @ t=0.02
4.13738084690493
% es.tEx (V/m) @ t=0.02
5.178900276929923
% es.tEy (V/m) @ t=0.02
0
% es.tEz (V/m) @ t=0.02
4.137380846904925
% V (V) @ t=0.02
0.005519413789322134
% es.normE (V/m) @ t=0.04
6.7449308328908675
% es.EX (V/m) @ t=0.04
5.226539177751752
% es.EY (V/m) @ t=0.04
-0.8008605176898671
% es.EZ (V/m) @ t=0.04
4.175439277068364
% es.tEX (V/m) @ t=0.04
5.226539177751779
% es.tEY (V/m) @ t=0.04
0
% es.tEZ (V/m) @ t=0.04
4.175439277068362
% es.Ex (V/m) @ t=0.04
5.226539177751752
% es.Ey (V/m) @ t=0.04
-0.8008605176898671
% es.Ez (V/m) @ t=0.04
4.175439277068364
% es.tEx (V/m) @ t=0.04
5.226539177751779
% es.tEy (V/m) @ t=0.04
0
% es.tEz (V/m) @ t=0.04
4.175439277068362
% V (V) @ t=0.04
0.0055701848678623486
% es.normE (V/m) @ t=0.06
6.806974788036753
% es.EX (V/m) @ t=0.06
5.274616079141014
% es.EY (V/m) @ t=0.06
-0.8082273986704003
% es.EZ (V/m) @ t=0.06
4.213847431648206
% es.tEX (V/m) @ t=0.06
5.274616079141057
% es.tEY (V/m) @ t=0.06
0
% es.tEZ (V/m) @ t=0.06
4.213847431648208
% es.Ex (V/m) @ t=0.06
5.274616079141014
% es.Ey (V/m) @ t=0.06
-0.8082273986704003
% es.Ez (V/m) @ t=0.06
4.213847431648206
% es.tEx (V/m) @ t=0.06
5.274616079141057
% es.tEy (V/m) @ t=0.06
0
% es.tEz (V/m) @ t=0.06
4.213847431648208
% V (V) @ t=0.06
0.005621422907460403
% es.normE (V/m) @ t=0.08
6.869934173539618
% es.EX (V/m) @ t=0.08
5.323401470008904
% es.EY (V/m) @ t=0.08
-0.8157007561789724
% es.EZ (V/m) @ t=0.08
4.2528239905975855
% es.tEX (V/m) @ t=0.08
5.323401470008913
% es.tEY (V/m) @ t=0.08
0
% es.tEZ (V/m) @ t=0.08
4.252823990597593
% es.Ex (V/m) @ t=0.08
5.323401470008904
% es.Ey (V/m) @ t=0.08
-0.8157007561789724
% es.Ez (V/m) @ t=0.08
4.2528239905975855
% es.tEx (V/m) @ t=0.08
5.323401470008913
% es.tEy (V/m) @ t=0.08
0
% es.tEz (V/m) @ t=0.08
4.252823990597593
% V (V) @ t=0.08
0.00567341399279408
% es.normE (V/m) @ t=0.1
6.933579905545903
% es.EX (V/m) @ t=0.1
5.372718052866441
% es.EY (V/m) @ t=0.1
-0.8232539447655087
% es.EZ (V/m) @ t=0.1
4.292226712330027
% es.tEX (V/m) @ t=0.1
5.372718052866464
% es.tEY (V/m) @ t=0.1
0
% es.tEZ (V/m) @ t=0.1
4.292226712330027
% es.Ex (V/m) @ t=0.1
5.372718052866441
% es.Ey (V/m) @ t=0.1
-0.8232539447655087
% es.Ez (V/m) @ t=0.1
4.292226712330027
% es.tEx (V/m) @ t=0.1
5.372718052866464
% es.tEy (V/m) @ t=0.1
0
% es.tEz (V/m) @ t=0.1
4.292226712330027
% V (V) @ t=0.1
0.005725969676297099
% es.normE (V/m) @ t=0.12
6.997225637558624
% es.EX (V/m) @ t=0.12
5.422034635724009
% es.EY (V/m) @ t=0.12
-0.8308071333520148
% es.EZ (V/m) @ t=0.12
4.331629434062479
% es.tEX (V/m) @ t=0.12
5.422034635724042
% es.tEY (V/m) @ t=0.12
0
% es.tEZ (V/m) @ t=0.12
4.331629434062474
% es.Ex (V/m) @ t=0.12
5.422034635724009
% es.Ey (V/m) @ t=0.12
-0.8308071333520148
% es.Ez (V/m) @ t=0.12
4.331629434062479
% es.tEx (V/m) @ t=0.12
5.422034635724042
% es.tEy (V/m) @ t=0.12
0
% es.tEz (V/m) @ t=0.12
4.331629434062474
% V (V) @ t=0.12
0.005778525359800117
% es.normE (V/m) @ t=0.14
7.0613974137135695
% es.EX (V/m) @ t=0.14
5.4717592368802475
% es.EY (V/m) @ t=0.14
-0.8384237983635563
% es.EZ (V/m) @ t=0.14
4.371357019948479
% es.tEX (V/m) @ t=0.14
5.471759236880278
% es.tEY (V/m) @ t=0.14
0
% es.tEZ (V/m) @ t=0.14
4.371357019948484
% es.Ex (V/m) @ t=0.14
5.4717592368802475
% es.Ey (V/m) @ t=0.14
-0.8384237983635563
% es.Ez (V/m) @ t=0.14
4.371357019948479
% es.tEx (V/m) @ t=0.14
5.471759236880278
% es.tEy (V/m) @ t=0.14
0
% es.tEz (V/m) @ t=0.14
4.371357019948484
% V (V) @ t=0.14
0.005831516819973852
% es.normE (V/m) @ t=0.16
7.128480586693362
% es.EX (V/m) @ t=0.16
5.523742019614745
% es.EY (V/m) @ t=0.16
-0.8463917743190716
% es.EZ (V/m) @ t=0.16
4.412882569919407
% es.tEX (V/m) @ t=0.16
5.523742019614767
% es.tEY (V/m) @ t=0.16
0
% es.tEZ (V/m) @ t=0.16
4.412882569919402
% es.Ex (V/m) @ t=0.16
5.523742019614745
% es.Ey (V/m) @ t=0.16
-0.8463917743190716
% es.Ez (V/m) @ t=0.16
4.412882569919407
% es.tEx (V/m) @ t=0.16
5.523742019614767
% es.tEy (V/m) @ t=0.16
0
% es.tEz (V/m) @ t=0.16
4.412882569919402
% V (V) @ t=0.16
0.005886920090728832
% es.normE (V/m) @ t=0.18
7.195563759676995
% es.EX (V/m) @ t=0.18
5.575724802349264
% es.EY (V/m) @ t=0.18
-0.8543597502745657
% es.EZ (V/m) @ t=0.18
4.454408119890339
% es.tEX (V/m) @ t=0.18
5.575724802349285
% es.tEY (V/m) @ t=0.18
0
% es.tEZ (V/m) @ t=0.18
4.454408119890331
% es.Ex (V/m) @ t=0.18
5.575724802349264
% es.Ey (V/m) @ t=0.18
-0.8543597502745657
% es.Ez (V/m) @ t=0.18
4.454408119890339
% es.tEx (V/m) @ t=0.18
5.575724802349285
% es.tEy (V/m) @ t=0.18
0
% es.tEz (V/m) @ t=0.18
4.454408119890331
% V (V) @ t=0.18
0.005942323361483811
% es.normE (V/m) @ t=0.2
7.262646932664328
% es.EX (V/m) @ t=0.2
5.6277075850837575
% es.EY (V/m) @ t=0.2
-0.8623277262300668
% es.EZ (V/m) @ t=0.2
4.495933669861274
% es.tEX (V/m) @ t=0.2
5.627707585083774
% es.tEY (V/m) @ t=0.2
0
% es.tEZ (V/m) @ t=0.2
4.495933669861274
% es.Ex (V/m) @ t=0.2
5.6277075850837575
% es.Ey (V/m) @ t=0.2
-0.8623277262300668
% es.Ez (V/m) @ t=0.2
4.495933669861274
% es.tEx (V/m) @ t=0.2
5.627707585083774
% es.tEy (V/m) @ t=0.2
0
% es.tEz (V/m) @ t=0.2
4.495933669861274
% V (V) @ t=0.2
0.00599772663223879
% es.normE (V/m) @ t=0.22
7.329730105655299
% es.EX (V/m) @ t=0.22
5.679690367818273
% es.EY (V/m) @ t=0.22
-0.870295702185583
% es.EZ (V/m) @ t=0.22
4.5374592198322095
% es.tEX (V/m) @ t=0.22
5.679690367818278
% es.tEY (V/m) @ t=0.22
0
% es.tEZ (V/m) @ t=0.22
4.537459219832204
% es.Ex (V/m) @ t=0.22
5.679690367818273
% es.Ey (V/m) @ t=0.22
-0.870295702185583
% es.Ez (V/m) @ t=0.22
4.5374592198322095
% es.tEx (V/m) @ t=0.22
5.679690367818278
% es.tEy (V/m) @ t=0.22
0
% es.tEz (V/m) @ t=0.22
4.537459219832204
% V (V) @ t=0.22
0.006053129902993768
% es.normE (V/m) @ t=0.24
7.396813278649801
% es.EX (V/m) @ t=0.24
5.7316731505528224
% es.EY (V/m) @ t=0.24
-0.8782636781410353
% es.EZ (V/m) @ t=0.24
4.578984769803134
% es.tEX (V/m) @ t=0.24
5.731673150552838
% es.tEY (V/m) @ t=0.24
0
% es.tEZ (V/m) @ t=0.24
4.578984769803125
% es.Ex (V/m) @ t=0.24
5.7316731505528224
% es.Ey (V/m) @ t=0.24
-0.8782636781410353
% es.Ez (V/m) @ t=0.24
4.578984769803134
% es.tEx (V/m) @ t=0.24
5.731673150552838
% es.tEy (V/m) @ t=0.24
0
% es.tEz (V/m) @ t=0.24
4.578984769803125
% V (V) @ t=0.24
0.006108533173748749
% es.normE (V/m) @ t=0.26
7.4638964516476936
% es.EX (V/m) @ t=0.26
5.7836559332873065
% es.EY (V/m) @ t=0.26
-0.8862316540965827
% es.EZ (V/m) @ t=0.26
4.620510319774077
% es.tEX (V/m) @ t=0.26
5.783655933287342
% es.tEY (V/m) @ t=0.26
0
% es.tEZ (V/m) @ t=0.26
4.620510319774068
% es.Ex (V/m) @ t=0.26
5.7836559332873065
% es.Ey (V/m) @ t=0.26
-0.8862316540965827
% es.Ez (V/m) @ t=0.26
4.620510319774077
% es.tEx (V/m) @ t=0.26
5.783655933287342
% es.tEy (V/m) @ t=0.26
0
% es.tEz (V/m) @ t=0.26
4.620510319774068
% V (V) @ t=0.26
0.006163936444503727
% es.normE (V/m) @ t=0.28
7.533406287510223
% es.EX (V/m) @ t=0.28
5.837518577648638
% es.EY (V/m) @ t=0.28
-0.8944864329559206
% es.EZ (V/m) @ t=0.28
4.663539119675166
% es.tEX (V/m) @ t=0.28
5.837518577648652
% es.tEY (V/m) @ t=0.28
0
% es.tEZ (V/m) @ t=0.28
4.663539119675166
% es.Ex (V/m) @ t=0.28
5.837518577648638
% es.Ey (V/m) @ t=0.28
-0.8944864329559206
% es.Ez (V/m) @ t=0.28
4.663539119675166
% es.tEx (V/m) @ t=0.28
5.837518577648652
% es.tEy (V/m) @ t=0.28
0
% es.tEz (V/m) @ t=0.28
4.663539119675166
% V (V) @ t=0.28
0.0062213419820629275
% es.normE (V/m) @ t=0.3
7.608166772277416
% es.EX (V/m) @ t=0.3
5.8954487394002015
% es.EY (V/m) @ t=0.3
-0.9033617765325292
% es.EZ (V/m) @ t=0.3
4.70982055006016
% es.tEX (V/m) @ t=0.3
5.89544873940023
% es.tEY (V/m) @ t=0.3
0
% es.tEZ (V/m) @ t=0.3
4.70982055006016
% es.Ex (V/m) @ t=0.3
5.8954487394002015
% es.Ey (V/m) @ t=0.3
-0.9033617765325292
% es.Ez (V/m) @ t=0.3
4.70982055006016
% es.tEx (V/m) @ t=0.3
5.89544873940023
% es.tEy (V/m) @ t=0.3
0
% es.tEz (V/m) @ t=0.3
4.70982055006016
% V (V) @ t=0.3
0.006283079889052974
% es.normE (V/m) @ t=0.32
7.682927257045451
% es.EX (V/m) @ t=0.32
5.953378901151783
% es.EY (V/m) @ t=0.32
-0.9122371201091806
% es.EZ (V/m) @ t=0.32
4.75610198044515
% es.tEX (V/m) @ t=0.32
5.953378901151794
% es.tEY (V/m) @ t=0.32
0
% es.tEZ (V/m) @ t=0.32
4.7561019804451465
% es.Ex (V/m) @ t=0.32
5.953378901151783
% es.Ey (V/m) @ t=0.32
-0.9122371201091806
% es.Ez (V/m) @ t=0.32
4.75610198044515
% es.tEx (V/m) @ t=0.32
5.953378901151794
% es.tEy (V/m) @ t=0.32
0
% es.tEz (V/m) @ t=0.32
4.7561019804451465
% V (V) @ t=0.32
0.00634481779604302
% es.normE (V/m) @ t=0.34
7.757687741814266
% es.EX (V/m) @ t=0.34
6.0113090629033294
% es.EY (V/m) @ t=0.34
-0.9211124636858274
% es.EZ (V/m) @ t=0.34
4.802383410830147
% es.tEX (V/m) @ t=0.34
6.01130906290336
% es.tEY (V/m) @ t=0.34
0
% es.tEZ (V/m) @ t=0.34
4.802383410830147
% es.Ex (V/m) @ t=0.34
6.0113090629033294
% es.Ey (V/m) @ t=0.34
-0.9211124636858274
% es.Ez (V/m) @ t=0.34
4.802383410830147
% es.tEx (V/m) @ t=0.34
6.01130906290336
% es.tEy (V/m) @ t=0.34
0
% es.tEz (V/m) @ t=0.34
4.802383410830147
% V (V) @ t=0.34
0.006406555703033066
% es.normE (V/m) @ t=0.36
7.832448226583917
% es.EX (V/m) @ t=0.36
6.069239224654933
% es.EY (V/m) @ t=0.36
-0.929987807262469
% es.EZ (V/m) @ t=0.36
4.848664841215162
% es.tEX (V/m) @ t=0.36
6.069239224654966
% es.tEY (V/m) @ t=0.36
0
% es.tEZ (V/m) @ t=0.36
4.848664841215161
% es.Ex (V/m) @ t=0.36
6.069239224654933
% es.Ey (V/m) @ t=0.36
-0.929987807262469
% es.Ez (V/m) @ t=0.36
4.848664841215162
% es.tEx (V/m) @ t=0.36
6.069239224654966
% es.tEy (V/m) @ t=0.36
0
% es.tEz (V/m) @ t=0.36
4.848664841215161
% V (V) @ t=0.36
0.006468293610023111
% es.normE (V/m) @ t=0.38
7.907208711354286
% es.EX (V/m) @ t=0.38
6.127169386406504
% es.EY (V/m) @ t=0.38
-0.9388631508391097
% es.EZ (V/m) @ t=0.38
4.894946271600156
% es.tEX (V/m) @ t=0.38
6.127169386406531
% es.tEY (V/m) @ t=0.38
0
% es.tEZ (V/m) @ t=0.38
4.894946271600162
% es.Ex (V/m) @ t=0.38
6.127169386406504
% es.Ey (V/m) @ t=0.38
-0.9388631508391097
% es.Ez (V/m) @ t=0.38
4.894946271600156
% es.tEx (V/m) @ t=0.38
6.127169386406531
% es.tEy (V/m) @ t=0.38
0
% es.tEz (V/m) @ t=0.38
4.894946271600162
% V (V) @ t=0.38
0.006530031517013157
% es.normE (V/m) @ t=0.4
7.9819691961253945
% es.EX (V/m) @ t=0.4
6.185099548158069
% es.EY (V/m) @ t=0.4
-0.9477384944157476
% es.EZ (V/m) @ t=0.4
4.941227701985163
% es.tEX (V/m) @ t=0.4
6.18509954815811
% es.tEY (V/m) @ t=0.4
0
% es.tEZ (V/m) @ t=0.4
4.941227701985163
% es.Ex (V/m) @ t=0.4
6.185099548158069
% es.Ey (V/m) @ t=0.4
-0.9477384944157476
% es.Ez (V/m) @ t=0.4
4.941227701985163
% es.tEx (V/m) @ t=0.4
6.18509954815811
% es.tEy (V/m) @ t=0.4
0
% es.tEz (V/m) @ t=0.4
4.941227701985163
% V (V) @ t=0.4
0.006591769424003202
% es.normE (V/m) @ t=0.42
8.056729680897238
% es.EX (V/m) @ t=0.42
6.243029709909683
% es.EY (V/m) @ t=0.42
-0.9566138379923688
% es.EZ (V/m) @ t=0.42
4.987509132370143
% es.tEX (V/m) @ t=0.42
6.243029709909717
% es.tEY (V/m) @ t=0.42
0
% es.tEZ (V/m) @ t=0.42
4.98750913237015
% es.Ex (V/m) @ t=0.42
6.243029709909683
% es.Ey (V/m) @ t=0.42
-0.9566138379923688
% es.Ez (V/m) @ t=0.42
4.987509132370143
% es.tEx (V/m) @ t=0.42
6.243029709909717
% es.tEy (V/m) @ t=0.42
0
% es.tEz (V/m) @ t=0.42
4.98750913237015
% V (V) @ t=0.42
0.006653507330993248
% es.normE (V/m) @ t=0.44
8.131490165669753
% es.EX (V/m) @ t=0.44
6.300959871661233
% es.EY (V/m) @ t=0.44
-0.9654891815690494
% es.EZ (V/m) @ t=0.44
5.033790562755151
% es.tEX (V/m) @ t=0.44
6.300959871661239
% es.tEY (V/m) @ t=0.44
0
% es.tEZ (V/m) @ t=0.44
5.03379056275515
% es.Ex (V/m) @ t=0.44
6.300959871661233
% es.Ey (V/m) @ t=0.44
-0.9654891815690494
% es.Ez (V/m) @ t=0.44
5.033790562755151
% es.tEx (V/m) @ t=0.44
6.300959871661239
% es.tEy (V/m) @ t=0.44
0
% es.tEz (V/m) @ t=0.44
5.03379056275515
% V (V) @ t=0.44
0.006715245237983294
% es.normE (V/m) @ t=0.46
8.20625065044293
% es.EX (V/m) @ t=0.46
6.35889003341279
% es.EY (V/m) @ t=0.46
-0.9743645251456918
% es.EZ (V/m) @ t=0.46
5.0800719931401375
% es.tEX (V/m) @ t=0.46
6.358890033412832
% es.tEY (V/m) @ t=0.46
0
% es.tEZ (V/m) @ t=0.46
5.080071993140137
% es.Ex (V/m) @ t=0.46
6.35889003341279
% es.Ey (V/m) @ t=0.46
-0.9743645251456918
% es.Ez (V/m) @ t=0.46
5.0800719931401375
% es.tEx (V/m) @ t=0.46
6.358890033412832
% es.tEy (V/m) @ t=0.46
0
% es.tEz (V/m) @ t=0.46
5.080071993140137
% V (V) @ t=0.46
0.00677698314497334
% es.normE (V/m) @ t=0.48
8.281011135216813
% es.EX (V/m) @ t=0.48
6.416820195164379
% es.EY (V/m) @ t=0.48
-0.9832398687223423
% es.EZ (V/m) @ t=0.48
5.126353423525156
% es.tEX (V/m) @ t=0.48
6.416820195164368
% es.tEY (V/m) @ t=0.48
0
% es.tEZ (V/m) @ t=0.48
5.126353423525144
% es.Ex (V/m) @ t=0.48
6.416820195164379
% es.Ey (V/m) @ t=0.48
-0.9832398687223423
% es.Ez (V/m) @ t=0.48
5.126353423525156
% es.tEx (V/m) @ t=0.48
6.416820195164368
% es.tEy (V/m) @ t=0.48
0
% es.tEz (V/m) @ t=0.48
5.126353423525144
% V (V) @ t=0.48
0.006838721051963386
% es.normE (V/m) @ t=0.5
8.355771619991303
% es.EX (V/m) @ t=0.5
6.474750356915944
% es.EY (V/m) @ t=0.5
-0.9921152122989705
% es.EZ (V/m) @ t=0.5
5.172634853910154
% es.tEX (V/m) @ t=0.5
6.474750356915947
% es.tEY (V/m) @ t=0.5
0
% es.tEZ (V/m) @ t=0.5
5.172634853910152
% es.Ex (V/m) @ t=0.5
6.474750356915944
% es.Ey (V/m) @ t=0.5
-0.9921152122989705
% es.Ez (V/m) @ t=0.5
5.172634853910154
% es.tEx (V/m) @ t=0.5
6.474750356915947
% es.tEy (V/m) @ t=0.5
0
% es.tEz (V/m) @ t=0.5
5.172634853910152
% V (V) @ t=0.5
0.006900458958953431
% es.normE (V/m) @ t=0.52
8.430532104766435
% es.EX (V/m) @ t=0.52
6.532680518667529
% es.EY (V/m) @ t=0.52
-1.0009905558755943
% es.EZ (V/m) @ t=0.52
5.218916284295151
% es.tEX (V/m) @ t=0.52
6.532680518667554
% es.tEY (V/m) @ t=0.52
0
% es.tEZ (V/m) @ t=0.52
5.218916284295152
% es.Ex (V/m) @ t=0.52
6.532680518667529
% es.Ey (V/m) @ t=0.52
-1.0009905558755943
% es.Ez (V/m) @ t=0.52
5.218916284295151
% es.tEx (V/m) @ t=0.52
6.532680518667554
% es.tEy (V/m) @ t=0.52
0
% es.tEz (V/m) @ t=0.52
5.218916284295152
% V (V) @ t=0.52
0.006962196865943477
% es.normE (V/m) @ t=0.54
8.505292589542172
% es.EX (V/m) @ t=0.54
6.590610680419108
% es.EY (V/m) @ t=0.54
-1.0098658994522545
% es.EZ (V/m) @ t=0.54
5.265197714680152
% es.tEX (V/m) @ t=0.54
6.590610680419133
% es.tEY (V/m) @ t=0.54
0
% es.tEZ (V/m) @ t=0.54
5.265197714680146
% es.Ex (V/m) @ t=0.54
6.590610680419108
% es.Ey (V/m) @ t=0.54
-1.0098658994522545
% es.Ez (V/m) @ t=0.54
5.265197714680152
% es.tEx (V/m) @ t=0.54
6.590610680419133
% es.tEy (V/m) @ t=0.54
0
% es.tEz (V/m) @ t=0.54
5.265197714680146
% V (V) @ t=0.54
0.007023934772933523
% es.normE (V/m) @ t=0.56
8.585657147684525
% es.EX (V/m) @ t=0.56
6.652883396315759
% es.EY (V/m) @ t=0.56
-1.0194067003431666
% es.EZ (V/m) @ t=0.56
5.31494826329363
% es.tEX (V/m) @ t=0.56
6.652883396315788
% es.tEY (V/m) @ t=0.56
0
% es.tEZ (V/m) @ t=0.56
5.314948263293621
% es.Ex (V/m) @ t=0.56
6.652883396315759
% es.Ey (V/m) @ t=0.56
-1.0194067003431666
% es.Ez (V/m) @ t=0.56
5.31494826329363
% es.tEx (V/m) @ t=0.56
6.652883396315788
% es.tEy (V/m) @ t=0.56
0
% es.tEz (V/m) @ t=0.56
5.314948263293621
% V (V) @ t=0.56
0.007090300706631764
% es.normE (V/m) @ t=0.58
8.66914427475381
% es.EX (V/m) @ t=0.58
6.717575767300614
% es.EY (V/m) @ t=0.58
-1.029318291585195
% es.EZ (V/m) @ t=0.58
5.366631791737114
% es.tEX (V/m) @ t=0.58
6.71757576730065
% es.tEY (V/m) @ t=0.58
0
% es.tEZ (V/m) @ t=0.58
5.366631791737106
% es.Ex (V/m) @ t=0.58
6.717575767300614
% es.Ey (V/m) @ t=0.58
-1.029318291585195
% es.Ez (V/m) @ t=0.58
5.366631791737114
% es.tEx (V/m) @ t=0.58
6.71757576730065
% es.tEy (V/m) @ t=0.58
0
% es.tEz (V/m) @ t=0.58
5.366631791737106
% V (V) @ t=0.58
0.007159245359673217
% es.normE (V/m) @ t=0.6
8.752631401823571
% es.EX (V/m) @ t=0.6
6.78226813828547
% es.EY (V/m) @ t=0.6
-1.0392298828272484
% es.EZ (V/m) @ t=0.6
5.418315320180623
% es.tEX (V/m) @ t=0.6
6.7822681382855095
% es.tEY (V/m) @ t=0.6
0
% es.tEZ (V/m) @ t=0.6
5.4183153201806125
% es.Ex (V/m) @ t=0.6
6.78226813828547
% es.Ey (V/m) @ t=0.6
-1.0392298828272484
% es.Ez (V/m) @ t=0.6
5.418315320180623
% es.tEx (V/m) @ t=0.6
6.7822681382855095
% es.tEy (V/m) @ t=0.6
0
% es.tEz (V/m) @ t=0.6
5.4183153201806125
% V (V) @ t=0.6
0.007228190012714671
% es.normE (V/m) @ t=0.62
8.836118528893774
% es.EX (V/m) @ t=0.62
6.846960509270344
% es.EY (V/m) @ t=0.62
-1.049141474069307
% es.EZ (V/m) @ t=0.62
5.4699988486241
% es.tEX (V/m) @ t=0.62
6.846960509270371
% es.tEY (V/m) @ t=0.62
0
% es.tEZ (V/m) @ t=0.62
5.469998848624106
% es.Ex (V/m) @ t=0.62
6.846960509270344
% es.Ey (V/m) @ t=0.62
-1.049141474069307
% es.Ez (V/m) @ t=0.62
5.4699988486241
% es.tEx (V/m) @ t=0.62
6.846960509270371
% es.tEy (V/m) @ t=0.62
0
% es.tEz (V/m) @ t=0.62
5.469998848624106
% V (V) @ t=0.62
0.007297134665756126
% es.normE (V/m) @ t=0.64
8.919605655964396
% es.EX (V/m) @ t=0.64
6.911652880255175
% es.EY (V/m) @ t=0.64
-1.0590530653113586
% es.EZ (V/m) @ t=0.64
5.521682377067602
% es.tEX (V/m) @ t=0.64
6.911652880255216
% es.tEY (V/m) @ t=0.64
0
% es.tEZ (V/m) @ t=0.64
5.521682377067606
% es.Ex (V/m) @ t=0.64
6.911652880255175
% es.Ey (V/m) @ t=0.64
-1.0590530653113586
% es.Ez (V/m) @ t=0.64
5.521682377067602
% es.tEx (V/m) @ t=0.64
6.911652880255216
% es.tEy (V/m) @ t=0.64
0
% es.tEz (V/m) @ t=0.64
5.521682377067606
% V (V) @ t=0.64
0.0073660793187975806
% es.normE (V/m) @ t=0.66
9.003092783035434
% es.EX (V/m) @ t=0.66
6.976345251240006
% es.EY (V/m) @ t=0.66
-1.0689646565534314
% es.EZ (V/m) @ t=0.66
5.5733659055110945
% es.tEX (V/m) @ t=0.66
6.976345251240035
% es.tEY (V/m) @ t=0.66
0
% es.tEZ (V/m) @ t=0.66
5.57336590551109
% es.Ex (V/m) @ t=0.66
6.976345251240006
% es.Ey (V/m) @ t=0.66
-1.0689646565534314
% es.Ez (V/m) @ t=0.66
5.5733659055110945
% es.tEx (V/m) @ t=0.66
6.976345251240035
% es.tEy (V/m) @ t=0.66
0
% es.tEz (V/m) @ t=0.66
5.57336590551109
% V (V) @ t=0.66
0.0074350239718390335
% es.normE (V/m) @ t=0.68
9.086579910106877
% es.EX (V/m) @ t=0.68
7.041037622224843
% es.EY (V/m) @ t=0.68
-1.0788762477955025
% es.EZ (V/m) @ t=0.68
5.625049433954572
% es.tEX (V/m) @ t=0.68
7.041037622224881
% es.tEY (V/m) @ t=0.68
0
% es.tEZ (V/m) @ t=0.68
5.625049433954569
% es.Ex (V/m) @ t=0.68
7.041037622224843
% es.Ey (V/m) @ t=0.68
-1.0788762477955025
% es.Ez (V/m) @ t=0.68
5.625049433954572
% es.tEx (V/m) @ t=0.68
7.041037622224881
% es.tEy (V/m) @ t=0.68
0
% es.tEz (V/m) @ t=0.68
5.625049433954569
% V (V) @ t=0.68
0.007503968624880489
% es.normE (V/m) @ t=0.7
9.170067037178734
% es.EX (V/m) @ t=0.7
7.105729993209682
% es.EY (V/m) @ t=0.7
-1.0887878390375239
% es.EZ (V/m) @ t=0.7
5.67673296239807
% es.tEX (V/m) @ t=0.7
7.105729993209714
% es.tEY (V/m) @ t=0.7
0
% es.tEZ (V/m) @ t=0.7
5.676732962398069
% es.Ex (V/m) @ t=0.7
7.105729993209682
% es.Ey (V/m) @ t=0.7
-1.0887878390375239
% es.Ez (V/m) @ t=0.7
5.67673296239807
% es.tEx (V/m) @ t=0.7
7.105729993209714
% es.tEy (V/m) @ t=0.7
0
% es.tEz (V/m) @ t=0.7
5.676732962398069
% V (V) @ t=0.7
0.007572913277921944
% es.normE (V/m) @ t=0.72
9.253554164251016
% es.EX (V/m) @ t=0.72
7.170422364194576
% es.EY (V/m) @ t=0.72
-1.0986994302795843
% es.EZ (V/m) @ t=0.72
5.728416490841552
% es.tEX (V/m) @ t=0.72
7.170422364194616
% es.tEY (V/m) @ t=0.72
0
% es.tEZ (V/m) @ t=0.72
5.728416490841547
% es.Ex (V/m) @ t=0.72
7.170422364194576
% es.Ey (V/m) @ t=0.72
-1.0986994302795843
% es.Ez (V/m) @ t=0.72
5.728416490841552
% es.tEx (V/m) @ t=0.72
7.170422364194616
% es.tEy (V/m) @ t=0.72
0
% es.tEz (V/m) @ t=0.72
5.728416490841547
% V (V) @ t=0.72
0.007641857930963397
% es.normE (V/m) @ t=0.74
9.337041291323633
% es.EX (V/m) @ t=0.74
7.235114735179399
% es.EY (V/m) @ t=0.74
-1.1086110215216483
% es.EZ (V/m) @ t=0.74
5.780100019285054
% es.tEX (V/m) @ t=0.74
7.235114735179421
% es.tEY (V/m) @ t=0.74
0
% es.tEZ (V/m) @ t=0.74
5.78010001928504
% es.Ex (V/m) @ t=0.74
7.235114735179399
% es.Ey (V/m) @ t=0.74
-1.1086110215216483
% es.Ez (V/m) @ t=0.74
5.780100019285054
% es.tEx (V/m) @ t=0.74
7.235114735179421
% es.tEy (V/m) @ t=0.74
0
% es.tEz (V/m) @ t=0.74
5.78010001928504
% V (V) @ t=0.74
0.007710802584004851
% es.normE (V/m) @ t=0.76
9.42052841839665
% es.EX (V/m) @ t=0.76
7.299807106164273
% es.EY (V/m) @ t=0.76
-1.1185226127636945
% es.EZ (V/m) @ t=0.76
5.831783547728541
% es.tEX (V/m) @ t=0.76
7.299807106164281
% es.tEY (V/m) @ t=0.76
0
% es.tEZ (V/m) @ t=0.76
5.831783547728554
% es.Ex (V/m) @ t=0.76
7.299807106164273
% es.Ey (V/m) @ t=0.76
-1.1185226127636945
% es.Ez (V/m) @ t=0.76
5.831783547728541
% es.tEx (V/m) @ t=0.76
7.299807106164281
% es.tEy (V/m) @ t=0.76
0
% es.tEz (V/m) @ t=0.76
5.831783547728554
% V (V) @ t=0.76
0.007779747237046305
% es.normE (V/m) @ t=0.78
9.504015545469999
% es.EX (V/m) @ t=0.78
7.3644994771490975
% es.EY (V/m) @ t=0.78
-1.128434204005762
% es.EZ (V/m) @ t=0.78
5.8834670761720504
% es.tEX (V/m) @ t=0.78
7.364499477149128
% es.tEY (V/m) @ t=0.78
0
% es.tEZ (V/m) @ t=0.78
5.883467076172039
% es.Ex (V/m) @ t=0.78
7.3644994771490975
% es.Ey (V/m) @ t=0.78
-1.128434204005762
% es.Ez (V/m) @ t=0.78
5.8834670761720504
% es.tEx (V/m) @ t=0.78
7.364499477149128
% es.tEy (V/m) @ t=0.78
0
% es.tEz (V/m) @ t=0.78
5.883467076172039
% V (V) @ t=0.78
0.00784869189008776
% es.normE (V/m) @ t=0.8
9.587502672543692
% es.EX (V/m) @ t=0.8
7.429191848133949
% es.EY (V/m) @ t=0.8
-1.1383457952478313
% es.EZ (V/m) @ t=0.8
5.935150604615513
% es.tEX (V/m) @ t=0.8
7.429191848133987
% es.tEY (V/m) @ t=0.8
0
% es.tEZ (V/m) @ t=0.8
5.935150604615532
% es.Ex (V/m) @ t=0.8
7.429191848133949
% es.Ey (V/m) @ t=0.8
-1.1383457952478313
% es.Ez (V/m) @ t=0.8
5.935150604615513
% es.tEx (V/m) @ t=0.8
7.429191848133987
% es.tEy (V/m) @ t=0.8
0
% es.tEz (V/m) @ t=0.8
5.935150604615532
% V (V) @ t=0.8
0.007917636543129214
% es.normE (V/m) @ t=0.82
9.67098979961775
% es.EX (V/m) @ t=0.82
7.493884219118802
% es.EY (V/m) @ t=0.82
-1.1482573864898598
% es.EZ (V/m) @ t=0.82
5.98683413305902
% es.tEX (V/m) @ t=0.82
7.49388421911882
% es.tEY (V/m) @ t=0.82
0
% es.tEZ (V/m) @ t=0.82
5.986834133059017
% es.Ex (V/m) @ t=0.82
7.493884219118802
% es.Ey (V/m) @ t=0.82
-1.1482573864898598
% es.Ez (V/m) @ t=0.82
5.98683413305902
% es.tEx (V/m) @ t=0.82
7.49388421911882
% es.tEy (V/m) @ t=0.82
0
% es.tEz (V/m) @ t=0.82
5.986834133059017
% V (V) @ t=0.82
0.007986581196170668
% es.normE (V/m) @ t=0.84
9.764139014487945
% es.EX (V/m) @ t=0.84
7.566071596164543
% es.EY (V/m) @ t=0.84
-1.1593369469520134
% es.EZ (V/m) @ t=0.84
6.044483058980088
% es.tEX (V/m) @ t=0.84
7.566071596164567
% es.tEY (V/m) @ t=0.84
0
% es.tEZ (V/m) @ t=0.84
6.0444830589800755
% es.Ex (V/m) @ t=0.84
7.566071596164543
% es.Ey (V/m) @ t=0.84
-1.1593369469520134
% es.Ez (V/m) @ t=0.84
6.044483058980088
% es.tEx (V/m) @ t=0.84
7.566071596164567
% es.tEy (V/m) @ t=0.84
0
% es.tEz (V/m) @ t=0.84
6.0444830589800755
% V (V) @ t=0.84
0.00806353285826793
% es.normE (V/m) @ t=0.86
9.857604779557764
% es.EX (V/m) @ t=0.86
7.6385045251795205
% es.EY (V/m) @ t=0.86
-1.1704547725122207
% es.EZ (V/m) @ t=0.86
6.102327423715497
% es.tEX (V/m) @ t=0.86
7.638504525179543
% es.tEY (V/m) @ t=0.86
0
% es.tEZ (V/m) @ t=0.86
6.102327423715484
% es.Ex (V/m) @ t=0.86
7.6385045251795205
% es.Ey (V/m) @ t=0.86
-1.1704547725122207
% es.Ez (V/m) @ t=0.86
6.102327423715497
% es.tEx (V/m) @ t=0.86
7.638504525179543
% es.tEy (V/m) @ t=0.86
0
% es.tEz (V/m) @ t=0.86
6.102327423715484
% V (V) @ t=0.86
0.00814074684661623
% es.normE (V/m) @ t=0.88
9.951070544756703
% es.EX (V/m) @ t=0.88
7.710937454194555
% es.EY (V/m) @ t=0.88
-1.1815725980724476
% es.EZ (V/m) @ t=0.88
6.160171788450887
% es.tEX (V/m) @ t=0.88
7.710937454194576
% es.tEY (V/m) @ t=0.88
0
% es.tEZ (V/m) @ t=0.88
6.160171788450884
% es.Ex (V/m) @ t=0.88
7.710937454194555
% es.Ey (V/m) @ t=0.88
-1.1815725980724476
% es.Ez (V/m) @ t=0.88
6.160171788450887
% es.tEx (V/m) @ t=0.88
7.710937454194576
% es.tEy (V/m) @ t=0.88
0
% es.tEz (V/m) @ t=0.88
6.160171788450884
% V (V) @ t=0.88
0.00821796083496453
% es.normE (V/m) @ t=0.9
10.044536310081043
% es.EX (V/m) @ t=0.9
7.7833703832094905
% es.EY (V/m) @ t=0.9
-1.1926904236326727
% es.EZ (V/m) @ t=0.9
6.218016153186285
% es.tEX (V/m) @ t=0.9
7.7833703832095225
% es.tEY (V/m) @ t=0.9
0
% es.tEZ (V/m) @ t=0.9
6.2180161531862925
% es.Ex (V/m) @ t=0.9
7.7833703832094905
% es.Ey (V/m) @ t=0.9
-1.1926904236326727
% es.Ez (V/m) @ t=0.9
6.218016153186285
% es.tEx (V/m) @ t=0.9
7.7833703832095225
% es.tEy (V/m) @ t=0.9
0
% es.tEz (V/m) @ t=0.9
6.2180161531862925
% V (V) @ t=0.9
0.00829517482331283
% es.normE (V/m) @ t=0.92
10.138002075527456
% es.EX (V/m) @ t=0.92
7.855803312224483
% es.EY (V/m) @ t=0.92
-1.2038082491928623
% es.EZ (V/m) @ t=0.92
6.275860517921715
% es.tEX (V/m) @ t=0.92
7.855803312224514
% es.tEY (V/m) @ t=0.92
0
% es.tEZ (V/m) @ t=0.92
6.2758605179217
% es.Ex (V/m) @ t=0.92
7.855803312224483
% es.Ey (V/m) @ t=0.92
-1.2038082491928623
% es.Ez (V/m) @ t=0.92
6.275860517921715
% es.tEx (V/m) @ t=0.92
7.855803312224514
% es.tEy (V/m) @ t=0.92
0
% es.tEz (V/m) @ t=0.92
6.2758605179217
% V (V) @ t=0.92
0.008372388811661129
% es.normE (V/m) @ t=0.94
10.231467841092515
% es.EX (V/m) @ t=0.94
7.928236241239468
% es.EY (V/m) @ t=0.94
-1.2149260747530786
% es.EZ (V/m) @ t=0.94
6.333704882657121
% es.tEX (V/m) @ t=0.94
7.928236241239503
% es.tEY (V/m) @ t=0.94
0
% es.tEZ (V/m) @ t=0.94
6.333704882657109
% es.Ex (V/m) @ t=0.94
7.928236241239468
% es.Ey (V/m) @ t=0.94
-1.2149260747530786
% es.Ez (V/m) @ t=0.94
6.333704882657121
% es.tEx (V/m) @ t=0.94
7.928236241239503
% es.tEy (V/m) @ t=0.94
0
% es.tEz (V/m) @ t=0.94
6.333704882657109
% V (V) @ t=0.94
0.00844960280000943
% es.normE (V/m) @ t=0.96
10.324933606773033
% es.EX (V/m) @ t=0.96
8.000669170254488
% es.EY (V/m) @ t=0.96
-1.2260439003133268
% es.EZ (V/m) @ t=0.96
6.391549247392504
% es.tEX (V/m) @ t=0.96
8.000669170254508
% es.tEY (V/m) @ t=0.96
0
% es.tEZ (V/m) @ t=0.96
6.391549247392487
% es.Ex (V/m) @ t=0.96
8.000669170254488
% es.Ey (V/m) @ t=0.96
-1.2260439003133268
% es.Ez (V/m) @ t=0.96
6.391549247392504
% es.tEx (V/m) @ t=0.96
8.000669170254508
% es.tEy (V/m) @ t=0.96
0
% es.tEz (V/m) @ t=0.96
6.391549247392487
% V (V) @ t=0.96
0.008526816788357731
% es.normE (V/m) @ t=0.98
10.418399372565865
% es.EX (V/m) @ t=0.98
8.073102099269473
% es.EY (V/m) @ t=0.98
-1.2371617258735306
% es.EZ (V/m) @ t=0.98
6.449393612127905
% es.tEX (V/m) @ t=0.98
8.073102099269484
% es.tEY (V/m) @ t=0.98
0
% es.tEZ (V/m) @ t=0.98
6.449393612127903
% es.Ex (V/m) @ t=0.98
8.073102099269473
% es.Ey (V/m) @ t=0.98
-1.2371617258735306
% es.Ez (V/m) @ t=0.98
6.449393612127905
% es.tEx (V/m) @ t=0.98
8.073102099269484
% es.tEy (V/m) @ t=0.98
0
% es.tEz (V/m) @ t=0.98
6.449393612127903
% V (V) @ t=0.98
0.00860403077670603
% es.normE (V/m) @ t=1
10.511865138468016
% es.EX (V/m) @ t=1
8.14553502828443
% es.EY (V/m) @ t=1
-1.2482795514337504
% es.EZ (V/m) @ t=1
6.507237976863307
% es.tEX (V/m) @ t=1
8.145535028284488
% es.tEY (V/m) @ t=1
0
% es.tEZ (V/m) @ t=1
6.507237976863304
% es.Ex (V/m) @ t=1
8.14553502828443
% es.Ey (V/m) @ t=1
-1.2482795514337504
% es.Ez (V/m) @ t=1
6.507237976863307
% es.tEx (V/m) @ t=1
8.145535028284488
% es.tEy (V/m) @ t=1
0
% es.tEz (V/m) @ t=1
6.507237976863304
% V (V) @ t=1
0.00868124476505433
% es.normE (V/m) @ t=1.02
10.60533090447666
% es.EX (V/m) @ t=1.02
8.217967957299436
% es.EY (V/m) @ t=1.02
-1.259397376993979
% es.EZ (V/m) @ t=1.02
6.565082341598716
% es.tEX (V/m) @ t=1.02
8.217967957299464
% es.tEY (V/m) @ t=1.02
0
% es.tEZ (V/m) @ t=1.02
6.565082341598704
% es.Ex (V/m) @ t=1.02
8.217967957299436
% es.Ey (V/m) @ t=1.02
-1.259397376993979
% es.Ez (V/m) @ t=1.02
6.565082341598716
% es.tEx (V/m) @ t=1.02
8.217967957299464
% es.tEy (V/m) @ t=1.02
0
% es.tEz (V/m) @ t=1.02
6.565082341598704
% V (V) @ t=1.02
0.00875845875340263
% es.normE (V/m) @ t=1.04
10.698796670588958
% es.EX (V/m) @ t=1.04
8.29040088631445
% es.EY (V/m) @ t=1.04
-1.270515202554197
% es.EZ (V/m) @ t=1.04
6.622926706334116
% es.tEX (V/m) @ t=1.04
8.290400886314469
% es.tEY (V/m) @ t=1.04
0
% es.tEZ (V/m) @ t=1.04
6.622926706334112
% es.Ex (V/m) @ t=1.04
8.29040088631445
% es.Ey (V/m) @ t=1.04
-1.270515202554197
% es.Ez (V/m) @ t=1.04
6.622926706334116
% es.tEx (V/m) @ t=1.04
8.290400886314469
% es.tEy (V/m) @ t=1.04
0
% es.tEz (V/m) @ t=1.04
6.622926706334112
% V (V) @ t=1.04
0.00883567274175093
% es.normE (V/m) @ t=1.06
10.792262436802208
% es.EX (V/m) @ t=1.06
8.362833815329449
% es.EY (V/m) @ t=1.06
-1.2816330281143937
% es.EZ (V/m) @ t=1.06
6.680771071069511
% es.tEX (V/m) @ t=1.06
8.362833815329502
% es.tEY (V/m) @ t=1.06
0