% Model:              1 neuron.mph
% Version:            COMSOL 6.0.0.405
% Date:               Mar 9 2023, 13:21
% Dimension:          0
% Nodes:              14017
% Expressions:        14017
% Description:        Electric field norm, Electric field, X component, Electric field, Y component, Electric field, Z component, Tangential electric field, X component, Tangential electric field, Y component, Tangential electric field, Z component, Electric field, x component, Electric field, y component, Electric field, z component, Tangential electric field, x component, Tangential electric field, y component, Tangential electric field, z component, Electric potential
% Length unit:        mm
% x
2
% y
12.2
% z
1
% es.normE (V/m) @ t=0
0.7730139977805291
% es.EX (V/m) @ t=0
-0.49920125183049957
% es.EY (V/m) @ t=0
0.11091101652278856
% es.EZ (V/m) @ t=0
0.5693211096000903
% es.tEX (V/m) @ t=0
-0.49920125183049957
% es.tEY (V/m) @ t=0
0
% es.tEZ (V/m) @ t=0
0.5693211096000996
% es.Ex (V/m) @ t=0
-0.49920125183049957
% es.Ey (V/m) @ t=0
0.11091101652278856
% es.Ez (V/m) @ t=0
0.5693211096000903
% es.tEx (V/m) @ t=0
-0.49920125183049957
% es.tEy (V/m) @ t=0
0
% es.tEz (V/m) @ t=0
0.5693211096000996
% V (V) @ t=0
0.007481253780926699
% es.normE (V/m) @ t=0.02
0.6676677066021479
% es.EX (V/m) @ t=0.02
-0.4311701417676832
% es.EY (V/m) @ t=0.02
0.09579607201330759
% es.EZ (V/m) @ t=0.02
0.49173407000355907
% es.tEX (V/m) @ t=0.02
-0.43117014176768165
% es.tEY (V/m) @ t=0.02
0
% es.tEZ (V/m) @ t=0.02
0.4917340700035644
% es.Ex (V/m) @ t=0.02
-0.4311701417676832
% es.Ey (V/m) @ t=0.02
0.09579607201330759
% es.Ez (V/m) @ t=0.02
0.49173407000355907
% es.tEx (V/m) @ t=0.02
-0.43117014176768165
% es.tEy (V/m) @ t=0.02
0
% es.tEz (V/m) @ t=0.02
0.4917340700035644
% V (V) @ t=0.02
0.006461708999257712
% es.normE (V/m) @ t=0.04
0.6738094619040065
% es.EX (V/m) @ t=0.04
-0.43513639845689034
% es.EY (V/m) @ t=0.04
0.09667728304094103
% es.EZ (V/m) @ t=0.04
0.4962574433220506
% es.tEX (V/m) @ t=0.04
-0.435136398456889
% es.tEY (V/m) @ t=0.04
0
% es.tEZ (V/m) @ t=0.04
0.4962574433220581
% es.Ex (V/m) @ t=0.04
-0.43513639845689034
% es.Ey (V/m) @ t=0.04
0.09667728304094103
% es.Ez (V/m) @ t=0.04
0.4962574433220506
% es.tEx (V/m) @ t=0.04
-0.435136398456889
% es.tEy (V/m) @ t=0.04
0
% es.tEz (V/m) @ t=0.04
0.4962574433220581
% V (V) @ t=0.04
0.006521149088500098
% es.normE (V/m) @ t=0.06
0.6800076584863857
% es.EX (V/m) @ t=0.06
-0.43913910406772705
% es.EY (V/m) @ t=0.06
0.09756659170657028
% es.EZ (V/m) @ t=0.06
0.5008223855821887
% es.tEX (V/m) @ t=0.06
-0.4391391040677257
% es.tEY (V/m) @ t=0.06
0
% es.tEZ (V/m) @ t=0.06
0.5008223855821958
% es.Ex (V/m) @ t=0.06
-0.43913910406772705
% es.Ey (V/m) @ t=0.06
0.09756659170657028
% es.Ez (V/m) @ t=0.06
0.5008223855821887
% es.tEx (V/m) @ t=0.06
-0.4391391040677257
% es.tEy (V/m) @ t=0.06
0
% es.tEz (V/m) @ t=0.06
0.5008223855821958
% V (V) @ t=0.06
0.0065811354555160365
% es.normE (V/m) @ t=0.08
0.6862979315360577
% es.EX (V/m) @ t=0.08
-0.4432012713456275
% es.EY (V/m) @ t=0.08
0.09846911152551374
% es.EZ (V/m) @ t=0.08
0.50545514165182
% es.tEX (V/m) @ t=0.08
-0.4432012713456257
% es.tEY (V/m) @ t=0.08
0
% es.tEZ (V/m) @ t=0.08
0.5054551416518223
% es.Ex (V/m) @ t=0.08
-0.4432012713456275
% es.Ey (V/m) @ t=0.08
0.09846911152551374
% es.Ez (V/m) @ t=0.08
0.50545514165182
% es.tEx (V/m) @ t=0.08
-0.4432012713456257
% es.tEy (V/m) @ t=0.08
0
% es.tEz (V/m) @ t=0.08
0.5054551416518223
% V (V) @ t=0.08
0.006642012929351211
% es.normE (V/m) @ t=0.1
0.6926574243811938
% es.EX (V/m) @ t=0.1
-0.44730813977847284
% es.EY (V/m) @ t=0.1
0.09938156301708151
% es.EZ (V/m) @ t=0.1
0.5101388777184219
% es.tEX (V/m) @ t=0.1
-0.4473081397784733
% es.tEY (V/m) @ t=0.1
0
% es.tEZ (V/m) @ t=0.1
0.5101388777184259
% es.Ex (V/m) @ t=0.1
-0.44730813977847284
% es.Ey (V/m) @ t=0.1
0.09938156301708151
% es.Ez (V/m) @ t=0.1
0.5101388777184219
% es.tEx (V/m) @ t=0.1
-0.4473081397784733
% es.tEy (V/m) @ t=0.1
0
% es.tEz (V/m) @ t=0.1
0.5101388777184259
% V (V) @ t=0.1
0.006703560305427095
% es.normE (V/m) @ t=0.12
0.6990169172263254
% es.EX (V/m) @ t=0.12
-0.45141500821131686
% es.EY (V/m) @ t=0.12
0.1002940145086395
% es.EZ (V/m) @ t=0.12
0.5148226137850203
% es.tEX (V/m) @ t=0.12
-0.4514150082113155
% es.tEY (V/m) @ t=0.12
0
% es.tEZ (V/m) @ t=0.12
0.5148226137850225
% es.Ex (V/m) @ t=0.12
-0.45141500821131686
% es.Ey (V/m) @ t=0.12
0.1002940145086395
% es.Ez (V/m) @ t=0.12
0.5148226137850203
% es.tEx (V/m) @ t=0.12
-0.4514150082113155
% es.tEy (V/m) @ t=0.12
0
% es.tEz (V/m) @ t=0.12
0.5148226137850225
% V (V) @ t=0.12
0.0067651076815029776
% es.normE (V/m) @ t=0.14
0.7054282085143031
% es.EX (V/m) @ t=0.14
-0.45555532733190196
% es.EY (V/m) @ t=0.14
0.10121389800754205
% es.EZ (V/m) @ t=0.14
0.5195444991411025
% es.tEX (V/m) @ t=0.14
-0.4555553273319002
% es.tEY (V/m) @ t=0.14
0
% es.tEZ (V/m) @ t=0.14
0.5195444991411082
% es.Ex (V/m) @ t=0.14
-0.45555532733190196
% es.Ey (V/m) @ t=0.14
0.10121389800754205
% es.Ez (V/m) @ t=0.14
0.5195444991411025
% es.tEx (V/m) @ t=0.14
-0.4555553273319002
% es.tEy (V/m) @ t=0.14
0
% es.tEz (V/m) @ t=0.14
0.5195444991411082
% V (V) @ t=0.14
0.006827156361667064
% es.normE (V/m) @ t=0.16
0.7121291024580677
% es.EX (V/m) @ t=0.16
-0.45988266767312913
% es.EY (V/m) @ t=0.16
0.10217533350959968
% es.EZ (V/m) @ t=0.16
0.5244796753790051
% es.tEX (V/m) @ t=0.16
-0.45988266767313113
% es.tEY (V/m) @ t=0.16
0
% es.tEZ (V/m) @ t=0.16
0.524479675379018
% es.Ex (V/m) @ t=0.16
-0.45988266767312913
% es.Ey (V/m) @ t=0.16
0.10217533350959968
% es.Ez (V/m) @ t=0.16
0.5244796753790051
% es.tEx (V/m) @ t=0.16
-0.45988266767313113
% es.tEy (V/m) @ t=0.16
0
% es.tEz (V/m) @ t=0.16
0.524479675379018
% V (V) @ t=0.16
0.006892007809391925
% es.normE (V/m) @ t=0.18
0.7188299964018421
% es.EX (V/m) @ t=0.18
-0.46421000801436185
% es.EY (V/m) @ t=0.18
0.10313676901166086
% es.EZ (V/m) @ t=0.18
0.5294148516169166
% es.tEX (V/m) @ t=0.18
-0.4642100080143603
% es.tEY (V/m) @ t=0.18
0
% es.tEZ (V/m) @ t=0.18
0.529414851616917
% es.Ex (V/m) @ t=0.18
-0.46421000801436185
% es.Ey (V/m) @ t=0.18
0.10313676901166086
% es.Ez (V/m) @ t=0.18
0.5294148516169166
% es.tEx (V/m) @ t=0.18
-0.4642100080143603
% es.tEy (V/m) @ t=0.18
0
% es.tEz (V/m) @ t=0.18
0.529414851616917
% V (V) @ t=0.18
0.006956859257116785
% es.normE (V/m) @ t=0.2
0.725530890345614
% es.EX (V/m) @ t=0.2
-0.46853734835558924
% es.EY (V/m) @ t=0.2
0.10409820451372387
% es.EZ (V/m) @ t=0.2
0.5343500278548263
% es.tEX (V/m) @ t=0.2
-0.4685373483555879
% es.tEY (V/m) @ t=0.2
0
% es.tEZ (V/m) @ t=0.2
0.5343500278548303
% es.Ex (V/m) @ t=0.2
-0.46853734835558924
% es.Ey (V/m) @ t=0.2
0.10409820451372387
% es.Ez (V/m) @ t=0.2
0.5343500278548263
% es.tEx (V/m) @ t=0.2
-0.4685373483555879
% es.tEy (V/m) @ t=0.2
0
% es.tEz (V/m) @ t=0.2
0.5343500278548303
% V (V) @ t=0.2
0.007021710704841646
% es.normE (V/m) @ t=0.22
0.7322317842893842
% es.EX (V/m) @ t=0.22
-0.47286468869681997
% es.EY (V/m) @ t=0.22
0.10505964001577878
% es.EZ (V/m) @ t=0.22
0.539285204092733
% es.tEX (V/m) @ t=0.22
-0.4728646886968204
% es.tEY (V/m) @ t=0.22
0
% es.tEZ (V/m) @ t=0.22
0.539285204092737
% es.Ex (V/m) @ t=0.22
-0.47286468869681997
% es.Ey (V/m) @ t=0.22
0.10505964001577878
% es.Ez (V/m) @ t=0.22
0.539285204092733
% es.tEx (V/m) @ t=0.22
-0.4728646886968204
% es.tEy (V/m) @ t=0.22
0
% es.tEz (V/m) @ t=0.22
0.539285204092737
% V (V) @ t=0.22
0.007086562152566504
% es.normE (V/m) @ t=0.24
0.7389326782331493
% es.EX (V/m) @ t=0.24
-0.47719202903804914
% es.EY (V/m) @ t=0.24
0.10602107551784618
% es.EZ (V/m) @ t=0.24
0.544220380330632
% es.tEX (V/m) @ t=0.24
-0.4771920290380476
% es.tEY (V/m) @ t=0.24
0
% es.tEZ (V/m) @ t=0.24
0.5442203803306396
% es.Ex (V/m) @ t=0.24
-0.47719202903804914
% es.Ey (V/m) @ t=0.24
0.10602107551784618
% es.Ez (V/m) @ t=0.24
0.544220380330632
% es.tEx (V/m) @ t=0.24
-0.4771920290380476
% es.tEy (V/m) @ t=0.24
0
% es.tEz (V/m) @ t=0.24
0.5442203803306396
% V (V) @ t=0.24
0.007151413600291366
% es.normE (V/m) @ t=0.26
0.7456335721769206
% es.EX (V/m) @ t=0.26
-0.4815193693792781
% es.EY (V/m) @ t=0.26
0.10698251101990197
% es.EZ (V/m) @ t=0.26
0.5491555565685426
% es.tEX (V/m) @ t=0.26
-0.4815193693792763
% es.tEY (V/m) @ t=0.26
0
% es.tEZ (V/m) @ t=0.26
0.5491555565685498
% es.Ex (V/m) @ t=0.26
-0.4815193693792781
% es.Ey (V/m) @ t=0.26
0.10698251101990197
% es.Ez (V/m) @ t=0.26
0.5491555565685426
% es.tEx (V/m) @ t=0.26
-0.4815193693792763
% es.tEy (V/m) @ t=0.26
0
% es.tEz (V/m) @ t=0.26
0.5491555565685498
% V (V) @ t=0.26
0.007216265048016226
% es.normE (V/m) @ t=0.28
0.7525753930118908
% es.EX (V/m) @ t=0.28
-0.4860022903362118
% es.EY (V/m) @ t=0.28
0.10797845742215506
% es.EZ (V/m) @ t=0.28
0.5542682009585462
% es.tEX (V/m) @ t=0.28
-0.4860022903362118
% es.tEY (V/m) @ t=0.28
0
% es.tEZ (V/m) @ t=0.28
0.5542682009585502
% es.Ex (V/m) @ t=0.28
-0.4860022903362118
% es.Ey (V/m) @ t=0.28
0.10797845742215506
% es.Ez (V/m) @ t=0.28
0.5542682009585462
% es.tEx (V/m) @ t=0.28
-0.4860022903362118
% es.tEy (V/m) @ t=0.28
0
% es.tEz (V/m) @ t=0.28
0.5542682009585502
% V (V) @ t=0.28
0.007283452921914799
% es.normE (V/m) @ t=0.3
0.7600448839094663
% es.EX (V/m) @ t=0.3
-0.49082595878221347
% es.EY (V/m) @ t=0.3
0.10904998844996405
% es.EZ (V/m) @ t=0.3
0.559769530191693
% es.tEX (V/m) @ t=0.3
-0.4908259587822137
% es.tEY (V/m) @ t=0.3
0
% es.tEZ (V/m) @ t=0.3
0.5597695301917005
% es.Ex (V/m) @ t=0.3
-0.49082595878221347
% es.Ey (V/m) @ t=0.3
0.10904998844996405
% es.Ez (V/m) @ t=0.3
0.559769530191693
% es.tEx (V/m) @ t=0.3
-0.4908259587822137
% es.tEy (V/m) @ t=0.3
0
% es.tEz (V/m) @ t=0.3
0.5597695301917005
% V (V) @ t=0.3
0.007355757958696796
% es.normE (V/m) @ t=0.32
0.7675143748071409
% es.EX (V/m) @ t=0.32
-0.4956496272282187
% es.EY (V/m) @ t=0.32
0.11012151947779164
% es.EZ (V/m) @ t=0.32
0.5652708594248508
% es.tEX (V/m) @ t=0.32
-0.49564962722821715
% es.tEY (V/m) @ t=0.32
0
% es.tEZ (V/m) @ t=0.32
0.5652708594248548
% es.Ex (V/m) @ t=0.32
-0.4956496272282187
% es.Ey (V/m) @ t=0.32
0.11012151947779164
% es.Ez (V/m) @ t=0.32
0.5652708594248508
% es.tEx (V/m) @ t=0.32
-0.49564962722821715
% es.tEy (V/m) @ t=0.32
0
% es.tEz (V/m) @ t=0.32
0.5652708594248548
% V (V) @ t=0.32
0.0074280629954787914
% es.normE (V/m) @ t=0.34
0.7749838657048831
% es.EX (V/m) @ t=0.34
-0.5004732956742206
% es.EY (V/m) @ t=0.34
0.11119305050562195
% es.EZ (V/m) @ t=0.34
0.570772188657994
% es.tEX (V/m) @ t=0.34
-0.5004732956742188
% es.tEY (V/m) @ t=0.34
0
% es.tEZ (V/m) @ t=0.34
0.5707721886580086
% es.Ex (V/m) @ t=0.34
-0.5004732956742206
% es.Ey (V/m) @ t=0.34
0.11119305050562195
% es.Ez (V/m) @ t=0.34
0.570772188657994
% es.tEx (V/m) @ t=0.34
-0.5004732956742188
% es.tEy (V/m) @ t=0.34
0
% es.tEz (V/m) @ t=0.34
0.5707721886580086
% V (V) @ t=0.34
0.007500368032260786
% es.normE (V/m) @ t=0.36
0.7824533566027154
% es.EX (V/m) @ t=0.36
-0.5052969641202245
% es.EY (V/m) @ t=0.36
0.11226458153343538
% es.EZ (V/m) @ t=0.36
0.5762735178911513
% es.tEX (V/m) @ t=0.36
-0.5052969641202227
% es.tEY (V/m) @ t=0.36
0
% es.tEZ (V/m) @ t=0.36
0.5762735178911553
% es.Ex (V/m) @ t=0.36
-0.5052969641202245
% es.Ey (V/m) @ t=0.36
0.11226458153343538
% es.Ez (V/m) @ t=0.36
0.5762735178911513
% es.tEx (V/m) @ t=0.36
-0.5052969641202227
% es.tEy (V/m) @ t=0.36
0
% es.tEz (V/m) @ t=0.36
0.5762735178911553
% V (V) @ t=0.36
0.007572673069042782
% es.normE (V/m) @ t=0.38
0.7899228475006189
% es.EX (V/m) @ t=0.38
-0.5101206325662229
% es.EY (V/m) @ t=0.38
0.11333611256125059
% es.EZ (V/m) @ t=0.38
0.5817748471243069
% es.tEX (V/m) @ t=0.38
-0.5101206325662229
% es.tEY (V/m) @ t=0.38
0
% es.tEZ (V/m) @ t=0.38
0.5817748471243127
% es.Ex (V/m) @ t=0.38
-0.5101206325662229
% es.Ey (V/m) @ t=0.38
0.11333611256125059
% es.Ez (V/m) @ t=0.38
0.5817748471243069
% es.tEx (V/m) @ t=0.38
-0.5101206325662229
% es.tEy (V/m) @ t=0.38
0
% es.tEz (V/m) @ t=0.38
0.5817748471243127
% V (V) @ t=0.38
0.007644978105824779
% es.normE (V/m) @ t=0.4
0.7973923383986028
% es.EX (V/m) @ t=0.4
-0.5149443010122281
% es.EY (V/m) @ t=0.4
0.11440764358907374
% es.EZ (V/m) @ t=0.4
0.5872761763574625
% es.tEX (V/m) @ t=0.4
-0.5149443010122263
% es.tEY (V/m) @ t=0.4
0
% es.tEZ (V/m) @ t=0.4
0.5872761763574701
% es.Ex (V/m) @ t=0.4
-0.5149443010122281
% es.Ey (V/m) @ t=0.4
0.11440764358907374
% es.Ez (V/m) @ t=0.4
0.5872761763574625
% es.tEx (V/m) @ t=0.4
-0.5149443010122263
% es.tEy (V/m) @ t=0.4
0
% es.tEz (V/m) @ t=0.4
0.5872761763574701
% V (V) @ t=0.4
0.007717283142606774
% es.normE (V/m) @ t=0.42
0.8048618292966518
% es.EX (V/m) @ t=0.42
-0.519767969458232
% es.EY (V/m) @ t=0.42
0.11547917461689877
% es.EZ (V/m) @ t=0.42
0.592777505590607
% es.tEX (V/m) @ t=0.42
-0.519767969458232
% es.tEY (V/m) @ t=0.42
0
% es.tEZ (V/m) @ t=0.42
0.5927775055906128
% es.Ex (V/m) @ t=0.42
-0.519767969458232
% es.Ey (V/m) @ t=0.42
0.11547917461689877
% es.Ez (V/m) @ t=0.42
0.592777505590607
% es.tEx (V/m) @ t=0.42
-0.519767969458232
% es.tEy (V/m) @ t=0.42
0
% es.tEz (V/m) @ t=0.42
0.5927775055906128
% V (V) @ t=0.42
0.007789588179388768
% es.normE (V/m) @ t=0.44
0.8123313201947775
% es.EX (V/m) @ t=0.44
-0.5245916379042339
% es.EY (V/m) @ t=0.44
0.11655070564472014
% es.EZ (V/m) @ t=0.44
0.5982788348237631
% es.tEX (V/m) @ t=0.44
-0.5245916379042321
% es.tEY (V/m) @ t=0.44
0
% es.tEZ (V/m) @ t=0.44
0.5982788348237706
% es.Ex (V/m) @ t=0.44
-0.5245916379042339
% es.Ey (V/m) @ t=0.44
0.11655070564472014
% es.Ez (V/m) @ t=0.44
0.5982788348237631
% es.tEx (V/m) @ t=0.44
-0.5245916379042321
% es.tEy (V/m) @ t=0.44
0
% es.tEz (V/m) @ t=0.44
0.5982788348237706
% V (V) @ t=0.44
0.007861893216170764
% es.normE (V/m) @ t=0.46
0.819800811092972
% es.EX (V/m) @ t=0.46
-0.529415306350234
% es.EY (V/m) @ t=0.46
0.11762223667254429
% es.EZ (V/m) @ t=0.46
0.60378016405692
% es.tEX (V/m) @ t=0.46
-0.5294153063502323
% es.tEY (V/m) @ t=0.46
0
% es.tEZ (V/m) @ t=0.46
0.603780164056924
% es.Ex (V/m) @ t=0.46
-0.529415306350234
% es.Ey (V/m) @ t=0.46
0.11762223667254429
% es.Ez (V/m) @ t=0.46
0.60378016405692
% es.tEx (V/m) @ t=0.46
-0.5294153063502323
% es.tEy (V/m) @ t=0.46
0
% es.tEz (V/m) @ t=0.46
0.603780164056924
% V (V) @ t=0.46
0.00793419825295276
% es.normE (V/m) @ t=0.48
0.8272703019912355
% es.EX (V/m) @ t=0.48
-0.534238974796241
% es.EY (V/m) @ t=0.48
0.118693767700363
% es.EZ (V/m) @ t=0.48
0.6092814932900743
% es.tEX (V/m) @ t=0.48
-0.5342389747962393
% es.tEY (V/m) @ t=0.48
0
% es.tEZ (V/m) @ t=0.48
0.6092814932900854
% es.Ex (V/m) @ t=0.48
-0.534238974796241
% es.Ey (V/m) @ t=0.48
0.118693767700363
% es.Ez (V/m) @ t=0.48
0.6092814932900743
% es.tEx (V/m) @ t=0.48
-0.5342389747962393
% es.tEy (V/m) @ t=0.48
0
% es.tEz (V/m) @ t=0.48
0.6092814932900854
% V (V) @ t=0.48
0.008006503289734753
% es.normE (V/m) @ t=0.5
0.8347397928895564
% es.EX (V/m) @ t=0.5
-0.5390626432422412
% es.EY (V/m) @ t=0.5
0.11976529872817904
% es.EZ (V/m) @ t=0.5
0.6147828225232255
% es.tEX (V/m) @ t=0.5
-0.5390626432422392
% es.tEY (V/m) @ t=0.5
0
% es.tEZ (V/m) @ t=0.5
0.6147828225232255
% es.Ex (V/m) @ t=0.5
-0.5390626432422412
% es.Ey (V/m) @ t=0.5
0.11976529872817904
% es.Ez (V/m) @ t=0.5
0.6147828225232255
% es.tEx (V/m) @ t=0.5
-0.5390626432422392
% es.tEy (V/m) @ t=0.5
0
% es.tEz (V/m) @ t=0.5
0.6147828225232255
% V (V) @ t=0.5
0.00807880832651675
% es.normE (V/m) @ t=0.52
0.842209283787941
% es.EX (V/m) @ t=0.52
-0.5438863116882449
% es.EY (V/m) @ t=0.52
0.12083682975600496
% es.EZ (V/m) @ t=0.52
0.6202841517563717
% es.tEX (V/m) @ t=0.52
-0.5438863116882449
% es.tEY (V/m) @ t=0.52
0
% es.tEZ (V/m) @ t=0.52
0.6202841517563824
% es.Ex (V/m) @ t=0.52
-0.5438863116882449
% es.Ey (V/m) @ t=0.52
0.12083682975600496
% es.Ez (V/m) @ t=0.52
0.6202841517563717
% es.tEx (V/m) @ t=0.52
-0.5438863116882449
% es.tEy (V/m) @ t=0.52
0
% es.tEz (V/m) @ t=0.52
0.6202841517563824
% V (V) @ t=0.52
0.008151113363298747
% es.normE (V/m) @ t=0.54
0.8496787746864023
% es.EX (V/m) @ t=0.54
-0.5487099801342465
% es.EY (V/m) @ t=0.54
0.12190836078383344
% es.EZ (V/m) @ t=0.54
0.6257854809895367
% es.tEX (V/m) @ t=0.54
-0.5487099801342448
% es.tEY (V/m) @ t=0.54
0
% es.tEZ (V/m) @ t=0.54
0.6257854809895402
% es.Ex (V/m) @ t=0.54
-0.5487099801342465
% es.Ey (V/m) @ t=0.54
0.12190836078383344
% es.Ez (V/m) @ t=0.54
0.6257854809895367
% es.tEx (V/m) @ t=0.54
-0.5487099801342448
% es.tEy (V/m) @ t=0.54
0
% es.tEz (V/m) @ t=0.54
0.6257854809895402
% V (V) @ t=0.54
0.008223418400080743
% es.normE (V/m) @ t=0.56
0.857703579553202
% es.EX (V/m) @ t=0.56
-0.5538922512963722
% es.EY (V/m) @ t=0.56
0.12305947123122185
% es.EZ (V/m) @ t=0.56
0.6316958414121387
% es.tEX (V/m) @ t=0.56
-0.5538922512963704
% es.tEY (V/m) @ t=0.56
0
% es.tEZ (V/m) @ t=0.56
0.6316958414121459
% es.Ex (V/m) @ t=0.56
-0.5538922512963722
% es.Ey (V/m) @ t=0.56
0.12305947123122185
% es.Ez (V/m) @ t=0.56
0.6316958414121387
% es.tEx (V/m) @ t=0.56
-0.5538922512963704
% es.tEy (V/m) @ t=0.56
0
% es.tEz (V/m) @ t=0.56
0.6316958414121459
% V (V) @ t=0.56
0.008301105743492845
% es.normE (V/m) @ t=0.58
0.8660449123053934
% es.EX (V/m) @ t=0.58
-0.559278925311369
% es.EY (V/m) @ t=0.58
0.12425594179345223
% es.EZ (V/m) @ t=0.58
0.6378393488196492
% es.tEX (V/m) @ t=0.58
-0.5592789253113672
% es.tEY (V/m) @ t=0.58
0
% es.tEZ (V/m) @ t=0.58
0.637839348819659
% es.Ex (V/m) @ t=0.58
-0.559278925311369
% es.Ey (V/m) @ t=0.58
0.12425594179345223
% es.Ez (V/m) @ t=0.58
0.6378393488196492
% es.tEx (V/m) @ t=0.58
-0.5592789253113672
% es.tEy (V/m) @ t=0.58
0
% es.tEz (V/m) @ t=0.58
0.637839348819659
% V (V) @ t=0.58
0.008381860991248068
% es.normE (V/m) @ t=0.6
0.8743862450577881
% es.EX (V/m) @ t=0.6
-0.5646655993263681
% es.EY (V/m) @ t=0.6
0.12545241235569687
% es.EZ (V/m) @ t=0.6
0.6439828562271419
% es.tEX (V/m) @ t=0.6
-0.5646655993263663
% es.tEY (V/m) @ t=0.6
0
% es.tEZ (V/m) @ t=0.6
0.6439828562271535
% es.Ex (V/m) @ t=0.6
-0.5646655993263681
% es.Ey (V/m) @ t=0.6
0.12545241235569687
% es.Ez (V/m) @ t=0.6
0.6439828562271419
% es.tEx (V/m) @ t=0.6
-0.5646655993263663
% es.tEy (V/m) @ t=0.6
0
% es.tEz (V/m) @ t=0.6
0.6439828562271535
% V (V) @ t=0.6
0.00846261623900329
% es.normE (V/m) @ t=0.62
0.8827275778103969
% es.EX (V/m) @ t=0.62
-0.5700522733413602
% es.EY (V/m) @ t=0.62
0.12664888291792104
% es.EZ (V/m) @ t=0.62
0.6501263636346586
% es.tEX (V/m) @ t=0.62
-0.5700522733413618
% es.tEY (V/m) @ t=0.62
0
% es.tEZ (V/m) @ t=0.62
0.6501263636346621
% es.Ex (V/m) @ t=0.62
-0.5700522733413602
% es.Ey (V/m) @ t=0.62
0.12664888291792104
% es.Ez (V/m) @ t=0.62
0.6501263636346586
% es.tEx (V/m) @ t=0.62
-0.5700522733413618
% es.tEy (V/m) @ t=0.62
0
% es.tEz (V/m) @ t=0.62
0.6501263636346621
% V (V) @ t=0.62
0.00854337148675851
% es.normE (V/m) @ t=0.64
0.8910689105632115
% es.EX (V/m) @ t=0.64
-0.5754389473563621
% es.EY (V/m) @ t=0.64
0.12784535348017534
% es.EZ (V/m) @ t=0.64
0.6562698710421664
% es.tEX (V/m) @ t=0.64
-0.5754389473563601
% es.tEY (V/m) @ t=0.64
0
% es.tEZ (V/m) @ t=0.64
0.656269871042169
% es.Ex (V/m) @ t=0.64
-0.5754389473563621
% es.Ey (V/m) @ t=0.64
0.12784535348017534
% es.Ez (V/m) @ t=0.64
0.6562698710421664
% es.tEx (V/m) @ t=0.64
-0.5754389473563601
% es.tEy (V/m) @ t=0.64
0
% es.tEz (V/m) @ t=0.64
0.656269871042169
% V (V) @ t=0.64
0.008624126734513734
% es.normE (V/m) @ t=0.66
0.8994102433162032
% es.EX (V/m) @ t=0.66
-0.5808256213713574
% es.EY (V/m) @ t=0.66
0.1290418240424155
% es.EZ (V/m) @ t=0.66
0.66241337844966
% es.tEX (V/m) @ t=0.66
-0.5808256213713554
% es.tEY (V/m) @ t=0.66
0
% es.tEZ (V/m) @ t=0.66
0.6624133784496635
% es.Ex (V/m) @ t=0.66
-0.5808256213713574
% es.Ey (V/m) @ t=0.66
0.1290418240424155
% es.Ez (V/m) @ t=0.66
0.66241337844966
% es.tEx (V/m) @ t=0.66
-0.5808256213713554
% es.tEy (V/m) @ t=0.66
0
% es.tEz (V/m) @ t=0.66
0.6624133784496635
% V (V) @ t=0.66
0.008704881982268955
% es.normE (V/m) @ t=0.68
0.9077515760693964
% es.EX (V/m) @ t=0.68
-0.5862122953863527
% es.EY (V/m) @ t=0.68
0.13023829460465297
% es.EZ (V/m) @ t=0.68
0.6685568858571687
% es.tEX (V/m) @ t=0.68
-0.5862122953863542
% es.tEY (V/m) @ t=0.68
0
% es.tEZ (V/m) @ t=0.68
0.6685568858571722
% es.Ex (V/m) @ t=0.68
-0.5862122953863527
% es.Ey (V/m) @ t=0.68
0.13023829460465297
% es.Ez (V/m) @ t=0.68
0.6685568858571687
% es.tEx (V/m) @ t=0.68
-0.5862122953863542
% es.tEy (V/m) @ t=0.68
0
% es.tEz (V/m) @ t=0.68
0.6685568858571722
% V (V) @ t=0.68
0.008785637230024176
% es.normE (V/m) @ t=0.7
0.9160929088227774
% es.EX (V/m) @ t=0.7
-0.5915989694013475
% es.EY (V/m) @ t=0.7
0.13143476516689484
% es.EZ (V/m) @ t=0.7
0.6747003932646836
% es.tEX (V/m) @ t=0.7
-0.591598969401349
% es.tEY (V/m) @ t=0.7
0
% es.tEZ (V/m) @ t=0.7
0.6747003932646862
% es.Ex (V/m) @ t=0.7
-0.5915989694013475
% es.Ey (V/m) @ t=0.7
0.13143476516689484
% es.Ez (V/m) @ t=0.7
0.6747003932646836
% es.tEx (V/m) @ t=0.7
-0.591598969401349
% es.tEy (V/m) @ t=0.7
0
% es.tEz (V/m) @ t=0.7
0.6747003932646862
% V (V) @ t=0.7
0.008866392477779397
% es.normE (V/m) @ t=0.72
0.9244342415763276
% es.EX (V/m) @ t=0.72
-0.5969856434163467
% es.EY (V/m) @ t=0.72
0.1326312357291332
% es.EZ (V/m) @ t=0.72
0.6808439006721843
% es.tEX (V/m) @ t=0.72
-0.5969856434163447
% es.tEY (V/m) @ t=0.72
0
% es.tEZ (V/m) @ t=0.72
0.6808439006721878
% es.Ex (V/m) @ t=0.72
-0.5969856434163467
% es.Ey (V/m) @ t=0.72
0.1326312357291332
% es.Ez (V/m) @ t=0.72
0.6808439006721843
% es.tEx (V/m) @ t=0.72
-0.5969856434163447
% es.tEy (V/m) @ t=0.72
0
% es.tEz (V/m) @ t=0.72
0.6808439006721878
% V (V) @ t=0.72
0.008947147725534618
% es.normE (V/m) @ t=0.74
0.9327755743300633
% es.EX (V/m) @ t=0.74
-0.6023723174313487
% es.EY (V/m) @ t=0.74
0.1338277062913822
% es.EZ (V/m) @ t=0.74
0.6869874080796938
% es.tEX (V/m) @ t=0.74
-0.6023723174313502
% es.tEY (V/m) @ t=0.74
0
% es.tEZ (V/m) @ t=0.74
0.6869874080797018
% es.Ex (V/m) @ t=0.74
-0.6023723174313487
% es.Ey (V/m) @ t=0.74
0.1338277062913822
% es.Ez (V/m) @ t=0.74
0.6869874080796938
% es.tEx (V/m) @ t=0.74
-0.6023723174313502
% es.tEy (V/m) @ t=0.74
0
% es.tEz (V/m) @ t=0.74
0.6869874080797018
% V (V) @ t=0.74
0.00902790297328984
% es.normE (V/m) @ t=0.76
0.9411169070839565
% es.EX (V/m) @ t=0.76
-0.6077589914463402
% es.EY (V/m) @ t=0.76
0.13502417685361257
% es.EZ (V/m) @ t=0.76
0.6931309154872007
% es.tEX (V/m) @ t=0.76
-0.6077589914463417
% es.tEY (V/m) @ t=0.76
0
% es.tEZ (V/m) @ t=0.76
0.6931309154872034
% es.Ex (V/m) @ t=0.76
-0.6077589914463402
% es.Ey (V/m) @ t=0.76
0.13502417685361257
% es.Ez (V/m) @ t=0.76
0.6931309154872007
% es.tEx (V/m) @ t=0.76
-0.6077589914463417
% es.tEy (V/m) @ t=0.76
0
% es.tEz (V/m) @ t=0.76
0.6931309154872034
% V (V) @ t=0.76
0.00910865822104506
% es.normE (V/m) @ t=0.78
0.9494582398380129
% es.EX (V/m) @ t=0.78
-0.6131456654613425
% es.EY (V/m) @ t=0.78
0.13622064741585171
% es.EZ (V/m) @ t=0.78
0.6992744228946917
% es.tEX (V/m) @ t=0.78
-0.6131456654613403
% es.tEY (V/m) @ t=0.78
0
% es.tEZ (V/m) @ t=0.78
0.6992744228946988
% es.Ex (V/m) @ t=0.78
-0.6131456654613425
% es.Ey (V/m) @ t=0.78
0.13622064741585171
% es.Ez (V/m) @ t=0.78
0.6992744228946917
% es.tEx (V/m) @ t=0.78
-0.6131456654613403
% es.tEy (V/m) @ t=0.78
0
% es.tEz (V/m) @ t=0.78
0.6992744228946988
% V (V) @ t=0.78
0.009189413468800284
% es.normE (V/m) @ t=0.8
0.9577995725922319
% es.EX (V/m) @ t=0.8
-0.6185323394763345
% es.EY (V/m) @ t=0.8
0.13741711797808298
% es.EZ (V/m) @ t=0.8
0.7054179303021968
% es.tEX (V/m) @ t=0.8
-0.6185323394763358
% es.tEY (V/m) @ t=0.8
0
% es.tEZ (V/m) @ t=0.8
0.7054179303022083
% es.Ex (V/m) @ t=0.8
-0.6185323394763345
% es.Ey (V/m) @ t=0.8
0.13741711797808298
% es.Ez (V/m) @ t=0.8
0.7054179303021968
% es.tEx (V/m) @ t=0.8
-0.6185323394763358
% es.tEy (V/m) @ t=0.8
0
% es.tEz (V/m) @ t=0.8
0.7054179303022083
% V (V) @ t=0.8
0.009270168716555506
% es.normE (V/m) @ t=0.82
0.9661409053466115
% es.EX (V/m) @ t=0.82
-0.6239190134913368
% es.EY (V/m) @ t=0.82
0.13861358854033035
% es.EZ (V/m) @ t=0.82
0.7115614377096948
% es.tEX (V/m) @ t=0.82
-0.6239190134913382
% es.tEY (V/m) @ t=0.82
0
% es.tEZ (V/m) @ t=0.82
0.7115614377097099
% es.Ex (V/m) @ t=0.82
-0.6239190134913368
% es.Ey (V/m) @ t=0.82
0.13861358854033035
% es.Ez (V/m) @ t=0.82
0.7115614377096948
% es.tEx (V/m) @ t=0.82
-0.6239190134913382
% es.tEy (V/m) @ t=0.82
0
% es.tEz (V/m) @ t=0.82
0.7115614377097099
% V (V) @ t=0.82
0.009350923964310729
% es.normE (V/m) @ t=0.84
0.9754336540160614
% es.EX (V/m) @ t=0.84
-0.6299201248909634
% es.EY (V/m) @ t=0.84
0.1399468016126041
% es.EZ (V/m) @ t=0.84
0.718405548561357
% es.tEX (V/m) @ t=0.84
-0.6299201248909647
% es.tEY (V/m) @ t=0.84
0
% es.tEZ (V/m) @ t=0.84
0.7184055485613712
% es.Ex (V/m) @ t=0.84
-0.6299201248909634
% es.Ey (V/m) @ t=0.84
0.1399468016126041
% es.Ez (V/m) @ t=0.84
0.718405548561357
% es.tEx (V/m) @ t=0.84
-0.6299201248909647
% es.tEy (V/m) @ t=0.84
0
% es.tEz (V/m) @ t=0.84
0.7184055485613712
% V (V) @ t=0.84
0.009440867601065363
% es.normE (V/m) @ t=0.86
0.9847656078172793
% es.EX (V/m) @ t=0.86
-0.6359465554998349
% es.EY (V/m) @ t=0.86
0.14128564945306055
% es.EZ (V/m) @ t=0.86
0.7252785292794028
% es.tEX (V/m) @ t=0.86
-0.6359465554998291
% es.tEY (V/m) @ t=0.86
0
% es.tEZ (V/m) @ t=0.86
0.7252785292794037
% es.Ex (V/m) @ t=0.86
-0.6359465554998349
% es.Ey (V/m) @ t=0.86
0.14128564945306055
% es.Ez (V/m) @ t=0.86
0.7252785292794028
% es.tEx (V/m) @ t=0.86
-0.6359465554998291
% es.tEy (V/m) @ t=0.86
0
% es.tEz (V/m) @ t=0.86
0.7252785292794037
% V (V) @ t=0.86
0.009531189865080511
% es.normE (V/m) @ t=0.88
0.9940975616184945
% es.EX (V/m) @ t=0.88
-0.6419729861086991
% es.EY (V/m) @ t=0.88
0.14262449729349402
% es.EZ (V/m) @ t=0.88
0.7321515099974549
% es.tEX (V/m) @ t=0.88
-0.6419729861086969
% es.tEY (V/m) @ t=0.88
0
% es.tEZ (V/m) @ t=0.88
0.73215150999747
% es.Ex (V/m) @ t=0.88
-0.6419729861086991
% es.Ey (V/m) @ t=0.88
0.14262449729349402
% es.Ez (V/m) @ t=0.88
0.7321515099974549
% es.tEx (V/m) @ t=0.88
-0.6419729861086969
% es.tEy (V/m) @ t=0.88
0
% es.tEz (V/m) @ t=0.88
0.73215150999747
% V (V) @ t=0.88
0.009621512129095657
% es.normE (V/m) @ t=0.9
1.0034295154197124
% es.EX (V/m) @ t=0.9
-0.6479994167175702
% es.EY (V/m) @ t=0.9
0.14396334513394415
% es.EZ (V/m) @ t=0.9
0.7390244907155017
% es.tEX (V/m) @ t=0.9
-0.6479994167175716
% es.tEY (V/m) @ t=0.9
0
% es.tEZ (V/m) @ t=0.9
0.7390244907155097
% es.Ex (V/m) @ t=0.9
-0.6479994167175702
% es.Ey (V/m) @ t=0.9
0.14396334513394415
% es.Ez (V/m) @ t=0.9
0.7390244907155017
% es.tEx (V/m) @ t=0.9
-0.6479994167175716
% es.tEy (V/m) @ t=0.9
0
% es.tEz (V/m) @ t=0.9
0.7390244907155097
% V (V) @ t=0.9
0.009711834393110805
% es.normE (V/m) @ t=0.92
1.0127614692209297
% es.EX (V/m) @ t=0.92
-0.6540258473264382
% es.EY (V/m) @ t=0.92
0.1453021929744006
% es.EZ (V/m) @ t=0.92
0.7458974714335485
% es.tEX (V/m) @ t=0.92
-0.654025847326436
% es.tEY (V/m) @ t=0.92
0
% es.tEZ (V/m) @ t=0.92
0.7458974714335485
% es.Ex (V/m) @ t=0.92
-0.6540258473264382
% es.Ey (V/m) @ t=0.92
0.1453021929744006
% es.Ez (V/m) @ t=0.92
0.7458974714335485
% es.tEx (V/m) @ t=0.92
-0.654025847326436
% es.tEy (V/m) @ t=0.92
0
% es.tEz (V/m) @ t=0.92
0.7458974714335485
% V (V) @ t=0.92
0.009802156657125952
% es.normE (V/m) @ t=0.94
1.0220934230221481
% es.EX (V/m) @ t=0.94
-0.660052277935306
% es.EY (V/m) @ t=0.94
0.14664104081485263
% es.EZ (V/m) @ t=0.94
0.7527704521515934
% es.tEX (V/m) @ t=0.94
-0.6600522779353073
% es.tEY (V/m) @ t=0.94
0
% es.tEZ (V/m) @ t=0.94
0.7527704521516005
% es.Ex (V/m) @ t=0.94
-0.660052277935306
% es.Ey (V/m) @ t=0.94
0.14664104081485263
% es.Ez (V/m) @ t=0.94
0.7527704521515934
% es.tEx (V/m) @ t=0.94
-0.6600522779353073
% es.tEy (V/m) @ t=0.94
0
% es.tEz (V/m) @ t=0.94
0.7527704521516005
% V (V) @ t=0.94
0.0098924789211411
% es.normE (V/m) @ t=0.96
1.0314253768233748
% es.EX (V/m) @ t=0.96
-0.666078708544174
% es.EY (V/m) @ t=0.96
0.14797988865529488
% es.EZ (V/m) @ t=0.96
0.7596434328696535
% es.tEX (V/m) @ t=0.96
-0.6660787085441753
% es.tEY (V/m) @ t=0.96
0
% es.tEZ (V/m) @ t=0.96
0.7596434328696615
% es.Ex (V/m) @ t=0.96
-0.666078708544174
% es.Ey (V/m) @ t=0.96
0.14797988865529488
% es.Ez (V/m) @ t=0.96
0.7596434328696535
% es.tEx (V/m) @ t=0.96
-0.6660787085441753
% es.tEy (V/m) @ t=0.96
0
% es.tEz (V/m) @ t=0.96
0.7596434328696615
% V (V) @ t=0.96
0.009982801185156246
% es.normE (V/m) @ t=0.98
1.0407573306245883
% es.EX (V/m) @ t=0.98
-0.672105139153041
% es.EY (V/m) @ t=0.98
0.14931873649574412
% es.EZ (V/m) @ t=0.98
0.7665164135876932
% es.tEX (V/m) @ t=0.98
-0.6721051391530386
% es.tEY (V/m) @ t=0.98
0
% es.tEZ (V/m) @ t=0.98
0.7665164135877012
% es.Ex (V/m) @ t=0.98
-0.672105139153041
% es.Ey (V/m) @ t=0.98
0.14931873649574412
% es.Ez (V/m) @ t=0.98
0.7665164135876932
% es.tEx (V/m) @ t=0.98
-0.6721051391530386
% es.tEy (V/m) @ t=0.98
0
% es.tEz (V/m) @ t=0.98
0.7665164135877012
% V (V) @ t=0.98
0.010073123449171393
% es.normE (V/m) @ t=1
1.0500892844258134
% es.EX (V/m) @ t=1
-0.6781315697619126
% es.EY (V/m) @ t=1
0.15065758433618281
% es.EZ (V/m) @ t=1
0.7733893943057462
% es.tEX (V/m) @ t=1
-0.6781315697619137
% es.tEY (V/m) @ t=1
0
% es.tEZ (V/m) @ t=1
0.773389394305747
% es.Ex (V/m) @ t=1
-0.6781315697619126
% es.Ey (V/m) @ t=1
0.15065758433618281
% es.Ez (V/m) @ t=1
0.7733893943057462
% es.tEx (V/m) @ t=1
-0.6781315697619137
% es.tEy (V/m) @ t=1
0
% es.tEz (V/m) @ t=1
0.773389394305747
% V (V) @ t=1
0.010163445713186541
% es.normE (V/m) @ t=1.02
1.059421238227043
% es.EX (V/m) @ t=1.02
-0.6841580003707799
% es.EY (V/m) @ t=1.02
0.15199643217664904
% es.EZ (V/m) @ t=1.02
0.7802623750238
% es.tEX (V/m) @ t=1.02
-0.684158000370781
% es.tEY (V/m) @ t=1.02
0
% es.tEZ (V/m) @ t=1.02
0.7802623750237929
% es.Ex (V/m) @ t=1.02
-0.6841580003707799
% es.Ey (V/m) @ t=1.02
0.15199643217664904
% es.Ez (V/m) @ t=1.02
0.7802623750238
% es.tEx (V/m) @ t=1.02
-0.684158000370781
% es.tEy (V/m) @ t=1.02
0
% es.tEz (V/m) @ t=1.02
0.7802623750237929
% V (V) @ t=1.02
0.01025376797720169
% es.normE (V/m) @ t=1.04
1.0687531920282578
% es.EX (V/m) @ t=1.04
-0.6901844309796483
% es.EY (V/m) @ t=1.04
0.15333528001709495
% es.EZ (V/m) @ t=1.04
0.7871353557418379