% Model:              1 neuron.mph
% Version:            COMSOL 6.1.0.252
% Date:               Mar 18 2023, 12:18
% Dimension:          0
% Nodes:              14017
% Expressions:        14017
% Description:        Electric field norm, Electric field, X component, Electric field, Y component, Electric field, Z component, Tangential electric field, X component, Tangential electric field, Y component, Tangential electric field, Z component, Electric field, x component, Electric field, y component, Electric field, z component, Tangential electric field, x component, Tangential electric field, y component, Tangential electric field, z component, Electric potential
% Length unit:        mm
% x
1.3300000000000003
% y
12.200000000000001
% z
1.66
% es.normE (V/m) @ t=0
7.207822095473123
% es.EX (V/m) @ t=0
4.574079545372443
% es.EY (V/m) @ t=0
1.3678098219235513
% es.EZ (V/m) @ t=0
-5.010301389309894
% es.tEX (V/m) @ t=0
4.57407954537244
% es.tEY (V/m) @ t=0
0
% es.tEZ (V/m) @ t=0
-5.010301389309883
% es.Ex (V/m) @ t=0
4.574079545372443
% es.Ey (V/m) @ t=0
1.3678098219235513
% es.Ez (V/m) @ t=0
-5.010301389309894
% es.tEx (V/m) @ t=0
4.57407954537244
% es.tEy (V/m) @ t=0
0
% es.tEz (V/m) @ t=0
-5.010301389309883
% V (V) @ t=0
0.006174067098433252
% es.normE (V/m) @ t=0.02
6.22547768456274
% es.EX (V/m) @ t=0.02
3.9506843788991883
% es.EY (V/m) @ t=0.02
1.1813928564374274
% es.EZ (V/m) @ t=0.02
-4.327454126930725
% es.tEX (V/m) @ t=0.02
3.9506843788991772
% es.tEY (V/m) @ t=0.02
0
% es.tEZ (V/m) @ t=0.02
-4.327454126930721
% es.Ex (V/m) @ t=0.02
3.9506843788991883
% es.Ey (V/m) @ t=0.02
1.1813928564374274
% es.Ez (V/m) @ t=0.02
-4.327454126930725
% es.tEx (V/m) @ t=0.02
3.9506843788991772
% es.tEy (V/m) @ t=0.02
0
% es.tEz (V/m) @ t=0.02
-4.327454126930721
% V (V) @ t=0.02
0.005332611760963693
% es.normE (V/m) @ t=0.04
6.282743557290134
% es.EX (V/m) @ t=0.04
3.9870252735253207
% es.EY (V/m) @ t=0.04
1.1922600567946326
% es.EZ (V/m) @ t=0.04
-4.367260775475792
% es.tEX (V/m) @ t=0.04
3.987025273525313
% es.tEY (V/m) @ t=0.04
0
% es.tEZ (V/m) @ t=0.04
-4.367260775475781
% es.Ex (V/m) @ t=0.04
3.9870252735253207
% es.Ey (V/m) @ t=0.04
1.1922600567946326
% es.Ez (V/m) @ t=0.04
-4.367260775475792
% es.tEx (V/m) @ t=0.04
3.987025273525313
% es.tEy (V/m) @ t=0.04
0
% es.tEz (V/m) @ t=0.04
-4.367260775475781
% V (V) @ t=0.04
0.005381664469387605
% es.normE (V/m) @ t=0.06
6.340544205679111
% es.EX (V/m) @ t=0.06
4.023705536119364
% es.EY (V/m) @ t=0.06
1.2032287399707704
% es.EZ (V/m) @ t=0.06
-4.407439157592346
% es.tEX (V/m) @ t=0.06
4.023705536119346
% es.tEY (V/m) @ t=0.06
0
% es.tEZ (V/m) @ t=0.06
-4.407439157592336
% es.Ex (V/m) @ t=0.06
4.023705536119364
% es.Ey (V/m) @ t=0.06
1.2032287399707704
% es.Ez (V/m) @ t=0.06
-4.407439157592346
% es.tEx (V/m) @ t=0.06
4.023705536119346
% es.tEy (V/m) @ t=0.06
0
% es.tEz (V/m) @ t=0.06
-4.407439157592336
% V (V) @ t=0.06
0.0054311752563470424
% es.normE (V/m) @ t=0.08
6.399183399406308
% es.EX (V/m) @ t=0.08
4.060917938731954
% es.EY (V/m) @ t=0.08
1.2143565515112047
% es.EZ (V/m) @ t=0.08
-4.448200429667547
% es.tEX (V/m) @ t=0.08
4.06091793873194
% es.tEY (V/m) @ t=0.08
0
% es.tEZ (V/m) @ t=0.08
-4.448200429667536
% es.Ex (V/m) @ t=0.08
4.060917938731954
% es.Ey (V/m) @ t=0.08
1.2143565515112047
% es.Ez (V/m) @ t=0.08
-4.448200429667547
% es.tEx (V/m) @ t=0.08
4.06091793873194
% es.tEy (V/m) @ t=0.08
0
% es.tEz (V/m) @ t=0.08
-4.448200429667536
% V (V) @ t=0.08
0.005481404324400822
% es.normE (V/m) @ t=0.1
6.458495825825663
% es.EX (V/m) @ t=0.1
4.0985575741260885
% es.EY (V/m) @ t=0.1
1.225612120505192
% es.EZ (V/m) @ t=0.1
-4.489429679511136
% es.tEX (V/m) @ t=0.1
4.098557574126075
% es.tEY (V/m) @ t=0.1
0
% es.tEZ (V/m) @ t=0.1
-4.489429679511129
% es.Ex (V/m) @ t=0.1
4.0985575741260885
% es.Ey (V/m) @ t=0.1
1.225612120505192
% es.Ez (V/m) @ t=0.1
-4.489429679511136
% es.tEx (V/m) @ t=0.1
4.098557574126075
% es.tEy (V/m) @ t=0.1
0
% es.tEz (V/m) @ t=0.1
-4.489429679511129
% V (V) @ t=0.1
0.005532210070056669
% es.normE (V/m) @ t=0.12
6.517808252244997
% es.EX (V/m) @ t=0.12
4.1361972095202
% es.EY (V/m) @ t=0.12
1.236867689499179
% es.EZ (V/m) @ t=0.12
-4.530658929354717
% es.tEX (V/m) @ t=0.12
4.136197209520196
% es.tEY (V/m) @ t=0.12
0
% es.tEZ (V/m) @ t=0.12
-4.530658929354706
% es.Ex (V/m) @ t=0.12
4.1361972095202
% es.Ey (V/m) @ t=0.12
1.236867689499179
% es.Ez (V/m) @ t=0.12
-4.530658929354717
% es.tEx (V/m) @ t=0.12
4.136197209520196
% es.tEy (V/m) @ t=0.12
0
% es.tEz (V/m) @ t=0.12
-4.530658929354706
% V (V) @ t=0.12
0.005583015815712513
% es.normE (V/m) @ t=0.14
6.577502776344398
% es.EX (V/m) @ t=0.14
4.174079326737159
% es.EY (V/m) @ t=0.14
1.2481957696964607
% es.EZ (V/m) @ t=0.14
-4.572153780400181
% es.tEX (V/m) @ t=0.14
4.174079326737145
% es.tEY (V/m) @ t=0.14
0
% es.tEZ (V/m) @ t=0.14
-4.572153780400173
% es.Ex (V/m) @ t=0.14
4.174079326737159
% es.Ey (V/m) @ t=0.14
1.2481957696964607
% es.Ez (V/m) @ t=0.14
-4.572153780400181
% es.tEx (V/m) @ t=0.14
4.174079326737145
% es.tEy (V/m) @ t=0.14
0
% es.tEz (V/m) @ t=0.14
-4.572153780400173
% V (V) @ t=0.14
0.005634148849139723
% es.normE (V/m) @ t=0.16
6.6400149741936945
% es.EX (V/m) @ t=0.16
4.213749559147476
% es.EY (V/m) @ t=0.16
1.2600585637241348
% es.EZ (V/m) @ t=0.16
-4.615607234110669
% es.tEX (V/m) @ t=0.16
4.213749559147468
% es.tEY (V/m) @ t=0.16
0
% es.tEZ (V/m) @ t=0.16
-4.615607234110658
% es.Ex (V/m) @ t=0.16
4.213749559147476
% es.Ey (V/m) @ t=0.16
1.2600585637241348
% es.Ez (V/m) @ t=0.16
-4.615607234110669
% es.tEx (V/m) @ t=0.16
4.213749559147468
% es.tEy (V/m) @ t=0.16
0
% es.tEz (V/m) @ t=0.16
-4.615607234110658
% V (V) @ t=0.16
0.005687695375791894
% es.normE (V/m) @ t=0.18
6.702527172043005
% es.EX (V/m) @ t=0.18
4.25341979155778
% es.EY (V/m) @ t=0.18
1.271921357751832
% es.EZ (V/m) @ t=0.18
-4.659060687821178
% es.tEX (V/m) @ t=0.18
4.253419791557771
% es.tEY (V/m) @ t=0.18
0
% es.tEZ (V/m) @ t=0.18
-4.659060687821167
% es.Ex (V/m) @ t=0.18
4.25341979155778
% es.Ey (V/m) @ t=0.18
1.271921357751832
% es.Ez (V/m) @ t=0.18
-4.659060687821178
% es.tEx (V/m) @ t=0.18
4.253419791557771
% es.tEy (V/m) @ t=0.18
0
% es.tEz (V/m) @ t=0.18
-4.659060687821167
% V (V) @ t=0.18
0.005741241902444064
% es.normE (V/m) @ t=0.2
6.765039369892303
% es.EX (V/m) @ t=0.2
4.293090023968092
% es.EY (V/m) @ t=0.2
1.2837841517795254
% es.EZ (V/m) @ t=0.2
-4.702514141531676
% es.tEX (V/m) @ t=0.2
4.293090023968087
% es.tEY (V/m) @ t=0.2
0
% es.tEZ (V/m) @ t=0.2
-4.7025141415316725
% es.Ex (V/m) @ t=0.2
4.293090023968092
% es.Ey (V/m) @ t=0.2
1.2837841517795254
% es.Ez (V/m) @ t=0.2
-4.702514141531676
% es.tEx (V/m) @ t=0.2
4.293090023968087
% es.tEy (V/m) @ t=0.2
0
% es.tEz (V/m) @ t=0.2
-4.7025141415316725
% V (V) @ t=0.2
0.005794788429096235
% es.normE (V/m) @ t=0.22
6.827551567741618
% es.EX (V/m) @ t=0.22
4.3327602563783945
% es.EY (V/m) @ t=0.22
1.2956469458072102
% es.EZ (V/m) @ t=0.22
-4.745967595242196
% es.tEX (V/m) @ t=0.22
4.332760256378391
% es.tEY (V/m) @ t=0.22
0
% es.tEZ (V/m) @ t=0.22
-4.745967595242189
% es.Ex (V/m) @ t=0.22
4.3327602563783945
% es.Ey (V/m) @ t=0.22
1.2956469458072102
% es.Ez (V/m) @ t=0.22
-4.745967595242196
% es.tEx (V/m) @ t=0.22
4.332760256378391
% es.tEy (V/m) @ t=0.22
0
% es.tEz (V/m) @ t=0.22
-4.745967595242189
% V (V) @ t=0.22
0.005848334955748405
% es.normE (V/m) @ t=0.24
6.890063765590924
% es.EX (V/m) @ t=0.24
4.372430488788695
% es.EY (V/m) @ t=0.24
1.3075097398349056
% es.EZ (V/m) @ t=0.24
-4.789421048952702
% es.tEX (V/m) @ t=0.24
4.372430488788682
% es.tEY (V/m) @ t=0.24
0
% es.tEZ (V/m) @ t=0.24
-4.789421048952687
% es.Ex (V/m) @ t=0.24
4.372430488788695
% es.Ey (V/m) @ t=0.24
1.3075097398349056
% es.Ez (V/m) @ t=0.24
-4.789421048952702
% es.tEx (V/m) @ t=0.24
4.372430488788682
% es.tEy (V/m) @ t=0.24
0
% es.tEz (V/m) @ t=0.24
-4.789421048952687
% V (V) @ t=0.24
0.0059018814824005755
% es.normE (V/m) @ t=0.26
6.952575963440232
% es.EX (V/m) @ t=0.26
4.41210072119901
% es.EY (V/m) @ t=0.26
1.3193725338626063
% es.EZ (V/m) @ t=0.26
-4.832874502663197
% es.tEX (V/m) @ t=0.26
4.4121007211990095
% es.tEY (V/m) @ t=0.26
0
% es.tEZ (V/m) @ t=0.26
-4.83287450266319
% es.Ex (V/m) @ t=0.26
4.41210072119901
% es.Ey (V/m) @ t=0.26
1.3193725338626063
% es.Ez (V/m) @ t=0.26
-4.832874502663197
% es.tEx (V/m) @ t=0.26
4.4121007211990095
% es.tEy (V/m) @ t=0.26
0
% es.tEz (V/m) @ t=0.26
-4.83287450266319
% V (V) @ t=0.26
0.005955428009052746
% es.normE (V/m) @ t=0.28
7.016883612556483
% es.EX (V/m) @ t=0.28
4.452909676048195
% es.EY (V/m) @ t=0.28
1.3315756987285483
% es.EZ (V/m) @ t=0.28
-4.877576603224242
% es.tEX (V/m) @ t=0.28
4.4529096760481774
% es.tEY (V/m) @ t=0.28
0
% es.tEZ (V/m) @ t=0.28
-4.8775766032242345
% es.Ex (V/m) @ t=0.28
4.452909676048195
% es.Ey (V/m) @ t=0.28
1.3315756987285483
% es.Ez (V/m) @ t=0.28
-4.877576603224242
% es.tEx (V/m) @ t=0.28
4.4529096760481774
% es.tEy (V/m) @ t=0.28
0
% es.tEz (V/m) @ t=0.28
-4.8775766032242345
% V (V) @ t=0.28
0.006010514584417637
% es.normE (V/m) @ t=0.3
7.0866095767927
% es.EX (V/m) @ t=0.3
4.497155068922719
% es.EY (V/m) @ t=0.3
1.3448060351433424
% es.EZ (V/m) @ t=0.3
-4.9260468718400485
% es.tEX (V/m) @ t=0.3
4.497155068922717
% es.tEY (V/m) @ t=0.3
0
% es.tEZ (V/m) @ t=0.3
-4.926046871840034
% es.Ex (V/m) @ t=0.3
4.497155068922719
% es.Ey (V/m) @ t=0.3
1.3448060351433424
% es.Ez (V/m) @ t=0.3
-4.9260468718400485
% es.tEx (V/m) @ t=0.3
4.497155068922717
% es.tEy (V/m) @ t=0.3
0
% es.tEz (V/m) @ t=0.3
-4.926046871840034
% V (V) @ t=0.3
0.006070248720747885
% es.normE (V/m) @ t=0.32
7.15633554103111
% es.EX (V/m) @ t=0.32
4.541400461797255
% es.EY (V/m) @ t=0.32
1.358036371558147
% es.EZ (V/m) @ t=0.32
-4.9745171404558555
% es.tEX (V/m) @ t=0.32
4.541400461797245
% es.tEY (V/m) @ t=0.32
0
% es.tEZ (V/m) @ t=0.32
-4.974517140455852
% es.Ex (V/m) @ t=0.32
4.541400461797255
% es.Ey (V/m) @ t=0.32
1.358036371558147
% es.Ez (V/m) @ t=0.32
-4.9745171404558555
% es.tEx (V/m) @ t=0.32
4.541400461797245
% es.tEy (V/m) @ t=0.32
0
% es.tEz (V/m) @ t=0.32
-4.974517140455852
% V (V) @ t=0.32
0.006129982857078134
% es.normE (V/m) @ t=0.34
7.226061505271646
% es.EX (V/m) @ t=0.34
4.585645854671775
% es.EY (V/m) @ t=0.34
1.371266707972968
% es.EZ (V/m) @ t=0.34
-5.02298740907168
% es.tEX (V/m) @ t=0.34
4.585645854671763
% es.tEY (V/m) @ t=0.34
0
% es.tEZ (V/m) @ t=0.34
-5.022987409071665
% es.Ex (V/m) @ t=0.34
4.585645854671775
% es.Ey (V/m) @ t=0.34
1.371266707972968
% es.Ez (V/m) @ t=0.34
-5.02298740907168
% es.tEx (V/m) @ t=0.34
4.585645854671763
% es.tEy (V/m) @ t=0.34
0
% es.tEz (V/m) @ t=0.34
-5.022987409071665
% V (V) @ t=0.34
0.006189716993408384
% es.normE (V/m) @ t=0.36
7.295787469514238
% es.EX (V/m) @ t=0.36
4.629891247546303
% es.EY (V/m) @ t=0.36
1.3844970443877727
% es.EZ (V/m) @ t=0.36
-5.071457677687494
% es.tEX (V/m) @ t=0.36
4.629891247546292
% es.tEY (V/m) @ t=0.36
0
% es.tEZ (V/m) @ t=0.36
-5.071457677687483
% es.Ex (V/m) @ t=0.36
4.629891247546303
% es.Ey (V/m) @ t=0.36
1.3844970443877727
% es.Ez (V/m) @ t=0.36
-5.071457677687494
% es.tEx (V/m) @ t=0.36
4.629891247546292
% es.tEy (V/m) @ t=0.36
0
% es.tEz (V/m) @ t=0.36
-5.071457677687483
% V (V) @ t=0.36
0.006249451129738631
% es.normE (V/m) @ t=0.38
7.36551343375883
% es.EX (V/m) @ t=0.38
4.674136640420826
% es.EY (V/m) @ t=0.38
1.3977273808025685
% es.EZ (V/m) @ t=0.38
-5.119927946303308
% es.tEX (V/m) @ t=0.38
4.674136640420818
% es.tEY (V/m) @ t=0.38
0
% es.tEZ (V/m) @ t=0.38
-5.1199279463033
% es.Ex (V/m) @ t=0.38
4.674136640420826
% es.Ey (V/m) @ t=0.38
1.3977273808025685
% es.Ez (V/m) @ t=0.38
-5.119927946303308
% es.tEx (V/m) @ t=0.38
4.674136640420818
% es.tEy (V/m) @ t=0.38
0
% es.tEz (V/m) @ t=0.38
-5.1199279463033
% V (V) @ t=0.38
0.006309185266068881
% es.normE (V/m) @ t=0.4
7.435239398005366
% es.EX (V/m) @ t=0.4
4.718382033295352
% es.EY (V/m) @ t=0.4
1.410957717217391
% es.EZ (V/m) @ t=0.4
-5.168398214919122
% es.tEX (V/m) @ t=0.4
4.7183820332953434
% es.tEY (V/m) @ t=0.4
0
% es.tEZ (V/m) @ t=0.4
-5.168398214919107
% es.Ex (V/m) @ t=0.4
4.718382033295352
% es.Ey (V/m) @ t=0.4
1.410957717217391
% es.Ez (V/m) @ t=0.4
-5.168398214919122
% es.tEx (V/m) @ t=0.4
4.7183820332953434
% es.tEy (V/m) @ t=0.4
0
% es.tEz (V/m) @ t=0.4
-5.168398214919107
% V (V) @ t=0.4
0.00636891940239913
% es.normE (V/m) @ t=0.42
7.50496536225379
% es.EX (V/m) @ t=0.42
4.762627426169864
% es.EY (V/m) @ t=0.42
1.424188053632203
% es.EZ (V/m) @ t=0.42
-5.216868483534936
% es.tEX (V/m) @ t=0.42
4.762627426169847
% es.tEY (V/m) @ t=0.42
0
% es.tEZ (V/m) @ t=0.42
-5.216868483534928
% es.Ex (V/m) @ t=0.42
4.762627426169864
% es.Ey (V/m) @ t=0.42
1.424188053632203
% es.Ez (V/m) @ t=0.42
-5.216868483534936
% es.tEx (V/m) @ t=0.42
4.762627426169847
% es.tEy (V/m) @ t=0.42
0
% es.tEz (V/m) @ t=0.42
-5.216868483534928
% V (V) @ t=0.42
0.006428653538729378
% es.normE (V/m) @ t=0.44
7.574691326504065
% es.EX (V/m) @ t=0.44
4.806872819044403
% es.EY (V/m) @ t=0.44
1.4374183900469988
% es.EZ (V/m) @ t=0.44
-5.265338752150743
% es.tEX (V/m) @ t=0.44
4.80687281904439
% es.tEY (V/m) @ t=0.44
0
% es.tEZ (V/m) @ t=0.44
-5.265338752150729
% es.Ex (V/m) @ t=0.44
4.806872819044403
% es.Ey (V/m) @ t=0.44
1.4374183900469988
% es.Ez (V/m) @ t=0.44
-5.265338752150743
% es.tEx (V/m) @ t=0.44
4.80687281904439
% es.tEy (V/m) @ t=0.44
0
% es.tEz (V/m) @ t=0.44
-5.265338752150729
% V (V) @ t=0.44
0.006488387675059628
% es.normE (V/m) @ t=0.46
7.6444172907561185
% es.EX (V/m) @ t=0.46
4.851118211918925
% es.EY (V/m) @ t=0.46
1.4506487264618033
% es.EZ (V/m) @ t=0.46
-5.313809020766554
% es.tEX (V/m) @ t=0.46
4.851118211918909
% es.tEY (V/m) @ t=0.46
0
% es.tEZ (V/m) @ t=0.46
-5.313809020766543
% es.Ex (V/m) @ t=0.46
4.851118211918925
% es.Ey (V/m) @ t=0.46
1.4506487264618033
% es.Ez (V/m) @ t=0.46
-5.313809020766554
% es.tEx (V/m) @ t=0.46
4.851118211918909
% es.tEy (V/m) @ t=0.46
0
% es.tEz (V/m) @ t=0.46
-5.313809020766543
% V (V) @ t=0.46
0.006548121811389876
% es.normE (V/m) @ t=0.48
7.71414325500993
% es.EX (V/m) @ t=0.48
4.895363604793451
% es.EY (V/m) @ t=0.48
1.4638790628765976
% es.EZ (V/m) @ t=0.48
-5.3622792893823785
% es.tEX (V/m) @ t=0.48
4.895363604793448
% es.tEY (V/m) @ t=0.48
0
% es.tEZ (V/m) @ t=0.48
-5.362279289382363
% es.Ex (V/m) @ t=0.48
4.895363604793451
% es.Ey (V/m) @ t=0.48
1.4638790628765976
% es.Ez (V/m) @ t=0.48
-5.3622792893823785
% es.tEx (V/m) @ t=0.48
4.895363604793448
% es.tEy (V/m) @ t=0.48
0
% es.tEz (V/m) @ t=0.48
-5.362279289382363
% V (V) @ t=0.48
0.006607855947720126
% es.normE (V/m) @ t=0.5
7.783869219265416
% es.EX (V/m) @ t=0.5
4.939608997667983
% es.EY (V/m) @ t=0.5
1.4771093992914148
% es.EZ (V/m) @ t=0.5
-5.410749557998182
% es.tEX (V/m) @ t=0.5
4.939608997667969
% es.tEY (V/m) @ t=0.5
0
% es.tEZ (V/m) @ t=0.5
-5.410749557998167
% es.Ex (V/m) @ t=0.5
4.939608997667983
% es.Ey (V/m) @ t=0.5
1.4771093992914148
% es.Ez (V/m) @ t=0.5
-5.410749557998182
% es.tEx (V/m) @ t=0.5
4.939608997667969
% es.tEy (V/m) @ t=0.5
0
% es.tEz (V/m) @ t=0.5
-5.410749557998167
% V (V) @ t=0.5
0.006667590084050374
% es.normE (V/m) @ t=0.52
7.853595183522568
% es.EX (V/m) @ t=0.52
4.983854390542501
% es.EY (V/m) @ t=0.52
1.4903397357062285
% es.EZ (V/m) @ t=0.52
-5.4592198266139995
% es.tEX (V/m) @ t=0.52
4.983854390542488
% es.tEY (V/m) @ t=0.52
0
% es.tEZ (V/m) @ t=0.52
-5.459219826613988
% es.Ex (V/m) @ t=0.52
4.983854390542501
% es.Ey (V/m) @ t=0.52
1.4903397357062285
% es.Ez (V/m) @ t=0.52
-5.4592198266139995
% es.tEx (V/m) @ t=0.52
4.983854390542488
% es.tEy (V/m) @ t=0.52
0
% es.tEz (V/m) @ t=0.52
-5.459219826613988
% V (V) @ t=0.52
0.006727324220380622
% es.normE (V/m) @ t=0.54
7.923321147781315
% es.EX (V/m) @ t=0.54
5.028099783417034
% es.EY (V/m) @ t=0.54
1.5035700721210172
% es.EZ (V/m) @ t=0.54
-5.5076900952298065
% es.tEX (V/m) @ t=0.54
5.028099783417024
% es.tEY (V/m) @ t=0.54
0
% es.tEZ (V/m) @ t=0.54
-5.507690095229791
% es.Ex (V/m) @ t=0.54
5.028099783417034
% es.Ey (V/m) @ t=0.54
1.5035700721210172
% es.Ez (V/m) @ t=0.54
-5.5076900952298065
% es.tEx (V/m) @ t=0.54
5.028099783417024
% es.tEy (V/m) @ t=0.54
0
% es.tEz (V/m) @ t=0.54
-5.507690095229791
% V (V) @ t=0.54
0.006787058356710872
% es.normE (V/m) @ t=0.56
7.997207482154988
% es.EX (V/m) @ t=0.56
5.074982775183103
% es.EY (V/m) @ t=0.56
1.5175885819531012
% es.EZ (V/m) @ t=0.56
-5.559054593597554
% es.tEX (V/m) @ t=0.56
5.0749827751831
% es.tEY (V/m) @ t=0.56
0
% es.tEZ (V/m) @ t=0.56
-5.55905459359754
% es.Ex (V/m) @ t=0.56
5.074982775183103
% es.Ey (V/m) @ t=0.56
1.5175885819531012
% es.Ez (V/m) @ t=0.56
-5.559054593597554
% es.tEx (V/m) @ t=0.56
5.0749827751831
% es.tEy (V/m) @ t=0.56
0
% es.tEz (V/m) @ t=0.56
-5.55905459359754
% V (V) @ t=0.56
0.006850364249340992
% es.normE (V/m) @ t=0.58
8.075125587399949
% es.EX (V/m) @ t=0.58
5.124421836255688
% es.EY (V/m) @ t=0.58
1.5323709023427863
% es.EZ (V/m) @ t=0.58
-5.613223859535713
% es.tEX (V/m) @ t=0.58
5.124421836255676
% es.tEY (V/m) @ t=0.58
0
% es.tEZ (V/m) @ t=0.58
-5.613223859535699
% es.Ex (V/m) @ t=0.58
5.124421836255688
% es.Ey (V/m) @ t=0.58
1.5323709023427863
% es.Ez (V/m) @ t=0.58
-5.613223859535713
% es.tEx (V/m) @ t=0.58
5.124421836255676
% es.tEy (V/m) @ t=0.58
0
% es.tEz (V/m) @ t=0.58
-5.613223859535699
% V (V) @ t=0.58
0.0069171314933834166
% es.normE (V/m) @ t=0.6
8.153043692659482
% es.EX (V/m) @ t=0.6
5.173860897328261
% es.EY (V/m) @ t=0.6
1.5471532227324698
% es.EZ (V/m) @ t=0.6
-5.667393125473863
% es.tEX (V/m) @ t=0.6
5.173860897328252
% es.tEY (V/m) @ t=0.6
0
% es.tEZ (V/m) @ t=0.6
-5.667393125473856
% es.Ex (V/m) @ t=0.6
5.173860897328261
% es.Ey (V/m) @ t=0.6
1.5471532227324698
% es.Ez (V/m) @ t=0.6
-5.667393125473863
% es.tEx (V/m) @ t=0.6
5.173860897328252
% es.tEy (V/m) @ t=0.6
0
% es.tEz (V/m) @ t=0.6
-5.667393125473856
% V (V) @ t=0.6
0.006983898737425841
% es.normE (V/m) @ t=0.62
8.2309617979332
% es.EX (V/m) @ t=0.62
5.223299958400825
% es.EY (V/m) @ t=0.62
1.56193554312215
% es.EZ (V/m) @ t=0.62
-5.721562391412044
% es.tEX (V/m) @ t=0.62
5.223299958400812
% es.tEY (V/m) @ t=0.62
0
% es.tEZ (V/m) @ t=0.62
-5.721562391412029
% es.Ex (V/m) @ t=0.62
5.223299958400825
% es.Ey (V/m) @ t=0.62
1.56193554312215
% es.Ez (V/m) @ t=0.62
-5.721562391412044
% es.tEx (V/m) @ t=0.62
5.223299958400812
% es.tEy (V/m) @ t=0.62
0
% es.tEz (V/m) @ t=0.62
-5.721562391412029
% V (V) @ t=0.62
0.007050665981468265
% es.normE (V/m) @ t=0.64
8.308879903220685
% es.EX (V/m) @ t=0.64
5.27273901947339
% es.EY (V/m) @ t=0.64
1.5767178635118655
% es.EZ (V/m) @ t=0.64
-5.775731657350214
% es.tEX (V/m) @ t=0.64
5.272739019473374
% es.tEY (V/m) @ t=0.64
0
% es.tEZ (V/m) @ t=0.64
-5.775731657350203
% es.Ex (V/m) @ t=0.64
5.27273901947339
% es.Ey (V/m) @ t=0.64
1.5767178635118655
% es.Ez (V/m) @ t=0.64
-5.775731657350214
% es.tEx (V/m) @ t=0.64
5.272739019473374
% es.tEy (V/m) @ t=0.64
0
% es.tEz (V/m) @ t=0.64
-5.775731657350203
% V (V) @ t=0.64
0.007117433225510692
% es.normE (V/m) @ t=0.66
8.386798008521547
% es.EX (V/m) @ t=0.66
5.32217808054596
% es.EY (V/m) @ t=0.66
1.591500183901553
% es.EZ (V/m) @ t=0.66
-5.829900923288373
% es.tEX (V/m) @ t=0.66
5.322178080545951
% es.tEY (V/m) @ t=0.66
0
% es.tEZ (V/m) @ t=0.66
-5.829900923288362
% es.Ex (V/m) @ t=0.66
5.32217808054596
% es.Ey (V/m) @ t=0.66
1.591500183901553
% es.Ez (V/m) @ t=0.66
-5.829900923288373
% es.tEx (V/m) @ t=0.66
5.322178080545951
% es.tEy (V/m) @ t=0.66
0
% es.tEz (V/m) @ t=0.66
-5.829900923288362
% V (V) @ t=0.66
0.007184200469553117
% es.normE (V/m) @ t=0.68
8.46471611383544
% es.EX (V/m) @ t=0.68
5.371617141618557
% es.EY (V/m) @ t=0.68
1.6062825042912112
% es.EZ (V/m) @ t=0.68
-5.884070189226529
% es.tEX (V/m) @ t=0.68
5.371617141618541
% es.tEY (V/m) @ t=0.68
0
% es.tEZ (V/m) @ t=0.68
-5.884070189226515
% es.Ex (V/m) @ t=0.68
5.371617141618557
% es.Ey (V/m) @ t=0.68
1.6062825042912112
% es.Ez (V/m) @ t=0.68
-5.884070189226529
% es.tEx (V/m) @ t=0.68
5.371617141618541
% es.tEy (V/m) @ t=0.68
0
% es.tEz (V/m) @ t=0.68
-5.884070189226515
% V (V) @ t=0.68
0.007250967713595543
% es.normE (V/m) @ t=0.7
8.542634219161993
% es.EX (V/m) @ t=0.7
5.421056202691118
% es.EY (V/m) @ t=0.7
1.6210648246808987
% es.EZ (V/m) @ t=0.7
-5.9382394551647035
% es.tEX (V/m) @ t=0.7
5.421056202691108
% es.tEY (V/m) @ t=0.7
0
% es.tEZ (V/m) @ t=0.7
-5.938239455164688
% es.Ex (V/m) @ t=0.7
5.421056202691118
% es.Ey (V/m) @ t=0.7
1.6210648246808987
% es.Ez (V/m) @ t=0.7
-5.9382394551647035
% es.tEx (V/m) @ t=0.7
5.421056202691108
% es.tEy (V/m) @ t=0.7
0
% es.tEz (V/m) @ t=0.7
-5.938239455164688
% V (V) @ t=0.7
0.007317734957637966
% es.normE (V/m) @ t=0.72
8.620552324500844
% es.EX (V/m) @ t=0.72
5.470495263763693
% es.EY (V/m) @ t=0.72
1.6358471450705752
% es.EZ (V/m) @ t=0.72
-5.9924087211028585
% es.tEX (V/m) @ t=0.72
5.470495263763677
% es.tEY (V/m) @ t=0.72
0
% es.tEZ (V/m) @ t=0.72
-5.992408721102837
% es.Ex (V/m) @ t=0.72
5.470495263763693
% es.Ey (V/m) @ t=0.72
1.6358471450705752
% es.Ez (V/m) @ t=0.72
-5.9924087211028585
% es.tEx (V/m) @ t=0.72
5.470495263763677
% es.tEy (V/m) @ t=0.72
0
% es.tEz (V/m) @ t=0.72
-5.992408721102837
% V (V) @ t=0.72
0.007384502201680392
% es.normE (V/m) @ t=0.74
8.698470429851698
% es.EX (V/m) @ t=0.74
5.519934324836262
% es.EY (V/m) @ t=0.74
1.6506294654602693
% es.EZ (V/m) @ t=0.74
-6.046577987041033
% es.tEX (V/m) @ t=0.74
5.519934324836259
% es.tEY (V/m) @ t=0.74
0
% es.tEZ (V/m) @ t=0.74
-6.046577987041012
% es.Ex (V/m) @ t=0.74
5.519934324836262
% es.Ey (V/m) @ t=0.74
1.6506294654602693
% es.Ez (V/m) @ t=0.74
-6.046577987041033
% es.tEx (V/m) @ t=0.74
5.519934324836259
% es.tEy (V/m) @ t=0.74
0
% es.tEz (V/m) @ t=0.74
-6.046577987041012
% V (V) @ t=0.74
0.007451269445722817
% es.normE (V/m) @ t=0.76
8.776388535214203
% es.EX (V/m) @ t=0.76
5.56937338590884
% es.EY (V/m) @ t=0.76
1.6654117858499564
% es.EZ (V/m) @ t=0.76
-6.100747252979177
% es.tEX (V/m) @ t=0.76
5.569373385908831
% es.tEY (V/m) @ t=0.76
0
% es.tEZ (V/m) @ t=0.76
-6.100747252979163
% es.Ex (V/m) @ t=0.76
5.56937338590884
% es.Ey (V/m) @ t=0.76
1.6654117858499564
% es.Ez (V/m) @ t=0.76
-6.100747252979177
% es.tEx (V/m) @ t=0.76
5.569373385908831
% es.tEy (V/m) @ t=0.76
0
% es.tEz (V/m) @ t=0.76
-6.100747252979163
% V (V) @ t=0.76
0.007518036689765242
% es.normE (V/m) @ t=0.78
8.8543066405881
% es.EX (V/m) @ t=0.78
5.618812446981423
% es.EY (V/m) @ t=0.78
1.6801941062396435
% es.EZ (V/m) @ t=0.78
-6.1549165189173625
% es.tEX (V/m) @ t=0.78
5.618812446981407
% es.tEY (V/m) @ t=0.78
0
% es.tEZ (V/m) @ t=0.78
-6.154916518917341
% es.Ex (V/m) @ t=0.78
5.618812446981423
% es.Ey (V/m) @ t=0.78
1.6801941062396435
% es.Ez (V/m) @ t=0.78
-6.1549165189173625
% es.tEx (V/m) @ t=0.78
5.618812446981407
% es.tEy (V/m) @ t=0.78
0
% es.tEz (V/m) @ t=0.78
-6.154916518917341
% V (V) @ t=0.78
0.00758480393380767
% es.normE (V/m) @ t=0.8
8.932224745973024
% es.EX (V/m) @ t=0.8
5.66825150805398
% es.EY (V/m) @ t=0.8
1.6949764266293128
% es.EZ (V/m) @ t=0.8
-6.209085784855519
% es.tEX (V/m) @ t=0.8
5.66825150805397
% es.tEY (V/m) @ t=0.8
0
% es.tEZ (V/m) @ t=0.8
-6.209085784855511
% es.Ex (V/m) @ t=0.8
5.66825150805398
% es.Ey (V/m) @ t=0.8
1.6949764266293128
% es.Ez (V/m) @ t=0.8
-6.209085784855519
% es.tEx (V/m) @ t=0.8
5.66825150805397
% es.tEy (V/m) @ t=0.8
0
% es.tEz (V/m) @ t=0.8
-6.209085784855511
% V (V) @ t=0.8
0.007651571177850095
% es.normE (V/m) @ t=0.82
9.010142851368737
% es.EX (V/m) @ t=0.82
5.717690569126553
% es.EY (V/m) @ t=0.82
1.7097587470190216
% es.EZ (V/m) @ t=0.82
-6.263255050793681
% es.tEX (V/m) @ t=0.82
5.7176905691265345
% es.tEY (V/m) @ t=0.82
0
% es.tEZ (V/m) @ t=0.82
-6.263255050793674
% es.Ex (V/m) @ t=0.82
5.717690569126553
% es.Ey (V/m) @ t=0.82
1.7097587470190216
% es.Ez (V/m) @ t=0.82
-6.263255050793681
% es.tEx (V/m) @ t=0.82
5.7176905691265345
% es.tEy (V/m) @ t=0.82
0
% es.tEz (V/m) @ t=0.82
-6.263255050793674
% V (V) @ t=0.82
0.007718338421892517
% es.normE (V/m) @ t=0.84
9.095168566935264
% es.EX (V/m) @ t=0.84
5.7716535438045184
% es.EY (V/m) @ t=0.84
1.7258968148118434
% es.EZ (V/m) @ t=0.84
-6.322353077782058
% es.tEX (V/m) @ t=0.84
5.7716535438045025
% es.tEY (V/m) @ t=0.84
0
% es.tEZ (V/m) @ t=0.84
-6.322353077782044
% es.Ex (V/m) @ t=0.84
5.7716535438045184
% es.Ey (V/m) @ t=0.84
1.7258968148118434
% es.Ez (V/m) @ t=0.84
-6.322353077782058
% es.tEx (V/m) @ t=0.84
5.7716535438045025
% es.tEy (V/m) @ t=0.84
0
% es.tEz (V/m) @ t=0.84
-6.322353077782044
% V (V) @ t=0.84
0.007791151718530171
% es.normE (V/m) @ t=0.86
9.182355789338379
% es.EX (V/m) @ t=0.86
5.8269922931577405
% es.EY (V/m) @ t=0.86
1.7424471811377882
% es.EZ (V/m) @ t=0.86
-6.382949998256221
% es.tEX (V/m) @ t=0.86
5.826992293157722
% es.tEY (V/m) @ t=0.86
0
% es.tEZ (V/m) @ t=0.86
-6.3829499982561995
% es.Ex (V/m) @ t=0.86
5.8269922931577405
% es.Ey (V/m) @ t=0.86
1.7424471811377882
% es.Ez (V/m) @ t=0.86
-6.382949998256221
% es.tEx (V/m) @ t=0.86
5.826992293157722
% es.tEy (V/m) @ t=0.86
0
% es.tEz (V/m) @ t=0.86
-6.3829499982561995
% V (V) @ t=0.86
0.007865803689990444
% es.normE (V/m) @ t=0.88
9.26954301177084
% es.EX (V/m) @ t=0.88
5.882331042510979
% es.EY (V/m) @ t=0.88
1.758997547463708
% es.EZ (V/m) @ t=0.88
-6.443546918730388
% es.tEX (V/m) @ t=0.88
5.8823310425109625
% es.tEY (V/m) @ t=0.88
0
% es.tEZ (V/m) @ t=0.88
-6.443546918730373
% es.Ex (V/m) @ t=0.88
5.882331042510979
% es.Ey (V/m) @ t=0.88
1.758997547463708
% es.Ez (V/m) @ t=0.88
-6.443546918730388
% es.tEx (V/m) @ t=0.88
5.8823310425109625
% es.tEy (V/m) @ t=0.88
0
% es.tEz (V/m) @ t=0.88
-6.443546918730373
% V (V) @ t=0.88
0.007940455661450721
% es.normE (V/m) @ t=0.9
9.356730234231826
% es.EX (V/m) @ t=0.9
5.937669791864206
% es.EY (V/m) @ t=0.9
1.7755479137896355
% es.EZ (V/m) @ t=0.9
-6.5041438392045405
% es.tEX (V/m) @ t=0.9
5.937669791864197
% es.tEY (V/m) @ t=0.9
0
% es.tEZ (V/m) @ t=0.9
-6.504143839204525
% es.Ex (V/m) @ t=0.9
5.937669791864206
% es.Ey (V/m) @ t=0.9
1.7755479137896355
% es.Ez (V/m) @ t=0.9
-6.5041438392045405
% es.tEx (V/m) @ t=0.9
5.937669791864197
% es.tEy (V/m) @ t=0.9
0
% es.tEz (V/m) @ t=0.9
-6.504143839204525
% V (V) @ t=0.9
0.008015107632910995
% es.normE (V/m) @ t=0.92
9.443917456720559
% es.EX (V/m) @ t=0.92
5.99300854121743
% es.EY (V/m) @ t=0.92
1.792098280115587
% es.EZ (V/m) @ t=0.92
-6.564740759678715
% es.tEX (V/m) @ t=0.92
5.993008541217417
% es.tEY (V/m) @ t=0.92
0
% es.tEZ (V/m) @ t=0.92
-6.5647407596787
% es.Ex (V/m) @ t=0.92
5.99300854121743
% es.Ey (V/m) @ t=0.92
1.792098280115587
% es.Ez (V/m) @ t=0.92
-6.564740759678715
% es.tEx (V/m) @ t=0.92
5.993008541217417
% es.tEy (V/m) @ t=0.92
0
% es.tEz (V/m) @ t=0.92
-6.5647407596787
% V (V) @ t=0.92
0.008089759604371272
% es.normE (V/m) @ t=0.94
9.531104679236265
% es.EX (V/m) @ t=0.94
6.048347290570674
% es.EY (V/m) @ t=0.94
1.8086486464415037
% es.EZ (V/m) @ t=0.94
-6.625337680152871
% es.tEX (V/m) @ t=0.94
6.048347290570657
% es.tEY (V/m) @ t=0.94
0
% es.tEZ (V/m) @ t=0.94
-6.625337680152856
% es.Ex (V/m) @ t=0.94
6.048347290570674
% es.Ey (V/m) @ t=0.94
1.8086486464415037
% es.Ez (V/m) @ t=0.94
-6.625337680152871
% es.tEx (V/m) @ t=0.94
6.048347290570657
% es.tEy (V/m) @ t=0.94
0
% es.tEz (V/m) @ t=0.94
-6.625337680152856
% V (V) @ t=0.94
0.008164411575831544
% es.normE (V/m) @ t=0.96
9.618291901778216
% es.EX (V/m) @ t=0.96
6.1036860399239075
% es.EY (V/m) @ t=0.96
1.8251990127674524
% es.EZ (V/m) @ t=0.96
-6.685934600627045
% es.tEX (V/m) @ t=0.96
6.1036860399238915
% es.tEY (V/m) @ t=0.96
0
% es.tEZ (V/m) @ t=0.96
-6.685934600627022
% es.Ex (V/m) @ t=0.96
6.1036860399239075
% es.Ey (V/m) @ t=0.96
1.8251990127674524
% es.Ez (V/m) @ t=0.96
-6.685934600627045
% es.tEx (V/m) @ t=0.96
6.1036860399238915
% es.tEy (V/m) @ t=0.96
0
% es.tEz (V/m) @ t=0.96
-6.685934600627022
% V (V) @ t=0.96
0.008239063547291819
% es.normE (V/m) @ t=0.98
9.705479124345686
% es.EX (V/m) @ t=0.98
6.159024789277147
% es.EY (V/m) @ t=0.98
1.8417493790933723
% es.EZ (V/m) @ t=0.98
-6.74653152110119
% es.tEX (V/m) @ t=0.98
6.159024789277144
% es.tEY (V/m) @ t=0.98
0
% es.tEZ (V/m) @ t=0.98
-6.746531521101176
% es.Ex (V/m) @ t=0.98
6.159024789277147
% es.Ey (V/m) @ t=0.98
1.8417493790933723
% es.Ez (V/m) @ t=0.98
-6.74653152110119
% es.tEx (V/m) @ t=0.98
6.159024789277144
% es.tEy (V/m) @ t=0.98
0
% es.tEz (V/m) @ t=0.98
-6.746531521101176
% V (V) @ t=0.98
0.008313715518752093
% es.normE (V/m) @ t=1
9.792666346938013
% es.EX (V/m) @ t=1
6.214363538630363
% es.EY (V/m) @ t=1
1.8582997454193064
% es.EZ (V/m) @ t=1
-6.80712844157536
% es.tEX (V/m) @ t=1
6.214363538630355
% es.tEY (V/m) @ t=1
0
% es.tEZ (V/m) @ t=1
-6.807128441575346
% es.Ex (V/m) @ t=1
6.214363538630363
% es.Ey (V/m) @ t=1
1.8582997454193064
% es.Ez (V/m) @ t=1
-6.80712844157536
% es.tEx (V/m) @ t=1
6.214363538630355
% es.tEy (V/m) @ t=1
0
% es.tEz (V/m) @ t=1
-6.807128441575346
% V (V) @ t=1
0.008388367490212368
% es.normE (V/m) @ t=1.02
9.879853569554534
% es.EX (V/m) @ t=1.02
6.26970228798359
% es.EY (V/m) @ t=1.02
1.874850111745248
% es.EZ (V/m) @ t=1.02
-6.867725362049519
% es.tEX (V/m) @ t=1.02
6.269702287983582
% es.tEY (V/m) @ t=1.02
0
% es.tEZ (V/m) @ t=1.02
-6.867725362049505
% es.Ex (V/m) @ t=1.02
6.26970228798359
% es.Ey (V/m) @ t=1.02
1.874850111745248
% es.Ez (V/m) @ t=1.02
-6.867725362049519
% es.tEx (V/m) @ t=1.02
6.269702287983582
% es.tEy (V/m) @ t=1.02
0
% es.tEz (V/m) @ t=1.02
-6.867725362049505
% V (V) @ t=1.02
0.008463019461672643
% es.normE (V/m) @ t=1.04
9.967040792194618
% es.EX (V/m) @ t=1.04
6.32504103733682
% es.EY (V/m) @ t=1.04
1.8914004780711893
% es.EZ (V/m) @ t=1.04
-6.928322282523679
% es.tEX (V/m) @ t=1.04
6.32504103733681
% es.tEY (V/m) @ t=1.04
0
% es.tEZ (V/m) @ t=1.04
-6.9283222825236646
% es.Ex (V/m) @ t=1.04
6.32504103733682
% es.Ey (V/m) @ t=1.04
1.8914004780711893
% es.Ez (V/m) @ t=1.04
-6.928322282523679
% es.tEx (V/m) @ t=1.04
6.32504103733681
% es.tEy (V/m) @ t=1.04
0
% es.tEz (V/m) @ t=1.04
-6.9283222825236646
% V (V) @ t=1.04
0.008537671433132919
% es.normE (V/m) @ t=1.06
10.05422801485766
% es.EX (V/m) @ t=1.06
6.380379786690051
% es.EY (V/m) @ t=1.06
1.9079508443971092