% Model:              1 neuron.mph
% Version:            COMSOL 6.0.0.405
% Date:               Mar 9 2023, 13:25
% Dimension:          0
% Nodes:              14017
% Expressions:        14017
% Description:        Electric field norm, Electric field, X component, Electric field, Y component, Electric field, Z component, Tangential electric field, X component, Tangential electric field, Y component, Tangential electric field, Z component, Electric field, x component, Electric field, y component, Electric field, z component, Tangential electric field, x component, Tangential electric field, y component, Tangential electric field, z component, Electric potential
% Length unit:        mm
% x
2
% y
12.2
% z
1.33
% es.normE (V/m) @ t=0
1.321291518969847
% es.EX (V/m) @ t=0
-1.2152934718744692
% es.EY (V/m) @ t=0
0.09480130901557654
% es.EZ (V/m) @ t=0
0.5082600565391897
% es.tEX (V/m) @ t=0
-1.215293471874464
% es.tEY (V/m) @ t=0
0
% es.tEZ (V/m) @ t=0
0.5082600565391857
% es.Ex (V/m) @ t=0
-1.2152934718744692
% es.Ey (V/m) @ t=0
0.09480130901557654
% es.Ez (V/m) @ t=0
0.5082600565391897
% es.tEx (V/m) @ t=0
-1.215293471874464
% es.tEy (V/m) @ t=0
0
% es.tEz (V/m) @ t=0
0.5082600565391857
% V (V) @ t=0
0.007377032516729292
% es.normE (V/m) @ t=0.02
1.1412238044126126
% es.EX (V/m) @ t=0.02
-1.0496713403609435
% es.EY (V/m) @ t=0.02
0.0818816355085204
% es.EZ (V/m) @ t=0.02
0.4389935652892672
% es.tEX (V/m) @ t=0.02
-1.0496713403609377
% es.tEY (V/m) @ t=0.02
0
% es.tEZ (V/m) @ t=0.02
0.43899356528926603
% es.Ex (V/m) @ t=0.02
-1.0496713403609435
% es.Ey (V/m) @ t=0.02
0.0818816355085204
% es.Ez (V/m) @ t=0.02
0.4389935652892672
% es.tEx (V/m) @ t=0.02
-1.0496713403609377
% es.tEy (V/m) @ t=0.02
0
% es.tEz (V/m) @ t=0.02
0.43899356528926603
% V (V) @ t=0.02
0.006371678707736754
% es.normE (V/m) @ t=0.04
1.15171966119156
% es.EX (V/m) @ t=0.04
-1.059325187788351
% es.EY (V/m) @ t=0.04
0.08263470248626087
% es.EZ (V/m) @ t=0.04
0.44303099644738736
% es.tEX (V/m) @ t=0.04
-1.0593251877883496
% es.tEY (V/m) @ t=0.04
0
% es.tEZ (V/m) @ t=0.04
0.44303099644738886
% es.Ex (V/m) @ t=0.04
-1.059325187788351
% es.Ey (V/m) @ t=0.04
0.08263470248626087
% es.Ez (V/m) @ t=0.04
0.44303099644738736
% es.tEx (V/m) @ t=0.04
-1.0593251877883496
% es.tEy (V/m) @ t=0.04
0
% es.tEz (V/m) @ t=0.04
0.44303099644738886
% V (V) @ t=0.04
0.0064302790507759075
% es.normE (V/m) @ t=0.06
1.1623110318469392
% es.EX (V/m) @ t=0.06
-1.069066887402089
% es.EY (V/m) @ t=0.06
0.08339462254194036
% es.EZ (V/m) @ t=0.06
0.4471051671103778
% es.tEX (V/m) @ t=0.06
-1.0690668874020837
% es.tEY (V/m) @ t=0.06
0
% es.tEZ (V/m) @ t=0.06
0.4471051671103723
% es.Ex (V/m) @ t=0.06
-1.069066887402089
% es.Ey (V/m) @ t=0.06
0.08339462254194036
% es.Ez (V/m) @ t=0.06
0.4471051671103778
% es.tEx (V/m) @ t=0.06
-1.0690668874020837
% es.tEy (V/m) @ t=0.06
0
% es.tEz (V/m) @ t=0.06
0.4471051671103723
% V (V) @ t=0.06
0.006489412465778883
% es.normE (V/m) @ t=0.08
1.1730619604761119
% es.EX (V/m) @ t=0.08
-1.0789553425211622
% es.EY (V/m) @ t=0.08
0.08416599059380492
% es.EZ (V/m) @ t=0.08
0.45124072014962263
% es.tEX (V/m) @ t=0.08
-1.0789553425211578
% es.tEY (V/m) @ t=0.08
0
% es.tEZ (V/m) @ t=0.08
0.4512407201496167
% es.Ex (V/m) @ t=0.08
-1.0789553425211622
% es.Ey (V/m) @ t=0.08
0.08416599059380492
% es.Ez (V/m) @ t=0.08
0.45124072014962263
% es.tEx (V/m) @ t=0.08
-1.0789553425211578
% es.tEy (V/m) @ t=0.08
0
% es.tEz (V/m) @ t=0.08
0.4512407201496167
% V (V) @ t=0.08
0.006549437343718196
% es.normE (V/m) @ t=0.1
1.1839283074939555
% es.EX (V/m) @ t=0.1
-1.0889499551925739
% es.EY (V/m) @ t=0.1
0.08494563970641983
% es.EZ (V/m) @ t=0.1
0.4554206749495047
% es.tEX (V/m) @ t=0.1
-1.0889499551925672
% es.tEY (V/m) @ t=0.1
0
% es.tEZ (V/m) @ t=0.1
0.4554206749495009
% es.Ex (V/m) @ t=0.1
-1.0889499551925739
% es.Ey (V/m) @ t=0.1
0.08494563970641983
% es.Ez (V/m) @ t=0.1
0.4554206749495047
% es.tEx (V/m) @ t=0.1
-1.0889499551925672
% es.tEy (V/m) @ t=0.1
0
% es.tEz (V/m) @ t=0.1
0.4554206749495009
% V (V) @ t=0.1
0.006610107073263679
% es.normE (V/m) @ t=0.12
1.1947946545117922
% es.EX (V/m) @ t=0.12
-1.0989445678639846
% es.EY (V/m) @ t=0.12
0.08572528881902758
% es.EZ (V/m) @ t=0.12
0.4596006297493754
% es.tEX (V/m) @ t=0.12
-1.0989445678639775
% es.tEY (V/m) @ t=0.12
0
% es.tEZ (V/m) @ t=0.12
0.459600629749378
% es.Ex (V/m) @ t=0.12
-1.0989445678639846
% es.Ey (V/m) @ t=0.12
0.08572528881902758
% es.Ez (V/m) @ t=0.12
0.4596006297493754
% es.tEx (V/m) @ t=0.12
-1.0989445678639775
% es.tEy (V/m) @ t=0.12
0
% es.tEz (V/m) @ t=0.12
0.459600629749378
% V (V) @ t=0.12
0.006670776802809161
% es.normE (V/m) @ t=0.14
1.2057600788701808
% es.EX (V/m) @ t=0.14
-1.1090303120454599
% es.EY (V/m) @ t=0.14
0.08651204671134088
% es.EZ (V/m) @ t=0.14
0.46381869068451687
% es.tEX (V/m) @ t=0.14
-1.1090303120454568
% es.tEY (V/m) @ t=0.14
0
% es.tEZ (V/m) @ t=0.14
0.4638186906845192
% es.Ex (V/m) @ t=0.14
-1.1090303120454599
% es.Ey (V/m) @ t=0.14
0.08651204671134088
% es.Ez (V/m) @ t=0.14
0.46381869068451687
% es.tEx (V/m) @ t=0.14
-1.1090303120454568
% es.tEy (V/m) @ t=0.14
0
% es.tEz (V/m) @ t=0.14
0.4638186906845192
% V (V) @ t=0.14
0.006731999023264776
% es.normE (V/m) @ t=0.16
1.217207487576589
% es.EX (V/m) @ t=0.16
-1.1195593862680981
% es.EY (V/m) @ t=0.16
0.08733338688588022
% es.EZ (V/m) @ t=0.16
0.46822212761639054
% es.tEX (V/m) @ t=0.16
-1.1195593862680955
% es.tEY (V/m) @ t=0.16
0
% es.tEZ (V/m) @ t=0.16
0.4682221276163929
% es.Ex (V/m) @ t=0.16
-1.1195593862680981
% es.Ey (V/m) @ t=0.16
0.08733338688588022
% es.Ez (V/m) @ t=0.16
0.46822212761639054
% es.tEx (V/m) @ t=0.16
-1.1195593862680955
% es.tEy (V/m) @ t=0.16
0
% es.tEz (V/m) @ t=0.16
0.4682221276163929
% V (V) @ t=0.16
0.006795908961917567
% es.normE (V/m) @ t=0.18
1.2286548962830006
% es.EX (V/m) @ t=0.18
-1.1300884604907366
% es.EY (V/m) @ t=0.18
0.08815472706042043
% es.EZ (V/m) @ t=0.18
0.47262556454826865
% es.tEX (V/m) @ t=0.18
-1.1300884604907306
% es.tEY (V/m) @ t=0.18
0
% es.tEZ (V/m) @ t=0.18
0.47262556454827376
% es.Ex (V/m) @ t=0.18
-1.1300884604907366
% es.Ey (V/m) @ t=0.18
0.08815472706042043
% es.Ez (V/m) @ t=0.18
0.47262556454826865
% es.tEx (V/m) @ t=0.18
-1.1300884604907306
% es.tEy (V/m) @ t=0.18
0
% es.tEz (V/m) @ t=0.18
0.47262556454827376
% V (V) @ t=0.18
0.006859818900570358
% es.normE (V/m) @ t=0.2
1.2401023049894055
% es.EX (V/m) @ t=0.2
-1.1406175347133738
% es.EY (V/m) @ t=0.2
0.08897606723494739
% es.EZ (V/m) @ t=0.2
0.4770290014801351
% es.tEX (V/m) @ t=0.2
-1.1406175347133738
% es.tEY (V/m) @ t=0.2
0
% es.tEZ (V/m) @ t=0.2
0.4770290014801368
% es.Ex (V/m) @ t=0.2
-1.1406175347133738
% es.Ey (V/m) @ t=0.2
0.08897606723494739
% es.Ez (V/m) @ t=0.2
0.4770290014801351
% es.tEx (V/m) @ t=0.2
-1.1406175347133738
% es.tEy (V/m) @ t=0.2
0
% es.tEz (V/m) @ t=0.2
0.4770290014801368
% V (V) @ t=0.2
0.00692372883922315
% es.normE (V/m) @ t=0.22
1.2515497136958103
% es.EX (V/m) @ t=0.22
-1.1511466089360072
% es.EY (V/m) @ t=0.22
0.08979740740948317
% es.EZ (V/m) @ t=0.22
0.4814324384120053
% es.tEX (V/m) @ t=0.22
-1.1511466089360018
% es.tEY (V/m) @ t=0.22
0
% es.tEZ (V/m) @ t=0.22
0.48143243841200345
% es.Ex (V/m) @ t=0.22
-1.1511466089360072
% es.Ey (V/m) @ t=0.22
0.08979740740948317
% es.Ez (V/m) @ t=0.22
0.4814324384120053
% es.tEx (V/m) @ t=0.22
-1.1511466089360018
% es.tEy (V/m) @ t=0.22
0
% es.tEz (V/m) @ t=0.22
0.48143243841200345
% V (V) @ t=0.22
0.006987638777875942
% es.normE (V/m) @ t=0.24
1.2629971224022327
% es.EX (V/m) @ t=0.24
-1.1616756831586548
% es.EY (V/m) @ t=0.24
0.09061874758401806
% es.EZ (V/m) @ t=0.24
0.4858358753438869
% es.tEX (V/m) @ t=0.24
-1.1616756831586441
% es.tEY (V/m) @ t=0.24
0
% es.tEZ (V/m) @ t=0.24
0.48583587534388073
% es.Ex (V/m) @ t=0.24
-1.1616756831586548
% es.Ey (V/m) @ t=0.24
0.09061874758401806
% es.Ez (V/m) @ t=0.24
0.4858358753438869
% es.tEx (V/m) @ t=0.24
-1.1616756831586441
% es.tEy (V/m) @ t=0.24
0
% es.tEz (V/m) @ t=0.24
0.48583587534388073
% V (V) @ t=0.24
0.007051548716528733
% es.normE (V/m) @ t=0.26
1.2744445311086405
% es.EX (V/m) @ t=0.26
-1.1722047573812908
% es.EY (V/m) @ t=0.26
0.09144008775855211
% es.EZ (V/m) @ t=0.26
0.49023931227575696
% es.tEX (V/m) @ t=0.26
-1.1722047573812846
% es.tEY (V/m) @ t=0.26
0
% es.tEZ (V/m) @ t=0.26
0.490239312275758
% es.Ex (V/m) @ t=0.26
-1.1722047573812908
% es.Ey (V/m) @ t=0.26
0.09144008775855211
% es.Ez (V/m) @ t=0.26
0.49023931227575696
% es.tEx (V/m) @ t=0.26
-1.1722047573812846
% es.tEy (V/m) @ t=0.26
0
% es.tEz (V/m) @ t=0.26
0.490239312275758
% V (V) @ t=0.26
0.0071154586551815235
% es.normE (V/m) @ t=0.28
1.2863515620091015
% es.EX (V/m) @ t=0.28
-1.183156572257607
% es.EY (V/m) @ t=0.28
0.09229440511259884
% es.EZ (V/m) @ t=0.28
0.49481957370467217
% es.tEX (V/m) @ t=0.28
-1.1831565722575998
% es.tEY (V/m) @ t=0.28
0
% es.tEZ (V/m) @ t=0.28
0.4948195737046781
% es.Ex (V/m) @ t=0.28
-1.183156572257607
% es.Ey (V/m) @ t=0.28
0.09229440511259884
% es.Ez (V/m) @ t=0.28
0.49481957370467217
% es.tEx (V/m) @ t=0.28
-1.1831565722575998
% es.tEy (V/m) @ t=0.28
0
% es.tEz (V/m) @ t=0.28
0.4948195737046781
% V (V) @ t=0.28
0.007181937301809326
% es.normE (V/m) @ t=0.3
1.2991083936357435
% es.EX (V/m) @ t=0.3
-1.194889997158711
% es.EY (V/m) @ t=0.3
0.09320969435062726
% es.EZ (V/m) @ t=0.3
0.49972676796653875
% es.tEX (V/m) @ t=0.3
-1.1948899971587066
% es.tEY (V/m) @ t=0.3
0
% es.tEZ (V/m) @ t=0.3
0.49972676796653914
% es.Ex (V/m) @ t=0.3
-1.194889997158711
% es.Ey (V/m) @ t=0.3
0.09320969435062726
% es.Ez (V/m) @ t=0.3
0.49972676796653875
% es.tEx (V/m) @ t=0.3
-1.1948899971587066
% es.tEy (V/m) @ t=0.3
0
% es.tEz (V/m) @ t=0.3
0.49972676796653914
% V (V) @ t=0.3
0.00725316526196199
% es.normE (V/m) @ t=0.32
1.3118652252624035
% es.EX (V/m) @ t=0.32
-1.2066234220598275
% es.EY (V/m) @ t=0.32
0.0941249835886539
% es.EZ (V/m) @ t=0.32
0.5046339622284197
% es.tEX (V/m) @ t=0.32
-1.2066234220598178
% es.tEY (V/m) @ t=0.32
0
% es.tEZ (V/m) @ t=0.32
0.5046339622284215
% es.Ex (V/m) @ t=0.32
-1.2066234220598275
% es.Ey (V/m) @ t=0.32
0.0941249835886539
% es.Ez (V/m) @ t=0.32
0.5046339622284197
% es.tEx (V/m) @ t=0.32
-1.2066234220598178
% es.tEy (V/m) @ t=0.32
0
% es.tEz (V/m) @ t=0.32
0.5046339622284215
% V (V) @ t=0.32
0.007324393222114653
% es.normE (V/m) @ t=0.34
1.324622056889055
% es.EX (V/m) @ t=0.34
-1.2183568469609352
% es.EY (V/m) @ t=0.34
0.09504027282669564
% es.EZ (V/m) @ t=0.34
0.5095411564902952
% es.tEX (V/m) @ t=0.34
-1.218356846960929
% es.tEY (V/m) @ t=0.34
0
% es.tEZ (V/m) @ t=0.34
0.5095411564902932
% es.Ex (V/m) @ t=0.34
-1.2183568469609352
% es.Ey (V/m) @ t=0.34
0.09504027282669564
% es.Ez (V/m) @ t=0.34
0.5095411564902952
% es.tEx (V/m) @ t=0.34
-1.218356846960929
% es.tEy (V/m) @ t=0.34
0
% es.tEz (V/m) @ t=0.34
0.5095411564902932
% V (V) @ t=0.34
0.0073956211822673165
% es.normE (V/m) @ t=0.36
1.3373788885156999
% es.EX (V/m) @ t=0.36
-1.2300902718620388
% es.EY (V/m) @ t=0.36
0.09595556206470807
% es.EZ (V/m) @ t=0.36
0.5144483507521644
% es.tEX (V/m) @ t=0.36
-1.2300902718620366
% es.tEY (V/m) @ t=0.36
0
% es.tEZ (V/m) @ t=0.36
0.5144483507521649
% es.Ex (V/m) @ t=0.36
-1.2300902718620388
% es.Ey (V/m) @ t=0.36
0.09595556206470807
% es.Ez (V/m) @ t=0.36
0.5144483507521644
% es.tEx (V/m) @ t=0.36
-1.2300902718620366
% es.tEy (V/m) @ t=0.36
0
% es.tEz (V/m) @ t=0.36
0.5144483507521649
% V (V) @ t=0.36
0.0074668491424199806
% es.normE (V/m) @ t=0.38
1.350135720142358
% es.EX (V/m) @ t=0.38
-1.2418236967631509
% es.EY (V/m) @ t=0.38
0.09687085130275164
% es.EZ (V/m) @ t=0.38
0.5193555450140381
% es.tEX (V/m) @ t=0.38
-1.241823696763145
% es.tEY (V/m) @ t=0.38
0
% es.tEZ (V/m) @ t=0.38
0.5193555450140401
% es.Ex (V/m) @ t=0.38
-1.2418236967631509
% es.Ey (V/m) @ t=0.38
0.09687085130275164
% es.Ez (V/m) @ t=0.38
0.5193555450140381
% es.tEx (V/m) @ t=0.38
-1.241823696763145
% es.tEy (V/m) @ t=0.38
0
% es.tEz (V/m) @ t=0.38
0.5193555450140401
% V (V) @ t=0.38
0.007538077102572643
% es.normE (V/m) @ t=0.4
1.3628925517690123
% es.EX (V/m) @ t=0.4
-1.2535571216642607
% es.EY (V/m) @ t=0.4
0.09778614054078621
% es.EZ (V/m) @ t=0.4
0.5242627392759085
% es.tEX (V/m) @ t=0.4
-1.2535571216642563
% es.tEY (V/m) @ t=0.4
0
% es.tEZ (V/m) @ t=0.4
0.5242627392759118
% es.Ex (V/m) @ t=0.4
-1.2535571216642607
% es.Ey (V/m) @ t=0.4
0.09778614054078621
% es.Ez (V/m) @ t=0.4
0.5242627392759085
% es.tEx (V/m) @ t=0.4
-1.2535571216642563
% es.tEy (V/m) @ t=0.4
0
% es.tEz (V/m) @ t=0.4
0.5242627392759118
% V (V) @ t=0.4
0.007609305062725308
% es.normE (V/m) @ t=0.42
1.3756493833956576
% es.EX (V/m) @ t=0.42
-1.2652905465653612
% es.EY (V/m) @ t=0.42
0.09870142977880225
% es.EZ (V/m) @ t=0.42
0.5291699335377777
% es.tEX (V/m) @ t=0.42
-1.265290546565356
% es.tEY (V/m) @ t=0.42
0
% es.tEZ (V/m) @ t=0.42
0.5291699335377764
% es.Ex (V/m) @ t=0.42
-1.2652905465653612
% es.Ey (V/m) @ t=0.42
0.09870142977880225
% es.Ez (V/m) @ t=0.42
0.5291699335377777
% es.tEx (V/m) @ t=0.42
-1.265290546565356
% es.tEy (V/m) @ t=0.42
0
% es.tEz (V/m) @ t=0.42
0.5291699335377764
% V (V) @ t=0.42
0.007680533022877971
% es.normE (V/m) @ t=0.44
1.3884062150223277
% es.EX (V/m) @ t=0.44
-1.27702397146648
% es.EY (V/m) @ t=0.44
0.09961671901684577
% es.EZ (V/m) @ t=0.44
0.5340771277996603
% es.tEX (V/m) @ t=0.44
-1.2770239714664768
% es.tEY (V/m) @ t=0.44
0
% es.tEZ (V/m) @ t=0.44
0.5340771277996588
% es.Ex (V/m) @ t=0.44
-1.27702397146648
% es.Ey (V/m) @ t=0.44
0.09961671901684577
% es.Ez (V/m) @ t=0.44
0.5340771277996603
% es.tEx (V/m) @ t=0.44
-1.2770239714664768
% es.tEy (V/m) @ t=0.44
0
% es.tEz (V/m) @ t=0.44
0.5340771277996588
% V (V) @ t=0.44
0.007751760983030635
% es.normE (V/m) @ t=0.46
1.4011630466489824
% es.EX (V/m) @ t=0.46
-1.2887573963675871
% es.EY (V/m) @ t=0.46
0.10053200825487502
% es.EZ (V/m) @ t=0.46
0.5389843220615298
% es.tEX (V/m) @ t=0.46
-1.288757396367581
% es.tEY (V/m) @ t=0.46
0
% es.tEZ (V/m) @ t=0.46
0.538984322061534
% es.Ex (V/m) @ t=0.46
-1.2887573963675871
% es.Ey (V/m) @ t=0.46
0.10053200825487502
% es.Ez (V/m) @ t=0.46
0.5389843220615298
% es.tEx (V/m) @ t=0.46
-1.288757396367581
% es.tEy (V/m) @ t=0.46
0
% es.tEz (V/m) @ t=0.46
0.538984322061534
% V (V) @ t=0.46
0.007822988943183298
% es.normE (V/m) @ t=0.48
1.4139198782756384
% es.EX (V/m) @ t=0.48
-1.3004908212686948
% es.EY (V/m) @ t=0.48
0.10144729749289993
% es.EZ (V/m) @ t=0.48
0.5438915163234017
% es.tEX (V/m) @ t=0.48
-1.300490821268692
% es.tEY (V/m) @ t=0.48
0
% es.tEZ (V/m) @ t=0.48
0.5438915163234022
% es.Ex (V/m) @ t=0.48
-1.3004908212686948
% es.Ey (V/m) @ t=0.48
0.10144729749289993
% es.Ez (V/m) @ t=0.48
0.5438915163234017
% es.tEx (V/m) @ t=0.48
-1.300490821268692
% es.tEy (V/m) @ t=0.48
0
% es.tEz (V/m) @ t=0.48
0.5438915163234022
% V (V) @ t=0.48
0.007894216903335962
% es.normE (V/m) @ t=0.5
1.4266767099022994
% es.EX (V/m) @ t=0.5
-1.312224246169806
% es.EY (V/m) @ t=0.5
0.10236258673092125
% es.EZ (V/m) @ t=0.5
0.5487987105852754
% es.tEX (V/m) @ t=0.5
-1.3122242461698006
% es.tEY (V/m) @ t=0.5
0
% es.tEZ (V/m) @ t=0.5
0.5487987105852739
% es.Ex (V/m) @ t=0.5
-1.312224246169806
% es.Ey (V/m) @ t=0.5
0.10236258673092125
% es.Ez (V/m) @ t=0.5
0.5487987105852754
% es.tEx (V/m) @ t=0.5
-1.3122242461698006
% es.tEy (V/m) @ t=0.5
0
% es.tEz (V/m) @ t=0.5
0.5487987105852739
% V (V) @ t=0.5
0.007965444863488625
% es.normE (V/m) @ t=0.52
1.4394335415289565
% es.EX (V/m) @ t=0.52
-1.3239576710709131
% es.EY (V/m) @ t=0.52
0.10327787596895671
% es.EZ (V/m) @ t=0.52
0.5537059048471422
% es.tEX (V/m) @ t=0.52
-1.3239576710709073
% es.tEY (V/m) @ t=0.52
0
% es.tEZ (V/m) @ t=0.52
0.553705904847142
% es.Ex (V/m) @ t=0.52
-1.3239576710709131
% es.Ey (V/m) @ t=0.52
0.10327787596895671
% es.Ez (V/m) @ t=0.52
0.5537059048471422
% es.tEx (V/m) @ t=0.52
-1.3239576710709073
% es.tEy (V/m) @ t=0.52
0
% es.tEz (V/m) @ t=0.52
0.553705904847142
% V (V) @ t=0.52
0.008036672823641289
% es.normE (V/m) @ t=0.54
1.452190373155613
% es.EX (V/m) @ t=0.54
-1.3356910959720176
% es.EY (V/m) @ t=0.54
0.10419316520698685
% es.EZ (V/m) @ t=0.54
0.5586130991090141
% es.tEX (V/m) @ t=0.54
-1.3356910959720114
% es.tEY (V/m) @ t=0.54
0
% es.tEZ (V/m) @ t=0.54
0.5586130991090137
% es.Ex (V/m) @ t=0.54
-1.3356910959720176
% es.Ey (V/m) @ t=0.54
0.10419316520698685
% es.Ez (V/m) @ t=0.54
0.5586130991090141
% es.tEx (V/m) @ t=0.54
-1.3356910959720114
% es.tEy (V/m) @ t=0.54
0
% es.tEz (V/m) @ t=0.54
0.5586130991090137
% V (V) @ t=0.54
0.008107900783793953
% es.normE (V/m) @ t=0.56
1.4660048912749295
% es.EX (V/m) @ t=0.56
-1.348397335350716
% es.EY (V/m) @ t=0.56
0.1051843414744481
% es.EZ (V/m) @ t=0.56
0.563927203227351
% es.tEX (V/m) @ t=0.56
-1.3483973353507075
% es.tEY (V/m) @ t=0.56
0
% es.tEZ (V/m) @ t=0.56
0.5639272032273475
% es.Ex (V/m) @ t=0.56
-1.348397335350716
% es.Ey (V/m) @ t=0.56
0.1051843414744481
% es.Ez (V/m) @ t=0.56
0.563927203227351
% es.tEx (V/m) @ t=0.56
-1.3483973353507075
% es.tEy (V/m) @ t=0.56
0
% es.tEz (V/m) @ t=0.56
0.5639272032273475
% V (V) @ t=0.56
0.0081850398627657
% es.normE (V/m) @ t=0.58
1.480247212541725
% es.EX (V/m) @ t=0.58
-1.3614970496374408
% es.EY (V/m) @ t=0.58
0.10620621181834256
% es.EZ (V/m) @ t=0.58
0.5694058904414743
% es.tEX (V/m) @ t=0.58
-1.3614970496374301
% es.tEY (V/m) @ t=0.58
0
% es.tEZ (V/m) @ t=0.58
0.5694058904414732
% es.Ex (V/m) @ t=0.58
-1.3614970496374408
% es.Ey (V/m) @ t=0.58
0.10620621181834256
% es.Ez (V/m) @ t=0.58
0.5694058904414743
% es.tEx (V/m) @ t=0.58
-1.3614970496374301
% es.tEy (V/m) @ t=0.58
0
% es.tEz (V/m) @ t=0.58
0.5694058904414732
% V (V) @ t=0.58
0.008264569815832505
% es.normE (V/m) @ t=0.6
1.4944895338085307
% es.EX (V/m) @ t=0.6
-1.3745967639241692
% es.EY (V/m) @ t=0.6
0.10722808216223162
% es.EZ (V/m) @ t=0.6
0.5748845776555951
% es.tEX (V/m) @ t=0.6
-1.374596763924167
% es.tEY (V/m) @ t=0.6
0
% es.tEZ (V/m) @ t=0.6
0.5748845776555953
% es.Ex (V/m) @ t=0.6
-1.3745967639241692
% es.Ey (V/m) @ t=0.6
0.10722808216223162
% es.Ez (V/m) @ t=0.6
0.5748845776555951
% es.tEx (V/m) @ t=0.6
-1.374596763924167
% es.tEy (V/m) @ t=0.6
0
% es.tEz (V/m) @ t=0.6
0.5748845776555953
% V (V) @ t=0.6
0.008344099768899315
% es.normE (V/m) @ t=0.62
1.5087318550753315
% es.EX (V/m) @ t=0.62
-1.3876964782108887
% es.EY (V/m) @ t=0.62
0.10824995250611885
% es.EZ (V/m) @ t=0.62
0.5803632648697044
% es.tEX (V/m) @ t=0.62
-1.3876964782108843
% es.tEY (V/m) @ t=0.62
0
% es.tEZ (V/m) @ t=0.62
0.5803632648696997
% es.Ex (V/m) @ t=0.62
-1.3876964782108887
% es.Ey (V/m) @ t=0.62
0.10824995250611885
% es.Ez (V/m) @ t=0.62
0.5803632648697044
% es.tEx (V/m) @ t=0.62
-1.3876964782108843
% es.tEy (V/m) @ t=0.62
0
% es.tEz (V/m) @ t=0.62
0.5803632648696997
% V (V) @ t=0.62
0.00842362972196612
% es.normE (V/m) @ t=0.64
1.5229741763421472
% es.EX (V/m) @ t=0.64
-1.4007961924976147
% es.EY (V/m) @ t=0.64
0.1092718228500133
% es.EZ (V/m) @ t=0.64
0.5858419520838152
% es.tEX (V/m) @ t=0.64
-1.4007961924976087
% es.tEY (V/m) @ t=0.64
0
% es.tEZ (V/m) @ t=0.64
0.5858419520838147
% es.Ex (V/m) @ t=0.64
-1.4007961924976147
% es.Ey (V/m) @ t=0.64
0.1092718228500133
% es.Ez (V/m) @ t=0.64
0.5858419520838152
% es.tEx (V/m) @ t=0.64
-1.4007961924976087
% es.tEy (V/m) @ t=0.64
0
% es.tEz (V/m) @ t=0.64
0.5858419520838147
% V (V) @ t=0.64
0.008503159675032927
% es.normE (V/m) @ t=0.66
1.5372164976089837
% es.EX (V/m) @ t=0.66
-1.413895906784347
% es.EY (V/m) @ t=0.66
0.11029369319390414
% es.EZ (V/m) @ t=0.66
0.5913206392979473
% es.tEX (V/m) @ t=0.66
-1.413895906784342
% es.tEY (V/m) @ t=0.66
0
% es.tEZ (V/m) @ t=0.66
0.5913206392979475
% es.Ex (V/m) @ t=0.66
-1.413895906784347
% es.Ey (V/m) @ t=0.66
0.11029369319390414
% es.Ez (V/m) @ t=0.66
0.5913206392979473
% es.tEx (V/m) @ t=0.66
-1.413895906784342
% es.tEy (V/m) @ t=0.66
0
% es.tEz (V/m) @ t=0.66
0.5913206392979475
% V (V) @ t=0.66
0.008582689628099735
% es.normE (V/m) @ t=0.68
1.5514588188758145
% es.EX (V/m) @ t=0.68
-1.4269956210710761
% es.EY (V/m) @ t=0.68
0.11131556353779148
% es.EZ (V/m) @ t=0.68
0.5967993265120528
% es.tEX (V/m) @ t=0.68
-1.42699562107107
% es.tEY (V/m) @ t=0.68
0
% es.tEZ (V/m) @ t=0.68
0.5967993265120519
% es.Ex (V/m) @ t=0.68
-1.4269956210710761
% es.Ey (V/m) @ t=0.68
0.11131556353779148
% es.Ez (V/m) @ t=0.68
0.5967993265120528
% es.tEx (V/m) @ t=0.68
-1.42699562107107
% es.tEy (V/m) @ t=0.68
0
% es.tEz (V/m) @ t=0.68
0.5967993265120519
% V (V) @ t=0.68
0.008662219581166539
% es.normE (V/m) @ t=0.7
1.5657011401426497
% es.EX (V/m) @ t=0.7
-1.4400953353577972
% es.EY (V/m) @ t=0.7
0.11233743388168055
% es.EZ (V/m) @ t=0.7
0.602278013726171
% es.tEX (V/m) @ t=0.7
-1.4400953353577943
% es.tEY (V/m) @ t=0.7
0
% es.tEZ (V/m) @ t=0.7
0.6022780137261705
% es.Ex (V/m) @ t=0.7
-1.4400953353577972
% es.Ey (V/m) @ t=0.7
0.11233743388168055
% es.Ez (V/m) @ t=0.7
0.602278013726171
% es.tEx (V/m) @ t=0.7
-1.4400953353577943
% es.tEy (V/m) @ t=0.7
0
% es.tEz (V/m) @ t=0.7
0.6022780137261705
% V (V) @ t=0.7
0.008741749534233347
% es.normE (V/m) @ t=0.72
1.5799434614094996
% es.EX (V/m) @ t=0.72
-1.4531950496445274
% es.EY (V/m) @ t=0.72
0.11335930422556245
% es.EZ (V/m) @ t=0.72
0.6077567009402872
% es.tEX (V/m) @ t=0.72
-1.453195049644517
% es.tEY (V/m) @ t=0.72
0
% es.tEZ (V/m) @ t=0.72
0.6077567009402891
% es.Ex (V/m) @ t=0.72
-1.4531950496445274
% es.Ey (V/m) @ t=0.72
0.11335930422556245
% es.Ez (V/m) @ t=0.72
0.6077567009402872
% es.tEx (V/m) @ t=0.72
-1.453195049644517
% es.tEy (V/m) @ t=0.72
0
% es.tEz (V/m) @ t=0.72
0.6077567009402891
% V (V) @ t=0.72
0.008821279487300151
% es.normE (V/m) @ t=0.74
1.5941857826763601
% es.EX (V/m) @ t=0.74
-1.4662947639312556
% es.EY (V/m) @ t=0.74
0.11438117456946045
% es.EZ (V/m) @ t=0.74
0.6132353881544177
% es.tEX (V/m) @ t=0.74
-1.466294763931252
% es.tEY (V/m) @ t=0.74
0
% es.tEZ (V/m) @ t=0.74
0.6132353881544148
% es.Ex (V/m) @ t=0.74
-1.4662947639312556
% es.Ey (V/m) @ t=0.74
0.11438117456946045
% es.Ez (V/m) @ t=0.74
0.6132353881544177
% es.tEx (V/m) @ t=0.74
-1.466294763931252
% es.tEy (V/m) @ t=0.74
0
% es.tEz (V/m) @ t=0.74
0.6132353881544148
% V (V) @ t=0.74
0.008900809440366959
% es.normE (V/m) @ t=0.76
1.6084281039432187
% es.EX (V/m) @ t=0.76
-1.4793944782179838
% es.EY (V/m) @ t=0.76
0.11540304491334596
% es.EZ (V/m) @ t=0.76
0.6187140753685267
% es.tEX (V/m) @ t=0.76
-1.4793944782179729
% es.tEY (V/m) @ t=0.76
0
% es.tEZ (V/m) @ t=0.76
0.6187140753685263
% es.Ex (V/m) @ t=0.76
-1.4793944782179838
% es.Ey (V/m) @ t=0.76
0.11540304491334596
% es.Ez (V/m) @ t=0.76
0.6187140753685267
% es.tEx (V/m) @ t=0.76
-1.4793944782179729
% es.tEy (V/m) @ t=0.76
0
% es.tEz (V/m) @ t=0.76
0.6187140753685263
% V (V) @ t=0.76
0.008980339393433763
% es.normE (V/m) @ t=0.78
1.6226704252100839
% es.EX (V/m) @ t=0.78
-1.49249419250471
% es.EY (V/m) @ t=0.78
0.11642491525723508
% es.EZ (V/m) @ t=0.78
0.6241927625826411
% es.tEX (V/m) @ t=0.78
-1.4924941925046955
% es.tEY (V/m) @ t=0.78
0
% es.tEZ (V/m) @ t=0.78
0.6241927625826378
% es.Ex (V/m) @ t=0.78
-1.49249419250471
% es.Ey (V/m) @ t=0.78
0.11642491525723508
% es.Ez (V/m) @ t=0.78
0.6241927625826411
% es.tEx (V/m) @ t=0.78
-1.4924941925046955
% es.tEy (V/m) @ t=0.78
0
% es.tEz (V/m) @ t=0.78
0.6241927625826378
% V (V) @ t=0.78
0.009059869346500573
% es.normE (V/m) @ t=0.8
1.6369127464769546
% es.EX (V/m) @ t=0.8
-1.5055939067914337
% es.EY (V/m) @ t=0.8
0.1174467856011206
% es.EZ (V/m) @ t=0.8
0.629671449796761
% es.tEX (V/m) @ t=0.8
-1.5055939067914235
% es.tEY (V/m) @ t=0.8
0
% es.tEZ (V/m) @ t=0.8
0.6296714497967564
% es.Ex (V/m) @ t=0.8
-1.5055939067914337
% es.Ey (V/m) @ t=0.8
0.1174467856011206
% es.Ez (V/m) @ t=0.8
0.629671449796761
% es.tEx (V/m) @ t=0.8
-1.5055939067914235
% es.tEy (V/m) @ t=0.8
0
% es.tEz (V/m) @ t=0.8
0.6296714497967564
% V (V) @ t=0.8
0.009139399299567379
% es.normE (V/m) @ t=0.82
1.6512778988684238
% es.EX (V/m) @ t=0.82
-1.5188066053250224
% es.EY (V/m) @ t=0.82
0.11847746918861579
% es.EZ (V/m) @ t=0.82
0.6351973696331024
% es.tEX (V/m) @ t=0.82
-1.51880660532502
% es.tEY (V/m) @ t=0.82
0
% es.tEZ (V/m) @ t=0.82
0.6351973696331008
% es.Ex (V/m) @ t=0.82
-1.5188066053250224
% es.Ey (V/m) @ t=0.82
0.11847746918861579
% es.Ez (V/m) @ t=0.82
0.6351973696331024
% es.tEx (V/m) @ t=0.82
-1.51880660532502
% es.tEy (V/m) @ t=0.82
0
% es.tEz (V/m) @ t=0.82
0.6351973696331008
% V (V) @ t=0.82
0.009219613109627118
% es.normE (V/m) @ t=0.84
1.6672025434334088
% es.EX (V/m) @ t=0.84
-1.533453777810529
% es.EY (V/m) @ t=0.84
0.11962004774140883
% es.EZ (V/m) @ t=0.84
0.6413229656911146
% es.tEX (V/m) @ t=0.84
-1.5334537778105197
% es.tEY (V/m) @ t=0.84
0
% es.tEZ (V/m) @ t=0.84
0.6413229656911206
% es.Ex (V/m) @ t=0.84
-1.533453777810529
% es.Ey (V/m) @ t=0.84
0.11962004774140883
% es.Ez (V/m) @ t=0.84
0.6413229656911146
% es.tEx (V/m) @ t=0.84
-1.5334537778105197
% es.tEy (V/m) @ t=0.84
0
% es.tEz (V/m) @ t=0.84
0.6413229656911206
% V (V) @ t=0.84
0.009308509325158431
% es.normE (V/m) @ t=0.86
1.6831271879983802
% es.EX (V/m) @ t=0.86
-1.5481009502960166
% es.EY (V/m) @ t=0.86
0.12076262629418599
% es.EZ (V/m) @ t=0.86
0.6474485617491037
% es.tEX (V/m) @ t=0.86
-1.5481009502960088
% es.tEY (V/m) @ t=0.86
0
% es.tEZ (V/m) @ t=0.86
0.6474485617490977
% es.Ex (V/m) @ t=0.86
-1.5481009502960166
% es.Ey (V/m) @ t=0.86
0.12076262629418599
% es.Ez (V/m) @ t=0.86
0.6474485617491037
% es.tEx (V/m) @ t=0.86
-1.5481009502960088
% es.tEy (V/m) @ t=0.86
0
% es.tEz (V/m) @ t=0.86
0.6474485617490977
% V (V) @ t=0.86
0.00939740554068974
% es.normE (V/m) @ t=0.88
1.6990518325633663
% es.EX (V/m) @ t=0.88
-1.562748122781506
% es.EY (V/m) @ t=0.88
0.12190520484695949
% es.EZ (V/m) @ t=0.88
0.6535741578070948
% es.tEX (V/m) @ t=0.88
-1.5627481227815032
% es.tEY (V/m) @ t=0.88
0
% es.tEZ (V/m) @ t=0.88
0.6535741578070962
% es.Ex (V/m) @ t=0.88
-1.562748122781506
% es.Ey (V/m) @ t=0.88
0.12190520484695949
% es.Ez (V/m) @ t=0.88
0.6535741578070948
% es.tEx (V/m) @ t=0.88
-1.5627481227815032
% es.tEy (V/m) @ t=0.88
0
% es.tEz (V/m) @ t=0.88
0.6535741578070962
% V (V) @ t=0.88
0.009486301756221052
% es.normE (V/m) @ t=0.9
1.7149764771283784
% es.EX (V/m) @ t=0.9
-1.5773952952670034
% es.EY (V/m) @ t=0.9
0.12304778339974548
% es.EZ (V/m) @ t=0.9
0.659699753865098
% es.tEX (V/m) @ t=0.9
-1.577395295267003
% es.tEY (V/m) @ t=0.9
0
% es.tEZ (V/m) @ t=0.9
0.6596997538650946
% es.Ex (V/m) @ t=0.9
-1.5773952952670034
% es.Ey (V/m) @ t=0.9
0.12304778339974548
% es.Ez (V/m) @ t=0.9
0.659699753865098
% es.tEx (V/m) @ t=0.9
-1.577395295267003
% es.tEy (V/m) @ t=0.9
0
% es.tEz (V/m) @ t=0.9
0.6596997538650946
% V (V) @ t=0.9
0.009575197971752361
% es.normE (V/m) @ t=0.92
1.7309011216933958
% es.EX (V/m) @ t=0.92
-1.5920424677524967
% es.EY (V/m) @ t=0.92
0.1241903619525368
% es.EZ (V/m) @ t=0.92
0.6658253499230908
% es.tEX (V/m) @ t=0.92
-1.5920424677524867
% es.tEY (V/m) @ t=0.92
0
% es.tEZ (V/m) @ t=0.92
0.6658253499230895
% es.Ex (V/m) @ t=0.92
-1.5920424677524967
% es.Ey (V/m) @ t=0.92
0.1241903619525368
% es.Ez (V/m) @ t=0.92
0.6658253499230908
% es.tEx (V/m) @ t=0.92
-1.5920424677524867
% es.tEy (V/m) @ t=0.92
0
% es.tEz (V/m) @ t=0.92
0.6658253499230895
% V (V) @ t=0.92
0.009664094187283673
% es.normE (V/m) @ t=0.94
1.7468257662584445
% es.EX (V/m) @ t=0.94
-1.606689640238007
% es.EY (V/m) @ t=0.94
0.12533294050531213
% es.EZ (V/m) @ t=0.94
0.671950945981096
% es.tEX (V/m) @ t=0.94
-1.6066896402379953
% es.tEY (V/m) @ t=0.94
0
% es.tEZ (V/m) @ t=0.94
0.6719509459810915
% es.Ex (V/m) @ t=0.94
-1.606689640238007
% es.Ey (V/m) @ t=0.94
0.12533294050531213
% es.Ez (V/m) @ t=0.94
0.671950945981096
% es.tEx (V/m) @ t=0.94
-1.6066896402379953
% es.tEy (V/m) @ t=0.94
0
% es.tEz (V/m) @ t=0.94
0.6719509459810915
% V (V) @ t=0.94
0.009752990402814986
% es.normE (V/m) @ t=0.96
1.7627504108234822
% es.EX (V/m) @ t=0.96
-1.621336812723496
% es.EY (V/m) @ t=0.96
0.12647551905809096
% es.EZ (V/m) @ t=0.96
0.6780765420390905
% es.tEX (V/m) @ t=0.96
-1.6213368127234915
% es.tEY (V/m) @ t=0.96
0
% es.tEZ (V/m) @ t=0.96
0.67807654203909
% es.Ex (V/m) @ t=0.96
-1.621336812723496
% es.Ey (V/m) @ t=0.96
0.12647551905809096
% es.Ez (V/m) @ t=0.96
0.6780765420390905
% es.tEx (V/m) @ t=0.96
-1.6213368127234915
% es.tEy (V/m) @ t=0.96
0
% es.tEz (V/m) @ t=0.96
0.67807654203909
% V (V) @ t=0.96
0.009841886618346294
% es.normE (V/m) @ t=0.98
1.7786750553885309
% es.EX (V/m) @ t=0.98
-1.6359839852089846
% es.EY (V/m) @ t=0.98
0.12761809761088583
% es.EZ (V/m) @ t=0.98
0.6842021380970833
% es.tEX (V/m) @ t=0.98
-1.6359839852089806
% es.tEY (V/m) @ t=0.98
0
% es.tEZ (V/m) @ t=0.98
0.6842021380970813
% es.Ex (V/m) @ t=0.98
-1.6359839852089846
% es.Ey (V/m) @ t=0.98
0.12761809761088583
% es.Ez (V/m) @ t=0.98
0.6842021380970833
% es.tEx (V/m) @ t=0.98
-1.6359839852089806
% es.tEy (V/m) @ t=0.98
0
% es.tEz (V/m) @ t=0.98
0.6842021380970813
% V (V) @ t=0.98
0.009930782833877605
% es.normE (V/m) @ t=1
1.7945996999536022
% es.EX (V/m) @ t=1
-1.6506311576944845
% es.EY (V/m) @ t=1
0.12876067616365938
% es.EZ (V/m) @ t=1
0.6903277341550831
% es.tEX (V/m) @ t=1
-1.650631157694482
% es.tEY (V/m) @ t=1
0
% es.tEZ (V/m) @ t=1
0.6903277341550869
% es.Ex (V/m) @ t=1
-1.6506311576944845
% es.Ey (V/m) @ t=1
0.12876067616365938
% es.Ez (V/m) @ t=1
0.6903277341550831
% es.tEx (V/m) @ t=1
-1.650631157694482
% es.tEy (V/m) @ t=1
0
% es.tEz (V/m) @ t=1
0.6903277341550869
% V (V) @ t=1
0.010019679049408916
% es.normE (V/m) @ t=1.02
1.8105243445186838
% es.EX (V/m) @ t=1.02
-1.6652783301799834
% es.EY (V/m) @ t=1.02
0.1299032547164365
% es.EZ (V/m) @ t=1.02
0.6964533302130829
% es.tEX (V/m) @ t=1.02
-1.6652783301799783
% es.tEY (V/m) @ t=1.02
0
% es.tEZ (V/m) @ t=1.02
0.6964533302130853
% es.Ex (V/m) @ t=1.02
-1.6652783301799834
% es.Ey (V/m) @ t=1.02
0.1299032547164365
% es.Ez (V/m) @ t=1.02
0.6964533302130829
% es.tEx (V/m) @ t=1.02
-1.6652783301799783
% es.tEy (V/m) @ t=1.02
0
% es.tEz (V/m) @ t=1.02
0.6964533302130853
% V (V) @ t=1.02
0.010108575264940226
% es.normE (V/m) @ t=1.04
1.8264489890837687
% es.EX (V/m) @ t=1.04
-1.6799255026654767
% es.EY (V/m) @ t=1.04
0.1310458332692349
% es.EZ (V/m) @ t=1.04
0.7025789262710721