% Model:              1 neuron.mph
% Version:            COMSOL 6.0.0.405
% Date:               Mar 9 2023, 13:17
% Dimension:          0
% Nodes:              14017
% Expressions:        14017
% Description:        Electric field norm, Electric field, X component, Electric field, Y component, Electric field, Z component, Tangential electric field, X component, Tangential electric field, Y component, Tangential electric field, Z component, Electric field, x component, Electric field, y component, Electric field, z component, Tangential electric field, x component, Tangential electric field, y component, Tangential electric field, z component, Electric potential
% Length unit:        mm
% x
1
% y
12.2
% z
1.6599999999999997
% es.normE (V/m) @ t=0
1.6281800043163015
% es.EX (V/m) @ t=0
1.4575632245259338
% es.EY (V/m) @ t=0
0.056080450456137465
% es.EZ (V/m) @ t=0
-0.7234186341784434
% es.tEX (V/m) @ t=0
1.4575632245259325
% es.tEY (V/m) @ t=0
0
% es.tEZ (V/m) @ t=0
-0.7234186341784401
% es.Ex (V/m) @ t=0
1.4575632245259338
% es.Ey (V/m) @ t=0
0.056080450456137465
% es.Ez (V/m) @ t=0
-0.7234186341784434
% es.tEx (V/m) @ t=0
1.4575632245259325
% es.tEy (V/m) @ t=0
0
% es.tEz (V/m) @ t=0
-0.7234186341784401
% V (V) @ t=0
0.0073870384920103095
% es.normE (V/m) @ t=0.02
1.4062872085368356
% es.EX (V/m) @ t=0.02
1.258922548378408
% es.EY (V/m) @ t=0.02
0.04843765541274031
% es.EZ (V/m) @ t=0.02
-0.6248291742033147
% es.tEX (V/m) @ t=0.02
1.2589225483784086
% es.tEY (V/m) @ t=0.02
0
% es.tEZ (V/m) @ t=0.02
-0.6248291742033203
% es.Ex (V/m) @ t=0.02
1.258922548378408
% es.Ey (V/m) @ t=0.02
0.04843765541274031
% es.Ez (V/m) @ t=0.02
-0.6248291742033147
% es.tEx (V/m) @ t=0.02
1.2589225483784086
% es.tEy (V/m) @ t=0.02
0
% es.tEz (V/m) @ t=0.02
-0.6248291742033203
% V (V) @ t=0.02
0.006380312716232822
% es.normE (V/m) @ t=0.04
1.4192190442606125
% es.EX (V/m) @ t=0.04
1.270499259564326
% es.EY (V/m) @ t=0.04
0.04888307595457292
% es.EZ (V/m) @ t=0.04
-0.6305749319067835
% es.tEX (V/m) @ t=0.04
1.2704992595643265
% es.tEY (V/m) @ t=0.04
0
% es.tEZ (V/m) @ t=0.04
-0.630574931906775
% es.Ex (V/m) @ t=0.04
1.270499259564326
% es.Ey (V/m) @ t=0.04
0.04888307595457292
% es.Ez (V/m) @ t=0.04
-0.6305749319067835
% es.tEx (V/m) @ t=0.04
1.2704992595643265
% es.tEy (V/m) @ t=0.04
0
% es.tEz (V/m) @ t=0.04
-0.630574931906775
% V (V) @ t=0.04
0.006438984265714344
% es.normE (V/m) @ t=0.06
1.4322672011411248
% es.EX (V/m) @ t=0.06
1.2821801014903422
% es.EY (V/m) @ t=0.06
0.049332501729569156
% es.EZ (V/m) @ t=0.06
-0.6363723747960561
% es.tEX (V/m) @ t=0.06
1.282180101490344
% es.tEY (V/m) @ t=0.06
0
% es.tEZ (V/m) @ t=0.06
-0.6363723747960464
% es.Ex (V/m) @ t=0.06
1.2821801014903422
% es.Ey (V/m) @ t=0.06
0.049332501729569156
% es.Ez (V/m) @ t=0.06
-0.6363723747960561
% es.tEx (V/m) @ t=0.06
1.282180101490344
% es.tEy (V/m) @ t=0.06
0
% es.tEz (V/m) @ t=0.06
-0.6363723747960464
% V (V) @ t=0.06
0.006498183659805829
% es.normE (V/m) @ t=0.08
1.4455151243962945
% es.EX (V/m) @ t=0.08
1.2940397761536206
% es.EY (V/m) @ t=0.08
0.04978880807692712
% es.EZ (V/m) @ t=0.08
-0.6422585764241457
% es.tEX (V/m) @ t=0.08
1.2940397761536189
% es.tEY (V/m) @ t=0.08
0
% es.tEZ (V/m) @ t=0.08
-0.6422585764241475
% es.Ex (V/m) @ t=0.08
1.2940397761536206
% es.Ey (V/m) @ t=0.08
0.04978880807692712
% es.Ez (V/m) @ t=0.08
-0.6422585764241457
% es.tEx (V/m) @ t=0.08
1.2940397761536189
% es.tEy (V/m) @ t=0.08
0
% es.tEz (V/m) @ t=0.08
-0.6422585764241475
% V (V) @ t=0.08
0.006558289402224872
% es.normE (V/m) @ t=0.1
1.458900625773167
% es.EX (V/m) @ t=0.1
1.3060226120452634
% es.EY (V/m) @ t=0.1
0.05024985304071497
% es.EZ (V/m) @ t=0.1
-0.6482059057600255
% es.tEX (V/m) @ t=0.1
1.3060226120452647
% es.tEY (V/m) @ t=0.1
0
% es.tEZ (V/m) @ t=0.1
-0.6482059057600296
% es.Ex (V/m) @ t=0.1
1.3060226120452634
% es.Ey (V/m) @ t=0.1
0.05024985304071497
% es.Ez (V/m) @ t=0.1
-0.6482059057600255
% es.tEx (V/m) @ t=0.1
1.3060226120452647
% es.tEy (V/m) @ t=0.1
0
% es.tEz (V/m) @ t=0.1
-0.6482059057600296
% V (V) @ t=0.1
0.006619019342288428
% es.normE (V/m) @ t=0.12
1.4722861271500483
% es.EX (V/m) @ t=0.12
1.3180054479369163
% es.EY (V/m) @ t=0.12
0.05071089800450507
% es.EZ (V/m) @ t=0.12
-0.6541532350959052
% es.tEX (V/m) @ t=0.12
1.318005447936919
% es.tEY (V/m) @ t=0.12
0
% es.tEZ (V/m) @ t=0.12
-0.6541532350959081
% es.Ex (V/m) @ t=0.12
1.3180054479369163
% es.Ey (V/m) @ t=0.12
0.05071089800450507
% es.Ez (V/m) @ t=0.12
-0.6541532350959052
% es.tEx (V/m) @ t=0.12
1.318005447936919
% es.tEy (V/m) @ t=0.12
0
% es.tEz (V/m) @ t=0.12
-0.6541532350959081
% V (V) @ t=0.12
0.0066797492823519825
% es.normE (V/m) @ t=0.14
1.4858103137327525
% es.EX (V/m) @ t=0.14
1.3301124357430711
% es.EY (V/m) @ t=0.14
0.051176719250267066
% es.EZ (V/m) @ t=0.14
-0.660162184845007
% es.tEX (V/m) @ t=0.14
1.3301124357430734
% es.tEY (V/m) @ t=0.14
0
% es.tEZ (V/m) @ t=0.14
-0.6601621848450101
% es.Ex (V/m) @ t=0.14
1.3301124357430711
% es.Ey (V/m) @ t=0.14
0.051176719250267066
% es.Ez (V/m) @ t=0.14
-0.660162184845007
% es.tEx (V/m) @ t=0.14
1.3301124357430734
% es.tEy (V/m) @ t=0.14
0
% es.tEz (V/m) @ t=0.14
-0.6601621848450101
% V (V) @ t=0.14
0.006741108476860462
% es.normE (V/m) @ t=0.16
1.499909579382487
% es.EX (V/m) @ t=0.16
1.3427342381376808
% es.EY (V/m) @ t=0.16
0.051662346067710585
% es.EZ (V/m) @ t=0.16
-0.6664266529065243
% es.tEX (V/m) @ t=0.16
1.3427342381376812
% es.tEY (V/m) @ t=0.16
0
% es.tEZ (V/m) @ t=0.16
-0.6664266529065195
% es.Ex (V/m) @ t=0.16
1.3427342381376808
% es.Ey (V/m) @ t=0.16
0.051662346067710585
% es.Ez (V/m) @ t=0.16
-0.6664266529065243
% es.tEx (V/m) @ t=0.16
1.3427342381376812
% es.tEy (V/m) @ t=0.16
0
% es.tEz (V/m) @ t=0.16
-0.6664266529065195
% V (V) @ t=0.16
0.006805076969577113
% es.normE (V/m) @ t=0.18
1.5140088450322216
% es.EX (V/m) @ t=0.18
1.35535604053229
% es.EY (V/m) @ t=0.18
0.05214797288514966
% es.EZ (V/m) @ t=0.18
-0.6726911209680433
% es.tEX (V/m) @ t=0.18
1.355356040532289
% es.tEY (V/m) @ t=0.18
0
% es.tEZ (V/m) @ t=0.18
-0.6726911209680395
% es.Ex (V/m) @ t=0.18
1.35535604053229
% es.Ey (V/m) @ t=0.18
0.05214797288514966
% es.Ez (V/m) @ t=0.18
-0.6726911209680433
% es.tEx (V/m) @ t=0.18
1.355356040532289
% es.tEy (V/m) @ t=0.18
0
% es.tEz (V/m) @ t=0.18
-0.6726911209680395
% V (V) @ t=0.18
0.006869045462293766
% es.normE (V/m) @ t=0.2
1.5281081106819627
% es.EX (V/m) @ t=0.2
1.367977842926905
% es.EY (V/m) @ t=0.2
0.052633599702576805
% es.EZ (V/m) @ t=0.2
-0.678955589029566
% es.tEX (V/m) @ t=0.2
1.3679778429269076
% es.tEY (V/m) @ t=0.2
0
% es.tEZ (V/m) @ t=0.2
-0.6789555890295631
% es.Ex (V/m) @ t=0.2
1.367977842926905
% es.Ey (V/m) @ t=0.2
0.052633599702576805
% es.Ez (V/m) @ t=0.2
-0.678955589029566
% es.tEx (V/m) @ t=0.2
1.3679778429269076
% es.tEy (V/m) @ t=0.2
0
% es.tEz (V/m) @ t=0.2
-0.6789555890295631
% V (V) @ t=0.2
0.006933013955010417
% es.normE (V/m) @ t=0.22
1.5422073763316921
% es.EX (V/m) @ t=0.22
1.380599645321511
% es.EY (V/m) @ t=0.22
0.05311922652000034
% es.EZ (V/m) @ t=0.22
-0.6852200570910797
% es.tEX (V/m) @ t=0.22
1.3805996453215128
% es.tEY (V/m) @ t=0.22
0
% es.tEZ (V/m) @ t=0.22
-0.685220057091076
% es.Ex (V/m) @ t=0.22
1.380599645321511
% es.Ey (V/m) @ t=0.22
0.05311922652000034
% es.Ez (V/m) @ t=0.22
-0.6852200570910797
% es.tEx (V/m) @ t=0.22
1.3805996453215128
% es.tEy (V/m) @ t=0.22
0
% es.tEz (V/m) @ t=0.22
-0.685220057091076
% V (V) @ t=0.22
0.006996982447727069
% es.normE (V/m) @ t=0.24
1.5563066419814184
% es.EX (V/m) @ t=0.24
1.3932214477161202
% es.EY (V/m) @ t=0.24
0.053604853337418545
% es.EZ (V/m) @ t=0.24
-0.691484525152581
% es.tEX (V/m) @ t=0.24
1.3932214477161171
% es.tEY (V/m) @ t=0.24
0
% es.tEZ (V/m) @ t=0.24
-0.6914845251525783
% es.Ex (V/m) @ t=0.24
1.3932214477161202
% es.Ey (V/m) @ t=0.24
0.053604853337418545
% es.Ez (V/m) @ t=0.24
-0.691484525152581
% es.tEx (V/m) @ t=0.24
1.3932214477161171
% es.tEy (V/m) @ t=0.24
0
% es.tEz (V/m) @ t=0.24
-0.6914845251525783
% V (V) @ t=0.24
0.007060950940443722
% es.normE (V/m) @ t=0.26
1.5704059076311538
% es.EX (V/m) @ t=0.26
1.4058432501107316
% es.EY (V/m) @ t=0.26
0.05409048015485987
% es.EZ (V/m) @ t=0.26
-0.6977489932140964
% es.tEX (V/m) @ t=0.26
1.405843250110725
% es.tEY (V/m) @ t=0.26
0
% es.tEZ (V/m) @ t=0.26
-0.6977489932140912
% es.Ex (V/m) @ t=0.26
1.4058432501107316
% es.Ey (V/m) @ t=0.26
0.05409048015485987
% es.Ez (V/m) @ t=0.26
-0.6977489932140964
% es.tEx (V/m) @ t=0.26
1.405843250110725
% es.tEy (V/m) @ t=0.26
0
% es.tEz (V/m) @ t=0.26
-0.6977489932140912
% V (V) @ t=0.26
0.007124919433160374
% es.normE (V/m) @ t=0.28
1.5851453799820736
% es.EX (V/m) @ t=0.28
1.419038133105411
% es.EY (V/m) @ t=0.28
0.054598114238277096
% es.EZ (V/m) @ t=0.28
-0.7042979941137374
% es.tEX (V/m) @ t=0.28
1.4190381331054054
% es.tEY (V/m) @ t=0.28
0
% es.tEZ (V/m) @ t=0.28
-0.704297994113734
% es.Ex (V/m) @ t=0.28
1.419038133105411
% es.Ey (V/m) @ t=0.28
0.054598114238277096
% es.Ez (V/m) @ t=0.28
-0.7042979941137374
% es.tEx (V/m) @ t=0.28
1.4190381331054054
% es.tEy (V/m) @ t=0.28
0
% es.tEz (V/m) @ t=0.28
-0.704297994113734
% V (V) @ t=0.28
0.007191795824158355
% es.normE (V/m) @ t=0.3
1.600850957289154
% es.EX (V/m) @ t=0.3
1.4330978243049475
% es.EY (V/m) @ t=0.3
0.05513895842198396
% es.EZ (V/m) @ t=0.3
-0.7112763697521609
% es.tEX (V/m) @ t=0.3
1.4330978243049461
% es.tEY (V/m) @ t=0.3
0
% es.tEZ (V/m) @ t=0.3
-0.7112763697521558
% es.Ex (V/m) @ t=0.3
1.4330978243049475
% es.Ey (V/m) @ t=0.3
0.05513895842198396
% es.Ez (V/m) @ t=0.3
-0.7112763697521609
% es.tEx (V/m) @ t=0.3
1.4330978243049461
% es.tEy (V/m) @ t=0.3
0
% es.tEz (V/m) @ t=0.3
-0.7112763697521558
% V (V) @ t=0.3
0.007263060383753009
% es.normE (V/m) @ t=0.32
1.616556534596294
% es.EX (V/m) @ t=0.32
1.4471575155044965
% es.EY (V/m) @ t=0.32
0.05567980260568417
% es.EZ (V/m) @ t=0.32
-0.7182547453905914
% es.tEX (V/m) @ t=0.32
1.447157515504487
% es.tEY (V/m) @ t=0.32
0
% es.tEZ (V/m) @ t=0.32
-0.7182547453905848
% es.Ex (V/m) @ t=0.32
1.4471575155044965
% es.Ey (V/m) @ t=0.32
0.05567980260568417
% es.Ez (V/m) @ t=0.32
-0.7182547453905914
% es.tEx (V/m) @ t=0.32
1.447157515504487
% es.tEy (V/m) @ t=0.32
0
% es.tEz (V/m) @ t=0.32
-0.7182547453905848
% V (V) @ t=0.32
0.007334324943347662
% es.normE (V/m) @ t=0.34
1.6322621119034615
% es.EX (V/m) @ t=0.34
1.4612172067040312
% es.EY (V/m) @ t=0.34
0.056220646789393286
% es.EZ (V/m) @ t=0.34
-0.7252331210290113
% es.tEX (V/m) @ t=0.34
1.4612172067040312
% es.tEY (V/m) @ t=0.34
0
% es.tEZ (V/m) @ t=0.34
-0.7252331210290031
% es.Ex (V/m) @ t=0.34
1.4612172067040312
% es.Ey (V/m) @ t=0.34
0.056220646789393286
% es.Ez (V/m) @ t=0.34
-0.7252331210290113
% es.tEx (V/m) @ t=0.34
1.4612172067040312
% es.tEy (V/m) @ t=0.34
0
% es.tEz (V/m) @ t=0.34
-0.7252331210290031
% V (V) @ t=0.34
0.007405589502942315
% es.normE (V/m) @ t=0.36
1.6479676892106794
% es.EX (V/m) @ t=0.36
1.4752768979035695
% es.EY (V/m) @ t=0.36
0.056761490973097045
% es.EZ (V/m) @ t=0.36
-0.7322114966674419
% es.tEX (V/m) @ t=0.36
1.4752768979035684
% es.tEY (V/m) @ t=0.36
0
% es.tEZ (V/m) @ t=0.36
-0.7322114966674285
% es.Ex (V/m) @ t=0.36
1.4752768979035695
% es.Ey (V/m) @ t=0.36
0.056761490973097045
% es.Ez (V/m) @ t=0.36
-0.7322114966674419
% es.tEx (V/m) @ t=0.36
1.4752768979035684
% es.tEy (V/m) @ t=0.36
0
% es.tEz (V/m) @ t=0.36
-0.7322114966674285
% V (V) @ t=0.36
0.007476854062536967
% es.normE (V/m) @ t=0.38
1.6636732665179306
% es.EX (V/m) @ t=0.38
1.489336589103106
% es.EY (V/m) @ t=0.38
0.05730233515680258
% es.EZ (V/m) @ t=0.38
-0.7391898723058565
% es.tEX (V/m) @ t=0.38
1.4893365891031092
% es.tEY (V/m) @ t=0.38
0
% es.tEZ (V/m) @ t=0.38
-0.7391898723058539
% es.Ex (V/m) @ t=0.38
1.489336589103106
% es.Ey (V/m) @ t=0.38
0.05730233515680258
% es.Ez (V/m) @ t=0.38
-0.7391898723058565
% es.tEx (V/m) @ t=0.38
1.4893365891031092
% es.tEy (V/m) @ t=0.38
0
% es.tEz (V/m) @ t=0.38
-0.7391898723058539
% V (V) @ t=0.38
0.00754811862213162
% es.normE (V/m) @ t=0.4
1.6793788438252366
% es.EX (V/m) @ t=0.4
1.503396280302653
% es.EY (V/m) @ t=0.4
0.05784317934050412
% es.EZ (V/m) @ t=0.4
-0.7461682479442817
% es.tEX (V/m) @ t=0.4
1.50339628030265
% es.tEY (V/m) @ t=0.4
0
% es.tEZ (V/m) @ t=0.4
-0.7461682479442722
% es.Ex (V/m) @ t=0.4
1.503396280302653
% es.Ey (V/m) @ t=0.4
0.05784317934050412
% es.Ez (V/m) @ t=0.4
-0.7461682479442817
% es.tEx (V/m) @ t=0.4
1.50339628030265
% es.tEy (V/m) @ t=0.4
0
% es.tEz (V/m) @ t=0.4
-0.7461682479442722
% V (V) @ t=0.4
0.007619383181726274
% es.normE (V/m) @ t=0.42
1.6950844211325715
% es.EX (V/m) @ t=0.42
1.5174559715021898
% es.EY (V/m) @ t=0.42
0.05838402352420835
% es.EZ (V/m) @ t=0.42
-0.7531466235827033
% es.tEX (V/m) @ t=0.42
1.5174559715021871
% es.tEY (V/m) @ t=0.42
0
% es.tEZ (V/m) @ t=0.42
-0.753146623582694
% es.Ex (V/m) @ t=0.42
1.5174559715021898
% es.Ey (V/m) @ t=0.42
0.05838402352420835
% es.Ez (V/m) @ t=0.42
-0.7531466235827033
% es.tEx (V/m) @ t=0.42
1.5174559715021871
% es.tEy (V/m) @ t=0.42
0
% es.tEz (V/m) @ t=0.42
-0.753146623582694
% V (V) @ t=0.42
0.007690647741320926
% es.normE (V/m) @ t=0.44
1.710789998439946
% es.EX (V/m) @ t=0.44
1.5315156627017281
% es.EY (V/m) @ t=0.44
0.05892486770791566
% es.EZ (V/m) @ t=0.44
-0.7601249992211251
% es.tEX (V/m) @ t=0.44
1.531515662701728
% es.tEY (V/m) @ t=0.44
0
% es.tEZ (V/m) @ t=0.44
-0.7601249992211194
% es.Ex (V/m) @ t=0.44
1.5315156627017281
% es.Ey (V/m) @ t=0.44
0.05892486770791566
% es.Ez (V/m) @ t=0.44
-0.7601249992211251
% es.tEx (V/m) @ t=0.44
1.531515662701728
% es.tEy (V/m) @ t=0.44
0
% es.tEz (V/m) @ t=0.44
-0.7601249992211194
% V (V) @ t=0.44
0.007761912300915578
% es.normE (V/m) @ t=0.46
1.7264955757473743
% es.EX (V/m) @ t=0.46
1.545575353901277
% es.EY (V/m) @ t=0.46
0.05946571189162611
% es.EZ (V/m) @ t=0.46
-0.767103374859561
% es.tEX (V/m) @ t=0.46
1.5455753539012758
% es.tEY (V/m) @ t=0.46
0
% es.tEZ (V/m) @ t=0.46
-0.7671033748595519
% es.Ex (V/m) @ t=0.46
1.545575353901277
% es.Ey (V/m) @ t=0.46
0.05946571189162611
% es.Ez (V/m) @ t=0.46
-0.767103374859561
% es.tEx (V/m) @ t=0.46
1.5455753539012758
% es.tEy (V/m) @ t=0.46
0
% es.tEz (V/m) @ t=0.46
-0.7671033748595519
% V (V) @ t=0.46
0.007833176860510233
% es.normE (V/m) @ t=0.48
1.7422011530548107
% es.EX (V/m) @ t=0.48
1.5596350451008067
% es.EY (V/m) @ t=0.48
0.060006556075326345
% es.EZ (V/m) @ t=0.48
-0.7740817504979738
% es.tEX (V/m) @ t=0.48
1.5596350451008059
% es.tEY (V/m) @ t=0.48
0
% es.tEZ (V/m) @ t=0.48
-0.7740817504979702
% es.Ex (V/m) @ t=0.48
1.5596350451008067
% es.Ey (V/m) @ t=0.48
0.060006556075326345
% es.Ez (V/m) @ t=0.48
-0.7740817504979738
% es.tEx (V/m) @ t=0.48
1.5596350451008059
% es.tEy (V/m) @ t=0.48
0
% es.tEz (V/m) @ t=0.48
-0.7740817504979702
% V (V) @ t=0.48
0.007904441420104885
% es.normE (V/m) @ t=0.5
1.7579067303622908
% es.EX (V/m) @ t=0.5
1.5736947363003417
% es.EY (V/m) @ t=0.5
0.06054740025902522
% es.EZ (V/m) @ t=0.5
-0.7810601261363936
% es.tEX (V/m) @ t=0.5
1.5736947363003404
% es.tEY (V/m) @ t=0.5
0
% es.tEZ (V/m) @ t=0.5
-0.7810601261363921
% es.Ex (V/m) @ t=0.5
1.5736947363003417
% es.Ey (V/m) @ t=0.5
0.06054740025902522
% es.Ez (V/m) @ t=0.5
-0.7810601261363936
% es.tEx (V/m) @ t=0.5
1.5736947363003404
% es.tEy (V/m) @ t=0.5
0
% es.tEz (V/m) @ t=0.5
-0.7810601261363921
% V (V) @ t=0.5
0.007975705979699536
% es.normE (V/m) @ t=0.52
1.7736123076698362
% es.EX (V/m) @ t=0.52
1.5877544274999007
% es.EY (V/m) @ t=0.52
0.06108824444273389
% es.EZ (V/m) @ t=0.52
-0.7880385017748349
% es.tEX (V/m) @ t=0.52
1.5877544274999007
% es.tEY (V/m) @ t=0.52
0
% es.tEZ (V/m) @ t=0.52
-0.7880385017748317
% es.Ex (V/m) @ t=0.52
1.5877544274999007
% es.Ey (V/m) @ t=0.52
0.06108824444273389
% es.Ez (V/m) @ t=0.52
-0.7880385017748349
% es.tEx (V/m) @ t=0.52
1.5877544274999007
% es.tEy (V/m) @ t=0.52
0
% es.tEz (V/m) @ t=0.52
-0.7880385017748317
% V (V) @ t=0.52
0.00804697053929419
% es.normE (V/m) @ t=0.54
1.7893178849773843
% es.EX (V/m) @ t=0.54
1.6018141186994352
% es.EY (V/m) @ t=0.54
0.06162908862643762
% es.EZ (V/m) @ t=0.54
-0.7950168774132549
% es.tEX (V/m) @ t=0.54
1.6018141186994344
% es.tEY (V/m) @ t=0.54
0
% es.tEZ (V/m) @ t=0.54
-0.7950168774132429
% es.Ex (V/m) @ t=0.54
1.6018141186994352
% es.Ey (V/m) @ t=0.54
0.06162908862643762
% es.Ez (V/m) @ t=0.54
-0.7950168774132549
% es.tEx (V/m) @ t=0.54
1.6018141186994344
% es.tEy (V/m) @ t=0.54
0
% es.tEz (V/m) @ t=0.54
-0.7950168774132429
% V (V) @ t=0.54
0.008118235098888843
% es.normE (V/m) @ t=0.56
1.8064959329125247
% es.EX (V/m) @ t=0.56
1.6171915398814276
% es.EY (V/m) @ t=0.56
0.06222015312874507
% es.EZ (V/m) @ t=0.56
-0.8026504146771125
% es.tEX (V/m) @ t=0.56
1.6171915398814232
% es.tEY (V/m) @ t=0.56
0
% es.tEZ (V/m) @ t=0.56
-0.8026504146771103
% es.Ex (V/m) @ t=0.56
1.6171915398814276
% es.Ey (V/m) @ t=0.56
0.06222015312874507
% es.Ez (V/m) @ t=0.56
-0.8026504146771125
% es.tEx (V/m) @ t=0.56
1.6171915398814232
% es.tEy (V/m) @ t=0.56
0
% es.tEz (V/m) @ t=0.56
-0.8026504146771103
% V (V) @ t=0.56
0.008196217469748723
% es.normE (V/m) @ t=0.58
1.8240259778835244
% es.EX (V/m) @ t=0.58
1.6328839670385942
% es.EY (V/m) @ t=0.58
0.06282322289814757
% es.EZ (V/m) @ t=0.58
-0.8104405696315913
% es.tEX (V/m) @ t=0.58
1.6328839670386008
% es.tEY (V/m) @ t=0.58
0
% es.tEZ (V/m) @ t=0.58
-0.8104405696315808
% es.Ex (V/m) @ t=0.58
1.6328839670385942
% es.Ey (V/m) @ t=0.58
0.06282322289814757
% es.Ez (V/m) @ t=0.58
-0.8104405696315913
% es.tEx (V/m) @ t=0.58
1.6328839670386008
% es.tEy (V/m) @ t=0.58
0
% es.tEz (V/m) @ t=0.58
-0.8104405696315808
% V (V) @ t=0.58
0.008275805746763032
% es.normE (V/m) @ t=0.6
1.8415560228561274
% es.EX (V/m) @ t=0.6
1.648576394195782
% es.EY (V/m) @ t=0.6
0.06342629266755981
% es.EZ (V/m) @ t=0.6
-0.8182307245860717
% es.tEX (V/m) @ t=0.6
1.6485763941957723
% es.tEY (V/m) @ t=0.6
0
% es.tEZ (V/m) @ t=0.6
-0.8182307245860656
% es.Ex (V/m) @ t=0.6
1.648576394195782
% es.Ey (V/m) @ t=0.6
0.06342629266755981
% es.Ez (V/m) @ t=0.6
-0.8182307245860717
% es.tEx (V/m) @ t=0.6
1.6485763941957723
% es.tEy (V/m) @ t=0.6
0
% es.tEz (V/m) @ t=0.6
-0.8182307245860656
% V (V) @ t=0.6
0.008355394023777345
% es.normE (V/m) @ t=0.62
1.859086067830256
% es.EX (V/m) @ t=0.62
1.6642688213529526
% es.EY (V/m) @ t=0.62
0.06402936243698767
% es.EZ (V/m) @ t=0.62
-0.8260208795405575
% es.tEX (V/m) @ t=0.62
1.6642688213529508
% es.tEY (V/m) @ t=0.62
0
% es.tEZ (V/m) @ t=0.62
-0.8260208795405504
% es.Ex (V/m) @ t=0.62
1.6642688213529526
% es.Ey (V/m) @ t=0.62
0.06402936243698767
% es.Ez (V/m) @ t=0.62
-0.8260208795405575
% es.tEx (V/m) @ t=0.62
1.6642688213529508
% es.tEy (V/m) @ t=0.62
0
% es.tEz (V/m) @ t=0.62
-0.8260208795405504
% V (V) @ t=0.62
0.008434982300791656
% es.normE (V/m) @ t=0.64
1.876616112805881
% es.EX (V/m) @ t=0.64
1.6799612485101296
% es.EY (V/m) @ t=0.64
0.06463243220641057
% es.EZ (V/m) @ t=0.64
-0.8338110344950327
% es.tEX (V/m) @ t=0.64
1.6799612485101356
% es.tEY (V/m) @ t=0.64
0
% es.tEZ (V/m) @ t=0.64
-0.8338110344950351
% es.Ex (V/m) @ t=0.64
1.6799612485101296
% es.Ey (V/m) @ t=0.64
0.06463243220641057
% es.Ez (V/m) @ t=0.64
-0.8338110344950327
% es.tEx (V/m) @ t=0.64
1.6799612485101356
% es.tEy (V/m) @ t=0.64
0
% es.tEz (V/m) @ t=0.64
-0.8338110344950351
% V (V) @ t=0.64
0.008514570577805969
% es.normE (V/m) @ t=0.66
1.8941461577829626
% es.EX (V/m) @ t=0.66
1.695653675667307
% es.EY (V/m) @ t=0.66
0.06523550197582995
% es.EZ (V/m) @ t=0.66
-0.8416011894495149
% es.tEX (V/m) @ t=0.66
1.695653675667307
% es.tEY (V/m) @ t=0.66
0
% es.tEZ (V/m) @ t=0.66
-0.8416011894495092
% es.Ex (V/m) @ t=0.66
1.695653675667307
% es.Ey (V/m) @ t=0.66
0.06523550197582995
% es.Ez (V/m) @ t=0.66
-0.8416011894495149
% es.tEx (V/m) @ t=0.66
1.695653675667307
% es.tEy (V/m) @ t=0.66
0
% es.tEz (V/m) @ t=0.66
-0.8416011894495092
% V (V) @ t=0.66
0.00859415885482028
% es.normE (V/m) @ t=0.68
1.9116762027614569
% es.EX (V/m) @ t=0.68
1.7113461028244843
% es.EY (V/m) @ t=0.68
0.06583857174524754
% es.EZ (V/m) @ t=0.68
-0.8493913444039954
% es.tEX (V/m) @ t=0.68
1.7113461028244847
% es.tEY (V/m) @ t=0.68
0
% es.tEZ (V/m) @ t=0.68
-0.8493913444040011
% es.Ex (V/m) @ t=0.68
1.7113461028244843
% es.Ey (V/m) @ t=0.68
0.06583857174524754
% es.Ez (V/m) @ t=0.68
-0.8493913444039954
% es.tEx (V/m) @ t=0.68
1.7113461028244847
% es.tEy (V/m) @ t=0.68
0
% es.tEz (V/m) @ t=0.68
-0.8493913444040011
% V (V) @ t=0.68
0.008673747131834591
% es.normE (V/m) @ t=0.7
1.929206247741335
% es.EX (V/m) @ t=0.7
1.7270385299816682
% es.EY (V/m) @ t=0.7
0.06644164151464915
% es.EZ (V/m) @ t=0.7
-0.857181499358483
% es.tEX (V/m) @ t=0.7
1.7270385299816624
% es.tEY (V/m) @ t=0.7
0
% es.tEZ (V/m) @ t=0.7
-0.8571814993584823
% es.Ex (V/m) @ t=0.7
1.7270385299816682
% es.Ey (V/m) @ t=0.7
0.06644164151464915
% es.Ez (V/m) @ t=0.7
-0.857181499358483
% es.tEx (V/m) @ t=0.7
1.7270385299816624
% es.tEy (V/m) @ t=0.7
0
% es.tEz (V/m) @ t=0.7
-0.8571814993584823
% V (V) @ t=0.7
0.008753335408848904
% es.normE (V/m) @ t=0.72
1.946736292722533
% es.EX (V/m) @ t=0.72
1.7427309571388356
% es.EY (V/m) @ t=0.72
0.0670447112840872
% es.EZ (V/m) @ t=0.72
-0.86497165431296
% es.tEX (V/m) @ t=0.72
1.7427309571388276
% es.tEY (V/m) @ t=0.72
0
% es.tEZ (V/m) @ t=0.72
-0.8649716543129529
% es.Ex (V/m) @ t=0.72
1.7427309571388356
% es.Ey (V/m) @ t=0.72
0.0670447112840872
% es.Ez (V/m) @ t=0.72
-0.86497165431296
% es.tEx (V/m) @ t=0.72
1.7427309571388276
% es.tEy (V/m) @ t=0.72
0
% es.tEz (V/m) @ t=0.72
-0.8649716543129529
% V (V) @ t=0.72
0.008832923685863215
% es.normE (V/m) @ t=0.74
1.9642663377050438
% es.EX (V/m) @ t=0.74
1.7584233842960129
% es.EY (V/m) @ t=0.74
0.0676477810534826
% es.EZ (V/m) @ t=0.74
-0.8727618092674457
% es.tEX (V/m) @ t=0.74
1.7584233842960195
% es.tEY (V/m) @ t=0.74
0
% es.tEZ (V/m) @ t=0.74
-0.8727618092674305
% es.Ex (V/m) @ t=0.74
1.7584233842960129
% es.Ey (V/m) @ t=0.74
0.0676477810534826
% es.Ez (V/m) @ t=0.74
-0.8727618092674457
% es.tEx (V/m) @ t=0.74
1.7584233842960195
% es.tEy (V/m) @ t=0.74
0
% es.tEz (V/m) @ t=0.74
-0.8727618092674305
% V (V) @ t=0.74
0.008912511962877527
% es.normE (V/m) @ t=0.76
1.9817963826888323
% es.EX (V/m) @ t=0.76
1.7741158114532003
% es.EY (V/m) @ t=0.76
0.06825085082291615
% es.EZ (V/m) @ t=0.76
-0.8805519642219297
% es.tEX (V/m) @ t=0.76
1.77411581145319
% es.tEY (V/m) @ t=0.76
0
% es.tEZ (V/m) @ t=0.76
-0.8805519642219295
% es.Ex (V/m) @ t=0.76
1.7741158114532003
% es.Ey (V/m) @ t=0.76
0.06825085082291615
% es.Ez (V/m) @ t=0.76
-0.8805519642219297
% es.tEx (V/m) @ t=0.76
1.77411581145319
% es.tEy (V/m) @ t=0.76
0
% es.tEz (V/m) @ t=0.76
-0.8805519642219295
% V (V) @ t=0.76
0.008992100239891838
% es.normE (V/m) @ t=0.78
1.9993264276738367
% es.EX (V/m) @ t=0.78
1.7898082386103709
% es.EY (V/m) @ t=0.78
0.06885392059233197
% es.EZ (V/m) @ t=0.78
-0.8883421191764085
% es.tEX (V/m) @ t=0.78
1.7898082386103678
% es.tEY (V/m) @ t=0.78
0
% es.tEZ (V/m) @ t=0.78
-0.8883421191764
% es.Ex (V/m) @ t=0.78
1.7898082386103709
% es.Ey (V/m) @ t=0.78
0.06885392059233197
% es.Ez (V/m) @ t=0.78
-0.8883421191764085
% es.tEx (V/m) @ t=0.78
1.7898082386103678
% es.tEy (V/m) @ t=0.78
0
% es.tEz (V/m) @ t=0.78
-0.8883421191764
% V (V) @ t=0.78
0.009071688516906151
% es.normE (V/m) @ t=0.8
2.016856472660047
% es.EX (V/m) @ t=0.8
1.8055006657675405
% es.EY (V/m) @ t=0.8
0.06945699036175493
% es.EZ (V/m) @ t=0.8
-0.8961322741308961
% es.tEX (V/m) @ t=0.8
1.8055006657675463
% es.tEY (V/m) @ t=0.8
0
% es.tEZ (V/m) @ t=0.8
-0.8961322741308919
% es.Ex (V/m) @ t=0.8
1.8055006657675405
% es.Ey (V/m) @ t=0.8
0.06945699036175493
% es.Ez (V/m) @ t=0.8
-0.8961322741308961
% es.tEx (V/m) @ t=0.8
1.8055006657675463
% es.tEy (V/m) @ t=0.8
0
% es.tEz (V/m) @ t=0.8
-0.8961322741308919
% V (V) @ t=0.8
0.009151276793920462
% es.normE (V/m) @ t=0.82
2.034829339454589
% es.EX (V/m) @ t=0.82
1.8215898010091336
% es.EY (V/m) @ t=0.82
0.0700756387855529
% es.EZ (V/m) @ t=0.82
-0.9041185711148525
% es.tEX (V/m) @ t=0.82
1.8215898010091394
% es.tEY (V/m) @ t=0.82
0
% es.tEZ (V/m) @ t=0.82
-0.9041185711148501
% es.Ex (V/m) @ t=0.82
1.8215898010091336
% es.Ey (V/m) @ t=0.82
0.0700756387855529
% es.Ez (V/m) @ t=0.82
-0.9041185711148525
% es.tEx (V/m) @ t=0.82
1.8215898010091394
% es.tEy (V/m) @ t=0.82
0
% es.tEz (V/m) @ t=0.82
-0.9041185711148501
% V (V) @ t=0.82
0.009232849697296808
% es.normE (V/m) @ t=0.84
2.054413476562438
% es.EX (V/m) @ t=0.84
1.8391224152041168
% es.EY (V/m) @ t=0.84
0.07075097236555963
% es.EZ (V/m) @ t=0.84
-0.9128185588516557
% es.tEX (V/m) @ t=0.84
1.839122415204109
% es.tEY (V/m) @ t=0.84
0
% es.tEZ (V/m) @ t=0.84
-0.9128185588516544
% es.Ex (V/m) @ t=0.84
1.8391224152041168
% es.Ey (V/m) @ t=0.84
0.07075097236555963
% es.Ez (V/m) @ t=0.84
-0.9128185588516557
% es.tEx (V/m) @ t=0.84
1.839122415204109
% es.tEy (V/m) @ t=0.84
0
% es.tEz (V/m) @ t=0.84
-0.9128185588516544
% V (V) @ t=0.84
0.009321643946787425
% es.normE (V/m) @ t=0.86
2.073997613672505
% es.EX (V/m) @ t=0.86
1.8566550293990818
% es.EY (V/m) @ t=0.86
0.07142630594554866
% es.EZ (V/m) @ t=0.86
-0.921518546588452
% es.tEX (V/m) @ t=0.86
1.8566550293990796
% es.tEY (V/m) @ t=0.86
0
% es.tEZ (V/m) @ t=0.86
-0.9215185465884446
% es.Ex (V/m) @ t=0.86
1.8566550293990818
% es.Ey (V/m) @ t=0.86
0.07142630594554866
% es.Ez (V/m) @ t=0.86
-0.921518546588452
% es.tEx (V/m) @ t=0.86
1.8566550293990796
% es.tEy (V/m) @ t=0.86
0
% es.tEz (V/m) @ t=0.86
-0.9215185465884446
% V (V) @ t=0.86
0.009410438196278043
% es.normE (V/m) @ t=0.88
2.0935817507847605
% es.EX (V/m) @ t=0.88
1.8741876435940568
% es.EY (V/m) @ t=0.88
0.0721016395255625
% es.EZ (V/m) @ t=0.88
-0.9302185343252517
% es.tEX (V/m) @ t=0.88
1.8741876435940483
% es.tEY (V/m) @ t=0.88
0
% es.tEZ (V/m) @ t=0.88
-0.9302185343252489
% es.Ex (V/m) @ t=0.88
1.8741876435940568
% es.Ey (V/m) @ t=0.88
0.0721016395255625
% es.Ez (V/m) @ t=0.88
-0.9302185343252517
% es.tEx (V/m) @ t=0.88
1.8741876435940483
% es.tEy (V/m) @ t=0.88
0
% es.tEz (V/m) @ t=0.88
-0.9302185343252489
% V (V) @ t=0.88
0.009499232445768661
% es.normE (V/m) @ t=0.9
2.1131658878991275
% es.EX (V/m) @ t=0.9
1.8917202577890255
% es.EY (V/m) @ t=0.9
0.07277697310555861
% es.EZ (V/m) @ t=0.9
-0.9389185220620551
% es.tEX (V/m) @ t=0.9
1.891720257789017
% es.tEY (V/m) @ t=0.9
0
% es.tEZ (V/m) @ t=0.9
-0.9389185220620533
% es.Ex (V/m) @ t=0.9
1.8917202577890255
% es.Ey (V/m) @ t=0.9
0.07277697310555861
% es.Ez (V/m) @ t=0.9
-0.9389185220620551
% es.tEx (V/m) @ t=0.9
1.891720257789017
% es.tEy (V/m) @ t=0.9
0
% es.tEz (V/m) @ t=0.9
-0.9389185220620533
% V (V) @ t=0.9
0.009588026695259277
% es.normE (V/m) @ t=0.92
2.1327500250155413
% es.EX (V/m) @ t=0.92
1.9092528719839907
% es.EY (V/m) @ t=0.92
0.07345230668555205
% es.EZ (V/m) @ t=0.92
-0.9476185097988405
% es.tEX (V/m) @ t=0.92
1.9092528719839814
% es.tEY (V/m) @ t=0.92
0
% es.tEZ (V/m) @ t=0.92
-0.9476185097988292
% es.Ex (V/m) @ t=0.92
1.9092528719839907
% es.Ey (V/m) @ t=0.92
0.07345230668555205
% es.Ez (V/m) @ t=0.92
-0.9476185097988405
% es.tEx (V/m) @ t=0.92
1.9092528719839814
% es.tEy (V/m) @ t=0.92
0
% es.tEz (V/m) @ t=0.92
-0.9476185097988292
% V (V) @ t=0.92
0.009676820944749894
% es.normE (V/m) @ t=0.94
2.152334162133966
% es.EX (V/m) @ t=0.94
1.9267854861789588
% es.EY (V/m) @ t=0.94
0.0741276402655748
% es.EZ (V/m) @ t=0.94
-0.9563184975356402
% es.tEX (V/m) @ t=0.94
1.9267854861789644
% es.tEY (V/m) @ t=0.94
0
% es.tEZ (V/m) @ t=0.94
-0.9563184975356478
% es.Ex (V/m) @ t=0.94
1.9267854861789588
% es.Ey (V/m) @ t=0.94
0.0741276402655748
% es.Ez (V/m) @ t=0.94
-0.9563184975356402
% es.tEx (V/m) @ t=0.94
1.9267854861789644
% es.tEy (V/m) @ t=0.94
0
% es.tEz (V/m) @ t=0.94
-0.9563184975356478
% V (V) @ t=0.94
0.00976561519424051
% es.normE (V/m) @ t=0.96
2.1719182992543447
% es.EX (V/m) @ t=0.96
1.9443181003739314
% es.EY (V/m) @ t=0.96
0.07480297384557003
% es.EZ (V/m) @ t=0.96
-0.965018485272447
% es.tEX (V/m) @ t=0.96
1.944318100373934
% es.tEY (V/m) @ t=0.96
0
% es.tEZ (V/m) @ t=0.96
-0.965018485272445
% es.Ex (V/m) @ t=0.96
1.9443181003739314
% es.Ey (V/m) @ t=0.96
0.07480297384557003
% es.Ez (V/m) @ t=0.96
-0.965018485272447
% es.tEx (V/m) @ t=0.96
1.944318100373934
% es.tEy (V/m) @ t=0.96
0
% es.tEz (V/m) @ t=0.96
-0.965018485272445
% V (V) @ t=0.96
0.009854409443731126
% es.normE (V/m) @ t=0.98
2.1915024363766085
% es.EX (V/m) @ t=0.98
1.9618507145688993
% es.EY (V/m) @ t=0.98
0.07547830742557501
% es.EZ (V/m) @ t=0.98
-0.9737184730092397
% es.tEX (V/m) @ t=0.98
1.9618507145688957
% es.tEY (V/m) @ t=0.98
0
% es.tEZ (V/m) @ t=0.98
-0.9737184730092352
% es.Ex (V/m) @ t=0.98
1.9618507145688993
% es.Ey (V/m) @ t=0.98
0.07547830742557501
% es.Ez (V/m) @ t=0.98
-0.9737184730092397
% es.tEx (V/m) @ t=0.98
1.9618507145688957
% es.tEy (V/m) @ t=0.98
0
% es.tEz (V/m) @ t=0.98
-0.9737184730092352
% V (V) @ t=0.98
0.009943203693221745
% es.normE (V/m) @ t=1
2.211086573500719
% es.EX (V/m) @ t=1
1.9793833287638645
% es.EY (V/m) @ t=1
0.0761536410055729
% es.EZ (V/m) @ t=1
-0.982418460746043
% es.tEX (V/m) @ t=1
1.9793833287638734
% es.tEY (V/m) @ t=1
0
% es.tEZ (V/m) @ t=1
-0.9824184607460325
% es.Ex (V/m) @ t=1
1.9793833287638645
% es.Ey (V/m) @ t=1
0.0761536410055729
% es.Ez (V/m) @ t=1
-0.982418460746043
% es.tEx (V/m) @ t=1
1.9793833287638734
% es.tEy (V/m) @ t=1
0
% es.tEz (V/m) @ t=1
-0.9824184607460325
% V (V) @ t=1
0.01003199794271236
% es.normE (V/m) @ t=1.02
2.2306707106266486
% es.EX (V/m) @ t=1.02
1.99691594295885
% es.EY (V/m) @ t=1.02
0.07682897458560098
% es.EZ (V/m) @ t=1.02
-0.9911184484828535
% es.tEX (V/m) @ t=1.02
1.9969159429588421
% es.tEY (V/m) @ t=1.02
0
% es.tEZ (V/m) @ t=1.02
-0.991118448482851
% es.Ex (V/m) @ t=1.02
1.99691594295885
% es.Ey (V/m) @ t=1.02
0.07682897458560098
% es.Ez (V/m) @ t=1.02
-0.9911184484828535
% es.tEx (V/m) @ t=1.02
1.9969159429588421
% es.tEy (V/m) @ t=1.02
0
% es.tEz (V/m) @ t=1.02
-0.991118448482851
% V (V) @ t=1.02
0.010120792192202977
% es.normE (V/m) @ t=1.04
2.250254847754295
% es.EX (V/m) @ t=1.04
2.014448557153812
% es.EY (V/m) @ t=1.04
0.07750430816557935
% es.EZ (V/m) @ t=1.04
-0.9998184362196425
% es.tEX (V/m) @ t=1.04