% Model:              1 neuron.mph
% Version:            COMSOL 6.0.0.405
% Date:               Mar 9 2023, 13:27
% Dimension:          0
% Nodes:              14017
% Expressions:        14017
% Description:        Electric field norm, Electric field, X component, Electric field, Y component, Electric field, Z component, Tangential electric field, X component, Tangential electric field, Y component, Tangential electric field, Z component, Electric field, x component, Electric field, y component, Electric field, z component, Tangential electric field, x component, Tangential electric field, y component, Tangential electric field, z component, Electric potential
% Length unit:        mm
% x
2
% y
12.2
% z
1
% es.normE (V/m) @ t=0
0.773977257051586
% es.EX (V/m) @ t=0
-0.4998237736891733
% es.EY (V/m) @ t=0
0.11104936313741909
% es.EZ (V/m) @ t=0
0.5700300917410024
% es.tEX (V/m) @ t=0
-0.4998237736891733
% es.tEY (V/m) @ t=0
0
% es.tEZ (V/m) @ t=0
0.5700300917410064
% es.Ex (V/m) @ t=0
-0.4998237736891733
% es.Ey (V/m) @ t=0
0.11104936313741909
% es.Ez (V/m) @ t=0
0.5700300917410024
% es.tEx (V/m) @ t=0
-0.4998237736891733
% es.tEy (V/m) @ t=0
0
% es.tEz (V/m) @ t=0
0.5700300917410064
% V (V) @ t=0
0.007490570860762968
% es.normE (V/m) @ t=0.02
0.6684981480856639
% es.EX (V/m) @ t=0.02
-0.43170682866176113
% es.EY (V/m) @ t=0.02
0.09591534242178695
% es.EZ (V/m) @ t=0.02
0.4923452946180511
% es.tEX (V/m) @ t=0.02
-0.43170682866176113
% es.tEY (V/m) @ t=0.02
0
% es.tEZ (V/m) @ t=0.02
0.4923452946180622
% es.Ex (V/m) @ t=0.02
-0.43170682866176113
% es.Ey (V/m) @ t=0.02
0.09591534242178695
% es.Ez (V/m) @ t=0.02
0.4923452946180511
% es.tEx (V/m) @ t=0.02
-0.43170682866176113
% es.tEy (V/m) @ t=0.02
0
% es.tEz (V/m) @ t=0.02
0.4923452946180622
% V (V) @ t=0.02
0.006469741450271679
% es.normE (V/m) @ t=0.04
0.6746460819578799
% es.EX (V/m) @ t=0.04
-0.4356770790043043
% es.EY (V/m) @ t=0.04
0.09679744083728004
% es.EZ (V/m) @ t=0.04
0.4968732149523891
% es.tEX (V/m) @ t=0.04
-0.4356770790043025
% es.tEY (V/m) @ t=0.04
0
% es.tEZ (V/m) @ t=0.04
0.49687321495239845
% es.Ex (V/m) @ t=0.04
-0.4356770790043043
% es.Ey (V/m) @ t=0.04
0.09679744083728004
% es.Ez (V/m) @ t=0.04
0.4968732149523891
% es.tEx (V/m) @ t=0.04
-0.4356770790043025
% es.tEy (V/m) @ t=0.04
0
% es.tEz (V/m) @ t=0.04
0.49687321495239845
% V (V) @ t=0.04
0.0065292413204089215
% es.normE (V/m) @ t=0.06
0.6808500883309245
% es.EX (V/m) @ t=0.06
-0.4396835400833945
% es.EY (V/m) @ t=0.06
0.09768758429413343
% es.EZ (V/m) @ t=0.06
0.5014424325611655
% es.tEX (V/m) @ t=0.06
-0.43968354008339294
% es.tEY (V/m) @ t=0.06
0
% es.tEZ (V/m) @ t=0.06
0.5014424325611695
% es.Ex (V/m) @ t=0.06
-0.4396835400833945
% es.Ey (V/m) @ t=0.06
0.09768758429413343
% es.Ez (V/m) @ t=0.06
0.5014424325611655
% es.tEx (V/m) @ t=0.06
-0.43968354008339294
% es.tEy (V/m) @ t=0.06
0
% es.tEz (V/m) @ t=0.06
0.5014424325611695
% V (V) @ t=0.06
0.006589283901942561
% es.normE (V/m) @ t=0.08
0.6871472690325007
% es.EX (V/m) @ t=0.08
-0.4437501715856689
% es.EY (V/m) @ t=0.08
0.09859109598754845
% es.EZ (V/m) @ t=0.08
0.5060802729578566
% es.tEX (V/m) @ t=0.08
-0.4437501715856673
% es.tEY (V/m) @ t=0.08
0
% es.tEZ (V/m) @ t=0.08
0.5060802729578588
% es.Ex (V/m) @ t=0.08
-0.4437501715856689
% es.Ey (V/m) @ t=0.08
0.09859109598754845
% es.Ez (V/m) @ t=0.08
0.5060802729578566
% es.tEx (V/m) @ t=0.08
-0.4437501715856673
% es.tEy (V/m) @ t=0.08
0
% es.tEz (V/m) @ t=0.08
0.5060802729578588
% V (V) @ t=0.08
0.006650228317601432
% es.normE (V/m) @ t=0.1
0.6935123526500764
% es.EX (V/m) @ t=0.1
-0.4478606536555352
% es.EY (V/m) @ t=0.1
0.09950435008811331
% es.EZ (V/m) @ t=0.1
0.510768123775621
% es.tEX (V/m) @ t=0.1
-0.44786065365553385
% es.tEY (V/m) @ t=0.1
0
% es.tEZ (V/m) @ t=0.1
0.510768123775625
% es.Ex (V/m) @ t=0.1
-0.4478606536555352
% es.Ey (V/m) @ t=0.1
0.09950435008811331
% es.Ez (V/m) @ t=0.1
0.510768123775621
% es.tEx (V/m) @ t=0.1
-0.44786065365553385
% es.tEy (V/m) @ t=0.1
0
% es.tEz (V/m) @ t=0.1
0.510768123775625
% V (V) @ t=0.1
0.006711829965438063
% es.normE (V/m) @ t=0.12
0.6998774362676536
% es.EX (V/m) @ t=0.12
-0.45197113572539993
% es.EY (V/m) @ t=0.12
0.10041760418868345
% es.EZ (V/m) @ t=0.12
0.5154559745933875
% es.tEX (V/m) @ t=0.12
-0.4519711357253986
% es.tEY (V/m) @ t=0.12
0
% es.tEZ (V/m) @ t=0.12
0.515455974593388
% es.Ex (V/m) @ t=0.12
-0.45197113572539993
% es.Ey (V/m) @ t=0.12
0.10041760418868345
% es.Ez (V/m) @ t=0.12
0.5154559745933875
% es.tEx (V/m) @ t=0.12
-0.4519711357253986
% es.tEy (V/m) @ t=0.12
0
% es.tEz (V/m) @ t=0.12
0.515455974593388
% V (V) @ t=0.12
0.006773431613274691
% es.normE (V/m) @ t=0.14
0.7062994015641635
% es.EX (V/m) @ t=0.14
-0.4561183513352638
% es.EY (V/m) @ t=0.14
0.10133901977747312
% es.EZ (V/m) @ t=0.14
0.5201857182494334
% es.tEX (V/m) @ t=0.14
-0.456118351335264
% es.tEY (V/m) @ t=0.14
0
% es.tEZ (V/m) @ t=0.14
0.5201857182494338
% es.Ex (V/m) @ t=0.14
-0.4561183513352638
% es.Ey (V/m) @ t=0.14
0.10133901977747312
% es.Ez (V/m) @ t=0.14
0.5201857182494334
% es.tEx (V/m) @ t=0.14
-0.456118351335264
% es.tEy (V/m) @ t=0.14
0
% es.tEz (V/m) @ t=0.14
0.5201857182494338
% V (V) @ t=0.14
0.006835583714709588
% es.normE (V/m) @ t=0.16
0.7130053291019405
% es.EX (V/m) @ t=0.16
-0.46044894652433976
% es.EY (V/m) @ t=0.16
0.10230117879250644
% es.EZ (V/m) @ t=0.16
0.5251245975089502
% es.tEX (V/m) @ t=0.16
-0.4604489465243382
% es.tEY (V/m) @ t=0.16
0
% es.tEZ (V/m) @ t=0.16
0.5251245975089507
% es.Ex (V/m) @ t=0.16
-0.46044894652433976
% es.Ey (V/m) @ t=0.16
0.10230117879250644
% es.Ez (V/m) @ t=0.16
0.5251245975089502
% es.tEx (V/m) @ t=0.16
-0.4604489465243382
% es.tEy (V/m) @ t=0.16
0
% es.tEz (V/m) @ t=0.16
0.5251245975089507
% V (V) @ t=0.16
0.006900483766634344
% es.normE (V/m) @ t=0.18
0.719711256639723
% es.EX (V/m) @ t=0.18
-0.46477954171341707
% es.EY (V/m) @ t=0.18
0.1032633378075184
% es.EZ (V/m) @ t=0.18
0.5300634767684778
% es.tEX (V/m) @ t=0.18
-0.4647795417134155
% es.tEY (V/m) @ t=0.18
0
% es.tEZ (V/m) @ t=0.18
0.5300634767684853
% es.Ex (V/m) @ t=0.18
-0.46477954171341707
% es.Ey (V/m) @ t=0.18
0.1032633378075184
% es.Ez (V/m) @ t=0.18
0.5300634767684778
% es.tEx (V/m) @ t=0.18
-0.4647795417134155
% es.tEy (V/m) @ t=0.18
0
% es.tEz (V/m) @ t=0.18
0.5300634767684853
% V (V) @ t=0.18
0.006965383818559104
% es.normE (V/m) @ t=0.2
0.7264171841775005
% es.EX (V/m) @ t=0.2
-0.46911013690249637
% es.EY (V/m) @ t=0.2
0.10422549682255705
% es.EZ (V/m) @ t=0.2
0.535002356027988
% es.tEX (V/m) @ t=0.2
-0.46911013690249503
% es.tEY (V/m) @ t=0.2
0
% es.tEZ (V/m) @ t=0.2
0.5350023560279955
% es.Ex (V/m) @ t=0.2
-0.46911013690249637
% es.Ey (V/m) @ t=0.2
0.10422549682255705
% es.Ez (V/m) @ t=0.2
0.535002356027988
% es.tEx (V/m) @ t=0.2
-0.46911013690249503
% es.tEy (V/m) @ t=0.2
0
% es.tEz (V/m) @ t=0.2
0.5350023560279955
% V (V) @ t=0.2
0.007030283870483861
% es.normE (V/m) @ t=0.22
0.7331231117152821
% es.EX (V/m) @ t=0.22
-0.4734407320915721
% es.EY (V/m) @ t=0.22
0.10518765583758238
% es.EZ (V/m) @ t=0.22
0.5399412352875119
% es.tEX (V/m) @ t=0.22
-0.47344073209157034
% es.tEY (V/m) @ t=0.22
0
% es.tEZ (V/m) @ t=0.22
0.5399412352875159
% es.Ex (V/m) @ t=0.22
-0.4734407320915721
% es.Ey (V/m) @ t=0.22
0.10518765583758238
% es.Ez (V/m) @ t=0.22
0.5399412352875119
% es.tEx (V/m) @ t=0.22
-0.47344073209157034
% es.tEy (V/m) @ t=0.22
0
% es.tEz (V/m) @ t=0.22
0.5399412352875159
% V (V) @ t=0.22
0.007095183922408617
% es.normE (V/m) @ t=0.24
0.7398290392530601
% es.EX (V/m) @ t=0.24
-0.47777132728064586
% es.EY (V/m) @ t=0.24
0.10614981485260944
% es.EZ (V/m) @ t=0.24
0.5448801145470323
% es.tEX (V/m) @ t=0.24
-0.4777713272806443
% es.tEY (V/m) @ t=0.24
0
% es.tEZ (V/m) @ t=0.24
0.5448801145470399
% es.Ex (V/m) @ t=0.24
-0.47777132728064586
% es.Ey (V/m) @ t=0.24
0.10614981485260944
% es.Ez (V/m) @ t=0.24
0.5448801145470323
% es.tEx (V/m) @ t=0.24
-0.4777713272806443
% es.tEy (V/m) @ t=0.24
0
% es.tEz (V/m) @ t=0.24
0.5448801145470399
% V (V) @ t=0.24
0.0071600839743333755
% es.normE (V/m) @ t=0.26
0.746534966790842
% es.EX (V/m) @ t=0.26
-0.4821019224697234
% es.EY (V/m) @ t=0.26
0.10711197386764365
% es.EZ (V/m) @ t=0.26
0.5498189938065527
% es.tEX (V/m) @ t=0.26
-0.4821019224697236
% es.tEY (V/m) @ t=0.26
0
% es.tEZ (V/m) @ t=0.26
0.5498189938065567
% es.Ex (V/m) @ t=0.26
-0.4821019224697234
% es.Ey (V/m) @ t=0.26
0.10711197386764365
% es.Ez (V/m) @ t=0.26
0.5498189938065527
% es.tEx (V/m) @ t=0.26
-0.4821019224697236
% es.tEy (V/m) @ t=0.26
0
% es.tEz (V/m) @ t=0.26
0.5498189938065567
% V (V) @ t=0.26
0.007224984026258133
% es.normE (V/m) @ t=0.28
0.7535046833392887
% es.EX (V/m) @ t=0.28
-0.48660286352544846
% es.EY (V/m) @ t=0.28
0.10811197519460264
% es.EZ (V/m) @ t=0.28
0.5549521601465646
% es.tEX (V/m) @ t=0.28
-0.4866028635254469
% es.tEY (V/m) @ t=0.28
0
% es.tEZ (V/m) @ t=0.28
0.5549521601465721
% es.Ex (V/m) @ t=0.28
-0.48660286352544846
% es.Ey (V/m) @ t=0.28
0.10811197519460264
% es.Ez (V/m) @ t=0.28
0.5549521601465646
% es.tEx (V/m) @ t=0.28
-0.4866028635254469
% es.tEy (V/m) @ t=0.28
0
% es.tEz (V/m) @ t=0.28
0.5549521601465721
% V (V) @ t=0.28
0.00729243884924186
% es.normE (V/m) @ t=0.3
0.7609779648089884
% es.EX (V/m) @ t=0.3
-0.4914289894806714
% es.EY (V/m) @ t=0.3
0.1091842163043622
% es.EZ (V/m) @ t=0.3
0.5604562144099963
% es.tEX (V/m) @ t=0.3
-0.4914289894806698
% es.tEY (V/m) @ t=0.3
0
% es.tEZ (V/m) @ t=0.3
0.5604562144099985
% es.Ex (V/m) @ t=0.3
-0.4914289894806714
% es.Ey (V/m) @ t=0.3
0.1091842163043622
% es.Ez (V/m) @ t=0.3
0.5604562144099963
% es.tEx (V/m) @ t=0.3
-0.4914289894806698
% es.tEy (V/m) @ t=0.3
0
% es.tEz (V/m) @ t=0.3
0.5604562144099985
% V (V) @ t=0.3
0.007364770649791285
% es.normE (V/m) @ t=0.32
0.7684512462786832
% es.EX (V/m) @ t=0.32
-0.4962551154358965
% es.EY (V/m) @ t=0.32
0.11025645741411211
% es.EZ (V/m) @ t=0.32
0.5659602686734204
% es.tEX (V/m) @ t=0.32
-0.49625511543589473
% es.tEY (V/m) @ t=0.32
0
% es.tEZ (V/m) @ t=0.32
0.5659602686734244
% es.Ex (V/m) @ t=0.32
-0.4962551154358965
% es.Ey (V/m) @ t=0.32
0.11025645741411211
% es.Ez (V/m) @ t=0.32
0.5659602686734204
% es.tEx (V/m) @ t=0.32
-0.49625511543589473
% es.tEy (V/m) @ t=0.32
0
% es.tEz (V/m) @ t=0.32
0.5659602686734244
% V (V) @ t=0.32
0.007437102450340705
% es.normE (V/m) @ t=0.34
0.7759245277483862
% es.EX (V/m) @ t=0.34
-0.5010812413911163
% es.EY (V/m) @ t=0.34
0.11132869852386457
% es.EZ (V/m) @ t=0.34
0.5714643229368557
% es.tEX (V/m) @ t=0.34
-0.5010812413911145
% es.tEY (V/m) @ t=0.34
0
% es.tEZ (V/m) @ t=0.34
0.5714643229368579
% es.Ex (V/m) @ t=0.34
-0.5010812413911163
% es.Ey (V/m) @ t=0.34
0.11132869852386457
% es.Ez (V/m) @ t=0.34
0.5714643229368557
% es.tEx (V/m) @ t=0.34
-0.5010812413911145
% es.tEy (V/m) @ t=0.34
0
% es.tEz (V/m) @ t=0.34
0.5714643229368579
% V (V) @ t=0.34
0.007509434250890125
% es.normE (V/m) @ t=0.36
0.7833978092180867
% es.EX (V/m) @ t=0.36
-0.5059073673463408
% es.EY (V/m) @ t=0.36
0.11240093963361886
% es.EZ (V/m) @ t=0.36
0.5769683772002789
% es.tEX (V/m) @ t=0.36
-0.505907367346339
% es.tEY (V/m) @ t=0.36
0
% es.tEZ (V/m) @ t=0.36
0.5769683772002914
% es.Ex (V/m) @ t=0.36
-0.5059073673463408
% es.Ey (V/m) @ t=0.36
0.11240093963361886
% es.Ez (V/m) @ t=0.36
0.5769683772002789
% es.tEx (V/m) @ t=0.36
-0.505907367346339
% es.tEy (V/m) @ t=0.36
0
% es.tEz (V/m) @ t=0.36
0.5769683772002914
% V (V) @ t=0.36
0.00758176605143955
% es.normE (V/m) @ t=0.38
0.7908710906877909
% es.EX (V/m) @ t=0.38
-0.5107334933015604
% es.EY (V/m) @ t=0.38
0.11347318074337132
% es.EZ (V/m) @ t=0.38
0.5824724314637106
% es.tEX (V/m) @ t=0.38
-0.5107334933015604
% es.tEY (V/m) @ t=0.38
0
% es.tEZ (V/m) @ t=0.38
0.5824724314637182
% es.Ex (V/m) @ t=0.38
-0.5107334933015604
% es.Ey (V/m) @ t=0.38
0.11347318074337132
% es.Ez (V/m) @ t=0.38
0.5824724314637106
% es.tEx (V/m) @ t=0.38
-0.5107334933015604
% es.tEy (V/m) @ t=0.38
0
% es.tEz (V/m) @ t=0.38
0.5824724314637182
% V (V) @ t=0.38
0.007654097851988972
% es.normE (V/m) @ t=0.4
0.7983443721575
% es.EX (V/m) @ t=0.4
-0.5155596192567871
% es.EY (V/m) @ t=0.4
0.11454542185312028
% es.EZ (V/m) @ t=0.4
0.5879764857271406
% es.tEX (V/m) @ t=0.4
-0.5155596192567871
% es.tEY (V/m) @ t=0.4
0
% es.tEZ (V/m) @ t=0.4
0.5879764857271446
% es.Ex (V/m) @ t=0.4
-0.5155596192567871
% es.Ey (V/m) @ t=0.4
0.11454542185312028
% es.Ez (V/m) @ t=0.4
0.5879764857271406
% es.tEx (V/m) @ t=0.4
-0.5155596192567871
% es.tEy (V/m) @ t=0.4
0
% es.tEz (V/m) @ t=0.4
0.5879764857271446
% V (V) @ t=0.4
0.007726429652538393
% es.normE (V/m) @ t=0.42
0.8058176536272061
% es.EX (V/m) @ t=0.42
-0.5203857452120044
% es.EY (V/m) @ t=0.42
0.11561766296287185
% es.EZ (V/m) @ t=0.42
0.5934805399905692
% es.tEX (V/m) @ t=0.42
-0.5203857452120026
% es.tEY (V/m) @ t=0.42
0
% es.tEZ (V/m) @ t=0.42
0.5934805399905749
% es.Ex (V/m) @ t=0.42
-0.5203857452120044
% es.Ey (V/m) @ t=0.42
0.11561766296287185
% es.Ez (V/m) @ t=0.42
0.5934805399905692
% es.tEx (V/m) @ t=0.42
-0.5203857452120026
% es.tEy (V/m) @ t=0.42
0
% es.tEz (V/m) @ t=0.42
0.5934805399905749
% V (V) @ t=0.42
0.007798761453087817
% es.normE (V/m) @ t=0.44
0.81329093509692
% es.EX (V/m) @ t=0.44
-0.5252118711672258
% es.EY (V/m) @ t=0.44
0.11668990407261898
% es.EZ (V/m) @ t=0.44
0.5989845942540044
% es.tEX (V/m) @ t=0.44
-0.525211871167224
% es.tEY (V/m) @ t=0.44
0
% es.tEZ (V/m) @ t=0.44
0.5989845942540084
% es.Ex (V/m) @ t=0.44
-0.5252118711672258
% es.Ey (V/m) @ t=0.44
0.11668990407261898
% es.Ez (V/m) @ t=0.44
0.5989845942540044
% es.tEx (V/m) @ t=0.44
-0.525211871167224
% es.tEy (V/m) @ t=0.44
0
% es.tEz (V/m) @ t=0.44
0.5989845942540084
% V (V) @ t=0.44
0.007871093253637239
% es.normE (V/m) @ t=0.46
0.8207642165666318
% es.EX (V/m) @ t=0.46
-0.5300379971224505
% es.EY (V/m) @ t=0.46
0.11776214518238126
% es.EZ (V/m) @ t=0.46
0.6044886485174272
% es.tEX (V/m) @ t=0.46
-0.5300379971224487
% es.tEY (V/m) @ t=0.46
0
% es.tEZ (V/m) @ t=0.46
0.6044886485174312
% es.Ex (V/m) @ t=0.46
-0.5300379971224505
% es.Ey (V/m) @ t=0.46
0.11776214518238126
% es.Ez (V/m) @ t=0.46
0.6044886485174272
% es.tEx (V/m) @ t=0.46
-0.5300379971224487
% es.tEy (V/m) @ t=0.46
0
% es.tEz (V/m) @ t=0.46
0.6044886485174312
% V (V) @ t=0.46
0.007943425054186659
% es.normE (V/m) @ t=0.48
0.8282374980363467
% es.EX (V/m) @ t=0.48
-0.5348641230776718
% es.EY (V/m) @ t=0.48
0.11883438629212395
% es.EZ (V/m) @ t=0.48
0.6099927027808607
% es.tEX (V/m) @ t=0.48
-0.5348641230776718
% es.tEY (V/m) @ t=0.48
0
% es.tEZ (V/m) @ t=0.48
0.6099927027808647
% es.Ex (V/m) @ t=0.48
-0.5348641230776718
% es.Ey (V/m) @ t=0.48
0.11883438629212395
% es.Ez (V/m) @ t=0.48
0.6099927027808607
% es.tEx (V/m) @ t=0.48
-0.5348641230776718
% es.tEy (V/m) @ t=0.48
0
% es.tEz (V/m) @ t=0.48
0.6099927027808647
% V (V) @ t=0.48
0.008015756854736083
% es.normE (V/m) @ t=0.5
0.835710779506055
% es.EX (V/m) @ t=0.5
-0.5396902490328916
% es.EY (V/m) @ t=0.5
0.11990662740188013
% es.EZ (V/m) @ t=0.5
0.6154967570442791
% es.tEX (V/m) @ t=0.5
-0.5396902490328916
% es.tEY (V/m) @ t=0.5
0
% es.tEZ (V/m) @ t=0.5
0.6154967570442968
% es.Ex (V/m) @ t=0.5
-0.5396902490328916
% es.Ey (V/m) @ t=0.5
0.11990662740188013
% es.Ez (V/m) @ t=0.5
0.6154967570442791
% es.tEx (V/m) @ t=0.5
-0.5396902490328916
% es.tEy (V/m) @ t=0.5
0
% es.tEz (V/m) @ t=0.5
0.6154967570442968
% V (V) @ t=0.5
0.008088088655285505
% es.normE (V/m) @ t=0.52
0.8431840609757848
% es.EX (V/m) @ t=0.52
-0.5445163749881201
% es.EY (V/m) @ t=0.52
0.12097886851162903
% es.EZ (V/m) @ t=0.52
0.6210008113077201
% es.tEX (V/m) @ t=0.52
-0.5445163749881183
% es.tEY (V/m) @ t=0.52
0
% es.tEZ (V/m) @ t=0.52
0.6210008113077201
% es.Ex (V/m) @ t=0.52
-0.5445163749881201
% es.Ey (V/m) @ t=0.52
0.12097886851162903
% es.Ez (V/m) @ t=0.52
0.6210008113077201
% es.tEx (V/m) @ t=0.52
-0.5445163749881183
% es.tEy (V/m) @ t=0.52
0
% es.tEz (V/m) @ t=0.52
0.6210008113077201
% V (V) @ t=0.52
0.008160420455834927
% es.normE (V/m) @ t=0.54
0.8506573424455046
% es.EX (V/m) @ t=0.54
-0.549342500943343
% es.EY (V/m) @ t=0.54
0.12205110962138599
% es.EZ (V/m) @ t=0.54
0.626504865571146
% es.tEX (V/m) @ t=0.54
-0.549342500943343
% es.tEY (V/m) @ t=0.54
0
% es.tEZ (V/m) @ t=0.54
0.626504865571154
% es.Ex (V/m) @ t=0.54
-0.549342500943343
% es.Ey (V/m) @ t=0.54
0.12205110962138599
% es.Ez (V/m) @ t=0.54
0.626504865571146
% es.tEx (V/m) @ t=0.54
-0.549342500943343
% es.tEy (V/m) @ t=0.54
0
% es.tEz (V/m) @ t=0.54
0.626504865571154
% V (V) @ t=0.54
0.008232752256384349
% es.normE (V/m) @ t=0.56
0.8587374276881864
% es.EX (V/m) @ t=0.56
-0.5545604897120977
% es.EY (V/m) @ t=0.56
0.12321040971729708
% es.EZ (V/m) @ t=0.56
0.6324558320487874
% es.tEX (V/m) @ t=0.56
-0.5545604897120975
% es.tEY (V/m) @ t=0.56
0
% es.tEZ (V/m) @ t=0.56
0.6324558320488043
% es.Ex (V/m) @ t=0.56
-0.5545604897120977
% es.Ey (V/m) @ t=0.56
0.12321040971729708
% es.Ez (V/m) @ t=0.56
0.6324558320487874
% es.tEx (V/m) @ t=0.56
-0.5545604897120975
% es.tEy (V/m) @ t=0.56
0
% es.tEz (V/m) @ t=0.56
0.6324558320488043
% V (V) @ t=0.56
0.00831095773467431
% es.normE (V/m) @ t=0.58
0.8670806491321146
% es.EX (V/m) @ t=0.58
-0.5599484070421972
% es.EY (V/m) @ t=0.58
0.12440746233210459
% es.EZ (V/m) @ t=0.58
0.638600598874385
% es.tEX (V/m) @ t=0.58
-0.5599484070421954
% es.tEY (V/m) @ t=0.58
0
% es.tEZ (V/m) @ t=0.58
0.6386005988743886
% es.Ex (V/m) @ t=0.58
-0.5599484070421972
% es.Ey (V/m) @ t=0.58
0.12440746233210459
% es.Ez (V/m) @ t=0.58
0.638600598874385
% es.tEx (V/m) @ t=0.58
-0.5599484070421954
% es.tEy (V/m) @ t=0.58
0
% es.tEz (V/m) @ t=0.58
0.6386005988743886
% V (V) @ t=0.58
0.008391710292130164
% es.normE (V/m) @ t=0.6
0.8754238705760362
% es.EX (V/m) @ t=0.6
-0.5653363243722973
% es.EY (V/m) @ t=0.6
0.1256045149469131
% es.EZ (V/m) @ t=0.6
0.6447453656999684
% es.tEX (V/m) @ t=0.6
-0.5653363243722955
% es.tEY (V/m) @ t=0.6
0
% es.tEZ (V/m) @ t=0.6
0.64474536569998
% es.Ex (V/m) @ t=0.6
-0.5653363243722973
% es.Ey (V/m) @ t=0.6
0.1256045149469131
% es.Ez (V/m) @ t=0.6
0.6447453656999684
% es.tEx (V/m) @ t=0.6
-0.5653363243722955
% es.tEy (V/m) @ t=0.6
0
% es.tEz (V/m) @ t=0.6
0.64474536569998
% V (V) @ t=0.6
0.008472462849586014
% es.normE (V/m) @ t=0.62
0.8837670920199806
% es.EX (V/m) @ t=0.62
-0.5707242417023968
% es.EY (V/m) @ t=0.62
0.12680156756172417
% es.EZ (V/m) @ t=0.62
0.6508901325255803
% es.tEX (V/m) @ t=0.62
-0.5707242417023948
% es.tEY (V/m) @ t=0.62
0
% es.tEZ (V/m) @ t=0.62
0.6508901325255785
% es.Ex (V/m) @ t=0.62
-0.5707242417023968
% es.Ey (V/m) @ t=0.62
0.12680156756172417
% es.Ez (V/m) @ t=0.62
0.6508901325255803
% es.tEx (V/m) @ t=0.62
-0.5707242417023948
% es.tEy (V/m) @ t=0.62
0
% es.tEz (V/m) @ t=0.62
0.6508901325255785
% V (V) @ t=0.62
0.008553215407041865
% es.normE (V/m) @ t=0.64
0.8921103134639099
% es.EX (V/m) @ t=0.64
-0.5761121590324934
% es.EY (V/m) @ t=0.64
0.1279986201765318
% es.EZ (V/m) @ t=0.64
0.657034899351169
% es.tEX (V/m) @ t=0.64
-0.5761121590324949
% es.tEY (V/m) @ t=0.64
0
% es.tEZ (V/m) @ t=0.64
0.6570348993511699
% es.Ex (V/m) @ t=0.64
-0.5761121590324934
% es.Ey (V/m) @ t=0.64
0.1279986201765318
% es.Ez (V/m) @ t=0.64
0.657034899351169
% es.tEx (V/m) @ t=0.64
-0.5761121590324949
% es.tEy (V/m) @ t=0.64
0
% es.tEz (V/m) @ t=0.64
0.6570348993511699
% V (V) @ t=0.64
0.008633967964497717
% es.normE (V/m) @ t=0.66
0.9004535349078553
% es.EX (V/m) @ t=0.66
-0.5815000763626004
% es.EY (V/m) @ t=0.66
0.12919567279133765
% es.EZ (V/m) @ t=0.66
0.6631796661767693
% es.tEX (V/m) @ t=0.66
-0.5815000763625984
% es.tEY (V/m) @ t=0.66
0
% es.tEZ (V/m) @ t=0.66
0.6631796661767684
% es.Ex (V/m) @ t=0.66
-0.5815000763626004
% es.Ey (V/m) @ t=0.66
0.12919567279133765
% es.Ez (V/m) @ t=0.66
0.6631796661767693
% es.tEx (V/m) @ t=0.66
-0.5815000763625984
% es.tEy (V/m) @ t=0.66
0
% es.tEz (V/m) @ t=0.66
0.6631796661767684
% V (V) @ t=0.66
0.00871472052195357
% es.normE (V/m) @ t=0.68
0.9087967563517911
% es.EX (V/m) @ t=0.68
-0.5868879936926965
% es.EY (V/m) @ t=0.68
0.1303927254061505
% es.EZ (V/m) @ t=0.68
0.6693244330023598
% es.tEX (V/m) @ t=0.68
-0.5868879936926943
% es.tEY (V/m) @ t=0.68
0
% es.tEZ (V/m) @ t=0.68
0.6693244330023669
% es.Ex (V/m) @ t=0.68
-0.5868879936926965
% es.Ey (V/m) @ t=0.68
0.1303927254061505
% es.Ez (V/m) @ t=0.68
0.6693244330023598
% es.tEx (V/m) @ t=0.68
-0.5868879936926943
% es.tEy (V/m) @ t=0.68
0
% es.tEz (V/m) @ t=0.68
0.6693244330023669
% V (V) @ t=0.68
0.00879547307940942
% es.normE (V/m) @ t=0.7
0.9171399777957363
% es.EX (V/m) @ t=0.7
-0.5922759110227962
% es.EY (V/m) @ t=0.7
0.13158977802095456
% es.EZ (V/m) @ t=0.7
0.6754691998279574
% es.tEX (V/m) @ t=0.7
-0.5922759110227978
% es.tEY (V/m) @ t=0.7
0
% es.tEZ (V/m) @ t=0.7
0.6754691998279583
% es.Ex (V/m) @ t=0.7
-0.5922759110227962
% es.Ey (V/m) @ t=0.7
0.13158977802095456
% es.Ez (V/m) @ t=0.7
0.6754691998279574
% es.tEx (V/m) @ t=0.7
-0.5922759110227978
% es.tEy (V/m) @ t=0.7
0
% es.tEz (V/m) @ t=0.7
0.6754691998279583
% V (V) @ t=0.7
0.00887622563686527
% es.normE (V/m) @ t=0.72
0.9254831992396839
% es.EX (V/m) @ t=0.72
-0.5976638283528959
% es.EY (V/m) @ t=0.72
0.13278683063576385
% es.EZ (V/m) @ t=0.72
0.6816139666535568
% es.tEX (V/m) @ t=0.72
-0.5976638283528974
% es.tEY (V/m) @ t=0.72
0
% es.tEZ (V/m) @ t=0.72
0.6816139666535532
% es.Ex (V/m) @ t=0.72
-0.5976638283528959
% es.Ey (V/m) @ t=0.72
0.13278683063576385
% es.Ez (V/m) @ t=0.72
0.6816139666535568
% es.tEx (V/m) @ t=0.72
-0.5976638283528974
% es.tEy (V/m) @ t=0.72
0
% es.tEz (V/m) @ t=0.72
0.6816139666535532
% V (V) @ t=0.72
0.008956978194321123
% es.normE (V/m) @ t=0.74
0.9338264206836311
% es.EX (V/m) @ t=0.74
-0.6030517456829958
% es.EY (V/m) @ t=0.74
0.1339838832505742
% es.EZ (V/m) @ t=0.74
0.6877587334791473
% es.tEX (V/m) @ t=0.74
-0.6030517456829938
% es.tEY (V/m) @ t=0.74
0
% es.tEZ (V/m) @ t=0.74
0.6877587334791517
% es.Ex (V/m) @ t=0.74
-0.6030517456829958
% es.Ey (V/m) @ t=0.74
0.1339838832505742
% es.Ez (V/m) @ t=0.74
0.6877587334791473
% es.tEx (V/m) @ t=0.74
-0.6030517456829938
% es.tEy (V/m) @ t=0.74
0
% es.tEz (V/m) @ t=0.74
0.6877587334791517
% V (V) @ t=0.74
0.009037730751776975
% es.normE (V/m) @ t=0.76
0.9421696421275803
% es.EX (V/m) @ t=0.76
-0.6084396630130955
% es.EY (V/m) @ t=0.76
0.13518093586538527
% es.EZ (V/m) @ t=0.76
0.6939035003047396
% es.tEX (V/m) @ t=0.76
-0.6084396630130933
% es.tEY (V/m) @ t=0.76
0
% es.tEZ (V/m) @ t=0.76
0.693903500304736
% es.Ex (V/m) @ t=0.76
-0.6084396630130955
% es.Ey (V/m) @ t=0.76
0.13518093586538527
% es.Ez (V/m) @ t=0.76
0.6939035003047396
% es.tEx (V/m) @ t=0.76
-0.6084396630130933
% es.tEy (V/m) @ t=0.76
0
% es.tEz (V/m) @ t=0.76
0.693903500304736
% V (V) @ t=0.76
0.009118483309232825
% es.normE (V/m) @ t=0.78
0.9505128635715279
% es.EX (V/m) @ t=0.78
-0.613827580343195
% es.EY (V/m) @ t=0.78
0.13637798848018756
% es.EZ (V/m) @ t=0.78
0.7000482671303301
% es.tEX (V/m) @ t=0.78
-0.6138275803431927
% es.tEY (V/m) @ t=0.78
0
% es.tEZ (V/m) @ t=0.78
0.7000482671303345
% es.Ex (V/m) @ t=0.78
-0.613827580343195
% es.Ey (V/m) @ t=0.78
0.13637798848018756
% es.Ez (V/m) @ t=0.78
0.7000482671303301
% es.tEx (V/m) @ t=0.78
-0.6138275803431927
% es.tEy (V/m) @ t=0.78
0
% es.tEz (V/m) @ t=0.78
0.7000482671303345
% V (V) @ t=0.78
0.009199235866688676
% es.normE (V/m) @ t=0.8
0.9588560850154869
% es.EX (V/m) @ t=0.8
-0.6192154976732949
% es.EY (V/m) @ t=0.8
0.1375750410950004
% es.EZ (V/m) @ t=0.8
0.7061930339559295
% es.tEX (V/m) @ t=0.8
-0.6192154976732964
% es.tEY (V/m) @ t=0.8
0
% es.tEZ (V/m) @ t=0.8
0.7061930339559339
% es.Ex (V/m) @ t=0.8
-0.6192154976732949
% es.Ey (V/m) @ t=0.8
0.1375750410950004
% es.Ez (V/m) @ t=0.8
0.7061930339559295
% es.tEx (V/m) @ t=0.8
-0.6192154976732964
% es.tEy (V/m) @ t=0.8
0
% es.tEz (V/m) @ t=0.8
0.7061930339559339
% V (V) @ t=0.8
0.009279988424144528
% es.normE (V/m) @ t=0.82
0.9672499757054276
% es.EX (V/m) @ t=0.82
-0.6246361368935094
% es.EY (V/m) @ t=0.82
0.13877936414159453
% es.EZ (V/m) @ t=0.82
0.7123751178183815
% es.tEX (V/m) @ t=0.82
-0.6246361368935072
% es.tEY (V/m) @ t=0.82
0
% es.tEZ (V/m) @ t=0.82
0.7123751178183886
% es.Ex (V/m) @ t=0.82
-0.6246361368935094
% es.Ey (V/m) @ t=0.82
0.13877936414159453
% es.Ez (V/m) @ t=0.82
0.7123751178183815
% es.tEx (V/m) @ t=0.82
-0.6246361368935072
% es.tEy (V/m) @ t=0.82
0
% es.tEz (V/m) @ t=0.82
0.7123751178183886
% V (V) @ t=0.82
0.009361231224439246
% es.normE (V/m) @ t=0.84
0.9765812293035933
% es.EX (V/m) @ t=0.84
-0.6306621193646109
% es.EY (V/m) @ t=0.84
0.14011818757301842
% es.EZ (V/m) @ t=0.84
0.7192475535010274
% es.tEX (V/m) @ t=0.84
-0.6306621193646054
% es.tEY (V/m) @ t=0.84
0
% es.tEZ (V/m) @ t=0.84
0.7192475535010354
% es.Ex (V/m) @ t=0.84
-0.6306621193646109
% es.Ey (V/m) @ t=0.84
0.14011818757301842
% es.Ez (V/m) @ t=0.84
0.7192475535010274
% es.tEx (V/m) @ t=0.84
-0.6306621193646054
% es.tEy (V/m) @ t=0.84
0
% es.tEz (V/m) @ t=0.84
0.7192475535010354
% V (V) @ t=0.84
0.009451543341718074
% es.normE (V/m) @ t=0.86
0.9859124829017635
% es.EX (V/m) @ t=0.86
-0.6366881018357016
% es.EY (V/m) @ t=0.86
0.1414570110044422
% es.EZ (V/m) @ t=0.86
0.7261199891836885
% es.tEX (V/m) @ t=0.86
-0.6366881018357031
% es.tEY (V/m) @ t=0.86
0
% es.tEZ (V/m) @ t=0.86
0.7261199891836894
% es.Ex (V/m) @ t=0.86
-0.6366881018357016
% es.Ey (V/m) @ t=0.86
0.1414570110044422
% es.Ez (V/m) @ t=0.86
0.7261199891836885
% es.tEx (V/m) @ t=0.86
-0.6366881018357031
% es.tEy (V/m) @ t=0.86
0
% es.tEz (V/m) @ t=0.86
0.7261199891836894
% V (V) @ t=0.86
0.009541855458996901
% es.normE (V/m) @ t=0.88
0.9952437364999323
% es.EX (V/m) @ t=0.88
-0.6427140843067962
% es.EY (V/m) @ t=0.88
0.14279583443587485
% es.EZ (V/m) @ t=0.88
0.732992424866338
% es.tEX (V/m) @ t=0.88
-0.642714084306794
% es.tEY (V/m) @ t=0.88
0
% es.tEZ (V/m) @ t=0.88
0.7329924248663495
% es.Ex (V/m) @ t=0.88
-0.6427140843067962
% es.Ey (V/m) @ t=0.88
0.14279583443587485
% es.Ez (V/m) @ t=0.88
0.732992424866338
% es.tEx (V/m) @ t=0.88
-0.642714084306794
% es.tEy (V/m) @ t=0.88
0
% es.tEz (V/m) @ t=0.88
0.7329924248663495
% V (V) @ t=0.88
0.00963216757627573
% es.normE (V/m) @ t=0.9
1.0045749900981016
% es.EX (V/m) @ t=0.9
-0.6487400667778906
% es.EY (V/m) @ t=0.9
0.1441346578672934
% es.EZ (V/m) @ t=0.9
0.7398648605489955
% es.tEX (V/m) @ t=0.9
-0.648740066777892
% es.tEY (V/m) @ t=0.9
0
% es.tEZ (V/m) @ t=0.9
0.7398648605489955
% es.Ex (V/m) @ t=0.9
-0.6487400667778906
% es.Ey (V/m) @ t=0.9
0.1441346578672934
% es.Ez (V/m) @ t=0.9
0.7398648605489955
% es.tEx (V/m) @ t=0.9
-0.648740066777892
% es.tEy (V/m) @ t=0.9
0
% es.tEz (V/m) @ t=0.9
0.7398648605489955
% V (V) @ t=0.9
0.009722479693554558
% es.normE (V/m) @ t=0.92
1.013906243696281
% es.EX (V/m) @ t=0.92
-0.654766049248992
% es.EY (V/m) @ t=0.92
0.14547348129871362
% es.EZ (V/m) @ t=0.92
0.7467372962316565
% es.tEX (V/m) @ t=0.92
-0.6547660492489897
% es.tEY (V/m) @ t=0.92
0
% es.tEZ (V/m) @ t=0.92
0.7467372962316574
% es.Ex (V/m) @ t=0.92
-0.654766049248992
% es.Ey (V/m) @ t=0.92
0.14547348129871362
% es.Ez (V/m) @ t=0.92
0.7467372962316565
% es.tEx (V/m) @ t=0.92
-0.6547660492489897
% es.tEy (V/m) @ t=0.92
0
% es.tEz (V/m) @ t=0.92
0.7467372962316574
% V (V) @ t=0.92
0.009812791810833386
% es.normE (V/m) @ t=0.94
1.0232374972944542
% es.EX (V/m) @ t=0.94
-0.6607920317200864
% es.EY (V/m) @ t=0.94
0.14681230473014095
% es.EZ (V/m) @ t=0.94
0.7536097319143167
% es.tEX (V/m) @ t=0.94
-0.6607920317200877
% es.tEY (V/m) @ t=0.94
0
% es.tEZ (V/m) @ t=0.94
0.7536097319143176
% es.Ex (V/m) @ t=0.94
-0.6607920317200864
% es.Ey (V/m) @ t=0.94
0.14681230473014095
% es.Ez (V/m) @ t=0.94
0.7536097319143167
% es.tEx (V/m) @ t=0.94
-0.6607920317200877
% es.tEy (V/m) @ t=0.94
0
% es.tEz (V/m) @ t=0.94
0.7536097319143176
% V (V) @ t=0.94
0.009903103928112215
% es.normE (V/m) @ t=0.96
1.0325687508926151
% es.EX (V/m) @ t=0.96
-0.6668180141911848
% es.EY (V/m) @ t=0.96
0.14815112816157372
% es.EZ (V/m) @ t=0.96
0.760482167596952
% es.tEX (V/m) @ t=0.96
-0.6668180141911859
% es.tEY (V/m) @ t=0.96
0
% es.tEZ (V/m) @ t=0.96
0.7604821675969706
% es.Ex (V/m) @ t=0.96
-0.6668180141911848
% es.Ey (V/m) @ t=0.96
0.14815112816157372
% es.Ez (V/m) @ t=0.96
0.760482167596952
% es.tEx (V/m) @ t=0.96
-0.6668180141911859
% es.tEy (V/m) @ t=0.96
0
% es.tEz (V/m) @ t=0.96
0.7604821675969706
% V (V) @ t=0.96
0.009993416045391041
% es.normE (V/m) @ t=0.98
1.0419000044907931
% es.EX (V/m) @ t=0.98
-0.672843996662283
% es.EY (V/m) @ t=0.98
0.14948995159299672
% es.EZ (V/m) @ t=0.98
0.767354603279613
% es.tEX (V/m) @ t=0.98
-0.6728439966622806
% es.tEY (V/m) @ t=0.98
0
% es.tEZ (V/m) @ t=0.98
0.7673546032796237
% es.Ex (V/m) @ t=0.98
-0.672843996662283
% es.Ey (V/m) @ t=0.98
0.14948995159299672
% es.Ez (V/m) @ t=0.98
0.767354603279613
% es.tEx (V/m) @ t=0.98
-0.6728439966622806
% es.tEy (V/m) @ t=0.98
0
% es.tEz (V/m) @ t=0.98
0.7673546032796237
% V (V) @ t=0.98
0.01008372816266987
% es.normE (V/m) @ t=1
1.0512312580889636
% es.EX (V/m) @ t=1
-0.6788699791333703
% es.EY (V/m) @ t=1
0.15082877502441783
% es.EZ (V/m) @ t=1
0.7742270389622732
% es.tEX (V/m) @ t=1
-0.6788699791333714
% es.tEY (V/m) @ t=1
0
% es.tEZ (V/m) @ t=1
0.7742270389622776
% es.Ex (V/m) @ t=1
-0.6788699791333703
% es.Ey (V/m) @ t=1
0.15082877502441783
% es.Ez (V/m) @ t=1
0.7742270389622732
% es.tEx (V/m) @ t=1
-0.6788699791333714
% es.tEy (V/m) @ t=1
0
% es.tEz (V/m) @ t=1
0.7742270389622776
% V (V) @ t=1
0.010174040279948698
% es.normE (V/m) @ t=1.02
1.0605625116871378
% es.EX (V/m) @ t=1.02
-0.6848959616044714
% es.EY (V/m) @ t=1.02
0.15216759845585492
% es.EZ (V/m) @ t=1.02
0.78109947464492
% es.tEX (V/m) @ t=1.02
-0.6848959616044692
% es.tEY (V/m) @ t=1.02
0
% es.tEZ (V/m) @ t=1.02
0.7810994746449245
% es.Ex (V/m) @ t=1.02
-0.6848959616044714
% es.Ey (V/m) @ t=1.02
0.15216759845585492
% es.Ez (V/m) @ t=1.02
0.78109947464492
% es.tEx (V/m) @ t=1.02
-0.6848959616044692
% es.tEy (V/m) @ t=1.02
0
% es.tEz (V/m) @ t=1.02
0.7810994746449245
% V (V) @ t=1.02
0.010264352397227528
% es.normE (V/m) @ t=1.04
1.069893765285309
% es.EX (V/m) @ t=1.04
-0.6909219440755658
% es.EY (V/m) @ t=1.04
0.15350642188727792
% es.EZ (V/m) @ t=1.04
0.7879719103275766