% Model:              1 neuron.mph
% Version:            COMSOL 6.0.0.405
% Date:               Mar 9 2023, 13:20
% Dimension:          0
% Nodes:              14017
% Expressions:        14017
% Description:        Electric field norm, Electric field, X component, Electric field, Y component, Electric field, Z component, Tangential electric field, X component, Tangential electric field, Y component, Tangential electric field, Z component, Electric field, x component, Electric field, y component, Electric field, z component, Tangential electric field, x component, Tangential electric field, y component, Tangential electric field, z component, Electric potential
% Length unit:        mm
% x
1.0000000000000002
% y
12.2
% z
2
% es.normE (V/m) @ t=0
0.709872101711446
% es.EX (V/m) @ t=0
0.49308370245916777
% es.EY (V/m) @ t=0
0.073833104989387
% es.EZ (V/m) @ t=0
-0.49236242499462635
% es.tEX (V/m) @ t=0
0.4930837024591683
% es.tEY (V/m) @ t=0
0
% es.tEZ (V/m) @ t=0
-0.49236242499461724
% es.Ex (V/m) @ t=0
0.49308370245916777
% es.Ey (V/m) @ t=0
0.073833104989387
% es.Ez (V/m) @ t=0
-0.49236242499462635
% es.tEx (V/m) @ t=0
0.4930837024591683
% es.tEy (V/m) @ t=0
0
% es.tEz (V/m) @ t=0
-0.49236242499461724
% V (V) @ t=0
0.00760181289686511
% es.normE (V/m) @ t=0.02
0.613129887580367
% es.EX (V/m) @ t=0.02
0.4258856691150713
% es.EY (V/m) @ t=0.02
0.06377104189141297
% es.EZ (V/m) @ t=0.02
-0.42526268822204094
% es.tEX (V/m) @ t=0.02
0.42588566911507053
% es.tEY (V/m) @ t=0.02
0
% es.tEZ (V/m) @ t=0.02
-0.42526268822203184
% es.Ex (V/m) @ t=0.02
0.4258856691150713
% es.Ey (V/m) @ t=0.02
0.06377104189141297
% es.Ez (V/m) @ t=0.02
-0.42526268822204094
% es.tEx (V/m) @ t=0.02
0.42588566911507053
% es.tEy (V/m) @ t=0.02
0
% es.tEz (V/m) @ t=0.02
-0.42526268822203184
% V (V) @ t=0.02
0.006565828784001954
% es.normE (V/m) @ t=0.04
0.6187688130560351
% es.EX (V/m) @ t=0.04
0.4298025183609673
% es.EY (V/m) @ t=0.04
0.06435754285300146
% es.EZ (V/m) @ t=0.04
-0.4291738080981051
% es.tEX (V/m) @ t=0.04
0.4298025183609697
% es.tEY (V/m) @ t=0.04
0
% es.tEZ (V/m) @ t=0.04
-0.429173808098096
% es.Ex (V/m) @ t=0.04
0.4298025183609673
% es.Ey (V/m) @ t=0.04
0.06435754285300146
% es.Ez (V/m) @ t=0.04
-0.4291738080981051
% es.tEx (V/m) @ t=0.04
0.4298025183609697
% es.tEy (V/m) @ t=0.04
0
% es.tEz (V/m) @ t=0.04
-0.429173808098096
% V (V) @ t=0.04
0.006626214300184193
% es.normE (V/m) @ t=0.06
0.6244613544388963
% es.EX (V/m) @ t=0.06
0.4337566088131892
% es.EY (V/m) @ t=0.06
0.06494962499557119
% es.EZ (V/m) @ t=0.06
-0.43312211513746646
% es.tEX (V/m) @ t=0.06
0.4337566088131952
% es.tEY (V/m) @ t=0.06
0
% es.tEZ (V/m) @ t=0.06
-0.4331221151374609
% es.Ex (V/m) @ t=0.06
0.4337566088131892
% es.Ey (V/m) @ t=0.06
0.06494962499557119
% es.Ez (V/m) @ t=0.06
-0.43312211513746646
% es.tEx (V/m) @ t=0.06
0.4337566088131952
% es.tEy (V/m) @ t=0.06
0
% es.tEz (V/m) @ t=0.06
-0.4331221151374609
% V (V) @ t=0.06
0.006687173744964637
% es.normE (V/m) @ t=0.08
0.6302341768621709
% es.EX (V/m) @ t=0.08
0.4377664640632397
% es.EY (V/m) @ t=0.08
0.06555005266784503
% es.EZ (V/m) @ t=0.08
-0.4371261049992652
% es.tEX (V/m) @ t=0.08
0.43776646406324016
% es.tEY (V/m) @ t=0.08
0
% es.tEZ (V/m) @ t=0.08
-0.43712610499925786
% es.Ex (V/m) @ t=0.08
0.4377664640632397
% es.Ey (V/m) @ t=0.08
0.06555005266784503
% es.Ez (V/m) @ t=0.08
-0.4371261049992652
% es.tEx (V/m) @ t=0.08
0.43776646406324016
% es.tEy (V/m) @ t=0.08
0
% es.tEz (V/m) @ t=0.08
-0.43712610499925786
% V (V) @ t=0.08
0.00674899311431529
% es.normE (V/m) @ t=0.1
0.6360764474223732
% es.EX (V/m) @ t=0.1
0.4418245593621807
% es.EY (V/m) @ t=0.1
0.06615769974693453
% es.EZ (V/m) @ t=0.1
-0.44117826399612325
% es.tEX (V/m) @ t=0.1
0.44182455936218035
% es.tEY (V/m) @ t=0.1
0
% es.tEZ (V/m) @ t=0.1
-0.44117826399611415
% es.Ex (V/m) @ t=0.1
0.4418245593621807
% es.Ey (V/m) @ t=0.1
0.06615769974693453
% es.Ez (V/m) @ t=0.1
-0.44117826399612325
% es.tEx (V/m) @ t=0.1
0.44182455936218035
% es.tEy (V/m) @ t=0.1
0
% es.tEz (V/m) @ t=0.1
-0.44117826399611415
% V (V) @ t=0.1
0.00681155637237236
% es.normE (V/m) @ t=0.12
0.641918717982574
% es.EX (V/m) @ t=0.12
0.445882654661122
% es.EY (V/m) @ t=0.12
0.06676534682602953
% es.EZ (V/m) @ t=0.12
-0.44523042299297644
% es.tEX (V/m) @ t=0.12
0.4458826546611241
% es.tEY (V/m) @ t=0.12
0
% es.tEZ (V/m) @ t=0.12
-0.4452304229929709
% es.Ex (V/m) @ t=0.12
0.445882654661122
% es.Ey (V/m) @ t=0.12
0.06676534682602953
% es.Ez (V/m) @ t=0.12
-0.44523042299297644
% es.tEx (V/m) @ t=0.12
0.4458826546611241
% es.tEy (V/m) @ t=0.12
0
% es.tEz (V/m) @ t=0.12
-0.4452304229929709
% V (V) @ t=0.12
0.006874119630429431
% es.normE (V/m) @ t=0.14
0.6477871268423137
% es.EX (V/m) @ t=0.14
0.4499589058247889
% es.EY (V/m) @ t=0.14
0.06737571271479983
% es.EZ (V/m) @ t=0.14
-0.4493007113206111
% es.tEX (V/m) @ t=0.14
0.4499589058247915
% es.tEY (V/m) @ t=0.14
0
% es.tEZ (V/m) @ t=0.14
-0.449300711320602
% es.Ex (V/m) @ t=0.14
0.4499589058247889
% es.Ey (V/m) @ t=0.14
0.06737571271479983
% es.Ez (V/m) @ t=0.14
-0.4493007113206111
% es.tEx (V/m) @ t=0.14
0.4499589058247915
% es.tEy (V/m) @ t=0.14
0
% es.tEz (V/m) @ t=0.14
-0.449300711320602
% V (V) @ t=0.14
0.006936962785951836
% es.normE (V/m) @ t=0.16
0.6539463471967415
% es.EX (V/m) @ t=0.16
0.45423715689862254
% es.EY (V/m) @ t=0.16
0.06801632774459657
% es.EZ (V/m) @ t=0.16
-0.45357270434498376
% es.tEX (V/m) @ t=0.16
0.454237156898625
% es.tEY (V/m) @ t=0.16
0
% es.tEZ (V/m) @ t=0.16
-0.4535727043449782
% es.Ex (V/m) @ t=0.16
0.45423715689862254
% es.Ey (V/m) @ t=0.16
0.06801632774459657
% es.Ez (V/m) @ t=0.16
-0.45357270434498376
% es.tEx (V/m) @ t=0.16
0.454237156898625
% es.tEy (V/m) @ t=0.16
0
% es.tEz (V/m) @ t=0.16
-0.4535727043449782
% V (V) @ t=0.16
0.007002920046128908
% es.normE (V/m) @ t=0.18
0.6601055675511702
% es.EX (V/m) @ t=0.18
0.4585154079724557
% es.EY (V/m) @ t=0.18
0.06865694277438422
% es.EZ (V/m) @ t=0.18
-0.4578446973693604
% es.tEX (V/m) @ t=0.18
0.4585154079724574
% es.tEY (V/m) @ t=0.18
0
% es.tEZ (V/m) @ t=0.18
-0.45784469736935485
% es.Ex (V/m) @ t=0.18
0.4585154079724557
% es.Ey (V/m) @ t=0.18
0.06865694277438422
% es.Ez (V/m) @ t=0.18
-0.4578446973693604
% es.tEx (V/m) @ t=0.18
0.4585154079724574
% es.tEy (V/m) @ t=0.18
0
% es.tEz (V/m) @ t=0.18
-0.45784469736935485
% V (V) @ t=0.18
0.007068877306305983
% es.normE (V/m) @ t=0.2
0.6662647879055952
% es.EX (V/m) @ t=0.2
0.46279365904627967
% es.EY (V/m) @ t=0.2
0.06929755780417562
% es.EZ (V/m) @ t=0.2
-0.4621166903937388
% es.tEX (V/m) @ t=0.2
0.462793659046282
% es.tEY (V/m) @ t=0.2
0
% es.tEZ (V/m) @ t=0.2
-0.4621166903937315
% es.Ex (V/m) @ t=0.2
0.46279365904627967
% es.Ey (V/m) @ t=0.2
0.06929755780417562
% es.Ez (V/m) @ t=0.2
-0.4621166903937388
% es.tEx (V/m) @ t=0.2
0.462793659046282
% es.tEy (V/m) @ t=0.2
0
% es.tEz (V/m) @ t=0.2
-0.4621166903937315
% V (V) @ t=0.2
0.007134834566483056
% es.normE (V/m) @ t=0.22
0.6724240082600252
% es.EX (V/m) @ t=0.22
0.4670719101201156
% es.EY (V/m) @ t=0.22
0.0699381728339678
% es.EZ (V/m) @ t=0.22
-0.46638868341811146
% es.tEX (V/m) @ t=0.22
0.46707191012011795
% es.tEY (V/m) @ t=0.22
0
% es.tEZ (V/m) @ t=0.22
-0.4663886834181077
% es.Ex (V/m) @ t=0.22
0.4670719101201156
% es.Ey (V/m) @ t=0.22
0.0699381728339678
% es.Ez (V/m) @ t=0.22
-0.46638868341811146
% es.tEx (V/m) @ t=0.22
0.46707191012011795
% es.tEy (V/m) @ t=0.22
0
% es.tEz (V/m) @ t=0.22
-0.4663886834181077
% V (V) @ t=0.22
0.007200791826660129
% es.normE (V/m) @ t=0.24
0.678583228614457
% es.EX (V/m) @ t=0.24
0.4713501611939458
% es.EY (V/m) @ t=0.24
0.07057878786375135
% es.EZ (V/m) @ t=0.24
-0.4706606764424939
% es.tEX (V/m) @ t=0.24
0.4713501611939481
% es.tEY (V/m) @ t=0.24
0
% es.tEZ (V/m) @ t=0.24
-0.47066067644248477
% es.Ex (V/m) @ t=0.24
0.4713501611939458
% es.Ey (V/m) @ t=0.24
0.07057878786375135
% es.Ez (V/m) @ t=0.24
-0.4706606764424939
% es.tEx (V/m) @ t=0.24
0.4713501611939481
% es.tEy (V/m) @ t=0.24
0
% es.tEz (V/m) @ t=0.24
-0.47066067644248477
% V (V) @ t=0.24
0.007266749086837203
% es.normE (V/m) @ t=0.26
0.6847424489688818
% es.EX (V/m) @ t=0.26
0.47562841226777597
% es.EY (V/m) @ t=0.26
0.07121940289354989
% es.EZ (V/m) @ t=0.26
-0.4749326694668665
% es.tEX (V/m) @ t=0.26
0.4756284122677765
% es.tEY (V/m) @ t=0.26
0
% es.tEZ (V/m) @ t=0.26
-0.4749326694668574
% es.Ex (V/m) @ t=0.26
0.47562841226777597
% es.Ey (V/m) @ t=0.26
0.07121940289354989
% es.Ez (V/m) @ t=0.26
-0.4749326694668665
% es.tEx (V/m) @ t=0.26
0.4756284122677765
% es.tEy (V/m) @ t=0.26
0
% es.tEz (V/m) @ t=0.26
-0.4749326694668574
% V (V) @ t=0.26
0.007332706347014275
% es.normE (V/m) @ t=0.28
0.6910267949869672
% es.EX (V/m) @ t=0.28
0.4799935832829708
% es.EY (V/m) @ t=0.28
0.07187300305504574
% es.EZ (V/m) @ t=0.28
-0.47929145051936417
% es.tEX (V/m) @ t=0.28
0.47999358328297315
% es.tEY (V/m) @ t=0.28
0
% es.tEZ (V/m) @ t=0.28
-0.4792914505193586
% es.Ex (V/m) @ t=0.28
0.4799935832829708
% es.Ey (V/m) @ t=0.28
0.07187300305504574
% es.Ez (V/m) @ t=0.28
-0.47929145051936417
% es.tEx (V/m) @ t=0.28
0.47999358328297315
% es.tEy (V/m) @ t=0.28
0
% es.tEz (V/m) @ t=0.28
-0.4792914505193586
% V (V) @ t=0.28
0.0074000050688120345
% es.normE (V/m) @ t=0.3
0.6979007952610221
% es.EX (V/m) @ t=0.3
0.4847683642203017
% es.EY (V/m) @ t=0.3
0.07258779560468101
% es.EZ (V/m) @ t=0.3
-0.4840592198533693
% es.tEX (V/m) @ t=0.3
0.484768364220302
% es.tEY (V/m) @ t=0.3
0
% es.tEZ (V/m) @ t=0.3
-0.48405921985336375
% es.Ex (V/m) @ t=0.3
0.4847683642203017
% es.Ey (V/m) @ t=0.3
0.07258779560468101
% es.Ez (V/m) @ t=0.3
-0.4840592198533693
% es.tEx (V/m) @ t=0.3
0.484768364220302
% es.tEy (V/m) @ t=0.3
0
% es.tEz (V/m) @ t=0.3
-0.48405921985336375
% V (V) @ t=0.3
0.0074736254238441015
% es.normE (V/m) @ t=0.32
0.7047747955351265
% es.EX (V/m) @ t=0.32
0.48954314515763253
% es.EY (V/m) @ t=0.32
0.07330258815431395
% es.EZ (V/m) @ t=0.32
-0.48882698918737044
% es.tEX (V/m) @ t=0.32
0.48954314515763264
% es.tEY (V/m) @ t=0.32
0
% es.tEZ (V/m) @ t=0.32
-0.4888269891873649
% es.Ex (V/m) @ t=0.32
0.48954314515763253
% es.Ey (V/m) @ t=0.32
0.07330258815431395
% es.Ez (V/m) @ t=0.32
-0.48882698918737044
% es.tEx (V/m) @ t=0.32
0.48954314515763264
% es.tEy (V/m) @ t=0.32
0
% es.tEz (V/m) @ t=0.32
-0.4888269891873649
% V (V) @ t=0.32
0.007547245778876167
% es.normE (V/m) @ t=0.34
0.7116487958092834
% es.EX (V/m) @ t=0.34
0.4943179260949665
% es.EY (V/m) @ t=0.34
0.07401738070395508
% es.EZ (V/m) @ t=0.34
-0.4935947585213716
% es.tEX (V/m) @ t=0.34
0.4943179260949706
% es.tEY (V/m) @ t=0.34
0
% es.tEZ (V/m) @ t=0.34
-0.4935947585213625
% es.Ex (V/m) @ t=0.34
0.4943179260949665
% es.Ey (V/m) @ t=0.34
0.07401738070395508
% es.Ez (V/m) @ t=0.34
-0.4935947585213716
% es.tEx (V/m) @ t=0.34
0.4943179260949706
% es.tEy (V/m) @ t=0.34
0
% es.tEz (V/m) @ t=0.34
-0.4935947585213625
% V (V) @ t=0.34
0.007620866133908236
% es.normE (V/m) @ t=0.36
0.7185227960834886
% es.EX (V/m) @ t=0.36
0.49909270703230735
% es.EY (V/m) @ t=0.36
0.0747321732535858
% es.EZ (V/m) @ t=0.36
-0.49836252785536606
% es.tEX (V/m) @ t=0.36
0.49909270703230657
% es.tEY (V/m) @ t=0.36
0
% es.tEZ (V/m) @ t=0.36
-0.4983625278553605
% es.Ex (V/m) @ t=0.36
0.49909270703230735
% es.Ey (V/m) @ t=0.36
0.0747321732535858
% es.Ez (V/m) @ t=0.36
-0.49836252785536606
% es.tEx (V/m) @ t=0.36
0.49909270703230657
% es.tEy (V/m) @ t=0.36
0
% es.tEz (V/m) @ t=0.36
-0.4983625278553605
% V (V) @ t=0.36
0.0076944864889403036
% es.normE (V/m) @ t=0.38
0.7253967963577397
% es.EX (V/m) @ t=0.38
0.5038674879696364
% es.EY (V/m) @ t=0.38
0.07544696580321797
% es.EZ (V/m) @ t=0.38
-0.5031302971893707
% es.tEX (V/m) @ t=0.38
0.5038674879696374
% es.tEY (V/m) @ t=0.38
0
% es.tEZ (V/m) @ t=0.38
-0.5031302971893616
% es.Ex (V/m) @ t=0.38
0.5038674879696364
% es.Ey (V/m) @ t=0.38
0.07544696580321797
% es.Ez (V/m) @ t=0.38
-0.5031302971893707
% es.tEx (V/m) @ t=0.38
0.5038674879696374
% es.tEy (V/m) @ t=0.38
0
% es.tEz (V/m) @ t=0.38
-0.5031302971893616
% V (V) @ t=0.38
0.007768106843972369
% es.normE (V/m) @ t=0.4
0.7322707966320463
% es.EX (V/m) @ t=0.4
0.5086422689069744
% es.EY (V/m) @ t=0.4
0.07616175835285624
% es.EZ (V/m) @ t=0.4
-0.5078980665233812
% es.tEX (V/m) @ t=0.4
0.5086422689069772
% es.tEY (V/m) @ t=0.4
0
% es.tEZ (V/m) @ t=0.4
-0.5078980665233739
% es.Ex (V/m) @ t=0.4
0.5086422689069744
% es.Ey (V/m) @ t=0.4
0.07616175835285624
% es.Ez (V/m) @ t=0.4
-0.5078980665233812
% es.tEx (V/m) @ t=0.4
0.5086422689069772
% es.tEy (V/m) @ t=0.4
0
% es.tEz (V/m) @ t=0.4
-0.5078980665233739
% V (V) @ t=0.4
0.007841727199004436
% es.normE (V/m) @ t=0.42
0.7391447969063897
% es.EX (V/m) @ t=0.42
0.513417049844313
% es.EY (V/m) @ t=0.42
0.07687655090249648
% es.EZ (V/m) @ t=0.42
-0.5126658358573748
% es.tEX (V/m) @ t=0.42
0.5134170498443158
% es.tEY (V/m) @ t=0.42
0
% es.tEZ (V/m) @ t=0.42
-0.5126658358573639
% es.Ex (V/m) @ t=0.42
0.513417049844313
% es.Ey (V/m) @ t=0.42
0.07687655090249648
% es.Ez (V/m) @ t=0.42
-0.5126658358573748
% es.tEx (V/m) @ t=0.42
0.5134170498443158
% es.tEy (V/m) @ t=0.42
0
% es.tEz (V/m) @ t=0.42
-0.5126658358573639
% V (V) @ t=0.42
0.007915347554036502
% es.normE (V/m) @ t=0.44
0.7460187971807739
% es.EX (V/m) @ t=0.44
0.5181918307816471
% es.EY (V/m) @ t=0.44
0.07759134345212546
% es.EZ (V/m) @ t=0.44
-0.5174336051913728
% es.tEX (V/m) @ t=0.44
0.51819183078165
% es.tEY (V/m) @ t=0.44
0
% es.tEZ (V/m) @ t=0.44
-0.517433605191362
% es.Ex (V/m) @ t=0.44
0.5181918307816471
% es.Ey (V/m) @ t=0.44
0.07759134345212546
% es.Ez (V/m) @ t=0.44
-0.5174336051913728
% es.tEx (V/m) @ t=0.44
0.51819183078165
% es.tEy (V/m) @ t=0.44
0
% es.tEz (V/m) @ t=0.44
-0.517433605191362
% V (V) @ t=0.44
0.00798896790906857
% es.normE (V/m) @ t=0.46
0.7528927974552088
% es.EX (V/m) @ t=0.46
0.5229666117189801
% es.EY (V/m) @ t=0.46
0.07830613600176123
% es.EZ (V/m) @ t=0.46
-0.5222013745253842
% es.tEX (V/m) @ t=0.46
0.5229666117189808
% es.tEY (V/m) @ t=0.46
0
% es.tEZ (V/m) @ t=0.46
-0.5222013745253733
% es.Ex (V/m) @ t=0.46
0.5229666117189801
% es.Ey (V/m) @ t=0.46
0.07830613600176123
% es.Ez (V/m) @ t=0.46
-0.5222013745253842
% es.tEx (V/m) @ t=0.46
0.5229666117189808
% es.tEy (V/m) @ t=0.46
0
% es.tEz (V/m) @ t=0.46
-0.5222013745253733
% V (V) @ t=0.46
0.008062588264100636
% es.normE (V/m) @ t=0.48
0.7597667977296738
% es.EX (V/m) @ t=0.48
0.5277413926563163
% es.EY (V/m) @ t=0.48
0.07902092855138665
% es.EZ (V/m) @ t=0.48
-0.5269691438593787
% es.tEX (V/m) @ t=0.48
0.5277413926563168
% es.tEY (V/m) @ t=0.48
0
% es.tEZ (V/m) @ t=0.48
-0.5269691438593713
% es.Ex (V/m) @ t=0.48
0.5277413926563163
% es.Ey (V/m) @ t=0.48
0.07902092855138665
% es.Ez (V/m) @ t=0.48
-0.5269691438593787
% es.tEx (V/m) @ t=0.48
0.5277413926563168
% es.tEy (V/m) @ t=0.48
0
% es.tEz (V/m) @ t=0.48
-0.5269691438593713
% V (V) @ t=0.48
0.008136208619132704
% es.normE (V/m) @ t=0.5
0.7666407980041843
% es.EX (V/m) @ t=0.5
0.5325161735936502
% es.EY (V/m) @ t=0.5
0.07973572110103735
% es.EZ (V/m) @ t=0.5
-0.5317369131933802
% es.tEX (V/m) @ t=0.5
0.532516173593653
% es.tEY (V/m) @ t=0.5
0
% es.tEZ (V/m) @ t=0.5
-0.5317369131933658
% es.Ex (V/m) @ t=0.5
0.5325161735936502
% es.Ey (V/m) @ t=0.5
0.07973572110103735
% es.Ez (V/m) @ t=0.5
-0.5317369131933802
% es.tEx (V/m) @ t=0.5
0.532516173593653
% es.tEy (V/m) @ t=0.5
0
% es.tEz (V/m) @ t=0.5
-0.5317369131933658
% V (V) @ t=0.5
0.008209828974164772
% es.normE (V/m) @ t=0.52
0.7735147982787298
% es.EX (V/m) @ t=0.52
0.5372909545309833
% es.EY (V/m) @ t=0.52
0.0804505136506665
% es.EZ (V/m) @ t=0.52
-0.5365046825273774
% es.tEX (V/m) @ t=0.52
0.5372909545309859
% es.tEY (V/m) @ t=0.52
0
% es.tEZ (V/m) @ t=0.52
-0.5365046825273629
% es.Ex (V/m) @ t=0.52
0.5372909545309833
% es.Ey (V/m) @ t=0.52
0.0804505136506665
% es.Ez (V/m) @ t=0.52
-0.5365046825273774
% es.tEx (V/m) @ t=0.52
0.5372909545309859
% es.tEy (V/m) @ t=0.52
0
% es.tEz (V/m) @ t=0.52
-0.5365046825273629
% V (V) @ t=0.52
0.008283449329196836
% es.normE (V/m) @ t=0.54
0.7803887985533172
% es.EX (V/m) @ t=0.54
0.5420657354683179
% es.EY (V/m) @ t=0.54
0.08116530620029785
% es.EZ (V/m) @ t=0.54
-0.5412724518613821
% es.tEX (V/m) @ t=0.54
0.542065735468322
% es.tEY (V/m) @ t=0.54
0
% es.tEZ (V/m) @ t=0.54
-0.5412724518613712
% es.Ex (V/m) @ t=0.54
0.5420657354683179
% es.Ey (V/m) @ t=0.54
0.08116530620029785
% es.Ez (V/m) @ t=0.54
-0.5412724518613821
% es.tEx (V/m) @ t=0.54
0.542065735468322
% es.tEy (V/m) @ t=0.54
0
% es.tEz (V/m) @ t=0.54
-0.5412724518613712
% V (V) @ t=0.54
0.008357069684228904
% es.normE (V/m) @ t=0.56
0.7875552750456905
% es.EX (V/m) @ t=0.56
0.5470436893542301
% es.EY (V/m) @ t=0.56
0.08191044474532141
% es.EZ (V/m) @ t=0.56
-0.5462430855289386
% es.tEX (V/m) @ t=0.56
0.547043689354231
% es.tEY (V/m) @ t=0.56
0
% es.tEZ (V/m) @ t=0.56
-0.5462430855289275
% es.Ex (V/m) @ t=0.56
0.5470436893542301
% es.Ey (V/m) @ t=0.56
0.08191044474532141
% es.Ez (V/m) @ t=0.56
-0.5462430855289386
% es.tEx (V/m) @ t=0.56
0.547043689354231
% es.tEy (V/m) @ t=0.56
0
% es.tEz (V/m) @ t=0.56
-0.5462430855289275
% V (V) @ t=0.56
0.0084338259414822
% es.normE (V/m) @ t=0.58
0.7952411952609821
% es.EX (V/m) @ t=0.58
0.5523824825370551
% es.EY (V/m) @ t=0.58
0.08270947839655207
% es.EZ (V/m) @ t=0.58
-0.5515740103868374
% es.tEX (V/m) @ t=0.58
0.552382482537054
% es.tEY (V/m) @ t=0.58
0
% es.tEZ (V/m) @ t=0.58
-0.5515740103868265
% es.Ex (V/m) @ t=0.58
0.5523824825370551
% es.Ey (V/m) @ t=0.58
0.08270947839655207
% es.Ez (V/m) @ t=0.58
-0.5515740103868374
% es.tEx (V/m) @ t=0.58
0.552382482537054
% es.tEy (V/m) @ t=0.58
0
% es.tEz (V/m) @ t=0.58
-0.5515740103868265
% V (V) @ t=0.58
0.008516151624983523
% es.normE (V/m) @ t=0.6
0.8029271154764741
% es.EX (V/m) @ t=0.6
0.5577212757198723
% es.EY (V/m) @ t=0.6
0.08350851204777465
% es.EZ (V/m) @ t=0.6
-0.5569049352447422
% es.tEX (V/m) @ t=0.6
0.5577212757198746
% es.tEY (V/m) @ t=0.6
0
% es.tEZ (V/m) @ t=0.6
-0.5569049352447313
% es.Ex (V/m) @ t=0.6
0.5577212757198723
% es.Ey (V/m) @ t=0.6
0.08350851204777465
% es.Ez (V/m) @ t=0.6
-0.5569049352447422
% es.tEx (V/m) @ t=0.6
0.5577212757198746
% es.tEy (V/m) @ t=0.6
0
% es.tEz (V/m) @ t=0.6
-0.5569049352447313
% V (V) @ t=0.6
0.008598477308484844
% es.normE (V/m) @ t=0.62
0.8106130356921629
% es.EX (V/m) @ t=0.62
0.5630600689026962
% es.EY (V/m) @ t=0.62
0.08430754569899349
% es.EZ (V/m) @ t=0.62
-0.5622358601026407
% es.tEX (V/m) @ t=0.62
0.5630600689026968
% es.tEY (V/m) @ t=0.62
0
% es.tEZ (V/m) @ t=0.62
-0.5622358601026334
% es.Ex (V/m) @ t=0.62
0.5630600689026962
% es.Ey (V/m) @ t=0.62
0.08430754569899349
% es.Ez (V/m) @ t=0.62
-0.5622358601026407
% es.tEx (V/m) @ t=0.62
0.5630600689026968
% es.tEy (V/m) @ t=0.62
0
% es.tEz (V/m) @ t=0.62
-0.5622358601026334
% V (V) @ t=0.62
0.008680802991986166
% es.normE (V/m) @ t=0.64
0.8182989559080477
% es.EX (V/m) @ t=0.64
0.5683988620855162
% es.EY (V/m) @ t=0.64
0.08510657935019858
% es.EZ (V/m) @ t=0.64
-0.5675667849605566
% es.tEX (V/m) @ t=0.64
0.56839886208552
% es.tEY (V/m) @ t=0.64
0
% es.tEZ (V/m) @ t=0.64
-0.5675667849605421
% es.Ex (V/m) @ t=0.64
0.5683988620855162
% es.Ey (V/m) @ t=0.64
0.08510657935019858
% es.Ez (V/m) @ t=0.64
-0.5675667849605566
% es.tEx (V/m) @ t=0.64
0.56839886208552
% es.tEy (V/m) @ t=0.64
0
% es.tEz (V/m) @ t=0.64
-0.5675667849605421
% V (V) @ t=0.64
0.008763128675487486
% es.normE (V/m) @ t=0.66
0.8259848761240973
% es.EX (V/m) @ t=0.66
0.5737376552683365
% es.EY (V/m) @ t=0.66
0.08590561300142163
% es.EZ (V/m) @ t=0.66
-0.5728977098184445
% es.tEX (V/m) @ t=0.66
0.5737376552683386
% es.tEY (V/m) @ t=0.66
0
% es.tEZ (V/m) @ t=0.66
-0.5728977098184371
% es.Ex (V/m) @ t=0.66
0.5737376552683365
% es.Ey (V/m) @ t=0.66
0.08590561300142163
% es.Ez (V/m) @ t=0.66
-0.5728977098184445
% es.tEx (V/m) @ t=0.66
0.5737376552683386
% es.tEy (V/m) @ t=0.66
0
% es.tEz (V/m) @ t=0.66
-0.5728977098184371
% V (V) @ t=0.66
0.00884545435898881
% es.normE (V/m) @ t=0.68
0.8336707963403505
% es.EX (V/m) @ t=0.68
0.5790764484511605
% es.EY (V/m) @ t=0.68
0.0867046466526365
% es.EZ (V/m) @ t=0.68
-0.5782286346763603
% es.tEX (V/m) @ t=0.68
0.579076448451159
% es.tEY (V/m) @ t=0.68
0
% es.tEZ (V/m) @ t=0.68
-0.578228634676353
% es.Ex (V/m) @ t=0.68
0.5790764484511605
% es.Ey (V/m) @ t=0.68
0.0867046466526365
% es.Ez (V/m) @ t=0.68
-0.5782286346763603
% es.tEx (V/m) @ t=0.68
0.579076448451159
% es.tEy (V/m) @ t=0.68
0
% es.tEz (V/m) @ t=0.68
-0.578228634676353
% V (V) @ t=0.68
0.00892778004249013
% es.normE (V/m) @ t=0.7
0.8413567165567699
% es.EX (V/m) @ t=0.7
0.5844152416339864
% es.EY (V/m) @ t=0.7
0.08750368030385283
% es.EZ (V/m) @ t=0.7
-0.5835595595342615
% es.tEX (V/m) @ t=0.7
0.5844152416339867
% es.tEY (V/m) @ t=0.7
0
% es.tEZ (V/m) @ t=0.7
-0.5835595595342471
% es.Ex (V/m) @ t=0.7
0.5844152416339864
% es.Ey (V/m) @ t=0.7
0.08750368030385283
% es.Ez (V/m) @ t=0.7
-0.5835595595342615
% es.tEx (V/m) @ t=0.7
0.5844152416339867
% es.tEy (V/m) @ t=0.7
0
% es.tEz (V/m) @ t=0.7
-0.5835595595342471
% V (V) @ t=0.7
0.00901010572599145
% es.normE (V/m) @ t=0.72
0.8490426367733486
% es.EX (V/m) @ t=0.72
0.5897540348168082
% es.EY (V/m) @ t=0.72
0.08830271395507347
% es.EZ (V/m) @ t=0.72
-0.588890484392153
% es.tEX (V/m) @ t=0.72
0.58975403481681
% es.tEY (V/m) @ t=0.72
0
% es.tEZ (V/m) @ t=0.72
-0.5888904843921421
% es.Ex (V/m) @ t=0.72
0.5897540348168082
% es.Ey (V/m) @ t=0.72
0.08830271395507347
% es.Ez (V/m) @ t=0.72
-0.588890484392153
% es.tEx (V/m) @ t=0.72
0.58975403481681
% es.tEy (V/m) @ t=0.72
0
% es.tEz (V/m) @ t=0.72
-0.5888904843921421
% V (V) @ t=0.72
0.009092431409492773
% es.normE (V/m) @ t=0.74
0.8567285569900941
% es.EX (V/m) @ t=0.74
0.595092827999625
% es.EY (V/m) @ t=0.74
0.08910174760629963
% es.EZ (V/m) @ t=0.74
-0.5942214092500511
% es.tEX (V/m) @ t=0.74
0.5950928279996268
% es.tEY (V/m) @ t=0.74
0
% es.tEZ (V/m) @ t=0.74
-0.5942214092500437
% es.Ex (V/m) @ t=0.74
0.595092827999625
% es.Ey (V/m) @ t=0.74
0.08910174760629963
% es.Ez (V/m) @ t=0.74
-0.5942214092500511
% es.tEx (V/m) @ t=0.74
0.5950928279996268
% es.tEy (V/m) @ t=0.74
0
% es.tEz (V/m) @ t=0.74
-0.5942214092500437
% V (V) @ t=0.74
0.009174757092994094
% es.normE (V/m) @ t=0.76
0.8644144772070061
% es.EX (V/m) @ t=0.76
0.6004316211824479
% es.EY (V/m) @ t=0.76
0.08990078125751494
% es.EZ (V/m) @ t=0.76
-0.5995523341079565
% es.tEX (V/m) @ t=0.76
0.6004316211824552
% es.tEY (V/m) @ t=0.76
0
% es.tEZ (V/m) @ t=0.76
-0.5995523341079454
% es.Ex (V/m) @ t=0.76
0.6004316211824479
% es.Ey (V/m) @ t=0.76
0.08990078125751494
% es.Ez (V/m) @ t=0.76
-0.5995523341079565
% es.tEx (V/m) @ t=0.76
0.6004316211824552
% es.tEy (V/m) @ t=0.76
0
% es.tEz (V/m) @ t=0.76
-0.5995523341079454
% V (V) @ t=0.76
0.009257082776495413
% es.normE (V/m) @ t=0.78
0.8721003974240759
% es.EX (V/m) @ t=0.78
0.6057704143652716
% es.EY (V/m) @ t=0.78
0.09069981490873066
% es.EZ (V/m) @ t=0.78
-0.6048832589658619
% es.tEX (V/m) @ t=0.78
0.6057704143652751
% es.tEY (V/m) @ t=0.78
0
% es.tEZ (V/m) @ t=0.78
-0.6048832589658546
% es.Ex (V/m) @ t=0.78
0.6057704143652716
% es.Ey (V/m) @ t=0.78
0.09069981490873066
% es.Ez (V/m) @ t=0.78
-0.6048832589658619
% es.tEx (V/m) @ t=0.78
0.6057704143652751
% es.tEy (V/m) @ t=0.78
0
% es.tEz (V/m) @ t=0.78
-0.6048832589658546
% V (V) @ t=0.78
0.009339408459996736
% es.normE (V/m) @ t=0.8
0.8797863176413003
% es.EX (V/m) @ t=0.8
0.6111092075480973
% es.EY (V/m) @ t=0.8
0.09149884855994639
% es.EZ (V/m) @ t=0.8
-0.6102141838237638
% es.tEX (V/m) @ t=0.8
0.611109207548099
% es.tEY (V/m) @ t=0.8
0
% es.tEZ (V/m) @ t=0.8
-0.6102141838237491
% es.Ex (V/m) @ t=0.8
0.6111092075480973
% es.Ey (V/m) @ t=0.8
0.09149884855994639
% es.Ez (V/m) @ t=0.8
-0.6102141838237638
% es.tEx (V/m) @ t=0.8
0.611109207548099
% es.tEy (V/m) @ t=0.8
0
% es.tEz (V/m) @ t=0.8
-0.6102141838237491
% V (V) @ t=0.8
0.009421734143498055
% es.normE (V/m) @ t=0.82
0.8874722378586717
% es.EX (V/m) @ t=0.82
0.6164480007309228
% es.EY (V/m) @ t=0.82
0.09229788221117546
% es.EZ (V/m) @ t=0.82
-0.6155451086816657
% es.tEX (V/m) @ t=0.82
0.616448000730923
% es.tEY (V/m) @ t=0.82
0
% es.tEZ (V/m) @ t=0.82
-0.6155451086816583
% es.Ex (V/m) @ t=0.82
0.6164480007309228
% es.Ey (V/m) @ t=0.82
0.09229788221117546
% es.Ez (V/m) @ t=0.82
-0.6155451086816657
% es.tEx (V/m) @ t=0.82
0.616448000730923
% es.tEy (V/m) @ t=0.82
0
% es.tEz (V/m) @ t=0.82
-0.6155451086816583
% V (V) @ t=0.82
0.009504059826999377
% es.normE (V/m) @ t=0.84
0.8956622659739764
% es.EX (V/m) @ t=0.84
0.6221370015907326
% es.EY (V/m) @ t=0.84
0.09314912223789518
% es.EZ (V/m) @ t=0.84
-0.6212256936909197
% es.tEX (V/m) @ t=0.84
0.6221370015907324
% es.tEY (V/m) @ t=0.84
0
% es.tEZ (V/m) @ t=0.84
-0.6212256936909086
% es.Ex (V/m) @ t=0.84
0.6221370015907326
% es.Ey (V/m) @ t=0.84
0.09314912223789518
% es.Ez (V/m) @ t=0.84
-0.6212256936909197
% es.tEx (V/m) @ t=0.84
0.6221370015907324
% es.tEy (V/m) @ t=0.84
0
% es.tEz (V/m) @ t=0.84
-0.6212256936909086
% V (V) @ t=0.84
0.009591795612344902
% es.normE (V/m) @ t=0.86
0.9042724747466235
% es.EX (V/m) @ t=0.86
0.6281179052204624
% es.EY (V/m) @ t=0.86
0.09404387697491717
% es.EZ (V/m) @ t=0.86
-0.6271977251001901
% es.tEX (V/m) @ t=0.86
0.6281179052204662
% es.tEY (V/m) @ t=0.86
0
% es.tEZ (V/m) @ t=0.86
-0.6271977251001792
% es.Ex (V/m) @ t=0.86
0.6281179052204624
% es.Ey (V/m) @ t=0.86
0.09404387697491717
% es.Ez (V/m) @ t=0.86
-0.6271977251001901
% es.tEx (V/m) @ t=0.86
0.6281179052204662
% es.tEy (V/m) @ t=0.86
0
% es.tEz (V/m) @ t=0.86
-0.6271977251001792
% V (V) @ t=0.86
0.00968404078973891
% es.normE (V/m) @ t=0.88
0.9128826835200222
% es.EX (V/m) @ t=0.88
0.6340988088502031
% es.EY (V/m) @ t=0.88
0.09493863171195849
% es.EZ (V/m) @ t=0.88
-0.6331697565094745
% es.tEX (V/m) @ t=0.88
0.6340988088502066
% es.tEY (V/m) @ t=0.88
0
% es.tEZ (V/m) @ t=0.88
-0.6331697565094636
% es.Ex (V/m) @ t=0.88
0.6340988088502031
% es.Ey (V/m) @ t=0.88
0.09493863171195849
% es.Ez (V/m) @ t=0.88
-0.6331697565094745
% es.tEx (V/m) @ t=0.88
0.6340988088502066
% es.tEy (V/m) @ t=0.88
0
% es.tEz (V/m) @ t=0.88
-0.6331697565094636
% V (V) @ t=0.88
0.00977628596713292
% es.normE (V/m) @ t=0.9
0.9214928922941248
% es.EX (V/m) @ t=0.9
0.6400797124799433
% es.EY (V/m) @ t=0.9
0.09583338644899647
% es.EZ (V/m) @ t=0.9
-0.6391417879187413
% es.tEX (V/m) @ t=0.9
0.6400797124799467
% es.tEY (V/m) @ t=0.9
0
% es.tEZ (V/m) @ t=0.9
-0.6391417879187267
% es.Ex (V/m) @ t=0.9
0.6400797124799433
% es.Ey (V/m) @ t=0.9
0.09583338644899647
% es.Ez (V/m) @ t=0.9
-0.6391417879187413
% es.tEx (V/m) @ t=0.9
0.6400797124799467
% es.tEy (V/m) @ t=0.9
0
% es.tEz (V/m) @ t=0.9
-0.6391417879187267
% V (V) @ t=0.9
0.009868531144526927
% es.normE (V/m) @ t=0.92
0.9301031010689308
% es.EX (V/m) @ t=0.92
0.6460606161096802
% es.EY (V/m) @ t=0.92
0.09672814118602352
% es.EZ (V/m) @ t=0.92
-0.6451138193280259
% es.tEX (V/m) @ t=0.92
0.646060616109684
% es.tEY (V/m) @ t=0.92
0
% es.tEZ (V/m) @ t=0.92
-0.6451138193280115
% es.Ex (V/m) @ t=0.92
0.6460606161096802
% es.Ey (V/m) @ t=0.92
0.09672814118602352
% es.Ez (V/m) @ t=0.92
-0.6451138193280259
% es.tEx (V/m) @ t=0.92
0.646060616109684
% es.tEy (V/m) @ t=0.92
0
% es.tEz (V/m) @ t=0.92
-0.6451138193280115
% V (V) @ t=0.92
0.009960776321920937
% es.normE (V/m) @ t=0.94
0.9387133098444012
% es.EX (V/m) @ t=0.94
0.6520415197394169
% es.EY (V/m) @ t=0.94
0.09762289592306772
% es.EZ (V/m) @ t=0.94
-0.6510858507372925
% es.tEX (V/m) @ t=0.94
0.65204151973942
% es.tEY (V/m) @ t=0.94
0
% es.tEZ (V/m) @ t=0.94
-0.6510858507372888
% es.Ex (V/m) @ t=0.94
0.6520415197394169
% es.Ey (V/m) @ t=0.94
0.09762289592306772
% es.Ez (V/m) @ t=0.94
-0.6510858507372925
% es.tEx (V/m) @ t=0.94
0.65204151973942
% es.tEy (V/m) @ t=0.94
0
% es.tEz (V/m) @ t=0.94
-0.6510858507372888
% V (V) @ t=0.94
0.010053021499314944
% es.normE (V/m) @ t=0.96
0.9473235186205362
% es.EX (V/m) @ t=0.96
0.6580224233691581
% es.EY (V/m) @ t=0.96
0.0985176506600986
% es.EZ (V/m) @ t=0.96
-0.6570578821465667
% es.tEX (V/m) @ t=0.96
0.6580224233691618
% es.tEY (V/m) @ t=0.96
0
% es.tEZ (V/m) @ t=0.96
-0.6570578821465594
% es.Ex (V/m) @ t=0.96
0.6580224233691581
% es.Ey (V/m) @ t=0.96
0.0985176506600986
% es.Ez (V/m) @ t=0.96
-0.6570578821465667
% es.tEx (V/m) @ t=0.96
0.6580224233691618
% es.tEy (V/m) @ t=0.96
0
% es.tEz (V/m) @ t=0.96
-0.6570578821465594
% V (V) @ t=0.96
0.010145266676708951
% es.normE (V/m) @ t=0.98
0.9559337273973052
% es.EX (V/m) @ t=0.98
0.664003326998891
% es.EY (V/m) @ t=0.98
0.09941240539714241
% es.EZ (V/m) @ t=0.98
-0.6630299135558446
% es.tEX (V/m) @ t=0.98
0.6640033269988943
% es.tEY (V/m) @ t=0.98
0
% es.tEZ (V/m) @ t=0.98
-0.6630299135558371
% es.Ex (V/m) @ t=0.98
0.664003326998891
% es.Ey (V/m) @ t=0.98
0.09941240539714241
% es.Ez (V/m) @ t=0.98
-0.6630299135558446
% es.tEx (V/m) @ t=0.98
0.6640033269988943
% es.tEy (V/m) @ t=0.98
0
% es.tEz (V/m) @ t=0.98
-0.6630299135558371
% V (V) @ t=0.98
0.010237511854102963
% es.normE (V/m) @ t=1
0.9645439361747012
% es.EX (V/m) @ t=1
0.6699842306286352
% es.EY (V/m) @ t=1
0.10030716013416702
% es.EZ (V/m) @ t=1
-0.669001944965115
% es.tEX (V/m) @ t=1
0.6699842306286383
% es.tEY (V/m) @ t=1
0
% es.tEZ (V/m) @ t=1
-0.6690019449651077
% es.Ex (V/m) @ t=1
0.6699842306286352
% es.Ey (V/m) @ t=1
0.10030716013416702
% es.Ez (V/m) @ t=1
-0.669001944965115
% es.tEx (V/m) @ t=1
0.6699842306286383
% es.tEy (V/m) @ t=1
0
% es.tEz (V/m) @ t=1
-0.6690019449651077
% V (V) @ t=1
0.01032975703149697
% es.normE (V/m) @ t=1.02
0.9731541449527039
% es.EX (V/m) @ t=1.02
0.6759651342583701
% es.EY (V/m) @ t=1.02
0.10120191487119679
% es.EZ (V/m) @ t=1.02
-0.6749739763743994
% es.tEX (V/m) @ t=1.02
0.6759651342583748
% es.tEY (V/m) @ t=1.02
0
% es.tEZ (V/m) @ t=1.02
-0.6749739763743849
% es.Ex (V/m) @ t=1.02
0.6759651342583701
% es.Ey (V/m) @ t=1.02
0.10120191487119679
% es.Ez (V/m) @ t=1.02
-0.6749739763743994
% es.tEx (V/m) @ t=1.02
0.6759651342583748
% es.tEy (V/m) @ t=1.02
0
% es.tEz (V/m) @ t=1.02
-0.6749739763743849
% V (V) @ t=1.02
0.010422002208890979
% es.normE (V/m) @ t=1.04
0.9817643537312872
% es.EX (V/m) @ t=1.04
0.681946037888107
% es.EY (V/m) @ t=1.04