% Model:              1 neuron.mph
% Version:            COMSOL 6.1.0.252
% Date:               Mar 18 2023, 12:13
% Dimension:          0
% Nodes:              14017
% Expressions:        14017
% Description:        Electric field norm, Electric field, X component, Electric field, Y component, Electric field, Z component, Tangential electric field, X component, Tangential electric field, Y component, Tangential electric field, Z component, Electric field, x component, Electric field, y component, Electric field, z component, Tangential electric field, x component, Tangential electric field, y component, Tangential electric field, z component, Electric potential
% Length unit:        mm
% x
1.33
% y
12.2
% z
1.33
% es.normE (V/m) @ t=0
7.690618721725235
% es.EX (V/m) @ t=0
5.959337132897134
% es.EY (V/m) @ t=0
-0.9131472335353727
% es.EZ (V/m) @ t=0
4.7608664703814165
% es.tEX (V/m) @ t=0
5.959337132897164
% es.tEY (V/m) @ t=0
0
% es.tEZ (V/m) @ t=0
4.760866470381416
% es.Ex (V/m) @ t=0
5.959337132897134
% es.Ey (V/m) @ t=0
-0.9131472335353727
% es.Ez (V/m) @ t=0
4.7608664703814165
% es.tEx (V/m) @ t=0
5.959337132897164
% es.tEy (V/m) @ t=0
0
% es.tEz (V/m) @ t=0
4.760866470381416
% V (V) @ t=0
0.006351165464956874
% es.normE (V/m) @ t=0.02
6.642470665538345
% es.EX (V/m) @ t=0.02
5.147144001359264
% es.EY (V/m) @ t=0.02
-0.7886950338477678
% es.EZ (V/m) @ t=0.02
4.1120119615290145
% es.tEX (V/m) @ t=0.02
5.147144001359269
% es.tEY (V/m) @ t=0.02
0
% es.tEZ (V/m) @ t=0.02
4.112011961528999
% es.Ex (V/m) @ t=0.02
5.147144001359264
% es.Ey (V/m) @ t=0.02
-0.7886950338477678
% es.Ez (V/m) @ t=0.02
4.1120119615290145
% es.tEx (V/m) @ t=0.02
5.147144001359269
% es.tEy (V/m) @ t=0.02
0
% es.tEz (V/m) @ t=0.02
4.112011961528999
% V (V) @ t=0.02
0.005485570159138762
% es.normE (V/m) @ t=0.04
6.70357050571147
% es.EX (V/m) @ t=0.04
5.194489289623209
% es.EY (V/m) @ t=0.04
-0.7959497587123394
% es.EZ (V/m) @ t=0.04
4.14983572229716
% es.tEX (V/m) @ t=0.04
5.194489289623241
% es.tEY (V/m) @ t=0.04
0
% es.tEZ (V/m) @ t=0.04
4.149835722297158
% es.Ex (V/m) @ t=0.04
5.194489289623209
% es.Ey (V/m) @ t=0.04
-0.7959497587123394
% es.Ez (V/m) @ t=0.04
4.14983572229716
% es.tEx (V/m) @ t=0.04
5.194489289623241
% es.tEy (V/m) @ t=0.04
0
% es.tEz (V/m) @ t=0.04
4.149835722297158
% V (V) @ t=0.04
0.0055360284552402154
% es.normE (V/m) @ t=0.06
6.76522160722433
% es.EX (V/m) @ t=0.06
5.242261744917832
% es.EY (V/m) @ t=0.06
-0.8032699868157165
% es.EZ (V/m) @ t=0.06
4.188000724814259
% es.tEX (V/m) @ t=0.06
5.242261744917854
% es.tEY (V/m) @ t=0.06
0
% es.tEZ (V/m) @ t=0.06
4.188000724814257
% es.Ex (V/m) @ t=0.06
5.242261744917832
% es.Ey (V/m) @ t=0.06
-0.8032699868157165
% es.Ez (V/m) @ t=0.06
4.188000724814259
% es.tEx (V/m) @ t=0.06
5.242261744917854
% es.tEy (V/m) @ t=0.06
0
% es.tEz (V/m) @ t=0.06
4.188000724814257
% V (V) @ t=0.06
0.005586942095208207
% es.normE (V/m) @ t=0.08
6.8278125756370365
% es.EX (V/m) @ t=0.08
5.29076248317898
% es.EY (V/m) @ t=0.08
-0.8107017467410191
% es.EZ (V/m) @ t=0.08
4.226747571426181
% es.tEX (V/m) @ t=0.08
5.29076248317898
% es.tEY (V/m) @ t=0.08
0
% es.tEZ (V/m) @ t=0.08
4.226747571426179
% es.Ex (V/m) @ t=0.08
5.29076248317898
% es.Ey (V/m) @ t=0.08
-0.8107017467410191
% es.Ez (V/m) @ t=0.08
4.226747571426181
% es.tEx (V/m) @ t=0.08
5.29076248317898
% es.tEy (V/m) @ t=0.08
0
% es.tEz (V/m) @ t=0.08
4.226747571426179
% V (V) @ t=0.08
0.005638631788529037
% es.normE (V/m) @ t=0.1
6.891058476758583
% es.EX (V/m) @ t=0.1
5.3397707149332705
% es.EY (V/m) @ t=0.1
-0.8182112260096446
% es.EZ (V/m) @ t=0.1
4.265899867713135
% es.tEX (V/m) @ t=0.1
5.339770714933289
% es.tEY (V/m) @ t=0.1
0
% es.tEZ (V/m) @ t=0.1
4.265899867713127
% es.Ex (V/m) @ t=0.1
5.3397707149332705
% es.Ey (V/m) @ t=0.1
-0.8182112260096446
% es.Ez (V/m) @ t=0.1
4.265899867713135
% es.tEx (V/m) @ t=0.1
5.339770714933289
% es.tEy (V/m) @ t=0.1
0
% es.tEz (V/m) @ t=0.1
4.265899867713127
% V (V) @ t=0.1
0.005690862263448468
% es.normE (V/m) @ t=0.12
6.954304377880145
% es.EX (V/m) @ t=0.12
5.388778946687569
% es.EY (V/m) @ t=0.12
-0.8257207052782425
% es.EZ (V/m) @ t=0.12
4.305052164000104
% es.tEX (V/m) @ t=0.12
5.3887789466875855
% es.tEY (V/m) @ t=0.12
0
% es.tEZ (V/m) @ t=0.12
4.305052164000104
% es.Ex (V/m) @ t=0.12
5.388778946687569
% es.Ey (V/m) @ t=0.12
-0.8257207052782425
% es.Ez (V/m) @ t=0.12
4.305052164000104
% es.tEx (V/m) @ t=0.12
5.3887789466875855
% es.tEy (V/m) @ t=0.12
0
% es.tEz (V/m) @ t=0.12
4.305052164000104
% V (V) @ t=0.12
0.005743092738367898
% es.normE (V/m) @ t=0.14
7.0181872495125175
% es.EX (V/m) @ t=0.14
5.4382807611665385
% es.EY (V/m) @ t=0.14
-0.8333058736551351
% es.EZ (V/m) @ t=0.14
4.344598756757087
% es.tEX (V/m) @ t=0.14
5.43828076116656
% es.tEY (V/m) @ t=0.14
0
% es.tEZ (V/m) @ t=0.14
4.344598756757082
% es.Ex (V/m) @ t=0.14
5.4382807611665385
% es.Ey (V/m) @ t=0.14
-0.8333058736551351
% es.Ez (V/m) @ t=0.14
4.344598756757087
% es.tEx (V/m) @ t=0.14
5.43828076116656
% es.tEy (V/m) @ t=0.14
0
% es.tEz (V/m) @ t=0.14
4.344598756757082
% V (V) @ t=0.14
0.0057958493540210335
% es.normE (V/m) @ t=0.16
7.084810019104651
% es.EX (V/m) @ t=0.16
5.4899056979522936
% es.EY (V/m) @ t=0.16
-0.8412166150842744
% es.EZ (V/m) @ t=0.16
4.38584139678067
% es.tEX (V/m) @ t=0.16
5.489905697952313
% es.tEY (V/m) @ t=0.16
0
% es.tEZ (V/m) @ t=0.16
4.385841396780665
% es.Ex (V/m) @ t=0.16
5.4899056979522936
% es.Ey (V/m) @ t=0.16
-0.8412166150842744
% es.Ez (V/m) @ t=0.16
4.38584139678067
% es.tEx (V/m) @ t=0.16
5.489905697952313
% es.tEy (V/m) @ t=0.16
0
% es.tEz (V/m) @ t=0.16
4.385841396780665
% V (V) @ t=0.16
0.0058508691386880895
% es.normE (V/m) @ t=0.18
7.151432788696791
% es.EX (V/m) @ t=0.18
5.54153063473803
% es.EY (V/m) @ t=0.18
-0.8491273565134012
% es.EZ (V/m) @ t=0.18
4.42708403680426
% es.tEX (V/m) @ t=0.18
5.541530634738051
% es.tEY (V/m) @ t=0.18
0
% es.tEZ (V/m) @ t=0.18
4.427084036804259
% es.Ex (V/m) @ t=0.18
5.54153063473803
% es.Ey (V/m) @ t=0.18
-0.8491273565134012
% es.Ez (V/m) @ t=0.18
4.42708403680426
% es.tEx (V/m) @ t=0.18
5.541530634738051
% es.tEy (V/m) @ t=0.18
0
% es.tEz (V/m) @ t=0.18
4.427084036804259
% V (V) @ t=0.18
0.005905888923355146
% es.normE (V/m) @ t=0.2
7.218055558288933
% es.EX (V/m) @ t=0.2
5.593155571523767
% es.EY (V/m) @ t=0.2
-0.8570380979425289
% es.EZ (V/m) @ t=0.2
4.468326676827836
% es.tEX (V/m) @ t=0.2
5.5931555715237895
% es.tEY (V/m) @ t=0.2
0
% es.tEZ (V/m) @ t=0.2
4.468326676827836
% es.Ex (V/m) @ t=0.2
5.593155571523767
% es.Ey (V/m) @ t=0.2
-0.8570380979425289
% es.Ez (V/m) @ t=0.2
4.468326676827836
% es.tEx (V/m) @ t=0.2
5.5931555715237895
% es.tEy (V/m) @ t=0.2
0
% es.tEz (V/m) @ t=0.2
4.468326676827836
% V (V) @ t=0.2
0.0059609087080222025
% es.normE (V/m) @ t=0.22
7.284678327881131
% es.EX (V/m) @ t=0.22
5.644780508309544
% es.EY (V/m) @ t=0.22
-0.8649488393716185
% es.EZ (V/m) @ t=0.22
4.509569316851433
% es.tEX (V/m) @ t=0.22
5.644780508309557
% es.tEY (V/m) @ t=0.22
0
% es.tEZ (V/m) @ t=0.22
4.509569316851432
% es.Ex (V/m) @ t=0.22
5.644780508309544
% es.Ey (V/m) @ t=0.22
-0.8649488393716185
% es.Ez (V/m) @ t=0.22
4.509569316851433
% es.tEx (V/m) @ t=0.22
5.644780508309557
% es.tEy (V/m) @ t=0.22
0
% es.tEz (V/m) @ t=0.22
4.509569316851432
% V (V) @ t=0.22
0.0060159284926892586
% es.normE (V/m) @ t=0.24
7.351301097473296
% es.EX (V/m) @ t=0.24
5.696405445095273
% es.EY (V/m) @ t=0.24
-0.872859580800772
% es.EZ (V/m) @ t=0.24
4.550811956875009
% es.tEX (V/m) @ t=0.24
5.696405445095282
% es.tEY (V/m) @ t=0.24
0
% es.tEZ (V/m) @ t=0.24
4.550811956875001
% es.Ex (V/m) @ t=0.24
5.696405445095273
% es.Ey (V/m) @ t=0.24
-0.872859580800772
% es.Ez (V/m) @ t=0.24
4.550811956875009
% es.tEx (V/m) @ t=0.24
5.696405445095282
% es.tEy (V/m) @ t=0.24
0
% es.tEz (V/m) @ t=0.24
4.550811956875001
% V (V) @ t=0.24
0.006070948277356314
% es.normE (V/m) @ t=0.26
7.417923867065507
% es.EX (V/m) @ t=0.26
5.748030381881032
% es.EY (V/m) @ t=0.26
-0.8807703222298926
% es.EZ (V/m) @ t=0.26
4.592054596898599
% es.tEX (V/m) @ t=0.26
5.7480303818810485
% es.tEY (V/m) @ t=0.26
0
% es.tEZ (V/m) @ t=0.26
4.592054596898599
% es.Ex (V/m) @ t=0.26
5.748030381881032
% es.Ey (V/m) @ t=0.26
-0.8807703222298926
% es.Ez (V/m) @ t=0.26
4.592054596898599
% es.tEx (V/m) @ t=0.26
5.7480303818810485
% es.tEy (V/m) @ t=0.26
0
% es.tEz (V/m) @ t=0.26
4.592054596898599
% V (V) @ t=0.26
0.0061259680620233715
% es.normE (V/m) @ t=0.28
7.487485218764531
% es.EX (V/m) @ t=0.28
5.801932310217888
% es.EY (V/m) @ t=0.28
-0.8890290615337975
% es.EZ (V/m) @ t=0.28
4.635116661330278
% es.tEX (V/m) @ t=0.28
5.801932310217918
% es.tEY (V/m) @ t=0.28
0
% es.tEZ (V/m) @ t=0.28
4.635116661330274
% es.Ex (V/m) @ t=0.28
5.801932310217888
% es.Ey (V/m) @ t=0.28
-0.8890290615337975
% es.Ez (V/m) @ t=0.28
4.635116661330278
% es.tEx (V/m) @ t=0.28
5.801932310217918
% es.tEy (V/m) @ t=0.28
0
% es.tEz (V/m) @ t=0.28
4.635116661330274
% V (V) @ t=0.28
0.006183412891949024
% es.normE (V/m) @ t=0.3
7.561696945875278
% es.EX (V/m) @ t=0.3
5.859437631325756
% es.EY (V/m) @ t=0.3
-0.8978385156726656
% es.EZ (V/m) @ t=0.3
4.681058007749735
% es.tEX (V/m) @ t=0.3
5.859437631325788
% es.tEY (V/m) @ t=0.3
0
% es.tEZ (V/m) @ t=0.3
4.681058007749735
% es.Ex (V/m) @ t=0.3
5.859437631325756
% es.Ey (V/m) @ t=0.3
-0.8978385156726656
% es.Ez (V/m) @ t=0.3
4.681058007749735
% es.tEx (V/m) @ t=0.3
5.859437631325788
% es.tEy (V/m) @ t=0.3
0
% es.tEz (V/m) @ t=0.3
4.681058007749735
% V (V) @ t=0.3
0.006244695413125619
% es.normE (V/m) @ t=0.32
7.635908672986815
% es.EX (V/m) @ t=0.32
5.916942952433615
% es.EY (V/m) @ t=0.32
-0.9066479698115115
% es.EZ (V/m) @ t=0.32
4.7269993541691955
% es.tEX (V/m) @ t=0.32
5.916942952433644
% es.tEY (V/m) @ t=0.32
0
% es.tEZ (V/m) @ t=0.32
4.726999354169202
% es.Ex (V/m) @ t=0.32
5.916942952433615
% es.Ey (V/m) @ t=0.32
-0.9066479698115115
% es.Ez (V/m) @ t=0.32
4.7269993541691955
% es.tEx (V/m) @ t=0.32
5.916942952433644
% es.tEy (V/m) @ t=0.32
0
% es.tEz (V/m) @ t=0.32
4.726999354169202
% V (V) @ t=0.32
0.0063059779343022145
% es.normE (V/m) @ t=0.34
7.710120400099151
% es.EX (V/m) @ t=0.34
5.974448273541505
% es.EY (V/m) @ t=0.34
-0.9154574239503619
% es.EZ (V/m) @ t=0.34
4.7729407005886495
% es.tEX (V/m) @ t=0.34
5.974448273541513
% es.tEY (V/m) @ t=0.34
0
% es.tEZ (V/m) @ t=0.34
4.772940700588656
% es.Ex (V/m) @ t=0.34
5.974448273541505
% es.Ey (V/m) @ t=0.34
-0.9154574239503619
% es.Ez (V/m) @ t=0.34
4.7729407005886495
% es.tEx (V/m) @ t=0.34
5.974448273541513
% es.tEy (V/m) @ t=0.34
0
% es.tEz (V/m) @ t=0.34
4.772940700588656
% V (V) @ t=0.34
0.00636726045547881
% es.normE (V/m) @ t=0.36
7.7843321272121955
% es.EX (V/m) @ t=0.36
6.031953594649325
% es.EY (V/m) @ t=0.36
-0.9242668780892211
% es.EZ (V/m) @ t=0.36
4.818882047008117
% es.tEX (V/m) @ t=0.36
6.031953594649354
% es.tEY (V/m) @ t=0.36
0
% es.tEZ (V/m) @ t=0.36
4.818882047008109
% es.Ex (V/m) @ t=0.36
6.031953594649325
% es.Ey (V/m) @ t=0.36
-0.9242668780892211
% es.Ez (V/m) @ t=0.36
4.818882047008117
% es.tEx (V/m) @ t=0.36
6.031953594649354
% es.tEy (V/m) @ t=0.36
0
% es.tEz (V/m) @ t=0.36
4.818882047008109
% V (V) @ t=0.36
0.006428542976655405
% es.normE (V/m) @ t=0.38
7.8585438543260135
% es.EX (V/m) @ t=0.38
6.089458915757197
% es.EY (V/m) @ t=0.38
-0.9330763322280822
% es.EZ (V/m) @ t=0.38
4.864823393427585
% es.tEX (V/m) @ t=0.38
6.089458915757224
% es.tEY (V/m) @ t=0.38
0
% es.tEZ (V/m) @ t=0.38
4.86482339342759
% es.Ex (V/m) @ t=0.38
6.089458915757197
% es.Ey (V/m) @ t=0.38
-0.9330763322280822
% es.Ez (V/m) @ t=0.38
4.864823393427585
% es.tEx (V/m) @ t=0.38
6.089458915757224
% es.tEy (V/m) @ t=0.38
0
% es.tEz (V/m) @ t=0.38
4.86482339342759
% V (V) @ t=0.38
0.006489825497831998
% es.normE (V/m) @ t=0.4
7.932755581440543
% es.EX (V/m) @ t=0.4
6.146964236865066
% es.EY (V/m) @ t=0.4
-0.9418857863669361
% es.EZ (V/m) @ t=0.4
4.910764739847053
% es.tEX (V/m) @ t=0.4
6.146964236865094
% es.tEY (V/m) @ t=0.4
0
% es.tEZ (V/m) @ t=0.4
4.9107647398470435
% es.Ex (V/m) @ t=0.4
6.146964236865066
% es.Ey (V/m) @ t=0.4
-0.9418857863669361
% es.Ez (V/m) @ t=0.4
4.910764739847053
% es.tEx (V/m) @ t=0.4
6.146964236865094
% es.tEy (V/m) @ t=0.4
0
% es.tEz (V/m) @ t=0.4
4.9107647398470435
% V (V) @ t=0.4
0.006551108019008594
% es.normE (V/m) @ t=0.42
8.006967308555753
% es.EX (V/m) @ t=0.42
6.204469557972931
% es.EY (V/m) @ t=0.42
-0.9506952405057945
% es.EZ (V/m) @ t=0.42
4.956706086266507
% es.tEX (V/m) @ t=0.42
6.204469557972963
% es.tEY (V/m) @ t=0.42
0
% es.tEZ (V/m) @ t=0.42
4.9567060862664984
% es.Ex (V/m) @ t=0.42
6.204469557972931
% es.Ey (V/m) @ t=0.42
-0.9506952405057945
% es.Ez (V/m) @ t=0.42
4.956706086266507
% es.tEx (V/m) @ t=0.42
6.204469557972963
% es.tEy (V/m) @ t=0.42
0
% es.tEz (V/m) @ t=0.42
4.9567060862664984
% V (V) @ t=0.42
0.006612390540185188
% es.normE (V/m) @ t=0.44
8.081179035671651
% es.EX (V/m) @ t=0.44
6.261974879080797
% es.EY (V/m) @ t=0.44
-0.9595046946446555
% es.EZ (V/m) @ t=0.44
5.002647432685983
% es.tEX (V/m) @ t=0.44
6.261974879080819
% es.tEY (V/m) @ t=0.44
0
% es.tEZ (V/m) @ t=0.44
5.00264743268598
% es.Ex (V/m) @ t=0.44
6.261974879080797
% es.Ey (V/m) @ t=0.44
-0.9595046946446555
% es.Ez (V/m) @ t=0.44
5.002647432685983
% es.tEx (V/m) @ t=0.44
6.261974879080819
% es.tEy (V/m) @ t=0.44
0
% es.tEz (V/m) @ t=0.44
5.00264743268598
% V (V) @ t=0.44
0.006673673061361783
% es.normE (V/m) @ t=0.46
8.155390762788198
% es.EX (V/m) @ t=0.46
6.31948020018867
% es.EY (V/m) @ t=0.46
-0.9683141487834952
% es.EZ (V/m) @ t=0.46
5.048588779105443
% es.tEX (V/m) @ t=0.46
6.319480200188675
% es.tEY (V/m) @ t=0.46
0
% es.tEZ (V/m) @ t=0.46
5.04858877910544
% es.Ex (V/m) @ t=0.46
6.31948020018867
% es.Ey (V/m) @ t=0.46
-0.9683141487834952
% es.Ez (V/m) @ t=0.46
5.048588779105443
% es.tEx (V/m) @ t=0.46
6.319480200188675
% es.tEy (V/m) @ t=0.46
0
% es.tEz (V/m) @ t=0.46
5.04858877910544
% V (V) @ t=0.46
0.006734955582538378
% es.normE (V/m) @ t=0.48
8.22960248990535
% es.EX (V/m) @ t=0.48
6.376985521296507
% es.EY (V/m) @ t=0.48
-0.977123602922358
% es.EZ (V/m) @ t=0.48
5.0945301255248925
% es.tEX (V/m) @ t=0.48
6.376985521296531
% es.tEY (V/m) @ t=0.48
0
% es.tEZ (V/m) @ t=0.48
5.094530125524887
% es.Ex (V/m) @ t=0.48
6.376985521296507
% es.Ey (V/m) @ t=0.48
-0.977123602922358
% es.Ez (V/m) @ t=0.48
5.0945301255248925
% es.tEx (V/m) @ t=0.48
6.376985521296531
% es.tEy (V/m) @ t=0.48
0
% es.tEz (V/m) @ t=0.48
5.094530125524887
% V (V) @ t=0.48
0.006796238103714974
% es.normE (V/m) @ t=0.5
8.303814217023165
% es.EX (V/m) @ t=0.5
6.4344908424043865
% es.EY (V/m) @ t=0.5
-0.9859330570612199
% es.EZ (V/m) @ t=0.5
5.140471471944357
% es.tEX (V/m) @ t=0.5
6.434490842404372
% es.tEY (V/m) @ t=0.5
0
% es.tEZ (V/m) @ t=0.5
5.1404714719443545
% es.Ex (V/m) @ t=0.5
6.4344908424043865
% es.Ey (V/m) @ t=0.5
-0.9859330570612199
% es.Ez (V/m) @ t=0.5
5.140471471944357
% es.tEx (V/m) @ t=0.5
6.434490842404372
% es.tEy (V/m) @ t=0.5
0
% es.tEz (V/m) @ t=0.5
5.1404714719443545
% V (V) @ t=0.5
0.006857520624891568
% es.normE (V/m) @ t=0.52
8.378025944141566
% es.EX (V/m) @ t=0.52
6.491996163512238
% es.EY (V/m) @ t=0.52
-0.9947425112000845
% es.EZ (V/m) @ t=0.52
5.186412818363829
% es.tEX (V/m) @ t=0.52
6.491996163512242
% es.tEY (V/m) @ t=0.52
0
% es.tEZ (V/m) @ t=0.52
5.186412818363822
% es.Ex (V/m) @ t=0.52
6.491996163512238
% es.Ey (V/m) @ t=0.52
-0.9947425112000845
% es.Ez (V/m) @ t=0.52
5.186412818363829
% es.tEx (V/m) @ t=0.52
6.491996163512242
% es.tEy (V/m) @ t=0.52
0
% es.tEz (V/m) @ t=0.52
5.186412818363822
% V (V) @ t=0.52
0.006918803146068163
% es.normE (V/m) @ t=0.54
8.45223767126053
% es.EX (V/m) @ t=0.54
6.549501484620068
% es.EY (V/m) @ t=0.54
-1.0035519653389313
% es.EZ (V/m) @ t=0.54
5.2323541647832865
% es.tEX (V/m) @ t=0.54
6.549501484620084
% es.tEY (V/m) @ t=0.54
0
% es.tEZ (V/m) @ t=0.54
5.232354164783289
% es.Ex (V/m) @ t=0.54
6.549501484620068
% es.Ey (V/m) @ t=0.54
-1.0035519653389313
% es.Ez (V/m) @ t=0.54
5.2323541647832865
% es.tEx (V/m) @ t=0.54
6.549501484620084
% es.tEy (V/m) @ t=0.54
0
% es.tEz (V/m) @ t=0.54
5.232354164783289
% V (V) @ t=0.54
0.006980085667244757
% es.normE (V/m) @ t=0.56
8.533244889687072
% es.EX (V/m) @ t=0.56
6.612273985886808
% es.EY (V/m) @ t=0.56
-1.0131879510058805
% es.EZ (V/m) @ t=0.56
5.2824958312517785
% es.tEX (V/m) @ t=0.56
6.612273985886829
% es.tEY (V/m) @ t=0.56
0
% es.tEZ (V/m) @ t=0.56
5.282495831251783
% es.Ex (V/m) @ t=0.56
6.612273985886808
% es.Ey (V/m) @ t=0.56
-1.0131879510058805
% es.Ez (V/m) @ t=0.56
5.2824958312517785
% es.tEx (V/m) @ t=0.56
6.612273985886829
% es.tEy (V/m) @ t=0.56
0
% es.tEz (V/m) @ t=0.56
5.282495831251783
% V (V) @ t=0.56
0.007047017414326796
% es.normE (V/m) @ t=0.58
8.61611992299859
% es.EX (V/m) @ t=0.58
6.676494228994253
% es.EY (V/m) @ t=0.58
-1.0230511178665598
% es.EZ (V/m) @ t=0.58
5.333792001438768
% es.tEX (V/m) @ t=0.58
6.67649422899429
% es.tEY (V/m) @ t=0.58
0
% es.tEZ (V/m) @ t=0.58
5.333792001438775
% es.Ex (V/m) @ t=0.58
6.676494228994253
% es.Ey (V/m) @ t=0.58
-1.0230511178665598
% es.Ez (V/m) @ t=0.58
5.333792001438768
% es.tEx (V/m) @ t=0.58
6.67649422899429
% es.tEy (V/m) @ t=0.58
0
% es.tEz (V/m) @ t=0.58
5.333792001438775
% V (V) @ t=0.58
0.007115501912684563
% es.normE (V/m) @ t=0.6
8.698994956394888
% es.EX (V/m) @ t=0.6
6.740714472101754
% es.EY (V/m) @ t=0.6
-1.0329142847272266
% es.EZ (V/m) @ t=0.6
5.385088171625798
% es.tEX (V/m) @ t=0.6
6.740714472101779
% es.tEY (V/m) @ t=0.6
0
% es.tEZ (V/m) @ t=0.6
5.38508817162579
% es.Ex (V/m) @ t=0.6
6.740714472101754
% es.Ey (V/m) @ t=0.6
-1.0329142847272266
% es.Ez (V/m) @ t=0.6
5.385088171625798
% es.tEx (V/m) @ t=0.6
6.740714472101779
% es.tEy (V/m) @ t=0.6
0
% es.tEz (V/m) @ t=0.6
5.38508817162579
% V (V) @ t=0.6
0.00718398641104233
% es.normE (V/m) @ t=0.62
8.781869989873435
% es.EX (V/m) @ t=0.62
6.804934715209212
% es.EY (V/m) @ t=0.62
-1.0427774515878898
% es.EZ (V/m) @ t=0.62
5.436384341812786
% es.tEX (V/m) @ t=0.62
6.80493471520924
% es.tEY (V/m) @ t=0.62
0
% es.tEZ (V/m) @ t=0.62
5.436384341812775
% es.Ex (V/m) @ t=0.62
6.804934715209212
% es.Ey (V/m) @ t=0.62
-1.0427774515878898
% es.Ez (V/m) @ t=0.62
5.436384341812786
% es.tEx (V/m) @ t=0.62
6.80493471520924
% es.tEy (V/m) @ t=0.62
0
% es.tEz (V/m) @ t=0.62
5.436384341812775
% V (V) @ t=0.62
0.0072524709094000965
% es.normE (V/m) @ t=0.64
8.864745023432018
% es.EX (V/m) @ t=0.64
6.869154958316693
% es.EY (V/m) @ t=0.64
-1.0526406184485442
% es.EZ (V/m) @ t=0.64
5.487680511999795
% es.tEX (V/m) @ t=0.64
6.869154958316715
% es.tEY (V/m) @ t=0.64
0
% es.tEZ (V/m) @ t=0.64
5.487680511999796
% es.Ex (V/m) @ t=0.64
6.869154958316693
% es.Ey (V/m) @ t=0.64
-1.0526406184485442
% es.Ez (V/m) @ t=0.64
5.487680511999795
% es.tEx (V/m) @ t=0.64
6.869154958316715
% es.tEy (V/m) @ t=0.64
0
% es.tEz (V/m) @ t=0.64
5.487680511999796
% V (V) @ t=0.64
0.007320955407757864
% es.normE (V/m) @ t=0.66
8.947620057068356
% es.EX (V/m) @ t=0.66
6.933375201424144
% es.EY (V/m) @ t=0.66
-1.0625037853092074
% es.EZ (V/m) @ t=0.66
5.5389766821867985
% es.tEX (V/m) @ t=0.66
6.9333752014241465
% es.tEY (V/m) @ t=0.66
0
% es.tEZ (V/m) @ t=0.66
5.53897668218681
% es.Ex (V/m) @ t=0.66
6.933375201424144
% es.Ey (V/m) @ t=0.66
-1.0625037853092074
% es.Ez (V/m) @ t=0.66
5.5389766821867985
% es.tEx (V/m) @ t=0.66
6.9333752014241465
% es.tEy (V/m) @ t=0.66
0
% es.tEz (V/m) @ t=0.66
5.53897668218681
% V (V) @ t=0.66
0.007389439906115631
% es.normE (V/m) @ t=0.68
9.03049509078037
% es.EX (V/m) @ t=0.68
6.997595444531631
% es.EY (V/m) @ t=0.68
-1.0723669521698813
% es.EZ (V/m) @ t=0.68
5.5902728523738165
% es.tEX (V/m) @ t=0.68
6.997595444531636
% es.tEY (V/m) @ t=0.68
0
% es.tEZ (V/m) @ t=0.68
5.5902728523738165
% es.Ex (V/m) @ t=0.68
6.997595444531631
% es.Ey (V/m) @ t=0.68
-1.0723669521698813
% es.Ez (V/m) @ t=0.68
5.5902728523738165
% es.tEx (V/m) @ t=0.68
6.997595444531636
% es.tEy (V/m) @ t=0.68
0
% es.tEz (V/m) @ t=0.68
5.5902728523738165
% V (V) @ t=0.68
0.007457924404473397
% es.normE (V/m) @ t=0.7
9.113370124565925
% es.EX (V/m) @ t=0.7
7.061815687639089
% es.EY (V/m) @ t=0.7
-1.0822301190305659
% es.EZ (V/m) @ t=0.7
5.641569022560811
% es.tEX (V/m) @ t=0.7
7.061815687639096
% es.tEY (V/m) @ t=0.7
0
% es.tEZ (V/m) @ t=0.7
5.64156902256081
% es.Ex (V/m) @ t=0.7
7.061815687639089
% es.Ey (V/m) @ t=0.7
-1.0822301190305659
% es.Ez (V/m) @ t=0.7
5.641569022560811
% es.tEx (V/m) @ t=0.7
7.061815687639096
% es.tEy (V/m) @ t=0.7
0
% es.tEz (V/m) @ t=0.7
5.64156902256081
% V (V) @ t=0.7
0.007526408902831164
% es.normE (V/m) @ t=0.72
9.196245158423086
% es.EX (V/m) @ t=0.72
7.1260359307465695
% es.EY (V/m) @ t=0.72
-1.092093285891215
% es.EZ (V/m) @ t=0.72
5.69286519274781
% es.tEX (V/m) @ t=0.72
7.1260359307465855
% es.tEY (V/m) @ t=0.72
0
% es.tEZ (V/m) @ t=0.72
5.692865192747809
% es.Ex (V/m) @ t=0.72
7.1260359307465695
% es.Ey (V/m) @ t=0.72
-1.092093285891215
% es.Ez (V/m) @ t=0.72
5.69286519274781
% es.tEx (V/m) @ t=0.72
7.1260359307465855
% es.tEy (V/m) @ t=0.72
0
% es.tEz (V/m) @ t=0.72
5.692865192747809
% V (V) @ t=0.72
0.007594893401188931
% es.normE (V/m) @ t=0.74
9.27912019234989
% es.EX (V/m) @ t=0.74
7.190256173854014
% es.EY (V/m) @ t=0.74
-1.1019564527518888
% es.EZ (V/m) @ t=0.74
5.744161362934818
% es.tEX (V/m) @ t=0.74
7.190256173854031
% es.tEY (V/m) @ t=0.74
0
% es.tEZ (V/m) @ t=0.74
5.7441613629348165
% es.Ex (V/m) @ t=0.74
7.190256173854014
% es.Ey (V/m) @ t=0.74
-1.1019564527518888
% es.Ez (V/m) @ t=0.74
5.744161362934818
% es.tEx (V/m) @ t=0.74
7.190256173854031
% es.tEy (V/m) @ t=0.74
0
% es.tEz (V/m) @ t=0.74
5.7441613629348165
% V (V) @ t=0.74
0.007663377899546698
% es.normE (V/m) @ t=0.76
9.361995226344533
% es.EX (V/m) @ t=0.76
7.254476416961479
% es.EY (V/m) @ t=0.76
-1.1118196196125396
% es.EZ (V/m) @ t=0.76
5.795457533121829
% es.tEX (V/m) @ t=0.76
7.2544764169615075
% es.tEY (V/m) @ t=0.76
0
% es.tEZ (V/m) @ t=0.76
5.795457533121816
% es.Ex (V/m) @ t=0.76
7.254476416961479
% es.Ey (V/m) @ t=0.76
-1.1118196196125396
% es.Ez (V/m) @ t=0.76
5.795457533121829
% es.tEx (V/m) @ t=0.76
7.2544764169615075
% es.tEy (V/m) @ t=0.76
0
% es.tEz (V/m) @ t=0.76
5.795457533121816
% V (V) @ t=0.76
0.0077318623979044645
% es.normE (V/m) @ t=0.78
9.44487026040521
% es.EX (V/m) @ t=0.78
7.318696660068952
% es.EY (V/m) @ t=0.78
-1.1216827864732188
% es.EZ (V/m) @ t=0.78
5.846753703308837
% es.tEX (V/m) @ t=0.78
7.318696660068982
% es.tEY (V/m) @ t=0.78
0
% es.tEZ (V/m) @ t=0.78
5.846753703308845
% es.Ex (V/m) @ t=0.78
7.318696660068952
% es.Ey (V/m) @ t=0.78
-1.1216827864732188
% es.Ez (V/m) @ t=0.78
5.846753703308837
% es.tEx (V/m) @ t=0.78
7.318696660068982
% es.tEy (V/m) @ t=0.78
0
% es.tEz (V/m) @ t=0.78
5.846753703308845
% V (V) @ t=0.78
0.007800346896262233
% es.normE (V/m) @ t=0.8
9.527745294530192
% es.EX (V/m) @ t=0.8
7.382916903176425
% es.EY (V/m) @ t=0.8
-1.1315459533338572
% es.EZ (V/m) @ t=0.8
5.898049873495838
% es.tEX (V/m) @ t=0.8
7.38291690317647
% es.tEY (V/m) @ t=0.8
0
% es.tEZ (V/m) @ t=0.8
5.89804987349583
% es.Ex (V/m) @ t=0.8
7.382916903176425
% es.Ey (V/m) @ t=0.8
-1.1315459533338572
% es.Ez (V/m) @ t=0.8
5.898049873495838
% es.tEx (V/m) @ t=0.8
7.38291690317647
% es.tEy (V/m) @ t=0.8
0
% es.tEz (V/m) @ t=0.8
5.89804987349583
% V (V) @ t=0.8
0.007868831394619998
% es.normE (V/m) @ t=0.82
9.612376112796186
% es.EX (V/m) @ t=0.82
7.448497033157286
% es.EY (V/m) @ t=0.82
-1.1416089527908433
% es.EZ (V/m) @ t=0.82
5.950435779291012
% es.tEX (V/m) @ t=0.82
7.448497033157307
% es.tEY (V/m) @ t=0.82
0
% es.tEZ (V/m) @ t=0.82
5.950435779291023
% es.Ex (V/m) @ t=0.82
7.448497033157286
% es.Ey (V/m) @ t=0.82
-1.1416089527908433
% es.Ez (V/m) @ t=0.82
5.950435779291012
% es.tEx (V/m) @ t=0.82
7.448497033157307
% es.tEy (V/m) @ t=0.82
0
% es.tEz (V/m) @ t=0.82
5.950435779291023
% V (V) @ t=0.82
0.007938749493899843
% es.normE (V/m) @ t=0.84
9.704920601993601
% es.EX (V/m) @ t=0.84
7.520206445907946
% es.EY (V/m) @ t=0.84
-1.152572637822125
% es.EZ (V/m) @ t=0.84
6.007733341943606
% es.tEX (V/m) @ t=0.84
7.520206445907975
% es.tEY (V/m) @ t=0.84
0
% es.tEZ (V/m) @ t=0.84
6.007733341943591
% es.Ex (V/m) @ t=0.84
7.520206445907946
% es.Ey (V/m) @ t=0.84
-1.152572637822125
% es.Ez (V/m) @ t=0.84
6.007733341943606
% es.tEx (V/m) @ t=0.84
7.520206445907975
% es.tEy (V/m) @ t=0.84
0
% es.tEz (V/m) @ t=0.84
6.007733341943591
% V (V) @ t=0.84
0.008015129119945341
% es.normE (V/m) @ t=0.86
9.79746509129652
% es.EX (V/m) @ t=0.86
7.591915858658663
% es.EY (V/m) @ t=0.86
-1.1635363228533944
% es.EZ (V/m) @ t=0.86
6.065030904596182
% es.tEX (V/m) @ t=0.86
7.5919158586586875
% es.tEY (V/m) @ t=0.86
0
% es.tEZ (V/m) @ t=0.86
6.065030904596185
% es.Ex (V/m) @ t=0.86
7.591915858658663
% es.Ey (V/m) @ t=0.86
-1.1635363228533944
% es.Ez (V/m) @ t=0.86
6.065030904596182
% es.tEx (V/m) @ t=0.86
7.5919158586586875
% es.tEy (V/m) @ t=0.86
0
% es.tEz (V/m) @ t=0.86
6.065030904596185
% V (V) @ t=0.86
0.008091508745990841
% es.normE (V/m) @ t=0.88
9.890009580701964
% es.EX (V/m) @ t=0.88
7.663625271409386
% es.EY (V/m) @ t=0.88
-1.1745000078846424
% es.EZ (V/m) @ t=0.88
6.1223284672487726
% es.tEX (V/m) @ t=0.88
7.663625271409414
% es.tEY (V/m) @ t=0.88
0
% es.tEZ (V/m) @ t=0.88
6.1223284672487726
% es.Ex (V/m) @ t=0.88
7.663625271409386
% es.Ey (V/m) @ t=0.88
-1.1745000078846424
% es.Ez (V/m) @ t=0.88
6.1223284672487726
% es.tEx (V/m) @ t=0.88
7.663625271409414
% es.tEy (V/m) @ t=0.88
0
% es.tEz (V/m) @ t=0.88
6.1223284672487726
% V (V) @ t=0.88
0.008167888372036344
% es.normE (V/m) @ t=0.9
9.98255407020708
% es.EX (V/m) @ t=0.9
7.735334684160124
% es.EY (V/m) @ t=0.9
-1.1854636929159135
% es.EZ (V/m) @ t=0.9
6.179626029901369
% es.tEX (V/m) @ t=0.9
7.73533468416014
% es.tEY (V/m) @ t=0.9
0
% es.tEZ (V/m) @ t=0.9
6.179626029901367
% es.Ex (V/m) @ t=0.9
7.735334684160124
% es.Ey (V/m) @ t=0.9
-1.1854636929159135
% es.Ez (V/m) @ t=0.9
6.179626029901369
% es.tEx (V/m) @ t=0.9
7.73533468416014
% es.tEy (V/m) @ t=0.9
0
% es.tEz (V/m) @ t=0.9
6.179626029901367
% V (V) @ t=0.9
0.008244267998081842
% es.normE (V/m) @ t=0.92
10.075098559809035
% es.EX (V/m) @ t=0.92
7.807044096910769
% es.EY (V/m) @ t=0.92
-1.196427377947197
% es.EZ (V/m) @ t=0.92
6.2369235925539535
% es.tEX (V/m) @ t=0.92
7.8070440969108095
% es.tEY (V/m) @ t=0.92
0
% es.tEZ (V/m) @ t=0.92
6.236923592553947
% es.Ex (V/m) @ t=0.92
7.807044096910769
% es.Ey (V/m) @ t=0.92
-1.196427377947197
% es.Ez (V/m) @ t=0.92
6.2369235925539535
% es.tEx (V/m) @ t=0.92
7.8070440969108095
% es.tEy (V/m) @ t=0.92
0
% es.tEz (V/m) @ t=0.92
6.236923592553947
% V (V) @ t=0.92
0.008320647624127342
% es.normE (V/m) @ t=0.94
10.167643049505308
% es.EX (V/m) @ t=0.94
7.878753509661485
% es.EY (V/m) @ t=0.94
-1.207391062978477
% es.EZ (V/m) @ t=0.94
6.294221155206536
% es.tEX (V/m) @ t=0.94
7.87875350966152
% es.tEY (V/m) @ t=0.94
0
% es.tEZ (V/m) @ t=0.94
6.294221155206549
% es.Ex (V/m) @ t=0.94
7.878753509661485
% es.Ey (V/m) @ t=0.94
-1.207391062978477
% es.Ez (V/m) @ t=0.94
6.294221155206536
% es.tEx (V/m) @ t=0.94
7.87875350966152
% es.tEy (V/m) @ t=0.94
0
% es.tEz (V/m) @ t=0.94
6.294221155206549
% V (V) @ t=0.94
0.008397027250172844
% es.normE (V/m) @ t=0.96
10.260187539293291
% es.EX (V/m) @ t=0.96
7.950462922412173
% es.EY (V/m) @ t=0.96
-1.2183547480097392
% es.EZ (V/m) @ t=0.96
6.351518717859145
% es.tEX (V/m) @ t=0.96
7.950462922412218
% es.tEY (V/m) @ t=0.96
0
% es.tEZ (V/m) @ t=0.96
6.351518717859131
% es.Ex (V/m) @ t=0.96
7.950462922412173
% es.Ey (V/m) @ t=0.96
-1.2183547480097392
% es.Ez (V/m) @ t=0.96
6.351518717859145
% es.tEx (V/m) @ t=0.96
7.950462922412218
% es.tEy (V/m) @ t=0.96
0
% es.tEz (V/m) @ t=0.96
6.351518717859131
% V (V) @ t=0.96
0.008473406876218342
% es.normE (V/m) @ t=0.98
10.35273202917054
% es.EX (V/m) @ t=0.98
8.022172335162903
% es.EY (V/m) @ t=0.98
-1.2293184330409925
% es.EZ (V/m) @ t=0.98
6.408816280511717
% es.tEX (V/m) @ t=0.98
8.02217233516293
% es.tEY (V/m) @ t=0.98
0
% es.tEZ (V/m) @ t=0.98
6.408816280511718
% es.Ex (V/m) @ t=0.98
8.022172335162903
% es.Ey (V/m) @ t=0.98
-1.2293184330409925
% es.Ez (V/m) @ t=0.98
6.408816280511717
% es.tEx (V/m) @ t=0.98
8.02217233516293
% es.tEy (V/m) @ t=0.98
0
% es.tEz (V/m) @ t=0.98
6.408816280511718
% V (V) @ t=0.98
0.008549786502263842
% es.normE (V/m) @ t=1
10.445276519134671
% es.EX (V/m) @ t=1
8.09388174791362
% es.EY (V/m) @ t=1
-1.2402821180722956
% es.EZ (V/m) @ t=1
6.466113843164294
% es.tEX (V/m) @ t=1
8.093881747913628
% es.tEY (V/m) @ t=1
0
% es.tEZ (V/m) @ t=1
6.466113843164291
% es.Ex (V/m) @ t=1
8.09388174791362
% es.Ey (V/m) @ t=1
-1.2402821180722956
% es.Ez (V/m) @ t=1
6.466113843164294
% es.tEx (V/m) @ t=1
8.093881747913628
% es.tEy (V/m) @ t=1
0
% es.tEz (V/m) @ t=1
6.466113843164291
% V (V) @ t=1
0.008626166128309343
% es.normE (V/m) @ t=1.02
10.537821009183414
% es.EX (V/m) @ t=1.02
8.16559116066435
% es.EY (V/m) @ t=1.02
-1.251245803103549
% es.EZ (V/m) @ t=1.02
6.523411405816887
% es.tEX (V/m) @ t=1.02
8.16559116066438
% es.tEY (V/m) @ t=1.02
0
% es.tEZ (V/m) @ t=1.02
6.523411405816893
% es.Ex (V/m) @ t=1.02
8.16559116066435
% es.Ey (V/m) @ t=1.02
-1.251245803103549
% es.Ez (V/m) @ t=1.02
6.523411405816887
% es.tEx (V/m) @ t=1.02
8.16559116066438
% es.tEy (V/m) @ t=1.02
0
% es.tEz (V/m) @ t=1.02
6.523411405816893
% V (V) @ t=1.02
0.008702545754354845
% es.normE (V/m) @ t=1.04
10.630365499314465
% es.EX (V/m) @ t=1.04
8.237300573414988
% es.EY (V/m) @ t=1.04
-1.262209488134813
% es.EZ (V/m) @ t=1.04
6.580708968469471
% es.tEX (V/m) @ t=1.04
8.237300573415022
% es.tEY (V/m) @ t=1.04
0
% es.tEZ (V/m) @ t=1.04
6.580708968469467
% es.Ex (V/m) @ t=1.04
8.237300573414988
% es.Ey (V/m) @ t=1.04
-1.262209488134813
% es.Ez (V/m) @ t=1.04
6.580708968469471
% es.tEx (V/m) @ t=1.04
8.237300573415022
% es.tEy (V/m) @ t=1.04
0
% es.tEz (V/m) @ t=1.04
6.580708968469467
% V (V) @ t=1.04
0.008778925380400343
% es.normE (V/m) @ t=1.06
10.722909989525848
% es.EX (V/m) @ t=1.06
8.30900998616572
% es.EY (V/m) @ t=1.06
-1.2731731731660805
% es.EZ (V/m) @ t=1.06
6.638006531122057
% es.tEX (V/m) @ t=1.06
8.309009986165748