% Model:              1 neuron.mph
% Version:            COMSOL 6.0.0.405
% Date:               Mar 9 2023, 13:31
% Dimension:          0
% Nodes:              14017
% Expressions:        14017
% Description:        Electric field norm, Electric field, X component, Electric field, Y component, Electric field, Z component, Tangential electric field, X component, Tangential electric field, Y component, Tangential electric field, Z component, Electric field, x component, Electric field, y component, Electric field, z component, Tangential electric field, x component, Tangential electric field, y component, Tangential electric field, z component, Electric potential
% Length unit:        mm
% x
1.66
% y
12.2
% z
1
% es.normE (V/m) @ t=0
1.484198927703543
% es.EX (V/m) @ t=0
-0.529024725947698
% es.EY (V/m) @ t=0
0.16806875631282525
% es.EZ (V/m) @ t=0
1.3722293517303448
% es.tEX (V/m) @ t=0
-0.5290247259477069
% es.tEY (V/m) @ t=0
0
% es.tEZ (V/m) @ t=0
1.372229351730346
% es.Ex (V/m) @ t=0
-0.529024725947698
% es.Ey (V/m) @ t=0
0.16806875631282525
% es.Ez (V/m) @ t=0
1.3722293517303448
% es.tEx (V/m) @ t=0
-0.5290247259477069
% es.tEy (V/m) @ t=0
0
% es.tEz (V/m) @ t=0
1.372229351730346
% V (V) @ t=0
0.00722624666199336
% es.normE (V/m) @ t=0.02
1.2819326107402587
% es.EX (V/m) @ t=0.02
-0.45692934869399526
% es.EY (V/m) @ t=0.02
0.14516438117210384
% es.EZ (V/m) @ t=0.02
1.185222224681021
% es.tEX (V/m) @ t=0.02
-0.45692934869400237
% es.tEY (V/m) @ t=0.02
0
% es.tEZ (V/m) @ t=0.02
1.185222224681021
% es.Ex (V/m) @ t=0.02
-0.45692934869399526
% es.Ey (V/m) @ t=0.02
0.14516438117210384
% es.Ez (V/m) @ t=0.02
1.185222224681021
% es.tEx (V/m) @ t=0.02
-0.45692934869400237
% es.tEy (V/m) @ t=0.02
0
% es.tEz (V/m) @ t=0.02
1.185222224681021
% V (V) @ t=0.02
0.006241455241012292
% es.normE (V/m) @ t=0.04
1.2937254176077775
% es.EX (V/m) @ t=0.04
-0.4611327529857533
% es.EY (V/m) @ t=0.04
0.14649978265948438
% es.EZ (V/m) @ t=0.04
1.1961253690208005
% es.tEX (V/m) @ t=0.04
-0.4611327529857604
% es.tEY (V/m) @ t=0.04
0
% es.tEZ (V/m) @ t=0.04
1.1961253690208018
% es.Ex (V/m) @ t=0.04
-0.4611327529857533
% es.Ey (V/m) @ t=0.04
0.14649978265948438
% es.Ez (V/m) @ t=0.04
1.1961253690208005
% es.tEx (V/m) @ t=0.04
-0.4611327529857604
% es.tEy (V/m) @ t=0.04
0
% es.tEz (V/m) @ t=0.04
1.1961253690208018
% V (V) @ t=0.04
0.0062988718255447464
% es.normE (V/m) @ t=0.06
1.305624869179093
% es.EX (V/m) @ t=0.06
-0.46537416840467394
% es.EY (V/m) @ t=0.06
0.1478472610452538
% es.EZ (V/m) @ t=0.06
1.2071271130412216
% es.tEX (V/m) @ t=0.06
-0.4653741684046757
% es.tEY (V/m) @ t=0.06
0
% es.tEZ (V/m) @ t=0.06
1.2071271130412224
% es.Ex (V/m) @ t=0.06
-0.46537416840467394
% es.Ey (V/m) @ t=0.06
0.1478472610452538
% es.Ez (V/m) @ t=0.06
1.2071271130412216
% es.tEx (V/m) @ t=0.06
-0.4653741684046757
% es.tEy (V/m) @ t=0.06
0
% es.tEz (V/m) @ t=0.06
1.2071271130412224
% V (V) @ t=0.06
0.006356807702263284
% es.normE (V/m) @ t=0.08
1.317705186837728
% es.EX (V/m) @ t=0.08
-0.4696800514625086
% es.EY (V/m) @ t=0.08
0.14921522040700008
% es.EZ (V/m) @ t=0.08
1.2182960783770067
% es.tEX (V/m) @ t=0.08
-0.4696800514625157
% es.tEY (V/m) @ t=0.08
0
% es.tEZ (V/m) @ t=0.08
1.2182960783770111
% es.Ex (V/m) @ t=0.08
-0.4696800514625086
% es.Ey (V/m) @ t=0.08
0.14921522040700008
% es.Ez (V/m) @ t=0.08
1.2182960783770067
% es.tEx (V/m) @ t=0.08
-0.4696800514625157
% es.tEy (V/m) @ t=0.08
0
% es.tEz (V/m) @ t=0.08
1.2182960783770111
% V (V) @ t=0.08
0.006415624170785171
% es.normE (V/m) @ t=0.1
1.3299128054206855
% es.EX (V/m) @ t=0.1
-0.4740313094722939
% es.EY (V/m) @ t=0.1
0.15059759511444115
% es.EZ (V/m) @ t=0.1
1.2295827408904554
% es.tEX (V/m) @ t=0.1
-0.47403130947229744
% es.tEY (V/m) @ t=0.1
0
% es.tEZ (V/m) @ t=0.1
1.2295827408904527
% es.Ex (V/m) @ t=0.1
-0.4740313094722939
% es.Ey (V/m) @ t=0.1
0.15059759511444115
% es.Ez (V/m) @ t=0.1
1.2295827408904554
% es.tEx (V/m) @ t=0.1
-0.47403130947229744
% es.tEy (V/m) @ t=0.1
0
% es.tEz (V/m) @ t=0.1
1.2295827408904527
% V (V) @ t=0.1
0.006475060435710958
% es.normE (V/m) @ t=0.12
1.3421204240036353
% es.EX (V/m) @ t=0.12
-0.4783825674820844
% es.EY (V/m) @ t=0.12
0.15197996982187956
% es.EZ (V/m) @ t=0.12
1.2408694034038934
% es.tEX (V/m) @ t=0.12
-0.47838256748208974
% es.tEY (V/m) @ t=0.12
0
% es.tEZ (V/m) @ t=0.12
1.2408694034038925
% es.Ex (V/m) @ t=0.12
-0.4783825674820844
% es.Ey (V/m) @ t=0.12
0.15197996982187956
% es.Ez (V/m) @ t=0.12
1.2408694034038934
% es.tEx (V/m) @ t=0.12
-0.47838256748208974
% es.tEy (V/m) @ t=0.12
0
% es.tEz (V/m) @ t=0.12
1.2408694034038925
% V (V) @ t=0.12
0.006534496700636747
% es.normE (V/m) @ t=0.14
1.3544478872772072
% es.EX (V/m) @ t=0.14
-0.4827765422630873
% es.EY (V/m) @ t=0.14
0.15337591581110988
% es.EZ (V/m) @ t=0.14
1.2522668695356587
% es.tEX (V/m) @ t=0.14
-0.48277654226309086
% es.tEY (V/m) @ t=0.14
0
% es.tEZ (V/m) @ t=0.14
1.2522668695356591
% es.Ex (V/m) @ t=0.14
-0.4827765422630873
% es.Ey (V/m) @ t=0.14
0.15337591581110988
% es.Ez (V/m) @ t=0.14
1.2522668695356587
% es.tEx (V/m) @ t=0.14
-0.48277654226309086
% es.tEy (V/m) @ t=0.14
0
% es.tEz (V/m) @ t=0.14
1.2522668695356591
% V (V) @ t=0.14
0.006594516487393607
% es.normE (V/m) @ t=0.16
1.3673075845474345
% es.EX (V/m) @ t=0.16
-0.48736022355299025
% es.EY (V/m) @ t=0.16
0.15483213228461323
% es.EZ (V/m) @ t=0.16
1.264156417980955
% es.tEX (V/m) @ t=0.16
-0.48736022355299735
% es.tEY (V/m) @ t=0.16
0
% es.tEZ (V/m) @ t=0.16
1.2641564179809572
% es.Ex (V/m) @ t=0.16
-0.48736022355299025
% es.Ey (V/m) @ t=0.16
0.15483213228461323
% es.Ez (V/m) @ t=0.16
1.264156417980955
% es.tEx (V/m) @ t=0.16
-0.48736022355299735
% es.tEy (V/m) @ t=0.16
0
% es.tEz (V/m) @ t=0.16
1.2641564179809572
% V (V) @ t=0.16
0.006657127712742313
% es.normE (V/m) @ t=0.18
1.3801672818176602
% es.EX (V/m) @ t=0.18
-0.4919439048428863
% es.EY (V/m) @ t=0.18
0.15628834875813635
% es.EZ (V/m) @ t=0.18
1.2760459664262491
% es.tEX (V/m) @ t=0.18
-0.4919439048428934
% es.tEY (V/m) @ t=0.18
0
% es.tEZ (V/m) @ t=0.18
1.27604596642625
% es.Ex (V/m) @ t=0.18
-0.4919439048428863
% es.Ey (V/m) @ t=0.18
0.15628834875813635
% es.Ez (V/m) @ t=0.18
1.2760459664262491
% es.tEx (V/m) @ t=0.18
-0.4919439048428934
% es.tEy (V/m) @ t=0.18
0
% es.tEz (V/m) @ t=0.18
1.27604596642625
% V (V) @ t=0.18
0.006719738938091018
% es.normE (V/m) @ t=0.2
1.393026979087888
% es.EX (V/m) @ t=0.2
-0.4965275861327858
% es.EY (V/m) @ t=0.2
0.15774456523165536
% es.EZ (V/m) @ t=0.2
1.2879355148715446
% es.tEX (V/m) @ t=0.2
-0.4965275861327929
% es.tEY (V/m) @ t=0.2
0
% es.tEZ (V/m) @ t=0.2
1.2879355148715463
% es.Ex (V/m) @ t=0.2
-0.4965275861327858
% es.Ey (V/m) @ t=0.2
0.15774456523165536
% es.Ez (V/m) @ t=0.2
1.2879355148715446
% es.tEx (V/m) @ t=0.2
-0.4965275861327929
% es.tEy (V/m) @ t=0.2
0
% es.tEz (V/m) @ t=0.2
1.2879355148715463
% V (V) @ t=0.2
0.006782350163439723
% es.normE (V/m) @ t=0.22
1.4058866763581133
% es.EX (V/m) @ t=0.22
-0.5011112674226942
% es.EY (V/m) @ t=0.22
0.15920078170517082
% es.EZ (V/m) @ t=0.22
1.2998250633168342
% es.tEX (V/m) @ t=0.22
-0.501111267422696
% es.tEY (V/m) @ t=0.22
0
% es.tEZ (V/m) @ t=0.22
1.2998250633168347
% es.Ex (V/m) @ t=0.22
-0.5011112674226942
% es.Ey (V/m) @ t=0.22
0.15920078170517082
% es.Ez (V/m) @ t=0.22
1.2998250633168342
% es.tEx (V/m) @ t=0.22
-0.501111267422696
% es.tEy (V/m) @ t=0.22
0
% es.tEz (V/m) @ t=0.22
1.2998250633168347
% V (V) @ t=0.22
0.006844961388788427
% es.normE (V/m) @ t=0.24
1.418746373628343
% es.EX (V/m) @ t=0.24
-0.5056949487125991
% es.EY (V/m) @ t=0.24
0.1606569981786895
% es.EZ (V/m) @ t=0.24
1.3117146117621306
% es.tEX (V/m) @ t=0.24
-0.5056949487126062
% es.tEY (V/m) @ t=0.24
0
% es.tEZ (V/m) @ t=0.24
1.311714611762131
% es.Ex (V/m) @ t=0.24
-0.5056949487125991
% es.Ey (V/m) @ t=0.24
0.1606569981786895
% es.Ez (V/m) @ t=0.24
1.3117146117621306
% es.tEx (V/m) @ t=0.24
-0.5056949487126062
% es.tEy (V/m) @ t=0.24
0
% es.tEz (V/m) @ t=0.24
1.311714611762131
% V (V) @ t=0.24
0.006907572614137133
% es.normE (V/m) @ t=0.26
1.4316060708985678
% es.EX (V/m) @ t=0.26
-0.5102786300024915
% es.EY (V/m) @ t=0.26
0.16211321465220274
% es.EZ (V/m) @ t=0.26
1.3236041602074264
% es.tEX (V/m) @ t=0.26
-0.5102786300024986
% es.tEY (V/m) @ t=0.26
0
% es.tEZ (V/m) @ t=0.26
1.323604160207429
% es.Ex (V/m) @ t=0.26
-0.5102786300024915
% es.Ey (V/m) @ t=0.26
0.16211321465220274
% es.Ez (V/m) @ t=0.26
1.3236041602074264
% es.tEx (V/m) @ t=0.26
-0.5102786300024986
% es.tEy (V/m) @ t=0.26
0
% es.tEz (V/m) @ t=0.26
1.323604160207429
% V (V) @ t=0.26
0.006970183839485839
% es.normE (V/m) @ t=0.28
1.4450197044013977
% es.EX (V/m) @ t=0.28
-0.5150596912419392
% es.EY (V/m) @ t=0.28
0.16363219258349904
% es.EZ (V/m) @ t=0.28
1.3360058769816128
% es.tEX (V/m) @ t=0.28
-0.5150596912419481
% es.tEY (V/m) @ t=0.28
0
% es.tEZ (V/m) @ t=0.28
1.336005876981611
% es.Ex (V/m) @ t=0.28
-0.5150596912419392
% es.Ey (V/m) @ t=0.28
0.16363219258349904
% es.Ez (V/m) @ t=0.28
1.3360058769816128
% es.tEx (V/m) @ t=0.28
-0.5150596912419481
% es.tEy (V/m) @ t=0.28
0
% es.tEz (V/m) @ t=0.28
1.336005876981611
% V (V) @ t=0.28
0.007035495706758311
% es.normE (V/m) @ t=0.3
1.4593465979272922
% es.EX (V/m) @ t=0.3
-0.5201661675863258
% es.EY (V/m) @ t=0.3
0.16525464367109877
% es.EZ (V/m) @ t=0.3
1.3492519921401636
% es.tEX (V/m) @ t=0.3
-0.5201661675863347
% es.tEY (V/m) @ t=0.3
0
% es.tEZ (V/m) @ t=0.3
1.3492519921401653
% es.Ex (V/m) @ t=0.3
-0.5201661675863258
% es.Ey (V/m) @ t=0.3
0.16525464367109877
% es.Ez (V/m) @ t=0.3
1.3492519921401636
% es.tEx (V/m) @ t=0.3
-0.5201661675863347
% es.tEy (V/m) @ t=0.3
0
% es.tEz (V/m) @ t=0.3
1.3492519921401653
% V (V) @ t=0.3
0.007105260050977458
% es.normE (V/m) @ t=0.32
1.4736734914532228
% es.EX (V/m) @ t=0.32
-0.5252726439307125
% es.EY (V/m) @ t=0.32
0.16687709475869994
% es.EZ (V/m) @ t=0.32
1.3624981072987228
% es.tEX (V/m) @ t=0.32
-0.5252726439307214
% es.tEY (V/m) @ t=0.32
0
% es.tEZ (V/m) @ t=0.32
1.3624981072987223
% es.Ex (V/m) @ t=0.32
-0.5252726439307125
% es.Ey (V/m) @ t=0.32
0.16687709475869994
% es.Ez (V/m) @ t=0.32
1.3624981072987228
% es.tEx (V/m) @ t=0.32
-0.5252726439307214
% es.tEy (V/m) @ t=0.32
0
% es.tEz (V/m) @ t=0.32
1.3624981072987223
% V (V) @ t=0.32
0.007175024395196605
% es.normE (V/m) @ t=0.34
1.4880003849791819
% es.EX (V/m) @ t=0.34
-0.5303791202751009
% es.EY (V/m) @ t=0.34
0.16849954584629956
% es.EZ (V/m) @ t=0.34
1.3757442224572825
% es.tEX (V/m) @ t=0.34
-0.5303791202751009
% es.tEY (V/m) @ t=0.34
0
% es.tEZ (V/m) @ t=0.34
1.3757442224572838
% es.Ex (V/m) @ t=0.34
-0.5303791202751009
% es.Ey (V/m) @ t=0.34
0.16849954584629956
% es.Ez (V/m) @ t=0.34
1.3757442224572825
% es.tEx (V/m) @ t=0.34
-0.5303791202751009
% es.tEy (V/m) @ t=0.34
0
% es.tEz (V/m) @ t=0.34
1.3757442224572838
% V (V) @ t=0.34
0.007244788739415755
% es.normE (V/m) @ t=0.36
1.5023272785051622
% es.EX (V/m) @ t=0.36
-0.5354855966194857
% es.EY (V/m) @ t=0.36
0.17012199693390773
% es.EZ (V/m) @ t=0.36
1.3889903376158355
% es.tEX (V/m) @ t=0.36
-0.5354855966194946
% es.tEY (V/m) @ t=0.36
0
% es.tEZ (V/m) @ t=0.36
1.388990337615839
% es.Ex (V/m) @ t=0.36
-0.5354855966194857
% es.Ey (V/m) @ t=0.36
0.17012199693390773
% es.Ez (V/m) @ t=0.36
1.3889903376158355
% es.tEx (V/m) @ t=0.36
-0.5354855966194946
% es.tEy (V/m) @ t=0.36
0
% es.tEz (V/m) @ t=0.36
1.388990337615839
% V (V) @ t=0.36
0.0073145530836349025
% es.normE (V/m) @ t=0.38
1.5166541720311726
% es.EX (V/m) @ t=0.38
-0.540592072963874
% es.EY (V/m) @ t=0.38
0.17174444802150513
% es.EZ (V/m) @ t=0.38
1.402236452774393
% es.tEX (V/m) @ t=0.38
-0.5405920729638811
% es.tEY (V/m) @ t=0.38
0
% es.tEZ (V/m) @ t=0.38
1.4022364527743925
% es.Ex (V/m) @ t=0.38
-0.540592072963874
% es.Ey (V/m) @ t=0.38
0.17174444802150513
% es.Ez (V/m) @ t=0.38
1.402236452774393
% es.tEx (V/m) @ t=0.38
-0.5405920729638811
% es.tEy (V/m) @ t=0.38
0
% es.tEz (V/m) @ t=0.38
1.4022364527743925
% V (V) @ t=0.38
0.0073843174278540495
% es.normE (V/m) @ t=0.4
1.5309810655572087
% es.EX (V/m) @ t=0.4
-0.5456985493082678
% es.EY (V/m) @ t=0.4
0.1733668991091044
% es.EZ (V/m) @ t=0.4
1.4154825679329472
% es.tEX (V/m) @ t=0.4
-0.5456985493082749
% es.tEY (V/m) @ t=0.4
0
% es.tEZ (V/m) @ t=0.4
1.4154825679329495
% es.Ex (V/m) @ t=0.4
-0.5456985493082678
% es.Ey (V/m) @ t=0.4
0.1733668991091044
% es.Ez (V/m) @ t=0.4
1.4154825679329472
% es.tEx (V/m) @ t=0.4
-0.5456985493082749
% es.tEy (V/m) @ t=0.4
0
% es.tEz (V/m) @ t=0.4
1.4154825679329495
% V (V) @ t=0.4
0.007454081772073199
% es.normE (V/m) @ t=0.42
1.5453079590832717
% es.EX (V/m) @ t=0.42
-0.5508050256526544
% es.EY (V/m) @ t=0.42
0.17498935019670236
% es.EZ (V/m) @ t=0.42
1.4287286830915087
% es.tEX (V/m) @ t=0.42
-0.5508050256526615
% es.tEY (V/m) @ t=0.42
0
% es.tEZ (V/m) @ t=0.42
1.428728683091511
% es.Ex (V/m) @ t=0.42
-0.5508050256526544
% es.Ey (V/m) @ t=0.42
0.17498935019670236
% es.Ez (V/m) @ t=0.42
1.4287286830915087
% es.tEx (V/m) @ t=0.42
-0.5508050256526615
% es.tEy (V/m) @ t=0.42
0
% es.tEz (V/m) @ t=0.42
1.428728683091511
% V (V) @ t=0.42
0.0075238461162923445
% es.normE (V/m) @ t=0.44
1.5596348526093493
% es.EX (V/m) @ t=0.44
-0.555911501997041
% es.EY (V/m) @ t=0.44
0.1766118012843011
% es.EZ (V/m) @ t=0.44
1.4419747982500586
% es.tEX (V/m) @ t=0.44
-0.5559115019970481
% es.tEY (V/m) @ t=0.44
0
% es.tEZ (V/m) @ t=0.44
1.441974798250059
% es.Ex (V/m) @ t=0.44
-0.555911501997041
% es.Ey (V/m) @ t=0.44
0.1766118012843011
% es.Ez (V/m) @ t=0.44
1.4419747982500586
% es.tEx (V/m) @ t=0.44
-0.5559115019970481
% es.tEy (V/m) @ t=0.44
0
% es.tEz (V/m) @ t=0.44
1.441974798250059
% V (V) @ t=0.44
0.007593610460511494
% es.normE (V/m) @ t=0.46
1.5739617461354611
% es.EX (V/m) @ t=0.46
-0.5610179783414277
% es.EY (V/m) @ t=0.46
0.17823425237190982
% es.EZ (V/m) @ t=0.46
1.4552209134086196
% es.tEX (V/m) @ t=0.46
-0.5610179783414349
% es.tEY (V/m) @ t=0.46
0
% es.tEZ (V/m) @ t=0.46
1.4552209134086214
% es.Ex (V/m) @ t=0.46
-0.5610179783414277
% es.Ey (V/m) @ t=0.46
0.17823425237190982
% es.Ez (V/m) @ t=0.46
1.4552209134086196
% es.tEx (V/m) @ t=0.46
-0.5610179783414349
% es.tEy (V/m) @ t=0.46
0
% es.tEz (V/m) @ t=0.46
1.4552209134086214
% V (V) @ t=0.46
0.007663374804730643
% es.normE (V/m) @ t=0.48
1.5882886396615896
% es.EX (V/m) @ t=0.48
-0.5661244546858143
% es.EY (V/m) @ t=0.48
0.17985670345951354
% es.EZ (V/m) @ t=0.48
1.468467028567174
% es.tEX (V/m) @ t=0.48
-0.5661244546858214
% es.tEY (V/m) @ t=0.48
0
% es.tEZ (V/m) @ t=0.48
1.4684670285671757
% es.Ex (V/m) @ t=0.48
-0.5661244546858143
% es.Ey (V/m) @ t=0.48
0.17985670345951354
% es.Ez (V/m) @ t=0.48
1.468467028567174
% es.tEx (V/m) @ t=0.48
-0.5661244546858214
% es.tEy (V/m) @ t=0.48
0
% es.tEz (V/m) @ t=0.48
1.4684670285671757
% V (V) @ t=0.48
0.007733139148949789
% es.normE (V/m) @ t=0.5
1.6026155331877414
% es.EX (V/m) @ t=0.5
-0.571230931030201
% es.EY (V/m) @ t=0.5
0.18147915454710484
% es.EZ (V/m) @ t=0.5
1.4817131437257314
% es.tEX (V/m) @ t=0.5
-0.5712309310302081
% es.tEY (V/m) @ t=0.5
0
% es.tEZ (V/m) @ t=0.5
1.4817131437257318
% es.Ex (V/m) @ t=0.5
-0.571230931030201
% es.Ey (V/m) @ t=0.5
0.18147915454710484
% es.Ez (V/m) @ t=0.5
1.4817131437257314
% es.tEx (V/m) @ t=0.5
-0.5712309310302081
% es.tEy (V/m) @ t=0.5
0
% es.tEz (V/m) @ t=0.5
1.4817131437257318
% V (V) @ t=0.5
0.007802903493168938
% es.normE (V/m) @ t=0.52
1.616942426713913
% es.EX (V/m) @ t=0.52
-0.5763374073745945
% es.EY (V/m) @ t=0.52
0.18310160563471012
% es.EZ (V/m) @ t=0.52
1.4949592588842813
% es.tEX (V/m) @ t=0.52
-0.5763374073746016
% es.tEY (V/m) @ t=0.52
0
% es.tEZ (V/m) @ t=0.52
1.4949592588842826
% es.Ex (V/m) @ t=0.52
-0.5763374073745945
% es.Ey (V/m) @ t=0.52
0.18310160563471012
% es.Ez (V/m) @ t=0.52
1.4949592588842813
% es.tEx (V/m) @ t=0.52
-0.5763374073746016
% es.tEy (V/m) @ t=0.52
0
% es.tEz (V/m) @ t=0.52
1.4949592588842826
% V (V) @ t=0.52
0.007872667837388086
% es.normE (V/m) @ t=0.54
1.6312693202401132
% es.EX (V/m) @ t=0.54
-0.5814438837189813
% es.EY (V/m) @ t=0.54
0.18472405672230507
% es.EZ (V/m) @ t=0.54
1.5082053740428454
% es.tEX (V/m) @ t=0.54
-0.5814438837189884
% es.tEY (V/m) @ t=0.54
0
% es.tEZ (V/m) @ t=0.54
1.5082053740428432
% es.Ex (V/m) @ t=0.54
-0.5814438837189813
% es.Ey (V/m) @ t=0.54
0.18472405672230507
% es.Ez (V/m) @ t=0.54
1.5082053740428454
% es.tEx (V/m) @ t=0.54
-0.5814438837189884
% es.tEy (V/m) @ t=0.54
0
% es.tEz (V/m) @ t=0.54
1.5082053740428432
% V (V) @ t=0.54
0.007942432181607234
% es.normE (V/m) @ t=0.56
1.646868715240715
% es.EX (V/m) @ t=0.56
-0.5870037598576632
% es.EY (V/m) @ t=0.56
0.18649069491394676
% es.EZ (V/m) @ t=0.56
1.5226280485920687
% es.tEX (V/m) @ t=0.56
-0.5870037598576667
% es.tEY (V/m) @ t=0.56
0
% es.tEZ (V/m) @ t=0.56
1.5226280485920665
% es.Ex (V/m) @ t=0.56
-0.5870037598576632
% es.Ey (V/m) @ t=0.56
0.18649069491394676
% es.Ez (V/m) @ t=0.56
1.5226280485920687
% es.tEx (V/m) @ t=0.56
-0.5870037598576667
% es.tEy (V/m) @ t=0.56
0
% es.tEz (V/m) @ t=0.56
1.5226280485920665
% V (V) @ t=0.56
0.00801840162452024
% es.normE (V/m) @ t=0.58
1.6628588680262566
% es.EX (V/m) @ t=0.58
-0.5927028653040024
% es.EY (V/m) @ t=0.58
0.18830160985849786
% es.EZ (V/m) @ t=0.58
1.5374120191794307
% es.tEX (V/m) @ t=0.58
-0.5927028653040131
% es.tEY (V/m) @ t=0.58
0
% es.tEZ (V/m) @ t=0.58
1.5374120191794267
% es.Ex (V/m) @ t=0.58
-0.5927028653040024
% es.Ey (V/m) @ t=0.58
0.18830160985849786
% es.Ez (V/m) @ t=0.58
1.5374120191794307
% es.tEx (V/m) @ t=0.58
-0.5927028653040131
% es.tEy (V/m) @ t=0.58
0
% es.tEz (V/m) @ t=0.58
1.5374120191794267
% V (V) @ t=0.58
0.008096276519543952
% es.normE (V/m) @ t=0.6
1.6788490208119102
% es.EX (V/m) @ t=0.6
-0.5984019707503451
% es.EY (V/m) @ t=0.6
0.19011252480305474
% es.EZ (V/m) @ t=0.6
1.552195989766787
% es.tEX (V/m) @ t=0.6
-0.5984019707503522
% es.tEY (V/m) @ t=0.6
0
% es.tEZ (V/m) @ t=0.6
1.5521959897667825
% es.Ex (V/m) @ t=0.6
-0.5984019707503451
% es.Ey (V/m) @ t=0.6
0.19011252480305474
% es.Ez (V/m) @ t=0.6
1.552195989766787
% es.tEx (V/m) @ t=0.6
-0.5984019707503522
% es.tEy (V/m) @ t=0.6
0
% es.tEz (V/m) @ t=0.6
1.5521959897667825
% V (V) @ t=0.6
0.008174151414567664
% es.normE (V/m) @ t=0.62
1.694839173597679
% es.EX (V/m) @ t=0.62
-0.6041010761966843
% es.EY (V/m) @ t=0.62
0.19192343974761839
% es.EZ (V/m) @ t=0.62
1.5669799603541468
% es.tEX (V/m) @ t=0.62
-0.6041010761966914
% es.tEY (V/m) @ t=0.62
0
% es.tEZ (V/m) @ t=0.62
1.5669799603541463
% es.Ex (V/m) @ t=0.62
-0.6041010761966843
% es.Ey (V/m) @ t=0.62
0.19192343974761839
% es.Ez (V/m) @ t=0.62
1.5669799603541468
% es.tEx (V/m) @ t=0.62
-0.6041010761966914
% es.tEy (V/m) @ t=0.62
0
% es.tEz (V/m) @ t=0.62
1.5669799603541463
% V (V) @ t=0.62
0.008252026309591376
% es.normE (V/m) @ t=0.64
1.7108293263835552
% es.EX (V/m) @ t=0.64
-0.6098001816430305
% es.EY (V/m) @ t=0.64
0.19373435469217704
% es.EZ (V/m) @ t=0.64
1.5817639309415035
% es.tEX (V/m) @ t=0.64
-0.6098001816430376
% es.tEY (V/m) @ t=0.64
0
% es.tEZ (V/m) @ t=0.64
1.5817639309415013
% es.Ex (V/m) @ t=0.64
-0.6098001816430305
% es.Ey (V/m) @ t=0.64
0.19373435469217704
% es.Ez (V/m) @ t=0.64
1.5817639309415035
% es.tEx (V/m) @ t=0.64
-0.6098001816430376
% es.tEy (V/m) @ t=0.64
0
% es.tEz (V/m) @ t=0.64
1.5817639309415013
% V (V) @ t=0.64
0.008329901204615086
% es.normE (V/m) @ t=0.66
1.7268194791695453
% es.EX (V/m) @ t=0.66
-0.6154992870893768
% es.EY (V/m) @ t=0.66
0.1955452696367308
% es.EZ (V/m) @ t=0.66
1.5965479015288708
% es.tEX (V/m) @ t=0.66
-0.615499287089384
% es.tEY (V/m) @ t=0.66
0
% es.tEZ (V/m) @ t=0.66
1.5965479015288695
% es.Ex (V/m) @ t=0.66
-0.6154992870893768
% es.Ey (V/m) @ t=0.66
0.1955452696367308
% es.Ez (V/m) @ t=0.66
1.5965479015288708
% es.tEx (V/m) @ t=0.66
-0.615499287089384
% es.tEy (V/m) @ t=0.66
0
% es.tEz (V/m) @ t=0.66
1.5965479015288695
% V (V) @ t=0.66
0.008407776099638798
% es.normE (V/m) @ t=0.68
1.7428096319556237
% es.EX (V/m) @ t=0.68
-0.6211983925357089
% es.EY (V/m) @ t=0.68
0.19735618458128867
% es.EZ (V/m) @ t=0.68
1.6113318721162257
% es.tEX (V/m) @ t=0.68
-0.621198392535716
% es.tEY (V/m) @ t=0.68
0
% es.tEZ (V/m) @ t=0.68
1.6113318721162297
% es.Ex (V/m) @ t=0.68
-0.6211983925357089
% es.Ey (V/m) @ t=0.68
0.19735618458128867
% es.Ez (V/m) @ t=0.68
1.6113318721162257
% es.tEx (V/m) @ t=0.68
-0.621198392535716
% es.tEy (V/m) @ t=0.68
0
% es.tEz (V/m) @ t=0.68
1.6113318721162297
% V (V) @ t=0.68
0.00848565099466251
% es.normE (V/m) @ t=0.7
1.7587997847418047
% es.EX (V/m) @ t=0.7
-0.6268974979820481
% es.EY (V/m) @ t=0.7
0.19916709952584022
% es.EZ (V/m) @ t=0.7
1.626115842703582
% es.tEX (V/m) @ t=0.7
-0.6268974979820552
% es.tEY (V/m) @ t=0.7
0
% es.tEZ (V/m) @ t=0.7
1.626115842703582
% es.Ex (V/m) @ t=0.7
-0.6268974979820481
% es.Ey (V/m) @ t=0.7
0.19916709952584022
% es.Ez (V/m) @ t=0.7
1.626115842703582
% es.tEx (V/m) @ t=0.7
-0.6268974979820552
% es.tEy (V/m) @ t=0.7
0
% es.tEz (V/m) @ t=0.7
1.626115842703582
% V (V) @ t=0.7
0.008563525889686221
% es.normE (V/m) @ t=0.72
1.7747899375280878
% es.EX (V/m) @ t=0.72
-0.6325966034283907
% es.EY (V/m) @ t=0.72
0.20097801447039676
% es.EZ (V/m) @ t=0.72
1.6408998132909418
% es.tEX (V/m) @ t=0.72
-0.6325966034284085
% es.tEY (V/m) @ t=0.72
0
% es.tEZ (V/m) @ t=0.72
1.6408998132909423
% es.Ex (V/m) @ t=0.72
-0.6325966034283907
% es.Ey (V/m) @ t=0.72
0.20097801447039676
% es.Ez (V/m) @ t=0.72
1.6408998132909418
% es.tEx (V/m) @ t=0.72
-0.6325966034284085
% es.tEy (V/m) @ t=0.72
0
% es.tEz (V/m) @ t=0.72
1.6408998132909423
% V (V) @ t=0.72
0.008641400784709933
% es.normE (V/m) @ t=0.74
1.790780090314465
% es.EX (V/m) @ t=0.74
-0.6382957088747333
% es.EY (V/m) @ t=0.74
0.2027889294149392
% es.EZ (V/m) @ t=0.74
1.655683783878303
% es.tEX (V/m) @ t=0.74
-0.6382957088747475
% es.tEY (V/m) @ t=0.74
0
% es.tEZ (V/m) @ t=0.74
1.6556837838783034
% es.Ex (V/m) @ t=0.74
-0.6382957088747333
% es.Ey (V/m) @ t=0.74
0.2027889294149392
% es.Ez (V/m) @ t=0.74
1.655683783878303
% es.tEx (V/m) @ t=0.74
-0.6382957088747475
% es.tEy (V/m) @ t=0.74
0
% es.tEz (V/m) @ t=0.74
1.6556837838783034
% V (V) @ t=0.74
0.008719275679733645
% es.normE (V/m) @ t=0.76
1.8067702431009365
% es.EX (V/m) @ t=0.76
-0.6439948143210725
% es.EY (V/m) @ t=0.76
0.20459984435950807
% es.EZ (V/m) @ t=0.76
1.6704677544656632
% es.tEX (V/m) @ t=0.76
-0.6439948143210867
% es.tEY (V/m) @ t=0.76
0
% es.tEZ (V/m) @ t=0.76
1.6704677544656636
% es.Ex (V/m) @ t=0.76
-0.6439948143210725
% es.Ey (V/m) @ t=0.76
0.20459984435950807
% es.Ez (V/m) @ t=0.76
1.6704677544656632
% es.tEx (V/m) @ t=0.76
-0.6439948143210867
% es.tEy (V/m) @ t=0.76
0
% es.tEz (V/m) @ t=0.76
1.6704677544656636
% V (V) @ t=0.76
0.008797150574757355
% es.normE (V/m) @ t=0.78
1.822760395887494
% es.EX (V/m) @ t=0.78
-0.6496939197674223
% es.EY (V/m) @ t=0.78
0.2064107593040645
% es.EZ (V/m) @ t=0.78
1.6852517250530177
% es.tEX (V/m) @ t=0.78
-0.6496939197674259
% es.tEY (V/m) @ t=0.78
0
% es.tEZ (V/m) @ t=0.78
1.685251725053016
% es.Ex (V/m) @ t=0.78
-0.6496939197674223
% es.Ey (V/m) @ t=0.78
0.2064107593040645
% es.Ez (V/m) @ t=0.78
1.6852517250530177
% es.tEx (V/m) @ t=0.78
-0.6496939197674259
% es.tEy (V/m) @ t=0.78
0
% es.tEz (V/m) @ t=0.78
1.685251725053016
% V (V) @ t=0.78
0.008875025469781066
% es.normE (V/m) @ t=0.8
1.8387505486741431
% es.EX (V/m) @ t=0.8
-0.6553930252137651
% es.EY (V/m) @ t=0.8
0.20822167424862892
% es.EZ (V/m) @ t=0.8
1.7000356956403784
% es.tEX (V/m) @ t=0.8
-0.6553930252137722
% es.tEY (V/m) @ t=0.8
0
% es.tEZ (V/m) @ t=0.8
1.7000356956403797
% es.Ex (V/m) @ t=0.8
-0.6553930252137651
% es.Ey (V/m) @ t=0.8
0.20822167424862892
% es.Ez (V/m) @ t=0.8
1.7000356956403784
% es.tEx (V/m) @ t=0.8
-0.6553930252137722
% es.tEy (V/m) @ t=0.8
0
% es.tEz (V/m) @ t=0.8
1.7000356956403797
% V (V) @ t=0.8
0.008952900364804778
% es.normE (V/m) @ t=0.82
1.8550288902782446
% es.EX (V/m) @ t=0.82
-0.6611948538796387
% es.EY (V/m) @ t=0.82
0.21006522234628267
% es.EZ (V/m) @ t=0.82
1.7150861131561728
% es.tEX (V/m) @ t=0.82
-0.6611948538796494
% es.tEY (V/m) @ t=0.82
0
% es.tEZ (V/m) @ t=0.82
1.7150861131561745
% es.Ex (V/m) @ t=0.82
-0.6611948538796387
% es.Ey (V/m) @ t=0.82
0.21006522234628267
% es.Ez (V/m) @ t=0.82
1.7150861131561728
% es.tEx (V/m) @ t=0.82
-0.6611948538796494
% es.tEy (V/m) @ t=0.82
0
% es.tEz (V/m) @ t=0.82
1.7150861131561745
% V (V) @ t=0.82
0.00903217828626137
% es.normE (V/m) @ t=0.84
1.8729077832029666
% es.EX (V/m) @ t=0.84
-0.667567189708715
% es.EY (V/m) @ t=0.84
0.21209000938566724
% es.EZ (V/m) @ t=0.84
1.7316163312661002
% es.tEX (V/m) @ t=0.84
-0.6675671897087221
% es.tEY (V/m) @ t=0.84
0
% es.tEZ (V/m) @ t=0.84
1.7316163312661041
% es.Ex (V/m) @ t=0.84
-0.667567189708715
% es.Ey (V/m) @ t=0.84
0.21209000938566724
% es.Ez (V/m) @ t=0.84
1.7316163312661002
% es.tEx (V/m) @ t=0.84
-0.6675671897087221
% es.tEy (V/m) @ t=0.84
0
% es.tEz (V/m) @ t=0.84
1.7316163312661041
% V (V) @ t=0.84
0.009119248376166468
% es.normE (V/m) @ t=0.86
1.8907866761277679
% es.EX (V/m) @ t=0.86
-0.6739395255377986
% es.EY (V/m) @ t=0.86
0.21411479642506515
% es.EZ (V/m) @ t=0.86
1.7481465493760315
% es.tEX (V/m) @ t=0.86
-0.6739395255378163
% es.tEY (V/m) @ t=0.86
0
% es.tEZ (V/m) @ t=0.86
1.748146549376031
% es.Ex (V/m) @ t=0.86
-0.6739395255377986
% es.Ey (V/m) @ t=0.86
0.21411479642506515
% es.Ez (V/m) @ t=0.86
1.7481465493760315
% es.tEx (V/m) @ t=0.86
-0.6739395255378163
% es.tEy (V/m) @ t=0.86
0
% es.tEz (V/m) @ t=0.86
1.748146549376031
% V (V) @ t=0.86
0.009206318466071568
% es.normE (V/m) @ t=0.88
1.9086655690526362
% es.EX (V/m) @ t=0.88
-0.6803118613668819
% es.EY (V/m) @ t=0.88
0.2161395834644495
% es.EZ (V/m) @ t=0.88
1.7646767674859616
% es.tEX (V/m) @ t=0.88
-0.6803118613668961
% es.tEY (V/m) @ t=0.88
0
% es.tEZ (V/m) @ t=0.88
1.7646767674859571
% es.Ex (V/m) @ t=0.88
-0.6803118613668819
% es.Ey (V/m) @ t=0.88
0.2161395834644495
% es.Ez (V/m) @ t=0.88
1.7646767674859616
% es.tEx (V/m) @ t=0.88
-0.6803118613668961
% es.tEy (V/m) @ t=0.88
0
% es.tEz (V/m) @ t=0.88
1.7646767674859571
% V (V) @ t=0.88
0.009293388555976664
% es.normE (V/m) @ t=0.9
1.92654446197757
% es.EX (V/m) @ t=0.9
-0.686684197195969
% es.EY (V/m) @ t=0.9
0.21816437050385984
% es.EZ (V/m) @ t=0.9
1.7812069855958867
% es.tEX (V/m) @ t=0.9
-0.6866841971959832
% es.tEY (V/m) @ t=0.9
0
% es.tEZ (V/m) @ t=0.9
1.781206985595885
% es.Ex (V/m) @ t=0.9
-0.686684197195969
% es.Ey (V/m) @ t=0.9
0.21816437050385984
% es.Ez (V/m) @ t=0.9
1.7812069855958867
% es.tEx (V/m) @ t=0.9
-0.6866841971959832
% es.tEy (V/m) @ t=0.9
0
% es.tEz (V/m) @ t=0.9
1.781206985595885
% V (V) @ t=0.9
0.009380458645881763
% es.normE (V/m) @ t=0.92
1.944423354902566
% es.EX (V/m) @ t=0.92
-0.6930565330250525
% es.EY (V/m) @ t=0.92
0.22018915754324264
% es.EZ (V/m) @ t=0.92
1.797737203705812
% es.tEX (V/m) @ t=0.92
-0.6930565330250632
% es.tEY (V/m) @ t=0.92
0
% es.tEZ (V/m) @ t=0.92
1.7977372037058164
% es.Ex (V/m) @ t=0.92
-0.6930565330250525
% es.Ey (V/m) @ t=0.92
0.22018915754324264
% es.Ez (V/m) @ t=0.92
1.797737203705812
% es.tEx (V/m) @ t=0.92
-0.6930565330250632
% es.tEy (V/m) @ t=0.92
0
% es.tEz (V/m) @ t=0.92
1.7977372037058164
% V (V) @ t=0.92
0.009467528735786861
% es.normE (V/m) @ t=0.94
1.9623022478276333
% es.EX (V/m) @ t=0.94
-0.6994288688541395
% es.EY (V/m) @ t=0.94
0.22221394458264054
% es.EZ (V/m) @ t=0.94
1.8142674218157424
% es.tEX (V/m) @ t=0.94
-0.6994288688541572
% es.tEY (V/m) @ t=0.94
0
% es.tEZ (V/m) @ t=0.94
1.8142674218157406
% es.Ex (V/m) @ t=0.94
-0.6994288688541395
% es.Ey (V/m) @ t=0.94
0.22221394458264054
% es.Ez (V/m) @ t=0.94
1.8142674218157424
% es.tEx (V/m) @ t=0.94
-0.6994288688541572
% es.tEy (V/m) @ t=0.94
0
% es.tEz (V/m) @ t=0.94
1.8142674218157406
% V (V) @ t=0.94
0.00955459882569196
% es.normE (V/m) @ t=0.96
1.9801811407527585
% es.EX (V/m) @ t=0.96
-0.7058012046832229
% es.EY (V/m) @ t=0.96
0.2242387316220349
% es.EZ (V/m) @ t=0.96
1.8307976399256711
% es.tEX (V/m) @ t=0.96
-0.70580120468323
% es.tEY (V/m) @ t=0.96
0
% es.tEZ (V/m) @ t=0.96
1.8307976399256738
% es.Ex (V/m) @ t=0.96
-0.7058012046832229
% es.Ey (V/m) @ t=0.96
0.2242387316220349
% es.Ez (V/m) @ t=0.96
1.8307976399256711
% es.tEx (V/m) @ t=0.96
-0.70580120468323
% es.tEy (V/m) @ t=0.96
0
% es.tEz (V/m) @ t=0.96
1.8307976399256738
% V (V) @ t=0.96
0.009641668915597059
% es.normE (V/m) @ t=0.98
1.9980600336779453
% es.EX (V/m) @ t=0.98
-0.71217354051231
% es.EY (V/m) @ t=0.98
0.22626351866142724
% es.EZ (V/m) @ t=0.98
1.8473278580355998
% es.tEX (V/m) @ t=0.98
-0.7121735405123171
% es.tEY (V/m) @ t=0.98
0
% es.tEZ (V/m) @ t=0.98
1.8473278580356016
% es.Ex (V/m) @ t=0.98
-0.71217354051231
% es.Ey (V/m) @ t=0.98
0.22626351866142724
% es.Ez (V/m) @ t=0.98
1.8473278580355998
% es.tEx (V/m) @ t=0.98
-0.7121735405123171
% es.tEy (V/m) @ t=0.98
0
% es.tEz (V/m) @ t=0.98
1.8473278580356016
% V (V) @ t=0.98
0.009728739005502158
% es.normE (V/m) @ t=1
2.0159389266031815
% es.EX (V/m) @ t=1
-0.7185458763413898
% es.EY (V/m) @ t=1
0.2282883057008258
% es.EZ (V/m) @ t=1
1.8638580761455206
% es.tEX (V/m) @ t=1
-0.7185458763413969
% es.tEY (V/m) @ t=1
0
% es.tEZ (V/m) @ t=1
1.8638580761455206
% es.Ex (V/m) @ t=1
-0.7185458763413898
% es.Ey (V/m) @ t=1
0.2282883057008258
% es.Ez (V/m) @ t=1
1.8638580761455206
% es.tEx (V/m) @ t=1
-0.7185458763413969
% es.tEy (V/m) @ t=1
0
% es.tEz (V/m) @ t=1
1.8638580761455206
% V (V) @ t=1
0.009815809095407258
% es.normE (V/m) @ t=1.02
2.0338178195284877
% es.EX (V/m) @ t=1.02
-0.7249182121704768
% es.EY (V/m) @ t=1.02
0.23031309274022904
% es.EZ (V/m) @ t=1.02
1.880388294255452
% es.tEX (V/m) @ t=1.02
-0.724918212170491
% es.tEY (V/m) @ t=1.02
0
% es.tEZ (V/m) @ t=1.02
1.880388294255452
% es.Ex (V/m) @ t=1.02
-0.7249182121704768
% es.Ey (V/m) @ t=1.02
0.23031309274022904
% es.Ez (V/m) @ t=1.02
1.880388294255452
% es.tEx (V/m) @ t=1.02
-0.724918212170491
% es.tEy (V/m) @ t=1.02
0
% es.tEz (V/m) @ t=1.02
1.880388294255452
% V (V) @ t=1.02
0.009902879185312356
% es.normE (V/m) @ t=1.04
2.0516967124538477
% es.EX (V/m) @ t=1.04
-0.731290547999571
% es.EY (V/m) @ t=1.04
0.2323378797796094
% es.EZ (V/m) @ t=1.04
1.8969185123653816
% es.tEX (V/m) @ t=1.04