% Model:              1 neuron.mph
% Version:            COMSOL 6.0.0.405
% Date:               Mar 9 2023, 13:15
% Dimension:          0
% Nodes:              14017
% Expressions:        14017
% Description:        Electric field norm, Electric field, X component, Electric field, Y component, Electric field, Z component, Tangential electric field, X component, Tangential electric field, Y component, Tangential electric field, Z component, Electric field, x component, Electric field, y component, Electric field, z component, Tangential electric field, x component, Tangential electric field, y component, Tangential electric field, z component, Electric potential
% Length unit:        mm
% x
1.33
% y
12.2
% z
1
% es.normE (V/m) @ t=0
1.5650429653532671
% es.EX (V/m) @ t=0
0.4830724413332804
% es.EY (V/m) @ t=0
0.1170310249569062
% es.EZ (V/m) @ t=0
1.4840055325259067
% es.tEX (V/m) @ t=0
0.48307244133328453
% es.tEY (V/m) @ t=0
0
% es.tEZ (V/m) @ t=0
1.484005532525904
% es.Ex (V/m) @ t=0
0.4830724413332804
% es.Ey (V/m) @ t=0
0.1170310249569062
% es.Ez (V/m) @ t=0
1.4840055325259067
% es.tEx (V/m) @ t=0
0.48307244133328453
% es.tEy (V/m) @ t=0
0
% es.tEz (V/m) @ t=0
1.484005532525904
% V (V) @ t=0
0.007319738084171094
% es.normE (V/m) @ t=0.02
1.3517560826228785
% es.EX (V/m) @ t=0.02
0.41723845716217034
% es.EY (V/m) @ t=0.02
0.10108182725700016
% es.EZ (V/m) @ t=0.02
1.2817625771292216
% es.tEX (V/m) @ t=0.02
0.41723845716217056
% es.tEY (V/m) @ t=0.02
0
% es.tEZ (V/m) @ t=0.02
1.2817625771292125
% es.Ex (V/m) @ t=0.02
0.41723845716217034
% es.Ey (V/m) @ t=0.02
0.10108182725700016
% es.Ez (V/m) @ t=0.02
1.2817625771292216
% es.tEx (V/m) @ t=0.02
0.41723845716217056
% es.tEy (V/m) @ t=0.02
0
% es.tEz (V/m) @ t=0.02
1.2817625771292125
% V (V) @ t=0.02
0.006322190805484685
% es.normE (V/m) @ t=0.04
1.3641869530925974
% es.EX (V/m) @ t=0.04
0.4210754251705431
% es.EY (V/m) @ t=0.04
0.10201139729398478
% es.EZ (V/m) @ t=0.04
1.2935497782524112
% es.tEX (V/m) @ t=0.04
0.4210754251705424
% es.tEY (V/m) @ t=0.04
0
% es.tEZ (V/m) @ t=0.04
1.2935497782524115
% es.Ex (V/m) @ t=0.04
0.4210754251705431
% es.Ey (V/m) @ t=0.04
0.10201139729398478
% es.Ez (V/m) @ t=0.04
1.2935497782524112
% es.tEx (V/m) @ t=0.04
0.4210754251705424
% es.tEy (V/m) @ t=0.04
0
% es.tEz (V/m) @ t=0.04
1.2935497782524115
% V (V) @ t=0.04
0.006380329255958693
% es.normE (V/m) @ t=0.06
1.3767367961747752
% es.EX (V/m) @ t=0.06
0.424949119128733
% es.EY (V/m) @ t=0.06
0.10294987085167617
% es.EZ (V/m) @ t=0.06
1.3054497899959825
% es.tEX (V/m) @ t=0.06
0.42494911912873334
% es.tEY (V/m) @ t=0.06
0
% es.tEZ (V/m) @ t=0.06
1.305449789995989
% es.Ex (V/m) @ t=0.06
0.424949119128733
% es.Ey (V/m) @ t=0.06
0.10294987085167617
% es.Ez (V/m) @ t=0.06
1.3054497899959825
% es.tEx (V/m) @ t=0.06
0.42494911912873334
% es.tEy (V/m) @ t=0.06
0
% es.tEz (V/m) @ t=0.06
1.305449789995989
% V (V) @ t=0.06
0.006439023558865135
% es.normE (V/m) @ t=0.08
1.3894617461727277
% es.EX (V/m) @ t=0.08
0.428876853359599
% es.EY (V/m) @ t=0.08
0.10390141896094829
% es.EZ (V/m) @ t=0.08
1.317515846060953
% es.tEX (V/m) @ t=0.08
0.428876853359597
% es.tEY (V/m) @ t=0.08
0
% es.tEZ (V/m) @ t=0.08
1.3175158460609513
% es.Ex (V/m) @ t=0.08
0.428876853359599
% es.Ey (V/m) @ t=0.08
0.10390141896094829
% es.Ez (V/m) @ t=0.08
1.317515846060953
% es.tEx (V/m) @ t=0.08
0.428876853359597
% es.tEy (V/m) @ t=0.08
0
% es.tEz (V/m) @ t=0.08
1.3175158460609513
% V (V) @ t=0.08
0.006498538393608629
% es.normE (V/m) @ t=0.1
1.4023426703184976
% es.EX (V/m) @ t=0.1
0.43285272324197466
% es.EY (V/m) @ t=0.1
0.10486461305246964
% es.EZ (V/m) @ t=0.1
1.329729803888784
% es.tEX (V/m) @ t=0.1
0.43285272324197877
% es.tEY (V/m) @ t=0.1
0
% es.tEZ (V/m) @ t=0.1
1.32972980388878
% es.Ex (V/m) @ t=0.1
0.43285272324197466
% es.Ey (V/m) @ t=0.1
0.10486461305246964
% es.Ez (V/m) @ t=0.1
1.329729803888784
% es.tEx (V/m) @ t=0.1
0.43285272324197877
% es.tEy (V/m) @ t=0.1
0
% es.tEz (V/m) @ t=0.1
1.32972980388878
% V (V) @ t=0.1
0.006558784106133346
% es.normE (V/m) @ t=0.12
1.4152235944642806
% es.EX (V/m) @ t=0.12
0.4368285931243694
% es.EY (V/m) @ t=0.12
0.10582780714399409
% es.EZ (V/m) @ t=0.12
1.3419437617166219
% es.tEX (V/m) @ t=0.12
0.43682859312437117
% es.tEY (V/m) @ t=0.12
0
% es.tEZ (V/m) @ t=0.12
1.3419437617166174
% es.Ex (V/m) @ t=0.12
0.4368285931243694
% es.Ey (V/m) @ t=0.12
0.10582780714399409
% es.Ez (V/m) @ t=0.12
1.3419437617166219
% es.tEx (V/m) @ t=0.12
0.43682859312437117
% es.tEy (V/m) @ t=0.12
0
% es.tEz (V/m) @ t=0.12
1.3419437617166174
% V (V) @ t=0.12
0.006619029818658061
% es.normE (V/m) @ t=0.14
1.4281520344924135
% es.EX (V/m) @ t=0.14
0.44081913201205425
% es.EY (V/m) @ t=0.14
0.10679456019872002
% es.EZ (V/m) @ t=0.14
1.3542027737968434
% es.tEX (V/m) @ t=0.14
0.44081913201205936
% es.tEY (V/m) @ t=0.14
0
% es.tEZ (V/m) @ t=0.14
1.3542027737968443
% es.Ex (V/m) @ t=0.14
0.44081913201205425
% es.Ey (V/m) @ t=0.14
0.10679456019872002
% es.Ez (V/m) @ t=0.14
1.3542027737968434
% es.tEx (V/m) @ t=0.14
0.44081913201205936
% es.tEy (V/m) @ t=0.14
0
% es.tEz (V/m) @ t=0.14
1.3542027737968443
% V (V) @ t=0.14
0.006679497317879208
% es.normE (V/m) @ t=0.16
1.4417324589649911
% es.EX (V/m) @ t=0.16
0.4450109501940078
% es.EY (V/m) @ t=0.16
0.10781014721236049
% es.EZ (V/m) @ t=0.16
1.3670799933112336
% es.tEX (V/m) @ t=0.16
0.44501095019400694
% es.tEY (V/m) @ t=0.16
0
% es.tEZ (V/m) @ t=0.16
1.3670799933112345
% es.Ex (V/m) @ t=0.16
0.4450109501940078
% es.Ey (V/m) @ t=0.16
0.10781014721236049
% es.Ez (V/m) @ t=0.16
1.3670799933112336
% es.tEx (V/m) @ t=0.16
0.44501095019400694
% es.tEy (V/m) @ t=0.16
0
% es.tEz (V/m) @ t=0.16
1.3670799933112345
% V (V) @ t=0.16
0.0067430080411527375
% es.normE (V/m) @ t=0.18
1.4553128834375904
% es.EX (V/m) @ t=0.18
0.4492027683759655
% es.EY (V/m) @ t=0.18
0.10882573422602893
% es.EZ (V/m) @ t=0.18
1.3799572128256363
% es.tEX (V/m) @ t=0.18
0.44920276837596873
% es.tEY (V/m) @ t=0.18
0
% es.tEZ (V/m) @ t=0.18
1.3799572128256337
% es.Ex (V/m) @ t=0.18
0.4492027683759655
% es.Ey (V/m) @ t=0.18
0.10882573422602893
% es.Ez (V/m) @ t=0.18
1.3799572128256363
% es.tEx (V/m) @ t=0.18
0.44920276837596873
% es.tEy (V/m) @ t=0.18
0
% es.tEz (V/m) @ t=0.18
1.3799572128256337
% V (V) @ t=0.18
0.0068065187644262655
% es.normE (V/m) @ t=0.2
1.4688933079101796
% es.EX (V/m) @ t=0.2
0.4533945865579111
% es.EY (V/m) @ t=0.2
0.10984132123967283
% es.EZ (V/m) @ t=0.2
1.3928344323400275
% es.tEX (V/m) @ t=0.2
0.45339458655791987
% es.tEY (V/m) @ t=0.2
0
% es.tEZ (V/m) @ t=0.2
1.392834432340031
% es.Ex (V/m) @ t=0.2
0.4533945865579111
% es.Ey (V/m) @ t=0.2
0.10984132123967283
% es.Ez (V/m) @ t=0.2
1.3928344323400275
% es.tEx (V/m) @ t=0.2
0.45339458655791987
% es.tEy (V/m) @ t=0.2
0
% es.tEz (V/m) @ t=0.2
1.392834432340031
% V (V) @ t=0.2
0.006870029487699795
% es.normE (V/m) @ t=0.22
1.4824737323827888
% es.EX (V/m) @ t=0.22
0.45758640473986845
% es.EY (V/m) @ t=0.22
0.11085690825331473
% es.EZ (V/m) @ t=0.22
1.4057116518544297
% es.tEX (V/m) @ t=0.22
0.457586404739871
% es.tEY (V/m) @ t=0.22
0
% es.tEZ (V/m) @ t=0.22
1.4057116518544284
% es.Ex (V/m) @ t=0.22
0.45758640473986845
% es.Ey (V/m) @ t=0.22
0.11085690825331473
% es.Ez (V/m) @ t=0.22
1.4057116518544297
% es.tEx (V/m) @ t=0.22
0.457586404739871
% es.tEy (V/m) @ t=0.22
0
% es.tEz (V/m) @ t=0.22
1.4057116518544284
% V (V) @ t=0.22
0.006933540210973323
% es.normE (V/m) @ t=0.24
1.49605415685541
% es.EX (V/m) @ t=0.24
0.46177822292183357
% es.EY (V/m) @ t=0.24
0.11187249526696352
% es.EZ (V/m) @ t=0.24
1.418588871368835
% es.tEX (V/m) @ t=0.24
0.46177822292183635
% es.tEY (V/m) @ t=0.24
0
% es.tEZ (V/m) @ t=0.24
1.4185888713688328
% es.Ex (V/m) @ t=0.24
0.46177822292183357
% es.Ey (V/m) @ t=0.24
0.11187249526696352
% es.Ez (V/m) @ t=0.24
1.418588871368835
% es.tEx (V/m) @ t=0.24
0.46177822292183635
% es.tEy (V/m) @ t=0.24
0
% es.tEz (V/m) @ t=0.24
1.4185888713688328
% V (V) @ t=0.24
0.006997050934246851
% es.normE (V/m) @ t=0.26
1.509634581328026
% es.EX (V/m) @ t=0.26
0.4659700411037875
% es.EY (V/m) @ t=0.26
0.11288808228060931
% es.EZ (V/m) @ t=0.26
1.4314660908832328
% es.tEX (V/m) @ t=0.26
0.4659700411037875
% es.tEY (V/m) @ t=0.26
0
% es.tEZ (V/m) @ t=0.26
1.4314660908832373
% es.Ex (V/m) @ t=0.26
0.4659700411037875
% es.Ey (V/m) @ t=0.26
0.11288808228060931
% es.Ez (V/m) @ t=0.26
1.4314660908832328
% es.tEx (V/m) @ t=0.26
0.4659700411037875
% es.tEy (V/m) @ t=0.26
0
% es.tEz (V/m) @ t=0.26
1.4314660908832373
% V (V) @ t=0.26
0.007060561657520382
% es.normE (V/m) @ t=0.28
1.523446833127632
% es.EX (V/m) @ t=0.28
0.4702333642174831
% es.EY (V/m) @ t=0.28
0.11392088413982271
% es.EZ (V/m) @ t=0.28
1.444563159755956
% es.tEX (V/m) @ t=0.28
0.47023336421748496
% es.tEY (V/m) @ t=0.28
0
% es.tEZ (V/m) @ t=0.28
1.4445631597559636
% es.Ex (V/m) @ t=0.28
0.4702333642174831
% es.Ey (V/m) @ t=0.28
0.11392088413982271
% es.Ez (V/m) @ t=0.28
1.444563159755956
% es.tEx (V/m) @ t=0.28
0.47023336421748496
% es.tEy (V/m) @ t=0.28
0
% es.tEz (V/m) @ t=0.28
1.4445631597559636
% V (V) @ t=0.28
0.007125165667409315
% es.normE (V/m) @ t=0.3
1.538615157443119
% es.EX (V/m) @ t=0.3
0.4749149549872107
% es.EY (V/m) @ t=0.3
0.11505438413168678
% es.EZ (V/m) @ t=0.3
1.4589462360905139
% es.tEX (V/m) @ t=0.3
0.4749149549872058
% es.tEY (V/m) @ t=0.3
0
% es.tEZ (V/m) @ t=0.3
1.4589462360905152
% es.Ex (V/m) @ t=0.3
0.4749149549872107
% es.Ey (V/m) @ t=0.3
0.11505438413168678
% es.Ez (V/m) @ t=0.3
1.4589462360905139
% es.tEx (V/m) @ t=0.3
0.4749149549872058
% es.tEy (V/m) @ t=0.3
0
% es.tEz (V/m) @ t=0.3
1.4589462360905152
% V (V) @ t=0.3
0.007196164850593657
% es.normE (V/m) @ t=0.32
1.5537834817593703
% es.EX (V/m) @ t=0.32
0.4795965457569301
% es.EY (V/m) @ t=0.32
0.11618788412354741
% es.EZ (V/m) @ t=0.32
1.4733293124250788
% es.tEX (V/m) @ t=0.32
0.4795965457569267
% es.tEY (V/m) @ t=0.32
0
% es.tEZ (V/m) @ t=0.32
1.4733293124250793
% es.Ex (V/m) @ t=0.32
0.4795965457569301
% es.Ey (V/m) @ t=0.32
0.11618788412354741
% es.Ez (V/m) @ t=0.32
1.4733293124250788
% es.tEx (V/m) @ t=0.32
0.4795965457569267
% es.tEy (V/m) @ t=0.32
0
% es.tEz (V/m) @ t=0.32
1.4733293124250793
% V (V) @ t=0.32
0.007267164033778
% es.normE (V/m) @ t=0.34
1.568951806076352
% es.EX (V/m) @ t=0.34
0.4842781365266464
% es.EY (V/m) @ t=0.34
0.11732138411540993
% es.EZ (V/m) @ t=0.34
1.4877123887596366
% es.tEX (V/m) @ t=0.34
0.48427813652664753
% es.tEY (V/m) @ t=0.34
0
% es.tEZ (V/m) @ t=0.34
1.487712388759645
% es.Ex (V/m) @ t=0.34
0.4842781365266464
% es.Ey (V/m) @ t=0.34
0.11732138411540993
% es.Ez (V/m) @ t=0.34
1.4877123887596366
% es.tEx (V/m) @ t=0.34
0.48427813652664753
% es.tEy (V/m) @ t=0.34
0
% es.tEz (V/m) @ t=0.34
1.487712388759645
% V (V) @ t=0.34
0.007338163216962343
% es.normE (V/m) @ t=0.36
1.5841201303940697
% es.EX (V/m) @ t=0.36
0.4889597272963808
% es.EY (V/m) @ t=0.36
0.118454884107276
% es.EZ (V/m) @ t=0.36
1.5020954650942082
% es.tEX (V/m) @ t=0.36
0.4889597272963826
% es.tEY (V/m) @ t=0.36
0
% es.tEZ (V/m) @ t=0.36
1.5020954650942109
% es.Ex (V/m) @ t=0.36
0.4889597272963808
% es.Ey (V/m) @ t=0.36
0.118454884107276
% es.Ez (V/m) @ t=0.36
1.5020954650942082
% es.tEx (V/m) @ t=0.36
0.4889597272963826
% es.tEy (V/m) @ t=0.36
0
% es.tEz (V/m) @ t=0.36
1.5020954650942109
% V (V) @ t=0.36
0.007409162400146685
% es.normE (V/m) @ t=0.38
1.5992884547124686
% es.EX (V/m) @ t=0.38
0.49364131806610123
% es.EY (V/m) @ t=0.38
0.1195883840991383
% es.EZ (V/m) @ t=0.38
1.5164785414287687
% es.tEX (V/m) @ t=0.38
0.49364131806610345
% es.tEY (V/m) @ t=0.38
0
% es.tEZ (V/m) @ t=0.38
1.5164785414287696
% es.Ex (V/m) @ t=0.38
0.49364131806610123
% es.Ey (V/m) @ t=0.38
0.1195883840991383
% es.Ez (V/m) @ t=0.38
1.5164785414287687
% es.tEx (V/m) @ t=0.38
0.49364131806610345
% es.tEy (V/m) @ t=0.38
0
% es.tEz (V/m) @ t=0.38
1.5164785414287696
% V (V) @ t=0.38
0.007480161583331029
% es.normE (V/m) @ t=0.4
1.6144567790315503
% es.EX (V/m) @ t=0.4
0.4983229088358291
% es.EY (V/m) @ t=0.4
0.1207218840910046
% es.EZ (V/m) @ t=0.4
1.5308616177633327
% es.tEX (V/m) @ t=0.4
0.4983229088358243
% es.tEY (V/m) @ t=0.4
0
% es.tEZ (V/m) @ t=0.4
1.5308616177633354
% es.Ex (V/m) @ t=0.4
0.4983229088358291
% es.Ey (V/m) @ t=0.4
0.1207218840910046
% es.Ez (V/m) @ t=0.4
1.5308616177633327
% es.tEx (V/m) @ t=0.4
0.4983229088358243
% es.tEy (V/m) @ t=0.4
0
% es.tEz (V/m) @ t=0.4
1.5308616177633354
% V (V) @ t=0.4
0.0075511607665153715
% es.normE (V/m) @ t=0.42
1.6296251033512745
% es.EX (V/m) @ t=0.42
0.5030044996055483
% es.EY (V/m) @ t=0.42
0.12185538408286511
% es.EZ (V/m) @ t=0.42
1.545244694097884
% es.tEX (V/m) @ t=0.42
0.5030044996055523
% es.tEY (V/m) @ t=0.42
0
% es.tEZ (V/m) @ t=0.42
1.5452446940978888
% es.Ex (V/m) @ t=0.42
0.5030044996055483
% es.Ey (V/m) @ t=0.42
0.12185538408286511
% es.Ez (V/m) @ t=0.42
1.545244694097884
% es.tEx (V/m) @ t=0.42
0.5030044996055523
% es.tEy (V/m) @ t=0.42
0
% es.tEz (V/m) @ t=0.42
1.5452446940978888
% V (V) @ t=0.42
0.007622159949699715
% es.normE (V/m) @ t=0.44
1.6447934276716571
% es.EX (V/m) @ t=0.44
0.5076860903752709
% es.EY (V/m) @ t=0.44
0.12298888407470643
% es.EZ (V/m) @ t=0.44
1.559627770432455
% es.tEX (V/m) @ t=0.44
0.5076860903752731
% es.tEY (V/m) @ t=0.44
0
% es.tEZ (V/m) @ t=0.44
1.55962777043246
% es.Ex (V/m) @ t=0.44
0.5076860903752709
% es.Ey (V/m) @ t=0.44
0.12298888407470643
% es.Ez (V/m) @ t=0.44
1.559627770432455
% es.tEx (V/m) @ t=0.44
0.5076860903752731
% es.tEy (V/m) @ t=0.44
0
% es.tEz (V/m) @ t=0.44
1.55962777043246
% V (V) @ t=0.44
0.007693159132884056
% es.normE (V/m) @ t=0.46
1.6599617519926477
% es.EX (V/m) @ t=0.46
0.5123676811449828
% es.EY (V/m) @ t=0.46
0.12412238406657228
% es.EZ (V/m) @ t=0.46
1.5740108467670129
% es.tEX (V/m) @ t=0.46
0.5123676811449869
% es.tEY (V/m) @ t=0.46
0
% es.tEZ (V/m) @ t=0.46
1.574010846767024
% es.Ex (V/m) @ t=0.46
0.5123676811449828
% es.Ey (V/m) @ t=0.46
0.12412238406657228
% es.Ez (V/m) @ t=0.46
1.5740108467670129
% es.tEx (V/m) @ t=0.46
0.5123676811449869
% es.tEy (V/m) @ t=0.46
0
% es.tEz (V/m) @ t=0.46
1.574010846767024
% V (V) @ t=0.46
0.0077641583160684
% es.normE (V/m) @ t=0.48
1.6751300763142607
% es.EX (V/m) @ t=0.48
0.5170492719147141
% es.EY (V/m) @ t=0.48
0.12525588405845278
% es.EZ (V/m) @ t=0.48
1.5883939231015813
% es.tEX (V/m) @ t=0.48
0.5170492719147148
% es.tEY (V/m) @ t=0.48
0
% es.tEZ (V/m) @ t=0.48
1.5883939231015827
% es.Ex (V/m) @ t=0.48
0.5170492719147141
% es.Ey (V/m) @ t=0.48
0.12525588405845278
% es.Ez (V/m) @ t=0.48
1.5883939231015813
% es.tEx (V/m) @ t=0.48
0.5170492719147148
% es.tEy (V/m) @ t=0.48
0
% es.tEz (V/m) @ t=0.48
1.5883939231015827
% V (V) @ t=0.48
0.007835157499252742
% es.normE (V/m) @ t=0.5
1.6902984006364652
% es.EX (V/m) @ t=0.5
0.5217308626844458
% es.EY (V/m) @ t=0.5
0.12638938405031686
% es.EZ (V/m) @ t=0.5
1.6027769994361534
% es.tEX (V/m) @ t=0.5
0.5217308626844428
% es.tEY (V/m) @ t=0.5
0
% es.tEZ (V/m) @ t=0.5
1.6027769994361503
% es.Ex (V/m) @ t=0.5
0.5217308626844458
% es.Ey (V/m) @ t=0.5
0.12638938405031686
% es.Ez (V/m) @ t=0.5
1.6027769994361534
% es.tEx (V/m) @ t=0.5
0.5217308626844428
% es.tEy (V/m) @ t=0.5
0
% es.tEz (V/m) @ t=0.5
1.6027769994361503
% V (V) @ t=0.5
0.007906156682437087
% es.normE (V/m) @ t=0.52
1.7054667249592335
% es.EX (V/m) @ t=0.52
0.526412453454172
% es.EY (V/m) @ t=0.52
0.1275228840421756
% es.EZ (V/m) @ t=0.52
1.6171600757707179
% es.tEX (V/m) @ t=0.52
0.5264124534541708
% es.tEY (V/m) @ t=0.52
0
% es.tEZ (V/m) @ t=0.52
1.6171600757707179
% es.Ex (V/m) @ t=0.52
0.526412453454172
% es.Ey (V/m) @ t=0.52
0.1275228840421756
% es.Ez (V/m) @ t=0.52
1.6171600757707179
% es.tEx (V/m) @ t=0.52
0.5264124534541708
% es.tEy (V/m) @ t=0.52
0
% es.tEz (V/m) @ t=0.52
1.6171600757707179
% V (V) @ t=0.52
0.007977155865621428
% es.normE (V/m) @ t=0.54
1.7206350492825484
% es.EX (V/m) @ t=0.54
0.5310940442238855
% es.EY (V/m) @ t=0.54
0.12865638403402535
% es.EZ (V/m) @ t=0.54
1.6315431521052752
% es.tEX (V/m) @ t=0.54
0.5310940442238916
% es.tEY (V/m) @ t=0.54
0
% es.tEZ (V/m) @ t=0.54
1.631543152105282
% es.Ex (V/m) @ t=0.54
0.5310940442238855
% es.Ey (V/m) @ t=0.54
0.12865638403402535
% es.Ez (V/m) @ t=0.54
1.6315431521052752
% es.tEx (V/m) @ t=0.54
0.5310940442238916
% es.tEy (V/m) @ t=0.54
0
% es.tEz (V/m) @ t=0.54
1.631543152105282
% V (V) @ t=0.54
0.008048155048805771
% es.normE (V/m) @ t=0.56
1.7363449959931456
% es.EX (V/m) @ t=0.56
0.5359428377273584
% es.EY (V/m) @ t=0.56
0.12983043726309496
% es.EZ (V/m) @ t=0.56
1.6464397942750582
% es.tEX (V/m) @ t=0.56
0.5359428377273616
% es.tEY (V/m) @ t=0.56
0
% es.tEZ (V/m) @ t=0.56
1.6464397942750573
% es.Ex (V/m) @ t=0.56
0.5359428377273584
% es.Ey (V/m) @ t=0.56
0.12983043726309496
% es.Ez (V/m) @ t=0.56
1.6464397942750582
% es.tEx (V/m) @ t=0.56
0.5359428377273616
% es.tEy (V/m) @ t=0.56
0
% es.tEz (V/m) @ t=0.56
1.6464397942750573
% V (V) @ t=0.56
0.0081216833439292
% es.normE (V/m) @ t=0.58
1.7533059888008524
% es.EX (V/m) @ t=0.58
0.5411778381760063
% es.EY (V/m) @ t=0.58
0.1310981608616839
% es.EZ (V/m) @ t=0.58
1.6625226771714372
% es.tEX (V/m) @ t=0.58
0.5411778381760044
% es.tEY (V/m) @ t=0.58
0
% es.tEZ (V/m) @ t=0.58
1.6625226771714416
% es.Ex (V/m) @ t=0.58
0.5411778381760063
% es.Ey (V/m) @ t=0.58
0.1310981608616839
% es.Ez (V/m) @ t=0.58
1.6625226771714372
% es.tEx (V/m) @ t=0.58
0.5411778381760044
% es.tEy (V/m) @ t=0.58
0
% es.tEz (V/m) @ t=0.58
1.6625226771714416
% V (V) @ t=0.58
0.008201053413131806
% es.normE (V/m) @ t=0.6
1.7702669816088266
% es.EX (V/m) @ t=0.6
0.5464128386246561
% es.EY (V/m) @ t=0.6
0.13236588446024944
% es.EZ (V/m) @ t=0.6
1.6786055600678127
% es.tEX (V/m) @ t=0.6
0.5464128386246543
% es.tEY (V/m) @ t=0.6
0
% es.tEZ (V/m) @ t=0.6
1.6786055600678136
% es.Ex (V/m) @ t=0.6
0.5464128386246561
% es.Ey (V/m) @ t=0.6
0.13236588446024944
% es.Ez (V/m) @ t=0.6
1.6786055600678127
% es.tEx (V/m) @ t=0.6
0.5464128386246543
% es.tEy (V/m) @ t=0.6
0
% es.tEz (V/m) @ t=0.6
1.6786055600678136
% V (V) @ t=0.6
0.00828042348233441
% es.normE (V/m) @ t=0.62
1.7872279744170498
% es.EX (V/m) @ t=0.62
0.5516478390732967
% es.EY (V/m) @ t=0.62
0.13363360805883306
% es.EZ (V/m) @ t=0.62
1.694688442964174
% es.tEX (V/m) @ t=0.62
0.5516478390733042
% es.tEY (V/m) @ t=0.62
0
% es.tEZ (V/m) @ t=0.62
1.6946884429641766
% es.Ex (V/m) @ t=0.62
0.5516478390732967
% es.Ey (V/m) @ t=0.62
0.13363360805883306
% es.Ez (V/m) @ t=0.62
1.694688442964174
% es.tEx (V/m) @ t=0.62
0.5516478390733042
% es.tEy (V/m) @ t=0.62
0
% es.tEz (V/m) @ t=0.62
1.6946884429641766
% V (V) @ t=0.62
0.008359793551537016
% es.normE (V/m) @ t=0.64
1.8041889672255373
% es.EX (V/m) @ t=0.64
0.5568828395219512
% es.EY (V/m) @ t=0.64
0.1349013316574118
% es.EZ (V/m) @ t=0.64
1.7107713258605384
% es.tEX (V/m) @ t=0.64
0.556882839521954
% es.tEY (V/m) @ t=0.64
0
% es.tEZ (V/m) @ t=0.64
1.7107713258605362
% es.Ex (V/m) @ t=0.64
0.5568828395219512
% es.Ey (V/m) @ t=0.64
0.1349013316574118
% es.Ez (V/m) @ t=0.64
1.7107713258605384
% es.tEx (V/m) @ t=0.64
0.556882839521954
% es.tEy (V/m) @ t=0.64
0
% es.tEz (V/m) @ t=0.64
1.7107713258605362
% V (V) @ t=0.64
0.008439163620739622
% es.normE (V/m) @ t=0.66
1.8211499600342753
% es.EX (V/m) @ t=0.66
0.5621178399705954
% es.EY (V/m) @ t=0.66
0.13616905525599898
% es.EZ (V/m) @ t=0.66
1.7268542087569068
% es.tEX (V/m) @ t=0.66
0.5621178399705897
% es.tEY (V/m) @ t=0.66
0
% es.tEZ (V/m) @ t=0.66
1.7268542087569188
% es.Ex (V/m) @ t=0.66
0.5621178399705954
% es.Ey (V/m) @ t=0.66
0.13616905525599898
% es.Ez (V/m) @ t=0.66
1.7268542087569068
% es.tEx (V/m) @ t=0.66
0.5621178399705897
% es.tEy (V/m) @ t=0.66
0
% es.tEz (V/m) @ t=0.66
1.7268542087569188
% V (V) @ t=0.66
0.008518533689942228
% es.normE (V/m) @ t=0.68
1.838110952843253
% es.EX (V/m) @ t=0.68
0.5673528404192474
% es.EY (V/m) @ t=0.68
0.1374367788545542
% es.EZ (V/m) @ t=0.68
1.7429370916532716
% es.tEX (V/m) @ t=0.68
0.5673528404192467
% es.tEY (V/m) @ t=0.68
0
% es.tEZ (V/m) @ t=0.68
1.7429370916532765
% es.Ex (V/m) @ t=0.68
0.5673528404192474
% es.Ey (V/m) @ t=0.68
0.1374367788545542
% es.Ez (V/m) @ t=0.68
1.7429370916532716
% es.tEx (V/m) @ t=0.68
0.5673528404192467
% es.tEy (V/m) @ t=0.68
0
% es.tEz (V/m) @ t=0.68
1.7429370916532765
% V (V) @ t=0.68
0.008597903759144834
% es.normE (V/m) @ t=0.7
1.8550719456524676
% es.EX (V/m) @ t=0.7
0.5725878408678899
% es.EY (V/m) @ t=0.7
0.13870450245315336
% es.EZ (V/m) @ t=0.7
1.7590199745496369
% es.tEX (V/m) @ t=0.7
0.5725878408678966
% es.tEY (V/m) @ t=0.7
0
% es.tEZ (V/m) @ t=0.7
1.7590199745496413
% es.Ex (V/m) @ t=0.7
0.5725878408678899
% es.Ey (V/m) @ t=0.7
0.13870450245315336
% es.Ez (V/m) @ t=0.7
1.7590199745496369
% es.tEx (V/m) @ t=0.7
0.5725878408678966
% es.tEy (V/m) @ t=0.7
0
% es.tEz (V/m) @ t=0.7
1.7590199745496413
% V (V) @ t=0.7
0.00867727382834744
% es.normE (V/m) @ t=0.72
1.872032938461916
% es.EX (V/m) @ t=0.72
0.5778228413165412
% es.EY (V/m) @ t=0.72
0.13997222605173532
% es.EZ (V/m) @ t=0.72
1.7751028574460053
% es.tEX (V/m) @ t=0.72
0.5778228413165465
% es.tEY (V/m) @ t=0.72
0
% es.tEZ (V/m) @ t=0.72
1.7751028574460044
% es.Ex (V/m) @ t=0.72
0.5778228413165412
% es.Ey (V/m) @ t=0.72
0.13997222605173532
% es.Ez (V/m) @ t=0.72
1.7751028574460053
% es.tEx (V/m) @ t=0.72
0.5778228413165465
% es.tEy (V/m) @ t=0.72
0
% es.tEz (V/m) @ t=0.72
1.7751028574460044
% V (V) @ t=0.72
0.008756643897550044
% es.normE (V/m) @ t=0.74
1.8889939312715804
% es.EX (V/m) @ t=0.74
0.5830578417651836
% es.EY (V/m) @ t=0.74
0.1412399496502994
% es.EZ (V/m) @ t=0.74
1.79118574034237
% es.tEX (V/m) @ t=0.74
0.5830578417651822
% es.tEY (V/m) @ t=0.74
0
% es.tEZ (V/m) @ t=0.74
1.7911857403423674
% es.Ex (V/m) @ t=0.74
0.5830578417651836
% es.Ey (V/m) @ t=0.74
0.1412399496502994
% es.Ez (V/m) @ t=0.74
1.79118574034237
% es.tEx (V/m) @ t=0.74
0.5830578417651822
% es.tEy (V/m) @ t=0.74
0
% es.tEz (V/m) @ t=0.74
1.7911857403423674
% V (V) @ t=0.74
0.00883601396675265
% es.normE (V/m) @ t=0.76
1.9059549240814706
% es.EX (V/m) @ t=0.76
0.5882928422138406
% es.EY (V/m) @ t=0.76
0.1425076732488778
% es.EZ (V/m) @ t=0.76
1.8072686232387376
% es.tEX (V/m) @ t=0.76
0.5882928422138392
% es.tEY (V/m) @ t=0.76
0
% es.tEZ (V/m) @ t=0.76
1.8072686232387412
% es.Ex (V/m) @ t=0.76
0.5882928422138406
% es.Ey (V/m) @ t=0.76
0.1425076732488778
% es.Ez (V/m) @ t=0.76
1.8072686232387376
% es.tEx (V/m) @ t=0.76
0.5882928422138392
% es.tEy (V/m) @ t=0.76
0
% es.tEz (V/m) @ t=0.76
1.8072686232387412
% V (V) @ t=0.76
0.008915384035955256
% es.normE (V/m) @ t=0.78
1.9229159168915668
% es.EX (V/m) @ t=0.78
0.5935278426624733
% es.EY (V/m) @ t=0.78
0.14377539684745644
% es.EZ (V/m) @ t=0.78
1.8233515061351069
% es.tEX (V/m) @ t=0.78
0.5935278426624677
% es.tEY (V/m) @ t=0.78
0
% es.tEZ (V/m) @ t=0.78
1.8233515061351024
% es.Ex (V/m) @ t=0.78
0.5935278426624733
% es.Ey (V/m) @ t=0.78
0.14377539684745644
% es.Ez (V/m) @ t=0.78
1.8233515061351069
% es.tEx (V/m) @ t=0.78
0.5935278426624677
% es.tEy (V/m) @ t=0.78
0
% es.tEz (V/m) @ t=0.78
1.8233515061351024
% V (V) @ t=0.78
0.008994754105157862
% es.normE (V/m) @ t=0.8
1.939876909701875
% es.EX (V/m) @ t=0.8
0.5987628431111266
% es.EY (V/m) @ t=0.8
0.14504312044604906
% es.EZ (V/m) @ t=0.8
1.8394343890314748
% es.tEX (V/m) @ t=0.8
0.5987628431111247
% es.tEY (V/m) @ t=0.8
0
% es.tEZ (V/m) @ t=0.8
1.8394343890314762
% es.Ex (V/m) @ t=0.8
0.5987628431111266
% es.Ey (V/m) @ t=0.8
0.14504312044604906
% es.Ez (V/m) @ t=0.8
1.8394343890314748
% es.tEx (V/m) @ t=0.8
0.5987628431111247
% es.tEy (V/m) @ t=0.8
0
% es.tEz (V/m) @ t=0.8
1.8394343890314762
% V (V) @ t=0.8
0.009074124174360468
% es.normE (V/m) @ t=0.82
1.9568379025123863
% es.EX (V/m) @ t=0.82
0.6039978435597764
% es.EY (V/m) @ t=0.82
0.1463108440446198
% es.EZ (V/m) @ t=0.82
1.8555172719278472
% es.tEX (V/m) @ t=0.82
0.6039978435597746
% es.tEY (V/m) @ t=0.82
0
% es.tEZ (V/m) @ t=0.82
1.8555172719278605
% es.Ex (V/m) @ t=0.82
0.6039978435597764
% es.Ey (V/m) @ t=0.82
0.1463108440446198
% es.Ez (V/m) @ t=0.82
1.8555172719278472
% es.tEx (V/m) @ t=0.82
0.6039978435597746
% es.tEy (V/m) @ t=0.82
0
% es.tEz (V/m) @ t=0.82
1.8555172719278605
% V (V) @ t=0.82
0.009153494243563072
% es.normE (V/m) @ t=0.84
1.974730883638665
% es.EX (V/m) @ t=0.84
0.6095206888607104
% es.EY (V/m) @ t=0.84
0.14764867405118187
% es.EZ (V/m) @ t=0.84
1.8724837973485764
% es.tEX (V/m) @ t=0.84
0.6095206888607052
% es.tEY (V/m) @ t=0.84
0
% es.tEZ (V/m) @ t=0.84
1.8724837973485897
% es.Ex (V/m) @ t=0.84
0.6095206888607104
% es.Ey (V/m) @ t=0.84
0.14764867405118187
% es.Ez (V/m) @ t=0.84
1.8724837973485764
% es.tEx (V/m) @ t=0.84
0.6095206888607052
% es.tEy (V/m) @ t=0.84
0
% es.tEz (V/m) @ t=0.84
1.8724837973485897
% V (V) @ t=0.84
0.009237192980464621
% es.normE (V/m) @ t=0.86
1.9937255968733407
% es.EX (V/m) @ t=0.86
0.615383804431807
% es.EY (V/m) @ t=0.86
0.14906937900303407
% es.EZ (V/m) @ t=0.86
1.890494903827845
% es.tEX (V/m) @ t=0.86
0.6153838044318007
% es.tEY (V/m) @ t=0.86
0
% es.tEZ (V/m) @ t=0.86
1.8904949038278591
% es.Ex (V/m) @ t=0.86
0.615383804431807
% es.Ey (V/m) @ t=0.86
0.14906937900303407
% es.Ez (V/m) @ t=0.86
1.890494903827845
% es.tEx (V/m) @ t=0.86
0.6153838044318007
% es.tEy (V/m) @ t=0.86
0
% es.tEz (V/m) @ t=0.86
1.8904949038278591
% V (V) @ t=0.86
0.009326008768845985
% es.normE (V/m) @ t=0.88
2.012720310108242
% es.EX (V/m) @ t=0.88
0.6212469200028824
% es.EY (V/m) @ t=0.88
0.15049008395489316
% es.EZ (V/m) @ t=0.88
1.908506010307104
% es.tEX (V/m) @ t=0.88
0.6212469200028821
% es.tEY (V/m) @ t=0.88
0
% es.tEZ (V/m) @ t=0.88
1.9085060103071
% es.Ex (V/m) @ t=0.88
0.6212469200028824
% es.Ey (V/m) @ t=0.88
0.15049008395489316
% es.Ez (V/m) @ t=0.88
1.908506010307104
% es.tEx (V/m) @ t=0.88
0.6212469200028821
% es.tEy (V/m) @ t=0.88
0
% es.tEz (V/m) @ t=0.88
1.9085060103071
% V (V) @ t=0.88
0.00941482455722735
% es.normE (V/m) @ t=0.9
2.031715023343361
% es.EX (V/m) @ t=0.9
0.6271100355739737
% es.EY (V/m) @ t=0.9
0.15191078890673515
% es.EZ (V/m) @ t=0.9
1.9265171167863429
% es.tEX (V/m) @ t=0.9
0.6271100355739776
% es.tEY (V/m) @ t=0.9
0
% es.tEZ (V/m) @ t=0.9
1.9265171167863482
% es.Ex (V/m) @ t=0.9
0.6271100355739737
% es.Ey (V/m) @ t=0.9
0.15191078890673515
% es.Ez (V/m) @ t=0.9
1.9265171167863429
% es.tEx (V/m) @ t=0.9
0.6271100355739776
% es.tEy (V/m) @ t=0.9
0
% es.tEz (V/m) @ t=0.9
1.9265171167863482
% V (V) @ t=0.9
0.009503640345608714
% es.normE (V/m) @ t=0.92
2.050709736578739
% es.EX (V/m) @ t=0.92
0.6329731511450688
% es.EY (V/m) @ t=0.92
0.15333149385860312
% es.EZ (V/m) @ t=0.92
1.9445282232656127
% es.tEX (V/m) @ t=0.92
0.632973151145066
% es.tEY (V/m) @ t=0.92
0
% es.tEZ (V/m) @ t=0.92
1.9445282232656051
% es.Ex (V/m) @ t=0.92
0.6329731511450688
% es.Ey (V/m) @ t=0.92
0.15333149385860312
% es.Ez (V/m) @ t=0.92
1.9445282232656127
% es.tEx (V/m) @ t=0.92
0.632973151145066
% es.tEy (V/m) @ t=0.92
0
% es.tEz (V/m) @ t=0.92
1.9445282232656051
% V (V) @ t=0.92
0.009592456133990077
% es.normE (V/m) @ t=0.94
2.0697044498143127
% es.EX (V/m) @ t=0.94
0.6388362667161585
% es.EY (V/m) @ t=0.94
0.15475219881042812
% es.EZ (V/m) @ t=0.94
1.9625393297448608
% es.tEX (V/m) @ t=0.94
0.6388362667161616
% es.tEY (V/m) @ t=0.94
0
% es.tEZ (V/m) @ t=0.94
1.9625393297448657
% es.Ex (V/m) @ t=0.94
0.6388362667161585
% es.Ey (V/m) @ t=0.94
0.15475219881042812
% es.Ez (V/m) @ t=0.94
1.9625393297448608
% es.tEx (V/m) @ t=0.94
0.6388362667161616
% es.tEy (V/m) @ t=0.94
0
% es.tEz (V/m) @ t=0.94
1.9625393297448657
% V (V) @ t=0.94
0.00968127192237144
% es.normE (V/m) @ t=0.96
2.0886991630501117
% es.EX (V/m) @ t=0.96
0.6446993822872442
% es.EY (V/m) @ t=0.96
0.15617290376229664
% es.EZ (V/m) @ t=0.96
1.9805504362241182
% es.tEX (V/m) @ t=0.96
0.64469938228725
% es.tEY (V/m) @ t=0.96
0
% es.tEZ (V/m) @ t=0.96
1.9805504362241226
% es.Ex (V/m) @ t=0.96
0.6446993822872442
% es.Ey (V/m) @ t=0.96
0.15617290376229664
% es.Ez (V/m) @ t=0.96
1.9805504362241182
% es.tEx (V/m) @ t=0.96
0.64469938228725
% es.tEy (V/m) @ t=0.96
0
% es.tEz (V/m) @ t=0.96
1.9805504362241226
% V (V) @ t=0.96
0.009770087710752804
% es.normE (V/m) @ t=0.98
2.1076938762861204
% es.EX (V/m) @ t=0.98
0.6505624978583306
% es.EY (V/m) @ t=0.98
0.15759360871416073
% es.EZ (V/m) @ t=0.98
1.9985615427033765
% es.tEX (V/m) @ t=0.98
0.6505624978583313
% es.tEY (V/m) @ t=0.98
0
% es.tEZ (V/m) @ t=0.98
1.998561542703369
% es.Ex (V/m) @ t=0.98
0.6505624978583306
% es.Ey (V/m) @ t=0.98
0.15759360871416073
% es.Ez (V/m) @ t=0.98
1.9985615427033765
% es.tEx (V/m) @ t=0.98
0.6505624978583313
% es.tEy (V/m) @ t=0.98
0
% es.tEz (V/m) @ t=0.98
1.998561542703369
% V (V) @ t=0.98
0.009858903499134167
% es.normE (V/m) @ t=1
2.1266885895223337
% es.EX (V/m) @ t=1
0.6564256134294292
% es.EY (V/m) @ t=1
0.15901431366598606
% es.EZ (V/m) @ t=1
2.0165726491826357
% es.tEX (V/m) @ t=1
0.656425613429434
% es.tEY (V/m) @ t=1
0
% es.tEZ (V/m) @ t=1
2.0165726491826472
% es.Ex (V/m) @ t=1
0.6564256134294292
% es.Ey (V/m) @ t=1
0.15901431366598606
% es.Ez (V/m) @ t=1
2.0165726491826357
% es.tEx (V/m) @ t=1
0.656425613429434
% es.tEy (V/m) @ t=1
0
% es.tEz (V/m) @ t=1
2.0165726491826472
% V (V) @ t=1
0.00994771928751553
% es.normE (V/m) @ t=1.02
2.1456833027587328
% es.EX (V/m) @ t=1.02
0.6622887290005185
% es.EY (V/m) @ t=1.02
0.16043501861784937
% es.EZ (V/m) @ t=1.02
2.0345837556618824
% es.tEX (V/m) @ t=1.02
0.6622887290005224
% es.tEY (V/m) @ t=1.02
0
% es.tEZ (V/m) @ t=1.02
2.0345837556619024
% es.Ex (V/m) @ t=1.02
0.6622887290005185
% es.Ey (V/m) @ t=1.02
0.16043501861784937
% es.Ez (V/m) @ t=1.02
2.0345837556618824
% es.tEx (V/m) @ t=1.02
0.6622887290005224
% es.tEy (V/m) @ t=1.02
0
% es.tEz (V/m) @ t=1.02
2.0345837556619024
% V (V) @ t=1.02
0.010036535075896892
% es.normE (V/m) @ t=1.04
2.1646780159953423
% es.EX (V/m) @ t=1.04
0.6681518445716084
% es.EY (V/m) @ t=1.04
0.16185572356970857
% es.EZ (V/m) @ t=1.04
2.052594862141148
% es.tEX (V/m) @ t=1.04
0.6681518445716108
% es.tEY (V/m) @ t=1.04
0
% es.tEZ (V/m) @ t=1.04
2.0525948621411523
% es.Ex (V/m) @ t=1.04
0.6681518445716084
% es.Ey (V/m) @ t=1.04
0.16185572356970857
% es.Ez (V/m) @ t=1.04