% Model:              1 neuron.mph
% Version:            COMSOL 6.0.0.405
% Date:               Mar 9 2023, 13:30
% Dimension:          0
% Nodes:              14017
% Expressions:        14017
% Description:        Electric field norm, Electric field, X component, Electric field, Y component, Electric field, Z component, Tangential electric field, X component, Tangential electric field, Y component, Tangential electric field, Z component, Electric field, x component, Electric field, y component, Electric field, z component, Tangential electric field, x component, Tangential electric field, y component, Tangential electric field, z component, Electric potential
% Length unit:        mm
% x
1.66
% y
12.2
% z
1
% es.normE (V/m) @ t=0
1.499609400574725
% es.EX (V/m) @ t=0
-0.5345173504871412
% es.EY (V/m) @ t=0
0.16981381086051262
% es.EZ (V/m) @ t=0
1.3864773372560628
% es.tEX (V/m) @ t=0
-0.5345173504871483
% es.tEY (V/m) @ t=0
0
% es.tEZ (V/m) @ t=0
1.3864773372560606
% es.Ex (V/m) @ t=0
-0.5345173504871412
% es.Ey (V/m) @ t=0
0.16981381086051262
% es.Ez (V/m) @ t=0
1.3864773372560628
% es.tEx (V/m) @ t=0
-0.5345173504871483
% es.tEy (V/m) @ t=0
0
% es.tEz (V/m) @ t=0
1.3864773372560606
% V (V) @ t=0
0.007301277409048411
% es.normE (V/m) @ t=0.02
1.2952423770142651
% es.EX (V/m) @ t=0.02
-0.4616732354805424
% es.EY (V/m) @ t=0.02
0.14667155569219303
% es.EZ (V/m) @ t=0.02
1.1975279704099395
% es.tEX (V/m) @ t=0.02
-0.4616732354805513
% es.tEY (V/m) @ t=0.02
0
% es.tEZ (V/m) @ t=0.02
1.1975279704099373
% es.Ex (V/m) @ t=0.02
-0.4616732354805424
% es.Ey (V/m) @ t=0.02
0.14667155569219303
% es.Ez (V/m) @ t=0.02
1.1975279704099395
% es.tEx (V/m) @ t=0.02
-0.4616732354805513
% es.tEy (V/m) @ t=0.02
0
% es.tEz (V/m) @ t=0.02
1.1975279704099373
% V (V) @ t=0.02
0.006306258074299894
% es.normE (V/m) @ t=0.04
1.307156990056563
% es.EX (V/m) @ t=0.04
-0.4659200533169551
% es.EY (V/m) @ t=0.04
0.1480207505577813
% es.EZ (V/m) @ t=0.04
1.2085437327640163
% es.tEX (V/m) @ t=0.04
-0.46592005331696396
% es.tEY (V/m) @ t=0.04
0
% es.tEZ (V/m) @ t=0.04
1.2085437327640172
% es.Ex (V/m) @ t=0.04
-0.4659200533169551
% es.Ey (V/m) @ t=0.04
0.1480207505577813
% es.Ez (V/m) @ t=0.04
1.2085437327640163
% es.tEx (V/m) @ t=0.04
-0.46592005331696396
% es.tEy (V/m) @ t=0.04
0
% es.tEz (V/m) @ t=0.04
1.2085437327640172
% V (V) @ t=0.04
0.006364267758393227
% es.normE (V/m) @ t=0.06
1.319179364244126
% es.EX (V/m) @ t=0.06
-0.47020528070025824
% es.EY (V/m) @ t=0.06
0.1493821487393232
% es.EZ (V/m) @ t=0.06
1.2196591268472075
% es.tEX (V/m) @ t=0.06
-0.47020528070026535
% es.tEY (V/m) @ t=0.06
0
% es.tEZ (V/m) @ t=0.06
1.2196591268472057
% es.Ex (V/m) @ t=0.06
-0.47020528070025824
% es.Ey (V/m) @ t=0.06
0.1493821487393232
% es.Ez (V/m) @ t=0.06
1.2196591268472075
% es.tEx (V/m) @ t=0.06
-0.47020528070026535
% es.tEy (V/m) @ t=0.06
0
% es.tEz (V/m) @ t=0.06
1.2196591268472057
% V (V) @ t=0.06
0.006422802137744079
% es.normE (V/m) @ t=0.08
1.331384424618308
% es.EX (V/m) @ t=0.08
-0.4745556241436185
% es.EY (V/m) @ t=0.08
0.15076423425170737
% es.EZ (V/m) @ t=0.08
1.2309434251469904
% es.tEX (V/m) @ t=0.08
-0.4745556241436256
% es.tEY (V/m) @ t=0.08
0
% es.tEZ (V/m) @ t=0.08
1.2309434251469886
% es.Ex (V/m) @ t=0.08
-0.4745556241436185
% es.Ey (V/m) @ t=0.08
0.15076423425170737
% es.Ez (V/m) @ t=0.08
1.2309434251469904
% es.tEx (V/m) @ t=0.08
-0.4745556241436256
% es.tEy (V/m) @ t=0.08
0
% es.tEz (V/m) @ t=0.08
1.2309434251469886
% V (V) @ t=0.08
0.006482225986413523
% es.normE (V/m) @ t=0.1
1.3437181604083897
% es.EX (V/m) @ t=0.1
-0.47895183222658244
% es.EY (V/m) @ t=0.1
0.1521608909308806
% es.EZ (V/m) @ t=0.1
1.2423466915018855
% es.tEX (V/m) @ t=0.1
-0.4789518322265913
% es.tEY (V/m) @ t=0.1
0
% es.tEZ (V/m) @ t=0.1
1.2423466915018837
% es.Ex (V/m) @ t=0.1
-0.47895183222658244
% es.Ey (V/m) @ t=0.1
0.1521608909308806
% es.Ez (V/m) @ t=0.1
1.2423466915018855
% es.tEx (V/m) @ t=0.1
-0.4789518322265913
% es.tEy (V/m) @ t=0.1
0
% es.tEz (V/m) @ t=0.1
1.2423466915018837
% V (V) @ t=0.1
0.006542276334746822
% es.normE (V/m) @ t=0.12
1.3560518961984764
% es.EX (V/m) @ t=0.12
-0.4833480403095516
% es.EY (V/m) @ t=0.12
0.15355754761004947
% es.EZ (V/m) @ t=0.12
1.2537499578567846
% es.tEX (V/m) @ t=0.12
-0.48334804030956047
% es.tEY (V/m) @ t=0.12
0
% es.tEZ (V/m) @ t=0.12
1.253749957856785
% es.Ex (V/m) @ t=0.12
-0.4833480403095516
% es.Ey (V/m) @ t=0.12
0.15355754761004947
% es.Ez (V/m) @ t=0.12
1.2537499578567846
% es.tEx (V/m) @ t=0.12
-0.48334804030956047
% es.tEy (V/m) @ t=0.12
0
% es.tEz (V/m) @ t=0.12
1.253749957856785
% V (V) @ t=0.12
0.006602326683080118
% es.normE (V/m) @ t=0.14
1.3685064908893811
% es.EX (V/m) @ t=0.14
-0.48778732723180807
% es.EY (V/m) @ t=0.14
0.1549678900309962
% es.EZ (V/m) @ t=0.14
1.2652649653374475
% es.tEX (V/m) @ t=0.14
-0.48778732723181517
% es.tEY (V/m) @ t=0.14
0
% es.tEZ (V/m) @ t=0.14
1.2652649653374501
% es.Ex (V/m) @ t=0.14
-0.48778732723180807
% es.Ey (V/m) @ t=0.14
0.1549678900309962
% es.Ez (V/m) @ t=0.14
1.2652649653374475
% es.tEx (V/m) @ t=0.14
-0.48778732723181517
% es.tEy (V/m) @ t=0.14
0
% es.tEz (V/m) @ t=0.14
1.2652649653374501
% V (V) @ t=0.14
0.006662965459276966
% es.normE (V/m) @ t=0.16
1.3814990845779722
% es.EX (V/m) @ t=0.16
-0.4924183780390825
% es.EY (V/m) @ t=0.16
0.156439154033301
% es.EZ (V/m) @ t=0.16
1.2772773843720282
% es.tEX (V/m) @ t=0.16
-0.4924183780390896
% es.tEY (V/m) @ t=0.16
0
% es.tEZ (V/m) @ t=0.16
1.2772773843720264
% es.Ex (V/m) @ t=0.16
-0.4924183780390825
% es.Ey (V/m) @ t=0.16
0.156439154033301
% es.Ez (V/m) @ t=0.16
1.2772773843720282
% es.tEx (V/m) @ t=0.16
-0.4924183780390896
% es.tEy (V/m) @ t=0.16
0
% es.tEz (V/m) @ t=0.16
1.2772773843720264
% V (V) @ t=0.16
0.006726223600689343
% es.normE (V/m) @ t=0.18
1.3944916782665584
% es.EX (V/m) @ t=0.18
-0.4970494288463533
% es.EY (V/m) @ t=0.18
0.15791041803561146
% es.EZ (V/m) @ t=0.18
1.2892898034066054
% es.tEX (V/m) @ t=0.18
-0.4970494288463604
% es.tEY (V/m) @ t=0.18
0
% es.tEZ (V/m) @ t=0.18
1.289289803406601
% es.Ex (V/m) @ t=0.18
-0.4970494288463533
% es.Ey (V/m) @ t=0.18
0.15791041803561146
% es.Ez (V/m) @ t=0.18
1.2892898034066054
% es.tEx (V/m) @ t=0.18
-0.4970494288463604
% es.tEy (V/m) @ t=0.18
0
% es.tEz (V/m) @ t=0.18
1.289289803406601
% V (V) @ t=0.18
0.006789481742101719
% es.normE (V/m) @ t=0.2
1.4074842719551452
% es.EX (V/m) @ t=0.2
-0.501680479653626
% es.EY (V/m) @ t=0.2
0.15938168203790393
% es.EZ (V/m) @ t=0.2
1.3013022224411848
% es.tEX (V/m) @ t=0.2
-0.5016804796536349
% es.tEY (V/m) @ t=0.2
0
% es.tEZ (V/m) @ t=0.2
1.3013022224411825
% es.Ex (V/m) @ t=0.2
-0.501680479653626
% es.Ey (V/m) @ t=0.2
0.15938168203790393
% es.Ez (V/m) @ t=0.2
1.3013022224411848
% es.tEx (V/m) @ t=0.2
-0.5016804796536349
% es.tEy (V/m) @ t=0.2
0
% es.tEz (V/m) @ t=0.2
1.3013022224411825
% V (V) @ t=0.2
0.006852739883514097
% es.normE (V/m) @ t=0.22
1.4204768656437352
% es.EX (V/m) @ t=0.22
-0.5063115304608968
% es.EY (V/m) @ t=0.22
0.16085294604020783
% es.EZ (V/m) @ t=0.22
1.313314641475766
% es.tEX (V/m) @ t=0.22
-0.5063115304609057
% es.tEY (V/m) @ t=0.22
0
% es.tEZ (V/m) @ t=0.22
1.3133146414757677
% es.Ex (V/m) @ t=0.22
-0.5063115304608968
% es.Ey (V/m) @ t=0.22
0.16085294604020783
% es.Ez (V/m) @ t=0.22
1.313314641475766
% es.tEx (V/m) @ t=0.22
-0.5063115304609057
% es.tEy (V/m) @ t=0.22
0
% es.tEz (V/m) @ t=0.22
1.3133146414757677
% V (V) @ t=0.22
0.006915998024926474
% es.normE (V/m) @ t=0.24
1.4334694593323216
% es.EX (V/m) @ t=0.24
-0.510942581268164
% es.EY (V/m) @ t=0.24
0.16232421004251663
% es.EZ (V/m) @ t=0.24
1.3253270605103449
% es.tEX (V/m) @ t=0.24
-0.5109425812681729
% es.tEY (V/m) @ t=0.24
0
% es.tEZ (V/m) @ t=0.24
1.3253270605103467
% es.Ex (V/m) @ t=0.24
-0.510942581268164
% es.Ey (V/m) @ t=0.24
0.16232421004251663
% es.Ez (V/m) @ t=0.24
1.3253270605103449
% es.tEx (V/m) @ t=0.24
-0.5109425812681729
% es.tEy (V/m) @ t=0.24
0
% es.tEz (V/m) @ t=0.24
1.3253270605103467
% V (V) @ t=0.24
0.00697925616633885
% es.normE (V/m) @ t=0.26
1.4464620530209122
% es.EX (V/m) @ t=0.26
-0.5155736320754438
% es.EY (V/m) @ t=0.26
0.16379547404481698
% es.EZ (V/m) @ t=0.26
1.3373394795449243
% es.tEX (V/m) @ t=0.26
-0.5155736320754509
% es.tEY (V/m) @ t=0.26
0
% es.tEZ (V/m) @ t=0.26
1.3373394795449256
% es.Ex (V/m) @ t=0.26
-0.5155736320754438
% es.Ey (V/m) @ t=0.26
0.16379547404481698
% es.Ez (V/m) @ t=0.26
1.3373394795449243
% es.tEx (V/m) @ t=0.26
-0.5155736320754509
% es.tEy (V/m) @ t=0.26
0
% es.tEz (V/m) @ t=0.26
1.3373394795449256
% V (V) @ t=0.26
0.007042514307751227
% es.normE (V/m) @ t=0.28
1.460013358267144
% es.EX (V/m) @ t=0.28
-0.52040358621523
% es.EY (V/m) @ t=0.28
0.16533025223595432
% es.EZ (V/m) @ t=0.28
1.3498685397351249
% es.tEX (V/m) @ t=0.28
-0.5204035862152318
% es.tEY (V/m) @ t=0.28
0
% es.tEZ (V/m) @ t=0.28
1.3498685397351267
% es.Ex (V/m) @ t=0.28
-0.52040358621523
% es.Ey (V/m) @ t=0.28
0.16533025223595432
% es.Ez (V/m) @ t=0.28
1.3498685397351249
% es.tEx (V/m) @ t=0.28
-0.5204035862152318
% es.tEy (V/m) @ t=0.28
0
% es.tEz (V/m) @ t=0.28
1.3498685397351267
% V (V) @ t=0.28
0.0071085048753293505
% es.normE (V/m) @ t=0.3
1.4744885568172044
% es.EX (V/m) @ t=0.3
-0.5255624497079576
% es.EY (V/m) @ t=0.3
0.16697005838457757
% es.EZ (V/m) @ t=0.3
1.363251925019104
% es.tEX (V/m) @ t=0.3
-0.5255624497079665
% es.tEY (V/m) @ t=0.3
0
% es.tEZ (V/m) @ t=0.3
1.363251925019104
% es.Ex (V/m) @ t=0.3
-0.5255624497079576
% es.Ey (V/m) @ t=0.3
0.16697005838457757
% es.Ez (V/m) @ t=0.3
1.363251925019104
% es.tEx (V/m) @ t=0.3
-0.5255624497079665
% es.tEy (V/m) @ t=0.3
0
% es.tEz (V/m) @ t=0.3
1.363251925019104
% V (V) @ t=0.3
0.0071790138213115836
% es.normE (V/m) @ t=0.32
1.488963755368022
% es.EX (V/m) @ t=0.32
-0.5307213132006798
% es.EY (V/m) @ t=0.32
0.16860986453319704
% es.EZ (V/m) @ t=0.32
1.3766353103030644
% es.tEX (V/m) @ t=0.32
-0.5307213132006869
% es.tEY (V/m) @ t=0.32
0
% es.tEZ (V/m) @ t=0.32
1.3766353103030653
% es.Ex (V/m) @ t=0.32
-0.5307213132006798
% es.Ey (V/m) @ t=0.32
0.16860986453319704
% es.Ez (V/m) @ t=0.32
1.3766353103030644
% es.tEx (V/m) @ t=0.32
-0.5307213132006869
% es.tEy (V/m) @ t=0.32
0
% es.tEz (V/m) @ t=0.32
1.3766353103030653
% V (V) @ t=0.32
0.007249522767293818
% es.normE (V/m) @ t=0.34
1.50343895391961
% es.EX (V/m) @ t=0.34
-0.5358801766934127
% es.EY (V/m) @ t=0.34
0.17024967068181973
% es.EZ (V/m) @ t=0.34
1.3900186955870346
% es.tEX (V/m) @ t=0.34
-0.5358801766934216
% es.tEY (V/m) @ t=0.34
0
% es.tEZ (V/m) @ t=0.34
1.390018695587039
% es.Ex (V/m) @ t=0.34
-0.5358801766934127
% es.Ey (V/m) @ t=0.34
0.17024967068181973
% es.Ez (V/m) @ t=0.34
1.3900186955870346
% es.tEx (V/m) @ t=0.34
-0.5358801766934216
% es.tEy (V/m) @ t=0.34
0
% es.tEz (V/m) @ t=0.34
1.390018695587039
% V (V) @ t=0.34
0.007320031713276052
% es.normE (V/m) @ t=0.36
1.5179141524719346
% es.EX (V/m) @ t=0.36
-0.5410390401861421
% es.EY (V/m) @ t=0.36
0.17188947683043265
% es.EZ (V/m) @ t=0.36
1.4034020808710088
% es.tEX (V/m) @ t=0.36
-0.5410390401861492
% es.tEY (V/m) @ t=0.36
0
% es.tEZ (V/m) @ t=0.36
1.4034020808710066
% es.Ex (V/m) @ t=0.36
-0.5410390401861421
% es.Ey (V/m) @ t=0.36
0.17188947683043265
% es.Ez (V/m) @ t=0.36
1.4034020808710088
% es.tEx (V/m) @ t=0.36
-0.5410390401861492
% es.tEy (V/m) @ t=0.36
0
% es.tEz (V/m) @ t=0.36
1.4034020808710066
% V (V) @ t=0.36
0.0073905406592582835
% es.normE (V/m) @ t=0.38
1.532389351024959
% es.EX (V/m) @ t=0.38
-0.5461979036788555
% es.EY (V/m) @ t=0.38
0.17352928297905623
% es.EZ (V/m) @ t=0.38
1.4167854661549746
% es.tEX (V/m) @ t=0.38
-0.5461979036788626
% es.tEY (V/m) @ t=0.38
0
% es.tEZ (V/m) @ t=0.38
1.416785466154976
% es.Ex (V/m) @ t=0.38
-0.5461979036788555
% es.Ey (V/m) @ t=0.38
0.17352928297905623
% es.Ez (V/m) @ t=0.38
1.4167854661549746
% es.tEx (V/m) @ t=0.38
-0.5461979036788626
% es.tEy (V/m) @ t=0.38
0
% es.tEz (V/m) @ t=0.38
1.416785466154976
% V (V) @ t=0.38
0.0074610496052405165
% es.normE (V/m) @ t=0.4
1.5468645495786912
% es.EX (V/m) @ t=0.4
-0.5513567671715937
% es.EY (V/m) @ t=0.4
0.17516908912768026
% es.EZ (V/m) @ t=0.4
1.4301688514389443
% es.tEX (V/m) @ t=0.4
-0.5513567671716043
% es.tEY (V/m) @ t=0.4
0
% es.tEZ (V/m) @ t=0.4
1.4301688514389506
% es.Ex (V/m) @ t=0.4
-0.5513567671715937
% es.Ey (V/m) @ t=0.4
0.17516908912768026
% es.Ez (V/m) @ t=0.4
1.4301688514389443
% es.tEx (V/m) @ t=0.4
-0.5513567671716043
% es.tEy (V/m) @ t=0.4
0
% es.tEz (V/m) @ t=0.4
1.4301688514389506
% V (V) @ t=0.4
0.00753155855122275
% es.normE (V/m) @ t=0.42
1.5613397481330904
% es.EX (V/m) @ t=0.42
-0.5565156306643176
% es.EY (V/m) @ t=0.42
0.17680889527630317
% es.EZ (V/m) @ t=0.42
1.4435522367229114
% es.tEX (V/m) @ t=0.42
-0.5565156306643247
% es.tEY (V/m) @ t=0.42
0
% es.tEZ (V/m) @ t=0.42
1.4435522367229146
% es.Ex (V/m) @ t=0.42
-0.5565156306643176
% es.Ey (V/m) @ t=0.42
0.17680889527630317
% es.Ez (V/m) @ t=0.42
1.4435522367229114
% es.tEx (V/m) @ t=0.42
-0.5565156306643247
% es.tEy (V/m) @ t=0.42
0
% es.tEz (V/m) @ t=0.42
1.4435522367229146
% V (V) @ t=0.42
0.0076020674972049835
% es.normE (V/m) @ t=0.44
1.575814946688154
% es.EX (V/m) @ t=0.44
-0.5616744941570452
% es.EY (V/m) @ t=0.44
0.17844870142491664
% es.EZ (V/m) @ t=0.44
1.4569356220068883
% es.tEX (V/m) @ t=0.44
-0.5616744941570523
% es.tEY (V/m) @ t=0.44
0
% es.tEZ (V/m) @ t=0.44
1.45693562200689
% es.Ex (V/m) @ t=0.44
-0.5616744941570452
% es.Ey (V/m) @ t=0.44
0.17844870142491664
% es.Ez (V/m) @ t=0.44
1.4569356220068883
% es.tEx (V/m) @ t=0.44
-0.5616744941570523
% es.tEy (V/m) @ t=0.44
0
% es.tEz (V/m) @ t=0.44
1.45693562200689
% V (V) @ t=0.44
0.0076725764431872165
% es.normE (V/m) @ t=0.46
1.5902901452438467
% es.EX (V/m) @ t=0.46
-0.5668333576497693
% es.EY (V/m) @ t=0.46
0.18008850757355133
% es.EZ (V/m) @ t=0.46
1.470319007290855
% es.tEX (V/m) @ t=0.46
-0.5668333576497728
% es.tEY (V/m) @ t=0.46
0
% es.tEZ (V/m) @ t=0.46
1.470319007290854
% es.Ex (V/m) @ t=0.46
-0.5668333576497693
% es.Ey (V/m) @ t=0.46
0.18008850757355133
% es.Ez (V/m) @ t=0.46
1.470319007290855
% es.tEx (V/m) @ t=0.46
-0.5668333576497728
% es.tEy (V/m) @ t=0.46
0
% es.tEz (V/m) @ t=0.46
1.470319007290854
% V (V) @ t=0.46
0.007743085389169452
% es.normE (V/m) @ t=0.48
1.6047653438001652
% es.EX (V/m) @ t=0.48
-0.5719922211425075
% es.EY (V/m) @ t=0.48
0.1817283137221607
% es.EZ (V/m) @ t=0.48
1.4837023925748238
% es.tEX (V/m) @ t=0.48
-0.5719922211425146
% es.tEY (V/m) @ t=0.48
0
% es.tEZ (V/m) @ t=0.48
1.4837023925748243
% es.Ex (V/m) @ t=0.48
-0.5719922211425075
% es.Ey (V/m) @ t=0.48
0.1817283137221607
% es.Ez (V/m) @ t=0.48
1.4837023925748238
% es.tEx (V/m) @ t=0.48
-0.5719922211425146
% es.tEy (V/m) @ t=0.48
0
% es.tEz (V/m) @ t=0.48
1.4837023925748243
% V (V) @ t=0.48
0.007813594335151684
% es.normE (V/m) @ t=0.5
1.6192405423570797
% es.EX (V/m) @ t=0.5
-0.5771510846352208
% es.EY (V/m) @ t=0.5
0.18336811987078627
% es.EZ (V/m) @ t=0.5
1.4970857778587923
% es.tEX (V/m) @ t=0.5
-0.5771510846352279
% es.tEY (V/m) @ t=0.5
0
% es.tEZ (V/m) @ t=0.5
1.4970857778587936
% es.Ex (V/m) @ t=0.5
-0.5771510846352208
% es.Ey (V/m) @ t=0.5
0.18336811987078627
% es.Ez (V/m) @ t=0.5
1.4970857778587923
% es.tEx (V/m) @ t=0.5
-0.5771510846352279
% es.tEy (V/m) @ t=0.5
0
% es.tEz (V/m) @ t=0.5
1.4970857778587936
% V (V) @ t=0.5
0.007884103281133918
% es.normE (V/m) @ t=0.52
1.6337157409145924
% es.EX (V/m) @ t=0.52
-0.582309948127959
% es.EY (V/m) @ t=0.52
0.18500792601940286
% es.EZ (V/m) @ t=0.52
1.5104691631427634
% es.tEX (V/m) @ t=0.52
-0.5823099481279697
% es.tEY (V/m) @ t=0.52
0
% es.tEZ (V/m) @ t=0.52
1.5104691631427665
% es.Ex (V/m) @ t=0.52
-0.582309948127959
% es.Ey (V/m) @ t=0.52
0.18500792601940286
% es.Ez (V/m) @ t=0.52
1.5104691631427634
% es.tEx (V/m) @ t=0.52
-0.5823099481279697
% es.tEy (V/m) @ t=0.52
0
% es.tEz (V/m) @ t=0.52
1.5104691631427665
% V (V) @ t=0.52
0.007954612227116152
% es.normE (V/m) @ t=0.54
1.6481909394726708
% es.EX (V/m) @ t=0.54
-0.5874688116206795
% es.EY (V/m) @ t=0.54
0.1866477321680282
% es.EZ (V/m) @ t=0.54
1.5238525484267318
% es.tEX (V/m) @ t=0.54
-0.5874688116206831
% es.tEY (V/m) @ t=0.54
0
% es.tEZ (V/m) @ t=0.54
1.5238525484267331
% es.Ex (V/m) @ t=0.54
-0.5874688116206795
% es.Ey (V/m) @ t=0.54
0.1866477321680282
% es.Ez (V/m) @ t=0.54
1.5238525484267318
% es.tEx (V/m) @ t=0.54
-0.5874688116206831
% es.tEy (V/m) @ t=0.54
0
% es.tEz (V/m) @ t=0.54
1.5238525484267331
% V (V) @ t=0.54
0.008025121173098384
% es.normE (V/m) @ t=0.56
1.6639490693027927
% es.EX (V/m) @ t=0.56
-0.593085501631485
% es.EY (V/m) @ t=0.56
0.18843226462843377
% es.EZ (V/m) @ t=0.56
1.5384219022604193
% es.tEX (V/m) @ t=0.56
-0.5930855016314992
% es.tEY (V/m) @ t=0.56
0
% es.tEZ (V/m) @ t=0.56
1.5384219022604215
% es.Ex (V/m) @ t=0.56
-0.593085501631485
% es.Ey (V/m) @ t=0.56
0.18843226462843377
% es.Ez (V/m) @ t=0.56
1.5384219022604193
% es.tEx (V/m) @ t=0.56
-0.5930855016314992
% es.tEy (V/m) @ t=0.56
0
% es.tEz (V/m) @ t=0.56
1.5384219022604215
% V (V) @ t=0.56
0.008101849212866542
% es.normE (V/m) @ t=0.58
1.68010424559242
% es.EX (V/m) @ t=0.58
-0.5988438815379766
% es.EY (V/m) @ t=0.58
0.19026158753939448
% es.EZ (V/m) @ t=0.58
1.553358294160835
% es.tEX (V/m) @ t=0.58
-0.5988438815379837
% es.tEY (V/m) @ t=0.58
0
% es.tEZ (V/m) @ t=0.58
1.5533582941608364
% es.Ex (V/m) @ t=0.58
-0.5988438815379766
% es.Ey (V/m) @ t=0.58
0.19026158753939448
% es.Ez (V/m) @ t=0.58
1.553358294160835
% es.tEx (V/m) @ t=0.58
-0.5988438815379837
% es.tEy (V/m) @ t=0.58
0
% es.tEz (V/m) @ t=0.58
1.5533582941608364
% V (V) @ t=0.58
0.008180501961481743
% es.normE (V/m) @ t=0.6
1.6962594218820797
% es.EX (V/m) @ t=0.6
-0.6046022614444541
% es.EY (V/m) @ t=0.6
0.19209091045035842
% es.EZ (V/m) @ t=0.6
1.568294686061249
% es.tEX (V/m) @ t=0.6
-0.6046022614444612
% es.tEY (V/m) @ t=0.6
0
% es.tEZ (V/m) @ t=0.6
1.5682946860612477
% es.Ex (V/m) @ t=0.6
-0.6046022614444541
% es.Ey (V/m) @ t=0.6
0.19209091045035842
% es.Ez (V/m) @ t=0.6
1.568294686061249
% es.tEx (V/m) @ t=0.6
-0.6046022614444612
% es.tEy (V/m) @ t=0.6
0
% es.tEz (V/m) @ t=0.6
1.5682946860612477
% V (V) @ t=0.6
0.00825915471009694
% es.normE (V/m) @ t=0.62
1.7124145981717722
% es.EX (V/m) @ t=0.62
-0.6103606413509316
% es.EY (V/m) @ t=0.62
0.19392023336133069
% es.EZ (V/m) @ t=0.62
1.5832310779616585
% es.tEX (V/m) @ t=0.62
-0.6103606413509458
% es.tEY (V/m) @ t=0.62
0
% es.tEZ (V/m) @ t=0.62
1.5832310779616572
% es.Ex (V/m) @ t=0.62
-0.6103606413509316
% es.Ey (V/m) @ t=0.62
0.19392023336133069
% es.Ez (V/m) @ t=0.62
1.5832310779616585
% es.tEx (V/m) @ t=0.62
-0.6103606413509458
% es.tEy (V/m) @ t=0.62
0
% es.tEz (V/m) @ t=0.62
1.5832310779616572
% V (V) @ t=0.62
0.008337807458712139
% es.normE (V/m) @ t=0.64
1.7285697744615005
% es.EX (V/m) @ t=0.64
-0.6161190212574161
% es.EY (V/m) @ t=0.64
0.19574955627227775
% es.EZ (V/m) @ t=0.64
1.598167469862069
% es.tEX (V/m) @ t=0.64
-0.6161190212574232
% es.tEY (V/m) @ t=0.64
0
% es.tEZ (V/m) @ t=0.64
1.5981674698620703
% es.Ex (V/m) @ t=0.64
-0.6161190212574161
% es.Ey (V/m) @ t=0.64
0.19574955627227775
% es.Ez (V/m) @ t=0.64
1.598167469862069
% es.tEx (V/m) @ t=0.64
-0.6161190212574232
% es.tEy (V/m) @ t=0.64
0
% es.tEz (V/m) @ t=0.64
1.5981674698620703
% V (V) @ t=0.64
0.00841646020732734
% es.normE (V/m) @ t=0.66
1.7447249507512648
% es.EX (V/m) @ t=0.66
-0.6218774011638971
% es.EY (V/m) @ t=0.66
0.19757887918323414
% es.EZ (V/m) @ t=0.66
1.6131038617624802
% es.tEX (V/m) @ t=0.66
-0.6218774011639078
% es.tEY (V/m) @ t=0.66
0
% es.tEZ (V/m) @ t=0.66
1.6131038617624798
% es.Ex (V/m) @ t=0.66
-0.6218774011638971
% es.Ey (V/m) @ t=0.66
0.19757887918323414
% es.Ez (V/m) @ t=0.66
1.6131038617624802
% es.tEx (V/m) @ t=0.66
-0.6218774011639078
% es.tEy (V/m) @ t=0.66
0
% es.tEz (V/m) @ t=0.66
1.6131038617624798
% V (V) @ t=0.66
0.008495112955942538
% es.normE (V/m) @ t=0.68
1.7608801270410683
% es.EX (V/m) @ t=0.68
-0.6276357810703782
% es.EY (V/m) @ t=0.68
0.19940820209420418
% es.EZ (V/m) @ t=0.68
1.628040253662896
% es.tEX (V/m) @ t=0.68
-0.6276357810703853
% es.tEY (V/m) @ t=0.68
0
% es.tEZ (V/m) @ t=0.68
1.6280402536628982
% es.Ex (V/m) @ t=0.68
-0.6276357810703782
% es.Ey (V/m) @ t=0.68
0.19940820209420418
% es.Ez (V/m) @ t=0.68
1.628040253662896
% es.tEx (V/m) @ t=0.68
-0.6276357810703853
% es.tEy (V/m) @ t=0.68
0
% es.tEz (V/m) @ t=0.68
1.6280402536628982
% V (V) @ t=0.68
0.008573765704557739
% es.normE (V/m) @ t=0.7
1.7770353033308965
% es.EX (V/m) @ t=0.7
-0.6333941609768697
% es.EY (V/m) @ t=0.7
0.20123752500516212
% es.EZ (V/m) @ t=0.7
1.6429766455633001
% es.tEX (V/m) @ t=0.7
-0.6333941609768768
% es.tEY (V/m) @ t=0.7
0
% es.tEZ (V/m) @ t=0.7
1.6429766455633006
% es.Ex (V/m) @ t=0.7
-0.6333941609768697
% es.Ey (V/m) @ t=0.7
0.20123752500516212
% es.Ez (V/m) @ t=0.7
1.6429766455633001
% es.tEx (V/m) @ t=0.7
-0.6333941609768768
% es.tEy (V/m) @ t=0.7
0
% es.tEz (V/m) @ t=0.7
1.6429766455633006
% V (V) @ t=0.7
0.008652418453172939
% es.normE (V/m) @ t=0.72
1.793190479620769
% es.EX (V/m) @ t=0.72
-0.6391525408833508
% es.EY (V/m) @ t=0.72
0.2030668479161275
% es.EZ (V/m) @ t=0.72
1.6579130374637194
% es.tEX (V/m) @ t=0.72
-0.6391525408833615
% es.tEY (V/m) @ t=0.72
0
% es.tEZ (V/m) @ t=0.72
1.6579130374637208
% es.Ex (V/m) @ t=0.72
-0.6391525408833508
% es.Ey (V/m) @ t=0.72
0.2030668479161275
% es.Ez (V/m) @ t=0.72
1.6579130374637194
% es.tEx (V/m) @ t=0.72
-0.6391525408833615
% es.tEy (V/m) @ t=0.72
0
% es.tEz (V/m) @ t=0.72
1.6579130374637208
% V (V) @ t=0.72
0.008731071201788137
% es.normE (V/m) @ t=0.74
1.8093456559106642
% es.EX (V/m) @ t=0.74
-0.6449109207898425
% es.EY (V/m) @ t=0.74
0.20489617082708378
% es.EZ (V/m) @ t=0.74
1.6728494293641276
% es.tEX (V/m) @ t=0.74
-0.644910920789846
% es.tEY (V/m) @ t=0.74
0
% es.tEZ (V/m) @ t=0.74
1.6728494293641276
% es.Ex (V/m) @ t=0.74
-0.6449109207898425
% es.Ey (V/m) @ t=0.74
0.20489617082708378
% es.Ez (V/m) @ t=0.74
1.6728494293641276
% es.tEx (V/m) @ t=0.74
-0.644910920789846
% es.tEy (V/m) @ t=0.74
0
% es.tEz (V/m) @ t=0.74
1.6728494293641276
% V (V) @ t=0.74
0.008809723950403338
% es.normE (V/m) @ t=0.76
1.8255008322005852
% es.EX (V/m) @ t=0.76
-0.6506693006963092
% es.EY (V/m) @ t=0.76
0.20672549373805071
% es.EZ (V/m) @ t=0.76
1.6877858212645398
% es.tEX (V/m) @ t=0.76
-0.6506693006963234
% es.tEY (V/m) @ t=0.76
0
% es.tEZ (V/m) @ t=0.76
1.6877858212645425
% es.Ex (V/m) @ t=0.76
-0.6506693006963092
% es.Ey (V/m) @ t=0.76
0.20672549373805071
% es.Ez (V/m) @ t=0.76
1.6877858212645398
% es.tEx (V/m) @ t=0.76
-0.6506693006963234
% es.tEy (V/m) @ t=0.76
0
% es.tEz (V/m) @ t=0.76
1.6877858212645425
% V (V) @ t=0.76
0.008888376699018537
% es.normE (V/m) @ t=0.78
1.8416560084905451
% es.EX (V/m) @ t=0.78
-0.6564276806028009
% es.EY (V/m) @ t=0.78
0.20855481664900255
% es.EZ (V/m) @ t=0.78
1.7027222131649529
% es.tEX (V/m) @ t=0.78
-0.656427680602808
% es.tEY (V/m) @ t=0.78
0
% es.tEZ (V/m) @ t=0.78
1.7027222131649538
% es.Ex (V/m) @ t=0.78
-0.6564276806028009
% es.Ey (V/m) @ t=0.78
0.20855481664900255
% es.Ez (V/m) @ t=0.78
1.7027222131649529
% es.tEx (V/m) @ t=0.78
-0.656427680602808
% es.tEy (V/m) @ t=0.78
0
% es.tEz (V/m) @ t=0.78
1.7027222131649538
% V (V) @ t=0.78
0.008967029447633734
% es.normE (V/m) @ t=0.8
1.8578111847805312
% es.EX (V/m) @ t=0.8
-0.6621860605092784
% es.EY (V/m) @ t=0.8
0.21038413955997504
% es.EZ (V/m) @ t=0.8
1.717658605065366
% es.tEX (V/m) @ t=0.8
-0.6621860605092855
% es.tEY (V/m) @ t=0.8
0
% es.tEZ (V/m) @ t=0.8
1.717658605065365
% es.Ex (V/m) @ t=0.8
-0.6621860605092784
% es.Ey (V/m) @ t=0.8
0.21038413955997504
% es.Ez (V/m) @ t=0.8
1.717658605065366
% es.tEx (V/m) @ t=0.8
-0.6621860605092855
% es.tEy (V/m) @ t=0.8
0
% es.tEz (V/m) @ t=0.8
1.717658605065365
% V (V) @ t=0.8
0.009045682196248935
% es.normE (V/m) @ t=0.82
1.8742536523631523
% es.EX (V/m) @ t=0.82
-0.668046631477121
% es.EY (V/m) @ t=0.82
0.21224620859364163
% es.EZ (V/m) @ t=0.82
1.7328606835598088
% es.tEX (V/m) @ t=0.82
-0.6680466314771281
% es.tEY (V/m) @ t=0.82
0
% es.tEZ (V/m) @ t=0.82
1.7328606835598084
% es.Ex (V/m) @ t=0.82
-0.668046631477121
% es.Ey (V/m) @ t=0.82
0.21224620859364163
% es.Ez (V/m) @ t=0.82
1.7328606835598088
% es.tEx (V/m) @ t=0.82
-0.6680466314771281
% es.tEy (V/m) @ t=0.82
0
% es.tEz (V/m) @ t=0.82
1.7328606835598084
% V (V) @ t=0.82
0.009125744261815815
% es.normE (V/m) @ t=0.84
1.8923180601938245
% es.EX (V/m) @ t=0.84
-0.6744841353333564
% es.EY (V/m) @ t=0.84
0.21429315010937655
% es.EZ (V/m) @ t=0.84
1.749562730173551
% es.tEX (V/m) @ t=0.84
-0.674484135333367
% es.tEY (V/m) @ t=0.84
0
% es.tEZ (V/m) @ t=0.84
1.7495627301735581
% es.Ex (V/m) @ t=0.84
-0.6744841353333564
% es.Ey (V/m) @ t=0.84
0.21429315010937655
% es.Ez (V/m) @ t=0.84
1.749562730173551
% es.tEx (V/m) @ t=0.84
-0.674484135333367
% es.tEy (V/m) @ t=0.84
0
% es.tEz (V/m) @ t=0.84
1.7495627301735581
% V (V) @ t=0.84
0.009213762808985502
% es.normE (V/m) @ t=0.86
1.9103824680268269
% es.EX (V/m) @ t=0.86
-0.6809216391895916
% es.EY (V/m) @ t=0.86
0.2163400916251077
% es.EZ (V/m) @ t=0.86
1.7662647767873016
% es.tEX (V/m) @ t=0.86
-0.6809216391896058
% es.tEY (V/m) @ t=0.86
0
% es.tEZ (V/m) @ t=0.86
1.7662647767873008
% es.Ex (V/m) @ t=0.86
-0.6809216391895916
% es.Ey (V/m) @ t=0.86
0.2163400916251077
% es.Ez (V/m) @ t=0.86
1.7662647767873016
% es.tEx (V/m) @ t=0.86
-0.6809216391896058
% es.tEy (V/m) @ t=0.86
0
% es.tEz (V/m) @ t=0.86
1.7662647767873008
% V (V) @ t=0.86
0.009301781356155189
% es.normE (V/m) @ t=0.88
1.9284468758620772
% es.EX (V/m) @ t=0.88
-0.6873591430458198
% es.EY (V/m) @ t=0.88
0.2183870331408535
% es.EZ (V/m) @ t=0.88
1.7829668234010434
% es.tEX (V/m) @ t=0.88
-0.6873591430458234
% es.tEY (V/m) @ t=0.88
0
% es.tEZ (V/m) @ t=0.88
1.7829668234010416
% es.Ex (V/m) @ t=0.88
-0.6873591430458198
% es.Ey (V/m) @ t=0.88
0.2183870331408535
% es.Ez (V/m) @ t=0.88
1.7829668234010434
% es.tEx (V/m) @ t=0.88
-0.6873591430458234
% es.tEy (V/m) @ t=0.88
0
% es.tEz (V/m) @ t=0.88
1.7829668234010416
% V (V) @ t=0.88
0.00938979990332488
% es.normE (V/m) @ t=0.9
1.946511283699528
% es.EX (V/m) @ t=0.9
-0.6937966469020552
% es.EY (V/m) @ t=0.9
0.22043397465657777
% es.EZ (V/m) @ t=0.9
1.7996688700147896
% es.tEX (V/m) @ t=0.9
-0.6937966469020623
% es.tEY (V/m) @ t=0.9
0
% es.tEZ (V/m) @ t=0.9
1.7996688700147931
% es.Ex (V/m) @ t=0.9
-0.6937966469020552
% es.Ey (V/m) @ t=0.9
0.22043397465657777
% es.Ez (V/m) @ t=0.9
1.7996688700147896
% es.tEx (V/m) @ t=0.9
-0.6937966469020623
% es.tEy (V/m) @ t=0.9
0
% es.tEz (V/m) @ t=0.9
1.7996688700147931
% V (V) @ t=0.9
0.009477818450494564
% es.normE (V/m) @ t=0.92
1.964575691539115
% es.EX (V/m) @ t=0.92
-0.700234150758287
% es.EY (V/m) @ t=0.92
0.22248091617233046
% es.EZ (V/m) @ t=0.92
1.8163709166285367
% es.tEX (V/m) @ t=0.92
-0.7002341507582941
% es.tEY (V/m) @ t=0.92
0
% es.tEZ (V/m) @ t=0.92
1.8163709166285393
% es.Ex (V/m) @ t=0.92
-0.700234150758287
% es.Ey (V/m) @ t=0.92
0.22248091617233046
% es.Ez (V/m) @ t=0.92
1.8163709166285367
% es.tEx (V/m) @ t=0.92
-0.7002341507582941
% es.tEy (V/m) @ t=0.92
0
% es.tEz (V/m) @ t=0.92
1.8163709166285393
% V (V) @ t=0.92
0.009565836997664253
% es.normE (V/m) @ t=0.94
1.9826400993807778
% es.EX (V/m) @ t=0.94
-0.7066716546145331
% es.EY (V/m) @ t=0.94
0.22452785768806005
% es.EZ (V/m) @ t=0.94
1.833072963242281
% es.tEX (V/m) @ t=0.94
-0.7066716546145473
% es.tEY (V/m) @ t=0.94
0
% es.tEZ (V/m) @ t=0.94
1.833072963242282
% es.Ex (V/m) @ t=0.94
-0.7066716546145331
% es.Ey (V/m) @ t=0.94
0.22452785768806005
% es.Ez (V/m) @ t=0.94
1.833072963242281
% es.tEx (V/m) @ t=0.94
-0.7066716546145473
% es.tEy (V/m) @ t=0.94
0
% es.tEz (V/m) @ t=0.94
1.833072963242282
% V (V) @ t=0.94
0.009653855544833938
% es.normE (V/m) @ t=0.96
2.0007045072244614
% es.EX (V/m) @ t=0.96
-0.7131091584707683
% es.EY (V/m) @ t=0.96
0.22657479920380097
% es.EZ (V/m) @ t=0.96
1.849775009856029
% es.tEX (V/m) @ t=0.96
-0.7131091584707789
% es.tEY (V/m) @ t=0.96
0
% es.tEZ (V/m) @ t=0.96
1.84977500985603
% es.Ex (V/m) @ t=0.96
-0.7131091584707683
% es.Ey (V/m) @ t=0.96
0.22657479920380097
% es.Ez (V/m) @ t=0.96
1.849775009856029
% es.tEx (V/m) @ t=0.96
-0.7131091584707789
% es.tEy (V/m) @ t=0.96
0
% es.tEz (V/m) @ t=0.96
1.84977500985603
% V (V) @ t=0.96
0.009741874092003625
% es.normE (V/m) @ t=0.98
2.0187689150701065
% es.EX (V/m) @ t=0.98
-0.7195466623270073
% es.EY (V/m) @ t=0.98
0.2286217407195299
% es.EZ (V/m) @ t=0.98
1.8664770564697735
% es.tEX (V/m) @ t=0.98
-0.7195466623270179
% es.tEY (V/m) @ t=0.98
0
% es.tEZ (V/m) @ t=0.98
1.8664770564697744
% es.Ex (V/m) @ t=0.98
-0.7195466623270073
% es.Ey (V/m) @ t=0.98
0.2286217407195299
% es.Ez (V/m) @ t=0.98
1.8664770564697735
% es.tEx (V/m) @ t=0.98
-0.7195466623270179
% es.tEy (V/m) @ t=0.98
0
% es.tEz (V/m) @ t=0.98
1.8664770564697744
% V (V) @ t=0.98
0.009829892639173315
% es.normE (V/m) @ t=1
2.036833322917666
% es.EX (V/m) @ t=1
-0.7259841661832355
% es.EY (V/m) @ t=1
0.23066868223528436
% es.EZ (V/m) @ t=1
1.8831791030835188
% es.tEX (V/m) @ t=1
-0.7259841661832497
% es.tEY (V/m) @ t=1
0
% es.tEZ (V/m) @ t=1
1.883179103083517
% es.Ex (V/m) @ t=1
-0.7259841661832355
% es.Ey (V/m) @ t=1
0.23066868223528436
% es.Ez (V/m) @ t=1
1.8831791030835188
% es.tEx (V/m) @ t=1
-0.7259841661832497
% es.tEy (V/m) @ t=1
0
% es.tEz (V/m) @ t=1
1.883179103083517
% V (V) @ t=1
0.009917911186342998
% es.normE (V/m) @ t=1.02
2.0548977307670864
% es.EX (V/m) @ t=1.02
-0.7324216700394744
% es.EY (V/m) @ t=1.02
0.23271562375099442
% es.EZ (V/m) @ t=1.02
1.899881149697265
% es.tEX (V/m) @ t=1.02
-0.7324216700394816
% es.tEY (V/m) @ t=1.02
0
% es.tEZ (V/m) @ t=1.02
1.8998811496972738
% es.Ex (V/m) @ t=1.02
-0.7324216700394744
% es.Ey (V/m) @ t=1.02
0.23271562375099442
% es.Ez (V/m) @ t=1.02
1.899881149697265
% es.tEx (V/m) @ t=1.02
-0.7324216700394816
% es.tEy (V/m) @ t=1.02
0
% es.tEz (V/m) @ t=1.02
1.8998811496972738
% V (V) @ t=1.02
0.010005929733512687
% es.normE (V/m) @ t=1.04
2.0729621386183252
% es.EX (V/m) @ t=1.04
-0.7388591738957062
% es.EY (V/m) @ t=1.04
0.2347625652667329
% es.EZ (V/m) @ t=1.04
1.9165831963110138
% es.tEX (V/m) @ t=1.04