% Model:              1 neuron.mph
% Version:            COMSOL 6.0.0.405
% Date:               Mar 9 2023, 13:19
% Dimension:          0
% Nodes:              14017
% Expressions:        14017
% Description:        Electric field norm, Electric field, X component, Electric field, Y component, Electric field, Z component, Tangential electric field, X component, Tangential electric field, Y component, Tangential electric field, Z component, Electric field, x component, Electric field, y component, Electric field, z component, Tangential electric field, x component, Tangential electric field, y component, Tangential electric field, z component, Electric potential
% Length unit:        mm
% x
1
% y
12.2
% z
1.6599999999999997
% es.normE (V/m) @ t=0
1.617432767691765
% es.EX (V/m) @ t=0
1.4479421375431856
% es.EY (V/m) @ t=0
0.055710211780134855
% es.EZ (V/m) @ t=0
-0.718643626121077
% es.tEX (V/m) @ t=0
1.447942137543186
% es.tEY (V/m) @ t=0
0
% es.tEZ (V/m) @ t=0
-0.718643626121068
% es.Ex (V/m) @ t=0
1.4479421375431856
% es.Ey (V/m) @ t=0
0.055710211780134855
% es.Ez (V/m) @ t=0
-0.718643626121077
% es.tEx (V/m) @ t=0
1.447942137543186
% es.tEy (V/m) @ t=0
0
% es.tEz (V/m) @ t=0
-0.718643626121068
% V (V) @ t=0
0.007338279322940695
% es.normE (V/m) @ t=0.02
1.397006632174437
% es.EX (V/m) @ t=0.02
1.250614435204724
% es.EY (V/m) @ t=0.02
0.0481179483543058
% es.EZ (V/m) @ t=0.02
-0.6207058091651485
% es.tEX (V/m) @ t=0.02
1.2506144352047222
% es.tEY (V/m) @ t=0.02
0
% es.tEZ (V/m) @ t=0.02
-0.6207058091651518
% es.Ex (V/m) @ t=0.02
1.250614435204724
% es.Ey (V/m) @ t=0.02
0.0481179483543058
% es.Ez (V/m) @ t=0.02
-0.6207058091651485
% es.tEx (V/m) @ t=0.02
1.2506144352047222
% es.tEy (V/m) @ t=0.02
0
% es.tEz (V/m) @ t=0.02
-0.6207058091651518
% V (V) @ t=0.02
0.006338207527915607
% es.normE (V/m) @ t=0.04
1.4098551933753325
% es.EX (V/m) @ t=0.04
1.2621165955736013
% es.EY (V/m) @ t=0.04
0.04856050659000538
% es.EZ (V/m) @ t=0.04
-0.6264145718818812
% es.tEX (V/m) @ t=0.04
1.2621165955736027
% es.tEY (V/m) @ t=0.04
0
% es.tEZ (V/m) @ t=0.04
-0.6264145718818739
% es.Ex (V/m) @ t=0.04
1.2621165955736013
% es.Ey (V/m) @ t=0.04
0.04856050659000538
% es.Ez (V/m) @ t=0.04
-0.6264145718818812
% es.tEx (V/m) @ t=0.04
1.2621165955736027
% es.tEy (V/m) @ t=0.04
0
% es.tEz (V/m) @ t=0.04
-0.6264145718818739
% V (V) @ t=0.04
0.00639650111585682
% es.normE (V/m) @ t=0.06
1.4228185577007313
% es.EX (V/m) @ t=0.06
1.2737215301363396
% es.EY (V/m) @ t=0.06
0.04900701164967397
% es.EZ (V/m) @ t=0.06
-0.6321743409218336
% es.tEX (V/m) @ t=0.06
1.2737215301363385
% es.tEY (V/m) @ t=0.06
0
% es.tEZ (V/m) @ t=0.06
-0.632174340921825
% es.Ex (V/m) @ t=0.06
1.2737215301363396
% es.Ey (V/m) @ t=0.06
0.04900701164967397
% es.Ez (V/m) @ t=0.06
-0.6321743409218336
% es.tEx (V/m) @ t=0.06
1.2737215301363385
% es.tEy (V/m) @ t=0.06
0
% es.tEz (V/m) @ t=0.06
-0.632174340921825
% V (V) @ t=0.06
0.006455315791986596
% es.normE (V/m) @ t=0.08
1.435982242918464
% es.EX (V/m) @ t=0.08
1.2855057952848674
% es.EY (V/m) @ t=0.08
0.049460408934857564
% es.EZ (V/m) @ t=0.08
-0.6380231127582883
% es.tEX (V/m) @ t=0.08
1.2855057952848656
% es.tEY (V/m) @ t=0.08
0
% es.tEZ (V/m) @ t=0.08
-0.6380231127582796
% es.Ex (V/m) @ t=0.08
1.2855057952848674
% es.Ey (V/m) @ t=0.08
0.049460408934857564
% es.Ez (V/m) @ t=0.08
-0.6380231127582883
% es.tEx (V/m) @ t=0.08
1.2855057952848656
% es.tEy (V/m) @ t=0.08
0
% es.tEz (V/m) @ t=0.08
-0.6380231127582796
% V (V) @ t=0.08
0.006515039553833172
% es.normE (V/m) @ t=0.1
1.4492801182128574
% es.EX (V/m) @ t=0.1
1.297410189616005
% es.EY (V/m) @ t=0.1
0.049918423153712005
% es.EZ (V/m) @ t=0.1
-0.6439315053958692
% es.tEX (V/m) @ t=0.1
1.297410189616003
% es.tEY (V/m) @ t=0.1
0
% es.tEZ (V/m) @ t=0.1
-0.643931505395873
% es.Ex (V/m) @ t=0.1
1.297410189616005
% es.Ey (V/m) @ t=0.1
0.049918423153712005
% es.Ez (V/m) @ t=0.1
-0.6439315053958692
% es.tEx (V/m) @ t=0.1
1.297410189616003
% es.tEy (V/m) @ t=0.1
0
% es.tEz (V/m) @ t=0.1
-0.643931505395873
% V (V) @ t=0.1
0.0065753722900140175
% es.normE (V/m) @ t=0.12
1.462577993507269
% es.EX (V/m) @ t=0.12
1.3093145839471552
% es.EY (V/m) @ t=0.12
0.05037643737257266
% es.EZ (V/m) @ t=0.12
-0.6498398980334643
% es.tEX (V/m) @ t=0.12
1.3093145839471512
% es.tEY (V/m) @ t=0.12
0
% es.tEZ (V/m) @ t=0.12
-0.6498398980334592
% es.Ex (V/m) @ t=0.12
1.3093145839471552
% es.Ey (V/m) @ t=0.12
0.05037643737257266
% es.Ez (V/m) @ t=0.12
-0.6498398980334643
% es.tEx (V/m) @ t=0.12
1.3093145839471512
% es.tEy (V/m) @ t=0.12
0
% es.tEz (V/m) @ t=0.12
-0.6498398980334592
% V (V) @ t=0.12
0.006635705026194864
% es.normE (V/m) @ t=0.14
1.4760227838228976
% es.EX (V/m) @ t=0.14
1.3213504971125694
% es.EY (V/m) @ t=0.14
0.05083951752396351
% es.EZ (V/m) @ t=0.14
-0.6558135681993057
% es.tEX (V/m) @ t=0.14
1.3213504971125691
% es.tEY (V/m) @ t=0.14
0
% es.tEZ (V/m) @ t=0.14
-0.6558135681992958
% es.Ex (V/m) @ t=0.14
1.3213504971125694
% es.Ey (V/m) @ t=0.14
0.05083951752396351
% es.Ez (V/m) @ t=0.14
-0.6558135681993057
% es.tEx (V/m) @ t=0.14
1.3213504971125691
% es.tEy (V/m) @ t=0.14
0
% es.tEz (V/m) @ t=0.14
-0.6558135681992958
% V (V) @ t=0.14
0.006696704141155892
% es.normE (V/m) @ t=0.16
1.4900282426679756
% es.EX (V/m) @ t=0.16
1.3338883226814198
% es.EY (V/m) @ t=0.16
0.0513219306810635
% es.EZ (V/m) @ t=0.16
-0.6620363555450449
% es.tEX (V/m) @ t=0.16
1.333888322681413
% es.tEY (V/m) @ t=0.16
0
% es.tEZ (V/m) @ t=0.16
-0.6620363555450481
% es.Ex (V/m) @ t=0.16
1.3338883226814198
% es.Ey (V/m) @ t=0.16
0.0513219306810635
% es.Ez (V/m) @ t=0.16
-0.6620363555450449
% es.tEx (V/m) @ t=0.16
1.333888322681413
% es.tEy (V/m) @ t=0.16
0
% es.tEz (V/m) @ t=0.16
-0.6620363555450481
% V (V) @ t=0.16
0.006760246342641347
% es.normE (V/m) @ t=0.18
1.504033701513049
% es.EX (V/m) @ t=0.18
1.3464261482502577
% es.EY (V/m) @ t=0.18
0.051804343838163514
% es.EZ (V/m) @ t=0.18
-0.6682591428907985
% es.tEX (V/m) @ t=0.18
1.3464261482502602
% es.tEY (V/m) @ t=0.18
0
% es.tEZ (V/m) @ t=0.18
-0.6682591428907898
% es.Ex (V/m) @ t=0.18
1.3464261482502577
% es.Ey (V/m) @ t=0.18
0.051804343838163514
% es.Ez (V/m) @ t=0.18
-0.6682591428907985
% es.tEx (V/m) @ t=0.18
1.3464261482502602
% es.tEy (V/m) @ t=0.18
0
% es.tEz (V/m) @ t=0.18
-0.6682591428907898
% V (V) @ t=0.18
0.006823788544126801
% es.normE (V/m) @ t=0.2
1.5180391603581191
% es.EX (V/m) @ t=0.2
1.3589639738191028
% es.EY (V/m) @ t=0.2
0.052286756995272826
% es.EZ (V/m) @ t=0.2
-0.6744819302365288
% es.tEX (V/m) @ t=0.2
1.358963973819101
% es.tEY (V/m) @ t=0.2
0
% es.tEZ (V/m) @ t=0.2
-0.6744819302365279
% es.Ex (V/m) @ t=0.2
1.3589639738191028
% es.Ey (V/m) @ t=0.2
0.052286756995272826
% es.Ez (V/m) @ t=0.2
-0.6744819302365288
% es.tEx (V/m) @ t=0.2
1.358963973819101
% es.tEy (V/m) @ t=0.2
0
% es.tEz (V/m) @ t=0.2
-0.6744819302365279
% V (V) @ t=0.2
0.006887330745612255
% es.normE (V/m) @ t=0.22
1.5320446192032011
% es.EX (V/m) @ t=0.22
1.3715017993879548
% es.EY (V/m) @ t=0.22
0.05276917015236307
% es.EZ (V/m) @ t=0.22
-0.6807047175822734
% es.tEX (V/m) @ t=0.22
1.3715017993879557
% es.tEY (V/m) @ t=0.22
0
% es.tEZ (V/m) @ t=0.22
-0.680704717582266
% es.Ex (V/m) @ t=0.22
1.3715017993879548
% es.Ey (V/m) @ t=0.22
0.05276917015236307
% es.Ez (V/m) @ t=0.22
-0.6807047175822734
% es.tEx (V/m) @ t=0.22
1.3715017993879557
% es.tEy (V/m) @ t=0.22
0
% es.tEz (V/m) @ t=0.22
-0.680704717582266
% V (V) @ t=0.22
0.0069508729470977105
% es.normE (V/m) @ t=0.24
1.5460500780482755
% es.EX (V/m) @ t=0.24
1.3840396249568019
% es.EY (V/m) @ t=0.24
0.053251583309467054
% es.EZ (V/m) @ t=0.24
-0.6869275049280108
% es.tEX (V/m) @ t=0.24
1.384039624956796
% es.tEY (V/m) @ t=0.24
0
% es.tEZ (V/m) @ t=0.24
-0.6869275049280148
% es.Ex (V/m) @ t=0.24
1.3840396249568019
% es.Ey (V/m) @ t=0.24
0.053251583309467054
% es.Ez (V/m) @ t=0.24
-0.6869275049280108
% es.tEx (V/m) @ t=0.24
1.384039624956796
% es.tEy (V/m) @ t=0.24
0
% es.tEz (V/m) @ t=0.24
-0.6869275049280148
% V (V) @ t=0.24
0.0070144151485831635
% es.normE (V/m) @ t=0.26
1.5600555368933509
% es.EX (V/m) @ t=0.26
1.3965774505256432
% es.EY (V/m) @ t=0.26
0.05373399646655819
% es.EZ (V/m) @ t=0.26
-0.6931502922737607
% es.tEX (V/m) @ t=0.26
1.3965774505256396
% es.tEY (V/m) @ t=0.26
0
% es.tEZ (V/m) @ t=0.26
-0.6931502922737565
% es.Ex (V/m) @ t=0.26
1.3965774505256432
% es.Ey (V/m) @ t=0.26
0.05373399646655819
% es.Ez (V/m) @ t=0.26
-0.6931502922737607
% es.tEx (V/m) @ t=0.26
1.3965774505256396
% es.tEy (V/m) @ t=0.26
0
% es.tEz (V/m) @ t=0.26
-0.6931502922737565
% V (V) @ t=0.26
0.007077957350068618
% es.normE (V/m) @ t=0.28
1.5747376474894672
% es.EX (V/m) @ t=0.28
1.4097210227054398
% es.EY (V/m) @ t=0.28
0.054239709384766716
% es.EZ (V/m) @ t=0.28
-0.699673721850228
% es.tEX (V/m) @ t=0.28
1.4097210227054324
% es.tEY (V/m) @ t=0.28
0
% es.tEZ (V/m) @ t=0.28
-0.6996737218502247
% es.Ex (V/m) @ t=0.28
1.4097210227054398
% es.Ey (V/m) @ t=0.28
0.054239709384766716
% es.Ez (V/m) @ t=0.28
-0.699673721850228
% es.tEx (V/m) @ t=0.28
1.4097210227054324
% es.tEy (V/m) @ t=0.28
0
% es.tEz (V/m) @ t=0.28
-0.6996737218502247
% V (V) @ t=0.28
0.007144569716721878
% es.normE (V/m) @ t=0.3
1.590334502987098
% es.EX (V/m) @ t=0.3
1.4236834852865639
% es.EY (V/m) @ t=0.3
0.05477692054063399
% es.EZ (V/m) @ t=0.3
-0.7066035805053621
% es.tEX (V/m) @ t=0.3
1.4236834852865643
% es.tEY (V/m) @ t=0.3
0
% es.tEZ (V/m) @ t=0.3
-0.7066035805053552
% es.Ex (V/m) @ t=0.3
1.4236834852865639
% es.Ey (V/m) @ t=0.3
0.05477692054063399
% es.Ez (V/m) @ t=0.3
-0.7066035805053621
% es.tEx (V/m) @ t=0.3
1.4236834852865643
% es.tEy (V/m) @ t=0.3
0
% es.tEz (V/m) @ t=0.3
-0.7066035805053552
% V (V) @ t=0.3
0.007215332546194155
% es.normE (V/m) @ t=0.32
1.605931358484735
% es.EX (V/m) @ t=0.32
1.4376459478676984
% es.EY (V/m) @ t=0.32
0.05531413169651997
% es.EZ (V/m) @ t=0.32
-0.7135334391604873
% es.tEX (V/m) @ t=0.32
1.4376459478677006
% es.tEY (V/m) @ t=0.32
0
% es.tEZ (V/m) @ t=0.32
-0.7135334391604786
% es.Ex (V/m) @ t=0.32
1.4376459478676984
% es.Ey (V/m) @ t=0.32
0.05531413169651997
% es.Ez (V/m) @ t=0.32
-0.7135334391604873
% es.tEx (V/m) @ t=0.32
1.4376459478677006
% es.tEy (V/m) @ t=0.32
0
% es.tEz (V/m) @ t=0.32
-0.7135334391604786
% V (V) @ t=0.32
0.007286095375666433
% es.normE (V/m) @ t=0.34
1.6215282139823706
% es.EX (V/m) @ t=0.34
1.4516084104488338
% es.EY (V/m) @ t=0.34
0.05585134285239926
% es.EZ (V/m) @ t=0.34
-0.7204632978156089
% es.tEX (V/m) @ t=0.34
1.451608410448836
% es.tEY (V/m) @ t=0.34
0
% es.tEZ (V/m) @ t=0.34
-0.7204632978156056
% es.Ex (V/m) @ t=0.34
1.4516084104488338
% es.Ey (V/m) @ t=0.34
0.05585134285239926
% es.Ez (V/m) @ t=0.34
-0.7204632978156089
% es.tEx (V/m) @ t=0.34
1.451608410448836
% es.tEy (V/m) @ t=0.34
0
% es.tEz (V/m) @ t=0.34
-0.7204632978156056
% V (V) @ t=0.34
0.0073568582051387115
% es.normE (V/m) @ t=0.36
1.637125069480018
% es.EX (V/m) @ t=0.36
1.465570873029972
% es.EY (V/m) @ t=0.36
0.05638855400828785
% es.EZ (V/m) @ t=0.36
-0.7273931564707501
% es.tEX (V/m) @ t=0.36
1.465570873029968
% es.tEY (V/m) @ t=0.36
0
% es.tEZ (V/m) @ t=0.36
-0.7273931564707468
% es.Ex (V/m) @ t=0.36
1.465570873029972
% es.Ey (V/m) @ t=0.36
0.05638855400828785
% es.Ez (V/m) @ t=0.36
-0.7273931564707501
% es.tEx (V/m) @ t=0.36
1.465570873029968
% es.tEy (V/m) @ t=0.36
0
% es.tEz (V/m) @ t=0.36
-0.7273931564707468
% V (V) @ t=0.36
0.007427621034610988
% es.normE (V/m) @ t=0.38
1.6527219249776506
% es.EX (V/m) @ t=0.38
1.4795333356111011
% es.EY (V/m) @ t=0.38
0.056925765164170694
% es.EZ (V/m) @ t=0.38
-0.734323015125877
% es.tEX (V/m) @ t=0.38
1.4795333356110998
% es.tEY (V/m) @ t=0.38
0
% es.tEZ (V/m) @ t=0.38
-0.7343230151258737
% es.Ex (V/m) @ t=0.38
1.4795333356111011
% es.Ey (V/m) @ t=0.38
0.056925765164170694
% es.Ez (V/m) @ t=0.38
-0.734323015125877
% es.tEx (V/m) @ t=0.38
1.4795333356110998
% es.tEy (V/m) @ t=0.38
0
% es.tEz (V/m) @ t=0.38
-0.7343230151258737
% V (V) @ t=0.38
0.007498383864083266
% es.normE (V/m) @ t=0.4
1.668318780475284
% es.EX (V/m) @ t=0.4
1.4934957981922348
% es.EY (V/m) @ t=0.4
0.05746297632005001
% es.EZ (V/m) @ t=0.4
-0.741252873780997
% es.tEX (V/m) @ t=0.4
1.4934957981922325
% es.tEY (V/m) @ t=0.4
0
% es.tEZ (V/m) @ t=0.4
-0.7412528737809936
% es.Ex (V/m) @ t=0.4
1.4934957981922348
% es.Ey (V/m) @ t=0.4
0.05746297632005001
% es.Ez (V/m) @ t=0.4
-0.741252873780997
% es.tEx (V/m) @ t=0.4
1.4934957981922325
% es.tEy (V/m) @ t=0.4
0
% es.tEz (V/m) @ t=0.4
-0.7412528737809936
% V (V) @ t=0.4
0.007569146693555543
% es.normE (V/m) @ t=0.42
1.683915635972924
% es.EX (V/m) @ t=0.42
1.5074582607733675
% es.EY (V/m) @ t=0.42
0.058000187475929305
% es.EZ (V/m) @ t=0.42
-0.7481827324361329
% es.tEX (V/m) @ t=0.42
1.5074582607733644
% es.tEY (V/m) @ t=0.42
0
% es.tEZ (V/m) @ t=0.42
-0.7481827324361312
% es.Ex (V/m) @ t=0.42
1.5074582607733675
% es.Ey (V/m) @ t=0.42
0.058000187475929305
% es.Ez (V/m) @ t=0.42
-0.7481827324361329
% es.tEx (V/m) @ t=0.42
1.5074582607733644
% es.tEy (V/m) @ t=0.42
0
% es.tEz (V/m) @ t=0.42
-0.7481827324361312
% V (V) @ t=0.42
0.00763990952302782
% es.normE (V/m) @ t=0.44
1.6995124914705602
% es.EX (V/m) @ t=0.44
1.5214207233545023
% es.EY (V/m) @ t=0.44
0.058537398631805015
% es.EZ (V/m) @ t=0.44
-0.7551125910912581
% es.tEX (V/m) @ t=0.44
1.5214207233545007
% es.tEY (V/m) @ t=0.44
0
% es.tEZ (V/m) @ t=0.44
-0.7551125910912546
% es.Ex (V/m) @ t=0.44
1.5214207233545023
% es.Ey (V/m) @ t=0.44
0.058537398631805015
% es.Ez (V/m) @ t=0.44
-0.7551125910912581
% es.tEx (V/m) @ t=0.44
1.5214207233545007
% es.tEy (V/m) @ t=0.44
0
% es.tEz (V/m) @ t=0.44
-0.7551125910912546
% V (V) @ t=0.44
0.007710672352500099
% es.normE (V/m) @ t=0.46
1.7151093469681968
% es.EX (V/m) @ t=0.46
1.53538318593563
% es.EY (V/m) @ t=0.46
0.05907460978768608
% es.EZ (V/m) @ t=0.46
-0.7620424497463975
% es.tEX (V/m) @ t=0.46
1.5353831859356317
% es.tEY (V/m) @ t=0.46
0
% es.tEZ (V/m) @ t=0.46
-0.7620424497463958
% es.Ex (V/m) @ t=0.46
1.53538318593563
% es.Ey (V/m) @ t=0.46
0.05907460978768608
% es.Ez (V/m) @ t=0.46
-0.7620424497463975
% es.tEx (V/m) @ t=0.46
1.5353831859356317
% es.tEy (V/m) @ t=0.46
0
% es.tEz (V/m) @ t=0.46
-0.7620424497463958
% V (V) @ t=0.46
0.007781435181972377
% es.normE (V/m) @ t=0.48
1.7307062024658333
% es.EX (V/m) @ t=0.48
1.5493456485167705
% es.EY (V/m) @ t=0.48
0.059611820943560045
% es.EZ (V/m) @ t=0.48
-0.7689723084015103
% es.tEX (V/m) @ t=0.48
1.549345648516768
% es.tEY (V/m) @ t=0.48
0
% es.tEZ (V/m) @ t=0.48
-0.7689723084015085
% es.Ex (V/m) @ t=0.48
1.5493456485167705
% es.Ey (V/m) @ t=0.48
0.059611820943560045
% es.Ez (V/m) @ t=0.48
-0.7689723084015103
% es.tEx (V/m) @ t=0.48
1.549345648516768
% es.tEy (V/m) @ t=0.48
0
% es.tEz (V/m) @ t=0.48
-0.7689723084015085
% V (V) @ t=0.48
0.007852198011444654
% es.normE (V/m) @ t=0.5
1.746303057963467
% es.EX (V/m) @ t=0.5
1.5633081110978981
% es.EY (V/m) @ t=0.5
0.060149032099449995
% es.EZ (V/m) @ t=0.5
-0.7759021670566426
% es.tEX (V/m) @ t=0.5
1.5633081110978964
% es.tEY (V/m) @ t=0.5
0
% es.tEZ (V/m) @ t=0.5
-0.7759021670566426
% es.Ex (V/m) @ t=0.5
1.5633081110978981
% es.Ey (V/m) @ t=0.5
0.060149032099449995
% es.Ez (V/m) @ t=0.5
-0.7759021670566426
% es.tEx (V/m) @ t=0.5
1.5633081110978964
% es.tEy (V/m) @ t=0.5
0
% es.tEz (V/m) @ t=0.5
-0.7759021670566426
% V (V) @ t=0.5
0.007922960840916933
% es.normE (V/m) @ t=0.52
1.7618999134611066
% es.EX (V/m) @ t=0.52
1.5772705736790327
% es.EY (V/m) @ t=0.52
0.060686243255343525
% es.EZ (V/m) @ t=0.52
-0.7828320257117731
% es.tEX (V/m) @ t=0.52
1.5772705736790318
% es.tEY (V/m) @ t=0.52
0
% es.tEZ (V/m) @ t=0.52
-0.7828320257117696
% es.Ex (V/m) @ t=0.52
1.5772705736790327
% es.Ey (V/m) @ t=0.52
0.060686243255343525
% es.Ez (V/m) @ t=0.52
-0.7828320257117731
% es.tEx (V/m) @ t=0.52
1.5772705736790318
% es.tEy (V/m) @ t=0.52
0
% es.tEz (V/m) @ t=0.52
-0.7828320257117696
% V (V) @ t=0.52
0.007993723670389209
% es.normE (V/m) @ t=0.54
1.7774967689587529
% es.EX (V/m) @ t=0.54
1.5912330362601692
% es.EY (V/m) @ t=0.54
0.061223454411205025
% es.EZ (V/m) @ t=0.54
-0.7897618843669179
% es.tEX (V/m) @ t=0.54
1.5912330362601779
% es.tEY (V/m) @ t=0.54
0
% es.tEZ (V/m) @ t=0.54
-0.7897618843669107
% es.Ex (V/m) @ t=0.54
1.5912330362601692
% es.Ey (V/m) @ t=0.54
0.061223454411205025
% es.Ez (V/m) @ t=0.54
-0.7897618843669179
% es.tEx (V/m) @ t=0.54
1.5912330362601779
% es.tEy (V/m) @ t=0.54
0
% es.tEz (V/m) @ t=0.54
-0.7897618843669107
% V (V) @ t=0.54
0.008064486499861488
% es.normE (V/m) @ t=0.56
1.794644798166416
% es.EX (V/m) @ t=0.56
1.606584124848447
% es.EY (V/m) @ t=0.56
0.061814095619416864
% es.EZ (V/m) @ t=0.56
-0.79738094755465
% es.tEX (V/m) @ t=0.56
1.6065841248484443
% es.tEY (V/m) @ t=0.56
0
% es.tEZ (V/m) @ t=0.56
-0.7973809475546467
% es.Ex (V/m) @ t=0.56
1.606584124848447
% es.Ey (V/m) @ t=0.56
0.061814095619416864
% es.Ez (V/m) @ t=0.56
-0.79738094755465
% es.tEx (V/m) @ t=0.56
1.6065841248484443
% es.tEy (V/m) @ t=0.56
0
% es.tEz (V/m) @ t=0.56
-0.7973809475546467
% V (V) @ t=0.56
0.008142286929073605
% es.normE (V/m) @ t=0.58
1.81204466787743
% es.EX (V/m) @ t=0.58
1.6221606635396628
% es.EY (V/m) @ t=0.58
0.0624134114532843
% es.EZ (V/m) @ t=0.58
-0.8051119064090577
% es.tEX (V/m) @ t=0.58
1.6221606635396624
% es.tEY (V/m) @ t=0.58
0
% es.tEZ (V/m) @ t=0.58
-0.8051119064090528
% es.Ex (V/m) @ t=0.58
1.6221606635396628
% es.Ey (V/m) @ t=0.58
0.0624134114532843
% es.Ez (V/m) @ t=0.58
-0.8051119064090577
% es.tEx (V/m) @ t=0.58
1.6221606635396624
% es.tEy (V/m) @ t=0.58
0
% es.tEz (V/m) @ t=0.58
-0.8051119064090528
% V (V) @ t=0.58
0.008221229946410571
% es.normE (V/m) @ t=0.6
1.8294445375884427
% es.EX (V/m) @ t=0.6
1.6377372022308763
% es.EY (V/m) @ t=0.6
0.0630127272871438
% es.EZ (V/m) @ t=0.6
-0.812842865263469
% es.tEX (V/m) @ t=0.6
1.6377372022308743
% es.tEY (V/m) @ t=0.6
0
% es.tEZ (V/m) @ t=0.6
-0.8128428652634625
% es.Ex (V/m) @ t=0.6
1.6377372022308763
% es.Ey (V/m) @ t=0.6
0.0630127272871438
% es.Ez (V/m) @ t=0.6
-0.812842865263469
% es.tEx (V/m) @ t=0.6
1.6377372022308743
% es.tEy (V/m) @ t=0.6
0
% es.tEz (V/m) @ t=0.6
-0.8128428652634625
% V (V) @ t=0.6
0.008300172963747538
% es.normE (V/m) @ t=0.62
1.846844407299439
% es.EX (V/m) @ t=0.62
1.6533137409220782
% es.EY (V/m) @ t=0.62
0.06361204312100105
% es.EZ (V/m) @ t=0.62
-0.8205738241178662
% es.tEX (V/m) @ t=0.62
1.6533137409220853
% es.tEY (V/m) @ t=0.62
0
% es.tEZ (V/m) @ t=0.62
-0.8205738241178615
% es.Ex (V/m) @ t=0.62
1.6533137409220782
% es.Ey (V/m) @ t=0.62
0.06361204312100105
% es.Ez (V/m) @ t=0.62
-0.8205738241178662
% es.tEx (V/m) @ t=0.62
1.6533137409220853
% es.tEy (V/m) @ t=0.62
0
% es.tEz (V/m) @ t=0.62
-0.8205738241178615
% V (V) @ t=0.62
0.008379115981084503
% es.normE (V/m) @ t=0.64
1.8642442770104521
% es.EX (V/m) @ t=0.64
1.668890279613291
% es.EY (V/m) @ t=0.64
0.06421135895488098
% es.EZ (V/m) @ t=0.64
-0.8283047829722774
% es.tEX (V/m) @ t=0.64
1.6688902796132892
% es.tEY (V/m) @ t=0.64
0
% es.tEZ (V/m) @ t=0.64
-0.8283047829722818
% es.Ex (V/m) @ t=0.64
1.668890279613291
% es.Ey (V/m) @ t=0.64
0.06421135895488098
% es.Ez (V/m) @ t=0.64
-0.8283047829722774
% es.tEx (V/m) @ t=0.64
1.6688902796132892
% es.tEy (V/m) @ t=0.64
0
% es.tEz (V/m) @ t=0.64
-0.8283047829722818
% V (V) @ t=0.64
0.00845805899842147
% es.normE (V/m) @ t=0.66
1.881644146721466
% es.EX (V/m) @ t=0.66
1.684466818304504
% es.EY (V/m) @ t=0.66
0.06481067478873381
% es.EZ (V/m) @ t=0.66
-0.8360357418266923
% es.tEX (V/m) @ t=0.66
1.6844668183045002
% es.tEY (V/m) @ t=0.66
0
% es.tEZ (V/m) @ t=0.66
-0.8360357418266844
% es.Ex (V/m) @ t=0.66
1.684466818304504
% es.Ey (V/m) @ t=0.66
0.06481067478873381
% es.Ez (V/m) @ t=0.66
-0.8360357418266923
% es.tEx (V/m) @ t=0.66
1.6844668183045002
% es.tEy (V/m) @ t=0.66
0
% es.tEz (V/m) @ t=0.66
-0.8360357418266844
% V (V) @ t=0.66
0.008537002015758435
% es.normE (V/m) @ t=0.68
1.8990440164324687
% es.EX (V/m) @ t=0.68
1.700043356995709
% es.EY (V/m) @ t=0.68
0.06540999062260128
% es.EZ (V/m) @ t=0.68
-0.8437667006810965
% es.tEX (V/m) @ t=0.68
1.7000433569957103
% es.tEY (V/m) @ t=0.68
0
% es.tEZ (V/m) @ t=0.68
-0.843766700681094
% es.Ex (V/m) @ t=0.68
1.700043356995709
% es.Ey (V/m) @ t=0.68
0.06540999062260128
% es.Ez (V/m) @ t=0.68
-0.8437667006810965
% es.tEx (V/m) @ t=0.68
1.7000433569957103
% es.tEy (V/m) @ t=0.68
0
% es.tEz (V/m) @ t=0.68
-0.843766700681094
% V (V) @ t=0.68
0.008615945033095401
% es.normE (V/m) @ t=0.7
1.9164438861434754
% es.EX (V/m) @ t=0.7
1.715619895686915
% es.EY (V/m) @ t=0.7
0.0660093064564741
% es.EZ (V/m) @ t=0.7
-0.8514976595355077
% es.tEX (V/m) @ t=0.7
1.715619895686915
% es.tEY (V/m) @ t=0.7
0
% es.tEZ (V/m) @ t=0.7
-0.8514976595354966
% es.Ex (V/m) @ t=0.7
1.715619895686915
% es.Ey (V/m) @ t=0.7
0.0660093064564741
% es.Ez (V/m) @ t=0.7
-0.8514976595355077
% es.tEx (V/m) @ t=0.7
1.715619895686915
% es.tEy (V/m) @ t=0.7
0
% es.tEz (V/m) @ t=0.7
-0.8514976595354966
% V (V) @ t=0.7
0.008694888050432368
% es.normE (V/m) @ t=0.72
1.9338437558545014
% es.EX (V/m) @ t=0.72
1.7311964343781425
% es.EY (V/m) @ t=0.72
0.06660862229033401
% es.EZ (V/m) @ t=0.72
-0.8592286183899207
% es.tEX (V/m) @ t=0.72
1.731196434378134
% es.tEY (V/m) @ t=0.72
0
% es.tEZ (V/m) @ t=0.72
-0.8592286183899134
% es.Ex (V/m) @ t=0.72
1.7311964343781425
% es.Ey (V/m) @ t=0.72
0.06660862229033401
% es.Ez (V/m) @ t=0.72
-0.8592286183899207
% es.tEx (V/m) @ t=0.72
1.731196434378134
% es.tEy (V/m) @ t=0.72
0
% es.tEz (V/m) @ t=0.72
-0.8592286183899134
% V (V) @ t=0.72
0.008773831067769333
% es.normE (V/m) @ t=0.74
1.9512436255654886
% es.EX (V/m) @ t=0.74
1.746772973069334
% es.EY (V/m) @ t=0.74
0.06720793812419526
% es.EZ (V/m) @ t=0.74
-0.8669595772443178
% es.tEX (V/m) @ t=0.74
1.746772973069338
% es.tEY (V/m) @ t=0.74
0
% es.tEZ (V/m) @ t=0.74
-0.8669595772443159
% es.Ex (V/m) @ t=0.74
1.746772973069334
% es.Ey (V/m) @ t=0.74
0.06720793812419526
% es.Ez (V/m) @ t=0.74
-0.8669595772443178
% es.tEx (V/m) @ t=0.74
1.746772973069338
% es.tEy (V/m) @ t=0.74
0
% es.tEz (V/m) @ t=0.74
-0.8669595772443159
% V (V) @ t=0.74
0.008852774085106298
% es.normE (V/m) @ t=0.76
1.9686434952764928
% es.EX (V/m) @ t=0.76
1.7623495117605397
% es.EY (V/m) @ t=0.76
0.06780725395805876
% es.EZ (V/m) @ t=0.76
-0.8746905360987256
% es.tEX (V/m) @ t=0.76
1.762349511760534
% es.tEY (V/m) @ t=0.76
0
% es.tEZ (V/m) @ t=0.76
-0.8746905360987185
% es.Ex (V/m) @ t=0.76
1.7623495117605397
% es.Ey (V/m) @ t=0.76
0.06780725395805876
% es.Ez (V/m) @ t=0.76
-0.8746905360987256
% es.tEx (V/m) @ t=0.76
1.762349511760534
% es.tEy (V/m) @ t=0.76
0
% es.tEz (V/m) @ t=0.76
-0.8746905360987185
% V (V) @ t=0.76
0.008931717102443264
% es.normE (V/m) @ t=0.78
1.9860433649875011
% es.EX (V/m) @ t=0.78
1.7779260504517524
% es.EY (V/m) @ t=0.78
0.06840656979191023
% es.EZ (V/m) @ t=0.78
-0.8824214949531279
% es.tEX (V/m) @ t=0.78
1.777926050451753
% es.tEY (V/m) @ t=0.78
0
% es.tEZ (V/m) @ t=0.78
-0.8824214949531353
% es.Ex (V/m) @ t=0.78
1.7779260504517524
% es.Ey (V/m) @ t=0.78
0.06840656979191023
% es.Ez (V/m) @ t=0.78
-0.8824214949531279
% es.tEx (V/m) @ t=0.78
1.777926050451753
% es.tEy (V/m) @ t=0.78
0
% es.tEz (V/m) @ t=0.78
-0.8824214949531353
% V (V) @ t=0.78
0.009010660119780231
% es.normE (V/m) @ t=0.8
2.0034432346985174
% es.EX (V/m) @ t=0.8
1.7935025891429617
% es.EY (V/m) @ t=0.8
0.06900588562578927
% es.EZ (V/m) @ t=0.8
-0.8901524538075535
% es.tEX (V/m) @ t=0.8
1.793502589142971
% es.tEY (V/m) @ t=0.8
0
% es.tEZ (V/m) @ t=0.8
-0.8901524538075449
% es.Ex (V/m) @ t=0.8
1.7935025891429617
% es.Ey (V/m) @ t=0.8
0.06900588562578927
% es.Ez (V/m) @ t=0.8
-0.8901524538075535
% es.tEx (V/m) @ t=0.8
1.793502589142971
% es.tEy (V/m) @ t=0.8
0
% es.tEz (V/m) @ t=0.8
-0.8901524538075449
% V (V) @ t=0.8
0.009089603137117198
% es.normE (V/m) @ t=0.82
2.021447810908737
% es.EX (V/m) @ t=0.82
1.8096204673143275
% es.EY (V/m) @ t=0.82
0.0696260290402888
% es.EZ (V/m) @ t=0.82
-0.8981520903953226
% es.tEX (V/m) @ t=0.82
1.8096204673143328
% es.tEY (V/m) @ t=0.82
0
% es.tEZ (V/m) @ t=0.82
-0.898152090395314
% es.Ex (V/m) @ t=0.82
1.8096204673143275
% es.Ey (V/m) @ t=0.82
0.0696260290402888
% es.Ez (V/m) @ t=0.82
-0.8981520903953226
% es.tEx (V/m) @ t=0.82
1.8096204673143328
% es.tEy (V/m) @ t=0.82
0
% es.tEz (V/m) @ t=0.82
-0.898152090395314
% V (V) @ t=0.82
0.009171289724106883
% es.normE (V/m) @ t=0.84
2.040894401563885
% es.EX (V/m) @ t=0.84
1.8270292516542455
% es.EY (V/m) @ t=0.84
0.07029583898259933
% es.EZ (V/m) @ t=0.84
-0.9067924298249506
% es.tEX (V/m) @ t=0.84
1.827029251654249
% es.tEY (V/m) @ t=0.84
0
% es.tEZ (V/m) @ t=0.84
-0.9067924298249324
% es.Ex (V/m) @ t=0.84
1.8270292516542455
% es.Ey (V/m) @ t=0.84
0.07029583898259933
% es.Ez (V/m) @ t=0.84
-0.9067924298249506
% es.tEx (V/m) @ t=0.84
1.827029251654249
% es.tEy (V/m) @ t=0.84
0
% es.tEz (V/m) @ t=0.84
-0.9067924298249324
% V (V) @ t=0.84
0.00925951876942166
% es.normE (V/m) @ t=0.86
2.0603409922190776
% es.EX (V/m) @ t=0.86
1.844438035994198
% es.EY (V/m) @ t=0.86
0.07096564892493648
% es.EZ (V/m) @ t=0.86
-0.915432769254605
% es.tEX (V/m) @ t=0.86
1.8444380359941839
% es.tEY (V/m) @ t=0.86
0
% es.tEZ (V/m) @ t=0.86
-0.9154327692545934
% es.Ex (V/m) @ t=0.86
1.844438035994198
% es.Ey (V/m) @ t=0.86
0.07096564892493648
% es.Ez (V/m) @ t=0.86
-0.915432769254605
% es.tEx (V/m) @ t=0.86
1.8444380359941839
% es.tEy (V/m) @ t=0.86
0
% es.tEz (V/m) @ t=0.86
-0.9154327692545934
% V (V) @ t=0.86
0.009347747814736442
% es.normE (V/m) @ t=0.88
2.0797875828742343
% es.EX (V/m) @ t=0.88
1.8618468203341223
% es.EY (V/m) @ t=0.88
0.07163545886724965
% es.EZ (V/m) @ t=0.88
-0.9240731086842382
% es.tEX (V/m) @ t=0.88
1.8618468203341205
% es.tEY (V/m) @ t=0.88
0
% es.tEZ (V/m) @ t=0.88
-0.9240731086842331
% es.Ex (V/m) @ t=0.88
1.8618468203341223
% es.Ey (V/m) @ t=0.88
0.07163545886724965
% es.Ez (V/m) @ t=0.88
-0.9240731086842382
% es.tEx (V/m) @ t=0.88
1.8618468203341205
% es.tEy (V/m) @ t=0.88
0
% es.tEz (V/m) @ t=0.88
-0.9240731086842331
% V (V) @ t=0.88
0.009435976860051222
% es.normE (V/m) @ t=0.9
2.099234173529396
% es.EX (V/m) @ t=0.9
1.8792556046740507
% es.EY (V/m) @ t=0.9
0.07230526880955795
% es.EZ (V/m) @ t=0.9
-0.9327134481138749
% es.tEX (V/m) @ t=0.9
1.87925560467405
% es.tEY (V/m) @ t=0.9
0
% es.tEZ (V/m) @ t=0.9
-0.9327134481138586
% es.Ex (V/m) @ t=0.9
1.8792556046740507
% es.Ey (V/m) @ t=0.9
0.07230526880955795
% es.Ez (V/m) @ t=0.9
-0.9327134481138749
% es.tEx (V/m) @ t=0.9
1.87925560467405
% es.tEy (V/m) @ t=0.9
0
% es.tEz (V/m) @ t=0.9
-0.9327134481138586
% V (V) @ t=0.9
0.009524205905365998
% es.normE (V/m) @ t=0.92
2.1186807641845657
% es.EX (V/m) @ t=0.92
1.8966643890139858
% es.EY (V/m) @ t=0.92
0.07297507875188489
% es.EZ (V/m) @ t=0.92
-0.9413537875435152
% es.tEX (V/m) @ t=0.92
1.8966643890139796
% es.tEY (V/m) @ t=0.92
0
% es.tEZ (V/m) @ t=0.92
-0.9413537875435267
% es.Ex (V/m) @ t=0.92
1.8966643890139858
% es.Ey (V/m) @ t=0.92
0.07297507875188489
% es.Ez (V/m) @ t=0.92
-0.9413537875435152
% es.tEx (V/m) @ t=0.92
1.8966643890139796
% es.tEy (V/m) @ t=0.92
0
% es.tEz (V/m) @ t=0.92
-0.9413537875435267
% V (V) @ t=0.92
0.009612434950680778
% es.normE (V/m) @ t=0.94
2.138127354839729
% es.EX (V/m) @ t=0.94
1.9140731733539096
% es.EY (V/m) @ t=0.94
0.07364488869417987
% es.EZ (V/m) @ t=0.94
-0.9499941269731661
% es.tEX (V/m) @ t=0.94
1.9140731733539083
% es.tEY (V/m) @ t=0.94
0
% es.tEZ (V/m) @ t=0.94
-0.9499941269731522
% es.Ex (V/m) @ t=0.94
1.9140731733539096
% es.Ey (V/m) @ t=0.94
0.07364488869417987
% es.Ez (V/m) @ t=0.94
-0.9499941269731661
% es.tEx (V/m) @ t=0.94
1.9140731733539083
% es.tEy (V/m) @ t=0.94
0
% es.tEz (V/m) @ t=0.94
-0.9499941269731522
% V (V) @ t=0.94
0.009700663995995557
% es.normE (V/m) @ t=0.96
2.1575739454948937
% es.EX (V/m) @ t=0.96
1.9314819576938458
% es.EY (V/m) @ t=0.96
0.07431469863650325
% es.EZ (V/m) @ t=0.96
-0.9586344664027922
% es.tEX (V/m) @ t=0.96
1.9314819576938458
% es.tEY (V/m) @ t=0.96
0
% es.tEZ (V/m) @ t=0.96
-0.9586344664027919
% es.Ex (V/m) @ t=0.96
1.9314819576938458
% es.Ey (V/m) @ t=0.96
0.07431469863650325
% es.Ez (V/m) @ t=0.96
-0.9586344664027922
% es.tEx (V/m) @ t=0.96
1.9314819576938458
% es.tEy (V/m) @ t=0.96
0
% es.tEz (V/m) @ t=0.96
-0.9586344664027919
% V (V) @ t=0.96
0.009788893041310337
% es.normE (V/m) @ t=0.98
2.1770205361500565
% es.EX (V/m) @ t=0.98
1.9488907420337693
% es.EY (V/m) @ t=0.98
0.07498450857879196
% es.EZ (V/m) @ t=0.98
-0.9672748058324431
% es.tEX (V/m) @ t=0.98
1.9488907420337744
% es.tEY (V/m) @ t=0.98
0
% es.tEZ (V/m) @ t=0.98
-0.9672748058324245
% es.Ex (V/m) @ t=0.98
1.9488907420337693
% es.Ey (V/m) @ t=0.98
0.07498450857879196
% es.Ez (V/m) @ t=0.98
-0.9672748058324431
% es.tEx (V/m) @ t=0.98
1.9488907420337744
% es.tEy (V/m) @ t=0.98
0
% es.tEz (V/m) @ t=0.98
-0.9672748058324245
% V (V) @ t=0.98
0.009877122086625117
% es.normE (V/m) @ t=1
2.1964671268052314
% es.EX (V/m) @ t=1
1.9662995263737117
% es.EY (V/m) @ t=1
0.0756543185211083
% es.EZ (V/m) @ t=1
-0.9759151452620798
% es.tEX (V/m) @ t=1
1.966299526373704
% es.tEY (V/m) @ t=1
0
% es.tEZ (V/m) @ t=1
-0.9759151452620713
% es.Ex (V/m) @ t=1
1.9662995263737117
% es.Ey (V/m) @ t=1
0.0756543185211083
% es.Ez (V/m) @ t=1
-0.9759151452620798
% es.tEx (V/m) @ t=1
1.966299526373704
% es.tEy (V/m) @ t=1
0
% es.tEz (V/m) @ t=1
-0.9759151452620713
% V (V) @ t=1
0.009965351131939896
% es.normE (V/m) @ t=1.02
2.2159137174603885
% es.EX (V/m) @ t=1.02
1.9837083107136362
% es.EY (V/m) @ t=1.02
0.07632412846342632
% es.EZ (V/m) @ t=1.02
-0.9845554846917131
% es.tEX (V/m) @ t=1.02
1.9837083107136264
% es.tEY (V/m) @ t=1.02
0
% es.tEZ (V/m) @ t=1.02
-0.9845554846917182
% es.Ex (V/m) @ t=1.02
1.9837083107136362
% es.Ey (V/m) @ t=1.02
0.07632412846342632
% es.Ez (V/m) @ t=1.02
-0.9845554846917131
% es.tEx (V/m) @ t=1.02
1.9837083107136264
% es.tEy (V/m) @ t=1.02
0
% es.tEz (V/m) @ t=1.02
-0.9845554846917182
% V (V) @ t=1.02
0.010053580177254676
% es.normE (V/m) @ t=1.04
2.2353603081155553
% es.EX (V/m) @ t=1.04
2.0011170950535644
% es.EY (V/m) @ t=1.04
0.07699393840574348
% es.EZ (V/m) @ t=1.04
-0.9931958241213603