% Model:              1 neuron.mph
% Version:            COMSOL 6.0.0.405
% Date:               Mar 9 2023, 13:15
% Dimension:          0
% Nodes:              14017
% Expressions:        14017
% Description:        Electric field norm, Electric field, X component, Electric field, Y component, Electric field, Z component, Tangential electric field, X component, Tangential electric field, Y component, Tangential electric field, Z component, Electric field, x component, Electric field, y component, Electric field, z component, Tangential electric field, x component, Tangential electric field, y component, Tangential electric field, z component, Electric potential
% Length unit:        mm
% x
2
% y
12.2
% z
1.33
% es.normE (V/m) @ t=0
1.3097289195559554
% es.EX (V/m) @ t=0
-1.2046582182028032
% es.EY (V/m) @ t=0
0.09397139901381218
% es.EZ (V/m) @ t=0
0.5038128803252386
% es.tEX (V/m) @ t=0
-1.2046582182027992
% es.tEY (V/m) @ t=0
0
% es.tEZ (V/m) @ t=0
0.503812880325242
% es.Ex (V/m) @ t=0
-1.2046582182028032
% es.Ey (V/m) @ t=0
0.09397139901381218
% es.Ez (V/m) @ t=0
0.5038128803252386
% es.tEx (V/m) @ t=0
-1.2046582182027992
% es.tEy (V/m) @ t=0
0
% es.tEz (V/m) @ t=0
0.503812880325242
% V (V) @ t=0
0.007312484020718072
% es.normE (V/m) @ t=0.02
1.1312366999091887
% es.EX (V/m) @ t=0.02
-1.0404852230310473
% es.EY (V/m) @ t=0.02
0.08116481052167912
% es.EZ (V/m) @ t=0.02
0.43515235228695764
% es.tEX (V/m) @ t=0.02
-1.0404852230310455
% es.tEY (V/m) @ t=0.02
0
% es.tEZ (V/m) @ t=0.02
0.4351523522869556
% es.Ex (V/m) @ t=0.02
-1.0404852230310473
% es.Ey (V/m) @ t=0.02
0.08116481052167912
% es.Ez (V/m) @ t=0.02
0.43515235228695764
% es.tEx (V/m) @ t=0.02
-1.0404852230310455
% es.tEy (V/m) @ t=0.02
0
% es.tEz (V/m) @ t=0.02
0.4351523522869556
% V (V) @ t=0.02
0.006315925338136133
% es.normE (V/m) @ t=0.04
1.1416396783854799
% es.EX (V/m) @ t=0.04
-1.0500536393378392
% es.EY (V/m) @ t=0.04
0.08191123311284854
% es.EZ (V/m) @ t=0.04
0.43915406204554275
% es.tEX (V/m) @ t=0.04
-1.0500536393378352
% es.tEY (V/m) @ t=0.04
0
% es.tEZ (V/m) @ t=0.04
0.43915406204554586
% es.Ex (V/m) @ t=0.04
-1.0500536393378392
% es.Ey (V/m) @ t=0.04
0.08191123311284854
% es.Ez (V/m) @ t=0.04
0.43915406204554275
% es.tEx (V/m) @ t=0.04
-1.0500536393378352
% es.tEy (V/m) @ t=0.04
0
% es.tEz (V/m) @ t=0.04
0.43915406204554586
% V (V) @ t=0.04
0.0063740061657682635
% es.normE (V/m) @ t=0.06
1.1521422353207087
% es.EX (V/m) @ t=0.06
-1.0597136446770588
% es.EY (V/m) @ t=0.06
0.08266481309460955
% es.EZ (V/m) @ t=0.06
0.4431940769140253
% es.tEX (V/m) @ t=0.06
-1.059713644677056
% es.tEY (V/m) @ t=0.06
0
% es.tEZ (V/m) @ t=0.06
0.44319407691402013
% es.Ex (V/m) @ t=0.06
-1.0597136446770588
% es.Ey (V/m) @ t=0.06
0.08266481309460955
% es.Ez (V/m) @ t=0.06
0.4431940769140253
% es.tEx (V/m) @ t=0.06
-1.059713644677056
% es.tEy (V/m) @ t=0.06
0
% es.tEz (V/m) @ t=0.06
0.44319407691402013
% V (V) @ t=0.06
0.006432642291352532
% es.normE (V/m) @ t=0.08
1.162791295013026
% es.EX (V/m) @ t=0.08
-1.0695084022132662
% es.EY (V/m) @ t=0.08
0.08342886983112413
% es.EZ (V/m) @ t=0.08
0.4472904463864787
% es.tEX (V/m) @ t=0.08
-1.0695084022132653
% es.tEY (V/m) @ t=0.08
0
% es.tEZ (V/m) @ t=0.08
0.4472904463864751
% es.Ex (V/m) @ t=0.08
-1.0695084022132662
% es.Ey (V/m) @ t=0.08
0.08342886983112413
% es.Ez (V/m) @ t=0.08
0.4472904463864787
% es.tEx (V/m) @ t=0.08
-1.0695084022132653
% es.tEy (V/m) @ t=0.08
0
% es.tEz (V/m) @ t=0.08
0.4472904463864751
% V (V) @ t=0.08
0.006492098145101786
% es.normE (V/m) @ t=0.1
1.173570850080678
% es.EX (V/m) @ t=0.1
-1.0794231884702445
% es.EY (V/m) @ t=0.1
0.08420225859711461
% es.EZ (V/m) @ t=0.1
0.4514370129701912
% es.tEX (V/m) @ t=0.1
-1.0794231884702379
% es.tEY (V/m) @ t=0.1
0
% es.tEZ (V/m) @ t=0.1
0.45143701297019234
% es.Ex (V/m) @ t=0.1
-1.0794231884702445
% es.Ey (V/m) @ t=0.1
0.08420225859711461
% es.Ez (V/m) @ t=0.1
0.4514370129701912
% es.tEx (V/m) @ t=0.1
-1.0794231884702379
% es.tEy (V/m) @ t=0.1
0
% es.tEz (V/m) @ t=0.1
0.45143701297019234
% V (V) @ t=0.1
0.006552284160772094
% es.normE (V/m) @ t=0.12
1.184350405148326
% es.EX (V/m) @ t=0.12
-1.0893379747272198
% es.EY (V/m) @ t=0.12
0.08497564736309793
% es.EZ (V/m) @ t=0.12
0.45558357955389855
% es.tEX (V/m) @ t=0.12
-1.089337974727214
% es.tEY (V/m) @ t=0.12
0
% es.tEZ (V/m) @ t=0.12
0.4555835795538954
% es.Ex (V/m) @ t=0.12
-1.0893379747272198
% es.Ey (V/m) @ t=0.12
0.08497564736309793
% es.Ez (V/m) @ t=0.12
0.45558357955389855
% es.tEx (V/m) @ t=0.12
-1.089337974727214
% es.tEy (V/m) @ t=0.12
0
% es.tEz (V/m) @ t=0.12
0.4555835795538954
% V (V) @ t=0.12
0.006612470176442403
% es.normE (V/m) @ t=0.14
1.1951697354135864
% es.EX (V/m) @ t=0.14
-1.0992893446187577
% es.EY (V/m) @ t=0.14
0.08575190001681338
% es.EZ (V/m) @ t=0.14
0.45974544656322064
% es.tEX (V/m) @ t=0.14
-1.0992893446187502
% es.tEY (V/m) @ t=0.14
0
% es.tEZ (V/m) @ t=0.14
0.45974544656321825
% es.Ex (V/m) @ t=0.14
-1.0992893446187577
% es.Ey (V/m) @ t=0.14
0.08575190001681338
% es.Ez (V/m) @ t=0.14
0.45974544656322064
% es.tEx (V/m) @ t=0.14
-1.0992893446187502
% es.tEy (V/m) @ t=0.14
0
% es.tEz (V/m) @ t=0.14
0.45974544656321825
% V (V) @ t=0.14
0.006672877756299419
% es.normE (V/m) @ t=0.16
1.2065348370888764
% es.EX (V/m) @ t=0.16
-1.1097426932060235
% es.EY (V/m) @ t=0.16
0.08656744922071469
% es.EZ (V/m) @ t=0.16
0.46411725683771615
% es.tEX (V/m) @ t=0.16
-1.1097426932060186
% es.tEY (V/m) @ t=0.16
0
% es.tEZ (V/m) @ t=0.16
0.4641172568377172
% es.Ex (V/m) @ t=0.16
-1.1097426932060235
% es.Ey (V/m) @ t=0.16
0.08656744922071469
% es.Ez (V/m) @ t=0.16
0.46411725683771615
% es.tEx (V/m) @ t=0.16
-1.1097426932060186
% es.tEy (V/m) @ t=0.16
0
% es.tEz (V/m) @ t=0.16
0.4641172568377172
% V (V) @ t=0.16
0.006736325507063787
% es.normE (V/m) @ t=0.18
1.2178999387641847
% es.EX (V/m) @ t=0.18
-1.1201960417932955
% es.EY (V/m) @ t=0.18
0.08738299842461239
% es.EZ (V/m) @ t=0.18
0.46848906711220634
% es.tEX (V/m) @ t=0.18
-1.1201960417932915
% es.tEY (V/m) @ t=0.18
0
% es.tEZ (V/m) @ t=0.18
0.46848906711220906
% es.Ex (V/m) @ t=0.18
-1.1201960417932955
% es.Ey (V/m) @ t=0.18
0.08738299842461239
% es.Ez (V/m) @ t=0.18
0.46848906711220634
% es.tEx (V/m) @ t=0.18
-1.1201960417932915
% es.tEy (V/m) @ t=0.18
0
% es.tEz (V/m) @ t=0.18
0.46848906711220906
% V (V) @ t=0.18
0.0067997732578281575
% es.normE (V/m) @ t=0.2
1.2292650404394965
% es.EX (V/m) @ t=0.2
-1.13064939038056
% es.EY (V/m) @ t=0.2
0.08819854762850926
% es.EZ (V/m) @ t=0.2
0.4728608773866884
% es.tEX (V/m) @ t=0.2
-1.1306493903805581
% es.tEY (V/m) @ t=0.2
0
% es.tEZ (V/m) @ t=0.2
0.47286087738669025
% es.Ex (V/m) @ t=0.2
-1.13064939038056
% es.Ey (V/m) @ t=0.2
0.08819854762850926
% es.Ez (V/m) @ t=0.2
0.4728608773866884
% es.tEx (V/m) @ t=0.2
-1.1306493903805581
% es.tEy (V/m) @ t=0.2
0
% es.tEz (V/m) @ t=0.2
0.47286087738669025
% V (V) @ t=0.2
0.006863221008592528
% es.normE (V/m) @ t=0.22
1.2406301421148351
% es.EX (V/m) @ t=0.22
-1.1411027389678332
% es.EY (V/m) @ t=0.22
0.08901409683241401
% es.EZ (V/m) @ t=0.22
0.4772326876611841
% es.tEX (V/m) @ t=0.22
-1.1411027389678274
% es.tEY (V/m) @ t=0.22
0
% es.tEZ (V/m) @ t=0.22
0.47723268766118565
% es.Ex (V/m) @ t=0.22
-1.1411027389678332
% es.Ey (V/m) @ t=0.22
0.08901409683241401
% es.Ez (V/m) @ t=0.22
0.4772326876611841
% es.tEx (V/m) @ t=0.22
-1.1411027389678274
% es.tEy (V/m) @ t=0.22
0
% es.tEz (V/m) @ t=0.22
0.47723268766118565
% V (V) @ t=0.22
0.006926668759356896
% es.normE (V/m) @ t=0.24
1.251995243790181
% es.EX (V/m) @ t=0.24
-1.151556087555103
% es.EY (V/m) @ t=0.24
0.0898296460363126
% es.EZ (V/m) @ t=0.24
0.48160449793567256
% es.tEX (V/m) @ t=0.24
-1.1515560875550994
% es.tEY (V/m) @ t=0.24
0
% es.tEZ (V/m) @ t=0.24
0.48160449793567395
% es.Ex (V/m) @ t=0.24
-1.151556087555103
% es.Ey (V/m) @ t=0.24
0.0898296460363126
% es.Ez (V/m) @ t=0.24
0.48160449793567256
% es.tEx (V/m) @ t=0.24
-1.1515560875550994
% es.tEy (V/m) @ t=0.24
0
% es.tEz (V/m) @ t=0.24
0.48160449793567395
% V (V) @ t=0.24
0.006990116510121268
% es.normE (V/m) @ t=0.26
1.2633603454655362
% es.EX (V/m) @ t=0.26
-1.1620094361423705
% es.EY (V/m) @ t=0.26
0.09064519524021747
% es.EZ (V/m) @ t=0.26
0.4859763082101565
% es.tEX (V/m) @ t=0.26
-1.162009436142367
% es.tEY (V/m) @ t=0.26
0
% es.tEZ (V/m) @ t=0.26
0.48597630821015514
% es.Ex (V/m) @ t=0.26
-1.1620094361423705
% es.Ey (V/m) @ t=0.26
0.09064519524021747
% es.Ez (V/m) @ t=0.26
0.4859763082101565
% es.tEx (V/m) @ t=0.26
-1.162009436142367
% es.tEy (V/m) @ t=0.26
0
% es.tEz (V/m) @ t=0.26
0.48597630821015514
% V (V) @ t=0.26
0.007053564260885636
% es.normE (V/m) @ t=0.28
1.274919237298891
% es.EX (V/m) @ t=0.28
-1.172641041698958
% es.EY (V/m) @ t=0.28
0.0914744428200695
% es.EZ (V/m) @ t=0.28
0.49042266206136936
% es.tEX (V/m) @ t=0.28
-1.1726410416989523
% es.tEY (V/m) @ t=0.28
0
% es.tEZ (V/m) @ t=0.28
0.4904226620613734
% es.Ex (V/m) @ t=0.28
-1.172641041698958
% es.Ey (V/m) @ t=0.28
0.0914744428200695
% es.Ez (V/m) @ t=0.28
0.49042266206136936
% es.tEx (V/m) @ t=0.28
-1.1726410416989523
% es.tEy (V/m) @ t=0.28
0
% es.tEz (V/m) @ t=0.28
0.4904226620613734
% V (V) @ t=0.28
0.007118104269398694
% es.normE (V/m) @ t=0.3
1.2876117034638555
% es.EX (V/m) @ t=0.3
-1.1843153602951575
% es.EY (V/m) @ t=0.3
0.0923838189653679
% es.EZ (V/m) @ t=0.3
0.49530505810361064
% es.tEX (V/m) @ t=0.3
-1.184315360295149
% es.tEY (V/m) @ t=0.3
0
% es.tEZ (V/m) @ t=0.3
0.4953050581036109
% es.Ex (V/m) @ t=0.3
-1.1843153602951575
% es.Ey (V/m) @ t=0.3
0.0923838189653679
% es.Ez (V/m) @ t=0.3
0.49530505810361064
% es.tEx (V/m) @ t=0.3
-1.184315360295149
% es.tEy (V/m) @ t=0.3
0
% es.tEz (V/m) @ t=0.3
0.4953050581036109
% V (V) @ t=0.3
0.00718903343285766
% es.normE (V/m) @ t=0.32
1.30030416963044
% es.EX (V/m) @ t=0.32
-1.1959896788913484
% es.EY (V/m) @ t=0.32
0.09329319511066103
% es.EZ (V/m) @ t=0.32
0.5001874541458466
% es.tEX (V/m) @ t=0.32
-1.1959896788913422
% es.tEY (V/m) @ t=0.32
0
% es.tEZ (V/m) @ t=0.32
0.5001874541458449
% es.Ex (V/m) @ t=0.32
-1.1959896788913484
% es.Ey (V/m) @ t=0.32
0.09329319511066103
% es.Ez (V/m) @ t=0.32
0.5001874541458466
% es.tEx (V/m) @ t=0.32
-1.1959896788913422
% es.tEy (V/m) @ t=0.32
0
% es.tEz (V/m) @ t=0.32
0.5001874541458449
% V (V) @ t=0.32
0.007259962596316627
% es.normE (V/m) @ t=0.34
1.31299663579862
% es.EX (V/m) @ t=0.34
-1.207663997487551
% es.EY (V/m) @ t=0.34
0.09420257125597636
% es.EZ (V/m) @ t=0.34
0.5050698501880799
% es.tEX (V/m) @ t=0.34
-1.207663997487546
% es.tEY (V/m) @ t=0.34
0
% es.tEZ (V/m) @ t=0.34
0.5050698501880788
% es.Ex (V/m) @ t=0.34
-1.207663997487551
% es.Ey (V/m) @ t=0.34
0.09420257125597636
% es.Ez (V/m) @ t=0.34
0.5050698501880799
% es.tEx (V/m) @ t=0.34
-1.207663997487546
% es.tEy (V/m) @ t=0.34
0
% es.tEz (V/m) @ t=0.34
0.5050698501880788
% V (V) @ t=0.34
0.007330891759775593
% es.normE (V/m) @ t=0.36
1.3256891019683383
% es.EX (V/m) @ t=0.36
-1.2193383160837516
% es.EY (V/m) @ t=0.36
0.09511194740126766
% es.EZ (V/m) @ t=0.36
0.509952246230323
% es.tEX (V/m) @ t=0.36
-1.2193383160837463
% es.tEY (V/m) @ t=0.36
0
% es.tEZ (V/m) @ t=0.36
0.5099522462303199
% es.Ex (V/m) @ t=0.36
-1.2193383160837516
% es.Ey (V/m) @ t=0.36
0.09511194740126766
% es.Ez (V/m) @ t=0.36
0.509952246230323
% es.tEx (V/m) @ t=0.36
-1.2193383160837463
% es.tEy (V/m) @ t=0.36
0
% es.tEz (V/m) @ t=0.36
0.5099522462303199
% V (V) @ t=0.36
0.00740182092323456
% es.normE (V/m) @ t=0.38
1.338381568139549
% es.EX (V/m) @ t=0.38
-1.231012634679951
% es.EY (V/m) @ t=0.38
0.09602132354656967
% es.EZ (V/m) @ t=0.38
0.5148346422725616
% es.tEX (V/m) @ t=0.38
-1.2310126346799457
% es.tEY (V/m) @ t=0.38
0
% es.tEZ (V/m) @ t=0.38
0.5148346422725574
% es.Ex (V/m) @ t=0.38
-1.231012634679951
% es.Ey (V/m) @ t=0.38
0.09602132354656967
% es.Ez (V/m) @ t=0.38
0.5148346422725616
% es.tEx (V/m) @ t=0.38
-1.2310126346799457
% es.tEy (V/m) @ t=0.38
0
% es.tEz (V/m) @ t=0.38
0.5148346422725574
% V (V) @ t=0.38
0.007472750086693526
% es.normE (V/m) @ t=0.4
1.35107403431221
% es.EX (V/m) @ t=0.4
-1.2426869532761495
% es.EY (V/m) @ t=0.4
0.09693069969187074
% es.EZ (V/m) @ t=0.4
0.5197170383147993
% es.tEX (V/m) @ t=0.4
-1.2426869532761433
% es.tEY (V/m) @ t=0.4
0
% es.tEZ (V/m) @ t=0.4
0.5197170383147984
% es.Ex (V/m) @ t=0.4
-1.2426869532761495
% es.Ey (V/m) @ t=0.4
0.09693069969187074
% es.Ez (V/m) @ t=0.4
0.5197170383147993
% es.tEx (V/m) @ t=0.4
-1.2426869532761433
% es.tEy (V/m) @ t=0.4
0
% es.tEz (V/m) @ t=0.4
0.5197170383147984
% V (V) @ t=0.4
0.007543679250152493
% es.normE (V/m) @ t=0.42
1.3637665004862805
% es.EX (V/m) @ t=0.42
-1.2543612718723445
% es.EY (V/m) @ t=0.42
0.0978400758371718
% es.EZ (V/m) @ t=0.42
0.524599434357037
% es.tEX (V/m) @ t=0.42
-1.2543612718723383
% es.tEY (V/m) @ t=0.42
0
% es.tEZ (V/m) @ t=0.42
0.5245994343570395
% es.Ex (V/m) @ t=0.42
-1.2543612718723445
% es.Ey (V/m) @ t=0.42
0.0978400758371718
% es.Ez (V/m) @ t=0.42
0.524599434357037
% es.tEx (V/m) @ t=0.42
-1.2543612718723383
% es.tEy (V/m) @ t=0.42
0
% es.tEz (V/m) @ t=0.42
0.5245994343570395
% V (V) @ t=0.42
0.0076146084136114595
% es.normE (V/m) @ t=0.44
1.3764589666617166
% es.EX (V/m) @ t=0.44
-1.2660355904685363
% es.EY (V/m) @ t=0.44
0.0987494519824782
% es.EZ (V/m) @ t=0.44
0.529481830399265
% es.tEX (V/m) @ t=0.44
-1.2660355904685323
% es.tEY (V/m) @ t=0.44
0
% es.tEZ (V/m) @ t=0.44
0.5294818303992663
% es.Ex (V/m) @ t=0.44
-1.2660355904685363
% es.Ey (V/m) @ t=0.44
0.0987494519824782
% es.Ez (V/m) @ t=0.44
0.529481830399265
% es.tEx (V/m) @ t=0.44
-1.2660355904685323
% es.tEy (V/m) @ t=0.44
0
% es.tEz (V/m) @ t=0.44
0.5294818303992663
% V (V) @ t=0.44
0.0076855375770704245
% es.normE (V/m) @ t=0.46
1.389151432838509
% es.EX (V/m) @ t=0.46
-1.2777099090647424
% es.EY (V/m) @ t=0.46
0.09965882812777838
% es.EZ (V/m) @ t=0.46
0.5343642264415152
% es.tEX (V/m) @ t=0.46
-1.2777099090647352
% es.tEY (V/m) @ t=0.46
0
% es.tEZ (V/m) @ t=0.46
0.5343642264415109
% es.Ex (V/m) @ t=0.46
-1.2777099090647424
% es.Ey (V/m) @ t=0.46
0.09965882812777838
% es.Ez (V/m) @ t=0.46
0.5343642264415152
% es.tEx (V/m) @ t=0.46
-1.2777099090647352
% es.tEy (V/m) @ t=0.46
0
% es.tEz (V/m) @ t=0.46
0.5343642264415109
% V (V) @ t=0.46
0.007756466740529392
% es.normE (V/m) @ t=0.48
1.4018438990165902
% es.EX (V/m) @ t=0.48
-1.2893842276609413
% es.EY (V/m) @ t=0.48
0.10056820427307867
% es.EZ (V/m) @ t=0.48
0.5392466224837547
% es.tEX (V/m) @ t=0.48
-1.289384227660939
% es.tEY (V/m) @ t=0.48
0
% es.tEZ (V/m) @ t=0.48
0.539246622483752
% es.Ex (V/m) @ t=0.48
-1.2893842276609413
% es.Ey (V/m) @ t=0.48
0.10056820427307867
% es.Ez (V/m) @ t=0.48
0.5392466224837547
% es.tEx (V/m) @ t=0.48
-1.289384227660939
% es.tEy (V/m) @ t=0.48
0
% es.tEz (V/m) @ t=0.48
0.539246622483752
% V (V) @ t=0.48
0.007827395903988359
% es.normE (V/m) @ t=0.5
1.4145363651959324
% es.EX (V/m) @ t=0.5
-1.301058546257142
% es.EY (V/m) @ t=0.5
0.10147758041837707
% es.EZ (V/m) @ t=0.5
0.5441290185259853
% es.tEX (V/m) @ t=0.5
-1.3010585462571331
% es.tEY (V/m) @ t=0.5
0
% es.tEZ (V/m) @ t=0.5
0.5441290185259859
% es.Ex (V/m) @ t=0.5
-1.301058546257142
% es.Ey (V/m) @ t=0.5
0.10147758041837707
% es.Ez (V/m) @ t=0.5
0.5441290185259853
% es.tEx (V/m) @ t=0.5
-1.3010585462571331
% es.tEy (V/m) @ t=0.5
0
% es.tEz (V/m) @ t=0.5
0.5441290185259859
% V (V) @ t=0.5
0.007898325067447325
% es.normE (V/m) @ t=0.52
1.4272288313765107
% es.EX (V/m) @ t=0.52
-1.312732864853344
% es.EY (V/m) @ t=0.52
0.10238695656368257
% es.EZ (V/m) @ t=0.52
0.5490114145682248
% es.tEX (V/m) @ t=0.52
-1.312732864853337
% es.tEY (V/m) @ t=0.52
0
% es.tEZ (V/m) @ t=0.52
0.5490114145682234
% es.Ex (V/m) @ t=0.52
-1.312732864853344
% es.Ey (V/m) @ t=0.52
0.10238695656368257
% es.Ez (V/m) @ t=0.52
0.5490114145682248
% es.tEx (V/m) @ t=0.52
-1.312732864853337
% es.tEy (V/m) @ t=0.52
0
% es.tEz (V/m) @ t=0.52
0.5490114145682234
% V (V) @ t=0.52
0.007969254230906293
% es.normE (V/m) @ t=0.54
1.4399212975582696
% es.EX (V/m) @ t=0.54
-1.3244071834495306
% es.EY (V/m) @ t=0.54
0.10329633270898103
% es.EZ (V/m) @ t=0.54
0.5538938106104607
% es.tEX (V/m) @ t=0.54
-1.3244071834495283
% es.tEY (V/m) @ t=0.54
0
% es.tEZ (V/m) @ t=0.54
0.5538938106104574
% es.Ex (V/m) @ t=0.54
-1.3244071834495306
% es.Ey (V/m) @ t=0.54
0.10329633270898103
% es.Ez (V/m) @ t=0.54
0.5538938106104607
% es.tEx (V/m) @ t=0.54
-1.3244071834495283
% es.tEy (V/m) @ t=0.54
0
% es.tEz (V/m) @ t=0.54
0.5538938106104574
% V (V) @ t=0.54
0.008040183394365259
% es.normE (V/m) @ t=0.56
1.4530671272820377
% es.EX (V/m) @ t=0.56
-1.3364984891046743
% es.EY (V/m) @ t=0.56
0.1042383280373938
% es.EZ (V/m) @ t=0.56
0.5589506032295879
% es.tEX (V/m) @ t=0.56
-1.3364984891046658
% es.tEY (V/m) @ t=0.56
0
% es.tEZ (V/m) @ t=0.56
0.5589506032295901
% es.Ex (V/m) @ t=0.56
-1.3364984891046743
% es.Ey (V/m) @ t=0.56
0.1042383280373938
% es.Ez (V/m) @ t=0.56
0.5589506032295879
% es.tEx (V/m) @ t=0.56
-1.3364984891046658
% es.tEy (V/m) @ t=0.56
0
% es.tEz (V/m) @ t=0.56
0.5589506032295901
% V (V) @ t=0.56
0.008113639138570213
% es.normE (V/m) @ t=0.58
1.4672601417279738
% es.EX (V/m) @ t=0.58
-1.349552956632821
% es.EY (V/m) @ t=0.58
0.10525566755897048
% es.EZ (V/m) @ t=0.58
0.5644102192218856
% es.tEX (V/m) @ t=0.58
-1.349552956632813
% es.tEY (V/m) @ t=0.58
0
% es.tEZ (V/m) @ t=0.58
0.5644102192218874
% es.Ex (V/m) @ t=0.58
-1.349552956632821
% es.Ey (V/m) @ t=0.58
0.10525566755897048
% es.Ez (V/m) @ t=0.58
0.5644102192218856
% es.tEx (V/m) @ t=0.58
-1.349552956632813
% es.tEy (V/m) @ t=0.58
0
% es.tEz (V/m) @ t=0.58
0.5644102192218874
% V (V) @ t=0.58
0.008192930810273181
% es.normE (V/m) @ t=0.6
1.481453156174473
% es.EX (V/m) @ t=0.6
-1.3626074241609576
% es.EY (V/m) @ t=0.6
0.10627300708055598
% es.EZ (V/m) @ t=0.6
0.5698698352141751
% es.tEX (V/m) @ t=0.6
-1.3626074241609523
% es.tEY (V/m) @ t=0.6
0
% es.tEZ (V/m) @ t=0.6
0.569869835214174
% es.Ex (V/m) @ t=0.6
-1.3626074241609576
% es.Ey (V/m) @ t=0.6
0.10627300708055598
% es.Ez (V/m) @ t=0.6
0.5698698352141751
% es.tEx (V/m) @ t=0.6
-1.3626074241609523
% es.tEy (V/m) @ t=0.6
0
% es.tEz (V/m) @ t=0.6
0.569869835214174
% V (V) @ t=0.6
0.00827222248197615
% es.normE (V/m) @ t=0.62
1.4956461706215296
% es.EX (V/m) @ t=0.62
-1.375661891689097
% es.EY (V/m) @ t=0.62
0.10729034660211134
% es.EZ (V/m) @ t=0.62
0.5753294512064622
% es.tEX (V/m) @ t=0.62
-1.3756618916890933
% es.tEY (V/m) @ t=0.62
0
% es.tEZ (V/m) @ t=0.62
0.5753294512064642
% es.Ex (V/m) @ t=0.62
-1.375661891689097
% es.Ey (V/m) @ t=0.62
0.10729034660211134
% es.Ez (V/m) @ t=0.62
0.5753294512064622
% es.tEx (V/m) @ t=0.62
-1.3756618916890933
% es.tEy (V/m) @ t=0.62
0
% es.tEz (V/m) @ t=0.62
0.5753294512064642
% V (V) @ t=0.62
0.008351514153679119
% es.normE (V/m) @ t=0.64
1.5098391850691302
% es.EX (V/m) @ t=0.64
-1.3887163592172376
% es.EY (V/m) @ t=0.64
0.10830768612368974
% es.EZ (V/m) @ t=0.64
0.5807890671987446
% es.tEX (V/m) @ t=0.64
-1.3887163592172307
% es.tEY (V/m) @ t=0.64
0
% es.tEZ (V/m) @ t=0.64
0.5807890671987437
% es.Ex (V/m) @ t=0.64
-1.3887163592172376
% es.Ey (V/m) @ t=0.64
0.10830768612368974
% es.Ez (V/m) @ t=0.64
0.5807890671987446
% es.tEx (V/m) @ t=0.64
-1.3887163592172307
% es.tEy (V/m) @ t=0.64
0
% es.tEz (V/m) @ t=0.64
0.5807890671987437
% V (V) @ t=0.64
0.008430805825382085
% es.normE (V/m) @ t=0.66
1.5240321995172585
% es.EX (V/m) @ t=0.66
-1.401770826745378
% es.EY (V/m) @ t=0.66
0.10932502564526636
% es.EZ (V/m) @ t=0.66
0.5862486831910316
% es.tEX (V/m) @ t=0.66
-1.40177082674537
% es.tEY (V/m) @ t=0.66
0
% es.tEZ (V/m) @ t=0.66
0.5862486831910338
% es.Ex (V/m) @ t=0.66
-1.401770826745378
% es.Ey (V/m) @ t=0.66
0.10932502564526636
% es.Ez (V/m) @ t=0.66
0.5862486831910316
% es.tEx (V/m) @ t=0.66
-1.40177082674537
% es.tEy (V/m) @ t=0.66
0
% es.tEz (V/m) @ t=0.66
0.5862486831910338
% V (V) @ t=0.66
0.008510097497085055
% es.normE (V/m) @ t=0.68
1.5382252139658985
% es.EX (V/m) @ t=0.68
-1.4148252942735136
% es.EY (V/m) @ t=0.68
0.11034236516684304
% es.EZ (V/m) @ t=0.68
0.5917082991833256
% es.tEX (V/m) @ t=0.68
-1.4148252942735127
% es.tEY (V/m) @ t=0.68
0
% es.tEZ (V/m) @ t=0.68
0.591708299183324
% es.Ex (V/m) @ t=0.68
-1.4148252942735136
% es.Ey (V/m) @ t=0.68
0.11034236516684304
% es.Ez (V/m) @ t=0.68
0.5917082991833256
% es.tEx (V/m) @ t=0.68
-1.4148252942735127
% es.tEy (V/m) @ t=0.68
0
% es.tEz (V/m) @ t=0.68
0.591708299183324
% V (V) @ t=0.68
0.008589389168788023
% es.normE (V/m) @ t=0.7
1.5524182284150294
% es.EX (V/m) @ t=0.7
-1.4278797618016508
% es.EY (V/m) @ t=0.7
0.11135970468841078
% es.EZ (V/m) @ t=0.7
0.5971679151755966
% es.tEX (V/m) @ t=0.7
-1.42787976180165
% es.tEY (V/m) @ t=0.7
0
% es.tEZ (V/m) @ t=0.7
0.5971679151756
% es.Ex (V/m) @ t=0.7
-1.4278797618016508
% es.Ey (V/m) @ t=0.7
0.11135970468841078
% es.Ez (V/m) @ t=0.7
0.5971679151755966
% es.tEx (V/m) @ t=0.7
-1.42787976180165
% es.tEy (V/m) @ t=0.7
0
% es.tEz (V/m) @ t=0.7
0.5971679151756
% V (V) @ t=0.7
0.00866868084049099
% es.normE (V/m) @ t=0.72
1.56661124286466
% es.EX (V/m) @ t=0.72
-1.4409342293297958
% es.EY (V/m) @ t=0.72
0.11237704420997685
% es.EZ (V/m) @ t=0.72
0.602627531167887
% es.tEX (V/m) @ t=0.72
-1.440934229329791
% es.tEY (V/m) @ t=0.72
0
% es.tEZ (V/m) @ t=0.72
0.602627531167883
% es.Ex (V/m) @ t=0.72
-1.4409342293297958
% es.Ey (V/m) @ t=0.72
0.11237704420997685
% es.Ez (V/m) @ t=0.72
0.602627531167887
% es.tEx (V/m) @ t=0.72
-1.440934229329791
% es.tEy (V/m) @ t=0.72
0
% es.tEz (V/m) @ t=0.72
0.602627531167883
% V (V) @ t=0.72
0.008747972512193962
% es.normE (V/m) @ t=0.74
1.5808042573147585
% es.EX (V/m) @ t=0.74
-1.453988696857935
% es.EY (V/m) @ t=0.74
0.11339438373154997
% es.EZ (V/m) @ t=0.74
0.6080871471601792
% es.tEX (V/m) @ t=0.74
-1.4539886968579268
% es.tEY (V/m) @ t=0.74
0
% es.tEZ (V/m) @ t=0.74
0.6080871471601839
% es.Ex (V/m) @ t=0.74
-1.453988696857935
% es.Ey (V/m) @ t=0.74
0.11339438373154997
% es.Ez (V/m) @ t=0.74
0.6080871471601792
% es.tEx (V/m) @ t=0.74
-1.4539886968579268
% es.tEy (V/m) @ t=0.74
0
% es.tEz (V/m) @ t=0.74
0.6080871471601839
% V (V) @ t=0.74
0.00882726418389693
% es.normE (V/m) @ t=0.76
1.5949972717653234
% es.EX (V/m) @ t=0.76
-1.4670431643860824
% es.EY (V/m) @ t=0.76
0.11441172325312482
% es.EZ (V/m) @ t=0.76
0.6135467631524698
% es.tEX (V/m) @ t=0.76
-1.467043164386082
% es.tEY (V/m) @ t=0.76
0
% es.tEZ (V/m) @ t=0.76
0.6135467631524705
% es.Ex (V/m) @ t=0.76
-1.4670431643860824
% es.Ey (V/m) @ t=0.76
0.11441172325312482
% es.Ez (V/m) @ t=0.76
0.6135467631524698
% es.tEx (V/m) @ t=0.76
-1.467043164386082
% es.tEy (V/m) @ t=0.76
0
% es.tEz (V/m) @ t=0.76
0.6135467631524705
% V (V) @ t=0.76
0.008906555855599898
% es.normE (V/m) @ t=0.78
1.6091902862163185
% es.EX (V/m) @ t=0.78
-1.4800976319142154
% es.EY (V/m) @ t=0.78
0.11542906277469611
% es.EZ (V/m) @ t=0.78
0.6190063791447531
% es.tEX (V/m) @ t=0.78
-1.4800976319142105
% es.tEY (V/m) @ t=0.78
0
% es.tEZ (V/m) @ t=0.78
0.6190063791447535
% es.Ex (V/m) @ t=0.78
-1.4800976319142154
% es.Ey (V/m) @ t=0.78
0.11542906277469611
% es.Ez (V/m) @ t=0.78
0.6190063791447531
% es.tEx (V/m) @ t=0.78
-1.4800976319142105
% es.tEy (V/m) @ t=0.78
0
% es.tEz (V/m) @ t=0.78
0.6190063791447535
% V (V) @ t=0.78
0.008985847527302868
% es.normE (V/m) @ t=0.8
1.6233833006677556
% es.EX (V/m) @ t=0.8
-1.4931520994423522
% es.EY (V/m) @ t=0.8
0.11644640229627279
% es.EZ (V/m) @ t=0.8
0.6244659951370402
% es.tEX (V/m) @ t=0.8
-1.4931520994423497
% es.tEY (V/m) @ t=0.8
0
% es.tEZ (V/m) @ t=0.8
0.6244659951370402
% es.Ex (V/m) @ t=0.8
-1.4931520994423522
% es.Ey (V/m) @ t=0.8
0.11644640229627279
% es.Ez (V/m) @ t=0.8
0.6244659951370402
% es.tEx (V/m) @ t=0.8
-1.4931520994423497
% es.tEy (V/m) @ t=0.8
0
% es.tEz (V/m) @ t=0.8
0.6244659951370402
% V (V) @ t=0.8
0.009065139199005836
% es.normE (V/m) @ t=0.82
1.6375763151196225
% es.EX (V/m) @ t=0.82
-1.5062065669704958
% es.EY (V/m) @ t=0.82
0.11746374181784408
% es.EZ (V/m) @ t=0.82
0.629925611129327
% es.tEX (V/m) @ t=0.82
-1.5062065669704872
% es.tEY (V/m) @ t=0.82
0
% es.tEZ (V/m) @ t=0.82
0.6299256111293232
% es.Ex (V/m) @ t=0.82
-1.5062065669704958
% es.Ey (V/m) @ t=0.82
0.11746374181784408
% es.Ez (V/m) @ t=0.82
0.629925611129327
% es.tEx (V/m) @ t=0.82
-1.5062065669704872
% es.tEy (V/m) @ t=0.82
0
% es.tEz (V/m) @ t=0.82
0.6299256111293232
% V (V) @ t=0.82
0.009144430870708806
% es.normE (V/m) @ t=0.84
1.6525500048723523
% es.EX (V/m) @ t=0.84
-1.5199790376402635
% es.EY (V/m) @ t=0.84
0.11853779003153286
% es.EZ (V/m) @ t=0.84
0.6356855322561499
% es.tEX (V/m) @ t=0.84
-1.5199790376402547
% es.tEY (V/m) @ t=0.84
0
% es.tEZ (V/m) @ t=0.84
0.6356855322561543
% es.Ex (V/m) @ t=0.84
-1.5199790376402635
% es.Ey (V/m) @ t=0.84
0.11853779003153286
% es.Ez (V/m) @ t=0.84
0.6356855322561499
% es.tEx (V/m) @ t=0.84
-1.5199790376402547
% es.tEy (V/m) @ t=0.84
0
% es.tEz (V/m) @ t=0.84
0.6356855322561543
% V (V) @ t=0.84
0.009228046737833574
% es.normE (V/m) @ t=0.86
1.668446554955635
% es.EX (V/m) @ t=0.86
-1.5346002819498386
% es.EY (V/m) @ t=0.86
0.11967887533772553
% es.EZ (V/m) @ t=0.86
0.6418004533367415
% es.tEX (V/m) @ t=0.86
-1.5346002819498334
% es.tEY (V/m) @ t=0.86
0
% es.tEZ (V/m) @ t=0.86
0.6418004533367458
% es.Ex (V/m) @ t=0.86
-1.5346002819498386
% es.Ey (V/m) @ t=0.86
0.11967887533772553
% es.Ez (V/m) @ t=0.86
0.6418004533367415
% es.tEx (V/m) @ t=0.86
-1.5346002819498334
% es.tEy (V/m) @ t=0.86
0
% es.tEz (V/m) @ t=0.86
0.6418004533367458
% V (V) @ t=0.86
0.00931677436962153
% es.normE (V/m) @ t=0.88
1.6843431050394346
% es.EX (V/m) @ t=0.88
-1.54922152625942
% es.EY (V/m) @ t=0.88
0.12081996064393413
% es.EZ (V/m) @ t=0.88
0.6479153744173423
% es.tEX (V/m) @ t=0.88
-1.549221526259414
% es.tEY (V/m) @ t=0.88
0
% es.tEZ (V/m) @ t=0.88
0.6479153744173374
% es.Ex (V/m) @ t=0.88
-1.54922152625942
% es.Ey (V/m) @ t=0.88
0.12081996064393413
% es.Ez (V/m) @ t=0.88
0.6479153744173423
% es.tEx (V/m) @ t=0.88
-1.549221526259414
% es.tEy (V/m) @ t=0.88
0
% es.tEz (V/m) @ t=0.88
0.6479153744173374
% V (V) @ t=0.88
0.009405502001409483
% es.normE (V/m) @ t=0.9
1.7002396551237275
% es.EX (V/m) @ t=0.9
-1.5638427705690037
% es.EY (V/m) @ t=0.9
0.1219610459501197
% es.EZ (V/m) @ t=0.9
0.6540302954979444
% es.tEX (V/m) @ t=0.9
-1.5638427705689946
% es.tEY (V/m) @ t=0.9
0
% es.tEZ (V/m) @ t=0.9
0.6540302954979502
% es.Ex (V/m) @ t=0.9
-1.5638427705690037
% es.Ey (V/m) @ t=0.9
0.1219610459501197
% es.Ez (V/m) @ t=0.9
0.6540302954979444
% es.tEx (V/m) @ t=0.9
-1.5638427705689946
% es.tEy (V/m) @ t=0.9
0
% es.tEz (V/m) @ t=0.9
0.6540302954979502
% V (V) @ t=0.9
0.009494229633197437
% es.normE (V/m) @ t=0.92
1.716136205208487
% es.EX (V/m) @ t=0.92
-1.578464014878579
% es.EY (V/m) @ t=0.92
0.12310213125630692
% es.EZ (V/m) @ t=0.92
0.6601452165785344
% es.tEX (V/m) @ t=0.92
-1.5784640148785734
% es.tEY (V/m) @ t=0.92
0
% es.tEZ (V/m) @ t=0.92
0.6601452165785382
% es.Ex (V/m) @ t=0.92
-1.578464014878579
% es.Ey (V/m) @ t=0.92
0.12310213125630692
% es.Ez (V/m) @ t=0.92
0.6601452165785344
% es.tEx (V/m) @ t=0.92
-1.5784640148785734
% es.tEy (V/m) @ t=0.92
0
% es.tEz (V/m) @ t=0.92
0.6601452165785382
% V (V) @ t=0.92
0.009582957264985393
% es.normE (V/m) @ t=0.94
1.7320327552937238
% es.EX (V/m) @ t=0.94
-1.59308525918816
% es.EY (V/m) @ t=0.94
0.12424321656250314
% es.EZ (V/m) @ t=0.94
0.6662601376591403
% es.tEX (V/m) @ t=0.94
-1.5930852591881504
% es.tEY (V/m) @ t=0.94
0
% es.tEZ (V/m) @ t=0.94
0.6662601376591404
% es.Ex (V/m) @ t=0.94
-1.59308525918816
% es.Ey (V/m) @ t=0.94
0.12424321656250314
% es.Ez (V/m) @ t=0.94
0.6662601376591403
% es.tEx (V/m) @ t=0.94
-1.5930852591881504
% es.tEy (V/m) @ t=0.94
0
% es.tEz (V/m) @ t=0.94
0.6662601376591404
% V (V) @ t=0.94
0.009671684896773345
% es.normE (V/m) @ t=0.96
1.747929305379412
% es.EX (V/m) @ t=0.96
-1.6077065034977407
% es.EY (V/m) @ t=0.96
0.12538430186868682
% es.EZ (V/m) @ t=0.96
0.6723750587397446
% es.tEX (V/m) @ t=0.96
-1.6077065034977291
% es.tEY (V/m) @ t=0.96
0
% es.tEZ (V/m) @ t=0.96
0.672375058739739
% es.Ex (V/m) @ t=0.96
-1.6077065034977407
% es.Ey (V/m) @ t=0.96
0.12538430186868682
% es.Ez (V/m) @ t=0.96
0.6723750587397446
% es.tEx (V/m) @ t=0.96
-1.6077065034977291
% es.tEy (V/m) @ t=0.96
0
% es.tEz (V/m) @ t=0.96
0.672375058739739
% V (V) @ t=0.96
0.009760412528561298
% es.normE (V/m) @ t=0.98
1.7638258554655293
% es.EX (V/m) @ t=0.98
-1.6223277478073115
% es.EY (V/m) @ t=0.98
0.12652538717489004
% es.EZ (V/m) @ t=0.98
0.6784899798203381
% es.tEX (V/m) @ t=0.98
-1.6223277478073062
% es.tEY (V/m) @ t=0.98
0
% es.tEZ (V/m) @ t=0.98
0.6784899798203305
% es.Ex (V/m) @ t=0.98
-1.6223277478073115
% es.Ey (V/m) @ t=0.98
0.12652538717489004
% es.Ez (V/m) @ t=0.98
0.6784899798203381
% es.tEx (V/m) @ t=0.98
-1.6223277478073062
% es.tEy (V/m) @ t=0.98
0
% es.tEz (V/m) @ t=0.98
0.6784899798203305
% V (V) @ t=0.98
0.009849140160349254
% es.normE (V/m) @ t=1
1.7797224055520875
% es.EX (V/m) @ t=1
-1.6369489921168952
% es.EY (V/m) @ t=1
0.12766647248108454
% es.EZ (V/m) @ t=1
0.684604900900935
% es.tEX (V/m) @ t=1
-1.636948992116892
% es.tEY (V/m) @ t=1
0
% es.tEZ (V/m) @ t=1
0.6846049009009363
% es.Ex (V/m) @ t=1
-1.6369489921168952
% es.Ey (V/m) @ t=1
0.12766647248108454
% es.Ez (V/m) @ t=1
0.684604900900935
% es.tEx (V/m) @ t=1
-1.636948992116892
% es.tEy (V/m) @ t=1
0
% es.tEz (V/m) @ t=1
0.6846049009009363
% V (V) @ t=1
0.009937867792137208
% es.normE (V/m) @ t=1.02
1.7956189556390578
% es.EX (V/m) @ t=1.02
-1.651570236426476
% es.EY (V/m) @ t=1.02
0.1288075577872717
% es.EZ (V/m) @ t=1.02
0.6907198219815267
% es.tEX (V/m) @ t=1.02
-1.651570236426462
% es.tEY (V/m) @ t=1.02
0
% es.tEZ (V/m) @ t=1.02
0.6907198219815243
% es.Ex (V/m) @ t=1.02
-1.651570236426476
% es.Ey (V/m) @ t=1.02
0.1288075577872717
% es.Ez (V/m) @ t=1.02
0.6907198219815267
% es.tEx (V/m) @ t=1.02
-1.651570236426462
% es.tEy (V/m) @ t=1.02
0
% es.tEz (V/m) @ t=1.02
0.6907198219815243
% V (V) @ t=1.02
0.010026595423925163
% es.normE (V/m) @ t=1.04
1.8115155057264305
% es.EX (V/m) @ t=1.04
-1.6661914807360472
% es.EY (V/m) @ t=1.04
0.12994864309348397
% es.EZ (V/m) @ t=1.04
0.6968347430621255
% es.tEX (V/m) @ t=1.04