% Model:              1 neuron.mph
% Version:            COMSOL 6.1.0.252
% Date:               Mar 18 2023, 12:16
% Dimension:          0
% Nodes:              14017
% Expressions:        14017
% Description:        Electric field norm, Electric field, X component, Electric field, Y component, Electric field, Z component, Tangential electric field, X component, Tangential electric field, Y component, Tangential electric field, Z component, Electric field, x component, Electric field, y component, Electric field, z component, Tangential electric field, x component, Tangential electric field, y component, Tangential electric field, z component, Electric potential
% Length unit:        mm
% x
1.0000000000000002
% y
12.2
% z
2
% es.normE (V/m) @ t=0
0.7031119641198988
% es.EX (V/m) @ t=0
0.488386788030277
% es.EY (V/m) @ t=0
0.07312974517840337
% es.EZ (V/m) @ t=0
-0.4876749615664717
% es.tEX (V/m) @ t=0
0.4883867880302799
% es.tEY (V/m) @ t=0
0
% es.tEZ (V/m) @ t=0
-0.4876749615664626
% es.Ex (V/m) @ t=0
0.488386788030277
% es.Ey (V/m) @ t=0
0.07312974517840337
% es.Ez (V/m) @ t=0
-0.4876749615664717
% es.tEx (V/m) @ t=0
0.4883867880302799
% es.tEy (V/m) @ t=0
0
% es.tEz (V/m) @ t=0
-0.4876749615664626
% V (V) @ t=0
0.007529434998458985
% es.normE (V/m) @ t=0.02
0.607285258561226
% es.EX (V/m) @ t=0.02
0.42182484699134026
% es.EY (V/m) @ t=0.02
0.06316293719493057
% es.EZ (V/m) @ t=0.02
-0.42121003505408683
% es.tEX (V/m) @ t=0.02
0.42182484699134304
% es.tEY (V/m) @ t=0.02
0
% es.tEZ (V/m) @ t=0.02
-0.4212100350540777
% es.Ex (V/m) @ t=0.02
0.42182484699134026
% es.Ey (V/m) @ t=0.02
0.06316293719493057
% es.Ez (V/m) @ t=0.02
-0.42121003505408683
% es.tEx (V/m) @ t=0.02
0.42182484699134304
% es.tEy (V/m) @ t=0.02
0
% es.tEz (V/m) @ t=0.02
-0.4212100350540777
% V (V) @ t=0.02
0.0065032527550271686
% es.normE (V/m) @ t=0.04
0.6128708761881168
% es.EX (V/m) @ t=0.04
0.42570465802297786
% es.EY (V/m) @ t=0.04
0.06374389154881852
% es.EZ (V/m) @ t=0.04
-0.4250841914494108
% es.tEX (V/m) @ t=0.04
0.42570465802297686
% es.tEY (V/m) @ t=0.04
0
% es.tEZ (V/m) @ t=0.04
-0.4250841914494017
% es.Ex (V/m) @ t=0.04
0.42570465802297786
% es.Ey (V/m) @ t=0.04
0.06374389154881852
% es.Ez (V/m) @ t=0.04
-0.4250841914494108
% es.tEx (V/m) @ t=0.04
0.42570465802297686
% es.tEy (V/m) @ t=0.04
0
% es.tEz (V/m) @ t=0.04
-0.4250841914494017
% V (V) @ t=0.04
0.0065630674528511885
% es.normE (V/m) @ t=0.06
0.6185087412871599
% es.EX (V/m) @ t=0.06
0.42962076128110194
% es.EY (V/m) @ t=0.06
0.06433027734084987
% es.EZ (V/m) @ t=0.06
-0.42899458674727553
% es.tEX (V/m) @ t=0.06
0.4296207612811045
% es.tEY (V/m) @ t=0.06
0
% es.tEZ (V/m) @ t=0.06
-0.42899458674726665
% es.Ex (V/m) @ t=0.06
0.42962076128110194
% es.Ey (V/m) @ t=0.06
0.06433027734084987
% es.Ez (V/m) @ t=0.06
-0.42899458674727553
% es.tEx (V/m) @ t=0.06
0.4296207612811045
% es.tEy (V/m) @ t=0.06
0
% es.tEz (V/m) @ t=0.06
-0.42899458674726665
% V (V) @ t=0.06
0.0066234419313988555
% es.normE (V/m) @ t=0.08
0.6242282174117215
% es.EX (V/m) @ t=0.08
0.4335935522473845
% es.EY (V/m) @ t=0.08
0.06492515116653463
% es.EZ (V/m) @ t=0.08
-0.43296158705093934
% es.tEX (V/m) @ t=0.08
0.4335935522473904
% es.tEY (V/m) @ t=0.08
0
% es.tEZ (V/m) @ t=0.08
-0.432961587050932
% es.Ex (V/m) @ t=0.08
0.4335935522473845
% es.Ey (V/m) @ t=0.08
0.06492515116653463
% es.Ez (V/m) @ t=0.08
-0.43296158705093934
% es.tEx (V/m) @ t=0.08
0.4335935522473904
% es.tEy (V/m) @ t=0.08
0
% es.tEz (V/m) @ t=0.08
-0.432961587050932
% V (V) @ t=0.08
0.00668469038467557
% es.normE (V/m) @ t=0.1
0.6300136103355756
% es.EX (V/m) @ t=0.1
0.4376121295796275
% es.EY (V/m) @ t=0.1
0.06552688073270352
% es.EZ (V/m) @ t=0.1
-0.4369743069223049
% es.tEX (V/m) @ t=0.1
0.4376121295796329
% es.tEY (V/m) @ t=0.1
0
% es.tEZ (V/m) @ t=0.1
-0.4369743069222958
% es.Ex (V/m) @ t=0.1
0.4376121295796275
% es.Ey (V/m) @ t=0.1
0.06552688073270352
% es.Ez (V/m) @ t=0.1
-0.4369743069223049
% es.tEx (V/m) @ t=0.1
0.4376121295796329
% es.tEy (V/m) @ t=0.1
0
% es.tEz (V/m) @ t=0.1
-0.4369743069222958
% V (V) @ t=0.1
0.006746644742778658
% es.normE (V/m) @ t=0.12
0.6357990032594429
% es.EX (V/m) @ t=0.12
0.4416307069118789
% es.EY (V/m) @ t=0.12
0.0661286102988799
% es.EZ (V/m) @ t=0.12
-0.4409870267936815
% es.tEX (V/m) @ t=0.12
0.44163070691187944
% es.tEY (V/m) @ t=0.12
0
% es.tEZ (V/m) @ t=0.12
-0.4409870267936742
% es.Ex (V/m) @ t=0.12
0.4416307069118789
% es.Ey (V/m) @ t=0.12
0.0661286102988799
% es.Ez (V/m) @ t=0.12
-0.4409870267936815
% es.tEx (V/m) @ t=0.12
0.44163070691187944
% es.tEy (V/m) @ t=0.12
0
% es.tEz (V/m) @ t=0.12
-0.4409870267936742
% V (V) @ t=0.12
0.006808599100881744
% es.normE (V/m) @ t=0.14
0.6416207541025536
% es.EX (V/m) @ t=0.14
0.4456745385370412
% es.EY (V/m) @ t=0.14
0.06673412202422047
% es.EZ (V/m) @ t=0.14
-0.44502496428333793
% es.tEX (V/m) @ t=0.14
0.44567453853704353
% es.tEY (V/m) @ t=0.14
0
% es.tEZ (V/m) @ t=0.14
-0.4450249642833288
% es.Ex (V/m) @ t=0.14
0.4456745385370412
% es.Ey (V/m) @ t=0.14
0.06673412202422047
% es.Ez (V/m) @ t=0.14
-0.44502496428333793
% es.tEx (V/m) @ t=0.14
0.44567453853704353
% es.tEy (V/m) @ t=0.14
0
% es.tEz (V/m) @ t=0.14
-0.4450249642833288
% V (V) @ t=0.14
0.006870942741592116
% es.normE (V/m) @ t=0.16
0.6477183660575284
% es.EX (V/m) @ t=0.16
0.44990998391418957
% es.EY (V/m) @ t=0.16
0.06736833040371179
% es.EZ (V/m) @ t=0.16
-0.4492542372609136
% es.tEX (V/m) @ t=0.16
0.449909983914188
% es.tEY (V/m) @ t=0.16
0
% es.tEZ (V/m) @ t=0.16
-0.4492542372609045
% es.Ex (V/m) @ t=0.16
0.44990998391418957
% es.Ey (V/m) @ t=0.16
0.06736833040371179
% es.Ez (V/m) @ t=0.16
-0.4492542372609136
% es.tEx (V/m) @ t=0.16
0.449909983914188
% es.tEy (V/m) @ t=0.16
0
% es.tEz (V/m) @ t=0.16
-0.4492542372609045
% V (V) @ t=0.16
0.006936240014827863
% es.normE (V/m) @ t=0.18
0.6538159780125017
% es.EX (V/m) @ t=0.18
0.45414542929133084
% es.EY (V/m) @ t=0.18
0.06800253878320706
% es.EZ (V/m) @ t=0.18
-0.4534835102384964
% es.tEX (V/m) @ t=0.18
0.45414542929133606
% es.tEY (V/m) @ t=0.18
0
% es.tEZ (V/m) @ t=0.18
-0.4534835102384873
% es.Ex (V/m) @ t=0.18
0.45414542929133084
% es.Ey (V/m) @ t=0.18
0.06800253878320706
% es.Ez (V/m) @ t=0.18
-0.4534835102384964
% es.tEx (V/m) @ t=0.18
0.45414542929133606
% es.tEy (V/m) @ t=0.18
0
% es.tEz (V/m) @ t=0.18
-0.4534835102384873
% V (V) @ t=0.18
0.007001537288063609
% es.normE (V/m) @ t=0.2
0.6599135899674722
% es.EX (V/m) @ t=0.2
0.4583808746684809
% es.EY (V/m) @ t=0.2
0.06863674716270984
% es.EZ (V/m) @ t=0.2
-0.45771278321606523
% es.tEX (V/m) @ t=0.2
0.4583808746684839
% es.tEY (V/m) @ t=0.2
0
% es.tEZ (V/m) @ t=0.2
-0.45771278321605635
% es.Ex (V/m) @ t=0.2
0.4583808746684809
% es.Ey (V/m) @ t=0.2
0.06863674716270984
% es.Ez (V/m) @ t=0.2
-0.45771278321606523
% es.tEx (V/m) @ t=0.2
0.4583808746684839
% es.tEy (V/m) @ t=0.2
0
% es.tEz (V/m) @ t=0.2
-0.45771278321605635
% V (V) @ t=0.2
0.007066834561299355
% es.normE (V/m) @ t=0.22
0.6660112019224491
% es.EX (V/m) @ t=0.22
0.46261632004562425
% es.EY (V/m) @ t=0.22
0.06927095554220866
% es.EZ (V/m) @ t=0.22
-0.46194205619364825
% es.tEX (V/m) @ t=0.22
0.4626163200456248
% es.tEY (V/m) @ t=0.22
0
% es.tEZ (V/m) @ t=0.22
-0.4619420561936427
% es.Ex (V/m) @ t=0.22
0.46261632004562425
% es.Ey (V/m) @ t=0.22
0.06927095554220866
% es.Ez (V/m) @ t=0.22
-0.46194205619364825
% es.tEx (V/m) @ t=0.22
0.4626163200456248
% es.tEy (V/m) @ t=0.22
0
% es.tEz (V/m) @ t=0.22
-0.4619420561936427
% V (V) @ t=0.22
0.0071321318345351015
% es.normE (V/m) @ t=0.24
0.6721088138774142
% es.EX (V/m) @ t=0.24
0.46685176542276896
% es.EY (V/m) @ t=0.24
0.0699051639217072
% es.EZ (V/m) @ t=0.24
-0.46617132917121684
% es.tEX (V/m) @ t=0.24
0.4668517654227693
% es.tEY (V/m) @ t=0.24
0
% es.tEZ (V/m) @ t=0.24
-0.4661713291712113
% es.Ex (V/m) @ t=0.24
0.46685176542276896
% es.Ey (V/m) @ t=0.24
0.0699051639217072
% es.Ez (V/m) @ t=0.24
-0.46617132917121684
% es.tEx (V/m) @ t=0.24
0.4668517654227693
% es.tEy (V/m) @ t=0.24
0
% es.tEz (V/m) @ t=0.24
-0.4661713291712113
% V (V) @ t=0.24
0.007197429107770848
% es.normE (V/m) @ t=0.26
0.6782064258323861
% es.EX (V/m) @ t=0.26
0.47108721079991633
% es.EY (V/m) @ t=0.26
0.07053937230120691
% es.EZ (V/m) @ t=0.26
-0.470400602148789
% es.tEX (V/m) @ t=0.26
0.47108721079991733
% es.tEY (V/m) @ t=0.26
0
% es.tEZ (V/m) @ t=0.26
-0.47040060214878343
% es.Ex (V/m) @ t=0.26
0.47108721079991633
% es.Ey (V/m) @ t=0.26
0.07053937230120691
% es.Ez (V/m) @ t=0.26
-0.470400602148789
% es.tEx (V/m) @ t=0.26
0.47108721079991733
% es.tEy (V/m) @ t=0.26
0
% es.tEz (V/m) @ t=0.26
-0.47040060214878343
% V (V) @ t=0.26
0.007262726381006596
% es.normE (V/m) @ t=0.28
0.6844751533432394
% es.EX (V/m) @ t=0.28
0.4754415299089211
% es.EY (V/m) @ t=0.28
0.07119132485062851
% es.EZ (V/m) @ t=0.28
-0.4747485651041614
% es.tEX (V/m) @ t=0.28
0.4754415299089243
% es.tEY (V/m) @ t=0.28
0
% es.tEZ (V/m) @ t=0.28
-0.47474856510415586
% es.Ex (V/m) @ t=0.28
0.4754415299089211
% es.Ey (V/m) @ t=0.28
0.07119132485062851
% es.Ez (V/m) @ t=0.28
-0.4747485651041614
% es.tEx (V/m) @ t=0.28
0.4754415299089243
% es.tEy (V/m) @ t=0.28
0
% es.tEz (V/m) @ t=0.28
-0.47474856510415586
% V (V) @ t=0.28
0.007329861573614509
% es.normE (V/m) @ t=0.3
0.6912770353710027
% es.EX (V/m) @ t=0.3
0.4801662306979878
% es.EY (V/m) @ t=0.3
0.0718985639243927
% es.EZ (V/m) @ t=0.3
-0.47946633720654774
% es.tEX (V/m) @ t=0.3
0.48016623069799014
% es.tEY (V/m) @ t=0.3
0
% es.tEZ (V/m) @ t=0.3
-0.47946633720653864
% es.Ex (V/m) @ t=0.3
0.4801662306979878
% es.Ey (V/m) @ t=0.3
0.0718985639243927
% es.Ez (V/m) @ t=0.3
-0.47946633720654774
% es.tEx (V/m) @ t=0.3
0.48016623069799014
% es.tEy (V/m) @ t=0.3
0
% es.tEz (V/m) @ t=0.3
-0.47946633720653864
% V (V) @ t=0.3
0.007402723276648581
% es.normE (V/m) @ t=0.32
0.6980789173989062
% es.EX (V/m) @ t=0.32
0.4848909314870554
% es.EY (V/m) @ t=0.32
0.07260580299815603
% es.EZ (V/m) @ t=0.32
-0.48418410930894074
% es.tEX (V/m) @ t=0.32
0.48489093148705775
% es.tEY (V/m) @ t=0.32
0
% es.tEZ (V/m) @ t=0.32
-0.48418410930893163
% es.Ex (V/m) @ t=0.32
0.4848909314870554
% es.Ey (V/m) @ t=0.32
0.07260580299815603
% es.Ez (V/m) @ t=0.32
-0.48418410930894074
% es.tEx (V/m) @ t=0.32
0.48489093148705775
% es.tEy (V/m) @ t=0.32
0
% es.tEz (V/m) @ t=0.32
-0.48418410930893163
% V (V) @ t=0.32
0.0074755849796826505
% es.normE (V/m) @ t=0.34
0.7048807994269424
% es.EX (V/m) @ t=0.34
0.48961563227612526
% es.EY (V/m) @ t=0.34
0.07331304207191625
% es.EZ (V/m) @ t=0.34
-0.4889018814113284
% es.tEX (V/m) @ t=0.34
0.4896156322761267
% es.tEY (V/m) @ t=0.34
0
% es.tEZ (V/m) @ t=0.34
-0.48890188141132107
% es.Ex (V/m) @ t=0.34
0.48961563227612526
% es.Ey (V/m) @ t=0.34
0.07331304207191625
% es.Ez (V/m) @ t=0.34
-0.4889018814113284
% es.tEx (V/m) @ t=0.34
0.4896156322761267
% es.tEy (V/m) @ t=0.34
0
% es.tEz (V/m) @ t=0.34
-0.48890188141132107
% V (V) @ t=0.34
0.007548446682716722
% es.normE (V/m) @ t=0.36
0.711682681455104
% es.EX (V/m) @ t=0.36
0.4943403330651953
% es.EY (V/m) @ t=0.36
0.07402028114567583
% es.EZ (V/m) @ t=0.36
-0.49361965351370984
% es.tEX (V/m) @ t=0.36
0.49434033306519765
% es.tEY (V/m) @ t=0.36
0
% es.tEZ (V/m) @ t=0.36
-0.49361965351370074
% es.Ex (V/m) @ t=0.36
0.4943403330651953
% es.Ey (V/m) @ t=0.36
0.07402028114567583
% es.Ez (V/m) @ t=0.36
-0.49361965351370984
% es.tEx (V/m) @ t=0.36
0.49434033306519765
% es.tEy (V/m) @ t=0.36
0
% es.tEz (V/m) @ t=0.36
-0.49361965351370074
% V (V) @ t=0.36
0.007621308385750792
% es.normE (V/m) @ t=0.38
0.7184845634833907
% es.EX (V/m) @ t=0.38
0.49906503385426204
% es.EY (V/m) @ t=0.38
0.07472752021944803
% es.EZ (V/m) @ t=0.38
-0.4983374256160904
% es.tEX (V/m) @ t=0.38
0.4990650338542648
% es.tEY (V/m) @ t=0.38
0
% es.tEZ (V/m) @ t=0.38
-0.4983374256160831
% es.Ex (V/m) @ t=0.38
0.49906503385426204
% es.Ey (V/m) @ t=0.38
0.07472752021944803
% es.Ez (V/m) @ t=0.38
-0.4983374256160904
% es.tEx (V/m) @ t=0.38
0.4990650338542648
% es.tEy (V/m) @ t=0.38
0
% es.tEz (V/m) @ t=0.38
-0.4983374256160831
% V (V) @ t=0.38
0.007694170088784862
% es.normE (V/m) @ t=0.4
0.7252864455118166
% es.EX (V/m) @ t=0.4
0.5037897346433368
% es.EY (V/m) @ t=0.4
0.07543475929320159
% es.EZ (V/m) @ t=0.4
-0.5030551977184892
% es.tEX (V/m) @ t=0.4
0.5037897346433395
% es.tEY (V/m) @ t=0.4
0
% es.tEZ (V/m) @ t=0.4
-0.5030551977184801
% es.Ex (V/m) @ t=0.4
0.5037897346433368
% es.Ey (V/m) @ t=0.4
0.07543475929320159
% es.Ez (V/m) @ t=0.4
-0.5030551977184892
% es.tEx (V/m) @ t=0.4
0.5037897346433395
% es.tEy (V/m) @ t=0.4
0
% es.tEz (V/m) @ t=0.4
-0.5030551977184801
% V (V) @ t=0.4
0.0077670317918189305
% es.normE (V/m) @ t=0.42
0.7320883275403497
% es.EX (V/m) @ t=0.42
0.5085144354324044
% es.EY (V/m) @ t=0.42
0.0761419983669688
% es.EZ (V/m) @ t=0.42
-0.5077729698208768
% es.tEX (V/m) @ t=0.42
0.5085144354324069
% es.tEY (V/m) @ t=0.42
0
% es.tEZ (V/m) @ t=0.42
-0.5077729698208695
% es.Ex (V/m) @ t=0.42
0.5085144354324044
% es.Ey (V/m) @ t=0.42
0.0761419983669688
% es.Ez (V/m) @ t=0.42
-0.5077729698208768
% es.tEx (V/m) @ t=0.42
0.5085144354324069
% es.tEy (V/m) @ t=0.42
0
% es.tEz (V/m) @ t=0.42
-0.5077729698208695
% V (V) @ t=0.42
0.007839893494853001
% es.normE (V/m) @ t=0.44
0.7388902095690003
% es.EX (V/m) @ t=0.44
0.5132391362214709
% es.EY (V/m) @ t=0.44
0.07684923744073727
% es.EZ (V/m) @ t=0.44
-0.5124907419232672
% es.tEX (V/m) @ t=0.44
0.5132391362214701
% es.tEY (V/m) @ t=0.44
0
% es.tEZ (V/m) @ t=0.44
-0.5124907419232563
% es.Ex (V/m) @ t=0.44
0.5132391362214709
% es.Ey (V/m) @ t=0.44
0.07684923744073727
% es.Ez (V/m) @ t=0.44
-0.5124907419232672
% es.tEx (V/m) @ t=0.44
0.5132391362214701
% es.tEy (V/m) @ t=0.44
0
% es.tEz (V/m) @ t=0.44
-0.5124907419232563
% V (V) @ t=0.44
0.00791275519788707
% es.normE (V/m) @ t=0.46
0.745692091597769
% es.EX (V/m) @ t=0.46
0.5179638370105423
% es.EY (V/m) @ t=0.46
0.07755647651449438
% es.EZ (V/m) @ t=0.46
-0.5172085140256601
% es.tEX (V/m) @ t=0.46
0.5179638370105468
% es.tEY (V/m) @ t=0.46
0
% es.tEZ (V/m) @ t=0.46
-0.5172085140256493
% es.Ex (V/m) @ t=0.46
0.5179638370105423
% es.Ey (V/m) @ t=0.46
0.07755647651449438
% es.Ez (V/m) @ t=0.46
-0.5172085140256601
% es.tEx (V/m) @ t=0.46
0.5179638370105468
% es.tEy (V/m) @ t=0.46
0
% es.tEz (V/m) @ t=0.46
-0.5172085140256493
% V (V) @ t=0.46
0.00798561690092114
% es.normE (V/m) @ t=0.48
0.7524939736266377
% es.EX (V/m) @ t=0.48
0.5226885377996099
% es.EY (V/m) @ t=0.48
0.07826371558825246
% es.EZ (V/m) @ t=0.48
-0.5219262861280389
% es.tEX (V/m) @ t=0.48
0.5226885377996104
% es.tEY (V/m) @ t=0.48
0
% es.tEZ (V/m) @ t=0.48
-0.521926286128028
% es.Ex (V/m) @ t=0.48
0.5226885377996099
% es.Ey (V/m) @ t=0.48
0.07826371558825246
% es.Ez (V/m) @ t=0.48
-0.5219262861280389
% es.tEx (V/m) @ t=0.48
0.5226885377996104
% es.tEy (V/m) @ t=0.48
0
% es.tEz (V/m) @ t=0.48
-0.521926286128028
% V (V) @ t=0.48
0.008058478603955211
% es.normE (V/m) @ t=0.5
0.7592958556556199
% es.EX (V/m) @ t=0.5
0.5274132385886828
% es.EY (V/m) @ t=0.5
0.07897095466201479
% es.EZ (V/m) @ t=0.5
-0.5266440582304248
% es.tEX (V/m) @ t=0.5
0.5274132385886852
% es.tEY (V/m) @ t=0.5
0
% es.tEZ (V/m) @ t=0.5
-0.5266440582304175
% es.Ex (V/m) @ t=0.5
0.5274132385886828
% es.Ey (V/m) @ t=0.5
0.07897095466201479
% es.Ez (V/m) @ t=0.5
-0.5266440582304248
% es.tEx (V/m) @ t=0.5
0.5274132385886852
% es.tEy (V/m) @ t=0.5
0
% es.tEz (V/m) @ t=0.5
-0.5266440582304175
% V (V) @ t=0.5
0.008131340306989282
% es.normE (V/m) @ t=0.52
0.7660977376846991
% es.EX (V/m) @ t=0.52
0.5321379393777504
% es.EY (V/m) @ t=0.52
0.07967819373577889
% es.EZ (V/m) @ t=0.52
-0.5313618303328076
% es.tEX (V/m) @ t=0.52
0.5321379393777528
% es.tEY (V/m) @ t=0.52
0
% es.tEZ (V/m) @ t=0.52
-0.5313618303327967
% es.Ex (V/m) @ t=0.52
0.5321379393777504
% es.Ey (V/m) @ t=0.52
0.07967819373577889
% es.Ez (V/m) @ t=0.52
-0.5313618303328076
% es.tEx (V/m) @ t=0.52
0.5321379393777528
% es.tEy (V/m) @ t=0.52
0
% es.tEz (V/m) @ t=0.52
-0.5313618303327967
% V (V) @ t=0.52
0.008204202010023351
% es.normE (V/m) @ t=0.54
0.7728996197138901
% es.EX (V/m) @ t=0.54
0.536862640166821
% es.EY (V/m) @ t=0.54
0.0803854328095441
% es.EZ (V/m) @ t=0.54
-0.5360796024352006
% es.tEX (V/m) @ t=0.54
0.5368626401668237
% es.tEY (V/m) @ t=0.54
0
% es.tEZ (V/m) @ t=0.54
-0.5360796024351933
% es.Ex (V/m) @ t=0.54
0.536862640166821
% es.Ey (V/m) @ t=0.54
0.0803854328095441
% es.Ez (V/m) @ t=0.54
-0.5360796024352006
% es.tEx (V/m) @ t=0.54
0.5368626401668237
% es.tEy (V/m) @ t=0.54
0
% es.tEz (V/m) @ t=0.54
-0.5360796024351933
% V (V) @ t=0.54
0.00827706371305742
% es.normE (V/m) @ t=0.56
0.7800970346529736
% es.EX (V/m) @ t=0.56
0.5418620398050268
% es.EY (V/m) @ t=0.56
0.08113395182644742
% es.EZ (V/m) @ t=0.56
-0.5410717007485986
% es.tEX (V/m) @ t=0.56
0.5418620398050293
% es.tEY (V/m) @ t=0.56
0
% es.tEZ (V/m) @ t=0.56
-0.5410717007485877
% es.Ex (V/m) @ t=0.56
0.5418620398050268
% es.Ey (V/m) @ t=0.56
0.08113395182644742
% es.Ez (V/m) @ t=0.56
-0.5410717007485986
% es.tEx (V/m) @ t=0.56
0.5418620398050293
% es.tEy (V/m) @ t=0.56
0
% es.tEz (V/m) @ t=0.56
-0.5410717007485877
% V (V) @ t=0.56
0.008354146551201572
% es.normE (V/m) @ t=0.58
0.7876963525852064
% es.EX (V/m) @ t=0.58
0.5471405623352438
% es.EY (V/m) @ t=0.58
0.08192441560266914
% es.EZ (V/m) @ t=0.58
-0.5463425433145306
% es.tEX (V/m) @ t=0.58
0.5471405623352461
% es.tEY (V/m) @ t=0.58
0
% es.tEZ (V/m) @ t=0.58
-0.5463425433145233
% es.Ex (V/m) @ t=0.58
0.5471405623352438
% es.Ey (V/m) @ t=0.58
0.08192441560266914
% es.Ez (V/m) @ t=0.58
-0.5463425433145306
% es.tEx (V/m) @ t=0.58
0.5471405623352461
% es.tEy (V/m) @ t=0.58
0
% es.tEz (V/m) @ t=0.58
-0.5463425433145233
% V (V) @ t=0.58
0.00843551850611196
% es.normE (V/m) @ t=0.6
0.7952956705174616
% es.EX (V/m) @ t=0.6
0.552419084865461
% es.EY (V/m) @ t=0.6
0.08271487937887884
% es.EZ (V/m) @ t=0.6
-0.5516133858804582
% es.tEX (V/m) @ t=0.6
0.5524190848654633
% es.tEY (V/m) @ t=0.6
0
% es.tEZ (V/m) @ t=0.6
-0.5516133858804473
% es.Ex (V/m) @ t=0.6
0.552419084865461
% es.Ey (V/m) @ t=0.6
0.08271487937887884
% es.Ez (V/m) @ t=0.6
-0.5516133858804582
% es.tEx (V/m) @ t=0.6
0.5524190848654633
% es.tEy (V/m) @ t=0.6
0
% es.tEz (V/m) @ t=0.6
-0.5516133858804473
% V (V) @ t=0.6
0.008516890461022348
% es.normE (V/m) @ t=0.62
0.8028949884497503
% es.EX (V/m) @ t=0.62
0.5576976073956837
% es.EY (V/m) @ t=0.62
0.08350534315510652
% es.EZ (V/m) @ t=0.62
-0.5568842284463966
% es.tEX (V/m) @ t=0.62
0.5576976073956845
% es.tEY (V/m) @ t=0.62
0
% es.tEZ (V/m) @ t=0.62
-0.556884228446382
% es.Ex (V/m) @ t=0.62
0.5576976073956837
% es.Ey (V/m) @ t=0.62
0.08350534315510652
% es.Ez (V/m) @ t=0.62
-0.5568842284463966
% es.tEx (V/m) @ t=0.62
0.5576976073956845
% es.tEy (V/m) @ t=0.62
0
% es.tEz (V/m) @ t=0.62
-0.556884228446382
% V (V) @ t=0.62
0.008598262415932737
% es.normE (V/m) @ t=0.64
0.81049430638205
% es.EX (V/m) @ t=0.64
0.5629761299259005
% es.EY (V/m) @ t=0.64
0.08429580693130925
% es.EZ (V/m) @ t=0.64
-0.5621550710123235
% es.tEX (V/m) @ t=0.64
0.5629761299259044
% es.tEY (V/m) @ t=0.64
0
% es.tEZ (V/m) @ t=0.64
-0.5621550710123091
% es.Ex (V/m) @ t=0.64
0.5629761299259005
% es.Ey (V/m) @ t=0.64
0.08429580693130925
% es.Ez (V/m) @ t=0.64
-0.5621550710123235
% es.tEx (V/m) @ t=0.64
0.5629761299259044
% es.tEy (V/m) @ t=0.64
0
% es.tEz (V/m) @ t=0.64
-0.5621550710123091
% V (V) @ t=0.64
0.008679634370843126
% es.normE (V/m) @ t=0.66
0.8180936243143704
% es.EX (V/m) @ t=0.66
0.56825465245612
% es.EY (V/m) @ t=0.66
0.08508627070754432
% es.EZ (V/m) @ t=0.66
-0.5674259135782413
% es.tEX (V/m) @ t=0.66
0.5682546524561203
% es.tEY (V/m) @ t=0.66
0
% es.tEZ (V/m) @ t=0.66
-0.5674259135782269
% es.Ex (V/m) @ t=0.66
0.56825465245612
% es.Ey (V/m) @ t=0.66
0.08508627070754432
% es.Ez (V/m) @ t=0.66
-0.5674259135782413
% es.tEx (V/m) @ t=0.66
0.5682546524561203
% es.tEy (V/m) @ t=0.66
0
% es.tEz (V/m) @ t=0.66
-0.5674259135782269
% V (V) @ t=0.66
0.008761006325753514
% es.normE (V/m) @ t=0.68
0.8256929422467199
% es.EX (V/m) @ t=0.68
0.5735331749863356
% es.EY (V/m) @ t=0.68
0.08587673448376731
% es.EZ (V/m) @ t=0.68
-0.572696756144176
% es.tEX (V/m) @ t=0.68
0.5735331749863379
% es.tEY (V/m) @ t=0.68
0
% es.tEZ (V/m) @ t=0.68
-0.5726967561441652
% es.Ex (V/m) @ t=0.68
0.5735331749863356
% es.Ey (V/m) @ t=0.68
0.08587673448376731
% es.Ez (V/m) @ t=0.68
-0.572696756144176
% es.tEx (V/m) @ t=0.68
0.5735331749863379
% es.tEy (V/m) @ t=0.68
0
% es.tEz (V/m) @ t=0.68
-0.5726967561441652
% V (V) @ t=0.68
0.008842378280663902
% es.normE (V/m) @ t=0.7
0.8332922601790942
% es.EX (V/m) @ t=0.7
0.5788116975165566
% es.EY (V/m) @ t=0.7
0.08666719825998612
% es.EZ (V/m) @ t=0.7
-0.5779675987101074
% es.tEX (V/m) @ t=0.7
0.5788116975165569
% es.tEY (V/m) @ t=0.7
0
% es.tEZ (V/m) @ t=0.7
-0.5779675987100892
% es.Ex (V/m) @ t=0.7
0.5788116975165566
% es.Ey (V/m) @ t=0.7
0.08666719825998612
% es.Ez (V/m) @ t=0.7
-0.5779675987101074
% es.tEx (V/m) @ t=0.7
0.5788116975165569
% es.tEy (V/m) @ t=0.7
0
% es.tEz (V/m) @ t=0.7
-0.5779675987100892
% V (V) @ t=0.7
0.00892375023557429
% es.normE (V/m) @ t=0.72
0.8408915781114906
% es.EX (V/m) @ t=0.72
0.5840902200467738
% es.EY (V/m) @ t=0.72
0.08745766203620378
% es.EZ (V/m) @ t=0.72
-0.5832384412760423
% es.tEX (V/m) @ t=0.72
0.5840902200467724
% es.tEY (V/m) @ t=0.72
0
% es.tEZ (V/m) @ t=0.72
-0.5832384412760279
% es.Ex (V/m) @ t=0.72
0.5840902200467738
% es.Ey (V/m) @ t=0.72
0.08745766203620378
% es.Ez (V/m) @ t=0.72
-0.5832384412760423
% es.tEx (V/m) @ t=0.72
0.5840902200467724
% es.tEy (V/m) @ t=0.72
0
% es.tEz (V/m) @ t=0.72
-0.5832384412760279
% V (V) @ t=0.72
0.009005122190484681
% es.normE (V/m) @ t=0.74
0.8484908960438984
% es.EX (V/m) @ t=0.74
0.5893687425769951
% es.EY (V/m) @ t=0.74
0.0882481258124222
% es.EZ (V/m) @ t=0.74
-0.5885092838419705
% es.tEX (V/m) @ t=0.74
0.5893687425769953
% es.tEY (V/m) @ t=0.74
0
% es.tEZ (V/m) @ t=0.74
-0.5885092838419594
% es.Ex (V/m) @ t=0.74
0.5893687425769951
% es.Ey (V/m) @ t=0.74
0.0882481258124222
% es.Ez (V/m) @ t=0.74
-0.5885092838419705
% es.tEx (V/m) @ t=0.74
0.5893687425769953
% es.tEy (V/m) @ t=0.74
0
% es.tEz (V/m) @ t=0.74
-0.5885092838419594
% V (V) @ t=0.74
0.009086494145395068
% es.normE (V/m) @ t=0.76
0.8560902139763322
% es.EX (V/m) @ t=0.76
0.5946472651072128
% es.EY (V/m) @ t=0.76
0.0890385895886352
% es.EZ (V/m) @ t=0.76
-0.5937801264079055
% es.tEX (V/m) @ t=0.76
0.5946472651072146
% es.tEY (V/m) @ t=0.76
0
% es.tEZ (V/m) @ t=0.76
-0.5937801264078981
% es.Ex (V/m) @ t=0.76
0.5946472651072128
% es.Ey (V/m) @ t=0.76
0.0890385895886352
% es.Ez (V/m) @ t=0.76
-0.5937801264079055
% es.tEx (V/m) @ t=0.76
0.5946472651072146
% es.tEy (V/m) @ t=0.76
0
% es.tEz (V/m) @ t=0.76
-0.5937801264078981
% V (V) @ t=0.76
0.009167866100305455
% es.normE (V/m) @ t=0.78
0.8636895319087785
% es.EX (V/m) @ t=0.78
0.5999257876374353
% es.EY (V/m) @ t=0.78
0.08982905336486355
% es.EZ (V/m) @ t=0.78
-0.5990509689738224
% es.tEX (V/m) @ t=0.78
0.5999257876374338
% es.tEY (V/m) @ t=0.78
0
% es.tEZ (V/m) @ t=0.78
-0.599050968973815
% es.Ex (V/m) @ t=0.78
0.5999257876374353
% es.Ey (V/m) @ t=0.78
0.08982905336486355
% es.Ez (V/m) @ t=0.78
-0.5990509689738224
% es.tEx (V/m) @ t=0.78
0.5999257876374338
% es.tEy (V/m) @ t=0.78
0
% es.tEz (V/m) @ t=0.78
-0.599050968973815
% V (V) @ t=0.78
0.009249238055215846
% es.normE (V/m) @ t=0.8
0.8712888498412416
% es.EX (V/m) @ t=0.8
0.6052043101676503
% es.EY (V/m) @ t=0.8
0.09061951714107142
% es.EZ (V/m) @ t=0.8
-0.6043218115397495
% es.tEX (V/m) @ t=0.8
0.6052043101676543
% es.tEY (V/m) @ t=0.8
0
% es.tEZ (V/m) @ t=0.8
-0.6043218115397386
% es.Ex (V/m) @ t=0.8
0.6052043101676503
% es.Ey (V/m) @ t=0.8
0.09061951714107142
% es.Ez (V/m) @ t=0.8
-0.6043218115397495
% es.tEx (V/m) @ t=0.8
0.6052043101676543
% es.tEy (V/m) @ t=0.8
0
% es.tEz (V/m) @ t=0.8
-0.6043218115397386
% V (V) @ t=0.8
0.009330610010126233
% es.normE (V/m) @ t=0.82
0.8788881677737292
% es.EX (V/m) @ t=0.82
0.6104828326978691
% es.EY (V/m) @ t=0.82
0.09140998091729247
% es.EZ (V/m) @ t=0.82
-0.6095926541056778
% es.tEX (V/m) @ t=0.82
0.6104828326978726
% es.tEY (V/m) @ t=0.82
0
% es.tEZ (V/m) @ t=0.82
-0.6095926541056702
% es.Ex (V/m) @ t=0.82
0.6104828326978691
% es.Ey (V/m) @ t=0.82
0.09140998091729247
% es.Ez (V/m) @ t=0.82
-0.6095926541056778
% es.tEx (V/m) @ t=0.82
0.6104828326978726
% es.tEy (V/m) @ t=0.82
0
% es.tEz (V/m) @ t=0.82
-0.6095926541056702
% V (V) @ t=0.82
0.009411981965036623
% es.normE (V/m) @ t=0.84
0.8871688061862366
% es.EX (V/m) @ t=0.84
0.616234691246276
% es.EY (V/m) @ t=0.84
0.09227101462389728
% es.EZ (V/m) @ t=0.84
-0.6153360851175114
% es.tEX (V/m) @ t=0.84
0.6162346912462762
% es.tEY (V/m) @ t=0.84
0
% es.tEZ (V/m) @ t=0.84
-0.6153360851174967
% es.Ex (V/m) @ t=0.84
0.616234691246276
% es.Ey (V/m) @ t=0.84
0.09227101462389728
% es.Ez (V/m) @ t=0.84
-0.6153360851175114
% es.tEx (V/m) @ t=0.84
0.6162346912462762
% es.tEy (V/m) @ t=0.84
0
% es.tEz (V/m) @ t=0.84
-0.6153360851174967
% V (V) @ t=0.84
0.009500680181257421
% es.normE (V/m) @ t=0.86
0.895677711898727
% es.EX (V/m) @ t=0.86
0.6221451346867237
% es.EY (V/m) @ t=0.86
0.09315569184031208
% es.EZ (V/m) @ t=0.86
-0.6212378505573073
% es.tEX (V/m) @ t=0.86
0.622145134686725
% es.tEY (V/m) @ t=0.86
0
% es.tEZ (V/m) @ t=0.86
-0.6212378505572964
% es.Ex (V/m) @ t=0.86
0.6221451346867237
% es.Ey (V/m) @ t=0.86
0.09315569184031208
% es.Ez (V/m) @ t=0.86
-0.6212378505573073
% es.tEx (V/m) @ t=0.86
0.622145134686725
% es.tEy (V/m) @ t=0.86
0
% es.tEz (V/m) @ t=0.86
-0.6212378505572964
% V (V) @ t=0.86
0.009591832963187106
% es.normE (V/m) @ t=0.88
0.904186617611432
% es.EX (V/m) @ t=0.88
0.6280555781271742
% es.EY (V/m) @ t=0.88
0.0940403690567464
% es.EZ (V/m) @ t=0.88
-0.6271396159970999
% es.tEX (V/m) @ t=0.88
0.6280555781271779
% es.tEY (V/m) @ t=0.88
0
% es.tEZ (V/m) @ t=0.88
-0.627139615997089
% es.Ex (V/m) @ t=0.88
0.6280555781271742
% es.Ey (V/m) @ t=0.88
0.0940403690567464
% es.Ez (V/m) @ t=0.88
-0.6271396159970999
% es.tEx (V/m) @ t=0.88
0.6280555781271779
% es.tEy (V/m) @ t=0.88
0
% es.tEz (V/m) @ t=0.88
-0.627139615997089
% V (V) @ t=0.88
0.009682985745116793
% es.normE (V/m) @ t=0.9
0.9126955233243421
% es.EX (V/m) @ t=0.9
0.633966021567619
% es.EY (V/m) @ t=0.9
0.09492504627314852
% es.EZ (V/m) @ t=0.9
-0.6330413814369069
% es.tEX (V/m) @ t=0.9
0.6339660215676228
% es.tEY (V/m) @ t=0.9
0
% es.tEZ (V/m) @ t=0.9
-0.6330413814368958
% es.Ex (V/m) @ t=0.9
0.633966021567619
% es.Ey (V/m) @ t=0.9
0.09492504627314852
% es.Ez (V/m) @ t=0.9
-0.6330413814369069
% es.tEx (V/m) @ t=0.9
0.6339660215676228
% es.tEy (V/m) @ t=0.9
0
% es.tEz (V/m) @ t=0.9
-0.6330413814368958
% V (V) @ t=0.9
0.009774138527046481
% es.normE (V/m) @ t=0.92
0.9212044290374428
% es.EX (V/m) @ t=0.92
0.6398764650080664
% es.EY (V/m) @ t=0.92
0.09580972348958267
% es.EZ (V/m) @ t=0.92
-0.6389431468767035
% es.tEX (V/m) @ t=0.92
0.6398764650080713
% es.tEY (V/m) @ t=0.92
0
% es.tEZ (V/m) @ t=0.92
-0.6389431468766888
% es.Ex (V/m) @ t=0.92
0.6398764650080664
% es.Ey (V/m) @ t=0.92
0.09580972348958267
% es.Ez (V/m) @ t=0.92
-0.6389431468767035
% es.tEx (V/m) @ t=0.92
0.6398764650080713
% es.tEy (V/m) @ t=0.92
0
% es.tEz (V/m) @ t=0.92
-0.6389431468766888
% V (V) @ t=0.92
0.009865291308976164
% es.normE (V/m) @ t=0.94
0.9297133347507305
% es.EX (V/m) @ t=0.94
0.645786908448519
% es.EY (V/m) @ t=0.94
0.09669440070598573
% es.EZ (V/m) @ t=0.94
-0.6448449123164859
% es.tEX (V/m) @ t=0.94
0.6457869084485246
% es.tEY (V/m) @ t=0.94
0
% es.tEZ (V/m) @ t=0.94
-0.6448449123164819
% es.Ex (V/m) @ t=0.94
0.645786908448519
% es.Ey (V/m) @ t=0.94
0.09669440070598573
% es.Ez (V/m) @ t=0.94
-0.6448449123164859
% es.tEx (V/m) @ t=0.94
0.6457869084485246
% es.tEy (V/m) @ t=0.94
0
% es.tEz (V/m) @ t=0.94
-0.6448449123164819
% V (V) @ t=0.94
0.009956444090905852
% es.normE (V/m) @ t=0.96
0.9382222404642093
% es.EX (V/m) @ t=0.96
0.6516973518889648
% es.EY (V/m) @ t=0.96
0.09757907792240783
% es.EZ (V/m) @ t=0.96
-0.6507466777562818
% es.tEX (V/m) @ t=0.96
0.6516973518889699
% es.tEY (V/m) @ t=0.96
0
% es.tEZ (V/m) @ t=0.96
-0.6507466777562745
% es.Ex (V/m) @ t=0.96
0.6516973518889648
% es.Ey (V/m) @ t=0.96
0.09757907792240783
% es.Ez (V/m) @ t=0.96
-0.6507466777562818
% es.tEx (V/m) @ t=0.96
0.6516973518889699
% es.tEy (V/m) @ t=0.96
0
% es.tEz (V/m) @ t=0.96
-0.6507466777562745
% V (V) @ t=0.96
0.010047596872835535
% es.normE (V/m) @ t=0.98
0.946731146177884
% es.EX (V/m) @ t=0.98
0.6576077953294153
% es.EY (V/m) @ t=0.98
0.09846375513881978
% es.EZ (V/m) @ t=0.98
-0.6566484431960926
% es.tEX (V/m) @ t=0.98
0.6576077953294148
% es.tEY (V/m) @ t=0.98
0
% es.tEZ (V/m) @ t=0.98
-0.6566484431960817
% es.Ex (V/m) @ t=0.98
0.6576077953294153
% es.Ey (V/m) @ t=0.98
0.09846375513881978
% es.Ez (V/m) @ t=0.98
-0.6566484431960926
% es.tEx (V/m) @ t=0.98
0.6576077953294148
% es.tEy (V/m) @ t=0.98
0
% es.tEz (V/m) @ t=0.98
-0.6566484431960817
% V (V) @ t=0.98
0.010138749654765222
% es.normE (V/m) @ t=1
0.9552400518917176
% es.EX (V/m) @ t=1
0.6635182387698637
% es.EY (V/m) @ t=1
0.09934843235525037
% es.EZ (V/m) @ t=1
-0.6625502086358821
% es.tEX (V/m) @ t=1
0.6635182387698668
% es.tEY (V/m) @ t=1
0
% es.tEZ (V/m) @ t=1
-0.6625502086358677
% es.Ex (V/m) @ t=1
0.6635182387698637
% es.Ey (V/m) @ t=1
0.09934843235525037
% es.Ez (V/m) @ t=1
-0.6625502086358821
% es.tEx (V/m) @ t=1
0.6635182387698668
% es.tEy (V/m) @ t=1
0
% es.tEz (V/m) @ t=1
-0.6625502086358677
% V (V) @ t=1
0.010229902436694908
% es.normE (V/m) @ t=1.02
0.9637489576057253
% es.EX (V/m) @ t=1.02
0.6694286822103124
% es.EY (V/m) @ t=1.02
0.10023310957165255
% es.EZ (V/m) @ t=1.02
-0.6684519740756716
% es.tEX (V/m) @ t=1.02
0.6694286822103157
% es.tEY (V/m) @ t=1.02
0
% es.tEZ (V/m) @ t=1.02
-0.6684519740756678
% es.Ex (V/m) @ t=1.02
0.6694286822103124
% es.Ey (V/m) @ t=1.02
0.10023310957165255
% es.Ez (V/m) @ t=1.02
-0.6684519740756716
% es.tEx (V/m) @ t=1.02
0.6694286822103157
% es.tEy (V/m) @ t=1.02
0
% es.tEz (V/m) @ t=1.02
-0.6684519740756678
% V (V) @ t=1.02
0.010321055218624595
% es.normE (V/m) @ t=1.04
0.972257863319913
% es.EX (V/m) @ t=1.04