% Model:              1 neuron.mph
% Version:            COMSOL 6.0.0.405
% Date:               Mar 9 2023, 13:17
% Dimension:          0
% Nodes:              14017
% Expressions:        14017
% Description:        Electric field norm, Electric field, X component, Electric field, Y component, Electric field, Z component, Tangential electric field, X component, Tangential electric field, Y component, Tangential electric field, Z component, Electric field, x component, Electric field, y component, Electric field, z component, Tangential electric field, x component, Tangential electric field, y component, Tangential electric field, z component, Electric potential
% Length unit:        mm
% x
2
% y
12.2
% z
1.33
% es.normE (V/m) @ t=0
1.323666873421022
% es.EX (V/m) @ t=0
-1.2174780614880927
% es.EY (V/m) @ t=0
0.09497147774292308
% es.EZ (V/m) @ t=0
0.5091742946932334
% es.tEX (V/m) @ t=0
-1.2174780614880891
% es.tEY (V/m) @ t=0
0
% es.tEZ (V/m) @ t=0
0.5091742946932314
% es.Ex (V/m) @ t=0
-1.2174780614880927
% es.Ey (V/m) @ t=0
0.09497147774292308
% es.Ez (V/m) @ t=0
0.5091742946932334
% es.tEx (V/m) @ t=0
-1.2174780614880891
% es.tEy (V/m) @ t=0
0
% es.tEz (V/m) @ t=0
0.5091742946932314
% V (V) @ t=0
0.007390301235975004
% es.normE (V/m) @ t=0.02
1.143273957782413
% es.EX (V/m) @ t=0.02
-1.0515568450872714
% es.EY (V/m) @ t=0.02
0.0820285077493566
% es.EZ (V/m) @ t=0.02
0.4397826400048636
% es.tEX (V/m) @ t=0.02
-1.0515568450872665
% es.tEY (V/m) @ t=0.02
0
% es.tEZ (V/m) @ t=0.02
0.43978264000486433
% es.Ex (V/m) @ t=0.02
-1.0515568450872714
% es.Ey (V/m) @ t=0.02
0.0820285077493566
% es.Ez (V/m) @ t=0.02
0.4397826400048636
% es.tEx (V/m) @ t=0.02
-1.0515568450872665
% es.tEy (V/m) @ t=0.02
0
% es.tEz (V/m) @ t=0.02
0.43978264000486433
% V (V) @ t=0.02
0.006383130805130924
% es.normE (V/m) @ t=0.04
1.1537871974413143
% es.EX (V/m) @ t=0.04
-1.0612266785742386
% es.EY (V/m) @ t=0.04
0.08278282053712943
% es.EZ (V/m) @ t=0.04
0.4438267633547302
% es.tEX (V/m) @ t=0.04
-1.0612266785742346
% es.tEY (V/m) @ t=0.04
0
% es.tEZ (V/m) @ t=0.04
0.44382676335472837
% es.Ex (V/m) @ t=0.04
-1.0612266785742386
% es.Ey (V/m) @ t=0.04
0.08278282053712943
% es.Ez (V/m) @ t=0.04
0.4438267633547302
% es.tEx (V/m) @ t=0.04
-1.0612266785742346
% es.tEy (V/m) @ t=0.04
0
% es.tEz (V/m) @ t=0.04
0.44382676335472837
% V (V) @ t=0.04
0.0064418282693682865
% es.normE (V/m) @ t=0.06
1.1643949999800514
% es.EX (V/m) @ t=0.06
-1.0709834891651184
% es.EY (V/m) @ t=0.06
0.08354391719499193
% es.EZ (V/m) @ t=0.06
0.4479072614780672
% es.tEX (V/m) @ t=0.06
-1.0709834891651147
% es.tEY (V/m) @ t=0.06
0
% es.tEZ (V/m) @ t=0.06
0.4479072614780648
% es.Ex (V/m) @ t=0.06
-1.0709834891651184
% es.Ey (V/m) @ t=0.06
0.08354391719499193
% es.Ez (V/m) @ t=0.06
0.4479072614780672
% es.tEx (V/m) @ t=0.06
-1.0709834891651147
% es.tEy (V/m) @ t=0.06
0
% es.tEz (V/m) @ t=0.06
0.4479072614780648
% V (V) @ t=0.06
0.006501053810852523
% es.normE (V/m) @ t=0.08
1.1751652069111014
% es.EX (V/m) @ t=0.08
-1.0808896755884918
% es.EY (V/m) @ t=0.08
0.08431666607730398
% es.EZ (V/m) @ t=0.08
0.45205023153651697
% es.tEX (V/m) @ t=0.08
-1.0808896755884891
% es.tEY (V/m) @ t=0.08
0
% es.tEZ (V/m) @ t=0.08
0.4520502315365178
% es.Ex (V/m) @ t=0.08
-1.0808896755884918
% es.Ey (V/m) @ t=0.08
0.08431666607730398
% es.Ez (V/m) @ t=0.08
0.45205023153651697
% es.tEx (V/m) @ t=0.08
-1.0808896755884891
% es.tEy (V/m) @ t=0.08
0
% es.tEz (V/m) @ t=0.08
0.4520502315365178
% V (V) @ t=0.08
0.006561186100907445
% es.normE (V/m) @ t=0.1
1.1860472609500123
% es.EX (V/m) @ t=0.1
-1.0908987364145255
% es.EY (V/m) @ t=0.1
0.0850974397894162
% es.EZ (V/m) @ t=0.1
0.45623622571005346
% es.tEX (V/m) @ t=0.1
-1.0908987364145197
% es.tEY (V/m) @ t=0.1
0
% es.tEZ (V/m) @ t=0.1
0.4562362257100503
% es.Ex (V/m) @ t=0.1
-1.0908987364145255
% es.Ey (V/m) @ t=0.1
0.0850974397894162
% es.Ez (V/m) @ t=0.1
0.45623622571005346
% es.tEx (V/m) @ t=0.1
-1.0908987364145197
% es.tEy (V/m) @ t=0.1
0
% es.tEz (V/m) @ t=0.1
0.4562362257100503
% V (V) @ t=0.1
0.0066219428642523516
% es.normE (V/m) @ t=0.12
1.1969293149889162
% es.EX (V/m) @ t=0.12
-1.1009077972405525
% es.EY (V/m) @ t=0.12
0.08587821350153191
% es.EZ (V/m) @ t=0.12
0.4604222198835837
% es.tEX (V/m) @ t=0.12
-1.1009077972405477
% es.tEY (V/m) @ t=0.12
0
% es.tEZ (V/m) @ t=0.12
0.4604222198835828
% es.Ex (V/m) @ t=0.12
-1.1009077972405525
% es.Ey (V/m) @ t=0.12
0.08587821350153191
% es.Ez (V/m) @ t=0.12
0.4604222198835837
% es.tEx (V/m) @ t=0.12
-1.1009077972405477
% es.tEy (V/m) @ t=0.12
0
% es.tEz (V/m) @ t=0.12
0.4604222198835828
% V (V) @ t=0.12
0.006682699627597259
% es.normE (V/m) @ t=0.14
1.2079241150734696
% es.EX (V/m) @ t=0.14
-1.1110205594188836
% es.EY (V/m) @ t=0.14
0.08666707621998676
% es.EZ (V/m) @ t=0.14
0.4646515837265938
% es.tEX (V/m) @ t=0.14
-1.1110205594188773
% es.tEY (V/m) @ t=0.14
0
% es.tEZ (V/m) @ t=0.14
0.4646515837265959
% es.Ex (V/m) @ t=0.14
-1.1110205594188836
% es.Ey (V/m) @ t=0.14
0.08666707621998676
% es.Ez (V/m) @ t=0.14
0.4646515837265938
% es.tEx (V/m) @ t=0.14
-1.1110205594188773
% es.tEy (V/m) @ t=0.14
0
% es.tEz (V/m) @ t=0.14
0.4646515837265959
% V (V) @ t=0.14
0.006744085923099627
% es.normE (V/m) @ t=0.16
1.2193864335955733
% es.EX (V/m) @ t=0.16
-1.1215633348533105
% es.EY (V/m) @ t=0.16
0.08748948121992572
% es.EZ (V/m) @ t=0.16
0.4690607864277489
% es.tEX (V/m) @ t=0.16
-1.121563334853307
% es.tEY (V/m) @ t=0.16
0
% es.tEZ (V/m) @ t=0.16
0.4690607864277503
% es.Ex (V/m) @ t=0.16
-1.1215633348533105
% es.Ey (V/m) @ t=0.16
0.08748948121992572
% es.Ez (V/m) @ t=0.16
0.4690607864277489
% es.tEx (V/m) @ t=0.16
-1.121563334853307
% es.tEy (V/m) @ t=0.16
0
% es.tEz (V/m) @ t=0.16
0.4690607864277503
% V (V) @ t=0.16
0.00680808266838697
% es.normE (V/m) @ t=0.18
1.2308487521176725
% es.EX (V/m) @ t=0.18
-1.1321061102877308
% es.EY (V/m) @ t=0.18
0.08831188621987623
% es.EZ (V/m) @ t=0.18
0.47346998912890836
% es.tEX (V/m) @ t=0.18
-1.1321061102877277
% es.tEY (V/m) @ t=0.18
0
% es.tEZ (V/m) @ t=0.18
0.47346998912890825
% es.Ex (V/m) @ t=0.18
-1.1321061102877308
% es.Ey (V/m) @ t=0.18
0.08831188621987623
% es.Ez (V/m) @ t=0.18
0.47346998912890836
% es.tEx (V/m) @ t=0.18
-1.1321061102877277
% es.tEy (V/m) @ t=0.18
0
% es.tEz (V/m) @ t=0.18
0.47346998912890825
% V (V) @ t=0.18
0.006872079413674316
% es.normE (V/m) @ t=0.2
1.2423110706397695
% es.EX (V/m) @ t=0.2
-1.1426488857221524
% es.EY (V/m) @ t=0.2
0.08913429121981253
% es.EZ (V/m) @ t=0.2
0.4778791918300607
% es.tEX (V/m) @ t=0.2
-1.142648885722151
% es.tEY (V/m) @ t=0.2
0
% es.tEZ (V/m) @ t=0.2
0.47787919183006267
% es.Ex (V/m) @ t=0.2
-1.1426488857221524
% es.Ey (V/m) @ t=0.2
0.08913429121981253
% es.Ez (V/m) @ t=0.2
0.4778791918300607
% es.tEx (V/m) @ t=0.2
-1.142648885722151
% es.tEy (V/m) @ t=0.2
0
% es.tEz (V/m) @ t=0.2
0.47787919183006267
% V (V) @ t=0.2
0.00693607615896166
% es.normE (V/m) @ t=0.22
1.2537733891618714
% es.EX (V/m) @ t=0.22
-1.1531916611565758
% es.EY (V/m) @ t=0.22
0.08995669621975416
% es.EZ (V/m) @ t=0.22
0.48228839453122024
% es.tEX (V/m) @ t=0.22
-1.1531916611565682
% es.tEY (V/m) @ t=0.22
0
% es.tEZ (V/m) @ t=0.22
0.48228839453122063
% es.Ex (V/m) @ t=0.22
-1.1531916611565758
% es.Ey (V/m) @ t=0.22
0.08995669621975416
% es.Ez (V/m) @ t=0.22
0.48228839453122024
% es.tEx (V/m) @ t=0.22
-1.1531916611565682
% es.tEy (V/m) @ t=0.22
0
% es.tEz (V/m) @ t=0.22
0.48228839453122063
% V (V) @ t=0.22
0.007000072904249003
% es.normE (V/m) @ t=0.24
1.2652357076839698
% es.EX (V/m) @ t=0.24
-1.1637344365909978
% es.EY (V/m) @ t=0.24
0.09077910121970562
% es.EZ (V/m) @ t=0.24
0.48669759723237255
% es.tEX (V/m) @ t=0.24
-1.1637344365909899
% es.tEY (V/m) @ t=0.24
0
% es.tEZ (V/m) @ t=0.24
0.4866975972323715
% es.Ex (V/m) @ t=0.24
-1.1637344365909978
% es.Ey (V/m) @ t=0.24
0.09077910121970562
% es.Ez (V/m) @ t=0.24
0.48669759723237255
% es.tEx (V/m) @ t=0.24
-1.1637344365909899
% es.tEy (V/m) @ t=0.24
0
% es.tEz (V/m) @ t=0.24
0.4866975972323715
% V (V) @ t=0.24
0.007064069649536348
% es.normE (V/m) @ t=0.26
1.276698026206074
% es.EX (V/m) @ t=0.26
-1.174277212025423
% es.EY (V/m) @ t=0.26
0.09160150621964014
% es.EZ (V/m) @ t=0.26
0.4911067999335355
% es.tEX (V/m) @ t=0.26
-1.174277212025416
% es.tEY (V/m) @ t=0.26
0
% es.tEZ (V/m) @ t=0.26
0.49110679993353656
% es.Ex (V/m) @ t=0.26
-1.174277212025423
% es.Ey (V/m) @ t=0.26
0.09160150621964014
% es.Ez (V/m) @ t=0.26
0.4911067999335355
% es.tEx (V/m) @ t=0.26
-1.174277212025416
% es.tEy (V/m) @ t=0.26
0
% es.tEz (V/m) @ t=0.26
0.49110679993353656
% V (V) @ t=0.26
0.007128066394823693
% es.normE (V/m) @ t=0.28
1.2886807093811794
% es.EX (V/m) @ t=0.28
-1.1852986193709358
% es.EY (V/m) @ t=0.28
0.09246121570509808
% es.EZ (V/m) @ t=0.28
0.4957161472456107
% es.tEX (V/m) @ t=0.28
-1.1852986193709318
% es.tEY (V/m) @ t=0.28
0
% es.tEZ (V/m) @ t=0.28
0.4957161472456093
% es.Ex (V/m) @ t=0.28
-1.1852986193709358
% es.Ey (V/m) @ t=0.28
0.09246121570509808
% es.Ez (V/m) @ t=0.28
0.4957161472456107
% es.tEx (V/m) @ t=0.28
-1.1852986193709318
% es.tEy (V/m) @ t=0.28
0
% es.tEz (V/m) @ t=0.28
0.4957161472456093
% V (V) @ t=0.28
0.007194972305260288
% es.normE (V/m) @ t=0.3
1.3014486496761455
% es.EX (V/m) @ t=0.3
-1.197042306974728
% es.EY (V/m) @ t=0.3
0.09337721958464784
% es.EZ (V/m) @ t=0.3
0.500627523105978
% es.tEX (V/m) @ t=0.3
-1.1970423069747254
% es.tEY (V/m) @ t=0.3
0
% es.tEZ (V/m) @ t=0.3
0.500627523105976
% es.Ex (V/m) @ t=0.3
-1.197042306974728
% es.Ey (V/m) @ t=0.3
0.09337721958464784
% es.Ez (V/m) @ t=0.3
0.500627523105978
% es.tEx (V/m) @ t=0.3
-1.1970423069747254
% es.tEy (V/m) @ t=0.3
0
% es.tEz (V/m) @ t=0.3
0.500627523105976
% V (V) @ t=0.3
0.0072662682960626356
% es.normE (V/m) @ t=0.32
1.314216589971113
% es.EX (V/m) @ t=0.32
-1.2087859945785144
% es.EY (V/m) @ t=0.32
0.09429322346419938
% es.EZ (V/m) @ t=0.32
0.5055388989663399
% es.tEX (V/m) @ t=0.32
-1.2087859945785109
% es.tEY (V/m) @ t=0.32
0
% es.tEZ (V/m) @ t=0.32
0.5055388989663427
% es.Ex (V/m) @ t=0.32
-1.2087859945785144
% es.Ey (V/m) @ t=0.32
0.09429322346419938
% es.Ez (V/m) @ t=0.32
0.5055388989663399
% es.tEx (V/m) @ t=0.32
-1.2087859945785109
% es.tEy (V/m) @ t=0.32
0
% es.tEz (V/m) @ t=0.32
0.5055388989663427
% V (V) @ t=0.32
0.007337564286864983
% es.normE (V/m) @ t=0.34
1.3269845302660879
% es.EX (V/m) @ t=0.34
-1.2205296821823008
% es.EY (V/m) @ t=0.34
0.09520922734374021
% es.EZ (V/m) @ t=0.34
0.5104502748267017
% es.tEX (V/m) @ t=0.34
-1.2205296821822955
% es.tEY (V/m) @ t=0.34
0
% es.tEZ (V/m) @ t=0.34
0.5104502748267024
% es.Ex (V/m) @ t=0.34
-1.2205296821823008
% es.Ey (V/m) @ t=0.34
0.09520922734374021
% es.Ez (V/m) @ t=0.34
0.5104502748267017
% es.tEx (V/m) @ t=0.34
-1.2205296821822955
% es.tEy (V/m) @ t=0.34
0
% es.tEz (V/m) @ t=0.34
0.5104502748267024
% V (V) @ t=0.34
0.007408860277667332
% es.normE (V/m) @ t=0.36
1.3397524705610653
% es.EX (V/m) @ t=0.36
-1.232273369786082
% es.EY (V/m) @ t=0.36
0.09612523122329086
% es.EZ (V/m) @ t=0.36
0.51536165068706
% es.tEX (V/m) @ t=0.36
-1.232273369786074
% es.tEY (V/m) @ t=0.36
0
% es.tEZ (V/m) @ t=0.36
0.5153616506870549
% es.Ex (V/m) @ t=0.36
-1.232273369786082
% es.Ey (V/m) @ t=0.36
0.09612523122329086
% es.Ez (V/m) @ t=0.36
0.51536165068706
% es.tEx (V/m) @ t=0.36
-1.232273369786074
% es.tEy (V/m) @ t=0.36
0
% es.tEz (V/m) @ t=0.36
0.5153616506870549
% V (V) @ t=0.36
0.007480156268469679
% es.normE (V/m) @ t=0.38
1.3525204108560613
% es.EX (V/m) @ t=0.38
-1.2440170573898732
% es.EY (V/m) @ t=0.38
0.09704123510283891
% es.EZ (V/m) @ t=0.38
0.5202730265474218
% es.tEX (V/m) @ t=0.38
-1.2440170573898648
% es.tEY (V/m) @ t=0.38
0
% es.tEZ (V/m) @ t=0.38
0.5202730265474216
% es.Ex (V/m) @ t=0.38
-1.2440170573898732
% es.Ey (V/m) @ t=0.38
0.09704123510283891
% es.Ez (V/m) @ t=0.38
0.5202730265474218
% es.tEx (V/m) @ t=0.38
-1.2440170573898648
% es.tEy (V/m) @ t=0.38
0
% es.tEz (V/m) @ t=0.38
0.5202730265474216
% V (V) @ t=0.38
0.007551452259272027
% es.normE (V/m) @ t=0.4
1.3652883511510612
% es.EX (V/m) @ t=0.4
-1.25576074499366
% es.EY (V/m) @ t=0.4
0.0979572389823904
% es.EZ (V/m) @ t=0.4
0.5251844024077839
% es.tEX (V/m) @ t=0.4
-1.2557607449936539
% es.tEY (V/m) @ t=0.4
0
% es.tEZ (V/m) @ t=0.4
0.5251844024077847
% es.Ex (V/m) @ t=0.4
-1.25576074499366
% es.Ey (V/m) @ t=0.4
0.0979572389823904
% es.Ez (V/m) @ t=0.4
0.5251844024077839
% es.tEx (V/m) @ t=0.4
-1.2557607449936539
% es.tEy (V/m) @ t=0.4
0
% es.tEz (V/m) @ t=0.4
0.5251844024077847
% V (V) @ t=0.4
0.007622748250074374
% es.normE (V/m) @ t=0.42
1.3780562914460668
% es.EX (V/m) @ t=0.42
-1.267504432597446
% es.EY (V/m) @ t=0.42
0.09887324286193572
% es.EZ (V/m) @ t=0.42
0.5300957782681439
% es.tEX (V/m) @ t=0.42
-1.267504432597443
% es.tEY (V/m) @ t=0.42
0
% es.tEZ (V/m) @ t=0.42
0.5300957782681408
% es.Ex (V/m) @ t=0.42
-1.267504432597446
% es.Ey (V/m) @ t=0.42
0.09887324286193572
% es.Ez (V/m) @ t=0.42
0.5300957782681439
% es.tEx (V/m) @ t=0.42
-1.267504432597443
% es.tEy (V/m) @ t=0.42
0
% es.tEz (V/m) @ t=0.42
0.5300957782681408
% V (V) @ t=0.42
0.007694044240876723
% es.normE (V/m) @ t=0.44
1.3908242317410853
% es.EX (V/m) @ t=0.44
-1.2792481202012351
% es.EY (V/m) @ t=0.44
0.09978924674148809
% es.EZ (V/m) @ t=0.44
0.5350071541285113
% es.tEX (V/m) @ t=0.44
-1.2792481202012276
% es.tEY (V/m) @ t=0.44
0
% es.tEZ (V/m) @ t=0.44
0.5350071541285111
% es.Ex (V/m) @ t=0.44
-1.2792481202012351
% es.Ey (V/m) @ t=0.44
0.09978924674148809
% es.Ez (V/m) @ t=0.44
0.5350071541285113
% es.tEx (V/m) @ t=0.44
-1.2792481202012276
% es.tEy (V/m) @ t=0.44
0
% es.tEz (V/m) @ t=0.44
0.5350071541285111
% V (V) @ t=0.44
0.00776534023167907
% es.normE (V/m) @ t=0.46
1.4035921720361124
% es.EX (V/m) @ t=0.46
-1.2909918078050264
% es.EY (V/m) @ t=0.46
0.10070525062103158
% es.EZ (V/m) @ t=0.46
0.5399185299888785
% es.tEX (V/m) @ t=0.46
-1.290991807805021
% es.tEY (V/m) @ t=0.46
0
% es.tEZ (V/m) @ t=0.46
0.5399185299888778
% es.Ex (V/m) @ t=0.46
-1.2909918078050264
% es.Ey (V/m) @ t=0.46
0.10070525062103158
% es.Ez (V/m) @ t=0.46
0.5399185299888785
% es.tEx (V/m) @ t=0.46
-1.290991807805021
% es.tEy (V/m) @ t=0.46
0
% es.tEz (V/m) @ t=0.46
0.5399185299888778
% V (V) @ t=0.46
0.007836636222481418
% es.normE (V/m) @ t=0.48
1.4163601123311302
% es.EX (V/m) @ t=0.48
-1.3027354954088035
% es.EY (V/m) @ t=0.48
0.10162125450058407
% es.EZ (V/m) @ t=0.48
0.5448299058492359
% es.tEX (V/m) @ t=0.48
-1.3027354954087995
% es.tEY (V/m) @ t=0.48
0
% es.tEZ (V/m) @ t=0.48
0.5448299058492339
% es.Ex (V/m) @ t=0.48
-1.3027354954088035
% es.Ey (V/m) @ t=0.48
0.10162125450058407
% es.Ez (V/m) @ t=0.48
0.5448299058492359
% es.tEx (V/m) @ t=0.48
-1.3027354954087995
% es.tEy (V/m) @ t=0.48
0
% es.tEz (V/m) @ t=0.48
0.5448299058492339
% V (V) @ t=0.48
0.007907932213283765
% es.normE (V/m) @ t=0.5
1.4291280526261576
% es.EX (V/m) @ t=0.5
-1.3144791830125868
% es.EY (V/m) @ t=0.5
0.10253725838012401
% es.EZ (V/m) @ t=0.5
0.5497412817095888
% es.tEX (V/m) @ t=0.5
-1.3144791830125788
% es.tEY (V/m) @ t=0.5
0
% es.tEZ (V/m) @ t=0.5
0.5497412817095935
% es.Ex (V/m) @ t=0.5
-1.3144791830125868
% es.Ey (V/m) @ t=0.5
0.10253725838012401
% es.Ez (V/m) @ t=0.5
0.5497412817095888
% es.tEx (V/m) @ t=0.5
-1.3144791830125788
% es.tEy (V/m) @ t=0.5
0
% es.tEz (V/m) @ t=0.5
0.5497412817095935
% V (V) @ t=0.5
0.007979228204086112
% es.normE (V/m) @ t=0.52
1.4418959929212114
% es.EX (V/m) @ t=0.52
-1.3262228706163817
% es.EY (V/m) @ t=0.52
0.10345326225967649
% es.EZ (V/m) @ t=0.52
0.5546526575699631
% es.tEX (V/m) @ t=0.52
-1.3262228706163777
% es.tEY (V/m) @ t=0.52
0
% es.tEZ (V/m) @ t=0.52
0.5546526575699602
% es.Ex (V/m) @ t=0.52
-1.3262228706163817
% es.Ey (V/m) @ t=0.52
0.10345326225967649
% es.Ez (V/m) @ t=0.52
0.5546526575699631
% es.tEx (V/m) @ t=0.52
-1.3262228706163777
% es.tEy (V/m) @ t=0.52
0
% es.tEz (V/m) @ t=0.52
0.5546526575699602
% V (V) @ t=0.52
0.00805052419488846
% es.normE (V/m) @ t=0.54
1.45466393321625
% es.EX (V/m) @ t=0.54
-1.3379665582201627
% es.EY (V/m) @ t=0.54
0.10436926613921998
% es.EZ (V/m) @ t=0.54
0.5595640334303154
% es.tEX (V/m) @ t=0.54
-1.3379665582201579
% es.tEY (V/m) @ t=0.54
0
% es.tEZ (V/m) @ t=0.54
0.5595640334303127
% es.Ex (V/m) @ t=0.54
-1.3379665582201627
% es.Ey (V/m) @ t=0.54
0.10436926613921998
% es.Ez (V/m) @ t=0.54
0.5595640334303154
% es.tEx (V/m) @ t=0.54
-1.3379665582201579
% es.tEy (V/m) @ t=0.54
0
% es.tEz (V/m) @ t=0.54
0.5595640334303127
% V (V) @ t=0.54
0.008121820185690808
% es.normE (V/m) @ t=0.56
1.4686277482276102
% es.EX (V/m) @ t=0.56
-1.3508103260743956
% es.EY (V/m) @ t=0.56
0.10537072044840962
% es.EZ (V/m) @ t=0.56
0.5649351564382203
% es.tEX (V/m) @ t=0.56
-1.3508103260743898
% es.tEY (V/m) @ t=0.56
0
% es.tEZ (V/m) @ t=0.56
0.5649351564382208
% es.Ex (V/m) @ t=0.56
-1.3508103260743956
% es.Ey (V/m) @ t=0.56
0.10537072044840962
% es.Ez (V/m) @ t=0.56
0.5649351564382203
% es.tEx (V/m) @ t=0.56
-1.3508103260743898
% es.tEy (V/m) @ t=0.56
0
% es.tEz (V/m) @ t=0.56
0.5649351564382208
% V (V) @ t=0.56
0.008199836756819399
% es.normE (V/m) @ t=0.58
1.4828774394705033
% es.EX (V/m) @ t=0.58
-1.3639170703021506
% es.EY (V/m) @ t=0.58
0.10639260185289556
% es.EZ (V/m) @ t=0.58
0.5704161829168337
% es.tEX (V/m) @ t=0.58
-1.3639170703021417
% es.tEY (V/m) @ t=0.58
0
% es.tEZ (V/m) @ t=0.58
0.570416182916837
% es.Ex (V/m) @ t=0.58
-1.3639170703021506
% es.Ey (V/m) @ t=0.58
0.10639260185289556
% es.Ez (V/m) @ t=0.58
0.5704161829168337
% es.tEx (V/m) @ t=0.58
-1.3639170703021417
% es.tEy (V/m) @ t=0.58
0
% es.tEz (V/m) @ t=0.58
0.570416182916837
% V (V) @ t=0.58
0.008279459896051975
% es.normE (V/m) @ t=0.6
1.4971271307136933
% es.EX (V/m) @ t=0.6
-1.3770238145299012
% es.EY (V/m) @ t=0.6
0.10741448325738334
% es.EZ (V/m) @ t=0.6
0.5758972093954542
% es.tEX (V/m) @ t=0.6
-1.3770238145298954
% es.tEY (V/m) @ t=0.6
0
% es.tEZ (V/m) @ t=0.6
0.5758972093954497
% es.Ex (V/m) @ t=0.6
-1.3770238145299012
% es.Ey (V/m) @ t=0.6
0.10741448325738334
% es.Ez (V/m) @ t=0.6
0.5758972093954542
% es.tEx (V/m) @ t=0.6
-1.3770238145298954
% es.tEy (V/m) @ t=0.6
0
% es.tEz (V/m) @ t=0.6
0.5758972093954497
% V (V) @ t=0.6
0.008359083035284548
% es.normE (V/m) @ t=0.62
1.5113768219571684
% es.EX (V/m) @ t=0.62
-1.3901305587576502
% es.EY (V/m) @ t=0.62
0.10843636466186218
% es.EZ (V/m) @ t=0.62
0.5813782358740713
% es.tEX (V/m) @ t=0.62
-1.3901305587576473
% es.tEY (V/m) @ t=0.62
0
% es.tEZ (V/m) @ t=0.62
0.5813782358740696
% es.Ex (V/m) @ t=0.62
-1.3901305587576502
% es.Ey (V/m) @ t=0.62
0.10843636466186218
% es.Ez (V/m) @ t=0.62
0.5813782358740713
% es.tEx (V/m) @ t=0.62
-1.3901305587576473
% es.tEy (V/m) @ t=0.62
0
% es.tEz (V/m) @ t=0.62
0.5813782358740696
% V (V) @ t=0.62
0.008438706174517125
% es.normE (V/m) @ t=0.64
1.5256265132009235
% es.EX (V/m) @ t=0.64
-1.4032373029853973
% es.EY (V/m) @ t=0.64
0.10945824606634996
% es.EZ (V/m) @ t=0.64
0.5868592623526865
% es.tEX (V/m) @ t=0.64
-1.4032373029853922
% es.tEY (V/m) @ t=0.64
0
% es.tEZ (V/m) @ t=0.64
0.5868592623526929
% es.Ex (V/m) @ t=0.64
-1.4032373029853973
% es.Ey (V/m) @ t=0.64
0.10945824606634996
% es.Ez (V/m) @ t=0.64
0.5868592623526865
% es.tEx (V/m) @ t=0.64
-1.4032373029853922
% es.tEy (V/m) @ t=0.64
0
% es.tEz (V/m) @ t=0.64
0.5868592623526929
% V (V) @ t=0.64
0.008518329313749698
% es.normE (V/m) @ t=0.66
1.5398762044449663
% es.EX (V/m) @ t=0.66
-1.4163440472131565
% es.EY (V/m) @ t=0.66
0.11048012747081642
% es.EZ (V/m) @ t=0.66
0.5923402888313141
% es.tEX (V/m) @ t=0.66
-1.416344047213153
% es.tEY (V/m) @ t=0.66
0
% es.tEZ (V/m) @ t=0.66
0.5923402888313092
% es.Ex (V/m) @ t=0.66
-1.4163440472131565
% es.Ey (V/m) @ t=0.66
0.11048012747081642
% es.Ez (V/m) @ t=0.66
0.5923402888313141
% es.tEx (V/m) @ t=0.66
-1.416344047213153
% es.tEy (V/m) @ t=0.66
0
% es.tEz (V/m) @ t=0.66
0.5923402888313092
% V (V) @ t=0.66
0.008597952452982274
% es.normE (V/m) @ t=0.68
1.5541258956892556
% es.EX (V/m) @ t=0.68
-1.429450791440901
% es.EY (V/m) @ t=0.68
0.11150200887530592
% es.EZ (V/m) @ t=0.68
0.5978213153099221
% es.tEX (V/m) @ t=0.68
-1.4294507914408996
% es.tEY (V/m) @ t=0.68
0
% es.tEZ (V/m) @ t=0.68
0.5978213153099219
% es.Ex (V/m) @ t=0.68
-1.429450791440901
% es.Ey (V/m) @ t=0.68
0.11150200887530592
% es.Ez (V/m) @ t=0.68
0.5978213153099221
% es.tEx (V/m) @ t=0.68
-1.4294507914408996
% es.tEy (V/m) @ t=0.68
0
% es.tEz (V/m) @ t=0.68
0.5978213153099219
% V (V) @ t=0.68
0.008677575592214848
% es.normE (V/m) @ t=0.7
1.5683755869338185
% es.EX (V/m) @ t=0.7
-1.4425575356686566
% es.EY (V/m) @ t=0.7
0.11252389027979726
% es.EZ (V/m) @ t=0.7
0.6033023417885408
% es.tEX (V/m) @ t=0.7
-1.4425575356686497
% es.tEY (V/m) @ t=0.7
0
% es.tEZ (V/m) @ t=0.7
0.6033023417885452
% es.Ex (V/m) @ t=0.7
-1.4425575356686566
% es.Ey (V/m) @ t=0.7
0.11252389027979726
% es.Ez (V/m) @ t=0.7
0.6033023417885408
% es.tEx (V/m) @ t=0.7
-1.4425575356686497
% es.tEy (V/m) @ t=0.7
0
% es.tEz (V/m) @ t=0.7
0.6033023417885452
% V (V) @ t=0.7
0.008757198731447424
% es.normE (V/m) @ t=0.72
1.5826252781786287
% es.EX (V/m) @ t=0.72
-1.4556642798964086
% es.EY (V/m) @ t=0.72
0.11354577168427438
% es.EZ (V/m) @ t=0.72
0.6087833682671595
% es.tEX (V/m) @ t=0.72
-1.4556642798964035
% es.tEY (V/m) @ t=0.72
0
% es.tEZ (V/m) @ t=0.72
0.6087833682671544
% es.Ex (V/m) @ t=0.72
-1.4556642798964086
% es.Ey (V/m) @ t=0.72
0.11354577168427438
% es.Ez (V/m) @ t=0.72
0.6087833682671595
% es.tEx (V/m) @ t=0.72
-1.4556642798964035
% es.tEy (V/m) @ t=0.72
0
% es.tEz (V/m) @ t=0.72
0.6087833682671544
% V (V) @ t=0.72
0.008836821870679998
% es.normE (V/m) @ t=0.74
1.5968749694236892
% es.EX (V/m) @ t=0.74
-1.4687710241241654
% es.EY (V/m) @ t=0.74
0.11456765308875322
% es.EZ (V/m) @ t=0.74
0.6142643947457802
% es.tEX (V/m) @ t=0.74
-1.4687710241241607
% es.tEY (V/m) @ t=0.74
0
% es.tEZ (V/m) @ t=0.74
0.6142643947457778
% es.Ex (V/m) @ t=0.74
-1.4687710241241654
% es.Ey (V/m) @ t=0.74
0.11456765308875322
% es.Ez (V/m) @ t=0.74
0.6142643947457802
% es.tEx (V/m) @ t=0.74
-1.4687710241241607
% es.tEy (V/m) @ t=0.74
0
% es.tEz (V/m) @ t=0.74
0.6142643947457778
% V (V) @ t=0.74
0.008916445009912575
% es.normE (V/m) @ t=0.76
1.611124660668977
% es.EX (V/m) @ t=0.76
-1.4818777683519122
% es.EY (V/m) @ t=0.76
0.11558953449323389
% es.EZ (V/m) @ t=0.76
0.6197454212243954
% es.tEX (V/m) @ t=0.76
-1.4818777683519073
% es.tEY (V/m) @ t=0.76
0
% es.tEZ (V/m) @ t=0.76
0.6197454212243869
% es.Ex (V/m) @ t=0.76
-1.4818777683519122
% es.Ey (V/m) @ t=0.76
0.11558953449323389
% es.Ez (V/m) @ t=0.76
0.6197454212243954
% es.tEx (V/m) @ t=0.76
-1.4818777683519073
% es.tEy (V/m) @ t=0.76
0
% es.tEz (V/m) @ t=0.76
0.6197454212243869
% V (V) @ t=0.76
0.008996068149145147
% es.normE (V/m) @ t=0.78
1.6253743519145138
% es.EX (V/m) @ t=0.78
-1.494984512579673
% es.EY (V/m) @ t=0.78
0.11661141589771457
% es.EZ (V/m) @ t=0.78
0.6252264477030212
% es.tEX (V/m) @ t=0.78
-1.4949845125796628
% es.tEY (V/m) @ t=0.78
0
% es.tEZ (V/m) @ t=0.78
0.6252264477030245
% es.Ex (V/m) @ t=0.78
-1.494984512579673
% es.Ey (V/m) @ t=0.78
0.11661141589771457
% es.Ez (V/m) @ t=0.78
0.6252264477030212
% es.tEx (V/m) @ t=0.78
-1.4949845125796628
% es.tEy (V/m) @ t=0.78
0
% es.tEz (V/m) @ t=0.78
0.6252264477030245
% V (V) @ t=0.78
0.009075691288377721
% es.normE (V/m) @ t=0.8
1.6396240431602689
% es.EX (V/m) @ t=0.8
-1.5080912568074292
% es.EY (V/m) @ t=0.8
0.1176332973022094
% es.EZ (V/m) @ t=0.8
0.6307074741816329
% es.tEX (V/m) @ t=0.8
-1.5080912568074165
% es.tEY (V/m) @ t=0.8
0
% es.tEZ (V/m) @ t=0.8
0.6307074741816372
% es.Ex (V/m) @ t=0.8
-1.5080912568074292
% es.Ey (V/m) @ t=0.8
0.1176332973022094
% es.Ez (V/m) @ t=0.8
0.6307074741816329
% es.tEx (V/m) @ t=0.8
-1.5080912568074165
% es.tEy (V/m) @ t=0.8
0
% es.tEz (V/m) @ t=0.8
0.6307074741816372
% V (V) @ t=0.8
0.009155314427610297
% es.normE (V/m) @ t=0.82
1.6542345279561652
% es.EX (V/m) @ t=0.82
-1.52152975697724
% es.EY (V/m) @ t=0.82
0.11868129642192443
% es.EZ (V/m) @ t=0.82
0.6363274639622165
% es.tEX (V/m) @ t=0.82
-1.5215297569772321
% es.tEY (V/m) @ t=0.82
0
% es.tEZ (V/m) @ t=0.82
0.6363274639622176
% es.Ex (V/m) @ t=0.82
-1.52152975697724
% es.Ey (V/m) @ t=0.82
0.11868129642192443
% es.Ez (V/m) @ t=0.82
0.6363274639622165
% es.tEx (V/m) @ t=0.82
-1.5215297569772321
% es.tEy (V/m) @ t=0.82
0
% es.tEz (V/m) @ t=0.82
0.6363274639622176
% V (V) @ t=0.82
0.009236923199971627
% es.normE (V/m) @ t=0.84
1.6701578115490425
% es.EX (V/m) @ t=0.84
-1.5361753984654207
% es.EY (V/m) @ t=0.84
0.11982432857412412
% es.EZ (V/m) @ t=0.84
0.6424530915393285
% es.tEX (V/m) @ t=0.84
-1.5361753984654154
% es.tEY (V/m) @ t=0.84
0
% es.tEZ (V/m) @ t=0.84
0.6424530915393234
% es.Ex (V/m) @ t=0.84
-1.5361753984654207
% es.Ey (V/m) @ t=0.84
0.11982432857412412
% es.Ez (V/m) @ t=0.84
0.6424530915393285
% es.tEx (V/m) @ t=0.84
-1.5361753984654154
% es.tEy (V/m) @ t=0.84
0
% es.tEz (V/m) @ t=0.84
0.6424530915393234
% V (V) @ t=0.84
0.009325756981711546
% es.normE (V/m) @ t=0.86
1.6860810951423546
% es.EX (V/m) @ t=0.86
-1.5508210399536133
% es.EY (V/m) @ t=0.86
0.12096736072631853
% es.EZ (V/m) @ t=0.86
0.6485787191164458
% es.tEX (V/m) @ t=0.86
-1.5508210399536093
% es.tEY (V/m) @ t=0.86
0
% es.tEZ (V/m) @ t=0.86
0.6485787191164469
% es.Ex (V/m) @ t=0.86
-1.5508210399536133
% es.Ey (V/m) @ t=0.86
0.12096736072631853
% es.Ez (V/m) @ t=0.86
0.6485787191164458
% es.tEx (V/m) @ t=0.86
-1.5508210399536093
% es.tEy (V/m) @ t=0.86
0
% es.tEz (V/m) @ t=0.86
0.6485787191164469
% V (V) @ t=0.86
0.009414590763451466
% es.normE (V/m) @ t=0.88
1.702004378736075
% es.EX (V/m) @ t=0.88
-1.5654666814418057
% es.EY (V/m) @ t=0.88
0.12211039287849518
% es.EZ (V/m) @ t=0.88
0.6547043466935651
% es.tEX (V/m) @ t=0.88
-1.5654666814417961
% es.tEY (V/m) @ t=0.88
0
% es.tEZ (V/m) @ t=0.88
0.6547043466935598
% es.Ex (V/m) @ t=0.88
-1.5654666814418057
% es.Ey (V/m) @ t=0.88
0.12211039287849518
% es.Ez (V/m) @ t=0.88
0.6547043466935651
% es.tEx (V/m) @ t=0.88
-1.5654666814417961
% es.tEy (V/m) @ t=0.88
0
% es.tEz (V/m) @ t=0.88
0.6547043466935598
% V (V) @ t=0.88
0.009503424545191385
% es.normE (V/m) @ t=0.9
1.7179276623301696
% es.EX (V/m) @ t=0.9
-1.5801123229299796
% es.EY (V/m) @ t=0.9
0.1232534250306967
% es.EZ (V/m) @ t=0.9
0.6608299742706629
% es.tEX (V/m) @ t=0.9
-1.5801123229299723
% es.tEY (V/m) @ t=0.9
0
% es.tEZ (V/m) @ t=0.9
0.6608299742706727
% es.Ex (V/m) @ t=0.9
-1.5801123229299796
% es.Ey (V/m) @ t=0.9
0.1232534250306967
% es.Ez (V/m) @ t=0.9
0.6608299742706629
% es.tEx (V/m) @ t=0.9
-1.5801123229299723
% es.tEy (V/m) @ t=0.9
0
% es.tEz (V/m) @ t=0.9
0.6608299742706727
% V (V) @ t=0.9
0.009592258326931306
% es.normE (V/m) @ t=0.92
1.733850945924673
% es.EX (V/m) @ t=0.92
-1.5947579644181669
% es.EY (V/m) @ t=0.92
0.124396457182884
% es.EZ (V/m) @ t=0.92
0.6669556018477856
% es.tEX (V/m) @ t=0.92
-1.5947579644181644
% es.tEY (V/m) @ t=0.92
0
% es.tEZ (V/m) @ t=0.92
0.6669556018477927
% es.Ex (V/m) @ t=0.92
-1.5947579644181669
% es.Ey (V/m) @ t=0.92
0.124396457182884
% es.Ez (V/m) @ t=0.92
0.6669556018477856
% es.tEx (V/m) @ t=0.92
-1.5947579644181644
% es.tEy (V/m) @ t=0.92
0
% es.tEz (V/m) @ t=0.92
0.6669556018477927
% V (V) @ t=0.92
0.009681092108671225
% es.normE (V/m) @ t=0.94
1.7497742295195513
% es.EX (V/m) @ t=0.94
-1.6094036059063548
% es.EY (V/m) @ t=0.94
0.1255394893350802
% es.EZ (V/m) @ t=0.94
0.6730812294249012
% es.tEX (V/m) @ t=0.94
-1.6094036059063495
% es.tEY (V/m) @ t=0.94
0
% es.tEZ (V/m) @ t=0.94
0.673081229424902
% es.Ex (V/m) @ t=0.94
-1.6094036059063548
% es.Ey (V/m) @ t=0.94
0.1255394893350802
% es.Ez (V/m) @ t=0.94
0.6730812294249012
% es.tEx (V/m) @ t=0.94
-1.6094036059063495
% es.tEy (V/m) @ t=0.94
0
% es.tEz (V/m) @ t=0.94
0.673081229424902
% V (V) @ t=0.94
0.009769925890411145
% es.normE (V/m) @ t=0.96
1.7656975131147885
% es.EX (V/m) @ t=0.96
-1.62404924739454
% es.EY (V/m) @ t=0.96
0.12668252148727643
% es.EZ (V/m) @ t=0.96
0.6792068570020044
% es.tEX (V/m) @ t=0.96
-1.624049247394531
% es.tEY (V/m) @ t=0.96
0
% es.tEZ (V/m) @ t=0.96
0.6792068570020149
% es.Ex (V/m) @ t=0.96
-1.62404924739454
% es.Ey (V/m) @ t=0.96
0.12668252148727643
% es.Ez (V/m) @ t=0.96
0.6792068570020044
% es.tEx (V/m) @ t=0.96
-1.624049247394531
% es.tEy (V/m) @ t=0.96
0
% es.tEz (V/m) @ t=0.96
0.6792068570020149
% V (V) @ t=0.96
0.009858759672151064
% es.normE (V/m) @ t=0.98
1.781620796710392
% es.EX (V/m) @ t=0.98
-1.6386948888827282
% es.EY (V/m) @ t=0.98
0.12782555363946368
% es.EZ (V/m) @ t=0.98
0.6853324845791253
% es.tEX (V/m) @ t=0.98
-1.638694888882723
% es.tEY (V/m) @ t=0.98
0
% es.tEZ (V/m) @ t=0.98
0.6853324845791313
% es.Ex (V/m) @ t=0.98
-1.6386948888827282
% es.Ey (V/m) @ t=0.98
0.12782555363946368
% es.Ez (V/m) @ t=0.98
0.6853324845791253
% es.tEx (V/m) @ t=0.98
-1.638694888882723
% es.tEy (V/m) @ t=0.98
0
% es.tEz (V/m) @ t=0.98
0.6853324845791313
% V (V) @ t=0.98
0.009947593453890985
% es.normE (V/m) @ t=1
1.797544080306337
% es.EX (V/m) @ t=1
-1.6533405303709128
% es.EY (V/m) @ t=1
0.12896858579166692
% es.EZ (V/m) @ t=1
0.6914581121562392
% es.tEX (V/m) @ t=1
-1.6533405303709117
% es.tEY (V/m) @ t=1
0
% es.tEZ (V/m) @ t=1
0.6914581121562371
% es.Ex (V/m) @ t=1
-1.6533405303709128
% es.Ey (V/m) @ t=1
0.12896858579166692
% es.Ez (V/m) @ t=1
0.6914581121562392
% es.tEx (V/m) @ t=1
-1.6533405303709117
% es.tEy (V/m) @ t=1
0
% es.tEz (V/m) @ t=1
0.6914581121562371
% V (V) @ t=1
0.010036427235630906
% es.normE (V/m) @ t=1.02
1.8134673639026155
% es.EX (V/m) @ t=1.02
-1.6679861718590965
% es.EY (V/m) @ t=1.02
0.1301116179438454
% es.EZ (V/m) @ t=1.02
0.6975837397333478
% es.tEX (V/m) @ t=1.02
-1.6679861718590843
% es.tEY (V/m) @ t=1.02
0
% es.tEZ (V/m) @ t=1.02
0.69758373973335
% es.Ex (V/m) @ t=1.02
-1.6679861718590965
% es.Ey (V/m) @ t=1.02
0.1301116179438454
% es.Ez (V/m) @ t=1.02
0.6975837397333478
% es.tEx (V/m) @ t=1.02
-1.6679861718590843
% es.tEy (V/m) @ t=1.02
0
% es.tEz (V/m) @ t=1.02
0.69758373973335
% V (V) @ t=1.02
0.010125261017370825
% es.normE (V/m) @ t=1.04
1.8293906474992276
% es.EX (V/m) @ t=1.04
-1.6826318133472835
% es.EY (V/m) @ t=1.04
0.13125465009603443
% es.EZ (V/m) @ t=1.04
0.703709367310458