% Model:              1 neuron.mph
% Version:            COMSOL 6.0.0.405
% Date:               Mar 9 2023, 13:17
% Dimension:          0
% Nodes:              14017
% Expressions:        14017
% Description:        Electric field norm, Electric field, X component, Electric field, Y component, Electric field, Z component, Tangential electric field, X component, Tangential electric field, Y component, Tangential electric field, Z component, Electric field, x component, Electric field, y component, Electric field, z component, Tangential electric field, x component, Tangential electric field, y component, Tangential electric field, z component, Electric potential
% Length unit:        mm
% x
2
% y
12.2
% z
1.6599999999999997
% es.normE (V/m) @ t=0
1.2753900783969796
% es.EX (V/m) @ t=0
-1.2323643395079698
% es.EY (V/m) @ t=0
0.09493670655516967
% es.EZ (V/m) @ t=0
-0.31409540952754145
% es.tEX (V/m) @ t=0
-1.232364339507967
% es.tEY (V/m) @ t=0
0
% es.tEZ (V/m) @ t=0
-0.3140954095275408
% es.Ex (V/m) @ t=0
-1.2323643395079698
% es.Ey (V/m) @ t=0
0.09493670655516967
% es.Ez (V/m) @ t=0
-0.31409540952754145
% es.tEx (V/m) @ t=0
-1.232364339507967
% es.tEy (V/m) @ t=0
0
% es.tEz (V/m) @ t=0
-0.3140954095275408
% V (V) @ t=0
0.007391157476874832
% es.normE (V/m) @ t=0.02
1.101576456131372
% es.EX (V/m) @ t=0.02
-1.0644143821834824
% es.EY (V/m) @ t=0.02
0.08199847510627833
% es.EZ (V/m) @ t=0.02
-0.27128963254868155
% es.tEX (V/m) @ t=0.02
-1.0644143821834842
% es.tEY (V/m) @ t=0.02
0
% es.tEZ (V/m) @ t=0.02
-0.27128963254867866
% es.Ex (V/m) @ t=0.02
-1.0644143821834824
% es.Ey (V/m) @ t=0.02
0.08199847510627833
% es.Ez (V/m) @ t=0.02
-0.27128963254868155
% es.tEx (V/m) @ t=0.02
-1.0644143821834842
% es.tEy (V/m) @ t=0.02
0
% es.tEz (V/m) @ t=0.02
-0.27128963254867866
% V (V) @ t=0.02
0.006383870355245573
% es.normE (V/m) @ t=0.04
1.1117062571669871
% es.EX (V/m) @ t=0.04
-1.0742024510871637
% es.EY (V/m) @ t=0.04
0.08275251161769576
% es.EZ (V/m) @ t=0.04
-0.27378433773850697
% es.tEX (V/m) @ t=0.04
-1.0742024510871673
% es.tEY (V/m) @ t=0.04
0
% es.tEZ (V/m) @ t=0.04
-0.27378433773851185
% es.Ex (V/m) @ t=0.04
-1.0742024510871637
% es.Ey (V/m) @ t=0.04
0.08275251161769576
% es.Ez (V/m) @ t=0.04
-0.27378433773850697
% es.tEx (V/m) @ t=0.04
-1.0742024510871673
% es.tEy (V/m) @ t=0.04
0
% es.tEz (V/m) @ t=0.04
-0.27378433773851185
% V (V) @ t=0.04
0.00644257462023505
% es.normE (V/m) @ t=0.06
1.1219271717261634
% es.EX (V/m) @ t=0.06
-1.0840785593823918
% es.EY (V/m) @ t=0.06
0.08351332963532221
% es.EZ (V/m) @ t=0.06
-0.2763014835069657
% es.tEX (V/m) @ t=0.06
-1.0840785593823945
% es.tEY (V/m) @ t=0.06
0
% es.tEZ (V/m) @ t=0.06
-0.27630148350696526
% es.Ex (V/m) @ t=0.06
-1.0840785593823918
% es.Ey (V/m) @ t=0.06
0.08351332963532221
% es.Ez (V/m) @ t=0.06
-0.2763014835069657
% es.tEx (V/m) @ t=0.06
-1.0840785593823945
% es.tEy (V/m) @ t=0.06
0
% es.tEz (V/m) @ t=0.06
-0.27630148350696526
% V (V) @ t=0.06
0.006501807023578793
% es.normE (V/m) @ t=0.08
1.132304567363798
% es.EX (V/m) @ t=0.08
-1.0941058697527444
% es.EY (V/m) @ t=0.08
0.08428579563977934
% es.EZ (V/m) @ t=0.08
-0.27885716673513095
% es.tEX (V/m) @ t=0.08
-1.0941058697527417
% es.tEY (V/m) @ t=0.08
0
% es.tEZ (V/m) @ t=0.08
-0.2788571667351327
% es.Ex (V/m) @ t=0.08
-1.0941058697527444
% es.Ey (V/m) @ t=0.08
0.08428579563977934
% es.Ez (V/m) @ t=0.08
-0.27885716673513095
% es.tEx (V/m) @ t=0.08
-1.0941058697527417
% es.tEy (V/m) @ t=0.08
0
% es.tEz (V/m) @ t=0.08
-0.2788571667351327
% V (V) @ t=0.08
0.006561946280543412
% es.normE (V/m) @ t=0.1
1.1427897307520936
% es.EX (V/m) @ t=0.1
-1.1042373122500737
% es.EY (V/m) @ t=0.1
0.08506628355560675
% es.EZ (V/m) @ t=0.1
-0.281439390522634
% es.tEX (V/m) @ t=0.1
-1.1042373122500653
% es.tEY (V/m) @ t=0.1
0
% es.tEZ (V/m) @ t=0.1
-0.28143939052263534
% es.Ex (V/m) @ t=0.1
-1.1042373122500737
% es.Ey (V/m) @ t=0.1
0.08506628355560675
% es.Ez (V/m) @ t=0.1
-0.281439390522634
% es.tEx (V/m) @ t=0.1
-1.1042373122500653
% es.tEy (V/m) @ t=0.1
0
% es.tEz (V/m) @ t=0.1
-0.28143939052263534
% V (V) @ t=0.1
0.006622710083145571
% es.normE (V/m) @ t=0.12
1.1532748941403972
% es.EX (V/m) @ t=0.12
-1.1143687547474062
% es.EY (V/m) @ t=0.12
0.08584677147145281
% es.EZ (V/m) @ t=0.12
-0.2840216143101504
% es.tEX (V/m) @ t=0.12
-1.114368754747403
% es.tEY (V/m) @ t=0.12
0
% es.tEZ (V/m) @ t=0.12
-0.28402161431014505
% es.Ex (V/m) @ t=0.12
-1.1143687547474062
% es.Ey (V/m) @ t=0.12
0.08584677147145281
% es.Ez (V/m) @ t=0.12
-0.2840216143101504
% es.tEx (V/m) @ t=0.12
-1.114368754747403
% es.tEy (V/m) @ t=0.12
0
% es.tEz (V/m) @ t=0.12
-0.28402161431014505
% V (V) @ t=0.12
0.006683473885747729
% es.normE (V/m) @ t=0.14
1.1638686912851373
% es.EX (V/m) @ t=0.14
-1.1246051660374645
% es.EY (V/m) @ t=0.14
0.08663534548346519
% es.EZ (V/m) @ t=0.14
-0.2866305924900381
% es.tEX (V/m) @ t=0.14
-1.1246051660374636
% es.tEY (V/m) @ t=0.14
0
% es.tEZ (V/m) @ t=0.14
-0.286630592490031
% es.Ex (V/m) @ t=0.14
-1.1246051660374645
% es.Ey (V/m) @ t=0.14
0.08663534548346519
% es.Ez (V/m) @ t=0.14
-0.2866305924900381
% es.tEx (V/m) @ t=0.14
-1.1246051660374636
% es.tEy (V/m) @ t=0.14
0
% es.tEz (V/m) @ t=0.14
-0.286630592490031
% V (V) @ t=0.14
0.006744867293413466
% es.normE (V/m) @ t=0.16
1.1749129546416324
% es.EX (V/m) @ t=0.16
-1.1352768462159313
% es.EY (V/m) @ t=0.16
0.08745744970979047
% es.EZ (V/m) @ t=0.16
-0.28935051178234983
% es.tEX (V/m) @ t=0.16
-1.135276846215941
% es.tEY (V/m) @ t=0.16
0
% es.tEZ (V/m) @ t=0.16
-0.2893505117823505
% es.Ex (V/m) @ t=0.16
-1.1352768462159313
% es.Ey (V/m) @ t=0.16
0.08745744970979047
% es.Ez (V/m) @ t=0.16
-0.28935051178234983
% es.tEx (V/m) @ t=0.16
-1.135276846215941
% es.tEy (V/m) @ t=0.16
0
% es.tEz (V/m) @ t=0.16
-0.2893505117823505
% V (V) @ t=0.16
0.0068088714531803615
% es.normE (V/m) @ t=0.18
1.1859572179981335
% es.EX (V/m) @ t=0.18
-1.1459485263944065
% es.EY (V/m) @ t=0.18
0.08827955393608278
% es.EZ (V/m) @ t=0.18
-0.29207043107466446
% es.tEX (V/m) @ t=0.18
-1.145948526394406
% es.tEY (V/m) @ t=0.18
0
% es.tEZ (V/m) @ t=0.18
-0.29207043107467
% es.Ex (V/m) @ t=0.18
-1.1459485263944065
% es.Ey (V/m) @ t=0.18
0.08827955393608278
% es.Ez (V/m) @ t=0.18
-0.29207043107466446
% es.tEx (V/m) @ t=0.18
-1.145948526394406
% es.tEy (V/m) @ t=0.18
0
% es.tEz (V/m) @ t=0.18
-0.29207043107467
% V (V) @ t=0.18
0.006872875612947258
% es.normE (V/m) @ t=0.2
1.1970014813546554
% es.EX (V/m) @ t=0.2
-1.1566202065729025
% es.EY (V/m) @ t=0.2
0.0891016581623707
% es.EZ (V/m) @ t=0.2
-0.29479035036698265
% es.tEX (V/m) @ t=0.2
-1.1566202065729065
% es.tEY (V/m) @ t=0.2
0
% es.tEZ (V/m) @ t=0.2
-0.2947903503669824
% es.Ex (V/m) @ t=0.2
-1.1566202065729025
% es.Ey (V/m) @ t=0.2
0.0891016581623707
% es.Ez (V/m) @ t=0.2
-0.29479035036698265
% es.tEx (V/m) @ t=0.2
-1.1566202065729065
% es.tEy (V/m) @ t=0.2
0
% es.tEz (V/m) @ t=0.2
-0.2947903503669824
% V (V) @ t=0.2
0.006936879772714153
% es.normE (V/m) @ t=0.22
1.208045744711156
% es.EX (V/m) @ t=0.22
-1.1672918867513755
% es.EY (V/m) @ t=0.22
0.08992376238867911
% es.EZ (V/m) @ t=0.22
-0.29751026965929706
% es.tEX (V/m) @ t=0.22
-1.1672918867513697
% es.tEY (V/m) @ t=0.22
0
% es.tEZ (V/m) @ t=0.22
-0.29751026965929483
% es.Ex (V/m) @ t=0.22
-1.1672918867513755
% es.Ey (V/m) @ t=0.22
0.08992376238867911
% es.Ez (V/m) @ t=0.22
-0.29751026965929706
% es.tEx (V/m) @ t=0.22
-1.1672918867513697
% es.tEy (V/m) @ t=0.22
0
% es.tEz (V/m) @ t=0.22
-0.29751026965929483
% V (V) @ t=0.22
0.007000883932481048
% es.normE (V/m) @ t=0.24
1.219090008067663
% es.EX (V/m) @ t=0.24
-1.1779635669298543
% es.EY (V/m) @ t=0.24
0.09074586661498302
% es.EZ (V/m) @ t=0.24
-0.300230188951617
% es.tEX (V/m) @ t=0.24
-1.177963566929849
% es.tEY (V/m) @ t=0.24
0
% es.tEZ (V/m) @ t=0.24
-0.300230188951625
% es.Ex (V/m) @ t=0.24
-1.1779635669298543
% es.Ey (V/m) @ t=0.24
0.09074586661498302
% es.Ez (V/m) @ t=0.24
-0.300230188951617
% es.tEx (V/m) @ t=0.24
-1.177963566929849
% es.tEy (V/m) @ t=0.24
0
% es.tEz (V/m) @ t=0.24
-0.300230188951625
% V (V) @ t=0.24
0.0070648880922479455
% es.normE (V/m) @ t=0.26
1.2301342714241785
% es.EX (V/m) @ t=0.26
-1.1886352471083432
% es.EY (V/m) @ t=0.26
0.09156797084127005
% es.EZ (V/m) @ t=0.26
-0.3029501082439361
% es.tEX (V/m) @ t=0.26
-1.1886352471083423
% es.tEY (V/m) @ t=0.26
0
% es.tEZ (V/m) @ t=0.26
-0.30295010824393387
% es.Ex (V/m) @ t=0.26
-1.1886352471083432
% es.Ey (V/m) @ t=0.26
0.09156797084127005
% es.Ez (V/m) @ t=0.26
-0.3029501082439361
% es.tEx (V/m) @ t=0.26
-1.1886352471083423
% es.tEy (V/m) @ t=0.26
0
% es.tEz (V/m) @ t=0.26
-0.30295010824393387
% V (V) @ t=0.26
0.007128892252014842
% es.normE (V/m) @ t=0.28
1.2416799037465702
% es.EX (V/m) @ t=0.28
-1.1997913692372046
% es.EY (V/m) @ t=0.28
0.09242736993950135
% es.EZ (V/m) @ t=0.28
-0.30579355939283115
% es.tEX (V/m) @ t=0.28
-1.1997913692372144
% es.tEY (V/m) @ t=0.28
0
% es.tEZ (V/m) @ t=0.28
-0.30579355939282493
% es.Ex (V/m) @ t=0.28
-1.1997913692372046
% es.Ey (V/m) @ t=0.28
0.09242736993950135
% es.Ez (V/m) @ t=0.28
-0.30579355939283115
% es.tEx (V/m) @ t=0.28
-1.1997913692372144
% es.tEy (V/m) @ t=0.28
0
% es.tEz (V/m) @ t=0.28
-0.30579355939282493
% V (V) @ t=0.28
0.007195805911432444
% es.normE (V/m) @ t=0.3
1.2539821277165084
% es.EX (V/m) @ t=0.3
-1.2116785392735139
% es.EY (V/m) @ t=0.3
0.0933430489244299
% es.EZ (V/m) @ t=0.3
-0.3088234264893701
% es.tEX (V/m) @ t=0.3
-1.2116785392735103
% es.tEY (V/m) @ t=0.3
0
% es.tEZ (V/m) @ t=0.3
-0.3088234264893721
% es.Ex (V/m) @ t=0.3
-1.2116785392735139
% es.Ey (V/m) @ t=0.3
0.0933430489244299
% es.Ez (V/m) @ t=0.3
-0.3088234264893701
% es.tEx (V/m) @ t=0.3
-1.2116785392735103
% es.tEy (V/m) @ t=0.3
0
% es.tEz (V/m) @ t=0.3
-0.3088234264893721
% V (V) @ t=0.3
0.0072671101559957626
% es.normE (V/m) @ t=0.32
1.2662843516864801
% es.EX (V/m) @ t=0.32
-1.223565709309824
% es.EY (V/m) @ t=0.32
0.09425872790936296
% es.EZ (V/m) @ t=0.32
-0.3118532935859295
% es.tEX (V/m) @ t=0.32
-1.2235657093098293
% es.tEY (V/m) @ t=0.32
0
% es.tEZ (V/m) @ t=0.32
-0.3118532935859246
% es.Ex (V/m) @ t=0.32
-1.223565709309824
% es.Ey (V/m) @ t=0.32
0.09425872790936296
% es.Ez (V/m) @ t=0.32
-0.3118532935859295
% es.tEx (V/m) @ t=0.32
-1.2235657093098293
% es.tEy (V/m) @ t=0.32
0
% es.tEz (V/m) @ t=0.32
-0.3118532935859246
% V (V) @ t=0.32
0.00733841440055908
% es.normE (V/m) @ t=0.34
1.2785865756564658
% es.EX (V/m) @ t=0.34
-1.2354528793461306
% es.EY (V/m) @ t=0.34
0.09517440689427992
% es.EZ (V/m) @ t=0.34
-0.31488316068245426
% es.tEX (V/m) @ t=0.34
-1.2354528793461395
% es.tEY (V/m) @ t=0.34
0
% es.tEZ (V/m) @ t=0.34
-0.31488316068246114
% es.Ex (V/m) @ t=0.34
-1.2354528793461306
% es.Ey (V/m) @ t=0.34
0.09517440689427992
% es.Ez (V/m) @ t=0.34
-0.31488316068245426
% es.tEx (V/m) @ t=0.34
-1.2354528793461395
% es.tEy (V/m) @ t=0.34
0
% es.tEz (V/m) @ t=0.34
-0.31488316068246114
% V (V) @ t=0.34
0.007409718645122401
% es.normE (V/m) @ t=0.36
1.2908887996264853
% es.EX (V/m) @ t=0.36
-1.2473400493824363
% es.EY (V/m) @ t=0.36
0.09609008587920848
% es.EZ (V/m) @ t=0.36
-0.3179130277790094
% es.tEX (V/m) @ t=0.36
-1.2473400493824354
% es.tEY (V/m) @ t=0.36
0
% es.tEZ (V/m) @ t=0.36
-0.3179130277790083
% es.Ex (V/m) @ t=0.36
-1.2473400493824363
% es.Ey (V/m) @ t=0.36
0.09609008587920848
% es.Ez (V/m) @ t=0.36
-0.3179130277790094
% es.tEx (V/m) @ t=0.36
-1.2473400493824354
% es.tEy (V/m) @ t=0.36
0
% es.tEz (V/m) @ t=0.36
-0.3179130277790083
% V (V) @ t=0.36
0.007481022889685718
% es.normE (V/m) @ t=0.38
1.3031910235965212
% es.EX (V/m) @ t=0.38
-1.2592272194187375
% es.EY (V/m) @ t=0.38
0.09700576486413526
% es.EZ (V/m) @ t=0.38
-0.3209428948755475
% es.tEX (V/m) @ t=0.38
-1.2592272194187402
% es.tEY (V/m) @ t=0.38
0
% es.tEZ (V/m) @ t=0.38
-0.32094289487554306
% es.Ex (V/m) @ t=0.38
-1.2592272194187375
% es.Ey (V/m) @ t=0.38
0.09700576486413526
% es.Ez (V/m) @ t=0.38
-0.3209428948755475
% es.tEx (V/m) @ t=0.38
-1.2592272194187402
% es.tEy (V/m) @ t=0.38
0
% es.tEz (V/m) @ t=0.38
-0.32094289487554306
% V (V) @ t=0.38
0.007552327134249037
% es.normE (V/m) @ t=0.4
1.3154932475666103
% es.EX (V/m) @ t=0.4
-1.271114389455069
% es.EY (V/m) @ t=0.4
0.09792144384905854
% es.EZ (V/m) @ t=0.4
-0.3239727619720827
% es.tEX (V/m) @ t=0.4
-1.2711143894550663
% es.tEY (V/m) @ t=0.4
0
% es.tEZ (V/m) @ t=0.4
-0.32397276197208846
% es.Ex (V/m) @ t=0.4
-1.271114389455069
% es.Ey (V/m) @ t=0.4
0.09792144384905854
% es.Ez (V/m) @ t=0.4
-0.3239727619720827
% es.tEx (V/m) @ t=0.4
-1.2711143894550663
% es.tEy (V/m) @ t=0.4
0
% es.tEz (V/m) @ t=0.4
-0.32397276197208846
% V (V) @ t=0.4
0.007623631378812356
% es.normE (V/m) @ t=0.42
1.3277954715367026
% es.EX (V/m) @ t=0.42
-1.2830015594913746
% es.EY (V/m) @ t=0.42
0.09883712283398793
% es.EZ (V/m) @ t=0.42
-0.32700262906863253
% es.tEX (V/m) @ t=0.42
-1.2830015594913693
% es.tEY (V/m) @ t=0.42
0
% es.tEZ (V/m) @ t=0.42
-0.32700262906863564
% es.Ex (V/m) @ t=0.42
-1.2830015594913746
% es.Ey (V/m) @ t=0.42
0.09883712283398793
% es.Ez (V/m) @ t=0.42
-0.32700262906863253
% es.tEx (V/m) @ t=0.42
-1.2830015594913693
% es.tEy (V/m) @ t=0.42
0
% es.tEz (V/m) @ t=0.42
-0.32700262906863564
% V (V) @ t=0.42
0.007694935623375673
% es.normE (V/m) @ t=0.44
1.3400976955067938
% es.EX (V/m) @ t=0.44
-1.2948887295276572
% es.EY (V/m) @ t=0.44
0.09975280181891738
% es.EZ (V/m) @ t=0.44
-0.33003249616517416
% es.tEX (V/m) @ t=0.44
-1.2948887295276599
% es.tEY (V/m) @ t=0.44
0
% es.tEZ (V/m) @ t=0.44
-0.33003249616516683
% es.Ex (V/m) @ t=0.44
-1.2948887295276572
% es.Ey (V/m) @ t=0.44
0.09975280181891738
% es.Ez (V/m) @ t=0.44
-0.33003249616517416
% es.tEx (V/m) @ t=0.44
-1.2948887295276599
% es.tEy (V/m) @ t=0.44
0
% es.tEz (V/m) @ t=0.44
-0.33003249616516683
% V (V) @ t=0.44
0.007766239867938993
% es.normE (V/m) @ t=0.46
1.3523999194769325
% es.EX (V/m) @ t=0.46
-1.3067758995639691
% es.EY (V/m) @ t=0.46
0.10066848080383889
% es.EZ (V/m) @ t=0.46
-0.333062363261704
% es.tEX (V/m) @ t=0.46
-1.30677589956397
% es.tEY (V/m) @ t=0.46
0
% es.tEZ (V/m) @ t=0.46
-0.33306236326171046
% es.Ex (V/m) @ t=0.46
-1.3067758995639691
% es.Ey (V/m) @ t=0.46
0.10066848080383889
% es.Ez (V/m) @ t=0.46
-0.333062363261704
% es.tEx (V/m) @ t=0.46
-1.30677589956397
% es.tEy (V/m) @ t=0.46
0
% es.tEz (V/m) @ t=0.46
-0.33306236326171046
% V (V) @ t=0.46
0.007837544112502311
% es.normE (V/m) @ t=0.48
1.3647021434470985
% es.EX (V/m) @ t=0.48
-1.3186630696002775
% es.EY (V/m) @ t=0.48
0.10158415978877983
% es.EZ (V/m) @ t=0.48
-0.3360922303582612
% es.tEX (V/m) @ t=0.48
-1.3186630696002801
% es.tEY (V/m) @ t=0.48
0
% es.tEZ (V/m) @ t=0.48
-0.3360922303582665
% es.Ex (V/m) @ t=0.48
-1.3186630696002775
% es.Ey (V/m) @ t=0.48
0.10158415978877983
% es.Ez (V/m) @ t=0.48
-0.3360922303582612
% es.tEx (V/m) @ t=0.48
-1.3186630696002801
% es.tEy (V/m) @ t=0.48
0
% es.tEz (V/m) @ t=0.48
-0.3360922303582665
% V (V) @ t=0.48
0.007908848357065628
% es.normE (V/m) @ t=0.5
1.377004367417284
% es.EX (V/m) @ t=0.5
-1.3305502396365894
% es.EY (V/m) @ t=0.5
0.10249983877370222
% es.EZ (V/m) @ t=0.5
-0.33912209745480526
% es.tEX (V/m) @ t=0.5
-1.3305502396365902
% es.tEY (V/m) @ t=0.5
0
% es.tEZ (V/m) @ t=0.5
-0.33912209745480837
% es.Ex (V/m) @ t=0.5
-1.3305502396365894
% es.Ey (V/m) @ t=0.5
0.10249983877370222
% es.Ez (V/m) @ t=0.5
-0.33912209745480526
% es.tEx (V/m) @ t=0.5
-1.3305502396365902
% es.tEy (V/m) @ t=0.5
0
% es.tEz (V/m) @ t=0.5
-0.33912209745480837
% V (V) @ t=0.5
0.007980152601628947
% es.normE (V/m) @ t=0.52
1.3893065913874931
% es.EX (V/m) @ t=0.52
-1.3424374096729084
% es.EY (V/m) @ t=0.52
0.10341551775860769
% es.EZ (V/m) @ t=0.52
-0.34215196455133534
% es.tEX (V/m) @ t=0.52
-1.342437409672911
% es.tEY (V/m) @ t=0.52
0
% es.tEZ (V/m) @ t=0.52
-0.3421519645513378
% es.Ex (V/m) @ t=0.52
-1.3424374096729084
% es.Ey (V/m) @ t=0.52
0.10341551775860769
% es.Ez (V/m) @ t=0.52
-0.34215196455133534
% es.tEx (V/m) @ t=0.52
-1.342437409672911
% es.tEy (V/m) @ t=0.52
0
% es.tEz (V/m) @ t=0.52
-0.3421519645513378
% V (V) @ t=0.52
0.008051456846192266
% es.normE (V/m) @ t=0.54
1.4016088153577269
% es.EX (V/m) @ t=0.54
-1.3543245797092283
% es.EY (V/m) @ t=0.54
0.1043311967435353
% es.EZ (V/m) @ t=0.54
-0.34518183164787253
% es.tEX (V/m) @ t=0.54
-1.3543245797092283
% es.tEY (V/m) @ t=0.54
0
% es.tEZ (V/m) @ t=0.54
-0.34518183164787075
% es.Ex (V/m) @ t=0.54
-1.3543245797092283
% es.Ey (V/m) @ t=0.54
0.1043311967435353
% es.Ez (V/m) @ t=0.54
-0.34518183164787253
% es.tEx (V/m) @ t=0.54
-1.3543245797092283
% es.tEy (V/m) @ t=0.54
0
% es.tEz (V/m) @ t=0.54
-0.34518183164787075
% V (V) @ t=0.54
0.008122761090755585
% es.normE (V/m) @ t=0.56
1.4150631063377477
% es.EX (V/m) @ t=0.56
-1.367324802497004
% es.EY (V/m) @ t=0.56
0.10533234061033336
% es.EZ (V/m) @ t=0.56
-0.348496076283199
% es.tEX (V/m) @ t=0.56
-1.3673248024969933
% es.tEY (V/m) @ t=0.56
0
% es.tEZ (V/m) @ t=0.56
-0.348496076283201
% es.Ex (V/m) @ t=0.56
-1.367324802497004
% es.Ey (V/m) @ t=0.56
0.10533234061033336
% es.Ez (V/m) @ t=0.56
-0.348496076283199
% es.tEx (V/m) @ t=0.56
-1.3673248024969933
% es.tEy (V/m) @ t=0.56
0
% es.tEz (V/m) @ t=0.56
-0.348496076283201
% V (V) @ t=0.56
0.008200786665215076
% es.normE (V/m) @ t=0.58
1.4287928012305446
% es.EX (V/m) @ t=0.58
-1.380591102760551
% es.EY (V/m) @ t=0.58
0.10635391502727387
% es.EZ (V/m) @ t=0.58
-0.35187830193523695
% es.tEX (V/m) @ t=0.58
-1.3805911027605529
% es.tEY (V/m) @ t=0.58
0
% es.tEZ (V/m) @ t=0.58
-0.3518783019352405
% es.Ex (V/m) @ t=0.58
-1.380591102760551
% es.Ey (V/m) @ t=0.58
0.10635391502727387
% es.Ez (V/m) @ t=0.58
-0.35187830193523695
% es.tEx (V/m) @ t=0.58
-1.3805911027605529
% es.tEy (V/m) @ t=0.58
0
% es.tEz (V/m) @ t=0.58
-0.3518783019352405
% V (V) @ t=0.58
0.008280418986964732
% es.normE (V/m) @ t=0.6
1.4425224961242784
% es.EX (V/m) @ t=0.6
-1.3938574030240831
% es.EY (V/m) @ t=0.6
0.10737548944419756
% es.EZ (V/m) @ t=0.6
-0.35526052758724336
% es.tEX (V/m) @ t=0.6
-1.393857403024084
% es.tEY (V/m) @ t=0.6
0
% es.tEZ (V/m) @ t=0.6
-0.35526052758724447
% es.Ex (V/m) @ t=0.6
-1.3938574030240831
% es.Ey (V/m) @ t=0.6
0.10737548944419756
% es.Ez (V/m) @ t=0.6
-0.35526052758724336
% es.tEx (V/m) @ t=0.6
-1.393857403024084
% es.tEy (V/m) @ t=0.6
0
% es.tEz (V/m) @ t=0.6
-0.35526052758724447
% V (V) @ t=0.6
0.008360051308714388
% es.normE (V/m) @ t=0.62
1.4562521910189412
% es.EX (V/m) @ t=0.62
-1.407123703287608
% es.EY (V/m) @ t=0.62
0.10839706386112297
% es.EZ (V/m) @ t=0.62
-0.35864275323925643
% es.tEX (V/m) @ t=0.62
-1.4071237032876098
% es.tEY (V/m) @ t=0.62
0
% es.tEZ (V/m) @ t=0.62
-0.35864275323925376
% es.Ex (V/m) @ t=0.62
-1.407123703287608
% es.Ey (V/m) @ t=0.62
0.10839706386112297
% es.Ez (V/m) @ t=0.62
-0.35864275323925643
% es.tEx (V/m) @ t=0.62
-1.4071237032876098
% es.tEy (V/m) @ t=0.62
0
% es.tEz (V/m) @ t=0.62
-0.35864275323925376
% V (V) @ t=0.62
0.008439683630464042
% es.normE (V/m) @ t=0.64
1.4699818859145557
% es.EX (V/m) @ t=0.64
-1.4203900035511774
% es.EY (V/m) @ t=0.64
0.10941863827804221
% es.EZ (V/m) @ t=0.64
-0.36202497889127794
% es.tEX (V/m) @ t=0.64
-1.4203900035511712
% es.tEY (V/m) @ t=0.64
0
% es.tEZ (V/m) @ t=0.64
-0.36202497889127727
% es.Ex (V/m) @ t=0.64
-1.4203900035511774
% es.Ey (V/m) @ t=0.64
0.10941863827804221
% es.Ez (V/m) @ t=0.64
-0.36202497889127794
% es.tEx (V/m) @ t=0.64
-1.4203900035511712
% es.tEy (V/m) @ t=0.64
0
% es.tEz (V/m) @ t=0.64
-0.36202497889127727
% V (V) @ t=0.64
0.0085193159522137
% es.normE (V/m) @ t=0.66
1.4837115808109806
% es.EX (V/m) @ t=0.66
-1.4336563038146748
% es.EY (V/m) @ t=0.66
0.11044021269495174
% es.EZ (V/m) @ t=0.66
-0.36540720454329345
% es.tEX (V/m) @ t=0.66
-1.4336563038146828
% es.tEY (V/m) @ t=0.66
0
% es.tEZ (V/m) @ t=0.66
-0.36540720454330256
% es.Ex (V/m) @ t=0.66
-1.4336563038146748
% es.Ey (V/m) @ t=0.66
0.11044021269495174
% es.Ez (V/m) @ t=0.66
-0.36540720454329345
% es.tEx (V/m) @ t=0.66
-1.4336563038146828
% es.tEy (V/m) @ t=0.66
0
% es.tEz (V/m) @ t=0.66
-0.36540720454330256
% V (V) @ t=0.66
0.008598948273963356
% es.normE (V/m) @ t=0.68
1.4974412757083213
% es.EX (V/m) @ t=0.68
-1.4469226040782255
% es.EY (V/m) @ t=0.68
0.11146178711188687
% es.EZ (V/m) @ t=0.68
-0.3687894301953234
% es.tEX (V/m) @ t=0.68
-1.4469226040782335
% es.tEY (V/m) @ t=0.68
0
% es.tEZ (V/m) @ t=0.68
-0.36878943019532784
% es.Ex (V/m) @ t=0.68
-1.4469226040782255
% es.Ey (V/m) @ t=0.68
0.11146178711188687
% es.Ez (V/m) @ t=0.68
-0.3687894301953234
% es.tEx (V/m) @ t=0.68
-1.4469226040782335
% es.tEy (V/m) @ t=0.68
0
% es.tEz (V/m) @ t=0.68
-0.36878943019532784
% V (V) @ t=0.68
0.008678580595713012
% es.normE (V/m) @ t=0.7
1.5111709706064755
% es.EX (V/m) @ t=0.7
-1.4601889043417566
% es.EY (V/m) @ t=0.7
0.11248336152881672
% es.EZ (V/m) @ t=0.7
-0.372171655847348
% es.tEX (V/m) @ t=0.7
-1.4601889043417522
% es.tEY (V/m) @ t=0.7
0
% es.tEZ (V/m) @ t=0.7
-0.37217165584735135
% es.Ex (V/m) @ t=0.7
-1.4601889043417566
% es.Ey (V/m) @ t=0.7
0.11248336152881672
% es.Ez (V/m) @ t=0.7
-0.372171655847348
% es.tEx (V/m) @ t=0.7
-1.4601889043417522
% es.tEy (V/m) @ t=0.7
0
% es.tEz (V/m) @ t=0.7
-0.37217165584735135
% V (V) @ t=0.7
0.008758212917462666
% es.normE (V/m) @ t=0.72
1.5249006655054345
% es.EX (V/m) @ t=0.72
-1.473455204605286
% es.EY (V/m) @ t=0.72
0.1135049359457404
% es.EZ (V/m) @ t=0.72
-0.37555388149935354
% es.tEX (V/m) @ t=0.72
-1.4734552046052904
% es.tEY (V/m) @ t=0.72
0
% es.tEZ (V/m) @ t=0.72
-0.3755538814993482
% es.Ex (V/m) @ t=0.72
-1.473455204605286
% es.Ey (V/m) @ t=0.72
0.1135049359457404
% es.Ez (V/m) @ t=0.72
-0.37555388149935354
% es.tEx (V/m) @ t=0.72
-1.4734552046052904
% es.tEy (V/m) @ t=0.72
0
% es.tEz (V/m) @ t=0.72
-0.3755538814993482
% V (V) @ t=0.72
0.008837845239212324
% es.normE (V/m) @ t=0.74
1.5386303604052047
% es.EX (V/m) @ t=0.74
-1.486721504868834
% es.EY (V/m) @ t=0.74
0.11452651036265615
% es.EZ (V/m) @ t=0.74
-0.37893610715136994
% es.tEX (V/m) @ t=0.74
-1.4867215048688376
% es.tEY (V/m) @ t=0.74
0
% es.tEZ (V/m) @ t=0.74
-0.3789361071513646
% es.Ex (V/m) @ t=0.74
-1.486721504868834
% es.Ey (V/m) @ t=0.74
0.11452651036265615
% es.Ez (V/m) @ t=0.74
-0.37893610715136994
% es.tEx (V/m) @ t=0.74
-1.4867215048688376
% es.tEy (V/m) @ t=0.74
0
% es.tEz (V/m) @ t=0.74
-0.3789361071513646
% V (V) @ t=0.74
0.00891747756096198
% es.normE (V/m) @ t=0.76
1.552360055305705
% es.EX (V/m) @ t=0.76
-1.4999878051323376
% es.EY (V/m) @ t=0.76
0.11554808477960649
% es.EZ (V/m) @ t=0.76
-0.3823183328033921
% es.tEX (V/m) @ t=0.76
-1.4999878051323385
% es.tEY (V/m) @ t=0.76
0
% es.tEZ (V/m) @ t=0.76
-0.382318332803397
% es.Ex (V/m) @ t=0.76
-1.4999878051323376
% es.Ey (V/m) @ t=0.76
0.11554808477960649
% es.Ez (V/m) @ t=0.76
-0.3823183328033921
% es.tEx (V/m) @ t=0.76
-1.4999878051323385
% es.tEy (V/m) @ t=0.76
0
% es.tEz (V/m) @ t=0.76
-0.382318332803397
% V (V) @ t=0.76
0.008997109882711634
% es.normE (V/m) @ t=0.78
1.5660897502069997
% es.EX (V/m) @ t=0.78
-1.5132541053958972
% es.EY (V/m) @ t=0.78
0.1165696591965043
% es.EZ (V/m) @ t=0.78
-0.38570055845539475
% es.tEX (V/m) @ t=0.78
-1.513254105395907
% es.tEY (V/m) @ t=0.78
0
% es.tEZ (V/m) @ t=0.78
-0.3857005584553992
% es.Ex (V/m) @ t=0.78
-1.5132541053958972
% es.Ey (V/m) @ t=0.78
0.1165696591965043
% es.Ez (V/m) @ t=0.78
-0.38570055845539475
% es.tEx (V/m) @ t=0.78
-1.513254105395907
% es.tEy (V/m) @ t=0.78
0
% es.tEz (V/m) @ t=0.78
-0.3857005584553992
% V (V) @ t=0.78
0.009076742204461292
% es.normE (V/m) @ t=0.8
1.5798194451090057
% es.EX (V/m) @ t=0.8
-1.5265204056594275
% es.EY (V/m) @ t=0.8
0.11759123361344836
% es.EZ (V/m) @ t=0.8
-0.3890827841074227
% es.tEX (V/m) @ t=0.8
-1.5265204056594257
% es.tEY (V/m) @ t=0.8
0
% es.tEZ (V/m) @ t=0.8
-0.3890827841074245
% es.Ex (V/m) @ t=0.8
-1.5265204056594275
% es.Ey (V/m) @ t=0.8
0.11759123361344836
% es.Ez (V/m) @ t=0.8
-0.3890827841074227
% es.tEx (V/m) @ t=0.8
-1.5265204056594257
% es.tEy (V/m) @ t=0.8
0
% es.tEz (V/m) @ t=0.8
-0.3890827841074245
% V (V) @ t=0.8
0.009156374526210948
% es.normE (V/m) @ t=0.82
1.5938969007238368
% es.EX (V/m) @ t=0.82
-1.5401228326418153
% es.EY (V/m) @ t=0.82
0.11863888610867518
% es.EZ (V/m) @ t=0.82
-0.392550224835023
% es.tEX (V/m) @ t=0.82
-1.5401228326418082
% es.tEY (V/m) @ t=0.82
0
% es.tEZ (V/m) @ t=0.82
-0.3925502248350252
% es.Ex (V/m) @ t=0.82
-1.5401228326418153
% es.Ey (V/m) @ t=0.82
0.11863888610867518
% es.Ez (V/m) @ t=0.82
-0.392550224835023
% es.tEx (V/m) @ t=0.82
-1.5401228326418082
% es.tEy (V/m) @ t=0.82
0
% es.tEz (V/m) @ t=0.82
-0.3925502248350252
% V (V) @ t=0.82
0.00923799273022251
% es.normE (V/m) @ t=0.84
1.6092397332970254
% es.EX (V/m) @ t=0.84
-1.5549483046374517
% es.EY (V/m) @ t=0.84
0.11978142741171355
% es.EZ (V/m) @ t=0.84
-0.396327732770537
% es.tEX (V/m) @ t=0.84
-1.5549483046374508
% es.tEY (V/m) @ t=0.84
0
% es.tEZ (V/m) @ t=0.84
-0.39632773277053346
% es.Ex (V/m) @ t=0.84
-1.5549483046374517
% es.Ey (V/m) @ t=0.84
0.11978142741171355
% es.Ez (V/m) @ t=0.84
-0.396327732770537
% es.tEx (V/m) @ t=0.84
-1.5549483046374508
% es.tEy (V/m) @ t=0.84
0
% es.tEz (V/m) @ t=0.84
-0.39632773277053346
% V (V) @ t=0.84
0.009326836850119168
% es.normE (V/m) @ t=0.86
1.6245825658715716
% es.EX (V/m) @ t=0.86
-1.5697737766330855
% es.EY (V/m) @ t=0.86
0.12092396871474942
% es.EZ (V/m) @ t=0.86
-0.4001052407060537
% es.tEX (V/m) @ t=0.86
-1.5697737766330757
% es.tEY (V/m) @ t=0.86
0
% es.tEZ (V/m) @ t=0.86
-0.40010524070605413
% es.Ex (V/m) @ t=0.86
-1.5697737766330855
% es.Ey (V/m) @ t=0.86
0.12092396871474942
% es.Ez (V/m) @ t=0.86
-0.4001052407060537
% es.tEx (V/m) @ t=0.86
-1.5697737766330757
% es.tEy (V/m) @ t=0.86
0
% es.tEz (V/m) @ t=0.86
-0.40010524070605413
% V (V) @ t=0.86
0.009415680970015824
% es.normE (V/m) @ t=0.88
1.6399253984474527
% es.EX (V/m) @ t=0.88
-1.5845992486287308
% es.EY (V/m) @ t=0.88
0.12206651001779589
% es.EZ (V/m) @ t=0.88
-0.40388274864157614
% es.tEX (V/m) @ t=0.88
-1.5845992486287148
% es.tEY (V/m) @ t=0.88
0
% es.tEZ (V/m) @ t=0.88
-0.40388274864158014
% es.Ex (V/m) @ t=0.88
-1.5845992486287308
% es.Ey (V/m) @ t=0.88
0.12206651001779589
% es.Ez (V/m) @ t=0.88
-0.40388274864157614
% es.tEx (V/m) @ t=0.88
-1.5845992486287148
% es.tEy (V/m) @ t=0.88
0
% es.tEz (V/m) @ t=0.88
-0.40388274864158014
% V (V) @ t=0.88
0.00950452508991248
% es.normE (V/m) @ t=0.9
1.6552682310245752
% es.EX (V/m) @ t=0.9
-1.5994247206243317
% es.EY (V/m) @ t=0.9
0.1232090513208236
% es.EZ (V/m) @ t=0.9
-0.4076602565771035
% es.tEX (V/m) @ t=0.9
-1.5994247206243308
% es.tEY (V/m) @ t=0.9
0
% es.tEZ (V/m) @ t=0.9
-0.4076602565771026
% es.Ex (V/m) @ t=0.9
-1.5994247206243317
% es.Ey (V/m) @ t=0.9
0.1232090513208236
% es.Ez (V/m) @ t=0.9
-0.4076602565771035
% es.tEx (V/m) @ t=0.9
-1.5994247206243308
% es.tEy (V/m) @ t=0.9
0
% es.tEz (V/m) @ t=0.9
-0.4076602565771026
% V (V) @ t=0.9
0.009593369209809138
% es.normE (V/m) @ t=0.92
1.6706110636029858
% es.EX (V/m) @ t=0.92
-1.614250192619969
% es.EY (V/m) @ t=0.92
0.12435159262388684
% es.EZ (V/m) @ t=0.92
-0.41143776451263436
% es.tEX (V/m) @ t=0.92
-1.61425019261997
% es.tEY (V/m) @ t=0.92
0
% es.tEZ (V/m) @ t=0.92
-0.41143776451263037
% es.Ex (V/m) @ t=0.92
-1.614250192619969
% es.Ey (V/m) @ t=0.92
0.12435159262388684
% es.Ez (V/m) @ t=0.92
-0.41143776451263436
% es.tEx (V/m) @ t=0.92
-1.61425019261997
% es.tEy (V/m) @ t=0.92
0
% es.tEz (V/m) @ t=0.92
-0.41143776451263037
% V (V) @ t=0.92
0.009682213329705794
% es.normE (V/m) @ t=0.94
1.6859538961825833
% es.EX (V/m) @ t=0.94
-1.6290756646155815
% es.EY (V/m) @ t=0.94
0.12549413392692088
% es.EZ (V/m) @ t=0.94
-0.41521527244815726
% es.tEX (V/m) @ t=0.94
-1.629075664615593
% es.tEY (V/m) @ t=0.94
0
% es.tEZ (V/m) @ t=0.94
-0.4152152724481528
% es.Ex (V/m) @ t=0.94
-1.6290756646155815
% es.Ey (V/m) @ t=0.94
0.12549413392692088
% es.Ez (V/m) @ t=0.94
-0.41521527244815726
% es.tEx (V/m) @ t=0.94
-1.629075664615593
% es.tEy (V/m) @ t=0.94
0
% es.tEz (V/m) @ t=0.94
-0.4152152724481528
% V (V) @ t=0.94
0.009771057449602454
% es.normE (V/m) @ t=0.96
1.7012967287633884
% es.EX (V/m) @ t=0.96
-1.6439011366112188
% es.EY (V/m) @ t=0.96
0.12663667522996014
% es.EZ (V/m) @ t=0.96
-0.4189927803836837
% es.tEX (V/m) @ t=0.96
-1.643901136611225
% es.tEY (V/m) @ t=0.96
0
% es.tEZ (V/m) @ t=0.96
-0.4189927803836859
% es.Ex (V/m) @ t=0.96
-1.6439011366112188
% es.Ey (V/m) @ t=0.96
0.12663667522996014
% es.Ez (V/m) @ t=0.96
-0.4189927803836837
% es.tEx (V/m) @ t=0.96
-1.643901136611225
% es.tEy (V/m) @ t=0.96
0
% es.tEz (V/m) @ t=0.96
-0.4189927803836859
% V (V) @ t=0.96
0.009859901569499108
% es.normE (V/m) @ t=0.98
1.716639561345336
% es.EX (V/m) @ t=0.98
-1.6587266086068482
% es.EY (V/m) @ t=0.98
0.1277792165329924
% es.EZ (V/m) @ t=0.98
-0.4227702883192115
% es.tEX (V/m) @ t=0.98
-1.6587266086068464
% es.tEY (V/m) @ t=0.98
0
% es.tEZ (V/m) @ t=0.98
-0.4227702883192084
% es.Ex (V/m) @ t=0.98
-1.6587266086068482
% es.Ey (V/m) @ t=0.98
0.1277792165329924
% es.Ez (V/m) @ t=0.98
-0.4227702883192115
% es.tEx (V/m) @ t=0.98
-1.6587266086068464
% es.tEy (V/m) @ t=0.98
0
% es.tEz (V/m) @ t=0.98
-0.4227702883192084
% V (V) @ t=0.98
0.009948745689395768
% es.normE (V/m) @ t=1
1.731982393928397
% es.EX (V/m) @ t=1
-1.6735520806024722
% es.EY (V/m) @ t=1
0.12892175783604143
% es.EZ (V/m) @ t=1
-0.4265477962547277
% es.tEX (V/m) @ t=1
-1.6735520806024713
% es.tEY (V/m) @ t=1
0
% es.tEZ (V/m) @ t=1
-0.42654779625472905
% es.Ex (V/m) @ t=1
-1.6735520806024722
% es.Ey (V/m) @ t=1
0.12892175783604143
% es.Ez (V/m) @ t=1
-0.4265477962547277
% es.tEx (V/m) @ t=1
-1.6735520806024713
% es.tEy (V/m) @ t=1
0
% es.tEz (V/m) @ t=1
-0.42654779625472905
% V (V) @ t=1
0.010037589809292424
% es.normE (V/m) @ t=1.02
1.7473252265125665
% es.EX (V/m) @ t=1.02
-1.6883775525981166
% es.EY (V/m) @ t=1.02
0.1300642991390656
% es.EZ (V/m) @ t=1.02
-0.4303253041902444
% es.tEX (V/m) @ t=1.02
-1.6883775525981086
% es.tEY (V/m) @ t=1.02
0
% es.tEZ (V/m) @ t=1.02
-0.4303253041902444
% es.Ex (V/m) @ t=1.02
-1.6883775525981166
% es.Ey (V/m) @ t=1.02
0.1300642991390656
% es.Ez (V/m) @ t=1.02
-0.4303253041902444
% es.tEx (V/m) @ t=1.02