% Model:              1x1--2 - Copy1.mph
% Version:            COMSOL 6.1.0.252
% Date:               Mar 28 2023, 11:11
% Dimension:          0
% Nodes:              14017
% Expressions:        14017
% Description:        Electric field norm, Electric field, X component, Electric field, Y component, Electric field, Z component, Tangential electric field, X component, Tangential electric field, Y component, Tangential electric field, Z component, Electric field, x component, Electric field, y component, Electric field, z component, Tangential electric field, x component, Tangential electric field, y component, Tangential electric field, z component, Electric potential
% Length unit:        mm
% x
0.9999999999999998
% y
12.2
% z
1.33
% es.normE (V/m) @ t=0
0.3639513249000612
% es.EX (V/m) @ t=0
0.24004960275361364
% es.EY (V/m) @ t=0
0.15708553825774296
% es.EZ (V/m) @ t=0
-0.18094587896855474
% es.tEX (V/m) @ t=0
0.24004960275361364
% es.tEY (V/m) @ t=0
0
% es.tEZ (V/m) @ t=0
-0.18094587896855474
% es.Ex (V/m) @ t=0
0.24004960275361364
% es.Ey (V/m) @ t=0
0.15708553825774296
% es.Ez (V/m) @ t=0
-0.18094587896855474
% es.tEx (V/m) @ t=0
0.24004960275361364
% es.tEy (V/m) @ t=0
0
% es.tEz (V/m) @ t=0
-0.18094587896855474
% V (V) @ t=0
0.010165312617785176
% es.normE (V/m) @ t=0.1
0.37447484803555564
% es.EX (V/m) @ t=0.1
0.2469905780905921
% es.EY (V/m) @ t=0.1
0.16162760762247697
% es.EZ (V/m) @ t=0.1
-0.18617783169764923
% es.tEX (V/m) @ t=0.1
0.24699057809059233
% es.tEY (V/m) @ t=0.1
0
% es.tEZ (V/m) @ t=0.1
-0.18617783169764923
% es.Ex (V/m) @ t=0.1
0.2469905780905921
% es.Ey (V/m) @ t=0.1
0.16162760762247697
% es.Ez (V/m) @ t=0.1
-0.18617783169764923
% es.tEx (V/m) @ t=0.1
0.24699057809059233
% es.tEy (V/m) @ t=0.1
0
% es.tEz (V/m) @ t=0.1
-0.18617783169764923
% V (V) @ t=0.1
0.010459235821602571
% es.normE (V/m) @ t=0.2
0.3975971924776732
% es.EX (V/m) @ t=0.2
0.2622400525965505
% es.EY (V/m) @ t=0.2
0.1716094662367964
% es.EZ (V/m) @ t=0.2
-0.19767247201209814
% es.tEX (V/m) @ t=0.2
0.2622400525965507
% es.tEY (V/m) @ t=0.2
0
% es.tEZ (V/m) @ t=0.2
-0.19767247201209814
% es.Ex (V/m) @ t=0.2
0.2622400525965505
% es.Ey (V/m) @ t=0.2
0.1716094662367964
% es.Ez (V/m) @ t=0.2
-0.19767247201209814
% es.tEx (V/m) @ t=0.2
0.2622400525965507
% es.tEy (V/m) @ t=0.2
0
% es.tEz (V/m) @ t=0.2
-0.19767247201209814
% V (V) @ t=0.2
0.011104342335636275
% es.normE (V/m) @ t=0.3
0.422687150559851
% es.EX (V/m) @ t=0.3
0.27878906548403837
% es.EY (V/m) @ t=0.3
0.18243768007454753
% es.EZ (V/m) @ t=0.3
-0.21014695652873705
% es.tEX (V/m) @ t=0.3
0.2787890654840386
% es.tEY (V/m) @ t=0.3
0
% es.tEZ (V/m) @ t=0.3
-0.21014695652873705
% es.Ex (V/m) @ t=0.3
0.27878906548403837
% es.Ey (V/m) @ t=0.3
0.18243768007454753
% es.Ez (V/m) @ t=0.3
-0.21014695652873705
% es.tEx (V/m) @ t=0.3
0.2787890654840386
% es.tEy (V/m) @ t=0.3
0
% es.tEz (V/m) @ t=0.3
-0.21014695652873705
% V (V) @ t=0.3
0.01180543503642778
% es.normE (V/m) @ t=0.4
0.44891885097339745
% es.EX (V/m) @ t=0.4
0.2960928437709971
% es.EY (V/m) @ t=0.4
0.19375588606181582
% es.EZ (V/m) @ t=0.4
-0.22319063557356955
% es.tEX (V/m) @ t=0.4
0.2960928437709973
% es.tEY (V/m) @ t=0.4
0
% es.tEZ (V/m) @ t=0.4
-0.22319063557356955
% es.Ex (V/m) @ t=0.4
0.2960928437709971
% es.Ey (V/m) @ t=0.4
0.19375588606181582
% es.Ez (V/m) @ t=0.4
-0.22319063557356955
% es.tEx (V/m) @ t=0.4
0.2960928437709973
% es.tEy (V/m) @ t=0.4
0
% es.tEz (V/m) @ t=0.4
-0.22319063557356955
% V (V) @ t=0.4
0.012539414783520986
% es.normE (V/m) @ t=0.5
0.4762824512421761
% es.EX (V/m) @ t=0.5
0.31414327251195906
% es.EY (V/m) @ t=0.5
0.20556248785838616
% es.EZ (V/m) @ t=0.5
-0.23679714238995864
% es.tEX (V/m) @ t=0.5
0.3141432725119593
% es.tEY (V/m) @ t=0.5
0
% es.tEZ (V/m) @ t=0.5
-0.23679714238995864
% es.Ex (V/m) @ t=0.5
0.31414327251195906
% es.Ey (V/m) @ t=0.5
0.20556248785838616
% es.Ez (V/m) @ t=0.5
-0.23679714238995864
% es.tEx (V/m) @ t=0.5
0.3141432725119593
% es.tEy (V/m) @ t=0.5
0
% es.tEz (V/m) @ t=0.5
-0.23679714238995864
% V (V) @ t=0.5
0.01330506073576331
% es.normE (V/m) @ t=0.6
0.5053612495960736
% es.EX (V/m) @ t=0.6
0.33331982467812016
% es.EY (V/m) @ t=0.6
0.2181178212639403
% es.EZ (V/m) @ t=0.6
-0.2512517100039906
% es.tEX (V/m) @ t=0.6
0.3333198246781204
% es.tEY (V/m) @ t=0.6
0
% es.tEZ (V/m) @ t=0.6
-0.2512517100039906
% es.Ex (V/m) @ t=0.6
0.33331982467812016
% es.Ey (V/m) @ t=0.6
0.2181178212639403
% es.Ez (V/m) @ t=0.6
-0.2512517100039906
% es.tEx (V/m) @ t=0.6
0.3333198246781204
% es.tEy (V/m) @ t=0.6
0
% es.tEz (V/m) @ t=0.6
-0.2512517100039906
% V (V) @ t=0.6
0.014115604936267128
% es.normE (V/m) @ t=0.7
0.535452139780281
% es.EX (V/m) @ t=0.7
0.35316510162827797
% es.EY (V/m) @ t=0.7
0.23110805018507108
% es.EZ (V/m) @ t=0.7
-0.2662105347827195
% es.tEX (V/m) @ t=0.7
0.3531651016282782
% es.tEY (V/m) @ t=0.7
0
% es.tEZ (V/m) @ t=0.7
-0.2662105347827195
% es.Ex (V/m) @ t=0.7
0.35316510162827797
% es.Ey (V/m) @ t=0.7
0.23110805018507108
% es.Ez (V/m) @ t=0.7
-0.2662105347827195
% es.tEx (V/m) @ t=0.7
0.3531651016282782
% es.tEy (V/m) @ t=0.7
0
% es.tEz (V/m) @ t=0.7
-0.2662105347827195
% V (V) @ t=0.7
0.014955107589380859
% es.normE (V/m) @ t=0.8
0.5669709125729213
% es.EX (V/m) @ t=0.8
0.3739538310559498
% es.EY (V/m) @ t=0.8
0.24471183981375422
% es.EZ (V/m) @ t=0.8
-0.28188077729670624
% es.tEX (V/m) @ t=0.8
0.37395383105595004
% es.tEY (V/m) @ t=0.8
0
% es.tEZ (V/m) @ t=0.8
-0.28188077729670624
% es.Ex (V/m) @ t=0.8
0.3739538310559498
% es.Ey (V/m) @ t=0.8
0.24471183981375422
% es.Ez (V/m) @ t=0.8
-0.28188077729670624
% es.tEx (V/m) @ t=0.8
0.37395383105595004
% es.tEy (V/m) @ t=0.8
0
% es.tEz (V/m) @ t=0.8
-0.28188077729670624
% V (V) @ t=0.8
0.015835465500910143
% es.normE (V/m) @ t=0.9
0.5997342825097628
% es.EX (V/m) @ t=0.9
0.39556490978081515
% es.EY (V/m) @ t=0.9
0.25885043244380723
% es.EZ (V/m) @ t=0.9
-0.29817111874364954
% es.tEX (V/m) @ t=0.9
0.3955649097808156
% es.tEY (V/m) @ t=0.9
0
% es.tEZ (V/m) @ t=0.9
-0.29817111874364954
% es.Ex (V/m) @ t=0.9
0.39556490978081515
% es.Ey (V/m) @ t=0.9
0.25885043244380723
% es.Ez (V/m) @ t=0.9
-0.29817111874364954
% es.tEx (V/m) @ t=0.9
0.3955649097808156
% es.tEy (V/m) @ t=0.9
0
% es.tEz (V/m) @ t=0.9
-0.29817111874364954
% V (V) @ t=0.9
0.016751434419719807
% es.normE (V/m) @ t=1
0.6343967190305395
% es.EX (V/m) @ t=1
0.41842787000858683
% es.EY (V/m) @ t=1
0.2738097894974003
% es.EZ (V/m) @ t=1
-0.3154050055922273
% es.tEX (V/m) @ t=1
0.4184278700085873
% es.tEY (V/m) @ t=1
0
% es.tEZ (V/m) @ t=1
-0.3154050055922273
% es.Ex (V/m) @ t=1
0.41842787000858683
% es.Ey (V/m) @ t=1
0.2738097894974003
% es.Ez (V/m) @ t=1
-0.3154050055922273
% es.tEx (V/m) @ t=1
0.4184278700085873
% es.tEy (V/m) @ t=1
0
% es.tEz (V/m) @ t=1
-0.3154050055922273
% V (V) @ t=1
0.017720050392616024
% es.normE (V/m) @ t=1.1
0.6707431507994488
% es.EX (V/m) @ t=1.1
0.44240155913616297
% es.EY (V/m) @ t=1.1
0.2894959385119562
% es.EZ (V/m) @ t=1.1
-0.3334761470674641
% es.tEX (V/m) @ t=1.1
0.44240155913616297
% es.tEY (V/m) @ t=1.1
0
% es.tEZ (V/m) @ t=1.1
-0.3334761470674641
% es.Ex (V/m) @ t=1.1
0.44240155913616297
% es.Ey (V/m) @ t=1.1
0.2894959385119562
% es.Ez (V/m) @ t=1.1
-0.3334761470674641
% es.tEx (V/m) @ t=1.1
0.44240155913616297
% es.tEy (V/m) @ t=1.1
0
% es.tEz (V/m) @ t=1.1
-0.3334761470674641
% V (V) @ t=1.1
0.0187357150446185
% es.normE (V/m) @ t=1.2
0.7087423176122818
% es.EX (V/m) @ t=1.2
0.4674654528536708
% es.EY (V/m) @ t=1.2
0.3058952339146668
% es.EZ (V/m) @ t=1.2
-0.3523690867119349
% es.tEX (V/m) @ t=1.2
0.46746545285367125
% es.tEY (V/m) @ t=1.2
0
% es.tEZ (V/m) @ t=1.2
-0.3523690867119349
% es.Ex (V/m) @ t=1.2
0.4674654528536708
% es.Ey (V/m) @ t=1.2
0.3058952339146668
% es.Ez (V/m) @ t=1.2
-0.3523690867119349
% es.tEx (V/m) @ t=1.2
0.46746545285367125
% es.tEy (V/m) @ t=1.2
0
% es.tEz (V/m) @ t=1.2
-0.3523690867119349
% V (V) @ t=1.2
0.019797609994636367
% es.normE (V/m) @ t=1.3
0.7488724600897345
% es.EX (V/m) @ t=1.3
0.49393323976591574
% es.EY (V/m) @ t=1.3
0.3232169361860051
% es.EZ (V/m) @ t=1.3
-0.3723200102310944
% es.tEX (V/m) @ t=1.3
0.4939332397659162
% es.tEY (V/m) @ t=1.3
0
% es.tEZ (V/m) @ t=1.3
-0.3723200102310944
% es.Ex (V/m) @ t=1.3
0.49393323976591574
% es.Ey (V/m) @ t=1.3
0.3232169361860051
% es.Ez (V/m) @ t=1.3
-0.3723200102310944
% es.tEx (V/m) @ t=1.3
0.4939332397659162
% es.tEy (V/m) @ t=1.3
0
% es.tEz (V/m) @ t=1.3
-0.3723200102310944
% V (V) @ t=1.3
0.020918077529055654
% es.normE (V/m) @ t=1.4
0.7908972967978658
% es.EX (V/m) @ t=1.4
0.5216499376461505
% es.EY (V/m) @ t=1.4
0.3413576572693353
% es.EZ (V/m) @ t=1.4
-0.3932122267856357
% es.tEX (V/m) @ t=1.4
0.5216499376461505
% es.tEY (V/m) @ t=1.4
0
% es.tEZ (V/m) @ t=1.4
-0.3932122267856357
% es.Ex (V/m) @ t=1.4
0.5216499376461505
% es.Ey (V/m) @ t=1.4
0.3413576572693353
% es.Ez (V/m) @ t=1.4
-0.3932122267856357
% es.tEx (V/m) @ t=1.4
0.5216499376461505
% es.tEy (V/m) @ t=1.4
0
% es.tEz (V/m) @ t=1.4
-0.3932122267856357
% V (V) @ t=1.4
0.022091019769284206
% es.normE (V/m) @ t=1.5
0.8348882820939152
% es.EX (V/m) @ t=1.5
0.5506630199832658
% es.EY (V/m) @ t=1.5
0.3603476745371994
% es.EZ (V/m) @ t=1.5
-0.4150815742470364
% es.tEX (V/m) @ t=1.5
0.5506630199832658
% es.tEY (V/m) @ t=1.5
0
% es.tEZ (V/m) @ t=1.5
-0.4150815742470364
% es.Ex (V/m) @ t=1.5
0.5506630199832658
% es.Ey (V/m) @ t=1.5
0.3603476745371994
% es.Ez (V/m) @ t=1.5
-0.4150815742470364
% es.tEx (V/m) @ t=1.5
0.5506630199832658
% es.tEy (V/m) @ t=1.5
0
% es.tEz (V/m) @ t=1.5
-0.4150815742470364
% V (V) @ t=1.5
0.023318633338401718
% es.normE (V/m) @ t=1.6
0.8811817036031041
% es.EX (V/m) @ t=1.6
0.5811959126334543
% es.EY (V/m) @ t=1.6
0.38032948326506855
% es.EZ (V/m) @ t=1.6
-0.4380967174276922
% es.tEX (V/m) @ t=1.6
0.5811959126334547
% es.tEY (V/m) @ t=1.6
0
% es.tEZ (V/m) @ t=1.6
-0.4380967174276922
% es.Ex (V/m) @ t=1.6
0.5811959126334543
% es.Ey (V/m) @ t=1.6
0.38032948326506855
% es.Ez (V/m) @ t=1.6
-0.4380967174276922
% es.tEx (V/m) @ t=1.6
0.5811959126334547
% es.tEy (V/m) @ t=1.6
0
% es.tEz (V/m) @ t=1.6
-0.4380967174276922
% V (V) @ t=1.6
0.02461125626723776
% es.normE (V/m) @ t=1.7
0.929594633561484
% es.EX (V/m) @ t=1.7
0.6131270803790265
% es.EY (V/m) @ t=1.7
0.4012255714110413
% es.EZ (V/m) @ t=1.7
-0.46216590904711374
% es.tEX (V/m) @ t=1.7
0.613127080379027
% es.tEY (V/m) @ t=1.7
0
% es.tEZ (V/m) @ t=1.7
-0.46216590904711374
% es.Ex (V/m) @ t=1.7
0.6131270803790265
% es.Ey (V/m) @ t=1.7
0.4012255714110413
% es.Ez (V/m) @ t=1.7
-0.46216590904711374
% es.tEx (V/m) @ t=1.7
0.613127080379027
% es.tEy (V/m) @ t=1.7
0
% es.tEz (V/m) @ t=1.7
-0.46216590904711374
% V (V) @ t=1.7
0.025963265057914978
% es.normE (V/m) @ t=1.8
0.9801679423330161
% es.EX (V/m) @ t=1.8
0.6464834229987608
% es.EY (V/m) @ t=1.8
0.42305367203765076
% es.EZ (V/m) @ t=1.8
-0.4873094169978245
% es.tEX (V/m) @ t=1.8
0.6464834229987613
% es.tEY (V/m) @ t=1.8
0
% es.tEZ (V/m) @ t=1.8
-0.4873094169978245
% es.Ex (V/m) @ t=1.8
0.6464834229987608
% es.Ey (V/m) @ t=1.8
0.42305367203765076
% es.Ez (V/m) @ t=1.8
-0.4873094169978245
% es.tEx (V/m) @ t=1.8
0.6464834229987613
% es.tEy (V/m) @ t=1.8
0
% es.tEz (V/m) @ t=1.8
-0.4873094169978245
% V (V) @ t=1.8
0.02737576807273501
% es.normE (V/m) @ t=1.9
1.0330144203076133
% es.EX (V/m) @ t=1.9
0.6813391761037235
% es.EY (V/m) @ t=1.9
0.4458627232697898
% es.EZ (V/m) @ t=1.9
-0.5135831748023651
% es.tEX (V/m) @ t=1.9
0.6813391761037235
% es.tEY (V/m) @ t=1.9
0
% es.tEZ (V/m) @ t=1.9
-0.5135831748023651
% es.Ex (V/m) @ t=1.9
0.6813391761037235
% es.Ey (V/m) @ t=1.9
0.4458627232697898
% es.Ez (V/m) @ t=1.9
-0.5135831748023651
% es.tEx (V/m) @ t=1.9
0.6813391761037235
% es.tEy (V/m) @ t=1.9
0
% es.tEz (V/m) @ t=1.9
-0.5135831748023651
% V (V) @ t=1.9
0.028851824071139284
% es.normE (V/m) @ t=2
1.088127483922984
% es.EX (V/m) @ t=2
0.7176900065695495
% es.EY (V/m) @ t=2
0.46964986859455227
% es.EZ (V/m) @ t=2
-0.5409839176273561
% es.tEX (V/m) @ t=2
0.71769000656955
% es.tEY (V/m) @ t=2
0
% es.tEZ (V/m) @ t=2
-0.5409839176273561
% es.Ex (V/m) @ t=2
0.7176900065695495
% es.Ey (V/m) @ t=2
0.46964986859455227
% es.Ez (V/m) @ t=2
-0.5409839176273561
% es.tEx (V/m) @ t=2
0.71769000656955
% es.tEy (V/m) @ t=2
0
% es.tEz (V/m) @ t=2
-0.5409839176273561
% V (V) @ t=2
0.030391254513685146
% es.normE (V/m) @ t=2.1
1.1455420843254411
% es.EX (V/m) @ t=2.1
0.7555589183036928
% es.EY (V/m) @ t=2.1
0.49443027281057805
% es.EZ (V/m) @ t=2.1
-0.5695289779841453
% es.tEX (V/m) @ t=2.1
0.7555589183036933
% es.tEY (V/m) @ t=2.1
0
% es.tEZ (V/m) @ t=2.1
-0.5695289779841453
% es.Ex (V/m) @ t=2.1
0.7555589183036928
% es.Ey (V/m) @ t=2.1
0.49443027281057805
% es.Ez (V/m) @ t=2.1
-0.5695289779841453
% es.tEx (V/m) @ t=2.1
0.7555589183036933
% es.tEy (V/m) @ t=2.1
0
% es.tEz (V/m) @ t=2.1
-0.5695289779841453
% V (V) @ t=2.1
0.03199500723952855
% es.normE (V/m) @ t=2.2
1.2052931726610285
% es.EX (V/m) @ t=2.2
0.7949689152134924
% es.EY (V/m) @ t=2.2
0.5202191007164698
% es.EZ (V/m) @ t=2.2
-0.5992356883841286
% es.tEX (V/m) @ t=2.2
0.7949689152134929
% es.tEY (V/m) @ t=2.2
0
% es.tEZ (V/m) @ t=2.2
-0.5992356883841286
% es.Ex (V/m) @ t=2.2
0.7949689152134924
% es.Ey (V/m) @ t=2.2
0.5202191007164698
% es.Ez (V/m) @ t=2.2
-0.5992356883841286
% es.tEx (V/m) @ t=2.2
0.7949689152134929
% es.tEy (V/m) @ t=2.2
0
% es.tEz (V/m) @ t=2.2
-0.5992356883841286
% V (V) @ t=2.2
0.0336640300878254
% es.normE (V/m) @ t=2.3
1.26741570007545
% es.EX (V/m) @ t=2.3
0.8359430012062017
% es.EY (V/m) @ t=2.3
0.547031517110824
% es.EZ (V/m) @ t=2.3
-0.6301213813385846
% es.tEX (V/m) @ t=2.3
0.8359430012062026
% es.tEY (V/m) @ t=2.3
0
% es.tEZ (V/m) @ t=2.3
-0.6301213813385846
% es.Ex (V/m) @ t=2.3
0.8359430012062017
% es.Ey (V/m) @ t=2.3
0.547031517110824
% es.Ez (V/m) @ t=2.3
-0.6301213813385846
% es.tEx (V/m) @ t=2.3
0.8359430012062026
% es.tEy (V/m) @ t=2.3
0
% es.tEz (V/m) @ t=2.3
-0.6301213813385846
% V (V) @ t=2.3
0.03539927089773162
% es.normE (V/m) @ t=2.4
1.331560484988616
% es.EX (V/m) @ t=2.4
0.8782505982793944
% es.EY (V/m) @ t=2.4
0.5747172523331532
% es.EZ (V/m) @ t=2.4
-0.6620122090124827
% es.tEX (V/m) @ t=2.4
0.8782505982793944
% es.tEY (V/m) @ t=2.4
0
% es.tEZ (V/m) @ t=2.4
-0.6620122090124827
% es.Ex (V/m) @ t=2.4
0.8782505982793944
% es.Ey (V/m) @ t=2.4
0.5747172523331532
% es.Ez (V/m) @ t=2.4
-0.6620122090124827
% es.tEx (V/m) @ t=2.4
0.8782505982793944
% es.tEy (V/m) @ t=2.4
0
% es.tEz (V/m) @ t=2.4
-0.6620122090124827
% V (V) @ t=2.4
0.03719081962790817
% es.normE (V/m) @ t=2.5
1.3976837318129327
% es.EX (V/m) @ t=2.5
0.9218627263625674
% es.EY (V/m) @ t=2.5
0.6032575573224834
% es.EZ (V/m) @ t=2.5
-0.6948863121826001
% es.tEX (V/m) @ t=2.5
0.9218627263625683
% es.tEY (V/m) @ t=2.5
0
% es.tEZ (V/m) @ t=2.5
-0.6948863121826001
% es.Ex (V/m) @ t=2.5
0.9218627263625674
% es.Ey (V/m) @ t=2.5
0.6032575573224834
% es.Ez (V/m) @ t=2.5
-0.6948863121826001
% es.tEx (V/m) @ t=2.5
0.9218627263625683
% es.tEy (V/m) @ t=2.5
0
% es.tEz (V/m) @ t=2.5
-0.6948863121826001
% V (V) @ t=2.5
0.03903739826543883
% es.normE (V/m) @ t=2.6
1.4659052372843533
% es.EX (V/m) @ t=2.6
0.9668583994474131
% es.EY (V/m) @ t=2.6
0.6327041373311291
% es.EZ (V/m) @ t=2.6
-0.7288032504551083
% es.tEX (V/m) @ t=2.6
0.9668583994474131
% es.tEY (V/m) @ t=2.6
0
% es.tEZ (V/m) @ t=2.6
-0.7288032504551083
% es.Ex (V/m) @ t=2.6
0.9668583994474131
% es.Ey (V/m) @ t=2.6
0.6327041373311291
% es.Ez (V/m) @ t=2.6
-0.7288032504551083
% es.tEx (V/m) @ t=2.6
0.9668583994474131
% es.tEy (V/m) @ t=2.6
0
% es.tEz (V/m) @ t=2.6
-0.7288032504551083
% V (V) @ t=2.6
0.040942352891549474
% es.normE (V/m) @ t=2.7
1.5362009974523323
% es.EX (V/m) @ t=2.7
1.0132217027401902
% es.EY (V/m) @ t=2.7
0.6630467669621662
% es.EZ (V/m) @ t=2.7
-0.7637510147736695
% es.tEX (V/m) @ t=2.7
1.0132217027401902
% es.tEY (V/m) @ t=2.7
0
% es.tEZ (V/m) @ t=2.7
-0.7637510147736695
% es.Ex (V/m) @ t=2.7
1.0132217027401902
% es.Ey (V/m) @ t=2.7
0.6630467669621662
% es.Ez (V/m) @ t=2.7
-0.7637510147736695
% es.tEx (V/m) @ t=2.7
1.0132217027401902
% es.tEy (V/m) @ t=2.7
0
% es.tEz (V/m) @ t=2.7
-0.7637510147736695
% V (V) @ t=2.7
0.04290496492286615
% es.normE (V/m) @ t=2.8
1.608547008368142
% es.EX (V/m) @ t=2.8
1.0609367214468044
% es.EY (V/m) @ t=2.8
0.6942752208184562
% es.EZ (V/m) @ t=2.8
-0.7997175960817771
% es.tEX (V/m) @ t=2.8
1.0609367214468044
% es.tEY (V/m) @ t=2.8
0
% es.tEZ (V/m) @ t=2.8
-0.7997175960817771
% es.Ex (V/m) @ t=2.8
1.0609367214468044
% es.Ey (V/m) @ t=2.8
0.6942752208184562
% es.Ez (V/m) @ t=2.8
-0.7997175960817771
% es.tEx (V/m) @ t=2.8
1.0609367214468044
% es.tEy (V/m) @ t=2.8
0
% es.tEz (V/m) @ t=2.8
-0.7997175960817771
% V (V) @ t=2.8
0.04492451577601489
% es.normE (V/m) @ t=2.9
1.6829192660863237
% es.EX (V/m) @ t=2.9
1.1099875407734618
% es.EY (V/m) @ t=2.9
0.7263792735030208
% es.EZ (V/m) @ t=2.9
-0.8366909853230666
% es.tEX (V/m) @ t=2.9
1.1099875407734627
% es.tEY (V/m) @ t=2.9
0
% es.tEZ (V/m) @ t=2.9
-0.8366909853230666
% es.Ex (V/m) @ t=2.9
1.1099875407734618
% es.Ey (V/m) @ t=2.9
0.7263792735030208
% es.Ez (V/m) @ t=2.9
-0.8366909853230666
% es.tEx (V/m) @ t=2.9
1.1099875407734627
% es.tEy (V/m) @ t=2.9
0
% es.tEz (V/m) @ t=2.9
-0.8366909853230666
% V (V) @ t=2.9
0.04700028686762178
% es.normE (V/m) @ t=3
1.757322250892218
% es.EX (V/m) @ t=3
1.1590624137909273
% es.EY (V/m) @ t=3
0.7584904011376814
% es.EZ (V/m) @ t=3
-0.8736830889737845
% es.tEX (V/m) @ t=3
1.1590624137909282
% es.tEY (V/m) @ t=3
0
% es.tEZ (V/m) @ t=3
-0.8736830889737845
% es.Ex (V/m) @ t=3
1.1590624137909273
% es.Ey (V/m) @ t=3
0.7584904011376814
% es.Ez (V/m) @ t=3
-0.8736830889737845
% es.tEx (V/m) @ t=3
1.1590624137909282
% es.tEy (V/m) @ t=3
0
% es.tEz (V/m) @ t=3
-0.8736830889737845
% V (V) @ t=3
0.04907912310139568
% es.normE (V/m) @ t=3.1
1.8326789593790767
% es.EX (V/m) @ t=3.1
1.2087678674565545
% es.EY (V/m) @ t=3.1
0.7910106545726965
% es.EZ (V/m) @ t=3.1
-0.9111507517037829
% es.tEX (V/m) @ t=3.1
1.2087678674565554
% es.tEY (V/m) @ t=3.1
0
% es.tEZ (V/m) @ t=3.1
-0.9111507517037829
% es.Ex (V/m) @ t=3.1
1.2087678674565545
% es.Ey (V/m) @ t=3.1
0.7910106545726965
% es.Ez (V/m) @ t=3.1
-0.9111507517037829
% es.tEx (V/m) @ t=3.1
1.2087678674565554
% es.tEy (V/m) @ t=3.1
0
% es.tEz (V/m) @ t=3.1
-0.9111507517037829
% V (V) @ t=3.1
0.051185493319125225
% es.normE (V/m) @ t=3.2
1.9088596489198872
% es.EX (V/m) @ t=3.2
1.2590184873459034
% es.EY (V/m) @ t=3.2
0.8238837751125807
% es.EZ (V/m) @ t=3.2
-0.9490296139183272
% es.tEX (V/m) @ t=3.2
1.2590184873459043
% es.tEY (V/m) @ t=3.2
0
% es.tEZ (V/m) @ t=3.2
-0.9490296139183272
% es.Ex (V/m) @ t=3.2
1.2590184873459034
% es.Ey (V/m) @ t=3.2
0.8238837751125807
% es.Ez (V/m) @ t=3.2
-0.9490296139183272
% es.tEx (V/m) @ t=3.2
1.2590184873459043
% es.tEy (V/m) @ t=3.2
0
% es.tEz (V/m) @ t=3.2
-0.9490296139183272
% V (V) @ t=3.2
0.05331586659919364
% es.normE (V/m) @ t=3.3
1.9856929058021409
% es.EX (V/m) @ t=3.3
1.3097014695694984
% es.EY (V/m) @ t=3.3
0.8570353625639022
% es.EZ (V/m) @ t=3.3
-0.9872346849312237
% es.tEX (V/m) @ t=3.3
1.3097014695694993
% es.tEY (V/m) @ t=3.3
0
% es.tEZ (V/m) @ t=3.3
-0.9872346849312237
% es.Ex (V/m) @ t=3.3
1.3097014695694984
% es.Ey (V/m) @ t=3.3
0.8570353625639022
% es.Ez (V/m) @ t=3.3
-0.9872346849312237
% es.tEx (V/m) @ t=3.3
1.3097014695694993
% es.tEy (V/m) @ t=3.3
0
% es.tEz (V/m) @ t=3.3
-0.9872346849312237
% V (V) @ t=3.3
0.055465603691214595
% es.normE (V/m) @ t=3.4
2.0630073163421936
% es.EX (V/m) @ t=3.4
1.360704010237952
% es.EY (V/m) @ t=3.4
0.8903910167333109
% es.EZ (V/m) @ t=3.4
-1.0256809740563
% es.tEX (V/m) @ t=3.4
1.3607040102379528
% es.tEY (V/m) @ t=3.4
0
% es.tEZ (V/m) @ t=3.4
-1.0256809740563
% es.Ex (V/m) @ t=3.4
1.360704010237952
% es.Ey (V/m) @ t=3.4
0.8903910167333109
% es.Ez (V/m) @ t=3.4
-1.0256809740563
% es.tEx (V/m) @ t=3.4
1.3607040102379528
% es.tEy (V/m) @ t=3.4
0
% es.tEz (V/m) @ t=3.4
-1.0256809740563
% V (V) @ t=3.4
0.05763006534480172
% es.normE (V/m) @ t=3.5
2.1400826762994374
% es.EX (V/m) @ t=3.5
1.4115493494642788
% es.EY (V/m) @ t=3.5
0.9236427289643476
% es.EZ (V/m) @ t=3.5
-1.064008839309821
% es.tEX (V/m) @ t=3.5
1.4115493494642797
% es.tEY (V/m) @ t=3.5
0
% es.tEZ (V/m) @ t=3.5
-1.064008839309821
% es.Ex (V/m) @ t=3.5
1.4115493494642788
% es.Ey (V/m) @ t=3.5
0.9236427289643476
% es.Ez (V/m) @ t=3.5
-1.064008839309821
% es.tEx (V/m) @ t=3.5
1.4115493494642797
% es.tEy (V/m) @ t=3.5
0
% es.tEz (V/m) @ t=3.5
-1.064008839309821
% V (V) @ t=3.5
0.05978812294993546
% es.normE (V/m) @ t=3.6
2.215213217543692
% es.EX (V/m) @ t=3.6
1.4611071049395292
% es.EY (V/m) @ t=3.6
0.9560629571127457
% es.EZ (V/m) @ t=3.6
-1.1013653970873563
% es.tEX (V/m) @ t=3.6
1.46110710493953
% es.tEY (V/m) @ t=3.6
0
% es.tEZ (V/m) @ t=3.6
-1.1013653970873563
% es.Ex (V/m) @ t=3.6
1.4611071049395292
% es.Ey (V/m) @ t=3.6
0.9560629571127457
% es.Ez (V/m) @ t=3.6
-1.1013653970873563
% es.tEx (V/m) @ t=3.6
1.46110710493953
% es.tEy (V/m) @ t=3.6
0
% es.tEz (V/m) @ t=3.6
-1.1013653970873563
% V (V) @ t=3.6
0.061889034934473404
% es.normE (V/m) @ t=3.7
2.289133562125604
% es.EX (V/m) @ t=3.7
1.5098653526007455
% es.EY (V/m) @ t=3.7
0.9879629811593684
% es.EZ (V/m) @ t=3.7
-1.138119097297249
% es.tEX (V/m) @ t=3.7
1.5098653526007464
% es.tEY (V/m) @ t=3.7
0
% es.tEZ (V/m) @ t=3.7
-1.138119097297249
% es.Ex (V/m) @ t=3.7
1.5098653526007455
% es.Ey (V/m) @ t=3.7
0.9879629811593684
% es.Ez (V/m) @ t=3.7
-1.138119097297249
% es.tEx (V/m) @ t=3.7
1.5098653526007464
% es.tEy (V/m) @ t=3.7
0
% es.tEz (V/m) @ t=3.7
-1.138119097297249
% V (V) @ t=3.7
0.06395538545860341
% es.normE (V/m) @ t=3.8
2.3615035026445903
% es.EX (V/m) @ t=3.8
1.5575993452144958
% es.EY (V/m) @ t=3.8
1.0191965490584582
% es.EZ (V/m) @ t=3.8
-1.1741004736987897
% es.tEX (V/m) @ t=3.8
1.5575993452144967
% es.tEY (V/m) @ t=3.8
0
% es.tEZ (V/m) @ t=3.8
-1.1741004736987897
% es.Ex (V/m) @ t=3.8
1.5575993452144958
% es.Ey (V/m) @ t=3.8
1.0191965490584582
% es.Ez (V/m) @ t=3.8
-1.1741004736987897
% es.tEx (V/m) @ t=3.8
1.5575993452144967
% es.tEy (V/m) @ t=3.8
0
% es.tEz (V/m) @ t=3.8
-1.1741004736987897
% V (V) @ t=3.8
0.06597746357625257
% es.normE (V/m) @ t=3.9
2.4319828317135315
% es.EX (V/m) @ t=3.9
1.6040843355467187
% es.EY (V/m) @ t=3.9
1.0496174087642043
% es.EZ (V/m) @ t=3.9
-1.2091400600509914
% es.tEX (V/m) @ t=3.9
1.6040843355467196
% es.tEY (V/m) @ t=3.9
0
% es.tEZ (V/m) @ t=3.9
-1.2091400600509914
% es.Ex (V/m) @ t=3.9
1.6040843355467187
% es.Ey (V/m) @ t=3.9
1.0496174087642043
% es.Ez (V/m) @ t=3.9
-1.2091400600509914
% es.tEx (V/m) @ t=3.9
1.6040843355467196
% es.tEy (V/m) @ t=3.9
0
% es.tEz (V/m) @ t=3.9
-1.2091400600509914
% V (V) @ t=3.9
0.06794555834134797
% es.normE (V/m) @ t=4
2.500231341969159
% es.EX (V/m) @ t=4
1.649095576363747
% es.EY (V/m) @ t=4
1.0790793082307797
% es.EZ (V/m) @ t=4
-1.2430683901130415
% es.tEX (V/m) @ t=4
1.649095576363747
% es.tEY (V/m) @ t=4
0
% es.tEZ (V/m) @ t=4
-1.2430683901130415
% es.Ex (V/m) @ t=4
1.649095576363747
% es.Ey (V/m) @ t=4
1.0790793082307797
% es.Ez (V/m) @ t=4
-1.2430683901130415
% es.tEx (V/m) @ t=4
1.649095576363747
% es.tEy (V/m) @ t=4
0
% es.tEz (V/m) @ t=4
-1.2430683901130415
% V (V) @ t=4
0.0698499588078167
% es.normE (V/m) @ t=4.1
2.565745359065239
% es.EX (V/m) @ t=4.1
1.6923029532253029
% es.EY (V/m) @ t=4.1
1.1073614396143583
% es.EZ (V/m) @ t=4.1
-1.2756369491393649
% es.tEX (V/m) @ t=4.1
1.6923029532253029
% es.tEY (V/m) @ t=4.1
0
% es.tEZ (V/m) @ t=4.1
-1.2756369491393649
% es.Ex (V/m) @ t=4.1
1.6923029532253029
% es.Ey (V/m) @ t=4.1
1.1073614396143583
% es.Ez (V/m) @ t=4.1
-1.2756369491393649
% es.tEx (V/m) @ t=4.1
1.6923029532253029
% es.tEy (V/m) @ t=4.1
0
% es.tEz (V/m) @ t=4.1
-1.2756369491393649
% V (V) @ t=4.1
0.07167781657197207
% es.normE (V/m) @ t=4.2
2.6281194441972175
% es.EX (V/m) @ t=4.2
1.733439672169549
% es.EY (V/m) @ t=4.2
1.134287799417189
% es.EZ (V/m) @ t=4.2
-1.30664472662491
% es.tEX (V/m) @ t=4.2
1.733439672169549
% es.tEY (V/m) @ t=4.2
0
% es.tEZ (V/m) @ t=4.2
-1.30664472662491
% es.Ex (V/m) @ t=4.2
1.733439672169549
% es.Ey (V/m) @ t=4.2
1.134287799417189
% es.Ez (V/m) @ t=4.2
-1.30664472662491
% es.tEx (V/m) @ t=4.2
1.733439672169549
% es.tEy (V/m) @ t=4.2
0
% es.tEz (V/m) @ t=4.2
-1.30664472662491
% V (V) @ t=4.2
0.07341816868693898
% es.normE (V/m) @ t=4.3
2.6870800790580454
% es.EX (V/m) @ t=4.3
1.772323972251991
% es.EY (V/m) @ t=4.3
1.1597425518606936
% es.EZ (V/m) @ t=4.3
-1.3359545054699176
% es.tEX (V/m) @ t=4.3
1.772323972251991
% es.tEY (V/m) @ t=4.3
0
% es.tEZ (V/m) @ t=4.3
-1.3359545054699176
% es.Ex (V/m) @ t=4.3
1.772323972251991
% es.Ey (V/m) @ t=4.3
1.1597425518606936
% es.Ez (V/m) @ t=4.3
-1.3359545054699176
% es.tEx (V/m) @ t=4.3
1.772323972251991
% es.tEy (V/m) @ t=4.3
0
% es.tEz (V/m) @ t=4.3
-1.3359545054699176
% V (V) @ t=4.3
0.07506258418421195
% es.normE (V/m) @ t=4.4
2.7422648019168596
% es.EX (V/m) @ t=4.4
1.80871676156419
% es.EY (V/m) @ t=4.4
1.1835692948846006
% es.EZ (V/m) @ t=4.4
-1.3633860577825914
% es.tEX (V/m) @ t=4.4
1.80871676156419
% es.tEY (V/m) @ t=4.4
0
% es.tEZ (V/m) @ t=4.4
-1.3633860577825914
% es.Ex (V/m) @ t=4.4
1.80871676156419
% es.Ey (V/m) @ t=4.4
1.1835692948846006
% es.Ez (V/m) @ t=4.4
-1.3633860577825914
% es.tEx (V/m) @ t=4.4
1.80871676156419
% es.tEy (V/m) @ t=4.4
0
% es.tEz (V/m) @ t=4.4
-1.3633860577825914
% V (V) @ t=4.4
0.07660092498473803
% es.normE (V/m) @ t=4.5
2.793311151047575
% es.EX (V/m) @ t=4.5
1.8423789481977497
% es.EY (V/m) @ t=4.5
1.2056116264287944
% es.EZ (V/m) @ t=4.5
-1.3887591556713446
% es.tEX (V/m) @ t=4.5
1.8423789481977515
% es.tEY (V/m) @ t=4.5
0
% es.tEZ (V/m) @ t=4.5
-1.3887591556713446
% es.Ex (V/m) @ t=4.5
1.8423789481977497
% es.Ey (V/m) @ t=4.5
1.2056116264287944
% es.Ez (V/m) @ t=4.5
-1.3887591556713446
% es.tEx (V/m) @ t=4.5
1.8423789481977515
% es.tEy (V/m) @ t=4.5
0
% es.tEz (V/m) @ t=4.5
-1.3887591556713446
% V (V) @ t=4.5
0.07802305300946416
% es.normE (V/m) @ t=4.6
2.83985666472818
% es.EX (V/m) @ t=4.6
1.8730714402438995
% es.EY (V/m) @ t=4.6
1.2257131444328362
% es.EZ (V/m) @ t=4.6
-1.411893571244324
% es.tEX (V/m) @ t=4.6
1.8730714402438995
% es.tEY (V/m) @ t=4.6
0
% es.tEZ (V/m) @ t=4.6
-1.411893571244324
% es.Ex (V/m) @ t=4.6
1.8730714402438995
% es.Ey (V/m) @ t=4.6
1.2257131444328362
% es.Ez (V/m) @ t=4.6
-1.411893571244324
% es.tEx (V/m) @ t=4.6
1.8730714402438995
% es.tEy (V/m) @ t=4.6
0
% es.tEz (V/m) @ t=4.6
-1.411893571244324
% V (V) @ t=4.6
0.07931883017933744
% es.normE (V/m) @ t=4.7
2.883679398656809
% es.EX (V/m) @ t=4.7
1.9019698942637788
% es.EY (V/m) @ t=4.7
1.2446365169347224
% es.EZ (V/m) @ t=4.7
-1.433675947992434
% es.tEX (V/m) @ t=4.7
1.9019698942637806
% es.tEY (V/m) @ t=4.7
0
% es.tEZ (V/m) @ t=4.7
-1.433675947992434
% es.Ex (V/m) @ t=4.7
1.9019698942637788
% es.Ey (V/m) @ t=4.7
1.2446365169347224
% es.Ez (V/m) @ t=4.7
-1.433675947992434
% es.tEx (V/m) @ t=4.7
1.9019698942637806
% es.tEy (V/m) @ t=4.7
0
% es.tEz (V/m) @ t=4.7
-1.433675947992434
% V (V) @ t=4.7
0.08053961460866496
% es.normE (V/m) @ t=4.8
2.9236495818248587
% es.EX (V/m) @ t=4.8
1.9283280748289346
% es.EY (V/m) @ t=4.8
1.2618958837019747
% es.EZ (V/m) @ t=4.8
-1.453543617667993
% es.tEX (V/m) @ t=4.8
1.9283280748289364
% es.tEY (V/m) @ t=4.8
0
% es.tEZ (V/m) @ t=4.8
-1.453543617667993
% es.Ex (V/m) @ t=4.8
1.9283280748289346
% es.Ey (V/m) @ t=4.8
1.2618958837019747
% es.Ez (V/m) @ t=4.8
-1.453543617667993
% es.tEx (V/m) @ t=4.8
1.9283280748289364
% es.tEy (V/m) @ t=4.8
0
% es.tEz (V/m) @ t=4.8
-1.453543617667993
% V (V) @ t=4.8
0.0816532237372449
% es.normE (V/m) @ t=4.9
2.959381530277359
% es.EX (V/m) @ t=4.9
1.951891541613243
% es.EY (V/m) @ t=4.9
1.2773248718054617
% es.EZ (V/m) @ t=4.9
-1.4713047780338009
% es.tEX (V/m) @ t=4.9
1.9518915416132447
% es.tEY (V/m) @ t=4.9
0
% es.tEZ (V/m) @ t=4.9
-1.4713047780338009
% es.Ex (V/m) @ t=4.9
1.951891541613243
% es.Ey (V/m) @ t=4.9
1.2773248718054617
% es.Ez (V/m) @ t=4.9
-1.4713047780338009
% es.tEx (V/m) @ t=4.9
1.9518915416132447
% es.tEy (V/m) @ t=4.9
0
% es.tEz (V/m) @ t=4.9
-1.4713047780338009
% V (V) @ t=4.9
0.08264885232201098
% es.normE (V/m) @ t=5
2.990690736967216
% es.EX (V/m) @ t=5
1.9725388196756963
% es.EY (V/m) @ t=5
1.2908434872816237
% es.EZ (V/m) @ t=5
-1.486867896948283
% es.tEX (V/m) @ t=5
1.972538819675698
% es.tEY (V/m) @ t=5
0
% es.tEZ (V/m) @ t=5
-1.486867896948283
% es.Ex (V/m) @ t=5
1.9725388196756963
% es.Ey (V/m) @ t=5
1.2908434872816237
% es.Ez (V/m) @ t=5
-1.486867896948283
% es.tEx (V/m) @ t=5
1.972538819675698
% es.tEy (V/m) @ t=5
0
% es.tEz (V/m) @ t=5
-1.486867896948283
% V (V) @ t=5
0.0835214748505253
% es.normE (V/m) @ t=5.1
3.0173926948479046
% es.EX (V/m) @ t=5.1
1.9901484340757651
% es.EY (V/m) @ t=5.1
1.3023717361669238
% es.EZ (V/m) @ t=5.1
-1.5001414422702624
% es.tEX (V/m) @ t=5.1
1.990148434075767
% es.tEY (V/m) @ t=5.1
0
% es.tEZ (V/m) @ t=5.1
-1.5001414422702624
% es.Ex (V/m) @ t=5.1
1.9901484340757651
% es.Ey (V/m) @ t=5.1
1.3023717361669238
% es.Ez (V/m) @ t=5.1
-1.5001414422702624
% es.tEx (V/m) @ t=5.1
1.990148434075767
% es.tEy (V/m) @ t=5.1
0
% es.tEz (V/m) @ t=5.1
-1.5001414422702624
% V (V) @ t=5.1
0.08426606581035001
% es.normE (V/m) @ t=5.2
3.039826569479118
% es.EX (V/m) @ t=5.2
2.004944614077134
% es.EY (V/m) @ t=5.2
1.3120551442752095
% es.EZ (V/m) @ t=5.2
-1.51129451616983
% es.tEX (V/m) @ t=5.2
2.004944614077134
% es.tEY (V/m) @ t=5.2
0
% es.tEZ (V/m) @ t=5.2
-1.51129451616983
% es.Ex (V/m) @ t=5.2
2.004944614077134
% es.Ey (V/m) @ t=5.2
1.3120551442752095
% es.Ez (V/m) @ t=5.2
-1.51129451616983
% es.tEx (V/m) @ t=5.2
2.004944614077134
% es.tEy (V/m) @ t=5.2
0
% es.tEz (V/m) @ t=5.2
-1.51129451616983
% V (V) @ t=5.2
0.08489240575738172
% es.normE (V/m) @ t=5.3
3.0602530522760345
% es.EX (V/m) @ t=5.3
2.018420090594269
% es.EY (V/m) @ t=5.3
1.320866743148045
% es.EZ (V/m) @ t=5.3
-1.521452573243213
% es.tEX (V/m) @ t=5.3
2.018420090594269
% es.tEY (V/m) @ t=5.3
0
% es.tEZ (V/m) @ t=5.3
-1.521452573243213
% es.Ex (V/m) @ t=5.3
2.018420090594269
% es.Ey (V/m) @ t=5.3
1.320866743148045
% es.Ez (V/m) @ t=5.3
-1.521452573243213