% Model:              1x1--2 - Copy1.mph
% Version:            COMSOL 6.1.0.252
% Date:               Mar 28 2023, 11:01
% Dimension:          0
% Nodes:              14017
% Expressions:        14017
% Description:        Electric field norm, Electric field, X component, Electric field, Y component, Electric field, Z component, Tangential electric field, X component, Tangential electric field, Y component, Tangential electric field, Z component, Electric field, x component, Electric field, y component, Electric field, z component, Tangential electric field, x component, Tangential electric field, y component, Tangential electric field, z component, Electric potential
% Length unit:        mm
% x
1
% y
12.2
% z
1.6599999999999997
% es.normE (V/m) @ t=0
0.3489813889355047
% es.EX (V/m) @ t=0
0.20034928771656002
% es.EY (V/m) @ t=0
0.17708125438099342
% es.EZ (V/m) @ t=0
-0.17558154561591732
% es.tEX (V/m) @ t=0
0.20034928771655913
% es.tEY (V/m) @ t=0
0
% es.tEZ (V/m) @ t=0
-0.175581545615918
% es.Ex (V/m) @ t=0
0.20034928771656002
% es.Ey (V/m) @ t=0
0.17708125438099342
% es.Ez (V/m) @ t=0
-0.17558154561591732
% es.tEx (V/m) @ t=0
0.20034928771655913
% es.tEy (V/m) @ t=0
0
% es.tEz (V/m) @ t=0
-0.175581545615918
% V (V) @ t=0
0.011549690151258354
% es.normE (V/m) @ t=0.1
0.3604231401936346
% es.EX (V/m) @ t=0.1
0.20691780846513463
% es.EY (V/m) @ t=0.1
0.18288720006376247
% es.EZ (V/m) @ t=0.1
-0.18133816943353898
% es.tEX (V/m) @ t=0.1
0.20691780846513907
% es.tEY (V/m) @ t=0.1
0
% es.tEZ (V/m) @ t=0.1
-0.18133816943353942
% es.Ex (V/m) @ t=0.1
0.20691780846513463
% es.Ey (V/m) @ t=0.1
0.18288720006376247
% es.Ez (V/m) @ t=0.1
-0.18133816943353898
% es.tEx (V/m) @ t=0.1
0.20691780846513907
% es.tEy (V/m) @ t=0.1
0
% es.tEz (V/m) @ t=0.1
-0.18133816943353942
% V (V) @ t=0.1
0.011928311806888504
% es.normE (V/m) @ t=0.2
0.38427544625506327
% es.EX (V/m) @ t=0.2
0.22061128827612553
% es.EY (V/m) @ t=0.2
0.19499046742732018
% es.EZ (V/m) @ t=0.2
-0.19333887762000912
% es.tEX (V/m) @ t=0.2
0.22061128827612464
% es.tEY (V/m) @ t=0.2
0
% es.tEZ (V/m) @ t=0.2
-0.19333887762001112
% es.Ex (V/m) @ t=0.2
0.22061128827612553
% es.Ey (V/m) @ t=0.2
0.19499046742732018
% es.Ez (V/m) @ t=0.2
-0.19333887762000912
% es.tEx (V/m) @ t=0.2
0.22061128827612464
% es.tEy (V/m) @ t=0.2
0
% es.tEz (V/m) @ t=0.2
-0.19333887762001112
% V (V) @ t=0.2
0.012717696023010374
% es.normE (V/m) @ t=0.3
0.409287700367984
% es.EX (V/m) @ t=0.3
0.23497114635617056
% es.EY (V/m) @ t=0.3
0.20768191852271567
% es.EZ (V/m) @ t=0.3
-0.2059232510866542
% es.tEX (V/m) @ t=0.3
0.23497114635616967
% es.tEY (V/m) @ t=0.3
0
% es.tEZ (V/m) @ t=0.3
-0.20592325108665577
% es.Ex (V/m) @ t=0.3
0.23497114635617056
% es.Ey (V/m) @ t=0.3
0.20768191852271567
% es.Ez (V/m) @ t=0.3
-0.2059232510866542
% es.tEx (V/m) @ t=0.3
0.23497114635616967
% es.tEy (V/m) @ t=0.3
0
% es.tEz (V/m) @ t=0.3
-0.20592325108665577
% V (V) @ t=0.3
0.013545614650187127
% es.normE (V/m) @ t=0.4
0.4358471906083189
% es.EX (V/m) @ t=0.4
0.2502198074297022
% es.EY (V/m) @ t=0.4
0.22115799880473697
% es.EZ (V/m) @ t=0.4
-0.2192861562145696
% es.tEX (V/m) @ t=0.4
0.25021980742970307
% es.tEY (V/m) @ t=0.4
0
% es.tEZ (V/m) @ t=0.4
-0.2192861562145758
% es.Ex (V/m) @ t=0.4
0.2502198074297022
% es.Ey (V/m) @ t=0.4
0.22115799880473697
% es.Ez (V/m) @ t=0.4
-0.2192861562145696
% es.tEx (V/m) @ t=0.4
0.25021980742970307
% es.tEy (V/m) @ t=0.4
0
% es.tEz (V/m) @ t=0.4
-0.2192861562145758
% V (V) @ t=0.4
0.01442491183993071
% es.normE (V/m) @ t=0.5
0.46418761078742604
% es.EX (V/m) @ t=0.5
0.2664838554912299
% es.EY (V/m) @ t=0.5
0.23554396332004135
% es.EZ (V/m) @ t=0.5
-0.23354408280678873
% es.tEX (V/m) @ t=0.5
0.2664838554912272
% es.tEY (V/m) @ t=0.5
0
% es.tEZ (V/m) @ t=0.5
-0.2335440828067945
% es.Ex (V/m) @ t=0.5
0.2664838554912299
% es.Ey (V/m) @ t=0.5
0.23554396332004135
% es.Ez (V/m) @ t=0.5
-0.23354408280678873
% es.tEx (V/m) @ t=0.5
0.2664838554912272
% es.tEy (V/m) @ t=0.5
0
% es.tEz (V/m) @ t=0.5
-0.2335440828067945
% V (V) @ t=0.5
0.015360903606776664
% es.normE (V/m) @ t=0.6
0.49341535987751095
% es.EX (V/m) @ t=0.6
0.28325797848660184
% es.EY (V/m) @ t=0.6
0.25037959567396584
% es.EZ (V/m) @ t=0.6
-0.24824854340396918
% es.tEX (V/m) @ t=0.6
0.2832579784866027
% es.tEY (V/m) @ t=0.6
0
% es.tEZ (V/m) @ t=0.6
-0.24824854340397096
% es.Ex (V/m) @ t=0.6
0.28325797848660184
% es.Ey (V/m) @ t=0.6
0.25037959567396584
% es.Ez (V/m) @ t=0.6
-0.24824854340396918
% es.tEx (V/m) @ t=0.6
0.2832579784866027
% es.tEy (V/m) @ t=0.6
0
% es.tEz (V/m) @ t=0.6
-0.24824854340397096
% V (V) @ t=0.6
0.016326473339062054
% es.normE (V/m) @ t=0.7
0.5242467253179064
% es.EX (V/m) @ t=0.7
0.30095897922689474
% es.EY (V/m) @ t=0.7
0.26602343870785283
% es.EZ (V/m) @ t=0.7
-0.26376072419789764
% es.tEX (V/m) @ t=0.7
0.3009589792268983
% es.tEY (V/m) @ t=0.7
0
% es.tEZ (V/m) @ t=0.7
-0.26376072419789764
% es.Ex (V/m) @ t=0.7
0.30095897922689474
% es.Ey (V/m) @ t=0.7
0.26602343870785283
% es.Ez (V/m) @ t=0.7
-0.26376072419789764
% es.tEx (V/m) @ t=0.7
0.3009589792268983
% es.tEy (V/m) @ t=0.7
0
% es.tEz (V/m) @ t=0.7
-0.26376072419789764
% V (V) @ t=0.7
0.017347108963683903
% es.normE (V/m) @ t=0.8
0.5563805025076438
% es.EX (V/m) @ t=0.8
0.3194127637733821
% es.EY (V/m) @ t=0.8
0.28232368752471526
% es.EZ (V/m) @ t=0.8
-0.27992891241823203
% es.tEX (V/m) @ t=0.8
0.3194127637733821
% es.tEY (V/m) @ t=0.8
0
% es.tEZ (V/m) @ t=0.8
-0.27992891241823514
% es.Ex (V/m) @ t=0.8
0.3194127637733821
% es.Ey (V/m) @ t=0.8
0.28232368752471526
% es.Ez (V/m) @ t=0.8
-0.27992891241823203
% es.tEx (V/m) @ t=0.8
0.3194127637733821
% es.tEy (V/m) @ t=0.8
0
% es.tEz (V/m) @ t=0.8
-0.27992891241823514
% V (V) @ t=0.8
0.018412467543680203
% es.normE (V/m) @ t=0.9
0.5902482614031173
% es.EX (V/m) @ t=0.9
0.3388600595394866
% es.EY (V/m) @ t=0.9
0.29950552685938003
% es.EZ (V/m) @ t=0.9
-0.2969692305952991
% es.tEX (V/m) @ t=0.9
0.33886005953948484
% es.tEY (V/m) @ t=0.9
0
% es.tEZ (V/m) @ t=0.9
-0.2969692305953089
% es.Ex (V/m) @ t=0.9
0.3388600595394866
% es.Ey (V/m) @ t=0.9
0.29950552685938003
% es.Ez (V/m) @ t=0.9
-0.2969692305952991
% es.tEx (V/m) @ t=0.9
0.33886005953948484
% es.tEy (V/m) @ t=0.9
0
% es.tEz (V/m) @ t=0.9
-0.2969692305953089
% V (V) @ t=0.9
0.019534586994600804
% es.normE (V/m) @ t=1
0.6259454713208014
% es.EX (V/m) @ t=1
0.3593541188652143
% es.EY (V/m) @ t=1
0.31761877078949885
% es.EZ (V/m) @ t=1
-0.3149294881177238
% es.tEX (V/m) @ t=1
0.35935411886521607
% es.tEY (V/m) @ t=1
0
% es.tEZ (V/m) @ t=1
-0.3149294881177269
% es.Ex (V/m) @ t=1
0.3593541188652143
% es.Ey (V/m) @ t=1
0.31761877078949885
% es.Ez (V/m) @ t=1
-0.3149294881177238
% es.tEx (V/m) @ t=1
0.35935411886521607
% es.tEy (V/m) @ t=1
0
% es.tEz (V/m) @ t=1
-0.3149294881177269
% V (V) @ t=1
0.020716130275191914
% es.normE (V/m) @ t=1.1
0.663320046982905
% es.EX (V/m) @ t=1.1
0.3808101093718719
% es.EY (V/m) @ t=1.1
0.33658406417875275
% es.EZ (V/m) @ t=1.1
-0.3337335233715133
% es.tEX (V/m) @ t=1.1
0.3808101093718719
% es.tEY (V/m) @ t=1.1
0
% es.tEZ (V/m) @ t=1.1
-0.33373352337152085
% es.Ex (V/m) @ t=1.1
0.3808101093718719
% es.Ey (V/m) @ t=1.1
0.33658406417875275
% es.Ez (V/m) @ t=1.1
-0.3337335233715133
% es.tEx (V/m) @ t=1.1
0.3808101093718719
% es.tEy (V/m) @ t=1.1
0
% es.tEz (V/m) @ t=1.1
-0.33373352337152085
% V (V) @ t=1.1
0.02195285522210485
% es.normE (V/m) @ t=1.2
0.7026844205946849
% es.EX (V/m) @ t=1.2
0.4034083501433905
% es.EY (V/m) @ t=1.2
0.35655910224468457
% es.EZ (V/m) @ t=1.2
-0.3535386676993779
% es.tEX (V/m) @ t=1.2
0.4034083501433834
% es.tEY (V/m) @ t=1.2
0
% es.tEZ (V/m) @ t=1.2
-0.3535386676993859
% es.Ex (V/m) @ t=1.2
0.4034083501433905
% es.Ey (V/m) @ t=1.2
0.35655910224468457
% es.Ez (V/m) @ t=1.2
-0.3535386676993779
% es.tEx (V/m) @ t=1.2
0.4034083501433834
% es.tEy (V/m) @ t=1.2
0
% es.tEz (V/m) @ t=1.2
-0.3535386676993859
% V (V) @ t=1.2
0.023255406100104927
% es.normE (V/m) @ t=1.3
0.7439449331436718
% es.EX (V/m) @ t=1.3
0.427094786228432
% es.EY (V/m) @ t=1.3
0.3774966120800869
% es.EZ (V/m) @ t=1.3
-0.374297757274336
% es.tEX (V/m) @ t=1.3
0.4270947862284302
% es.tEY (V/m) @ t=1.3
0
% es.tEZ (V/m) @ t=1.3
-0.3742977572743378
% es.Ex (V/m) @ t=1.3
0.427094786228432
% es.Ey (V/m) @ t=1.3
0.3774966120800869
% es.Ez (V/m) @ t=1.3
-0.374297757274336
% es.tEx (V/m) @ t=1.3
0.4270947862284302
% es.tEy (V/m) @ t=1.3
0
% es.tEz (V/m) @ t=1.3
-0.3742977572743378
% V (V) @ t=1.3
0.024620592036647904
% es.normE (V/m) @ t=1.4
0.7870769734898824
% es.EX (V/m) @ t=1.4
0.4518553860657697
% es.EY (V/m) @ t=1.4
0.399384019921297
% es.EZ (V/m) @ t=1.4
-0.3959984229494813
% es.tEX (V/m) @ t=1.4
0.45185538606576614
% es.tEY (V/m) @ t=1.4
0
% es.tEZ (V/m) @ t=1.4
-0.39599842294947507
% es.Ex (V/m) @ t=1.4
0.4518553860657697
% es.Ey (V/m) @ t=1.4
0.399384019921297
% es.Ez (V/m) @ t=1.4
-0.3959984229494813
% es.tEx (V/m) @ t=1.4
0.45185538606576614
% es.tEy (V/m) @ t=1.4
0
% es.tEz (V/m) @ t=1.4
-0.39599842294947507
% V (V) @ t=1.4
0.026047629579199233
% es.normE (V/m) @ t=1.5
0.8321114895873578
% es.EX (V/m) @ t=1.5
0.477709752610636
% es.EY (V/m) @ t=1.5
0.42223541649482943
% es.EZ (V/m) @ t=1.5
-0.418656493999352
% es.tEX (V/m) @ t=1.5
0.4777097526106324
% es.tEY (V/m) @ t=1.5
0
% es.tEZ (V/m) @ t=1.5
-0.41865649399935734
% es.Ex (V/m) @ t=1.5
0.477709752610636
% es.Ey (V/m) @ t=1.5
0.42223541649482943
% es.Ez (V/m) @ t=1.5
-0.418656493999352
% es.tEx (V/m) @ t=1.5
0.4777097526106324
% es.tEy (V/m) @ t=1.5
0
% es.tEz (V/m) @ t=1.5
-0.41865649399935734
% V (V) @ t=1.5
0.027538128058192928
% es.normE (V/m) @ t=1.6
0.8790329793773546
% es.EX (V/m) @ t=1.6
0.5046480665981878
% es.EY (V/m) @ t=1.6
0.4460437436518623
% es.EZ (V/m) @ t=1.6
-0.4422640414236154
% es.tEX (V/m) @ t=1.6
0.5046480665981896
% es.tEY (V/m) @ t=1.6
0
% es.tEZ (V/m) @ t=1.6
-0.44226404142361986
% es.Ex (V/m) @ t=1.6
0.5046480665981878
% es.Ey (V/m) @ t=1.6
0.4460437436518623
% es.Ez (V/m) @ t=1.6
-0.4422640414236154
% es.tEx (V/m) @ t=1.6
0.5046480665981896
% es.tEy (V/m) @ t=1.6
0
% es.tEz (V/m) @ t=1.6
-0.44226404142361986
% V (V) @ t=1.6
0.029091281348150748
% es.normE (V/m) @ t=1.7
0.9278414428630029
% es.EX (V/m) @ t=1.7
0.532670328028475
% es.EY (V/m) @ t=1.7
0.4708090013924311
% es.EZ (V/m) @ t=1.7
-0.4668210652223137
% es.tEX (V/m) @ t=1.7
0.5326703280284804
% es.tEY (V/m) @ t=1.7
0
% es.tEZ (V/m) @ t=1.7
-0.4668210652223195
% es.Ex (V/m) @ t=1.7
0.532670328028475
% es.Ey (V/m) @ t=1.7
0.4708090013924311
% es.Ez (V/m) @ t=1.7
-0.4668210652223137
% es.tEx (V/m) @ t=1.7
0.5326703280284804
% es.tEy (V/m) @ t=1.7
0
% es.tEz (V/m) @ t=1.7
-0.4668210652223195
% V (V) @ t=1.7
0.03070708944907269
% es.normE (V/m) @ t=1.8
0.9785368800487256
% es.EX (V/m) @ t=1.8
0.5617765369015082
% es.EY (V/m) @ t=1.8
0.4965311897165394
% es.EZ (V/m) @ t=1.8
-0.4923275653954162
% es.tEX (V/m) @ t=1.8
0.5617765369015117
% es.tEY (V/m) @ t=1.8
0
% es.tEZ (V/m) @ t=1.8
-0.49232756539542066
% es.Ex (V/m) @ t=1.8
0.5617765369015082
% es.Ey (V/m) @ t=1.8
0.4965311897165394
% es.Ez (V/m) @ t=1.8
-0.4923275653954162
% es.tEx (V/m) @ t=1.8
0.5617765369015117
% es.tEy (V/m) @ t=1.8
0
% es.tEz (V/m) @ t=1.8
-0.49232756539542066
% V (V) @ t=1.8
0.03238555236095874
% es.normE (V/m) @ t=1.9
1.031119290939853
% es.EX (V/m) @ t=1.9
0.5919666932172731
% es.EY (V/m) @ t=1.9
0.5232103086241437
% es.EZ (V/m) @ t=1.9
-0.5187835419429137
% es.tEX (V/m) @ t=1.9
0.5919666932172767
% es.tEY (V/m) @ t=1.9
0
% es.tEZ (V/m) @ t=1.9
-0.5187835419429163
% es.Ex (V/m) @ t=1.9
0.5919666932172731
% es.Ey (V/m) @ t=1.9
0.5232103086241437
% es.Ez (V/m) @ t=1.9
-0.5187835419429137
% es.tEx (V/m) @ t=1.9
0.5919666932172767
% es.tEy (V/m) @ t=1.9
0
% es.tEz (V/m) @ t=1.9
-0.5187835419429163
% V (V) @ t=1.9
0.034126670083808916
% es.normE (V/m) @ t=2
1.084668259557131
% es.EX (V/m) @ t=2
0.6227110080571254
% es.EY (V/m) @ t=2
0.5503805339391041
% es.EZ (V/m) @ t=2
-0.5457257104217588
% es.tEX (V/m) @ t=2
0.6227110080571272
% es.tEY (V/m) @ t=2
0
% es.tEZ (V/m) @ t=2
-0.5457257104217774
% es.Ex (V/m) @ t=2
0.6227110080571254
% es.Ey (V/m) @ t=2
0.5503805339391041
% es.Ez (V/m) @ t=2
-0.5457257104217588
% es.tEx (V/m) @ t=2
0.6227110080571272
% es.tEy (V/m) @ t=2
0
% es.tEz (V/m) @ t=2
-0.5457257104217774
% V (V) @ t=2
0.035899540043840564
% es.normE (V/m) @ t=2.1
1.1389653387091532
% es.EX (V/m) @ t=2.1
0.6538837438201295
% es.EY (V/m) @ t=2.1
0.5779313091505021
% es.EZ (V/m) @ t=2.1
-0.5730441170892444
% es.tEX (V/m) @ t=2.1
0.6538837438201419
% es.tEY (V/m) @ t=2.1
0
% es.tEZ (V/m) @ t=2.1
-0.5730441170892391
% es.Ex (V/m) @ t=2.1
0.6538837438201295
% es.Ey (V/m) @ t=2.1
0.5779313091505021
% es.Ez (V/m) @ t=2.1
-0.5730441170892444
% es.tEx (V/m) @ t=2.1
0.6538837438201419
% es.tEy (V/m) @ t=2.1
0
% es.tEz (V/m) @ t=2.1
-0.5730441170892391
% V (V) @ t=2.1
0.03769682797007603
% es.normE (V/m) @ t=2.2
1.1946128212238174
% es.EX (V/m) @ t=2.2
0.6858315786092071
% es.EY (V/m) @ t=2.2
0.6061674557371699
% es.EZ (V/m) @ t=2.2
-0.6010419214985401
% es.tEX (V/m) @ t=2.2
0.6858315786092177
% es.tEY (V/m) @ t=2.2
0
% es.tEZ (V/m) @ t=2.2
-0.601041921498549
% es.Ex (V/m) @ t=2.2
0.6858315786092071
% es.Ey (V/m) @ t=2.2
0.6061674557371699
% es.Ez (V/m) @ t=2.2
-0.6010419214985401
% es.tEx (V/m) @ t=2.2
0.6858315786092177
% es.tEy (V/m) @ t=2.2
0
% es.tEz (V/m) @ t=2.2
-0.601041921498549
% V (V) @ t=2.2
0.039538755587197924
% es.normE (V/m) @ t=2.3
1.2516107071007228
% es.EX (V/m) @ t=2.3
0.7185545124242658
% es.EY (V/m) @ t=2.3
0.6350889736991085
% es.EZ (V/m) @ t=2.3
-0.6297191236495774
% es.tEX (V/m) @ t=2.3
0.7185545124242765
% es.tEY (V/m) @ t=2.3
0
% es.tEZ (V/m) @ t=2.3
-0.629719123649572
% es.Ex (V/m) @ t=2.3
0.7185545124242658
% es.Ey (V/m) @ t=2.3
0.6350889736991085
% es.Ez (V/m) @ t=2.3
-0.6297191236495774
% es.tEx (V/m) @ t=2.3
0.7185545124242765
% es.tEy (V/m) @ t=2.3
0
% es.tEz (V/m) @ t=2.3
-0.629719123649572
% V (V) @ t=2.3
0.04142532289520625
% es.normE (V/m) @ t=2.4
1.309958996339756
% es.EX (V/m) @ t=2.4
0.7520525452654105
% es.EY (V/m) @ t=2.4
0.6646958630363811
% es.EZ (V/m) @ t=2.4
-0.6590757235423812
% es.tEX (V/m) @ t=2.4
0.752052545265407
% es.tEY (V/m) @ t=2.4
0
% es.tEZ (V/m) @ t=2.4
-0.6590757235423865
% es.Ex (V/m) @ t=2.4
0.7520525452654105
% es.Ey (V/m) @ t=2.4
0.6646958630363811
% es.Ez (V/m) @ t=2.4
-0.6590757235423812
% es.tEx (V/m) @ t=2.4
0.752052545265407
% es.tEy (V/m) @ t=2.4
0
% es.tEz (V/m) @ t=2.4
-0.6590757235423865
% V (V) @ t=2.4
0.043356529894101006
% es.normE (V/m) @ t=2.5
1.3696341636235494
% es.EX (V/m) @ t=2.5
0.7863122152144477
% es.EY (V/m) @ t=2.5
0.6949761477489904
% es.EZ (V/m) @ t=2.5
-0.6890998913538144
% es.tEX (V/m) @ t=2.5
0.7863122152144371
% es.tEY (V/m) @ t=2.5
0
% es.tEZ (V/m) @ t=2.5
-0.6890998913538198
% es.Ex (V/m) @ t=2.5
0.7863122152144477
% es.Ey (V/m) @ t=2.5
0.6949761477489904
% es.Ez (V/m) @ t=2.5
-0.6890998913538144
% es.tEx (V/m) @ t=2.5
0.7863122152144371
% es.tEy (V/m) @ t=2.5
0
% es.tEz (V/m) @ t=2.5
-0.6890998913538198
% V (V) @ t=2.5
0.045331612010515915
% es.normE (V/m) @ t=2.6
1.4269773241093422
% es.EX (V/m) @ t=2.6
0.8192397945808345
% es.EY (V/m) @ t=2.6
0.7240672045047152
% es.EZ (V/m) @ t=2.6
-0.7179517385744063
% es.tEX (V/m) @ t=2.6
0.8192397945808452
% es.tEY (V/m) @ t=2.6
0
% es.tEZ (V/m) @ t=2.6
-0.7179517385744134
% es.Ex (V/m) @ t=2.6
0.8192397945808345
% es.Ey (V/m) @ t=2.6
0.7240672045047152
% es.Ez (V/m) @ t=2.6
-0.7179517385744063
% es.tEx (V/m) @ t=2.6
0.8192397945808452
% es.tEy (V/m) @ t=2.6
0
% es.tEz (V/m) @ t=2.6
-0.7179517385744134
% V (V) @ t=2.6
0.04723165540001901
% es.normE (V/m) @ t=2.7
1.4845425033288793
% es.EX (V/m) @ t=2.7
0.8522967761608307
% es.EY (V/m) @ t=2.7
0.7532692074352934
% es.EZ (V/m) @ t=2.7
-0.7469155696600707
% es.tEX (V/m) @ t=2.7
0.8522967761608413
% es.tEY (V/m) @ t=2.7
0
% es.tEZ (V/m) @ t=2.7
-0.7469155696600822
% es.Ex (V/m) @ t=2.7
0.8522967761608307
% es.Ey (V/m) @ t=2.7
0.7532692074352934
% es.Ez (V/m) @ t=2.7
-0.7469155696600707
% es.tEx (V/m) @ t=2.7
0.8522967761608413
% es.tEy (V/m) @ t=2.7
0
% es.tEz (V/m) @ t=2.7
-0.7469155696600822
% V (V) @ t=2.7
0.049139665951007196
% es.normE (V/m) @ t=2.8
1.5423297013243618
% es.EX (V/m) @ t=2.8
0.8854831599545285
% es.EY (V/m) @ t=2.8
0.7825821565408209
% es.EZ (V/m) @ t=2.8
-0.7759913846108599
% es.tEX (V/m) @ t=2.8
0.885483159954525
% es.tEY (V/m) @ t=2.8
0
% es.tEZ (V/m) @ t=2.8
-0.7759913846108617
% es.Ex (V/m) @ t=2.8
0.8854831599545285
% es.Ey (V/m) @ t=2.8
0.7825821565408209
% es.Ez (V/m) @ t=2.8
-0.7759913846108599
% es.tEx (V/m) @ t=2.8
0.885483159954525
% es.tEy (V/m) @ t=2.8
0
% es.tEz (V/m) @ t=2.8
-0.7759913846108617
% V (V) @ t=2.8
0.0510556436634805
% es.normE (V/m) @ t=2.9
1.6003389181426115
% es.EX (V/m) @ t=2.9
0.9187989459619139
% es.EY (V/m) @ t=2.9
0.8120060518212355
% es.EZ (V/m) @ t=2.9
-0.8051791834267696
% es.tEX (V/m) @ t=2.9
0.9187989459619175
% es.tEY (V/m) @ t=2.9
0
% es.tEZ (V/m) @ t=2.9
-0.8051791834267732
% es.Ex (V/m) @ t=2.9
0.9187989459619139
% es.Ey (V/m) @ t=2.9
0.8120060518212355
% es.Ez (V/m) @ t=2.9
-0.8051791834267696
% es.tEx (V/m) @ t=2.9
0.9187989459619175
% es.tEy (V/m) @ t=2.9
0
% es.tEz (V/m) @ t=2.9
-0.8051791834267732
% V (V) @ t=2.9
0.052979588537438914
% es.normE (V/m) @ t=3
1.658570153834343
% es.EX (V/m) @ t=3
0.9522441341829797
% es.EY (V/m) @ t=3
0.8415408932765462
% es.EZ (V/m) @ t=3
-0.8344789661078114
% es.tEX (V/m) @ t=3
0.9522441341829762
% es.tEY (V/m) @ t=3
0
% es.tEZ (V/m) @ t=3
-0.8344789661078096
% es.Ex (V/m) @ t=3
0.9522441341829797
% es.Ey (V/m) @ t=3
0.8415408932765462
% es.Ez (V/m) @ t=3
-0.8344789661078114
% es.tEx (V/m) @ t=3
0.9522441341829762
% es.tEy (V/m) @ t=3
0
% es.tEz (V/m) @ t=3
-0.8344789661078096
% V (V) @ t=3
0.05491150057288243
% es.normE (V/m) @ t=3.1
1.7156038565530962
% es.EX (V/m) @ t=3.1
0.9849943779444423
% es.EY (V/m) @ t=3.1
0.8704746378982744
% es.EZ (V/m) @ t=3.1
-0.8631751641863845
% es.tEX (V/m) @ t=3.1
0.9849943779444459
% es.tEY (V/m) @ t=3.1
0
% es.tEZ (V/m) @ t=3.1
-0.8631751641864014
% es.Ex (V/m) @ t=3.1
0.9849943779444423
% es.Ey (V/m) @ t=3.1
0.8704746378982744
% es.Ez (V/m) @ t=3.1
-0.8631751641863845
% es.tEx (V/m) @ t=3.1
0.9849943779444459
% es.tEy (V/m) @ t=3.1
0
% es.tEz (V/m) @ t=3.1
-0.8631751641864014
% V (V) @ t=3.1
0.056801402861574035
% es.normE (V/m) @ t=3.2
1.770395001643624
% es.EX (V/m) @ t=3.2
1.016442821969882
% es.EY (V/m) @ t=3.2
0.8982831044519592
% es.EZ (V/m) @ t=3.2
-0.8907410011079984
% es.tEX (V/m) @ t=3.2
1.016442821969875
% es.tEY (V/m) @ t=3.2
0
% es.tEZ (V/m) @ t=3.2
-0.8907410011080117
% es.Ex (V/m) @ t=3.2
1.016442821969882
% es.Ey (V/m) @ t=3.2
0.8982831044519592
% es.Ez (V/m) @ t=3.2
-0.8907410011079984
% es.tEx (V/m) @ t=3.2
1.016442821969875
% es.tEy (V/m) @ t=3.2
0
% es.tEz (V/m) @ t=3.2
-0.8907410011080117
% V (V) @ t=3.2
0.05861250414632069
% es.normE (V/m) @ t=3.3
1.8243670432537562
% es.EX (V/m) @ t=3.3
1.0474160789625095
% es.EY (V/m) @ t=3.3
0.925680293266808
% es.EZ (V/m) @ t=3.3
-0.9178940123520682
% es.tEX (V/m) @ t=3.3
1.0474160789624989
% es.tEY (V/m) @ t=3.3
0
% es.tEZ (V/m) @ t=3.3
-0.9178940123520789
% es.Ex (V/m) @ t=3.3
1.0474160789625095
% es.Ey (V/m) @ t=3.3
0.925680293266808
% es.Ez (V/m) @ t=3.3
-0.9178940123520682
% es.tEx (V/m) @ t=3.3
1.0474160789624989
% es.tEy (V/m) @ t=3.3
0
% es.tEz (V/m) @ t=3.3
-0.9178940123520789
% V (V) @ t=3.3
0.060394918715885385
% es.normE (V/m) @ t=3.4
1.8775199815425778
% es.EX (V/m) @ t=3.4
1.077914148922389
% es.EY (V/m) @ t=3.4
0.9526662043427976
% es.EZ (V/m) @ t=3.4
-0.9446341979185826
% es.tEX (V/m) @ t=3.4
1.0779141489224031
% es.tEY (V/m) @ t=3.4
0
% es.tEZ (V/m) @ t=3.4
-0.9446341979185888
% es.Ex (V/m) @ t=3.4
1.077914148922389
% es.Ey (V/m) @ t=3.4
0.9526662043427976
% es.Ez (V/m) @ t=3.4
-0.9446341979185826
% es.tEx (V/m) @ t=3.4
1.0779141489224031
% es.tEy (V/m) @ t=3.4
0
% es.tEz (V/m) @ t=3.4
-0.9446341979185888
% V (V) @ t=3.4
0.06214864657026815
% es.normE (V/m) @ t=3.5
1.9298538167104704
% es.EX (V/m) @ t=3.5
1.1079370318495272
% es.EY (V/m) @ t=3.5
0.9792408376800754
% es.EZ (V/m) @ t=3.5
-0.9709615578075113
% es.tEX (V/m) @ t=3.5
1.1079370318495094
% es.tEY (V/m) @ t=3.5
0
% es.tEZ (V/m) @ t=3.5
-0.970961557807513
% es.Ex (V/m) @ t=3.5
1.1079370318495272
% es.Ey (V/m) @ t=3.5
0.9792408376800754
% es.Ez (V/m) @ t=3.5
-0.9709615578075113
% es.tEx (V/m) @ t=3.5
1.1079370318495094
% es.tEy (V/m) @ t=3.5
0
% es.tEz (V/m) @ t=3.5
-0.970961557807513
% V (V) @ t=3.5
0.06387368770946895
% es.normE (V/m) @ t=3.6
1.9806336726913463
% es.EX (V/m) @ t=3.6
1.1370738507585259
% es.EY (V/m) @ t=3.6
1.0050216011984805
% es.EZ (V/m) @ t=3.6
-0.9965079391556699
% es.tEX (V/m) @ t=3.6
1.1370738507585187
% es.tEY (V/m) @ t=3.6
0
% es.tEZ (V/m) @ t=3.6
-0.996507939155677
% es.Ex (V/m) @ t=3.6
1.1370738507585259
% es.Ey (V/m) @ t=3.6
1.0050216011984805
% es.Ez (V/m) @ t=3.6
-0.9965079391556699
% es.tEx (V/m) @ t=3.6
1.1370738507585187
% es.tEy (V/m) @ t=3.6
0
% es.tEz (V/m) @ t=3.6
-0.996507939155677
% V (V) @ t=3.6
0.06554923516201988
% es.normE (V/m) @ t=3.7
2.029286297749433
% es.EX (V/m) @ t=3.7
1.1650040947778102
% es.EY (V/m) @ t=3.7
1.0297100480991723
% es.EZ (V/m) @ t=3.7
-1.0209861586959086
% es.tEX (V/m) @ t=3.7
1.1650040947778422
% es.tEY (V/m) @ t=3.7
0
% es.tEZ (V/m) @ t=3.7
-1.0209861586959192
% es.Ex (V/m) @ t=3.7
1.1650040947778102
% es.Ey (V/m) @ t=3.7
1.0297100480991723
% es.Ez (V/m) @ t=3.7
-1.0209861586959086
% es.tEx (V/m) @ t=3.7
1.1650040947778422
% es.tEy (V/m) @ t=3.7
0
% es.tEz (V/m) @ t=3.7
-1.0209861586959192
% V (V) @ t=3.7
0.06715905813185193
% es.normE (V/m) @ t=3.8
2.076528470560333
% es.EX (V/m) @ t=3.8
1.1921285224023563
% es.EY (V/m) @ t=3.8
1.0536793485320057
% es.EZ (V/m) @ t=3.8
-1.0447553029494951
% es.tEX (V/m) @ t=3.8
1.1921285224023563
% es.tEY (V/m) @ t=3.8
0
% es.tEZ (V/m) @ t=3.8
-1.0447553029494827
% es.Ex (V/m) @ t=3.8
1.1921285224023563
% es.Ey (V/m) @ t=3.8
1.0536793485320057
% es.Ez (V/m) @ t=3.8
-1.0447553029494951
% es.tEx (V/m) @ t=3.8
1.1921285224023563
% es.tEy (V/m) @ t=3.8
0
% es.tEz (V/m) @ t=3.8
-1.0447553029494827
% V (V) @ t=3.8
0.06872345118611407
% es.normE (V/m) @ t=3.9
2.1223601911486494
% es.EX (V/m) @ t=3.9
1.2184471336321039
% es.EY (V/m) @ t=3.9
1.0769295024967729
% es.EZ (V/m) @ t=3.9
-1.0678153719164722
% es.tEX (V/m) @ t=3.9
1.2184471336321039
% es.tEY (V/m) @ t=3.9
0
% es.tEZ (V/m) @ t=3.9
-1.0678153719164527
% es.Ex (V/m) @ t=3.9
1.2184471336321039
% es.Ey (V/m) @ t=3.9
1.0769295024967729
% es.Ez (V/m) @ t=3.9
-1.0678153719164722
% es.tEx (V/m) @ t=3.9
1.2184471336321039
% es.tEy (V/m) @ t=3.9
0
% es.tEz (V/m) @ t=3.9
-1.0678153719164527
% V (V) @ t=3.9
0.07024241432480634
% es.normE (V/m) @ t=4
2.1667814595701524
% es.EX (V/m) @ t=4
1.2439599284671843
% es.EY (V/m) @ t=4
1.0994605099937083
% es.EZ (V/m) @ t=4
-1.0901663655968772
% es.tEX (V/m) @ t=4
1.2439599284671772
% es.tEY (V/m) @ t=4
0
% es.tEZ (V/m) @ t=4
-1.0901663655969003
% es.Ex (V/m) @ t=4
1.2439599284671843
% es.Ey (V/m) @ t=4
1.0994605099937083
% es.Ez (V/m) @ t=4
-1.0901663655968772
% es.tEx (V/m) @ t=4
1.2439599284671772
% es.tEy (V/m) @ t=4
0
% es.tEz (V/m) @ t=4
-1.0901663655969003
% V (V) @ t=4
0.07171594754792868
% es.normE (V/m) @ t=4.1
2.2097328125641478
% es.EX (V/m) @ t=4.1
1.268625424923112
% es.EY (V/m) @ t=4.1
1.1212486654182356
% es.EZ (V/m) @ t=4.1
-1.1117773117330305
% es.tEX (V/m) @ t=4.1
1.2686254249231084
% es.tEY (V/m) @ t=4.1
0
% es.tEZ (V/m) @ t=4.1
-1.11177731173305
% es.Ex (V/m) @ t=4.1
1.268625424923112
% es.Ey (V/m) @ t=4.1
1.1212486654182356
% es.Ez (V/m) @ t=4.1
-1.1117773117330305
% es.tEx (V/m) @ t=4.1
1.2686254249231084
% es.tEy (V/m) @ t=4.1
0
% es.tEz (V/m) @ t=4.1
-1.11177731173305
% V (V) @ t=4.1
0.0731397395650662
% es.normE (V/m) @ t=4.2
2.251168478908742
% es.EX (V/m) @ t=4.2
1.2924116927493614
% es.EY (V/m) @ t=4.2
1.1422757216708614
% es.EZ (V/m) @ t=4.2
-1.132624369808255
% es.tEX (V/m) @ t=4.2
1.29241169274934
% es.tEY (V/m) @ t=4.2
0
% es.tEZ (V/m) @ t=4.2
-1.1326243698082834
% es.Ex (V/m) @ t=4.2
1.2924116927493614
% es.Ey (V/m) @ t=4.2
1.1422757216708614
% es.Ez (V/m) @ t=4.2
-1.132624369808255
% es.tEx (V/m) @ t=4.2
1.29241169274934
% es.tEy (V/m) @ t=4.2
0
% es.tEz (V/m) @ t=4.2
-1.1326243698082834
% V (V) @ t=4.2
0.07451047181310298
% es.normE (V/m) @ t=4.3
2.2911460458200876
% es.EX (V/m) @ t=4.3
1.3153589051500916
% es.EY (V/m) @ t=4.3
1.1625646364308384
% es.EZ (V/m) @ t=4.3
-1.152737534887656
% es.tEX (V/m) @ t=4.3
1.3153589051500916
% es.tEY (V/m) @ t=4.3
0
% es.tEZ (V/m) @ t=4.3
-1.1527375348876632
% es.Ex (V/m) @ t=4.3
1.3153589051500916
% es.Ey (V/m) @ t=4.3
1.1625646364308384
% es.Ez (V/m) @ t=4.3
-1.152737534887656
% es.tEx (V/m) @ t=4.3
1.3153589051500916
% es.tEy (V/m) @ t=4.3
0
% es.tEz (V/m) @ t=4.3
-1.1527375348876632
% V (V) @ t=4.3
0.07583231955878719
% es.normE (V/m) @ t=4.4
2.329665513314261
% es.EX (V/m) @ t=4.4
1.3374670621252847
% es.EY (V/m) @ t=4.4
1.1821154096981914
% es.EZ (V/m) @ t=4.4
-1.1721168069713368
% es.tEX (V/m) @ t=4.4
1.3374670621252847
% es.tEY (V/m) @ t=4.4
0
% es.tEZ (V/m) @ t=4.4
-1.17211680697136
% es.Ex (V/m) @ t=4.4
1.3374670621252847
% es.Ey (V/m) @ t=4.4
1.1821154096981914
% es.Ez (V/m) @ t=4.4
-1.1721168069713368
% es.tEx (V/m) @ t=4.4
1.3374670621252847
% es.tEy (V/m) @ t=4.4
0
% es.tEz (V/m) @ t=4.4
-1.17211680697136
% V (V) @ t=4.4
0.0771052828021188
% es.normE (V/m) @ t=4.5
2.366726881413624
% es.EX (V/m) @ t=4.5
1.358736163674969
% es.EY (V/m) @ t=4.5
1.2009280414727943
% es.EZ (V/m) @ t=4.5
-1.1907621860592048
% es.tEX (V/m) @ t=4.5
1.3587361636749904
% es.tEY (V/m) @ t=4.5
0
% es.tEZ (V/m) @ t=4.5
-1.190762186059203
% es.Ex (V/m) @ t=4.5
1.358736163674969
% es.Ey (V/m) @ t=4.5
1.2009280414727943
% es.Ez (V/m) @ t=4.5
-1.1907621860592048
% es.tEx (V/m) @ t=4.5
1.3587361636749904
% es.tEy (V/m) @ t=4.5
0
% es.tEz (V/m) @ t=4.5
-1.190762186059203
% V (V) @ t=4.5
0.07832936154309786
% es.normE (V/m) @ t=4.6
2.4023878637509855
% es.EX (V/m) @ t=4.6
1.3792020891722814
% es.EY (V/m) @ t=4.6
1.2190293982126459
% es.EZ (V/m) @ t=4.6
-1.208703104638781
% es.tEX (V/m) @ t=4.6
1.3792020891722814
% es.tEY (V/m) @ t=4.6
0
% es.tEZ (V/m) @ t=4.6
-1.2087031046387864
% es.Ex (V/m) @ t=4.6
1.3792020891722814
% es.Ey (V/m) @ t=4.6
1.2190293982126459
% es.Ez (V/m) @ t=4.6
-1.208703104638781
% es.tEx (V/m) @ t=4.6
1.3792020891722814
% es.tEy (V/m) @ t=4.6
0
% es.tEz (V/m) @ t=4.6
-1.2087031046387864
% V (V) @ t=4.6
0.07950734259742967
% es.normE (V/m) @ t=4.7
2.4366922932289743
% es.EX (V/m) @ t=4.7
1.3988920886515572
% es.EY (V/m) @ t=4.7
1.236439884730494
% es.EZ (V/m) @ t=4.7
-1.2259619163973543
% es.tEX (V/m) @ t=4.7
1.398892088651536
% es.tEY (V/m) @ t=4.7
0
% es.tEZ (V/m) @ t=4.7
-1.2259619163973525
% es.Ex (V/m) @ t=4.7
1.3988920886515572
% es.Ey (V/m) @ t=4.7
1.236439884730494
% es.Ez (V/m) @ t=4.7
-1.2259619163973543
% es.tEx (V/m) @ t=4.7
1.398892088651536
% es.tEy (V/m) @ t=4.7
0
% es.tEz (V/m) @ t=4.7
-1.2259619163973525
% V (V) @ t=4.7
0.08064134252447329
% es.normE (V/m) @ t=4.8
2.469584673657395
% es.EX (V/m) @ t=4.8
1.417771661269441
% es.EY (V/m) @ t=4.8
1.2531336668109532
% es.EZ (V/m) @ t=4.8
-1.2425103196800986
% es.tEX (V/m) @ t=4.8
1.4177716612694553
% es.tEY (V/m) @ t=4.8
0
% es.tEZ (V/m) @ t=4.8
-1.2425103196801217
% es.Ex (V/m) @ t=4.8
1.417771661269441
% es.Ey (V/m) @ t=4.8
1.2531336668109532
% es.Ez (V/m) @ t=4.8
-1.2425103196800986
% es.tEx (V/m) @ t=4.8
1.4177716612694553
% es.tEy (V/m) @ t=4.8
0
% es.tEz (V/m) @ t=4.8
-1.2425103196801217
% V (V) @ t=4.8
0.08172868158142954
% es.normE (V/m) @ t=4.9
2.501065005034275
% es.EX (V/m) @ t=4.9
1.4358408070258548
% es.EY (V/m) @ t=4.9
1.269110744454176
% es.EZ (V/m) @ t=4.9
-1.2583483144869305
% es.tEX (V/m) @ t=4.9
1.4358408070258548
% es.tEY (V/m) @ t=4.9
0
% es.tEZ (V/m) @ t=4.9
-1.2583483144869234
% es.Ex (V/m) @ t=4.9
1.4358408070258548
% es.Ey (V/m) @ t=4.9
1.269110744454176
% es.Ez (V/m) @ t=4.9
-1.2583483144869305
% es.tEx (V/m) @ t=4.9
1.4358408070258548
% es.tEy (V/m) @ t=4.9
0
% es.tEz (V/m) @ t=4.9
-1.2583483144869234
% V (V) @ t=4.9
0.08276935976829848
% es.normE (V/m) @ t=5
2.5311332873578616
% es.EX (V/m) @ t=5
1.4530995259208694
% es.EY (V/m) @ t=5
1.2843711176600365
% es.EZ (V/m) @ t=5
-1.2734759008178802
% es.tEX (V/m) @ t=5
1.4530995259208623
% es.tEY (V/m) @ t=5
0
% es.tEZ (V/m) @ t=5
-1.2734759008178997
% es.Ex (V/m) @ t=5
1.4530995259208694
% es.Ey (V/m) @ t=5
1.2843711176600365
% es.Ez (V/m) @ t=5
-1.2734759008178802
% es.tEx (V/m) @ t=5
1.4530995259208623
% es.tEy (V/m) @ t=5
0
% es.tEz (V/m) @ t=5
-1.2734759008178997
% V (V) @ t=5
0.08376337708508004
% es.normE (V/m) @ t=5.1
2.559722915714501
% es.EX (V/m) @ t=5.1
1.4695104812851056
% es.EY (V/m) @ t=5.1
1.2988801935744583
% es.EZ (V/m) @ t=5.1
-1.2878597013275037
% es.tEX (V/m) @ t=5.1
1.4695104812850985
% es.tEY (V/m) @ t=5.1
0
% es.tEZ (V/m) @ t=5.1
-1.2878597013274913
% es.Ex (V/m) @ t=5.1
1.4695104812851056
% es.Ey (V/m) @ t=5.1
1.2988801935744583
% es.Ez (V/m) @ t=5.1
-1.2878597013275037
% es.tEx (V/m) @ t=5.1
1.4695104812850985
% es.tEy (V/m) @ t=5.1
0
% es.tEz (V/m) @ t=5.1
-1.2878597013274913
% V (V) @ t=5.1
0.08470881747245068
% es.normE (V/m) @ t=5.2
2.5867601017636668
% es.EX (V/m) @ t=5.2
1.485032309642186
% es.EY (V/m) @ t=5.2
1.3125996484600666
% es.EZ (V/m) @ t=5.2
-1.301462738881355
% es.tEX (V/m) @ t=5.2
1.4850323096422073
% es.tEY (V/m) @ t=5.2
0
% es.tEZ (V/m) @ t=5.2
-1.3014627388813693
% es.Ex (V/m) @ t=5.2
1.485032309642186
% es.Ey (V/m) @ t=5.2
1.3125996484600666
% es.Ez (V/m) @ t=5.2
-1.301462738881355
% es.tEx (V/m) @ t=5.2
1.4850323096422073
% es.tEy (V/m) @ t=5.2
0
% es.tEz (V/m) @ t=5.2
-1.3014627388813693
% V (V) @ t=5.2
0.08560355822165766
% es.normE (V/m) @ t=5.3
2.6122871743641976
% es.EX (V/m) @ t=5.3
1.4996887392515035
% es.EY (V/m) @ t=5.3
1.3255514668225583
% es.EZ (V/m) @ t=5.3
-1.3143062255030866
% es.tEX (V/m) @ t=5.3
1.4996887392514822
% es.tEY (V/m) @ t=5.3
0
% es.tEZ (V/m) @ t=5.3
-1.3143062255030742
% es.Ex (V/m) @ t=5.3
1.4996887392515035
% es.Ey (V/m) @ t=5.3