% Model:              1x1--2 - Copy1.mph
% Version:            COMSOL 6.1.0.252
% Date:               Mar 28 2023, 11:11
% Dimension:          0
% Nodes:              14017
% Expressions:        14017
% Description:        Electric field norm, Electric field, X component, Electric field, Y component, Electric field, Z component, Tangential electric field, X component, Tangential electric field, Y component, Tangential electric field, Z component, Electric field, x component, Electric field, y component, Electric field, z component, Tangential electric field, x component, Tangential electric field, y component, Tangential electric field, z component, Electric potential
% Length unit:        mm
% x
1.66
% y
12.2
% z
1
% es.normE (V/m) @ t=0
0.9010987011775788
% es.EX (V/m) @ t=0
0.7594080126054648
% es.EY (V/m) @ t=0
0.09337252093041215
% es.EZ (V/m) @ t=0
-0.46661782483120984
% es.tEX (V/m) @ t=0
0.7594080126054692
% es.tEY (V/m) @ t=0
0
% es.tEZ (V/m) @ t=0
-0.4666178248312054
% es.Ex (V/m) @ t=0
0.7594080126054648
% es.Ey (V/m) @ t=0
0.09337252093041215
% es.Ez (V/m) @ t=0
-0.46661782483120984
% es.tEx (V/m) @ t=0
0.7594080126054692
% es.tEy (V/m) @ t=0
0
% es.tEz (V/m) @ t=0
-0.4666178248312054
% V (V) @ t=0
0.00978463130083039
% es.normE (V/m) @ t=0.1
0.927153560106014
% es.EX (V/m) @ t=0.1
0.7813659746255839
% es.EY (V/m) @ t=0.1
0.09607234204769188
% es.EZ (V/m) @ t=0.1
-0.4801098282578087
% es.tEX (V/m) @ t=0.1
0.7813659746255848
% es.tEY (V/m) @ t=0.1
0
% es.tEZ (V/m) @ t=0.1
-0.48010982825780957
% es.Ex (V/m) @ t=0.1
0.7813659746255839
% es.Ey (V/m) @ t=0.1
0.09607234204769188
% es.Ez (V/m) @ t=0.1
-0.4801098282578087
% es.tEx (V/m) @ t=0.1
0.7813659746255848
% es.tEy (V/m) @ t=0.1
0
% es.tEz (V/m) @ t=0.1
-0.48010982825780957
% V (V) @ t=0.1
0.010067547255843873
% es.normE (V/m) @ t=0.2
0.9843969873752048
% es.EX (V/m) @ t=0.2
0.8296087448648519
% es.EY (V/m) @ t=0.2
0.10200720853731848
% es.EZ (V/m) @ t=0.2
-0.5097503289227765
% es.tEX (V/m) @ t=0.2
0.8296087448648617
% es.tEY (V/m) @ t=0.2
0
% es.tEZ (V/m) @ t=0.2
-0.5097503289227667
% es.Ex (V/m) @ t=0.2
0.8296087448648519
% es.Ey (V/m) @ t=0.2
0.10200720853731848
% es.Ez (V/m) @ t=0.2
-0.5097503289227765
% es.tEx (V/m) @ t=0.2
0.8296087448648617
% es.tEy (V/m) @ t=0.2
0
% es.tEz (V/m) @ t=0.2
-0.5097503289227667
% V (V) @ t=0.2
0.010688470855666871
% es.normE (V/m) @ t=0.3
1.0465187263720994
% es.EX (V/m) @ t=0.3
0.8819621408432026
% es.EY (V/m) @ t=0.3
0.10844284030529039
% es.EZ (V/m) @ t=0.3
-0.5419198488780168
% es.tEX (V/m) @ t=0.3
0.8819621408432141
% es.tEY (V/m) @ t=0.3
0
% es.tEZ (V/m) @ t=0.3
-0.5419198488780168
% es.Ex (V/m) @ t=0.3
0.8819621408432026
% es.Ey (V/m) @ t=0.3
0.10844284030529039
% es.Ez (V/m) @ t=0.3
-0.5419198488780168
% es.tEx (V/m) @ t=0.3
0.8819621408432141
% es.tEy (V/m) @ t=0.3
0
% es.tEz (V/m) @ t=0.3
-0.5419198488780168
% V (V) @ t=0.3
0.011363319231634297
% es.normE (V/m) @ t=0.4
1.111473807500547
% es.EX (V/m) @ t=0.4
0.9367027675483426
% es.EY (V/m) @ t=0.4
0.1151674864198835
% es.EZ (V/m) @ t=0.4
-0.575559346156215
% es.tEX (V/m) @ t=0.4
0.9367027675483506
% es.tEY (V/m) @ t=0.4
0
% es.tEZ (V/m) @ t=0.4
-0.5755593461562061
% es.Ex (V/m) @ t=0.4
0.9367027675483426
% es.Ey (V/m) @ t=0.4
0.1151674864198835
% es.Ez (V/m) @ t=0.4
-0.575559346156215
% es.tEx (V/m) @ t=0.4
0.9367027675483506
% es.tEy (V/m) @ t=0.4
0
% es.tEz (V/m) @ t=0.4
-0.5755593461562061
% V (V) @ t=0.4
0.012069857184728692
% es.normE (V/m) @ t=0.5
1.1792316718479883
% es.EX (V/m) @ t=0.5
0.993805431253274
% es.EY (V/m) @ t=0.5
0.12218232148948083
% es.EZ (V/m) @ t=0.5
-0.6106503586207443
% es.tEX (V/m) @ t=0.5
0.9938054312532927
% es.tEY (V/m) @ t=0.5
0
% es.tEZ (V/m) @ t=0.5
-0.6106503586207488
% es.Ex (V/m) @ t=0.5
0.993805431253274
% es.Ey (V/m) @ t=0.5
0.12218232148948083
% es.Ez (V/m) @ t=0.5
-0.6106503586207443
% es.tEx (V/m) @ t=0.5
0.9938054312532927
% es.tEy (V/m) @ t=0.5
0
% es.tEz (V/m) @ t=0.5
-0.6106503586207488
% V (V) @ t=0.5
0.012806877244199275
% es.normE (V/m) @ t=0.6
1.2512164715070933
% es.EX (V/m) @ t=0.6
1.0544721592553312
% es.EY (V/m) @ t=0.6
0.12964895917185437
% es.EZ (V/m) @ t=0.6
-0.6479218259511352
% es.tEX (V/m) @ t=0.6
1.0544721592553472
% es.tEY (V/m) @ t=0.6
0
% es.tEZ (V/m) @ t=0.6
-0.647921825951137
% es.Ex (V/m) @ t=0.6
1.0544721592553312
% es.Ey (V/m) @ t=0.6
0.12964895917185437
% es.Ez (V/m) @ t=0.6
-0.6479218259511352
% es.tEx (V/m) @ t=0.6
1.0544721592553472
% es.tEy (V/m) @ t=0.6
0
% es.tEz (V/m) @ t=0.6
-0.647921825951137
% V (V) @ t=0.6
0.013587011289833728
% es.normE (V/m) @ t=0.7
1.3257116013901247
% es.EX (V/m) @ t=0.7
1.1172540789436773
% es.EY (V/m) @ t=0.7
0.13737255154881822
% es.EZ (V/m) @ t=0.7
-0.6864951475956218
% es.tEX (V/m) @ t=0.7
1.117254078943681
% es.tEY (V/m) @ t=0.7
0
% es.tEZ (V/m) @ t=0.7
-0.686495147595604
% es.Ex (V/m) @ t=0.7
1.1172540789436773
% es.Ey (V/m) @ t=0.7
0.13737255154881822
% es.Ez (V/m) @ t=0.7
-0.6864951475956218
% es.tEx (V/m) @ t=0.7
1.117254078943681
% es.tEy (V/m) @ t=0.7
0
% es.tEz (V/m) @ t=0.7
-0.686495147595604
% V (V) @ t=0.7
0.014395042928953421
% es.normE (V/m) @ t=0.8
1.403748363409
% es.EX (V/m) @ t=0.8
1.1830201602551007
% es.EY (V/m) @ t=0.8
0.14545866158474752
% es.EZ (V/m) @ t=0.8
-0.7269051555830774
% es.tEX (V/m) @ t=0.8
1.1830201602551185
% es.tEY (V/m) @ t=0.8
0
% es.tEZ (V/m) @ t=0.8
-0.726905155583065
% es.Ex (V/m) @ t=0.8
1.1830201602551007
% es.Ey (V/m) @ t=0.8
0.14545866158474752
% es.Ez (V/m) @ t=0.8
-0.7269051555830774
% es.tEx (V/m) @ t=0.8
1.1830201602551185
% es.tEy (V/m) @ t=0.8
0
% es.tEz (V/m) @ t=0.8
-0.726905155583065
% V (V) @ t=0.8
0.015242433141763672
% es.normE (V/m) @ t=0.9
1.4848721475798716
% es.EX (V/m) @ t=0.9
1.2513873510786535
% es.EY (V/m) @ t=0.9
0.15386075589037063
% es.EZ (V/m) @ t=0.9
-0.7689160897002107
% es.tEX (V/m) @ t=0.9
1.2513873510786624
% es.tEY (V/m) @ t=0.9
0
% es.tEZ (V/m) @ t=0.9
-0.7689160897002125
% es.Ex (V/m) @ t=0.9
1.2513873510786535
% es.Ey (V/m) @ t=0.9
0.15386075589037063
% es.Ez (V/m) @ t=0.9
-0.7689160897002107
% es.tEx (V/m) @ t=0.9
1.2513873510786624
% es.tEy (V/m) @ t=0.9
0
% es.tEz (V/m) @ t=0.9
-0.7689160897002125
% V (V) @ t=0.9
0.01612412979415101
% es.normE (V/m) @ t=1
1.5706952065544826
% es.EX (V/m) @ t=1
1.3237151265760332
% es.EY (V/m) @ t=1
0.16275160292467916
% es.EZ (V/m) @ t=1
-0.8133593585606853
% es.tEX (V/m) @ t=1
1.323715126576051
% es.tEY (V/m) @ t=1
0
% es.tEZ (V/m) @ t=1
-0.8133593585606853
% es.Ex (V/m) @ t=1
1.3237151265760332
% es.Ey (V/m) @ t=1
0.16275160292467916
% es.Ez (V/m) @ t=1
-0.8133593585606853
% es.tEx (V/m) @ t=1
1.323715126576051
% es.tEy (V/m) @ t=1
0
% es.tEz (V/m) @ t=1
-0.8133593585606853
% V (V) @ t=1
0.01705648842078995
% es.normE (V/m) @ t=1.1
1.6606877228803867
% es.EX (V/m) @ t=1.1
1.3995567368751356
% es.EY (V/m) @ t=1.1
0.17207442762544112
% es.EZ (V/m) @ t=1.1
-0.8599617451890964
% es.tEX (V/m) @ t=1.1
1.3995567368751303
% es.tEY (V/m) @ t=1.1
0
% es.tEZ (V/m) @ t=1.1
-0.8599617451890857
% es.Ex (V/m) @ t=1.1
1.3995567368751356
% es.Ey (V/m) @ t=1.1
0.17207442762544112
% es.Ez (V/m) @ t=1.1
-0.8599617451890964
% es.tEx (V/m) @ t=1.1
1.3995567368751303
% es.tEy (V/m) @ t=1.1
0
% es.tEz (V/m) @ t=1.1
-0.8599617451890857
% V (V) @ t=1.1
0.01803413427616864
% es.normE (V/m) @ t=1.2
1.754772657881018
% es.EX (V/m) @ t=1.2
1.4788472246017346
% es.EY (V/m) @ t=1.2
0.1818209961535846
% es.EZ (V/m) @ t=1.2
-0.908683509072798
% es.tEX (V/m) @ t=1.2
1.478847224601754
% es.tEY (V/m) @ t=1.2
0
% es.tEZ (V/m) @ t=1.2
-0.908683509072798
% es.Ex (V/m) @ t=1.2
1.4788472246017346
% es.Ey (V/m) @ t=1.2
0.1818209961535846
% es.Ez (V/m) @ t=1.2
-0.908683509072798
% es.tEx (V/m) @ t=1.2
1.478847224601754
% es.tEy (V/m) @ t=1.2
0
% es.tEz (V/m) @ t=1.2
-0.908683509072798
% V (V) @ t=1.2
0.01905628149854981
% es.normE (V/m) @ t=1.3
1.8541274325094783
% es.EX (V/m) @ t=1.3
1.5625794717506594
% es.EY (V/m) @ t=1.3
0.1921179732192435
% es.EZ (V/m) @ t=1.3
-0.9601315254063092
% es.tEX (V/m) @ t=1.3
1.5625794717506665
% es.tEY (V/m) @ t=1.3
0
% es.tEZ (V/m) @ t=1.3
-0.9601315254062897
% es.Ex (V/m) @ t=1.3
1.5625794717506594
% es.Ey (V/m) @ t=1.3
0.1921179732192435
% es.Ez (V/m) @ t=1.3
-0.9601315254063092
% es.tEx (V/m) @ t=1.3
1.5625794717506665
% es.tEy (V/m) @ t=1.3
0
% es.tEz (V/m) @ t=1.3
-0.9601315254062897
% V (V) @ t=1.3
0.020134775451056335
% es.normE (V/m) @ t=1.4
1.9581703255495184
% es.EX (V/m) @ t=1.4
1.6502629311354244
% es.EY (V/m) @ t=1.4
0.20290277835717063
% es.EZ (V/m) @ t=1.4
-1.014005959042338
% es.tEX (V/m) @ t=1.4
1.6502629311354475
% es.tEY (V/m) @ t=1.4
0
% es.tEZ (V/m) @ t=1.4
-1.0140059590423256
% es.Ex (V/m) @ t=1.4
1.6502629311354244
% es.Ey (V/m) @ t=1.4
0.20290277835717063
% es.Ez (V/m) @ t=1.4
-1.014005959042338
% es.tEx (V/m) @ t=1.4
1.6502629311354475
% es.tEy (V/m) @ t=1.4
0
% es.tEz (V/m) @ t=1.4
-1.0140059590423256
% V (V) @ t=1.4
0.021263763766959397
% es.normE (V/m) @ t=1.5
2.0670795634768035
% es.EX (V/m) @ t=1.5
1.7420476855404772
% es.EY (V/m) @ t=1.5
0.21419295763844204
% es.EZ (V/m) @ t=1.5
-1.0703996615337346
% es.tEX (V/m) @ t=1.5
1.7420476855404843
% es.tEY (V/m) @ t=1.5
0
% es.tEZ (V/m) @ t=1.5
-1.0703996615337168
% es.Ex (V/m) @ t=1.5
1.7420476855404772
% es.Ey (V/m) @ t=1.5
0.21419295763844204
% es.Ez (V/m) @ t=1.5
-1.0703996615337346
% es.tEx (V/m) @ t=1.5
1.7420476855404843
% es.tEy (V/m) @ t=1.5
0
% es.tEz (V/m) @ t=1.5
-1.0703996615337168
% V (V) @ t=1.5
0.02244536767733768
% es.normE (V/m) @ t=1.6
2.18169393858712
% es.EX (V/m) @ t=1.6
1.8386400739217734
% es.EY (V/m) @ t=1.6
0.22607108864609415
% es.EZ (V/m) @ t=1.6
-1.1297496228332466
% es.tEX (V/m) @ t=1.6
1.8386400739217876
% es.tEY (V/m) @ t=1.6
0
% es.tEZ (V/m) @ t=1.6
-1.1297496228332449
% es.Ex (V/m) @ t=1.6
1.8386400739217734
% es.Ey (V/m) @ t=1.6
0.22607108864609415
% es.Ez (V/m) @ t=1.6
-1.1297496228332466
% es.tEx (V/m) @ t=1.6
1.8386400739217876
% es.tEy (V/m) @ t=1.6
0
% es.tEz (V/m) @ t=1.6
-1.1297496228332449
% V (V) @ t=1.6
0.023689570393462613
% es.normE (V/m) @ t=1.7
2.301557179570256
% es.EX (V/m) @ t=1.7
1.9396558745948003
% es.EY (V/m) @ t=1.7
0.2384922522973092
% es.EZ (V/m) @ t=1.7
-1.1918181369297685
% es.tEX (V/m) @ t=1.7
1.939655874594827
% es.tEY (V/m) @ t=1.7
0
% es.tEZ (V/m) @ t=1.7
-1.1918181369297614
% es.Ex (V/m) @ t=1.7
1.9396558745948003
% es.Ey (V/m) @ t=1.7
0.2384922522973092
% es.Ez (V/m) @ t=1.7
-1.1918181369297685
% es.tEx (V/m) @ t=1.7
1.939655874594827
% es.tEy (V/m) @ t=1.7
0
% es.tEz (V/m) @ t=1.7
-1.1918181369297614
% V (V) @ t=1.7
0.0249909414258803
% es.normE (V/m) @ t=1.8
2.426770259515883
% es.EX (V/m) @ t=1.8
2.0451802030697976
% es.EY (V/m) @ t=1.8
0.2514670636703684
% es.EZ (V/m) @ t=1.8
-1.2566573984505034
% es.tEX (V/m) @ t=1.8
2.045180203069819
% es.tEY (V/m) @ t=1.8
0
% es.tEZ (V/m) @ t=1.8
-1.256657398450507
% es.Ex (V/m) @ t=1.8
2.0451802030697976
% es.Ey (V/m) @ t=1.8
0.2514670636703684
% es.Ez (V/m) @ t=1.8
-1.2566573984505034
% es.tEx (V/m) @ t=1.8
2.045180203069819
% es.tEy (V/m) @ t=1.8
0
% es.tEz (V/m) @ t=1.8
-1.256657398450507
% V (V) @ t=1.8
0.026350546495607453
% es.normE (V/m) @ t=1.9
2.5576118349578536
% es.EX (V/m) @ t=1.9
2.1554479535415645
% es.EY (V/m) @ t=1.9
0.26502481731160543
% es.EZ (V/m) @ t=1.9
-1.324411449473125
% es.tEX (V/m) @ t=1.9
2.1554479535415823
% es.tEY (V/m) @ t=1.9
0
% es.tEZ (V/m) @ t=1.9
-1.324411449473125
% es.Ex (V/m) @ t=1.9
2.1554479535415645
% es.Ey (V/m) @ t=1.9
0.26502481731160543
% es.Ez (V/m) @ t=1.9
-1.324411449473125
% es.tEx (V/m) @ t=1.9
2.1554479535415823
% es.tEy (V/m) @ t=1.9
0
% es.tEz (V/m) @ t=1.9
-1.324411449473125
% V (V) @ t=1.9
0.027771326684469914
% es.normE (V/m) @ t=2
2.6940656407459693
% es.EX (V/m) @ t=2
2.270445415262376
% es.EY (V/m) @ t=2
0.27916380330160706
% es.EZ (V/m) @ t=2
-1.395071882277911
% es.tEX (V/m) @ t=2
2.270445415262415
% es.tEY (V/m) @ t=2
0
% es.tEZ (V/m) @ t=2
-1.395071882277918
% es.Ex (V/m) @ t=2
2.270445415262376
% es.Ey (V/m) @ t=2
0.27916380330160706
% es.Ez (V/m) @ t=2
-1.395071882277911
% es.tEx (V/m) @ t=2
2.270445415262415
% es.tEy (V/m) @ t=2
0
% es.tEz (V/m) @ t=2
-1.395071882277918
% V (V) @ t=2
0.029253110321854153
% es.normE (V/m) @ t=2.1
2.8362180261274803
% es.EX (V/m) @ t=2.1
2.390245376537493
% es.EY (V/m) @ t=2.1
0.29389309934611774
% es.EZ (V/m) @ t=2.1
-1.4686833321897055
% es.tEX (V/m) @ t=2.1
2.390245376537507
% es.tEY (V/m) @ t=2.1
0
% es.tEZ (V/m) @ t=2.1
-1.468683332189677
% es.Ex (V/m) @ t=2.1
2.390245376537493
% es.Ey (V/m) @ t=2.1
0.29389309934611774
% es.Ez (V/m) @ t=2.1
-1.4686833321897055
% es.tEx (V/m) @ t=2.1
2.390245376537507
% es.tEy (V/m) @ t=2.1
0
% es.tEz (V/m) @ t=2.1
-1.468683332189677
% V (V) @ t=2.1
0.03079680878133129
% es.normE (V/m) @ t=2.2
2.9841553403491328
% es.EX (V/m) @ t=2.2
2.5149206256718735
% es.EY (V/m) @ t=2.2
0.3092217831508961
% es.EZ (V/m) @ t=2.2
-1.545290434533353
% es.tEX (V/m) @ t=2.2
2.514920625671884
% es.tEY (V/m) @ t=2.2
0
% es.tEZ (V/m) @ t=2.2
-1.5452904345333565
% es.Ex (V/m) @ t=2.2
2.5149206256718735
% es.Ey (V/m) @ t=2.2
0.3092217831508961
% es.Ez (V/m) @ t=2.2
-1.545290434533353
% es.tEx (V/m) @ t=2.2
2.514920625671884
% es.tEy (V/m) @ t=2.2
0
% es.tEz (V/m) @ t=2.2
-1.5452904345333565
% V (V) @ t=2.2
0.032403333436472455
% es.normE (V/m) @ t=2.3
3.137963932657436
% es.EX (V/m) @ t=2.3
2.644543950970519
% es.EY (V/m) @ t=2.3
0.32515893242162264
% es.EZ (V/m) @ t=2.3
-1.6249378246337969
% es.tEX (V/m) @ t=2.3
2.6445439509705224
% es.tEY (V/m) @ t=2.3
0
% es.tEZ (V/m) @ t=2.3
-1.6249378246337685
% es.Ex (V/m) @ t=2.3
2.644543950970519
% es.Ey (V/m) @ t=2.3
0.32515893242162264
% es.Ez (V/m) @ t=2.3
-1.6249378246337969
% es.tEx (V/m) @ t=2.3
2.6445439509705224
% es.tEy (V/m) @ t=2.3
0
% es.tEz (V/m) @ t=2.3
-1.6249378246337685
% V (V) @ t=2.3
0.034073595660848714
% es.normE (V/m) @ t=2.4
3.296778242686459
% es.EX (V/m) @ t=2.4
2.7783859877657022
% es.EY (V/m) @ t=2.4
0.3416155791236264
% es.EZ (V/m) @ t=2.4
-1.7071768489018986
% es.tEX (V/m) @ t=2.4
2.7783859877657235
% es.tEY (V/m) @ t=2.4
0
% es.tEZ (V/m) @ t=2.4
-1.707176848901895
% es.Ex (V/m) @ t=2.4
2.7783859877657022
% es.Ey (V/m) @ t=2.4
0.3416155791236264
% es.Ez (V/m) @ t=2.4
-1.7071768489018986
% es.tEx (V/m) @ t=2.4
2.7783859877657235
% es.tEy (V/m) @ t=2.4
0
% es.tEz (V/m) @ t=2.4
-1.707176848901895
% V (V) @ t=2.4
0.0357980511572692
% es.normE (V/m) @ t=2.5
3.4604894793900796
% es.EX (V/m) @ t=2.5
2.9163550839953416
% es.EY (V/m) @ t=2.5
0.3585807017071083
% es.EZ (V/m) @ t=2.5
-1.7919510190451966
% es.tEX (V/m) @ t=2.5
2.916355083995363
% es.tEY (V/m) @ t=2.5
0
% es.tEZ (V/m) @ t=2.5
-1.7919510190451717
% es.Ex (V/m) @ t=2.5
2.9163550839953416
% es.Ey (V/m) @ t=2.5
0.3585807017071083
% es.Ez (V/m) @ t=2.5
-1.7919510190451966
% es.tEx (V/m) @ t=2.5
2.916355083995363
% es.tEy (V/m) @ t=2.5
0
% es.tEz (V/m) @ t=2.5
-1.7919510190451717
% V (V) @ t=2.5
0.037575467899730666
% es.normE (V/m) @ t=2.6
3.6293942457288844
% es.EX (V/m) @ t=2.6
3.0587012040719834
% es.EY (V/m) @ t=2.6
0.3760850338004609
% es.EZ (V/m) @ t=2.6
-1.8794139259281266
% es.tEX (V/m) @ t=2.6
3.0587012040720296
% es.tEY (V/m) @ t=2.6
0
% es.tEZ (V/m) @ t=2.6
-1.8794139259281195
% es.Ex (V/m) @ t=2.6
3.0587012040719834
% es.Ey (V/m) @ t=2.6
0.3760850338004609
% es.Ez (V/m) @ t=2.6
-1.8794139259281266
% es.tEx (V/m) @ t=2.6
3.0587012040720296
% es.tEy (V/m) @ t=2.6
0
% es.tEz (V/m) @ t=2.6
-1.8794139259281195
% V (V) @ t=2.6
0.03940906666551357
% es.normE (V/m) @ t=2.7
3.803432795809627
% es.EX (V/m) @ t=2.7
3.205374025184941
% es.EY (V/m) @ t=2.7
0.3941226054550704
% es.EZ (V/m) @ t=2.7
-1.969534496935946
% es.tEX (V/m) @ t=2.7
3.2053740251849874
% es.tEY (V/m) @ t=2.7
0
% es.tEZ (V/m) @ t=2.7
-1.969534496935914
% es.Ex (V/m) @ t=2.7
3.205374025184941
% es.Ey (V/m) @ t=2.7
0.3941226054550704
% es.Ez (V/m) @ t=2.7
-1.969534496935946
% es.tEx (V/m) @ t=2.7
3.2053740251849874
% es.tEy (V/m) @ t=2.7
0
% es.tEz (V/m) @ t=2.7
-1.969534496935914
% V (V) @ t=2.7
0.0412981541351432
% es.normE (V/m) @ t=2.8
3.9825453837420124
% es.EX (V/m) @ t=2.8
3.3563232245229457
% es.EY (V/m) @ t=2.8
0.412687446722547
% es.EZ (V/m) @ t=2.8
-2.062281659453955
% es.tEX (V/m) @ t=2.8
3.3563232245229813
% es.tEY (V/m) @ t=2.8
0
% es.tEZ (V/m) @ t=2.8
-2.0622816594539515
% es.Ex (V/m) @ t=2.8
3.3563232245229457
% es.Ey (V/m) @ t=2.8
0.412687446722547
% es.Ez (V/m) @ t=2.8
-2.062281659453955
% es.tEx (V/m) @ t=2.8
3.3563232245229813
% es.tEy (V/m) @ t=2.8
0
% es.tEz (V/m) @ t=2.8
-2.0622816594539515
% V (V) @ t=2.8
0.04324203698914485
% es.normE (V/m) @ t=2.9
4.166672263640403
% es.EX (V/m) @ t=2.9
3.5114984792750725
% es.EY (V/m) @ t=2.9
0.43177358765449725
% es.EZ (V/m) @ t=2.9
-2.157624340867553
% es.tEX (V/m) @ t=2.9
3.511498479275133
% es.tEY (V/m) @ t=2.9
0
% es.tEZ (V/m) @ t=2.9
-2.1576243408675637
% es.Ex (V/m) @ t=2.9
3.5114984792750725
% es.Ey (V/m) @ t=2.9
0.43177358765449725
% es.Ez (V/m) @ t=2.9
-2.157624340867553
% es.tEx (V/m) @ t=2.9
3.511498479275133
% es.tEy (V/m) @ t=2.9
0
% es.tEz (V/m) @ t=2.9
-2.1576243408675637
% V (V) @ t=2.9
0.045240021908043784
% es.normE (V/m) @ t=3
4.350889661078682
% es.EX (V/m) @ t=3
3.6667487113590127
% es.EY (V/m) @ t=3
0.450858979350528
% es.EZ (V/m) @ t=3
-2.253020050095781
% es.tEX (V/m) @ t=3
3.66674871135902
% es.tEY (V/m) @ t=3
0
% es.tEZ (V/m) @ t=3
-2.2530200500957704
% es.Ex (V/m) @ t=3
3.6667487113590127
% es.Ey (V/m) @ t=3
0.450858979350528
% es.Ez (V/m) @ t=3
-2.253020050095781
% es.tEx (V/m) @ t=3
3.66674871135902
% es.tEy (V/m) @ t=3
0
% es.tEz (V/m) @ t=3
-2.2530200500957704
% V (V) @ t=3
0.047241032654105036
% es.normE (V/m) @ t=3.1
4.537474224186802
% es.EX (V/m) @ t=3.1
3.8239933602676963
% es.EY (V/m) @ t=3.1
0.4701855459204438
% es.EZ (V/m) @ t=3.1
-2.3496440526489693
% es.tEX (V/m) @ t=3.1
3.823993360267721
% es.tEY (V/m) @ t=3.1
0
% es.tEZ (V/m) @ t=3.1
-2.3496440526489337
% es.Ex (V/m) @ t=3.1
3.8239933602676963
% es.Ey (V/m) @ t=3.1
0.4701855459204438
% es.Ez (V/m) @ t=3.1
-2.3496440526489693
% es.tEx (V/m) @ t=3.1
3.823993360267721
% es.tEy (V/m) @ t=3.1
0
% es.tEz (V/m) @ t=3.1
-2.3496440526489337
% V (V) @ t=3.1
0.04926857690659604
% es.normE (V/m) @ t=3.2
4.726105333681842
% es.EX (V/m) @ t=3.2
3.9829621665423574
% es.EY (V/m) @ t=3.2
0.48971963844746824
% es.EZ (V/m) @ t=3.2
-2.4473305804911725
% es.tEX (V/m) @ t=3.2
3.982962166542407
% es.tEY (V/m) @ t=3.2
0
% es.tEZ (V/m) @ t=3.2
-2.4473305804911476
% es.Ex (V/m) @ t=3.2
3.9829621665423574
% es.Ey (V/m) @ t=3.2
0.48971963844746824
% es.Ez (V/m) @ t=3.2
-2.4473305804911725
% es.tEx (V/m) @ t=3.2
3.982962166542407
% es.tEy (V/m) @ t=3.2
0
% es.tEz (V/m) @ t=3.2
-2.4473305804911476
% V (V) @ t=3.2
0.051319259148662325
% es.normE (V/m) @ t=3.3
4.916359561367107
% es.EX (V/m) @ t=3.3
4.14329819476508
% es.EY (V/m) @ t=3.3
0.5094166998686092
% es.EZ (V/m) @ t=3.3
-2.545860782778689
% es.tEX (V/m) @ t=3.3
4.143298194765151
% es.tEY (V/m) @ t=3.3
0
% es.tEZ (V/m) @ t=3.3
-2.545860782778689
% es.Ex (V/m) @ t=3.3
4.14329819476508
% es.Ey (V/m) @ t=3.3
0.5094166998686092
% es.Ez (V/m) @ t=3.3
-2.545860782778689
% es.tEx (V/m) @ t=3.3
4.143298194765151
% es.tEy (V/m) @ t=3.3
0
% es.tEz (V/m) @ t=3.3
-2.545860782778689
% V (V) @ t=3.3
0.053388618940656184
% es.normE (V/m) @ t=3.4
5.107813479089247
% es.EX (V/m) @ t=3.4
4.304644509518077
% es.EY (V/m) @ t=3.4
0.5292321731213079
% es.EZ (V/m) @ t=3.4
-2.645015808667644
% es.tEX (V/m) @ t=3.4
4.304644509518127
% es.tEY (V/m) @ t=3.4
0
% es.tEZ (V/m) @ t=3.4
-2.645015808667665
% es.Ex (V/m) @ t=3.4
4.304644509518077
% es.Ey (V/m) @ t=3.4
0.5292321731213079
% es.Ez (V/m) @ t=3.4
-2.645015808667644
% es.tEx (V/m) @ t=3.4
4.304644509518127
% es.tEy (V/m) @ t=3.4
0
% es.tEz (V/m) @ t=3.4
-2.645015808667665
% V (V) @ t=3.4
0.055472195842929915
% es.normE (V/m) @ t=3.5
5.298677322922179
% es.EX (V/m) @ t=3.5
4.4654933728553345
% es.EY (V/m) @ t=3.5
0.5489852506027404
% es.EZ (V/m) @ t=3.5
-2.7438660363298766
% es.tEX (V/m) @ t=3.5
4.46549337285542
% es.tEY (V/m) @ t=3.5
0
% es.tEZ (V/m) @ t=3.5
-2.743866036329848
% es.Ex (V/m) @ t=3.5
4.4654933728553345
% es.Ey (V/m) @ t=3.5
0.5489852506027404
% es.Ez (V/m) @ t=3.5
-2.7438660363298766
% es.tEx (V/m) @ t=3.5
4.46549337285542
% es.tEy (V/m) @ t=3.5
0
% es.tEz (V/m) @ t=3.5
-2.743866036329848
% V (V) @ t=3.5
0.05754961784906122
% es.normE (V/m) @ t=3.6
5.484707549317071
% es.EX (V/m) @ t=3.6
4.6222703400315766
% es.EY (V/m) @ t=3.6
0.5682504346695296
% es.EZ (V/m) @ t=3.6
-2.840205382345246
% es.tEX (V/m) @ t=3.6
4.622270340031562
% es.tEY (V/m) @ t=3.6
0
% es.tEZ (V/m) @ t=3.6
-2.8402053823452604
% es.Ex (V/m) @ t=3.6
4.6222703400315766
% es.Ey (V/m) @ t=3.6
0.5682504346695296
% es.Ez (V/m) @ t=3.6
-2.840205382345246
% es.tEx (V/m) @ t=3.6
4.622270340031562
% es.tEy (V/m) @ t=3.6
0
% es.tEz (V/m) @ t=3.6
-2.8402053823452604
% V (V) @ t=3.6
0.059571937638929116
% es.normE (V/m) @ t=3.7
5.667736507068292
% es.EX (V/m) @ t=3.7
4.776518414159334
% es.EY (V/m) @ t=3.7
0.5872081135854899
% es.EZ (V/m) @ t=3.7
-2.9349884562570807
% es.tEX (V/m) @ t=3.7
4.776518414159355
% es.tEY (V/m) @ t=3.7
0
% es.tEZ (V/m) @ t=3.7
-2.934988456257045
% es.Ex (V/m) @ t=3.7
4.776518414159334
% es.Ey (V/m) @ t=3.7
0.5872081135854899
% es.Ez (V/m) @ t=3.7
-2.9349884562570807
% es.tEx (V/m) @ t=3.7
4.776518414159355
% es.tEy (V/m) @ t=3.7
0
% es.tEz (V/m) @ t=3.7
-2.934988456257045
% V (V) @ t=3.7
0.061560964265747815
% es.normE (V/m) @ t=3.8
5.8469205187336195
% es.EX (V/m) @ t=3.8
4.927526703066434
% es.EY (V/m) @ t=3.8
0.6057718231859326
% es.EZ (V/m) @ t=3.8
-3.0277777926595633
% es.tEX (V/m) @ t=3.8
4.927526703066462
% es.tEY (V/m) @ t=3.8
0
% es.tEZ (V/m) @ t=3.8
-3.0277777926595206
% es.Ex (V/m) @ t=3.8
4.927526703066434
% es.Ey (V/m) @ t=3.8
0.6057718231859326
% es.Ez (V/m) @ t=3.8
-3.0277777926595633
% es.tEx (V/m) @ t=3.8
4.927526703066462
% es.tEy (V/m) @ t=3.8
0
% es.tEz (V/m) @ t=3.8
-3.0277777926595206
% V (V) @ t=3.8
0.06350734330815218
% es.normE (V/m) @ t=3.9
6.0214159068917334
% es.EX (V/m) @ t=3.9
5.07458431458052
% es.EY (V/m) @ t=3.9
0.6238550993058993
% es.EZ (V/m) @ t=3.9
-3.118135926146593
% es.tEX (V/m) @ t=3.9
5.074584314580562
% es.tEY (V/m) @ t=3.9
0
% es.tEZ (V/m) @ t=3.9
-3.11813592614655
% es.Ex (V/m) @ t=3.9
5.07458431458052
% es.Ey (V/m) @ t=3.9
0.6238550993058993
% es.Ez (V/m) @ t=3.9
-3.118135926146593
% es.tEx (V/m) @ t=3.9
5.074584314580562
% es.tEy (V/m) @ t=3.9
0
% es.tEz (V/m) @ t=3.9
-3.11813592614655
% V (V) @ t=3.9
0.06540172034477712
% es.normE (V/m) @ t=4
6.190378994157096
% es.EX (V/m) @ t=4
5.216980356529476
% es.EY (V/m) @ t=4
0.6413714777806732
% es.EZ (V/m) @ t=4
-3.205625391312452
% es.tEX (V/m) @ t=4
5.216980356529518
% es.tEY (V/m) @ t=4
0
% es.tEZ (V/m) @ t=4
-3.205625391312438
% es.Ex (V/m) @ t=4
5.216980356529476
% es.Ey (V/m) @ t=4
0.6413714777806732
% es.Ez (V/m) @ t=4
-3.205625391312452
% es.tEx (V/m) @ t=4
5.216980356529518
% es.tEy (V/m) @ t=4
0
% es.tEz (V/m) @ t=4
-3.205625391312438
% V (V) @ t=4
0.0672347409542574
% es.normE (V/m) @ t=4.1
6.352570711515095
% es.EX (V/m) @ t=4.1
5.3536698734035255
% es.EY (V/m) @ t=4.1
0.6581869698707834
% es.EZ (V/m) @ t=4.1
-3.2896079554879805
% es.tEX (V/m) @ t=4.1
5.353669873403561
% es.tEY (V/m) @ t=4.1
0
% es.tEZ (V/m) @ t=4.1
-3.2896079554879663
% es.Ex (V/m) @ t=4.1
5.3536698734035255
% es.Ey (V/m) @ t=4.1
0.6581869698707834
% es.Ez (V/m) @ t=4.1
-3.2896079554879805
% es.tEx (V/m) @ t=4.1
5.353669873403561
% es.tEy (V/m) @ t=4.1
0
% es.tEz (V/m) @ t=4.1
-3.2896079554879663
% V (V) @ t=4.1
0.06899407959790833
% es.normE (V/m) @ t=4.2
6.506989600717819
% es.EX (V/m) @ t=4.2
5.4838086652323454
% es.EY (V/m) @ t=4.2
0.6741961467551434
% es.EZ (V/m) @ t=4.2
-3.369566037197231
% es.tEX (V/m) @ t=4.2
5.483808665232374
% es.tEY (V/m) @ t=4.2
0
% es.tEZ (V/m) @ t=4.2
-3.3695660371972167
% es.Ex (V/m) @ t=4.2
5.4838086652323454
% es.Ey (V/m) @ t=4.2
0.6741961467551434
% es.Ez (V/m) @ t=4.2
-3.369566037197231
% es.tEx (V/m) @ t=4.2
5.483808665232374
% es.tEy (V/m) @ t=4.2
0
% es.tEz (V/m) @ t=4.2
-3.3695660371972167
% V (V) @ t=4.2
0.0706691962315689
% es.normE (V/m) @ t=4.3
6.652953290921543
% es.EX (V/m) @ t=4.3
5.60682212649067
% es.EY (V/m) @ t=4.3
0.6893319327027001
% es.EZ (V/m) @ t=4.3
-3.445144077349653
% es.tEX (V/m) @ t=4.3
5.606822126490755
% es.tEY (V/m) @ t=4.3
0
% es.tEZ (V/m) @ t=4.3
-3.445144077349653
% es.Ex (V/m) @ t=4.3
5.60682212649067
% es.Ey (V/m) @ t=4.3
0.6893319327027001
% es.Ez (V/m) @ t=4.3
-3.445144077349653
% es.tEx (V/m) @ t=4.3
5.606822126490755
% es.tEy (V/m) @ t=4.3
0
% es.tEz (V/m) @ t=4.3
-3.445144077349653
% V (V) @ t=4.3
0.0722519485501757
% es.normE (V/m) @ t=4.4
6.789564276189372
% es.EX (V/m) @ t=4.4
5.72195388567642
% es.EY (V/m) @ t=4.4
0.7035013935605932
% es.EZ (V/m) @ t=4.4
-3.5158772781161858
% es.tEX (V/m) @ t=4.4
5.721953885676442
% es.tEY (V/m) @ t=4.4
0
% es.tEZ (V/m) @ t=4.4
-3.5158772781161503
% es.Ex (V/m) @ t=4.4
5.72195388567642
% es.Ey (V/m) @ t=4.4
0.7035013935605932
% es.Ez (V/m) @ t=4.4
-3.5158772781161858
% es.tEx (V/m) @ t=4.4
5.721953885676442
% es.tEy (V/m) @ t=4.4
0
% es.tEz (V/m) @ t=4.4
-3.5158772781161503
% V (V) @ t=4.4
0.07373257764492465
% es.normE (V/m) @ t=4.5
6.915925050591472
% es.EX (V/m) @ t=4.5
5.828447571288194
% es.EY (V/m) @ t=4.5
0.7166115951760545
% es.EZ (V/m) @ t=4.5
-3.5813008416675487
% es.tEX (V/m) @ t=4.5
5.828447571288251
% es.tEY (V/m) @ t=4.5
0
% es.tEZ (V/m) @ t=4.5
-3.5813008416674705
% es.Ex (V/m) @ t=4.5
5.828447571288194
% es.Ey (V/m) @ t=4.5
0.7166115951760545
% es.Ez (V/m) @ t=4.5
-3.5813008416675487
% es.tEx (V/m) @ t=4.5
5.828447571288251
% es.tEy (V/m) @ t=4.5
0
% es.tEz (V/m) @ t=4.5
-3.5813008416674705
% V (V) @ t=4.5
0.07510132460701167
% es.normE (V/m) @ t=4.6
7.031138108204579
% es.EX (V/m) @ t=4.6
5.925546811823878
% es.EY (V/m) @ t=4.6
0.7285696033963589
% es.EZ (V/m) @ t=4.6
-3.6409499701746384
% es.tEX (V/m) @ t=4.6
5.925546811823963
% es.tEY (V/m) @ t=4.6
0
% es.tEZ (V/m) @ t=4.6
-3.640949970174546
% es.Ex (V/m) @ t=4.6
5.925546811823878
% es.Ey (V/m) @ t=4.6
0.7285696033963589
% es.Ez (V/m) @ t=4.6
-3.6409499701746384
% es.tEx (V/m) @ t=4.6
5.925546811823963
% es.tEy (V/m) @ t=4.6
0
% es.tEz (V/m) @ t=4.6
-3.640949970174546
% V (V) @ t=4.6
0.07634843052763277
% es.normE (V/m) @ t=4.7
7.139616823477373
% es.EX (V/m) @ t=4.7
6.016970005043731
% es.EY (V/m) @ t=4.7
0.7398249476209386
% es.EZ (V/m) @ t=4.7
-3.697114787956501
% es.tEX (V/m) @ t=4.7
6.016970005043802
% es.tEY (V/m) @ t=4.7
0
% es.tEZ (V/m) @ t=4.7
-3.697114787956565
% es.Ex (V/m) @ t=4.7
6.016970005043731
% es.Ey (V/m) @ t=4.7
0.7398249476209386
% es.Ez (V/m) @ t=4.7
-3.697114787956501
% es.tEx (V/m) @ t=4.7
6.016970005043802
% es.tEy (V/m) @ t=4.7
0
% es.tEz (V/m) @ t=4.7
-3.697114787956565
% V (V) @ t=4.7
0.07752338821170641
% es.normE (V/m) @ t=4.8
7.2385599042132345
% es.EX (V/m) @ t=4.8
6.100356713222759
% es.EY (V/m) @ t=4.8
0.7500902373104452
% es.EZ (V/m) @ t=4.8
-3.74834294289726
% es.tEX (V/m) @ t=4.8
6.1003567132228085
% es.tEY (V/m) @ t=4.8
0
% es.tEZ (V/m) @ t=4.8
-3.74834294289721
% es.Ex (V/m) @ t=4.8
6.100356713222759
% es.Ey (V/m) @ t=4.8
0.7500902373104452
% es.Ez (V/m) @ t=4.8
-3.74834294289726
% es.tEx (V/m) @ t=4.8
6.1003567132228085
% es.tEy (V/m) @ t=4.8
0
% es.tEz (V/m) @ t=4.8
-3.74834294289721
% V (V) @ t=4.8
0.0785951988457316
% es.normE (V/m) @ t=4.9
7.327012227387091
% es.EX (V/m) @ t=4.9
6.174902018682971
% es.EY (V/m) @ t=4.9
0.7592666531971517
% es.EZ (V/m) @ t=4.9
-3.7941397493842928
% es.tEX (V/m) @ t=4.9
6.174902018683028
% es.tEY (V/m) @ t=4.9
0
% es.tEZ (V/m) @ t=4.9
-3.7941397493842715
% es.Ex (V/m) @ t=4.9
6.174902018682971
% es.Ey (V/m) @ t=4.9
0.7592666531971517
% es.Ez (V/m) @ t=4.9
-3.7941397493842928
% es.tEx (V/m) @ t=4.9
6.174902018683028
% es.tEy (V/m) @ t=4.9
0
% es.tEz (V/m) @ t=4.9
-3.7941397493842715
% V (V) @ t=4.9
0.07955346070695173
% es.normE (V/m) @ t=5
7.404517814006323
% es.EX (V/m) @ t=5
6.240221565728504
% es.EY (V/m) @ t=5
0.7673063595464242
% es.EZ (V/m) @ t=5
-3.834269443651195
% es.tEX (V/m) @ t=5
6.240221565728476
% es.tEY (V/m) @ t=5
0
% es.tEZ (V/m) @ t=5
-3.834269443651195
% es.Ex (V/m) @ t=5
6.240221565728504
% es.Ey (V/m) @ t=5
0.7673063595464242
% es.Ez (V/m) @ t=5
-3.834269443651195
% es.tEx (V/m) @ t=5
6.240221565728476
% es.tEy (V/m) @ t=5
0
% es.tEz (V/m) @ t=5
-3.834269443651195
% V (V) @ t=5
0.08039334085542216
% es.normE (V/m) @ t=5.1
7.4706206850781385
% es.EX (V/m) @ t=5.1
6.29593099866382
% es.EY (V/m) @ t=5.1
0.7741615206235224
% es.EZ (V/m) @ t=5.1
-3.868496261931327
% es.tEX (V/m) @ t=5.1
6.295930998663863
% es.tEY (V/m) @ t=5.1
0
% es.tEZ (V/m) @ t=5.1
-3.868496261931284
% es.Ex (V/m) @ t=5.1
6.29593099866382
% es.Ey (V/m) @ t=5.1
0.7741615206235224
% es.Ez (V/m) @ t=5.1
-3.868496261931327
% es.tEx (V/m) @ t=5.1
6.295930998663863
% es.tEy (V/m) @ t=5.1
0
% es.tEz (V/m) @ t=5.1
-3.868496261931284
% V (V) @ t=5.1
0.08111000635119824
% es.normE (V/m) @ t=5.2
7.526162583206786
% es.EX (V/m) @ t=5.2
6.342739520239938
% es.EY (V/m) @ t=5.2
0.7799179473148854
% es.EZ (V/m) @ t=5.2
-3.8972569436628035
% es.tEX (V/m) @ t=5.2
6.342739520240002
% es.tEY (V/m) @ t=5.2
0
% es.tEZ (V/m) @ t=5.2
-3.8972569436628106
% es.Ex (V/m) @ t=5.2
6.342739520239938
% es.Ey (V/m) @ t=5.2
0.7799179473148854
% es.Ez (V/m) @ t=5.2
-3.8972569436628035
% es.tEx (V/m) @ t=5.2
6.342739520240002
% es.tEy (V/m) @ t=5.2
0
% es.tEz (V/m) @ t=5.2
-3.8972569436628106
% V (V) @ t=5.2
0.08171288199444197
% es.normE (V/m) @ t=5.3
7.576747015446203
% es.EX (V/m) @ t=5.3
6.385368956362882
% es.EY (V/m) @ t=5.3
0.7851518436129226
% es.EZ (V/m) @ t=5.3
-3.923455862218127
% es.tEX (V/m) @ t=5.3
6.385368956362939
% es.tEY (V/m) @ t=5.3
0
% es.tEZ (V/m) @ t=5.3
-3.9234558622180487
% es.Ex (V/m) @ t=5.3
6.385368956362882
% es.Ey (V/m) @ t=5.3
0.7851518436129226
% es.Ez (V/m) @ t=5.3
-3.923455862218127
% es.tEx (V/m) @ t=5.3
6.385368956362939
% es.tEy (V/m) @ t=5.3
0
% es.tEz (V/m) @ t=5.3
-3.9234558622180487
% V (V) @ t=5.3
0.08226370889110346
% es.normE (V/m) @ t=5.4
7.618519286830434