% Model:              1x1--2 - Copy1.mph
% Version:            COMSOL 6.1.0.252
% Date:               Mar 28 2023, 11:01
% Dimension:          0
% Nodes:              14017
% Expressions:        14017
% Description:        Electric field norm, Electric field, X component, Electric field, Y component, Electric field, Z component, Tangential electric field, X component, Tangential electric field, Y component, Tangential electric field, Z component, Electric field, x component, Electric field, y component, Electric field, z component, Tangential electric field, x component, Tangential electric field, y component, Tangential electric field, z component, Electric potential
% Length unit:        mm
% x
1.6599999999999997
% y
12.2
% z
1.6599999999999997
% es.normE (V/m) @ t=0
0.560020069667239
% es.EX (V/m) @ t=0
0.29837667965105297
% es.EY (V/m) @ t=0
0.19254163474302702
% es.EZ (V/m) @ t=0
-0.40813643822797074
% es.tEX (V/m) @ t=0
0.29837667965105297
% es.tEY (V/m) @ t=0
0
% es.tEZ (V/m) @ t=0
-0.4081364382279795
% es.Ex (V/m) @ t=0
0.29837667965105297
% es.Ey (V/m) @ t=0
0.19254163474302702
% es.Ez (V/m) @ t=0
-0.40813643822797074
% es.tEx (V/m) @ t=0
0.29837667965105297
% es.tEy (V/m) @ t=0
0
% es.tEz (V/m) @ t=0
-0.4081364382279795
% V (V) @ t=0
0.01137261595549513
% es.normE (V/m) @ t=0.1
0.578380795649424
% es.EX (V/m) @ t=0.1
0.3081590989994225
% es.EY (V/m) @ t=0.1
0.19885447352197097
% es.EZ (V/m) @ t=0.1
-0.42151746051764194
% es.tEX (V/m) @ t=0.1
0.30815909899941896
% es.tEY (V/m) @ t=0.1
0
% es.tEZ (V/m) @ t=0.1
-0.4215174605176506
% es.Ex (V/m) @ t=0.1
0.3081590989994225
% es.Ey (V/m) @ t=0.1
0.19885447352197097
% es.Ez (V/m) @ t=0.1
-0.42151746051764194
% es.tEx (V/m) @ t=0.1
0.30815909899941896
% es.tEy (V/m) @ t=0.1
0
% es.tEz (V/m) @ t=0.1
-0.4215174605176506
% V (V) @ t=0.1
0.01174543216575993
% es.normE (V/m) @ t=0.2
0.6166571928568234
% es.EX (V/m) @ t=0.2
0.3285525766687032
% es.EY (V/m) @ t=0.2
0.21201443850243723
% es.EZ (V/m) @ t=0.2
-0.44941285173744094
% es.tEX (V/m) @ t=0.2
0.32855257666870097
% es.tEY (V/m) @ t=0.2
0
% es.tEZ (V/m) @ t=0.2
-0.4494128517374407
% es.Ex (V/m) @ t=0.2
0.3285525766687032
% es.Ey (V/m) @ t=0.2
0.21201443850243723
% es.Ez (V/m) @ t=0.2
-0.44941285173744094
% es.tEx (V/m) @ t=0.2
0.32855257666870097
% es.tEy (V/m) @ t=0.2
0
% es.tEz (V/m) @ t=0.2
-0.4494128517374407
% V (V) @ t=0.2
0.012522713704310523
% es.normE (V/m) @ t=0.3
0.656795526454168
% es.EX (V/m) @ t=0.3
0.3499383874755504
% es.EY (V/m) @ t=0.3
0.22581396658203476
% es.EZ (V/m) @ t=0.3
-0.4786654322399351
% es.tEX (V/m) @ t=0.3
0.34993838747554795
% es.tEY (V/m) @ t=0.3
0
% es.tEZ (V/m) @ t=0.3
-0.47866543223994373
% es.Ex (V/m) @ t=0.3
0.3499383874755504
% es.Ey (V/m) @ t=0.3
0.22581396658203476
% es.Ez (V/m) @ t=0.3
-0.4786654322399351
% es.tEx (V/m) @ t=0.3
0.34993838747554795
% es.tEy (V/m) @ t=0.3
0
% es.tEz (V/m) @ t=0.3
-0.47866543223994373
% V (V) @ t=0.3
0.013337940702092783
% es.normE (V/m) @ t=0.4
0.6994173854667604
% es.EX (V/m) @ t=0.4
0.37264776758651763
% es.EY (V/m) @ t=0.4
0.2404666585508207
% es.EZ (V/m) @ t=0.4
-0.5097282512183536
% es.tEX (V/m) @ t=0.4
0.3726477675865134
% es.tEY (V/m) @ t=0.4
0
% es.tEZ (V/m) @ t=0.4
-0.5097282512183552
% es.Ex (V/m) @ t=0.4
0.37264776758651763
% es.Ey (V/m) @ t=0.4
0.2404666585508207
% es.Ez (V/m) @ t=0.4
-0.5097282512183536
% es.tEx (V/m) @ t=0.4
0.3726477675865134
% es.tEy (V/m) @ t=0.4
0
% es.tEz (V/m) @ t=0.4
-0.5097282512183552
% V (V) @ t=0.4
0.01420376072785425
% es.normE (V/m) @ t=0.5
0.7448888971176901
% es.EX (V/m) @ t=0.5
0.3968707791993984
% es.EY (V/m) @ t=0.5
0.25610826701191597
% es.EZ (V/m) @ t=0.5
-0.5428643073583086
% es.tEX (V/m) @ t=0.5
0.3968707791993946
% es.tEY (V/m) @ t=0.5
0
% es.tEZ (V/m) @ t=0.5
-0.5428643073583101
% es.Ex (V/m) @ t=0.5
0.3968707791993984
% es.Ey (V/m) @ t=0.5
0.25610826701191597
% es.Ez (V/m) @ t=0.5
-0.5428643073583086
% es.tEx (V/m) @ t=0.5
0.3968707791993946
% es.tEy (V/m) @ t=0.5
0
% es.tEz (V/m) @ t=0.5
-0.5428643073583101
% V (V) @ t=0.5
0.015125377721300022
% es.normE (V/m) @ t=0.6
0.7917851080355313
% es.EX (V/m) @ t=0.6
0.4218533022551181
% es.EY (V/m) @ t=0.6
0.2722388410670688
% es.EZ (V/m) @ t=0.6
-0.5770390041027575
% es.tEX (V/m) @ t=0.6
0.4218533022551143
% es.tEY (V/m) @ t=0.6
0
% es.tEZ (V/m) @ t=0.6
-0.5770390041027627
% es.Ex (V/m) @ t=0.6
0.4218533022551181
% es.Ey (V/m) @ t=0.6
0.2722388410670688
% es.Ez (V/m) @ t=0.6
-0.5770390041027575
% es.tEx (V/m) @ t=0.6
0.4218533022551143
% es.tEy (V/m) @ t=0.6
0
% es.tEz (V/m) @ t=0.6
-0.5770390041027627
% V (V) @ t=0.6
0.016076121878803615
% es.normE (V/m) @ t=0.7
0.84126201614301
% es.EX (V/m) @ t=0.7
0.44821493800004353
% es.EY (V/m) @ t=0.7
0.2892485503717741
% es.EZ (V/m) @ t=0.7
-0.6130976446281957
% es.tEX (V/m) @ t=0.7
0.4482149380000391
% es.tEY (V/m) @ t=0.7
0
% es.tEZ (V/m) @ t=0.7
-0.6130976446281973
% es.Ex (V/m) @ t=0.7
0.44821493800004353
% es.Ey (V/m) @ t=0.7
0.2892485503717741
% es.Ez (V/m) @ t=0.7
-0.6130976446281957
% es.tEx (V/m) @ t=0.7
0.4482149380000391
% es.tEy (V/m) @ t=0.7
0
% es.tEz (V/m) @ t=0.7
-0.6130976446281973
% V (V) @ t=0.7
0.017081112889638508
% es.normE (V/m) @ t=0.8
0.8928348933464787
% es.EX (V/m) @ t=0.8
0.4756966499416584
% es.EY (V/m) @ t=0.8
0.30697226838250774
% es.EZ (V/m) @ t=0.8
-0.6506863708395112
% es.tEX (V/m) @ t=0.8
0.47569664994165484
% es.tEY (V/m) @ t=0.8
0
% es.tEZ (V/m) @ t=0.8
-0.6506863708395234
% es.Ex (V/m) @ t=0.8
0.4756966499416584
% es.Ey (V/m) @ t=0.8
0.30697226838250774
% es.Ez (V/m) @ t=0.8
-0.6506863708395112
% es.tEx (V/m) @ t=0.8
0.47569664994165484
% es.tEy (V/m) @ t=0.8
0
% es.tEz (V/m) @ t=0.8
-0.6506863708395234
% V (V) @ t=0.8
0.0181301616556064
% es.normE (V/m) @ t=0.9
0.9471880391513839
% es.EX (V/m) @ t=0.9
0.5046583809080033
% es.EY (V/m) @ t=0.9
0.32565443278759254
% es.EZ (V/m) @ t=0.9
-0.6903003348236953
% es.tEX (V/m) @ t=0.9
0.5046583809080021
% es.tEY (V/m) @ t=0.9
0
% es.tEZ (V/m) @ t=0.9
-0.6903003348237076
% es.Ex (V/m) @ t=0.9
0.5046583809080033
% es.Ey (V/m) @ t=0.9
0.32565443278759254
% es.Ez (V/m) @ t=0.9
-0.6903003348236953
% es.tEx (V/m) @ t=0.9
0.5046583809080021
% es.tEy (V/m) @ t=0.9
0
% es.tEz (V/m) @ t=0.9
-0.6903003348237076
% V (V) @ t=0.9
0.01923509314884308
% es.normE (V/m) @ t=1
1.0044728302299741
% es.EX (V/m) @ t=1
0.5351797553904026
% es.EY (V/m) @ t=1
0.34534911669276763
% es.EZ (V/m) @ t=1
-0.7320490712900274
% es.tEX (V/m) @ t=1
0.5351797553904012
% es.tEY (V/m) @ t=1
0
% es.tEZ (V/m) @ t=1
-0.7320490712900236
% es.Ex (V/m) @ t=1
0.5351797553904026
% es.Ey (V/m) @ t=1
0.34534911669276763
% es.Ez (V/m) @ t=1
-0.7320490712900274
% es.tEx (V/m) @ t=1
0.5351797553904012
% es.tEy (V/m) @ t=1
0
% es.tEz (V/m) @ t=1
-0.7320490712900236
% V (V) @ t=1
0.020398523221972067
% es.normE (V/m) @ t=1.1
1.0644481193815136
% es.EX (V/m) @ t=1.1
0.5671339294791555
% es.EY (V/m) @ t=1.1
0.3659701802178661
% es.EZ (V/m) @ t=1.1
-0.7757580885645996
% es.tEX (V/m) @ t=1.1
0.5671339294791502
% es.tEY (V/m) @ t=1.1
0
% es.tEZ (V/m) @ t=1.1
-0.7757580885646225
% es.Ex (V/m) @ t=1.1
0.5671339294791555
% es.Ey (V/m) @ t=1.1
0.3659701802178661
% es.Ez (V/m) @ t=1.1
-0.7757580885645996
% es.tEx (V/m) @ t=1.1
0.5671339294791502
% es.tEy (V/m) @ t=1.1
0
% es.tEz (V/m) @ t=1.1
-0.7757580885646225
% V (V) @ t=1.1
0.021616284752937556
% es.normE (V/m) @ t=1.2
1.1276163942725121
% es.EX (V/m) @ t=1.2
0.6007892558133996
% es.EY (V/m) @ t=1.2
0.3876891418603061
% es.EZ (V/m) @ t=1.2
-0.8217940773154018
% es.tEX (V/m) @ t=1.2
0.6007892558133987
% es.tEY (V/m) @ t=1.2
0
% es.tEZ (V/m) @ t=1.2
-0.8217940773154013
% es.Ex (V/m) @ t=1.2
0.6007892558133996
% es.Ey (V/m) @ t=1.2
0.3876891418603061
% es.Ez (V/m) @ t=1.2
-0.8217940773154018
% es.tEx (V/m) @ t=1.2
0.6007892558133987
% es.tEy (V/m) @ t=1.2
0
% es.tEz (V/m) @ t=1.2
-0.8217940773154013
% V (V) @ t=1.2
0.022898862659867677
% es.normE (V/m) @ t=1.3
1.193827022227965
% es.EX (V/m) @ t=1.3
0.6360652892813923
% es.EY (V/m) @ t=1.3
0.4104545848547193
% es.EZ (V/m) @ t=1.3
-0.8700471132582581
% es.tEX (V/m) @ t=1.3
0.636065289281392
% es.tEY (V/m) @ t=1.3
0
% es.tEZ (V/m) @ t=1.3
-0.8700471132582686
% es.Ex (V/m) @ t=1.3
0.6360652892813923
% es.Ey (V/m) @ t=1.3
0.4104545848547193
% es.Ez (V/m) @ t=1.3
-0.8700471132582581
% es.tEx (V/m) @ t=1.3
0.636065289281392
% es.tEy (V/m) @ t=1.3
0
% es.tEz (V/m) @ t=1.3
-0.8700471132582686
% V (V) @ t=1.3
0.02424311383817781
% es.normE (V/m) @ t=1.4
1.2630406228990982
% es.EX (V/m) @ t=1.4
0.6729411128819478
% es.EY (V/m) @ t=1.4
0.43425284318207247
% es.EZ (V/m) @ t=1.4
-0.9204885451964715
% es.tEX (V/m) @ t=1.4
0.6729411128819476
% es.tEY (V/m) @ t=1.4
0
% es.tEZ (V/m) @ t=1.4
-0.9204885451964677
% es.Ex (V/m) @ t=1.4
0.6729411128819478
% es.Ey (V/m) @ t=1.4
0.43425284318207247
% es.Ez (V/m) @ t=1.4
-0.9204885451964715
% es.tEx (V/m) @ t=1.4
0.6729411128819476
% es.tEy (V/m) @ t=1.4
0
% es.tEz (V/m) @ t=1.4
-0.9204885451964677
% V (V) @ t=1.4
0.025648267239464825
% es.normE (V/m) @ t=1.5
1.3353090072700509
% es.EX (V/m) @ t=1.5
0.7114455459896776
% es.EY (V/m) @ t=1.5
0.4590993429697218
% es.EZ (V/m) @ t=1.5
-0.9731570560231355
% es.tEX (V/m) @ t=1.5
0.7114455459896711
% es.tEY (V/m) @ t=1.5
0
% es.tEZ (V/m) @ t=1.5
-0.9731570560231493
% es.Ex (V/m) @ t=1.5
0.7114455459896776
% es.Ey (V/m) @ t=1.5
0.4590993429697218
% es.Ez (V/m) @ t=1.5
-0.9731570560231355
% es.tEx (V/m) @ t=1.5
0.7114455459896711
% es.tEy (V/m) @ t=1.5
0
% es.tEz (V/m) @ t=1.5
-0.9731570560231493
% V (V) @ t=1.5
0.027115914917013564
% es.normE (V/m) @ t=1.6
1.4106062228364515
% es.EX (V/m) @ t=1.6
0.751564152767408
% es.EY (V/m) @ t=1.6
0.4849863571567138
% es.EZ (V/m) @ t=1.6
-1.0280332691918996
% es.tEX (V/m) @ t=1.6
0.7515641527674046
% es.tEY (V/m) @ t=1.6
0
% es.tEZ (V/m) @ t=1.6
-1.0280332691919134
% es.Ex (V/m) @ t=1.6
0.751564152767408
% es.Ey (V/m) @ t=1.6
0.4849863571567138
% es.Ez (V/m) @ t=1.6
-1.0280332691918996
% es.tEx (V/m) @ t=1.6
0.7515641527674046
% es.tEy (V/m) @ t=1.6
0
% es.tEz (V/m) @ t=1.6
-1.0280332691919134
% V (V) @ t=1.6
0.028645259399597153
% es.normE (V/m) @ t=1.7
1.4889322696021703
% es.EX (V/m) @ t=1.7
0.7932969332150857
% es.EY (V/m) @ t=1.7
0.5119138857430737
% es.EZ (V/m) @ t=1.7
-1.0851171847028729
% es.tEX (V/m) @ t=1.7
0.7932969332150774
% es.tEY (V/m) @ t=1.7
0
% es.tEZ (V/m) @ t=1.7
-1.0851171847028867
% es.Ex (V/m) @ t=1.7
0.7932969332150857
% es.Ey (V/m) @ t=1.7
0.5119138857430737
% es.Ez (V/m) @ t=1.7
-1.0851171847028729
% es.tEx (V/m) @ t=1.7
0.7932969332150774
% es.tEy (V/m) @ t=1.7
0
% es.tEz (V/m) @ t=1.7
-1.0851171847028867
% V (V) @ t=1.7
0.030236300687215615
% es.normE (V/m) @ t=1.8
1.570287147572592
% es.EX (V/m) @ t=1.8
0.8366438873327837
% es.EY (V/m) @ t=1.8
0.5398819287288089
% es.EZ (V/m) @ t=1.8
-1.1444088025558803
% es.tEX (V/m) @ t=1.8
0.8366438873327802
% es.tEY (V/m) @ t=1.8
0
% es.tEZ (V/m) @ t=1.8
-1.1444088025558905
% es.Ex (V/m) @ t=1.8
0.8366438873327837
% es.Ey (V/m) @ t=1.8
0.5398819287288089
% es.Ez (V/m) @ t=1.8
-1.1444088025558803
% es.tEx (V/m) @ t=1.8
0.8366438873327802
% es.tEy (V/m) @ t=1.8
0
% es.tEz (V/m) @ t=1.8
-1.1444088025558905
% V (V) @ t=1.8
0.03188903877986892
% es.normE (V/m) @ t=1.9
1.6546708567544135
% es.EX (V/m) @ t=1.9
0.881605015120436
% es.EY (V/m) @ t=1.9
0.5688904861138943
% es.EZ (V/m) @ t=1.9
-1.2059081227510862
% es.tEX (V/m) @ t=1.9
0.881605015120436
% es.tEY (V/m) @ t=1.9
0
% es.tEZ (V/m) @ t=1.9
-1.2059081227510893
% es.Ex (V/m) @ t=1.9
0.881605015120436
% es.Ey (V/m) @ t=1.9
0.5688904861138943
% es.Ez (V/m) @ t=1.9
-1.2059081227510862
% es.tEx (V/m) @ t=1.9
0.881605015120436
% es.tEy (V/m) @ t=1.9
0
% es.tEz (V/m) @ t=1.9
-1.2059081227510893
% V (V) @ t=1.9
0.033603473677557096
% es.normE (V/m) @ t=2
1.7406047551483805
% es.EX (V/m) @ t=2
0.9273915903212386
% es.EY (V/m) @ t=2
0.598432982409909
% es.EZ (V/m) @ t=2
-1.268536827896376
% es.tEX (V/m) @ t=2
0.9273915903212355
% es.tEY (V/m) @ t=2
0
% es.tEZ (V/m) @ t=2
-1.2685368278964004
% es.Ex (V/m) @ t=2
0.9273915903212386
% es.Ey (V/m) @ t=2
0.598432982409909
% es.Ez (V/m) @ t=2
-1.268536827896376
% es.tEx (V/m) @ t=2
0.9273915903212355
% es.tEy (V/m) @ t=2
0
% es.tEz (V/m) @ t=2
-1.2685368278964004
% V (V) @ t=2
0.03534917101374675
% es.normE (V/m) @ t=2.1
1.8277379088328891
% es.EX (V/m) @ t=2.1
0.9738164203688042
% es.EY (V/m) @ t=2.1
0.6283891893817473
% es.EZ (V/m) @ t=2.1
-1.33203899523247
% es.tEX (V/m) @ t=2.1
0.9738164203687969
% es.tEY (V/m) @ t=2.1
0
% es.tEZ (V/m) @ t=2.1
-1.3320389952324767
% es.Ex (V/m) @ t=2.1
0.9738164203688042
% es.Ey (V/m) @ t=2.1
0.6283891893817473
% es.Ez (V/m) @ t=2.1
-1.33203899523247
% es.tEx (V/m) @ t=2.1
0.9738164203687969
% es.tEy (V/m) @ t=2.1
0
% es.tEz (V/m) @ t=2.1
-1.3320389952324767
% V (V) @ t=2.1
0.03711890763955844
% es.normE (V/m) @ t=2.2
1.9170378971317095
% es.EX (V/m) @ t=2.2
1.0213956242546325
% es.EY (V/m) @ t=2.2
0.6590905949544779
% es.EZ (V/m) @ t=2.2
-1.3971202435719898
% es.tEX (V/m) @ t=2.2
1.0213956242546303
% es.tEY (V/m) @ t=2.2
0
% es.tEZ (V/m) @ t=2.2
-1.3971202435719965
% es.Ex (V/m) @ t=2.2
1.0213956242546325
% es.Ey (V/m) @ t=2.2
0.6590905949544779
% es.Ez (V/m) @ t=2.2
-1.3971202435719898
% es.tEx (V/m) @ t=2.2
1.0213956242546303
% es.tEy (V/m) @ t=2.2
0
% es.tEz (V/m) @ t=2.2
-1.3971202435719965
% V (V) @ t=2.2
0.03893259889878382
% es.normE (V/m) @ t=2.3
2.0085047200444084
% es.EX (V/m) @ t=2.3
1.0701292019787263
% es.EY (V/m) @ t=2.3
0.690537199127995
% es.EZ (V/m) @ t=2.3
-1.463780572914969
% es.tEX (V/m) @ t=2.3
1.0701292019787205
% es.tEY (V/m) @ t=2.3
0
% es.tEZ (V/m) @ t=2.3
-1.463780572914965
% es.Ex (V/m) @ t=2.3
1.0701292019787263
% es.Ey (V/m) @ t=2.3
0.690537199127995
% es.Ez (V/m) @ t=2.3
-1.463780572914969
% es.tEx (V/m) @ t=2.3
1.0701292019787205
% es.tEy (V/m) @ t=2.3
0
% es.tEz (V/m) @ t=2.3
-1.463780572914965
% V (V) @ t=2.3
0.04079024479142289
% es.normE (V/m) @ t=2.4
2.102138377570819
% es.EX (V/m) @ t=2.4
1.1200171535410588
% es.EY (V/m) @ t=2.4
0.7227290019023666
% es.EZ (V/m) @ t=2.4
-1.532019983261414
% es.tEX (V/m) @ t=2.4
1.1200171535410517
% es.tEY (V/m) @ t=2.4
0
% es.tEZ (V/m) @ t=2.4
-1.5320199832614172
% es.Ex (V/m) @ t=2.4
1.1200171535410588
% es.Ey (V/m) @ t=2.4
0.7227290019023666
% es.Ez (V/m) @ t=2.4
-1.532019983261414
% es.tEx (V/m) @ t=2.4
1.1200171535410517
% es.tEy (V/m) @ t=2.4
0
% es.tEz (V/m) @ t=2.4
-1.5320199832614172
% V (V) @ t=2.4
0.04269184531747566
% es.normE (V/m) @ t=2.5
2.1979011695495356
% es.EX (V/m) @ t=2.5
1.1710394214394877
% es.EY (V/m) @ t=2.5
0.7556529842587006
% es.EZ (V/m) @ t=2.5
-1.6018110213839396
% es.tEX (V/m) @ t=2.5
1.1710394214394793
% es.tEY (V/m) @ t=2.5
0
% es.tEZ (V/m) @ t=2.5
-1.6018110213839813
% es.Ex (V/m) @ t=2.5
1.1710394214394877
% es.Ey (V/m) @ t=2.5
0.7556529842587006
% es.Ez (V/m) @ t=2.5
-1.6018110213839396
% es.tEx (V/m) @ t=2.5
1.1710394214394793
% es.tEy (V/m) @ t=2.5
0
% es.tEz (V/m) @ t=2.5
-1.6018110213839813
% V (V) @ t=2.5
0.04463664780270385
% es.normE (V/m) @ t=2.6
2.289929602304044
% es.EX (V/m) @ t=2.6
1.2200764689545922
% es.EY (V/m) @ t=2.6
0.7872843024628554
% es.EZ (V/m) @ t=2.6
-1.6688838958481478
% es.tEX (V/m) @ t=2.6
1.2200764689545913
% es.tEY (V/m) @ t=2.6
0
% es.tEZ (V/m) @ t=2.6
-1.668883895848147
% es.Ex (V/m) @ t=2.6
1.2200764689545922
% es.Ey (V/m) @ t=2.6
0.7872843024628554
% es.Ez (V/m) @ t=2.6
-1.6688838958481478
% es.tEx (V/m) @ t=2.6
1.2200764689545913
% es.tEy (V/m) @ t=2.6
0
% es.tEz (V/m) @ t=2.6
-1.668883895848147
% V (V) @ t=2.6
0.04650758907014366
% es.normE (V/m) @ t=2.7
2.382316592968992
% es.EX (V/m) @ t=2.7
1.2693058383062437
% es.EY (V/m) @ t=2.7
0.819036365977995
% es.EZ (V/m) @ t=2.7
-1.7362190655986511
% es.tEX (V/m) @ t=2.7
1.2693058383062326
% es.tEY (V/m) @ t=2.7
0
% es.tEZ (V/m) @ t=2.7
-1.7362190655986431
% es.Ex (V/m) @ t=2.7
1.2693058383062437
% es.Ey (V/m) @ t=2.7
0.819036365977995
% es.Ez (V/m) @ t=2.7
-1.7362190655986511
% es.tEx (V/m) @ t=2.7
1.2693058383062326
% es.tEy (V/m) @ t=2.7
0
% es.tEz (V/m) @ t=2.7
-1.7362190655986431
% V (V) @ t=2.7
0.048386383179657995
% es.normE (V/m) @ t=2.8
2.4750621415963234
% es.EX (V/m) @ t=2.8
1.3187275294945224
% es.EY (V/m) @ t=2.8
0.8509091748040658
% es.EZ (V/m) @ t=2.8
-1.8038165306354417
% es.tEX (V/m) @ t=2.8
1.3187275294945255
% es.tEY (V/m) @ t=2.8
0
% es.tEZ (V/m) @ t=2.8
-1.8038165306354266
% es.Ex (V/m) @ t=2.8
1.3187275294945224
% es.Ey (V/m) @ t=2.8
0.8509091748040658
% es.Ez (V/m) @ t=2.8
-1.8038165306354417
% es.tEx (V/m) @ t=2.8
1.3187275294945255
% es.tEy (V/m) @ t=2.8
0
% es.tEz (V/m) @ t=2.8
-1.8038165306354266
% V (V) @ t=2.8
0.05027303013124692
% es.normE (V/m) @ t=2.9
2.568166248243883
% es.EX (V/m) @ t=2.9
1.368341542519358
% es.EY (V/m) @ t=2.9
0.8829027289410891
% es.EZ (V/m) @ t=2.9
-1.8716762909585354
% es.tEX (V/m) @ t=2.9
1.3683415425193433
% es.tEY (V/m) @ t=2.9
0
% es.tEZ (V/m) @ t=2.9
-1.87167629095857
% es.Ex (V/m) @ t=2.9
1.368341542519358
% es.Ey (V/m) @ t=2.9
0.8829027289410891
% es.Ez (V/m) @ t=2.9
-1.8716762909585354
% es.tEx (V/m) @ t=2.9
1.3683415425193433
% es.tEy (V/m) @ t=2.9
0
% es.tEz (V/m) @ t=2.9
-1.87167629095857
% V (V) @ t=2.9
0.052167529924910395
% es.normE (V/m) @ t=3
2.6616289129743915
% es.EX (V/m) @ t=3
1.4181478773807665
% es.EY (V/m) @ t=3
0.9150170283890509
% es.EZ (V/m) @ t=3
-1.9397983465680095
% es.tEX (V/m) @ t=3
1.418147877380762
% es.tEY (V/m) @ t=3
0
% es.tEZ (V/m) @ t=3
-1.9397983465680158
% es.Ex (V/m) @ t=3
1.4181478773807665
% es.Ey (V/m) @ t=3
0.9150170283890509
% es.Ez (V/m) @ t=3
-1.9397983465680095
% es.tEx (V/m) @ t=3
1.418147877380762
% es.tEy (V/m) @ t=3
0
% es.tEz (V/m) @ t=3
-1.9397983465680158
% V (V) @ t=3
0.05406988256064842
% es.normE (V/m) @ t=3.1
2.7531611179435176
% es.EX (V/m) @ t=3.1
1.4669207546988048
% es.EY (V/m) @ t=3.1
0.9464773165232585
% es.EZ (V/m) @ t=3.1
-2.006509734716002
% es.tEX (V/m) @ t=3.1
1.466920754698795
% es.tEY (V/m) @ t=3.1
0
% es.tEZ (V/m) @ t=3.1
-2.0065097347160084
% es.Ex (V/m) @ t=3.1
1.4669207546988048
% es.Ey (V/m) @ t=3.1
0.9464773165232585
% es.Ez (V/m) @ t=3.1
-2.006509734716002
% es.tEx (V/m) @ t=3.1
1.466920754698795
% es.tEy (V/m) @ t=3.1
0
% es.tEz (V/m) @ t=3.1
-2.0065097347160084
% V (V) @ t=3.1
0.0559308394703171
% es.normE (V/m) @ t=3.2
2.841077767925941
% es.EX (V/m) @ t=3.2
1.5137577984358161
% es.EY (V/m) @ t=3.2
0.9767132445317
% es.EZ (V/m) @ t=3.2
-2.0705788785623103
% es.tEX (V/m) @ t=3.2
1.5137577984358197
% es.tEY (V/m) @ t=3.2
0
% es.tEZ (V/m) @ t=3.2
-2.0705788785623236
% es.Ex (V/m) @ t=3.2
1.5137577984358161
% es.Ey (V/m) @ t=3.2
0.9767132445317
% es.Ez (V/m) @ t=3.2
-2.0705788785623103
% es.tEx (V/m) @ t=3.2
1.5137577984358197
% es.tEy (V/m) @ t=3.2
0
% es.tEz (V/m) @ t=3.2
-2.0705788785623236
% V (V) @ t=3.2
0.05771414557530336
% es.normE (V/m) @ t=3.3
2.927674173154381
% es.EX (V/m) @ t=3.3
1.5598881574922494
% es.EY (V/m) @ t=3.3
1.0065016987521047
% es.EZ (V/m) @ t=3.3
-2.1336833396287247
% es.tEX (V/m) @ t=3.3
1.5598881574922414
% es.tEY (V/m) @ t=3.3
0
% es.tEZ (V/m) @ t=3.3
-2.1336833396287522
% es.Ex (V/m) @ t=3.3
1.5598881574922494
% es.Ey (V/m) @ t=3.3
1.0065016987521047
% es.Ez (V/m) @ t=3.3
-2.1336833396287247
% es.tEx (V/m) @ t=3.3
1.5598881574922414
% es.tEy (V/m) @ t=3.3
0
% es.tEz (V/m) @ t=3.3
-2.1336833396287522
% V (V) @ t=3.3
0.059469184822157524
% es.normE (V/m) @ t=3.4
3.012950333825314
% es.EX (V/m) @ t=3.4
1.605311831868045
% es.EY (V/m) @ t=3.4
1.0358426791844595
% es.EZ (V/m) @ t=3.4
-2.195823117915201
% es.tEX (V/m) @ t=3.4
1.605311831868029
% es.tEY (V/m) @ t=3.4
0
% es.tEZ (V/m) @ t=3.4
-2.1958231179152072
% es.Ex (V/m) @ t=3.4
1.605311831868045
% es.Ey (V/m) @ t=3.4
1.0358426791844595
% es.Ez (V/m) @ t=3.4
-2.195823117915201
% es.tEx (V/m) @ t=3.4
1.605311831868029
% es.tEy (V/m) @ t=3.4
0
% es.tEz (V/m) @ t=3.4
-2.1958231179152072
% V (V) @ t=3.4
0.06119595721087963
% es.normE (V/m) @ t=3.5
3.0969062501861364
% es.EX (V/m) @ t=3.5
1.6500288215632724
% es.EY (V/m) @ t=3.5
1.0647361858287145
% es.EZ (V/m) @ t=3.5
-2.256998213421647
% es.tEX (V/m) @ t=3.5
1.650028821563267
% es.tEY (V/m) @ t=3.5
0
% es.tEZ (V/m) @ t=3.5
-2.25699821342166
% es.Ex (V/m) @ t=3.5
1.6500288215632724
% es.Ey (V/m) @ t=3.5
1.0647361858287145
% es.Ez (V/m) @ t=3.5
-2.256998213421647
% es.tEx (V/m) @ t=3.5
1.650028821563267
% es.tEy (V/m) @ t=3.5
0
% es.tEz (V/m) @ t=3.5
-2.25699821342166
% V (V) @ t=3.5
0.0628944627414696
% es.normE (V/m) @ t=3.6
3.178375564715762
% es.EX (V/m) @ t=3.6
1.6934249736007176
% es.EY (V/m) @ t=3.6
1.092766861461603
% es.EZ (V/m) @ t=3.6
-2.3163641657109446
% es.tEX (V/m) @ t=3.6
1.6934249736007043
% es.tEY (V/m) @ t=3.6
0
% es.tEZ (V/m) @ t=3.6
-2.316364165710972
% es.Ex (V/m) @ t=3.6
1.6934249736007176
% es.Ey (V/m) @ t=3.6
1.092766861461603
% es.Ez (V/m) @ t=3.6
-2.3163641657109446
% es.tEx (V/m) @ t=3.6
1.6934249736007043
% es.tEy (V/m) @ t=3.6
0
% es.tEz (V/m) @ t=3.6
-2.316364165710972
% V (V) @ t=3.6
0.06454425787153989
% es.normE (V/m) @ t=3.7
3.2564484418739683
% es.EX (V/m) @ t=3.7
1.735021208565139
% es.EY (V/m) @ t=3.7
1.1196107003333324
% es.EZ (V/m) @ t=3.7
-2.3732622405136548
% es.tEX (V/m) @ t=3.7
1.735021208565124
% es.tEY (V/m) @ t=3.7
0
% es.tEZ (V/m) @ t=3.7
-2.3732622405136894
% es.Ex (V/m) @ t=3.7
1.735021208565139
% es.Ey (V/m) @ t=3.7
1.1196107003333324
% es.Ez (V/m) @ t=3.7
-2.3732622405136548
% es.tEx (V/m) @ t=3.7
1.735021208565124
% es.tEy (V/m) @ t=3.7
0
% es.tEz (V/m) @ t=3.7
-2.3732622405136894
% V (V) @ t=3.7
0.06612939530342951
% es.normE (V/m) @ t=3.8
3.3322625159039374
% es.EX (V/m) @ t=3.8
1.7754165549528946
% es.EY (V/m) @ t=3.8
1.145672830844023
% es.EZ (V/m) @ t=3.8
-2.428516102103946
% es.tEX (V/m) @ t=3.8
1.7754165549528889
% es.tEY (V/m) @ t=3.8
0
% es.tEZ (V/m) @ t=3.8
-2.428516102103938
% es.Ex (V/m) @ t=3.8
1.7754165549528946
% es.Ey (V/m) @ t=3.8
1.145672830844023
% es.Ez (V/m) @ t=3.8
-2.428516102103946
% es.tEx (V/m) @ t=3.8
1.7754165549528889
% es.tEy (V/m) @ t=3.8
0
% es.tEz (V/m) @ t=3.8
-2.428516102103938
% V (V) @ t=3.8
0.06766981512521844
% es.normE (V/m) @ t=3.9
3.405817786835956
% es.EX (V/m) @ t=3.9
1.8146110127639767
% es.EY (V/m) @ t=3.9
1.170953252993689
% es.EZ (V/m) @ t=3.9
-2.4821257504816803
% es.tEX (V/m) @ t=3.9
1.8146110127639705
% es.tEY (V/m) @ t=3.9
0
% es.tEZ (V/m) @ t=3.9
-2.4821257504816785
% es.Ex (V/m) @ t=3.9
1.8146110127639767
% es.Ey (V/m) @ t=3.9
1.170953252993689
% es.Ez (V/m) @ t=3.9
-2.4821257504816803
% es.tEx (V/m) @ t=3.9
1.8146110127639705
% es.tEy (V/m) @ t=3.9
0
% es.tEz (V/m) @ t=3.9
-2.4821257504816785
% V (V) @ t=3.9
0.06916551733690673
% es.normE (V/m) @ t=4
3.4771142547386726
% es.EX (V/m) @ t=4
1.852604581998408
% es.EY (V/m) @ t=4
1.1954519667823447
% es.EZ (V/m) @ t=4
-2.534091185646962
% es.tEX (V/m) @ t=4
1.8526045819983992
% es.tEY (V/m) @ t=4
0
% es.tEZ (V/m) @ t=4
-2.5340911856469965
% es.Ex (V/m) @ t=4
1.852604581998408
% es.Ey (V/m) @ t=4
1.1954519667823447
% es.Ez (V/m) @ t=4
-2.534091185646962
% es.tEx (V/m) @ t=4
1.8526045819983992
% es.tEy (V/m) @ t=4
0
% es.tEz (V/m) @ t=4
-2.5340911856469965
% V (V) @ t=4
0.07061650193849439
% es.normE (V/m) @ t=4.1
3.546047883870728
% es.EX (V/m) @ t=4.1
1.8893369791540984
% es.EY (V/m) @ t=4.1
1.2191427721155823
% es.EZ (V/m) @ t=4.1
-2.5843328747494025
% es.tEX (V/m) @ t=4.1
1.8893369791540824
% es.tEY (V/m) @ t=4.1
0
% es.tEZ (V/m) @ t=4.1
-2.584332874749416
% es.Ex (V/m) @ t=4.1
1.8893369791540984
% es.Ey (V/m) @ t=4.1
1.2191427721155823
% es.Ez (V/m) @ t=4.1
-2.5843328747494025
% es.tEx (V/m) @ t=4.1
1.8893369791540824
% es.tEy (V/m) @ t=4.1
0
% es.tEz (V/m) @ t=4.1
-2.584332874749416
% V (V) @ t=4.1
0.0720184941123598
% es.normE (V/m) @ t=4.2
3.61253859386363
% es.EX (V/m) @ t=4.2
1.924761801742295
% es.EY (V/m) @ t=4.2
1.2420055017909482
% es.EZ (V/m) @ t=4.2
-2.632789598349029
% es.tEX (V/m) @ t=4.2
1.9247618017422852
% es.tEY (V/m) @ t=4.2
0
% es.tEZ (V/m) @ t=4.2
-2.632789598349028
% es.Ex (V/m) @ t=4.2
1.924761801742295
% es.Ey (V/m) @ t=4.2
1.2420055017909482
% es.Ez (V/m) @ t=4.2
-2.632789598349029
% es.tEx (V/m) @ t=4.2
1.9247618017422852
% es.tEy (V/m) @ t=4.2
0
% es.tEz (V/m) @ t=4.2
-2.632789598349028
% V (V) @ t=4.2
0.07336820336987407
% es.normE (V/m) @ t=4.3
3.676687138140086
% es.EX (V/m) @ t=4.3
1.9589374312858308
% es.EY (V/m) @ t=4.3
1.2640655292749252
% es.EZ (V/m) @ t=4.3
-2.6795383799897072
% es.tEX (V/m) @ t=4.3
1.9589374312858219
% es.tEY (V/m) @ t=4.3
0
% es.tEZ (V/m) @ t=4.3
-2.6795383799896992
% es.Ex (V/m) @ t=4.3
1.9589374312858308
% es.Ey (V/m) @ t=4.3
1.2640655292749252
% es.Ez (V/m) @ t=4.3
-2.6795383799897072
% es.tEx (V/m) @ t=4.3
1.9589374312858219
% es.tEy (V/m) @ t=4.3
0
% es.tEz (V/m) @ t=4.3
-2.6795383799896992
% V (V) @ t=4.3
0.07466976965572941
% es.normE (V/m) @ t=4.4
3.73849351672001
% es.EX (V/m) @ t=4.4
1.9918638677849674
% es.EY (V/m) @ t=4.4
1.285322854567489
% es.EZ (V/m) @ t=4.4
-2.7245792196713685
% es.tEX (V/m) @ t=4.4
1.9918638677849536
% es.tEY (V/m) @ t=4.4
0
% es.tEZ (V/m) @ t=4.4
-2.724579219671382
% es.Ex (V/m) @ t=4.4
1.9918638677849674
% es.Ey (V/m) @ t=4.4
1.285322854567489
% es.Ez (V/m) @ t=4.4
-2.7245792196713685
% es.tEx (V/m) @ t=4.4
1.9918638677849536
% es.tEy (V/m) @ t=4.4
0
% es.tEz (V/m) @ t=4.4
-2.724579219671382
% V (V) @ t=4.4
0.07592319296992582
% es.normE (V/m) @ t=4.5
3.7979577296311993
% es.EX (V/m) @ t=4.5
2.0235411112396253
% es.EY (V/m) @ t=4.5
1.3057774776686917
% es.EZ (V/m) @ t=4.5
-2.7679121173939985
% es.tEX (V/m) @ t=4.5
2.0235411112396022
% es.tEY (V/m) @ t=4.5
0
% es.tEZ (V/m) @ t=4.5
-2.7679121173940118
% es.Ex (V/m) @ t=4.5
2.0235411112396253
% es.Ey (V/m) @ t=4.5
1.3057774776686917
% es.Ez (V/m) @ t=4.5
-2.7679121173939985
% es.tEx (V/m) @ t=4.5
2.0235411112396022
% es.tEy (V/m) @ t=4.5
0
% es.tEz (V/m) @ t=4.5
-2.7679121173940118
% V (V) @ t=4.5
0.0771284733124633
% es.normE (V/m) @ t=4.6
3.8551756153833234
% es.EX (V/m) @ t=4.6
2.0540220378390774
% es.EY (V/m) @ t=4.6
1.3254587701894505
% es.EZ (V/m) @ t=4.6
-2.8096083090146937
% es.tEX (V/m) @ t=4.6
2.0540220378390615
% es.tEY (V/m) @ t=4.6
0
% es.tEZ (V/m) @ t=4.6
-2.809608309014777
% es.Ex (V/m) @ t=4.6
2.0540220378390774
% es.Ey (V/m) @ t=4.6
1.3254587701894505
% es.Ez (V/m) @ t=4.6
-2.8096083090146937
% es.tEx (V/m) @ t=4.6
2.0540220378390615
% es.tEy (V/m) @ t=4.6
0
% es.tEz (V/m) @ t=4.6
-2.809608309014777
% V (V) @ t=4.6
0.07828836585862103
% es.normE (V/m) @ t=4.7
3.910219962342236
% es.EX (V/m) @ t=4.7
2.0833468065337017
% es.EY (V/m) @ t=4.7
1.3443890395820703
% es.EZ (V/m) @ t=4.7
-2.8497218974723237
% es.tEX (V/m) @ t=4.7
2.0833468065336938
% es.tEY (V/m) @ t=4.7
0
% es.tEZ (V/m) @ t=4.7
-2.849721897472323
% es.Ex (V/m) @ t=4.7
2.0833468065337017
% es.Ey (V/m) @ t=4.7
1.3443890395820703
% es.Ez (V/m) @ t=4.7
-2.8497218974723237
% es.tEx (V/m) @ t=4.7
2.0833468065336938
% es.tEy (V/m) @ t=4.7
0
% es.tEz (V/m) @ t=4.7
-2.849721897472323
% V (V) @ t=4.7
0.07940496313716285
% es.normE (V/m) @ t=4.8
3.9629986142487708
% es.EX (V/m) @ t=4.8
2.111464572702685
% es.EY (V/m) @ t=4.8
1.362540042729111
% es.EZ (V/m) @ t=4.8
-2.88818438387963
% es.tEX (V/m) @ t=4.8
2.11146457270266
% es.tEY (V/m) @ t=4.8
0
% es.tEZ (V/m) @ t=4.8
-2.8881843838796435
% es.Ex (V/m) @ t=4.8
2.111464572702685
% es.Ey (V/m) @ t=4.8
1.362540042729111
% es.Ez (V/m) @ t=4.8
-2.88818438387963
% es.tEx (V/m) @ t=4.8
2.11146457270266
% es.tEy (V/m) @ t=4.8
0
% es.tEz (V/m) @ t=4.8
-2.8881843838796435
% V (V) @ t=4.8
0.08047561583005149
% es.normE (V/m) @ t=4.9
4.013511571100485
% es.EX (V/m) @ t=4.9
2.138375336346126
% es.EY (V/m) @ t=4.9
1.3799117796305167
% es.EZ (V/m) @ t=4.9
-2.924995768236573
% es.tEX (V/m) @ t=4.9
2.138375336346096
% es.tEY (V/m) @ t=4.9
0
% es.tEZ (V/m) @ t=4.9
-2.9249957682365935
% es.Ex (V/m) @ t=4.9
2.138375336346126
% es.Ey (V/m) @ t=4.9
1.3799117796305167
% es.Ez (V/m) @ t=4.9
-2.924995768236573
% es.tEx (V/m) @ t=4.9
2.138375336346096
% es.tEy (V/m) @ t=4.9
0
% es.tEz (V/m) @ t=4.9
-2.9249957682365935
% V (V) @ t=4.9
0.08150032393728689
% es.normE (V/m) @ t=5
4.061758832895188
% es.EX (V/m) @ t=5
2.1640790974639845
% es.EY (V/m) @ t=5
1.3965042502863654
% es.EZ (V/m) @ t=5
-2.960156050543045
% es.tEX (V/m) @ t=5
2.1640790974639597
% es.tEY (V/m) @ t=5
0
% es.tEZ (V/m) @ t=5
-2.9601560505430857
% es.Ex (V/m) @ t=5
2.1640790974639845
% es.Ey (V/m) @ t=5
1.3965042502863654
% es.Ez (V/m) @ t=5
-2.960156050543045
% es.tEx (V/m) @ t=5
2.1640790974639597
% es.tEy (V/m) @ t=5
0
% es.tEz (V/m) @ t=5
-2.9601560505430857
% V (V) @ t=5
0.0824790874588691
% es.normE (V/m) @ t=5.1
4.107634581416776
% es.EX (V/m) @ t=5.1
2.188520070219395
% es.EY (V/m) @ t=5.1
1.4122798960045897
% es.EZ (V/m) @ t=5.1
-2.9935885708447163
% es.tEX (V/m) @ t=5.1
2.188520070219381
% es.tEY (V/m) @ t=5.1
0
% es.tEZ (V/m) @ t=5.1
-2.9935885708447927
% es.Ex (V/m) @ t=5.1
2.188520070219395
% es.Ey (V/m) @ t=5.1
1.4122798960045897
% es.Ez (V/m) @ t=5.1
-2.9935885708447163
% es.tEx (V/m) @ t=5.1
2.188520070219381
% es.tEy (V/m) @ t=5.1
0
% es.tEz (V/m) @ t=5.1
-2.9935885708447927
% V (V) @ t=5.1
0.08341002335654071
% es.normE (V/m) @ t=5.2
4.151021585816503
% es.EX (V/m) @ t=5.2
2.2116364522023204
% es.EY (V/m) @ t=5.2
1.4271971073401954
% es.EZ (V/m) @ t=5.2
-3.0252084013134954
% es.tEX (V/m) @ t=5.2
2.2116364522023133
% es.tEY (V/m) @ t=5.2
0
% es.tEZ (V/m) @ t=5.2
-3.0252084013135363
% es.Ex (V/m) @ t=5.2
2.2116364522023204
% es.Ey (V/m) @ t=5.2
1.4271971073401954
% es.Ez (V/m) @ t=5.2
-3.0252084013134954
% es.tEx (V/m) @ t=5.2
2.2116364522023133
% es.tEy (V/m) @ t=5.2
0
% es.tEz (V/m) @ t=5.2
-3.0252084013135363
% V (V) @ t=5.2
0.08429104550397902
% es.normE (V/m) @ t=5.3
4.191987095853165
% es.EX (V/m) @ t=5.3
2.233463696516316
% es.EY (V/m) @ t=5.3
1.441279753653028
% es.EZ (V/m) @ t=5.3
-3.0550642610054615
% es.tEX (V/m) @ t=5.3
2.23346369651631
% es.tEY (V/m) @ t=5.3
0
% es.tEZ (V/m) @ t=5.3
-3.0550642610054535
% es.Ex (V/m) @ t=5.3
2.233463696516316
% es.Ey (V/m) @ t=5.3
1.441279753653028
% es.Ez (V/m) @ t=5.3
-3.0550642610054615
% es.tEx (V/m) @ t=5.3
2.23346369651631
% es.tEy (V/m) @ t=5.3
0