% Model:              1x1--2 - Copy1.mph
% Version:            COMSOL 6.1.0.252
% Date:               Mar 28 2023, 11:06
% Dimension:          0
% Nodes:              14017
% Expressions:        14017
% Description:        Electric field norm, Electric field, X component, Electric field, Y component, Electric field, Z component, Tangential electric field, X component, Tangential electric field, Y component, Tangential electric field, Z component, Electric field, x component, Electric field, y component, Electric field, z component, Tangential electric field, x component, Tangential electric field, y component, Tangential electric field, z component, Electric potential
% Length unit:        mm
% x
1.66
% y
12.2
% z
2
% es.normE (V/m) @ t=0
0.3805531876145923
% es.EX (V/m) @ t=0
0.19211123466641133
% es.EY (V/m) @ t=0
0.15107346634446728
% es.EZ (V/m) @ t=0
-0.25266616540092457
% es.tEX (V/m) @ t=0
0.19211123466641
% es.tEY (V/m) @ t=0
0
% es.tEZ (V/m) @ t=0
-0.2526661654009299
% es.Ex (V/m) @ t=0
0.19211123466641133
% es.Ey (V/m) @ t=0
0.15107346634446728
% es.Ez (V/m) @ t=0
-0.25266616540092457
% es.tEx (V/m) @ t=0
0.19211123466641
% es.tEy (V/m) @ t=0
0
% es.tEz (V/m) @ t=0
-0.2526661654009299
% V (V) @ t=0
0.011028751608979112
% es.normE (V/m) @ t=0.1
0.39300507810367336
% es.EX (V/m) @ t=0.1
0.19839630686721588
% es.EY (V/m) @ t=0.1
0.15601904494764263
% es.EZ (V/m) @ t=0.1
-0.2609319836571895
% es.tEX (V/m) @ t=0.1
0.19839630686721765
% es.tEY (V/m) @ t=0.1
0
% es.tEZ (V/m) @ t=0.1
-0.26093198365718706
% es.Ex (V/m) @ t=0.1
0.19839630686721588
% es.Ey (V/m) @ t=0.1
0.15601904494764263
% es.Ez (V/m) @ t=0.1
-0.2609319836571895
% es.tEx (V/m) @ t=0.1
0.19839630686721765
% es.tEy (V/m) @ t=0.1
0
% es.tEz (V/m) @ t=0.1
-0.26093198365718706
% V (V) @ t=0.1
0.011389327069384734
% es.normE (V/m) @ t=0.2
0.4189901246338977
% es.EX (V/m) @ t=0.2
0.21151148836912448
% es.EY (V/m) @ t=0.2
0.1663416022058719
% es.EZ (V/m) @ t=0.2
-0.2781801137376363
% es.tEX (V/m) @ t=0.2
0.2115114883691258
% es.tEY (V/m) @ t=0.2
0
% es.tEZ (V/m) @ t=0.2
-0.27818011373763607
% es.Ex (V/m) @ t=0.2
0.21151148836912448
% es.Ey (V/m) @ t=0.2
0.1663416022058719
% es.Ez (V/m) @ t=0.2
-0.2781801137376363
% es.tEx (V/m) @ t=0.2
0.2115114883691258
% es.tEy (V/m) @ t=0.2
0
% es.tEz (V/m) @ t=0.2
-0.27818011373763607
% V (V) @ t=0.2
0.012141550003565654
% es.normE (V/m) @ t=0.3
0.4462216375526329
% es.EX (V/m) @ t=0.3
0.22525815291094453
% es.EY (V/m) @ t=0.3
0.17715304662116615
% es.EZ (V/m) @ t=0.3
-0.29625969596769064
% es.tEX (V/m) @ t=0.3
0.2252581529109463
% es.tEY (V/m) @ t=0.3
0
% es.tEZ (V/m) @ t=0.3
-0.29625969596769064
% es.Ex (V/m) @ t=0.3
0.22525815291094453
% es.Ey (V/m) @ t=0.3
0.17715304662116615
% es.Ez (V/m) @ t=0.3
-0.29625969596769064
% es.tEx (V/m) @ t=0.3
0.2252581529109463
% es.tEy (V/m) @ t=0.3
0
% es.tEz (V/m) @ t=0.3
-0.29625969596769064
% V (V) @ t=0.3
0.012930623431060495
% es.normE (V/m) @ t=0.4
0.47520031456914724
% es.EX (V/m) @ t=0.4
0.23989029390220207
% es.EY (V/m) @ t=0.4
0.18864888449535577
% es.EZ (V/m) @ t=0.4
-0.3155052902442963
% es.tEX (V/m) @ t=0.4
0.2398902939022025
% es.tEY (V/m) @ t=0.4
0
% es.tEZ (V/m) @ t=0.4
-0.31550529024429785
% es.Ex (V/m) @ t=0.4
0.23989029390220207
% es.Ey (V/m) @ t=0.4
0.18864888449535577
% es.Ez (V/m) @ t=0.4
-0.3155052902442963
% es.tEx (V/m) @ t=0.4
0.2398902939022025
% es.tEy (V/m) @ t=0.4
0
% es.tEz (V/m) @ t=0.4
-0.31550529024429785
% V (V) @ t=0.4
0.013771457393944456
% es.normE (V/m) @ t=0.5
0.5060586758170389
% es.EX (V/m) @ t=0.5
0.25546894751298854
% es.EY (V/m) @ t=0.5
0.2008972624398826
% es.EZ (V/m) @ t=0.5
-0.3359947658018667
% es.tEX (V/m) @ t=0.5
0.2554689475129899
% es.tEY (V/m) @ t=0.5
0
% es.tEZ (V/m) @ t=0.5
-0.3359947658018685
% es.Ex (V/m) @ t=0.5
0.25546894751298854
% es.Ey (V/m) @ t=0.5
0.2008972624398826
% es.Ez (V/m) @ t=0.5
-0.3359947658018667
% es.tEx (V/m) @ t=0.5
0.2554689475129899
% es.tEy (V/m) @ t=0.5
0
% es.tEz (V/m) @ t=0.5
-0.3359947658018685
% V (V) @ t=0.5
0.01466599085054968
% es.normE (V/m) @ t=0.6
0.5378997338229522
% es.EX (V/m) @ t=0.6
0.2715430941827268
% es.EY (V/m) @ t=0.6
0.21353732528347003
% es.EZ (V/m) @ t=0.6
-0.3571356754327728
% es.tEX (V/m) @ t=0.6
0.2715430941827277
% es.tEY (V/m) @ t=0.6
0
% es.tEZ (V/m) @ t=0.6
-0.35713567543278124
% es.Ex (V/m) @ t=0.6
0.2715430941827268
% es.Ey (V/m) @ t=0.6
0.21353732528347003
% es.Ez (V/m) @ t=0.6
-0.3571356754327728
% es.tEx (V/m) @ t=0.6
0.2715430941827277
% es.tEy (V/m) @ t=0.6
0
% es.tEz (V/m) @ t=0.6
-0.35713567543278124
% V (V) @ t=0.6
0.015588811592081754
% es.normE (V/m) @ t=0.7
0.5715034103130787
% es.EX (V/m) @ t=0.7
0.28850707005512
% es.EY (V/m) @ t=0.7
0.2268770574956367
% es.EZ (V/m) @ t=0.7
-0.37944690655814695
% es.tEX (V/m) @ t=0.7
0.28850707005512266
% es.tEY (V/m) @ t=0.7
0
% es.tEZ (V/m) @ t=0.7
-0.37944690655814917
% es.Ex (V/m) @ t=0.7
0.28850707005512
% es.Ey (V/m) @ t=0.7
0.2268770574956367
% es.Ez (V/m) @ t=0.7
-0.37944690655814695
% es.tEx (V/m) @ t=0.7
0.28850707005512266
% es.tEy (V/m) @ t=0.7
0
% es.tEz (V/m) @ t=0.7
-0.37944690655814917
% V (V) @ t=0.7
0.016562722223739893
% es.normE (V/m) @ t=0.8
0.6065286630361242
% es.EX (V/m) @ t=0.8
0.306188705510138
% es.EY (V/m) @ t=0.8
0.240781082749141
% es.EZ (V/m) @ t=0.8
-0.4027020181864036
% es.tEX (V/m) @ t=0.8
0.3061887055101362
% es.tEY (V/m) @ t=0.8
0
% es.tEZ (V/m) @ t=0.8
-0.40270201818640317
% es.Ex (V/m) @ t=0.8
0.306188705510138
% es.Ey (V/m) @ t=0.8
0.240781082749141
% es.Ez (V/m) @ t=0.8
-0.4027020181864036
% es.tEx (V/m) @ t=0.8
0.3061887055101362
% es.tEy (V/m) @ t=0.8
0
% es.tEz (V/m) @ t=0.8
-0.40270201818640317
% V (V) @ t=0.8
0.017577837559755363
% es.normE (V/m) @ t=0.9
0.6433929893276596
% es.EX (V/m) @ t=0.9
0.3247981029930953
% es.EY (V/m) @ t=0.9
0.25541688699072473
% es.EZ (V/m) @ t=0.9
-0.4271770685101597
% es.tEX (V/m) @ t=0.9
0.32479810299309975
% es.tEY (V/m) @ t=0.9
0
% es.tEZ (V/m) @ t=0.9
-0.42717706851017034
% es.Ex (V/m) @ t=0.9
0.3247981029930953
% es.Ey (V/m) @ t=0.9
0.25541688699072473
% es.Ez (V/m) @ t=0.9
-0.4271770685101597
% es.tEx (V/m) @ t=0.9
0.32479810299309975
% es.tEy (V/m) @ t=0.9
0
% es.tEz (V/m) @ t=0.9
-0.42717706851017034
% V (V) @ t=0.9
0.01864604320418324
% es.normE (V/m) @ t=1
0.6822837585911081
% es.EX (V/m) @ t=1
0.34442955475929704
% es.EY (V/m) @ t=1
0.2708596365404592
% es.EZ (V/m) @ t=1
-0.45299595018354566
% es.tEX (V/m) @ t=1
0.34442955475929793
% es.tEY (V/m) @ t=1
0
% es.tEZ (V/m) @ t=1
-0.45299595018355276
% es.Ex (V/m) @ t=1
0.34442955475929704
% es.Ey (V/m) @ t=1
0.2708596365404592
% es.Ez (V/m) @ t=1
-0.45299595018354566
% es.tEx (V/m) @ t=1
0.34442955475929793
% es.tEy (V/m) @ t=1
0
% es.tEz (V/m) @ t=1
-0.45299595018355276
% V (V) @ t=1
0.019772673318699228
% es.normE (V/m) @ t=1.1
0.7230050054023109
% es.EX (V/m) @ t=1.1
0.36498444264073626
% es.EY (V/m) @ t=1.1
0.28703071661964863
% es.EZ (V/m) @ t=1.1
-0.48002908664126176
% es.tEX (V/m) @ t=1.1
0.3649844426407336
% es.tEY (V/m) @ t=1.1
0
% es.tEZ (V/m) @ t=1.1
-0.4800290866412702
% es.Ex (V/m) @ t=1.1
0.36498444264073626
% es.Ey (V/m) @ t=1.1
0.28703071661964863
% es.Ez (V/m) @ t=1.1
-0.48002908664126176
% es.tEx (V/m) @ t=1.1
0.3649844426407336
% es.tEy (V/m) @ t=1.1
0
% es.tEz (V/m) @ t=1.1
-0.4800290866412702
% V (V) @ t=1.1
0.020952149022507666
% es.normE (V/m) @ t=1.2
0.7658542729194251
% es.EX (V/m) @ t=1.2
0.3866148183330367
% es.EY (V/m) @ t=1.2
0.3040433550867938
% es.EZ (V/m) @ t=1.2
-0.5084772151700467
% es.tEX (V/m) @ t=1.2
0.38661481833304023
% es.tEY (V/m) @ t=1.2
0
% es.tEZ (V/m) @ t=1.2
-0.5084772151700374
% es.Ex (V/m) @ t=1.2
0.3866148183330367
% es.Ey (V/m) @ t=1.2
0.3040433550867938
% es.Ez (V/m) @ t=1.2
-0.5084772151700467
% es.tEx (V/m) @ t=1.2
0.38661481833304023
% es.tEy (V/m) @ t=1.2
0
% es.tEz (V/m) @ t=1.2
-0.5084772151700374
% V (V) @ t=1.2
0.022193692094168424
% es.normE (V/m) @ t=1.3
0.810793565718654
% es.EX (V/m) @ t=1.3
0.40930126527912236
% es.EY (V/m) @ t=1.3
0.32188309307533025
% es.EZ (V/m) @ t=1.3
-0.5383147022051165
% es.tEX (V/m) @ t=1.3
0.4093012652791277
% es.tEY (V/m) @ t=1.3
0
% es.tEZ (V/m) @ t=1.3
-0.5383147022051151
% es.Ex (V/m) @ t=1.3
0.40930126527912236
% es.Ey (V/m) @ t=1.3
0.32188309307533025
% es.Ez (V/m) @ t=1.3
-0.5383147022051165
% es.tEx (V/m) @ t=1.3
0.4093012652791277
% es.tEy (V/m) @ t=1.3
0
% es.tEz (V/m) @ t=1.3
-0.5383147022051151
% V (V) @ t=1.3
0.0234961249395147
% es.normE (V/m) @ t=1.4
0.8577696166592742
% es.EX (V/m) @ t=1.4
0.43301656073300165
% es.EY (V/m) @ t=1.4
0.3405296653398455
% es.EZ (V/m) @ t=1.4
-0.5695056077277263
% es.tEX (V/m) @ t=1.4
0.4330165607330043
% es.tEY (V/m) @ t=1.4
0
% es.tEZ (V/m) @ t=1.4
-0.5695056077277325
% es.Ex (V/m) @ t=1.4
0.43301656073300165
% es.Ey (V/m) @ t=1.4
0.3405296653398455
% es.Ez (V/m) @ t=1.4
-0.5695056077277263
% es.tEx (V/m) @ t=1.4
0.4330165607330043
% es.tEy (V/m) @ t=1.4
0
% es.tEz (V/m) @ t=1.4
-0.5695056077277325
% V (V) @ t=1.4
0.024857796011875637
% es.normE (V/m) @ t=1.5
0.9067986118672721
% es.EX (V/m) @ t=1.5
0.4577676446607519
% es.EY (V/m) @ t=1.5
0.35999276163541083
% es.EZ (V/m) @ t=1.5
-0.6020585528783808
% es.tEX (V/m) @ t=1.5
0.45776764466075726
% es.tEY (V/m) @ t=1.5
0
% es.tEZ (V/m) @ t=1.5
-0.6020585528783808
% es.Ex (V/m) @ t=1.5
0.4577676446607519
% es.Ey (V/m) @ t=1.5
0.35999276163541083
% es.Ez (V/m) @ t=1.5
-0.6020585528783808
% es.tEx (V/m) @ t=1.5
0.45776764466075726
% es.tEy (V/m) @ t=1.5
0
% es.tEz (V/m) @ t=1.5
-0.6020585528783808
% V (V) @ t=1.5
0.02627877490997911
% es.normE (V/m) @ t=1.6
0.9578728780985021
% es.EX (V/m) @ t=1.6
0.4835512270816462
% es.EY (V/m) @ t=1.6
0.38026778840825237
% es.EZ (V/m) @ t=1.6
-0.6359694506938429
% es.tEX (V/m) @ t=1.6
0.4835512270816471
% es.tEY (V/m) @ t=1.6
0
% es.tEZ (V/m) @ t=1.6
-0.6359694506938407
% es.Ex (V/m) @ t=1.6
0.4835512270816462
% es.Ey (V/m) @ t=1.6
0.38026778840825237
% es.Ez (V/m) @ t=1.6
-0.6359694506938429
% es.tEx (V/m) @ t=1.6
0.4835512270816471
% es.tEy (V/m) @ t=1.6
0
% es.tEz (V/m) @ t=1.6
-0.6359694506938407
% V (V) @ t=1.6
0.02775902863964757
% es.normE (V/m) @ t=1.7
1.010992415352894
% es.EX (V/m) @ t=1.7
0.510367307995697
% es.EY (V/m) @ t=1.7
0.4013547456584181
% es.EZ (V/m) @ t=1.7
-0.6712383011741849
% es.tEX (V/m) @ t=1.7
0.5103673079956996
% es.tEY (V/m) @ t=1.7
0
% es.tEZ (V/m) @ t=1.7
-0.6712383011741725
% es.Ex (V/m) @ t=1.7
0.510367307995697
% es.Ey (V/m) @ t=1.7
0.4013547456584181
% es.Ez (V/m) @ t=1.7
-0.6712383011741849
% es.tEx (V/m) @ t=1.7
0.5103673079956996
% es.tEy (V/m) @ t=1.7
0
% es.tEz (V/m) @ t=1.7
-0.6712383011741725
% V (V) @ t=1.7
0.029298557200881013
% es.normE (V/m) @ t=1.8
1.0661572236302157
% es.EX (V/m) @ t=1.8
0.5382158874029024
% es.EY (V/m) @ t=1.8
0.42325363338584765
% es.EZ (V/m) @ t=1.8
-0.7078651043193345
% es.tEX (V/m) @ t=1.8
0.5382158874029113
% es.tEY (V/m) @ t=1.8
0
% es.tEZ (V/m) @ t=1.8
-0.7078651043193371
% es.Ex (V/m) @ t=1.8
0.5382158874029024
% es.Ey (V/m) @ t=1.8
0.42325363338584765
% es.Ez (V/m) @ t=1.8
-0.7078651043193345
% es.tEx (V/m) @ t=1.8
0.5382158874029113
% es.tEy (V/m) @ t=1.8
0
% es.tEz (V/m) @ t=1.8
-0.7078651043193371
% V (V) @ t=1.8
0.030897360593679438
% es.normE (V/m) @ t=1.9
1.1233673029303595
% es.EX (V/m) @ t=1.9
0.5670969653032465
% es.EY (V/m) @ t=1.9
0.44596445159058007
% es.EZ (V/m) @ t=1.9
-0.7458498601293178
% es.tEX (V/m) @ t=1.9
0.5670969653032447
% es.tEY (V/m) @ t=1.9
0
% es.tEZ (V/m) @ t=1.9
-0.7458498601293151
% es.Ex (V/m) @ t=1.9
0.5670969653032465
% es.Ey (V/m) @ t=1.9
0.44596445159058007
% es.Ez (V/m) @ t=1.9
-0.7458498601293178
% es.tEx (V/m) @ t=1.9
0.5670969653032447
% es.tEy (V/m) @ t=1.9
0
% es.tEz (V/m) @ t=1.9
-0.7458498601293151
% V (V) @ t=1.9
0.03255543881804285
% es.normE (V/m) @ t=2
1.1818899846866195
% es.EX (V/m) @ t=2
0.5966418262563131
% es.EY (V/m) @ t=2
0.469193294332797
% es.EZ (V/m) @ t=2
-0.7847081014568849
% es.tEX (V/m) @ t=2
0.5966418262563185
% es.tEY (V/m) @ t=2
0
% es.tEZ (V/m) @ t=2
-0.7847081014568751
% es.Ex (V/m) @ t=2
0.5966418262563131
% es.Ey (V/m) @ t=2
0.469193294332797
% es.Ez (V/m) @ t=2
-0.7847081014568849
% es.tEx (V/m) @ t=2
0.5966418262563185
% es.tEy (V/m) @ t=2
0
% es.tEz (V/m) @ t=2
-0.7847081014568751
% V (V) @ t=2
0.03425193150386721
% es.normE (V/m) @ t=2.1
1.2409494676169768
% es.EX (V/m) @ t=2.1
0.6264600482429827
% es.EY (V/m) @ t=2.1
0.49262895319024835
% es.EZ (V/m) @ t=2.1
-0.8239268401786095
% es.tEX (V/m) @ t=2.1
0.6264600482429898
% es.tEY (V/m) @ t=2.1
0
% es.tEZ (V/m) @ t=2.1
-0.8239268401786255
% es.Ex (V/m) @ t=2.1
0.6264600482429827
% es.Ey (V/m) @ t=2.1
0.49262895319024835
% es.Ez (V/m) @ t=2.1
-0.8239268401786095
% es.tEx (V/m) @ t=2.1
0.6264600482429898
% es.tEy (V/m) @ t=2.1
0
% es.tEz (V/m) @ t=2.1
-0.8239268401786255
% V (V) @ t=2.1
0.03596475021404692
% es.normE (V/m) @ t=2.2
1.301448945561194
% es.EX (V/m) @ t=2.2
0.6570061634964723
% es.EY (V/m) @ t=2.2
0.5166337393345124
% es.EZ (V/m) @ t=2.2
-0.8641033009025252
% es.tEX (V/m) @ t=2.2
0.657006163496483
% es.tEY (V/m) @ t=2.2
0
% es.tEZ (V/m) @ t=2.2
-0.864103300902535
% es.Ex (V/m) @ t=2.2
0.6570061634964723
% es.Ey (V/m) @ t=2.2
0.5166337393345124
% es.Ez (V/m) @ t=2.2
-0.8641033009025252
% es.tEx (V/m) @ t=2.2
0.657006163496483
% es.tEy (V/m) @ t=2.2
0
% es.tEz (V/m) @ t=2.2
-0.864103300902535
% V (V) @ t=2.2
0.03771961047218033
% es.normE (V/m) @ t=2.3
1.3633884185991931
% es.EX (V/m) @ t=2.3
0.6882801720168068
% es.EY (V/m) @ t=2.3
0.5412076527655927
% es.EZ (V/m) @ t=2.3
-0.9052374836286896
% es.tEX (V/m) @ t=2.3
0.6882801720168139
% es.tEY (V/m) @ t=2.3
0
% es.tEZ (V/m) @ t=2.3
-0.9052374836286958
% es.Ex (V/m) @ t=2.3
0.6882801720168068
% es.Ey (V/m) @ t=2.3
0.5412076527655927
% es.Ez (V/m) @ t=2.3
-0.9052374836286896
% es.tEx (V/m) @ t=2.3
0.6882801720168139
% es.tEy (V/m) @ t=2.3
0
% es.tEz (V/m) @ t=2.3
-0.9052374836286958
% V (V) @ t=2.3
0.03951651227826745
% es.normE (V/m) @ t=2.4
1.4267678868153133
% es.EX (V/m) @ t=2.4
0.7202820738039435
% es.EY (V/m) @ t=2.4
0.566350693483507
% es.EZ (V/m) @ t=2.4
-0.9473293883570326
% es.tEX (V/m) @ t=2.4
0.7202820738039524
% es.tEY (V/m) @ t=2.4
0
% es.tEZ (V/m) @ t=2.4
-0.9473293883570513
% es.Ex (V/m) @ t=2.4
0.7202820738039435
% es.Ey (V/m) @ t=2.4
0.566350693483507
% es.Ez (V/m) @ t=2.4
-0.9473293883570326
% es.tEx (V/m) @ t=2.4
0.7202820738039524
% es.tEy (V/m) @ t=2.4
0
% es.tEz (V/m) @ t=2.4
-0.9473293883570513
% V (V) @ t=2.4
0.04135545563230829
% es.normE (V/m) @ t=2.5
1.4915873502967534
% es.EX (V/m) @ t=2.5
0.7530118688579073
% es.EY (V/m) @ t=2.5
0.5920628614882091
% es.EZ (V/m) @ t=2.5
-0.9903790150875995
% es.tEX (V/m) @ t=2.5
0.753011868857909
% es.tEY (V/m) @ t=2.5
0
% es.tEZ (V/m) @ t=2.5
-0.99037901508758
% es.Ex (V/m) @ t=2.5
0.7530118688579073
% es.Ey (V/m) @ t=2.5
0.5920628614882091
% es.Ez (V/m) @ t=2.5
-0.9903790150875995
% es.tEx (V/m) @ t=2.5
0.753011868857909
% es.tEy (V/m) @ t=2.5
0
% es.tEz (V/m) @ t=2.5
-0.99037901508758
% V (V) @ t=2.5
0.04323644053430281
% es.normE (V/m) @ t=2.6
1.5546507036450845
% es.EX (V/m) @ t=2.6
0.7848463753476267
% es.EY (V/m) @ t=2.6
0.6171011361865091
% es.EZ (V/m) @ t=2.6
-1.0322475400871944
% es.tEX (V/m) @ t=2.6
0.7848463753476338
% es.tEY (V/m) @ t=2.6
0
% es.tEZ (V/m) @ t=2.6
-1.0322475400872015
% es.Ex (V/m) @ t=2.6
0.7848463753476267
% es.Ey (V/m) @ t=2.6
0.6171011361865091
% es.Ez (V/m) @ t=2.6
-1.0322475400871944
% es.tEx (V/m) @ t=2.6
0.7848463753476338
% es.tEy (V/m) @ t=2.6
0
% es.tEz (V/m) @ t=2.6
-1.0322475400872015
% V (V) @ t=2.6
0.04506368587328199
% es.normE (V/m) @ t=2.7
1.6172591206362363
% es.EX (V/m) @ t=2.7
0.8164464105102702
% es.EY (V/m) @ t=2.7
0.6419715665116925
% es.EZ (V/m) @ t=2.7
-1.0738057047373761
% es.tEX (V/m) @ t=2.7
0.816446410510272
% es.tEY (V/m) @ t=2.7
0
% es.tEZ (V/m) @ t=2.7
-1.0738057047373744
% es.Ex (V/m) @ t=2.7
0.8164464105102702
% es.Ey (V/m) @ t=2.7
0.6419715665116925
% es.Ez (V/m) @ t=2.7
-1.0738057047373761
% es.tEx (V/m) @ t=2.7
0.816446410510272
% es.tEy (V/m) @ t=2.7
0
% es.tEz (V/m) @ t=2.7
-1.0738057047373744
% V (V) @ t=2.7
0.04687618531459701
% es.normE (V/m) @ t=2.8
1.68006703990592
% es.EX (V/m) @ t=2.8
0.8481443389631345
% es.EY (V/m) @ t=2.8
0.6669286748197258
% es.EZ (V/m) @ t=2.8
-1.1154914570966747
% es.tEX (V/m) @ t=2.8
0.8481443389631398
% es.tEY (V/m) @ t=2.8
0
% es.tEZ (V/m) @ t=2.8
-1.115491457096681
% es.Ex (V/m) @ t=2.8
0.8481443389631345
% es.Ey (V/m) @ t=2.8
0.6669286748197258
% es.Ez (V/m) @ t=2.8
-1.1154914570966747
% es.tEx (V/m) @ t=2.8
0.8481443389631398
% es.tEy (V/m) @ t=2.8
0
% es.tEz (V/m) @ t=2.8
-1.115491457096681
% V (V) @ t=2.8
0.04869355111097303
% es.normE (V/m) @ t=2.9
1.7430744618891951
% es.EX (V/m) @ t=2.9
0.8799401607062087
% es.EY (V/m) @ t=2.9
0.6919724611106091
% es.EZ (V/m) @ t=2.9
-1.1573047971651622
% es.tEX (V/m) @ t=2.9
0.8799401607062229
% es.tEY (V/m) @ t=2.9
0
% es.tEZ (V/m) @ t=2.9
-1.1573047971651533
% es.Ex (V/m) @ t=2.9
0.8799401607062087
% es.Ey (V/m) @ t=2.9
0.6919724611106091
% es.Ez (V/m) @ t=2.9
-1.1573047971651622
% es.tEx (V/m) @ t=2.9
0.8799401607062229
% es.tEy (V/m) @ t=2.9
0
% es.tEz (V/m) @ t=2.9
-1.1573047971651533
% V (V) @ t=2.9
0.05051578326241006
% es.normE (V/m) @ t=3
1.8062813870964745
% es.EX (V/m) @ t=3
0.9118338757395001
% es.EY (V/m) @ t=3
0.7171029253842711
% es.EZ (V/m) @ t=3
-1.1992457249427213
% es.tEX (V/m) @ t=3
0.9118338757395126
% es.tEY (V/m) @ t=3
0
% es.tEZ (V/m) @ t=3
-1.1992457249426955
% es.Ex (V/m) @ t=3
0.9118338757395001
% es.Ey (V/m) @ t=3
0.7171029253842711
% es.Ez (V/m) @ t=3
-1.1992457249427213
% es.tEx (V/m) @ t=3
0.9118338757395126
% es.tEy (V/m) @ t=3
0
% es.tEz (V/m) @ t=3
-1.1992457249426955
% V (V) @ t=3
0.05234288176890809
% es.normE (V/m) @ t=3.1
1.8690157427303629
% es.EX (V/m) @ t=3.1
0.9434909811793304
% es.EY (V/m) @ t=3.1
0.7420406124588972
% es.EZ (V/m) @ t=3.1
-1.2408762598994336
% es.tEX (V/m) @ t=3.1
0.943490981179341
% es.tEY (V/m) @ t=3.1
0
% es.tEZ (V/m) @ t=3.1
-1.2408762598994763
% es.Ex (V/m) @ t=3.1
0.9434909811793304
% es.Ey (V/m) @ t=3.1
0.7420406124588972
% es.Ez (V/m) @ t=3.1
-1.2408762598994336
% es.tEx (V/m) @ t=3.1
0.943490981179341
% es.tEy (V/m) @ t=3.1
0
% es.tEz (V/m) @ t=3.1
-1.2408762598994763
% V (V) @ t=3.1
0.05415691790615794
% es.normE (V/m) @ t=3.2
1.9286831981239292
% es.EX (V/m) @ t=3.2
0.9736202325925767
% es.EY (V/m) @ t=3.2
0.7657067724477926
% es.EZ (V/m) @ t=3.2
-1.280505714305355
% es.tEX (V/m) @ t=3.2
0.9736202325925785
% es.tEY (V/m) @ t=3.2
0
% es.tEZ (V/m) @ t=3.2
-1.280505714305363
% es.Ex (V/m) @ t=3.2
0.9736202325925767
% es.Ey (V/m) @ t=3.2
0.7657067724477926
% es.Ez (V/m) @ t=3.2
-1.280505714305355
% es.tEx (V/m) @ t=3.2
0.9736202325925785
% es.tEy (V/m) @ t=3.2
0
% es.tEz (V/m) @ t=3.2
-1.280505714305363
% V (V) @ t=3.2
0.05588868340544685
% es.normE (V/m) @ t=3.3
1.9874266157295726
% es.EX (V/m) @ t=3.3
1.0032881707139225
% es.EY (V/m) @ t=3.3
0.7889924300610929
% es.EZ (V/m) @ t=3.3
-1.3195305606542949
% es.tEX (V/m) @ t=3.3
1.003288170713935
% es.tEY (V/m) @ t=3.3
0
% es.tEZ (V/m) @ t=3.3
-1.3195305606542824
% es.Ex (V/m) @ t=3.3
1.0032881707139225
% es.Ey (V/m) @ t=3.3
0.7889924300610929
% es.Ez (V/m) @ t=3.3
-1.3195305606542949
% es.tEx (V/m) @ t=3.3
1.003288170713935
% es.tEy (V/m) @ t=3.3
0
% es.tEz (V/m) @ t=3.3
-1.3195305606542824
% V (V) @ t=3.3
0.05759534284062851
% es.normE (V/m) @ t=3.4
2.0452459965506367
% es.EX (V/m) @ t=3.4
1.0324947955433927
% es.EY (V/m) @ t=3.4
0.8118975852987447
% es.EZ (V/m) @ t=3.4
-1.3579507989462822
% es.tEX (V/m) @ t=3.4
1.0324947955434087
% es.tEY (V/m) @ t=3.4
0
% es.tEZ (V/m) @ t=3.4
-1.3579507989463124
% es.Ex (V/m) @ t=3.4
1.0324947955433927
% es.Ey (V/m) @ t=3.4
0.8118975852987447
% es.Ez (V/m) @ t=3.4
-1.3579507989462822
% es.tEx (V/m) @ t=3.4
1.0324947955434087
% es.tEy (V/m) @ t=3.4
0
% es.tEz (V/m) @ t=3.4
-1.3579507989463124
% V (V) @ t=3.4
0.0592768962117029
% es.normE (V/m) @ t=3.5
2.10214134187437
% es.EX (V/m) @ t=3.5
1.061240107081023
% es.EY (V/m) @ t=3.5
0.8344222381608049
% es.EZ (V/m) @ t=3.5
-1.3957664291813021
% es.tEX (V/m) @ t=3.5
1.06124010708103
% es.tEY (V/m) @ t=3.5
0
% es.tEZ (V/m) @ t=3.5
-1.3957664291812826
% es.Ex (V/m) @ t=3.5
1.061240107081023
% es.Ey (V/m) @ t=3.5
0.8344222381608049
% es.Ez (V/m) @ t=3.5
-1.3957664291813021
% es.tEx (V/m) @ t=3.5
1.06124010708103
% es.tEy (V/m) @ t=3.5
0
% es.tEz (V/m) @ t=3.5
-1.3957664291812826
% V (V) @ t=3.5
0.06093334351867004
% es.normE (V/m) @ t=3.6
2.157849853382163
% es.EX (V/m) @ t=3.6
1.08938729710135
% es.EY (V/m) @ t=3.6
0.8564730430712402
% es.EZ (V/m) @ t=3.6
-1.4327958174052622
% es.tEX (V/m) @ t=3.6
1.0893872971013536
% es.tEY (V/m) @ t=3.6
0
% es.tEZ (V/m) @ t=3.6
-1.4327958174052924
% es.Ex (V/m) @ t=3.6
1.08938729710135
% es.Ey (V/m) @ t=3.6
0.8564730430712402
% es.Ez (V/m) @ t=3.6
-1.4327958174052622
% es.tEx (V/m) @ t=3.6
1.0893872971013536
% es.tEy (V/m) @ t=3.6
0
% es.tEz (V/m) @ t=3.6
-1.4327958174052924
% V (V) @ t=3.6
0.06255572470152755
% es.normE (V/m) @ t=3.7
2.210974461419031
% es.EX (V/m) @ t=3.7
1.1162090802417985
% es.EY (V/m) @ t=3.7
0.8775537661895179
% es.EZ (V/m) @ t=3.7
-1.4680733804756425
% es.tEX (V/m) @ t=3.7
1.116209080241802
% es.tEY (V/m) @ t=3.7
0
% es.tEZ (V/m) @ t=3.7
-1.46807338047563
% es.Ex (V/m) @ t=3.7
1.1162090802417985
% es.Ey (V/m) @ t=3.7
0.8775537661895179
% es.Ez (V/m) @ t=3.7
-1.4680733804756425
% es.tEx (V/m) @ t=3.7
1.116209080241802
% es.tEy (V/m) @ t=3.7
0
% es.tEz (V/m) @ t=3.7
-1.46807338047563
% V (V) @ t=3.7
0.06409640724060432
% es.normE (V/m) @ t=3.8
2.2625716945821903
% es.EX (V/m) @ t=3.8
1.1422554644234246
% es.EY (V/m) @ t=3.8
0.8980396832423381
% es.EZ (V/m) @ t=3.8
-1.5023293384740395
% es.tEX (V/m) @ t=3.8
1.1422554644234246
% es.tEY (V/m) @ t=3.8
0
% es.tEZ (V/m) @ t=3.8
-1.5023293384740342
% es.Ex (V/m) @ t=3.8
1.1422554644234246
% es.Ey (V/m) @ t=3.8
0.8980396832423381
% es.Ez (V/m) @ t=3.8
-1.5023293384740395
% es.tEx (V/m) @ t=3.8
1.1422554644234246
% es.tEy (V/m) @ t=3.8
0
% es.tEz (V/m) @ t=3.8
-1.5023293384740342
% V (V) @ t=3.8
0.06559141312186025
% es.normE (V/m) @ t=3.9
2.3126415530129742
% es.EX (V/m) @ t=3.9
1.167526449646271
% es.EY (V/m) @ t=3.9
0.9179307942297825
% es.EZ (V/m) @ t=3.9
-1.5355636914005455
% es.tEX (V/m) @ t=3.9
1.167526449646271
% es.tEY (V/m) @ t=3.9
0
% es.tEZ (V/m) @ t=3.9
-1.5355636914005188
% es.Ex (V/m) @ t=3.9
1.167526449646271
% es.Ey (V/m) @ t=3.9
0.9179307942297825
% es.Ez (V/m) @ t=3.9
-1.5355636914005455
% es.tEx (V/m) @ t=3.9
1.167526449646271
% es.tEy (V/m) @ t=3.9
0
% es.tEz (V/m) @ t=3.9
-1.5355636914005188
% V (V) @ t=3.9
0.06704074234529529
% es.normE (V/m) @ t=4
2.3611840370845383
% es.EX (V/m) @ t=4
1.1920220359102949
% es.EY (V/m) @ t=4
0.9372270991517482
% es.EZ (V/m) @ t=4
-1.5677764392550184
% es.tEX (V/m) @ t=4
1.1920220359102949
% es.tEY (V/m) @ t=4
0
% es.tEZ (V/m) @ t=4
-1.5677764392550273
% es.Ex (V/m) @ t=4
1.1920220359102949
% es.Ey (V/m) @ t=4
0.9372270991517482
% es.Ez (V/m) @ t=4
-1.5677764392550184
% es.tEx (V/m) @ t=4
1.1920220359102949
% es.tEy (V/m) @ t=4
0
% es.tEz (V/m) @ t=4
-1.5677764392550273
% V (V) @ t=4
0.06844439491090945
% es.normE (V/m) @ t=4.1
2.4081848621302173
% es.EX (V/m) @ t=4.1
1.2157363611053
% es.EY (V/m) @ t=4.1
0.9559193490761047
% es.EZ (V/m) @ t=4.1
-1.5989604269798878
% es.tEX (V/m) @ t=4.1
1.2157363611053142
% es.tEY (V/m) @ t=4.1
0
% es.tEZ (V/m) @ t=4.1
-1.598960426979943
% es.Ex (V/m) @ t=4.1
1.2157363611053
% es.Ey (V/m) @ t=4.1
0.9559193490761047
% es.Ez (V/m) @ t=4.1
-1.5989604269798878
% es.tEx (V/m) @ t=4.1
1.2157363611053142
% es.tEy (V/m) @ t=4.1
0
% es.tEz (V/m) @ t=4.1
-1.598960426979943
% V (V) @ t=4.1
0.06980239468495618
% es.normE (V/m) @ t=4.2
2.45353722030101
% es.EX (V/m) @ t=4.2
1.238625595440915
% es.EY (V/m) @ t=4.2
0.9739383916414681
% es.EZ (V/m) @ t=4.2
-1.629062157683288
% es.tEX (V/m) @ t=4.2
1.2386255954409116
% es.tEY (V/m) @ t=4.2
0
% es.tEZ (V/m) @ t=4.2
-1.629062157683279
% es.Ex (V/m) @ t=4.2
1.238625595440915
% es.Ey (V/m) @ t=4.2
0.9739383916414681
% es.Ez (V/m) @ t=4.2
-1.629062157683288
% es.tEx (V/m) @ t=4.2
1.2386255954409116
% es.tEy (V/m) @ t=4.2
0
% es.tEz (V/m) @ t=4.2
-1.629062157683279
% V (V) @ t=4.2
0.07111492011049529
% es.normE (V/m) @ t=4.3
2.4973191991502564
% es.EX (V/m) @ t=4.3
1.260721783139271
% es.EY (V/m) @ t=4.3
0.9913347845531675
% es.EZ (V/m) @ t=4.3
-1.6581207432631242
% es.tEX (V/m) @ t=4.3
1.2607217831392745
% es.tEY (V/m) @ t=4.3
0
% es.tEZ (V/m) @ t=4.3
-1.658120743263126
% es.Ex (V/m) @ t=4.3
1.260721783139271
% es.Ey (V/m) @ t=4.3
0.9913347845531675
% es.Ez (V/m) @ t=4.3
-1.6581207432631242
% es.tEx (V/m) @ t=4.3
1.2607217831392745
% es.tEy (V/m) @ t=4.3
0
% es.tEz (V/m) @ t=4.3
-1.658120743263126
% V (V) @ t=4.3
0.0723818407267375
% es.normE (V/m) @ t=4.4
2.5395307986905378
% es.EX (V/m) @ t=4.4
1.282024924200286
% es.EY (V/m) @ t=4.4
1.0081085278111743
% es.EZ (V/m) @ t=4.4
-1.6861361837192526
% es.tEX (V/m) @ t=4.4
1.2820249242003001
% es.tEY (V/m) @ t=4.4
0
% es.tEZ (V/m) @ t=4.4
-1.6861361837192135
% es.Ex (V/m) @ t=4.4
1.282024924200286
% es.Ey (V/m) @ t=4.4
1.0081085278111743
% es.Ez (V/m) @ t=4.4
-1.6861361837192526
% es.tEx (V/m) @ t=4.4
1.2820249242003001
% es.tEy (V/m) @ t=4.4
0
% es.tEz (V/m) @ t=4.4
-1.6861361837192135
% V (V) @ t=4.4
0.07360315653368285
% es.normE (V/m) @ t=4.5
2.580172018935647
% es.EX (V/m) @ t=4.5
1.302535018624095
% es.EY (V/m) @ t=4.5
1.0242596214156734
% es.EZ (V/m) @ t=4.5
-1.7131084790519786
% es.tEX (V/m) @ t=4.5
1.302535018624102
% es.tEY (V/m) @ t=4.5
0
% es.tEZ (V/m) @ t=4.5
-1.7131084790519395
% es.Ex (V/m) @ t=4.5
1.302535018624095
% es.Ey (V/m) @ t=4.5
1.0242596214156734
% es.Ez (V/m) @ t=4.5
-1.7131084790519786
% es.tEx (V/m) @ t=4.5
1.302535018624102
% es.tEy (V/m) @ t=4.5
0
% es.tEz (V/m) @ t=4.5
-1.7131084790519395
% V (V) @ t=4.5
0.07477886753133131
% es.normE (V/m) @ t=4.6
2.6192507095254287
% es.EX (V/m) @ t=4.6
1.3222563490928465
% es.EY (V/m) @ t=4.6
1.0397903326694191
% es.EZ (V/m) @ t=4.6
-1.7390433938256198
% es.tEX (V/m) @ t=4.6
1.3222563490928714
% es.tEY (V/m) @ t=4.6
0
% es.tEZ (V/m) @ t=4.6
-1.7390433938256535
% es.Ex (V/m) @ t=4.6
1.3222563490928465
% es.Ey (V/m) @ t=4.6
1.0397903326694191
% es.Ez (V/m) @ t=4.6
-1.7390433938256198
% es.tEx (V/m) @ t=4.6
1.3222563490928714
% es.tEy (V/m) @ t=4.6
0
% es.tEz (V/m) @ t=4.6
-1.7390433938256535
% V (V) @ t=4.6
0.0759093051083822
% es.normE (V/m) @ t=4.7
2.6568571567918564
% es.EX (V/m) @ t=4.7
1.3412381750214024
% es.EY (V/m) @ t=4.7
1.05472674009485
% es.EZ (V/m) @ t=4.7
-1.7640072320675984
% es.tEX (V/m) @ t=4.7
1.3412381750214095
% es.tEY (V/m) @ t=4.7
0
% es.tEZ (V/m) @ t=4.7
-1.7640072320676268
% es.Ex (V/m) @ t=4.7
1.3412381750214024
% es.Ey (V/m) @ t=4.7
1.05472674009485
% es.Ez (V/m) @ t=4.7
-1.7640072320675984
% es.tEx (V/m) @ t=4.7
1.3412381750214095
% es.tEy (V/m) @ t=4.7
0
% es.tEz (V/m) @ t=4.7
-1.7640072320676268
% V (V) @ t=4.7
0.07699828089793107
% es.normE (V/m) @ t=4.8
2.6929273125409634
% es.EX (V/m) @ t=4.8
1.3594455523679763
% es.EY (V/m) @ t=4.8
1.0690503438990433
% es.EZ (V/m) @ t=4.8
-1.7879529584911058
% es.tEX (V/m) @ t=4.8
1.3594455523679798
% es.tEY (V/m) @ t=4.8
0
% es.tEZ (V/m) @ t=4.8
-1.7879529584911324
% es.Ex (V/m) @ t=4.8
1.3594455523679763
% es.Ey (V/m) @ t=4.8
1.0690503438990433
% es.Ez (V/m) @ t=4.8
-1.7879529584911058
% es.tEx (V/m) @ t=4.8
1.3594455523679798
% es.tEy (V/m) @ t=4.8
0
% es.tEz (V/m) @ t=4.8
-1.7879529584911324
% V (V) @ t=4.8
0.07804309097289065
% es.normE (V/m) @ t=4.9
2.727461176751531
% es.EX (V/m) @ t=4.9
1.3768784811326142
% es.EY (V/m) @ t=4.9
1.0827611440820917
% es.EZ (V/m) @ t=4.9
-1.810880573096421
% es.tEX (V/m) @ t=4.9
1.3768784811326213
% es.tEY (V/m) @ t=4.9
0
% es.tEZ (V/m) @ t=4.9
-1.810880573096405
% es.Ex (V/m) @ t=4.9
1.3768784811326142
% es.Ey (V/m) @ t=4.9
1.0827611440820917
% es.Ez (V/m) @ t=4.9
-1.810880573096421
% es.tEx (V/m) @ t=4.9
1.3768784811326213
% es.tEy (V/m) @ t=4.9
0
% es.tEz (V/m) @ t=4.9
-1.810880573096405
% V (V) @ t=4.9
0.07904373533326087
% es.normE (V/m) @ t=5
2.760458749416763
% es.EX (V/m) @ t=5
1.3935369613152915
% es.EY (V/m) @ t=5
1.095859140643995
% es.EZ (V/m) @ t=5
-1.8327900758833575
% es.tEX (V/m) @ t=5
1.3935369613153057
% es.tEY (V/m) @ t=5
0
% es.tEZ (V/m) @ t=5
-1.8327900758833309
% es.Ex (V/m) @ t=5
1.3935369613152915
% es.Ey (V/m) @ t=5
1.095859140643995
% es.Ez (V/m) @ t=5
-1.8327900758833575
% es.tEx (V/m) @ t=5
1.3935369613153057
% es.tEy (V/m) @ t=5
0
% es.tEz (V/m) @ t=5
-1.8327900758833309
% V (V) @ t=5
0.08000021397904178
% es.normE (V/m) @ t=5.1
2.7919112716619736
% es.EX (V/m) @ t=5.1
1.4094164850568127
% es.EY (V/m) @ t=5.1
1.1083410846475346
% es.EZ (V/m) @ t=5.1
-1.8536755029376
% es.tEX (V/m) @ t=5.1
1.4094164850568198
% es.tEY (V/m) @ t=5.1
0
% es.tEZ (V/m) @ t=5.1
-1.8536755029375769
% es.Ex (V/m) @ t=5.1
1.4094164850568127
% es.Ey (V/m) @ t=5.1
1.1083410846475346
% es.Ez (V/m) @ t=5.1
-1.8536755029376
% es.tEx (V/m) @ t=5.1
1.4094164850568198
% es.tEy (V/m) @ t=5.1
0
% es.tEz (V/m) @ t=5.1
-1.8536755029375769
% V (V) @ t=5.1
0.08091224515124938
% es.normE (V/m) @ t=5.2
2.8216078889869025
% es.EX (V/m) @ t=5.2
1.424408533659829
% es.EY (V/m) @ t=5.2
1.1201287637066812
% es.EZ (V/m) @ t=5.2
-1.8733932836248464
% es.tEX (V/m) @ t=5.2
1.4244085336598395
% es.tEY (V/m) @ t=5.2
0
% es.tEZ (V/m) @ t=5.2
-1.8733932836248925
% es.Ex (V/m) @ t=5.2
1.424408533659829
% es.Ey (V/m) @ t=5.2
1.1201287637066812
% es.Ez (V/m) @ t=5.2
-1.8733932836248464
% es.tEx (V/m) @ t=5.2
1.4244085336598395
% es.tEy (V/m) @ t=5.2
0
% es.tEz (V/m) @ t=5.2
-1.8733932836248925
% V (V) @ t=5.2
0.08177304600315373
% es.normE (V/m) @ t=5.3
2.84964657284641
% es.EX (V/m) @ t=5.3
1.4385635292630354
% es.EY (V/m) @ t=5.3
1.1312585184325457
% es.EZ (V/m) @ t=5.3
-1.892010126619331
% es.tEX (V/m) @ t=5.3
1.4385635292630532
% es.tEY (V/m) @ t=5.3
0
% es.tEZ (V/m) @ t=5.3
-1.8920101266193114
% es.Ex (V/m) @ t=5.3
1.4385635292630354
% es.Ey (V/m) @ t=5.3
1.1312585184325457
% es.Ez (V/m) @ t=5.3
-1.892010126619331