% Model:              1x1--2 - Copy1.mph
% Version:            COMSOL 6.1.0.252
% Date:               Mar 28 2023, 11:11
% Dimension:          0
% Nodes:              14017
% Expressions:        14017
% Description:        Electric field norm, Electric field, X component, Electric field, Y component, Electric field, Z component, Tangential electric field, X component, Tangential electric field, Y component, Tangential electric field, Z component, Electric field, x component, Electric field, y component, Electric field, z component, Tangential electric field, x component, Tangential electric field, y component, Tangential electric field, z component, Electric potential
% Length unit:        mm
% x
1.33
% y
12.2
% z
1.9999999999999996
% es.normE (V/m) @ t=0
0.28581205498691936
% es.EX (V/m) @ t=0
0.15601561610322356
% es.EY (V/m) @ t=0
0.1265873252657821
% es.EZ (V/m) @ t=0
-0.15148697617684137
% es.tEX (V/m) @ t=0
0.15601561610321868
% es.tEY (V/m) @ t=0
0
% es.tEZ (V/m) @ t=0
-0.15148697617684004
% es.Ex (V/m) @ t=0
0.15601561610322356
% es.Ey (V/m) @ t=0
0.1265873252657821
% es.Ez (V/m) @ t=0
-0.15148697617684137
% es.tEx (V/m) @ t=0
0.15601561610321868
% es.tEy (V/m) @ t=0
0
% es.tEz (V/m) @ t=0
-0.15148697617684004
% V (V) @ t=0
0.010221248105325894
% es.normE (V/m) @ t=0.1
0.29407620625282743
% es.EX (V/m) @ t=0.1
0.16052680160822597
% es.EY (V/m) @ t=0.1
0.13024754204262123
% es.EZ (V/m) @ t=0.1
-0.15586713809837693
% es.tEX (V/m) @ t=0.1
0.16052680160821842
% es.tEY (V/m) @ t=0.1
0
% es.tEZ (V/m) @ t=0.1
-0.15586713809836894
% es.Ex (V/m) @ t=0.1
0.16052680160822597
% es.Ey (V/m) @ t=0.1
0.13024754204262123
% es.Ez (V/m) @ t=0.1
-0.15586713809837693
% es.tEx (V/m) @ t=0.1
0.16052680160821842
% es.tEy (V/m) @ t=0.1
0
% es.tEz (V/m) @ t=0.1
-0.15586713809836894
% V (V) @ t=0.1
0.010516788627468132
% es.normE (V/m) @ t=0.2
0.3122346102151783
% es.EX (V/m) @ t=0.2
0.17043831612059712
% es.EY (V/m) @ t=0.2
0.13829159914504086
% es.EZ (V/m) @ t=0.2
-0.16549006670631528
% es.tEX (V/m) @ t=0.2
0.17043831612059313
% es.tEY (V/m) @ t=0.2
0
% es.tEZ (V/m) @ t=0.2
-0.16549006670631172
% es.Ex (V/m) @ t=0.2
0.17043831612059712
% es.Ey (V/m) @ t=0.2
0.13829159914504086
% es.Ez (V/m) @ t=0.2
-0.16549006670631528
% es.tEx (V/m) @ t=0.2
0.17043831612059313
% es.tEy (V/m) @ t=0.2
0
% es.tEz (V/m) @ t=0.2
-0.16549006670631172
% V (V) @ t=0.2
0.011165448222270178
% es.normE (V/m) @ t=0.3
0.3319376667135401
% es.EX (V/m) @ t=0.3
0.18119384549769535
% es.EY (V/m) @ t=0.3
0.14701742945140417
% es.EZ (V/m) @ t=0.3
-0.17593378878252697
% es.tEX (V/m) @ t=0.3
0.18119384549769268
% es.tEY (V/m) @ t=0.3
0
% es.tEZ (V/m) @ t=0.3
-0.17593378878251364
% es.Ex (V/m) @ t=0.3
0.18119384549769535
% es.Ey (V/m) @ t=0.3
0.14701742945140417
% es.Ez (V/m) @ t=0.3
-0.17593378878252697
% es.tEx (V/m) @ t=0.3
0.18119384549769268
% es.tEy (V/m) @ t=0.3
0
% es.tEz (V/m) @ t=0.3
-0.17593378878251364
% V (V) @ t=0.3
0.011870397243415137
% es.normE (V/m) @ t=0.4
0.3525368339515295
% es.EX (V/m) @ t=0.4
0.1924393448360835
% es.EY (V/m) @ t=0.4
0.1561378663575761
% es.EZ (V/m) @ t=0.4
-0.18685449546647437
% es.tEX (V/m) @ t=0.4
0.19243934483607994
% es.tEY (V/m) @ t=0.4
0
% es.tEZ (V/m) @ t=0.4
-0.18685449546647526
% es.Ex (V/m) @ t=0.4
0.1924393448360835
% es.Ey (V/m) @ t=0.4
0.1561378663575761
% es.Ez (V/m) @ t=0.4
-0.18685449546647437
% es.tEx (V/m) @ t=0.4
0.19243934483607994
% es.tEy (V/m) @ t=0.4
0
% es.tEz (V/m) @ t=0.4
-0.18685449546647526
% V (V) @ t=0.4
0.01260840959657011
% es.normE (V/m) @ t=0.5
0.3740248594725463
% es.EX (V/m) @ t=0.5
0.20417008562544936
% es.EY (V/m) @ t=0.5
0.1656518636873141
% es.EZ (V/m) @ t=0.5
-0.1982464224245204
% es.tEX (V/m) @ t=0.5
0.20417008562544492
% es.tEY (V/m) @ t=0.5
0
% es.tEZ (V/m) @ t=0.5
-0.19824642242450885
% es.Ex (V/m) @ t=0.5
0.20417008562544936
% es.Ey (V/m) @ t=0.5
0.1656518636873141
% es.Ez (V/m) @ t=0.5
-0.1982464224245204
% es.tEx (V/m) @ t=0.5
0.20417008562544492
% es.tEy (V/m) @ t=0.5
0
% es.tEz (V/m) @ t=0.5
-0.19824642242450885
% V (V) @ t=0.5
0.013378262157998075
% es.normE (V/m) @ t=0.6
0.3968613516343335
% es.EX (V/m) @ t=0.6
0.2166344640756961
% es.EY (V/m) @ t=0.6
0.17576999000370996
% es.EZ (V/m) @ t=0.6
-0.21034696108080642
% es.tEX (V/m) @ t=0.6
0.2166344640756872
% es.tEY (V/m) @ t=0.6
0
% es.tEZ (V/m) @ t=0.6
-0.21034696108079665
% es.Ex (V/m) @ t=0.6
0.2166344640756961
% es.Ey (V/m) @ t=0.6
0.17576999000370996
% es.Ez (V/m) @ t=0.6
-0.21034696108080642
% es.tEx (V/m) @ t=0.6
0.2166344640756872
% es.tEy (V/m) @ t=0.6
0
% es.tEz (V/m) @ t=0.6
-0.21034696108079665
% V (V) @ t=0.6
0.014193274127282338
% es.normE (V/m) @ t=0.7
0.4204922947333166
% es.EX (V/m) @ t=0.7
0.22953306923241001
% es.EY (V/m) @ t=0.7
0.18623840150061977
% es.EZ (V/m) @ t=0.7
-0.22286997822981203
% es.tEX (V/m) @ t=0.7
0.2295330692324038
% es.tEY (V/m) @ t=0.7
0
% es.tEZ (V/m) @ t=0.7
-0.2228699782298058
% es.Ex (V/m) @ t=0.7
0.22953306923241001
% es.Ey (V/m) @ t=0.7
0.18623840150061977
% es.Ez (V/m) @ t=0.7
-0.22286997822981203
% es.tEx (V/m) @ t=0.7
0.2295330692324038
% es.tEy (V/m) @ t=0.7
0
% es.tEz (V/m) @ t=0.7
-0.2228699782298058
% V (V) @ t=0.7
0.015037400658782583
% es.normE (V/m) @ t=0.8
0.44524406762757085
% es.EX (V/m) @ t=0.8
0.24304429152523
% es.EY (V/m) @ t=0.8
0.19720100347664093
% es.EZ (V/m) @ t=0.8
-0.23598903786179637
% es.tEX (V/m) @ t=0.8
0.24304429152522733
% es.tEY (V/m) @ t=0.8
0
% es.tEZ (V/m) @ t=0.8
-0.23598903786177772
% es.Ex (V/m) @ t=0.8
0.24304429152523
% es.Ey (V/m) @ t=0.8
0.19720100347664093
% es.Ez (V/m) @ t=0.8
-0.23598903786179637
% es.tEx (V/m) @ t=0.8
0.24304429152522733
% es.tEy (V/m) @ t=0.8
0
% es.tEz (V/m) @ t=0.8
-0.23598903786177772
% V (V) @ t=0.8
0.01592260269176118
% es.normE (V/m) @ t=0.9
0.47097279867939146
% es.EX (V/m) @ t=0.9
0.2570894943664648
% es.EY (V/m) @ t=0.9
0.20859436079314442
% es.EZ (V/m) @ t=0.9
-0.24962763093996276
% es.tEX (V/m) @ t=0.9
0.25708949436645856
% es.tEY (V/m) @ t=0.9
0
% es.tEZ (V/m) @ t=0.9
-0.24962763093993345
% es.Ex (V/m) @ t=0.9
0.2570894943664648
% es.Ey (V/m) @ t=0.9
0.20859436079314442
% es.Ez (V/m) @ t=0.9
-0.24962763093996276
% es.tEx (V/m) @ t=0.9
0.25708949436645856
% es.tEy (V/m) @ t=0.9
0
% es.tEz (V/m) @ t=0.9
-0.24962763093993345
% V (V) @ t=0.9
0.01684360770430518
% es.normE (V/m) @ t=1
0.4981930708904849
% es.EX (V/m) @ t=1
0.27194856120189215
% es.EY (V/m) @ t=1
0.22064923082846022
% es.EZ (V/m) @ t=1
-0.2640559741291755
% es.tEX (V/m) @ t=1
0.2719485612018868
% es.tEY (V/m) @ t=1
0
% es.tEZ (V/m) @ t=1
-0.26405597412916215
% es.Ex (V/m) @ t=1
0.27194856120189215
% es.Ey (V/m) @ t=1
0.22064923082846022
% es.Ez (V/m) @ t=1
-0.2640559741291755
% es.tEx (V/m) @ t=1
0.2719485612018868
% es.tEy (V/m) @ t=1
0
% es.tEz (V/m) @ t=1
-0.26405597412916215
% V (V) @ t=1
0.01781755131608087
% es.normE (V/m) @ t=1.1
0.5267357823184144
% es.EX (V/m) @ t=1.1
0.2875295169097143
% es.EY (V/m) @ t=1.1
0.23328978223817742
% es.EZ (V/m) @ t=1.1
-0.2791852689991403
% es.tEX (V/m) @ t=1.1
0.28752951690971074
% es.tEY (V/m) @ t=1.1
0
% es.tEZ (V/m) @ t=1.1
-0.27918526899913054
% es.Ex (V/m) @ t=1.1
0.2875295169097143
% es.Ey (V/m) @ t=1.1
0.23328978223817742
% es.Ez (V/m) @ t=1.1
-0.2791852689991403
% es.tEx (V/m) @ t=1.1
0.28752951690971074
% es.tEy (V/m) @ t=1.1
0
% es.tEz (V/m) @ t=1.1
-0.27918526899913054
% V (V) @ t=1.1
0.01883880243053732
% es.normE (V/m) @ t=1.2
0.5565763567055259
% es.EX (V/m) @ t=1.2
0.3038189905545501
% es.EY (V/m) @ t=1.2
0.2465050048716897
% es.EZ (V/m) @ t=1.2
-0.2950026006294957
% es.tEX (V/m) @ t=1.2
0.30381899055455097
% es.tEY (V/m) @ t=1.2
0
% es.tEZ (V/m) @ t=1.2
-0.2950026006294735
% es.Ex (V/m) @ t=1.2
0.3038189905545501
% es.Ey (V/m) @ t=1.2
0.2465050048716897
% es.Ez (V/m) @ t=1.2
-0.2950026006294957
% es.tEx (V/m) @ t=1.2
0.30381899055455097
% es.tEy (V/m) @ t=1.2
0
% es.tEz (V/m) @ t=1.2
-0.2950026006294735
% V (V) @ t=1.2
0.019906537906765054
% es.normE (V/m) @ t=1.3
0.5880908697950032
% es.EX (V/m) @ t=1.3
0.3210214437999568
% es.EY (V/m) @ t=1.3
0.26046378904874956
% es.EZ (V/m) @ t=1.3
-0.3117052366177715
% es.tEX (V/m) @ t=1.3
0.3210214437999461
% es.tEY (V/m) @ t=1.3
0
% es.tEZ (V/m) @ t=1.3
-0.31170523661774574
% es.Ex (V/m) @ t=1.3
0.3210214437999568
% es.Ey (V/m) @ t=1.3
0.26046378904874956
% es.Ez (V/m) @ t=1.3
-0.3117052366177715
% es.tEx (V/m) @ t=1.3
0.3210214437999461
% es.tEy (V/m) @ t=1.3
0
% es.tEz (V/m) @ t=1.3
-0.31170523661774574
% V (V) @ t=1.3
0.02103317270536142
% es.normE (V/m) @ t=1.4
0.6210935161320534
% es.EX (V/m) @ t=1.4
0.33903585951166804
% es.EY (V/m) @ t=1.4
0.27508269215318926
% es.EZ (V/m) @ t=1.4
-0.329195714158212
% es.tEX (V/m) @ t=1.4
0.33903585951166804
% es.tEY (V/m) @ t=1.4
0
% es.tEZ (V/m) @ t=1.4
-0.32919571415821025
% es.Ex (V/m) @ t=1.4
0.33903585951166804
% es.Ey (V/m) @ t=1.4
0.27508269215318926
% es.Ez (V/m) @ t=1.4
-0.329195714158212
% es.tEx (V/m) @ t=1.4
0.33903585951166804
% es.tEy (V/m) @ t=1.4
0
% es.tEz (V/m) @ t=1.4
-0.32919571415821025
% V (V) @ t=1.4
0.02221257304202737
% es.normE (V/m) @ t=1.5
0.6556403077820416
% es.EX (V/m) @ t=1.5
0.3578929762867311
% es.EY (V/m) @ t=1.5
0.2903860621952088
% es.EZ (V/m) @ t=1.5
-0.34750412874449665
% es.tEX (V/m) @ t=1.5
0.3578929762867187
% es.tEY (V/m) @ t=1.5
0
% es.tEZ (V/m) @ t=1.5
-0.34750412874448244
% es.Ex (V/m) @ t=1.5
0.3578929762867311
% es.Ey (V/m) @ t=1.5
0.2903860621952088
% es.Ez (V/m) @ t=1.5
-0.34750412874449665
% es.tEx (V/m) @ t=1.5
0.3578929762867187
% es.tEy (V/m) @ t=1.5
0
% es.tEz (V/m) @ t=1.5
-0.34750412874448244
% V (V) @ t=1.5
0.02344694668511834
% es.normE (V/m) @ t=1.6
0.6919948558854674
% es.EX (V/m) @ t=1.6
0.37773746007480824
% es.EY (V/m) @ t=1.6
0.3064884889204542
% es.EZ (V/m) @ t=1.6
-0.3667721196699514
% es.tEX (V/m) @ t=1.6
0.3777374600747976
% es.tEY (V/m) @ t=1.6
0
% es.tEZ (V/m) @ t=1.6
-0.36677211966991763
% es.Ex (V/m) @ t=1.6
0.37773746007480824
% es.Ey (V/m) @ t=1.6
0.3064884889204542
% es.Ez (V/m) @ t=1.6
-0.3667721196699514
% es.tEx (V/m) @ t=1.6
0.3777374600747976
% es.tEy (V/m) @ t=1.6
0
% es.tEz (V/m) @ t=1.6
-0.36677211966991763
% V (V) @ t=1.6
0.024746684118798018
% es.normE (V/m) @ t=1.7
0.7300137659407712
% es.EX (V/m) @ t=1.7
0.39849061806926755
% es.EY (V/m) @ t=1.7
0.3233276398400591
% es.EZ (V/m) @ t=1.7
-0.3869226405145785
% es.tEX (V/m) @ t=1.7
0.3984906180692587
% es.tEY (V/m) @ t=1.7
0
% es.tEZ (V/m) @ t=1.7
-0.38692264051455894
% es.Ex (V/m) @ t=1.7
0.39849061806926755
% es.Ey (V/m) @ t=1.7
0.3233276398400591
% es.Ez (V/m) @ t=1.7
-0.3869226405145785
% es.tEx (V/m) @ t=1.7
0.3984906180692587
% es.tEy (V/m) @ t=1.7
0
% es.tEz (V/m) @ t=1.7
-0.38692264051455894
% V (V) @ t=1.7
0.026106133312558608
% es.normE (V/m) @ t=1.8
0.7697291502679855
% es.EX (V/m) @ t=1.8
0.4201699523925875
% es.EY (V/m) @ t=1.8
0.3409178135512292
% es.EZ (V/m) @ t=1.8
-0.4079726442262359
% es.tEX (V/m) @ t=1.8
0.42016995239256616
% es.tEY (V/m) @ t=1.8
0
% es.tEZ (V/m) @ t=1.8
-0.4079726442262235
% es.Ex (V/m) @ t=1.8
0.4201699523925875
% es.Ey (V/m) @ t=1.8
0.3409178135512292
% es.Ez (V/m) @ t=1.8
-0.4079726442262359
% es.tEx (V/m) @ t=1.8
0.42016995239256616
% es.tEy (V/m) @ t=1.8
0
% es.tEz (V/m) @ t=1.8
-0.4079726442262235
% V (V) @ t=1.8
0.027526408883048973
% es.normE (V/m) @ t=1.9
0.8112296295868593
% es.EX (V/m) @ t=1.9
0.44282376384157374
% es.EY (V/m) @ t=1.9
0.3592984700471913
% es.EZ (V/m) @ t=1.9
-0.4299689160386233
% es.tEX (V/m) @ t=1.9
0.44282376384155775
% es.tEY (V/m) @ t=1.9
0
% es.tEZ (V/m) @ t=1.9
-0.42996891603859666
% es.Ex (V/m) @ t=1.9
0.44282376384157374
% es.Ey (V/m) @ t=1.9
0.3592984700471913
% es.Ez (V/m) @ t=1.9
-0.4299689160386233
% es.tEx (V/m) @ t=1.9
0.44282376384155775
% es.tEy (V/m) @ t=1.9
0
% es.tEz (V/m) @ t=1.9
-0.42996891603859666
% V (V) @ t=1.9
0.029010586849900273
% es.normE (V/m) @ t=2
0.8545100311161509
% es.EX (V/m) @ t=2
0.46644923310421404
% es.EY (V/m) @ t=2
0.37846730605262735
% es.EZ (V/m) @ t=2
-0.45290872510295266
% es.tEX (V/m) @ t=2
0.46644923310419806
% es.tEY (V/m) @ t=2
0
% es.tEZ (V/m) @ t=2
-0.45290872510292246
% es.Ex (V/m) @ t=2
0.46644923310421404
% es.Ey (V/m) @ t=2
0.37846730605262735
% es.Ez (V/m) @ t=2
-0.45290872510295266
% es.tEx (V/m) @ t=2
0.46644923310419806
% es.tEy (V/m) @ t=2
0
% es.tEz (V/m) @ t=2
-0.45290872510292246
% V (V) @ t=2
0.03055848766619455
% es.normE (V/m) @ t=2.1
0.8995978163776165
% es.EX (V/m) @ t=2.1
0.49106132748581643
% es.EY (V/m) @ t=2.1
0.3984365493113877
% es.EZ (V/m) @ t=2.1
-0.4768065690864578
% es.tEX (V/m) @ t=2.1
0.4910613274858058
% es.tEY (V/m) @ t=2.1
0
% es.tEZ (V/m) @ t=2.1
-0.47680656908640984
% es.Ex (V/m) @ t=2.1
0.49106132748581643
% es.Ey (V/m) @ t=2.1
0.3984365493113877
% es.Ez (V/m) @ t=2.1
-0.4768065690864578
% es.tEx (V/m) @ t=2.1
0.4910613274858058
% es.tEy (V/m) @ t=2.1
0
% es.tEz (V/m) @ t=2.1
-0.47680656908640984
% V (V) @ t=2.1
0.032171064519623295
% es.normE (V/m) @ t=2.2
0.9465204468926995
% es.EX (V/m) @ t=2.2
0.5166750142917067
% es.EY (V/m) @ t=2.2
0.41921842756717353
% es.EZ (V/m) @ t=2.2
-0.5016769456563015
% es.tEX (V/m) @ t=2.2
0.5166750142916907
% es.tEY (V/m) @ t=2.2
0
% es.tEZ (V/m) @ t=2.2
-0.5016769456562393
% es.Ex (V/m) @ t=2.2
0.5166750142917067
% es.Ey (V/m) @ t=2.2
0.41921842756717353
% es.Ez (V/m) @ t=2.2
-0.5016769456563015
% es.tEx (V/m) @ t=2.2
0.5166750142916907
% es.tEy (V/m) @ t=2.2
0
% es.tEz (V/m) @ t=2.2
-0.5016769456562393
% V (V) @ t=2.2
0.033849270597878
% es.normE (V/m) @ t=2.3
0.9953053841829005
% es.EX (V/m) @ t=2.3
0.5433052608272106
% es.EY (V/m) @ t=2.3
0.4408251685638085
% es.EZ (V/m) @ t=2.3
-0.5275343524797531
% es.tEX (V/m) @ t=2.3
0.5433052608272106
% es.tEY (V/m) @ t=2.3
0
% es.tEZ (V/m) @ t=2.3
-0.527534352479698
% es.Ex (V/m) @ t=2.3
0.5433052608272106
% es.Ey (V/m) @ t=2.3
0.4408251685638085
% es.Ez (V/m) @ t=2.3
-0.5275343524797531
% es.tEx (V/m) @ t=2.3
0.5433052608272106
% es.tEy (V/m) @ t=2.3
0
% es.tEz (V/m) @ t=2.3
-0.527534352479698
% V (V) @ t=2.3
0.03559405908865015
% es.normE (V/m) @ t=2.4
1.0456784942929638
% es.EX (V/m) @ t=2.4
0.5708022980988119
% es.EY (V/m) @ t=2.4
0.4631357174996964
% es.EZ (V/m) @ t=2.4
-0.5542331729042242
% es.tEX (V/m) @ t=2.4
0.5708022980987852
% es.tEY (V/m) @ t=2.4
0
% es.tEZ (V/m) @ t=2.4
-0.5542331729041869
% es.Ex (V/m) @ t=2.4
0.5708022980988119
% es.Ey (V/m) @ t=2.4
0.4631357174996964
% es.Ez (V/m) @ t=2.4
-0.5542331729042242
% es.tEx (V/m) @ t=2.4
0.5708022980987852
% es.tEy (V/m) @ t=2.4
0
% es.tEz (V/m) @ t=2.4
-0.5542331729041869
% V (V) @ t=2.4
0.03739546615708344
% es.normE (V/m) @ t=2.5
1.0976054120449663
% es.EX (V/m) @ t=2.5
0.5991473226742556
% es.EY (V/m) @ t=2.5
0.4861349793616583
% es.EZ (V/m) @ t=2.5
-0.5817550813596419
% es.tEX (V/m) @ t=2.5
0.5991473226742361
% es.tEY (V/m) @ t=2.5
0
% es.tEZ (V/m) @ t=2.5
-0.5817550813596171
% es.Ex (V/m) @ t=2.5
0.5991473226742556
% es.Ey (V/m) @ t=2.5
0.4861349793616583
% es.Ez (V/m) @ t=2.5
-0.5817550813596419
% es.tEx (V/m) @ t=2.5
0.5991473226742361
% es.tEy (V/m) @ t=2.5
0
% es.tEz (V/m) @ t=2.5
-0.5817550813596171
% V (V) @ t=2.5
0.03925220701474953
% es.normE (V/m) @ t=2.6
1.1511802140765528
% es.EX (V/m) @ t=2.6
0.6283916881060136
% es.EY (V/m) @ t=2.6
0.5098646207703794
% es.EZ (V/m) @ t=2.6
-0.6101499408771947
% es.tEX (V/m) @ t=2.6
0.6283916881059977
% es.tEY (V/m) @ t=2.6
0
% es.tEZ (V/m) @ t=2.6
-0.6101499408771716
% es.Ex (V/m) @ t=2.6
0.6283916881060136
% es.Ey (V/m) @ t=2.6
0.5098646207703794
% es.Ez (V/m) @ t=2.6
-0.6101499408771947
% es.tEx (V/m) @ t=2.6
0.6283916881059977
% es.tEy (V/m) @ t=2.6
0
% es.tEz (V/m) @ t=2.6
-0.6101499408771716
% V (V) @ t=2.6
0.041167646154452835
% es.normE (V/m) @ t=2.7
1.2063840742869416
% es.EX (V/m) @ t=2.7
0.6585250786545345
% es.EY (V/m) @ t=2.7
0.5343164138165584
% es.EZ (V/m) @ t=2.7
-0.6394076754414506
% es.tEX (V/m) @ t=2.7
0.6585250786545025
% es.tEY (V/m) @ t=2.7
0
% es.tEZ (V/m) @ t=2.7
-0.6394076754414186
% es.Ex (V/m) @ t=2.7
0.6585250786545345
% es.Ey (V/m) @ t=2.7
0.5343164138165584
% es.Ez (V/m) @ t=2.7
-0.6394076754414506
% es.tEx (V/m) @ t=2.7
0.6585250786545025
% es.tEy (V/m) @ t=2.7
0
% es.tEz (V/m) @ t=2.7
-0.6394076754414186
% V (V) @ t=2.7
0.0431410612644776
% es.normE (V/m) @ t=2.8
1.2631981665770848
% es.EX (V/m) @ t=2.8
0.6895371785802027
% es.EY (V/m) @ t=2.8
0.5594821305910216
% es.EZ (V/m) @ t=2.8
-0.6695182090370331
% es.tEX (V/m) @ t=2.8
0.6895371785801796
% es.tEY (V/m) @ t=2.8
0
% es.tEZ (V/m) @ t=2.8
-0.6695182090370082
% es.Ex (V/m) @ t=2.8
0.6895371785802027
% es.Ey (V/m) @ t=2.8
0.5594821305910216
% es.Ez (V/m) @ t=2.8
-0.6695182090370331
% es.tEx (V/m) @ t=2.8
0.6895371785801796
% es.tEy (V/m) @ t=2.8
0
% es.tEz (V/m) @ t=2.8
-0.6695182090370082
% V (V) @ t=2.8
0.04517173003310814
% es.normE (V/m) @ t=2.9
1.3216036648499399
% es.EX (V/m) @ t=2.9
0.7214176721434598
% es.EY (V/m) @ t=2.9
0.5853535431843504
% es.EZ (V/m) @ t=2.9
-0.7004714656484019
% es.tEX (V/m) @ t=2.9
0.7214176721434349
% es.tEY (V/m) @ t=2.9
0
% es.tEZ (V/m) @ t=2.9
-0.7004714656483451
% es.Ex (V/m) @ t=2.9
0.7214176721434598
% es.Ey (V/m) @ t=2.9
0.5853535431843504
% es.Ez (V/m) @ t=2.9
-0.7004714656484019
% es.tEx (V/m) @ t=2.9
0.7214176721434349
% es.tEy (V/m) @ t=2.9
0
% es.tEz (V/m) @ t=2.9
-0.7004714656483451
% V (V) @ t=2.9
0.04725893014862875
% es.normE (V/m) @ t=3
1.3800321807715408
% es.EX (V/m) @ t=3
0.7533125257825475
% es.EY (V/m) @ t=3
0.6112300968727133
% es.EZ (V/m) @ t=3
-0.7314414028299332
% es.tEX (V/m) @ t=3
0.7533125257825333
% es.tEY (V/m) @ t=3
0
% es.tEZ (V/m) @ t=3
-0.7314414028299296
% es.Ex (V/m) @ t=3
0.7533125257825475
% es.Ey (V/m) @ t=3
0.6112300968727133
% es.Ez (V/m) @ t=3
-0.7314414028299332
% es.tEx (V/m) @ t=3
0.7533125257825333
% es.tEy (V/m) @ t=3
0
% es.tEz (V/m) @ t=3
-0.7314414028299296
% V (V) @ t=3
0.04934920192517337
% es.normE (V/m) @ t=3.1
1.4392092070560945
% es.EX (V/m) @ t=3.1
0.7856166963117133
% es.EY (V/m) @ t=3.1
0.6374361169403961
% es.EZ (V/m) @ t=3.1
-0.7628098869791309
% es.tEX (V/m) @ t=3.1
0.7856166963117062
% es.tEY (V/m) @ t=3.1
0
% es.tEZ (V/m) @ t=3.1
-0.7628098869790918
% es.Ex (V/m) @ t=3.1
0.7856166963117133
% es.Ey (V/m) @ t=3.1
0.6374361169403961
% es.Ez (V/m) @ t=3.1
-0.7628098869791309
% es.tEx (V/m) @ t=3.1
0.7856166963117062
% es.tEy (V/m) @ t=3.1
0
% es.tEz (V/m) @ t=3.1
-0.7628098869790918
% V (V) @ t=3.1
0.0514671549922784
% es.normE (V/m) @ t=3.2
1.4990328096388774
% es.EX (V/m) @ t=3.2
0.818274616700549
% es.EY (V/m) @ t=3.2
0.6639262437722167
% es.EZ (V/m) @ t=3.2
-0.7945230791857689
% es.tEX (V/m) @ t=3.2
0.8182746167005313
% es.tEY (V/m) @ t=3.2
0
% es.tEZ (V/m) @ t=3.2
-0.7945230791856872
% es.Ex (V/m) @ t=3.2
0.818274616700549
% es.Ey (V/m) @ t=3.2
0.6639262437722167
% es.Ez (V/m) @ t=3.2
-0.7945230791857689
% es.tEx (V/m) @ t=3.2
0.8182746167005313
% es.tEy (V/m) @ t=3.2
0
% es.tEz (V/m) @ t=3.2
-0.7945230791856872
% V (V) @ t=3.2
0.05360923856383312
% es.normE (V/m) @ t=3.3
1.5593683020200184
% es.EX (V/m) @ t=3.3
0.8512128866058859
% es.EY (V/m) @ t=3.3
0.6906404843288527
% es.EZ (V/m) @ t=3.3
-0.8265098937962883
% es.tEX (V/m) @ t=3.3
0.851212886605893
% es.tEY (V/m) @ t=3.3
0
% es.tEZ (V/m) @ t=3.3
-0.8265098937962492
% es.Ex (V/m) @ t=3.3
0.8512128866058859
% es.Ey (V/m) @ t=3.3
0.6906404843288527
% es.Ez (V/m) @ t=3.3
-0.8265098937962883
% es.tEx (V/m) @ t=3.3
0.851212886605893
% es.tEy (V/m) @ t=3.3
0
% es.tEz (V/m) @ t=3.3
-0.8265098937962492
% V (V) @ t=3.3
0.05577078716577847
% es.normE (V/m) @ t=3.4
1.620080997721759
% es.EX (V/m) @ t=3.4
0.8843581056845409
% es.EY (V/m) @ t=3.4
0.7175188455712593
% es.EZ (V/m) @ t=3.4
-0.8586992451576414
% es.tEX (V/m) @ t=3.4
0.884358105684516
% es.tEY (V/m) @ t=3.4
0
% es.tEZ (V/m) @ t=3.4
-0.858699245157581
% es.Ex (V/m) @ t=3.4
0.8843581056845409
% es.Ey (V/m) @ t=3.4
0.7175188455712593
% es.Ez (V/m) @ t=3.4
-0.8586992451576414
% es.tEx (V/m) @ t=3.4
0.884358105684516
% es.tEy (V/m) @ t=3.4
0
% es.tEz (V/m) @ t=3.4
-0.858699245157581
% V (V) @ t=3.4
0.05794713532405539
% es.normE (V/m) @ t=3.5
1.6806058287021541
% es.EX (V/m) @ t=3.5
0.9174009974022539
% es.EY (V/m) @ t=3.5
0.7443133760194307
% es.EZ (V/m) @ t=3.5
-0.8907895776035737
% es.tEX (V/m) @ t=3.5
0.9174009974022432
% es.tEY (V/m) @ t=3.5
0
% es.tEZ (V/m) @ t=3.5
-0.8907895776034991
% es.Ex (V/m) @ t=3.5
0.9174009974022539
% es.Ey (V/m) @ t=3.5
0.7443133760194307
% es.Ez (V/m) @ t=3.5
-0.8907895776035737
% es.tEx (V/m) @ t=3.5
0.9174009974022432
% es.tEy (V/m) @ t=3.5
0
% es.tEz (V/m) @ t=3.5
-0.8907895776034991
% V (V) @ t=3.5
0.06011704291637865
% es.normE (V/m) @ t=3.6
1.7396048117895457
% es.EX (V/m) @ t=3.6
0.9496086791620542
% es.EY (V/m) @ t=3.6
0.7704385728082173
% es.EZ (V/m) @ t=3.6
-0.9220654382699145
% es.tEX (V/m) @ t=3.6
0.949608679162047
% es.tEY (V/m) @ t=3.6
0
% es.tEZ (V/m) @ t=3.6
-0.9220654382698683
% es.Ex (V/m) @ t=3.6
0.9496086791620542
% es.Ey (V/m) @ t=3.6
0.7704385728082173
% es.Ez (V/m) @ t=3.6
-0.9220654382699145
% es.tEx (V/m) @ t=3.6
0.949608679162047
% es.tEy (V/m) @ t=3.6
0
% es.tEz (V/m) @ t=3.6
-0.9220654382698683
% V (V) @ t=3.6
0.06222950368999833
% es.normE (V/m) @ t=3.7
1.7976538067658248
% es.EX (V/m) @ t=3.7
0.9812971747425081
% es.EY (V/m) @ t=3.7
0.7961447563317776
% es.EZ (V/m) @ t=3.7
-0.9528362401955626
% es.tEX (V/m) @ t=3.7
0.9812971747424903
% es.tEY (V/m) @ t=3.7
0
% es.tEZ (V/m) @ t=3.7
-0.9528362401955093
% es.Ex (V/m) @ t=3.7
0.9812971747425081
% es.Ey (V/m) @ t=3.7
0.7961447563317776
% es.Ez (V/m) @ t=3.7
-0.9528362401955626
% es.tEx (V/m) @ t=3.7
0.9812971747424903
% es.tEy (V/m) @ t=3.7
0
% es.tEz (V/m) @ t=3.7
-0.9528362401955093
% V (V) @ t=3.7
0.06430721639019564
% es.normE (V/m) @ t=3.8
1.854485752968558
% es.EX (V/m) @ t=3.8
1.0123205344542328
% es.EY (V/m) @ t=3.8
0.8213141224513549
% es.EZ (V/m) @ t=3.8
-0.9829600111801078
% es.tEX (V/m) @ t=3.8
1.0123205344542114
% es.tEY (V/m) @ t=3.8
0
% es.tEZ (V/m) @ t=3.8
-0.9829600111800758
% es.Ex (V/m) @ t=3.8
1.0123205344542328
% es.Ey (V/m) @ t=3.8
0.8213141224513549
% es.Ez (V/m) @ t=3.8
-0.9829600111801078
% es.tEx (V/m) @ t=3.8
1.0123205344542114
% es.tEy (V/m) @ t=3.8
0
% es.tEz (V/m) @ t=3.8
-0.9829600111800758
% V (V) @ t=3.8
0.0663404176146848
% es.normE (V/m) @ t=3.9
1.9098335897458336
% es.EX (V/m) @ t=3.9
1.042532808607831
% es.EY (V/m) @ t=3.9
0.845828867027933
% es.EZ (V/m) @ t=3.9
-1.0122947790229553
% es.tEX (V/m) @ t=3.9
1.042532808607799
% es.tEY (V/m) @ t=3.9
0
% es.tEZ (V/m) @ t=3.9
-1.012294779022831
% es.Ex (V/m) @ t=3.9
1.042532808607831
% es.Ey (V/m) @ t=3.9
0.845828867027933
% es.Ez (V/m) @ t=3.9
-1.0122947790229553
% es.tEx (V/m) @ t=3.9
1.042532808607799
% es.tEy (V/m) @ t=3.9
0
% es.tEz (V/m) @ t=3.9
-1.012294779022831
% V (V) @ t=3.9
0.06831934396118
% es.normE (V/m) @ t=4
1.963430256463528
% es.EX (V/m) @ t=4
1.0717880475138202
% es.EY (V/m) @ t=4
0.8695711859227657
% es.EZ (V/m) @ t=4
-1.0406985715236594
% es.tEX (V/m) @ t=4
1.071788047513813
% es.tEY (V/m) @ t=4
0
% es.tEZ (V/m) @ t=4
-1.0406985715235777
% es.Ex (V/m) @ t=4
1.0717880475138202
% es.Ey (V/m) @ t=4
0.8695711859227657
% es.Ez (V/m) @ t=4
-1.0406985715236594
% es.tEx (V/m) @ t=4
1.071788047513813
% es.tEy (V/m) @ t=4
0
% es.tEz (V/m) @ t=4
-1.0406985715235777
% V (V) @ t=4
0.07023423202739541
% es.normE (V/m) @ t=4.1
2.014879602561108
% es.EX (V/m) @ t=4.1
1.0998709957833341
% es.EY (V/m) @ t=4.1
0.892362831594717
% es.EZ (V/m) @ t=4.1
-1.067963895158325
% es.tEX (V/m) @ t=4.1
1.0998709957833057
% es.tEY (V/m) @ t=4.1
0
% es.tEZ (V/m) @ t=4.1
-1.0679638951582646
% es.Ex (V/m) @ t=4.1
1.0998709957833341
% es.Ey (V/m) @ t=4.1
0.892362831594717
% es.Ez (V/m) @ t=4.1
-1.067963895158325
% es.tEx (V/m) @ t=4.1
1.0998709957833057
% es.tEy (V/m) @ t=4.1
0
% es.tEz (V/m) @ t=4.1
-1.0679638951582646
% V (V) @ t=4.1
0.07207215699236433
% es.normE (V/m) @ t=4.2
2.0638630541158616
% es.EX (V/m) @ t=4.2
1.1266080473238276
% es.EY (V/m) @ t=4.2
0.9140618799969644
% es.EZ (V/m) @ t=4.2
-1.0939226314764703
% es.tEX (V/m) @ t=4.2
1.126608047323792
% es.tEY (V/m) @ t=4.2
0
% es.tEZ (V/m) @ t=4.2
-1.093922631476417
% es.Ex (V/m) @ t=4.2
1.1266080473238276
% es.Ey (V/m) @ t=4.2
0.9140618799969644
% es.Ez (V/m) @ t=4.2
-1.0939226314764703
% es.tEx (V/m) @ t=4.2
1.126608047323792
% es.tEy (V/m) @ t=4.2
0
% es.tEz (V/m) @ t=4.2
-1.093922631476417
% V (V) @ t=4.2
0.07382209389134751
% es.normE (V/m) @ t=4.3
2.1101662148621187
% es.EX (V/m) @ t=4.3
1.1518815268492517
% es.EY (V/m) @ t=4.3
0.9345751858734701
% es.EZ (V/m) @ t=4.3
-1.1184595387823073
% es.tEX (V/m) @ t=4.3
1.151881526849234
% es.tEY (V/m) @ t=4.3
0
% es.tEZ (V/m) @ t=4.3
-1.1184595387821403
% es.Ex (V/m) @ t=4.3
1.1518815268492517
% es.Ey (V/m) @ t=4.3
0.9345751858734701
% es.Ez (V/m) @ t=4.3
-1.1184595387823073
% es.tEx (V/m) @ t=4.3
1.151881526849234
% es.tEy (V/m) @ t=4.3
0
% es.tEz (V/m) @ t=4.3
-1.1184595387821403
% V (V) @ t=4.3
0.07547556907493908
% es.normE (V/m) @ t=4.4
2.153504449884637
% es.EX (V/m) @ t=4.4
1.1755360494028935
% es.EY (V/m) @ t=4.4
0.9537767163302462
% es.EZ (V/m) @ t=4.4
-1.141423724812615
% es.tEX (V/m) @ t=4.4
1.1755360494028544
% es.tEY (V/m) @ t=4.4
0
% es.tEZ (V/m) @ t=4.4
-1.141423724812519
% es.Ex (V/m) @ t=4.4
1.1755360494028935
% es.Ey (V/m) @ t=4.4
0.9537767163302462
% es.Ez (V/m) @ t=4.4
-1.141423724812615
% es.tEx (V/m) @ t=4.4
1.1755360494028544
% es.tEy (V/m) @ t=4.4
0
% es.tEz (V/m) @ t=4.4
-1.141423724812519
% V (V) @ t=4.4
0.07702238874581722
% es.normE (V/m) @ t=4.5
2.193593124272044
% es.EX (V/m) @ t=4.5
1.1974162300288356
% es.EY (V/m) @ t=4.5
0.971540438473042
% es.EZ (V/m) @ t=4.5
-1.1626642973044135
% es.tEX (V/m) @ t=4.5
1.1974162300287503
% es.tEY (V/m) @ t=4.5
0
% es.tEZ (V/m) @ t=4.5
-1.1626642973043317
% es.Ex (V/m) @ t=4.5
1.1974162300288356
% es.Ey (V/m) @ t=4.5
0.971540438473042
% es.Ez (V/m) @ t=4.5
-1.1626642973044135
% es.tEx (V/m) @ t=4.5
1.1974162300287503
% es.tEy (V/m) @ t=4.5
0
% es.tEz (V/m) @ t=4.5
-1.1626642973043317
% V (V) @ t=4.5
0.07845235910666026
% es.normE (V/m) @ t=4.6
2.2301476031159377
% es.EX (V/m) @ t=4.6
1.2173666837704644
% es.EY (V/m) @ t=4.6
0.9877403194079974
% es.EZ (V/m) @ t=4.6
-1.1820303639944783
% es.tEX (V/m) @ t=4.6
1.2173666837704467
% es.tEY (V/m) @ t=4.6
0
% es.tEZ (V/m) @ t=4.6
-1.1820303639943148
% es.Ex (V/m) @ t=4.6
1.2173666837704644
% es.Ey (V/m) @ t=4.6
0.9877403194079974
% es.Ez (V/m) @ t=4.6
-1.1820303639944783
% es.tEx (V/m) @ t=4.6
1.2173666837704467
% es.tEy (V/m) @ t=4.6
0
% es.tEz (V/m) @ t=4.6
-1.1820303639943148
% V (V) @ t=4.6
0.07975528636014645
% es.normE (V/m) @ t=4.7
2.2645633407602315
% es.EX (V/m) @ t=4.7
1.236150527794237
% es.EY (V/m) @ t=4.7
1.0029905239487746
% es.EZ (V/m) @ t=4.7
-1.200264992439383
% es.tEX (V/m) @ t=4.7
1.2361505277942086
% es.tEY (V/m) @ t=4.7
0
% es.tEZ (V/m) @ t=4.7
-1.2002649924393012
% es.Ex (V/m) @ t=4.7
1.236150527794237
% es.Ey (V/m) @ t=4.7
1.0029905239487746
% es.Ez (V/m) @ t=4.7
-1.200264992439383
% es.tEx (V/m) @ t=4.7
1.2361505277942086
% es.tEy (V/m) @ t=4.7
0
% es.tEz (V/m) @ t=4.7
-1.2002649924393012
% V (V) @ t=4.7
0.08098280327032388
% es.normE (V/m) @ t=4.8
2.2959534422686576
% es.EX (V/m) @ t=4.8
1.2532831225734213
% es.EY (V/m) @ t=4.8
1.0168996812425632
% es.EZ (V/m) @ t=4.8
-1.2168968334613446
% es.tEX (V/m) @ t=4.8
1.2532831225734142
% es.tEY (V/m) @ t=4.8
0
% es.tEZ (V/m) @ t=4.8
-1.2168968334612984
% es.Ex (V/m) @ t=4.8
1.2532831225734213
% es.Ey (V/m) @ t=4.8
1.0168996812425632
% es.Ez (V/m) @ t=4.8
-1.2168968334613446
% es.tEx (V/m) @ t=4.8
1.2532831225734142
% es.tEy (V/m) @ t=4.8
0
% es.tEz (V/m) @ t=4.8
-1.2168968334612984
% V (V) @ t=4.8
0.08210255313201997
% es.normE (V/m) @ t=4.9
2.324015045634477
% es.EX (V/m) @ t=4.9
1.2685991184444703
% es.EY (V/m) @ t=4.9
1.0293337280888721
% es.EZ (V/m) @ t=4.9
-1.2317652963463175
% es.tEX (V/m) @ t=4.9
1.2685991184444383
% es.tEY (V/m) @ t=4.9
0
% es.tEZ (V/m) @ t=4.9
-1.2317652963463104
% es.Ex (V/m) @ t=4.9
1.2685991184444703
% es.Ey (V/m) @ t=4.9
1.0293337280888721
% es.Ez (V/m) @ t=4.9
-1.2317652963463175
% es.tEx (V/m) @ t=4.9
1.2685991184444383
% es.tEy (V/m) @ t=4.9
0
% es.tEz (V/m) @ t=4.9
-1.2317652963463104
% V (V) @ t=4.9
0.08310367139978114
% es.normE (V/m) @ t=5
2.348603192336648
% es.EX (V/m) @ t=5
1.2820194913284553
% es.EY (V/m) @ t=5
1.040228168900235
% es.EZ (V/m) @ t=5
-1.2447938093520179
% es.tEX (V/m) @ t=5
1.2820194913284553
% es.tEY (V/m) @ t=5
0
% es.tEZ (V/m) @ t=5
-1.2447938093519397
% es.Ex (V/m) @ t=5
1.2820194913284553
% es.Ey (V/m) @ t=5
1.040228168900235
% es.Ez (V/m) @ t=5
-1.2447938093520179
% es.tEx (V/m) @ t=5
1.2820194913284553
% es.tEy (V/m) @ t=5
0
% es.tEz (V/m) @ t=5
-1.2447938093519397
% V (V) @ t=5
0.08398110430847816
% es.normE (V/m) @ t=5.1
2.3695729238542027
% es.EX (V/m) @ t=5.1
1.2934652171467746
% es.EY (V/m) @ t=5.1
1.0495185080887026
% es.EZ (V/m) @ t=5.1
-1.2559058007366453
% es.tEX (V/m) @ t=5.1
1.2934652171467924
% es.tEY (V/m) @ t=5.1
0
% es.tEZ (V/m) @ t=5.1
-1.2559058007365564
% es.Ex (V/m) @ t=5.1
1.2934652171467746
% es.Ey (V/m) @ t=5.1
1.0495185080887026
% es.Ez (V/m) @ t=5.1
-1.2559058007366453
% es.tEx (V/m) @ t=5.1
1.2934652171467924
% es.tEy (V/m) @ t=5.1
0
% es.tEz (V/m) @ t=5.1
-1.2559058007365564
% V (V) @ t=5.1
0.08472979809298171
% es.normE (V/m) @ t=5.2
2.3871904334712077
% es.EX (V/m) @ t=5.2
1.303081852310072
% es.EY (V/m) @ t=5.2
1.0573219397760525
% es.EZ (V/m) @ t=5.2
-1.2652429833267504
% es.tEX (V/m) @ t=5.2
1.303081852310033
% es.tEY (V/m) @ t=5.2
0
% es.tEZ (V/m) @ t=5.2
-1.2652429833266297
% es.Ex (V/m) @ t=5.2
1.303081852310072
% es.Ey (V/m) @ t=5.2
1.0573219397760525
% es.Ez (V/m) @ t=5.2
-1.2652429833267504
% es.tEx (V/m) @ t=5.2
1.303081852310033
% es.tEy (V/m) @ t=5.2
0
% es.tEz (V/m) @ t=5.2
-1.2652429833266297
% V (V) @ t=5.2
0.08535958568581638
% es.normE (V/m) @ t=5.3
2.4032305647522447
% es.EX (V/m) @ t=5.3
1.3118390124055281
% es.EY (V/m) @ t=5.3
1.064422336976449
% es.EZ (V/m) @ t=5.3
-1.2737480273357775
% es.tEX (V/m) @ t=5.3
1.3118390124055068
% es.tEY (V/m) @ t=5.3
0
% es.tEZ (V/m) @ t=5.3
-1.273748027335742