% Model:              1x1--2 - Copy1.mph
% Version:            COMSOL 6.1.0.252
% Date:               Mar 28 2023, 11:01
% Dimension:          0
% Nodes:              14017
% Expressions:        14017
% Description:        Electric field norm, Electric field, X component, Electric field, Y component, Electric field, Z component, Tangential electric field, X component, Tangential electric field, Y component, Tangential electric field, Z component, Electric field, x component, Electric field, y component, Electric field, z component, Tangential electric field, x component, Tangential electric field, y component, Tangential electric field, z component, Electric potential
% Length unit:        mm
% x
0.9999999999999998
% y
12.2
% z
1.33
% es.normE (V/m) @ t=0
0.41131133160867617
% es.EX (V/m) @ t=0
0.2712866684817892
% es.EY (V/m) @ t=0
0.1775266394079127
% es.EZ (V/m) @ t=0
-0.20449182307019242
% es.tEX (V/m) @ t=0
0.2712866684817894
% es.tEY (V/m) @ t=0
0
% es.tEZ (V/m) @ t=0
-0.20449182307019242
% es.Ex (V/m) @ t=0
0.2712866684817892
% es.Ey (V/m) @ t=0
0.1775266394079127
% es.Ez (V/m) @ t=0
-0.20449182307019242
% es.tEx (V/m) @ t=0
0.2712866684817894
% es.tEy (V/m) @ t=0
0
% es.tEz (V/m) @ t=0
-0.20449182307019242
% V (V) @ t=0
0.011488094416758111
% es.normE (V/m) @ t=0.1
0.4247965695567022
% es.EX (V/m) @ t=0.1
0.2801808848228142
% es.EY (V/m) @ t=0.1
0.18334718724820576
% es.EZ (V/m) @ t=0.1
-0.2111962983583684
% es.tEX (V/m) @ t=0.1
0.28018088482281445
% es.tEY (V/m) @ t=0.1
0
% es.tEZ (V/m) @ t=0.1
-0.2111962983583684
% es.Ex (V/m) @ t=0.1
0.2801808848228142
% es.Ey (V/m) @ t=0.1
0.18334718724820576
% es.Ez (V/m) @ t=0.1
-0.2111962983583684
% es.tEx (V/m) @ t=0.1
0.28018088482281445
% es.tEy (V/m) @ t=0.1
0
% es.tEz (V/m) @ t=0.1
-0.2111962983583684
% V (V) @ t=0.1
0.011864696591748432
% es.normE (V/m) @ t=0.2
0.4529089994483291
% es.EX (V/m) @ t=0.2
0.29872279520488854
% es.EY (V/m) @ t=0.2
0.1954808958876142
% es.EZ (V/m) @ t=0.2
-0.22517297556415716
% es.tEX (V/m) @ t=0.2
0.29872279520488854
% es.tEY (V/m) @ t=0.2
0
% es.tEZ (V/m) @ t=0.2
-0.22517297556415716
% es.Ex (V/m) @ t=0.2
0.29872279520488854
% es.Ey (V/m) @ t=0.2
0.1954808958876142
% es.Ez (V/m) @ t=0.2
-0.22517297556415716
% es.tEx (V/m) @ t=0.2
0.29872279520488854
% es.tEy (V/m) @ t=0.2
0
% es.tEz (V/m) @ t=0.2
-0.22517297556415716
% V (V) @ t=0.2
0.012649870841135892
% es.normE (V/m) @ t=0.3
0.4823887709123045
% es.EX (V/m) @ t=0.3
0.3181670772588989
% es.EY (V/m) @ t=0.3
0.2082042696385682
% es.EZ (V/m) @ t=0.3
-0.23982942792225614
% es.tEX (V/m) @ t=0.3
0.31816707725889914
% es.tEY (V/m) @ t=0.3
0
% es.tEZ (V/m) @ t=0.3
-0.23982942792225614
% es.Ex (V/m) @ t=0.3
0.3181670772588989
% es.Ey (V/m) @ t=0.3
0.2082042696385682
% es.Ez (V/m) @ t=0.3
-0.23982942792225614
% es.tEx (V/m) @ t=0.3
0.31816707725889914
% es.tEy (V/m) @ t=0.3
0
% es.tEz (V/m) @ t=0.3
-0.23982942792225614
% V (V) @ t=0.3
0.013473374746907253
% es.normE (V/m) @ t=0.4
0.5136923837930105
% es.EX (V/m) @ t=0.4
0.3388149178627706
% es.EY (V/m) @ t=0.4
0.22171424837507603
% es.EZ (V/m) @ t=0.4
-0.25539260872156344
% es.tEX (V/m) @ t=0.4
0.3388149178627706
% es.tEY (V/m) @ t=0.4
0
% es.tEZ (V/m) @ t=0.4
-0.25539260872156344
% es.Ex (V/m) @ t=0.4
0.3388149178627706
% es.Ey (V/m) @ t=0.4
0.22171424837507603
% es.Ez (V/m) @ t=0.4
-0.25539260872156344
% es.tEx (V/m) @ t=0.4
0.3388149178627706
% es.tEy (V/m) @ t=0.4
0
% es.tEz (V/m) @ t=0.4
-0.25539260872156344
% V (V) @ t=0.4
0.014347984099679488
% es.normE (V/m) @ t=0.5
0.5470916115951848
% es.EX (V/m) @ t=0.5
0.3608369069890809
% es.EY (V/m) @ t=0.5
0.23613636999531007
% es.EZ (V/m) @ t=0.5
-0.2719980762679226
% es.tEX (V/m) @ t=0.5
0.3608369069890811
% es.tEY (V/m) @ t=0.5
0
% es.tEZ (V/m) @ t=0.5
-0.2719980762679226
% es.Ex (V/m) @ t=0.5
0.3608369069890809
% es.Ey (V/m) @ t=0.5
0.23613636999531007
% es.Ez (V/m) @ t=0.5
-0.2719980762679226
% es.tEx (V/m) @ t=0.5
0.3608369069890811
% es.tEy (V/m) @ t=0.5
0
% es.tEz (V/m) @ t=0.5
-0.2719980762679226
% V (V) @ t=0.5
0.01527897403389298
% es.normE (V/m) @ t=0.6
0.5815369700094913
% es.EX (V/m) @ t=0.6
0.38354964411704184
% es.EY (V/m) @ t=0.6
0.2510092932071215
% es.EZ (V/m) @ t=0.6
-0.2891236113714726
% es.tEX (V/m) @ t=0.6
0.38354964411704207
% es.tEY (V/m) @ t=0.6
0
% es.tEZ (V/m) @ t=0.6
-0.2891236113714726
% es.Ex (V/m) @ t=0.6
0.38354964411704184
% es.Ey (V/m) @ t=0.6
0.2510092932071215
% es.Ez (V/m) @ t=0.6
-0.2891236113714726
% es.tEx (V/m) @ t=0.6
0.38354964411704207
% es.tEy (V/m) @ t=0.6
0
% es.tEz (V/m) @ t=0.6
-0.2891236113714726
% V (V) @ t=0.6
0.016239385286273
% es.normE (V/m) @ t=0.7
0.6178753758817662
% es.EX (V/m) @ t=0.7
0.40751810891178497
% es.EY (V/m) @ t=0.7
0.2666924862425013
% es.EZ (V/m) @ t=0.7
-0.3071899535454552
% es.tEX (V/m) @ t=0.7
0.40751810891178497
% es.tEY (V/m) @ t=0.7
0
% es.tEZ (V/m) @ t=0.7
-0.3071899535454552
% es.Ex (V/m) @ t=0.7
0.40751810891178497
% es.Ey (V/m) @ t=0.7
0.2666924862425013
% es.Ez (V/m) @ t=0.7
-0.3071899535454552
% es.tEx (V/m) @ t=0.7
0.40751810891178497
% es.tEy (V/m) @ t=0.7
0
% es.tEz (V/m) @ t=0.7
-0.3071899535454552
% V (V) @ t=0.7
0.017254579086609455
% es.normE (V/m) @ t=0.8
0.6557512612536962
% es.EX (V/m) @ t=0.8
0.43250644008881833
% es.EY (V/m) @ t=0.8
0.2830337574388708
% es.EZ (V/m) @ t=0.8
-0.3260203925285783
% es.tEX (V/m) @ t=0.8
0.4325064400888188
% es.tEY (V/m) @ t=0.8
0
% es.tEZ (V/m) @ t=0.8
-0.3260203925285783
% es.Ex (V/m) @ t=0.8
0.43250644008881833
% es.Ey (V/m) @ t=0.8
0.2830337574388708
% es.Ez (V/m) @ t=0.8
-0.3260203925285783
% es.tEx (V/m) @ t=0.8
0.4325064400888188
% es.tEy (V/m) @ t=0.8
0
% es.tEz (V/m) @ t=0.8
-0.3260203925285783
% V (V) @ t=0.8
0.018314265718054216
% es.normE (V/m) @ t=0.9
0.6956698796781506
% es.EX (V/m) @ t=0.9
0.45883984369173936
% es.EY (V/m) @ t=0.9
0.3002588281852354
% es.EZ (V/m) @ t=0.9
-0.3458665325199384
% es.tEX (V/m) @ t=0.9
0.4588398436917398
% es.tEY (V/m) @ t=0.9
0
% es.tEZ (V/m) @ t=0.9
-0.3458665325199384
% es.Ex (V/m) @ t=0.9
0.45883984369173936
% es.Ey (V/m) @ t=0.9
0.3002588281852354
% es.Ez (V/m) @ t=0.9
-0.3458665325199384
% es.tEx (V/m) @ t=0.9
0.4588398436917398
% es.tEy (V/m) @ t=0.9
0
% es.tEz (V/m) @ t=0.9
-0.3458665325199384
% V (V) @ t=0.9
0.01943040726493712
% es.normE (V/m) @ t=1
0.7377430002947812
% es.EX (V/m) @ t=1
0.48659025993931193
% es.EY (V/m) @ t=1
0.3184176312747704
% es.EZ (V/m) @ t=1
-0.3667840319597149
% es.tEX (V/m) @ t=1
0.4865902599393124
% es.tEY (V/m) @ t=1
0
% es.tEZ (V/m) @ t=1
-0.3667840319597149
% es.Ex (V/m) @ t=1
0.48659025993931193
% es.Ey (V/m) @ t=1
0.3184176312747704
% es.Ez (V/m) @ t=1
-0.3667840319597149
% es.tEx (V/m) @ t=1
0.4865902599393124
% es.tEy (V/m) @ t=1
0
% es.tEz (V/m) @ t=1
-0.3667840319597149
% V (V) @ t=1
0.02060564991105611
% es.normE (V/m) @ t=1.1
0.7817925717294156
% es.EX (V/m) @ t=1.1
0.5156430861702277
% es.EY (V/m) @ t=1.1
0.3374306224541366
% es.EZ (V/m) @ t=1.1
-0.38868422548822945
% es.tEX (V/m) @ t=1.1
0.5156430861702281
% es.tEY (V/m) @ t=1.1
0
% es.tEZ (V/m) @ t=1.1
-0.38868422548822945
% es.Ex (V/m) @ t=1.1
0.5156430861702277
% es.Ey (V/m) @ t=1.1
0.3374306224541366
% es.Ez (V/m) @ t=1.1
-0.38868422548822945
% es.tEx (V/m) @ t=1.1
0.5156430861702281
% es.tEy (V/m) @ t=1.1
0
% es.tEz (V/m) @ t=1.1
-0.38868422548822945
% V (V) @ t=1.1
0.021835778215996464
% es.normE (V/m) @ t=1.2
0.8281872882611206
% es.EX (V/m) @ t=1.2
0.5462425891393399
% es.EY (V/m) @ t=1.2
0.3574558974539448
% es.EZ (V/m) @ t=1.2
-0.41175036367291895
% es.tEX (V/m) @ t=1.2
0.5462425891393403
% es.tEY (V/m) @ t=1.2
0
% es.tEZ (V/m) @ t=1.2
-0.41175036367291895
% es.Ex (V/m) @ t=1.2
0.5462425891393399
% es.Ey (V/m) @ t=1.2
0.3574558974539448
% es.Ez (V/m) @ t=1.2
-0.41175036367291895
% es.tEx (V/m) @ t=1.2
0.5462425891393403
% es.tEy (V/m) @ t=1.2
0
% es.tEz (V/m) @ t=1.2
-0.41175036367291895
% V (V) @ t=1.2
0.023131381252949557
% es.normE (V/m) @ t=1.3
0.8768166249779393
% es.EX (V/m) @ t=1.3
0.5783155440538961
% es.EY (V/m) @ t=1.3
0.37844606330370745
% es.EZ (V/m) @ t=1.3
-0.43592751278025865
% es.tEX (V/m) @ t=1.3
0.5783155440538965
% es.tEY (V/m) @ t=1.3
0
% es.tEZ (V/m) @ t=1.3
-0.43592751278025865
% es.Ex (V/m) @ t=1.3
0.5783155440538961
% es.Ey (V/m) @ t=1.3
0.37844606330370745
% es.Ez (V/m) @ t=1.3
-0.43592751278025865
% es.tEx (V/m) @ t=1.3
0.5783155440538965
% es.tEy (V/m) @ t=1.3
0
% es.tEz (V/m) @ t=1.3
-0.43592751278025865
% V (V) @ t=1.3
0.024489284694363372
% es.normE (V/m) @ t=1.4
0.927651622178324
% es.EX (V/m) @ t=1.4
0.6118429616708934
% es.EY (V/m) @ t=1.4
0.40038851507345186
% es.EZ (V/m) @ t=1.4
-0.4612012685361133
% es.tEX (V/m) @ t=1.4
0.6118429616708938
% es.tEY (V/m) @ t=1.4
0
% es.tEZ (V/m) @ t=1.4
-0.4612012685361133
% es.Ex (V/m) @ t=1.4
0.6118429616708934
% es.Ey (V/m) @ t=1.4
0.40038851507345186
% es.Ez (V/m) @ t=1.4
-0.4612012685361133
% es.tEx (V/m) @ t=1.4
0.6118429616708938
% es.tEy (V/m) @ t=1.4
0
% es.tEz (V/m) @ t=1.4
-0.4612012685361133
% V (V) @ t=1.4
0.025908709427101623
% es.normE (V/m) @ t=1.5
0.9807296415421477
% es.EX (V/m) @ t=1.5
0.6468515826133854
% es.EY (V/m) @ t=1.5
0.42329738702765063
% es.EZ (V/m) @ t=1.5
-0.4875900942203355
% es.tEX (V/m) @ t=1.5
0.6468515826133854
% es.tEY (V/m) @ t=1.5
0
% es.tEZ (V/m) @ t=1.5
-0.4875900942203355
% es.Ex (V/m) @ t=1.5
0.6468515826133854
% es.Ey (V/m) @ t=1.5
0.42329738702765063
% es.Ez (V/m) @ t=1.5
-0.4875900942203355
% es.tEx (V/m) @ t=1.5
0.6468515826133854
% es.tEy (V/m) @ t=1.5
0
% es.tEz (V/m) @ t=1.5
-0.4875900942203355
% V (V) @ t=1.5
0.027391259231962964
% es.normE (V/m) @ t=1.6
1.0360319683280834
% es.EX (V/m) @ t=1.6
0.6833280123061871
% es.EY (V/m) @ t=1.6
0.447165599209006
% es.EZ (V/m) @ t=1.6
-0.51508474143996
% es.tEX (V/m) @ t=1.6
0.6833280123061876
% es.tEY (V/m) @ t=1.6
0
% es.tEZ (V/m) @ t=1.6
-0.51508474143996
% es.Ex (V/m) @ t=1.6
0.6833280123061871
% es.Ey (V/m) @ t=1.6
0.447165599209006
% es.Ez (V/m) @ t=1.6
-0.51508474143996
% es.tEx (V/m) @ t=1.6
0.6833280123061876
% es.tEy (V/m) @ t=1.6
0
% es.tEz (V/m) @ t=1.6
-0.51508474143996
% V (V) @ t=1.6
0.02893613076332242
% es.normE (V/m) @ t=1.7
1.0935586025402282
% es.EX (V/m) @ t=1.7
0.7212722507492706
% es.EY (V/m) @ t=1.7
0.4719931516175393
% es.EZ (V/m) @ t=1.7
-0.5436852101949619
% es.tEX (V/m) @ t=1.7
0.721272250749271
% es.tEY (V/m) @ t=1.7
0
% es.tEZ (V/m) @ t=1.7
-0.5436852101949619
% es.Ex (V/m) @ t=1.7
0.7212722507492706
% es.Ey (V/m) @ t=1.7
0.4719931516175393
% es.Ez (V/m) @ t=1.7
-0.5436852101949619
% es.tEx (V/m) @ t=1.7
0.721272250749271
% es.tEy (V/m) @ t=1.7
0
% es.tEz (V/m) @ t=1.7
-0.5436852101949619
% V (V) @ t=1.7
0.030543324021179964
% es.normE (V/m) @ t=1.8
1.1533095441845211
% es.EX (V/m) @ t=1.8
0.7606842979426203
% es.EY (V/m) @ t=1.8
0.49778004425324696
% es.EZ (V/m) @ t=1.8
-0.5733915004853589
% es.tEX (V/m) @ t=1.8
0.7606842979426207
% es.tEY (V/m) @ t=1.8
0
% es.tEZ (V/m) @ t=1.8
-0.5733915004853589
% es.Ex (V/m) @ t=1.8
0.7606842979426203
% es.Ey (V/m) @ t=1.8
0.49778004425324696
% es.Ez (V/m) @ t=1.8
-0.5733915004853589
% es.tEx (V/m) @ t=1.8
0.7606842979426207
% es.tEy (V/m) @ t=1.8
0
% es.tEz (V/m) @ t=1.8
-0.5733915004853589
% V (V) @ t=1.8
0.03221283900553563
% es.normE (V/m) @ t=1.9
1.2152847932681472
% es.EX (V/m) @ t=1.9
0.8015641538862512
% es.EY (V/m) @ t=1.9
0.5245262771161281
% es.EZ (V/m) @ t=1.9
-0.6042036123111263
% es.tEX (V/m) @ t=1.9
0.8015641538862517
% es.tEY (V/m) @ t=1.9
0
% es.tEZ (V/m) @ t=1.9
-0.6042036123111263
% es.Ex (V/m) @ t=1.9
0.8015641538862512
% es.Ey (V/m) @ t=1.9
0.5245262771161281
% es.Ez (V/m) @ t=1.9
-0.6042036123111263
% es.tEx (V/m) @ t=1.9
0.8015641538862517
% es.tEy (V/m) @ t=1.9
0
% es.tEz (V/m) @ t=1.9
-0.6042036123111263
% V (V) @ t=1.9
0.03394467571638939
% es.normE (V/m) @ t=2
1.2783988736744236
% es.EX (V/m) @ t=2
0.8431942970429906
% es.EY (V/m) @ t=2
0.5517648485134705
% es.EZ (V/m) @ t=2
-0.6355819589954628
% es.tEX (V/m) @ t=2
0.8431942970429915
% es.tEY (V/m) @ t=2
0
% es.tEZ (V/m) @ t=2
-0.6355819589954628
% es.Ex (V/m) @ t=2
0.8431942970429906
% es.Ey (V/m) @ t=2
0.5517648485134705
% es.Ez (V/m) @ t=2
-0.6355819589954628
% es.tEx (V/m) @ t=2
0.8431942970429915
% es.tEy (V/m) @ t=2
0
% es.tEz (V/m) @ t=2
-0.6355819589954628
% V (V) @ t=2
0.035708094102085405
% es.normE (V/m) @ t=2.1
1.3423941636155345
% es.EX (V/m) @ t=2.1
0.8854044342385583
% es.EY (V/m) @ t=2.1
0.5793849224681189
% es.EZ (V/m) @ t=2.1
-0.6673984775837987
% es.tEX (V/m) @ t=2.1
0.8854044342385592
% es.tEY (V/m) @ t=2.1
0
% es.tEZ (V/m) @ t=2.1
-0.6673984775837987
% es.Ex (V/m) @ t=2.1
0.8854044342385583
% es.Ey (V/m) @ t=2.1
0.5793849224681189
% es.Ez (V/m) @ t=2.1
-0.6673984775837987
% es.tEx (V/m) @ t=2.1
0.8854044342385592
% es.tEy (V/m) @ t=2.1
0
% es.tEz (V/m) @ t=2.1
-0.6673984775837987
% V (V) @ t=2.1
0.03749579846388038
% es.normE (V/m) @ t=2.2
1.4079809663615728
% es.EX (V/m) @ t=2.2
0.9286640902147587
% es.EY (V/m) @ t=2.2
0.6076920909907155
% es.EZ (V/m) @ t=2.2
-0.7000062575403607
% es.tEX (V/m) @ t=2.2
0.9286640902147587
% es.tEY (V/m) @ t=2.2
0
% es.tEZ (V/m) @ t=2.2
-0.7000062575403607
% es.Ex (V/m) @ t=2.2
0.9286640902147587
% es.Ey (V/m) @ t=2.2
0.6076920909907155
% es.Ez (V/m) @ t=2.2
-0.7000062575403607
% es.tEx (V/m) @ t=2.2
0.9286640902147587
% es.tEy (V/m) @ t=2.2
0
% es.tEz (V/m) @ t=2.2
-0.7000062575403607
% V (V) @ t=2.2
0.039327904176813464
% es.normE (V/m) @ t=2.3
1.4751592819120938
% es.EX (V/m) @ t=2.3
0.9729732649715608
% es.EY (V/m) @ t=2.3
0.6366863540812657
% es.EZ (V/m) @ t=2.3
-0.7334052988651578
% es.tEX (V/m) @ t=2.3
0.9729732649715608
% es.tEY (V/m) @ t=2.3
0
% es.tEZ (V/m) @ t=2.3
-0.7334052988651578
% es.Ex (V/m) @ t=2.3
0.9729732649715608
% es.Ey (V/m) @ t=2.3
0.6366863540812657
% es.Ez (V/m) @ t=2.3
-0.7334052988651578
% es.tEx (V/m) @ t=2.3
0.9729732649715608
% es.tEy (V/m) @ t=2.3
0
% es.tEz (V/m) @ t=2.3
-0.7334052988651578
% V (V) @ t=2.3
0.041204411240884684
% es.normE (V/m) @ t=2.4
1.54392911026688
% es.EX (V/m) @ t=2.4
1.0183319585090063
% es.EY (V/m) @ t=2.4
0.6663677117397935
% es.EZ (V/m) @ t=2.4
-0.7675956015581509
% es.tEX (V/m) @ t=2.4
1.0183319585090072
% es.tEY (V/m) @ t=2.4
0
% es.tEZ (V/m) @ t=2.4
-0.7675956015581509
% es.Ex (V/m) @ t=2.4
1.0183319585090063
% es.Ey (V/m) @ t=2.4
0.6663677117397935
% es.Ez (V/m) @ t=2.4
-0.7675956015581509
% es.tEx (V/m) @ t=2.4
1.0183319585090072
% es.tEy (V/m) @ t=2.4
0
% es.tEz (V/m) @ t=2.4
-0.7675956015581509
% V (V) @ t=2.4
0.04312531965609404
% es.normE (V/m) @ t=2.5
1.6142627455724807
% es.EX (V/m) @ t=2.5
1.0647219471987874
% es.EY (V/m) @ t=2.5
0.6967241580254377
% es.EZ (V/m) @ t=2.5
-0.8025633885976937
% es.tEX (V/m) @ t=2.5
1.0647219471987883
% es.tEY (V/m) @ t=2.5
0
% es.tEZ (V/m) @ t=2.5
-0.8025633885976937
% es.Ex (V/m) @ t=2.5
1.0647219471987874
% es.Ey (V/m) @ t=2.5
0.6967241580254377
% es.Ez (V/m) @ t=2.5
-0.8025633885976937
% es.tEx (V/m) @ t=2.5
1.0647219471987883
% es.tEy (V/m) @ t=2.5
0
% es.tEz (V/m) @ t=2.5
-0.8025633885976937
% V (V) @ t=2.5
0.04508986899917829
% es.normE (V/m) @ t=2.6
1.6818511055854866
% es.EX (V/m) @ t=2.6
1.109308916122747
% es.EY (V/m) @ t=2.6
0.7258884129028083
% es.EZ (V/m) @ t=2.6
-0.8361659243315529
% es.tEX (V/m) @ t=2.6
1.1093089161227478
% es.tEY (V/m) @ t=2.6
0
% es.tEZ (V/m) @ t=2.6
-0.8361659243315529
% es.Ex (V/m) @ t=2.6
1.109308916122747
% es.Ey (V/m) @ t=2.6
0.7258884129028083
% es.Ez (V/m) @ t=2.6
-0.8361659243315529
% es.tEx (V/m) @ t=2.6
1.1093089161227478
% es.tEy (V/m) @ t=2.6
0
% es.tEz (V/m) @ t=2.6
-0.8361659243315529
% V (V) @ t=2.6
0.046979790889869644
% es.normE (V/m) @ t=2.7
1.7497020756535258
% es.EX (V/m) @ t=2.7
1.154071313029398
% es.EY (V/m) @ t=2.7
0.7551639010400262
% es.EZ (V/m) @ t=2.7
-0.8698989107720543
% es.tEX (V/m) @ t=2.7
1.154071313029399
% es.tEY (V/m) @ t=2.7
0
% es.tEZ (V/m) @ t=2.7
-0.8698989107720543
% es.Ex (V/m) @ t=2.7
1.154071313029398
% es.Ey (V/m) @ t=2.7
0.7551639010400262
% es.Ez (V/m) @ t=2.7
-0.8698989107720543
% es.tEx (V/m) @ t=2.7
1.154071313029399
% es.tEy (V/m) @ t=2.7
0
% es.tEz (V/m) @ t=2.7
-0.8698989107720543
% V (V) @ t=2.7
0.04887764066073083
% es.normE (V/m) @ t=2.8
1.8178156558328753
% es.EX (V/m) @ t=2.8
1.199009137918699
% es.EY (V/m) @ t=2.8
0.7845506224371679
% es.EZ (V/m) @ t=2.8
-0.9037623479192227
% es.tEX (V/m) @ t=2.8
1.1990091379186998
% es.tEY (V/m) @ t=2.8
0
% es.tEZ (V/m) @ t=2.8
-0.9037623479192227
% es.Ex (V/m) @ t=2.8
1.199009137918699
% es.Ey (V/m) @ t=2.8
0.7845506224371679
% es.Ez (V/m) @ t=2.8
-0.9037623479192227
% es.tEx (V/m) @ t=2.8
1.1990091379186998
% es.tEy (V/m) @ t=2.8
0
% es.tEz (V/m) @ t=2.8
-0.9037623479192227
% V (V) @ t=2.8
0.05078341831176187
% es.normE (V/m) @ t=2.9
1.8861918461862734
% es.EX (V/m) @ t=2.9
1.2441223907906505
% es.EY (V/m) @ t=2.9
0.8140485770943187
% es.EZ (V/m) @ t=2.9
-0.9377562357730937
% es.tEX (V/m) @ t=2.9
1.2441223907906513
% es.tEY (V/m) @ t=2.9
0
% es.tEZ (V/m) @ t=2.9
-0.9377562357730937
% es.Ex (V/m) @ t=2.9
1.2441223907906505
% es.Ey (V/m) @ t=2.9
0.8140485770943187
% es.Ez (V/m) @ t=2.9
-0.9377562357730937
% es.tEx (V/m) @ t=2.9
1.2441223907906513
% es.tEy (V/m) @ t=2.9
0
% es.tEz (V/m) @ t=2.9
-0.9377562357730937
% V (V) @ t=2.9
0.05269712384296274
% es.normE (V/m) @ t=3
1.9548306467814434
% es.EX (V/m) @ t=3
1.289411071645194
% es.EY (V/m) @ t=3
0.8436577650112724
% es.EZ (V/m) @ t=3
-0.9718805743335857
% es.tEX (V/m) @ t=3
1.289411071645195
% es.tEY (V/m) @ t=3
0
% es.tEZ (V/m) @ t=3
-0.9718805743335857
% es.Ex (V/m) @ t=3
1.289411071645194
% es.Ey (V/m) @ t=3
0.8436577650112724
% es.Ez (V/m) @ t=3
-0.9718805743335857
% es.tEx (V/m) @ t=3
1.289411071645195
% es.tEy (V/m) @ t=3
0
% es.tEz (V/m) @ t=3
-0.9718805743335857
% V (V) @ t=3
0.05461875725433343
% es.normE (V/m) @ t=3.1
2.0220544297106717
% es.EX (V/m) @ t=3.1
1.333757945510369
% es.EY (V/m) @ t=3.1
0.872664312816049
% es.EZ (V/m) @ t=3.1
-1.0053018356299575
% es.tEX (V/m) @ t=3.1
1.3337579455103699
% es.tEY (V/m) @ t=3.1
0
% es.tEZ (V/m) @ t=3.1
-1.0053018356299575
% es.Ex (V/m) @ t=3.1
1.333757945510369
% es.Ey (V/m) @ t=3.1
0.872664312816049
% es.Ez (V/m) @ t=3.1
-1.0053018356299575
% es.tEx (V/m) @ t=3.1
1.3337579455103699
% es.tEy (V/m) @ t=3.1
0
% es.tEz (V/m) @ t=3.1
-1.0053018356299575
% V (V) @ t=3.1
0.056498592648280735
% es.normE (V/m) @ t=3.2
2.0866281836921554
% es.EX (V/m) @ t=3.2
1.3763405429564433
% es.EY (V/m) @ t=3.2
0.9005426918241497
% es.EZ (V/m) @ t=3.2
-1.0374064054344636
% es.tEX (V/m) @ t=3.2
1.3763405429564441
% es.tEY (V/m) @ t=3.2
0
% es.tEZ (V/m) @ t=3.2
-1.0374064054344636
% es.Ex (V/m) @ t=3.2
1.3763405429564433
% es.Ey (V/m) @ t=3.2
0.9005426918241497
% es.Ez (V/m) @ t=3.2
-1.0374064054344636
% es.tEx (V/m) @ t=3.2
1.3763405429564441
% es.tEy (V/m) @ t=3.2
0
% es.tEz (V/m) @ t=3.2
-1.0374064054344636
% V (V) @ t=3.2
0.05830002355289503
% es.normE (V/m) @ t=3.3
2.15023414839757
% es.EX (V/m) @ t=3.3
1.4182791701005453
% es.EY (V/m) @ t=3.3
0.9280087377600363
% es.EZ (V/m) @ t=3.3
-1.0690301029863178
% es.tEX (V/m) @ t=3.3
1.4182791701005462
% es.tEY (V/m) @ t=3.3
0
% es.tEZ (V/m) @ t=3.3
-1.0690301029863178
% es.Ex (V/m) @ t=3.3
1.4182791701005453
% es.Ey (V/m) @ t=3.3
0.9280087377600363
% es.Ez (V/m) @ t=3.3
-1.0690301029863178
% es.tEx (V/m) @ t=3.3
1.4182791701005462
% es.tEy (V/m) @ t=3.3
0
% es.tEz (V/m) @ t=3.3
-1.0690301029863178
% V (V) @ t=3.3
0.060072912556297396
% es.normE (V/m) @ t=3.4
2.2128723240399237
% es.EX (V/m) @ t=3.4
1.45957382694273
% es.EY (V/m) @ t=3.4
0.9550624506236449
% es.EZ (V/m) @ t=3.4
-1.100172928285545
% es.tEX (V/m) @ t=3.4
1.459573826942731
% es.tEY (V/m) @ t=3.4
0
% es.tEZ (V/m) @ t=3.4
-1.100172928285545
% es.Ex (V/m) @ t=3.4
1.45957382694273
% es.Ey (V/m) @ t=3.4
0.9550624506236449
% es.Ez (V/m) @ t=3.4
-1.100172928285545
% es.tEx (V/m) @ t=3.4
1.459573826942731
% es.tEy (V/m) @ t=3.4
0
% es.tEz (V/m) @ t=3.4
-1.100172928285545
% V (V) @ t=3.4
0.06181725965848783
% es.normE (V/m) @ t=3.5
2.2745427108874607
% es.EX (V/m) @ t=3.5
1.5002245134830252
% es.EY (V/m) @ t=3.5
0.9817038304150341
% es.EZ (V/m) @ t=3.5
-1.130834881332131
% es.tEX (V/m) @ t=3.5
1.500224513483026
% es.tEY (V/m) @ t=3.5
0
% es.tEZ (V/m) @ t=3.5
-1.130834881332131
% es.Ex (V/m) @ t=3.5
1.5002245134830252
% es.Ey (V/m) @ t=3.5
0.9817038304150341
% es.Ez (V/m) @ t=3.5
-1.130834881332131
% es.tEx (V/m) @ t=3.5
1.500224513483026
% es.tEy (V/m) @ t=3.5
0
% es.tEz (V/m) @ t=3.5
-1.130834881332131
% V (V) @ t=3.5
0.06353306485946632
% es.normE (V/m) @ t=3.6
2.334384498591231
% es.EX (V/m) @ t=3.6
1.539676057393038
% es.EY (V/m) @ t=3.6
1.0075493693715636
% es.EZ (V/m) @ t=3.6
-1.1605873538229936
% es.tEX (V/m) @ t=3.6
1.5396760573930388
% es.tEY (V/m) @ t=3.6
0
% es.tEZ (V/m) @ t=3.6
-1.1605873538229936
% es.Ex (V/m) @ t=3.6
1.539676057393038
% es.Ey (V/m) @ t=3.6
1.0075493693715636
% es.Ez (V/m) @ t=3.6
-1.1605873538229936
% es.tEx (V/m) @ t=3.6
1.5396760573930388
% es.tEy (V/m) @ t=3.6
0
% es.tEz (V/m) @ t=3.6
-1.1605873538229936
% V (V) @ t=3.6
0.06519965036025857
% es.normE (V/m) @ t=3.7
2.39172619830797
% es.EX (V/m) @ t=3.7
1.577495388013718
% es.EY (V/m) @ t=3.7
1.0322999064023612
% es.EZ (V/m) @ t=3.7
-1.18909600330122
% es.tEX (V/m) @ t=3.7
1.5774953880137188
% es.tEY (V/m) @ t=3.7
0
% es.tEZ (V/m) @ t=3.7
-1.18909600330122
% es.Ex (V/m) @ t=3.7
1.577495388013718
% es.Ey (V/m) @ t=3.7
1.0322999064023612
% es.Ez (V/m) @ t=3.7
-1.18909600330122
% es.tEx (V/m) @ t=3.7
1.5774953880137188
% es.tEy (V/m) @ t=3.7
0
% es.tEz (V/m) @ t=3.7
-1.18909600330122
% V (V) @ t=3.7
0.06680088612777324
% es.normE (V/m) @ t=3.8
2.4474074216957424
% es.EX (V/m) @ t=3.8
1.6142240056838935
% es.EY (V/m) @ t=3.8
1.0563295047894492
% es.EZ (V/m) @ t=3.8
-1.2167788829179784
% es.tEX (V/m) @ t=3.8
1.6142240056838943
% es.tEY (V/m) @ t=3.8
0
% es.tEZ (V/m) @ t=3.8
-1.2167788829179784
% es.Ex (V/m) @ t=3.8
1.6142240056838935
% es.Ey (V/m) @ t=3.8
1.0563295047894492
% es.Ez (V/m) @ t=3.8
-1.2167788829179784
% es.tEx (V/m) @ t=3.8
1.6142240056838943
% es.tEy (V/m) @ t=3.8
0
% es.tEz (V/m) @ t=3.8
-1.2167788829179784
% V (V) @ t=3.8
0.06835694073774104
% es.normE (V/m) @ t=3.9
2.5014281687875752
% es.EX (V/m) @ t=3.9
1.6498619104035637
% es.EY (V/m) @ t=3.9
1.0796381645329411
% es.EZ (V/m) @ t=3.9
-1.243635992673294
% es.tEX (V/m) @ t=3.9
1.6498619104035654
% es.tEY (V/m) @ t=3.9
0
% es.tEZ (V/m) @ t=3.9
-1.243635992673294
% es.Ex (V/m) @ t=3.9
1.6498619104035637
% es.Ey (V/m) @ t=3.9
1.0796381645329411
% es.Ez (V/m) @ t=3.9
-1.243635992673294
% es.tEx (V/m) @ t=3.9
1.6498619104035654
% es.tEy (V/m) @ t=3.9
0
% es.tEz (V/m) @ t=3.9
-1.243635992673294
% V (V) @ t=3.9
0.06986781419016197
% es.normE (V/m) @ t=4
2.5537884396574984
% es.EX (V/m) @ t=4
1.684409102172589
% es.EY (V/m) @ t=4
1.1022258856327074
% es.EZ (V/m) @ t=4
-1.269667332567053
% es.tEX (V/m) @ t=4
1.684409102172589
% es.tEY (V/m) @ t=4
0
% es.tEZ (V/m) @ t=4
-1.269667332567053
% es.Ex (V/m) @ t=4
1.684409102172589
% es.Ey (V/m) @ t=4
1.1022258856327074
% es.Ez (V/m) @ t=4
-1.269667332567053
% es.tEx (V/m) @ t=4
1.684409102172589
% es.tEy (V/m) @ t=4
0
% es.tEz (V/m) @ t=4
-1.269667332567053
% V (V) @ t=4
0.071333506485036
% es.normE (V/m) @ t=4.1
2.6044146044718963
% es.EX (V/m) @ t=4.1
1.7178086231079917
% es.EY (V/m) @ t=4.1
1.1240688717711436
% es.EZ (V/m) @ t=4.1
-1.2948367221641632
% es.tEX (V/m) @ t=4.1
1.7178086231079917
% es.tEY (V/m) @ t=4.1
0
% es.tEZ (V/m) @ t=4.1
-1.2948367221641632
% es.Ex (V/m) @ t=4.1
1.7178086231079917
% es.Ey (V/m) @ t=4.1
1.1240688717711436
% es.Ez (V/m) @ t=4.1
-1.2948367221641632
% es.tEx (V/m) @ t=4.1
1.7178086231079917
% es.tEy (V/m) @ t=4.1
0
% es.tEz (V/m) @ t=4.1
-1.2948367221641632
% V (V) @ t=4.1
0.07274971718342806
% es.normE (V/m) @ t=4.2
2.6532499874272033
% es.EX (V/m) @ t=4.2
1.7500166305752085
% es.EY (V/m) @ t=4.2
1.1451488060232613
% es.EZ (V/m) @ t=4.2
-1.3191163120167104
% es.tEX (V/m) @ t=4.2
1.7500166305752085
% es.tEY (V/m) @ t=4.2
0
% es.tEZ (V/m) @ t=4.2
-1.3191163120167104
% es.Ex (V/m) @ t=4.2
1.7500166305752085
% es.Ey (V/m) @ t=4.2
1.1451488060232613
% es.Ez (V/m) @ t=4.2
-1.3191163120167104
% es.tEx (V/m) @ t=4.2
1.7500166305752085
% es.tEy (V/m) @ t=4.2
0
% es.tEz (V/m) @ t=4.2
-1.3191163120167104
% V (V) @ t=4.2
0.0741131360750162
% es.normE (V/m) @ t=4.3
2.700365895367936
% es.EX (V/m) @ t=4.3
1.7810882854035341
% es.EY (V/m) @ t=4.3
1.1654887339194318
% es.EZ (V/m) @ t=4.3
-1.3425411410464996
% es.tEX (V/m) @ t=4.3
1.781088285403536
% es.tEY (V/m) @ t=4.3
0
% es.tEZ (V/m) @ t=4.3
-1.3425411410464996
% es.Ex (V/m) @ t=4.3
1.7810882854035341
% es.Ey (V/m) @ t=4.3
1.1654887339194318
% es.Ez (V/m) @ t=4.3
-1.3425411410464996
% es.tEx (V/m) @ t=4.3
1.781088285403536
% es.tEy (V/m) @ t=4.3
0
% es.tEz (V/m) @ t=4.3
-1.3425411410464996
% V (V) @ t=4.3
0.07542792791743914
% es.normE (V/m) @ t=4.4
2.7457623283158004
% es.EX (V/m) @ t=4.4
1.8110235875931213
% es.EY (V/m) @ t=4.4
1.1850886554597952
% es.EZ (V/m) @ t=4.4
-1.3651112092535698
% es.tEX (V/m) @ t=4.4
1.8110235875931213
% es.tEY (V/m) @ t=4.4
0
% es.tEZ (V/m) @ t=4.4
-1.3651112092535698
% es.Ex (V/m) @ t=4.4
1.8110235875931213
% es.Ey (V/m) @ t=4.4
1.1850886554597952
% es.Ez (V/m) @ t=4.4
-1.3651112092535698
% es.tEx (V/m) @ t=4.4
1.8110235875931213
% es.tEy (V/m) @ t=4.4
0
% es.tEz (V/m) @ t=4.4
-1.3651112092535698
% V (V) @ t=4.4
0.07669409271069688
% es.normE (V/m) @ t=4.5
2.7894392863008846
% es.EX (V/m) @ t=4.5
1.8398225371439878
% es.EY (V/m) @ t=4.5
1.2039485706442026
% es.EZ (V/m) @ t=4.5
-1.3868265166379246
% es.tEX (V/m) @ t=4.5
1.8398225371439896
% es.tEY (V/m) @ t=4.5
0
% es.tEZ (V/m) @ t=4.5
-1.3868265166379246
% es.Ex (V/m) @ t=4.5
1.8398225371439878
% es.Ey (V/m) @ t=4.5
1.2039485706442026
% es.Ez (V/m) @ t=4.5
-1.3868265166379246
% es.tEx (V/m) @ t=4.5
1.8398225371439896
% es.tEy (V/m) @ t=4.5
0
% es.tEz (V/m) @ t=4.5
-1.3868265166379246
% V (V) @ t=4.5
0.07791163045478942
% es.normE (V/m) @ t=4.6
2.831466117810823
% es.EX (V/m) @ t=4.6
1.867534013058295
% es.EY (V/m) @ t=4.6
1.222095425188268
% es.EZ (V/m) @ t=4.6
-1.407721382606816
% es.tEX (V/m) @ t=4.6
1.8675340130582967
% es.tEY (V/m) @ t=4.6
0
% es.tEZ (V/m) @ t=4.6
-1.407721382606816
% es.Ex (V/m) @ t=4.6
1.867534013058295
% es.Ey (V/m) @ t=4.6
1.222095425188268
% es.Ez (V/m) @ t=4.6
-1.407721382606816
% es.tEx (V/m) @ t=4.6
1.8675340130582967
% es.tEy (V/m) @ t=4.6
0
% es.tEz (V/m) @ t=4.6
-1.407721382606816
% V (V) @ t=4.6
0.07908331764538695
% es.normE (V/m) @ t=4.7
2.8718954922933797
% es.EX (V/m) @ t=4.7
1.8941951384614377
% es.EY (V/m) @ t=4.7
1.2395496841001474
% es.EZ (V/m) @ t=4.7
-1.4278218724152758
% es.tEX (V/m) @ t=4.7
1.8941951384614395
% es.tEY (V/m) @ t=4.7
0
% es.tEZ (V/m) @ t=4.7
-1.4278218724152758
% es.Ex (V/m) @ t=4.7
1.8941951384614377
% es.Ey (V/m) @ t=4.7
1.2395496841001474
% es.Ez (V/m) @ t=4.7
-1.4278218724152758
% es.tEx (V/m) @ t=4.7
1.8941951384614395
% es.tEy (V/m) @ t=4.7
0
% es.tEz (V/m) @ t=4.7
-1.4278218724152758
% V (V) @ t=4.7
0.08021126300388247
% es.normE (V/m) @ t=4.8
2.9106607257338517
% es.EX (V/m) @ t=4.8
1.919758912343129
% es.EY (V/m) @ t=4.8
1.2562854369520462
% es.EZ (V/m) @ t=4.8
-1.4470949852503345
% es.tEX (V/m) @ t=4.8
1.9197589123431307
% es.tEY (V/m) @ t=4.8
0
% es.tEZ (V/m) @ t=4.8
-1.4470949852503345
% es.Ex (V/m) @ t=4.8
1.919758912343129
% es.Ey (V/m) @ t=4.8
1.2562854369520462
% es.Ez (V/m) @ t=4.8
-1.4470949852503345
% es.tEx (V/m) @ t=4.8
1.9197589123431307
% es.tEy (V/m) @ t=4.8
0
% es.tEz (V/m) @ t=4.8
-1.4470949852503345
% V (V) @ t=4.8
0.08129279671100338
% es.normE (V/m) @ t=4.9
2.947761818129738
% es.EX (V/m) @ t=4.9
1.9442253347034786
% es.EY (V/m) @ t=4.9
1.2723026837440479
% es.EZ (V/m) @ t=4.9
-1.4655407211119105
% es.tEX (V/m) @ t=4.9
1.9442253347034804
% es.tEY (V/m) @ t=4.9
0
% es.tEZ (V/m) @ t=4.9
-1.4655407211119105
% es.Ex (V/m) @ t=4.9
1.9442253347034786
% es.Ey (V/m) @ t=4.9
1.2723026837440479
% es.Ez (V/m) @ t=4.9
-1.4655407211119105
% es.tEx (V/m) @ t=4.9
1.9442253347034804
% es.tEy (V/m) @ t=4.9
0
% es.tEz (V/m) @ t=4.9
-1.4655407211119105
% V (V) @ t=4.9
0.08232791876674975
% es.normE (V/m) @ t=5
2.983198769478517
% es.EX (V/m) @ t=5
1.9675944055422878
% es.EY (V/m) @ t=5
1.2876014244760992
% es.EZ (V/m) @ t=5
-1.4831590799999859
% es.tEX (V/m) @ t=5
1.9675944055422878
% es.tEY (V/m) @ t=5
0
% es.tEZ (V/m) @ t=5
-1.4831590799999859
% es.Ex (V/m) @ t=5
1.9675944055422878
% es.Ey (V/m) @ t=5
1.2876014244760992
% es.Ez (V/m) @ t=5
-1.4831590799999859
% es.tEx (V/m) @ t=5
1.9675944055422878
% es.tEy (V/m) @ t=5
0
% es.tEz (V/m) @ t=5
-1.4831590799999859
% V (V) @ t=5
0.08331662917112152
% es.normE (V/m) @ t=5.1
3.0168935158893215
% es.EX (V/m) @ t=5.1
1.9898156676118859
% es.EY (V/m) @ t=5.1
1.302146982943725
% es.EZ (V/m) @ t=5.1
-1.4999112017774259
% es.tEX (V/m) @ t=5.1
1.9898156676118859
% es.tEY (V/m) @ t=5.1
0
% es.tEZ (V/m) @ t=5.1
-1.4999112017774259
% es.Ex (V/m) @ t=5.1
1.9898156676118859
% es.Ey (V/m) @ t=5.1
1.302146982943725
% es.Ez (V/m) @ t=5.1
-1.4999112017774259
% es.tEx (V/m) @ t=5.1
1.9898156676118859
% es.tEy (V/m) @ t=5.1
0
% es.tEz (V/m) @ t=5.1
-1.4999112017774259
% V (V) @ t=5.1
0.08425702357564045
% es.normE (V/m) @ t=5.2
3.048759574178003
% es.EX (V/m) @ t=5.2
2.0108332217866103
% es.EY (V/m) @ t=5.2
1.315900943069689
% es.EZ (V/m) @ t=5.2
-1.5157540351917902
% es.tEX (V/m) @ t=5.2
2.010833221786612
% es.tEY (V/m) @ t=5.2
0
% es.tEZ (V/m) @ t=5.2
-1.5157540351917902
% es.Ex (V/m) @ t=5.2
2.0108332217866103
% es.Ey (V/m) @ t=5.2
1.315900943069689
% es.Ez (V/m) @ t=5.2
-1.5157540351917902
% es.tEx (V/m) @ t=5.2
2.010833221786612
% es.tEy (V/m) @ t=5.2
0
% es.tEz (V/m) @ t=5.2
-1.5157540351917902
% V (V) @ t=5.2
0.08514699224542861
% es.normE (V/m) @ t=5.3
3.0788465556303155
% es.EX (V/m) @ t=5.3
2.030679134736543
% es.EY (V/m) @ t=5.3
1.3288853423306755
% es.EZ (V/m) @ t=5.3
-1.5307122766994077
% es.tEX (V/m) @ t=5.3
2.0306791347365447
% es.tEY (V/m) @ t=5.3
0
% es.tEZ (V/m) @ t=5.3
-1.5307122766994077
% es.Ex (V/m) @ t=5.3
2.030679134736543
% es.Ey (V/m) @ t=5.3
1.3288853423306755
% es.Ez (V/m) @ t=5.3
-1.5307122766994077