% Model:              1x1--2 - Copy1.mph
% Version:            COMSOL 6.1.0.252
% Date:               Mar 28 2023, 11:06
% Dimension:          0
% Nodes:              14017
% Expressions:        14017
% Description:        Electric field norm, Electric field, X component, Electric field, Y component, Electric field, Z component, Tangential electric field, X component, Tangential electric field, Y component, Tangential electric field, Z component, Electric field, x component, Electric field, y component, Electric field, z component, Tangential electric field, x component, Tangential electric field, y component, Tangential electric field, z component, Electric potential
% Length unit:        mm
% x
2
% y
12.2
% z
1.33
% es.normE (V/m) @ t=0
0.9730667326073412
% es.EX (V/m) @ t=0
0.5794923663440912
% es.EY (V/m) @ t=0
0.08479880467226408
% es.EZ (V/m) @ t=0
-0.7645481665246128
% es.tEX (V/m) @ t=0
0.5794923663440841
% es.tEY (V/m) @ t=0
0
% es.tEZ (V/m) @ t=0
-0.7645481665246168
% es.Ex (V/m) @ t=0
0.5794923663440912
% es.Ey (V/m) @ t=0
0.08479880467226408
% es.Ez (V/m) @ t=0
-0.7645481665246128
% es.tEx (V/m) @ t=0
0.5794923663440841
% es.tEy (V/m) @ t=0
0
% es.tEz (V/m) @ t=0
-0.7645481665246168
% V (V) @ t=0
0.010608358067306095
% es.normE (V/m) @ t=0.1
1.0049007525738474
% es.EX (V/m) @ t=0.1
0.5984504000137107
% es.EY (V/m) @ t=0.1
0.08757684715059355
% es.EZ (V/m) @ t=0.1
-0.7895594453082273
% es.tEX (V/m) @ t=0.1
0.5984504000137036
% es.tEY (V/m) @ t=0.1
0
% es.tEZ (V/m) @ t=0.1
-0.7895594453082264
% es.Ex (V/m) @ t=0.1
0.5984504000137107
% es.Ey (V/m) @ t=0.1
0.08757684715059355
% es.Ez (V/m) @ t=0.1
-0.7895594453082273
% es.tEx (V/m) @ t=0.1
0.5984504000137036
% es.tEy (V/m) @ t=0.1
0
% es.tEz (V/m) @ t=0.1
-0.7895594453082264
% V (V) @ t=0.1
0.010955180579416957
% es.normE (V/m) @ t=0.2
1.0713288299795007
% es.EX (V/m) @ t=0.2
0.6380100350111189
% es.EY (V/m) @ t=0.2
0.09337693682857573
% es.EZ (V/m) @ t=0.2
-0.8417496551243784
% es.tEX (V/m) @ t=0.2
0.6380100350111118
% es.tEY (V/m) @ t=0.2
0
% es.tEZ (V/m) @ t=0.2
-0.8417496551243815
% es.Ex (V/m) @ t=0.2
0.6380100350111189
% es.Ey (V/m) @ t=0.2
0.09337693682857573
% es.Ez (V/m) @ t=0.2
-0.8417496551243784
% es.tEx (V/m) @ t=0.2
0.6380100350111118
% es.tEy (V/m) @ t=0.2
0
% es.tEz (V/m) @ t=0.2
-0.8417496551243815
% V (V) @ t=0.2
0.011678705459305133
% es.normE (V/m) @ t=0.3
1.1409571295842236
% es.EX (V/m) @ t=0.3
0.6794758514144803
% es.EY (V/m) @ t=0.3
0.09944632890138205
% es.EZ (V/m) @ t=0.3
-0.8964568835076436
% es.tEX (V/m) @ t=0.3
0.6794758514144803
% es.tEY (V/m) @ t=0.3
0
% es.tEZ (V/m) @ t=0.3
-0.8964568835076401
% es.Ex (V/m) @ t=0.3
0.6794758514144803
% es.Ey (V/m) @ t=0.3
0.09944632890138205
% es.Ez (V/m) @ t=0.3
-0.8964568835076436
% es.tEx (V/m) @ t=0.3
0.6794758514144803
% es.tEy (V/m) @ t=0.3
0
% es.tEz (V/m) @ t=0.3
-0.8964568835076401
% V (V) @ t=0.3
0.012437697525139142
% es.normE (V/m) @ t=0.4
1.2150730850955178
% es.EX (V/m) @ t=0.4
0.7236147455802602
% es.EY (V/m) @ t=0.4
0.10589195429794751
% es.EZ (V/m) @ t=0.4
-0.9546940935734951
% es.tEX (V/m) @ t=0.4
0.7236147455802531
% es.tEY (V/m) @ t=0.4
0
% es.tEZ (V/m) @ t=0.4
-0.9546940935734982
% es.Ex (V/m) @ t=0.4
0.7236147455802602
% es.Ey (V/m) @ t=0.4
0.10589195429794751
% es.Ez (V/m) @ t=0.4
-0.9546940935734951
% es.tEx (V/m) @ t=0.4
0.7236147455802531
% es.tEy (V/m) @ t=0.4
0
% es.tEz (V/m) @ t=0.4
-0.9546940935734982
% V (V) @ t=0.4
0.013246510216249943
% es.normE (V/m) @ t=0.5
1.2939814547380244
% es.EX (V/m) @ t=0.5
0.7706073058303033
% es.EY (V/m) @ t=0.5
0.11276544130532695
% es.EZ (V/m) @ t=0.5
-1.0166940076393867
% es.tEX (V/m) @ t=0.5
0.7706073058303033
% es.tEY (V/m) @ t=0.5
0
% es.tEZ (V/m) @ t=0.5
-1.0166940076393818
% es.Ex (V/m) @ t=0.5
0.7706073058303033
% es.Ey (V/m) @ t=0.5
0.11276544130532695
% es.Ez (V/m) @ t=0.5
-1.0166940076393867
% es.tEx (V/m) @ t=0.5
0.7706073058303033
% es.tEy (V/m) @ t=0.5
0
% es.tEz (V/m) @ t=0.5
-1.0166940076393818
% V (V) @ t=0.5
0.014106952701420027
% es.normE (V/m) @ t=0.6
1.3753991158775771
% es.EX (V/m) @ t=0.6
0.8190941374205778
% es.EY (V/m) @ t=0.6
0.11986013601602963
% es.EZ (V/m) @ t=0.6
-1.0806648173705837
% es.tEX (V/m) @ t=0.6
0.8190941374205636
% es.tEY (V/m) @ t=0.6
0
% es.tEZ (V/m) @ t=0.6
-1.0806648173705744
% es.Ex (V/m) @ t=0.6
0.8190941374205778
% es.Ey (V/m) @ t=0.6
0.11986013601602963
% es.Ez (V/m) @ t=0.6
-1.0806648173705837
% es.tEx (V/m) @ t=0.6
0.8190941374205636
% es.tEy (V/m) @ t=0.6
0
% es.tEz (V/m) @ t=0.6
-1.0806648173705744
% V (V) @ t=0.6
0.014994598573095569
% es.normE (V/m) @ t=0.7
1.461323894090844
% es.EX (V/m) @ t=0.7
0.8702651036582694
% es.EY (V/m) @ t=0.7
0.1273475076446431
% es.EZ (V/m) @ t=0.7
-1.1481769413093477
% es.tEX (V/m) @ t=0.7
0.8702651036582552
% es.tEY (V/m) @ t=0.7
0
% es.tEZ (V/m) @ t=0.7
-1.148176941309349
% es.Ex (V/m) @ t=0.7
0.8702651036582694
% es.Ey (V/m) @ t=0.7
0.1273475076446431
% es.Ez (V/m) @ t=0.7
-1.1481769413093477
% es.tEx (V/m) @ t=0.7
0.8702651036582552
% es.tEy (V/m) @ t=0.7
0
% es.tEz (V/m) @ t=0.7
-1.148176941309349
% V (V) @ t=0.7
0.015931387120126813
% es.normE (V/m) @ t=0.8
1.5508837246810017
% es.EX (V/m) @ t=0.8
0.923600861684104
% es.EY (V/m) @ t=0.8
0.13515157864897143
% es.EZ (V/m) @ t=0.8
-1.2185451842297645
% es.tEX (V/m) @ t=0.8
0.9236008616840898
% es.tEY (V/m) @ t=0.8
0
% es.tEZ (V/m) @ t=0.8
-1.2185451842297486
% es.Ex (V/m) @ t=0.8
0.923600861684104
% es.Ey (V/m) @ t=0.8
0.13515157864897143
% es.Ez (V/m) @ t=0.8
-1.2185451842297645
% es.tEx (V/m) @ t=0.8
0.9236008616840898
% es.tEy (V/m) @ t=0.8
0
% es.tEz (V/m) @ t=0.8
-1.2185451842297486
% V (V) @ t=0.8
0.016907809915819857
% es.normE (V/m) @ t=0.9
1.6451423079741265
% es.EX (V/m) @ t=0.9
0.9797347778102861
% es.EY (V/m) @ t=0.9
0.14336786384997735
% es.EZ (V/m) @ t=0.9
-1.292604549607292
% es.tEX (V/m) @ t=0.9
0.9797347778102719
% es.tEY (V/m) @ t=0.9
0
% es.tEZ (V/m) @ t=0.9
-1.2926045496072884
% es.Ex (V/m) @ t=0.9
0.9797347778102861
% es.Ey (V/m) @ t=0.9
0.14336786384997735
% es.Ez (V/m) @ t=0.9
-1.292604549607292
% es.tEx (V/m) @ t=0.9
0.9797347778102719
% es.tEy (V/m) @ t=0.9
0
% es.tEz (V/m) @ t=0.9
-1.2926045496072884
% V (V) @ t=0.9
0.01793529322486246
% es.normE (V/m) @ t=1
1.7445770239879868
% es.EX (V/m) @ t=1
1.0389511016460666
% es.EY (V/m) @ t=1
0.1520392295162969
% es.EZ (V/m) @ t=1
-1.3707297801573786
% es.tEX (V/m) @ t=1
1.0389511016460524
% es.tEY (V/m) @ t=1
0
% es.tEZ (V/m) @ t=1
-1.3707297801573848
% es.Ex (V/m) @ t=1
1.0389511016460666
% es.Ey (V/m) @ t=1
0.1520392295162969
% es.Ez (V/m) @ t=1
-1.3707297801573786
% es.tEx (V/m) @ t=1
1.0389511016460524
% es.tEy (V/m) @ t=1
0
% es.tEz (V/m) @ t=1
-1.3707297801573848
% V (V) @ t=1
0.019018965061187422
% es.normE (V/m) @ t=1.1
1.8486885916862443
% es.EX (V/m) @ t=1.1
1.1009525428611475
% es.EY (V/m) @ t=1.1
0.16112084277301086
% es.EZ (V/m) @ t=1.1
-1.4525289408271487
% es.tEX (V/m) @ t=1.1
1.1009525428611475
% es.tEY (V/m) @ t=1.1
0
% es.tEZ (V/m) @ t=1.1
-1.4525289408271362
% es.Ex (V/m) @ t=1.1
1.1009525428611475
% es.Ey (V/m) @ t=1.1
0.16112084277301086
% es.Ez (V/m) @ t=1.1
-1.4525289408271487
% es.tEx (V/m) @ t=1.1
1.1009525428611475
% es.tEy (V/m) @ t=1.1
0
% es.tEz (V/m) @ t=1.1
-1.4525289408271362
% V (V) @ t=1.1
0.02015346214932826
% es.normE (V/m) @ t=1.2
1.9582485569147974
% es.EX (V/m) @ t=1.2
1.166198866340256
% es.EY (V/m) @ t=1.2
0.1706720477021566
% es.EZ (V/m) @ t=1.2
-1.5386103615699458
% es.tEX (V/m) @ t=1.2
1.1661988663402418
% es.tEY (V/m) @ t=1.2
0
% es.tEZ (V/m) @ t=1.2
-1.5386103615699316
% es.Ex (V/m) @ t=1.2
1.166198866340256
% es.Ey (V/m) @ t=1.2
0.1706720477021566
% es.Ez (V/m) @ t=1.2
-1.5386103615699458
% es.tEx (V/m) @ t=1.2
1.1661988663402418
% es.tEy (V/m) @ t=1.2
0
% es.tEz (V/m) @ t=1.2
-1.5386103615699316
% V (V) @ t=1.2
0.021347672347038157
% es.normE (V/m) @ t=1.3
2.0731583954782993
% es.EX (V/m) @ t=1.3
1.2346313614514557
% es.EY (V/m) @ t=1.3
0.18068526623787662
% es.EZ (V/m) @ t=1.3
-1.6288963604287732
% es.tEX (V/m) @ t=1.3
1.2346313614514557
% es.tEY (V/m) @ t=1.3
0
% es.tEZ (V/m) @ t=1.3
-1.6288963604287794
% es.Ex (V/m) @ t=1.3
1.2346313614514557
% es.Ey (V/m) @ t=1.3
0.18068526623787662
% es.Ez (V/m) @ t=1.3
-1.6288963604287732
% es.tEx (V/m) @ t=1.3
1.2346313614514557
% es.tEy (V/m) @ t=1.3
0
% es.tEz (V/m) @ t=1.3
-1.6288963604287794
% V (V) @ t=1.3
0.02260046070086127
% es.normE (V/m) @ t=1.4
2.1932799713644906
% es.EX (V/m) @ t=1.4
1.306167712510529
% es.EY (V/m) @ t=1.4
0.19114988177117187
% es.EZ (V/m) @ t=1.4
-1.7232780210114864
% es.tEX (V/m) @ t=1.4
1.306167712510529
% es.tEY (V/m) @ t=1.4
0
% es.tEZ (V/m) @ t=1.4
-1.7232780210114935
% es.Ex (V/m) @ t=1.4
1.306167712510529
% es.Ey (V/m) @ t=1.4
0.19114988177117187
% es.Ez (V/m) @ t=1.4
-1.7232780210114864
% es.tEx (V/m) @ t=1.4
1.306167712510529
% es.tEy (V/m) @ t=1.4
0
% es.tEz (V/m) @ t=1.4
-1.7232780210114935
% V (V) @ t=1.4
0.023910235449257553
% es.normE (V/m) @ t=1.5
2.3186475094141783
% es.EX (V/m) @ t=1.5
1.3808281118008168
% es.EY (V/m) @ t=1.5
0.2020741434217328
% es.EZ (V/m) @ t=1.5
-1.8217808201752765
% es.tEX (V/m) @ t=1.5
1.3808281118008168
% es.tEY (V/m) @ t=1.5
0
% es.tEZ (V/m) @ t=1.5
-1.8217808201752614
% es.Ex (V/m) @ t=1.5
1.3808281118008168
% es.Ey (V/m) @ t=1.5
0.2020741434217328
% es.Ez (V/m) @ t=1.5
-1.8217808201752765
% es.tEx (V/m) @ t=1.5
1.3808281118008168
% es.tEy (V/m) @ t=1.5
0
% es.tEz (V/m) @ t=1.5
-1.8217808201752614
% V (V) @ t=1.5
0.02527705179863271
% es.normE (V/m) @ t=1.6
2.4492447848963232
% es.EX (V/m) @ t=1.6
1.4586029869090744
% es.EY (V/m) @ t=1.6
0.213454140587654
% es.EZ (V/m) @ t=1.6
-1.9243926802862958
% es.tEX (V/m) @ t=1.6
1.4586029869090744
% es.tEY (V/m) @ t=1.6
0
% es.tEZ (V/m) @ t=1.6
-1.924392680286303
% es.Ex (V/m) @ t=1.6
1.4586029869090744
% es.Ey (V/m) @ t=1.6
0.213454140587654
% es.Ez (V/m) @ t=1.6
-1.9243926802862958
% es.tEx (V/m) @ t=1.6
1.4586029869090744
% es.tEy (V/m) @ t=1.6
0
% es.tEz (V/m) @ t=1.6
-1.924392680286303
% V (V) @ t=1.6
0.026700883577675732
% es.normE (V/m) @ t=1.7
2.5850717978107434
% es.EX (V/m) @ t=1.7
1.539492337835366
% es.EY (V/m) @ t=1.7
0.22528987326888306
% es.EZ (V/m) @ t=1.7
-2.031113601344572
% es.tEX (V/m) @ t=1.7
1.5394923378353518
% es.tEY (V/m) @ t=1.7
0
% es.tEZ (V/m) @ t=1.7
-2.0311136013445648
% es.Ex (V/m) @ t=1.7
1.539492337835366
% es.Ey (V/m) @ t=1.7
0.22528987326888306
% es.Ez (V/m) @ t=1.7
-2.031113601344572
% es.tEx (V/m) @ t=1.7
1.5394923378353518
% es.tEy (V/m) @ t=1.7
0
% es.tEz (V/m) @ t=1.7
-2.0311136013445648
% V (V) @ t=1.7
0.028181730786386642
% es.normE (V/m) @ t=1.8
2.726128548157203
% es.EX (V/m) @ t=1.8
1.623496164579663
% es.EY (V/m) @ t=1.8
0.23758134146547327
% es.EZ (V/m) @ t=1.8
-2.141943583350076
% es.tEX (V/m) @ t=1.8
1.6234961645796488
% es.tEY (V/m) @ t=1.8
0
% es.tEZ (V/m) @ t=1.8
-2.1419435833500646
% es.Ex (V/m) @ t=1.8
1.623496164579663
% es.Ey (V/m) @ t=1.8
0.23758134146547327
% es.Ez (V/m) @ t=1.8
-2.141943583350076
% es.tEx (V/m) @ t=1.8
1.6234961645796488
% es.tEy (V/m) @ t=1.8
0
% es.tEz (V/m) @ t=1.8
-2.1419435833500646
% V (V) @ t=1.8
0.029719593424765416
% es.normE (V/m) @ t=1.9
2.8724150359354743
% es.EX (V/m) @ t=1.9
1.7106144671418946
% es.EY (V/m) @ t=1.9
0.25032854517740866
% es.EZ (V/m) @ t=1.9
-2.2568826263028408
% es.tEX (V/m) @ t=1.9
1.7106144671418946
% es.tEY (V/m) @ t=1.9
0
% es.tEZ (V/m) @ t=1.9
-2.2568826263028328
% es.Ex (V/m) @ t=1.9
1.7106144671418946
% es.Ey (V/m) @ t=1.9
0.25032854517740866
% es.Ez (V/m) @ t=1.9
-2.2568826263028408
% es.tEx (V/m) @ t=1.9
1.7106144671418946
% es.tEy (V/m) @ t=1.9
0
% es.tEz (V/m) @ t=1.9
-2.2568826263028328
% V (V) @ t=1.9
0.031314471492812086
% es.normE (V/m) @ t=2
3.0220645291856894
% es.EX (V/m) @ t=2
1.799735725405668
% es.EY (V/m) @ t=2
0.2633638882461957
% es.EZ (V/m) @ t=2
-2.374465339741275
% es.tEX (V/m) @ t=2
1.7997357254056396
% es.tEY (V/m) @ t=2
0
% es.tEZ (V/m) @ t=2
-2.374465339741267
% es.Ex (V/m) @ t=2
1.799735725405668
% es.Ey (V/m) @ t=2
0.2633638882461957
% es.Ez (V/m) @ t=2
-2.374465339741275
% es.tEx (V/m) @ t=2
1.7997357254056396
% es.tEy (V/m) @ t=2
0
% es.tEz (V/m) @ t=2
-2.374465339741267
% V (V) @ t=2
0.032946310735769174
% es.normE (V/m) @ t=2.1
3.1731004000304552
% es.EX (V/m) @ t=2.1
1.8896829831585151
% es.EY (V/m) @ t=2.1
0.27650990799077757
% es.EZ (V/m) @ t=2.1
-2.4931400644723523
% es.tEX (V/m) @ t=2.1
1.8896829831585435
% es.tEY (V/m) @ t=2.1
0
% es.tEZ (V/m) @ t=2.1
-2.493140064472332
% es.Ex (V/m) @ t=2.1
1.8896829831585151
% es.Ey (V/m) @ t=2.1
0.27650990799077757
% es.Ez (V/m) @ t=2.1
-2.4931400644723523
% es.tEx (V/m) @ t=2.1
1.8896829831585435
% es.tEy (V/m) @ t=2.1
0
% es.tEz (V/m) @ t=2.1
-2.493140064472332
% V (V) @ t=2.1
0.03459387628854555
% es.normE (V/m) @ t=2.2
3.3278238536890115
% es.EX (V/m) @ t=2.2
1.9818264616211678
% es.EY (V/m) @ t=2.2
0.28997320779097535
% es.EZ (V/m) @ t=2.2
-2.6147132537278868
% es.tEX (V/m) @ t=2.2
1.9818264616211678
% es.tEY (V/m) @ t=2.2
0
% es.tEZ (V/m) @ t=2.2
-2.614713253727878
% es.Ex (V/m) @ t=2.2
1.9818264616211678
% es.Ey (V/m) @ t=2.2
0.28997320779097535
% es.Ez (V/m) @ t=2.2
-2.6147132537278868
% es.tEx (V/m) @ t=2.2
1.9818264616211678
% es.tEy (V/m) @ t=2.2
0
% es.tEz (V/m) @ t=2.2
-2.614713253727878
% V (V) @ t=2.2
0.03628188993981953
% es.normE (V/m) @ t=2.3
3.486234890275437
% es.EX (V/m) @ t=2.3
2.076166160793605
% es.EY (V/m) @ t=2.3
0.30375378764688854
% es.EZ (V/m) @ t=2.3
-2.7391849075079904
% es.tEX (V/m) @ t=2.3
2.076166160793605
% es.tEY (V/m) @ t=2.3
0
% es.tEZ (V/m) @ t=2.3
-2.7391849075079833
% es.Ex (V/m) @ t=2.3
2.076166160793605
% es.Ey (V/m) @ t=2.3
0.30375378764688854
% es.Ez (V/m) @ t=2.3
-2.7391849075079904
% es.tEx (V/m) @ t=2.3
2.076166160793605
% es.tEy (V/m) @ t=2.3
0
% es.tEz (V/m) @ t=2.3
-2.7391849075079833
% V (V) @ t=2.3
0.03801035168959112
% es.normE (V/m) @ t=2.4
3.6483335099101453
% es.EX (V/m) @ t=2.4
2.172702080675755
% es.EY (V/m) @ t=2.4
0.31785164755853756
% es.EZ (V/m) @ t=2.4
-2.8665550258126267
% es.tEX (V/m) @ t=2.4
2.1727020806756983
% es.tEY (V/m) @ t=2.4
0
% es.tEZ (V/m) @ t=2.4
-2.866555025812623
% es.Ex (V/m) @ t=2.4
2.172702080675755
% es.Ey (V/m) @ t=2.4
0.31785164755853756
% es.Ez (V/m) @ t=2.4
-2.8665550258126267
% es.tEx (V/m) @ t=2.4
2.1727020806756983
% es.tEy (V/m) @ t=2.4
0
% es.tEz (V/m) @ t=2.4
-2.866555025812623
% V (V) @ t=2.4
0.0397792615378603
% es.normE (V/m) @ t=2.5
3.8141197127176274
% es.EX (V/m) @ t=2.5
2.2714342212676755
% es.EY (V/m) @ t=2.5
0.33226678752573235
% es.EZ (V/m) @ t=2.5
-2.9968236086417512
% es.tEX (V/m) @ t=2.5
2.271434221267647
% es.tEY (V/m) @ t=2.5
0
% es.tEZ (V/m) @ t=2.5
-2.9968236086417583
% es.Ex (V/m) @ t=2.5
2.2714342212676755
% es.Ey (V/m) @ t=2.5
0.33226678752573235
% es.Ez (V/m) @ t=2.5
-2.9968236086417512
% es.tEx (V/m) @ t=2.5
2.271434221267647
% es.tEy (V/m) @ t=2.5
0
% es.tEz (V/m) @ t=2.5
-2.9968236086417583
% V (V) @ t=2.5
0.04158861948462708
% es.normE (V/m) @ t=2.6
3.975364553092387
% es.EX (V/m) @ t=2.6
2.3674604921459093
% es.EY (V/m) @ t=2.6
0.34632368295263305
% es.EZ (V/m) @ t=2.6
-3.123513924447167
% es.tEX (V/m) @ t=2.6
2.367460492145881
% es.tEY (V/m) @ t=2.6
0
% es.tEZ (V/m) @ t=2.6
-3.1235139244471455
% es.Ex (V/m) @ t=2.6
2.3674604921459093
% es.Ey (V/m) @ t=2.6
0.34632368295263305
% es.Ez (V/m) @ t=2.6
-3.123513924447167
% es.tEx (V/m) @ t=2.6
2.367460492145881
% es.tEy (V/m) @ t=2.6
0
% es.tEz (V/m) @ t=2.6
-3.1235139244471455
% V (V) @ t=2.6
0.04334620267422236
% es.normE (V/m) @ t=2.7
4.135418135827646
% es.EX (V/m) @ t=2.7
2.462776594462369
% es.EY (V/m) @ t=2.7
0.3602973481898051
% es.EZ (V/m) @ t=2.7
-3.249262730100913
% es.tEX (V/m) @ t=2.7
2.462776594462369
% es.tEY (V/m) @ t=2.7
0
% es.tEZ (V/m) @ t=2.7
-3.249262730100927
% es.Ex (V/m) @ t=2.7
2.462776594462369
% es.Ey (V/m) @ t=2.7
0.3602973481898051
% es.Ez (V/m) @ t=2.7
-3.249262730100913
% es.tEx (V/m) @ t=2.7
2.462776594462369
% es.tEy (V/m) @ t=2.7
0
% es.tEz (V/m) @ t=2.7
-3.249262730100927
% V (V) @ t=2.7
0.045089556162610796
% es.normE (V/m) @ t=2.8
4.295965429974325
% es.EX (V/m) @ t=2.8
2.558386286006936
% es.EY (V/m) @ t=2.8
0.3743261044464532
% es.EZ (V/m) @ t=2.8
-3.375396208758273
% es.tEX (V/m) @ t=2.8
2.558386286006936
% es.tEY (V/m) @ t=2.8
0
% es.tEZ (V/m) @ t=2.8
-3.3753962087582643
% es.Ex (V/m) @ t=2.8
2.558386286006936
% es.Ey (V/m) @ t=2.8
0.3743261044464532
% es.Ez (V/m) @ t=2.8
-3.375396208758273
% es.tEx (V/m) @ t=2.8
2.558386286006936
% es.tEy (V/m) @ t=2.8
0
% es.tEz (V/m) @ t=2.8
-3.3753962087582643
% V (V) @ t=2.8
0.04683756360998512
% es.normE (V/m) @ t=2.9
4.457006436153451
% es.EX (V/m) @ t=2.9
2.654289566779795
% es.EY (V/m) @ t=2.9
0.388409951722716
% es.EZ (V/m) @ t=2.9
-3.501914360419228
% es.tEX (V/m) @ t=2.9
2.6542895667797666
% es.tEY (V/m) @ t=2.9
0
% es.tEZ (V/m) @ t=2.9
-3.5019143604192244
% es.Ex (V/m) @ t=2.9
2.654289566779795
% es.Ey (V/m) @ t=2.9
0.388409951722716
% es.Ez (V/m) @ t=2.9
-3.501914360419228
% es.tEx (V/m) @ t=2.9
2.6542895667797666
% es.tEy (V/m) @ t=2.9
0
% es.tEz (V/m) @ t=2.9
-3.5019143604192244
% V (V) @ t=2.9
0.04859022501634532
% es.normE (V/m) @ t=3
4.618541155093709
% es.EX (V/m) @ t=3
2.750486436780804
% es.EY (V/m) @ t=3
0.40254889001855787
% es.EZ (V/m) @ t=3
-3.6288171850837294
% es.tEX (V/m) @ t=3
2.750486436780804
% es.tEY (V/m) @ t=3
0
% es.tEZ (V/m) @ t=3
-3.6288171850837507
% es.Ex (V/m) @ t=3
2.750486436780804
% es.Ey (V/m) @ t=3
0.40254889001855787
% es.Ez (V/m) @ t=3
-3.6288171850837294
% es.tEx (V/m) @ t=3
2.750486436780804
% es.tEy (V/m) @ t=3
0
% es.tEz (V/m) @ t=3
-3.6288171850837507
% V (V) @ t=3
0.05034754038169139
% es.normE (V/m) @ t=3.1
4.778878870961703
% es.EX (V/m) @ t=3.1
2.8459707536367205
% es.EY (V/m) @ t=3.1
0.4165751671420974
% es.EZ (V/m) @ t=3.1
-3.7547817515664708
% es.tEX (V/m) @ t=3.1
2.845970753636692
% es.tEY (V/m) @ t=3.1
0
% es.tEZ (V/m) @ t=3.1
-3.754781751566462
% es.Ex (V/m) @ t=3.1
2.8459707536367205
% es.Ey (V/m) @ t=3.1
0.4165751671420974
% es.Ez (V/m) @ t=3.1
-3.7547817515664708
% es.tEx (V/m) @ t=3.1
2.845970753636692
% es.tEy (V/m) @ t=3.1
0
% es.tEz (V/m) @ t=3.1
-3.754781751566462
% V (V) @ t=3.1
0.05209230989470344
% es.normE (V/m) @ t=3.2
4.931493097137723
% es.EX (V/m) @ t=3.2
2.9368586173816595
% es.EY (V/m) @ t=3.2
0.42984122788739043
% es.EZ (V/m) @ t=3.2
-3.8747012951370188
% es.tEX (V/m) @ t=3.2
2.936858617381631
% es.tEY (V/m) @ t=3.2
0
% es.tEZ (V/m) @ t=3.2
-3.874701295137008
% es.Ex (V/m) @ t=3.2
2.9368586173816595
% es.Ey (V/m) @ t=3.2
0.42984122788739043
% es.Ez (V/m) @ t=3.2
-3.8747012951370188
% es.tEx (V/m) @ t=3.2
2.936858617381631
% es.tEy (V/m) @ t=3.2
0
% es.tEz (V/m) @ t=3.2
-3.874701295137008
% V (V) @ t=3.2
0.05375813902874876
% es.normE (V/m) @ t=3.3
5.081774574119914
% es.EX (V/m) @ t=3.3
3.0263580476723178
% es.EY (V/m) @ t=3.3
0.44288193923043906
% es.EZ (V/m) @ t=3.3
-3.992793896019178
% es.tEX (V/m) @ t=3.3
3.0263580476722893
% es.tEY (V/m) @ t=3.3
0
% es.tEZ (V/m) @ t=3.3
-3.9927938960191653
% es.Ex (V/m) @ t=3.3
3.0263580476723178
% es.Ey (V/m) @ t=3.3
0.44288193923043906
% es.Ez (V/m) @ t=3.3
-3.992793896019178
% es.tEx (V/m) @ t=3.3
3.0263580476722893
% es.tEy (V/m) @ t=3.3
0
% es.tEz (V/m) @ t=3.3
-3.9927938960191653
% V (V) @ t=3.3
0.05539986826592246
% es.normE (V/m) @ t=3.4
5.229723303340267
% es.EX (V/m) @ t=3.4
3.114469044508759
% es.EY (V/m) @ t=3.4
0.45569730117118823
% es.EZ (V/m) @ t=3.4
-4.109059554213028
% es.tEX (V/m) @ t=3.4
3.1144690445087306
% es.tEY (V/m) @ t=3.4
0
% es.tEZ (V/m) @ t=3.4
-4.109059554212994
% es.Ex (V/m) @ t=3.4
3.114469044508759
% es.Ey (V/m) @ t=3.4
0.45569730117118823
% es.Ez (V/m) @ t=3.4
-4.109059554213028
% es.tEx (V/m) @ t=3.4
3.1144690445087306
% es.tEy (V/m) @ t=3.4
0
% es.tEz (V/m) @ t=3.4
-4.109059554212994
% V (V) @ t=3.4
0.057017497606224564
% es.normE (V/m) @ t=3.5
5.3753392866355965
% es.EX (V/m) @ t=3.5
3.201191607890955
% es.EY (V/m) @ t=3.5
0.468287313709542
% es.EZ (V/m) @ t=3.5
-4.223498269718553
% es.tEX (V/m) @ t=3.5
3.2011916078909266
% es.tEY (V/m) @ t=3.5
0
% es.tEZ (V/m) @ t=3.5
-4.223498269718537
% es.Ex (V/m) @ t=3.5
3.201191607890955
% es.Ey (V/m) @ t=3.5
0.468287313709542
% es.Ez (V/m) @ t=3.5
-4.223498269718553
% es.tEx (V/m) @ t=3.5
3.2011916078909266
% es.tEy (V/m) @ t=3.5
0
% es.tEz (V/m) @ t=3.5
-4.223498269718537
% V (V) @ t=3.5
0.058611027049655054
% es.normE (V/m) @ t=3.6
5.517926459945897
% es.EX (V/m) @ t=3.6
3.2861105735150886
% es.EY (V/m) @ t=3.6
0.48060903386198994
% es.EZ (V/m) @ t=3.6
-4.335558380722384
% es.tEX (V/m) @ t=3.6
3.2861105735150318
% es.tEY (V/m) @ t=3.6
0
% es.tEZ (V/m) @ t=3.6
-4.335558380722354
% es.Ex (V/m) @ t=3.6
3.2861105735150886
% es.Ey (V/m) @ t=3.6
0.48060903386198994
% es.Ez (V/m) @ t=3.6
-4.335558380722384
% es.tEx (V/m) @ t=3.6
3.2861105735150318
% es.tEy (V/m) @ t=3.6
0
% es.tEz (V/m) @ t=3.6
-4.335558380722354
% V (V) @ t=3.6
0.060171798580953485
% es.normE (V/m) @ t=3.7
5.653784468383222
% es.EX (V/m) @ t=3.7
3.3670188889880706
% es.EY (V/m) @ t=3.7
0.49243417269806145
% es.EZ (V/m) @ t=3.7
-4.442307201263338
% es.tEX (V/m) @ t=3.7
3.3670188889880137
% es.tEY (V/m) @ t=3.7
0
% es.tEZ (V/m) @ t=3.7
-4.442307201263322
% es.Ex (V/m) @ t=3.7
3.3670188889880706
% es.Ey (V/m) @ t=3.7
0.49243417269806145
% es.Ez (V/m) @ t=3.7
-4.442307201263338
% es.tEx (V/m) @ t=3.7
3.3670188889880137
% es.tEy (V/m) @ t=3.7
0
% es.tEz (V/m) @ t=3.7
-4.442307201263322
% V (V) @ t=3.7
0.061653785378637214
% es.normE (V/m) @ t=3.8
5.785711693891304
% es.EX (V/m) @ t=3.8
3.4455856327222847
% es.EY (V/m) @ t=3.8
0.5039353732082148
% es.EZ (V/m) @ t=3.8
-4.545962568509127
% es.tEX (V/m) @ t=3.8
3.4455856327222847
% es.tEY (V/m) @ t=3.8
0
% es.tEZ (V/m) @ t=3.8
-4.545962568509125
% es.Ex (V/m) @ t=3.8
3.4455856327222847
% es.Ey (V/m) @ t=3.8
0.5039353732082148
% es.Ez (V/m) @ t=3.8
-4.545962568509127
% es.tEx (V/m) @ t=3.8
3.4455856327222847
% es.tEy (V/m) @ t=3.8
0
% es.tEz (V/m) @ t=3.8
-4.545962568509125
% V (V) @ t=3.8
0.06309179512301949
% es.normE (V/m) @ t=3.9
5.913708136672124
% es.EX (V/m) @ t=3.9
3.5218108047178873
% es.EY (V/m) @ t=3.9
0.5151126353926223
% es.EZ (V/m) @ t=3.9
-4.646524482459762
% es.tEX (V/m) @ t=3.9
3.5218108047178305
% es.tEY (V/m) @ t=3.9
0
% es.tEZ (V/m) @ t=3.9
-4.646524482459718
% es.Ex (V/m) @ t=3.9
3.5218108047178873
% es.Ey (V/m) @ t=3.9
0.5151126353926223
% es.Ez (V/m) @ t=3.9
-4.646524482459762
% es.tEx (V/m) @ t=3.9
3.5218108047178305
% es.tEy (V/m) @ t=3.9
0
% es.tEz (V/m) @ t=3.9
-4.646524482459718
% V (V) @ t=3.9
0.06448582781410031
% es.normE (V/m) @ t=4
6.03777379725857
% es.EX (V/m) @ t=4
3.5956944049748643
% es.EY (V/m) @ t=4
0.5259659592512307
% es.EZ (V/m) @ t=4
-4.74399294311519
% es.tEX (V/m) @ t=4
3.5956944049748074
% es.tEY (V/m) @ t=4
0
% es.tEZ (V/m) @ t=4
-4.743992943115195
% es.Ex (V/m) @ t=4
3.5956944049748643
% es.Ey (V/m) @ t=4
0.5259659592512307
% es.Ez (V/m) @ t=4
-4.74399294311519
% es.tEx (V/m) @ t=4
3.5956944049748074
% es.tEy (V/m) @ t=4
0
% es.tEz (V/m) @ t=4
-4.743992943115195
% V (V) @ t=4
0.06583588345187967
% es.normE (V/m) @ t=4.1
6.157879999374705
% es.EX (V/m) @ t=4.1
3.6672195624647514
% es.EY (V/m) @ t=4.1
0.53648707338726
% es.EZ (V/m) @ t=4.1
-4.8383469682361735
% es.tEX (V/m) @ t=4.1
3.6672195624646946
% es.tEY (V/m) @ t=4.1
0
% es.tEZ (V/m) @ t=4.1
-4.838346968236145
% es.Ex (V/m) @ t=4.1
3.6672195624647514
% es.Ey (V/m) @ t=4.1
0.53648707338726
% es.Ez (V/m) @ t=4.1
-4.8383469682361735
% es.tEx (V/m) @ t=4.1
3.6672195624646946
% es.tEy (V/m) @ t=4.1
0
% es.tEz (V/m) @ t=4.1
-4.838346968236145
% V (V) @ t=4.1
0.06714199786056936
% es.normE (V/m) @ t=4.2
6.273812330219414
% es.EX (V/m) @ t=4.2
3.736260135983798
% es.EY (V/m) @ t=4.2
0.5466141342709907
% es.EZ (V/m) @ t=4.2
-4.929429677943105
% es.tEX (V/m) @ t=4.2
3.7362601359836844
% es.tEY (V/m) @ t=4.2
0
% es.tEZ (V/m) @ t=4.2
-4.929429677943112
% es.Ex (V/m) @ t=4.2
3.736260135983798
% es.Ey (V/m) @ t=4.2
0.5466141342709907
% es.Ez (V/m) @ t=4.2
-4.929429677943105
% es.tEx (V/m) @ t=4.2
3.7362601359836844
% es.tEy (V/m) @ t=4.2
0
% es.tEz (V/m) @ t=4.2
-4.929429677943112
% V (V) @ t=4.2
0.0684044388904203
% es.normE (V/m) @ t=4.3
6.385727547840529
% es.EX (V/m) @ t=4.3
3.8029083481212496
% es.EY (V/m) @ t=4.3
0.5563923560773816
% es.EZ (V/m) @ t=4.3
-5.017355768055035
% es.tEX (V/m) @ t=4.3
3.8029083481211927
% es.tEY (V/m) @ t=4.3
0
% es.tEZ (V/m) @ t=4.3
-5.017355768054998
% es.Ex (V/m) @ t=4.3
3.8029083481212496
% es.Ey (V/m) @ t=4.3
0.5563923560773816
% es.Ez (V/m) @ t=4.3
-5.017355768055035
% es.tEx (V/m) @ t=4.3
3.8029083481211927
% es.tEy (V/m) @ t=4.3
0
% es.tEz (V/m) @ t=4.3
-5.017355768054998
% V (V) @ t=4.3
0.06962301071451063
% es.normE (V/m) @ t=4.4
6.493625652256287
% es.EX (V/m) @ t=4.4
3.8671641988770205
% es.EY (V/m) @ t=4.4
0.5658217388064379
% es.EZ (V/m) @ t=4.4
-5.102125238572116
% es.tEX (V/m) @ t=4.4
3.8671641988769636
% es.tEY (V/m) @ t=4.4
0
% es.tEZ (V/m) @ t=4.4
-5.102125238572135
% es.Ex (V/m) @ t=4.4
3.8671641988770205
% es.Ey (V/m) @ t=4.4
0.5658217388064379
% es.Ez (V/m) @ t=4.4
-5.102125238572116
% es.tEx (V/m) @ t=4.4
3.8671641988769636
% es.tEy (V/m) @ t=4.4
0
% es.tEz (V/m) @ t=4.4
-5.102125238572135
% V (V) @ t=4.4
0.07079771333284031
% es.normE (V/m) @ t=4.5
6.597506643485824
% es.EX (V/m) @ t=4.5
3.929027688251253
% es.EY (V/m) @ t=4.5
0.5749022824577548
% es.EZ (V/m) @ t=4.5
-5.183738089494126
% es.tEX (V/m) @ t=4.5
3.929027688251253
% es.tEY (V/m) @ t=4.5
0
% es.tEZ (V/m) @ t=4.5
-5.183738089494149
% es.Ex (V/m) @ t=4.5
3.929027688251253
% es.Ey (V/m) @ t=4.5
0.5749022824577548
% es.Ez (V/m) @ t=4.5
-5.183738089494126
% es.tEx (V/m) @ t=4.5
3.929027688251253
% es.tEy (V/m) @ t=4.5
0
% es.tEz (V/m) @ t=4.5
-5.183738089494149
% V (V) @ t=4.5
0.07192854674540937
% es.normE (V/m) @ t=4.6
6.697392455873938
% es.EX (V/m) @ t=4.6
3.988511928013139
% es.EY (V/m) @ t=4.6
0.5836345288577132
% es.EZ (V/m) @ t=4.6
-5.262211922636208
% es.tEX (V/m) @ t=4.6
3.988511928013139
% es.tEY (V/m) @ t=4.6
0
% es.tEZ (V/m) @ t=4.6
-5.262211922636219
% es.Ex (V/m) @ t=4.6
3.988511928013139
% es.Ey (V/m) @ t=4.6
0.5836345288577132
% es.Ez (V/m) @ t=4.6
-5.262211922636208
% es.tEx (V/m) @ t=4.6
3.988511928013139
% es.tEy (V/m) @ t=4.6
0
% es.tEz (V/m) @ t=4.6
-5.262211922636219
% V (V) @ t=4.6
0.07301583276225834
% es.normE (V/m) @ t=4.7
6.793535377932838
% es.EX (V/m) @ t=4.7
4.045767729745819
% es.EY (V/m) @ t=4.7
0.5920247100891469
% es.EZ (V/m) @ t=4.7
-5.337749194086628
% es.tEX (V/m) @ t=4.7
4.045767729745819
% es.tEY (V/m) @ t=4.7
0
% es.tEZ (V/m) @ t=4.7
-5.337749194086605
% es.Ex (V/m) @ t=4.7
4.045767729745819
% es.Ey (V/m) @ t=4.7
0.5920247100891469
% es.Ez (V/m) @ t=4.7
-5.337749194086628
% es.tEx (V/m) @ t=4.7
4.045767729745819
% es.tEy (V/m) @ t=4.7
0
% es.tEz (V/m) @ t=4.7
-5.337749194086605
% V (V) @ t=4.7
0.0740632728427418
% es.normE (V/m) @ t=4.8
6.88575643899011
% es.EX (V/m) @ t=4.8
4.100688109509875
% es.EY (V/m) @ t=4.8
0.6000684051867182
% es.EZ (V/m) @ t=4.8
-5.410206283909329
% es.tEX (V/m) @ t=4.8
4.100688109509875
% es.tEY (V/m) @ t=4.8
0
% es.tEZ (V/m) @ t=4.8
-5.410206283909318
% es.Ex (V/m) @ t=4.8
4.100688109509875
% es.Ey (V/m) @ t=4.8
0.6000684051867182
% es.Ez (V/m) @ t=4.8
-5.410206283909329
% es.tEx (V/m) @ t=4.8
4.100688109509875
% es.tEy (V/m) @ t=4.8
0
% es.tEz (V/m) @ t=4.8
-5.410206283909318
% V (V) @ t=4.8
0.07506824121571118
% es.normE (V/m) @ t=4.9
6.97405563901502
% es.EX (V/m) @ t=4.9
4.153273067305122
% es.EY (V/m) @ t=4.9
0.6077656141504413
% es.EZ (V/m) @ t=4.9
-5.479583192104336
% es.tEX (V/m) @ t=4.9
4.153273067305065
% es.tEY (V/m) @ t=4.9
0
% es.tEZ (V/m) @ t=4.9
-5.47958319210435
% es.Ex (V/m) @ t=4.9
4.153273067305122
% es.Ey (V/m) @ t=4.9
0.6077656141504413
% es.Ez (V/m) @ t=4.9
-5.479583192104336
% es.tEx (V/m) @ t=4.9
4.153273067305065
% es.tEy (V/m) @ t=4.9
0
% es.tEz (V/m) @ t=4.9
-5.47958319210435
% V (V) @ t=4.9
0.07603073788116643
% es.normE (V/m) @ t=5
7.058432977997937
% es.EX (V/m) @ t=5
4.2035226031316455
% es.EY (V/m) @ t=5
0.6151163369800905
% es.EZ (V/m) @ t=5
-5.545879918671567
% es.tEX (V/m) @ t=5
4.203522603131589
% es.tEY (V/m) @ t=5
0
% es.tEZ (V/m) @ t=5
-5.545879918671552
% es.Ex (V/m) @ t=5
4.2035226031316455
% es.Ey (V/m) @ t=5
0.6151163369800905
% es.Ez (V/m) @ t=5
-5.545879918671567
% es.tEx (V/m) @ t=5
4.203522603131589
% es.tEy (V/m) @ t=5
0
% es.tEz (V/m) @ t=5
-5.545879918671552
% V (V) @ t=5
0.07695076283910757
% es.normE (V/m) @ t=5.1
7.138865559163941
% es.EX (V/m) @ t=5.1
4.251423067839184
% es.EY (V/m) @ t=5.1
0.6221189464707813
% es.EZ (V/m) @ t=5.1
-5.609078374639164
% es.tEX (V/m) @ t=5.1
4.251423067839241
% es.tEY (V/m) @ t=5.1
0
% es.tEZ (V/m) @ t=5.1
-5.609078374639118
% es.Ex (V/m) @ t=5.1
4.251423067839184
% es.Ey (V/m) @ t=5.1
0.6221189464707813
% es.Ez (V/m) @ t=5.1
-5.609078374639164
% es.tEx (V/m) @ t=5.1
4.251423067839241
% es.tEy (V/m) @ t=5.1
0
% es.tEz (V/m) @ t=5.1
-5.609078374639118
% V (V) @ t=5.1
0.07782804425018265
% es.normE (V/m) @ t=5.2
7.214802183118012
% es.EX (V/m) @ t=5.2
4.296645882394287
% es.EY (V/m) @ t=5.2
0.6287342705491987
% es.EZ (V/m) @ t=5.2
-5.668743100157528
% es.tEX (V/m) @ t=5.2
4.296645882394287
% es.tEY (V/m) @ t=5.2
0
% es.tEZ (V/m) @ t=5.2
-5.668743100157599
% es.Ex (V/m) @ t=5.2
4.296645882394287
% es.Ey (V/m) @ t=5.2
0.6287342705491987
% es.Ez (V/m) @ t=5.2
-5.668743100157528
% es.tEx (V/m) @ t=5.2
4.296645882394287
% es.tEy (V/m) @ t=5.2
0
% es.tEz (V/m) @ t=5.2
-5.668743100157599
% V (V) @ t=5.2
0.07865603806517164
% es.normE (V/m) @ t=5.3
7.286498959200926
% es.EX (V/m) @ t=5.3
4.339343717792488
% es.EY (V/m) @ t=5.3
0.6349805101310757
% es.EZ (V/m) @ t=5.3
-5.725076427335868
% es.tEX (V/m) @ t=5.3
4.339343717792488
% es.tEY (V/m) @ t=5.3
0
% es.tEZ (V/m) @ t=5.3
-5.725076427335765
% es.Ex (V/m) @ t=5.3
4.339343717792488
% es.Ey (V/m) @ t=5.3
0.6349805101310757
% es.Ez (V/m) @ t=5.3
-5.725076427335868
% es.tEx (V/m) @ t=5.3
4.339343717792488
% es.tEy (V/m) @ t=5.3
0
% es.tEz (V/m) @ t=5.3
-5.725076427335765
% V (V) @ t=5.3
0.07943778491177393