% Model:              1 neuron.mph
% Version:            COMSOL 6.0.0.405
% Date:               Mar 16 2023, 19:00
% Dimension:          0
% Nodes:              14017
% Expressions:        14017
% Description:        Electric field norm, Electric field, X component, Electric field, Y component, Electric field, Z component, Tangential electric field, X component, Tangential electric field, Y component, Tangential electric field, Z component, Electric field, x component, Electric field, y component, Electric field, z component, Tangential electric field, x component, Tangential electric field, y component, Tangential electric field, z component, Electric potential
% Length unit:        mm
% x
1.33
% y
12.2
% z
1
% es.normE (V/m) @ t=0
2.367986760131494
% es.EX (V/m) @ t=0
0.7309107639699034
% es.EY (V/m) @ t=0
0.17707314159351417
% es.EZ (V/m) @ t=0
2.2453736880162265
% es.tEX (V/m) @ t=0
0.7309107639699093
% es.tEY (V/m) @ t=0
0
% es.tEZ (V/m) @ t=0
2.2453736880162367
% es.Ex (V/m) @ t=0
0.7309107639699034
% es.Ey (V/m) @ t=0
0.17707314159351417
% es.Ez (V/m) @ t=0
2.2453736880162265
% es.tEx (V/m) @ t=0
0.7309107639699093
% es.tEy (V/m) @ t=0
0
% es.tEz (V/m) @ t=0
2.2453736880162367
% V (V) @ t=0
0.011075134092932534
% es.normE (V/m) @ t=0.02
2.056614557445271
% es.EX (V/m) @ t=0.02
0.6348015780437891
% es.EY (V/m) @ t=0.02
0.15378937132236425
% es.EZ (V/m) @ t=0.02
1.9501241675249097
% es.tEX (V/m) @ t=0.02
0.6348015780437919
% es.tEY (V/m) @ t=0.02
0
% es.tEZ (V/m) @ t=0.02
1.9501241675249226
% es.Ex (V/m) @ t=0.02
0.6348015780437891
% es.Ey (V/m) @ t=0.02
0.15378937132236425
% es.Ez (V/m) @ t=0.02
1.9501241675249097
% es.tEx (V/m) @ t=0.02
0.6348015780437919
% es.tEy (V/m) @ t=0.02
0
% es.tEz (V/m) @ t=0.02
1.9501241675249226
% V (V) @ t=0.02
0.009618837720251723
% es.normE (V/m) @ t=0.04
2.087109253161803
% es.EX (V/m) @ t=0.04
0.6442141705075245
% es.EY (V/m) @ t=0.04
0.15606970262221231
% es.EZ (V/m) @ t=0.04
1.9790398652849794
% es.tEX (V/m) @ t=0.04
0.6442141705075244
% es.tEY (V/m) @ t=0.04
0
% es.tEZ (V/m) @ t=0.04
1.9790398652849817
% es.Ex (V/m) @ t=0.04
0.6442141705075245
% es.Ey (V/m) @ t=0.04
0.15606970262221231
% es.Ez (V/m) @ t=0.04
1.9790398652849794
% es.tEx (V/m) @ t=0.04
0.6442141705075244
% es.tEy (V/m) @ t=0.04
0
% es.tEz (V/m) @ t=0.04
1.9790398652849817
% V (V) @ t=0.04
0.009761462525463446
% es.normE (V/m) @ t=0.06
2.1180631664354492
% es.EX (V/m) @ t=0.06
0.6537685065485731
% es.EY (V/m) @ t=0.06
0.15838437314428733
% es.EZ (V/m) @ t=0.06
2.0083910025935015
% es.tEX (V/m) @ t=0.06
0.6537685065485732
% es.tEY (V/m) @ t=0.06
0
% es.tEZ (V/m) @ t=0.06
2.0083910025935126
% es.Ex (V/m) @ t=0.06
0.6537685065485731
% es.Ey (V/m) @ t=0.06
0.15838437314428733
% es.Ez (V/m) @ t=0.06
2.0083910025935015
% es.tEx (V/m) @ t=0.06
0.6537685065485732
% es.tEy (V/m) @ t=0.06
0
% es.tEz (V/m) @ t=0.06
2.0083910025935126
% V (V) @ t=0.06
0.009906235084562596
% es.normE (V/m) @ t=0.08
2.1498027274812306
% es.EX (V/m) @ t=0.08
0.6635653449055452
% es.EY (V/m) @ t=0.08
0.1607577922178537
% es.EZ (V/m) @ t=0.08
2.0384871067707557
% es.tEX (V/m) @ t=0.08
0.6635653449055425
% es.tEY (V/m) @ t=0.08
0
% es.tEZ (V/m) @ t=0.08
2.0384871067707593
% es.Ex (V/m) @ t=0.08
0.6635653449055452
% es.Ey (V/m) @ t=0.08
0.1607577922178537
% es.Ez (V/m) @ t=0.08
2.0384871067707557
% es.tEx (V/m) @ t=0.08
0.6635653449055425
% es.tEy (V/m) @ t=0.08
0
% es.tEz (V/m) @ t=0.08
2.0384871067707593
% V (V) @ t=0.08
0.010054681964009465
% es.normE (V/m) @ t=0.1
2.1820986643907667
% es.EX (V/m) @ t=0.1
0.6735339172637579
% es.EY (V/m) @ t=0.1
0.16317281552840845
% es.EZ (V/m) @ t=0.1
2.069110777625804
% es.tEX (V/m) @ t=0.1
0.6735339172637609
% es.tEY (V/m) @ t=0.1
0
% es.tEZ (V/m) @ t=0.1
2.0691107776258093
% es.Ex (V/m) @ t=0.1
0.6735339172637579
% es.Ey (V/m) @ t=0.1
0.16317281552840845
% es.Ez (V/m) @ t=0.1
2.069110777625804
% es.tEx (V/m) @ t=0.1
0.6735339172637609
% es.tEy (V/m) @ t=0.1
0
% es.tEz (V/m) @ t=0.1
2.0691107776258093
% V (V) @ t=0.1
0.010205730904112332
% es.normE (V/m) @ t=0.12
2.214394601300312
% es.EX (V/m) @ t=0.12
0.683502489621971
% es.EY (V/m) @ t=0.12
0.1655878388389851
% es.EZ (V/m) @ t=0.12
2.0997344484808598
% es.tEX (V/m) @ t=0.12
0.6835024896219721
% es.tEY (V/m) @ t=0.12
0
% es.tEZ (V/m) @ t=0.12
2.099734448480877
% es.Ex (V/m) @ t=0.12
0.683502489621971
% es.Ey (V/m) @ t=0.12
0.1655878388389851
% es.Ez (V/m) @ t=0.12
2.0997344484808598
% es.tEx (V/m) @ t=0.12
0.6835024896219721
% es.tEy (V/m) @ t=0.12
0
% es.tEz (V/m) @ t=0.12
2.099734448480877
% V (V) @ t=0.12
0.010356779844215194
% es.normE (V/m) @ t=0.14
2.2472164060615425
% es.EX (V/m) @ t=0.14
0.6936333846097539
% es.EY (V/m) @ t=0.14
0.16804218327483222
% es.EZ (V/m) @ t=0.14
2.1308567560920513
% es.tEX (V/m) @ t=0.14
0.693633384609754
% es.tEY (V/m) @ t=0.14
0
% es.tEZ (V/m) @ t=0.14
2.130856756092051
% es.Ex (V/m) @ t=0.14
0.6936333846097539
% es.Ey (V/m) @ t=0.14
0.16804218327483222
% es.Ez (V/m) @ t=0.14
2.1308567560920513
% es.tEx (V/m) @ t=0.14
0.693633384609754
% es.tEy (V/m) @ t=0.14
0
% es.tEz (V/m) @ t=0.14
2.130856756092051
% V (V) @ t=0.14
0.010510287582026498
% es.normE (V/m) @ t=0.16
2.2824206649066476
% es.EX (V/m) @ t=0.16
0.7044996852902187
% es.EY (V/m) @ t=0.16
0.17067467280040105
% es.EZ (V/m) @ t=0.16
2.1642381468021754
% es.tEX (V/m) @ t=0.16
0.704499685290223
% es.tEY (V/m) @ t=0.16
0
% es.tEZ (V/m) @ t=0.16
2.164238146802191
% es.Ex (V/m) @ t=0.16
0.7044996852902187
% es.Ey (V/m) @ t=0.16
0.17067467280040105
% es.Ez (V/m) @ t=0.16
2.1642381468021754
% es.tEx (V/m) @ t=0.16
0.704499685290223
% es.tEy (V/m) @ t=0.16
0
% es.tEz (V/m) @ t=0.16
2.164238146802191
% V (V) @ t=0.16
0.010674934948592972
% es.normE (V/m) @ t=0.18
2.3176249237517506
% es.EX (V/m) @ t=0.18
0.7153659859706591
% es.EY (V/m) @ t=0.18
0.17330716232593624
% es.EZ (V/m) @ t=0.18
2.197619537512307
% es.tEX (V/m) @ t=0.18
0.7153659859706636
% es.tEY (V/m) @ t=0.18
0
% es.tEZ (V/m) @ t=0.18
2.197619537512308
% es.Ex (V/m) @ t=0.18
0.7153659859706591
% es.Ey (V/m) @ t=0.18
0.17330716232593624
% es.Ez (V/m) @ t=0.18
2.197619537512307
% es.tEx (V/m) @ t=0.18
0.7153659859706636
% es.tEy (V/m) @ t=0.18
0
% es.tEz (V/m) @ t=0.18
2.197619537512308
% V (V) @ t=0.18
0.010839582315159446
% es.normE (V/m) @ t=0.2
2.3528291825968517
% es.EX (V/m) @ t=0.2
0.7262322866511167
% es.EY (V/m) @ t=0.2
0.1759396518515045
% es.EZ (V/m) @ t=0.2
2.231000928222428
% es.tEX (V/m) @ t=0.2
0.7262322866511184
% es.tEY (V/m) @ t=0.2
0
% es.tEZ (V/m) @ t=0.2
2.2310009282224534
% es.Ex (V/m) @ t=0.2
0.7262322866511167
% es.Ey (V/m) @ t=0.2
0.1759396518515045
% es.Ez (V/m) @ t=0.2
2.231000928222428
% es.tEx (V/m) @ t=0.2
0.7262322866511184
% es.tEy (V/m) @ t=0.2
0
% es.tEz (V/m) @ t=0.2
2.2310009282224534
% V (V) @ t=0.2
0.01100422968172592
% es.normE (V/m) @ t=0.22
2.388033441441962
% es.EX (V/m) @ t=0.22
0.7370985873315753
% es.EY (V/m) @ t=0.22
0.17857214137705923
% es.EZ (V/m) @ t=0.22
2.2643823189325594
% es.tEX (V/m) @ t=0.22
0.7370985873315732
% es.tEY (V/m) @ t=0.22
0
% es.tEZ (V/m) @ t=0.22
2.2643823189325794
% es.Ex (V/m) @ t=0.22
0.7370985873315753
% es.Ey (V/m) @ t=0.22
0.17857214137705923
% es.Ez (V/m) @ t=0.22
2.2643823189325594
% es.tEx (V/m) @ t=0.22
0.7370985873315732
% es.tEy (V/m) @ t=0.22
0
% es.tEz (V/m) @ t=0.22
2.2643823189325794
% V (V) @ t=0.22
0.011168877048292392
% es.normE (V/m) @ t=0.24
2.423237700287082
% es.EX (V/m) @ t=0.24
0.7479648880120233
% es.EY (V/m) @ t=0.24
0.18120463090261507
% es.EZ (V/m) @ t=0.24
2.2977637096427026
% es.tEX (V/m) @ t=0.24
0.747964888012028
% es.tEY (V/m) @ t=0.24
0
% es.tEZ (V/m) @ t=0.24
2.2977637096427035
% es.Ex (V/m) @ t=0.24
0.7479648880120233
% es.Ey (V/m) @ t=0.24
0.18120463090261507
% es.Ez (V/m) @ t=0.24
2.2977637096427026
% es.tEx (V/m) @ t=0.24
0.747964888012028
% es.tEy (V/m) @ t=0.24
0
% es.tEz (V/m) @ t=0.24
2.2977637096427035
% V (V) @ t=0.24
0.011333524414858862
% es.normE (V/m) @ t=0.26
2.458441959132189
% es.EX (V/m) @ t=0.26
0.7588311886924841
% es.EY (V/m) @ t=0.26
0.18383712042815248
% es.EZ (V/m) @ t=0.26
2.3311451003528294
% es.tEX (V/m) @ t=0.26
0.7588311886924899
% es.tEY (V/m) @ t=0.26
0
% es.tEZ (V/m) @ t=0.26
2.331145100352858
% es.Ex (V/m) @ t=0.26
0.7588311886924841
% es.Ey (V/m) @ t=0.26
0.18383712042815248
% es.Ez (V/m) @ t=0.26
2.3311451003528294
% es.tEx (V/m) @ t=0.26
0.7588311886924899
% es.tEy (V/m) @ t=0.26
0
% es.tEz (V/m) @ t=0.26
2.331145100352858
% V (V) @ t=0.26
0.011498171781425337
% es.normE (V/m) @ t=0.28
2.4948132014885487
% es.EX (V/m) @ t=0.28
0.7700576817561552
% es.EY (V/m) @ t=0.28
0.18655687882483007
% es.EZ (V/m) @ t=0.28
2.3656330525955633
% es.tEX (V/m) @ t=0.28
0.7700576817561497
% es.tEY (V/m) @ t=0.28
0
% es.tEZ (V/m) @ t=0.28
2.365633052595552
% es.Ex (V/m) @ t=0.28
0.7700576817561552
% es.Ey (V/m) @ t=0.28
0.18655687882483007
% es.Ez (V/m) @ t=0.28
2.3656330525955633
% es.tEx (V/m) @ t=0.28
0.7700576817561497
% es.tEy (V/m) @ t=0.28
0
% es.tEz (V/m) @ t=0.28
2.365633052595552
% V (V) @ t=0.28
0.011668278520094654
% es.normE (V/m) @ t=0.3
2.5331578543562663
% es.EX (V/m) @ t=0.3
0.7818932729161902
% es.EY (V/m) @ t=0.3
0.1894242119780546
% es.EZ (V/m) @ t=0.3
2.401992239640541
% es.tEX (V/m) @ t=0.3
0.7818932729161858
% es.tEY (V/m) @ t=0.3
0
% es.tEZ (V/m) @ t=0.3
2.4019922396405455
% es.Ex (V/m) @ t=0.3
0.7818932729161902
% es.Ey (V/m) @ t=0.3
0.1894242119780546
% es.Ez (V/m) @ t=0.3
2.401992239640541
% es.tEx (V/m) @ t=0.3
0.7818932729161858
% es.tEy (V/m) @ t=0.3
0
% es.tEz (V/m) @ t=0.3
2.4019922396405455
% V (V) @ t=0.3
0.011847617250638655
% es.normE (V/m) @ t=0.32
2.571502507224009
% es.EX (V/m) @ t=0.32
0.7937288640762249
% es.EY (V/m) @ t=0.32
0.19229154513125513
% es.EZ (V/m) @ t=0.32
2.4383514266855464
% es.tEX (V/m) @ t=0.32
0.793728864076229
% es.tEY (V/m) @ t=0.32
0
% es.tEZ (V/m) @ t=0.32
2.4383514266855535
% es.Ex (V/m) @ t=0.32
0.7937288640762249
% es.Ey (V/m) @ t=0.32
0.19229154513125513
% es.Ez (V/m) @ t=0.32
2.4383514266855464
% es.tEx (V/m) @ t=0.32
0.793728864076229
% es.tEy (V/m) @ t=0.32
0
% es.tEz (V/m) @ t=0.32
2.4383514266855535
% V (V) @ t=0.32
0.012026955981182655
% es.normE (V/m) @ t=0.34
2.6098471600917557
% es.EX (V/m) @ t=0.34
0.8055644552362755
% es.EY (V/m) @ t=0.34
0.1951588782844541
% es.EZ (V/m) @ t=0.34
2.4747106137305512
% es.tEX (V/m) @ t=0.34
0.8055644552362722
% es.tEY (V/m) @ t=0.34
0
% es.tEZ (V/m) @ t=0.34
2.4747106137305472
% es.Ex (V/m) @ t=0.34
0.8055644552362755
% es.Ey (V/m) @ t=0.34
0.1951588782844541
% es.Ez (V/m) @ t=0.34
2.4747106137305512
% es.tEx (V/m) @ t=0.34
0.8055644552362722
% es.tEy (V/m) @ t=0.34
0
% es.tEz (V/m) @ t=0.34
2.4747106137305472
% V (V) @ t=0.34
0.012206294711726655
% es.normE (V/m) @ t=0.36
2.6481918129594924
% es.EX (V/m) @ t=0.36
0.8174000463963018
% es.EY (V/m) @ t=0.36
0.1980262114376683
% es.EZ (V/m) @ t=0.36
2.5110698007755525
% es.tEX (V/m) @ t=0.36
0.8174000463963011
% es.tEY (V/m) @ t=0.36
0
% es.tEZ (V/m) @ t=0.36
2.511069800775539
% es.Ex (V/m) @ t=0.36
0.8174000463963018
% es.Ey (V/m) @ t=0.36
0.1980262114376683
% es.Ez (V/m) @ t=0.36
2.5110698007755525
% es.tEx (V/m) @ t=0.36
0.8174000463963011
% es.tEy (V/m) @ t=0.36
0
% es.tEz (V/m) @ t=0.36
2.511069800775539
% V (V) @ t=0.36
0.012385633442270656
% es.normE (V/m) @ t=0.38
2.6865364658272144
% es.EX (V/m) @ t=0.38
0.829235637556337
% es.EY (V/m) @ t=0.38
0.20089354459085773
% es.EZ (V/m) @ t=0.38
2.547428987820537
% es.tEX (V/m) @ t=0.38
0.8292356375563443
% es.tEY (V/m) @ t=0.38
0
% es.tEZ (V/m) @ t=0.38
2.547428987820547
% es.Ex (V/m) @ t=0.38
0.829235637556337
% es.Ey (V/m) @ t=0.38
0.20089354459085773
% es.Ez (V/m) @ t=0.38
2.547428987820537
% es.tEx (V/m) @ t=0.38
0.8292356375563443
% es.tEy (V/m) @ t=0.38
0
% es.tEz (V/m) @ t=0.38
2.547428987820547
% V (V) @ t=0.38
0.012564972172814656
% es.normE (V/m) @ t=0.4
2.724881118694965
% es.EX (V/m) @ t=0.4
0.8410712287163824
% es.EY (V/m) @ t=0.4
0.20376087774406093
% es.EZ (V/m) @ t=0.4
2.583788174865547
% es.tEX (V/m) @ t=0.4
0.8410712287163875
% es.tEY (V/m) @ t=0.4
0
% es.tEZ (V/m) @ t=0.4
2.5837881748655693
% es.Ex (V/m) @ t=0.4
0.8410712287163824
% es.Ey (V/m) @ t=0.4
0.20376087774406093
% es.Ez (V/m) @ t=0.4
2.583788174865547
% es.tEx (V/m) @ t=0.4
0.8410712287163875
% es.tEy (V/m) @ t=0.4
0
% es.tEz (V/m) @ t=0.4
2.5837881748655693
% V (V) @ t=0.4
0.012744310903358657
% es.normE (V/m) @ t=0.42
2.7651249168226317
% es.EX (V/m) @ t=0.42
0.853493031805288
% es.EY (V/m) @ t=0.42
0.20677021992302191
% es.EZ (V/m) @ t=0.42
2.6219481658543566
% es.tEX (V/m) @ t=0.42
0.8534930318052787
% es.tEY (V/m) @ t=0.42
0
% es.tEZ (V/m) @ t=0.42
2.6219481658543558
% es.Ex (V/m) @ t=0.42
0.853493031805288
% es.Ey (V/m) @ t=0.42
0.20677021992302191
% es.Ez (V/m) @ t=0.42
2.6219481658543566
% es.tEx (V/m) @ t=0.42
0.8534930318052787
% es.tEy (V/m) @ t=0.42
0
% es.tEz (V/m) @ t=0.42
2.6219481658543558
% V (V) @ t=0.42
0.012932530354248807
% es.normE (V/m) @ t=0.44
2.8068464674791347
% es.EX (V/m) @ t=0.44
0.8663709749160153
% es.EY (V/m) @ t=0.44
0.20989006138886124
% es.EZ (V/m) @ t=0.44
2.661509388564646
% es.tEX (V/m) @ t=0.44
0.8663709749160233
% es.tEY (V/m) @ t=0.44
0
% es.tEZ (V/m) @ t=0.44
2.66150938856466
% es.Ex (V/m) @ t=0.44
0.8663709749160153
% es.Ey (V/m) @ t=0.44
0.20989006138886124
% es.Ez (V/m) @ t=0.44
2.661509388564646
% es.tEx (V/m) @ t=0.44
0.8663709749160233
% es.tEy (V/m) @ t=0.44
0
% es.tEz (V/m) @ t=0.44
2.66150938856466
% V (V) @ t=0.44
0.01312766002271231
% es.normE (V/m) @ t=0.46
2.848568018135645
% es.EX (V/m) @ t=0.46
0.8792489180267598
% es.EY (V/m) @ t=0.46
0.21300990285471522
% es.EZ (V/m) @ t=0.46
2.701070611274936
% es.tEX (V/m) @ t=0.46
0.8792489180267609
% es.tEY (V/m) @ t=0.46
0
% es.tEZ (V/m) @ t=0.46
2.701070611274943
% es.Ex (V/m) @ t=0.46
0.8792489180267598
% es.Ey (V/m) @ t=0.46
0.21300990285471522
% es.Ez (V/m) @ t=0.46
2.701070611274936
% es.tEx (V/m) @ t=0.46
0.8792489180267609
% es.tEy (V/m) @ t=0.46
0
% es.tEz (V/m) @ t=0.46
2.701070611274943
% V (V) @ t=0.46
0.013322789691175816
% es.normE (V/m) @ t=0.48
2.890289568792163
% es.EX (V/m) @ t=0.48
0.8921268611374962
% es.EY (V/m) @ t=0.48
0.21612974432053011
% es.EZ (V/m) @ t=0.48
2.7406318339852396
% es.tEX (V/m) @ t=0.48
0.8921268611375055
% es.tEY (V/m) @ t=0.48
0
% es.tEZ (V/m) @ t=0.48
2.740631833985262
% es.Ex (V/m) @ t=0.48
0.8921268611374962
% es.Ey (V/m) @ t=0.48
0.21612974432053011
% es.Ez (V/m) @ t=0.48
2.7406318339852396
% es.tEx (V/m) @ t=0.48
0.8921268611375055
% es.tEy (V/m) @ t=0.48
0
% es.tEz (V/m) @ t=0.48
2.740631833985262
% V (V) @ t=0.48
0.01351791935963932
% es.normE (V/m) @ t=0.5
2.93201111944869
% es.EX (V/m) @ t=0.5
0.9050048042482335
% es.EY (V/m) @ t=0.5
0.21924958578638432
% es.EZ (V/m) @ t=0.5
2.7801930566955493
% es.tEX (V/m) @ t=0.5
0.9050048042482359
% es.tEY (V/m) @ t=0.5
0
% es.tEZ (V/m) @ t=0.5
2.7801930566955555
% es.Ex (V/m) @ t=0.5
0.9050048042482335
% es.Ey (V/m) @ t=0.5
0.21924958578638432
% es.Ez (V/m) @ t=0.5
2.7801930566955493
% es.tEx (V/m) @ t=0.5
0.9050048042482359
% es.tEy (V/m) @ t=0.5
0
% es.tEz (V/m) @ t=0.5
2.7801930566955555
% V (V) @ t=0.5
0.013713049028102825
% es.normE (V/m) @ t=0.52
2.973732670105182
% es.EX (V/m) @ t=0.52
0.9178827473589608
% es.EY (V/m) @ t=0.52
0.22236942725223474
% es.EZ (V/m) @ t=0.52
2.8197542794058243
% es.tEX (V/m) @ t=0.52
0.9178827473589593
% es.tEY (V/m) @ t=0.52
0
% es.tEZ (V/m) @ t=0.52
2.8197542794058457
% es.Ex (V/m) @ t=0.52
0.9178827473589608
% es.Ey (V/m) @ t=0.52
0.22236942725223474
% es.Ez (V/m) @ t=0.52
2.8197542794058243
% es.tEx (V/m) @ t=0.52
0.9178827473589593
% es.tEy (V/m) @ t=0.52
0
% es.tEz (V/m) @ t=0.52
2.8197542794058457
% V (V) @ t=0.52
0.013908178696566327
% es.normE (V/m) @ t=0.54
3.0154542207617006
% es.EX (V/m) @ t=0.54
0.9307606904696906
% es.EY (V/m) @ t=0.54
0.22548926871807806
% es.EZ (V/m) @ t=0.54
2.859315502116128
% es.tEX (V/m) @ t=0.54
0.9307606904696968
% es.tEY (V/m) @ t=0.54
0
% es.tEZ (V/m) @ t=0.54
2.859315502116125
% es.Ex (V/m) @ t=0.54
0.9307606904696906
% es.Ey (V/m) @ t=0.54
0.22548926871807806
% es.Ez (V/m) @ t=0.54
2.859315502116128
% es.tEx (V/m) @ t=0.54
0.9307606904696968
% es.tEy (V/m) @ t=0.54
0
% es.tEz (V/m) @ t=0.54
2.859315502116125
% V (V) @ t=0.54
0.014103308365029835
% es.normE (V/m) @ t=0.56
3.0583696132392806
% es.EX (V/m) @ t=0.56
0.9440071119000628
% es.EY (V/m) @ t=0.56
0.22869838884993432
% es.EZ (V/m) @ t=0.56
2.900008755232916
% es.tEX (V/m) @ t=0.56
0.9440071119000635
% es.tEY (V/m) @ t=0.56
0
% es.tEZ (V/m) @ t=0.56
2.9000087552329106
% es.Ex (V/m) @ t=0.56
0.9440071119000628
% es.Ey (V/m) @ t=0.56
0.22869838884993432
% es.Ez (V/m) @ t=0.56
2.900008755232916
% es.tEx (V/m) @ t=0.56
0.9440071119000635
% es.tEy (V/m) @ t=0.56
0
% es.tEz (V/m) @ t=0.56
2.9000087552329106
% V (V) @ t=0.56
0.014304023476526446
% es.normE (V/m) @ t=0.58
3.102043690085266
% es.EX (V/m) @ t=0.58
0.9574877006516567
% es.EY (V/m) @ t=0.58
0.23196424541634353
% es.EZ (V/m) @ t=0.58
2.9414214116733346
% es.tEX (V/m) @ t=0.58
0.9574877006516687
% es.tEY (V/m) @ t=0.58
0
% es.tEZ (V/m) @ t=0.58
2.941421411673325
% es.Ex (V/m) @ t=0.58
0.9574877006516567
% es.Ey (V/m) @ t=0.58
0.23196424541634353
% es.Ez (V/m) @ t=0.58
2.9414214116733346
% es.tEx (V/m) @ t=0.58
0.9574877006516687
% es.tEy (V/m) @ t=0.58
0
% es.tEz (V/m) @ t=0.58
2.941421411673325
% V (V) @ t=0.58
0.014508288127204085
% es.normE (V/m) @ t=0.6
3.1461369629401674
% es.EX (V/m) @ t=0.6
0.9710976739148784
% es.EY (V/m) @ t=0.6
0.23526145057505032
% es.EZ (V/m) @ t=0.6
2.9832315601600126
% es.tEX (V/m) @ t=0.6
0.9710976739148833
% es.tEY (V/m) @ t=0.6
0
% es.tEZ (V/m) @ t=0.6
2.983231560160025
% es.Ex (V/m) @ t=0.6
0.9710976739148784
% es.Ey (V/m) @ t=0.6
0.23526145057505032
% es.Ez (V/m) @ t=0.6
2.9832315601600126
% es.tEx (V/m) @ t=0.6
0.9710976739148833
% es.tEy (V/m) @ t=0.6
0
% es.tEz (V/m) @ t=0.6
2.983231560160025
% V (V) @ t=0.6
0.014714514005396261
% es.normE (V/m) @ t=0.62
3.1906494318039527
% es.EX (V/m) @ t=0.62
0.9848370316897048
% es.EY (V/m) @ t=0.62
0.23859000432597122
% es.EZ (V/m) @ t=0.62
3.0254392006929285
% es.tEX (V/m) @ t=0.62
0.9848370316897075
% es.tEY (V/m) @ t=0.62
0
% es.tEZ (V/m) @ t=0.62
3.025439200692947
% es.Ex (V/m) @ t=0.62
0.9848370316897048
% es.Ey (V/m) @ t=0.62
0.23859000432597122
% es.Ez (V/m) @ t=0.62
3.0254392006929285
% es.tEx (V/m) @ t=0.62
0.9848370316897075
% es.tEy (V/m) @ t=0.62
0
% es.tEz (V/m) @ t=0.62
3.025439200692947
% V (V) @ t=0.62
0.014922701111102978
% es.normE (V/m) @ t=0.64
3.2355810966766905
% es.EX (V/m) @ t=0.64
0.9987057739761351
% es.EY (V/m) @ t=0.64
0.24194990666922211
% es.EZ (V/m) @ t=0.64
3.0680443332721463
% es.tEX (V/m) @ t=0.64
0.9987057739761411
% es.tEY (V/m) @ t=0.64
0
% es.tEZ (V/m) @ t=0.64
3.0680443332721588
% es.Ex (V/m) @ t=0.64
0.9987057739761351
% es.Ey (V/m) @ t=0.64
0.24194990666922211
% es.Ez (V/m) @ t=0.64
3.0680443332721463
% es.tEx (V/m) @ t=0.64
0.9987057739761411
% es.tEy (V/m) @ t=0.64
0
% es.tEz (V/m) @ t=0.64
3.0680443332721588
% V (V) @ t=0.64
0.01513284944432423
% es.normE (V/m) @ t=0.66
3.280931957558314
% es.EX (V/m) @ t=0.66
1.012703900774198
% es.EY (V/m) @ t=0.66
0.24534115760468578
% es.EZ (V/m) @ t=0.66
3.111046957897595
% es.tEX (V/m) @ t=0.66
1.0127039007741985
% es.tEY (V/m) @ t=0.66
0
% es.tEZ (V/m) @ t=0.66
3.111046957897596
% es.Ex (V/m) @ t=0.66
1.012703900774198
% es.Ey (V/m) @ t=0.66
0.24534115760468578
% es.Ez (V/m) @ t=0.66
3.111046957897595
% es.tEx (V/m) @ t=0.66
1.0127039007741985
% es.tEy (V/m) @ t=0.66
0
% es.tEz (V/m) @ t=0.66
3.111046957897596
% V (V) @ t=0.66
0.015344959005060024
% es.normE (V/m) @ t=0.68
3.326702014448877
% es.EX (V/m) @ t=0.68
1.0268314120838764
% es.EY (V/m) @ t=0.68
0.24876375713243593
% es.EZ (V/m) @ t=0.68
3.1544470745693314
% es.tEX (V/m) @ t=0.68
1.0268314120838795
% es.tEY (V/m) @ t=0.68
0
% es.tEZ (V/m) @ t=0.68
3.1544470745693474
% es.Ex (V/m) @ t=0.68
1.0268314120838764
% es.Ey (V/m) @ t=0.68
0.24876375713243593
% es.Ez (V/m) @ t=0.68
3.1544470745693314
% es.tEx (V/m) @ t=0.68
1.0268314120838795
% es.tEy (V/m) @ t=0.68
0
% es.tEz (V/m) @ t=0.68
3.1544470745693474
% V (V) @ t=0.68
0.015559029793310357
% es.normE (V/m) @ t=0.7
3.37289126734831
% es.EX (V/m) @ t=0.7
1.0410883079051534
% es.EY (V/m) @ t=0.7
0.25221770525247766
% es.EZ (V/m) @ t=0.7
3.198244683287287
% es.tEX (V/m) @ t=0.7
1.0410883079051558
% es.tEY (V/m) @ t=0.7
0
% es.tEZ (V/m) @ t=0.7
3.198244683287296
% es.Ex (V/m) @ t=0.7
1.0410883079051534
% es.Ey (V/m) @ t=0.7
0.25221770525247766
% es.Ez (V/m) @ t=0.7
3.198244683287287
% es.tEx (V/m) @ t=0.7
1.0410883079051558
% es.tEy (V/m) @ t=0.7
0
% es.tEz (V/m) @ t=0.7
3.198244683287296
% V (V) @ t=0.7
0.015775061809075223
% es.normE (V/m) @ t=0.72
3.419499716256698
% es.EX (V/m) @ t=0.72
1.0554745882380563
% es.EY (V/m) @ t=0.72
0.2557030019647253
% es.EZ (V/m) @ t=0.72
3.242439784051549
% es.tEX (V/m) @ t=0.72
1.0554745882380558
% es.tEY (V/m) @ t=0.72
0
% es.tEZ (V/m) @ t=0.72
3.2424397840515553
% es.Ex (V/m) @ t=0.72
1.0554745882380563
% es.Ey (V/m) @ t=0.72
0.2557030019647253
% es.Ez (V/m) @ t=0.72
3.242439784051549
% es.tEx (V/m) @ t=0.72
1.0554745882380558
% es.tEy (V/m) @ t=0.72
0
% es.tEz (V/m) @ t=0.72
3.2424397840515553
% V (V) @ t=0.72
0.015993055052354634
% es.normE (V/m) @ t=0.74
3.4665273611739753
% es.EX (V/m) @ t=0.74
1.069990253082548
% es.EY (V/m) @ t=0.74
0.2592196472692645
% es.EZ (V/m) @ t=0.74
3.2870323768620526
% es.tEX (V/m) @ t=0.74
1.0699902530825511
% es.tEY (V/m) @ t=0.74
0
% es.tEZ (V/m) @ t=0.74
3.287032376862058
% es.Ex (V/m) @ t=0.74
1.069990253082548
% es.Ey (V/m) @ t=0.74
0.2592196472692645
% es.Ez (V/m) @ t=0.74
3.2870323768620526
% es.tEx (V/m) @ t=0.74
1.0699902530825511
% es.tEy (V/m) @ t=0.74
0
% es.tEz (V/m) @ t=0.74
3.287032376862058
% V (V) @ t=0.74
0.016213009523148584
% es.normE (V/m) @ t=0.76
3.513974202100167
% es.EX (V/m) @ t=0.76
1.08463530243868
% es.EY (V/m) @ t=0.76
0.26276764116610796
% es.EZ (V/m) @ t=0.76
3.3320224617188066
% es.tEX (V/m) @ t=0.76
1.0846353024386701
% es.tEY (V/m) @ t=0.76
0
% es.tEZ (V/m) @ t=0.76
3.3320224617188146
% es.Ex (V/m) @ t=0.76
1.08463530243868
% es.Ey (V/m) @ t=0.76
0.26276764116610796
% es.Ez (V/m) @ t=0.76
3.3320224617188066
% es.tEx (V/m) @ t=0.76
1.0846353024386701
% es.tEy (V/m) @ t=0.76
0
% es.tEz (V/m) @ t=0.76
3.3320224617188146
% V (V) @ t=0.76
0.016434925221457064
% es.normE (V/m) @ t=0.78
3.5618402390352992
% es.EX (V/m) @ t=0.78
1.0994097363064117
% es.EY (V/m) @ t=0.78
0.2663469836551995
% es.EZ (V/m) @ t=0.78
3.377410038621857
% es.tEX (V/m) @ t=0.78
1.0994097363064128
% es.tEY (V/m) @ t=0.78
0
% es.tEZ (V/m) @ t=0.78
3.377410038621857
% es.Ex (V/m) @ t=0.78
1.0994097363064117
% es.Ey (V/m) @ t=0.78
0.2663469836551995
% es.Ez (V/m) @ t=0.78
3.377410038621857
% es.tEx (V/m) @ t=0.78
1.0994097363064128
% es.tEy (V/m) @ t=0.78
0
% es.tEz (V/m) @ t=0.78
3.377410038621857
% V (V) @ t=0.78
0.016658802147280095
% es.normE (V/m) @ t=0.8
3.6101254719793046
% es.EX (V/m) @ t=0.8
1.11431355468578
% es.EY (V/m) @ t=0.8
0.26995767473649823
% es.EZ (V/m) @ t=0.8
3.4231951075711216
% es.tEX (V/m) @ t=0.8
1.114313554685765
% es.tEY (V/m) @ t=0.8
0
% es.tEZ (V/m) @ t=0.8
3.423195107571125
% es.Ex (V/m) @ t=0.8
1.11431355468578
% es.Ey (V/m) @ t=0.8
0.26995767473649823
% es.Ez (V/m) @ t=0.8
3.4231951075711216
% es.tEx (V/m) @ t=0.8
1.114313554685765
% es.tEy (V/m) @ t=0.8
0
% es.tEz (V/m) @ t=0.8
3.423195107571125
% V (V) @ t=0.8
0.016884640300617655
% es.normE (V/m) @ t=0.82
3.658939652404949
% es.EX (V/m) @ t=0.82
1.1293806754713978
% es.EY (V/m) @ t=0.82
0.2736079075485336
% es.EZ (V/m) @ t=0.82
3.469481724688542
% es.tEX (V/m) @ t=0.82
1.1293806754714097
% es.tEY (V/m) @ t=0.82
0
% es.tEZ (V/m) @ t=0.82
3.469481724688542
% es.Ex (V/m) @ t=0.82
1.1293806754713978
% es.Ey (V/m) @ t=0.82
0.2736079075485336
% es.Ez (V/m) @ t=0.82
3.469481724688542
% es.tEx (V/m) @ t=0.82
1.1293806754714097
% es.tEy (V/m) @ t=0.82
0
% es.tEz (V/m) @ t=0.82
3.469481724688542
% V (V) @ t=0.82
0.01711294856970287
% es.normE (V/m) @ t=0.84
3.7089448872825375
% es.EX (V/m) @ t=0.84
1.144815718008468
% es.EY (V/m) @ t=0.84
0.27734710952842945
% es.EZ (V/m) @ t=0.84
3.5168976381208585
% es.tEX (V/m) @ t=0.84
1.1448157180084735
% es.tEY (V/m) @ t=0.84
0
% es.tEZ (V/m) @ t=0.84
3.5168976381208665
% es.Ex (V/m) @ t=0.84
1.144815718008468
% es.Ey (V/m) @ t=0.84
0.27734710952842945
% es.Ez (V/m) @ t=0.84
3.5168976381208585
% es.tEx (V/m) @ t=0.84
1.1448157180084735
% es.tEy (V/m) @ t=0.84
0
% es.tEz (V/m) @ t=0.84
3.5168976381208665
% V (V) @ t=0.84
0.01734679696752051
% es.normE (V/m) @ t=0.86
3.7594877508965814
% es.EX (V/m) @ t=0.86
1.160416745830471
% es.EY (V/m) @ t=0.86
0.2811265013097086
% es.EZ (V/m) @ t=0.86
3.564823330478376
% es.tEX (V/m) @ t=0.86
1.1604167458304744
% es.tEY (V/m) @ t=0.86
0
% es.tEZ (V/m) @ t=0.86
3.564823330478397
% es.Ex (V/m) @ t=0.86
1.160416745830471
% es.Ey (V/m) @ t=0.86
0.2811265013097086
% es.Ez (V/m) @ t=0.86
3.564823330478376
% es.tEx (V/m) @ t=0.86
1.1604167458304744
% es.tEy (V/m) @ t=0.86
0
% es.tEz (V/m) @ t=0.86
3.564823330478397
% V (V) @ t=0.86
0.017583155733743347
% es.normE (V/m) @ t=0.88
3.810568243247208
% es.EX (V/m) @ t=0.88
1.1761837589374848
% es.EY (V/m) @ t=0.88
0.28494608289242485
% es.EZ (V/m) @ t=0.88
3.613258801761188
% es.tEX (V/m) @ t=0.88
1.1761837589374835
% es.tEY (V/m) @ t=0.88
0
% es.tEZ (V/m) @ t=0.88
3.6132588017611873
% es.Ex (V/m) @ t=0.88
1.1761837589374848
% es.Ey (V/m) @ t=0.88
0.28494608289242485
% es.Ez (V/m) @ t=0.88
3.613258801761188
% es.tEx (V/m) @ t=0.88
1.1761837589374835
% es.tEy (V/m) @ t=0.88
0
% es.tEz (V/m) @ t=0.88
3.6132588017611873
% V (V) @ t=0.88
0.017822024868371374
% es.normE (V/m) @ t=0.9
3.862186364334235
% es.EX (V/m) @ t=0.9
1.1921167573294493
% es.EY (V/m) @ t=0.9
0.2888058542766072
% es.EZ (V/m) @ t=0.9
3.662204051969109
% es.tEX (V/m) @ t=0.9
1.1921167573294582
% es.tEY (V/m) @ t=0.9
0
% es.tEZ (V/m) @ t=0.9
3.662204051969134
% es.Ex (V/m) @ t=0.9
1.1921167573294493
% es.Ey (V/m) @ t=0.9
0.2888058542766072
% es.Ez (V/m) @ t=0.9
3.662204051969109
% es.tEx (V/m) @ t=0.9
1.1921167573294582
% es.tEy (V/m) @ t=0.9
0
% es.tEz (V/m) @ t=0.9
3.662204051969134
% V (V) @ t=0.9
0.018063404371404603
% es.normE (V/m) @ t=0.92
3.9143421141578676
% es.EX (V/m) @ t=0.92
1.2082157410063663
% es.EY (V/m) @ t=0.92
0.29270581546214647
% es.EZ (V/m) @ t=0.92
3.7116590811023498
% es.tEX (V/m) @ t=0.92
1.2082157410063843
% es.tEY (V/m) @ t=0.92
0
% es.tEZ (V/m) @ t=0.92
3.711659081102365
% es.Ex (V/m) @ t=0.92
1.2082157410063663
% es.Ey (V/m) @ t=0.92
0.29270581546214647
% es.Ez (V/m) @ t=0.92
3.7116590811023498
% es.tEx (V/m) @ t=0.92
1.2082157410063843
% es.tEy (V/m) @ t=0.92
0
% es.tEz (V/m) @ t=0.92
3.711659081102365
% V (V) @ t=0.92
0.01830729424284302
% es.normE (V/m) @ t=0.94
3.967035492718029
% es.EX (V/m) @ t=0.94
1.224480709968286
% es.EY (V/m) @ t=0.94
0.2966459664491481
% es.EZ (V/m) @ t=0.94
3.761623889160793
% es.tEX (V/m) @ t=0.94
1.2244807099682902
% es.tEY (V/m) @ t=0.94
0
% es.tEZ (V/m) @ t=0.94
3.7616238891607914
% es.Ex (V/m) @ t=0.94
1.224480709968286
% es.Ey (V/m) @ t=0.94
0.2966459664491481
% es.Ez (V/m) @ t=0.94
3.761623889160793
% es.tEx (V/m) @ t=0.94
1.2244807099682902
% es.tEy (V/m) @ t=0.94
0
% es.tEz (V/m) @ t=0.94
3.7616238891607914
% V (V) @ t=0.94
0.018553694482686636
% es.normE (V/m) @ t=0.96
4.020266500014712
% es.EX (V/m) @ t=0.96
1.240911664215127
% es.EY (V/m) @ t=0.96
0.3006263072375801
% es.EZ (V/m) @ t=0.96
3.8120984761444454
% es.tEX (V/m) @ t=0.96
1.2409116642151474
% es.tEY (V/m) @ t=0.96
0
% es.tEZ (V/m) @ t=0.96
3.812098476144442
% es.Ex (V/m) @ t=0.96
1.240911664215127
% es.Ey (V/m) @ t=0.96
0.3006263072375801
% es.Ez (V/m) @ t=0.96
3.8120984761444454
% es.tEx (V/m) @ t=0.96
1.2409116642151474
% es.tEy (V/m) @ t=0.96
0
% es.tEz (V/m) @ t=0.96
3.812098476144442
% V (V) @ t=0.96
0.01880260509093545
% es.normE (V/m) @ t=0.98
4.074035136047944
% es.EX (V/m) @ t=0.98
1.2575086037469665
% es.EY (V/m) @ t=0.98
0.3046468378273963
% es.EZ (V/m) @ t=0.98
3.863082842053302
% es.tEX (V/m) @ t=0.98
1.2575086037469845
% es.tEY (V/m) @ t=0.98
0
% es.tEZ (V/m) @ t=0.98
3.8630828420533376
% es.Ex (V/m) @ t=0.98
1.2575086037469665
% es.Ey (V/m) @ t=0.98
0.3046468378273963
% es.Ez (V/m) @ t=0.98
3.863082842053302
% es.tEx (V/m) @ t=0.98
1.2575086037469845
% es.tEy (V/m) @ t=0.98
0
% es.tEz (V/m) @ t=0.98
3.8630828420533376
% V (V) @ t=0.98
0.019054026067589453
% es.normE (V/m) @ t=1
4.1283414008178045
% es.EX (V/m) @ t=1
1.2742715285637756
% es.EY (V/m) @ t=1
0.30870755821868023
% es.EZ (V/m) @ t=1
3.9145769868874316
% es.tEX (V/m) @ t=1
1.274271528563773
% es.tEY (V/m) @ t=1
0
% es.tEZ (V/m) @ t=1
3.914576986887436
% es.Ex (V/m) @ t=1
1.2742715285637756
% es.Ey (V/m) @ t=1
0.30870755821868023
% es.Ez (V/m) @ t=1
3.9145769868874316
% es.tEx (V/m) @ t=1
1.274271528563773
% es.tEy (V/m) @ t=1
0
% es.tEz (V/m) @ t=1
3.914576986887436
% V (V) @ t=1
0.019307957412648655
% es.normE (V/m) @ t=1.02
4.1831852943241845
% es.EX (V/m) @ t=1.02
1.2912004386655378
% es.EY (V/m) @ t=1.02
0.3128084684114161
% es.EZ (V/m) @ t=1.02
3.966580910646713
% es.tEX (V/m) @ t=1.02
1.2912004386655411
% es.tEY (V/m) @ t=1.02
0
% es.tEZ (V/m) @ t=1.02
3.9665809106467513
% es.Ex (V/m) @ t=1.02
1.2912004386655378
% es.Ey (V/m) @ t=1.02
0.3128084684114161
% es.Ez (V/m) @ t=1.02
3.966580910646713
% es.tEx (V/m) @ t=1.02
1.2912004386655411
% es.tEy (V/m) @ t=1.02
0
% es.tEz (V/m) @ t=1.02
3.9665809106467513
% V (V) @ t=1.02
0.019564399126113057
% es.normE (V/m) @ t=1.04
4.238566816567253
% es.EX (V/m) @ t=1.04
1.3082953340522745
% es.EY (V/m) @ t=1.04
0.3169495684054675
% es.EZ (V/m) @ t=1.04
4.019094613331311
% es.tEX (V/m) @ t=1.04
1.308295334052275
% es.tEY (V/m) @ t=1.04
0
% es.tEZ (V/m) @ t=1.04
4.01909461333133
% es.Ex (V/m) @ t=1.04
1.3082953340522745
% es.Ey (V/m) @ t=1.04
0.3169495684054675
% es.Ez (V/m) @ t=1.04
4.019094613331311
% es.tEx (V/m) @ t=1.04
1.308295334052275
% es.tEy (V/m) @ t=1.04
0
% es.tEz (V/m) @ t=1.04
4.01909461333133