% Model:              1 neuron.mph
% Version:            COMSOL 6.0.0.405
% Date:               Mar 16 2023, 19:07
% Dimension:          0
% Nodes:              14017
% Expressions:        14017
% Description:        Electric field norm, Electric field, X component, Electric field, Y component, Electric field, Z component, Tangential electric field, X component, Tangential electric field, Y component, Tangential electric field, Z component, Electric field, x component, Electric field, y component, Electric field, z component, Tangential electric field, x component, Tangential electric field, y component, Tangential electric field, z component, Electric potential
% Length unit:        mm
% x
2
% y
12.2
% z
1
% es.normE (V/m) @ t=0
1.1501698754522582
% es.EX (V/m) @ t=0
-0.7427652157142257
% es.EY (V/m) @ t=0
0.1650243969918983
% es.EZ (V/m) @ t=0
0.8470928785245357
% es.tEX (V/m) @ t=0
-0.742765215714223
% es.tEY (V/m) @ t=0
0
% es.tEZ (V/m) @ t=0
0.8470928785245508
% es.Ex (V/m) @ t=0
-0.7427652157142257
% es.Ey (V/m) @ t=0
0.1650243969918983
% es.Ez (V/m) @ t=0
0.8470928785245357
% es.tEx (V/m) @ t=0
-0.742765215714223
% es.tEy (V/m) @ t=0
0
% es.tEz (V/m) @ t=0
0.8470928785245508
% V (V) @ t=0
0.011131403992493124
% es.normE (V/m) @ t=0.02
0.9989326564453743
% es.EX (V/m) @ t=0.02
-0.645098122657964
% es.EY (V/m) @ t=0.02
0.1433251499184115
% es.EZ (V/m) @ t=0.02
0.7357076150498383
% es.tEX (V/m) @ t=0.02
-0.6450981226579582
% es.tEY (V/m) @ t=0.02
0
% es.tEZ (V/m) @ t=0.02
0.7357076150498463
% es.Ex (V/m) @ t=0.02
-0.645098122657964
% es.Ey (V/m) @ t=0.02
0.1433251499184115
% es.Ez (V/m) @ t=0.02
0.7357076150498383
% es.tEx (V/m) @ t=0.02
-0.6450981226579582
% es.tEy (V/m) @ t=0.02
0
% es.tEz (V/m) @ t=0.02
0.7357076150498463
% V (V) @ t=0.02
0.009667721570104072
% es.normE (V/m) @ t=0.04
1.013746645604678
% es.EX (V/m) @ t=0.04
-0.6546648082936779
% es.EY (V/m) @ t=0.04
0.14545064341125502
% es.EZ (V/m) @ t=0.04
0.7466180224708152
% es.tEX (V/m) @ t=0.04
-0.6546648082936757
% es.tEY (V/m) @ t=0.04
0
% es.tEZ (V/m) @ t=0.04
0.7466180224708223
% es.Ex (V/m) @ t=0.04
-0.6546648082936779
% es.Ey (V/m) @ t=0.04
0.14545064341125502
% es.Ez (V/m) @ t=0.04
0.7466180224708152
% es.tEx (V/m) @ t=0.04
-0.6546648082936757
% es.tEy (V/m) @ t=0.04
0
% es.tEz (V/m) @ t=0.04
0.7466180224708223
% V (V) @ t=0.04
0.009811091508767685
% es.normE (V/m) @ t=0.06
1.0287767334461342
% es.EX (V/m) @ t=0.06
-0.6643710519734178
% es.EY (V/m) @ t=0.06
0.14760712529571374
% es.EZ (V/m) @ t=0.06
0.7576875904930498
% es.tEX (V/m) @ t=0.06
-0.664371051973419
% es.tEY (V/m) @ t=0.06
0
% es.tEZ (V/m) @ t=0.06
0.757687590493064
% es.Ex (V/m) @ t=0.06
-0.6643710519734178
% es.Ey (V/m) @ t=0.06
0.14760712529571374
% es.Ez (V/m) @ t=0.06
0.7576875904930498
% es.tEx (V/m) @ t=0.06
-0.664371051973419
% es.tEy (V/m) @ t=0.06
0
% es.tEz (V/m) @ t=0.06
0.757687590493064
% V (V) @ t=0.06
0.009956554225482613
% es.normE (V/m) @ t=0.08
1.0442049787933705
% es.EX (V/m) @ t=0.08
-0.6743344191279459
% es.EY (V/m) @ t=0.08
0.14982074064760997
% es.EZ (V/m) @ t=0.08
0.7690503969545492
% es.tEX (V/m) @ t=0.08
-0.6743344191279435
% es.tEY (V/m) @ t=0.08
0
% es.tEZ (V/m) @ t=0.08
0.7690503969545608
% es.Ex (V/m) @ t=0.08
-0.6743344191279459
% es.Ey (V/m) @ t=0.08
0.14982074064760997
% es.Ez (V/m) @ t=0.08
0.7690503969545492
% es.tEx (V/m) @ t=0.08
-0.6743344191279435
% es.tEy (V/m) @ t=0.08
0
% es.tEz (V/m) @ t=0.08
0.7690503969545608
% V (V) @ t=0.08
0.010105869813709544
% es.normE (V/m) @ t=0.1
1.0598802708364763
% es.EX (V/m) @ t=0.1
-0.6844573249171966
% es.EY (V/m) @ t=0.1
0.15206980587590002
% es.EZ (V/m) @ t=0.1
0.7805951504758664
% es.tEX (V/m) @ t=0.1
-0.6844573249171906
% es.tEY (V/m) @ t=0.1
0
% es.tEZ (V/m) @ t=0.1
0.7805951504758672
% es.Ex (V/m) @ t=0.1
-0.6844573249171966
% es.Ey (V/m) @ t=0.1
0.15206980587590002
% es.Ez (V/m) @ t=0.1
0.7805951504758664
% es.tEx (V/m) @ t=0.1
-0.6844573249171906
% es.tEy (V/m) @ t=0.1
0
% es.tEz (V/m) @ t=0.1
0.7805951504758672
% V (V) @ t=0.1
0.010257576011589487
% es.normE (V/m) @ t=0.12
1.0755555628795905
% es.EX (V/m) @ t=0.12
-0.6945802307064359
% es.EY (V/m) @ t=0.12
0.1543188711041642
% es.EZ (V/m) @ t=0.12
0.7921399039972092
% es.tEX (V/m) @ t=0.12
-0.6945802307064302
% es.tEY (V/m) @ t=0.12
0
% es.tEZ (V/m) @ t=0.12
0.7921399039972101
% es.Ex (V/m) @ t=0.12
-0.6945802307064359
% es.Ey (V/m) @ t=0.12
0.1543188711041642
% es.Ez (V/m) @ t=0.12
0.7921399039972092
% es.tEx (V/m) @ t=0.12
-0.6945802307064302
% es.tEy (V/m) @ t=0.12
0
% es.tEz (V/m) @ t=0.12
0.7921399039972101
% V (V) @ t=0.12
0.010409282209469429
% es.normE (V/m) @ t=0.14
1.0915720108987386
% es.EX (V/m) @ t=0.14
-0.7049234495219128
% es.EY (V/m) @ t=0.14
0.15661688966127862
% es.EZ (V/m) @ t=0.14
0.8039359152495891
% es.tEX (V/m) @ t=0.14
-0.7049234495219103
% es.tEY (V/m) @ t=0.14
0
% es.tEZ (V/m) @ t=0.14
0.8039359152495962
% es.Ex (V/m) @ t=0.14
-0.7049234495219128
% es.Ey (V/m) @ t=0.14
0.15661688966127862
% es.Ez (V/m) @ t=0.14
0.8039359152495891
% es.tEx (V/m) @ t=0.14
-0.7049234495219103
% es.tEy (V/m) @ t=0.14
0
% es.tEz (V/m) @ t=0.14
0.8039359152495962
% V (V) @ t=0.14
0.01056428974264649
% es.normE (V/m) @ t=0.16
1.108644978761546
% es.EX (V/m) @ t=0.16
-0.7159489518099715
% es.EY (V/m) @ t=0.16
0.15906651090731982
% es.EZ (V/m) @ t=0.16
0.816510042077792
% es.tEX (V/m) @ t=0.16
-0.7159489518099691
% es.tEY (V/m) @ t=0.16
0
% es.tEZ (V/m) @ t=0.16
0.8165100420777929
% es.Ex (V/m) @ t=0.16
-0.7159489518099715
% es.Ey (V/m) @ t=0.16
0.15906651090731982
% es.Ez (V/m) @ t=0.16
0.816510042077792
% es.tEx (V/m) @ t=0.16
-0.7159489518099691
% es.tEy (V/m) @ t=0.16
0
% es.tEz (V/m) @ t=0.16
0.8165100420777929
% V (V) @ t=0.16
0.01072952112209008
% es.normE (V/m) @ t=0.18
1.1257179466243414
% es.EX (V/m) @ t=0.18
-0.7269744540980272
% es.EY (V/m) @ t=0.18
0.16151613215338045
% es.EZ (V/m) @ t=0.18
0.8290841689059674
% es.tEX (V/m) @ t=0.18
-0.7269744540980247
% es.tEY (V/m) @ t=0.18
0
% es.tEZ (V/m) @ t=0.18
0.8290841689059754
% es.Ex (V/m) @ t=0.18
-0.7269744540980272
% es.Ey (V/m) @ t=0.18
0.16151613215338045
% es.Ez (V/m) @ t=0.18
0.8290841689059674
% es.tEx (V/m) @ t=0.18
-0.7269744540980247
% es.tEy (V/m) @ t=0.18
0
% es.tEz (V/m) @ t=0.18
0.8290841689059754
% V (V) @ t=0.18
0.010894752501533673
% es.normE (V/m) @ t=0.2
1.142790914487143
% es.EX (V/m) @ t=0.2
-0.7379999563860864
% es.EY (V/m) @ t=0.2
0.1639657533994342
% es.EZ (V/m) @ t=0.2
0.8416582957341525
% es.tEX (V/m) @ t=0.2
-0.7379999563860873
% es.tEY (V/m) @ t=0.2
0
% es.tEZ (V/m) @ t=0.2
0.8416582957341632
% es.Ex (V/m) @ t=0.2
-0.7379999563860864
% es.Ey (V/m) @ t=0.2
0.1639657533994342
% es.Ez (V/m) @ t=0.2
0.8416582957341525
% es.tEx (V/m) @ t=0.2
-0.7379999563860873
% es.tEy (V/m) @ t=0.2
0
% es.tEz (V/m) @ t=0.2
0.8416582957341632
% V (V) @ t=0.2
0.011059983880977266
% es.normE (V/m) @ t=0.22
1.1598638823499434
% es.EX (V/m) @ t=0.22
-0.7490254586741418
% es.EY (V/m) @ t=0.22
0.16641537464548073
% es.EZ (V/m) @ t=0.22
0.8542324225623377
% es.tEX (V/m) @ t=0.22
-0.7490254586741429
% es.tEY (V/m) @ t=0.22
0
% es.tEZ (V/m) @ t=0.22
0.8542324225623528
% es.Ex (V/m) @ t=0.22
-0.7490254586741418
% es.Ey (V/m) @ t=0.22
0.16641537464548073
% es.Ez (V/m) @ t=0.22
0.8542324225623377
% es.tEx (V/m) @ t=0.22
-0.7490254586741429
% es.tEy (V/m) @ t=0.22
0
% es.tEz (V/m) @ t=0.22
0.8542324225623528
% V (V) @ t=0.22
0.011225215260420859
% es.normE (V/m) @ t=0.24
1.1769368502127473
% es.EX (V/m) @ t=0.24
-0.7600509609621933
% es.EY (V/m) @ t=0.24
0.16886499589152182
% es.EZ (V/m) @ t=0.24
0.8668065493905308
% es.tEX (V/m) @ t=0.24
-0.7600509609621942
% es.tEY (V/m) @ t=0.24
0
% es.tEZ (V/m) @ t=0.24
0.8668065493905424
% es.Ex (V/m) @ t=0.24
-0.7600509609621933
% es.Ey (V/m) @ t=0.24
0.16886499589152182
% es.Ez (V/m) @ t=0.24
0.8668065493905308
% es.tEx (V/m) @ t=0.24
-0.7600509609621942
% es.tEy (V/m) @ t=0.24
0
% es.tEz (V/m) @ t=0.24
0.8668065493905424
% V (V) @ t=0.24
0.01139044663986445
% es.normE (V/m) @ t=0.26
1.1940098180755672
% es.EX (V/m) @ t=0.26
-0.7710764632502556
% es.EY (V/m) @ t=0.26
0.17131461713758256
% es.EZ (V/m) @ t=0.26
0.8793806762187311
% es.tEX (V/m) @ t=0.26
-0.7710764632502529
% es.tEY (V/m) @ t=0.26
0
% es.tEZ (V/m) @ t=0.26
0.8793806762187453
% es.Ex (V/m) @ t=0.26
-0.7710764632502556
% es.Ey (V/m) @ t=0.26
0.17131461713758256
% es.Ez (V/m) @ t=0.26
0.8793806762187311
% es.tEx (V/m) @ t=0.26
-0.7710764632502529
% es.tEy (V/m) @ t=0.26
0
% es.tEz (V/m) @ t=0.26
0.8793806762187453
% V (V) @ t=0.26
0.011555678019308043
% es.normE (V/m) @ t=0.28
1.2118338568824907
% es.EX (V/m) @ t=0.28
-0.7825869985488247
% es.EY (V/m) @ t=0.28
0.17387199732885505
% es.EZ (V/m) @ t=0.28
0.8925079631454675
% es.tEX (V/m) @ t=0.28
-0.7825869985488256
% es.tEY (V/m) @ t=0.28
0
% es.tEZ (V/m) @ t=0.28
0.8925079631454684
% es.Ex (V/m) @ t=0.28
-0.7825869985488247
% es.Ey (V/m) @ t=0.28
0.17387199732885505
% es.Ez (V/m) @ t=0.28
0.8925079631454675
% es.tEx (V/m) @ t=0.28
-0.7825869985488256
% es.tEy (V/m) @ t=0.28
0
% es.tEz (V/m) @ t=0.28
0.8925079631454684
% V (V) @ t=0.28
0.011728178577229253
% es.normE (V/m) @ t=0.3
1.2304148237158459
% es.EX (V/m) @ t=0.3
-0.794586349294574
% es.EY (V/m) @ t=0.3
0.17653797680272543
% es.EZ (V/m) @ t=0.3
0.9061927238833949
% es.tEX (V/m) @ t=0.3
-0.7945863492945713
% es.tEY (V/m) @ t=0.3
0
% es.tEZ (V/m) @ t=0.3
0.9061927238833922
% es.Ex (V/m) @ t=0.3
-0.794586349294574
% es.Ey (V/m) @ t=0.3
0.17653797680272543
% es.Ez (V/m) @ t=0.3
0.9061927238833949
% es.tEx (V/m) @ t=0.3
-0.7945863492945713
% es.tEy (V/m) @ t=0.3
0
% es.tEz (V/m) @ t=0.3
0.9061927238833922
% V (V) @ t=0.3
0.011908005000918383
% es.normE (V/m) @ t=0.32
1.2489957905491909
% es.EX (V/m) @ t=0.32
-0.806585700040312
% es.EY (V/m) @ t=0.32
0.1792039562766118
% es.EZ (V/m) @ t=0.32
0.9198774846213142
% es.tEX (V/m) @ t=0.32
-0.8065857000403129
% es.tEY (V/m) @ t=0.32
0
% es.tEZ (V/m) @ t=0.32
0.9198774846213222
% es.Ex (V/m) @ t=0.32
-0.806585700040312
% es.Ey (V/m) @ t=0.32
0.1792039562766118
% es.Ez (V/m) @ t=0.32
0.9198774846213142
% es.tEx (V/m) @ t=0.32
-0.8065857000403129
% es.tEy (V/m) @ t=0.32
0
% es.tEz (V/m) @ t=0.32
0.9198774846213222
% V (V) @ t=0.32
0.012087831424607513
% es.normE (V/m) @ t=0.34
1.267576757382545
% es.EX (V/m) @ t=0.34
-0.818585050786047
% es.EY (V/m) @ t=0.34
0.1818699357504857
% es.EZ (V/m) @ t=0.34
0.9335622453592523
% es.tEX (V/m) @ t=0.34
-0.8185850507860479
% es.tEY (V/m) @ t=0.34
0
% es.tEZ (V/m) @ t=0.34
0.9335622453592531
% es.Ex (V/m) @ t=0.34
-0.818585050786047
% es.Ey (V/m) @ t=0.34
0.1818699357504857
% es.Ez (V/m) @ t=0.34
0.9335622453592523
% es.tEx (V/m) @ t=0.34
-0.8185850507860479
% es.tEy (V/m) @ t=0.34
0
% es.tEz (V/m) @ t=0.34
0.9335622453592531
% V (V) @ t=0.34
0.012267657848296643
% es.normE (V/m) @ t=0.36
1.2861577242158977
% es.EX (V/m) @ t=0.36
-0.8305844015317967
% es.EY (V/m) @ t=0.36
0.18453591522438284
% es.EZ (V/m) @ t=0.36
0.947247006097168
% es.tEX (V/m) @ t=0.36
-0.830584401531794
% es.tEY (V/m) @ t=0.36
0
% es.tEZ (V/m) @ t=0.36
0.947247006097176
% es.Ex (V/m) @ t=0.36
-0.8305844015317967
% es.Ey (V/m) @ t=0.36
0.18453591522438284
% es.Ez (V/m) @ t=0.36
0.947247006097168
% es.tEx (V/m) @ t=0.36
-0.830584401531794
% es.tEy (V/m) @ t=0.36
0
% es.tEz (V/m) @ t=0.36
0.947247006097176
% V (V) @ t=0.36
0.012447484271985772
% es.normE (V/m) @ t=0.38
1.3047386910492453
% es.EX (V/m) @ t=0.38
-0.8425837522775281
% es.EY (V/m) @ t=0.38
0.1872018946982532
% es.EZ (V/m) @ t=0.38
0.9609317668351016
% es.tEX (V/m) @ t=0.38
-0.8425837522775255
% es.tEY (V/m) @ t=0.38
0
% es.tEZ (V/m) @ t=0.38
0.9609317668351132
% es.Ex (V/m) @ t=0.38
-0.8425837522775281
% es.Ey (V/m) @ t=0.38
0.1872018946982532
% es.Ez (V/m) @ t=0.38
0.9609317668351016
% es.tEx (V/m) @ t=0.38
-0.8425837522775255
% es.tEy (V/m) @ t=0.38
0
% es.tEz (V/m) @ t=0.38
0.9609317668351132
% V (V) @ t=0.38
0.012627310695674899
% es.normE (V/m) @ t=0.4
1.3233196578826036
% es.EX (V/m) @ t=0.4
-0.8545831030232733
% es.EY (V/m) @ t=0.4
0.1898678741721449
% es.EZ (V/m) @ t=0.4
0.974616527573029
% es.tEX (V/m) @ t=0.4
-0.8545831030232738
% es.tEY (V/m) @ t=0.4
0
% es.tEZ (V/m) @ t=0.4
0.9746165275730361
% es.Ex (V/m) @ t=0.4
-0.8545831030232733
% es.Ey (V/m) @ t=0.4
0.1898678741721449
% es.Ez (V/m) @ t=0.4
0.974616527573029
% es.tEx (V/m) @ t=0.4
-0.8545831030232738
% es.tEy (V/m) @ t=0.4
0
% es.tEz (V/m) @ t=0.4
0.9746165275730361
% V (V) @ t=0.4
0.012807137119364032
% es.normE (V/m) @ t=0.42
1.343119461186711
% es.EX (V/m) @ t=0.42
-0.8673695612295638
% es.EY (V/m) @ t=0.42
0.19270873738000593
% es.EZ (V/m) @ t=0.42
0.9891989514839681
% es.tEX (V/m) @ t=0.42
-0.8673695612295611
% es.tEY (V/m) @ t=0.42
0
% es.tEZ (V/m) @ t=0.42
0.9891989514839761
% es.Ex (V/m) @ t=0.42
-0.8673695612295638
% es.Ey (V/m) @ t=0.42
0.19270873738000593
% es.Ez (V/m) @ t=0.42
0.9891989514839681
% es.tEx (V/m) @ t=0.42
-0.8673695612295611
% es.tEy (V/m) @ t=0.42
0
% es.tEz (V/m) @ t=0.42
0.9891989514839761
% V (V) @ t=0.42
0.012998758932600935
% es.normE (V/m) @ t=0.44
1.363321160997481
% es.EX (V/m) @ t=0.44
-0.8804155585507112
% es.EY (V/m) @ t=0.44
0.19560726637277137
% es.EZ (V/m) @ t=0.44
1.0040773689117044
% es.tEX (V/m) @ t=0.44
-0.8804155585507121
% es.tEY (V/m) @ t=0.44
0
% es.tEZ (V/m) @ t=0.44
1.0040773689117266
% es.Ex (V/m) @ t=0.44
-0.8804155585507112
% es.Ey (V/m) @ t=0.44
0.19560726637277137
% es.Ez (V/m) @ t=0.44
1.0040773689117044
% es.tEx (V/m) @ t=0.44
-0.8804155585507121
% es.tEy (V/m) @ t=0.44
0
% es.tEz (V/m) @ t=0.44
1.0040773689117266
% V (V) @ t=0.44
0.01319427013212375
% es.normE (V/m) @ t=0.46
1.3835228608082766
% es.EX (V/m) @ t=0.46
-0.893461555871863
% es.EY (V/m) @ t=0.46
0.19850579536554736
% es.EZ (V/m) @ t=0.46
1.0189557863394736
% es.tEX (V/m) @ t=0.46
-0.8934615558718595
% es.tEY (V/m) @ t=0.46
0
% es.tEZ (V/m) @ t=0.46
1.018955786339478
% es.Ex (V/m) @ t=0.46
-0.893461555871863
% es.Ey (V/m) @ t=0.46
0.19850579536554736
% es.Ez (V/m) @ t=0.46
1.0189557863394736
% es.tEx (V/m) @ t=0.46
-0.8934615558718595
% es.tEy (V/m) @ t=0.46
0
% es.tEz (V/m) @ t=0.46
1.018955786339478
% V (V) @ t=0.46
0.013389781331646559
% es.normE (V/m) @ t=0.48
1.4037245606190611
% es.EX (V/m) @ t=0.48
-0.9065075531930105
% es.EY (V/m) @ t=0.48
0.20140432435833233
% es.EZ (V/m) @ t=0.48
1.0338342037672206
% es.tEX (V/m) @ t=0.48
-0.9065075531930074
% es.tEY (V/m) @ t=0.48
0
% es.tEZ (V/m) @ t=0.48
1.0338342037672215
% es.Ex (V/m) @ t=0.48
-0.9065075531930105
% es.Ey (V/m) @ t=0.48
0.20140432435833233
% es.Ez (V/m) @ t=0.48
1.0338342037672206
% es.tEx (V/m) @ t=0.48
-0.9065075531930074
% es.tEy (V/m) @ t=0.48
0
% es.tEz (V/m) @ t=0.48
1.0338342037672215
% V (V) @ t=0.48
0.013585292531169375
% es.normE (V/m) @ t=0.5
1.4239262604298322
% es.EX (V/m) @ t=0.5
-0.919553550514161
% es.EY (V/m) @ t=0.5
0.20430285335109588
% es.EZ (V/m) @ t=0.5
1.0487126211949542
% es.tEX (V/m) @ t=0.5
-0.9195535505141583
% es.tEY (V/m) @ t=0.5
0
% es.tEZ (V/m) @ t=0.5
1.0487126211949658
% es.Ex (V/m) @ t=0.5
-0.919553550514161
% es.Ey (V/m) @ t=0.5
0.20430285335109588
% es.Ez (V/m) @ t=0.5
1.0487126211949542
% es.tEx (V/m) @ t=0.5
-0.9195535505141583
% es.tEy (V/m) @ t=0.5
0
% es.tEz (V/m) @ t=0.5
1.0487126211949658
% V (V) @ t=0.5
0.013780803730692185
% es.normE (V/m) @ t=0.52
1.4441279602406079
% es.EX (V/m) @ t=0.52
-0.9325995478353022
% es.EY (V/m) @ t=0.52
0.20720138234387375
% es.EZ (V/m) @ t=0.52
1.0635910386226977
% es.tEX (V/m) @ t=0.52
-0.9325995478352986
% es.tEY (V/m) @ t=0.52
0
% es.tEZ (V/m) @ t=0.52
1.0635910386227092
% es.Ex (V/m) @ t=0.52
-0.9325995478353022
% es.Ey (V/m) @ t=0.52
0.20720138234387375
% es.Ez (V/m) @ t=0.52
1.0635910386226977
% es.tEx (V/m) @ t=0.52
-0.9325995478352986
% es.tEy (V/m) @ t=0.52
0
% es.tEz (V/m) @ t=0.52
1.0635910386227092
% V (V) @ t=0.52
0.013976314930214999
% es.normE (V/m) @ t=0.54
1.4643337715614826
% es.EX (V/m) @ t=0.54
-0.9456482003779283
% es.EY (V/m) @ t=0.54
0.21010050100616395
% es.EZ (V/m) @ t=0.54
1.0784724842265936
% es.tEX (V/m) @ t=0.54
-0.9456482003779247
% es.tEY (V/m) @ t=0.54
0
% es.tEZ (V/m) @ t=0.54
1.0784724842266051
% es.Ex (V/m) @ t=0.54
-0.9456482003779283
% es.Ey (V/m) @ t=0.54
0.21010050100616395
% es.Ez (V/m) @ t=0.54
1.0784724842265936
% es.tEx (V/m) @ t=0.54
-0.9456482003779247
% es.tEy (V/m) @ t=0.54
0
% es.tEz (V/m) @ t=0.54
1.0784724842266051
% V (V) @ t=0.54
0.014171865940567362
% es.normE (V/m) @ t=0.56
1.485323099588003
% es.EX (V/m) @ t=0.56
-0.9592028495836793
% es.EY (V/m) @ t=0.56
0.21311199101277223
% es.EZ (V/m) @ t=0.56
1.0939309992159734
% es.tEX (V/m) @ t=0.56
-0.9592028495836762
% es.tEY (V/m) @ t=0.56
0
% es.tEZ (V/m) @ t=0.56
1.0939309992159991
% es.Ex (V/m) @ t=0.56
-0.9592028495836793
% es.Ey (V/m) @ t=0.56
0.21311199101277223
% es.Ez (V/m) @ t=0.56
1.0939309992159734
% es.tEx (V/m) @ t=0.56
-0.9592028495836762
% es.tEy (V/m) @ t=0.56
0
% es.tEz (V/m) @ t=0.56
1.0939309992159991
% V (V) @ t=0.56
0.01437500356735851
% es.normE (V/m) @ t=0.58
1.5065154762343134
% es.EX (V/m) @ t=0.58
-0.9728886279961433
% es.EY (V/m) @ t=0.58
0.21615260209136722
% es.EZ (V/m) @ t=0.58
1.109539061932149
% es.tEX (V/m) @ t=0.58
-0.9728886279961397
% es.tEY (V/m) @ t=0.58
0
% es.tEZ (V/m) @ t=0.58
1.1095390619321606
% es.Ex (V/m) @ t=0.58
-0.9728886279961433
% es.Ey (V/m) @ t=0.58
0.21615260209136722
% es.Ez (V/m) @ t=0.58
1.109539061932149
% es.tEx (V/m) @ t=0.58
-0.9728886279961397
% es.tEy (V/m) @ t=0.58
0
% es.tEz (V/m) @ t=0.58
1.1095390619321606
% V (V) @ t=0.58
0.01458010726837051
% es.normE (V/m) @ t=0.6
1.5279109015003765
% es.EX (V/m) @ t=0.6
-0.9867055356153109
% es.EY (V/m) @ t=0.6
0.2192223342419044
% es.EZ (V/m) @ t=0.6
1.1252966723750975
% es.tEX (V/m) @ t=0.6
-0.9867055356153074
% es.tEY (V/m) @ t=0.6
0
% es.tEZ (V/m) @ t=0.6
1.1252966723751054
% es.Ex (V/m) @ t=0.6
-0.9867055356153109
% es.Ey (V/m) @ t=0.6
0.2192223342419044
% es.Ez (V/m) @ t=0.6
1.1252966723750975
% es.tEx (V/m) @ t=0.6
-0.9867055356153074
% es.tEy (V/m) @ t=0.6
0
% es.tEz (V/m) @ t=0.6
1.1252966723751054
% V (V) @ t=0.6
0.014787177043603359
% es.normE (V/m) @ t=0.62
1.5495093753862315
% es.EX (V/m) @ t=0.62
-1.0006535724411916
% es.EY (V/m) @ t=0.62
0.22232118746438734
% es.EZ (V/m) @ t=0.62
1.1412038305448515
% es.tEX (V/m) @ t=0.62
-1.0006535724411916
% es.tEY (V/m) @ t=0.62
0
% es.tEZ (V/m) @ t=0.62
1.1412038305448666
% es.Ex (V/m) @ t=0.62
-1.0006535724411916
% es.Ey (V/m) @ t=0.62
0.22232118746438734
% es.Ez (V/m) @ t=0.62
1.1412038305448515
% es.tEx (V/m) @ t=0.62
-1.0006535724411916
% es.tEy (V/m) @ t=0.62
0
% es.tEz (V/m) @ t=0.62
1.1412038305448666
% V (V) @ t=0.62
0.014996212893057055
% es.normE (V/m) @ t=0.64
1.5713108978918782
% es.EX (V/m) @ t=0.64
-1.0147327384737768
% es.EY (V/m) @ t=0.64
0.22544916175884455
% es.EZ (V/m) @ t=0.64
1.1572605364413997
% es.tEX (V/m) @ t=0.64
-1.0147327384737768
% es.tEY (V/m) @ t=0.64
0
% es.tEZ (V/m) @ t=0.64
1.1572605364414041
% es.Ex (V/m) @ t=0.64
-1.0147327384737768
% es.Ey (V/m) @ t=0.64
0.22544916175884455
% es.Ez (V/m) @ t=0.64
1.1572605364413997
% es.tEx (V/m) @ t=0.64
-1.0147327384737768
% es.tEy (V/m) @ t=0.64
0
% es.tEz (V/m) @ t=0.64
1.1572605364414041
% V (V) @ t=0.64
0.015207214816731603
% es.normE (V/m) @ t=0.66
1.5933154690173108
% es.EX (V/m) @ t=0.66
-1.028943033713071
% es.EY (V/m) @ t=0.66
0.22860625712528304
% es.EZ (V/m) @ t=0.66
1.1734667900647286
% es.tEX (V/m) @ t=0.66
-1.0289430337130674
% es.tEY (V/m) @ t=0.66
0
% es.tEZ (V/m) @ t=0.66
1.1734667900647295
% es.Ex (V/m) @ t=0.66
-1.028943033713071
% es.Ey (V/m) @ t=0.66
0.22860625712528304
% es.Ez (V/m) @ t=0.66
1.1734667900647286
% es.tEx (V/m) @ t=0.66
-1.0289430337130674
% es.tEy (V/m) @ t=0.66
0
% es.tEz (V/m) @ t=0.66
1.1734667900647295
% V (V) @ t=0.66
0.015420182814627
% es.normE (V/m) @ t=0.68
1.6155230887625183
% es.EX (V/m) @ t=0.68
-1.0432844581590852
% es.EY (V/m) @ t=0.68
0.23179247356363553
% es.EZ (V/m) @ t=0.68
1.1898225914148144
% es.tEX (V/m) @ t=0.68
-1.0432844581590852
% es.tEY (V/m) @ t=0.68
0
% es.tEZ (V/m) @ t=0.68
1.1898225914148295
% es.Ex (V/m) @ t=0.68
-1.0432844581590852
% es.Ey (V/m) @ t=0.68
0.23179247356363553
% es.Ez (V/m) @ t=0.68
1.1898225914148144
% es.tEx (V/m) @ t=0.68
-1.0432844581590852
% es.tEy (V/m) @ t=0.68
0
% es.tEz (V/m) @ t=0.68
1.1898225914148295
% V (V) @ t=0.68
0.015635116886743246
% es.normE (V/m) @ t=0.7
1.6379337571275452
% es.EX (V/m) @ t=0.7
-1.0577570118117965
% es.EY (V/m) @ t=0.7
0.23500781107398883
% es.EZ (V/m) @ t=0.7
1.2063279404917102
% es.tEX (V/m) @ t=0.7
-1.0577570118117965
% es.tEY (V/m) @ t=0.7
0
% es.tEZ (V/m) @ t=0.7
1.2063279404917395
% es.Ex (V/m) @ t=0.7
-1.0577570118117965
% es.Ey (V/m) @ t=0.7
0.23500781107398883
% es.Ez (V/m) @ t=0.7
1.2063279404917102
% es.tEx (V/m) @ t=0.7
-1.0577570118117965
% es.tEy (V/m) @ t=0.7
0
% es.tEz (V/m) @ t=0.7
1.2063279404917395
% V (V) @ t=0.7
0.015852017033080347
% es.normE (V/m) @ t=0.72
1.6605474741123984
% es.EX (V/m) @ t=0.72
-1.0723606946712017
% es.EY (V/m) @ t=0.72
0.2382522696563001
% es.EZ (V/m) @ t=0.72
1.2229828372954197
% es.tEX (V/m) @ t=0.72
-1.0723606946712012
% es.tEY (V/m) @ t=0.72
0
% es.tEZ (V/m) @ t=0.72
1.2229828372954348
% es.Ex (V/m) @ t=0.72
-1.0723606946712017
% es.Ey (V/m) @ t=0.72
0.2382522696563001
% es.Ez (V/m) @ t=0.72
1.2229828372954197
% es.tEx (V/m) @ t=0.72
-1.0723606946712012
% es.tEy (V/m) @ t=0.72
0
% es.tEz (V/m) @ t=0.72
1.2229828372954348
% V (V) @ t=0.72
0.01607088325363829
% es.normE (V/m) @ t=0.74
1.6833642397170727
% es.EX (V/m) @ t=0.74
-1.0870955067373411
% es.EY (V/m) @ t=0.74
0.241525849310536
% es.EZ (V/m) @ t=0.74
1.2397872818259081
% es.tEX (V/m) @ t=0.74
-1.0870955067373371
% es.tEY (V/m) @ t=0.74
0
% es.tEZ (V/m) @ t=0.74
1.2397872818259028
% es.Ex (V/m) @ t=0.74
-1.0870955067373411
% es.Ey (V/m) @ t=0.74
0.241525849310536
% es.Ez (V/m) @ t=0.74
1.2397872818259081
% es.tEx (V/m) @ t=0.74
-1.0870955067373371
% es.tEy (V/m) @ t=0.74
0
% es.tEz (V/m) @ t=0.74
1.2397872818259028
% V (V) @ t=0.74
0.016291715548417084
% es.normE (V/m) @ t=0.76
1.7063840539415578
% es.EX (V/m) @ t=0.76
-1.1019614480101718
% es.EY (V/m) @ t=0.76
0.24482855003677995
% es.EZ (V/m) @ t=0.76
1.2567412740831543
% es.tEX (V/m) @ t=0.76
-1.1019614480101678
% es.tEY (V/m) @ t=0.76
0
% es.tEZ (V/m) @ t=0.76
1.2567412740831596
% es.Ex (V/m) @ t=0.76
-1.1019614480101718
% es.Ey (V/m) @ t=0.76
0.24482855003677995
% es.Ez (V/m) @ t=0.76
1.2567412740831543
% es.tEx (V/m) @ t=0.76
-1.1019614480101678
% es.tEy (V/m) @ t=0.76
0
% es.tEz (V/m) @ t=0.76
1.2567412740831596
% V (V) @ t=0.76
0.016514513917416727
% es.normE (V/m) @ t=0.78
1.7296069167858907
% es.EX (V/m) @ t=0.78
-1.1169585184897164
% es.EY (V/m) @ t=0.78
0.2481603718349552
% es.EZ (V/m) @ t=0.78
1.273844814067207
% es.tEX (V/m) @ t=0.78
-1.116958518489716
% es.tEY (V/m) @ t=0.78
0
% es.tEZ (V/m) @ t=0.78
1.2738448140672425
% es.Ex (V/m) @ t=0.78
-1.1169585184897164
% es.Ey (V/m) @ t=0.78
0.2481603718349552
% es.Ez (V/m) @ t=0.78
1.273844814067207
% es.tEx (V/m) @ t=0.78
-1.116958518489716
% es.tEy (V/m) @ t=0.78
0
% es.tEz (V/m) @ t=0.78
1.2738448140672425
% V (V) @ t=0.78
0.016739278360637225
% es.normE (V/m) @ t=0.8
1.753032828250101
% es.EX (V/m) @ t=0.8
-1.1320867181759673
% es.EY (V/m) @ t=0.8
0.2515213147050853
% es.EZ (V/m) @ t=0.8
1.2910979017780821
% es.tEX (V/m) @ t=0.8
-1.1320867181759633
% es.tEY (V/m) @ t=0.8
0
% es.tEZ (V/m) @ t=0.8
1.2910979017780857
% es.Ex (V/m) @ t=0.8
-1.1320867181759673
% es.Ey (V/m) @ t=0.8
0.2515213147050853
% es.Ez (V/m) @ t=0.8
1.2910979017780821
% es.tEx (V/m) @ t=0.8
-1.1320867181759633
% es.tEy (V/m) @ t=0.8
0
% es.tEz (V/m) @ t=0.8
1.2910979017780857
% V (V) @ t=0.8
0.016966008878078566
% es.normE (V/m) @ t=0.82
1.7768680159809884
% es.EX (V/m) @ t=0.82
-1.1474791932655526
% es.EY (V/m) @ t=0.82
0.25494110178046236
% es.EZ (V/m) @ t=0.82
1.3086523816204103
% es.tEX (V/m) @ t=0.82
-1.1474791932655557
% es.tEY (V/m) @ t=0.82
0
% es.tEZ (V/m) @ t=0.82
1.3086523816204245
% es.Ex (V/m) @ t=0.82
-1.1474791932655526
% es.Ey (V/m) @ t=0.82
0.25494110178046236
% es.Ez (V/m) @ t=0.82
1.3086523816204103
% es.tEx (V/m) @ t=0.82
-1.1474791932655557
% es.tEy (V/m) @ t=0.82
0
% es.tEz (V/m) @ t=0.82
1.3086523816204245
% V (V) @ t=0.82
0.017196690637439466
% es.normE (V/m) @ t=0.84
1.801144668473976
% es.EX (V/m) @ t=0.84
-1.1631567255295097
% es.EY (V/m) @ t=0.84
0.2584243723175639
% es.EZ (V/m) @ t=0.84
1.3265319538255067
% es.tEX (V/m) @ t=0.84
-1.1631567255295057
% es.tEY (V/m) @ t=0.84
0
% es.tEZ (V/m) @ t=0.84
1.326531953825528
% es.Ex (V/m) @ t=0.84
-1.1631567255295097
% es.Ey (V/m) @ t=0.84
0.2584243723175639
% es.Ez (V/m) @ t=0.84
1.3265319538255067
% es.tEx (V/m) @ t=0.84
-1.1631567255295057
% es.tEy (V/m) @ t=0.84
0
% es.tEz (V/m) @ t=0.84
1.326531953825528
% V (V) @ t=0.84
0.01743163348835607
% es.normE (V/m) @ t=0.86
1.8256816692818933
% es.EX (V/m) @ t=0.86
-1.1790023812469808
% es.EY (V/m) @ t=0.86
0.2619450224045595
% es.EZ (V/m) @ t=0.86
1.3446032632418135
% es.tEX (V/m) @ t=0.86
-1.1790023812469839
% es.tEY (V/m) @ t=0.86
0
% es.tEZ (V/m) @ t=0.86
1.3446032632418312
% es.Ex (V/m) @ t=0.86
-1.1790023812469808
% es.Ey (V/m) @ t=0.86
0.2619450224045595
% es.Ez (V/m) @ t=0.86
1.3446032632418135
% es.tEx (V/m) @ t=0.86
-1.1790023812469839
% es.tEy (V/m) @ t=0.86
0
% es.tEz (V/m) @ t=0.86
1.3446032632418312
% V (V) @ t=0.86
0.01766909398601797
% es.normE (V/m) @ t=0.88
1.8504790184047195
% es.EX (V/m) @ t=0.88
-1.1950161604179637
% es.EY (V/m) @ t=0.88
0.2655030520414664
% es.EZ (V/m) @ t=0.88
1.3628663098692595
% es.tEX (V/m) @ t=0.88
-1.1950161604179597
% es.tEY (V/m) @ t=0.88
0
% es.tEZ (V/m) @ t=0.88
1.362866309869279
% es.Ex (V/m) @ t=0.88
-1.1950161604179637
% es.Ey (V/m) @ t=0.88
0.2655030520414664
% es.Ez (V/m) @ t=0.88
1.3628663098692595
% es.tEx (V/m) @ t=0.88
-1.1950161604179597
% es.tEy (V/m) @ t=0.88
0
% es.tEz (V/m) @ t=0.88
1.362866309869279
% V (V) @ t=0.88
0.01790907213042517
% es.normE (V/m) @ t=0.9
1.8755367158425331
% es.EX (V/m) @ t=0.9
-1.2111980630424588
% es.EY (V/m) @ t=0.9
0.2690984612282865
% es.EZ (V/m) @ t=0.9
1.3813210937079337
% es.tEX (V/m) @ t=0.9
-1.2111980630424615
% es.tEY (V/m) @ t=0.9
0
% es.tEZ (V/m) @ t=0.9
1.3813210937079514
% es.Ex (V/m) @ t=0.9
-1.2111980630424588
% es.Ey (V/m) @ t=0.9
0.2690984612282865
% es.Ez (V/m) @ t=0.9
1.3813210937079337
% es.tEx (V/m) @ t=0.9
-1.2111980630424615
% es.tEy (V/m) @ t=0.9
0
% es.tEz (V/m) @ t=0.9
1.3813210937079514
% V (V) @ t=0.9
0.01815156792157767
% es.normE (V/m) @ t=0.92
1.9008547615953122
% es.EX (V/m) @ t=0.92
-1.2275480891204666
% es.EY (V/m) @ t=0.92
0.27273124996500187
% es.EZ (V/m) @ t=0.92
1.399967614757763
% es.tEX (V/m) @ t=0.92
-1.2275480891204698
% es.tEY (V/m) @ t=0.92
0
% es.tEZ (V/m) @ t=0.92
1.3999676147577667
% es.Ex (V/m) @ t=0.92
-1.2275480891204666
% es.Ey (V/m) @ t=0.92
0.27273124996500187
% es.Ez (V/m) @ t=0.92
1.399967614757763
% es.tEx (V/m) @ t=0.92
-1.2275480891204698
% es.tEy (V/m) @ t=0.92
0
% es.tEz (V/m) @ t=0.92
1.3999676147577667
% V (V) @ t=0.92
0.018396581359475465
% es.normE (V/m) @ t=0.94
1.92643315566308
% es.EX (V/m) @ t=0.94
-1.2440662386520036
% es.EY (V/m) @ t=0.94
0.2764014182516594
% es.EZ (V/m) @ t=0.94
1.4188058730187247
% es.tEX (V/m) @ t=0.94
-1.2440662386519992
% es.tEY (V/m) @ t=0.94
0
% es.tEZ (V/m) @ t=0.94
1.4188058730187532
% es.Ex (V/m) @ t=0.94
-1.2440662386520036
% es.Ey (V/m) @ t=0.94
0.2764014182516594
% es.Ez (V/m) @ t=0.94
1.4188058730187247
% es.tEx (V/m) @ t=0.94
-1.2440662386519992
% es.tEy (V/m) @ t=0.94
0
% es.tEz (V/m) @ t=0.94
1.4188058730187532
% V (V) @ t=0.94
0.018644112444118562
% es.normE (V/m) @ t=0.96
1.9522718980458853
% es.EX (V/m) @ t=0.96
-1.2607525116370368
% es.EY (V/m) @ t=0.96
0.28010896608818503
% es.EZ (V/m) @ t=0.96
1.437835868490886
% es.tEX (V/m) @ t=0.96
-1.2607525116370395
% es.tEY (V/m) @ t=0.96
0
% es.tEZ (V/m) @ t=0.96
1.4378358684909305
% es.Ex (V/m) @ t=0.96
-1.2607525116370368
% es.Ey (V/m) @ t=0.96
0.28010896608818503
% es.Ez (V/m) @ t=0.96
1.437835868490886
% es.tEx (V/m) @ t=0.96
-1.2607525116370395
% es.tEy (V/m) @ t=0.96
0
% es.tEz (V/m) @ t=0.96
1.4378358684909305
% V (V) @ t=0.96
0.018894161175506956
% es.normE (V/m) @ t=0.98
1.9783709887438008
% es.EX (V/m) @ t=0.98
-1.277606908075584
% es.EY (V/m) @ t=0.98
0.28385389347463685
% es.EZ (V/m) @ t=0.98
1.4570576011742702
% es.tEX (V/m) @ t=0.98
-1.2776069080755867
% es.tEY (V/m) @ t=0.98
0
% es.tEZ (V/m) @ t=0.98
1.4570576011742844
% es.Ex (V/m) @ t=0.98
-1.277606908075584
% es.Ey (V/m) @ t=0.98
0.28385389347463685
% es.Ez (V/m) @ t=0.98
1.4570576011742702
% es.tEx (V/m) @ t=0.98
-1.2776069080755867
% es.tEy (V/m) @ t=0.98
0
% es.tEz (V/m) @ t=0.98
1.4570576011742844
% V (V) @ t=0.98
0.01914672755364065
% es.normE (V/m) @ t=1
2.0047304277568103
% es.EX (V/m) @ t=1
-1.2946294279676507
% es.EY (V/m) @ t=1
0.28763620041098914
% es.EZ (V/m) @ t=1
1.4764710710688114
% es.tEX (V/m) @ t=1
-1.2946294279676533
% es.tEY (V/m) @ t=1
0
% es.tEZ (V/m) @ t=1
1.4764710710687972
% es.Ex (V/m) @ t=1
-1.2946294279676507
% es.Ey (V/m) @ t=1
0.28763620041098914
% es.Ez (V/m) @ t=1
1.4764710710688114
% es.tEx (V/m) @ t=1
-1.2946294279676533
% es.tEy (V/m) @ t=1
0
% es.tEz (V/m) @ t=1
1.4764710710687972
% V (V) @ t=1
0.019401811578519643
% es.normE (V/m) @ t=1.02
2.031350215084971
% es.EX (V/m) @ t=1.02
-1.3118200713132433
% es.EY (V/m) @ t=1.02
0.29145588689726365
% es.EZ (V/m) @ t=1.02
1.496076278174522
% es.tEX (V/m) @ t=1.02
-1.3118200713132318
% es.tEY (V/m) @ t=1.02
0
% es.tEZ (V/m) @ t=1.02
1.4960762781745078
% es.Ex (V/m) @ t=1.02
-1.3118200713132433
% es.Ey (V/m) @ t=1.02
0.29145588689726365
% es.Ez (V/m) @ t=1.02
1.496076278174522
% es.tEx (V/m) @ t=1.02
-1.3118200713132318
% es.tEy (V/m) @ t=1.02
0
% es.tEz (V/m) @ t=1.02
1.4960762781745078
% V (V) @ t=1.02
0.019659413250143937
% es.normE (V/m) @ t=1.04
2.0582303507282695
% es.EX (V/m) @ t=1.04
-1.3291788381123295
% es.EY (V/m) @ t=1.04
0.29531295293342996
% es.EZ (V/m) @ t=1.04
1.515873222491372
% es.tEX (V/m) @ t=1.04
-1.3291788381123246