% Model:              1 neuron.mph
% Version:            COMSOL 6.1.0.252
% Date:               Mar 18 2023, 14:06
% Dimension:          0
% Nodes:              14017
% Expressions:        14017
% Description:        Electric field norm, Electric field, X component, Electric field, Y component, Electric field, Z component, Tangential electric field, X component, Tangential electric field, Y component, Tangential electric field, Z component, Electric field, x component, Electric field, y component, Electric field, z component, Tangential electric field, x component, Tangential electric field, y component, Tangential electric field, z component, Electric potential
% Length unit:        mm
% x
1
% y
12.2
% z
1.6599999999999997
% es.normE (V/m) @ t=0
4.553481520291067
% es.EX (V/m) @ t=0
4.076316957378097
% es.EY (V/m) @ t=0
0.1568249898629933
% es.EZ (V/m) @ t=0
-2.023175639446973
% es.tEX (V/m) @ t=0
4.076316957378088
% es.tEY (V/m) @ t=0
0
% es.tEZ (V/m) @ t=0
-2.023175639446933
% es.Ex (V/m) @ t=0
4.076316957378097
% es.Ey (V/m) @ t=0
0.1568249898629933
% es.Ez (V/m) @ t=0
-2.023175639446973
% es.tEx (V/m) @ t=0
4.076316957378088
% es.tEy (V/m) @ t=0
0
% es.tEz (V/m) @ t=0
-2.023175639446933
% V (V) @ t=0
0.020659449240834373
% es.normE (V/m) @ t=0.02
4.267380079455027
% es.EX (V/m) @ t=0.02
3.8201968769167802
% es.EY (V/m) @ t=0.02
0.14698468210667393
% es.EZ (V/m) @ t=0.02
-1.8960548043810739
% es.tEX (V/m) @ t=0.02
3.8201968769167767
% es.tEY (V/m) @ t=0.02
0
% es.tEZ (V/m) @ t=0.02
-1.896054804381066
% es.Ex (V/m) @ t=0.02
3.8201968769167802
% es.Ey (V/m) @ t=0.02
0.14698468210667393
% es.Ez (V/m) @ t=0.02
-1.8960548043810739
% es.tEx (V/m) @ t=0.02
3.8201968769167767
% es.tEy (V/m) @ t=0.02
0
% es.tEz (V/m) @ t=0.02
-1.896054804381066
% V (V) @ t=0.02
0.019361051478376797
% es.normE (V/m) @ t=0.04
4.329517786621412
% es.EX (V/m) @ t=0.04
3.8758231086660535
% es.EY (V/m) @ t=0.04
0.14912492867449234
% es.EZ (V/m) @ t=0.04
-1.9236634313985093
% es.tEX (V/m) @ t=0.04
3.875823108666049
% es.tEY (V/m) @ t=0.04
0
% es.tEZ (V/m) @ t=0.04
-1.923663431398495
% es.Ex (V/m) @ t=0.04
3.8758231086660535
% es.Ey (V/m) @ t=0.04
0.14912492867449234
% es.Ez (V/m) @ t=0.04
-1.9236634313985093
% es.tEx (V/m) @ t=0.04
3.875823108666049
% es.tEy (V/m) @ t=0.04
0
% es.tEz (V/m) @ t=0.04
-1.923663431398495
% V (V) @ t=0.04
0.019642969770286147
% es.normE (V/m) @ t=0.06
4.392534710123272
% es.EX (V/m) @ t=0.06
3.932236422864897
% es.EY (V/m) @ t=0.06
0.15129546172667913
% es.EZ (V/m) @ t=0.06
-1.951662705699671
% es.tEX (V/m) @ t=0.06
3.9322364228648734
% es.tEY (V/m) @ t=0.06
0
% es.tEZ (V/m) @ t=0.06
-1.9516627056996754
% es.Ex (V/m) @ t=0.06
3.932236422864897
% es.Ey (V/m) @ t=0.06
0.15129546172667913
% es.Ez (V/m) @ t=0.06
-1.951662705699671
% es.tEx (V/m) @ t=0.06
3.9322364228648734
% es.tEy (V/m) @ t=0.06
0
% es.tEz (V/m) @ t=0.06
-1.9516627056996754
% V (V) @ t=0.06
0.019928876981477214
% es.normE (V/m) @ t=0.08
4.456896066151806
% es.EX (V/m) @ t=0.08
3.9898532851576487
% es.EY (V/m) @ t=0.08
0.15351230374466696
% es.EZ (V/m) @ t=0.08
-1.9802593293621344
% es.tEX (V/m) @ t=0.08
3.9898532851576167
% es.tEY (V/m) @ t=0.08
0
% es.tEZ (V/m) @ t=0.08
-1.9802593293621271
% es.Ex (V/m) @ t=0.08
3.9898532851576487
% es.Ey (V/m) @ t=0.08
0.15351230374466696
% es.Ez (V/m) @ t=0.08
-1.9802593293621344
% es.tEx (V/m) @ t=0.08
3.9898532851576167
% es.tEy (V/m) @ t=0.08
0
% es.tEz (V/m) @ t=0.08
-1.9802593293621271
% V (V) @ t=0.08
0.020220883824912342
% es.normE (V/m) @ t=0.1
4.521257422180305
% es.EX (V/m) @ t=0.1
4.047470147450378
% es.EY (V/m) @ t=0.1
0.15572914576264052
% es.EZ (V/m) @ t=0.1
-2.0088559530245624
% es.tEX (V/m) @ t=0.1
4.047470147450374
% es.tEY (V/m) @ t=0.1
0
% es.tEZ (V/m) @ t=0.1
-2.0088559530245647
% es.Ex (V/m) @ t=0.1
4.047470147450378
% es.Ey (V/m) @ t=0.1
0.15572914576264052
% es.Ez (V/m) @ t=0.1
-2.0088559530245624
% es.tEx (V/m) @ t=0.1
4.047470147450374
% es.tEy (V/m) @ t=0.1
0
% es.tEz (V/m) @ t=0.1
-2.0088559530245647
% V (V) @ t=0.1
0.020512890668347467
% es.normE (V/m) @ t=0.12
4.587880592412146
% es.EX (V/m) @ t=0.12
4.107111809437841
% es.EY (V/m) @ t=0.12
0.15802399190118893
% es.EZ (V/m) @ t=0.12
-2.0384575169636165
% es.tEX (V/m) @ t=0.12
4.107111809437825
% es.tEY (V/m) @ t=0.12
0
% es.tEZ (V/m) @ t=0.12
-2.038457516963632
% es.Ex (V/m) @ t=0.12
4.107111809437841
% es.Ey (V/m) @ t=0.12
0.15802399190118893
% es.Ez (V/m) @ t=0.12
-2.0384575169636165
% es.tEx (V/m) @ t=0.12
4.107111809437825
% es.tEy (V/m) @ t=0.12
0
% es.tEz (V/m) @ t=0.12
-2.038457516963632
% V (V) @ t=0.12
0.02081515683014853
% es.normE (V/m) @ t=0.14
4.656129210216733
% es.EX (V/m) @ t=0.14
4.168208589066825
% es.EY (V/m) @ t=0.14
0.16037489552137535
% es.EZ (V/m) @ t=0.14
-2.068781278920053
% es.tEX (V/m) @ t=0.14
4.168208589066831
% es.tEY (V/m) @ t=0.14
0
% es.tEZ (V/m) @ t=0.14
-2.0687812789200137
% es.Ex (V/m) @ t=0.14
4.168208589066825
% es.Ey (V/m) @ t=0.14
0.16037489552137535
% es.Ez (V/m) @ t=0.14
-2.068781278920053
% es.tEx (V/m) @ t=0.14
4.168208589066831
% es.tEy (V/m) @ t=0.14
0
% es.tEz (V/m) @ t=0.14
-2.0687812789200137
% V (V) @ t=0.14
0.02112479582748652
% es.normE (V/m) @ t=0.16
4.724377828021337
% es.EX (V/m) @ t=0.16
4.22930536869583
% es.EY (V/m) @ t=0.16
0.16272579914159907
% es.EZ (V/m) @ t=0.16
-2.099105040876468
% es.tEX (V/m) @ t=0.16
4.229305368695806
% es.tEY (V/m) @ t=0.16
0
% es.tEZ (V/m) @ t=0.16
-2.099105040876438
% es.Ex (V/m) @ t=0.16
4.22930536869583
% es.Ey (V/m) @ t=0.16
0.16272579914159907
% es.Ez (V/m) @ t=0.16
-2.099105040876468
% es.tEx (V/m) @ t=0.16
4.229305368695806
% es.tEy (V/m) @ t=0.16
0
% es.tEz (V/m) @ t=0.16
-2.099105040876438
% V (V) @ t=0.16
0.021434434824824503
% es.normE (V/m) @ t=0.18
4.792626445825947
% es.EX (V/m) @ t=0.18
4.290402148324821
% es.EY (V/m) @ t=0.18
0.16507670276184955
% es.EZ (V/m) @ t=0.18
-2.1294288028329045
% es.tEX (V/m) @ t=0.18
4.2904021483248265
% es.tEY (V/m) @ t=0.18
0
% es.tEZ (V/m) @ t=0.18
-2.129428802832848
% es.Ex (V/m) @ t=0.18
4.290402148324821
% es.Ey (V/m) @ t=0.18
0.16507670276184955
% es.Ez (V/m) @ t=0.18
-2.1294288028329045
% es.tEx (V/m) @ t=0.18
4.2904021483248265
% es.tEy (V/m) @ t=0.18
0
% es.tEz (V/m) @ t=0.18
-2.129428802832848
% V (V) @ t=0.18
0.021744073822162487
% es.normE (V/m) @ t=0.2
4.860875063630575
% es.EX (V/m) @ t=0.2
4.351498927953826
% es.EY (V/m) @ t=0.2
0.16742760638209636
% es.EZ (V/m) @ t=0.2
-2.1597525647893407
% es.tEX (V/m) @ t=0.2
4.3514989279538
% es.tEY (V/m) @ t=0.2
0
% es.tEZ (V/m) @ t=0.2
-2.1597525647893008
% es.Ex (V/m) @ t=0.2
4.351498927953826
% es.Ey (V/m) @ t=0.2
0.16742760638209636
% es.Ez (V/m) @ t=0.2
-2.1597525647893407
% es.tEx (V/m) @ t=0.2
4.3514989279538
% es.tEy (V/m) @ t=0.2
0
% es.tEz (V/m) @ t=0.2
-2.1597525647893008
% V (V) @ t=0.2
0.022053712819500467
% es.normE (V/m) @ t=0.22
4.929778510495881
% es.EX (V/m) @ t=0.22
4.413181915633732
% es.EY (V/m) @ t=0.22
0.1698010415512835
% es.EZ (V/m) @ t=0.22
-2.190367279569329
% es.tEX (V/m) @ t=0.22
4.41318191563373
% es.tEY (V/m) @ t=0.22
0
% es.tEZ (V/m) @ t=0.22
-2.1903672795693154
% es.Ex (V/m) @ t=0.22
4.413181915633732
% es.Ey (V/m) @ t=0.22
0.1698010415512835
% es.Ez (V/m) @ t=0.22
-2.190367279569329
% es.tEx (V/m) @ t=0.22
4.41318191563373
% es.tEy (V/m) @ t=0.22
0
% es.tEz (V/m) @ t=0.22
-2.1903672795693154
% V (V) @ t=0.22
0.022366323358127063
% es.normE (V/m) @ t=0.24
5.001942085752487
% es.EX (V/m) @ t=0.24
4.477783395519738
% es.EY (V/m) @ t=0.24
0.1722866521671656
% es.EZ (V/m) @ t=0.24
-2.2224305304905085
% es.tEX (V/m) @ t=0.24
4.4777833955197455
% es.tEY (V/m) @ t=0.24
0
% es.tEZ (V/m) @ t=0.24
-2.2224305304904846
% es.Ex (V/m) @ t=0.24
4.477783395519738
% es.Ey (V/m) @ t=0.24
0.1722866521671656
% es.Ez (V/m) @ t=0.24
-2.2224305304905085
% es.tEx (V/m) @ t=0.24
4.4777833955197455
% es.tEy (V/m) @ t=0.24
0
% es.tEz (V/m) @ t=0.24
-2.2224305304904846
% V (V) @ t=0.24
0.02269372799601086
% es.normE (V/m) @ t=0.26
5.074105661009099
% es.EX (V/m) @ t=0.26
4.542384875405757
% es.EY (V/m) @ t=0.26
0.17477226278302815
% es.EZ (V/m) @ t=0.26
-2.254493781411674
% es.tEX (V/m) @ t=0.26
4.542384875405759
% es.tEY (V/m) @ t=0.26
0
% es.tEZ (V/m) @ t=0.26
-2.2544937814116537
% es.Ex (V/m) @ t=0.26
4.542384875405757
% es.Ey (V/m) @ t=0.26
0.17477226278302815
% es.Ez (V/m) @ t=0.26
-2.254493781411674
% es.tEx (V/m) @ t=0.26
4.542384875405759
% es.tEy (V/m) @ t=0.26
0
% es.tEz (V/m) @ t=0.26
-2.2544937814116537
% V (V) @ t=0.26
0.023021132633894652
% es.normE (V/m) @ t=0.28
5.146269236265702
% es.EX (V/m) @ t=0.28
4.60698635529177
% es.EY (V/m) @ t=0.28
0.1772578733989315
% es.EZ (V/m) @ t=0.28
-2.2865570323328326
% es.tEX (V/m) @ t=0.28
4.606986355291763
% es.tEY (V/m) @ t=0.28
0
% es.tEZ (V/m) @ t=0.28
-2.286557032332823
% es.Ex (V/m) @ t=0.28
4.60698635529177
% es.Ey (V/m) @ t=0.28
0.1772578733989315
% es.Ez (V/m) @ t=0.28
-2.2865570323328326
% es.tEx (V/m) @ t=0.28
4.606986355291763
% es.tEy (V/m) @ t=0.28
0
% es.tEz (V/m) @ t=0.28
-2.286557032332823
% V (V) @ t=0.28
0.023348537271778446
% es.normE (V/m) @ t=0.3
5.218432811522289
% es.EX (V/m) @ t=0.3
4.671587835177777
% es.EY (V/m) @ t=0.3
0.17974348401473716
% es.EZ (V/m) @ t=0.3
-2.3186202832539693
% es.tEX (V/m) @ t=0.3
4.671587835177764
% es.tEY (V/m) @ t=0.3
0
% es.tEZ (V/m) @ t=0.3
-2.3186202832539493
% es.Ex (V/m) @ t=0.3
4.671587835177777
% es.Ey (V/m) @ t=0.3
0.17974348401473716
% es.Ez (V/m) @ t=0.3
-2.3186202832539693
% es.tEx (V/m) @ t=0.3
4.671587835177764
% es.tEy (V/m) @ t=0.3
0
% es.tEz (V/m) @ t=0.3
-2.3186202832539493
% V (V) @ t=0.3
0.023675941909662237
% es.normE (V/m) @ t=0.32
5.290596386778899
% es.EX (V/m) @ t=0.32
4.736189315063783
% es.EY (V/m) @ t=0.32
0.1822290946306636
% es.EZ (V/m) @ t=0.32
-2.3506835341751557
% es.tEX (V/m) @ t=0.32
4.736189315063779
% es.tEY (V/m) @ t=0.32
0
% es.tEZ (V/m) @ t=0.32
-2.350683534175147
% es.Ex (V/m) @ t=0.32
4.736189315063783
% es.Ey (V/m) @ t=0.32
0.1822290946306636
% es.Ez (V/m) @ t=0.32
-2.3506835341751557
% es.tEx (V/m) @ t=0.32
4.736189315063779
% es.tEy (V/m) @ t=0.32
0
% es.tEz (V/m) @ t=0.32
-2.350683534175147
% V (V) @ t=0.32
0.024003346547546028
% es.normE (V/m) @ t=0.34
5.368643720555204
% es.EX (V/m) @ t=0.34
4.806058119308247
% es.EY (V/m) @ t=0.34
0.18492120557152691
% es.EZ (V/m) @ t=0.34
-2.385360456479245
% es.tEX (V/m) @ t=0.34
4.806058119308236
% es.tEY (V/m) @ t=0.34
0
% es.tEZ (V/m) @ t=0.34
-2.3853604564792477
% es.Ex (V/m) @ t=0.34
4.806058119308247
% es.Ey (V/m) @ t=0.34
0.18492120557152691
% es.Ez (V/m) @ t=0.34
-2.385360456479245
% es.tEx (V/m) @ t=0.34
4.806058119308236
% es.tEy (V/m) @ t=0.34
0
% es.tEz (V/m) @ t=0.34
-2.3853604564792477
% V (V) @ t=0.34
0.02435734806607371
% es.normE (V/m) @ t=0.36
5.448624436788279
% es.EX (V/m) @ t=0.36
4.877657747896905
% es.EY (V/m) @ t=0.36
0.18768117179625043
% es.EZ (V/m) @ t=0.36
-2.420896222049764
% es.tEX (V/m) @ t=0.36
4.877657747896919
% es.tEY (V/m) @ t=0.36
0
% es.tEZ (V/m) @ t=0.36
-2.4208962220497483
% es.Ex (V/m) @ t=0.36
4.877657747896905
% es.Ey (V/m) @ t=0.36
0.18768117179625043
% es.Ez (V/m) @ t=0.36
-2.420896222049764
% es.tEx (V/m) @ t=0.36
4.877657747896919
% es.tEy (V/m) @ t=0.36
0
% es.tEz (V/m) @ t=0.36
-2.4208962220497483
% V (V) @ t=0.36
0.0247200892264701
% es.normE (V/m) @ t=0.38
5.528605153027139
% es.EX (V/m) @ t=0.38
4.94925737648562
% es.EY (V/m) @ t=0.38
0.19044113802099338
% es.EZ (V/m) @ t=0.38
-2.4564319876203253
% es.tEX (V/m) @ t=0.38
4.949257376485614
% es.tEY (V/m) @ t=0.38
0
% es.tEZ (V/m) @ t=0.38
-2.45643198762032
% es.Ex (V/m) @ t=0.38
4.94925737648562
% es.Ey (V/m) @ t=0.38
0.19044113802099338
% es.Ez (V/m) @ t=0.38
-2.4564319876203253
% es.tEx (V/m) @ t=0.38
4.949257376485614
% es.tEy (V/m) @ t=0.38
0
% es.tEz (V/m) @ t=0.38
-2.45643198762032
% V (V) @ t=0.38
0.02508283038686649
% es.normE (V/m) @ t=0.4
5.608585869271424
% es.EX (V/m) @ t=0.4
5.0208570050742924
% es.EY (V/m) @ t=0.4
0.19320110424575232
% es.EZ (V/m) @ t=0.4
-2.4919677531908655
% es.tEX (V/m) @ t=0.4
5.02085700507431
% es.tEY (V/m) @ t=0.4
0
% es.tEZ (V/m) @ t=0.4
-2.4919677531908775
% es.Ex (V/m) @ t=0.4
5.0208570050742924
% es.Ey (V/m) @ t=0.4
0.19320110424575232
% es.Ez (V/m) @ t=0.4
-2.4919677531908655
% es.tEx (V/m) @ t=0.4
5.02085700507431
% es.tEy (V/m) @ t=0.4
0
% es.tEz (V/m) @ t=0.4
-2.4919677531908775
% V (V) @ t=0.4
0.02544557154726288
% es.normE (V/m) @ t=0.42
5.688566585520954
% es.EX (V/m) @ t=0.42
5.0924566336629855
% es.EY (V/m) @ t=0.42
0.19596107047047395
% es.EZ (V/m) @ t=0.42
-2.5275035187613772
% es.tEX (V/m) @ t=0.42
5.092456633662977
% es.tEY (V/m) @ t=0.42
0
% es.tEZ (V/m) @ t=0.42
-2.5275035187613923
% es.Ex (V/m) @ t=0.42
5.0924566336629855
% es.Ey (V/m) @ t=0.42
0.19596107047047395
% es.Ez (V/m) @ t=0.42
-2.5275035187613772
% es.tEx (V/m) @ t=0.42
5.092456633662977
% es.tEy (V/m) @ t=0.42
0
% es.tEz (V/m) @ t=0.42
-2.5275035187613923
% V (V) @ t=0.42
0.025808312707659264
% es.normE (V/m) @ t=0.44
5.768547301775531
% es.EX (V/m) @ t=0.44
5.1640562622516715
% es.EY (V/m) @ t=0.44
0.19872103669517616
% es.EZ (V/m) @ t=0.44
-2.56303928433196
% es.tEX (V/m) @ t=0.44
5.164056262251673
% es.tEY (V/m) @ t=0.44
0
% es.tEZ (V/m) @ t=0.44
-2.5630392843319356
% es.Ex (V/m) @ t=0.44
5.1640562622516715
% es.Ey (V/m) @ t=0.44
0.19872103669517616
% es.Ez (V/m) @ t=0.44
-2.56303928433196
% es.tEx (V/m) @ t=0.44
5.164056262251673
% es.tEy (V/m) @ t=0.44
0
% es.tEz (V/m) @ t=0.44
-2.5630392843319356
% V (V) @ t=0.44
0.026171053868055655
% es.normE (V/m) @ t=0.46
5.848528018034905
% es.EX (V/m) @ t=0.46
5.235655890840372
% es.EY (V/m) @ t=0.46
0.2014810029199351
% es.EZ (V/m) @ t=0.46
-2.598575049902472
% es.tEX (V/m) @ t=0.46
5.235655890840368
% es.tEY (V/m) @ t=0.46
0
% es.tEZ (V/m) @ t=0.46
-2.598575049902479
% es.Ex (V/m) @ t=0.46
5.235655890840372
% es.Ey (V/m) @ t=0.46
0.2014810029199351
% es.Ez (V/m) @ t=0.46
-2.598575049902472
% es.tEx (V/m) @ t=0.46
5.235655890840368
% es.tEy (V/m) @ t=0.46
0
% es.tEz (V/m) @ t=0.46
-2.598575049902479
% V (V) @ t=0.46
0.02653379502845205
% es.normE (V/m) @ t=0.48
5.928508734298891
% es.EX (V/m) @ t=0.48
5.307255519429043
% es.EY (V/m) @ t=0.48
0.20424096914466916
% es.EZ (V/m) @ t=0.48
-2.6341108154730186
% es.tEX (V/m) @ t=0.48
5.3072555194290505
% es.tEY (V/m) @ t=0.48
0
% es.tEZ (V/m) @ t=0.48
-2.6341108154729795
% es.Ex (V/m) @ t=0.48
5.307255519429043
% es.Ey (V/m) @ t=0.48
0.20424096914466916
% es.Ez (V/m) @ t=0.48
-2.6341108154730186
% es.tEx (V/m) @ t=0.48
5.3072555194290505
% es.tEy (V/m) @ t=0.48
0
% es.tEz (V/m) @ t=0.48
-2.6341108154729795
% V (V) @ t=0.48
0.026896536188848436
% es.normE (V/m) @ t=0.5
6.00848945056733
% es.EX (V/m) @ t=0.5
5.3788551480177365
% es.EY (V/m) @ t=0.5
0.20700093536944053
% es.EZ (V/m) @ t=0.5
-2.669646581043559
% es.tEX (V/m) @ t=0.5
5.378855148017745
% es.tEY (V/m) @ t=0.5
0
% es.tEZ (V/m) @ t=0.5
-2.669646581043537
% es.Ex (V/m) @ t=0.5
5.3788551480177365
% es.Ey (V/m) @ t=0.5
0.20700093536944053
% es.Ez (V/m) @ t=0.5
-2.669646581043559
% es.tEx (V/m) @ t=0.5
5.378855148017745
% es.tEy (V/m) @ t=0.5
0
% es.tEz (V/m) @ t=0.5
-2.669646581043537
% V (V) @ t=0.5
0.027259277349244826
% es.normE (V/m) @ t=0.52
6.088470166840008
% es.EX (V/m) @ t=0.52
5.450454776606401
% es.EY (V/m) @ t=0.52
0.2097609015941463
% es.EZ (V/m) @ t=0.52
-2.705182346614106
% es.tEX (V/m) @ t=0.52
5.450454776606412
% es.tEY (V/m) @ t=0.52
0
% es.tEZ (V/m) @ t=0.52
-2.705182346614066
% es.Ex (V/m) @ t=0.52
5.450454776606401
% es.Ey (V/m) @ t=0.52
0.2097609015941463
% es.Ez (V/m) @ t=0.52
-2.705182346614106
% es.tEx (V/m) @ t=0.52
5.450454776606412
% es.tEy (V/m) @ t=0.52
0
% es.tEz (V/m) @ t=0.52
-2.705182346614066
% V (V) @ t=0.52
0.027622018509641213
% es.normE (V/m) @ t=0.54
6.16845088311683
% es.EX (V/m) @ t=0.54
5.522054405195116
% es.EY (V/m) @ t=0.54
0.21252086781890522
% es.EZ (V/m) @ t=0.54
-2.7407181121846604
% es.tEX (V/m) @ t=0.54
5.522054405195094
% es.tEY (V/m) @ t=0.54
0
% es.tEZ (V/m) @ t=0.54
-2.7407181121846236
% es.Ex (V/m) @ t=0.54
5.522054405195116
% es.Ey (V/m) @ t=0.54
0.21252086781890522
% es.Ez (V/m) @ t=0.54
-2.7407181121846604
% es.tEx (V/m) @ t=0.54
5.522054405195094
% es.tEy (V/m) @ t=0.54
0
% es.tEz (V/m) @ t=0.54
-2.7407181121846236
% V (V) @ t=0.54
0.0279847596700376
% es.normE (V/m) @ t=0.56
6.254248163692503
% es.EX (V/m) @ t=0.56
5.598860436673539
% es.EY (V/m) @ t=0.56
0.2154625676014158
% es.EZ (V/m) @ t=0.56
-2.778840986219903
% es.tEX (V/m) @ t=0.56
5.598860436673506
% es.tEY (V/m) @ t=0.56
0
% es.tEZ (V/m) @ t=0.56
-2.778840986219876
% es.Ex (V/m) @ t=0.56
5.598860436673539
% es.Ey (V/m) @ t=0.56
0.2154625676014158
% es.Ez (V/m) @ t=0.56
-2.778840986219903
% es.tEx (V/m) @ t=0.56
5.598860436673506
% es.tEy (V/m) @ t=0.56
0
% es.tEz (V/m) @ t=0.56
-2.778840986219876
% V (V) @ t=0.56
0.02837436354922007
% es.normE (V/m) @ t=0.58
6.340527304501782
% es.EX (V/m) @ t=0.58
5.676097780889171
% es.EY (V/m) @ t=0.58
0.21841932269181563
% es.EZ (V/m) @ t=0.58
-2.8171781834370506
% es.tEX (V/m) @ t=0.58
5.676097780889155
% es.tEY (V/m) @ t=0.58
0
% es.tEZ (V/m) @ t=0.58
-2.8171781834370364
% es.Ex (V/m) @ t=0.58
5.676097780889171
% es.Ey (V/m) @ t=0.58
0.21841932269181563
% es.Ez (V/m) @ t=0.58
-2.8171781834370506
% es.tEx (V/m) @ t=0.58
5.676097780889155
% es.tEy (V/m) @ t=0.58
0
% es.tEz (V/m) @ t=0.58
-2.8171781834370364
% V (V) @ t=0.58
0.028766192809920925
% es.normE (V/m) @ t=0.6
6.426806445357952
% es.EX (V/m) @ t=0.6
5.7533351251047735
% es.EY (V/m) @ t=0.6
0.22137607778217994
% es.EZ (V/m) @ t=0.6
-2.8555153806541553
% es.tEX (V/m) @ t=0.6
5.753335125104773
% es.tEY (V/m) @ t=0.6
0
% es.tEZ (V/m) @ t=0.6
-2.85551538065414
% es.Ex (V/m) @ t=0.6
5.7533351251047735
% es.Ey (V/m) @ t=0.6
0.22137607778217994
% es.Ez (V/m) @ t=0.6
-2.8555153806541553
% es.tEx (V/m) @ t=0.6
5.753335125104773
% es.tEy (V/m) @ t=0.6
0
% es.tEz (V/m) @ t=0.6
-2.85551538065414
% V (V) @ t=0.6
0.029158022070621792
% es.normE (V/m) @ t=0.62
6.513085586259205
% es.EX (V/m) @ t=0.62
5.830572469320385
% es.EY (V/m) @ t=0.62
0.22433283287257266
% es.EZ (V/m) @ t=0.62
-2.893852577871267
% es.tEX (V/m) @ t=0.62
5.830572469320394
% es.tEY (V/m) @ t=0.62
0
% es.tEZ (V/m) @ t=0.62
-2.893852577871229
% es.Ex (V/m) @ t=0.62
5.830572469320385
% es.Ey (V/m) @ t=0.62
0.22433283287257266
% es.Ez (V/m) @ t=0.62
-2.893852577871267
% es.tEx (V/m) @ t=0.62
5.830572469320394
% es.tEy (V/m) @ t=0.62
0
% es.tEz (V/m) @ t=0.62
-2.893852577871229
% V (V) @ t=0.62
0.029549851331322652
% es.normE (V/m) @ t=0.64
6.599364727203751
% es.EX (V/m) @ t=0.64
5.907809813535994
% es.EY (V/m) @ t=0.64
0.22728958796294574
% es.EZ (V/m) @ t=0.64
-2.932189775088365
% es.tEX (V/m) @ t=0.64
5.907809813535998
% es.tEY (V/m) @ t=0.64
0
% es.tEZ (V/m) @ t=0.64
-2.932189775088375
% es.Ex (V/m) @ t=0.64
5.907809813535994
% es.Ey (V/m) @ t=0.64
0.22728958796294574
% es.Ez (V/m) @ t=0.64
-2.932189775088365
% es.tEx (V/m) @ t=0.64
5.907809813535998
% es.tEy (V/m) @ t=0.64
0
% es.tEz (V/m) @ t=0.64
-2.932189775088375
% V (V) @ t=0.64
0.029941680592023515
% es.normE (V/m) @ t=0.66
6.685643868189978
% es.EX (V/m) @ t=0.66
5.985047157751639
% es.EY (V/m) @ t=0.66
0.23024634305338654
% es.EZ (V/m) @ t=0.66
-2.970526972305512
% es.tEX (V/m) @ t=0.66
5.98504715775163
% es.tEY (V/m) @ t=0.66
0
% es.tEZ (V/m) @ t=0.66
-2.9705269723054784
% es.Ex (V/m) @ t=0.66
5.985047157751639
% es.Ey (V/m) @ t=0.66
0.23024634305338654
% es.Ez (V/m) @ t=0.66
-2.970526972305512
% es.tEx (V/m) @ t=0.66
5.98504715775163
% es.tEy (V/m) @ t=0.66
0
% es.tEz (V/m) @ t=0.66
-2.9705269723054784
% V (V) @ t=0.66
0.030333509852724372
% es.normE (V/m) @ t=0.68
6.771923009216226
% es.EX (V/m) @ t=0.68
6.062284501967278
% es.EY (V/m) @ t=0.68
0.2332030981436921
% es.EZ (V/m) @ t=0.68
-3.0088641695226457
% es.tEX (V/m) @ t=0.68
6.062284501967252
% es.tEY (V/m) @ t=0.68
0
% es.tEZ (V/m) @ t=0.68
-3.0088641695226244
% es.Ex (V/m) @ t=0.68
6.062284501967278
% es.Ey (V/m) @ t=0.68
0.2332030981436921
% es.Ez (V/m) @ t=0.68
-3.0088641695226457
% es.tEx (V/m) @ t=0.68
6.062284501967252
% es.tEy (V/m) @ t=0.68
0
% es.tEz (V/m) @ t=0.68
-3.0088641695226244
% V (V) @ t=0.68
0.03072533911342524
% es.normE (V/m) @ t=0.7
6.858202150280968
% es.EX (V/m) @ t=0.7
6.139521846182874
% es.EY (V/m) @ t=0.7
0.23615985323411504
% es.EZ (V/m) @ t=0.7
-3.047201366739793
% es.tEX (V/m) @ t=0.7
6.13952184618287
% es.tEY (V/m) @ t=0.7
0
% es.tEZ (V/m) @ t=0.7
-3.047201366739756
% es.Ex (V/m) @ t=0.7
6.139521846182874
% es.Ey (V/m) @ t=0.7
0.23615985323411504
% es.Ez (V/m) @ t=0.7
-3.047201366739793
% es.tEx (V/m) @ t=0.7
6.13952184618287
% es.tEy (V/m) @ t=0.7
0
% es.tEz (V/m) @ t=0.7
-3.047201366739756
% V (V) @ t=0.7
0.0311171683741261
% es.normE (V/m) @ t=0.72
6.944481291382813
% es.EX (V/m) @ t=0.72
6.216759190398514
% es.EY (V/m) @ t=0.72
0.23911660832450066
% es.EZ (V/m) @ t=0.72
-3.0855385639568835
% es.tEX (V/m) @ t=0.72
6.2167591903985056
% es.tEY (V/m) @ t=0.72
0
% es.tEZ (V/m) @ t=0.72
-3.0855385639568738
% es.Ex (V/m) @ t=0.72
6.216759190398514
% es.Ey (V/m) @ t=0.72
0.23911660832450066
% es.Ez (V/m) @ t=0.72
-3.0855385639568835
% es.tEx (V/m) @ t=0.72
6.2167591903985056
% es.tEy (V/m) @ t=0.72
0
% es.tEz (V/m) @ t=0.72
-3.0855385639568738
% V (V) @ t=0.72
0.03150899763482696
% es.normE (V/m) @ t=0.74
7.0316415640401395
% es.EX (V/m) @ t=0.74
6.294785502585286
% es.EY (V/m) @ t=0.74
0.24210868956771336
% es.EZ (V/m) @ t=0.74
-3.124266528789173
% es.tEX (V/m) @ t=0.74
6.2947855025852775
% es.tEY (V/m) @ t=0.74
0
% es.tEZ (V/m) @ t=0.74
-3.1242665287891356
% es.Ex (V/m) @ t=0.74
6.294785502585286
% es.Ey (V/m) @ t=0.74
0.24210868956771336
% es.Ez (V/m) @ t=0.74
-3.124266528789173
% es.tEx (V/m) @ t=0.74
6.2947855025852775
% es.tEy (V/m) @ t=0.74
0
% es.tEz (V/m) @ t=0.74
-3.1242665287891356
% V (V) @ t=0.74
0.03190469810376419
% es.normE (V/m) @ t=0.76
7.122892272236776
% es.EX (V/m) @ t=0.76
6.376474403759451
% es.EY (V/m) @ t=0.76
0.2452647637525669
% es.EZ (V/m) @ t=0.76
-3.1648085357831874
% es.tEX (V/m) @ t=0.76
6.376474403759442
% es.tEY (V/m) @ t=0.76
0
% es.tEZ (V/m) @ t=0.76
-3.1648085357831803
% es.Ex (V/m) @ t=0.76
6.376474403759451
% es.Ey (V/m) @ t=0.76
0.2452647637525669
% es.Ez (V/m) @ t=0.76
-3.1648085357831874
% es.tEx (V/m) @ t=0.76
6.376474403759442
% es.tEy (V/m) @ t=0.76
0
% es.tEz (V/m) @ t=0.76
-3.1648085357831803
% V (V) @ t=0.76
0.032318369701026174
% es.normE (V/m) @ t=0.78
7.214142980468022
% es.EX (V/m) @ t=0.78
6.458163304933648
% es.EY (V/m) @ t=0.78
0.24842083793747194
% es.EZ (V/m) @ t=0.78
-3.205350542777195
% es.tEX (V/m) @ t=0.78
6.4581633049335885
% es.tEY (V/m) @ t=0.78
0
% es.tEZ (V/m) @ t=0.78
-3.2053505427771825
% es.Ex (V/m) @ t=0.78
6.458163304933648
% es.Ey (V/m) @ t=0.78
0.24842083793747194
% es.Ez (V/m) @ t=0.78
-3.205350542777195
% es.tEx (V/m) @ t=0.78
6.4581633049335885
% es.tEy (V/m) @ t=0.78
0
% es.tEz (V/m) @ t=0.78
-3.2053505427771825
% V (V) @ t=0.78
0.03273204129828815
% es.normE (V/m) @ t=0.8
7.305393688732532
% es.EX (V/m) @ t=0.8
6.539852206107802
% es.EY (V/m) @ t=0.8
0.25157691212235234
% es.EZ (V/m) @ t=0.8
-3.2458925497712454
% es.tEX (V/m) @ t=0.8
6.539852206107813
% es.tEY (V/m) @ t=0.8
0
% es.tEZ (V/m) @ t=0.8
-3.245892549771199
% es.Ex (V/m) @ t=0.8
6.539852206107802
% es.Ey (V/m) @ t=0.8
0.25157691212235234
% es.Ez (V/m) @ t=0.8
-3.2458925497712454
% es.tEx (V/m) @ t=0.8
6.539852206107813
% es.tEy (V/m) @ t=0.8
0
% es.tEz (V/m) @ t=0.8
-3.245892549771199
% V (V) @ t=0.8
0.033145712895550135
% es.normE (V/m) @ t=0.82
7.396644397029037
% es.EX (V/m) @ t=0.82
6.621541107281939
% es.EY (V/m) @ t=0.82
0.25473298630717567
% es.EZ (V/m) @ t=0.82
-3.2864345567652036
% es.tEX (V/m) @ t=0.82
6.621541107281956
% es.tEY (V/m) @ t=0.82
0
% es.tEZ (V/m) @ t=0.82
-3.2864345567651867
% es.Ex (V/m) @ t=0.82
6.621541107281939
% es.Ey (V/m) @ t=0.82
0.25473298630717567
% es.Ez (V/m) @ t=0.82
-3.2864345567652036
% es.tEx (V/m) @ t=0.82
6.621541107281956
% es.tEy (V/m) @ t=0.82
0
% es.tEz (V/m) @ t=0.82
-3.2864345567651867
% V (V) @ t=0.82
0.03355938449281212
% es.normE (V/m) @ t=0.84
7.487895105356419
% es.EX (V/m) @ t=0.84
6.70323000845606
% es.EY (V/m) @ t=0.84
0.2578890604920254
% es.EZ (V/m) @ t=0.84
-3.3269765637591755
% es.tEX (V/m) @ t=0.84
6.703230008456039
% es.tEY (V/m) @ t=0.84
0
% es.tEZ (V/m) @ t=0.84
-3.3269765637591746
% es.Ex (V/m) @ t=0.84
6.70323000845606
% es.Ey (V/m) @ t=0.84
0.2578890604920254
% es.Ez (V/m) @ t=0.84
-3.3269765637591755
% es.tEx (V/m) @ t=0.84
6.703230008456039
% es.tEy (V/m) @ t=0.84
0
% es.tEz (V/m) @ t=0.84
-3.3269765637591746
% V (V) @ t=0.84
0.0339730560900741
% es.normE (V/m) @ t=0.86
7.579145813713671
% es.EX (V/m) @ t=0.86
6.7849189096302585
% es.EY (V/m) @ t=0.86
0.2610451346768651
% es.EZ (V/m) @ t=0.86
-3.3675185707532327
% es.tEX (V/m) @ t=0.86
6.7849189096302425
% es.tEY (V/m) @ t=0.86
0
% es.tEZ (V/m) @ t=0.86
-3.367518570753205
% es.Ex (V/m) @ t=0.86
6.7849189096302585
% es.Ey (V/m) @ t=0.86
0.2610451346768651
% es.Ez (V/m) @ t=0.86
-3.3675185707532327
% es.tEx (V/m) @ t=0.86
6.7849189096302425
% es.tEy (V/m) @ t=0.86
0
% es.tEz (V/m) @ t=0.86
-3.367518570753205
% V (V) @ t=0.86
0.03438672768733608
% es.normE (V/m) @ t=0.88
7.670396522099573
% es.EX (V/m) @ t=0.88
6.866607810804423
% es.EY (V/m) @ t=0.88
0.2642012088617185
% es.EZ (V/m) @ t=0.88
-3.4080605777472335
% es.tEX (V/m) @ t=0.88
6.866607810804435
% es.tEY (V/m) @ t=0.88
0
% es.tEZ (V/m) @ t=0.88
-3.4080605777472215
% es.Ex (V/m) @ t=0.88
6.866607810804423
% es.Ey (V/m) @ t=0.88
0.2642012088617185
% es.Ez (V/m) @ t=0.88
-3.4080605777472335
% es.tEx (V/m) @ t=0.88
6.866607810804435
% es.tEy (V/m) @ t=0.88
0
% es.tEz (V/m) @ t=0.88
-3.4080605777472215
% V (V) @ t=0.88
0.03480039928459806
% es.normE (V/m) @ t=0.9
7.761647230513178
% es.EX (V/m) @ t=0.9
6.948296711978592
% es.EY (V/m) @ t=0.9
0.26735728304656503
% es.EZ (V/m) @ t=0.9
-3.448602584741255
% es.tEX (V/m) @ t=0.9
6.948296711978582
% es.tEY (V/m) @ t=0.9
0
% es.tEZ (V/m) @ t=0.9
-3.448602584741195
% es.Ex (V/m) @ t=0.9
6.948296711978592
% es.Ey (V/m) @ t=0.9
0.26735728304656503
% es.Ez (V/m) @ t=0.9
-3.448602584741255
% es.tEx (V/m) @ t=0.9
6.948296711978582
% es.tEy (V/m) @ t=0.9
0
% es.tEz (V/m) @ t=0.9
-3.448602584741195
% V (V) @ t=0.9
0.03521407088186005
% es.normE (V/m) @ t=0.92
7.852897938953479
% es.EX (V/m) @ t=0.92
7.029985613152743
% es.EY (V/m) @ t=0.92
0.2705133572315038
% es.EZ (V/m) @ t=0.92
-3.4891445917352346
% es.tEX (V/m) @ t=0.92
7.029985613152778
% es.tEY (V/m) @ t=0.92
0
% es.tEZ (V/m) @ t=0.92
-3.489144591735254
% es.Ex (V/m) @ t=0.92
7.029985613152743
% es.Ey (V/m) @ t=0.92
0.2705133572315038
% es.Ez (V/m) @ t=0.92
-3.4891445917352346
% es.tEx (V/m) @ t=0.92
7.029985613152778
% es.tEy (V/m) @ t=0.92
0
% es.tEz (V/m) @ t=0.92
-3.489144591735254
% V (V) @ t=0.92
0.03562774247912203
% es.normE (V/m) @ t=0.94
7.9454503654565976
% es.EX (V/m) @ t=0.94
7.11283953391418
% es.EY (V/m) @ t=0.94
0.273705836701841
% es.EZ (V/m) @ t=0.94
-3.530266208859043
% es.tEX (V/m) @ t=0.94
7.112839533914158
% es.tEY (V/m) @ t=0.94
0
% es.tEZ (V/m) @ t=0.94
-3.530266208859075
% es.Ex (V/m) @ t=0.94
7.11283953391418
% es.Ey (V/m) @ t=0.94
0.273705836701841
% es.Ez (V/m) @ t=0.94
-3.530266208859043
% es.tEx (V/m) @ t=0.94
7.112839533914158
% es.tEy (V/m) @ t=0.94
0
% es.tEz (V/m) @ t=0.94
-3.530266208859075
% V (V) @ t=0.94
0.03604753419925901
% es.normE (V/m) @ t=0.96
8.03972148919617
% es.EX (V/m) @ t=0.96
7.197231664851273
% es.EY (V/m) @ t=0.96
0.27694638315866704
% es.EZ (V/m) @ t=0.96
-3.5721531025579862
% es.tEX (V/m) @ t=0.96
7.19723166485128
% es.tEY (V/m) @ t=0.96
0
% es.tEZ (V/m) @ t=0.96
-3.5721531025579907
% es.Ex (V/m) @ t=0.96
7.197231664851273
% es.Ey (V/m) @ t=0.96
0.27694638315866704
% es.Ez (V/m) @ t=0.96
-3.5721531025579862
% es.tEx (V/m) @ t=0.96
7.19723166485128
% es.tEy (V/m) @ t=0.96
0
% es.tEz (V/m) @ t=0.96
-3.5721531025579907
% V (V) @ t=0.96
0.03647540650051739
% es.normE (V/m) @ t=0.98
8.133992612943015
% es.EX (V/m) @ t=0.98
7.2816237957883825
% es.EY (V/m) @ t=0.98
0.28018692961534164
% es.EZ (V/m) @ t=0.98
-3.614039996256866
% es.tEX (V/m) @ t=0.98
7.281623795788374
% es.tEY (V/m) @ t=0.98
0
% es.tEZ (V/m) @ t=0.98
-3.6140399962568495
% es.Ex (V/m) @ t=0.98
7.2816237957883825
% es.Ey (V/m) @ t=0.98
0.28018692961534164
% es.Ez (V/m) @ t=0.98
-3.614039996256866
% es.tEx (V/m) @ t=0.98
7.281623795788374
% es.tEy (V/m) @ t=0.98
0
% es.tEz (V/m) @ t=0.98
-3.6140399962568495
% V (V) @ t=0.98
0.03690327880177576
% es.normE (V/m) @ t=1
8.22826373669696
% es.EX (V/m) @ t=1
7.366015926725517
% es.EY (V/m) @ t=1
0.2834274760721357
% es.EZ (V/m) @ t=1
-3.655926889955816
% es.tEX (V/m) @ t=1
7.366015926725488
% es.tEY (V/m) @ t=1
0
% es.tEZ (V/m) @ t=1
-3.655926889955765
% es.Ex (V/m) @ t=1
7.366015926725517
% es.Ey (V/m) @ t=1
0.2834274760721357
% es.Ez (V/m) @ t=1
-3.655926889955816
% es.tEx (V/m) @ t=1
7.366015926725488
% es.tEy (V/m) @ t=1
0
% es.tEz (V/m) @ t=1
-3.655926889955765
% V (V) @ t=1
0.037331151103034144
% es.normE (V/m) @ t=1.02
8.322534860457644
% es.EX (V/m) @ t=1.02
7.450408057662612
% es.EY (V/m) @ t=1.02
0.2866680225288868
% es.EZ (V/m) @ t=1.02
-3.6978137836547025
% es.tEX (V/m) @ t=1.02
7.450408057662639
% es.tEY (V/m) @ t=1.02
0
% es.tEZ (V/m) @ t=1.02
-3.6978137836546523
% es.Ex (V/m) @ t=1.02
7.450408057662612
% es.Ey (V/m) @ t=1.02
0.2866680225288868
% es.Ez (V/m) @ t=1.02
-3.6978137836547025
% es.tEx (V/m) @ t=1.02
7.450408057662639
% es.tEy (V/m) @ t=1.02
0
% es.tEz (V/m) @ t=1.02
-3.6978137836546523
% V (V) @ t=1.02
0.03775902340429252
% es.normE (V/m) @ t=1.04
8.416805984224972
% es.EX (V/m) @ t=1.04
7.534800188599764
% es.EY (V/m) @ t=1.04
0.2899085689856985
% es.EZ (V/m) @ t=1.04
-3.739700677353632
% es.tEX (V/m) @ t=1.04
7.534800188599728
% es.tEY (V/m) @ t=1.04
0
% es.tEZ (V/m) @ t=1.04
-3.7397006773536248
% es.Ex (V/m) @ t=1.04
7.534800188599764
% es.Ey (V/m) @ t=1.04
0.2899085689856985
% es.Ez (V/m) @ t=1.04
-3.739700677353632
% es.tEx (V/m) @ t=1.04
7.534800188599728
% es.tEy (V/m) @ t=1.04
0
% es.tEz (V/m) @ t=1.04