% Model:              1 neuron.mph
% Version:            COMSOL 6.1.0.252
% Date:               Mar 18 2023, 14:03
% Dimension:          0
% Nodes:              14017
% Expressions:        14017
% Description:        Electric field norm, Electric field, X component, Electric field, Y component, Electric field, Z component, Tangential electric field, X component, Tangential electric field, Y component, Tangential electric field, Z component, Electric field, x component, Electric field, y component, Electric field, z component, Tangential electric field, x component, Tangential electric field, y component, Tangential electric field, z component, Electric potential
% Length unit:        mm
% x
1.3300000000000003
% y
12.200000000000001
% z
1.66
% es.normE (V/m) @ t=0
20.489665125032907
% es.EX (V/m) @ t=0
13.002728456808814
% es.EY (V/m) @ t=0
3.8882701448403125
% es.EZ (V/m) @ t=0
-14.242778885190296
% es.tEX (V/m) @ t=0
13.002728456808784
% es.tEY (V/m) @ t=0
0
% es.tEZ (V/m) @ t=0
-14.242778885190265
% es.Ex (V/m) @ t=0
13.002728456808814
% es.Ey (V/m) @ t=0
3.8882701448403125
% es.Ez (V/m) @ t=0
-14.242778885190296
% es.tEx (V/m) @ t=0
13.002728456808784
% es.tEy (V/m) @ t=0
0
% es.tEz (V/m) @ t=0
-14.242778885190265
% V (V) @ t=0
0.017551003963970132
% es.normE (V/m) @ t=0.02
19.20229612458187
% es.EX (V/m) @ t=0.02
12.185765239548143
% es.EY (V/m) @ t=0.02
3.6439695863204538
% es.EZ (V/m) @ t=0.02
-13.34790255025008
% es.tEX (V/m) @ t=0.02
12.185765239548125
% es.tEY (V/m) @ t=0.02
0
% es.tEZ (V/m) @ t=0.02
-13.34790255025005
% es.Ex (V/m) @ t=0.02
12.185765239548143
% es.Ey (V/m) @ t=0.02
3.6439695863204538
% es.Ez (V/m) @ t=0.02
-13.34790255025008
% es.tEx (V/m) @ t=0.02
12.185765239548125
% es.tEy (V/m) @ t=0.02
0
% es.tEz (V/m) @ t=0.02
-13.34790255025005
% V (V) @ t=0.02
0.016448270827478385
% es.normE (V/m) @ t=0.04
19.481910609044565
% es.EX (V/m) @ t=0.04
12.363208291685652
% es.EY (V/m) @ t=0.04
3.6970312555957
% es.EZ (V/m) @ t=0.04
-13.542268288243289
% es.tEX (V/m) @ t=0.04
12.3632082916856
% es.tEY (V/m) @ t=0.04
0
% es.tEZ (V/m) @ t=0.04
-13.54226828824326
% es.Ex (V/m) @ t=0.04
12.363208291685652
% es.Ey (V/m) @ t=0.04
3.6970312555957
% es.Ez (V/m) @ t=0.04
-13.542268288243289
% es.tEx (V/m) @ t=0.04
12.3632082916856
% es.tEy (V/m) @ t=0.04
0
% es.tEz (V/m) @ t=0.04
-13.54226828824326
% V (V) @ t=0.04
0.016687782804541463
% es.normE (V/m) @ t=0.06
19.76546880654248
% es.EX (V/m) @ t=0.06
12.543153912602255
% es.EY (V/m) @ t=0.06
3.7508412792291583
% es.EZ (V/m) @ t=0.06
-13.739375451101566
% es.tEX (V/m) @ t=0.06
12.543153912602232
% es.tEY (V/m) @ t=0.06
0
% es.tEZ (V/m) @ t=0.06
-13.73937545110155
% es.Ex (V/m) @ t=0.06
12.543153912602255
% es.Ey (V/m) @ t=0.06
3.7508412792291583
% es.Ez (V/m) @ t=0.06
-13.739375451101566
% es.tEx (V/m) @ t=0.06
12.543153912602232
% es.tEy (V/m) @ t=0.06
0
% es.tEz (V/m) @ t=0.06
-13.73937545110155
% V (V) @ t=0.06
0.01693067311044255
% es.normE (V/m) @ t=0.08
20.05510376036086
% es.EX (V/m) @ t=0.08
12.726955685842334
% es.EY (V/m) @ t=0.08
3.8058044239186977
% es.EZ (V/m) @ t=0.08
-13.940706788654236
% es.tEX (V/m) @ t=0.08
12.726955685842311
% es.tEY (V/m) @ t=0.08
0
% es.tEZ (V/m) @ t=0.08
-13.940706788654206
% es.Ex (V/m) @ t=0.08
12.726955685842334
% es.Ey (V/m) @ t=0.08
3.8058044239186977
% es.Ez (V/m) @ t=0.08
-13.940706788654236
% es.tEx (V/m) @ t=0.08
12.726955685842311
% es.tEy (V/m) @ t=0.08
0
% es.tEz (V/m) @ t=0.08
-13.940706788654206
% V (V) @ t=0.08
0.017178768957939926
% es.normE (V/m) @ t=0.1
20.344738714179194
% es.EX (V/m) @ t=0.1
12.91075745908234
% es.EY (V/m) @ t=0.1
3.8607675686083347
% es.EZ (V/m) @ t=0.1
-14.142038126206828
% es.tEX (V/m) @ t=0.1
12.910757459082319
% es.tEY (V/m) @ t=0.1
0
% es.tEZ (V/m) @ t=0.1
-14.142038126206813
% es.Ex (V/m) @ t=0.1
12.91075745908234
% es.Ey (V/m) @ t=0.1
3.8607675686083347
% es.Ez (V/m) @ t=0.1
-14.142038126206828
% es.tEx (V/m) @ t=0.1
12.910757459082319
% es.tEy (V/m) @ t=0.1
0
% es.tEz (V/m) @ t=0.1
-14.142038126206813
% V (V) @ t=0.1
0.01742686480543729
% es.normE (V/m) @ t=0.12
20.644457606403634
% es.EX (V/m) @ t=0.12
13.100963084932554
% es.EY (V/m) @ t=0.12
3.917645790121159
% es.EZ (V/m) @ t=0.12
-14.350376050514779
% es.tEX (V/m) @ t=0.12
13.100963084932516
% es.tEY (V/m) @ t=0.12
0
% es.tEZ (V/m) @ t=0.12
-14.350376050514749
% es.Ex (V/m) @ t=0.12
13.100963084932554
% es.Ey (V/m) @ t=0.12
3.917645790121159
% es.Ez (V/m) @ t=0.12
-14.350376050514779
% es.tEx (V/m) @ t=0.12
13.100963084932516
% es.tEy (V/m) @ t=0.12
0
% es.tEz (V/m) @ t=0.12
-14.350376050514749
% V (V) @ t=0.12
0.01768358864371032
% es.normE (V/m) @ t=0.14
20.95157657652893
% es.EX (V/m) @ t=0.14
13.295868165126983
% es.EY (V/m) @ t=0.14
3.9759293869046655
% es.EZ (V/m) @ t=0.14
-14.563855744405714
% es.tEX (V/m) @ t=0.14
13.295868165126961
% es.tEY (V/m) @ t=0.14
0
% es.tEZ (V/m) @ t=0.14
-14.563855744405684
% es.Ex (V/m) @ t=0.14
13.295868165126983
% es.Ey (V/m) @ t=0.14
3.9759293869046655
% es.Ez (V/m) @ t=0.14
-14.563855744405714
% es.tEx (V/m) @ t=0.14
13.295868165126961
% es.tEy (V/m) @ t=0.14
0
% es.tEz (V/m) @ t=0.14
-14.563855744405684
% V (V) @ t=0.14
0.01794664411564209
% es.normE (V/m) @ t=0.16
21.258695546660377
% es.EX (V/m) @ t=0.16
13.490773245321371
% es.EY (V/m) @ t=0.16
4.034212983688249
% es.EZ (V/m) @ t=0.16
-14.777335438296685
% es.tEX (V/m) @ t=0.16
13.49077324532135
% es.tEY (V/m) @ t=0.16
0
% es.tEZ (V/m) @ t=0.16
-14.777335438296653
% es.Ex (V/m) @ t=0.16
13.490773245321371
% es.Ey (V/m) @ t=0.16
4.034212983688249
% es.Ez (V/m) @ t=0.16
-14.777335438296685
% es.tEx (V/m) @ t=0.16
13.49077324532135
% es.tEy (V/m) @ t=0.16
0
% es.tEz (V/m) @ t=0.16
-14.777335438296653
% V (V) @ t=0.16
0.018209699587573864
% es.normE (V/m) @ t=0.18
21.565814516797673
% es.EX (V/m) @ t=0.18
13.685678325515774
% es.EY (V/m) @ t=0.18
4.092496580471812
% es.EZ (V/m) @ t=0.18
-14.990815132187642
% es.tEX (V/m) @ t=0.18
13.685678325515736
% es.tEY (V/m) @ t=0.18
0
% es.tEZ (V/m) @ t=0.18
-14.99081513218761
% es.Ex (V/m) @ t=0.18
13.685678325515774
% es.Ey (V/m) @ t=0.18
4.092496580471812
% es.Ez (V/m) @ t=0.18
-14.990815132187642
% es.tEx (V/m) @ t=0.18
13.685678325515736
% es.tEy (V/m) @ t=0.18
0
% es.tEz (V/m) @ t=0.18
-14.99081513218761
% V (V) @ t=0.18
0.01847275505950564
% es.normE (V/m) @ t=0.2
21.872933486940546
% es.EX (V/m) @ t=0.2
13.880583405710183
% es.EY (V/m) @ t=0.2
4.150780177255381
% es.EZ (V/m) @ t=0.2
-15.204294826078582
% es.tEX (V/m) @ t=0.2
13.880583405710125
% es.tEY (V/m) @ t=0.2
0
% es.tEZ (V/m) @ t=0.2
-15.204294826078538
% es.Ex (V/m) @ t=0.2
13.880583405710183
% es.Ey (V/m) @ t=0.2
4.150780177255381
% es.Ez (V/m) @ t=0.2
-15.204294826078582
% es.tEx (V/m) @ t=0.2
13.880583405710125
% es.tEy (V/m) @ t=0.2
0
% es.tEz (V/m) @ t=0.2
-15.204294826078538
% V (V) @ t=0.2
0.018735810531437413
% es.normE (V/m) @ t=0.22
22.18282949951258
% es.EX (V/m) @ t=0.22
14.077248584003426
% es.EY (V/m) @ t=0.22
4.209590064830298
% es.EZ (V/m) @ t=0.22
-15.419706325212243
% es.tEX (V/m) @ t=0.22
14.077248584003438
% es.tEY (V/m) @ t=0.22
0
% es.tEZ (V/m) @ t=0.22
-15.419706325212214
% es.Ex (V/m) @ t=0.22
14.077248584003426
% es.Ey (V/m) @ t=0.22
4.209590064830298
% es.Ez (V/m) @ t=0.22
-15.419706325212243
% es.tEx (V/m) @ t=0.22
14.077248584003438
% es.tEy (V/m) @ t=0.22
0
% es.tEz (V/m) @ t=0.22
-15.419706325212214
% V (V) @ t=0.22
0.019001249423665368
% es.normE (V/m) @ t=0.24
22.50762934333843
% es.EX (V/m) @ t=0.24
14.283359856754133
% es.EY (V/m) @ t=0.24
4.2712244498179786
% es.EZ (V/m) @ t=0.24
-15.64548543670034
% es.tEX (V/m) @ t=0.24
14.283359856754075
% es.tEY (V/m) @ t=0.24
0
% es.tEZ (V/m) @ t=0.24
-15.645485436700312
% es.Ex (V/m) @ t=0.24
14.283359856754133
% es.Ey (V/m) @ t=0.24
4.2712244498179786
% es.Ez (V/m) @ t=0.24
-15.64548543670034
% es.tEx (V/m) @ t=0.24
14.283359856754075
% es.tEy (V/m) @ t=0.24
0
% es.tEz (V/m) @ t=0.24
-15.645485436700312
% V (V) @ t=0.24
0.01927947965591204
% es.normE (V/m) @ t=0.26
22.832429187169225
% es.EX (V/m) @ t=0.26
14.489471129504725
% es.EY (V/m) @ t=0.26
4.332858834805602
% es.EZ (V/m) @ t=0.26
-15.871264548188483
% es.tEX (V/m) @ t=0.26
14.489471129504711
% es.tEY (V/m) @ t=0.26
0
% es.tEZ (V/m) @ t=0.26
-15.871264548188453
% es.Ex (V/m) @ t=0.26
14.489471129504725
% es.Ey (V/m) @ t=0.26
4.332858834805602
% es.Ez (V/m) @ t=0.26
-15.871264548188483
% es.tEx (V/m) @ t=0.26
14.489471129504711
% es.tEy (V/m) @ t=0.26
0
% es.tEz (V/m) @ t=0.26
-15.871264548188453
% V (V) @ t=0.26
0.019557709888158706
% es.normE (V/m) @ t=0.28
23.157229031004878
% es.EX (V/m) @ t=0.28
14.695582402255376
% es.EY (V/m) @ t=0.28
4.394493219793397
% es.EZ (V/m) @ t=0.28
-16.097043659676658
% es.tEX (V/m) @ t=0.28
14.69558240225536
% es.tEY (V/m) @ t=0.28
0
% es.tEZ (V/m) @ t=0.28
-16.09704365967663
% es.Ex (V/m) @ t=0.28
14.695582402255376
% es.Ey (V/m) @ t=0.28
4.394493219793397
% es.Ez (V/m) @ t=0.28
-16.097043659676658
% es.tEx (V/m) @ t=0.28
14.69558240225536
% es.tEy (V/m) @ t=0.28
0
% es.tEz (V/m) @ t=0.28
-16.09704365967663
% V (V) @ t=0.28
0.019835940120405373
% es.normE (V/m) @ t=0.3
23.482028874845046
% es.EX (V/m) @ t=0.3
14.901693675006038
% es.EY (V/m) @ t=0.3
4.4561276047810905
% es.EZ (V/m) @ t=0.3
-16.322822771164745
% es.tEX (V/m) @ t=0.3
14.901693675005994
% es.tEY (V/m) @ t=0.3
0
% es.tEZ (V/m) @ t=0.3
-16.322822771164713
% es.Ex (V/m) @ t=0.3
14.901693675006038
% es.Ey (V/m) @ t=0.3
4.4561276047810905
% es.Ez (V/m) @ t=0.3
-16.322822771164745
% es.tEx (V/m) @ t=0.3
14.901693675005994
% es.tEy (V/m) @ t=0.3
0
% es.tEz (V/m) @ t=0.3
-16.322822771164713
% V (V) @ t=0.3
0.02011417035265204
% es.normE (V/m) @ t=0.32
23.806828718689623
% es.EX (V/m) @ t=0.32
15.107804947756687
% es.EY (V/m) @ t=0.32
4.517761989768678
% es.EZ (V/m) @ t=0.32
-16.54860188265284
% es.tEX (V/m) @ t=0.32
15.10780494775663
% es.tEY (V/m) @ t=0.32
0
% es.tEZ (V/m) @ t=0.32
-16.548601882652825
% es.Ex (V/m) @ t=0.32
15.107804947756687
% es.Ey (V/m) @ t=0.32
4.517761989768678
% es.Ez (V/m) @ t=0.32
-16.54860188265284
% es.tEx (V/m) @ t=0.32
15.10780494775663
% es.tEy (V/m) @ t=0.32
0
% es.tEz (V/m) @ t=0.32
-16.548601882652825
% V (V) @ t=0.32
0.02039240058489871
% es.normE (V/m) @ t=0.34
24.15748016193728
% es.EX (V/m) @ t=0.34
15.330355767217998
% es.EY (V/m) @ t=0.34
4.58431290252839
% es.EZ (V/m) @ t=0.34
-16.79232892108681
% es.tEX (V/m) @ t=0.34
15.330355767217984
% es.tEY (V/m) @ t=0.34
0
% es.tEZ (V/m) @ t=0.34
-16.792328921086767
% es.Ex (V/m) @ t=0.34
15.330355767217998
% es.Ey (V/m) @ t=0.34
4.58431290252839
% es.Ez (V/m) @ t=0.34
-16.79232892108681
% es.tEx (V/m) @ t=0.34
15.330355767217984
% es.tEy (V/m) @ t=0.34
0
% es.tEz (V/m) @ t=0.34
-16.792328921086767
% V (V) @ t=0.34
0.020692702728055876
% es.normE (V/m) @ t=0.36
24.517338835058702
% es.EX (V/m) @ t=0.36
15.55876164737153
% es.EY (V/m) @ t=0.36
4.65261487138509
% es.EZ (V/m) @ t=0.36
-17.04244824048915
% es.tEX (V/m) @ t=0.36
15.558761647371535
% es.tEY (V/m) @ t=0.36
0
% es.tEZ (V/m) @ t=0.36
-17.042448240489094
% es.Ex (V/m) @ t=0.36
15.55876164737153
% es.Ey (V/m) @ t=0.36
4.65261487138509
% es.Ez (V/m) @ t=0.36
-17.04244824048915
% es.tEx (V/m) @ t=0.36
15.558761647371535
% es.tEy (V/m) @ t=0.36
0
% es.tEz (V/m) @ t=0.36
-17.042448240489094
% V (V) @ t=0.36
0.02100086593820279
% es.normE (V/m) @ t=0.38
24.877197508321736
% es.EX (V/m) @ t=0.38
15.787167527525101
% es.EY (V/m) @ t=0.38
4.720916840241662
% es.EZ (V/m) @ t=0.38
-17.292567559891488
% es.tEX (V/m) @ t=0.38
15.787167527525057
% es.tEY (V/m) @ t=0.38
0
% es.tEZ (V/m) @ t=0.38
-17.292567559891474
% es.Ex (V/m) @ t=0.38
15.787167527525101
% es.Ey (V/m) @ t=0.38
4.720916840241662
% es.Ez (V/m) @ t=0.38
-17.292567559891488
% es.tEx (V/m) @ t=0.38
15.787167527525057
% es.tEy (V/m) @ t=0.38
0
% es.tEz (V/m) @ t=0.38
-17.292567559891474
% V (V) @ t=0.38
0.02130902914834972
% es.normE (V/m) @ t=0.4
25.23705618172027
% es.EX (V/m) @ t=0.4
16.0155734076787
% es.EY (V/m) @ t=0.4
4.789218809098262
% es.EZ (V/m) @ t=0.4
-17.542686879293797
% es.tEX (V/m) @ t=0.4
16.015573407678666
% es.tEY (V/m) @ t=0.4
0
% es.tEZ (V/m) @ t=0.4
-17.54268687929375
% es.Ex (V/m) @ t=0.4
16.0155734076787
% es.Ey (V/m) @ t=0.4
4.789218809098262
% es.Ez (V/m) @ t=0.4
-17.542686879293797
% es.tEx (V/m) @ t=0.4
16.015573407678666
% es.tEy (V/m) @ t=0.4
0
% es.tEz (V/m) @ t=0.4
-17.54268687929375
% V (V) @ t=0.4
0.02161719235849665
% es.normE (V/m) @ t=0.42
25.596914855248624
% es.EX (V/m) @ t=0.42
16.243979287832246
% es.EY (V/m) @ t=0.42
4.857520777954941
% es.EZ (V/m) @ t=0.42
-17.7928061986961
% es.tEX (V/m) @ t=0.42
16.243979287832186
% es.tEY (V/m) @ t=0.42
0
% es.tEZ (V/m) @ t=0.42
-17.79280619869607
% es.Ex (V/m) @ t=0.42
16.243979287832246
% es.Ey (V/m) @ t=0.42
4.857520777954941
% es.Ez (V/m) @ t=0.42
-17.7928061986961
% es.tEx (V/m) @ t=0.42
16.243979287832186
% es.tEy (V/m) @ t=0.42
0
% es.tEz (V/m) @ t=0.42
-17.79280619869607
% V (V) @ t=0.42
0.02192535556864357
% es.normE (V/m) @ t=0.44
25.956773528901408
% es.EX (V/m) @ t=0.44
16.47238516798579
% es.EY (V/m) @ t=0.44
4.925822746811535
% es.EZ (V/m) @ t=0.44
-18.04292551809843
% es.tEX (V/m) @ t=0.44
16.47238516798575
% es.tEY (V/m) @ t=0.44
0
% es.tEZ (V/m) @ t=0.44
-18.042925518098386
% es.Ex (V/m) @ t=0.44
16.47238516798579
% es.Ey (V/m) @ t=0.44
4.925822746811535
% es.Ez (V/m) @ t=0.44
-18.04292551809843
% es.tEx (V/m) @ t=0.44
16.47238516798575
% es.tEy (V/m) @ t=0.44
0
% es.tEz (V/m) @ t=0.44
-18.042925518098386
% V (V) @ t=0.44
0.022233518778790498
% es.normE (V/m) @ t=0.46
26.31663220267351
% es.EX (V/m) @ t=0.46
16.700791048139358
% es.EY (V/m) @ t=0.46
4.994124715668157
% es.EZ (V/m) @ t=0.46
-18.29304483750075
% es.tEX (V/m) @ t=0.46
16.70079104813933
% es.tEY (V/m) @ t=0.46
0
% es.tEZ (V/m) @ t=0.46
-18.293044837500705
% es.Ex (V/m) @ t=0.46
16.700791048139358
% es.Ey (V/m) @ t=0.46
4.994124715668157
% es.Ez (V/m) @ t=0.46
-18.29304483750075
% es.tEx (V/m) @ t=0.46
16.70079104813933
% es.tEy (V/m) @ t=0.46
0
% es.tEz (V/m) @ t=0.46
-18.293044837500705
% V (V) @ t=0.46
0.022541681988937422
% es.normE (V/m) @ t=0.48
26.676490876560084
% es.EX (V/m) @ t=0.48
16.929196928292896
% es.EY (V/m) @ t=0.48
5.062426684524786
% es.EZ (V/m) @ t=0.48
-18.543164156903067
% es.tEX (V/m) @ t=0.48
16.929196928292868
% es.tEY (V/m) @ t=0.48
0
% es.tEZ (V/m) @ t=0.48
-18.543164156903025
% es.Ex (V/m) @ t=0.48
16.929196928292896
% es.Ey (V/m) @ t=0.48
5.062426684524786
% es.Ez (V/m) @ t=0.48
-18.543164156903067
% es.tEx (V/m) @ t=0.48
16.929196928292868
% es.tEy (V/m) @ t=0.48
0
% es.tEz (V/m) @ t=0.48
-18.543164156903025
% V (V) @ t=0.48
0.02284984519908435
% es.normE (V/m) @ t=0.5
27.036349550556647
% es.EX (V/m) @ t=0.5
17.157602808446466
% es.EY (V/m) @ t=0.5
5.130728653381415
% es.EZ (V/m) @ t=0.5
-18.79328347630543
% es.tEX (V/m) @ t=0.5
17.1576028084464
% es.tEY (V/m) @ t=0.5
0
% es.tEZ (V/m) @ t=0.5
-18.793283476305383
% es.Ex (V/m) @ t=0.5
17.157602808446466
% es.Ey (V/m) @ t=0.5
5.130728653381415
% es.Ez (V/m) @ t=0.5
-18.79328347630543
% es.tEx (V/m) @ t=0.5
17.1576028084464
% es.tEy (V/m) @ t=0.5
0
% es.tEz (V/m) @ t=0.5
-18.793283476305383
% V (V) @ t=0.5
0.023158008409231275
% es.normE (V/m) @ t=0.52
27.396208224658714
% es.EX (V/m) @ t=0.52
17.386008688600036
% es.EY (V/m) @ t=0.52
5.19903062223803
% es.EZ (V/m) @ t=0.52
-19.04340279570772
% es.tEX (V/m) @ t=0.52
17.386008688599993
% es.tEY (V/m) @ t=0.52
0
% es.tEZ (V/m) @ t=0.52
-19.043402795707674
% es.Ex (V/m) @ t=0.52
17.386008688600036
% es.Ey (V/m) @ t=0.52
5.19903062223803
% es.Ez (V/m) @ t=0.52
-19.04340279570772
% es.tEx (V/m) @ t=0.52
17.386008688599993
% es.tEy (V/m) @ t=0.52
0
% es.tEz (V/m) @ t=0.52
-19.043402795707674
% V (V) @ t=0.52
0.023466171619378202
% es.normE (V/m) @ t=0.54
27.756066898862258
% es.EX (V/m) @ t=0.54
17.61441456875358
% es.EY (V/m) @ t=0.54
5.267332591094708
% es.EZ (V/m) @ t=0.54
-19.293522115109994
% es.tEX (V/m) @ t=0.54
17.614414568753546
% es.tEY (V/m) @ t=0.54
0
% es.tEZ (V/m) @ t=0.54
-19.29352211510995
% es.Ex (V/m) @ t=0.54
17.61441456875358
% es.Ey (V/m) @ t=0.54
5.267332591094708
% es.Ez (V/m) @ t=0.54
-19.293522115109994
% es.tEx (V/m) @ t=0.54
17.614414568753546
% es.tEy (V/m) @ t=0.54
0
% es.tEz (V/m) @ t=0.54
-19.29352211510995
% V (V) @ t=0.54
0.023774334829525123
% es.normE (V/m) @ t=0.56
28.14164535478961
% es.EX (V/m) @ t=0.56
17.85905797119309
% es.EY (V/m) @ t=0.56
5.340488778480454
% es.EZ (V/m) @ t=0.56
-19.561574153976288
% es.tEX (V/m) @ t=0.56
17.859057971193046
% es.tEY (V/m) @ t=0.56
0
% es.tEZ (V/m) @ t=0.56
-19.56157415397623
% es.Ex (V/m) @ t=0.56
17.85905797119309
% es.Ey (V/m) @ t=0.56
5.340488778480454
% es.Ez (V/m) @ t=0.56
-19.561574153976288
% es.tEx (V/m) @ t=0.56
17.859057971193046
% es.tEy (V/m) @ t=0.56
0
% es.tEz (V/m) @ t=0.56
-19.56157415397623
% V (V) @ t=0.56
0.024104706753452516
% es.normE (V/m) @ t=0.58
28.530145096643224
% es.EX (V/m) @ t=0.58
18.10554565215235
% es.EY (V/m) @ t=0.58
5.414196314206557
% es.EZ (V/m) @ t=0.58
-19.83166301402273
% es.tEX (V/m) @ t=0.58
18.10554565215231
% es.tEY (V/m) @ t=0.58
0
% es.tEZ (V/m) @ t=0.58
-19.831663014022684
% es.Ex (V/m) @ t=0.58
18.10554565215235
% es.Ey (V/m) @ t=0.58
5.414196314206557
% es.Ez (V/m) @ t=0.58
-19.83166301402273
% es.tEx (V/m) @ t=0.58
18.10554565215231
% es.tEy (V/m) @ t=0.58
0
% es.tEz (V/m) @ t=0.58
-19.831663014022684
% V (V) @ t=0.58
0.024437601171455967
% es.normE (V/m) @ t=0.6
28.91864483877555
% es.EX (V/m) @ t=0.6
18.352033333111606
% es.EY (V/m) @ t=0.6
5.487903849932691
% es.EZ (V/m) @ t=0.6
-20.10175187406928
% es.tEX (V/m) @ t=0.6
18.352033333111567
% es.tEY (V/m) @ t=0.6
0
% es.tEZ (V/m) @ t=0.6
-20.101751874069237
% es.Ex (V/m) @ t=0.6
18.352033333111606
% es.Ey (V/m) @ t=0.6
5.487903849932691
% es.Ez (V/m) @ t=0.6
-20.10175187406928
% es.tEx (V/m) @ t=0.6
18.352033333111567
% es.tEy (V/m) @ t=0.6
0
% es.tEz (V/m) @ t=0.6
-20.101751874069237
% V (V) @ t=0.6
0.024770495589459426
% es.normE (V/m) @ t=0.62
29.3071445811754
% es.EX (V/m) @ t=0.62
18.59852101407084
% es.EY (V/m) @ t=0.62
5.561611385658873
% es.EZ (V/m) @ t=0.62
-20.371840734115793
% es.tEX (V/m) @ t=0.62
18.5985210140708
% es.tEY (V/m) @ t=0.62
0
% es.tEZ (V/m) @ t=0.62
-20.371840734115732
% es.Ex (V/m) @ t=0.62
18.59852101407084
% es.Ey (V/m) @ t=0.62
5.561611385658873
% es.Ez (V/m) @ t=0.62
-20.371840734115793
% es.tEx (V/m) @ t=0.62
18.5985210140708
% es.tEy (V/m) @ t=0.62
0
% es.tEz (V/m) @ t=0.62
-20.371840734115732
% V (V) @ t=0.62
0.02510339000746288
% es.normE (V/m) @ t=0.64
29.695644323832337
% es.EX (V/m) @ t=0.64
18.845008695030085
% es.EY (V/m) @ t=0.64
5.635318921385048
% es.EZ (V/m) @ t=0.64
-20.641929594162345
% es.tEX (V/m) @ t=0.64
18.84500869503006
% es.tEY (V/m) @ t=0.64
0
% es.tEZ (V/m) @ t=0.64
-20.6419295941623
% es.Ex (V/m) @ t=0.64
18.845008695030085
% es.Ey (V/m) @ t=0.64
5.635318921385048
% es.Ez (V/m) @ t=0.64
-20.641929594162345
% es.tEx (V/m) @ t=0.64
18.84500869503006
% es.tEy (V/m) @ t=0.64
0
% es.tEz (V/m) @ t=0.64
-20.6419295941623
% V (V) @ t=0.64
0.02543628442546634
% es.normE (V/m) @ t=0.66
30.084144066736336
% es.EX (V/m) @ t=0.66
19.09149637598937
% es.EY (V/m) @ t=0.66
5.709026457111137
% es.EZ (V/m) @ t=0.66
-20.91201845420884
% es.tEX (V/m) @ t=0.66
19.091496375989323
% es.tEY (V/m) @ t=0.66
0
% es.tEZ (V/m) @ t=0.66
-20.9120184542088
% es.Ex (V/m) @ t=0.66
19.09149637598937
% es.Ey (V/m) @ t=0.66
5.709026457111137
% es.Ez (V/m) @ t=0.66
-20.91201845420884
% es.tEx (V/m) @ t=0.66
19.091496375989323
% es.tEy (V/m) @ t=0.66
0
% es.tEz (V/m) @ t=0.66
-20.9120184542088
% V (V) @ t=0.66
0.025769178843469794
% es.normE (V/m) @ t=0.68
30.472643809877994
% es.EX (V/m) @ t=0.68
19.33798405694862
% es.EY (V/m) @ t=0.68
5.782733992837284
% es.EZ (V/m) @ t=0.68
-21.18210731425538
% es.tEX (V/m) @ t=0.68
19.33798405694857
% es.tEY (V/m) @ t=0.68
0
% es.tEZ (V/m) @ t=0.68
-21.182107314255337
% es.Ex (V/m) @ t=0.68
19.33798405694862
% es.Ey (V/m) @ t=0.68
5.782733992837284
% es.Ez (V/m) @ t=0.68
-21.18210731425538
% es.tEx (V/m) @ t=0.68
19.33798405694857
% es.tEy (V/m) @ t=0.68
0
% es.tEz (V/m) @ t=0.68
-21.182107314255337
% V (V) @ t=0.68
0.026102073261473253
% es.normE (V/m) @ t=0.7
30.86114355324827
% es.EX (V/m) @ t=0.7
19.584471737907826
% es.EY (V/m) @ t=0.7
5.856441528563352
% es.EZ (V/m) @ t=0.7
-21.45219617430189
% es.tEX (V/m) @ t=0.7
19.584471737907787
% es.tEY (V/m) @ t=0.7
0
% es.tEZ (V/m) @ t=0.7
-21.452196174301832
% es.Ex (V/m) @ t=0.7
19.584471737907826
% es.Ey (V/m) @ t=0.7
5.856441528563352
% es.Ez (V/m) @ t=0.7
-21.45219617430189
% es.tEx (V/m) @ t=0.7
19.584471737907787
% es.tEy (V/m) @ t=0.7
0
% es.tEz (V/m) @ t=0.7
-21.452196174301832
% V (V) @ t=0.7
0.026434967679476708
% es.normE (V/m) @ t=0.72
31.249643296838798
% es.EX (V/m) @ t=0.72
19.830959418867145
% es.EY (V/m) @ t=0.72
5.930149064289513
% es.EZ (V/m) @ t=0.72
-21.72228503434843
% es.tEX (V/m) @ t=0.72
19.830959418867106
% es.tEY (V/m) @ t=0.72
0
% es.tEZ (V/m) @ t=0.72
-21.722285034348385
% es.Ex (V/m) @ t=0.72
19.830959418867145
% es.Ey (V/m) @ t=0.72
5.930149064289513
% es.Ez (V/m) @ t=0.72
-21.72228503434843
% es.tEx (V/m) @ t=0.72
19.830959418867106
% es.tEy (V/m) @ t=0.72
0
% es.tEz (V/m) @ t=0.72
-21.722285034348385
% V (V) @ t=0.72
0.026767862097480166
% es.normE (V/m) @ t=0.74
31.64130105159783
% es.EX (V/m) @ t=0.74
20.07946177593443
% es.EY (V/m) @ t=0.74
6.004459232207341
% es.EZ (V/m) @ t=0.74
-21.994562246028103
% es.tEX (V/m) @ t=0.74
20.07946177593442
% es.tEY (V/m) @ t=0.74
0
% es.tEZ (V/m) @ t=0.74
-21.994562246028043
% es.Ex (V/m) @ t=0.74
20.07946177593443
% es.Ey (V/m) @ t=0.74
6.004459232207341
% es.Ez (V/m) @ t=0.74
-21.994562246028103
% es.tEx (V/m) @ t=0.74
20.07946177593442
% es.tEy (V/m) @ t=0.74
0
% es.tEz (V/m) @ t=0.74
-21.994562246028043
% V (V) @ t=0.74
0.02710343922832036
% es.normE (V/m) @ t=0.76
32.051951876285514
% es.EX (V/m) @ t=0.76
20.34008090033148
% es.EY (V/m) @ t=0.76
6.082393781246446
% es.EZ (V/m) @ t=0.76
-22.280000753198298
% es.tEX (V/m) @ t=0.76
20.340080900331415
% es.tEY (V/m) @ t=0.76
0
% es.tEZ (V/m) @ t=0.76
-22.28000075319825
% es.Ex (V/m) @ t=0.76
20.34008090033148
% es.Ey (V/m) @ t=0.76
6.082393781246446
% es.Ez (V/m) @ t=0.76
-22.280000753198298
% es.tEx (V/m) @ t=0.76
20.340080900331415
% es.tEy (V/m) @ t=0.76
0
% es.tEz (V/m) @ t=0.76
-22.28000075319825
% V (V) @ t=0.76
0.027455150866898977
% es.normE (V/m) @ t=0.78
32.462602701005736
% es.EX (V/m) @ t=0.78
20.600700024728503
% es.EY (V/m) @ t=0.78
6.160328330285534
% es.EZ (V/m) @ t=0.78
-22.565439260368425
% es.tEX (V/m) @ t=0.78
20.60070002472844
% es.tEY (V/m) @ t=0.78
0
% es.tEZ (V/m) @ t=0.78
-22.565439260368365
% es.Ex (V/m) @ t=0.78
20.600700024728503
% es.Ey (V/m) @ t=0.78
6.160328330285534
% es.Ez (V/m) @ t=0.78
-22.565439260368425
% es.tEx (V/m) @ t=0.78
20.60070002472844
% es.tEy (V/m) @ t=0.78
0
% es.tEz (V/m) @ t=0.78
-22.565439260368365
% V (V) @ t=0.78
0.027806862505477595
% es.normE (V/m) @ t=0.8
32.87325352575738
% es.EX (V/m) @ t=0.8
20.861319149125563
% es.EY (V/m) @ t=0.8
6.23826287932471
% es.EZ (V/m) @ t=0.8
-22.850877767538563
% es.tEX (V/m) @ t=0.8
20.861319149125556
% es.tEY (V/m) @ t=0.8
0
% es.tEZ (V/m) @ t=0.8
-22.850877767538506
% es.Ex (V/m) @ t=0.8
20.861319149125563
% es.Ey (V/m) @ t=0.8
6.23826287932471
% es.Ez (V/m) @ t=0.8
-22.850877767538563
% es.tEx (V/m) @ t=0.8
20.861319149125556
% es.tEy (V/m) @ t=0.8
0
% es.tEz (V/m) @ t=0.8
-22.850877767538506
% V (V) @ t=0.8
0.02815857414405621
% es.normE (V/m) @ t=0.82
33.283904350539196
% es.EX (V/m) @ t=0.82
21.121938273522588
% es.EY (V/m) @ t=0.82
6.316197428363941
% es.EZ (V/m) @ t=0.82
-23.136316274708705
% es.tEX (V/m) @ t=0.82
21.121938273522538
% es.tEY (V/m) @ t=0.82
0
% es.tEZ (V/m) @ t=0.82
-23.136316274708662
% es.Ex (V/m) @ t=0.82
21.121938273522588
% es.Ey (V/m) @ t=0.82
6.316197428363941
% es.Ez (V/m) @ t=0.82
-23.136316274708705
% es.tEx (V/m) @ t=0.82
21.121938273522538
% es.tEy (V/m) @ t=0.82
0
% es.tEz (V/m) @ t=0.82
-23.136316274708662
% V (V) @ t=0.82
0.02851028578263483
% es.normE (V/m) @ t=0.84
33.69455517535015
% es.EX (V/m) @ t=0.84
21.382557397919637
% es.EY (V/m) @ t=0.84
6.394131977403045
% es.EZ (V/m) @ t=0.84
-23.421754781878843
% es.tEX (V/m) @ t=0.84
21.38255739791957
% es.tEY (V/m) @ t=0.84
0
% es.tEZ (V/m) @ t=0.84
-23.421754781878796
% es.Ex (V/m) @ t=0.84
21.382557397919637
% es.Ey (V/m) @ t=0.84
6.394131977403045
% es.Ez (V/m) @ t=0.84
-23.421754781878843
% es.tEx (V/m) @ t=0.84
21.38255739791957
% es.tEy (V/m) @ t=0.84
0
% es.tEz (V/m) @ t=0.84
-23.421754781878796
% V (V) @ t=0.84
0.02886199742121344
% es.normE (V/m) @ t=0.86
34.10520600018915
% es.EX (V/m) @ t=0.86
21.643176522316676
% es.EY (V/m) @ t=0.86
6.472066526442134
% es.EZ (V/m) @ t=0.86
-23.707193289048956
% es.tEX (V/m) @ t=0.86
21.643176522316665
% es.tEY (V/m) @ t=0.86
0
% es.tEZ (V/m) @ t=0.86
-23.707193289048895
% es.Ex (V/m) @ t=0.86
21.643176522316676
% es.Ey (V/m) @ t=0.86
6.472066526442134
% es.Ez (V/m) @ t=0.86
-23.707193289048956
% es.tEx (V/m) @ t=0.86
21.643176522316665
% es.tEy (V/m) @ t=0.86
0
% es.tEz (V/m) @ t=0.86
-23.707193289048895
% V (V) @ t=0.86
0.029213709059792065
% es.normE (V/m) @ t=0.88
34.51585682505526
% es.EX (V/m) @ t=0.88
21.903795646713696
% es.EY (V/m) @ t=0.88
6.55000107548131
% es.EZ (V/m) @ t=0.88
-23.992631796219122
% es.tEX (V/m) @ t=0.88
21.903795646713657
% es.tEY (V/m) @ t=0.88
0
% es.tEZ (V/m) @ t=0.88
-23.992631796219037
% es.Ex (V/m) @ t=0.88
21.903795646713696
% es.Ey (V/m) @ t=0.88
6.55000107548131
% es.Ez (V/m) @ t=0.88
-23.992631796219122
% es.tEx (V/m) @ t=0.88
21.903795646713657
% es.tEy (V/m) @ t=0.88
0
% es.tEz (V/m) @ t=0.88
-23.992631796219037
% V (V) @ t=0.88
0.029565420698370665
% es.normE (V/m) @ t=0.9
34.92650764994741
% es.EX (V/m) @ t=0.9
22.164414771110778
% es.EY (V/m) @ t=0.9
6.627935624520413
% es.EZ (V/m) @ t=0.9
-24.278070303389192
% es.tEX (V/m) @ t=0.9
22.16441477111074
% es.tEY (V/m) @ t=0.9
0
% es.tEZ (V/m) @ t=0.9
-24.278070303389132
% es.Ex (V/m) @ t=0.9
22.164414771110778
% es.Ey (V/m) @ t=0.9
6.627935624520413
% es.Ez (V/m) @ t=0.9
-24.278070303389192
% es.tEx (V/m) @ t=0.9
22.16441477111074
% es.tEy (V/m) @ t=0.9
0
% es.tEz (V/m) @ t=0.9
-24.278070303389132
% V (V) @ t=0.9
0.029917132336949284
% es.normE (V/m) @ t=0.92
35.337158474864836
% es.EX (V/m) @ t=0.92
22.42503389550781
% es.EY (V/m) @ t=0.92
6.705870173559532
% es.EZ (V/m) @ t=0.92
-24.563508810559416
% es.tEX (V/m) @ t=0.92
22.425033895507745
% es.tEY (V/m) @ t=0.92
0
% es.tEZ (V/m) @ t=0.92
-24.563508810559384
% es.Ex (V/m) @ t=0.92
22.42503389550781
% es.Ey (V/m) @ t=0.92
6.705870173559532
% es.Ez (V/m) @ t=0.92
-24.563508810559416
% es.tEx (V/m) @ t=0.92
22.425033895507745
% es.tEy (V/m) @ t=0.92
0
% es.tEz (V/m) @ t=0.92
-24.563508810559384
% V (V) @ t=0.92
0.03026884397552791
% es.normE (V/m) @ t=0.94
35.75313099173273
% es.EX (V/m) @ t=0.94
22.68900430831787
% es.EY (V/m) @ t=0.94
6.784806468892814
% es.EZ (V/m) @ t=0.94
-24.85266322427453
% es.tEX (V/m) @ t=0.94
22.68900430831782
% es.tEY (V/m) @ t=0.94
0
% es.tEZ (V/m) @ t=0.94
-24.852663224274472
% es.Ex (V/m) @ t=0.94
22.68900430831787
% es.Ey (V/m) @ t=0.94
6.784806468892814
% es.Ez (V/m) @ t=0.94
-24.85266322427453
% es.tEx (V/m) @ t=0.94
22.68900430831782
% es.tEy (V/m) @ t=0.94
0
% es.tEz (V/m) @ t=0.94
-24.852663224274472
% V (V) @ t=0.94
0.030625168598175316
% es.normE (V/m) @ t=0.96
36.17752833392323
% es.EX (V/m) @ t=0.96
22.958280180277956
% es.EY (V/m) @ t=0.96
6.865328639085744
% es.EZ (V/m) @ t=0.96
-25.147700327854082
% es.tEX (V/m) @ t=0.96
22.95828018027789
% es.tEY (V/m) @ t=0.96
0
% es.tEZ (V/m) @ t=0.96
-25.147700327853993
% es.Ex (V/m) @ t=0.96
22.958280180277956
% es.Ey (V/m) @ t=0.96
6.865328639085744
% es.Ez (V/m) @ t=0.96
-25.147700327854082
% es.tEx (V/m) @ t=0.96
22.95828018027789
% es.tEy (V/m) @ t=0.96
0
% es.tEz (V/m) @ t=0.96
-25.147700327853993
% V (V) @ t=0.96
0.030988796083340275
% es.normE (V/m) @ t=0.98
36.60192567625457
% es.EX (V/m) @ t=0.98
23.227556052238064
% es.EY (V/m) @ t=0.98
6.945850809278731
% es.EZ (V/m) @ t=0.98
-25.442737431433486
% es.tEX (V/m) @ t=0.98
23.227556052238022
% es.tEY (V/m) @ t=0.98
0
% es.tEZ (V/m) @ t=0.98
-25.4427374314334
% es.Ex (V/m) @ t=0.98
23.227556052238064
% es.Ey (V/m) @ t=0.98
6.945850809278731
% es.Ez (V/m) @ t=0.98
-25.442737431433486
% es.tEx (V/m) @ t=0.98
23.227556052238022
% es.tEy (V/m) @ t=0.98
0
% es.tEz (V/m) @ t=0.98
-25.4427374314334
% V (V) @ t=0.98
0.03135242356850523
% es.normE (V/m) @ t=1
37.02632301872211
% es.EX (V/m) @ t=1
23.49683192419814
% es.EY (V/m) @ t=1
7.02637297947172
% es.EZ (V/m) @ t=1
-25.737774535012992
% es.tEX (V/m) @ t=1
23.496831924198077
% es.tEY (V/m) @ t=1
0
% es.tEZ (V/m) @ t=1
-25.737774535012903
% es.Ex (V/m) @ t=1
23.49683192419814
% es.Ey (V/m) @ t=1
7.02637297947172
% es.Ez (V/m) @ t=1
-25.737774535012992
% es.tEx (V/m) @ t=1
23.496831924198077
% es.tEy (V/m) @ t=1
0
% es.tEz (V/m) @ t=1
-25.737774535012903
% V (V) @ t=1
0.0317160510536702
% es.normE (V/m) @ t=1.02
37.45072036132119
% es.EX (V/m) @ t=1.02
23.76610779615828
% es.EY (V/m) @ t=1.02
7.106895149664609
% es.EZ (V/m) @ t=1.02
-26.03281163859247
% es.tEX (V/m) @ t=1.02
23.766107796158245
% es.tEY (V/m) @ t=1.02
0
% es.tEZ (V/m) @ t=1.02
-26.03281163859238
% es.Ex (V/m) @ t=1.02
23.76610779615828
% es.Ey (V/m) @ t=1.02
7.106895149664609
% es.Ez (V/m) @ t=1.02
-26.03281163859247
% es.tEx (V/m) @ t=1.02
23.766107796158245
% es.tEy (V/m) @ t=1.02
0
% es.tEz (V/m) @ t=1.02
-26.03281163859238
% V (V) @ t=1.02
0.03207967853883515
% es.normE (V/m) @ t=1.04
37.875117704047405
% es.EX (V/m) @ t=1.04
24.035383668118435
% es.EY (V/m) @ t=1.04
7.187417319857639
% es.EZ (V/m) @ t=1.04
-26.327848742171945
% es.tEX (V/m) @ t=1.04
24.035383668118378
% es.tEY (V/m) @ t=1.04
0
% es.tEZ (V/m) @ t=1.04
-26.32784874217186
% es.Ex (V/m) @ t=1.04
24.035383668118435
% es.Ey (V/m) @ t=1.04
7.187417319857639
% es.Ez (V/m) @ t=1.04
-26.327848742171945
% es.tEx (V/m) @ t=1.04
24.035383668118378
% es.tEy (V/m) @ t=1.04
0