% Model:              1 neuron.mph
% Version:            COMSOL 6.0.0.405
% Date:               Mar 16 2023, 18:54
% Dimension:          0
% Nodes:              14017
% Expressions:        14017
% Description:        Electric field norm, Electric field, X component, Electric field, Y component, Electric field, Z component, Tangential electric field, X component, Tangential electric field, Y component, Tangential electric field, Z component, Electric field, x component, Electric field, y component, Electric field, z component, Tangential electric field, x component, Tangential electric field, y component, Tangential electric field, z component, Electric potential
% Length unit:        mm
% x
1.33
% y
12.2
% z
1.33
% es.normE (V/m) @ t=0
11.74619263286575
% es.EX (V/m) @ t=0
9.101937956027962
% es.EY (V/m) @ t=0
-1.394686235779421
% es.EZ (V/m) @ t=0
7.271461735756289
% es.tEX (V/m) @ t=0
9.101937956027987
% es.tEY (V/m) @ t=0
0
% es.tEZ (V/m) @ t=0
7.271461735756272
% es.Ex (V/m) @ t=0
9.101937956027962
% es.Ey (V/m) @ t=0
-1.394686235779421
% es.Ez (V/m) @ t=0
7.271461735756289
% es.tEx (V/m) @ t=0
9.101937956027987
% es.tEy (V/m) @ t=0
0
% es.tEz (V/m) @ t=0
7.271461735756272
% V (V) @ t=0
0.009700390464114441
% es.normE (V/m) @ t=0.02
10.201672258166784
% es.EX (V/m) @ t=0.02
7.905113638815502
% es.EY (V/m) @ t=0.02
-1.2112972737927805
% es.EZ (V/m) @ t=0.02
6.315328927417496
% es.tEX (V/m) @ t=0.02
7.905113638815525
% es.tEY (V/m) @ t=0.02
0
% es.tEZ (V/m) @ t=0.02
6.315328927417493
% es.Ex (V/m) @ t=0.02
7.905113638815502
% es.Ey (V/m) @ t=0.02
-1.2112972737927805
% es.Ez (V/m) @ t=0.02
6.315328927417496
% es.tEx (V/m) @ t=0.02
7.905113638815525
% es.tEy (V/m) @ t=0.02
0
% es.tEz (V/m) @ t=0.02
6.315328927417493
% V (V) @ t=0.02
0.00842487488231095
% es.normE (V/m) @ t=0.04
10.35295456595422
% es.EX (V/m) @ t=0.04
8.022339850332655
% es.EY (V/m) @ t=0.04
-1.2292597100148193
% es.EZ (V/m) @ t=0.04
6.408980078965355
% es.tEX (V/m) @ t=0.04
8.022339850332724
% es.tEY (V/m) @ t=0.04
0
% es.tEZ (V/m) @ t=0.04
6.408980078965358
% es.Ex (V/m) @ t=0.04
8.022339850332655
% es.Ey (V/m) @ t=0.04
-1.2292597100148193
% es.Ez (V/m) @ t=0.04
6.408980078965355
% es.tEx (V/m) @ t=0.04
8.022339850332724
% es.tEy (V/m) @ t=0.04
0
% es.tEz (V/m) @ t=0.04
6.408980078965358
% V (V) @ t=0.04
0.008549808639291556
% es.normE (V/m) @ t=0.06
10.506490426662989
% es.EX (V/m) @ t=0.06
8.14131221542058
% es.EY (V/m) @ t=0.06
-1.2474895306740397
% es.EZ (V/m) @ t=0.06
6.504026452557641
% es.tEX (V/m) @ t=0.06
8.141312215420605
% es.tEY (V/m) @ t=0.06
0
% es.tEZ (V/m) @ t=0.06
6.504026452557626
% es.Ex (V/m) @ t=0.06
8.14131221542058
% es.Ey (V/m) @ t=0.06
-1.2474895306740397
% es.Ez (V/m) @ t=0.06
6.504026452557641
% es.tEx (V/m) @ t=0.06
8.141312215420605
% es.tEy (V/m) @ t=0.06
0
% es.tEz (V/m) @ t=0.06
6.504026452557626
% V (V) @ t=0.06
0.008676603200199225
% es.normE (V/m) @ t=0.08
10.663981239132442
% es.EX (V/m) @ t=0.08
8.26334935853782
% es.EY (V/m) @ t=0.08
-1.2661892642812447
% es.EZ (V/m) @ t=0.08
6.6015208583044735
% es.tEX (V/m) @ t=0.08
8.263349358537832
% es.tEY (V/m) @ t=0.08
0
% es.tEZ (V/m) @ t=0.08
6.601520858304464
% es.Ex (V/m) @ t=0.08
8.26334935853782
% es.Ey (V/m) @ t=0.08
-1.2661892642812447
% es.Ez (V/m) @ t=0.08
6.6015208583044735
% es.tEx (V/m) @ t=0.08
8.263349358537832
% es.tEy (V/m) @ t=0.08
0
% es.tEz (V/m) @ t=0.08
6.601520858304464
% V (V) @ t=0.08
0.008806664315186213
% es.normE (V/m) @ t=0.1
10.824154631180281
% es.EX (V/m) @ t=0.1
8.387465290841659
% es.EY (V/m) @ t=0.1
-1.2852077322129354
% es.EZ (V/m) @ t=0.1
6.700675724522756
% es.tEX (V/m) @ t=0.1
8.387465290841716
% es.tEY (V/m) @ t=0.1
0
% es.tEZ (V/m) @ t=0.1
6.700675724522757
% es.Ex (V/m) @ t=0.1
8.387465290841659
% es.Ey (V/m) @ t=0.1
-1.2852077322129354
% es.Ez (V/m) @ t=0.1
6.700675724522756
% es.tEx (V/m) @ t=0.1
8.387465290841716
% es.tEy (V/m) @ t=0.1
0
% es.tEz (V/m) @ t=0.1
6.700675724522757
% V (V) @ t=0.1
0.008938941080779082
% es.normE (V/m) @ t=0.12
10.984328023228212
% es.EX (V/m) @ t=0.12
8.51158122314559
% es.EY (V/m) @ t=0.12
-1.304226200144642
% es.EZ (V/m) @ t=0.12
6.799830590741041
% es.tEX (V/m) @ t=0.12
8.511581223145614
% es.tEY (V/m) @ t=0.12
0
% es.tEZ (V/m) @ t=0.12
6.799830590741028
% es.Ex (V/m) @ t=0.12
8.51158122314559
% es.Ey (V/m) @ t=0.12
-1.304226200144642
% es.Ez (V/m) @ t=0.12
6.799830590741041
% es.tEx (V/m) @ t=0.12
8.511581223145614
% es.tEy (V/m) @ t=0.12
0
% es.tEz (V/m) @ t=0.12
6.799830590741028
% V (V) @ t=0.12
0.009071217846371951
% es.normE (V/m) @ t=0.14
11.147392167038483
% es.EX (V/m) @ t=0.14
8.63793593223102
% es.EY (V/m) @ t=0.14
-1.323585267953506
% es.EZ (V/m) @ t=0.14
6.9007772237150835
% es.tEX (V/m) @ t=0.14
8.637935932231052
% es.tEY (V/m) @ t=0.14
0
% es.tEZ (V/m) @ t=0.14
6.900777223715097
% es.Ex (V/m) @ t=0.14
8.63793593223102
% es.Ey (V/m) @ t=0.14
-1.323585267953506
% es.Ez (V/m) @ t=0.14
6.9007772237150835
% es.tEx (V/m) @ t=0.14
8.637935932231052
% es.tEy (V/m) @ t=0.14
0
% es.tEz (V/m) @ t=0.14
6.900777223715097
% V (V) @ t=0.14
0.009205878401593112
% es.normE (V/m) @ t=0.16
11.321901934690436
% es.EX (V/m) @ t=0.16
8.773154839612587
% es.EY (V/m) @ t=0.16
-1.3442929047112067
% es.EZ (V/m) @ t=0.16
7.008818166382985
% es.tEX (V/m) @ t=0.16
8.773154839612603
% es.tEY (V/m) @ t=0.16
0
% es.tEZ (V/m) @ t=0.16
7.008818166382982
% es.Ex (V/m) @ t=0.16
8.773154839612587
% es.Ey (V/m) @ t=0.16
-1.3442929047112067
% es.Ez (V/m) @ t=0.16
7.008818166382985
% es.tEx (V/m) @ t=0.16
8.773154839612603
% es.tEy (V/m) @ t=0.16
0
% es.tEz (V/m) @ t=0.16
7.008818166382982
% V (V) @ t=0.16
0.009349977318037115
% es.normE (V/m) @ t=0.18
11.496411702385785
% es.EX (V/m) @ t=0.18
8.908373746994128
% es.EY (V/m) @ t=0.18
-1.3650005414689197
% es.EZ (V/m) @ t=0.18
7.116859109050877
% es.tEX (V/m) @ t=0.18
8.908373746994155
% es.tEY (V/m) @ t=0.18
0
% es.tEZ (V/m) @ t=0.18
7.116859109050886
% es.Ex (V/m) @ t=0.18
8.908373746994128
% es.Ey (V/m) @ t=0.18
-1.3650005414689197
% es.Ez (V/m) @ t=0.18
7.116859109050877
% es.tEx (V/m) @ t=0.18
8.908373746994155
% es.tEy (V/m) @ t=0.18
0
% es.tEz (V/m) @ t=0.18
7.116859109050886
% V (V) @ t=0.18
0.009494076234481116
% es.normE (V/m) @ t=0.2
11.67092147012259
% es.EX (V/m) @ t=0.2
9.043592654375626
% es.EY (V/m) @ t=0.2
-1.3857081782266185
% es.EZ (V/m) @ t=0.2
7.224900051718789
% es.tEX (V/m) @ t=0.2
9.043592654375692
% es.tEY (V/m) @ t=0.2
0
% es.tEZ (V/m) @ t=0.2
7.2249000517187785
% es.Ex (V/m) @ t=0.2
9.043592654375626
% es.Ey (V/m) @ t=0.2
-1.3857081782266185
% es.Ez (V/m) @ t=0.2
7.224900051718789
% es.tEx (V/m) @ t=0.2
9.043592654375692
% es.tEy (V/m) @ t=0.2
0
% es.tEz (V/m) @ t=0.2
7.2249000517187785
% V (V) @ t=0.2
0.009638175150925117
% es.normE (V/m) @ t=0.22
11.845431237899053
% es.EX (V/m) @ t=0.22
9.178811561757158
% es.EY (V/m) @ t=0.22
-1.4064158149843404
% es.EZ (V/m) @ t=0.22
7.33294099438668
% es.tEX (V/m) @ t=0.22
9.178811561757215
% es.tEY (V/m) @ t=0.22
0
% es.tEZ (V/m) @ t=0.22
7.332940994386684
% es.Ex (V/m) @ t=0.22
9.178811561757158
% es.Ey (V/m) @ t=0.22
-1.4064158149843404
% es.Ez (V/m) @ t=0.22
7.33294099438668
% es.tEx (V/m) @ t=0.22
9.178811561757215
% es.tEy (V/m) @ t=0.22
0
% es.tEz (V/m) @ t=0.22
7.332940994386684
% V (V) @ t=0.22
0.009782274067369118
% es.normE (V/m) @ t=0.24
12.019941005713491
% es.EX (V/m) @ t=0.24
9.314030469138753
% es.EY (V/m) @ t=0.24
-1.4271234517420677
% es.EZ (V/m) @ t=0.24
7.440981937054583
% es.tEX (V/m) @ t=0.24
9.314030469138766
% es.tEY (V/m) @ t=0.24
0
% es.tEZ (V/m) @ t=0.24
7.440981937054576
% es.Ex (V/m) @ t=0.24
9.314030469138753
% es.Ey (V/m) @ t=0.24
-1.4271234517420677
% es.Ez (V/m) @ t=0.24
7.440981937054583
% es.tEx (V/m) @ t=0.24
9.314030469138766
% es.tEy (V/m) @ t=0.24
0
% es.tEz (V/m) @ t=0.24
7.440981937054576
% V (V) @ t=0.24
0.009926372983813122
% es.normE (V/m) @ t=0.26
12.194450773564135
% es.EX (V/m) @ t=0.26
9.449249376520264
% es.EY (V/m) @ t=0.26
-1.4478310884997825
% es.EZ (V/m) @ t=0.26
7.549022879722464
% es.tEX (V/m) @ t=0.26
9.449249376520275
% es.tEY (V/m) @ t=0.26
0
% es.tEZ (V/m) @ t=0.26
7.549022879722468
% es.Ex (V/m) @ t=0.26
9.449249376520264
% es.Ey (V/m) @ t=0.26
-1.4478310884997825
% es.Ez (V/m) @ t=0.26
7.549022879722464
% es.tEx (V/m) @ t=0.26
9.449249376520275
% es.tEy (V/m) @ t=0.26
0
% es.tEz (V/m) @ t=0.26
7.549022879722468
% V (V) @ t=0.26
0.010070471900257125
% es.normE (V/m) @ t=0.28
12.375462493014433
% es.EX (V/m) @ t=0.28
9.589519559732041
% es.EY (V/m) @ t=0.28
-1.4693388190450385
% es.EZ (V/m) @ t=0.28
7.661064839749364
% es.tEX (V/m) @ t=0.28
9.589519559732029
% es.tEY (V/m) @ t=0.28
0
% es.tEZ (V/m) @ t=0.28
7.661064839749354
% es.Ex (V/m) @ t=0.28
9.589519559732041
% es.Ey (V/m) @ t=0.28
-1.4693388190450385
% es.Ez (V/m) @ t=0.28
7.661064839749364
% es.tEx (V/m) @ t=0.28
9.589519559732029
% es.tEy (V/m) @ t=0.28
0
% es.tEz (V/m) @ t=0.28
7.661064839749354
% V (V) @ t=0.28
0.010219977523930347
% es.normE (V/m) @ t=0.3
12.565707138546946
% es.EX (V/m) @ t=0.3
9.73696267449325
% es.EY (V/m) @ t=0.3
-1.491982701755525
% es.EZ (V/m) @ t=0.3
7.7787883393731505
% es.tEX (V/m) @ t=0.3
9.736962674493245
% es.tEY (V/m) @ t=0.3
0
% es.tEZ (V/m) @ t=0.3
7.778788339373148
% es.Ex (V/m) @ t=0.3
9.73696267449325
% es.Ey (V/m) @ t=0.3
-1.491982701755525
% es.Ez (V/m) @ t=0.3
7.7787883393731505
% es.tEx (V/m) @ t=0.3
9.736962674493245
% es.tEy (V/m) @ t=0.3
0
% es.tEz (V/m) @ t=0.3
7.778788339373148
% V (V) @ t=0.3
0.01037716080017432
% es.normE (V/m) @ t=0.32
12.755951784835279
% es.EX (V/m) @ t=0.32
9.884405789254446
% es.EY (V/m) @ t=0.32
-1.5146265844660025
% es.EZ (V/m) @ t=0.32
7.896511838996943
% es.tEX (V/m) @ t=0.32
9.884405789254476
% es.tEY (V/m) @ t=0.32
0
% es.tEZ (V/m) @ t=0.32
7.896511838996927
% es.Ex (V/m) @ t=0.32
9.884405789254446
% es.Ey (V/m) @ t=0.32
-1.5146265844660025
% es.Ez (V/m) @ t=0.32
7.896511838996943
% es.tEx (V/m) @ t=0.32
9.884405789254476
% es.tEy (V/m) @ t=0.32
0
% es.tEz (V/m) @ t=0.32
7.896511838996927
% V (V) @ t=0.32
0.010534344076418296
% es.normE (V/m) @ t=0.34
12.946196431846158
% es.EX (V/m) @ t=0.34
10.031848904015698
% es.EY (V/m) @ t=0.34
-1.5372704671764659
% es.EZ (V/m) @ t=0.34
8.014235338620736
% es.tEX (V/m) @ t=0.34
10.031848904015735
% es.tEY (V/m) @ t=0.34
0
% es.tEZ (V/m) @ t=0.34
8.01423533862075
% es.Ex (V/m) @ t=0.34
10.031848904015698
% es.Ey (V/m) @ t=0.34
-1.5372704671764659
% es.Ez (V/m) @ t=0.34
8.014235338620736
% es.tEx (V/m) @ t=0.34
10.031848904015735
% es.tEy (V/m) @ t=0.34
0
% es.tEz (V/m) @ t=0.34
8.01423533862075
% V (V) @ t=0.34
0.01069152735266227
% es.normE (V/m) @ t=0.36
13.136441079548163
% es.EX (V/m) @ t=0.36
10.179292018776941
% es.EY (V/m) @ t=0.36
-1.5599143498869594
% es.EZ (V/m) @ t=0.36
8.13195883824456
% es.tEX (V/m) @ t=0.36
10.179292018776994
% es.tEY (V/m) @ t=0.36
0
% es.tEZ (V/m) @ t=0.36
8.131958838244545
% es.Ex (V/m) @ t=0.36
10.179292018776941
% es.Ey (V/m) @ t=0.36
-1.5599143498869594
% es.Ez (V/m) @ t=0.36
8.13195883824456
% es.tEx (V/m) @ t=0.36
10.179292018776994
% es.tEy (V/m) @ t=0.36
0
% es.tEz (V/m) @ t=0.36
8.131958838244545
% V (V) @ t=0.36
0.010848710628906246
% es.normE (V/m) @ t=0.38
13.32668572791162
% es.EX (V/m) @ t=0.38
10.326735133538136
% es.EY (V/m) @ t=0.38
-1.5825582325973837
% es.EZ (V/m) @ t=0.38
8.249682337868352
% es.tEX (V/m) @ t=0.38
10.326735133538197
% es.tEY (V/m) @ t=0.38
0
% es.tEZ (V/m) @ t=0.38
8.249682337868338
% es.Ex (V/m) @ t=0.38
10.326735133538136
% es.Ey (V/m) @ t=0.38
-1.5825582325973837
% es.Ez (V/m) @ t=0.38
8.249682337868352
% es.tEx (V/m) @ t=0.38
10.326735133538197
% es.tEy (V/m) @ t=0.38
0
% es.tEz (V/m) @ t=0.38
8.249682337868338
% V (V) @ t=0.38
0.011005893905150218
% es.normE (V/m) @ t=0.4
13.51693037690874
% es.EX (V/m) @ t=0.4
10.47417824829941
% es.EY (V/m) @ t=0.4
-1.605202115307888
% es.EZ (V/m) @ t=0.4
8.367405837492157
% es.tEX (V/m) @ t=0.4
10.474178248299454
% es.tEY (V/m) @ t=0.4
0
% es.tEZ (V/m) @ t=0.4
8.367405837492168
% es.Ex (V/m) @ t=0.4
10.47417824829941
% es.Ey (V/m) @ t=0.4
-1.605202115307888
% es.Ez (V/m) @ t=0.4
8.367405837492157
% es.tEx (V/m) @ t=0.4
10.474178248299454
% es.tEy (V/m) @ t=0.4
0
% es.tEz (V/m) @ t=0.4
8.367405837492168
% V (V) @ t=0.4
0.011163077181394193
% es.normE (V/m) @ t=0.42
13.717488207930245
% es.EX (V/m) @ t=0.42
10.62959637112544
% es.EY (V/m) @ t=0.42
-1.629034906970885
% es.EZ (V/m) @ t=0.42
8.491544153139534
% es.tEX (V/m) @ t=0.42
10.629596371125494
% es.tEY (V/m) @ t=0.42
0
% es.tEZ (V/m) @ t=0.42
8.491544153139525
% es.Ex (V/m) @ t=0.42
10.62959637112544
% es.Ey (V/m) @ t=0.42
-1.629034906970885
% es.Ez (V/m) @ t=0.42
8.491544153139534
% es.tEx (V/m) @ t=0.42
10.629596371125494
% es.tEy (V/m) @ t=0.42
0
% es.tEz (V/m) @ t=0.42
8.491544153139525
% V (V) @ t=0.42
0.011328730253196721
% es.normE (V/m) @ t=0.44
13.92423921361141
% es.EX (V/m) @ t=0.44
10.789803570659481
% es.EY (V/m) @ t=0.44
-1.6535816510370118
% es.EZ (V/m) @ t=0.44
8.619534633669348
% es.tEX (V/m) @ t=0.44
10.789803570659519
% es.tEY (V/m) @ t=0.44
0
% es.tEZ (V/m) @ t=0.44
8.619534633669353
% es.Ex (V/m) @ t=0.44
10.789803570659481
% es.Ey (V/m) @ t=0.44
-1.6535816510370118
% es.Ez (V/m) @ t=0.44
8.619534633669348
% es.tEx (V/m) @ t=0.44
10.789803570659519
% es.tEy (V/m) @ t=0.44
0
% es.tEz (V/m) @ t=0.44
8.619534633669353
% V (V) @ t=0.44
0.011499469526831434
% es.normE (V/m) @ t=0.46
14.130990219300898
% es.EX (V/m) @ t=0.46
10.950010770193545
% es.EY (V/m) @ t=0.46
-1.6781283951030925
% es.EZ (V/m) @ t=0.46
8.747525114199178
% es.tEX (V/m) @ t=0.46
10.950010770193575
% es.tEY (V/m) @ t=0.46
0
% es.tEZ (V/m) @ t=0.46
8.747525114199174
% es.Ex (V/m) @ t=0.46
10.950010770193545
% es.Ey (V/m) @ t=0.46
-1.6781283951030925
% es.Ez (V/m) @ t=0.46
8.747525114199178
% es.tEx (V/m) @ t=0.46
10.950010770193575
% es.tEy (V/m) @ t=0.46
0
% es.tEz (V/m) @ t=0.46
8.747525114199174
% V (V) @ t=0.46
0.011670208800466146
% es.normE (V/m) @ t=0.48
14.337741224998332
% es.EX (V/m) @ t=0.48
11.110217969727609
% es.EY (V/m) @ t=0.48
-1.7026751391691182
% es.EZ (V/m) @ t=0.48
8.875515594729015
% es.tEX (V/m) @ t=0.48
11.110217969727604
% es.tEY (V/m) @ t=0.48
0
% es.tEZ (V/m) @ t=0.48
8.875515594729016
% es.Ex (V/m) @ t=0.48
11.110217969727609
% es.Ey (V/m) @ t=0.48
-1.7026751391691182
% es.Ez (V/m) @ t=0.48
8.875515594729015
% es.tEx (V/m) @ t=0.48
11.110217969727604
% es.tEy (V/m) @ t=0.48
0
% es.tEz (V/m) @ t=0.48
8.875515594729016
% V (V) @ t=0.48
0.01184094807410086
% es.normE (V/m) @ t=0.5
14.544492230703295
% es.EX (V/m) @ t=0.5
11.270425169261571
% es.EY (V/m) @ t=0.5
-1.7272218832352255
% es.EZ (V/m) @ t=0.5
9.003506075258834
% es.tEX (V/m) @ t=0.5
11.270425169261632
% es.tEY (V/m) @ t=0.5
0
% es.tEZ (V/m) @ t=0.5
9.003506075258823
% es.Ex (V/m) @ t=0.5
11.270425169261571
% es.Ey (V/m) @ t=0.5
-1.7272218832352255
% es.Ez (V/m) @ t=0.5
9.003506075258834
% es.tEx (V/m) @ t=0.5
11.270425169261632
% es.tEy (V/m) @ t=0.5
0
% es.tEz (V/m) @ t=0.5
9.003506075258823
% V (V) @ t=0.5
0.012011687347735573
% es.normE (V/m) @ t=0.52
14.751243236415654
% es.EX (V/m) @ t=0.52
11.430632368795678
% es.EY (V/m) @ t=0.52
-1.7517686273013062
% es.EZ (V/m) @ t=0.52
9.13149655578866
% es.tEX (V/m) @ t=0.52
11.430632368795715
% es.tEY (V/m) @ t=0.52
0
% es.tEZ (V/m) @ t=0.52
9.131496555788644
% es.Ex (V/m) @ t=0.52
11.430632368795678
% es.Ey (V/m) @ t=0.52
-1.7517686273013062
% es.Ez (V/m) @ t=0.52
9.13149655578866
% es.tEx (V/m) @ t=0.52
11.430632368795715
% es.tEy (V/m) @ t=0.52
0
% es.tEz (V/m) @ t=0.52
9.131496555788644
% V (V) @ t=0.52
0.012182426621370285
% es.normE (V/m) @ t=0.54
14.957994242134912
% es.EX (V/m) @ t=0.54
11.590839568329685
% es.EY (V/m) @ t=0.54
-1.7763153713674242
% es.EZ (V/m) @ t=0.54
9.259487036318472
% es.tEX (V/m) @ t=0.54
11.590839568329713
% es.tEY (V/m) @ t=0.54
0
% es.tEZ (V/m) @ t=0.54
9.259487036318465
% es.Ex (V/m) @ t=0.54
11.590839568329685
% es.Ey (V/m) @ t=0.54
-1.7763153713674242
% es.Ez (V/m) @ t=0.54
9.259487036318472
% es.tEx (V/m) @ t=0.54
11.590839568329713
% es.tEy (V/m) @ t=0.54
0
% es.tEz (V/m) @ t=0.54
9.259487036318465
% V (V) @ t=0.54
0.012353165895004996
% es.normE (V/m) @ t=0.56
15.171345113856148
% es.EX (V/m) @ t=0.56
11.75615742250549
% es.EY (V/m) @ t=0.56
-1.8016382498320045
% es.EZ (V/m) @ t=0.56
9.39156956600588
% es.tEX (V/m) @ t=0.56
11.756157422505558
% es.tEY (V/m) @ t=0.56
0
% es.tEZ (V/m) @ t=0.56
9.39156956600589
% es.Ex (V/m) @ t=0.56
11.75615742250549
% es.Ey (V/m) @ t=0.56
-1.8016382498320045
% es.Ez (V/m) @ t=0.56
9.39156956600588
% es.tEx (V/m) @ t=0.56
11.756157422505558
% es.tEy (V/m) @ t=0.56
0
% es.tEz (V/m) @ t=0.56
9.39156956600589
% V (V) @ t=0.56
0.012529345620882702
% es.normE (V/m) @ t=0.58
15.387887576221207
% es.EX (V/m) @ t=0.58
11.923946708267755
% es.EY (V/m) @ t=0.58
-1.8273364545907516
% es.EZ (V/m) @ t=0.58
9.525630945811358
% es.tEX (V/m) @ t=0.58
11.923946708267788
% es.tEY (V/m) @ t=0.58
0
% es.tEZ (V/m) @ t=0.58
9.525630945811368
% es.Ex (V/m) @ t=0.58
11.923946708267755
% es.Ey (V/m) @ t=0.58
-1.8273364545907516
% es.Ez (V/m) @ t=0.58
9.525630945811358
% es.tEx (V/m) @ t=0.58
11.923946708267788
% es.tEy (V/m) @ t=0.58
0
% es.tEz (V/m) @ t=0.58
9.525630945811368
% V (V) @ t=0.58
0.012708156263239791
% es.normE (V/m) @ t=0.6
15.606499855263202
% es.EX (V/m) @ t=0.6
12.093338771698235
% es.EY (V/m) @ t=0.6
-1.8532780666953297
% es.EZ (V/m) @ t=0.6
9.660975653383401
% es.tEX (V/m) @ t=0.6
12.093338771698287
% es.tEY (V/m) @ t=0.6
0
% es.tEZ (V/m) @ t=0.6
9.660975653383396
% es.Ex (V/m) @ t=0.6
12.093338771698235
% es.Ey (V/m) @ t=0.6
-1.8532780666953297
% es.Ez (V/m) @ t=0.6
9.660975653383401
% es.tEx (V/m) @ t=0.6
12.093338771698287
% es.tEy (V/m) @ t=0.6
0
% es.tEz (V/m) @ t=0.6
9.660975653383396
% V (V) @ t=0.6
0.01288867311272135
% es.normE (V/m) @ t=0.62
15.827181951006263
% es.EX (V/m) @ t=0.62
12.264333612797106
% es.EY (V/m) @ t=0.62
-1.8794630861456465
% es.EZ (V/m) @ t=0.62
9.797603688722063
% es.tEX (V/m) @ t=0.62
12.264333612797138
% es.tEY (V/m) @ t=0.62
0
% es.tEZ (V/m) @ t=0.62
9.797603688722045
% es.Ex (V/m) @ t=0.62
12.264333612797106
% es.Ey (V/m) @ t=0.62
-1.8794630861456465
% es.Ez (V/m) @ t=0.62
9.797603688722063
% es.tEx (V/m) @ t=0.62
12.264333612797138
% es.tEy (V/m) @ t=0.62
0
% es.tEz (V/m) @ t=0.62
9.797603688722045
% V (V) @ t=0.62
0.013070896169327379
% es.normE (V/m) @ t=0.64
16.04993386347619
% es.EX (V/m) @ t=0.64
12.436931231564222
% es.EY (V/m) @ t=0.64
-1.9058915129416967
% es.EZ (V/m) @ t=0.64
9.935515051827355
% es.tEX (V/m) @ t=0.64
12.436931231564229
% es.tEY (V/m) @ t=0.64
0
% es.tEZ (V/m) @ t=0.64
9.935515051827343
% es.Ex (V/m) @ t=0.64
12.436931231564222
% es.Ey (V/m) @ t=0.64
-1.9058915129416967
% es.Ez (V/m) @ t=0.64
9.935515051827355
% es.tEx (V/m) @ t=0.64
12.436931231564229
% es.tEy (V/m) @ t=0.64
0
% es.tEz (V/m) @ t=0.64
9.935515051827343
% V (V) @ t=0.64
0.013254825433057877
% es.normE (V/m) @ t=0.66
16.27475559270073
% es.EX (V/m) @ t=0.66
12.611131627999718
% es.EY (V/m) @ t=0.66
-1.9325633470835069
% es.EZ (V/m) @ t=0.66
10.074709742699238
% es.tEX (V/m) @ t=0.66
12.611131627999784
% es.tEY (V/m) @ t=0.66
0
% es.tEZ (V/m) @ t=0.66
10.074709742699246
% es.Ex (V/m) @ t=0.66
12.611131627999718
% es.Ey (V/m) @ t=0.66
-1.9325633470835069
% es.Ez (V/m) @ t=0.66
10.074709742699238
% es.tEx (V/m) @ t=0.66
12.611131627999784
% es.tEy (V/m) @ t=0.66
0
% es.tEz (V/m) @ t=0.66
10.074709742699246
% V (V) @ t=0.66
0.013440460903912842
% es.normE (V/m) @ t=0.68
16.50164713870901
% es.EX (V/m) @ t=0.68
12.786934802103378
% es.EY (V/m) @ t=0.68
-1.9594785885711286
% es.EZ (V/m) @ t=0.68
10.215187761337745
% es.tEX (V/m) @ t=0.68
12.78693480210341
% es.tEY (V/m) @ t=0.68
0
% es.tEZ (V/m) @ t=0.68
10.215187761337758
% es.Ex (V/m) @ t=0.68
12.786934802103378
% es.Ey (V/m) @ t=0.68
-1.9594785885711286
% es.Ez (V/m) @ t=0.68
10.215187761337745
% es.tEx (V/m) @ t=0.68
12.78693480210341
% es.tEy (V/m) @ t=0.68
0
% es.tEz (V/m) @ t=0.68
10.215187761337758
% V (V) @ t=0.68
0.013627802581892274
% es.normE (V/m) @ t=0.7
16.73060850153191
% es.EX (V/m) @ t=0.7
12.964340753875417
% es.EY (V/m) @ t=0.7
-1.9866372374044907
% es.EZ (V/m) @ t=0.7
10.356949107742842
% es.tEX (V/m) @ t=0.7
12.964340753875472
% es.tEY (V/m) @ t=0.7
0
% es.tEZ (V/m) @ t=0.7
10.356949107742832
% es.Ex (V/m) @ t=0.7
12.964340753875417
% es.Ey (V/m) @ t=0.7
-1.9866372374044907
% es.Ez (V/m) @ t=0.7
10.356949107742842
% es.tEx (V/m) @ t=0.7
12.964340753875472
% es.tEy (V/m) @ t=0.7
0
% es.tEz (V/m) @ t=0.7
10.356949107742832
% V (V) @ t=0.7
0.01381685046699618
% es.normE (V/m) @ t=0.72
16.961639681201476
% es.EX (V/m) @ t=0.72
13.143349483315724
% es.EY (V/m) @ t=0.72
-2.014039293583611
% es.EZ (V/m) @ t=0.72
10.499993781914599
% es.tEX (V/m) @ t=0.72
13.143349483315774
% es.tEY (V/m) @ t=0.72
0
% es.tEZ (V/m) @ t=0.72
10.499993781914599
% es.Ex (V/m) @ t=0.72
13.143349483315724
% es.Ey (V/m) @ t=0.72
-2.014039293583611
% es.Ez (V/m) @ t=0.72
10.499993781914599
% es.tEx (V/m) @ t=0.72
13.143349483315774
% es.tEy (V/m) @ t=0.72
0
% es.tEz (V/m) @ t=0.72
10.499993781914599
% V (V) @ t=0.72
0.014007604559224547
% es.normE (V/m) @ t=0.74
17.19474067775097
% es.EX (V/m) @ t=0.74
13.323960990424363
% es.EY (V/m) @ t=0.74
-2.04168475710852
% es.EZ (V/m) @ t=0.74
10.644321783852945
% es.tEX (V/m) @ t=0.74
13.323960990424428
% es.tEY (V/m) @ t=0.74
0
% es.tEZ (V/m) @ t=0.74
10.644321783852941
% es.Ex (V/m) @ t=0.74
13.323960990424363
% es.Ey (V/m) @ t=0.74
-2.04168475710852
% es.Ez (V/m) @ t=0.74
10.644321783852945
% es.tEx (V/m) @ t=0.74
13.323960990424428
% es.tEy (V/m) @ t=0.74
0
% es.tEz (V/m) @ t=0.74
10.644321783852941
% V (V) @ t=0.74
0.014200064858577388
% es.normE (V/m) @ t=0.76
17.42991149121471
% es.EX (V/m) @ t=0.76
13.506175275201262
% es.EY (V/m) @ t=0.76
-2.0695736279791674
% es.EZ (V/m) @ t=0.76
10.789933113557879
% es.tEX (V/m) @ t=0.76
13.506175275201324
% es.tEY (V/m) @ t=0.76
0
% es.tEZ (V/m) @ t=0.76
10.789933113557861
% es.Ex (V/m) @ t=0.76
13.506175275201262
% es.Ey (V/m) @ t=0.76
-2.0695736279791674
% es.Ez (V/m) @ t=0.76
10.789933113557879
% es.tEx (V/m) @ t=0.76
13.506175275201324
% es.tEy (V/m) @ t=0.76
0
% es.tEz (V/m) @ t=0.76
10.789933113557861
% V (V) @ t=0.76
0.0143942313650547
% es.normE (V/m) @ t=0.78
17.66715212162822
% es.EX (V/m) @ t=0.78
13.689992337646613
% es.EY (V/m) @ t=0.78
-2.0977059061956
% es.EZ (V/m) @ t=0.78
10.936827771029481
% es.tEX (V/m) @ t=0.78
13.689992337646654
% es.tEY (V/m) @ t=0.78
0
% es.tEZ (V/m) @ t=0.78
10.936827771029476
% es.Ex (V/m) @ t=0.78
13.689992337646613
% es.Ey (V/m) @ t=0.78
-2.0977059061956
% es.Ez (V/m) @ t=0.78
10.936827771029481
% es.tEx (V/m) @ t=0.78
13.689992337646654
% es.tEy (V/m) @ t=0.78
0
% es.tEz (V/m) @ t=0.78
10.936827771029476
% V (V) @ t=0.78
0.014590104078656475
% es.normE (V/m) @ t=0.8
17.90646256902739
% es.EX (V/m) @ t=0.8
13.875412177760133
% es.EY (V/m) @ t=0.8
-2.126081591757778
% es.EZ (V/m) @ t=0.8
11.085005756267623
% es.tEX (V/m) @ t=0.8
13.87541217776017
% es.tEY (V/m) @ t=0.8
0
% es.tEZ (V/m) @ t=0.8
11.085005756267623
% es.Ex (V/m) @ t=0.8
13.875412177760133
% es.Ey (V/m) @ t=0.8
-2.126081591757778
% es.Ez (V/m) @ t=0.8
11.085005756267623
% es.tEx (V/m) @ t=0.8
13.87541217776017
% es.tEy (V/m) @ t=0.8
0
% es.tEz (V/m) @ t=0.8
11.085005756267623
% V (V) @ t=0.8
0.014787682999382726
% es.normE (V/m) @ t=0.82
18.148927660246063
% es.EX (V/m) @ t=0.82
14.063279547147706
% es.EY (V/m) @ t=0.82
-2.1548384165124013
% es.EZ (V/m) @ t=0.82
11.235131000896956
% es.tEX (V/m) @ t=0.82
14.063279547147756
% es.tEY (V/m) @ t=0.82
0
% es.tEZ (V/m) @ t=0.82
11.235131000896926
% es.Ex (V/m) @ t=0.82
14.063279547147706
% es.Ey (V/m) @ t=0.82
-2.1548384165124013
% es.Ez (V/m) @ t=0.82
11.235131000896956
% es.tEx (V/m) @ t=0.82
14.063279547147756
% es.tEy (V/m) @ t=0.82
0
% es.tEz (V/m) @ t=0.82
11.235131000896926
% V (V) @ t=0.82
0.014987875829791705
% es.normE (V/m) @ t=0.84
18.396937949362993
% es.EX (V/m) @ t=0.84
14.255455963729425
% es.EY (V/m) @ t=0.84
-2.184279890152361
% es.EZ (V/m) @ t=0.84
11.388666562943369
% es.tEX (V/m) @ t=0.84
14.255455963729435
% es.tEY (V/m) @ t=0.84
0
% es.tEZ (V/m) @ t=0.84
11.388666562943378
% es.Ex (V/m) @ t=0.84
14.255455963729425
% es.Ey (V/m) @ t=0.84
-2.184279890152361
% es.Ez (V/m) @ t=0.84
11.388666562943369
% es.tEx (V/m) @ t=0.84
14.255455963729435
% es.tEy (V/m) @ t=0.84
0
% es.tEz (V/m) @ t=0.84
11.388666562943378
% V (V) @ t=0.84
0.015192682808257309
% es.normE (V/m) @ t=0.86
18.6476222192351
% es.EX (V/m) @ t=0.86
14.449705618792644
% es.EY (V/m) @ t=0.86
-2.2140414770433026
% es.EZ (V/m) @ t=0.86
11.543855210931376
% es.tEX (V/m) @ t=0.86
14.449705618792668
% es.tEY (V/m) @ t=0.86
0
% es.tEZ (V/m) @ t=0.86
11.543855210931367
% es.Ex (V/m) @ t=0.86
14.449705618792644
% es.Ey (V/m) @ t=0.86
-2.2140414770433026
% es.Ez (V/m) @ t=0.86
11.543855210931376
% es.tEx (V/m) @ t=0.86
14.449705618792668
% es.tEy (V/m) @ t=0.86
0
% es.tEz (V/m) @ t=0.86
11.543855210931367
% V (V) @ t=0.86
0.015399701513435497
% es.normE (V/m) @ t=0.88
18.90098046985937
% es.EX (V/m) @ t=0.88
14.64602851233749
% es.EY (V/m) @ t=0.88
-2.244123177185262
% es.EZ (V/m) @ t=0.88
11.700696944860967
% es.tEX (V/m) @ t=0.88
14.646028512337569
% es.tEY (V/m) @ t=0.88
0
% es.tEZ (V/m) @ t=0.88
11.700696944860951
% es.Ex (V/m) @ t=0.88
14.64602851233749
% es.Ey (V/m) @ t=0.88
-2.244123177185262
% es.Ez (V/m) @ t=0.88
11.700696944860967
% es.tEx (V/m) @ t=0.88
14.646028512337569
% es.tEy (V/m) @ t=0.88
0
% es.tEz (V/m) @ t=0.88
11.700696944860951
% V (V) @ t=0.88
0.015608931945326268
% es.normE (V/m) @ t=0.9
19.157012701236184
% es.EX (V/m) @ t=0.9
14.84442464436389
% es.EY (V/m) @ t=0.9
-2.274524990578197
% es.EZ (V/m) @ t=0.9
11.859191764732131
% es.tEX (V/m) @ t=0.9
14.84442464436394
% es.tEY (V/m) @ t=0.9
0
% es.tEZ (V/m) @ t=0.9
11.859191764732143
% es.Ex (V/m) @ t=0.9
14.84442464436389
% es.Ey (V/m) @ t=0.9
-2.274524990578197
% es.Ez (V/m) @ t=0.9
11.859191764732131
% es.tEx (V/m) @ t=0.9
14.84442464436394
% es.tEy (V/m) @ t=0.9
0
% es.tEz (V/m) @ t=0.9
11.859191764732143
% V (V) @ t=0.9
0.01582037410392962
% es.normE (V/m) @ t=0.92
19.415718913369346
% es.EX (V/m) @ t=0.92
15.04489401487192
% es.EY (V/m) @ t=0.92
-2.305246917221954
% es.EZ (V/m) @ t=0.92
12.019339670544941
% es.tEX (V/m) @ t=0.92
15.044894014871982
% es.tEY (V/m) @ t=0.92
0
% es.tEZ (V/m) @ t=0.92
12.019339670544928
% es.Ex (V/m) @ t=0.92
15.04489401487192
% es.Ey (V/m) @ t=0.92
-2.305246917221954
% es.Ez (V/m) @ t=0.92
12.019339670544941
% es.tEx (V/m) @ t=0.92
15.044894014871982
% es.tEy (V/m) @ t=0.92
0
% es.tEz (V/m) @ t=0.92
12.019339670544928
% V (V) @ t=0.92
0.01603402798924556
% es.normE (V/m) @ t=0.94
19.67709910626575
% es.EX (V/m) @ t=0.94
15.247436623861716
% es.EY (V/m) @ t=0.94
-2.336288957116686
% es.EZ (V/m) @ t=0.94
12.181140662299349
% es.tEX (V/m) @ t=0.94
15.247436623861745
% es.tEY (V/m) @ t=0.94
0
% es.tEZ (V/m) @ t=0.94
12.181140662299324
% es.Ex (V/m) @ t=0.94
15.247436623861716
% es.Ey (V/m) @ t=0.94
-2.336288957116686
% es.Ez (V/m) @ t=0.94
12.181140662299349
% es.tEx (V/m) @ t=0.94
15.247436623861745
% es.tEy (V/m) @ t=0.94
0
% es.tEz (V/m) @ t=0.94
12.181140662299324
% V (V) @ t=0.94
0.016249893601274074
% es.normE (V/m) @ t=0.96
19.941153279934774
% es.EX (V/m) @ t=0.96
15.452052471332957
% es.EY (V/m) @ t=0.96
-2.367651110262358
% es.EZ (V/m) @ t=0.96
12.344594739995273
% es.tEX (V/m) @ t=0.96
15.452052471333008
% es.tEY (V/m) @ t=0.96
0
% es.tEZ (V/m) @ t=0.96
12.34459473999527
% es.Ex (V/m) @ t=0.96
15.452052471332957
% es.Ey (V/m) @ t=0.96
-2.367651110262358
% es.Ez (V/m) @ t=0.96
12.344594739995273
% es.tEx (V/m) @ t=0.96
15.452052471333008
% es.tEy (V/m) @ t=0.96
0
% es.tEz (V/m) @ t=0.96
12.34459473999527
% V (V) @ t=0.96
0.016467970940015175
% es.normE (V/m) @ t=0.98
20.207881434389037
% es.EX (V/m) @ t=0.98
15.658741557285866
% es.EY (V/m) @ t=0.98
-2.3993333766590084
% es.EZ (V/m) @ t=0.98
12.509701903632893
% es.tEX (V/m) @ t=0.98
15.658741557285968
% es.tEY (V/m) @ t=0.98
0
% es.tEZ (V/m) @ t=0.98
12.50970190363288
% es.Ex (V/m) @ t=0.98
15.658741557285866
% es.Ey (V/m) @ t=0.98
-2.3993333766590084
% es.Ez (V/m) @ t=0.98
12.509701903632893
% es.tEx (V/m) @ t=0.98
15.658741557285968
% es.tEy (V/m) @ t=0.98
0
% es.tEz (V/m) @ t=0.98
12.50970190363288
% V (V) @ t=0.98
0.01668826000546886
% es.normE (V/m) @ t=1
20.477283569643106
% es.EX (V/m) @ t=1
15.86750388172026
% es.EY (V/m) @ t=1
-2.431335756306595
% es.EZ (V/m) @ t=1
12.676462153212016
% es.tEX (V/m) @ t=1
15.86750388172031
% es.tEY (V/m) @ t=1
0
% es.tEZ (V/m) @ t=1
12.676462153211986
% es.Ex (V/m) @ t=1
15.86750388172026
% es.Ey (V/m) @ t=1
-2.431335756306595
% es.Ez (V/m) @ t=1
12.676462153212016
% es.tEx (V/m) @ t=1
15.86750388172031
% es.tEy (V/m) @ t=1
0
% es.tEz (V/m) @ t=1
12.676462153211986
% V (V) @ t=1
0.016910760797635132
% es.normE (V/m) @ t=1.02
20.74935968571433
% es.EX (V/m) @ t=1.02
16.07833944463631
% es.EY (V/m) @ t=1.02
-2.4636582492051673
% es.EZ (V/m) @ t=1.02
12.844875488732765
% es.tEX (V/m) @ t=1.02
16.07833944463638
% es.tEY (V/m) @ t=1.02
0
% es.tEZ (V/m) @ t=1.02
12.844875488732741
% es.Ex (V/m) @ t=1.02
16.07833944463631
% es.Ey (V/m) @ t=1.02
-2.4636582492051673
% es.Ez (V/m) @ t=1.02
12.844875488732765
% es.tEx (V/m) @ t=1.02
16.07833944463638
% es.tEy (V/m) @ t=1.02
0
% es.tEz (V/m) @ t=1.02
12.844875488732741
% V (V) @ t=1.02
0.017135473316513977
% es.normE (V/m) @ t=1.04
21.024109782622023
% es.EX (V/m) @ t=1.04
16.29124824603413
% es.EY (V/m) @ t=1.04
-2.4963008553546224
% es.EZ (V/m) @ t=1.04
13.014941910195086
% es.tEX (V/m) @ t=1.04
16.291248246034172
% es.tEY (V/m) @ t=1.04
0
% es.tEZ (V/m) @ t=1.04
13.014941910195105
% es.Ex (V/m) @ t=1.04
16.29124824603413
% es.Ey (V/m) @ t=1.04
-2.4963008553546224
% es.Ez (V/m) @ t=1.04
13.014941910195086
% es.tEx (V/m) @ t=1.04
16.291248246034172
% es.tEy (V/m) @ t=1.04
0
% es.tEz (V/m) @ t=1.04
13.014941910195105
% V (V) @ t=1.04
0.017362397562105412
% es.normE (V/m) @ t=1.06
21.30153386038729
% es.EX (V/m) @ t=1.06