% Model:              1 neuron.mph
% Version:            COMSOL 6.0.0.405
% Date:               Mar 16 2023, 19:04
% Dimension:          0
% Nodes:              14017
% Expressions:        14017
% Description:        Electric field norm, Electric field, X component, Electric field, Y component, Electric field, Z component, Tangential electric field, X component, Tangential electric field, Y component, Tangential electric field, Z component, Electric field, x component, Electric field, y component, Electric field, z component, Tangential electric field, x component, Tangential electric field, y component, Tangential electric field, z component, Electric potential
% Length unit:        mm
% x
2
% y
12.2
% z
1.33
% es.normE (V/m) @ t=0
1.9686299489362709
% es.EX (V/m) @ t=0
-1.8107015486116056
% es.EY (V/m) @ t=0
0.14124686490737415
% es.EZ (V/m) @ t=0
0.7572685240545785
% es.tEX (V/m) @ t=0
-1.8107015486115952
% es.tEY (V/m) @ t=0
0
% es.tEZ (V/m) @ t=0
0.757268524054588
% es.Ex (V/m) @ t=0
-1.8107015486116056
% es.Ey (V/m) @ t=0
0.14124686490737415
% es.Ez (V/m) @ t=0
0.7572685240545785
% es.tEx (V/m) @ t=0
-1.8107015486115952
% es.tEy (V/m) @ t=0
0
% es.tEz (V/m) @ t=0
0.757268524054588
% V (V) @ t=0
0.01099125992180341
% es.normE (V/m) @ t=0.02
1.7097699325602753
% es.EX (V/m) @ t=0.02
-1.572607927450324
% es.EY (V/m) @ t=0.02
0.12267397190143448
% es.EZ (V/m) @ t=0.02
0.6576934147572744
% es.tEX (V/m) @ t=0.02
-1.5726079274503189
% es.tEY (V/m) @ t=0.02
0
% es.tEZ (V/m) @ t=0.02
0.6576934147572757
% es.Ex (V/m) @ t=0.02
-1.572607927450324
% es.Ey (V/m) @ t=0.02
0.12267397190143448
% es.Ez (V/m) @ t=0.02
0.6576934147572744
% es.tEx (V/m) @ t=0.02
-1.5726079274503189
% es.tEy (V/m) @ t=0.02
0
% es.tEz (V/m) @ t=0.02
0.6576934147572757
% V (V) @ t=0.02
0.009545991811912482
% es.normE (V/m) @ t=0.04
1.735121774047574
% es.EX (V/m) @ t=0.04
-1.5959259804344168
% es.EY (V/m) @ t=0.04
0.12449294647227827
% es.EZ (V/m) @ t=0.04
0.6674454516636847
% es.tEX (V/m) @ t=0.04
-1.595925980434405
% es.tEY (V/m) @ t=0.04
0
% es.tEZ (V/m) @ t=0.04
0.6674454516636814
% es.Ex (V/m) @ t=0.04
-1.5959259804344168
% es.Ey (V/m) @ t=0.04
0.12449294647227827
% es.Ez (V/m) @ t=0.04
0.6674454516636847
% es.tEx (V/m) @ t=0.04
-1.595925980434405
% es.tEy (V/m) @ t=0.04
0
% es.tEz (V/m) @ t=0.04
0.6674454516636814
% V (V) @ t=0.04
0.009687535986323527
% es.normE (V/m) @ t=0.06
1.7608538016467141
% es.EX (V/m) @ t=0.06
-1.6195937208478388
% es.EY (V/m) @ t=0.06
0.12633918570494695
% es.EZ (V/m) @ t=0.06
0.6773437337021819
% es.tEX (V/m) @ t=0.06
-1.6195937208478313
% es.tEY (V/m) @ t=0.06
0
% es.tEZ (V/m) @ t=0.06
0.6773437337021875
% es.Ex (V/m) @ t=0.06
-1.6195937208478388
% es.Ey (V/m) @ t=0.06
0.12633918570494695
% es.Ez (V/m) @ t=0.06
0.6773437337021819
% es.tEx (V/m) @ t=0.06
-1.6195937208478313
% es.tEy (V/m) @ t=0.06
0
% es.tEz (V/m) @ t=0.06
0.6773437337021875
% V (V) @ t=0.06
0.009831203203500751
% es.normE (V/m) @ t=0.08
1.787242891217709
% es.EX (V/m) @ t=0.08
-1.6438658108381554
% es.EY (V/m) @ t=0.08
0.12823258882362853
% es.EZ (V/m) @ t=0.08
0.6874947667040279
% es.tEX (V/m) @ t=0.08
-1.6438658108381503
% es.tEY (V/m) @ t=0.08
0
% es.tEZ (V/m) @ t=0.08
0.6874947667040239
% es.Ex (V/m) @ t=0.08
-1.6438658108381554
% es.Ey (V/m) @ t=0.08
0.12823258882362853
% es.Ez (V/m) @ t=0.08
0.6874947667040279
% es.tEx (V/m) @ t=0.08
-1.6438658108381503
% es.tEy (V/m) @ t=0.08
0
% es.tEz (V/m) @ t=0.08
0.6874947667040239
% V (V) @ t=0.08
0.009978538343090237
% es.normE (V/m) @ t=0.1
1.8140893879986353
% es.EX (V/m) @ t=0.1
-1.6685586128246588
% es.EY (V/m) @ t=0.1
0.13015882461632367
% es.EZ (V/m) @ t=0.1
0.6978217497956449
% es.tEX (V/m) @ t=0.1
-1.6685586128246612
% es.tEY (V/m) @ t=0.1
0
% es.tEZ (V/m) @ t=0.1
0.6978217497956436
% es.Ex (V/m) @ t=0.1
-1.6685586128246588
% es.Ey (V/m) @ t=0.1
0.13015882461632367
% es.Ez (V/m) @ t=0.1
0.6978217497956449
% es.tEx (V/m) @ t=0.1
-1.6685586128246612
% es.tEy (V/m) @ t=0.1
0
% es.tEz (V/m) @ t=0.1
0.6978217497956436
% V (V) @ t=0.1
0.01012842687068376
% es.normE (V/m) @ t=0.12
1.8409358847795734
% es.EX (V/m) @ t=0.12
-1.6932514148111675
% es.EY (V/m) @ t=0.12
0.13208506040901524
% es.EZ (V/m) @ t=0.12
0.708148732887278
% es.tEX (V/m) @ t=0.12
-1.6932514148111615
% es.tEY (V/m) @ t=0.12
0
% es.tEZ (V/m) @ t=0.12
0.7081487328872811
% es.Ex (V/m) @ t=0.12
-1.6932514148111675
% es.Ey (V/m) @ t=0.12
0.13208506040901524
% es.Ez (V/m) @ t=0.12
0.708148732887278
% es.tEx (V/m) @ t=0.12
-1.6932514148111615
% es.tEy (V/m) @ t=0.12
0
% es.tEz (V/m) @ t=0.12
0.7081487328872811
% V (V) @ t=0.12
0.010278315398277279
% es.normE (V/m) @ t=0.14
1.8682389486453035
% es.EX (V/m) @ t=0.14
-1.7183641564280132
% es.EY (V/m) @ t=0.14
0.13404406288719772
% es.EZ (V/m) @ t=0.14
0.7186513427461778
% es.tEX (V/m) @ t=0.14
-1.7183641564280059
% es.tEY (V/m) @ t=0.14
0
% es.tEZ (V/m) @ t=0.14
0.718651342746174
% es.Ex (V/m) @ t=0.14
-1.7183641564280132
% es.Ey (V/m) @ t=0.14
0.13404406288719772
% es.Ez (V/m) @ t=0.14
0.7186513427461778
% es.tEx (V/m) @ t=0.14
-1.7183641564280059
% es.tEy (V/m) @ t=0.14
0
% es.tEz (V/m) @ t=0.14
0.718651342746174
% V (V) @ t=0.14
0.01043075277791448
% es.normE (V/m) @ t=0.16
1.8974997372292686
% es.EX (V/m) @ t=0.16
-1.7452775670414826
% es.EY (V/m) @ t=0.16
0.1361435664051337
% es.EZ (V/m) @ t=0.16
0.7299070267423623
% es.tEX (V/m) @ t=0.16
-1.7452775670414784
% es.tEY (V/m) @ t=0.16
0
% es.tEZ (V/m) @ t=0.16
0.7299070267423637
% es.Ex (V/m) @ t=0.16
-1.7452775670414826
% es.Ey (V/m) @ t=0.16
0.1361435664051337
% es.Ez (V/m) @ t=0.16
0.7299070267423623
% es.tEx (V/m) @ t=0.16
-1.7452775670414784
% es.tEy (V/m) @ t=0.16
0
% es.tEz (V/m) @ t=0.16
0.7299070267423637
% V (V) @ t=0.16
0.010594119440049468
% es.normE (V/m) @ t=0.18
1.9267605258132425
% es.EX (V/m) @ t=0.18
-1.7721909776549556
% es.EY (V/m) @ t=0.18
0.13824306992308388
% es.EZ (V/m) @ t=0.18
0.741162710738545
% es.tEX (V/m) @ t=0.18
-1.7721909776549492
% es.tEY (V/m) @ t=0.18
0
% es.tEZ (V/m) @ t=0.18
0.7411627107385392
% es.Ex (V/m) @ t=0.18
-1.7721909776549556
% es.Ey (V/m) @ t=0.18
0.13824306992308388
% es.Ez (V/m) @ t=0.18
0.741162710738545
% es.tEx (V/m) @ t=0.18
-1.7721909776549492
% es.tEy (V/m) @ t=0.18
0
% es.tEz (V/m) @ t=0.18
0.7411627107385392
% V (V) @ t=0.18
0.010757486102184455
% es.normE (V/m) @ t=0.2
1.9560213143972107
% es.EX (V/m) @ t=0.2
-1.799104388268418
% es.EY (V/m) @ t=0.2
0.1403425734410323
% es.EZ (V/m) @ t=0.2
0.7524183947347296
% es.tEX (V/m) @ t=0.2
-1.799104388268411
% es.tEY (V/m) @ t=0.2
0
% es.tEZ (V/m) @ t=0.2
0.7524183947347254
% es.Ex (V/m) @ t=0.2
-1.799104388268418
% es.Ey (V/m) @ t=0.2
0.1403425734410323
% es.Ez (V/m) @ t=0.2
0.7524183947347296
% es.tEx (V/m) @ t=0.2
-1.799104388268411
% es.tEy (V/m) @ t=0.2
0
% es.tEz (V/m) @ t=0.2
0.7524183947347254
% V (V) @ t=0.2
0.010920852764319445
% es.normE (V/m) @ t=0.22
1.9852821029811876
% es.EX (V/m) @ t=0.22
-1.826017798881889
% es.EY (V/m) @ t=0.22
0.14244207695897537
% es.EZ (V/m) @ t=0.22
0.7636740787309052
% es.tEX (V/m) @ t=0.22
-1.8260177988818747
% es.tEY (V/m) @ t=0.22
0
% es.tEZ (V/m) @ t=0.22
0.7636740787308938
% es.Ex (V/m) @ t=0.22
-1.826017798881889
% es.Ey (V/m) @ t=0.22
0.14244207695897537
% es.Ez (V/m) @ t=0.22
0.7636740787309052
% es.tEx (V/m) @ t=0.22
-1.8260177988818747
% es.tEy (V/m) @ t=0.22
0
% es.tEz (V/m) @ t=0.22
0.7636740787308938
% V (V) @ t=0.22
0.01108421942645443
% es.normE (V/m) @ t=0.24
2.0145428915651733
% es.EX (V/m) @ t=0.24
-1.8529312094953607
% es.EY (V/m) @ t=0.24
0.1445415804769168
% es.EZ (V/m) @ t=0.24
0.7749297627270915
% es.tEX (V/m) @ t=0.24
-1.8529312094953578
% es.tEY (V/m) @ t=0.24
0
% es.tEZ (V/m) @ t=0.24
0.7749297627270906
% es.Ex (V/m) @ t=0.24
-1.8529312094953607
% es.Ey (V/m) @ t=0.24
0.1445415804769168
% es.Ez (V/m) @ t=0.24
0.7749297627270915
% es.tEx (V/m) @ t=0.24
-1.8529312094953578
% es.tEy (V/m) @ t=0.24
0
% es.tEz (V/m) @ t=0.24
0.7749297627270906
% V (V) @ t=0.24
0.011247586088589416
% es.normE (V/m) @ t=0.26
2.043803680149159
% es.EX (V/m) @ t=0.26
-1.879844620108831
% es.EY (V/m) @ t=0.26
0.14664108399487052
% es.EZ (V/m) @ t=0.26
0.7861854467232705
% es.tEX (V/m) @ t=0.26
-1.8798446201088215
% es.tEY (V/m) @ t=0.26
0
% es.tEZ (V/m) @ t=0.26
0.7861854467232661
% es.Ex (V/m) @ t=0.26
-1.879844620108831
% es.Ey (V/m) @ t=0.26
0.14664108399487052
% es.Ez (V/m) @ t=0.26
0.7861854467232705
% es.tEx (V/m) @ t=0.26
-1.8798446201088215
% es.tEy (V/m) @ t=0.26
0
% es.tEz (V/m) @ t=0.26
0.7861854467232661
% V (V) @ t=0.26
0.011410952750724405
% es.normE (V/m) @ t=0.28
2.0740763339058033
% es.EX (V/m) @ t=0.28
-1.9076887216284508
% es.EY (V/m) @ t=0.28
0.14881318623977424
% es.EZ (V/m) @ t=0.28
0.7978303626472585
% es.tEX (V/m) @ t=0.28
-1.9076887216284408
% es.tEY (V/m) @ t=0.28
0
% es.tEZ (V/m) @ t=0.28
0.7978303626472609
% es.Ex (V/m) @ t=0.28
-1.9076887216284508
% es.Ey (V/m) @ t=0.28
0.14881318623977424
% es.Ez (V/m) @ t=0.28
0.7978303626472585
% es.tEx (V/m) @ t=0.28
-1.9076887216284408
% es.tEy (V/m) @ t=0.28
0
% es.tEz (V/m) @ t=0.28
0.7978303626472609
% V (V) @ t=0.28
0.011579968905544842
% es.normE (V/m) @ t=0.3
2.1059437956971148
% es.EX (V/m) @ t=0.3
-1.936999691832785
% es.EY (V/m) @ t=0.3
0.1510997118645966
% es.EZ (V/m) @ t=0.3
0.8100887498345903
% es.tEX (V/m) @ t=0.3
-1.9369996918327779
% es.tEY (V/m) @ t=0.3
0
% es.tEZ (V/m) @ t=0.3
0.8100887498345912
% es.Ex (V/m) @ t=0.3
-1.936999691832785
% es.Ey (V/m) @ t=0.3
0.1510997118645966
% es.Ez (V/m) @ t=0.3
0.8100887498345903
% es.tEx (V/m) @ t=0.3
-1.9369996918327779
% es.tEy (V/m) @ t=0.3
0
% es.tEz (V/m) @ t=0.3
0.8100887498345912
% V (V) @ t=0.3
0.011757889266745652
% es.normE (V/m) @ t=0.32
2.137811257488422
% es.EX (V/m) @ t=0.32
-1.966310662037116
% es.EY (V/m) @ t=0.32
0.15338623748941893
% es.EZ (V/m) @ t=0.32
0.8223471370219078
% es.tEX (V/m) @ t=0.32
-1.9663106620371025
% es.tEY (V/m) @ t=0.32
0
% es.tEZ (V/m) @ t=0.32
0.8223471370219073
% es.Ex (V/m) @ t=0.32
-1.966310662037116
% es.Ey (V/m) @ t=0.32
0.15338623748941893
% es.Ez (V/m) @ t=0.32
0.8223471370219078
% es.tEx (V/m) @ t=0.32
-1.9663106620371025
% es.tEy (V/m) @ t=0.32
0
% es.tEz (V/m) @ t=0.32
0.8223471370219073
% V (V) @ t=0.32
0.011935809627946457
% es.normE (V/m) @ t=0.34
2.169678719279732
% es.EX (V/m) @ t=0.34
-1.9956216322414444
% es.EY (V/m) @ t=0.34
0.15567276311424316
% es.EZ (V/m) @ t=0.34
0.834605524209236
% es.tEX (V/m) @ t=0.34
-1.9956216322414377
% es.tEY (V/m) @ t=0.34
0
% es.tEZ (V/m) @ t=0.34
0.8346055242092341
% es.Ex (V/m) @ t=0.34
-1.9956216322414444
% es.Ey (V/m) @ t=0.34
0.15567276311424316
% es.Ez (V/m) @ t=0.34
0.834605524209236
% es.tEx (V/m) @ t=0.34
-1.9956216322414377
% es.tEy (V/m) @ t=0.34
0
% es.tEz (V/m) @ t=0.34
0.8346055242092341
% V (V) @ t=0.34
0.01211372998914727
% es.normE (V/m) @ t=0.36
2.2015461810710466
% es.EX (V/m) @ t=0.36
-2.0249326024457757
% es.EY (V/m) @ t=0.36
0.15795928873904586
% es.EZ (V/m) @ t=0.36
0.8468639113965643
% es.tEX (V/m) @ t=0.36
-2.024932602445773
% es.tEY (V/m) @ t=0.36
0
% es.tEZ (V/m) @ t=0.36
0.8468639113965573
% es.Ex (V/m) @ t=0.36
-2.0249326024457757
% es.Ey (V/m) @ t=0.36
0.15795928873904586
% es.Ez (V/m) @ t=0.36
0.8468639113965643
% es.tEx (V/m) @ t=0.36
-2.024932602445773
% es.tEy (V/m) @ t=0.36
0
% es.tEz (V/m) @ t=0.36
0.8468639113965573
% V (V) @ t=0.36
0.012291650350348078
% es.normE (V/m) @ t=0.38
2.2334136428623594
% es.EX (V/m) @ t=0.38
-2.054243572650102
% es.EY (V/m) @ t=0.38
0.16024581436387553
% es.EZ (V/m) @ t=0.38
0.859122298583885
% es.tEX (V/m) @ t=0.38
-2.054243572650096
% es.tEY (V/m) @ t=0.38
0
% es.tEZ (V/m) @ t=0.38
0.8591222985838805
% es.Ex (V/m) @ t=0.38
-2.054243572650102
% es.Ey (V/m) @ t=0.38
0.16024581436387553
% es.Ez (V/m) @ t=0.38
0.859122298583885
% es.tEx (V/m) @ t=0.38
-2.054243572650096
% es.tEy (V/m) @ t=0.38
0
% es.tEz (V/m) @ t=0.38
0.8591222985838805
% V (V) @ t=0.38
0.012469570711548887
% es.normE (V/m) @ t=0.4
2.265281104653656
% es.EX (V/m) @ t=0.4
-2.083554542854416
% es.EY (V/m) @ t=0.4
0.16253233998868366
% es.EZ (V/m) @ t=0.4
0.871380685771192
% es.tEX (V/m) @ t=0.4
-2.0835545428544098
% es.tEY (V/m) @ t=0.4
0
% es.tEZ (V/m) @ t=0.4
0.8713806857711965
% es.Ex (V/m) @ t=0.4
-2.083554542854416
% es.Ey (V/m) @ t=0.4
0.16253233998868366
% es.Ez (V/m) @ t=0.4
0.871380685771192
% es.tEx (V/m) @ t=0.4
-2.0835545428544098
% es.tEy (V/m) @ t=0.4
0
% es.tEz (V/m) @ t=0.4
0.8713806857711965
% V (V) @ t=0.4
0.012647491072749697
% es.normE (V/m) @ t=0.42
2.298794667829255
% es.EX (V/m) @ t=0.42
-2.1143795588886816
% es.EY (V/m) @ t=0.42
0.1649369913919294
% es.EZ (V/m) @ t=0.42
0.8842722754647947
% es.tEX (V/m) @ t=0.42
-2.1143795588886736
% es.tEY (V/m) @ t=0.42
0
% es.tEZ (V/m) @ t=0.42
0.8842722754647951
% es.Ex (V/m) @ t=0.42
-2.1143795588886816
% es.Ey (V/m) @ t=0.42
0.1649369913919294
% es.Ez (V/m) @ t=0.42
0.8842722754647947
% es.tEx (V/m) @ t=0.42
-2.1143795588886736
% es.tEy (V/m) @ t=0.42
0
% es.tEz (V/m) @ t=0.42
0.8842722754647951
% V (V) @ t=0.42
0.012834601367974346
% es.normE (V/m) @ t=0.44
2.333465173044713
% es.EX (V/m) @ t=0.44
-2.1462687033464185
% es.EY (V/m) @ t=0.44
0.16742466604047757
% es.EZ (V/m) @ t=0.44
0.8976089037242015
% es.tEX (V/m) @ t=0.44
-2.1462687033464043
% es.tEY (V/m) @ t=0.44
0
% es.tEZ (V/m) @ t=0.44
0.8976089037241977
% es.Ex (V/m) @ t=0.44
-2.1462687033464185
% es.Ey (V/m) @ t=0.44
0.16742466604047757
% es.Ez (V/m) @ t=0.44
0.8976089037242015
% es.tEx (V/m) @ t=0.44
-2.1462687033464043
% es.tEy (V/m) @ t=0.44
0
% es.tEz (V/m) @ t=0.44
0.8976089037241977
% V (V) @ t=0.44
0.01302817069489493
% es.normE (V/m) @ t=0.46
2.368135678260164
% es.EX (V/m) @ t=0.46
-2.178157847804145
% es.EY (V/m) @ t=0.46
0.1699123406890224
% es.EZ (V/m) @ t=0.46
0.9109455319836081
% es.tEX (V/m) @ t=0.46
-2.1781578478041403
% es.tEY (V/m) @ t=0.46
0
% es.tEZ (V/m) @ t=0.46
0.9109455319836073
% es.Ex (V/m) @ t=0.46
-2.178157847804145
% es.Ey (V/m) @ t=0.46
0.1699123406890224
% es.Ez (V/m) @ t=0.46
0.9109455319836081
% es.tEx (V/m) @ t=0.46
-2.1781578478041403
% es.tEy (V/m) @ t=0.46
0
% es.tEz (V/m) @ t=0.46
0.9109455319836073
% V (V) @ t=0.46
0.013221740021815509
% es.normE (V/m) @ t=0.48
2.402806183475614
% es.EX (V/m) @ t=0.48
-2.210046992261872
% es.EY (V/m) @ t=0.48
0.17240001533757943
% es.EZ (V/m) @ t=0.48
0.9242821602429901
% es.tEX (V/m) @ t=0.48
-2.2100469922618657
% es.tEY (V/m) @ t=0.48
0
% es.tEZ (V/m) @ t=0.48
0.9242821602429885
% es.Ex (V/m) @ t=0.48
-2.210046992261872
% es.Ey (V/m) @ t=0.48
0.17240001533757943
% es.Ez (V/m) @ t=0.48
0.9242821602429901
% es.tEx (V/m) @ t=0.48
-2.2100469922618657
% es.tEy (V/m) @ t=0.48
0
% es.tEz (V/m) @ t=0.48
0.9242821602429885
% V (V) @ t=0.48
0.013415309348736089
% es.normE (V/m) @ t=0.5
2.437476688691088
% es.EX (V/m) @ t=0.5
-2.24193613671961
% es.EY (V/m) @ t=0.5
0.1748876899861206
% es.EZ (V/m) @ t=0.5
0.9376187885024022
% es.tEX (V/m) @ t=0.5
-2.241936136719602
% es.tEY (V/m) @ t=0.5
0
% es.tEZ (V/m) @ t=0.5
0.9376187885023981
% es.Ex (V/m) @ t=0.5
-2.24193613671961
% es.Ey (V/m) @ t=0.5
0.1748876899861206
% es.Ez (V/m) @ t=0.5
0.9376187885024022
% es.tEx (V/m) @ t=0.5
-2.241936136719602
% es.tEy (V/m) @ t=0.5
0
% es.tEz (V/m) @ t=0.5
0.9376187885023981
% V (V) @ t=0.5
0.013608878675656669
% es.normE (V/m) @ t=0.52
2.4721471939065447
% es.EX (V/m) @ t=0.52
-2.273825281177328
% es.EY (V/m) @ t=0.52
0.17737536463467785
% es.EZ (V/m) @ t=0.52
0.9509554167618034
% es.tEX (V/m) @ t=0.52
-2.2738252811773165
% es.tEY (V/m) @ t=0.52
0
% es.tEZ (V/m) @ t=0.52
0.9509554167618006
% es.Ex (V/m) @ t=0.52
-2.273825281177328
% es.Ey (V/m) @ t=0.52
0.17737536463467785
% es.Ez (V/m) @ t=0.52
0.9509554167618034
% es.tEx (V/m) @ t=0.52
-2.2738252811773165
% es.tEy (V/m) @ t=0.52
0
% es.tEz (V/m) @ t=0.52
0.9509554167618006
% V (V) @ t=0.52
0.01380244800257725
% es.normE (V/m) @ t=0.54
2.5068176991220343
% es.EX (V/m) @ t=0.54
-2.305714425635074
% es.EY (V/m) @ t=0.54
0.17986303928325098
% es.EZ (V/m) @ t=0.54
0.9642920450212048
% es.tEX (V/m) @ t=0.54
-2.3057144256350615
% es.tEY (V/m) @ t=0.54
0
% es.tEZ (V/m) @ t=0.54
0.964292045021196
% es.Ex (V/m) @ t=0.54
-2.305714425635074
% es.Ey (V/m) @ t=0.54
0.17986303928325098
% es.Ez (V/m) @ t=0.54
0.9642920450212048
% es.tEx (V/m) @ t=0.54
-2.3057144256350615
% es.tEy (V/m) @ t=0.54
0
% es.tEz (V/m) @ t=0.54
0.964292045021196
% V (V) @ t=0.54
0.013996017329497831
% es.normE (V/m) @ t=0.56
2.5425278361287305
% es.EX (V/m) @ t=0.56
-2.3385598180179423
% es.EY (V/m) @ t=0.56
0.18242500686107288
% es.EZ (V/m) @ t=0.56
0.9780285811858235
% es.tEX (V/m) @ t=0.56
-2.338559818017936
% es.tEY (V/m) @ t=0.56
0
% es.tEZ (V/m) @ t=0.56
0.9780285811858249
% es.Ex (V/m) @ t=0.56
-2.3385598180179423
% es.Ey (V/m) @ t=0.56
0.18242500686107288
% es.Ez (V/m) @ t=0.56
0.9780285811858235
% es.tEx (V/m) @ t=0.56
-2.338559818017936
% es.tEy (V/m) @ t=0.56
0
% es.tEz (V/m) @ t=0.56
0.9780285811858249
% V (V) @ t=0.56
0.01419539988468948
% es.normE (V/m) @ t=0.58
2.578831758144461
% es.EX (V/m) @ t=0.58
-2.3719513707698976
% es.EY (V/m) @ t=0.58
0.18502940679622304
% es.EZ (V/m) @ t=0.58
0.9919935244856021
% es.tEX (V/m) @ t=0.58
-2.371951370769885
% es.tEY (V/m) @ t=0.58
0
% es.tEZ (V/m) @ t=0.58
0.9919935244855935
% es.Ex (V/m) @ t=0.58
-2.3719513707698976
% es.Ey (V/m) @ t=0.58
0.18502940679622304
% es.Ez (V/m) @ t=0.58
0.9919935244856021
% es.tEx (V/m) @ t=0.58
-2.371951370769885
% es.tEy (V/m) @ t=0.58
0
% es.tEz (V/m) @ t=0.58
0.9919935244855935
% V (V) @ t=0.58
0.014398102661357786
% es.normE (V/m) @ t=0.6
2.6154841951053833
% es.EX (V/m) @ t=0.6
-2.4056634857592556
% es.EY (V/m) @ t=0.6
0.18765871189142935
% es.EZ (V/m) @ t=0.6
1.0060925285969167
% es.tEX (V/m) @ t=0.6
-2.4056634857592485
% es.tEY (V/m) @ t=0.6
0
% es.tEZ (V/m) @ t=0.6
1.0060925285969162
% es.Ex (V/m) @ t=0.6
-2.4056634857592556
% es.Ey (V/m) @ t=0.6
0.18765871189142935
% es.Ez (V/m) @ t=0.6
1.0060925285969167
% es.tEx (V/m) @ t=0.6
-2.4056634857592485
% es.tEy (V/m) @ t=0.6
0
% es.tEz (V/m) @ t=0.6
1.0060925285969162
% V (V) @ t=0.6
0.014602754201952372
% es.normE (V/m) @ t=0.62
2.6524851470115802
% es.EX (V/m) @ t=0.62
-2.4396961629860288
% es.EY (V/m) @ t=0.62
0.19031292214672002
% es.EZ (V/m) @ t=0.62
1.0203255935197282
% es.tEX (V/m) @ t=0.62
-2.4396961629860154
% es.tEY (V/m) @ t=0.62
0
% es.tEZ (V/m) @ t=0.62
1.020325593519729
% es.Ex (V/m) @ t=0.62
-2.4396961629860288
% es.Ey (V/m) @ t=0.62
0.19031292214672002
% es.Ez (V/m) @ t=0.62
1.0203255935197282
% es.tEx (V/m) @ t=0.62
-2.4396961629860154
% es.tEy (V/m) @ t=0.62
0
% es.tEz (V/m) @ t=0.62
1.020325593519729
% V (V) @ t=0.62
0.014809354506473237
% es.normE (V/m) @ t=0.64
2.6898346138631206
% es.EX (V/m) @ t=0.64
-2.474049402450187
% es.EY (V/m) @ t=0.64
0.19299203756206673
% es.EZ (V/m) @ t=0.64
1.0346927192540498
% es.tEX (V/m) @ t=0.64
-2.4740494024501754
% es.tEY (V/m) @ t=0.64
0
% es.tEZ (V/m) @ t=0.64
1.0346927192540463
% es.Ex (V/m) @ t=0.64
-2.474049402450187
% es.Ey (V/m) @ t=0.64
0.19299203756206673
% es.Ez (V/m) @ t=0.64
1.0346927192540498
% es.tEx (V/m) @ t=0.64
-2.4740494024501754
% es.tEy (V/m) @ t=0.64
0
% es.tEz (V/m) @ t=0.64
1.0346927192540463
% V (V) @ t=0.64
0.01501790357492039
% es.normE (V/m) @ t=0.66
2.727532595660131
% es.EX (V/m) @ t=0.66
-2.508723204151754
% es.EY (V/m) @ t=0.66
0.19569605813746427
% es.EZ (V/m) @ t=0.66
1.0491939057998736
% es.tEX (V/m) @ t=0.66
-2.5087232041517407
% es.tEY (V/m) @ t=0.66
0
% es.tEZ (V/m) @ t=0.66
1.0491939057998678
% es.Ex (V/m) @ t=0.66
-2.508723204151754
% es.Ey (V/m) @ t=0.66
0.19569605813746427
% es.Ez (V/m) @ t=0.66
1.0491939057998736
% es.tEx (V/m) @ t=0.66
-2.5087232041517407
% es.tEy (V/m) @ t=0.66
0
% es.tEz (V/m) @ t=0.66
1.0491939057998678
% V (V) @ t=0.66
0.01522840140729382
% es.normE (V/m) @ t=0.68
2.765579092402737
% es.EX (V/m) @ t=0.68
-2.5437175680907274
% es.EY (V/m) @ t=0.68
0.19842498387289997
% es.EZ (V/m) @ t=0.68
1.063829153157219
% es.tEX (V/m) @ t=0.68
-2.5437175680907114
% es.tEY (V/m) @ t=0.68
0
% es.tEZ (V/m) @ t=0.68
1.0638291531572222
% es.Ex (V/m) @ t=0.68
-2.5437175680907274
% es.Ey (V/m) @ t=0.68
0.19842498387289997
% es.Ez (V/m) @ t=0.68
1.063829153157219
% es.tEx (V/m) @ t=0.68
-2.5437175680907114
% es.tEy (V/m) @ t=0.68
0
% es.tEz (V/m) @ t=0.68
1.0638291531572222
% V (V) @ t=0.68
0.015440848003593534
% es.normE (V/m) @ t=0.7
2.8039741040910435
% es.EX (V/m) @ t=0.7
-2.5790324942670875
% es.EY (V/m) @ t=0.7
0.2011788147684257
% es.EZ (V/m) @ t=0.7
1.078598461326067
% es.tEX (V/m) @ t=0.7
-2.579032494267077
% es.tEY (V/m) @ t=0.7
0
% es.tEZ (V/m) @ t=0.7
1.0785984613260666
% es.Ex (V/m) @ t=0.7
-2.5790324942670875
% es.Ey (V/m) @ t=0.7
0.2011788147684257
% es.Ez (V/m) @ t=0.7
1.078598461326067
% es.tEx (V/m) @ t=0.7
-2.579032494267077
% es.tEy (V/m) @ t=0.7
0
% es.tEz (V/m) @ t=0.7
1.0785984613260666
% V (V) @ t=0.7
0.015655243363819526
% es.normE (V/m) @ t=0.72
2.84271763072522
% es.EX (V/m) @ t=0.72
-2.614667982680862
% es.EY (V/m) @ t=0.72
0.20395755082397882
% es.EZ (V/m) @ t=0.72
1.0935018303064337
% es.tEX (V/m) @ t=0.72
-2.6146679826808548
% es.tEY (V/m) @ t=0.72
0
% es.tEZ (V/m) @ t=0.72
1.0935018303064368
% es.Ex (V/m) @ t=0.72
-2.614667982680862
% es.Ey (V/m) @ t=0.72
0.20395755082397882
% es.Ez (V/m) @ t=0.72
1.0935018303064337
% es.tEx (V/m) @ t=0.72
-2.6146679826808548
% es.tEy (V/m) @ t=0.72
0
% es.tEz (V/m) @ t=0.72
1.0935018303064368
% V (V) @ t=0.72
0.0158715874879718
% es.normE (V/m) @ t=0.74
2.8818096723054127
% es.EX (V/m) @ t=0.74
-2.650624033332055
% es.EY (V/m) @ t=0.74
0.2067611920396042
% es.EZ (V/m) @ t=0.74
1.1085392600983006
% es.tEX (V/m) @ t=0.74
-2.650624033332047
% es.tEY (V/m) @ t=0.74
0
% es.tEZ (V/m) @ t=0.74
1.108539260098297
% es.Ex (V/m) @ t=0.74
-2.650624033332055
% es.Ey (V/m) @ t=0.74
0.2067611920396042
% es.Ez (V/m) @ t=0.74
1.1085392600983006
% es.tEx (V/m) @ t=0.74
-2.650624033332047
% es.tEy (V/m) @ t=0.74
0
% es.tEz (V/m) @ t=0.74
1.108539260098297
% V (V) @ t=0.74
0.01608988037605036
% es.normE (V/m) @ t=0.76
2.921250228831769
% es.EX (V/m) @ t=0.76
-2.686900646220648
% es.EY (V/m) @ t=0.76
0.2095897384152694
% es.EZ (V/m) @ t=0.76
1.123710750701695
% es.tEX (V/m) @ t=0.76
-2.686900646220632
% es.tEY (V/m) @ t=0.76
0
% es.tEZ (V/m) @ t=0.76
1.1237107507017043
% es.Ex (V/m) @ t=0.76
-2.686900646220648
% es.Ey (V/m) @ t=0.76
0.2095897384152694
% es.Ez (V/m) @ t=0.76
1.123710750701695
% es.tEx (V/m) @ t=0.76
-2.686900646220632
% es.tEy (V/m) @ t=0.76
0
% es.tEz (V/m) @ t=0.76
1.1237107507017043
% V (V) @ t=0.76
0.016310122028055197
% es.normE (V/m) @ t=0.78
2.9610393003044084
% es.EX (V/m) @ t=0.78
-2.723497821346614
% es.EY (V/m) @ t=0.78
0.2124431899509961
% es.EZ (V/m) @ t=0.78
1.1390163021165653
% es.tEX (V/m) @ t=0.78
-2.7234978213466086
% es.tEY (V/m) @ t=0.78
0
% es.tEZ (V/m) @ t=0.78
1.1390163021165662
% es.Ex (V/m) @ t=0.78
-2.723497821346614
% es.Ey (V/m) @ t=0.78
0.2124431899509961
% es.Ez (V/m) @ t=0.78
1.1390163021165653
% es.tEx (V/m) @ t=0.78
-2.7234978213466086
% es.tEy (V/m) @ t=0.78
0
% es.tEz (V/m) @ t=0.78
1.1390163021165662
% V (V) @ t=0.78
0.01653231244398632
% es.normE (V/m) @ t=0.8
3.0011768867235755
% es.EX (V/m) @ t=0.8
-2.7604155587100094
% es.EY (V/m) @ t=0.8
0.21532154664680547
% es.EZ (V/m) @ t=0.8
1.1544559143429667
% es.tEX (V/m) @ t=0.8
-2.760415558710001
% es.tEY (V/m) @ t=0.8
0
% es.tEZ (V/m) @ t=0.8
1.1544559143429751
% es.Ex (V/m) @ t=0.8
-2.7604155587100094
% es.Ey (V/m) @ t=0.8
0.21532154664680547
% es.Ez (V/m) @ t=0.8
1.1544559143429667
% es.tEx (V/m) @ t=0.8
-2.760415558710001
% es.tEy (V/m) @ t=0.8
0
% es.tEz (V/m) @ t=0.8
1.1544559143429751
% V (V) @ t=0.8
0.016756451623843722
% es.normE (V/m) @ t=0.82
3.0417880691859063
% es.EX (V/m) @ t=0.82
-2.79776889355941
% es.EY (V/m) @ t=0.82
0.21823397489452145
% es.EZ (V/m) @ t=0.82
1.170077705225137
% es.tEX (V/m) @ t=0.82
-2.7977688935593967
% es.tEY (V/m) @ t=0.82
0
% es.tEZ (V/m) @ t=0.82
1.1700777052251325
% es.Ex (V/m) @ t=0.82
-2.79776889355941
% es.Ey (V/m) @ t=0.82
0.21823397489452145
% es.Ez (V/m) @ t=0.82
1.170077705225137
% es.tEx (V/m) @ t=0.82
-2.7977688935593967
% es.tEy (V/m) @ t=0.82
0
% es.tEz (V/m) @ t=0.82
1.1700777052251325
% V (V) @ t=0.82
0.016983232308652143
% es.normE (V/m) @ t=0.84
3.0833589887886452
% es.EX (V/m) @ t=0.84
-2.8360049227271698
% es.EY (V/m) @ t=0.84
0.22121610085956223
% es.EZ (V/m) @ t=0.84
1.1860686899258996
% es.tEX (V/m) @ t=0.84
-2.836004922727156
% es.tEY (V/m) @ t=0.84
0
% es.tEZ (V/m) @ t=0.84
1.1860686899258965
% es.Ex (V/m) @ t=0.84
-2.8360049227271698
% es.Ey (V/m) @ t=0.84
0.22121610085956223
% es.Ez (V/m) @ t=0.84
1.1860686899258996
% es.tEx (V/m) @ t=0.84
-2.836004922727156
% es.tEy (V/m) @ t=0.84
0
% es.tEz (V/m) @ t=0.84
1.1860686899258965
% V (V) @ t=0.84
0.017215346910707096
% es.normE (V/m) @ t=0.86
3.125376788594439
% es.EX (V/m) @ t=0.86
-2.87465197921574
% es.EY (V/m) @ t=0.86
0.22423034054384494
% es.EZ (V/m) @ t=0.86
1.2022315758813789
% es.tEX (V/m) @ t=0.86
-2.8746519792157166
% es.tEY (V/m) @ t=0.86
0
% es.tEZ (V/m) @ t=0.86
1.2022315758813775
% es.Ex (V/m) @ t=0.86
-2.87465197921574
% es.Ey (V/m) @ t=0.86
0.22423034054384494
% es.Ez (V/m) @ t=0.86
1.2022315758813789
% es.tEx (V/m) @ t=0.86
-2.8746519792157166
% es.tEy (V/m) @ t=0.86
0
% es.tEz (V/m) @ t=0.86
1.2022315758813775
% V (V) @ t=0.86
0.017449955056443686
% es.normE (V/m) @ t=0.88
3.1678414686032847
% es.EX (V/m) @ t=0.88
-2.9137100630251207
% es.EY (V/m) @ t=0.88
0.2272766939474976
% es.EZ (V/m) @ t=0.88
1.218566363091624
% es.tEX (V/m) @ t=0.88
-2.913710063025121
% es.tEY (V/m) @ t=0.88
0
% es.tEZ (V/m) @ t=0.88
1.2185663630916252
% es.Ex (V/m) @ t=0.88
-2.9137100630251207
% es.Ey (V/m) @ t=0.88
0.2272766939474976
% es.Ez (V/m) @ t=0.88
1.218566363091624
% es.tEx (V/m) @ t=0.88
-2.913710063025121
% es.tEy (V/m) @ t=0.88
0
% es.tEz (V/m) @ t=0.88
1.2185663630916252
% V (V) @ t=0.88
0.017687056745861907
% es.normE (V/m) @ t=0.9
3.210753028815229
% es.EX (V/m) @ t=0.9
-2.9531791741553914
% es.EY (V/m) @ t=0.9
0.2303551610704918
% es.EZ (V/m) @ t=0.9
1.2350730515566237
% es.tEX (V/m) @ t=0.9
-2.9531791741553803
% es.tEY (V/m) @ t=0.9
0
% es.tEZ (V/m) @ t=0.9
1.2350730515566397
% es.Ex (V/m) @ t=0.9
-2.9531791741553914
% es.Ey (V/m) @ t=0.9
0.2303551610704918
% es.Ez (V/m) @ t=0.9
1.2350730515566237
% es.tEx (V/m) @ t=0.9
-2.9531791741553803
% es.tEy (V/m) @ t=0.9
0
% es.tEz (V/m) @ t=0.9
1.2350730515566397
% V (V) @ t=0.9
0.017926651978961757
% es.normE (V/m) @ t=0.92
3.2541114692301774
% es.EX (V/m) @ t=0.92
-2.993059312606478
% es.EY (V/m) @ t=0.92
0.2334657419127989
% es.EZ (V/m) @ t=0.92
1.2517516412763687
% es.tEX (V/m) @ t=0.92
-2.9930593126064515
% es.tEY (V/m) @ t=0.92
0
% es.tEZ (V/m) @ t=0.92
1.251751641276364
% es.Ex (V/m) @ t=0.92
-2.993059312606478
% es.Ey (V/m) @ t=0.92
0.2334657419127989
% es.Ez (V/m) @ t=0.92
1.2517516412763687
% es.tEx (V/m) @ t=0.92
-2.9930593126064515
% es.tEy (V/m) @ t=0.92
0
% es.tEz (V/m) @ t=0.92
1.251751641276364
% V (V) @ t=0.92
0.01816874075574325
% es.normE (V/m) @ t=0.94
3.297916789848111
% es.EX (V/m) @ t=0.94
-3.0333504783783742
% es.EY (V/m) @ t=0.94
0.23660843647443675
% es.EZ (V/m) @ t=0.94
1.2686021322508547
% es.tEX (V/m) @ t=0.94
-3.033350478378356
% es.tEY (V/m) @ t=0.94
0
% es.tEZ (V/m) @ t=0.94
1.268602132250848
% es.Ex (V/m) @ t=0.94
-3.0333504783783742
% es.Ey (V/m) @ t=0.94
0.23660843647443675
% es.Ez (V/m) @ t=0.94
1.2686021322508547
% es.tEx (V/m) @ t=0.94
-3.033350478378356
% es.tEy (V/m) @ t=0.94
0
% es.tEz (V/m) @ t=0.94
1.268602132250848
% V (V) @ t=0.94
0.018413323076206363
% es.normE (V/m) @ t=0.96
3.3421689906690393
% es.EX (V/m) @ t=0.96
-3.0740526714710996
% es.EY (V/m) @ t=0.96
0.23978324475540147
% es.EZ (V/m) @ t=0.96
1.2856245244800824
% es.tEX (V/m) @ t=0.96
-3.0740526714710867
% es.tEY (V/m) @ t=0.96
0
% es.tEZ (V/m) @ t=0.96
1.2856245244800917
% es.Ex (V/m) @ t=0.96
-3.0740526714710996
% es.Ey (V/m) @ t=0.96
0.23978324475540147
% es.Ez (V/m) @ t=0.96
1.2856245244800824
% es.tEx (V/m) @ t=0.96
-3.0740526714710867
% es.tEy (V/m) @ t=0.96
0
% es.tEz (V/m) @ t=0.96
1.2856245244800917
% V (V) @ t=0.96
0.018660398940351115
% es.normE (V/m) @ t=0.98
3.386868071692985
% es.EX (V/m) @ t=0.98
-3.1151658918846694
% es.EY (V/m) @ t=0.98
0.2429901667556903
% es.EZ (V/m) @ t=0.98
1.3028188179640896
% es.tEX (V/m) @ t=0.98
-3.1151658918846543
% es.tEY (V/m) @ t=0.98
0
% es.tEZ (V/m) @ t=0.98
1.3028188179640878
% es.Ex (V/m) @ t=0.98
-3.1151658918846694
% es.Ey (V/m) @ t=0.98
0.2429901667556903
% es.Ez (V/m) @ t=0.98
1.3028188179640896
% es.tEx (V/m) @ t=0.98
-3.1151658918846543
% es.tEy (V/m) @ t=0.98
0
% es.tEz (V/m) @ t=0.98
1.3028188179640878
% V (V) @ t=0.98
0.0189099683481775
% es.normE (V/m) @ t=1
3.4320140329198767
% es.EX (V/m) @ t=1
-3.156690139619036
% es.EY (V/m) @ t=1
0.24622920247530977
% es.EZ (V/m) @ t=1
1.3201850127027988
% es.tEX (V/m) @ t=1
-3.1566901396190303
% es.tEY (V/m) @ t=1
0
% es.tEZ (V/m) @ t=1
1.3201850127027797
% es.Ex (V/m) @ t=1
-3.156690139619036
% es.Ey (V/m) @ t=1
0.24622920247530977
% es.Ez (V/m) @ t=1
1.3201850127027988
% es.tEx (V/m) @ t=1
-3.1566901396190303
% es.tEy (V/m) @ t=1
0
% es.tEz (V/m) @ t=1
1.3201850127027797
% V (V) @ t=1
0.019162031299685512
% es.normE (V/m) @ t=1.02
3.4776068743498225
% es.EX (V/m) @ t=1.02
-3.198625414674272
% es.EY (V/m) @ t=1.02
0.24950035191425635
% es.EZ (V/m) @ t=1.02
1.3377231086963133
% es.tEX (V/m) @ t=1.02
-3.198625414674254
% es.tEY (V/m) @ t=1.02
0
% es.tEZ (V/m) @ t=1.02
1.3377231086963093
% es.Ex (V/m) @ t=1.02
-3.198625414674272
% es.Ey (V/m) @ t=1.02
0.24950035191425635
% es.Ez (V/m) @ t=1.02
1.3377231086963133
% es.tEx (V/m) @ t=1.02
-3.198625414674254
% es.tEy (V/m) @ t=1.02
0
% es.tEz (V/m) @ t=1.02
1.3377231086963093
% V (V) @ t=1.02
0.01941658779487516
% es.normE (V/m) @ t=1.04
3.523646595982719
% es.EX (V/m) @ t=1.04
-3.240971717050306
% es.EY (V/m) @ t=1.04
0.25280361507251614
% es.EZ (V/m) @ t=1.04
1.3554331059445188
% es.tEX (V/m) @ t=1.04
-3.240971717050307
% es.tEY (V/m) @ t=1.04
0
% es.tEZ (V/m) @ t=1.04
1.3554331059445133