% Model:              1 neuron.mph
% Version:            COMSOL 6.1.0.252
% Date:               Mar 18 2023, 13:59
% Dimension:          0
% Nodes:              14017
% Expressions:        14017
% Description:        Electric field norm, Electric field, X component, Electric field, Y component, Electric field, Z component, Tangential electric field, X component, Tangential electric field, Y component, Tangential electric field, Z component, Electric field, x component, Electric field, y component, Electric field, z component, Tangential electric field, x component, Tangential electric field, y component, Tangential electric field, z component, Electric potential
% Length unit:        mm
% x
1
% y
12.2
% z
1.33
% es.normE (V/m) @ t=0
4.136346193048022
% es.EX (V/m) @ t=0
3.822537210368104
% es.EY (V/m) @ t=0
0.24066953261971302
% es.EZ (V/m) @ t=0
1.5452759803495932
% es.tEX (V/m) @ t=0
3.822537210368104
% es.tEY (V/m) @ t=0
0
% es.tEZ (V/m) @ t=0
1.545275980349599
% es.Ex (V/m) @ t=0
3.822537210368104
% es.Ey (V/m) @ t=0
0.24066953261971302
% es.Ez (V/m) @ t=0
1.5452759803495932
% es.tEx (V/m) @ t=0
3.822537210368104
% es.tEy (V/m) @ t=0
0
% es.tEz (V/m) @ t=0
1.545275980349599
% V (V) @ t=0
0.0206337907705658
% es.normE (V/m) @ t=0.02
3.8763980623270307
% es.EX (V/m) @ t=0.02
3.5823007674787526
% es.EY (V/m) @ t=0.02
0.22556330060794827
% es.EZ (V/m) @ t=0.02
1.4481858947888413
% es.tEX (V/m) @ t=0.02
3.5823007674787526
% es.tEY (V/m) @ t=0.02
0
% es.tEZ (V/m) @ t=0.02
1.4481858947888453
% es.Ex (V/m) @ t=0.02
3.5823007674787526
% es.Ey (V/m) @ t=0.02
0.22556330060794827
% es.Ez (V/m) @ t=0.02
1.4481858947888413
% es.tEx (V/m) @ t=0.02
3.5823007674787526
% es.tEy (V/m) @ t=0.02
0
% es.tEz (V/m) @ t=0.02
1.4481858947888453
% V (V) @ t=0.02
0.01933611157556556
% es.normE (V/m) @ t=0.04
3.9328427363032823
% es.EX (V/m) @ t=0.04
3.6344630564352407
% es.EY (V/m) @ t=0.04
0.22884775623833242
% es.EZ (V/m) @ t=0.04
1.4692730964728908
% es.tEX (V/m) @ t=0.04
3.6344630564352194
% es.tEY (V/m) @ t=0.04
0
% es.tEZ (V/m) @ t=0.04
1.469273096472893
% es.Ex (V/m) @ t=0.04
3.6344630564352407
% es.Ey (V/m) @ t=0.04
0.22884775623833242
% es.Ez (V/m) @ t=0.04
1.4692730964728908
% es.tEx (V/m) @ t=0.04
3.6344630564352194
% es.tEy (V/m) @ t=0.04
0
% es.tEz (V/m) @ t=0.04
1.469273096472893
% V (V) @ t=0.04
0.01961766679915051
% es.normE (V/m) @ t=0.06
3.9900967703722516
% es.EX (V/m) @ t=0.06
3.687373284915724
% es.EY (V/m) @ t=0.06
0.23217934601647916
% es.EZ (V/m) @ t=0.06
1.490662703650278
% es.tEX (V/m) @ t=0.06
3.687373284915733
% es.tEY (V/m) @ t=0.06
0
% es.tEZ (V/m) @ t=0.06
1.4906627036502602
% es.Ex (V/m) @ t=0.06
3.687373284915724
% es.Ey (V/m) @ t=0.06
0.23217934601647916
% es.Ez (V/m) @ t=0.06
1.490662703650278
% es.tEx (V/m) @ t=0.06
3.687373284915733
% es.tEy (V/m) @ t=0.06
0
% es.tEz (V/m) @ t=0.06
1.4906627036502602
% V (V) @ t=0.06
0.01990325760138155
% es.normE (V/m) @ t=0.08
4.048548158889531
% es.EX (V/m) @ t=0.08
3.7413899862614617
% es.EY (V/m) @ t=0.08
0.2355807093567086
% es.EZ (V/m) @ t=0.08
1.5124997243136744
% es.tEX (V/m) @ t=0.08
3.7413899862614706
% es.tEY (V/m) @ t=0.08
0
% es.tEZ (V/m) @ t=0.08
1.5124997243136855
% es.Ex (V/m) @ t=0.08
3.7413899862614617
% es.Ey (V/m) @ t=0.08
0.2355807093567086
% es.Ez (V/m) @ t=0.08
1.5124997243136744
% es.tEx (V/m) @ t=0.08
3.7413899862614706
% es.tEy (V/m) @ t=0.08
0
% es.tEz (V/m) @ t=0.08
1.5124997243136855
% V (V) @ t=0.08
0.020194816734391
% es.normE (V/m) @ t=0.1
4.106999547406845
% es.EX (V/m) @ t=0.1
3.79540668760721
% es.EY (V/m) @ t=0.1
0.2389820726968881
% es.EZ (V/m) @ t=0.1
1.5343367449771095
% es.tEX (V/m) @ t=0.1
3.795406687607219
% es.tEY (V/m) @ t=0.1
0
% es.tEZ (V/m) @ t=0.1
1.5343367449771073
% es.Ex (V/m) @ t=0.1
3.79540668760721
% es.Ey (V/m) @ t=0.1
0.2389820726968881
% es.Ez (V/m) @ t=0.1
1.5343367449771095
% es.tEx (V/m) @ t=0.1
3.795406687607219
% es.tEy (V/m) @ t=0.1
0
% es.tEz (V/m) @ t=0.1
1.5343367449771073
% V (V) @ t=0.1
0.02048637586740045
% es.normE (V/m) @ t=0.12
4.167571951138447
% es.EX (V/m) @ t=0.12
3.8513831961130442
% es.EY (V/m) @ t=0.12
0.24250759618859719
% es.EZ (V/m) @ t=0.12
1.5569668328120971
% es.tEX (V/m) @ t=0.12
3.851383196113048
% es.tEY (V/m) @ t=0.12
0
% es.tEZ (V/m) @ t=0.12
1.5569668328120914
% es.Ex (V/m) @ t=0.12
3.8513831961130442
% es.Ey (V/m) @ t=0.12
0.24250759618859719
% es.Ez (V/m) @ t=0.12
1.5569668328120971
% es.tEx (V/m) @ t=0.12
3.851383196113048
% es.tEy (V/m) @ t=0.12
0
% es.tEz (V/m) @ t=0.12
1.5569668328120914
% V (V) @ t=0.12
0.020788483725081193
% es.normE (V/m) @ t=0.14
4.229537056347025
% es.EX (V/m) @ t=0.14
3.9086465536270225
% es.EY (V/m) @ t=0.14
0.2461146457462806
% es.EZ (V/m) @ t=0.14
1.5801176645875574
% es.tEX (V/m) @ t=0.14
3.9086465536270083
% es.tEY (V/m) @ t=0.14
0
% es.tEZ (V/m) @ t=0.14
1.5801176645875463
% es.Ex (V/m) @ t=0.14
3.9086465536270225
% es.Ey (V/m) @ t=0.14
0.2461146457462806
% es.Ez (V/m) @ t=0.14
1.5801176645875574
% es.tEx (V/m) @ t=0.14
3.9086465536270083
% es.tEy (V/m) @ t=0.14
0
% es.tEz (V/m) @ t=0.14
1.5801176645875463
% V (V) @ t=0.14
0.02109751808867371
% es.normE (V/m) @ t=0.16
4.29150216155663
% es.EX (V/m) @ t=0.16
3.9659099111409883
% es.EY (V/m) @ t=0.16
0.24972169530396093
% es.EZ (V/m) @ t=0.16
1.6032684963630293
% es.tEX (V/m) @ t=0.16
3.9659099111409724
% es.tEY (V/m) @ t=0.16
0
% es.tEZ (V/m) @ t=0.16
1.6032684963630164
% es.Ex (V/m) @ t=0.16
3.9659099111409883
% es.Ey (V/m) @ t=0.16
0.24972169530396093
% es.Ez (V/m) @ t=0.16
1.6032684963630293
% es.tEx (V/m) @ t=0.16
3.9659099111409724
% es.tEy (V/m) @ t=0.16
0
% es.tEz (V/m) @ t=0.16
1.6032684963630164
% V (V) @ t=0.16
0.021406552452266223
% es.normE (V/m) @ t=0.18
4.3534672667671845
% es.EX (V/m) @ t=0.18
4.023173268654917
% es.EY (V/m) @ t=0.18
0.2533287448616215
% es.EZ (V/m) @ t=0.18
1.6264193281384869
% es.tEX (V/m) @ t=0.18
4.023173268654919
% es.tEY (V/m) @ t=0.18
0
% es.tEZ (V/m) @ t=0.18
1.6264193281384864
% es.Ex (V/m) @ t=0.18
4.023173268654917
% es.Ey (V/m) @ t=0.18
0.2533287448616215
% es.Ez (V/m) @ t=0.18
1.6264193281384869
% es.tEx (V/m) @ t=0.18
4.023173268654919
% es.tEy (V/m) @ t=0.18
0
% es.tEz (V/m) @ t=0.18
1.6264193281384864
% V (V) @ t=0.18
0.021715586815858744
% es.normE (V/m) @ t=0.2
4.4154323719787065
% es.EX (V/m) @ t=0.2
4.080436626168877
% es.EY (V/m) @ t=0.2
0.25693579441927983
% es.EZ (V/m) @ t=0.2
1.6495701599139223
% es.tEX (V/m) @ t=0.2
4.080436626168879
% es.tEY (V/m) @ t=0.2
0
% es.tEZ (V/m) @ t=0.2
1.6495701599139414
% es.Ex (V/m) @ t=0.2
4.080436626168877
% es.Ey (V/m) @ t=0.2
0.25693579441927983
% es.Ez (V/m) @ t=0.2
1.6495701599139223
% es.tEx (V/m) @ t=0.2
4.080436626168879
% es.tEy (V/m) @ t=0.2
0
% es.tEz (V/m) @ t=0.2
1.6495701599139414
% V (V) @ t=0.2
0.022024621179451254
% es.normE (V/m) @ t=0.22
4.478146110296697
% es.EX (V/m) @ t=0.22
4.1383921649261985
% es.EY (V/m) @ t=0.22
0.26058558324325154
% es.EZ (V/m) @ t=0.22
1.6729998638869064
% es.tEX (V/m) @ t=0.22
4.138392164926191
% es.tEY (V/m) @ t=0.22
0
% es.tEZ (V/m) @ t=0.22
1.6729998638869148
% es.Ex (V/m) @ t=0.22
4.1383921649261985
% es.Ey (V/m) @ t=0.22
0.26058558324325154
% es.Ez (V/m) @ t=0.22
1.6729998638869064
% es.tEx (V/m) @ t=0.22
4.138392164926191
% es.tEy (V/m) @ t=0.22
0
% es.tEz (V/m) @ t=0.22
1.6729998638869148
% V (V) @ t=0.22
0.022337425946273182
% es.normE (V/m) @ t=0.24
4.543662256134919
% es.EX (V/m) @ t=0.24
4.198938791234218
% es.EY (V/m) @ t=0.24
0.26439536077227044
% es.EZ (V/m) @ t=0.24
1.69747348848913
% es.tEX (V/m) @ t=0.24
4.198938791234216
% es.tEY (V/m) @ t=0.24
0
% es.tEZ (V/m) @ t=0.24
1.6974734884891411
% es.Ex (V/m) @ t=0.24
4.198938791234218
% es.Ey (V/m) @ t=0.24
0.26439536077227044
% es.Ez (V/m) @ t=0.24
1.69747348848913
% es.tEx (V/m) @ t=0.24
4.198938791234216
% es.tEy (V/m) @ t=0.24
0
% es.tEz (V/m) @ t=0.24
1.6974734884891411
% V (V) @ t=0.24
0.022664344711361643
% es.normE (V/m) @ t=0.26
4.609178401977167
% es.EX (V/m) @ t=0.26
4.259485417542255
% es.EY (V/m) @ t=0.26
0.26820513830127557
% es.EZ (V/m) @ t=0.26
1.721947113091384
% es.tEX (V/m) @ t=0.26
4.259485417542248
% es.tEY (V/m) @ t=0.26
0
% es.tEZ (V/m) @ t=0.26
1.7219471130913826
% es.Ex (V/m) @ t=0.26
4.259485417542255
% es.Ey (V/m) @ t=0.26
0.26820513830127557
% es.Ez (V/m) @ t=0.26
1.721947113091384
% es.tEx (V/m) @ t=0.26
4.259485417542248
% es.tEy (V/m) @ t=0.26
0
% es.tEz (V/m) @ t=0.26
1.7219471130913826
% V (V) @ t=0.26
0.022991263476450103
% es.normE (V/m) @ t=0.28
4.674694547823231
% es.EX (V/m) @ t=0.28
4.320032043850272
% es.EY (V/m) @ t=0.28
0.27201491583032666
% es.EZ (V/m) @ t=0.28
1.7464207376936352
% es.tEX (V/m) @ t=0.28
4.320032043850283
% es.tEY (V/m) @ t=0.28
0
% es.tEZ (V/m) @ t=0.28
1.7464207376936187
% es.Ex (V/m) @ t=0.28
4.320032043850272
% es.Ey (V/m) @ t=0.28
0.27201491583032666
% es.Ez (V/m) @ t=0.28
1.7464207376936352
% es.tEx (V/m) @ t=0.28
4.320032043850283
% es.tEy (V/m) @ t=0.28
0
% es.tEz (V/m) @ t=0.28
1.7464207376936187
% V (V) @ t=0.28
0.02331818224153856
% es.normE (V/m) @ t=0.3
4.7402106936729655
% es.EX (V/m) @ t=0.3
4.380578670158291
% es.EY (V/m) @ t=0.3
0.27582469335933535
% es.EZ (V/m) @ t=0.3
1.7708943622958837
% es.tEX (V/m) @ t=0.3
4.380578670158272
% es.tEY (V/m) @ t=0.3
0
% es.tEZ (V/m) @ t=0.3
1.770894362295878
% es.Ex (V/m) @ t=0.3
4.380578670158291
% es.Ey (V/m) @ t=0.3
0.27582469335933535
% es.Ez (V/m) @ t=0.3
1.7708943622958837
% es.tEx (V/m) @ t=0.3
4.380578670158272
% es.tEy (V/m) @ t=0.3
0
% es.tEz (V/m) @ t=0.3
1.770894362295878
% V (V) @ t=0.3
0.023645101006627027
% es.normE (V/m) @ t=0.32
4.805726839526236
% es.EX (V/m) @ t=0.32
4.441125296466332
% es.EY (V/m) @ t=0.32
0.2796344708883507
% es.EZ (V/m) @ t=0.32
1.7953679868981225
% es.tEX (V/m) @ t=0.32
4.441125296466339
% es.tEY (V/m) @ t=0.32
0
% es.tEZ (V/m) @ t=0.32
1.7953679868981185
% es.Ex (V/m) @ t=0.32
4.441125296466332
% es.Ey (V/m) @ t=0.32
0.2796344708883507
% es.Ez (V/m) @ t=0.32
1.7953679868981225
% es.tEx (V/m) @ t=0.32
4.441125296466339
% es.tEy (V/m) @ t=0.32
0
% es.tEz (V/m) @ t=0.32
1.7953679868981185
% V (V) @ t=0.32
0.023972019771715484
% es.normE (V/m) @ t=0.34
4.877004921308346
% es.EX (V/m) @ t=0.34
4.506992106193401
% es.EY (V/m) @ t=0.34
0.2837904327697123
% es.EZ (V/m) @ t=0.34
1.8220049953715138
% es.tEX (V/m) @ t=0.34
4.50699210619338
% es.tEY (V/m) @ t=0.34
0
% es.tEZ (V/m) @ t=0.34
1.8220049953715067
% es.Ex (V/m) @ t=0.34
4.506992106193401
% es.Ey (V/m) @ t=0.34
0.2837904327697123
% es.Ez (V/m) @ t=0.34
1.8220049953715138
% es.tEx (V/m) @ t=0.34
4.50699210619338
% es.tEy (V/m) @ t=0.34
0
% es.tEz (V/m) @ t=0.34
1.8220049953715067
% V (V) @ t=0.34
0.02432720242075504
% es.normE (V/m) @ t=0.36
4.949564973883188
% es.EX (V/m) @ t=0.36
4.574042601324777
% es.EY (V/m) @ t=0.36
0.28802341706416623
% es.EZ (V/m) @ t=0.36
1.8491233342259106
% es.tEX (V/m) @ t=0.36
4.57404260132477
% es.tEY (V/m) @ t=0.36
0
% es.tEZ (V/m) @ t=0.36
1.8491233342259097
% es.Ex (V/m) @ t=0.36
4.574042601324777
% es.Ey (V/m) @ t=0.36
0.28802341706416623
% es.Ez (V/m) @ t=0.36
1.8491233342259106
% es.tEx (V/m) @ t=0.36
4.57404260132477
% es.tEy (V/m) @ t=0.36
0
% es.tEz (V/m) @ t=0.36
1.8491233342259097
% V (V) @ t=0.36
0.024688673489622982
% es.normE (V/m) @ t=0.38
5.022125026517193
% es.EX (V/m) @ t=0.38
4.641093096456174
% es.EY (V/m) @ t=0.38
0.29225640135860265
% es.EZ (V/m) @ t=0.38
1.876241673080341
% es.tEX (V/m) @ t=0.38
4.641093096456174
% es.tEY (V/m) @ t=0.38
0
% es.tEZ (V/m) @ t=0.38
1.876241673080365
% es.Ex (V/m) @ t=0.38
4.641093096456174
% es.Ey (V/m) @ t=0.38
0.29225640135860265
% es.Ez (V/m) @ t=0.38
1.876241673080341
% es.tEx (V/m) @ t=0.38
4.641093096456174
% es.tEy (V/m) @ t=0.38
0
% es.tEz (V/m) @ t=0.38
1.876241673080365
% V (V) @ t=0.38
0.025050144558490924
% es.normE (V/m) @ t=0.4
5.094685079207833
% es.EX (V/m) @ t=0.4
4.708143591587605
% es.EY (V/m) @ t=0.4
0.2964893856530564
% es.EZ (V/m) @ t=0.4
1.903360011934768
% es.tEX (V/m) @ t=0.4
4.7081435915876
% es.tEY (V/m) @ t=0.4
0
% es.tEZ (V/m) @ t=0.4
1.9033600119347849
% es.Ex (V/m) @ t=0.4
4.708143591587605
% es.Ey (V/m) @ t=0.4
0.2964893856530564
% es.Ez (V/m) @ t=0.4
1.903360011934768
% es.tEx (V/m) @ t=0.4
4.7081435915876
% es.tEy (V/m) @ t=0.4
0
% es.tEz (V/m) @ t=0.4
1.9033600119347849
% V (V) @ t=0.4
0.025411615627358865
% es.normE (V/m) @ t=0.42
5.16724513195265
% es.EX (V/m) @ t=0.42
4.775194086718999
% es.EY (V/m) @ t=0.42
0.30072236994748924
% es.EZ (V/m) @ t=0.42
1.9304783507891798
% es.tEX (V/m) @ t=0.42
4.775194086718994
% es.tEY (V/m) @ t=0.42
0
% es.tEZ (V/m) @ t=0.42
1.9304783507892012
% es.Ex (V/m) @ t=0.42
4.775194086718999
% es.Ey (V/m) @ t=0.42
0.30072236994748924
% es.Ez (V/m) @ t=0.42
1.9304783507891798
% es.tEx (V/m) @ t=0.42
4.775194086718994
% es.tEy (V/m) @ t=0.42
0
% es.tEz (V/m) @ t=0.42
1.9304783507892012
% V (V) @ t=0.42
0.025773086696226813
% es.normE (V/m) @ t=0.44
5.239805184749466
% es.EX (V/m) @ t=0.44
4.842244581850416
% es.EY (V/m) @ t=0.44
0.30495535424193276
% es.EZ (V/m) @ t=0.44
1.957596689643605
% es.tEX (V/m) @ t=0.44
4.842244581850398
% es.tEY (V/m) @ t=0.44
0
% es.tEZ (V/m) @ t=0.44
1.9575966896436032
% es.Ex (V/m) @ t=0.44
4.842244581850416
% es.Ey (V/m) @ t=0.44
0.30495535424193276
% es.Ez (V/m) @ t=0.44
1.957596689643605
% es.tEx (V/m) @ t=0.44
4.842244581850398
% es.tEy (V/m) @ t=0.44
0
% es.tEz (V/m) @ t=0.44
1.9575966896436032
% V (V) @ t=0.44
0.026134557765094744
% es.normE (V/m) @ t=0.46
5.312365237596087
% es.EX (V/m) @ t=0.46
4.909295076981806
% es.EY (V/m) @ t=0.46
0.3091883385363954
% es.EZ (V/m) @ t=0.46
1.984715028498016
% es.tEX (V/m) @ t=0.46
4.9092950769818025
% es.tEY (V/m) @ t=0.46
0
% es.tEZ (V/m) @ t=0.46
1.9847150284980195
% es.Ex (V/m) @ t=0.46
4.909295076981806
% es.Ey (V/m) @ t=0.46
0.3091883385363954
% es.Ez (V/m) @ t=0.46
1.984715028498016
% es.tEx (V/m) @ t=0.46
4.9092950769818025
% es.tEy (V/m) @ t=0.46
0
% es.tEz (V/m) @ t=0.46
1.9847150284980195
% V (V) @ t=0.46
0.02649602883396269
% es.normE (V/m) @ t=0.48
5.3849252904905605
% es.EX (V/m) @ t=0.48
4.9763455721132175
% es.EY (V/m) @ t=0.48
0.3134213228308371
% es.EZ (V/m) @ t=0.48
2.0118333673524464
% es.tEX (V/m) @ t=0.48
4.976345572113207
% es.tEY (V/m) @ t=0.48
0
% es.tEZ (V/m) @ t=0.48
2.0118333673524464
% es.Ex (V/m) @ t=0.48
4.9763455721132175
% es.Ey (V/m) @ t=0.48
0.3134213228308371
% es.Ez (V/m) @ t=0.48
2.0118333673524464
% es.tEx (V/m) @ t=0.48
4.976345572113207
% es.tEy (V/m) @ t=0.48
0
% es.tEz (V/m) @ t=0.48
2.0118333673524464
% V (V) @ t=0.48
0.02685749990283063
% es.normE (V/m) @ t=0.5
5.457485343430947
% es.EX (V/m) @ t=0.5
5.043396067244636
% es.EY (V/m) @ t=0.5
0.317654307125272
% es.EZ (V/m) @ t=0.5
2.038951706206859
% es.tEX (V/m) @ t=0.5
5.04339606724464
% es.tEY (V/m) @ t=0.5
0
% es.tEZ (V/m) @ t=0.5
2.0389517062068663
% es.Ex (V/m) @ t=0.5
5.043396067244636
% es.Ey (V/m) @ t=0.5
0.317654307125272
% es.Ez (V/m) @ t=0.5
2.038951706206859
% es.tEx (V/m) @ t=0.5
5.04339606724464
% es.tEy (V/m) @ t=0.5
0
% es.tEz (V/m) @ t=0.5
2.0389517062068663
% V (V) @ t=0.5
0.02721897097169857
% es.normE (V/m) @ t=0.52
5.53004539641543
% es.EX (V/m) @ t=0.52
5.11044656237603
% es.EY (V/m) @ t=0.52
0.32188729141970973
% es.EZ (V/m) @ t=0.52
2.066070045061294
% es.tEX (V/m) @ t=0.52
5.11044656237603
% es.tEY (V/m) @ t=0.52
0
% es.tEZ (V/m) @ t=0.52
2.0660700450613003
% es.Ex (V/m) @ t=0.52
5.11044656237603
% es.Ey (V/m) @ t=0.52
0.32188729141970973
% es.Ez (V/m) @ t=0.52
2.066070045061294
% es.tEx (V/m) @ t=0.52
5.11044656237603
% es.tEy (V/m) @ t=0.52
0
% es.tEz (V/m) @ t=0.52
2.0660700450613003
% V (V) @ t=0.52
0.027580442040566512
% es.normE (V/m) @ t=0.54
5.602792261050697
% es.EX (V/m) @ t=0.54
5.177670072313202
% es.EY (V/m) @ t=0.54
0.326130246374148
% es.EZ (V/m) @ t=0.54
2.093257293856821
% es.tEX (V/m) @ t=0.54
5.177670072313209
% es.tEY (V/m) @ t=0.54
0
% es.tEZ (V/m) @ t=0.54
2.0932572938568423
% es.Ex (V/m) @ t=0.54
5.177670072313202
% es.Ey (V/m) @ t=0.54
0.326130246374148
% es.Ez (V/m) @ t=0.54
2.093257293856821
% es.tEx (V/m) @ t=0.54
5.177670072313209
% es.tEy (V/m) @ t=0.54
0
% es.tEz (V/m) @ t=0.54
2.0932572938568423
% V (V) @ t=0.54
0.02794288415847689
% es.normE (V/m) @ t=0.56
5.681123964777142
% es.EX (V/m) @ t=0.56
5.250065958000711
% es.EY (V/m) @ t=0.56
0.330671279864603
% es.EZ (V/m) @ t=0.56
2.122504644426783
% es.tEX (V/m) @ t=0.56
5.250065958000704
% es.tEY (V/m) @ t=0.56
0
% es.tEZ (V/m) @ t=0.56
2.122504644426785
% es.Ex (V/m) @ t=0.56
5.250065958000711
% es.Ey (V/m) @ t=0.56
0.330671279864603
% es.Ez (V/m) @ t=0.56
2.122504644426783
% es.tEx (V/m) @ t=0.56
5.250065958000704
% es.tEy (V/m) @ t=0.56
0
% es.tEz (V/m) @ t=0.56
2.122504644426785
% V (V) @ t=0.56
0.028334356338280606
% es.normE (V/m) @ t=0.58
5.75945566865649
% es.EX (V/m) @ t=0.58
5.322461843688195
% es.EY (V/m) @ t=0.58
0.33521231335504753
% es.EZ (V/m) @ t=0.58
2.151751994996774
% es.tEX (V/m) @ t=0.58
5.322461843688192
% es.tEY (V/m) @ t=0.58
0
% es.tEZ (V/m) @ t=0.58
2.151751994996772
% es.Ex (V/m) @ t=0.58
5.322461843688195
% es.Ey (V/m) @ t=0.58
0.33521231335504753
% es.Ez (V/m) @ t=0.58
2.151751994996774
% es.tEx (V/m) @ t=0.58
5.322461843688192
% es.tEy (V/m) @ t=0.58
0
% es.tEz (V/m) @ t=0.58
2.151751994996772
% V (V) @ t=0.58
0.02872582851808432
% es.normE (V/m) @ t=0.6
5.8377873726826195
% es.EX (V/m) @ t=0.6
5.394857729375705
% es.EY (V/m) @ t=0.6
0.3397533468454952
% es.EZ (V/m) @ t=0.6
2.1809993455667467
% es.tEX (V/m) @ t=0.6
5.394857729375701
% es.tEY (V/m) @ t=0.6
0
% es.tEZ (V/m) @ t=0.6
2.1809993455667502
% es.Ex (V/m) @ t=0.6
5.394857729375705
% es.Ey (V/m) @ t=0.6
0.3397533468454952
% es.Ez (V/m) @ t=0.6
2.1809993455667467
% es.tEx (V/m) @ t=0.6
5.394857729375701
% es.tEy (V/m) @ t=0.6
0
% es.tEz (V/m) @ t=0.6
2.1809993455667502
% V (V) @ t=0.6
0.02911730069788805
% es.normE (V/m) @ t=0.62
5.916119076849654
% es.EX (V/m) @ t=0.62
5.467253615063189
% es.EY (V/m) @ t=0.62
0.34429438033593573
% es.EZ (V/m) @ t=0.62
2.2102466961367035
% es.tEX (V/m) @ t=0.62
5.467253615063161
% es.tEY (V/m) @ t=0.62
0
% es.tEZ (V/m) @ t=0.62
2.2102466961367107
% es.Ex (V/m) @ t=0.62
5.467253615063189
% es.Ey (V/m) @ t=0.62
0.34429438033593573
% es.Ez (V/m) @ t=0.62
2.2102466961367035
% es.tEx (V/m) @ t=0.62
5.467253615063161
% es.tEy (V/m) @ t=0.62
0
% es.tEz (V/m) @ t=0.62
2.2102466961367107
% V (V) @ t=0.62
0.02950877287769177
% es.normE (V/m) @ t=0.64
5.994450781152115
% es.EX (V/m) @ t=0.64
5.539649500750684
% es.EY (V/m) @ t=0.64
0.3488354138263765
% es.EZ (V/m) @ t=0.64
2.2394940467066924
% es.tEX (V/m) @ t=0.64
5.539649500750684
% es.tEY (V/m) @ t=0.64
0
% es.tEZ (V/m) @ t=0.64
2.2394940467066924
% es.Ex (V/m) @ t=0.64
5.539649500750684
% es.Ey (V/m) @ t=0.64
0.3488354138263765
% es.Ez (V/m) @ t=0.64
2.2394940467066924
% es.tEx (V/m) @ t=0.64
5.539649500750684
% es.tEy (V/m) @ t=0.64
0
% es.tEz (V/m) @ t=0.64
2.2394940467066924
% V (V) @ t=0.64
0.029900245057495493
% es.normE (V/m) @ t=0.66
6.072782485584726
% es.EX (V/m) @ t=0.66
5.612045386438162
% es.EY (V/m) @ t=0.66
0.3533764473167955
% es.EZ (V/m) @ t=0.66
2.2687413972766723
% es.tEX (V/m) @ t=0.66
5.612045386438172
% es.tEY (V/m) @ t=0.66
0
% es.tEZ (V/m) @ t=0.66
2.2687413972766723
% es.Ex (V/m) @ t=0.66
5.612045386438162
% es.Ey (V/m) @ t=0.66
0.3533764473167955
% es.Ez (V/m) @ t=0.66
2.2687413972766723
% es.tEx (V/m) @ t=0.66
5.612045386438172
% es.tEy (V/m) @ t=0.66
0
% es.tEz (V/m) @ t=0.66
2.2687413972766723
% V (V) @ t=0.66
0.03029171723729921
% es.normE (V/m) @ t=0.68
6.151114190142555
% es.EX (V/m) @ t=0.68
5.684441272125657
% es.EY (V/m) @ t=0.68
0.35791748080727204
% es.EZ (V/m) @ t=0.68
2.2979887478466594
% es.tEX (V/m) @ t=0.68
5.684441272125685
% es.tEY (V/m) @ t=0.68
0
% es.tEZ (V/m) @ t=0.68
2.297988747846663
% es.Ex (V/m) @ t=0.68
5.684441272125657
% es.Ey (V/m) @ t=0.68
0.35791748080727204
% es.Ez (V/m) @ t=0.68
2.2979887478466594
% es.tEx (V/m) @ t=0.68
5.684441272125685
% es.tEy (V/m) @ t=0.68
0
% es.tEz (V/m) @ t=0.68
2.297988747846663
% V (V) @ t=0.68
0.03068318941710294
% es.normE (V/m) @ t=0.7
6.229445894820837
% es.EX (V/m) @ t=0.7
5.756837157813138
% es.EY (V/m) @ t=0.7
0.3624585142976626
% es.EZ (V/m) @ t=0.7
2.327236098416641
% es.tEX (V/m) @ t=0.7
5.756837157813166
% es.tEY (V/m) @ t=0.7
0
% es.tEZ (V/m) @ t=0.7
2.3272360984166447
% es.Ex (V/m) @ t=0.7
5.756837157813138
% es.Ey (V/m) @ t=0.7
0.3624585142976626
% es.Ez (V/m) @ t=0.7
2.327236098416641
% es.tEx (V/m) @ t=0.7
5.756837157813166
% es.tEy (V/m) @ t=0.7
0
% es.tEz (V/m) @ t=0.7
2.3272360984166447
% V (V) @ t=0.7
0.031074661596906656
% es.normE (V/m) @ t=0.72
6.30777759961512
% es.EX (V/m) @ t=0.72
5.829233043500652
% es.EY (V/m) @ t=0.72
0.3669995477881316
% es.EZ (V/m) @ t=0.72
2.356483448986568
% es.tEX (V/m) @ t=0.72
5.829233043500636
% es.tEY (V/m) @ t=0.72
0
% es.tEZ (V/m) @ t=0.72
2.356483448986575
% es.Ex (V/m) @ t=0.72
5.829233043500652
% es.Ey (V/m) @ t=0.72
0.3669995477881316
% es.Ez (V/m) @ t=0.72
2.356483448986568
% es.tEx (V/m) @ t=0.72
5.829233043500636
% es.tEy (V/m) @ t=0.72
0
% es.tEz (V/m) @ t=0.72
2.356483448986575
% V (V) @ t=0.72
0.03146613377671037
% es.normE (V/m) @ t=0.74
6.3875609158823625
% es.EX (V/m) @ t=0.74
5.902966506194559
% es.EY (V/m) @ t=0.74
0.3716343347953326
% es.EZ (V/m) @ t=0.74
2.3862822474706693
% es.tEX (V/m) @ t=0.74
5.902966506194556
% es.tEY (V/m) @ t=0.74
0
% es.tEZ (V/m) @ t=0.74
2.3862822474706658
% es.Ex (V/m) @ t=0.74
5.902966506194559
% es.Ey (V/m) @ t=0.74
0.3716343347953326
% es.Ez (V/m) @ t=0.74
2.3862822474706693
% es.tEx (V/m) @ t=0.74
5.902966506194556
% es.tEy (V/m) @ t=0.74
0
% es.tEz (V/m) @ t=0.74
2.3862822474706658
% V (V) @ t=0.74
0.031864440744616515
% es.normE (V/m) @ t=0.76
6.470355068141249
% es.EX (V/m) @ t=0.76
5.979474282314779
% es.EY (V/m) @ t=0.76
0.3764635791229187
% es.EZ (V/m) @ t=0.76
2.4172248226081248
% es.tEX (V/m) @ t=0.76
5.979474282314772
% es.tEY (V/m) @ t=0.76
0
% es.tEZ (V/m) @ t=0.76
2.4172248226081248
% es.Ex (V/m) @ t=0.76
5.979474282314779
% es.Ey (V/m) @ t=0.76
0.3764635791229187
% es.Ez (V/m) @ t=0.76
2.4172248226081248
% es.tEx (V/m) @ t=0.76
5.979474282314772
% es.tEy (V/m) @ t=0.76
0
% es.tEz (V/m) @ t=0.76
2.4172248226081248
% V (V) @ t=0.76
0.03227692397624978
% es.normE (V/m) @ t=0.78
6.5531492204590105
% es.EX (V/m) @ t=0.78
6.055982058434932
% es.EY (V/m) @ t=0.78
0.3812928234504025
% es.EZ (V/m) @ t=0.78
2.448167397745512
% es.tEX (V/m) @ t=0.78
6.055982058434942
% es.tEY (V/m) @ t=0.78
0
% es.tEZ (V/m) @ t=0.78
2.4481673977455163
% es.Ex (V/m) @ t=0.78
6.055982058434932
% es.Ey (V/m) @ t=0.78
0.3812928234504025
% es.Ez (V/m) @ t=0.78
2.448167397745512
% es.tEx (V/m) @ t=0.78
6.055982058434942
% es.tEy (V/m) @ t=0.78
0
% es.tEz (V/m) @ t=0.78
2.4481673977455163
% V (V) @ t=0.78
0.03268940720788307
% es.normE (V/m) @ t=0.8
6.635943372833586
% es.EX (V/m) @ t=0.8
6.132489834555123
% es.EY (V/m) @ t=0.8
0.3861220677779462
% es.EZ (V/m) @ t=0.8
2.479109972882936
% es.tEX (V/m) @ t=0.8
6.1324898345551375
% es.tEY (V/m) @ t=0.8
0
% es.tEZ (V/m) @ t=0.8
2.4791099728829398
% es.Ex (V/m) @ t=0.8
6.132489834555123
% es.Ey (V/m) @ t=0.8
0.3861220677779462
% es.Ez (V/m) @ t=0.8
2.479109972882936
% es.tEx (V/m) @ t=0.8
6.1324898345551375
% es.tEy (V/m) @ t=0.8
0
% es.tEz (V/m) @ t=0.8
2.4791099728829398
% V (V) @ t=0.8
0.033101890439516335
% es.normE (V/m) @ t=0.82
6.718737525262785
% es.EX (V/m) @ t=0.82
6.208997610675299
% es.EY (V/m) @ t=0.82
0.3909513121054826
% es.EZ (V/m) @ t=0.82
2.510052548020292
% es.tEX (V/m) @ t=0.82
6.208997610675286
% es.tEY (V/m) @ t=0.82
0
% es.tEZ (V/m) @ t=0.82
2.5100525480202993
% es.Ex (V/m) @ t=0.82
6.208997610675299
% es.Ey (V/m) @ t=0.82
0.3909513121054826
% es.Ez (V/m) @ t=0.82
2.510052548020292
% es.tEx (V/m) @ t=0.82
6.208997610675286
% es.tEy (V/m) @ t=0.82
0
% es.tEz (V/m) @ t=0.82
2.5100525480202993
% V (V) @ t=0.82
0.03351437367114961
% es.normE (V/m) @ t=0.84
6.801531677744709
% es.EX (V/m) @ t=0.84
6.285505386795524
% es.EY (V/m) @ t=0.84
0.39578055643300125
% es.EZ (V/m) @ t=0.84
2.540995123157691
% es.tEX (V/m) @ t=0.84
6.285505386795517
% es.tEY (V/m) @ t=0.84
0
% es.tEZ (V/m) @ t=0.84
2.5409951231577015
% es.Ex (V/m) @ t=0.84
6.285505386795524
% es.Ey (V/m) @ t=0.84
0.39578055643300125
% es.Ez (V/m) @ t=0.84
2.540995123157691
% es.tEx (V/m) @ t=0.84
6.285505386795517
% es.tEy (V/m) @ t=0.84
0
% es.tEz (V/m) @ t=0.84
2.5409951231577015
% V (V) @ t=0.84
0.033926856902782875
% es.normE (V/m) @ t=0.86
6.884325830277306
% es.EX (V/m) @ t=0.86
6.362013162915655
% es.EY (V/m) @ t=0.86
0.4006098007605061
% es.EZ (V/m) @ t=0.86
2.5719376982950646
% es.tEX (V/m) @ t=0.86
6.3620131629156695
% es.tEY (V/m) @ t=0.86
0
% es.tEZ (V/m) @ t=0.86
2.5719376982950823
% es.Ex (V/m) @ t=0.86
6.362013162915655
% es.Ey (V/m) @ t=0.86
0.4006098007605061
% es.Ez (V/m) @ t=0.86
2.5719376982950646
% es.tEx (V/m) @ t=0.86
6.3620131629156695
% es.tEy (V/m) @ t=0.86
0
% es.tEz (V/m) @ t=0.86
2.5719376982950823
% V (V) @ t=0.86
0.03433934013441615
% es.normE (V/m) @ t=0.88
6.96711998285897
% es.EX (V/m) @ t=0.88
6.438520939035881
% es.EY (V/m) @ t=0.88
0.40543904508804296
% es.EZ (V/m) @ t=0.88
2.602880273432506
% es.tEX (V/m) @ t=0.88
6.438520939035893
% es.tEY (V/m) @ t=0.88
0
% es.tEZ (V/m) @ t=0.88
2.6028802734324987
% es.Ex (V/m) @ t=0.88
6.438520939035881
% es.Ey (V/m) @ t=0.88
0.40543904508804296
% es.Ez (V/m) @ t=0.88
2.602880273432506
% es.tEx (V/m) @ t=0.88
6.438520939035893
% es.tEy (V/m) @ t=0.88
0
% es.tEz (V/m) @ t=0.88
2.6028802734324987
% V (V) @ t=0.88
0.03475182336604943
% es.normE (V/m) @ t=0.9
7.049914135487785
% es.EX (V/m) @ t=0.9
6.5150287151560295
% es.EY (V/m) @ t=0.9
0.410268289415626
% es.EZ (V/m) @ t=0.9
2.6338228485699062
% es.tEX (V/m) @ t=0.9
6.515028715155992
% es.tEY (V/m) @ t=0.9
0
% es.tEZ (V/m) @ t=0.9
2.633822848569885
% es.Ex (V/m) @ t=0.9
6.5150287151560295
% es.Ey (V/m) @ t=0.9
0.410268289415626
% es.Ez (V/m) @ t=0.9
2.6338228485699062
% es.tEx (V/m) @ t=0.9
6.515028715155992
% es.tEy (V/m) @ t=0.9
0
% es.tEz (V/m) @ t=0.9
2.633822848569885
% V (V) @ t=0.9
0.03516430659768269
% es.normE (V/m) @ t=0.92
7.132708288162197
% es.EX (V/m) @ t=0.92
6.5915364912762175
% es.EY (V/m) @ t=0.92
0.4150975337431344
% es.EZ (V/m) @ t=0.92
2.6647654237072516
% es.tEX (V/m) @ t=0.92
6.591536491276276
% es.tEY (V/m) @ t=0.92
0
% es.tEZ (V/m) @ t=0.92
2.6647654237072516
% es.Ex (V/m) @ t=0.92
6.5915364912762175
% es.Ey (V/m) @ t=0.92
0.4150975337431344
% es.Ez (V/m) @ t=0.92
2.6647654237072516
% es.tEx (V/m) @ t=0.92
6.591536491276276
% es.tEy (V/m) @ t=0.92
0
% es.tEz (V/m) @ t=0.92
2.6647654237072516
% V (V) @ t=0.92
0.035576789829315975
% es.normE (V/m) @ t=0.94
7.217248900454071
% es.EX (V/m) @ t=0.94
6.669663851551032
% es.EY (V/m) @ t=0.94
0.4200151171560247
% es.EZ (V/m) @ t=0.94
2.6963472816199223
% es.tEX (V/m) @ t=0.94
6.669663851551018
% es.tEY (V/m) @ t=0.94
0
% es.tEZ (V/m) @ t=0.94
2.696347281619925
% es.Ex (V/m) @ t=0.94
6.669663851551032
% es.Ey (V/m) @ t=0.94
0.4200151171560247
% es.Ez (V/m) @ t=0.94
2.6963472816199223
% es.tEx (V/m) @ t=0.94
6.669663851551018
% es.tEy (V/m) @ t=0.94
0
% es.tEz (V/m) @ t=0.94
2.696347281619925
% V (V) @ t=0.94
0.03599856863748624
% es.normE (V/m) @ t=0.96
7.302868021553852
% es.EX (V/m) @ t=0.96
6.748791369937862
% es.EY (V/m) @ t=0.96
0.42498725349388744
% es.EZ (V/m) @ t=0.96
2.7283239222622564
% es.tEX (V/m) @ t=0.96
6.748791369937891
% es.tEY (V/m) @ t=0.96
0
% es.tEZ (V/m) @ t=0.96
2.728323922262268
% es.Ex (V/m) @ t=0.96
6.748791369937862
% es.Ey (V/m) @ t=0.96
0.42498725349388744
% es.Ez (V/m) @ t=0.96
2.7283239222622564
% es.tEx (V/m) @ t=0.96
6.748791369937891
% es.tEy (V/m) @ t=0.96
0
% es.tEz (V/m) @ t=0.96
2.728323922262268
% V (V) @ t=0.96
0.03642608783664102
% es.normE (V/m) @ t=0.98
7.388487142692792
% es.EX (V/m) @ t=0.98
6.827918888324714
% es.EY (V/m) @ t=0.98
0.42995938983175463
% es.EZ (V/m) @ t=0.98
2.7603005629045967
% es.tEX (V/m) @ t=0.98
6.827918888324717
% es.tEY (V/m) @ t=0.98
0
% es.tEZ (V/m) @ t=0.98
2.7603005629045896
% es.Ex (V/m) @ t=0.98
6.827918888324714
% es.Ey (V/m) @ t=0.98
0.42995938983175463
% es.Ez (V/m) @ t=0.98
2.7603005629045967
% es.tEx (V/m) @ t=0.98
6.827918888324717
% es.tEy (V/m) @ t=0.98
0
% es.tEz (V/m) @ t=0.98
2.7603005629045896
% V (V) @ t=0.98
0.03685360703579581
% es.normE (V/m) @ t=1
7.47410626386952
% es.EX (V/m) @ t=1
6.907046406711583
% es.EY (V/m) @ t=1
0.43493152616965736
% es.EZ (V/m) @ t=1
2.7922772035468935
% es.tEX (V/m) @ t=1
6.907046406711579
% es.tEY (V/m) @ t=1
0
% es.tEZ (V/m) @ t=1
2.792277203546897
% es.Ex (V/m) @ t=1
6.907046406711583
% es.Ey (V/m) @ t=1
0.43493152616965736
% es.Ez (V/m) @ t=1
2.7922772035468935
% es.tEx (V/m) @ t=1
6.907046406711579
% es.tEy (V/m) @ t=1
0
% es.tEz (V/m) @ t=1
2.792277203546897
% V (V) @ t=1
0.03728112623495059
% es.normE (V/m) @ t=1.02
7.559725385082725
% es.EX (V/m) @ t=1.02
6.986173925098409
% es.EY (V/m) @ t=1.02
0.43990366250752766
% es.EZ (V/m) @ t=1.02
2.824253844189206
% es.tEX (V/m) @ t=1.02
6.986173925098413
% es.tEY (V/m) @ t=1.02
0
% es.tEZ (V/m) @ t=1.02
2.8242538441891956
% es.Ex (V/m) @ t=1.02
6.986173925098409
% es.Ey (V/m) @ t=1.02
0.43990366250752766
% es.Ez (V/m) @ t=1.02
2.824253844189206
% es.tEx (V/m) @ t=1.02
6.986173925098413
% es.tEy (V/m) @ t=1.02
0
% es.tEz (V/m) @ t=1.02
2.8242538441891956
% V (V) @ t=1.02
0.037708645434105376
% es.normE (V/m) @ t=1.04
7.645344506331229
% es.EX (V/m) @ t=1.04
7.06530144348525
% es.EY (V/m) @ t=1.04
0.4448757988453771
% es.EZ (V/m) @ t=1.04
2.8562304848315465
% es.tEX (V/m) @ t=1.04
7.065301443485247
% es.tEY (V/m) @ t=1.04
0
% es.tEZ (V/m) @ t=1.04
2.85623048483156
% es.Ex (V/m) @ t=1.04
7.06530144348525
% es.Ey (V/m) @ t=1.04
0.4448757988453771
% es.Ez (V/m) @ t=1.04
2.8562304848315465
% es.tEx (V/m) @ t=1.04
7.065301443485247
% es.tEy (V/m) @ t=1.04
0
% es.tEz (V/m) @ t=1.04
2.85623048483156
% V (V) @ t=1.04
0.03813616463326016
% es.normE (V/m) @ t=1.06
7.730963627613839
% es.EX (V/m) @ t=1.06
7.144428961872087
% es.EY (V/m) @ t=1.06
0.44984793518326827
% es.EZ (V/m) @ t=1.06