% Model:              1 neuron.mph
% Version:            COMSOL 6.0.0.405
% Date:               Mar 16 2023, 19:08
% Dimension:          0
% Nodes:              14017
% Expressions:        14017
% Description:        Electric field norm, Electric field, X component, Electric field, Y component, Electric field, Z component, Tangential electric field, X component, Tangential electric field, Y component, Tangential electric field, Z component, Electric field, x component, Electric field, y component, Electric field, z component, Tangential electric field, x component, Tangential electric field, y component, Tangential electric field, z component, Electric potential
% Length unit:        mm
% x
1.33
% y
12.2
% z
1.33
% es.normE (V/m) @ t=0
11.696060065624366
% es.EX (V/m) @ t=0
9.063092980281334
% es.EY (V/m) @ t=0
-1.3887344017065306
% es.EZ (V/m) @ t=0
7.2404246440017666
% es.tEX (V/m) @ t=0
9.063092980281343
% es.tEY (V/m) @ t=0
0
% es.tEZ (V/m) @ t=0
7.240424644001753
% es.Ex (V/m) @ t=0
9.063092980281334
% es.Ey (V/m) @ t=0
-1.3887344017065306
% es.Ez (V/m) @ t=0
7.2404246440017666
% es.tEx (V/m) @ t=0
9.063092980281343
% es.tEy (V/m) @ t=0
0
% es.tEz (V/m) @ t=0
7.240424644001753
% V (V) @ t=0
0.009658990832976846
% es.normE (V/m) @ t=0.02
10.158123431482323
% es.EX (V/m) @ t=0.02
7.871370067839772
% es.EY (V/m) @ t=0.02
-1.2061271232718997
% es.EZ (V/m) @ t=0.02
6.288367785479672
% es.tEX (V/m) @ t=0.02
7.87137006783981
% es.tEY (V/m) @ t=0.02
0
% es.tEZ (V/m) @ t=0.02
6.288367785479677
% es.Ex (V/m) @ t=0.02
7.871370067839772
% es.Ey (V/m) @ t=0.02
-1.2061271232718997
% es.Ez (V/m) @ t=0.02
6.288367785479672
% es.tEx (V/m) @ t=0.02
7.87137006783981
% es.tEy (V/m) @ t=0.02
0
% es.tEz (V/m) @ t=0.02
6.288367785479677
% V (V) @ t=0.02
0.008388912137855583
% es.normE (V/m) @ t=0.04
10.308755717151037
% es.EX (V/m) @ t=0.04
7.988092645887536
% es.EY (V/m) @ t=0.04
-1.2240124441945586
% es.EZ (V/m) @ t=0.04
6.381616448532739
% es.tEX (V/m) @ t=0.04
7.988092645887567
% es.tEY (V/m) @ t=0.04
0
% es.tEZ (V/m) @ t=0.04
6.381616448532722
% es.Ex (V/m) @ t=0.04
7.988092645887536
% es.Ey (V/m) @ t=0.04
-1.2240124441945586
% es.Ez (V/m) @ t=0.04
6.381616448532739
% es.tEx (V/m) @ t=0.04
7.988092645887567
% es.tEy (V/m) @ t=0.04
0
% es.tEz (V/m) @ t=0.04
6.381616448532722
% V (V) @ t=0.04
0.008513309053389324
% es.normE (V/m) @ t=0.06
10.461610242198086
% es.EX (V/m) @ t=0.06
8.106537218021426
% es.EY (V/m) @ t=0.06
-1.2421616788824235
% es.EZ (V/m) @ t=0.06
6.476240753740498
% es.tEX (V/m) @ t=0.06
8.106537218021451
% es.tEY (V/m) @ t=0.06
0
% es.tEZ (V/m) @ t=0.06
6.476240753740496
% es.Ex (V/m) @ t=0.06
8.106537218021426
% es.Ey (V/m) @ t=0.06
-1.2421616788824235
% es.Ez (V/m) @ t=0.06
6.476240753740498
% es.tEx (V/m) @ t=0.06
8.106537218021451
% es.tEy (V/m) @ t=0.06
0
% es.tEz (V/m) @ t=0.06
6.476240753740496
% V (V) @ t=0.06
0.008639541423357575
% es.normE (V/m) @ t=0.08
10.618453979956644
% es.EX (V/m) @ t=0.08
8.228072965378733
% es.EY (V/m) @ t=0.08
-1.2607845631721624
% es.EZ (V/m) @ t=0.08
6.573334579643276
% es.tEX (V/m) @ t=0.08
8.22807296537878
% es.tEY (V/m) @ t=0.08
0
% es.tEZ (V/m) @ t=0.08
6.573334579643284
% es.Ex (V/m) @ t=0.08
8.228072965378733
% es.Ey (V/m) @ t=0.08
-1.2607845631721624
% es.Ez (V/m) @ t=0.08
6.573334579643276
% es.tEx (V/m) @ t=0.08
8.22807296537878
% es.tEy (V/m) @ t=0.08
0
% es.tEz (V/m) @ t=0.08
6.573334579643284
% V (V) @ t=0.08
0.008769068168059967
% es.normE (V/m) @ t=0.1
10.77789481629447
% es.EX (V/m) @ t=0.1
8.351621161648001
% es.EY (V/m) @ t=0.1
-1.2797158077316748
% es.EZ (V/m) @ t=0.1
6.672036138488
% es.tEX (V/m) @ t=0.1
8.351621161648033
% es.tEY (V/m) @ t=0.1
0
% es.tEZ (V/m) @ t=0.1
6.672036138487995
% es.Ex (V/m) @ t=0.1
8.351621161648001
% es.Ey (V/m) @ t=0.1
-1.2797158077316748
% es.Ez (V/m) @ t=0.1
6.672036138488
% es.tEx (V/m) @ t=0.1
8.351621161648033
% es.tEy (V/m) @ t=0.1
0
% es.tEz (V/m) @ t=0.1
6.672036138487995
% V (V) @ t=0.1
0.008900739650724573
% es.normE (V/m) @ t=0.12
10.937335652632301
% es.EX (V/m) @ t=0.12
8.47516935791729
% es.EY (V/m) @ t=0.12
-1.2986470522912619
% es.EZ (V/m) @ t=0.12
6.770737697332692
% es.tEX (V/m) @ t=0.12
8.475169357917329
% es.tEY (V/m) @ t=0.12
0
% es.tEZ (V/m) @ t=0.12
6.770737697332684
% es.Ex (V/m) @ t=0.12
8.47516935791729
% es.Ey (V/m) @ t=0.12
-1.2986470522912619
% es.Ez (V/m) @ t=0.12
6.770737697332692
% es.tEx (V/m) @ t=0.12
8.475169357917329
% es.tEy (V/m) @ t=0.12
0
% es.tEz (V/m) @ t=0.12
6.770737697332684
% V (V) @ t=0.12
0.00903241113338918
% es.normE (V/m) @ t=0.14
11.099933463919626
% es.EX (V/m) @ t=0.14
8.601163822545884
% es.EY (V/m) @ t=0.14
-1.3179530635025714
% es.EZ (V/m) @ t=0.14
6.871393618978022
% es.tEX (V/m) @ t=0.14
8.601163822545896
% es.tEY (V/m) @ t=0.14
0
% es.tEZ (V/m) @ t=0.14
6.871393618978023
% es.Ex (V/m) @ t=0.14
8.601163822545884
% es.Ey (V/m) @ t=0.14
-1.3179530635025714
% es.Ez (V/m) @ t=0.14
6.871393618978022
% es.tEx (V/m) @ t=0.14
8.601163822545896
% es.tEy (V/m) @ t=0.14
0
% es.tEz (V/m) @ t=0.14
6.871393618978023
% V (V) @ t=0.14
0.009166689394645294
% es.normE (V/m) @ t=0.16
11.273641178746498
% es.EX (V/m) @ t=0.16
8.735767099705006
% es.EY (V/m) @ t=0.16
-1.3385779389487702
% es.EZ (V/m) @ t=0.16
6.978927258230704
% es.tEX (V/m) @ t=0.16
8.73576709970504
% es.tEY (V/m) @ t=0.16
0
% es.tEZ (V/m) @ t=0.16
6.978927258230694
% es.Ex (V/m) @ t=0.16
8.735767099705006
% es.Ey (V/m) @ t=0.16
-1.3385779389487702
% es.Ez (V/m) @ t=0.16
6.978927258230704
% es.tEx (V/m) @ t=0.16
8.73576709970504
% es.tEy (V/m) @ t=0.16
0
% es.tEz (V/m) @ t=0.16
6.978927258230694
% V (V) @ t=0.16
0.009310141329802521
% es.normE (V/m) @ t=0.18
11.447348893573412
% es.EX (V/m) @ t=0.18
8.870370376864164
% es.EY (V/m) @ t=0.18
-1.359202814394882
% es.EZ (V/m) @ t=0.18
7.086460897483404
% es.tEX (V/m) @ t=0.18
8.8703703768642
% es.tEY (V/m) @ t=0.18
0
% es.tEZ (V/m) @ t=0.18
7.0864608974834
% es.Ex (V/m) @ t=0.18
8.870370376864164
% es.Ey (V/m) @ t=0.18
-1.359202814394882
% es.Ez (V/m) @ t=0.18
7.086460897483404
% es.tEx (V/m) @ t=0.18
8.8703703768642
% es.tEy (V/m) @ t=0.18
0
% es.tEz (V/m) @ t=0.18
7.0864608974834
% V (V) @ t=0.18
0.009453593264959747
% es.normE (V/m) @ t=0.2
11.621056608400304
% es.EX (V/m) @ t=0.2
9.004973654023281
% es.EY (V/m) @ t=0.2
-1.3798276898410098
% es.EZ (V/m) @ t=0.2
7.193994536736086
% es.tEX (V/m) @ t=0.2
9.004973654023315
% es.tEY (V/m) @ t=0.2
0
% es.tEZ (V/m) @ t=0.2
7.193994536736085
% es.Ex (V/m) @ t=0.2
9.004973654023281
% es.Ey (V/m) @ t=0.2
-1.3798276898410098
% es.Ez (V/m) @ t=0.2
7.193994536736086
% es.tEx (V/m) @ t=0.2
9.004973654023315
% es.tEy (V/m) @ t=0.2
0
% es.tEz (V/m) @ t=0.2
7.193994536736085
% V (V) @ t=0.2
0.009597045200116974
% es.normE (V/m) @ t=0.22
11.794764323227234
% es.EX (V/m) @ t=0.22
9.139576931182411
% es.EY (V/m) @ t=0.22
-1.4004525652871394
% es.EZ (V/m) @ t=0.22
7.301528175988796
% es.tEX (V/m) @ t=0.22
9.139576931182432
% es.tEY (V/m) @ t=0.22
0
% es.tEZ (V/m) @ t=0.22
7.301528175988769
% es.Ex (V/m) @ t=0.22
9.139576931182411
% es.Ey (V/m) @ t=0.22
-1.4004525652871394
% es.Ez (V/m) @ t=0.22
7.301528175988796
% es.tEx (V/m) @ t=0.22
9.139576931182432
% es.tEy (V/m) @ t=0.22
0
% es.tEz (V/m) @ t=0.22
7.301528175988769
% V (V) @ t=0.22
0.009740497135274199
% es.normE (V/m) @ t=0.24
11.96847203805418
% es.EX (V/m) @ t=0.24
9.274180208341562
% es.EY (V/m) @ t=0.24
-1.421077440733269
% es.EZ (V/m) @ t=0.24
7.409061815241483
% es.tEX (V/m) @ t=0.24
9.27418020834159
% es.tEY (V/m) @ t=0.24
0
% es.tEZ (V/m) @ t=0.24
7.409061815241461
% es.Ex (V/m) @ t=0.24
9.274180208341562
% es.Ey (V/m) @ t=0.24
-1.421077440733269
% es.Ez (V/m) @ t=0.24
7.409061815241483
% es.tEx (V/m) @ t=0.24
9.27418020834159
% es.tEy (V/m) @ t=0.24
0
% es.tEz (V/m) @ t=0.24
7.409061815241461
% V (V) @ t=0.24
0.009883949070431428
% es.normE (V/m) @ t=0.26
12.142179752881123
% es.EX (V/m) @ t=0.26
9.40878348550067
% es.EY (V/m) @ t=0.26
-1.4417023161794251
% es.EZ (V/m) @ t=0.26
7.516595454494192
% es.tEX (V/m) @ t=0.26
9.40878348550072
% es.tEY (V/m) @ t=0.26
0
% es.tEZ (V/m) @ t=0.26
7.516595454494189
% es.Ex (V/m) @ t=0.26
9.40878348550067
% es.Ey (V/m) @ t=0.26
-1.4417023161794251
% es.Ez (V/m) @ t=0.26
7.516595454494192
% es.tEx (V/m) @ t=0.26
9.40878348550072
% es.tEy (V/m) @ t=0.26
0
% es.tEz (V/m) @ t=0.26
7.516595454494189
% V (V) @ t=0.26
0.010027401005588653
% es.normE (V/m) @ t=0.28
12.32285455585648
% es.EX (V/m) @ t=0.28
9.548785477773738
% es.EY (V/m) @ t=0.28
-1.4631545297492536
% es.EZ (V/m) @ t=0.28
7.628442001489155
% es.tEX (V/m) @ t=0.28
9.548785477773771
% es.tEY (V/m) @ t=0.28
0
% es.tEZ (V/m) @ t=0.28
7.628442001489159
% es.Ex (V/m) @ t=0.28
9.548785477773738
% es.Ey (V/m) @ t=0.28
-1.4631545297492536
% es.Ez (V/m) @ t=0.28
7.628442001489155
% es.tEx (V/m) @ t=0.28
9.548785477773771
% es.tEy (V/m) @ t=0.28
0
% es.tEz (V/m) @ t=0.28
7.628442001489159
% V (V) @ t=0.28
0.010176607044646591
% es.normE (V/m) @ t=0.3
12.511959992690578
% es.EX (V/m) @ t=0.3
9.695320269612914
% es.EY (V/m) @ t=0.3
-1.4856078767409304
% es.EZ (V/m) @ t=0.3
7.745507449876985
% es.tEX (V/m) @ t=0.3
9.695320269612981
% es.tEY (V/m) @ t=0.3
0
% es.tEZ (V/m) @ t=0.3
7.745507449876987
% es.Ex (V/m) @ t=0.3
9.695320269612914
% es.Ey (V/m) @ t=0.3
-1.4856078767409304
% es.Ez (V/m) @ t=0.3
7.745507449876985
% es.tEx (V/m) @ t=0.3
9.695320269612981
% es.tEy (V/m) @ t=0.3
0
% es.tEz (V/m) @ t=0.3
7.745507449876987
% V (V) @ t=0.3
0.010332775927024293
% es.normE (V/m) @ t=0.32
12.701065429524679
% es.EX (V/m) @ t=0.32
9.841855061452092
% es.EY (V/m) @ t=0.32
-1.508061223732625
% es.EZ (V/m) @ t=0.32
7.8625728982648155
% es.tEX (V/m) @ t=0.32
9.841855061452119
% es.tEY (V/m) @ t=0.32
0
% es.tEZ (V/m) @ t=0.32
7.862572898264813
% es.Ex (V/m) @ t=0.32
9.841855061452092
% es.Ey (V/m) @ t=0.32
-1.508061223732625
% es.Ez (V/m) @ t=0.32
7.8625728982648155
% es.tEx (V/m) @ t=0.32
9.841855061452119
% es.tEy (V/m) @ t=0.32
0
% es.tEz (V/m) @ t=0.32
7.862572898264813
% V (V) @ t=0.32
0.010488944809401993
% es.normE (V/m) @ t=0.34
12.890170866358789
% es.EX (V/m) @ t=0.34
9.988389853291284
% es.EY (V/m) @ t=0.34
-1.5305145707242698
% es.EZ (V/m) @ t=0.34
7.979638346652646
% es.tEX (V/m) @ t=0.34
9.988389853291286
% es.tEY (V/m) @ t=0.34
0
% es.tEZ (V/m) @ t=0.34
7.9796383466526395
% es.Ex (V/m) @ t=0.34
9.988389853291284
% es.Ey (V/m) @ t=0.34
-1.5305145707242698
% es.Ez (V/m) @ t=0.34
7.979638346652646
% es.tEx (V/m) @ t=0.34
9.988389853291286
% es.tEy (V/m) @ t=0.34
0
% es.tEz (V/m) @ t=0.34
7.9796383466526395
% V (V) @ t=0.34
0.010645113691779695
% es.normE (V/m) @ t=0.36
13.079276303192888
% es.EX (V/m) @ t=0.36
10.134924645130468
% es.EY (V/m) @ t=0.36
-1.5529679177159483
% es.EZ (V/m) @ t=0.36
8.096703795040469
% es.tEX (V/m) @ t=0.36
10.134924645130482
% es.tEY (V/m) @ t=0.36
0
% es.tEZ (V/m) @ t=0.36
8.096703795040483
% es.Ex (V/m) @ t=0.36
10.134924645130468
% es.Ey (V/m) @ t=0.36
-1.5529679177159483
% es.Ez (V/m) @ t=0.36
8.096703795040469
% es.tEx (V/m) @ t=0.36
10.134924645130482
% es.tEy (V/m) @ t=0.36
0
% es.tEz (V/m) @ t=0.36
8.096703795040483
% V (V) @ t=0.36
0.010801282574157398
% es.normE (V/m) @ t=0.38
13.268381740026967
% es.EX (V/m) @ t=0.38
10.281459436969616
% es.EY (V/m) @ t=0.38
-1.575421264707611
% es.EZ (V/m) @ t=0.38
8.213769243428306
% es.tEX (V/m) @ t=0.38
10.281459436969676
% es.tEY (V/m) @ t=0.38
0
% es.tEZ (V/m) @ t=0.38
8.213769243428324
% es.Ex (V/m) @ t=0.38
10.281459436969616
% es.Ey (V/m) @ t=0.38
-1.575421264707611
% es.Ez (V/m) @ t=0.38
8.213769243428306
% es.tEx (V/m) @ t=0.38
10.281459436969676
% es.tEy (V/m) @ t=0.38
0
% es.tEz (V/m) @ t=0.38
8.213769243428324
% V (V) @ t=0.38
0.0109574514565351
% es.normE (V/m) @ t=0.4
13.457487176861132
% es.EX (V/m) @ t=0.4
10.427994228808856
% es.EY (V/m) @ t=0.4
-1.5978746116992486
% es.EZ (V/m) @ t=0.4
8.330834691816158
% es.tEX (V/m) @ t=0.4
10.427994228808874
% es.tEY (V/m) @ t=0.4
0
% es.tEZ (V/m) @ t=0.4
8.330834691816149
% es.Ex (V/m) @ t=0.4
10.427994228808856
% es.Ey (V/m) @ t=0.4
-1.5978746116992486
% es.Ez (V/m) @ t=0.4
8.330834691816158
% es.tEx (V/m) @ t=0.4
10.427994228808874
% es.tEy (V/m) @ t=0.4
0
% es.tEz (V/m) @ t=0.4
8.330834691816149
% V (V) @ t=0.4
0.011113620338912797
% es.normE (V/m) @ t=0.42
13.657908928370308
% es.EX (V/m) @ t=0.42
10.583297811973813
% es.EY (V/m) @ t=0.42
-1.6216714523008804
% es.EZ (V/m) @ t=0.42
8.45490556889198
% es.tEX (V/m) @ t=0.42
10.583297811973848
% es.tEY (V/m) @ t=0.42
0
% es.tEZ (V/m) @ t=0.42
8.454905568891977
% es.Ex (V/m) @ t=0.42
10.583297811973813
% es.Ey (V/m) @ t=0.42
-1.6216714523008804
% es.Ez (V/m) @ t=0.42
8.45490556889198
% es.tEx (V/m) @ t=0.42
10.583297811973848
% es.tEy (V/m) @ t=0.42
0
% es.tEz (V/m) @ t=0.42
8.454905568891977
% V (V) @ t=0.42
0.011279133913732187
% es.normE (V/m) @ t=0.44
13.863566658585928
% es.EX (V/m) @ t=0.44
10.742658652822126
% es.EY (V/m) @ t=0.44
-1.6460899178870427
% es.EZ (V/m) @ t=0.44
8.582217808239282
% es.tEX (V/m) @ t=0.44
10.74265865282215
% es.tEY (V/m) @ t=0.44
0
% es.tEZ (V/m) @ t=0.44
8.582217808239296
% es.Ex (V/m) @ t=0.44
10.742658652822126
% es.Ey (V/m) @ t=0.44
-1.6460899178870427
% es.Ez (V/m) @ t=0.44
8.582217808239282
% es.tEx (V/m) @ t=0.44
10.74265865282215
% es.tEy (V/m) @ t=0.44
0
% es.tEz (V/m) @ t=0.44
8.582217808239296
% V (V) @ t=0.44
0.01144897121160525
% es.normE (V/m) @ t=0.46
14.069224388801619
% es.EX (V/m) @ t=0.46
10.902019493670508
% es.EY (V/m) @ t=0.46
-1.6705083834731322
% es.EZ (V/m) @ t=0.46
8.709530047586608
% es.tEX (V/m) @ t=0.46
10.902019493670537
% es.tEY (V/m) @ t=0.46
0
% es.tEZ (V/m) @ t=0.46
8.7095300475866
% es.Ex (V/m) @ t=0.46
10.902019493670508
% es.Ey (V/m) @ t=0.46
-1.6705083834731322
% es.Ez (V/m) @ t=0.46
8.709530047586608
% es.tEx (V/m) @ t=0.46
10.902019493670537
% es.tEy (V/m) @ t=0.46
0
% es.tEz (V/m) @ t=0.46
8.7095300475866
% V (V) @ t=0.46
0.011618808509478312
% es.normE (V/m) @ t=0.48
14.2748821190173
% es.EX (V/m) @ t=0.48
11.061380334518876
% es.EY (V/m) @ t=0.48
-1.6949268490592484
% es.EZ (V/m) @ t=0.48
8.83684228693392
% es.tEX (V/m) @ t=0.48
11.061380334518896
% es.tEY (V/m) @ t=0.48
0
% es.tEZ (V/m) @ t=0.48
8.836842286933921
% es.Ex (V/m) @ t=0.48
11.061380334518876
% es.Ey (V/m) @ t=0.48
-1.6949268490592484
% es.Ez (V/m) @ t=0.48
8.83684228693392
% es.tEx (V/m) @ t=0.48
11.061380334518896
% es.tEy (V/m) @ t=0.48
0
% es.tEz (V/m) @ t=0.48
8.836842286933921
% V (V) @ t=0.48
0.011788645807351372
% es.normE (V/m) @ t=0.5
14.480539849232969
% es.EX (V/m) @ t=0.5
11.22074117536721
% es.EY (V/m) @ t=0.5
-1.7193453146453752
% es.EZ (V/m) @ t=0.5
8.96415452628123
% es.tEX (V/m) @ t=0.5
11.220741175367255
% es.tEY (V/m) @ t=0.5
0
% es.tEZ (V/m) @ t=0.5
8.964154526281241
% es.Ex (V/m) @ t=0.5
11.22074117536721
% es.Ey (V/m) @ t=0.5
-1.7193453146453752
% es.Ez (V/m) @ t=0.5
8.96415452628123
% es.tEx (V/m) @ t=0.5
11.220741175367255
% es.tEy (V/m) @ t=0.5
0
% es.tEz (V/m) @ t=0.5
8.964154526281241
% V (V) @ t=0.5
0.011958483105224432
% es.normE (V/m) @ t=0.52
14.686197579448663
% es.EX (V/m) @ t=0.52
11.380102016215572
% es.EY (V/m) @ t=0.52
-1.7437637802314647
% es.EZ (V/m) @ t=0.52
9.091466765628555
% es.tEX (V/m) @ t=0.52
11.380102016215584
% es.tEY (V/m) @ t=0.52
0
% es.tEZ (V/m) @ t=0.52
9.091466765628553
% es.Ex (V/m) @ t=0.52
11.380102016215572
% es.Ey (V/m) @ t=0.52
-1.7437637802314647
% es.Ez (V/m) @ t=0.52
9.091466765628555
% es.tEx (V/m) @ t=0.52
11.380102016215584
% es.tEy (V/m) @ t=0.52
0
% es.tEz (V/m) @ t=0.52
9.091466765628553
% V (V) @ t=0.52
0.012128320403097494
% es.normE (V/m) @ t=0.54
14.891855309664361
% es.EX (V/m) @ t=0.54
11.539462857063935
% es.EY (V/m) @ t=0.54
-1.7681822458175578
% es.EZ (V/m) @ t=0.54
9.218779004975861
% es.tEX (V/m) @ t=0.54
11.539462857064002
% es.tEY (V/m) @ t=0.54
0
% es.tEZ (V/m) @ t=0.54
9.218779004975865
% es.Ex (V/m) @ t=0.54
11.539462857063935
% es.Ey (V/m) @ t=0.54
-1.7681822458175578
% es.Ez (V/m) @ t=0.54
9.218779004975861
% es.tEx (V/m) @ t=0.54
11.539462857064002
% es.tEy (V/m) @ t=0.54
0
% es.tEz (V/m) @ t=0.54
9.218779004975865
% V (V) @ t=0.54
0.012298157700970553
% es.normE (V/m) @ t=0.56
15.104775911511219
% es.EX (V/m) @ t=0.56
11.704451602911256
% es.EY (V/m) @ t=0.56
-1.7934631422808511
% es.EZ (V/m) @ t=0.56
9.350587271991568
% es.tEX (V/m) @ t=0.56
11.704451602911291
% es.tEY (V/m) @ t=0.56
0
% es.tEZ (V/m) @ t=0.56
9.350587271991564
% es.Ex (V/m) @ t=0.56
11.704451602911256
% es.Ey (V/m) @ t=0.56
-1.7934631422808511
% es.Ez (V/m) @ t=0.56
9.350587271991568
% es.tEx (V/m) @ t=0.56
11.704451602911291
% es.tEy (V/m) @ t=0.56
0
% es.tEz (V/m) @ t=0.56
9.350587271991564
% V (V) @ t=0.56
0.012473993251312536
% es.normE (V/m) @ t=0.58
15.320350800758776
% es.EX (V/m) @ t=0.58
11.871497121628789
% es.EY (V/m) @ t=0.58
-1.8190592225347029
% es.EZ (V/m) @ t=0.58
9.484038656247922
% es.tEX (V/m) @ t=0.58
11.871497121628856
% es.tEY (V/m) @ t=0.58
0
% es.tEZ (V/m) @ t=0.58
9.484038656247911
% es.Ex (V/m) @ t=0.58
11.871497121628789
% es.Ey (V/m) @ t=0.58
-1.8190592225347029
% es.Ez (V/m) @ t=0.58
9.484038656247922
% es.tEx (V/m) @ t=0.58
11.871497121628856
% es.tEy (V/m) @ t=0.58
0
% es.tEz (V/m) @ t=0.58
9.484038656247911
% V (V) @ t=0.58
0.012652020921626232
% es.normE (V/m) @ t=0.6
15.53799207987643
% es.EX (V/m) @ t=0.6
12.04014385904749
% es.EY (V/m) @ t=0.6
-1.844900676590866
% es.EZ (V/m) @ t=0.6
9.618769224069842
% es.tEX (V/m) @ t=0.6
12.040143859047546
% es.tEY (V/m) @ t=0.6
0
% es.tEZ (V/m) @ t=0.6
9.618769224069831
% es.Ex (V/m) @ t=0.6
12.04014385904749
% es.Ey (V/m) @ t=0.6
-1.844900676590866
% es.Ez (V/m) @ t=0.6
9.618769224069842
% es.tEx (V/m) @ t=0.6
12.040143859047546
% es.tEy (V/m) @ t=0.6
0
% es.tEz (V/m) @ t=0.6
9.618769224069831
% V (V) @ t=0.6
0.012831755179742874
% es.normE (V/m) @ t=0.62
15.757699748864184
% es.EX (V/m) @ t=0.62
12.210391815167291
% es.EY (V/m) @ t=0.62
-1.870987504449495
% es.EZ (V/m) @ t=0.62
9.754778975457393
% es.tEX (V/m) @ t=0.62
12.210391815167341
% es.tEY (V/m) @ t=0.62
0
% es.tEZ (V/m) @ t=0.62
9.754778975457398
% es.Ex (V/m) @ t=0.62
12.210391815167291
% es.Ey (V/m) @ t=0.62
-1.870987504449495
% es.Ez (V/m) @ t=0.62
9.754778975457393
% es.tEx (V/m) @ t=0.62
12.210391815167341
% es.tEy (V/m) @ t=0.62
0
% es.tEz (V/m) @ t=0.62
9.754778975457398
% V (V) @ t=0.62
0.013013196025662454
% es.normE (V/m) @ t=0.64
15.979473807722034
% es.EX (V/m) @ t=0.64
12.38224098998824
% es.EY (V/m) @ t=0.64
-1.897319706110407
% es.EZ (V/m) @ t=0.64
9.89206791041053
% es.tEX (V/m) @ t=0.64
12.38224098998829
% es.tEY (V/m) @ t=0.64
0
% es.tEZ (V/m) @ t=0.64
9.89206791041051
% es.Ex (V/m) @ t=0.64
12.38224098998824
% es.Ey (V/m) @ t=0.64
-1.897319706110407
% es.Ez (V/m) @ t=0.64
9.89206791041053
% es.tEx (V/m) @ t=0.64
12.38224098998829
% es.tEy (V/m) @ t=0.64
0
% es.tEz (V/m) @ t=0.64
9.89206791041051
% V (V) @ t=0.64
0.013196343459384979
% es.normE (V/m) @ t=0.66
16.203314256449957
% es.EX (V/m) @ t=0.66
12.5556913835103
% es.EY (V/m) @ t=0.66
-1.9238972815736926
% es.EZ (V/m) @ t=0.66
10.030636028929262
% es.tEX (V/m) @ t=0.66
12.555691383510338
% es.tEY (V/m) @ t=0.66
0
% es.tEZ (V/m) @ t=0.66
10.030636028929242
% es.Ex (V/m) @ t=0.66
12.5556913835103
% es.Ey (V/m) @ t=0.66
-1.9238972815736926
% es.Ez (V/m) @ t=0.66
10.030636028929262
% es.tEx (V/m) @ t=0.66
12.555691383510338
% es.tEy (V/m) @ t=0.66
0
% es.tEz (V/m) @ t=0.66
10.030636028929242
% V (V) @ t=0.66
0.013381197480910448
% es.normE (V/m) @ t=0.68
16.429221095048042
% es.EX (V/m) @ t=0.68
12.73074299573354
% es.EY (V/m) @ t=0.68
-1.9507202308393374
% es.EZ (V/m) @ t=0.68
10.170483331013646
% es.tEX (V/m) @ t=0.68
12.730742995733543
% es.tEY (V/m) @ t=0.68
0
% es.tEZ (V/m) @ t=0.68
10.170483331013646
% es.Ex (V/m) @ t=0.68
12.73074299573354
% es.Ey (V/m) @ t=0.68
-1.9507202308393374
% es.Ez (V/m) @ t=0.68
10.170483331013646
% es.tEx (V/m) @ t=0.68
12.730742995733543
% es.tEy (V/m) @ t=0.68
0
% es.tEz (V/m) @ t=0.68
10.170483331013646
% V (V) @ t=0.68
0.013567758090238852
% es.normE (V/m) @ t=0.7
16.65719432351615
% es.EX (V/m) @ t=0.7
12.907395826657847
% es.EY (V/m) @ t=0.7
-1.977788553907379
% es.EZ (V/m) @ t=0.7
10.31160981666359
% es.tEX (V/m) @ t=0.7
12.907395826657847
% es.tEY (V/m) @ t=0.7
0
% es.tEZ (V/m) @ t=0.7
10.311609816663585
% es.Ex (V/m) @ t=0.7
12.907395826657847
% es.Ey (V/m) @ t=0.7
-1.977788553907379
% es.Ez (V/m) @ t=0.7
10.31160981666359
% es.tEx (V/m) @ t=0.7
12.907395826657847
% es.tEy (V/m) @ t=0.7
0
% es.tEz (V/m) @ t=0.7
10.311609816663585
% V (V) @ t=0.7
0.013756025287370202
% es.normE (V/m) @ t=0.72
16.887233941854333
% es.EX (V/m) @ t=0.72
13.085649876283252
% es.EY (V/m) @ t=0.72
-2.00510225077778
% es.EZ (V/m) @ t=0.72
10.454015485879143
% es.tEX (V/m) @ t=0.72
13.085649876283338
% es.tEY (V/m) @ t=0.72
0
% es.tEZ (V/m) @ t=0.72
10.454015485879141
% es.Ex (V/m) @ t=0.72
13.085649876283252
% es.Ey (V/m) @ t=0.72
-2.00510225077778
% es.Ez (V/m) @ t=0.72
10.454015485879143
% es.tEx (V/m) @ t=0.72
13.085649876283338
% es.tEy (V/m) @ t=0.72
0
% es.tEz (V/m) @ t=0.72
10.454015485879141
% V (V) @ t=0.72
0.013945999072304496
% es.normE (V/m) @ t=0.74
17.119339950062663
% es.EX (V/m) @ t=0.74
13.265505144609872
% es.EY (V/m) @ t=0.74
-2.032661321450508
% es.EZ (V/m) @ t=0.74
10.597700338660289
% es.tEX (V/m) @ t=0.74
13.265505144609925
% es.tEY (V/m) @ t=0.74
0
% es.tEZ (V/m) @ t=0.74
10.597700338660287
% es.Ex (V/m) @ t=0.74
13.265505144609872
% es.Ey (V/m) @ t=0.74
-2.032661321450508
% es.Ez (V/m) @ t=0.74
10.597700338660289
% es.tEx (V/m) @ t=0.74
13.265505144609925
% es.tEy (V/m) @ t=0.74
0
% es.tEz (V/m) @ t=0.74
10.597700338660287
% V (V) @ t=0.74
0.01413767944504173
% es.normE (V/m) @ t=0.76
17.353512348141063
% es.EX (V/m) @ t=0.76
13.446961631637581
% es.EY (V/m) @ t=0.76
-2.0604657659256524
% es.EZ (V/m) @ t=0.76
10.742664375007038
% es.tEX (V/m) @ t=0.76
13.446961631637587
% es.tEY (V/m) @ t=0.76
0
% es.tEZ (V/m) @ t=0.76
10.74266437500702
% es.Ex (V/m) @ t=0.76
13.446961631637581
% es.Ey (V/m) @ t=0.76
-2.0604657659256524
% es.Ez (V/m) @ t=0.76
10.742664375007038
% es.tEx (V/m) @ t=0.76
13.446961631637587
% es.tEy (V/m) @ t=0.76
0
% es.tEz (V/m) @ t=0.76
10.74266437500702
% V (V) @ t=0.76
0.014331066405581908
% es.normE (V/m) @ t=0.78
17.589751136089532
% es.EX (V/m) @ t=0.78
13.630019337366361
% es.EY (V/m) @ t=0.78
-2.088515584203101
% es.EZ (V/m) @ t=0.78
10.88890759491943
% es.tEX (V/m) @ t=0.78
13.630019337366432
% es.tEY (V/m) @ t=0.78
0
% es.tEZ (V/m) @ t=0.78
10.888907594919429
% es.Ex (V/m) @ t=0.78
13.630019337366361
% es.Ey (V/m) @ t=0.78
-2.088515584203101
% es.Ez (V/m) @ t=0.78
10.88890759491943
% es.tEx (V/m) @ t=0.78
13.630019337366432
% es.tEy (V/m) @ t=0.78
0
% es.tEz (V/m) @ t=0.78
10.888907594919429
% V (V) @ t=0.78
0.014526159953925024
% es.normE (V/m) @ t=0.8
17.82805631390811
% es.EX (V/m) @ t=0.8
13.814678261796326
% es.EY (V/m) @ t=0.8
-2.116810776282957
% es.EZ (V/m) @ t=0.8
11.036429998397377
% es.tEX (V/m) @ t=0.8
13.814678261796377
% es.tEY (V/m) @ t=0.8
0
% es.tEZ (V/m) @ t=0.8
11.036429998397384
% es.Ex (V/m) @ t=0.8
13.814678261796326
% es.Ey (V/m) @ t=0.8
-2.116810776282957
% es.Ez (V/m) @ t=0.8
11.036429998397377
% es.tEx (V/m) @ t=0.8
13.814678261796377
% es.tEy (V/m) @ t=0.8
0
% es.tEz (V/m) @ t=0.8
11.036429998397384
% V (V) @ t=0.8
0.014722960090071086
% es.normE (V/m) @ t=0.82
18.069964526219856
% es.EX (V/m) @ t=0.82
14.002129131958457
% es.EY (V/m) @ t=0.82
-2.1455338122869847
% es.EZ (V/m) @ t=0.82
11.186182832507182
% es.tEX (V/m) @ t=0.82
14.00212913195853
% es.tEY (V/m) @ t=0.82
0
% es.tEZ (V/m) @ t=0.82
11.186182832507177
% es.Ex (V/m) @ t=0.82
14.002129131958457
% es.Ey (V/m) @ t=0.82
-2.1455338122869847
% es.Ez (V/m) @ t=0.82
11.186182832507182
% es.tEx (V/m) @ t=0.82
14.00212913195853
% es.tEy (V/m) @ t=0.82
0
% es.tEz (V/m) @ t=0.82
11.186182832507177
% V (V) @ t=0.82
0.014922735891810474
% es.normE (V/m) @ t=0.84
18.31687885136956
% es.EX (V/m) @ t=0.84
14.193459176016459
% es.EY (V/m) @ t=0.84
-2.1748513019001194
% es.EZ (V/m) @ t=0.84
11.33903466122202
% es.tEX (V/m) @ t=0.84
14.193459176016486
% es.tEY (V/m) @ t=0.84
0
% es.tEZ (V/m) @ t=0.84
11.339034661221989
% es.Ex (V/m) @ t=0.84
14.193459176016459
% es.Ey (V/m) @ t=0.84
-2.1748513019001194
% es.Ez (V/m) @ t=0.84
11.33903466122202
% es.tEx (V/m) @ t=0.84
14.193459176016486
% es.tEy (V/m) @ t=0.84
0
% es.tEz (V/m) @ t=0.84
11.339034661221989
% V (V) @ t=0.84
0.01512664612776069
% es.normE (V/m) @ t=0.86
18.56644501392831
% es.EX (V/m) @ t=0.86
14.386844094877615
% es.EY (V/m) @ t=0.86
-2.204483684762092
% es.EZ (V/m) @ t=0.86
11.493528089929466
% es.tEX (V/m) @ t=0.86
14.386844094877686
% es.tEY (V/m) @ t=0.86
0
% es.tEZ (V/m) @ t=0.86
11.493528089929457
% es.Ex (V/m) @ t=0.86
14.386844094877615
% es.Ey (V/m) @ t=0.86
-2.204483684762092
% es.Ez (V/m) @ t=0.86
11.493528089929466
% es.tEx (V/m) @ t=0.86
14.386844094877686
% es.tEy (V/m) @ t=0.86
0
% es.tEz (V/m) @ t=0.86
11.493528089929457
% V (V) @ t=0.86
0.015332746458538177
% es.normE (V/m) @ t=0.88
18.81866301389614
% es.EX (V/m) @ t=0.88
14.582283888541953
% es.EY (V/m) @ t=0.88
-2.234430960873045
% es.EZ (V/m) @ t=0.88
11.64966311862951
% es.tEX (V/m) @ t=0.88
14.582283888542012
% es.tEY (V/m) @ t=0.88
0
% es.tEZ (V/m) @ t=0.88
11.649663118629498
% es.Ex (V/m) @ t=0.88
14.582283888541953
% es.Ey (V/m) @ t=0.88
-2.234430960873045
% es.Ez (V/m) @ t=0.88
11.64966311862951
% es.tEx (V/m) @ t=0.88
14.582283888542012
% es.tEy (V/m) @ t=0.88
0
% es.tEz (V/m) @ t=0.88
11.649663118629498
% V (V) @ t=0.88
0.01554103688414293
% es.normE (V/m) @ t=0.9
19.07353285127306
% es.EX (V/m) @ t=0.9
14.779778557009472
% es.EY (V/m) @ t=0.9
-2.264693130232864
% es.EZ (V/m) @ t=0.9
11.807439747322196
% es.tEX (V/m) @ t=0.9
14.77977855700955
% es.tEY (V/m) @ t=0.9
0
% es.tEZ (V/m) @ t=0.9
11.807439747322166
% es.Ex (V/m) @ t=0.9
14.779778557009472
% es.Ey (V/m) @ t=0.9
-2.264693130232864
% es.Ez (V/m) @ t=0.9
11.807439747322196
% es.tEx (V/m) @ t=0.9
14.77977855700955
% es.tEy (V/m) @ t=0.9
0
% es.tEz (V/m) @ t=0.9
11.807439747322166
% V (V) @ t=0.9
0.015751517404574946
% es.normE (V/m) @ t=0.92
19.3310545260591
% es.EX (V/m) @ t=0.92
14.979328100280158
% es.EY (V/m) @ t=0.92
-2.2952701928417447
% es.EZ (V/m) @ t=0.92
11.96685797600754
% es.tEX (V/m) @ t=0.92
14.979328100280217
% es.tEY (V/m) @ t=0.92
0
% es.tEZ (V/m) @ t=0.92
11.966857976007518
% es.Ex (V/m) @ t=0.92
14.979328100280158
% es.Ey (V/m) @ t=0.92
-2.2952701928417447
% es.Ez (V/m) @ t=0.92
11.96685797600754
% es.tEx (V/m) @ t=0.92
14.979328100280217
% es.tEy (V/m) @ t=0.92
0
% es.tEz (V/m) @ t=0.92
11.966857976007518
% V (V) @ t=0.92
0.01596418801983423
% es.normE (V/m) @ t=0.94
19.591228038254158
% es.EX (V/m) @ t=0.94
15.18093251835401
% es.EY (V/m) @ t=0.94
-2.326162148699403
% es.EZ (V/m) @ t=0.94
12.127917804685433
% es.tEX (V/m) @ t=0.94
15.180932518354068
% es.tEY (V/m) @ t=0.94
0
% es.tEZ (V/m) @ t=0.94
12.127917804685438
% es.Ex (V/m) @ t=0.94
15.18093251835401
% es.Ey (V/m) @ t=0.94
-2.326162148699403
% es.Ez (V/m) @ t=0.94
12.127917804685433
% es.tEx (V/m) @ t=0.94
15.180932518354068
% es.tEy (V/m) @ t=0.94
0
% es.tEz (V/m) @ t=0.94
12.127917804685438
% V (V) @ t=0.94
0.016179048729920778
% es.normE (V/m) @ t=0.96
19.854053387858293
% es.EX (V/m) @ t=0.96
15.384591811230976
% es.EY (V/m) @ t=0.96
-2.3573689978060273
% es.EZ (V/m) @ t=0.96
12.290619233355994
% es.tEX (V/m) @ t=0.96
15.384591811231019
% es.tEY (V/m) @ t=0.96
0
% es.tEZ (V/m) @ t=0.96
12.290619233355999
% es.Ex (V/m) @ t=0.96
15.384591811230976
% es.Ey (V/m) @ t=0.96
-2.3573689978060273
% es.Ez (V/m) @ t=0.96
12.290619233355994
% es.tEx (V/m) @ t=0.96
15.384591811231019
% es.tEy (V/m) @ t=0.96
0
% es.tEz (V/m) @ t=0.96
12.290619233355999
% V (V) @ t=0.96
0.016396099534834587
% es.normE (V/m) @ t=0.98
20.119530574871547
% es.EX (V/m) @ t=0.98
15.590305978911164
% es.EY (V/m) @ t=0.98
-2.3888907401615427
% es.EZ (V/m) @ t=0.98
12.454962262019173
% es.tEX (V/m) @ t=0.98
15.59030597891121
% es.tEY (V/m) @ t=0.98
0
% es.tEZ (V/m) @ t=0.98
12.454962262019205
% es.Ex (V/m) @ t=0.98
15.590305978911164
% es.Ey (V/m) @ t=0.98
-2.3888907401615427
% es.Ez (V/m) @ t=0.98
12.454962262019173
% es.tEx (V/m) @ t=0.98
15.59030597891121
% es.tEy (V/m) @ t=0.98
0
% es.tEz (V/m) @ t=0.98
12.454962262019205
% V (V) @ t=0.98
0.016615340434575666
% es.normE (V/m) @ t=1
20.387659599293826
% es.EX (V/m) @ t=1
15.798075021394478
% es.EY (V/m) @ t=1
-2.420727375766038
% es.EZ (V/m) @ t=1
12.620946890674912
% es.tEX (V/m) @ t=1
15.79807502139456
% es.tEY (V/m) @ t=1
0
% es.tEZ (V/m) @ t=1
12.620946890674933
% es.Ex (V/m) @ t=1
15.798075021394478
% es.Ey (V/m) @ t=1
-2.420727375766038
% es.Ez (V/m) @ t=1
12.620946890674912
% es.tEx (V/m) @ t=1
15.79807502139456
% es.tEy (V/m) @ t=1
0
% es.tEz (V/m) @ t=1
12.620946890674933
% V (V) @ t=1
0.016836771429144012
% es.normE (V/m) @ t=1.02
20.65844046112518
% es.EX (V/m) @ t=1.02
16.007898938680903
% es.EY (V/m) @ t=1.02
-2.452878904619361
% es.EZ (V/m) @ t=1.02
12.788573119323349
% es.tEX (V/m) @ t=1.02
16.007898938681006
% es.tEY (V/m) @ t=1.02
0
% es.tEZ (V/m) @ t=1.02
12.788573119323335
% es.Ex (V/m) @ t=1.02
16.007898938680903
% es.Ey (V/m) @ t=1.02
-2.452878904619361
% es.Ez (V/m) @ t=1.02
12.788573119323349
% es.tEx (V/m) @ t=1.02
16.007898938681006
% es.tEy (V/m) @ t=1.02
0
% es.tEz (V/m) @ t=1.02
12.788573119323335
% V (V) @ t=1.02
0.01706039251853962
% es.normE (V/m) @ t=1.04
20.93187316036566
% es.EX (V/m) @ t=1.04
16.21977773077055
% es.EY (V/m) @ t=1.04
-2.4853453267217027
% es.EZ (V/m) @ t=1.04
12.957840947964375
% es.tEX (V/m) @ t=1.04
16.21977773077058
% es.tEY (V/m) @ t=1.04
0
% es.tEZ (V/m) @ t=1.04
12.957840947964362
% es.Ex (V/m) @ t=1.04
16.21977773077055
% es.Ey (V/m) @ t=1.04
-2.4853453267217027
% es.Ez (V/m) @ t=1.04
12.957840947964375
% es.tEx (V/m) @ t=1.04
16.21977773077058
% es.tEy (V/m) @ t=1.04
0
% es.tEz (V/m) @ t=1.04
12.957840947964362
% V (V) @ t=1.04
0.0172862037027625
% es.normE (V/m) @ t=1.06
21.207957697015324
% es.EX (V/m) @ t=1.06
16.433711397663476