% Model:              1 neuron.mph
% Version:            COMSOL 6.0.0.405
% Date:               Mar 16 2023, 19:08
% Dimension:          0
% Nodes:              14017
% Expressions:        14017
% Description:        Electric field norm, Electric field, X component, Electric field, Y component, Electric field, Z component, Tangential electric field, X component, Tangential electric field, Y component, Tangential electric field, Z component, Electric field, x component, Electric field, y component, Electric field, z component, Tangential electric field, x component, Tangential electric field, y component, Tangential electric field, z component, Electric potential
% Length unit:        mm
% x
1.66
% y
12.2
% z
1
% es.normE (V/m) @ t=0
2.2619388409647887
% es.EX (V/m) @ t=0
-0.8062400276832663
% es.EY (V/m) @ t=0
0.2561383278295126
% es.EZ (V/m) @ t=0
2.091295943119073
% es.tEX (V/m) @ t=0
-0.8062400276832734
% es.tEY (V/m) @ t=0
0
% es.tEZ (V/m) @ t=0
2.091295943119073
% es.Ex (V/m) @ t=0
-0.8062400276832663
% es.Ey (V/m) @ t=0
0.2561383278295126
% es.Ez (V/m) @ t=0
2.091295943119073
% es.tEx (V/m) @ t=0
-0.8062400276832734
% es.tEy (V/m) @ t=0
0
% es.tEz (V/m) @ t=0
2.091295943119073
% V (V) @ t=0
0.011012915722072742
% es.normE (V/m) @ t=0.02
1.9645123082305305
% es.EX (V/m) @ t=0.02
-0.7002260321863945
% es.EY (V/m) @ t=0.02
0.2224582238346351
% es.EZ (V/m) @ t=0.02
1.8163075611916728
% es.tEX (V/m) @ t=0.02
-0.7002260321864087
% es.tEY (V/m) @ t=0.02
0
% es.tEZ (V/m) @ t=0.02
1.8163075611916746
% es.Ex (V/m) @ t=0.02
-0.7002260321863945
% es.Ey (V/m) @ t=0.02
0.2224582238346351
% es.Ez (V/m) @ t=0.02
1.8163075611916728
% es.tEx (V/m) @ t=0.02
-0.7002260321864087
% es.tEy (V/m) @ t=0.02
0
% es.tEz (V/m) @ t=0.02
1.8163075611916746
% V (V) @ t=0.02
0.0095648069349324
% es.normE (V/m) @ t=0.04
1.9936435758268831
% es.EX (V/m) @ t=0.04
-0.7106095129856669
% es.EY (V/m) @ t=0.04
0.22575700120640851
% es.EZ (V/m) @ t=0.04
1.8432411365661396
% es.tEX (V/m) @ t=0.04
-0.7106095129856811
% es.tEY (V/m) @ t=0.04
0
% es.tEZ (V/m) @ t=0.04
1.8432411365661405
% es.Ex (V/m) @ t=0.04
-0.7106095129856669
% es.Ey (V/m) @ t=0.04
0.22575700120640851
% es.Ez (V/m) @ t=0.04
1.8432411365661396
% es.tEx (V/m) @ t=0.04
-0.7106095129856811
% es.tEy (V/m) @ t=0.04
0
% es.tEz (V/m) @ t=0.04
1.8432411365661405
% V (V) @ t=0.04
0.00970664090953494
% es.normE (V/m) @ t=0.06
2.0232046048215384
% es.EX (V/m) @ t=0.06
-0.7211461739868787
% es.EY (V/m) @ t=0.06
0.22910444507901628
% es.EZ (V/m) @ t=0.06
1.870572052658896
% es.tEX (V/m) @ t=0.06
-0.721146173986893
% es.tEY (V/m) @ t=0.06
0
% es.tEZ (V/m) @ t=0.06
1.8705720526589005
% es.Ex (V/m) @ t=0.06
-0.7211461739868787
% es.Ey (V/m) @ t=0.06
0.22910444507901628
% es.Ez (V/m) @ t=0.06
1.870572052658896
% es.tEx (V/m) @ t=0.06
-0.721146173986893
% es.tEy (V/m) @ t=0.06
0
% es.tEz (V/m) @ t=0.06
1.8705720526589005
% V (V) @ t=0.06
0.009850567571798183
% es.normE (V/m) @ t=0.08
2.0535371214410114
% es.EX (V/m) @ t=0.08
-0.7319578227501489
% es.EY (V/m) @ t=0.08
0.23253925074866388
% es.EZ (V/m) @ t=0.08
1.8986162544065097
% es.tEX (V/m) @ t=0.08
-0.731957822750156
% es.tEY (V/m) @ t=0.08
0
% es.tEZ (V/m) @ t=0.08
1.8986162544065106
% es.Ex (V/m) @ t=0.08
-0.7319578227501489
% es.Ey (V/m) @ t=0.08
0.23253925074866388
% es.Ez (V/m) @ t=0.08
1.8986162544065097
% es.tEx (V/m) @ t=0.08
-0.731957822750156
% es.tEy (V/m) @ t=0.08
0
% es.tEz (V/m) @ t=0.08
1.8986162544065106
% V (V) @ t=0.08
0.00999825039843174
% es.normE (V/m) @ t=0.1
2.0843718999249674
% es.EX (V/m) @ t=0.1
-0.7429484968945669
% es.EY (V/m) @ t=0.1
0.2360309316003013
% es.EZ (V/m) @ t=0.1
1.9271248267692718
% es.tEX (V/m) @ t=0.1
-0.7429484968945775
% es.tEY (V/m) @ t=0.1
0
% es.tEZ (V/m) @ t=0.1
1.9271248267692673
% es.Ex (V/m) @ t=0.1
-0.7429484968945669
% es.Ey (V/m) @ t=0.1
0.2360309316003013
% es.Ez (V/m) @ t=0.1
1.9271248267692718
% es.tEx (V/m) @ t=0.1
-0.7429484968945775
% es.tEy (V/m) @ t=0.1
0
% es.tEz (V/m) @ t=0.1
1.9271248267692673
% V (V) @ t=0.1
0.01014837860209962
% es.normE (V/m) @ t=0.12
2.115206678408923
% es.EX (V/m) @ t=0.12
-0.7539391710389706
% es.EY (V/m) @ t=0.12
0.2395226124519636
% es.EZ (V/m) @ t=0.12
1.9556333991320356
% es.tEX (V/m) @ t=0.12
-0.7539391710389777
% es.tEY (V/m) @ t=0.12
0
% es.tEZ (V/m) @ t=0.12
1.95563339913204
% es.Ex (V/m) @ t=0.12
-0.7539391710389706
% es.Ey (V/m) @ t=0.12
0.2395226124519636
% es.Ez (V/m) @ t=0.12
1.9556333991320356
% es.tEx (V/m) @ t=0.12
-0.7539391710389777
% es.tEy (V/m) @ t=0.12
0
% es.tEz (V/m) @ t=0.12
1.95563339913204
% V (V) @ t=0.12
0.010298506805767499
% es.normE (V/m) @ t=0.14
2.1466520006791874
% es.EX (V/m) @ t=0.14
-0.7651474699724867
% es.EY (V/m) @ t=0.14
0.24308342890925272
% es.EZ (V/m) @ t=0.14
1.9847064539568038
% es.tEX (V/m) @ t=0.14
-0.7651474699724938
% es.tEY (V/m) @ t=0.14
0
% es.tEZ (V/m) @ t=0.14
1.9847064539568056
% es.Ex (V/m) @ t=0.14
-0.7651474699724867
% es.Ey (V/m) @ t=0.14
0.24308342890925272
% es.Ez (V/m) @ t=0.14
1.9847064539568038
% es.tEx (V/m) @ t=0.14
-0.7651474699724938
% es.tEy (V/m) @ t=0.14
0
% es.tEz (V/m) @ t=0.14
1.9847064539568056
% V (V) @ t=0.14
0.010451607251866332
% es.normE (V/m) @ t=0.16
2.180245924912084
% es.EX (V/m) @ t=0.16
-0.7771216256053635
% es.EY (V/m) @ t=0.16
0.24688754470285823
% es.EZ (V/m) @ t=0.16
2.0157660135219757
% es.tEX (V/m) @ t=0.16
-0.7771216256053777
% es.tEY (V/m) @ t=0.16
0
% es.tEZ (V/m) @ t=0.16
2.015766013521981
% es.Ex (V/m) @ t=0.16
-0.7771216256053635
% es.Ey (V/m) @ t=0.16
0.24688754470285823
% es.Ez (V/m) @ t=0.16
2.0157660135219757
% es.tEx (V/m) @ t=0.16
-0.7771216256053777
% es.tEy (V/m) @ t=0.16
0
% es.tEz (V/m) @ t=0.16
2.015766013521981
% V (V) @ t=0.16
0.01061516749800551
% es.normE (V/m) @ t=0.18
2.213839849144997
% es.EX (V/m) @ t=0.18
-0.7890957812382402
% es.EY (V/m) @ t=0.18
0.25069166049646396
% es.EZ (V/m) @ t=0.18
2.0468255730871636
% es.tEX (V/m) @ t=0.18
-0.7890957812382544
% es.tEY (V/m) @ t=0.18
0
% es.tEZ (V/m) @ t=0.18
2.046825573087162
% es.Ex (V/m) @ t=0.18
-0.7890957812382402
% es.Ey (V/m) @ t=0.18
0.25069166049646396
% es.Ez (V/m) @ t=0.18
2.0468255730871636
% es.tEx (V/m) @ t=0.18
-0.7890957812382544
% es.tEy (V/m) @ t=0.18
0
% es.tEz (V/m) @ t=0.18
2.046825573087162
% V (V) @ t=0.18
0.010778727744144685
% es.normE (V/m) @ t=0.2
2.2474337733778986
% es.EX (V/m) @ t=0.2
-0.8010699368711169
% es.EY (V/m) @ t=0.2
0.25449577629007236
% es.EZ (V/m) @ t=0.2
2.077885132652338
% es.tEX (V/m) @ t=0.2
-0.8010699368711311
% es.tEY (V/m) @ t=0.2
0
% es.tEZ (V/m) @ t=0.2
2.0778851326523355
% es.Ex (V/m) @ t=0.2
-0.8010699368711169
% es.Ey (V/m) @ t=0.2
0.25449577629007236
% es.Ez (V/m) @ t=0.2
2.077885132652338
% es.tEx (V/m) @ t=0.2
-0.8010699368711311
% es.tEy (V/m) @ t=0.2
0
% es.tEz (V/m) @ t=0.2
2.0778851326523355
% V (V) @ t=0.2
0.010942287990283862
% es.normE (V/m) @ t=0.22
2.281027697610806
% es.EX (V/m) @ t=0.22
-0.8130440925040008
% es.EY (V/m) @ t=0.22
0.25829989208368076
% es.EZ (V/m) @ t=0.22
2.1089446922175172
% es.tEX (V/m) @ t=0.22
-0.813044092504015
% es.tEY (V/m) @ t=0.22
0
% es.tEZ (V/m) @ t=0.22
2.108944692217518
% es.Ex (V/m) @ t=0.22
-0.8130440925040008
% es.Ey (V/m) @ t=0.22
0.25829989208368076
% es.Ez (V/m) @ t=0.22
2.1089446922175172
% es.tEx (V/m) @ t=0.22
-0.813044092504015
% es.tEy (V/m) @ t=0.22
0
% es.tEz (V/m) @ t=0.22
2.108944692217518
% V (V) @ t=0.22
0.011105848236423039
% es.normE (V/m) @ t=0.24
2.31462162184372
% es.EX (V/m) @ t=0.24
-0.8250182481368844
% es.EY (V/m) @ t=0.24
0.26210400787728805
% es.EZ (V/m) @ t=0.24
2.1400042517827025
% es.tEX (V/m) @ t=0.24
-0.8250182481368986
% es.tEY (V/m) @ t=0.24
0
% es.tEZ (V/m) @ t=0.24
2.1400042517827007
% es.Ex (V/m) @ t=0.24
-0.8250182481368844
% es.Ey (V/m) @ t=0.24
0.26210400787728805
% es.Ez (V/m) @ t=0.24
2.1400042517827025
% es.tEx (V/m) @ t=0.24
-0.8250182481368986
% es.tEy (V/m) @ t=0.24
0
% es.tEz (V/m) @ t=0.24
2.1400042517827007
% V (V) @ t=0.24
0.011269408482562217
% es.normE (V/m) @ t=0.26
2.348215546076619
% es.EX (V/m) @ t=0.26
-0.8369924037697505
% es.EY (V/m) @ t=0.26
0.26590812367090333
% es.EZ (V/m) @ t=0.26
2.171063811347878
% es.tEX (V/m) @ t=0.26
-0.8369924037697682
% es.tEY (V/m) @ t=0.26
0
% es.tEZ (V/m) @ t=0.26
2.171063811347876
% es.Ex (V/m) @ t=0.26
-0.8369924037697505
% es.Ey (V/m) @ t=0.26
0.26590812367090333
% es.Ez (V/m) @ t=0.26
2.171063811347878
% es.tEx (V/m) @ t=0.26
-0.8369924037697682
% es.tEy (V/m) @ t=0.26
0
% es.tEz (V/m) @ t=0.26
2.171063811347876
% V (V) @ t=0.26
0.011432968728701393
% es.normE (V/m) @ t=0.28
2.3831568503246654
% es.EX (V/m) @ t=0.28
-0.8494468111665275
% es.EY (V/m) @ t=0.28
0.2698648164305284
% es.EZ (V/m) @ t=0.28
2.2033691048878543
% es.tEX (V/m) @ t=0.28
-0.8494468111665417
% es.tEY (V/m) @ t=0.28
0
% es.tEZ (V/m) @ t=0.28
2.203369104887857
% es.Ex (V/m) @ t=0.28
-0.8494468111665275
% es.Ey (V/m) @ t=0.28
0.2698648164305284
% es.Ez (V/m) @ t=0.28
2.2033691048878543
% es.tEx (V/m) @ t=0.28
-0.8494468111665417
% es.tEy (V/m) @ t=0.28
0
% es.tEz (V/m) @ t=0.28
2.203369104887857
% V (V) @ t=0.28
0.011603089562680613
% es.normE (V/m) @ t=0.3
2.4197285728097606
% es.EX (V/m) @ t=0.3
-0.8624823547130169
% es.EY (V/m) @ t=0.3
0.2740061373316123
% es.EZ (V/m) @ t=0.3
2.2371818182857792
% es.tEX (V/m) @ t=0.3
-0.8624823547130347
% es.tEY (V/m) @ t=0.3
0
% es.tEZ (V/m) @ t=0.3
2.2371818182857766
% es.Ex (V/m) @ t=0.3
-0.8624823547130169
% es.Ey (V/m) @ t=0.3
0.2740061373316123
% es.Ez (V/m) @ t=0.3
2.2371818182857792
% es.tEx (V/m) @ t=0.3
-0.8624823547130347
% es.tEy (V/m) @ t=0.3
0
% es.tEz (V/m) @ t=0.3
2.2371818182857766
% V (V) @ t=0.3
0.011781149138469851
% es.normE (V/m) @ t=0.32
2.4563002952948607
% es.EX (V/m) @ t=0.32
-0.8755178982595206
% es.EY (V/m) @ t=0.32
0.27814745823267506
% es.EZ (V/m) @ t=0.32
2.2709945316837077
% es.tEX (V/m) @ t=0.32
-0.8755178982595277
% es.tEY (V/m) @ t=0.32
0
% es.tEZ (V/m) @ t=0.32
2.2709945316837086
% es.Ex (V/m) @ t=0.32
-0.8755178982595206
% es.Ey (V/m) @ t=0.32
0.27814745823267506
% es.Ez (V/m) @ t=0.32
2.2709945316837077
% es.tEx (V/m) @ t=0.32
-0.8755178982595277
% es.tEy (V/m) @ t=0.32
0
% es.tEz (V/m) @ t=0.32
2.2709945316837086
% V (V) @ t=0.32
0.011959208714259087
% es.normE (V/m) @ t=0.34
2.4928720177799493
% es.EX (V/m) @ t=0.34
-0.8885534418060068
% es.EY (V/m) @ t=0.34
0.28228877913375006
% es.EZ (V/m) @ t=0.34
2.304807245081629
% es.tEX (V/m) @ t=0.34
-0.8885534418060139
% es.tEY (V/m) @ t=0.34
0
% es.tEZ (V/m) @ t=0.34
2.3048072450816406
% es.Ex (V/m) @ t=0.34
-0.8885534418060068
% es.Ey (V/m) @ t=0.34
0.28228877913375006
% es.Ez (V/m) @ t=0.34
2.304807245081629
% es.tEx (V/m) @ t=0.34
-0.8885534418060139
% es.tEy (V/m) @ t=0.34
0
% es.tEz (V/m) @ t=0.34
2.3048072450816406
% V (V) @ t=0.34
0.012137268290048325
% es.normE (V/m) @ t=0.36
2.529443740265049
% es.EX (V/m) @ t=0.36
-0.9015889853525072
% es.EY (V/m) @ t=0.36
0.28643010003482017
% es.EZ (V/m) @ t=0.36
2.3386199584795566
% es.tEX (V/m) @ t=0.36
-0.9015889853525214
% es.tEY (V/m) @ t=0.36
0
% es.tEZ (V/m) @ t=0.36
2.33861995847956
% es.Ex (V/m) @ t=0.36
-0.9015889853525072
% es.Ey (V/m) @ t=0.36
0.28643010003482017
% es.Ez (V/m) @ t=0.36
2.3386199584795566
% es.tEx (V/m) @ t=0.36
-0.9015889853525214
% es.tEy (V/m) @ t=0.36
0
% es.tEz (V/m) @ t=0.36
2.33861995847956
% V (V) @ t=0.36
0.01231532786583756
% es.normE (V/m) @ t=0.38
2.566015462750154
% es.EX (V/m) @ t=0.38
-0.9146245288990074
% es.EY (V/m) @ t=0.38
0.2905714209358907
% es.EZ (V/m) @ t=0.38
2.3724326718774904
% es.tEX (V/m) @ t=0.38
-0.9146245288990145
% es.tEY (V/m) @ t=0.38
0
% es.tEZ (V/m) @ t=0.38
2.372432671877485
% es.Ex (V/m) @ t=0.38
-0.9146245288990074
% es.Ey (V/m) @ t=0.38
0.2905714209358907
% es.Ez (V/m) @ t=0.38
2.3724326718774904
% es.tEx (V/m) @ t=0.38
-0.9146245288990145
% es.tEy (V/m) @ t=0.38
0
% es.tEz (V/m) @ t=0.38
2.372432671877485
% V (V) @ t=0.38
0.0124933874416268
% es.normE (V/m) @ t=0.4
2.6025871852352482
% es.EX (V/m) @ t=0.4
-0.9276600724454862
% es.EY (V/m) @ t=0.4
0.29471274183695617
% es.EZ (V/m) @ t=0.4
2.4062453852754198
% es.tEX (V/m) @ t=0.4
-0.9276600724455004
% es.tEY (V/m) @ t=0.4
0
% es.tEZ (V/m) @ t=0.4
2.406245385275417
% es.Ex (V/m) @ t=0.4
-0.9276600724454862
% es.Ey (V/m) @ t=0.4
0.29471274183695617
% es.Ez (V/m) @ t=0.4
2.4062453852754198
% es.tEx (V/m) @ t=0.4
-0.9276600724455004
% es.tEy (V/m) @ t=0.4
0
% es.tEz (V/m) @ t=0.4
2.406245385275417
% V (V) @ t=0.4
0.012671447017416038
% es.normE (V/m) @ t=0.42
2.6413474180277703
% es.EX (V/m) @ t=0.42
-0.9414756911336577
% es.EY (V/m) @ t=0.42
0.2991018833684942
% es.EZ (V/m) @ t=0.42
2.4420815031105265
% es.tEX (V/m) @ t=0.42
-0.9414756911336755
% es.tEY (V/m) @ t=0.42
0
% es.tEZ (V/m) @ t=0.42
2.442081503110531
% es.Ex (V/m) @ t=0.42
-0.9414756911336577
% es.Ey (V/m) @ t=0.42
0.2991018833684942
% es.Ez (V/m) @ t=0.42
2.4420815031105265
% es.tEx (V/m) @ t=0.42
-0.9414756911336755
% es.tEy (V/m) @ t=0.42
0
% es.tEz (V/m) @ t=0.42
2.442081503110531
% V (V) @ t=0.42
0.012860161281492713
% es.normE (V/m) @ t=0.44
2.6811202590498864
% es.EX (V/m) @ t=0.44
-0.9556522450687315
% es.EY (V/m) @ t=0.44
0.30360568975174584
% es.EZ (V/m) @ t=0.44
2.4788538358576373
% es.tEX (V/m) @ t=0.44
-0.9556522450687457
% es.tEY (V/m) @ t=0.44
0
% es.tEZ (V/m) @ t=0.44
2.4788538358576417
% es.Ex (V/m) @ t=0.44
-0.9556522450687315
% es.Ey (V/m) @ t=0.44
0.30360568975174584
% es.Ez (V/m) @ t=0.44
2.4788538358576373
% es.tEx (V/m) @ t=0.44
-0.9556522450687457
% es.tEy (V/m) @ t=0.44
0
% es.tEz (V/m) @ t=0.44
2.4788538358576417
% V (V) @ t=0.44
0.013053805394429109
% es.normE (V/m) @ t=0.46
2.7208931000720096
% es.EX (V/m) @ t=0.46
-0.9698287990038017
% es.EY (V/m) @ t=0.46
0.3081094961349933
% es.EZ (V/m) @ t=0.46
2.515626168604756
% es.tEX (V/m) @ t=0.46
-0.9698287990038159
% es.tEY (V/m) @ t=0.46
0
% es.tEZ (V/m) @ t=0.46
2.5156261686047614
% es.Ex (V/m) @ t=0.46
-0.9698287990038017
% es.Ey (V/m) @ t=0.46
0.3081094961349933
% es.Ez (V/m) @ t=0.46
2.515626168604756
% es.tEx (V/m) @ t=0.46
-0.9698287990038159
% es.tEy (V/m) @ t=0.46
0
% es.tEz (V/m) @ t=0.46
2.5156261686047614
% V (V) @ t=0.46
0.013247449507365502
% es.normE (V/m) @ t=0.48
2.7606659410941257
% es.EX (V/m) @ t=0.48
-0.984005352938879
% es.EY (V/m) @ t=0.48
0.3126133025182325
% es.EZ (V/m) @ t=0.48
2.552398501351867
% es.tEX (V/m) @ t=0.48
-0.9840053529388861
% es.tEY (V/m) @ t=0.48
0
% es.tEZ (V/m) @ t=0.48
2.552398501351872
% es.Ex (V/m) @ t=0.48
-0.984005352938879
% es.Ey (V/m) @ t=0.48
0.3126133025182325
% es.Ez (V/m) @ t=0.48
2.552398501351867
% es.tEx (V/m) @ t=0.48
-0.9840053529388861
% es.tEy (V/m) @ t=0.48
0
% es.tEz (V/m) @ t=0.48
2.552398501351872
% V (V) @ t=0.48
0.013441093620301898
% es.normE (V/m) @ t=0.5
2.8004387821162395
% es.EX (V/m) @ t=0.5
-0.9981819068739493
% es.EY (V/m) @ t=0.5
0.31711710890149547
% es.EZ (V/m) @ t=0.5
2.589170834098975
% es.tEX (V/m) @ t=0.5
-0.9981819068739635
% es.tEY (V/m) @ t=0.5
0
% es.tEZ (V/m) @ t=0.5
2.5891708340989723
% es.Ex (V/m) @ t=0.5
-0.9981819068739493
% es.Ey (V/m) @ t=0.5
0.31711710890149547
% es.Ez (V/m) @ t=0.5
2.589170834098975
% es.tEx (V/m) @ t=0.5
-0.9981819068739635
% es.tEy (V/m) @ t=0.5
0
% es.tEz (V/m) @ t=0.5
2.5891708340989723
% V (V) @ t=0.5
0.013634737733238289
% es.normE (V/m) @ t=0.52
2.8402116231383543
% es.EX (V/m) @ t=0.52
-1.012358460809023
% es.EY (V/m) @ t=0.52
0.3216209152847287
% es.EZ (V/m) @ t=0.52
2.6259431668460858
% es.tEX (V/m) @ t=0.52
-1.0123584608090408
% es.tEY (V/m) @ t=0.52
0
% es.tEZ (V/m) @ t=0.52
2.6259431668460866
% es.Ex (V/m) @ t=0.52
-1.012358460809023
% es.Ey (V/m) @ t=0.52
0.3216209152847287
% es.Ez (V/m) @ t=0.52
2.6259431668460858
% es.tEx (V/m) @ t=0.52
-1.0123584608090408
% es.tEy (V/m) @ t=0.52
0
% es.tEz (V/m) @ t=0.52
2.6259431668460866
% V (V) @ t=0.52
0.013828381846174687
% es.normE (V/m) @ t=0.54
2.879984464160479
% es.EX (V/m) @ t=0.54
-1.0265350147441004
% es.EY (V/m) @ t=0.54
0.3261247216679848
% es.EZ (V/m) @ t=0.54
2.6627154995932028
% es.tEX (V/m) @ t=0.54
-1.0265350147441181
% es.tEY (V/m) @ t=0.54
0
% es.tEZ (V/m) @ t=0.54
2.662715499593199
% es.Ex (V/m) @ t=0.54
-1.0265350147441004
% es.Ey (V/m) @ t=0.54
0.3261247216679848
% es.Ez (V/m) @ t=0.54
2.6627154995932028
% es.tEx (V/m) @ t=0.54
-1.0265350147441181
% es.tEy (V/m) @ t=0.54
0
% es.tEz (V/m) @ t=0.54
2.662715499593199
% V (V) @ t=0.54
0.014022025959111083
% es.normE (V/m) @ t=0.56
2.9211618889066573
% es.EX (V/m) @ t=0.56
-1.0412122112058921
% es.EY (V/m) @ t=0.56
0.33078758204046266
% es.EZ (V/m) @ t=0.56
2.7007864541750477
% es.tEX (V/m) @ t=0.56
-1.04121221120591
% es.tEY (V/m) @ t=0.56
0
% es.tEZ (V/m) @ t=0.56
2.700786454175054
% es.Ex (V/m) @ t=0.56
-1.0412122112058921
% es.Ey (V/m) @ t=0.56
0.33078758204046266
% es.Ez (V/m) @ t=0.56
2.7007864541750477
% es.tEx (V/m) @ t=0.56
-1.04121221120591
% es.tEy (V/m) @ t=0.56
0
% es.tEz (V/m) @ t=0.56
2.700786454175054
% V (V) @ t=0.56
0.014222509053047117
% es.normE (V/m) @ t=0.58
2.9628526324985285
% es.EX (V/m) @ t=0.58
-1.0560723723706866
% es.EY (V/m) @ t=0.58
0.33550857024737324
% es.EZ (V/m) @ t=0.58
2.7393320027948107
% es.tEX (V/m) @ t=0.58
-1.0560723723707008
% es.tEY (V/m) @ t=0.58
0
% es.tEZ (V/m) @ t=0.58
2.7393320027948267
% es.Ex (V/m) @ t=0.58
-1.0560723723706866
% es.Ey (V/m) @ t=0.58
0.33550857024737324
% es.Ez (V/m) @ t=0.58
2.7393320027948107
% es.tEx (V/m) @ t=0.58
-1.0560723723707008
% es.tEy (V/m) @ t=0.58
0
% es.tEz (V/m) @ t=0.58
2.7393320027948267
% V (V) @ t=0.58
0.014425491519410904
% es.normE (V/m) @ t=0.6
3.0049430000582342
% es.EX (V/m) @ t=0.6
-1.071074973426795
% es.EY (V/m) @ t=0.6
0.3402748115674914
% es.EZ (V/m) @ t=0.6
2.7782470277237614
% es.tEX (V/m) @ t=0.6
-1.0710749734268128
% es.tEY (V/m) @ t=0.6
0
% es.tEZ (V/m) @ t=0.6
2.7782470277237667
% es.Ex (V/m) @ t=0.6
-1.071074973426795
% es.Ey (V/m) @ t=0.6
0.3402748115674914
% es.Ez (V/m) @ t=0.6
2.7782470277237614
% es.tEx (V/m) @ t=0.6
-1.0710749734268128
% es.tEy (V/m) @ t=0.6
0
% es.tEz (V/m) @ t=0.6
2.7782470277237667
% V (V) @ t=0.6
0.014630419772754985
% es.normE (V/m) @ t=0.62
3.0474329915857723
% es.EX (V/m) @ t=0.62
-1.086220014374203
% es.EY (V/m) @ t=0.62
0.3450863060008238
% es.EZ (V/m) @ t=0.62
2.8175315289619025
% es.tEX (V/m) @ t=0.62
-1.0862200143742171
% es.tEY (V/m) @ t=0.62
0
% es.tEZ (V/m) @ t=0.62
2.8175315289619043
% es.Ex (V/m) @ t=0.62
-1.086220014374203
% es.Ey (V/m) @ t=0.62
0.3450863060008238
% es.Ez (V/m) @ t=0.62
2.8175315289619025
% es.tEx (V/m) @ t=0.62
-1.0862200143742171
% es.tEy (V/m) @ t=0.62
0
% es.tEz (V/m) @ t=0.62
2.8175315289619043
% V (V) @ t=0.62
0.014837293813079359
% es.normE (V/m) @ t=0.64
3.0903226070811263
% es.EX (V/m) @ t=0.64
-1.1015074952129285
% es.EY (V/m) @ t=0.64
0.349943053547354
% es.EZ (V/m) @ t=0.64
2.857185506509211
% es.tEX (V/m) @ t=0.64
-1.1015074952129427
% es.tEY (V/m) @ t=0.64
0
% es.tEZ (V/m) @ t=0.64
2.8571855065092127
% es.Ex (V/m) @ t=0.64
-1.1015074952129285
% es.Ey (V/m) @ t=0.64
0.349943053547354
% es.Ez (V/m) @ t=0.64
2.857185506509211
% es.tEx (V/m) @ t=0.64
-1.1015074952129427
% es.tEy (V/m) @ t=0.64
0
% es.tEz (V/m) @ t=0.64
2.8571855065092127
% V (V) @ t=0.64
0.015046113640384029
% es.normE (V/m) @ t=0.66
3.1336118465443406
% es.EX (V/m) @ t=0.66
-1.1169374159429606
% es.EY (V/m) @ t=0.66
0.35484505420709866
% es.EZ (V/m) @ t=0.66
2.897208960365738
% es.tEX (V/m) @ t=0.66
-1.1169374159429748
% es.tEY (V/m) @ t=0.66
0
% es.tEZ (V/m) @ t=0.66
2.89720896036574
% es.Ex (V/m) @ t=0.66
-1.1169374159429606
% es.Ey (V/m) @ t=0.66
0.35484505420709866
% es.Ez (V/m) @ t=0.66
2.897208960365738
% es.tEx (V/m) @ t=0.66
-1.1169374159429748
% es.tEy (V/m) @ t=0.66
0
% es.tEz (V/m) @ t=0.66
2.89720896036574
% V (V) @ t=0.66
0.01525687925466899
% es.normE (V/m) @ t=0.68
3.1773007099753787
% es.EX (V/m) @ t=0.68
-1.132509776564328
% es.EY (V/m) @ t=0.68
0.3597923079800516
% es.EZ (V/m) @ t=0.68
2.9376018905314325
% es.tEX (V/m) @ t=0.68
-1.1325097765643422
% es.tEY (V/m) @ t=0.68
0
% es.tEZ (V/m) @ t=0.68
2.937601890531429
% es.Ex (V/m) @ t=0.68
-1.132509776564328
% es.Ey (V/m) @ t=0.68
0.3597923079800516
% es.Ez (V/m) @ t=0.68
2.9376018905314325
% es.tEx (V/m) @ t=0.68
-1.1325097765643422
% es.tEy (V/m) @ t=0.68
0
% es.tEz (V/m) @ t=0.68
2.937601890531429
% V (V) @ t=0.68
0.015469590655934246
% es.normE (V/m) @ t=0.7
3.2213891973742452
% es.EX (V/m) @ t=0.7
-1.1482245770769737
% es.EY (V/m) @ t=0.7
0.36478481486621095
% es.EZ (V/m) @ t=0.7
2.9783642970063218
% es.tEX (V/m) @ t=0.7
-1.1482245770769879
% es.tEY (V/m) @ t=0.7
0
% es.tEZ (V/m) @ t=0.7
2.978364297006326
% es.Ex (V/m) @ t=0.7
-1.1482245770769737
% es.Ey (V/m) @ t=0.7
0.36478481486621095
% es.Ez (V/m) @ t=0.7
2.9783642970063218
% es.tEx (V/m) @ t=0.7
-1.1482245770769879
% es.tEy (V/m) @ t=0.7
0
% es.tEz (V/m) @ t=0.7
2.978364297006326
% V (V) @ t=0.7
0.015684247844179797
% es.normE (V/m) @ t=0.72
3.2658773087409507
% es.EX (V/m) @ t=0.72
-1.1640818174809615
% es.EY (V/m) @ t=0.72
0.36982257486558523
% es.EZ (V/m) @ t=0.72
3.0194961797903925
% es.tEX (V/m) @ t=0.72
-1.1640818174809828
% es.tEY (V/m) @ t=0.72
0
% es.tEZ (V/m) @ t=0.72
3.0194961797903943
% es.Ex (V/m) @ t=0.72
-1.1640818174809615
% es.Ey (V/m) @ t=0.72
0.36982257486558523
% es.Ez (V/m) @ t=0.72
3.0194961797903925
% es.tEx (V/m) @ t=0.72
-1.1640818174809828
% es.tEy (V/m) @ t=0.72
0
% es.tEz (V/m) @ t=0.72
3.0194961797903943
% V (V) @ t=0.72
0.01590085081940564
% es.normE (V/m) @ t=0.74
3.31076504407549
% es.EX (V/m) @ t=0.74
-1.180081497776228
% es.EY (V/m) @ t=0.74
0.3749055879781933
% es.EZ (V/m) @ t=0.74
3.0609975388836608
% es.tEX (V/m) @ t=0.74
-1.1800814977762422
% es.tEY (V/m) @ t=0.74
0
% es.tEZ (V/m) @ t=0.74
3.0609975388836634
% es.Ex (V/m) @ t=0.74
-1.180081497776228
% es.Ey (V/m) @ t=0.74
0.3749055879781933
% es.Ez (V/m) @ t=0.74
3.0609975388836608
% es.tEx (V/m) @ t=0.74
-1.1800814977762422
% es.tEy (V/m) @ t=0.74
0
% es.tEz (V/m) @ t=0.74
3.0609975388836634
% V (V) @ t=0.74
0.01611939958161178
% es.normE (V/m) @ t=0.76
3.3560524033778556
% es.EX (V/m) @ t=0.76
-1.1962236179628225
% es.EY (V/m) @ t=0.76
0.38003385420395985
% es.EZ (V/m) @ t=0.76
3.1028683742861096
% es.tEX (V/m) @ t=0.76
-1.196223617962851
% es.tEY (V/m) @ t=0.76
0
% es.tEZ (V/m) @ t=0.76
3.102868374286114
% es.Ex (V/m) @ t=0.76
-1.1962236179628225
% es.Ey (V/m) @ t=0.76
0.38003385420395985
% es.Ez (V/m) @ t=0.76
3.1028683742861096
% es.tEx (V/m) @ t=0.76
-1.196223617962851
% es.tEy (V/m) @ t=0.76
0
% es.tEz (V/m) @ t=0.76
3.102868374286114
% V (V) @ t=0.76
0.01633989413079821
% es.normE (V/m) @ t=0.78
3.4017393866480745
% es.EX (V/m) @ t=0.78
-1.212508178040766
% es.EY (V/m) @ t=0.78
0.3852073735429653
% es.EZ (V/m) @ t=0.78
3.145108685997747
% es.tEX (V/m) @ t=0.78
-1.2125081780407803
% es.tEY (V/m) @ t=0.78
0
% es.tEZ (V/m) @ t=0.78
3.1451086859977497
% es.Ex (V/m) @ t=0.78
-1.212508178040766
% es.Ey (V/m) @ t=0.78
0.3852073735429653
% es.Ez (V/m) @ t=0.78
3.145108685997747
% es.tEx (V/m) @ t=0.78
-1.2125081780407803
% es.tEy (V/m) @ t=0.78
0
% es.tEz (V/m) @ t=0.78
3.1451086859977497
% V (V) @ t=0.78
0.016562334466964937
% es.normE (V/m) @ t=0.8
3.4478259938861147
% es.EX (V/m) @ t=0.8
-1.228935178009974
% es.EY (V/m) @ t=0.8
0.39042614599519077
% es.EZ (V/m) @ t=0.8
3.1877184740185776
% es.tEX (V/m) @ t=0.8
-1.2289351780099882
% es.tEY (V/m) @ t=0.8
0
% es.tEZ (V/m) @ t=0.8
3.1877184740185847
% es.Ex (V/m) @ t=0.8
-1.228935178009974
% es.Ey (V/m) @ t=0.8
0.39042614599519077
% es.Ez (V/m) @ t=0.8
3.1877184740185776
% es.tEx (V/m) @ t=0.8
-1.2289351780099882
% es.tEy (V/m) @ t=0.8
0
% es.tEz (V/m) @ t=0.8
3.1877184740185847
% V (V) @ t=0.8
0.016786720590111954
% es.normE (V/m) @ t=0.82
3.4946094019937473
% es.EX (V/m) @ t=0.82
-1.2456105423682982
% es.EY (V/m) @ t=0.82
0.39572382391685834
% es.EZ (V/m) @ t=0.82
3.2309724960288007
% es.tEX (V/m) @ t=0.82
-1.2456105423683124
% es.tEY (V/m) @ t=0.82
0
% es.tEZ (V/m) @ t=0.82
3.2309724960288033
% es.Ex (V/m) @ t=0.82
-1.2456105423682982
% es.Ey (V/m) @ t=0.82
0.39572382391685834
% es.Ez (V/m) @ t=0.82
3.2309724960288007
% es.tEx (V/m) @ t=0.82
-1.2456105423683124
% es.tEy (V/m) @ t=0.82
0
% es.tEz (V/m) @ t=0.82
3.2309724960288033
% V (V) @ t=0.82
0.01701449945600086
% es.normE (V/m) @ t=0.84
3.542360957038358
% es.EX (V/m) @ t=0.84
-1.2626309885785123
% es.EY (V/m) @ t=0.84
0.4011311345766786
% es.EZ (V/m) @ t=0.84
3.275121627569428
% es.tEX (V/m) @ t=0.84
-1.2626309885785265
% es.tEY (V/m) @ t=0.84
0
% es.tEZ (V/m) @ t=0.84
3.2751216275694315
% es.Ex (V/m) @ t=0.84
-1.2626309885785123
% es.Ey (V/m) @ t=0.84
0.4011311345766786
% es.Ez (V/m) @ t=0.84
3.275121627569428
% es.tEx (V/m) @ t=0.84
-1.2626309885785265
% es.tEy (V/m) @ t=0.84
0
% es.tEz (V/m) @ t=0.84
3.2751216275694315
% V (V) @ t=0.84
0.017246992249936585
% es.normE (V/m) @ t=0.86
3.590625357730786
% es.EX (V/m) @ t=0.86
-1.2798342309443411
% es.EY (V/m) @ t=0.86
0.4065965195895287
% es.EZ (V/m) @ t=0.86
3.319744915580972
% es.tEX (V/m) @ t=0.86
-1.2798342309443624
% es.tEY (V/m) @ t=0.86
0
% es.tEZ (V/m) @ t=0.86
3.3197449155809764
% es.Ex (V/m) @ t=0.86
-1.2798342309443411
% es.Ey (V/m) @ t=0.86
0.4065965195895287
% es.Ez (V/m) @ t=0.86
3.319744915580972
% es.tEx (V/m) @ t=0.86
-1.2798342309443624
% es.tEy (V/m) @ t=0.86
0
% es.tEz (V/m) @ t=0.86
3.3197449155809764
% V (V) @ t=0.86
0.017481982107756127
% es.normE (V/m) @ t=0.88
3.639402604071061
% es.EX (V/m) @ t=0.88
-1.2972202694658346
% es.EY (V/m) @ t=0.88
0.41211997895530006
% es.EZ (V/m) @ t=0.88
3.3648423600634656
% es.tEX (V/m) @ t=0.88
-1.2972202694658488
% es.tEY (V/m) @ t=0.88
0
% es.tEZ (V/m) @ t=0.88
3.3648423600634683
% es.Ex (V/m) @ t=0.88
-1.2972202694658346
% es.Ey (V/m) @ t=0.88
0.41211997895530006
% es.Ez (V/m) @ t=0.88
3.3648423600634656
% es.tEx (V/m) @ t=0.88
-1.2972202694658488
% es.tEy (V/m) @ t=0.88
0
% es.tEz (V/m) @ t=0.88
3.3648423600634683
% V (V) @ t=0.88
0.017719469029459485
% es.normE (V/m) @ t=0.9
3.688692696059138
% es.EX (V/m) @ t=0.9
-1.3147891041428859
% es.EY (V/m) @ t=0.9
0.4177015126740429
% es.EZ (V/m) @ t=0.9
3.41041396101689
% es.tEX (V/m) @ t=0.9
-1.3147891041429
% es.tEY (V/m) @ t=0.9
0
% es.tEZ (V/m) @ t=0.9
3.4104139610168946
% es.Ex (V/m) @ t=0.9
-1.3147891041428859
% es.Ey (V/m) @ t=0.9
0.4177015126740429
% es.Ez (V/m) @ t=0.9
3.41041396101689
% es.tEx (V/m) @ t=0.9
-1.3147891041429
% es.tEy (V/m) @ t=0.9
0
% es.tEz (V/m) @ t=0.9
3.4104139610168946
% V (V) @ t=0.9
0.017959453015046666
% es.normE (V/m) @ t=0.92
3.7384956336950617
% es.EX (V/m) @ t=0.92
-1.3325407349755871
% es.EY (V/m) @ t=0.92
0.42334112074578156
% es.EZ (V/m) @ t=0.92
3.456459718441258
% es.tEX (V/m) @ t=0.92
-1.3325407349756155
% es.tEY (V/m) @ t=0.92
0
% es.tEZ (V/m) @ t=0.92
3.4564597184412627
% es.Ex (V/m) @ t=0.92
-1.3325407349755871
% es.Ey (V/m) @ t=0.92
0.42334112074578156
% es.Ez (V/m) @ t=0.92
3.456459718441258
% es.tEx (V/m) @ t=0.92
-1.3325407349756155
% es.tEy (V/m) @ t=0.92
0
% es.tEz (V/m) @ t=0.92
3.4564597184412627
% V (V) @ t=0.92
0.01820193406451767
% es.normE (V/m) @ t=0.94
3.7888114169788096
% es.EX (V/m) @ t=0.94
-1.3504751619639606
% es.EY (V/m) @ t=0.94
0.42903880317043885
% es.EZ (V/m) @ t=0.94
3.5029796323365474
% es.tEX (V/m) @ t=0.94
-1.350475161963996
% es.tEY (V/m) @ t=0.94
0
% es.tEZ (V/m) @ t=0.94
3.502979632336551
% es.Ex (V/m) @ t=0.94
-1.3504751619639606
% es.Ey (V/m) @ t=0.94
0.42903880317043885
% es.Ez (V/m) @ t=0.94
3.5029796323365474
% es.tEx (V/m) @ t=0.94
-1.350475161963996
% es.tEy (V/m) @ t=0.94
0
% es.tEz (V/m) @ t=0.94
3.502979632336551
% V (V) @ t=0.94
0.01844691217787249
% es.normE (V/m) @ t=0.96
3.839640045910378
% es.EX (V/m) @ t=0.96
-1.368592385107884
% es.EY (V/m) @ t=0.96
0.43479455994816263
% es.EZ (V/m) @ t=0.96
3.5499737027027773
% es.tEX (V/m) @ t=0.96
-1.3685923851078983
% es.tEY (V/m) @ t=0.96
0
% es.tEZ (V/m) @ t=0.96
3.549973702702772
% es.Ex (V/m) @ t=0.96
-1.368592385107884
% es.Ey (V/m) @ t=0.96
0.43479455994816263
% es.Ez (V/m) @ t=0.96
3.5499737027027773
% es.tEx (V/m) @ t=0.96
-1.3685923851078983
% es.tEy (V/m) @ t=0.96
0
% es.tEz (V/m) @ t=0.96
3.549973702702772
% V (V) @ t=0.96
0.018694387355111128
% es.normE (V/m) @ t=0.98
3.890981520489781
% es.EX (V/m) @ t=0.98
-1.3868924044074933
% es.EY (V/m) @ t=0.98
0.44060839107880456
% es.EZ (V/m) @ t=0.98
3.5974419295399365
% es.tEX (V/m) @ t=0.98
-1.3868924044075075
% es.tEY (V/m) @ t=0.98
0
% es.tEZ (V/m) @ t=0.98
3.5974419295399294
% es.Ex (V/m) @ t=0.98
-1.3868924044074933
% es.Ey (V/m) @ t=0.98
0.44060839107880456
% es.Ez (V/m) @ t=0.98
3.5974419295399365
% es.tEx (V/m) @ t=0.98
-1.3868924044075075
% es.tEy (V/m) @ t=0.98
0
% es.tEz (V/m) @ t=0.98
3.5974419295399294
% V (V) @ t=0.98
0.01894435959623359
% es.normE (V/m) @ t=1
3.942835840717004
% es.EX (V/m) @ t=1
-1.4053752198626963
% es.EY (V/m) @ t=1
0.44648029656240684
% es.EZ (V/m) @ t=1
3.6453843128480337
% es.tEX (V/m) @ t=1
-1.4053752198627105
% es.tEY (V/m) @ t=1
0
% es.tEZ (V/m) @ t=1
3.6453843128480266
% es.Ex (V/m) @ t=1
-1.4053752198626963
% es.Ey (V/m) @ t=1
0.44648029656240684
% es.Ez (V/m) @ t=1
3.6453843128480337
% es.tEx (V/m) @ t=1
-1.4053752198627105
% es.tEy (V/m) @ t=1
0
% es.tEz (V/m) @ t=1
3.6453843128480266
% V (V) @ t=1
0.01919682890123988
% es.normE (V/m) @ t=1.02
3.995203006592064
% es.EX (V/m) @ t=1.02
-1.4240408314735216
% es.EY (V/m) @ t=1.02
0.45241027639899567
% es.EZ (V/m) @ t=1.02
3.6938008526270725
% es.tEX (V/m) @ t=1.02
-1.4240408314735358
% es.tEY (V/m) @ t=1.02
0
% es.tEZ (V/m) @ t=1.02
3.6938008526270707
% es.Ex (V/m) @ t=1.02
-1.4240408314735216
% es.Ey (V/m) @ t=1.02
0.45241027639899567
% es.Ez (V/m) @ t=1.02
3.6938008526270725
% es.tEx (V/m) @ t=1.02
-1.4240408314735358
% es.tEy (V/m) @ t=1.02
0
% es.tEz (V/m) @ t=1.02
3.6938008526270707
% V (V) @ t=1.02
0.019451795270129982
% es.normE (V/m) @ t=1.04
4.048083018114946
% es.EX (V/m) @ t=1.04
-1.4428892392399895
% es.EY (V/m) @ t=1.04
0.45839833058856216
% es.EZ (V/m) @ t=1.04
3.742691548877037
% es.tEX (V/m) @ t=1.04
-1.4428892392400108
% es.tEY (V/m) @ t=1.04
0
% es.tEZ (V/m) @ t=1.04
3.742691548877044
% es.Ex (V/m) @ t=1.04