% Model:              1 neuron.mph
% Version:            COMSOL 6.0.0.405
% Date:               Mar 16 2023, 18:55
% Dimension:          0
% Nodes:              14017
% Expressions:        14017
% Description:        Electric field norm, Electric field, X component, Electric field, Y component, Electric field, Z component, Tangential electric field, X component, Tangential electric field, Y component, Tangential electric field, Z component, Electric field, x component, Electric field, y component, Electric field, z component, Tangential electric field, x component, Tangential electric field, y component, Tangential electric field, z component, Electric potential
% Length unit:        mm
% x
1.33
% y
12.2
% z
1.33
% es.normE (V/m) @ t=0
11.694627659434532
% es.EX (V/m) @ t=0
9.061981285197625
% es.EY (V/m) @ t=0
-1.388563731335843
% es.EZ (V/m) @ t=0
7.239540244587195
% es.tEX (V/m) @ t=0
9.06198128519765
% es.tEY (V/m) @ t=0
0
% es.tEZ (V/m) @ t=0
7.23954024458719
% es.Ex (V/m) @ t=0
9.061981285197625
% es.Ey (V/m) @ t=0
-1.388563731335843
% es.Ez (V/m) @ t=0
7.239540244587195
% es.tEx (V/m) @ t=0
9.06198128519765
% es.tEy (V/m) @ t=0
0
% es.tEz (V/m) @ t=0
7.23954024458719
% V (V) @ t=0
0.009657806581150289
% es.normE (V/m) @ t=0.02
10.156891840444342
% es.EX (V/m) @ t=0.02
7.87041409879972
% es.EY (V/m) @ t=0.02
-1.2059803891286442
% es.EZ (V/m) @ t=0.02
6.287607545311937
% es.tEX (V/m) @ t=0.02
7.870414098799741
% es.tEY (V/m) @ t=0.02
0
% es.tEZ (V/m) @ t=0.02
6.287607545311938
% es.Ex (V/m) @ t=0.02
7.87041409879972
% es.Ey (V/m) @ t=0.02
-1.2059803891286442
% es.Ez (V/m) @ t=0.02
6.287607545311937
% es.tEx (V/m) @ t=0.02
7.870414098799741
% es.tEy (V/m) @ t=0.02
0
% es.tEz (V/m) @ t=0.02
6.287607545311938
% V (V) @ t=0.02
0.00838789337417411
% es.normE (V/m) @ t=0.04
10.307515568905002
% es.EX (V/m) @ t=0.04
7.987129844976101
% es.EY (V/m) @ t=0.04
-1.2238647223873471
% es.EZ (V/m) @ t=0.04
6.38085117977851
% es.tEX (V/m) @ t=0.04
7.987129844976122
% es.tEY (V/m) @ t=0.04
0
% es.tEZ (V/m) @ t=0.04
6.380851179778502
% es.Ex (V/m) @ t=0.04
7.987129844976101
% es.Ey (V/m) @ t=0.04
-1.2238647223873471
% es.Ez (V/m) @ t=0.04
6.38085117977851
% es.tEx (V/m) @ t=0.04
7.987129844976122
% es.tEy (V/m) @ t=0.04
0
% es.tEz (V/m) @ t=0.04
6.380851179778502
% V (V) @ t=0.04
0.008512282409246485
% es.normE (V/m) @ t=0.06
10.460376332776967
% es.EX (V/m) @ t=0.06
8.105579330653772
% es.EY (V/m) @ t=0.06
-1.2420146742648743
% es.EZ (V/m) @ t=0.06
6.475479240340589
% es.tEX (V/m) @ t=0.06
8.105579330653791
% es.tEY (V/m) @ t=0.06
0
% es.tEZ (V/m) @ t=0.06
6.475479240340572
% es.Ex (V/m) @ t=0.06
8.105579330653772
% es.Ey (V/m) @ t=0.06
-1.2420146742648743
% es.Ez (V/m) @ t=0.06
6.475479240340589
% es.tEx (V/m) @ t=0.06
8.105579330653791
% es.tEy (V/m) @ t=0.06
0
% es.tEz (V/m) @ t=0.06
6.475479240340572
% V (V) @ t=0.06
0.008638520383877631
% es.normE (V/m) @ t=0.08
10.617193742157394
% es.EX (V/m) @ t=0.08
8.227094620955722
% es.EY (V/m) @ t=0.08
-1.2606344173658908
% es.EZ (V/m) @ t=0.08
6.572556844317784
% es.tEX (V/m) @ t=0.08
8.227094620955747
% es.tEY (V/m) @ t=0.08
0
% es.tEZ (V/m) @ t=0.08
6.572556844317779
% es.Ex (V/m) @ t=0.08
8.227094620955722
% es.Ey (V/m) @ t=0.08
-1.2606344173658908
% es.Ez (V/m) @ t=0.08
6.572556844317784
% es.tEx (V/m) @ t=0.08
8.227094620955747
% es.tEy (V/m) @ t=0.08
0
% es.tEz (V/m) @ t=0.08
6.572556844317779
% V (V) @ t=0.08
0.008768025181951366
% es.normE (V/m) @ t=0.1
10.776652174584822
% es.EX (V/m) @ t=0.1
8.350656306531913
% es.EY (V/m) @ t=0.1
-1.2795677416169386
% es.EZ (V/m) @ t=0.1
6.6712694951042
% es.tEX (V/m) @ t=0.1
8.350656306531924
% es.tEY (V/m) @ t=0.1
0
% es.tEZ (V/m) @ t=0.1
6.671269495104215
% es.Ex (V/m) @ t=0.1
8.350656306531913
% es.Ey (V/m) @ t=0.1
-1.2795677416169386
% es.Ez (V/m) @ t=0.1
6.6712694951042
% es.tEx (V/m) @ t=0.1
8.350656306531924
% es.tEy (V/m) @ t=0.1
0
% es.tEz (V/m) @ t=0.1
6.671269495104215
% V (V) @ t=0.1
0.008899710553438557
% es.normE (V/m) @ t=0.12
10.9361106070122
% es.EX (V/m) @ t=0.12
8.474217992108027
% es.EY (V/m) @ t=0.12
-1.2985010658679972
% es.EZ (V/m) @ t=0.12
6.76998214589063
% es.tEX (V/m) @ t=0.12
8.474217992108073
% es.tEY (V/m) @ t=0.12
0
% es.tEZ (V/m) @ t=0.12
6.769982145890629
% es.Ex (V/m) @ t=0.12
8.474217992108027
% es.Ey (V/m) @ t=0.12
-1.2985010658679972
% es.Ez (V/m) @ t=0.12
6.76998214589063
% es.tEx (V/m) @ t=0.12
8.474217992108073
% es.tEy (V/m) @ t=0.12
0
% es.tEz (V/m) @ t=0.12
6.769982145890629
% V (V) @ t=0.12
0.00903139592492575
% es.normE (V/m) @ t=0.14
11.098561337794568
% es.EX (V/m) @ t=0.14
8.600098238972793
% es.EY (V/m) @ t=0.14
-1.3177896796409776
% es.EZ (V/m) @ t=0.14
6.8705473433564315
% es.tEX (V/m) @ t=0.14
8.600098238972823
% es.tEY (V/m) @ t=0.14
0
% es.tEZ (V/m) @ t=0.14
6.870547343356426
% es.Ex (V/m) @ t=0.14
8.600098238972793
% es.Ey (V/m) @ t=0.14
-1.3177896796409776
% es.Ez (V/m) @ t=0.14
6.8705473433564315
% es.tEx (V/m) @ t=0.14
8.600098238972823
% es.tEy (V/m) @ t=0.14
0
% es.tEz (V/m) @ t=0.14
6.870547343356426
% V (V) @ t=0.14
0.009165551801953067
% es.normE (V/m) @ t=0.16
11.272313741869784
% es.EX (V/m) @ t=0.16
8.734735507726564
% es.EY (V/m) @ t=0.16
-1.3384201937276448
% es.EZ (V/m) @ t=0.16
6.978109462534748
% es.tEX (V/m) @ t=0.16
8.734735507726603
% es.tEY (V/m) @ t=0.16
0
% es.tEZ (V/m) @ t=0.16
6.978109462534733
% es.Ex (V/m) @ t=0.16
8.734735507726564
% es.Ey (V/m) @ t=0.16
-1.3384201937276448
% es.Ez (V/m) @ t=0.16
6.978109462534748
% es.tEx (V/m) @ t=0.16
8.734735507726603
% es.tEy (V/m) @ t=0.16
0
% es.tEz (V/m) @ t=0.16
6.978109462534733
% V (V) @ t=0.16
0.009309038582242935
% es.normE (V/m) @ t=0.18
11.446066145945267
% es.EX (V/m) @ t=0.18
8.8693727764804
% es.EY (V/m) @ t=0.18
-1.359050707814303
% es.EZ (V/m) @ t=0.18
7.085671581713053
% es.tEX (V/m) @ t=0.18
8.869372776480411
% es.tEY (V/m) @ t=0.18
0
% es.tEZ (V/m) @ t=0.18
7.085671581713053
% es.Ex (V/m) @ t=0.18
8.8693727764804
% es.Ey (V/m) @ t=0.18
-1.359050707814303
% es.Ez (V/m) @ t=0.18
7.085671581713053
% es.tEx (V/m) @ t=0.18
8.869372776480411
% es.tEy (V/m) @ t=0.18
0
% es.tEz (V/m) @ t=0.18
7.085671581713053
% V (V) @ t=0.18
0.009452525362532806
% es.normE (V/m) @ t=0.2
11.619818550020916
% es.EX (V/m) @ t=0.2
9.004010045234164
% es.EY (V/m) @ t=0.2
-1.3796812219009933
% es.EZ (V/m) @ t=0.2
7.193233700891366
% es.tEX (V/m) @ t=0.2
9.004010045234219
% es.tEY (V/m) @ t=0.2
0
% es.tEZ (V/m) @ t=0.2
7.193233700891361
% es.Ex (V/m) @ t=0.2
9.004010045234164
% es.Ey (V/m) @ t=0.2
-1.3796812219009933
% es.Ez (V/m) @ t=0.2
7.193233700891366
% es.tEx (V/m) @ t=0.2
9.004010045234219
% es.tEy (V/m) @ t=0.2
0
% es.tEz (V/m) @ t=0.2
7.193233700891361
% V (V) @ t=0.2
0.009596012142822677
% es.normE (V/m) @ t=0.22
11.793570954096847
% es.EX (V/m) @ t=0.22
9.13864731398802
% es.EY (V/m) @ t=0.22
-1.400311735987673
% es.EZ (V/m) @ t=0.22
7.300795820069686
% es.tEX (V/m) @ t=0.22
9.13864731398807
% es.tEY (V/m) @ t=0.22
0
% es.tEZ (V/m) @ t=0.22
7.300795820069682
% es.Ex (V/m) @ t=0.22
9.13864731398802
% es.Ey (V/m) @ t=0.22
-1.400311735987673
% es.Ez (V/m) @ t=0.22
7.300795820069686
% es.tEx (V/m) @ t=0.22
9.13864731398807
% es.tEy (V/m) @ t=0.22
0
% es.tEz (V/m) @ t=0.22
7.300795820069682
% V (V) @ t=0.22
0.009739498923112544
% es.normE (V/m) @ t=0.24
11.967323358172884
% es.EX (V/m) @ t=0.24
9.273284582741764
% es.EY (V/m) @ t=0.24
-1.4209422500743258
% es.EZ (V/m) @ t=0.24
7.40835793924801
% es.tEX (V/m) @ t=0.24
9.273284582741793
% es.tEY (V/m) @ t=0.24
0
% es.tEZ (V/m) @ t=0.24
7.4083579392479955
% es.Ex (V/m) @ t=0.24
9.273284582741764
% es.Ey (V/m) @ t=0.24
-1.4209422500743258
% es.Ez (V/m) @ t=0.24
7.40835793924801
% es.tEx (V/m) @ t=0.24
9.273284582741793
% es.tEy (V/m) @ t=0.24
0
% es.tEz (V/m) @ t=0.24
7.4083579392479955
% V (V) @ t=0.24
0.009882985703402411
% es.normE (V/m) @ t=0.26
12.141075762249196
% es.EX (V/m) @ t=0.26
9.40792185149563
% es.EY (V/m) @ t=0.26
-1.4415727641610196
% es.EZ (V/m) @ t=0.26
7.515920058426318
% es.tEX (V/m) @ t=0.26
9.407921851495658
% es.tEY (V/m) @ t=0.26
0
% es.tEZ (V/m) @ t=0.26
7.515920058426332
% es.Ex (V/m) @ t=0.26
9.40792185149563
% es.Ey (V/m) @ t=0.26
-1.4415727641610196
% es.Ez (V/m) @ t=0.26
7.515920058426318
% es.tEx (V/m) @ t=0.26
9.407921851495658
% es.tEy (V/m) @ t=0.26
0
% es.tEz (V/m) @ t=0.26
7.515920058426332
% V (V) @ t=0.26
0.010026472483692279
% es.normE (V/m) @ t=0.28
12.32144301395019
% es.EX (V/m) @ t=0.28
9.547685120685218
% es.EY (V/m) @ t=0.28
-1.4629886967097505
% es.EZ (V/m) @ t=0.28
7.627576731016733
% es.tEX (V/m) @ t=0.28
9.547685120685236
% es.tEY (V/m) @ t=0.28
0
% es.tEZ (V/m) @ t=0.28
7.627576731016717
% es.Ex (V/m) @ t=0.28
9.547685120685218
% es.Ey (V/m) @ t=0.28
-1.4629886967097505
% es.Ez (V/m) @ t=0.28
7.627576731016733
% es.tEx (V/m) @ t=0.28
9.547685120685236
% es.tEy (V/m) @ t=0.28
0
% es.tEz (V/m) @ t=0.28
7.627576731016717
% V (V) @ t=0.28
0.010175423356263
% es.normE (V/m) @ t=0.3
12.510628584461427
% es.EX (V/m) @ t=0.3
9.69428191176825
% es.EY (V/m) @ t=0.3
-1.4854516783805831
% es.EZ (V/m) @ t=0.3
7.74469189326895
% es.tEX (V/m) @ t=0.3
9.6942819117683
% es.tEY (V/m) @ t=0.3
0
% es.tEZ (V/m) @ t=0.3
7.744691893268956
% es.Ex (V/m) @ t=0.3
9.69428191176825
% es.Ey (V/m) @ t=0.3
-1.4854516783805831
% es.Ez (V/m) @ t=0.3
7.74469189326895
% es.tEx (V/m) @ t=0.3
9.6942819117683
% es.tEy (V/m) @ t=0.3
0
% es.tEz (V/m) @ t=0.3
7.744691893268956
% V (V) @ t=0.3
0.010331658464310549
% es.normE (V/m) @ t=0.32
12.6998141549726
% es.EX (V/m) @ t=0.32
9.840878702851205
% es.EY (V/m) @ t=0.32
-1.5079146600514193
% es.EZ (V/m) @ t=0.32
7.861807055521163
% es.tEX (V/m) @ t=0.32
9.840878702851253
% es.tEY (V/m) @ t=0.32
0
% es.tEZ (V/m) @ t=0.32
7.8618070555211785
% es.Ex (V/m) @ t=0.32
9.840878702851205
% es.Ey (V/m) @ t=0.32
-1.5079146600514193
% es.Ez (V/m) @ t=0.32
7.861807055521163
% es.tEx (V/m) @ t=0.32
9.840878702851253
% es.tEy (V/m) @ t=0.32
0
% es.tEz (V/m) @ t=0.32
7.8618070555211785
% V (V) @ t=0.32
0.010487893572358091
% es.normE (V/m) @ t=0.34
12.888999725483863
% es.EX (V/m) @ t=0.34
9.987475493934273
% es.EY (V/m) @ t=0.34
-1.530377641722156
% es.EZ (V/m) @ t=0.34
7.978922217773392
% es.tEX (V/m) @ t=0.34
9.987475493934305
% es.tEY (V/m) @ t=0.34
0
% es.tEZ (V/m) @ t=0.34
7.978922217773409
% es.Ex (V/m) @ t=0.34
9.987475493934273
% es.Ey (V/m) @ t=0.34
-1.530377641722156
% es.Ez (V/m) @ t=0.34
7.978922217773392
% es.tEx (V/m) @ t=0.34
9.987475493934305
% es.tEy (V/m) @ t=0.34
0
% es.tEz (V/m) @ t=0.34
7.978922217773409
% V (V) @ t=0.34
0.010644128680405637
% es.normE (V/m) @ t=0.36
13.07818529599502
% es.EX (V/m) @ t=0.36
10.134072285017199
% es.EY (V/m) @ t=0.36
-1.5528406233930152
% es.EZ (V/m) @ t=0.36
8.096037380025614
% es.tEX (V/m) @ t=0.36
10.134072285017186
% es.tEY (V/m) @ t=0.36
0
% es.tEZ (V/m) @ t=0.36
8.096037380025619
% es.Ex (V/m) @ t=0.36
10.134072285017199
% es.Ey (V/m) @ t=0.36
-1.5528406233930152
% es.Ez (V/m) @ t=0.36
8.096037380025614
% es.tEx (V/m) @ t=0.36
10.134072285017186
% es.tEy (V/m) @ t=0.36
0
% es.tEz (V/m) @ t=0.36
8.096037380025619
% V (V) @ t=0.36
0.010800363788453185
% es.normE (V/m) @ t=0.38
13.267370866506262
% es.EX (V/m) @ t=0.38
10.280669076100224
% es.EY (V/m) @ t=0.38
-1.5753036050638176
% es.EZ (V/m) @ t=0.38
8.213152542277854
% es.tEX (V/m) @ t=0.38
10.280669076100267
% es.tEY (V/m) @ t=0.38
0
% es.tEZ (V/m) @ t=0.38
8.21315254227785
% es.Ex (V/m) @ t=0.38
10.280669076100224
% es.Ey (V/m) @ t=0.38
-1.5753036050638176
% es.Ez (V/m) @ t=0.38
8.213152542277854
% es.tEx (V/m) @ t=0.38
10.280669076100267
% es.tEy (V/m) @ t=0.38
0
% es.tEz (V/m) @ t=0.38
8.21315254227785
% V (V) @ t=0.38
0.010956598896500731
% es.normE (V/m) @ t=0.4
13.456556437017479
% es.EX (V/m) @ t=0.4
10.427265867183243
% es.EY (V/m) @ t=0.4
-1.5977665867346271
% es.EZ (V/m) @ t=0.4
8.330267704530057
% es.tEX (V/m) @ t=0.4
10.427265867183262
% es.tEY (V/m) @ t=0.4
0
% es.tEZ (V/m) @ t=0.4
8.330267704530051
% es.Ex (V/m) @ t=0.4
10.427265867183243
% es.Ey (V/m) @ t=0.4
-1.5977665867346271
% es.Ez (V/m) @ t=0.4
8.330267704530057
% es.tEx (V/m) @ t=0.4
10.427265867183262
% es.tEy (V/m) @ t=0.4
0
% es.tEz (V/m) @ t=0.4
8.330267704530051
% V (V) @ t=0.4
0.011112834004548277
% es.normE (V/m) @ t=0.42
13.656488259127789
% es.EX (V/m) @ t=0.42
10.582189273385705
% es.EY (V/m) @ t=0.42
-1.6215055203069362
% es.EZ (V/m) @ t=0.42
8.454035982159112
% es.tEX (V/m) @ t=0.42
10.582189273385758
% es.tEY (V/m) @ t=0.42
0
% es.tEZ (V/m) @ t=0.42
8.454035982159112
% es.Ex (V/m) @ t=0.42
10.582189273385705
% es.Ey (V/m) @ t=0.42
-1.6215055203069362
% es.Ez (V/m) @ t=0.42
8.454035982159112
% es.tEx (V/m) @ t=0.42
10.582189273385758
% es.tEy (V/m) @ t=0.42
0
% es.tEz (V/m) @ t=0.42
8.454035982159112
% V (V) @ t=0.42
0.011277941232755316
% es.normE (V/m) @ t=0.44
13.862260493279727
% es.EX (V/m) @ t=0.44
10.741638058764323
% es.EY (V/m) @ t=0.44
-1.6459379128757217
% es.EZ (V/m) @ t=0.44
8.581420119216125
% es.tEX (V/m) @ t=0.44
10.74163805876435
% es.tEY (V/m) @ t=0.44
0
% es.tEZ (V/m) @ t=0.44
8.581420119216121
% es.Ex (V/m) @ t=0.44
10.741638058764323
% es.Ey (V/m) @ t=0.44
-1.6459379128757217
% es.Ez (V/m) @ t=0.44
8.581420119216125
% es.tEx (V/m) @ t=0.44
10.74163805876435
% es.tEy (V/m) @ t=0.44
0
% es.tEz (V/m) @ t=0.44
8.581420119216121
% V (V) @ t=0.44
0.01144787031320862
% es.normE (V/m) @ t=0.46
14.068032727431824
% es.EX (V/m) @ t=0.46
10.901086844142904
% es.EY (V/m) @ t=0.46
-1.6703703054445356
% es.EZ (V/m) @ t=0.46
8.708804256273101
% es.tEX (V/m) @ t=0.46
10.901086844142942
% es.tEY (V/m) @ t=0.46
0
% es.tEZ (V/m) @ t=0.46
8.708804256273082
% es.Ex (V/m) @ t=0.46
10.901086844142904
% es.Ey (V/m) @ t=0.46
-1.6703703054445356
% es.Ez (V/m) @ t=0.46
8.708804256273101
% es.tEx (V/m) @ t=0.46
10.901086844142942
% es.tEy (V/m) @ t=0.46
0
% es.tEz (V/m) @ t=0.46
8.708804256273082
% V (V) @ t=0.46
0.011617799393661931
% es.normE (V/m) @ t=0.48
14.27380496158414
% es.EX (V/m) @ t=0.48
11.060535629521492
% es.EY (V/m) @ t=0.48
-1.6948026980133424
% es.EZ (V/m) @ t=0.48
8.836188393330104
% es.tEX (V/m) @ t=0.48
11.060535629521503
% es.tEY (V/m) @ t=0.48
0
% es.tEZ (V/m) @ t=0.48
8.8361883933301
% es.Ex (V/m) @ t=0.48
11.060535629521492
% es.Ey (V/m) @ t=0.48
-1.6948026980133424
% es.Ez (V/m) @ t=0.48
8.836188393330104
% es.tEx (V/m) @ t=0.48
11.060535629521503
% es.tEy (V/m) @ t=0.48
0
% es.tEz (V/m) @ t=0.48
8.8361883933301
% V (V) @ t=0.48
0.011787728474115234
% es.normE (V/m) @ t=0.5
14.479577195736663
% es.EX (V/m) @ t=0.5
11.21998441490009
% es.EY (V/m) @ t=0.5
-1.7192350905820746
% es.EZ (V/m) @ t=0.5
8.963572530387117
% es.tEX (V/m) @ t=0.5
11.219984414900125
% es.tEY (V/m) @ t=0.5
0
% es.tEZ (V/m) @ t=0.5
8.963572530387118
% es.Ex (V/m) @ t=0.5
11.21998441490009
% es.Ey (V/m) @ t=0.5
-1.7192350905820746
% es.Ez (V/m) @ t=0.5
8.963572530387117
% es.tEx (V/m) @ t=0.5
11.219984414900125
% es.tEy (V/m) @ t=0.5
0
% es.tEz (V/m) @ t=0.5
8.963572530387118
% V (V) @ t=0.5
0.01195765755456854
% es.normE (V/m) @ t=0.52
14.685349429889335
% es.EX (V/m) @ t=0.52
11.379433200278665
% es.EY (V/m) @ t=0.52
-1.7436674831508707
% es.EZ (V/m) @ t=0.52
9.090956667444097
% es.tEX (V/m) @ t=0.52
11.379433200278719
% es.tEY (V/m) @ t=0.52
0
% es.tEZ (V/m) @ t=0.52
9.090956667444086
% es.Ex (V/m) @ t=0.52
11.379433200278665
% es.Ey (V/m) @ t=0.52
-1.7436674831508707
% es.Ez (V/m) @ t=0.52
9.090956667444097
% es.tEx (V/m) @ t=0.52
11.379433200278719
% es.tEy (V/m) @ t=0.52
0
% es.tEz (V/m) @ t=0.52
9.090956667444086
% V (V) @ t=0.52
0.012127586635021845
% es.normE (V/m) @ t=0.54
14.891121664042256
% es.EX (V/m) @ t=0.54
11.538881985657303
% es.EY (V/m) @ t=0.54
-1.768099875719665
% es.EZ (V/m) @ t=0.54
9.218340804501105
% es.tEX (V/m) @ t=0.54
11.538881985657365
% es.tEY (V/m) @ t=0.54
0
% es.tEZ (V/m) @ t=0.54
9.218340804501096
% es.Ex (V/m) @ t=0.54
11.538881985657303
% es.Ey (V/m) @ t=0.54
-1.768099875719665
% es.Ez (V/m) @ t=0.54
9.218340804501105
% es.tEx (V/m) @ t=0.54
11.538881985657365
% es.tEy (V/m) @ t=0.54
0
% es.tEz (V/m) @ t=0.54
9.218340804501096
% V (V) @ t=0.54
0.012297515715475153
% es.normE (V/m) @ t=0.56
15.103757625977682
% es.EX (V/m) @ t=0.56
11.70365113681833
% es.EY (V/m) @ t=0.56
-1.7933472570107387
% es.EZ (V/m) @ t=0.56
9.349971486473404
% es.tEX (V/m) @ t=0.56
11.703651136818365
% es.tEY (V/m) @ t=0.56
0
% es.tEZ (V/m) @ t=0.56
9.349971486473411
% es.Ex (V/m) @ t=0.56
11.70365113681833
% es.Ey (V/m) @ t=0.56
-1.7933472570107387
% es.Ez (V/m) @ t=0.56
9.349971486473404
% es.tEx (V/m) @ t=0.56
11.703651136818365
% es.tEy (V/m) @ t=0.56
0
% es.tEz (V/m) @ t=0.56
9.349971486473411
% V (V) @ t=0.56
0.01247312217915486
% es.normE (V/m) @ t=0.58
15.319377482368218
% es.EX (V/m) @ t=0.58
11.87073323080802
% es.EY (V/m) @ t=0.58
-1.8189489414451625
% es.EZ (V/m) @ t=0.58
9.483448285049251
% es.tEX (V/m) @ t=0.58
11.870733230808098
% es.tEY (V/m) @ t=0.58
0
% es.tEZ (V/m) @ t=0.58
9.48344828504925
% es.Ex (V/m) @ t=0.58
11.87073323080802
% es.Ey (V/m) @ t=0.58
-1.8189489414451625
% es.Ez (V/m) @ t=0.58
9.483448285049251
% es.tEx (V/m) @ t=0.58
11.870733230808098
% es.tEy (V/m) @ t=0.58
0
% es.tEz (V/m) @ t=0.58
9.48344828504925
% V (V) @ t=0.58
0.01265119679321275
% es.normE (V/m) @ t=0.6
15.537067244810146
% es.EX (V/m) @ t=0.6
12.03941979654642
% es.EY (V/m) @ t=0.6
-1.844796403413337
% es.EZ (V/m) @ t=0.6
9.618205721390426
% es.tEX (V/m) @ t=0.6
12.039419796546445
% es.tEY (V/m) @ t=0.6
0
% es.tEZ (V/m) @ t=0.6
9.61820572139041
% es.Ex (V/m) @ t=0.6
12.03941979654642
% es.Ey (V/m) @ t=0.6
-1.844796403413337
% es.Ez (V/m) @ t=0.6
9.618205721390426
% es.tEx (V/m) @ t=0.6
12.039419796546445
% es.tEy (V/m) @ t=0.6
0
% es.tEz (V/m) @ t=0.6
9.61820572139041
% V (V) @ t=0.6
0.012830983545376626
% es.normE (V/m) @ t=0.62
15.75682691330482
% es.EX (V/m) @ t=0.62
12.209710834033633
% es.EY (V/m) @ t=0.62
-1.8708896429152606
% es.EZ (V/m) @ t=0.62
9.754243795497022
% es.tEX (V/m) @ t=0.62
12.209710834033691
% es.tEY (V/m) @ t=0.62
0
% es.tEZ (V/m) @ t=0.62
9.754243795497008
% es.Ex (V/m) @ t=0.62
12.209710834033633
% es.Ey (V/m) @ t=0.62
-1.8708896429152606
% es.Ez (V/m) @ t=0.62
9.754243795497022
% es.tEx (V/m) @ t=0.62
12.209710834033691
% es.tEy (V/m) @ t=0.62
0
% es.tEz (V/m) @ t=0.62
9.754243795497008
% V (V) @ t=0.62
0.013012482435646478
% es.normE (V/m) @ t=0.64
15.978656487853614
% es.EX (V/m) @ t=0.64
12.381606343269645
% es.EY (V/m) @ t=0.64
-1.8972286599508141
% es.EZ (V/m) @ t=0.64
9.89156250736896
% es.tEX (V/m) @ t=0.64
12.381606343269723
% es.tEY (V/m) @ t=0.64
0
% es.tEZ (V/m) @ t=0.64
9.891562507368958
% es.Ex (V/m) @ t=0.64
12.381606343269645
% es.Ey (V/m) @ t=0.64
-1.8972286599508141
% es.Ez (V/m) @ t=0.64
9.89156250736896
% es.tEx (V/m) @ t=0.64
12.381606343269723
% es.tEy (V/m) @ t=0.64
0
% es.tEz (V/m) @ t=0.64
9.891562507368958
% V (V) @ t=0.64
0.013195693464022317
% es.normE (V/m) @ t=0.66
16.202555968458306
% es.EX (V/m) @ t=0.66
12.555106324254547
% es.EY (V/m) @ t=0.66
-1.9238134545201095
% es.EZ (V/m) @ t=0.66
10.030161857006341
% es.tEX (V/m) @ t=0.66
12.555106324254599
% es.tEY (V/m) @ t=0.66
0
% es.tEZ (V/m) @ t=0.66
10.030161857006332
% es.Ex (V/m) @ t=0.66
12.555106324254547
% es.Ey (V/m) @ t=0.66
-1.9238134545201095
% es.Ez (V/m) @ t=0.66
10.030161857006341
% es.tEx (V/m) @ t=0.66
12.555106324254599
% es.tEy (V/m) @ t=0.66
0
% es.tEz (V/m) @ t=0.66
10.030161857006332
% V (V) @ t=0.66
0.013380616630504135
% es.normE (V/m) @ t=0.68
16.42852535512059
% es.EX (V/m) @ t=0.68
12.730210776988258
% es.EY (V/m) @ t=0.68
-1.9506440266231753
% es.EZ (V/m) @ t=0.68
10.170041844409056
% es.tEX (V/m) @ t=0.68
12.730210776988319
% es.tEY (V/m) @ t=0.68
0
% es.tEZ (V/m) @ t=0.68
10.170041844409056
% es.Ex (V/m) @ t=0.68
12.730210776988258
% es.Ey (V/m) @ t=0.68
-1.9506440266231753
% es.Ez (V/m) @ t=0.68
10.170041844409056
% es.tEx (V/m) @ t=0.68
12.730210776988319
% es.tEy (V/m) @ t=0.68
0
% es.tEz (V/m) @ t=0.68
10.170041844409056
% V (V) @ t=0.68
0.01356725193509194
% es.normE (V/m) @ t=0.7
16.656564647842522
% es.EX (V/m) @ t=0.7
12.906919701470787
% es.EY (V/m) @ t=0.7
-1.9777203762599296
% es.EZ (V/m) @ t=0.7
10.311202469577179
% es.tEX (V/m) @ t=0.7
12.90691970147085
% es.tEY (V/m) @ t=0.7
0
% es.tEZ (V/m) @ t=0.7
10.311202469577188
% es.Ex (V/m) @ t=0.7
12.906919701470787
% es.Ey (V/m) @ t=0.7
-1.9777203762599296
% es.Ez (V/m) @ t=0.7
10.311202469577179
% es.tEx (V/m) @ t=0.7
12.90691970147085
% es.tEy (V/m) @ t=0.7
0
% es.tEz (V/m) @ t=0.7
10.311202469577188
% V (V) @ t=0.7
0.013755599377785723
% es.normE (V/m) @ t=0.72
16.886673846626188
% es.EX (V/m) @ t=0.72
13.085233097702083
% es.EY (V/m) @ t=0.72
-2.0050425034304222
% es.EZ (V/m) @ t=0.72
10.453643732510667
% es.tEX (V/m) @ t=0.72
13.085233097702137
% es.tEY (V/m) @ t=0.72
0
% es.tEZ (V/m) @ t=0.72
10.453643732510647
% es.Ex (V/m) @ t=0.72
13.085233097702083
% es.Ey (V/m) @ t=0.72
-2.0050425034304222
% es.Ez (V/m) @ t=0.72
10.453643732510667
% es.tEx (V/m) @ t=0.72
13.085233097702137
% es.tEy (V/m) @ t=0.72
0
% es.tEz (V/m) @ t=0.72
10.453643732510647
% V (V) @ t=0.72
0.013945658958585492
% es.normE (V/m) @ t=0.74
17.11885295147404
% es.EX (V/m) @ t=0.74
13.265150965682317
% es.EY (V/m) @ t=0.74
-2.0326104081346337
% es.EZ (V/m) @ t=0.74
10.597365633209545
% es.tEX (V/m) @ t=0.74
13.265150965682327
% es.tEY (V/m) @ t=0.74
0
% es.tEZ (V/m) @ t=0.74
10.597365633209542
% es.Ex (V/m) @ t=0.74
13.265150965682317
% es.Ey (V/m) @ t=0.74
-2.0326104081346337
% es.Ez (V/m) @ t=0.74
10.597365633209545
% es.tEx (V/m) @ t=0.74
13.265150965682327
% es.tEy (V/m) @ t=0.74
0
% es.tEz (V/m) @ t=0.74
10.597365633209542
% V (V) @ t=0.74
0.014137430677491243
% es.normE (V/m) @ t=0.76
17.35310196238828
% es.EX (V/m) @ t=0.76
13.446673305411204
% es.EY (V/m) @ t=0.76
-2.0604240903725533
% es.EZ (V/m) @ t=0.76
10.742368171673817
% es.tEX (V/m) @ t=0.76
13.446673305411244
% es.tEY (V/m) @ t=0.76
0
% es.tEZ (V/m) @ t=0.76
10.74236817167383
% es.Ex (V/m) @ t=0.76
13.446673305411204
% es.Ey (V/m) @ t=0.76
-2.0604240903725533
% es.Ez (V/m) @ t=0.76
10.742368171673817
% es.tEx (V/m) @ t=0.76
13.446673305411244
% es.tEy (V/m) @ t=0.76
0
% es.tEz (V/m) @ t=0.76
10.74236817167383
% V (V) @ t=0.76
0.014330914534502977
% es.normE (V/m) @ t=0.78
17.589420879371694
% es.EX (V/m) @ t=0.78
13.62980011688905
% es.EY (V/m) @ t=0.78
-2.088483550144236
% es.EZ (V/m) @ t=0.78
10.888651347903446
% es.tEX (V/m) @ t=0.78
13.629800116889086
% es.tEY (V/m) @ t=0.78
0
% es.tEZ (V/m) @ t=0.78
10.888651347903457
% es.Ex (V/m) @ t=0.78
13.62980011688905
% es.Ey (V/m) @ t=0.78
-2.088483550144236
% es.Ez (V/m) @ t=0.78
10.888651347903446
% es.tEx (V/m) @ t=0.78
13.629800116889086
% es.tEy (V/m) @ t=0.78
0
% es.tEz (V/m) @ t=0.78
10.888651347903457
% V (V) @ t=0.78
0.014526110529620695
% es.normE (V/m) @ t=0.8
17.82780970242684
% es.EX (V/m) @ t=0.8
13.81453140011568
% es.EY (V/m) @ t=0.8
-2.1167887874496074
% es.EZ (V/m) @ t=0.8
11.036215161898504
% es.tEX (V/m) @ t=0.8
13.814531400115747
% es.tEY (V/m) @ t=0.8
0
% es.tEZ (V/m) @ t=0.8
11.036215161898506
% es.Ex (V/m) @ t=0.8
13.81453140011568
% es.Ey (V/m) @ t=0.8
-2.1167887874496074
% es.Ez (V/m) @ t=0.8
11.036215161898504
% es.tEx (V/m) @ t=0.8
13.814531400115747
% es.tEy (V/m) @ t=0.8
0
% es.tEz (V/m) @ t=0.8
11.036215161898506
% V (V) @ t=0.8
0.014723018662844393
% es.normE (V/m) @ t=0.82
18.069496339856293
% es.EX (V/m) @ t=0.82
14.001815737711325
% es.EY (V/m) @ t=0.82
-2.1454855608403314
% es.EZ (V/m) @ t=0.82
11.18582373810957
% es.tEX (V/m) @ t=0.82
14.001815737711382
% es.tEY (V/m) @ t=0.82
0
% es.tEZ (V/m) @ t=0.82
11.185823738109562
% es.Ex (V/m) @ t=0.82
14.001815737711325
% es.Ey (V/m) @ t=0.82
-2.1454855608403314
% es.Ez (V/m) @ t=0.82
11.18582373810957
% es.tEx (V/m) @ t=0.82
14.001815737711382
% es.tEy (V/m) @ t=0.82
0
% es.tEz (V/m) @ t=0.82
11.185823738109562
% V (V) @ t=0.82
0.014922638082683489
% es.normE (V/m) @ t=0.84
18.316419849648057
% es.EX (V/m) @ t=0.84
14.193151089022521
% es.EY (V/m) @ t=0.84
-2.1748040457172273
% es.EZ (V/m) @ t=0.84
11.338683747772633
% es.tEX (V/m) @ t=0.84
14.193151089022567
% es.tEY (V/m) @ t=0.84
0
% es.tEZ (V/m) @ t=0.84
11.338683747772642
% es.Ex (V/m) @ t=0.84
14.193151089022521
% es.Ey (V/m) @ t=0.84
-2.1748040457172273
% es.Ez (V/m) @ t=0.84
11.338683747772633
% es.tEx (V/m) @ t=0.84
14.193151089022567
% es.tEy (V/m) @ t=0.84
0
% es.tEz (V/m) @ t=0.84
11.338683747772642
% V (V) @ t=0.84
0.015126546599880277
% es.normE (V/m) @ t=0.86
18.56599257282602
% es.EX (V/m) @ t=0.86
14.386538438057034
% es.EY (V/m) @ t=0.86
-2.2044370746606816
% es.EZ (V/m) @ t=0.86
11.493184896787465
% es.tEX (V/m) @ t=0.86
14.386538438057109
% es.tEY (V/m) @ t=0.86
0
% es.tEZ (V/m) @ t=0.86
11.49318489678746
% es.Ex (V/m) @ t=0.86
14.386538438057034
% es.Ey (V/m) @ t=0.86
-2.2044370746606816
% es.Ez (V/m) @ t=0.86
11.493184896787465
% es.tEx (V/m) @ t=0.86
14.386538438057109
% es.tEy (V/m) @ t=0.86
0
% es.tEz (V/m) @ t=0.86
11.49318489678746
% V (V) @ t=0.86
0.015332638637328234
% es.normE (V/m) @ t=0.88
18.81821450939251
% es.EX (V/m) @ t=0.88
14.581977784814901
% es.EY (V/m) @ t=0.88
-2.234384647670762
% es.EZ (V/m) @ t=0.88
11.649327185154142
% es.tEX (V/m) @ t=0.88
14.58197778481498
% es.tEY (V/m) @ t=0.88
0
% es.tEZ (V/m) @ t=0.88
11.64932718515413
% es.Ex (V/m) @ t=0.88
14.581977784814901
% es.Ey (V/m) @ t=0.88
-2.234384647670762
% es.Ez (V/m) @ t=0.88
11.649327185154142
% es.tEx (V/m) @ t=0.88
14.58197778481498
% es.tEy (V/m) @ t=0.88
0
% es.tEz (V/m) @ t=0.88
11.64932718515413
% V (V) @ t=0.88
0.015540914195027362
% es.normE (V/m) @ t=0.9
19.073085659350323
% es.EX (V/m) @ t=0.9
14.779469129296283
% es.EY (V/m) @ t=0.9
-2.2646467647472086
% es.EZ (V/m) @ t=0.9
11.807110612872659
% es.tEX (V/m) @ t=0.9
14.779469129296348
% es.tEY (V/m) @ t=0.9
0
% es.tEZ (V/m) @ t=0.9
11.807110612872625
% es.Ex (V/m) @ t=0.9
14.779469129296283
% es.Ey (V/m) @ t=0.9
-2.2646467647472086
% es.Ez (V/m) @ t=0.9
11.807110612872659
% es.tEx (V/m) @ t=0.9
14.779469129296348
% es.tEy (V/m) @ t=0.9
0
% es.tEz (V/m) @ t=0.9
11.807110612872625
% V (V) @ t=0.9
0.01575137327297766
% es.normE (V/m) @ t=0.92
19.330606022702483
% es.EX (V/m) @ t=0.92
14.979012471501004
% es.EY (V/m) @ t=0.92
-2.2952234258902884
% es.EZ (V/m) @ t=0.92
11.96653517994298
% es.tEX (V/m) @ t=0.92
14.979012471501076
% es.tEY (V/m) @ t=0.92
0
% es.tEZ (V/m) @ t=0.92
11.96653517994299
% es.Ex (V/m) @ t=0.92
14.979012471501004
% es.Ey (V/m) @ t=0.92
-2.2952234258902884
% es.Ez (V/m) @ t=0.92
11.96653517994298
% es.tEx (V/m) @ t=0.92
14.979012471501076
% es.tEy (V/m) @ t=0.92
0
% es.tEz (V/m) @ t=0.92
11.96653517994299
% V (V) @ t=0.92
0.01596401587117913
% es.normE (V/m) @ t=0.94
19.590775599452662
% es.EX (V/m) @ t=0.94
15.180607811429141
% es.EY (V/m) @ t=0.94
-2.3261146310998733
% es.EZ (V/m) @ t=0.94
12.127600886365206
% es.tEX (V/m) @ t=0.94
15.180607811429185
% es.tEY (V/m) @ t=0.94
0
% es.tEZ (V/m) @ t=0.94
12.127600886365208
% es.Ex (V/m) @ t=0.94
15.180607811429141
% es.Ey (V/m) @ t=0.94
-2.3261146310998733
% es.Ez (V/m) @ t=0.94
12.127600886365206
% es.tEx (V/m) @ t=0.94
15.180607811429185
% es.tEy (V/m) @ t=0.94
0
% es.tEz (V/m) @ t=0.94
12.127600886365208
% V (V) @ t=0.94
0.01617884198963177
% es.normE (V/m) @ t=0.96
19.85359438960466
% es.EX (V/m) @ t=0.96
15.38425514908062
% es.EY (V/m) @ t=0.96
-2.3573203803761125
% es.EZ (V/m) @ t=0.96
12.290307732139198
% es.tEX (V/m) @ t=0.96
15.38425514908068
% es.tEY (V/m) @ t=0.96
0
% es.tEZ (V/m) @ t=0.96
12.29030773213918
% es.Ex (V/m) @ t=0.96
15.38425514908062
% es.Ey (V/m) @ t=0.96
-2.3573203803761125
% es.Ez (V/m) @ t=0.96
12.290307732139198
% es.tEx (V/m) @ t=0.96
15.38425514908068
% es.tEy (V/m) @ t=0.96
0
% es.tEz (V/m) @ t=0.96
12.29030773213918
% V (V) @ t=0.96
0.016395851628335584
% es.normE (V/m) @ t=0.98
20.119062393162864
% es.EX (V/m) @ t=0.98
15.58995448445554
% es.EY (V/m) @ t=0.98
-2.388840673718761
% es.EZ (V/m) @ t=0.98
12.454655717265046
% es.tEX (V/m) @ t=0.98
15.589954484455532
% es.tEY (V/m) @ t=0.98
0
% es.tEZ (V/m) @ t=0.98
12.454655717265005
% es.Ex (V/m) @ t=0.98
15.58995448445554
% es.Ey (V/m) @ t=0.98
-2.388840673718761
% es.Ez (V/m) @ t=0.98
12.454655717265046
% es.tEx (V/m) @ t=0.98
15.589954484455532
% es.tEy (V/m) @ t=0.98
0
% es.tEz (V/m) @ t=0.98
12.454655717265005
% V (V) @ t=0.98
0.01661504478729056
% es.normE (V/m) @ t=1
20.387179610131803
% es.EX (V/m) @ t=1
15.797705817553759
% es.EY (V/m) @ t=1
-2.4206755111280067
% es.EZ (V/m) @ t=1
12.62064484174276
% es.tEX (V/m) @ t=1
15.797705817553826
% es.tEY (V/m) @ t=1
0
% es.tEZ (V/m) @ t=1
12.62064484174274
% es.Ex (V/m) @ t=1
15.797705817553759
% es.Ey (V/m) @ t=1
-2.4206755111280067
% es.Ez (V/m) @ t=1
12.62064484174276
% es.tEx (V/m) @ t=1
15.797705817553826
% es.tEy (V/m) @ t=1
0
% es.tEz (V/m) @ t=1
12.62064484174274
% V (V) @ t=1
0.016836421466496714
% es.normE (V/m) @ t=1.02
20.657946040516485
% es.EX (V/m) @ t=1.02
16.007509148375505
% es.EY (V/m) @ t=1.02
-2.452824892603779
% es.EZ (V/m) @ t=1.02
12.788275105572266
% es.tEX (V/m) @ t=1.02
16.00750914837556
% es.tEY (V/m) @ t=1.02
0
% es.tEZ (V/m) @ t=1.02
12.78827510557226
% es.Ex (V/m) @ t=1.02
16.007509148375505
% es.Ey (V/m) @ t=1.02
-2.452824892603779
% es.Ez (V/m) @ t=1.02
12.788275105572266
% es.tEx (V/m) @ t=1.02
16.00750914837556
% es.tEy (V/m) @ t=1.02
0
% es.tEz (V/m) @ t=1.02
12.78827510557226
% V (V) @ t=1.02
0.017059981665954037
% es.normE (V/m) @ t=1.04
20.93136168432191
% es.EX (V/m) @ t=1.04
16.21936447692052
% es.EY (V/m) @ t=1.04
-2.485288818146117
% es.EZ (V/m) @ t=1.04
12.957546508753609
% es.tEX (V/m) @ t=1.04
16.219364476920596
% es.tEY (V/m) @ t=1.04
0
% es.tEZ (V/m) @ t=1.04
12.957546508753603
% es.Ex (V/m) @ t=1.04
16.21936447692052
% es.Ey (V/m) @ t=1.04
-2.485288818146117
% es.Ez (V/m) @ t=1.04
12.957546508753609
% es.tEx (V/m) @ t=1.04
16.219364476920596
% es.tEy (V/m) @ t=1.04
0
% es.tEz (V/m) @ t=1.04
12.957546508753603
% V (V) @ t=1.04
0.01728572538566253
% es.normE (V/m) @ t=1.06
21.207426541553637
% es.EX (V/m) @ t=1.06
16.433271803189022