% Model:              1 neuron.mph
% Version:            COMSOL 6.0.0.405
% Date:               Mar 16 2023, 18:52
% Dimension:          0
% Nodes:              14017
% Expressions:        14017
% Description:        Electric field norm, Electric field, X component, Electric field, Y component, Electric field, Z component, Tangential electric field, X component, Tangential electric field, Y component, Tangential electric field, Z component, Electric field, x component, Electric field, y component, Electric field, z component, Tangential electric field, x component, Tangential electric field, y component, Tangential electric field, z component, Electric potential
% Length unit:        mm
% x
1.33
% y
12.2
% z
1.33
% es.normE (V/m) @ t=0
11.842411531303366
% es.EX (V/m) @ t=0
9.176496245796995
% es.EY (V/m) @ t=0
-1.4061107330898324
% es.EZ (V/m) @ t=0
7.331026164543503
% es.tEX (V/m) @ t=0
9.176496245797008
% es.tEY (V/m) @ t=0
0
% es.tEZ (V/m) @ t=0
7.331026164543488
% es.Ex (V/m) @ t=0
9.176496245796995
% es.Ey (V/m) @ t=0
-1.4061107330898324
% es.Ez (V/m) @ t=0
7.331026164543503
% es.tEx (V/m) @ t=0
9.176496245797008
% es.tEy (V/m) @ t=0
0
% es.tEz (V/m) @ t=0
7.331026164543488
% V (V) @ t=0
0.009779851023521807
% es.normE (V/m) @ t=0.02
10.285228020172564
% es.EX (V/m) @ t=0.02
7.969859461373245
% es.EY (V/m) @ t=0.02
-1.2212182447354518
% es.EZ (V/m) @ t=0.02
6.367054260772835
% es.tEX (V/m) @ t=0.02
7.969859461373243
% es.tEY (V/m) @ t=0.02
0
% es.tEZ (V/m) @ t=0.02
6.367054260772829
% es.Ex (V/m) @ t=0.02
7.969859461373245
% es.Ey (V/m) @ t=0.02
-1.2212182447354518
% es.Ez (V/m) @ t=0.02
6.367054260772835
% es.tEx (V/m) @ t=0.02
7.969859461373243
% es.tEy (V/m) @ t=0.02
0
% es.tEz (V/m) @ t=0.02
6.367054260772829
% V (V) @ t=0.02
0.008493877734354206
% es.normE (V/m) @ t=0.04
10.43773662252825
% es.EX (V/m) @ t=0.04
8.088035814533798
% es.EY (V/m) @ t=0.04
-1.2393262879938192
% es.EZ (V/m) @ t=0.04
6.461464671398981
% es.tEX (V/m) @ t=0.04
8.08803581453383
% es.tEY (V/m) @ t=0.04
0
% es.tEZ (V/m) @ t=0.04
6.461464671398975
% es.Ex (V/m) @ t=0.04
8.088035814533798
% es.Ey (V/m) @ t=0.04
-1.2393262879938192
% es.Ez (V/m) @ t=0.04
6.461464671398981
% es.tEx (V/m) @ t=0.04
8.08803581453383
% es.tEy (V/m) @ t=0.04
0
% es.tEz (V/m) @ t=0.04
6.461464671398975
% V (V) @ t=0.04
0.008619823926276563
% es.normE (V/m) @ t=0.06
10.59252707047367
% es.EX (V/m) @ t=0.06
8.207980555257775
% es.EY (V/m) @ t=0.06
-1.2577054156044554
% es.EZ (V/m) @ t=0.06
6.557287326918862
% es.tEX (V/m) @ t=0.06
8.20798055525783
% es.tEY (V/m) @ t=0.06
0
% es.tEZ (V/m) @ t=0.06
6.557287326918862
% es.Ex (V/m) @ t=0.06
8.207980555257775
% es.Ey (V/m) @ t=0.06
-1.2577054156044554
% es.Ez (V/m) @ t=0.06
6.557287326918862
% es.tEx (V/m) @ t=0.06
8.20798055525783
% es.tEy (V/m) @ t=0.06
0
% es.tEz (V/m) @ t=0.06
6.557287326918862
% V (V) @ t=0.06
0.00874765519848582
% es.normE (V/m) @ t=0.08
10.751283847443318
% es.EX (V/m) @ t=0.08
8.330998676895067
% es.EY (V/m) @ t=0.08
-1.2765554423092027
% es.EZ (V/m) @ t=0.08
6.655565427436584
% es.tEX (V/m) @ t=0.08
8.330998676895083
% es.tEY (V/m) @ t=0.08
0
% es.tEZ (V/m) @ t=0.08
6.655565427436574
% es.Ex (V/m) @ t=0.08
8.330998676895067
% es.Ey (V/m) @ t=0.08
-1.2765554423092027
% es.Ez (V/m) @ t=0.08
6.655565427436584
% es.tEx (V/m) @ t=0.08
8.330998676895083
% es.tEy (V/m) @ t=0.08
0
% es.tEz (V/m) @ t=0.08
6.655565427436574
% V (V) @ t=0.08
0.008878761804373223
% es.normE (V/m) @ t=0.1
10.912769782177762
% es.EX (V/m) @ t=0.1
8.45613153519
% es.EY (V/m) @ t=0.1
-1.2957294859856443
% es.EZ (V/m) @ t=0.1
6.7555330743184365
% es.tEX (V/m) @ t=0.1
8.456131535190018
% es.tEY (V/m) @ t=0.1
0
% es.tEZ (V/m) @ t=0.1
6.755533074318443
% es.Ex (V/m) @ t=0.1
8.45613153519
% es.Ey (V/m) @ t=0.1
-1.2957294859856443
% es.Ez (V/m) @ t=0.1
6.7555330743184365
% es.tEx (V/m) @ t=0.1
8.456131535190018
% es.tEy (V/m) @ t=0.1
0
% es.tEz (V/m) @ t=0.1
6.755533074318443
% V (V) @ t=0.1
0.00901212210688683
% es.normE (V/m) @ t=0.12
11.074255716912154
% es.EX (V/m) @ t=0.12
8.581264393484862
% es.EY (V/m) @ t=0.12
-1.3149035296620752
% es.EZ (V/m) @ t=0.12
6.855500721200297
% es.tEX (V/m) @ t=0.12
8.581264393484894
% es.tEY (V/m) @ t=0.12
0
% es.tEZ (V/m) @ t=0.12
6.855500721200298
% es.Ex (V/m) @ t=0.12
8.581264393484862
% es.Ey (V/m) @ t=0.12
-1.3149035296620752
% es.Ez (V/m) @ t=0.12
6.855500721200297
% es.tEx (V/m) @ t=0.12
8.581264393484894
% es.tEy (V/m) @ t=0.12
0
% es.tEz (V/m) @ t=0.12
6.855500721200298
% V (V) @ t=0.12
0.009145482409400434
% es.normE (V/m) @ t=0.14
11.238564828294596
% es.EX (V/m) @ t=0.14
8.70858441890865
% es.EY (V/m) @ t=0.14
-1.334412469699494
% es.EZ (V/m) @ t=0.14
6.957216742714235
% es.tEX (V/m) @ t=0.14
8.708584418908671
% es.tEY (V/m) @ t=0.14
0
% es.tEZ (V/m) @ t=0.14
6.9572167427142375
% es.Ex (V/m) @ t=0.14
8.70858441890865
% es.Ey (V/m) @ t=0.14
-1.334412469699494
% es.Ez (V/m) @ t=0.14
6.957216742714235
% es.tEx (V/m) @ t=0.14
8.708584418908671
% es.tEy (V/m) @ t=0.14
0
% es.tEz (V/m) @ t=0.14
6.9572167427142375
% V (V) @ t=0.14
0.00928117279791201
% es.normE (V/m) @ t=0.16
11.414548593823902
% es.EX (V/m) @ t=0.16
8.844949014676757
% es.EY (V/m) @ t=0.16
-1.3553063033078239
% es.EZ (V/m) @ t=0.16
7.0661628003508845
% es.tEX (V/m) @ t=0.16
8.844949014676772
% es.tEY (V/m) @ t=0.16
0
% es.tEZ (V/m) @ t=0.16
7.0661628003509005
% es.Ex (V/m) @ t=0.16
8.844949014676757
% es.Ey (V/m) @ t=0.16
-1.3553063033078239
% es.Ez (V/m) @ t=0.16
7.0661628003508845
% es.tEx (V/m) @ t=0.16
8.844949014676772
% es.tEy (V/m) @ t=0.16
0
% es.tEz (V/m) @ t=0.16
7.0661628003509005
% V (V) @ t=0.16
0.009426498767737634
% es.normE (V/m) @ t=0.18
11.590532359355885
% es.EX (V/m) @ t=0.18
8.981313610444907
% es.EY (V/m) @ t=0.18
-1.3762001369161432
% es.EZ (V/m) @ t=0.18
7.175108857987571
% es.tEX (V/m) @ t=0.18
8.981313610444912
% es.tEY (V/m) @ t=0.18
0
% es.tEZ (V/m) @ t=0.18
7.175108857987565
% es.Ex (V/m) @ t=0.18
8.981313610444907
% es.Ey (V/m) @ t=0.18
-1.3762001369161432
% es.Ez (V/m) @ t=0.18
7.175108857987571
% es.tEx (V/m) @ t=0.18
8.981313610444912
% es.tEy (V/m) @ t=0.18
0
% es.tEz (V/m) @ t=0.18
7.175108857987565
% V (V) @ t=0.18
0.009571824737563255
% es.normE (V/m) @ t=0.2
11.76651612489038
% es.EX (V/m) @ t=0.2
9.117678206213085
% es.EY (V/m) @ t=0.2
-1.3970939705244216
% es.EZ (V/m) @ t=0.2
7.284054915624239
% es.tEX (V/m) @ t=0.2
9.117678206213112
% es.tEY (V/m) @ t=0.2
0
% es.tEZ (V/m) @ t=0.2
7.284054915624251
% es.Ex (V/m) @ t=0.2
9.117678206213085
% es.Ey (V/m) @ t=0.2
-1.3970939705244216
% es.Ez (V/m) @ t=0.2
7.284054915624239
% es.tEx (V/m) @ t=0.2
9.117678206213112
% es.tEy (V/m) @ t=0.2
0
% es.tEz (V/m) @ t=0.2
7.284054915624251
% V (V) @ t=0.2
0.00971715070738888
% es.normE (V/m) @ t=0.22
11.94249989042724
% es.EX (V/m) @ t=0.22
9.254042801981207
% es.EY (V/m) @ t=0.22
-1.4179878041327285
% es.EZ (V/m) @ t=0.22
7.393000973260917
% es.tEX (V/m) @ t=0.22
9.25404280198124
% es.tEY (V/m) @ t=0.22
0
% es.tEZ (V/m) @ t=0.22
7.393000973260907
% es.Ex (V/m) @ t=0.22
9.254042801981207
% es.Ey (V/m) @ t=0.22
-1.4179878041327285
% es.Ez (V/m) @ t=0.22
7.393000973260917
% es.tEx (V/m) @ t=0.22
9.25404280198124
% es.tEy (V/m) @ t=0.22
0
% es.tEz (V/m) @ t=0.22
7.393000973260907
% V (V) @ t=0.22
0.0098624766772145
% es.normE (V/m) @ t=0.24
12.118483655966344
% es.EX (V/m) @ t=0.24
9.390407397749284
% es.EY (V/m) @ t=0.24
-1.4388816377410798
% es.EZ (V/m) @ t=0.24
7.501947030897582
% es.tEX (V/m) @ t=0.24
9.390407397749325
% es.tEY (V/m) @ t=0.24
0
% es.tEZ (V/m) @ t=0.24
7.501947030897579
% es.Ex (V/m) @ t=0.24
9.390407397749284
% es.Ey (V/m) @ t=0.24
-1.4388816377410798
% es.Ez (V/m) @ t=0.24
7.501947030897582
% es.tEx (V/m) @ t=0.24
9.390407397749325
% es.tEy (V/m) @ t=0.24
0
% es.tEz (V/m) @ t=0.24
7.501947030897579
% V (V) @ t=0.24
0.010007802647040124
% es.normE (V/m) @ t=0.26
12.294467421507754
% es.EX (V/m) @ t=0.26
9.52677199351749
% es.EY (V/m) @ t=0.26
-1.4597754713493885
% es.EZ (V/m) @ t=0.26
7.610893088534268
% es.tEX (V/m) @ t=0.26
9.526771993517524
% es.tEY (V/m) @ t=0.26
0
% es.tEZ (V/m) @ t=0.26
7.61089308853425
% es.Ex (V/m) @ t=0.26
9.52677199351749
% es.Ey (V/m) @ t=0.26
-1.4597754713493885
% es.Ez (V/m) @ t=0.26
7.610893088534268
% es.tEx (V/m) @ t=0.26
9.526771993517524
% es.tEy (V/m) @ t=0.26
0
% es.tEz (V/m) @ t=0.26
7.61089308853425
% V (V) @ t=0.26
0.010153128616865747
% es.normE (V/m) @ t=0.28
12.476725193128615
% es.EX (V/m) @ t=0.28
9.668001029819896
% es.EY (V/m) @ t=0.28
-1.481416139938558
% es.EZ (V/m) @ t=0.28
7.723718898496427
% es.tEX (V/m) @ t=0.28
9.668001029819932
% es.tEY (V/m) @ t=0.28
0
% es.tEZ (V/m) @ t=0.28
7.723718898496438
% es.Ex (V/m) @ t=0.28
9.668001029819896
% es.Ey (V/m) @ t=0.28
-1.481416139938558
% es.Ez (V/m) @ t=0.28
7.723718898496427
% es.tEx (V/m) @ t=0.28
9.668001029819932
% es.tEy (V/m) @ t=0.28
0
% es.tEz (V/m) @ t=0.28
7.723718898496438
% V (V) @ t=0.28
0.01030364419451394
% es.normE (V/m) @ t=0.3
12.668416906931473
% es.EX (V/m) @ t=0.3
9.816544507668112
% es.EY (V/m) @ t=0.3
-1.5041797908673455
% es.EZ (V/m) @ t=0.3
7.842378518410051
% es.tEX (V/m) @ t=0.3
9.816544507668155
% es.tEY (V/m) @ t=0.3
0
% es.tEZ (V/m) @ t=0.3
7.84237851841004
% es.Ex (V/m) @ t=0.3
9.816544507668112
% es.Ey (V/m) @ t=0.3
-1.5041797908673455
% es.Ez (V/m) @ t=0.3
7.842378518410051
% es.tEx (V/m) @ t=0.3
9.816544507668155
% es.tEy (V/m) @ t=0.3
0
% es.tEz (V/m) @ t=0.3
7.84237851841004
% V (V) @ t=0.3
0.010461963153207963
% es.normE (V/m) @ t=0.32
12.860108620743812
% es.EX (V/m) @ t=0.32
9.965087985516272
% es.EY (V/m) @ t=0.32
-1.5269434417960621
% es.EZ (V/m) @ t=0.32
7.961038138323676
% es.tEX (V/m) @ t=0.32
9.965087985516323
% es.tEY (V/m) @ t=0.32
0
% es.tEZ (V/m) @ t=0.32
7.961038138323665
% es.Ex (V/m) @ t=0.32
9.965087985516272
% es.Ey (V/m) @ t=0.32
-1.5269434417960621
% es.Ez (V/m) @ t=0.32
7.961038138323676
% es.tEx (V/m) @ t=0.32
9.965087985516323
% es.tEy (V/m) @ t=0.32
0
% es.tEz (V/m) @ t=0.32
7.961038138323665
% V (V) @ t=0.32
0.010620282111901982
% es.normE (V/m) @ t=0.34
13.051800334565298
% es.EX (V/m) @ t=0.34
10.113631463364516
% es.EY (V/m) @ t=0.34
-1.5497070927248195
% es.EZ (V/m) @ t=0.34
8.079697758237256
% es.tEX (V/m) @ t=0.34
10.113631463364577
% es.tEY (V/m) @ t=0.34
0
% es.tEZ (V/m) @ t=0.34
8.079697758237266
% es.Ex (V/m) @ t=0.34
10.113631463364516
% es.Ey (V/m) @ t=0.34
-1.5497070927248195
% es.Ez (V/m) @ t=0.34
8.079697758237256
% es.tEx (V/m) @ t=0.34
10.113631463364577
% es.tEy (V/m) @ t=0.34
0
% es.tEz (V/m) @ t=0.34
8.079697758237266
% V (V) @ t=0.34
0.010778601070596004
% es.normE (V/m) @ t=0.36
13.243492048395462
% es.EX (V/m) @ t=0.36
10.26217494121269
% es.EY (V/m) @ t=0.36
-1.5724707436535645
% es.EZ (V/m) @ t=0.36
8.198357378150869
% es.tEX (V/m) @ t=0.36
10.262174941212745
% es.tEY (V/m) @ t=0.36
0
% es.tEZ (V/m) @ t=0.36
8.198357378150861
% es.Ex (V/m) @ t=0.36
10.26217494121269
% es.Ey (V/m) @ t=0.36
-1.5724707436535645
% es.Ez (V/m) @ t=0.36
8.198357378150869
% es.tEx (V/m) @ t=0.36
10.262174941212745
% es.tEy (V/m) @ t=0.36
0
% es.tEz (V/m) @ t=0.36
8.198357378150861
% V (V) @ t=0.36
0.010936920029290025
% es.normE (V/m) @ t=0.38
13.43518376223397
% es.EX (V/m) @ t=0.38
10.410718419060856
% es.EY (V/m) @ t=0.38
-1.5952343945822776
% es.EZ (V/m) @ t=0.38
8.317016998064503
% es.tEX (V/m) @ t=0.38
10.410718419060885
% es.tEY (V/m) @ t=0.38
0
% es.tEZ (V/m) @ t=0.38
8.3170169980645
% es.Ex (V/m) @ t=0.38
10.410718419060856
% es.Ey (V/m) @ t=0.38
-1.5952343945822776
% es.Ez (V/m) @ t=0.38
8.317016998064503
% es.tEx (V/m) @ t=0.38
10.410718419060885
% es.tEy (V/m) @ t=0.38
0
% es.tEz (V/m) @ t=0.38
8.3170169980645
% V (V) @ t=0.38
0.011095238987984044
% es.normE (V/m) @ t=0.4
13.626875476080471
% es.EX (V/m) @ t=0.4
10.559261896909051
% es.EY (V/m) @ t=0.4
-1.6179980455110048
% es.EZ (V/m) @ t=0.4
8.435676617978103
% es.tEX (V/m) @ t=0.4
10.559261896909081
% es.tEY (V/m) @ t=0.4
0
% es.tEZ (V/m) @ t=0.4
8.435676617978094
% es.Ex (V/m) @ t=0.4
10.559261896909051
% es.Ey (V/m) @ t=0.4
-1.6179980455110048
% es.Ez (V/m) @ t=0.4
8.435676617978103
% es.tEx (V/m) @ t=0.4
10.559261896909081
% es.tEy (V/m) @ t=0.4
0
% es.tEz (V/m) @ t=0.4
8.435676617978094
% V (V) @ t=0.4
0.011253557946678063
% es.normE (V/m) @ t=0.42
13.828654565846751
% es.EX (V/m) @ t=0.42
10.715607462739753
% es.EY (V/m) @ t=0.42
-1.6419497088678234
% es.EZ (V/m) @ t=0.42
8.56060220096132
% es.tEX (V/m) @ t=0.42
10.715607462739793
% es.tEY (V/m) @ t=0.42
0
% es.tEZ (V/m) @ t=0.42
8.56060220096131
% es.Ex (V/m) @ t=0.42
10.715607462739753
% es.Ey (V/m) @ t=0.42
-1.6419497088678234
% es.Ez (V/m) @ t=0.42
8.56060220096132
% es.tEx (V/m) @ t=0.42
10.715607462739793
% es.tEy (V/m) @ t=0.42
0
% es.tEz (V/m) @ t=0.42
8.56060220096131
% V (V) @ t=0.42
0.011420164591911624
% es.normE (V/m) @ t=0.44
14.037044439463301
% es.EX (V/m) @ t=0.44
10.877066143891717
% es.EY (V/m) @ t=0.44
-1.666679938752102
% es.EZ (V/m) @ t=0.44
8.689634196464642
% es.tEX (V/m) @ t=0.44
10.877066143891767
% es.tEY (V/m) @ t=0.44
0
% es.tEZ (V/m) @ t=0.44
8.689634196464656
% es.Ex (V/m) @ t=0.44
10.877066143891717
% es.Ey (V/m) @ t=0.44
-1.666679938752102
% es.Ez (V/m) @ t=0.44
8.689634196464642
% es.tEx (V/m) @ t=0.44
10.877066143891767
% es.tEy (V/m) @ t=0.44
0
% es.tEz (V/m) @ t=0.44
8.689634196464656
% V (V) @ t=0.44
0.011592202590536572
% es.normE (V/m) @ t=0.46
14.245434313217284
% es.EX (V/m) @ t=0.46
11.038524825043782
% es.EY (V/m) @ t=0.46
-1.6914101686363878
% es.EZ (V/m) @ t=0.46
8.81866619196796
% es.tEX (V/m) @ t=0.46
11.038524825043826
% es.tEY (V/m) @ t=0.46
0
% es.tEZ (V/m) @ t=0.46
8.818666191967957
% es.Ex (V/m) @ t=0.46
11.038524825043782
% es.Ey (V/m) @ t=0.46
-1.6914101686363878
% es.Ez (V/m) @ t=0.46
8.81866619196796
% es.tEx (V/m) @ t=0.46
11.038524825043826
% es.tEy (V/m) @ t=0.46
0
% es.tEz (V/m) @ t=0.46
8.818666191967957
% V (V) @ t=0.46
0.011764240589161524
% es.normE (V/m) @ t=0.48
14.453824187102656
% es.EX (V/m) @ t=0.48
11.199983506195803
% es.EY (V/m) @ t=0.48
-1.7161403985207428
% es.EZ (V/m) @ t=0.48
8.947698187471275
% es.tEX (V/m) @ t=0.48
11.199983506195858
% es.tEY (V/m) @ t=0.48
0
% es.tEZ (V/m) @ t=0.48
8.947698187471275
% es.Ex (V/m) @ t=0.48
11.199983506195803
% es.Ey (V/m) @ t=0.48
-1.7161403985207428
% es.Ez (V/m) @ t=0.48
8.947698187471275
% es.tEx (V/m) @ t=0.48
11.199983506195858
% es.tEy (V/m) @ t=0.48
0
% es.tEz (V/m) @ t=0.48
8.947698187471275
% V (V) @ t=0.48
0.011936278587786472
% es.normE (V/m) @ t=0.5
14.66221406111384
% es.EX (V/m) @ t=0.5
11.361442187347839
% es.EY (V/m) @ t=0.5
-1.7408706284050517
% es.EZ (V/m) @ t=0.5
9.076730182974588
% es.tEX (V/m) @ t=0.5
11.361442187347858
% es.tEY (V/m) @ t=0.5
0
% es.tEZ (V/m) @ t=0.5
9.076730182974588
% es.Ex (V/m) @ t=0.5
11.361442187347839
% es.Ey (V/m) @ t=0.5
-1.7408706284050517
% es.Ez (V/m) @ t=0.5
9.076730182974588
% es.tEx (V/m) @ t=0.5
11.361442187347858
% es.tEy (V/m) @ t=0.5
0
% es.tEz (V/m) @ t=0.5
9.076730182974588
% V (V) @ t=0.5
0.012108316586411424
% es.normE (V/m) @ t=0.52
14.870603935245528
% es.EX (V/m) @ t=0.52
11.522900868499853
% es.EY (V/m) @ t=0.52
-1.7656008582893072
% es.EZ (V/m) @ t=0.52
9.205762178477901
% es.tEX (V/m) @ t=0.52
11.522900868499889
% es.tEY (V/m) @ t=0.52
0
% es.tEZ (V/m) @ t=0.52
9.205762178477901
% es.Ex (V/m) @ t=0.52
11.522900868499853
% es.Ey (V/m) @ t=0.52
-1.7656008582893072
% es.Ez (V/m) @ t=0.52
9.205762178477901
% es.tEx (V/m) @ t=0.52
11.522900868499889
% es.tEy (V/m) @ t=0.52
0
% es.tEz (V/m) @ t=0.52
9.205762178477901
% V (V) @ t=0.52
0.012280354585036372
% es.normE (V/m) @ t=0.54
15.078993809492783
% es.EX (V/m) @ t=0.54
11.684359549651896
% es.EY (V/m) @ t=0.54
-1.7903310881736338
% es.EZ (V/m) @ t=0.54
9.334794173981226
% es.tEX (V/m) @ t=0.54
11.684359549651921
% es.tEY (V/m) @ t=0.54
0
% es.tEZ (V/m) @ t=0.54
9.334794173981226
% es.Ex (V/m) @ t=0.54
11.684359549651896
% es.Ey (V/m) @ t=0.54
-1.7903310881736338
% es.Ez (V/m) @ t=0.54
9.334794173981226
% es.tEx (V/m) @ t=0.54
11.684359549651921
% es.tEy (V/m) @ t=0.54
0
% es.tEz (V/m) @ t=0.54
9.334794173981226
% V (V) @ t=0.54
0.012452392583661324
% es.normE (V/m) @ t=0.56
15.293881958045302
% es.EX (V/m) @ t=0.56
11.850862911366853
% es.EY (V/m) @ t=0.56
-1.8158391204689543
% es.EZ (V/m) @ t=0.56
9.467835201781686
% es.tEX (V/m) @ t=0.56
11.850862911366915
% es.tEY (V/m) @ t=0.56
0
% es.tEZ (V/m) @ t=0.56
9.467835201781673
% es.Ex (V/m) @ t=0.56
11.850862911366853
% es.Ey (V/m) @ t=0.56
-1.8158391204689543
% es.Ez (V/m) @ t=0.56
9.467835201781686
% es.tEx (V/m) @ t=0.56
11.850862911366915
% es.tEy (V/m) @ t=0.56
0
% es.tEz (V/m) @ t=0.56
9.467835201781673
% V (V) @ t=0.56
0.012629824516416982
% es.normE (V/m) @ t=0.58
15.512217623336593
% es.EX (V/m) @ t=0.58
12.020042617608155
% es.EY (V/m) @ t=0.58
-1.841759798758293
% es.EZ (V/m) @ t=0.58
9.603003133656717
% es.tEX (V/m) @ t=0.58
12.020042617608198
% es.tEY (V/m) @ t=0.58
0
% es.tEZ (V/m) @ t=0.58
9.603003133656703
% es.Ex (V/m) @ t=0.58
12.020042617608155
% es.Ey (V/m) @ t=0.58
-1.841759798758293
% es.Ez (V/m) @ t=0.58
9.603003133656717
% es.tEx (V/m) @ t=0.58
12.020042617608198
% es.tEy (V/m) @ t=0.58
0
% es.tEz (V/m) @ t=0.58
9.603003133656703
% V (V) @ t=0.58
0.012810118082512083
% es.normE (V/m) @ t=0.6
15.73266651717448
% es.EX (V/m) @ t=0.6
12.19086284603094
% es.EY (V/m) @ t=0.6
-1.8679334171678814
% es.EZ (V/m) @ t=0.6
9.73947479652668
% es.tEX (V/m) @ t=0.6
12.190862846030958
% es.tEY (V/m) @ t=0.6
0
% es.tEZ (V/m) @ t=0.6
9.739474796526666
% es.Ex (V/m) @ t=0.6
12.19086284603094
% es.Ey (V/m) @ t=0.6
-1.8679334171678814
% es.Ez (V/m) @ t=0.6
9.73947479652668
% es.tEx (V/m) @ t=0.6
12.190862846030958
% es.tEy (V/m) @ t=0.6
0
% es.tEz (V/m) @ t=0.6
9.739474796526666
% V (V) @ t=0.6
0.012992165747499323
% es.normE (V/m) @ t=0.62
15.95522863955796
% es.EX (V/m) @ t=0.62
12.363323596635153
% es.EY (V/m) @ t=0.62
-1.8943599756976823
% es.EZ (V/m) @ t=0.62
9.877250190391594
% es.tEX (V/m) @ t=0.62
12.363323596635222
% es.tEY (V/m) @ t=0.62
0
% es.tEZ (V/m) @ t=0.62
9.877250190391594
% es.Ex (V/m) @ t=0.62
12.363323596635153
% es.Ey (V/m) @ t=0.62
-1.8943599756976823
% es.Ez (V/m) @ t=0.62
9.877250190391594
% es.tEx (V/m) @ t=0.62
12.363323596635222
% es.tEy (V/m) @ t=0.62
0
% es.tEz (V/m) @ t=0.62
9.877250190391594
% V (V) @ t=0.62
0.013175967511378698
% es.normE (V/m) @ t=0.64
16.179903990495212
% es.EX (V/m) @ t=0.64
12.537424869420807
% es.EY (V/m) @ t=0.64
-1.9210394743476886
% es.EZ (V/m) @ t=0.64
10.016329315251511
% es.tEX (V/m) @ t=0.64
12.537424869420853
% es.tEY (V/m) @ t=0.64
0
% es.tEZ (V/m) @ t=0.64
10.016329315251497
% es.Ex (V/m) @ t=0.64
12.537424869420807
% es.Ey (V/m) @ t=0.64
-1.9210394743476886
% es.Ez (V/m) @ t=0.64
10.016329315251511
% es.tEx (V/m) @ t=0.64
12.537424869420853
% es.tEy (V/m) @ t=0.64
0
% es.tEz (V/m) @ t=0.64
10.016329315251497
% V (V) @ t=0.64
0.013361523374150214
% es.normE (V/m) @ t=0.66
16.406692570002782
% es.EX (V/m) @ t=0.66
12.713166664387936
% es.EY (V/m) @ t=0.66
-1.9479719131179554
% es.EZ (V/m) @ t=0.66
10.15671217110635
% es.tEX (V/m) @ t=0.66
12.713166664388016
% es.tEY (V/m) @ t=0.66
0
% es.tEZ (V/m) @ t=0.66
10.156712171106333
% es.Ex (V/m) @ t=0.66
12.713166664387936
% es.Ey (V/m) @ t=0.66
-1.9479719131179554
% es.Ez (V/m) @ t=0.66
10.15671217110635
% es.tEx (V/m) @ t=0.66
12.713166664388016
% es.tEy (V/m) @ t=0.66
0
% es.tEz (V/m) @ t=0.66
10.156712171106333
% V (V) @ t=0.66
0.013548833335813864
% es.normE (V/m) @ t=0.68
16.6355943781051
% es.EX (V/m) @ t=0.68
12.890548981536478
% es.EY (V/m) @ t=0.68
-1.9751572920084346
% es.EZ (V/m) @ t=0.68
10.298398757956164
% es.tEX (V/m) @ t=0.68
12.890548981536543
% es.tEY (V/m) @ t=0.68
0
% es.tEZ (V/m) @ t=0.68
10.298398757956148
% es.Ex (V/m) @ t=0.68
12.890548981536478
% es.Ey (V/m) @ t=0.68
-1.9751572920084346
% es.Ez (V/m) @ t=0.68
10.298398757956164
% es.tEx (V/m) @ t=0.68
12.890548981536543
% es.tEy (V/m) @ t=0.68
0
% es.tEz (V/m) @ t=0.68
10.298398757956148
% V (V) @ t=0.68
0.013737897396369653
% es.normE (V/m) @ t=0.7
16.866609414833952
% es.EX (V/m) @ t=0.7
13.06957182086649
% es.EY (V/m) @ t=0.7
-2.002595611019146
% es.EZ (V/m) @ t=0.7
10.441389075800934
% es.tEX (V/m) @ t=0.7
13.069571820866521
% es.tEY (V/m) @ t=0.7
0
% es.tEZ (V/m) @ t=0.7
10.441389075800954
% es.Ex (V/m) @ t=0.7
13.06957182086649
% es.Ey (V/m) @ t=0.7
-2.002595611019146
% es.Ez (V/m) @ t=0.7
10.441389075800934
% es.tEx (V/m) @ t=0.7
13.069571820866521
% es.tEy (V/m) @ t=0.7
0
% es.tEz (V/m) @ t=0.7
10.441389075800954
% V (V) @ t=0.7
0.01392871555581758
% es.normE (V/m) @ t=0.72
17.099737680227864
% es.EX (V/m) @ t=0.72
13.250235182377962
% es.EY (V/m) @ t=0.72
-2.0302868701500962
% es.EZ (V/m) @ t=0.72
10.585683124640667
% es.tEX (V/m) @ t=0.72
13.25023518237803
% es.tEY (V/m) @ t=0.72
0
% es.tEZ (V/m) @ t=0.72
10.58568312464068
% es.Ex (V/m) @ t=0.72
13.250235182377962
% es.Ey (V/m) @ t=0.72
-2.0302868701500962
% es.Ez (V/m) @ t=0.72
10.585683124640667
% es.tEx (V/m) @ t=0.72
13.25023518237803
% es.tEy (V/m) @ t=0.72
0
% es.tEz (V/m) @ t=0.72
10.58568312464068
% V (V) @ t=0.72
0.014121287814157644
% es.normE (V/m) @ t=0.74
17.334979174331682
% es.EX (V/m) @ t=0.74
13.432539066070934
% es.EY (V/m) @ t=0.74
-2.058231069401284
% es.EZ (V/m) @ t=0.74
10.73128090447537
% es.tEX (V/m) @ t=0.74
13.432539066070964
% es.tEY (V/m) @ t=0.74
0
% es.tEZ (V/m) @ t=0.74
10.731280904475353
% es.Ex (V/m) @ t=0.74
13.432539066070934
% es.Ey (V/m) @ t=0.74
-2.058231069401284
% es.Ez (V/m) @ t=0.74
10.73128090447537
% es.tEx (V/m) @ t=0.74
13.432539066070964
% es.tEy (V/m) @ t=0.74
0
% es.tEz (V/m) @ t=0.74
10.731280904475353
% V (V) @ t=0.74
0.014315614171389846
% es.normE (V/m) @ t=0.76
17.572333897195957
% es.EX (V/m) @ t=0.76
13.61648347194533
% es.EY (V/m) @ t=0.76
-2.0864282087726593
% es.EZ (V/m) @ t=0.76
10.878182415305034
% es.tEX (V/m) @ t=0.76
13.616483471945404
% es.tEY (V/m) @ t=0.76
0
% es.tEZ (V/m) @ t=0.76
10.87818241530503
% es.Ex (V/m) @ t=0.76
13.61648347194533
% es.Ey (V/m) @ t=0.76
-2.0864282087726593
% es.Ez (V/m) @ t=0.76
10.878182415305034
% es.tEx (V/m) @ t=0.76
13.616483471945404
% es.tEy (V/m) @ t=0.76
0
% es.tEz (V/m) @ t=0.76
10.87818241530503
% V (V) @ t=0.76
0.014511694627514189
% es.normE (V/m) @ t=0.78
17.811801848876705
% es.EX (V/m) @ t=0.78
13.802068400001197
% es.EY (V/m) @ t=0.78
-2.1148782882643395
% es.EZ (V/m) @ t=0.78
11.026387657129646
% es.tEX (V/m) @ t=0.78
13.802068400001204
% es.tEY (V/m) @ t=0.78
0
% es.tEZ (V/m) @ t=0.78
11.026387657129643
% es.Ex (V/m) @ t=0.78
13.802068400001197
% es.Ey (V/m) @ t=0.78
-2.1148782882643395
% es.Ez (V/m) @ t=0.78
11.026387657129646
% es.tEx (V/m) @ t=0.78
13.802068400001204
% es.tEy (V/m) @ t=0.78
0
% es.tEz (V/m) @ t=0.78
11.026387657129643
% V (V) @ t=0.78
0.01470952918253067
% es.normE (V/m) @ t=0.8
18.05338302943479
% es.EX (V/m) @ t=0.8
13.989293850238468
% es.EY (V/m) @ t=0.8
-2.1435813078761186
% es.EZ (V/m) @ t=0.8
11.175896629949207
% es.tEX (V/m) @ t=0.8
13.989293850238486
% es.tEY (V/m) @ t=0.8
0
% es.tEZ (V/m) @ t=0.8
11.175896629949204
% es.Ex (V/m) @ t=0.8
13.989293850238468
% es.Ey (V/m) @ t=0.8
-2.1435813078761186
% es.Ez (V/m) @ t=0.8
11.175896629949207
% es.tEx (V/m) @ t=0.8
13.989293850238486
% es.tEy (V/m) @ t=0.8
0
% es.tEz (V/m) @ t=0.8
11.175896629949204
% V (V) @ t=0.8
0.014909117836439287
% es.normE (V/m) @ t=0.82
18.29792276776419
% es.EX (V/m) @ t=0.82
14.178806932347301
% es.EY (V/m) @ t=0.82
-2.1726323154481477
% es.EZ (V/m) @ t=0.82
11.327244352450748
% es.tEX (V/m) @ t=0.82
14.17880693234736
% es.tEY (V/m) @ t=0.82
0
% es.tEZ (V/m) @ t=0.82
11.327244352450746
% es.Ex (V/m) @ t=0.82
14.178806932347301
% es.Ey (V/m) @ t=0.82
-2.1726323154481477
% es.Ez (V/m) @ t=0.82
11.327244352450748
% es.tEx (V/m) @ t=0.82
14.17880693234736
% es.tEy (V/m) @ t=0.82
0
% es.tEz (V/m) @ t=0.82
11.327244352450746
% V (V) @ t=0.82
0.015111135237309725
% es.normE (V/m) @ t=0.84
18.547947111432073
% es.EX (V/m) @ t=0.84
14.372541367122446
% es.EY (V/m) @ t=0.84
-2.2023153369918553
% es.EZ (V/m) @ t=0.84
11.482029590309441
% es.tEX (V/m) @ t=0.84
14.372541367122484
% es.tEY (V/m) @ t=0.84
0
% es.tEZ (V/m) @ t=0.84
11.482029590309425
% es.Ex (V/m) @ t=0.84
14.372541367122446
% es.Ey (V/m) @ t=0.84
-2.2023153369918553
% es.Ez (V/m) @ t=0.84
11.482029590309441
% es.tEx (V/m) @ t=0.84
14.372541367122484
% es.tEy (V/m) @ t=0.84
0
% es.tEz (V/m) @ t=0.84
11.482029590309425
% V (V) @ t=0.84
0.015317597397297787
% es.normE (V/m) @ t=0.86
18.80064590317685
% es.EX (V/m) @ t=0.86
14.56834594443846
% es.EY (V/m) @ t=0.86
-2.232314401538968
% es.EZ (V/m) @ t=0.86
11.63847376157176
% es.tEX (V/m) @ t=0.86
14.568345944438502
% es.tEY (V/m) @ t=0.86
0
% es.tEZ (V/m) @ t=0.86
11.638473761571758
% es.Ex (V/m) @ t=0.86
14.56834594443846
% es.Ey (V/m) @ t=0.86
-2.232314401538968
% es.Ez (V/m) @ t=0.86
11.63847376157176
% es.tEx (V/m) @ t=0.86
14.568345944438502
% es.tEy (V/m) @ t=0.86
0
% es.tEz (V/m) @ t=0.86
11.638473761571758
% V (V) @ t=0.86
0.015526261559447928
% es.normE (V/m) @ t=0.88
19.056019143013295
% es.EX (V/m) @ t=0.88
14.766220664295385
% es.EY (V/m) @ t=0.88
-2.2626295090893613
% es.EZ (V/m) @ t=0.88
11.79657686623781
% es.tEX (V/m) @ t=0.88
14.766220664295412
% es.tEY (V/m) @ t=0.88
0
% es.tEZ (V/m) @ t=0.88
11.79657686623782
% es.Ex (V/m) @ t=0.88
14.766220664295385
% es.Ey (V/m) @ t=0.88
-2.2626295090893613
% es.Ez (V/m) @ t=0.88
11.79657686623781
% es.tEx (V/m) @ t=0.88
14.766220664295412
% es.tEy (V/m) @ t=0.88
0
% es.tEz (V/m) @ t=0.88
11.79657686623782
% V (V) @ t=0.88
0.01573712772376014
% es.normE (V/m) @ t=0.9
19.314066830959526
% es.EX (V/m) @ t=0.9
14.966165526693324
% es.EY (V/m) @ t=0.9
-2.2932606596430922
% es.EZ (V/m) @ t=0.9
11.956338904307563
% es.tEX (V/m) @ t=0.9
14.966165526693388
% es.tEY (V/m) @ t=0.9
0
% es.tEZ (V/m) @ t=0.9
11.95633890430755
% es.Ex (V/m) @ t=0.9
14.966165526693324
% es.Ey (V/m) @ t=0.9
-2.2932606596430922
% es.Ez (V/m) @ t=0.9
11.956338904307563
% es.tEx (V/m) @ t=0.9
14.966165526693388
% es.tEy (V/m) @ t=0.9
0
% es.tEz (V/m) @ t=0.9
11.95633890430755
% V (V) @ t=0.9
0.01595019589023442
% es.normE (V/m) @ t=0.92
19.57478896703659
% es.EX (V/m) @ t=0.92
15.168180531632173
% es.EY (V/m) @ t=0.92
-2.324207853200093
% es.EZ (V/m) @ t=0.92
12.117759875780939
% es.tEX (V/m) @ t=0.92
15.168180531632228
% es.tEY (V/m) @ t=0.92
0
% es.tEZ (V/m) @ t=0.92
12.117759875780955
% es.Ex (V/m) @ t=0.92
15.168180531632173
% es.Ey (V/m) @ t=0.92
-2.324207853200093
% es.Ez (V/m) @ t=0.92
12.117759875780939
% es.tEx (V/m) @ t=0.92
15.168180531632228
% es.tEy (V/m) @ t=0.92
0
% es.tEz (V/m) @ t=0.92
12.117759875780955
% V (V) @ t=0.92
0.01616546605887077
% es.normE (V/m) @ t=0.94
19.838185551268563
% es.EX (V/m) @ t=0.94
15.372265679111877
% es.EY (V/m) @ t=0.94
-2.3554710897605275
% es.EZ (V/m) @ t=0.94
12.280839780657994
% es.tEX (V/m) @ t=0.94
15.372265679111933
% es.tEY (V/m) @ t=0.94
0
% es.tEZ (V/m) @ t=0.94
12.280839780657985
% es.Ex (V/m) @ t=0.94
15.372265679111877
% es.Ey (V/m) @ t=0.94
-2.3554710897605275
% es.Ez (V/m) @ t=0.94
12.280839780657994
% es.tEx (V/m) @ t=0.94
15.372265679111933
% es.tEy (V/m) @ t=0.94
0
% es.tEz (V/m) @ t=0.94
12.280839780657985
% V (V) @ t=0.94
0.016382938229669197
% es.normE (V/m) @ t=0.96
20.104256583682275
% es.EX (V/m) @ t=0.96
15.578420969132548
% es.EY (V/m) @ t=0.96
-2.3870503693241645
% es.EZ (V/m) @ t=0.96
12.445578618938779
% es.tEX (V/m) @ t=0.96
15.578420969132587
% es.tEY (V/m) @ t=0.96
0
% es.tEZ (V/m) @ t=0.96
12.445578618938788
% es.Ex (V/m) @ t=0.96
15.578420969132548
% es.Ey (V/m) @ t=0.96
-2.3870503693241645
% es.Ez (V/m) @ t=0.96
12.445578618938779
% es.tEx (V/m) @ t=0.96
15.578420969132587
% es.tEy (V/m) @ t=0.96
0
% es.tEz (V/m) @ t=0.96
12.445578618938788
% V (V) @ t=0.96
0.01660261240262969
% es.normE (V/m) @ t=0.98
20.37300206430688
% es.EX (V/m) @ t=0.98
15.786646401694146
% es.EY (V/m) @ t=0.98
-2.418945691891171
% es.EZ (V/m) @ t=0.98
12.611976390623237
% es.tEX (V/m) @ t=0.98
15.786646401694195
% es.tEY (V/m) @ t=0.98
0
% es.tEZ (V/m) @ t=0.98
12.611976390623218
% es.Ex (V/m) @ t=0.98
15.786646401694146
% es.Ey (V/m) @ t=0.98
-2.418945691891171
% es.Ez (V/m) @ t=0.98
12.611976390623237
% es.tEx (V/m) @ t=0.98
15.786646401694195
% es.tEy (V/m) @ t=0.98
0
% es.tEz (V/m) @ t=0.98
12.611976390623218
% V (V) @ t=0.98
0.016824488577752258
% es.normE (V/m) @ t=1
20.64442199317375
% es.EX (V/m) @ t=1
15.996941976796556
% es.EY (V/m) @ t=1
-2.451157057461522
% es.EZ (V/m) @ t=1
12.780033095711362
% es.tEX (V/m) @ t=1
15.99694197679661
% es.tEY (V/m) @ t=1
0
% es.tEZ (V/m) @ t=1
12.780033095711346
% es.Ex (V/m) @ t=1
15.996941976796556
% es.Ey (V/m) @ t=1
-2.451157057461522
% es.Ez (V/m) @ t=1
12.780033095711362
% es.tEx (V/m) @ t=1
15.99694197679661
% es.tEy (V/m) @ t=1
0
% es.tEz (V/m) @ t=1
12.780033095711346
% V (V) @ t=1
0.017048566755036892
% es.normE (V/m) @ t=1.02
20.918516370316638
% es.EX (V/m) @ t=1.02
16.209307694440035
% es.EY (V/m) @ t=1.02
-2.483684466035207
% es.EZ (V/m) @ t=1.02
12.949748734203151
% es.tEX (V/m) @ t=1.02
16.20930769444006
% es.tEY (V/m) @ t=1.02
0
% es.tEZ (V/m) @ t=1.02
12.949748734203128
% es.Ex (V/m) @ t=1.02
16.209307694440035
% es.Ey (V/m) @ t=1.02
-2.483684466035207
% es.Ez (V/m) @ t=1.02
12.949748734203151
% es.tEx (V/m) @ t=1.02
16.20930769444006
% es.tEy (V/m) @ t=1.02
0
% es.tEz (V/m) @ t=1.02
12.949748734203128
% V (V) @ t=1.02
0.017274846934483605
% es.normE (V/m) @ t=1.04
21.19528519577096
% es.EX (V/m) @ t=1.04
16.423743554624483
% es.EY (V/m) @ t=1.04
-2.516527917612134
% es.EZ (V/m) @ t=1.04
13.1211233060987
% es.tEX (V/m) @ t=1.04
16.42374355462452
% es.tEY (V/m) @ t=1.04
0
% es.tEZ (V/m) @ t=1.04
13.12112330609867
% es.Ex (V/m) @ t=1.04
16.423743554624483
% es.Ey (V/m) @ t=1.04
-2.516527917612134
% es.Ez (V/m) @ t=1.04
13.1211233060987
% es.tEx (V/m) @ t=1.04
16.42374355462452
% es.tEy (V/m) @ t=1.04
0
% es.tEz (V/m) @ t=1.04
13.12112330609867
% V (V) @ t=1.04
0.017503329116092387
% es.normE (V/m) @ t=1.06
21.47472846957366
% es.EX (V/m) @ t=1.06