% Model:              1 neuron.mph
% Version:            COMSOL 6.1.0.252
% Date:               Mar 18 2023, 14:01
% Dimension:          0
% Nodes:              14017
% Expressions:        14017
% Description:        Electric field norm, Electric field, X component, Electric field, Y component, Electric field, Z component, Tangential electric field, X component, Tangential electric field, Y component, Tangential electric field, Z component, Electric field, x component, Electric field, y component, Electric field, z component, Tangential electric field, x component, Tangential electric field, y component, Tangential electric field, z component, Electric potential
% Length unit:        mm
% x
1.0000000000000002
% y
12.2
% z
2
% es.normE (V/m) @ t=0
1.9782132237018715
% es.EX (V/m) @ t=0
1.3740794564523395
% es.EY (V/m) @ t=0
0.20575541255392638
% es.EZ (V/m) @ t=0
-1.3720798372637049
% es.tEX (V/m) @ t=0
1.3740794564523453
% es.tEY (V/m) @ t=0
0
% es.tEZ (V/m) @ t=0
-1.3720798372636684
% es.Ex (V/m) @ t=0
1.3740794564523395
% es.Ey (V/m) @ t=0
0.20575541255392638
% es.Ez (V/m) @ t=0
-1.3720798372637049
% es.tEx (V/m) @ t=0
1.3740794564523453
% es.tEy (V/m) @ t=0
0
% es.tEz (V/m) @ t=0
-1.3720798372636684
% V (V) @ t=0
0.02118397815233493
% es.normE (V/m) @ t=0.02
1.8539230075921107
% es.EX (V/m) @ t=0.02
1.2877467020622508
% es.EY (V/m) @ t=0.02
0.19282660709373378
% es.EZ (V/m) @ t=0.02
-1.2858730127392213
% es.tEX (V/m) @ t=0.02
1.2877467020622646
% es.tEY (V/m) @ t=0.02
0
% es.tEZ (V/m) @ t=0.02
-1.2858730127391924
% es.Ex (V/m) @ t=0.02
1.2877467020622508
% es.Ey (V/m) @ t=0.02
0.19282660709373378
% es.Ez (V/m) @ t=0.02
-1.2858730127392213
% es.tEx (V/m) @ t=0.02
1.2877467020622646
% es.tEy (V/m) @ t=0.02
0
% es.tEz (V/m) @ t=0.02
-1.2858730127391924
% V (V) @ t=0.02
0.019853052605017
% es.normE (V/m) @ t=0.04
1.8809162722362338
% es.EX (V/m) @ t=0.04
1.3064963889512304
% es.EY (V/m) @ t=0.04
0.19563453640093276
% es.EZ (V/m) @ t=0.04
-1.3045953372460408
% es.tEX (V/m) @ t=0.04
1.3064963889512295
% es.tEY (V/m) @ t=0.04
0
% es.tEZ (V/m) @ t=0.04
-1.3045953372460115
% es.Ex (V/m) @ t=0.04
1.3064963889512304
% es.Ey (V/m) @ t=0.04
0.19563453640093276
% es.Ez (V/m) @ t=0.04
-1.3045953372460408
% es.tEx (V/m) @ t=0.04
1.3064963889512295
% es.tEy (V/m) @ t=0.04
0
% es.tEz (V/m) @ t=0.04
-1.3045953372460115
% V (V) @ t=0.04
0.02014209999820865
% es.normE (V/m) @ t=0.06
1.9083016225158058
% es.EX (V/m) @ t=0.06
1.3255184231663089
% es.EY (V/m) @ t=0.06
0.19848311450274214
% es.EZ (V/m) @ t=0.06
-1.3235896428176979
% es.tEX (V/m) @ t=0.06
1.3255184231663257
% es.tEY (V/m) @ t=0.06
0
% es.tEZ (V/m) @ t=0.06
-1.3235896428176614
% es.Ex (V/m) @ t=0.06
1.3255184231663089
% es.Ey (V/m) @ t=0.06
0.19848311450274214
% es.Ez (V/m) @ t=0.06
-1.3235896428176979
% es.tEx (V/m) @ t=0.06
1.3255184231663257
% es.tEy (V/m) @ t=0.06
0
% es.tEz (V/m) @ t=0.06
-1.3235896428176614
% V (V) @ t=0.06
0.020435351542684187
% es.normE (V/m) @ t=0.08
1.9362502668807346
% es.EX (V/m) @ t=0.08
1.3449317361849702
% es.EY (V/m) @ t=0.08
0.20138965570269396
% es.EZ (V/m) @ t=0.08
-1.342974799484891
% es.tEX (V/m) @ t=0.08
1.3449317361849733
% es.tEY (V/m) @ t=0.08
0
% es.tEZ (V/m) @ t=0.08
-1.3429747994848764
% es.Ex (V/m) @ t=0.08
1.3449317361849702
% es.Ey (V/m) @ t=0.08
0.20138965570269396
% es.Ez (V/m) @ t=0.08
-1.342974799484891
% es.tEx (V/m) @ t=0.08
1.3449317361849733
% es.tEy (V/m) @ t=0.08
0
% es.tEz (V/m) @ t=0.08
-1.3429747994848764
% V (V) @ t=0.08
0.020734660593584427
% es.normE (V/m) @ t=0.1
1.9641989112458087
% es.EX (V/m) @ t=0.1
1.3643450492036333
% es.EY (V/m) @ t=0.1
0.20429619690262057
% es.EZ (V/m) @ t=0.1
-1.3623599561521416
% es.tEX (V/m) @ t=0.1
1.3643450492036315
% es.tEY (V/m) @ t=0.1
0
% es.tEZ (V/m) @ t=0.1
-1.3623599561521198
% es.Ex (V/m) @ t=0.1
1.3643450492036333
% es.Ey (V/m) @ t=0.1
0.20429619690262057
% es.Ez (V/m) @ t=0.1
-1.3623599561521416
% es.tEx (V/m) @ t=0.1
1.3643450492036315
% es.tEy (V/m) @ t=0.1
0
% es.tEz (V/m) @ t=0.1
-1.3623599561521198
% V (V) @ t=0.1
0.02103396964448467
% es.normE (V/m) @ t=0.12
1.9931827714745993
% es.EX (V/m) @ t=0.12
1.384477298558724
% es.EY (V/m) @ t=0.12
0.20731662570292975
% es.EZ (V/m) @ t=0.12
-1.382461607388929
% es.tEX (V/m) @ t=0.12
1.3844772985587266
% es.tEY (V/m) @ t=0.12
0
% es.tEZ (V/m) @ t=0.12
-1.3824616073889073
% es.Ex (V/m) @ t=0.12
1.384477298558724
% es.Ey (V/m) @ t=0.12
0.20731662570292975
% es.Ez (V/m) @ t=0.12
-1.382461607388929
% es.tEx (V/m) @ t=0.12
1.3844772985587266
% es.tEy (V/m) @ t=0.12
0
% es.tEz (V/m) @ t=0.12
-1.3824616073889073
% V (V) @ t=0.12
0.021344119340154344
% es.normE (V/m) @ t=0.14
2.0227906171338743
% es.EX (V/m) @ t=0.14
1.4050428930564096
% es.EY (V/m) @ t=0.14
0.21040570124691937
% es.EZ (V/m) @ t=0.14
-1.4029951319719878
% es.tEX (V/m) @ t=0.14
1.4050428930564056
% es.tEY (V/m) @ t=0.14
0
% es.tEZ (V/m) @ t=0.14
-1.4029951319719522
% es.Ex (V/m) @ t=0.14
1.4050428930564096
% es.Ey (V/m) @ t=0.14
0.21040570124691937
% es.Ez (V/m) @ t=0.14
-1.4029951319719878
% es.tEx (V/m) @ t=0.14
1.4050428930564056
% es.tEy (V/m) @ t=0.14
0
% es.tEz (V/m) @ t=0.14
-1.4029951319719522
% V (V) @ t=0.14
0.02166080332893899
% es.normE (V/m) @ t=0.16
2.052398462848132
% es.EX (V/m) @ t=0.16
1.4256084875540949
% es.EY (V/m) @ t=0.16
0.2134947767909352
% es.EZ (V/m) @ t=0.16
-1.423528656555046
% es.tEX (V/m) @ t=0.16
1.4256084875540962
% es.tEY (V/m) @ t=0.16
0
% es.tEZ (V/m) @ t=0.16
-1.4235286565550247
% es.Ex (V/m) @ t=0.16
1.4256084875540949
% es.Ey (V/m) @ t=0.16
0.2134947767909352
% es.Ez (V/m) @ t=0.16
-1.423528656555046
% es.tEx (V/m) @ t=0.16
1.4256084875540962
% es.tEy (V/m) @ t=0.16
0
% es.tEz (V/m) @ t=0.16
-1.4235286565550247
% V (V) @ t=0.16
0.021977487317723646
% es.normE (V/m) @ t=0.18
2.08200630861501
% es.EX (V/m) @ t=0.18
1.4461740820517557
% es.EY (V/m) @ t=0.18
0.21658385233488586
% es.EZ (V/m) @ t=0.18
-1.4440621811381122
% es.tEX (V/m) @ t=0.18
1.4461740820517601
% es.tEY (V/m) @ t=0.18
0
% es.tEZ (V/m) @ t=0.18
-1.444062181138083
% es.Ex (V/m) @ t=0.18
1.4461740820517557
% es.Ey (V/m) @ t=0.18
0.21658385233488586
% es.Ez (V/m) @ t=0.18
-1.4440621811381122
% es.tEx (V/m) @ t=0.18
1.4461740820517601
% es.tEy (V/m) @ t=0.18
0
% es.tEz (V/m) @ t=0.18
-1.444062181138083
% V (V) @ t=0.18
0.02229417130650829
% es.normE (V/m) @ t=0.2
2.111614154432329
% es.EX (V/m) @ t=0.2
1.4667396765494485
% es.EY (V/m) @ t=0.2
0.21967292787891946
% es.EZ (V/m) @ t=0.2
-1.4645957057211847
% es.tEX (V/m) @ t=0.2
1.4667396765494534
% es.tEY (V/m) @ t=0.2
0
% es.tEZ (V/m) @ t=0.2
-1.4645957057211554
% es.Ex (V/m) @ t=0.2
1.4667396765494485
% es.Ey (V/m) @ t=0.2
0.21967292787891946
% es.Ez (V/m) @ t=0.2
-1.4645957057211847
% es.tEx (V/m) @ t=0.2
1.4667396765494534
% es.tEy (V/m) @ t=0.2
0
% es.tEz (V/m) @ t=0.2
-1.4645957057211554
% V (V) @ t=0.2
0.022610855295292945
% es.normE (V/m) @ t=0.22
2.1416536226214387
% es.EX (V/m) @ t=0.22
1.4876051802419314
% es.EY (V/m) @ t=0.22
0.22280212124017285
% es.EZ (V/m) @ t=0.22
-1.4854297751384395
% es.tEX (V/m) @ t=0.22
1.487605180241947
% es.tEY (V/m) @ t=0.22
0
% es.tEZ (V/m) @ t=0.22
-1.4854297751384316
% es.Ex (V/m) @ t=0.22
1.4876051802419314
% es.Ey (V/m) @ t=0.22
0.22280212124017285
% es.Ez (V/m) @ t=0.22
-1.4854297751384395
% es.tEx (V/m) @ t=0.22
1.487605180241947
% es.tEy (V/m) @ t=0.22
0
% es.tEz (V/m) @ t=0.22
-1.4854297751384316
% V (V) @ t=0.22
0.022932349503721916
% es.normE (V/m) @ t=0.24
2.1729784894898456
% es.EX (V/m) @ t=0.24
1.5093638325165393
% es.EY (V/m) @ t=0.24
0.22605078800281808
% es.EZ (V/m) @ t=0.24
-1.5071588861122729
% es.tEX (V/m) @ t=0.24
1.5093638325165513
% es.tEY (V/m) @ t=0.24
0
% es.tEZ (V/m) @ t=0.24
-1.5071588861122578
% es.Ex (V/m) @ t=0.24
1.5093638325165393
% es.Ey (V/m) @ t=0.24
0.22605078800281808
% es.Ez (V/m) @ t=0.24
-1.5071588861122729
% es.tEx (V/m) @ t=0.24
1.5093638325165513
% es.tEy (V/m) @ t=0.24
0
% es.tEz (V/m) @ t=0.24
-1.5071588861122578
% V (V) @ t=0.24
0.023268168850991266
% es.normE (V/m) @ t=0.26
2.204303356416881
% es.EX (V/m) @ t=0.26
1.5311224847911462
% es.EY (V/m) @ t=0.26
0.22929945476547997
% es.EZ (V/m) @ t=0.26
-1.5288879970860778
% es.tEX (V/m) @ t=0.26
1.531122484791151
% es.tEY (V/m) @ t=0.26
0
% es.tEZ (V/m) @ t=0.26
-1.5288879970860556
% es.Ex (V/m) @ t=0.26
1.5311224847911462
% es.Ey (V/m) @ t=0.26
0.22929945476547997
% es.Ez (V/m) @ t=0.26
-1.5288879970860778
% es.tEx (V/m) @ t=0.26
1.531122484791151
% es.tEy (V/m) @ t=0.26
0
% es.tEz (V/m) @ t=0.26
-1.5288879970860556
% V (V) @ t=0.26
0.023603988198260616
% es.normE (V/m) @ t=0.28
2.2356282234001177
% es.EX (V/m) @ t=0.28
1.5528811370657682
% es.EY (V/m) @ t=0.28
0.23254812152809
% es.EZ (V/m) @ t=0.28
-1.550617108059881
% es.tEX (V/m) @ t=0.28
1.5528811370657722
% es.tEY (V/m) @ t=0.28
0
% es.tEZ (V/m) @ t=0.28
-1.5506171080598659
% es.Ex (V/m) @ t=0.28
1.5528811370657682
% es.Ey (V/m) @ t=0.28
0.23254812152809
% es.Ez (V/m) @ t=0.28
-1.550617108059881
% es.tEx (V/m) @ t=0.28
1.5528811370657722
% es.tEy (V/m) @ t=0.28
0
% es.tEz (V/m) @ t=0.28
-1.5506171080598659
% V (V) @ t=0.28
0.023939807545529955
% es.normE (V/m) @ t=0.3
2.2669530904372093
% es.EX (V/m) @ t=0.3
1.574639789340376
% es.EY (V/m) @ t=0.3
0.2357967882907569
% es.EZ (V/m) @ t=0.3
-1.5723462190336877
% es.tEX (V/m) @ t=0.3
1.5746397893403792
% es.tEY (V/m) @ t=0.3
0
% es.tEZ (V/m) @ t=0.3
-1.5723462190336512
% es.Ex (V/m) @ t=0.3
1.574639789340376
% es.Ey (V/m) @ t=0.3
0.2357967882907569
% es.Ez (V/m) @ t=0.3
-1.5723462190336877
% es.tEx (V/m) @ t=0.3
1.5746397893403792
% es.tEy (V/m) @ t=0.3
0
% es.tEz (V/m) @ t=0.3
-1.5723462190336512
% V (V) @ t=0.3
0.024275626892799308
% es.normE (V/m) @ t=0.32
2.2982779575259698
% es.EX (V/m) @ t=0.32
1.5963984416149954
% es.EY (V/m) @ t=0.32
0.23904545505339359
% es.EZ (V/m) @ t=0.32
-1.594075330007505
% es.tEX (V/m) @ t=0.32
1.5963984416150003
% es.tEY (V/m) @ t=0.32
0
% es.tEZ (V/m) @ t=0.32
-1.5940753300074757
% es.Ex (V/m) @ t=0.32
1.5963984416149954
% es.Ey (V/m) @ t=0.32
0.23904545505339359
% es.Ez (V/m) @ t=0.32
-1.594075330007505
% es.tEx (V/m) @ t=0.32
1.5963984416150003
% es.tEy (V/m) @ t=0.32
0
% es.tEz (V/m) @ t=0.32
-1.5940753300074757
% V (V) @ t=0.32
0.02461144624006865
% es.normE (V/m) @ t=0.34
2.33255398096173
% es.EX (V/m) @ t=0.34
1.6202068095970357
% es.EY (V/m) @ t=0.34
0.24260936775324238
% es.EZ (V/m) @ t=0.34
-1.6178493118654211
% es.tEX (V/m) @ t=0.34
1.6202068095970459
% es.tEY (V/m) @ t=0.34
0
% es.tEZ (V/m) @ t=0.34
-1.6178493118653847
% es.Ex (V/m) @ t=0.34
1.6202068095970357
% es.Ey (V/m) @ t=0.34
0.24260936775324238
% es.Ez (V/m) @ t=0.34
-1.6178493118654211
% es.tEx (V/m) @ t=0.34
1.6202068095970459
% es.tEy (V/m) @ t=0.34
0
% es.tEz (V/m) @ t=0.34
-1.6178493118653847
% V (V) @ t=0.34
0.024978541705434683
% es.normE (V/m) @ t=0.36
2.3672368881372634
% es.EX (V/m) @ t=0.36
1.6442977773136778
% es.EY (V/m) @ t=0.36
0.24621674424557116
% es.EZ (V/m) @ t=0.36
-1.6419052254893254
% es.tEX (V/m) @ t=0.36
1.644297777313688
% es.tEY (V/m) @ t=0.36
0
% es.tEZ (V/m) @ t=0.36
-1.6419052254893103
% es.Ex (V/m) @ t=0.36
1.6442977773136778
% es.Ey (V/m) @ t=0.36
0.24621674424557116
% es.Ez (V/m) @ t=0.36
-1.6419052254893254
% es.tEx (V/m) @ t=0.36
1.644297777313688
% es.tEy (V/m) @ t=0.36
0
% es.tEz (V/m) @ t=0.36
-1.6419052254893103
% V (V) @ t=0.36
0.025349949292057996
% es.normE (V/m) @ t=0.38
2.4019197953128133
% es.EX (V/m) @ t=0.38
1.6683887450303305
% es.EY (V/m) @ t=0.38
0.24982412073787863
% es.EZ (V/m) @ t=0.38
-1.665961139113258
% es.tEX (V/m) @ t=0.38
1.668388745030346
% es.tEY (V/m) @ t=0.38
0
% es.tEZ (V/m) @ t=0.38
-1.66596113911325
% es.Ex (V/m) @ t=0.38
1.6683887450303305
% es.Ey (V/m) @ t=0.38
0.24982412073787863
% es.Ez (V/m) @ t=0.38
-1.665961139113258
% es.tEx (V/m) @ t=0.38
1.668388745030346
% es.tEy (V/m) @ t=0.38
0
% es.tEz (V/m) @ t=0.38
-1.66596113911325
% V (V) @ t=0.38
0.025721356878681306
% es.normE (V/m) @ t=0.4
2.436602702488348
% es.EX (V/m) @ t=0.4
1.6924797127469788
% es.EY (V/m) @ t=0.4
0.2534314972302518
% es.EZ (V/m) @ t=0.4
-1.6900170527371552
% es.tEX (V/m) @ t=0.4
1.69247971274699
% es.tEY (V/m) @ t=0.4
0
% es.tEZ (V/m) @ t=0.4
-1.6900170527371188
% es.Ex (V/m) @ t=0.4
1.6924797127469788
% es.Ey (V/m) @ t=0.4
0.2534314972302518
% es.Ez (V/m) @ t=0.4
-1.6900170527371552
% es.tEx (V/m) @ t=0.4
1.69247971274699
% es.tEy (V/m) @ t=0.4
0
% es.tEz (V/m) @ t=0.4
-1.6900170527371188
% V (V) @ t=0.4
0.02609276446530462
% es.normE (V/m) @ t=0.42
2.471285609663873
% es.EX (V/m) @ t=0.42
1.716570680463628
% es.EY (V/m) @ t=0.42
0.25703887372256073
% es.EZ (V/m) @ t=0.42
-1.71407296636104
% es.tEX (V/m) @ t=0.42
1.7165706804636311
% es.tEY (V/m) @ t=0.42
0
% es.tEZ (V/m) @ t=0.42
-1.7140729663610035
% es.Ex (V/m) @ t=0.42
1.716570680463628
% es.Ey (V/m) @ t=0.42
0.25703887372256073
% es.Ez (V/m) @ t=0.42
-1.71407296636104
% es.tEx (V/m) @ t=0.42
1.7165706804636311
% es.tEy (V/m) @ t=0.42
0
% es.tEz (V/m) @ t=0.42
-1.7140729663610035
% V (V) @ t=0.42
0.02646417205192793
% es.normE (V/m) @ t=0.44
2.505968516839424
% es.EX (V/m) @ t=0.44
1.7406616481802817
% es.EY (V/m) @ t=0.44
0.26064625021490717
% es.EZ (V/m) @ t=0.44
-1.7381288799849637
% es.tEX (V/m) @ t=0.44
1.7406616481802883
% es.tEY (V/m) @ t=0.44
0
% es.tEZ (V/m) @ t=0.44
-1.7381288799849273
% es.Ex (V/m) @ t=0.44
1.7406616481802817
% es.Ey (V/m) @ t=0.44
0.26064625021490717
% es.Ez (V/m) @ t=0.44
-1.7381288799849637
% es.tEx (V/m) @ t=0.44
1.7406616481802883
% es.tEy (V/m) @ t=0.44
0
% es.tEz (V/m) @ t=0.44
-1.7381288799849273
% V (V) @ t=0.44
0.026835579638551245
% es.normE (V/m) @ t=0.46
2.5406514240149667
% es.EX (V/m) @ t=0.46
1.7647526158969287
% es.EY (V/m) @ t=0.46
0.2642536267072825
% es.EZ (V/m) @ t=0.46
-1.762184793608875
% es.tEX (V/m) @ t=0.46
1.7647526158969375
% es.tEY (V/m) @ t=0.46
0
% es.tEZ (V/m) @ t=0.46
-1.7621847936088528
% es.Ex (V/m) @ t=0.46
1.7647526158969287
% es.Ey (V/m) @ t=0.46
0.2642536267072825
% es.Ez (V/m) @ t=0.46
-1.762184793608875
% es.tEx (V/m) @ t=0.46
1.7647526158969375
% es.tEy (V/m) @ t=0.46
0
% es.tEz (V/m) @ t=0.46
-1.7621847936088528
% V (V) @ t=0.46
0.027206987225174555
% es.normE (V/m) @ t=0.48
2.5753343311904864
% es.EX (V/m) @ t=0.48
1.7888435836135774
% es.EY (V/m) @ t=0.48
0.2678610031995865
% es.EZ (V/m) @ t=0.48
-1.786240707232758
% es.tEX (V/m) @ t=0.48
1.7888435836135796
% es.tEY (V/m) @ t=0.48
0
% es.tEZ (V/m) @ t=0.48
-1.7862407072327215
% es.Ex (V/m) @ t=0.48
1.7888435836135774
% es.Ey (V/m) @ t=0.48
0.2678610031995865
% es.Ez (V/m) @ t=0.48
-1.786240707232758
% es.tEx (V/m) @ t=0.48
1.7888435836135796
% es.tEy (V/m) @ t=0.48
0
% es.tEz (V/m) @ t=0.48
-1.7862407072327215
% V (V) @ t=0.48
0.027578394811797864
% es.normE (V/m) @ t=0.5
2.610017238366024
% es.EX (V/m) @ t=0.5
1.8129345513302382
% es.EY (V/m) @ t=0.5
0.2714683796919255
% es.EZ (V/m) @ t=0.5
-1.810296620856655
% es.tEX (V/m) @ t=0.5
1.812934551330252
% es.tEY (V/m) @ t=0.5
0
% es.tEZ (V/m) @ t=0.5
-1.810296620856633
% es.Ex (V/m) @ t=0.5
1.8129345513302382
% es.Ey (V/m) @ t=0.5
0.2714683796919255
% es.Ez (V/m) @ t=0.5
-1.810296620856655
% es.tEx (V/m) @ t=0.5
1.812934551330252
% es.tEy (V/m) @ t=0.5
0
% es.tEz (V/m) @ t=0.5
-1.810296620856633
% V (V) @ t=0.5
0.027949802398421177
% es.normE (V/m) @ t=0.52
2.644700145541575
% es.EX (V/m) @ t=0.52
1.8370255190468785
% es.EY (V/m) @ t=0.52
0.2750757561842653
% es.EZ (V/m) @ t=0.52
-1.8343525344805949
% es.tEX (V/m) @ t=0.52
1.8370255190468878
% es.tEY (V/m) @ t=0.52
0
% es.tEZ (V/m) @ t=0.52
-1.8343525344805585
% es.Ex (V/m) @ t=0.52
1.8370255190468785
% es.Ey (V/m) @ t=0.52
0.2750757561842653
% es.Ez (V/m) @ t=0.52
-1.8343525344805949
% es.tEx (V/m) @ t=0.52
1.8370255190468878
% es.tEy (V/m) @ t=0.52
0
% es.tEz (V/m) @ t=0.52
-1.8343525344805585
% V (V) @ t=0.52
0.028321209985044494
% es.normE (V/m) @ t=0.54
2.679747358394306
% es.EX (V/m) @ t=0.54
1.861369532654729
% es.EY (V/m) @ t=0.54
0.278721037602668
% es.EZ (V/m) @ t=0.54
-1.8586611245341897
% es.tEX (V/m) @ t=0.54
1.8613695326547521
% es.tEY (V/m) @ t=0.54
0
% es.tEZ (V/m) @ t=0.54
-1.8586611245341604
% es.Ex (V/m) @ t=0.54
1.861369532654729
% es.Ey (V/m) @ t=0.54
0.278721037602668
% es.Ez (V/m) @ t=0.54
-1.8586611245341897
% es.tEx (V/m) @ t=0.54
1.8613695326547521
% es.tEy (V/m) @ t=0.54
0
% es.tEz (V/m) @ t=0.54
-1.8586611245341604
% V (V) @ t=0.54
0.028696519262179167
% es.normE (V/m) @ t=0.56
2.717154215192296
% es.EX (V/m) @ t=0.56
1.8873525495567711
% es.EY (V/m) @ t=0.56
0.282611832980285
% es.EZ (V/m) @ t=0.56
-1.8846063248433458
% es.tEX (V/m) @ t=0.56
1.8873525495567787
% es.tEY (V/m) @ t=0.56
0
% es.tEZ (V/m) @ t=0.56
-1.8846063248433236
% es.Ex (V/m) @ t=0.56
1.8873525495567711
% es.Ey (V/m) @ t=0.56
0.282611832980285
% es.Ez (V/m) @ t=0.56
-1.8846063248433458
% es.tEx (V/m) @ t=0.56
1.8873525495567787
% es.tEy (V/m) @ t=0.56
0
% es.tEz (V/m) @ t=0.56
-1.8846063248433236
% V (V) @ t=0.56
0.029097100175104335
% es.normE (V/m) @ t=0.58
2.754561071990281
% es.EX (V/m) @ t=0.58
1.913335566458818
% es.EY (V/m) @ t=0.58
0.28650262835786944
% es.EZ (V/m) @ t=0.58
-1.910551525152468
% es.tEX (V/m) @ t=0.58
1.9133355664588274
% es.tEY (V/m) @ t=0.58
0
% es.tEZ (V/m) @ t=0.58
-1.9105515251524459
% es.Ex (V/m) @ t=0.58
1.913335566458818
% es.Ey (V/m) @ t=0.58
0.28650262835786944
% es.Ez (V/m) @ t=0.58
-1.910551525152468
% es.tEx (V/m) @ t=0.58
1.9133355664588274
% es.tEy (V/m) @ t=0.58
0
% es.tEz (V/m) @ t=0.58
-1.9105515251524459
% V (V) @ t=0.58
0.029497681088029495
% es.normE (V/m) @ t=0.6
2.7919679287882673
% es.EX (V/m) @ t=0.6
1.939318583360834
% es.EY (V/m) @ t=0.6
0.2903934237354865
% es.EZ (V/m) @ t=0.6
-1.9364967254616046
% es.tEX (V/m) @ t=0.6
1.9393185833608388
% es.tEY (V/m) @ t=0.6
0
% es.tEZ (V/m) @ t=0.6
-1.9364967254615681
% es.Ex (V/m) @ t=0.6
1.939318583360834
% es.Ey (V/m) @ t=0.6
0.2903934237354865
% es.Ez (V/m) @ t=0.6
-1.9364967254616046
% es.tEx (V/m) @ t=0.6
1.9393185833608388
% es.tEy (V/m) @ t=0.6
0
% es.tEz (V/m) @ t=0.6
-1.9364967254615681
% V (V) @ t=0.6
0.029898262000954662
% es.normE (V/m) @ t=0.62
2.8293747855862845
% es.EX (V/m) @ t=0.62
1.9653016002628783
% es.EY (V/m) @ t=0.62
0.2942842191131142
% es.EZ (V/m) @ t=0.62
-1.962441925770725
% es.tEX (V/m) @ t=0.62
1.9653016002628858
% es.tEY (V/m) @ t=0.62
0
% es.tEZ (V/m) @ t=0.62
-1.9624419257706887
% es.Ex (V/m) @ t=0.62
1.9653016002628783
% es.Ey (V/m) @ t=0.62
0.2942842191131142
% es.Ez (V/m) @ t=0.62
-1.962441925770725
% es.tEx (V/m) @ t=0.62
1.9653016002628858
% es.tEy (V/m) @ t=0.62
0
% es.tEz (V/m) @ t=0.62
-1.9624419257706887
% V (V) @ t=0.62
0.030298842913879825
% es.normE (V/m) @ t=0.64
2.8667816423843204
% es.EX (V/m) @ t=0.64
1.991284617164911
% es.EY (V/m) @ t=0.64
0.2981750144907238
% es.EZ (V/m) @ t=0.64
-1.9883871260798758
% es.tEX (V/m) @ t=0.64
1.9912846171649203
% es.tEY (V/m) @ t=0.64
0
% es.tEZ (V/m) @ t=0.64
-1.9883871260798394
% es.Ex (V/m) @ t=0.64
1.991284617164911
% es.Ey (V/m) @ t=0.64
0.2981750144907238
% es.Ez (V/m) @ t=0.64
-1.9883871260798758
% es.tEx (V/m) @ t=0.64
1.9912846171649203
% es.tEy (V/m) @ t=0.64
0
% es.tEz (V/m) @ t=0.64
-1.9883871260798394
% V (V) @ t=0.64
0.030699423826804986
% es.normE (V/m) @ t=0.66
2.904188499182357
% es.EX (V/m) @ t=0.66
2.017267634066943
% es.EY (V/m) @ t=0.66
0.3020658098682968
% es.EZ (V/m) @ t=0.66
-2.0143323263890087
% es.tEX (V/m) @ t=0.66
2.017267634066954
% es.tEY (V/m) @ t=0.66
0
% es.tEZ (V/m) @ t=0.66
-2.0143323263889723
% es.Ex (V/m) @ t=0.66
2.017267634066943
% es.Ey (V/m) @ t=0.66
0.3020658098682968
% es.Ez (V/m) @ t=0.66
-2.0143323263890087
% es.tEx (V/m) @ t=0.66
2.017267634066954
% es.tEy (V/m) @ t=0.66
0
% es.tEz (V/m) @ t=0.66
-2.0143323263889723
% V (V) @ t=0.66
0.031100004739730153
% es.normE (V/m) @ t=0.68
2.941595355980394
% es.EX (V/m) @ t=0.68
2.0432506509689827
% es.EY (V/m) @ t=0.68
0.30595660524590274
% es.EZ (V/m) @ t=0.68
-2.040277526698122
% es.tEX (V/m) @ t=0.68
2.0432506509689796
% es.tEY (V/m) @ t=0.68
0
% es.tEZ (V/m) @ t=0.68
-2.040277526698093
% es.Ex (V/m) @ t=0.68
2.0432506509689827
% es.Ey (V/m) @ t=0.68
0.30595660524590274
% es.Ez (V/m) @ t=0.68
-2.040277526698122
% es.tEx (V/m) @ t=0.68
2.0432506509689796
% es.tEy (V/m) @ t=0.68
0
% es.tEz (V/m) @ t=0.68
-2.040277526698093
% V (V) @ t=0.68
0.03150058565265532
% es.normE (V/m) @ t=0.7
2.97900221277847
% es.EX (V/m) @ t=0.7
2.069233667871021
% es.EY (V/m) @ t=0.7
0.309847400623532
% es.EZ (V/m) @ t=0.7
-2.0662227270072604
% es.tEX (V/m) @ t=0.7
2.069233667871025
% es.tEY (V/m) @ t=0.7
0
% es.tEZ (V/m) @ t=0.7
-2.066222727007217
% es.Ex (V/m) @ t=0.7
2.069233667871021
% es.Ey (V/m) @ t=0.7
0.309847400623532
% es.Ez (V/m) @ t=0.7
-2.0662227270072604
% es.tEx (V/m) @ t=0.7
2.069233667871025
% es.tEy (V/m) @ t=0.7
0
% es.tEz (V/m) @ t=0.7
-2.066222727007217
% V (V) @ t=0.7
0.031901166565580494
% es.normE (V/m) @ t=0.72
3.016409069576527
% es.EX (V/m) @ t=0.72
2.095216684773052
% es.EY (V/m) @ t=0.72
0.3137381960011735
% es.EZ (V/m) @ t=0.72
-2.0921679273163667
% es.tEX (V/m) @ t=0.72
2.095216684773063
% es.tEY (V/m) @ t=0.72
0
% es.tEZ (V/m) @ t=0.72
-2.092167927316323
% es.Ex (V/m) @ t=0.72
2.095216684773052
% es.Ey (V/m) @ t=0.72
0.3137381960011735
% es.Ez (V/m) @ t=0.72
-2.0921679273163667
% es.tEx (V/m) @ t=0.72
2.095216684773063
% es.tEy (V/m) @ t=0.72
0
% es.tEz (V/m) @ t=0.72
-2.092167927316323
% V (V) @ t=0.72
0.03230174747850565
% es.normE (V/m) @ t=0.74
3.0548158962827885
% es.EX (V/m) @ t=0.74
2.121894245029497
% es.EY (V/m) @ t=0.74
0.31773590311702526
% es.EZ (V/m) @ t=0.74
-2.118805996284406
% es.tEX (V/m) @ t=0.74
2.121894245029493
% es.tEY (V/m) @ t=0.74
0
% es.tEZ (V/m) @ t=0.74
-2.1188059962843617
% es.Ex (V/m) @ t=0.74
2.121894245029497
% es.Ey (V/m) @ t=0.74
0.31773590311702526
% es.Ez (V/m) @ t=0.74
-2.118805996284406
% es.tEx (V/m) @ t=0.74
2.121894245029493
% es.tEy (V/m) @ t=0.74
0
% es.tEz (V/m) @ t=0.74
-2.1188059962843617
% V (V) @ t=0.74
0.03271291550113458
% es.normE (V/m) @ t=0.76
3.094381771204981
% es.EX (V/m) @ t=0.76
2.149376838738474
% es.EY (V/m) @ t=0.76
0.321857529820071
% es.EZ (V/m) @ t=0.76
-2.146247157593641
% es.tEX (V/m) @ t=0.76
2.149376838738477
% es.tEY (V/m) @ t=0.76
0
% es.tEZ (V/m) @ t=0.76
-2.1462471575935975
% es.Ex (V/m) @ t=0.76
2.149376838738474
% es.Ey (V/m) @ t=0.76
0.321857529820071
% es.Ez (V/m) @ t=0.76
-2.146247157593641
% es.tEx (V/m) @ t=0.76
2.149376838738477
% es.tEy (V/m) @ t=0.76
0
% es.tEz (V/m) @ t=0.76
-2.1462471575935975
% V (V) @ t=0.76
0.03313635486352002
% es.normE (V/m) @ t=0.78
3.1339476461429174
% es.EX (V/m) @ t=0.78
2.1768594324474395
% es.EY (V/m) @ t=0.78
0.32597915652311416
% es.EZ (V/m) @ t=0.78
-2.173688318902875
% es.tEX (V/m) @ t=0.78
2.1768594324474346
% es.tEY (V/m) @ t=0.78
0
% es.tEZ (V/m) @ t=0.78
-2.1736883189028315
% es.Ex (V/m) @ t=0.78
2.1768594324474395
% es.Ey (V/m) @ t=0.78
0.32597915652311416
% es.Ez (V/m) @ t=0.78
-2.173688318902875
% es.tEx (V/m) @ t=0.78
2.1768594324474346
% es.tEy (V/m) @ t=0.78
0
% es.tEz (V/m) @ t=0.78
-2.1736883189028315
% V (V) @ t=0.78
0.033559794225905444
% es.normE (V/m) @ t=0.8
3.173513521096008
% es.EX (V/m) @ t=0.8
2.2043420261563864
% es.EY (V/m) @ t=0.8
0.3301007832261309
% es.EZ (V/m) @ t=0.8
-2.201129480212111
% es.tEX (V/m) @ t=0.8
2.2043420261563886
% es.tEY (V/m) @ t=0.8
0
% es.tEZ (V/m) @ t=0.8
-2.201129480212053
% es.Ex (V/m) @ t=0.8
2.2043420261563864
% es.Ey (V/m) @ t=0.8
0.3301007832261309
% es.Ez (V/m) @ t=0.8
-2.201129480212111
% es.tEx (V/m) @ t=0.8
2.2043420261563886
% es.tEy (V/m) @ t=0.8
0
% es.tEz (V/m) @ t=0.8
-2.201129480212053
% V (V) @ t=0.8
0.033983233588290876
% es.normE (V/m) @ t=0.82
3.213079396063794
% es.EX (V/m) @ t=0.82
2.2318246198653564
% es.EY (V/m) @ t=0.82
0.3342224099291775
% es.EZ (V/m) @ t=0.82
-2.228570641521417
% es.tEX (V/m) @ t=0.82
2.2318246198653586
% es.tEY (V/m) @ t=0.82
0
% es.tEZ (V/m) @ t=0.82
-2.2285706415213724
% es.Ex (V/m) @ t=0.82
2.2318246198653564
% es.Ey (V/m) @ t=0.82
0.3342224099291775
% es.Ez (V/m) @ t=0.82
-2.228570641521417
% es.tEx (V/m) @ t=0.82
2.2318246198653586
% es.tEy (V/m) @ t=0.82
0
% es.tEz (V/m) @ t=0.82
-2.2285706415213724
% V (V) @ t=0.82
0.03440667295067632
% es.normE (V/m) @ t=0.84
3.252645271045642
% es.EX (V/m) @ t=0.84
2.259307213574353
% es.EY (V/m) @ t=0.84
0.3383440366322049
% es.EZ (V/m) @ t=0.84
-2.256011802830682
% es.tEX (V/m) @ t=0.84
2.2593072135743553
% es.tEY (V/m) @ t=0.84
0
% es.tEZ (V/m) @ t=0.84
-2.2560118028306526
% es.Ex (V/m) @ t=0.84
2.259307213574353
% es.Ey (V/m) @ t=0.84
0.3383440366322049
% es.Ez (V/m) @ t=0.84
-2.256011802830682
% es.tEx (V/m) @ t=0.84
2.2593072135743553
% es.tEy (V/m) @ t=0.84
0
% es.tEz (V/m) @ t=0.84
-2.2560118028306526
% V (V) @ t=0.84
0.03483011231306175
% es.normE (V/m) @ t=0.86
3.2922111460410086
% es.EX (V/m) @ t=0.86
2.286789807283322
% es.EY (V/m) @ t=0.86
0.34246566333518225
% es.EZ (V/m) @ t=0.86
-2.2834529641398875
% es.tEX (V/m) @ t=0.86
2.2867898072833315
% es.tEY (V/m) @ t=0.86
0
% es.tEZ (V/m) @ t=0.86
-2.283452964139858
% es.Ex (V/m) @ t=0.86
2.286789807283322
% es.Ey (V/m) @ t=0.86
0.34246566333518225
% es.Ez (V/m) @ t=0.86
-2.2834529641398875
% es.tEx (V/m) @ t=0.86
2.2867898072833315
% es.tEy (V/m) @ t=0.86
0
% es.tEz (V/m) @ t=0.86
-2.283452964139858
% V (V) @ t=0.86
0.03525355167544719
% es.normE (V/m) @ t=0.88
3.3317770210495055
% es.EX (V/m) @ t=0.88
2.314272400992309
% es.EY (V/m) @ t=0.88
0.34658729003827604
% es.EZ (V/m) @ t=0.88
-2.31089412544915
% es.tEX (V/m) @ t=0.88
2.3142724009923175
% es.tEY (V/m) @ t=0.88
0
% es.tEZ (V/m) @ t=0.88
-2.3108941254491207
% es.Ex (V/m) @ t=0.88
2.314272400992309
% es.Ey (V/m) @ t=0.88
0.34658729003827604
% es.Ez (V/m) @ t=0.88
-2.31089412544915
% es.tEx (V/m) @ t=0.88
2.3142724009923175
% es.tEy (V/m) @ t=0.88
0
% es.tEz (V/m) @ t=0.88
-2.3108941254491207
% V (V) @ t=0.88
0.035676991037832624
% es.normE (V/m) @ t=0.9
3.371342896070628
% es.EX (V/m) @ t=0.9
2.3417549947012772
% es.EY (V/m) @ t=0.9
0.35070891674125815
% es.EZ (V/m) @ t=0.9
-2.3383352867584444
% es.tEX (V/m) @ t=0.9
2.3417549947012857
% es.tEY (V/m) @ t=0.9
0
% es.tEZ (V/m) @ t=0.9
-2.3383352867583866
% es.Ex (V/m) @ t=0.9
2.3417549947012772
% es.Ey (V/m) @ t=0.9
0.35070891674125815
% es.Ez (V/m) @ t=0.9
-2.3383352867584444
% es.tEx (V/m) @ t=0.9
2.3417549947012857
% es.tEy (V/m) @ t=0.9
0
% es.tEz (V/m) @ t=0.9
-2.3383352867583866
% V (V) @ t=0.9
0.036100430400218056
% es.normE (V/m) @ t=0.92
3.4109087711039283
% es.EX (V/m) @ t=0.92
2.369237588410244
% es.EY (V/m) @ t=0.92
0.3548305434443465
% es.EZ (V/m) @ t=0.92
-2.3657764480676926
% es.tEX (V/m) @ t=0.92
2.369237588410252
% es.tEY (V/m) @ t=0.92
0
% es.tEZ (V/m) @ t=0.92
-2.3657764480676207
% es.Ex (V/m) @ t=0.92
2.369237588410244
% es.Ey (V/m) @ t=0.92
0.3548305434443465
% es.Ez (V/m) @ t=0.92
-2.3657764480676926
% es.tEx (V/m) @ t=0.92
2.369237588410252
% es.tEy (V/m) @ t=0.92
0
% es.tEz (V/m) @ t=0.92
-2.3657764480676207
% V (V) @ t=0.92
0.036523869762603495
% es.normE (V/m) @ t=0.94
3.4515572136017956
% es.EX (V/m) @ t=0.94
2.397472384236746
% es.EY (V/m) @ t=0.94
0.3590525396563006
% es.EZ (V/m) @ t=0.94
-2.3939714721253784
% es.tEX (V/m) @ t=0.94
2.397472384236746
% es.tEY (V/m) @ t=0.94
0
% es.tEZ (V/m) @ t=0.94
-2.393971472125349
% es.Ex (V/m) @ t=0.94
2.397472384236746
% es.Ey (V/m) @ t=0.94
0.3590525396563006
% es.Ez (V/m) @ t=0.94
-2.3939714721253784
% es.tEx (V/m) @ t=0.94
2.397472384236746
% es.tEy (V/m) @ t=0.94
0
% es.tEz (V/m) @ t=0.94
-2.393971472125349
% V (V) @ t=0.94
0.03695938932400781
% es.normE (V/m) @ t=0.96
3.492488970926888
% es.EX (V/m) @ t=0.96
2.4259040361464654
% es.EY (V/m) @ t=0.96
0.3633008032078242
% es.EZ (V/m) @ t=0.96
-2.4223637868640315
% es.tEX (V/m) @ t=0.96
2.4259040361464805
% es.tEY (V/m) @ t=0.96
0
% es.tEZ (V/m) @ t=0.96
-2.422363786864002
% es.Ex (V/m) @ t=0.96
2.4259040361464654
% es.Ey (V/m) @ t=0.96
0.3633008032078242
% es.Ez (V/m) @ t=0.96
-2.4223637868640315
% es.tEx (V/m) @ t=0.96
2.4259040361464805
% es.tEy (V/m) @ t=0.96
0
% es.tEz (V/m) @ t=0.96
-2.422363786864002
% V (V) @ t=0.96
0.037398070350407
% es.normE (V/m) @ t=0.98
3.533420728285588
% es.EX (V/m) @ t=0.98
2.454335688056208
% es.EY (V/m) @ t=0.98
0.3675490667593627
% es.EZ (V/m) @ t=0.98
-2.450756101602612
% es.tEX (V/m) @ t=0.98
2.454335688056217
% es.tEY (V/m) @ t=0.98
0
% es.tEZ (V/m) @ t=0.98
-2.4507561016025683
% es.Ex (V/m) @ t=0.98
2.454335688056208
% es.Ey (V/m) @ t=0.98
0.3675490667593627
% es.Ez (V/m) @ t=0.98
-2.450756101602612
% es.tEx (V/m) @ t=0.98
2.454335688056217
% es.tEy (V/m) @ t=0.98
0
% es.tEz (V/m) @ t=0.98
-2.4507561016025683
% V (V) @ t=0.98
0.037836751376806185
% es.normE (V/m) @ t=1
3.574352485676817
% es.EX (V/m) @ t=1
2.4827673399659576
% es.EY (V/m) @ t=1
0.37179733031089346
% es.EZ (V/m) @ t=1
-2.479148416341266
% es.tEX (V/m) @ t=1
2.4827673399659513
% es.tEY (V/m) @ t=1
0
% es.tEZ (V/m) @ t=1
-2.4791484163412214
% es.Ex (V/m) @ t=1
2.4827673399659576
% es.Ey (V/m) @ t=1
0.37179733031089346
% es.Ez (V/m) @ t=1
-2.479148416341266
% es.tEx (V/m) @ t=1
2.4827673399659513
% es.tEy (V/m) @ t=1
0
% es.tEz (V/m) @ t=1
-2.4791484163412214
% V (V) @ t=1
0.038275432403205356
% es.normE (V/m) @ t=1.02
3.6152842430994205
% es.EX (V/m) @ t=1.02
2.511198991875685
% es.EY (V/m) @ t=1.02
0.376045593862371
% es.EZ (V/m) @ t=1.02
-2.5075407310798914
% es.tEX (V/m) @ t=1.02
2.5111989918756983
% es.tEY (V/m) @ t=1.02
0
% es.tEZ (V/m) @ t=1.02
-2.507540731079848
% es.Ex (V/m) @ t=1.02
2.511198991875685
% es.Ey (V/m) @ t=1.02
0.376045593862371
% es.Ez (V/m) @ t=1.02
-2.5075407310798914
% es.tEx (V/m) @ t=1.02
2.5111989918756983
% es.tEy (V/m) @ t=1.02
0
% es.tEz (V/m) @ t=1.02
-2.507540731079848
% V (V) @ t=1.02
0.03871411342960454
% es.normE (V/m) @ t=1.04
3.6562160005524027
% es.EX (V/m) @ t=1.04
2.539630643785461
% es.EY (V/m) @ t=1.04
0.3802938574139203
% es.EZ (V/m) @ t=1.04
-2.5359330458185427
% es.tEX (V/m) @ t=1.04
2.5396306437854594
% es.tEY (V/m) @ t=1.04
0
% es.tEZ (V/m) @ t=1.04
-2.535933045818499
% es.Ex (V/m) @ t=1.04
2.539630643785461
% es.Ey (V/m) @ t=1.04