% Model:              1 neuron.mph
% Version:            COMSOL 6.1.0.252
% Date:               Mar 18 2023, 14:01
% Dimension:          0
% Nodes:              14017
% Expressions:        14017
% Description:        Electric field norm, Electric field, X component, Electric field, Y component, Electric field, Z component, Tangential electric field, X component, Tangential electric field, Y component, Tangential electric field, Z component, Electric field, x component, Electric field, y component, Electric field, z component, Tangential electric field, x component, Tangential electric field, y component, Tangential electric field, z component, Electric potential
% Length unit:        mm
% x
2
% y
12.199999999999998
% z
2
% es.normE (V/m) @ t=0
2.0774210519374545
% es.EX (V/m) @ t=0
-1.4872393485574653
% es.EY (V/m) @ t=0
0.5663953860160604
% es.EZ (V/m) @ t=0
-1.327138051780972
% es.tEX (V/m) @ t=0
-1.4872393485574653
% es.tEY (V/m) @ t=0
0
% es.tEZ (V/m) @ t=0
-1.3271380517809916
% es.Ex (V/m) @ t=0
-1.4872393485574653
% es.Ey (V/m) @ t=0
0.5663953860160604
% es.Ez (V/m) @ t=0
-1.327138051780972
% es.tEx (V/m) @ t=0
-1.4872393485574653
% es.tEy (V/m) @ t=0
0
% es.tEz (V/m) @ t=0
-1.3271380517809916
% V (V) @ t=0
0.021141420590298922
% es.normE (V/m) @ t=0.02
1.9468983090506007
% es.EX (V/m) @ t=0.02
-1.3937977824534689
% es.EY (V/m) @ t=0.02
0.5308075602387481
% es.EZ (V/m) @ t=0.02
-1.2437552849514812
% es.tEX (V/m) @ t=0.02
-1.3937977824534773
% es.tEY (V/m) @ t=0.02
0
% es.tEZ (V/m) @ t=0.02
-1.2437552849514635
% es.Ex (V/m) @ t=0.02
-1.3937977824534689
% es.Ey (V/m) @ t=0.02
0.5308075602387481
% es.Ez (V/m) @ t=0.02
-1.2437552849514812
% es.tEx (V/m) @ t=0.02
-1.3937977824534773
% es.tEy (V/m) @ t=0.02
0
% es.tEz (V/m) @ t=0.02
-1.2437552849514635
% V (V) @ t=0.02
0.019813169128320682
% es.normE (V/m) @ t=0.04
1.9752451358347236
% es.EX (V/m) @ t=0.04
-1.4140913293235333
% es.EY (V/m) @ t=0.04
0.5385365650642617
% es.EZ (V/m) @ t=0.04
-1.261864273933612
% es.tEX (V/m) @ t=0.04
-1.414091329323531
% es.tEY (V/m) @ t=0.04
0
% es.tEZ (V/m) @ t=0.04
-1.2618642739336092
% es.Ex (V/m) @ t=0.04
-1.4140913293235333
% es.Ey (V/m) @ t=0.04
0.5385365650642617
% es.Ez (V/m) @ t=0.04
-1.261864273933612
% es.tEx (V/m) @ t=0.04
-1.414091329323531
% es.tEy (V/m) @ t=0.04
0
% es.tEz (V/m) @ t=0.04
-1.2618642739336092
% V (V) @ t=0.04
0.020101635760556756
% es.normE (V/m) @ t=0.06
2.004003775033332
% es.EX (V/m) @ t=0.06
-1.4346797477778401
% es.EY (V/m) @ t=0.06
0.5463776806186442
% es.EZ (V/m) @ t=0.06
-1.2802363740452716
% es.tEX (V/m) @ t=0.06
-1.4346797477778415
% es.tEY (V/m) @ t=0.06
0
% es.tEZ (V/m) @ t=0.06
-1.2802363740452805
% es.Ex (V/m) @ t=0.06
-1.4346797477778401
% es.Ey (V/m) @ t=0.06
0.5463776806186442
% es.Ez (V/m) @ t=0.06
-1.2802363740452716
% es.tEx (V/m) @ t=0.06
-1.4346797477778415
% es.tEy (V/m) @ t=0.06
0
% es.tEz (V/m) @ t=0.06
-1.2802363740452805
% V (V) @ t=0.06
0.020394298129916534
% es.normE (V/m) @ t=0.08
2.0333542423714466
% es.EX (V/m) @ t=0.08
-1.4556921024336646
% es.EY (V/m) @ t=0.08
0.5543793712127405
% es.EZ (V/m) @ t=0.08
-1.2989866969534063
% es.tEX (V/m) @ t=0.08
-1.4556921024336624
% es.tEY (V/m) @ t=0.08
0
% es.tEZ (V/m) @ t=0.08
-1.2989866969534063
% es.Ex (V/m) @ t=0.08
-1.4556921024336646
% es.Ey (V/m) @ t=0.08
0.5543793712127405
% es.Ez (V/m) @ t=0.08
-1.2989866969534063
% es.tEx (V/m) @ t=0.08
-1.4556921024336624
% es.tEy (V/m) @ t=0.08
0
% es.tEz (V/m) @ t=0.08
-1.2989866969534063
% V (V) @ t=0.08
0.020693005981155293
% es.normE (V/m) @ t=0.1
2.0627047097098
% es.EX (V/m) @ t=0.1
-1.4767044570894798
% es.EY (V/m) @ t=0.1
0.562381061806851
% es.EZ (V/m) @ t=0.1
-1.3177370198615517
% es.tEX (V/m) @ t=0.1
-1.4767044570894754
% es.tEY (V/m) @ t=0.1
0
% es.tEZ (V/m) @ t=0.1
-1.317737019861564
% es.Ex (V/m) @ t=0.1
-1.4767044570894798
% es.Ey (V/m) @ t=0.1
0.562381061806851
% es.Ez (V/m) @ t=0.1
-1.3177370198615517
% es.tEx (V/m) @ t=0.1
-1.4767044570894754
% es.tEy (V/m) @ t=0.1
0
% es.tEz (V/m) @ t=0.1
-1.317737019861564
% V (V) @ t=0.1
0.02099171383239405
% es.normE (V/m) @ t=0.12
2.093139781311368
% es.EX (V/m) @ t=0.12
-1.4984909715834327
% es.EY (V/m) @ t=0.12
0.570686098154614
% es.EZ (V/m) @ t=0.12
-1.3371788111406975
% es.tEX (V/m) @ t=0.12
-1.4984909715834265
% es.tEY (V/m) @ t=0.12
0
% es.tEZ (V/m) @ t=0.12
-1.33717881114071
% es.Ex (V/m) @ t=0.12
-1.4984909715834327
% es.Ey (V/m) @ t=0.12
0.570686098154614
% es.Ez (V/m) @ t=0.12
-1.3371788111406975
% es.tEx (V/m) @ t=0.12
-1.4984909715834265
% es.tEy (V/m) @ t=0.12
0
% es.tEz (V/m) @ t=0.12
-1.33717881114071
% V (V) @ t=0.12
0.021301239217329307
% es.normE (V/m) @ t=0.14
2.1242286076833556
% es.EX (V/m) @ t=0.14
-1.520744117666902
% es.EY (V/m) @ t=0.14
0.579173978799107
% es.EZ (V/m) @ t=0.14
-1.3570373910068927
% es.tEX (V/m) @ t=0.14
-1.5207441176669079
% es.tEY (V/m) @ t=0.14
0
% es.tEZ (V/m) @ t=0.14
-1.3570373910069158
% es.Ex (V/m) @ t=0.14
-1.520744117666902
% es.Ey (V/m) @ t=0.14
0.579173978799107
% es.Ez (V/m) @ t=0.14
-1.3570373910068927
% es.tEx (V/m) @ t=0.14
-1.5207441176669079
% es.tEy (V/m) @ t=0.14
0
% es.tEz (V/m) @ t=0.14
-1.3570373910069158
% V (V) @ t=0.14
0.021617284964978906
% es.normE (V/m) @ t=0.16
2.1553174341716446
% es.EX (V/m) @ t=0.16
-1.5429972637503617
% es.EY (V/m) @ t=0.16
0.5876618594436649
% es.EZ (V/m) @ t=0.16
-1.376895970873095
% es.tEX (V/m) @ t=0.16
-1.5429972637503546
% es.tEY (V/m) @ t=0.16
0
% es.tEZ (V/m) @ t=0.16
-1.3768959708731074
% es.Ex (V/m) @ t=0.16
-1.5429972637503617
% es.Ey (V/m) @ t=0.16
0.5876618594436649
% es.Ez (V/m) @ t=0.16
-1.376895970873095
% es.tEx (V/m) @ t=0.16
-1.5429972637503546
% es.tEy (V/m) @ t=0.16
0
% es.tEz (V/m) @ t=0.16
-1.3768959708731074
% V (V) @ t=0.16
0.02193333071262851
% es.normE (V/m) @ t=0.18
2.186406260771235
% es.EX (V/m) @ t=0.18
-1.565250409833824
% es.EY (V/m) @ t=0.18
0.5961497400881806
% es.EZ (V/m) @ t=0.18
-1.396754550739269
% es.tEX (V/m) @ t=0.18
-1.565250409833829
% es.tEY (V/m) @ t=0.18
0
% es.tEZ (V/m) @ t=0.18
-1.3967545507392778
% es.Ex (V/m) @ t=0.18
-1.565250409833824
% es.Ey (V/m) @ t=0.18
0.5961497400881806
% es.Ez (V/m) @ t=0.18
-1.396754550739269
% es.tEx (V/m) @ t=0.18
-1.565250409833829
% es.tEy (V/m) @ t=0.18
0
% es.tEz (V/m) @ t=0.18
-1.3967545507392778
% V (V) @ t=0.18
0.022249376460278105
% es.normE (V/m) @ t=0.2
2.217495087477525
% es.EX (V/m) @ t=0.2
-1.5875035559173134
% es.EY (V/m) @ t=0.2
0.6046376207327215
% es.EZ (V/m) @ t=0.2
-1.416613130605489
% es.tEX (V/m) @ t=0.2
-1.5875035559172952
% es.tEY (V/m) @ t=0.2
0
% es.tEZ (V/m) @ t=0.2
-1.4166131306055014
% es.Ex (V/m) @ t=0.2
-1.5875035559173134
% es.Ey (V/m) @ t=0.2
0.6046376207327215
% es.Ez (V/m) @ t=0.2
-1.416613130605489
% es.tEx (V/m) @ t=0.2
-1.5875035559172952
% es.tEy (V/m) @ t=0.2
0
% es.tEz (V/m) @ t=0.2
-1.4166131306055014
% V (V) @ t=0.2
0.022565422207927708
% es.normE (V/m) @ t=0.22
2.249039114911784
% es.EX (V/m) @ t=0.22
-1.610084359574214
% es.EY (V/m) @ t=0.22
0.6132437459338287
% es.EZ (V/m) @ t=0.22
-1.4367636025298367
% es.tEX (V/m) @ t=0.22
-1.610084359574211
% es.tEY (V/m) @ t=0.22
0
% es.tEZ (V/m) @ t=0.22
-1.4367636025298367
% es.Ex (V/m) @ t=0.22
-1.610084359574214
% es.Ey (V/m) @ t=0.22
0.6132437459338287
% es.Ez (V/m) @ t=0.22
-1.4367636025298367
% es.tEx (V/m) @ t=0.22
-1.610084359574211
% es.tEy (V/m) @ t=0.22
0
% es.tEz (V/m) @ t=0.22
-1.4367636025298367
% V (V) @ t=0.22
0.02288626953240816
% es.normE (V/m) @ t=0.24
2.2819387587652953
% es.EX (V/m) @ t=0.24
-1.6336409482428018
% es.EY (V/m) @ t=0.24
0.6222020109156485
% es.EZ (V/m) @ t=0.24
-1.4577833474954165
% es.tEX (V/m) @ t=0.24
-1.6336409482428094
% es.tEY (V/m) @ t=0.24
0
% es.tEZ (V/m) @ t=0.24
-1.457783347495429
% es.Ex (V/m) @ t=0.24
-1.6336409482428018
% es.Ey (V/m) @ t=0.24
0.6222020109156485
% es.Ez (V/m) @ t=0.24
-1.4577833474954165
% es.tEx (V/m) @ t=0.24
-1.6336409482428094
% es.tEy (V/m) @ t=0.24
0
% es.tEz (V/m) @ t=0.24
-1.457783347495429
% V (V) @ t=0.24
0.02322141625688292
% es.normE (V/m) @ t=0.26
2.3148384027428364
% es.EX (V/m) @ t=0.26
-1.6571975369113834
% es.EY (V/m) @ t=0.26
0.6311602758973764
% es.EZ (V/m) @ t=0.26
-1.4788030924610087
% es.tEX (V/m) @ t=0.26
-1.6571975369113794
% es.tEY (V/m) @ t=0.26
0
% es.tEZ (V/m) @ t=0.26
-1.4788030924610176
% es.Ex (V/m) @ t=0.26
-1.6571975369113834
% es.Ey (V/m) @ t=0.26
0.6311602758973764
% es.Ez (V/m) @ t=0.26
-1.4788030924610087
% es.tEx (V/m) @ t=0.26
-1.6571975369113794
% es.tEy (V/m) @ t=0.26
0
% es.tEz (V/m) @ t=0.26
-1.4788030924610176
% V (V) @ t=0.26
0.023556562981357672
% es.normE (V/m) @ t=0.28
2.3477380468392104
% es.EX (V/m) @ t=0.28
-1.6807541255799694
% es.EY (V/m) @ t=0.28
0.6401185408791186
% es.EZ (V/m) @ t=0.28
-1.4998228374265885
% es.tEX (V/m) @ t=0.28
-1.680754125579977
% es.tEY (V/m) @ t=0.28
0
% es.tEZ (V/m) @ t=0.28
-1.4998228374265956
% es.Ex (V/m) @ t=0.28
-1.6807541255799694
% es.Ey (V/m) @ t=0.28
0.6401185408791186
% es.Ez (V/m) @ t=0.28
-1.4998228374265885
% es.tEx (V/m) @ t=0.28
-1.680754125579977
% es.tEy (V/m) @ t=0.28
0
% es.tEz (V/m) @ t=0.28
-1.4998228374265956
% V (V) @ t=0.28
0.023891709705832424
% es.normE (V/m) @ t=0.3
2.380637691049528
% es.EX (V/m) @ t=0.3
-1.7043107142485447
% es.EY (V/m) @ t=0.3
0.6490768058609255
% es.EZ (V/m) @ t=0.3
-1.5208425823922038
% es.tEX (V/m) @ t=0.3
-1.7043107142485399
% es.tEY (V/m) @ t=0.3
0
% es.tEZ (V/m) @ t=0.3
-1.520842582392202
% es.Ex (V/m) @ t=0.3
-1.7043107142485447
% es.Ey (V/m) @ t=0.3
0.6490768058609255
% es.Ez (V/m) @ t=0.3
-1.5208425823922038
% es.tEx (V/m) @ t=0.3
-1.7043107142485399
% es.tEy (V/m) @ t=0.3
0
% es.tEz (V/m) @ t=0.3
-1.520842582392202
% V (V) @ t=0.3
0.024226856430307184
% es.normE (V/m) @ t=0.32
2.4135373353690817
% es.EX (V/m) @ t=0.32
-1.727867302917144
% es.EY (V/m) @ t=0.32
0.6580350708426783
% es.EZ (V/m) @ t=0.32
-1.541862327357796
% es.tEX (V/m) @ t=0.32
-1.7278673029171578
% es.tEY (V/m) @ t=0.32
0
% es.tEZ (V/m) @ t=0.32
-1.5418623273577907
% es.Ex (V/m) @ t=0.32
-1.727867302917144
% es.Ey (V/m) @ t=0.32
0.6580350708426783
% es.Ez (V/m) @ t=0.32
-1.541862327357796
% es.tEx (V/m) @ t=0.32
-1.7278673029171578
% es.tEy (V/m) @ t=0.32
0
% es.tEz (V/m) @ t=0.32
-1.5418623273577907
% V (V) @ t=0.32
0.02456200315478194
% es.normE (V/m) @ t=0.34
2.449532779886116
% es.EX (V/m) @ t=0.34
-1.7536371099613954
% es.EY (V/m) @ t=0.34
0.6678475688374705
% es.EZ (V/m) @ t=0.34
-1.5648578947005465
% es.tEX (V/m) @ t=0.34
-1.7536371099613994
% es.tEY (V/m) @ t=0.34
0
% es.tEZ (V/m) @ t=0.34
-1.5648578947005447
% es.Ex (V/m) @ t=0.34
-1.7536371099613954
% es.Ey (V/m) @ t=0.34
0.6678475688374705
% es.Ez (V/m) @ t=0.34
-1.5648578947005465
% es.tEx (V/m) @ t=0.34
-1.7536371099613994
% es.tEy (V/m) @ t=0.34
0
% es.tEz (V/m) @ t=0.34
-1.5648578947005447
% V (V) @ t=0.34
0.024928361392147734
% es.normE (V/m) @ t=0.36
2.485955050569416
% es.EX (V/m) @ t=0.36
-1.7797120592862226
% es.EY (V/m) @ t=0.36
0.6777778422007064
% es.EZ (V/m) @ t=0.36
-1.58812587390873
% es.tEX (V/m) @ t=0.36
-1.779712059286231
% es.tEY (V/m) @ t=0.36
0
% es.tEZ (V/m) @ t=0.36
-1.5881258739087194
% es.Ex (V/m) @ t=0.36
-1.7797120592862226
% es.Ey (V/m) @ t=0.36
0.6777778422007064
% es.Ez (V/m) @ t=0.36
-1.58812587390873
% es.tEx (V/m) @ t=0.36
-1.779712059286231
% es.tEy (V/m) @ t=0.36
0
% es.tEz (V/m) @ t=0.36
-1.5881258739087194
% V (V) @ t=0.36
0.025299022843479953
% es.normE (V/m) @ t=0.38
2.5223773212527263
% es.EX (V/m) @ t=0.38
-1.8057870086110737
% es.EY (V/m) @ t=0.38
0.6877081155640115
% es.EZ (V/m) @ t=0.38
-1.611393853116878
% es.tEX (V/m) @ t=0.38
-1.8057870086110537
% es.tEY (V/m) @ t=0.38
0
% es.tEZ (V/m) @ t=0.38
-1.6113938531168763
% es.Ex (V/m) @ t=0.38
-1.8057870086110737
% es.Ey (V/m) @ t=0.38
0.6877081155640115
% es.Ez (V/m) @ t=0.38
-1.611393853116878
% es.tEx (V/m) @ t=0.38
-1.8057870086110537
% es.tEy (V/m) @ t=0.38
0
% es.tEz (V/m) @ t=0.38
-1.6113938531168763
% V (V) @ t=0.38
0.025669684294812176
% es.normE (V/m) @ t=0.4
2.558799591936036
% es.EX (V/m) @ t=0.4
-1.831861957935915
% es.EY (V/m) @ t=0.4
0.6976383889273166
% es.EZ (V/m) @ t=0.4
-1.634661832325028
% es.tEX (V/m) @ t=0.4
-1.8318619579359057
% es.tEY (V/m) @ t=0.4
0
% es.tEZ (V/m) @ t=0.4
-1.6346618323250368
% es.Ex (V/m) @ t=0.4
-1.831861957935915
% es.Ey (V/m) @ t=0.4
0.6976383889273166
% es.Ez (V/m) @ t=0.4
-1.634661832325028
% es.tEx (V/m) @ t=0.4
-1.8318619579359057
% es.tEy (V/m) @ t=0.4
0
% es.tEz (V/m) @ t=0.4
-1.6346618323250368
% V (V) @ t=0.4
0.0260403457461444
% es.normE (V/m) @ t=0.42
2.5952218626193337
% es.EX (V/m) @ t=0.42
-1.8579369072607475
% es.EY (V/m) @ t=0.42
0.7075686622905453
% es.EZ (V/m) @ t=0.42
-1.6579298115332044
% es.tEX (V/m) @ t=0.42
-1.8579369072607417
% es.tEY (V/m) @ t=0.42
0
% es.tEZ (V/m) @ t=0.42
-1.657929811533208
% es.Ex (V/m) @ t=0.42
-1.8579369072607475
% es.Ey (V/m) @ t=0.42
0.7075686622905453
% es.Ez (V/m) @ t=0.42
-1.6579298115332044
% es.tEx (V/m) @ t=0.42
-1.8579369072607417
% es.tEy (V/m) @ t=0.42
0
% es.tEz (V/m) @ t=0.42
-1.657929811533208
% V (V) @ t=0.42
0.02641100719747662
% es.normE (V/m) @ t=0.44
2.6316441333026406
% es.EX (V/m) @ t=0.44
-1.884011856585602
% es.EY (V/m) @ t=0.44
0.7174989356538193
% es.EZ (V/m) @ t=0.44
-1.6811977907413542
% es.tEX (V/m) @ t=0.44
-1.884011856585614
% es.tEY (V/m) @ t=0.44
0
% es.tEZ (V/m) @ t=0.44
-1.6811977907413826
% es.Ex (V/m) @ t=0.44
-1.884011856585602
% es.Ey (V/m) @ t=0.44
0.7174989356538193
% es.Ez (V/m) @ t=0.44
-1.6811977907413542
% es.tEx (V/m) @ t=0.44
-1.884011856585614
% es.tEy (V/m) @ t=0.44
0
% es.tEz (V/m) @ t=0.44
-1.6811977907413826
% V (V) @ t=0.44
0.02678166864880884
% es.normE (V/m) @ t=0.46
2.6680664039859683
% es.EX (V/m) @ t=0.46
-1.9100868059104497
% es.EY (V/m) @ t=0.46
0.7274292090171217
% es.EZ (V/m) @ t=0.46
-1.7044657699495307
% es.tEX (V/m) @ t=0.46
-1.9100868059104386
% es.tEY (V/m) @ t=0.46
0
% es.tEZ (V/m) @ t=0.46
-1.7044657699495538
% es.Ex (V/m) @ t=0.46
-1.9100868059104497
% es.Ey (V/m) @ t=0.46
0.7274292090171217
% es.Ez (V/m) @ t=0.46
-1.7044657699495307
% es.tEx (V/m) @ t=0.46
-1.9100868059104386
% es.tEy (V/m) @ t=0.46
0
% es.tEz (V/m) @ t=0.46
-1.7044657699495538
% V (V) @ t=0.46
0.027152330100141057
% es.normE (V/m) @ t=0.48
2.7044886746692876
% es.EX (V/m) @ t=0.48
-1.9361617552352972
% es.EY (V/m) @ t=0.48
0.7373594823803922
% es.EZ (V/m) @ t=0.48
-1.727733749157709
% es.tEX (V/m) @ t=0.48
-1.9361617552353048
% es.tEY (V/m) @ t=0.48
0
% es.tEZ (V/m) @ t=0.48
-1.7277337491577143
% es.Ex (V/m) @ t=0.48
-1.9361617552352972
% es.Ey (V/m) @ t=0.48
0.7373594823803922
% es.Ez (V/m) @ t=0.48
-1.727733749157709
% es.tEx (V/m) @ t=0.48
-1.9361617552353048
% es.tEy (V/m) @ t=0.48
0
% es.tEz (V/m) @ t=0.48
-1.7277337491577143
% V (V) @ t=0.48
0.027522991551473284
% es.normE (V/m) @ t=0.5
2.740910945352603
% es.EX (V/m) @ t=0.5
-1.9622367045601599
% es.EY (V/m) @ t=0.5
0.7472897557436369
% es.EZ (V/m) @ t=0.5
-1.7510017283658712
% es.tEX (V/m) @ t=0.5
-1.9622367045601639
% es.tEY (V/m) @ t=0.5
0
% es.tEZ (V/m) @ t=0.5
-1.7510017283658748
% es.Ex (V/m) @ t=0.5
-1.9622367045601599
% es.Ey (V/m) @ t=0.5
0.7472897557436369
% es.Ez (V/m) @ t=0.5
-1.7510017283658712
% es.tEx (V/m) @ t=0.5
-1.9622367045601639
% es.tEy (V/m) @ t=0.5
0
% es.tEz (V/m) @ t=0.5
-1.7510017283658748
% V (V) @ t=0.5
0.027893653002805507
% es.normE (V/m) @ t=0.52
2.777333216035898
% es.EX (V/m) @ t=0.52
-1.9883116538849932
% es.EY (V/m) @ t=0.52
0.7572200291069118
% es.EZ (V/m) @ t=0.52
-1.7742697075740264
% es.tEX (V/m) @ t=0.52
-1.9883116538849874
% es.tEY (V/m) @ t=0.52
0
% es.tEZ (V/m) @ t=0.52
-1.7742697075740317
% es.Ex (V/m) @ t=0.52
-1.9883116538849932
% es.Ey (V/m) @ t=0.52
0.7572200291069118
% es.Ez (V/m) @ t=0.52
-1.7742697075740264
% es.tEx (V/m) @ t=0.52
-1.9883116538849874
% es.tEy (V/m) @ t=0.52
0
% es.tEz (V/m) @ t=0.52
-1.7742697075740317
% V (V) @ t=0.52
0.028264314454137733
% es.normE (V/m) @ t=0.54
2.8141380986531033
% es.EX (V/m) @ t=0.54
-2.0146605256794783
% es.EY (V/m) @ t=0.54
0.7672546155236395
% es.EZ (V/m) @ t=0.54
-1.7977821070068103
% es.tEX (V/m) @ t=0.54
-2.0146605256794743
% es.tEY (V/m) @ t=0.54
0
% es.tEZ (V/m) @ t=0.54
-1.7977821070068103
% es.Ex (V/m) @ t=0.54
-2.0146605256794783
% es.Ey (V/m) @ t=0.54
0.7672546155236395
% es.Ez (V/m) @ t=0.54
-1.7977821070068103
% es.tEx (V/m) @ t=0.54
-2.0146605256794743
% es.tEy (V/m) @ t=0.54
0
% es.tEz (V/m) @ t=0.54
-1.7977821070068103
% V (V) @ t=0.54
0.028638869769366124
% es.normE (V/m) @ t=0.56
2.853421196652607
% es.EX (V/m) @ t=0.56
-2.0427836204339065
% es.EY (V/m) @ t=0.56
0.7779648479165759
% es.EZ (V/m) @ t=0.56
-1.8228776404369995
% es.tEX (V/m) @ t=0.56
-2.0427836204339185
% es.tEY (V/m) @ t=0.56
0
% es.tEZ (V/m) @ t=0.56
-1.8228776404369995
% es.Ex (V/m) @ t=0.56
-2.0427836204339065
% es.Ey (V/m) @ t=0.56
0.7779648479165759
% es.Ez (V/m) @ t=0.56
-1.8228776404369995
% es.tEx (V/m) @ t=0.56
-2.0427836204339185
% es.tEy (V/m) @ t=0.56
0
% es.tEz (V/m) @ t=0.56
-1.8228776404369995
% V (V) @ t=0.56
0.029038646026623396
% es.normE (V/m) @ t=0.58
2.8927042946521597
% es.EX (V/m) @ t=0.58
-2.070906715188349
% es.EY (V/m) @ t=0.58
0.7886750803095808
% es.EZ (V/m) @ t=0.58
-1.847973173867219
% es.tEX (V/m) @ t=0.58
-2.0709067151883502
% es.tEY (V/m) @ t=0.58
0
% es.tEZ (V/m) @ t=0.58
-1.8479731738672314
% es.Ex (V/m) @ t=0.58
-2.070906715188349
% es.Ey (V/m) @ t=0.58
0.7886750803095808
% es.Ez (V/m) @ t=0.58
-1.847973173867219
% es.tEx (V/m) @ t=0.58
-2.0709067151883502
% es.tEy (V/m) @ t=0.58
0
% es.tEz (V/m) @ t=0.58
-1.8479731738672314
% V (V) @ t=0.58
0.02943842228388066
% es.normE (V/m) @ t=0.6
2.931987392651683
% es.EX (V/m) @ t=0.6
-2.099029809942776
% es.EY (V/m) @ t=0.6
0.7993853127025101
% es.EZ (V/m) @ t=0.6
-1.8730687072974348
% es.tEX (V/m) @ t=0.6
-2.099029809942766
% es.tEY (V/m) @ t=0.6
0
% es.tEZ (V/m) @ t=0.6
-1.8730687072974312
% es.Ex (V/m) @ t=0.6
-2.099029809942776
% es.Ey (V/m) @ t=0.6
0.7993853127025101
% es.Ez (V/m) @ t=0.6
-1.8730687072974348
% es.tEx (V/m) @ t=0.6
-2.099029809942766
% es.tEy (V/m) @ t=0.6
0
% es.tEz (V/m) @ t=0.6
-1.8730687072974312
% V (V) @ t=0.6
0.029838198541137933
% es.normE (V/m) @ t=0.62
2.971270490651211
% es.EX (V/m) @ t=0.62
-2.1271529046971938
% es.EY (V/m) @ t=0.62
0.8100955450954697
% es.EZ (V/m) @ t=0.62
-1.898164240727656
% es.tEX (V/m) @ t=0.62
-2.1271529046971898
% es.tEY (V/m) @ t=0.62
0
% es.tEZ (V/m) @ t=0.62
-1.8981642407276489
% es.Ex (V/m) @ t=0.62
-2.1271529046971938
% es.Ey (V/m) @ t=0.62
0.8100955450954697
% es.Ez (V/m) @ t=0.62
-1.898164240727656
% es.tEx (V/m) @ t=0.62
-2.1271529046971898
% es.tEy (V/m) @ t=0.62
0
% es.tEz (V/m) @ t=0.62
-1.8981642407276489
% V (V) @ t=0.62
0.030237974798395198
% es.normE (V/m) @ t=0.64
3.0105535886507457
% es.EX (V/m) @ t=0.64
-2.155275999451647
% es.EY (V/m) @ t=0.64
0.8208057774884576
% es.EZ (V/m) @ t=0.64
-1.923259774157831
% es.tEX (V/m) @ t=0.64
-2.155275999451643
% es.tEY (V/m) @ t=0.64
0
% es.tEZ (V/m) @ t=0.64
-1.923259774157824
% es.Ex (V/m) @ t=0.64
-2.155275999451647
% es.Ey (V/m) @ t=0.64
0.8208057774884576
% es.Ez (V/m) @ t=0.64
-1.923259774157831
% es.tEx (V/m) @ t=0.64
-2.155275999451643
% es.tEy (V/m) @ t=0.64
0
% es.tEz (V/m) @ t=0.64
-1.923259774157824
% V (V) @ t=0.64
0.030637751055652473
% es.normE (V/m) @ t=0.66
3.049836686650301
% es.EX (V/m) @ t=0.66
-2.183399094206074
% es.EY (V/m) @ t=0.66
0.8315160098814092
% es.EZ (V/m) @ t=0.66
-1.948355307588077
% es.tEX (V/m) @ t=0.66
-2.183399094206072
% es.tEY (V/m) @ t=0.66
0
% es.tEZ (V/m) @ t=0.66
-1.9483553075880948
% es.Ex (V/m) @ t=0.66
-2.183399094206074
% es.Ey (V/m) @ t=0.66
0.8315160098814092
% es.Ez (V/m) @ t=0.66
-1.948355307588077
% es.tEx (V/m) @ t=0.66
-2.183399094206072
% es.tEy (V/m) @ t=0.66
0
% es.tEz (V/m) @ t=0.66
-1.9483553075880948
% V (V) @ t=0.66
0.03103752731290974
% es.normE (V/m) @ t=0.68
3.089119784649833
% es.EX (V/m) @ t=0.68
-2.211522188960505
% es.EY (V/m) @ t=0.68
0.8422262422743643
% es.EZ (V/m) @ t=0.68
-1.973450841018277
% es.tEX (V/m) @ t=0.68
-2.211522188960501
% es.tEY (V/m) @ t=0.68
0
% es.tEZ (V/m) @ t=0.68
-1.9734508410182947
% es.Ex (V/m) @ t=0.68
-2.211522188960505
% es.Ey (V/m) @ t=0.68
0.8422262422743643
% es.Ez (V/m) @ t=0.68
-1.973450841018277
% es.tEx (V/m) @ t=0.68
-2.211522188960501
% es.tEy (V/m) @ t=0.68
0
% es.tEz (V/m) @ t=0.68
-1.9734508410182947
% V (V) @ t=0.68
0.03143730357016702
% es.normE (V/m) @ t=0.7
3.1284028826494046
% es.EX (V/m) @ t=0.7
-2.239645283714957
% es.EY (V/m) @ t=0.7
0.8529364746673442
% es.EZ (V/m) @ t=0.7
-1.9985463744485052
% es.tEX (V/m) @ t=0.7
-2.2396452837149585
% es.tEY (V/m) @ t=0.7
0
% es.tEZ (V/m) @ t=0.7
-1.998546374448523
% es.Ex (V/m) @ t=0.7
-2.239645283714957
% es.Ey (V/m) @ t=0.7
0.8529364746673442
% es.Ez (V/m) @ t=0.7
-1.9985463744485052
% es.tEx (V/m) @ t=0.7
-2.2396452837149585
% es.tEy (V/m) @ t=0.7
0
% es.tEz (V/m) @ t=0.7
-1.998546374448523
% V (V) @ t=0.7
0.031837079827424286
% es.normE (V/m) @ t=0.72
3.1676859806488653
% es.EX (V/m) @ t=0.72
-2.2677683784693614
% es.EY (V/m) @ t=0.72
0.8636467070602949
% es.EZ (V/m) @ t=0.72
-2.0236419078786234
% es.tEX (V/m) @ t=0.72
-2.2677683784693663
% es.tEY (V/m) @ t=0.72
0
% es.tEZ (V/m) @ t=0.72
-2.0236419078786696
% es.Ex (V/m) @ t=0.72
-2.2677683784693614
% es.Ey (V/m) @ t=0.72
0.8636467070602949
% es.Ez (V/m) @ t=0.72
-2.0236419078786234
% es.tEx (V/m) @ t=0.72
-2.2677683784693663
% es.tEy (V/m) @ t=0.72
0
% es.tEz (V/m) @ t=0.72
-2.0236419078786696
% V (V) @ t=0.72
0.032236856084681555
% es.normE (V/m) @ t=0.74
3.2080177367971725
% es.EX (V/m) @ t=0.74
-2.2966410451596775
% es.EY (V/m) @ t=0.74
0.8746465508517218
% es.EZ (V/m) @ t=0.74
-2.0494067305140895
% es.tEX (V/m) @ t=0.74
-2.2966410451596806
% es.tEY (V/m) @ t=0.74
0
% es.tEZ (V/m) @ t=0.74
-2.049406730514111
% es.Ex (V/m) @ t=0.74
-2.2966410451596775
% es.Ey (V/m) @ t=0.74
0.8746465508517218
% es.Ez (V/m) @ t=0.74
-2.0494067305140895
% es.tEx (V/m) @ t=0.74
-2.2966410451596806
% es.tEy (V/m) @ t=0.74
0
% es.tEz (V/m) @ t=0.74
-2.049406730514111
% V (V) @ t=0.74
0.0326471974624277
% es.normE (V/m) @ t=0.76
3.249564974892286
% es.EX (V/m) @ t=0.76
-2.32638252800044
% es.EY (V/m) @ t=0.76
0.8859820783157462
% es.EZ (V/m) @ t=0.76
-2.0759473149449477
% es.tEX (V/m) @ t=0.76
-2.326382528000434
% es.tEY (V/m) @ t=0.76
0
% es.tEZ (V/m) @ t=0.76
-2.0759473149449263
% es.Ex (V/m) @ t=0.76
-2.32638252800044
% es.Ey (V/m) @ t=0.76
0.8859820783157462
% es.Ez (V/m) @ t=0.76
-2.0759473149449477
% es.tEx (V/m) @ t=0.76
-2.326382528000434
% es.tEy (V/m) @ t=0.76
0
% es.tEz (V/m) @ t=0.76
-2.0759473149449263
% V (V) @ t=0.76
0.033069784692603396
% es.normE (V/m) @ t=0.78
3.2911122130227453
% es.EX (V/m) @ t=0.78
-2.356124010841149
% es.EY (V/m) @ t=0.78
0.8973176057798025
% es.EZ (V/m) @ t=0.78
-2.1024878993758183
% es.tEX (V/m) @ t=0.78
-2.3561240108411514
% es.tEY (V/m) @ t=0.78
0
% es.tEZ (V/m) @ t=0.78
-2.1024878993758094
% es.Ex (V/m) @ t=0.78
-2.356124010841149
% es.Ey (V/m) @ t=0.78
0.8973176057798025
% es.Ez (V/m) @ t=0.78
-2.1024878993758183
% es.tEx (V/m) @ t=0.78
-2.3561240108411514
% es.tEy (V/m) @ t=0.78
0
% es.tEz (V/m) @ t=0.78
-2.1024878993758094
% V (V) @ t=0.78
0.03349237192277909
% es.normE (V/m) @ t=0.8
3.332659451187248
% es.EX (V/m) @ t=0.8
-2.3858654936819312
% es.EY (V/m) @ t=0.8
0.908653133243857
% es.EZ (V/m) @ t=0.8
-2.1290284838066
% es.tEX (V/m) @ t=0.8
-2.3858654936819272
% es.tEY (V/m) @ t=0.8
0
% es.tEZ (V/m) @ t=0.8
-2.129028483806593
% es.Ex (V/m) @ t=0.8
-2.3858654936819312
% es.Ey (V/m) @ t=0.8
0.908653133243857
% es.Ez (V/m) @ t=0.8
-2.1290284838066
% es.tEx (V/m) @ t=0.8
-2.3858654936819272
% es.tEy (V/m) @ t=0.8
0
% es.tEz (V/m) @ t=0.8
-2.129028483806593
% V (V) @ t=0.8
0.03391495915295478
% es.normE (V/m) @ t=0.82
3.374206689384563
% es.EX (V/m) @ t=0.82
-2.415606976522667
% es.EY (V/m) @ t=0.82
0.9199886607078751
% es.EZ (V/m) @ t=0.82
-2.1555690682374795
% es.tEX (V/m) @ t=0.82
-2.415606976522656
% es.tEY (V/m) @ t=0.82
0
% es.tEZ (V/m) @ t=0.82
-2.155569068237501
% es.Ex (V/m) @ t=0.82
-2.415606976522667
% es.Ey (V/m) @ t=0.82
0.9199886607078751
% es.Ez (V/m) @ t=0.82
-2.1555690682374795
% es.tEx (V/m) @ t=0.82
-2.415606976522656
% es.tEy (V/m) @ t=0.82
0
% es.tEz (V/m) @ t=0.82
-2.155569068237501
% V (V) @ t=0.82
0.03433754638313046
% es.normE (V/m) @ t=0.84
3.4157539276134963
% es.EX (V/m) @ t=0.84
-2.4453484593634367
% es.EY (V/m) @ t=0.84
0.9313241881720131
% es.EZ (V/m) @ t=0.84
-2.1821096526683075
% es.tEX (V/m) @ t=0.84
-2.445348459363439
% es.tEY (V/m) @ t=0.84
0
% es.tEZ (V/m) @ t=0.84
-2.182109652668313
% es.Ex (V/m) @ t=0.84
-2.4453484593634367
% es.Ey (V/m) @ t=0.84
0.9313241881720131
% es.Ez (V/m) @ t=0.84
-2.1821096526683075
% es.tEx (V/m) @ t=0.84
-2.445348459363439
% es.tEy (V/m) @ t=0.84
0
% es.tEz (V/m) @ t=0.84
-2.182109652668313
% V (V) @ t=0.84
0.034760133613306154
% es.normE (V/m) @ t=0.86
3.4573011658728667
% es.EX (V/m) @ t=0.86
-2.475089942204199
% es.EY (V/m) @ t=0.86
0.9426597156359806
% es.EZ (V/m) @ t=0.86
-2.2086502370991905
% es.tEX (V/m) @ t=0.86
-2.475089942204196
% es.tEY (V/m) @ t=0.86
0
% es.tEZ (V/m) @ t=0.86
-2.2086502370991994
% es.Ex (V/m) @ t=0.86
-2.475089942204199
% es.Ey (V/m) @ t=0.86
0.9426597156359806
% es.Ez (V/m) @ t=0.86
-2.2086502370991905
% es.tEx (V/m) @ t=0.86
-2.475089942204196
% es.tEy (V/m) @ t=0.86
0
% es.tEz (V/m) @ t=0.86
-2.2086502370991994
% V (V) @ t=0.86
0.03518272084348185
% es.normE (V/m) @ t=0.88
3.4988484041615813
% es.EX (V/m) @ t=0.88
-2.504831425044942
% es.EY (V/m) @ t=0.88
0.9539952431000556
% es.EZ (V/m) @ t=0.88
-2.2351908215300114
% es.tEX (V/m) @ t=0.88
-2.5048314250449497
% es.tEY (V/m) @ t=0.88
0
% es.tEZ (V/m) @ t=0.88
-2.2351908215299936
% es.Ex (V/m) @ t=0.88
-2.504831425044942
% es.Ey (V/m) @ t=0.88
0.9539952431000556
% es.Ez (V/m) @ t=0.88
-2.2351908215300114
% es.tEx (V/m) @ t=0.88
-2.5048314250449497
% es.tEy (V/m) @ t=0.88
0
% es.tEz (V/m) @ t=0.88
-2.2351908215299936
% V (V) @ t=0.88
0.03560530807365754
% es.normE (V/m) @ t=0.9
3.540395642478689
% es.EX (V/m) @ t=0.9
-2.5345729078857224
% es.EY (V/m) @ t=0.9
0.9653307705640408
% es.EZ (V/m) @ t=0.9
-2.2617314059609157
% es.tEX (V/m) @ t=0.9
-2.534572907885723
% es.tEY (V/m) @ t=0.9
0
% es.tEZ (V/m) @ t=0.9
-2.2617314059609086
% es.Ex (V/m) @ t=0.9
-2.5345729078857224
% es.Ey (V/m) @ t=0.9
0.9653307705640408
% es.Ez (V/m) @ t=0.9
-2.2617314059609157
% es.tEx (V/m) @ t=0.9
-2.534572907885723
% es.tEy (V/m) @ t=0.9
0
% es.tEz (V/m) @ t=0.9
-2.2617314059609086
% V (V) @ t=0.9
0.03602789530383323
% es.normE (V/m) @ t=0.92
3.5819428808230924
% es.EX (V/m) @ t=0.92
-2.5643143907264867
% es.EY (V/m) @ t=0.92
0.9766662980281806
% es.EZ (V/m) @ t=0.92
-2.288271990391694
% es.tEX (V/m) @ t=0.92
-2.5643143907264836
% es.tEY (V/m) @ t=0.92
0
% es.tEZ (V/m) @ t=0.92
-2.2882719903916744
% es.Ex (V/m) @ t=0.92
-2.5643143907264867
% es.Ey (V/m) @ t=0.92
0.9766662980281806
% es.Ez (V/m) @ t=0.92
-2.288271990391694
% es.tEx (V/m) @ t=0.92
-2.5643143907264836
% es.tEy (V/m) @ t=0.92
0
% es.tEz (V/m) @ t=0.92
-2.2882719903916744
% V (V) @ t=0.92
0.03645048253400891
% es.normE (V/m) @ t=0.94
3.624632161257132
% es.EX (V/m) @ t=0.94
-2.594878091438004
% es.EY (V/m) @ t=0.94
0.9882980698852526
% es.EZ (V/m) @ t=0.94
-2.3155449283561307
% es.tEX (V/m) @ t=0.94
-2.5948780914380016
% es.tEY (V/m) @ t=0.94
0
% es.tEZ (V/m) @ t=0.94
-2.3155449283561467
% es.Ex (V/m) @ t=0.94
-2.594878091438004
% es.Ey (V/m) @ t=0.94
0.9882980698852526
% es.Ez (V/m) @ t=0.94
-2.3155449283561307
% es.tEx (V/m) @ t=0.94
-2.5948780914380016
% es.tEy (V/m) @ t=0.94
0
% es.tEz (V/m) @ t=0.94
-2.3155449283561467
% V (V) @ t=0.94
0.036885128390495577
% es.normE (V/m) @ t=0.96
3.6676203214387684
% es.EX (V/m) @ t=0.96
-2.625656971801164
% es.EY (V/m) @ t=0.96
1.0000073707861494
% es.EZ (V/m) @ t=0.96
-2.343009527903023
% es.tEX (V/m) @ t=0.96
-2.625656971801156
% es.tEY (V/m) @ t=0.96
0
% es.tEZ (V/m) @ t=0.96
-2.343009527903021
% es.Ex (V/m) @ t=0.96
-2.625656971801164
% es.Ey (V/m) @ t=0.96
1.0000073707861494
% es.Ez (V/m) @ t=0.96
-2.343009527903023
% es.tEx (V/m) @ t=0.96
-2.625656971801156
% es.tEy (V/m) @ t=0.96
0
% es.tEz (V/m) @ t=0.96
-2.343009527903021
% V (V) @ t=0.96
0.03732293006626209
% es.normE (V/m) @ t=0.98
3.7106084816914353
% es.EX (V/m) @ t=0.98
-2.6564358521643197
% es.EY (V/m) @ t=0.98
1.0117166716870676
% es.EZ (V/m) @ t=0.98
-2.370474127449839
% es.tEX (V/m) @ t=0.98
-2.6564358521643214
% es.tEY (V/m) @ t=0.98
0
% es.tEZ (V/m) @ t=0.98
-2.370474127449853
% es.Ex (V/m) @ t=0.98
-2.6564358521643197
% es.Ey (V/m) @ t=0.98
1.0117166716870676
% es.Ez (V/m) @ t=0.98
-2.370474127449839
% es.tEx (V/m) @ t=0.98
-2.6564358521643214
% es.tEy (V/m) @ t=0.98
0
% es.tEz (V/m) @ t=0.98
-2.370474127449853
% V (V) @ t=0.98
0.0377607317420286
% es.normE (V/m) @ t=1
3.753596642012803
% es.EX (V/m) @ t=1
-2.6872147325275435
% es.EY (V/m) @ t=1
1.0234259725879546
% es.EZ (V/m) @ t=1
-2.397938726996699
% es.tEX (V/m) @ t=1
-2.687214732527538
% es.tEY (V/m) @ t=1
0
% es.tEZ (V/m) @ t=1
-2.3979387269966814
% es.Ex (V/m) @ t=1
-2.6872147325275435
% es.Ey (V/m) @ t=1
1.0234259725879546
% es.Ez (V/m) @ t=1
-2.397938726996699
% es.tEx (V/m) @ t=1
-2.687214732527538
% es.tEy (V/m) @ t=1
0
% es.tEz (V/m) @ t=1
-2.3979387269966814
% V (V) @ t=1
0.03819853341779512
% es.normE (V/m) @ t=1.02
3.7965848024004227
% es.EX (V/m) @ t=1.02
-2.717993612890706
% es.EY (V/m) @ t=1.02
1.0351352734888337
% es.EZ (V/m) @ t=1.02
-2.4254033265435453
% es.tEX (V/m) @ t=1.02
-2.717993612890723
% es.tEY (V/m) @ t=1.02
0
% es.tEZ (V/m) @ t=1.02
-2.42540332654357
% es.Ex (V/m) @ t=1.02
-2.717993612890706
% es.Ey (V/m) @ t=1.02
1.0351352734888337
% es.Ez (V/m) @ t=1.02
-2.4254033265435453
% es.tEx (V/m) @ t=1.02
-2.717993612890723
% es.tEy (V/m) @ t=1.02
0
% es.tEz (V/m) @ t=1.02
-2.42540332654357
% V (V) @ t=1.02
0.03863633509356164
% es.normE (V/m) @ t=1.04
3.8395729628521797
% es.EX (V/m) @ t=1.04
-2.7487724932539193
% es.EY (V/m) @ t=1.04
1.0468445743897483
% es.EZ (V/m) @ t=1.04
-2.4528679260904145
% es.tEX (V/m) @ t=1.04