% Model:              1 neuron.mph
% Version:            COMSOL 6.0.0.405
% Date:               Mar 16 2023, 19:08
% Dimension:          0
% Nodes:              14017
% Expressions:        14017
% Description:        Electric field norm, Electric field, X component, Electric field, Y component, Electric field, Z component, Tangential electric field, X component, Tangential electric field, Y component, Tangential electric field, Z component, Electric field, x component, Electric field, y component, Electric field, z component, Tangential electric field, x component, Tangential electric field, y component, Tangential electric field, z component, Electric potential
% Length unit:        mm
% x
1
% y
12.2
% z
1.33
% es.normE (V/m) @ t=0
2.2144745058623716
% es.EX (V/m) @ t=0
2.046465089913281
% es.EY (V/m) @ t=0
0.12885764397215227
% es.EZ (V/m) @ t=0
0.8273071282778977
% es.tEX (V/m) @ t=0
2.046465089913287
% es.tEY (V/m) @ t=0
0
% es.tEZ (V/m) @ t=0
0.8273071282778863
% es.Ex (V/m) @ t=0
2.046465089913281
% es.Ey (V/m) @ t=0
0.12885764397215227
% es.Ez (V/m) @ t=0
0.8273071282778977
% es.tEx (V/m) @ t=0
2.046465089913287
% es.tEy (V/m) @ t=0
0
% es.tEz (V/m) @ t=0
0.8273071282778863
% V (V) @ t=0
0.011046165289677104
% es.normE (V/m) @ t=0.02
1.9232891479027603
% es.EX (V/m) @ t=0.02
1.7773716007621623
% es.EY (V/m) @ t=0.02
0.11191391478245416
% es.EZ (V/m) @ t=0.02
0.7185229821753356
% es.tEX (V/m) @ t=0.02
1.7773716007621658
% es.tEY (V/m) @ t=0.02
0
% es.tEZ (V/m) @ t=0.02
0.7185229821753394
% es.Ex (V/m) @ t=0.02
1.7773716007621623
% es.Ey (V/m) @ t=0.02
0.11191391478245416
% es.Ez (V/m) @ t=0.02
0.7185229821753356
% es.tEx (V/m) @ t=0.02
1.7773716007621658
% es.tEy (V/m) @ t=0.02
0
% es.tEz (V/m) @ t=0.02
0.7185229821753394
% V (V) @ t=0.02
0.009593684454668967
% es.normE (V/m) @ t=0.04
1.9518091306391696
% es.EX (V/m) @ t=0.04
1.803727806189869
% es.EY (V/m) @ t=0.04
0.11357346188985662
% es.EZ (V/m) @ t=0.04
0.7291777876169381
% es.tEX (V/m) @ t=0.04
1.8037278061898654
% es.tEY (V/m) @ t=0.04
0
% es.tEZ (V/m) @ t=0.04
0.729177787616941
% es.Ex (V/m) @ t=0.04
1.803727806189869
% es.Ey (V/m) @ t=0.04
0.11357346188985662
% es.Ez (V/m) @ t=0.04
0.7291777876169381
% es.tEx (V/m) @ t=0.04
1.8037278061898654
% es.tEy (V/m) @ t=0.04
0
% es.tEz (V/m) @ t=0.04
0.729177787616941
% V (V) @ t=0.04
0.009735946645522846
% es.normE (V/m) @ t=0.06
1.9807498520266316
% es.EX (V/m) @ t=0.06
1.8304728319870849
% es.EY (V/m) @ t=0.06
0.11525748676941805
% es.EZ (V/m) @ t=0.06
0.7399897706034022
% es.tEX (V/m) @ t=0.06
1.8304728319870769
% es.tEY (V/m) @ t=0.06
0
% es.tEZ (V/m) @ t=0.06
0.7399897706034047
% es.Ex (V/m) @ t=0.06
1.8304728319870849
% es.Ey (V/m) @ t=0.06
0.11525748676941805
% es.Ez (V/m) @ t=0.06
0.7399897706034022
% es.tEx (V/m) @ t=0.06
1.8304728319870769
% es.tEy (V/m) @ t=0.06
0
% es.tEz (V/m) @ t=0.06
0.7399897706034047
% V (V) @ t=0.06
0.009880307843354141
% es.normE (V/m) @ t=0.08
2.01044587310355
% es.EX (V/m) @ t=0.08
1.857915853349711
% es.EY (V/m) @ t=0.08
0.11698546245453478
% es.EZ (V/m) @ t=0.08
0.7510839277269021
% es.tEX (V/m) @ t=0.08
1.8579158533497075
% es.tEY (V/m) @ t=0.08
0
% es.tEZ (V/m) @ t=0.08
0.7510839277268988
% es.Ex (V/m) @ t=0.08
1.857915853349711
% es.Ey (V/m) @ t=0.08
0.11698546245453478
% es.Ez (V/m) @ t=0.08
0.7510839277269021
% es.tEx (V/m) @ t=0.08
1.8579158533497075
% es.tEy (V/m) @ t=0.08
0
% es.tEz (V/m) @ t=0.08
0.7510839277268988
% V (V) @ t=0.08
0.010028436545707035
% es.normE (V/m) @ t=0.1
2.0406336172075648
% es.EX (V/m) @ t=0.1
1.8858132910150731
% es.EY (V/m) @ t=0.1
0.11874205144830252
% es.EZ (V/m) @ t=0.1
0.7623617887797509
% es.tEX (V/m) @ t=0.1
1.8858132910150687
% es.tEY (V/m) @ t=0.1
0
% es.tEZ (V/m) @ t=0.1
0.7623617887797494
% es.Ex (V/m) @ t=0.1
1.8858132910150731
% es.Ey (V/m) @ t=0.1
0.11874205144830252
% es.Ez (V/m) @ t=0.1
0.7623617887797509
% es.tEx (V/m) @ t=0.1
1.8858132910150687
% es.tEy (V/m) @ t=0.1
0
% es.tEz (V/m) @ t=0.1
0.7623617887797494
% V (V) @ t=0.1
0.010179018007877
% es.normE (V/m) @ t=0.12
2.0708213613116033
% es.EX (V/m) @ t=0.12
1.9137107286804511
% es.EY (V/m) @ t=0.12
0.12049864044204972
% es.EZ (V/m) @ t=0.12
0.7736396498326277
% es.tEX (V/m) @ t=0.12
1.9137107286804618
% es.tEY (V/m) @ t=0.12
0
% es.tEZ (V/m) @ t=0.12
0.7736396498326279
% es.Ex (V/m) @ t=0.12
1.9137107286804511
% es.Ey (V/m) @ t=0.12
0.12049864044204972
% es.Ez (V/m) @ t=0.12
0.7736396498326277
% es.tEx (V/m) @ t=0.12
1.9137107286804618
% es.tEy (V/m) @ t=0.12
0
% es.tEz (V/m) @ t=0.12
0.7736396498326279
% V (V) @ t=0.12
0.010329599470046967
% es.normE (V/m) @ t=0.14
2.101606844047115
% es.EX (V/m) @ t=0.14
1.9421605516131208
% es.EY (V/m) @ t=0.14
0.12229001737632317
% es.EZ (V/m) @ t=0.14
0.7851408295883278
% es.tEX (V/m) @ t=0.14
1.9421605516131244
% es.tEY (V/m) @ t=0.14
0
% es.tEZ (V/m) @ t=0.14
0.7851408295883253
% es.Ex (V/m) @ t=0.14
1.9421605516131208
% es.Ey (V/m) @ t=0.14
0.12229001737632317
% es.Ez (V/m) @ t=0.14
0.7851408295883278
% es.tEx (V/m) @ t=0.14
1.9421605516131244
% es.tEy (V/m) @ t=0.14
0
% es.tEz (V/m) @ t=0.14
0.7851408295883253
% V (V) @ t=0.14
0.010483162146555841
% es.normE (V/m) @ t=0.16
2.1344958653420916
% es.EX (V/m) @ t=0.16
1.9725543073088003
% es.EY (V/m) @ t=0.16
0.1242038186787161
% es.EZ (V/m) @ t=0.16
0.7974279038432066
% es.tEX (V/m) @ t=0.16
1.9725543073088083
% es.tEY (V/m) @ t=0.16
0
% es.tEZ (V/m) @ t=0.16
0.7974279038432095
% es.Ex (V/m) @ t=0.16
1.9725543073088003
% es.Ey (V/m) @ t=0.16
0.1242038186787161
% es.Ez (V/m) @ t=0.16
0.7974279038432066
% es.tEx (V/m) @ t=0.16
1.9725543073088083
% es.tEy (V/m) @ t=0.16
0
% es.tEz (V/m) @ t=0.16
0.7974279038432095
% V (V) @ t=0.16
0.010647216196694809
% es.normE (V/m) @ t=0.18
2.1673848866370684
% es.EX (V/m) @ t=0.18
2.002948063004471
% es.EY (V/m) @ t=0.18
0.12611761998110094
% es.EZ (V/m) @ t=0.18
0.8097149780981019
% es.tEX (V/m) @ t=0.18
2.002948063004471
% es.tEY (V/m) @ t=0.18
0
% es.tEZ (V/m) @ t=0.18
0.8097149780981017
% es.Ex (V/m) @ t=0.18
2.002948063004471
% es.Ey (V/m) @ t=0.18
0.12611761998110094
% es.Ez (V/m) @ t=0.18
0.8097149780981019
% es.tEx (V/m) @ t=0.18
2.002948063004471
% es.tEy (V/m) @ t=0.18
0
% es.tEz (V/m) @ t=0.18
0.8097149780981017
% V (V) @ t=0.18
0.010811270246833779
% es.normE (V/m) @ t=0.2
2.2002739079320532
% es.EX (V/m) @ t=0.2
2.033341818700154
% es.EY (V/m) @ t=0.2
0.12803142128349476
% es.EZ (V/m) @ t=0.2
0.8220020523529843
% es.tEX (V/m) @ t=0.2
2.0333418187001566
% es.tEY (V/m) @ t=0.2
0
% es.tEZ (V/m) @ t=0.2
0.8220020523529752
% es.Ex (V/m) @ t=0.2
2.033341818700154
% es.Ey (V/m) @ t=0.2
0.12803142128349476
% es.Ez (V/m) @ t=0.2
0.8220020523529843
% es.tEx (V/m) @ t=0.2
2.0333418187001566
% es.tEy (V/m) @ t=0.2
0
% es.tEz (V/m) @ t=0.2
0.8220020523529752
% V (V) @ t=0.2
0.010975324296972745
% es.normE (V/m) @ t=0.22
2.2331629292270376
% es.EX (V/m) @ t=0.22
2.063735574395836
% es.EY (V/m) @ t=0.22
0.12994522258587227
% es.EZ (V/m) @ t=0.22
0.8342891266078667
% es.tEX (V/m) @ t=0.22
2.063735574395835
% es.tEY (V/m) @ t=0.22
0
% es.tEZ (V/m) @ t=0.22
0.8342891266078643
% es.Ex (V/m) @ t=0.22
2.063735574395836
% es.Ey (V/m) @ t=0.22
0.12994522258587227
% es.Ez (V/m) @ t=0.22
0.8342891266078667
% es.tEx (V/m) @ t=0.22
2.063735574395835
% es.tEy (V/m) @ t=0.22
0
% es.tEz (V/m) @ t=0.22
0.8342891266078643
% V (V) @ t=0.22
0.011139378347111716
% es.normE (V/m) @ t=0.24
2.266051950522019
% es.EX (V/m) @ t=0.24
2.094129330091514
% es.EY (V/m) @ t=0.24
0.1318590238882713
% es.EZ (V/m) @ t=0.24
0.846576200862746
% es.tEX (V/m) @ t=0.24
2.094129330091512
% es.tEY (V/m) @ t=0.24
0
% es.tEZ (V/m) @ t=0.24
0.8465762008627458
% es.Ex (V/m) @ t=0.24
2.094129330091514
% es.Ey (V/m) @ t=0.24
0.1318590238882713
% es.Ez (V/m) @ t=0.24
0.846576200862746
% es.tEx (V/m) @ t=0.24
2.094129330091512
% es.tEy (V/m) @ t=0.24
0
% es.tEz (V/m) @ t=0.24
0.8465762008627458
% V (V) @ t=0.24
0.011303432397250686
% es.normE (V/m) @ t=0.26
2.298940971817001
% es.EX (V/m) @ t=0.26
2.124523085787189
% es.EY (V/m) @ t=0.26
0.1337728251906527
% es.EZ (V/m) @ t=0.26
0.8588632751176319
% es.tEX (V/m) @ t=0.26
2.1245230857871835
% es.tEY (V/m) @ t=0.26
0
% es.tEZ (V/m) @ t=0.26
0.8588632751176264
% es.Ex (V/m) @ t=0.26
2.124523085787189
% es.Ey (V/m) @ t=0.26
0.1337728251906527
% es.Ez (V/m) @ t=0.26
0.8588632751176319
% es.tEx (V/m) @ t=0.26
2.1245230857871835
% es.tEy (V/m) @ t=0.26
0
% es.tEz (V/m) @ t=0.26
0.8588632751176264
% V (V) @ t=0.26
0.01146748644738965
% es.normE (V/m) @ t=0.28
2.3331490916065034
% es.EX (V/m) @ t=0.28
2.1561358663620878
% es.EY (V/m) @ t=0.28
0.13576337533945015
% es.EZ (V/m) @ t=0.28
0.8716431406093743
% es.tEX (V/m) @ t=0.28
2.1561358663620833
% es.tEY (V/m) @ t=0.28
0
% es.tEZ (V/m) @ t=0.28
0.8716431406093825
% es.Ex (V/m) @ t=0.28
2.1561358663620878
% es.Ey (V/m) @ t=0.28
0.13576337533945015
% es.Ez (V/m) @ t=0.28
0.8716431406093743
% es.tEx (V/m) @ t=0.28
2.1561358663620833
% es.tEy (V/m) @ t=0.28
0
% es.tEz (V/m) @ t=0.28
0.8716431406093825
% V (V) @ t=0.28
0.011638120894962868
% es.normE (V/m) @ t=0.3
2.368953407137213
% es.EX (V/m) @ t=0.3
2.1892237470365723
% es.EY (V/m) @ t=0.3
0.13784679662889399
% es.EZ (V/m) @ t=0.3
0.8850193158360422
% es.tEX (V/m) @ t=0.3
2.1892237470365767
% es.tEY (V/m) @ t=0.3
0
% es.tEZ (V/m) @ t=0.3
0.8850193158360398
% es.Ex (V/m) @ t=0.3
2.1892237470365723
% es.Ey (V/m) @ t=0.3
0.13784679662889399
% es.Ez (V/m) @ t=0.3
0.8850193158360422
% es.tEx (V/m) @ t=0.3
2.1892237470365767
% es.tEy (V/m) @ t=0.3
0
% es.tEz (V/m) @ t=0.3
0.8850193158360398
% V (V) @ t=0.3
0.011816718055255047
% es.normE (V/m) @ t=0.32
2.404757722667911
% es.EX (V/m) @ t=0.32
2.2223116277110497
% es.EY (V/m) @ t=0.32
0.13993021791831117
% es.EZ (V/m) @ t=0.32
0.8983954910626986
% es.tEX (V/m) @ t=0.32
2.222311627711049
% es.tEY (V/m) @ t=0.32
0
% es.tEZ (V/m) @ t=0.32
0.8983954910626952
% es.Ex (V/m) @ t=0.32
2.2223116277110497
% es.Ey (V/m) @ t=0.32
0.13993021791831117
% es.Ez (V/m) @ t=0.32
0.8983954910626986
% es.tEx (V/m) @ t=0.32
2.222311627711049
% es.tEy (V/m) @ t=0.32
0
% es.tEz (V/m) @ t=0.32
0.8983954910626952
% V (V) @ t=0.32
0.011995315215547224
% es.normE (V/m) @ t=0.34
2.440562038198598
% es.EX (V/m) @ t=0.34
2.2553995083855165
% es.EY (V/m) @ t=0.34
0.14201363920775656
% es.EZ (V/m) @ t=0.34
0.9117716662893522
% es.tEX (V/m) @ t=0.34
2.255399508385521
% es.tEY (V/m) @ t=0.34
0
% es.tEZ (V/m) @ t=0.34
0.9117716662893525
% es.Ex (V/m) @ t=0.34
2.2553995083855165
% es.Ey (V/m) @ t=0.34
0.14201363920775656
% es.Ez (V/m) @ t=0.34
0.9117716662893522
% es.tEx (V/m) @ t=0.34
2.255399508385521
% es.tEy (V/m) @ t=0.34
0
% es.tEz (V/m) @ t=0.34
0.9117716662893525
% V (V) @ t=0.34
0.012173912375839405
% es.normE (V/m) @ t=0.36
2.476366353729298
% es.EX (V/m) @ t=0.36
2.2884873890599957
% es.EY (V/m) @ t=0.36
0.14409706049717985
% es.EZ (V/m) @ t=0.36
0.9251478415160106
% es.tEX (V/m) @ t=0.36
2.288487389059986
% es.tEY (V/m) @ t=0.36
0
% es.tEZ (V/m) @ t=0.36
0.9251478415160044
% es.Ex (V/m) @ t=0.36
2.2884873890599957
% es.Ey (V/m) @ t=0.36
0.14409706049717985
% es.Ez (V/m) @ t=0.36
0.9251478415160106
% es.tEx (V/m) @ t=0.36
2.288487389059986
% es.tEy (V/m) @ t=0.36
0
% es.tEz (V/m) @ t=0.36
0.9251478415160044
% V (V) @ t=0.36
0.012352509536131583
% es.normE (V/m) @ t=0.38
2.512170669259983
% es.EX (V/m) @ t=0.38
2.3215752697344607
% es.EY (V/m) @ t=0.38
0.14618048178660503
% es.EZ (V/m) @ t=0.38
0.9385240167426616
% es.tEX (V/m) @ t=0.38
2.3215752697344705
% es.tEY (V/m) @ t=0.38
0
% es.tEZ (V/m) @ t=0.38
0.9385240167426634
% es.Ex (V/m) @ t=0.38
2.3215752697344607
% es.Ey (V/m) @ t=0.38
0.14618048178660503
% es.Ez (V/m) @ t=0.38
0.9385240167426616
% es.tEx (V/m) @ t=0.38
2.3215752697344705
% es.tEy (V/m) @ t=0.38
0
% es.tEz (V/m) @ t=0.38
0.9385240167426634
% V (V) @ t=0.38
0.01253110669642376
% es.normE (V/m) @ t=0.4
2.5479749847906916
% es.EX (V/m) @ t=0.4
2.354663150408947
% es.EY (V/m) @ t=0.4
0.14826390307603377
% es.EZ (V/m) @ t=0.4
0.9519001919693264
% es.tEX (V/m) @ t=0.4
2.3546631504089497
% es.tEY (V/m) @ t=0.4
0
% es.tEZ (V/m) @ t=0.4
0.9519001919693224
% es.Ex (V/m) @ t=0.4
2.354663150408947
% es.Ey (V/m) @ t=0.4
0.14826390307603377
% es.Ez (V/m) @ t=0.4
0.9519001919693264
% es.tEx (V/m) @ t=0.4
2.3546631504089497
% es.tEy (V/m) @ t=0.4
0
% es.tEz (V/m) @ t=0.4
0.9519001919693224
% V (V) @ t=0.4
0.012709703856715942
% es.normE (V/m) @ t=0.42
2.585921899636757
% es.EX (V/m) @ t=0.42
2.3897310668151954
% es.EY (V/m) @ t=0.42
0.15047201178025604
% es.EZ (V/m) @ t=0.42
0.9660768403446482
% es.tEX (V/m) @ t=0.42
2.3897310668152016
% es.tEY (V/m) @ t=0.42
0
% es.tEZ (V/m) @ t=0.42
0.9660768403446429
% es.Ex (V/m) @ t=0.42
2.3897310668151954
% es.Ey (V/m) @ t=0.42
0.15047201178025604
% es.Ez (V/m) @ t=0.42
0.9660768403446482
% es.tEx (V/m) @ t=0.42
2.3897310668152016
% es.tEy (V/m) @ t=0.42
0
% es.tEz (V/m) @ t=0.42
0.9660768403446429
% V (V) @ t=0.42
0.012898987869896968
% es.normE (V/m) @ t=0.44
2.6248601800213516
% es.EX (V/m) @ t=0.44
2.425715131740419
% es.EY (V/m) @ t=0.44
0.15273781246880735
% es.EZ (V/m) @ t=0.44
0.9806238619803445
% es.tEX (V/m) @ t=0.44
2.4257151317404055
% es.tEY (V/m) @ t=0.44
0
% es.tEZ (V/m) @ t=0.44
0.98062386198034
% es.Ex (V/m) @ t=0.44
2.425715131740419
% es.Ey (V/m) @ t=0.44
0.15273781246880735
% es.Ez (V/m) @ t=0.44
0.9806238619803445
% es.tEx (V/m) @ t=0.44
2.4257151317404055
% es.tEy (V/m) @ t=0.44
0
% es.tEz (V/m) @ t=0.44
0.98062386198034
% V (V) @ t=0.44
0.013093216614271135
% es.normE (V/m) @ t=0.46
2.663798460405939
% es.EX (V/m) @ t=0.46
2.4616991966656316
% es.EY (V/m) @ t=0.46
0.15500361315734967
% es.EZ (V/m) @ t=0.46
0.9951708836160478
% es.tEX (V/m) @ t=0.46
2.461699196665629
% es.tEY (V/m) @ t=0.46
0
% es.tEZ (V/m) @ t=0.46
0.9951708836160442
% es.Ex (V/m) @ t=0.46
2.4616991966656316
% es.Ey (V/m) @ t=0.46
0.15500361315734967
% es.Ez (V/m) @ t=0.46
0.9951708836160478
% es.tEx (V/m) @ t=0.46
2.461699196665629
% es.tEy (V/m) @ t=0.46
0
% es.tEz (V/m) @ t=0.46
0.9951708836160442
% V (V) @ t=0.46
0.0132874453586453
% es.normE (V/m) @ t=0.48
2.702736740790522
% es.EX (V/m) @ t=0.48
2.4976832615908453
% es.EY (V/m) @ t=0.48
0.157269413845894
% es.EZ (V/m) @ t=0.48
1.0097179052517338
% es.tEX (V/m) @ t=0.48
2.4976832615908453
% es.tEY (V/m) @ t=0.48
0
% es.tEZ (V/m) @ t=0.48
1.009717905251728
% es.Ex (V/m) @ t=0.48
2.4976832615908453
% es.Ey (V/m) @ t=0.48
0.157269413845894
% es.Ez (V/m) @ t=0.48
1.0097179052517338
% es.tEx (V/m) @ t=0.48
2.4976832615908453
% es.tEy (V/m) @ t=0.48
0
% es.tEz (V/m) @ t=0.48
1.009717905251728
% V (V) @ t=0.48
0.013481674103019467
% es.normE (V/m) @ t=0.5
2.7416750211751078
% es.EX (V/m) @ t=0.5
2.533667326516057
% es.EY (V/m) @ t=0.5
0.15953521453445252
% es.EZ (V/m) @ t=0.5
1.0242649268874287
% es.tEX (V/m) @ t=0.5
2.533667326516058
% es.tEY (V/m) @ t=0.5
0
% es.tEZ (V/m) @ t=0.5
1.0242649268874295
% es.Ex (V/m) @ t=0.5
2.533667326516057
% es.Ey (V/m) @ t=0.5
0.15953521453445252
% es.Ez (V/m) @ t=0.5
1.0242649268874287
% es.tEx (V/m) @ t=0.5
2.533667326516058
% es.tEy (V/m) @ t=0.5
0
% es.tEz (V/m) @ t=0.5
1.0242649268874295
% V (V) @ t=0.5
0.013675902847393631
% es.normE (V/m) @ t=0.52
2.7806133015596926
% es.EX (V/m) @ t=0.52
2.5696513914412638
% es.EY (V/m) @ t=0.52
0.1618010152229875
% es.EZ (V/m) @ t=0.52
1.0388119485231302
% es.tEX (V/m) @ t=0.52
2.5696513914412638
% es.tEY (V/m) @ t=0.52
0
% es.tEZ (V/m) @ t=0.52
1.038811948523131
% es.Ex (V/m) @ t=0.52
2.5696513914412638
% es.Ey (V/m) @ t=0.52
0.1618010152229875
% es.Ez (V/m) @ t=0.52
1.0388119485231302
% es.tEx (V/m) @ t=0.52
2.5696513914412638
% es.tEy (V/m) @ t=0.52
0
% es.tEz (V/m) @ t=0.52
1.038811948523131
% V (V) @ t=0.52
0.013870131591767797
% es.normE (V/m) @ t=0.54
2.8195515819442942
% es.EX (V/m) @ t=0.54
2.605635456366487
% es.EY (V/m) @ t=0.54
0.16406681591154426
% es.EZ (V/m) @ t=0.54
1.0533589701588326
% es.tEX (V/m) @ t=0.54
2.6056354563664854
% es.tEY (V/m) @ t=0.54
0
% es.tEZ (V/m) @ t=0.54
1.0533589701588264
% es.Ex (V/m) @ t=0.54
2.605635456366487
% es.Ey (V/m) @ t=0.54
0.16406681591154426
% es.Ez (V/m) @ t=0.54
1.0533589701588326
% es.tEx (V/m) @ t=0.54
2.6056354563664854
% es.tEy (V/m) @ t=0.54
0
% es.tEz (V/m) @ t=0.54
1.0533589701588264
% V (V) @ t=0.54
0.014064360336141963
% es.normE (V/m) @ t=0.56
2.8598649662735545
% es.EX (V/m) @ t=0.56
2.6428903011616605
% es.EY (V/m) @ t=0.56
0.1664126262696367
% es.EZ (V/m) @ t=0.56
1.0684197096235408
% es.tEX (V/m) @ t=0.56
2.642890301161664
% es.tEY (V/m) @ t=0.56
0
% es.tEZ (V/m) @ t=0.56
1.068419709623547
% es.Ex (V/m) @ t=0.56
2.6428903011616605
% es.Ey (V/m) @ t=0.56
0.1664126262696367
% es.Ez (V/m) @ t=0.56
1.0684197096235408
% es.tEx (V/m) @ t=0.56
2.642890301161664
% es.tEy (V/m) @ t=0.56
0
% es.tEz (V/m) @ t=0.56
1.068419709623547
% V (V) @ t=0.56
0.014265448710889223
% es.normE (V/m) @ t=0.58
2.9006808957750683
% es.EX (V/m) @ t=0.58
2.680609564876656
% es.EY (V/m) @ t=0.58
0.16878767694321617
% es.EZ (V/m) @ t=0.58
1.0836681922882514
% es.tEX (V/m) @ t=0.58
2.680609564876656
% es.tEY (V/m) @ t=0.58
0
% es.tEZ (V/m) @ t=0.58
1.0836681922882514
% es.Ex (V/m) @ t=0.58
2.680609564876656
% es.Ey (V/m) @ t=0.58
0.16878767694321617
% es.Ez (V/m) @ t=0.58
1.0836681922882514
% es.tEx (V/m) @ t=0.58
2.680609564876656
% es.tEy (V/m) @ t=0.58
0
% es.tEz (V/m) @ t=0.58
1.0836681922882514
% V (V) @ t=0.58
0.014469044004579512
% es.normE (V/m) @ t=0.6
2.941888061829533
% es.EX (V/m) @ t=0.6
2.718690383467429
% es.EY (V/m) @ t=0.6
0.17118549150123874
% es.EZ (V/m) @ t=0.6
1.0990628349529779
% es.tEX (V/m) @ t=0.6
2.7186903834674325
% es.tEY (V/m) @ t=0.6
0
% es.tEZ (V/m) @ t=0.6
1.0990628349529814
% es.Ex (V/m) @ t=0.6
2.718690383467429
% es.Ey (V/m) @ t=0.6
0.17118549150123874
% es.Ez (V/m) @ t=0.6
1.0990628349529779
% es.tEx (V/m) @ t=0.6
2.7186903834674325
% es.tEy (V/m) @ t=0.6
0
% es.tEz (V/m) @ t=0.6
1.0990628349529814
% V (V) @ t=0.6
0.01467459096028938
% es.normE (V/m) @ t=0.62
2.9834864644369787
% es.EX (V/m) @ t=0.62
2.757132756933995
% es.EY (V/m) @ t=0.62
0.17360606994374395
% es.EZ (V/m) @ t=0.62
1.1146036376177628
% es.tEX (V/m) @ t=0.62
2.7571327569339914
% es.tEY (V/m) @ t=0.62
0
% es.tEZ (V/m) @ t=0.62
1.1146036376177646
% es.Ex (V/m) @ t=0.62
2.757132756933995
% es.Ey (V/m) @ t=0.62
0.17360606994374395
% es.Ez (V/m) @ t=0.62
1.1146036376177628
% es.tEx (V/m) @ t=0.62
2.7571327569339914
% es.tEy (V/m) @ t=0.62
0
% es.tEz (V/m) @ t=0.62
1.1146036376177646
% V (V) @ t=0.62
0.014882089578018821
% es.normE (V/m) @ t=0.64
3.0254761035973674
% es.EX (V/m) @ t=0.64
2.7959366852763115
% es.EY (V/m) @ t=0.64
0.17604941227069915
% es.EZ (V/m) @ t=0.64
1.1302906002826143
% es.tEX (V/m) @ t=0.64
2.795936685276322
% es.tEY (V/m) @ t=0.64
0
% es.tEZ (V/m) @ t=0.64
1.1302906002826107
% es.Ex (V/m) @ t=0.64
2.7959366852763115
% es.Ey (V/m) @ t=0.64
0.17604941227069915
% es.Ez (V/m) @ t=0.64
1.1302906002826143
% es.tEx (V/m) @ t=0.64
2.795936685276322
% es.tEy (V/m) @ t=0.64
0
% es.tEz (V/m) @ t=0.64
1.1302906002826107
% V (V) @ t=0.64
0.015091539857767839
% es.normE (V/m) @ t=0.66
3.0678569793107098
% es.EX (V/m) @ t=0.66
2.8351021684944016
% es.EY (V/m) @ t=0.66
0.17851551848213654
% es.EZ (V/m) @ t=0.66
1.146123722947494
% es.tEX (V/m) @ t=0.66
2.8351021684944016
% es.tEY (V/m) @ t=0.66
0
% es.tEZ (V/m) @ t=0.66
1.1461237229474994
% es.Ex (V/m) @ t=0.66
2.8351021684944016
% es.Ey (V/m) @ t=0.66
0.17851551848213654
% es.Ez (V/m) @ t=0.66
1.146123722947494
% es.tEx (V/m) @ t=0.66
2.8351021684944016
% es.tEy (V/m) @ t=0.66
0
% es.tEz (V/m) @ t=0.66
1.1461237229474994
% V (V) @ t=0.66
0.015302941799536425
% es.normE (V/m) @ t=0.68
3.110629091577054
% es.EX (V/m) @ t=0.68
2.8746292065883
% es.EY (V/m) @ t=0.68
0.18100438857801182
% es.EZ (V/m) @ t=0.68
1.1621030056124573
% es.tEX (V/m) @ t=0.68
2.874629206588299
% es.tEY (V/m) @ t=0.68
0
% es.tEZ (V/m) @ t=0.68
1.1621030056124573
% es.Ex (V/m) @ t=0.68
2.8746292065883
% es.Ey (V/m) @ t=0.68
0.18100438857801182
% es.Ez (V/m) @ t=0.68
1.1621030056124573
% es.tEx (V/m) @ t=0.68
2.874629206588299
% es.tEy (V/m) @ t=0.68
0
% es.tEz (V/m) @ t=0.68
1.1621030056124573
% V (V) @ t=0.68
0.015516295403324592
% es.normE (V/m) @ t=0.7
3.1537924403963427
% es.EX (V/m) @ t=0.7
2.9145177995579656
% es.EY (V/m) @ t=0.7
0.1835160225583481
% es.EZ (V/m) @ t=0.7
1.1782284482774386
% es.tEX (V/m) @ t=0.7
2.914517799557963
% es.tEY (V/m) @ t=0.7
0
% es.tEZ (V/m) @ t=0.7
1.1782284482774363
% es.Ex (V/m) @ t=0.7
2.9145177995579656
% es.Ey (V/m) @ t=0.7
0.1835160225583481
% es.Ez (V/m) @ t=0.7
1.1782284482774386
% es.tEx (V/m) @ t=0.7
2.914517799557963
% es.tEy (V/m) @ t=0.7
0
% es.tEz (V/m) @ t=0.7
1.1782284482774363
% V (V) @ t=0.7
0.015731600669132328
% es.normE (V/m) @ t=0.72
3.1973470257685728
% es.EX (V/m) @ t=0.72
2.95476794740339
% es.EY (V/m) @ t=0.72
0.18605042042316478
% es.EZ (V/m) @ t=0.72
1.1945000509424633
% es.tEX (V/m) @ t=0.72
2.9547679474033846
% es.tEY (V/m) @ t=0.72
0
% es.tEZ (V/m) @ t=0.72
1.1945000509424615
% es.Ex (V/m) @ t=0.72
2.95476794740339
% es.Ey (V/m) @ t=0.72
0.18605042042316478
% es.Ez (V/m) @ t=0.72
1.1945000509424633
% es.tEx (V/m) @ t=0.72
2.9547679474033846
% es.tEy (V/m) @ t=0.72
0
% es.tEz (V/m) @ t=0.72
1.1945000509424615
% V (V) @ t=0.72
0.01594885759695964
% es.normE (V/m) @ t=0.74
3.2412928476937752
% es.EX (V/m) @ t=0.74
2.9953796501245886
% es.EY (V/m) @ t=0.74
0.18860758217243
% es.EZ (V/m) @ t=0.74
1.2109178136075682
% es.tEX (V/m) @ t=0.74
2.995379650124587
% es.tEY (V/m) @ t=0.74
0
% es.tEZ (V/m) @ t=0.74
1.21091781360757
% es.Ex (V/m) @ t=0.74
2.9953796501245886
% es.Ey (V/m) @ t=0.74
0.18860758217243
% es.Ez (V/m) @ t=0.74
1.2109178136075682
% es.tEx (V/m) @ t=0.74
2.995379650124587
% es.tEy (V/m) @ t=0.74
0
% es.tEz (V/m) @ t=0.74
1.21091781360757
% V (V) @ t=0.74
0.016168066186806527
% es.normE (V/m) @ t=0.76
3.2856299061719523
% es.EX (V/m) @ t=0.76
3.0363529077215894
% es.EY (V/m) @ t=0.76
0.19118750780614358
% es.EZ (V/m) @ t=0.76
1.2274817362726962
% es.tEX (V/m) @ t=0.76
3.036352907721586
% es.tEY (V/m) @ t=0.76
0
% es.tEZ (V/m) @ t=0.76
1.2274817362726962
% es.Ex (V/m) @ t=0.76
3.0363529077215894
% es.Ey (V/m) @ t=0.76
0.19118750780614358
% es.Ez (V/m) @ t=0.76
1.2274817362726962
% es.tEx (V/m) @ t=0.76
3.036352907721586
% es.tEy (V/m) @ t=0.76
0
% es.tEz (V/m) @ t=0.76
1.2274817362726962
% V (V) @ t=0.76
0.01638922643867299
% es.normE (V/m) @ t=0.78
3.330358201203061
% es.EX (V/m) @ t=0.78
3.0776877201943247
% es.EY (V/m) @ t=0.78
0.19379019732434322
% es.EZ (V/m) @ t=0.78
1.244191818937895
% es.tEX (V/m) @ t=0.78
3.077687720194323
% es.tEY (V/m) @ t=0.78
0
% es.tEZ (V/m) @ t=0.78
1.2441918189379004
% es.Ex (V/m) @ t=0.78
3.0776877201943247
% es.Ey (V/m) @ t=0.78
0.19379019732434322
% es.Ez (V/m) @ t=0.78
1.244191818937895
% es.tEx (V/m) @ t=0.78
3.077687720194323
% es.tEy (V/m) @ t=0.78
0
% es.tEz (V/m) @ t=0.78
1.2441918189379004
% V (V) @ t=0.78
0.01661233835255902
% es.normE (V/m) @ t=0.8
3.3754777327871652
% es.EX (V/m) @ t=0.8
3.1193840875428798
% es.EY (V/m) @ t=0.8
0.1964156507269592
% es.EZ (V/m) @ t=0.8
1.261048061603128
% es.tEX (V/m) @ t=0.8
3.119384087542887
% es.tEY (V/m) @ t=0.8
0
% es.tEZ (V/m) @ t=0.8
1.261048061603132
% es.Ex (V/m) @ t=0.8
3.1193840875428798
% es.Ey (V/m) @ t=0.8
0.1964156507269592
% es.Ez (V/m) @ t=0.8
1.261048061603128
% es.tEx (V/m) @ t=0.8
3.119384087542887
% es.tEy (V/m) @ t=0.8
0
% es.tEz (V/m) @ t=0.8
1.261048061603132
% V (V) @ t=0.8
0.016837401928464633
% es.normE (V/m) @ t=0.82
3.4212794407906273
% es.EX (V/m) @ t=0.82
3.1617108773317355
% es.EY (V/m) @ t=0.82
0.1990807965463408
% es.EZ (V/m) @ t=0.82
1.2781591543314335
% es.tEX (V/m) @ t=0.82
3.1617108773317426
% es.tEY (V/m) @ t=0.82
0
% es.tEZ (V/m) @ t=0.82
1.2781591543314388
% es.Ex (V/m) @ t=0.82
3.1617108773317355
% es.Ey (V/m) @ t=0.82
0.1990807965463408
% es.Ez (V/m) @ t=0.82
1.2781591543314335
% es.tEx (V/m) @ t=0.82
3.1617108773317426
% es.tEy (V/m) @ t=0.82
0
% es.tEz (V/m) @ t=0.82
1.2781591543314388
% V (V) @ t=0.82
0.01706586849127004
% es.normE (V/m) @ t=0.84
3.4680289763732164
% es.EX (V/m) @ t=0.84
3.204913586959469
% es.EY (V/m) @ t=0.84
0.20180109187429562
% es.EZ (V/m) @ t=0.84
1.2956243397658005
% es.tEX (V/m) @ t=0.84
3.204913586959476
% es.tEY (V/m) @ t=0.84
0
% es.tEZ (V/m) @ t=0.84
1.2956243397658058
% es.Ex (V/m) @ t=0.84
3.204913586959469
% es.Ey (V/m) @ t=0.84
0.20180109187429562
% es.Ez (V/m) @ t=0.84
1.2956243397658005
% es.tEx (V/m) @ t=0.84
3.204913586959476
% es.tEy (V/m) @ t=0.84
0
% es.tEz (V/m) @ t=0.84
1.2956243397658058
% V (V) @ t=0.84
0.017299063215631794
% es.normE (V/m) @ t=0.86
3.515280593935363
% es.EX (V/m) @ t=0.86
3.248580287544545
% es.EY (V/m) @ t=0.86
0.20455060070254327
% es.EZ (V/m) @ t=0.86
1.313277095119597
% es.tEX (V/m) @ t=0.86
3.2485802875445344
% es.tEY (V/m) @ t=0.86
0
% es.tEZ (V/m) @ t=0.86
1.3132770951196004
% es.Ex (V/m) @ t=0.86
3.248580287544545
% es.Ey (V/m) @ t=0.86
0.20455060070254327
% es.Ez (V/m) @ t=0.86
1.313277095119597
% es.tEx (V/m) @ t=0.86
3.2485802875445344
% es.tEy (V/m) @ t=0.86
0
% es.tEz (V/m) @ t=0.86
1.3132770951196004
% V (V) @ t=0.86
0.017534762543510867
% es.normE (V/m) @ t=0.88
3.563034293477083
% es.EX (V/m) @ t=0.88
3.2927109790869773
% es.EY (V/m) @ t=0.88
0.2073293230311426
% es.EZ (V/m) @ t=0.88
1.3311174203928178
% es.tEX (V/m) @ t=0.88
3.2927109790869764
% es.tEY (V/m) @ t=0.88
0
% es.tEZ (V/m) @ t=0.88
1.331117420392812
% es.Ex (V/m) @ t=0.88
3.2927109790869773
% es.Ey (V/m) @ t=0.88
0.2073293230311426
% es.Ez (V/m) @ t=0.88
1.3311174203928178
% es.tEx (V/m) @ t=0.88
3.2927109790869764
% es.tEy (V/m) @ t=0.88
0
% es.tEz (V/m) @ t=0.88
1.331117420392812
% V (V) @ t=0.88
0.017772966474907257
% es.normE (V/m) @ t=0.9
3.6112900749983683
% es.EX (V/m) @ t=0.9
3.3373056615867824
% es.EY (V/m) @ t=0.9
0.21013725886009493
% es.EZ (V/m) @ t=0.9
1.3491453155853952
% es.tEX (V/m) @ t=0.9
3.3373056615867966
% es.tEY (V/m) @ t=0.9
0
% es.tEZ (V/m) @ t=0.9
1.3491453155853934
% es.Ex (V/m) @ t=0.9
3.3373056615867824
% es.Ey (V/m) @ t=0.9
0.21013725886009493
% es.Ez (V/m) @ t=0.9
1.3491453155853952
% es.tEx (V/m) @ t=0.9
3.3373056615867966
% es.tEy (V/m) @ t=0.9
0
% es.tEz (V/m) @ t=0.9
1.3491453155853934
% V (V) @ t=0.9
0.018013675009820963
% es.normE (V/m) @ t=0.92
3.660047938499214
% es.EX (V/m) @ t=0.92
3.3823643350439374
% es.EY (V/m) @ t=0.92
0.21297440818940605
% es.EZ (V/m) @ t=0.92
1.3673607806973798
% es.tEX (V/m) @ t=0.92
3.382364335043924
% es.tEY (V/m) @ t=0.92
0
% es.tEZ (V/m) @ t=0.92
1.3673607806973775
% es.Ex (V/m) @ t=0.92
3.3823643350439374
% es.Ey (V/m) @ t=0.92
0.21297440818940605
% es.Ez (V/m) @ t=0.92
1.3673607806973798
% es.tEx (V/m) @ t=0.92
3.382364335043924
% es.tEy (V/m) @ t=0.92
0
% es.tEz (V/m) @ t=0.92
1.3673607806973775
% V (V) @ t=0.92
0.01825688814825198
% es.normE (V/m) @ t=0.94
3.7093078839796556
% es.EX (V/m) @ t=0.94
3.4278869994584706
% es.EY (V/m) @ t=0.94
0.215840771018998
% es.EZ (V/m) @ t=0.94
1.3857638157287995
% es.tEX (V/m) @ t=0.94
3.4278869994584653
% es.tEY (V/m) @ t=0.94
0
% es.tEZ (V/m) @ t=0.94
1.3857638157287937
% es.Ex (V/m) @ t=0.94
3.4278869994584706
% es.Ey (V/m) @ t=0.94
0.215840771018998
% es.Ez (V/m) @ t=0.94
1.3857638157287995
% es.tEx (V/m) @ t=0.94
3.4278869994584653
% es.tEy (V/m) @ t=0.94
0
% es.tEz (V/m) @ t=0.94
1.3857638157287937
% V (V) @ t=0.94
0.018502605890200308
% es.normE (V/m) @ t=0.96
3.759069911439651
% es.EX (V/m) @ t=0.96
3.473873654830358
% es.EY (V/m) @ t=0.96
0.21873634734895653
% es.EZ (V/m) @ t=0.96
1.4043544206795966
% es.tEX (V/m) @ t=0.96
3.4738736548303493
% es.tEY (V/m) @ t=0.96
0
% es.tEZ (V/m) @ t=0.96
1.4043544206795984
% es.Ex (V/m) @ t=0.96
3.473873654830358
% es.Ey (V/m) @ t=0.96
0.21873634734895653
% es.Ez (V/m) @ t=0.96
1.4043544206795966
% es.tEx (V/m) @ t=0.96
3.4738736548303493
% es.tEy (V/m) @ t=0.96
0
% es.tEz (V/m) @ t=0.96
1.4043544206795984
% V (V) @ t=0.96
0.018750828235665956
% es.normE (V/m) @ t=0.98
3.8093340208791924
% es.EX (V/m) @ t=0.98
3.5203243011595884
% es.EY (V/m) @ t=0.98
0.22166113717924785
% es.EZ (V/m) @ t=0.98
1.4231325955497747
% es.tEX (V/m) @ t=0.98
3.5203243011595937
% es.tEY (V/m) @ t=0.98
0
% es.tEZ (V/m) @ t=0.98
1.4231325955497836
% es.Ex (V/m) @ t=0.98
3.5203243011595884
% es.Ey (V/m) @ t=0.98
0.22166113717924785
% es.Ez (V/m) @ t=0.98
1.4231325955497747
% es.tEx (V/m) @ t=0.98
3.5203243011595937
% es.tEy (V/m) @ t=0.98
0
% es.tEz (V/m) @ t=0.98
1.4231325955497836
% V (V) @ t=0.98
0.019001555184648914
% es.normE (V/m) @ t=1
3.8601002122983217
% es.EX (V/m) @ t=1
3.5672389384461898
% es.EY (V/m) @ t=1
0.22461514050986908
% es.EZ (V/m) @ t=1
1.4420983403393812
% es.tEX (V/m) @ t=1
3.5672389384461916
% es.tEY (V/m) @ t=1
0
% es.tEZ (V/m) @ t=1
1.4420983403393866
% es.Ex (V/m) @ t=1
3.5672389384461898
% es.Ey (V/m) @ t=1
0.22461514050986908
% es.Ez (V/m) @ t=1
1.4420983403393812
% es.tEx (V/m) @ t=1
3.5672389384461916
% es.tEy (V/m) @ t=1
0
% es.tEz (V/m) @ t=1
1.4420983403393866
% V (V) @ t=1
0.019254786737149192
% es.normE (V/m) @ t=1.02
3.9113684856970297
% es.EX (V/m) @ t=1.02
3.614617566690166
% es.EY (V/m) @ t=1.02
0.2275983573408662
% es.EZ (V/m) @ t=1.02
1.4612516550483758
% es.tEX (V/m) @ t=1.02
3.6146175666901676
% es.tEY (V/m) @ t=1.02
0
% es.tEZ (V/m) @ t=1.02
1.4612516550483772
% es.Ex (V/m) @ t=1.02
3.614617566690166
% es.Ey (V/m) @ t=1.02
0.2275983573408662
% es.Ez (V/m) @ t=1.02
1.4612516550483758
% es.tEx (V/m) @ t=1.02
3.6146175666901676
% es.tEy (V/m) @ t=1.02
0
% es.tEz (V/m) @ t=1.02
1.4612516550483772
% V (V) @ t=1.02
0.019510522893166782
% es.normE (V/m) @ t=1.04
3.9631388410753177
% es.EX (V/m) @ t=1.04
3.662460185891513
% es.EY (V/m) @ t=1.04
0.23061078767215437
% es.EZ (V/m) @ t=1.04
1.4805925396767803
% es.tEX (V/m) @ t=1.04
3.6624601858915256
% es.tEY (V/m) @ t=1.04
0
% es.tEZ (V/m) @ t=1.04
1.4805925396767874
% es.Ex (V/m) @ t=1.04
3.662460185891513
% es.Ey (V/m) @ t=1.04
0.23061078767215437
% es.Ez (V/m) @ t=1.04
1.4805925396767803
% es.tEx (V/m) @ t=1.04
3.6624601858915256
% es.tEy (V/m) @ t=1.04
0
% es.tEz (V/m) @ t=1.04