% Model:              1 neuron.mph
% Version:            COMSOL 6.0.0.405
% Date:               Mar 16 2023, 19:02
% Dimension:          0
% Nodes:              14017
% Expressions:        14017
% Description:        Electric field norm, Electric field, X component, Electric field, Y component, Electric field, Z component, Tangential electric field, X component, Tangential electric field, Y component, Tangential electric field, Z component, Electric field, x component, Electric field, y component, Electric field, z component, Tangential electric field, x component, Tangential electric field, y component, Tangential electric field, z component, Electric potential
% Length unit:        mm
% x
1
% y
12.2
% z
1.33
% es.normE (V/m) @ t=0
2.2276661457699642
% es.EX (V/m) @ t=0
2.058655263496986
% es.EY (V/m) @ t=0
0.1296253612111532
% es.EZ (V/m) @ t=0
0.8322369838573291
% es.tEX (V/m) @ t=0
2.0586552634969895
% es.tEY (V/m) @ t=0
0
% es.tEZ (V/m) @ t=0
0.8322369838573307
% es.Ex (V/m) @ t=0
2.058655263496986
% es.Ey (V/m) @ t=0
0.1296253612111532
% es.Ez (V/m) @ t=0
0.8322369838573291
% es.tEx (V/m) @ t=0
2.0586552634969895
% es.tEy (V/m) @ t=0
0
% es.tEz (V/m) @ t=0
0.8322369838573307
% V (V) @ t=0
0.011111964247394595
% es.normE (V/m) @ t=0.02
1.9347463374587006
% es.EX (V/m) @ t=0.02
1.7879589982738482
% es.EY (V/m) @ t=0.02
0.11258069123812431
% es.EZ (V/m) @ t=0.02
0.7228046541604449
% es.tEX (V/m) @ t=0.02
1.7879589982738562
% es.tEY (V/m) @ t=0.02
0
% es.tEZ (V/m) @ t=0.02
0.7228046541604387
% es.Ex (V/m) @ t=0.02
1.7879589982738482
% es.Ey (V/m) @ t=0.02
0.11258069123812431
% es.Ez (V/m) @ t=0.02
0.7228046541604449
% es.tEx (V/m) @ t=0.02
1.7879589982738562
% es.tEy (V/m) @ t=0.02
0
% es.tEz (V/m) @ t=0.02
0.7228046541604387
% V (V) @ t=0.02
0.009650832148267625
% es.normE (V/m) @ t=0.04
1.9634357785801324
% es.EX (V/m) @ t=0.04
1.814471798581037
% es.EY (V/m) @ t=0.04
0.11425009876736736
% es.EZ (V/m) @ t=0.04
0.7335227849942874
% es.tEX (V/m) @ t=0.04
1.8144717985810441
% es.tEY (V/m) @ t=0.04
0
% es.tEZ (V/m) @ t=0.04
0.7335227849942862
% es.Ex (V/m) @ t=0.04
1.814471798581037
% es.Ey (V/m) @ t=0.04
0.11425009876736736
% es.Ez (V/m) @ t=0.04
0.7335227849942874
% es.tEx (V/m) @ t=0.04
1.8144717985810441
% es.tEy (V/m) @ t=0.04
0
% es.tEz (V/m) @ t=0.04
0.7335227849942862
% V (V) @ t=0.04
0.009793939720389222
% es.normE (V/m) @ t=0.06
1.9925530317970255
% es.EX (V/m) @ t=0.06
1.8413799533750606
% es.EY (V/m) @ t=0.06
0.11594440007292106
% es.EZ (V/m) @ t=0.06
0.7444007425511305
% es.tEX (V/m) @ t=0.06
1.8413799533750677
% es.tEY (V/m) @ t=0.06
0
% es.tEZ (V/m) @ t=0.06
0.7444007425511261
% es.Ex (V/m) @ t=0.06
1.8413799533750606
% es.Ey (V/m) @ t=0.06
0.11594440007292106
% es.Ez (V/m) @ t=0.06
0.7444007425511305
% es.tEx (V/m) @ t=0.06
1.8413799533750677
% es.tEy (V/m) @ t=0.06
0
% es.tEz (V/m) @ t=0.06
0.7444007425511261
% V (V) @ t=0.06
0.00993918129553018
% es.normE (V/m) @ t=0.08
2.02241934543379
% es.EX (V/m) @ t=0.08
1.8689803389505277
% es.EY (V/m) @ t=0.08
0.11768228613248122
% es.EZ (V/m) @ t=0.08
0.7555585405176195
% es.tEX (V/m) @ t=0.08
1.8689803389505375
% es.tEY (V/m) @ t=0.08
0
% es.tEZ (V/m) @ t=0.08
0.7555585405176131
% es.Ex (V/m) @ t=0.08
1.8689803389505277
% es.Ey (V/m) @ t=0.08
0.11768228613248122
% es.Ez (V/m) @ t=0.08
0.7555585405176195
% es.tEx (V/m) @ t=0.08
1.8689803389505375
% es.tEy (V/m) @ t=0.08
0
% es.tEz (V/m) @ t=0.08
0.7555585405176131
% V (V) @ t=0.08
0.010088159404462487
% es.normE (V/m) @ t=0.1
2.0527953636198375
% es.EX (V/m) @ t=0.1
1.8970517588632765
% es.EY (V/m) @ t=0.1
0.11944982980953056
% es.EZ (V/m) @ t=0.1
0.7669067582767939
% es.tEX (V/m) @ t=0.1
1.8970517588632774
% es.tEY (V/m) @ t=0.1
0
% es.tEZ (V/m) @ t=0.1
0.7669067582767877
% es.Ex (V/m) @ t=0.1
1.8970517588632765
% es.Ey (V/m) @ t=0.1
0.11944982980953056
% es.Ez (V/m) @ t=0.1
0.7669067582767939
% es.tEx (V/m) @ t=0.1
1.8970517588632774
% es.tEy (V/m) @ t=0.1
0
% es.tEz (V/m) @ t=0.1
0.7669067582767877
% V (V) @ t=0.1
0.010239680069671325
% es.normE (V/m) @ t=0.12
2.0831713818058786
% es.EX (V/m) @ t=0.12
1.92512317877602
% es.EY (V/m) @ t=0.12
0.12121737348655737
% es.EZ (V/m) @ t=0.12
0.7782549760359634
% es.tEX (V/m) @ t=0.12
1.9251231787760261
% es.tEY (V/m) @ t=0.12
0
% es.tEZ (V/m) @ t=0.12
0.7782549760359636
% es.Ex (V/m) @ t=0.12
1.92512317877602
% es.Ey (V/m) @ t=0.12
0.12121737348655737
% es.Ez (V/m) @ t=0.12
0.7782549760359634
% es.tEx (V/m) @ t=0.12
1.9251231787760261
% es.tEy (V/m) @ t=0.12
0
% es.tEz (V/m) @ t=0.12
0.7782549760359636
% V (V) @ t=0.12
0.010391200734880165
% es.normE (V/m) @ t=0.14
2.1140931069548037
% es.EX (V/m) @ t=0.14
1.9536988997811822
% es.EY (V/m) @ t=0.14
0.12301667886052592
% es.EZ (V/m) @ t=0.14
0.7898070743719567
% es.tEX (V/m) @ t=0.14
1.953698899781175
% es.tEY (V/m) @ t=0.14
0
% es.tEZ (V/m) @ t=0.14
0.7898070743719523
% es.Ex (V/m) @ t=0.14
1.9536988997811822
% es.Ey (V/m) @ t=0.14
0.12301667886052592
% es.Ez (V/m) @ t=0.14
0.7898070743719567
% es.tEx (V/m) @ t=0.14
1.953698899781175
% es.tEy (V/m) @ t=0.14
0
% es.tEz (V/m) @ t=0.14
0.7898070743719523
% V (V) @ t=0.14
0.010545443119222711
% es.normE (V/m) @ t=0.16
2.147196329288202
% es.EX (V/m) @ t=0.16
1.9842905954542305
% es.EY (V/m) @ t=0.16
0.12494295357349983
% es.EZ (V/m) @ t=0.16
0.8021741978670509
% es.tEX (V/m) @ t=0.16
1.9842905954542314
% es.tEY (V/m) @ t=0.16
0
% es.tEZ (V/m) @ t=0.16
0.8021741978670494
% es.Ex (V/m) @ t=0.16
1.9842905954542305
% es.Ey (V/m) @ t=0.16
0.12494295357349983
% es.Ez (V/m) @ t=0.16
0.8021741978670509
% es.tEx (V/m) @ t=0.16
1.9842905954542314
% es.tEy (V/m) @ t=0.16
0
% es.tEz (V/m) @ t=0.16
0.8021741978670494
% V (V) @ t=0.16
0.010710565743384439
% es.normE (V/m) @ t=0.18
2.1802995516216024
% es.EX (V/m) @ t=0.18
2.0148822911272637
% es.EY (V/m) @ t=0.18
0.1268692282865025
% es.EZ (V/m) @ t=0.18
0.8145413213621804
% es.tEX (V/m) @ t=0.18
2.0148822911272735
% es.tEY (V/m) @ t=0.18
0
% es.tEZ (V/m) @ t=0.18
0.8145413213621806
% es.Ex (V/m) @ t=0.18
2.0148822911272637
% es.Ey (V/m) @ t=0.18
0.1268692282865025
% es.Ez (V/m) @ t=0.18
0.8145413213621804
% es.tEx (V/m) @ t=0.18
2.0148822911272735
% es.tEy (V/m) @ t=0.18
0
% es.tEz (V/m) @ t=0.18
0.8145413213621806
% V (V) @ t=0.18
0.010875688367546169
% es.normE (V/m) @ t=0.2
2.213402773955007
% es.EX (V/m) @ t=0.2
2.0454739868003067
% es.EY (V/m) @ t=0.2
0.12879550299948628
% es.EZ (V/m) @ t=0.2
0.8269084448572894
% es.tEX (V/m) @ t=0.2
2.045473986800303
% es.tEY (V/m) @ t=0.2
0
% es.tEZ (V/m) @ t=0.2
0.8269084448572852
% es.Ex (V/m) @ t=0.2
2.0454739868003067
% es.Ey (V/m) @ t=0.2
0.12879550299948628
% es.Ez (V/m) @ t=0.2
0.8269084448572894
% es.tEx (V/m) @ t=0.2
2.045473986800303
% es.tEy (V/m) @ t=0.2
0
% es.tEz (V/m) @ t=0.2
0.8269084448572852
% V (V) @ t=0.2
0.0110408109917079
% es.normE (V/m) @ t=0.22
2.246505996288402
% es.EX (V/m) @ t=0.22
2.0760656824733363
% es.EY (V/m) @ t=0.22
0.13072177771247817
% es.EZ (V/m) @ t=0.22
0.8392755683523994
% es.tEX (V/m) @ t=0.22
2.0760656824733363
% es.tEY (V/m) @ t=0.22
0
% es.tEZ (V/m) @ t=0.22
0.8392755683524054
% es.Ex (V/m) @ t=0.22
2.0760656824733363
% es.Ey (V/m) @ t=0.22
0.13072177771247817
% es.Ez (V/m) @ t=0.22
0.8392755683523994
% es.tEx (V/m) @ t=0.22
2.0760656824733363
% es.tEy (V/m) @ t=0.22
0
% es.tEz (V/m) @ t=0.22
0.8392755683524054
% V (V) @ t=0.22
0.01120593361586963
% es.normE (V/m) @ t=0.24
2.2796092186218093
% es.EX (V/m) @ t=0.24
2.106657378146381
% es.EY (V/m) @ t=0.24
0.13264805242544342
% es.EZ (V/m) @ t=0.24
0.8516426918475044
% es.tEX (V/m) @ t=0.24
2.1066573781463838
% es.tEY (V/m) @ t=0.24
0
% es.tEZ (V/m) @ t=0.24
0.8516426918475095
% es.Ex (V/m) @ t=0.24
2.106657378146381
% es.Ey (V/m) @ t=0.24
0.13264805242544342
% es.Ez (V/m) @ t=0.24
0.8516426918475044
% es.tEx (V/m) @ t=0.24
2.1066573781463838
% es.tEy (V/m) @ t=0.24
0
% es.tEz (V/m) @ t=0.24
0.8516426918475095
% V (V) @ t=0.24
0.01137105624003136
% es.normE (V/m) @ t=0.26
2.312712440955225
% es.EX (V/m) @ t=0.26
2.137249073819423
% es.EY (V/m) @ t=0.26
0.1345743271384353
% es.EZ (V/m) @ t=0.26
0.8640098153426317
% es.tEX (V/m) @ t=0.26
2.1372490738194223
% es.tEY (V/m) @ t=0.26
0
% es.tEZ (V/m) @ t=0.26
0.8640098153426359
% es.Ex (V/m) @ t=0.26
2.137249073819423
% es.Ey (V/m) @ t=0.26
0.1345743271384353
% es.Ez (V/m) @ t=0.26
0.8640098153426317
% es.tEx (V/m) @ t=0.26
2.1372490738194223
% es.tEy (V/m) @ t=0.26
0
% es.tEz (V/m) @ t=0.26
0.8640098153426359
% V (V) @ t=0.26
0.01153617886419309
% es.normE (V/m) @ t=0.28
2.347023144734959
% es.EX (V/m) @ t=0.28
2.168956645839266
% es.EY (V/m) @ t=0.28
0.13657085253219547
% es.EZ (V/m) @ t=0.28
0.876828030015292
% es.tEX (V/m) @ t=0.28
2.1689566458392626
% es.tEY (V/m) @ t=0.28
0
% es.tEZ (V/m) @ t=0.28
0.8768280300152935
% es.Ex (V/m) @ t=0.28
2.168956645839266
% es.Ey (V/m) @ t=0.28
0.13657085253219547
% es.Ez (V/m) @ t=0.28
0.876828030015292
% es.tEx (V/m) @ t=0.28
2.1689566458392626
% es.tEy (V/m) @ t=0.28
0
% es.tEz (V/m) @ t=0.28
0.8768280300152935
% V (V) @ t=0.28
0.011707325132733766
% es.normE (V/m) @ t=0.3
2.383070428465545
% es.EX (V/m) @ t=0.3
2.2022690528628983
% es.EY (V/m) @ t=0.3
0.13866841129926
% es.EZ (V/m) @ t=0.3
0.8902949965982427
% es.tEX (V/m) @ t=0.3
2.202269052862899
% es.tEY (V/m) @ t=0.3
0
% es.tEZ (V/m) @ t=0.3
0.8902949965982372
% es.Ex (V/m) @ t=0.3
2.2022690528628983
% es.Ey (V/m) @ t=0.3
0.13866841129926
% es.Ez (V/m) @ t=0.3
0.8902949965982427
% es.tEx (V/m) @ t=0.3
2.202269052862899
% es.tEy (V/m) @ t=0.3
0
% es.tEz (V/m) @ t=0.3
0.8902949965982372
% V (V) @ t=0.3
0.011887134507520375
% es.normE (V/m) @ t=0.32
2.419117712196134
% es.EX (V/m) @ t=0.32
2.2355814598865322
% es.EY (V/m) @ t=0.32
0.1407659700663193
% es.EZ (V/m) @ t=0.32
0.9037619631811984
% es.tEX (V/m) @ t=0.32
2.235581459886536
% es.tEY (V/m) @ t=0.32
0
% es.tEZ (V/m) @ t=0.32
0.9037619631811977
% es.Ex (V/m) @ t=0.32
2.2355814598865322
% es.Ey (V/m) @ t=0.32
0.1407659700663193
% es.Ez (V/m) @ t=0.32
0.9037619631811984
% es.tEx (V/m) @ t=0.32
2.235581459886536
% es.tEy (V/m) @ t=0.32
0
% es.tEz (V/m) @ t=0.32
0.9037619631811977
% V (V) @ t=0.32
0.012066943882306981
% es.normE (V/m) @ t=0.34
2.455164995926725
% es.EX (V/m) @ t=0.34
2.268893866910167
% es.EY (V/m) @ t=0.34
0.14286352883338838
% es.EZ (V/m) @ t=0.34
0.9172289297641572
% es.tEX (V/m) @ t=0.34
2.268893866910169
% es.tEY (V/m) @ t=0.34
0
% es.tEZ (V/m) @ t=0.34
0.9172289297641574
% es.Ex (V/m) @ t=0.34
2.268893866910167
% es.Ey (V/m) @ t=0.34
0.14286352883338838
% es.Ez (V/m) @ t=0.34
0.9172289297641572
% es.tEx (V/m) @ t=0.34
2.268893866910169
% es.tEy (V/m) @ t=0.34
0
% es.tEz (V/m) @ t=0.34
0.9172289297641574
% V (V) @ t=0.34
0.012246753257093587
% es.normE (V/m) @ t=0.36
2.4912122796573026
% es.EX (V/m) @ t=0.36
2.302206273933791
% es.EY (V/m) @ t=0.36
0.144961087600452
% es.EZ (V/m) @ t=0.36
0.9306958963471064
% es.tEX (V/m) @ t=0.36
2.302206273933793
% es.tEY (V/m) @ t=0.36
0
% es.tEZ (V/m) @ t=0.36
0.9306958963471041
% es.Ex (V/m) @ t=0.36
2.302206273933791
% es.Ey (V/m) @ t=0.36
0.144961087600452
% es.Ez (V/m) @ t=0.36
0.9306958963471064
% es.tEx (V/m) @ t=0.36
2.302206273933793
% es.tEy (V/m) @ t=0.36
0
% es.tEz (V/m) @ t=0.36
0.9306958963471041
% V (V) @ t=0.36
0.012426562631880194
% es.normE (V/m) @ t=0.38
2.5272595633878954
% es.EX (V/m) @ t=0.38
2.3355186809574278
% es.EY (V/m) @ t=0.38
0.1470586463675264
% es.EZ (V/m) @ t=0.38
0.9441628629300673
% es.tEX (V/m) @ t=0.38
2.3355186809574278
% es.tEY (V/m) @ t=0.38
0
% es.tEZ (V/m) @ t=0.38
0.9441628629300753
% es.Ex (V/m) @ t=0.38
2.3355186809574278
% es.Ey (V/m) @ t=0.38
0.1470586463675264
% es.Ez (V/m) @ t=0.38
0.9441628629300673
% es.tEx (V/m) @ t=0.38
2.3355186809574278
% es.tEy (V/m) @ t=0.38
0
% es.tEz (V/m) @ t=0.38
0.9441628629300753
% V (V) @ t=0.38
0.012606372006666802
% es.normE (V/m) @ t=0.4
2.5633068471184757
% es.EX (V/m) @ t=0.4
2.368831087981059
% es.EY (V/m) @ t=0.4
0.14915620513457573
% es.EZ (V/m) @ t=0.4
0.9576298295130039
% es.tEX (V/m) @ t=0.4
2.368831087981059
% es.tEY (V/m) @ t=0.4
0
% es.tEZ (V/m) @ t=0.4
0.9576298295129977
% es.Ex (V/m) @ t=0.4
2.368831087981059
% es.Ey (V/m) @ t=0.4
0.14915620513457573
% es.Ez (V/m) @ t=0.4
0.9576298295130039
% es.tEx (V/m) @ t=0.4
2.368831087981059
% es.tEy (V/m) @ t=0.4
0
% es.tEz (V/m) @ t=0.4
0.9576298295129977
% V (V) @ t=0.4
0.01278618138145341
% es.normE (V/m) @ t=0.42
2.601317289935124
% es.EX (V/m) @ t=0.42
2.4039577081632038
% es.EY (V/m) @ t=0.42
0.15136800435882625
% es.EZ (V/m) @ t=0.42
0.9718302229382347
% es.tEX (V/m) @ t=0.42
2.403957708163203
% es.tEY (V/m) @ t=0.42
0
% es.tEZ (V/m) @ t=0.42
0.971830222938241
% es.Ex (V/m) @ t=0.42
2.4039577081632038
% es.Ey (V/m) @ t=0.42
0.15136800435882625
% es.Ez (V/m) @ t=0.42
0.9718302229382347
% es.tEx (V/m) @ t=0.42
2.403957708163203
% es.tEy (V/m) @ t=0.42
0
% es.tEz (V/m) @ t=0.42
0.971830222938241
% V (V) @ t=0.42
0.012975783016986507
% es.normE (V/m) @ t=0.44
2.640530013720963
% es.EX (V/m) @ t=0.44
2.440195391615781
% es.EY (V/m) @ t=0.44
0.1536497669031801
% es.EZ (V/m) @ t=0.44
0.9864797827815144
% es.tEX (V/m) @ t=0.44
2.440195391615779
% es.tEY (V/m) @ t=0.44
0
% es.tEZ (V/m) @ t=0.44
0.9864797827815108
% es.Ex (V/m) @ t=0.44
2.440195391615781
% es.Ey (V/m) @ t=0.44
0.1536497669031801
% es.Ez (V/m) @ t=0.44
0.9864797827815144
% es.tEx (V/m) @ t=0.44
2.440195391615779
% es.tEy (V/m) @ t=0.44
0
% es.tEz (V/m) @ t=0.44
0.9864797827815108
% V (V) @ t=0.44
0.013171381644217604
% es.normE (V/m) @ t=0.46
2.6797427375068006
% es.EX (V/m) @ t=0.46
2.4764330750683623
% es.EY (V/m) @ t=0.46
0.15593152944752675
% es.EZ (V/m) @ t=0.46
1.0011293426247794
% es.tEX (V/m) @ t=0.46
2.476433075068364
% es.tEY (V/m) @ t=0.46
0
% es.tEZ (V/m) @ t=0.46
1.001129342624786
% es.Ex (V/m) @ t=0.46
2.4764330750683623
% es.Ey (V/m) @ t=0.46
0.15593152944752675
% es.Ez (V/m) @ t=0.46
1.0011293426247794
% es.tEx (V/m) @ t=0.46
2.476433075068364
% es.tEy (V/m) @ t=0.46
0
% es.tEz (V/m) @ t=0.46
1.001129342624786
% V (V) @ t=0.46
0.0133669802714487
% es.normE (V/m) @ t=0.48
2.7189554612926408
% es.EX (V/m) @ t=0.48
2.5126707585209402
% es.EY (V/m) @ t=0.48
0.15821329199187495
% es.EZ (V/m) @ t=0.48
1.0157789024680612
% es.tEX (V/m) @ t=0.48
2.5126707585209402
% es.tEY (V/m) @ t=0.48
0
% es.tEZ (V/m) @ t=0.48
1.0157789024680683
% es.Ex (V/m) @ t=0.48
2.5126707585209402
% es.Ey (V/m) @ t=0.48
0.15821329199187495
% es.Ez (V/m) @ t=0.48
1.0157789024680612
% es.tEx (V/m) @ t=0.48
2.5126707585209402
% es.tEy (V/m) @ t=0.48
0
% es.tEz (V/m) @ t=0.48
1.0157789024680683
% V (V) @ t=0.48
0.013562578898679796
% es.normE (V/m) @ t=0.5
2.7581681850784867
% es.EX (V/m) @ t=0.5
2.5489084419735306
% es.EY (V/m) @ t=0.5
0.16049505453623059
% es.EZ (V/m) @ t=0.5
1.030428462311324
% es.tEX (V/m) @ t=0.5
2.5489084419735235
% es.tEY (V/m) @ t=0.5
0
% es.tEZ (V/m) @ t=0.5
1.030428462311325
% es.Ex (V/m) @ t=0.5
2.5489084419735306
% es.Ey (V/m) @ t=0.5
0.16049505453623059
% es.Ez (V/m) @ t=0.5
1.030428462311324
% es.tEx (V/m) @ t=0.5
2.5489084419735235
% es.tEy (V/m) @ t=0.5
0
% es.tEz (V/m) @ t=0.5
1.030428462311325
% V (V) @ t=0.5
0.013758177525910891
% es.normE (V/m) @ t=0.52
2.797380908864321
% es.EX (V/m) @ t=0.52
2.585146125426096
% es.EY (V/m) @ t=0.52
0.16277681708058622
% es.EZ (V/m) @ t=0.52
1.045078022154617
% es.tEX (V/m) @ t=0.52
2.585146125426105
% es.tEY (V/m) @ t=0.52
0
% es.tEZ (V/m) @ t=0.52
1.0450780221546143
% es.Ex (V/m) @ t=0.52
2.585146125426096
% es.Ey (V/m) @ t=0.52
0.16277681708058622
% es.Ez (V/m) @ t=0.52
1.045078022154617
% es.tEx (V/m) @ t=0.52
2.585146125426105
% es.tEy (V/m) @ t=0.52
0
% es.tEz (V/m) @ t=0.52
1.0450780221546143
% V (V) @ t=0.52
0.013953776153141985
% es.normE (V/m) @ t=0.54
2.8365936326501604
% es.EX (V/m) @ t=0.54
2.6213838088786785
% es.EY (V/m) @ t=0.54
0.16505857962494352
% es.EZ (V/m) @ t=0.54
1.0597275819978806
% es.tEX (V/m) @ t=0.54
2.6213838088786723
% es.tEY (V/m) @ t=0.54
0
% es.tEZ (V/m) @ t=0.54
1.0597275819978806
% es.Ex (V/m) @ t=0.54
2.6213838088786785
% es.Ey (V/m) @ t=0.54
0.16505857962494352
% es.Ez (V/m) @ t=0.54
1.0597275819978806
% es.tEx (V/m) @ t=0.54
2.6213838088786723
% es.tEy (V/m) @ t=0.54
0
% es.tEz (V/m) @ t=0.54
1.0597275819978806
% V (V) @ t=0.54
0.01414937478037308
% es.normE (V/m) @ t=0.56
2.877052621812469
% es.EX (V/m) @ t=0.56
2.6587732120479277
% es.EY (V/m) @ t=0.56
0.1674128455617414
% es.EZ (V/m) @ t=0.56
1.0748427174581598
% es.tEX (V/m) @ t=0.56
2.65877321204794
% es.tEY (V/m) @ t=0.56
0
% es.tEZ (V/m) @ t=0.56
1.0748427174581625
% es.Ex (V/m) @ t=0.56
2.6587732120479277
% es.Ey (V/m) @ t=0.56
0.1674128455617414
% es.Ez (V/m) @ t=0.56
1.0748427174581598
% es.tEx (V/m) @ t=0.56
2.65877321204794
% es.tEy (V/m) @ t=0.56
0
% es.tEz (V/m) @ t=0.56
1.0748427174581625
% V (V) @ t=0.56
0.01435119070303527
% es.normE (V/m) @ t=0.58
2.9181269951966184
% es.EX (V/m) @ t=0.58
2.6967313144324496
% es.EY (V/m) @ t=0.58
0.16980291241589573
% es.EZ (V/m) @ t=0.58
1.0901877460809963
% es.tEX (V/m) @ t=0.58
2.696731314432446
% es.tEY (V/m) @ t=0.58
0
% es.tEZ (V/m) @ t=0.58
1.0901877460809946
% es.Ex (V/m) @ t=0.58
2.6967313144324496
% es.Ey (V/m) @ t=0.58
0.16980291241589573
% es.Ez (V/m) @ t=0.58
1.0901877460809963
% es.tEx (V/m) @ t=0.58
2.696731314432446
% es.tEy (V/m) @ t=0.58
0
% es.tEz (V/m) @ t=0.58
1.0901877460809946
% V (V) @ t=0.58
0.014556076618319553
% es.normE (V/m) @ t=0.6
2.959595351226503
% es.EX (V/m) @ t=0.6
2.735053510684679
% es.EY (V/m) @ t=0.6
0.17221589981244212
% es.EZ (V/m) @ t=0.6
1.1056799574121596
% es.tEX (V/m) @ t=0.6
2.7350535106846827
% es.tEY (V/m) @ t=0.6
0
% es.tEZ (V/m) @ t=0.6
1.1056799574121596
% es.Ex (V/m) @ t=0.6
2.735053510684679
% es.Ey (V/m) @ t=0.6
0.17221589981244212
% es.Ez (V/m) @ t=0.6
1.1056799574121596
% es.tEx (V/m) @ t=0.6
2.7350535106846827
% es.tEy (V/m) @ t=0.6
0
% es.tEz (V/m) @ t=0.6
1.1056799574121596
% V (V) @ t=0.6
0.014762928011061136
% es.normE (V/m) @ t=0.62
3.0014576899021144
% es.EX (V/m) @ t=0.62
2.77373980080462
% es.EY (V/m) @ t=0.62
0.17465180775137323
% es.EZ (V/m) @ t=0.62
1.1213193514516169
% es.tEX (V/m) @ t=0.62
2.7737398008046164
% es.tEY (V/m) @ t=0.62
0
% es.tEZ (V/m) @ t=0.62
1.1213193514516204
% es.Ex (V/m) @ t=0.62
2.77373980080462
% es.Ey (V/m) @ t=0.62
0.17465180775137323
% es.Ez (V/m) @ t=0.62
1.1213193514516169
% es.tEx (V/m) @ t=0.62
2.7737398008046164
% es.tEy (V/m) @ t=0.62
0
% es.tEz (V/m) @ t=0.62
1.1213193514516204
% V (V) @ t=0.62
0.01497174488126002
% es.normE (V/m) @ t=0.64
3.0437140112234733
% es.EX (V/m) @ t=0.64
2.812790184792286
% es.EY (V/m) @ t=0.64
0.17711063623268553
% es.EZ (V/m) @ t=0.64
1.1371059281993867
% es.tEX (V/m) @ t=0.64
2.8127901847923003
% es.tEY (V/m) @ t=0.64
0
% es.tEZ (V/m) @ t=0.64
1.1371059281993867
% es.Ex (V/m) @ t=0.64
2.812790184792286
% es.Ey (V/m) @ t=0.64
0.17711063623268553
% es.Ez (V/m) @ t=0.64
1.1371059281993867
% es.tEx (V/m) @ t=0.64
2.8127901847923003
% es.tEy (V/m) @ t=0.64
0
% es.tEz (V/m) @ t=0.64
1.1371059281993867
% V (V) @ t=0.64
0.015182527228916207
% es.normE (V/m) @ t=0.66
3.086364315190552
% es.EX (V/m) @ t=0.66
2.85220466264766
% es.EY (V/m) @ t=0.66
0.17959238525638432
% es.EZ (V/m) @ t=0.66
1.1530396876554416
% es.tEX (V/m) @ t=0.66
2.852204662647658
% es.tEY (V/m) @ t=0.66
0
% es.tEZ (V/m) @ t=0.66
1.1530396876554452
% es.Ex (V/m) @ t=0.66
2.85220466264766
% es.Ey (V/m) @ t=0.66
0.17959238525638432
% es.Ez (V/m) @ t=0.66
1.1530396876554416
% es.tEx (V/m) @ t=0.66
2.852204662647658
% es.tEy (V/m) @ t=0.66
0
% es.tEz (V/m) @ t=0.66
1.1530396876554452
% V (V) @ t=0.66
0.015395275054029689
% es.normE (V/m) @ t=0.68
3.1294086018033793
% es.EX (V/m) @ t=0.68
2.8919832343707483
% es.EY (V/m) @ t=0.68
0.1820970548224573
% es.EZ (V/m) @ t=0.68
1.1691206298198358
% es.tEX (V/m) @ t=0.68
2.8919832343707412
% es.tEY (V/m) @ t=0.68
0
% es.tEZ (V/m) @ t=0.68
1.169120629819834
% es.Ex (V/m) @ t=0.68
2.8919832343707483
% es.Ey (V/m) @ t=0.68
0.1820970548224573
% es.Ez (V/m) @ t=0.68
1.1691206298198358
% es.tEx (V/m) @ t=0.68
2.8919832343707412
% es.tEy (V/m) @ t=0.68
0
% es.tEz (V/m) @ t=0.68
1.169120629819834
% V (V) @ t=0.68
0.015609988356600477
% es.normE (V/m) @ t=0.7
3.1728468710619344
% es.EX (V/m) @ t=0.7
2.932125899961541
% es.EY (V/m) @ t=0.7
0.18462464493092412
% es.EZ (V/m) @ t=0.7
1.185348754692538
% es.tEX (V/m) @ t=0.7
2.932125899961539
% es.tEY (V/m) @ t=0.7
0
% es.tEZ (V/m) @ t=0.7
1.185348754692538
% es.Ex (V/m) @ t=0.7
2.932125899961541
% es.Ey (V/m) @ t=0.7
0.18462464493092412
% es.Ez (V/m) @ t=0.7
1.185348754692538
% es.tEx (V/m) @ t=0.7
2.932125899961539
% es.tEy (V/m) @ t=0.7
0
% es.tEz (V/m) @ t=0.7
1.185348754692538
% V (V) @ t=0.7
0.01582666713662856
% es.normE (V/m) @ t=0.72
3.2166791229662324
% es.EX (V/m) @ t=0.72
2.9726326594200625
% es.EY (V/m) @ t=0.72
0.18717515558177045
% es.EZ (V/m) @ t=0.72
1.2017240622735272
% es.tEX (V/m) @ t=0.72
2.9726326594200607
% es.tEY (V/m) @ t=0.72
0
% es.tEZ (V/m) @ t=0.72
1.2017240622735326
% es.Ex (V/m) @ t=0.72
2.9726326594200625
% es.Ey (V/m) @ t=0.72
0.18717515558177045
% es.Ez (V/m) @ t=0.72
1.2017240622735272
% es.tEx (V/m) @ t=0.72
2.9726326594200607
% es.tEy (V/m) @ t=0.72
0
% es.tEz (V/m) @ t=0.72
1.2017240622735326
% V (V) @ t=0.72
0.016045311394113946
% es.normE (V/m) @ t=0.74
3.2609053575162656
% es.EX (V/m) @ t=0.74
3.01350351274629
% es.EY (V/m) @ t=0.74
0.18974858677500306
% es.EZ (V/m) @ t=0.74
1.218246552562837
% es.tEX (V/m) @ t=0.74
3.01350351274629
% es.tEY (V/m) @ t=0.74
0
% es.tEZ (V/m) @ t=0.74
1.2182465525628405
% es.Ex (V/m) @ t=0.74
3.01350351274629
% es.Ey (V/m) @ t=0.74
0.18974858677500306
% es.Ez (V/m) @ t=0.74
1.218246552562837
% es.tEx (V/m) @ t=0.74
3.01350351274629
% es.tEy (V/m) @ t=0.74
0
% es.tEz (V/m) @ t=0.74
1.2182465525628405
% V (V) @ t=0.74
0.01626592112905663
% es.normE (V/m) @ t=0.76
3.305525574712031
% es.EX (V/m) @ t=0.76
3.054738459940226
% es.EY (V/m) @ t=0.76
0.1923449385106295
% es.EZ (V/m) @ t=0.76
1.2349162255604496
% es.tEX (V/m) @ t=0.76
3.0547384599402303
% es.tEY (V/m) @ t=0.76
0
% es.tEZ (V/m) @ t=0.76
1.2349162255604549
% es.Ex (V/m) @ t=0.76
3.054738459940226
% es.Ey (V/m) @ t=0.76
0.1923449385106295
% es.Ez (V/m) @ t=0.76
1.2349162255604496
% es.tEx (V/m) @ t=0.76
3.0547384599402303
% es.tEy (V/m) @ t=0.76
0
% es.tEz (V/m) @ t=0.76
1.2349162255604549
% V (V) @ t=0.76
0.016488496341456615
% es.normE (V/m) @ t=0.78
3.3505397745535266
% es.EX (V/m) @ t=0.78
3.0963375010018703
% es.EY (V/m) @ t=0.78
0.19496421078863535
% es.EZ (V/m) @ t=0.78
1.2517330812663578
% es.tEX (V/m) @ t=0.78
3.096337501001866
% es.tEY (V/m) @ t=0.78
0
% es.tEZ (V/m) @ t=0.78
1.2517330812663472
% es.Ex (V/m) @ t=0.78
3.0963375010018703
% es.Ey (V/m) @ t=0.78
0.19496421078863535
% es.Ez (V/m) @ t=0.78
1.2517330812663578
% es.tEx (V/m) @ t=0.78
3.096337501001866
% es.tEy (V/m) @ t=0.78
0
% es.tEz (V/m) @ t=0.78
1.2517330812663472
% V (V) @ t=0.78
0.016713037031313903
% es.normE (V/m) @ t=0.8
3.395947957040773
% es.EX (V/m) @ t=0.8
3.1383006359312384
% es.EY (V/m) @ t=0.8
0.19760640360899773
% es.EZ (V/m) @ t=0.8
1.2686971196805867
% es.tEX (V/m) @ t=0.8
3.1383006359312375
% es.tEY (V/m) @ t=0.8
0
% es.tEZ (V/m) @ t=0.8
1.2686971196805814
% es.Ex (V/m) @ t=0.8
3.1383006359312384
% es.Ey (V/m) @ t=0.8
0.19760640360899773
% es.Ez (V/m) @ t=0.8
1.2686971196805867
% es.tEx (V/m) @ t=0.8
3.1383006359312375
% es.tEy (V/m) @ t=0.8
0
% es.tEz (V/m) @ t=0.8
1.2686971196805814
% V (V) @ t=0.8
0.01693954319862849
% es.normE (V/m) @ t=0.82
3.441943242769022
% es.EX (V/m) @ t=0.82
3.180806324992904
% es.EY (V/m) @ t=0.82
0.20028277242011416
% es.EZ (V/m) @ t=0.82
1.2858805103929098
% es.tEX (V/m) @ t=0.82
3.180806324992904
% es.tEY (V/m) @ t=0.82
0
% es.tEZ (V/m) @ t=0.82
1.285880510392908
% es.Ex (V/m) @ t=0.82
3.180806324992904
% es.Ey (V/m) @ t=0.82
0.20028277242011416
% es.Ez (V/m) @ t=0.82
1.2858805103929098
% es.tEx (V/m) @ t=0.82
3.180806324992904
% es.tEy (V/m) @ t=0.82
0
% es.tEz (V/m) @ t=0.82
1.285880510392908
% V (V) @ t=0.82
0.01716897732173895
% es.normE (V/m) @ t=0.84
3.488980643434348
% es.EX (V/m) @ t=0.84
3.2242750386579937
% es.EY (V/m) @ t=0.84
0.20301983619907515
% es.EZ (V/m) @ t=0.84
1.3034532922715707
% es.tEX (V/m) @ t=0.84
3.224275038657993
% es.tEY (V/m) @ t=0.84
0
% es.tEZ (V/m) @ t=0.84
1.3034532922715636
% es.Ex (V/m) @ t=0.84
3.2242750386579937
% es.Ey (V/m) @ t=0.84
0.20301983619907515
% es.Ez (V/m) @ t=0.84
1.3034532922715707
% es.tEx (V/m) @ t=0.84
3.224275038657993
% es.tEy (V/m) @ t=0.84
0
% es.tEz (V/m) @ t=0.84
1.3034532922715636
% V (V) @ t=0.84
0.01740360709716207
% es.normE (V/m) @ t=0.86
3.536523594709334
% es.EX (V/m) @ t=0.86
3.2682109447149843
% es.EY (V/m) @ t=0.86
0.2057863229208805
% es.EZ (V/m) @ t=0.86
1.321214950051222
% es.tEX (V/m) @ t=0.86
3.2682109447149905
% es.tEY (V/m) @ t=0.86
0
% es.tEZ (V/m) @ t=0.86
1.3212149500512238
% es.Ex (V/m) @ t=0.86
3.2682109447149843
% es.Ey (V/m) @ t=0.86
0.2057863229208805
% es.Ez (V/m) @ t=0.86
1.321214950051222
% es.tEx (V/m) @ t=0.86
3.2682109447149905
% es.tEy (V/m) @ t=0.86
0
% es.tEz (V/m) @ t=0.86
1.3212149500512238
% V (V) @ t=0.86
0.017640758384723506
% es.normE (V/m) @ t=0.88
3.5845720965940395
% es.EX (V/m) @ t=0.88
3.3126140431639293
% es.EY (V/m) @ t=0.88
0.20858223258560704
% es.EZ (V/m) @ t=0.88
1.339165483731882
% es.tEX (V/m) @ t=0.88
3.312614043163915
% es.tEY (V/m) @ t=0.88
0
% es.tEZ (V/m) @ t=0.88
1.3391654837318798
% es.Ex (V/m) @ t=0.88
3.3126140431639293
% es.Ey (V/m) @ t=0.88
0.20858223258560704
% es.Ez (V/m) @ t=0.88
1.339165483731882
% es.tEx (V/m) @ t=0.88
3.312614043163915
% es.tEy (V/m) @ t=0.88
0
% es.tEz (V/m) @ t=0.88
1.3391654837318798
% V (V) @ t=0.88
0.01788043118442326
% es.normE (V/m) @ t=0.9
3.633126149088464
% es.EX (V/m) @ t=0.9
3.357484334004827
% es.EY (V/m) @ t=0.9
0.21140756519320103
% es.EZ (V/m) @ t=0.9
1.3573048933135605
% es.tEX (V/m) @ t=0.9
3.3574843340048304
% es.tEY (V/m) @ t=0.9
0
% es.tEZ (V/m) @ t=0.9
1.3573048933135574
% es.Ex (V/m) @ t=0.9
3.357484334004827
% es.Ey (V/m) @ t=0.9
0.21140756519320103
% es.Ez (V/m) @ t=0.9
1.3573048933135605
% es.tEx (V/m) @ t=0.9
3.3574843340048304
% es.tEy (V/m) @ t=0.9
0
% es.tEz (V/m) @ t=0.9
1.3573048933135574
% V (V) @ t=0.9
0.018122625496261324
% es.normE (V/m) @ t=0.92
3.682185752192539
% es.EX (V/m) @ t=0.92
3.4028218172376006
% es.EY (V/m) @ t=0.92
0.21426232074368556
% es.EZ (V/m) @ t=0.92
1.3756331787962535
% es.tEX (V/m) @ t=0.92
3.402821817237605
% es.tEY (V/m) @ t=0.92
0
% es.tEZ (V/m) @ t=0.92
1.3756331787962495
% es.Ex (V/m) @ t=0.92
3.4028218172376006
% es.Ey (V/m) @ t=0.92
0.21426232074368556
% es.Ez (V/m) @ t=0.92
1.3756331787962535
% es.tEx (V/m) @ t=0.92
3.402821817237605
% es.tEy (V/m) @ t=0.92
0
% es.tEz (V/m) @ t=0.92
1.3756331787962495
% V (V) @ t=0.92
0.018367341320237703
% es.normE (V/m) @ t=0.94
3.7317509059063374
% es.EX (V/m) @ t=0.94
3.4486264928623402
% es.EY (V/m) @ t=0.94
0.21714649923707685
% es.EZ (V/m) @ t=0.94
1.3941503401799369
% es.tEX (V/m) @ t=0.94
3.448626492862342
% es.tEY (V/m) @ t=0.94
0
% es.tEZ (V/m) @ t=0.94
1.3941503401799409
% es.Ex (V/m) @ t=0.94
3.4486264928623402
% es.Ey (V/m) @ t=0.94
0.21714649923707685
% es.Ez (V/m) @ t=0.94
1.3941503401799369
% es.tEx (V/m) @ t=0.94
3.448626492862342
% es.tEy (V/m) @ t=0.94
0
% es.tEz (V/m) @ t=0.94
1.3941503401799409
% V (V) @ t=0.94
0.0186145786563524
% es.normE (V/m) @ t=0.96
3.7818216102298576
% es.EX (V/m) @ t=0.96
3.4948983608790467
% es.EY (V/m) @ t=0.96
0.2200601006733005
% es.EZ (V/m) @ t=0.96
1.4128563774646135
% es.tEX (V/m) @ t=0.96
3.494898360879038
% es.tEY (V/m) @ t=0.96
0
% es.tEZ (V/m) @ t=0.96
1.4128563774646192
% es.Ex (V/m) @ t=0.96
3.4948983608790467
% es.Ey (V/m) @ t=0.96
0.2200601006733005
% es.Ez (V/m) @ t=0.96
1.4128563774646135
% es.tEx (V/m) @ t=0.96
3.494898360879038
% es.tEy (V/m) @ t=0.96
0
% es.tEz (V/m) @ t=0.96
1.4128563774646192
% V (V) @ t=0.96
0.0188643375046054
% es.normE (V/m) @ t=0.98
3.8323978651630375
% es.EX (V/m) @ t=0.98
3.5416374212876374
% es.EY (V/m) @ t=0.98
0.22300312505245
% es.EZ (V/m) @ t=0.98
1.4317512906503045
% es.tEX (V/m) @ t=0.98
3.541637421287625
% es.tEY (V/m) @ t=0.98
0
% es.tEZ (V/m) @ t=0.98
1.4317512906503156
% es.Ex (V/m) @ t=0.98
3.5416374212876374
% es.Ey (V/m) @ t=0.98
0.22300312505245
% es.Ez (V/m) @ t=0.98
1.4317512906503045
% es.tEx (V/m) @ t=0.98
3.541637421287625
% es.tEy (V/m) @ t=0.98
0
% es.tEz (V/m) @ t=0.98
1.4317512906503156
% V (V) @ t=0.98
0.01911661786499673
% es.normE (V/m) @ t=1
3.883479670705912
% es.EX (V/m) @ t=1
3.588843674088146
% es.EY (V/m) @ t=1
0.22597557237448673
% es.EZ (V/m) @ t=1
1.4508350797370153
% es.tEX (V/m) @ t=1
3.588843674088153
% es.tEY (V/m) @ t=1
0
% es.tEZ (V/m) @ t=1
1.4508350797370095
% es.Ex (V/m) @ t=1
3.588843674088146
% es.Ey (V/m) @ t=1
0.22597557237448673
% es.Ez (V/m) @ t=1
1.4508350797370153
% es.tEx (V/m) @ t=1
3.588843674088153
% es.tEy (V/m) @ t=1
0
% es.tEz (V/m) @ t=1
1.4508350797370095
% V (V) @ t=1
0.01937141973752636
% es.normE (V/m) @ t=1.02
3.935067026858537
% es.EX (V/m) @ t=1.02
3.63651711928064
% es.EY (V/m) @ t=1.02
0.22897744263939845
% es.EZ (V/m) @ t=1.02
1.4701077447247433
% es.tEX (V/m) @ t=1.02
3.63651711928064
% es.tEY (V/m) @ t=1.02
0
% es.tEZ (V/m) @ t=1.02
1.470107744724749
% es.Ex (V/m) @ t=1.02
3.63651711928064
% es.Ey (V/m) @ t=1.02
0.22897744263939845
% es.Ez (V/m) @ t=1.02
1.4701077447247433
% es.tEx (V/m) @ t=1.02
3.63651711928064
% es.tEy (V/m) @ t=1.02
0
% es.tEz (V/m) @ t=1.02
1.470107744724749
% V (V) @ t=1.02
0.01962874312219431
% es.normE (V/m) @ t=1.04
3.9871599336208345
% es.EX (V/m) @ t=1.04
3.684657756865045
% es.EY (V/m) @ t=1.04
0.23200873584721782
% es.EZ (V/m) @ t=1.04
1.4895692856134422
% es.tEX (V/m) @ t=1.04
3.684657756865043
% es.tEY (V/m) @ t=1.04
0
% es.tEZ (V/m) @ t=1.04
1.4895692856134524
% es.Ex (V/m) @ t=1.04
3.684657756865045
% es.Ey (V/m) @ t=1.04
0.23200873584721782
% es.Ez (V/m) @ t=1.04
1.4895692856134422
% es.tEx (V/m) @ t=1.04
3.684657756865043
% es.tEy (V/m) @ t=1.04
0
% es.tEz (V/m) @ t=1.04
1.4895692856134524
% V (V) @ t=1.04