% Model:              1 neuron.mph
% Version:            COMSOL 6.1.0.252
% Date:               Mar 18 2023, 14:03
% Dimension:          0
% Nodes:              14017
% Expressions:        14017
% Description:        Electric field norm, Electric field, X component, Electric field, Y component, Electric field, Z component, Tangential electric field, X component, Tangential electric field, Y component, Tangential electric field, Z component, Electric field, x component, Electric field, y component, Electric field, z component, Tangential electric field, x component, Tangential electric field, y component, Tangential electric field, z component, Electric potential
% Length unit:        mm
% x
1
% y
12.2
% z
1.33
% es.normE (V/m) @ t=0
4.106021853166508
% es.EX (V/m) @ t=0
3.794503767016449
% es.EY (V/m) @ t=0
0.23892475799015744
% es.EZ (V/m) @ t=0
1.5339700175550743
% es.tEX (V/m) @ t=0
3.7945037670164723
% es.tEY (V/m) @ t=0
0
% es.tEZ (V/m) @ t=0
1.5339700175550597
% es.Ex (V/m) @ t=0
3.794503767016449
% es.Ey (V/m) @ t=0
0.23892475799015744
% es.Ez (V/m) @ t=0
1.5339700175550743
% es.tEx (V/m) @ t=0
3.7945037670164723
% es.tEy (V/m) @ t=0
0
% es.tEz (V/m) @ t=0
1.5339700175550597
% V (V) @ t=0
0.020481515760663593
% es.normE (V/m) @ t=0.02
3.848039915711505
% es.EX (V/m) @ t=0.02
3.5560945479117585
% es.EY (V/m) @ t=0.02
0.22391310261258335
% es.EZ (V/m) @ t=0.02
1.437590479583005
% es.tEX (V/m) @ t=0.02
3.5560945479117514
% es.tEY (V/m) @ t=0.02
0
% es.tEZ (V/m) @ t=0.02
1.437590479583001
% es.Ex (V/m) @ t=0.02
3.5560945479117585
% es.Ey (V/m) @ t=0.02
0.22391310261258335
% es.Ez (V/m) @ t=0.02
1.437590479583005
% es.tEx (V/m) @ t=0.02
3.5560945479117514
% es.tEy (V/m) @ t=0.02
0
% es.tEz (V/m) @ t=0.02
1.437590479583001
% V (V) @ t=0.02
0.019194658148533234
% es.normE (V/m) @ t=0.04
3.904073168619002
% es.EX (V/m) @ t=0.04
3.607876640859681
% es.EY (V/m) @ t=0.04
0.22717360686172428
% es.EZ (V/m) @ t=0.04
1.4585239513456698
% es.tEX (V/m) @ t=0.04
3.607876640859672
% es.tEY (V/m) @ t=0.04
0
% es.tEZ (V/m) @ t=0.04
1.4585239513456614
% es.Ex (V/m) @ t=0.04
3.607876640859681
% es.Ey (V/m) @ t=0.04
0.22717360686172428
% es.Ez (V/m) @ t=0.04
1.4585239513456698
% es.tEx (V/m) @ t=0.04
3.607876640859672
% es.tEy (V/m) @ t=0.04
0
% es.tEz (V/m) @ t=0.04
1.4585239513456614
% V (V) @ t=0.04
0.01947416165666619
% es.normE (V/m) @ t=0.06
3.9608966944528894
% es.EX (V/m) @ t=0.06
3.660389052997619
% es.EY (V/m) @ t=0.06
0.2304800895857264
% es.EZ (V/m) @ t=0.06
1.479752654108828
% es.tEX (V/m) @ t=0.06
3.660389052997626
% es.tEY (V/m) @ t=0.06
0
% es.tEZ (V/m) @ t=0.06
1.4797526541088297
% es.Ex (V/m) @ t=0.06
3.660389052997619
% es.Ey (V/m) @ t=0.06
0.2304800895857264
% es.Ez (V/m) @ t=0.06
1.479752654108828
% es.tEx (V/m) @ t=0.06
3.660389052997626
% es.tEy (V/m) @ t=0.06
0
% es.tEz (V/m) @ t=0.06
1.4797526541088297
% V (V) @ t=0.06
0.019757607518875283
% es.normE (V/m) @ t=0.08
4.01893793365333
% es.EX (V/m) @ t=0.08
3.7140267970708454
% es.EY (V/m) @ t=0.08
0.23385742053355463
% es.EZ (V/m) @ t=0.08
1.501436271685598
% es.tEX (V/m) @ t=0.08
3.7140267970708365
% es.tEY (V/m) @ t=0.08
0
% es.tEZ (V/m) @ t=0.08
1.501436271685602
% es.Ex (V/m) @ t=0.08
3.7140267970708454
% es.Ey (V/m) @ t=0.08
0.23385742053355463
% es.Ez (V/m) @ t=0.08
1.501436271685598
% es.tEx (V/m) @ t=0.08
3.7140267970708365
% es.tEy (V/m) @ t=0.08
0
% es.tEz (V/m) @ t=0.08
1.501436271685602
% V (V) @ t=0.08
0.02004712801559248
% es.normE (V/m) @ t=0.1
4.076979172853772
% es.EX (V/m) @ t=0.1
3.7676645411440486
% es.EY (V/m) @ t=0.1
0.2372347514813602
% es.EZ (V/m) @ t=0.1
1.523119889262436
% es.tEX (V/m) @ t=0.1
3.7676645411440255
% es.tEY (V/m) @ t=0.1
0
% es.tEZ (V/m) @ t=0.1
1.5231198892624445
% es.Ex (V/m) @ t=0.1
3.7676645411440486
% es.Ey (V/m) @ t=0.1
0.2372347514813602
% es.Ez (V/m) @ t=0.1
1.523119889262436
% es.tEx (V/m) @ t=0.1
3.7676645411440255
% es.tEy (V/m) @ t=0.1
0
% es.tEz (V/m) @ t=0.1
1.5231198892624445
% V (V) @ t=0.1
0.02033664851230968
% es.normE (V/m) @ t=0.12
4.1370422848925585
% es.EX (V/m) @ t=0.12
3.823170620114876
% es.EY (V/m) @ t=0.12
0.24073000763251184
% es.EZ (V/m) @ t=0.12
1.5455591881732302
% es.tEX (V/m) @ t=0.12
3.823170620114876
% es.tEY (V/m) @ t=0.12
0
% es.tEZ (V/m) @ t=0.12
1.5455591881732262
% es.Ex (V/m) @ t=0.12
3.823170620114876
% es.Ey (V/m) @ t=0.12
0.24073000763251184
% es.Ez (V/m) @ t=0.12
1.5455591881732302
% es.tEx (V/m) @ t=0.12
3.823170620114876
% es.tEy (V/m) @ t=0.12
0
% es.tEz (V/m) @ t=0.12
1.5455591881732262
% V (V) @ t=0.12
0.02063624009432633
% es.normE (V/m) @ t=0.14
4.198589144242981
% es.EX (V/m) @ t=0.14
3.880047772888556
% es.EY (V/m) @ t=0.14
0.24431180295670107
% es.EZ (V/m) @ t=0.14
1.5685530423094662
% es.tEX (V/m) @ t=0.14
3.880047772888549
% es.tEY (V/m) @ t=0.14
0
% es.tEZ (V/m) @ t=0.14
1.5685530423094667
% es.Ex (V/m) @ t=0.14
3.880047772888556
% es.Ey (V/m) @ t=0.14
0.24431180295670107
% es.Ez (V/m) @ t=0.14
1.5685530423094662
% es.tEx (V/m) @ t=0.14
3.880047772888549
% es.tEy (V/m) @ t=0.14
0
% es.tEz (V/m) @ t=0.14
1.5685530423094667
% V (V) @ t=0.14
0.020943222322012428
% es.normE (V/m) @ t=0.16
4.260136003593525
% es.EX (V/m) @ t=0.16
3.9369249256622165
% es.EY (V/m) @ t=0.16
0.24789359828087276
% es.EZ (V/m) @ t=0.16
1.5915468964456996
% es.tEX (V/m) @ t=0.16
3.9369249256622147
% es.tEY (V/m) @ t=0.16
0
% es.tEZ (V/m) @ t=0.16
1.5915468964457125
% es.Ex (V/m) @ t=0.16
3.9369249256622165
% es.Ey (V/m) @ t=0.16
0.24789359828087276
% es.Ez (V/m) @ t=0.16
1.5915468964456996
% es.tEx (V/m) @ t=0.16
3.9369249256622147
% es.tEy (V/m) @ t=0.16
0
% es.tEz (V/m) @ t=0.16
1.5915468964457125
% V (V) @ t=0.16
0.021250204549698514
% es.normE (V/m) @ t=0.18
4.321682862944208
% es.EX (V/m) @ t=0.18
3.9938020784358823
% es.EY (V/m) @ t=0.18
0.25147539360507065
% es.EZ (V/m) @ t=0.18
1.6145407505819223
% es.tEX (V/m) @ t=0.18
3.9938020784358734
% es.tEY (V/m) @ t=0.18
0
% es.tEZ (V/m) @ t=0.18
1.6145407505819165
% es.Ex (V/m) @ t=0.18
3.9938020784358823
% es.Ey (V/m) @ t=0.18
0.25147539360507065
% es.Ez (V/m) @ t=0.18
1.6145407505819223
% es.tEx (V/m) @ t=0.18
3.9938020784358734
% es.tEy (V/m) @ t=0.18
0
% es.tEz (V/m) @ t=0.18
1.6145407505819165
% V (V) @ t=0.18
0.021557186777384614
% es.normE (V/m) @ t=0.2
4.383229722295007
% es.EX (V/m) @ t=0.2
4.05067923120953
% es.EY (V/m) @ t=0.2
0.25505718892925766
% es.EZ (V/m) @ t=0.2
1.6375346047181547
% es.tEX (V/m) @ t=0.2
4.050679231209543
% es.tEY (V/m) @ t=0.2
0
% es.tEZ (V/m) @ t=0.2
1.6375346047181756
% es.Ex (V/m) @ t=0.2
4.05067923120953
% es.Ey (V/m) @ t=0.2
0.25505718892925766
% es.Ez (V/m) @ t=0.2
1.6375346047181547
% es.tEx (V/m) @ t=0.2
4.050679231209543
% es.tEy (V/m) @ t=0.2
0
% es.tEz (V/m) @ t=0.2
1.6375346047181756
% V (V) @ t=0.2
0.021864169005070704
% es.normE (V/m) @ t=0.22
4.445332552037325
% es.EX (V/m) @ t=0.22
4.108070240295223
% es.EY (V/m) @ t=0.22
0.2586712025357709
% es.EZ (V/m) @ t=0.22
1.6607360090924002
% es.tEX (V/m) @ t=0.22
4.108070240295245
% es.tEY (V/m) @ t=0.22
0
% es.tEZ (V/m) @ t=0.22
1.6607360090924086
% es.Ex (V/m) @ t=0.22
4.108070240295223
% es.Ey (V/m) @ t=0.22
0.2586712025357709
% es.Ez (V/m) @ t=0.22
1.6607360090924002
% es.tEx (V/m) @ t=0.22
4.108070240295245
% es.tEy (V/m) @ t=0.22
0
% es.tEz (V/m) @ t=0.22
1.6607360090924086
% V (V) @ t=0.22
0.02217393142854293
% es.normE (V/m) @ t=0.24
4.510419163670038
% es.EX (V/m) @ t=0.24
4.168219013430692
% es.EY (V/m) @ t=0.24
0.26245812521939027
% es.EZ (V/m) @ t=0.24
1.6850512940814428
% es.tEX (V/m) @ t=0.24
4.168219013430683
% es.tEY (V/m) @ t=0.24
0
% es.tEZ (V/m) @ t=0.24
1.6850512940814433
% es.Ex (V/m) @ t=0.24
4.168219013430692
% es.Ey (V/m) @ t=0.24
0.26245812521939027
% es.Ez (V/m) @ t=0.24
1.6850512940814428
% es.tEx (V/m) @ t=0.24
4.168219013430683
% es.tEy (V/m) @ t=0.24
0
% es.tEz (V/m) @ t=0.24
1.6850512940814433
% V (V) @ t=0.24
0.022498614606728834
% es.normE (V/m) @ t=0.26
4.5755057753028705
% es.EX (V/m) @ t=0.26
4.228367786566157
% es.EY (V/m) @ t=0.26
0.2662450479030518
% es.EZ (V/m) @ t=0.26
1.7093665790705121
% es.tEX (V/m) @ t=0.26
4.2283677865661495
% es.tEY (V/m) @ t=0.26
0
% es.tEZ (V/m) @ t=0.26
1.7093665790705153
% es.Ex (V/m) @ t=0.26
4.228367786566157
% es.Ey (V/m) @ t=0.26
0.2662450479030518
% es.Ez (V/m) @ t=0.26
1.7093665790705121
% es.tEx (V/m) @ t=0.26
4.2283677865661495
% es.tEy (V/m) @ t=0.26
0
% es.tEz (V/m) @ t=0.26
1.7093665790705153
% V (V) @ t=0.26
0.022823297784914744
% es.normE (V/m) @ t=0.28
4.640592386935781
% es.EX (V/m) @ t=0.28
4.288516559701609
% es.EY (V/m) @ t=0.28
0.27003197058667916
% es.EZ (V/m) @ t=0.28
1.733681864059546
% es.tEX (V/m) @ t=0.28
4.288516559701609
% es.tEY (V/m) @ t=0.28
0
% es.tEZ (V/m) @ t=0.28
1.733681864059533
% es.Ex (V/m) @ t=0.28
4.288516559701609
% es.Ey (V/m) @ t=0.28
0.27003197058667916
% es.Ez (V/m) @ t=0.28
1.733681864059546
% es.tEx (V/m) @ t=0.28
4.288516559701609
% es.tEy (V/m) @ t=0.28
0
% es.tEz (V/m) @ t=0.28
1.733681864059533
% V (V) @ t=0.28
0.02314798096310065
% es.normE (V/m) @ t=0.3
4.705678998568796
% es.EX (V/m) @ t=0.3
4.34866533283706
% es.EY (V/m) @ t=0.3
0.2738188932702963
% es.EZ (V/m) @ t=0.3
1.7579971490485877
% es.tEX (V/m) @ t=0.3
4.348665332837054
% es.tEY (V/m) @ t=0.3
0
% es.tEZ (V/m) @ t=0.3
1.7579971490485944
% es.Ex (V/m) @ t=0.3
4.34866533283706
% es.Ey (V/m) @ t=0.3
0.2738188932702963
% es.Ez (V/m) @ t=0.3
1.7579971490485877
% es.tEx (V/m) @ t=0.3
4.348665332837054
% es.tEy (V/m) @ t=0.3
0
% es.tEz (V/m) @ t=0.3
1.7579971490485944
% V (V) @ t=0.3
0.023472664141286553
% es.normE (V/m) @ t=0.32
4.7707656102019245
% es.EX (V/m) @ t=0.32
4.408814105972514
% es.EY (V/m) @ t=0.32
0.27760581595392764
% es.EZ (V/m) @ t=0.32
1.7823124340376606
% es.tEX (V/m) @ t=0.32
4.408814105972528
% es.tEY (V/m) @ t=0.32
0
% es.tEZ (V/m) @ t=0.32
1.782312434037661
% es.Ex (V/m) @ t=0.32
4.408814105972514
% es.Ey (V/m) @ t=0.32
0.27760581595392764
% es.Ez (V/m) @ t=0.32
1.7823124340376606
% es.tEx (V/m) @ t=0.32
4.408814105972528
% es.tEy (V/m) @ t=0.32
0
% es.tEz (V/m) @ t=0.32
1.782312434037661
% V (V) @ t=0.32
0.023797347319472452
% es.normE (V/m) @ t=0.34
4.841041023487044
% es.EX (V/m) @ t=0.34
4.473756999727394
% es.EY (V/m) @ t=0.34
0.28169672948611635
% es.EZ (V/m) @ t=0.34
1.808568560574388
% es.tEX (V/m) @ t=0.34
4.473756999727378
% es.tEY (V/m) @ t=0.34
0
% es.tEZ (V/m) @ t=0.34
1.8085685605743915
% es.Ex (V/m) @ t=0.34
4.473756999727394
% es.Ey (V/m) @ t=0.34
0.28169672948611635
% es.Ez (V/m) @ t=0.34
1.808568560574388
% es.tEx (V/m) @ t=0.34
4.473756999727378
% es.tEy (V/m) @ t=0.34
0
% es.tEz (V/m) @ t=0.34
1.8085685605743915
% V (V) @ t=0.34
0.02414780608736134
% es.normE (V/m) @ t=0.36
4.9131644651377755
% es.EX (V/m) @ t=0.36
4.540407353407188
% es.EY (V/m) @ t=0.36
0.28589591150649185
% es.EZ (V/m) @ t=0.36
1.835515931538715
% es.tEX (V/m) @ t=0.36
4.540407353407183
% es.tEY (V/m) @ t=0.36
0
% es.tEZ (V/m) @ t=0.36
1.8355159315387102
% es.Ex (V/m) @ t=0.36
4.540407353407188
% es.Ey (V/m) @ t=0.36
0.28589591150649185
% es.Ez (V/m) @ t=0.36
1.835515931538715
% es.tEx (V/m) @ t=0.36
4.540407353407183
% es.tEy (V/m) @ t=0.36
0
% es.tEz (V/m) @ t=0.36
1.8355159315387102
% V (V) @ t=0.36
0.02450744501360523
% es.normE (V/m) @ t=0.38
4.985287906791648
% es.EX (V/m) @ t=0.38
4.607057707086961
% es.EY (V/m) @ t=0.38
0.29009509352682805
% es.EZ (V/m) @ t=0.38
1.8624633025030004
% es.tEX (V/m) @ t=0.38
4.607057707086952
% es.tEY (V/m) @ t=0.38
0
% es.tEZ (V/m) @ t=0.38
1.8624633025030004
% es.Ex (V/m) @ t=0.38
4.607057707086961
% es.Ey (V/m) @ t=0.38
0.29009509352682805
% es.Ez (V/m) @ t=0.38
1.8624633025030004
% es.tEx (V/m) @ t=0.38
4.607057707086952
% es.tEy (V/m) @ t=0.38
0
% es.tEz (V/m) @ t=0.38
1.8624633025030004
% V (V) @ t=0.38
0.02486708393984911
% es.normE (V/m) @ t=0.4
5.057411348448566
% es.EX (V/m) @ t=0.4
4.6737080607667245
% es.EY (V/m) @ t=0.4
0.2942942755471789
% es.EZ (V/m) @ t=0.4
1.8894106734673226
% es.tEX (V/m) @ t=0.4
4.673708060766717
% es.tEY (V/m) @ t=0.4
0
% es.tEZ (V/m) @ t=0.4
1.8894106734673208
% es.Ex (V/m) @ t=0.4
4.6737080607667245
% es.Ey (V/m) @ t=0.4
0.2942942755471789
% es.Ez (V/m) @ t=0.4
1.8894106734673226
% es.tEx (V/m) @ t=0.4
4.673708060766717
% es.tEy (V/m) @ t=0.4
0
% es.tEz (V/m) @ t=0.4
1.8894106734673208
% V (V) @ t=0.4
0.025226722866093
% es.normE (V/m) @ t=0.42
5.1295347901084245
% es.EX (V/m) @ t=0.42
4.740358414446533
% es.EY (V/m) @ t=0.42
0.29849345756754686
% es.EZ (V/m) @ t=0.42
1.9163580444316004
% es.tEX (V/m) @ t=0.42
4.740358414446543
% es.tEY (V/m) @ t=0.42
0
% es.tEZ (V/m) @ t=0.42
1.916358044431611
% es.Ex (V/m) @ t=0.42
4.740358414446533
% es.Ey (V/m) @ t=0.42
0.29849345756754686
% es.Ez (V/m) @ t=0.42
1.9163580444316004
% es.tEx (V/m) @ t=0.42
4.740358414446543
% es.tEy (V/m) @ t=0.42
0
% es.tEz (V/m) @ t=0.42
1.916358044431611
% V (V) @ t=0.42
0.025586361792336886
% es.normE (V/m) @ t=0.44
5.201658231771059
% es.EX (V/m) @ t=0.44
4.807008768126305
% es.EY (V/m) @ t=0.44
0.3026926395879066
% es.EZ (V/m) @ t=0.44
1.9433054153959155
% es.tEX (V/m) @ t=0.44
4.807008768126309
% es.tEY (V/m) @ t=0.44
0
% es.tEZ (V/m) @ t=0.44
1.943305415395919
% es.Ex (V/m) @ t=0.44
4.807008768126305
% es.Ey (V/m) @ t=0.44
0.3026926395879066
% es.Ez (V/m) @ t=0.44
1.9433054153959155
% es.tEx (V/m) @ t=0.44
4.807008768126309
% es.tEy (V/m) @ t=0.44
0
% es.tEz (V/m) @ t=0.44
1.943305415395919
% V (V) @ t=0.44
0.02594600071858077
% es.normE (V/m) @ t=0.46
5.2737816734363925
% es.EX (V/m) @ t=0.46
4.873659121806105
% es.EY (V/m) @ t=0.46
0.3068918216082659
% es.EZ (V/m) @ t=0.46
1.9702527863602297
% es.tEX (V/m) @ t=0.46
4.873659121806114
% es.tEY (V/m) @ t=0.46
0
% es.tEZ (V/m) @ t=0.46
1.9702527863602253
% es.Ex (V/m) @ t=0.46
4.873659121806105
% es.Ey (V/m) @ t=0.46
0.3068918216082659
% es.Ez (V/m) @ t=0.46
1.9702527863602297
% es.tEx (V/m) @ t=0.46
4.873659121806114
% es.tEy (V/m) @ t=0.46
0
% es.tEz (V/m) @ t=0.46
1.9702527863602253
% V (V) @ t=0.46
0.026305639644824654
% es.normE (V/m) @ t=0.48
5.345905115104268
% es.EX (V/m) @ t=0.48
4.940309475485876
% es.EY (V/m) @ t=0.48
0.3110910036286043
% es.EZ (V/m) @ t=0.48
1.9972001573245404
% es.tEX (V/m) @ t=0.48
4.940309475485872
% es.tEY (V/m) @ t=0.48
0
% es.tEZ (V/m) @ t=0.48
1.9972001573245368
% es.Ex (V/m) @ t=0.48
4.940309475485876
% es.Ey (V/m) @ t=0.48
0.3110910036286043
% es.Ez (V/m) @ t=0.48
1.9972001573245404
% es.tEx (V/m) @ t=0.48
4.940309475485872
% es.tEy (V/m) @ t=0.48
0
% es.tEz (V/m) @ t=0.48
1.9972001573245368
% V (V) @ t=0.48
0.026665278571068547
% es.normE (V/m) @ t=0.5
5.4180285567746385
% es.EX (V/m) @ t=0.5
5.006959829165677
% es.EY (V/m) @ t=0.5
0.3152901856489603
% es.EZ (V/m) @ t=0.5
2.0241475282888457
% es.tEX (V/m) @ t=0.5
5.00695982916568
% es.tEY (V/m) @ t=0.5
0
% es.tEZ (V/m) @ t=0.5
2.0241475282888537
% es.Ex (V/m) @ t=0.5
5.006959829165677
% es.Ey (V/m) @ t=0.5
0.3152901856489603
% es.Ez (V/m) @ t=0.5
2.0241475282888457
% es.tEx (V/m) @ t=0.5
5.00695982916568
% es.tEy (V/m) @ t=0.5
0
% es.tEz (V/m) @ t=0.5
2.0241475282888537
% V (V) @ t=0.5
0.027024917497312437
% es.normE (V/m) @ t=0.52
5.490151998447372
% es.EX (V/m) @ t=0.52
5.07361018284546
% es.EY (V/m) @ t=0.52
0.3194893676693198
% es.EZ (V/m) @ t=0.52
2.051094899253176
% es.tEX (V/m) @ t=0.52
5.073610182845478
% es.tEY (V/m) @ t=0.52
0
% es.tEZ (V/m) @ t=0.52
2.0510948992531635
% es.Ex (V/m) @ t=0.52
5.07361018284546
% es.Ey (V/m) @ t=0.52
0.3194893676693198
% es.Ez (V/m) @ t=0.52
2.051094899253176
% es.tEx (V/m) @ t=0.52
5.073610182845478
% es.tEy (V/m) @ t=0.52
0
% es.tEz (V/m) @ t=0.52
2.0510948992531635
% V (V) @ t=0.52
0.027384556423556326
% es.normE (V/m) @ t=0.54
5.562275440122347
% es.EX (V/m) @ t=0.54
5.140260536525229
% es.EY (V/m) @ t=0.54
0.3236885496896542
% es.EZ (V/m) @ t=0.54
2.0780422702174537
% es.tEX (V/m) @ t=0.54
5.1402605365252505
% es.tEY (V/m) @ t=0.54
0
% es.tEZ (V/m) @ t=0.54
2.078042270217466
% es.Ex (V/m) @ t=0.54
5.140260536525229
% es.Ey (V/m) @ t=0.54
0.3236885496896542
% es.Ez (V/m) @ t=0.54
2.0780422702174537
% es.tEx (V/m) @ t=0.54
5.1402605365252505
% es.tEy (V/m) @ t=0.54
0
% es.tEz (V/m) @ t=0.54
2.078042270217466
% V (V) @ t=0.54
0.02774419534980021
% es.normE (V/m) @ t=0.56
5.639532588478339
% es.EX (V/m) @ t=0.56
5.2116576218459265
% es.EY (V/m) @ t=0.56
0.3281813772179403
% es.EZ (V/m) @ t=0.56
2.1069017069703193
% es.tEX (V/m) @ t=0.56
5.211657621845919
% es.tEY (V/m) @ t=0.56
0
% es.tEZ (V/m) @ t=0.56
2.106901706970312
% es.Ex (V/m) @ t=0.56
5.2116576218459265
% es.Ey (V/m) @ t=0.56
0.3281813772179403
% es.Ez (V/m) @ t=0.56
2.1069017069703193
% es.tEx (V/m) @ t=0.56
5.211657621845919
% es.tEy (V/m) @ t=0.56
0
% es.tEz (V/m) @ t=0.56
2.106901706970312
% V (V) @ t=0.56
0.028129706021094644
% es.normE (V/m) @ t=0.58
5.717372829801974
% es.EX (V/m) @ t=0.58
5.283593847008905
% es.EY (V/m) @ t=0.58
0.3327075573780498
% es.EZ (V/m) @ t=0.58
2.135978318597549
% es.tEX (V/m) @ t=0.58
5.283593847008888
% es.tEY (V/m) @ t=0.58
0
% es.tEZ (V/m) @ t=0.58
2.135978318597541
% es.Ex (V/m) @ t=0.58
5.283593847008905
% es.Ey (V/m) @ t=0.58
0.3327075573780498
% es.Ez (V/m) @ t=0.58
2.135978318597549
% es.tEx (V/m) @ t=0.58
5.283593847008888
% es.tEy (V/m) @ t=0.58
0
% es.tEz (V/m) @ t=0.58
2.135978318597541
% V (V) @ t=0.58
0.028518155238235234
% es.normE (V/m) @ t=0.6
5.795213071131842
% es.EX (V/m) @ t=0.6
5.355530072171852
% es.EY (V/m) @ t=0.6
0.3372337375381702
% es.EZ (V/m) @ t=0.6
2.1650549302247573
% es.tEX (V/m) @ t=0.6
5.355530072171849
% es.tEY (V/m) @ t=0.6
0
% es.tEZ (V/m) @ t=0.6
2.1650549302247537
% es.Ex (V/m) @ t=0.6
5.355530072171852
% es.Ey (V/m) @ t=0.6
0.3372337375381702
% es.Ez (V/m) @ t=0.6
2.1650549302247573
% es.tEx (V/m) @ t=0.6
5.355530072171849
% es.tEy (V/m) @ t=0.6
0
% es.tEz (V/m) @ t=0.6
2.1650549302247537
% V (V) @ t=0.6
0.028906604455375805
% es.normE (V/m) @ t=0.62
5.873053312467755
% es.EX (V/m) @ t=0.62
5.4274662973348065
% es.EY (V/m) @ t=0.62
0.3417599176982835
% es.EZ (V/m) @ t=0.62
2.194131541851993
% es.tEX (V/m) @ t=0.62
5.4274662973348065
% es.tEY (V/m) @ t=0.62
0
% es.tEZ (V/m) @ t=0.62
2.194131541851993
% es.Ex (V/m) @ t=0.62
5.4274662973348065
% es.Ey (V/m) @ t=0.62
0.3417599176982835
% es.Ez (V/m) @ t=0.62
2.194131541851993
% es.tEx (V/m) @ t=0.62
5.4274662973348065
% es.tEy (V/m) @ t=0.62
0
% es.tEz (V/m) @ t=0.62
2.194131541851993
% V (V) @ t=0.62
0.02929505367251639
% es.normE (V/m) @ t=0.64
5.9508935538094825
% es.EX (V/m) @ t=0.64
5.4994025224977925
% es.EY (V/m) @ t=0.64
0.34628609785840037
% es.EZ (V/m) @ t=0.64
2.2232081534792183
% es.tEX (V/m) @ t=0.64
5.4994025224977605
% es.tEY (V/m) @ t=0.64
0
% es.tEZ (V/m) @ t=0.64
2.223208153479211
% es.Ex (V/m) @ t=0.64
5.4994025224977925
% es.Ey (V/m) @ t=0.64
0.34628609785840037
% es.Ez (V/m) @ t=0.64
2.2232081534792183
% es.tEx (V/m) @ t=0.64
5.4994025224977605
% es.tEy (V/m) @ t=0.64
0
% es.tEz (V/m) @ t=0.64
2.223208153479211
% V (V) @ t=0.64
0.029683502889656977
% es.normE (V/m) @ t=0.66
6.028733795156718
% es.EX (V/m) @ t=0.66
5.571338747660729
% es.EY (V/m) @ t=0.66
0.35081227801848525
% es.EZ (V/m) @ t=0.66
2.2522847651064257
% es.tEX (V/m) @ t=0.66
5.571338747660715
% es.tEY (V/m) @ t=0.66
0
% es.tEZ (V/m) @ t=0.66
2.2522847651064364
% es.Ex (V/m) @ t=0.66
5.571338747660729
% es.Ey (V/m) @ t=0.66
0.35081227801848525
% es.Ez (V/m) @ t=0.66
2.2522847651064257
% es.tEx (V/m) @ t=0.66
5.571338747660715
% es.tEy (V/m) @ t=0.66
0
% es.tEz (V/m) @ t=0.66
2.2522847651064364
% V (V) @ t=0.66
0.030071952106797556
% es.normE (V/m) @ t=0.68
6.10657403650935
% es.EX (V/m) @ t=0.68
5.643274972823704
% es.EY (V/m) @ t=0.68
0.3553384581786161
% es.EZ (V/m) @ t=0.68
2.2813613767336474
% es.tEX (V/m) @ t=0.68
5.643274972823715
% es.tEY (V/m) @ t=0.68
0
% es.tEZ (V/m) @ t=0.68
2.2813613767336474
% es.Ex (V/m) @ t=0.68
5.643274972823704
% es.Ey (V/m) @ t=0.68
0.3553384581786161
% es.Ez (V/m) @ t=0.68
2.2813613767336474
% es.tEx (V/m) @ t=0.68
5.643274972823715
% es.tEy (V/m) @ t=0.68
0
% es.tEz (V/m) @ t=0.68
2.2813613767336474
% V (V) @ t=0.68
0.030460401323938138
% es.normE (V/m) @ t=0.7
6.184414277867121
% es.EX (V/m) @ t=0.7
5.715211197986665
% es.EY (V/m) @ t=0.7
0.35986463833874716
% es.EZ (V/m) @ t=0.7
2.310437988360862
% es.tEX (V/m) @ t=0.7
5.715211197986676
% es.tEY (V/m) @ t=0.7
0
% es.tEZ (V/m) @ t=0.7
2.3104379883608583
% es.Ex (V/m) @ t=0.7
5.715211197986665
% es.Ey (V/m) @ t=0.7
0.35986463833874716
% es.Ez (V/m) @ t=0.7
2.310437988360862
% es.tEx (V/m) @ t=0.7
5.715211197986676
% es.tEy (V/m) @ t=0.7
0
% es.tEz (V/m) @ t=0.7
2.3104379883608583
% V (V) @ t=0.7
0.030848850541078724
% es.normE (V/m) @ t=0.72
6.262254519229851
% es.EX (V/m) @ t=0.72
5.787147423149634
% es.EY (V/m) @ t=0.72
0.36439081849884225
% es.EZ (V/m) @ t=0.72
2.339514599988073
% es.tEX (V/m) @ t=0.72
5.78714742314963
% es.tEY (V/m) @ t=0.72
0
% es.tEZ (V/m) @ t=0.72
2.33951459998808
% es.Ex (V/m) @ t=0.72
5.787147423149634
% es.Ey (V/m) @ t=0.72
0.36439081849884225
% es.Ez (V/m) @ t=0.72
2.339514599988073
% es.tEx (V/m) @ t=0.72
5.78714742314963
% es.tEy (V/m) @ t=0.72
0
% es.tEz (V/m) @ t=0.72
2.33951459998808
% V (V) @ t=0.72
0.031237299758219296
% es.normE (V/m) @ t=0.74
6.3407301778090925
% es.EX (V/m) @ t=0.74
5.859670540896342
% es.EY (V/m) @ t=0.74
0.3689546121598488
% es.EZ (V/m) @ t=0.74
2.36882933267211
% es.tEX (V/m) @ t=0.74
5.859670540896339
% es.tEY (V/m) @ t=0.74
0
% es.tEZ (V/m) @ t=0.74
2.3688293326721137
% es.Ex (V/m) @ t=0.74
5.859670540896342
% es.Ey (V/m) @ t=0.74
0.3689546121598488
% es.Ez (V/m) @ t=0.74
2.36882933267211
% es.tEx (V/m) @ t=0.74
5.859670540896339
% es.tEy (V/m) @ t=0.74
0
% es.tEz (V/m) @ t=0.74
2.3688293326721137
% V (V) @ t=0.74
0.03162888531234775
% es.normE (V/m) @ t=0.76
6.423027394844477
% es.EX (V/m) @ t=0.76
5.935723377815695
% es.EY (V/m) @ t=0.76
0.37374462284736665
% es.EZ (V/m) @ t=0.76
2.399576185104838
% es.tEX (V/m) @ t=0.76
5.935723377815695
% es.tEY (V/m) @ t=0.76
0
% es.tEZ (V/m) @ t=0.76
2.399576185104838
% es.Ex (V/m) @ t=0.76
5.935723377815695
% es.Ey (V/m) @ t=0.76
0.37374462284736665
% es.Ez (V/m) @ t=0.76
2.399576185104838
% es.tEx (V/m) @ t=0.76
5.935723377815695
% es.tEy (V/m) @ t=0.76
0
% es.tEz (V/m) @ t=0.76
2.399576185104838
% V (V) @ t=0.76
0.032039333583613966
% es.normE (V/m) @ t=0.78
6.505324611880598
% es.EX (V/m) @ t=0.78
6.0117762147350255
% es.EY (V/m) @ t=0.78
0.3785346335348032
% es.EZ (V/m) @ t=0.78
2.430323037537619
% es.tEX (V/m) @ t=0.78
6.011776214735022
% es.tEY (V/m) @ t=0.78
0
% es.tEZ (V/m) @ t=0.78
2.430323037537608
% es.Ex (V/m) @ t=0.78
6.0117762147350255
% es.Ey (V/m) @ t=0.78
0.3785346335348032
% es.Ez (V/m) @ t=0.78
2.430323037537619
% es.tEx (V/m) @ t=0.78
6.011776214735022
% es.tEy (V/m) @ t=0.78
0
% es.tEz (V/m) @ t=0.78
2.430323037537608
% V (V) @ t=0.78
0.03244978185488018
% es.normE (V/m) @ t=0.8
6.5876218289174595
% es.EX (V/m) @ t=0.8
6.087829051654428
% es.EY (V/m) @ t=0.8
0.38332464422223955
% es.EZ (V/m) @ t=0.8
2.461069889970327
% es.tEX (V/m) @ t=0.8
6.087829051654442
% es.tEY (V/m) @ t=0.8
0
% es.tEZ (V/m) @ t=0.8
2.461069889970334
% es.Ex (V/m) @ t=0.8
6.087829051654428
% es.Ey (V/m) @ t=0.8
0.38332464422223955
% es.Ez (V/m) @ t=0.8
2.461069889970327
% es.tEx (V/m) @ t=0.8
6.087829051654442
% es.tEy (V/m) @ t=0.8
0
% es.tEz (V/m) @ t=0.8
2.461069889970334
% V (V) @ t=0.8
0.03286023012614638
% es.normE (V/m) @ t=0.82
6.669919045954996
% es.EX (V/m) @ t=0.82
6.163881888573801
% es.EY (V/m) @ t=0.82
0.3881146549097574
% es.EZ (V/m) @ t=0.82
2.4918167424030884
% es.tEX (V/m) @ t=0.82
6.1638818885737905
% es.tEY (V/m) @ t=0.82
0
% es.tEZ (V/m) @ t=0.82
2.4918167424030955
% es.Ex (V/m) @ t=0.82
6.163881888573801
% es.Ey (V/m) @ t=0.82
0.3881146549097574
% es.Ez (V/m) @ t=0.82
2.4918167424030884
% es.tEx (V/m) @ t=0.82
6.1638818885737905
% es.tEy (V/m) @ t=0.82
0
% es.tEz (V/m) @ t=0.82
2.4918167424030955
% V (V) @ t=0.82
0.03327067839741261
% es.normE (V/m) @ t=0.84
6.752216262993205
% es.EX (V/m) @ t=0.84
6.2399347254931605
% es.EY (V/m) @ t=0.84
0.39290466559725434
% es.EZ (V/m) @ t=0.84
2.5225635948359244
% es.tEX (V/m) @ t=0.84
6.239934725493175
% es.tEY (V/m) @ t=0.84
0
% es.tEZ (V/m) @ t=0.84
2.5225635948359066
% es.Ex (V/m) @ t=0.84
6.2399347254931605
% es.Ey (V/m) @ t=0.84
0.39290466559725434
% es.Ez (V/m) @ t=0.84
2.5225635948359244
% es.tEx (V/m) @ t=0.84
6.239934725493175
% es.tEy (V/m) @ t=0.84
0
% es.tEz (V/m) @ t=0.84
2.5225635948359066
% V (V) @ t=0.84
0.03368112666867881
% es.normE (V/m) @ t=0.86
6.834513480031975
% es.EX (V/m) @ t=0.86
6.315987562412488
% es.EY (V/m) @ t=0.86
0.3976946762847118
% es.EZ (V/m) @ t=0.86
2.553310447268668
% es.tEX (V/m) @ t=0.86
6.315987562412488
% es.tEY (V/m) @ t=0.86
0
% es.tEZ (V/m) @ t=0.86
2.553310447268661
% es.Ex (V/m) @ t=0.86
6.315987562412488
% es.Ey (V/m) @ t=0.86
0.3976946762847118
% es.Ez (V/m) @ t=0.86
2.553310447268668
% es.tEx (V/m) @ t=0.86
6.315987562412488
% es.tEy (V/m) @ t=0.86
0
% es.tEz (V/m) @ t=0.86
2.553310447268661
% V (V) @ t=0.86
0.034091574939945024
% es.normE (V/m) @ t=0.88
6.916810697071379
% es.EX (V/m) @ t=0.88
6.392040399331851
% es.EY (V/m) @ t=0.88
0.402484686972163
% es.EZ (V/m) @ t=0.88
2.584057299701392
% es.tEX (V/m) @ t=0.88
6.392040399331837
% es.tEY (V/m) @ t=0.88
0
% es.tEZ (V/m) @ t=0.88
2.5840572997013886
% es.Ex (V/m) @ t=0.88
6.392040399331851
% es.Ey (V/m) @ t=0.88
0.402484686972163
% es.Ez (V/m) @ t=0.88
2.584057299701392
% es.tEx (V/m) @ t=0.88
6.392040399331837
% es.tEy (V/m) @ t=0.88
0
% es.tEz (V/m) @ t=0.88
2.5840572997013886
% V (V) @ t=0.88
0.034502023211211236
% es.normE (V/m) @ t=0.9
6.9991079141113595
% es.EX (V/m) @ t=0.9
6.4680932362511925
% es.EY (V/m) @ t=0.9
0.4072746976596706
% es.EZ (V/m) @ t=0.9
2.6148041521341323
% es.tEX (V/m) @ t=0.9
6.4680932362511925
% es.tEY (V/m) @ t=0.9
0
% es.tEZ (V/m) @ t=0.9
2.614804152134136
% es.Ex (V/m) @ t=0.9
6.4680932362511925
% es.Ey (V/m) @ t=0.9
0.4072746976596706
% es.Ez (V/m) @ t=0.9
2.6148041521341323
% es.tEx (V/m) @ t=0.9
6.4680932362511925
% es.tEy (V/m) @ t=0.9
0
% es.tEz (V/m) @ t=0.9
2.614804152134136
% V (V) @ t=0.9
0.03491247148247745
% es.normE (V/m) @ t=0.92
7.08140513115198
% es.EX (V/m) @ t=0.92
6.544146073170584
% es.EY (V/m) @ t=0.92
0.4120647083470965
% es.EZ (V/m) @ t=0.92
2.6455510045669683
% es.tEX (V/m) @ t=0.92
6.544146073170605
% es.tEY (V/m) @ t=0.92
0
% es.tEZ (V/m) @ t=0.92
2.6455510045669755
% es.Ex (V/m) @ t=0.92
6.544146073170584
% es.Ey (V/m) @ t=0.92
0.4120647083470965
% es.Ez (V/m) @ t=0.92
2.6455510045669683
% es.tEx (V/m) @ t=0.92
6.544146073170605
% es.tEy (V/m) @ t=0.92
0
% es.tEz (V/m) @ t=0.92
2.6455510045669755
% V (V) @ t=0.92
0.03532291975374366
% es.normE (V/m) @ t=0.94
7.1647625208086545
% es.EX (V/m) @ t=0.94
6.621179417612868
% es.EY (V/m) @ t=0.94
0.41691484932803746
% es.EZ (V/m) @ t=0.94
2.6766921413600926
% es.tEX (V/m) @ t=0.94
6.621179417612854
% es.tEY (V/m) @ t=0.94
0
% es.tEZ (V/m) @ t=0.94
2.676692141360075
% es.Ex (V/m) @ t=0.94
6.621179417612868
% es.Ey (V/m) @ t=0.94
0.41691484932803746
% es.Ez (V/m) @ t=0.94
2.6766921413600926
% es.tEx (V/m) @ t=0.94
6.621179417612854
% es.tEy (V/m) @ t=0.94
0
% es.tEz (V/m) @ t=0.94
2.676692141360075
% V (V) @ t=0.94
0.03573873737944237
% es.normE (V/m) @ t=0.96
7.2497982806378705
% es.EX (V/m) @ t=0.96
6.699765013597844
% es.EY (V/m) @ t=0.96
0.42186018319484253
% es.EZ (V/m) @ t=0.96
2.708457473778882
% es.tEX (V/m) @ t=0.96
6.699765013597872
% es.tEY (V/m) @ t=0.96
0
% es.tEZ (V/m) @ t=0.96
2.7084574737788714
% es.Ex (V/m) @ t=0.96
6.699765013597844
% es.Ey (V/m) @ t=0.96
0.42186018319484253
% es.Ez (V/m) @ t=0.96
2.708457473778882
% es.tEx (V/m) @ t=0.96
6.699765013597872
% es.tEy (V/m) @ t=0.96
0
% es.tEz (V/m) @ t=0.96
2.7084574737788714
% V (V) @ t=0.96
0.036163055285359645
% es.normE (V/m) @ t=0.98
7.334834040470183
% es.EX (V/m) @ t=0.98
6.778350609582761
% es.EY (V/m) @ t=0.98
0.4268055170615481
% es.EZ (V/m) @ t=0.98
2.740222806197651
% es.tEX (V/m) @ t=0.98
6.778350609582763
% es.tEY (V/m) @ t=0.98
0
% es.tEZ (V/m) @ t=0.98
2.7402228061976697
% es.Ex (V/m) @ t=0.98
6.778350609582761
% es.Ey (V/m) @ t=0.98
0.4268055170615481
% es.Ez (V/m) @ t=0.98
2.740222806197651
% es.tEx (V/m) @ t=0.98
6.778350609582763
% es.tEy (V/m) @ t=0.98
0
% es.tEz (V/m) @ t=0.98
2.7402228061976697
% V (V) @ t=0.98
0.0365873731912769
% es.normE (V/m) @ t=1
7.419869800305622
% es.EX (V/m) @ t=1
6.85693620556771
% es.EY (V/m) @ t=1
0.43175085092827725
% es.EZ (V/m) @ t=1
2.7719881386165337
% es.tEX (V/m) @ t=1
6.85693620556772
% es.tEY (V/m) @ t=1
0
% es.tEZ (V/m) @ t=1
2.7719881386165515
% es.Ex (V/m) @ t=1
6.85693620556771
% es.Ey (V/m) @ t=1
0.43175085092827725
% es.Ez (V/m) @ t=1
2.7719881386165337
% es.tEx (V/m) @ t=1
6.85693620556772
% es.tEy (V/m) @ t=1
0
% es.tEz (V/m) @ t=1
2.7719881386165515
% V (V) @ t=1
0.03701169109719418
% es.normE (V/m) @ t=1.02
7.50490556014404
% es.EX (V/m) @ t=1.02
6.935521801552735
% es.EY (V/m) @ t=1.02
0.436696184795061
% es.EZ (V/m) @ t=1.02
2.8037534710352885
% es.tEX (V/m) @ t=1.02
6.935521801552696
% es.tEY (V/m) @ t=1.02
0
% es.tEZ (V/m) @ t=1.02
2.803753471035307
% es.Ex (V/m) @ t=1.02
6.935521801552735
% es.Ey (V/m) @ t=1.02
0.436696184795061
% es.Ez (V/m) @ t=1.02
2.8037534710352885
% es.tEx (V/m) @ t=1.02
6.935521801552696
% es.tEy (V/m) @ t=1.02
0
% es.tEz (V/m) @ t=1.02
2.803753471035307
% V (V) @ t=1.02
0.03743600900311145
% es.normE (V/m) @ t=1.04
7.5899413199852885
% es.EX (V/m) @ t=1.04
7.0141073975377175
% es.EY (V/m) @ t=1.04
0.441641518661795
% es.EZ (V/m) @ t=1.04
2.8355188034541037
% es.tEX (V/m) @ t=1.04
7.0141073975376855
% es.tEY (V/m) @ t=1.04
0
% es.tEZ (V/m) @ t=1.04
2.8355188034540966
% es.Ex (V/m) @ t=1.04
7.0141073975377175
% es.Ey (V/m) @ t=1.04
0.441641518661795
% es.Ez (V/m) @ t=1.04
2.8355188034541037
% es.tEx (V/m) @ t=1.04
7.0141073975376855
% es.tEy (V/m) @ t=1.04
0
% es.tEz (V/m) @ t=1.04
2.8355188034540966
% V (V) @ t=1.04
0.03786032690902871
% es.normE (V/m) @ t=1.06
7.674977079829275
% es.EX (V/m) @ t=1.06
7.0926929935227
% es.EY (V/m) @ t=1.06
0.4465868525285388