% Model:              1 neuron.mph
% Version:            COMSOL 6.0.0.405
% Date:               Mar 16 2023, 19:04
% Dimension:          0
% Nodes:              14017
% Expressions:        14017
% Description:        Electric field norm, Electric field, X component, Electric field, Y component, Electric field, Z component, Tangential electric field, X component, Tangential electric field, Y component, Tangential electric field, Z component, Electric field, x component, Electric field, y component, Electric field, z component, Tangential electric field, x component, Tangential electric field, y component, Tangential electric field, z component, Electric potential
% Length unit:        mm
% x
1.66
% y
12.2
% z
1
% es.normE (V/m) @ t=0
2.252421702999566
% es.EX (V/m) @ t=0
-0.8028473585295861
% es.EY (V/m) @ t=0
0.2550608054521246
% es.EZ (V/m) @ t=0
2.0824969499281547
% es.tEX (V/m) @ t=0
-0.8028473585296039
% es.tEY (V/m) @ t=0
0
% es.tEZ (V/m) @ t=0
2.08249694992816
% es.Ex (V/m) @ t=0
-0.8028473585295861
% es.Ey (V/m) @ t=0
0.2550608054521246
% es.Ez (V/m) @ t=0
2.0824969499281547
% es.tEx (V/m) @ t=0
-0.8028473585296039
% es.tEy (V/m) @ t=0
0
% es.tEz (V/m) @ t=0
2.08249694992816
% V (V) @ t=0
0.010966573953675566
% es.normE (V/m) @ t=0.02
1.9562452064321723
% es.EX (V/m) @ t=0.02
-0.6972789746582799
% es.EY (V/m) @ t=0.02
0.22152223782398162
% es.EZ (V/m) @ t=0.02
1.8086642787858187
% es.tEX (V/m) @ t=0.02
-0.697278974658287
% es.tEY (V/m) @ t=0.02
0
% es.tEZ (V/m) @ t=0.02
1.8086642787858231
% es.Ex (V/m) @ t=0.02
-0.6972789746582799
% es.Ey (V/m) @ t=0.02
0.22152223782398162
% es.Ez (V/m) @ t=0.02
1.8086642787858187
% es.tEx (V/m) @ t=0.02
-0.697278974658287
% es.tEy (V/m) @ t=0.02
0
% es.tEz (V/m) @ t=0.02
1.8086642787858231
% V (V) @ t=0.02
0.009524551862697992
% es.normE (V/m) @ t=0.04
1.9852516909514937
% es.EX (V/m) @ t=0.04
-0.7076179701223224
% es.EY (V/m) @ t=0.04
0.22480690084330934
% es.EZ (V/m) @ t=0.04
1.8354824870741249
% es.tEX (V/m) @ t=0.04
-0.707617970122326
% es.tEY (V/m) @ t=0.04
0
% es.tEZ (V/m) @ t=0.04
1.8354824870741275
% es.Ex (V/m) @ t=0.04
-0.7076179701223224
% es.Ey (V/m) @ t=0.04
0.22480690084330934
% es.Ez (V/m) @ t=0.04
1.8354824870741249
% es.tEx (V/m) @ t=0.04
-0.707617970122326
% es.tEy (V/m) @ t=0.04
0
% es.tEz (V/m) @ t=0.04
1.8354824870741275
% V (V) @ t=0.04
0.009665778133353323
% es.normE (V/m) @ t=0.06
2.014693170588772
% es.EX (V/m) @ t=0.06
-0.7181120150808525
% es.EY (V/m) @ t=0.06
0.22814080506684142
% es.EZ (V/m) @ t=0.06
1.862702874741979
% es.tEX (V/m) @ t=0.06
-0.7181120150808668
% es.tEY (V/m) @ t=0.06
0
% es.tEZ (V/m) @ t=0.06
1.8627028747419772
% es.Ex (V/m) @ t=0.06
-0.7181120150808525
% es.Ey (V/m) @ t=0.06
0.22814080506684142
% es.Ez (V/m) @ t=0.06
1.862702874741979
% es.tEx (V/m) @ t=0.06
-0.7181120150808668
% es.tEy (V/m) @ t=0.06
0
% es.tEz (V/m) @ t=0.06
1.8627028747419772
% V (V) @ t=0.06
0.009809122679440856
% es.normE (V/m) @ t=0.08
2.044886428711095
% es.EX (V/m) @ t=0.08
-0.7288740205635762
% es.EY (V/m) @ t=0.08
0.2315598655019715
% es.EZ (V/m) @ t=0.08
1.890618324989826
% es.tEX (V/m) @ t=0.08
-0.7288740205635833
% es.tEY (V/m) @ t=0.08
0
% es.tEZ (V/m) @ t=0.08
1.8906183249898287
% es.Ex (V/m) @ t=0.08
-0.7288740205635762
% es.Ey (V/m) @ t=0.08
0.2315598655019715
% es.Ez (V/m) @ t=0.08
1.890618324989826
% es.tEx (V/m) @ t=0.08
-0.7288740205635833
% es.tEy (V/m) @ t=0.08
0
% es.tEz (V/m) @ t=0.08
1.8906183249898287
% V (V) @ t=0.08
0.009956126908543172
% es.normE (V/m) @ t=0.1
2.075603030009653
% es.EX (V/m) @ t=0.1
-0.739822564121853
% es.EY (V/m) @ t=0.1
0.2350382065937242
% es.EZ (V/m) @ t=0.1
1.919017636196096
% es.tEX (V/m) @ t=0.1
-0.7398225641218601
% es.tEY (V/m) @ t=0.1
0
% es.tEZ (V/m) @ t=0.1
1.9190176361960969
% es.Ex (V/m) @ t=0.1
-0.739822564121853
% es.Ey (V/m) @ t=0.1
0.2350382065937242
% es.Ez (V/m) @ t=0.1
1.919017636196096
% es.tEx (V/m) @ t=0.1
-0.7398225641218601
% es.tEy (V/m) @ t=0.1
0
% es.tEz (V/m) @ t=0.1
1.9190176361960969
% V (V) @ t=0.1
0.01010567878987425
% es.normE (V/m) @ t=0.12
2.106319631308215
% es.EX (V/m) @ t=0.12
-0.7507711076801338
% es.EY (V/m) @ t=0.12
0.2385165476854818
% es.EZ (V/m) @ t=0.12
1.947416947402366
% es.tEX (V/m) @ t=0.12
-0.7507711076801444
% es.tEY (V/m) @ t=0.12
0
% es.tEZ (V/m) @ t=0.12
1.9474169474023721
% es.Ex (V/m) @ t=0.12
-0.7507711076801338
% es.Ey (V/m) @ t=0.12
0.2385165476854818
% es.Ez (V/m) @ t=0.12
1.947416947402366
% es.tEx (V/m) @ t=0.12
-0.7507711076801444
% es.tEy (V/m) @ t=0.12
0
% es.tEz (V/m) @ t=0.12
1.9474169474023721
% V (V) @ t=0.12
0.010255230671205323
% es.normE (V/m) @ t=0.14
2.1375586152082438
% es.EX (V/m) @ t=0.14
-0.7619058472889075
% es.EY (V/m) @ t=0.14
0.242054053690677
% es.EZ (V/m) @ t=0.14
1.976299231738662
% es.tEX (V/m) @ t=0.14
-0.7619058472889217
% es.tEY (V/m) @ t=0.14
0
% es.tEZ (V/m) @ t=0.14
1.9762992317386647
% es.Ex (V/m) @ t=0.14
-0.7619058472889075
% es.Ey (V/m) @ t=0.14
0.242054053690677
% es.Ez (V/m) @ t=0.14
1.976299231738662
% es.tEx (V/m) @ t=0.14
-0.7619058472889217
% es.tEy (V/m) @ t=0.14
0
% es.tEz (V/m) @ t=0.14
1.9762992317386647
% V (V) @ t=0.14
0.010407325679306849
% es.normE (V/m) @ t=0.16
2.171037535725035
% es.EX (V/m) @ t=0.16
-0.7738389813125293
% es.EY (V/m) @ t=0.16
0.2458452543167362
% es.EZ (V/m) @ t=0.16
2.0072524678941965
% es.tEX (V/m) @ t=0.16
-0.773838981312547
% es.tEY (V/m) @ t=0.16
0
% es.tEZ (V/m) @ t=0.16
2.007252467894199
% es.Ex (V/m) @ t=0.16
-0.7738389813125293
% es.Ey (V/m) @ t=0.16
0.2458452543167362
% es.Ez (V/m) @ t=0.16
2.0072524678941965
% es.tEx (V/m) @ t=0.16
-0.773838981312547
% es.tEy (V/m) @ t=0.16
0
% es.tEz (V/m) @ t=0.16
2.007252467894199
% V (V) @ t=0.16
0.010570325420372735
% es.normE (V/m) @ t=0.18
2.2045164562418433
% es.EX (V/m) @ t=0.18
-0.7857721153361582
% es.EY (V/m) @ t=0.18
0.24963645494278852
% es.EZ (V/m) @ t=0.18
2.0382057040497417
% es.tEX (V/m) @ t=0.18
-0.7857721153361724
% es.tEY (V/m) @ t=0.18
0
% es.tEZ (V/m) @ t=0.18
2.038205704049737
% es.Ex (V/m) @ t=0.18
-0.7857721153361582
% es.Ey (V/m) @ t=0.18
0.24963645494278852
% es.Ez (V/m) @ t=0.18
2.0382057040497417
% es.tEx (V/m) @ t=0.18
-0.7857721153361724
% es.tEy (V/m) @ t=0.18
0
% es.tEz (V/m) @ t=0.18
2.038205704049737
% V (V) @ t=0.18
0.010733325161438621
% es.normE (V/m) @ t=0.2
2.2379953767586587
% es.EX (V/m) @ t=0.2
-0.7977052493597834
% es.EY (V/m) @ t=0.2
0.2534276555688664
% es.EZ (V/m) @ t=0.2
2.069158940205284
% es.tEX (V/m) @ t=0.2
-0.7977052493597976
% es.tEY (V/m) @ t=0.2
0
% es.tEZ (V/m) @ t=0.2
2.0691589402052806
% es.Ex (V/m) @ t=0.2
-0.7977052493597834
% es.Ey (V/m) @ t=0.2
0.2534276555688664
% es.Ez (V/m) @ t=0.2
2.069158940205284
% es.tEx (V/m) @ t=0.2
-0.7977052493597976
% es.tEy (V/m) @ t=0.2
0
% es.tEz (V/m) @ t=0.2
2.0691589402052806
% V (V) @ t=0.2
0.010896324902504506
% es.normE (V/m) @ t=0.22
2.271474297275475
% es.EX (V/m) @ t=0.22
-0.8096383833834159
% es.EY (V/m) @ t=0.22
0.25721885619491425
% es.EZ (V/m) @ t=0.22
2.100112176360822
% es.tEX (V/m) @ t=0.22
-0.809638383383423
% es.tEY (V/m) @ t=0.22
0
% es.tEZ (V/m) @ t=0.22
2.100112176360831
% es.Ex (V/m) @ t=0.22
-0.8096383833834159
% es.Ey (V/m) @ t=0.22
0.25721885619491425
% es.Ez (V/m) @ t=0.22
2.100112176360822
% es.tEx (V/m) @ t=0.22
-0.809638383383423
% es.tEy (V/m) @ t=0.22
0
% es.tEz (V/m) @ t=0.22
2.100112176360831
% V (V) @ t=0.22
0.011059324643570392
% es.normE (V/m) @ t=0.24
2.304953217792309
% es.EX (V/m) @ t=0.24
-0.8215715174070413
% es.EY (V/m) @ t=0.24
0.2610100568209861
% es.EZ (V/m) @ t=0.24
2.1310654125163735
% es.tEX (V/m) @ t=0.24
-0.8215715174070484
% es.tEY (V/m) @ t=0.24
0
% es.tEZ (V/m) @ t=0.24
2.131065412516376
% es.Ex (V/m) @ t=0.24
-0.8215715174070413
% es.Ey (V/m) @ t=0.24
0.2610100568209861
% es.Ez (V/m) @ t=0.24
2.1310654125163735
% es.tEx (V/m) @ t=0.24
-0.8215715174070484
% es.tEy (V/m) @ t=0.24
0
% es.tEz (V/m) @ t=0.24
2.131065412516376
% V (V) @ t=0.24
0.011222324384636278
% es.normE (V/m) @ t=0.26
2.3384321383091304
% es.EX (V/m) @ t=0.26
-0.8335046514306665
% es.EY (V/m) @ t=0.26
0.2648012574470402
% es.EZ (V/m) @ t=0.26
2.162018648671909
% es.tEX (V/m) @ t=0.26
-0.8335046514306808
% es.tEY (V/m) @ t=0.26
0
% es.tEZ (V/m) @ t=0.26
2.1620186486719106
% es.Ex (V/m) @ t=0.26
-0.8335046514306665
% es.Ey (V/m) @ t=0.26
0.2648012574470402
% es.Ez (V/m) @ t=0.26
2.162018648671909
% es.tEx (V/m) @ t=0.26
-0.8335046514306808
% es.tEy (V/m) @ t=0.26
0
% es.tEz (V/m) @ t=0.26
2.1620186486719106
% V (V) @ t=0.26
0.011385324125702163
% es.normE (V/m) @ t=0.28
2.373068791819476
% es.EX (V/m) @ t=0.28
-0.8458504449185708
% es.EY (V/m) @ t=0.28
0.2687235560990582
% es.EZ (V/m) @ t=0.28
2.1940422774644857
% es.tEX (V/m) @ t=0.28
-0.8458504449185779
% es.tEY (V/m) @ t=0.28
0
% es.tEZ (V/m) @ t=0.28
2.1940422774644865
% es.Ex (V/m) @ t=0.28
-0.8458504449185708
% es.Ey (V/m) @ t=0.28
0.2687235560990582
% es.Ez (V/m) @ t=0.28
2.1940422774644857
% es.tEx (V/m) @ t=0.28
-0.8458504449185779
% es.tEy (V/m) @ t=0.28
0
% es.tEz (V/m) @ t=0.28
2.1940422774644865
% V (V) @ t=0.28
0.01155396067102515
% es.normE (V/m) @ t=0.3
2.4095301566944576
% es.EX (V/m) @ t=0.3
-0.8588466339799122
% es.EY (V/m) @ t=0.3
0.27285247930022916
% es.EZ (V/m) @ t=0.3
2.2277529598526318
% es.tEX (V/m) @ t=0.3
-0.8588466339799264
% es.tEY (V/m) @ t=0.3
0
% es.tEZ (V/m) @ t=0.3
2.2277529598526264
% es.Ex (V/m) @ t=0.3
-0.8588466339799122
% es.Ey (V/m) @ t=0.3
0.27285247930022916
% es.Ez (V/m) @ t=0.3
2.2277529598526318
% es.tEx (V/m) @ t=0.3
-0.8588466339799264
% es.tEy (V/m) @ t=0.3
0
% es.tEz (V/m) @ t=0.3
2.2277529598526264
% V (V) @ t=0.3
0.011731481424404604
% es.normE (V/m) @ t=0.32
2.4459915215694332
% es.EX (V/m) @ t=0.32
-0.8718428230412678
% es.EY (V/m) @ t=0.32
0.276981402501393
% es.EZ (V/m) @ t=0.32
2.261463642240763
% es.tEX (V/m) @ t=0.32
-0.8718428230412749
% es.tEY (V/m) @ t=0.32
0
% es.tEZ (V/m) @ t=0.32
2.261463642240761
% es.Ex (V/m) @ t=0.32
-0.8718428230412678
% es.Ey (V/m) @ t=0.32
0.276981402501393
% es.Ez (V/m) @ t=0.32
2.261463642240763
% es.tEx (V/m) @ t=0.32
-0.8718428230412749
% es.tEy (V/m) @ t=0.32
0
% es.tEz (V/m) @ t=0.32
2.261463642240761
% V (V) @ t=0.32
0.011909002177784051
% es.normE (V/m) @ t=0.34
2.482452886444422
% es.EX (V/m) @ t=0.34
-0.8848390121026093
% es.EY (V/m) @ t=0.34
0.2811103257025569
% es.EZ (V/m) @ t=0.34
2.2951743246289107
% es.tEX (V/m) @ t=0.34
-0.8848390121026164
% es.tEY (V/m) @ t=0.34
0
% es.tEZ (V/m) @ t=0.34
2.295174324628915
% es.Ex (V/m) @ t=0.34
-0.8848390121026093
% es.Ey (V/m) @ t=0.34
0.2811103257025569
% es.Ez (V/m) @ t=0.34
2.2951743246289107
% es.tEx (V/m) @ t=0.34
-0.8848390121026164
% es.tEy (V/m) @ t=0.34
0
% es.tEz (V/m) @ t=0.34
2.295174324628915
% V (V) @ t=0.34
0.012086522931163505
% es.normE (V/m) @ t=0.36
2.518914251319412
% es.EX (V/m) @ t=0.36
-0.8978352011639543
% es.EY (V/m) @ t=0.36
0.28523924890372254
% es.EZ (V/m) @ t=0.36
2.3288850070170524
% es.tEX (V/m) @ t=0.36
-0.8978352011639721
% es.tEY (V/m) @ t=0.36
0
% es.tEZ (V/m) @ t=0.36
2.328885007017055
% es.Ex (V/m) @ t=0.36
-0.8978352011639543
% es.Ey (V/m) @ t=0.36
0.28523924890372254
% es.Ez (V/m) @ t=0.36
2.3288850070170524
% es.tEx (V/m) @ t=0.36
-0.8978352011639721
% es.tEy (V/m) @ t=0.36
0
% es.tEz (V/m) @ t=0.36
2.328885007017055
% V (V) @ t=0.36
0.012264043684542958
% es.normE (V/m) @ t=0.38
2.555375616194408
% es.EX (V/m) @ t=0.38
-0.9108313902252958
% es.EY (V/m) @ t=0.38
0.28936817210489263
% es.EZ (V/m) @ t=0.38
2.3625956894051976
% es.tEX (V/m) @ t=0.38
-0.9108313902253136
% es.tEY (V/m) @ t=0.38
0
% es.tEZ (V/m) @ t=0.38
2.3625956894051967
% es.Ex (V/m) @ t=0.38
-0.9108313902252958
% es.Ey (V/m) @ t=0.38
0.28936817210489263
% es.Ez (V/m) @ t=0.38
2.3625956894051976
% es.tEx (V/m) @ t=0.38
-0.9108313902253136
% es.tEy (V/m) @ t=0.38
0
% es.tEz (V/m) @ t=0.38
2.3625956894051967
% V (V) @ t=0.38
0.012441564437922409
% es.normE (V/m) @ t=0.4
2.591836981069414
% es.EX (V/m) @ t=0.4
-0.9238275792866515
% es.EY (V/m) @ t=0.4
0.2934970953060576
% es.EZ (V/m) @ t=0.4
2.3963063717933455
% es.tEX (V/m) @ t=0.4
-0.923827579286655
% es.tEY (V/m) @ t=0.4
0
% es.tEZ (V/m) @ t=0.4
2.3963063717933384
% es.Ex (V/m) @ t=0.4
-0.9238275792866515
% es.Ey (V/m) @ t=0.4
0.2934970953060576
% es.Ez (V/m) @ t=0.4
2.3963063717933455
% es.tEx (V/m) @ t=0.4
-0.923827579286655
% es.tEy (V/m) @ t=0.4
0
% es.tEz (V/m) @ t=0.4
2.3963063717933384
% V (V) @ t=0.4
0.012619085191301858
% es.normE (V/m) @ t=0.42
2.6301817404955177
% es.EX (V/m) @ t=0.42
-0.937495079146812
% es.EY (V/m) @ t=0.42
0.29783931685568654
% es.EZ (V/m) @ t=0.42
2.4317583626929027
% es.tEX (V/m) @ t=0.42
-0.9374950791468262
% es.tEY (V/m) @ t=0.42
0
% es.tEZ (V/m) @ t=0.42
2.4317583626929036
% es.Ex (V/m) @ t=0.42
-0.937495079146812
% es.Ey (V/m) @ t=0.42
0.29783931685568654
% es.Ez (V/m) @ t=0.42
2.4317583626929027
% es.tEx (V/m) @ t=0.42
-0.9374950791468262
% es.tEy (V/m) @ t=0.42
0
% es.tEz (V/m) @ t=0.42
2.4317583626929036
% V (V) @ t=0.42
0.012805775237030302
% es.normE (V/m) @ t=0.44
2.669850220534861
% es.EX (V/m) @ t=0.44
-0.9516344015158456
% es.EY (V/m) @ t=0.44
0.30233145251677307
% es.EZ (V/m) @ t=0.44
2.46843421078648
% es.tEX (V/m) @ t=0.44
-0.9516344015158633
% es.tEY (V/m) @ t=0.44
0
% es.tEZ (V/m) @ t=0.44
2.4684342107864836
% es.Ex (V/m) @ t=0.44
-0.9516344015158456
% es.Ey (V/m) @ t=0.44
0.30233145251677307
% es.Ez (V/m) @ t=0.44
2.46843421078648
% es.tEx (V/m) @ t=0.44
-0.9516344015158633
% es.tEy (V/m) @ t=0.44
0
% es.tEz (V/m) @ t=0.44
2.4684342107864836
% V (V) @ t=0.44
0.012998909806708288
% es.normE (V/m) @ t=0.46
2.709518700574216
% es.EX (V/m) @ t=0.46
-0.9657737238848789
% es.EY (V/m) @ t=0.46
0.3068235881778556
% es.EZ (V/m) @ t=0.46
2.5051100588800628
% es.tEX (V/m) @ t=0.46
-0.9657737238848931
% es.tEY (V/m) @ t=0.46
0
% es.tEZ (V/m) @ t=0.46
2.5051100588800566
% es.Ex (V/m) @ t=0.46
-0.9657737238848789
% es.Ey (V/m) @ t=0.46
0.3068235881778556
% es.Ez (V/m) @ t=0.46
2.5051100588800628
% es.tEx (V/m) @ t=0.46
-0.9657737238848931
% es.tEy (V/m) @ t=0.46
0
% es.tEz (V/m) @ t=0.46
2.5051100588800566
% V (V) @ t=0.46
0.013192044376386275
% es.normE (V/m) @ t=0.48
2.749187180613572
% es.EX (V/m) @ t=0.48
-0.9799130462539085
% es.EY (V/m) @ t=0.48
0.311315723838957
% es.EZ (V/m) @ t=0.48
2.5417859069736366
% es.tEX (V/m) @ t=0.48
-0.9799130462539227
% es.tEY (V/m) @ t=0.48
0
% es.tEZ (V/m) @ t=0.48
2.541785906973642
% es.Ex (V/m) @ t=0.48
-0.9799130462539085
% es.Ey (V/m) @ t=0.48
0.311315723838957
% es.Ez (V/m) @ t=0.48
2.5417859069736366
% es.tEx (V/m) @ t=0.48
-0.9799130462539227
% es.tEy (V/m) @ t=0.48
0
% es.tEz (V/m) @ t=0.48
2.541785906973642
% V (V) @ t=0.48
0.01338517894606426
% es.normE (V/m) @ t=0.5
2.788855660652936
% es.EX (V/m) @ t=0.5
-0.9940523686229454
% es.EY (V/m) @ t=0.5
0.31580785950003354
% es.EZ (V/m) @ t=0.5
2.578461755067213
% es.tEX (V/m) @ t=0.5
-0.9940523686229596
% es.tEY (V/m) @ t=0.5
0
% es.tEZ (V/m) @ t=0.5
2.5784617550672095
% es.Ex (V/m) @ t=0.5
-0.9940523686229454
% es.Ey (V/m) @ t=0.5
0.31580785950003354
% es.Ez (V/m) @ t=0.5
2.578461755067213
% es.tEx (V/m) @ t=0.5
-0.9940523686229596
% es.tEy (V/m) @ t=0.5
0
% es.tEz (V/m) @ t=0.5
2.5784617550672095
% V (V) @ t=0.5
0.013578313515742249
% es.normE (V/m) @ t=0.52
2.8285241406923096
% es.EX (V/m) @ t=0.52
-1.0081916909919788
% es.EY (V/m) @ t=0.52
0.32029999516111807
% es.EZ (V/m) @ t=0.52
2.6151376031607922
% es.tEX (V/m) @ t=0.52
-1.0081916909919966
% es.tEY (V/m) @ t=0.52
0
% es.tEZ (V/m) @ t=0.52
2.6151376031607967
% es.Ex (V/m) @ t=0.52
-1.0081916909919788
% es.Ey (V/m) @ t=0.52
0.32029999516111807
% es.Ez (V/m) @ t=0.52
2.6151376031607922
% es.tEx (V/m) @ t=0.52
-1.0081916909919966
% es.tEy (V/m) @ t=0.52
0
% es.tEz (V/m) @ t=0.52
2.6151376031607967
% V (V) @ t=0.52
0.013771448085420234
% es.normE (V/m) @ t=0.54
2.8681926207316844
% es.EX (V/m) @ t=0.54
-1.0223310133610084
% es.EY (V/m) @ t=0.54
0.32479213082220415
% es.EZ (V/m) @ t=0.54
2.651813451254367
% es.tEX (V/m) @ t=0.54
-1.022331013361019
% es.tEY (V/m) @ t=0.54
0
% es.tEZ (V/m) @ t=0.54
2.6518134512543714
% es.Ex (V/m) @ t=0.54
-1.0223310133610084
% es.Ey (V/m) @ t=0.54
0.32479213082220415
% es.Ez (V/m) @ t=0.54
2.651813451254367
% es.tEx (V/m) @ t=0.54
-1.022331013361019
% es.tEy (V/m) @ t=0.54
0
% es.tEz (V/m) @ t=0.54
2.6518134512543714
% V (V) @ t=0.54
0.013964582655098222
% es.normE (V/m) @ t=0.56
2.9090506603258683
% es.EX (V/m) @ t=0.56
-1.0368943614009685
% es.EY (V/m) @ t=0.56
0.3294185861006551
% es.EZ (V/m) @ t=0.56
2.689589132937871
% es.tEX (V/m) @ t=0.56
-1.0368943614009827
% es.tEY (V/m) @ t=0.56
0
% es.tEZ (V/m) @ t=0.56
2.6895891329378685
% es.Ex (V/m) @ t=0.56
-1.0368943614009685
% es.Ey (V/m) @ t=0.56
0.3294185861006551
% es.Ez (V/m) @ t=0.56
2.689589132937871
% es.tEx (V/m) @ t=0.56
-1.0368943614009827
% es.tEy (V/m) @ t=0.56
0
% es.tEz (V/m) @ t=0.56
2.6895891329378685
% V (V) @ t=0.56
0.014163517418036144
% es.normE (V/m) @ t=0.58
2.9505881160719714
% es.EX (V/m) @ t=0.58
-1.0516998914220343
% es.EY (V/m) @ t=0.58
0.3341217579396072
% es.EZ (V/m) @ t=0.58
2.727992983847771
% es.tEX (V/m) @ t=0.58
-1.0516998914220521
% es.tEY (V/m) @ t=0.58
0
% es.tEZ (V/m) @ t=0.58
2.7279929838477734
% es.Ex (V/m) @ t=0.58
-1.0516998914220343
% es.Ey (V/m) @ t=0.58
0.3341217579396072
% es.Ez (V/m) @ t=0.58
2.727992983847771
% es.tEx (V/m) @ t=0.58
-1.0516998914220521
% es.tEy (V/m) @ t=0.58
0
% es.tEz (V/m) @ t=0.58
2.7279929838477734
% V (V) @ t=0.58
0.014365764957512748
% es.normE (V/m) @ t=0.6
2.992524346929197
% es.EX (V/m) @ t=0.6
-1.0666475672341753
% es.EY (V/m) @ t=0.6
0.33886995763789507
% es.EZ (V/m) @ t=0.6
2.766765531104176
% es.tEX (V/m) @ t=0.6
-1.0666475672341895
% es.tEY (V/m) @ t=0.6
0
% es.tEZ (V/m) @ t=0.6
2.7667655311041788
% es.Ex (V/m) @ t=0.6
-1.0666475672341753
% es.Ey (V/m) @ t=0.6
0.33886995763789507
% es.Ez (V/m) @ t=0.6
2.766765531104176
% es.tEx (V/m) @ t=0.6
-1.0666475672341895
% es.tEy (V/m) @ t=0.6
0
% es.tEz (V/m) @ t=0.6
2.7667655311041788
% V (V) @ t=0.6
0.014569956891199137
% es.normE (V/m) @ t=0.62
3.0348593528976577
% es.EX (V/m) @ t=0.62
-1.0817373888373838
% es.EY (V/m) @ t=0.62
0.3436631851955543
% es.EZ (V/m) @ t=0.62
2.8059067747070774
% es.tEX (V/m) @ t=0.62
-1.0817373888374087
% es.tEY (V/m) @ t=0.62
0
% es.tEZ (V/m) @ t=0.62
2.8059067747070774
% es.Ex (V/m) @ t=0.62
-1.0817373888373838
% es.Ey (V/m) @ t=0.62
0.3436631851955543
% es.Ez (V/m) @ t=0.62
2.8059067747070774
% es.tEx (V/m) @ t=0.62
-1.0817373888374087
% es.tEy (V/m) @ t=0.62
0
% es.tEz (V/m) @ t=0.62
2.8059067747070774
% V (V) @ t=0.62
0.014776093219095315
% es.normE (V/m) @ t=0.64
3.077593133977514
% es.EX (V/m) @ t=0.64
-1.0969693562316956
% es.EY (V/m) @ t=0.64
0.3485014406125251
% es.EZ (V/m) @ t=0.64
2.845416714656494
% es.tEX (V/m) @ t=0.64
-1.0969693562317098
% es.tEY (V/m) @ t=0.64
0
% es.tEZ (V/m) @ t=0.64
2.845416714656494
% es.Ex (V/m) @ t=0.64
-1.0969693562316956
% es.Ey (V/m) @ t=0.64
0.3485014406125251
% es.Ez (V/m) @ t=0.64
2.845416714656494
% es.tEx (V/m) @ t=0.64
-1.0969693562317098
% es.tEy (V/m) @ t=0.64
0
% es.tEz (V/m) @ t=0.64
2.845416714656494
% V (V) @ t=0.64
0.014984173941201277
% es.normE (V/m) @ t=0.66
3.1207256901689218
% es.EX (V/m) @ t=0.66
-1.1123434694170857
% es.EY (V/m) @ t=0.66
0.3533847238888552
% es.EZ (V/m) @ t=0.66
2.88529535095243
% es.tEX (V/m) @ t=0.66
-1.1123434694170928
% es.tEY (V/m) @ t=0.66
0
% es.tEZ (V/m) @ t=0.66
2.8852953509524344
% es.Ex (V/m) @ t=0.66
-1.1123434694170857
% es.Ey (V/m) @ t=0.66
0.3533847238888552
% es.Ez (V/m) @ t=0.66
2.88529535095243
% es.tEx (V/m) @ t=0.66
-1.1123434694170928
% es.tEy (V/m) @ t=0.66
0
% es.tEz (V/m) @ t=0.66
2.8852953509524344
% V (V) @ t=0.66
0.015194199057517023
% es.normE (V/m) @ t=0.68
3.164257021472019
% es.EX (V/m) @ t=0.68
-1.1278597283935365
% es.EY (V/m) @ t=0.68
0.3583130350245409
% es.EZ (V/m) @ t=0.68
2.925542683594858
% es.tEX (V/m) @ t=0.68
-1.1278597283935579
% es.tEY (V/m) @ t=0.68
0
% es.tEZ (V/m) @ t=0.68
2.925542683594859
% es.Ex (V/m) @ t=0.68
-1.1278597283935365
% es.Ey (V/m) @ t=0.68
0.3583130350245409
% es.Ez (V/m) @ t=0.68
2.925542683594858
% es.tEx (V/m) @ t=0.68
-1.1278597283935579
% es.tEy (V/m) @ t=0.68
0
% es.tEz (V/m) @ t=0.68
2.925542683594859
% V (V) @ t=0.68
0.015406168568042555
% es.normE (V/m) @ t=0.7
3.2081871278870095
% es.EX (V/m) @ t=0.7
-1.1435181331610904
% es.EY (V/m) @ t=0.7
0.363286374019554
% es.EZ (V/m) @ t=0.7
2.9661587125837823
% es.tEX (V/m) @ t=0.7
-1.1435181331611046
% es.tEY (V/m) @ t=0.7
0
% es.tEZ (V/m) @ t=0.7
2.9661587125837894
% es.Ex (V/m) @ t=0.7
-1.1435181331610904
% es.Ey (V/m) @ t=0.7
0.363286374019554
% es.Ez (V/m) @ t=0.7
2.9661587125837823
% es.tEx (V/m) @ t=0.7
-1.1435181331611046
% es.tEy (V/m) @ t=0.7
0
% es.tEz (V/m) @ t=0.7
2.9661587125837894
% V (V) @ t=0.7
0.015620082472777875
% es.normE (V/m) @ t=0.72
3.2525160094140926
% es.EX (V/m) @ t=0.72
-1.1593186837197051
% es.EY (V/m) @ t=0.72
0.3683047408739204
% es.EZ (V/m) @ t=0.72
3.0071434379192175
% es.tEX (V/m) @ t=0.72
-1.1593186837197194
% es.tEY (V/m) @ t=0.72
0
% es.tEZ (V/m) @ t=0.72
3.007143437919222
% es.Ex (V/m) @ t=0.72
-1.1593186837197051
% es.Ey (V/m) @ t=0.72
0.3683047408739204
% es.Ez (V/m) @ t=0.72
3.0071434379192175
% es.tEx (V/m) @ t=0.72
-1.1593186837197194
% es.tEy (V/m) @ t=0.72
0
% es.tEz (V/m) @ t=0.72
3.007143437919222
% V (V) @ t=0.72
0.015835940771722977
% es.normE (V/m) @ t=0.74
3.297243666053496
% es.EX (V/m) @ t=0.74
-1.1752613800694298
% es.EY (V/m) @ t=0.74
0.37336813558761794
% es.EZ (V/m) @ t=0.74
3.0484968596011575
% es.tEX (V/m) @ t=0.74
-1.175261380069444
% es.tEY (V/m) @ t=0.74
0
% es.tEZ (V/m) @ t=0.74
3.0484968596011637
% es.Ex (V/m) @ t=0.74
-1.1752613800694298
% es.Ey (V/m) @ t=0.74
0.37336813558761794
% es.Ez (V/m) @ t=0.74
3.0484968596011575
% es.tEx (V/m) @ t=0.74
-1.175261380069444
% es.tEy (V/m) @ t=0.74
0
% es.tEz (V/m) @ t=0.74
3.0484968596011637
% V (V) @ t=0.74
0.016053743464877864
% es.normE (V/m) @ t=0.76
3.342370097805399
% es.EX (V/m) @ t=0.76
-1.19134622221018
% es.EY (V/m) @ t=0.76
0.37847655816067105
% es.EZ (V/m) @ t=0.76
3.0902189776295925
% es.tEX (V/m) @ t=0.76
-1.1913462222101943
% es.tEY (V/m) @ t=0.76
0
% es.tEZ (V/m) @ t=0.76
3.0902189776296005
% es.Ex (V/m) @ t=0.76
-1.19134622221018
% es.Ey (V/m) @ t=0.76
0.37847655816067105
% es.Ez (V/m) @ t=0.76
3.0902189776295925
% es.tEx (V/m) @ t=0.76
-1.1913462222101943
% es.tEy (V/m) @ t=0.76
0
% es.tEz (V/m) @ t=0.76
3.0902189776296005
% V (V) @ t=0.76
0.016273490552242538
% es.normE (V/m) @ t=0.78
3.387895304670084
% es.EX (V/m) @ t=0.78
-1.2075732101420404
% es.EY (V/m) @ t=0.78
0.38363000859307506
% es.EZ (V/m) @ t=0.78
3.132309792004537
% es.tEX (V/m) @ t=0.78
-1.2075732101420547
% es.tEY (V/m) @ t=0.78
0
% es.tEZ (V/m) @ t=0.78
3.132309792004543
% es.Ex (V/m) @ t=0.78
-1.2075732101420404
% es.Ey (V/m) @ t=0.78
0.38363000859307506
% es.Ez (V/m) @ t=0.78
3.132309792004537
% es.tEx (V/m) @ t=0.78
-1.2075732101420547
% es.tEy (V/m) @ t=0.78
0
% es.tEz (V/m) @ t=0.78
3.132309792004543
% V (V) @ t=0.78
0.01649518203381699
% es.normE (V/m) @ t=0.8
3.433819286647792
% es.EX (V/m) @ t=0.8
-1.223942343864997
% es.EY (V/m) @ t=0.8
0.3888284868848013
% es.EZ (V/m) @ t=0.8
3.174769302725996
% es.tEX (V/m) @ t=0.8
-1.2239423438650112
% es.tEY (V/m) @ t=0.8
0
% es.tEZ (V/m) @ t=0.8
3.1747693027259913
% es.Ex (V/m) @ t=0.8
-1.223942343864997
% es.Ey (V/m) @ t=0.8
0.3888284868848013
% es.Ez (V/m) @ t=0.8
3.174769302725996
% es.tEx (V/m) @ t=0.8
-1.2239423438650112
% es.tEy (V/m) @ t=0.8
0
% es.tEz (V/m) @ t=0.8
3.1747693027259913
% V (V) @ t=0.8
0.01671881790960124
% es.normE (V/m) @ t=0.82
3.4802851192184066
% es.EX (V/m) @ t=0.82
-1.2405046066262098
% es.EY (V/m) @ t=0.82
0.3940884410802943
% es.EZ (V/m) @ t=0.82
3.217729781598475
% es.tEX (V/m) @ t=0.82
-1.240504606626224
% es.tEY (V/m) @ t=0.82
0
% es.tEZ (V/m) @ t=0.82
3.217729781598482
% es.Ex (V/m) @ t=0.82
-1.2405046066262098
% es.Ey (V/m) @ t=0.82
0.3940884410802943
% es.Ez (V/m) @ t=0.82
3.217729781598475
% es.tEx (V/m) @ t=0.82
-1.240504606626224
% es.tEy (V/m) @ t=0.82
0
% es.tEz (V/m) @ t=0.82
3.217729781598482
% V (V) @ t=0.82
0.016945089351101502
% es.normE (V/m) @ t=0.84
3.5278488805791213
% es.EX (V/m) @ t=0.84
-1.2574581502842042
% es.EY (V/m) @ t=0.84
0.3994737982683021
% es.EZ (V/m) @ t=0.84
3.261705317177708
% es.tEX (V/m) @ t=0.84
-1.2574581502842326
% es.tEY (V/m) @ t=0.84
0
% es.tEZ (V/m) @ t=0.84
3.2617053171777055
% es.Ex (V/m) @ t=0.84
-1.2574581502842042
% es.Ey (V/m) @ t=0.84
0.3994737982683021
% es.Ez (V/m) @ t=0.84
3.261705317177708
% es.tEx (V/m) @ t=0.84
-1.2574581502842326
% es.tEy (V/m) @ t=0.84
0
% es.tEz (V/m) @ t=0.84
3.2617053171777055
% V (V) @ t=0.84
0.0171766826705113
% es.normE (V/m) @ t=0.86
3.575923933305355
% es.EX (V/m) @ t=0.86
-1.274593933563347
% es.EY (V/m) @ t=0.86
0.40491711825279575
% es.EZ (V/m) @ t=0.86
3.3061535692187816
% es.tEX (V/m) @ t=0.86
-1.2745939335633611
% es.tEY (V/m) @ t=0.86
0
% es.tEZ (V/m) @ t=0.86
3.306153569218788
% es.Ex (V/m) @ t=0.86
-1.274593933563347
% es.Ey (V/m) @ t=0.86
0.40491711825279575
% es.Ez (V/m) @ t=0.86
3.3061535692187816
% es.tEx (V/m) @ t=0.86
-1.2745939335633611
% es.tEy (V/m) @ t=0.86
0
% es.tEz (V/m) @ t=0.86
3.306153569218788
% V (V) @ t=0.86
0.01741076392959828
% es.normE (V/m) @ t=0.88
3.62451027739713
% es.EX (V/m) @ t=0.88
-1.2919119564636528
% es.EY (V/m) @ t=0.88
0.4104184010337302
% es.EZ (V/m) @ t=0.88
3.3510745377217566
% es.tEX (V/m) @ t=0.88
-1.291911956463667
% es.tEY (V/m) @ t=0.88
0
% es.tEZ (V/m) @ t=0.88
3.351074537721761
% es.Ex (V/m) @ t=0.88
-1.2919119564636528
% es.Ey (V/m) @ t=0.88
0.4104184010337302
% es.Ez (V/m) @ t=0.88
3.3510745377217566
% es.tEx (V/m) @ t=0.88
-1.291911956463667
% es.tEy (V/m) @ t=0.88
0
% es.tEz (V/m) @ t=0.88
3.351074537721761
% V (V) @ t=0.88
0.017647333128362433
% es.normE (V/m) @ t=0.9
3.6736079128543677
% es.EX (V/m) @ t=0.9
-1.3094122189850792
% es.EY (V/m) @ t=0.9
0.4159776466111733
% es.EZ (V/m) @ t=0.9
3.3964682226865994
% es.tEX (V/m) @ t=0.9
-1.3094122189850934
% es.tEY (V/m) @ t=0.9
0
% es.tEZ (V/m) @ t=0.9
3.396468222686595
% es.Ex (V/m) @ t=0.9
-1.3094122189850792
% es.Ey (V/m) @ t=0.9
0.4159776466111733
% es.Ez (V/m) @ t=0.9
3.3964682226865994
% es.tEx (V/m) @ t=0.9
-1.3094122189850934
% es.tEy (V/m) @ t=0.9
0
% es.tEz (V/m) @ t=0.9
3.396468222686595
% V (V) @ t=0.9
0.017886390266803765
% es.normE (V/m) @ t=0.92
3.723216839677036
% es.EX (V/m) @ t=0.92
-1.327094721127647
% es.EY (V/m) @ t=0.92
0.42159485498508786
% es.EZ (V/m) @ t=0.92
3.4423346241132995
% es.tEX (V/m) @ t=0.92
-1.3270947211276682
% es.tEY (V/m) @ t=0.92
0
% es.tEZ (V/m) @ t=0.92
3.4423346241132986
% es.Ex (V/m) @ t=0.92
-1.327094721127647
% es.Ey (V/m) @ t=0.92
0.42159485498508786
% es.Ez (V/m) @ t=0.92
3.4423346241132995
% es.tEx (V/m) @ t=0.92
-1.3270947211276682
% es.tEy (V/m) @ t=0.92
0
% es.tEz (V/m) @ t=0.92
3.4423346241132986
% V (V) @ t=0.92
0.01812793534492228
% es.normE (V/m) @ t=0.94
3.773337057865164
% es.EX (V/m) @ t=0.94
-1.3449594628914054
% es.EY (V/m) @ t=0.94
0.42727002615549825
% es.EZ (V/m) @ t=0.94
3.4886737420018843
% es.tEX (V/m) @ t=0.94
-1.3449594628914197
% es.tEY (V/m) @ t=0.94
0
% es.tEZ (V/m) @ t=0.94
3.4886737420018843
% es.Ex (V/m) @ t=0.94
-1.3449594628914054
% es.Ey (V/m) @ t=0.94
0.42727002615549825
% es.Ez (V/m) @ t=0.94
3.4886737420018843
% es.tEx (V/m) @ t=0.94
-1.3449594628914197
% es.tEy (V/m) @ t=0.94
0
% es.tEz (V/m) @ t=0.94
3.4886737420018843
% V (V) @ t=0.94
0.018371968362717962
% es.normE (V/m) @ t=0.96
3.8239685674186816
% es.EX (V/m) @ t=0.96
-1.3630064442762635
% es.EY (V/m) @ t=0.96
0.4330031601223685
% es.EZ (V/m) @ t=0.96
3.5354855763523343
% es.tEX (V/m) @ t=0.96
-1.3630064442762777
% es.tEY (V/m) @ t=0.96
0
% es.tEZ (V/m) @ t=0.96
3.5354855763523396
% es.Ex (V/m) @ t=0.96
-1.3630064442762635
% es.Ey (V/m) @ t=0.96
0.4330031601223685
% es.Ez (V/m) @ t=0.96
3.5354855763523343
% es.tEx (V/m) @ t=0.96
-1.3630064442762777
% es.tEy (V/m) @ t=0.96
0
% es.tEz (V/m) @ t=0.96
3.5354855763523396
% V (V) @ t=0.96
0.018618489320190834
% es.normE (V/m) @ t=0.98
3.8751113683376133
% es.EX (V/m) @ t=0.98
-1.3812356652822346
% es.EY (V/m) @ t=0.98
0.4387942568857208
% es.EZ (V/m) @ t=0.98
3.582770127164668
% es.tEX (V/m) @ t=0.98
-1.381235665282256
% es.tEY (V/m) @ t=0.98
0
% es.tEZ (V/m) @ t=0.98
3.582770127164668
% es.Ex (V/m) @ t=0.98
-1.3812356652822346
% es.Ey (V/m) @ t=0.98
0.4387942568857208
% es.Ez (V/m) @ t=0.98
3.582770127164668
% es.tEx (V/m) @ t=0.98
-1.381235665282256
% es.tEy (V/m) @ t=0.98
0
% es.tEz (V/m) @ t=0.98
3.582770127164668
% V (V) @ t=0.98
0.018867498217340867
% es.normE (V/m) @ t=1
3.9267654606219455
% es.EX (V/m) @ t=1
-1.3996471259093686
% es.EY (V/m) @ t=1
0.4446433164455583
% es.EZ (V/m) @ t=1
3.6305273944388645
% es.tEX (V/m) @ t=1
-1.399647125909397
% es.tEY (V/m) @ t=1
0
% es.tEZ (V/m) @ t=1
3.6305273944388645
% es.Ex (V/m) @ t=1
-1.3996471259093686
% es.Ey (V/m) @ t=1
0.4446433164455583
% es.Ez (V/m) @ t=1
3.6305273944388645
% es.tEx (V/m) @ t=1
-1.399647125909397
% es.tEy (V/m) @ t=1
0
% es.tEz (V/m) @ t=1
3.6305273944388645
% V (V) @ t=1
0.01911899505416809
% es.normE (V/m) @ t=1.02
3.978930844271696
% es.EX (V/m) @ t=1.02
-1.4182408261576587
% es.EY (V/m) @ t=1.02
0.450550338801861
% es.EZ (V/m) @ t=1.02
3.6787573781749305
% es.tEX (V/m) @ t=1.02
-1.4182408261576729
% es.tEY (V/m) @ t=1.02
0
% es.tEZ (V/m) @ t=1.02
3.6787573781749323
% es.Ex (V/m) @ t=1.02
-1.4182408261576587
% es.Ey (V/m) @ t=1.02
0.450550338801861
% es.Ez (V/m) @ t=1.02
3.6787573781749305
% es.tEx (V/m) @ t=1.02
-1.4182408261576729
% es.tEy (V/m) @ t=1.02
0
% es.tEz (V/m) @ t=1.02
3.6787573781749323
% V (V) @ t=1.02
0.01937297983067249
% es.normE (V/m) @ t=1.04
4.031607519286887
% es.EX (V/m) @ t=1.04
-1.4370167660270825
% es.EY (V/m) @ t=1.04
0.456515323954668
% es.EZ (V/m) @ t=1.04
3.7274600783728893
% es.tEX (V/m) @ t=1.04
-1.4370167660270967
% es.tEY (V/m) @ t=1.04
0
% es.tEZ (V/m) @ t=1.04
3.7274600783728893
% es.Ex (V/m) @ t=1.04
-1.4370167660270825
% es.Ey (V/m) @ t=1.04