% Model:              1 neuron.mph
% Version:            COMSOL 6.1.0.252
% Date:               Mar 18 2023, 14:05
% Dimension:          0
% Nodes:              14017
% Expressions:        14017
% Description:        Electric field norm, Electric field, X component, Electric field, Y component, Electric field, Z component, Tangential electric field, X component, Tangential electric field, Y component, Tangential electric field, Z component, Electric field, x component, Electric field, y component, Electric field, z component, Tangential electric field, x component, Tangential electric field, y component, Tangential electric field, z component, Electric potential
% Length unit:        mm
% x
1.3300000000000003
% y
12.200000000000001
% z
1.66
% es.normE (V/m) @ t=0
20.33738223054688
% es.EX (V/m) @ t=0
12.906020727805416
% es.EY (V/m) @ t=0
3.859309791306984
% es.EZ (V/m) @ t=0
-14.136991430239712
% es.tEX (V/m) @ t=0
12.906020727805393
% es.tEY (V/m) @ t=0
0
% es.tEZ (V/m) @ t=0
-14.136991430239682
% es.Ex (V/m) @ t=0
12.906020727805416
% es.Ey (V/m) @ t=0
3.859309791306984
% es.Ez (V/m) @ t=0
-14.136991430239712
% es.tEx (V/m) @ t=0
12.906020727805393
% es.tEy (V/m) @ t=0
0
% es.tEz (V/m) @ t=0
-14.136991430239682
% V (V) @ t=0
0.01742088914173812
% es.normE (V/m) @ t=0.02
19.05927122242681
% es.EX (V/m) @ t=0.02
12.0950012430077
% es.EY (V/m) @ t=0.02
3.6168280198640073
% es.EZ (V/m) @ t=0.02
-13.248483491959167
% es.tEX (V/m) @ t=0.02
12.095001243007669
% es.tEY (V/m) @ t=0.02
0
% es.tEZ (V/m) @ t=0.02
-13.248483491959124
% es.Ex (V/m) @ t=0.02
12.0950012430077
% es.Ey (V/m) @ t=0.02
3.6168280198640073
% es.Ez (V/m) @ t=0.02
-13.248483491959167
% es.tEx (V/m) @ t=0.02
12.095001243007669
% es.tEy (V/m) @ t=0.02
0
% es.tEz (V/m) @ t=0.02
-13.248483491959124
% V (V) @ t=0.02
0.016325759083189416
% es.normE (V/m) @ t=0.04
19.336798924347264
% es.EX (V/m) @ t=0.04
12.27112031405314
% es.EY (V/m) @ t=0.04
3.669493879125654
% es.EZ (V/m) @ t=0.04
-13.441398424375791
% es.tEX (V/m) @ t=0.04
12.27112031405311
% es.tEY (V/m) @ t=0.04
0
% es.tEZ (V/m) @ t=0.04
-13.44139842437576
% es.Ex (V/m) @ t=0.04
12.27112031405314
% es.Ey (V/m) @ t=0.04
3.669493879125654
% es.Ez (V/m) @ t=0.04
-13.441398424375791
% es.tEx (V/m) @ t=0.04
12.27112031405311
% es.tEy (V/m) @ t=0.04
0
% es.tEz (V/m) @ t=0.04
-13.44139842437576
% V (V) @ t=0.04
0.016563482492061448
% es.normE (V/m) @ t=0.06
19.618189551390387
% es.EX (V/m) @ t=0.06
12.449690772892513
% es.EY (V/m) @ t=0.06
3.7228927757109966
% es.EZ (V/m) @ t=0.06
-13.636998575314642
% es.tEX (V/m) @ t=0.06
12.449690772892497
% es.tEY (V/m) @ t=0.06
0
% es.tEZ (V/m) @ t=0.06
-13.636998575314614
% es.Ex (V/m) @ t=0.06
12.449690772892513
% es.Ey (V/m) @ t=0.06
3.7228927757109966
% es.Ez (V/m) @ t=0.06
-13.636998575314642
% es.tEx (V/m) @ t=0.06
12.449690772892497
% es.tEy (V/m) @ t=0.06
0
% es.tEz (V/m) @ t=0.06
-13.636998575314614
% V (V) @ t=0.06
0.016804514903880952
% es.normE (V/m) @ t=0.08
19.905727018372467
% es.EX (V/m) @ t=0.08
12.63216171274334
% es.EY (V/m) @ t=0.08
3.777457871585119
% es.EZ (V/m) @ t=0.08
-13.83687181037829
% es.tEX (V/m) @ t=0.08
12.632161712743295
% es.tEY (V/m) @ t=0.08
0
% es.tEZ (V/m) @ t=0.08
-13.836871810378245
% es.Ex (V/m) @ t=0.08
12.63216171274334
% es.Ey (V/m) @ t=0.08
3.777457871585119
% es.Ez (V/m) @ t=0.08
-13.83687181037829
% es.tEx (V/m) @ t=0.08
12.632161712743295
% es.tEy (V/m) @ t=0.08
0
% es.tEz (V/m) @ t=0.08
-13.836871810378245
% V (V) @ t=0.08
0.017050813995262298
% es.normE (V/m) @ t=0.1
20.193264485354526
% es.EX (V/m) @ t=0.1
12.814632652594163
% es.EY (V/m) @ t=0.1
3.832022967459256
% es.EZ (V/m) @ t=0.1
-14.036745045441922
% es.tEX (V/m) @ t=0.1
12.814632652594149
% es.tEY (V/m) @ t=0.1
0
% es.tEZ (V/m) @ t=0.1
-14.036745045441892
% es.Ex (V/m) @ t=0.1
12.814632652594163
% es.Ey (V/m) @ t=0.1
3.832022967459256
% es.Ez (V/m) @ t=0.1
-14.036745045441922
% es.tEx (V/m) @ t=0.1
12.814632652594149
% es.tEy (V/m) @ t=0.1
0
% es.tEz (V/m) @ t=0.1
-14.036745045441892
% V (V) @ t=0.1
0.01729711308664364
% es.normE (V/m) @ t=0.12
20.490494509287
% es.EX (V/m) @ t=0.12
13.003255587991934
% es.EY (V/m) @ t=0.12
3.8884283853645982
% es.EZ (V/m) @ t=0.12
-14.243354693938155
% es.tEX (V/m) @ t=0.12
13.003255587991903
% es.tEY (V/m) @ t=0.12
0
% es.tEZ (V/m) @ t=0.12
-14.243354693938127
% es.Ex (V/m) @ t=0.12
13.003255587991934
% es.Ey (V/m) @ t=0.12
3.8884283853645982
% es.Ez (V/m) @ t=0.12
-14.243354693938155
% es.tEx (V/m) @ t=0.12
13.003255587991903
% es.tEy (V/m) @ t=0.12
0
% es.tEz (V/m) @ t=0.12
-14.243354693938127
% V (V) @ t=0.12
0.0175517093653758
% es.normE (V/m) @ t=0.14
20.79547070561078
% es.EX (V/m) @ t=0.14
13.19679512262129
% es.EY (V/m) @ t=0.14
3.9463045660194105
% es.EZ (V/m) @ t=0.14
-14.45534800125765
% es.tEX (V/m) @ t=0.14
13.196795122621253
% es.tEY (V/m) @ t=0.14
0
% es.tEZ (V/m) @ t=0.14
-14.45534800125762
% es.Ex (V/m) @ t=0.14
13.19679512262129
% es.Ey (V/m) @ t=0.14
3.9463045660194105
% es.Ez (V/m) @ t=0.14
-14.45534800125765
% es.tEx (V/m) @ t=0.14
13.196795122621253
% es.tEy (V/m) @ t=0.14
0
% es.tEz (V/m) @ t=0.14
-14.45534800125762
% V (V) @ t=0.14
0.017812936654264297
% es.normE (V/m) @ t=0.16
21.100446901934976
% es.EX (V/m) @ t=0.16
13.390334657250609
% es.EY (V/m) @ t=0.16
4.004180746674258
% es.EZ (V/m) @ t=0.16
-14.667341308577123
% es.tEX (V/m) @ t=0.16
13.39033465725055
% es.tEY (V/m) @ t=0.16
0
% es.tEZ (V/m) @ t=0.16
-14.667341308577093
% es.Ex (V/m) @ t=0.16
13.390334657250609
% es.Ey (V/m) @ t=0.16
4.004180746674258
% es.Ez (V/m) @ t=0.16
-14.667341308577123
% es.tEx (V/m) @ t=0.16
13.39033465725055
% es.tEy (V/m) @ t=0.16
0
% es.tEz (V/m) @ t=0.16
-14.667341308577093
% V (V) @ t=0.16
0.0180741639431528
% es.normE (V/m) @ t=0.18
21.405423098259607
% es.EX (V/m) @ t=0.18
13.583874191879971
% es.EY (V/m) @ t=0.18
4.062056927328985
% es.EZ (V/m) @ t=0.18
-14.879334615896575
% es.tEX (V/m) @ t=0.18
13.583874191879929
% es.tEY (V/m) @ t=0.18
0
% es.tEZ (V/m) @ t=0.18
-14.879334615896532
% es.Ex (V/m) @ t=0.18
13.583874191879971
% es.Ey (V/m) @ t=0.18
4.062056927328985
% es.Ez (V/m) @ t=0.18
-14.879334615896575
% es.tEx (V/m) @ t=0.18
13.583874191879929
% es.tEy (V/m) @ t=0.18
0
% es.tEz (V/m) @ t=0.18
-14.879334615896532
% V (V) @ t=0.18
0.0183353912320413
% es.normE (V/m) @ t=0.2
21.710399294584683
% es.EX (V/m) @ t=0.2
13.77741372650929
% es.EY (V/m) @ t=0.2
4.119933107983826
% es.EZ (V/m) @ t=0.2
-15.091327923216085
% es.tEX (V/m) @ t=0.2
13.77741372650928
% es.tEY (V/m) @ t=0.2
0
% es.tEZ (V/m) @ t=0.2
-15.09132792321604
% es.Ex (V/m) @ t=0.2
13.77741372650929
% es.Ey (V/m) @ t=0.2
4.119933107983826
% es.Ez (V/m) @ t=0.2
-15.091327923216085
% es.tEx (V/m) @ t=0.2
13.77741372650928
% es.tEy (V/m) @ t=0.2
0
% es.tEz (V/m) @ t=0.2
-15.09132792321604
% V (V) @ t=0.2
0.018596618520929798
% es.normE (V/m) @ t=0.22
22.01740074132259
% es.EX (V/m) @ t=0.22
13.97223821304357
% es.EY (V/m) @ t=0.22
4.178193372219123
% es.EZ (V/m) @ t=0.22
-15.304729287008186
% es.tEX (V/m) @ t=0.22
13.972238213043553
% es.tEY (V/m) @ t=0.22
0
% es.tEZ (V/m) @ t=0.22
-15.304729287008158
% es.Ex (V/m) @ t=0.22
13.97223821304357
% es.Ey (V/m) @ t=0.22
4.178193372219123
% es.Ez (V/m) @ t=0.22
-15.304729287008186
% es.tEx (V/m) @ t=0.22
13.972238213043553
% es.tEy (V/m) @ t=0.22
0
% es.tEz (V/m) @ t=0.22
-15.304729287008158
% V (V) @ t=0.22
0.018859581880964208
% es.normE (V/m) @ t=0.24
22.339959126199446
% es.EX (V/m) @ t=0.24
14.17693304310319
% es.EY (V/m) @ t=0.24
4.239403970134754
% es.EZ (V/m) @ t=0.24
-15.52894662067088
% es.tEX (V/m) @ t=0.24
14.176933043103162
% es.tEY (V/m) @ t=0.24
0
% es.tEZ (V/m) @ t=0.24
-15.528946620670851
% es.Ex (V/m) @ t=0.24
14.17693304310319
% es.Ey (V/m) @ t=0.24
4.239403970134754
% es.Ez (V/m) @ t=0.24
-15.52894662067088
% es.tEx (V/m) @ t=0.24
14.176933043103162
% es.tEy (V/m) @ t=0.24
0
% es.tEz (V/m) @ t=0.24
-15.528946620670851
% V (V) @ t=0.24
0.019135880851871886
% es.normE (V/m) @ t=0.26
22.66251751107631
% es.EX (V/m) @ t=0.26
14.381627873162854
% es.EY (V/m) @ t=0.26
4.300614568050323
% es.EZ (V/m) @ t=0.26
-15.753163954333491
% es.tEX (V/m) @ t=0.26
14.381627873162824
% es.tEY (V/m) @ t=0.26
0
% es.tEZ (V/m) @ t=0.26
-15.753163954333463
% es.Ex (V/m) @ t=0.26
14.381627873162854
% es.Ey (V/m) @ t=0.26
4.300614568050323
% es.Ez (V/m) @ t=0.26
-15.753163954333491
% es.tEx (V/m) @ t=0.26
14.381627873162824
% es.tEy (V/m) @ t=0.26
0
% es.tEz (V/m) @ t=0.26
-15.753163954333463
% V (V) @ t=0.26
0.01941217982277956
% es.normE (V/m) @ t=0.28
22.98507589595329
% es.EX (V/m) @ t=0.28
14.58632270322249
% es.EY (V/m) @ t=0.28
4.36182516596601
% es.EZ (V/m) @ t=0.28
-15.977381287996181
% es.tEX (V/m) @ t=0.28
14.586322703222473
% es.tEY (V/m) @ t=0.28
0
% es.tEZ (V/m) @ t=0.28
-15.977381287996153
% es.Ex (V/m) @ t=0.28
14.58632270322249
% es.Ey (V/m) @ t=0.28
4.36182516596601
% es.Ez (V/m) @ t=0.28
-15.977381287996181
% es.tEx (V/m) @ t=0.28
14.586322703222473
% es.tEy (V/m) @ t=0.28
0
% es.tEz (V/m) @ t=0.28
-15.977381287996153
% V (V) @ t=0.28
0.01968847879368724
% es.normE (V/m) @ t=0.3
23.30763428083029
% es.EX (V/m) @ t=0.3
14.791017533282137
% es.EY (V/m) @ t=0.3
4.423035763881643
% es.EZ (V/m) @ t=0.3
-16.201598621658825
% es.tEX (V/m) @ t=0.3
14.791017533282092
% es.tEY (V/m) @ t=0.3
0
% es.tEZ (V/m) @ t=0.3
-16.201598621658807
% es.Ex (V/m) @ t=0.3
14.791017533282137
% es.Ey (V/m) @ t=0.3
4.423035763881643
% es.Ez (V/m) @ t=0.3
-16.201598621658825
% es.tEx (V/m) @ t=0.3
14.791017533282092
% es.tEy (V/m) @ t=0.3
0
% es.tEz (V/m) @ t=0.3
-16.201598621658807
% V (V) @ t=0.3
0.019964777764594915
% es.normE (V/m) @ t=0.32
23.630192665707348
% es.EX (V/m) @ t=0.32
14.995712363341774
% es.EY (V/m) @ t=0.32
4.4842463617971955
% es.EZ (V/m) @ t=0.32
-16.425815955321514
% es.tEX (V/m) @ t=0.32
14.995712363341744
% es.tEY (V/m) @ t=0.32
0
% es.tEZ (V/m) @ t=0.32
-16.425815955321486
% es.Ex (V/m) @ t=0.32
14.995712363341774
% es.Ey (V/m) @ t=0.32
4.4842463617971955
% es.Ez (V/m) @ t=0.32
-16.425815955321514
% es.tEx (V/m) @ t=0.32
14.995712363341744
% es.tEy (V/m) @ t=0.32
0
% es.tEz (V/m) @ t=0.32
-16.425815955321486
% V (V) @ t=0.32
0.020241076735502593
% es.normE (V/m) @ t=0.34
23.9763253825684
% es.EX (V/m) @ t=0.34
15.215385233300072
% es.EY (V/m) @ t=0.34
4.549946579953773
% es.EZ (V/m) @ t=0.34
-16.666402937598775
% es.tEX (V/m) @ t=0.34
15.215385233300056
% es.tEY (V/m) @ t=0.34
0
% es.tEZ (V/m) @ t=0.34
-16.666402937598747
% es.Ex (V/m) @ t=0.34
15.215385233300072
% es.Ey (V/m) @ t=0.34
4.549946579953773
% es.Ez (V/m) @ t=0.34
-16.666402937598775
% es.tEx (V/m) @ t=0.34
15.215385233300056
% es.tEy (V/m) @ t=0.34
0
% es.tEz (V/m) @ t=0.34
-16.666402937598747
% V (V) @ t=0.34
0.020537484418768095
% es.normE (V/m) @ t=0.36
24.333831025519228
% es.EX (V/m) @ t=0.36
15.442283934295986
% es.EY (V/m) @ t=0.36
4.61781271818424
% es.EZ (V/m) @ t=0.36
-16.914887102406894
% es.tEX (V/m) @ t=0.36
15.442283934295958
% es.tEY (V/m) @ t=0.36
0
% es.tEZ (V/m) @ t=0.36
-16.91488710240685
% es.Ex (V/m) @ t=0.36
15.442283934295986
% es.Ey (V/m) @ t=0.36
4.61781271818424
% es.Ez (V/m) @ t=0.36
-16.914887102406894
% es.tEx (V/m) @ t=0.36
15.442283934295958
% es.tEy (V/m) @ t=0.36
0
% es.tEz (V/m) @ t=0.36
-16.91488710240685
% V (V) @ t=0.36
0.02084359311490743
% es.normE (V/m) @ t=0.38
24.691336668546427
% es.EX (V/m) @ t=0.38
15.669182635291904
% es.EY (V/m) @ t=0.38
4.685678856414608
% es.EZ (V/m) @ t=0.38
-17.163371267215037
% es.tEX (V/m) @ t=0.38
15.669182635291888
% es.tEY (V/m) @ t=0.38
0
% es.tEZ (V/m) @ t=0.38
-17.16337126721501
% es.Ex (V/m) @ t=0.38
15.669182635291904
% es.Ey (V/m) @ t=0.38
4.685678856414608
% es.Ez (V/m) @ t=0.38
-17.163371267215037
% es.tEx (V/m) @ t=0.38
15.669182635291888
% es.tEy (V/m) @ t=0.38
0
% es.tEz (V/m) @ t=0.38
-17.16337126721501
% V (V) @ t=0.38
0.021149701811046775
% es.normE (V/m) @ t=0.4
25.048842311646737
% es.EX (V/m) @ t=0.4
15.896081336287777
% es.EY (V/m) @ t=0.4
4.753544994645124
% es.EZ (V/m) @ t=0.4
-17.41185543202323
% es.tEX (V/m) @ t=0.4
15.896081336287718
% es.tEY (V/m) @ t=0.4
0
% es.tEZ (V/m) @ t=0.4
-17.41185543202317
% es.Ex (V/m) @ t=0.4
15.896081336287777
% es.Ey (V/m) @ t=0.4
4.753544994645124
% es.Ez (V/m) @ t=0.4
-17.41185543202323
% es.tEx (V/m) @ t=0.4
15.896081336287718
% es.tEy (V/m) @ t=0.4
0
% es.tEz (V/m) @ t=0.4
-17.41185543202317
% V (V) @ t=0.4
0.021455810507186118
% es.normE (V/m) @ t=0.42
25.40634795481703
% es.EX (V/m) @ t=0.42
16.12298003728374
% es.EY (V/m) @ t=0.42
4.821411132875612
% es.EZ (V/m) @ t=0.42
-17.660339596831328
% es.tEX (V/m) @ t=0.42
16.12298003728368
% es.tEY (V/m) @ t=0.42
0
% es.tEZ (V/m) @ t=0.42
-17.66033959683127
% es.Ex (V/m) @ t=0.42
16.12298003728374
% es.Ey (V/m) @ t=0.42
4.821411132875612
% es.Ez (V/m) @ t=0.42
-17.660339596831328
% es.tEx (V/m) @ t=0.42
16.12298003728368
% es.tEy (V/m) @ t=0.42
0
% es.tEz (V/m) @ t=0.42
-17.66033959683127
% V (V) @ t=0.42
0.021761919203325458
% es.normE (V/m) @ t=0.44
25.763853598054403
% es.EX (V/m) @ t=0.44
16.34987873827961
% es.EY (V/m) @ t=0.44
4.88927727110603
% es.EZ (V/m) @ t=0.44
-17.908823761639496
% es.tEX (V/m) @ t=0.44
16.349878738279536
% es.tEY (V/m) @ t=0.44
0
% es.tEZ (V/m) @ t=0.44
-17.908823761639454
% es.Ex (V/m) @ t=0.44
16.34987873827961
% es.Ey (V/m) @ t=0.44
4.88927727110603
% es.Ez (V/m) @ t=0.44
-17.908823761639496
% es.tEx (V/m) @ t=0.44
16.349878738279536
% es.tEy (V/m) @ t=0.44
0
% es.tEz (V/m) @ t=0.44
-17.908823761639454
% V (V) @ t=0.44
0.022068027899464798
% es.normE (V/m) @ t=0.46
26.121359241356178
% es.EX (V/m) @ t=0.46
16.576777439275507
% es.EY (V/m) @ t=0.46
4.957143409336439
% es.EZ (V/m) @ t=0.46
-18.157307926447697
% es.tEX (V/m) @ t=0.46
16.57677743927548
% es.tEY (V/m) @ t=0.46
0
% es.tEZ (V/m) @ t=0.46
-18.157307926447654
% es.Ex (V/m) @ t=0.46
16.576777439275507
% es.Ey (V/m) @ t=0.46
4.957143409336439
% es.Ez (V/m) @ t=0.46
-18.157307926447697
% es.tEx (V/m) @ t=0.46
16.57677743927548
% es.tEy (V/m) @ t=0.46
0
% es.tEz (V/m) @ t=0.46
-18.157307926447654
% V (V) @ t=0.46
0.022374136595604145
% es.normE (V/m) @ t=0.48
26.478864884719577
% es.EX (V/m) @ t=0.48
16.803676140271392
% es.EY (V/m) @ t=0.48
5.0250095475669125
% es.EZ (V/m) @ t=0.48
-18.40579209125577
% es.tEX (V/m) @ t=0.48
16.80367614027137
% es.tEY (V/m) @ t=0.48
0
% es.tEZ (V/m) @ t=0.48
-18.40579209125575
% es.Ex (V/m) @ t=0.48
16.803676140271392
% es.Ey (V/m) @ t=0.48
5.0250095475669125
% es.Ez (V/m) @ t=0.48
-18.40579209125577
% es.tEx (V/m) @ t=0.48
16.80367614027137
% es.tEy (V/m) @ t=0.48
0
% es.tEz (V/m) @ t=0.48
-18.40579209125575
% V (V) @ t=0.48
0.022680245291743478
% es.normE (V/m) @ t=0.5
26.836370528142353
% es.EX (V/m) @ t=0.5
17.030574841267295
% es.EY (V/m) @ t=0.5
5.092875685797444
% es.EZ (V/m) @ t=0.5
-18.654276256063966
% es.tEX (V/m) @ t=0.5
17.03057484126726
% es.tEY (V/m) @ t=0.5
0
% es.tEZ (V/m) @ t=0.5
-18.65427625606391
% es.Ex (V/m) @ t=0.5
17.030574841267295
% es.Ey (V/m) @ t=0.5
5.092875685797444
% es.Ez (V/m) @ t=0.5
-18.654276256063966
% es.tEx (V/m) @ t=0.5
17.03057484126726
% es.tEy (V/m) @ t=0.5
0
% es.tEz (V/m) @ t=0.5
-18.65427625606391
% V (V) @ t=0.5
0.022986353987882825
% es.normE (V/m) @ t=0.52
27.193876171621966
% es.EX (V/m) @ t=0.52
17.257473542263206
% es.EY (V/m) @ t=0.52
5.1607418240278395
% es.EZ (V/m) @ t=0.52
-18.902760420872077
% es.tEX (V/m) @ t=0.52
17.25747354226319
% es.tEY (V/m) @ t=0.52
0
% es.tEZ (V/m) @ t=0.52
-18.90276042087205
% es.Ex (V/m) @ t=0.52
17.257473542263206
% es.Ey (V/m) @ t=0.52
5.1607418240278395
% es.Ez (V/m) @ t=0.52
-18.902760420872077
% es.tEx (V/m) @ t=0.52
17.25747354226319
% es.tEy (V/m) @ t=0.52
0
% es.tEz (V/m) @ t=0.52
-18.90276042087205
% V (V) @ t=0.52
0.023292462684022176
% es.normE (V/m) @ t=0.54
27.551381815156347
% es.EX (V/m) @ t=0.54
17.48437224325908
% es.EY (V/m) @ t=0.54
5.228607962258306
% es.EZ (V/m) @ t=0.54
-19.15124458568025
% es.tEX (V/m) @ t=0.54
17.484372243259035
% es.tEY (V/m) @ t=0.54
0
% es.tEZ (V/m) @ t=0.54
-19.151244585680193
% es.Ex (V/m) @ t=0.54
17.48437224325908
% es.Ey (V/m) @ t=0.54
5.228607962258306
% es.Ez (V/m) @ t=0.54
-19.15124458568025
% es.tEx (V/m) @ t=0.54
17.484372243259035
% es.tEy (V/m) @ t=0.54
0
% es.tEz (V/m) @ t=0.54
-19.151244585680193
% V (V) @ t=0.54
0.023598571380161516
% es.normE (V/m) @ t=0.56
27.931498073083258
% es.EX (V/m) @ t=0.56
17.72556407795971
% es.EY (V/m) @ t=0.56
5.300714931924972
% es.EZ (V/m) @ t=0.56
-19.415500018620435
% es.tEX (V/m) @ t=0.56
17.72556407795964
% es.tEY (V/m) @ t=0.56
0
% es.tEZ (V/m) @ t=0.56
-19.415500018620406
% es.Ex (V/m) @ t=0.56
17.72556407795971
% es.Ey (V/m) @ t=0.56
5.300714931924972
% es.Ez (V/m) @ t=0.56
-19.415500018620435
% es.tEx (V/m) @ t=0.56
17.72556407795964
% es.tEy (V/m) @ t=0.56
0
% es.tEz (V/m) @ t=0.56
-19.415500018620406
% V (V) @ t=0.56
0.02392431195378427
% es.normE (V/m) @ t=0.58
28.3175045627424
% es.EX (V/m) @ t=0.58
17.97047937922752
% es.EY (V/m) @ t=0.58
5.37392666940512
% es.EZ (V/m) @ t=0.58
-19.6838639830294
% es.tEX (V/m) @ t=0.58
17.97047937922749
% es.tEY (V/m) @ t=0.58
0
% es.tEZ (V/m) @ t=0.58
-19.683863983029358
% es.Ex (V/m) @ t=0.58
17.97047937922752
% es.Ey (V/m) @ t=0.58
5.37392666940512
% es.Ez (V/m) @ t=0.58
-19.6838639830294
% es.tEx (V/m) @ t=0.58
17.97047937922749
% es.tEy (V/m) @ t=0.58
0
% es.tEz (V/m) @ t=0.58
-19.683863983029358
% V (V) @ t=0.58
0.02425516677603661
% es.normE (V/m) @ t=0.6
28.703511052631786
% es.EX (V/m) @ t=0.6
18.21539468049543
% es.EY (V/m) @ t=0.6
5.447138406885246
% es.EZ (V/m) @ t=0.6
-19.952227947438324
% es.tEX (V/m) @ t=0.6
18.215394680495386
% es.tEY (V/m) @ t=0.6
0
% es.tEZ (V/m) @ t=0.6
-19.952227947438296
% es.Ex (V/m) @ t=0.6
18.21539468049543
% es.Ey (V/m) @ t=0.6
5.447138406885246
% es.Ez (V/m) @ t=0.6
-19.952227947438324
% es.tEx (V/m) @ t=0.6
18.215394680495386
% es.tEy (V/m) @ t=0.6
0
% es.tEz (V/m) @ t=0.6
-19.952227947438296
% V (V) @ t=0.6
0.02458602159828895
% es.normE (V/m) @ t=0.62
29.089517542742158
% es.EX (V/m) @ t=0.62
18.46030998176327
% es.EY (V/m) @ t=0.62
5.520350144365378
% es.EZ (V/m) @ t=0.62
-20.220591911847322
% es.tEX (V/m) @ t=0.62
18.460309981763253
% es.tEY (V/m) @ t=0.62
0
% es.tEZ (V/m) @ t=0.62
-20.22059191184728
% es.Ex (V/m) @ t=0.62
18.46030998176327
% es.Ey (V/m) @ t=0.62
5.520350144365378
% es.Ez (V/m) @ t=0.62
-20.220591911847322
% es.tEx (V/m) @ t=0.62
18.460309981763253
% es.tEy (V/m) @ t=0.62
0
% es.tEz (V/m) @ t=0.62
-20.22059191184728
% V (V) @ t=0.62
0.024916876420541294
% es.normE (V/m) @ t=0.64
29.47552403306481
% es.EX (V/m) @ t=0.64
18.7052252830311
% es.EY (V/m) @ t=0.64
5.593561881845455
% es.EZ (V/m) @ t=0.64
-20.48895587625626
% es.tEX (V/m) @ t=0.64
18.705225283031034
% es.tEY (V/m) @ t=0.64
0
% es.tEZ (V/m) @ t=0.64
-20.4889558762562
% es.Ex (V/m) @ t=0.64
18.7052252830311
% es.Ey (V/m) @ t=0.64
5.593561881845455
% es.Ez (V/m) @ t=0.64
-20.48895587625626
% es.tEx (V/m) @ t=0.64
18.705225283031034
% es.tEy (V/m) @ t=0.64
0
% es.tEz (V/m) @ t=0.64
-20.4889558762562
% V (V) @ t=0.64
0.025247731242793635
% es.normE (V/m) @ t=0.66
29.86153052359162
% es.EX (V/m) @ t=0.66
18.950140584298985
% es.EY (V/m) @ t=0.66
5.666773619325588
% es.EZ (V/m) @ t=0.66
-20.757319840665225
% es.tEX (V/m) @ t=0.66
18.950140584298932
% es.tEY (V/m) @ t=0.66
0
% es.tEZ (V/m) @ t=0.66
-20.75731984066517
% es.Ex (V/m) @ t=0.66
18.950140584298985
% es.Ey (V/m) @ t=0.66
5.666773619325588
% es.Ez (V/m) @ t=0.66
-20.757319840665225
% es.tEx (V/m) @ t=0.66
18.950140584298932
% es.tEy (V/m) @ t=0.66
0
% es.tEz (V/m) @ t=0.66
-20.75731984066517
% V (V) @ t=0.66
0.02557858606504598
% es.normE (V/m) @ t=0.68
30.247537014314656
% es.EX (V/m) @ t=0.68
19.19505588556681
% es.EY (V/m) @ t=0.68
5.739985356805707
% es.EZ (V/m) @ t=0.68
-21.025683805074195
% es.tEX (V/m) @ t=0.68
19.195055885566802
% es.tEY (V/m) @ t=0.68
0
% es.tEZ (V/m) @ t=0.68
-21.02568380507415
% es.Ex (V/m) @ t=0.68
19.19505588556681
% es.Ey (V/m) @ t=0.68
5.739985356805707
% es.Ez (V/m) @ t=0.68
-21.025683805074195
% es.tEx (V/m) @ t=0.68
19.195055885566802
% es.tEy (V/m) @ t=0.68
0
% es.tEz (V/m) @ t=0.68
-21.02568380507415
% V (V) @ t=0.68
0.025909440887298324
% es.normE (V/m) @ t=0.7
30.63354350522657
% es.EX (V/m) @ t=0.7
19.43997118683469
% es.EY (V/m) @ t=0.7
5.813197094285875
% es.EZ (V/m) @ t=0.7
-21.294047769483115
% es.tEX (V/m) @ t=0.7
19.439971186834626
% es.tEY (V/m) @ t=0.7
0
% es.tEZ (V/m) @ t=0.7
-21.294047769483058
% es.Ex (V/m) @ t=0.7
19.43997118683469
% es.Ey (V/m) @ t=0.7
5.813197094285875
% es.Ez (V/m) @ t=0.7
-21.294047769483115
% es.tEx (V/m) @ t=0.7
19.439971186834626
% es.tEy (V/m) @ t=0.7
0
% es.tEz (V/m) @ t=0.7
-21.294047769483058
% V (V) @ t=0.7
0.02624029570955066
% es.normE (V/m) @ t=0.72
31.01954999632023
% es.EX (V/m) @ t=0.72
19.684886488102542
% es.EY (V/m) @ t=0.72
5.886408831765895
% es.EZ (V/m) @ t=0.72
-21.56241173389204
% es.tEX (V/m) @ t=0.72
19.684886488102507
% es.tEY (V/m) @ t=0.72
0
% es.tEZ (V/m) @ t=0.72
-21.562411733892
% es.Ex (V/m) @ t=0.72
19.684886488102542
% es.Ey (V/m) @ t=0.72
5.886408831765895
% es.Ez (V/m) @ t=0.72
-21.56241173389204
% es.tEx (V/m) @ t=0.72
19.684886488102507
% es.tEy (V/m) @ t=0.72
0
% es.tEz (V/m) @ t=0.72
-21.562411733892
% V (V) @ t=0.72
0.026571150531803006
% es.normE (V/m) @ t=0.74
31.40556123818966
% es.EX (V/m) @ t=0.74
19.929804820578823
% es.EY (V/m) @ t=0.74
5.959621485576022
% es.EZ (V/m) @ t=0.74
-21.83077898446913
% es.tEX (V/m) @ t=0.74
19.929804820578788
% es.tEY (V/m) @ t=0.74
0
% es.tEZ (V/m) @ t=0.74
-21.830778984469074
% es.Ex (V/m) @ t=0.74
19.929804820578823
% es.Ey (V/m) @ t=0.74
5.959621485576022
% es.Ez (V/m) @ t=0.74
-21.83077898446913
% es.tEx (V/m) @ t=0.74
19.929804820578788
% es.tEy (V/m) @ t=0.74
0
% es.tEz (V/m) @ t=0.74
-21.830778984469074
% V (V) @ t=0.74
0.026902009344941805
% es.normE (V/m) @ t=0.76
31.813401590103002
% es.EX (V/m) @ t=0.76
20.188651619687278
% es.EY (V/m) @ t=0.76
6.037044695057182
% es.EZ (V/m) @ t=0.76
-22.114246246858624
% es.tEX (V/m) @ t=0.76
20.188651619687242
% es.tEY (V/m) @ t=0.76
0
% es.tEZ (V/m) @ t=0.76
-22.114246246858567
% es.Ex (V/m) @ t=0.76
20.188651619687278
% es.Ey (V/m) @ t=0.76
6.037044695057182
% es.Ez (V/m) @ t=0.76
-22.114246246858624
% es.tEx (V/m) @ t=0.76
20.188651619687242
% es.tEy (V/m) @ t=0.76
0
% es.tEz (V/m) @ t=0.76
-22.114246246858567
% V (V) @ t=0.76
0.027251206365518008
% es.normE (V/m) @ t=0.78
32.22124194211741
% es.EX (V/m) @ t=0.78
20.44749841879579
% es.EY (V/m) @ t=0.78
6.11446790453818
% es.EZ (V/m) @ t=0.78
-22.39771350924805
% es.tEX (V/m) @ t=0.78
20.447498418795725
% es.tEY (V/m) @ t=0.78
0
% es.tEZ (V/m) @ t=0.78
-22.397713509248003
% es.Ex (V/m) @ t=0.78
20.44749841879579
% es.Ey (V/m) @ t=0.78
6.11446790453818
% es.Ez (V/m) @ t=0.78
-22.39771350924805
% es.tEx (V/m) @ t=0.78
20.447498418795725
% es.tEy (V/m) @ t=0.78
0
% es.tEz (V/m) @ t=0.78
-22.397713509248003
% V (V) @ t=0.78
0.027600403386094204
% es.normE (V/m) @ t=0.8
32.62908229422918
% es.EX (V/m) @ t=0.8
20.706345217904257
% es.EY (V/m) @ t=0.8
6.191891114019304
% es.EZ (V/m) @ t=0.8
-22.681180771637557
% es.tEX (V/m) @ t=0.8
20.706345217904236
% es.tEY (V/m) @ t=0.8
0
% es.tEZ (V/m) @ t=0.8
-22.68118077163751
% es.Ex (V/m) @ t=0.8
20.706345217904257
% es.Ey (V/m) @ t=0.8
6.191891114019304
% es.Ez (V/m) @ t=0.8
-22.681180771637557
% es.tEx (V/m) @ t=0.8
20.706345217904236
% es.tEy (V/m) @ t=0.8
0
% es.tEz (V/m) @ t=0.8
-22.68118077163751
% V (V) @ t=0.8
0.027949600406670404
% es.normE (V/m) @ t=0.82
33.036922646434626
% es.EX (V/m) @ t=0.82
20.96519201701274
% es.EY (V/m) @ t=0.82
6.2693143235003665
% es.EZ (V/m) @ t=0.82
-22.964648034027036
% es.tEX (V/m) @ t=0.82
20.965192017012658
% es.tEY (V/m) @ t=0.82
0
% es.tEZ (V/m) @ t=0.82
-22.96464803402699
% es.Ex (V/m) @ t=0.82
20.96519201701274
% es.Ey (V/m) @ t=0.82
6.2693143235003665
% es.Ez (V/m) @ t=0.82
-22.964648034027036
% es.tEx (V/m) @ t=0.82
20.965192017012658
% es.tEy (V/m) @ t=0.82
0
% es.tEz (V/m) @ t=0.82
-22.96464803402699
% V (V) @ t=0.82
0.028298797427246603
% es.normE (V/m) @ t=0.84
33.444762998730326
% es.EX (V/m) @ t=0.84
21.224038816121222
% es.EY (V/m) @ t=0.84
6.346737532981399
% es.EZ (V/m) @ t=0.84
-23.248115296416486
% es.tEX (V/m) @ t=0.84
21.224038816121183
% es.tEY (V/m) @ t=0.84
0
% es.tEZ (V/m) @ t=0.84
-23.248115296416426
% es.Ex (V/m) @ t=0.84
21.224038816121222
% es.Ey (V/m) @ t=0.84
6.346737532981399
% es.Ez (V/m) @ t=0.84
-23.248115296416486
% es.tEx (V/m) @ t=0.84
21.224038816121183
% es.tEy (V/m) @ t=0.84
0
% es.tEz (V/m) @ t=0.84
-23.248115296416426
% V (V) @ t=0.84
0.028647994447822803
% es.normE (V/m) @ t=0.86
33.852603351113025
% es.EX (V/m) @ t=0.86
21.48288561522969
% es.EY (V/m) @ t=0.86
6.424160742462501
% es.EZ (V/m) @ t=0.86
-23.53158255880595
% es.tEX (V/m) @ t=0.86
21.482885615229623
% es.tEY (V/m) @ t=0.86
0
% es.tEZ (V/m) @ t=0.86
-23.531582558805894
% es.Ex (V/m) @ t=0.86
21.48288561522969
% es.Ey (V/m) @ t=0.86
6.424160742462501
% es.Ez (V/m) @ t=0.86
-23.53158255880595
% es.tEx (V/m) @ t=0.86
21.482885615229623
% es.tEy (V/m) @ t=0.86
0
% es.tEz (V/m) @ t=0.86
-23.531582558805894
% V (V) @ t=0.86
0.028997191468399002
% es.normE (V/m) @ t=0.88
34.260443703579625
% es.EX (V/m) @ t=0.88
21.74173241433814
% es.EY (V/m) @ t=0.88
6.501583951943605
% es.EZ (V/m) @ t=0.88
-23.81504982119536
% es.tEX (V/m) @ t=0.88
21.741732414338102
% es.tEY (V/m) @ t=0.88
0
% es.tEZ (V/m) @ t=0.88
-23.81504982119533
% es.Ex (V/m) @ t=0.88
21.74173241433814
% es.Ey (V/m) @ t=0.88
6.501583951943605
% es.Ez (V/m) @ t=0.88
-23.81504982119536
% es.tEx (V/m) @ t=0.88
21.741732414338102
% es.tEy (V/m) @ t=0.88
0
% es.tEz (V/m) @ t=0.88
-23.81504982119533
% V (V) @ t=0.88
0.029346388488975188
% es.normE (V/m) @ t=0.9
34.6682840561272
% es.EX (V/m) @ t=0.9
22.00057921344661
% es.EY (V/m) @ t=0.9
6.579007161424695
% es.EZ (V/m) @ t=0.9
-24.098517083584838
% es.tEX (V/m) @ t=0.9
22.00057921344657
% es.tEY (V/m) @ t=0.9
0
% es.tEZ (V/m) @ t=0.9
-24.09851708358478
% es.Ex (V/m) @ t=0.9
22.00057921344661
% es.Ey (V/m) @ t=0.9
6.579007161424695
% es.Ez (V/m) @ t=0.9
-24.098517083584838
% es.tEx (V/m) @ t=0.9
22.00057921344657
% es.tEy (V/m) @ t=0.9
0
% es.tEz (V/m) @ t=0.9
-24.09851708358478
% V (V) @ t=0.9
0.029695585509551387
% es.normE (V/m) @ t=0.92
35.076124408752904
% es.EX (V/m) @ t=0.92
22.25942601255513
% es.EY (V/m) @ t=0.92
6.656430370905728
% es.EZ (V/m) @ t=0.92
-24.381984345974303
% es.tEX (V/m) @ t=0.92
22.25942601255511
% es.tEY (V/m) @ t=0.92
0
% es.tEZ (V/m) @ t=0.92
-24.381984345974246
% es.Ex (V/m) @ t=0.92
22.25942601255513
% es.Ey (V/m) @ t=0.92
6.656430370905728
% es.Ez (V/m) @ t=0.92
-24.381984345974303
% es.tEx (V/m) @ t=0.92
22.25942601255511
% es.tEy (V/m) @ t=0.92
0
% es.tEz (V/m) @ t=0.92
-24.381984345974246
% V (V) @ t=0.92
0.030044782530127594
% es.normE (V/m) @ t=0.94
35.486769348906826
% es.EX (V/m) @ t=0.94
22.520040268510385
% es.EY (V/m) @ t=0.94
6.734374701639176
% es.EZ (V/m) @ t=0.94
-24.667413158127424
% es.tEX (V/m) @ t=0.94
22.52004026851032
% es.tEY (V/m) @ t=0.94
0
% es.tEZ (V/m) @ t=0.94
-24.667413158127395
% es.Ex (V/m) @ t=0.94
22.520040268510385
% es.Ey (V/m) @ t=0.94
6.734374701639176
% es.Ez (V/m) @ t=0.94
-24.667413158127424
% es.tEx (V/m) @ t=0.94
22.52004026851032
% es.tEy (V/m) @ t=0.94
0
% es.tEz (V/m) @ t=0.94
-24.667413158127395
% V (V) @ t=0.94
0.030396440564748536
% es.normE (V/m) @ t=0.96
35.90815164174725
% es.EX (V/m) @ t=0.96
22.787421226417827
% es.EY (V/m) @ t=0.96
6.814314143145278
% es.EZ (V/m) @ t=0.96
-24.960351756242126
% es.tEX (V/m) @ t=0.96
22.787421226417795
% es.tEY (V/m) @ t=0.96
0
% es.tEZ (V/m) @ t=0.96
-24.96035175624207
% es.Ex (V/m) @ t=0.96
22.787421226417827
% es.Ey (V/m) @ t=0.96
6.814314143145278
% es.Ez (V/m) @ t=0.96
-24.960351756242126
% es.tEx (V/m) @ t=0.96
22.787421226417795
% es.tEy (V/m) @ t=0.96
0
% es.tEz (V/m) @ t=0.96
-24.96035175624207
% V (V) @ t=0.96
0.03075752058246982
% es.normE (V/m) @ t=0.98
36.32953393465928
% es.EX (V/m) @ t=0.98
23.054802184325343
% es.EY (V/m) @ t=0.98
6.894253584651327
% es.EZ (V/m) @ t=0.98
-25.25329035435675
% es.tEX (V/m) @ t=0.98
23.054802184325304
% es.tEY (V/m) @ t=0.98
0
% es.tEZ (V/m) @ t=0.98
-25.25329035435672
% es.Ex (V/m) @ t=0.98
23.054802184325343
% es.Ey (V/m) @ t=0.98
6.894253584651327
% es.Ez (V/m) @ t=0.98
-25.25329035435675
% es.tEx (V/m) @ t=0.98
23.054802184325304
% es.tEy (V/m) @ t=0.98
0
% es.tEz (V/m) @ t=0.98
-25.25329035435672
% V (V) @ t=0.98
0.031118600600191094
% es.normE (V/m) @ t=1
36.75091622764042
% es.EX (V/m) @ t=1
23.32218314223281
% es.EY (V/m) @ t=1
6.974193026157332
% es.EZ (V/m) @ t=1
-25.546228952471424
% es.tEX (V/m) @ t=1
23.322183142232763
% es.tEY (V/m) @ t=1
0
% es.tEZ (V/m) @ t=1
-25.546228952471363
% es.Ex (V/m) @ t=1
23.32218314223281
% es.Ey (V/m) @ t=1
6.974193026157332
% es.Ez (V/m) @ t=1
-25.546228952471424
% es.tEx (V/m) @ t=1
23.322183142232763
% es.tEy (V/m) @ t=1
0
% es.tEz (V/m) @ t=1
-25.546228952471363
% V (V) @ t=1
0.03147968061791238
% es.normE (V/m) @ t=1.02
37.17229852068829
% es.EX (V/m) @ t=1.02
23.58956410014029
% es.EY (V/m) @ t=1.02
7.054132467663521
% es.EZ (V/m) @ t=1.02
-25.839167550586033
% es.tEX (V/m) @ t=1.02
23.58956410014021
% es.tEY (V/m) @ t=1.02
0
% es.tEZ (V/m) @ t=1.02
-25.839167550585977
% es.Ex (V/m) @ t=1.02
23.58956410014029
% es.Ey (V/m) @ t=1.02
7.054132467663521
% es.Ez (V/m) @ t=1.02
-25.839167550586033
% es.tEx (V/m) @ t=1.02
23.58956410014021
% es.tEy (V/m) @ t=1.02
0
% es.tEz (V/m) @ t=1.02
-25.839167550585977
% V (V) @ t=1.02
0.03184076063563365
% es.normE (V/m) @ t=1.04
37.5936808138007
% es.EX (V/m) @ t=1.04
23.856945058047717
% es.EY (V/m) @ t=1.04
7.134071909169528
% es.EZ (V/m) @ t=1.04
-26.132106148700693
% es.tEX (V/m) @ t=1.04
23.85694505804765
% es.tEY (V/m) @ t=1.04
0
% es.tEZ (V/m) @ t=1.04
-26.132106148700633
% es.Ex (V/m) @ t=1.04
23.856945058047717
% es.Ey (V/m) @ t=1.04
7.134071909169528
% es.Ez (V/m) @ t=1.04
-26.132106148700693
% es.tEx (V/m) @ t=1.04
23.85694505804765
% es.tEy (V/m) @ t=1.04
0