% Model:              1 neuron.mph
% Version:            COMSOL 6.0.0.405
% Date:               Mar 16 2023, 18:59
% Dimension:          0
% Nodes:              14017
% Expressions:        14017
% Description:        Electric field norm, Electric field, X component, Electric field, Y component, Electric field, Z component, Tangential electric field, X component, Tangential electric field, Y component, Tangential electric field, Z component, Electric field, x component, Electric field, y component, Electric field, z component, Tangential electric field, x component, Tangential electric field, y component, Tangential electric field, z component, Electric potential
% Length unit:        mm
% x
1.3300000000000003
% y
12.200000000000001
% z
1.66
% es.normE (V/m) @ t=0
11.009012537168307
% es.EX (V/m) @ t=0
6.986314119553802
% es.EY (V/m) @ t=0
2.0891517227392247
% es.EZ (V/m) @ t=0
-7.652584281635463
% es.tEX (V/m) @ t=0
6.986314119553787
% es.tEY (V/m) @ t=0
0
% es.tEZ (V/m) @ t=0
-7.652584281635448
% es.Ex (V/m) @ t=0
6.986314119553802
% es.Ey (V/m) @ t=0
2.0891517227392247
% es.Ez (V/m) @ t=0
-7.652584281635463
% es.tEx (V/m) @ t=0
6.986314119553787
% es.tEy (V/m) @ t=0
0
% es.tEz (V/m) @ t=0
-7.652584281635448
% V (V) @ t=0
0.009430083753942962
% es.normE (V/m) @ t=0.02
9.561406838792303
% es.EX (V/m) @ t=0.02
6.067664240006696
% es.EY (V/m) @ t=0.02
1.8144433491017486
% es.EZ (V/m) @ t=0.02
-6.646324670365473
% es.tEX (V/m) @ t=0.02
6.067664240006683
% es.tEY (V/m) @ t=0.02
0
% es.tEZ (V/m) @ t=0.02
-6.646324670365459
% es.Ex (V/m) @ t=0.02
6.067664240006696
% es.Ey (V/m) @ t=0.02
1.8144433491017486
% es.Ez (V/m) @ t=0.02
-6.646324670365473
% es.tEx (V/m) @ t=0.02
6.067664240006683
% es.tEy (V/m) @ t=0.02
0
% es.tEz (V/m) @ t=0.02
-6.646324670365459
% V (V) @ t=0.02
0.008190095773835929
% es.normE (V/m) @ t=0.04
9.70318068655812
% es.EX (V/m) @ t=0.04
6.15763385734863
% es.EY (V/m) @ t=0.04
1.8413474041299032
% es.EZ (V/m) @ t=0.04
-6.744874500131391
% es.tEX (V/m) @ t=0.04
6.157633857348623
% es.tEY (V/m) @ t=0.04
0
% es.tEZ (V/m) @ t=0.04
-6.744874500131376
% es.Ex (V/m) @ t=0.04
6.15763385734863
% es.Ey (V/m) @ t=0.04
1.8413474041299032
% es.Ez (V/m) @ t=0.04
-6.744874500131391
% es.tEx (V/m) @ t=0.04
6.157633857348623
% es.tEy (V/m) @ t=0.04
0
% es.tEz (V/m) @ t=0.04
-6.744874500131376
% V (V) @ t=0.04
0.008311536204926712
% es.normE (V/m) @ t=0.06
9.847038676346147
% es.EX (V/m) @ t=0.06
6.248926058116259
% es.EY (V/m) @ t=0.06
1.8686469601311648
% es.EZ (V/m) @ t=0.06
-6.844873067138925
% es.tEX (V/m) @ t=0.06
6.248926058116248
% es.tEY (V/m) @ t=0.06
0
% es.tEZ (V/m) @ t=0.06
-6.844873067138917
% es.Ex (V/m) @ t=0.06
6.248926058116259
% es.Ey (V/m) @ t=0.06
1.8686469601311648
% es.Ez (V/m) @ t=0.06
-6.844873067138925
% es.tEx (V/m) @ t=0.06
6.248926058116248
% es.tEy (V/m) @ t=0.06
0
% es.tEz (V/m) @ t=0.06
-6.844873067138917
% V (V) @ t=0.06
0.008434761900132662
% es.normE (V/m) @ t=0.08
9.994668450973473
% es.EX (V/m) @ t=0.08
6.342611836238609
% es.EY (V/m) @ t=0.08
1.8966622783979425
% es.EZ (V/m) @ t=0.08
-6.9474934738774206
% es.tEX (V/m) @ t=0.08
6.342611836238591
% es.tEY (V/m) @ t=0.08
0
% es.tEZ (V/m) @ t=0.08
-6.947493473877399
% es.Ex (V/m) @ t=0.08
6.342611836238609
% es.Ey (V/m) @ t=0.08
1.8966622783979425
% es.Ez (V/m) @ t=0.08
-6.9474934738774206
% es.tEx (V/m) @ t=0.08
6.342611836238591
% es.tEy (V/m) @ t=0.08
0
% es.tEz (V/m) @ t=0.08
-6.947493473877399
% V (V) @ t=0.08
0.008561218413107035
% es.normE (V/m) @ t=0.1
10.144718609372719
% es.EX (V/m) @ t=0.1
6.437833591632508
% es.EY (V/m) @ t=0.1
1.9251369068973174
% es.EZ (V/m) @ t=0.1
-7.051796335635947
% es.tEX (V/m) @ t=0.1
6.437833591632493
% es.tEY (V/m) @ t=0.1
0
% es.tEZ (V/m) @ t=0.1
-7.051796335635932
% es.Ex (V/m) @ t=0.1
6.437833591632508
% es.Ey (V/m) @ t=0.1
1.9251369068973174
% es.Ez (V/m) @ t=0.1
-7.051796335635947
% es.tEx (V/m) @ t=0.1
6.437833591632493
% es.tEy (V/m) @ t=0.1
0
% es.tEz (V/m) @ t=0.1
-7.051796335635932
% V (V) @ t=0.1
0.00868974816706148
% es.normE (V/m) @ t=0.12
10.294768767771991
% es.EX (V/m) @ t=0.12
6.533055347026389
% es.EY (V/m) @ t=0.12
1.9536115353967558
% es.EZ (V/m) @ t=0.12
-7.156099197394514
% es.tEX (V/m) @ t=0.12
6.533055347026374
% es.tEY (V/m) @ t=0.12
0
% es.tEZ (V/m) @ t=0.12
-7.156099197394493
% es.Ex (V/m) @ t=0.12
6.533055347026389
% es.Ey (V/m) @ t=0.12
1.9536115353967558
% es.Ez (V/m) @ t=0.12
-7.156099197394514
% es.tEx (V/m) @ t=0.12
6.533055347026374
% es.tEy (V/m) @ t=0.12
0
% es.tEz (V/m) @ t=0.12
-7.156099197394493
% V (V) @ t=0.12
0.008818277921015924
% es.normE (V/m) @ t=0.14
10.447878822866059
% es.EX (V/m) @ t=0.14
6.630218921162021
% es.EY (V/m) @ t=0.14
1.982666833845295
% es.EZ (V/m) @ t=0.14
-7.262529047429199
% es.tEX (V/m) @ t=0.14
6.630218921162009
% es.tEY (V/m) @ t=0.14
0
% es.tEZ (V/m) @ t=0.14
-7.262529047429184
% es.Ex (V/m) @ t=0.14
6.630218921162021
% es.Ey (V/m) @ t=0.14
1.982666833845295
% es.Ez (V/m) @ t=0.14
-7.262529047429199
% es.tEx (V/m) @ t=0.14
6.630218921162009
% es.tEy (V/m) @ t=0.14
0
% es.tEz (V/m) @ t=0.14
-7.262529047429184
% V (V) @ t=0.14
0.008949428690950077
% es.normE (V/m) @ t=0.16
10.611340829110029
% es.EX (V/m) @ t=0.16
6.733951871574581
% es.EY (V/m) @ t=0.16
2.0136865995771194
% es.EZ (V/m) @ t=0.16
-7.3761547216785655
% es.tEX (V/m) @ t=0.16
6.733951871574569
% es.tEY (V/m) @ t=0.16
0
% es.tEZ (V/m) @ t=0.16
-7.376154721678551
% es.Ex (V/m) @ t=0.16
6.733951871574581
% es.Ey (V/m) @ t=0.16
2.0136865995771194
% es.Ez (V/m) @ t=0.16
-7.3761547216785655
% es.tEx (V/m) @ t=0.16
6.733951871574569
% es.tEy (V/m) @ t=0.16
0
% es.tEz (V/m) @ t=0.16
-7.376154721678551
% V (V) @ t=0.16
0.009089446632586814
% es.normE (V/m) @ t=0.18
10.774802835354027
% es.EX (V/m) @ t=0.18
6.837684821987151
% es.EY (V/m) @ t=0.18
2.044706365308923
% es.EZ (V/m) @ t=0.18
-7.489780395927958
% es.tEX (V/m) @ t=0.18
6.837684821987143
% es.tEY (V/m) @ t=0.18
0
% es.tEZ (V/m) @ t=0.18
-7.4897803959279425
% es.Ex (V/m) @ t=0.18
6.837684821987151
% es.Ey (V/m) @ t=0.18
2.044706365308923
% es.Ez (V/m) @ t=0.18
-7.489780395927958
% es.tEx (V/m) @ t=0.18
6.837684821987143
% es.tEy (V/m) @ t=0.18
0
% es.tEz (V/m) @ t=0.18
-7.4897803959279425
% V (V) @ t=0.18
0.00922946457422355
% es.normE (V/m) @ t=0.2
10.938264841598029
% es.EX (V/m) @ t=0.2
6.941417772399726
% es.EY (V/m) @ t=0.2
2.075726131040736
% es.EZ (V/m) @ t=0.2
-7.603406070177346
% es.tEX (V/m) @ t=0.2
6.941417772399718
% es.tEY (V/m) @ t=0.2
0
% es.tEZ (V/m) @ t=0.2
-7.603406070177332
% es.Ex (V/m) @ t=0.2
6.941417772399726
% es.Ey (V/m) @ t=0.2
2.075726131040736
% es.Ez (V/m) @ t=0.2
-7.603406070177346
% es.tEx (V/m) @ t=0.2
6.941417772399718
% es.tEy (V/m) @ t=0.2
0
% es.tEz (V/m) @ t=0.2
-7.603406070177332
% V (V) @ t=0.2
0.009369482515860287
% es.normE (V/m) @ t=0.22
11.10172684784201
% es.EX (V/m) @ t=0.22
7.045150722812286
% es.EY (V/m) @ t=0.22
2.1067458967725754
% es.EZ (V/m) @ t=0.22
-7.7170317444267305
% es.tEX (V/m) @ t=0.22
7.045150722812278
% es.tEY (V/m) @ t=0.22
0
% es.tEZ (V/m) @ t=0.22
-7.717031744426709
% es.Ex (V/m) @ t=0.22
7.045150722812286
% es.Ey (V/m) @ t=0.22
2.1067458967725754
% es.Ez (V/m) @ t=0.22
-7.7170317444267305
% es.tEx (V/m) @ t=0.22
7.045150722812278
% es.tEy (V/m) @ t=0.22
0
% es.tEz (V/m) @ t=0.22
-7.717031744426709
% V (V) @ t=0.22
0.009509500457497025
% es.normE (V/m) @ t=0.24
11.265188854086007
% es.EX (V/m) @ t=0.24
7.1488836732248595
% es.EY (V/m) @ t=0.24
2.137765662504393
% es.EZ (V/m) @ t=0.24
-7.830657418676113
% es.tEX (V/m) @ t=0.24
7.148883673224844
% es.tEY (V/m) @ t=0.24
0
% es.tEZ (V/m) @ t=0.24
-7.83065741867609
% es.Ex (V/m) @ t=0.24
7.1488836732248595
% es.Ey (V/m) @ t=0.24
2.137765662504393
% es.Ez (V/m) @ t=0.24
-7.830657418676113
% es.tEx (V/m) @ t=0.24
7.148883673224844
% es.tEy (V/m) @ t=0.24
0
% es.tEz (V/m) @ t=0.24
-7.83065741867609
% V (V) @ t=0.24
0.009649518399133758
% es.normE (V/m) @ t=0.26
11.42865086033002
% es.EX (V/m) @ t=0.26
7.2526166236374205
% es.EY (V/m) @ t=0.26
2.168785428236242
% es.EZ (V/m) @ t=0.26
-7.944283092925518
% es.tEX (V/m) @ t=0.26
7.252616623637384
% es.tEY (V/m) @ t=0.26
0
% es.tEZ (V/m) @ t=0.26
-7.944283092925504
% es.Ex (V/m) @ t=0.26
7.2526166236374205
% es.Ey (V/m) @ t=0.26
2.168785428236242
% es.Ez (V/m) @ t=0.26
-7.944283092925518
% es.tEx (V/m) @ t=0.26
7.252616623637384
% es.tEy (V/m) @ t=0.26
0
% es.tEz (V/m) @ t=0.26
-7.944283092925504
% V (V) @ t=0.26
0.009789536340770497
% es.normE (V/m) @ t=0.28
11.598860325095755
% es.EX (V/m) @ t=0.28
7.360631506333716
% es.EY (V/m) @ t=0.28
2.2010856414067734
% es.EZ (V/m) @ t=0.28
-8.06259906142618
% es.tEX (V/m) @ t=0.28
7.36063150633368
% es.tEY (V/m) @ t=0.28
0
% es.tEZ (V/m) @ t=0.28
-8.062599061426166
% es.Ex (V/m) @ t=0.28
7.360631506333716
% es.Ey (V/m) @ t=0.28
2.2010856414067734
% es.Ez (V/m) @ t=0.28
-8.06259906142618
% es.tEx (V/m) @ t=0.28
7.36063150633368
% es.tEy (V/m) @ t=0.28
0
% es.tEz (V/m) @ t=0.28
-8.062599061426166
% V (V) @ t=0.28
0.00993533401499168
% es.normE (V/m) @ t=0.3
11.776795558964263
% es.EX (V/m) @ t=0.3
7.473549156498809
% es.EY (V/m) @ t=0.3
2.2348519534392466
% es.EZ (V/m) @ t=0.3
-8.186285367557344
% es.tEX (V/m) @ t=0.3
7.473549156498804
% es.tEY (V/m) @ t=0.3
0
% es.tEZ (V/m) @ t=0.3
-8.186285367557323
% es.Ex (V/m) @ t=0.3
7.473549156498809
% es.Ey (V/m) @ t=0.3
2.2348519534392466
% es.Ez (V/m) @ t=0.3
-8.186285367557344
% es.tEx (V/m) @ t=0.3
7.473549156498804
% es.tEy (V/m) @ t=0.3
0
% es.tEz (V/m) @ t=0.3
-8.186285367557323
% V (V) @ t=0.3
0.010087749422286636
% es.normE (V/m) @ t=0.32
11.954730792832763
% es.EX (V/m) @ t=0.32
7.586466806663886
% es.EY (V/m) @ t=0.32
2.2686182654717166
% es.EZ (V/m) @ t=0.32
-8.309971673688487
% es.tEX (V/m) @ t=0.32
7.586466806663871
% es.tEY (V/m) @ t=0.32
0
% es.tEZ (V/m) @ t=0.32
-8.309971673688478
% es.Ex (V/m) @ t=0.32
7.586466806663886
% es.Ey (V/m) @ t=0.32
2.2686182654717166
% es.Ez (V/m) @ t=0.32
-8.309971673688487
% es.tEx (V/m) @ t=0.32
7.586466806663871
% es.tEy (V/m) @ t=0.32
0
% es.tEz (V/m) @ t=0.32
-8.309971673688478
% V (V) @ t=0.32
0.01024016482958159
% es.normE (V/m) @ t=0.34
12.132666026701285
% es.EX (V/m) @ t=0.34
7.699384456828989
% es.EY (V/m) @ t=0.34
2.302384577504183
% es.EZ (V/m) @ t=0.34
-8.433657979819678
% es.tEX (V/m) @ t=0.34
7.699384456828974
% es.tEY (V/m) @ t=0.34
0
% es.tEZ (V/m) @ t=0.34
-8.433657979819664
% es.Ex (V/m) @ t=0.34
7.699384456828989
% es.Ey (V/m) @ t=0.34
2.302384577504183
% es.Ez (V/m) @ t=0.34
-8.433657979819678
% es.tEx (V/m) @ t=0.34
7.699384456828974
% es.tEy (V/m) @ t=0.34
0
% es.tEz (V/m) @ t=0.34
-8.433657979819664
% V (V) @ t=0.34
0.010392580236876548
% es.normE (V/m) @ t=0.36
12.310601260569804
% es.EX (V/m) @ t=0.36
7.812302106994091
% es.EY (V/m) @ t=0.36
2.3361508895366883
% es.EZ (V/m) @ t=0.36
-8.557344285950833
% es.tEX (V/m) @ t=0.36
7.812302106994062
% es.tEY (V/m) @ t=0.36
0
% es.tEZ (V/m) @ t=0.36
-8.557344285950819
% es.Ex (V/m) @ t=0.36
7.812302106994091
% es.Ey (V/m) @ t=0.36
2.3361508895366883
% es.Ez (V/m) @ t=0.36
-8.557344285950833
% es.tEx (V/m) @ t=0.36
7.812302106994062
% es.tEy (V/m) @ t=0.36
0
% es.tEz (V/m) @ t=0.36
-8.557344285950819
% V (V) @ t=0.36
0.010544995644171504
% es.normE (V/m) @ t=0.38
12.488536494438325
% es.EX (V/m) @ t=0.38
7.92521975715918
% es.EY (V/m) @ t=0.38
2.369917201569165
% es.EZ (V/m) @ t=0.38
-8.681030592082012
% es.tEX (V/m) @ t=0.38
7.925219757159173
% es.tEY (V/m) @ t=0.38
0
% es.tEZ (V/m) @ t=0.38
-8.681030592081983
% es.Ex (V/m) @ t=0.38
7.92521975715918
% es.Ey (V/m) @ t=0.38
2.369917201569165
% es.Ez (V/m) @ t=0.38
-8.681030592082012
% es.tEx (V/m) @ t=0.38
7.925219757159173
% es.tEy (V/m) @ t=0.38
0
% es.tEz (V/m) @ t=0.38
-8.681030592081983
% V (V) @ t=0.38
0.010697411051466458
% es.normE (V/m) @ t=0.4
12.66647172830682
% es.EX (V/m) @ t=0.4
8.038137407324268
% es.EY (V/m) @ t=0.4
2.4036835136016244
% es.EZ (V/m) @ t=0.4
-8.804716898213155
% es.tEX (V/m) @ t=0.4
8.038137407324246
% es.tEY (V/m) @ t=0.4
0
% es.tEZ (V/m) @ t=0.4
-8.804716898213124
% es.Ex (V/m) @ t=0.4
8.038137407324268
% es.Ey (V/m) @ t=0.4
2.4036835136016244
% es.Ez (V/m) @ t=0.4
-8.804716898213155
% es.tEx (V/m) @ t=0.4
8.038137407324246
% es.tEy (V/m) @ t=0.4
0
% es.tEz (V/m) @ t=0.4
-8.804716898213124
% V (V) @ t=0.4
0.01084982645876141
% es.normE (V/m) @ t=0.42
12.855364116377032
% es.EX (V/m) @ t=0.42
8.158008474965026
% es.EY (V/m) @ t=0.42
2.439529137984514
% es.EZ (V/m) @ t=0.42
-8.936019731804889
% es.tEX (V/m) @ t=0.42
8.158008474965026
% es.tEY (V/m) @ t=0.42
0
% es.tEZ (V/m) @ t=0.42
-8.936019731804866
% es.Ex (V/m) @ t=0.42
8.158008474965026
% es.Ey (V/m) @ t=0.42
2.439529137984514
% es.Ez (V/m) @ t=0.42
-8.936019731804889
% es.tEx (V/m) @ t=0.42
8.158008474965026
% es.tEy (V/m) @ t=0.42
0
% es.tEz (V/m) @ t=0.42
-8.936019731804866
% V (V) @ t=0.42
0.01101162749581598
% es.normE (V/m) @ t=0.44
13.048857816148061
% es.EX (V/m) @ t=0.44
8.280799538126725
% es.EY (V/m) @ t=0.44
2.4762479420335515
% es.EZ (V/m) @ t=0.44
-9.070521025168077
% es.tEX (V/m) @ t=0.44
8.280799538126699
% es.tEY (V/m) @ t=0.44
0
% es.tEZ (V/m) @ t=0.44
-9.070521025168055
% es.Ex (V/m) @ t=0.44
8.280799538126725
% es.Ey (V/m) @ t=0.44
2.4762479420335515
% es.Ez (V/m) @ t=0.44
-9.070521025168077
% es.tEx (V/m) @ t=0.44
8.280799538126699
% es.tEy (V/m) @ t=0.44
0
% es.tEz (V/m) @ t=0.44
-9.070521025168055
% V (V) @ t=0.44
0.011177369903708021
% es.normE (V/m) @ t=0.46
13.242351515919092
% es.EX (V/m) @ t=0.46
8.403590601288453
% es.EY (V/m) @ t=0.46
2.5129667460825784
% es.EZ (V/m) @ t=0.46
-9.205022318531247
% es.tEX (V/m) @ t=0.46
8.403590601288432
% es.tEY (V/m) @ t=0.46
0
% es.tEZ (V/m) @ t=0.46
-9.205022318531226
% es.Ex (V/m) @ t=0.46
8.403590601288453
% es.Ey (V/m) @ t=0.46
2.5129667460825784
% es.Ez (V/m) @ t=0.46
-9.205022318531247
% es.tEx (V/m) @ t=0.46
8.403590601288432
% es.tEy (V/m) @ t=0.46
0
% es.tEz (V/m) @ t=0.46
-9.205022318531226
% V (V) @ t=0.46
0.011343112311600066
% es.normE (V/m) @ t=0.48
13.435845215690113
% es.EX (V/m) @ t=0.48
8.526381664450163
% es.EY (V/m) @ t=0.48
2.5496855501316302
% es.EZ (V/m) @ t=0.48
-9.339523611894416
% es.tEX (V/m) @ t=0.48
8.526381664450142
% es.tEY (V/m) @ t=0.48
0
% es.tEZ (V/m) @ t=0.48
-9.339523611894395
% es.Ex (V/m) @ t=0.48
8.526381664450163
% es.Ey (V/m) @ t=0.48
2.5496855501316302
% es.Ez (V/m) @ t=0.48
-9.339523611894416
% es.tEx (V/m) @ t=0.48
8.526381664450142
% es.tEy (V/m) @ t=0.48
0
% es.tEz (V/m) @ t=0.48
-9.339523611894395
% V (V) @ t=0.48
0.011508854719492109
% es.normE (V/m) @ t=0.5
13.629338915461144
% es.EX (V/m) @ t=0.5
8.649172727611894
% es.EY (V/m) @ t=0.5
2.5864043541806288
% es.EZ (V/m) @ t=0.5
-9.4740249052576
% es.tEX (V/m) @ t=0.5
8.649172727611866
% es.tEY (V/m) @ t=0.5
0
% es.tEZ (V/m) @ t=0.5
-9.474024905257577
% es.Ex (V/m) @ t=0.5
8.649172727611894
% es.Ey (V/m) @ t=0.5
2.5864043541806288
% es.Ez (V/m) @ t=0.5
-9.4740249052576
% es.tEx (V/m) @ t=0.5
8.649172727611866
% es.tEy (V/m) @ t=0.5
0
% es.tEz (V/m) @ t=0.5
-9.474024905257577
% V (V) @ t=0.5
0.011674597127384154
% es.normE (V/m) @ t=0.52
13.82283261523217
% es.EX (V/m) @ t=0.52
8.771963790773588
% es.EY (V/m) @ t=0.52
2.6231231582296624
% es.EZ (V/m) @ t=0.52
-9.608526198620776
% es.tEX (V/m) @ t=0.52
8.771963790773569
% es.tEY (V/m) @ t=0.52
0
% es.tEZ (V/m) @ t=0.52
-9.608526198620755
% es.Ex (V/m) @ t=0.52
8.771963790773588
% es.Ey (V/m) @ t=0.52
2.6231231582296624
% es.Ez (V/m) @ t=0.52
-9.608526198620776
% es.tEx (V/m) @ t=0.52
8.771963790773569
% es.tEy (V/m) @ t=0.52
0
% es.tEz (V/m) @ t=0.52
-9.608526198620755
% V (V) @ t=0.52
0.011840339535276193
% es.normE (V/m) @ t=0.54
14.016326315003212
% es.EX (V/m) @ t=0.54
8.894754853935284
% es.EY (V/m) @ t=0.54
2.6598419622787395
% es.EZ (V/m) @ t=0.54
-9.74302749198398
% es.tEX (V/m) @ t=0.54
8.894754853935272
% es.tEY (V/m) @ t=0.54
0
% es.tEZ (V/m) @ t=0.54
-9.743027491983952
% es.Ex (V/m) @ t=0.54
8.894754853935284
% es.Ey (V/m) @ t=0.54
2.6598419622787395
% es.Ez (V/m) @ t=0.54
-9.74302749198398
% es.tEx (V/m) @ t=0.54
8.894754853935272
% es.tEy (V/m) @ t=0.54
0
% es.tEz (V/m) @ t=0.54
-9.743027491983952
% V (V) @ t=0.54
0.01200608194316824
% es.normE (V/m) @ t=0.56
14.216877073879479
% es.EX (V/m) @ t=0.56
9.022024268810728
% es.EY (V/m) @ t=0.56
2.697899958912545
% es.EZ (V/m) @ t=0.56
-9.882434327015673
% es.tEX (V/m) @ t=0.56
9.022024268810716
% es.tEY (V/m) @ t=0.56
0
% es.tEZ (V/m) @ t=0.56
-9.882434327015643
% es.Ex (V/m) @ t=0.56
9.022024268810728
% es.Ey (V/m) @ t=0.56
2.697899958912545
% es.Ez (V/m) @ t=0.56
-9.882434327015673
% es.tEx (V/m) @ t=0.56
9.022024268810716
% es.tEy (V/m) @ t=0.56
0
% es.tEz (V/m) @ t=0.56
-9.882434327015643
% V (V) @ t=0.56
0.012177869420927063
% es.normE (V/m) @ t=0.58
14.419747941557382
% es.EX (V/m) @ t=0.58
9.150766005665151
% es.EY (V/m) @ t=0.58
2.7363982342031212
% es.EZ (V/m) @ t=0.58
-10.023453928814963
% es.tEX (V/m) @ t=0.58
9.150766005665133
% es.tEY (V/m) @ t=0.58
0
% es.tEZ (V/m) @ t=0.58
-10.023453928814956
% es.Ex (V/m) @ t=0.58
9.150766005665151
% es.Ey (V/m) @ t=0.58
2.7363982342031212
% es.Ez (V/m) @ t=0.58
-10.023453928814963
% es.tEx (V/m) @ t=0.58
9.150766005665133
% es.tEy (V/m) @ t=0.58
0
% es.tEz (V/m) @ t=0.58
-10.023453928814956
% V (V) @ t=0.58
0.01235164430159624
% es.normE (V/m) @ t=0.6
14.62456295527223
% es.EX (V/m) @ t=0.6
9.280741481617786
% es.EY (V/m) @ t=0.6
2.7752654430561203
% es.EZ (V/m) @ t=0.6
-10.165824956080817
% es.tEX (V/m) @ t=0.6
9.280741481617774
% es.tEY (V/m) @ t=0.6
0
% es.tEZ (V/m) @ t=0.6
-10.165824956080803
% es.Ex (V/m) @ t=0.6
9.280741481617786
% es.Ey (V/m) @ t=0.6
2.7752654430561203
% es.Ez (V/m) @ t=0.6
-10.165824956080817
% es.tEx (V/m) @ t=0.6
9.280741481617774
% es.tEy (V/m) @ t=0.6
0
% es.tEz (V/m) @ t=0.6
-10.165824956080803
% V (V) @ t=0.6
0.01252708453584248
% es.normE (V/m) @ t=0.62
14.831322115023985
% es.EX (V/m) @ t=0.62
9.411950696668542
% es.EY (V/m) @ t=0.62
2.814501585471672
% es.EZ (V/m) @ t=0.62
-10.309547408813216
% es.tEX (V/m) @ t=0.62
9.411950696668526
% es.tEY (V/m) @ t=0.62
0
% es.tEZ (V/m) @ t=0.62
-10.309547408813188
% es.Ex (V/m) @ t=0.62
9.411950696668542
% es.Ey (V/m) @ t=0.62
2.814501585471672
% es.Ez (V/m) @ t=0.62
-10.309547408813216
% es.tEx (V/m) @ t=0.62
9.411950696668526
% es.tEy (V/m) @ t=0.62
0
% es.tEz (V/m) @ t=0.62
-10.309547408813188
% V (V) @ t=0.62
0.012704190123665783
% es.normE (V/m) @ t=0.64
15.040025420812677
% es.EX (V/m) @ t=0.64
9.544393650817476
% es.EY (V/m) @ t=0.64
2.8541066614496993
% es.EZ (V/m) @ t=0.64
-10.454621287012179
% es.tEX (V/m) @ t=0.64
9.544393650817458
% es.tEY (V/m) @ t=0.64
0
% es.tEZ (V/m) @ t=0.64
-10.454621287012163
% es.Ex (V/m) @ t=0.64
9.544393650817476
% es.Ey (V/m) @ t=0.64
2.8541066614496993
% es.Ez (V/m) @ t=0.64
-10.454621287012179
% es.tEx (V/m) @ t=0.64
9.544393650817458
% es.tEy (V/m) @ t=0.64
0
% es.tEz (V/m) @ t=0.64
-10.454621287012163
% V (V) @ t=0.64
0.012882961065066145
% es.normE (V/m) @ t=0.66
15.250672872638308
% es.EX (V/m) @ t=0.66
9.678070344064583
% es.EY (V/m) @ t=0.66
2.8940806709902107
% es.EZ (V/m) @ t=0.66
-10.601046590677717
% es.tEX (V/m) @ t=0.66
9.678070344064556
% es.tEY (V/m) @ t=0.66
0
% es.tEZ (V/m) @ t=0.66
-10.601046590677687
% es.Ex (V/m) @ t=0.66
9.678070344064583
% es.Ey (V/m) @ t=0.66
2.8940806709902107
% es.Ez (V/m) @ t=0.66
-10.601046590677717
% es.tEx (V/m) @ t=0.66
9.678070344064556
% es.tEy (V/m) @ t=0.66
0
% es.tEz (V/m) @ t=0.66
-10.601046590677687
% V (V) @ t=0.66
0.013063397360043569
% es.normE (V/m) @ t=0.68
15.46326447050086
% es.EX (V/m) @ t=0.68
9.812980776409843
% es.EY (V/m) @ t=0.68
2.9344236140932627
% es.EZ (V/m) @ t=0.68
-10.748823319809787
% es.tEX (V/m) @ t=0.68
9.812980776409837
% es.tEY (V/m) @ t=0.68
0
% es.tEZ (V/m) @ t=0.68
-10.748823319809766
% es.Ex (V/m) @ t=0.68
9.812980776409843
% es.Ey (V/m) @ t=0.68
2.9344236140932627
% es.Ez (V/m) @ t=0.68
-10.748823319809787
% es.tEx (V/m) @ t=0.68
9.812980776409837
% es.tEy (V/m) @ t=0.68
0
% es.tEz (V/m) @ t=0.68
-10.748823319809766
% V (V) @ t=0.68
0.013245499008598055
% es.normE (V/m) @ t=0.7
15.67780021440034
% es.EX (V/m) @ t=0.7
9.94912494785325
% es.EY (V/m) @ t=0.7
2.97513549075876
% es.EZ (V/m) @ t=0.7
-10.897951474408448
% es.tEX (V/m) @ t=0.7
9.949124947853225
% es.tEY (V/m) @ t=0.7
0
% es.tEZ (V/m) @ t=0.7
-10.897951474408433
% es.Ex (V/m) @ t=0.7
9.94912494785325
% es.Ey (V/m) @ t=0.7
2.97513549075876
% es.Ez (V/m) @ t=0.7
-10.897951474408448
% es.tEx (V/m) @ t=0.7
9.949124947853225
% es.tEy (V/m) @ t=0.7
0
% es.tEz (V/m) @ t=0.7
-10.897951474408433
% V (V) @ t=0.7
0.013429266010729603
% es.normE (V/m) @ t=0.72
15.894280104336783
% es.EX (V/m) @ t=0.72
10.08650285839487
% es.EY (V/m) @ t=0.72
3.0162163009867977
% es.EZ (V/m) @ t=0.72
-11.048431054473657
% es.tEX (V/m) @ t=0.72
10.086502858394852
% es.tEY (V/m) @ t=0.72
0
% es.tEZ (V/m) @ t=0.72
-11.048431054473628
% es.Ex (V/m) @ t=0.72
10.08650285839487
% es.Ey (V/m) @ t=0.72
3.0162163009867977
% es.Ez (V/m) @ t=0.72
-11.048431054473657
% es.tEx (V/m) @ t=0.72
10.086502858394852
% es.tEy (V/m) @ t=0.72
0
% es.tEz (V/m) @ t=0.72
-11.048431054473628
% V (V) @ t=0.72
0.013614698366438215
% es.normE (V/m) @ t=0.74
16.11270414031015
% es.EX (V/m) @ t=0.74
10.225114508034626
% es.EY (V/m) @ t=0.74
3.057666044777305
% es.EZ (V/m) @ t=0.74
-11.200262060005446
% es.tEX (V/m) @ t=0.74
10.225114508034597
% es.tEY (V/m) @ t=0.74
0
% es.tEZ (V/m) @ t=0.74
-11.200262060005418
% es.Ex (V/m) @ t=0.74
10.225114508034626
% es.Ey (V/m) @ t=0.74
3.057666044777305
% es.Ez (V/m) @ t=0.74
-11.200262060005446
% es.tEx (V/m) @ t=0.74
10.225114508034597
% es.tEy (V/m) @ t=0.74
0
% es.tEz (V/m) @ t=0.74
-11.200262060005418
% V (V) @ t=0.74
0.013801796075723885
% es.normE (V/m) @ t=0.76
16.333072322320415
% es.EX (V/m) @ t=0.76
10.36495989677256
% es.EY (V/m) @ t=0.76
3.099484722130321
% es.EZ (V/m) @ t=0.76
-11.35344449100373
% es.tEX (V/m) @ t=0.76
10.364959896772525
% es.tEY (V/m) @ t=0.76
0
% es.tEZ (V/m) @ t=0.76
-11.353444491003707
% es.Ex (V/m) @ t=0.76
10.36495989677256
% es.Ey (V/m) @ t=0.76
3.099484722130321
% es.Ez (V/m) @ t=0.76
-11.35344449100373
% es.tEx (V/m) @ t=0.76
10.364959896772525
% es.tEy (V/m) @ t=0.76
0
% es.tEz (V/m) @ t=0.76
-11.353444491003707
% V (V) @ t=0.76
0.013990559138586612
% es.normE (V/m) @ t=0.78
16.55538465036767
% es.EX (V/m) @ t=0.78
10.506039024608643
% es.EY (V/m) @ t=0.78
3.1416723330458494
% es.EZ (V/m) @ t=0.78
-11.507978347468658
% es.tEX (V/m) @ t=0.78
10.506039024608624
% es.tEY (V/m) @ t=0.78
0
% es.tEZ (V/m) @ t=0.78
-11.50797834746863
% es.Ex (V/m) @ t=0.78
10.506039024608643
% es.Ey (V/m) @ t=0.78
3.1416723330458494
% es.Ez (V/m) @ t=0.78
-11.507978347468658
% es.tEx (V/m) @ t=0.78
10.506039024608624
% es.tEy (V/m) @ t=0.78
0
% es.tEz (V/m) @ t=0.78
-11.50797834746863
% V (V) @ t=0.78
0.014180987555026411
% es.normE (V/m) @ t=0.8
16.77964112445183
% es.EX (V/m) @ t=0.8
10.648351891542895
% es.EY (V/m) @ t=0.8
3.1842288775238656
% es.EZ (V/m) @ t=0.8
-11.663863629400097
% es.tEX (V/m) @ t=0.8
10.64835189154286
% es.tEY (V/m) @ t=0.8
0
% es.tEZ (V/m) @ t=0.8
-11.663863629400069
% es.Ex (V/m) @ t=0.8
10.648351891542895
% es.Ey (V/m) @ t=0.8
3.1842288775238656
% es.Ez (V/m) @ t=0.8
-11.663863629400097
% es.tEx (V/m) @ t=0.8
10.64835189154286
% es.tEy (V/m) @ t=0.8
0
% es.tEz (V/m) @ t=0.8
-11.663863629400069
% V (V) @ t=0.8
0.014373081325043264
% es.normE (V/m) @ t=0.82
17.00744838543608
% es.EX (V/m) @ t=0.82
10.792918153599548
% es.EY (V/m) @ t=0.82
3.227459254368414
% es.EZ (V/m) @ t=0.82
-11.822217085983112
% es.tEX (V/m) @ t=0.82
10.79291815359953
% es.tEY (V/m) @ t=0.82
0
% es.tEZ (V/m) @ t=0.82
-11.822217085983096
% es.Ex (V/m) @ t=0.82
10.792918153599548
% es.Ey (V/m) @ t=0.82
3.227459254368414
% es.Ez (V/m) @ t=0.82
-11.822217085983112
% es.tEx (V/m) @ t=0.82
10.79291815359953
% es.tEy (V/m) @ t=0.82
0
% es.tEz (V/m) @ t=0.82
-11.822217085983096
% V (V) @ t=0.82
0.014568216444039595
% es.normE (V/m) @ t=0.84
17.23982358503151
% es.EX (V/m) @ t=0.84
10.940383346998592
% es.EY (V/m) @ t=0.84
3.2715564926174867
% es.EZ (V/m) @ t=0.84
-11.983745722355254
% es.tEX (V/m) @ t=0.84
10.94038334699858
% es.tEY (V/m) @ t=0.84
0
% es.tEZ (V/m) @ t=0.84
-11.983745722355211
% es.Ex (V/m) @ t=0.84
10.940383346998592
% es.Ey (V/m) @ t=0.84
3.2715564926174867
% es.Ez (V/m) @ t=0.84
-11.983745722355254
% es.tEx (V/m) @ t=0.84
10.94038334699858
% es.tEy (V/m) @ t=0.84
0
% es.tEz (V/m) @ t=0.84
-11.983745722355211
% V (V) @ t=0.84
0.014767264043896867
% es.normE (V/m) @ t=0.86
17.474693742197005
% es.EX (V/m) @ t=0.86
11.08943185251544
% es.EY (V/m) @ t=0.86
3.3161271941852792
% es.EZ (V/m) @ t=0.86
-12.147008644075603
% es.tEX (V/m) @ t=0.86
11.089431852515414
% es.tEY (V/m) @ t=0.86
0
% es.tEZ (V/m) @ t=0.86
-12.147008644075573
% es.Ex (V/m) @ t=0.86
11.08943185251544
% es.Ey (V/m) @ t=0.86
3.3161271941852792
% es.Ez (V/m) @ t=0.86
-12.147008644075603
% es.tEx (V/m) @ t=0.86
11.089431852515414
% es.tEy (V/m) @ t=0.86
0
% es.tEz (V/m) @ t=0.86
-12.147008644075573
% V (V) @ t=0.86
0.014968448735698253
% es.normE (V/m) @ t=0.88
17.712058856932643
% es.EX (V/m) @ t=0.88
11.240063670150082
% es.EY (V/m) @ t=0.88
3.3611713590717507
% es.EZ (V/m) @ t=0.88
-12.312005851144207
% es.tEX (V/m) @ t=0.88
11.240063670150043
% es.tEY (V/m) @ t=0.88
0
% es.tEZ (V/m) @ t=0.88
-12.312005851144164
% es.Ex (V/m) @ t=0.88
11.240063670150082
% es.Ey (V/m) @ t=0.88
3.3611713590717507
% es.Ez (V/m) @ t=0.88
-12.312005851144207
% es.tEx (V/m) @ t=0.88
11.240063670150043
% es.tEy (V/m) @ t=0.88
0
% es.tEz (V/m) @ t=0.88
-12.312005851144164
% V (V) @ t=0.88
0.015171770519443746
% es.normE (V/m) @ t=0.9
17.951918929238325
% es.EX (V/m) @ t=0.9
11.392278799902492
% es.EY (V/m) @ t=0.9
3.4066889872769206
% es.EZ (V/m) @ t=0.9
-12.478737343561033
% es.tEX (V/m) @ t=0.9
11.392278799902458
% es.tEY (V/m) @ t=0.9
0
% es.tEZ (V/m) @ t=0.9
-12.47873734356099
% es.Ex (V/m) @ t=0.9
11.392278799902492
% es.Ey (V/m) @ t=0.9
3.4066889872769206
% es.Ez (V/m) @ t=0.9
-12.478737343561033
% es.tEx (V/m) @ t=0.9
11.392278799902458
% es.tEy (V/m) @ t=0.9
0
% es.tEz (V/m) @ t=0.9
-12.47873734356099
% V (V) @ t=0.9
0.015377229395133352
% es.normE (V/m) @ t=0.92
18.194273959114135
% es.EX (V/m) @ t=0.92
11.546077241772743
% es.EY (V/m) @ t=0.92
3.4526800788007543
% es.EZ (V/m) @ t=0.92
-12.647203121326108
% es.tEX (V/m) @ t=0.92
11.54607724177271
% es.tEY (V/m) @ t=0.92
0
% es.tEZ (V/m) @ t=0.92
-12.647203121326077
% es.Ex (V/m) @ t=0.92
11.546077241772743
% es.Ey (V/m) @ t=0.92
3.4526800788007543
% es.Ez (V/m) @ t=0.92
-12.647203121326108
% es.tEx (V/m) @ t=0.92
11.54607724177271
% es.tEy (V/m) @ t=0.92
0
% es.tEz (V/m) @ t=0.92
-12.647203121326077
% V (V) @ t=0.92
0.015584825362767068
% es.normE (V/m) @ t=0.94
18.439123946560006
% es.EX (V/m) @ t=0.94
11.701458995760738
% es.EY (V/m) @ t=0.94
3.499144633643338
% es.EZ (V/m) @ t=0.94
-12.817403184439371
% es.tEX (V/m) @ t=0.94
11.701458995760714
% es.tEY (V/m) @ t=0.94
0
% es.tEZ (V/m) @ t=0.94
-12.817403184439343
% es.Ex (V/m) @ t=0.94
11.701458995760738
% es.Ey (V/m) @ t=0.94
3.499144633643338
% es.Ez (V/m) @ t=0.94
-12.817403184439371
% es.tEx (V/m) @ t=0.94
11.701458995760714
% es.tEy (V/m) @ t=0.94
0
% es.tEz (V/m) @ t=0.94
-12.817403184439343
% V (V) @ t=0.94
0.015794558422344895
% es.normE (V/m) @ t=0.96
18.68646889157601
% es.EX (V/m) @ t=0.96
11.858424061866572
% es.EY (V/m) @ t=0.96
3.5460826518045634
% es.EZ (V/m) @ t=0.96
-12.9893375329009
% es.tEX (V/m) @ t=0.96
11.858424061866552
% es.tEY (V/m) @ t=0.96
0
% es.tEZ (V/m) @ t=0.96
-12.989337532900857
% es.Ex (V/m) @ t=0.96
11.858424061866572
% es.Ey (V/m) @ t=0.96
3.5460826518045634
% es.Ez (V/m) @ t=0.96
-12.9893375329009
% es.tEx (V/m) @ t=0.96
11.858424061866552
% es.tEy (V/m) @ t=0.96
0
% es.tEz (V/m) @ t=0.96
-12.989337532900857
% V (V) @ t=0.96
0.016006428573866832
% es.normE (V/m) @ t=0.98
18.936308794162063
% es.EX (V/m) @ t=0.98
12.016972440090171
% es.EY (V/m) @ t=0.98
3.5934941332844526
% es.EZ (V/m) @ t=0.98
-13.163006166710655
% es.tEX (V/m) @ t=0.98
12.016972440090154
% es.tEY (V/m) @ t=0.98
0
% es.tEZ (V/m) @ t=0.98
-13.163006166710627
% es.Ex (V/m) @ t=0.98
12.016972440090171
% es.Ey (V/m) @ t=0.98
3.5934941332844526
% es.Ez (V/m) @ t=0.98
-13.163006166710655
% es.tEx (V/m) @ t=0.98
12.016972440090154
% es.tEy (V/m) @ t=0.98
0
% es.tEz (V/m) @ t=0.98
-13.163006166710627
% V (V) @ t=0.98
0.016220435817332884
% es.normE (V/m) @ t=1
19.18864365431819
% es.EX (V/m) @ t=1
12.177104130431545
% es.EY (V/m) @ t=1
3.6413790780830837
% es.EZ (V/m) @ t=1
-13.338409085868602
% es.tEX (V/m) @ t=1
12.177104130431523
% es.tEY (V/m) @ t=1
0
% es.tEZ (V/m) @ t=1
-13.338409085868573
% es.Ex (V/m) @ t=1
12.177104130431545
% es.Ey (V/m) @ t=1
3.6413790780830837
% es.Ez (V/m) @ t=1
-13.338409085868602
% es.tEx (V/m) @ t=1
12.177104130431523
% es.tEy (V/m) @ t=1
0
% es.tEz (V/m) @ t=1
-13.338409085868573
% V (V) @ t=1
0.01643658015274304
% es.normE (V/m) @ t=1.02
19.443473472044488
% es.EX (V/m) @ t=1.02
12.338819132890777
% es.EY (V/m) @ t=1.02
3.6897374862003653
% es.EZ (V/m) @ t=1.02
-13.515546290374841
% es.tEX (V/m) @ t=1.02
12.338819132890746
% es.tEY (V/m) @ t=1.02
0
% es.tEZ (V/m) @ t=1.02
-13.515546290374811
% es.Ex (V/m) @ t=1.02
12.338819132890777
% es.Ey (V/m) @ t=1.02
3.6897374862003653
% es.Ez (V/m) @ t=1.02
-13.515546290374841
% es.tEx (V/m) @ t=1.02
12.338819132890746
% es.tEy (V/m) @ t=1.02
0
% es.tEz (V/m) @ t=1.02
-13.515546290374811
% V (V) @ t=1.02
0.016654861580097303
% es.normE (V/m) @ t=1.04
19.700798247340856
% es.EX (V/m) @ t=1.04
12.502117447467812
% es.EY (V/m) @ t=1.04
3.7385693576362957
% es.EZ (V/m) @ t=1.04
-13.694417780229292
% es.tEX (V/m) @ t=1.04
12.502117447467747
% es.tEY (V/m) @ t=1.04
0
% es.tEZ (V/m) @ t=1.04
-13.694417780229262
% es.Ex (V/m) @ t=1.04
12.502117447467812
% es.Ey (V/m) @ t=1.04
3.7385693576362957
% es.Ez (V/m) @ t=1.04
-13.694417780229292
% es.tEx (V/m) @ t=1.04
12.502117447467747
% es.tEy (V/m) @ t=1.04
0
% es.tEz (V/m) @ t=1.04
-13.694417780229262