% Model:              1 neuron.mph
% Version:            COMSOL 6.1.0.252
% Date:               Mar 18 2023, 14:02
% Dimension:          0
% Nodes:              14017
% Expressions:        14017
% Description:        Electric field norm, Electric field, X component, Electric field, Y component, Electric field, Z component, Tangential electric field, X component, Tangential electric field, Y component, Tangential electric field, Z component, Electric field, x component, Electric field, y component, Electric field, z component, Tangential electric field, x component, Tangential electric field, y component, Tangential electric field, z component, Electric potential
% Length unit:        mm
% x
2
% y
12.2
% z
1.33
% es.normE (V/m) @ t=0
3.665607423155472
% es.EX (V/m) @ t=0
-3.3715444102531884
% es.EY (V/m) @ t=0
0.2630029298270946
% es.EZ (V/m) @ t=0
1.4100383497443842
% es.tEX (V/m) @ t=0
-3.3715444102531578
% es.tEY (V/m) @ t=0
0
% es.tEZ (V/m) @ t=0
1.410038349744383
% es.Ex (V/m) @ t=0
-3.3715444102531884
% es.Ey (V/m) @ t=0
0.2630029298270946
% es.Ez (V/m) @ t=0
1.4100383497443842
% es.tEx (V/m) @ t=0
-3.3715444102531578
% es.tEy (V/m) @ t=0
0
% es.tEz (V/m) @ t=0
1.410038349744383
% V (V) @ t=0
0.020465831998733437
% es.normE (V/m) @ t=0.02
3.435296800500633
% es.EX (V/m) @ t=0.02
-3.1597097996941996
% es.EY (V/m) @ t=0.02
0.2464784445679401
% es.EZ (V/m) @ t=0.02
1.3214454594920322
% es.tEX (V/m) @ t=0.02
-3.1597097996941734
% es.tEY (V/m) @ t=0.02
0
% es.tEZ (V/m) @ t=0.02
1.3214454594920397
% es.Ex (V/m) @ t=0.02
-3.1597097996941996
% es.Ey (V/m) @ t=0.02
0.2464784445679401
% es.Ez (V/m) @ t=0.02
1.3214454594920322
% es.tEx (V/m) @ t=0.02
-3.1597097996941734
% es.tEy (V/m) @ t=0.02
0
% es.tEz (V/m) @ t=0.02
1.3214454594920397
% V (V) @ t=0.02
0.019179959796553257
% es.normE (V/m) @ t=0.04
3.485319886180612
% es.EX (V/m) @ t=0.04
-3.205719927316935
% es.EY (V/m) @ t=0.04
0.2500675326923443
% es.EZ (V/m) @ t=0.04
1.3406876861660115
% es.tEX (V/m) @ t=0.04
-3.2057199273169097
% es.tEY (V/m) @ t=0.04
0
% es.tEZ (V/m) @ t=0.04
1.3406876861660137
% es.Ex (V/m) @ t=0.04
-3.205719927316935
% es.Ey (V/m) @ t=0.04
0.2500675326923443
% es.Ez (V/m) @ t=0.04
1.3406876861660115
% es.tEx (V/m) @ t=0.04
-3.2057199273169097
% es.tEy (V/m) @ t=0.04
0
% es.tEz (V/m) @ t=0.04
1.3406876861660137
% V (V) @ t=0.04
0.01945924927595942
% es.normE (V/m) @ t=0.06
3.5360484745942005
% es.EX (V/m) @ t=0.06
-3.252378963249071
% es.EY (V/m) @ t=0.06
0.253707232246817
% es.EZ (V/m) @ t=0.06
1.3602012915776451
% es.tEX (V/m) @ t=0.06
-3.252378963249061
% es.tEY (V/m) @ t=0.06
0
% es.tEZ (V/m) @ t=0.06
1.3602012915776385
% es.Ex (V/m) @ t=0.06
-3.252378963249071
% es.Ey (V/m) @ t=0.06
0.253707232246817
% es.Ez (V/m) @ t=0.06
1.3602012915776451
% es.tEx (V/m) @ t=0.06
-3.252378963249061
% es.tEy (V/m) @ t=0.06
0
% es.tEz (V/m) @ t=0.06
1.3602012915776385
% V (V) @ t=0.06
0.01974247809200466
% es.normE (V/m) @ t=0.08
3.5878641562226963
% es.EX (V/m) @ t=0.08
-3.3000378869847755
% es.EY (V/m) @ t=0.08
0.2574249191048934
% es.EZ (V/m) @ t=0.08
1.3801330589877567
% es.tEX (V/m) @ t=0.08
-3.3000378869847466
% es.tEY (V/m) @ t=0.08
0
% es.tEZ (V/m) @ t=0.08
1.3801330589877594
% es.Ex (V/m) @ t=0.08
-3.3000378869847755
% es.Ey (V/m) @ t=0.08
0.2574249191048934
% es.Ez (V/m) @ t=0.08
1.3801330589877567
% es.tEx (V/m) @ t=0.08
-3.3000378869847466
% es.tEy (V/m) @ t=0.08
0
% es.tEz (V/m) @ t=0.08
1.3801330589877594
% V (V) @ t=0.08
0.020031776892959124
% es.normE (V/m) @ t=0.1
3.6396798378511632
% es.EX (V/m) @ t=0.1
-3.347696810720462
% es.EY (V/m) @ t=0.1
0.2611426059629587
% es.EZ (V/m) @ t=0.1
1.4000648263978408
% es.tEX (V/m) @ t=0.1
-3.3476968107204605
% es.tEY (V/m) @ t=0.1
0
% es.tEZ (V/m) @ t=0.1
1.4000648263978448
% es.Ex (V/m) @ t=0.1
-3.347696810720462
% es.Ey (V/m) @ t=0.1
0.2611426059629587
% es.Ez (V/m) @ t=0.1
1.4000648263978408
% es.tEx (V/m) @ t=0.1
-3.3476968107204605
% es.tEy (V/m) @ t=0.1
0
% es.tEz (V/m) @ t=0.1
1.4000648263978448
% V (V) @ t=0.1
0.0203210756939136
% es.normE (V/m) @ t=0.12
3.693300746067338
% es.EX (V/m) @ t=0.12
-3.3970160345449294
% es.EY (V/m) @ t=0.12
0.2649901278621405
% es.EZ (V/m) @ t=0.12
1.4206912126494742
% es.tEX (V/m) @ t=0.12
-3.3970160345449187
% es.tEY (V/m) @ t=0.12
0
% es.tEZ (V/m) @ t=0.12
1.42069121264948
% es.Ex (V/m) @ t=0.12
-3.3970160345449294
% es.Ey (V/m) @ t=0.12
0.2649901278621405
% es.Ez (V/m) @ t=0.12
1.4206912126494742
% es.tEx (V/m) @ t=0.12
-3.3970160345449187
% es.tEy (V/m) @ t=0.12
0
% es.tEz (V/m) @ t=0.12
1.42069121264948
% V (V) @ t=0.12
0.020620437806955973
% es.normE (V/m) @ t=0.14
3.7482464161802973
% es.EX (V/m) @ t=0.14
-3.447553666246637
% es.EY (V/m) @ t=0.14
0.2689329289448341
% es.EZ (V/m) @ t=0.14
1.441827343539439
% es.tEX (V/m) @ t=0.14
-3.447553666246634
% es.tEY (V/m) @ t=0.14
0
% es.tEZ (V/m) @ t=0.14
1.441827343539444
% es.Ex (V/m) @ t=0.14
-3.447553666246637
% es.Ey (V/m) @ t=0.14
0.2689329289448341
% es.Ez (V/m) @ t=0.14
1.441827343539439
% es.tEx (V/m) @ t=0.14
-3.447553666246634
% es.tEy (V/m) @ t=0.14
0
% es.tEz (V/m) @ t=0.14
1.441827343539444
% V (V) @ t=0.14
0.020927184861312145
% es.normE (V/m) @ t=0.16
3.8031920862933886
% es.EX (V/m) @ t=0.16
-3.4980912979483687
% es.EY (V/m) @ t=0.16
0.2728757300275455
% es.EZ (V/m) @ t=0.16
1.4629634744293893
% es.tEX (V/m) @ t=0.16
-3.4980912979483634
% es.tEY (V/m) @ t=0.16
0
% es.tEZ (V/m) @ t=0.16
1.4629634744293867
% es.Ex (V/m) @ t=0.16
-3.4980912979483687
% es.Ey (V/m) @ t=0.16
0.2728757300275455
% es.Ez (V/m) @ t=0.16
1.4629634744293893
% es.tEx (V/m) @ t=0.16
-3.4980912979483634
% es.tEy (V/m) @ t=0.16
0
% es.tEz (V/m) @ t=0.16
1.4629634744293867
% V (V) @ t=0.16
0.021233931915668317
% es.normE (V/m) @ t=0.18
3.85813775640654
% es.EX (V/m) @ t=0.18
-3.548628929650055
% es.EY (V/m) @ t=0.18
0.2768185311102249
% es.EZ (V/m) @ t=0.18
1.4840996053193187
% es.tEX (V/m) @ t=0.18
-3.54862892965005
% es.tEY (V/m) @ t=0.18
0
% es.tEZ (V/m) @ t=0.18
1.484099605319301
% es.Ex (V/m) @ t=0.18
-3.548628929650055
% es.Ey (V/m) @ t=0.18
0.2768185311102249
% es.Ez (V/m) @ t=0.18
1.4840996053193187
% es.tEx (V/m) @ t=0.18
-3.54862892965005
% es.tEy (V/m) @ t=0.18
0
% es.tEz (V/m) @ t=0.18
1.484099605319301
% V (V) @ t=0.18
0.021540678970024485
% es.normE (V/m) @ t=0.2
3.9130834265198757
% es.EX (V/m) @ t=0.2
-3.599166561351798
% es.EY (V/m) @ t=0.2
0.28076133219290456
% es.EZ (V/m) @ t=0.2
1.5052357362093112
% es.tEX (V/m) @ t=0.2
-3.599166561351783
% es.tEY (V/m) @ t=0.2
0
% es.tEZ (V/m) @ t=0.2
1.5052357362093005
% es.Ex (V/m) @ t=0.2
-3.599166561351798
% es.Ey (V/m) @ t=0.2
0.28076133219290456
% es.Ez (V/m) @ t=0.2
1.5052357362093112
% es.tEx (V/m) @ t=0.2
-3.599166561351783
% es.tEy (V/m) @ t=0.2
0
% es.tEz (V/m) @ t=0.2
1.5052357362093005
% V (V) @ t=0.2
0.021847426024380653
% es.normE (V/m) @ t=0.22
3.9685253281299286
% es.EX (V/m) @ t=0.22
-3.6501606674654634
% es.EY (V/m) @ t=0.22
0.28473958552349843
% es.EZ (V/m) @ t=0.22
1.5265626510956554
% es.tEX (V/m) @ t=0.22
-3.650160667465453
% es.tEY (V/m) @ t=0.22
0
% es.tEZ (V/m) @ t=0.22
1.5265626510956665
% es.Ex (V/m) @ t=0.22
-3.6501606674654634
% es.Ey (V/m) @ t=0.22
0.28473958552349843
% es.Ez (V/m) @ t=0.22
1.5265626510956554
% es.tEx (V/m) @ t=0.22
-3.650160667465453
% es.tEy (V/m) @ t=0.22
0
% es.tEz (V/m) @ t=0.22
1.5265626510956665
% V (V) @ t=0.22
0.022156951174797775
% es.normE (V/m) @ t=0.24
4.026630404930874
% es.EX (V/m) @ t=0.24
-3.703604580448109
% es.EY (V/m) @ t=0.24
0.2889081039776522
% es.EZ (V/m) @ t=0.24
1.548913465531859
% es.tEX (V/m) @ t=0.24
-3.703604580448083
% es.tEY (V/m) @ t=0.24
0
% es.tEZ (V/m) @ t=0.24
1.5489134655318466
% es.Ex (V/m) @ t=0.24
-3.703604580448109
% es.Ey (V/m) @ t=0.24
0.2889081039776522
% es.Ez (V/m) @ t=0.24
1.548913465531859
% es.tEx (V/m) @ t=0.24
-3.703604580448083
% es.tEy (V/m) @ t=0.24
0
% es.tEz (V/m) @ t=0.24
1.5489134655318466
% V (V) @ t=0.24
0.022481385811123487
% es.normE (V/m) @ t=0.26
4.084735481731881
% es.EX (V/m) @ t=0.26
-3.7570484934307387
% es.EY (V/m) @ t=0.26
0.2930766224317527
% es.EZ (V/m) @ t=0.26
1.5712642799680125
% es.tEX (V/m) @ t=0.26
-3.757048493430716
% es.tEY (V/m) @ t=0.26
0
% es.tEZ (V/m) @ t=0.26
1.5712642799680197
% es.Ex (V/m) @ t=0.26
-3.7570484934307387
% es.Ey (V/m) @ t=0.26
0.2930766224317527
% es.Ez (V/m) @ t=0.26
1.5712642799680125
% es.tEx (V/m) @ t=0.26
-3.757048493430716
% es.tEy (V/m) @ t=0.26
0
% es.tEz (V/m) @ t=0.26
1.5712642799680197
% V (V) @ t=0.26
0.022805820447449204
% es.normE (V/m) @ t=0.28
4.142840558533022
% es.EX (V/m) @ t=0.28
-3.8104924064133736
% es.EY (V/m) @ t=0.28
0.29724514088593845
% es.EZ (V/m) @ t=0.28
1.5936150944042446
% es.tEX (V/m) @ t=0.28
-3.8104924064133634
% es.tEY (V/m) @ t=0.28
0
% es.tEZ (V/m) @ t=0.28
1.5936150944042424
% es.Ex (V/m) @ t=0.28
-3.8104924064133736
% es.Ey (V/m) @ t=0.28
0.29724514088593845
% es.Ez (V/m) @ t=0.28
1.5936150944042446
% es.tEx (V/m) @ t=0.28
-3.8104924064133634
% es.tEy (V/m) @ t=0.28
0
% es.tEz (V/m) @ t=0.28
1.5936150944042424
% V (V) @ t=0.28
0.02313025508377492
% es.normE (V/m) @ t=0.3
4.200945635334212
% es.EX (V/m) @ t=0.3
-3.863936319395999
% es.EY (V/m) @ t=0.3
0.3014136593400707
% es.EZ (V/m) @ t=0.3
1.6159659088404021
% es.tEX (V/m) @ t=0.3
-3.8639363193959753
% es.tEY (V/m) @ t=0.3
0
% es.tEZ (V/m) @ t=0.3
1.615965908840387
% es.Ex (V/m) @ t=0.3
-3.863936319395999
% es.Ey (V/m) @ t=0.3
0.3014136593400707
% es.Ez (V/m) @ t=0.3
1.6159659088404021
% es.tEx (V/m) @ t=0.3
-3.8639363193959753
% es.tEy (V/m) @ t=0.3
0
% es.tEz (V/m) @ t=0.3
1.615965908840387
% V (V) @ t=0.3
0.023454689720100636
% es.normE (V/m) @ t=0.32
4.25905071213553
% es.EX (V/m) @ t=0.32
-3.9173802323786404
% es.EY (V/m) @ t=0.32
0.30558217779421404
% es.EZ (V/m) @ t=0.32
1.6383167232766231
% es.tEX (V/m) @ t=0.32
-3.9173802323786227
% es.tEY (V/m) @ t=0.32
0
% es.tEZ (V/m) @ t=0.32
1.6383167232766098
% es.Ex (V/m) @ t=0.32
-3.9173802323786404
% es.Ey (V/m) @ t=0.32
0.30558217779421404
% es.Ez (V/m) @ t=0.32
1.6383167232766231
% es.tEx (V/m) @ t=0.32
-3.9173802323786227
% es.tEy (V/m) @ t=0.32
0
% es.tEz (V/m) @ t=0.32
1.6383167232766098
% V (V) @ t=0.32
0.023779124356426352
% es.normE (V/m) @ t=0.34
4.321789647164737
% es.EX (V/m) @ t=0.34
-3.975085467316383
% es.EY (V/m) @ t=0.34
0.31008552704547454
% es.EZ (V/m) @ t=0.34
1.6624515713450554
% es.tEX (V/m) @ t=0.34
-3.975085467316376
% es.tEY (V/m) @ t=0.34
0
% es.tEZ (V/m) @ t=0.34
1.6624515713450378
% es.Ex (V/m) @ t=0.34
-3.975085467316383
% es.Ey (V/m) @ t=0.34
0.31008552704547454
% es.Ez (V/m) @ t=0.34
1.6624515713450554
% es.tEx (V/m) @ t=0.34
-3.975085467316376
% es.tEy (V/m) @ t=0.34
0
% es.tEz (V/m) @ t=0.34
1.6624515713450378
% V (V) @ t=0.34
0.02412931439655418
% es.normE (V/m) @ t=0.36
4.386178963538484
% es.EX (V/m) @ t=0.36
-4.034308402170984
% es.EY (V/m) @ t=0.36
0.31470812865043496
% es.EZ (V/m) @ t=0.36
1.6872218155942478
% es.tEX (V/m) @ t=0.36
-4.034308402170964
% es.tEY (V/m) @ t=0.36
0
% es.tEZ (V/m) @ t=0.36
1.6872218155942207
% es.Ex (V/m) @ t=0.36
-4.034308402170984
% es.Ey (V/m) @ t=0.36
0.31470812865043496
% es.Ez (V/m) @ t=0.36
1.6872218155942478
% es.tEx (V/m) @ t=0.36
-4.034308402170964
% es.tEy (V/m) @ t=0.36
0
% es.tEz (V/m) @ t=0.36
1.6872218155942207
% V (V) @ t=0.36
0.02448867740568583
% es.normE (V/m) @ t=0.38
4.450568279915023
% es.EX (V/m) @ t=0.38
-4.093531337025603
% es.EY (V/m) @ t=0.38
0.31933073025538117
% es.EZ (V/m) @ t=0.38
1.7119920598434681
% es.tEX (V/m) @ t=0.38
-4.093531337025574
% es.tEY (V/m) @ t=0.38
0
% es.tEZ (V/m) @ t=0.38
1.7119920598434533
% es.Ex (V/m) @ t=0.38
-4.093531337025603
% es.Ey (V/m) @ t=0.38
0.31933073025538117
% es.Ez (V/m) @ t=0.38
1.7119920598434681
% es.tEx (V/m) @ t=0.38
-4.093531337025574
% es.tEy (V/m) @ t=0.38
0
% es.tEz (V/m) @ t=0.38
1.7119920598434533
% V (V) @ t=0.38
0.024848040414817474
% es.normE (V/m) @ t=0.4
4.5149575962942095
% es.EX (V/m) @ t=0.4
-4.152754271880227
% es.EY (V/m) @ t=0.4
0.3239533318603276
% es.EZ (V/m) @ t=0.4
1.7367623040926745
% es.tEX (V/m) @ t=0.4
-4.152754271880202
% es.tEY (V/m) @ t=0.4
0
% es.tEZ (V/m) @ t=0.4
1.7367623040926787
% es.Ex (V/m) @ t=0.4
-4.152754271880227
% es.Ey (V/m) @ t=0.4
0.3239533318603276
% es.Ez (V/m) @ t=0.4
1.7367623040926745
% es.tEx (V/m) @ t=0.4
-4.152754271880202
% es.tEy (V/m) @ t=0.4
0
% es.tEz (V/m) @ t=0.4
1.7367623040926787
% V (V) @ t=0.4
0.025207403423949126
% es.normE (V/m) @ t=0.42
4.5793469126759305
% es.EX (V/m) @ t=0.42
-4.211977206734844
% es.EY (V/m) @ t=0.42
0.3285759334652596
% es.EZ (V/m) @ t=0.42
1.7615325483418915
% es.tEX (V/m) @ t=0.42
-4.211977206734822
% es.tEY (V/m) @ t=0.42
0
% es.tEZ (V/m) @ t=0.42
1.761532548341897
% es.Ex (V/m) @ t=0.42
-4.211977206734844
% es.Ey (V/m) @ t=0.42
0.3285759334652596
% es.Ez (V/m) @ t=0.42
1.7615325483418915
% es.tEx (V/m) @ t=0.42
-4.211977206734822
% es.tEy (V/m) @ t=0.42
0
% es.tEz (V/m) @ t=0.42
1.761532548341897
% V (V) @ t=0.42
0.025566766433080774
% es.normE (V/m) @ t=0.44
4.643736229060083
% es.EX (V/m) @ t=0.44
-4.2712001415894605
% es.EY (V/m) @ t=0.44
0.33319853507024155
% es.EZ (V/m) @ t=0.44
1.7863027925911086
% es.tEX (V/m) @ t=0.44
-4.271200141589439
% es.tEY (V/m) @ t=0.44
0
% es.tEZ (V/m) @ t=0.44
1.7863027925911013
% es.Ex (V/m) @ t=0.44
-4.2712001415894605
% es.Ey (V/m) @ t=0.44
0.33319853507024155
% es.Ez (V/m) @ t=0.44
1.7863027925911086
% es.tEx (V/m) @ t=0.44
-4.271200141589439
% es.tEy (V/m) @ t=0.44
0
% es.tEz (V/m) @ t=0.44
1.7863027925911013
% V (V) @ t=0.44
0.025926129442212426
% es.normE (V/m) @ t=0.46
4.70812554544653
% es.EX (V/m) @ t=0.46
-4.330423076444042
% es.EY (V/m) @ t=0.46
0.33782113667520197
% es.EZ (V/m) @ t=0.46
1.8110730368403078
% es.tEX (V/m) @ t=0.46
-4.330423076444024
% es.tEY (V/m) @ t=0.46
0
% es.tEZ (V/m) @ t=0.46
1.8110730368402983
% es.Ex (V/m) @ t=0.46
-4.330423076444042
% es.Ey (V/m) @ t=0.46
0.33782113667520197
% es.Ez (V/m) @ t=0.46
1.8110730368403078
% es.tEx (V/m) @ t=0.46
-4.330423076444024
% es.tEy (V/m) @ t=0.46
0
% es.tEz (V/m) @ t=0.46
1.8110730368402983
% V (V) @ t=0.46
0.02628549245134407
% es.normE (V/m) @ t=0.48
4.772514861835267
% es.EX (V/m) @ t=0.48
-4.389646011298675
% es.EY (V/m) @ t=0.48
0.34244373828016617
% es.EZ (V/m) @ t=0.48
1.8358432810895315
% es.tEX (V/m) @ t=0.48
-4.389646011298666
% es.tEY (V/m) @ t=0.48
0
% es.tEZ (V/m) @ t=0.48
1.8358432810895238
% es.Ex (V/m) @ t=0.48
-4.389646011298675
% es.Ey (V/m) @ t=0.48
0.34244373828016617
% es.Ez (V/m) @ t=0.48
1.8358432810895315
% es.tEx (V/m) @ t=0.48
-4.389646011298666
% es.tEy (V/m) @ t=0.48
0
% es.tEz (V/m) @ t=0.48
1.8358432810895238
% V (V) @ t=0.48
0.02664485546047572
% es.normE (V/m) @ t=0.5
4.836904178226119
% es.EX (V/m) @ t=0.5
-4.448868946153286
% es.EY (V/m) @ t=0.5
0.3470663398850413
% es.EZ (V/m) @ t=0.5
1.8606135253387313
% es.tEX (V/m) @ t=0.5
-4.448868946153251
% es.tEY (V/m) @ t=0.5
0
% es.tEZ (V/m) @ t=0.5
1.8606135253387492
% es.Ex (V/m) @ t=0.5
-4.448868946153286
% es.Ey (V/m) @ t=0.5
0.3470663398850413
% es.Ez (V/m) @ t=0.5
1.8606135253387313
% es.tEx (V/m) @ t=0.5
-4.448868946153251
% es.tEy (V/m) @ t=0.5
0
% es.tEz (V/m) @ t=0.5
1.8606135253387492
% V (V) @ t=0.5
0.02700421846960737
% es.normE (V/m) @ t=0.52
4.901293494619061
% es.EX (V/m) @ t=0.52
-4.5080918810079105
% es.EY (V/m) @ t=0.52
0.3516889414900375
% es.EZ (V/m) @ t=0.52
1.8853837695879514
% es.tEX (V/m) @ t=0.52
-4.508091881007875
% es.tEY (V/m) @ t=0.52
0
% es.tEZ (V/m) @ t=0.52
1.8853837695879747
% es.Ex (V/m) @ t=0.52
-4.5080918810079105
% es.Ey (V/m) @ t=0.52
0.3516889414900375
% es.Ez (V/m) @ t=0.52
1.8853837695879514
% es.tEx (V/m) @ t=0.52
-4.508091881007875
% es.tEy (V/m) @ t=0.52
0
% es.tEz (V/m) @ t=0.52
1.8853837695879747
% V (V) @ t=0.52
0.02736358147873902
% es.normE (V/m) @ t=0.54
4.965682811013957
% es.EX (V/m) @ t=0.54
-4.567314815862513
% es.EY (V/m) @ t=0.54
0.3563115430949555
% es.EZ (V/m) @ t=0.54
1.9101540138371644
% es.tEX (V/m) @ t=0.54
-4.567314815862488
% es.tEY (V/m) @ t=0.54
0
% es.tEZ (V/m) @ t=0.54
1.9101540138371718
% es.Ex (V/m) @ t=0.54
-4.567314815862513
% es.Ey (V/m) @ t=0.54
0.3563115430949555
% es.Ez (V/m) @ t=0.54
1.9101540138371644
% es.tEx (V/m) @ t=0.54
-4.567314815862488
% es.tEy (V/m) @ t=0.54
0
% es.tEz (V/m) @ t=0.54
1.9101540138371718
% V (V) @ t=0.54
0.02772294448787067
% es.normE (V/m) @ t=0.56
5.034651206146312
% es.EX (V/m) @ t=0.56
-4.630751455035844
% es.EY (V/m) @ t=0.56
0.36125688183001947
% es.EZ (V/m) @ t=0.56
1.9366818751229073
% es.tEX (V/m) @ t=0.56
-4.630751455035828
% es.tEY (V/m) @ t=0.56
0
% es.tEZ (V/m) @ t=0.56
1.9366818751229147
% es.Ex (V/m) @ t=0.56
-4.630751455035844
% es.Ey (V/m) @ t=0.56
0.36125688183001947
% es.Ez (V/m) @ t=0.56
1.9366818751229073
% es.tEx (V/m) @ t=0.56
-4.630751455035828
% es.tEy (V/m) @ t=0.56
0
% es.tEz (V/m) @ t=0.56
1.9366818751229147
% V (V) @ t=0.56
0.028108160538591064
% es.normE (V/m) @ t=0.58
5.1041396988952865
% es.EX (V/m) @ t=0.58
-4.69466669212742
% es.EY (V/m) @ t=0.58
0.36623887746049055
% es.EZ (V/m) @ t=0.58
1.9634093687964975
% es.tEX (V/m) @ t=0.58
-4.694666692127402
% es.tEY (V/m) @ t=0.58
0
% es.tEZ (V/m) @ t=0.58
1.9634093687965049
% es.Ex (V/m) @ t=0.58
-4.69466669212742
% es.Ey (V/m) @ t=0.58
0.36623887746049055
% es.Ez (V/m) @ t=0.58
1.9634093687964975
% es.tEx (V/m) @ t=0.58
-4.694666692127402
% es.tEy (V/m) @ t=0.58
0
% es.tEz (V/m) @ t=0.58
1.9634093687965049
% V (V) @ t=0.58
0.028496313010794513
% es.normE (V/m) @ t=0.6
5.173628191649651
% es.EX (V/m) @ t=0.6
-4.758581929218975
% es.EY (V/m) @ t=0.6
0.37122087309091567
% es.EZ (V/m) @ t=0.6
1.9901368624700624
% es.tEX (V/m) @ t=0.6
-4.758581929218966
% es.tEY (V/m) @ t=0.6
0
% es.tEZ (V/m) @ t=0.6
1.9901368624700666
% es.Ex (V/m) @ t=0.6
-4.758581929218975
% es.Ey (V/m) @ t=0.6
0.37122087309091567
% es.Ez (V/m) @ t=0.6
1.9901368624700624
% es.tEx (V/m) @ t=0.6
-4.758581929218966
% es.tEy (V/m) @ t=0.6
0
% es.tEz (V/m) @ t=0.6
1.9901368624700666
% V (V) @ t=0.6
0.02888446548299797
% es.normE (V/m) @ t=0.62
5.2431166844092765
% es.EX (V/m) @ t=0.62
-4.8224971663105745
% es.EY (V/m) @ t=0.62
0.376202868721383
% es.EZ (V/m) @ t=0.62
2.016864356143649
% es.tEX (V/m) @ t=0.62
-4.822497166310555
% es.tEY (V/m) @ t=0.62
0
% es.tEZ (V/m) @ t=0.62
2.0168643561436568
% es.Ex (V/m) @ t=0.62
-4.8224971663105745
% es.Ey (V/m) @ t=0.62
0.376202868721383
% es.Ez (V/m) @ t=0.62
2.016864356143649
% es.tEx (V/m) @ t=0.62
-4.822497166310555
% es.tEy (V/m) @ t=0.62
0
% es.tEz (V/m) @ t=0.62
2.0168643561436568
% V (V) @ t=0.62
0.029272617955201426
% es.normE (V/m) @ t=0.64
5.312605177173886
% es.EX (V/m) @ t=0.64
-4.886412403402158
% es.EY (V/m) @ t=0.64
0.3811848643518827
% es.EZ (V/m) @ t=0.64
2.043591849817221
% es.tEX (V/m) @ t=0.64
-4.886412403402144
% es.tEY (V/m) @ t=0.64
0
% es.tEZ (V/m) @ t=0.64
2.0435918498172185
% es.Ex (V/m) @ t=0.64
-4.886412403402158
% es.Ey (V/m) @ t=0.64
0.3811848643518827
% es.Ez (V/m) @ t=0.64
2.043591849817221
% es.tEx (V/m) @ t=0.64
-4.886412403402144
% es.tEy (V/m) @ t=0.64
0
% es.tEz (V/m) @ t=0.64
2.0435918498172185
% V (V) @ t=0.64
0.02966077042740488
% es.normE (V/m) @ t=0.66
5.382093669943309
% es.EX (V/m) @ t=0.66
-4.950327640493743
% es.EY (V/m) @ t=0.66
0.38616685998235
% es.EZ (V/m) @ t=0.66
2.0703193434908007
% es.tEX (V/m) @ t=0.66
-4.950327640493732
% es.tEY (V/m) @ t=0.66
0
% es.tEZ (V/m) @ t=0.66
2.0703193434907803
% es.Ex (V/m) @ t=0.66
-4.950327640493743
% es.Ey (V/m) @ t=0.66
0.38616685998235
% es.Ez (V/m) @ t=0.66
2.0703193434908007
% es.tEx (V/m) @ t=0.66
-4.950327640493732
% es.tEy (V/m) @ t=0.66
0
% es.tEz (V/m) @ t=0.66
2.0703193434907803
% V (V) @ t=0.66
0.030048922899608334
% es.normE (V/m) @ t=0.68
5.4515821627173535
% es.EX (V/m) @ t=0.68
-5.014242877585328
% es.EY (V/m) @ t=0.68
0.39114885561275736
% es.EZ (V/m) @ t=0.68
2.0970468371643802
% es.tEX (V/m) @ t=0.68
-5.014242877585307
% es.tEY (V/m) @ t=0.68
0
% es.tEZ (V/m) @ t=0.68
2.097046837164399
% es.Ex (V/m) @ t=0.68
-5.014242877585328
% es.Ey (V/m) @ t=0.68
0.39114885561275736
% es.Ez (V/m) @ t=0.68
2.0970468371643802
% es.tEx (V/m) @ t=0.68
-5.014242877585307
% es.tEy (V/m) @ t=0.68
0
% es.tEz (V/m) @ t=0.68
2.097046837164399
% V (V) @ t=0.68
0.03043707537181179
% es.normE (V/m) @ t=0.7
5.521070655495837
% es.EX (V/m) @ t=0.7
-5.0781581146768975
% es.EY (V/m) @ t=0.7
0.3961308512432462
% es.EZ (V/m) @ t=0.7
2.123774330837956
% es.tEX (V/m) @ t=0.7
-5.078158114676885
% es.tEY (V/m) @ t=0.7
0
% es.tEZ (V/m) @ t=0.7
2.1237743308379606
% es.Ex (V/m) @ t=0.7
-5.0781581146768975
% es.Ey (V/m) @ t=0.7
0.3961308512432462
% es.Ez (V/m) @ t=0.7
2.123774330837956
% es.tEx (V/m) @ t=0.7
-5.078158114676885
% es.tEy (V/m) @ t=0.7
0
% es.tEz (V/m) @ t=0.7
2.1237743308379606
% V (V) @ t=0.7
0.030825227844015243
% es.normE (V/m) @ t=0.72
5.590559148278585
% es.EX (V/m) @ t=0.72
-5.142073351768444
% es.EY (V/m) @ t=0.72
0.40111284687372084
% es.EZ (V/m) @ t=0.72
2.1505018245115286
% es.tEX (V/m) @ t=0.72
-5.142073351768431
% es.tEY (V/m) @ t=0.72
0
% es.tEZ (V/m) @ t=0.72
2.1505018245115224
% es.Ex (V/m) @ t=0.72
-5.142073351768444
% es.Ey (V/m) @ t=0.72
0.40111284687372084
% es.Ez (V/m) @ t=0.72
2.1505018245115286
% es.tEx (V/m) @ t=0.72
-5.142073351768431
% es.tEy (V/m) @ t=0.72
0
% es.tEz (V/m) @ t=0.72
2.1505018245115224
% V (V) @ t=0.72
0.031213380316218696
% es.normE (V/m) @ t=0.74
5.660615404714238
% es.EX (V/m) @ t=0.74
-5.206510557369377
% es.EY (V/m) @ t=0.74
0.40613630959692215
% es.EZ (V/m) @ t=0.74
2.177448197011608
% es.tEX (V/m) @ t=0.74
-5.206510557369352
% es.tEY (V/m) @ t=0.74
0
% es.tEZ (V/m) @ t=0.74
2.1774481970116
% es.Ex (V/m) @ t=0.74
-5.206510557369377
% es.Ey (V/m) @ t=0.74
0.40613630959692215
% es.Ez (V/m) @ t=0.74
2.177448197011608
% es.tEx (V/m) @ t=0.74
-5.206510557369352
% es.tEy (V/m) @ t=0.74
0
% es.tEz (V/m) @ t=0.74
2.1774481970116
% V (V) @ t=0.74
0.03160466658424388
% es.normE (V/m) @ t=0.76
5.734086334112401
% es.EX (V/m) @ t=0.76
-5.274087012478443
% es.EY (V/m) @ t=0.76
0.411409165814526
% es.EZ (V/m) @ t=0.76
2.2057109616620147
% es.tEX (V/m) @ t=0.76
-5.274087012478429
% es.tEY (V/m) @ t=0.76
0
% es.tEZ (V/m) @ t=0.76
2.2057109616620068
% es.Ex (V/m) @ t=0.76
-5.274087012478443
% es.Ey (V/m) @ t=0.76
0.411409165814526
% es.Ez (V/m) @ t=0.76
2.2057109616620147
% es.tEx (V/m) @ t=0.76
-5.274087012478429
% es.tEy (V/m) @ t=0.76
0
% es.tEz (V/m) @ t=0.76
2.2057109616620068
% V (V) @ t=0.76
0.032014800286196334
% es.normE (V/m) @ t=0.78
5.8075572635111
% es.EX (V/m) @ t=0.78
-5.3416634675874235
% es.EY (V/m) @ t=0.78
0.416682022032151
% es.EZ (V/m) @ t=0.78
2.233973726312362
% es.tEX (V/m) @ t=0.78
-5.341663467587381
% es.tEY (V/m) @ t=0.78
0
% es.tEZ (V/m) @ t=0.78
2.233973726312371
% es.Ex (V/m) @ t=0.78
-5.3416634675874235
% es.Ey (V/m) @ t=0.78
0.416682022032151
% es.Ez (V/m) @ t=0.78
2.233973726312362
% es.tEx (V/m) @ t=0.78
-5.341663467587381
% es.tEy (V/m) @ t=0.78
0
% es.tEz (V/m) @ t=0.78
2.233973726312371
% V (V) @ t=0.78
0.032424933988148795
% es.normE (V/m) @ t=0.8
5.881028192910486
% es.EX (V/m) @ t=0.8
-5.409239922696454
% es.EY (V/m) @ t=0.8
0.42195487824977573
% es.EZ (V/m) @ t=0.8
2.262236490962783
% es.tEX (V/m) @ t=0.8
-5.409239922696436
% es.tEY (V/m) @ t=0.8
0
% es.tEZ (V/m) @ t=0.8
2.2622364909627777
% es.Ex (V/m) @ t=0.8
-5.409239922696454
% es.Ey (V/m) @ t=0.8
0.42195487824977573
% es.Ez (V/m) @ t=0.8
2.262236490962783
% es.tEx (V/m) @ t=0.8
-5.409239922696436
% es.tEy (V/m) @ t=0.8
0
% es.tEz (V/m) @ t=0.8
2.2622364909627777
% V (V) @ t=0.8
0.03283506769010124
% es.normE (V/m) @ t=0.82
5.954499122310448
% es.EX (V/m) @ t=0.82
-5.476816377805493
% es.EY (V/m) @ t=0.82
0.42722773446741513
% es.EZ (V/m) @ t=0.82
2.2904992556131436
% es.tEX (V/m) @ t=0.82
-5.47681637780547
% es.tEY (V/m) @ t=0.82
0
% es.tEZ (V/m) @ t=0.82
2.290499255613156
% es.Ex (V/m) @ t=0.82
-5.476816377805493
% es.Ey (V/m) @ t=0.82
0.42722773446741513
% es.Ez (V/m) @ t=0.82
2.2904992556131436
% es.tEx (V/m) @ t=0.82
-5.47681637780547
% es.tEy (V/m) @ t=0.82
0
% es.tEz (V/m) @ t=0.82
2.290499255613156
% V (V) @ t=0.82
0.033245201392053704
% es.normE (V/m) @ t=0.84
6.027970051710954
% es.EX (V/m) @ t=0.84
-5.544392832914503
% es.EY (V/m) @ t=0.84
0.4325005906850401
% es.EZ (V/m) @ t=0.84
2.3187620202635193
% es.tEX (V/m) @ t=0.84
-5.544392832914497
% es.tEY (V/m) @ t=0.84
0
% es.tEZ (V/m) @ t=0.84
2.3187620202635344
% es.Ex (V/m) @ t=0.84
-5.544392832914503
% es.Ey (V/m) @ t=0.84
0.4325005906850401
% es.Ez (V/m) @ t=0.84
2.3187620202635193
% es.tEx (V/m) @ t=0.84
-5.544392832914497
% es.tEy (V/m) @ t=0.84
0
% es.tEz (V/m) @ t=0.84
2.3187620202635344
% V (V) @ t=0.84
0.03365533509400617
% es.normE (V/m) @ t=0.86
6.1014409811120265
% es.EX (V/m) @ t=0.86
-5.611969288023524
% es.EY (V/m) @ t=0.86
0.43777344690269326
% es.EZ (V/m) @ t=0.86
2.3470247849139048
% es.tEX (V/m) @ t=0.86
-5.611969288023516
% es.tEY (V/m) @ t=0.86
0
% es.tEZ (V/m) @ t=0.86
2.34702478491387
% es.Ex (V/m) @ t=0.86
-5.611969288023524
% es.Ey (V/m) @ t=0.86
0.43777344690269326
% es.Ez (V/m) @ t=0.86
2.3470247849139048
% es.tEx (V/m) @ t=0.86
-5.611969288023516
% es.tEy (V/m) @ t=0.86
0
% es.tEz (V/m) @ t=0.86
2.34702478491387
% V (V) @ t=0.86
0.03406546879595862
% es.normE (V/m) @ t=0.88
6.174911910513629
% es.EX (V/m) @ t=0.88
-5.679545743132549
% es.EY (V/m) @ t=0.88
0.4430463031202969
% es.EZ (V/m) @ t=0.88
2.375287549564298
% es.tEX (V/m) @ t=0.88
-5.679545743132543
% es.tEY (V/m) @ t=0.88
0
% es.tEZ (V/m) @ t=0.88
2.375287549564291
% es.Ex (V/m) @ t=0.88
-5.679545743132549
% es.Ey (V/m) @ t=0.88
0.4430463031202969
% es.Ez (V/m) @ t=0.88
2.375287549564298
% es.tEx (V/m) @ t=0.88
-5.679545743132543
% es.tEy (V/m) @ t=0.88
0
% es.tEz (V/m) @ t=0.88
2.375287549564291
% V (V) @ t=0.88
0.03447560249791108
% es.normE (V/m) @ t=0.9
6.248382839915763
% es.EX (V/m) @ t=0.9
-5.747122198241588
% es.EY (V/m) @ t=0.9
0.448319159337915
% es.EZ (V/m) @ t=0.9
2.403550314214712
% es.tEX (V/m) @ t=0.9
-5.747122198241549
% es.tEY (V/m) @ t=0.9
0
% es.tEZ (V/m) @ t=0.9
2.403550314214712
% es.Ex (V/m) @ t=0.9
-5.747122198241588
% es.Ey (V/m) @ t=0.9
0.448319159337915
% es.Ez (V/m) @ t=0.9
2.403550314214712
% es.tEx (V/m) @ t=0.9
-5.747122198241549
% es.tEy (V/m) @ t=0.9
0
% es.tEz (V/m) @ t=0.9
2.403550314214712
% V (V) @ t=0.9
0.03488573619986353
% es.normE (V/m) @ t=0.92
6.321853769318398
% es.EX (V/m) @ t=0.92
-5.814698653350649
% es.EY (V/m) @ t=0.92
0.45359201555555395
% es.EZ (V/m) @ t=0.92
2.4318130788650976
% es.tEX (V/m) @ t=0.92
-5.814698653350611
% es.tEY (V/m) @ t=0.92
0
% es.tEZ (V/m) @ t=0.92
2.4318130788651047
% es.Ex (V/m) @ t=0.92
-5.814698653350649
% es.Ey (V/m) @ t=0.92
0.45359201555555395
% es.Ez (V/m) @ t=0.92
2.4318130788650976
% es.tEx (V/m) @ t=0.92
-5.814698653350611
% es.tEy (V/m) @ t=0.92
0
% es.tEz (V/m) @ t=0.92
2.4318130788651047
% V (V) @ t=0.92
0.035295869901816
% es.normE (V/m) @ t=0.94
6.396269935921344
% es.EX (V/m) @ t=0.94
-5.883145121097951
% es.EY (V/m) @ t=0.94
0.4589309072029155
% es.EZ (V/m) @ t=0.94
2.4604382778470013
% es.tEX (V/m) @ t=0.94
-5.883145121097918
% es.tEY (V/m) @ t=0.94
0
% es.tEZ (V/m) @ t=0.94
2.460438277847004
% es.Ex (V/m) @ t=0.94
-5.883145121097951
% es.Ey (V/m) @ t=0.94
0.4589309072029155
% es.Ez (V/m) @ t=0.94
2.4604382778470013
% es.tEx (V/m) @ t=0.94
-5.883145121097918
% es.tEy (V/m) @ t=0.94
0
% es.tEz (V/m) @ t=0.94
2.460438277847004
% V (V) @ t=0.94
0.035711369186205245
% es.normE (V/m) @ t=0.96
6.472182517258069
% es.EX (V/m) @ t=0.96
-5.952968914799857
% es.EY (V/m) @ t=0.96
0.4643743402181353
% es.EZ (V/m) @ t=0.96
2.4896372503463677
% es.tEX (V/m) @ t=0.96
-5.952968914799811
% es.tEY (V/m) @ t=0.96
0
% es.tEZ (V/m) @ t=0.96
2.4896372503463766
% es.Ex (V/m) @ t=0.96
-5.952968914799857
% es.Ey (V/m) @ t=0.96
0.4643743402181353
% es.Ez (V/m) @ t=0.96
2.4896372503463677
% es.tEx (V/m) @ t=0.96
-5.952968914799811
% es.tEy (V/m) @ t=0.96
0
% es.tEz (V/m) @ t=0.96
2.4896372503463766
% V (V) @ t=0.96
0.03613536277932786
% es.normE (V/m) @ t=0.98
6.5480950985975905
% es.EX (V/m) @ t=0.98
-6.022792708501794
% es.EY (V/m) @ t=0.98
0.46981777323336305
% es.EZ (V/m) @ t=0.98
2.518836222845762
% es.tEX (V/m) @ t=0.98
-6.022792708501775
% es.tEY (V/m) @ t=0.98
0
% es.tEZ (V/m) @ t=0.98
2.518836222845735
% es.Ex (V/m) @ t=0.98
-6.022792708501794
% es.Ey (V/m) @ t=0.98
0.46981777323336305
% es.Ez (V/m) @ t=0.98
2.518836222845762
% es.tEx (V/m) @ t=0.98
-6.022792708501775
% es.tEy (V/m) @ t=0.98
0
% es.tEz (V/m) @ t=0.98
2.518836222845735
% V (V) @ t=0.98
0.03655935637245048
% es.normE (V/m) @ t=1
6.6240076799397585
% es.EX (V/m) @ t=1
-6.09261650220373
% es.EY (V/m) @ t=1
0.475261206248619
% es.EZ (V/m) @ t=1
2.548035195345114
% es.tEX (V/m) @ t=1
-6.092616502203697
% es.tEY (V/m) @ t=1
0
% es.tEZ (V/m) @ t=1
2.548035195345122
% es.Ex (V/m) @ t=1
-6.09261650220373
% es.Ey (V/m) @ t=1
0.475261206248619
% es.Ez (V/m) @ t=1
2.548035195345114
% es.tEx (V/m) @ t=1
-6.092616502203697
% es.tEy (V/m) @ t=1
0
% es.tEz (V/m) @ t=1
2.548035195345122
% V (V) @ t=1
0.03698334996557309
% es.normE (V/m) @ t=1.02
6.699920261284486
% es.EX (V/m) @ t=1.02
-6.162440295905654
% es.EY (V/m) @ t=1.02
0.48070463926387474
% es.EZ (V/m) @ t=1.02
2.577234167844466
% es.tEX (V/m) @ t=1.02
-6.162440295905611
% es.tEY (V/m) @ t=1.02
0
% es.tEZ (V/m) @ t=1.02
2.577234167844466
% es.Ex (V/m) @ t=1.02
-6.162440295905654
% es.Ey (V/m) @ t=1.02
0.48070463926387474
% es.Ez (V/m) @ t=1.02
2.577234167844466
% es.tEx (V/m) @ t=1.02
-6.162440295905611
% es.tEy (V/m) @ t=1.02
0
% es.tEz (V/m) @ t=1.02
2.577234167844466
% V (V) @ t=1.02
0.03740734355869571
% es.normE (V/m) @ t=1.04
6.775832842631731
% es.EX (V/m) @ t=1.04
-6.2322640896076
% es.EY (V/m) @ t=1.04
0.48614807227907364
% es.EZ (V/m) @ t=1.04
2.606433140343861
% es.tEX (V/m) @ t=1.04
-6.232264089607575
% es.tEY (V/m) @ t=1.04
0
% es.tEZ (V/m) @ t=1.04
2.606433140343853
% es.Ex (V/m) @ t=1.04
-6.2322640896076
% es.Ey (V/m) @ t=1.04
0.48614807227907364
% es.Ez (V/m) @ t=1.04
2.606433140343861
% es.tEx (V/m) @ t=1.04
-6.232264089607575
% es.tEy (V/m) @ t=1.04
0