% Model:              1 neuron.mph
% Version:            COMSOL 6.1.0.252
% Date:               Mar 18 2023, 13:59
% Dimension:          0
% Nodes:              14017
% Expressions:        14017
% Description:        Electric field norm, Electric field, X component, Electric field, Y component, Electric field, Z component, Tangential electric field, X component, Tangential electric field, Y component, Tangential electric field, Z component, Electric field, x component, Electric field, y component, Electric field, z component, Tangential electric field, x component, Tangential electric field, y component, Tangential electric field, z component, Electric potential
% Length unit:        mm
% x
1.3300000000000003
% y
12.200000000000001
% z
1.66
% es.normE (V/m) @ t=0
20.64126423544773
% es.EX (V/m) @ t=0
13.098780914050941
% es.EY (V/m) @ t=0
3.9169357918441285
% es.EZ (V/m) @ t=0
-14.348238461815914
% es.tEX (V/m) @ t=0
13.098780914050904
% es.tEY (V/m) @ t=0
0
% es.tEZ (V/m) @ t=0
-14.348238461815884
% es.Ex (V/m) @ t=0
13.098780914050941
% es.Ey (V/m) @ t=0
3.9169357918441285
% es.Ez (V/m) @ t=0
-14.348238461815914
% es.tEx (V/m) @ t=0
13.098780914050904
% es.tEy (V/m) @ t=0
0
% es.tEz (V/m) @ t=0
-14.348238461815884
% V (V) @ t=0
0.017681632897404903
% es.normE (V/m) @ t=0.02
19.34380443508538
% es.EX (V/m) @ t=0.02
12.275566671515861
% es.EY (V/m) @ t=0.02
3.67082325596141
% es.EZ (V/m) @ t=0.02
-13.44626730810517
% es.tEX (V/m) @ t=0.02
12.27556667151584
% es.tEY (V/m) @ t=0.02
0
% es.tEZ (V/m) @ t=0.02
-13.446267308105142
% es.Ex (V/m) @ t=0.02
12.275566671515861
% es.Ey (V/m) @ t=0.02
3.67082325596141
% es.Ez (V/m) @ t=0.02
-13.44626730810517
% es.tEx (V/m) @ t=0.02
12.27556667151584
% es.tEy (V/m) @ t=0.02
0
% es.tEz (V/m) @ t=0.02
-13.446267308105142
% V (V) @ t=0.02
0.01656948466484922
% es.normE (V/m) @ t=0.04
19.62547174571892
% es.EX (V/m) @ t=0.04
12.454312593182266
% es.EY (V/m) @ t=0.04
3.7242745355403404
% es.EZ (V/m) @ t=0.04
-13.642059909300887
% es.tEX (V/m) @ t=0.04
12.45431259318223
% es.tEY (V/m) @ t=0.04
0
% es.tEZ (V/m) @ t=0.04
-13.642059909300857
% es.Ex (V/m) @ t=0.04
12.454312593182266
% es.Ey (V/m) @ t=0.04
3.7242745355403404
% es.Ez (V/m) @ t=0.04
-13.642059909300887
% es.tEx (V/m) @ t=0.04
12.45431259318223
% es.tEy (V/m) @ t=0.04
0
% es.tEz (V/m) @ t=0.04
-13.642059909300857
% V (V) @ t=0.04
0.016810754719521665
% es.normE (V/m) @ t=0.06
19.91117741686825
% es.EX (V/m) @ t=0.06
12.63562150520157
% es.EY (V/m) @ t=0.06
3.778492329747765
% es.EZ (V/m) @ t=0.06
-13.840659523901692
% es.tEX (V/m) @ t=0.06
12.635621505201556
% es.tEY (V/m) @ t=0.06
0
% es.tEZ (V/m) @ t=0.06
-13.840659523901676
% es.Ex (V/m) @ t=0.06
12.63562150520157
% es.Ey (V/m) @ t=0.06
3.778492329747765
% es.Ez (V/m) @ t=0.06
-13.840659523901692
% es.tEx (V/m) @ t=0.06
12.635621505201556
% es.tEy (V/m) @ t=0.06
0
% es.tEz (V/m) @ t=0.06
-13.840659523901676
% V (V) @ t=0.06
0.017055482711685083
% es.normE (V/m) @ t=0.08
20.202856847128388
% es.EX (V/m) @ t=0.08
12.820722009661111
% es.EY (V/m) @ t=0.08
3.8338441776542957
% es.EZ (V/m) @ t=0.08
-14.043411274172346
% es.tEX (V/m) @ t=0.08
12.820722009661083
% es.tEY (V/m) @ t=0.08
0
% es.tEZ (V/m) @ t=0.08
-14.043411274172318
% es.Ex (V/m) @ t=0.08
12.820722009661111
% es.Ey (V/m) @ t=0.08
3.8338441776542957
% es.Ez (V/m) @ t=0.08
-14.043411274172346
% es.tEx (V/m) @ t=0.08
12.820722009661083
% es.tEy (V/m) @ t=0.08
0
% es.tEz (V/m) @ t=0.08
-14.043411274172318
% V (V) @ t=0.08
0.0173053244910902
% es.normE (V/m) @ t=0.1
20.494536277388693
% es.EX (V/m) @ t=0.1
13.00582251412062
% es.EY (V/m) @ t=0.1
3.889196025560869
% es.EZ (V/m) @ t=0.1
-14.246163024442994
% es.tEX (V/m) @ t=0.1
13.005822514120583
% es.tEY (V/m) @ t=0.1
0
% es.tEZ (V/m) @ t=0.1
-14.246163024442964
% es.Ex (V/m) @ t=0.1
13.00582251412062
% es.Ey (V/m) @ t=0.1
3.889196025560869
% es.Ez (V/m) @ t=0.1
-14.246163024442994
% es.tEx (V/m) @ t=0.1
13.005822514120583
% es.tEy (V/m) @ t=0.1
0
% es.tEz (V/m) @ t=0.1
-14.246163024442964
% V (V) @ t=0.1
0.01755516627049532
% es.normE (V/m) @ t=0.12
20.796790951782057
% es.EX (V/m) @ t=0.12
13.197638812161012
% es.EY (V/m) @ t=0.12
3.946557836087875
% es.EZ (V/m) @ t=0.12
-14.456263314543197
% es.tEX (V/m) @ t=0.12
13.197638812160974
% es.tEY (V/m) @ t=0.12
0
% es.tEZ (V/m) @ t=0.12
-14.456263314543152
% es.Ex (V/m) @ t=0.12
13.197638812161012
% es.Ey (V/m) @ t=0.12
3.946557836087875
% es.Ez (V/m) @ t=0.12
-14.456263314543197
% es.tEx (V/m) @ t=0.12
13.197638812160974
% es.tEy (V/m) @ t=0.12
0
% es.tEz (V/m) @ t=0.12
-14.456263314543152
% V (V) @ t=0.12
0.017814043143802145
% es.normE (V/m) @ t=0.14
21.10598954531271
% es.EX (V/m) @ t=0.14
13.393864836058352
% es.EY (V/m) @ t=0.14
4.0052394287123665
% es.EZ (V/m) @ t=0.14
-14.671188804481066
% es.tEX (V/m) @ t=0.14
13.393864836058315
% es.tEY (V/m) @ t=0.14
0
% es.tEZ (V/m) @ t=0.14
-14.671188804481037
% es.Ex (V/m) @ t=0.14
13.393864836058352
% es.Ey (V/m) @ t=0.14
4.0052394287123665
% es.Ez (V/m) @ t=0.14
-14.671188804481066
% es.tEx (V/m) @ t=0.14
13.393864836058315
% es.tEy (V/m) @ t=0.14
0
% es.tEz (V/m) @ t=0.14
-14.671188804481037
% V (V) @ t=0.14
0.018078852642452185
% es.normE (V/m) @ t=0.16
21.415188138856337
% es.EX (V/m) @ t=0.16
13.590090859955648
% es.EY (V/m) @ t=0.16
4.063921021336878
% es.EZ (V/m) @ t=0.16
-14.88611429441898
% es.tEX (V/m) @ t=0.16
13.59009085995564
% es.tEY (V/m) @ t=0.16
0
% es.tEZ (V/m) @ t=0.16
-14.886114294418949
% es.Ex (V/m) @ t=0.16
13.590090859955648
% es.Ey (V/m) @ t=0.16
4.063921021336878
% es.Ez (V/m) @ t=0.16
-14.88611429441898
% es.tEx (V/m) @ t=0.16
13.59009085995564
% es.tEy (V/m) @ t=0.16
0
% es.tEz (V/m) @ t=0.16
-14.886114294418949
% V (V) @ t=0.16
0.018343662141102224
% es.normE (V/m) @ t=0.18
21.72438673241226
% es.EX (V/m) @ t=0.18
13.786316883852965
% es.EY (V/m) @ t=0.18
4.122602613961263
% es.EZ (V/m) @ t=0.18
-15.101039784356864
% es.tEX (V/m) @ t=0.18
13.78631688385292
% es.tEY (V/m) @ t=0.18
0
% es.tEZ (V/m) @ t=0.18
-15.10103978435682
% es.Ex (V/m) @ t=0.18
13.786316883852965
% es.Ey (V/m) @ t=0.18
4.122602613961263
% es.Ez (V/m) @ t=0.18
-15.101039784356864
% es.tEx (V/m) @ t=0.18
13.78631688385292
% es.tEy (V/m) @ t=0.18
0
% es.tEz (V/m) @ t=0.18
-15.10103978435682
% V (V) @ t=0.18
0.01860847163975226
% es.normE (V/m) @ t=0.2
22.03358532598007
% es.EX (V/m) @ t=0.2
13.982542907750233
% es.EY (V/m) @ t=0.2
4.1812842065858025
% es.EZ (V/m) @ t=0.2
-15.31596527429479
% es.tEX (V/m) @ t=0.2
13.982542907750203
% es.tEY (V/m) @ t=0.2
0
% es.tEZ (V/m) @ t=0.2
-15.315965274294747
% es.Ex (V/m) @ t=0.2
13.982542907750233
% es.Ey (V/m) @ t=0.2
4.1812842065858025
% es.Ez (V/m) @ t=0.2
-15.31596527429479
% es.tEx (V/m) @ t=0.2
13.982542907750203
% es.tEy (V/m) @ t=0.2
0
% es.tEz (V/m) @ t=0.2
-15.315965274294747
% V (V) @ t=0.2
0.018873281138402295
% es.normE (V/m) @ t=0.22
22.346529895726047
% es.EX (V/m) @ t=0.22
14.181140655752367
% es.EY (V/m) @ t=0.22
4.240673008071891
% es.EZ (V/m) @ t=0.22
-15.533497565849899
% es.tEX (V/m) @ t=0.22
14.181140655752294
% es.tEY (V/m) @ t=0.22
0
% es.tEZ (V/m) @ t=0.22
-15.53349756584987
% es.Ex (V/m) @ t=0.22
14.181140655752367
% es.Ey (V/m) @ t=0.22
4.240673008071891
% es.Ez (V/m) @ t=0.22
-15.533497565849899
% es.tEx (V/m) @ t=0.22
14.181140655752294
% es.tEy (V/m) @ t=0.22
0
% es.tEz (V/m) @ t=0.22
-15.53349756584987
% V (V) @ t=0.22
0.019141326575180022
% es.normE (V/m) @ t=0.24
22.673497024346055
% es.EX (V/m) @ t=0.24
14.38861663450788
% es.EY (V/m) @ t=0.24
4.302709150979936
% es.EZ (V/m) @ t=0.24
-15.76078806926406
% es.tEX (V/m) @ t=0.24
14.388616634507864
% es.tEY (V/m) @ t=0.24
0
% es.tEZ (V/m) @ t=0.24
-15.760788069264017
% es.Ex (V/m) @ t=0.24
14.38861663450788
% es.Ey (V/m) @ t=0.24
4.302709150979936
% es.Ez (V/m) @ t=0.24
-15.76078806926406
% es.tEx (V/m) @ t=0.24
14.388616634507864
% es.tEy (V/m) @ t=0.24
0
% es.tEz (V/m) @ t=0.24
-15.760788069264017
% V (V) @ t=0.24
0.019421485311874445
% es.normE (V/m) @ t=0.26
23.000464153017887
% es.EX (V/m) @ t=0.26
14.596092613263437
% es.EY (V/m) @ t=0.26
4.36474529388788
% es.EZ (V/m) @ t=0.26
-15.988078572678166
% es.tEX (V/m) @ t=0.26
14.596092613263393
% es.tEY (V/m) @ t=0.26
0
% es.tEZ (V/m) @ t=0.26
-15.988078572678122
% es.Ex (V/m) @ t=0.26
14.596092613263437
% es.Ey (V/m) @ t=0.26
4.36474529388788
% es.Ez (V/m) @ t=0.26
-15.988078572678166
% es.tEx (V/m) @ t=0.26
14.596092613263393
% es.tEy (V/m) @ t=0.26
0
% es.tEz (V/m) @ t=0.26
-15.988078572678122
% V (V) @ t=0.26
0.01970164404856887
% es.normE (V/m) @ t=0.28
23.327431281739322
% es.EX (V/m) @ t=0.28
14.803568592018951
% es.EY (V/m) @ t=0.28
4.426781436795947
% es.EZ (V/m) @ t=0.28
-16.21536907609227
% es.tEX (V/m) @ t=0.28
14.803568592018921
% es.tEY (V/m) @ t=0.28
0
% es.tEZ (V/m) @ t=0.28
-16.21536907609224
% es.Ex (V/m) @ t=0.28
14.803568592018951
% es.Ey (V/m) @ t=0.28
4.426781436795947
% es.Ez (V/m) @ t=0.28
-16.21536907609227
% es.tEx (V/m) @ t=0.28
14.803568592018921
% es.tEy (V/m) @ t=0.28
0
% es.tEz (V/m) @ t=0.28
-16.21536907609224
% V (V) @ t=0.28
0.01998180278526329
% es.normE (V/m) @ t=0.3
23.654398410508435
% es.EX (V/m) @ t=0.3
15.01104457077449
% es.EY (V/m) @ t=0.3
4.488817579703943
% es.EZ (V/m) @ t=0.3
-16.4426595795064
% es.tEX (V/m) @ t=0.3
15.011044570774475
% es.tEY (V/m) @ t=0.3
0
% es.tEZ (V/m) @ t=0.3
-16.442659579506373
% es.Ex (V/m) @ t=0.3
15.01104457077449
% es.Ey (V/m) @ t=0.3
4.488817579703943
% es.Ez (V/m) @ t=0.3
-16.4426595795064
% es.tEx (V/m) @ t=0.3
15.011044570774475
% es.tEy (V/m) @ t=0.3
0
% es.tEz (V/m) @ t=0.3
-16.442659579506373
% V (V) @ t=0.3
0.02026196152195771
% es.normE (V/m) @ t=0.32
23.981365539323107
% es.EX (V/m) @ t=0.32
15.218520549530046
% es.EY (V/m) @ t=0.32
4.550853722611917
% es.EZ (V/m) @ t=0.32
-16.66995008292049
% es.tEX (V/m) @ t=0.32
15.218520549530016
% es.tEY (V/m) @ t=0.32
0
% es.tEZ (V/m) @ t=0.32
-16.669950082920447
% es.Ex (V/m) @ t=0.32
15.218520549530046
% es.Ey (V/m) @ t=0.32
4.550853722611917
% es.Ez (V/m) @ t=0.32
-16.66995008292049
% es.tEx (V/m) @ t=0.32
15.218520549530016
% es.tEy (V/m) @ t=0.32
0
% es.tEz (V/m) @ t=0.32
-16.669950082920447
% V (V) @ t=0.32
0.020542120258652135
% es.normE (V/m) @ t=0.34
24.336951104063957
% es.EX (V/m) @ t=0.34
15.44423008997849
% es.EY (V/m) @ t=0.34
4.618369267081935
% es.EZ (V/m) @ t=0.34
-16.917095557162313
% es.tEX (V/m) @ t=0.34
15.444230089978417
% es.tEY (V/m) @ t=0.34
0
% es.tEZ (V/m) @ t=0.34
-16.917095557162284
% es.Ex (V/m) @ t=0.34
15.44423008997849
% es.Ey (V/m) @ t=0.34
4.618369267081935
% es.Ez (V/m) @ t=0.34
-16.917095557162313
% es.tEx (V/m) @ t=0.34
15.444230089978417
% es.tEy (V/m) @ t=0.34
0
% es.tEz (V/m) @ t=0.34
-16.917095557162284
% V (V) @ t=0.34
0.02084643255029013
% es.normE (V/m) @ t=0.36
24.698903973462006
% es.EX (V/m) @ t=0.36
15.673996408012355
% es.EY (V/m) @ t=0.36
4.687103921335044
% es.EZ (V/m) @ t=0.36
-17.168658555636135
% es.tEX (V/m) @ t=0.36
15.67399640801234
% es.tEY (V/m) @ t=0.36
0
% es.tEZ (V/m) @ t=0.36
-17.168658555636092
% es.Ex (V/m) @ t=0.36
15.673996408012355
% es.Ey (V/m) @ t=0.36
4.687103921335044
% es.Ez (V/m) @ t=0.36
-17.168658555636135
% es.tEx (V/m) @ t=0.36
15.67399640801234
% es.tEy (V/m) @ t=0.36
0
% es.tEz (V/m) @ t=0.36
-17.168658555636092
% V (V) @ t=0.36
0.021156118756358838
% es.normE (V/m) @ t=0.38
25.060856843612207
% es.EX (V/m) @ t=0.38
15.903762726046208
% es.EY (V/m) @ t=0.38
4.755838575588111
% es.EZ (V/m) @ t=0.38
-17.420221554109983
% es.tEX (V/m) @ t=0.38
15.903762726046178
% es.tEY (V/m) @ t=0.38
0
% es.tEZ (V/m) @ t=0.38
-17.42022155410994
% es.Ex (V/m) @ t=0.38
15.903762726046208
% es.Ey (V/m) @ t=0.38
4.755838575588111
% es.Ez (V/m) @ t=0.38
-17.420221554109983
% es.tEx (V/m) @ t=0.38
15.903762726046178
% es.tEy (V/m) @ t=0.38
0
% es.tEz (V/m) @ t=0.38
-17.42022155410994
% V (V) @ t=0.38
0.021465804962427556
% es.normE (V/m) @ t=0.4
25.422809714482412
% es.EX (V/m) @ t=0.4
16.13352904408007
% es.EY (V/m) @ t=0.4
4.824573229841191
% es.EZ (V/m) @ t=0.4
-17.6717845525838
% es.tEX (V/m) @ t=0.4
16.13352904408003
% es.tEY (V/m) @ t=0.4
0
% es.tEZ (V/m) @ t=0.4
-17.671784552583787
% es.Ex (V/m) @ t=0.4
16.13352904408007
% es.Ey (V/m) @ t=0.4
4.824573229841191
% es.Ez (V/m) @ t=0.4
-17.6717845525838
% es.tEx (V/m) @ t=0.4
16.13352904408003
% es.tEy (V/m) @ t=0.4
0
% es.tEz (V/m) @ t=0.4
-17.671784552583787
% V (V) @ t=0.4
0.02177549116849627
% es.normE (V/m) @ t=0.42
25.784762586042305
% es.EX (V/m) @ t=0.42
16.36329536211396
% es.EY (V/m) @ t=0.42
4.893307884094237
% es.EZ (V/m) @ t=0.42
-17.92334755105764
% es.tEX (V/m) @ t=0.42
16.363295362113924
% es.tEY (V/m) @ t=0.42
0
% es.tEZ (V/m) @ t=0.42
-17.923347551057592
% es.Ex (V/m) @ t=0.42
16.36329536211396
% es.Ey (V/m) @ t=0.42
4.893307884094237
% es.Ez (V/m) @ t=0.42
-17.92334755105764
% es.tEx (V/m) @ t=0.42
16.363295362113924
% es.tEy (V/m) @ t=0.42
0
% es.tEz (V/m) @ t=0.42
-17.923347551057592
% V (V) @ t=0.42
0.02208517737456498
% es.normE (V/m) @ t=0.44
26.146715458263316
% es.EX (V/m) @ t=0.44
16.593061680147855
% es.EY (V/m) @ t=0.44
4.962042538347317
% es.EZ (V/m) @ t=0.44
-18.174910549531486
% es.tEX (V/m) @ t=0.44
16.59306168014782
% es.tEY (V/m) @ t=0.44
0
% es.tEZ (V/m) @ t=0.44
-18.17491054953143
% es.Ex (V/m) @ t=0.44
16.593061680147855
% es.Ey (V/m) @ t=0.44
4.962042538347317
% es.Ez (V/m) @ t=0.44
-18.174910549531486
% es.tEx (V/m) @ t=0.44
16.59306168014782
% es.tEy (V/m) @ t=0.44
0
% es.tEz (V/m) @ t=0.44
-18.17491054953143
% V (V) @ t=0.44
0.022394863580633695
% es.normE (V/m) @ t=0.46
26.50866833111825
% es.EX (V/m) @ t=0.46
16.822827998181744
% es.EY (V/m) @ t=0.46
5.030777192600334
% es.EZ (V/m) @ t=0.46
-18.42647354800532
% es.tEX (V/m) @ t=0.46
16.822827998181715
% es.tEY (V/m) @ t=0.46
0
% es.tEZ (V/m) @ t=0.46
-18.426473548005276
% es.Ex (V/m) @ t=0.46
16.822827998181744
% es.Ey (V/m) @ t=0.46
5.030777192600334
% es.Ez (V/m) @ t=0.46
-18.42647354800532
% es.tEx (V/m) @ t=0.46
16.822827998181715
% es.tEy (V/m) @ t=0.46
0
% es.tEz (V/m) @ t=0.46
-18.426473548005276
% V (V) @ t=0.46
0.022704549786702406
% es.normE (V/m) @ t=0.48
26.87062120458149
% es.EX (V/m) @ t=0.48
17.05259431621561
% es.EY (V/m) @ t=0.48
5.099511846853372
% es.EZ (V/m) @ t=0.48
-18.678036546479127
% es.tEX (V/m) @ t=0.48
17.05259431621561
% es.tEY (V/m) @ t=0.48
0
% es.tEZ (V/m) @ t=0.48
-18.678036546479095
% es.Ex (V/m) @ t=0.48
17.05259431621561
% es.Ey (V/m) @ t=0.48
5.099511846853372
% es.Ez (V/m) @ t=0.48
-18.678036546479127
% es.tEx (V/m) @ t=0.48
17.05259431621561
% es.tEy (V/m) @ t=0.48
0
% es.tEz (V/m) @ t=0.48
-18.678036546479095
% V (V) @ t=0.48
0.023014235992771123
% es.normE (V/m) @ t=0.5
27.2325740786289
% es.EX (V/m) @ t=0.5
17.282360634249507
% es.EY (V/m) @ t=0.5
5.16824650110651
% es.EZ (V/m) @ t=0.5
-18.929599544952946
% es.tEX (V/m) @ t=0.5
17.28236063424945
% es.tEY (V/m) @ t=0.5
0
% es.tEZ (V/m) @ t=0.5
-18.9295995449529
% es.Ex (V/m) @ t=0.5
17.282360634249507
% es.Ey (V/m) @ t=0.5
5.16824650110651
% es.Ez (V/m) @ t=0.5
-18.929599544952946
% es.tEx (V/m) @ t=0.5
17.28236063424945
% es.tEy (V/m) @ t=0.5
0
% es.tEz (V/m) @ t=0.5
-18.9295995449529
% V (V) @ t=0.5
0.02332392219883984
% es.normE (V/m) @ t=0.52
27.59452695323734
% es.EX (V/m) @ t=0.52
17.512126952283353
% es.EY (V/m) @ t=0.52
5.23698115535952
% es.EZ (V/m) @ t=0.52
-19.18116254342678
% es.tEX (V/m) @ t=0.52
17.512126952283328
% es.tEY (V/m) @ t=0.52
0
% es.tEZ (V/m) @ t=0.52
-19.181162543426737
% es.Ex (V/m) @ t=0.52
17.512126952283353
% es.Ey (V/m) @ t=0.52
5.23698115535952
% es.Ez (V/m) @ t=0.52
-19.18116254342678
% es.tEx (V/m) @ t=0.52
17.512126952283328
% es.tEy (V/m) @ t=0.52
0
% es.tEz (V/m) @ t=0.52
-19.181162543426737
% V (V) @ t=0.52
0.023633608404908548
% es.normE (V/m) @ t=0.54
27.957423101582485
% es.EX (V/m) @ t=0.54
17.742485933285778
% es.EY (V/m) @ t=0.54
5.305890831285186
% es.EZ (V/m) @ t=0.54
-19.4333843745712
% es.tEX (V/m) @ t=0.54
17.74248593328575
% es.tEY (V/m) @ t=0.54
0
% es.tEZ (V/m) @ t=0.54
-19.433384374571155
% es.Ex (V/m) @ t=0.54
17.742485933285778
% es.Ey (V/m) @ t=0.54
5.305890831285186
% es.Ez (V/m) @ t=0.54
-19.4333843745712
% es.tEx (V/m) @ t=0.54
17.74248593328575
% es.tEy (V/m) @ t=0.54
0
% es.tEz (V/m) @ t=0.54
-19.433384374571155
% V (V) @ t=0.54
0.023944132160805334
% es.normE (V/m) @ t=0.56
28.348518938464252
% es.EX (V/m) @ t=0.56
17.990562909883515
% es.EY (V/m) @ t=0.56
5.380032879386604
% es.EZ (V/m) @ t=0.56
-19.705302382088032
% es.tEX (V/m) @ t=0.56
17.990562909883476
% es.tEY (V/m) @ t=0.56
0
% es.tEZ (V/m) @ t=0.56
-19.705302382087986
% es.Ex (V/m) @ t=0.56
17.990562909883515
% es.Ey (V/m) @ t=0.56
5.380032879386604
% es.Ez (V/m) @ t=0.56
-19.705302382088032
% es.tEx (V/m) @ t=0.56
17.990562909883476
% es.tEy (V/m) @ t=0.56
0
% es.tEz (V/m) @ t=0.56
-19.705302382087986
% V (V) @ t=0.56
0.02427969494386252
% es.normE (V/m) @ t=0.58
28.73961477729086
% es.EX (V/m) @ t=0.58
18.23863988648117
% es.EY (V/m) @ t=0.58
5.454174927487966
% es.EZ (V/m) @ t=0.58
-19.977220389604906
% es.tEX (V/m) @ t=0.58
18.238639886481145
% es.tEY (V/m) @ t=0.58
0
% es.tEZ (V/m) @ t=0.58
-19.977220389604845
% es.Ex (V/m) @ t=0.58
18.23863988648117
% es.Ey (V/m) @ t=0.58
5.454174927487966
% es.Ez (V/m) @ t=0.58
-19.977220389604906
% es.tEx (V/m) @ t=0.58
18.238639886481145
% es.tEy (V/m) @ t=0.58
0
% es.tEz (V/m) @ t=0.58
-19.977220389604845
% V (V) @ t=0.58
0.0246152577269197
% es.normE (V/m) @ t=0.6
29.130710617984068
% es.EX (V/m) @ t=0.6
18.486716863078883
% es.EY (V/m) @ t=0.6
5.528316975589355
% es.EZ (V/m) @ t=0.6
-20.249138397121705
% es.tEX (V/m) @ t=0.6
18.48671686307886
% es.tEY (V/m) @ t=0.6
0
% es.tEZ (V/m) @ t=0.6
-20.249138397121662
% es.Ex (V/m) @ t=0.6
18.486716863078883
% es.Ey (V/m) @ t=0.6
5.528316975589355
% es.Ez (V/m) @ t=0.6
-20.249138397121705
% es.tEx (V/m) @ t=0.6
18.48671686307886
% es.tEy (V/m) @ t=0.6
0
% es.tEz (V/m) @ t=0.6
-20.249138397121662
% V (V) @ t=0.6
0.024950820509976882
% es.normE (V/m) @ t=0.62
29.52180646046967
% es.EX (V/m) @ t=0.62
18.7347938396766
% es.EY (V/m) @ t=0.62
5.602459023690753
% es.EZ (V/m) @ t=0.62
-20.521056404638536
% es.tEX (V/m) @ t=0.62
18.734793839676588
% es.tEY (V/m) @ t=0.62
0
% es.tEZ (V/m) @ t=0.62
-20.521056404638493
% es.Ex (V/m) @ t=0.62
18.7347938396766
% es.Ey (V/m) @ t=0.62
5.602459023690753
% es.Ez (V/m) @ t=0.62
-20.521056404638536
% es.tEx (V/m) @ t=0.62
18.734793839676588
% es.tEy (V/m) @ t=0.62
0
% es.tEz (V/m) @ t=0.62
-20.521056404638493
% V (V) @ t=0.62
0.025286383293034072
% es.normE (V/m) @ t=0.64
29.912902304677367
% es.EX (V/m) @ t=0.64
18.98287081627432
% es.EY (V/m) @ t=0.64
5.676601071792079
% es.EZ (V/m) @ t=0.64
-20.792974412155353
% es.tEX (V/m) @ t=0.64
18.982870816274314
% es.tEY (V/m) @ t=0.64
0
% es.tEZ (V/m) @ t=0.64
-20.792974412155296
% es.Ex (V/m) @ t=0.64
18.98287081627432
% es.Ey (V/m) @ t=0.64
5.676601071792079
% es.Ez (V/m) @ t=0.64
-20.792974412155353
% es.tEx (V/m) @ t=0.64
18.982870816274314
% es.tEy (V/m) @ t=0.64
0
% es.tEz (V/m) @ t=0.64
-20.792974412155296
% V (V) @ t=0.64
0.02562194607609125
% es.normE (V/m) @ t=0.66
30.30399815054048
% es.EX (V/m) @ t=0.66
19.230947792872023
% es.EY (V/m) @ t=0.66
5.750743119893483
% es.EZ (V/m) @ t=0.66
-21.064892419672184
% es.tEX (V/m) @ t=0.66
19.230947792872016
% es.tEY (V/m) @ t=0.66
0
% es.tEZ (V/m) @ t=0.66
-21.06489241967214
% es.Ex (V/m) @ t=0.66
19.230947792872023
% es.Ey (V/m) @ t=0.66
5.750743119893483
% es.Ez (V/m) @ t=0.66
-21.064892419672184
% es.tEx (V/m) @ t=0.66
19.230947792872016
% es.tEy (V/m) @ t=0.66
0
% es.tEz (V/m) @ t=0.66
-21.06489241967214
% V (V) @ t=0.66
0.025957508859148434
% es.normE (V/m) @ t=0.68
30.695093997995773
% es.EX (V/m) @ t=0.68
19.479024769469763
% es.EY (V/m) @ t=0.68
5.824885167994823
% es.EZ (V/m) @ t=0.68
-21.336810427189043
% es.tEX (V/m) @ t=0.68
19.479024769469724
% es.tEY (V/m) @ t=0.68
0
% es.tEZ (V/m) @ t=0.68
-21.336810427189015
% es.Ex (V/m) @ t=0.68
19.479024769469763
% es.Ey (V/m) @ t=0.68
5.824885167994823
% es.Ez (V/m) @ t=0.68
-21.336810427189043
% es.tEx (V/m) @ t=0.68
19.479024769469724
% es.tEy (V/m) @ t=0.68
0
% es.tEz (V/m) @ t=0.68
-21.336810427189015
% V (V) @ t=0.68
0.026293071642205623
% es.normE (V/m) @ t=0.7
31.08618984698309
% es.EX (V/m) @ t=0.7
19.727101746067476
% es.EY (V/m) @ t=0.7
5.899027216096178
% es.EZ (V/m) @ t=0.7
-21.60872843470586
% es.tEX (V/m) @ t=0.7
19.72710174606744
% es.tEY (V/m) @ t=0.7
0
% es.tEZ (V/m) @ t=0.7
-21.60872843470583
% es.Ex (V/m) @ t=0.7
19.727101746067476
% es.Ey (V/m) @ t=0.7
5.899027216096178
% es.Ez (V/m) @ t=0.7
-21.60872843470586
% es.tEx (V/m) @ t=0.7
19.72710174606744
% es.tEy (V/m) @ t=0.7
0
% es.tEz (V/m) @ t=0.7
-21.60872843470583
% V (V) @ t=0.7
0.026628634425262802
% es.normE (V/m) @ t=0.72
31.477285697445375
% es.EX (V/m) @ t=0.72
19.97517872266519
% es.EY (V/m) @ t=0.72
5.973169264197531
% es.EZ (V/m) @ t=0.72
-21.88064644222272
% es.tEX (V/m) @ t=0.72
19.97517872266517
% es.tEY (V/m) @ t=0.72
0
% es.tEZ (V/m) @ t=0.72
-21.880646442222663
% es.Ex (V/m) @ t=0.72
19.97517872266519
% es.Ey (V/m) @ t=0.72
5.973169264197531
% es.Ez (V/m) @ t=0.72
-21.88064644222272
% es.tEx (V/m) @ t=0.72
19.97517872266517
% es.tEy (V/m) @ t=0.72
0
% es.tEz (V/m) @ t=0.72
-21.880646442222663
% V (V) @ t=0.72
0.026964197208319985
% es.normE (V/m) @ t=0.74
31.87551083680689
% es.EX (V/m) @ t=0.74
20.227841455822734
% es.EY (V/m) @ t=0.74
6.048705444999146
% es.EZ (V/m) @ t=0.74
-22.15748758958044
% es.tEX (V/m) @ t=0.74
20.22784145582269
% es.tEY (V/m) @ t=0.74
0
% es.tEZ (V/m) @ t=0.74
-22.15748758958038
% es.Ex (V/m) @ t=0.74
20.227841455822734
% es.Ey (V/m) @ t=0.74
6.048705444999146
% es.Ez (V/m) @ t=0.74
-22.15748758958044
% es.tEx (V/m) @ t=0.74
20.22784145582269
% es.tEy (V/m) @ t=0.74
0
% es.tEz (V/m) @ t=0.74
-22.15748758958038
% V (V) @ t=0.74
0.02730556049643201
% es.normE (V/m) @ t=0.76
32.288523071935515
% es.EX (V/m) @ t=0.76
20.490015660792725
% es.EY (V/m) @ t=0.76
6.1271332432924765
% es.EZ (V/m) @ t=0.76
-22.444539986753803
% es.tEX (V/m) @ t=0.76
20.49001566079273
% es.tEY (V/m) @ t=0.76
0
% es.tEZ (V/m) @ t=0.76
-22.44453998675376
% es.Ex (V/m) @ t=0.76
20.490015660792725
% es.Ey (V/m) @ t=0.76
6.1271332432924765
% es.Ez (V/m) @ t=0.76
-22.444539986753803
% es.tEx (V/m) @ t=0.76
20.49001566079273
% es.tEy (V/m) @ t=0.76
0
% es.tEz (V/m) @ t=0.76
-22.44453998675376
% V (V) @ t=0.76
0.027658954807038907
% es.normE (V/m) @ t=0.78
32.70153530781985
% es.EX (V/m) @ t=0.78
20.75218986576275
% es.EY (V/m) @ t=0.78
6.205561041585785
% es.EZ (V/m) @ t=0.78
-22.73159238392714
% es.tEX (V/m) @ t=0.78
20.75218986576273
% es.tEY (V/m) @ t=0.78
0
% es.tEZ (V/m) @ t=0.78
-22.731592383927094
% es.Ex (V/m) @ t=0.78
20.75218986576275
% es.Ey (V/m) @ t=0.78
6.205561041585785
% es.Ez (V/m) @ t=0.78
-22.73159238392714
% es.tEx (V/m) @ t=0.78
20.75218986576273
% es.tEy (V/m) @ t=0.78
0
% es.tEz (V/m) @ t=0.78
-22.731592383927094
% V (V) @ t=0.78
0.02801234911764581
% es.normE (V/m) @ t=0.8
33.11454754443169
% es.EX (V/m) @ t=0.8
21.014364070732768
% es.EY (V/m) @ t=0.8
6.283988839879029
% es.EZ (V/m) @ t=0.8
-23.01864478110049
% es.tEX (V/m) @ t=0.8
21.01436407073273
% es.tEY (V/m) @ t=0.8
0
% es.tEZ (V/m) @ t=0.8
-23.01864478110043
% es.Ex (V/m) @ t=0.8
21.014364070732768
% es.Ey (V/m) @ t=0.8
6.283988839879029
% es.Ez (V/m) @ t=0.8
-23.01864478110049
% es.tEx (V/m) @ t=0.8
21.01436407073273
% es.tEy (V/m) @ t=0.8
0
% es.tEz (V/m) @ t=0.8
-23.01864478110043
% V (V) @ t=0.8
0.02836574342825271
% es.normE (V/m) @ t=0.82
33.527559781744046
% es.EX (V/m) @ t=0.82
21.276538275702777
% es.EY (V/m) @ t=0.82
6.362416638172418
% es.EZ (V/m) @ t=0.82
-23.305697178273782
% es.tEX (V/m) @ t=0.82
21.27653827570277
% es.tEY (V/m) @ t=0.82
0
% es.tEZ (V/m) @ t=0.82
-23.30569717827372
% es.Ex (V/m) @ t=0.82
21.276538275702777
% es.Ey (V/m) @ t=0.82
6.362416638172418
% es.Ez (V/m) @ t=0.82
-23.305697178273782
% es.tEx (V/m) @ t=0.82
21.27653827570277
% es.tEy (V/m) @ t=0.82
0
% es.tEz (V/m) @ t=0.82
-23.30569717827372
% V (V) @ t=0.82
0.02871913773885961
% es.normE (V/m) @ t=0.84
33.94057201973149
% es.EX (V/m) @ t=0.84
21.538712480672803
% es.EY (V/m) @ t=0.84
6.440844436465719
% es.EZ (V/m) @ t=0.84
-23.59274957544713
% es.tEX (V/m) @ t=0.84
21.53871248067275
% es.tEY (V/m) @ t=0.84
0
% es.tEZ (V/m) @ t=0.84
-23.592749575447073
% es.Ex (V/m) @ t=0.84
21.538712480672803
% es.Ey (V/m) @ t=0.84
6.440844436465719
% es.Ez (V/m) @ t=0.84
-23.59274957544713
% es.tEx (V/m) @ t=0.84
21.53871248067275
% es.tEy (V/m) @ t=0.84
0
% es.tEz (V/m) @ t=0.84
-23.592749575447073
% V (V) @ t=0.84
0.029072532049466512
% es.normE (V/m) @ t=0.86
34.3535842583696
% es.EX (V/m) @ t=0.86
21.80088668564282
% es.EY (V/m) @ t=0.86
6.519272234758962
% es.EZ (V/m) @ t=0.86
-23.87980197262051
% es.tEX (V/m) @ t=0.86
21.800886685642766
% es.tEY (V/m) @ t=0.86
0
% es.tEZ (V/m) @ t=0.86
-23.87980197262048
% es.Ex (V/m) @ t=0.86
21.80088668564282
% es.Ey (V/m) @ t=0.86
6.519272234758962
% es.Ez (V/m) @ t=0.86
-23.87980197262051
% es.tEx (V/m) @ t=0.86
21.800886685642766
% es.tEy (V/m) @ t=0.86
0
% es.tEz (V/m) @ t=0.86
-23.87980197262048
% V (V) @ t=0.86
0.029425926360073407
% es.normE (V/m) @ t=0.88
34.76659649763522
% es.EX (V/m) @ t=0.88
22.063060890612896
% es.EY (V/m) @ t=0.88
6.597700033052295
% es.EZ (V/m) @ t=0.88
-24.16685436979383
% es.tEX (V/m) @ t=0.88
22.063060890612807
% es.tEY (V/m) @ t=0.88
0
% es.tEZ (V/m) @ t=0.88
-24.166854369793786
% es.Ex (V/m) @ t=0.88
22.063060890612896
% es.Ey (V/m) @ t=0.88
6.597700033052295
% es.Ez (V/m) @ t=0.88
-24.16685436979383
% es.tEx (V/m) @ t=0.88
22.063060890612807
% es.tEy (V/m) @ t=0.88
0
% es.tEz (V/m) @ t=0.88
-24.166854369793786
% V (V) @ t=0.88
0.029779320670680315
% es.normE (V/m) @ t=0.9
35.17960873750613
% es.EX (V/m) @ t=0.9
22.325235095582887
% es.EY (V/m) @ t=0.9
6.676127831345596
% es.EZ (V/m) @ t=0.9
-24.45390676696718
% es.tEX (V/m) @ t=0.9
22.325235095582848
% es.tEY (V/m) @ t=0.9
0
% es.tEZ (V/m) @ t=0.9
-24.453906766967094
% es.Ex (V/m) @ t=0.9
22.325235095582887
% es.Ey (V/m) @ t=0.9
6.676127831345596
% es.Ez (V/m) @ t=0.9
-24.45390676696718
% es.tEx (V/m) @ t=0.9
22.325235095582848
% es.tEy (V/m) @ t=0.9
0
% es.tEz (V/m) @ t=0.9
-24.453906766967094
% V (V) @ t=0.9
0.03013271498128721
% es.normE (V/m) @ t=0.92
35.592620977961346
% es.EX (V/m) @ t=0.92
22.58740930055287
% es.EY (V/m) @ t=0.92
6.754555629638897
% es.EZ (V/m) @ t=0.92
-24.740959164140484
% es.tEX (V/m) @ t=0.92
22.587409300552835
% es.tEY (V/m) @ t=0.92
0
% es.tEZ (V/m) @ t=0.92
-24.740959164140428
% es.Ex (V/m) @ t=0.92
22.58740930055287
% es.Ey (V/m) @ t=0.92
6.754555629638897
% es.Ez (V/m) @ t=0.92
-24.740959164140484
% es.tEx (V/m) @ t=0.92
22.587409300552835
% es.tEy (V/m) @ t=0.92
0
% es.tEz (V/m) @ t=0.92
-24.740959164140428
% V (V) @ t=0.92
0.03048610929189411
% es.normE (V/m) @ t=0.94
36.01451274003274
% es.EX (V/m) @ t=0.94
22.855129998248575
% es.EY (V/m) @ t=0.94
6.834609179034949
% es.EZ (V/m) @ t=0.94
-25.03423073148773
% es.tEX (V/m) @ t=0.94
22.85512999824855
% es.tEY (V/m) @ t=0.94
0
% es.tEZ (V/m) @ t=0.94
-25.034230731487703
% es.Ex (V/m) @ t=0.94
22.855129998248575
% es.Ey (V/m) @ t=0.94
6.834609179034949
% es.Ez (V/m) @ t=0.94
-25.03423073148773
% es.tEx (V/m) @ t=0.94
22.85512999824855
% es.tEy (V/m) @ t=0.94
0
% es.tEz (V/m) @ t=0.94
-25.034230731487703
% V (V) @ t=0.94
0.030847550231600414
% es.normE (V/m) @ t=0.96
36.44188796267949
% es.EX (V/m) @ t=0.96
23.1262758774498
% es.EY (V/m) @ t=0.96
6.915666694880752
% es.EZ (V/m) @ t=0.96
-25.33134288561908
% es.tEX (V/m) @ t=0.96
23.12627587744975
% es.tEY (V/m) @ t=0.96
0
% es.tEZ (V/m) @ t=0.96
-25.331342885619023
% es.Ex (V/m) @ t=0.96
23.1262758774498
% es.Ey (V/m) @ t=0.96
6.915666694880752
% es.Ez (V/m) @ t=0.96
-25.33134288561908
% es.tEx (V/m) @ t=0.96
23.12627587744975
% es.tEy (V/m) @ t=0.96
0
% es.tEz (V/m) @ t=0.96
-25.331342885619023
% V (V) @ t=0.96
0.031213960287203316
% es.normE (V/m) @ t=0.98
36.86926318582732
% es.EX (V/m) @ t=0.98
23.397421756651028
% es.EY (V/m) @ t=0.98
6.996724210726384
% es.EZ (V/m) @ t=0.98
-25.628455039750357
% es.tEX (V/m) @ t=0.98
23.39742175665099
% es.tEY (V/m) @ t=0.98
0
% es.tEZ (V/m) @ t=0.98
-25.628455039750268
% es.Ex (V/m) @ t=0.98
23.397421756651028
% es.Ey (V/m) @ t=0.98
6.996724210726384
% es.Ez (V/m) @ t=0.98
-25.628455039750357
% es.tEx (V/m) @ t=0.98
23.39742175665099
% es.tEy (V/m) @ t=0.98
0
% es.tEz (V/m) @ t=0.98
-25.628455039750268
% V (V) @ t=0.98
0.031580370342806224
% es.normE (V/m) @ t=1
37.29663840945908
% es.EX (V/m) @ t=1
23.668567635852334
% es.EY (V/m) @ t=1
7.077781726572102
% es.EZ (V/m) @ t=1
-25.925567193881587
% es.tEX (V/m) @ t=1
23.6685676358523
% es.tEY (V/m) @ t=1
0
% es.tEZ (V/m) @ t=1
-25.925567193881555
% es.Ex (V/m) @ t=1
23.668567635852334
% es.Ey (V/m) @ t=1
7.077781726572102
% es.Ez (V/m) @ t=1
-25.925567193881587
% es.tEx (V/m) @ t=1
23.6685676358523
% es.tEy (V/m) @ t=1
0
% es.tEz (V/m) @ t=1
-25.925567193881555
% V (V) @ t=1
0.03194678039840912
% es.normE (V/m) @ t=1.02
37.724013633558414
% es.EX (V/m) @ t=1.02
23.939713515053587
% es.EY (V/m) @ t=1.02
7.158839242417876
% es.EZ (V/m) @ t=1.02
-26.222679348012946
% es.tEX (V/m) @ t=1.02
23.939713515053533
% es.tEY (V/m) @ t=1.02
0
% es.tEZ (V/m) @ t=1.02
-26.222679348012917
% es.Ex (V/m) @ t=1.02
23.939713515053587
% es.Ey (V/m) @ t=1.02
7.158839242417876
% es.Ez (V/m) @ t=1.02
-26.222679348012946
% es.tEx (V/m) @ t=1.02
23.939713515053533
% es.tEy (V/m) @ t=1.02
0
% es.tEz (V/m) @ t=1.02
-26.222679348012917
% V (V) @ t=1.02
0.03231319045401203
% es.normE (V/m) @ t=1.04
38.15138885810939
% es.EX (V/m) @ t=1.04
24.210859394254854
% es.EY (V/m) @ t=1.04
7.2398967582634945
% es.EZ (V/m) @ t=1.04
-26.51979150214418
% es.tEX (V/m) @ t=1.04
24.21085939425479
% es.tEY (V/m) @ t=1.04
0
% es.tEZ (V/m) @ t=1.04
-26.51979150214412
% es.Ex (V/m) @ t=1.04
24.210859394254854
% es.Ey (V/m) @ t=1.04
7.2398967582634945
% es.Ez (V/m) @ t=1.04
-26.51979150214418
% es.tEx (V/m) @ t=1.04
24.21085939425479
% es.tEy (V/m) @ t=1.04
0
% es.tEz (V/m) @ t=1.04