% Model:              1 neuron.mph
% Version:            COMSOL 6.1.0.252
% Date:               Mar 18 2023, 14:04
% Dimension:          0
% Nodes:              14017
% Expressions:        14017
% Description:        Electric field norm, Electric field, X component, Electric field, Y component, Electric field, Z component, Tangential electric field, X component, Tangential electric field, Y component, Tangential electric field, Z component, Electric field, x component, Electric field, y component, Electric field, z component, Tangential electric field, x component, Tangential electric field, y component, Tangential electric field, z component, Electric potential
% Length unit:        mm
% x
1.33
% y
12.2
% z
2
% es.normE (V/m) @ t=0
4.062906947298071
% es.EX (V/m) @ t=0
1.6192179874482049
% es.EY (V/m) @ t=0
0.42808140339266565
% es.EZ (V/m) @ t=0
-3.698347288648062
% es.tEX (V/m) @ t=0
1.6192179874482058
% es.tEY (V/m) @ t=0
0
% es.tEZ (V/m) @ t=0
-3.698347288648062
% es.Ex (V/m) @ t=0
1.6192179874482049
% es.Ey (V/m) @ t=0
0.42808140339266565
% es.Ez (V/m) @ t=0
-3.698347288648062
% es.tEx (V/m) @ t=0
1.6192179874482058
% es.tEy (V/m) @ t=0
0
% es.tEz (V/m) @ t=0
-3.698347288648062
% V (V) @ t=0
0.020315463695980782
% es.normE (V/m) @ t=0.02
3.807623993476375
% es.EX (V/m) @ t=0.02
1.5174824985702977
% es.EY (V/m) @ t=0.02
0.40119575713955946
% es.EZ (V/m) @ t=0.02
-3.46596809328887
% es.tEX (V/m) @ t=0.02
1.517482498570291
% es.tEY (V/m) @ t=0.02
0
% es.tEZ (V/m) @ t=0.02
-3.4659680932888755
% es.Ex (V/m) @ t=0.02
1.5174824985702977
% es.Ey (V/m) @ t=0.02
0.40119575713955946
% es.Ez (V/m) @ t=0.02
-3.46596809328887
% es.tEx (V/m) @ t=0.02
1.517482498570291
% es.tEy (V/m) @ t=0.02
0
% es.tEz (V/m) @ t=0.02
-3.4659680932888755
% V (V) @ t=0.02
0.01903843550204942
% es.normE (V/m) @ t=0.04
3.86306807329699
% es.EX (V/m) @ t=0.04
1.5395790767886122
% es.EY (V/m) @ t=0.04
0.4070377346491032
% es.EZ (V/m) @ t=0.04
-3.516437201387344
% es.tEX (V/m) @ t=0.04
1.5395790767886055
% es.tEY (V/m) @ t=0.04
0
% es.tEZ (V/m) @ t=0.04
-3.5164372013873404
% es.Ex (V/m) @ t=0.04
1.5395790767886122
% es.Ey (V/m) @ t=0.04
0.4070377346491032
% es.Ez (V/m) @ t=0.04
-3.516437201387344
% es.tEx (V/m) @ t=0.04
1.5395790767886055
% es.tEy (V/m) @ t=0.04
0
% es.tEz (V/m) @ t=0.04
-3.5164372013873404
% V (V) @ t=0.04
0.019315659030221814
% es.normE (V/m) @ t=0.06
3.9192838629986095
% es.EX (V/m) @ t=0.06
1.5619832092681656
% es.EY (V/m) @ t=0.06
0.41296102026159787
% es.EZ (V/m) @ t=0.06
-3.567608775123766
% es.tEX (V/m) @ t=0.06
1.561983209268166
% es.tEY (V/m) @ t=0.06
0
% es.tEZ (V/m) @ t=0.06
-3.5676087751237873
% es.Ex (V/m) @ t=0.06
1.5619832092681656
% es.Ey (V/m) @ t=0.06
0.41296102026159787
% es.Ez (V/m) @ t=0.06
-3.567608775123766
% es.tEx (V/m) @ t=0.06
1.561983209268166
% es.tEy (V/m) @ t=0.06
0
% es.tEz (V/m) @ t=0.06
-3.5676087751237873
% V (V) @ t=0.06
0.019596741361162507
% es.normE (V/m) @ t=0.08
3.976727414470874
% es.EX (V/m) @ t=0.08
1.5848766325333785
% es.EY (V/m) @ t=0.08
0.4190136134715843
% es.EZ (V/m) @ t=0.08
-3.619897955701534
% es.tEX (V/m) @ t=0.08
1.5848766325333719
% es.tEY (V/m) @ t=0.08
0
% es.tEZ (V/m) @ t=0.08
-3.6198979557015427
% es.Ex (V/m) @ t=0.08
1.5848766325333785
% es.Ey (V/m) @ t=0.08
0.4190136134715843
% es.Ez (V/m) @ t=0.08
-3.619897955701534
% es.tEx (V/m) @ t=0.08
1.5848766325333719
% es.tEy (V/m) @ t=0.08
0
% es.tEz (V/m) @ t=0.08
-3.6198979557015427
% V (V) @ t=0.08
0.019883965183223714
% es.normE (V/m) @ t=0.1
4.034170965943127
% es.EX (V/m) @ t=0.1
1.6077700557986039
% es.EY (V/m) @ t=0.1
0.4250662066815405
% es.EZ (V/m) @ t=0.1
-3.6721871362792875
% es.tEX (V/m) @ t=0.1
1.6077700557986043
% es.tEY (V/m) @ t=0.1
0
% es.tEZ (V/m) @ t=0.1
-3.6721871362792875
% es.Ex (V/m) @ t=0.1
1.6077700557986039
% es.Ey (V/m) @ t=0.1
0.4250662066815405
% es.Ez (V/m) @ t=0.1
-3.6721871362792875
% es.tEx (V/m) @ t=0.1
1.6077700557986043
% es.tEy (V/m) @ t=0.1
0
% es.tEz (V/m) @ t=0.1
-3.6721871362792875
% V (V) @ t=0.1
0.020171189005284917
% es.normE (V/m) @ t=0.12
4.093551767512835
% es.EX (V/m) @ t=0.12
1.6314356188951682
% es.EY (V/m) @ t=0.12
0.43132311856772354
% es.EZ (V/m) @ t=0.12
-3.7262396963347086
% es.tEX (V/m) @ t=0.12
1.6314356188951615
% es.tEY (V/m) @ t=0.12
0
% es.tEZ (V/m) @ t=0.12
-3.726239696334723
% es.Ex (V/m) @ t=0.12
1.6314356188951682
% es.Ey (V/m) @ t=0.12
0.43132311856772354
% es.Ez (V/m) @ t=0.12
-3.7262396963347086
% es.tEx (V/m) @ t=0.12
1.6314356188951615
% es.tEy (V/m) @ t=0.12
0
% es.tEz (V/m) @ t=0.12
-3.726239696334723
% V (V) @ t=0.12
0.020468089755785842
% es.normE (V/m) @ t=0.14
4.154480795551209
% es.EX (V/m) @ t=0.14
1.6557182666551804
% es.EY (V/m) @ t=0.14
0.4377433194287086
% es.EZ (V/m) @ t=0.14
-3.7817015275963026
% es.tEX (V/m) @ t=0.14
1.6557182666551808
% es.tEY (V/m) @ t=0.14
0
% es.tEZ (V/m) @ t=0.14
-3.7817015275963257
% es.Ex (V/m) @ t=0.14
1.6557182666551804
% es.Ey (V/m) @ t=0.14
0.4377433194287086
% es.Ez (V/m) @ t=0.14
-3.7817015275963026
% es.tEx (V/m) @ t=0.14
1.6557182666551808
% es.tEy (V/m) @ t=0.14
0
% es.tEz (V/m) @ t=0.14
-3.7817015275963257
% V (V) @ t=0.14
0.020772724188564014
% es.normE (V/m) @ t=0.16
4.215409823589675
% es.EX (V/m) @ t=0.16
1.6800009144151864
% es.EY (V/m) @ t=0.16
0.44416352028970785
% es.EZ (V/m) @ t=0.16
-3.8371633588579073
% es.tEX (V/m) @ t=0.16
1.6800009144151868
% es.tEY (V/m) @ t=0.16
0
% es.tEZ (V/m) @ t=0.16
-3.8371633588579144
% es.Ex (V/m) @ t=0.16
1.6800009144151864
% es.Ey (V/m) @ t=0.16
0.44416352028970785
% es.Ez (V/m) @ t=0.16
-3.8371633588579073
% es.tEx (V/m) @ t=0.16
1.6800009144151868
% es.tEy (V/m) @ t=0.16
0
% es.tEz (V/m) @ t=0.16
-3.8371633588579144
% V (V) @ t=0.16
0.021077358621342187
% es.normE (V/m) @ t=0.18
4.276338851628244
% es.EX (V/m) @ t=0.18
1.704283562175208
% es.EY (V/m) @ t=0.18
0.4505837211507284
% es.EZ (V/m) @ t=0.18
-3.8926251901195315
% es.tEX (V/m) @ t=0.18
1.7042835621752088
% es.tEY (V/m) @ t=0.18
0
% es.tEZ (V/m) @ t=0.18
-3.892625190119549
% es.Ex (V/m) @ t=0.18
1.704283562175208
% es.Ey (V/m) @ t=0.18
0.4505837211507284
% es.Ez (V/m) @ t=0.18
-3.8926251901195315
% es.tEx (V/m) @ t=0.18
1.7042835621752088
% es.tEy (V/m) @ t=0.18
0
% es.tEz (V/m) @ t=0.18
-3.892625190119549
% V (V) @ t=0.18
0.02138199305412036
% es.normE (V/m) @ t=0.2
4.337267879666845
% es.EX (V/m) @ t=0.2
1.7285662099351784
% es.EY (V/m) @ t=0.2
0.4570039220117579
% es.EZ (V/m) @ t=0.2
-3.948087021381129
% es.tEX (V/m) @ t=0.2
1.7285662099351722
% es.tEY (V/m) @ t=0.2
0
% es.tEZ (V/m) @ t=0.2
-3.9480870213811343
% es.Ex (V/m) @ t=0.2
1.7285662099351784
% es.Ey (V/m) @ t=0.2
0.4570039220117579
% es.Ez (V/m) @ t=0.2
-3.948087021381129
% es.tEx (V/m) @ t=0.2
1.7285662099351722
% es.tEy (V/m) @ t=0.2
0
% es.tEz (V/m) @ t=0.2
-3.9480870213811343
% V (V) @ t=0.2
0.021686627486898535
% es.normE (V/m) @ t=0.22
4.398601290248223
% es.EX (V/m) @ t=0.22
1.753010001800857
% es.EY (V/m) @ t=0.22
0.46346668270959235
% es.EZ (V/m) @ t=0.22
-4.003916960529217
% es.tEX (V/m) @ t=0.22
1.7530100018008508
% es.tEY (V/m) @ t=0.22
0
% es.tEZ (V/m) @ t=0.22
-4.0039169605292315
% es.Ex (V/m) @ t=0.22
1.753010001800857
% es.Ey (V/m) @ t=0.22
0.46346668270959235
% es.Ez (V/m) @ t=0.22
-4.003916960529217
% es.tEx (V/m) @ t=0.22
1.7530100018008508
% es.tEy (V/m) @ t=0.22
0
% es.tEz (V/m) @ t=0.22
-4.0039169605292315
% V (V) @ t=0.22
0.021993286189000056
% es.normE (V/m) @ t=0.24
4.463040960757752
% es.EX (V/m) @ t=0.24
1.7786916202915148
% es.EY (V/m) @ t=0.24
0.4702563663125776
% es.EZ (V/m) @ t=0.24
-4.06257451624416
% es.tEX (V/m) @ t=0.24
1.7786916202915153
% es.tEY (V/m) @ t=0.24
0
% es.tEZ (V/m) @ t=0.24
-4.062574516244172
% es.Ex (V/m) @ t=0.24
1.7786916202915148
% es.Ey (V/m) @ t=0.24
0.4702563663125776
% es.Ez (V/m) @ t=0.24
-4.06257451624416
% es.tEx (V/m) @ t=0.24
1.7786916202915153
% es.tEy (V/m) @ t=0.24
0
% es.tEz (V/m) @ t=0.24
-4.062574516244172
% V (V) @ t=0.24
0.022315494293015516
% es.normE (V/m) @ t=0.26
4.527480631267306
% es.EX (V/m) @ t=0.26
1.804373238782194
% es.EY (V/m) @ t=0.26
0.47704604991550603
% es.EZ (V/m) @ t=0.26
-4.121232071959115
% es.tEX (V/m) @ t=0.26
1.804373238782195
% es.tEY (V/m) @ t=0.26
0
% es.tEZ (V/m) @ t=0.26
-4.121232071959113
% es.Ex (V/m) @ t=0.26
1.804373238782194
% es.Ey (V/m) @ t=0.26
0.47704604991550603
% es.Ez (V/m) @ t=0.26
-4.121232071959115
% es.tEx (V/m) @ t=0.26
1.804373238782195
% es.tEy (V/m) @ t=0.26
0
% es.tEz (V/m) @ t=0.26
-4.121232071959113
% V (V) @ t=0.26
0.02263770239703098
% es.normE (V/m) @ t=0.28
4.591920301776852
% es.EX (V/m) @ t=0.28
1.8300548572728443
% es.EY (V/m) @ t=0.28
0.4838357335185055
% es.EZ (V/m) @ t=0.28
-4.179889627674056
% es.tEX (V/m) @ t=0.28
1.8300548572728452
% es.tEY (V/m) @ t=0.28
0
% es.tEZ (V/m) @ t=0.28
-4.1798896276740685
% es.Ex (V/m) @ t=0.28
1.8300548572728443
% es.Ey (V/m) @ t=0.28
0.4838357335185055
% es.Ez (V/m) @ t=0.28
-4.179889627674056
% es.tEx (V/m) @ t=0.28
1.8300548572728452
% es.tEy (V/m) @ t=0.28
0
% es.tEz (V/m) @ t=0.28
-4.1798896276740685
% V (V) @ t=0.28
0.022959910501046447
% es.normE (V/m) @ t=0.3
4.656359972286424
% es.EX (V/m) @ t=0.3
1.8557364757635377
% es.EY (V/m) @ t=0.3
0.4906254171214268
% es.EZ (V/m) @ t=0.3
-4.238547183389006
% es.tEX (V/m) @ t=0.3
1.8557364757635382
% es.tEY (V/m) @ t=0.3
0
% es.tEZ (V/m) @ t=0.3
-4.238547183389027
% es.Ex (V/m) @ t=0.3
1.8557364757635377
% es.Ey (V/m) @ t=0.3
0.4906254171214268
% es.Ez (V/m) @ t=0.3
-4.238547183389006
% es.tEx (V/m) @ t=0.3
1.8557364757635382
% es.tEy (V/m) @ t=0.3
0
% es.tEz (V/m) @ t=0.3
-4.238547183389027
% V (V) @ t=0.3
0.023282118605061908
% es.normE (V/m) @ t=0.32
4.720799642796022
% es.EX (V/m) @ t=0.32
1.881418094254217
% es.EY (V/m) @ t=0.32
0.4974151007243819
% es.EZ (V/m) @ t=0.32
-4.297204739103975
% es.tEX (V/m) @ t=0.32
1.8814180942542178
% es.tEY (V/m) @ t=0.32
0
% es.tEZ (V/m) @ t=0.32
-4.297204739103982
% es.Ex (V/m) @ t=0.32
1.881418094254217
% es.Ey (V/m) @ t=0.32
0.4974151007243819
% es.Ez (V/m) @ t=0.32
-4.297204739103975
% es.tEx (V/m) @ t=0.32
1.8814180942542178
% es.tEy (V/m) @ t=0.32
0
% es.tEz (V/m) @ t=0.32
-4.297204739103982
% V (V) @ t=0.32
0.023604326709077368
% es.normE (V/m) @ t=0.34
4.7899632790651765
% es.EX (V/m) @ t=0.34
1.9089835423876576
% es.EY (V/m) @ t=0.34
0.5047057635355205
% es.EZ (V/m) @ t=0.34
-4.360161702633306
% es.tEX (V/m) @ t=0.34
1.9089835423876584
% es.tEY (V/m) @ t=0.34
0
% es.tEZ (V/m) @ t=0.34
-4.360161702633313
% es.Ex (V/m) @ t=0.34
1.9089835423876576
% es.Ey (V/m) @ t=0.34
0.5047057635355205
% es.Ez (V/m) @ t=0.34
-4.360161702633306
% es.tEx (V/m) @ t=0.34
1.9089835423876584
% es.tEy (V/m) @ t=0.34
0
% es.tEz (V/m) @ t=0.34
-4.360161702633313
% V (V) @ t=0.34
0.023950002282362555
% es.normE (V/m) @ t=0.36
4.861405890341858
% es.EX (V/m) @ t=0.36
1.9374578033427161
% es.EY (V/m) @ t=0.36
0.5122381129182152
% es.EZ (V/m) @ t=0.36
-4.425192822369908
% es.tEX (V/m) @ t=0.36
1.9374578033427028
% es.tEY (V/m) @ t=0.36
0
% es.tEZ (V/m) @ t=0.36
-4.425192822369922
% es.Ex (V/m) @ t=0.36
1.9374578033427161
% es.Ey (V/m) @ t=0.36
0.5122381129182152
% es.Ez (V/m) @ t=0.36
-4.425192822369908
% es.tEx (V/m) @ t=0.36
1.9374578033427028
% es.tEy (V/m) @ t=0.36
0
% es.tEz (V/m) @ t=0.36
-4.425192822369922
% V (V) @ t=0.36
0.024306999228068362
% es.normE (V/m) @ t=0.38
4.932848501632689
% es.EX (V/m) @ t=0.38
1.9659320642977738
% es.EY (V/m) @ t=0.38
0.5197704623008725
% es.EZ (V/m) @ t=0.38
-4.4902239421065175
% es.tEX (V/m) @ t=0.38
1.9659320642977889
% es.tEY (V/m) @ t=0.38
0
% es.tEZ (V/m) @ t=0.38
-4.4902239421065175
% es.Ex (V/m) @ t=0.38
1.9659320642977738
% es.Ey (V/m) @ t=0.38
0.5197704623008725
% es.Ez (V/m) @ t=0.38
-4.4902239421065175
% es.tEx (V/m) @ t=0.38
1.9659320642977889
% es.tEy (V/m) @ t=0.38
0
% es.tEz (V/m) @ t=0.38
-4.4902239421065175
% V (V) @ t=0.38
0.024663996173774173
% es.normE (V/m) @ t=0.4
5.0042911129370395
% es.EX (V/m) @ t=0.4
1.9944063252527746
% es.EY (V/m) @ t=0.4
0.5273028116835476
% es.EZ (V/m) @ t=0.4
-4.5552550618431304
% es.tEX (V/m) @ t=0.4
1.9944063252527755
% es.tEY (V/m) @ t=0.4
0
% es.tEZ (V/m) @ t=0.4
-4.555255061843134
% es.Ex (V/m) @ t=0.4
1.9944063252527746
% es.Ey (V/m) @ t=0.4
0.5273028116835476
% es.Ez (V/m) @ t=0.4
-4.5552550618431304
% es.tEx (V/m) @ t=0.4
1.9944063252527755
% es.tEy (V/m) @ t=0.4
0
% es.tEz (V/m) @ t=0.4
-4.555255061843134
% V (V) @ t=0.4
0.025020993119479983
% es.normE (V/m) @ t=0.42
5.075733724254368
% es.EX (V/m) @ t=0.42
2.022880586207818
% es.EY (V/m) @ t=0.42
0.5348351610662458
% es.EZ (V/m) @ t=0.42
-4.620286181579733
% es.tEX (V/m) @ t=0.42
2.022880586207819
% es.tEY (V/m) @ t=0.42
0
% es.tEZ (V/m) @ t=0.42
-4.620286181579743
% es.Ex (V/m) @ t=0.42
2.022880586207818
% es.Ey (V/m) @ t=0.42
0.5348351610662458
% es.Ez (V/m) @ t=0.42
-4.620286181579733
% es.tEx (V/m) @ t=0.42
2.022880586207819
% es.tEy (V/m) @ t=0.42
0
% es.tEz (V/m) @ t=0.42
-4.620286181579743
% V (V) @ t=0.42
0.025377990065185794
% es.normE (V/m) @ t=0.44
5.147176335584135
% es.EX (V/m) @ t=0.44
2.05135484716289
% es.EY (V/m) @ t=0.44
0.5423675104488836
% es.EZ (V/m) @ t=0.44
-4.685317301316342
% es.tEX (V/m) @ t=0.44
2.051354847162891
% es.tEY (V/m) @ t=0.44
0
% es.tEZ (V/m) @ t=0.44
-4.6853173013163385
% es.Ex (V/m) @ t=0.44
2.05135484716289
% es.Ey (V/m) @ t=0.44
0.5423675104488836
% es.Ez (V/m) @ t=0.44
-4.685317301316342
% es.tEx (V/m) @ t=0.44
2.051354847162891
% es.tEy (V/m) @ t=0.44
0
% es.tEz (V/m) @ t=0.44
-4.6853173013163385
% V (V) @ t=0.44
0.0257349870108916
% es.normE (V/m) @ t=0.46
5.218618946925819
% es.EX (V/m) @ t=0.46
2.0798291081179334
% es.EY (V/m) @ t=0.46
0.5498998598315641
% es.EZ (V/m) @ t=0.46
-4.7503484210529585
% es.tEX (V/m) @ t=0.46
2.0798291081179343
% es.tEY (V/m) @ t=0.46
0
% es.tEZ (V/m) @ t=0.46
-4.750348421052969
% es.Ex (V/m) @ t=0.46
2.0798291081179334
% es.Ey (V/m) @ t=0.46
0.5498998598315641
% es.Ez (V/m) @ t=0.46
-4.7503484210529585
% es.tEx (V/m) @ t=0.46
2.0798291081179343
% es.tEy (V/m) @ t=0.46
0
% es.tEz (V/m) @ t=0.46
-4.750348421052969
% V (V) @ t=0.46
0.02609198395659741
% es.normE (V/m) @ t=0.48
5.2900615582789055
% es.EX (V/m) @ t=0.48
2.1083033690729485
% es.EY (V/m) @ t=0.48
0.5574322092142427
% es.EZ (V/m) @ t=0.48
-4.815379540789554
% es.tEX (V/m) @ t=0.48
2.1083033690729494
% es.tEY (V/m) @ t=0.48
0
% es.tEZ (V/m) @ t=0.48
-4.8153795407895785
% es.Ex (V/m) @ t=0.48
2.1083033690729485
% es.Ey (V/m) @ t=0.48
0.5574322092142427
% es.Ez (V/m) @ t=0.48
-4.815379540789554
% es.tEx (V/m) @ t=0.48
2.1083033690729494
% es.tEy (V/m) @ t=0.48
0
% es.tEz (V/m) @ t=0.48
-4.8153795407895785
% V (V) @ t=0.48
0.026448980902303222
% es.normE (V/m) @ t=0.5
5.361504169643004
% es.EX (V/m) @ t=0.5
2.1367776300280203
% es.EY (V/m) @ t=0.5
0.5649645585969285
% es.EZ (V/m) @ t=0.5
-4.880410660526163
% es.tEX (V/m) @ t=0.5
2.1367776300280212
% es.tEY (V/m) @ t=0.5
0
% es.tEZ (V/m) @ t=0.5
-4.880410660526174
% es.Ex (V/m) @ t=0.5
2.1367776300280203
% es.Ey (V/m) @ t=0.5
0.5649645585969285
% es.Ez (V/m) @ t=0.5
-4.880410660526163
% es.tEx (V/m) @ t=0.5
2.1367776300280212
% es.tEy (V/m) @ t=0.5
0
% es.tEz (V/m) @ t=0.5
-4.880410660526174
% V (V) @ t=0.5
0.026805977848009033
% es.normE (V/m) @ t=0.52
5.432946781017654
% es.EX (V/m) @ t=0.52
2.16525189098308
% es.EY (V/m) @ t=0.52
0.572496907979577
% es.EZ (V/m) @ t=0.52
-4.945441780262787
% es.tEX (V/m) @ t=0.52
2.1652518909830665
% es.tEY (V/m) @ t=0.52
0
% es.tEZ (V/m) @ t=0.52
-4.945441780262804
% es.Ex (V/m) @ t=0.52
2.16525189098308
% es.Ey (V/m) @ t=0.52
0.572496907979577
% es.Ez (V/m) @ t=0.52
-4.945441780262787
% es.tEx (V/m) @ t=0.52
2.1652518909830665
% es.tEy (V/m) @ t=0.52
0
% es.tEz (V/m) @ t=0.52
-4.945441780262804
% V (V) @ t=0.52
0.02716297479371484
% es.normE (V/m) @ t=0.54
5.504389392402404
% es.EX (V/m) @ t=0.54
2.193726151938109
% es.EY (V/m) @ t=0.54
0.5800292573622059
% es.EZ (V/m) @ t=0.54
-5.010472899999392
% es.tEX (V/m) @ t=0.54
2.19372615193811
% es.tEY (V/m) @ t=0.54
0
% es.tEZ (V/m) @ t=0.54
-5.010472899999414
% es.Ex (V/m) @ t=0.54
2.193726151938109
% es.Ey (V/m) @ t=0.54
0.5800292573622059
% es.Ez (V/m) @ t=0.54
-5.010472899999392
% es.tEx (V/m) @ t=0.54
2.19372615193811
% es.tEy (V/m) @ t=0.54
0
% es.tEz (V/m) @ t=0.54
-5.010472899999414
% V (V) @ t=0.54
0.027519971739420654
% es.normE (V/m) @ t=0.56
5.580304340339994
% es.EX (V/m) @ t=0.56
2.223979218347268
% es.EY (V/m) @ t=0.56
0.5880227311854842
% es.EZ (V/m) @ t=0.56
-5.0795771781225945
% es.tEX (V/m) @ t=0.56
2.223979218347255
% es.tEY (V/m) @ t=0.56
0
% es.tEZ (V/m) @ t=0.56
-5.079577178122619
% es.Ex (V/m) @ t=0.56
2.223979218347268
% es.Ey (V/m) @ t=0.56
0.5880227311854842
% es.Ez (V/m) @ t=0.56
-5.0795771781225945
% es.tEx (V/m) @ t=0.56
2.223979218347255
% es.tEy (V/m) @ t=0.56
0
% es.tEz (V/m) @ t=0.56
-5.079577178122619
% V (V) @ t=0.56
0.027899807890828833
% es.normE (V/m) @ t=0.58
5.657384364916691
% es.EX (V/m) @ t=0.58
2.2546956766741504
% es.EY (V/m) @ t=0.58
0.596136331320702
% es.EZ (V/m) @ t=0.58
-5.149742543995263
% es.tEX (V/m) @ t=0.58
2.2546956766741513
% es.tEY (V/m) @ t=0.58
0
% es.tEZ (V/m) @ t=0.58
-5.149742543995281
% es.Ex (V/m) @ t=0.58
2.2546956766741504
% es.Ey (V/m) @ t=0.58
0.596136331320702
% es.Ez (V/m) @ t=0.58
-5.149742543995263
% es.tEx (V/m) @ t=0.58
2.2546956766741513
% es.tEy (V/m) @ t=0.58
0
% es.tEz (V/m) @ t=0.58
-5.149742543995281
% V (V) @ t=0.58
0.028285593823482478
% es.normE (V/m) @ t=0.6
5.734464389536171
% es.EX (V/m) @ t=0.6
2.2854121350010503
% es.EY (V/m) @ t=0.6
0.6042499314558771
% es.EZ (V/m) @ t=0.6
-5.21990790986796
% es.tEX (V/m) @ t=0.6
2.2854121350010512
% es.tEY (V/m) @ t=0.6
0
% es.tEZ (V/m) @ t=0.6
-5.21990790986797
% es.Ex (V/m) @ t=0.6
2.2854121350010503
% es.Ey (V/m) @ t=0.6
0.6042499314558771
% es.Ez (V/m) @ t=0.6
-5.21990790986796
% es.tEx (V/m) @ t=0.6
2.2854121350010512
% es.tEy (V/m) @ t=0.6
0
% es.tEz (V/m) @ t=0.6
-5.21990790986797
% V (V) @ t=0.6
0.028671379756136126
% es.normE (V/m) @ t=0.62
5.811544414196694
% es.EX (V/m) @ t=0.62
2.3161285933279503
% es.EY (V/m) @ t=0.62
0.6123635315910914
% es.EZ (V/m) @ t=0.62
-5.290073275740639
% es.tEX (V/m) @ t=0.62
2.316128593327951
% es.tEY (V/m) @ t=0.62
0
% es.tEZ (V/m) @ t=0.62
-5.290073275740639
% es.Ex (V/m) @ t=0.62
2.3161285933279503
% es.Ey (V/m) @ t=0.62
0.6123635315910914
% es.Ez (V/m) @ t=0.62
-5.290073275740639
% es.tEx (V/m) @ t=0.62
2.316128593327951
% es.tEy (V/m) @ t=0.62
0
% es.tEz (V/m) @ t=0.62
-5.290073275740639
% V (V) @ t=0.62
0.029057165688789775
% es.normE (V/m) @ t=0.64
5.888624438896665
% es.EX (V/m) @ t=0.64
2.3468450516548787
% es.EY (V/m) @ t=0.64
0.6204771317262736
% es.EZ (V/m) @ t=0.64
-5.360238641613318
% es.tEX (V/m) @ t=0.64
2.3468450516548796
% es.tEY (V/m) @ t=0.64
0
% es.tEZ (V/m) @ t=0.64
-5.360238641613336
% es.Ex (V/m) @ t=0.64
2.3468450516548787
% es.Ey (V/m) @ t=0.64
0.6204771317262736
% es.Ez (V/m) @ t=0.64
-5.360238641613318
% es.tEx (V/m) @ t=0.64
2.3468450516548796
% es.tEy (V/m) @ t=0.64
0
% es.tEz (V/m) @ t=0.64
-5.360238641613336
% V (V) @ t=0.64
0.029442951621443423
% es.normE (V/m) @ t=0.66
5.965704463634548
% es.EX (V/m) @ t=0.66
2.377561509981777
% es.EY (V/m) @ t=0.66
0.628590731861518
% es.EZ (V/m) @ t=0.66
-5.4304040074860005
% es.tEX (V/m) @ t=0.66
2.3775615099817777
% es.tEY (V/m) @ t=0.66
0
% es.tEZ (V/m) @ t=0.66
-5.430404007486011
% es.Ex (V/m) @ t=0.66
2.377561509981777
% es.Ey (V/m) @ t=0.66
0.628590731861518
% es.Ez (V/m) @ t=0.66
-5.4304040074860005
% es.tEx (V/m) @ t=0.66
2.3775615099817777
% es.tEy (V/m) @ t=0.66
0
% es.tEz (V/m) @ t=0.66
-5.430404007486011
% V (V) @ t=0.66
0.02982873755409707
% es.normE (V/m) @ t=0.68
6.042784488408893
% es.EX (V/m) @ t=0.68
2.408277968308691
% es.EY (V/m) @ t=0.68
0.6367043319966559
% es.EZ (V/m) @ t=0.68
-5.50056937335869
% es.tEX (V/m) @ t=0.68
2.4082779683086777
% es.tEY (V/m) @ t=0.68
0
% es.tEZ (V/m) @ t=0.68
-5.500569373358694
% es.Ex (V/m) @ t=0.68
2.408277968308691
% es.Ey (V/m) @ t=0.68
0.6367043319966559
% es.Ez (V/m) @ t=0.68
-5.50056937335869
% es.tEx (V/m) @ t=0.68
2.4082779683086777
% es.tEy (V/m) @ t=0.68
0
% es.tEz (V/m) @ t=0.68
-5.500569373358694
% V (V) @ t=0.68
0.030214523486750723
% es.normE (V/m) @ t=0.7
6.119864513218319
% es.EX (V/m) @ t=0.7
2.438994426635632
% es.EY (V/m) @ t=0.7
0.644817932131831
% es.EZ (V/m) @ t=0.7
-5.570734739231359
% es.tEX (V/m) @ t=0.7
2.4389944266356327
% es.tEY (V/m) @ t=0.7
0
% es.tEZ (V/m) @ t=0.7
-5.5707347392313835
% es.Ex (V/m) @ t=0.7
2.438994426635632
% es.Ey (V/m) @ t=0.7
0.644817932131831
% es.Ez (V/m) @ t=0.7
-5.570734739231359
% es.tEx (V/m) @ t=0.7
2.4389944266356327
% es.tEy (V/m) @ t=0.7
0
% es.tEz (V/m) @ t=0.7
-5.5707347392313835
% V (V) @ t=0.7
0.030600309419404365
% es.normE (V/m) @ t=0.72
6.19694453806151
% es.EX (V/m) @ t=0.72
2.469710884962475
% es.EY (V/m) @ t=0.72
0.6529315322670453
% es.EZ (V/m) @ t=0.72
-5.6409001051040555
% es.tEX (V/m) @ t=0.72
2.469710884962476
% es.tEY (V/m) @ t=0.72
0
% es.tEZ (V/m) @ t=0.72
-5.640900105104066
% es.Ex (V/m) @ t=0.72
2.469710884962475
% es.Ey (V/m) @ t=0.72
0.6529315322670453
% es.Ez (V/m) @ t=0.72
-5.6409001051040555
% es.tEx (V/m) @ t=0.72
2.469710884962476
% es.tEy (V/m) @ t=0.72
0
% es.tEz (V/m) @ t=0.72
-5.640900105104066
% V (V) @ t=0.72
0.030986095352058013
% es.normE (V/m) @ t=0.74
6.274025525286801
% es.EX (V/m) @ t=0.74
2.5004277278851825
% es.EY (V/m) @ t=0.74
0.6610452368135142
% es.EZ (V/m) @ t=0.74
-5.711066346345735
% es.tEX (V/m) @ t=0.74
2.500427727885169
% es.tEY (V/m) @ t=0.74
0
% es.tEZ (V/m) @ t=0.74
-5.711066346345746
% es.Ex (V/m) @ t=0.74
2.5004277278851825
% es.Ey (V/m) @ t=0.74
0.6610452368135142
% es.Ez (V/m) @ t=0.74
-5.711066346345735
% es.tEx (V/m) @ t=0.74
2.500427727885169
% es.tEy (V/m) @ t=0.74
0
% es.tEz (V/m) @ t=0.74
-5.711066346345746
% V (V) @ t=0.74
0.03137188595495084
% es.normE (V/m) @ t=0.76
6.35552852923518
% es.EX (V/m) @ t=0.76
2.5329117967842807
% es.EY (V/m) @ t=0.76
0.6696387131153827
% es.EZ (V/m) @ t=0.76
-5.7852549267554245
% es.tEX (V/m) @ t=0.76
2.5329117967842816
% es.tEY (V/m) @ t=0.76
0
% es.tEZ (V/m) @ t=0.76
-5.785254926755428
% es.Ex (V/m) @ t=0.76
2.5329117967842807
% es.Ey (V/m) @ t=0.76
0.6696387131153827
% es.Ez (V/m) @ t=0.76
-5.7852549267554245
% es.tEx (V/m) @ t=0.76
2.5329117967842816
% es.tEy (V/m) @ t=0.76
0
% es.tEz (V/m) @ t=0.76
-5.785254926755428
% V (V) @ t=0.76
0.03177913640535986
% es.normE (V/m) @ t=0.78
6.437031533202463
% es.EX (V/m) @ t=0.78
2.565395865683336
% es.EY (V/m) @ t=0.78
0.6782321894172476
% es.EZ (V/m) @ t=0.78
-5.8594435071650715
% es.tEX (V/m) @ t=0.78
2.565395865683337
% es.tEY (V/m) @ t=0.78
0
% es.tEZ (V/m) @ t=0.78
-5.859443507165082
% es.Ex (V/m) @ t=0.78
2.565395865683336
% es.Ey (V/m) @ t=0.78
0.6782321894172476
% es.Ez (V/m) @ t=0.78
-5.8594435071650715
% es.tEx (V/m) @ t=0.78
2.565395865683337
% es.tEy (V/m) @ t=0.78
0
% es.tEz (V/m) @ t=0.78
-5.859443507165082
% V (V) @ t=0.78
0.03218638685576889
% es.normE (V/m) @ t=0.8
6.518534537188049
% es.EX (V/m) @ t=0.8
2.5978799345823917
% es.EY (V/m) @ t=0.8
0.6868256657191676
% es.EZ (V/m) @ t=0.8
-5.933632087574768
% es.tEX (V/m) @ t=0.8
2.5978799345823926
% es.tEY (V/m) @ t=0.8
0
% es.tEZ (V/m) @ t=0.8
-5.933632087574793
% es.Ex (V/m) @ t=0.8
2.5978799345823917
% es.Ey (V/m) @ t=0.8
0.6868256657191676
% es.Ez (V/m) @ t=0.8
-5.933632087574768
% es.tEx (V/m) @ t=0.8
2.5978799345823926
% es.tEy (V/m) @ t=0.8
0
% es.tEz (V/m) @ t=0.8
-5.933632087574793
% V (V) @ t=0.8
0.03259363730617791
% es.normE (V/m) @ t=0.82
6.600037541191185
% es.EX (V/m) @ t=0.82
2.63036400348149
% es.EY (V/m) @ t=0.82
0.6954191420210112
% es.EZ (V/m) @ t=0.82
-6.007820667984429
% es.tEX (V/m) @ t=0.82
2.630364003481505
% es.tEY (V/m) @ t=0.82
0
% es.tEZ (V/m) @ t=0.82
-6.007820667984447
% es.Ex (V/m) @ t=0.82
2.63036400348149
% es.Ey (V/m) @ t=0.82
0.6954191420210112
% es.Ez (V/m) @ t=0.82
-6.007820667984429
% es.tEx (V/m) @ t=0.82
2.630364003481505
% es.tEy (V/m) @ t=0.82
0
% es.tEz (V/m) @ t=0.82
-6.007820667984447
% V (V) @ t=0.82
0.03300088775658694
% es.normE (V/m) @ t=0.84
6.68154054521122
% es.EX (V/m) @ t=0.84
2.662848072380503
% es.EY (V/m) @ t=0.84
0.7040126183229152
% es.EZ (V/m) @ t=0.84
-6.082009248394083
% es.tEX (V/m) @ t=0.84
2.6628480723805037
% es.tEY (V/m) @ t=0.84
0
% es.tEZ (V/m) @ t=0.84
-6.082009248394094
% es.Ex (V/m) @ t=0.84
2.662848072380503
% es.Ey (V/m) @ t=0.84
0.7040126183229152
% es.Ez (V/m) @ t=0.84
-6.082009248394083
% es.tEx (V/m) @ t=0.84
2.6628480723805037
% es.tEy (V/m) @ t=0.84
0
% es.tEz (V/m) @ t=0.84
-6.082009248394094
% V (V) @ t=0.84
0.03340813820699595
% es.normE (V/m) @ t=0.86
6.763043549247589
% es.EX (V/m) @ t=0.86
2.695332141279546
% es.EY (V/m) @ t=0.86
0.7126060946247836
% es.EZ (V/m) @ t=0.86
-6.156197828803744
% es.tEX (V/m) @ t=0.86
2.6953321412795326
% es.tEY (V/m) @ t=0.86
0
% es.tEZ (V/m) @ t=0.86
-6.156197828803748
% es.Ex (V/m) @ t=0.86
2.695332141279546
% es.Ey (V/m) @ t=0.86
0.7126060946247836
% es.Ez (V/m) @ t=0.86
-6.156197828803744
% es.tEx (V/m) @ t=0.86
2.6953321412795326
% es.tEy (V/m) @ t=0.86
0
% es.tEz (V/m) @ t=0.86
-6.156197828803748
% V (V) @ t=0.86
0.03381538865740497
% es.normE (V/m) @ t=0.88
6.844546553299729
% es.EX (V/m) @ t=0.88
2.727816210178628
% es.EY (V/m) @ t=0.88
0.7211995709266983
% es.EZ (V/m) @ t=0.88
-6.23038640921342
% es.tEX (V/m) @ t=0.88
2.7278162101786148
% es.tEY (V/m) @ t=0.88
0
% es.tEZ (V/m) @ t=0.88
-6.2303864092134305
% es.Ex (V/m) @ t=0.88
2.727816210178628
% es.Ey (V/m) @ t=0.88
0.7211995709266983
% es.Ez (V/m) @ t=0.88
-6.23038640921342
% es.tEx (V/m) @ t=0.88
2.7278162101786148
% es.tEy (V/m) @ t=0.88
0
% es.tEz (V/m) @ t=0.88
-6.2303864092134305
% V (V) @ t=0.88
0.03422263910781399
% es.normE (V/m) @ t=0.9
6.9260495573670084
% es.EX (V/m) @ t=0.9
2.760300279077671
% es.EY (V/m) @ t=0.9
0.7297930472285543
% es.EZ (V/m) @ t=0.9
-6.304574989623074
% es.tEX (V/m) @ t=0.9
2.760300279077672
% es.tEY (V/m) @ t=0.9
0
% es.tEZ (V/m) @ t=0.9
-6.3045749896230845
% es.Ex (V/m) @ t=0.9
2.760300279077671
% es.Ey (V/m) @ t=0.9
0.7297930472285543
% es.Ez (V/m) @ t=0.9
-6.304574989623074
% es.tEx (V/m) @ t=0.9
2.760300279077672
% es.tEy (V/m) @ t=0.9
0
% es.tEz (V/m) @ t=0.9
-6.3045749896230845
% V (V) @ t=0.9
0.03462988955822301
% es.normE (V/m) @ t=0.92
7.007552561448959
% es.EX (V/m) @ t=0.92
2.7927843479767125
% es.EY (V/m) @ t=0.92
0.7383865235304299
% es.EZ (V/m) @ t=0.92
-6.378763570032749
% es.tEX (V/m) @ t=0.92
2.792784347976699
% es.tEY (V/m) @ t=0.92
0
% es.tEZ (V/m) @ t=0.92
-6.378763570032774
% es.Ex (V/m) @ t=0.92
2.7927843479767125
% es.Ey (V/m) @ t=0.92
0.7383865235304299
% es.Ez (V/m) @ t=0.92
-6.378763570032749
% es.tEx (V/m) @ t=0.92
2.792784347976699
% es.tEy (V/m) @ t=0.92
0
% es.tEz (V/m) @ t=0.92
-6.378763570032774
% V (V) @ t=0.92
0.035037140008632034
% es.normE (V/m) @ t=0.94
7.08960591813724
% es.EX (V/m) @ t=0.94
2.8254869594659837
% es.EY (V/m) @ t=0.94
0.7470357249675423
% es.EZ (V/m) @ t=0.94
-6.45345359136202
% es.tEX (V/m) @ t=0.94
2.8254869594659855
% es.tEY (V/m) @ t=0.94
0
% es.tEZ (V/m) @ t=0.94
-6.453453591362056
% es.Ex (V/m) @ t=0.94
2.8254869594659837
% es.Ey (V/m) @ t=0.94
0.7470357249675423
% es.Ez (V/m) @ t=0.94
-6.45345359136202
% es.tEx (V/m) @ t=0.94
2.8254869594659855
% es.tEy (V/m) @ t=0.94
0
% es.tEz (V/m) @ t=0.94
-6.453453591362056
% V (V) @ t=0.94
0.03544724824469959
% es.normE (V/m) @ t=0.96
7.173766297687983
% es.EX (V/m) @ t=0.96
2.859026260447643
% es.EY (V/m) @ t=0.96
0.7558982698775178
% es.EZ (V/m) @ t=0.96
-6.530063377383673
% es.tEX (V/m) @ t=0.96
2.859026260447644
% es.tEY (V/m) @ t=0.96
0
% es.tEZ (V/m) @ t=0.96
-6.530063377383698
% es.Ex (V/m) @ t=0.96
2.859026260447643
% es.Ey (V/m) @ t=0.96
0.7558982698775178
% es.Ez (V/m) @ t=0.96
-6.530063377383673
% es.tEx (V/m) @ t=0.96
2.859026260447644
% es.tEy (V/m) @ t=0.96
0
% es.tEz (V/m) @ t=0.96
-6.530063377383698
% V (V) @ t=0.96
0.03586829750251239
% es.normE (V/m) @ t=0.98
7.257926677252108
% es.EX (V/m) @ t=0.98
2.892565561429328
% es.EY (V/m) @ t=0.98
0.7647608147874756
% es.EZ (V/m) @ t=0.98
-6.606673163405279
% es.tEX (V/m) @ t=0.98
2.892565561429329
% es.tEY (V/m) @ t=0.98
0
% es.tEZ (V/m) @ t=0.98
-6.606673163405283
% es.Ex (V/m) @ t=0.98
2.892565561429328
% es.Ey (V/m) @ t=0.98
0.7647608147874756
% es.Ez (V/m) @ t=0.98
-6.606673163405279
% es.tEx (V/m) @ t=0.98
2.892565561429329
% es.tEy (V/m) @ t=0.98
0
% es.tEz (V/m) @ t=0.98
-6.606673163405283
% V (V) @ t=0.98
0.036289346760325206
% es.normE (V/m) @ t=1
7.342087056829188
% es.EX (V/m) @ t=1
2.9261048624109867
% es.EY (V/m) @ t=1
0.7736233596974014
% es.EZ (V/m) @ t=1
-6.683282949426893
% es.tEX (V/m) @ t=1
2.9261048624109876
% es.tEY (V/m) @ t=1
0
% es.tEZ (V/m) @ t=1
-6.683282949426932
% es.Ex (V/m) @ t=1
2.9261048624109867
% es.Ey (V/m) @ t=1
0.7736233596974014
% es.Ez (V/m) @ t=1
-6.683282949426893
% es.tEx (V/m) @ t=1
2.9261048624109876
% es.tEy (V/m) @ t=1
0
% es.tEz (V/m) @ t=1
-6.683282949426932
% V (V) @ t=1
0.03671039601813802
% es.normE (V/m) @ t=1.02
7.426247436418817
% es.EX (V/m) @ t=1.02
2.9596441633926434
% es.EY (V/m) @ t=1.02
0.7824859046073378
% es.EZ (V/m) @ t=1.02
-6.759892735448535
% es.tEX (V/m) @ t=1.02
2.9596441633926442
% es.tEY (V/m) @ t=1.02
0
% es.tEZ (V/m) @ t=1.02
-6.759892735448524
% es.Ex (V/m) @ t=1.02
2.9596441633926434
% es.Ey (V/m) @ t=1.02
0.7824859046073378
% es.Ez (V/m) @ t=1.02
-6.759892735448535
% es.tEx (V/m) @ t=1.02
2.9596441633926442
% es.tEy (V/m) @ t=1.02
0
% es.tEz (V/m) @ t=1.02
-6.759892735448524
% V (V) @ t=1.02
0.03713144527595083
% es.normE (V/m) @ t=1.04
7.510407816020496
% es.EX (V/m) @ t=1.04
2.9931834643742725
% es.EY (V/m) @ t=1.04
0.7913484495172796
% es.EZ (V/m) @ t=1.04
-6.836502521470141
% es.tEX (V/m) @ t=1.04
2.9931834643742743
% es.tEY (V/m) @ t=1.04
0
% es.tEZ (V/m) @ t=1.04
-6.836502521470166
% es.Ex (V/m) @ t=1.04
2.9931834643742725
% es.Ey (V/m) @ t=1.04
0.7913484495172796
% es.Ez (V/m) @ t=1.04
-6.836502521470141
% es.tEx (V/m) @ t=1.04
2.9931834643742743
% es.tEy (V/m) @ t=1.04
0
% es.tEz (V/m) @ t=1.04
-6.836502521470166