% Model:              1 neuron.mph
% Version:            COMSOL 6.0.0.405
% Date:               Mar 16 2023, 19:07
% Dimension:          0
% Nodes:              14017
% Expressions:        14017
% Description:        Electric field norm, Electric field, X component, Electric field, Y component, Electric field, Z component, Tangential electric field, X component, Tangential electric field, Y component, Tangential electric field, Z component, Electric field, x component, Electric field, y component, Electric field, z component, Tangential electric field, x component, Tangential electric field, y component, Tangential electric field, z component, Electric potential
% Length unit:        mm
% x
1.33
% y
12.2
% z
1
% es.normE (V/m) @ t=0
2.3212019697937705
% es.EX (V/m) @ t=0
0.7164704972480249
% es.EY (V/m) @ t=0
0.17357436520009173
% es.EZ (V/m) @ t=0
2.2010112537451945
% es.tEX (V/m) @ t=0
0.7164704972480322
% es.tEY (V/m) @ t=0
0
% es.tEZ (V/m) @ t=0
2.2010112537451914
% es.Ex (V/m) @ t=0
0.7164704972480249
% es.Ey (V/m) @ t=0
0.17357436520009173
% es.Ez (V/m) @ t=0
2.2010112537451945
% es.tEx (V/m) @ t=0
0.7164704972480322
% es.tEy (V/m) @ t=0
0
% es.tEz (V/m) @ t=0
2.2010112537451914
% V (V) @ t=0
0.010856327014237138
% es.normE (V/m) @ t=0.02
2.0159843818105703
% es.EX (V/m) @ t=0.02
0.6222609523035875
% es.EY (V/m) @ t=0.02
0.1507508623143946
% es.EZ (V/m) @ t=0.02
1.9115976830859718
% es.tEX (V/m) @ t=0.02
0.6222609523035842
% es.tEY (V/m) @ t=0.02
0
% es.tEZ (V/m) @ t=0.02
1.9115976830859704
% es.Ex (V/m) @ t=0.02
0.6222609523035875
% es.Ey (V/m) @ t=0.02
0.1507508623143946
% es.Ez (V/m) @ t=0.02
1.9115976830859718
% es.tEx (V/m) @ t=0.02
0.6222609523035842
% es.tEy (V/m) @ t=0.02
0
% es.tEz (V/m) @ t=0.02
1.9115976830859704
% V (V) @ t=0.02
0.009428814791125518
% es.normE (V/m) @ t=0.04
2.0458811004331054
% es.EX (V/m) @ t=0.04
0.6314889852292169
% es.EY (V/m) @ t=0.04
0.1529864691845364
% es.EZ (V/m) @ t=0.04
1.9399463627651374
% es.tEX (V/m) @ t=0.04
0.6314889852292183
% es.tEY (V/m) @ t=0.04
0
% es.tEZ (V/m) @ t=0.04
1.9399463627651432
% es.Ex (V/m) @ t=0.04
0.6314889852292169
% es.Ey (V/m) @ t=0.04
0.1529864691845364
% es.Ez (V/m) @ t=0.04
1.9399463627651374
% es.tEx (V/m) @ t=0.04
0.6314889852292183
% es.tEy (V/m) @ t=0.04
0
% es.tEz (V/m) @ t=0.04
1.9399463627651432
% V (V) @ t=0.04
0.009568641783204454
% es.normE (V/m) @ t=0.06
2.076213851718117
% es.EX (V/m) @ t=0.06
0.6408515948815134
% es.EY (V/m) @ t=0.06
0.155254690037685
% es.EZ (V/m) @ t=0.06
1.9687085003879785
% es.tEX (V/m) @ t=0.06
0.6408515948815179
% es.tEY (V/m) @ t=0.06
0
% es.tEZ (V/m) @ t=0.06
1.9687085003879723
% es.Ex (V/m) @ t=0.06
0.6408515948815134
% es.Ey (V/m) @ t=0.06
0.155254690037685
% es.Ez (V/m) @ t=0.06
1.9687085003879785
% es.tEx (V/m) @ t=0.06
0.6408515948815179
% es.tEy (V/m) @ t=0.06
0
% es.tEz (V/m) @ t=0.06
1.9687085003879723
% V (V) @ t=0.06
0.009710509876559964
% es.normE (V/m) @ t=0.08
2.107350173073928
% es.EX (V/m) @ t=0.08
0.6504622417297737
% es.EY (V/m) @ t=0.08
0.15758299692600564
% es.EZ (V/m) @ t=0.08
1.9982325984224865
% es.tEX (V/m) @ t=0.08
0.6504622417297767
% es.tEY (V/m) @ t=0.08
0
% es.tEZ (V/m) @ t=0.08
1.9982325984224882
% es.Ex (V/m) @ t=0.08
0.6504622417297737
% es.Ey (V/m) @ t=0.08
0.15758299692600564
% es.Ez (V/m) @ t=0.08
1.9982325984224865
% es.tEx (V/m) @ t=0.08
0.6504622417297767
% es.tEy (V/m) @ t=0.08
0
% es.tEz (V/m) @ t=0.08
1.9982325984224882
% V (V) @ t=0.08
0.009856135615042567
% es.normE (V/m) @ t=0.1
2.13898508940284
% es.EX (V/m) @ t=0.1
0.660226789405774
% es.EY (V/m) @ t=0.1
0.15994858568450432
% es.EZ (V/m) @ t=0.1
2.028229473685477
% es.tEX (V/m) @ t=0.1
0.6602267894057832
% es.tEY (V/m) @ t=0.1
0
% es.tEZ (V/m) @ t=0.1
2.0282294736854727
% es.Ex (V/m) @ t=0.1
0.660226789405774
% es.Ey (V/m) @ t=0.1
0.15994858568450432
% es.Ez (V/m) @ t=0.1
2.028229473685477
% es.tEx (V/m) @ t=0.1
0.6602267894057832
% es.tEy (V/m) @ t=0.1
0
% es.tEz (V/m) @ t=0.1
2.0282294736854727
% V (V) @ t=0.1
0.010004092877606736
% es.normE (V/m) @ t=0.12
2.1706200057317764
% es.EX (V/m) @ t=0.12
0.6699913370817723
% es.EY (V/m) @ t=0.12
0.162314174443009
% es.EZ (V/m) @ t=0.12
2.0582263489484927
% es.tEX (V/m) @ t=0.12
0.6699913370817683
% es.tEY (V/m) @ t=0.12
0
% es.tEZ (V/m) @ t=0.12
2.0582263489484873
% es.Ex (V/m) @ t=0.12
0.6699913370817723
% es.Ey (V/m) @ t=0.12
0.162314174443009
% es.Ez (V/m) @ t=0.12
2.0582263489484927
% es.tEx (V/m) @ t=0.12
0.6699913370817683
% es.tEy (V/m) @ t=0.12
0
% es.tEz (V/m) @ t=0.12
2.0582263489484873
% V (V) @ t=0.12
0.010152050140170902
% es.normE (V/m) @ t=0.14
2.2029434459983293
% es.EX (V/m) @ t=0.14
0.6799684100439767
% es.EY (V/m) @ t=0.14
0.16473124706948072
% es.EZ (V/m) @ t=0.14
2.088876095910095
% es.tEX (V/m) @ t=0.14
0.6799684100439762
% es.tEY (V/m) @ t=0.14
0
% es.tEZ (V/m) @ t=0.14
2.088876095910093
% es.Ex (V/m) @ t=0.14
0.6799684100439767
% es.Ey (V/m) @ t=0.14
0.16473124706948072
% es.Ez (V/m) @ t=0.14
2.088876095910095
% es.tEx (V/m) @ t=0.14
0.6799684100439762
% es.tEy (V/m) @ t=0.14
0
% es.tEz (V/m) @ t=0.14
2.088876095910093
% V (V) @ t=0.14
0.010303227144813815
% es.normE (V/m) @ t=0.16
2.2373991637390485
% es.EX (V/m) @ t=0.16
0.6906036487658714
% es.EY (V/m) @ t=0.16
0.1673077591662695
% es.EZ (V/m) @ t=0.16
2.1215477095641435
% es.tEX (V/m) @ t=0.16
0.6906036487658795
% es.tEY (V/m) @ t=0.16
0
% es.tEZ (V/m) @ t=0.16
2.1215477095641457
% es.Ex (V/m) @ t=0.16
0.6906036487658714
% es.Ey (V/m) @ t=0.16
0.1673077591662695
% es.Ez (V/m) @ t=0.16
2.1215477095641435
% es.tEx (V/m) @ t=0.16
0.6906036487658795
% es.tEy (V/m) @ t=0.16
0
% es.tEz (V/m) @ t=0.16
2.1215477095641457
% V (V) @ t=0.16
0.010464375311143855
% es.normE (V/m) @ t=0.18
2.27185488147979
% es.EX (V/m) @ t=0.18
0.7012388874877827
% es.EY (V/m) @ t=0.18
0.1698842712630556
% es.EZ (V/m) @ t=0.18
2.1542193232182103
% es.tEX (V/m) @ t=0.18
0.70123888748779
% es.tEY (V/m) @ t=0.18
0
% es.tEZ (V/m) @ t=0.18
2.1542193232181983
% es.Ex (V/m) @ t=0.18
0.7012388874877827
% es.Ey (V/m) @ t=0.18
0.1698842712630556
% es.Ez (V/m) @ t=0.18
2.1542193232182103
% es.tEx (V/m) @ t=0.18
0.70123888748779
% es.tEy (V/m) @ t=0.18
0
% es.tEz (V/m) @ t=0.18
2.1542193232181983
% V (V) @ t=0.18
0.010625523477473895
% es.normE (V/m) @ t=0.2
2.306310599220523
% es.EX (V/m) @ t=0.2
0.7118741262096897
% es.EY (V/m) @ t=0.2
0.1724607833598435
% es.EZ (V/m) @ t=0.2
2.1868909368722695
% es.tEX (V/m) @ t=0.2
0.7118741262096933
% es.tEY (V/m) @ t=0.2
0
% es.tEZ (V/m) @ t=0.2
2.186890936872267
% es.Ex (V/m) @ t=0.2
0.7118741262096897
% es.Ey (V/m) @ t=0.2
0.1724607833598435
% es.Ez (V/m) @ t=0.2
2.1868909368722695
% es.tEx (V/m) @ t=0.2
0.7118741262096933
% es.tEy (V/m) @ t=0.2
0
% es.tEz (V/m) @ t=0.2
2.186890936872267
% V (V) @ t=0.2
0.010786671643803935
% es.normE (V/m) @ t=0.22
2.340766316961263
% es.EX (V/m) @ t=0.22
0.7225093649315892
% es.EY (V/m) @ t=0.22
0.1750372954566407
% es.EZ (V/m) @ t=0.22
2.2195625505263377
% es.tEX (V/m) @ t=0.22
0.7225093649315895
% es.tEY (V/m) @ t=0.22
0
% es.tEZ (V/m) @ t=0.22
2.2195625505263603
% es.Ex (V/m) @ t=0.22
0.7225093649315892
% es.Ey (V/m) @ t=0.22
0.1750372954566407
% es.Ez (V/m) @ t=0.22
2.2195625505263377
% es.tEx (V/m) @ t=0.22
0.7225093649315895
% es.tEy (V/m) @ t=0.22
0
% es.tEz (V/m) @ t=0.22
2.2195625505263603
% V (V) @ t=0.22
0.010947819810133973
% es.normE (V/m) @ t=0.24
2.3752220347019906
% es.EX (V/m) @ t=0.24
0.7331446036534961
% es.EY (V/m) @ t=0.24
0.17761380755341305
% es.EZ (V/m) @ t=0.24
2.2522341641803916
% es.tEX (V/m) @ t=0.24
0.733144603653507
% es.tEY (V/m) @ t=0.24
0
% es.tEZ (V/m) @ t=0.24
2.2522341641804253
% es.Ex (V/m) @ t=0.24
0.7331446036534961
% es.Ey (V/m) @ t=0.24
0.17761380755341305
% es.Ez (V/m) @ t=0.24
2.2522341641803916
% es.tEx (V/m) @ t=0.24
0.733144603653507
% es.tEy (V/m) @ t=0.24
0
% es.tEz (V/m) @ t=0.24
2.2522341641804253
% V (V) @ t=0.24
0.011108967976464013
% es.normE (V/m) @ t=0.26
2.4096777524427324
% es.EX (V/m) @ t=0.26
0.7437798423754037
% es.EY (V/m) @ t=0.26
0.18019031965020693
% es.EZ (V/m) @ t=0.26
2.284905777834459
% es.tEX (V/m) @ t=0.26
0.7437798423754032
% es.tEY (V/m) @ t=0.26
0
% es.tEZ (V/m) @ t=0.26
2.2849057778344655
% es.Ex (V/m) @ t=0.26
0.7437798423754037
% es.Ey (V/m) @ t=0.26
0.18019031965020693
% es.Ez (V/m) @ t=0.26
2.284905777834459
% es.tEx (V/m) @ t=0.26
0.7437798423754032
% es.tEy (V/m) @ t=0.26
0
% es.tEz (V/m) @ t=0.26
2.2849057778344655
% V (V) @ t=0.26
0.011270116142794051
% es.normE (V/m) @ t=0.28
2.4456492180380005
% es.EX (V/m) @ t=0.28
0.7548829349979451
% es.EY (V/m) @ t=0.28
0.18288017774650356
% es.EZ (V/m) @ t=0.28
2.3190146552550663
% es.tEX (V/m) @ t=0.28
0.7548829349979442
% es.tEY (V/m) @ t=0.28
0
% es.tEZ (V/m) @ t=0.28
2.319014655255078
% es.Ex (V/m) @ t=0.28
0.7548829349979451
% es.Ey (V/m) @ t=0.28
0.18288017774650356
% es.Ez (V/m) @ t=0.28
2.3190146552550663
% es.tEx (V/m) @ t=0.28
0.7548829349979442
% es.tEy (V/m) @ t=0.28
0
% es.tEz (V/m) @ t=0.28
2.319014655255078
% V (V) @ t=0.28
0.011438353861108964
% es.normE (V/m) @ t=0.3
2.4831482517559205
% es.EX (V/m) @ t=0.3
0.7664575299897998
% es.EY (V/m) @ t=0.3
0.18568426574925612
% es.EZ (V/m) @ t=0.3
2.3545720046672702
% es.tEX (V/m) @ t=0.3
0.7664575299898075
% es.tEY (V/m) @ t=0.3
0
% es.tEZ (V/m) @ t=0.3
2.3545720046672685
% es.Ex (V/m) @ t=0.3
0.7664575299897998
% es.Ey (V/m) @ t=0.3
0.18568426574925612
% es.Ez (V/m) @ t=0.3
2.3545720046672702
% es.tEx (V/m) @ t=0.3
0.7664575299898075
% es.tEy (V/m) @ t=0.3
0
% es.tEz (V/m) @ t=0.3
2.3545720046672685
% V (V) @ t=0.3
0.011613736417916388
% es.normE (V/m) @ t=0.32
2.520647285473836
% es.EX (V/m) @ t=0.32
0.7780321249816435
% es.EY (V/m) @ t=0.32
0.18848835375197637
% es.EZ (V/m) @ t=0.32
2.3901293540794755
% es.tEX (V/m) @ t=0.32
0.7780321249816424
% es.tEY (V/m) @ t=0.32
0
% es.tEZ (V/m) @ t=0.32
2.3901293540794875
% es.Ex (V/m) @ t=0.32
0.7780321249816435
% es.Ey (V/m) @ t=0.32
0.18848835375197637
% es.Ez (V/m) @ t=0.32
2.3901293540794755
% es.tEx (V/m) @ t=0.32
0.7780321249816424
% es.tEy (V/m) @ t=0.32
0
% es.tEz (V/m) @ t=0.32
2.3901293540794875
% V (V) @ t=0.32
0.011789118974723817
% es.normE (V/m) @ t=0.34
2.5581463191917715
% es.EX (V/m) @ t=0.34
0.789606719973502
% es.EY (V/m) @ t=0.34
0.1912924417547276
% es.EZ (V/m) @ t=0.34
2.4256867034916954
% es.tEX (V/m) @ t=0.34
0.7896067199735128
% es.tEY (V/m) @ t=0.34
0
% es.tEZ (V/m) @ t=0.34
2.4256867034916816
% es.Ex (V/m) @ t=0.34
0.789606719973502
% es.Ey (V/m) @ t=0.34
0.1912924417547276
% es.Ez (V/m) @ t=0.34
2.4256867034916954
% es.tEx (V/m) @ t=0.34
0.7896067199735128
% es.tEy (V/m) @ t=0.34
0
% es.tEz (V/m) @ t=0.34
2.4256867034916816
% V (V) @ t=0.34
0.011964501531531245
% es.normE (V/m) @ t=0.36
2.595645352909674
% es.EX (V/m) @ t=0.36
0.8011813149653534
% es.EY (V/m) @ t=0.36
0.19409652975744363
% es.EZ (V/m) @ t=0.36
2.461244052903884
% es.tEX (V/m) @ t=0.36
0.8011813149653477
% es.tEY (V/m) @ t=0.36
0
% es.tEZ (V/m) @ t=0.36
2.4612440529038704
% es.Ex (V/m) @ t=0.36
0.8011813149653534
% es.Ey (V/m) @ t=0.36
0.19409652975744363
% es.Ez (V/m) @ t=0.36
2.461244052903884
% es.tEx (V/m) @ t=0.36
0.8011813149653477
% es.tEy (V/m) @ t=0.36
0
% es.tEz (V/m) @ t=0.36
2.4612440529038704
% V (V) @ t=0.36
0.01213988408833867
% es.normE (V/m) @ t=0.38
2.633144386627606
% es.EX (V/m) @ t=0.38
0.8127559099572115
% es.EY (V/m) @ t=0.38
0.19690061776020606
% es.EZ (V/m) @ t=0.38
2.4968014023160996
% es.tEX (V/m) @ t=0.38
0.8127559099572181
% es.tEY (V/m) @ t=0.38
0
% es.tEZ (V/m) @ t=0.38
2.496801402316093
% es.Ex (V/m) @ t=0.38
0.8127559099572115
% es.Ey (V/m) @ t=0.38
0.19690061776020606
% es.Ez (V/m) @ t=0.38
2.4968014023160996
% es.tEx (V/m) @ t=0.38
0.8127559099572181
% es.tEy (V/m) @ t=0.38
0
% es.tEz (V/m) @ t=0.38
2.496801402316093
% V (V) @ t=0.38
0.012315266645146096
% es.normE (V/m) @ t=0.4
2.670643420345517
% es.EX (V/m) @ t=0.4
0.824330504949067
% es.EY (V/m) @ t=0.4
0.19970470576293953
% es.EZ (V/m) @ t=0.4
2.532358751728295
% es.tEX (V/m) @ t=0.4
0.8243305049490672
% es.tEY (V/m) @ t=0.4
0
% es.tEZ (V/m) @ t=0.4
2.5323587517282995
% es.Ex (V/m) @ t=0.4
0.824330504949067
% es.Ey (V/m) @ t=0.4
0.19970470576293953
% es.Ez (V/m) @ t=0.4
2.532358751728295
% es.tEx (V/m) @ t=0.4
0.8243305049490672
% es.tEy (V/m) @ t=0.4
0
% es.tEz (V/m) @ t=0.4
2.5323587517282995
% V (V) @ t=0.4
0.012490649201953523
% es.normE (V/m) @ t=0.42
2.7106022702243573
% es.EX (V/m) @ t=0.42
0.8366643600886903
% es.EY (V/m) @ t=0.42
0.20269272985776954
% es.EZ (V/m) @ t=0.42
2.570248548010869
% es.tEX (V/m) @ t=0.42
0.8366643600886903
% es.tEY (V/m) @ t=0.42
0
% es.tEZ (V/m) @ t=0.42
2.5702485480108646
% es.Ex (V/m) @ t=0.42
0.8366643600886903
% es.Ey (V/m) @ t=0.42
0.20269272985776954
% es.Ez (V/m) @ t=0.42
2.570248548010869
% es.tEx (V/m) @ t=0.42
0.8366643600886903
% es.tEy (V/m) @ t=0.42
0
% es.tEz (V/m) @ t=0.42
2.5702485480108646
% V (V) @ t=0.42
0.012677535646440093
% es.normE (V/m) @ t=0.44
2.7513722145739052
% es.EX (V/m) @ t=0.44
0.8492485720303724
% es.EY (V/m) @ t=0.44
0.205741404642535
% es.EZ (V/m) @ t=0.44
2.6089074402892445
% es.tEX (V/m) @ t=0.44
0.8492485720303691
% es.tEY (V/m) @ t=0.44
0
% es.tEZ (V/m) @ t=0.44
2.60890744028924
% es.Ex (V/m) @ t=0.44
0.8492485720303724
% es.Ey (V/m) @ t=0.44
0.205741404642535
% es.Ez (V/m) @ t=0.44
2.6089074402892445
% es.tEx (V/m) @ t=0.44
0.8492485720303691
% es.tEy (V/m) @ t=0.44
0
% es.tEz (V/m) @ t=0.44
2.60890744028924
% V (V) @ t=0.44
0.012868215358015694
% es.normE (V/m) @ t=0.46
2.792142158923449
% es.EX (V/m) @ t=0.46
0.8618327839720612
% es.EY (V/m) @ t=0.46
0.20879007942730277
% es.EZ (V/m) @ t=0.46
2.647566332567613
% es.tEX (V/m) @ t=0.46
0.8618327839720621
% es.tEY (V/m) @ t=0.46
0
% es.tEZ (V/m) @ t=0.46
2.647566332567621
% es.Ex (V/m) @ t=0.46
0.8618327839720612
% es.Ey (V/m) @ t=0.46
0.20879007942730277
% es.Ez (V/m) @ t=0.46
2.647566332567613
% es.tEx (V/m) @ t=0.46
0.8618327839720621
% es.tEy (V/m) @ t=0.46
0
% es.tEz (V/m) @ t=0.46
2.647566332567621
% V (V) @ t=0.46
0.013058895069591297
% es.normE (V/m) @ t=0.48
2.832912103272988
% es.EX (V/m) @ t=0.48
0.8744169959137549
% es.EY (V/m) @ t=0.48
0.21183875421204967
% es.EZ (V/m) @ t=0.48
2.686225224845976
% es.tEX (V/m) @ t=0.48
0.8744169959137622
% es.tEY (V/m) @ t=0.48
0
% es.tEZ (V/m) @ t=0.48
2.6862252248460017
% es.Ex (V/m) @ t=0.48
0.8744169959137549
% es.Ey (V/m) @ t=0.48
0.21183875421204967
% es.Ez (V/m) @ t=0.48
2.686225224845976
% es.tEx (V/m) @ t=0.48
0.8744169959137622
% es.tEy (V/m) @ t=0.48
0
% es.tEz (V/m) @ t=0.48
2.6862252248460017
% V (V) @ t=0.48
0.013249574781166899
% es.normE (V/m) @ t=0.5
2.8736820476225526
% es.EX (V/m) @ t=0.5
0.8870012078554232
% es.EY (V/m) @ t=0.5
0.21488742899682234
% es.EZ (V/m) @ t=0.5
2.724884117124372
% es.tEX (V/m) @ t=0.5
0.887001207855441
% es.tEY (V/m) @ t=0.5
0
% es.tEZ (V/m) @ t=0.5
2.7248841171243647
% es.Ex (V/m) @ t=0.5
0.8870012078554232
% es.Ey (V/m) @ t=0.5
0.21488742899682234
% es.Ez (V/m) @ t=0.5
2.724884117124372
% es.tEx (V/m) @ t=0.5
0.887001207855441
% es.tEy (V/m) @ t=0.5
0
% es.tEz (V/m) @ t=0.5
2.7248841171243647
% V (V) @ t=0.5
0.013440254492742502
% es.normE (V/m) @ t=0.52
2.914451991972089
% es.EX (V/m) @ t=0.52
0.8995854197971158
% es.EY (V/m) @ t=0.52
0.21793610378155104
% es.EZ (V/m) @ t=0.52
2.763543009402734
% es.tEX (V/m) @ t=0.52
0.8995854197971127
% es.tEY (V/m) @ t=0.52
0
% es.tEZ (V/m) @ t=0.52
2.763543009402742
% es.Ex (V/m) @ t=0.52
0.8995854197971158
% es.Ey (V/m) @ t=0.52
0.21793610378155104
% es.Ez (V/m) @ t=0.52
2.763543009402734
% es.tEx (V/m) @ t=0.52
0.8995854197971127
% es.tEy (V/m) @ t=0.52
0
% es.tEz (V/m) @ t=0.52
2.763543009402742
% V (V) @ t=0.52
0.013630934204318105
% es.normE (V/m) @ t=0.54
2.955230232723711
% es.EX (V/m) @ t=0.54
0.912172192386391
% es.EY (V/m) @ t=0.54
0.22098539907257964
% es.EZ (V/m) @ t=0.54
2.8022097685391847
% es.tEX (V/m) @ t=0.54
0.9121721923864072
% es.tEY (V/m) @ t=0.54
0
% es.tEZ (V/m) @ t=0.54
2.8022097685391927
% es.Ex (V/m) @ t=0.54
0.912172192386391
% es.Ey (V/m) @ t=0.54
0.22098539907257964
% es.Ez (V/m) @ t=0.54
2.8022097685391847
% es.tEx (V/m) @ t=0.54
0.9121721923864072
% es.tEy (V/m) @ t=0.54
0
% es.tEz (V/m) @ t=0.54
2.8022097685391927
% V (V) @ t=0.54
0.013821652743488958
% es.normE (V/m) @ t=0.56
2.9975894910291663
% es.EX (V/m) @ t=0.56
0.9252469390097553
% es.EY (V/m) @ t=0.56
0.22415294216174986
% es.EZ (V/m) @ t=0.56
2.8423756884689233
% es.tEX (V/m) @ t=0.56
0.9252469390097531
% es.tEY (V/m) @ t=0.56
0
% es.tEZ (V/m) @ t=0.56
2.8423756884689233
% es.Ex (V/m) @ t=0.56
0.9252469390097553
% es.Ey (V/m) @ t=0.56
0.22415294216174986
% es.Ez (V/m) @ t=0.56
2.8423756884689233
% es.tEx (V/m) @ t=0.56
0.9252469390097531
% es.tEy (V/m) @ t=0.56
0
% es.tEz (V/m) @ t=0.56
2.8423756884689233
% V (V) @ t=0.56
0.014019770527432168
% es.normE (V/m) @ t=0.58
3.040358470569394
% es.EX (V/m) @ t=0.58
0.9384481442693979
% es.EY (V/m) @ t=0.58
0.2273511292078354
% es.EZ (V/m) @ t=0.58
2.8829301164262056
% es.tEX (V/m) @ t=0.58
0.938448144269401
% es.tEY (V/m) @ t=0.58
0
% es.tEZ (V/m) @ t=0.58
2.8829301164262233
% es.Ex (V/m) @ t=0.58
0.9384481442693979
% es.Ey (V/m) @ t=0.58
0.2273511292078354
% es.Ez (V/m) @ t=0.58
2.8829301164262056
% es.tEx (V/m) @ t=0.58
0.938448144269401
% es.tEy (V/m) @ t=0.58
0
% es.tEz (V/m) @ t=0.58
2.8829301164262233
% V (V) @ t=0.58
0.014219805828165382
% es.normE (V/m) @ t=0.6
3.083537171344468
% es.EX (V/m) @ t=0.6
0.9517758081653291
% es.EY (V/m) @ t=0.6
0.23057996021093996
% es.EZ (V/m) @ t=0.6
2.9238730524110963
% es.tEX (V/m) @ t=0.6
0.9517758081653369
% es.tEY (V/m) @ t=0.6
0
% es.tEZ (V/m) @ t=0.6
2.9238730524111
% es.Ex (V/m) @ t=0.6
0.9517758081653291
% es.Ey (V/m) @ t=0.6
0.23057996021093996
% es.Ez (V/m) @ t=0.6
2.9238730524110963
% es.tEx (V/m) @ t=0.6
0.9517758081653369
% es.tEy (V/m) @ t=0.6
0
% es.tEz (V/m) @ t=0.6
2.9238730524111
% V (V) @ t=0.6
0.014421758645688596
% es.normE (V/m) @ t=0.62
3.1271255933543234
% es.EX (V/m) @ t=0.62
0.9652299306975478
% es.EY (V/m) @ t=0.62
0.2338394351709645
% es.EZ (V/m) @ t=0.62
2.965204496423536
% es.tEX (V/m) @ t=0.62
0.9652299306975465
% es.tEY (V/m) @ t=0.62
0
% es.tEZ (V/m) @ t=0.62
2.9652044964235564
% es.Ex (V/m) @ t=0.62
0.9652299306975478
% es.Ey (V/m) @ t=0.62
0.2338394351709645
% es.Ez (V/m) @ t=0.62
2.965204496423536
% es.tEx (V/m) @ t=0.62
0.9652299306975465
% es.tEy (V/m) @ t=0.62
0
% es.tEz (V/m) @ t=0.62
2.9652044964235564
% V (V) @ t=0.62
0.014625628980001814
% es.normE (V/m) @ t=0.64
3.171123736599003
% es.EX (V/m) @ t=0.64
0.9788105118660415
% es.EY (V/m) @ t=0.64
0.23712955408795788
% es.EZ (V/m) @ t=0.64
3.006924448463568
% es.tEX (V/m) @ t=0.64
0.978810511866044
% es.tEY (V/m) @ t=0.64
0
% es.tEZ (V/m) @ t=0.64
3.006924448463579
% es.Ex (V/m) @ t=0.64
0.9788105118660415
% es.Ey (V/m) @ t=0.64
0.23712955408795788
% es.Ez (V/m) @ t=0.64
3.006924448463568
% es.tEx (V/m) @ t=0.64
0.978810511866044
% es.tEy (V/m) @ t=0.64
0
% es.tEz (V/m) @ t=0.64
3.006924448463579
% V (V) @ t=0.64
0.014831416831105036
% es.normE (V/m) @ t=0.66
3.215531601078486
% es.EX (V/m) @ t=0.66
0.9925175516708271
% es.EY (V/m) @ t=0.66
0.24045031696192698
% es.EZ (V/m) @ t=0.66
3.0490329085311654
% es.tEX (V/m) @ t=0.66
0.9925175516708293
% es.tEY (V/m) @ t=0.66
0
% es.tEZ (V/m) @ t=0.66
3.0490329085311743
% es.Ex (V/m) @ t=0.66
0.9925175516708271
% es.Ey (V/m) @ t=0.66
0.24045031696192698
% es.Ez (V/m) @ t=0.66
3.0490329085311654
% es.tEx (V/m) @ t=0.66
0.9925175516708293
% es.tEy (V/m) @ t=0.66
0
% es.tEz (V/m) @ t=0.66
3.0490329085311743
% V (V) @ t=0.66
0.015039122198998259
% es.normE (V/m) @ t=0.68
3.260349186792756
% es.EX (V/m) @ t=0.68
1.0063510501119033
% es.EY (V/m) @ t=0.68
0.2438017237928134
% es.EZ (V/m) @ t=0.68
3.0915298766263124
% es.tEX (V/m) @ t=0.68
1.0063510501119026
% es.tEY (V/m) @ t=0.68
0
% es.tEZ (V/m) @ t=0.68
3.0915298766263177
% es.Ex (V/m) @ t=0.68
1.0063510501119033
% es.Ey (V/m) @ t=0.68
0.2438017237928134
% es.Ez (V/m) @ t=0.68
3.0915298766263124
% es.tEx (V/m) @ t=0.68
1.0063510501119026
% es.tEy (V/m) @ t=0.68
0
% es.tEz (V/m) @ t=0.68
3.0915298766263177
% V (V) @ t=0.68
0.015248745083681486
% es.normE (V/m) @ t=0.7
3.3055764937418486
% es.EX (V/m) @ t=0.7
1.020311007189247
% es.EY (V/m) @ t=0.7
0.24718377458066465
% es.EZ (V/m) @ t=0.7
3.134415352749052
% es.tEX (V/m) @ t=0.7
1.0203110071892496
% es.tEY (V/m) @ t=0.7
0
% es.tEZ (V/m) @ t=0.7
3.134415352749052
% es.Ex (V/m) @ t=0.7
1.020311007189247
% es.Ey (V/m) @ t=0.7
0.24718377458066465
% es.Ez (V/m) @ t=0.7
3.134415352749052
% es.tEx (V/m) @ t=0.7
1.0203110071892496
% es.tEy (V/m) @ t=0.7
0
% es.tEz (V/m) @ t=0.7
3.134415352749052
% V (V) @ t=0.7
0.015460285485154714
% es.normE (V/m) @ t=0.72
3.3512135219257444
% es.EX (V/m) @ t=0.72
1.034397422902902
% es.EY (V/m) @ t=0.72
0.25059646932552626
% es.EZ (V/m) @ t=0.72
3.177689336899344
% es.tEX (V/m) @ t=0.72
1.0343974229028987
% es.tEY (V/m) @ t=0.72
0
% es.tEZ (V/m) @ t=0.72
3.1776893368993484
% es.Ex (V/m) @ t=0.72
1.034397422902902
% es.Ey (V/m) @ t=0.72
0.25059646932552626
% es.Ez (V/m) @ t=0.72
3.177689336899344
% es.tEx (V/m) @ t=0.72
1.0343974229028987
% es.tEy (V/m) @ t=0.72
0
% es.tEz (V/m) @ t=0.72
3.1776893368993484
% V (V) @ t=0.72
0.015673743403417942
% es.normE (V/m) @ t=0.74
3.397260271344468
% es.EX (V/m) @ t=0.74
1.0486102972527966
% es.EY (V/m) @ t=0.74
0.2540398080273256
% es.EZ (V/m) @ t=0.74
3.221351829077242
% es.tEX (V/m) @ t=0.74
1.048610297252793
% es.tEY (V/m) @ t=0.74
0
% es.tEZ (V/m) @ t=0.74
3.2213518290772463
% es.Ex (V/m) @ t=0.74
1.0486102972527966
% es.Ey (V/m) @ t=0.74
0.2540398080273256
% es.Ez (V/m) @ t=0.74
3.221351829077242
% es.tEx (V/m) @ t=0.74
1.048610297252793
% es.tEy (V/m) @ t=0.74
0
% es.tEz (V/m) @ t=0.74
3.2213518290772463
% V (V) @ t=0.74
0.015889118838471175
% es.normE (V/m) @ t=0.76
3.443716741998016
% es.EX (V/m) @ t=0.76
1.0629496302390282
% es.EY (V/m) @ t=0.76
0.2575137906860445
% es.EZ (V/m) @ t=0.76
3.2654028292827117
% es.tEX (V/m) @ t=0.76
1.0629496302390322
% es.tEY (V/m) @ t=0.76
0
% es.tEZ (V/m) @ t=0.76
3.265402829282717
% es.Ex (V/m) @ t=0.76
1.0629496302390282
% es.Ey (V/m) @ t=0.76
0.2575137906860445
% es.Ez (V/m) @ t=0.76
3.2654028292827117
% es.tEx (V/m) @ t=0.76
1.0629496302390322
% es.tEy (V/m) @ t=0.76
0
% es.tEz (V/m) @ t=0.76
3.265402829282717
% V (V) @ t=0.76
0.01610641179031441
% es.normE (V/m) @ t=0.78
3.490582933886328
% es.EX (V/m) @ t=0.78
1.0774154218615017
% es.EY (V/m) @ t=0.78
0.26101841730177133
% es.EZ (V/m) @ t=0.78
3.309842337515712
% es.tEX (V/m) @ t=0.78
1.0774154218615024
% es.tEY (V/m) @ t=0.78
0
% es.tEZ (V/m) @ t=0.78
3.3098423375157218
% es.Ex (V/m) @ t=0.78
1.0774154218615017
% es.Ey (V/m) @ t=0.78
0.26101841730177133
% es.Ez (V/m) @ t=0.78
3.309842337515712
% es.tEx (V/m) @ t=0.78
1.0774154218615024
% es.tEy (V/m) @ t=0.78
0
% es.tEz (V/m) @ t=0.78
3.3098423375157218
% V (V) @ t=0.78
0.016325622258947646
% es.normE (V/m) @ t=0.8
3.5378588470094954
% es.EX (V/m) @ t=0.8
1.092007672120289
% es.EY (V/m) @ t=0.8
0.26455368787440836
% es.EZ (V/m) @ t=0.8
3.3546703537763225
% es.tEX (V/m) @ t=0.8
1.092007672120289
% es.tEY (V/m) @ t=0.8
0
% es.tEZ (V/m) @ t=0.8
3.354670353776317
% es.Ex (V/m) @ t=0.8
1.092007672120289
% es.Ey (V/m) @ t=0.8
0.26455368787440836
% es.Ez (V/m) @ t=0.8
3.3546703537763225
% es.tEx (V/m) @ t=0.8
1.092007672120289
% es.tEy (V/m) @ t=0.8
0
% es.tEz (V/m) @ t=0.8
3.354670353776317
% V (V) @ t=0.8
0.016546750244370887
% es.normE (V/m) @ t=0.82
3.585961329610937
% es.EX (V/m) @ t=0.82
1.1068551271358165
% es.EY (V/m) @ t=0.82
0.2681507075530416
% es.EZ (V/m) @ t=0.82
3.4002821209245324
% es.tEX (V/m) @ t=0.82
1.1068551271358302
% es.tEY (V/m) @ t=0.82
0
% es.tEZ (V/m) @ t=0.82
3.4002821209245297
% es.Ex (V/m) @ t=0.82
1.1068551271358165
% es.Ey (V/m) @ t=0.82
0.2681507075530416
% es.Ez (V/m) @ t=0.82
3.4002821209245324
% es.tEx (V/m) @ t=0.82
1.1068551271358302
% es.tEy (V/m) @ t=0.82
0
% es.tEz (V/m) @ t=0.82
3.4002821209245297
% V (V) @ t=0.82
0.016771731546773968
% es.normE (V/m) @ t=0.84
3.634955444343489
% es.EX (V/m) @ t=0.84
1.1219778819049735
% es.EY (V/m) @ t=0.84
0.2718143313023329
% es.EZ (V/m) @ t=0.84
3.446739329394183
% es.tEX (V/m) @ t=0.84
1.1219778819049822
% es.tEY (V/m) @ t=0.84
0
% es.tEZ (V/m) @ t=0.84
3.4467393293941946
% es.Ex (V/m) @ t=0.84
1.1219778819049735
% es.Ey (V/m) @ t=0.84
0.2718143313023329
% es.Ez (V/m) @ t=0.84
3.446739329394183
% es.tEx (V/m) @ t=0.84
1.1219778819049822
% es.tEy (V/m) @ t=0.84
0
% es.tEz (V/m) @ t=0.84
3.4467393293941946
% V (V) @ t=0.84
0.01700086831039633
% es.normE (V/m) @ t=0.86
3.684475100268086
% es.EX (V/m) @ t=0.86
1.1372628670100395
% es.EY (V/m) @ t=0.86
0.2755172414752216
% es.EZ (V/m) @ t=0.86
3.4936948628616484
% es.tEX (V/m) @ t=0.86
1.137262867010051
% es.tEY (V/m) @ t=0.86
0
% es.tEZ (V/m) @ t=0.86
3.4936948628616484
% es.Ex (V/m) @ t=0.86
1.1372628670100395
% es.Ey (V/m) @ t=0.86
0.2755172414752216
% es.Ez (V/m) @ t=0.86
3.4936948628616484
% es.tEx (V/m) @ t=0.86
1.137262867010051
% es.tEy (V/m) @ t=0.86
0
% es.tEz (V/m) @ t=0.86
3.4936948628616484
% V (V) @ t=0.86
0.017232460446727983
% es.normE (V/m) @ t=0.88
3.734520297384706
% es.EX (V/m) @ t=0.88
1.1527100824510703
% es.EY (V/m) @ t=0.88
0.27925943807169884
% es.EZ (V/m) @ t=0.88
3.541148721326885
% es.tEX (V/m) @ t=0.88
1.1527100824510796
% es.tEY (V/m) @ t=0.88
0
% es.tEZ (V/m) @ t=0.88
3.5411487213268984
% es.Ex (V/m) @ t=0.88
1.1527100824510703
% es.Ey (V/m) @ t=0.88
0.27925943807169884
% es.Ez (V/m) @ t=0.88
3.541148721326885
% es.tEx (V/m) @ t=0.88
1.1527100824510796
% es.tEy (V/m) @ t=0.88
0
% es.tEz (V/m) @ t=0.88
3.5411487213268984
% V (V) @ t=0.88
0.017466507955768935
% es.normE (V/m) @ t=0.9
3.785091035693396
% es.EX (V/m) @ t=0.9
1.1683195282280334
% es.EY (V/m) @ t=0.9
0.2830409210917182
% es.EZ (V/m) @ t=0.9
3.5891009047899542
% es.tEX (V/m) @ t=0.9
1.1683195282280394
% es.tEY (V/m) @ t=0.9
0
% es.tEZ (V/m) @ t=0.9
3.589100904789955
% es.Ex (V/m) @ t=0.9
1.1683195282280334
% es.Ey (V/m) @ t=0.9
0.2830409210917182
% es.Ez (V/m) @ t=0.9
3.5891009047899542
% es.tEx (V/m) @ t=0.9
1.1683195282280394
% es.tEy (V/m) @ t=0.9
0
% es.tEz (V/m) @ t=0.9
3.589100904789955
% V (V) @ t=0.9
0.017703010837519184
% es.normE (V/m) @ t=0.92
3.8361873151941843
% es.EX (V/m) @ t=0.92
1.184091204340952
% es.EY (V/m) @ t=0.92
0.2868616905353425
% es.EZ (V/m) @ t=0.92
3.63755141325087
% es.tEX (V/m) @ t=0.92
1.184091204340973
% es.tEY (V/m) @ t=0.92
0
% es.tEZ (V/m) @ t=0.92
3.6375514132508755
% es.Ex (V/m) @ t=0.92
1.184091204340952
% es.Ey (V/m) @ t=0.92
0.2868616905353425
% es.Ez (V/m) @ t=0.92
3.63755141325087
% es.tEx (V/m) @ t=0.92
1.184091204340973
% es.tEy (V/m) @ t=0.92
0
% es.tEz (V/m) @ t=0.92
3.6375514132508755
% V (V) @ t=0.92
0.01794196909197873
% es.normE (V/m) @ t=0.94
3.887809135887067
% es.EX (V/m) @ t=0.94
1.200025110789816
% es.EY (V/m) @ t=0.94
0.2907217464025684
% es.EZ (V/m) @ t=0.94
3.6865002467096293
% es.tEX (V/m) @ t=0.94
1.2000251107898237
% es.tEY (V/m) @ t=0.94
0
% es.tEZ (V/m) @ t=0.94
3.6865002467096133
% es.Ex (V/m) @ t=0.94
1.200025110789816
% es.Ey (V/m) @ t=0.94
0.2907217464025684
% es.Ez (V/m) @ t=0.94
3.6865002467096293
% es.tEx (V/m) @ t=0.94
1.2000251107898237
% es.tEy (V/m) @ t=0.94
0
% es.tEz (V/m) @ t=0.94
3.6865002467096133
% V (V) @ t=0.94
0.018183382719147573
% es.normE (V/m) @ t=0.96
3.9399564977719885
% es.EX (V/m) @ t=0.96
1.2161212475746428
% es.EY (V/m) @ t=0.96
0.2946210886932956
% es.EZ (V/m) @ t=0.96
3.735947405166172
% es.tEX (V/m) @ t=0.96
1.2161212475746481
% es.tEY (V/m) @ t=0.96
0
% es.tEZ (V/m) @ t=0.96
3.735947405166172
% es.Ex (V/m) @ t=0.96
1.2161212475746428
% es.Ey (V/m) @ t=0.96
0.2946210886932956
% es.Ez (V/m) @ t=0.96
3.735947405166172
% es.tEx (V/m) @ t=0.96
1.2161212475746481
% es.tEy (V/m) @ t=0.96
0
% es.tEz (V/m) @ t=0.96
3.735947405166172
% V (V) @ t=0.96
0.018427251719025706
% es.normE (V/m) @ t=0.98
3.9926294008489607
% es.EX (V/m) @ t=0.98
1.2323796146953838
% es.EY (V/m) @ t=0.98
0.29855971740762843
% es.EZ (V/m) @ t=0.98
3.7858928886205137
% es.tEX (V/m) @ t=0.98
1.2323796146953896
% es.tEY (V/m) @ t=0.98
0
% es.tEZ (V/m) @ t=0.98
3.785892888620495
% es.Ex (V/m) @ t=0.98
1.2323796146953838
% es.Ey (V/m) @ t=0.98
0.29855971740762843
% es.Ez (V/m) @ t=0.98
3.7858928886205137
% es.tEx (V/m) @ t=0.98
1.2323796146953896
% es.tEy (V/m) @ t=0.98
0
% es.tEz (V/m) @ t=0.98
3.785892888620495
% V (V) @ t=0.98
0.018673576091613135
% es.normE (V/m) @ t=1
4.045827845118044
% es.EX (V/m) @ t=1
1.2488002121520663
% es.EY (V/m) @ t=1
0.30253763254555266
% es.EZ (V/m) @ t=1
3.8363366970727073
% es.tEX (V/m) @ t=1
1.2488002121520623
% es.tEY (V/m) @ t=1
0
% es.tEZ (V/m) @ t=1
3.83633669707271
% es.Ex (V/m) @ t=1
1.2488002121520663
% es.Ey (V/m) @ t=1
0.30253763254555266
% es.Ez (V/m) @ t=1
3.8363366970727073
% es.tEx (V/m) @ t=1
1.2488002121520623
% es.tEy (V/m) @ t=1
0
% es.tEz (V/m) @ t=1
3.83633669707271
% V (V) @ t=1
0.018922355836909866
% es.normE (V/m) @ t=1.02
4.099551830579175
% es.EX (V/m) @ t=1.02
1.2653830399447001
% es.EY (V/m) @ t=1.02
0.30655483410701345
% es.EZ (V/m) @ t=1.02
3.887278830522683
% es.tEX (V/m) @ t=1.02
1.2653830399447088
% es.tEY (V/m) @ t=1.02
0
% es.tEZ (V/m) @ t=1.02
3.8872788305226997
% es.Ex (V/m) @ t=1.02
1.2653830399447001
% es.Ey (V/m) @ t=1.02
0.30655483410701345
% es.Ez (V/m) @ t=1.02
3.887278830522683
% es.tEx (V/m) @ t=1.02
1.2653830399447088
% es.tEy (V/m) @ t=1.02
0
% es.tEz (V/m) @ t=1.02
3.8872788305226997
% V (V) @ t=1.02
0.01917359095491589
% es.normE (V/m) @ t=1.04
4.153801357232391
% es.EX (V/m) @ t=1.04
1.282128098073262
% es.EY (V/m) @ t=1.04
0.3106113220920901
% es.EZ (V/m) @ t=1.04
3.938719288970475
% es.tEX (V/m) @ t=1.04
1.2821280980732581
% es.tEY (V/m) @ t=1.04
0
% es.tEZ (V/m) @ t=1.04
3.938719288970482
% es.Ex (V/m) @ t=1.04
1.282128098073262
% es.Ey (V/m) @ t=1.04
0.3106113220920901
% es.Ez (V/m) @ t=1.04
3.938719288970475
% es.tEx (V/m) @ t=1.04
1.2821280980732581
% es.tEy (V/m) @ t=1.04
0
% es.tEz (V/m) @ t=1.04
3.938719288970482