% Model:              1 neuron.mph
% Version:            COMSOL 6.0.0.405
% Date:               Mar 16 2023, 19:05
% Dimension:          0
% Nodes:              14017
% Expressions:        14017
% Description:        Electric field norm, Electric field, X component, Electric field, Y component, Electric field, Z component, Tangential electric field, X component, Tangential electric field, Y component, Tangential electric field, Z component, Electric field, x component, Electric field, y component, Electric field, z component, Tangential electric field, x component, Tangential electric field, y component, Tangential electric field, z component, Electric potential
% Length unit:        mm
% x
1
% y
12.2
% z
1.6599999999999997
% es.normE (V/m) @ t=0
2.402037053711857
% es.EX (V/m) @ t=0
2.150326074931063
% es.EY (V/m) @ t=0
0.08273475184568765
% es.EZ (V/m) @ t=0
-1.067255668509031
% es.tEX (V/m) @ t=0
2.1503260749310646
% es.tEY (V/m) @ t=0
0
% es.tEZ (V/m) @ t=0
-1.0672556685090129
% es.Ex (V/m) @ t=0
2.150326074931063
% es.Ey (V/m) @ t=0
0.08273475184568765
% es.Ez (V/m) @ t=0
-1.067255668509031
% es.tEx (V/m) @ t=0
2.1503260749310646
% es.tEy (V/m) @ t=0
0
% es.tEz (V/m) @ t=0
-1.0672556685090129
% V (V) @ t=0
0.010898020040769025
% es.normE (V/m) @ t=0.02
2.0861889008267935
% es.EX (V/m) @ t=0.02
1.867575850386515
% es.EY (V/m) @ t=0.02
0.0718558139826029
% es.EZ (V/m) @ t=0.02
-0.9269203074352155
% es.tEX (V/m) @ t=0.02
1.8675758503865225
% es.tEY (V/m) @ t=0.02
0
% es.tEZ (V/m) @ t=0.02
-0.9269203074351964
% es.Ex (V/m) @ t=0.02
1.867575850386515
% es.Ey (V/m) @ t=0.02
0.0718558139826029
% es.Ez (V/m) @ t=0.02
-0.9269203074352155
% es.tEx (V/m) @ t=0.02
1.8675758503865225
% es.tEy (V/m) @ t=0.02
0
% es.tEz (V/m) @ t=0.02
-0.9269203074351964
% V (V) @ t=0.02
0.00946501979237565
% es.normE (V/m) @ t=0.04
2.11712390346581
% es.EX (V/m) @ t=0.04
1.8952691602124676
% es.EY (V/m) @ t=0.04
0.07292134114778676
% es.EZ (V/m) @ t=0.04
-0.9406651107464317
% es.tEX (V/m) @ t=0.04
1.895269160212469
% es.tEY (V/m) @ t=0.04
0
% es.tEZ (V/m) @ t=0.04
-0.9406651107464299
% es.Ex (V/m) @ t=0.04
1.8952691602124676
% es.Ey (V/m) @ t=0.04
0.07292134114778676
% es.Ez (V/m) @ t=0.04
-0.9406651107464317
% es.tEx (V/m) @ t=0.04
1.895269160212469
% es.tEy (V/m) @ t=0.04
0
% es.tEz (V/m) @ t=0.04
-0.9406651107464299
% V (V) @ t=0.04
0.009605371185705331
% es.normE (V/m) @ t=0.06
2.1485222834111415
% es.EX (V/m) @ t=0.06
1.9233772892718548
% es.EY (V/m) @ t=0.06
0.07400282728119295
% es.EZ (V/m) @ t=0.06
-0.9546157995600889
% es.tEX (V/m) @ t=0.06
1.9233772892718601
% es.tEY (V/m) @ t=0.06
0
% es.tEZ (V/m) @ t=0.06
-0.954615799560095
% es.Ex (V/m) @ t=0.06
1.9233772892718548
% es.Ey (V/m) @ t=0.06
0.07400282728119295
% es.Ez (V/m) @ t=0.06
-0.9546157995600889
% es.tEx (V/m) @ t=0.06
1.9233772892718601
% es.tEy (V/m) @ t=0.06
0
% es.tEz (V/m) @ t=0.06
-0.954615799560095
% V (V) @ t=0.06
0.00974782495454792
% es.normE (V/m) @ t=0.08
2.180723401283565
% es.EX (V/m) @ t=0.08
1.9522040328254204
% es.EY (V/m) @ t=0.08
0.07511195184308442
% es.EZ (V/m) @ t=0.08
-0.9689231639942837
% es.tEX (V/m) @ t=0.08
1.9522040328254109
% es.tEY (V/m) @ t=0.08
0
% es.tEZ (V/m) @ t=0.08
-0.9689231639942761
% es.Ex (V/m) @ t=0.08
1.9522040328254204
% es.Ey (V/m) @ t=0.08
0.07511195184308442
% es.Ez (V/m) @ t=0.08
-0.9689231639942837
% es.tEx (V/m) @ t=0.08
1.9522040328254109
% es.tEy (V/m) @ t=0.08
0
% es.tEz (V/m) @ t=0.08
-0.9689231639942761
% V (V) @ t=0.08
0.009893921045035234
% es.normE (V/m) @ t=0.1
2.213480786956241
% es.EX (V/m) @ t=0.1
1.9815287497404162
% es.EY (V/m) @ t=0.1
0.07624022881736792
% es.EZ (V/m) @ t=0.1
-0.9834776914889903
% es.tEX (V/m) @ t=0.1
1.9815287497404217
% es.tEY (V/m) @ t=0.1
0
% es.tEZ (V/m) @ t=0.1
-0.9834776914889858
% es.Ex (V/m) @ t=0.1
1.9815287497404162
% es.Ey (V/m) @ t=0.1
0.07624022881736792
% es.Ez (V/m) @ t=0.1
-0.9834776914889903
% es.tEx (V/m) @ t=0.1
1.9815287497404217
% es.tEy (V/m) @ t=0.1
0
% es.tEz (V/m) @ t=0.1
-0.9834776914889858
% V (V) @ t=0.1
0.01004254113019229
% es.normE (V/m) @ t=0.12
2.2462381726289333
% es.EX (V/m) @ t=0.12
2.0108534666554303
% es.EY (V/m) @ t=0.12
0.07736850579165494
% es.EZ (V/m) @ t=0.12
-0.998032218983697
% es.tEX (V/m) @ t=0.12
2.0108534666554343
% es.tEY (V/m) @ t=0.12
0
% es.tEZ (V/m) @ t=0.12
-0.9980322189836954
% es.Ex (V/m) @ t=0.12
2.0108534666554303
% es.Ey (V/m) @ t=0.12
0.07736850579165494
% es.Ez (V/m) @ t=0.12
-0.998032218983697
% es.tEx (V/m) @ t=0.12
2.0108534666554343
% es.tEy (V/m) @ t=0.12
0
% es.tEz (V/m) @ t=0.12
-0.9980322189836954
% V (V) @ t=0.12
0.010191161215349347
% es.normE (V/m) @ t=0.14
2.279559034119968
% es.EX (V/m) @ t=0.14
2.040682612288962
% es.EY (V/m) @ t=0.14
0.07851619067705468
% es.EZ (V/m) @ t=0.14
-1.0128371062086123
% es.tEX (V/m) @ t=0.14
2.0406826122889594
% es.tEY (V/m) @ t=0.14
0
% es.tEZ (V/m) @ t=0.14
-1.0128371062086075
% es.Ex (V/m) @ t=0.14
2.040682612288962
% es.Ey (V/m) @ t=0.14
0.07851619067705468
% es.Ez (V/m) @ t=0.14
-1.0128371062086123
% es.tEx (V/m) @ t=0.14
2.0406826122889594
% es.tEy (V/m) @ t=0.14
0
% es.tEz (V/m) @ t=0.14
-1.0128371062086075
% V (V) @ t=0.14
0.010342337792961717
% es.normE (V/m) @ t=0.16
2.315261625396369
% es.EX (V/m) @ t=0.16
2.0726439042619744
% es.EY (V/m) @ t=0.16
0.07974590996123745
% es.EZ (V/m) @ t=0.16
-1.0287002273579224
% es.tEX (V/m) @ t=0.16
2.072643904261959
% es.tEY (V/m) @ t=0.16
0
% es.tEZ (V/m) @ t=0.16
-1.0287002273579091
% es.Ex (V/m) @ t=0.16
2.0726439042619744
% es.Ey (V/m) @ t=0.16
0.07974590996123745
% es.Ez (V/m) @ t=0.16
-1.0287002273579224
% es.tEx (V/m) @ t=0.16
2.072643904261959
% es.tEy (V/m) @ t=0.16
0
% es.tEz (V/m) @ t=0.16
-1.0287002273579091
% V (V) @ t=0.16
0.0105043202898851
% es.normE (V/m) @ t=0.18
2.3509642166727702
% es.EX (V/m) @ t=0.18
2.1046051962349903
% es.EY (V/m) @ t=0.18
0.08097562924542906
% es.EZ (V/m) @ t=0.18
-1.044563348507225
% es.tEX (V/m) @ t=0.18
2.1046051962349948
% es.tEY (V/m) @ t=0.18
0
% es.tEZ (V/m) @ t=0.18
-1.0445633485072179
% es.Ex (V/m) @ t=0.18
2.1046051962349903
% es.Ey (V/m) @ t=0.18
0.08097562924542906
% es.Ez (V/m) @ t=0.18
-1.044563348507225
% es.tEx (V/m) @ t=0.18
2.1046051962349948
% es.tEy (V/m) @ t=0.18
0
% es.tEz (V/m) @ t=0.18
-1.0445633485072179
% V (V) @ t=0.18
0.010666302786808484
% es.normE (V/m) @ t=0.2
2.386666807949184
% es.EX (V/m) @ t=0.2
2.1365664882080138
% es.EY (V/m) @ t=0.2
0.08220534852958788
% es.EZ (V/m) @ t=0.2
-1.0604264696565422
% es.tEX (V/m) @ t=0.2
2.1365664882080093
% es.tEY (V/m) @ t=0.2
0
% es.tEZ (V/m) @ t=0.2
-1.0604264696565195
% es.Ex (V/m) @ t=0.2
2.1365664882080138
% es.Ey (V/m) @ t=0.2
0.08220534852958788
% es.Ez (V/m) @ t=0.2
-1.0604264696565422
% es.tEx (V/m) @ t=0.2
2.1365664882080093
% es.tEy (V/m) @ t=0.2
0
% es.tEz (V/m) @ t=0.2
-1.0604264696565195
% V (V) @ t=0.2
0.010828285283731864
% es.normE (V/m) @ t=0.22
2.422369399225561
% es.EX (V/m) @ t=0.22
2.168527780181016
% es.EY (V/m) @ t=0.22
0.0834350678137582
% es.EZ (V/m) @ t=0.22
-1.07628959080582
% es.tEX (V/m) @ t=0.22
2.168527780181009
% es.tEY (V/m) @ t=0.22
0
% es.tEZ (V/m) @ t=0.22
-1.0762895908058212
% es.Ex (V/m) @ t=0.22
2.168527780181016
% es.Ey (V/m) @ t=0.22
0.0834350678137582
% es.Ez (V/m) @ t=0.22
-1.07628959080582
% es.tEx (V/m) @ t=0.22
2.168527780181009
% es.tEy (V/m) @ t=0.22
0
% es.tEz (V/m) @ t=0.22
-1.0762895908058212
% V (V) @ t=0.22
0.010990267780655247
% es.normE (V/m) @ t=0.24
2.4580719905019732
% es.EX (V/m) @ t=0.24
2.200489072154043
% es.EY (V/m) @ t=0.24
0.08466478709792588
% es.EZ (V/m) @ t=0.24
-1.0921527119551264
% es.tEX (V/m) @ t=0.24
2.2004890721540447
% es.tEY (V/m) @ t=0.24
0
% es.tEZ (V/m) @ t=0.24
-1.09215271195513
% es.Ex (V/m) @ t=0.24
2.200489072154043
% es.Ey (V/m) @ t=0.24
0.08466478709792588
% es.Ez (V/m) @ t=0.24
-1.0921527119551264
% es.tEx (V/m) @ t=0.24
2.2004890721540447
% es.tEy (V/m) @ t=0.24
0
% es.tEz (V/m) @ t=0.24
-1.09215271195513
% V (V) @ t=0.24
0.01115225027757863
% es.normE (V/m) @ t=0.26
2.4937745817783776
% es.EX (V/m) @ t=0.26
2.232450364127055
% es.EY (V/m) @ t=0.26
0.08589450638210333
% es.EZ (V/m) @ t=0.26
-1.1080158331044434
% es.tEX (V/m) @ t=0.26
2.2324503641270512
% es.tEY (V/m) @ t=0.26
0
% es.tEZ (V/m) @ t=0.26
-1.1080158331044245
% es.Ex (V/m) @ t=0.26
2.232450364127055
% es.Ey (V/m) @ t=0.26
0.08589450638210333
% es.Ez (V/m) @ t=0.26
-1.1080158331044434
% es.tEx (V/m) @ t=0.26
2.2324503641270512
% es.tEy (V/m) @ t=0.26
0
% es.tEz (V/m) @ t=0.26
-1.1080158331044245
% V (V) @ t=0.26
0.011314232774502013
% es.normE (V/m) @ t=0.28
2.530725411265088
% es.EX (V/m) @ t=0.28
2.265529088151516
% es.EY (V/m) @ t=0.28
0.08716721265139649
% es.EZ (V/m) @ t=0.28
-1.1244335679385893
% es.tEX (V/m) @ t=0.28
2.2655290881515144
% es.tEY (V/m) @ t=0.28
0
% es.tEZ (V/m) @ t=0.28
-1.1244335679385813
% es.Ex (V/m) @ t=0.28
2.265529088151516
% es.Ey (V/m) @ t=0.28
0.08716721265139649
% es.Ez (V/m) @ t=0.28
-1.1244335679385893
% es.tEx (V/m) @ t=0.28
2.2655290881515144
% es.tEy (V/m) @ t=0.28
0
% es.tEz (V/m) @ t=0.28
-1.1244335679385813
% V (V) @ t=0.28
0.011481878707848406
% es.normE (V/m) @ t=0.3
2.5696074298636384
% es.EX (V/m) @ t=0.3
2.300336626911124
% es.EY (V/m) @ t=0.3
0.08850642545527054
% es.EZ (V/m) @ t=0.3
-1.14170936327803
% es.tEX (V/m) @ t=0.3
2.300336626911119
% es.tEY (V/m) @ t=0.3
0
% es.tEZ (V/m) @ t=0.3
-1.1417093632780322
% es.Ex (V/m) @ t=0.3
2.300336626911124
% es.Ey (V/m) @ t=0.3
0.08850642545527054
% es.Ez (V/m) @ t=0.3
-1.14170936327803
% es.tEx (V/m) @ t=0.3
2.300336626911119
% es.tEy (V/m) @ t=0.3
0
% es.tEz (V/m) @ t=0.3
-1.1417093632780322
% V (V) @ t=0.3
0.011658286724157313
% es.normE (V/m) @ t=0.32
2.6084894484621812
% es.EX (V/m) @ t=0.32
2.3351441656707217
% es.EY (V/m) @ t=0.32
0.08984563825912056
% es.EZ (V/m) @ t=0.32
-1.1589851586174742
% es.tEX (V/m) @ t=0.32
2.3351441656707257
% es.tEY (V/m) @ t=0.32
0
% es.tEZ (V/m) @ t=0.32
-1.1589851586174689
% es.Ex (V/m) @ t=0.32
2.3351441656707217
% es.Ey (V/m) @ t=0.32
0.08984563825912056
% es.Ez (V/m) @ t=0.32
-1.1589851586174742
% es.tEx (V/m) @ t=0.32
2.3351441656707257
% es.tEy (V/m) @ t=0.32
0
% es.tEz (V/m) @ t=0.32
-1.1589851586174689
% V (V) @ t=0.32
0.01183469474046622
% es.normE (V/m) @ t=0.34
2.6473714670607205
% es.EX (V/m) @ t=0.34
2.3699517044303184
% es.EY (V/m) @ t=0.34
0.09118485106297325
% es.EZ (V/m) @ t=0.34
-1.1762609539569113
% es.tEX (V/m) @ t=0.34
2.369951704430316
% es.tEY (V/m) @ t=0.34
0
% es.tEZ (V/m) @ t=0.34
-1.1762609539568913
% es.Ex (V/m) @ t=0.34
2.3699517044303184
% es.Ey (V/m) @ t=0.34
0.09118485106297325
% es.Ez (V/m) @ t=0.34
-1.1762609539569113
% es.tEx (V/m) @ t=0.34
2.369951704430316
% es.tEy (V/m) @ t=0.34
0
% es.tEz (V/m) @ t=0.34
-1.1762609539568913
% V (V) @ t=0.34
0.012011102756775128
% es.normE (V/m) @ t=0.36
2.6862534856592646
% es.EX (V/m) @ t=0.36
2.4047592431899236
% es.EY (V/m) @ t=0.36
0.0925240638668473
% es.EZ (V/m) @ t=0.36
-1.1935367492963413
% es.tEX (V/m) @ t=0.36
2.40475924318993
% es.tEY (V/m) @ t=0.36
0
% es.tEZ (V/m) @ t=0.36
-1.1935367492963351
% es.Ex (V/m) @ t=0.36
2.4047592431899236
% es.Ey (V/m) @ t=0.36
0.0925240638668473
% es.Ez (V/m) @ t=0.36
-1.1935367492963413
% es.tEx (V/m) @ t=0.36
2.40475924318993
% es.tEy (V/m) @ t=0.36
0
% es.tEz (V/m) @ t=0.36
-1.1935367492963351
% V (V) @ t=0.36
0.012187510773084036
% es.normE (V/m) @ t=0.38
2.7251355042578096
% es.EX (V/m) @ t=0.38
2.4395667819495315
% es.EY (V/m) @ t=0.38
0.09386327667070271
% es.EZ (V/m) @ t=0.38
-1.2108125446357678
% es.tEX (V/m) @ t=0.38
2.4395667819495355
% es.tEY (V/m) @ t=0.38
0
% es.tEZ (V/m) @ t=0.38
-1.2108125446357718
% es.Ex (V/m) @ t=0.38
2.4395667819495315
% es.Ey (V/m) @ t=0.38
0.09386327667070271
% es.Ez (V/m) @ t=0.38
-1.2108125446357678
% es.tEx (V/m) @ t=0.38
2.4395667819495355
% es.tEy (V/m) @ t=0.38
0
% es.tEz (V/m) @ t=0.38
-1.2108125446357718
% V (V) @ t=0.38
0.012363918789392945
% es.normE (V/m) @ t=0.4
2.7640175228563773
% es.EX (V/m) @ t=0.4
2.47437432070915
% es.EY (V/m) @ t=0.4
0.09520248947456161
% es.EZ (V/m) @ t=0.4
-1.2280883399752227
% es.tEX (V/m) @ t=0.4
2.474374320709148
% es.tEY (V/m) @ t=0.4
0
% es.tEZ (V/m) @ t=0.4
-1.2280883399752298
% es.Ex (V/m) @ t=0.4
2.47437432070915
% es.Ey (V/m) @ t=0.4
0.09520248947456161
% es.Ez (V/m) @ t=0.4
-1.2280883399752227
% es.tEx (V/m) @ t=0.4
2.474374320709148
% es.tEy (V/m) @ t=0.4
0
% es.tEz (V/m) @ t=0.4
-1.2280883399752298
% V (V) @ t=0.4
0.012540326805701853
% es.normE (V/m) @ t=0.42
2.80492997791676
% es.EX (V/m) @ t=0.42
2.510999533212186
% es.EY (V/m) @ t=0.42
0.0966116593038518
% es.EZ (V/m) @ t=0.42
-1.2462662663151727
% es.tEX (V/m) @ t=0.42
2.510999533212181
% es.tEY (V/m) @ t=0.42
0
% es.tEZ (V/m) @ t=0.42
-1.2462662663151676
% es.Ex (V/m) @ t=0.42
2.510999533212186
% es.Ey (V/m) @ t=0.42
0.0966116593038518
% es.Ez (V/m) @ t=0.42
-1.2462662663151727
% es.tEx (V/m) @ t=0.42
2.510999533212181
% es.tEy (V/m) @ t=0.42
0
% es.tEz (V/m) @ t=0.42
-1.2462662663151676
% V (V) @ t=0.42
0.01272594628192388
% es.normE (V/m) @ t=0.44
2.847230946565815
% es.EX (V/m) @ t=0.44
2.5488677615593325
% es.EY (V/m) @ t=0.44
0.09806866923179042
% es.EZ (V/m) @ t=0.44
-1.2650611147684312
% es.tEX (V/m) @ t=0.44
2.548867761559329
% es.tEY (V/m) @ t=0.44
0
% es.tEZ (V/m) @ t=0.44
-1.2650611147684145
% es.Ex (V/m) @ t=0.44
2.5488677615593325
% es.Ey (V/m) @ t=0.44
0.09806866923179042
% es.Ez (V/m) @ t=0.44
-1.2650611147684312
% es.tEx (V/m) @ t=0.44
2.548867761559329
% es.tEy (V/m) @ t=0.44
0
% es.tEz (V/m) @ t=0.44
-1.2650611147684145
% V (V) @ t=0.44
0.012917865013257314
% es.normE (V/m) @ t=0.46
2.8895319152148606
% es.EX (V/m) @ t=0.46
2.586735989906468
% es.EY (V/m) @ t=0.46
0.09952567915974225
% es.EZ (V/m) @ t=0.46
-1.2838559632216895
% es.tEX (V/m) @ t=0.46
2.586735989906469
% es.tEY (V/m) @ t=0.46
0
% es.tEZ (V/m) @ t=0.46
-1.2838559632216757
% es.Ex (V/m) @ t=0.46
2.586735989906468
% es.Ey (V/m) @ t=0.46
0.09952567915974225
% es.Ez (V/m) @ t=0.46
-1.2838559632216895
% es.tEx (V/m) @ t=0.46
2.586735989906469
% es.tEy (V/m) @ t=0.46
0
% es.tEz (V/m) @ t=0.46
-1.2838559632216757
% V (V) @ t=0.46
0.013109783744590747
% es.normE (V/m) @ t=0.48
2.9318328838639074
% es.EX (V/m) @ t=0.48
2.6246042182536096
% es.EY (V/m) @ t=0.48
0.10098268908767988
% es.EZ (V/m) @ t=0.48
-1.3026508116749373
% es.tEX (V/m) @ t=0.48
2.624604218253615
% es.tEY (V/m) @ t=0.48
0
% es.tEZ (V/m) @ t=0.48
-1.302650811674937
% es.Ex (V/m) @ t=0.48
2.6246042182536096
% es.Ey (V/m) @ t=0.48
0.10098268908767988
% es.Ez (V/m) @ t=0.48
-1.3026508116749373
% es.tEx (V/m) @ t=0.48
2.624604218253615
% es.tEy (V/m) @ t=0.48
0
% es.tEz (V/m) @ t=0.48
-1.302650811674937
% V (V) @ t=0.48
0.013301702475924179
% es.normE (V/m) @ t=0.5
2.9741338525129546
% es.EX (V/m) @ t=0.5
2.6624724466007565
% es.EY (V/m) @ t=0.5
0.1024396990155963
% es.EZ (V/m) @ t=0.5
-1.321445660128178
% es.tEX (V/m) @ t=0.5
2.6624724466007557
% es.tEY (V/m) @ t=0.5
0
% es.tEZ (V/m) @ t=0.5
-1.3214456601281839
% es.Ex (V/m) @ t=0.5
2.6624724466007565
% es.Ey (V/m) @ t=0.5
0.1024396990155963
% es.Ez (V/m) @ t=0.5
-1.321445660128178
% es.tEx (V/m) @ t=0.5
2.6624724466007557
% es.tEy (V/m) @ t=0.5
0
% es.tEz (V/m) @ t=0.5
-1.3214456601281839
% V (V) @ t=0.5
0.013493621207257611
% es.normE (V/m) @ t=0.52
3.0164348211620036
% es.EX (V/m) @ t=0.52
2.7003406749478955
% es.EY (V/m) @ t=0.52
0.10389670894351971
% es.EZ (V/m) @ t=0.52
-1.3402405085814366
% es.tEX (V/m) @ t=0.52
2.7003406749478804
% es.tEY (V/m) @ t=0.52
0
% es.tEZ (V/m) @ t=0.52
-1.3402405085814308
% es.Ex (V/m) @ t=0.52
2.7003406749478955
% es.Ey (V/m) @ t=0.52
0.10389670894351971
% es.Ez (V/m) @ t=0.52
-1.3402405085814366
% es.tEx (V/m) @ t=0.52
2.7003406749478804
% es.tEy (V/m) @ t=0.52
0
% es.tEz (V/m) @ t=0.52
-1.3402405085814308
% V (V) @ t=0.52
0.013685539938591047
% es.normE (V/m) @ t=0.54
3.0587357898110437
% es.EX (V/m) @ t=0.54
2.73820890329503
% es.EY (V/m) @ t=0.54
0.10535371887143963
% es.EZ (V/m) @ t=0.54
-1.3590353570346845
% es.tEX (V/m) @ t=0.54
2.7382089032950345
% es.tEY (V/m) @ t=0.54
0
% es.tEZ (V/m) @ t=0.54
-1.3590353570346778
% es.Ex (V/m) @ t=0.54
2.73820890329503
% es.Ey (V/m) @ t=0.54
0.10535371887143963
% es.Ez (V/m) @ t=0.54
-1.3590353570346845
% es.tEx (V/m) @ t=0.54
2.7382089032950345
% es.tEy (V/m) @ t=0.54
0
% es.tEz (V/m) @ t=0.54
-1.3590353570346778
% V (V) @ t=0.54
0.01387745866992448
% es.normE (V/m) @ t=0.56
3.102319976457313
% es.EX (V/m) @ t=0.56
2.777225853434861
% es.EY (V/m) @ t=0.56
0.10685485510717324
% es.EZ (V/m) @ t=0.56
-1.3784004155720122
% es.tEX (V/m) @ t=0.56
2.777225853434846
% es.tEY (V/m) @ t=0.56
0
% es.tEZ (V/m) @ t=0.56
-1.3784004155720027
% es.Ex (V/m) @ t=0.56
2.777225853434861
% es.Ey (V/m) @ t=0.56
0.10685485510717324
% es.Ez (V/m) @ t=0.56
-1.3784004155720122
% es.tEx (V/m) @ t=0.56
2.777225853434846
% es.tEy (V/m) @ t=0.56
0
% es.tEz (V/m) @ t=0.56
-1.3784004155720027
% V (V) @ t=0.56
0.014075201410368682
% es.normE (V/m) @ t=0.58
3.146616232383244
% es.EX (V/m) @ t=0.58
2.816880239693288
% es.EY (V/m) @ t=0.58
0.10838047743045542
% es.EZ (V/m) @ t=0.58
-1.3980818888453137
% es.tEX (V/m) @ t=0.58
2.8168802396932904
% es.tEY (V/m) @ t=0.58
0
% es.tEZ (V/m) @ t=0.58
-1.3980818888453044
% es.Ex (V/m) @ t=0.58
2.816880239693288
% es.Ey (V/m) @ t=0.58
0.10838047743045542
% es.Ez (V/m) @ t=0.58
-1.3980818888453137
% es.tEx (V/m) @ t=0.58
2.8168802396932904
% es.tEy (V/m) @ t=0.58
0
% es.tEz (V/m) @ t=0.58
-1.3980818888453044
% V (V) @ t=0.58
0.014276175946175466
% es.normE (V/m) @ t=0.6
3.191337513388385
% es.EX (V/m) @ t=0.6
2.856915103448104
% es.EY (V/m) @ t=0.6
0.10992071518736546
% es.EZ (V/m) @ t=0.6
-1.4179522260425115
% es.tEX (V/m) @ t=0.6
2.856915103448099
% es.tEY (V/m) @ t=0.6
0
% es.tEZ (V/m) @ t=0.6
-1.4179522260425088
% es.Ex (V/m) @ t=0.6
2.856915103448104
% es.Ey (V/m) @ t=0.6
0.10992071518736546
% es.Ez (V/m) @ t=0.6
-1.4179522260425115
% es.tEx (V/m) @ t=0.6
2.856915103448099
% es.tEy (V/m) @ t=0.6
0
% es.tEz (V/m) @ t=0.6
-1.4179522260425088
% V (V) @ t=0.6
0.014479079499451451
% es.normE (V/m) @ t=0.62
3.236483819472694
% es.EX (V/m) @ t=0.62
2.8973304446992874
% es.EY (V/m) @ t=0.62
0.11147556837792011
% es.EZ (V/m) @ t=0.62
-1.4380114271635414
% es.tEX (V/m) @ t=0.62
2.897330444699291
% es.tEY (V/m) @ t=0.62
0
% es.tEZ (V/m) @ t=0.62
-1.438011427163552
% es.Ex (V/m) @ t=0.62
2.8973304446992874
% es.Ey (V/m) @ t=0.62
0.11147556837792011
% es.Ez (V/m) @ t=0.62
-1.4380114271635414
% es.tEx (V/m) @ t=0.62
2.897330444699291
% es.tEy (V/m) @ t=0.62
0
% es.tEz (V/m) @ t=0.62
-1.438011427163552
% V (V) @ t=0.62
0.014683912070196637
% es.normE (V/m) @ t=0.64
3.282055150636225
% es.EX (V/m) @ t=0.64
2.938126263446863
% es.EY (V/m) @ t=0.64
0.11304503700206708
% es.EZ (V/m) @ t=0.64
-1.458259492208467
% es.tEX (V/m) @ t=0.64
2.9381262634468417
% es.tEY (V/m) @ t=0.64
0
% es.tEZ (V/m) @ t=0.64
-1.4582594922084624
% es.Ex (V/m) @ t=0.64
2.938126263446863
% es.Ey (V/m) @ t=0.64
0.11304503700206708
% es.Ez (V/m) @ t=0.64
-1.458259492208467
% es.tEx (V/m) @ t=0.64
2.9381262634468417
% es.tEy (V/m) @ t=0.64
0
% es.tEz (V/m) @ t=0.64
-1.4582594922084624
% V (V) @ t=0.64
0.01489067365841102
% es.normE (V/m) @ t=0.66
3.3280515068789285
% es.EX (V/m) @ t=0.66
2.9793025596907876
% es.EY (V/m) @ t=0.66
0.11462912105987022
% es.EZ (V/m) @ t=0.66
-1.478696421177239
% es.tEX (V/m) @ t=0.66
2.9793025596907814
% es.tEY (V/m) @ t=0.66
0
% es.tEZ (V/m) @ t=0.66
-1.478696421177247
% es.Ex (V/m) @ t=0.66
2.9793025596907876
% es.Ey (V/m) @ t=0.66
0.11462912105987022
% es.Ez (V/m) @ t=0.66
-1.478696421177239
% es.tEx (V/m) @ t=0.66
2.9793025596907814
% es.tEy (V/m) @ t=0.66
0
% es.tEz (V/m) @ t=0.66
-1.478696421177247
% V (V) @ t=0.66
0.015099364264094606
% es.normE (V/m) @ t=0.68
3.374472888200816
% es.EX (V/m) @ t=0.68
3.020859333431078
% es.EY (V/m) @ t=0.68
0.11622782055130476
% es.EZ (V/m) @ t=0.68
-1.4993222140698363
% es.tEX (V/m) @ t=0.68
3.020859333431071
% es.tEY (V/m) @ t=0.68
0
% es.tEZ (V/m) @ t=0.68
-1.499322214069828
% es.Ex (V/m) @ t=0.68
3.020859333431078
% es.Ey (V/m) @ t=0.68
0.11622782055130476
% es.Ez (V/m) @ t=0.68
-1.4993222140698363
% es.tEx (V/m) @ t=0.68
3.020859333431071
% es.tEy (V/m) @ t=0.68
0
% es.tEz (V/m) @ t=0.68
-1.499322214069828
% V (V) @ t=0.68
0.01530998388724739
% es.normE (V/m) @ t=0.7
3.42131929460196
% es.EX (V/m) @ t=0.7
3.0627965846677676
% es.EY (V/m) @ t=0.7
0.11784113547638836
% es.EZ (V/m) @ t=0.7
-1.5201368708863368
% es.tEX (V/m) @ t=0.7
3.062796584667762
% es.tEY (V/m) @ t=0.7
0
% es.tEZ (V/m) @ t=0.7
-1.5201368708863399
% es.Ex (V/m) @ t=0.7
3.0627965846677676
% es.Ey (V/m) @ t=0.7
0.11784113547638836
% es.Ez (V/m) @ t=0.7
-1.5201368708863368
% es.tEx (V/m) @ t=0.7
3.062796584667762
% es.tEy (V/m) @ t=0.7
0
% es.tEz (V/m) @ t=0.7
-1.5201368708863399
% V (V) @ t=0.7
0.015522532527869374
% es.normE (V/m) @ t=0.72
3.468590726082314
% es.EX (V/m) @ t=0.72
3.1051143134008137
% es.EY (V/m) @ t=0.72
0.11946906583505273
% es.EZ (V/m) @ t=0.72
-1.5411403916267046
% es.tEX (V/m) @ t=0.72
3.1051143134008132
% es.tEY (V/m) @ t=0.72
0
% es.tEZ (V/m) @ t=0.72
-1.5411403916266977
% es.Ex (V/m) @ t=0.72
3.1051143134008137
% es.Ey (V/m) @ t=0.72
0.11946906583505273
% es.Ez (V/m) @ t=0.72
-1.5411403916267046
% es.tEx (V/m) @ t=0.72
3.1051143134008132
% es.tEy (V/m) @ t=0.72
0
% es.tEz (V/m) @ t=0.72
-1.5411403916266977
% V (V) @ t=0.72
0.01573701018596056
% es.normE (V/m) @ t=0.74
3.5162871826418733
% es.EX (V/m) @ t=0.74
3.1478125196302194
% es.EY (V/m) @ t=0.74
0.12111161162735912
% es.EZ (V/m) @ t=0.74
-1.5623327762908976
% es.tEX (V/m) @ t=0.74
3.1478125196302162
% es.tEY (V/m) @ t=0.74
0
% es.tEZ (V/m) @ t=0.74
-1.5623327762908872
% es.Ex (V/m) @ t=0.74
3.1478125196302194
% es.Ey (V/m) @ t=0.74
0.12111161162735912
% es.Ez (V/m) @ t=0.74
-1.5623327762908976
% es.tEx (V/m) @ t=0.74
3.1478125196302162
% es.tEy (V/m) @ t=0.74
0
% es.tEz (V/m) @ t=0.74
-1.5623327762908872
% V (V) @ t=0.74
0.015953416861520936
% es.normE (V/m) @ t=0.76
3.5644086642807484
% es.EX (V/m) @ t=0.76
3.190891203356051
% es.EY (V/m) @ t=0.76
0.12276877285332338
% es.EZ (V/m) @ t=0.76
-1.5837140248790078
% es.tEX (V/m) @ t=0.76
3.1908912033560473
% es.tEY (V/m) @ t=0.76
0
% es.tEZ (V/m) @ t=0.76
-1.5837140248789865
% es.Ex (V/m) @ t=0.76
3.190891203356051
% es.Ey (V/m) @ t=0.76
0.12276877285332338
% es.Ez (V/m) @ t=0.76
-1.5837140248790078
% es.tEx (V/m) @ t=0.76
3.1908912033560473
% es.tEy (V/m) @ t=0.76
0
% es.tEz (V/m) @ t=0.76
-1.5837140248789865
% V (V) @ t=0.76
0.016171752554550525
% es.normE (V/m) @ t=0.78
3.6129551709987435
% es.EX (V/m) @ t=0.78
3.2343503645781544
% es.EY (V/m) @ t=0.78
0.12444054951287736
% es.EZ (V/m) @ t=0.78
-1.6052841373908864
% es.tEX (V/m) @ t=0.78
3.2343503645781535
% es.tEY (V/m) @ t=0.78
0
% es.tEZ (V/m) @ t=0.78
-1.605284137390882
% es.Ex (V/m) @ t=0.78
3.2343503645781544
% es.Ey (V/m) @ t=0.78
0.12444054951287736
% es.Ez (V/m) @ t=0.78
-1.6052841373908864
% es.tEx (V/m) @ t=0.78
3.2343503645781535
% es.tEy (V/m) @ t=0.78
0
% es.tEz (V/m) @ t=0.78
-1.605284137390882
% V (V) @ t=0.78
0.016392017265049307
% es.normE (V/m) @ t=0.8
3.661926702796081
% es.EX (V/m) @ t=0.8
3.278190003296692
% es.EY (V/m) @ t=0.8
0.12612694160608218
% es.EZ (V/m) @ t=0.8
-1.6270431138266788
% es.tEX (V/m) @ t=0.8
3.2781900032966753
% es.tEY (V/m) @ t=0.8
0
% es.tEZ (V/m) @ t=0.8
-1.6270431138266659
% es.Ex (V/m) @ t=0.8
3.278190003296692
% es.Ey (V/m) @ t=0.8
0.12612694160608218
% es.Ez (V/m) @ t=0.8
-1.6270431138266788
% es.tEx (V/m) @ t=0.8
3.2781900032966753
% es.tEy (V/m) @ t=0.8
0
% es.tEz (V/m) @ t=0.8
-1.6270431138266659
% V (V) @ t=0.8
0.016614210993017287
% es.normE (V/m) @ t=0.82
3.711487347955668
% es.EX (V/m) @ t=0.82
3.3225570448627866
% es.EY (V/m) @ t=0.82
0.1278336866310944
% es.EZ (V/m) @ t=0.82
-1.6490637896046172
% es.tEX (V/m) @ t=0.82
3.3225570448627835
% es.tEY (V/m) @ t=0.82
0
% es.tEZ (V/m) @ t=0.82
-1.649063789604611
% es.Ex (V/m) @ t=0.82
3.3225570448627866
% es.Ey (V/m) @ t=0.82
0.1278336866310944
% es.Ez (V/m) @ t=0.82
-1.6490637896046172
% es.tEx (V/m) @ t=0.82
3.3225570448627835
% es.tEy (V/m) @ t=0.82
0
% es.tEz (V/m) @ t=0.82
-1.649063789604611
% V (V) @ t=0.82
0.01683907576262244
% es.normE (V/m) @ t=0.84
3.762210915285644
% es.EX (V/m) @ t=0.84
3.3679652801402318
% es.EY (V/m) @ t=0.84
0.1295808483423384
% es.EZ (V/m) @ t=0.84
-1.6716008666681432
% es.tEX (V/m) @ t=0.84
3.3679652801402415
% es.tEY (V/m) @ t=0.84
0
% es.tEZ (V/m) @ t=0.84
-1.671600866668129
% es.Ex (V/m) @ t=0.84
3.3679652801402318
% es.Ey (V/m) @ t=0.84
0.1295808483423384
% es.Ez (V/m) @ t=0.84
-1.6716008666681432
% es.tEx (V/m) @ t=0.84
3.3679652801402415
% es.tEy (V/m) @ t=0.84
0
% es.tEz (V/m) @ t=0.84
-1.671600866668129
% V (V) @ t=0.84
0.017069206396576664
% es.normE (V/m) @ t=0.86
3.8134798296092214
% es.EX (V/m) @ t=0.86
3.413861729671401
% es.EY (V/m) @ t=0.86
0.13134683265387914
% es.EZ (V/m) @ t=0.86
-1.6943802160817747
% es.tEX (V/m) @ t=0.86
3.4138617296713836
% es.tEY (V/m) @ t=0.86
0
% es.tEZ (V/m) @ t=0.86
-1.6943802160817611
% es.Ex (V/m) @ t=0.86
3.413861729671401
% es.Ey (V/m) @ t=0.86
0.13134683265387914
% es.Ez (V/m) @ t=0.86
-1.6943802160817747
% es.tEx (V/m) @ t=0.86
3.4138617296713836
% es.tEy (V/m) @ t=0.86
0
% es.tEz (V/m) @ t=0.86
-1.6943802160817611
% V (V) @ t=0.86
0.017301810156127684
% es.normE (V/m) @ t=0.88
3.8652940909263904
% es.EX (V/m) @ t=0.88
3.460246393456268
% es.EY (V/m) @ t=0.88
0.1331316395658399
% es.EZ (V/m) @ t=0.88
-1.717401837845519
% es.tEX (V/m) @ t=0.88
3.460246393456268
% es.tEY (V/m) @ t=0.88
0
% es.tEZ (V/m) @ t=0.88
-1.7174018378455145
% es.Ex (V/m) @ t=0.88
3.460246393456268
% es.Ey (V/m) @ t=0.88
0.1331316395658399
% es.Ez (V/m) @ t=0.88
-1.717401837845519
% es.tEx (V/m) @ t=0.88
3.460246393456268
% es.tEy (V/m) @ t=0.88
0
% es.tEz (V/m) @ t=0.88
-1.7174018378455145
% V (V) @ t=0.88
0.017536887041275494
% es.normE (V/m) @ t=0.9
3.9176536992372384
% es.EX (V/m) @ t=0.9
3.507119271494873
% es.EY (V/m) @ t=0.9
0.13493526907816378
% es.EZ (V/m) @ t=0.9
-1.7406657319594645
% es.tEX (V/m) @ t=0.9
3.5071192714948634
% es.tEY (V/m) @ t=0.9
0
% es.tEZ (V/m) @ t=0.9
-1.7406657319594103
% es.Ex (V/m) @ t=0.9
3.507119271494873
% es.Ey (V/m) @ t=0.9
0.13493526907816378
% es.Ez (V/m) @ t=0.9
-1.7406657319594645
% es.tEx (V/m) @ t=0.9
3.5071192714948634
% es.tEy (V/m) @ t=0.9
0
% es.tEz (V/m) @ t=0.9
-1.7406657319594103
% V (V) @ t=0.9
0.0177744370520201
% es.normE (V/m) @ t=0.92
3.9705586545417004
% es.EX (V/m) @ t=0.92
3.5544803637871745
% es.EY (V/m) @ t=0.92
0.13675772119083734
% es.EZ (V/m) @ t=0.92
-1.764171898423526
% es.tEX (V/m) @ t=0.92
3.554480363787185
% es.tEY (V/m) @ t=0.92
0
% es.tEZ (V/m) @ t=0.92
-1.7641718984234842
% es.Ex (V/m) @ t=0.92
3.5544803637871745
% es.Ey (V/m) @ t=0.92
0.13675772119083734
% es.Ez (V/m) @ t=0.92
-1.764171898423526
% es.tEx (V/m) @ t=0.92
3.554480363787185
% es.tEy (V/m) @ t=0.92
0
% es.tEz (V/m) @ t=0.92
-1.7641718984234842
% V (V) @ t=0.92
0.0180144601883615
% es.normE (V/m) @ t=0.94
4.024008956839873
% es.EX (V/m) @ t=0.94
3.6023296703332504
% es.EY (V/m) @ t=0.94
0.13859899590391245
% es.EZ (V/m) @ t=0.94
-1.787920337237725
% es.tEX (V/m) @ t=0.94
3.6023296703332477
% es.tEY (V/m) @ t=0.94
0
% es.tEZ (V/m) @ t=0.94
-1.7879203372377361
% es.Ex (V/m) @ t=0.94
3.6023296703332504
% es.Ey (V/m) @ t=0.94
0.13859899590391245
% es.Ez (V/m) @ t=0.94
-1.787920337237725
% es.tEx (V/m) @ t=0.94
3.6023296703332477
% es.tEy (V/m) @ t=0.94
0
% es.tEz (V/m) @ t=0.94
-1.7879203372377361
% V (V) @ t=0.94
0.01825695645029969
% es.normE (V/m) @ t=0.96
4.07800460613165
% es.EX (V/m) @ t=0.96
3.6506671911329747
% es.EY (V/m) @ t=0.96
0.14045909321734168
% es.EZ (V/m) @ t=0.96
-1.8119110484020404
% es.tEX (V/m) @ t=0.96
3.6506671911329818
% es.tEY (V/m) @ t=0.96
0
% es.tEZ (V/m) @ t=0.96
-1.8119110484020382
% es.Ex (V/m) @ t=0.96
3.6506671911329747
% es.Ey (V/m) @ t=0.96
0.14045909321734168
% es.Ez (V/m) @ t=0.96
-1.8119110484020404
% es.tEx (V/m) @ t=0.96
3.6506671911329818
% es.tEy (V/m) @ t=0.96
0
% es.tEz (V/m) @ t=0.96
-1.8119110484020382
% V (V) @ t=0.96
0.018501925837834676
% es.normE (V/m) @ t=0.98
4.132545602417165
% es.EX (V/m) @ t=0.98
3.6994929261864593
% es.EY (V/m) @ t=0.98
0.14233801313112443
% es.EZ (V/m) @ t=0.98
-1.8361440319165108
% es.tEX (V/m) @ t=0.98
3.6994929261864584
% es.tEY (V/m) @ t=0.98
0
% es.tEZ (V/m) @ t=0.98
-1.836144031916504
% es.Ex (V/m) @ t=0.98
3.6994929261864593
% es.Ey (V/m) @ t=0.98
0.14233801313112443
% es.Ez (V/m) @ t=0.98
-1.8361440319165108
% es.tEx (V/m) @ t=0.98
3.6994929261864584
% es.tEy (V/m) @ t=0.98
0
% es.tEz (V/m) @ t=0.98
-1.836144031916504
% V (V) @ t=0.98
0.01874936835096645
% es.normE (V/m) @ t=1
4.187631945696387
% es.EX (V/m) @ t=1
3.7488068754936443
% es.EY (V/m) @ t=1
0.1442357556453075
% es.EZ (V/m) @ t=1
-1.8606192877811365
% es.tEX (V/m) @ t=1
3.748806875493642
% es.tEY (V/m) @ t=1
0
% es.tEZ (V/m) @ t=1
-1.8606192877811338
% es.Ex (V/m) @ t=1
3.7488068754936443
% es.Ey (V/m) @ t=1
0.1442357556453075
% es.Ez (V/m) @ t=1
-1.8606192877811365
% es.tEx (V/m) @ t=1
3.748806875493642
% es.tEy (V/m) @ t=1
0
% es.tEz (V/m) @ t=1
-1.8606192877811338
% V (V) @ t=1
0.01899928398969502
% es.normE (V/m) @ t=1.02
4.24326363596939
% es.EX (V/m) @ t=1.02
3.7986090390545915
% es.EY (V/m) @ t=1.02
0.1461523207598564
% es.EZ (V/m) @ t=1.02
-1.885336815995921
% es.tEX (V/m) @ t=1.02
3.798609039054586
% es.tEY (V/m) @ t=1.02
0
% es.tEZ (V/m) @ t=1.02
-1.885336815995899
% es.Ex (V/m) @ t=1.02
3.7986090390545915
% es.Ey (V/m) @ t=1.02
0.1461523207598564
% es.Ez (V/m) @ t=1.02
-1.885336815995921
% es.tEx (V/m) @ t=1.02
3.798609039054586
% es.tEy (V/m) @ t=1.02
0
% es.tEz (V/m) @ t=1.02
-1.885336815995899
% V (V) @ t=1.02
0.019251672754020385
% es.normE (V/m) @ t=1.04
4.299440673236086
% es.EX (V/m) @ t=1.04
3.848899416869215
% es.EY (V/m) @ t=1.04
0.14808770847475428
% es.EZ (V/m) @ t=1.04
-1.9102966165607895
% es.tEX (V/m) @ t=1.04
3.8488994168692
% es.tEY (V/m) @ t=1.04
0
% es.tEZ (V/m) @ t=1.04
-1.910296616560771
% es.Ex (V/m) @ t=1.04