% Model:              1 neuron.mph
% Version:            COMSOL 6.0.0.405
% Date:               Mar 16 2023, 19:00
% Dimension:          0
% Nodes:              14017
% Expressions:        14017
% Description:        Electric field norm, Electric field, X component, Electric field, Y component, Electric field, Z component, Tangential electric field, X component, Tangential electric field, Y component, Tangential electric field, Z component, Electric field, x component, Electric field, y component, Electric field, z component, Tangential electric field, x component, Tangential electric field, y component, Tangential electric field, z component, Electric potential
% Length unit:        mm
% x
1.0000000000000002
% y
12.2
% z
2
% es.normE (V/m) @ t=0
1.060633056467362
% es.EX (V/m) @ t=0
0.7367239916574666
% es.EY (V/m) @ t=0
0.11031561250342542
% es.EZ (V/m) @ t=0
-0.7356492582638174
% es.tEX (V/m) @ t=0
0.7367239916574695
% es.tEY (V/m) @ t=0
0
% es.tEZ (V/m) @ t=0
-0.7356492582637992
% es.Ex (V/m) @ t=0
0.7367239916574666
% es.Ey (V/m) @ t=0
0.11031561250342542
% es.Ez (V/m) @ t=0
-0.7356492582638174
% es.tEx (V/m) @ t=0
0.7367239916574695
% es.tEy (V/m) @ t=0
0
% es.tEz (V/m) @ t=0
-0.7356492582637992
% V (V) @ t=0
0.011358000377699006
% es.normE (V/m) @ t=0.02
0.9211679106969246
% es.EX (V/m) @ t=0.02
0.6398504101954714
% es.EY (V/m) @ t=0.02
0.09580996918137968
% es.EZ (V/m) @ t=0.02
-0.6389169989616963
% es.tEX (V/m) @ t=0.02
0.6398504101954745
% es.tEY (V/m) @ t=0.02
0
% es.tEZ (V/m) @ t=0.02
-0.6389169989616854
% es.Ex (V/m) @ t=0.02
0.6398504101954714
% es.Ey (V/m) @ t=0.02
0.09580996918137968
% es.Ez (V/m) @ t=0.02
-0.6389169989616963
% es.tEx (V/m) @ t=0.02
0.6398504101954745
% es.tEy (V/m) @ t=0.02
0
% es.tEz (V/m) @ t=0.02
-0.6389169989616854
% V (V) @ t=0.02
0.009864509235011868
% es.normE (V/m) @ t=0.04
0.9348266300211441
% es.EX (V/m) @ t=0.04
0.6493378649643333
% es.EY (V/m) @ t=0.04
0.09723059350592334
% es.EZ (V/m) @ t=0.04
-0.6483906119574532
% es.tEX (V/m) @ t=0.04
0.6493378649643362
% es.tEY (V/m) @ t=0.04
0
% es.tEZ (V/m) @ t=0.04
-0.6483906119574385
% es.Ex (V/m) @ t=0.04
0.6493378649643333
% es.Ey (V/m) @ t=0.04
0.09723059350592334
% es.Ez (V/m) @ t=0.04
-0.6483906119574532
% es.tEx (V/m) @ t=0.04
0.6493378649643362
% es.tEy (V/m) @ t=0.04
0
% es.tEz (V/m) @ t=0.04
-0.6483906119574385
% V (V) @ t=0.04
0.01001077676895326
% es.normE (V/m) @ t=0.06
0.9486910353889758
% es.EX (V/m) @ t=0.06
0.6589681907465907
% es.EY (V/m) @ t=0.06
0.09867261124436555
% es.EZ (V/m) @ t=0.06
-0.6580068877515295
% es.tEX (V/m) @ t=0.06
0.6589681907465921
% es.tEY (V/m) @ t=0.06
0
% es.tEZ (V/m) @ t=0.06
-0.6580068877515219
% es.Ex (V/m) @ t=0.06
0.6589681907465907
% es.Ey (V/m) @ t=0.06
0.09867261124436555
% es.Ez (V/m) @ t=0.06
-0.6580068877515295
% es.tEx (V/m) @ t=0.06
0.6589681907465921
% es.tEy (V/m) @ t=0.06
0
% es.tEz (V/m) @ t=0.06
-0.6580068877515219
% V (V) @ t=0.06
0.010159246912034455
% es.normE (V/m) @ t=0.08
0.9629073397928027
% es.EX (V/m) @ t=0.08
0.6688429474284843
% es.EY (V/m) @ t=0.08
0.10015123416581662
% es.EZ (V/m) @ t=0.08
-0.6678672385378164
% es.tEX (V/m) @ t=0.08
0.6688429474284852
% es.tEY (V/m) @ t=0.08
0
% es.tEZ (V/m) @ t=0.08
-0.6678672385378088
% es.Ex (V/m) @ t=0.08
0.6688429474284843
% es.Ey (V/m) @ t=0.08
0.10015123416581662
% es.Ez (V/m) @ t=0.08
-0.6678672385378164
% es.tEx (V/m) @ t=0.08
0.6688429474284852
% es.tEy (V/m) @ t=0.08
0
% es.tEz (V/m) @ t=0.08
-0.6678672385378088
% V (V) @ t=0.08
0.010311485221895362
% es.normE (V/m) @ t=0.1
0.977372850185711
% es.EX (V/m) @ t=0.1
0.6788908038858172
% es.EY (V/m) @ t=0.1
0.10165577995126435
% es.EZ (V/m) @ t=0.1
-0.6779004370548951
% es.tEX (V/m) @ t=0.1
0.6788908038858223
% es.tEY (V/m) @ t=0.1
0
% es.tEZ (V/m) @ t=0.1
-0.6779004370548805
% es.Ex (V/m) @ t=0.1
0.6788908038858172
% es.Ey (V/m) @ t=0.1
0.10165577995126435
% es.Ez (V/m) @ t=0.1
-0.6779004370548951
% es.tEx (V/m) @ t=0.1
0.6788908038858223
% es.tEy (V/m) @ t=0.1
0
% es.tEz (V/m) @ t=0.1
-0.6779004370548805
% V (V) @ t=0.1
0.010466392052079705
% es.normE (V/m) @ t=0.12
0.9918383605786152
% es.EX (V/m) @ t=0.12
0.68893866034315
% es.EY (V/m) @ t=0.12
0.10316032573671685
% es.EZ (V/m) @ t=0.12
-0.6879336355719694
% es.tEX (V/m) @ t=0.12
0.6889386603431533
% es.tEY (V/m) @ t=0.12
0
% es.tEZ (V/m) @ t=0.12
-0.6879336355719583
% es.Ex (V/m) @ t=0.12
0.68893866034315
% es.Ey (V/m) @ t=0.12
0.10316032573671685
% es.Ez (V/m) @ t=0.12
-0.6879336355719694
% es.tEx (V/m) @ t=0.12
0.6889386603431533
% es.tEy (V/m) @ t=0.12
0
% es.tEz (V/m) @ t=0.12
-0.6879336355719583
% V (V) @ t=0.12
0.010621298882264044
% es.normE (V/m) @ t=0.14
1.0065394238208731
% es.EX (V/m) @ t=0.14
0.6991501299638461
% es.EY (V/m) @ t=0.14
0.1046893890279133
% es.EZ (V/m) @ t=0.14
-0.6981302112734125
% es.tEX (V/m) @ t=0.14
0.6991501299638458
% es.tEY (V/m) @ t=0.14
0
% es.tEZ (V/m) @ t=0.14
-0.6981302112733978
% es.Ex (V/m) @ t=0.14
0.6991501299638461
% es.Ey (V/m) @ t=0.14
0.1046893890279133
% es.Ez (V/m) @ t=0.14
-0.6981302112734125
% es.tEx (V/m) @ t=0.14
0.6991501299638458
% es.tEy (V/m) @ t=0.14
0
% es.tEz (V/m) @ t=0.14
-0.6981302112733978
% V (V) @ t=0.14
0.010778727316945211
% es.normE (V/m) @ t=0.16
1.022307663628713
% es.EX (V/m) @ t=0.16
0.7101028520645751
% es.EY (V/m) @ t=0.16
0.10632952933503204
% es.EZ (V/m) @ t=0.16
-0.7090669703476684
% es.tEX (V/m) @ t=0.16
0.7101028520645776
% es.tEY (V/m) @ t=0.16
0
% es.tEZ (V/m) @ t=0.16
-0.7090669703476573
% es.Ex (V/m) @ t=0.16
0.7101028520645751
% es.Ey (V/m) @ t=0.16
0.10632952933503204
% es.Ez (V/m) @ t=0.16
-0.7090669703476684
% es.tEx (V/m) @ t=0.16
0.7101028520645776
% es.tEy (V/m) @ t=0.16
0
% es.tEz (V/m) @ t=0.16
-0.7090669703476573
% V (V) @ t=0.16
0.01094757992770461
% es.normE (V/m) @ t=0.18
1.0380759034365705
% es.EX (V/m) @ t=0.18
0.7210555741653082
% es.EY (V/m) @ t=0.18
0.10796966964215443
% es.EZ (V/m) @ t=0.18
-0.7200037294219337
% es.tEX (V/m) @ t=0.18
0.7210555741653106
% es.tEY (V/m) @ t=0.18
0
% es.tEZ (V/m) @ t=0.18
-0.720003729421923
% es.Ex (V/m) @ t=0.18
0.7210555741653082
% es.Ey (V/m) @ t=0.18
0.10796966964215443
% es.Ez (V/m) @ t=0.18
-0.7200037294219337
% es.tEx (V/m) @ t=0.18
0.7210555741653106
% es.tEy (V/m) @ t=0.18
0
% es.tEz (V/m) @ t=0.18
-0.720003729421923
% V (V) @ t=0.18
0.011116432538464005
% es.normE (V/m) @ t=0.2
1.053844143244433
% es.EX (V/m) @ t=0.2
0.7320082962660444
% es.EY (V/m) @ t=0.2
0.1096098099492705
% es.EZ (V/m) @ t=0.2
-0.7309404884961856
% es.tEX (V/m) @ t=0.2
0.7320082962660441
% es.tEY (V/m) @ t=0.2
0
% es.tEZ (V/m) @ t=0.2
-0.7309404884961745
% es.Ex (V/m) @ t=0.2
0.7320082962660444
% es.Ey (V/m) @ t=0.2
0.1096098099492705
% es.Ez (V/m) @ t=0.2
-0.7309404884961856
% es.tEx (V/m) @ t=0.2
0.7320082962660441
% es.tEy (V/m) @ t=0.2
0
% es.tEz (V/m) @ t=0.2
-0.7309404884961745
% V (V) @ t=0.2
0.0112852851492234
% es.normE (V/m) @ t=0.22
1.069612383052299
% es.EX (V/m) @ t=0.22
0.7429610183667743
% es.EY (V/m) @ t=0.22
0.11124995025638384
% es.EZ (V/m) @ t=0.22
-0.7418772475704345
% es.tEX (V/m) @ t=0.22
0.7429610183667767
% es.tEY (V/m) @ t=0.22
0
% es.tEZ (V/m) @ t=0.22
-0.741877247570427
% es.Ex (V/m) @ t=0.22
0.7429610183667743
% es.Ey (V/m) @ t=0.22
0.11124995025638384
% es.Ez (V/m) @ t=0.22
-0.7418772475704345
% es.tEx (V/m) @ t=0.22
0.7429610183667767
% es.tEy (V/m) @ t=0.22
0
% es.tEz (V/m) @ t=0.22
-0.741877247570427
% V (V) @ t=0.22
0.011454137759982799
% es.normE (V/m) @ t=0.24
1.0853806228601868
% es.EX (V/m) @ t=0.24
0.753913740467508
% es.EY (V/m) @ t=0.24
0.11289009056351318
% es.EZ (V/m) @ t=0.24
-0.7528140066446967
% es.tEX (V/m) @ t=0.24
0.7539137404675103
% es.tEY (V/m) @ t=0.24
0
% es.tEZ (V/m) @ t=0.24
-0.7528140066446856
% es.Ex (V/m) @ t=0.24
0.753913740467508
% es.Ey (V/m) @ t=0.24
0.11289009056351318
% es.Ez (V/m) @ t=0.24
-0.7528140066446967
% es.tEx (V/m) @ t=0.24
0.7539137404675103
% es.tEy (V/m) @ t=0.24
0
% es.tEz (V/m) @ t=0.24
-0.7528140066446856
% V (V) @ t=0.24
0.011622990370742194
% es.normE (V/m) @ t=0.26
1.1011488626680832
% es.EX (V/m) @ t=0.26
0.7648664625682471
% es.EY (V/m) @ t=0.26
0.11453023087061764
% es.EZ (V/m) @ t=0.26
-0.7637507657189526
% es.tEX (V/m) @ t=0.26
0.764866462568246
% es.tEY (V/m) @ t=0.26
0
% es.tEZ (V/m) @ t=0.26
-0.7637507657189451
% es.Ex (V/m) @ t=0.26
0.7648664625682471
% es.Ey (V/m) @ t=0.26
0.11453023087061764
% es.Ez (V/m) @ t=0.26
-0.7637507657189526
% es.tEx (V/m) @ t=0.26
0.764866462568246
% es.tEy (V/m) @ t=0.26
0
% es.tEz (V/m) @ t=0.26
-0.7637507657189451
% V (V) @ t=0.26
0.01179184298150159
% es.normE (V/m) @ t=0.28
1.117439772908608
% es.EX (V/m) @ t=0.28
0.7761822427997573
% es.EY (V/m) @ t=0.28
0.11622469899281096
% es.EZ (V/m) @ t=0.28
-0.7750500480338922
% es.tEX (V/m) @ t=0.28
0.7761822427997633
% es.tEY (V/m) @ t=0.28
0
% es.tEZ (V/m) @ t=0.28
-0.7750500480338776
% es.Ex (V/m) @ t=0.28
0.7761822427997573
% es.Ey (V/m) @ t=0.28
0.11622469899281096
% es.Ez (V/m) @ t=0.28
-0.7750500480338922
% es.tEx (V/m) @ t=0.28
0.7761822427997633
% es.tEy (V/m) @ t=0.28
0
% es.tEz (V/m) @ t=0.28
-0.7750500480338776
% V (V) @ t=0.28
0.01196629438590063
% es.normE (V/m) @ t=0.3
1.1346145373903056
% es.EX (V/m) @ t=0.3
0.7881119672084351
% es.EY (V/m) @ t=0.3
0.11801103737732732
% es.EZ (V/m) @ t=0.3
-0.7869623700078501
% es.tEX (V/m) @ t=0.3
0.7881119672084376
% es.tEY (V/m) @ t=0.3
0
% es.tEZ (V/m) @ t=0.3
-0.7869623700078323
% es.Ex (V/m) @ t=0.3
0.7881119672084351
% es.Ey (V/m) @ t=0.3
0.11801103737732732
% es.Ez (V/m) @ t=0.3
-0.7869623700078501
% es.tEx (V/m) @ t=0.3
0.7881119672084376
% es.tEy (V/m) @ t=0.3
0
% es.tEz (V/m) @ t=0.3
-0.7869623700078323
% V (V) @ t=0.3
0.01215021354893848
% es.normE (V/m) @ t=0.32
1.1517893018719818
% es.EX (V/m) @ t=0.32
0.8000416916171036
% es.EY (V/m) @ t=0.32
0.11979737576184907
% es.EZ (V/m) @ t=0.32
-0.7988746919817866
% es.tEX (V/m) @ t=0.32
0.8000416916171016
% es.tEY (V/m) @ t=0.32
0
% es.tEZ (V/m) @ t=0.32
-0.7988746919817791
% es.Ex (V/m) @ t=0.32
0.8000416916171036
% es.Ey (V/m) @ t=0.32
0.11979737576184907
% es.Ez (V/m) @ t=0.32
-0.7988746919817866
% es.tEx (V/m) @ t=0.32
0.8000416916171016
% es.tEy (V/m) @ t=0.32
0
% es.tEz (V/m) @ t=0.32
-0.7988746919817791
% V (V) @ t=0.32
0.012334132711976326
% es.normE (V/m) @ t=0.34
1.1689640663536758
% es.EX (V/m) @ t=0.34
0.8119714160257663
% es.EY (V/m) @ t=0.34
0.12158371414636188
% es.EZ (V/m) @ t=0.34
-0.8107870139557591
% es.tEX (V/m) @ t=0.34
0.8119714160257687
% es.tEY (V/m) @ t=0.34
0
% es.tEZ (V/m) @ t=0.34
-0.810787013955748
% es.Ex (V/m) @ t=0.34
0.8119714160257663
% es.Ey (V/m) @ t=0.34
0.12158371414636188
% es.Ez (V/m) @ t=0.34
-0.8107870139557591
% es.tEx (V/m) @ t=0.34
0.8119714160257687
% es.tEy (V/m) @ t=0.34
0
% es.tEz (V/m) @ t=0.34
-0.810787013955748
% V (V) @ t=0.34
0.012518051875014174
% es.normE (V/m) @ t=0.36
1.1861388308353626
% es.EX (V/m) @ t=0.36
0.8239011404344405
% es.EY (V/m) @ t=0.36
0.12337005253087313
% es.EZ (V/m) @ t=0.36
-0.8226993359297059
% es.tEX (V/m) @ t=0.36
0.8239011404344474
% es.tEY (V/m) @ t=0.36
0
% es.tEZ (V/m) @ t=0.36
-0.8226993359296877
% es.Ex (V/m) @ t=0.36
0.8239011404344405
% es.Ey (V/m) @ t=0.36
0.12337005253087313
% es.Ez (V/m) @ t=0.36
-0.8226993359297059
% es.tEx (V/m) @ t=0.36
0.8239011404344474
% es.tEy (V/m) @ t=0.36
0
% es.tEz (V/m) @ t=0.36
-0.8226993359296877
% V (V) @ t=0.36
0.012701971038052023
% es.normE (V/m) @ t=0.38
1.2033135953170464
% es.EX (V/m) @ t=0.38
0.8358308648431139
% es.EY (V/m) @ t=0.38
0.12515639091538594
% es.EZ (V/m) @ t=0.38
-0.8346116579036464
% es.tEX (V/m) @ t=0.38
0.8358308648431154
% es.tEY (V/m) @ t=0.38
0
% es.tEZ (V/m) @ t=0.38
-0.8346116579036282
% es.Ex (V/m) @ t=0.38
0.8358308648431139
% es.Ey (V/m) @ t=0.38
0.12515639091538594
% es.Ez (V/m) @ t=0.38
-0.8346116579036464
% es.tEx (V/m) @ t=0.38
0.8358308648431154
% es.tEy (V/m) @ t=0.38
0
% es.tEz (V/m) @ t=0.38
-0.8346116579036282
% V (V) @ t=0.38
0.012885890201089868
% es.normE (V/m) @ t=0.4
1.2204883597987433
% es.EX (V/m) @ t=0.4
0.847760589251785
% es.EY (V/m) @ t=0.4
0.12694272929990696
% es.EZ (V/m) @ t=0.4
-0.846523979877611
% es.tEX (V/m) @ t=0.4
0.847760589251787
% es.tEY (V/m) @ t=0.4
0
% es.tEZ (V/m) @ t=0.4
-0.8465239798776034
% es.Ex (V/m) @ t=0.4
0.847760589251785
% es.Ey (V/m) @ t=0.4
0.12694272929990696
% es.Ez (V/m) @ t=0.4
-0.846523979877611
% es.tEx (V/m) @ t=0.4
0.847760589251787
% es.tEy (V/m) @ t=0.4
0
% es.tEz (V/m) @ t=0.4
-0.8465239798776034
% V (V) @ t=0.4
0.013069809364127716
% es.normE (V/m) @ t=0.42
1.238513793685573
% es.EX (V/m) @ t=0.42
0.8602811867272935
% es.EY (V/m) @ t=0.42
0.12881758687003492
% es.EZ (V/m) @ t=0.42
-0.8590263191012508
% es.tEX (V/m) @ t=0.42
0.860281186727295
% es.tEY (V/m) @ t=0.42
0
% es.tEZ (V/m) @ t=0.42
-0.8590263191012397
% es.Ex (V/m) @ t=0.42
0.8602811867272935
% es.Ey (V/m) @ t=0.42
0.12881758687003492
% es.Ez (V/m) @ t=0.42
-0.8590263191012508
% es.tEx (V/m) @ t=0.42
0.860281186727295
% es.tEy (V/m) @ t=0.42
0
% es.tEz (V/m) @ t=0.42
-0.8590263191012397
% V (V) @ t=0.42
0.013262836084406168
% es.normE (V/m) @ t=0.44
1.257201145800155
% es.EX (V/m) @ t=0.44
0.8732615511238273
% es.EY (V/m) @ t=0.44
0.13076132250508166
% es.EZ (V/m) @ t=0.44
-0.8719877593221823
% es.tEX (V/m) @ t=0.44
0.8732615511238357
% es.tEY (V/m) @ t=0.44
0
% es.tEZ (V/m) @ t=0.44
-0.8719877593221677
% es.Ex (V/m) @ t=0.44
0.8732615511238273
% es.Ey (V/m) @ t=0.44
0.13076132250508166
% es.Ez (V/m) @ t=0.44
-0.8719877593221823
% es.tEx (V/m) @ t=0.44
0.8732615511238357
% es.tEy (V/m) @ t=0.44
0
% es.tEz (V/m) @ t=0.44
-0.8719877593221677
% V (V) @ t=0.44
0.01346294952734238
% es.normE (V/m) @ t=0.46
1.2758884979147336
% es.EX (V/m) @ t=0.46
0.8862419155203645
% es.EY (V/m) @ t=0.46
0.1327050581400933
% es.EZ (V/m) @ t=0.46
-0.8849491995430996
% es.tEX (V/m) @ t=0.46
0.8862419155203693
% es.tEY (V/m) @ t=0.46
0
% es.tEZ (V/m) @ t=0.46
-0.8849491995430814
% es.Ex (V/m) @ t=0.46
0.8862419155203645
% es.Ey (V/m) @ t=0.46
0.1327050581400933
% es.Ez (V/m) @ t=0.46
-0.8849491995430996
% es.tEx (V/m) @ t=0.46
0.8862419155203693
% es.tEy (V/m) @ t=0.46
0
% es.tEz (V/m) @ t=0.46
-0.8849491995430814
% V (V) @ t=0.46
0.013663062970278594
% es.normE (V/m) @ t=0.48
1.2945758500293247
% es.EX (V/m) @ t=0.48
0.8992222799168987
% es.EY (V/m) @ t=0.48
0.13464879377512196
% es.EZ (V/m) @ t=0.48
-0.8979106397640284
% es.tEX (V/m) @ t=0.48
0.8992222799169012
% es.tEY (V/m) @ t=0.48
0
% es.tEZ (V/m) @ t=0.48
-0.8979106397640102
% es.Ex (V/m) @ t=0.48
0.8992222799168987
% es.Ey (V/m) @ t=0.48
0.13464879377512196
% es.Ez (V/m) @ t=0.48
-0.8979106397640284
% es.tEx (V/m) @ t=0.48
0.8992222799169012
% es.tEy (V/m) @ t=0.48
0
% es.tEz (V/m) @ t=0.48
-0.8979106397640102
% V (V) @ t=0.48
0.013863176413214807
% es.normE (V/m) @ t=0.5
1.313263202143912
% es.EX (V/m) @ t=0.5
0.912202644313441
% es.EY (V/m) @ t=0.5
0.13659252941014116
% es.EZ (V/m) @ t=0.5
-0.9108720799849412
% es.tEX (V/m) @ t=0.5
0.9122026443134454
% es.tEY (V/m) @ t=0.5
0
% es.tEZ (V/m) @ t=0.5
-0.910872079984923
% es.Ex (V/m) @ t=0.5
0.912202644313441
% es.Ey (V/m) @ t=0.5
0.13659252941014116
% es.Ez (V/m) @ t=0.5
-0.9108720799849412
% es.tEx (V/m) @ t=0.5
0.9122026443134454
% es.tEy (V/m) @ t=0.5
0
% es.tEz (V/m) @ t=0.5
-0.910872079984923
% V (V) @ t=0.5
0.014063289856151025
% es.normE (V/m) @ t=0.52
1.3319505542585084
% es.EX (V/m) @ t=0.52
0.9251830087099762
% es.EY (V/m) @ t=0.52
0.13853626504515915
% es.EZ (V/m) @ t=0.52
-0.9238335202058701
% es.tEX (V/m) @ t=0.52
0.925183008709979
% es.tEY (V/m) @ t=0.52
0
% es.tEZ (V/m) @ t=0.52
-0.9238335202058661
% es.Ex (V/m) @ t=0.52
0.9251830087099762
% es.Ey (V/m) @ t=0.52
0.13853626504515915
% es.Ez (V/m) @ t=0.52
-0.9238335202058701
% es.tEx (V/m) @ t=0.52
0.925183008709979
% es.tEy (V/m) @ t=0.52
0
% es.tEz (V/m) @ t=0.52
-0.9238335202058661
% V (V) @ t=0.52
0.014263403299087237
% es.normE (V/m) @ t=0.54
1.350637906373119
% es.EX (V/m) @ t=0.54
0.9381633731065186
% es.EY (V/m) @ t=0.54
0.14048000068018968
% es.EZ (V/m) @ t=0.54
-0.9367949604268078
% es.tEX (V/m) @ t=0.54
0.9381633731065233
% es.tEY (V/m) @ t=0.54
0
% es.tEZ (V/m) @ t=0.54
-0.9367949604267931
% es.Ex (V/m) @ t=0.54
0.9381633731065186
% es.Ey (V/m) @ t=0.54
0.14048000068018968
% es.Ez (V/m) @ t=0.54
-0.9367949604268078
% es.tEx (V/m) @ t=0.54
0.9381633731065233
% es.tEy (V/m) @ t=0.54
0
% es.tEz (V/m) @ t=0.54
-0.9367949604267931
% V (V) @ t=0.54
0.01446351674202345
% es.normE (V/m) @ t=0.56
1.369859949762851
% es.EX (V/m) @ t=0.56
0.9515151477291737
% es.EY (V/m) @ t=0.56
0.14247930278063592
% es.EZ (V/m) @ t=0.56
-0.9501272621937189
% es.tEX (V/m) @ t=0.56
0.9515151477291863
% es.tEY (V/m) @ t=0.56
0
% es.tEZ (V/m) @ t=0.56
-0.9501272621937007
% es.Ex (V/m) @ t=0.56
0.9515151477291737
% es.Ey (V/m) @ t=0.56
0.14247930278063592
% es.Ez (V/m) @ t=0.56
-0.9501272621937189
% es.tEx (V/m) @ t=0.56
0.9515151477291863
% es.tEy (V/m) @ t=0.56
0
% es.tEz (V/m) @ t=0.56
-0.9501272621937007
% V (V) @ t=0.56
0.014669358264449605
% es.normE (V/m) @ t=0.58
1.3894217885134519
% es.EX (V/m) @ t=0.58
0.965102952894455
% es.EY (V/m) @ t=0.58
0.14451391727171192
% es.EZ (V/m) @ t=0.58
-0.9636952458180343
% es.tEX (V/m) @ t=0.58
0.9651029528944597
% es.tEY (V/m) @ t=0.58
0
% es.tEZ (V/m) @ t=0.58
-0.9636952458180232
% es.Ex (V/m) @ t=0.58
0.965102952894455
% es.Ey (V/m) @ t=0.58
0.14451391727171192
% es.Ez (V/m) @ t=0.58
-0.9636952458180343
% es.tEx (V/m) @ t=0.58
0.9651029528944597
% es.tEy (V/m) @ t=0.58
0
% es.tEz (V/m) @ t=0.58
-0.9636952458180232
% V (V) @ t=0.58
0.014878839971273131
% es.normE (V/m) @ t=0.6
1.409171374455182
% es.EX (V/m) @ t=0.6
0.9788211720573952
% es.EY (V/m) @ t=0.6
0.1465680429242962
% es.EZ (V/m) @ t=0.6
-0.9773934507809146
% es.tEX (V/m) @ t=0.6
0.9788211720574012
% es.tEY (V/m) @ t=0.6
0
% es.tEZ (V/m) @ t=0.6
-0.977393450780907
% es.Ex (V/m) @ t=0.6
0.9788211720573952
% es.Ey (V/m) @ t=0.6
0.1465680429242962
% es.Ez (V/m) @ t=0.6
-0.9773934507809146
% es.tEx (V/m) @ t=0.6
0.9788211720574012
% es.tEy (V/m) @ t=0.6
0
% es.tEz (V/m) @ t=0.6
-0.977393450780907
% V (V) @ t=0.6
0.015090332989828693
% es.normE (V/m) @ t=0.62
1.4291087075880093
% es.EX (V/m) @ t=0.62
0.9926698052179919
% es.EY (V/m) @ t=0.62
0.14864167973830628
% es.EZ (V/m) @ t=0.62
-0.9912218770822991
% es.tEX (V/m) @ t=0.62
0.9926698052179921
% es.tEY (V/m) @ t=0.62
0
% es.tEZ (V/m) @ t=0.62
-0.9912218770822809
% es.Ex (V/m) @ t=0.62
0.9926698052179919
% es.Ey (V/m) @ t=0.62
0.14864167973830628
% es.Ez (V/m) @ t=0.62
-0.9912218770822991
% es.tEx (V/m) @ t=0.62
0.9926698052179921
% es.tEy (V/m) @ t=0.62
0
% es.tEz (V/m) @ t=0.62
-0.9912218770822809
% V (V) @ t=0.62
0.015303837320116302
% es.normE (V/m) @ t=0.64
1.4492337879119774
% es.EX (V/m) @ t=0.64
1.0066488523762607
% es.EY (V/m) @ t=0.64
0.15073482771382274
% es.EZ (V/m) @ t=0.64
-1.0051805247222485
% es.tEX (V/m) @ t=0.64
1.0066488523762662
% es.tEY (V/m) @ t=0.64
0
% es.tEZ (V/m) @ t=0.64
-1.0051805247222303
% es.Ex (V/m) @ t=0.64
1.0066488523762607
% es.Ey (V/m) @ t=0.64
0.15073482771382274
% es.Ez (V/m) @ t=0.64
-1.0051805247222485
% es.tEx (V/m) @ t=0.64
1.0066488523762662
% es.tEy (V/m) @ t=0.64
0
% es.tEz (V/m) @ t=0.64
-1.0051805247222303
% V (V) @ t=0.64
0.015519352962135946
% es.normE (V/m) @ t=0.66
1.469546615427083
% es.EX (V/m) @ t=0.66
1.020758313532179
% es.EY (V/m) @ t=0.66
0.15284748685079275
% es.EZ (V/m) @ t=0.66
-1.0192693937007715
% es.tEX (V/m) @ t=0.66
1.020758313532181
% es.tEY (V/m) @ t=0.66
0
% es.tEZ (V/m) @ t=0.66
-1.0192693937007498
% es.Ex (V/m) @ t=0.66
1.020758313532179
% es.Ey (V/m) @ t=0.66
0.15284748685079275
% es.Ez (V/m) @ t=0.66
-1.0192693937007715
% es.tEx (V/m) @ t=0.66
1.020758313532181
% es.tEy (V/m) @ t=0.66
0
% es.tEz (V/m) @ t=0.66
-1.0192693937007498
% V (V) @ t=0.66
0.01573687991588763
% es.normE (V/m) @ t=0.68
1.490047190133288
% es.EX (V/m) @ t=0.68
1.0349981886857733
% es.EY (V/m) @ t=0.68
0.15497965714926393
% es.EZ (V/m) @ t=0.68
-1.0334884840177856
% es.tEX (V/m) @ t=0.68
1.0349981886857744
% es.tEY (V/m) @ t=0.68
0
% es.tEZ (V/m) @ t=0.68
-1.0334884840177638
% es.Ex (V/m) @ t=0.68
1.0349981886857733
% es.Ey (V/m) @ t=0.68
0.15497965714926393
% es.Ez (V/m) @ t=0.68
-1.0334884840177856
% es.tEx (V/m) @ t=0.68
1.0349981886857744
% es.tEy (V/m) @ t=0.68
0
% es.tEz (V/m) @ t=0.68
-1.0334884840177638
% V (V) @ t=0.68
0.01595641818137135
% es.normE (V/m) @ t=0.7
1.510735512030616
% es.EX (V/m) @ t=0.7
1.0493684778370216
% es.EY (V/m) @ t=0.7
0.15713133860916095
% es.EZ (V/m) @ t=0.7
-1.0478377956733342
% es.tEX (V/m) @ t=0.7
1.0493684778370307
% es.tEY (V/m) @ t=0.7
0
% es.tEZ (V/m) @ t=0.7
-1.0478377956733125
% es.Ex (V/m) @ t=0.7
1.0493684778370216
% es.Ey (V/m) @ t=0.7
0.15713133860916095
% es.Ez (V/m) @ t=0.7
-1.0478377956733342
% es.tEx (V/m) @ t=0.7
1.0493684778370307
% es.tEy (V/m) @ t=0.7
0
% es.tEz (V/m) @ t=0.7
-1.0478377956733125
% V (V) @ t=0.7
0.016177967758587115
% es.normE (V/m) @ t=0.72
1.531611581119094
% es.EX (V/m) @ t=0.72
1.0638691809859206
% es.EY (V/m) @ t=0.72
0.1593025312305294
% es.EZ (V/m) @ t=0.72
-1.0623173286674605
% es.tEX (V/m) @ t=0.72
1.0638691809859253
% es.tEY (V/m) @ t=0.72
0
% es.tEZ (V/m) @ t=0.72
-1.0623173286674383
% es.Ex (V/m) @ t=0.72
1.0638691809859206
% es.Ey (V/m) @ t=0.72
0.1593025312305294
% es.Ez (V/m) @ t=0.72
-1.0623173286674605
% es.tEx (V/m) @ t=0.72
1.0638691809859253
% es.tEy (V/m) @ t=0.72
0
% es.tEz (V/m) @ t=0.72
-1.0623173286674383
% V (V) @ t=0.72
0.016401528647534917
% es.normE (V/m) @ t=0.74
1.5526753973987322
% es.EX (V/m) @ t=0.74
1.0785002981324994
% es.EY (V/m) @ t=0.74
0.16149323501340457
% es.EZ (V/m) @ t=0.74
-1.07692708300014
% es.tEX (V/m) @ t=0.74
1.0785002981325076
% es.tEY (V/m) @ t=0.74
0
% es.tEZ (V/m) @ t=0.74
-1.0769270830001183
% es.Ex (V/m) @ t=0.74
1.0785002981324994
% es.Ey (V/m) @ t=0.74
0.16149323501340457
% es.Ez (V/m) @ t=0.74
-1.07692708300014
% es.tEx (V/m) @ t=0.74
1.0785002981325076
% es.tEy (V/m) @ t=0.74
0
% es.tEz (V/m) @ t=0.74
-1.0769270830001183
% V (V) @ t=0.74
0.016627100848214758
% es.normE (V/m) @ t=0.76
1.573926960869485
% es.EX (V/m) @ t=0.76
1.0932618292767298
% es.EY (V/m) @ t=0.76
0.16370344995773095
% es.EZ (V/m) @ t=0.76
-1.0916670586713235
% es.tEX (V/m) @ t=0.76
1.0932618292767384
% es.tEY (V/m) @ t=0.76
0
% es.tEZ (V/m) @ t=0.76
-1.0916670586712947
% es.Ex (V/m) @ t=0.76
1.0932618292767298
% es.Ey (V/m) @ t=0.76
0.16370344995773095
% es.Ez (V/m) @ t=0.76
-1.0916670586713235
% es.tEx (V/m) @ t=0.76
1.0932618292767384
% es.tEy (V/m) @ t=0.76
0
% es.tEz (V/m) @ t=0.76
-1.0916670586712947
% V (V) @ t=0.76
0.01685468436062664
% es.normE (V/m) @ t=0.78
1.5953662715314199
% es.EX (V/m) @ t=0.78
1.1081537744186327
% es.EY (V/m) @ t=0.78
0.16593317606353014
% es.EZ (V/m) @ t=0.78
-1.1065372556811046
% es.tEX (V/m) @ t=0.78
1.1081537744186338
% es.tEY (V/m) @ t=0.78
0
% es.tEZ (V/m) @ t=0.78
-1.1065372556810829
% es.Ex (V/m) @ t=0.78
1.1081537744186327
% es.Ey (V/m) @ t=0.78
0.16593317606353014
% es.Ez (V/m) @ t=0.78
-1.1065372556811046
% es.tEx (V/m) @ t=0.78
1.1081537744186338
% es.tEy (V/m) @ t=0.78
0
% es.tEz (V/m) @ t=0.78
-1.1065372556810829
% V (V) @ t=0.78
0.017084279184770554
% es.normE (V/m) @ t=0.8
1.6169933293844596
% es.EX (V/m) @ t=0.8
1.1231761335581736
% es.EY (V/m) @ t=0.8
0.1681824133308062
% es.EZ (V/m) @ t=0.8
-1.1215376740293603
% es.tEX (V/m) @ t=0.8
1.1231761335581814
% es.tEY (V/m) @ t=0.8
0
% es.tEZ (V/m) @ t=0.8
-1.1215376740293452
% es.Ex (V/m) @ t=0.8
1.1231761335581736
% es.Ey (V/m) @ t=0.8
0.1681824133308062
% es.Ez (V/m) @ t=0.8
-1.1215376740293603
% es.tEx (V/m) @ t=0.8
1.1231761335581814
% es.tEy (V/m) @ t=0.8
0
% es.tEz (V/m) @ t=0.8
-1.1215376740293452
% V (V) @ t=0.8
0.017315885320646516
% es.normE (V/m) @ t=0.82
1.6388573815887546
% es.EX (V/m) @ t=0.82
1.1383630909836457
% es.EY (V/m) @ t=0.82
0.1704563971398787
% es.EZ (V/m) @ t=0.82
-1.136702464843693
% es.tEX (V/m) @ t=0.82
1.1383630909836429
% es.tEY (V/m) @ t=0.82
0
% es.tEZ (V/m) @ t=0.82
-1.1367024648436566
% es.Ex (V/m) @ t=0.82
1.1383630909836457
% es.Ey (V/m) @ t=0.82
0.1704563971398787
% es.Ez (V/m) @ t=0.82
-1.136702464843693
% es.tEx (V/m) @ t=0.82
1.1383630909836429
% es.tEy (V/m) @ t=0.82
0
% es.tEz (V/m) @ t=0.82
-1.1367024648436566
% V (V) @ t=0.82
0.017550024701001976
% es.normE (V/m) @ t=0.84
1.6612555256422785
% es.EX (V/m) @ t=0.84
1.153920873135233
% es.EY (V/m) @ t=0.84
0.17278671141131208
% es.EZ (V/m) @ t=0.84
-1.1522376545122759
% es.tEX (V/m) @ t=0.84
1.1539208731352413
% es.tEY (V/m) @ t=0.84
0
% es.tEZ (V/m) @ t=0.84
-1.1522376545122608
% es.Ex (V/m) @ t=0.84
1.153920873135233
% es.Ey (V/m) @ t=0.84
0.17278671141131208
% es.Ez (V/m) @ t=0.84
-1.1522376545122759
% es.tEx (V/m) @ t=0.84
1.1539208731352413
% es.tEy (V/m) @ t=0.84
0
% es.tEz (V/m) @ t=0.84
-1.1522376545122608
% V (V) @ t=0.84
0.017789846033564195
% es.normE (V/m) @ t=0.86
1.6838945594589432
% es.EX (V/m) @ t=0.86
1.1696459575229567
% es.EY (V/m) @ t=0.86
0.17514218633903927
% es.EZ (V/m) @ t=0.86
-1.1679399179741048
% es.tEX (V/m) @ t=0.86
1.1696459575229605
% es.tEY (V/m) @ t=0.86
0
% es.tEZ (V/m) @ t=0.86
-1.167939917974083
% es.Ex (V/m) @ t=0.86
1.1696459575229567
% es.Ey (V/m) @ t=0.86
0.17514218633903927
% es.Ez (V/m) @ t=0.86
-1.1679399179741048
% es.tEx (V/m) @ t=0.86
1.1696459575229605
% es.tEy (V/m) @ t=0.86
0
% es.tEz (V/m) @ t=0.86
-1.167939917974083
% V (V) @ t=0.86
0.018032241895074234
% es.normE (V/m) @ t=0.88
1.7067744830389076
% es.EX (V/m) @ t=0.88
1.1855383441468033
% es.EY (V/m) @ t=0.88
0.17752282192295354
% es.EZ (V/m) @ t=0.88
-1.1838092552291615
% es.tEX (V/m) @ t=0.88
1.1855383441468108
% es.tEY (V/m) @ t=0.88
0
% es.tEZ (V/m) @ t=0.88
-1.183809255229125
% es.Ex (V/m) @ t=0.88
1.1855383441468033
% es.Ey (V/m) @ t=0.88
0.17752282192295354
% es.Ez (V/m) @ t=0.88
-1.1838092552291615
% es.tEx (V/m) @ t=0.88
1.1855383441468108
% es.tEy (V/m) @ t=0.88
0
% es.tEz (V/m) @ t=0.88
-1.183809255229125
% V (V) @ t=0.88
0.018277212285532123
% es.normE (V/m) @ t=0.9
1.729895296382336
% es.EX (V/m) @ t=0.9
1.2015980330067788
% es.EY (V/m) @ t=0.9
0.17992861816313271
% es.EZ (V/m) @ t=0.9
-1.1998456662774148
% es.tEX (V/m) @ t=0.9
1.2015980330067793
% es.tEY (V/m) @ t=0.9
0
% es.tEZ (V/m) @ t=0.9
-1.199845666277386
% es.Ex (V/m) @ t=0.9
1.2015980330067788
% es.Ey (V/m) @ t=0.9
0.17992861816313271
% es.Ez (V/m) @ t=0.9
-1.1998456662774148
% es.tEx (V/m) @ t=0.9
1.2015980330067793
% es.tEy (V/m) @ t=0.9
0
% es.tEz (V/m) @ t=0.9
-1.199845666277386
% V (V) @ t=0.9
0.018524757204937847
% es.normE (V/m) @ t=0.92
1.7532569994894256
% es.EX (V/m) @ t=0.92
1.2178250241028685
% es.EY (V/m) @ t=0.92
0.18235957505955425
% es.EZ (V/m) @ t=0.92
-1.2160491511188982
% es.tEX (V/m) @ t=0.92
1.2178250241028827
% es.tEY (V/m) @ t=0.92
0
% es.tEZ (V/m) @ t=0.92
-1.2160491511188836
% es.Ex (V/m) @ t=0.92
1.2178250241028685
% es.Ey (V/m) @ t=0.92
0.18235957505955425
% es.Ez (V/m) @ t=0.92
-1.2160491511188982
% es.tEx (V/m) @ t=0.92
1.2178250241028827
% es.tEy (V/m) @ t=0.92
0
% es.tEz (V/m) @ t=0.92
-1.2160491511188836
% V (V) @ t=0.92
0.01877487665329141
% es.normE (V/m) @ t=0.94
1.7768595923603918
% es.EX (V/m) @ t=0.94
1.234219317435083
% es.EY (V/m) @ t=0.94
0.18481569261219766
% es.EZ (V/m) @ t=0.94
-1.2324197097535925
% es.tEX (V/m) @ t=0.94
1.2342193174350902
% es.tEY (V/m) @ t=0.94
0
% es.tEZ (V/m) @ t=0.94
-1.232419709753585
% es.Ex (V/m) @ t=0.94
1.234219317435083
% es.Ey (V/m) @ t=0.94
0.18481569261219766
% es.Ez (V/m) @ t=0.94
-1.2324197097535925
% es.tEx (V/m) @ t=0.94
1.2342193174350902
% es.tEy (V/m) @ t=0.94
0
% es.tEz (V/m) @ t=0.94
-1.232419709753585
% V (V) @ t=0.94
0.019027570630592818
% es.normE (V/m) @ t=0.96
1.8007030749954591
% es.EX (V/m) @ t=0.96
1.2507809130034317
% es.EY (V/m) @ t=0.96
0.18729697082113062
% es.EZ (V/m) @ t=0.96
-1.248957342181508
% es.tEX (V/m) @ t=0.96
1.2507809130034415
% es.tEY (V/m) @ t=0.96
0
% es.tEZ (V/m) @ t=0.96
-1.2489573421814928
% es.Ex (V/m) @ t=0.96
1.2507809130034317
% es.Ey (V/m) @ t=0.96
0.18729697082113062
% es.Ez (V/m) @ t=0.96
-1.248957342181508
% es.tEx (V/m) @ t=0.96
1.2507809130034415
% es.tEy (V/m) @ t=0.96
0
% es.tEz (V/m) @ t=0.96
-1.2489573421814928
% V (V) @ t=0.96
0.01928283913684205
% es.normE (V/m) @ t=0.98
1.8247874473948629
% es.EX (V/m) @ t=0.98
1.2675098108078973
% es.EY (V/m) @ t=0.98
0.1898034096862723
% es.EZ (V/m) @ t=0.98
-1.2656620484026777
% es.tEX (V/m) @ t=0.98
1.2675098108078968
% es.tEY (V/m) @ t=0.98
0
% es.tEZ (V/m) @ t=0.98
-1.2656620484026488
% es.Ex (V/m) @ t=0.98
1.2675098108078973
% es.Ey (V/m) @ t=0.98
0.1898034096862723
% es.Ez (V/m) @ t=0.98
-1.2656620484026777
% es.tEx (V/m) @ t=0.98
1.2675098108078968
% es.tEy (V/m) @ t=0.98
0
% es.tEz (V/m) @ t=0.98
-1.2656620484026488
% V (V) @ t=0.98
0.01954068217203913
% es.normE (V/m) @ t=1
1.849112709558797
% es.EX (V/m) @ t=1
1.2844060108484832
% es.EY (V/m) @ t=1
0.19233500920762625
% es.EZ (V/m) @ t=1
-1.2825338284170313
% es.tEX (V/m) @ t=1
1.2844060108484898
% es.tEY (V/m) @ t=1
0
% es.tEZ (V/m) @ t=1
-1.2825338284170096
% es.Ex (V/m) @ t=1
1.2844060108484832
% es.Ey (V/m) @ t=1
0.19233500920762625
% es.Ez (V/m) @ t=1
-1.2825338284170313
% es.tEx (V/m) @ t=1
1.2844060108484898
% es.tEy (V/m) @ t=1
0
% es.tEz (V/m) @ t=1
-1.2825338284170096
% V (V) @ t=1
0.019801099736184054
% es.normE (V/m) @ t=1.02
1.8736788614875362
% es.EX (V/m) @ t=1.02
1.301469513125193
% es.EY (V/m) @ t=1.02
0.19489176938524033
% es.EZ (V/m) @ t=1.02
-1.2995726822245968
% es.tEX (V/m) @ t=1.02
1.3014695131251992
% es.tEY (V/m) @ t=1.02
0
% es.tEZ (V/m) @ t=1.02
-1.299572682224575
% es.Ex (V/m) @ t=1.02
1.301469513125193
% es.Ey (V/m) @ t=1.02
0.19489176938524033
% es.Ez (V/m) @ t=1.02
-1.2995726822245968
% es.tEx (V/m) @ t=1.02
1.3014695131251992
% es.tEy (V/m) @ t=1.02
0
% es.tEz (V/m) @ t=1.02
-1.299572682224575
% V (V) @ t=1.02
0.02006409182927681
% es.normE (V/m) @ t=1.04
1.898485903181382
% es.EX (V/m) @ t=1.04
1.3187003176380374
% es.EY (V/m) @ t=1.04
0.1974736902190788
% es.EZ (V/m) @ t=1.04
-1.3167786098254406
% es.tEX (V/m) @ t=1.04