% Model:              1 neuron.mph
% Version:            COMSOL 6.0.0.405
% Date:               Mar 16 2023, 18:53
% Dimension:          0
% Nodes:              14017
% Expressions:        14017
% Description:        Electric field norm, Electric field, X component, Electric field, Y component, Electric field, Z component, Tangential electric field, X component, Tangential electric field, Y component, Tangential electric field, Z component, Electric field, x component, Electric field, y component, Electric field, z component, Tangential electric field, x component, Tangential electric field, y component, Tangential electric field, z component, Electric potential
% Length unit:        mm
% x
1
% y
12.2
% z
1.33
% es.normE (V/m) @ t=0
2.223967450832034
% es.EX (V/m) @ t=0
2.0552363622298104
% es.EY (V/m) @ t=0
0.12941028563582524
% es.EZ (V/m) @ t=0
0.8308572383998023
% es.tEX (V/m) @ t=0
2.0552363622298166
% es.tEY (V/m) @ t=0
0
% es.tEZ (V/m) @ t=0
0.8308572383998021
% es.Ex (V/m) @ t=0
2.0552363622298104
% es.Ey (V/m) @ t=0
0.12941028563582524
% es.Ez (V/m) @ t=0
0.8308572383998023
% es.tEx (V/m) @ t=0
2.0552363622298166
% es.tEy (V/m) @ t=0
0
% es.tEz (V/m) @ t=0
0.8308572383998021
% V (V) @ t=0
0.011093510435380018
% es.normE (V/m) @ t=0.02
1.9315354263739488
% es.EX (V/m) @ t=0.02
1.7849909803050563
% es.EY (V/m) @ t=0.02
0.11239398313073101
% es.EZ (V/m) @ t=0.02
0.7216068729365641
% es.tEX (V/m) @ t=0.02
1.7849909803050625
% es.tEY (V/m) @ t=0.02
0
% es.tEZ (V/m) @ t=0.02
0.7216068729365692
% es.Ex (V/m) @ t=0.02
1.7849909803050563
% es.Ey (V/m) @ t=0.02
0.11239398313073101
% es.Ez (V/m) @ t=0.02
0.7216068729365641
% es.tEx (V/m) @ t=0.02
1.7849909803050625
% es.tEy (V/m) @ t=0.02
0
% es.tEz (V/m) @ t=0.02
0.7216068729365692
% V (V) @ t=0.02
0.009634811915692947
% es.normE (V/m) @ t=0.04
1.960178507337529
% es.EX (V/m) @ t=0.04
1.8114609257901213
% es.EY (V/m) @ t=0.04
0.11406069920151118
% es.EZ (V/m) @ t=0.04
0.7323077138966185
% es.tEX (V/m) @ t=0.04
1.8114609257901275
% es.tEY (V/m) @ t=0.04
0
% es.tEZ (V/m) @ t=0.04
0.7323077138966134
% es.Ex (V/m) @ t=0.04
1.8114609257901213
% es.Ey (V/m) @ t=0.04
0.11406069920151118
% es.Ez (V/m) @ t=0.04
0.7323077138966185
% es.tEx (V/m) @ t=0.04
1.8114609257901275
% es.tEy (V/m) @ t=0.04
0
% es.tEz (V/m) @ t=0.04
0.7323077138966134
% V (V) @ t=0.04
0.00977768804460244
% es.normE (V/m) @ t=0.06
1.989248302496126
% es.EX (V/m) @ t=0.06
1.8383252069778813
% es.EY (V/m) @ t=0.06
0.11575225708494219
% es.EZ (V/m) @ t=0.06
0.7431679818664809
% es.tEX (V/m) @ t=0.06
1.8383252069778777
% es.tEY (V/m) @ t=0.06
0
% es.tEZ (V/m) @ t=0.06
0.7431679818664865
% es.Ex (V/m) @ t=0.06
1.8383252069778813
% es.Ey (V/m) @ t=0.06
0.11575225708494219
% es.Ez (V/m) @ t=0.06
0.7431679818664809
% es.tEx (V/m) @ t=0.06
1.8383252069778777
% es.tEy (V/m) @ t=0.06
0
% es.tEz (V/m) @ t=0.06
0.7431679818664865
% V (V) @ t=0.06
0.009922692279110237
% es.normE (V/m) @ t=0.08
2.0190668465657517
% es.EX (V/m) @ t=0.08
1.8658814365467276
% es.EY (V/m) @ t=0.08
0.11748736414689365
% es.EZ (V/m) @ t=0.08
0.7543079601952378
% es.tEX (V/m) @ t=0.08
1.865881436546724
% es.tEY (V/m) @ t=0.08
0
% es.tEZ (V/m) @ t=0.08
0.7543079601952405
% es.Ex (V/m) @ t=0.08
1.8658814365467276
% es.Ey (V/m) @ t=0.08
0.11748736414689365
% es.Ez (V/m) @ t=0.08
0.7543079601952378
% es.tEx (V/m) @ t=0.08
1.865881436546724
% es.tEy (V/m) @ t=0.08
0
% es.tEz (V/m) @ t=0.08
0.7543079601952405
% V (V) @ t=0.08
0.010071432088382834
% es.normE (V/m) @ t=0.1
2.049393254867236
% es.EX (V/m) @ t=0.1
1.8939070034700132
% es.EY (V/m) @ t=0.1
0.11925200990967577
% es.EZ (V/m) @ t=0.1
0.7656376615198919
% es.tEX (V/m) @ t=0.1
1.8939070034700105
% es.tEY (V/m) @ t=0.1
0
% es.tEZ (V/m) @ t=0.1
0.7656376615198903
% es.Ex (V/m) @ t=0.1
1.8939070034700132
% es.Ey (V/m) @ t=0.1
0.11925200990967577
% es.Ez (V/m) @ t=0.1
0.7656376615198919
% es.tEx (V/m) @ t=0.1
1.8939070034700105
% es.tEy (V/m) @ t=0.1
0
% es.tEz (V/m) @ t=0.1
0.7656376615198903
% V (V) @ t=0.1
0.010222705677378636
% es.normE (V/m) @ t=0.12
2.0797196631687127
% es.EX (V/m) @ t=0.12
1.9219325703932997
% es.EY (V/m) @ t=0.12
0.12101665567245967
% es.EZ (V/m) @ t=0.12
0.7769673628445248
% es.tEX (V/m) @ t=0.12
1.9219325703932917
% es.tEY (V/m) @ t=0.12
0
% es.tEZ (V/m) @ t=0.12
0.776967362844522
% es.Ex (V/m) @ t=0.12
1.9219325703932997
% es.Ey (V/m) @ t=0.12
0.12101665567245967
% es.Ez (V/m) @ t=0.12
0.7769673628445248
% es.tEx (V/m) @ t=0.12
1.9219325703932917
% es.tEy (V/m) @ t=0.12
0
% es.tEz (V/m) @ t=0.12
0.776967362844522
% V (V) @ t=0.12
0.010373979266374438
% es.normE (V/m) @ t=0.14
2.1105939038427746
% es.EX (V/m) @ t=0.14
1.95046435160637
% es.EY (V/m) @ t=0.14
0.12281334065629845
% es.EZ (V/m) @ t=0.14
0.7885018660932499
% es.tEX (V/m) @ t=0.14
1.950464351606378
% es.tEY (V/m) @ t=0.14
0
% es.tEZ (V/m) @ t=0.14
0.7885018660932479
% es.Ex (V/m) @ t=0.14
1.95046435160637
% es.Ey (V/m) @ t=0.14
0.12281334065629845
% es.Ez (V/m) @ t=0.14
0.7885018660932499
% es.tEx (V/m) @ t=0.14
1.950464351606378
% es.tEy (V/m) @ t=0.14
0
% es.tEz (V/m) @ t=0.14
0.7885018660932479
% V (V) @ t=0.14
0.010527979852303984
% es.normE (V/m) @ t=0.16
2.1436372284670187
% es.EX (V/m) @ t=0.16
1.9810004344015084
% es.EY (V/m) @ t=0.16
0.12473688152463724
% es.EZ (V/m) @ t=0.16
0.8008472607543276
% es.tEX (V/m) @ t=0.16
1.981000434401519
% es.tEY (V/m) @ t=0.16
0
% es.tEZ (V/m) @ t=0.16
0.800847260754324
% es.Ex (V/m) @ t=0.16
1.9810004344015084
% es.Ey (V/m) @ t=0.16
0.12473688152463724
% es.Ez (V/m) @ t=0.16
0.8008472607543276
% es.tEx (V/m) @ t=0.16
1.981000434401519
% es.tEy (V/m) @ t=0.16
0
% es.tEz (V/m) @ t=0.16
0.800847260754324
% V (V) @ t=0.16
0.010692777692239818
% es.normE (V/m) @ t=0.18
2.176680553092141
% es.EX (V/m) @ t=0.18
2.0115365171966655
% es.EY (V/m) @ t=0.18
0.1266604223929697
% es.EZ (V/m) @ t=0.18
0.8131926554154278
% es.tEX (V/m) @ t=0.18
2.011536517196662
% es.tEY (V/m) @ t=0.18
0
% es.tEZ (V/m) @ t=0.18
0.8131926554154241
% es.Ex (V/m) @ t=0.18
2.0115365171966655
% es.Ey (V/m) @ t=0.18
0.1266604223929697
% es.Ez (V/m) @ t=0.18
0.8131926554154278
% es.tEx (V/m) @ t=0.18
2.011536517196662
% es.tEy (V/m) @ t=0.18
0
% es.tEz (V/m) @ t=0.18
0.8131926554154241
% V (V) @ t=0.18
0.010857575532175649
% es.normE (V/m) @ t=0.2
2.209723877718064
% es.EX (V/m) @ t=0.2
2.042072599991819
% es.EY (V/m) @ t=0.2
0.1285839632612782
% es.EZ (V/m) @ t=0.2
0.8255380500764977
% es.tEX (V/m) @ t=0.2
2.0420725999918083
% es.tEY (V/m) @ t=0.2
0
% es.tEZ (V/m) @ t=0.2
0.8255380500764922
% es.Ex (V/m) @ t=0.2
2.042072599991819
% es.Ey (V/m) @ t=0.2
0.1285839632612782
% es.Ez (V/m) @ t=0.2
0.8255380500764977
% es.tEx (V/m) @ t=0.2
2.0420725999918083
% es.tEy (V/m) @ t=0.2
0
% es.tEz (V/m) @ t=0.2
0.8255380500764922
% V (V) @ t=0.2
0.011022373372111484
% es.normE (V/m) @ t=0.22
2.2427672023447607
% es.EX (V/m) @ t=0.22
2.072608682786961
% es.EY (V/m) @ t=0.22
0.13050750412961876
% es.EZ (V/m) @ t=0.22
0.837883444737576
% es.tEX (V/m) @ t=0.22
2.0726086827869565
% es.tEY (V/m) @ t=0.22
0
% es.tEZ (V/m) @ t=0.22
0.8378834447375771
% es.Ex (V/m) @ t=0.22
2.072608682786961
% es.Ey (V/m) @ t=0.22
0.13050750412961876
% es.Ez (V/m) @ t=0.22
0.837883444737576
% es.tEx (V/m) @ t=0.22
2.0726086827869565
% es.tEy (V/m) @ t=0.22
0
% es.tEz (V/m) @ t=0.22
0.8378834447375771
% V (V) @ t=0.22
0.011187171212047315
% es.normE (V/m) @ t=0.24
2.275810526972207
% es.EX (V/m) @ t=0.24
2.1031447655821056
% es.EY (V/m) @ t=0.24
0.13243104499792802
% es.EZ (V/m) @ t=0.24
0.8502288393986641
% es.tEX (V/m) @ t=0.24
2.103144765582103
% es.tEY (V/m) @ t=0.24
0
% es.tEZ (V/m) @ t=0.24
0.8502288393986595
% es.Ex (V/m) @ t=0.24
2.1031447655821056
% es.Ey (V/m) @ t=0.24
0.13243104499792802
% es.Ez (V/m) @ t=0.24
0.8502288393986641
% es.tEx (V/m) @ t=0.24
2.103144765582103
% es.tEy (V/m) @ t=0.24
0
% es.tEz (V/m) @ t=0.24
0.8502288393986595
% V (V) @ t=0.24
0.011351969051983149
% es.normE (V/m) @ t=0.26
2.3088538516003756
% es.EX (V/m) @ t=0.26
2.1336808483772574
% es.EY (V/m) @ t=0.26
0.13435458586625715
% es.EZ (V/m) @ t=0.26
0.8625742340597562
% es.tEX (V/m) @ t=0.26
2.133680848377262
% es.tEY (V/m) @ t=0.26
0
% es.tEZ (V/m) @ t=0.26
0.8625742340597506
% es.Ex (V/m) @ t=0.26
2.1336808483772574
% es.Ey (V/m) @ t=0.26
0.13435458586625715
% es.Ez (V/m) @ t=0.26
0.8625742340597562
% es.tEx (V/m) @ t=0.26
2.133680848377262
% es.tEy (V/m) @ t=0.26
0
% es.tEz (V/m) @ t=0.26
0.8625742340597506
% V (V) @ t=0.26
0.01151676689191898
% es.normE (V/m) @ t=0.28
2.343122775654688
% es.EX (V/m) @ t=0.28
2.1653501250587137
% es.EY (V/m) @ t=0.28
0.13634772202305756
% es.EZ (V/m) @ t=0.28
0.8753760531325641
% es.tEX (V/m) @ t=0.28
2.165350125058721
% es.tEY (V/m) @ t=0.28
0
% es.tEZ (V/m) @ t=0.28
0.875376053132563
% es.Ex (V/m) @ t=0.28
2.1653501250587137
% es.Ey (V/m) @ t=0.28
0.13634772202305756
% es.Ez (V/m) @ t=0.28
0.8753760531325641
% es.tEx (V/m) @ t=0.28
2.165350125058721
% es.tEy (V/m) @ t=0.28
0
% es.tEz (V/m) @ t=0.28
0.875376053132563
% V (V) @ t=0.28
0.011687738757917314
% es.normE (V/m) @ t=0.3
2.3791320799886932
% es.EX (V/m) @ t=0.3
2.198628563950307
% es.EY (V/m) @ t=0.3
0.13843968514105476
% es.EZ (V/m) @ t=0.3
0.8888260057013275
% es.tEX (V/m) @ t=0.3
2.1986285639503116
% es.tEY (V/m) @ t=0.3
0
% es.tEZ (V/m) @ t=0.3
0.8888260057013251
% es.Ex (V/m) @ t=0.3
2.198628563950307
% es.Ey (V/m) @ t=0.3
0.13843968514105476
% es.Ez (V/m) @ t=0.3
0.8888260057013275
% es.tEx (V/m) @ t=0.3
2.1986285639503116
% es.tEy (V/m) @ t=0.3
0
% es.tEz (V/m) @ t=0.3
0.8888260057013251
% V (V) @ t=0.3
0.011867477887438714
% es.normE (V/m) @ t=0.32
2.415141384337562
% es.EX (V/m) @ t=0.32
2.231907002841899
% es.EY (V/m) @ t=0.32
0.14053164825903763
% es.EZ (V/m) @ t=0.32
0.9022759582700883
% es.tEX (V/m) @ t=0.32
2.2319070028418917
% es.tEY (V/m) @ t=0.32
0
% es.tEZ (V/m) @ t=0.32
0.9022759582700872
% es.Ex (V/m) @ t=0.32
2.231907002841899
% es.Ey (V/m) @ t=0.32
0.14053164825903763
% es.Ez (V/m) @ t=0.32
0.9022759582700883
% es.tEx (V/m) @ t=0.32
2.2319070028418917
% es.tEy (V/m) @ t=0.32
0
% es.tEz (V/m) @ t=0.32
0.9022759582700872
% V (V) @ t=0.32
0.012047217016960116
% es.normE (V/m) @ t=0.34
2.451150688700663
% es.EX (V/m) @ t=0.34
2.265185441733503
% es.EY (V/m) @ t=0.34
0.14262361137702595
% es.EZ (V/m) @ t=0.34
0.9157259108388722
% es.tEX (V/m) @ t=0.34
2.265185441733504
% es.tEY (V/m) @ t=0.34
0
% es.tEZ (V/m) @ t=0.34
0.9157259108388831
% es.Ex (V/m) @ t=0.34
2.265185441733503
% es.Ey (V/m) @ t=0.34
0.14262361137702595
% es.Ez (V/m) @ t=0.34
0.9157259108388722
% es.tEx (V/m) @ t=0.34
2.265185441733504
% es.tEy (V/m) @ t=0.34
0
% es.tEz (V/m) @ t=0.34
0.9157259108388831
% V (V) @ t=0.34
0.012226956146481519
% es.normE (V/m) @ t=0.36
2.487159993077336
% es.EX (V/m) @ t=0.36
2.2984638806250928
% es.EY (V/m) @ t=0.36
0.14471557449500705
% es.EZ (V/m) @ t=0.36
0.9291758634076297
% es.tEX (V/m) @ t=0.36
2.2984638806250857
% es.tEY (V/m) @ t=0.36
0
% es.tEZ (V/m) @ t=0.36
0.9291758634076182
% es.Ex (V/m) @ t=0.36
2.2984638806250928
% es.Ey (V/m) @ t=0.36
0.14471557449500705
% es.Ez (V/m) @ t=0.36
0.9291758634076297
% es.tEx (V/m) @ t=0.36
2.2984638806250857
% es.tEy (V/m) @ t=0.36
0
% es.tEz (V/m) @ t=0.36
0.9291758634076182
% V (V) @ t=0.36
0.012406695276002914
% es.normE (V/m) @ t=0.38
2.5231692974670326
% es.EX (V/m) @ t=0.38
2.331742319516686
% es.EY (V/m) @ t=0.38
0.14680753761301024
% es.EZ (V/m) @ t=0.38
0.9426258159764016
% es.tEX (V/m) @ t=0.38
2.331742319516689
% es.tEY (V/m) @ t=0.38
0
% es.tEZ (V/m) @ t=0.38
0.9426258159763963
% es.Ex (V/m) @ t=0.38
2.331742319516686
% es.Ey (V/m) @ t=0.38
0.14680753761301024
% es.Ez (V/m) @ t=0.38
0.9426258159764016
% es.tEx (V/m) @ t=0.38
2.331742319516689
% es.tEy (V/m) @ t=0.38
0
% es.tEz (V/m) @ t=0.38
0.9426258159763963
% V (V) @ t=0.38
0.012586434405524314
% es.normE (V/m) @ t=0.4
2.5591786018691858
% es.EX (V/m) @ t=0.4
2.365020758408278
% es.EY (V/m) @ t=0.4
0.1488995007309879
% es.EZ (V/m) @ t=0.4
0.9560757685451633
% es.tEX (V/m) @ t=0.4
2.365020758408283
% es.tEY (V/m) @ t=0.4
0
% es.tEZ (V/m) @ t=0.4
0.9560757685451682
% es.Ex (V/m) @ t=0.4
2.365020758408278
% es.Ey (V/m) @ t=0.4
0.1488995007309879
% es.Ez (V/m) @ t=0.4
0.9560757685451633
% es.tEx (V/m) @ t=0.4
2.365020758408283
% es.tEy (V/m) @ t=0.4
0
% es.tEz (V/m) @ t=0.4
0.9560757685451682
% V (V) @ t=0.4
0.012766173535045713
% es.normE (V/m) @ t=0.42
2.5971474649073096
% es.EX (V/m) @ t=0.42
2.4001093494011254
% es.EY (V/m) @ t=0.42
0.15110767179202367
% es.EZ (V/m) @ t=0.42
0.9702596377178621
% es.tEX (V/m) @ t=0.42
2.400109349401122
% es.tEY (V/m) @ t=0.42
0
% es.tEZ (V/m) @ t=0.42
0.9702596377178718
% es.Ex (V/m) @ t=0.42
2.4001093494011254
% es.Ey (V/m) @ t=0.42
0.15110767179202367
% es.Ez (V/m) @ t=0.42
0.9702596377178621
% es.tEx (V/m) @ t=0.42
2.400109349401122
% es.tEy (V/m) @ t=0.42
0
% es.tEz (V/m) @ t=0.42
0.9702596377178718
% V (V) @ t=0.42
0.012955610473773617
% es.normE (V/m) @ t=0.44
2.63629306363104
% es.EX (V/m) @ t=0.44
2.436284955879792
% es.EY (V/m) @ t=0.44
0.1533856269521684
% es.EZ (V/m) @ t=0.44
0.9848842315751103
% es.tEX (V/m) @ t=0.44
2.436284955879792
% es.tEY (V/m) @ t=0.44
0
% es.tEZ (V/m) @ t=0.44
0.9848842315751138
% es.Ex (V/m) @ t=0.44
2.436284955879792
% es.Ey (V/m) @ t=0.44
0.1533856269521684
% es.Ez (V/m) @ t=0.44
0.9848842315751103
% es.tEx (V/m) @ t=0.44
2.436284955879792
% es.tEy (V/m) @ t=0.44
0
% es.tEz (V/m) @ t=0.44
0.9848842315751138
% V (V) @ t=0.44
0.013150871049520063
% es.normE (V/m) @ t=0.46
2.6754386623549307
% es.EX (V/m) @ t=0.46
2.4724605623584486
% es.EY (V/m) @ t=0.46
0.15566358211232045
% es.EZ (V/m) @ t=0.46
0.9995088254323683
% es.tEX (V/m) @ t=0.46
2.4724605623584335
% es.tEY (V/m) @ t=0.46
0
% es.tEZ (V/m) @ t=0.46
0.9995088254323612
% es.Ex (V/m) @ t=0.46
2.4724605623584486
% es.Ey (V/m) @ t=0.46
0.15566358211232045
% es.Ez (V/m) @ t=0.46
0.9995088254323683
% es.tEx (V/m) @ t=0.46
2.4724605623584335
% es.tEy (V/m) @ t=0.46
0
% es.tEz (V/m) @ t=0.46
0.9995088254323612
% V (V) @ t=0.46
0.01334613162526651
% es.normE (V/m) @ t=0.48
2.7145842610789854
% es.EX (V/m) @ t=0.48
2.5086361688371186
% es.EY (V/m) @ t=0.48
0.15794153727246507
% es.EZ (V/m) @ t=0.48
1.0141334192896183
% es.tEX (V/m) @ t=0.48
2.508636168837116
% es.tEY (V/m) @ t=0.48
0
% es.tEZ (V/m) @ t=0.48
1.0141334192896219
% es.Ex (V/m) @ t=0.48
2.5086361688371186
% es.Ey (V/m) @ t=0.48
0.15794153727246507
% es.Ez (V/m) @ t=0.48
1.0141334192896183
% es.tEx (V/m) @ t=0.48
2.508636168837116
% es.tEy (V/m) @ t=0.48
0
% es.tEz (V/m) @ t=0.48
1.0141334192896219
% V (V) @ t=0.48
0.013541392201012954
% es.normE (V/m) @ t=0.5
2.753729859803192
% es.EX (V/m) @ t=0.5
2.544811775315792
% es.EY (V/m) @ t=0.5
0.16021949243262423
% es.EZ (V/m) @ t=0.5
1.0287580131468568
% es.tEX (V/m) @ t=0.5
2.5448117753157877
% es.tEY (V/m) @ t=0.5
0
% es.tEZ (V/m) @ t=0.5
1.0287580131468728
% es.Ex (V/m) @ t=0.5
2.544811775315792
% es.Ey (V/m) @ t=0.5
0.16021949243262423
% es.Ez (V/m) @ t=0.5
1.0287580131468568
% es.tEx (V/m) @ t=0.5
2.5448117753157877
% es.tEy (V/m) @ t=0.5
0
% es.tEz (V/m) @ t=0.5
1.0287580131468728
% V (V) @ t=0.5
0.0137366527767594
% es.normE (V/m) @ t=0.52
2.792875458527525
% es.EX (V/m) @ t=0.52
2.5809873817944435
% es.EY (V/m) @ t=0.52
0.16249744759277085
% es.EZ (V/m) @ t=0.52
1.043382607004113
% es.tEX (V/m) @ t=0.52
2.5809873817944418
% es.tEY (V/m) @ t=0.52
0
% es.tEZ (V/m) @ t=0.52
1.0433826070041157
% es.Ex (V/m) @ t=0.52
2.5809873817944435
% es.Ey (V/m) @ t=0.52
0.16249744759277085
% es.Ez (V/m) @ t=0.52
1.043382607004113
% es.tEx (V/m) @ t=0.52
2.5809873817944418
% es.tEy (V/m) @ t=0.52
0
% es.tEz (V/m) @ t=0.52
1.0433826070041157
% V (V) @ t=0.52
0.013931913352505845
% es.normE (V/m) @ t=0.54
2.832021057251997
% es.EX (V/m) @ t=0.54
2.617162988273101
% es.EY (V/m) @ t=0.54
0.16477540275291935
% es.EZ (V/m) @ t=0.54
1.0580072008613577
% es.tEX (V/m) @ t=0.54
2.6171629882731064
% es.tEY (V/m) @ t=0.54
0
% es.tEZ (V/m) @ t=0.54
1.0580072008613586
% es.Ex (V/m) @ t=0.54
2.617162988273101
% es.Ey (V/m) @ t=0.54
0.16477540275291935
% es.Ez (V/m) @ t=0.54
1.0580072008613577
% es.tEx (V/m) @ t=0.54
2.6171629882731064
% es.tEy (V/m) @ t=0.54
0
% es.tEz (V/m) @ t=0.54
1.0580072008613586
% V (V) @ t=0.54
0.01412717392825229
% es.normE (V/m) @ t=0.56
2.872417699275886
% es.EX (V/m) @ t=0.56
2.6544945673103193
% es.EY (V/m) @ t=0.56
0.16712661455144306
% es.EZ (V/m) @ t=0.56
1.0730995620894461
% es.tEX (V/m) @ t=0.56
2.6544945673103175
% es.tEY (V/m) @ t=0.56
0
% es.tEZ (V/m) @ t=0.56
1.0730995620894452
% es.Ex (V/m) @ t=0.56
2.6544945673103193
% es.Ey (V/m) @ t=0.56
0.16712661455144306
% es.Ez (V/m) @ t=0.56
1.0730995620894461
% es.tEx (V/m) @ t=0.56
2.6544945673103175
% es.tEy (V/m) @ t=0.56
0
% es.tEz (V/m) @ t=0.56
1.0730995620894452
% V (V) @ t=0.56
0.014328658734518732
% es.normE (V/m) @ t=0.58
2.9134193260125603
% es.EX (V/m) @ t=0.58
2.692385156355904
% es.EY (V/m) @ t=0.58
0.1695132520992979
% es.EZ (V/m) @ t=0.58
1.0884181282044718
% es.tEX (V/m) @ t=0.58
2.6923851563559005
% es.tEY (V/m) @ t=0.58
0
% es.tEZ (V/m) @ t=0.58
1.0884181282044718
% es.Ex (V/m) @ t=0.58
2.692385156355904
% es.Ey (V/m) @ t=0.58
0.1695132520992979
% es.Ez (V/m) @ t=0.58
1.0884181282044718
% es.tEx (V/m) @ t=0.58
2.6923851563559005
% es.tEy (V/m) @ t=0.58
0
% es.tEz (V/m) @ t=0.58
1.0884181282044718
% V (V) @ t=0.58
0.014533153480017276
% es.normE (V/m) @ t=0.6
2.954813298624676
% es.EX (V/m) @ t=0.6
2.7306382756704775
% es.EY (V/m) @ t=0.6
0.17192286402367585
% es.EZ (V/m) @ t=0.6
1.1038833931571927
% es.tEX (V/m) @ t=0.6
2.73063827567049
% es.tEY (V/m) @ t=0.6
0
% es.tEZ (V/m) @ t=0.6
1.1038833931571892
% es.Ex (V/m) @ t=0.6
2.7306382756704775
% es.Ey (V/m) @ t=0.6
0.17192286402367585
% es.Ez (V/m) @ t=0.6
1.1038833931571927
% es.tEx (V/m) @ t=0.6
2.73063827567049
% es.tEy (V/m) @ t=0.6
0
% es.tEz (V/m) @ t=0.6
1.1038833931571892
% V (V) @ t=0.6
0.014739600237220584
% es.normE (V/m) @ t=0.62
2.996599617112743
% es.EX (V/m) @ t=0.62
2.7692539252540698
% es.EY (V/m) @ t=0.62
0.17435545032457533
% es.EZ (V/m) @ t=0.62
1.119495356947649
% es.tEX (V/m) @ t=0.62
2.769253925254075
% es.tEY (V/m) @ t=0.62
0
% es.tEZ (V/m) @ t=0.62
1.1194953569476507
% es.Ex (V/m) @ t=0.62
2.7692539252540698
% es.Ey (V/m) @ t=0.62
0.17435545032457533
% es.Ez (V/m) @ t=0.62
1.119495356947649
% es.tEx (V/m) @ t=0.62
2.769253925254075
% es.tEy (V/m) @ t=0.62
0
% es.tEz (V/m) @ t=0.62
1.1194953569476507
% V (V) @ t=0.62
0.014947999006128665
% es.normE (V/m) @ t=0.64
3.0387782814772066
% es.EX (V/m) @ t=0.64
2.808232105106626
% es.EY (V/m) @ t=0.64
0.17681101100201402
% es.EZ (V/m) @ t=0.64
1.1352540195757905
% es.tEX (V/m) @ t=0.64
2.808232105106624
% es.tEY (V/m) @ t=0.64
0
% es.tEZ (V/m) @ t=0.64
1.1352540195757923
% es.Ex (V/m) @ t=0.64
2.808232105106626
% es.Ey (V/m) @ t=0.64
0.17681101100201402
% es.Ez (V/m) @ t=0.64
1.1352540195757905
% es.tEx (V/m) @ t=0.64
2.808232105106624
% es.tEy (V/m) @ t=0.64
0
% es.tEz (V/m) @ t=0.64
1.1352540195757923
% V (V) @ t=0.64
0.015158349786741517
% es.normE (V/m) @ t=0.66
3.0813492917186647
% es.EX (V/m) @ t=0.66
2.847572815228185
% es.EY (V/m) @ t=0.66
0.1792895460559919
% es.EZ (V/m) @ t=0.66
1.1511593810416656
% es.tEX (V/m) @ t=0.66
2.8475728152281903
% es.tEY (V/m) @ t=0.66
0
% es.tEZ (V/m) @ t=0.66
1.1511593810416656
% es.Ex (V/m) @ t=0.66
2.847572815228185
% es.Ey (V/m) @ t=0.66
0.1792895460559919
% es.Ez (V/m) @ t=0.66
1.1511593810416656
% es.tEx (V/m) @ t=0.66
2.8475728152281903
% es.tEy (V/m) @ t=0.66
0
% es.tEz (V/m) @ t=0.66
1.1511593810416656
% V (V) @ t=0.66
0.015370652579059133
% es.normE (V/m) @ t=0.68
3.124312647837681
% es.EX (V/m) @ t=0.68
2.8872760556187362
% es.EY (V/m) @ t=0.68
0.18179105548650343
% es.EZ (V/m) @ t=0.68
1.1672114413452768
% es.tEX (V/m) @ t=0.68
2.8872760556187416
% es.tEY (V/m) @ t=0.68
0
% es.tEZ (V/m) @ t=0.68
1.1672114413452714
% es.Ex (V/m) @ t=0.68
2.8872760556187362
% es.Ey (V/m) @ t=0.68
0.18179105548650343
% es.Ez (V/m) @ t=0.68
1.1672114413452768
% es.tEx (V/m) @ t=0.68
2.8872760556187416
% es.tEy (V/m) @ t=0.68
0
% es.tEz (V/m) @ t=0.68
1.1672114413452714
% V (V) @ t=0.68
0.015584907383081518
% es.normE (V/m) @ t=0.7
3.1676683498348517
% es.EX (V/m) @ t=0.7
2.927341826278269
% es.EY (V/m) @ t=0.7
0.1843155392935436
% es.EZ (V/m) @ t=0.7
1.183410200486624
% es.tEX (V/m) @ t=0.7
2.9273418262782585
% es.tEY (V/m) @ t=0.7
0
% es.tEZ (V/m) @ t=0.7
1.1834102004866223
% es.Ex (V/m) @ t=0.7
2.927341826278269
% es.Ey (V/m) @ t=0.7
0.1843155392935436
% es.Ez (V/m) @ t=0.7
1.183410200486624
% es.tEx (V/m) @ t=0.7
2.9273418262782585
% es.tEy (V/m) @ t=0.7
0
% es.tEz (V/m) @ t=0.7
1.1834102004866223
% V (V) @ t=0.7
0.015801114198808672
% es.normE (V/m) @ t=0.72
3.2114163977107912
% es.EX (V/m) @ t=0.72
2.9677701272067942
% es.EY (V/m) @ t=0.72
0.18686299747711765
% es.EZ (V/m) @ t=0.72
1.1997556584656373
% es.tEX (V/m) @ t=0.72
2.9677701272067996
% es.tEY (V/m) @ t=0.72
0
% es.tEZ (V/m) @ t=0.72
1.1997556584656426
% es.Ex (V/m) @ t=0.72
2.9677701272067942
% es.Ey (V/m) @ t=0.72
0.18686299747711765
% es.Ez (V/m) @ t=0.72
1.1997556584656373
% es.tEx (V/m) @ t=0.72
2.9677701272067996
% es.tEy (V/m) @ t=0.72
0
% es.tEz (V/m) @ t=0.72
1.1997556584656426
% V (V) @ t=0.72
0.016019273026240594
% es.normE (V/m) @ t=0.74
3.2555567914661827
% es.EX (V/m) @ t=0.74
3.0085609584042956
% es.EY (V/m) @ t=0.74
0.1894334300372328
% es.EZ (V/m) @ t=0.74
1.2162478152824354
% es.tEX (V/m) @ t=0.74
3.0085609584042867
% es.tEY (V/m) @ t=0.74
0
% es.tEZ (V/m) @ t=0.74
1.2162478152824336
% es.Ex (V/m) @ t=0.74
3.0085609584042956
% es.Ey (V/m) @ t=0.74
0.1894334300372328
% es.Ez (V/m) @ t=0.74
1.2162478152824354
% es.tEx (V/m) @ t=0.74
3.0085609584042867
% es.tEy (V/m) @ t=0.74
0
% es.tEz (V/m) @ t=0.74
1.2162478152824336
% V (V) @ t=0.74
0.01623938386537729
% es.normE (V/m) @ t=0.76
3.300089531101702
% es.EX (V/m) @ t=0.76
3.049714319870814
% es.EY (V/m) @ t=0.76
0.19202683697387646
% es.EZ (V/m) @ t=0.76
1.2328866709369124
% es.tEX (V/m) @ t=0.76
3.049714319870805
% es.tEY (V/m) @ t=0.76
0
% es.tEZ (V/m) @ t=0.76
1.2328866709369128
% es.Ex (V/m) @ t=0.76
3.049714319870814
% es.Ey (V/m) @ t=0.76
0.19202683697387646
% es.Ez (V/m) @ t=0.76
1.2328866709369124
% es.tEx (V/m) @ t=0.76
3.049714319870805
% es.tEy (V/m) @ t=0.76
0
% es.tEz (V/m) @ t=0.76
1.2328866709369128
% V (V) @ t=0.76
0.016461446716218752
% es.normE (V/m) @ t=0.78
3.3450146166180126
% es.EX (V/m) @ t=0.78
3.0912302116062964
% es.EY (V/m) @ t=0.78
0.19464321828705056
% es.EZ (V/m) @ t=0.78
1.2496722254291246
% es.tEX (V/m) @ t=0.78
3.0912302116062964
% es.tEY (V/m) @ t=0.78
0
% es.tEZ (V/m) @ t=0.78
1.2496722254291281
% es.Ex (V/m) @ t=0.78
3.0912302116062964
% es.Ey (V/m) @ t=0.78
0.19464321828705056
% es.Ez (V/m) @ t=0.78
1.2496722254291246
% es.tEx (V/m) @ t=0.78
3.0912302116062964
% es.tEy (V/m) @ t=0.78
0
% es.tEz (V/m) @ t=0.78
1.2496722254291281
% V (V) @ t=0.78
0.016685461578764983
% es.normE (V/m) @ t=0.8
3.390332048015834
% es.EX (V/m) @ t=0.8
3.133108633610764
% es.EY (V/m) @ t=0.8
0.19728257397679005
% es.EZ (V/m) @ t=0.8
1.2666044787590272
% es.tEX (V/m) @ t=0.8
3.133108633610778
% es.tEY (V/m) @ t=0.8
0
% es.tEZ (V/m) @ t=0.8
1.2666044787590254
% es.Ex (V/m) @ t=0.8
3.133108633610764
% es.Ey (V/m) @ t=0.8
0.19728257397679005
% es.Ez (V/m) @ t=0.8
1.2666044787590272
% es.tEx (V/m) @ t=0.8
3.133108633610778
% es.tEy (V/m) @ t=0.8
0
% es.tEz (V/m) @ t=0.8
1.2666044787590254
% V (V) @ t=0.8
0.016911428453015975
% es.normE (V/m) @ t=0.82
3.436245489050833
% es.EX (V/m) @ t=0.82
3.175537982050396
% es.EY (V/m) @ t=0.82
0.19995620806651826
% es.EZ (V/m) @ t=0.82
1.2837590574228441
% es.tEX (V/m) @ t=0.82
3.175537982050397
% es.tEY (V/m) @ t=0.82
0
% es.tEZ (V/m) @ t=0.82
1.283759057422846
% es.Ex (V/m) @ t=0.82
3.175537982050396
% es.Ey (V/m) @ t=0.82
0.19995620806651826
% es.Ez (V/m) @ t=0.82
1.2837590574228441
% es.tEx (V/m) @ t=0.82
3.175537982050397
% es.tEy (V/m) @ t=0.82
0
% es.tEz (V/m) @ t=0.82
1.283759057422846
% V (V) @ t=0.82
0.017140382488340437
% es.normE (V/m) @ t=0.84
3.483203738783333
% es.EX (V/m) @ t=0.84
3.218933411909086
% es.EY (V/m) @ t=0.84
0.20268903041397635
% es.EZ (V/m) @ t=0.84
1.301302614051803
% es.tEX (V/m) @ t=0.84
3.218933411909086
% es.tEY (V/m) @ t=0.84
0
% es.tEZ (V/m) @ t=0.84
1.3013026140518082
% es.Ex (V/m) @ t=0.84
3.218933411909086
% es.Ey (V/m) @ t=0.84
0.20268903041397635
% es.Ez (V/m) @ t=0.84
1.301302614051803
% es.tEx (V/m) @ t=0.84
3.218933411909086
% es.tEy (V/m) @ t=0.84
0
% es.tEz (V/m) @ t=0.84
1.3013026140518082
% V (V) @ t=0.84
0.01737460476841619
% es.normE (V/m) @ t=0.86
3.530667759233185
% es.EX (V/m) @ t=0.86
3.26279629401969
% es.EY (V/m) @ t=0.86
0.20545112259818676
% es.EZ (V/m) @ t=0.86
1.3190349875833665
% es.tEX (V/m) @ t=0.86
3.262796294019683
% es.tEY (V/m) @ t=0.86
0
% es.tEZ (V/m) @ t=0.86
1.31903498758337
% es.Ex (V/m) @ t=0.86
3.26279629401969
% es.Ey (V/m) @ t=0.86
0.20545112259818676
% es.Ez (V/m) @ t=0.86
1.3190349875833665
% es.tEx (V/m) @ t=0.86
3.262796294019683
% es.tEy (V/m) @ t=0.86
0
% es.tEz (V/m) @ t=0.86
1.31903498758337
% V (V) @ t=0.86
0.017611355557726374
% es.normE (V/m) @ t=0.88
3.578637550400284
% es.EX (V/m) @ t=0.88
3.3071266283822007
% es.EY (V/m) @ t=0.88
0.20824248461906802
% es.EZ (V/m) @ t=0.88
1.3369561780174393
% es.tEX (V/m) @ t=0.88
3.307126628382214
% es.tEY (V/m) @ t=0.88
0
% es.tEZ (V/m) @ t=0.88
1.3369561780174433
% es.Ex (V/m) @ t=0.88
3.3071266283822007
% es.Ey (V/m) @ t=0.88
0.20824248461906802
% es.Ez (V/m) @ t=0.88
1.3369561780174393
% es.tEx (V/m) @ t=0.88
3.307126628382214
% es.tEy (V/m) @ t=0.88
0
% es.tEz (V/m) @ t=0.88
1.3369561780174433
% V (V) @ t=0.88
0.01785063485627097
% es.normE (V/m) @ t=0.9
3.627113112284664
% es.EX (V/m) @ t=0.9
3.3519244149966303
% es.EY (V/m) @ t=0.9
0.21106311647662301
% es.EZ (V/m) @ t=0.9
1.3550661853540582
% es.tEX (V/m) @ t=0.9
3.351924414996624
% es.tEY (V/m) @ t=0.9
0
% es.tEZ (V/m) @ t=0.9
1.3550661853540635
% es.Ex (V/m) @ t=0.9
3.3519244149966303
% es.Ey (V/m) @ t=0.9
0.21106311647662301
% es.Ez (V/m) @ t=0.9
1.3550661853540582
% es.tEx (V/m) @ t=0.9
3.351924414996624
% es.tEy (V/m) @ t=0.9
0
% es.tEz (V/m) @ t=0.9
1.3550661853540635
% V (V) @ t=0.9
0.018092442664049996
% es.normE (V/m) @ t=0.92
3.6760944448863553
% es.EX (V/m) @ t=0.92
3.3971896538629194
% es.EY (V/m) @ t=0.92
0.21391301817094166
% es.EZ (V/m) @ t=0.92
1.3733650095932424
% es.tEX (V/m) @ t=0.92
3.3971896538629345
% es.tEY (V/m) @ t=0.92
0
% es.tEZ (V/m) @ t=0.92
1.373365009593237
% es.Ex (V/m) @ t=0.92
3.3971896538629194
% es.Ey (V/m) @ t=0.92
0.21391301817094166
% es.Ez (V/m) @ t=0.92
1.3733650095932424
% es.tEx (V/m) @ t=0.92
3.3971896538629345
% es.tEy (V/m) @ t=0.92
0
% es.tEz (V/m) @ t=0.92
1.373365009593237
% V (V) @ t=0.92
0.018336778981063447
% es.normE (V/m) @ t=0.94
3.7255815482055468
% es.EX (V/m) @ t=0.94
3.44292234498114
% es.EY (V/m) @ t=0.94
0.21679218970192848
% es.EZ (V/m) @ t=0.94
1.3918526507349824
% es.tEX (V/m) @ t=0.94
3.4429223449811346
% es.tEY (V/m) @ t=0.94
0
% es.tEZ (V/m) @ t=0.94
1.3918526507349789
% es.Ex (V/m) @ t=0.94
3.44292234498114
% es.Ey (V/m) @ t=0.94
0.21679218970192848
% es.Ez (V/m) @ t=0.94
1.3918526507349824
% es.tEx (V/m) @ t=0.94
3.4429223449811346
% es.tEy (V/m) @ t=0.94
0
% es.tEz (V/m) @ t=0.94
1.3918526507349789
% V (V) @ t=0.94
0.018583643807311312
% es.normE (V/m) @ t=0.96
3.775574422242418
% es.EX (V/m) @ t=0.96
3.489122488351276
% es.EY (V/m) @ t=0.96
0.21970063106959592
% es.EZ (V/m) @ t=0.96
1.4105291087792806
% es.tEX (V/m) @ t=0.96
3.489122488351253
% es.tEY (V/m) @ t=0.96
0
% es.tEZ (V/m) @ t=0.96
1.4105291087792793
% es.Ex (V/m) @ t=0.96
3.489122488351276
% es.Ey (V/m) @ t=0.96
0.21970063106959592
% es.Ez (V/m) @ t=0.96
1.4105291087792806
% es.tEx (V/m) @ t=0.96
3.489122488351253
% es.tEy (V/m) @ t=0.96
0
% es.tEz (V/m) @ t=0.96
1.4105291087792793
% V (V) @ t=0.96
0.01883303714279361
% es.normE (V/m) @ t=0.98
3.826073066997215
% es.EX (V/m) @ t=0.98
3.53579008397333
% es.EY (V/m) @ t=0.98
0.22263834227398993
% es.EZ (V/m) @ t=0.98
1.4293943837261263
% es.tEX (V/m) @ t=0.98
3.5357900839733354
% es.tEY (V/m) @ t=0.98
0
% es.tEZ (V/m) @ t=0.98
1.4293943837261223
% es.Ex (V/m) @ t=0.98
3.53579008397333
% es.Ey (V/m) @ t=0.98
0.22263834227398993
% es.Ez (V/m) @ t=0.98
1.4293943837261263
% es.tEx (V/m) @ t=0.98
3.5357900839733354
% es.tEy (V/m) @ t=0.98
0
% es.tEz (V/m) @ t=0.98
1.4293943837261223
% V (V) @ t=0.98
0.01908495898751032
% es.normE (V/m) @ t=1
3.8770774824701735
% es.EX (V/m) @ t=1
3.5829251318472632
% es.EY (V/m) @ t=1
0.2256053233150801
% es.EZ (V/m) @ t=1
1.4484484755754816
% es.tEX (V/m) @ t=1
3.5829251318472615
% es.tEY (V/m) @ t=1
0
% es.tEZ (V/m) @ t=1
1.4484484755754776
% es.Ex (V/m) @ t=1
3.5829251318472632
% es.Ey (V/m) @ t=1
0.2256053233150801
% es.Ez (V/m) @ t=1
1.4484484755754816
% es.tEx (V/m) @ t=1
3.5829251318472615
% es.tEy (V/m) @ t=1
0
% es.tEz (V/m) @ t=1
1.4484484755754776
% V (V) @ t=1
0.019339409341461455
% es.normE (V/m) @ t=1.02
3.9285876686617005
% es.EX (V/m) @ t=1.02
3.6305276319731004
% es.EY (V/m) @ t=1.02
0.22860157419287286
% es.EZ (V/m) @ t=1.02
1.4676913843274741
% es.tEX (V/m) @ t=1.02
3.6305276319730915
% es.tEY (V/m) @ t=1.02
0
% es.tEZ (V/m) @ t=1.02
1.4676913843274777
% es.Ex (V/m) @ t=1.02
3.6305276319731004
% es.Ey (V/m) @ t=1.02
0.22860157419287286
% es.Ez (V/m) @ t=1.02
1.4676913843274741
% es.tEx (V/m) @ t=1.02
3.6305276319730915
% es.tEy (V/m) @ t=1.02
0
% es.tEz (V/m) @ t=1.02
1.4676913843274777
% V (V) @ t=1.02
0.019596388204647014
% es.normE (V/m) @ t=1.04
3.9806036255720967
% es.EX (V/m) @ t=1.04
3.6785975843508307
% es.EY (V/m) @ t=1.04
0.2316270949073702
% es.EZ (V/m) @ t=1.04
1.4871231099819027
% es.tEX (V/m) @ t=1.04
3.678597584350836
% es.tEY (V/m) @ t=1.04
0
% es.tEZ (V/m) @ t=1.04
1.4871231099818987
% es.Ex (V/m) @ t=1.04
3.6785975843508307
% es.Ey (V/m) @ t=1.04
0.2316270949073702
% es.Ez (V/m) @ t=1.04
1.4871231099819027
% es.tEx (V/m) @ t=1.04
3.678597584350836
% es.tEy (V/m) @ t=1.04
0
% es.tEz (V/m) @ t=1.04