% Model:              1 neuron.mph
% Version:            COMSOL 6.0.0.405
% Date:               Mar 16 2023, 19:07
% Dimension:          0
% Nodes:              14017
% Expressions:        14017
% Description:        Electric field norm, Electric field, X component, Electric field, Y component, Electric field, Z component, Tangential electric field, X component, Tangential electric field, Y component, Tangential electric field, Z component, Electric field, x component, Electric field, y component, Electric field, z component, Tangential electric field, x component, Tangential electric field, y component, Tangential electric field, z component, Electric potential
% Length unit:        mm
% x
1.0000000000000002
% y
12.2
% z
2
% es.normE (V/m) @ t=0
1.0396798768036741
% es.EX (V/m) @ t=0
0.7221688679593006
% es.EY (V/m) @ t=0
0.10813657976250807
% es.EZ (V/m) @ t=0
-0.7211170424965605
% es.tEX (V/m) @ t=0
0.7221688679593066
% es.tEY (V/m) @ t=0
0
% es.tEZ (V/m) @ t=0
-0.7211170424965463
% es.Ex (V/m) @ t=0
0.7221688679593006
% es.Ey (V/m) @ t=0
0.10813657976250807
% es.Ez (V/m) @ t=0
-0.7211170424965605
% es.tEx (V/m) @ t=0
0.7221688679593066
% es.tEy (V/m) @ t=0
0
% es.tEz (V/m) @ t=0
-0.7211170424965463
% V (V) @ t=0
0.0111336066543943
% es.normE (V/m) @ t=0.02
0.9029711584799003
% es.EX (V/m) @ t=0.02
0.6272100403556335
% es.EY (V/m) @ t=0.02
0.09391758490482843
% es.EZ (V/m) @ t=0.02
-0.6262965219832468
% es.tEX (V/m) @ t=0.02
0.6272100403556378
% es.tEY (V/m) @ t=0.02
0
% es.tEZ (V/m) @ t=0.02
-0.6262965219832393
% es.Ex (V/m) @ t=0.02
0.6272100403556335
% es.Ey (V/m) @ t=0.02
0.09391758490482843
% es.Ez (V/m) @ t=0.02
-0.6262965219832468
% es.tEx (V/m) @ t=0.02
0.6272100403556378
% es.tEy (V/m) @ t=0.02
0
% es.tEz (V/m) @ t=0.02
-0.6262965219832393
% V (V) @ t=0.02
0.009669634590875316
% es.normE (V/m) @ t=0.04
0.9163620862193573
% es.EX (V/m) @ t=0.04
0.6365114704686117
% es.EY (V/m) @ t=0.04
0.0953103773399116
% es.EZ (V/m) @ t=0.04
-0.6355844054843696
% es.tEX (V/m) @ t=0.04
0.6365114704686152
% es.tEY (V/m) @ t=0.04
0
% es.tEZ (V/m) @ t=0.04
-0.6355844054843587
% es.Ex (V/m) @ t=0.04
0.6365114704686117
% es.Ey (V/m) @ t=0.04
0.0953103773399116
% es.Ez (V/m) @ t=0.04
-0.6355844054843696
% es.tEx (V/m) @ t=0.04
0.6365114704686152
% es.tEy (V/m) @ t=0.04
0
% es.tEz (V/m) @ t=0.04
-0.6355844054843587
% V (V) @ t=0.04
0.009813032891313146
% es.normE (V/m) @ t=0.06
0.9299482861235876
% es.EX (V/m) @ t=0.06
0.6459485409537544
% es.EY (V/m) @ t=0.06
0.09672346058092479
% es.EZ (V/m) @ t=0.06
-0.645007730199781
% es.tEX (V/m) @ t=0.06
0.645948540953754
% es.tEY (V/m) @ t=0.06
0
% es.tEZ (V/m) @ t=0.06
-0.6450077301997665
% es.Ex (V/m) @ t=0.06
0.6459485409537544
% es.Ey (V/m) @ t=0.06
0.09672346058092479
% es.Ez (V/m) @ t=0.06
-0.645007730199781
% es.tEx (V/m) @ t=0.06
0.645948540953754
% es.tEy (V/m) @ t=0.06
0
% es.tEz (V/m) @ t=0.06
-0.6450077301997665
% V (V) @ t=0.06
0.009958524401393028
% es.normE (V/m) @ t=0.08
0.9438944210594629
% es.EX (V/m) @ t=0.08
0.6556356236281571
% es.EY (V/m) @ t=0.08
0.09817398769974961
% es.EZ (V/m) @ t=0.08
-0.654680703733012
% es.tEX (V/m) @ t=0.08
0.6556356236281573
% es.tEY (V/m) @ t=0.08
0
% es.tEZ (V/m) @ t=0.08
-0.6546807037330047
% es.Ex (V/m) @ t=0.08
0.6556356236281571
% es.Ey (V/m) @ t=0.08
0.09817398769974961
% es.Ez (V/m) @ t=0.08
-0.654680703733012
% es.tEx (V/m) @ t=0.08
0.6556356236281573
% es.tEy (V/m) @ t=0.08
0
% es.tEz (V/m) @ t=0.08
-0.6546807037330047
% V (V) @ t=0.08
0.01010786953840626
% es.normE (V/m) @ t=0.1
0.9580638866094828
% es.EX (V/m) @ t=0.1
0.6654778325638715
% es.EY (V/m) @ t=0.1
0.0996477478008746
% es.EZ (V/m) @ t=0.1
-0.6645085780647177
% es.tEX (V/m) @ t=0.1
0.6654778325638748
% es.tEY (V/m) @ t=0.1
0
% es.tEZ (V/m) @ t=0.1
-0.6645085780647104
% es.Ex (V/m) @ t=0.1
0.6654778325638715
% es.Ey (V/m) @ t=0.1
0.0996477478008746
% es.Ez (V/m) @ t=0.1
-0.6645085780647177
% es.tEx (V/m) @ t=0.1
0.6654778325638748
% es.tEy (V/m) @ t=0.1
0
% es.tEz (V/m) @ t=0.1
-0.6645085780647104
% V (V) @ t=0.1
0.01025960575379241
% es.normE (V/m) @ t=0.12
0.9722333521595009
% es.EX (V/m) @ t=0.12
0.6753200414995908
% es.EY (V/m) @ t=0.12
0.10112150790201085
% es.EZ (V/m) @ t=0.12
-0.6743364523964124
% es.tEX (V/m) @ t=0.12
0.6753200414995941
% es.tEY (V/m) @ t=0.12
0
% es.tEZ (V/m) @ t=0.12
-0.6743364523964015
% es.Ex (V/m) @ t=0.12
0.6753200414995908
% es.Ey (V/m) @ t=0.12
0.10112150790201085
% es.Ez (V/m) @ t=0.12
-0.6743364523964124
% es.tEx (V/m) @ t=0.12
0.6753200414995941
% es.tEy (V/m) @ t=0.12
0
% es.tEz (V/m) @ t=0.12
-0.6743364523964015
% V (V) @ t=0.12
0.010411341969178554
% es.normE (V/m) @ t=0.14
0.9867112199978492
% es.EX (V/m) @ t=0.14
0.6853764679627796
% es.EY (V/m) @ t=0.14
0.10262735030579218
% es.EZ (V/m) @ t=0.14
-0.6843782327015233
% es.tEX (V/m) @ t=0.14
0.6853764679627812
% es.tEY (V/m) @ t=0.14
0
% es.tEZ (V/m) @ t=0.14
-0.684378232701516
% es.Ex (V/m) @ t=0.14
0.6853764679627796
% es.Ey (V/m) @ t=0.14
0.10262735030579218
% es.Ez (V/m) @ t=0.14
-0.6843782327015233
% es.tEx (V/m) @ t=0.14
0.6853764679627812
% es.tEy (V/m) @ t=0.14
0
% es.tEz (V/m) @ t=0.14
-0.684378232701516
% V (V) @ t=0.14
0.010566380168171628
% es.normE (V/m) @ t=0.16
1.0021441733698628
% es.EX (V/m) @ t=0.16
0.6960963008574224
% es.EY (V/m) @ t=0.16
0.10423254781911623
% es.EZ (V/m) @ t=0.16
-0.6950824545918544
% es.tEX (V/m) @ t=0.16
0.6960963008574246
% es.tEY (V/m) @ t=0.16
0
% es.tEZ (V/m) @ t=0.16
-0.6950824545918435
% es.Ex (V/m) @ t=0.16
0.6960963008574224
% es.Ey (V/m) @ t=0.16
0.10423254781911623
% es.Ez (V/m) @ t=0.16
-0.6950824545918544
% es.tEx (V/m) @ t=0.16
0.6960963008574246
% es.tEy (V/m) @ t=0.16
0
% es.tEz (V/m) @ t=0.16
-0.6950824545918435
% V (V) @ t=0.16
0.01073164422117028
% es.normE (V/m) @ t=0.18
1.0175771267418745
% es.EX (V/m) @ t=0.18
0.7068161337520589
% es.EY (V/m) @ t=0.18
0.10583774533245632
% es.EZ (V/m) @ t=0.18
-0.7057866764821821
% es.tEX (V/m) @ t=0.18
0.7068161337520613
% es.tEY (V/m) @ t=0.18
0
% es.tEZ (V/m) @ t=0.18
-0.7057866764821714
% es.Ex (V/m) @ t=0.18
0.7068161337520589
% es.Ey (V/m) @ t=0.18
0.10583774533245632
% es.Ez (V/m) @ t=0.18
-0.7057866764821821
% es.tEx (V/m) @ t=0.18
0.7068161337520613
% es.tEy (V/m) @ t=0.18
0
% es.tEz (V/m) @ t=0.18
-0.7057866764821714
% V (V) @ t=0.18
0.010896908274168934
% es.normE (V/m) @ t=0.2
1.0330100801138702
% es.EX (V/m) @ t=0.2
0.7175359666467027
% es.EY (V/m) @ t=0.2
0.10744294284580591
% es.EZ (V/m) @ t=0.2
-0.7164908983724847
% es.tEX (V/m) @ t=0.2
0.717535966646706
% es.tEY (V/m) @ t=0.2
0
% es.tEZ (V/m) @ t=0.2
-0.71649089837247
% es.Ex (V/m) @ t=0.2
0.7175359666467027
% es.Ey (V/m) @ t=0.2
0.10744294284580591
% es.Ez (V/m) @ t=0.2
-0.7164908983724847
% es.tEx (V/m) @ t=0.2
0.717535966646706
% es.tEy (V/m) @ t=0.2
0
% es.tEz (V/m) @ t=0.2
-0.71649089837247
% V (V) @ t=0.2
0.011062172327167588
% es.normE (V/m) @ t=0.22
1.0484430334858859
% es.EX (V/m) @ t=0.22
0.7282557995413443
% es.EY (V/m) @ t=0.22
0.10904814035912647
% es.EZ (V/m) @ t=0.22
-0.7271951202628162
% es.tEX (V/m) @ t=0.22
0.7282557995413486
% es.tEY (V/m) @ t=0.22
0
% es.tEZ (V/m) @ t=0.22
-0.7271951202628051
% es.Ex (V/m) @ t=0.22
0.7282557995413443
% es.Ey (V/m) @ t=0.22
0.10904814035912647
% es.Ez (V/m) @ t=0.22
-0.7271951202628162
% es.tEx (V/m) @ t=0.22
0.7282557995413486
% es.tEy (V/m) @ t=0.22
0
% es.tEz (V/m) @ t=0.22
-0.7271951202628051
% V (V) @ t=0.22
0.011227436380166244
% es.normE (V/m) @ t=0.24
1.0638759868578918
% es.EX (V/m) @ t=0.24
0.7389756324359802
% es.EY (V/m) @ t=0.24
0.11065333787246118
% es.EZ (V/m) @ t=0.24
-0.737899342153133
% es.tEX (V/m) @ t=0.24
0.7389756324359826
% es.tEY (V/m) @ t=0.24
0
% es.tEZ (V/m) @ t=0.24
-0.7378993421531188
% es.Ex (V/m) @ t=0.24
0.7389756324359802
% es.Ey (V/m) @ t=0.24
0.11065333787246118
% es.Ez (V/m) @ t=0.24
-0.737899342153133
% es.tEx (V/m) @ t=0.24
0.7389756324359826
% es.tEy (V/m) @ t=0.24
0
% es.tEz (V/m) @ t=0.24
-0.7378993421531188
% V (V) @ t=0.24
0.011392700433164898
% es.normE (V/m) @ t=0.26
1.0793089402299034
% es.EX (V/m) @ t=0.26
0.7496954653306274
% es.EY (V/m) @ t=0.26
0.11225853538579594
% es.EZ (V/m) @ t=0.26
-0.7486035640434534
% es.tEX (V/m) @ t=0.26
0.749695465330626
% es.tEY (V/m) @ t=0.26
0
% es.tEZ (V/m) @ t=0.26
-0.7486035640434388
% es.Ex (V/m) @ t=0.26
0.7496954653306274
% es.Ey (V/m) @ t=0.26
0.11225853538579594
% es.Ez (V/m) @ t=0.26
-0.7486035640434534
% es.tEx (V/m) @ t=0.26
0.749695465330626
% es.tEy (V/m) @ t=0.26
0
% es.tEz (V/m) @ t=0.26
-0.7486035640434388
% V (V) @ t=0.26
0.01155796448616355
% es.normE (V/m) @ t=0.28
1.09542079989764
% es.EX (V/m) @ t=0.28
0.7608868718735089
% es.EY (V/m) @ t=0.28
0.11393434175245848
% es.EZ (V/m) @ t=0.28
-0.7597786723664153
% es.tEX (V/m) @ t=0.28
0.7608868718735087
% es.tEY (V/m) @ t=0.28
0
% es.tEZ (V/m) @ t=0.28
-0.7597786723664077
% es.Ex (V/m) @ t=0.28
0.7608868718735089
% es.Ey (V/m) @ t=0.28
0.11393434175245848
% es.Ez (V/m) @ t=0.28
-0.7597786723664153
% es.tEx (V/m) @ t=0.28
0.7608868718735087
% es.tEy (V/m) @ t=0.28
0
% es.tEz (V/m) @ t=0.28
-0.7597786723664077
% V (V) @ t=0.28
0.011730499159665186
% es.normE (V/m) @ t=0.3
1.1122168601812894
% es.EX (V/m) @ t=0.3
0.7725535295410404
% es.EY (V/m) @ t=0.3
0.1156813076020135
% es.EZ (V/m) @ t=0.3
-0.7714283392392915
% es.tEX (V/m) @ t=0.3
0.7725535295410428
% es.tEY (V/m) @ t=0.3
0
% es.tEZ (V/m) @ t=0.3
-0.7714283392392769
% es.Ex (V/m) @ t=0.3
0.7725535295410404
% es.Ey (V/m) @ t=0.3
0.1156813076020135
% es.Ez (V/m) @ t=0.3
-0.7714283392392915
% es.tEx (V/m) @ t=0.3
0.7725535295410428
% es.tEy (V/m) @ t=0.3
0
% es.tEz (V/m) @ t=0.3
-0.7714283392392769
% V (V) @ t=0.3
0.011910361152205463
% es.normE (V/m) @ t=0.32
1.1290129204649315
% es.EX (V/m) @ t=0.32
0.7842201872085715
% es.EY (V/m) @ t=0.32
0.1174282734515672
% es.EZ (V/m) @ t=0.32
-0.7830780061121634
% es.tEX (V/m) @ t=0.32
0.784220187208573
% es.tEY (V/m) @ t=0.32
0
% es.tEZ (V/m) @ t=0.32
-0.7830780061121452
% es.Ex (V/m) @ t=0.32
0.7842201872085715
% es.Ey (V/m) @ t=0.32
0.1174282734515672
% es.Ez (V/m) @ t=0.32
-0.7830780061121634
% es.tEx (V/m) @ t=0.32
0.784220187208573
% es.tEy (V/m) @ t=0.32
0
% es.tEz (V/m) @ t=0.32
-0.7830780061121452
% V (V) @ t=0.32
0.012090223144745737
% es.normE (V/m) @ t=0.34
1.1458089807485745
% es.EX (V/m) @ t=0.34
0.7958868448761005
% es.EY (V/m) @ t=0.34
0.11917523930111529
% es.EZ (V/m) @ t=0.34
-0.7947276729850397
% es.tEX (V/m) @ t=0.34
0.7958868448761036
% es.tEY (V/m) @ t=0.34
0
% es.tEZ (V/m) @ t=0.34
-0.7947276729850286
% es.Ex (V/m) @ t=0.34
0.7958868448761005
% es.Ey (V/m) @ t=0.34
0.11917523930111529
% es.Ez (V/m) @ t=0.34
-0.7947276729850397
% es.tEx (V/m) @ t=0.34
0.7958868448761036
% es.tEy (V/m) @ t=0.34
0
% es.tEz (V/m) @ t=0.34
-0.7947276729850286
% V (V) @ t=0.34
0.012270085137286012
% es.normE (V/m) @ t=0.36
1.1626050410322146
% es.EX (V/m) @ t=0.36
0.8075535025436298
% es.EY (V/m) @ t=0.36
0.12092220515066365
% es.EZ (V/m) @ t=0.36
-0.8063773398579115
% es.tEX (V/m) @ t=0.36
0.8075535025436347
% es.tEY (V/m) @ t=0.36
0
% es.tEZ (V/m) @ t=0.36
-0.8063773398579039
% es.Ex (V/m) @ t=0.36
0.8075535025436298
% es.Ey (V/m) @ t=0.36
0.12092220515066365
% es.Ez (V/m) @ t=0.36
-0.8063773398579115
% es.tEx (V/m) @ t=0.36
0.8075535025436347
% es.tEy (V/m) @ t=0.36
0
% es.tEz (V/m) @ t=0.36
-0.8063773398579039
% V (V) @ t=0.36
0.012449947129826286
% es.normE (V/m) @ t=0.38
1.1794011013158714
% es.EX (V/m) @ t=0.38
0.8192201602111635
% es.EY (V/m) @ t=0.38
0.12266917100021618
% es.EZ (V/m) @ t=0.38
-0.818027006730802
% es.tEX (V/m) @ t=0.38
0.8192201602111684
% es.tEY (V/m) @ t=0.38
0
% es.tEZ (V/m) @ t=0.38
-0.8180270067307873
% es.Ex (V/m) @ t=0.38
0.8192201602111635
% es.Ey (V/m) @ t=0.38
0.12266917100021618
% es.Ez (V/m) @ t=0.38
-0.818027006730802
% es.tEx (V/m) @ t=0.38
0.8192201602111684
% es.tEy (V/m) @ t=0.38
0
% es.tEz (V/m) @ t=0.38
-0.8180270067307873
% V (V) @ t=0.38
0.012629809122366558
% es.normE (V/m) @ t=0.4
1.1961971615995108
% es.EX (V/m) @ t=0.4
0.8308868178786926
% es.EY (V/m) @ t=0.4
0.1244161368497752
% es.EZ (V/m) @ t=0.4
-0.8296766736036667
% es.tEX (V/m) @ t=0.4
0.8308868178786994
% es.tEY (V/m) @ t=0.4
0
% es.tEZ (V/m) @ t=0.4
-0.8296766736036485
% es.Ex (V/m) @ t=0.4
0.8308868178786926
% es.Ey (V/m) @ t=0.4
0.1244161368497752
% es.Ez (V/m) @ t=0.4
-0.8296766736036667
% es.tEx (V/m) @ t=0.4
0.8308868178786994
% es.tEy (V/m) @ t=0.4
0
% es.tEz (V/m) @ t=0.4
-0.8296766736036485
% V (V) @ t=0.4
0.012809671114906836
% es.normE (V/m) @ t=0.42
1.2140950002250344
% es.EX (V/m) @ t=0.42
0.843318777188393
% es.EY (V/m) @ t=0.42
0.1262777062414786
% es.EZ (V/m) @ t=0.42
-0.8420905281507554
% es.tEX (V/m) @ t=0.42
0.8433187771883945
% es.tEY (V/m) @ t=0.42
0
% es.tEZ (V/m) @ t=0.42
-0.8420905281507371
% es.Ex (V/m) @ t=0.42
0.843318777188393
% es.Ey (V/m) @ t=0.42
0.1262777062414786
% es.Ez (V/m) @ t=0.42
-0.8420905281507554
% es.tEx (V/m) @ t=0.42
0.8433187771883945
% es.tEy (V/m) @ t=0.42
0
% es.tEz (V/m) @ t=0.42
-0.8420905281507371
% V (V) @ t=0.42
0.013001330823698679
% es.normE (V/m) @ t=0.44
1.2323561368625398
% es.EX (V/m) @ t=0.44
0.8560030854094751
% es.EY (V/m) @ t=0.44
0.12817706475780138
% es.EZ (V/m) @ t=0.44
-0.8547563642918523
% es.tEX (V/m) @ t=0.44
0.8560030854094762
% es.tEY (V/m) @ t=0.44
0
% es.tEZ (V/m) @ t=0.44
-0.8547563642918341
% es.Ex (V/m) @ t=0.44
0.8560030854094751
% es.Ey (V/m) @ t=0.44
0.12817706475780138
% es.Ez (V/m) @ t=0.44
-0.8547563642918523
% es.tEx (V/m) @ t=0.44
0.8560030854094762
% es.tEy (V/m) @ t=0.44
0
% es.tEz (V/m) @ t=0.44
-0.8547563642918341
% V (V) @ t=0.44
0.013196880685978723
% es.normE (V/m) @ t=0.46
1.2506172735000267
% es.EX (V/m) @ t=0.46
0.8686873936305475
% es.EY (V/m) @ t=0.46
0.13007642327411068
% es.EZ (V/m) @ t=0.46
-0.8674222004329364
% es.tEX (V/m) @ t=0.46
0.8686873936305473
% es.tEY (V/m) @ t=0.46
0
% es.tEZ (V/m) @ t=0.46
-0.8674222004329257
% es.Ex (V/m) @ t=0.46
0.8686873936305475
% es.Ey (V/m) @ t=0.46
0.13007642327411068
% es.Ez (V/m) @ t=0.46
-0.8674222004329364
% es.tEx (V/m) @ t=0.46
0.8686873936305473
% es.tEy (V/m) @ t=0.46
0
% es.tEz (V/m) @ t=0.46
-0.8674222004329257
% V (V) @ t=0.46
0.013392430548258758
% es.normE (V/m) @ t=0.48
1.268878410137527
% es.EX (V/m) @ t=0.48
0.8813717018516243
% es.EY (V/m) @ t=0.48
0.13197578179041286
% es.EZ (V/m) @ t=0.48
-0.8800880365740276
% es.tEX (V/m) @ t=0.48
0.8813717018516369
% es.tEY (V/m) @ t=0.48
0
% es.tEZ (V/m) @ t=0.48
-0.8800880365740094
% es.Ex (V/m) @ t=0.48
0.8813717018516243
% es.Ey (V/m) @ t=0.48
0.13197578179041286
% es.Ez (V/m) @ t=0.48
-0.8800880365740276
% es.tEx (V/m) @ t=0.48
0.8813717018516369
% es.tEy (V/m) @ t=0.48
0
% es.tEz (V/m) @ t=0.48
-0.8800880365740094
% V (V) @ t=0.48
0.0135879804105388
% es.normE (V/m) @ t=0.5
1.2871395467750333
% es.EX (V/m) @ t=0.5
0.894056010072706
% es.EY (V/m) @ t=0.5
0.13387514030673386
% es.EZ (V/m) @ t=0.5
-0.8927538727151281
% es.tEX (V/m) @ t=0.5
0.8940560100727106
% es.tEY (V/m) @ t=0.5
0
% es.tEZ (V/m) @ t=0.5
-0.8927538727151134
% es.Ex (V/m) @ t=0.5
0.894056010072706
% es.Ey (V/m) @ t=0.5
0.13387514030673386
% es.Ez (V/m) @ t=0.5
-0.8927538727151281
% es.tEx (V/m) @ t=0.5
0.8940560100727106
% es.tEy (V/m) @ t=0.5
0
% es.tEz (V/m) @ t=0.5
-0.8927538727151134
% V (V) @ t=0.5
0.01378353027281884
% es.normE (V/m) @ t=0.52
1.3054006834125245
% es.EX (V/m) @ t=0.52
0.9067403182937832
% es.EY (V/m) @ t=0.52
0.13577449882302445
% es.EZ (V/m) @ t=0.52
-0.905419708856201
% es.tEX (V/m) @ t=0.52
0.9067403182937879
% es.tEY (V/m) @ t=0.52
0
% es.tEZ (V/m) @ t=0.52
-0.9054197088561899
% es.Ex (V/m) @ t=0.52
0.9067403182937832
% es.Ey (V/m) @ t=0.52
0.13577449882302445
% es.Ez (V/m) @ t=0.52
-0.905419708856201
% es.tEx (V/m) @ t=0.52
0.9067403182937879
% es.tEy (V/m) @ t=0.52
0
% es.tEz (V/m) @ t=0.52
-0.9054197088561899
% V (V) @ t=0.52
0.013979080135098883
% es.normE (V/m) @ t=0.54
1.3236655356396976
% es.EX (V/m) @ t=0.54
0.9194272074311598
% es.EY (V/m) @ t=0.54
0.13767424351926255
% es.EZ (V/m) @ t=0.54
-0.9180881221329229
% es.tEX (V/m) @ t=0.54
0.9194272074311605
% es.tEY (V/m) @ t=0.54
0
% es.tEZ (V/m) @ t=0.54
-0.9180881221329047
% es.Ex (V/m) @ t=0.54
0.9194272074311598
% es.Ey (V/m) @ t=0.54
0.13767424351926255
% es.Ez (V/m) @ t=0.54
-0.9180881221329229
% es.tEx (V/m) @ t=0.54
0.9194272074311605
% es.tEy (V/m) @ t=0.54
0
% es.tEz (V/m) @ t=0.54
-0.9180881221329047
% V (V) @ t=0.54
0.014174669816332187
% es.normE (V/m) @ t=0.56
1.3426384553445931
% es.EX (V/m) @ t=0.56
0.9326059331425156
% es.EY (V/m) @ t=0.56
0.1396475812264648
% es.EZ (V/m) @ t=0.56
-0.9312476515128991
% es.tEX (V/m) @ t=0.56
0.932605933142522
% es.tEY (V/m) @ t=0.56
0
% es.tEZ (V/m) @ t=0.56
-0.9312476515128809
% es.Ex (V/m) @ t=0.56
0.9326059331425156
% es.Ey (V/m) @ t=0.56
0.1396475812264648
% es.Ez (V/m) @ t=0.56
-0.9312476515128991
% es.tEx (V/m) @ t=0.56
0.932605933142522
% es.tEy (V/m) @ t=0.56
0
% es.tEz (V/m) @ t=0.56
-0.9312476515128809
% V (V) @ t=0.56
0.01437784766211317
% es.normE (V/m) @ t=0.58
1.3617948709762668
% es.EX (V/m) @ t=0.58
0.9459121184686967
% es.EY (V/m) @ t=0.58
0.1416399905874317
% es.EZ (V/m) @ t=0.58
-0.9445344537974316
% es.tEX (V/m) @ t=0.58
0.9459121184687014
% es.tEY (V/m) @ t=0.58
0
% es.tEZ (V/m) @ t=0.58
-0.9445344537974174
% es.Ex (V/m) @ t=0.58
0.9459121184686967
% es.Ey (V/m) @ t=0.58
0.1416399905874317
% es.Ez (V/m) @ t=0.58
-0.9445344537974316
% es.tEx (V/m) @ t=0.58
0.9459121184687014
% es.tEy (V/m) @ t=0.58
0
% es.tEz (V/m) @ t=0.58
-0.9445344537974174
% V (V) @ t=0.58
0.01458299198330795
% es.normE (V/m) @ t=0.6
1.3811347825347378
% es.EX (V/m) @ t=0.6
0.959345763409676
% es.EY (V/m) @ t=0.6
0.14365147160212954
% es.EZ (V/m) @ t=0.6
-0.9579485289865617
% es.tEX (V/m) @ t=0.6
0.9593457634096798
% es.tEY (V/m) @ t=0.6
0
% es.tEZ (V/m) @ t=0.6
-0.957948528986547
% es.Ex (V/m) @ t=0.6
0.959345763409676
% es.Ey (V/m) @ t=0.6
0.14365147160212954
% es.Ez (V/m) @ t=0.6
-0.9579485289865617
% es.tEx (V/m) @ t=0.6
0.9593457634096798
% es.tEy (V/m) @ t=0.6
0
% es.tEz (V/m) @ t=0.6
-0.957948528986547
% V (V) @ t=0.6
0.01479010277991653
% es.normE (V/m) @ t=0.62
1.4006581900199992
% es.EX (V/m) @ t=0.62
0.9729068679654638
% es.EY (V/m) @ t=0.62
0.14568202427059485
% es.EZ (V/m) @ t=0.62
-0.9714898770802685
% es.tEX (V/m) @ t=0.62
0.972906867965464
% es.tEY (V/m) @ t=0.62
0
% es.tEZ (V/m) @ t=0.62
-0.9714898770802503
% es.Ex (V/m) @ t=0.62
0.9729068679654638
% es.Ey (V/m) @ t=0.62
0.14568202427059485
% es.Ez (V/m) @ t=0.62
-0.9714898770802685
% es.tEx (V/m) @ t=0.62
0.972906867965464
% es.tEy (V/m) @ t=0.62
0
% es.tEz (V/m) @ t=0.62
-0.9714898770802503
% V (V) @ t=0.62
0.014999180051938904
% es.normE (V/m) @ t=0.64
1.4203650934320424
% es.EX (V/m) @ t=0.64
0.9865954321360679
% es.EY (V/m) @ t=0.64
0.14773164859275745
% es.EZ (V/m) @ t=0.64
-0.9851584980785337
% es.tEX (V/m) @ t=0.64
0.986595432136069
% es.tEY (V/m) @ t=0.64
0
% es.tEZ (V/m) @ t=0.64
-0.9851584980785191
% es.Ex (V/m) @ t=0.64
0.9865954321360679
% es.Ey (V/m) @ t=0.64
0.14773164859275745
% es.Ez (V/m) @ t=0.64
-0.9851584980785337
% es.tEx (V/m) @ t=0.64
0.986595432136069
% es.tEy (V/m) @ t=0.64
0
% es.tEz (V/m) @ t=0.64
-0.9851584980785191
% V (V) @ t=0.64
0.015210223799375071
% es.normE (V/m) @ t=0.66
1.44025549277088
% es.EX (V/m) @ t=0.66
1.0004114559214734
% es.EY (V/m) @ t=0.66
0.149800344568694
% es.EZ (V/m) @ t=0.66
-0.9989543919813753
% es.tEX (V/m) @ t=0.66
1.0004114559214754
% es.tEY (V/m) @ t=0.66
0
% es.tEZ (V/m) @ t=0.66
-0.9989543919813606
% es.Ex (V/m) @ t=0.66
1.0004114559214734
% es.Ey (V/m) @ t=0.66
0.149800344568694
% es.Ez (V/m) @ t=0.66
-0.9989543919813753
% es.tEx (V/m) @ t=0.66
1.0004114559214754
% es.tEy (V/m) @ t=0.66
0
% es.tEz (V/m) @ t=0.66
-0.9989543919813606
% V (V) @ t=0.66
0.01542323402222503
% es.normE (V/m) @ t=0.68
1.4603293880364956
% es.EX (V/m) @ t=0.68
1.014354939321681
% es.EY (V/m) @ t=0.68
0.15188811219835385
% es.EZ (V/m) @ t=0.68
-1.0128775587887815
% es.tEX (V/m) @ t=0.68
1.0143549393216902
% es.tEY (V/m) @ t=0.68
0
% es.tEZ (V/m) @ t=0.68
-1.0128775587887633
% es.Ex (V/m) @ t=0.68
1.014354939321681
% es.Ey (V/m) @ t=0.68
0.15188811219835385
% es.Ez (V/m) @ t=0.68
-1.0128775587887815
% es.tEx (V/m) @ t=0.68
1.0143549393216902
% es.tEy (V/m) @ t=0.68
0
% es.tEz (V/m) @ t=0.68
-1.0128775587887633
% V (V) @ t=0.68
0.01563821072048879
% es.normE (V/m) @ t=0.7
1.4805867792289398
% es.EX (V/m) @ t=0.7
1.0284258823367132
% es.EY (V/m) @ t=0.7
0.15399495148176323
% es.EZ (V/m) @ t=0.7
-1.026927998500787
% es.tEX (V/m) @ t=0.7
1.0284258823367152
% es.tEY (V/m) @ t=0.7
0
% es.tEZ (V/m) @ t=0.7
-1.0269279985007724
% es.Ex (V/m) @ t=0.7
1.0284258823367132
% es.Ey (V/m) @ t=0.7
0.15399495148176323
% es.Ez (V/m) @ t=0.7
-1.026927998500787
% es.tEx (V/m) @ t=0.7
1.0284258823367152
% es.tEy (V/m) @ t=0.7
0
% es.tEz (V/m) @ t=0.7
-1.0269279985007724
% V (V) @ t=0.7
0.015855153894166342
% es.normE (V/m) @ t=0.72
1.501027666348199
% es.EX (V/m) @ t=0.72
1.042624284966551
% es.EY (V/m) @ t=0.72
0.15612086241889866
% es.EZ (V/m) @ t=0.72
-1.0411057111173982
% es.tEX (V/m) @ t=0.72
1.0426242849665557
% es.tEY (V/m) @ t=0.72
0
% es.tEZ (V/m) @ t=0.72
-1.0411057111173765
% es.Ex (V/m) @ t=0.72
1.042624284966551
% es.Ey (V/m) @ t=0.72
0.15612086241889866
% es.Ez (V/m) @ t=0.72
-1.0411057111173982
% es.tEx (V/m) @ t=0.72
1.0426242849665557
% es.tEy (V/m) @ t=0.72
0
% es.tEz (V/m) @ t=0.72
-1.0411057111173765
% V (V) @ t=0.72
0.01607406354325769
% es.normE (V/m) @ t=0.74
1.5216520493942078
% es.EX (V/m) @ t=0.74
1.0569501472111897
% es.EY (V/m) @ t=0.74
0.15826584500975188
% es.EZ (V/m) @ t=0.74
-1.055410696638511
% es.tEX (V/m) @ t=0.74
1.056950147211198
% es.tEY (V/m) @ t=0.74
0
% es.tEZ (V/m) @ t=0.74
-1.0554106966384964
% es.Ex (V/m) @ t=0.74
1.0569501472111897
% es.Ey (V/m) @ t=0.74
0.15826584500975188
% es.Ez (V/m) @ t=0.74
-1.055410696638511
% es.tEx (V/m) @ t=0.74
1.056950147211198
% es.tEy (V/m) @ t=0.74
0
% es.tEz (V/m) @ t=0.74
-1.0554106966384964
% V (V) @ t=0.74
0.01629493966776283
% es.normE (V/m) @ t=0.76
1.5424599283670708
% es.EX (V/m) @ t=0.76
1.0714034690706404
% es.EY (V/m) @ t=0.76
0.16042989925439305
% es.EZ (V/m) @ t=0.76
-1.0698429550642543
% es.tEX (V/m) @ t=0.76
1.0714034690706415
% es.tEY (V/m) @ t=0.76
0
% es.tEZ (V/m) @ t=0.76
-1.0698429550642325
% es.Ex (V/m) @ t=0.76
1.0714034690706404
% es.Ey (V/m) @ t=0.76
0.16042989925439305
% es.Ez (V/m) @ t=0.76
-1.0698429550642543
% es.tEx (V/m) @ t=0.76
1.0714034690706415
% es.tEy (V/m) @ t=0.76
0
% es.tEz (V/m) @ t=0.76
-1.0698429550642325
% V (V) @ t=0.76
0.016517782267681767
% es.normE (V/m) @ t=0.78
1.563451303266731
% es.EX (V/m) @ t=0.78
1.0859842505448938
% es.EY (V/m) @ t=0.78
0.16261302515276804
% es.EZ (V/m) @ t=0.78
-1.084402486394557
% es.tEX (V/m) @ t=0.78
1.085984250544902
% es.tEY (V/m) @ t=0.78
0
% es.tEZ (V/m) @ t=0.78
-1.084402486394528
% es.Ex (V/m) @ t=0.78
1.0859842505448938
% es.Ey (V/m) @ t=0.78
0.16261302515276804
% es.Ez (V/m) @ t=0.78
-1.084402486394557
% es.tEx (V/m) @ t=0.78
1.085984250544902
% es.tEy (V/m) @ t=0.78
0
% es.tEz (V/m) @ t=0.78
-1.084402486394528
% V (V) @ t=0.78
0.016742591343014496
% es.normE (V/m) @ t=0.8
1.5846261740931977
% es.EX (V/m) @ t=0.8
1.1006924916339702
% es.EY (V/m) @ t=0.8
0.16481522270486249
% es.EZ (V/m) @ t=0.8
-1.0990892906294136
% es.tEX (V/m) @ t=0.8
1.1006924916339709
% es.tEY (V/m) @ t=0.8
0
% es.tEZ (V/m) @ t=0.8
-1.0990892906293883
% es.Ex (V/m) @ t=0.8
1.1006924916339702
% es.Ey (V/m) @ t=0.8
0.16481522270486249
% es.Ez (V/m) @ t=0.8
-1.0990892906294136
% es.tEx (V/m) @ t=0.8
1.1006924916339709
% es.tEy (V/m) @ t=0.8
0
% es.tEz (V/m) @ t=0.8
-1.0990892906293883
% V (V) @ t=0.8
0.016969366893761023
% es.normE (V/m) @ t=0.82
1.6061714784564032
% es.EX (V/m) @ t=0.82
1.11565801777947
% es.EY (V/m) @ t=0.82
0.16705608881377704
% es.EZ (V/m) @ t=0.82
-1.1140330149448325
% es.tEX (V/m) @ t=0.82
1.1156580177794715
% es.tEY (V/m) @ t=0.82
0
% es.tEZ (V/m) @ t=0.82
-1.1140330149448179
% es.Ex (V/m) @ t=0.82
1.11565801777947
% es.Ey (V/m) @ t=0.82
0.16705608881377704
% es.Ez (V/m) @ t=0.82
-1.1140330149448325
% es.tEx (V/m) @ t=0.82
1.1156580177794715
% es.tEy (V/m) @ t=0.82
0
% es.tEz (V/m) @ t=0.82
-1.1140330149448179
% V (V) @ t=0.82
0.017200094346945922
% es.normE (V/m) @ t=0.84
1.6281163940174497
% es.EX (V/m) @ t=0.84
1.1309010924411749
% es.EY (V/m) @ t=0.84
0.16933868221022375
% es.EZ (V/m) @ t=0.84
-1.1292538949764679
% es.tEX (V/m) @ t=0.84
1.1309010924411829
% es.tEY (V/m) @ t=0.84
0
% es.tEZ (V/m) @ t=0.84
-1.1292538949764532
% es.Ex (V/m) @ t=0.84
1.1309010924411749
% es.Ey (V/m) @ t=0.84
0.16933868221022375
% es.Ez (V/m) @ t=0.84
-1.1292538949764679
% es.tEx (V/m) @ t=0.84
1.1309010924411829
% es.tEy (V/m) @ t=0.84
0
% es.tEz (V/m) @ t=0.84
-1.1292538949764532
% V (V) @ t=0.84
0.017435083592681536
% es.normE (V/m) @ t=0.86
1.6502967455250546
% es.EX (V/m) @ t=0.86
1.1463076983032925
% es.EY (V/m) @ t=0.86
0.1716457921975183
% es.EZ (V/m) @ t=0.86
-1.1446380699677685
% es.tEX (V/m) @ t=0.86
1.1463076983032967
% es.tEY (V/m) @ t=0.86
0
% es.tEZ (V/m) @ t=0.86
-1.1446380699677325
% es.Ex (V/m) @ t=0.86
1.1463076983032925
% es.Ey (V/m) @ t=0.86
0.1716457921975183
% es.Ez (V/m) @ t=0.86
-1.1446380699677685
% es.tEx (V/m) @ t=0.86
1.1463076983032967
% es.tEy (V/m) @ t=0.86
0
% es.tEz (V/m) @ t=0.86
-1.1446380699677325
% V (V) @ t=0.86
0.01767259095840826
% es.normE (V/m) @ t=0.88
1.6727125329791974
% es.EX (V/m) @ t=0.88
1.1618778353658155
% es.EY (V/m) @ t=0.88
0.17397741877569212
% es.EZ (V/m) @ t=0.88
-1.160185539918697
% es.tEX (V/m) @ t=0.88
1.1618778353658126
% es.tEY (V/m) @ t=0.88
0
% es.tEZ (V/m) @ t=0.88
-1.1601855399186682
% es.Ex (V/m) @ t=0.88
1.1618778353658155
% es.Ey (V/m) @ t=0.88
0.17397741877569212
% es.Ez (V/m) @ t=0.88
-1.160185539918697
% es.tEx (V/m) @ t=0.88
1.1618778353658126
% es.tEy (V/m) @ t=0.88
0
% es.tEz (V/m) @ t=0.88
-1.1601855399186682
% V (V) @ t=0.88
0.017912616444126103
% es.normE (V/m) @ t=0.9
1.6953637563798591
% es.EX (V/m) @ t=0.9
1.177611503628742
% es.EY (V/m) @ t=0.9
0.17633356194475192
% es.EZ (V/m) @ t=0.9
-1.175896304829212
% es.tEX (V/m) @ t=0.9
1.177611503628757
% es.tEY (V/m) @ t=0.9
0
% es.tEZ (V/m) @ t=0.9
-1.1758963048291902
% es.Ex (V/m) @ t=0.9
1.177611503628742
% es.Ey (V/m) @ t=0.9
0.17633356194475192
% es.Ez (V/m) @ t=0.9
-1.175896304829212
% es.tEx (V/m) @ t=0.9
1.177611503628757
% es.tEy (V/m) @ t=0.9
0
% es.tEz (V/m) @ t=0.9
-1.1758963048291902
% V (V) @ t=0.9
0.018155160049835053
% es.normE (V/m) @ t=0.92
1.718250415727086
% es.EX (V/m) @ t=0.92
1.1935087030920872
% es.EY (V/m) @ t=0.92
0.1787142217046908
% es.EZ (V/m) @ t=0.92
-1.1917703646993592
% es.tEX (V/m) @ t=0.92
1.1935087030920872
% es.tEY (V/m) @ t=0.92
0
% es.tEZ (V/m) @ t=0.92
-1.1917703646993374
% es.Ex (V/m) @ t=0.92
1.1935087030920872
% es.Ey (V/m) @ t=0.92
0.1787142217046908
% es.Ez (V/m) @ t=0.92
-1.1917703646993592
% es.tEx (V/m) @ t=0.92
1.1935087030920872
% es.tEy (V/m) @ t=0.92
0
% es.tEz (V/m) @ t=0.92
-1.1917703646993374
% V (V) @ t=0.92
0.01840022177553512
% es.normE (V/m) @ t=0.94
1.7413725110208877
% es.EX (V/m) @ t=0.94
1.2095694337558127
% es.EY (V/m) @ t=0.94
0.1811193980554609
% es.EZ (V/m) @ t=0.94
-1.207807719529154
% es.tEX (V/m) @ t=0.94
1.2095694337558207
% es.tEY (V/m) @ t=0.94
0
% es.tEZ (V/m) @ t=0.94
-1.2078077195291321
% es.Ex (V/m) @ t=0.94
1.2095694337558127
% es.Ey (V/m) @ t=0.94
0.1811193980554609
% es.Ez (V/m) @ t=0.94
-1.207807719529154
% es.tEx (V/m) @ t=0.94
1.2095694337558207
% es.tEy (V/m) @ t=0.94
0
% es.tEz (V/m) @ t=0.94
-1.2078077195291321
% V (V) @ t=0.94
0.018647801621226298
% es.normE (V/m) @ t=0.96
1.7647300422612981
% es.EX (V/m) @ t=0.96
1.2257936956199718
% es.EY (V/m) @ t=0.96
0.18354909099714356
% es.EZ (V/m) @ t=0.96
-1.224008369318605
% es.tEX (V/m) @ t=0.96
1.2257936956199789
% es.tEY (V/m) @ t=0.96
0
% es.tEZ (V/m) @ t=0.96
-1.2240083693185762
% es.Ex (V/m) @ t=0.96
1.2257936956199718
% es.Ey (V/m) @ t=0.96
0.18354909099714356
% es.Ez (V/m) @ t=0.96
-1.224008369318605
% es.tEx (V/m) @ t=0.96
1.2257936956199789
% es.tEy (V/m) @ t=0.96
0
% es.tEz (V/m) @ t=0.96
-1.2240083693185762
% V (V) @ t=0.96
0.018897899586908587
% es.normE (V/m) @ t=0.98
1.788323009448276
% es.EX (V/m) @ t=0.98
1.2421814886845168
% es.EY (V/m) @ t=0.98
0.18600330052966918
% es.EZ (V/m) @ t=0.98
-1.2403723140676575
% es.tEX (V/m) @ t=0.98
1.2421814886845244
% es.tEY (V/m) @ t=0.98
0
% es.tEZ (V/m) @ t=0.98
-1.2403723140676286
% es.Ex (V/m) @ t=0.98
1.2421814886845168
% es.Ey (V/m) @ t=0.98
0.18600330052966918
% es.Ez (V/m) @ t=0.98
-1.2403723140676575
% es.tEx (V/m) @ t=0.98
1.2421814886845244
% es.tEy (V/m) @ t=0.98
0
% es.tEz (V/m) @ t=0.98
-1.2403723140676286
% V (V) @ t=0.98
0.01915051567258199
% es.normE (V/m) @ t=1
1.8121514125818692
% es.EX (V/m) @ t=1
1.2587328129494653
% es.EY (V/m) @ t=1
0.18848202665306424
% es.EZ (V/m) @ t=1
-1.2568995537763583
% es.tEX (V/m) @ t=1
1.2587328129494724
% es.tEY (V/m) @ t=1
0
% es.tEZ (V/m) @ t=1
-1.2568995537763294
% es.Ex (V/m) @ t=1
1.2587328129494653
% es.Ey (V/m) @ t=1
0.18848202665306424
% es.Ez (V/m) @ t=1
-1.2568995537763583
% es.tEx (V/m) @ t=1
1.2587328129494724
% es.tEy (V/m) @ t=1
0
% es.tEz (V/m) @ t=1
-1.2568995537763294
% V (V) @ t=1
0.019405649878246504
% es.normE (V/m) @ t=1.02
1.8362152516621242
% es.EX (V/m) @ t=1.02
1.275447668414845
% es.EY (V/m) @ t=1.02
0.1909852693673153
% es.EZ (V/m) @ t=1.02
-1.2735900884447076
% es.tEX (V/m) @ t=1.02
1.275447668414845
% es.tEY (V/m) @ t=1.02
0
% es.tEZ (V/m) @ t=1.02
-1.273590088444693
% es.Ex (V/m) @ t=1.02
1.275447668414845
% es.Ey (V/m) @ t=1.02
0.1909852693673153
% es.Ez (V/m) @ t=1.02
-1.2735900884447076
% es.tEx (V/m) @ t=1.02
1.275447668414845
% es.tEy (V/m) @ t=1.02
0
% es.tEz (V/m) @ t=1.02
-1.273590088444693
% V (V) @ t=1.02
0.019663302203902132
% es.normE (V/m) @ t=1.04
1.860514526688969
% es.EX (V/m) @ t=1.04
1.2923260550805957
% es.EY (V/m) @ t=1.04
0.19351302867246356
% es.EZ (V/m) @ t=1.04
-1.290443918072643
% es.tEX (V/m) @ t=1.04
1.292326055080606