% Model:              1 neuron.mph
% Version:            COMSOL 6.0.0.405
% Date:               Mar 16 2023, 18:57
% Dimension:          0
% Nodes:              14017
% Expressions:        14017
% Description:        Electric field norm, Electric field, X component, Electric field, Y component, Electric field, Z component, Tangential electric field, X component, Tangential electric field, Y component, Tangential electric field, Z component, Electric field, x component, Electric field, y component, Electric field, z component, Tangential electric field, x component, Tangential electric field, y component, Tangential electric field, z component, Electric potential
% Length unit:        mm
% x
1.66
% y
12.2
% z
1.33
% es.normE (V/m) @ t=0
11.413257694630659
% es.EX (V/m) @ t=0
-6.341667498750058
% es.EY (V/m) @ t=0
-0.6845278179773413
% es.EZ (V/m) @ t=0
8.491450990174746
% es.tEX (V/m) @ t=0
-6.3416674987500645
% es.tEY (V/m) @ t=0
0
% es.tEZ (V/m) @ t=0
8.491450990174734
% es.Ex (V/m) @ t=0
-6.341667498750058
% es.Ey (V/m) @ t=0
-0.6845278179773413
% es.Ez (V/m) @ t=0
8.491450990174746
% es.tEx (V/m) @ t=0
-6.3416674987500645
% es.tEy (V/m) @ t=0
0
% es.tEz (V/m) @ t=0
8.491450990174734
% V (V) @ t=0
0.009373309179978383
% es.normE (V/m) @ t=0.02
9.912505808135048
% es.EX (V/m) @ t=0.02
-5.507789624664495
% es.EY (V/m) @ t=0.02
-0.5945176294378745
% es.EZ (V/m) @ t=0.02
7.374892988039392
% es.tEX (V/m) @ t=0.02
-5.5077896246645075
% es.tEY (V/m) @ t=0.02
0
% es.tEZ (V/m) @ t=0.02
7.3748929880393845
% es.Ex (V/m) @ t=0.02
-5.507789624664495
% es.Ey (V/m) @ t=0.02
-0.5945176294378745
% es.Ez (V/m) @ t=0.02
7.374892988039392
% es.tEx (V/m) @ t=0.02
-5.5077896246645075
% es.tEy (V/m) @ t=0.02
0
% es.tEz (V/m) @ t=0.02
7.3748929880393845
% V (V) @ t=0.02
0.008140793714269685
% es.normE (V/m) @ t=0.04
10.059492081231749
% es.EX (V/m) @ t=0.04
-5.5894611773635
% es.EY (V/m) @ t=0.04
-0.6033333417633295
% es.EZ (V/m) @ t=0.04
7.4842505938482775
% es.tEX (V/m) @ t=0.04
-5.589461177363506
% es.tEY (V/m) @ t=0.04
0
% es.tEZ (V/m) @ t=0.04
7.484250593848271
% es.Ex (V/m) @ t=0.04
-5.5894611773635
% es.Ey (V/m) @ t=0.04
-0.6033333417633295
% es.Ez (V/m) @ t=0.04
7.4842505938482775
% es.tEx (V/m) @ t=0.04
-5.589461177363506
% es.tEy (V/m) @ t=0.04
0
% es.tEz (V/m) @ t=0.04
7.484250593848271
% V (V) @ t=0.04
0.008261508367959493
% es.normE (V/m) @ t=0.06
10.208677610114197
% es.EX (V/m) @ t=0.06
-5.67235406632738
% es.EY (V/m) @ t=0.06
-0.612281273789689
% es.EZ (V/m) @ t=0.06
7.595244764650779
% es.tEX (V/m) @ t=0.06
-5.672354066327379
% es.tEY (V/m) @ t=0.06
0
% es.tEZ (V/m) @ t=0.06
7.595244764650769
% es.Ex (V/m) @ t=0.06
-5.67235406632738
% es.Ey (V/m) @ t=0.06
-0.612281273789689
% es.Ez (V/m) @ t=0.06
7.595244764650779
% es.tEx (V/m) @ t=0.06
-5.672354066327379
% es.tEy (V/m) @ t=0.06
0
% es.tEz (V/m) @ t=0.06
7.595244764650769
% V (V) @ t=0.06
0.008384029729357596
% es.normE (V/m) @ t=0.08
10.361686672129508
% es.EX (V/m) @ t=0.08
-5.757371744727333
% es.EY (V/m) @ t=0.08
-0.621458394056172
% es.EZ (V/m) @ t=0.08
7.709083503514684
% es.tEX (V/m) @ t=0.08
-5.757371744727339
% es.tEY (V/m) @ t=0.08
0
% es.tEZ (V/m) @ t=0.08
7.709083503514674
% es.Ex (V/m) @ t=0.08
-5.757371744727333
% es.Ey (V/m) @ t=0.08
-0.621458394056172
% es.Ez (V/m) @ t=0.08
7.709083503514684
% es.tEx (V/m) @ t=0.08
-5.757371744727339
% es.tEy (V/m) @ t=0.08
0
% es.tEz (V/m) @ t=0.08
7.709083503514674
% V (V) @ t=0.08
0.008509690997089652
% es.normE (V/m) @ t=0.1
10.517325048137817
% es.EX (V/m) @ t=0.1
-5.843850568722809
% es.EY (V/m) @ t=0.1
-0.6307931192984251
% es.EZ (V/m) @ t=0.1
7.824878355310786
% es.tEX (V/m) @ t=0.1
-5.843850568722814
% es.tEY (V/m) @ t=0.1
0
% es.tEZ (V/m) @ t=0.1
7.8248783553107755
% es.Ex (V/m) @ t=0.1
-5.843850568722809
% es.Ey (V/m) @ t=0.1
-0.6307931192984251
% es.Ez (V/m) @ t=0.1
7.824878355310786
% es.tEx (V/m) @ t=0.1
-5.843850568722814
% es.tEy (V/m) @ t=0.1
0
% es.tEz (V/m) @ t=0.1
7.8248783553107755
% V (V) @ t=0.1
0.008637511471862347
% es.normE (V/m) @ t=0.12
10.672963424146126
% es.EX (V/m) @ t=0.12
-5.930329392718293
% es.EY (V/m) @ t=0.12
-0.640127844540683
% es.EZ (V/m) @ t=0.12
7.940673207106897
% es.tEX (V/m) @ t=0.12
-5.93032939271831
% es.tEY (V/m) @ t=0.12
0
% es.tEZ (V/m) @ t=0.12
7.9406732071068875
% es.Ex (V/m) @ t=0.12
-5.930329392718293
% es.Ey (V/m) @ t=0.12
-0.640127844540683
% es.Ez (V/m) @ t=0.12
7.940673207106897
% es.tEx (V/m) @ t=0.12
-5.93032939271831
% es.tEy (V/m) @ t=0.12
0
% es.tEz (V/m) @ t=0.12
7.9406732071068875
% V (V) @ t=0.12
0.008765331946635037
% es.normE (V/m) @ t=0.14
10.831328129027842
% es.EX (V/m) @ t=0.14
-6.0183235386022975
% es.EY (V/m) @ t=0.14
-0.6496258636714949
% es.EZ (V/m) @ t=0.14
8.058496218859322
% es.tEX (V/m) @ t=0.14
-6.0183235386023135
% es.tEY (V/m) @ t=0.14
0
% es.tEZ (V/m) @ t=0.14
8.058496218859315
% es.Ex (V/m) @ t=0.14
-6.0183235386022975
% es.Ey (V/m) @ t=0.14
-0.6496258636714949
% es.Ez (V/m) @ t=0.14
8.058496218859322
% es.tEx (V/m) @ t=0.14
-6.0183235386023135
% es.tEy (V/m) @ t=0.14
0
% es.tEz (V/m) @ t=0.14
8.058496218859315
% V (V) @ t=0.14
0.008895391083860622
% es.normE (V/m) @ t=0.16
11.000946086445357
% es.EX (V/m) @ t=0.16
-6.112572359060089
% es.EY (V/m) @ t=0.16
-0.6597978980994741
% es.EZ (V/m) @ t=0.16
8.18469070640581
% es.tEX (V/m) @ t=0.16
-6.112572359060099
% es.tEY (V/m) @ t=0.16
0
% es.tEZ (V/m) @ t=0.16
8.184690706405807
% es.Ex (V/m) @ t=0.16
-6.112572359060089
% es.Ey (V/m) @ t=0.16
-0.6597978980994741
% es.Ez (V/m) @ t=0.16
8.18469070640581
% es.tEx (V/m) @ t=0.16
-6.112572359060099
% es.tEy (V/m) @ t=0.16
0
% es.tEz (V/m) @ t=0.16
8.184690706405807
% V (V) @ t=0.16
0.009034690571423127
% es.normE (V/m) @ t=0.18
11.170564043863585
% es.EX (V/m) @ t=0.18
-6.20682117951786
% es.EY (V/m) @ t=0.18
-0.6699699325274477
% es.EZ (V/m) @ t=0.18
8.310885193952302
% es.tEX (V/m) @ t=0.18
-6.20682117951788
% es.tEY (V/m) @ t=0.18
0
% es.tEZ (V/m) @ t=0.18
8.310885193952288
% es.Ex (V/m) @ t=0.18
-6.20682117951786
% es.Ey (V/m) @ t=0.18
-0.6699699325274477
% es.Ez (V/m) @ t=0.18
8.310885193952302
% es.tEx (V/m) @ t=0.18
-6.20682117951788
% es.tEy (V/m) @ t=0.18
0
% es.tEz (V/m) @ t=0.18
8.310885193952288
% V (V) @ t=0.18
0.00917399005898563
% es.normE (V/m) @ t=0.2
11.34018200128251
% es.EX (V/m) @ t=0.2
-6.301069999975638
% es.EY (V/m) @ t=0.2
-0.6801419669554272
% es.EZ (V/m) @ t=0.2
8.437079681498798
% es.tEX (V/m) @ t=0.2
-6.301069999975644
% es.tEY (V/m) @ t=0.2
0
% es.tEZ (V/m) @ t=0.2
8.437079681498792
% es.Ex (V/m) @ t=0.2
-6.301069999975638
% es.Ey (V/m) @ t=0.2
-0.6801419669554272
% es.Ez (V/m) @ t=0.2
8.437079681498798
% es.tEx (V/m) @ t=0.2
-6.301069999975644
% es.tEy (V/m) @ t=0.2
0
% es.tEz (V/m) @ t=0.2
8.437079681498792
% V (V) @ t=0.2
0.009313289546548137
% es.normE (V/m) @ t=0.22
11.509799958702052
% es.EX (V/m) @ t=0.22
-6.395318820433398
% es.EY (V/m) @ t=0.22
-0.690314001383387
% es.EZ (V/m) @ t=0.22
8.563274169045274
% es.tEX (V/m) @ t=0.22
-6.395318820433404
% es.tEY (V/m) @ t=0.22
0
% es.tEZ (V/m) @ t=0.22
8.563274169045265
% es.Ex (V/m) @ t=0.22
-6.395318820433398
% es.Ey (V/m) @ t=0.22
-0.690314001383387
% es.Ez (V/m) @ t=0.22
8.563274169045274
% es.tEx (V/m) @ t=0.22
-6.395318820433404
% es.tEy (V/m) @ t=0.22
0
% es.tEz (V/m) @ t=0.22
8.563274169045265
% V (V) @ t=0.22
0.00945258903411064
% es.normE (V/m) @ t=0.24
11.67941791612224
% es.EX (V/m) @ t=0.24
-6.4895676408911775
% es.EY (V/m) @ t=0.24
-0.700486035811366
% es.EZ (V/m) @ t=0.24
8.689468656591751
% es.tEX (V/m) @ t=0.24
-6.489567640891184
% es.tEY (V/m) @ t=0.24
0
% es.tEZ (V/m) @ t=0.24
8.689468656591743
% es.Ex (V/m) @ t=0.24
-6.4895676408911775
% es.Ey (V/m) @ t=0.24
-0.700486035811366
% es.Ez (V/m) @ t=0.24
8.689468656591751
% es.tEx (V/m) @ t=0.24
-6.489567640891184
% es.tEy (V/m) @ t=0.24
0
% es.tEz (V/m) @ t=0.24
8.689468656591743
% V (V) @ t=0.24
0.009591888521673145
% es.normE (V/m) @ t=0.26
11.849035873543016
% es.EX (V/m) @ t=0.26
-6.583816461348948
% es.EY (V/m) @ t=0.26
-0.7106580702393563
% es.EZ (V/m) @ t=0.26
8.815663144138231
% es.tEX (V/m) @ t=0.26
-6.583816461348958
% es.tEY (V/m) @ t=0.26
0
% es.tEZ (V/m) @ t=0.26
8.81566314413822
% es.Ex (V/m) @ t=0.26
-6.583816461348948
% es.Ey (V/m) @ t=0.26
-0.7106580702393563
% es.Ez (V/m) @ t=0.26
8.815663144138231
% es.tEx (V/m) @ t=0.26
-6.583816461348958
% es.tEy (V/m) @ t=0.26
0
% es.tEz (V/m) @ t=0.26
8.81566314413822
% V (V) @ t=0.26
0.009731188009235649
% es.normE (V/m) @ t=0.28
12.024693961564992
% es.EX (V/m) @ t=0.28
-6.681420870474478
% es.EY (V/m) @ t=0.28
-0.7211926353532008
% es.EZ (V/m) @ t=0.28
8.946351751072017
% es.tEX (V/m) @ t=0.28
-6.681420870474491
% es.tEY (V/m) @ t=0.28
0
% es.tEZ (V/m) @ t=0.28
8.946351751072012
% es.Ex (V/m) @ t=0.28
-6.681420870474478
% es.Ey (V/m) @ t=0.28
-0.7211926353532008
% es.Ez (V/m) @ t=0.28
8.946351751072017
% es.tEx (V/m) @ t=0.28
-6.681420870474491
% es.tEy (V/m) @ t=0.28
0
% es.tEz (V/m) @ t=0.28
8.946351751072012
% V (V) @ t=0.28
0.009875448493117042
% es.normE (V/m) @ t=0.3
12.209412318332914
% es.EX (V/m) @ t=0.3
-6.784058703070568
% es.EY (V/m) @ t=0.3
-0.732271000868026
% es.EZ (V/m) @ t=0.3
9.083781591286424
% es.tEX (V/m) @ t=0.3
-6.784058703070578
% es.tEY (V/m) @ t=0.3
0
% es.tEZ (V/m) @ t=0.3
9.083781591286417
% es.Ex (V/m) @ t=0.3
-6.784058703070568
% es.Ey (V/m) @ t=0.3
-0.732271000868026
% es.Ez (V/m) @ t=0.3
9.083781591286424
% es.tEx (V/m) @ t=0.3
-6.784058703070578
% es.tEy (V/m) @ t=0.3
0
% es.tEz (V/m) @ t=0.3
9.083781591286417
% V (V) @ t=0.3
0.01002715053130709
% es.normE (V/m) @ t=0.32
12.394130675100879
% es.EX (V/m) @ t=0.32
-6.886696535666639
% es.EY (V/m) @ t=0.32
-0.7433493663828599
% es.EZ (V/m) @ t=0.32
9.221211431500818
% es.tEX (V/m) @ t=0.32
-6.886696535666644
% es.tEY (V/m) @ t=0.32
0
% es.tEZ (V/m) @ t=0.32
9.221211431500816
% es.Ex (V/m) @ t=0.32
-6.886696535666639
% es.Ey (V/m) @ t=0.32
-0.7433493663828599
% es.Ez (V/m) @ t=0.32
9.221211431500818
% es.tEx (V/m) @ t=0.32
-6.886696535666644
% es.tEy (V/m) @ t=0.32
0
% es.tEz (V/m) @ t=0.32
9.221211431500816
% V (V) @ t=0.32
0.010178852569497137
% es.normE (V/m) @ t=0.34
12.578849031868891
% es.EX (V/m) @ t=0.34
-6.989334368262735
% es.EY (V/m) @ t=0.34
-0.7544277318976724
% es.EZ (V/m) @ t=0.34
9.358641271715207
% es.tEX (V/m) @ t=0.34
-6.989334368262751
% es.tEY (V/m) @ t=0.34
0
% es.tEZ (V/m) @ t=0.34
9.35864127171519
% es.Ex (V/m) @ t=0.34
-6.989334368262735
% es.Ey (V/m) @ t=0.34
-0.7544277318976724
% es.Ez (V/m) @ t=0.34
9.358641271715207
% es.tEx (V/m) @ t=0.34
-6.989334368262751
% es.tEy (V/m) @ t=0.34
0
% es.tEz (V/m) @ t=0.34
9.35864127171519
% V (V) @ t=0.34
0.010330554607687186
% es.normE (V/m) @ t=0.36
12.76356738863697
% es.EX (V/m) @ t=0.36
-7.091972200858802
% es.EY (V/m) @ t=0.36
-0.7655060974125134
% es.EZ (V/m) @ t=0.36
9.496071111929627
% es.tEX (V/m) @ t=0.36
-7.091972200858802
% es.tEY (V/m) @ t=0.36
0
% es.tEZ (V/m) @ t=0.36
9.49607111192962
% es.Ex (V/m) @ t=0.36
-7.091972200858802
% es.Ey (V/m) @ t=0.36
-0.7655060974125134
% es.Ez (V/m) @ t=0.36
9.496071111929627
% es.tEx (V/m) @ t=0.36
-7.091972200858802
% es.tEy (V/m) @ t=0.36
0
% es.tEz (V/m) @ t=0.36
9.49607111192962
% V (V) @ t=0.36
0.01048225664587723
% es.normE (V/m) @ t=0.38
12.948285745405084
% es.EX (V/m) @ t=0.38
-7.194610033454893
% es.EY (V/m) @ t=0.38
-0.7765844629273648
% es.EZ (V/m) @ t=0.38
9.633500952144022
% es.tEX (V/m) @ t=0.38
-7.1946100334549055
% es.tEY (V/m) @ t=0.38
0
% es.tEZ (V/m) @ t=0.38
9.633500952144011
% es.Ex (V/m) @ t=0.38
-7.194610033454893
% es.Ey (V/m) @ t=0.38
-0.7765844629273648
% es.Ez (V/m) @ t=0.38
9.633500952144022
% es.tEx (V/m) @ t=0.38
-7.1946100334549055
% es.tEy (V/m) @ t=0.38
0
% es.tEz (V/m) @ t=0.38
9.633500952144011
% V (V) @ t=0.38
0.010633958684067276
% es.normE (V/m) @ t=0.4
13.13300410217322
% es.EX (V/m) @ t=0.4
-7.297247866050975
% es.EY (V/m) @ t=0.4
-0.7876628284421594
% es.EZ (V/m) @ t=0.4
9.770930792358437
% es.tEX (V/m) @ t=0.4
-7.297247866050988
% es.tEY (V/m) @ t=0.4
0
% es.tEZ (V/m) @ t=0.4
9.770930792358435
% es.Ex (V/m) @ t=0.4
-7.297247866050975
% es.Ey (V/m) @ t=0.4
-0.7876628284421594
% es.Ez (V/m) @ t=0.4
9.770930792358437
% es.tEx (V/m) @ t=0.4
-7.297247866050988
% es.tEy (V/m) @ t=0.4
0
% es.tEz (V/m) @ t=0.4
9.770930792358435
% V (V) @ t=0.4
0.010785660722257328
% es.normE (V/m) @ t=0.42
13.32754104556038
% es.EX (V/m) @ t=0.42
-7.405342247879073
% es.EY (V/m) @ t=0.42
-0.7993296258854392
% es.EZ (V/m) @ t=0.42
9.915665189492005
% es.tEX (V/m) @ t=0.42
-7.405342247879087
% es.tEY (V/m) @ t=0.42
0
% es.tEZ (V/m) @ t=0.42
9.915665189492001
% es.Ex (V/m) @ t=0.42
-7.405342247879073
% es.Ey (V/m) @ t=0.42
-0.7993296258854392
% es.Ez (V/m) @ t=0.42
9.915665189492005
% es.tEx (V/m) @ t=0.42
-7.405342247879087
% es.tEy (V/m) @ t=0.42
0
% es.tEz (V/m) @ t=0.42
9.915665189492001
% V (V) @ t=0.42
0.010945425653577735
% es.normE (V/m) @ t=0.44
13.528489170478741
% es.EX (V/m) @ t=0.44
-7.516999558773843
% es.EY (V/m) @ t=0.44
-0.8113806480708021
% es.EZ (V/m) @ t=0.44
10.065169197795509
% es.tEX (V/m) @ t=0.44
-7.516999558773856
% es.tEY (V/m) @ t=0.44
0
% es.tEZ (V/m) @ t=0.44
10.065169197795495
% es.Ex (V/m) @ t=0.44
-7.516999558773843
% es.Ey (V/m) @ t=0.44
-0.8113806480708021
% es.Ez (V/m) @ t=0.44
10.065169197795509
% es.tEx (V/m) @ t=0.44
-7.516999558773856
% es.tEy (V/m) @ t=0.44
0
% es.tEz (V/m) @ t=0.44
10.065169197795495
% V (V) @ t=0.44
0.011110455362154633
% es.normE (V/m) @ t=0.46
13.729437295397616
% es.EX (V/m) @ t=0.46
-7.628656869668626
% es.EY (V/m) @ t=0.46
-0.8234316702561579
% es.EZ (V/m) @ t=0.46
10.214673206099002
% es.tEX (V/m) @ t=0.46
-7.6286568696686246
% es.tEY (V/m) @ t=0.46
0
% es.tEZ (V/m) @ t=0.46
10.214673206098993
% es.Ex (V/m) @ t=0.46
-7.628656869668626
% es.Ey (V/m) @ t=0.46
-0.8234316702561579
% es.Ez (V/m) @ t=0.46
10.214673206099002
% es.tEx (V/m) @ t=0.46
-7.6286568696686246
% es.tEy (V/m) @ t=0.46
0
% es.tEz (V/m) @ t=0.46
10.214673206098993
% V (V) @ t=0.46
0.011275485070731532
% es.normE (V/m) @ t=0.48
13.930385420316963
% es.EX (V/m) @ t=0.48
-7.740314180563397
% es.EY (V/m) @ t=0.48
-0.8354826924415031
% es.EZ (V/m) @ t=0.48
10.364177214402515
% es.tEX (V/m) @ t=0.48
-7.740314180563418
% es.tEY (V/m) @ t=0.48
0
% es.tEZ (V/m) @ t=0.48
10.364177214402503
% es.Ex (V/m) @ t=0.48
-7.740314180563397
% es.Ey (V/m) @ t=0.48
-0.8354826924415031
% es.Ez (V/m) @ t=0.48
10.364177214402515
% es.tEx (V/m) @ t=0.48
-7.740314180563418
% es.tEy (V/m) @ t=0.48
0
% es.tEz (V/m) @ t=0.48
10.364177214402503
% V (V) @ t=0.48
0.011440514779308427
% es.normE (V/m) @ t=0.5
14.131333545236787
% es.EX (V/m) @ t=0.5
-7.851971491458167
% es.EY (V/m) @ t=0.5
-0.847533714626894
% es.EZ (V/m) @ t=0.5
10.513681222706007
% es.tEX (V/m) @ t=0.5
-7.851971491458187
% es.tEY (V/m) @ t=0.5
0
% es.tEZ (V/m) @ t=0.5
10.513681222706005
% es.Ex (V/m) @ t=0.5
-7.851971491458167
% es.Ey (V/m) @ t=0.5
-0.847533714626894
% es.Ez (V/m) @ t=0.5
10.513681222706007
% es.tEx (V/m) @ t=0.5
-7.851971491458187
% es.tEy (V/m) @ t=0.5
0
% es.tEz (V/m) @ t=0.5
10.513681222706005
% V (V) @ t=0.5
0.011605544487885325
% es.normE (V/m) @ t=0.52
14.332281670157034
% es.EX (V/m) @ t=0.52
-7.963628802352945
% es.EY (V/m) @ t=0.52
-0.8595847368122573
% es.EZ (V/m) @ t=0.52
10.66318523100948
% es.tEX (V/m) @ t=0.52
-7.96362880235295
% es.tEY (V/m) @ t=0.52
0
% es.tEZ (V/m) @ t=0.52
10.663185231009471
% es.Ex (V/m) @ t=0.52
-7.963628802352945
% es.Ey (V/m) @ t=0.52
-0.8595847368122573
% es.Ez (V/m) @ t=0.52
10.66318523100948
% es.tEx (V/m) @ t=0.52
-7.96362880235295
% es.tEy (V/m) @ t=0.52
0
% es.tEz (V/m) @ t=0.52
10.663185231009471
% V (V) @ t=0.52
0.011770574196462224
% es.normE (V/m) @ t=0.54
14.53322979507773
% es.EX (V/m) @ t=0.54
-8.075286113247714
% es.EY (V/m) @ t=0.54
-0.8716357589976238
% es.EZ (V/m) @ t=0.54
10.812689239312993
% es.tEX (V/m) @ t=0.54
-8.075286113247726
% es.tEY (V/m) @ t=0.54
0
% es.tEZ (V/m) @ t=0.54
10.812689239312984
% es.Ex (V/m) @ t=0.54
-8.075286113247714
% es.Ey (V/m) @ t=0.54
-0.8716357589976238
% es.Ez (V/m) @ t=0.54
10.812689239312993
% es.tEx (V/m) @ t=0.54
-8.075286113247726
% es.tEy (V/m) @ t=0.54
0
% es.tEz (V/m) @ t=0.54
10.812689239312984
% V (V) @ t=0.54
0.011935603905039121
% es.normE (V/m) @ t=0.56
14.740416529383346
% es.EX (V/m) @ t=0.56
-8.190401656761972
% es.EY (V/m) @ t=0.56
-0.8840648767850876
% es.EZ (V/m) @ t=0.56
10.96683875623723
% es.tEX (V/m) @ t=0.56
-8.190401656761985
% es.tEY (V/m) @ t=0.56
0
% es.tEZ (V/m) @ t=0.56
10.966838756237216
% es.Ex (V/m) @ t=0.56
-8.190401656761972
% es.Ey (V/m) @ t=0.56
-0.8840648767850876
% es.Ez (V/m) @ t=0.56
10.96683875623723
% es.tEx (V/m) @ t=0.56
-8.190401656761985
% es.tEy (V/m) @ t=0.56
0
% es.tEz (V/m) @ t=0.56
10.966838756237216
% V (V) @ t=0.56
0.012105763826201233
% es.normE (V/m) @ t=0.58
14.950900270747669
% es.EX (V/m) @ t=0.58
-8.30734482188528
% es.EY (V/m) @ t=0.58
-0.8966938121581913
% es.EZ (V/m) @ t=0.58
11.123443351484655
% es.tEX (V/m) @ t=0.58
-8.3073448218853
% es.tEY (V/m) @ t=0.58
0
% es.tEZ (V/m) @ t=0.58
11.123443351484644
% es.Ex (V/m) @ t=0.58
-8.30734482188528
% es.Ey (V/m) @ t=0.58
-0.8966938121581913
% es.Ez (V/m) @ t=0.58
11.123443351484655
% es.tEx (V/m) @ t=0.58
-8.3073448218853
% es.tEy (V/m) @ t=0.58
0
% es.tEz (V/m) @ t=0.58
11.123443351484644
% V (V) @ t=0.58
0.012278634984116797
% es.normE (V/m) @ t=0.6
15.163409650727601
% es.EX (V/m) @ t=0.6
-8.425410854147206
% es.EY (V/m) @ t=0.6
-0.9094455128781886
% es.EZ (V/m) @ t=0.6
11.281556315181078
% es.tEX (V/m) @ t=0.6
-8.425410854147227
% es.tEY (V/m) @ t=0.6
0
% es.tEZ (V/m) @ t=0.6
11.281556315181067
% es.Ex (V/m) @ t=0.6
-8.425410854147206
% es.Ey (V/m) @ t=0.6
-0.9094455128781886
% es.Ez (V/m) @ t=0.6
11.281556315181078
% es.tEx (V/m) @ t=0.6
-8.425410854147227
% es.tEy (V/m) @ t=0.6
0
% es.tEz (V/m) @ t=0.6
11.281556315181067
% V (V) @ t=0.6
0.012453171890916246
% es.normE (V/m) @ t=0.62
15.377944669333498
% es.EX (V/m) @ t=0.62
-8.544599753547796
% es.EY (V/m) @ t=0.62
-0.9223199789449166
% es.EZ (V/m) @ t=0.62
11.441177647326441
% es.tEX (V/m) @ t=0.62
-8.544599753547816
% es.tEY (V/m) @ t=0.62
0
% es.tEZ (V/m) @ t=0.62
11.441177647326423
% es.Ex (V/m) @ t=0.62
-8.544599753547796
% es.Ey (V/m) @ t=0.62
-0.9223199789449166
% es.Ez (V/m) @ t=0.62
11.441177647326441
% es.tEx (V/m) @ t=0.62
-8.544599753547816
% es.tEy (V/m) @ t=0.62
0
% es.tEz (V/m) @ t=0.62
11.441177647326423
% V (V) @ t=0.62
0.012629374546599586
% es.normE (V/m) @ t=0.64
15.594505326577462
% es.EX (V/m) @ t=0.64
-8.664911520087
% es.EY (V/m) @ t=0.64
-0.93531721035842
% es.EZ (V/m) @ t=0.64
11.602307347920812
% es.tEX (V/m) @ t=0.64
-8.664911520087012
% es.tEY (V/m) @ t=0.64
0
% es.tEZ (V/m) @ t=0.64
11.602307347920803
% es.Ex (V/m) @ t=0.64
-8.664911520087
% es.Ey (V/m) @ t=0.64
-0.93531721035842
% es.Ez (V/m) @ t=0.64
11.602307347920812
% es.tEx (V/m) @ t=0.64
-8.664911520087012
% es.tEy (V/m) @ t=0.64
0
% es.tEz (V/m) @ t=0.64
11.602307347920803
% V (V) @ t=0.64
0.012807242951166808
% es.normE (V/m) @ t=0.66
15.813091622472989
% es.EX (V/m) @ t=0.66
-8.786346153764823
% es.EY (V/m) @ t=0.66
-0.9484372071187837
% es.EZ (V/m) @ t=0.66
11.764945416964164
% es.tEX (V/m) @ t=0.66
-8.786346153764836
% es.tEY (V/m) @ t=0.66
0
% es.tEZ (V/m) @ t=0.66
11.764945416964157
% es.Ex (V/m) @ t=0.66
-8.786346153764823
% es.Ey (V/m) @ t=0.66
-0.9484372071187837
% es.Ez (V/m) @ t=0.66
11.764945416964164
% es.tEx (V/m) @ t=0.66
-8.786346153764836
% es.tEy (V/m) @ t=0.66
0
% es.tEz (V/m) @ t=0.66
11.764945416964157
% V (V) @ t=0.66
0.012986777104617922
% es.normE (V/m) @ t=0.68
16.033703557035103
% es.EX (V/m) @ t=0.68
-8.908903654581275
% es.EY (V/m) @ t=0.68
-0.9616799692259357
% es.EZ (V/m) @ t=0.68
11.92909185445653
% es.tEX (V/m) @ t=0.68
-8.908903654581295
% es.tEY (V/m) @ t=0.68
0
% es.tEZ (V/m) @ t=0.68
11.929091854456514
% es.Ex (V/m) @ t=0.68
-8.908903654581275
% es.Ey (V/m) @ t=0.68
-0.9616799692259357
% es.Ez (V/m) @ t=0.68
11.92909185445653
% es.tEx (V/m) @ t=0.68
-8.908903654581295
% es.tEy (V/m) @ t=0.68
0
% es.tEz (V/m) @ t=0.68
11.929091854456514
% V (V) @ t=0.68
0.013167977006952922
% es.normE (V/m) @ t=0.7
16.256341130279928
% es.EX (V/m) @ t=0.7
-9.03258402253637
% es.EY (V/m) @ t=0.7
-0.9750454966798596
% es.EZ (V/m) @ t=0.7
12.094746660397858
% es.tEX (V/m) @ t=0.7
-9.032584022536374
% es.tEY (V/m) @ t=0.7
0
% es.tEZ (V/m) @ t=0.7
12.094746660397838
% es.Ex (V/m) @ t=0.7
-9.03258402253637
% es.Ey (V/m) @ t=0.7
-0.9750454966798596
% es.Ez (V/m) @ t=0.7
12.094746660397858
% es.tEx (V/m) @ t=0.7
-9.032584022536374
% es.tEy (V/m) @ t=0.7
0
% es.tEz (V/m) @ t=0.7
12.094746660397838
% V (V) @ t=0.7
0.01335084265817181
% es.normE (V/m) @ t=0.72
16.481004342224885
% es.EX (V/m) @ t=0.72
-9.157387257630058
% es.EY (V/m) @ t=0.72
-0.9885337894806328
% es.EZ (V/m) @ t=0.72
12.26190983478818
% es.tEX (V/m) @ t=0.72
-9.157387257630084
% es.tEY (V/m) @ t=0.72
0
% es.tEZ (V/m) @ t=0.72
12.261909834788156
% es.Ex (V/m) @ t=0.72
-9.157387257630058
% es.Ey (V/m) @ t=0.72
-0.9885337894806328
% es.Ez (V/m) @ t=0.72
12.26190983478818
% es.tEx (V/m) @ t=0.72
-9.157387257630084
% es.tEy (V/m) @ t=0.72
0
% es.tEz (V/m) @ t=0.72
12.261909834788156
% V (V) @ t=0.72
0.013535374058274575
% es.normE (V/m) @ t=0.74
16.70769319288837
% es.EX (V/m) @ t=0.74
-9.283313359862392
% es.EY (V/m) @ t=0.74
-1.002144847628156
% es.EZ (V/m) @ t=0.74
12.430581377627465
% es.tEX (V/m) @ t=0.74
-9.283313359862404
% es.tEY (V/m) @ t=0.74
0
% es.tEZ (V/m) @ t=0.74
12.430581377627439
% es.Ex (V/m) @ t=0.74
-9.283313359862392
% es.Ey (V/m) @ t=0.74
-1.002144847628156
% es.Ez (V/m) @ t=0.74
12.430581377627465
% es.tEx (V/m) @ t=0.74
-9.283313359862404
% es.tEy (V/m) @ t=0.74
0
% es.tEz (V/m) @ t=0.74
12.430581377627439
% V (V) @ t=0.74
0.01372157120726124
% es.normE (V/m) @ t=0.76
16.936407682289904
% es.EX (V/m) @ t=0.76
-9.410362329233363
% es.EY (V/m) @ t=0.76
-1.0158786711225112
% es.EZ (V/m) @ t=0.76
12.600761288915768
% es.tEX (V/m) @ t=0.76
-9.410362329233369
% es.tEY (V/m) @ t=0.76
0
% es.tEZ (V/m) @ t=0.76
12.600761288915749
% es.Ex (V/m) @ t=0.76
-9.410362329233363
% es.Ey (V/m) @ t=0.76
-1.0158786711225112
% es.Ez (V/m) @ t=0.76
12.600761288915768
% es.tEx (V/m) @ t=0.76
-9.410362329233369
% es.tEy (V/m) @ t=0.76
0
% es.tEz (V/m) @ t=0.76
12.600761288915749
% V (V) @ t=0.76
0.013909434105131785
% es.normE (V/m) @ t=0.78
17.16714781044969
% es.EX (V/m) @ t=0.78
-9.53853416574292
% es.EY (V/m) @ t=0.78
-1.0297352599637115
% es.EZ (V/m) @ t=0.78
12.772449568653048
% es.tEX (V/m) @ t=0.78
-9.53853416574294
% es.tEY (V/m) @ t=0.78
0
% es.tEZ (V/m) @ t=0.78
12.772449568653034
% es.Ex (V/m) @ t=0.78
-9.53853416574292
% es.Ey (V/m) @ t=0.78
-1.0297352599637115
% es.Ez (V/m) @ t=0.78
12.772449568653048
% es.tEx (V/m) @ t=0.78
-9.53853416574294
% es.tEy (V/m) @ t=0.78
0
% es.tEz (V/m) @ t=0.78
12.772449568653034
% V (V) @ t=0.78
0.014098962751886221
% es.normE (V/m) @ t=0.8
17.39991357738895
% es.EX (V/m) @ t=0.8
-9.66782886939113
% es.EY (V/m) @ t=0.8
-1.0437146141516553
% es.EZ (V/m) @ t=0.8
12.945646216839322
% es.tEX (V/m) @ t=0.8
-9.66782886939115
% es.tEY (V/m) @ t=0.8
0
% es.tEZ (V/m) @ t=0.8
12.945646216839304
% es.Ex (V/m) @ t=0.8
-9.66782886939113
% es.Ey (V/m) @ t=0.8
-1.0437146141516553
% es.Ez (V/m) @ t=0.8
12.945646216839322
% es.tEx (V/m) @ t=0.8
-9.66782886939115
% es.tEy (V/m) @ t=0.8
0
% es.tEz (V/m) @ t=0.8
12.945646216839304
% V (V) @ t=0.8
0.014290157147524542
% es.normE (V/m) @ t=0.82
17.63554021766779
% es.EX (V/m) @ t=0.82
-9.79872369478702
% es.EY (V/m) @ t=0.82
-1.057860519564065
% es.EZ (V/m) @ t=0.82
13.120966234319562
% es.tEX (V/m) @ t=0.82
-9.798723694787032
% es.tEY (V/m) @ t=0.82
0
% es.tEZ (V/m) @ t=0.82
13.120966234319548
% es.Ex (V/m) @ t=0.82
-9.79872369478702
% es.Ey (V/m) @ t=0.82
-1.057860519564065
% es.Ez (V/m) @ t=0.82
13.120966234319562
% es.tEx (V/m) @ t=0.82
-9.798723694787032
% es.tEy (V/m) @ t=0.82
0
% es.tEz (V/m) @ t=0.82
13.120966234319548
% V (V) @ t=0.82
0.014483692534503314
% es.normE (V/m) @ t=0.84
17.8764909989697
% es.EX (V/m) @ t=0.84
-9.932626157805393
% es.EY (V/m) @ t=0.84
-1.0723021091976719
% es.EZ (V/m) @ t=0.84
13.300223377181034
% es.tEX (V/m) @ t=0.84
-9.932626157805405
% es.tEY (V/m) @ t=0.84
0
% es.tEZ (V/m) @ t=0.84
13.300223377181029
% es.Ex (V/m) @ t=0.84
-9.932626157805393
% es.Ey (V/m) @ t=0.84
-1.0723021091976719
% es.Ez (V/m) @ t=0.84
13.300223377181034
% es.tEx (V/m) @ t=0.84
-9.932626157805405
% es.tEy (V/m) @ t=0.84
0
% es.tEz (V/m) @ t=0.84
13.300223377181029
% V (V) @ t=0.84
0.01468156033303912
% es.normE (V/m) @ t=0.86
18.120017489255517
% es.EX (V/m) @ t=0.86
-10.067965799135024
% es.EY (V/m) @ t=0.86
-1.0868953007577304
% es.EZ (V/m) @ t=0.86
13.481393916820368
% es.tEX (V/m) @ t=0.86
-10.06796579913503
% es.tEY (V/m) @ t=0.86
0
% es.tEZ (V/m) @ t=0.86
13.48139391682035
% es.Ex (V/m) @ t=0.86
-10.067965799135024
% es.Ey (V/m) @ t=0.86
-1.0868953007577304
% es.Ez (V/m) @ t=0.86
13.481393916820368
% es.tEx (V/m) @ t=0.86
-10.06796579913503
% es.tEy (V/m) @ t=0.86
0
% es.tEz (V/m) @ t=0.86
13.48139391682035
% V (V) @ t=0.86
0.014881538582813275
% es.normE (V/m) @ t=0.88
18.366119688571118
% es.EX (V/m) @ t=0.88
-10.204742618775878
% es.EY (V/m) @ t=0.88
-1.1016400942442357
% es.EZ (V/m) @ t=0.88
13.664477853237553
% es.tEX (V/m) @ t=0.88
-10.20474261877589
% es.tEY (V/m) @ t=0.88
0
% es.tEZ (V/m) @ t=0.88
13.664477853237535
% es.Ex (V/m) @ t=0.88
-10.204742618775878
% es.Ey (V/m) @ t=0.88
-1.1016400942442357
% es.Ez (V/m) @ t=0.88
13.664477853237553
% es.tEx (V/m) @ t=0.88
-10.20474261877589
% es.tEy (V/m) @ t=0.88
0
% es.tEz (V/m) @ t=0.88
13.664477853237535
% V (V) @ t=0.88
0.015083627283825786
% es.normE (V/m) @ t=0.9
18.61479759696956
% es.EX (V/m) @ t=0.9
-10.342956616727989
% es.EY (V/m) @ t=0.9
-1.116536489657224
% es.EZ (V/m) @ t=0.9
13.849475186432617
% es.tEX (V/m) @ t=0.9
-10.34295661672802
% es.tEY (V/m) @ t=0.9
0
% es.tEZ (V/m) @ t=0.9
13.849475186432594
% es.Ex (V/m) @ t=0.9
-10.342956616727989
% es.Ey (V/m) @ t=0.9
-1.116536489657224
% es.Ez (V/m) @ t=0.9
13.849475186432617
% es.tEx (V/m) @ t=0.9
-10.34295661672802
% es.tEy (V/m) @ t=0.9
0
% es.tEz (V/m) @ t=0.9
13.849475186432594
% V (V) @ t=0.9
0.015287826436076646
% es.normE (V/m) @ t=0.92
18.866051214510414
% es.EX (V/m) @ t=0.92
-10.482607792991379
% es.EY (V/m) @ t=0.92
-1.1315844869966067
% es.EZ (V/m) @ t=0.92
14.036385916405525
% es.tEX (V/m) @ t=0.92
-10.482607792991391
% es.tEY (V/m) @ t=0.92
0
% es.tEZ (V/m) @ t=0.92
14.036385916405504
% es.Ex (V/m) @ t=0.92
-10.482607792991379
% es.Ey (V/m) @ t=0.92
-1.1315844869966067
% es.Ez (V/m) @ t=0.92
14.036385916405525
% es.tEx (V/m) @ t=0.92
-10.482607792991391
% es.tEy (V/m) @ t=0.92
0
% es.tEz (V/m) @ t=0.92
14.036385916405504
% V (V) @ t=0.92
0.015494136039565856
% es.normE (V/m) @ t=0.94
19.11988054125928
% es.EX (V/m) @ t=0.94
-10.623696147565973
% es.EY (V/m) @ t=0.94
-1.146784086262472
% es.EZ (V/m) @ t=0.94
14.225210043156304
% es.tEX (V/m) @ t=0.94
-10.623696147565985
% es.tEY (V/m) @ t=0.94
0
% es.tEZ (V/m) @ t=0.94
14.225210043156286
% es.Ex (V/m) @ t=0.94
-10.623696147565973
% es.Ey (V/m) @ t=0.94
-1.146784086262472
% es.Ez (V/m) @ t=0.94
14.225210043156304
% es.tEx (V/m) @ t=0.94
-10.623696147565985
% es.tEy (V/m) @ t=0.94
0
% es.tEz (V/m) @ t=0.94
14.225210043156286
% V (V) @ t=0.94
0.01570255609429342
% es.normE (V/m) @ t=0.96
19.37628557728743
% es.EX (V/m) @ t=0.96
-10.766221680451856
% es.EY (V/m) @ t=0.96
-1.1621352874548334
% es.EZ (V/m) @ t=0.96
14.41594756668496
% es.tEX (V/m) @ t=0.96
-10.766221680451867
% es.tEY (V/m) @ t=0.96
0
% es.tEZ (V/m) @ t=0.96
14.41594756668494
% es.Ex (V/m) @ t=0.96
-10.766221680451856
% es.Ey (V/m) @ t=0.96
-1.1621352874548334
% es.Ez (V/m) @ t=0.96
14.41594756668496
% es.tEx (V/m) @ t=0.96
-10.766221680451867
% es.tEy (V/m) @ t=0.96
0
% es.tEz (V/m) @ t=0.96
14.41594756668494
% V (V) @ t=0.96
0.01591308660025934
% es.normE (V/m) @ t=0.98
19.63526632267112
% es.EX (V/m) @ t=0.98
-10.910184391648977
% es.EY (V/m) @ t=0.98
-1.1776380905735553
% es.EZ (V/m) @ t=0.98
14.608598486991484
% es.tEX (V/m) @ t=0.98
-10.910184391648997
% es.tEY (V/m) @ t=0.98
0
% es.tEZ (V/m) @ t=0.98
14.608598486991474
% es.Ex (V/m) @ t=0.98
-10.910184391648977
% es.Ey (V/m) @ t=0.98
-1.1776380905735553
% es.Ez (V/m) @ t=0.98
14.608598486991484
% es.tEx (V/m) @ t=0.98
-10.910184391648997
% es.tEy (V/m) @ t=0.98
0
% es.tEz (V/m) @ t=0.98
14.608598486991474
% V (V) @ t=0.98
0.01612572755746361
% es.normE (V/m) @ t=1
19.896822777491394
% es.EX (V/m) @ t=1
-11.055584281157332
% es.EY (V/m) @ t=1
-1.1932924956187616
% es.EZ (V/m) @ t=1
14.803162804075855
% es.tEX (V/m) @ t=1
-11.055584281157344
% es.tEY (V/m) @ t=1
0
% es.tEZ (V/m) @ t=1
14.80316280407584
% es.Ex (V/m) @ t=1
-11.055584281157332
% es.Ey (V/m) @ t=1
-1.1932924956187616
% es.Ez (V/m) @ t=1
14.803162804075855
% es.tEx (V/m) @ t=1
-11.055584281157344
% es.tEy (V/m) @ t=1
0
% es.tEz (V/m) @ t=1
14.80316280407584
% V (V) @ t=1
0.016340478965906225
% es.normE (V/m) @ t=1.02
20.160954941833598
% es.EX (V/m) @ t=1.02
-11.202421348976978
% es.EY (V/m) @ t=1.02
-1.2090985025904342
% es.EZ (V/m) @ t=1.02
14.99964051793811
% es.tEX (V/m) @ t=1.02
-11.202421348976982
% es.tEY (V/m) @ t=1.02
0
% es.tEZ (V/m) @ t=1.02
14.99964051793808
% es.Ex (V/m) @ t=1.02
-11.202421348976978
% es.Ey (V/m) @ t=1.02
-1.2090985025904342
% es.Ez (V/m) @ t=1.02
14.99964051793811
% es.tEx (V/m) @ t=1.02
-11.202421348976982
% es.tEy (V/m) @ t=1.02
0
% es.tEz (V/m) @ t=1.02
14.99964051793808
% V (V) @ t=1.02
0.0165573408255872
% es.normE (V/m) @ t=1.04
20.427662815786917
% es.EX (V/m) @ t=1.04
-11.35069559510785
% es.EY (V/m) @ t=1.04
-1.2250561114885503
% es.EZ (V/m) @ t=1.04
15.198031628578244
% es.tEX (V/m) @ t=1.04
-11.350695595107853
% es.tEY (V/m) @ t=1.04
0
% es.tEZ (V/m) @ t=1.04
15.198031628578217
% es.Ex (V/m) @ t=1.04
-11.35069559510785
% es.Ey (V/m) @ t=1.04
-1.2250561114885503
% es.Ez (V/m) @ t=1.04
15.198031628578244
% es.tEx (V/m) @ t=1.04
-11.350695595107853