% Model:              1 neuron.mph
% Version:            COMSOL 6.0.0.405
% Date:               Mar 16 2023, 18:55
% Dimension:          0
% Nodes:              14017
% Expressions:        14017
% Description:        Electric field norm, Electric field, X component, Electric field, Y component, Electric field, Z component, Tangential electric field, X component, Tangential electric field, Y component, Tangential electric field, Z component, Electric field, x component, Electric field, y component, Electric field, z component, Tangential electric field, x component, Tangential electric field, y component, Tangential electric field, z component, Electric potential
% Length unit:        mm
% x
1.66
% y
12.2
% z
2
% es.normE (V/m) @ t=0
2.1977757344331748
% es.EX (V/m) @ t=0
-0.6556423036891954
% es.EY (V/m) @ t=0
0.0489732383297867
% es.EZ (V/m) @ t=0
-2.0936009038015184
% es.tEX (V/m) @ t=0
-0.6556423036892021
% es.tEY (V/m) @ t=0
0
% es.tEZ (V/m) @ t=0
-2.093600903801538
% es.Ex (V/m) @ t=0
-0.6556423036891954
% es.Ey (V/m) @ t=0
0.0489732383297867
% es.Ez (V/m) @ t=0
-2.0936009038015184
% es.tEx (V/m) @ t=0
-0.6556423036892021
% es.tEy (V/m) @ t=0
0
% es.tEz (V/m) @ t=0
-2.093600903801538
% V (V) @ t=0
0.011046942410613776
% es.normE (V/m) @ t=0.02
1.9087885517807017
% es.EX (V/m) @ t=0.02
-0.5694314183214074
% es.EY (V/m) @ t=0.02
0.04253373667336548
% es.EZ (V/m) @ t=0.02
-1.8183117422888295
% es.tEX (V/m) @ t=0.02
-0.5694314183214217
% es.tEY (V/m) @ t=0.02
0
% es.tEZ (V/m) @ t=0.02
-1.8183117422888522
% es.Ex (V/m) @ t=0.02
-0.5694314183214074
% es.Ey (V/m) @ t=0.02
0.04253373667336548
% es.Ez (V/m) @ t=0.02
-1.8183117422888295
% es.tEx (V/m) @ t=0.02
-0.5694314183214217
% es.tEy (V/m) @ t=0.02
0
% es.tEz (V/m) @ t=0.02
-1.8183117422888522
% V (V) @ t=0.02
0.009594370646464486
% es.normE (V/m) @ t=0.04
1.9370954599880106
% es.EX (V/m) @ t=0.04
-0.5778759813446825
% es.EY (V/m) @ t=0.04
0.04316454473683273
% es.EZ (V/m) @ t=0.04
-1.8452768905676602
% es.tEX (V/m) @ t=0.04
-0.5778759813446896
% es.tEY (V/m) @ t=0.04
0
% es.tEZ (V/m) @ t=0.04
-1.8452768905676749
% es.Ex (V/m) @ t=0.04
-0.5778759813446825
% es.Ey (V/m) @ t=0.04
0.04316454473683273
% es.Ez (V/m) @ t=0.04
-1.8452768905676602
% es.tEx (V/m) @ t=0.04
-0.5778759813446896
% es.tEy (V/m) @ t=0.04
0
% es.tEz (V/m) @ t=0.04
-1.8452768905676749
% V (V) @ t=0.04
0.009736651400625539
% es.normE (V/m) @ t=0.06
1.9658225643370968
% es.EX (V/m) @ t=0.06
-0.5864458626203493
% es.EY (V/m) @ t=0.06
0.043804649261668854
% es.EZ (V/m) @ t=0.06
-1.8726423319191556
% es.tEX (V/m) @ t=0.06
-0.5864458626203586
% es.tEY (V/m) @ t=0.06
0
% es.tEZ (V/m) @ t=0.06
-1.8726423319191845
% es.Ex (V/m) @ t=0.06
-0.5864458626203493
% es.Ey (V/m) @ t=0.06
0.043804649261668854
% es.Ez (V/m) @ t=0.06
-1.8726423319191556
% es.tEx (V/m) @ t=0.06
-0.5864458626203586
% es.tEy (V/m) @ t=0.06
0
% es.tEz (V/m) @ t=0.06
-1.8726423319191845
% V (V) @ t=0.06
0.009881046795228113
% es.normE (V/m) @ t=0.08
1.9952933399961337
% es.EX (V/m) @ t=0.08
-0.595237612753222
% es.EY (V/m) @ t=0.08
0.04446135609793207
% es.EZ (V/m) @ t=0.08
-1.9007161878539343
% es.tEX (V/m) @ t=0.08
-0.5952376127532233
% es.tEY (V/m) @ t=0.08
0
% es.tEZ (V/m) @ t=0.08
-1.900716187853953
% es.Ex (V/m) @ t=0.08
-0.595237612753222
% es.Ey (V/m) @ t=0.08
0.04446135609793207
% es.Ez (V/m) @ t=0.08
-1.9007161878539343
% es.tEx (V/m) @ t=0.08
-0.5952376127532233
% es.tEy (V/m) @ t=0.08
0
% es.tEz (V/m) @ t=0.08
-1.900716187853953
% V (V) @ t=0.08
0.01002917901061063
% es.normE (V/m) @ t=0.1
2.0252605091442284
% es.EX (V/m) @ t=0.1
-0.6041774582269641
% es.EY (V/m) @ t=0.1
0.04512914481831462
% es.EZ (V/m) @ t=0.1
-1.9292629037498141
% es.tEX (V/m) @ t=0.1
-0.6041774582269746
% es.tEY (V/m) @ t=0.1
0
% es.tEZ (V/m) @ t=0.1
-1.9292629037498301
% es.Ex (V/m) @ t=0.1
-0.6041774582269641
% es.Ey (V/m) @ t=0.1
0.04512914481831462
% es.Ez (V/m) @ t=0.1
-1.9292629037498141
% es.tEx (V/m) @ t=0.1
-0.6041774582269746
% es.tEy (V/m) @ t=0.1
0
% es.tEz (V/m) @ t=0.1
-1.9292629037498301
% V (V) @ t=0.1
0.010179805518135585
% es.normE (V/m) @ t=0.12
2.0552276782922956
% es.EX (V/m) @ t=0.12
-0.6131173037007027
% es.EY (V/m) @ t=0.12
0.04579693353870272
% es.EZ (V/m) @ t=0.12
-1.9578096196456656
% es.tEX (V/m) @ t=0.12
-0.6131173037007116
% es.tEY (V/m) @ t=0.12
0
% es.tEZ (V/m) @ t=0.12
-1.957809619645687
% es.Ex (V/m) @ t=0.12
-0.6131173037007027
% es.Ey (V/m) @ t=0.12
0.04579693353870272
% es.Ez (V/m) @ t=0.12
-1.9578096196456656
% es.tEx (V/m) @ t=0.12
-0.6131173037007116
% es.tEy (V/m) @ t=0.12
0
% es.tEz (V/m) @ t=0.12
-1.957809619645687
% V (V) @ t=0.12
0.010330432025660537
% es.normE (V/m) @ t=0.14
2.085757278709461
% es.EX (V/m) @ t=0.14
-0.6222249487042268
% es.EY (V/m) @ t=0.14
0.04647728274355187
% es.EZ (V/m) @ t=0.14
-1.986892101562701
% es.tEX (V/m) @ t=0.14
-0.6222249487042291
% es.tEY (V/m) @ t=0.14
0
% es.tEZ (V/m) @ t=0.14
-1.9868921015627103
% es.Ex (V/m) @ t=0.14
-0.6222249487042268
% es.Ey (V/m) @ t=0.14
0.04647728274355187
% es.Ez (V/m) @ t=0.14
-1.986892101562701
% es.tEx (V/m) @ t=0.14
-0.6222249487042291
% es.tEy (V/m) @ t=0.14
0
% es.tEz (V/m) @ t=0.14
-1.9868921015627103
% V (V) @ t=0.14
0.010483884485863513
% es.normE (V/m) @ t=0.16
2.118411137371851
% es.EX (V/m) @ t=0.16
-0.6319663592081491
% es.EY (V/m) @ t=0.16
0.04720507190084848
% es.EZ (V/m) @ t=0.16
-2.0179981292008486
% es.tEX (V/m) @ t=0.16
-0.6319663592081532
% es.tEY (V/m) @ t=0.16
0
% es.tEZ (V/m) @ t=0.16
-2.0179981292008673
% es.Ex (V/m) @ t=0.16
-0.6319663592081491
% es.Ey (V/m) @ t=0.16
0.04720507190084848
% es.Ez (V/m) @ t=0.16
-2.0179981292008486
% es.tEx (V/m) @ t=0.16
-0.6319663592081532
% es.tEy (V/m) @ t=0.16
0
% es.tEz (V/m) @ t=0.16
-2.0179981292008673
% V (V) @ t=0.16
0.010648010344945736
% es.normE (V/m) @ t=0.18
2.1510649960342656
% es.EX (V/m) @ t=0.18
-0.6417077697120692
% es.EY (V/m) @ t=0.18
0.047932861058143636
% es.EZ (V/m) @ t=0.18
-2.0491041568390047
% es.tEX (V/m) @ t=0.18
-0.6417077697120739
% es.tEY (V/m) @ t=0.18
0
% es.tEZ (V/m) @ t=0.18
-2.0491041568390163
% es.Ex (V/m) @ t=0.18
-0.6417077697120692
% es.Ey (V/m) @ t=0.18
0.047932861058143636
% es.Ez (V/m) @ t=0.18
-2.0491041568390047
% es.tEx (V/m) @ t=0.18
-0.6417077697120739
% es.tEy (V/m) @ t=0.18
0
% es.tEz (V/m) @ t=0.18
-2.0491041568390163
% V (V) @ t=0.18
0.010812136204027958
% es.normE (V/m) @ t=0.2
2.1837188546966972
% es.EX (V/m) @ t=0.2
-0.6514491802159879
% es.EY (V/m) @ t=0.2
0.04866065021544187
% es.EZ (V/m) @ t=0.2
-2.0802101844771608
% es.tEX (V/m) @ t=0.2
-0.6514491802159945
% es.tEY (V/m) @ t=0.2
0
% es.tEZ (V/m) @ t=0.2
-2.0802101844771785
% es.Ex (V/m) @ t=0.2
-0.6514491802159879
% es.Ey (V/m) @ t=0.2
0.04866065021544187
% es.Ez (V/m) @ t=0.2
-2.0802101844771608
% es.tEx (V/m) @ t=0.2
-0.6514491802159945
% es.tEy (V/m) @ t=0.2
0
% es.tEz (V/m) @ t=0.2
-2.0802101844771785
% V (V) @ t=0.2
0.01097626206311018
% es.normE (V/m) @ t=0.22
2.216372713359143
% es.EX (V/m) @ t=0.22
-0.6611905907199063
% es.EY (V/m) @ t=0.22
0.049388439372731685
% es.EZ (V/m) @ t=0.22
-2.111316212115317
% es.tEX (V/m) @ t=0.22
-0.661190590719908
% es.tEY (V/m) @ t=0.22
0
% es.tEZ (V/m) @ t=0.22
-2.1113162121153293
% es.Ex (V/m) @ t=0.22
-0.6611905907199063
% es.Ey (V/m) @ t=0.22
0.049388439372731685
% es.Ez (V/m) @ t=0.22
-2.111316212115317
% es.tEx (V/m) @ t=0.22
-0.661190590719908
% es.tEy (V/m) @ t=0.22
0
% es.tEz (V/m) @ t=0.22
-2.1113162121153293
% V (V) @ t=0.22
0.011140387922192402
% es.normE (V/m) @ t=0.24
2.249026572021611
% es.EX (V/m) @ t=0.24
-0.6709320012238266
% es.EY (V/m) @ t=0.24
0.05011622853002125
% es.EZ (V/m) @ t=0.24
-2.142422239753479
% es.tEX (V/m) @ t=0.24
-0.6709320012238322
% es.tEY (V/m) @ t=0.24
0
% es.tEZ (V/m) @ t=0.24
-2.1424222397534924
% es.Ex (V/m) @ t=0.24
-0.6709320012238266
% es.Ey (V/m) @ t=0.24
0.05011622853002125
% es.Ez (V/m) @ t=0.24
-2.142422239753479
% es.tEx (V/m) @ t=0.24
-0.6709320012238322
% es.tEy (V/m) @ t=0.24
0
% es.tEz (V/m) @ t=0.24
-2.1424222397534924
% V (V) @ t=0.24
0.011304513781274624
% es.normE (V/m) @ t=0.26
2.281680430684087
% es.EX (V/m) @ t=0.26
-0.6806734117277469
% es.EY (V/m) @ t=0.26
0.050844017687310575
% es.EZ (V/m) @ t=0.26
-2.1735282673916343
% es.tEX (V/m) @ t=0.26
-0.6806734117277458
% es.tEY (V/m) @ t=0.26
0
% es.tEZ (V/m) @ t=0.26
-2.1735282673916476
% es.Ex (V/m) @ t=0.26
-0.6806734117277469
% es.Ey (V/m) @ t=0.26
0.050844017687310575
% es.Ez (V/m) @ t=0.26
-2.1735282673916343
% es.tEx (V/m) @ t=0.26
-0.6806734117277458
% es.tEy (V/m) @ t=0.26
0
% es.tEz (V/m) @ t=0.26
-2.1735282673916476
% V (V) @ t=0.26
0.011468639640356847
% es.normE (V/m) @ t=0.28
2.315577235494562
% es.EX (V/m) @ t=0.28
-0.6907855882296117
% es.EY (V/m) @ t=0.28
0.05159944485080477
% es.EZ (V/m) @ t=0.28
-2.2058183379260665
% es.tEX (V/m) @ t=0.28
-0.6907855882296161
% es.tEY (V/m) @ t=0.28
0
% es.tEZ (V/m) @ t=0.28
-2.205818337926088
% es.Ex (V/m) @ t=0.28
-0.6907855882296117
% es.Ey (V/m) @ t=0.28
0.05159944485080477
% es.Ez (V/m) @ t=0.28
-2.2058183379260665
% es.tEx (V/m) @ t=0.28
-0.6907855882296161
% es.tEy (V/m) @ t=0.28
0
% es.tEz (V/m) @ t=0.28
-2.205818337926088
% V (V) @ t=0.28
0.01163901531008829
% es.normE (V/m) @ t=0.3
2.351131024111624
% es.EX (V/m) @ t=0.3
-0.7013920365513879
% es.EY (V/m) @ t=0.3
0.05239171651381004
% es.EZ (V/m) @ t=0.3
-2.2396868677594926
% es.tEX (V/m) @ t=0.3
-0.7013920365513968
% es.tEY (V/m) @ t=0.3
0
% es.tEZ (V/m) @ t=0.3
-2.2396868677595183
% es.Ex (V/m) @ t=0.3
-0.7013920365513879
% es.Ey (V/m) @ t=0.3
0.05239171651381004
% es.Ez (V/m) @ t=0.3
-2.2396868677594926
% es.tEx (V/m) @ t=0.3
-0.7013920365513968
% es.tEy (V/m) @ t=0.3
0
% es.tEz (V/m) @ t=0.3
-2.2396868677595183
% V (V) @ t=0.3
0.011817722664226682
% es.normE (V/m) @ t=0.32
2.386684812728655
% es.EX (V/m) @ t=0.32
-0.7119984848731491
% es.EY (V/m) @ t=0.32
0.053183988176813954
% es.EZ (V/m) @ t=0.32
-2.2735553975928893
% es.tEX (V/m) @ t=0.32
-0.7119984848731633
% es.tEY (V/m) @ t=0.32
0
% es.tEZ (V/m) @ t=0.32
-2.2735553975929115
% es.Ex (V/m) @ t=0.32
-0.7119984848731491
% es.Ey (V/m) @ t=0.32
0.053183988176813954
% es.Ez (V/m) @ t=0.32
-2.2735553975928893
% es.tEx (V/m) @ t=0.32
-0.7119984848731633
% es.tEy (V/m) @ t=0.32
0
% es.tEz (V/m) @ t=0.32
-2.2735553975929115
% V (V) @ t=0.32
0.01199643001836507
% es.normE (V/m) @ t=0.34
2.4222386013457147
% es.EX (V/m) @ t=0.34
-0.7226049331949201
% es.EY (V/m) @ t=0.34
0.05397625983978899
% es.EZ (V/m) @ t=0.34
-2.3074239274263144
% es.tEX (V/m) @ t=0.34
-0.7226049331949227
% es.tEY (V/m) @ t=0.34
0
% es.tEZ (V/m) @ t=0.34
-2.3074239274263357
% es.Ex (V/m) @ t=0.34
-0.7226049331949201
% es.Ey (V/m) @ t=0.34
0.05397625983978899
% es.Ez (V/m) @ t=0.34
-2.3074239274263144
% es.tEx (V/m) @ t=0.34
-0.7226049331949227
% es.tEy (V/m) @ t=0.34
0
% es.tEz (V/m) @ t=0.34
-2.3074239274263357
% V (V) @ t=0.34
0.012175137372503463
% es.normE (V/m) @ t=0.36
2.457792389962749
% es.EX (V/m) @ t=0.36
-0.7332113815166901
% es.EY (V/m) @ t=0.36
0.054768531502794676
% es.EZ (V/m) @ t=0.36
-2.341292457259712
% es.tEX (V/m) @ t=0.36
-0.7332113815166927
% es.tEY (V/m) @ t=0.36
0
% es.tEZ (V/m) @ t=0.36
-2.341292457259745
% es.Ex (V/m) @ t=0.36
-0.7332113815166901
% es.Ey (V/m) @ t=0.36
0.054768531502794676
% es.Ez (V/m) @ t=0.36
-2.341292457259712
% es.tEx (V/m) @ t=0.36
-0.7332113815166927
% es.tEy (V/m) @ t=0.36
0
% es.tEz (V/m) @ t=0.36
-2.341292457259745
% V (V) @ t=0.36
0.012353844726641854
% es.normE (V/m) @ t=0.38
2.4933461785798077
% es.EX (V/m) @ t=0.38
-0.7438178298384549
% es.EY (V/m) @ t=0.38
0.055560803165796355
% es.EZ (V/m) @ t=0.38
-2.375160987093137
% es.tEX (V/m) @ t=0.38
-0.7438178298384592
% es.tEY (V/m) @ t=0.38
0
% es.tEZ (V/m) @ t=0.38
-2.3751609870931594
% es.Ex (V/m) @ t=0.38
-0.7438178298384549
% es.Ey (V/m) @ t=0.38
0.055560803165796355
% es.Ez (V/m) @ t=0.38
-2.375160987093137
% es.tEx (V/m) @ t=0.38
-0.7438178298384592
% es.tEy (V/m) @ t=0.38
0
% es.tEz (V/m) @ t=0.38
-2.3751609870931594
% V (V) @ t=0.38
0.012532552080780242
% es.normE (V/m) @ t=0.4
2.5288999671968693
% es.EX (V/m) @ t=0.4
-0.7544242781602304
% es.EY (V/m) @ t=0.4
0.056353074828797825
% es.EZ (V/m) @ t=0.4
-2.4090295169265623
% es.tEX (V/m) @ t=0.4
-0.7544242781602364
% es.tEY (V/m) @ t=0.4
0
% es.tEZ (V/m) @ t=0.4
-2.40902951692659
% es.Ex (V/m) @ t=0.4
-0.7544242781602304
% es.Ey (V/m) @ t=0.4
0.056353074828797825
% es.Ez (V/m) @ t=0.4
-2.4090295169265623
% es.tEx (V/m) @ t=0.4
-0.7544242781602364
% es.tEy (V/m) @ t=0.4
0
% es.tEz (V/m) @ t=0.4
-2.40902951692659
% V (V) @ t=0.4
0.012711259434918635
% es.normE (V/m) @ t=0.42
2.5664736468441243
% es.EX (V/m) @ t=0.42
-0.7656333593672969
% es.EY (V/m) @ t=0.42
0.05719046527717703
% es.EZ (V/m) @ t=0.42
-2.444822171335166
% es.tEX (V/m) @ t=0.42
-0.7656333593673068
% es.tEY (V/m) @ t=0.42
0
% es.tEZ (V/m) @ t=0.42
-2.4448221713351996
% es.Ex (V/m) @ t=0.42
-0.7656333593672969
% es.Ey (V/m) @ t=0.42
0.05719046527717703
% es.Ez (V/m) @ t=0.42
-2.444822171335166
% es.tEx (V/m) @ t=0.42
-0.7656333593673068
% es.tEy (V/m) @ t=0.42
0
% es.tEz (V/m) @ t=0.42
-2.4448221713351996
% V (V) @ t=0.42
0.012900115430941186
% es.normE (V/m) @ t=0.44
2.6051451042408673
% es.EX (V/m) @ t=0.44
-0.7771699616943901
% es.EY (V/m) @ t=0.44
0.05805237704772524
% es.EZ (V/m) @ t=0.44
-2.481660555990743
% es.tEX (V/m) @ t=0.44
-0.7771699616943906
% es.tEY (V/m) @ t=0.44
0
% es.tEZ (V/m) @ t=0.44
-2.481660555990759
% es.Ex (V/m) @ t=0.44
-0.7771699616943901
% es.Ey (V/m) @ t=0.44
0.05805237704772524
% es.Ez (V/m) @ t=0.44
-2.481660555990743
% es.tEx (V/m) @ t=0.44
-0.7771699616943906
% es.tEy (V/m) @ t=0.44
0
% es.tEz (V/m) @ t=0.44
-2.481660555990759
% V (V) @ t=0.44
0.013094487047896054
% es.normE (V/m) @ t=0.46
2.643816561637606
% es.EX (V/m) @ t=0.46
-0.7887065640214819
% es.EY (V/m) @ t=0.46
0.05891428881825035
% es.EZ (V/m) @ t=0.46
-2.518498940646298
% es.tEX (V/m) @ t=0.46
-0.7887065640214885
% es.tEY (V/m) @ t=0.46
0
% es.tEZ (V/m) @ t=0.46
-2.518498940646321
% es.Ex (V/m) @ t=0.46
-0.7887065640214819
% es.Ey (V/m) @ t=0.46
0.05891428881825035
% es.Ez (V/m) @ t=0.46
-2.518498940646298
% es.tEx (V/m) @ t=0.46
-0.7887065640214885
% es.tEy (V/m) @ t=0.46
0
% es.tEz (V/m) @ t=0.46
-2.518498940646321
% V (V) @ t=0.46
0.013288858664850927
% es.normE (V/m) @ t=0.48
2.682488019034354
% es.EX (V/m) @ t=0.48
-0.8002431663485743
% es.EY (V/m) @ t=0.48
0.059776200588805894
% es.EZ (V/m) @ t=0.48
-2.5553373253018465
% es.tEX (V/m) @ t=0.48
-0.8002431663485865
% es.tEY (V/m) @ t=0.48
0
% es.tEZ (V/m) @ t=0.48
-2.555337325301881
% es.Ex (V/m) @ t=0.48
-0.8002431663485743
% es.Ey (V/m) @ t=0.48
0.059776200588805894
% es.Ez (V/m) @ t=0.48
-2.5553373253018465
% es.tEx (V/m) @ t=0.48
-0.8002431663485865
% es.tEy (V/m) @ t=0.48
0
% es.tEz (V/m) @ t=0.48
-2.555337325301881
% V (V) @ t=0.48
0.013483230281805791
% es.normE (V/m) @ t=0.5
2.721159476431154
% es.EX (V/m) @ t=0.5
-0.8117797686756578
% es.EY (V/m) @ t=0.5
0.06063811235934344
% es.EZ (V/m) @ t=0.5
-2.592175709957438
% es.tEX (V/m) @ t=0.5
-0.8117797686756631
% es.tEY (V/m) @ t=0.5
0
% es.tEZ (V/m) @ t=0.5
-2.5921757099574414
% es.Ex (V/m) @ t=0.5
-0.8117797686756578
% es.Ey (V/m) @ t=0.5
0.06063811235934344
% es.Ez (V/m) @ t=0.5
-2.592175709957438
% es.tEx (V/m) @ t=0.5
-0.8117797686756631
% es.tEy (V/m) @ t=0.5
0
% es.tEz (V/m) @ t=0.5
-2.5921757099574414
% V (V) @ t=0.5
0.013677601898760659
% es.normE (V/m) @ t=0.52
2.759830933827913
% es.EX (V/m) @ t=0.52
-0.8233163710027505
% es.EY (V/m) @ t=0.52
0.06150002412989006
% es.EZ (V/m) @ t=0.52
-2.6290140946129643
% es.tEX (V/m) @ t=0.52
-0.823316371002754
% es.tEY (V/m) @ t=0.52
0
% es.tEZ (V/m) @ t=0.52
-2.629014094612989
% es.Ex (V/m) @ t=0.52
-0.8233163710027505
% es.Ey (V/m) @ t=0.52
0.06150002412989006
% es.Ez (V/m) @ t=0.52
-2.6290140946129643
% es.tEx (V/m) @ t=0.52
-0.823316371002754
% es.tEy (V/m) @ t=0.52
0
% es.tEz (V/m) @ t=0.52
-2.629014094612989
% V (V) @ t=0.52
0.013871973515715527
% es.normE (V/m) @ t=0.54
2.7985023912247278
% es.EX (V/m) @ t=0.54
-0.8348529733298393
% es.EY (V/m) @ t=0.54
0.06236193590044159
% es.EZ (V/m) @ t=0.54
-2.6658524792685405
% es.tEX (V/m) @ t=0.54
-0.8348529733298378
% es.tEY (V/m) @ t=0.54
0
% es.tEZ (V/m) @ t=0.54
-2.6658524792685494
% es.Ex (V/m) @ t=0.54
-0.8348529733298393
% es.Ey (V/m) @ t=0.54
0.06236193590044159
% es.Ez (V/m) @ t=0.54
-2.6658524792685405
% es.tEx (V/m) @ t=0.54
-0.8348529733298378
% es.tEy (V/m) @ t=0.54
0
% es.tEz (V/m) @ t=0.54
-2.6658524792685494
% V (V) @ t=0.54
0.014066345132670395
% es.normE (V/m) @ t=0.56
2.838462493785286
% es.EX (V/m) @ t=0.56
-0.8467737958487362
% es.EY (V/m) @ t=0.56
0.063252162743366
% es.EZ (V/m) @ t=0.56
-2.703918512650488
% es.tEX (V/m) @ t=0.56
-0.8467737958487405
% es.tEY (V/m) @ t=0.56
0
% es.tEZ (V/m) @ t=0.56
-2.7039185126504943
% es.Ex (V/m) @ t=0.56
-0.8467737958487362
% es.Ey (V/m) @ t=0.56
0.063252162743366
% es.Ez (V/m) @ t=0.56
-2.703918512650488
% es.tEx (V/m) @ t=0.56
-0.8467737958487405
% es.tEy (V/m) @ t=0.56
0
% es.tEz (V/m) @ t=0.56
-2.7039185126504943
% V (V) @ t=0.56
0.014267209296028652
% es.normE (V/m) @ t=0.58
2.878982813953437
% es.EX (V/m) @ t=0.58
-0.858861651871236
% es.EY (V/m) @ t=0.58
0.0641546991052628
% es.EZ (V/m) @ t=0.58
-2.742518246427019
% es.tEX (V/m) @ t=0.58
-0.8588616518712442
% es.tEY (V/m) @ t=0.58
0
% es.tEZ (V/m) @ t=0.58
-2.742518246427041
% es.Ex (V/m) @ t=0.58
-0.858861651871236
% es.Ey (V/m) @ t=0.58
0.0641546991052628
% es.Ez (V/m) @ t=0.58
-2.742518246427019
% es.tEx (V/m) @ t=0.58
-0.8588616518712442
% es.tEy (V/m) @ t=0.58
0
% es.tEz (V/m) @ t=0.58
-2.742518246427041
% V (V) @ t=0.58
0.014470895988749791
% es.normE (V/m) @ t=0.6
2.9198917530333026
% es.EX (V/m) @ t=0.6
-0.8710653778297968
% es.EY (V/m) @ t=0.6
0.06506577449163534
% es.EZ (V/m) @ t=0.6
-2.781488204315856
% es.tEX (V/m) @ t=0.6
-0.8710653778298081
% es.tEY (V/m) @ t=0.6
0
% es.tEZ (V/m) @ t=0.6
-2.7814882043158935
% es.Ex (V/m) @ t=0.6
-0.8710653778297968
% es.Ey (V/m) @ t=0.6
0.06506577449163534
% es.Ez (V/m) @ t=0.6
-2.781488204315856
% es.tEx (V/m) @ t=0.6
-0.8710653778298081
% es.tEy (V/m) @ t=0.6
0
% es.tEz (V/m) @ t=0.6
-2.7814882043158935
% V (V) @ t=0.6
0.01467654064972124
% es.normE (V/m) @ t=0.62
2.961189311024979
% es.EX (V/m) @ t=0.62
-0.8833849737244346
% es.EY (V/m) @ t=0.62
0.06598538890249957
% es.EZ (V/m) @ t=0.62
-2.8208283863169976
% es.tEX (V/m) @ t=0.62
-0.8833849737244464
% es.tEY (V/m) @ t=0.62
0
% es.tEZ (V/m) @ t=0.62
-2.8208283863170305
% es.Ex (V/m) @ t=0.62
-0.8833849737244346
% es.Ey (V/m) @ t=0.62
0.06598538890249957
% es.Ez (V/m) @ t=0.62
-2.8208283863169976
% es.tEx (V/m) @ t=0.62
-0.8833849737244464
% es.tEy (V/m) @ t=0.62
0
% es.tEz (V/m) @ t=0.62
-2.8208283863170305
% V (V) @ t=0.62
0.014884143278942987
% es.normE (V/m) @ t=0.64
3.002875487928601
% es.EX (V/m) @ t=0.64
-0.8958204395551372
% es.EY (V/m) @ t=0.64
0.06691354233784656
% es.EZ (V/m) @ t=0.64
-2.8605387924304715
% es.tEX (V/m) @ t=0.64
-0.8958204395551519
% es.tEY (V/m) @ t=0.64
0
% es.tEZ (V/m) @ t=0.64
-2.8605387924304893
% es.Ex (V/m) @ t=0.64
-0.8958204395551372
% es.Ey (V/m) @ t=0.64
0.06691354233784656
% es.Ez (V/m) @ t=0.64
-2.8605387924304715
% es.tEx (V/m) @ t=0.64
-0.8958204395551519
% es.tEy (V/m) @ t=0.64
0
% es.tEz (V/m) @ t=0.64
-2.8605387924304893
% V (V) @ t=0.64
0.015093703876415038
% es.normE (V/m) @ t=0.66
3.0449502837442433
% es.EX (V/m) @ t=0.66
-0.9083717753219012
% es.EY (V/m) @ t=0.66
0.0678502347976822
% es.EZ (V/m) @ t=0.66
-2.9006194226562227
% es.tEX (V/m) @ t=0.66
-0.9083717753219034
% es.tEY (V/m) @ t=0.66
0
% es.tEZ (V/m) @ t=0.66
-2.900619422656243
% es.Ex (V/m) @ t=0.66
-0.9083717753219012
% es.Ey (V/m) @ t=0.66
0.0678502347976822
% es.Ez (V/m) @ t=0.66
-2.9006194226562227
% es.tEx (V/m) @ t=0.66
-0.9083717753219034
% es.tEy (V/m) @ t=0.66
0
% es.tEz (V/m) @ t=0.66
-2.900619422656243
% V (V) @ t=0.66
0.015305222442137395
% es.normE (V/m) @ t=0.68
3.0874136984720844
% es.EX (V/m) @ t=0.68
-0.9210389810247277
% es.EY (V/m) @ t=0.68
0.06879546628200778
% es.EZ (V/m) @ t=0.68
-2.941070276994294
% es.tEX (V/m) @ t=0.68
-0.9210389810247293
% es.tEY (V/m) @ t=0.68
0
% es.tEZ (V/m) @ t=0.68
-2.9410702769943207
% es.Ex (V/m) @ t=0.68
-0.9210389810247277
% es.Ey (V/m) @ t=0.68
0.06879546628200778
% es.Ez (V/m) @ t=0.68
-2.941070276994294
% es.tEx (V/m) @ t=0.68
-0.9210389810247293
% es.tEy (V/m) @ t=0.68
0
% es.tEz (V/m) @ t=0.68
-2.9410702769943207
% V (V) @ t=0.68
0.01551869897611005
% es.normE (V/m) @ t=0.7
3.1302657321122287
% es.EX (V/m) @ t=0.7
-0.9338220566636276
% es.EY (V/m) @ t=0.7
0.06974923679083002
% es.EZ (V/m) @ t=0.7
-2.9818913554446285
% es.tEX (V/m) @ t=0.7
-0.9338220566636437
% es.tEY (V/m) @ t=0.7
0
% es.tEZ (V/m) @ t=0.7
-2.9818913554446507
% es.Ex (V/m) @ t=0.7
-0.9338220566636276
% es.Ey (V/m) @ t=0.7
0.06974923679083002
% es.Ez (V/m) @ t=0.7
-2.9818913554446285
% es.tEx (V/m) @ t=0.7
-0.9338220566636437
% es.tEy (V/m) @ t=0.7
0
% es.tEz (V/m) @ t=0.7
-2.9818913554446507
% V (V) @ t=0.7
0.01573413347833301
% es.normE (V/m) @ t=0.72
3.173506384664888
% es.EX (V/m) @ t=0.72
-0.9467210022385837
% es.EY (V/m) @ t=0.72
0.07071154632411103
% es.EZ (V/m) @ t=0.72
-3.0230826580072803
% es.tEX (V/m) @ t=0.72
-0.9467210022385899
% es.tEY (V/m) @ t=0.72
0
% es.tEZ (V/m) @ t=0.72
-3.0230826580073167
% es.Ex (V/m) @ t=0.72
-0.9467210022385837
% es.Ey (V/m) @ t=0.72
0.07071154632411103
% es.Ez (V/m) @ t=0.72
-3.0230826580072803
% es.tEx (V/m) @ t=0.72
-0.9467210022385899
% es.tEy (V/m) @ t=0.72
0
% es.tEz (V/m) @ t=0.72
-3.0230826580073167
% V (V) @ t=0.72
0.015951525948806274
% es.normE (V/m) @ t=0.74
3.2171356561302638
% es.EX (V/m) @ t=0.74
-0.9597358177496078
% es.EY (V/m) @ t=0.74
0.07168239488189844
% es.EZ (V/m) @ t=0.74
-3.064644184682267
% es.tEX (V/m) @ t=0.74
-0.9597358177496176
% es.tEY (V/m) @ t=0.74
0
% es.tEZ (V/m) @ t=0.74
-3.0646441846822796
% es.Ex (V/m) @ t=0.74
-0.9597358177496078
% es.Ey (V/m) @ t=0.74
0.07168239488189844
% es.Ez (V/m) @ t=0.74
-3.064644184682267
% es.tEx (V/m) @ t=0.74
-0.9597358177496176
% es.tEy (V/m) @ t=0.74
0
% es.tEz (V/m) @ t=0.74
-3.0646441846822796
% V (V) @ t=0.74
0.016170876387529842
% es.normE (V/m) @ t=0.76
3.261153546508459
% es.EX (V/m) @ t=0.76
-0.9728665031967019
% es.EY (V/m) @ t=0.76
0.07266178246413894
% es.EZ (V/m) @ t=0.76
-3.1065759354695013
% es.tEX (V/m) @ t=0.76
-0.9728665031967054
% es.tEY (V/m) @ t=0.76
0
% es.tEZ (V/m) @ t=0.76
-3.1065759354695377
% es.Ex (V/m) @ t=0.76
-0.9728665031967019
% es.Ey (V/m) @ t=0.76
0.07266178246413894
% es.Ez (V/m) @ t=0.76
-3.1065759354695013
% es.tEx (V/m) @ t=0.76
-0.9728665031967054
% es.tEy (V/m) @ t=0.76
0
% es.tEz (V/m) @ t=0.76
-3.1065759354695377
% V (V) @ t=0.76
0.016392184794503717
% es.normE (V/m) @ t=0.78
3.305560055799776
% es.EX (V/m) @ t=0.78
-0.9861130585798517
% es.EY (V/m) @ t=0.78
0.07364970907087474
% es.EZ (V/m) @ t=0.78
-3.148877910369099
% es.tEX (V/m) @ t=0.78
-0.9861130585798605
% es.tEY (V/m) @ t=0.78
0
% es.tEZ (V/m) @ t=0.78
-3.148877910369132
% es.Ex (V/m) @ t=0.78
-0.9861130585798517
% es.Ey (V/m) @ t=0.78
0.07364970907087474
% es.Ez (V/m) @ t=0.78
-3.148877910369099
% es.tEx (V/m) @ t=0.78
-0.9861130585798605
% es.tEy (V/m) @ t=0.78
0
% es.tEz (V/m) @ t=0.78
-3.148877910369132
% V (V) @ t=0.78
0.016615451169727888
% es.normE (V/m) @ t=0.8
3.3503551840043575
% es.EX (V/m) @ t=0.8
-0.9994754838990676
% es.EY (V/m) @ t=0.8
0.07464617470211651
% es.EZ (V/m) @ t=0.8
-3.191550109380988
% es.tEX (V/m) @ t=0.8
-0.9994754838990758
% es.tEY (V/m) @ t=0.8
0
% es.tEZ (V/m) @ t=0.8
-3.191550109381007
% es.Ex (V/m) @ t=0.8
-0.9994754838990676
% es.Ey (V/m) @ t=0.8
0.07464617470211651
% es.Ez (V/m) @ t=0.8
-3.191550109380988
% es.tEx (V/m) @ t=0.8
-0.9994754838990758
% es.tEy (V/m) @ t=0.8
0
% es.tEz (V/m) @ t=0.8
-3.191550109381007
% V (V) @ t=0.8
0.016840675513202365
% es.normE (V/m) @ t=0.82
3.3957717532675304
% es.EX (V/m) @ t=0.82
-1.013023578223065
% es.EY (V/m) @ t=0.82
0.07565702279576239
% es.EZ (V/m) @ t=0.82
-3.234814178733699
% es.tEX (V/m) @ t=0.82
-1.013023578223077
% es.tEY (V/m) @ t=0.82
0
% es.tEZ (V/m) @ t=0.82
-3.2348141787337337
% es.Ex (V/m) @ t=0.82
-1.013023578223065
% es.Ey (V/m) @ t=0.82
0.07565702279576239
% es.Ez (V/m) @ t=0.82
-3.234814178733699
% es.tEx (V/m) @ t=0.82
-1.013023578223077
% es.tEy (V/m) @ t=0.82
0
% es.tEz (V/m) @ t=0.82
-3.2348141787337337
% V (V) @ t=0.82
0.0170690030563567
% es.normE (V/m) @ t=0.84
3.442177425931594
% es.EX (V/m) @ t=0.84
-1.0268675651266164
% es.EY (V/m) @ t=0.84
0.0766914810482919
% es.EZ (V/m) @ t=0.84
-3.2790201322613592
% es.tEX (V/m) @ t=0.84
-1.026867565126615
% es.tEY (V/m) @ t=0.84
0
% es.tEZ (V/m) @ t=0.84
-3.2790201322613814
% es.Ex (V/m) @ t=0.84
-1.0268675651266164
% es.Ey (V/m) @ t=0.84
0.0766914810482919
% es.Ez (V/m) @ t=0.84
-3.2790201322613592
% es.tEx (V/m) @ t=0.84
-1.026867565126615
% es.tEy (V/m) @ t=0.84
0
% es.tEz (V/m) @ t=0.84
-3.2790201322613814
% V (V) @ t=0.84
0.01730224229756215
% es.normE (V/m) @ t=0.86
3.489081559239713
% es.EX (V/m) @ t=0.86
-1.0408603520406445
% es.EY (V/m) @ t=0.86
0.07773723516507922
% es.EZ (V/m) @ t=0.86
-3.3237008790156475
% es.tEX (V/m) @ t=0.86
-1.04086035204066
% es.tEY (V/m) @ t=0.86
0
% es.tEZ (V/m) @ t=0.86
-3.323700879015691
% es.Ex (V/m) @ t=0.86
-1.0408603520406445
% es.Ey (V/m) @ t=0.86
0.07773723516507922
% es.Ez (V/m) @ t=0.86
-3.3237008790156475
% es.tEx (V/m) @ t=0.86
-1.04086035204066
% es.tEy (V/m) @ t=0.86
0
% es.tEz (V/m) @ t=0.86
-3.323700879015691
% V (V) @ t=0.86
0.017537979808727722
% es.normE (V/m) @ t=0.88
3.536484153192037
% es.EX (V/m) @ t=0.88
-1.0550019389651277
% es.EY (V/m) @ t=0.88
0.0787942851460361
% es.EZ (V/m) @ t=0.88
-3.3688564189965504
% es.tEX (V/m) @ t=0.88
-1.055001938965134
% es.tEY (V/m) @ t=0.88
0
% es.tEZ (V/m) @ t=0.88
-3.368856418996584
% es.Ex (V/m) @ t=0.88
-1.0550019389651277
% es.Ey (V/m) @ t=0.88
0.0787942851460361
% es.Ez (V/m) @ t=0.88
-3.3688564189965504
% es.tEx (V/m) @ t=0.88
-1.055001938965134
% es.tEy (V/m) @ t=0.88
0
% es.tEz (V/m) @ t=0.88
-3.368856418996584
% V (V) @ t=0.88
0.017776215589853407
% es.normE (V/m) @ t=0.9
3.5843852077887917
% es.EX (V/m) @ t=0.9
-1.069292325900064
% es.EY (V/m) @ t=0.9
0.07986263099123708
% es.EZ (V/m) @ t=0.9
-3.4144867522040823
% es.tEX (V/m) @ t=0.9
-1.0692923259000722
% es.tEY (V/m) @ t=0.9
0
% es.tEZ (V/m) @ t=0.9
-3.414486752204132
% es.Ex (V/m) @ t=0.9
-1.069292325900064
% es.Ey (V/m) @ t=0.9
0.07986263099123708
% es.Ez (V/m) @ t=0.9
-3.4144867522040823
% es.tEx (V/m) @ t=0.9
-1.0692923259000722
% es.tEy (V/m) @ t=0.9
0
% es.tEz (V/m) @ t=0.9
-3.414486752204132
% V (V) @ t=0.9
0.018016949640939216
% es.normE (V/m) @ t=0.92
3.632784723030259
% es.EX (V/m) @ t=0.92
-1.0837315128454519
% es.EY (V/m) @ t=0.92
0.08094227270065374
% es.EZ (V/m) @ t=0.92
-3.4605918786382848
% es.tEX (V/m) @ t=0.92
-1.0837315128454676
% es.tEY (V/m) @ t=0.92
0
% es.tEZ (V/m) @ t=0.92
-3.4605918786382954
% es.Ex (V/m) @ t=0.92
-1.0837315128454519
% es.Ey (V/m) @ t=0.92
0.08094227270065374
% es.Ez (V/m) @ t=0.92
-3.4605918786382848
% es.tEx (V/m) @ t=0.92
-1.0837315128454676
% es.tEy (V/m) @ t=0.92
0
% es.tEz (V/m) @ t=0.92
-3.4605918786382954
% V (V) @ t=0.92
0.01826018196198514
% es.normE (V/m) @ t=0.94
3.6816826989166005
% es.EX (V/m) @ t=0.94
-1.098319499801316
% es.EY (V/m) @ t=0.94
0.08203321027430127
% es.EZ (V/m) @ t=0.94
-3.507171798299032
% es.tEX (V/m) @ t=0.94
-1.0983194998013275
% es.tEY (V/m) @ t=0.94
0
% es.tEZ (V/m) @ t=0.94
-3.507171798299076
% es.Ex (V/m) @ t=0.94
-1.098319499801316
% es.Ey (V/m) @ t=0.94
0.08203321027430127
% es.Ez (V/m) @ t=0.94
-3.507171798299032
% es.tEx (V/m) @ t=0.94
-1.0983194998013275
% es.tEy (V/m) @ t=0.94
0
% es.tEz (V/m) @ t=0.94
-3.507171798299076
% V (V) @ t=0.94
0.01850591255299118
% es.normE (V/m) @ t=0.96
3.7310791354483
% es.EX (V/m) @ t=0.96
-1.1130562867676312
% es.EY (V/m) @ t=0.96
0.08313544371218459
% es.EZ (V/m) @ t=0.96
-3.5542265111865223
% es.tEX (V/m) @ t=0.96
-1.1130562867676446
% es.tEY (V/m) @ t=0.96
0
% es.tEZ (V/m) @ t=0.96
-3.554226511186565
% es.Ex (V/m) @ t=0.96
-1.1130562867676312
% es.Ey (V/m) @ t=0.96
0.08313544371218459
% es.Ez (V/m) @ t=0.96
-3.5542265111865223
% es.tEx (V/m) @ t=0.96
-1.1130562867676446
% es.tEy (V/m) @ t=0.96
0
% es.tEz (V/m) @ t=0.96
-3.554226511186565
% V (V) @ t=0.96
0.018754141413957332
% es.normE (V/m) @ t=0.98
3.78097403262555
% es.EX (V/m) @ t=0.98
-1.127941873744416
% es.EY (V/m) @ t=0.98
0.08424897301425505
% es.EZ (V/m) @ t=0.98
-3.6017560173005974
% es.tEX (V/m) @ t=0.98
-1.1279418737444402
% es.tEY (V/m) @ t=0.98
0
% es.tEZ (V/m) @ t=0.98
-3.6017560173006125
% es.Ex (V/m) @ t=0.98
-1.127941873744416
% es.Ey (V/m) @ t=0.98
0.08424897301425505
% es.Ez (V/m) @ t=0.98
-3.6017560173005974
% es.tEx (V/m) @ t=0.98
-1.1279418737444402
% es.tEy (V/m) @ t=0.98
0
% es.tEz (V/m) @ t=0.98
-3.6017560173006125
% V (V) @ t=0.98
0.019004868544883608
% es.normE (V/m) @ t=1
3.8313673904487042
% es.EX (V/m) @ t=1
-1.142976260731654
% es.EY (V/m) @ t=1
0.08537379818053548
% es.EZ (V/m) @ t=1
-3.6497603166412746
% es.tEX (V/m) @ t=1
-1.1429762607316576
% es.tEY (V/m) @ t=1
0
% es.tEZ (V/m) @ t=1
-3.6497603166413057
% es.Ex (V/m) @ t=1
-1.142976260731654
% es.Ey (V/m) @ t=1
0.08537379818053548
% es.Ez (V/m) @ t=1
-3.6497603166412746
% es.tEx (V/m) @ t=1
-1.1429762607316576
% es.tEy (V/m) @ t=1
0
% es.tEz (V/m) @ t=1
-3.6497603166413057
% V (V) @ t=1
0.019258093945769997
% es.normE (V/m) @ t=1.02
3.8822592089181778
% es.EX (V/m) @ t=1.02
-1.1581594477293453
% es.EY (V/m) @ t=1.02
0.08650991921109502
% es.EZ (V/m) @ t=1.02
-3.698239409208578
% es.tEX (V/m) @ t=1.02
-1.1581594477293606
% es.tEY (V/m) @ t=1.02
0
% es.tEZ (V/m) @ t=1.02
-3.698239409208627
% es.Ex (V/m) @ t=1.02
-1.1581594477293453
% es.Ey (V/m) @ t=1.02
0.08650991921109502
% es.Ez (V/m) @ t=1.02
-3.698239409208578
% es.tEx (V/m) @ t=1.02
-1.1581594477293606
% es.tEy (V/m) @ t=1.02
0
% es.tEz (V/m) @ t=1.02
-3.698239409208627
% V (V) @ t=1.02
0.0195138176166165
% es.normE (V/m) @ t=1.04
3.933649488034437