% Model:              1 neuron.mph
% Version:            COMSOL 6.0.0.405
% Date:               Mar 16 2023, 18:52
% Dimension:          0
% Nodes:              14017
% Expressions:        14017
% Description:        Electric field norm, Electric field, X component, Electric field, Y component, Electric field, Z component, Tangential electric field, X component, Tangential electric field, Y component, Tangential electric field, Z component, Electric field, x component, Electric field, y component, Electric field, z component, Tangential electric field, x component, Tangential electric field, y component, Tangential electric field, z component, Electric potential
% Length unit:        mm
% x
1.3300000000000003
% y
12.200000000000001
% z
1.66
% es.normE (V/m) @ t=0
11.18882780627774
% es.EX (V/m) @ t=0
7.100425620131091
% es.EY (V/m) @ t=0
2.1232748890578117
% es.EZ (V/m) @ t=0
-7.777576499497901
% es.tEX (V/m) @ t=0
7.10042562013107
% es.tEY (V/m) @ t=0
0
% es.tEZ (V/m) @ t=0
-7.7775764994978855
% es.Ex (V/m) @ t=0
7.100425620131091
% es.Ey (V/m) @ t=0
2.1232748890578117
% es.Ez (V/m) @ t=0
-7.777576499497901
% es.tEx (V/m) @ t=0
7.10042562013107
% es.tEy (V/m) @ t=0
0
% es.tEz (V/m) @ t=0
-7.7775764994978855
% V (V) @ t=0
0.009584110487721963
% es.normE (V/m) @ t=0.02
9.717585511127574
% es.EX (V/m) @ t=0.02
6.166775939797075
% es.EY (V/m) @ t=0.02
1.8440810432900872
% es.EZ (V/m) @ t=0.02
-6.754886681098359
% es.tEX (V/m) @ t=0.02
6.166775939797057
% es.tEY (V/m) @ t=0.02
0
% es.tEZ (V/m) @ t=0.02
-6.754886681098344
% es.Ex (V/m) @ t=0.02
6.166775939797075
% es.Ey (V/m) @ t=0.02
1.8440810432900872
% es.Ez (V/m) @ t=0.02
-6.754886681098359
% es.tEx (V/m) @ t=0.02
6.166775939797057
% es.tEy (V/m) @ t=0.02
0
% es.tEz (V/m) @ t=0.02
-6.754886681098344
% V (V) @ t=0.02
0.008323875519239429
% es.normE (V/m) @ t=0.04
9.861677421517314
% es.EX (V/m) @ t=0.04
6.258216802621272
% es.EY (V/m) @ t=0.04
1.871424983339455
% es.EZ (V/m) @ t=0.04
-6.8550476765991535
% es.tEX (V/m) @ t=0.04
6.258216802621261
% es.tEY (V/m) @ t=0.04
0
% es.tEZ (V/m) @ t=0.04
-6.855047676599138
% es.Ex (V/m) @ t=0.04
6.258216802621272
% es.Ey (V/m) @ t=0.04
1.871424983339455
% es.Ez (V/m) @ t=0.04
-6.8550476765991535
% es.tEx (V/m) @ t=0.04
6.258216802621261
% es.tEy (V/m) @ t=0.04
0
% es.tEz (V/m) @ t=0.04
-6.855047676599138
% V (V) @ t=0.04
0.00844730090309822
% es.normE (V/m) @ t=0.06
10.00792480032533
% es.EX (V/m) @ t=0.06
6.35102520770454
% es.EY (V/m) @ t=0.06
1.8991779751630573
% es.EZ (V/m) @ t=0.06
-6.956707232298195
% es.tEX (V/m) @ t=0.06
6.3510252077045255
% es.tEY (V/m) @ t=0.06
0
% es.tEZ (V/m) @ t=0.06
-6.956707232298173
% es.Ex (V/m) @ t=0.06
6.35102520770454
% es.Ey (V/m) @ t=0.06
1.8991779751630573
% es.Ez (V/m) @ t=0.06
-6.956707232298195
% es.tEx (V/m) @ t=0.06
6.3510252077045255
% es.tEy (V/m) @ t=0.06
0
% es.tEz (V/m) @ t=0.06
-6.956707232298173
% V (V) @ t=0.06
0.008572573696686833
% es.normE (V/m) @ t=0.08
10.157919734185315
% es.EX (V/m) @ t=0.08
6.44621190174654
% es.EY (V/m) @ t=0.08
1.9276421268891757
% es.EZ (V/m) @ t=0.08
-7.060971715015043
% es.tEX (V/m) @ t=0.08
6.446211901746528
% es.tEY (V/m) @ t=0.08
0
% es.tEZ (V/m) @ t=0.08
-7.060971715015029
% es.Ex (V/m) @ t=0.08
6.44621190174654
% es.Ey (V/m) @ t=0.08
1.9276421268891757
% es.Ez (V/m) @ t=0.08
-7.060971715015043
% es.tEx (V/m) @ t=0.08
6.446211901746528
% es.tEy (V/m) @ t=0.08
0
% es.tEz (V/m) @ t=0.08
-7.060971715015029
% V (V) @ t=0.08
0.008701056252098615
% es.normE (V/m) @ t=0.1
10.310493291479467
% es.EX (V/m) @ t=0.1
6.543035052506944
% es.EY (V/m) @ t=0.1
1.9565956146129189
% es.EZ (V/m) @ t=0.1
-7.167028599913908
% es.tEX (V/m) @ t=0.1
6.543035052506937
% es.tEY (V/m) @ t=0.1
0
% es.tEZ (V/m) @ t=0.1
-7.167028599913893
% es.Ex (V/m) @ t=0.1
6.543035052506944
% es.Ey (V/m) @ t=0.1
1.9565956146129189
% es.Ez (V/m) @ t=0.1
-7.167028599913908
% es.tEx (V/m) @ t=0.1
6.543035052506937
% es.tEy (V/m) @ t=0.1
0
% es.tEz (V/m) @ t=0.1
-7.167028599913893
% V (V) @ t=0.1
0.00883174738535394
% es.normE (V/m) @ t=0.12
10.463066848773622
% es.EX (V/m) @ t=0.12
6.639858203267346
% es.EY (V/m) @ t=0.12
1.9855491023366576
% es.EZ (V/m) @ t=0.12
-7.273085484812787
% es.tEX (V/m) @ t=0.12
6.639858203267332
% es.tEY (V/m) @ t=0.12
0
% es.tEZ (V/m) @ t=0.12
-7.273085484812772
% es.Ex (V/m) @ t=0.12
6.639858203267346
% es.Ey (V/m) @ t=0.12
1.9855491023366576
% es.Ez (V/m) @ t=0.12
-7.273085484812787
% es.tEx (V/m) @ t=0.12
6.639858203267332
% es.tEy (V/m) @ t=0.12
0
% es.tEz (V/m) @ t=0.12
-7.273085484812772
% V (V) @ t=0.12
0.008962438518609268
% es.normE (V/m) @ t=0.14
10.618308702442025
% es.EX (V/m) @ t=0.14
6.738375322014033
% es.EY (V/m) @ t=0.14
2.015008916593491
% es.EZ (V/m) @ t=0.14
-7.3809966261182165
% es.tEX (V/m) @ t=0.14
6.738375322014
% es.tEY (V/m) @ t=0.14
0
% es.tEZ (V/m) @ t=0.14
-7.380996626118202
% es.Ex (V/m) @ t=0.14
6.738375322014033
% es.Ey (V/m) @ t=0.14
2.015008916593491
% es.Ez (V/m) @ t=0.14
-7.3809966261182165
% es.tEx (V/m) @ t=0.14
6.738375322014
% es.tEy (V/m) @ t=0.14
0
% es.tEz (V/m) @ t=0.14
-7.380996626118202
% V (V) @ t=0.14
0.009095412978325182
% es.normE (V/m) @ t=0.16
10.784584735410682
% es.EX (V/m) @ t=0.16
6.843897489625649
% es.EY (V/m) @ t=0.16
2.046562537896374
% es.EZ (V/m) @ t=0.16
-7.49657565538915
% es.tEX (V/m) @ t=0.16
6.843897489625637
% es.tEY (V/m) @ t=0.16
0
% es.tEZ (V/m) @ t=0.16
-7.496575655389135
% es.Ex (V/m) @ t=0.16
6.843897489625649
% es.Ey (V/m) @ t=0.16
2.046562537896374
% es.Ez (V/m) @ t=0.16
-7.49657565538915
% es.tEx (V/m) @ t=0.16
6.843897489625637
% es.tEy (V/m) @ t=0.16
0
% es.tEz (V/m) @ t=0.16
-7.496575655389135
% V (V) @ t=0.16
0.009237829655108007
% es.normE (V/m) @ t=0.18
10.950860768381155
% es.EX (V/m) @ t=0.18
6.9494196572372395
% es.EY (V/m) @ t=0.18
2.0781161591992676
% es.EZ (V/m) @ t=0.18
-7.612154684660094
% es.tEX (V/m) @ t=0.18
6.949419657237232
% es.tEY (V/m) @ t=0.18
0
% es.tEZ (V/m) @ t=0.18
-7.612154684660079
% es.Ex (V/m) @ t=0.18
6.9494196572372395
% es.Ey (V/m) @ t=0.18
2.0781161591992676
% es.Ez (V/m) @ t=0.18
-7.612154684660094
% es.tEx (V/m) @ t=0.18
6.949419657237232
% es.tEy (V/m) @ t=0.18
0
% es.tEz (V/m) @ t=0.18
-7.612154684660079
% V (V) @ t=0.18
0.009380246331890834
% es.normE (V/m) @ t=0.2
11.117136801353379
% es.EX (V/m) @ t=0.2
7.05494182484885
% es.EY (V/m) @ t=0.2
2.1096697805021964
% es.EZ (V/m) @ t=0.2
-7.727733713931034
% es.tEX (V/m) @ t=0.2
7.054941824848835
% es.tEY (V/m) @ t=0.2
0
% es.tEZ (V/m) @ t=0.2
-7.727733713931013
% es.Ex (V/m) @ t=0.2
7.05494182484885
% es.Ey (V/m) @ t=0.2
2.1096697805021964
% es.Ez (V/m) @ t=0.2
-7.727733713931034
% es.tEx (V/m) @ t=0.2
7.054941824848835
% es.tEy (V/m) @ t=0.2
0
% es.tEz (V/m) @ t=0.2
-7.727733713931013
% V (V) @ t=0.2
0.009522663008673663
% es.normE (V/m) @ t=0.22
11.283412834327276
% es.EX (V/m) @ t=0.22
7.160463992460459
% es.EY (V/m) @ t=0.22
2.1412234018050973
% es.EZ (V/m) @ t=0.22
-7.843312743201967
% es.tEX (V/m) @ t=0.22
7.16046399246043
% es.tEY (V/m) @ t=0.22
0
% es.tEZ (V/m) @ t=0.22
-7.8433127432019525
% es.Ex (V/m) @ t=0.22
7.160463992460459
% es.Ey (V/m) @ t=0.22
2.1412234018050973
% es.Ez (V/m) @ t=0.22
-7.843312743201967
% es.tEx (V/m) @ t=0.22
7.16046399246043
% es.tEy (V/m) @ t=0.22
0
% es.tEz (V/m) @ t=0.22
-7.8433127432019525
% V (V) @ t=0.22
0.009665079685456488
% es.normE (V/m) @ t=0.24
11.44968886730275
% es.EX (V/m) @ t=0.24
7.265986160072034
% es.EY (V/m) @ t=0.24
2.172777023108048
% es.EZ (V/m) @ t=0.24
-7.958891772472919
% es.tEX (V/m) @ t=0.24
7.265986160072027
% es.tEY (V/m) @ t=0.24
0
% es.tEZ (V/m) @ t=0.24
-7.958891772472904
% es.Ex (V/m) @ t=0.24
7.265986160072034
% es.Ey (V/m) @ t=0.24
2.172777023108048
% es.Ez (V/m) @ t=0.24
-7.958891772472919
% es.tEx (V/m) @ t=0.24
7.265986160072027
% es.tEy (V/m) @ t=0.24
0
% es.tEz (V/m) @ t=0.24
-7.958891772472904
% V (V) @ t=0.24
0.009807496362239317
% es.normE (V/m) @ t=0.26
11.615964900279785
% es.EX (V/m) @ t=0.26
7.3715083276836575
% es.EY (V/m) @ t=0.26
2.204330644410959
% es.EZ (V/m) @ t=0.26
-8.074470801743876
% es.tEX (V/m) @ t=0.26
7.371508327683635
% es.tEY (V/m) @ t=0.26
0
% es.tEZ (V/m) @ t=0.26
-8.074470801743855
% es.Ex (V/m) @ t=0.26
7.3715083276836575
% es.Ey (V/m) @ t=0.26
2.204330644410959
% es.Ez (V/m) @ t=0.26
-8.074470801743876
% es.tEx (V/m) @ t=0.26
7.371508327683635
% es.tEy (V/m) @ t=0.26
0
% es.tEz (V/m) @ t=0.26
-8.074470801743855
% V (V) @ t=0.26
0.009949913039022143
% es.normE (V/m) @ t=0.28
11.788163083720288
% es.EX (V/m) @ t=0.28
7.48078467337426
% es.EY (V/m) @ t=0.28
2.237008269174188
% es.EZ (V/m) @ t=0.28
-8.194169618217014
% es.tEX (V/m) @ t=0.28
7.480784673374238
% es.tEY (V/m) @ t=0.28
0
% es.tEZ (V/m) @ t=0.28
-8.194169618217
% es.Ex (V/m) @ t=0.28
7.48078467337426
% es.Ey (V/m) @ t=0.28
2.237008269174188
% es.Ez (V/m) @ t=0.28
-8.194169618217014
% es.tEx (V/m) @ t=0.28
7.480784673374238
% es.tEy (V/m) @ t=0.28
0
% es.tEz (V/m) @ t=0.28
-8.194169618217
% V (V) @ t=0.28
0.010097416199416016
% es.normE (V/m) @ t=0.3
11.969266139797309
% es.EX (V/m) @ t=0.3
7.595706008641354
% es.EY (V/m) @ t=0.3
2.2713760076410123
% es.EZ (V/m) @ t=0.3
-8.32006317434409
% es.tEX (V/m) @ t=0.3
7.595706008641346
% es.tEY (V/m) @ t=0.3
0
% es.tEZ (V/m) @ t=0.3
-8.320063174344074
% es.Ex (V/m) @ t=0.3
7.595706008641354
% es.Ey (V/m) @ t=0.3
2.2713760076410123
% es.Ez (V/m) @ t=0.3
-8.32006317434409
% es.tEx (V/m) @ t=0.3
7.595706008641346
% es.tEy (V/m) @ t=0.3
0
% es.tEz (V/m) @ t=0.3
-8.320063174344074
% V (V) @ t=0.3
0.010252567677593697
% es.normE (V/m) @ t=0.32
12.150369195880934
% es.EX (V/m) @ t=0.32
7.710627343908454
% es.EY (V/m) @ t=0.32
2.305743746107851
% es.EZ (V/m) @ t=0.32
-8.445956730471163
% es.tEX (V/m) @ t=0.32
7.710627343908439
% es.tEY (V/m) @ t=0.32
0
% es.tEZ (V/m) @ t=0.32
-8.44595673047114
% es.Ex (V/m) @ t=0.32
7.710627343908454
% es.Ey (V/m) @ t=0.32
2.305743746107851
% es.Ez (V/m) @ t=0.32
-8.445956730471163
% es.tEx (V/m) @ t=0.32
7.710627343908439
% es.tEy (V/m) @ t=0.32
0
% es.tEz (V/m) @ t=0.32
-8.44595673047114
% V (V) @ t=0.32
0.010407719155771373
% es.normE (V/m) @ t=0.34
12.33147225197089
% es.EX (V/m) @ t=0.34
7.825548679175544
% es.EY (V/m) @ t=0.34
2.340111484574707
% es.EZ (V/m) @ t=0.34
-8.571850286598231
% es.tEX (V/m) @ t=0.34
7.825548679175526
% es.tEY (V/m) @ t=0.34
0
% es.tEZ (V/m) @ t=0.34
-8.571850286598224
% es.Ex (V/m) @ t=0.34
7.825548679175544
% es.Ey (V/m) @ t=0.34
2.340111484574707
% es.Ez (V/m) @ t=0.34
-8.571850286598231
% es.tEx (V/m) @ t=0.34
7.825548679175526
% es.tEy (V/m) @ t=0.34
0
% es.tEz (V/m) @ t=0.34
-8.571850286598224
% V (V) @ t=0.34
0.010562870633949055
% es.normE (V/m) @ t=0.36
12.512575308066882
% es.EX (V/m) @ t=0.36
7.940470014442641
% es.EY (V/m) @ t=0.36
2.3744792230415346
% es.EZ (V/m) @ t=0.36
-8.697743842725295
% es.tEX (V/m) @ t=0.36
7.940470014442612
% es.tEY (V/m) @ t=0.36
0
% es.tEZ (V/m) @ t=0.36
-8.697743842725274
% es.Ex (V/m) @ t=0.36
7.940470014442641
% es.Ey (V/m) @ t=0.36
2.3744792230415346
% es.Ez (V/m) @ t=0.36
-8.697743842725295
% es.tEx (V/m) @ t=0.36
7.940470014442612
% es.tEy (V/m) @ t=0.36
0
% es.tEz (V/m) @ t=0.36
-8.697743842725274
% V (V) @ t=0.36
0.010718022112126734
% es.normE (V/m) @ t=0.38
12.693678364168694
% es.EX (V/m) @ t=0.38
8.05539134970973
% es.EY (V/m) @ t=0.38
2.408846961508419
% es.EZ (V/m) @ t=0.38
-8.823637398852382
% es.tEX (V/m) @ t=0.38
8.055391349709705
% es.tEY (V/m) @ t=0.38
0
% es.tEZ (V/m) @ t=0.38
-8.82363739885236
% es.Ex (V/m) @ t=0.38
8.05539134970973
% es.Ey (V/m) @ t=0.38
2.408846961508419
% es.Ez (V/m) @ t=0.38
-8.823637398852382
% es.tEx (V/m) @ t=0.38
8.055391349709705
% es.tEy (V/m) @ t=0.38
0
% es.tEz (V/m) @ t=0.38
-8.82363739885236
% V (V) @ t=0.38
0.010873173590304411
% es.normE (V/m) @ t=0.4
12.874781420276038
% es.EX (V/m) @ t=0.4
8.170312684976818
% es.EY (V/m) @ t=0.4
2.443214699975286
% es.EZ (V/m) @ t=0.4
-8.949530954979455
% es.tEX (V/m) @ t=0.4
8.170312684976786
% es.tEY (V/m) @ t=0.4
0
% es.tEZ (V/m) @ t=0.4
-8.949530954979426
% es.Ex (V/m) @ t=0.4
8.170312684976818
% es.Ey (V/m) @ t=0.4
2.443214699975286
% es.Ez (V/m) @ t=0.4
-8.949530954979455
% es.tEx (V/m) @ t=0.4
8.170312684976786
% es.tEy (V/m) @ t=0.4
0
% es.tEz (V/m) @ t=0.4
-8.949530954979426
% V (V) @ t=0.4
0.01102832506848209
% es.normE (V/m) @ t=0.42
13.065443866567495
% es.EX (V/m) @ t=0.42
8.29132104497446
% es.EY (V/m) @ t=0.42
2.4793956163840383
% es.EZ (V/m) @ t=0.42
-9.082053076327956
% es.tEX (V/m) @ t=0.42
8.291321044974422
% es.tEY (V/m) @ t=0.42
0
% es.tEZ (V/m) @ t=0.42
-9.082053076327934
% es.Ex (V/m) @ t=0.42
8.29132104497446
% es.Ey (V/m) @ t=0.42
2.4793956163840383
% es.Ez (V/m) @ t=0.42
-9.082053076327956
% es.tEx (V/m) @ t=0.42
8.291321044974422
% es.tEy (V/m) @ t=0.42
0
% es.tEz (V/m) @ t=0.42
-9.082053076327934
% V (V) @ t=0.42
0.011191594532933963
% es.normE (V/m) @ t=0.44
13.262371080075667
% es.EX (V/m) @ t=0.44
8.416318549862648
% es.EY (V/m) @ t=0.44
2.5167648028990004
% es.EZ (V/m) @ t=0.44
-9.218919242305034
% es.tEX (V/m) @ t=0.44
8.416318549862629
% es.tEY (V/m) @ t=0.44
0
% es.tEZ (V/m) @ t=0.44
-9.218919242305011
% es.Ex (V/m) @ t=0.44
8.416318549862648
% es.Ey (V/m) @ t=0.44
2.5167648028990004
% es.Ez (V/m) @ t=0.44
-9.218919242305034
% es.tEx (V/m) @ t=0.44
8.416318549862629
% es.tEy (V/m) @ t=0.44
0
% es.tEz (V/m) @ t=0.44
-9.218919242305011
% V (V) @ t=0.44
0.011360184137339396
% es.normE (V/m) @ t=0.46
13.459298293679302
% es.EX (V/m) @ t=0.46
8.54131605475088
% es.EY (V/m) @ t=0.46
2.554133989413898
% es.EZ (V/m) @ t=0.46
-9.355785408282133
% es.tEX (V/m) @ t=0.46
8.541316054750851
% es.tEY (V/m) @ t=0.46
0
% es.tEZ (V/m) @ t=0.46
-9.355785408282102
% es.Ex (V/m) @ t=0.46
8.54131605475088
% es.Ey (V/m) @ t=0.46
2.554133989413898
% es.Ez (V/m) @ t=0.46
-9.355785408282133
% es.tEx (V/m) @ t=0.46
8.541316054750851
% es.tEy (V/m) @ t=0.46
0
% es.tEz (V/m) @ t=0.46
-9.355785408282102
% V (V) @ t=0.46
0.011528773741744831
% es.normE (V/m) @ t=0.48
13.656225507374247
% es.EX (V/m) @ t=0.48
8.666313559639093
% es.EY (V/m) @ t=0.48
2.591503175928835
% es.EZ (V/m) @ t=0.48
-9.492651574259238
% es.tEX (V/m) @ t=0.48
8.666313559639079
% es.tEY (V/m) @ t=0.48
0
% es.tEZ (V/m) @ t=0.48
-9.49265157425921
% es.Ex (V/m) @ t=0.48
8.666313559639093
% es.Ey (V/m) @ t=0.48
2.591503175928835
% es.Ez (V/m) @ t=0.48
-9.492651574259238
% es.tEx (V/m) @ t=0.48
8.666313559639079
% es.tEy (V/m) @ t=0.48
0
% es.tEz (V/m) @ t=0.48
-9.49265157425921
% V (V) @ t=0.48
0.011697363346150267
% es.normE (V/m) @ t=0.5
13.85315272115657
% es.EX (V/m) @ t=0.5
8.791311064527296
% es.EY (V/m) @ t=0.5
2.6288723624437647
% es.EZ (V/m) @ t=0.5
-9.629517740236317
% es.tEX (V/m) @ t=0.5
8.791311064527292
% es.tEY (V/m) @ t=0.5
0
% es.tEZ (V/m) @ t=0.5
-9.6295177402363
% es.Ex (V/m) @ t=0.5
8.791311064527296
% es.Ey (V/m) @ t=0.5
2.6288723624437647
% es.Ez (V/m) @ t=0.5
-9.629517740236317
% es.tEx (V/m) @ t=0.5
8.791311064527292
% es.tEy (V/m) @ t=0.5
0
% es.tEz (V/m) @ t=0.5
-9.6295177402363
% V (V) @ t=0.5
0.011865952950555703
% es.normE (V/m) @ t=0.52
14.050079935022636
% es.EX (V/m) @ t=0.52
8.916308569415513
% es.EY (V/m) @ t=0.52
2.666241548958652
% es.EZ (V/m) @ t=0.52
-9.766383906213393
% es.tEX (V/m) @ t=0.52
8.916308569415492
% es.tEY (V/m) @ t=0.52
0
% es.tEZ (V/m) @ t=0.52
-9.76638390621337
% es.Ex (V/m) @ t=0.52
8.916308569415513
% es.Ey (V/m) @ t=0.52
2.666241548958652
% es.Ez (V/m) @ t=0.52
-9.766383906213393
% es.tEx (V/m) @ t=0.52
8.916308569415492
% es.tEy (V/m) @ t=0.52
0
% es.tEz (V/m) @ t=0.52
-9.76638390621337
% V (V) @ t=0.52
0.012034542554961138
% es.normE (V/m) @ t=0.54
14.247007148968954
% es.EX (V/m) @ t=0.54
9.041306074303709
% es.EY (V/m) @ t=0.54
2.7036107354736036
% es.EZ (V/m) @ t=0.54
-9.903250072190485
% es.tEX (V/m) @ t=0.54
9.041306074303705
% es.tEY (V/m) @ t=0.54
0
% es.tEZ (V/m) @ t=0.54
-9.903250072190456
% es.Ex (V/m) @ t=0.54
9.041306074303709
% es.Ey (V/m) @ t=0.54
2.7036107354736036
% es.Ez (V/m) @ t=0.54
-9.903250072190485
% es.tEx (V/m) @ t=0.54
9.041306074303705
% es.tEy (V/m) @ t=0.54
0
% es.tEz (V/m) @ t=0.54
-9.903250072190456
% V (V) @ t=0.54
0.012203132159366574
% es.normE (V/m) @ t=0.56
14.450055566351729
% es.EX (V/m) @ t=0.56
9.170174856662475
% es.EY (V/m) @ t=0.56
2.7421420944594233
% es.EZ (V/m) @ t=0.56
-10.044381697627333
% es.tEX (V/m) @ t=0.56
9.170174856662463
% es.tEY (V/m) @ t=0.56
0
% es.tEZ (V/m) @ t=0.56
-10.044381697627312
% es.Ex (V/m) @ t=0.56
9.170174856662475
% es.Ey (V/m) @ t=0.56
2.7421420944594233
% es.Ez (V/m) @ t=0.56
-10.044381697627333
% es.tEx (V/m) @ t=0.56
9.170174856662463
% es.tEy (V/m) @ t=0.56
0
% es.tEz (V/m) @ t=0.56
-10.044381697627312
% V (V) @ t=0.56
0.012377010192551111
% es.normE (V/m) @ t=0.58
14.656351453812821
% es.EX (V/m) @ t=0.58
9.301097460296702
% es.EY (V/m) @ t=0.58
2.781290018536324
% es.EZ (V/m) @ t=0.58
-10.187776268940517
% es.tEX (V/m) @ t=0.58
9.301097460296667
% es.tEY (V/m) @ t=0.58
0
% es.tEZ (V/m) @ t=0.58
-10.187776268940496
% es.Ex (V/m) @ t=0.58
9.301097460296702
% es.Ey (V/m) @ t=0.58
2.781290018536324
% es.Ez (V/m) @ t=0.58
-10.187776268940517
% es.tEx (V/m) @ t=0.58
9.301097460296667
% es.tEy (V/m) @ t=0.58
0
% es.tEz (V/m) @ t=0.58
-10.187776268940496
% V (V) @ t=0.58
0.012553693885526967
% es.normE (V/m) @ t=0.6
14.864637946977231
% es.EX (V/m) @ t=0.6
9.433278997273046
% es.EY (V/m) @ t=0.6
2.82081587927214
% es.EZ (V/m) @ t=0.6
-10.332557960958445
% es.tEX (V/m) @ t=0.6
9.433278997273025
% es.tEY (V/m) @ t=0.6
0
% es.tEZ (V/m) @ t=0.6
-10.33255796095843
% es.Ex (V/m) @ t=0.6
9.433278997273046
% es.Ey (V/m) @ t=0.6
2.82081587927214
% es.Ez (V/m) @ t=0.6
-10.332557960958445
% es.tEx (V/m) @ t=0.6
9.433278997273025
% es.tEy (V/m) @ t=0.6
0
% es.tEz (V/m) @ t=0.6
-10.33255796095843
% V (V) @ t=0.6
0.012732097367220627
% es.normE (V/m) @ t=0.62
15.074915045844243
% es.EX (V/m) @ t=0.62
9.56671946759144
% es.EY (V/m) @ t=0.62
2.860719676666826
% es.EZ (V/m) @ t=0.62
-10.478726773681153
% es.tEX (V/m) @ t=0.62
9.566719467591437
% es.tEY (V/m) @ t=0.62
0
% es.tEZ (V/m) @ t=0.62
-10.478726773681132
% es.Ex (V/m) @ t=0.62
9.56671946759144
% es.Ey (V/m) @ t=0.62
2.860719676666826
% es.Ez (V/m) @ t=0.62
-10.478726773681153
% es.tEx (V/m) @ t=0.62
9.566719467591437
% es.tEy (V/m) @ t=0.62
0
% es.tEz (V/m) @ t=0.62
-10.478726773681132
% V (V) @ t=0.62
0.012912220637632086
% es.normE (V/m) @ t=0.64
15.28718275041962
% es.EX (V/m) @ t=0.64
9.701418871252013
% es.EY (V/m) @ t=0.64
2.901001410720442
% es.EZ (V/m) @ t=0.64
-10.626282707108626
% es.tEX (V/m) @ t=0.64
9.701418871251994
% es.tEY (V/m) @ t=0.64
0
% es.tEZ (V/m) @ t=0.64
-10.626282707108597
% es.Ex (V/m) @ t=0.64
9.701418871252013
% es.Ey (V/m) @ t=0.64
2.901001410720442
% es.Ez (V/m) @ t=0.64
-10.626282707108626
% es.tEx (V/m) @ t=0.64
9.701418871251994
% es.tEy (V/m) @ t=0.64
0
% es.tEz (V/m) @ t=0.64
-10.626282707108597
% V (V) @ t=0.64
0.013094063696761355
% es.normE (V/m) @ t=0.66
15.501441060714773
% es.EX (V/m) @ t=0.66
9.83737720825465
% es.EY (V/m) @ t=0.66
2.9416610814329234
% es.EZ (V/m) @ t=0.66
-10.775225761240872
% es.tEX (V/m) @ t=0.66
9.837377208254619
% es.tEY (V/m) @ t=0.66
0
% es.tEZ (V/m) @ t=0.66
-10.775225761240842
% es.Ex (V/m) @ t=0.66
9.83737720825465
% es.Ey (V/m) @ t=0.66
2.9416610814329234
% es.Ez (V/m) @ t=0.66
-10.775225761240872
% es.tEx (V/m) @ t=0.66
9.837377208254619
% es.tEy (V/m) @ t=0.66
0
% es.tEz (V/m) @ t=0.66
-10.775225761240842
% V (V) @ t=0.66
0.013277626544608427
% es.normE (V/m) @ t=0.68
15.717689976746732
% es.EX (V/m) @ t=0.68
9.974594478599391
% es.EY (V/m) @ t=0.68
2.982698688804289
% es.EZ (V/m) @ t=0.68
-10.925555936077867
% es.tEX (V/m) @ t=0.68
9.974594478599371
% es.tEY (V/m) @ t=0.68
0
% es.tEZ (V/m) @ t=0.68
-10.925555936077853
% es.Ex (V/m) @ t=0.68
9.974594478599391
% es.Ey (V/m) @ t=0.68
2.982698688804289
% es.Ez (V/m) @ t=0.68
-10.925555936077867
% es.tEx (V/m) @ t=0.68
9.974594478599371
% es.tEy (V/m) @ t=0.68
0
% es.tEz (V/m) @ t=0.68
-10.925555936077853
% V (V) @ t=0.68
0.013462909181173304
% es.normE (V/m) @ t=0.7
15.935929498537583
% es.EX (V/m) @ t=0.7
10.113070682286262
% es.EY (V/m) @ t=0.7
3.0241142328345627
% es.EZ (V/m) @ t=0.7
-11.077273231619637
% es.tEX (V/m) @ t=0.7
10.11307068228622
% es.tEY (V/m) @ t=0.7
0
% es.tEZ (V/m) @ t=0.7
-11.077273231619609
% es.Ex (V/m) @ t=0.7
10.113070682286262
% es.Ey (V/m) @ t=0.7
3.0241142328345627
% es.Ez (V/m) @ t=0.7
-11.077273231619637
% es.tEx (V/m) @ t=0.7
10.11307068228622
% es.tEy (V/m) @ t=0.7
0
% es.tEz (V/m) @ t=0.7
-11.077273231619609
% V (V) @ t=0.7
0.013649911606455985
% es.normE (V/m) @ t=0.72
16.15615962611404
% es.EX (V/m) @ t=0.72
10.25280581931521
% es.EY (V/m) @ t=0.72
3.0659077135237194
% es.EZ (V/m) @ t=0.72
-11.230377647866158
% es.tEX (V/m) @ t=0.72
10.252805819315197
% es.tEY (V/m) @ t=0.72
0
% es.tEZ (V/m) @ t=0.72
-11.230377647866144
% es.Ex (V/m) @ t=0.72
10.25280581931521
% es.Ey (V/m) @ t=0.72
3.0659077135237194
% es.Ez (V/m) @ t=0.72
-11.230377647866158
% es.tEx (V/m) @ t=0.72
10.252805819315197
% es.tEy (V/m) @ t=0.72
0
% es.tEz (V/m) @ t=0.72
-11.230377647866144
% V (V) @ t=0.72
0.013838633820456471
% es.normE (V/m) @ t=0.74
16.378380359507325
% es.EX (V/m) @ t=0.74
10.393799889686296
% es.EY (V/m) @ t=0.74
3.108079130871696
% es.EZ (V/m) @ t=0.74
-11.384869184817452
% es.tEX (V/m) @ t=0.74
10.393799889686278
% es.tEY (V/m) @ t=0.74
0
% es.tEZ (V/m) @ t=0.74
-11.384869184817422
% es.Ex (V/m) @ t=0.74
10.393799889686296
% es.Ey (V/m) @ t=0.74
3.108079130871696
% es.Ez (V/m) @ t=0.74
-11.384869184817452
% es.tEx (V/m) @ t=0.74
10.393799889686278
% es.tEy (V/m) @ t=0.74
0
% es.tEz (V/m) @ t=0.74
-11.384869184817422
% V (V) @ t=0.74
0.01402907582317476
% es.normE (V/m) @ t=0.76
16.602591698752562
% es.EX (V/m) @ t=0.76
10.53605289339945
% es.EY (V/m) @ t=0.76
3.1506284848786463
% es.EZ (V/m) @ t=0.76
-11.540747842473532
% es.tEX (V/m) @ t=0.76
10.536052893399425
% es.tEY (V/m) @ t=0.76
0
% es.tEZ (V/m) @ t=0.76
-11.54074784247351
% es.Ex (V/m) @ t=0.76
10.53605289339945
% es.Ey (V/m) @ t=0.76
3.1506284848786463
% es.Ez (V/m) @ t=0.76
-11.540747842473532
% es.tEx (V/m) @ t=0.76
10.536052893399425
% es.tEy (V/m) @ t=0.76
0
% es.tEz (V/m) @ t=0.76
-11.54074784247351
% V (V) @ t=0.76
0.014221237614610851
% es.normE (V/m) @ t=0.78
16.828793643888684
% es.EX (V/m) @ t=0.78
10.67956483045476
% es.EY (V/m) @ t=0.78
3.1935557755444863
% es.EZ (V/m) @ t=0.78
-11.698013620834363
% es.tEX (V/m) @ t=0.78
10.67956483045474
% es.tEY (V/m) @ t=0.78
0
% es.tEZ (V/m) @ t=0.78
-11.698013620834335
% es.Ex (V/m) @ t=0.78
10.67956483045476
% es.Ey (V/m) @ t=0.78
3.1935557755444863
% es.Ez (V/m) @ t=0.78
-11.698013620834363
% es.tEx (V/m) @ t=0.78
10.67956483045474
% es.tEy (V/m) @ t=0.78
0
% es.tEz (V/m) @ t=0.78
-11.698013620834335
% V (V) @ t=0.78
0.014415119194764748
% es.normE (V/m) @ t=0.8
17.056986194957986
% es.EX (V/m) @ t=0.8
10.824335700852131
% es.EY (V/m) @ t=0.8
3.236861002869203
% es.EZ (V/m) @ t=0.8
-11.856666519899953
% es.tEX (V/m) @ t=0.8
10.824335700852105
% es.tEY (V/m) @ t=0.8
0
% es.tEZ (V/m) @ t=0.8
-11.856666519899925
% es.Ex (V/m) @ t=0.8
10.824335700852131
% es.Ey (V/m) @ t=0.8
3.236861002869203
% es.Ez (V/m) @ t=0.8
-11.856666519899953
% es.tEx (V/m) @ t=0.8
10.824335700852105
% es.tEy (V/m) @ t=0.8
0
% es.tEz (V/m) @ t=0.8
-11.856666519899925
% V (V) @ t=0.8
0.014610720563636454
% es.normE (V/m) @ t=0.82
17.287983775328176
% es.EX (V/m) @ t=0.82
10.97089364711477
% es.EY (V/m) @ t=0.82
3.280698233362857
% es.EZ (V/m) @ t=0.82
-12.017263698718047
% es.tEX (V/m) @ t=0.82
10.970893647114746
% es.tEY (V/m) @ t=0.82
0
% es.tEZ (V/m) @ t=0.82
-12.017263698718033
% es.Ex (V/m) @ t=0.82
10.97089364711477
% es.Ey (V/m) @ t=0.82
3.280698233362857
% es.Ez (V/m) @ t=0.82
-12.017263698718047
% es.tEx (V/m) @ t=0.82
10.970893647114746
% es.tEy (V/m) @ t=0.82
0
% es.tEz (V/m) @ t=0.82
-12.017263698718033
% V (V) @ t=0.82
0.014808700770774208
% es.normE (V/m) @ t=0.84
17.52422007944908
% es.EX (V/m) @ t=0.84
11.120816887271449
% es.EY (V/m) @ t=0.84
3.3255278551464684
% es.EZ (V/m) @ t=0.84
-12.181470083734595
% es.tEX (V/m) @ t=0.84
11.120816887271415
% es.tEY (V/m) @ t=0.84
0
% es.tEZ (V/m) @ t=0.84
-12.181470083734581
% es.Ex (V/m) @ t=0.84
11.120816887271449
% es.Ey (V/m) @ t=0.84
3.3255278551464684
% es.Ez (V/m) @ t=0.84
-12.181470083734595
% es.tEx (V/m) @ t=0.84
11.120816887271415
% es.tEy (V/m) @ t=0.84
0
% es.tEz (V/m) @ t=0.84
-12.181470083734581
% V (V) @ t=0.84
0.01501102921616631
% es.normE (V/m) @ t=0.86
17.76298769037856
% es.EX (V/m) @ t=0.86
11.272349698048721
% es.EY (V/m) @ t=0.86
3.370837699353574
% es.EZ (V/m) @ t=0.86
-12.347433490995078
% es.tEX (V/m) @ t=0.86
11.2723496980487
% es.tEY (V/m) @ t=0.86
0
% es.tEZ (V/m) @ t=0.86
-12.347433490995048
% es.Ex (V/m) @ t=0.86
11.272349698048721
% es.Ey (V/m) @ t=0.86
3.370837699353574
% es.Ez (V/m) @ t=0.86
-12.347433490995078
% es.tEx (V/m) @ t=0.86
11.2723496980487
% es.tEy (V/m) @ t=0.86
0
% es.tEz (V/m) @ t=0.86
-12.347433490995048
% V (V) @ t=0.86
0.01521551499758566
% es.normE (V/m) @ t=0.88
18.004286608126797
% es.EX (V/m) @ t=0.88
11.425492079446636
% es.EY (V/m) @ t=0.88
3.4166277659841313
% es.EZ (V/m) @ t=0.88
-12.515153920499372
% es.tEX (V/m) @ t=0.88
11.425492079446602
% es.tEY (V/m) @ t=0.88
0
% es.tEZ (V/m) @ t=0.88
-12.515153920499358
% es.Ex (V/m) @ t=0.88
11.425492079446636
% es.Ey (V/m) @ t=0.88
3.4166277659841313
% es.Ez (V/m) @ t=0.88
-12.515153920499372
% es.tEx (V/m) @ t=0.88
11.425492079446602
% es.tEy (V/m) @ t=0.88
0
% es.tEz (V/m) @ t=0.88
-12.515153920499358
% V (V) @ t=0.88
0.015422158115032244
% es.normE (V/m) @ t=0.9
18.248116832706437
% es.EX (V/m) @ t=0.9
11.580244031465144
% es.EY (V/m) @ t=0.9
3.462898055038252
% es.EZ (V/m) @ t=0.9
-12.684631372247688
% es.tEX (V/m) @ t=0.9
11.580244031465117
% es.tEY (V/m) @ t=0.9
0
% es.tEZ (V/m) @ t=0.9
-12.68463137224766
% es.Ex (V/m) @ t=0.9
11.580244031465144
% es.Ey (V/m) @ t=0.9
3.462898055038252
% es.Ez (V/m) @ t=0.9
-12.684631372247688
% es.tEx (V/m) @ t=0.9
11.580244031465117
% es.tEy (V/m) @ t=0.9
0
% es.tEz (V/m) @ t=0.9
-12.68463137224766
% V (V) @ t=0.9
0.015630958568506083
% es.normE (V/m) @ t=0.92
18.494478364132114
% es.EX (V/m) @ t=0.92
11.736605554104306
% es.EY (V/m) @ t=0.92
3.509648566515896
% es.EZ (V/m) @ t=0.92
-12.855865846239837
% es.tEX (V/m) @ t=0.92
11.736605554104273
% es.tEY (V/m) @ t=0.92
0
% es.tEZ (V/m) @ t=0.92
-12.855865846239809
% es.Ex (V/m) @ t=0.92
11.736605554104306
% es.Ey (V/m) @ t=0.92
3.509648566515896
% es.Ez (V/m) @ t=0.92
-12.855865846239837
% es.tEx (V/m) @ t=0.92
11.736605554104273
% es.tEy (V/m) @ t=0.92
0
% es.tEz (V/m) @ t=0.92
-12.855865846239809
% V (V) @ t=0.92
0.015841916358007153
% es.normE (V/m) @ t=0.94
18.743371202420512
% es.EX (V/m) @ t=0.94
11.894576647364048
% es.EY (V/m) @ t=0.94
3.55687930041697
% es.EZ (V/m) @ t=0.94
-13.0288573424759
% es.tEX (V/m) @ t=0.94
11.894576647364023
% es.tEY (V/m) @ t=0.94
0
% es.tEZ (V/m) @ t=0.94
-13.02885734247587
% es.Ex (V/m) @ t=0.94
11.894576647364048
% es.Ey (V/m) @ t=0.94
3.55687930041697
% es.Ez (V/m) @ t=0.94
-13.0288573424759
% es.tEx (V/m) @ t=0.94
11.894576647364023
% es.tEy (V/m) @ t=0.94
0
% es.tEz (V/m) @ t=0.94
-13.02885734247587
% V (V) @ t=0.94
0.016055031483535466
% es.normE (V/m) @ t=0.96
18.994795347590262
% es.EX (V/m) @ t=0.96
12.054157311244408
% es.EY (V/m) @ t=0.96
3.60459025674153
% es.EZ (V/m) @ t=0.96
-13.203605860955868
% es.tEX (V/m) @ t=0.96
12.05415731124437
% es.tEY (V/m) @ t=0.96
0
% es.tEZ (V/m) @ t=0.96
-13.20360586095584
% es.Ex (V/m) @ t=0.96
12.054157311244408
% es.Ey (V/m) @ t=0.96
3.60459025674153
% es.Ez (V/m) @ t=0.96
-13.203605860955868
% es.tEx (V/m) @ t=0.96
12.05415731124437
% es.tEy (V/m) @ t=0.96
0
% es.tEz (V/m) @ t=0.96
-13.20360586095584
% V (V) @ t=0.96
0.016270303945091023
% es.normE (V/m) @ t=0.98
19.248750799661657
% es.EX (V/m) @ t=0.98
12.215347545745404
% es.EY (V/m) @ t=0.98
3.652781435489704
% es.EZ (V/m) @ t=0.98
-13.380111401679729
% es.tEX (V/m) @ t=0.98
12.215347545745374
% es.tEY (V/m) @ t=0.98
0
% es.tEZ (V/m) @ t=0.98
-13.380111401679684
% es.Ex (V/m) @ t=0.98
12.215347545745404
% es.Ey (V/m) @ t=0.98
3.652781435489704
% es.Ez (V/m) @ t=0.98
-13.380111401679729
% es.tEx (V/m) @ t=0.98
12.215347545745374
% es.tEy (V/m) @ t=0.98
0
% es.tEz (V/m) @ t=0.98
-13.380111401679684
% V (V) @ t=0.98
0.016487733742673823
% es.normE (V/m) @ t=1
19.505237558656503
% es.EX (V/m) @ t=1
12.378147350867003
% es.EY (V/m) @ t=1
3.7014528366612875
% es.EZ (V/m) @ t=1
-13.55837396464748
% es.tEX (V/m) @ t=1
12.378147350866975
% es.tEY (V/m) @ t=1
0
% es.tEZ (V/m) @ t=1
-13.55837396464745
% es.Ex (V/m) @ t=1
12.378147350867003
% es.Ey (V/m) @ t=1
3.7014528366612875
% es.Ez (V/m) @ t=1
-13.55837396464748
% es.tEx (V/m) @ t=1
12.378147350866975
% es.tEy (V/m) @ t=1
0
% es.tEz (V/m) @ t=1
-13.55837396464745
% V (V) @ t=1
0.01670732087628387
% es.normE (V/m) @ t=1.02
19.764255624598135
% es.EX (V/m) @ t=1.02
12.542556726609202
% es.EY (V/m) @ t=1.02
3.7506044602563513
% es.EZ (V/m) @ t=1.02
-13.738393549859108
% es.tEX (V/m) @ t=1.02
12.542556726609174
% es.tEY (V/m) @ t=1.02
0
% es.tEZ (V/m) @ t=1.02
-13.738393549859092
% es.Ex (V/m) @ t=1.02
12.542556726609202
% es.Ey (V/m) @ t=1.02
3.7506044602563513
% es.Ez (V/m) @ t=1.02
-13.738393549859108
% es.tEx (V/m) @ t=1.02
12.542556726609174
% es.tEy (V/m) @ t=1.02
0
% es.tEz (V/m) @ t=1.02
-13.738393549859092
% V (V) @ t=1.02
0.01692906534592115
% es.normE (V/m) @ t=1.04
20.025804997511223
% es.EX (V/m) @ t=1.04
12.708575672972056
% es.EY (V/m) @ t=1.04
3.8002363062749573
% es.EZ (V/m) @ t=1.04
-13.920170157314685
% es.tEX (V/m) @ t=1.04
12.708575672972033
% es.tEY (V/m) @ t=1.04
0
% es.tEZ (V/m) @ t=1.04
-13.92017015731464
% es.Ex (V/m) @ t=1.04
12.708575672972056
% es.Ey (V/m) @ t=1.04
3.8002363062749573
% es.Ez (V/m) @ t=1.04
-13.920170157314685
% es.tEx (V/m) @ t=1.04
12.708575672972033
% es.tEy (V/m) @ t=1.04
0
% es.tEz (V/m) @ t=1.04
-13.92017015731464
% V (V) @ t=1.04
0.017152967151585673