% Model:              1 neuron.mph
% Version:            COMSOL 6.0.0.405
% Date:               Mar 16 2023, 19:05
% Dimension:          0
% Nodes:              14017
% Expressions:        14017
% Description:        Electric field norm, Electric field, X component, Electric field, Y component, Electric field, Z component, Tangential electric field, X component, Tangential electric field, Y component, Tangential electric field, Z component, Electric field, x component, Electric field, y component, Electric field, z component, Tangential electric field, x component, Tangential electric field, y component, Tangential electric field, z component, Electric potential
% Length unit:        mm
% x
1.33
% y
12.2
% z
2
% es.normE (V/m) @ t=0
2.1806811685241856
% es.EX (V/m) @ t=0
0.8690848666716653
% es.EY (V/m) @ t=0
0.22977012088271032
% es.EZ (V/m) @ t=0
-1.9850096008249531
% es.tEX (V/m) @ t=0
0.8690848666716655
% es.tEY (V/m) @ t=0
0
% es.tEZ (V/m) @ t=0
-1.985009600824954
% es.Ex (V/m) @ t=0
0.8690848666716653
% es.Ey (V/m) @ t=0
0.22977012088271032
% es.Ez (V/m) @ t=0
-1.9850096008249531
% es.tEx (V/m) @ t=0
0.8690848666716655
% es.tEy (V/m) @ t=0
0
% es.tEz (V/m) @ t=0
-1.985009600824954
% V (V) @ t=0
0.010903597026502102
% es.normE (V/m) @ t=0.02
1.8939395007178859
% es.EX (V/m) @ t=0.02
0.7548073433445088
% es.EY (V/m) @ t=0.02
0.19955724029611766
% es.EZ (V/m) @ t=0.02
-1.7239971369695501
% es.tEX (V/m) @ t=0.02
0.7548073433445057
% es.tEY (V/m) @ t=0.02
0
% es.tEZ (V/m) @ t=0.02
-1.7239971369695546
% es.Ex (V/m) @ t=0.02
0.7548073433445088
% es.Ey (V/m) @ t=0.02
0.19955724029611766
% es.Ez (V/m) @ t=0.02
-1.7239971369695501
% es.tEx (V/m) @ t=0.02
0.7548073433445057
% es.tEy (V/m) @ t=0.02
0
% es.tEz (V/m) @ t=0.02
-1.7239971369695546
% V (V) @ t=0.02
0.009469863449793215
% es.normE (V/m) @ t=0.04
1.9220237556104547
% es.EX (V/m) @ t=0.04
0.7659999957703598
% es.EY (V/m) @ t=0.04
0.2025163914029795
% es.EZ (V/m) @ t=0.04
-1.749561401196071
% es.tEX (V/m) @ t=0.04
0.7659999957703567
% es.tEY (V/m) @ t=0.04
0
% es.tEZ (V/m) @ t=0.04
-1.7495614011960772
% es.Ex (V/m) @ t=0.04
0.7659999957703598
% es.Ey (V/m) @ t=0.04
0.2025163914029795
% es.Ez (V/m) @ t=0.04
-1.749561401196071
% es.tEx (V/m) @ t=0.04
0.7659999957703567
% es.tEy (V/m) @ t=0.04
0
% es.tEz (V/m) @ t=0.04
-1.7495614011960772
% V (V) @ t=0.04
0.009610286664655921
% es.normE (V/m) @ t=0.06
1.9505286845324237
% es.EX (V/m) @ t=0.06
0.7773603026761926
% es.EY (V/m) @ t=0.06
0.20551986555995683
% es.EZ (V/m) @ t=0.06
-1.7755085927999543
% es.tEX (V/m) @ t=0.06
0.7773603026761893
% es.tEY (V/m) @ t=0.06
0
% es.tEZ (V/m) @ t=0.06
-1.775508592799964
% es.Ex (V/m) @ t=0.06
0.7773603026761926
% es.Ey (V/m) @ t=0.06
0.20551986555995683
% es.Ez (V/m) @ t=0.06
-1.7755085927999543
% es.tEx (V/m) @ t=0.06
0.7773603026761893
% es.tEy (V/m) @ t=0.06
0
% es.tEz (V/m) @ t=0.06
-1.775508592799964
% V (V) @ t=0.06
0.009752813331112787
% es.normE (V/m) @ t=0.08
1.9797623635145345
% es.EX (V/m) @ t=0.08
0.7890110425752017
% es.EY (V/m) @ t=0.08
0.20860011140142376
% es.EZ (V/m) @ t=0.08
-1.8021191460107353
% es.tEX (V/m) @ t=0.08
0.7890110425752019
% es.tEY (V/m) @ t=0.08
0
% es.tEZ (V/m) @ t=0.08
-1.802119146010737
% es.Ex (V/m) @ t=0.08
0.7890110425752017
% es.Ey (V/m) @ t=0.08
0.20860011140142376
% es.Ez (V/m) @ t=0.08
-1.8021191460107353
% es.tEx (V/m) @ t=0.08
0.7890110425752019
% es.tEy (V/m) @ t=0.08
0
% es.tEz (V/m) @ t=0.08
-1.802119146010737
% V (V) @ t=0.08
0.009898984184797755
% es.normE (V/m) @ t=0.1
2.009501039431771
% es.EX (V/m) @ t=0.1
0.8008630418352065
% es.EY (V/m) @ t=0.1
0.2117335571909642
% es.EZ (V/m) @ t=0.1
-1.8291893843682931
% es.tEX (V/m) @ t=0.1
0.8008630418352034
% es.tEY (V/m) @ t=0.1
0
% es.tEZ (V/m) @ t=0.1
-1.8291893843682967
% es.Ex (V/m) @ t=0.1
0.8008630418352065
% es.Ey (V/m) @ t=0.1
0.2117335571909642
% es.Ez (V/m) @ t=0.1
-1.8291893843682931
% es.tEx (V/m) @ t=0.1
0.8008630418352034
% es.tEy (V/m) @ t=0.1
0
% es.tEz (V/m) @ t=0.1
-1.8291893843682967
% V (V) @ t=0.1
0.010047680325932997
% es.normE (V/m) @ t=0.12
2.039239715349007
% es.EX (V/m) @ t=0.12
0.8127150410952144
% es.EY (V/m) @ t=0.12
0.21486700298049488
% es.EZ (V/m) @ t=0.12
-1.8562596227258483
% es.tEX (V/m) @ t=0.12
0.8127150410952111
% es.tEY (V/m) @ t=0.12
0
% es.tEZ (V/m) @ t=0.12
-1.8562596227258528
% es.Ex (V/m) @ t=0.12
0.8127150410952144
% es.Ey (V/m) @ t=0.12
0.21486700298049488
% es.Ez (V/m) @ t=0.12
-1.8562596227258483
% es.tEx (V/m) @ t=0.12
0.8127150410952111
% es.tEy (V/m) @ t=0.12
0
% es.tEz (V/m) @ t=0.12
-1.8562596227258528
% V (V) @ t=0.12
0.010196376467068237
% es.normE (V/m) @ t=0.14
2.0694899405127645
% es.EX (V/m) @ t=0.14
0.8247709122512596
% es.EY (V/m) @ t=0.14
0.21805434847906202
% es.EZ (V/m) @ t=0.14
-1.8837955092863599
% es.tEX (V/m) @ t=0.14
0.8247709122512599
% es.tEY (V/m) @ t=0.14
0
% es.tEZ (V/m) @ t=0.14
-1.8837955092863634
% es.Ex (V/m) @ t=0.14
0.8247709122512596
% es.Ey (V/m) @ t=0.14
0.21805434847906202
% es.Ez (V/m) @ t=0.14
-1.8837955092863599
% es.tEx (V/m) @ t=0.14
0.8247709122512599
% es.tEy (V/m) @ t=0.14
0
% es.tEz (V/m) @ t=0.14
-1.8837955092863634
% V (V) @ t=0.14
0.010347630408967577
% es.normE (V/m) @ t=0.16
2.1019024094453416
% es.EX (V/m) @ t=0.16
0.8376885200628974
% es.EY (V/m) @ t=0.16
0.2214695201562309
% es.EZ (V/m) @ t=0.16
-1.9132996226249128
% es.tEX (V/m) @ t=0.16
0.8376885200628976
% es.tEY (V/m) @ t=0.16
0
% es.tEZ (V/m) @ t=0.16
-1.9132996226249173
% es.Ex (V/m) @ t=0.16
0.8376885200628974
% es.Ey (V/m) @ t=0.16
0.2214695201562309
% es.Ez (V/m) @ t=0.16
-1.9132996226249128
% es.tEx (V/m) @ t=0.16
0.8376885200628976
% es.tEy (V/m) @ t=0.16
0
% es.tEz (V/m) @ t=0.16
-1.9132996226249173
% V (V) @ t=0.16
0.010509695800207611
% es.normE (V/m) @ t=0.18
2.1343148783779156
% es.EX (V/m) @ t=0.18
0.8506061278745216
% es.EY (V/m) @ t=0.18
0.22488469183340598
% es.EZ (V/m) @ t=0.18
-1.9428037359634684
% es.tEX (V/m) @ t=0.18
0.8506061278745221
% es.tEY (V/m) @ t=0.18
0
% es.tEZ (V/m) @ t=0.18
-1.9428037359634747
% es.Ex (V/m) @ t=0.18
0.8506061278745216
% es.Ey (V/m) @ t=0.18
0.22488469183340598
% es.Ez (V/m) @ t=0.18
-1.9428037359634684
% es.tEx (V/m) @ t=0.18
0.8506061278745221
% es.tEy (V/m) @ t=0.18
0
% es.tEz (V/m) @ t=0.18
-1.9428037359634747
% V (V) @ t=0.18
0.01067176119144765
% es.normE (V/m) @ t=0.2
2.166727347310484
% es.EX (V/m) @ t=0.2
0.8635237356861452
% es.EY (V/m) @ t=0.2
0.22829986351058995
% es.EZ (V/m) @ t=0.2
-1.9723078493020179
% es.tEX (V/m) @ t=0.2
0.8635237356861456
% es.tEY (V/m) @ t=0.2
0
% es.tEZ (V/m) @ t=0.2
-1.9723078493020232
% es.Ex (V/m) @ t=0.2
0.8635237356861452
% es.Ey (V/m) @ t=0.2
0.22829986351058995
% es.Ez (V/m) @ t=0.2
-1.9723078493020179
% es.tEx (V/m) @ t=0.2
0.8635237356861456
% es.tEy (V/m) @ t=0.2
0
% es.tEz (V/m) @ t=0.2
-1.9723078493020232
% V (V) @ t=0.2
0.010833826582687682
% es.normE (V/m) @ t=0.22
2.1991398162430507
% es.EX (V/m) @ t=0.22
0.8764413434977623
% es.EY (V/m) @ t=0.22
0.23171503518774905
% es.EZ (V/m) @ t=0.22
-2.001811962640569
% es.tEX (V/m) @ t=0.22
0.8764413434977625
% es.tEY (V/m) @ t=0.22
0
% es.tEZ (V/m) @ t=0.22
-2.0018119626405753
% es.Ex (V/m) @ t=0.22
0.8764413434977623
% es.Ey (V/m) @ t=0.22
0.23171503518774905
% es.Ez (V/m) @ t=0.22
-2.001811962640569
% es.tEx (V/m) @ t=0.22
0.8764413434977625
% es.tEy (V/m) @ t=0.22
0
% es.tEz (V/m) @ t=0.22
-2.0018119626405753
% V (V) @ t=0.22
0.010995891973927717
% es.normE (V/m) @ t=0.24
2.2315522851756153
% es.EX (V/m) @ t=0.24
0.8893589513093787
% es.EY (V/m) @ t=0.24
0.2351302068649357
% es.EZ (V/m) @ t=0.24
-2.0313160759791167
% es.tEX (V/m) @ t=0.24
0.8893589513093789
% es.tEY (V/m) @ t=0.24
0
% es.tEZ (V/m) @ t=0.24
-2.031316075979124
% es.Ex (V/m) @ t=0.24
0.8893589513093787
% es.Ey (V/m) @ t=0.24
0.2351302068649357
% es.Ez (V/m) @ t=0.24
-2.0313160759791167
% es.tEx (V/m) @ t=0.24
0.8893589513093789
% es.tEy (V/m) @ t=0.24
0
% es.tEz (V/m) @ t=0.24
-2.031316075979124
% V (V) @ t=0.24
0.011157957365167753
% es.normE (V/m) @ t=0.26
2.2639647541081858
% es.EX (V/m) @ t=0.26
0.9022765591210058
% es.EY (V/m) @ t=0.26
0.23854537854210456
% es.EZ (V/m) @ t=0.26
-2.060820189317668
% es.tEX (V/m) @ t=0.26
0.9022765591210025
% es.tEY (V/m) @ t=0.26
0
% es.tEZ (V/m) @ t=0.26
-2.0608201893176705
% es.Ex (V/m) @ t=0.26
0.9022765591210058
% es.Ey (V/m) @ t=0.26
0.23854537854210456
% es.Ez (V/m) @ t=0.26
-2.060820189317668
% es.tEx (V/m) @ t=0.26
0.9022765591210025
% es.tEy (V/m) @ t=0.26
0
% es.tEz (V/m) @ t=0.26
-2.0608201893176705
% V (V) @ t=0.26
0.01132002275640779
% es.normE (V/m) @ t=0.28
2.297510423894106
% es.EX (V/m) @ t=0.28
0.9156457897108383
% es.EY (V/m) @ t=0.28
0.24207994250745468
% es.EZ (V/m) @ t=0.28
-2.0913558231286897
% es.tEX (V/m) @ t=0.28
0.9156457897108385
% es.tEY (V/m) @ t=0.28
0
% es.tEZ (V/m) @ t=0.28
-2.091355823128689
% es.Ex (V/m) @ t=0.28
0.9156457897108383
% es.Ey (V/m) @ t=0.28
0.24207994250745468
% es.Ez (V/m) @ t=0.28
-2.0913558231286897
% es.tEx (V/m) @ t=0.28
0.9156457897108385
% es.tEy (V/m) @ t=0.28
0
% es.tEz (V/m) @ t=0.28
-2.091355823128689
% V (V) @ t=0.28
0.011487754483325582
% es.normE (V/m) @ t=0.3
2.332809304831117
% es.EX (V/m) @ t=0.3
0.9297137402923781
% es.EY (V/m) @ t=0.3
0.24579922208645133
% es.EZ (V/m) @ t=0.3
-2.1234873551333635
% es.tEX (V/m) @ t=0.3
0.9297137402923785
% es.tEY (V/m) @ t=0.3
0
% es.tEZ (V/m) @ t=0.3
-2.1234873551333706
% es.Ex (V/m) @ t=0.3
0.9297137402923781
% es.Ey (V/m) @ t=0.3
0.24579922208645133
% es.Ez (V/m) @ t=0.3
-2.1234873551333635
% es.tEx (V/m) @ t=0.3
0.9297137402923785
% es.tEy (V/m) @ t=0.3
0
% es.tEz (V/m) @ t=0.3
-2.1234873551333706
% V (V) @ t=0.3
0.011664252778735298
% es.normE (V/m) @ t=0.32
2.3681081857681128
% es.EX (V/m) @ t=0.32
0.9437816908739134
% es.EY (V/m) @ t=0.32
0.24951850166542933
% es.EZ (V/m) @ t=0.32
-2.155618887138024
% es.tEX (V/m) @ t=0.32
0.9437816908739101
% es.tEY (V/m) @ t=0.32
0
% es.tEZ (V/m) @ t=0.32
-2.1556188871380293
% es.Ex (V/m) @ t=0.32
0.9437816908739134
% es.Ey (V/m) @ t=0.32
0.24951850166542933
% es.Ez (V/m) @ t=0.32
-2.155618887138024
% es.tEx (V/m) @ t=0.32
0.9437816908739101
% es.tEy (V/m) @ t=0.32
0
% es.tEz (V/m) @ t=0.32
-2.1556188871380293
% V (V) @ t=0.32
0.011840751074145018
% es.normE (V/m) @ t=0.34
2.4034070667051246
% es.EX (V/m) @ t=0.34
0.9578496414554563
% es.EY (V/m) @ t=0.34
0.25323778124439134
% es.EZ (V/m) @ t=0.34
-2.1877504191427004
% es.tEX (V/m) @ t=0.34
0.9578496414554567
% es.tEY (V/m) @ t=0.34
0
% es.tEZ (V/m) @ t=0.34
-2.1877504191427004
% es.Ex (V/m) @ t=0.34
0.9578496414554563
% es.Ey (V/m) @ t=0.34
0.25323778124439134
% es.Ez (V/m) @ t=0.34
-2.1877504191427004
% es.tEx (V/m) @ t=0.34
0.9578496414554567
% es.tEy (V/m) @ t=0.34
0
% es.tEz (V/m) @ t=0.34
-2.1877504191427004
% V (V) @ t=0.34
0.012017249369554738
% es.normE (V/m) @ t=0.36
2.4387059476421227
% es.EX (V/m) @ t=0.36
0.9719175920369953
% es.EY (V/m) @ t=0.36
0.2569570608233809
% es.EZ (V/m) @ t=0.36
-2.219881951147359
% es.tEX (V/m) @ t=0.36
0.9719175920369958
% es.tEY (V/m) @ t=0.36
0
% es.tEZ (V/m) @ t=0.36
-2.219881951147368
% es.Ex (V/m) @ t=0.36
0.9719175920369953
% es.Ey (V/m) @ t=0.36
0.2569570608233809
% es.Ez (V/m) @ t=0.36
-2.219881951147359
% es.tEx (V/m) @ t=0.36
0.9719175920369958
% es.tEy (V/m) @ t=0.36
0
% es.tEz (V/m) @ t=0.36
-2.219881951147368
% V (V) @ t=0.36
0.012193747664964456
% es.normE (V/m) @ t=0.38
2.4740048285791367
% es.EX (V/m) @ t=0.38
0.9859855426185349
% es.EY (V/m) @ t=0.38
0.26067634040236687
% es.EZ (V/m) @ t=0.38
-2.2520134831520355
% es.tEX (V/m) @ t=0.38
0.9859855426185353
% es.tEY (V/m) @ t=0.38
0
% es.tEZ (V/m) @ t=0.38
-2.252013483152041
% es.Ex (V/m) @ t=0.38
0.9859855426185349
% es.Ey (V/m) @ t=0.38
0.26067634040236687
% es.Ez (V/m) @ t=0.38
-2.2520134831520355
% es.tEx (V/m) @ t=0.38
0.9859855426185353
% es.tEy (V/m) @ t=0.38
0
% es.tEz (V/m) @ t=0.38
-2.252013483152041
% V (V) @ t=0.38
0.012370245960374176
% es.normE (V/m) @ t=0.4
2.5093037095161304
% es.EX (V/m) @ t=0.4
1.0000534932000527
% es.EY (V/m) @ t=0.4
0.264395619981344
% es.EZ (V/m) @ t=0.4
-2.2841450151566995
% es.tEX (V/m) @ t=0.4
1.0000534932000527
% es.tEY (V/m) @ t=0.4
0
% es.tEZ (V/m) @ t=0.4
-2.284145015156703
% es.Ex (V/m) @ t=0.4
1.0000534932000527
% es.Ey (V/m) @ t=0.4
0.264395619981344
% es.Ez (V/m) @ t=0.4
-2.2841450151566995
% es.tEx (V/m) @ t=0.4
1.0000534932000527
% es.tEy (V/m) @ t=0.4
0
% es.tEz (V/m) @ t=0.4
-2.284145015156703
% V (V) @ t=0.4
0.012546744255783894
% es.normE (V/m) @ t=0.42
2.546445940838363
% es.EX (V/m) @ t=0.42
1.0148560929867139
% es.EY (V/m) @ t=0.42
0.26830915432557223
% es.EZ (V/m) @ t=0.42
-2.317954490584656
% es.tEX (V/m) @ t=0.42
1.0148560929867143
% es.tEY (V/m) @ t=0.42
0
% es.tEZ (V/m) @ t=0.42
-2.3179544905846683
% es.Ex (V/m) @ t=0.42
1.0148560929867139
% es.Ey (V/m) @ t=0.42
0.26830915432557223
% es.Ez (V/m) @ t=0.42
-2.317954490584656
% es.tEx (V/m) @ t=0.42
1.0148560929867143
% es.tEy (V/m) @ t=0.42
0
% es.tEz (V/m) @ t=0.42
-2.3179544905846683
% V (V) @ t=0.42
0.012732458721711654
% es.normE (V/m) @ t=0.44
2.584848746971274
% es.EX (V/m) @ t=0.44
1.030161082492675
% es.EY (V/m) @ t=0.44
0.2723555297541118
% es.EZ (V/m) @ t=0.44
-2.3529114273038125
% es.tEX (V/m) @ t=0.44
1.0301610824926755
% es.tEY (V/m) @ t=0.44
0
% es.tEZ (V/m) @ t=0.44
-2.352911427303816
% es.Ex (V/m) @ t=0.44
1.030161082492675
% es.Ey (V/m) @ t=0.44
0.2723555297541118
% es.Ez (V/m) @ t=0.44
-2.3529114273038125
% es.tEx (V/m) @ t=0.44
1.0301610824926755
% es.tEy (V/m) @ t=0.44
0
% es.tEz (V/m) @ t=0.44
-2.352911427303816
% V (V) @ t=0.44
0.01292447566409711
% es.normE (V/m) @ t=0.46
2.623251553104167
% es.EX (V/m) @ t=0.46
1.0454660719986077
% es.EY (V/m) @ t=0.46
0.2764019051826434
% es.EZ (V/m) @ t=0.46
-2.387868364022962
% es.tEX (V/m) @ t=0.46
1.0454660719986082
% es.tEY (V/m) @ t=0.46
0
% es.tEZ (V/m) @ t=0.46
-2.3878683640229745
% es.Ex (V/m) @ t=0.46
1.0454660719986077
% es.Ey (V/m) @ t=0.46
0.2764019051826434
% es.Ez (V/m) @ t=0.46
-2.387868364022962
% es.tEx (V/m) @ t=0.46
1.0454660719986082
% es.tEy (V/m) @ t=0.46
0
% es.tEz (V/m) @ t=0.46
-2.3878683640229745
% V (V) @ t=0.46
0.013116492606482563
% es.normE (V/m) @ t=0.48
2.6616543592370934
% es.EX (V/m) @ t=0.48
1.0607710615045827
% es.EY (V/m) @ t=0.48
0.280448280611159
% es.EZ (V/m) @ t=0.48
-2.422825300742131
% es.tEX (V/m) @ t=0.48
1.0607710615045827
% es.tEY (V/m) @ t=0.48
0
% es.tEZ (V/m) @ t=0.48
-2.4228253007421365
% es.Ex (V/m) @ t=0.48
1.0607710615045827
% es.Ey (V/m) @ t=0.48
0.280448280611159
% es.Ez (V/m) @ t=0.48
-2.422825300742131
% es.tEx (V/m) @ t=0.48
1.0607710615045827
% es.tEy (V/m) @ t=0.48
0
% es.tEz (V/m) @ t=0.48
-2.4228253007421365
% V (V) @ t=0.48
0.013308509548868018
% es.normE (V/m) @ t=0.5
2.7000571653700094
% es.EX (V/m) @ t=0.5
1.0760760510105585
% es.EY (V/m) @ t=0.5
0.28449465603970214
% es.EZ (V/m) @ t=0.5
-2.457782237461286
% es.tEX (V/m) @ t=0.5
1.076076051010559
% es.tEY (V/m) @ t=0.5
0
% es.tEZ (V/m) @ t=0.5
-2.457782237461288
% es.Ex (V/m) @ t=0.5
1.0760760510105585
% es.Ey (V/m) @ t=0.5
0.28449465603970214
% es.Ez (V/m) @ t=0.5
-2.457782237461286
% es.tEx (V/m) @ t=0.5
1.076076051010559
% es.tEy (V/m) @ t=0.5
0
% es.tEz (V/m) @ t=0.5
-2.457782237461288
% V (V) @ t=0.5
0.013500526491253469
% es.normE (V/m) @ t=0.52
2.7384599715029196
% es.EX (V/m) @ t=0.52
1.0913810405165187
% es.EY (V/m) @ t=0.52
0.2885410314682497
% es.EZ (V/m) @ t=0.52
-2.492739174180439
% es.tEX (V/m) @ t=0.52
1.0913810405165192
% es.tEY (V/m) @ t=0.52
0
% es.tEZ (V/m) @ t=0.52
-2.4927391741804463
% es.Ex (V/m) @ t=0.52
1.0913810405165187
% es.Ey (V/m) @ t=0.52
0.2885410314682497
% es.Ez (V/m) @ t=0.52
-2.492739174180439
% es.tEx (V/m) @ t=0.52
1.0913810405165192
% es.tEy (V/m) @ t=0.52
0
% es.tEz (V/m) @ t=0.52
-2.4927391741804463
% V (V) @ t=0.52
0.013692543433638925
% es.normE (V/m) @ t=0.54
2.7768627776358334
% es.EX (V/m) @ t=0.54
1.10668603002248
% es.EY (V/m) @ t=0.54
0.2925874068967689
% es.EZ (V/m) @ t=0.54
-2.5276961108995994
% es.tEX (V/m) @ t=0.54
1.1066860300224803
% es.tEY (V/m) @ t=0.54
0
% es.tEZ (V/m) @ t=0.54
-2.5276961108996048
% es.Ex (V/m) @ t=0.54
1.10668603002248
% es.Ey (V/m) @ t=0.54
0.2925874068967689
% es.Ez (V/m) @ t=0.54
-2.5276961108995994
% es.tEx (V/m) @ t=0.54
1.1066860300224803
% es.tEy (V/m) @ t=0.54
0
% es.tEz (V/m) @ t=0.54
-2.5276961108996048
% V (V) @ t=0.54
0.013884560376024379
% es.normE (V/m) @ t=0.56
2.816430462715811
% es.EX (V/m) @ t=0.56
1.1224552563544505
% es.EY (V/m) @ t=0.56
0.2967564273754615
% es.EZ (V/m) @ t=0.56
-2.5637134157392882
% es.tEX (V/m) @ t=0.56
1.122455256354451
% es.tEY (V/m) @ t=0.56
0
% es.tEZ (V/m) @ t=0.56
-2.5637134157393007
% es.Ex (V/m) @ t=0.56
1.1224552563544505
% es.Ey (V/m) @ t=0.56
0.2967564273754615
% es.Ez (V/m) @ t=0.56
-2.5637134157392882
% es.tEx (V/m) @ t=0.56
1.122455256354451
% es.tEy (V/m) @ t=0.56
0
% es.tEz (V/m) @ t=0.56
-2.5637134157393007
% V (V) @ t=0.56
0.014082404319016311
% es.normE (V/m) @ t=0.58
2.8566445496656363
% es.EX (V/m) @ t=0.58
1.1384820919025134
% es.EY (V/m) @ t=0.58
0.30099350470237773
% es.EZ (V/m) @ t=0.58
-2.600319128445351
% es.tEX (V/m) @ t=0.58
1.1384820919025138
% es.tEY (V/m) @ t=0.58
0
% es.tEZ (V/m) @ t=0.58
-2.60031912844536
% es.Ex (V/m) @ t=0.58
1.1384820919025134
% es.Ey (V/m) @ t=0.58
0.30099350470237773
% es.Ez (V/m) @ t=0.58
-2.600319128445351
% es.tEx (V/m) @ t=0.58
1.1384820919025138
% es.tEy (V/m) @ t=0.58
0
% es.tEz (V/m) @ t=0.58
-2.60031912844536
% V (V) @ t=0.58
0.014283481717378869
% es.normE (V/m) @ t=0.6
2.8972444656544782
% es.EX (V/m) @ t=0.6
1.1546626911089555
% es.EY (V/m) @ t=0.6
0.3052712042947947
% es.EZ (V/m) @ t=0.6
-2.6372760543087583
% es.tEX (V/m) @ t=0.6
1.1546626911089488
% es.tEY (V/m) @ t=0.6
0
% es.tEZ (V/m) @ t=0.6
-2.6372760543087637
% es.Ex (V/m) @ t=0.6
1.1546626911089555
% es.Ey (V/m) @ t=0.6
0.3052712042947947
% es.Ez (V/m) @ t=0.6
-2.6372760543087583
% es.tEx (V/m) @ t=0.6
1.1546626911089488
% es.tEy (V/m) @ t=0.6
0
% es.tEz (V/m) @ t=0.6
-2.6372760543087637
% V (V) @ t=0.6
0.014486489124048279
% es.normE (V/m) @ t=0.62
2.938230210682362
% es.EX (V/m) @ t=0.62
1.1709970539737404
% es.EY (V/m) @ t=0.62
0.30958952615266977
% es.EZ (V/m) @ t=0.62
-2.674584193329549
% es.tEX (V/m) @ t=0.62
1.1709970539737409
% es.tEY (V/m) @ t=0.62
0
% es.tEZ (V/m) @ t=0.62
-2.674584193329551
% es.Ex (V/m) @ t=0.62
1.1709970539737404
% es.Ey (V/m) @ t=0.62
0.30958952615266977
% es.Ez (V/m) @ t=0.62
-2.674584193329549
% es.tEx (V/m) @ t=0.62
1.1709970539737409
% es.tEy (V/m) @ t=0.62
0
% es.tEz (V/m) @ t=0.62
-2.674584193329551
% V (V) @ t=0.62
0.014691426539024534
% es.normE (V/m) @ t=0.64
2.9796017847492835
% es.EX (V/m) @ t=0.64
1.1874851804969349
% es.EY (V/m) @ t=0.64
0.31394847027603934
% es.EZ (V/m) @ t=0.64
-2.712243545507677
% es.tEX (V/m) @ t=0.64
1.1874851804969353
% es.tEY (V/m) @ t=0.64
0
% es.tEZ (V/m) @ t=0.64
-2.7122435455076825
% es.Ex (V/m) @ t=0.64
1.1874851804969349
% es.Ey (V/m) @ t=0.64
0.31394847027603934
% es.Ez (V/m) @ t=0.64
-2.712243545507677
% es.tEx (V/m) @ t=0.64
1.1874851804969353
% es.tEy (V/m) @ t=0.64
0
% es.tEz (V/m) @ t=0.64
-2.7122435455076825
% V (V) @ t=0.64
0.014898293962307638
% es.normE (V/m) @ t=0.66
3.0213591878552455
% es.EX (V/m) @ t=0.66
1.204127070678458
% es.EY (V/m) @ t=0.66
0.3183480366648963
% es.EZ (V/m) @ t=0.66
-2.750254110843171
% es.tEX (V/m) @ t=0.66
1.2041270706784584
% es.tEY (V/m) @ t=0.66
0
% es.tEZ (V/m) @ t=0.66
-2.7502541108431764
% es.Ex (V/m) @ t=0.66
1.204127070678458
% es.Ey (V/m) @ t=0.66
0.3183480366648963
% es.Ez (V/m) @ t=0.66
-2.750254110843171
% es.tEx (V/m) @ t=0.66
1.2041270706784584
% es.tEy (V/m) @ t=0.66
0
% es.tEz (V/m) @ t=0.66
-2.7502541108431764
% V (V) @ t=0.66
0.015107091393897584
% es.normE (V/m) @ t=0.68
3.0635024200002814
% es.EX (V/m) @ t=0.68
1.220922724518354
% es.EY (V/m) @ t=0.68
0.3227882253191954
% es.EZ (V/m) @ t=0.68
-2.7886158893360413
% es.tEX (V/m) @ t=0.68
1.2209227245183545
% es.tEY (V/m) @ t=0.68
0
% es.tEZ (V/m) @ t=0.68
-2.7886158893360466
% es.Ex (V/m) @ t=0.68
1.220922724518354
% es.Ey (V/m) @ t=0.68
0.3227882253191954
% es.Ez (V/m) @ t=0.68
-2.7886158893360413
% es.tEx (V/m) @ t=0.68
1.2209227245183545
% es.tEy (V/m) @ t=0.68
0
% es.tEz (V/m) @ t=0.68
-2.7886158893360466
% V (V) @ t=0.68
0.015317818833794383
% es.normE (V/m) @ t=0.7
3.1060314811843917
% es.EX (V/m) @ t=0.7
1.2378721420166374
% es.EY (V/m) @ t=0.7
0.3272690362390165
% es.EZ (V/m) @ t=0.7
-2.827328880986263
% es.tEX (V/m) @ t=0.7
1.2378721420166379
% es.tEY (V/m) @ t=0.7
0
% es.tEZ (V/m) @ t=0.7
-2.8273288809862613
% es.Ex (V/m) @ t=0.7
1.2378721420166374
% es.Ey (V/m) @ t=0.7
0.3272690362390165
% es.Ez (V/m) @ t=0.7
-2.827328880986263
% es.tEx (V/m) @ t=0.7
1.2378721420166379
% es.tEy (V/m) @ t=0.7
0
% es.tEz (V/m) @ t=0.7
-2.8273288809862613
% V (V) @ t=0.7
0.01553047628199803
% es.normE (V/m) @ t=0.72
3.1489463714075807
% es.EX (V/m) @ t=0.72
1.2549753231732779
% es.EY (V/m) @ t=0.72
0.33179046942427703
% es.EZ (V/m) @ t=0.72
-2.866393085793847
% es.tEX (V/m) @ t=0.72
1.2549753231732783
% es.tEY (V/m) @ t=0.72
0
% es.tEZ (V/m) @ t=0.72
-2.866393085793856
% es.Ex (V/m) @ t=0.72
1.2549753231732779
% es.Ey (V/m) @ t=0.72
0.33179046942427703
% es.Ez (V/m) @ t=0.72
-2.866393085793847
% es.tEx (V/m) @ t=0.72
1.2549753231732783
% es.tEy (V/m) @ t=0.72
0
% es.tEz (V/m) @ t=0.72
-2.866393085793856
% V (V) @ t=0.72
0.015745063738508515
% es.normE (V/m) @ t=0.74
3.1922470906698432
% es.EX (V/m) @ t=0.74
1.272232267988262
% es.EY (V/m) @ t=0.74
0.33635252487502676
% es.EZ (V/m) @ t=0.74
-2.9058085037587773
% es.tEX (V/m) @ t=0.74
1.2722322679882625
% es.tEY (V/m) @ t=0.74
0
% es.tEZ (V/m) @ t=0.74
-2.9058085037587915
% es.Ex (V/m) @ t=0.74
1.272232267988262
% es.Ey (V/m) @ t=0.74
0.33635252487502676
% es.Ez (V/m) @ t=0.74
-2.9058085037587773
% es.tEx (V/m) @ t=0.74
1.2722322679882625
% es.tEy (V/m) @ t=0.74
0
% es.tEz (V/m) @ t=0.74
-2.9058085037587915
% V (V) @ t=0.74
0.01596158120332586
% es.normE (V/m) @ t=0.76
3.235933638971245
% es.EX (V/m) @ t=0.76
1.2896429764616544
% es.EY (V/m) @ t=0.76
0.34095520259127277
% es.EZ (V/m) @ t=0.76
-2.9455751348810804
% es.tEX (V/m) @ t=0.76
1.2896429764616482
% es.tEY (V/m) @ t=0.76
0
% es.tEZ (V/m) @ t=0.76
-2.945575134881082
% es.Ex (V/m) @ t=0.76
1.2896429764616544
% es.Ey (V/m) @ t=0.76
0.34095520259127277
% es.Ez (V/m) @ t=0.76
-2.9455751348810804
% es.tEx (V/m) @ t=0.76
1.2896429764616482
% es.tEy (V/m) @ t=0.76
0
% es.tEz (V/m) @ t=0.76
-2.945575134881082
% V (V) @ t=0.76
0.016180028676450044
% es.normE (V/m) @ t=0.78
3.280006016311763
% es.EX (V/m) @ t=0.78
1.3072074485934047
% es.EY (V/m) @ t=0.78
0.3455985025729804
% es.EZ (V/m) @ t=0.78
-2.9856929791607403
% es.tEX (V/m) @ t=0.78
1.307207448593405
% es.tEY (V/m) @ t=0.78
0
% es.tEZ (V/m) @ t=0.78
-2.9856929791607456
% es.Ex (V/m) @ t=0.78
1.3072074485934047
% es.Ey (V/m) @ t=0.78
0.3455985025729804
% es.Ez (V/m) @ t=0.78
-2.9856929791607403
% es.tEx (V/m) @ t=0.78
1.307207448593405
% es.tEy (V/m) @ t=0.78
0
% es.tEz (V/m) @ t=0.78
-2.9856929791607456
% V (V) @ t=0.78
0.016400406157881076
% es.normE (V/m) @ t=0.8
3.3244642226914207
% es.EX (V/m) @ t=0.8
1.3249256843835204
% es.EY (V/m) @ t=0.8
0.3502824248201488
% es.EZ (V/m) @ t=0.8
-3.0261620365977695
% es.tEX (V/m) @ t=0.8
1.3249256843835209
% es.tEY (V/m) @ t=0.8
0
% es.tEZ (V/m) @ t=0.8
-3.026162036597775
% es.Ex (V/m) @ t=0.8
1.3249256843835204
% es.Ey (V/m) @ t=0.8
0.3502824248201488
% es.Ez (V/m) @ t=0.8
-3.0261620365977695
% es.tEx (V/m) @ t=0.8
1.3249256843835209
% es.tEy (V/m) @ t=0.8
0
% es.tEz (V/m) @ t=0.8
-3.026162036597775
% V (V) @ t=0.8
0.016622713647618963
% es.normE (V/m) @ t=0.82
3.3694573272180453
% es.EX (V/m) @ t=0.82
1.3428571077941105
% es.EY (V/m) @ t=0.82
0.3550227874049465
% es.EZ (V/m) @ t=0.82
-3.0671179846862113
% es.tEX (V/m) @ t=0.82
1.342857107794111
% es.tEY (V/m) @ t=0.82
0
% es.tEZ (V/m) @ t=0.82
-3.06711798468622
% es.Ex (V/m) @ t=0.82
1.3428571077941105
% es.Ey (V/m) @ t=0.82
0.3550227874049465
% es.Ez (V/m) @ t=0.82
-3.0671179846862113
% es.tEx (V/m) @ t=0.82
1.342857107794111
% es.tEy (V/m) @ t=0.82
0
% es.tEz (V/m) @ t=0.82
-3.06711798468622
% V (V) @ t=0.82
0.01684769353640045
% es.normE (V/m) @ t=0.84
3.415506617368968
% es.EX (V/m) @ t=0.84
1.3612095215535356
% es.EY (V/m) @ t=0.84
0.3598749053624264
% es.EZ (V/m) @ t=0.84
-3.10903528107624
% es.tEX (V/m) @ t=0.84
1.361209521553536
% es.tEY (V/m) @ t=0.84
0
% es.tEZ (V/m) @ t=0.84
-3.1090352810762454
% es.Ex (V/m) @ t=0.84
1.3612095215535356
% es.Ey (V/m) @ t=0.84
0.3598749053624264
% es.Ez (V/m) @ t=0.84
-3.10903528107624
% es.tEx (V/m) @ t=0.84
1.361209521553536
% es.tEy (V/m) @ t=0.84
0
% es.tEz (V/m) @ t=0.84
-3.1090352810762454
% V (V) @ t=0.84
0.017077941928810854
% es.normE (V/m) @ t=0.86
3.462051045280439
% es.EX (V/m) @ t=0.86
1.3797592731055746
% es.EY (V/m) @ t=0.86
0.36477924458980926
% es.EZ (V/m) @ t=0.86
-3.151403279603114
% es.tEX (V/m) @ t=0.86
1.3797592731055754
% es.tEY (V/m) @ t=0.86
0
% es.tEZ (V/m) @ t=0.86
-3.15140327960313
% es.Ex (V/m) @ t=0.86
1.3797592731055746
% es.Ey (V/m) @ t=0.86
0.36477924458980926
% es.Ez (V/m) @ t=0.86
-3.151403279603114
% es.tEx (V/m) @ t=0.86
1.3797592731055754
% es.tEy (V/m) @ t=0.86
0
% es.tEz (V/m) @ t=0.86
-3.15140327960313
% V (V) @ t=0.86
0.01731066470645161
% es.normE (V/m) @ t=0.88
3.5090906109525455
% es.EX (V/m) @ t=0.88
1.3985063624503238
% es.EY (V/m) @ t=0.88
0.36973580508712445
% es.EZ (V/m) @ t=0.88
-3.1942219802668728
% es.tEX (V/m) @ t=0.88
1.3985063624503171
% es.tEY (V/m) @ t=0.88
0
% es.tEZ (V/m) @ t=0.88
-3.194221980266878
% es.Ex (V/m) @ t=0.88
1.3985063624503238
% es.Ey (V/m) @ t=0.88
0.36973580508712445
% es.Ez (V/m) @ t=0.88
-3.1942219802668728
% es.tEx (V/m) @ t=0.88
1.3985063624503171
% es.tEy (V/m) @ t=0.88
0
% es.tEz (V/m) @ t=0.88
-3.194221980266878
% V (V) @ t=0.88
0.01754586186932271
% es.normE (V/m) @ t=0.9
3.5566253143853213
% es.EX (V/m) @ t=0.9
1.4174507895877997
% es.EY (V/m) @ t=0.9
0.37474458685436574
% es.EZ (V/m) @ t=0.9
-3.23749138306753
% es.tEX (V/m) @ t=0.9
1.4174507895878001
% es.tEY (V/m) @ t=0.9
0
% es.tEZ (V/m) @ t=0.9
-3.2374913830675354
% es.Ex (V/m) @ t=0.9
1.4174507895877997
% es.Ey (V/m) @ t=0.9
0.37474458685436574
% es.Ez (V/m) @ t=0.9
-3.23749138306753
% es.tEx (V/m) @ t=0.9
1.4174507895878001
% es.tEy (V/m) @ t=0.9
0
% es.tEz (V/m) @ t=0.9
-3.2374913830675354
% V (V) @ t=0.9
0.01778353341742417
% es.normE (V/m) @ t=0.92
3.604655155578725
% es.EX (V/m) @ t=0.92
1.436592554517929
% es.EY (V/m) @ t=0.92
0.37980558989150026
% es.EZ (V/m) @ t=0.92
-3.2812114880050576
% es.tEX (V/m) @ t=0.92
1.4365925545179294
% es.tEY (V/m) @ t=0.92
0
% es.tEZ (V/m) @ t=0.92
-3.2812114880050594
% es.Ex (V/m) @ t=0.92
1.436592554517929
% es.Ey (V/m) @ t=0.92
0.37980558989150026
% es.Ez (V/m) @ t=0.92
-3.2812114880050576
% es.tEx (V/m) @ t=0.92
1.4365925545179294
% es.tEy (V/m) @ t=0.92
0
% es.tEz (V/m) @ t=0.92
-3.2812114880050594
% V (V) @ t=0.92
0.018023679350755974
% es.normE (V/m) @ t=0.94
3.653180134532799
% es.EX (V/m) @ t=0.94
1.4559316572407717
% es.EY (V/m) @ t=0.94
0.38491881419856355
% es.EZ (V/m) @ t=0.94
-3.3253822950794483
% es.tEX (V/m) @ t=0.94
1.4559316572407726
% es.tEY (V/m) @ t=0.94
0
% es.tEZ (V/m) @ t=0.94
-3.325382295079457
% es.Ex (V/m) @ t=0.94
1.4559316572407717
% es.Ey (V/m) @ t=0.94
0.38491881419856355
% es.Ez (V/m) @ t=0.94
-3.3253822950794483
% es.tEx (V/m) @ t=0.94
1.4559316572407726
% es.tEy (V/m) @ t=0.94
0
% es.tEz (V/m) @ t=0.94
-3.325382295079457
% V (V) @ t=0.94
0.01826629966931813
% es.normE (V/m) @ t=0.96
3.702200251247591
% es.EX (V/m) @ t=0.96
1.4754680977563086
% es.EY (V/m) @ t=0.96
0.39008425977550765
% es.EZ (V/m) @ t=0.96
-3.3700038042907448
% es.tEX (V/m) @ t=0.96
1.4754680977563162
% es.tEY (V/m) @ t=0.96
0
% es.tEZ (V/m) @ t=0.96
-3.3700038042907536
% es.Ex (V/m) @ t=0.96
1.4754680977563086
% es.Ey (V/m) @ t=0.96
0.39008425977550765
% es.Ez (V/m) @ t=0.96
-3.3700038042907448
% es.tEx (V/m) @ t=0.96
1.4754680977563162
% es.tEy (V/m) @ t=0.96
0
% es.tEz (V/m) @ t=0.96
-3.3700038042907536
% V (V) @ t=0.96
0.01851139437311063
% es.normE (V/m) @ t=0.98
3.7517155057231104
% es.EX (V/m) @ t=0.98
1.4952018760645336
% es.EY (V/m) @ t=0.98
0.3953019266223947
% es.EZ (V/m) @ t=0.98
-3.4150760156389275
% es.tEX (V/m) @ t=0.98
1.4952018760645345
% es.tEY (V/m) @ t=0.98
0
% es.tEZ (V/m) @ t=0.98
-3.415076015638931
% es.Ex (V/m) @ t=0.98
1.4952018760645336
% es.Ey (V/m) @ t=0.98
0.3953019266223947
% es.Ez (V/m) @ t=0.98
-3.4150760156389275
% es.tEx (V/m) @ t=0.98
1.4952018760645345
% es.tEy (V/m) @ t=0.98
0
% es.tEz (V/m) @ t=0.98
-3.415076015638931
% V (V) @ t=0.98
0.018758963462133488
% es.normE (V/m) @ t=1
3.8017258979593525
% es.EX (V/m) @ t=1
1.5151329921654226
% es.EY (V/m) @ t=1
0.4005718147391999
% es.EZ (V/m) @ t=1
-3.4605989291239734
% es.tEX (V/m) @ t=1
1.515132992165423
% es.tEY (V/m) @ t=1
0
% es.tEZ (V/m) @ t=1
-3.460598929123975
% es.Ex (V/m) @ t=1
1.5151329921654226
% es.Ey (V/m) @ t=1
0.4005718147391999
% es.Ez (V/m) @ t=1
-3.4605989291239734
% es.tEx (V/m) @ t=1
1.515132992165423
% es.tEy (V/m) @ t=1
0
% es.tEz (V/m) @ t=1
-3.460598929123975
% V (V) @ t=1
0.019009006936386685
% es.normE (V/m) @ t=1.02
3.8522314279563954
% es.EX (V/m) @ t=1.02
1.5352614460590552
% es.EY (V/m) @ t=1.02
0.405893924125893
% es.EZ (V/m) @ t=1.02
-3.506572544745909
% es.tEX (V/m) @ t=1.02
1.5352614460590557
% es.tEY (V/m) @ t=1.02
0
% es.tEZ (V/m) @ t=1.02
-3.5065725447459144
% es.Ex (V/m) @ t=1.02
1.5352614460590552
% es.Ey (V/m) @ t=1.02
0.405893924125893
% es.Ez (V/m) @ t=1.02
-3.506572544745909
% es.tEx (V/m) @ t=1.02
1.5352614460590557
% es.tEy (V/m) @ t=1.02
0
% es.tEz (V/m) @ t=1.02
-3.5065725447459144
% V (V) @ t=1.02
0.01926152479587024
% es.normE (V/m) @ t=1.04
3.9032320957141957
% es.EX (V/m) @ t=1.04
1.555587237745331
% es.EY (V/m) @ t=1.04
0.4112682547824953
% es.EZ (V/m) @ t=1.04
-3.5529968625046955
% es.tEX (V/m) @ t=1.04
1.555587237745332
% es.tEY (V/m) @ t=1.04
0
% es.tEZ (V/m) @ t=1.04
-3.5529968625047026
% es.Ex (V/m) @ t=1.04