% Model:              1 neuron.mph
% Version:            COMSOL 6.0.0.405
% Date:               Mar 16 2023, 19:08
% Dimension:          0
% Nodes:              14017
% Expressions:        14017
% Description:        Electric field norm, Electric field, X component, Electric field, Y component, Electric field, Z component, Tangential electric field, X component, Tangential electric field, Y component, Tangential electric field, Z component, Electric field, x component, Electric field, y component, Electric field, z component, Tangential electric field, x component, Tangential electric field, y component, Tangential electric field, z component, Electric potential
% Length unit:        mm
% x
1.66
% y
12.2
% z
2
% es.normE (V/m) @ t=0
2.198048624360446
% es.EX (V/m) @ t=0
-0.65572275303751
% es.EY (V/m) @ t=0
0.0489801128942855
% es.EZ (V/m) @ t=0
-2.0938611046565274
% es.tEX (V/m) @ t=0
-0.6557227530375158
% es.tEY (V/m) @ t=0
0
% es.tEZ (V/m) @ t=0
-2.093861104656546
% es.Ex (V/m) @ t=0
-0.65572275303751
% es.Ey (V/m) @ t=0
0.0489801128942855
% es.Ez (V/m) @ t=0
-2.0938611046565274
% es.tEx (V/m) @ t=0
-0.6557227530375158
% es.tEy (V/m) @ t=0
0
% es.tEz (V/m) @ t=0
-2.093861104656546
% V (V) @ t=0
0.011048299569979313
% es.normE (V/m) @ t=0.02
1.909023139429168
% es.EX (V/m) @ t=0.02
-0.5695005549063739
% es.EY (V/m) @ t=0.02
0.04253962977275043
% es.EZ (V/m) @ t=0.02
-1.8185354290953075
% es.tEX (V/m) @ t=0.02
-0.5695005549063801
% es.tEY (V/m) @ t=0.02
0
% es.tEZ (V/m) @ t=0.02
-1.8185354290953084
% es.Ex (V/m) @ t=0.02
-0.5695005549063739
% es.Ey (V/m) @ t=0.02
0.04253962977275043
% es.Ez (V/m) @ t=0.02
-1.8185354290953075
% es.tEx (V/m) @ t=0.02
-0.5695005549063801
% es.tEy (V/m) @ t=0.02
0
% es.tEz (V/m) @ t=0.02
-1.8185354290953084
% V (V) @ t=0.02
0.00959553809362597
% es.normE (V/m) @ t=0.04
1.9373315832546831
% es.EX (V/m) @ t=0.04
-0.5779455442583687
% es.EY (V/m) @ t=0.04
0.0431704460711078
% es.EZ (V/m) @ t=0.04
-1.8455020510941216
% es.tEX (V/m) @ t=0.04
-0.5779455442583767
% es.tEY (V/m) @ t=0.04
0
% es.tEZ (V/m) @ t=0.04
-1.8455020510941482
% es.Ex (V/m) @ t=0.04
-0.5779455442583687
% es.Ey (V/m) @ t=0.04
0.0431704460711078
% es.Ez (V/m) @ t=0.04
-1.8455020510941216
% es.tEx (V/m) @ t=0.04
-0.5779455442583767
% es.tEy (V/m) @ t=0.04
0
% es.tEz (V/m) @ t=0.04
-1.8455020510941482
% V (V) @ t=0.04
0.009737827769539393
% es.normE (V/m) @ t=0.06
1.9660576328783903
% es.EX (V/m) @ t=0.06
-0.5865151096519439
% es.EY (V/m) @ t=0.06
0.04381055880331583
% es.EZ (V/m) @ t=0.06
-1.8728664863946967
% es.tEX (V/m) @ t=0.06
-0.5865151096519519
% es.tEY (V/m) @ t=0.06
0
% es.tEZ (V/m) @ t=0.06
-1.872866486394722
% es.Ex (V/m) @ t=0.06
-0.5865151096519439
% es.Ey (V/m) @ t=0.06
0.04381055880331583
% es.Ez (V/m) @ t=0.06
-1.8728664863946967
% es.tEx (V/m) @ t=0.06
-0.5865151096519519
% es.tEy (V/m) @ t=0.06
0
% es.tEz (V/m) @ t=0.06
-1.872866486394722
% V (V) @ t=0.06
0.009882216860990532
% es.normE (V/m) @ t=0.08
1.9955333820180026
% es.EX (V/m) @ t=0.08
-0.595308326511484
% es.EY (V/m) @ t=0.08
0.044467379147014804
% es.EZ (V/m) @ t=0.08
-1.9009450850714669
% es.tEX (V/m) @ t=0.08
-0.5953083265114856
% es.tEY (V/m) @ t=0.08
0
% es.tEZ (V/m) @ t=0.08
-1.900945085071478
% es.Ex (V/m) @ t=0.08
-0.595308326511484
% es.Ey (V/m) @ t=0.08
0.044467379147014804
% es.Ez (V/m) @ t=0.08
-1.9009450850714669
% es.tEx (V/m) @ t=0.08
-0.5953083265114856
% es.tEy (V/m) @ t=0.08
0
% es.tEz (V/m) @ t=0.08
-1.900945085071478
% V (V) @ t=0.08
0.010030374184339256
% es.normE (V/m) @ t=0.1
2.0254972083017653
% es.EX (V/m) @ t=0.1
-0.6042471472649609
% es.EY (V/m) @ t=0.1
0.045135076652999456
% es.EZ (V/m) @ t=0.1
-1.929488625786632
% es.tEX (V/m) @ t=0.1
-0.6042471472649709
% es.tEY (V/m) @ t=0.1
0
% es.tEZ (V/m) @ t=0.1
-1.9294886257866528
% es.Ex (V/m) @ t=0.1
-0.6042471472649609
% es.Ey (V/m) @ t=0.1
0.045135076652999456
% es.Ez (V/m) @ t=0.1
-1.929488625786632
% es.tEx (V/m) @ t=0.1
-0.6042471472649709
% es.tEy (V/m) @ t=0.1
0
% es.tEz (V/m) @ t=0.1
-1.9294886257866528
% V (V) @ t=0.1
0.010180984741048905
% es.normE (V/m) @ t=0.12
2.0554610345855346
% es.EX (V/m) @ t=0.12
-0.6131859680184368
% es.EY (V/m) @ t=0.12
0.045802774158980555
% es.EZ (V/m) @ t=0.12
-1.9580321665018041
% es.tEX (V/m) @ t=0.12
-0.6131859680184455
% es.tEY (V/m) @ t=0.12
0
% es.tEZ (V/m) @ t=0.12
-1.9580321665018197
% es.Ex (V/m) @ t=0.12
-0.6131859680184368
% es.Ey (V/m) @ t=0.12
0.045802774158980555
% es.Ez (V/m) @ t=0.12
-1.9580321665018041
% es.tEx (V/m) @ t=0.12
-0.6131859680184455
% es.tEy (V/m) @ t=0.12
0
% es.tEz (V/m) @ t=0.12
-1.9580321665018197
% V (V) @ t=0.12
0.010331595297758551
% es.normE (V/m) @ t=0.14
2.086018182571256
% es.EX (V/m) @ t=0.14
-0.6223017947139586
% es.EY (V/m) @ t=0.14
0.04648370580024233
% es.EZ (V/m) @ t=0.14
-1.987140902651518
% es.tEX (V/m) @ t=0.14
-0.6223017947139624
% es.tEY (V/m) @ t=0.14
0
% es.tEZ (V/m) @ t=0.14
-1.9871409026515376
% es.Ex (V/m) @ t=0.14
-0.6223017947139586
% es.Ey (V/m) @ t=0.14
0.04648370580024233
% es.Ez (V/m) @ t=0.14
-1.987140902651518
% es.tEx (V/m) @ t=0.14
-0.6223017947139624
% es.tEy (V/m) @ t=0.14
0
% es.tEz (V/m) @ t=0.14
-1.9871409026515376
% V (V) @ t=0.14
0.010485187640642088
% es.normE (V/m) @ t=0.16
2.1186633252297327
% es.EX (V/m) @ t=0.16
-0.632040533840996
% es.EY (V/m) @ t=0.16
0.04721121049600399
% es.EZ (V/m) @ t=0.16
-2.018238652606904
% es.tEX (V/m) @ t=0.16
-0.6320405338410033
% es.tEY (V/m) @ t=0.16
0
% es.tEZ (V/m) @ t=0.16
-2.018238652606928
% es.Ex (V/m) @ t=0.16
-0.632040533840996
% es.Ey (V/m) @ t=0.16
0.04721121049600399
% es.Ez (V/m) @ t=0.16
-2.018238652606904
% es.tEx (V/m) @ t=0.16
-0.6320405338410033
% es.tEy (V/m) @ t=0.16
0
% es.tEz (V/m) @ t=0.16
-2.018238652606928
% V (V) @ t=0.16
0.010649273369535152
% es.normE (V/m) @ t=0.18
2.1513084678882284
% es.EX (V/m) @ t=0.18
-0.6417792729680434
% es.EY (V/m) @ t=0.18
0.04793871519177961
% es.EZ (V/m) @ t=0.18
-2.0493364025623038
% es.tEX (V/m) @ t=0.18
-0.6417792729680514
% es.tEY (V/m) @ t=0.18
0
% es.tEZ (V/m) @ t=0.18
-2.0493364025623197
% es.Ex (V/m) @ t=0.18
-0.6417792729680434
% es.Ey (V/m) @ t=0.18
0.04793871519177961
% es.Ez (V/m) @ t=0.18
-2.0493364025623038
% es.tEx (V/m) @ t=0.18
-0.6417792729680514
% es.tEy (V/m) @ t=0.18
0
% es.tEz (V/m) @ t=0.18
-2.0493364025623197
% V (V) @ t=0.18
0.010813359098428217
% es.normE (V/m) @ t=0.2
2.1839536105467205
% es.EX (V/m) @ t=0.2
-0.6515180120950906
% es.EY (V/m) @ t=0.2
0.04866621988753572
% es.EZ (V/m) @ t=0.2
-2.0804341525176966
% es.tEX (V/m) @ t=0.2
-0.6515180120950959
% es.tEY (V/m) @ t=0.2
0
% es.tEZ (V/m) @ t=0.2
-2.080434152517719
% es.Ex (V/m) @ t=0.2
-0.6515180120950906
% es.Ey (V/m) @ t=0.2
0.04866621988753572
% es.Ez (V/m) @ t=0.2
-2.0804341525176966
% es.tEx (V/m) @ t=0.2
-0.6515180120950959
% es.tEy (V/m) @ t=0.2
0
% es.tEz (V/m) @ t=0.2
-2.080434152517719
% V (V) @ t=0.2
0.010977444827321282
% es.normE (V/m) @ t=0.22
2.216598753205227
% es.EX (V/m) @ t=0.22
-0.6612567512221317
% es.EY (V/m) @ t=0.22
0.04939372458329894
% es.EZ (V/m) @ t=0.22
-2.1115319024731036
% es.tEX (V/m) @ t=0.22
-0.6612567512221332
% es.tEY (V/m) @ t=0.22
0
% es.tEZ (V/m) @ t=0.22
-2.1115319024731223
% es.Ex (V/m) @ t=0.22
-0.6612567512221317
% es.Ey (V/m) @ t=0.22
0.04939372458329894
% es.Ez (V/m) @ t=0.22
-2.1115319024731036
% es.tEx (V/m) @ t=0.22
-0.6612567512221332
% es.tEy (V/m) @ t=0.22
0
% es.tEz (V/m) @ t=0.22
-2.1115319024731223
% V (V) @ t=0.22
0.011141530556214346
% es.normE (V/m) @ t=0.24
2.2492438958637173
% es.EX (V/m) @ t=0.24
-0.6709954903491789
% es.EY (V/m) @ t=0.24
0.05012122927908011
% es.EZ (V/m) @ t=0.24
-2.1426296524284885
% es.tEX (V/m) @ t=0.24
-0.6709954903491813
% es.tEY (V/m) @ t=0.24
0
% es.tEZ (V/m) @ t=0.24
-2.142629652428522
% es.Ex (V/m) @ t=0.24
-0.6709954903491789
% es.Ey (V/m) @ t=0.24
0.05012122927908011
% es.Ez (V/m) @ t=0.24
-2.1426296524284885
% es.tEx (V/m) @ t=0.24
-0.6709954903491813
% es.tEy (V/m) @ t=0.24
0
% es.tEz (V/m) @ t=0.24
-2.142629652428522
% V (V) @ t=0.24
0.011305616285107413
% es.normE (V/m) @ t=0.26
2.28188903852223
% es.EX (V/m) @ t=0.26
-0.6807342294762226
% es.EY (V/m) @ t=0.26
0.05084873397484688
% es.EZ (V/m) @ t=0.26
-2.1737274023838964
% es.tEX (V/m) @ t=0.26
-0.6807342294762257
% es.tEY (V/m) @ t=0.26
0
% es.tEZ (V/m) @ t=0.26
-2.1737274023839275
% es.Ex (V/m) @ t=0.26
-0.6807342294762226
% es.Ey (V/m) @ t=0.26
0.05084873397484688
% es.Ez (V/m) @ t=0.26
-2.1737274023838964
% es.tEx (V/m) @ t=0.26
-0.6807342294762257
% es.tEy (V/m) @ t=0.26
0
% es.tEz (V/m) @ t=0.26
-2.1737274023839275
% V (V) @ t=0.26
0.011469702014000476
% es.normE (V/m) @ t=0.28
2.3158434736214835
% es.EX (V/m) @ t=0.28
-0.6908635495887865
% es.EY (V/m) @ t=0.28
0.05160539777550738
% es.EZ (V/m) @ t=0.28
-2.206072387916735
% es.tEX (V/m) @ t=0.28
-0.6908635495887907
% es.tEY (V/m) @ t=0.28
0
% es.tEZ (V/m) @ t=0.28
-2.2060723879167483
% es.Ex (V/m) @ t=0.28
-0.6908635495887865
% es.Ey (V/m) @ t=0.28
0.05160539777550738
% es.Ez (V/m) @ t=0.28
-2.206072387916735
% es.tEx (V/m) @ t=0.28
-0.6908635495887907
% es.tEy (V/m) @ t=0.28
0
% es.tEz (V/m) @ t=0.28
-2.2060723879167483
% V (V) @ t=0.28
0.011640369417130378
% es.normE (V/m) @ t=0.3
2.3513822384933656
% es.EX (V/m) @ t=0.3
-0.7014654983248292
% es.EY (V/m) @ t=0.3
0.05239734600661104
% es.EZ (V/m) @ t=0.3
-2.2399266103452593
% es.tEX (V/m) @ t=0.3
-0.7014654983248434
% es.tEY (V/m) @ t=0.3
0
% es.tEZ (V/m) @ t=0.3
-2.2399266103452673
% es.Ex (V/m) @ t=0.3
-0.7014654983248292
% es.Ey (V/m) @ t=0.3
0.05239734600661104
% es.Ez (V/m) @ t=0.3
-2.2399266103452593
% es.tEx (V/m) @ t=0.3
-0.7014654983248434
% es.tEy (V/m) @ t=0.3
0
% es.tEz (V/m) @ t=0.3
-2.2399266103452673
% V (V) @ t=0.3
0.01181900107799416
% es.normE (V/m) @ t=0.32
2.3869210033652397
% es.EX (V/m) @ t=0.32
-0.7120674470608666
% es.EY (V/m) @ t=0.32
0.05318929423771292
% es.EZ (V/m) @ t=0.32
-2.2737808327737756
% es.tEX (V/m) @ t=0.32
-0.7120674470608712
% es.tEY (V/m) @ t=0.32
0
% es.tEZ (V/m) @ t=0.32
-2.2737808327738076
% es.Ex (V/m) @ t=0.32
-0.7120674470608666
% es.Ey (V/m) @ t=0.32
0.05318929423771292
% es.Ez (V/m) @ t=0.32
-2.2737808327737756
% es.tEx (V/m) @ t=0.32
-0.7120674470608712
% es.tEy (V/m) @ t=0.32
0
% es.tEz (V/m) @ t=0.32
-2.2737808327738076
% V (V) @ t=0.32
0.011997632738857941
% es.normE (V/m) @ t=0.34
2.4224597682371334
% es.EX (V/m) @ t=0.34
-0.7226693957969015
% es.EY (V/m) @ t=0.34
0.05398124246879721
% es.EZ (V/m) @ t=0.34
-2.3076350552023133
% es.tEX (V/m) @ t=0.34
-0.7226693957969097
% es.tEY (V/m) @ t=0.34
0
% es.tEZ (V/m) @ t=0.34
-2.3076350552023275
% es.Ex (V/m) @ t=0.34
-0.7226693957969015
% es.Ey (V/m) @ t=0.34
0.05398124246879721
% es.Ez (V/m) @ t=0.34
-2.3076350552023133
% es.tEx (V/m) @ t=0.34
-0.7226693957969097
% es.tEy (V/m) @ t=0.34
0
% es.tEz (V/m) @ t=0.34
-2.3076350552023275
% V (V) @ t=0.34
0.01217626439972172
% es.normE (V/m) @ t=0.36
2.4579985331090097
% es.EX (V/m) @ t=0.36
-0.7332713445329396
% es.EY (V/m) @ t=0.36
0.05477319069988312
% es.EZ (V/m) @ t=0.36
-2.3414892776308314
% es.tEX (V/m) @ t=0.36
-0.7332713445329446
% es.tEY (V/m) @ t=0.36
0
% es.tEZ (V/m) @ t=0.36
-2.3414892776308536
% es.Ex (V/m) @ t=0.36
-0.7332713445329396
% es.Ey (V/m) @ t=0.36
0.05477319069988312
% es.Ez (V/m) @ t=0.36
-2.3414892776308314
% es.tEx (V/m) @ t=0.36
-0.7332713445329446
% es.tEy (V/m) @ t=0.36
0
% es.tEz (V/m) @ t=0.36
-2.3414892776308536
% V (V) @ t=0.36
0.012354896060585504
% es.normE (V/m) @ t=0.38
2.4935372979809114
% es.EX (V/m) @ t=0.38
-0.7438732932689798
% es.EY (V/m) @ t=0.38
0.05556513893100254
% es.EZ (V/m) @ t=0.38
-2.375343500059376
% es.tEX (V/m) @ t=0.38
-0.7438732932689831
% es.tEY (V/m) @ t=0.38
0
% es.tEZ (V/m) @ t=0.38
-2.375343500059394
% es.Ex (V/m) @ t=0.38
-0.7438732932689798
% es.Ey (V/m) @ t=0.38
0.05556513893100254
% es.Ez (V/m) @ t=0.38
-2.375343500059376
% es.tEx (V/m) @ t=0.38
-0.7438732932689831
% es.tEy (V/m) @ t=0.38
0
% es.tEz (V/m) @ t=0.38
-2.375343500059394
% V (V) @ t=0.38
0.012533527721449283
% es.normE (V/m) @ t=0.4
2.5290760628527886
% es.EX (V/m) @ t=0.4
-0.7544752420050234
% es.EY (V/m) @ t=0.4
0.056357087162107966
% es.EZ (V/m) @ t=0.4
-2.4091977224878933
% es.tEX (V/m) @ t=0.4
-0.7544752420050287
% es.tEY (V/m) @ t=0.4
0
% es.tEZ (V/m) @ t=0.4
-2.409197722487921
% es.Ex (V/m) @ t=0.4
-0.7544752420050234
% es.Ey (V/m) @ t=0.4
0.056357087162107966
% es.Ez (V/m) @ t=0.4
-2.4091977224878933
% es.tEx (V/m) @ t=0.4
-0.7544752420050287
% es.tEy (V/m) @ t=0.4
0
% es.tEz (V/m) @ t=0.4
-2.409197722487921
% V (V) @ t=0.4
0.012712159382313067
% es.normE (V/m) @ t=0.42
2.566741567342708
% es.EX (V/m) @ t=0.42
-0.7657116522711828
% es.EY (V/m) @ t=0.42
0.05719645161115122
% es.EZ (V/m) @ t=0.42
-2.4450778715522556
% es.tEX (V/m) @ t=0.42
-0.7657116522711931
% es.tEY (V/m) @ t=0.42
0
% es.tEZ (V/m) @ t=0.42
-2.445077871552267
% es.Ex (V/m) @ t=0.42
-0.7657116522711828
% es.Ey (V/m) @ t=0.42
0.05719645161115122
% es.Ez (V/m) @ t=0.42
-2.4450778715522556
% es.tEx (V/m) @ t=0.42
-0.7657116522711931
% es.tEy (V/m) @ t=0.42
0
% es.tEz (V/m) @ t=0.42
-2.445077871552267
% V (V) @ t=0.42
0.012901479952711487
% es.normE (V/m) @ t=0.44
2.605391099201409
% es.EX (V/m) @ t=0.44
-0.7772416233967937
% es.EY (V/m) @ t=0.44
0.05805775520864756
% es.EZ (V/m) @ t=0.44
-2.481895402532058
% es.tEX (V/m) @ t=0.44
-0.7772416233968045
% es.tEY (V/m) @ t=0.44
0
% es.tEZ (V/m) @ t=0.44
-2.4818954025320785
% es.Ex (V/m) @ t=0.44
-0.7772416233967937
% es.Ey (V/m) @ t=0.44
0.05805775520864756
% es.Ez (V/m) @ t=0.44
-2.481895402532058
% es.tEx (V/m) @ t=0.44
-0.7772416233968045
% es.tEy (V/m) @ t=0.44
0
% es.tEz (V/m) @ t=0.44
-2.4818954025320785
% V (V) @ t=0.44
0.013095746205898495
% es.normE (V/m) @ t=0.46
2.6440406310601148
% es.EX (V/m) @ t=0.46
-0.7887715945223976
% es.EY (V/m) @ t=0.46
0.058919058806145605
% es.EZ (V/m) @ t=0.46
-2.5187129335118668
% es.tEX (V/m) @ t=0.46
-0.7887715945224016
% es.tEY (V/m) @ t=0.46
0
% es.tEZ (V/m) @ t=0.46
-2.518712933511903
% es.Ex (V/m) @ t=0.46
-0.7887715945223976
% es.Ey (V/m) @ t=0.46
0.058919058806145605
% es.Ez (V/m) @ t=0.46
-2.5187129335118668
% es.tEx (V/m) @ t=0.46
-0.7887715945224016
% es.tEy (V/m) @ t=0.46
0
% es.tEz (V/m) @ t=0.46
-2.518712933511903
% V (V) @ t=0.46
0.013290012459085506
% es.normE (V/m) @ t=0.48
2.6826901629188056
% es.EX (V/m) @ t=0.48
-0.8003015656480085
% es.EY (V/m) @ t=0.48
0.05978036240363155
% es.EZ (V/m) @ t=0.48
-2.555530464491655
% es.tEX (V/m) @ t=0.48
-0.8003015656480201
% es.tEY (V/m) @ t=0.48
0
% es.tEZ (V/m) @ t=0.48
-2.5555304644916976
% es.Ex (V/m) @ t=0.48
-0.8003015656480085
% es.Ey (V/m) @ t=0.48
0.05978036240363155
% es.Ez (V/m) @ t=0.48
-2.555530464491655
% es.tEx (V/m) @ t=0.48
-0.8003015656480201
% es.tEy (V/m) @ t=0.48
0
% es.tEz (V/m) @ t=0.48
-2.5555304644916976
% V (V) @ t=0.48
0.013484278712272512
% es.normE (V/m) @ t=0.5
2.721339694777553
% es.EX (V/m) @ t=0.5
-0.8118315367736265
% es.EY (V/m) @ t=0.5
0.06064166600113832
% es.EZ (V/m) @ t=0.5
-2.592347995471499
% es.tEX (V/m) @ t=0.5
-0.8118315367736315
% es.tEY (V/m) @ t=0.5
0
% es.tEZ (V/m) @ t=0.5
-2.59234799547151
% es.Ex (V/m) @ t=0.5
-0.8118315367736265
% es.Ey (V/m) @ t=0.5
0.06064166600113832
% es.Ez (V/m) @ t=0.5
-2.592347995471499
% es.tEx (V/m) @ t=0.5
-0.8118315367736315
% es.tEy (V/m) @ t=0.5
0
% es.tEz (V/m) @ t=0.5
-2.59234799547151
% V (V) @ t=0.5
0.013678544965459526
% es.normE (V/m) @ t=0.52
2.759989226636238
% es.EX (V/m) @ t=0.52
-0.8233615078992296
% es.EY (V/m) @ t=0.52
0.06150296959862574
% es.EZ (V/m) @ t=0.52
-2.6291655264512794
% es.tEX (V/m) @ t=0.52
-0.8233615078992429
% es.tEY (V/m) @ t=0.52
0
% es.tEZ (V/m) @ t=0.52
-2.629165526451306
% es.Ex (V/m) @ t=0.52
-0.8233615078992296
% es.Ey (V/m) @ t=0.52
0.06150296959862574
% es.Ez (V/m) @ t=0.52
-2.6291655264512794
% es.tEx (V/m) @ t=0.52
-0.8233615078992429
% es.tEy (V/m) @ t=0.52
0
% es.tEz (V/m) @ t=0.52
-2.629165526451306
% V (V) @ t=0.52
0.013872811218646532
% es.normE (V/m) @ t=0.54
2.7986387584949868
% es.EX (V/m) @ t=0.54
-0.834891479024845
% es.EY (V/m) @ t=0.54
0.062364273196127404
% es.EZ (V/m) @ t=0.54
-2.6659830574311236
% es.tEX (V/m) @ t=0.54
-0.8348914790248543
% es.tEY (V/m) @ t=0.54
0
% es.tEZ (V/m) @ t=0.54
-2.6659830574311307
% es.Ex (V/m) @ t=0.54
-0.834891479024845
% es.Ey (V/m) @ t=0.54
0.062364273196127404
% es.Ez (V/m) @ t=0.54
-2.6659830574311236
% es.tEx (V/m) @ t=0.54
-0.8348914790248543
% es.tEy (V/m) @ t=0.54
0
% es.tEz (V/m) @ t=0.54
-2.6659830574311307
% V (V) @ t=0.54
0.014067077471833545
% es.normE (V/m) @ t=0.56
2.8386531791250373
% es.EX (V/m) @ t=0.56
-0.8468286188015395
% es.EY (V/m) @ t=0.56
0.06325597906786552
% es.EZ (V/m) @ t=0.56
-2.7041007840633213
% es.tEX (V/m) @ t=0.56
-0.8468286188015455
% es.tEY (V/m) @ t=0.56
0
% es.tEZ (V/m) @ t=0.56
-2.704100784063362
% es.Ex (V/m) @ t=0.56
-0.8468286188015395
% es.Ey (V/m) @ t=0.56
0.06325597906786552
% es.Ez (V/m) @ t=0.56
-2.7041007840633213
% es.tEx (V/m) @ t=0.56
-0.8468286188015455
% es.tEy (V/m) @ t=0.56
0
% es.tEz (V/m) @ t=0.56
-2.704100784063362
% V (V) @ t=0.56
0.014268204684590042
% es.normE (V/m) @ t=0.58
2.8791664116925078
% es.EX (V/m) @ t=0.58
-0.8589145623400858
% es.EY (V/m) @ t=0.58
0.06415879574780613
% es.EZ (V/m) @ t=0.58
-2.7426936799005235
% es.tEX (V/m) @ t=0.58
-0.8589145623400896
% es.tEY (V/m) @ t=0.58
0
% es.tEZ (V/m) @ t=0.58
-2.7426936799005457
% es.Ex (V/m) @ t=0.58
-0.8589145623400858
% es.Ey (V/m) @ t=0.58
0.06415879574780613
% es.Ez (V/m) @ t=0.58
-2.7426936799005235
% es.tEx (V/m) @ t=0.58
-0.8589145623400896
% es.tEy (V/m) @ t=0.58
0
% es.tEz (V/m) @ t=0.58
-2.7426936799005457
% V (V) @ t=0.58
0.01447183930205739
% es.normE (V/m) @ t=0.6
2.9200679744513907
% es.EX (V/m) @ t=0.6
-0.8711163511281019
% es.EY (V/m) @ t=0.6
0.06507026230547243
% es.EZ (V/m) @ t=0.6
-2.781656499820312
% es.tEX (V/m) @ t=0.6
-0.8711163511281086
% es.tEY (V/m) @ t=0.6
0
% es.tEZ (V/m) @ t=0.6
-2.781656499820347
% es.Ex (V/m) @ t=0.6
-0.8711163511281019
% es.Ey (V/m) @ t=0.6
0.06507026230547243
% es.Ez (V/m) @ t=0.6
-2.781656499820312
% es.tEx (V/m) @ t=0.6
-0.8711163511281086
% es.tEy (V/m) @ t=0.6
0
% es.tEz (V/m) @ t=0.6
-2.781656499820347
% V (V) @ t=0.6
0.014677425959719515
% es.normE (V/m) @ t=0.62
2.9613578674017464
% es.EX (V/m) @ t=0.62
-0.8834339851655948
% es.EY (V/m) @ t=0.62
0.06599037874082718
% es.EZ (V/m) @ t=0.62
-2.820989243822744
% es.tEX (V/m) @ t=0.62
-0.8834339851656097
% es.tEY (V/m) @ t=0.62
0
% es.tEZ (V/m) @ t=0.62
-2.820989243822771
% es.Ex (V/m) @ t=0.62
-0.8834339851655948
% es.Ey (V/m) @ t=0.62
0.06599037874082718
% es.Ez (V/m) @ t=0.62
-2.820989243822744
% es.tEx (V/m) @ t=0.62
-0.8834339851656097
% es.tEy (V/m) @ t=0.62
0
% es.tEz (V/m) @ t=0.62
-2.820989243822771
% V (V) @ t=0.62
0.01488496465757642
% es.normE (V/m) @ t=0.64
3.0030360905435223
% es.EX (V/m) @ t=0.64
-0.8958674644525735
% es.EY (V/m) @ t=0.64
0.06691914505393781
% es.EZ (V/m) @ t=0.64
-2.8606919119077636
% es.tEX (V/m) @ t=0.64
-0.8958674644525786
% es.tEY (V/m) @ t=0.64
0
% es.tEZ (V/m) @ t=0.64
-2.8606919119077876
% es.Ex (V/m) @ t=0.64
-0.8958674644525735
% es.Ey (V/m) @ t=0.64
0.06691914505393781
% es.Ez (V/m) @ t=0.64
-2.8606919119077636
% es.tEx (V/m) @ t=0.64
-0.8958674644525786
% es.tEy (V/m) @ t=0.64
0
% es.tEz (V/m) @ t=0.64
-2.8606919119077876
% V (V) @ t=0.64
0.015094455395628105
% es.normE (V/m) @ t=0.66
3.045102643876736
% es.EX (V/m) @ t=0.66
-0.9084167889890147
% es.EY (V/m) @ t=0.66
0.06785656124475861
% es.EZ (V/m) @ t=0.66
-2.900764504075398
% es.tEX (V/m) @ t=0.66
-0.9084167889890296
% es.tEY (V/m) @ t=0.66
0
% es.tEZ (V/m) @ t=0.66
-2.900764504075422
% es.Ex (V/m) @ t=0.66
-0.9084167889890147
% es.Ey (V/m) @ t=0.66
0.06785656124475861
% es.Ez (V/m) @ t=0.66
-2.900764504075398
% es.tEx (V/m) @ t=0.66
-0.9084167889890296
% es.tEy (V/m) @ t=0.66
0
% es.tEz (V/m) @ t=0.66
-2.900764504075422
% V (V) @ t=0.66
0.015305898173874566
% es.normE (V/m) @ t=0.68
3.087557527401397
% es.EX (V/m) @ t=0.68
-0.9210819587749399
% es.EY (V/m) @ t=0.68
0.06880262731330686
% es.EZ (V/m) @ t=0.68
-2.9412070203256464
% es.tEX (V/m) @ t=0.68
-0.9210819587749484
% es.tEY (V/m) @ t=0.68
0
% es.tEZ (V/m) @ t=0.68
-2.941207020325665
% es.Ex (V/m) @ t=0.68
-0.9210819587749399
% es.Ey (V/m) @ t=0.68
0.06880262731330686
% es.Ez (V/m) @ t=0.68
-2.9412070203256464
% es.tEx (V/m) @ t=0.68
-0.9210819587749484
% es.tEy (V/m) @ t=0.68
0
% es.tEz (V/m) @ t=0.68
-2.941207020325665
% V (V) @ t=0.68
0.015519292992315813
% es.normE (V/m) @ t=0.7
3.1304007411174988
% es.EX (V/m) @ t=0.7
-0.933862973810335
% es.EY (V/m) @ t=0.7
0.06975734325956437
% es.EZ (V/m) @ t=0.7
-2.9820194606585098
% es.tEX (V/m) @ t=0.7
-0.9338629738103421
% es.tEY (V/m) @ t=0.7
0
% es.tEZ (V/m) @ t=0.7
-2.9820194606585417
% es.Ex (V/m) @ t=0.7
-0.933862973810335
% es.Ey (V/m) @ t=0.7
0.06975734325956437
% es.Ez (V/m) @ t=0.7
-2.9820194606585098
% es.tEx (V/m) @ t=0.7
-0.9338629738103421
% es.tEy (V/m) @ t=0.7
0
% es.tEz (V/m) @ t=0.7
-2.9820194606585417
% V (V) @ t=0.7
0.01573463985095184
% es.normE (V/m) @ t=0.72
3.1736322850250622
% es.EX (V/m) @ t=0.72
-0.9467598340952101
% es.EY (V/m) @ t=0.72
0.0707207090835925
% es.EZ (V/m) @ t=0.72
-3.023201825074004
% es.tEX (V/m) @ t=0.72
-0.9467598340952179
% es.tEY (V/m) @ t=0.72
0
% es.tEZ (V/m) @ t=0.72
-3.023201825074022
% es.Ex (V/m) @ t=0.72
-0.9467598340952101
% es.Ey (V/m) @ t=0.72
0.0707207090835925
% es.Ez (V/m) @ t=0.72
-3.023201825074004
% es.tEx (V/m) @ t=0.72
-0.9467598340952179
% es.tEy (V/m) @ t=0.72
0
% es.tEz (V/m) @ t=0.72
-3.023201825074022
% V (V) @ t=0.72
0.01595193874978264
% es.normE (V/m) @ t=0.74
3.2172521591240426
% es.EX (V/m) @ t=0.74
-0.9597725396295713
% es.EY (V/m) @ t=0.74
0.07169272478531612
% es.EZ (V/m) @ t=0.74
-3.064754113572084
% es.tEX (V/m) @ t=0.74
-0.9597725396295829
% es.tEY (V/m) @ t=0.74
0
% es.tEZ (V/m) @ t=0.74
-3.0647541135721106
% es.Ex (V/m) @ t=0.74
-0.9597725396295713
% es.Ey (V/m) @ t=0.74
0.07169272478531612
% es.Ez (V/m) @ t=0.74
-3.064754113572084
% es.tEx (V/m) @ t=0.74
-0.9597725396295829
% es.tEy (V/m) @ t=0.74
0
% es.tEz (V/m) @ t=0.74
-3.0647541135721106
% V (V) @ t=0.74
0.016171189688808225
% es.normE (V/m) @ t=0.76
3.2612603634144586
% es.EX (V/m) @ t=0.76
-0.9729010904133772
% es.EY (V/m) @ t=0.76
0.07267339036479252
% es.EZ (V/m) @ t=0.76
-3.1066763261527797
% es.tEX (V/m) @ t=0.76
-0.9729010904133801
% es.tEY (V/m) @ t=0.76
0
% es.tEZ (V/m) @ t=0.76
-3.1066763261528045
% es.Ex (V/m) @ t=0.76
-0.9729010904133772
% es.Ey (V/m) @ t=0.76
0.07267339036479252
% es.Ez (V/m) @ t=0.76
-3.1066763261527797
% es.tEx (V/m) @ t=0.76
-0.9729010904133801
% es.tEy (V/m) @ t=0.76
0
% es.tEz (V/m) @ t=0.76
-3.1066763261528045
% V (V) @ t=0.76
0.016392392668028586
% es.normE (V/m) @ t=0.78
3.3056568978963368
% es.EX (V/m) @ t=0.78
-0.9861454864466832
% es.EY (V/m) @ t=0.78
0.07366270582195635
% es.EZ (V/m) @ t=0.78
-3.1489684628161028
% es.tEX (V/m) @ t=0.78
-0.9861454864466879
% es.tEY (V/m) @ t=0.78
0
% es.tEZ (V/m) @ t=0.78
-3.1489684628161303
% es.Ex (V/m) @ t=0.78
-0.9861454864466832
% es.Ey (V/m) @ t=0.78
0.07366270582195635
% es.Ez (V/m) @ t=0.78
-3.1489684628161028
% es.tEx (V/m) @ t=0.78
-0.9861454864466879
% es.tEy (V/m) @ t=0.78
0
% es.tEz (V/m) @ t=0.78
-3.1489684628161303
% V (V) @ t=0.78
0.016615547687443732
% es.normE (V/m) @ t=0.8
3.35044176256966
% es.EX (V/m) @ t=0.8
-0.9995057277294732
% es.EY (V/m) @ t=0.8
0.07466067115684814
% es.EZ (V/m) @ t=0.8
-3.191630523562041
% es.tEX (V/m) @ t=0.8
-0.9995057277294848
% es.tEY (V/m) @ t=0.8
0
% es.tEZ (V/m) @ t=0.8
-3.1916305235620683
% es.Ex (V/m) @ t=0.8
-0.9995057277294732
% es.Ey (V/m) @ t=0.8
0.07466067115684814
% es.Ez (V/m) @ t=0.8
-3.191630523562041
% es.tEx (V/m) @ t=0.8
-0.9995057277294848
% es.tEy (V/m) @ t=0.8
0
% es.tEz (V/m) @ t=0.8
-3.1916305235620683
% V (V) @ t=0.8
0.01684065474705365
% es.normE (V/m) @ t=0.82
3.3959037350826797
% es.EX (V/m) @ t=0.82
-1.0130679611886722
% es.EY (V/m) @ t=0.82
0.07567371898353308
% es.EZ (V/m) @ t=0.82
-3.234937598571552
% es.tEX (V/m) @ t=0.82
-1.013067961188682
% es.tEY (V/m) @ t=0.82
0
% es.tEZ (V/m) @ t=0.82
-3.234937598571591
% es.Ex (V/m) @ t=0.82
-1.0130679611886722
% es.Ey (V/m) @ t=0.82
0.07567371898353308
% es.Ez (V/m) @ t=0.82
-3.234937598571552
% es.tEx (V/m) @ t=0.82
-1.013067961188682
% es.tEy (V/m) @ t=0.82
0
% es.tEz (V/m) @ t=0.82
-3.234937598571591
% V (V) @ t=0.82
0.017069165453181618
% es.normE (V/m) @ t=0.84
3.4423064923186324
% es.EX (V/m) @ t=0.84
-1.0269108457971594
% es.EY (V/m) @ t=0.84
0.07670772278847565
% es.EZ (V/m) @ t=0.84
-3.27914086698527
% es.tEX (V/m) @ t=0.84
-1.0269108457971683
% es.tEY (V/m) @ t=0.84
0
% es.tEZ (V/m) @ t=0.84
-3.279140866985312
% es.Ex (V/m) @ t=0.84
-1.0269108457971594
% es.Ey (V/m) @ t=0.84
0.07670772278847565
% es.Ez (V/m) @ t=0.84
-3.27914086698527
% es.tEx (V/m) @ t=0.84
-1.0269108457971683
% es.tEy (V/m) @ t=0.84
0
% es.tEz (V/m) @ t=0.84
-3.279140866985312
% V (V) @ t=0.84
0.01730240523746398
% es.normE (V/m) @ t=0.86
3.4892076013873248
% es.EX (V/m) @ t=0.86
-1.0409023968459357
% es.EY (V/m) @ t=0.86
0.07775282723819037
% es.EZ (V/m) @ t=0.86
-3.3238188663231174
% es.tEX (V/m) @ t=0.86
-1.0409023968459437
% es.tEY (V/m) @ t=0.86
0
% es.tEZ (V/m) @ t=0.86
-3.3238188663231316
% es.Ex (V/m) @ t=0.86
-1.0409023968459357
% es.Ey (V/m) @ t=0.86
0.07775282723819037
% es.Ez (V/m) @ t=0.86
-3.3238188663231174
% es.tEx (V/m) @ t=0.86
-1.0409023968459437
% es.tEy (V/m) @ t=0.86
0
% es.tEz (V/m) @ t=0.86
-3.3238188663231316
% V (V) @ t=0.86
0.017538150110666083
% es.normE (V/m) @ t=0.88
3.536607062288671
% es.EX (V/m) @ t=0.88
-1.055042614334986
% es.EY (V/m) @ t=0.88
0.07880903233276432
% es.EZ (V/m) @ t=0.88
-3.3689715965850073
% es.tEX (V/m) @ t=0.88
-1.0550426143349867
% es.tEY (V/m) @ t=0.88
0
% es.tEZ (V/m) @ t=0.88
-3.36897159658505
% es.Ex (V/m) @ t=0.88
-1.055042614334986
% es.Ey (V/m) @ t=0.88
0.07880903233276432
% es.Ez (V/m) @ t=0.88
-3.3689715965850073
% es.tEx (V/m) @ t=0.88
-1.0550426143349867
% es.tEy (V/m) @ t=0.88
0
% es.tEz (V/m) @ t=0.88
-3.36897159658505
% V (V) @ t=0.88
0.017776400072787926
% es.normE (V/m) @ t=0.9
3.584504875022776
% es.EX (V/m) @ t=0.9
-1.0693314982643154
% es.EY (V/m) @ t=0.9
0.07987633807211375
% es.EZ (V/m) @ t=0.9
-3.414599057771044
% es.tEX (V/m) @ t=0.9
-1.0693314982643258
% es.tEY (V/m) @ t=0.9
0
% es.tEZ (V/m) @ t=0.9
-3.414599057771067
% es.Ex (V/m) @ t=0.9
-1.0693314982643154
% es.Ey (V/m) @ t=0.9
0.07987633807211375
% es.Ez (V/m) @ t=0.9
-3.414599057771044
% es.tEx (V/m) @ t=0.9
-1.0693314982643258
% es.tEy (V/m) @ t=0.9
0
% es.tEz (V/m) @ t=0.9
-3.414599057771067
% V (V) @ t=0.9
0.018017155123829516
% es.normE (V/m) @ t=0.92
3.63290103958963
% es.EX (V/m) @ t=0.92
-1.0837690486339375
% es.EY (V/m) @ t=0.92
0.08095474445627521
% es.EZ (V/m) @ t=0.92
-3.460701249881221
% es.tEX (V/m) @ t=0.92
-1.083769048633954
% es.tEY (V/m) @ t=0.92
0
% es.tEZ (V/m) @ t=0.92
-3.460701249881268
% es.Ex (V/m) @ t=0.92
-1.0837690486339375
% es.Ey (V/m) @ t=0.92
0.08095474445627521
% es.Ez (V/m) @ t=0.92
-3.460701249881221
% es.tEx (V/m) @ t=0.92
-1.083769048633954
% es.tEy (V/m) @ t=0.92
0
% es.tEz (V/m) @ t=0.92
-3.460701249881268
% V (V) @ t=0.92
0.018260415263790842
% es.normE (V/m) @ t=0.94
3.681795555989193
% es.EX (V/m) @ t=0.94
-1.0983552654438542
% es.EY (V/m) @ t=0.94
0.08204425148525263
% es.EZ (V/m) @ t=0.94
-3.5072781729154885
% es.tEX (V/m) @ t=0.94
-1.098355265443864
% es.tEY (V/m) @ t=0.94
0
% es.tEZ (V/m) @ t=0.94
-3.5072781729155302
% es.Ex (V/m) @ t=0.94
-1.0983552654438542
% es.Ey (V/m) @ t=0.94
0.08204425148525263
% es.Ez (V/m) @ t=0.94
-3.5072781729154885
% es.tEx (V/m) @ t=0.94
-1.098355265443864
% es.tEy (V/m) @ t=0.94
0
% es.tEz (V/m) @ t=0.94
-3.5072781729155302
% V (V) @ t=0.94
0.018506180492671918
% es.normE (V/m) @ t=0.96
3.7311884242214903
% es.EX (V/m) @ t=0.96
-1.1130901486940277
% es.EY (V/m) @ t=0.96
0.08314485915900982
% es.EZ (V/m) @ t=0.96
-3.554329826873886
% es.tEX (V/m) @ t=0.96
-1.1130901486940417
% es.tEY (V/m) @ t=0.96
0
% es.tEZ (V/m) @ t=0.96
-3.554329826873916
% es.Ex (V/m) @ t=0.96
-1.1130901486940277
% es.Ey (V/m) @ t=0.96
0.08314485915900982
% es.Ez (V/m) @ t=0.96
-3.554329826873886
% es.tEx (V/m) @ t=0.96
-1.1130901486940417
% es.tEy (V/m) @ t=0.96
0
% es.tEz (V/m) @ t=0.96
-3.554329826873916
% V (V) @ t=0.96
0.018754450810472733
% es.normE (V/m) @ t=0.98
3.7810796442864865
% es.EX (V/m) @ t=0.98
-1.1279736983844884
% es.EY (V/m) @ t=0.98
0.08425656747759275
% es.EZ (V/m) @ t=0.98
-3.601856211756367
% es.tEX (V/m) @ t=0.98
-1.1279736983845012
% es.tEY (V/m) @ t=0.98
0
% es.tEZ (V/m) @ t=0.98
-3.601856211756399
% es.Ex (V/m) @ t=0.98
-1.1279736983844884
% es.Ey (V/m) @ t=0.98
0.08425656747759275
% es.Ez (V/m) @ t=0.98
-3.601856211756367
% es.tEx (V/m) @ t=0.98
-1.1279736983845012
% es.tEy (V/m) @ t=0.98
0
% es.tEz (V/m) @ t=0.98
-3.601856211756399
% V (V) @ t=0.98
0.01900522621719329
% es.normE (V/m) @ t=1
3.831469216184238
% es.EX (V/m) @ t=1
-1.1430059145152391
% es.EY (V/m) @ t=1
0.08537937644098786
% es.EZ (V/m) @ t=1
-3.649857327562991
% es.tEX (V/m) @ t=1
-1.1430059145152498
% es.tEY (V/m) @ t=1
0
% es.tEZ (V/m) @ t=1
-3.649857327563012
% es.Ex (V/m) @ t=1
-1.1430059145152391
% es.Ey (V/m) @ t=1
0.08537937644098786
% es.Ez (V/m) @ t=1
-3.649857327562991
% es.tEx (V/m) @ t=1
-1.1430059145152498
% es.tEy (V/m) @ t=1
0
% es.tEz (V/m) @ t=1
-3.649857327563012
% V (V) @ t=1
0.019258506712833585
% es.normE (V/m) @ t=1.02
3.882357139914694
% es.EX (V/m) @ t=1.02
-1.158186797086271
% es.EY (V/m) @ t=1.02
0.0865132860491665
% es.EZ (V/m) @ t=1.02
-3.698333174293704
% es.tEX (V/m) @ t=1.02
-1.1581867970862874
% es.tEY (V/m) @ t=1.02
0
% es.tEZ (V/m) @ t=1.02
-3.69833317429374
% es.Ex (V/m) @ t=1.02
-1.158186797086271
% es.Ey (V/m) @ t=1.02
0.0865132860491665
% es.Ez (V/m) @ t=1.02
-3.698333174293704
% es.tEx (V/m) @ t=1.02
-1.1581867970862874
% es.tEy (V/m) @ t=1.02
0
% es.tEz (V/m) @ t=1.02
-3.69833317429374
% V (V) @ t=1.02
0.019514292297393626
% es.normE (V/m) @ t=1.04
3.9337434154778816