% Model:              1 neuron.mph
% Version:            COMSOL 6.0.0.405
% Date:               Mar 16 2023, 19:08
% Dimension:          0
% Nodes:              14017
% Expressions:        14017
% Description:        Electric field norm, Electric field, X component, Electric field, Y component, Electric field, Z component, Tangential electric field, X component, Tangential electric field, Y component, Tangential electric field, Z component, Electric field, x component, Electric field, y component, Electric field, z component, Tangential electric field, x component, Tangential electric field, y component, Tangential electric field, z component, Electric potential
% Length unit:        mm
% x
2
% y
12.199999999999998
% z
2
% es.normE (V/m) @ t=0
1.1111636568427228
% es.EX (V/m) @ t=0
-0.7954900996444929
% es.EY (V/m) @ t=0
0.30295056500886286
% es.EZ (V/m) @ t=0
-0.7098546292456573
% es.tEX (V/m) @ t=0
-0.7954900996444971
% es.tEY (V/m) @ t=0
0
% es.tEZ (V/m) @ t=0
-0.7098546292456582
% es.Ex (V/m) @ t=0
-0.7954900996444929
% es.Ey (V/m) @ t=0
0.30295056500886286
% es.Ez (V/m) @ t=0
-0.7098546292456573
% es.tEx (V/m) @ t=0
-0.7954900996444971
% es.tEy (V/m) @ t=0
0
% es.tEz (V/m) @ t=0
-0.7098546292456582
% V (V) @ t=0
0.011308082342659564
% es.normE (V/m) @ t=0.02
0.9650546882295562
% es.EX (V/m) @ t=0.02
-0.6908896322533553
% es.EY (V/m) @ t=0.02
0.2631150354574947
% es.EZ (V/m) @ t=0.02
-0.616514527419989
% es.tEX (V/m) @ t=0.02
-0.6908896322533553
% es.tEY (V/m) @ t=0.02
0
% es.tEZ (V/m) @ t=0.02
-0.6165145274199952
% es.Ex (V/m) @ t=0.02
-0.6908896322533553
% es.Ey (V/m) @ t=0.02
0.2631150354574947
% es.Ez (V/m) @ t=0.02
-0.616514527419989
% es.tEx (V/m) @ t=0.02
-0.6908896322533553
% es.tEy (V/m) @ t=0.02
0
% es.tEz (V/m) @ t=0.02
-0.6165145274199952
% V (V) @ t=0.02
0.009821161548297402
% es.normE (V/m) @ t=0.04
0.9793652485457056
% es.EX (V/m) @ t=0.04
-0.7011346662169728
% es.EY (V/m) @ t=0.04
0.2670167082200172
% es.EZ (V/m) @ t=0.04
-0.6256566683448419
% es.tEX (V/m) @ t=0.04
-0.7011346662169675
% es.tEY (V/m) @ t=0.04
0
% es.tEZ (V/m) @ t=0.04
-0.6256566683448517
% es.Ex (V/m) @ t=0.04
-0.7011346662169728
% es.Ey (V/m) @ t=0.04
0.2670167082200172
% es.Ez (V/m) @ t=0.04
-0.6256566683448419
% es.tEx (V/m) @ t=0.04
-0.7011346662169675
% es.tEy (V/m) @ t=0.04
0
% es.tEz (V/m) @ t=0.04
-0.6256566683448517
% V (V) @ t=0.04
0.009966796939899486
% es.normE (V/m) @ t=0.06
0.993886922445227
% es.EX (V/m) @ t=0.06
-0.7115308374466507
% es.EY (V/m) @ t=0.06
0.2709759335334643
% es.EZ (V/m) @ t=0.06
-0.6349336804259282
% es.tEX (V/m) @ t=0.06
-0.7115308374466456
% es.tEY (V/m) @ t=0.06
0
% es.tEZ (V/m) @ t=0.06
-0.6349336804259273
% es.Ex (V/m) @ t=0.06
-0.7115308374466507
% es.Ey (V/m) @ t=0.06
0.2709759335334643
% es.Ez (V/m) @ t=0.06
-0.6349336804259282
% es.tEx (V/m) @ t=0.06
-0.7115308374466456
% es.tEy (V/m) @ t=0.06
0
% es.tEz (V/m) @ t=0.06
-0.6349336804259273
% V (V) @ t=0.06
0.010114581103165004
% es.normE (V/m) @ t=0.08
1.0087875856982924
% es.EX (V/m) @ t=0.08
-0.7221983299934285
% es.EY (V/m) @ t=0.08
0.2750384885945092
% es.EZ (V/m) @ t=0.08
-0.6444528050053462
% es.tEX (V/m) @ t=0.08
-0.7221983299934251
% es.tEY (V/m) @ t=0.08
0
% es.tEZ (V/m) @ t=0.08
-0.6444528050053488
% es.Ex (V/m) @ t=0.08
-0.7221983299934285
% es.Ey (V/m) @ t=0.08
0.2750384885945092
% es.Ez (V/m) @ t=0.08
-0.6444528050053462
% es.tEx (V/m) @ t=0.08
-0.7221983299934251
% es.tEy (V/m) @ t=0.08
0
% es.tEz (V/m) @ t=0.08
-0.6444528050053488
% V (V) @ t=0.08
0.010266222103715285
% es.normE (V/m) @ t=0.1
1.0239349825258444
% es.EX (V/m) @ t=0.1
-0.7330424609543591
% es.EY (V/m) @ t=0.1
0.27916831445815293
% es.EZ (V/m) @ t=0.1
-0.654129552171228
% es.tEX (V/m) @ t=0.1
-0.733042460954358
% es.tEY (V/m) @ t=0.1
0
% es.tEZ (V/m) @ t=0.1
-0.6541295521712236
% es.Ex (V/m) @ t=0.1
-0.7330424609543591
% es.Ey (V/m) @ t=0.1
0.27916831445815293
% es.Ez (V/m) @ t=0.1
-0.654129552171228
% es.tEx (V/m) @ t=0.1
-0.733042460954358
% es.tEy (V/m) @ t=0.1
0
% es.tEz (V/m) @ t=0.1
-0.6541295521712236
% V (V) @ t=0.1
0.010420374022423419
% es.normE (V/m) @ t=0.12
1.0390823793533874
% es.EX (V/m) @ t=0.12
-0.7438865919152835
% es.EY (V/m) @ t=0.12
0.2832981403217891
% es.EZ (V/m) @ t=0.12
-0.6638062993371054
% es.tEX (V/m) @ t=0.12
-0.7438865919152793
% es.tEY (V/m) @ t=0.12
0
% es.tEZ (V/m) @ t=0.12
-0.6638062993371054
% es.Ex (V/m) @ t=0.12
-0.7438865919152835
% es.Ey (V/m) @ t=0.12
0.2832981403217891
% es.Ez (V/m) @ t=0.12
-0.6638062993371054
% es.tEx (V/m) @ t=0.12
-0.7438865919152793
% es.tEy (V/m) @ t=0.12
0
% es.tEz (V/m) @ t=0.12
-0.6638062993371054
% V (V) @ t=0.12
0.01057452594113155
% es.normE (V/m) @ t=0.14
1.0545297077474203
% es.EX (V/m) @ t=0.14
-0.7549454467416712
% es.EY (V/m) @ t=0.14
0.28750974868120793
% es.EZ (V/m) @ t=0.14
-0.6736746494657533
% es.tEX (V/m) @ t=0.14
-0.7549454467416723
% es.tEY (V/m) @ t=0.14
0
% es.tEZ (V/m) @ t=0.14
-0.6736746494657488
% es.Ex (V/m) @ t=0.14
-0.7549454467416712
% es.Ey (V/m) @ t=0.14
0.28750974868120793
% es.Ez (V/m) @ t=0.14
-0.6736746494657533
% es.tEx (V/m) @ t=0.14
-0.7549454467416723
% es.tEy (V/m) @ t=0.14
0
% es.tEz (V/m) @ t=0.14
-0.6736746494657488
% V (V) @ t=0.14
0.010731729769236706
% es.normE (V/m) @ t=0.16
1.0710325436527464
% es.EX (V/m) @ t=0.16
-0.7667599494496837
% es.EY (V/m) @ t=0.16
0.2920091628211501
% es.EZ (V/m) @ t=0.16
-0.684217281293904
% es.tEX (V/m) @ t=0.16
-0.7667599494496837
% es.tEY (V/m) @ t=0.16
0
% es.tEZ (V/m) @ t=0.16
-0.6842172812939165
% es.Ex (V/m) @ t=0.16
-0.7667599494496837
% es.Ey (V/m) @ t=0.16
0.2920091628211501
% es.Ez (V/m) @ t=0.16
-0.684217281293904
% es.tEx (V/m) @ t=0.16
-0.7667599494496837
% es.tEy (V/m) @ t=0.16
0
% es.tEz (V/m) @ t=0.16
-0.6842172812939165
% V (V) @ t=0.16
0.010899673758272757
% es.normE (V/m) @ t=0.18
1.087535379558079
% es.EX (V/m) @ t=0.18
-0.7785744521576894
% es.EY (V/m) @ t=0.18
0.2965085769611089
% es.EZ (V/m) @ t=0.18
-0.6947599131220645
% es.tEX (V/m) @ t=0.18
-0.7785744521576885
% es.tEY (V/m) @ t=0.18
0
% es.tEZ (V/m) @ t=0.18
-0.6947599131220645
% es.Ex (V/m) @ t=0.18
-0.7785744521576894
% es.Ey (V/m) @ t=0.18
0.2965085769611089
% es.Ez (V/m) @ t=0.18
-0.6947599131220645
% es.tEx (V/m) @ t=0.18
-0.7785744521576885
% es.tEy (V/m) @ t=0.18
0
% es.tEz (V/m) @ t=0.18
-0.6947599131220645
% V (V) @ t=0.18
0.011067617747308803
% es.normE (V/m) @ t=0.2
1.1040382154634134
% es.EX (V/m) @ t=0.2
-0.7903889548656975
% es.EY (V/m) @ t=0.2
0.30100799110104925
% es.EZ (V/m) @ t=0.2
-0.7053025449502268
% es.tEX (V/m) @ t=0.2
-0.7903889548656924
% es.tEY (V/m) @ t=0.2
0
% es.tEZ (V/m) @ t=0.2
-0.705302544950225
% es.Ex (V/m) @ t=0.2
-0.7903889548656975
% es.Ey (V/m) @ t=0.2
0.30100799110104925
% es.Ez (V/m) @ t=0.2
-0.7053025449502268
% es.tEx (V/m) @ t=0.2
-0.7903889548656924
% es.tEy (V/m) @ t=0.2
0
% es.tEz (V/m) @ t=0.2
-0.705302544950225
% V (V) @ t=0.2
0.011235561736344855
% es.normE (V/m) @ t=0.22
1.120541051368746
% es.EX (V/m) @ t=0.22
-0.8022034575737143
% es.EY (V/m) @ t=0.22
0.30550740524100317
% es.EZ (V/m) @ t=0.22
-0.7158451767783687
% es.tEX (V/m) @ t=0.22
-0.8022034575737149
% es.tEY (V/m) @ t=0.22
0
% es.tEZ (V/m) @ t=0.22
-0.7158451767783713
% es.Ex (V/m) @ t=0.22
-0.8022034575737143
% es.Ey (V/m) @ t=0.22
0.30550740524100317
% es.Ez (V/m) @ t=0.22
-0.7158451767783687
% es.tEx (V/m) @ t=0.22
-0.8022034575737149
% es.tEy (V/m) @ t=0.22
0
% es.tEz (V/m) @ t=0.22
-0.7158451767783713
% V (V) @ t=0.22
0.011403505725380902
% es.normE (V/m) @ t=0.24
1.1370438872740714
% es.EX (V/m) @ t=0.24
-0.8140179602817017
% es.EY (V/m) @ t=0.24
0.31000681938092844
% es.EZ (V/m) @ t=0.24
-0.7263878086065416
% es.tEX (V/m) @ t=0.24
-0.8140179602817046
% es.tEY (V/m) @ t=0.24
0
% es.tEZ (V/m) @ t=0.24
-0.7263878086065461
% es.Ex (V/m) @ t=0.24
-0.8140179602817017
% es.Ey (V/m) @ t=0.24
0.31000681938092844
% es.Ez (V/m) @ t=0.24
-0.7263878086065416
% es.tEx (V/m) @ t=0.24
-0.8140179602817046
% es.tEy (V/m) @ t=0.24
0
% es.tEz (V/m) @ t=0.24
-0.7263878086065461
% V (V) @ t=0.24
0.011571449714416954
% es.normE (V/m) @ t=0.26
1.1535467231794225
% es.EX (V/m) @ t=0.26
-0.8258324629897171
% es.EY (V/m) @ t=0.26
0.314506233520889
% es.EZ (V/m) @ t=0.26
-0.7369304404347048
% es.tEX (V/m) @ t=0.26
-0.8258324629897236
% es.tEY (V/m) @ t=0.26
0
% es.tEZ (V/m) @ t=0.26
-0.7369304404347083
% es.Ex (V/m) @ t=0.26
-0.8258324629897171
% es.Ey (V/m) @ t=0.26
0.314506233520889
% es.Ez (V/m) @ t=0.26
-0.7369304404347048
% es.tEx (V/m) @ t=0.26
-0.8258324629897236
% es.tEy (V/m) @ t=0.26
0
% es.tEz (V/m) @ t=0.26
-0.7369304404347083
% V (V) @ t=0.26
0.011739393703453001
% es.normE (V/m) @ t=0.28
1.1707114440623507
% es.EX (V/m) @ t=0.28
-0.8381208130253319
% es.EY (V/m) @ t=0.28
0.31918609501570283
% es.EZ (V/m) @ t=0.28
-0.7478959166061827
% es.tEX (V/m) @ t=0.28
-0.838120813025335
% es.tEY (V/m) @ t=0.28
0
% es.tEZ (V/m) @ t=0.28
-0.747895916606188
% es.Ex (V/m) @ t=0.28
-0.8381208130253319
% es.Ey (V/m) @ t=0.28
0.31918609501570283
% es.Ez (V/m) @ t=0.28
-0.7478959166061827
% es.tEx (V/m) @ t=0.28
-0.838120813025335
% es.tEy (V/m) @ t=0.28
0
% es.tEz (V/m) @ t=0.28
-0.747895916606188
% V (V) @ t=0.28
0.011914074109547475
% es.normE (V/m) @ t=0.3
1.1886770892028449
% es.EX (V/m) @ t=0.3
-0.8509825494224721
% es.EY (V/m) @ t=0.3
0.324084309651373
% es.EZ (V/m) @ t=0.3
-0.7593730621812851
% es.tEX (V/m) @ t=0.3
-0.8509825494224676
% es.tEY (V/m) @ t=0.3
0
% es.tEZ (V/m) @ t=0.3
-0.7593730621812878
% es.Ex (V/m) @ t=0.3
-0.8509825494224721
% es.Ey (V/m) @ t=0.3
0.324084309651373
% es.Ez (V/m) @ t=0.3
-0.7593730621812851
% es.tEx (V/m) @ t=0.3
-0.8509825494224676
% es.tEy (V/m) @ t=0.3
0
% es.tEz (V/m) @ t=0.3
-0.7593730621812878
% V (V) @ t=0.3
0.012096906022344589
% es.normE (V/m) @ t=0.32
1.206642734343347
% es.EX (V/m) @ t=0.32
-0.8638442858196214
% es.EY (V/m) @ t=0.32
0.32898252428702435
% es.EZ (V/m) @ t=0.32
-0.7708502077563972
% es.tEX (V/m) @ t=0.32
-0.863844285819614
% es.tEY (V/m) @ t=0.32
0
% es.tEZ (V/m) @ t=0.32
-0.7708502077563981
% es.Ex (V/m) @ t=0.32
-0.8638442858196214
% es.Ey (V/m) @ t=0.32
0.32898252428702435
% es.Ez (V/m) @ t=0.32
-0.7708502077563972
% es.tEx (V/m) @ t=0.32
-0.863844285819614
% es.tEy (V/m) @ t=0.32
0
% es.tEz (V/m) @ t=0.32
-0.7708502077563981
% V (V) @ t=0.32
0.012279737935141708
% es.normE (V/m) @ t=0.34
1.2246083794838363
% es.EX (V/m) @ t=0.34
-0.8767060222167529
% es.EY (V/m) @ t=0.34
0.33388073892268855
% es.EZ (V/m) @ t=0.34
-0.7823273533315023
% es.tEX (V/m) @ t=0.34
-0.8767060222167533
% es.tEY (V/m) @ t=0.34
0
% es.tEZ (V/m) @ t=0.34
-0.7823273533315049
% es.Ex (V/m) @ t=0.34
-0.8767060222167529
% es.Ey (V/m) @ t=0.34
0.33388073892268855
% es.Ez (V/m) @ t=0.34
-0.7823273533315023
% es.tEx (V/m) @ t=0.34
-0.8767060222167533
% es.tEy (V/m) @ t=0.34
0
% es.tEz (V/m) @ t=0.34
-0.7823273533315049
% V (V) @ t=0.34
0.012462569847938825
% es.normE (V/m) @ t=0.36
1.2425740246243362
% es.EX (V/m) @ t=0.36
-0.8895677586139021
% es.EY (V/m) @ t=0.36
0.33877895355833587
% es.EZ (V/m) @ t=0.36
-0.7938044989066126
% es.tEX (V/m) @ t=0.36
-0.8895677586139006
% es.tEY (V/m) @ t=0.36
0
% es.tEZ (V/m) @ t=0.36
-0.7938044989066206
% es.Ex (V/m) @ t=0.36
-0.8895677586139021
% es.Ey (V/m) @ t=0.36
0.33877895355833587
% es.Ez (V/m) @ t=0.36
-0.7938044989066126
% es.tEx (V/m) @ t=0.36
-0.8895677586139006
% es.tEy (V/m) @ t=0.36
0
% es.tEz (V/m) @ t=0.36
-0.7938044989066206
% V (V) @ t=0.36
0.012645401760735938
% es.normE (V/m) @ t=0.38
1.260539669764837
% es.EX (V/m) @ t=0.38
-0.9024294950110456
% es.EY (V/m) @ t=0.38
0.3436771681940165
% es.EZ (V/m) @ t=0.38
-0.8052816444817159
% es.tEX (V/m) @ t=0.38
-0.9024294950110465
% es.tEY (V/m) @ t=0.38
0
% es.tEZ (V/m) @ t=0.38
-0.8052816444817132
% es.Ex (V/m) @ t=0.38
-0.9024294950110456
% es.Ey (V/m) @ t=0.38
0.3436771681940165
% es.Ez (V/m) @ t=0.38
-0.8052816444817159
% es.tEx (V/m) @ t=0.38
-0.9024294950110465
% es.tEy (V/m) @ t=0.38
0
% es.tEz (V/m) @ t=0.38
-0.8052816444817132
% V (V) @ t=0.38
0.012828233673533054
% es.normE (V/m) @ t=0.4
1.2785053149053298
% es.EX (V/m) @ t=0.4
-0.9152912314081896
% es.EY (V/m) @ t=0.4
0.3485753828296767
% es.EZ (V/m) @ t=0.4
-0.8167587900568138
% es.tEX (V/m) @ t=0.4
-0.9152912314081894
% es.tEY (V/m) @ t=0.4
0
% es.tEZ (V/m) @ t=0.4
-0.8167587900568147
% es.Ex (V/m) @ t=0.4
-0.9152912314081896
% es.Ey (V/m) @ t=0.4
0.3485753828296767
% es.Ez (V/m) @ t=0.4
-0.8167587900568138
% es.tEx (V/m) @ t=0.4
-0.9152912314081894
% es.tEy (V/m) @ t=0.4
0
% es.tEz (V/m) @ t=0.4
-0.8167587900568147
% V (V) @ t=0.4
0.01301106558633017
% es.normE (V/m) @ t=0.42
1.2975460634286509
% es.EX (V/m) @ t=0.42
-0.9289226434986804
% es.EY (V/m) @ t=0.42
0.3537667327976415
% es.EZ (V/m) @ t=0.42
-0.8289227437178344
% es.tEX (V/m) @ t=0.42
-0.9289226434986784
% es.tEY (V/m) @ t=0.42
0
% es.tEZ (V/m) @ t=0.42
-0.828922743717829
% es.Ex (V/m) @ t=0.42
-0.9289226434986804
% es.Ey (V/m) @ t=0.42
0.3537667327976415
% es.Ez (V/m) @ t=0.42
-0.8289227437178344
% es.tEx (V/m) @ t=0.42
-0.9289226434986784
% es.tEy (V/m) @ t=0.42
0
% es.tEz (V/m) @ t=0.42
-0.828922743717829
% V (V) @ t=0.42
0.013204837763139826
% es.normE (V/m) @ t=0.44
1.3170842546779147
% es.EX (V/m) @ t=0.44
-0.9429101790849332
% es.EY (V/m) @ t=0.44
0.3590937144091524
% es.EZ (V/m) @ t=0.44
-0.841404478619145
% es.tEX (V/m) @ t=0.44
-0.9429101790849308
% es.tEY (V/m) @ t=0.44
0
% es.tEZ (V/m) @ t=0.44
-0.8414044786191486
% es.Ex (V/m) @ t=0.44
-0.9429101790849332
% es.Ey (V/m) @ t=0.44
0.3590937144091524
% es.Ez (V/m) @ t=0.44
-0.841404478619145
% es.tEx (V/m) @ t=0.44
-0.9429101790849308
% es.tEy (V/m) @ t=0.44
0
% es.tEz (V/m) @ t=0.44
-0.8414044786191486
% V (V) @ t=0.44
0.013403671922675988
% es.normE (V/m) @ t=0.46
1.336622445927189
% es.EX (V/m) @ t=0.46
-0.9568977146711941
% es.EY (V/m) @ t=0.46
0.3644206960206513
% es.EZ (V/m) @ t=0.46
-0.8538862135204699
% es.tEX (V/m) @ t=0.46
-0.9568977146711948
% es.tEY (V/m) @ t=0.46
0
% es.tEZ (V/m) @ t=0.46
-0.8538862135204788
% es.Ex (V/m) @ t=0.46
-0.9568977146711941
% es.Ey (V/m) @ t=0.46
0.3644206960206513
% es.Ez (V/m) @ t=0.46
-0.8538862135204699
% es.tEx (V/m) @ t=0.46
-0.9568977146711948
% es.tEy (V/m) @ t=0.46
0
% es.tEz (V/m) @ t=0.46
-0.8538862135204788
% V (V) @ t=0.46
0.013602506082212147
% es.normE (V/m) @ t=0.48
1.356160637176472
% es.EX (V/m) @ t=0.48
-0.9708852502574576
% es.EY (V/m) @ t=0.48
0.36974767763216043
% es.EZ (V/m) @ t=0.48
-0.8663679484217965
% es.tEX (V/m) @ t=0.48
-0.9708852502574521
% es.tEY (V/m) @ t=0.48
0
% es.tEZ (V/m) @ t=0.48
-0.8663679484218001
% es.Ex (V/m) @ t=0.48
-0.9708852502574576
% es.Ey (V/m) @ t=0.48
0.36974767763216043
% es.Ez (V/m) @ t=0.48
-0.8663679484217965
% es.tEx (V/m) @ t=0.48
-0.9708852502574521
% es.tEy (V/m) @ t=0.48
0
% es.tEz (V/m) @ t=0.48
-0.8663679484218001
% V (V) @ t=0.48
0.013801340241748306
% es.normE (V/m) @ t=0.5
1.3756988284257357
% es.EX (V/m) @ t=0.5
-0.9848727858437041
% es.EY (V/m) @ t=0.5
0.3750746592436718
% es.EZ (V/m) @ t=0.5
-0.878849683323109
% es.tEX (V/m) @ t=0.5
-0.9848727858436979
% es.tEY (V/m) @ t=0.5
0
% es.tEZ (V/m) @ t=0.5
-0.8788496833231072
% es.Ex (V/m) @ t=0.5
-0.9848727858437041
% es.Ey (V/m) @ t=0.5
0.3750746592436718
% es.Ez (V/m) @ t=0.5
-0.878849683323109
% es.tEx (V/m) @ t=0.5
-0.9848727858436979
% es.tEy (V/m) @ t=0.5
0
% es.tEz (V/m) @ t=0.5
-0.8788496833231072
% V (V) @ t=0.5
0.014000174401284466
% es.normE (V/m) @ t=0.52
1.3952370196750064
% es.EX (V/m) @ t=0.52
-0.9988603214299461
% es.EY (V/m) @ t=0.52
0.3804016408551556
% es.EZ (V/m) @ t=0.52
-0.8913314182244481
% es.tEX (V/m) @ t=0.52
-0.9988603214299467
% es.tEY (V/m) @ t=0.52
0
% es.tEZ (V/m) @ t=0.52
-0.8913314182244481
% es.Ex (V/m) @ t=0.52
-0.9988603214299461
% es.Ey (V/m) @ t=0.52
0.3804016408551556
% es.Ez (V/m) @ t=0.52
-0.8913314182244481
% es.tEx (V/m) @ t=0.52
-0.9988603214299467
% es.tEy (V/m) @ t=0.52
0
% es.tEz (V/m) @ t=0.52
-0.8913314182244481
% V (V) @ t=0.52
0.014199008560820627
% es.normE (V/m) @ t=0.54
1.4147752109242786
% es.EX (V/m) @ t=0.54
-1.0128478570162118
% es.EY (V/m) @ t=0.54
0.38572862246666295
% es.EZ (V/m) @ t=0.54
-0.903813153125749
% es.tEX (V/m) @ t=0.54
-1.0128478570162107
% es.tEY (V/m) @ t=0.54
0
% es.tEZ (V/m) @ t=0.54
-0.9038131531257552
% es.Ex (V/m) @ t=0.54
-1.0128478570162118
% es.Ey (V/m) @ t=0.54
0.38572862246666295
% es.Ez (V/m) @ t=0.54
-0.903813153125749
% es.tEx (V/m) @ t=0.54
-1.0128478570162107
% es.tEy (V/m) @ t=0.54
0
% es.tEz (V/m) @ t=0.54
-0.9038131531257552
% V (V) @ t=0.54
0.014397842720356786
% es.normE (V/m) @ t=0.56
1.4350033900785957
% es.EX (V/m) @ t=0.56
-1.0273293593932669
% es.EY (V/m) @ t=0.56
0.3912437162925131
% es.EZ (V/m) @ t=0.56
-0.9167356837888292
% es.tEX (V/m) @ t=0.56
-1.0273293593932604
% es.tEY (V/m) @ t=0.56
0
% es.tEZ (V/m) @ t=0.56
-0.9167356837888381
% es.Ex (V/m) @ t=0.56
-1.0273293593932669
% es.Ey (V/m) @ t=0.56
0.3912437162925131
% es.Ez (V/m) @ t=0.56
-0.9167356837888292
% es.tEx (V/m) @ t=0.56
-1.0273293593932604
% es.tEy (V/m) @ t=0.56
0
% es.tEz (V/m) @ t=0.56
-0.9167356837888381
% V (V) @ t=0.56
0.014603699153050107
% es.normE (V/m) @ t=0.58
1.455483732054454
% es.EX (V/m) @ t=0.58
-1.0419913867603856
% es.EY (V/m) @ t=0.58
0.3968275575650577
% es.EZ (V/m) @ t=0.58
-0.9298193075699466
% es.tEX (V/m) @ t=0.58
-1.0419913867603863
% es.tEY (V/m) @ t=0.58
0
% es.tEZ (V/m) @ t=0.58
-0.9298193075699466
% es.Ex (V/m) @ t=0.58
-1.0419913867603856
% es.Ey (V/m) @ t=0.58
0.3968275575650577
% es.Ez (V/m) @ t=0.58
-0.9298193075699466
% es.tEx (V/m) @ t=0.58
-1.0419913867603863
% es.tEy (V/m) @ t=0.58
0
% es.tEz (V/m) @ t=0.58
-0.9298193075699466
% V (V) @ t=0.58
0.014812121944081017
% es.normE (V/m) @ t=0.6
1.4761603853641656
% es.EX (V/m) @ t=0.6
-1.0567939546773897
% es.EY (V/m) @ t=0.6
0.4024649194275276
% es.EZ (V/m) @ t=0.6
-0.9430283439899014
% es.tEX (V/m) @ t=0.6
-1.0567939546773895
% es.tEY (V/m) @ t=0.6
0
% es.tEZ (V/m) @ t=0.6
-0.9430283439898997
% es.Ex (V/m) @ t=0.6
-1.0567939546773897
% es.Ey (V/m) @ t=0.6
0.4024649194275276
% es.Ez (V/m) @ t=0.6
-0.9430283439899014
% es.tEx (V/m) @ t=0.6
-1.0567939546773895
% es.tEy (V/m) @ t=0.6
0
% es.tEz (V/m) @ t=0.6
-0.9430283439898997
% V (V) @ t=0.6
0.01502254267130769
% es.normE (V/m) @ t=0.62
1.4970333500077007
% es.EX (V/m) @ t=0.62
-1.071737063144247
% es.EY (V/m) @ t=0.62
0.4081558018798588
% es.EZ (V/m) @ t=0.62
-0.9563627930487097
% es.tEX (V/m) @ t=0.62
-1.0717370631442487
% es.tEY (V/m) @ t=0.62
0
% es.tEZ (V/m) @ t=0.62
-0.956362793048708
% es.Ex (V/m) @ t=0.62
-1.071737063144247
% es.Ey (V/m) @ t=0.62
0.4081558018798588
% es.Ez (V/m) @ t=0.62
-0.9563627930487097
% es.tEx (V/m) @ t=0.62
-1.0717370631442487
% es.tEy (V/m) @ t=0.62
0
% es.tEz (V/m) @ t=0.62
-0.956362793048708
% V (V) @ t=0.62
0.015234961334730117
% es.normE (V/m) @ t=0.64
1.518102625985072
% es.EX (V/m) @ t=0.64
-1.0868207121609503
% es.EY (V/m) @ t=0.64
0.41390020492210366
% es.EZ (V/m) @ t=0.64
-0.9698226547463769
% es.tEX (V/m) @ t=0.64
-1.086820712160951
% es.tEY (V/m) @ t=0.64
0
% es.tEZ (V/m) @ t=0.64
-0.9698226547463857
% es.Ex (V/m) @ t=0.64
-1.0868207121609503
% es.Ey (V/m) @ t=0.64
0.41390020492210366
% es.Ez (V/m) @ t=0.64
-0.9698226547463769
% es.tEx (V/m) @ t=0.64
-1.086820712160951
% es.tEy (V/m) @ t=0.64
0
% es.tEz (V/m) @ t=0.64
-0.9698226547463857
% V (V) @ t=0.64
0.0154493779343483
% es.normE (V/m) @ t=0.66
1.5393682132963162
% es.EX (V/m) @ t=0.66
-1.1020449017275562
% es.EY (V/m) @ t=0.66
0.4196981285542809
% es.EZ (V/m) @ t=0.66
-0.9834079290828868
% es.tEX (V/m) @ t=0.66
-1.1020449017275515
% es.tEY (V/m) @ t=0.66
0
% es.tEZ (V/m) @ t=0.66
-0.9834079290828779
% es.Ex (V/m) @ t=0.66
-1.1020449017275562
% es.Ey (V/m) @ t=0.66
0.4196981285542809
% es.Ez (V/m) @ t=0.66
-0.9834079290828868
% es.tEx (V/m) @ t=0.66
-1.1020449017275515
% es.tEy (V/m) @ t=0.66
0
% es.tEz (V/m) @ t=0.66
-0.9834079290828779
% V (V) @ t=0.66
0.015665792470162237
% es.normE (V/m) @ t=0.68
1.5608301119413817
% es.EX (V/m) @ t=0.68
-1.1174096318439928
% es.EY (V/m) @ t=0.68
0.4255495727763807
% es.EZ (V/m) @ t=0.68
-0.9971186160582484
% es.tEX (V/m) @ t=0.68
-1.1174096318439952
% es.tEY (V/m) @ t=0.68
0
% es.tEZ (V/m) @ t=0.68
-0.9971186160582572
% es.Ex (V/m) @ t=0.68
-1.1174096318439928
% es.Ey (V/m) @ t=0.68
0.4255495727763807
% es.Ez (V/m) @ t=0.68
-0.9971186160582484
% es.tEx (V/m) @ t=0.68
-1.1174096318439952
% es.tEy (V/m) @ t=0.68
0
% es.tEz (V/m) @ t=0.68
-0.9971186160582572
% V (V) @ t=0.68
0.015884204942171926
% es.normE (V/m) @ t=0.7
1.5824883219202999
% es.EX (V/m) @ t=0.7
-1.1329149025103205
% es.EY (V/m) @ t=0.7
0.43145453758835073
% es.EZ (V/m) @ t=0.7
-1.0109547156724643
% es.tEX (V/m) @ t=0.7
-1.1329149025103211
% es.tEY (V/m) @ t=0.7
0
% es.tEZ (V/m) @ t=0.7
-1.0109547156724723
% es.Ex (V/m) @ t=0.7
-1.1329149025103205
% es.Ey (V/m) @ t=0.7
0.43145453758835073
% es.Ez (V/m) @ t=0.7
-1.0109547156724643
% es.tEx (V/m) @ t=0.7
-1.1329149025103211
% es.tEy (V/m) @ t=0.7
0
% es.tEz (V/m) @ t=0.7
-1.0109547156724723
% V (V) @ t=0.7
0.016104615350377372
% es.normE (V/m) @ t=0.72
1.604342843233088
% es.EX (V/m) @ t=0.72
-1.148560713726521
% es.EY (V/m) @ t=0.72
0.4374130229902553
% es.EZ (V/m) @ t=0.72
-1.024916227925555
% es.tEX (V/m) @ t=0.72
-1.148560713726519
% es.tEY (V/m) @ t=0.72
0
% es.tEZ (V/m) @ t=0.72
-1.0249162279255462
% es.Ex (V/m) @ t=0.72
-1.148560713726521
% es.Ey (V/m) @ t=0.72
0.4374130229902553
% es.Ez (V/m) @ t=0.72
-1.024916227925555
% es.tEx (V/m) @ t=0.72
-1.148560713726519
% es.tEy (V/m) @ t=0.72
0
% es.tEz (V/m) @ t=0.72
-1.0249162279255462
% V (V) @ t=0.72
0.01632702369477857
% es.normE (V/m) @ t=0.74
1.6263936758796844
% es.EX (V/m) @ t=0.74
-1.1643470654925647
% es.EY (V/m) @ t=0.74
0.4434250289820407
% es.EZ (V/m) @ t=0.74
-1.0390031528174752
% es.tEX (V/m) @ t=0.74
-1.1643470654925654
% es.tEY (V/m) @ t=0.74
0
% es.tEZ (V/m) @ t=0.74
-1.0390031528174788
% es.Ex (V/m) @ t=0.74
-1.1643470654925647
% es.Ey (V/m) @ t=0.74
0.4434250289820407
% es.Ez (V/m) @ t=0.74
-1.0390031528174752
% es.tEx (V/m) @ t=0.74
-1.1643470654925654
% es.tEy (V/m) @ t=0.74
0
% es.tEz (V/m) @ t=0.74
-1.0390031528174788
% V (V) @ t=0.74
0.016551429975375526
% es.normE (V/m) @ t=0.76
1.648640819860155
% es.EX (V/m) @ t=0.76
-1.1802739578084809
% es.EY (V/m) @ t=0.76
0.4494905555637776
% es.EZ (V/m) @ t=0.76
-1.0532154903482676
% es.tEX (V/m) @ t=0.76
-1.180273957808478
% es.tEY (V/m) @ t=0.76
0
% es.tEZ (V/m) @ t=0.76
-1.0532154903482578
% es.Ex (V/m) @ t=0.76
-1.1802739578084809
% es.Ey (V/m) @ t=0.76
0.4494905555637776
% es.Ez (V/m) @ t=0.76
-1.0532154903482676
% es.tEx (V/m) @ t=0.76
-1.180273957808478
% es.tEy (V/m) @ t=0.76
0
% es.tEz (V/m) @ t=0.76
-1.0532154903482578
% V (V) @ t=0.76
0.016777834192168238
% es.normE (V/m) @ t=0.78
1.6710842751744601
% es.EX (V/m) @ t=0.78
-1.196341390674274
% es.EY (V/m) @ t=0.78
0.45560960273536333
% es.EZ (V/m) @ t=0.78
-1.0675532405179142
% es.tEX (V/m) @ t=0.78
-1.196341390674279
% es.tEY (V/m) @ t=0.78
0
% es.tEZ (V/m) @ t=0.78
-1.0675532405179187
% es.Ex (V/m) @ t=0.78
-1.196341390674274
% es.Ey (V/m) @ t=0.78
0.45560960273536333
% es.Ez (V/m) @ t=0.78
-1.0675532405179142
% es.tEx (V/m) @ t=0.78
-1.196341390674279
% es.tEy (V/m) @ t=0.78
0
% es.tEz (V/m) @ t=0.78
-1.0675532405179187
% V (V) @ t=0.78
0.0170062363451567
% es.normE (V/m) @ t=0.8
1.6937240418225923
% es.EX (V/m) @ t=0.8
-1.2125493640899092
% es.EY (V/m) @ t=0.8
0.46178217049690184
% es.EZ (V/m) @ t=0.8
-1.0820164033263922
% es.tEX (V/m) @ t=0.8
-1.2125493640899108
% es.tEY (V/m) @ t=0.8
0
% es.tEZ (V/m) @ t=0.8
-1.0820164033263993
% es.Ex (V/m) @ t=0.8
-1.2125493640899092
% es.Ey (V/m) @ t=0.8
0.46178217049690184
% es.Ez (V/m) @ t=0.8
-1.0820164033263922
% es.tEx (V/m) @ t=0.8
-1.2125493640899108
% es.tEy (V/m) @ t=0.8
0
% es.tEz (V/m) @ t=0.8
-1.0820164033263993
% V (V) @ t=0.8
0.017236636434340924
% es.normE (V/m) @ t=0.82
1.7167061050014083
% es.EX (V/m) @ t=0.82
-1.2290023895619921
% es.EY (V/m) @ t=0.82
0.4680480590803606
% es.EZ (V/m) @ t=0.82
-1.0966982409665773
% es.tEX (V/m) @ t=0.82
-1.2290023895619933
% es.tEY (V/m) @ t=0.82
0
% es.tEZ (V/m) @ t=0.82
-1.0966982409665995
% es.Ex (V/m) @ t=0.82
-1.2290023895619921
% es.Ey (V/m) @ t=0.82
0.4680480590803606
% es.Ez (V/m) @ t=0.82
-1.0966982409665773
% es.tEx (V/m) @ t=0.82
-1.2290023895619933
% es.tEy (V/m) @ t=0.82
0
% es.tEz (V/m) @ t=0.82
-1.0966982409665995
% V (V) @ t=0.82
0.01747052019606808
% es.normE (V/m) @ t=0.84
1.7401637607673237
% es.EX (V/m) @ t=0.84
-1.2457958943801841
% es.EY (V/m) @ t=0.84
0.47444360925239826
% es.EZ (V/m) @ t=0.84
-1.1116839092131707
% es.tEX (V/m) @ t=0.84
-1.2457958943801857
% es.tEY (V/m) @ t=0.84
0
% es.tEZ (V/m) @ t=0.84
-1.111683909213177
% es.Ex (V/m) @ t=0.84
-1.2457958943801841
% es.Ey (V/m) @ t=0.84
0.47444360925239826
% es.Ez (V/m) @ t=0.84
-1.1116839092131707
% es.tEx (V/m) @ t=0.84
-1.2457958943801857
% es.tEy (V/m) @ t=0.84
0
% es.tEz (V/m) @ t=0.84
-1.111683909213177
% V (V) @ t=0.84
0.01770924422539174
% es.normE (V/m) @ t=0.86
1.763873346891097
% es.EX (V/m) @ t=0.86
-1.2627697576758148
% es.EY (V/m) @ t=0.86
0.48090784353853033
% es.EZ (V/m) @ t=0.86
-1.126830522140593
% es.tEX (V/m) @ t=0.86
-1.2627697576758052
% es.tEY (V/m) @ t=0.86
0
% es.tEZ (V/m) @ t=0.86
-1.1268305221405903
% es.Ex (V/m) @ t=0.86
-1.2627697576758148
% es.Ey (V/m) @ t=0.86
0.48090784353853033
% es.Ez (V/m) @ t=0.86
-1.126830522140593
% es.tEx (V/m) @ t=0.86
-1.2627697576758052
% es.tEy (V/m) @ t=0.86
0
% es.tEz (V/m) @ t=0.86
-1.1268305221405903
% V (V) @ t=0.86
0.017950532242862888
% es.normE (V/m) @ t=0.88
1.7878348633727494
% es.EX (V/m) @ t=0.88
-1.2799239794488793
% es.EY (V/m) @ t=0.88
0.4874407619386987
% es.EZ (V/m) @ t=0.88
-1.1421380797489133
% es.tEX (V/m) @ t=0.88
-1.2799239794488724
% es.tEY (V/m) @ t=0.88
0
% es.tEZ (V/m) @ t=0.88
-1.1421380797489213
% es.Ex (V/m) @ t=0.88
-1.2799239794488793
% es.Ey (V/m) @ t=0.88
0.4874407619386987
% es.Ez (V/m) @ t=0.88
-1.1421380797489133
% es.tEx (V/m) @ t=0.88
-1.2799239794488724
% es.tEy (V/m) @ t=0.88
0
% es.tEz (V/m) @ t=0.88
-1.1421380797489213
% V (V) @ t=0.88
0.01819438424848154
% es.normE (V/m) @ t=0.9
1.8120483102122624
% es.EX (V/m) @ t=0.9
-1.2972585596993873
% es.EY (V/m) @ t=0.9
0.494042364452985
% es.EZ (V/m) @ t=0.9
-1.157606582038052
% es.tEX (V/m) @ t=0.9
-1.2972585596993862
% es.tEY (V/m) @ t=0.9
0
% es.tEZ (V/m) @ t=0.9
-1.1576065820380688
% es.Ex (V/m) @ t=0.9
-1.2972585596993873
% es.Ey (V/m) @ t=0.9
0.494042364452985
% es.Ez (V/m) @ t=0.9
-1.157606582038052
% es.tEx (V/m) @ t=0.9
-1.2972585596993862
% es.tEy (V/m) @ t=0.9
0
% es.tEz (V/m) @ t=0.9
-1.1576065820380688
% V (V) @ t=0.9
0.018440800242247677
% es.normE (V/m) @ t=0.92
1.836513687409666
% es.EX (V/m) @ t=0.92
-1.3147734984273267
% es.EY (V/m) @ t=0.92
0.5007126510813427
% es.EZ (V/m) @ t=0.92
-1.173236029008084
% es.tEX (V/m) @ t=0.92
-1.3147734984273312
% es.tEY (V/m) @ t=0.92
0
% es.tEZ (V/m) @ t=0.92
-1.1732360290081
% es.Ex (V/m) @ t=0.92
-1.3147734984273267
% es.Ey (V/m) @ t=0.92
0.5007126510813427
% es.Ez (V/m) @ t=0.92
-1.173236029008084
% es.tEx (V/m) @ t=0.92
-1.3147734984273312
% es.tEy (V/m) @ t=0.92
0
% es.tEz (V/m) @ t=0.92
-1.1732360290081
% V (V) @ t=0.92
0.018689780224161318
% es.normE (V/m) @ t=0.94
1.8612309949649277
% es.EX (V/m) @ t=0.94
-1.3324687956326993
% es.EY (V/m) @ t=0.94
0.5074516218237664
% es.EZ (V/m) @ t=0.94
-1.189026420658963
% es.tEX (V/m) @ t=0.94
-1.3324687956326962
% es.tEY (V/m) @ t=0.94
0
% es.tEZ (V/m) @ t=0.94
-1.189026420658962
% es.Ex (V/m) @ t=0.94
-1.3324687956326993
% es.Ey (V/m) @ t=0.94
0.5074516218237664
% es.Ez (V/m) @ t=0.94
-1.189026420658963
% es.tEx (V/m) @ t=0.94
-1.3324687956326962
% es.tEy (V/m) @ t=0.94
0
% es.tEz (V/m) @ t=0.94
-1.189026420658962
% V (V) @ t=0.94
0.01894132419422245
% es.normE (V/m) @ t=0.96
1.8862002328780854
% es.EX (V/m) @ t=0.96
-1.3503444513155114
% es.EY (V/m) @ t=0.96
0.5142592766803133
% es.EZ (V/m) @ t=0.96
-1.2049777569907194
% es.tEX (V/m) @ t=0.96
-1.3503444513155118
% es.tEY (V/m) @ t=0.96
0
% es.tEZ (V/m) @ t=0.96
-1.2049777569907167
% es.Ex (V/m) @ t=0.96
-1.3503444513155114
% es.Ey (V/m) @ t=0.96
0.5142592766803133
% es.Ez (V/m) @ t=0.96
-1.2049777569907194
% es.tEx (V/m) @ t=0.96
-1.3503444513155118
% es.tEy (V/m) @ t=0.96
0
% es.tEz (V/m) @ t=0.96
-1.2049777569907167
% V (V) @ t=0.96
0.019195432152431077
% es.normE (V/m) @ t=0.98
1.9114214011491213
% es.EX (V/m) @ t=0.98
-1.3684004654757804
% es.EY (V/m) @ t=0.98
0.5211356156509104
% es.EZ (V/m) @ t=0.98
-1.2210900380033323
% es.tEX (V/m) @ t=0.98
-1.3684004654757702
% es.tEY (V/m) @ t=0.98
0
% es.tEZ (V/m) @ t=0.98
-1.2210900380033287
% es.Ex (V/m) @ t=0.98
-1.3684004654757804
% es.Ey (V/m) @ t=0.98
0.5211356156509104
% es.Ez (V/m) @ t=0.98
-1.2210900380033323
% es.tEx (V/m) @ t=0.98
-1.3684004654757702
% es.tEy (V/m) @ t=0.98
0
% es.tEz (V/m) @ t=0.98
-1.2210900380033287
% V (V) @ t=0.98
0.0194521040987872
% es.normE (V/m) @ t=1
1.936894499778004
% es.EX (V/m) @ t=1
-1.3866368381134722
% es.EY (V/m) @ t=1
0.5280806387355796
% es.EZ (V/m) @ t=1
-1.2373632636967828
% es.tEX (V/m) @ t=1
-1.3866368381134633
% es.tEY (V/m) @ t=1
0
% es.tEZ (V/m) @ t=1
-1.2373632636968033
% es.Ex (V/m) @ t=1
-1.3866368381134722
% es.Ey (V/m) @ t=1
0.5280806387355796
% es.Ez (V/m) @ t=1
-1.2373632636967828
% es.tEx (V/m) @ t=1
-1.3866368381134633
% es.tEy (V/m) @ t=1
0
% es.tEz (V/m) @ t=1
-1.2373632636968033
% V (V) @ t=1
0.019711340033290822
% es.normE (V/m) @ t=1.02
1.9626195287647836
% es.EX (V/m) @ t=1.02
-1.405053569228595
% es.EY (V/m) @ t=1.02
0.5350943459343669
% es.EZ (V/m) @ t=1.02
-1.2537974340711182
% es.tEX (V/m) @ t=1.02
-1.4050535692285946
% es.tEY (V/m) @ t=1.02
0
% es.tEZ (V/m) @ t=1.02
-1.2537974340711262
% es.Ex (V/m) @ t=1.02
-1.405053569228595
% es.Ey (V/m) @ t=1.02
0.5350943459343669
% es.Ez (V/m) @ t=1.02
-1.2537974340711182
% es.tEx (V/m) @ t=1.02
-1.4050535692285946
% es.tEy (V/m) @ t=1.02
0
% es.tEz (V/m) @ t=1.02
-1.2537974340711262
% V (V) @ t=1.02
0.019973139955941938
% es.normE (V/m) @ t=1.04
1.988596488109431