% Model:              1 neuron.mph
% Version:            COMSOL 6.1.0.252
% Date:               Mar 18 2023, 14:01
% Dimension:          0
% Nodes:              14017
% Expressions:        14017
% Description:        Electric field norm, Electric field, X component, Electric field, Y component, Electric field, Z component, Tangential electric field, X component, Tangential electric field, Y component, Tangential electric field, Z component, Electric field, x component, Electric field, y component, Electric field, z component, Tangential electric field, x component, Tangential electric field, y component, Tangential electric field, z component, Electric potential
% Length unit:        mm
% x
1.33
% y
12.2
% z
2
% es.normE (V/m) @ t=0
4.127419126964954
% es.EX (V/m) @ t=0
1.6449342381176928
% es.EY (V/m) @ t=0
0.43489204218558974
% es.EZ (V/m) @ t=0
-3.757067599748412
% es.tEX (V/m) @ t=0
1.6449342381176937
% es.tEY (V/m) @ t=0
0
% es.tEZ (V/m) @ t=0
-3.757067599748421
% es.Ex (V/m) @ t=0
1.6449342381176928
% es.Ey (V/m) @ t=0
0.43489204218558974
% es.Ez (V/m) @ t=0
-3.757067599748412
% es.tEx (V/m) @ t=0
1.6449342381176937
% es.tEy (V/m) @ t=0
0
% es.tEz (V/m) @ t=0
-3.757067599748421
% V (V) @ t=0
0.02063737351384844
% es.normE (V/m) @ t=0.02
3.868093552145784
% es.EX (V/m) @ t=0.02
1.5415823078628255
% es.EY (V/m) @ t=0.02
0.40756707557594396
% es.EZ (V/m) @ t=0.02
-3.5210115848010286
% es.tEX (V/m) @ t=0.02
1.541582307862826
% es.tEY (V/m) @ t=0.02
0
% es.tEZ (V/m) @ t=0.02
-3.521011584801034
% es.Ex (V/m) @ t=0.02
1.5415823078628255
% es.Ey (V/m) @ t=0.02
0.40756707557594396
% es.Ez (V/m) @ t=0.02
-3.5210115848010286
% es.tEx (V/m) @ t=0.02
1.541582307862826
% es.tEy (V/m) @ t=0.02
0
% es.tEz (V/m) @ t=0.02
-3.521011584801034
% V (V) @ t=0.02
0.01934079103907875
% es.normE (V/m) @ t=0.04
3.924413762920036
% es.EX (V/m) @ t=0.04
1.5640282617046886
% es.EY (V/m) @ t=0.04
0.41350153866125794
% es.EZ (V/m) @ t=0.04
-3.57227810788787
% es.tEX (V/m) @ t=0.04
1.5640282617046894
% es.tEY (V/m) @ t=0.04
0
% es.tEZ (V/m) @ t=0.04
-3.5722781078878825
% es.Ex (V/m) @ t=0.04
1.5640282617046886
% es.Ey (V/m) @ t=0.04
0.41350153866125794
% es.Ez (V/m) @ t=0.04
-3.57227810788787
% es.tEx (V/m) @ t=0.04
1.5640282617046894
% es.tEy (V/m) @ t=0.04
0
% es.tEz (V/m) @ t=0.04
-3.5722781078878825
% V (V) @ t=0.04
0.01962237982225096
% es.normE (V/m) @ t=0.06
3.9815518613162046
% es.EX (V/m) @ t=0.06
1.5868000967677784
% es.EY (V/m) @ t=0.06
0.4195221048205493
% es.EZ (V/m) @ t=0.06
-3.6242891691359045
% es.tEX (V/m) @ t=0.06
1.586800096767786
% es.tEY (V/m) @ t=0.06
0
% es.tEZ (V/m) @ t=0.06
-3.6242891691359134
% es.Ex (V/m) @ t=0.06
1.5868000967677784
% es.Ey (V/m) @ t=0.06
0.4195221048205493
% es.Ez (V/m) @ t=0.06
-3.6242891691359045
% es.tEx (V/m) @ t=0.06
1.586800096767786
% es.tEy (V/m) @ t=0.06
0
% es.tEz (V/m) @ t=0.06
-3.6242891691359134
% V (V) @ t=0.06
0.019908064434241368
% es.normE (V/m) @ t=0.08
4.039864432582672
% es.EX (V/m) @ t=0.08
1.610039641287874
% es.EY (V/m) @ t=0.08
0.425666061615237
% es.EZ (V/m) @ t=0.08
-3.6773695012316434
% es.tEX (V/m) @ t=0.08
1.6100396412878748
% es.tEY (V/m) @ t=0.08
0
% es.tEZ (V/m) @ t=0.08
-3.677369501231656
% es.Ex (V/m) @ t=0.08
1.610039641287874
% es.Ey (V/m) @ t=0.08
0.425666061615237
% es.Ez (V/m) @ t=0.08
-3.6773695012316434
% es.tEx (V/m) @ t=0.08
1.6100396412878748
% es.tEy (V/m) @ t=0.08
0
% es.tEz (V/m) @ t=0.08
-3.677369501231656
% V (V) @ t=0.08
0.020199650979166806
% es.normE (V/m) @ t=0.1
4.098177003849228
% es.EX (V/m) @ t=0.1
1.6332791858080031
% es.EY (V/m) @ t=0.1
0.4318100184099283
% es.EZ (V/m) @ t=0.1
-3.7304498333274125
% es.tEX (V/m) @ t=0.1
1.6332791858080036
% es.tEY (V/m) @ t=0.1
0
% es.tEZ (V/m) @ t=0.1
-3.7304498333274196
% es.Ex (V/m) @ t=0.1
1.6332791858080031
% es.Ey (V/m) @ t=0.1
0.4318100184099283
% es.Ez (V/m) @ t=0.1
-3.7304498333274125
% es.tEx (V/m) @ t=0.1
1.6332791858080036
% es.tEy (V/m) @ t=0.1
0
% es.tEz (V/m) @ t=0.1
-3.7304498333274196
% V (V) @ t=0.1
0.020491237524092248
% es.normE (V/m) @ t=0.12
4.158657081152223
% es.EX (V/m) @ t=0.12
1.657386029568508
% es.EY (V/m) @ t=0.12
0.4381860319533466
% es.EZ (V/m) @ t=0.12
-3.785501416318061
% es.tEX (V/m) @ t=0.12
1.6573860295685012
% es.tEY (V/m) @ t=0.12
0
% es.tEZ (V/m) @ t=0.12
-3.7855014163180627
% es.Ex (V/m) @ t=0.12
1.657386029568508
% es.Ey (V/m) @ t=0.12
0.4381860319533466
% es.Ez (V/m) @ t=0.12
-3.785501416318061
% es.tEx (V/m) @ t=0.12
1.6573860295685012
% es.tEy (V/m) @ t=0.12
0
% es.tEz (V/m) @ t=0.12
-3.7855014163180627
% V (V) @ t=0.12
0.02079337800356973
% es.normE (V/m) @ t=0.14
4.220443641630219
% es.EX (V/m) @ t=0.14
1.6820156455050372
% es.EY (V/m) @ t=0.14
0.4447019197246078
% es.EZ (V/m) @ t=0.14
-3.8417411879657664
% es.tEX (V/m) @ t=0.14
1.6820156455050377
% es.tEY (V/m) @ t=0.14
0
% es.tEZ (V/m) @ t=0.14
-3.841741187965777
% es.Ex (V/m) @ t=0.14
1.6820156455050372
% es.Ey (V/m) @ t=0.14
0.4447019197246078
% es.Ez (V/m) @ t=0.14
-3.8417411879657664
% es.tEx (V/m) @ t=0.14
1.6820156455050377
% es.tEy (V/m) @ t=0.14
0
% es.tEz (V/m) @ t=0.14
-3.841741187965777
% V (V) @ t=0.14
0.02110187995907988
% es.normE (V/m) @ t=0.16
4.28223020213298
% es.EX (V/m) @ t=0.16
1.7066452614415168
% es.EY (V/m) @ t=0.16
0.4512178074958477
% es.EZ (V/m) @ t=0.16
-3.8979809596134682
% es.tEX (V/m) @ t=0.16
1.7066452614415173
% es.tEY (V/m) @ t=0.16
0
% es.tEZ (V/m) @ t=0.16
-3.897980959613488
% es.Ex (V/m) @ t=0.16
1.7066452614415168
% es.Ey (V/m) @ t=0.16
0.4512178074958477
% es.Ez (V/m) @ t=0.16
-3.8979809596134682
% es.tEx (V/m) @ t=0.16
1.7066452614415173
% es.tEy (V/m) @ t=0.16
0
% es.tEz (V/m) @ t=0.16
-3.897980959613488
% V (V) @ t=0.16
0.021410381914590024
% es.normE (V/m) @ t=0.18
4.344016762659496
% es.EX (V/m) @ t=0.18
1.7312748773780324
% es.EY (V/m) @ t=0.18
0.45773369526705565
% es.EZ (V/m) @ t=0.18
-3.9542207312611897
% es.tEX (V/m) @ t=0.18
1.7312748773780262
% es.tEY (V/m) @ t=0.18
0
% es.tEZ (V/m) @ t=0.18
-3.954220731261188
% es.Ex (V/m) @ t=0.18
1.7312748773780324
% es.Ey (V/m) @ t=0.18
0.45773369526705565
% es.Ez (V/m) @ t=0.18
-3.9542207312611897
% es.tEx (V/m) @ t=0.18
1.7312748773780262
% es.tEy (V/m) @ t=0.18
0
% es.tEz (V/m) @ t=0.18
-3.954220731261188
% V (V) @ t=0.18
0.021718883870100174
% es.normE (V/m) @ t=0.2
4.405803323208748
% es.EX (V/m) @ t=0.2
1.7559044933145618
% es.EY (V/m) @ t=0.2
0.46424958303828845
% es.EZ (V/m) @ t=0.2
-4.010460502908902
% es.tEX (V/m) @ t=0.2
1.7559044933145627
% es.tEY (V/m) @ t=0.2
0
% es.tEZ (V/m) @ t=0.2
-4.010460502908909
% es.Ex (V/m) @ t=0.2
1.7559044933145618
% es.Ey (V/m) @ t=0.2
0.46424958303828845
% es.Ez (V/m) @ t=0.2
-4.010460502908902
% es.tEx (V/m) @ t=0.2
1.7559044933145627
% es.tEy (V/m) @ t=0.2
0
% es.tEz (V/m) @ t=0.2
-4.010460502908909
% V (V) @ t=0.2
0.02202738582561032
% es.normE (V/m) @ t=0.22
4.468484616208874
% es.EX (V/m) @ t=0.22
1.7808880359829482
% es.EY (V/m) @ t=0.22
0.4708569186944196
% es.EZ (V/m) @ t=0.22
-4.067516078355311
% es.tEX (V/m) @ t=0.22
1.780888035982942
% es.tEY (V/m) @ t=0.22
0
% es.tEZ (V/m) @ t=0.22
-4.067516078355332
% es.Ex (V/m) @ t=0.22
1.7808880359829482
% es.Ey (V/m) @ t=0.22
0.4708569186944196
% es.Ez (V/m) @ t=0.22
-4.067516078355311
% es.tEx (V/m) @ t=0.22
1.780888035982942
% es.tEy (V/m) @ t=0.22
0
% es.tEz (V/m) @ t=0.22
-4.067516078355332
% V (V) @ t=0.22
0.02234057924954286
% es.normE (V/m) @ t=0.24
4.5338304790913995
% es.EX (V/m) @ t=0.24
1.8069255948810095
% es.EY (V/m) @ t=0.24
0.4777365919451526
% es.EZ (V/m) @ t=0.24
-4.127001169197424
% es.tEX (V/m) @ t=0.24
1.8069255948810028
% es.tEY (V/m) @ t=0.24
0
% es.tEZ (V/m) @ t=0.24
-4.127001169197445
% es.Ex (V/m) @ t=0.24
1.8069255948810095
% es.Ey (V/m) @ t=0.24
0.4777365919451526
% es.Ez (V/m) @ t=0.24
-4.127001169197424
% es.tEx (V/m) @ t=0.24
1.8069255948810028
% es.tEy (V/m) @ t=0.24
0
% es.tEz (V/m) @ t=0.24
-4.127001169197445
% V (V) @ t=0.24
0.02266774416365365
% es.normE (V/m) @ t=0.26
4.599176342000413
% es.EX (V/m) @ t=0.26
1.8329631537791076
% es.EY (V/m) @ t=0.26
0.4846162651959105
% es.EZ (V/m) @ t=0.26
-4.186486260039564
% es.tEX (V/m) @ t=0.26
1.832963153779108
% es.tEY (V/m) @ t=0.26
0
% es.tEZ (V/m) @ t=0.26
-4.186486260039569
% es.Ex (V/m) @ t=0.26
1.8329631537791076
% es.Ey (V/m) @ t=0.26
0.4846162651959105
% es.Ez (V/m) @ t=0.26
-4.186486260039564
% es.tEx (V/m) @ t=0.26
1.832963153779108
% es.tEy (V/m) @ t=0.26
0
% es.tEz (V/m) @ t=0.26
-4.186486260039569
% V (V) @ t=0.26
0.02299490907776444
% es.normE (V/m) @ t=0.28
4.664522204934732
% es.EX (V/m) @ t=0.28
1.859000712677184
% es.EY (V/m) @ t=0.28
0.4914959384466453
% es.EZ (V/m) @ t=0.28
-4.245971350881689
% es.tEX (V/m) @ t=0.28
1.8590007126771848
% es.tEY (V/m) @ t=0.28
0
% es.tEZ (V/m) @ t=0.28
-4.245971350881703
% es.Ex (V/m) @ t=0.28
1.859000712677184
% es.Ey (V/m) @ t=0.28
0.4914959384466453
% es.Ez (V/m) @ t=0.28
-4.245971350881689
% es.tEx (V/m) @ t=0.28
1.8590007126771848
% es.tEy (V/m) @ t=0.28
0
% es.tEz (V/m) @ t=0.28
-4.245971350881703
% V (V) @ t=0.28
0.02332207399187523
% es.normE (V/m) @ t=0.3
4.7298680678933245
% es.EX (V/m) @ t=0.3
1.8850382715752598
% es.EY (V/m) @ t=0.3
0.49837561169740674
% es.EZ (V/m) @ t=0.3
-4.305456441723798
% es.tEX (V/m) @ t=0.3
1.8850382715752607
% es.tEY (V/m) @ t=0.3
0
% es.tEZ (V/m) @ t=0.3
-4.305456441723809
% es.Ex (V/m) @ t=0.3
1.8850382715752598
% es.Ey (V/m) @ t=0.3
0.49837561169740674
% es.Ez (V/m) @ t=0.3
-4.305456441723798
% es.tEx (V/m) @ t=0.3
1.8850382715752607
% es.tEy (V/m) @ t=0.3
0
% es.tEz (V/m) @ t=0.3
-4.305456441723809
% V (V) @ t=0.3
0.023649238905986022
% es.normE (V/m) @ t=0.32
4.795213930875221
% es.EX (V/m) @ t=0.32
1.911075830473322
% es.EY (V/m) @ t=0.32
0.5052552849481824
% es.EZ (V/m) @ t=0.32
-4.364941532565927
% es.tEX (V/m) @ t=0.32
1.9110758304733224
% es.tEY (V/m) @ t=0.32
0
% es.tEZ (V/m) @ t=0.32
-4.36494153256594
% es.Ex (V/m) @ t=0.32
1.911075830473322
% es.Ey (V/m) @ t=0.32
0.5052552849481824
% es.Ez (V/m) @ t=0.32
-4.364941532565927
% es.tEx (V/m) @ t=0.32
1.9110758304733224
% es.tEy (V/m) @ t=0.32
0
% es.tEz (V/m) @ t=0.32
-4.36494153256594
% V (V) @ t=0.32
0.023976403820096814
% es.normE (V/m) @ t=0.34
4.866727309474079
% es.EX (V/m) @ t=0.34
1.9395759974231472
% es.EY (V/m) @ t=0.34
0.5127897177425158
% es.EZ (V/m) @ t=0.34
-4.4300383765660065
% es.tEX (V/m) @ t=0.34
1.9395759974231481
% es.tEY (V/m) @ t=0.34
0
% es.tEZ (V/m) @ t=0.34
-4.430038376566017
% es.Ex (V/m) @ t=0.34
1.9395759974231472
% es.Ey (V/m) @ t=0.34
0.5127897177425158
% es.Ez (V/m) @ t=0.34
-4.4300383765660065
% es.tEx (V/m) @ t=0.34
1.9395759974231481
% es.tEy (V/m) @ t=0.34
0
% es.tEz (V/m) @ t=0.34
-4.430038376566017
% V (V) @ t=0.34
0.024334028523241513
% es.normE (V/m) @ t=0.36
4.939091019787996
% es.EX (V/m) @ t=0.36
1.968415690668885
% es.EY (V/m) @ t=0.36
0.5204144239696777
% es.EZ (V/m) @ t=0.36
-4.495908927840372
% es.tEX (V/m) @ t=0.36
1.9684156906688717
% es.tEY (V/m) @ t=0.36
0
% es.tEZ (V/m) @ t=0.36
-4.495908927840375
% es.Ex (V/m) @ t=0.36
1.968415690668885
% es.Ey (V/m) @ t=0.36
0.5204144239696777
% es.Ez (V/m) @ t=0.36
-4.495908927840372
% es.tEx (V/m) @ t=0.36
1.9684156906688717
% es.tEy (V/m) @ t=0.36
0
% es.tEz (V/m) @ t=0.36
-4.495908927840375
% V (V) @ t=0.36
0.02469585279819303
% es.normE (V/m) @ t=0.38
5.011454730101912
% es.EX (V/m) @ t=0.38
1.9972553839145961
% es.EY (V/m) @ t=0.38
0.5280391301968468
% es.EZ (V/m) @ t=0.38
-4.5617794791147475
% es.tEX (V/m) @ t=0.38
1.997255383914597
% es.tEY (V/m) @ t=0.38
0
% es.tEZ (V/m) @ t=0.38
-4.561779479114762
% es.Ex (V/m) @ t=0.38
1.9972553839145961
% es.Ey (V/m) @ t=0.38
0.5280391301968468
% es.Ez (V/m) @ t=0.38
-4.5617794791147475
% es.tEx (V/m) @ t=0.38
1.997255383914597
% es.tEy (V/m) @ t=0.38
0
% es.tEz (V/m) @ t=0.38
-4.561779479114762
% V (V) @ t=0.38
0.025057677073144543
% es.normE (V/m) @ t=0.4
5.083818440415868
% es.EX (V/m) @ t=0.4
2.026095077160363
% es.EY (V/m) @ t=0.4
0.5356638364240567
% es.EZ (V/m) @ t=0.4
-4.6276500303891375
% es.tEX (V/m) @ t=0.4
2.026095077160349
% es.tEY (V/m) @ t=0.4
0
% es.tEZ (V/m) @ t=0.4
-4.627650030389141
% es.Ex (V/m) @ t=0.4
2.026095077160363
% es.Ey (V/m) @ t=0.4
0.5356638364240567
% es.Ez (V/m) @ t=0.4
-4.6276500303891375
% es.tEx (V/m) @ t=0.4
2.026095077160349
% es.tEy (V/m) @ t=0.4
0
% es.tEz (V/m) @ t=0.4
-4.627650030389141
% V (V) @ t=0.4
0.025419501348096056
% es.normE (V/m) @ t=0.42
5.156182150729771
% es.EX (V/m) @ t=0.42
2.0549347704060716
% es.EY (V/m) @ t=0.42
0.5432885426512293
% es.EZ (V/m) @ t=0.42
-4.693520581663499
% es.tEX (V/m) @ t=0.42
2.0549347704060725
% es.tEY (V/m) @ t=0.42
0
% es.tEZ (V/m) @ t=0.42
-4.693520581663513
% es.Ex (V/m) @ t=0.42
2.0549347704060716
% es.Ey (V/m) @ t=0.42
0.5432885426512293
% es.Ez (V/m) @ t=0.42
-4.693520581663499
% es.tEx (V/m) @ t=0.42
2.0549347704060725
% es.tEy (V/m) @ t=0.42
0
% es.tEz (V/m) @ t=0.42
-4.693520581663513
% V (V) @ t=0.42
0.025781325623047573
% es.normE (V/m) @ t=0.44
5.228545861043706
% es.EX (V/m) @ t=0.44
2.083774463651811
% es.EY (V/m) @ t=0.44
0.5509132488784125
% es.EZ (V/m) @ t=0.44
-4.759391132937882
% es.tEX (V/m) @ t=0.44
2.083774463651798
% es.tEY (V/m) @ t=0.44
0
% es.tEZ (V/m) @ t=0.44
-4.759391132937871
% es.Ex (V/m) @ t=0.44
2.083774463651811
% es.Ey (V/m) @ t=0.44
0.5509132488784125
% es.Ez (V/m) @ t=0.44
-4.759391132937882
% es.tEx (V/m) @ t=0.44
2.083774463651798
% es.tEy (V/m) @ t=0.44
0
% es.tEz (V/m) @ t=0.44
-4.759391132937871
% V (V) @ t=0.44
0.026143149897999086
% es.normE (V/m) @ t=0.46
5.300909571357626
% es.EX (V/m) @ t=0.46
2.1126141568975507
% es.EY (V/m) @ t=0.46
0.558537955105594
% es.EZ (V/m) @ t=0.46
-4.825261684212247
% es.tEX (V/m) @ t=0.46
2.1126141568975516
% es.tEY (V/m) @ t=0.46
0
% es.tEZ (V/m) @ t=0.46
-4.825261684212272
% es.Ex (V/m) @ t=0.46
2.1126141568975507
% es.Ey (V/m) @ t=0.46
0.558537955105594
% es.Ez (V/m) @ t=0.46
-4.825261684212247
% es.tEx (V/m) @ t=0.46
2.1126141568975516
% es.tEy (V/m) @ t=0.46
0
% es.tEz (V/m) @ t=0.46
-4.825261684212272
% V (V) @ t=0.46
0.0265049741729506
% es.normE (V/m) @ t=0.48
5.373273281671532
% es.EX (V/m) @ t=0.48
2.141453850143262
% es.EY (V/m) @ t=0.48
0.5661626613327577
% es.EZ (V/m) @ t=0.48
-4.891132235486612
% es.tEX (V/m) @ t=0.48
2.1414538501432485
% es.tEY (V/m) @ t=0.48
0
% es.tEZ (V/m) @ t=0.48
-4.891132235486637
% es.Ex (V/m) @ t=0.48
2.141453850143262
% es.Ey (V/m) @ t=0.48
0.5661626613327577
% es.Ez (V/m) @ t=0.48
-4.891132235486612
% es.tEx (V/m) @ t=0.48
2.1414538501432485
% es.tEy (V/m) @ t=0.48
0
% es.tEz (V/m) @ t=0.48
-4.891132235486637
% V (V) @ t=0.48
0.02686679844790211
% es.normE (V/m) @ t=0.5
5.445636991985452
% es.EX (V/m) @ t=0.5
2.170293543388971
% es.EY (V/m) @ t=0.5
0.5737873675599428
% es.EZ (V/m) @ t=0.5
-4.957002786760992
% es.tEX (V/m) @ t=0.5
2.170293543388972
% es.tEY (V/m) @ t=0.5
0
% es.tEZ (V/m) @ t=0.5
-4.957002786760988
% es.Ex (V/m) @ t=0.5
2.170293543388971
% es.Ey (V/m) @ t=0.5
0.5737873675599428
% es.Ez (V/m) @ t=0.5
-4.957002786760992
% es.tEx (V/m) @ t=0.5
2.170293543388972
% es.tEy (V/m) @ t=0.5
0
% es.tEz (V/m) @ t=0.5
-4.957002786760988
% V (V) @ t=0.5
0.027228622722853625
% es.normE (V/m) @ t=0.52
5.518000702299389
% es.EX (V/m) @ t=0.52
2.199133236634725
% es.EY (V/m) @ t=0.52
0.581412073787126
% es.EZ (V/m) @ t=0.52
-5.022873338035371
% es.tEX (V/m) @ t=0.52
2.199133236634726
% es.tEY (V/m) @ t=0.52
0
% es.tEZ (V/m) @ t=0.52
-5.022873338035382
% es.Ex (V/m) @ t=0.52
2.199133236634725
% es.Ey (V/m) @ t=0.52
0.581412073787126
% es.Ez (V/m) @ t=0.52
-5.022873338035371
% es.tEx (V/m) @ t=0.52
2.199133236634726
% es.tEy (V/m) @ t=0.52
0
% es.tEz (V/m) @ t=0.52
-5.022873338035382
% V (V) @ t=0.52
0.027590446997805138
% es.normE (V/m) @ t=0.54
5.591124473267394
% es.EX (V/m) @ t=0.54
2.2282758309909925
% es.EY (V/m) @ t=0.54
0.5891168867536951
% es.EZ (V/m) @ t=0.54
-5.08943575350774
% es.tEX (V/m) @ t=0.54
2.228275830990979
% es.tEY (V/m) @ t=0.54
0
% es.tEZ (V/m) @ t=0.54
-5.08943575350775
% es.Ex (V/m) @ t=0.54
2.2282758309909925
% es.Ey (V/m) @ t=0.54
0.5891168867536951
% es.Ez (V/m) @ t=0.54
-5.08943575350774
% es.tEx (V/m) @ t=0.54
2.228275830990979
% es.tEy (V/m) @ t=0.54
0
% es.tEz (V/m) @ t=0.54
-5.08943575350775
% V (V) @ t=0.54
0.027956072305796387
% es.normE (V/m) @ t=0.56
5.66917123235377
% es.EX (V/m) @ t=0.56
2.259380345833933
% es.EY (V/m) @ t=0.56
0.5973405590030101
% es.EZ (V/m) @ t=0.56
-5.160479441899508
% es.tEX (V/m) @ t=0.56
2.25938034583392
% es.tEY (V/m) @ t=0.56
0
% es.tEZ (V/m) @ t=0.56
-5.160479441899518
% es.Ex (V/m) @ t=0.56
2.259380345833933
% es.Ey (V/m) @ t=0.56
0.5973405590030101
% es.Ez (V/m) @ t=0.56
-5.160479441899508
% es.tEx (V/m) @ t=0.56
2.25938034583392
% es.tEy (V/m) @ t=0.56
0
% es.tEz (V/m) @ t=0.56
-5.160479441899518
% V (V) @ t=0.56
0.028346317281167124
% es.normE (V/m) @ t=0.58
5.747217991440147
% es.EX (V/m) @ t=0.58
2.290484860676856
% es.EY (V/m) @ t=0.58
0.6055642312523641
% es.EZ (V/m) @ t=0.58
-5.231523130291269
% es.tEX (V/m) @ t=0.58
2.290484860676857
% es.tEY (V/m) @ t=0.58
0
% es.tEZ (V/m) @ t=0.58
-5.2315231302912935
% es.Ex (V/m) @ t=0.58
2.290484860676856
% es.Ey (V/m) @ t=0.58
0.6055642312523641
% es.Ez (V/m) @ t=0.58
-5.231523130291269
% es.tEx (V/m) @ t=0.58
2.290484860676857
% es.tEy (V/m) @ t=0.58
0
% es.tEz (V/m) @ t=0.58
-5.2315231302912935
% V (V) @ t=0.58
0.02873656225653786
% es.normE (V/m) @ t=0.6
5.82526475052652
% es.EX (V/m) @ t=0.6
2.3215893755197667
% es.EY (V/m) @ t=0.6
0.6137879035017217
% es.EZ (V/m) @ t=0.6
-5.302566818683022
% es.tEX (V/m) @ t=0.6
2.3215893755197676
% es.tEY (V/m) @ t=0.6
0
% es.tEZ (V/m) @ t=0.6
-5.30256681868304
% es.Ex (V/m) @ t=0.6
2.3215893755197667
% es.Ey (V/m) @ t=0.6
0.6137879035017217
% es.Ez (V/m) @ t=0.6
-5.302566818683022
% es.tEx (V/m) @ t=0.6
2.3215893755197676
% es.tEy (V/m) @ t=0.6
0
% es.tEz (V/m) @ t=0.6
-5.30256681868304
% V (V) @ t=0.6
0.0291268072319086
% es.normE (V/m) @ t=0.62
5.903311509612925
% es.EX (V/m) @ t=0.62
2.352693890362734
% es.EY (V/m) @ t=0.62
0.6220115757510367
% es.EZ (V/m) @ t=0.62
-5.373610507074783
% es.tEX (V/m) @ t=0.62
2.352693890362735
% es.tEY (V/m) @ t=0.62
0
% es.tEZ (V/m) @ t=0.62
-5.373610507074808
% es.Ex (V/m) @ t=0.62
2.352693890362734
% es.Ey (V/m) @ t=0.62
0.6220115757510367
% es.Ez (V/m) @ t=0.62
-5.373610507074783
% es.tEx (V/m) @ t=0.62
2.352693890362735
% es.tEy (V/m) @ t=0.62
0
% es.tEz (V/m) @ t=0.62
-5.373610507074808
% V (V) @ t=0.62
0.029517052207279338
% es.normE (V/m) @ t=0.64
5.981358268699351
% es.EX (V/m) @ t=0.64
2.3837984052056305
% es.EY (V/m) @ t=0.64
0.6302352480004174
% es.EZ (V/m) @ t=0.64
-5.44465419546658
% es.tEX (V/m) @ t=0.64
2.383798405205617
% es.tEY (V/m) @ t=0.64
0
% es.tEZ (V/m) @ t=0.64
-5.444654195466576
% es.Ex (V/m) @ t=0.64
2.3837984052056305
% es.Ey (V/m) @ t=0.64
0.6302352480004174
% es.Ez (V/m) @ t=0.64
-5.44465419546658
% es.tEx (V/m) @ t=0.64
2.383798405205617
% es.tEy (V/m) @ t=0.64
0
% es.tEz (V/m) @ t=0.64
-5.444654195466576
% V (V) @ t=0.64
0.02990729718265009
% es.normE (V/m) @ t=0.66
6.059405027785763
% es.EX (V/m) @ t=0.66
2.414902920048543
% es.EY (V/m) @ t=0.66
0.6384589202497537
% es.EZ (V/m) @ t=0.66
-5.515697883858355
% es.tEX (V/m) @ t=0.66
2.414902920048558
% es.tEY (V/m) @ t=0.66
0
% es.tEZ (V/m) @ t=0.66
-5.5156978838583655
% es.Ex (V/m) @ t=0.66
2.414902920048543
% es.Ey (V/m) @ t=0.66
0.6384589202497537
% es.Ez (V/m) @ t=0.66
-5.515697883858355
% es.tEx (V/m) @ t=0.66
2.414902920048558
% es.tEy (V/m) @ t=0.66
0
% es.tEz (V/m) @ t=0.66
-5.5156978838583655
% V (V) @ t=0.66
0.030297542158020826
% es.normE (V/m) @ t=0.68
6.137451786872202
% es.EX (V/m) @ t=0.68
2.4460074348915244
% es.EY (V/m) @ t=0.68
0.6466825924991113
% es.EZ (V/m) @ t=0.68
-5.586741572250116
% es.tEX (V/m) @ t=0.68
2.4460074348915253
% es.tEY (V/m) @ t=0.68
0
% es.tEZ (V/m) @ t=0.68
-5.5867415722501335
% es.Ex (V/m) @ t=0.68
2.4460074348915244
% es.Ey (V/m) @ t=0.68
0.6466825924991113
% es.Ez (V/m) @ t=0.68
-5.586741572250116
% es.tEx (V/m) @ t=0.68
2.4460074348915253
% es.tEy (V/m) @ t=0.68
0
% es.tEz (V/m) @ t=0.68
-5.5867415722501335
% V (V) @ t=0.68
0.030687787133391563
% es.normE (V/m) @ t=0.7
6.215498545958614
% es.EX (V/m) @ t=0.7
2.4771119497344047
% es.EY (V/m) @ t=0.7
0.6549062647484867
% es.EZ (V/m) @ t=0.7
-5.657785260641884
% es.tEX (V/m) @ t=0.7
2.4771119497344056
% es.tEY (V/m) @ t=0.7
0
% es.tEZ (V/m) @ t=0.7
-5.6577852606419015
% es.Ex (V/m) @ t=0.7
2.4771119497344047
% es.Ey (V/m) @ t=0.7
0.6549062647484867
% es.Ez (V/m) @ t=0.7
-5.657785260641884
% es.tEx (V/m) @ t=0.7
2.4771119497344056
% es.tEy (V/m) @ t=0.7
0
% es.tEz (V/m) @ t=0.7
-5.6577852606419015
% V (V) @ t=0.7
0.031078032108762307
% es.normE (V/m) @ t=0.72
6.293545305045068
% es.EX (V/m) @ t=0.72
2.508216464577372
% es.EY (V/m) @ t=0.72
0.6631299369978088
% es.EZ (V/m) @ t=0.72
-5.728828949033659
% es.tEX (V/m) @ t=0.72
2.508216464577373
% es.tEY (V/m) @ t=0.72
0
% es.tEZ (V/m) @ t=0.72
-5.728828949033684
% es.Ex (V/m) @ t=0.72
2.508216464577372
% es.Ey (V/m) @ t=0.72
0.6631299369978088
% es.Ez (V/m) @ t=0.72
-5.728828949033659
% es.tEx (V/m) @ t=0.72
2.508216464577373
% es.tEy (V/m) @ t=0.72
0
% es.tEz (V/m) @ t=0.72
-5.728828949033684
% V (V) @ t=0.72
0.031468277084133044
% es.normE (V/m) @ t=0.74
6.373682367693641
% es.EX (V/m) @ t=0.74
2.5401557953700644
% es.EY (V/m) @ t=0.74
0.6715754811444778
% es.EZ (V/m) @ t=0.74
-5.801774505337651
% es.tEX (V/m) @ t=0.74
2.5401557953700653
% es.tEY (V/m) @ t=0.74
0
% es.tEZ (V/m) @ t=0.74
-5.801774505337669
% es.Ex (V/m) @ t=0.74
2.5401557953700644
% es.Ey (V/m) @ t=0.74
0.6715754811444778
% es.Ez (V/m) @ t=0.74
-5.801774505337651
% es.tEx (V/m) @ t=0.74
2.5401557953700653
% es.tEy (V/m) @ t=0.74
0
% es.tEz (V/m) @ t=0.74
-5.801774505337669
% V (V) @ t=0.74
0.0318688325125356
% es.normE (V/m) @ t=0.76
6.4562422658451055
% es.EX (V/m) @ t=0.76
2.5730627472076764
% es.EY (V/m) @ t=0.76
0.680278193254038
% es.EZ (V/m) @ t=0.76
-5.876924484564977
% es.tEX (V/m) @ t=0.76
2.5730627472076772
% es.tEY (V/m) @ t=0.76
0
% es.tEZ (V/m) @ t=0.76
-5.876924484564995
% es.Ex (V/m) @ t=0.76
2.5730627472076764
% es.Ey (V/m) @ t=0.76
0.680278193254038
% es.Ez (V/m) @ t=0.76
-5.876924484564977
% es.tEx (V/m) @ t=0.76
2.5730627472076772
% es.tEy (V/m) @ t=0.76
0
% es.tEz (V/m) @ t=0.76
-5.876924484564995
% V (V) @ t=0.76
0.032281338612626366
% es.normE (V/m) @ t=0.78
6.53880216400383
% es.EX (V/m) @ t=0.78
2.605969699045347
% es.EY (V/m) @ t=0.78
0.6889809053635769
% es.EZ (V/m) @ t=0.78
-5.952074463792304
% es.tEX (V/m) @ t=0.78
2.605969699045348
% es.tEY (V/m) @ t=0.78
0
% es.tEZ (V/m) @ t=0.78
-5.952074463792329
% es.Ex (V/m) @ t=0.78
2.605969699045347
% es.Ey (V/m) @ t=0.78
0.6889809053635769
% es.Ez (V/m) @ t=0.78
-5.952074463792304
% es.tEx (V/m) @ t=0.78
2.605969699045348
% es.tEy (V/m) @ t=0.78
0
% es.tEz (V/m) @ t=0.78
-5.952074463792329
% V (V) @ t=0.78
0.032693844712717135
% es.normE (V/m) @ t=0.8
6.621362062169487
% es.EX (V/m) @ t=0.8
2.6388766508829145
% es.EY (V/m) @ t=0.8
0.6976836174730678
% es.EZ (V/m) @ t=0.8
-6.027224443019644
% es.tEX (V/m) @ t=0.8
2.638876650882901
% es.tEY (V/m) @ t=0.8
0
% es.tEZ (V/m) @ t=0.8
-6.027224443019648
% es.Ex (V/m) @ t=0.8
2.6388766508829145
% es.Ey (V/m) @ t=0.8
0.6976836174730678
% es.Ez (V/m) @ t=0.8
-6.027224443019644
% es.tEx (V/m) @ t=0.8
2.638876650882901
% es.tEy (V/m) @ t=0.8
0
% es.tEz (V/m) @ t=0.8
-6.027224443019648
% V (V) @ t=0.8
0.03310635081280791
% es.normE (V/m) @ t=0.82
6.703921960341894
% es.EX (V/m) @ t=0.82
2.671783602720571
% es.EY (V/m) @ t=0.82
0.7063863295826494
% es.EZ (V/m) @ t=0.82
-6.102374422246978
% es.tEX (V/m) @ t=0.82
2.6717836027205717
% es.tEY (V/m) @ t=0.82
0
% es.tEZ (V/m) @ t=0.82
-6.102374422246996
% es.Ex (V/m) @ t=0.82
2.671783602720571
% es.Ey (V/m) @ t=0.82
0.7063863295826494
% es.Ez (V/m) @ t=0.82
-6.102374422246978
% es.tEx (V/m) @ t=0.82
2.6717836027205717
% es.tEy (V/m) @ t=0.82
0
% es.tEz (V/m) @ t=0.82
-6.102374422246996
% V (V) @ t=0.82
0.03351885691289868
% es.normE (V/m) @ t=0.84
6.786481858520716
% es.EX (V/m) @ t=0.84
2.7046905545581525
% es.EY (V/m) @ t=0.84
0.7150890416922184
% es.EZ (V/m) @ t=0.84
-6.177524401474294
% es.tEX (V/m) @ t=0.84
2.7046905545581534
% es.tEY (V/m) @ t=0.84
0
% es.tEZ (V/m) @ t=0.84
-6.177524401474294
% es.Ex (V/m) @ t=0.84
2.7046905545581525
% es.Ey (V/m) @ t=0.84
0.7150890416922184
% es.Ez (V/m) @ t=0.84
-6.177524401474294
% es.tEx (V/m) @ t=0.84
2.7046905545581534
% es.tEy (V/m) @ t=0.84
0
% es.tEz (V/m) @ t=0.84
-6.177524401474294
% V (V) @ t=0.84
0.033931363012989456
% es.normE (V/m) @ t=0.86
6.869041756705803
% es.EX (V/m) @ t=0.86
2.7375975063957947
% es.EY (V/m) @ t=0.86
0.7237917538016934
% es.EZ (V/m) @ t=0.86
-6.252674380701631
% es.tEX (V/m) @ t=0.86
2.7375975063957956
% es.tEY (V/m) @ t=0.86
0
% es.tEZ (V/m) @ t=0.86
-6.2526743807016345
% es.Ex (V/m) @ t=0.86
2.7375975063957947
% es.Ey (V/m) @ t=0.86
0.7237917538016934
% es.Ez (V/m) @ t=0.86
-6.252674380701631
% es.tEx (V/m) @ t=0.86
2.7375975063957956
% es.tEy (V/m) @ t=0.86
0
% es.tEz (V/m) @ t=0.86
-6.2526743807016345
% V (V) @ t=0.86
0.03434386911308022
% es.normE (V/m) @ t=0.88
6.951601654896867
% es.EX (V/m) @ t=0.88
2.770504458233365
% es.EY (V/m) @ t=0.88
0.7324944659112234
% es.EZ (V/m) @ t=0.88
-6.32782435992895
% es.tEX (V/m) @ t=0.88
2.7705044582333525
% es.tEY (V/m) @ t=0.88
0
% es.tEZ (V/m) @ t=0.88
-6.327824359928968
% es.Ex (V/m) @ t=0.88
2.770504458233365
% es.Ey (V/m) @ t=0.88
0.7324944659112234
% es.Ez (V/m) @ t=0.88
-6.32782435992895
% es.tEx (V/m) @ t=0.88
2.7705044582333525
% es.tEy (V/m) @ t=0.88
0
% es.tEz (V/m) @ t=0.88
-6.327824359928968
% V (V) @ t=0.88
0.03475637521317099
% es.normE (V/m) @ t=0.9
7.034161553093774
% es.EX (V/m) @ t=0.9
2.8034114100710186
% es.EY (V/m) @ t=0.9
0.7411971780207232
% es.EZ (V/m) @ t=0.9
-6.402974339156291
% es.tEX (V/m) @ t=0.9
2.8034114100710195
% es.tEY (V/m) @ t=0.9
0
% es.tEZ (V/m) @ t=0.9
-6.402974339156316
% es.Ex (V/m) @ t=0.9
2.8034114100710186
% es.Ey (V/m) @ t=0.9
0.7411971780207232
% es.Ez (V/m) @ t=0.9
-6.402974339156291
% es.tEx (V/m) @ t=0.9
2.8034114100710195
% es.tEy (V/m) @ t=0.9
0
% es.tEz (V/m) @ t=0.9
-6.402974339156316
% V (V) @ t=0.9
0.03516888131326177
% es.normE (V/m) @ t=0.92
7.116721451296292
% es.EX (V/m) @ t=0.92
2.836318361908674
% es.EY (V/m) @ t=0.92
0.7498998901302816
% es.EZ (V/m) @ t=0.92
-6.478124318383639
% es.tEX (V/m) @ t=0.92
2.8363183619086616
% es.tEY (V/m) @ t=0.92
0
% es.tEZ (V/m) @ t=0.92
-6.478124318383664
% es.Ex (V/m) @ t=0.92
2.836318361908674
% es.Ey (V/m) @ t=0.92
0.7498998901302816
% es.Ez (V/m) @ t=0.92
-6.478124318383639
% es.tEx (V/m) @ t=0.92
2.8363183619086616
% es.tEy (V/m) @ t=0.92
0
% es.tEz (V/m) @ t=0.92
-6.478124318383664
% V (V) @ t=0.92
0.03558138741335253
% es.normE (V/m) @ t=0.94
7.201524833099434
% es.EX (V/m) @ t=0.94
2.8701125101665594
% es.EY (V/m) @ t=0.94
0.7588318296471304
% es.EZ (V/m) @ t=0.94
-6.555319985839223
% es.tEX (V/m) @ t=0.94
2.870112510166546
% es.tEY (V/m) @ t=0.94
0
% es.tEZ (V/m) @ t=0.94
-6.555319985839255
% es.Ex (V/m) @ t=0.94
2.8701125101665594
% es.Ey (V/m) @ t=0.94
0.7588318296471304
% es.Ez (V/m) @ t=0.94
-6.555319985839223
% es.tEx (V/m) @ t=0.94
2.870112510166546
% es.tEy (V/m) @ t=0.94
0
% es.tEz (V/m) @ t=0.94
-6.555319985839255
% V (V) @ t=0.94
0.036005675929588726
% es.normE (V/m) @ t=0.96
7.2869153488577325
% es.EX (V/m) @ t=0.96
2.904138843376157
% es.EY (V/m) @ t=0.96
0.7678237594358741
% es.EZ (V/m) @ t=0.96
-6.633051022928523
% es.tEX (V/m) @ t=0.96
2.904138843376158
% es.tEY (V/m) @ t=0.96
0
% es.tEZ (V/m) @ t=0.96
-6.633051022928548
% es.Ex (V/m) @ t=0.96
2.904138843376157
% es.Ey (V/m) @ t=0.96
0.7678237594358741
% es.Ez (V/m) @ t=0.96
-6.633051022928523
% es.tEx (V/m) @ t=0.96
2.904138843376158
% es.tEy (V/m) @ t=0.96
0
% es.tEz (V/m) @ t=0.96
-6.633051022928548
% V (V) @ t=0.96
0.036433047979145886
% es.normE (V/m) @ t=0.98
7.372305864631236
% es.EX (V/m) @ t=0.98
2.9381651765858274
% es.EY (V/m) @ t=0.98
0.7768156892246623
% es.EZ (V/m) @ t=0.98
-6.710782060017831
% es.tEX (V/m) @ t=0.98
2.9381651765858283
% es.tEY (V/m) @ t=0.98
0
% es.tEZ (V/m) @ t=0.98
-6.71078206001787
% es.Ex (V/m) @ t=0.98
2.9381651765858274
% es.Ey (V/m) @ t=0.98
0.7768156892246623
% es.Ez (V/m) @ t=0.98
-6.710782060017831
% es.tEx (V/m) @ t=0.98
2.9381651765858283
% es.tEy (V/m) @ t=0.98
0
% es.tEz (V/m) @ t=0.98
-6.71078206001787
% V (V) @ t=0.98
0.036860420028703045
% es.normE (V/m) @ t=1
7.4576963804192875
% es.EX (V/m) @ t=1
2.9721915097953255
% es.EY (V/m) @ t=1
0.7858076190134753
% es.EZ (V/m) @ t=1
-6.788513097107103
% es.tEX (V/m) @ t=1
2.9721915097953264
% es.tEY (V/m) @ t=1
0
% es.tEZ (V/m) @ t=1
-6.788513097107106
% es.Ex (V/m) @ t=1
2.9721915097953255
% es.Ey (V/m) @ t=1
0.7858076190134753
% es.Ez (V/m) @ t=1
-6.788513097107103
% es.tEx (V/m) @ t=1
2.9721915097953264
% es.tEy (V/m) @ t=1
0
% es.tEz (V/m) @ t=1
-6.788513097107106
% V (V) @ t=1
0.03728779207826018
% es.normE (V/m) @ t=1.02
7.5430868962216255
% es.EX (V/m) @ t=1.02
3.0062178430050217
% es.EY (V/m) @ t=1.02
0.7947995488022315
% es.EZ (V/m) @ t=1.02
-6.866244134196453
% es.tEX (V/m) @ t=1.02
3.0062178430050235
% es.tEY (V/m) @ t=1.02
0
% es.tEZ (V/m) @ t=1.02
-6.866244134196471
% es.Ex (V/m) @ t=1.02
3.0062178430050217
% es.Ey (V/m) @ t=1.02
0.7947995488022315
% es.Ez (V/m) @ t=1.02
-6.866244134196453
% es.tEx (V/m) @ t=1.02
3.0062178430050235
% es.tEy (V/m) @ t=1.02
0
% es.tEz (V/m) @ t=1.02
-6.866244134196471
% V (V) @ t=1.02
0.03771516412781734
% es.normE (V/m) @ t=1.04
7.628477412037542
% es.EX (V/m) @ t=1.04
3.040244176214622
% es.EY (V/m) @ t=1.04
0.8037914785910445
% es.EZ (V/m) @ t=1.04
-6.943975171285736
% es.tEX (V/m) @ t=1.04
3.0402441762146086
% es.tEY (V/m) @ t=1.04
0
% es.tEZ (V/m) @ t=1.04
-6.9439751712857785
% es.Ex (V/m) @ t=1.04
3.040244176214622
% es.Ey (V/m) @ t=1.04
0.8037914785910445
% es.Ez (V/m) @ t=1.04
-6.943975171285736
% es.tEx (V/m) @ t=1.04
3.0402441762146086
% es.tEy (V/m) @ t=1.04
0
% es.tEz (V/m) @ t=1.04
-6.9439751712857785
% V (V) @ t=1.04