% Model:              1 neuron.mph
% Version:            COMSOL 6.1.0.252
% Date:               Mar 18 2023, 14:05
% Dimension:          0
% Nodes:              14017
% Expressions:        14017
% Description:        Electric field norm, Electric field, X component, Electric field, Y component, Electric field, Z component, Tangential electric field, X component, Tangential electric field, Y component, Tangential electric field, Z component, Electric field, x component, Electric field, y component, Electric field, z component, Tangential electric field, x component, Tangential electric field, y component, Tangential electric field, z component, Electric potential
% Length unit:        mm
% x
1.66
% y
12.2
% z
1
% es.normE (V/m) @ t=0
4.162849763010149
% es.EX (V/m) @ t=0
-1.483796251156743
% es.EY (V/m) @ t=0
0.471389468241624
% es.EZ (V/m) @ t=0
3.8488002738733336
% es.tEX (V/m) @ t=0
-1.4837962511567573
% es.tEY (V/m) @ t=0
0
% es.tEZ (V/m) @ t=0
3.8488002738733407
% es.Ex (V/m) @ t=0
-1.483796251156743
% es.Ey (V/m) @ t=0
0.471389468241624
% es.Ez (V/m) @ t=0
3.8488002738733336
% es.tEx (V/m) @ t=0
-1.4837962511567573
% es.tEy (V/m) @ t=0
0
% es.tEz (V/m) @ t=0
3.8488002738733407
% V (V) @ t=0
0.020268400352347865
% es.normE (V/m) @ t=0.02
3.901241570443994
% es.EX (V/m) @ t=0.02
-1.3905503316531889
% es.EY (V/m) @ t=0.02
0.4417702670594954
% es.EZ (V/m) @ t=0.02
3.606927616682377
% es.tEX (V/m) @ t=0.02
-1.390550331653203
% es.tEY (V/m) @ t=0.02
0
% es.tEZ (V/m) @ t=0.02
3.6069276166823805
% es.Ex (V/m) @ t=0.02
-1.3905503316531889
% es.Ey (V/m) @ t=0.02
0.4417702670594954
% es.Ez (V/m) @ t=0.02
3.606927616682377
% es.tEx (V/m) @ t=0.02
-1.390550331653203
% es.tEy (V/m) @ t=0.02
0
% es.tEz (V/m) @ t=0.02
3.6069276166823805
% V (V) @ t=0.02
0.018994343377980148
% es.normE (V/m) @ t=0.04
3.958048728127298
% es.EX (V/m) @ t=0.04
-1.4107985588675989
% es.EY (V/m) @ t=0.04
0.44820303071182055
% es.EZ (V/m) @ t=0.04
3.6594491784318084
% es.tEX (V/m) @ t=0.04
-1.410798558867613
% es.tEY (V/m) @ t=0.04
0
% es.tEZ (V/m) @ t=0.04
3.6594491784318137
% es.Ex (V/m) @ t=0.04
-1.4107985588675989
% es.Ey (V/m) @ t=0.04
0.44820303071182055
% es.Ez (V/m) @ t=0.04
3.6594491784318084
% es.tEx (V/m) @ t=0.04
-1.410798558867613
% es.tEy (V/m) @ t=0.04
0
% es.tEz (V/m) @ t=0.04
3.6594491784318137
% V (V) @ t=0.04
0.019270924903247496
% es.normE (V/m) @ t=0.06
4.015646585008851
% es.EX (V/m) @ t=0.06
-1.4313286207945208
% es.EY (V/m) @ t=0.06
0.4547253301364651
% es.EZ (V/m) @ t=0.06
3.712701788351609
% es.tEX (V/m) @ t=0.06
-1.4313286207945493
% es.tEY (V/m) @ t=0.06
0
% es.tEZ (V/m) @ t=0.06
3.712701788351609
% es.Ex (V/m) @ t=0.06
-1.4313286207945208
% es.Ey (V/m) @ t=0.06
0.4547253301364651
% es.Ez (V/m) @ t=0.06
3.712701788351609
% es.tEx (V/m) @ t=0.06
-1.4313286207945493
% es.tEy (V/m) @ t=0.06
0
% es.tEz (V/m) @ t=0.06
3.712701788351609
% V (V) @ t=0.06
0.01955135629010372
% es.normE (V/m) @ t=0.08
4.074502599897776
% es.EX (V/m) @ t=0.08
-1.4523071317808398
% es.EY (V/m) @ t=0.08
0.461390078067228
% es.EZ (V/m) @ t=0.08
3.767117642048678
% es.tEX (V/m) @ t=0.08
-1.4523071317808611
% es.tEY (V/m) @ t=0.08
0
% es.tEZ (V/m) @ t=0.08
3.7671176420486745
% es.Ex (V/m) @ t=0.08
-1.4523071317808398
% es.Ey (V/m) @ t=0.08
0.461390078067228
% es.Ez (V/m) @ t=0.08
3.767117642048678
% es.tEx (V/m) @ t=0.08
-1.4523071317808611
% es.tEy (V/m) @ t=0.08
0
% es.tEz (V/m) @ t=0.08
3.7671176420486745
% V (V) @ t=0.08
0.019837914885162435
% es.normE (V/m) @ t=0.1
4.133358614786669
% es.EX (V/m) @ t=0.1
-1.4732856427671444
% es.EY (V/m) @ t=0.1
0.4680548259980353
% es.EZ (V/m) @ t=0.1
3.8215334957457134
% es.tEX (V/m) @ t=0.1
-1.4732856427671586
% es.tEY (V/m) @ t=0.1
0
% es.tEZ (V/m) @ t=0.1
3.821533495745715
% es.Ex (V/m) @ t=0.1
-1.4732856427671444
% es.Ey (V/m) @ t=0.1
0.4680548259980353
% es.Ez (V/m) @ t=0.1
3.8215334957457134
% es.tEx (V/m) @ t=0.1
-1.4732856427671586
% es.tEy (V/m) @ t=0.1
0
% es.tEz (V/m) @ t=0.1
3.821533495745715
% V (V) @ t=0.1
0.020124473480221148
% es.normE (V/m) @ t=0.12
4.1941987281634345
% es.EX (V/m) @ t=0.12
-1.4949713780315539
% es.EY (V/m) @ t=0.12
0.4749443248010681
% es.EZ (V/m) @ t=0.12
3.8777837587302617
% es.tEX (V/m) @ t=0.12
-1.4949713780315823
% es.tEY (V/m) @ t=0.12
0
% es.tEZ (V/m) @ t=0.12
3.8777837587302635
% es.Ex (V/m) @ t=0.12
-1.4949713780315539
% es.Ey (V/m) @ t=0.12
0.4749443248010681
% es.Ez (V/m) @ t=0.12
3.8777837587302617
% es.tEx (V/m) @ t=0.12
-1.4949713780315823
% es.tEy (V/m) @ t=0.12
0
% es.tEz (V/m) @ t=0.12
3.8777837587302635
% V (V) @ t=0.12
0.020420686811500458
% es.normE (V/m) @ t=0.14
4.25662450866664
% es.EX (V/m) @ t=0.14
-1.5172223182470408
% es.EY (V/m) @ t=0.14
0.48201344173904737
% es.EZ (V/m) @ t=0.14
3.935500059072023
% es.tEX (V/m) @ t=0.14
-1.517222318247055
% es.tEY (V/m) @ t=0.14
0
% es.tEZ (V/m) @ t=0.14
3.9355000590720266
% es.Ex (V/m) @ t=0.14
-1.5172223182470408
% es.Ey (V/m) @ t=0.14
0.48201344173904737
% es.Ez (V/m) @ t=0.14
3.935500059072023
% es.tEx (V/m) @ t=0.14
-1.517222318247055
% es.tEy (V/m) @ t=0.14
0
% es.tEz (V/m) @ t=0.14
3.9355000590720266
% V (V) @ t=0.14
0.020724616089308243
% es.normE (V/m) @ t=0.16
4.319050289169853
% es.EX (V/m) @ t=0.16
-1.5394732584625772
% es.EY (V/m) @ t=0.16
0.4890825586769929
% es.EZ (V/m) @ t=0.16
3.99321635941377
% es.tEX (V/m) @ t=0.16
-1.5394732584625985
% es.tEY (V/m) @ t=0.16
0
% es.tEZ (V/m) @ t=0.16
3.9932163594137755
% es.Ex (V/m) @ t=0.16
-1.5394732584625772
% es.Ey (V/m) @ t=0.16
0.4890825586769929
% es.Ez (V/m) @ t=0.16
3.99321635941377
% es.tEx (V/m) @ t=0.16
-1.5394732584625985
% es.tEy (V/m) @ t=0.16
0
% es.tEz (V/m) @ t=0.16
3.9932163594137755
% V (V) @ t=0.16
0.021028545367116024
% es.normE (V/m) @ t=0.18
4.381476069673106
% es.EX (V/m) @ t=0.18
-1.5617241986780854
% es.EY (V/m) @ t=0.18
0.49615167561495843
% es.EZ (V/m) @ t=0.18
4.050932659755551
% es.tEX (V/m) @ t=0.18
-1.5617241986780996
% es.tEY (V/m) @ t=0.18
0
% es.tEZ (V/m) @ t=0.18
4.050932659755549
% es.Ex (V/m) @ t=0.18
-1.5617241986780854
% es.Ey (V/m) @ t=0.18
0.49615167561495843
% es.Ez (V/m) @ t=0.18
4.050932659755551
% es.tEx (V/m) @ t=0.18
-1.5617241986780996
% es.tEy (V/m) @ t=0.18
0
% es.tEz (V/m) @ t=0.18
4.050932659755549
% V (V) @ t=0.18
0.02133247464492381
% es.normE (V/m) @ t=0.2
4.44390185017633
% es.EX (V/m) @ t=0.2
-1.5839751388935654
% es.EY (V/m) @ t=0.2
0.5032207925529382
% es.EZ (V/m) @ t=0.2
4.1086489600973
% es.tEX (V/m) @ t=0.2
-1.583975138893601
% es.tEY (V/m) @ t=0.2
0
% es.tEZ (V/m) @ t=0.2
4.108648960097316
% es.Ex (V/m) @ t=0.2
-1.5839751388935654
% es.Ey (V/m) @ t=0.2
0.5032207925529382
% es.Ez (V/m) @ t=0.2
4.1086489600973
% es.tEx (V/m) @ t=0.2
-1.583975138893601
% es.tEy (V/m) @ t=0.2
0
% es.tEz (V/m) @ t=0.2
4.108648960097316
% V (V) @ t=0.2
0.02163640392273159
% es.normE (V/m) @ t=0.22
4.506742147366314
% es.EX (V/m) @ t=0.22
-1.6063738244934087
% es.EY (V/m) @ t=0.22
0.5103368302848184
% es.EZ (V/m) @ t=0.22
4.1667485071795145
% es.tEX (V/m) @ t=0.22
-1.606373824493423
% es.tEY (V/m) @ t=0.22
0
% es.tEZ (V/m) @ t=0.22
4.166748507179506
% es.Ex (V/m) @ t=0.22
-1.6063738244934087
% es.Ey (V/m) @ t=0.22
0.5103368302848184
% es.Ez (V/m) @ t=0.22
4.1667485071795145
% es.tEx (V/m) @ t=0.22
-1.606373824493423
% es.tEy (V/m) @ t=0.22
0
% es.tEz (V/m) @ t=0.22
4.166748507179506
% V (V) @ t=0.22
0.02194235272806579
% es.normE (V/m) @ t=0.24
4.5727665497972705
% es.EX (V/m) @ t=0.24
-1.6299074145918986
% es.EY (V/m) @ t=0.24
0.5178132895644922
% es.EZ (V/m) @ t=0.24
4.227791959764071
% es.tEX (V/m) @ t=0.24
-1.629907414591927
% es.tEY (V/m) @ t=0.24
0
% es.tEZ (V/m) @ t=0.24
4.227791959764087
% es.Ex (V/m) @ t=0.24
-1.6299074145918986
% es.Ey (V/m) @ t=0.24
0.5178132895644922
% es.Ez (V/m) @ t=0.24
4.227791959764071
% es.tEx (V/m) @ t=0.24
-1.629907414591927
% es.tEy (V/m) @ t=0.24
0
% es.tEz (V/m) @ t=0.24
4.227791959764087
% V (V) @ t=0.24
0.022263814511254438
% es.normE (V/m) @ t=0.26
4.6387909522282715
% es.EX (V/m) @ t=0.26
-1.6534410046904309
% es.EY (V/m) @ t=0.26
0.5252897488441421
% es.EZ (V/m) @ t=0.26
4.288835412348661
% es.tEX (V/m) @ t=0.26
-1.653441004690445
% es.tEY (V/m) @ t=0.26
0
% es.tEZ (V/m) @ t=0.26
4.288835412348661
% es.Ex (V/m) @ t=0.26
-1.6534410046904309
% es.Ey (V/m) @ t=0.26
0.5252897488441421
% es.Ez (V/m) @ t=0.26
4.288835412348661
% es.tEx (V/m) @ t=0.26
-1.653441004690445
% es.tEy (V/m) @ t=0.26
0
% es.tEz (V/m) @ t=0.26
4.288835412348661
% V (V) @ t=0.26
0.022585276294443086
% es.normE (V/m) @ t=0.28
4.704815354659237
% es.EX (V/m) @ t=0.28
-1.676974594788921
% es.EY (V/m) @ t=0.28
0.5327662081238196
% es.EZ (V/m) @ t=0.28
4.349878864933224
% es.tEX (V/m) @ t=0.28
-1.6769745947889494
% es.tEY (V/m) @ t=0.28
0
% es.tEZ (V/m) @ t=0.28
4.349878864933242
% es.Ex (V/m) @ t=0.28
-1.676974594788921
% es.Ey (V/m) @ t=0.28
0.5327662081238196
% es.Ez (V/m) @ t=0.28
4.349878864933224
% es.tEx (V/m) @ t=0.28
-1.6769745947889494
% es.tEy (V/m) @ t=0.28
0
% es.tEz (V/m) @ t=0.28
4.349878864933242
% V (V) @ t=0.28
0.022906738077631727
% es.normE (V/m) @ t=0.3
4.770839757090221
% es.EX (V/m) @ t=0.3
-1.7005081848874322
% es.EY (V/m) @ t=0.3
0.5402426674034668
% es.EZ (V/m) @ t=0.3
4.410922317517802
% es.tEX (V/m) @ t=0.3
-1.7005081848874393
% es.tEY (V/m) @ t=0.3
0
% es.tEZ (V/m) @ t=0.3
4.410922317517805
% es.Ex (V/m) @ t=0.3
-1.7005081848874322
% es.Ey (V/m) @ t=0.3
0.5402426674034668
% es.Ez (V/m) @ t=0.3
4.410922317517802
% es.tEx (V/m) @ t=0.3
-1.7005081848874393
% es.tEy (V/m) @ t=0.3
0
% es.tEz (V/m) @ t=0.3
4.410922317517805
% V (V) @ t=0.3
0.02322819986082037
% es.normE (V/m) @ t=0.32
4.836864159521195
% es.EX (V/m) @ t=0.32
-1.7240417749859436
% es.EY (V/m) @ t=0.32
0.5477191266831207
% es.EZ (V/m) @ t=0.32
4.471965770102367
% es.tEX (V/m) @ t=0.32
-1.724041774985972
% es.tEY (V/m) @ t=0.32
0
% es.tEZ (V/m) @ t=0.32
4.471965770102358
% es.Ex (V/m) @ t=0.32
-1.7240417749859436
% es.Ey (V/m) @ t=0.32
0.5477191266831207
% es.Ez (V/m) @ t=0.32
4.471965770102367
% es.tEx (V/m) @ t=0.32
-1.724041774985972
% es.tEy (V/m) @ t=0.32
0
% es.tEz (V/m) @ t=0.32
4.471965770102358
% V (V) @ t=0.32
0.02354966164400902
% es.normE (V/m) @ t=0.34
4.907716122756922
% es.EX (V/m) @ t=0.34
-1.749296382912914
% es.EY (V/m) @ t=0.34
0.5557434945000805
% es.EZ (V/m) @ t=0.34
4.537472467557345
% es.tEX (V/m) @ t=0.34
-1.7492963829129282
% es.tEY (V/m) @ t=0.34
0
% es.tEZ (V/m) @ t=0.34
4.537472467557354
% es.Ex (V/m) @ t=0.34
-1.749296382912914
% es.Ey (V/m) @ t=0.34
0.5557434945000805
% es.Ez (V/m) @ t=0.34
4.537472467557345
% es.tEx (V/m) @ t=0.34
-1.7492963829129282
% es.tEy (V/m) @ t=0.34
0
% es.tEz (V/m) @ t=0.34
4.537472467557354
% V (V) @ t=0.34
0.02389454007601111
% es.normE (V/m) @ t=0.36
4.980897038176069
% es.EX (V/m) @ t=0.36
-1.775381258626946
% es.EY (V/m) @ t=0.36
0.564032188927285
% es.EZ (V/m) @ t=0.36
4.605132360859795
% es.tEX (V/m) @ t=0.36
-1.7753812586269744
% es.tEY (V/m) @ t=0.36
0
% es.tEZ (V/m) @ t=0.36
4.605132360859802
% es.Ex (V/m) @ t=0.36
-1.775381258626946
% es.Ey (V/m) @ t=0.36
0.564032188927285
% es.Ez (V/m) @ t=0.36
4.605132360859795
% es.tEx (V/m) @ t=0.36
-1.7753812586269744
% es.tEy (V/m) @ t=0.36
0
% es.tEz (V/m) @ t=0.36
4.605132360859802
% V (V) @ t=0.36
0.024250715363205087
% es.normE (V/m) @ t=0.38
5.054077953597261
% es.EX (V/m) @ t=0.38
-1.8014661343409708
% es.EY (V/m) @ t=0.38
0.5723208833545157
% es.EZ (V/m) @ t=0.38
4.672792254162257
% es.tEX (V/m) @ t=0.38
-1.8014661343410063
% es.tEY (V/m) @ t=0.38
0
% es.tEZ (V/m) @ t=0.38
4.67279225416225
% es.Ex (V/m) @ t=0.38
-1.8014661343409708
% es.Ey (V/m) @ t=0.38
0.5723208833545157
% es.Ez (V/m) @ t=0.38
4.672792254162257
% es.tEx (V/m) @ t=0.38
-1.8014661343410063
% es.tEy (V/m) @ t=0.38
0
% es.tEz (V/m) @ t=0.38
4.67279225416225
% V (V) @ t=0.38
0.024606890650399064
% es.normE (V/m) @ t=0.4
5.1272588690203875
% es.EX (V/m) @ t=0.4
-1.8275510100550099
% es.EY (V/m) @ t=0.4
0.5806095777817588
% es.EZ (V/m) @ t=0.4
4.7404521474646995
% es.tEX (V/m) @ t=0.4
-1.827551010055024
% es.tEY (V/m) @ t=0.4
0
% es.tEZ (V/m) @ t=0.4
4.740452147464687
% es.Ex (V/m) @ t=0.4
-1.8275510100550099
% es.Ey (V/m) @ t=0.4
0.5806095777817588
% es.Ez (V/m) @ t=0.4
4.7404521474646995
% es.tEx (V/m) @ t=0.4
-1.827551010055024
% es.tEy (V/m) @ t=0.4
0
% es.tEz (V/m) @ t=0.4
4.740452147464687
% V (V) @ t=0.4
0.024963065937593044
% es.normE (V/m) @ t=0.42
5.200439784445381
% es.EX (V/m) @ t=0.42
-1.85363588576902
% es.EY (V/m) @ t=0.42
0.5888982722089628
% es.EZ (V/m) @ t=0.42
4.808112040767167
% es.tEX (V/m) @ t=0.42
-1.8536358857690556
% es.tEY (V/m) @ t=0.42
0
% es.tEZ (V/m) @ t=0.42
4.8081120407671705
% es.Ex (V/m) @ t=0.42
-1.85363588576902
% es.Ey (V/m) @ t=0.42
0.5888982722089628
% es.Ez (V/m) @ t=0.42
4.808112040767167
% es.tEx (V/m) @ t=0.42
-1.8536358857690556
% es.tEy (V/m) @ t=0.42
0
% es.tEz (V/m) @ t=0.42
4.8081120407671705
% V (V) @ t=0.42
0.025319241224787018
% es.normE (V/m) @ t=0.44
5.273620699872152
% es.EX (V/m) @ t=0.44
-1.879720761483059
% es.EY (V/m) @ t=0.44
0.597186966636206
% es.EZ (V/m) @ t=0.44
4.875771934069606
% es.tEX (V/m) @ t=0.44
-1.8797207614830875
% es.tEY (V/m) @ t=0.44
0
% es.tEZ (V/m) @ t=0.44
4.875771934069608
% es.Ex (V/m) @ t=0.44
-1.879720761483059
% es.Ey (V/m) @ t=0.44
0.597186966636206
% es.Ez (V/m) @ t=0.44
4.875771934069606
% es.tEx (V/m) @ t=0.44
-1.8797207614830875
% es.tEy (V/m) @ t=0.44
0
% es.tEz (V/m) @ t=0.44
4.875771934069608
% V (V) @ t=0.44
0.025675416511981
% es.normE (V/m) @ t=0.46
5.346801615300629
% es.EX (V/m) @ t=0.46
-1.9058056371970697
% es.EY (V/m) @ t=0.46
0.6054756610634189
% es.EZ (V/m) @ t=0.46
4.943431827372056
% es.tEX (V/m) @ t=0.46
-1.9058056371970769
% es.tEY (V/m) @ t=0.46
0
% es.tEZ (V/m) @ t=0.46
4.943431827372059
% es.Ex (V/m) @ t=0.46
-1.9058056371970697
% es.Ey (V/m) @ t=0.46
0.6054756610634189
% es.Ez (V/m) @ t=0.46
4.943431827372056
% es.tEx (V/m) @ t=0.46
-1.9058056371970769
% es.tEy (V/m) @ t=0.46
0
% es.tEz (V/m) @ t=0.46
4.943431827372059
% V (V) @ t=0.46
0.02603159179917498
% es.normE (V/m) @ t=0.48
5.419982530730762
% es.EX (V/m) @ t=0.48
-1.931890512911123
% es.EY (V/m) @ t=0.48
0.6137643554906247
% es.EZ (V/m) @ t=0.48
5.011091720674504
% es.tEX (V/m) @ t=0.48
-1.9318905129111514
% es.tEY (V/m) @ t=0.48
0
% es.tEZ (V/m) @ t=0.48
5.011091720674511
% es.Ex (V/m) @ t=0.48
-1.931890512911123
% es.Ey (V/m) @ t=0.48
0.6137643554906247
% es.Ez (V/m) @ t=0.48
5.011091720674504
% es.tEx (V/m) @ t=0.48
-1.9318905129111514
% es.tEy (V/m) @ t=0.48
0
% es.tEz (V/m) @ t=0.48
5.011091720674511
% V (V) @ t=0.48
0.026387767086368957
% es.normE (V/m) @ t=0.5
5.493163446162464
% es.EX (V/m) @ t=0.5
-1.9579753886251412
% es.EY (V/m) @ t=0.5
0.6220530499178398
% es.EZ (V/m) @ t=0.5
5.078751613976959
% es.tEX (V/m) @ t=0.5
-1.9579753886251696
% es.tEY (V/m) @ t=0.5
0
% es.tEZ (V/m) @ t=0.5
5.078751613976944
% es.Ex (V/m) @ t=0.5
-1.9579753886251412
% es.Ey (V/m) @ t=0.5
0.6220530499178398
% es.Ez (V/m) @ t=0.5
5.078751613976959
% es.tEx (V/m) @ t=0.5
-1.9579753886251696
% es.tEy (V/m) @ t=0.5
0
% es.tEz (V/m) @ t=0.5
5.078751613976944
% V (V) @ t=0.5
0.026743942373562937
% es.normE (V/m) @ t=0.52
5.566344361595688
% es.EX (V/m) @ t=0.52
-1.9840602643391656
% es.EY (V/m) @ t=0.52
0.6303417443450776
% es.EZ (V/m) @ t=0.52
5.14641150727941
% es.tEX (V/m) @ t=0.52
-1.9840602643392011
% es.tEY (V/m) @ t=0.52
0
% es.tEZ (V/m) @ t=0.52
5.1464115072794065
% es.Ex (V/m) @ t=0.52
-1.9840602643391656
% es.Ey (V/m) @ t=0.52
0.6303417443450776
% es.Ez (V/m) @ t=0.52
5.14641150727941
% es.tEx (V/m) @ t=0.52
-1.9840602643392011
% es.tEy (V/m) @ t=0.52
0
% es.tEz (V/m) @ t=0.52
5.1464115072794065
% V (V) @ t=0.52
0.027100117660756914
% es.normE (V/m) @ t=0.54
5.639525277030375
% es.EX (V/m) @ t=0.54
-2.010145140053219
% es.EY (V/m) @ t=0.54
0.6386304387723101
% es.EZ (V/m) @ t=0.54
5.214071400581863
% es.tEX (V/m) @ t=0.54
-2.010145140053233
% es.tEY (V/m) @ t=0.54
0
% es.tEZ (V/m) @ t=0.54
5.214071400581865
% es.Ex (V/m) @ t=0.54
-2.010145140053219
% es.Ey (V/m) @ t=0.54
0.6386304387723101
% es.Ez (V/m) @ t=0.54
5.214071400581863
% es.tEx (V/m) @ t=0.54
-2.010145140053233
% es.tEy (V/m) @ t=0.54
0
% es.tEz (V/m) @ t=0.54
5.214071400581865
% V (V) @ t=0.54
0.02745629294795089
% es.normE (V/m) @ t=0.56
5.717327691011807
% es.EX (V/m) @ t=0.56
-2.03787637590237
% es.EY (V/m) @ t=0.56
0.6474385679697656
% es.EZ (V/m) @ t=0.56
5.286004516903612
% es.tEX (V/m) @ t=0.56
-2.0378763759024054
% es.tEY (V/m) @ t=0.56
0
% es.tEZ (V/m) @ t=0.56
5.2860045169036205
% es.Ex (V/m) @ t=0.56
-2.03787637590237
% es.Ey (V/m) @ t=0.56
0.6474385679697656
% es.Ez (V/m) @ t=0.56
5.286004516903612
% es.tEx (V/m) @ t=0.56
-2.0378763759024054
% es.tEy (V/m) @ t=0.56
0
% es.tEz (V/m) @ t=0.56
5.2860045169036205
% V (V) @ t=0.56
0.02783524352319625
% es.normE (V/m) @ t=0.58
5.796334039397236
% es.EX (V/m) @ t=0.58
-2.0660365006885013
% es.EY (V/m) @ t=0.58
0.6563820137493601
% es.EZ (V/m) @ t=0.58
5.3590508392846505
% es.tEX (V/m) @ t=0.58
-2.0660365006885297
% es.tEY (V/m) @ t=0.58
0
% es.tEZ (V/m) @ t=0.58
5.359050839284659
% es.Ex (V/m) @ t=0.58
-2.0660365006885013
% es.Ey (V/m) @ t=0.58
0.6563820137493601
% es.Ez (V/m) @ t=0.58
5.3590508392846505
% es.tEx (V/m) @ t=0.58
-2.0660365006885297
% es.tEy (V/m) @ t=0.58
0
% es.tEz (V/m) @ t=0.58
5.359050839284659
% V (V) @ t=0.58
0.028220127228668374
% es.normE (V/m) @ t=0.6
5.875340387788864
% es.EX (V/m) @ t=0.6
-2.0941966254746114
% es.EY (V/m) @ t=0.6
0.6653254595289382
% es.EZ (V/m) @ t=0.6
5.43209716166573
% es.tEX (V/m) @ t=0.6
-2.09419662547464
% es.tEY (V/m) @ t=0.6
0
% es.tEZ (V/m) @ t=0.6
5.432097161665737
% es.Ex (V/m) @ t=0.6
-2.0941966254746114
% es.Ey (V/m) @ t=0.6
0.6653254595289382
% es.Ez (V/m) @ t=0.6
5.43209716166573
% es.tEx (V/m) @ t=0.6
-2.09419662547464
% es.tEy (V/m) @ t=0.6
0
% es.tEz (V/m) @ t=0.6
5.432097161665737
% V (V) @ t=0.6
0.0286050109341405
% es.normE (V/m) @ t=0.62
5.954346736186407
% es.EX (V/m) @ t=0.62
-2.1223567502607437
% es.EY (V/m) @ t=0.62
0.6742689053085438
% es.EZ (V/m) @ t=0.62
5.505143484046789
% es.tEX (V/m) @ t=0.62
-2.1223567502607508
% es.tEY (V/m) @ t=0.62
0
% es.tEZ (V/m) @ t=0.62
5.50514348404678
% es.Ex (V/m) @ t=0.62
-2.1223567502607437
% es.Ey (V/m) @ t=0.62
0.6742689053085438
% es.Ez (V/m) @ t=0.62
5.505143484046789
% es.tEx (V/m) @ t=0.62
-2.1223567502607508
% es.tEy (V/m) @ t=0.62
0
% es.tEz (V/m) @ t=0.62
5.50514348404678
% V (V) @ t=0.62
0.028989894639612632
% es.normE (V/m) @ t=0.64
6.033353084589642
% es.EX (V/m) @ t=0.64
-2.1505168750468893
% es.EY (V/m) @ t=0.64
0.6832123510881485
% es.EZ (V/m) @ t=0.64
5.578189806427842
% es.tEX (V/m) @ t=0.64
-2.1505168750469177
% es.tEY (V/m) @ t=0.64
0
% es.tEZ (V/m) @ t=0.64
5.578189806427822
% es.Ex (V/m) @ t=0.64
-2.1505168750468893
% es.Ey (V/m) @ t=0.64
0.6832123510881485
% es.Ez (V/m) @ t=0.64
5.578189806427842
% es.tEx (V/m) @ t=0.64
-2.1505168750469177
% es.tEy (V/m) @ t=0.64
0
% es.tEz (V/m) @ t=0.64
5.578189806427822
% V (V) @ t=0.64
0.029374778345084757
% es.normE (V/m) @ t=0.66
6.112359432998339
% es.EX (V/m) @ t=0.66
-2.1786769998329993
% es.EY (V/m) @ t=0.66
0.6921557968677554
% es.EZ (V/m) @ t=0.66
5.651236128808902
% es.tEX (V/m) @ t=0.66
-2.1786769998330278
% es.tEY (V/m) @ t=0.66
0
% es.tEZ (V/m) @ t=0.66
5.651236128808918
% es.Ex (V/m) @ t=0.66
-2.1786769998329993
% es.Ey (V/m) @ t=0.66
0.6921557968677554
% es.Ez (V/m) @ t=0.66
5.651236128808902
% es.tEx (V/m) @ t=0.66
-2.1786769998330278
% es.tEy (V/m) @ t=0.66
0
% es.tEz (V/m) @ t=0.66
5.651236128808918
% V (V) @ t=0.66
0.029759662050556888
% es.normE (V/m) @ t=0.68
6.191365781412308
% es.EX (V/m) @ t=0.68
-2.2068371246191383
% es.EY (V/m) @ t=0.68
0.7010992426473486
% es.EZ (V/m) @ t=0.68
5.724282451189964
% es.tEX (V/m) @ t=0.68
-2.2068371246191667
% es.tEY (V/m) @ t=0.68
0
% es.tEZ (V/m) @ t=0.68
5.724282451189978
% es.Ex (V/m) @ t=0.68
-2.2068371246191383
% es.Ey (V/m) @ t=0.68
0.7010992426473486
% es.Ez (V/m) @ t=0.68
5.724282451189964
% es.tEx (V/m) @ t=0.68
-2.2068371246191667
% es.tEy (V/m) @ t=0.68
0
% es.tEz (V/m) @ t=0.68
5.724282451189978
% V (V) @ t=0.68
0.030144545756029012
% es.normE (V/m) @ t=0.7
6.270372129831346
% es.EX (V/m) @ t=0.7
-2.234997249405305
% es.EY (V/m) @ t=0.7
0.7100426884269049
% es.EZ (V/m) @ t=0.7
5.797328773571023
% es.tEX (V/m) @ t=0.7
-2.2349972494053336
% es.tEY (V/m) @ t=0.7
0
% es.tEZ (V/m) @ t=0.7
5.797328773571021
% es.Ex (V/m) @ t=0.7
-2.234997249405305
% es.Ey (V/m) @ t=0.7
0.7100426884269049
% es.Ez (V/m) @ t=0.7
5.797328773571023
% es.tEx (V/m) @ t=0.7
-2.2349972494053336
% es.tEy (V/m) @ t=0.7
0
% es.tEz (V/m) @ t=0.7
5.797328773571021
% V (V) @ t=0.7
0.030529429461501143
% es.normE (V/m) @ t=0.72
6.349378478255226
% es.EX (V/m) @ t=0.72
-2.263157374191387
% es.EY (V/m) @ t=0.72
0.7189861342065416
% es.EZ (V/m) @ t=0.72
5.870375095952072
% es.tEX (V/m) @ t=0.72
-2.2631573741914153
% es.tEY (V/m) @ t=0.72
0
% es.tEZ (V/m) @ t=0.72
5.870375095952063
% es.Ex (V/m) @ t=0.72
-2.263157374191387
% es.Ey (V/m) @ t=0.72
0.7189861342065416
% es.Ez (V/m) @ t=0.72
5.870375095952072
% es.tEx (V/m) @ t=0.72
-2.2631573741914153
% es.tEy (V/m) @ t=0.72
0
% es.tEz (V/m) @ t=0.72
5.870375095952063
% V (V) @ t=0.72
0.030914313166973267
% es.normE (V/m) @ t=0.74
6.428385801070411
% es.EX (V/m) @ t=0.74
-2.2913178465619928
% es.EY (V/m) @ t=0.74
0.727929691490171
% es.EZ (V/m) @ t=0.74
5.943422319097513
% es.tEX (V/m) @ t=0.74
-2.291317846562021
% es.tEY (V/m) @ t=0.74
0
% es.tEZ (V/m) @ t=0.74
5.943422319097511
% es.Ex (V/m) @ t=0.74
-2.2913178465619928
% es.Ey (V/m) @ t=0.74
0.727929691490171
% es.Ez (V/m) @ t=0.74
5.943422319097513
% es.tEx (V/m) @ t=0.74
-2.291317846562021
% es.tEy (V/m) @ t=0.74
0
% es.tEz (V/m) @ t=0.74
5.943422319097511
% V (V) @ t=0.74
0.03129920153513915
% es.normE (V/m) @ t=0.76
6.511870450673479
% es.EX (V/m) @ t=0.76
-2.321075476746765
% es.EY (V/m) @ t=0.76
0.7373856121400983
% es.EZ (V/m) @ t=0.76
6.02060857344698
% es.tEX (V/m) @ t=0.76
-2.3210754767467936
% es.tEY (V/m) @ t=0.76
0
% es.tEZ (V/m) @ t=0.76
6.0206085734469745
% es.Ex (V/m) @ t=0.76
-2.321075476746765
% es.Ey (V/m) @ t=0.76
0.7373856121400983
% es.Ez (V/m) @ t=0.76
6.02060857344698
% es.tEx (V/m) @ t=0.76
-2.3210754767467936
% es.tEy (V/m) @ t=0.76
0
% es.tEz (V/m) @ t=0.76
6.0206085734469745
% V (V) @ t=0.76
0.03170551507936392
% es.normE (V/m) @ t=0.78
6.5953551002793285
% es.EX (V/m) @ t=0.78
-2.3508331069315656
% es.EY (V/m) @ t=0.78
0.746841532790051
% es.EZ (V/m) @ t=0.78
6.097794827796443
% es.tEX (V/m) @ t=0.78
-2.350833106931594
% es.tEY (V/m) @ t=0.78
0
% es.tEZ (V/m) @ t=0.78
6.097794827796445
% es.Ex (V/m) @ t=0.78
-2.3508331069315656
% es.Ey (V/m) @ t=0.78
0.746841532790051
% es.Ez (V/m) @ t=0.78
6.097794827796443
% es.tEx (V/m) @ t=0.78
-2.350833106931594
% es.tEy (V/m) @ t=0.78
0
% es.tEz (V/m) @ t=0.78
6.097794827796445
% V (V) @ t=0.78
0.03211182862358871
% es.normE (V/m) @ t=0.8
6.6788397498878656
% es.EX (V/m) @ t=0.8
-2.3805907371163673
% es.EY (V/m) @ t=0.8
0.7562974534399998
% es.EZ (V/m) @ t=0.8
6.174981082145921
% es.tEX (V/m) @ t=0.8
-2.3805907371163957
% es.tEY (V/m) @ t=0.8
0
% es.tEZ (V/m) @ t=0.8
6.174981082145905
% es.Ex (V/m) @ t=0.8
-2.3805907371163673
% es.Ey (V/m) @ t=0.8
0.7562974534399998
% es.Ez (V/m) @ t=0.8
6.174981082145921
% es.tEx (V/m) @ t=0.8
-2.3805907371163957
% es.tEy (V/m) @ t=0.8
0
% es.tEz (V/m) @ t=0.8
6.174981082145905
% V (V) @ t=0.8
0.03251814216781348
% es.normE (V/m) @ t=0.82
6.762324399498979
% es.EX (V/m) @ t=0.82
-2.410348367301196
% es.EY (V/m) @ t=0.82
0.7657533740899183
% es.EZ (V/m) @ t=0.82
6.252167336495393
% es.tEX (V/m) @ t=0.82
-2.4103483673012245
% es.tEY (V/m) @ t=0.82
0
% es.tEZ (V/m) @ t=0.82
6.2521673364954005
% es.Ex (V/m) @ t=0.82
-2.410348367301196
% es.Ey (V/m) @ t=0.82
0.7657533740899183
% es.Ez (V/m) @ t=0.82
6.252167336495393
% es.tEx (V/m) @ t=0.82
-2.4103483673012245
% es.tEy (V/m) @ t=0.82
0
% es.tEz (V/m) @ t=0.82
6.2521673364954005
% V (V) @ t=0.82
0.03292445571203826
% es.normE (V/m) @ t=0.84
6.845809049112572
% es.EX (V/m) @ t=0.84
-2.4401059974859827
% es.EY (V/m) @ t=0.84
0.7752092947398905
% es.EZ (V/m) @ t=0.84
6.32935359084488
% es.tEX (V/m) @ t=0.84
-2.4401059974860253
% es.tEY (V/m) @ t=0.84
0
% es.tEZ (V/m) @ t=0.84
6.329353590844885
% es.Ex (V/m) @ t=0.84
-2.4401059974859827
% es.Ey (V/m) @ t=0.84
0.7752092947398905
% es.Ez (V/m) @ t=0.84
6.32935359084488
% es.tEx (V/m) @ t=0.84
-2.4401059974860253
% es.tEy (V/m) @ t=0.84
0
% es.tEz (V/m) @ t=0.84
6.329353590844885
% V (V) @ t=0.84
0.033330769256263035
% es.normE (V/m) @ t=0.86
6.929293698728536
% es.EX (V/m) @ t=0.86
-2.469863627670755
% es.EY (V/m) @ t=0.86
0.7846652153898668
% es.EZ (V/m) @ t=0.86
6.406539845194349
% es.tEX (V/m) @ t=0.86
-2.4698636276707693
% es.tEY (V/m) @ t=0.86
0
% es.tEZ (V/m) @ t=0.86
6.406539845194363
% es.Ex (V/m) @ t=0.86
-2.469863627670755
% es.Ey (V/m) @ t=0.86
0.7846652153898668
% es.Ez (V/m) @ t=0.86
6.406539845194349
% es.tEx (V/m) @ t=0.86
-2.4698636276707693
% es.tEy (V/m) @ t=0.86
0
% es.tEz (V/m) @ t=0.86
6.406539845194363
% V (V) @ t=0.86
0.03373708280048781
% es.normE (V/m) @ t=0.88
7.012778348346831
% es.EX (V/m) @ t=0.88
-2.4996212578555985
% es.EY (V/m) @ t=0.88
0.7941211360397573
% es.EZ (V/m) @ t=0.88
6.483726099543832
% es.tEX (V/m) @ t=0.88
-2.499621257855627
% es.tEY (V/m) @ t=0.88
0
% es.tEZ (V/m) @ t=0.88
6.4837260995438335
% es.Ex (V/m) @ t=0.88
-2.4996212578555985
% es.Ey (V/m) @ t=0.88
0.7941211360397573
% es.Ez (V/m) @ t=0.88
6.483726099543832
% es.tEx (V/m) @ t=0.88
-2.499621257855627
% es.tEy (V/m) @ t=0.88
0
% es.tEz (V/m) @ t=0.88
6.4837260995438335
% V (V) @ t=0.88
0.03414339634471258
% es.normE (V/m) @ t=0.9
7.096262997967289
% es.EX (V/m) @ t=0.9
-2.529378888040342
% es.EY (V/m) @ t=0.9
0.8035770566897185
% es.EZ (V/m) @ t=0.9
6.560912353893277
% es.tEX (V/m) @ t=0.9
-2.5293788880403705
% es.tEY (V/m) @ t=0.9
0
% es.tEZ (V/m) @ t=0.9
6.560912353893283
% es.Ex (V/m) @ t=0.9
-2.529378888040342
% es.Ey (V/m) @ t=0.9
0.8035770566897185
% es.Ez (V/m) @ t=0.9
6.560912353893277
% es.tEx (V/m) @ t=0.9
-2.5293788880403705
% es.tEy (V/m) @ t=0.9
0
% es.tEz (V/m) @ t=0.9
6.560912353893283
% V (V) @ t=0.9
0.034549709888937366
% es.normE (V/m) @ t=0.92
7.179747647589987
% es.EX (V/m) @ t=0.92
-2.5591365182252006
% es.EY (V/m) @ t=0.92
0.8130329773396445
% es.EZ (V/m) @ t=0.92
6.638098608242787
% es.tEX (V/m) @ t=0.92
-2.559136518225229
% es.tEY (V/m) @ t=0.92
0
% es.tEZ (V/m) @ t=0.92
6.638098608242778
% es.Ex (V/m) @ t=0.92
-2.5591365182252006
% es.Ey (V/m) @ t=0.92
0.8130329773396445
% es.Ez (V/m) @ t=0.92
6.638098608242787
% es.tEx (V/m) @ t=0.92
-2.559136518225229
% es.tEy (V/m) @ t=0.92
0
% es.tEz (V/m) @ t=0.92
6.638098608242778
% V (V) @ t=0.92
0.03495602343316214
% es.normE (V/m) @ t=0.94
7.263804875441787
% es.EX (V/m) @ t=0.94
-2.5890980271079775
% es.EY (V/m) @ t=0.94
0.8225528554051849
% es.EZ (V/m) @ t=0.94
6.715814331386763
% es.tEX (V/m) @ t=0.94
-2.589098027108006
% es.tEY (V/m) @ t=0.94
0
% es.tEZ (V/m) @ t=0.94
6.715814331386774
% es.Ex (V/m) @ t=0.94
-2.5890980271079775
% es.Ey (V/m) @ t=0.94
0.8225528554051849
% es.Ez (V/m) @ t=0.94
6.715814331386763
% es.tEx (V/m) @ t=0.94
-2.589098027108006
% es.tEy (V/m) @ t=0.94
0
% es.tEz (V/m) @ t=0.94
6.715814331386774
% V (V) @ t=0.94
0.03536518569678508
% es.normE (V/m) @ t=0.96
7.350054216904486
% es.EX (V/m) @ t=0.96
-2.619840084826043
% es.EY (V/m) @ t=0.96
0.8323175941981074
% es.EZ (V/m) @ t=0.96
6.795557123837714
% es.tEX (V/m) @ t=0.96
-2.619840084826114
% es.tEY (V/m) @ t=0.96
0
% es.tEZ (V/m) @ t=0.96
6.795557123837707
% es.Ex (V/m) @ t=0.96
-2.619840084826043
% es.Ey (V/m) @ t=0.96
0.8323175941981074
% es.Ez (V/m) @ t=0.96
6.795557123837714
% es.tEx (V/m) @ t=0.96
-2.619840084826114
% es.tEy (V/m) @ t=0.96
0
% es.tEz (V/m) @ t=0.96
6.795557123837707
% V (V) @ t=0.96
0.03578525427200924
% es.normE (V/m) @ t=0.98
7.436303558369167
% es.EX (V/m) @ t=0.98
-2.650582142544151
% es.EY (V/m) @ t=0.98
0.8420823329909517
% es.EZ (V/m) @ t=0.98
6.87529991628867
% es.tEX (V/m) @ t=0.98
-2.6505821425441938
% es.tEY (V/m) @ t=0.98
0
% es.tEZ (V/m) @ t=0.98
6.875299916288679
% es.Ex (V/m) @ t=0.98
-2.650582142544151
% es.Ey (V/m) @ t=0.98
0.8420823329909517
% es.Ez (V/m) @ t=0.98
6.87529991628867
% es.tEx (V/m) @ t=0.98
-2.6505821425441938
% es.tEy (V/m) @ t=0.98
0
% es.tEz (V/m) @ t=0.98
6.875299916288679
% V (V) @ t=0.98
0.03620532284723341
% es.normE (V/m) @ t=1
7.522552899835735
% es.EX (V/m) @ t=1
-2.681324200262217
% es.EY (V/m) @ t=1
0.8518470717839186
% es.EZ (V/m) @ t=1
6.955042708739617
% es.tEX (V/m) @ t=1
-2.6813242002622455
% es.tEY (V/m) @ t=1
0
% es.tEZ (V/m) @ t=1
6.955042708739619
% es.Ex (V/m) @ t=1
-2.681324200262217
% es.Ey (V/m) @ t=1
0.8518470717839186
% es.Ez (V/m) @ t=1
6.955042708739617
% es.tEx (V/m) @ t=1
-2.6813242002622455
% es.tEy (V/m) @ t=1
0
% es.tEz (V/m) @ t=1
6.955042708739619
% V (V) @ t=1
0.03662539142245757
% es.normE (V/m) @ t=1.02
7.608802241304088
% es.EX (V/m) @ t=1.02
-2.712066257980226
% es.EY (V/m) @ t=1.02
0.8616118105768313
% es.EZ (V/m) @ t=1.02
7.034785501190541
% es.tEX (V/m) @ t=1.02
-2.712066257980297
% es.tEY (V/m) @ t=1.02
0
% es.tEZ (V/m) @ t=1.02
7.034785501190576
% es.Ex (V/m) @ t=1.02
-2.712066257980226
% es.Ey (V/m) @ t=1.02
0.8616118105768313
% es.Ez (V/m) @ t=1.02
7.034785501190541
% es.tEx (V/m) @ t=1.02
-2.712066257980297
% es.tEy (V/m) @ t=1.02
0
% es.tEz (V/m) @ t=1.02
7.034785501190576
% V (V) @ t=1.02
0.03704545999768173
% es.normE (V/m) @ t=1.04
7.695051582774278
% es.EX (V/m) @ t=1.04
-2.742808315698321
% es.EY (V/m) @ t=1.04
0.8713765493697831
% es.EZ (V/m) @ t=1.04
7.114528293641499
% es.tEX (V/m) @ t=1.04
-2.7428083156983494
% es.tEY (V/m) @ t=1.04
0
% es.tEZ (V/m) @ t=1.04
7.1145282936414915
% es.Ex (V/m) @ t=1.04
-2.742808315698321
% es.Ey (V/m) @ t=1.04
0.8713765493697831
% es.Ez (V/m) @ t=1.04
7.114528293641499
% es.tEx (V/m) @ t=1.04
-2.7428083156983494
% es.tEy (V/m) @ t=1.04
0
% es.tEz (V/m) @ t=1.04
7.1145282936414915
% V (V) @ t=1.04
0.037465528572905894