% Model:              1 neuron.mph
% Version:            COMSOL 6.0.0.405
% Date:               Mar 16 2023, 18:53
% Dimension:          0
% Nodes:              14017
% Expressions:        14017
% Description:        Electric field norm, Electric field, X component, Electric field, Y component, Electric field, Z component, Tangential electric field, X component, Tangential electric field, Y component, Tangential electric field, Z component, Electric field, x component, Electric field, y component, Electric field, z component, Tangential electric field, x component, Tangential electric field, y component, Tangential electric field, z component, Electric potential
% Length unit:        mm
% x
2
% y
12.2
% z
1
% es.normE (V/m) @ t=0
1.1755655111998855
% es.EX (V/m) @ t=0
-0.7591636333745957
% es.EY (V/m) @ t=0
0.168668587093589
% es.EZ (V/m) @ t=0
0.8657979817576562
% es.tEX (V/m) @ t=0
-0.759163633374593
% es.tEY (V/m) @ t=0
0
% es.tEZ (V/m) @ t=0
0.8657979817576607
% es.Ex (V/m) @ t=0
-0.7591636333745957
% es.Ey (V/m) @ t=0
0.168668587093589
% es.Ez (V/m) @ t=0
0.8657979817576562
% es.tEx (V/m) @ t=0
-0.759163633374593
% es.tEy (V/m) @ t=0
0
% es.tEz (V/m) @ t=0
0.8657979817576607
% V (V) @ t=0
0.011377160058836846
% es.normE (V/m) @ t=0.02
1.0209890556894283
% es.EX (V/m) @ t=0.02
-0.6593403378156444
% es.EY (V/m) @ t=0.02
0.14649016343398014
% es.EZ (V/m) @ t=0.02
0.7519532122813901
% es.tEX (V/m) @ t=0.02
-0.6593403378156457
% es.tEY (V/m) @ t=0.02
0
% es.tEZ (V/m) @ t=0.02
0.7519532122813981
% es.Ex (V/m) @ t=0.02
-0.6593403378156444
% es.Ey (V/m) @ t=0.02
0.14649016343398014
% es.Ez (V/m) @ t=0.02
0.7519532122813901
% es.tEx (V/m) @ t=0.02
-0.6593403378156457
% es.tEy (V/m) @ t=0.02
0
% es.tEz (V/m) @ t=0.02
0.7519532122813981
% V (V) @ t=0.02
0.009881164126993877
% es.normE (V/m) @ t=0.04
1.0361294810357298
% es.EX (V/m) @ t=0.04
-0.6691178111972456
% es.EY (V/m) @ t=0.04
0.1486624946550531
% es.EZ (V/m) @ t=0.04
0.7631040562964273
% es.tEX (V/m) @ t=0.04
-0.6691178111972469
% es.tEY (V/m) @ t=0.04
0
% es.tEZ (V/m) @ t=0.04
0.7631040562964246
% es.Ex (V/m) @ t=0.04
-0.6691178111972456
% es.Ey (V/m) @ t=0.04
0.1486624946550531
% es.Ez (V/m) @ t=0.04
0.7631040562964273
% es.tEx (V/m) @ t=0.04
-0.6691178111972469
% es.tEy (V/m) @ t=0.04
0
% es.tEz (V/m) @ t=0.04
0.7631040562964246
% V (V) @ t=0.04
0.010027693458411766
% es.normE (V/m) @ t=0.06
1.051495458475566
% es.EX (V/m) @ t=0.06
-0.6790409432499234
% es.EY (V/m) @ t=0.06
0.15086719380093128
% es.EZ (V/m) @ t=0.06
0.7744210147350348
% es.tEX (V/m) @ t=0.06
-0.6790409432499247
% es.tEY (V/m) @ t=0.06
0
% es.tEZ (V/m) @ t=0.06
0.7744210147350357
% es.Ex (V/m) @ t=0.06
-0.6790409432499234
% es.Ey (V/m) @ t=0.06
0.15086719380093128
% es.Ez (V/m) @ t=0.06
0.7744210147350348
% es.tEx (V/m) @ t=0.06
-0.6790409432499247
% es.tEy (V/m) @ t=0.06
0
% es.tEz (V/m) @ t=0.06
0.7744210147350357
% V (V) @ t=0.06
0.010176405323418344
% es.normE (V/m) @ t=0.08
1.0672572241346885
% es.EX (V/m) @ t=0.08
-0.6892196692335173
% es.EY (V/m) @ t=0.08
0.15312867005372977
% es.EZ (V/m) @ t=0.08
0.7860294751038124
% es.tEX (V/m) @ t=0.08
-0.6892196692335151
% es.tEY (V/m) @ t=0.08
0
% es.tEZ (V/m) @ t=0.08
0.7860294751038239
% es.Ex (V/m) @ t=0.08
-0.6892196692335173
% es.Ey (V/m) @ t=0.08
0.15312867005372977
% es.Ez (V/m) @ t=0.08
0.7860294751038124
% es.tEx (V/m) @ t=0.08
-0.6892196692335151
% es.tEy (V/m) @ t=0.08
0
% es.tEz (V/m) @ t=0.08
0.7860294751038239
% V (V) @ t=0.08
0.010328948253643217
% es.normE (V/m) @ t=0.1
1.0832874465181201
% es.EX (V/m) @ t=0.1
-0.6995717604313727
% es.EY (V/m) @ t=0.1
0.15542865729648114
% es.EZ (V/m) @ t=0.1
0.7978356564998874
% es.tEX (V/m) @ t=0.1
-0.699571760431374
% es.tEY (V/m) @ t=0.1
0
% es.tEZ (V/m) @ t=0.1
0.7978356564998839
% es.Ex (V/m) @ t=0.1
-0.6995717604313727
% es.Ey (V/m) @ t=0.1
0.15542865729648114
% es.Ez (V/m) @ t=0.1
0.7978356564998874
% es.tEx (V/m) @ t=0.1
-0.699571760431374
% es.tEy (V/m) @ t=0.1
0
% es.tEz (V/m) @ t=0.1
0.7978356564998839
% V (V) @ t=0.1
0.01048408973321579
% es.normE (V/m) @ t=0.12
1.099317668901537
% es.EX (V/m) @ t=0.12
-0.7099238516292323
% es.EY (V/m) @ t=0.12
0.15772864453923086
% es.EZ (V/m) @ t=0.12
0.8096418378959438
% es.tEX (V/m) @ t=0.12
-0.7099238516292299
% es.tEY (V/m) @ t=0.12
0
% es.tEZ (V/m) @ t=0.12
0.8096418378959447
% es.Ex (V/m) @ t=0.12
-0.7099238516292323
% es.Ey (V/m) @ t=0.12
0.15772864453923086
% es.Ez (V/m) @ t=0.12
0.8096418378959438
% es.tEx (V/m) @ t=0.12
-0.7099238516292299
% es.tEy (V/m) @ t=0.12
0
% es.tEz (V/m) @ t=0.12
0.8096418378959447
% V (V) @ t=0.12
0.010639231212788362
% es.normE (V/m) @ t=0.14
1.1156374080519766
% es.EX (V/m) @ t=0.14
-0.7204629130856031
% es.EY (V/m) @ t=0.14
0.16007025352901327
% es.EZ (V/m) @ t=0.14
0.8216611981857191
% es.tEX (V/m) @ t=0.14
-0.7204629130856006
% es.tEY (V/m) @ t=0.14
0
% es.tEZ (V/m) @ t=0.14
0.8216611981857165
% es.Ex (V/m) @ t=0.14
-0.7204629130856031
% es.Ey (V/m) @ t=0.14
0.16007025352901327
% es.Ez (V/m) @ t=0.14
0.8216611981857191
% es.tEx (V/m) @ t=0.14
-0.7204629130856006
% es.tEy (V/m) @ t=0.14
0
% es.tEz (V/m) @ t=0.14
0.8216611981857165
% V (V) @ t=0.14
0.010797169615328466
% es.normE (V/m) @ t=0.16
1.1331034580159765
% es.EX (V/m) @ t=0.16
-0.7317422633731856
% es.EY (V/m) @ t=0.16
0.16257665939466537
% es.EZ (V/m) @ t=0.16
0.8345246176072472
% es.tEX (V/m) @ t=0.16
-0.7317422633731832
% es.tEY (V/m) @ t=0.16
0
% es.tEZ (V/m) @ t=0.16
0.8345246176072472
% es.Ex (V/m) @ t=0.16
-0.7317422633731856
% es.Ey (V/m) @ t=0.16
0.16257665939466537
% es.Ez (V/m) @ t=0.16
0.8345246176072472
% es.tEx (V/m) @ t=0.16
-0.7317422633731832
% es.tEy (V/m) @ t=0.16
0
% es.tEz (V/m) @ t=0.16
0.8345246176072472
% V (V) @ t=0.16
0.010966182136560356
% es.normE (V/m) @ t=0.18
1.1505695079806109
% es.EX (V/m) @ t=0.18
-0.7430216136607637
% es.EY (V/m) @ t=0.18
0.16508306526034244
% es.EZ (V/m) @ t=0.18
0.8473880370287779
% es.tEX (V/m) @ t=0.18
-0.7430216136607648
% es.tEY (V/m) @ t=0.18
0
% es.tEZ (V/m) @ t=0.18
0.847388037028793
% es.Ex (V/m) @ t=0.18
-0.7430216136607637
% es.Ey (V/m) @ t=0.18
0.16508306526034244
% es.Ez (V/m) @ t=0.18
0.8473880370287779
% es.tEx (V/m) @ t=0.18
-0.7430216136607648
% es.tEy (V/m) @ t=0.18
0
% es.tEz (V/m) @ t=0.18
0.847388037028793
% V (V) @ t=0.18
0.011135194657792249
% es.normE (V/m) @ t=0.2
1.1680355579458346
% es.EX (V/m) @ t=0.2
-0.7543009639483569
% es.EY (V/m) @ t=0.2
0.1675894711259982
% es.EZ (V/m) @ t=0.2
0.8602514564502943
% es.tEX (V/m) @ t=0.2
-0.7543009639483544
% es.tEY (V/m) @ t=0.2
0
% es.tEZ (V/m) @ t=0.2
0.8602514564503094
% es.Ex (V/m) @ t=0.2
-0.7543009639483569
% es.Ey (V/m) @ t=0.2
0.1675894711259982
% es.Ez (V/m) @ t=0.2
0.8602514564502943
% es.tEx (V/m) @ t=0.2
-0.7543009639483544
% es.tEy (V/m) @ t=0.2
0
% es.tEz (V/m) @ t=0.2
0.8602514564503094
% V (V) @ t=0.2
0.011304207179024141
% es.normE (V/m) @ t=0.22
1.1855016079116463
% es.EX (V/m) @ t=0.22
-0.7655803142359394
% es.EY (V/m) @ t=0.22
0.1700958769916523
% es.EZ (V/m) @ t=0.22
0.8731148758718392
% es.tEX (V/m) @ t=0.22
-0.7655803142359405
% es.tEY (V/m) @ t=0.22
0
% es.tEZ (V/m) @ t=0.22
0.8731148758718543
% es.Ex (V/m) @ t=0.22
-0.7655803142359394
% es.Ey (V/m) @ t=0.22
0.1700958769916523
% es.Ez (V/m) @ t=0.22
0.8731148758718392
% es.tEx (V/m) @ t=0.22
-0.7655803142359405
% es.tEy (V/m) @ t=0.22
0
% es.tEz (V/m) @ t=0.22
0.8731148758718543
% V (V) @ t=0.22
0.011473219700256032
% es.normE (V/m) @ t=0.24
1.2029676578780015
% es.EX (V/m) @ t=0.24
-0.776859664523532
% es.EY (V/m) @ t=0.24
0.17260228285731505
% es.EZ (V/m) @ t=0.24
0.8859782952933699
% es.tEX (V/m) @ t=0.24
-0.7768596645235293
% es.tEY (V/m) @ t=0.24
0
% es.tEZ (V/m) @ t=0.24
0.8859782952933779
% es.Ex (V/m) @ t=0.24
-0.776859664523532
% es.Ey (V/m) @ t=0.24
0.17260228285731505
% es.Ez (V/m) @ t=0.24
0.8859782952933699
% es.tEx (V/m) @ t=0.24
-0.7768596645235293
% es.tEy (V/m) @ t=0.24
0
% es.tEz (V/m) @ t=0.24
0.8859782952933779
% V (V) @ t=0.24
0.01164223222148793
% es.normE (V/m) @ t=0.26
1.2204337078448624
% es.EX (V/m) @ t=0.26
-0.7881390148111178
% es.EY (V/m) @ t=0.26
0.17510868872296736
% es.EZ (V/m) @ t=0.26
0.8988417147148864
% es.tEX (V/m) @ t=0.26
-0.7881390148111151
% es.tEY (V/m) @ t=0.26
0
% es.tEZ (V/m) @ t=0.26
0.8988417147149015
% es.Ex (V/m) @ t=0.26
-0.7881390148111178
% es.Ey (V/m) @ t=0.26
0.17510868872296736
% es.Ez (V/m) @ t=0.26
0.8988417147148864
% es.tEx (V/m) @ t=0.26
-0.7881390148111151
% es.tEy (V/m) @ t=0.26
0
% es.tEz (V/m) @ t=0.26
0.8988417147149015
% V (V) @ t=0.26
0.011811244742719818
% es.normE (V/m) @ t=0.28
1.238548253074335
% es.EX (V/m) @ t=0.28
-0.7998371069978676
% es.EY (V/m) @ t=0.28
0.17770726291073047
% es.EZ (V/m) @ t=0.28
0.9121832672159229
% es.tEX (V/m) @ t=0.28
-0.7998371069978649
% es.tEY (V/m) @ t=0.28
0
% es.tEZ (V/m) @ t=0.28
0.9121832672159345
% es.Ex (V/m) @ t=0.28
-0.7998371069978676
% es.Ey (V/m) @ t=0.28
0.17770726291073047
% es.Ez (V/m) @ t=0.28
0.9121832672159229
% es.tEx (V/m) @ t=0.28
-0.7998371069978649
% es.tEy (V/m) @ t=0.28
0
% es.tEz (V/m) @ t=0.28
0.9121832672159345
% V (V) @ t=0.28
0.011986587026386773
% es.normE (V/m) @ t=0.3
1.2575836769733832
% es.EX (V/m) @ t=0.3
-0.8121298226185196
% es.EY (V/m) @ t=0.3
0.1804367183030774
% es.EZ (V/m) @ t=0.3
0.9262037800362855
% es.tEX (V/m) @ t=0.3
-0.8121298226185165
% es.tEY (V/m) @ t=0.3
0
% es.tEZ (V/m) @ t=0.3
0.9262037800363006
% es.Ex (V/m) @ t=0.3
-0.8121298226185196
% es.Ey (V/m) @ t=0.3
0.1804367183030774
% es.Ez (V/m) @ t=0.3
0.9262037800362855
% es.tEx (V/m) @ t=0.3
-0.8121298226185165
% es.tEy (V/m) @ t=0.3
0
% es.tEz (V/m) @ t=0.3
0.9262037800363006
% V (V) @ t=0.3
0.01217091772292157
% es.normE (V/m) @ t=0.32
1.2766191008833492
% es.EX (V/m) @ t=0.32
-0.824422538239169
% es.EY (V/m) @ t=0.32
0.18316617369541188
% es.EZ (V/m) @ t=0.32
0.9402242928566684
% es.tEX (V/m) @ t=0.32
-0.8244225382391659
% es.tEY (V/m) @ t=0.32
0
% es.tEZ (V/m) @ t=0.32
0.9402242928566729
% es.Ex (V/m) @ t=0.32
-0.824422538239169
% es.Ey (V/m) @ t=0.32
0.18316617369541188
% es.Ez (V/m) @ t=0.32
0.9402242928566684
% es.tEx (V/m) @ t=0.32
-0.8244225382391659
% es.tEy (V/m) @ t=0.32
0
% es.tEz (V/m) @ t=0.32
0.9402242928566729
% V (V) @ t=0.32
0.012355248419456365
% es.normE (V/m) @ t=0.34
1.295654524803727
% es.EX (V/m) @ t=0.34
-0.8367152538598215
% es.EY (V/m) @ t=0.34
0.18589562908775714
% es.EZ (V/m) @ t=0.34
0.954244805677031
% es.tEX (V/m) @ t=0.34
-0.8367152538598148
% es.tEY (V/m) @ t=0.34
0
% es.tEZ (V/m) @ t=0.34
0.954244805677039
% es.Ex (V/m) @ t=0.34
-0.8367152538598215
% es.Ey (V/m) @ t=0.34
0.18589562908775714
% es.Ez (V/m) @ t=0.34
0.954244805677031
% es.tEx (V/m) @ t=0.34
-0.8367152538598148
% es.tEy (V/m) @ t=0.34
0
% es.tEz (V/m) @ t=0.34
0.954244805677039
% V (V) @ t=0.34
0.01253957911599116
% es.normE (V/m) @ t=0.36
1.3146899487340757
% es.EX (V/m) @ t=0.36
-0.8490079694804633
% es.EY (V/m) @ t=0.36
0.18862508448008986
% es.EZ (V/m) @ t=0.36
0.9682653184974077
% es.tEX (V/m) @ t=0.36
-0.8490079694804638
% es.tEY (V/m) @ t=0.36
0
% es.tEZ (V/m) @ t=0.36
0.9682653184974193
% es.Ex (V/m) @ t=0.36
-0.8490079694804633
% es.Ey (V/m) @ t=0.36
0.18862508448008986
% es.Ez (V/m) @ t=0.36
0.9682653184974077
% es.tEx (V/m) @ t=0.36
-0.8490079694804638
% es.tEy (V/m) @ t=0.36
0
% es.tEz (V/m) @ t=0.36
0.9682653184974193
% V (V) @ t=0.36
0.012723909812525953
% es.normE (V/m) @ t=0.38
1.3337253726739737
% es.EX (V/m) @ t=0.38
-0.8613006851011118
% es.EY (V/m) @ t=0.38
0.19135453987244389
% es.EZ (V/m) @ t=0.38
0.9822858313177836
% es.tEX (V/m) @ t=0.38
-0.8613006851011091
% es.tEY (V/m) @ t=0.38
0
% es.tEZ (V/m) @ t=0.38
0.9822858313177774
% es.Ex (V/m) @ t=0.38
-0.8613006851011118
% es.Ey (V/m) @ t=0.38
0.19135453987244389
% es.Ez (V/m) @ t=0.38
0.9822858313177836
% es.tEx (V/m) @ t=0.38
-0.8613006851011091
% es.tEy (V/m) @ t=0.38
0
% es.tEz (V/m) @ t=0.38
0.9822858313177774
% V (V) @ t=0.38
0.012908240509060748
% es.normE (V/m) @ t=0.4
1.352760796623003
% es.EX (V/m) @ t=0.4
-0.8735934007217647
% es.EY (V/m) @ t=0.4
0.19408399526479614
% es.EZ (V/m) @ t=0.4
0.9963063441381435
% es.tEX (V/m) @ t=0.4
-0.8735934007217612
% es.tEY (V/m) @ t=0.4
0
% es.tEZ (V/m) @ t=0.4
0.9963063441381657
% es.Ex (V/m) @ t=0.4
-0.8735934007217647
% es.Ey (V/m) @ t=0.4
0.19408399526479614
% es.Ez (V/m) @ t=0.4
0.9963063441381435
% es.tEx (V/m) @ t=0.4
-0.8735934007217612
% es.tEy (V/m) @ t=0.4
0
% es.tEz (V/m) @ t=0.4
0.9963063441381657
% V (V) @ t=0.4
0.013092571205595547
% es.normE (V/m) @ t=0.42
1.3728311897258285
% es.EX (V/m) @ t=0.42
-0.8865545448461924
% es.EY (V/m) @ t=0.42
0.19696305913185042
% es.EZ (V/m) @ t=0.42
1.0110884470887251
% es.tEX (V/m) @ t=0.42
-0.8865545448461898
% es.tEY (V/m) @ t=0.42
0
% es.tEZ (V/m) @ t=0.42
1.0110884470887331
% es.Ex (V/m) @ t=0.42
-0.8865545448461924
% es.Ey (V/m) @ t=0.42
0.19696305913185042
% es.Ez (V/m) @ t=0.42
1.0110884470887251
% es.tEx (V/m) @ t=0.42
-0.8865545448461898
% es.tEy (V/m) @ t=0.42
0
% es.tEz (V/m) @ t=0.42
1.0110884470887331
% V (V) @ t=0.42
0.013286850372724252
% es.normE (V/m) @ t=0.44
1.3935230927505318
% es.EX (V/m) @ t=0.44
-0.8999170873582143
% es.EY (V/m) @ t=0.44
0.19993196447063943
% es.EZ (V/m) @ t=0.44
1.026327892969082
% es.tEX (V/m) @ t=0.44
-0.8999170873582152
% es.tEY (V/m) @ t=0.44
0
% es.tEZ (V/m) @ t=0.44
1.026327892969097
% es.Ex (V/m) @ t=0.44
-0.8999170873582143
% es.Ey (V/m) @ t=0.44
0.19993196447063943
% es.Ez (V/m) @ t=0.44
1.026327892969082
% es.tEx (V/m) @ t=0.44
-0.8999170873582152
% es.tEy (V/m) @ t=0.44
0
% es.tEz (V/m) @ t=0.44
1.026327892969097
% V (V) @ t=0.44
0.01348710370168631
% es.normE (V/m) @ t=0.46
1.4142149957753676
% es.EX (V/m) @ t=0.46
-0.9132796298702428
% es.EY (V/m) @ t=0.46
0.20290086980940358
% es.EZ (V/m) @ t=0.46
1.0415673388494522
% es.tEX (V/m) @ t=0.46
-0.9132796298702472
% es.tEY (V/m) @ t=0.46
0
% es.tEZ (V/m) @ t=0.46
1.041567338849453
% es.Ex (V/m) @ t=0.46
-0.9132796298702428
% es.Ey (V/m) @ t=0.46
0.20290086980940358
% es.Ez (V/m) @ t=0.46
1.0415673388494522
% es.tEx (V/m) @ t=0.46
-0.9132796298702472
% es.tEy (V/m) @ t=0.46
0
% es.tEz (V/m) @ t=0.46
1.041567338849453
% V (V) @ t=0.46
0.013687357030648365
% es.normE (V/m) @ t=0.48
1.4349068988003246
% es.EX (V/m) @ t=0.48
-0.9266421723822749
% es.EY (V/m) @ t=0.48
0.20586977514818006
% es.EZ (V/m) @ t=0.48
1.0568067847298241
% es.tEX (V/m) @ t=0.48
-0.9266421723822749
% es.tEY (V/m) @ t=0.48
0
% es.tEZ (V/m) @ t=0.48
1.0568067847298392
% es.Ex (V/m) @ t=0.48
-0.9266421723822749
% es.Ey (V/m) @ t=0.48
0.20586977514818006
% es.Ez (V/m) @ t=0.48
1.0568067847298241
% es.tEx (V/m) @ t=0.48
-0.9266421723822749
% es.tEy (V/m) @ t=0.48
0
% es.tEz (V/m) @ t=0.48
1.0568067847298392
% V (V) @ t=0.48
0.013887610359610423
% es.normE (V/m) @ t=0.5
1.4555988018253851
% es.EX (V/m) @ t=0.5
-0.9400047148943074
% es.EY (V/m) @ t=0.5
0.20883868048695664
% es.EZ (V/m) @ t=0.5
1.0720462306101917
% es.tEX (V/m) @ t=0.5
-0.9400047148943078
% es.tEY (V/m) @ t=0.5
0
% es.tEZ (V/m) @ t=0.5
1.0720462306102032
% es.Ex (V/m) @ t=0.5
-0.9400047148943074
% es.Ey (V/m) @ t=0.5
0.20883868048695664
% es.Ez (V/m) @ t=0.5
1.0720462306101917
% es.tEx (V/m) @ t=0.5
-0.9400047148943078
% es.tEy (V/m) @ t=0.5
0
% es.tEz (V/m) @ t=0.5
1.0720462306102032
% V (V) @ t=0.5
0.014087863688572481
% es.normE (V/m) @ t=0.52
1.4762907048505483
% es.EX (V/m) @ t=0.52
-0.9533672574063292
% es.EY (V/m) @ t=0.52
0.2118075858257351
% es.EZ (V/m) @ t=0.52
1.087285676490561
% es.tEX (V/m) @ t=0.52
-0.9533672574063292
% es.tEY (V/m) @ t=0.52
0
% es.tEZ (V/m) @ t=0.52
1.0872856764905867
% es.Ex (V/m) @ t=0.52
-0.9533672574063292
% es.Ey (V/m) @ t=0.52
0.2118075858257351
% es.Ez (V/m) @ t=0.52
1.087285676490561
% es.tEx (V/m) @ t=0.52
-0.9533672574063292
% es.tEy (V/m) @ t=0.52
0
% es.tEz (V/m) @ t=0.52
1.0872856764905867
% V (V) @ t=0.52
0.014288117017534536
% es.normE (V/m) @ t=0.54
1.496982607875823
% es.EX (V/m) @ t=0.54
-0.9667297999183648
% es.EY (V/m) @ t=0.54
0.2147764911645027
% es.EZ (V/m) @ t=0.54
1.10252512237094
% es.tEX (V/m) @ t=0.54
-0.9667297999183613
% es.tEY (V/m) @ t=0.54
0
% es.tEZ (V/m) @ t=0.54
1.1025251223709516
% es.Ex (V/m) @ t=0.54
-0.9667297999183648
% es.Ey (V/m) @ t=0.54
0.2147764911645027
% es.Ez (V/m) @ t=0.54
1.10252512237094
% es.tEx (V/m) @ t=0.54
-0.9667297999183613
% es.tEy (V/m) @ t=0.54
0
% es.tEz (V/m) @ t=0.54
1.1025251223709516
% V (V) @ t=0.54
0.014488370346496594
% es.normE (V/m) @ t=0.56
1.5183356236477974
% es.EX (V/m) @ t=0.56
-0.9805192922965786
% es.EY (V/m) @ t=0.56
0.21784048635405373
% es.EZ (V/m) @ t=0.56
1.1182513356474635
% es.tEX (V/m) @ t=0.56
-0.9805192922965755
% es.tEY (V/m) @ t=0.56
0
% es.tEZ (V/m) @ t=0.56
1.118251335647475
% es.Ex (V/m) @ t=0.56
-0.9805192922965786
% es.Ey (V/m) @ t=0.56
0.21784048635405373
% es.Ez (V/m) @ t=0.56
1.1182513356474635
% es.tEx (V/m) @ t=0.56
-0.9805192922965755
% es.tEy (V/m) @ t=0.56
0
% es.tEz (V/m) @ t=0.56
1.118251335647475
% V (V) @ t=0.56
0.014695007621419273
% es.normE (V/m) @ t=0.58
1.54000834306681
% es.EX (V/m) @ t=0.58
-0.9945152508633721
% es.EY (V/m) @ t=0.58
0.22095046548835406
% es.EZ (V/m) @ t=0.58
1.1342129419220264
% es.tEX (V/m) @ t=0.58
-0.994515250863369
% es.tEY (V/m) @ t=0.58
0
% es.tEZ (V/m) @ t=0.58
1.1342129419220344
% es.Ex (V/m) @ t=0.58
-0.9945152508633721
% es.Ey (V/m) @ t=0.58
0.22095046548835406
% es.Ez (V/m) @ t=0.58
1.1342129419220264
% es.tEx (V/m) @ t=0.58
-0.994515250863369
% es.tEy (V/m) @ t=0.58
0
% es.tEz (V/m) @ t=0.58
1.1342129419220344
% V (V) @ t=0.58
0.014904732071429817
% es.normE (V/m) @ t=0.6
1.561888397323772
% es.EX (V/m) @ t=0.6
-1.008645107288451
% es.EY (V/m) @ t=0.6
0.22409026622084371
% es.EZ (V/m) @ t=0.6
1.1503272057262093
% es.tEX (V/m) @ t=0.6
-1.0086451072884515
% es.tEY (V/m) @ t=0.6
0
% es.tEZ (V/m) @ t=0.6
1.1503272057262173
% es.Ex (V/m) @ t=0.6
-1.008645107288451
% es.Ey (V/m) @ t=0.6
0.22409026622084371
% es.Ez (V/m) @ t=0.6
1.1503272057262093
% es.tEx (V/m) @ t=0.6
-1.0086451072884515
% es.tEy (V/m) @ t=0.6
0
% es.tEz (V/m) @ t=0.6
1.1503272057262173
% V (V) @ t=0.6
0.015116458622294065
% es.normE (V/m) @ t=0.62
1.58397578641904
% es.EX (V/m) @ t=0.62
-1.022908861571834
% es.EY (V/m) @ t=0.62
0.22725988855155643
% es.EZ (V/m) @ t=0.62
1.16659412705999
% es.tEX (V/m) @ t=0.62
-1.0229088615718376
% es.tEY (V/m) @ t=0.62
0
% es.tEZ (V/m) @ t=0.62
1.1665941270600015
% es.Ex (V/m) @ t=0.62
-1.022908861571834
% es.Ey (V/m) @ t=0.62
0.22725988855155643
% es.Ez (V/m) @ t=0.62
1.16659412705999
% es.tEx (V/m) @ t=0.62
-1.0229088615718376
% es.tEy (V/m) @ t=0.62
0
% es.tEz (V/m) @ t=0.62
1.1665941270600015
% V (V) @ t=0.62
0.015330187274012022
% es.normE (V/m) @ t=0.64
1.6062705103529549
% es.EX (V/m) @ t=0.64
-1.0373065137135038
% es.EY (V/m) @ t=0.64
0.2304593324804446
% es.EZ (V/m) @ t=0.64
1.183013705923349
% es.tEX (V/m) @ t=0.64
-1.0373065137135002
% es.tEY (V/m) @ t=0.64
0
% es.tEZ (V/m) @ t=0.64
1.183013705923364
% es.Ex (V/m) @ t=0.64
-1.0373065137135038
% es.Ey (V/m) @ t=0.64
0.2304593324804446
% es.Ez (V/m) @ t=0.64
1.183013705923349
% es.tEx (V/m) @ t=0.64
-1.0373065137135002
% es.tEy (V/m) @ t=0.64
0
% es.tEz (V/m) @ t=0.64
1.183013705923364
% V (V) @ t=0.64
0.015545918026583682
% es.normE (V/m) @ t=0.66
1.628772569125938
% es.EX (V/m) @ t=0.66
-1.051838063713466
% es.EY (V/m) @ t=0.66
0.2336885980075698
% es.EZ (V/m) @ t=0.66
1.1995859423163076
% es.tEX (V/m) @ t=0.66
-1.0518380637134626
% es.tEY (V/m) @ t=0.66
0
% es.tEZ (V/m) @ t=0.66
1.1995859423163155
% es.Ex (V/m) @ t=0.66
-1.051838063713466
% es.Ey (V/m) @ t=0.66
0.2336885980075698
% es.Ez (V/m) @ t=0.66
1.1995859423163076
% es.tEx (V/m) @ t=0.66
-1.0518380637134626
% es.tEy (V/m) @ t=0.66
0
% es.tEz (V/m) @ t=0.66
1.1995859423163155
% V (V) @ t=0.66
0.015763650880009045
% es.normE (V/m) @ t=0.68
1.651481962738396
% es.EX (V/m) @ t=0.68
-1.0665035115717107
% es.EY (V/m) @ t=0.68
0.23694768513286135
% es.EZ (V/m) @ t=0.68
1.2163108362388604
% es.tEX (V/m) @ t=0.68
-1.0665035115717072
% es.tEY (V/m) @ t=0.68
0
% es.tEZ (V/m) @ t=0.68
1.2163108362388684
% es.Ex (V/m) @ t=0.68
-1.0665035115717107
% es.Ey (V/m) @ t=0.68
0.23694768513286135
% es.Ez (V/m) @ t=0.68
1.2163108362388604
% es.tEx (V/m) @ t=0.68
-1.0665035115717072
% es.tEy (V/m) @ t=0.68
0
% es.tEz (V/m) @ t=0.68
1.2163108362388684
% V (V) @ t=0.68
0.015983385834288114
% es.normE (V/m) @ t=0.7
1.6743986911907844
% es.EX (V/m) @ t=0.7
-1.0813028572882426
% es.EY (V/m) @ t=0.7
0.24023659385638696
% es.EZ (V/m) @ t=0.7
1.2331883876910066
% es.tEX (V/m) @ t=0.7
-1.0813028572882426
% es.tEY (V/m) @ t=0.7
0
% es.tEZ (V/m) @ t=0.7
1.2331883876910066
% es.Ex (V/m) @ t=0.7
-1.0813028572882426
% es.Ey (V/m) @ t=0.7
0.24023659385638696
% es.Ez (V/m) @ t=0.7
1.2331883876910066
% es.tEx (V/m) @ t=0.7
-1.0813028572882426
% es.tEy (V/m) @ t=0.7
0
% es.tEz (V/m) @ t=0.7
1.2331883876910066
% V (V) @ t=0.7
0.016205122889420883
% es.normE (V/m) @ t=0.72
1.6975227544835452
% es.EX (V/m) @ t=0.72
-1.0962361008630772
% es.EY (V/m) @ t=0.72
0.24355532417808556
% es.EZ (V/m) @ t=0.72
1.2502185966727275
% es.tEX (V/m) @ t=0.72
-1.0962361008630768
% es.tEY (V/m) @ t=0.72
0
% es.tEZ (V/m) @ t=0.72
1.2502185966727488
% es.Ex (V/m) @ t=0.72
-1.0962361008630772
% es.Ey (V/m) @ t=0.72
0.24355532417808556
% es.Ez (V/m) @ t=0.72
1.2502185966727275
% es.tEx (V/m) @ t=0.72
-1.0962361008630768
% es.tEy (V/m) @ t=0.72
0
% es.tEz (V/m) @ t=0.72
1.2502185966727488
% V (V) @ t=0.72
0.01642886204540736
% es.normE (V/m) @ t=0.74
1.7208541526172036
% es.EX (V/m) @ t=0.74
-1.1113032422961981
% es.EY (V/m) @ t=0.74
0.2469038760980128
% es.EZ (V/m) @ t=0.74
1.2674014631840755
% es.tEX (V/m) @ t=0.74
-1.1113032422961981
% es.tEY (V/m) @ t=0.74
0
% es.tEZ (V/m) @ t=0.74
1.2674014631840844
% es.Ex (V/m) @ t=0.74
-1.1113032422961981
% es.Ey (V/m) @ t=0.74
0.2469038760980128
% es.Ez (V/m) @ t=0.74
1.2674014631840755
% es.tEx (V/m) @ t=0.74
-1.1113032422961981
% es.tEy (V/m) @ t=0.74
0
% es.tEz (V/m) @ t=0.74
1.2674014631840844
% V (V) @ t=0.74
0.016654603302247543
% es.normE (V/m) @ t=0.76
1.7443928855922337
% es.EX (V/m) @ t=0.76
-1.1265042815876156
% es.EY (V/m) @ t=0.76
0.25028224961614354
% es.EZ (V/m) @ t=0.76
1.2847369872250205
% es.tEX (V/m) @ t=0.76
-1.1265042815876187
% es.tEY (V/m) @ t=0.76
0
% es.tEZ (V/m) @ t=0.76
1.284736987225008
% es.Ex (V/m) @ t=0.76
-1.1265042815876156
% es.Ey (V/m) @ t=0.76
0.25028224961614354
% es.Ez (V/m) @ t=0.76
1.2847369872250205
% es.tEx (V/m) @ t=0.76
-1.1265042815876187
% es.tEy (V/m) @ t=0.76
0
% es.tEz (V/m) @ t=0.76
1.284736987225008
% V (V) @ t=0.76
0.016882346659941427
% es.normE (V/m) @ t=0.78
1.7681389534091023
% es.EX (V/m) @ t=0.78
-1.1418392187373128
% es.EY (V/m) @ t=0.78
0.25369044473245317
% es.EZ (V/m) @ t=0.78
1.3022251687955304
% es.tEX (V/m) @ t=0.78
-1.1418392187373088
% es.tEY (V/m) @ t=0.78
0
% es.tEZ (V/m) @ t=0.78
1.3022251687955375
% es.Ex (V/m) @ t=0.78
-1.1418392187373128
% es.Ey (V/m) @ t=0.78
0.25369044473245317
% es.Ez (V/m) @ t=0.78
1.3022251687955304
% es.tEx (V/m) @ t=0.78
-1.1418392187373088
% es.tEy (V/m) @ t=0.78
0
% es.tEz (V/m) @ t=0.78
1.3022251687955375
% V (V) @ t=0.78
0.017112092118489016
% es.normE (V/m) @ t=0.8
1.7920923560683817
% es.EX (V/m) @ t=0.8
-1.15730805374529
% es.EY (V/m) @ t=0.8
0.257128461446982
% es.EZ (V/m) @ t=0.8
1.3198660078956532
% es.tEX (V/m) @ t=0.8
-1.157308053745286
% es.tEY (V/m) @ t=0.8
0
% es.tEZ (V/m) @ t=0.8
1.3198660078956586
% es.Ex (V/m) @ t=0.8
-1.15730805374529
% es.Ey (V/m) @ t=0.8
0.257128461446982
% es.Ez (V/m) @ t=0.8
1.3198660078956532
% es.tEx (V/m) @ t=0.8
-1.157308053745286
% es.tEy (V/m) @ t=0.8
0
% es.tEz (V/m) @ t=0.8
1.3198660078956586
% V (V) @ t=0.8
0.017343839677890313
% es.normE (V/m) @ t=0.82
1.8163609567122796
% es.EX (V/m) @ t=0.82
-1.1729804281327127
% es.EY (V/m) @ t=0.82
0.2606114971333956
% es.EZ (V/m) @ t=0.82
1.3377391102838878
% es.tEX (V/m) @ t=0.82
-1.1729804281327088
% es.tEY (V/m) @ t=0.82
0
% es.tEZ (V/m) @ t=0.82
1.3377391102838914
% es.Ex (V/m) @ t=0.82
-1.1729804281327127
% es.Ey (V/m) @ t=0.82
0.2606114971333956
% es.Ez (V/m) @ t=0.82
1.3377391102838878
% es.tEx (V/m) @ t=0.82
-1.1729804281327088
% es.tEy (V/m) @ t=0.82
0
% es.tEz (V/m) @ t=0.82
1.3377391102838914
% V (V) @ t=0.82
0.017578650279193652
% es.normE (V/m) @ t=0.84
1.8411824455304837
% es.EX (V/m) @ t=0.84
-1.189009805874878
% es.EY (V/m) @ t=0.84
0.26417304114315887
% es.EZ (V/m) @ t=0.84
1.3560198974038045
% es.tEX (V/m) @ t=0.84
-1.1890098058748668
% es.tEY (V/m) @ t=0.84
0
% es.tEZ (V/m) @ t=0.84
1.3560198974038116
% es.Ex (V/m) @ t=0.84
-1.189009805874878
% es.Ey (V/m) @ t=0.84
0.26417304114315887
% es.Ez (V/m) @ t=0.84
1.3560198974038045
% es.tEx (V/m) @ t=0.84
-1.1890098058748668
% es.tEy (V/m) @ t=0.84
0
% es.tEz (V/m) @ t=0.84
1.3560198974038116
% V (V) @ t=0.84
0.01781886184133294
% es.normE (V/m) @ t=0.86
1.8662713405521028
% es.EX (V/m) @ t=0.86
-1.20521186637544
% es.EY (V/m) @ t=0.86
0.2677728705039686
% es.EZ (V/m) @ t=0.86
1.3744976762571266
% es.tEX (V/m) @ t=0.86
-1.205211866375429
% es.tEY (V/m) @ t=0.86
0
% es.tEZ (V/m) @ t=0.86
1.374497676257164
% es.Ex (V/m) @ t=0.86
-1.20521186637544
% es.Ey (V/m) @ t=0.86
0.2677728705039686
% es.Ez (V/m) @ t=0.86
1.3744976762571266
% es.tEx (V/m) @ t=0.86
-1.205211866375429
% es.tEy (V/m) @ t=0.86
0
% es.tEz (V/m) @ t=0.86
1.374497676257164
% V (V) @ t=0.86
0.018061666365811205
% es.normE (V/m) @ t=0.88
1.8916276417772278
% es.EX (V/m) @ t=0.88
-1.221586609634468
% es.EY (V/m) @ t=0.88
0.27141098521576734
% es.EZ (V/m) @ t=0.88
1.393172446843984
% es.tEX (V/m) @ t=0.88
-1.2215866096344636
% es.tEY (V/m) @ t=0.88
0
% es.tEZ (V/m) @ t=0.88
1.3931724468439928
% es.Ex (V/m) @ t=0.88
-1.221586609634468
% es.Ey (V/m) @ t=0.88
0.27141098521576734
% es.Ez (V/m) @ t=0.88
1.393172446843984
% es.tEx (V/m) @ t=0.88
-1.2215866096344636
% es.tEy (V/m) @ t=0.88
0
% es.tEz (V/m) @ t=0.88
1.3931724468439928
% V (V) @ t=0.88
0.018307063852628463
% es.normE (V/m) @ t=0.9
1.9172513492057561
% es.EX (V/m) @ t=0.9
-1.2381340356519024
% es.EY (V/m) @ t=0.9
0.27508738527861465
% es.EZ (V/m) @ t=0.9
1.4120442091642698
% es.tEX (V/m) @ t=0.9
-1.2381340356518908
% es.tEY (V/m) @ t=0.9
0
% es.tEZ (V/m) @ t=0.9
1.412044209164291
% es.Ex (V/m) @ t=0.9
-1.2381340356519024
% es.Ey (V/m) @ t=0.9
0.27508738527861465
% es.Ez (V/m) @ t=0.9
1.4120442091642698
% es.tEx (V/m) @ t=0.9
-1.2381340356518908
% es.tEy (V/m) @ t=0.9
0
% es.tEz (V/m) @ t=0.9
1.412044209164291
% V (V) @ t=0.9
0.018555054301784706
% es.normE (V/m) @ t=0.92
1.9431424628378056
% es.EX (V/m) @ t=0.92
-1.254854144427782
% es.EY (V/m) @ t=0.92
0.2788020706924563
% es.EZ (V/m) @ t=0.92
1.4311129632180535
% es.tEX (V/m) @ t=0.92
-1.254854144427778
% es.tEY (V/m) @ t=0.92
0
% es.tEZ (V/m) @ t=0.92
1.4311129632180464
% es.Ex (V/m) @ t=0.92
-1.254854144427782
% es.Ey (V/m) @ t=0.92
0.2788020706924563
% es.Ez (V/m) @ t=0.92
1.4311129632180535
% es.tEx (V/m) @ t=0.92
-1.254854144427778
% es.tEy (V/m) @ t=0.92
0
% es.tEz (V/m) @ t=0.92
1.4311129632180464
% V (V) @ t=0.92
0.018805637713279928
% es.normE (V/m) @ t=0.94
1.9693009826734171
% es.EX (V/m) @ t=0.94
-1.2717469359620752
% es.EY (V/m) @ t=0.94
0.2825550414573339
% es.EZ (V/m) @ t=0.94
1.4503787090052729
% es.tEX (V/m) @ t=0.94
-1.2717469359620779
% es.tEY (V/m) @ t=0.94
0
% es.tEZ (V/m) @ t=0.94
1.4503787090052747
% es.Ex (V/m) @ t=0.94
-1.2717469359620752
% es.Ey (V/m) @ t=0.94
0.2825550414573339
% es.Ez (V/m) @ t=0.94
1.4503787090052729
% es.tEx (V/m) @ t=0.94
-1.2717469359620779
% es.tEy (V/m) @ t=0.94
0
% es.tEz (V/m) @ t=0.94
1.4503787090052747
% V (V) @ t=0.94
0.019058814087114143
% es.normE (V/m) @ t=0.96
1.9957269087127694
% es.EX (V/m) @ t=0.96
-1.2888124102548342
% es.EY (V/m) @ t=0.96
0.2863462975731863
% es.EZ (V/m) @ t=0.96
1.4698414465259422
% es.tEX (V/m) @ t=0.96
-1.2888124102548297
% es.tEY (V/m) @ t=0.96
0
% es.tEZ (V/m) @ t=0.96
1.4698414465259422
% es.Ex (V/m) @ t=0.96
-1.2888124102548342
% es.Ey (V/m) @ t=0.96
0.2863462975731863
% es.Ez (V/m) @ t=0.96
1.4698414465259422
% es.tEx (V/m) @ t=0.96
-1.2888124102548297
% es.tEy (V/m) @ t=0.96
0
% es.tEz (V/m) @ t=0.96
1.4698414465259422
% V (V) @ t=0.96
0.01931458342328734
% es.normE (V/m) @ t=0.98
2.022420240956028
% es.EX (V/m) @ t=0.98
-1.3060505673059772
% es.EY (V/m) @ t=0.98
0.29017583904010125
% es.EZ (V/m) @ t=0.98
1.489501175780111
% es.tEX (V/m) @ t=0.98
-1.30605056730598
% es.tEY (V/m) @ t=0.98
0
% es.tEZ (V/m) @ t=0.98
1.4895011757801342
% es.Ex (V/m) @ t=0.98
-1.3060505673059772
% es.Ey (V/m) @ t=0.98
0.29017583904010125
% es.Ez (V/m) @ t=0.98
1.489501175780111
% es.tEx (V/m) @ t=0.98
-1.30605056730598
% es.tEy (V/m) @ t=0.98
0
% es.tEz (V/m) @ t=0.98
1.4895011757801342
% V (V) @ t=0.98
0.019572945721799517
% es.normE (V/m) @ t=1
2.0493809794034226
% es.EX (V/m) @ t=1
-1.323461407115579
% es.EY (V/m) @ t=1
0.294043665858007
% es.EZ (V/m) @ t=1
1.5093578967677441
% es.tEX (V/m) @ t=1
-1.3234614071155741
% es.tEY (V/m) @ t=1
0
% es.tEZ (V/m) @ t=1
1.5093578967677512
% es.Ex (V/m) @ t=1
-1.323461407115579
% es.Ey (V/m) @ t=1
0.294043665858007
% es.Ez (V/m) @ t=1
1.5093578967677441
% es.tEx (V/m) @ t=1
-1.3234614071155741
% es.tEy (V/m) @ t=1
0
% es.tEz (V/m) @ t=1
1.5093578967677512
% V (V) @ t=1
0.01983390098265068
% es.normE (V/m) @ t=1.02
2.076609124055162
% es.EX (V/m) @ t=1.02
-1.3410449296836084
% es.EY (V/m) @ t=1.02
0.297949778026938
% es.EZ (V/m) @ t=1.02
1.5294116094888057
% es.tEX (V/m) @ t=1.02
-1.3410449296836036
% es.tEY (V/m) @ t=1.02
0
% es.tEZ (V/m) @ t=1.02
1.5294116094888501
% es.Ex (V/m) @ t=1.02
-1.3410449296836084
% es.Ey (V/m) @ t=1.02
0.297949778026938
% es.Ez (V/m) @ t=1.02
1.5294116094888057
% es.tEx (V/m) @ t=1.02
-1.3410449296836036
% es.tEy (V/m) @ t=1.02
0
% es.tEz (V/m) @ t=1.02
1.5294116094888501
% V (V) @ t=1.02
0.02009744920584083
% es.normE (V/m) @ t=1.04
2.104104674911589
% es.EX (V/m) @ t=1.04
-1.3588011350100628
% es.EY (V/m) @ t=1.04
0.3018941755469329
% es.EZ (V/m) @ t=1.04
1.5496623139433794
% es.tEX (V/m) @ t=1.04
-1.358801135010058
% es.tEY (V/m) @ t=1.04
0