% Model:              1 neuron.mph
% Version:            COMSOL 6.0.0.405
% Date:               Mar 16 2023, 18:52
% Dimension:          0
% Nodes:              14017
% Expressions:        14017
% Description:        Electric field norm, Electric field, X component, Electric field, Y component, Electric field, Z component, Tangential electric field, X component, Tangential electric field, Y component, Tangential electric field, Z component, Electric field, x component, Electric field, y component, Electric field, z component, Tangential electric field, x component, Tangential electric field, y component, Tangential electric field, z component, Electric potential
% Length unit:        mm
% x
1.66
% y
12.2
% z
2
% es.normE (V/m) @ t=0
2.2255479253139656
% es.EX (V/m) @ t=0
-0.6639275508947402
% es.EY (V/m) @ t=0
0.049591898323295
% es.EZ (V/m) @ t=0
-2.1200566324901837
% es.tEX (V/m) @ t=0
-0.6639275508947442
% es.tEY (V/m) @ t=0
0
% es.tEZ (V/m) @ t=0
-2.1200566324902015
% es.Ex (V/m) @ t=0
-0.6639275508947402
% es.Ey (V/m) @ t=0
0.049591898323295
% es.Ez (V/m) @ t=0
-2.1200566324901837
% es.tEx (V/m) @ t=0
-0.6639275508947442
% es.tEy (V/m) @ t=0
0
% es.tEz (V/m) @ t=0
-2.1200566324902015
% V (V) @ t=0
0.0111865405643517
% es.normE (V/m) @ t=0.02
1.9329060138151992
% es.EX (V/m) @ t=0.02
-0.5766263467634913
% es.EY (V/m) @ t=0.02
0.04307097500028258
% es.EZ (V/m) @ t=0.02
-1.8412859865625713
% es.tEX (V/m) @ t=0.02
-0.5766263467634936
% es.tEY (V/m) @ t=0.02
0
% es.tEZ (V/m) @ t=0.02
-1.841285986562581
% es.Ex (V/m) @ t=0.02
-0.5766263467634913
% es.Ey (V/m) @ t=0.02
0.04307097500028258
% es.Ez (V/m) @ t=0.02
-1.8412859865625713
% es.tEx (V/m) @ t=0.02
-0.5766263467634936
% es.tEy (V/m) @ t=0.02
0
% es.tEz (V/m) @ t=0.02
-1.841285986562581
% V (V) @ t=0.02
0.009715598732865932
% es.normE (V/m) @ t=0.04
1.961567110435225
% es.EX (V/m) @ t=0.04
-0.5851765658734125
% es.EY (V/m) @ t=0.04
0.04370967082041198
% es.EZ (V/m) @ t=0.04
-1.8685885358281191
% es.tEX (V/m) @ t=0.04
-0.585176565873418
% es.tEY (V/m) @ t=0.04
0
% es.tEZ (V/m) @ t=0.04
-1.8685885358281435
% es.Ex (V/m) @ t=0.04
-0.5851765658734125
% es.Ey (V/m) @ t=0.04
0.04370967082041198
% es.Ez (V/m) @ t=0.04
-1.8685885358281191
% es.tEx (V/m) @ t=0.04
-0.585176565873418
% es.tEy (V/m) @ t=0.04
0
% es.tEz (V/m) @ t=0.04
-1.8685885358281435
% V (V) @ t=0.04
0.009859660543338226
% es.normE (V/m) @ t=0.06
1.9906568562911886
% es.EX (V/m) @ t=0.06
-0.5938546375044536
% es.EY (V/m) @ t=0.06
0.04435785235897792
% es.EZ (V/m) @ t=0.06
-1.8962994280995331
% es.tEX (V/m) @ t=0.06
-0.5938546375044602
% es.tEY (V/m) @ t=0.06
0
% es.tEZ (V/m) @ t=0.06
-1.8962994280995549
% es.Ex (V/m) @ t=0.06
-0.5938546375044536
% es.Ey (V/m) @ t=0.06
0.04435785235897792
% es.Ez (V/m) @ t=0.06
-1.8962994280995331
% es.tEx (V/m) @ t=0.06
-0.5938546375044602
% es.tEy (V/m) @ t=0.06
0
% es.tEz (V/m) @ t=0.06
-1.8962994280995549
% V (V) @ t=0.06
0.010005878432175973
% es.normE (V/m) @ t=0.08
2.0204920472234686
% es.EX (V/m) @ t=0.08
-0.6027550975537084
% es.EY (V/m) @ t=0.08
0.04502266378199764
% es.EZ (V/m) @ t=0.08
-1.924720427813313
% es.tEX (V/m) @ t=0.08
-0.6027550975537181
% es.tEY (V/m) @ t=0.08
0
% es.tEZ (V/m) @ t=0.08
-1.9247204278133303
% es.Ex (V/m) @ t=0.08
-0.6027550975537084
% es.Ey (V/m) @ t=0.08
0.04502266378199764
% es.Ez (V/m) @ t=0.08
-1.924720427813313
% es.tEx (V/m) @ t=0.08
-0.6027550975537181
% es.tEy (V/m) @ t=0.08
0
% es.tEz (V/m) @ t=0.08
-1.9247204278133303
% V (V) @ t=0.08
0.010155842805338506
% es.normE (V/m) @ t=0.1
2.0508401651484283
% es.EX (V/m) @ t=0.1
-0.6118085789672358
% es.EY (V/m) @ t=0.1
0.045698917921438056
% es.EZ (V/m) @ t=0.1
-1.9536300393463422
% es.tEX (V/m) @ t=0.1
-0.6118085789672385
% es.tEY (V/m) @ t=0.1
0
% es.tEZ (V/m) @ t=0.1
-1.9536300393463613
% es.Ex (V/m) @ t=0.1
-0.6118085789672358
% es.Ey (V/m) @ t=0.1
0.045698917921438056
% es.Ez (V/m) @ t=0.1
-1.9536300393463422
% es.tEx (V/m) @ t=0.1
-0.6118085789672385
% es.tEy (V/m) @ t=0.1
0
% es.tEz (V/m) @ t=0.1
-1.9536300393463613
% V (V) @ t=0.1
0.010308385065187588
% es.normE (V/m) @ t=0.12
2.0811882830734074
% es.EX (V/m) @ t=0.12
-0.6208620603807669
% es.EY (V/m) @ t=0.12
0.046375172060879946
% es.EZ (V/m) @ t=0.12
-1.9825396508793922
% es.tEX (V/m) @ t=0.12
-0.6208620603807731
% es.tEY (V/m) @ t=0.12
0
% es.tEZ (V/m) @ t=0.12
-1.9825396508794055
% es.Ex (V/m) @ t=0.12
-0.6208620603807669
% es.Ey (V/m) @ t=0.12
0.046375172060879946
% es.Ez (V/m) @ t=0.12
-1.9825396508793922
% es.tEx (V/m) @ t=0.12
-0.6208620603807731
% es.tEy (V/m) @ t=0.12
0
% es.tEz (V/m) @ t=0.12
-1.9825396508794055
% V (V) @ t=0.12
0.010460927325036666
% es.normE (V/m) @ t=0.14
2.112067338150357
% es.EX (V/m) @ t=0.14
-0.6300739789732319
% es.EY (V/m) @ t=0.14
0.04706339580410149
% es.EZ (V/m) @ t=0.14
-2.0119550081812188
% es.tEX (V/m) @ t=0.14
-0.6300739789732326
% es.tEY (V/m) @ t=0.14
0
% es.tEZ (V/m) @ t=0.14
-2.0119550081812347
% es.Ex (V/m) @ t=0.14
-0.6300739789732319
% es.Ey (V/m) @ t=0.14
0.04706339580410149
% es.Ez (V/m) @ t=0.14
-2.0119550081812188
% es.tEx (V/m) @ t=0.14
-0.6300739789732326
% es.tEy (V/m) @ t=0.14
0
% es.tEz (V/m) @ t=0.14
-2.0119550081812347
% V (V) @ t=0.14
0.01061613512209467
% es.normE (V/m) @ t=0.16
2.1451419723198986
% es.EX (V/m) @ t=0.16
-0.6399410812465498
% es.EY (V/m) @ t=0.16
0.047801117330091736
% es.EZ (V/m) @ t=0.16
-2.043461770900489
% es.tEX (V/m) @ t=0.16
-0.6399410812465582
% es.tEY (V/m) @ t=0.16
0
% es.tEZ (V/m) @ t=0.16
-2.0434617709005183
% es.Ex (V/m) @ t=0.16
-0.6399410812465498
% es.Ey (V/m) @ t=0.16
0.047801117330091736
% es.Ez (V/m) @ t=0.16
-2.043461770900489
% es.tEx (V/m) @ t=0.16
-0.6399410812465582
% es.tEy (V/m) @ t=0.16
0
% es.tEz (V/m) @ t=0.16
-2.0434617709005183
% V (V) @ t=0.16
0.01078236568850305
% es.normE (V/m) @ t=0.18
2.1782166064899133
% es.EX (V/m) @ t=0.18
-0.6498081835198586
% es.EY (V/m) @ t=0.18
0.04853883885608888
% es.EZ (V/m) @ t=0.18
-2.07496853361981
% es.tEX (V/m) @ t=0.18
-0.6498081835198661
% es.tEY (V/m) @ t=0.18
0
% es.tEZ (V/m) @ t=0.18
-2.0749685336198294
% es.Ex (V/m) @ t=0.18
-0.6498081835198586
% es.Ey (V/m) @ t=0.18
0.04853883885608888
% es.Ez (V/m) @ t=0.18
-2.07496853361981
% es.tEx (V/m) @ t=0.18
-0.6498081835198661
% es.tEy (V/m) @ t=0.18
0
% es.tEz (V/m) @ t=0.18
-2.0749685336198294
% V (V) @ t=0.18
0.01094859625491143
% es.normE (V/m) @ t=0.2
2.2112912406603122
% es.EX (V/m) @ t=0.2
-0.6596752857931698
% es.EY (V/m) @ t=0.2
0.04927656038207029
% es.EZ (V/m) @ t=0.2
-2.1064752963391022
% es.tEX (V/m) @ t=0.2
-0.6596752857931811
% es.tEY (V/m) @ t=0.2
0
% es.tEZ (V/m) @ t=0.2
-2.106475296339114
% es.Ex (V/m) @ t=0.2
-0.6596752857931698
% es.Ey (V/m) @ t=0.2
0.04927656038207029
% es.Ez (V/m) @ t=0.2
-2.1064752963391022
% es.tEx (V/m) @ t=0.2
-0.6596752857931811
% es.tEy (V/m) @ t=0.2
0
% es.tEz (V/m) @ t=0.2
-2.106475296339114
% V (V) @ t=0.2
0.011114826821319812
% es.normE (V/m) @ t=0.22
2.244365874831094
% es.EX (V/m) @ t=0.22
-0.6695423880664841
% es.EY (V/m) @ t=0.22
0.050014281908074706
% es.EZ (V/m) @ t=0.22
-2.1379820590583867
% es.tEX (V/m) @ t=0.22
-0.6695423880664926
% es.tEY (V/m) @ t=0.22
0
% es.tEZ (V/m) @ t=0.22
-2.1379820590584107
% es.Ex (V/m) @ t=0.22
-0.6695423880664841
% es.Ey (V/m) @ t=0.22
0.050014281908074706
% es.Ez (V/m) @ t=0.22
-2.1379820590583867
% es.tEx (V/m) @ t=0.22
-0.6695423880664926
% es.tEy (V/m) @ t=0.22
0
% es.tEz (V/m) @ t=0.22
-2.1379820590584107
% V (V) @ t=0.22
0.01128105738772819
% es.normE (V/m) @ t=0.24
2.277440509002259
% es.EX (V/m) @ t=0.24
-0.6794094903397984
% es.EY (V/m) @ t=0.24
0.050752003434059625
% es.EZ (V/m) @ t=0.24
-2.169488821777678
% es.tEX (V/m) @ t=0.24
-0.679409490339804
% es.tEY (V/m) @ t=0.24
0
% es.tEZ (V/m) @ t=0.24
-2.1694888217777013
% es.Ex (V/m) @ t=0.24
-0.6794094903397984
% es.Ey (V/m) @ t=0.24
0.050752003434059625
% es.Ez (V/m) @ t=0.24
-2.169488821777678
% es.tEx (V/m) @ t=0.24
-0.679409490339804
% es.tEy (V/m) @ t=0.24
0
% es.tEz (V/m) @ t=0.24
-2.1694888217777013
% V (V) @ t=0.24
0.01144728795413657
% es.normE (V/m) @ t=0.26
2.3105151431737863
% es.EX (V/m) @ t=0.26
-0.689276592613108
% es.EY (V/m) @ t=0.26
0.051489724960040784
% es.EZ (V/m) @ t=0.26
-2.200995584496977
% es.tEX (V/m) @ t=0.26
-0.6892765926131119
% es.tEY (V/m) @ t=0.26
0
% es.tEZ (V/m) @ t=0.26
-2.200995584496999
% es.Ex (V/m) @ t=0.26
-0.689276592613108
% es.Ey (V/m) @ t=0.26
0.051489724960040784
% es.Ez (V/m) @ t=0.26
-2.200995584496977
% es.tEx (V/m) @ t=0.26
-0.6892765926131119
% es.tEy (V/m) @ t=0.26
0
% es.tEz (V/m) @ t=0.26
-2.200995584496999
% V (V) @ t=0.26
0.011613518520544949
% es.normE (V/m) @ t=0.28
2.3447665902243227
% es.EX (V/m) @ t=0.28
-0.6994944767958938
% es.EY (V/m) @ t=0.28
0.0522528366189544
% es.EZ (V/m) @ t=0.28
-2.2336235286480886
% es.tEX (V/m) @ t=0.28
-0.6994944767958984
% es.tEY (V/m) @ t=0.28
0
% es.tEZ (V/m) @ t=0.28
-2.2336235286481063
% es.Ex (V/m) @ t=0.28
-0.6994944767958938
% es.Ey (V/m) @ t=0.28
0.0522528366189544
% es.Ez (V/m) @ t=0.28
-2.2336235286480886
% es.tEx (V/m) @ t=0.28
-0.6994944767958984
% es.tEy (V/m) @ t=0.28
0
% es.tEz (V/m) @ t=0.28
-2.2336235286481063
% V (V) @ t=0.28
0.011785683329864138
% es.normE (V/m) @ t=0.3
2.3807875581388975
% es.EX (V/m) @ t=0.3
-0.710239816038315
% es.EY (V/m) @ t=0.3
0.0530541262845219
% es.EZ (V/m) @ t=0.3
-2.2679373431449177
% es.tEX (V/m) @ t=0.3
-0.7102398160383139
% es.tEY (V/m) @ t=0.3
0
% es.tEZ (V/m) @ t=0.3
-2.267937343144939
% es.Ex (V/m) @ t=0.3
-0.710239816038315
% es.Ey (V/m) @ t=0.3
0.0530541262845219
% es.Ez (V/m) @ t=0.3
-2.2679373431449177
% es.tEx (V/m) @ t=0.3
-0.7102398160383139
% es.tEy (V/m) @ t=0.3
0
% es.tEz (V/m) @ t=0.3
-2.267937343144939
% V (V) @ t=0.3
0.01196677119468862
% es.normE (V/m) @ t=0.32
2.4168085260550303
% es.EX (V/m) @ t=0.32
-0.7209851552807413
% es.EY (V/m) @ t=0.32
0.05385541595005751
% es.EZ (V/m) @ t=0.32
-2.3022511576417557
% es.tEX (V/m) @ t=0.32
-0.7209851552807507
% es.tEY (V/m) @ t=0.32
0
% es.tEZ (V/m) @ t=0.32
-2.3022511576417806
% es.Ex (V/m) @ t=0.32
-0.7209851552807413
% es.Ey (V/m) @ t=0.32
0.05385541595005751
% es.Ez (V/m) @ t=0.32
-2.3022511576417557
% es.tEx (V/m) @ t=0.32
-0.7209851552807507
% es.tEy (V/m) @ t=0.32
0
% es.tEz (V/m) @ t=0.32
-2.3022511576417806
% V (V) @ t=0.32
0.012147859059513108
% es.normE (V/m) @ t=0.34
2.45282949397263
% es.EX (V/m) @ t=0.34
-0.7317304945231695
% es.EY (V/m) @ t=0.34
0.05465670561560573
% es.EZ (V/m) @ t=0.34
-2.3365649721385786
% es.tEX (V/m) @ t=0.34
-0.7317304945231733
% es.tEY (V/m) @ t=0.34
0
% es.tEZ (V/m) @ t=0.34
-2.336564972138607
% es.Ex (V/m) @ t=0.34
-0.7317304945231695
% es.Ey (V/m) @ t=0.34
0.05465670561560573
% es.Ez (V/m) @ t=0.34
-2.3365649721385786
% es.tEx (V/m) @ t=0.34
-0.7317304945231733
% es.tEy (V/m) @ t=0.34
0
% es.tEz (V/m) @ t=0.34
-2.336564972138607
% V (V) @ t=0.34
0.012328946924337593
% es.normE (V/m) @ t=0.36
2.4888504618916656
% es.EX (V/m) @ t=0.36
-0.7424758337655968
% es.EY (V/m) @ t=0.36
0.05545799528117484
% es.EZ (V/m) @ t=0.36
-2.3708787866354237
% es.tEX (V/m) @ t=0.36
-0.742475833765603
% es.tEY (V/m) @ t=0.36
0
% es.tEZ (V/m) @ t=0.36
-2.3708787866354477
% es.Ex (V/m) @ t=0.36
-0.7424758337655968
% es.Ey (V/m) @ t=0.36
0.05545799528117484
% es.Ez (V/m) @ t=0.36
-2.3708787866354237
% es.tEx (V/m) @ t=0.36
-0.742475833765603
% es.tEy (V/m) @ t=0.36
0
% es.tEz (V/m) @ t=0.36
-2.3708787866354477
% V (V) @ t=0.36
0.012510034789162076
% es.normE (V/m) @ t=0.38
2.524871429812044
% es.EX (V/m) @ t=0.38
-0.7532211730080232
% es.EY (V/m) @ t=0.38
0.0562592849467264
% es.EZ (V/m) @ t=0.38
-2.4051926011322537
% es.tEX (V/m) @ t=0.38
-0.7532211730080327
% es.tEY (V/m) @ t=0.38
0
% es.tEZ (V/m) @ t=0.38
-2.405192601132282
% es.Ex (V/m) @ t=0.38
-0.7532211730080232
% es.Ey (V/m) @ t=0.38
0.0562592849467264
% es.Ez (V/m) @ t=0.38
-2.4051926011322537
% es.tEx (V/m) @ t=0.38
-0.7532211730080327
% es.tEy (V/m) @ t=0.38
0
% es.tEz (V/m) @ t=0.38
-2.405192601132282
% V (V) @ t=0.38
0.012691122653986562
% es.normE (V/m) @ t=0.4
2.5608923977337383
% es.EX (V/m) @ t=0.4
-0.7639665122504478
% es.EY (V/m) @ t=0.4
0.057060574612281506
% es.EZ (V/m) @ t=0.4
-2.439506415629105
% es.tEX (V/m) @ t=0.4
-0.7639665122504553
% es.tEY (V/m) @ t=0.4
0
% es.tEZ (V/m) @ t=0.4
-2.4395064156291157
% es.Ex (V/m) @ t=0.4
-0.7639665122504478
% es.Ey (V/m) @ t=0.4
0.057060574612281506
% es.Ez (V/m) @ t=0.4
-2.439506415629105
% es.tEx (V/m) @ t=0.4
-0.7639665122504553
% es.tEy (V/m) @ t=0.4
0
% es.tEz (V/m) @ t=0.4
-2.4395064156291157
% V (V) @ t=0.4
0.012872210518811048
% es.normE (V/m) @ t=0.42
2.5988207173394007
% es.EX (V/m) @ t=0.42
-0.7752823247295436
% es.EY (V/m) @ t=0.42
0.057908644556046746
% es.EZ (V/m) @ t=0.42
-2.4756364039483234
% es.tEX (V/m) @ t=0.42
-0.7752823247295524
% es.tEY (V/m) @ t=0.42
0
% es.tEZ (V/m) @ t=0.42
-2.4756364039483554
% es.Ex (V/m) @ t=0.42
-0.7752823247295436
% es.Ey (V/m) @ t=0.42
0.057908644556046746
% es.Ez (V/m) @ t=0.42
-2.4756364039483234
% es.tEx (V/m) @ t=0.42
-0.7752823247295524
% es.tEy (V/m) @ t=0.42
0
% es.tEz (V/m) @ t=0.42
-2.4756364039483554
% V (V) @ t=0.42
0.013062787457431616
% es.normE (V/m) @ t=0.44
2.6379990240359046
% es.EX (V/m) @ t=0.44
-0.7869719980845102
% es.EY (V/m) @ t=0.44
0.058787372056819207
% es.EZ (V/m) @ t=0.44
-2.512956625730501
% es.tEX (V/m) @ t=0.44
-0.7869719980845247
% es.tEY (V/m) @ t=0.44
0
% es.tEZ (V/m) @ t=0.44
-2.5129566257305225
% es.Ex (V/m) @ t=0.44
-0.7869719980845102
% es.Ey (V/m) @ t=0.44
0.058787372056819207
% es.Ez (V/m) @ t=0.44
-2.512956625730501
% es.tEx (V/m) @ t=0.44
-0.7869719980845247
% es.tEy (V/m) @ t=0.44
0
% es.tEz (V/m) @ t=0.44
-2.5129566257305225
% V (V) @ t=0.44
0.013259583081194013
% es.normE (V/m) @ t=0.46
2.6771773307547595
% es.EX (V/m) @ t=0.46
-0.7986616714394799
% es.EY (V/m) @ t=0.46
0.05966609955758785
% es.EZ (V/m) @ t=0.46
-2.550276847512678
% es.tEX (V/m) @ t=0.46
-0.7986616714394827
% es.tEY (V/m) @ t=0.46
0
% es.tEZ (V/m) @ t=0.46
-2.550276847512693
% es.Ex (V/m) @ t=0.46
-0.7986616714394799
% es.Ey (V/m) @ t=0.46
0.05966609955758785
% es.Ez (V/m) @ t=0.46
-2.550276847512678
% es.tEx (V/m) @ t=0.46
-0.7986616714394827
% es.tEy (V/m) @ t=0.46
0
% es.tEz (V/m) @ t=0.46
-2.550276847512693
% V (V) @ t=0.46
0.01345637870495641
% es.normE (V/m) @ t=0.48
2.716355637494972
% es.EX (V/m) @ t=0.48
-0.8103513447944475
% es.EY (V/m) @ t=0.48
0.0605448270583656
% es.EZ (V/m) @ t=0.48
-2.5875970692948274
% es.tEX (V/m) @ t=0.48
-0.810351344794455
% es.tEY (V/m) @ t=0.48
0
% es.tEZ (V/m) @ t=0.48
-2.587597069294846
% es.Ex (V/m) @ t=0.48
-0.8103513447944475
% es.Ey (V/m) @ t=0.48
0.0605448270583656
% es.Ez (V/m) @ t=0.48
-2.5875970692948274
% es.tEx (V/m) @ t=0.48
-0.810351344794455
% es.tEy (V/m) @ t=0.48
0
% es.tEz (V/m) @ t=0.48
-2.587597069294846
% V (V) @ t=0.48
0.013653174328718808
% es.normE (V/m) @ t=0.5
2.7555339442557063
% es.EX (V/m) @ t=0.5
-0.8220410181494269
% es.EY (V/m) @ t=0.5
0.06142355455913398
% es.EZ (V/m) @ t=0.5
-2.6249172910770255
% es.tEX (V/m) @ t=0.5
-0.8220410181494415
% es.tEY (V/m) @ t=0.5
0
% es.tEZ (V/m) @ t=0.5
-2.6249172910770575
% es.Ex (V/m) @ t=0.5
-0.8220410181494269
% es.Ey (V/m) @ t=0.5
0.06142355455913398
% es.Ez (V/m) @ t=0.5
-2.6249172910770255
% es.tEx (V/m) @ t=0.5
-0.8220410181494415
% es.tEy (V/m) @ t=0.5
0
% es.tEz (V/m) @ t=0.5
-2.6249172910770575
% V (V) @ t=0.5
0.013849969952481203
% es.normE (V/m) @ t=0.52
2.7947122510360023
% es.EX (V/m) @ t=0.52
-0.8337306915044008
% es.EY (V/m) @ t=0.52
0.06230228205992083
% es.EZ (V/m) @ t=0.52
-2.662237512859174
% es.tEX (V/m) @ t=0.52
-0.8337306915043996
% es.tEY (V/m) @ t=0.52
0
% es.tEZ (V/m) @ t=0.52
-2.6622375128591997
% es.Ex (V/m) @ t=0.52
-0.8337306915044008
% es.Ey (V/m) @ t=0.52
0.06230228205992083
% es.Ez (V/m) @ t=0.52
-2.662237512859174
% es.tEx (V/m) @ t=0.52
-0.8337306915043996
% es.tEy (V/m) @ t=0.52
0
% es.tEz (V/m) @ t=0.52
-2.6622375128591997
% V (V) @ t=0.52
0.0140467655762436
% es.normE (V/m) @ t=0.54
2.8338905578351206
% es.EX (V/m) @ t=0.54
-0.8454203648593639
% es.EY (V/m) @ t=0.54
0.06318100956068638
% es.EZ (V/m) @ t=0.54
-2.6995577346413517
% es.tEX (V/m) @ t=0.54
-0.8454203648593719
% es.tEY (V/m) @ t=0.54
0
% es.tEZ (V/m) @ t=0.54
-2.699557734641367
% es.Ex (V/m) @ t=0.54
-0.8454203648593639
% es.Ey (V/m) @ t=0.54
0.06318100956068638
% es.Ez (V/m) @ t=0.54
-2.6995577346413517
% es.tEx (V/m) @ t=0.54
-0.8454203648593719
% es.tEy (V/m) @ t=0.54
0
% es.tEz (V/m) @ t=0.54
-2.699557734641367
% V (V) @ t=0.54
0.014243561200005996
% es.normE (V/m) @ t=0.56
2.8742826298673823
% es.EX (V/m) @ t=0.56
-0.8574711871665193
% es.EY (V/m) @ t=0.56
0.06408403894991446
% es.EZ (V/m) @ t=0.56
-2.7380346822538772
% es.tEX (V/m) @ t=0.56
-0.8574711871665244
% es.tEY (V/m) @ t=0.56
0
% es.tEZ (V/m) @ t=0.56
-2.738034682253918
% es.Ex (V/m) @ t=0.56
-0.8574711871665193
% es.Ey (V/m) @ t=0.56
0.06408403894991446
% es.Ez (V/m) @ t=0.56
-2.7380346822538772
% es.tEx (V/m) @ t=0.56
-0.8574711871665244
% es.tEy (V/m) @ t=0.56
0
% es.tEz (V/m) @ t=0.56
-2.738034682253918
% V (V) @ t=0.56
0.014446520617067192
% es.normE (V/m) @ t=0.58
2.915318638392254
% es.EX (V/m) @ t=0.58
-0.8697136091219251
% es.EY (V/m) @ t=0.58
0.06499996117254943
% es.EZ (V/m) @ t=0.58
-2.7771253053620253
% es.tEX (V/m) @ t=0.58
-0.8697136091219377
% es.tEY (V/m) @ t=0.58
0
% es.tEZ (V/m) @ t=0.58
-2.7771253053620697
% es.Ex (V/m) @ t=0.58
-0.8697136091219251
% es.Ey (V/m) @ t=0.58
0.06499996117254943
% es.Ez (V/m) @ t=0.58
-2.7771253053620253
% es.tEx (V/m) @ t=0.58
-0.8697136091219377
% es.tEy (V/m) @ t=0.58
0
% es.tEz (V/m) @ t=0.58
-2.7771253053620697
% V (V) @ t=0.58
0.014652750099348664
% es.normE (V/m) @ t=0.6
2.9567493614558416
% es.EX (V/m) @ t=0.6
-0.882073476148324
% es.EY (V/m) @ t=0.6
0.06592378633107747
% es.EZ (V/m) @ t=0.6
-2.816592093890173
% es.tEX (V/m) @ t=0.6
-0.8820734761483351
% es.tEY (V/m) @ t=0.6
0
% es.tEZ (V/m) @ t=0.6
-2.816592093890181
% es.Ex (V/m) @ t=0.6
-0.882073476148324
% es.Ey (V/m) @ t=0.6
0.06592378633107747
% es.Ez (V/m) @ t=0.6
-2.816592093890173
% es.tEx (V/m) @ t=0.6
-0.8820734761483351
% es.tEy (V/m) @ t=0.6
0
% es.tEz (V/m) @ t=0.6
-2.816592093890181
% V (V) @ t=0.6
0.014860984037512386
% es.normE (V/m) @ t=0.62
2.9985747990579057
% es.EX (V/m) @ t=0.62
-0.8945507882457058
% es.EY (V/m) @ t=0.62
0.06685551442548227
% es.EZ (V/m) @ t=0.62
-2.856435047838235
% es.tEX (V/m) @ t=0.62
-0.8945507882457093
% es.tEY (V/m) @ t=0.62
0
% es.tEZ (V/m) @ t=0.62
-2.856435047838268
% es.Ex (V/m) @ t=0.62
-0.8945507882457058
% es.Ey (V/m) @ t=0.62
0.06685551442548227
% es.Ez (V/m) @ t=0.62
-2.856435047838235
% es.tEx (V/m) @ t=0.62
-0.8945507882457093
% es.tEy (V/m) @ t=0.62
0
% es.tEz (V/m) @ t=0.62
-2.856435047838268
% V (V) @ t=0.62
0.01507122243155837
% es.normE (V/m) @ t=0.64
3.0407949511998744
% es.EX (V/m) @ t=0.64
-0.9071455454141002
% es.EY (V/m) @ t=0.64
0.0677951454557839
% es.EZ (V/m) @ t=0.64
-2.8966541672063135
% es.tEX (V/m) @ t=0.64
-0.9071455454141031
% es.tEY (V/m) @ t=0.64
0
% es.tEZ (V/m) @ t=0.64
-2.896654167206343
% es.Ex (V/m) @ t=0.64
-0.9071455454141002
% es.Ey (V/m) @ t=0.64
0.0677951454557839
% es.Ez (V/m) @ t=0.64
-2.8966541672063135
% es.tEx (V/m) @ t=0.64
-0.9071455454141031
% es.tEy (V/m) @ t=0.64
0
% es.tEz (V/m) @ t=0.64
-2.896654167206343
% V (V) @ t=0.64
0.015283465281486603
% es.normE (V/m) @ t=0.66
3.083409817884397
% es.EX (V/m) @ t=0.66
-0.9198577476534826
% es.EY (V/m) @ t=0.66
0.06874267942195733
% es.EZ (V/m) @ t=0.66
-2.9372494519943624
% es.tEX (V/m) @ t=0.66
-0.9198577476534879
% es.tEY (V/m) @ t=0.66
0
% es.tEZ (V/m) @ t=0.66
-2.9372494519943775
% es.Ex (V/m) @ t=0.66
-0.9198577476534826
% es.Ey (V/m) @ t=0.66
0.06874267942195733
% es.Ez (V/m) @ t=0.66
-2.9372494519943624
% es.tEx (V/m) @ t=0.66
-0.9198577476534879
% es.tEy (V/m) @ t=0.66
0
% es.tEz (V/m) @ t=0.66
-2.9372494519943775
% V (V) @ t=0.66
0.015497712587297088
% es.normE (V/m) @ t=0.68
3.126419399115435
% es.EX (V/m) @ t=0.68
-0.9326873949638594
% es.EY (V/m) @ t=0.68
0.06969811632403078
% es.EZ (V/m) @ t=0.68
-2.9782209022023576
% es.tEX (V/m) @ t=0.68
-0.932687394963871
% es.tEY (V/m) @ t=0.68
0
% es.tEZ (V/m) @ t=0.68
-2.9782209022023878
% es.Ex (V/m) @ t=0.68
-0.9326873949638594
% es.Ey (V/m) @ t=0.68
0.06969811632403078
% es.Ez (V/m) @ t=0.68
-2.9782209022023576
% es.tEx (V/m) @ t=0.68
-0.932687394963871
% es.tEy (V/m) @ t=0.68
0
% es.tEz (V/m) @ t=0.68
-2.9782209022023878
% V (V) @ t=0.68
0.01571396434898983
% es.normE (V/m) @ t=0.7
3.1698236948982066
% es.EX (V/m) @ t=0.7
-0.9456344873452371
% es.EY (V/m) @ t=0.7
0.0706614561619759
% es.EZ (V/m) @ t=0.7
-3.0195685178303506
% es.tEX (V/m) @ t=0.7
-0.9456344873452451
% es.tEY (V/m) @ t=0.7
0
% es.tEZ (V/m) @ t=0.7
-3.0195685178303737
% es.Ex (V/m) @ t=0.7
-0.9456344873452371
% es.Ey (V/m) @ t=0.7
0.0706614561619759
% es.Ez (V/m) @ t=0.7
-3.0195685178303506
% es.tEx (V/m) @ t=0.7
-0.9456344873452451
% es.tEy (V/m) @ t=0.7
0
% es.tEz (V/m) @ t=0.7
-3.0195685178303737
% V (V) @ t=0.7
0.01593222056656483
% es.normE (V/m) @ t=0.72
3.2136227052389357
% es.EX (V/m) @ t=0.72
-0.9586990247976109
% es.EY (V/m) @ t=0.72
0.07163269893580018
% es.EZ (V/m) @ t=0.72
-3.06129229887829
% es.tEX (V/m) @ t=0.72
-0.9586990247976246
% es.tEY (V/m) @ t=0.72
0
% es.tEZ (V/m) @ t=0.72
-3.0612922988783193
% es.Ex (V/m) @ t=0.72
-0.9586990247976109
% es.Ey (V/m) @ t=0.72
0.07163269893580018
% es.Ez (V/m) @ t=0.72
-3.06129229887829
% es.tEx (V/m) @ t=0.72
-0.9586990247976246
% es.tEy (V/m) @ t=0.72
0
% es.tEz (V/m) @ t=0.72
-3.0612922988783193
% V (V) @ t=0.72
0.01615248124002208
% es.normE (V/m) @ t=0.74
3.2578164301449832
% es.EX (V/m) @ t=0.74
-0.9718810073209889
% es.EY (V/m) @ t=0.74
0.07261184464551675
% es.EZ (V/m) @ t=0.74
-3.1033922453462424
% es.tEX (V/m) @ t=0.74
-0.9718810073209951
% es.tEY (V/m) @ t=0.74
0
% es.tEZ (V/m) @ t=0.74
-3.103392245346271
% es.Ex (V/m) @ t=0.74
-0.9718810073209889
% es.Ey (V/m) @ t=0.74
0.07261184464551675
% es.Ez (V/m) @ t=0.74
-3.1033922453462424
% es.tEx (V/m) @ t=0.74
-0.9718810073209951
% es.tEy (V/m) @ t=0.74
0
% es.tEz (V/m) @ t=0.74
-3.103392245346271
% V (V) @ t=0.74
0.016374746369361586
% es.normE (V/m) @ t=0.76
3.3024048696245147
% es.EX (V/m) @ t=0.76
-0.9851804349153442
% es.EY (V/m) @ t=0.76
0.07359889329113045
% es.EZ (V/m) @ t=0.76
-3.1458683572341393
% es.tEX (V/m) @ t=0.76
-0.9851804349153568
% es.tEY (V/m) @ t=0.76
0
% es.tEZ (V/m) @ t=0.76
-3.145868357234164
% es.Ex (V/m) @ t=0.76
-0.9851804349153442
% es.Ey (V/m) @ t=0.76
0.07359889329113045
% es.Ez (V/m) @ t=0.76
-3.1458683572341393
% es.tEx (V/m) @ t=0.76
-0.9851804349153568
% es.tEy (V/m) @ t=0.76
0
% es.tEz (V/m) @ t=0.76
-3.145868357234164
% V (V) @ t=0.76
0.016599015954583348
% es.normE (V/m) @ t=0.78
3.347388023686708
% es.EX (V/m) @ t=0.78
-0.9985973075806927
% es.EY (V/m) @ t=0.78
0.07459384487264713
% es.EZ (V/m) @ t=0.78
-3.188720634542036
% es.tEX (V/m) @ t=0.78
-0.9985973075807024
% es.tEY (V/m) @ t=0.78
0
% es.tEZ (V/m) @ t=0.78
-3.1887206345420473
% es.Ex (V/m) @ t=0.78
-0.9985973075806927
% es.Ey (V/m) @ t=0.78
0.07459384487264713
% es.Ez (V/m) @ t=0.78
-3.188720634542036
% es.tEx (V/m) @ t=0.78
-0.9985973075807024
% es.tEy (V/m) @ t=0.78
0
% es.tEz (V/m) @ t=0.78
-3.1887206345420473
% V (V) @ t=0.78
0.016825289995687363
% es.normE (V/m) @ t=0.8
3.3927658923414574
% es.EX (V/m) @ t=0.8
-1.012131625317059
% es.EY (V/m) @ t=0.8
0.07559669939000023
% es.EZ (V/m) @ t=0.8
-3.231949077269906
% es.tEX (V/m) @ t=0.8
-1.0121316253170747
% es.tEY (V/m) @ t=0.8
0
% es.tEZ (V/m) @ t=0.8
-3.2319490772699364
% es.Ex (V/m) @ t=0.8
-1.012131625317059
% es.Ey (V/m) @ t=0.8
0.07559669939000023
% es.Ez (V/m) @ t=0.8
-3.231949077269906
% es.tEx (V/m) @ t=0.8
-1.0121316253170747
% es.tEy (V/m) @ t=0.8
0
% es.tEz (V/m) @ t=0.8
-3.2319490772699364
% V (V) @ t=0.8
0.017053568492673633
% es.normE (V/m) @ t=0.82
3.4387037106188254
% es.EX (V/m) @ t=0.82
-1.0258334867315733
% es.EY (V/m) @ t=0.82
0.07661348374783421
% es.EZ (V/m) @ t=0.82
-3.2757106668488145
% es.tEX (V/m) @ t=0.82
-1.0258334867315924
% es.tEY (V/m) @ t=0.82
0
% es.tEZ (V/m) @ t=0.82
-3.275710666848852
% es.Ex (V/m) @ t=0.82
-1.0258334867315733
% es.Ey (V/m) @ t=0.82
0.07661348374783421
% es.Ez (V/m) @ t=0.82
-3.2757106668488145
% es.tEx (V/m) @ t=0.82
-1.0258334867315924
% es.tEy (V/m) @ t=0.82
0
% es.tEz (V/m) @ t=0.82
-3.275710666848852
% V (V) @ t=0.82
0.017284628241540072
% es.normE (V/m) @ t=0.84
3.4856952408372788
% es.EX (V/m) @ t=0.84
-1.0398525986204077
% es.EY (V/m) @ t=0.84
0.07766220779964589
% es.EZ (V/m) @ t=0.84
-3.3204745018912885
% es.tEX (V/m) @ t=0.84
-1.0398525986204135
% es.tEY (V/m) @ t=0.84
0
% es.tEZ (V/m) @ t=0.84
-3.3204745018913098
% es.Ex (V/m) @ t=0.84
-1.0398525986204077
% es.Ey (V/m) @ t=0.84
0.07766220779964589
% es.Ez (V/m) @ t=0.84
-3.3204745018912885
% es.tEx (V/m) @ t=0.84
-1.0398525986204135
% es.tEy (V/m) @ t=0.84
0
% es.tEz (V/m) @ t=0.84
-3.3204745018913098
% V (V) @ t=0.84
0.0175207904972413
% es.normE (V/m) @ t=0.86
3.533191186236084
% es.EX (V/m) @ t=0.86
-1.0540224163735092
% es.EY (V/m) @ t=0.86
0.07872283608872502
% es.EZ (V/m) @ t=0.86
-3.3657187233535693
% es.tEX (V/m) @ t=0.86
-1.0540224163735061
% es.tEY (V/m) @ t=0.86
0
% es.tEZ (V/m) @ t=0.86
-3.3657187233535932
% es.Ex (V/m) @ t=0.86
-1.0540224163735092
% es.Ey (V/m) @ t=0.86
0.07872283608872502
% es.Ez (V/m) @ t=0.86
-3.3657187233535693
% es.tEx (V/m) @ t=0.86
-1.0540224163735061
% es.tEy (V/m) @ t=0.86
0
% es.tEz (V/m) @ t=0.86
-3.3657187233535932
% V (V) @ t=0.86
0.017759472928772963
% es.normE (V/m) @ t=0.88
3.581191546817479
% es.EX (V/m) @ t=0.88
-1.0683429399908566
% es.EY (V/m) @ t=0.88
0.07979536861510816
% es.EZ (V/m) @ t=0.88
-3.4114433312354953
% es.tEX (V/m) @ t=0.88
-1.0683429399908775
% es.tEY (V/m) @ t=0.88
0
% es.tEZ (V/m) @ t=0.88
-3.411443331235553
% es.Ex (V/m) @ t=0.88
-1.0683429399908566
% es.Ey (V/m) @ t=0.88
0.07979536861510816
% es.Ez (V/m) @ t=0.88
-3.4114433312354953
% es.tEx (V/m) @ t=0.88
-1.0683429399908775
% es.tEy (V/m) @ t=0.88
0
% es.tEz (V/m) @ t=0.88
-3.411443331235553
% V (V) @ t=0.88
0.01800067553613506
% es.normE (V/m) @ t=0.9
3.6296963225845222
% es.EX (V/m) @ t=0.9
-1.0828141694724451
% es.EY (V/m) @ t=0.9
0.08087980537875611
% es.EZ (V/m) @ t=0.9
-3.457648325537205
% es.tEX (V/m) @ t=0.9
-1.0828141694724494
% es.tEY (V/m) @ t=0.9
0
% es.tEZ (V/m) @ t=0.9
-3.457648325537244
% es.Ex (V/m) @ t=0.9
-1.0828141694724451
% es.Ey (V/m) @ t=0.9
0.08087980537875611
% es.Ez (V/m) @ t=0.9
-3.457648325537205
% es.tEx (V/m) @ t=0.9
-1.0828141694724494
% es.tEy (V/m) @ t=0.9
0
% es.tEz (V/m) @ t=0.9
-3.457648325537244
% V (V) @ t=0.9
0.018244398319327594
% es.normE (V/m) @ t=0.92
3.6787055135406472
% es.EX (V/m) @ t=0.92
-1.0974361048183146
% es.EY (V/m) @ t=0.92
0.08197614637973619
% es.EZ (V/m) @ t=0.92
-3.5043337062586692
% es.tEX (V/m) @ t=0.92
-1.0974361048183354
% es.tEY (V/m) @ t=0.92
0
% es.tEZ (V/m) @ t=0.92
-3.504333706258702
% es.Ex (V/m) @ t=0.92
-1.0974361048183146
% es.Ey (V/m) @ t=0.92
0.08197614637973619
% es.Ez (V/m) @ t=0.92
-3.5043337062586692
% es.tEx (V/m) @ t=0.92
-1.0974361048183354
% es.tEy (V/m) @ t=0.92
0
% es.tEz (V/m) @ t=0.92
-3.504333706258702
% V (V) @ t=0.92
0.01849064127835056
% es.normE (V/m) @ t=0.94
3.7282191196897605
% es.EX (V/m) @ t=0.94
-1.112208746028435
% es.EY (V/m) @ t=0.94
0.08308439161795533
% es.EZ (V/m) @ t=0.94
-3.5514994733998906
% es.tEX (V/m) @ t=0.94
-1.1122087460284433
% es.tEY (V/m) @ t=0.94
0
% es.tEZ (V/m) @ t=0.94
-3.5514994733999377
% es.Ex (V/m) @ t=0.94
-1.112208746028435
% es.Ey (V/m) @ t=0.94
0.08308439161795533
% es.Ez (V/m) @ t=0.94
-3.5514994733998906
% es.tEx (V/m) @ t=0.94
-1.1122087460284433
% es.tEy (V/m) @ t=0.94
0
% es.tEz (V/m) @ t=0.94
-3.5514994733999377
% V (V) @ t=0.94
0.018739404413203962
% es.normE (V/m) @ t=0.96
3.7782371410362043
% es.EX (V/m) @ t=0.96
-1.1271320931028161
% es.EY (V/m) @ t=0.96
0.0842045410935037
% es.EZ (V/m) @ t=0.96
-3.599145626960855
% es.tEX (V/m) @ t=0.96
-1.12713209310283
% es.tEY (V/m) @ t=0.96
0
% es.tEZ (V/m) @ t=0.96
-3.599145626960878
% es.Ex (V/m) @ t=0.96
-1.1271320931028161
% es.Ey (V/m) @ t=0.96
0.0842045410935037
% es.Ez (V/m) @ t=0.96
-3.599145626960855
% es.tEx (V/m) @ t=0.96
-1.12713209310283
% es.tEy (V/m) @ t=0.96
0
% es.tEz (V/m) @ t=0.96
-3.599145626960878
% V (V) @ t=0.96
0.018990687723887803
% es.normE (V/m) @ t=0.98
3.8287595775847185
% es.EX (V/m) @ t=0.98
-1.1422061460414477
% es.EY (V/m) @ t=0.98
0.0853365948063447
% es.EZ (V/m) @ t=0.98
-3.6472721669415593
% es.tEX (V/m) @ t=0.98
-1.1422061460414596
% es.tEY (V/m) @ t=0.98
0
% es.tEZ (V/m) @ t=0.98
-3.6472721669415673
% es.Ex (V/m) @ t=0.98
-1.1422061460414477
% es.Ey (V/m) @ t=0.98
0.0853365948063447
% es.Ez (V/m) @ t=0.98
-3.6472721669415593
% es.tEx (V/m) @ t=0.98
-1.1422061460414596
% es.tEy (V/m) @ t=0.98
0
% es.tEz (V/m) @ t=0.98
-3.6472721669415673
% V (V) @ t=0.98
0.019244491210402077
% es.normE (V/m) @ t=1
3.8797864293404185
% es.EX (V/m) @ t=1
-1.1574309048443312
% es.EY (V/m) @ t=1
0.08648055275646827
% es.EZ (V/m) @ t=1
-3.6958790933419907
% es.tEX (V/m) @ t=1
-1.1574309048443467
% es.tEY (V/m) @ t=1
0
% es.tEZ (V/m) @ t=1
-3.695879093342022
% es.Ex (V/m) @ t=1
-1.1574309048443312
% es.Ey (V/m) @ t=1
0.08648055275646827
% es.Ez (V/m) @ t=1
-3.6958790933419907
% es.tEx (V/m) @ t=1
-1.1574309048443467
% es.tEy (V/m) @ t=1
0
% es.tEz (V/m) @ t=1
-3.695879093342022
% V (V) @ t=1
0.019500814872746776
% es.normE (V/m) @ t=1.02
3.9313176963087986
% es.EX (V/m) @ t=1.02
-1.1728063695114772
% es.EY (V/m) @ t=1.02
0.08763641494386268
% es.EZ (V/m) @ t=1.02
-3.7449664061621917
% es.tEX (V/m) @ t=1.02
-1.172806369511484
% es.tEY (V/m) @ t=1.02
0
% es.tEZ (V/m) @ t=1.02
-3.7449664061622236
% es.Ex (V/m) @ t=1.02
-1.1728063695114772
% es.Ey (V/m) @ t=1.02
0.08763641494386268
% es.Ez (V/m) @ t=1.02
-3.7449664061621917
% es.tEx (V/m) @ t=1.02
-1.172806369511484
% es.tEy (V/m) @ t=1.02
0
% es.tEz (V/m) @ t=1.02
-3.7449664061622236
% V (V) @ t=1.02
0.019759658710921925
% es.normE (V/m) @ t=1.04