% Model:              1 neuron.mph
% Version:            COMSOL 6.0.0.405
% Date:               Mar 16 2023, 19:04
% Dimension:          0
% Nodes:              14017
% Expressions:        14017
% Description:        Electric field norm, Electric field, X component, Electric field, Y component, Electric field, Z component, Tangential electric field, X component, Tangential electric field, Y component, Tangential electric field, Z component, Electric field, x component, Electric field, y component, Electric field, z component, Tangential electric field, x component, Tangential electric field, y component, Tangential electric field, z component, Electric potential
% Length unit:        mm
% x
1.3300000000000003
% y
12.200000000000001
% z
1.66
% es.normE (V/m) @ t=0
11.004057772614612
% es.EX (V/m) @ t=0
6.983169196410847
% es.EY (V/m) @ t=0
2.08821140099818
% es.EZ (V/m) @ t=0
-7.649140870751925
% es.tEX (V/m) @ t=0
6.983169196410832
% es.tEY (V/m) @ t=0
0
% es.tEZ (V/m) @ t=0
-7.649140870751902
% es.Ex (V/m) @ t=0
6.983169196410847
% es.Ey (V/m) @ t=0
2.08821140099818
% es.Ez (V/m) @ t=0
-7.649140870751925
% es.tEx (V/m) @ t=0
6.983169196410832
% es.tEy (V/m) @ t=0
0
% es.tEz (V/m) @ t=0
-7.649140870751902
% V (V) @ t=0
0.00942583896655488
% es.normE (V/m) @ t=0.02
9.557106991527373
% es.EX (V/m) @ t=0.02
6.0649349996028885
% es.EY (V/m) @ t=0.02
1.8136273840042128
% es.EZ (V/m) @ t=0.02
-6.6433364161757185
% es.tEX (V/m) @ t=0.02
6.064934999602879
% es.tEY (V/m) @ t=0.02
0
% es.tEZ (V/m) @ t=0.02
-6.643336416175696
% es.Ex (V/m) @ t=0.02
6.0649349996028885
% es.Ey (V/m) @ t=0.02
1.8136273840042128
% es.Ez (V/m) @ t=0.02
-6.6433364161757185
% es.tEx (V/m) @ t=0.02
6.064934999602879
% es.tEy (V/m) @ t=0.02
0
% es.tEz (V/m) @ t=0.02
-6.643336416175696
% V (V) @ t=0.02
0.008186411927464022
% es.normE (V/m) @ t=0.04
9.698816215004765
% es.EX (V/m) @ t=0.04
6.154863593284369
% es.EY (V/m) @ t=0.04
1.8405192807252995
% es.EZ (V/m) @ t=0.04
-6.741841339178949
% es.tEX (V/m) @ t=0.04
6.15486359328435
% es.tEY (V/m) @ t=0.04
0
% es.tEZ (V/m) @ t=0.04
-6.741841339178942
% es.Ex (V/m) @ t=0.04
6.154863593284369
% es.Ey (V/m) @ t=0.04
1.8405192807252995
% es.Ez (V/m) @ t=0.04
-6.741841339178949
% es.tEx (V/m) @ t=0.04
6.15486359328435
% es.tEy (V/m) @ t=0.04
0
% es.tEz (V/m) @ t=0.04
-6.741841339178942
% V (V) @ t=0.04
0.008307796752052756
% es.normE (V/m) @ t=0.06
9.842650637963436
% es.EX (V/m) @ t=0.06
6.246140842538125
% es.EY (V/m) @ t=0.06
1.867814331438277
% es.EZ (V/m) @ t=0.06
-6.841823524944004
% es.tEX (V/m) @ t=0.06
6.246140842538114
% es.tEY (V/m) @ t=0.06
0
% es.tEZ (V/m) @ t=0.06
-6.8418235249439885
% es.Ex (V/m) @ t=0.06
6.246140842538125
% es.Ey (V/m) @ t=0.06
1.867814331438277
% es.Ez (V/m) @ t=0.06
-6.841823524944004
% es.tEx (V/m) @ t=0.06
6.246140842538114
% es.tEy (V/m) @ t=0.06
0
% es.tEz (V/m) @ t=0.06
-6.8418235249439885
% V (V) @ t=0.06
0.008431002299099993
% es.normE (V/m) @ t=0.08
9.99015773060625
% es.EX (V/m) @ t=0.08
6.339748757818054
% es.EY (V/m) @ t=0.08
1.8958065451861845
% es.EZ (V/m) @ t=0.08
-6.944358666260374
% es.tEX (V/m) @ t=0.08
6.339748757818042
% es.tEY (V/m) @ t=0.08
0
% es.tEZ (V/m) @ t=0.08
-6.944358666260366
% es.Ex (V/m) @ t=0.08
6.339748757818054
% es.Ey (V/m) @ t=0.08
1.8958065451861845
% es.Ez (V/m) @ t=0.08
-6.944358666260374
% es.tEx (V/m) @ t=0.08
6.339748757818042
% es.tEy (V/m) @ t=0.08
0
% es.tEz (V/m) @ t=0.08
-6.944358666260366
% V (V) @ t=0.08
0.008557353288738702
% es.normE (V/m) @ t=0.1
10.140221516019558
% es.EX (V/m) @ t=0.1
6.434979143260572
% es.EY (V/m) @ t=0.1
1.924284082103437
% es.EZ (V/m) @ t=0.1
-7.048671022399433
% es.tEX (V/m) @ t=0.1
6.434979143260553
% es.tEY (V/m) @ t=0.1
0
% es.tEZ (V/m) @ t=0.1
-7.048671022399418
% es.Ex (V/m) @ t=0.1
6.434979143260572
% es.Ey (V/m) @ t=0.1
1.924284082103437
% es.Ez (V/m) @ t=0.1
-7.048671022399433
% es.tEx (V/m) @ t=0.1
6.434979143260553
% es.tEy (V/m) @ t=0.1
0
% es.tEz (V/m) @ t=0.1
-7.048671022399418
% V (V) @ t=0.1
0.008685893947208357
% es.normE (V/m) @ t=0.12
10.290285301432878
% es.EX (V/m) @ t=0.12
6.530209528703093
% es.EY (V/m) @ t=0.12
1.9527616190206754
% es.EZ (V/m) @ t=0.12
-7.152983378538492
% es.tEX (V/m) @ t=0.12
6.530209528703079
% es.tEY (V/m) @ t=0.12
0
% es.tEZ (V/m) @ t=0.12
-7.152983378538478
% es.Ex (V/m) @ t=0.12
6.530209528703093
% es.Ey (V/m) @ t=0.12
1.9527616190206754
% es.Ez (V/m) @ t=0.12
-7.152983378538492
% es.tEx (V/m) @ t=0.12
6.530209528703079
% es.tEy (V/m) @ t=0.12
0
% es.tEz (V/m) @ t=0.12
-7.152983378538478
% V (V) @ t=0.12
0.008814434605678012
% es.normE (V/m) @ t=0.14
10.442901115655623
% es.EX (V/m) @ t=0.14
6.627059427084342
% es.EY (V/m) @ t=0.14
1.9817235407969251
% es.EZ (V/m) @ t=0.14
-7.259069704786403
% es.tEX (V/m) @ t=0.14
6.627059427084338
% es.tEY (V/m) @ t=0.14
0
% es.tEZ (V/m) @ t=0.14
-7.259069704786388
% es.Ex (V/m) @ t=0.14
6.627059427084342
% es.Ey (V/m) @ t=0.14
1.9817235407969251
% es.Ez (V/m) @ t=0.14
-7.259069704786403
% es.tEx (V/m) @ t=0.14
6.627059427084338
% es.tEy (V/m) @ t=0.14
0
% es.tEz (V/m) @ t=0.14
-7.259069704786388
% V (V) @ t=0.14
0.008945161063458542
% es.normE (V/m) @ t=0.16
10.606459834104445
% es.EX (V/m) @ t=0.16
6.730853673004246
% es.EY (V/m) @ t=0.16
2.0127624677783826
% es.EZ (V/m) @ t=0.16
-7.372762679097869
% es.tEX (V/m) @ t=0.16
6.730853673004235
% es.tEY (V/m) @ t=0.16
0
% es.tEZ (V/m) @ t=0.16
-7.372762679097854
% es.Ex (V/m) @ t=0.16
6.730853673004246
% es.Ey (V/m) @ t=0.16
2.0127624677783826
% es.Ez (V/m) @ t=0.16
-7.372762679097869
% es.tEx (V/m) @ t=0.16
6.730853673004235
% es.tEy (V/m) @ t=0.16
0
% es.tEz (V/m) @ t=0.16
-7.372762679097854
% V (V) @ t=0.16
0.009085260061403302
% es.normE (V/m) @ t=0.18
10.77001855255335
% es.EX (V/m) @ t=0.18
6.834647918924167
% es.EY (V/m) @ t=0.18
2.0438013947598437
% es.EZ (V/m) @ t=0.18
-7.48645565340931
% es.tEX (V/m) @ t=0.18
6.834647918924153
% es.tEY (V/m) @ t=0.18
0
% es.tEZ (V/m) @ t=0.18
-7.486455653409303
% es.Ex (V/m) @ t=0.18
6.834647918924167
% es.Ey (V/m) @ t=0.18
2.0438013947598437
% es.Ez (V/m) @ t=0.18
-7.48645565340931
% es.tEx (V/m) @ t=0.18
6.834647918924153
% es.tEy (V/m) @ t=0.18
0
% es.tEz (V/m) @ t=0.18
-7.486455653409303
% V (V) @ t=0.18
0.009225359059348058
% es.normE (V/m) @ t=0.2
10.933577271002335
% es.EX (V/m) @ t=0.2
6.938442164844065
% es.EY (V/m) @ t=0.2
2.0748403217412696
% es.EZ (V/m) @ t=0.2
-7.600148627720765
% es.tEX (V/m) @ t=0.2
6.938442164844043
% es.tEY (V/m) @ t=0.2
0
% es.tEZ (V/m) @ t=0.2
-7.600148627720744
% es.Ex (V/m) @ t=0.2
6.938442164844065
% es.Ey (V/m) @ t=0.2
2.0748403217412696
% es.Ez (V/m) @ t=0.2
-7.600148627720765
% es.tEx (V/m) @ t=0.2
6.938442164844043
% es.tEy (V/m) @ t=0.2
0
% es.tEz (V/m) @ t=0.2
-7.600148627720744
% V (V) @ t=0.2
0.009365458057292816
% es.normE (V/m) @ t=0.22
11.09713598945136
% es.EX (V/m) @ t=0.22
7.042236410763961
% es.EY (V/m) @ t=0.22
2.105879248722699
% es.EZ (V/m) @ t=0.22
-7.713841602032186
% es.tEX (V/m) @ t=0.22
7.042236410763961
% es.tEY (V/m) @ t=0.22
0
% es.tEZ (V/m) @ t=0.22
-7.71384160203217
% es.Ex (V/m) @ t=0.22
7.042236410763961
% es.Ey (V/m) @ t=0.22
2.105879248722699
% es.Ez (V/m) @ t=0.22
-7.713841602032186
% es.tEx (V/m) @ t=0.22
7.042236410763961
% es.tEy (V/m) @ t=0.22
0
% es.tEz (V/m) @ t=0.22
-7.71384160203217
% V (V) @ t=0.22
0.009505557055237574
% es.normE (V/m) @ t=0.24
11.260694707900502
% es.EX (V/m) @ t=0.24
7.146030656683866
% es.EY (V/m) @ t=0.24
2.1369181757041815
% es.EZ (V/m) @ t=0.24
-7.827534576343641
% es.tEX (V/m) @ t=0.24
7.146030656683851
% es.tEY (V/m) @ t=0.24
0
% es.tEZ (V/m) @ t=0.24
-7.827534576343627
% es.Ex (V/m) @ t=0.24
7.146030656683866
% es.Ey (V/m) @ t=0.24
2.1369181757041815
% es.Ez (V/m) @ t=0.24
-7.827534576343641
% es.tEx (V/m) @ t=0.24
7.146030656683851
% es.tEy (V/m) @ t=0.24
0
% es.tEz (V/m) @ t=0.24
-7.827534576343627
% V (V) @ t=0.24
0.009645656053182334
% es.normE (V/m) @ t=0.26
11.424253426349727
% es.EX (V/m) @ t=0.26
7.249824902603784
% es.EY (V/m) @ t=0.26
2.1679571026856213
% es.EZ (V/m) @ t=0.26
-7.9412275506551
% es.tEX (V/m) @ t=0.26
7.249824902603769
% es.tEY (V/m) @ t=0.26
0
% es.tEZ (V/m) @ t=0.26
-7.9412275506550785
% es.Ex (V/m) @ t=0.26
7.249824902603784
% es.Ey (V/m) @ t=0.26
2.1679571026856213
% es.Ez (V/m) @ t=0.26
-7.9412275506551
% es.tEx (V/m) @ t=0.26
7.249824902603769
% es.tEy (V/m) @ t=0.26
0
% es.tEz (V/m) @ t=0.26
-7.9412275506550785
% V (V) @ t=0.26
0.009785755051127089
% es.normE (V/m) @ t=0.28
11.593468178451614
% es.EX (V/m) @ t=0.28
7.357208464882191
% es.EY (V/m) @ t=0.28
2.200069343733444
% es.EZ (V/m) @ t=0.28
-8.058852146635079
% es.tEX (V/m) @ t=0.28
7.357208464882176
% es.tEY (V/m) @ t=0.28
0
% es.tEZ (V/m) @ t=0.28
-8.058852146635063
% es.Ex (V/m) @ t=0.28
7.357208464882191
% es.Ey (V/m) @ t=0.28
2.200069343733444
% es.Ez (V/m) @ t=0.28
-8.058852146635079
% es.tEx (V/m) @ t=0.28
7.357208464882176
% es.tEy (V/m) @ t=0.28
0
% es.tEz (V/m) @ t=0.28
-8.058852146635063
% V (V) @ t=0.28
0.009930698923649717
% es.normE (V/m) @ t=0.3
11.771597446199733
% es.EX (V/m) @ t=0.3
7.470249174695839
% es.EY (V/m) @ t=0.3
2.23387324286284
% es.EZ (V/m) @ t=0.3
-8.182673400031064
% es.tEX (V/m) @ t=0.3
7.47024917469581
% es.tEY (V/m) @ t=0.3
0
% es.tEZ (V/m) @ t=0.3
-8.182673400031042
% es.Ex (V/m) @ t=0.3
7.470249174695839
% es.Ey (V/m) @ t=0.3
2.23387324286284
% es.Ez (V/m) @ t=0.3
-8.182673400031064
% es.tEx (V/m) @ t=0.3
7.47024917469581
% es.tEy (V/m) @ t=0.3
0
% es.tEz (V/m) @ t=0.3
-8.182673400031042
% V (V) @ t=0.3
0.010083278838119877
% es.normE (V/m) @ t=0.32
11.949726713947882
% es.EX (V/m) @ t=0.32
7.583289884509443
% es.EY (V/m) @ t=0.32
2.2676771419922463
% es.EZ (V/m) @ t=0.32
-8.306494653427066
% es.tEX (V/m) @ t=0.32
7.583289884509435
% es.tEY (V/m) @ t=0.32
0
% es.tEZ (V/m) @ t=0.32
-8.306494653427052
% es.Ex (V/m) @ t=0.32
7.583289884509443
% es.Ey (V/m) @ t=0.32
2.2676771419922463
% es.Ez (V/m) @ t=0.32
-8.306494653427066
% es.tEx (V/m) @ t=0.32
7.583289884509435
% es.tEy (V/m) @ t=0.32
0
% es.tEz (V/m) @ t=0.32
-8.306494653427052
% V (V) @ t=0.32
0.01023585875259004
% es.normE (V/m) @ t=0.34
12.127855981696108
% es.EX (V/m) @ t=0.34
7.696330594323092
% es.EY (V/m) @ t=0.34
2.301481041121681
% es.EZ (V/m) @ t=0.34
-8.430315906823056
% es.tEX (V/m) @ t=0.34
7.696330594323084
% es.tEY (V/m) @ t=0.34
0
% es.tEZ (V/m) @ t=0.34
-8.430315906823028
% es.Ex (V/m) @ t=0.34
7.696330594323092
% es.Ey (V/m) @ t=0.34
2.301481041121681
% es.Ez (V/m) @ t=0.34
-8.430315906823056
% es.tEx (V/m) @ t=0.34
7.696330594323084
% es.tEy (V/m) @ t=0.34
0
% es.tEz (V/m) @ t=0.34
-8.430315906823028
% V (V) @ t=0.34
0.010388438667060204
% es.normE (V/m) @ t=0.36
12.305985249444358
% es.EX (V/m) @ t=0.36
7.809371304136711
% es.EY (V/m) @ t=0.36
2.3352849402510665
% es.EZ (V/m) @ t=0.36
-8.554137160219042
% es.tEX (V/m) @ t=0.36
7.809371304136696
% es.tEY (V/m) @ t=0.36
0
% es.tEZ (V/m) @ t=0.36
-8.554137160219033
% es.Ex (V/m) @ t=0.36
7.809371304136711
% es.Ey (V/m) @ t=0.36
2.3352849402510665
% es.Ez (V/m) @ t=0.36
-8.554137160219042
% es.tEx (V/m) @ t=0.36
7.809371304136696
% es.tEy (V/m) @ t=0.36
0
% es.tEz (V/m) @ t=0.36
-8.554137160219033
% V (V) @ t=0.36
0.010541018581530365
% es.normE (V/m) @ t=0.38
12.484114517192703
% es.EX (V/m) @ t=0.38
7.922412013950366
% es.EY (V/m) @ t=0.38
2.3690888393804657
% es.EZ (V/m) @ t=0.38
-8.677958413615052
% es.tEX (V/m) @ t=0.38
7.922412013950351
% es.tEY (V/m) @ t=0.38
0
% es.tEZ (V/m) @ t=0.38
-8.677958413615045
% es.Ex (V/m) @ t=0.38
7.922412013950366
% es.Ey (V/m) @ t=0.38
2.3690888393804657
% es.Ez (V/m) @ t=0.38
-8.677958413615052
% es.tEx (V/m) @ t=0.38
7.922412013950351
% es.tEy (V/m) @ t=0.38
0
% es.tEz (V/m) @ t=0.38
-8.677958413615045
% V (V) @ t=0.38
0.010693598496000526
% es.normE (V/m) @ t=0.4
12.662243784941058
% es.EX (V/m) @ t=0.4
8.03545272376397
% es.EY (V/m) @ t=0.4
2.4028927385098973
% es.EZ (V/m) @ t=0.4
-8.801779667011068
% es.tEX (V/m) @ t=0.4
8.035452723763955
% es.tEY (V/m) @ t=0.4
0
% es.tEZ (V/m) @ t=0.4
-8.80177966701104
% es.Ex (V/m) @ t=0.4
8.03545272376397
% es.Ey (V/m) @ t=0.4
2.4028927385098973
% es.Ez (V/m) @ t=0.4
-8.801779667011068
% es.tEx (V/m) @ t=0.4
8.035452723763955
% es.tEy (V/m) @ t=0.4
0
% es.tEz (V/m) @ t=0.4
-8.80177966701104
% V (V) @ t=0.4
0.010846178410470688
% es.normE (V/m) @ t=0.42
12.84957416322117
% es.EX (V/m) @ t=0.42
8.154332445615948
% es.EY (V/m) @ t=0.42
2.4384429192992454
% es.EZ (V/m) @ t=0.42
-8.931996805584642
% es.tEX (V/m) @ t=0.42
8.154332445615939
% es.tEY (V/m) @ t=0.42
0
% es.tEZ (V/m) @ t=0.42
-8.931996805584612
% es.Ex (V/m) @ t=0.42
8.154332445615948
% es.Ey (V/m) @ t=0.42
2.4384429192992454
% es.Ez (V/m) @ t=0.42
-8.931996805584642
% es.tEx (V/m) @ t=0.42
8.154332445615939
% es.tEy (V/m) @ t=0.42
0
% es.tEz (V/m) @ t=0.42
-8.931996805584612
% V (V) @ t=0.42
0.011006639311404835
% es.normE (V/m) @ t=0.44
13.043371428467905
% es.EX (V/m) @ t=0.44
8.277316045007257
% es.EY (V/m) @ t=0.44
2.4752204525986827
% es.EZ (V/m) @ t=0.44
-9.066709213109924
% es.tEX (V/m) @ t=0.44
8.277316045007229
% es.tEY (V/m) @ t=0.44
0
% es.tEZ (V/m) @ t=0.44
-9.066709213109895
% es.Ex (V/m) @ t=0.44
8.277316045007257
% es.Ey (V/m) @ t=0.44
2.4752204525986827
% es.Ez (V/m) @ t=0.44
-9.066709213109924
% es.tEx (V/m) @ t=0.44
8.277316045007229
% es.tEy (V/m) @ t=0.44
0
% es.tEz (V/m) @ t=0.44
-9.066709213109895
% V (V) @ t=0.44
0.011172639266398996
% es.normE (V/m) @ t=0.46
13.237168693714755
% es.EX (V/m) @ t=0.46
8.400299644398586
% es.EY (V/m) @ t=0.46
2.5119979858981236
% es.EZ (V/m) @ t=0.46
-9.201421620635212
% es.tEX (V/m) @ t=0.46
8.400299644398569
% es.tEY (V/m) @ t=0.46
0
% es.tEZ (V/m) @ t=0.46
-9.201421620635191
% es.Ex (V/m) @ t=0.46
8.400299644398586
% es.Ey (V/m) @ t=0.46
2.5119979858981236
% es.Ez (V/m) @ t=0.46
-9.201421620635212
% es.tEx (V/m) @ t=0.46
8.400299644398569
% es.tEy (V/m) @ t=0.46
0
% es.tEz (V/m) @ t=0.46
-9.201421620635191
% V (V) @ t=0.46
0.011338639221393162
% es.normE (V/m) @ t=0.48
13.430965958961675
% es.EX (V/m) @ t=0.48
8.523283243789908
% es.EY (V/m) @ t=0.48
2.5487755191975436
% es.EZ (V/m) @ t=0.48
-9.33613402816048
% es.tEX (V/m) @ t=0.48
8.523283243789873
% es.tEY (V/m) @ t=0.48
0
% es.tEZ (V/m) @ t=0.48
-9.336134028160465
% es.Ex (V/m) @ t=0.48
8.523283243789908
% es.Ey (V/m) @ t=0.48
2.5487755191975436
% es.Ez (V/m) @ t=0.48
-9.33613402816048
% es.tEx (V/m) @ t=0.48
8.523283243789873
% es.tEy (V/m) @ t=0.48
0
% es.tEz (V/m) @ t=0.48
-9.336134028160465
% V (V) @ t=0.48
0.011504639176387324
% es.normE (V/m) @ t=0.5
13.624763224208671
% es.EX (V/m) @ t=0.5
8.646266843181198
% es.EY (V/m) @ t=0.5
2.5855530524969845
% es.EZ (V/m) @ t=0.5
-9.470846435685756
% es.tEX (V/m) @ t=0.5
8.646266843181175
% es.tEY (V/m) @ t=0.5
0
% es.tEZ (V/m) @ t=0.5
-9.470846435685734
% es.Ex (V/m) @ t=0.5
8.646266843181198
% es.Ey (V/m) @ t=0.5
2.5855530524969845
% es.Ez (V/m) @ t=0.5
-9.470846435685756
% es.tEx (V/m) @ t=0.5
8.646266843181175
% es.tEy (V/m) @ t=0.5
0
% es.tEz (V/m) @ t=0.5
-9.470846435685734
% V (V) @ t=0.5
0.011670639131381486
% es.normE (V/m) @ t=0.52
13.818560489455786
% es.EX (V/m) @ t=0.52
8.76925044257252
% es.EY (V/m) @ t=0.52
2.622330585796408
% es.EZ (V/m) @ t=0.52
-9.605558843211053
% es.tEX (V/m) @ t=0.52
8.7692504425725
% es.tEY (V/m) @ t=0.52
0
% es.tEZ (V/m) @ t=0.52
-9.60555884321103
% es.Ex (V/m) @ t=0.52
8.76925044257252
% es.Ey (V/m) @ t=0.52
2.622330585796408
% es.Ez (V/m) @ t=0.52
-9.605558843211053
% es.tEx (V/m) @ t=0.52
8.7692504425725
% es.tEy (V/m) @ t=0.52
0
% es.tEz (V/m) @ t=0.52
-9.60555884321103
% V (V) @ t=0.52
0.01183663908637565
% es.normE (V/m) @ t=0.54
14.012357754702961
% es.EX (V/m) @ t=0.54
8.892234041963832
% es.EY (V/m) @ t=0.54
2.6591081190958277
% es.EZ (V/m) @ t=0.54
-9.74027125073632
% es.tEX (V/m) @ t=0.54
8.892234041963825
% es.tEY (V/m) @ t=0.54
0
% es.tEZ (V/m) @ t=0.54
-9.740271250736305
% es.Ex (V/m) @ t=0.54
8.892234041963832
% es.Ey (V/m) @ t=0.54
2.6591081190958277
% es.Ez (V/m) @ t=0.54
-9.74027125073632
% es.tEx (V/m) @ t=0.54
8.892234041963825
% es.tEy (V/m) @ t=0.54
0
% es.tEz (V/m) @ t=0.54
-9.740271250736305
% V (V) @ t=0.54
0.012002639041369811
% es.normE (V/m) @ t=0.56
14.211967876333095
% es.EX (V/m) @ t=0.56
9.0189065939711
% es.EY (V/m) @ t=0.56
2.6969855801841267
% es.EZ (V/m) @ t=0.56
-9.879024155597895
% es.tEX (V/m) @ t=0.56
9.01890659397109
% es.tEY (V/m) @ t=0.56
0
% es.tEZ (V/m) @ t=0.56
-9.879024155597866
% es.Ex (V/m) @ t=0.56
9.0189065939711
% es.Ey (V/m) @ t=0.56
2.6969855801841267
% es.Ez (V/m) @ t=0.56
-9.879024155597895
% es.tEx (V/m) @ t=0.56
9.01890659397109
% es.tEy (V/m) @ t=0.56
0
% es.tEz (V/m) @ t=0.56
-9.879024155597866
% V (V) @ t=0.56
0.012173625464389477
% es.normE (V/m) @ t=0.58
14.414898007037575
% es.EX (V/m) @ t=0.58
9.147686088821612
% es.EY (V/m) @ t=0.58
2.735491264300504
% es.EZ (V/m) @ t=0.58
-10.020084787836824
% es.tEX (V/m) @ t=0.58
9.147686088821597
% es.tEY (V/m) @ t=0.58
0
% es.tEZ (V/m) @ t=0.58
-10.020084787836817
% es.Ex (V/m) @ t=0.58
9.147686088821612
% es.Ey (V/m) @ t=0.58
2.735491264300504
% es.Ez (V/m) @ t=0.58
-10.020084787836824
% es.tEx (V/m) @ t=0.58
9.147686088821597
% es.tEy (V/m) @ t=0.58
0
% es.tEz (V/m) @ t=0.58
-10.020084787836817
% V (V) @ t=0.58
0.012347459905319139
% es.normE (V/m) @ t=0.6
14.61977677700337
% es.EX (V/m) @ t=0.6
9.277702228346751
% es.EY (V/m) @ t=0.6
2.774365676341619
% es.EZ (V/m) @ t=0.6
-10.162499912809603
% es.tEX (V/m) @ t=0.6
9.277702228346719
% es.tEY (V/m) @ t=0.6
0
% es.tEZ (V/m) @ t=0.6
-10.162499912809581
% es.Ex (V/m) @ t=0.6
9.277702228346751
% es.Ey (V/m) @ t=0.6
2.774365676341619
% es.Ez (V/m) @ t=0.6
-10.162499912809603
% es.tEx (V/m) @ t=0.6
9.277702228346719
% es.tEy (V/m) @ t=0.6
0
% es.tEz (V/m) @ t=0.6
-10.162499912809581
% V (V) @ t=0.6
0.012522965955990333
% es.normE (V/m) @ t=0.62
14.826604186231972
% es.EX (V/m) @ t=0.62
9.408955012546475
% es.EY (V/m) @ t=0.62
2.813608816307503
% es.EZ (V/m) @ t=0.62
-10.306269530516193
% es.tEX (V/m) @ t=0.62
9.408955012546429
% es.tEY (V/m) @ t=0.62
0
% es.tEZ (V/m) @ t=0.62
-10.306269530516186
% es.Ex (V/m) @ t=0.62
9.408955012546475
% es.Ey (V/m) @ t=0.62
2.813608816307503
% es.Ez (V/m) @ t=0.62
-10.306269530516193
% es.tEx (V/m) @ t=0.62
9.408955012546429
% es.tEy (V/m) @ t=0.62
0
% es.tEz (V/m) @ t=0.62
-10.306269530516186
% V (V) @ t=0.62
0.012700143616403052
% es.normE (V/m) @ t=0.64
15.035380234725174
% es.EX (V/m) @ t=0.64
9.541444441420811
% es.EY (V/m) @ t=0.64
2.8532206841981345
% es.EZ (V/m) @ t=0.64
-10.451393640956592
% es.tEX (V/m) @ t=0.64
9.541444441420794
% es.tEY (V/m) @ t=0.64
0
% es.tEZ (V/m) @ t=0.64
-10.451393640956578
% es.Ex (V/m) @ t=0.64
9.541444441420811
% es.Ey (V/m) @ t=0.64
2.8532206841981345
% es.Ez (V/m) @ t=0.64
-10.451393640956592
% es.tEx (V/m) @ t=0.64
9.541444441420794
% es.tEy (V/m) @ t=0.64
0
% es.tEz (V/m) @ t=0.64
-10.451393640956578
% V (V) @ t=0.64
0.012878992886557302
% es.normE (V/m) @ t=0.66
15.246104922485015
% es.EX (V/m) @ t=0.66
9.675170514969777
% es.EY (V/m) @ t=0.66
2.8932012800135016
% es.EZ (V/m) @ t=0.66
-10.597872244130805
% es.tEX (V/m) @ t=0.66
9.675170514969757
% es.tEY (V/m) @ t=0.66
0
% es.tEZ (V/m) @ t=0.66
-10.59787224413079
% es.Ex (V/m) @ t=0.66
9.675170514969777
% es.Ey (V/m) @ t=0.66
2.8932012800135016
% es.Ez (V/m) @ t=0.66
-10.597872244130805
% es.tEx (V/m) @ t=0.66
9.675170514969757
% es.tEy (V/m) @ t=0.66
0
% es.tEz (V/m) @ t=0.66
-10.59787224413079
% V (V) @ t=0.66
0.01305951376645308
% es.normE (V/m) @ t=0.68
15.458778249513662
% es.EX (V/m) @ t=0.68
9.810133233193365
% es.EY (V/m) @ t=0.68
2.9335506037536003
% es.EZ (V/m) @ t=0.68
-10.745705340038818
% es.tEX (V/m) @ t=0.68
9.81013323319334
% es.tEY (V/m) @ t=0.68
0
% es.tEZ (V/m) @ t=0.68
-10.745705340038796
% es.Ex (V/m) @ t=0.68
9.810133233193365
% es.Ey (V/m) @ t=0.68
2.9335506037536003
% es.Ez (V/m) @ t=0.68
-10.745705340038818
% es.tEx (V/m) @ t=0.68
9.81013323319334
% es.tEy (V/m) @ t=0.68
0
% es.tEz (V/m) @ t=0.68
-10.745705340038796
% V (V) @ t=0.68
0.013241706256090391
% es.normE (V/m) @ t=0.7
15.673400215813592
% es.EX (V/m) @ t=0.7
9.946332596091548
% es.EY (V/m) @ t=0.7
2.974268655418455
% es.EZ (V/m) @ t=0.7
-10.894892928680665
% es.tEX (V/m) @ t=0.7
9.94633259609152
% es.tEY (V/m) @ t=0.7
0
% es.tEZ (V/m) @ t=0.7
-10.894892928680637
% es.Ex (V/m) @ t=0.7
9.946332596091548
% es.Ey (V/m) @ t=0.7
2.974268655418455
% es.Ez (V/m) @ t=0.7
-10.894892928680665
% es.tEx (V/m) @ t=0.7
9.94633259609152
% es.tEy (V/m) @ t=0.7
0
% es.tEz (V/m) @ t=0.7
-10.894892928680637
% V (V) @ t=0.7
0.01342557035546923
% es.normE (V/m) @ t=0.72
15.889970821387356
% es.EX (V/m) @ t=0.72
10.083768603664357
% es.EY (V/m) @ t=0.72
3.0153554350080407
% es.EZ (V/m) @ t=0.72
-11.045435010056316
% es.tEX (V/m) @ t=0.72
10.083768603664337
% es.tEY (V/m) @ t=0.72
0
% es.tEZ (V/m) @ t=0.72
-11.045435010056293
% es.Ex (V/m) @ t=0.72
10.083768603664357
% es.Ey (V/m) @ t=0.72
3.0153554350080407
% es.Ez (V/m) @ t=0.72
-11.045435010056316
% es.tEx (V/m) @ t=0.72
10.083768603664337
% es.tEy (V/m) @ t=0.72
0
% es.tEz (V/m) @ t=0.72
-11.045435010056293
% V (V) @ t=0.72
0.013611106064589594
% es.normE (V/m) @ t=0.74
16.108490066237724
% es.EX (V/m) @ t=0.74
10.222441255911773
% es.EY (V/m) @ t=0.74
3.056810942522345
% es.EZ (V/m) @ t=0.74
-11.197331584165775
% es.tEX (V/m) @ t=0.74
10.22244125591174
% es.tEY (V/m) @ t=0.74
0
% es.tEZ (V/m) @ t=0.74
-11.197331584165747
% es.Ex (V/m) @ t=0.74
10.222441255911773
% es.Ey (V/m) @ t=0.74
3.056810942522345
% es.Ez (V/m) @ t=0.74
-11.197331584165775
% es.tEx (V/m) @ t=0.74
10.22244125591174
% es.tEy (V/m) @ t=0.74
0
% es.tEz (V/m) @ t=0.74
-11.197331584165747
% V (V) @ t=0.74
0.013798313383451487
% es.normE (V/m) @ t=0.76
16.328957950367613
% es.EX (V/m) @ t=0.76
10.36235055283381
% es.EY (V/m) @ t=0.76
3.098635177961451
% es.EZ (V/m) @ t=0.76
-11.350582651009038
% es.tEX (V/m) @ t=0.76
10.362350552833778
% es.tEY (V/m) @ t=0.76
0
% es.tEZ (V/m) @ t=0.76
-11.350582651009008
% es.Ex (V/m) @ t=0.76
10.36235055283381
% es.Ey (V/m) @ t=0.76
3.098635177961451
% es.Ez (V/m) @ t=0.76
-11.350582651009038
% es.tEx (V/m) @ t=0.76
10.362350552833778
% es.tEy (V/m) @ t=0.76
0
% es.tEz (V/m) @ t=0.76
-11.350582651009008
% V (V) @ t=0.76
0.013987192312054912
% es.normE (V/m) @ t=0.78
16.551374473780058
% es.EX (V/m) @ t=0.78
10.503496494430449
% es.EY (V/m) @ t=0.78
3.140828141325285
% es.EZ (V/m) @ t=0.78
-11.505188210586127
% es.tEX (V/m) @ t=0.78
10.503496494430422
% es.tEY (V/m) @ t=0.78
0
% es.tEZ (V/m) @ t=0.78
-11.505188210586098
% es.Ex (V/m) @ t=0.78
10.503496494430449
% es.Ey (V/m) @ t=0.78
3.140828141325285
% es.Ez (V/m) @ t=0.78
-11.505188210586127
% es.tEx (V/m) @ t=0.78
10.503496494430422
% es.tEy (V/m) @ t=0.78
0
% es.tEz (V/m) @ t=0.78
-11.505188210586098
% V (V) @ t=0.78
0.014177742850399867
% es.normE (V/m) @ t=0.8
16.77573963647822
% es.EX (V/m) @ t=0.8
10.645879080701699
% es.EY (V/m) @ t=0.8
3.1833898326138574
% es.EZ (V/m) @ t=0.8
-11.661148262897008
% es.tEX (V/m) @ t=0.8
10.645879080701672
% es.tEY (V/m) @ t=0.8
0
% es.tEZ (V/m) @ t=0.8
-11.66114826289698
% es.Ex (V/m) @ t=0.8
10.645879080701699
% es.Ey (V/m) @ t=0.8
3.1833898326138574
% es.Ez (V/m) @ t=0.8
-11.661148262897008
% es.tEx (V/m) @ t=0.8
10.645879080701672
% es.tEy (V/m) @ t=0.8
0
% es.tEz (V/m) @ t=0.8
-11.66114826289698
% V (V) @ t=0.8
0.014369964998486348
% es.normE (V/m) @ t=0.82
17.00275156429761
% es.EX (V/m) @ t=0.82
10.789941266873553
% es.EY (V/m) @ t=0.82
3.2264547612711727
% es.EZ (V/m) @ t=0.82
-11.81894817610237
% es.tEX (V/m) @ t=0.82
10.78994126687354
% es.tEY (V/m) @ t=0.82
0
% es.tEZ (V/m) @ t=0.82
-11.818948176102326
% es.Ex (V/m) @ t=0.82
10.789941266873553
% es.Ey (V/m) @ t=0.82
3.2264547612711727
% es.Ez (V/m) @ t=0.82
-11.81894817610237
% es.tEx (V/m) @ t=0.82
10.78994126687354
% es.tEy (V/m) @ t=0.82
0
% es.tEz (V/m) @ t=0.82
-11.818948176102326
% V (V) @ t=0.82
0.014564452075218587
% es.normE (V/m) @ t=0.84
17.235123598156402
% es.EX (V/m) @ t=0.84
10.937404645942921
% es.EY (V/m) @ t=0.84
3.270545712678559
% es.EZ (V/m) @ t=0.84
-11.98047438561824
% es.tEX (V/m) @ t=0.84
10.937404645942902
% es.tEY (V/m) @ t=0.84
0
% es.tEZ (V/m) @ t=0.84
-11.980474385618226
% es.Ex (V/m) @ t=0.84
10.937404645942921
% es.Ey (V/m) @ t=0.84
3.270545712678559
% es.Ez (V/m) @ t=0.84
-11.98047438561824
% es.tEx (V/m) @ t=0.84
10.937404645942902
% es.tEy (V/m) @ t=0.84
0
% es.tEz (V/m) @ t=0.84
-11.980474385618226
% V (V) @ t=0.84
0.014763510078156777
% es.normE (V/m) @ t=0.86
17.46999328571927
% es.EX (V/m) @ t=0.86
11.086453014928498
% es.EY (V/m) @ t=0.86
3.315111171832241
% es.EZ (V/m) @ t=0.86
-12.14373678714431
% es.tEX (V/m) @ t=0.86
11.086453014928477
% es.tEY (V/m) @ t=0.86
0
% es.tEZ (V/m) @ t=0.86
-12.143736787144281
% es.Ex (V/m) @ t=0.86
11.086453014928498
% es.Ey (V/m) @ t=0.86
3.315111171832241
% es.Ez (V/m) @ t=0.86
-12.14373678714431
% es.tEx (V/m) @ t=0.86
11.086453014928477
% es.tEy (V/m) @ t=0.86
0
% es.tEz (V/m) @ t=0.86
-12.143736787144281
% V (V) @ t=0.86
0.014964706283857477
% es.normE (V/m) @ t=0.88
17.707360626985544
% es.EX (V/m) @ t=0.88
11.23708637383034
% es.EY (V/m) @ t=0.88
3.3601511387321956
% es.EZ (V/m) @ t=0.88
-12.308735380680384
% es.tEX (V/m) @ t=0.88
11.237086373830312
% es.tEY (V/m) @ t=0.88
0
% es.tEZ (V/m) @ t=0.88
-12.308735380680353
% es.Ex (V/m) @ t=0.88
11.23708637383034
% es.Ey (V/m) @ t=0.88
3.3601511387321956
% es.Ez (V/m) @ t=0.88
-12.308735380680384
% es.tEx (V/m) @ t=0.88
11.237086373830312
% es.tEy (V/m) @ t=0.88
0
% es.tEz (V/m) @ t=0.88
-12.308735380680353
% V (V) @ t=0.88
0.015168040692320684
% es.normE (V/m) @ t=0.9
17.947225621954832
% es.EX (V/m) @ t=0.9
11.389304722648395
% es.EY (V/m) @ t=0.9
3.4056656133785523
% es.EZ (V/m) @ t=0.9
-12.475470166226525
% es.tEX (V/m) @ t=0.9
11.38930472264838
% es.tEY (V/m) @ t=0.9
0
% es.tEZ (V/m) @ t=0.9
-12.475470166226497
% es.Ex (V/m) @ t=0.9
11.389304722648395
% es.Ey (V/m) @ t=0.9
3.4056656133785523
% es.Ez (V/m) @ t=0.9
-12.475470166226525
% es.tEx (V/m) @ t=0.9
11.38930472264838
% es.tEy (V/m) @ t=0.9
0
% es.tEz (V/m) @ t=0.9
-12.475470166226497
% V (V) @ t=0.9
0.015373513303546403
% es.normE (V/m) @ t=0.92
18.18958827062681
% es.EX (V/m) @ t=0.92
11.543108061382764
% es.EY (V/m) @ t=0.92
3.451654595771097
% es.EZ (V/m) @ t=0.92
-12.643941143782717
% es.tEX (V/m) @ t=0.92
11.54310806138273
% es.tEY (V/m) @ t=0.92
0
% es.tEZ (V/m) @ t=0.92
-12.643941143782673
% es.Ex (V/m) @ t=0.92
11.543108061382764
% es.Ey (V/m) @ t=0.92
3.451654595771097
% es.Ez (V/m) @ t=0.92
-12.643941143782717
% es.tEx (V/m) @ t=0.92
11.54310806138273
% es.tEy (V/m) @ t=0.92
0
% es.tEz (V/m) @ t=0.92
-12.643941143782673
% V (V) @ t=0.92
0.01558112411753463
% es.normE (V/m) @ t=0.94
18.434448573001163
% es.EX (V/m) @ t=0.94
11.69849639003331
% es.EY (V/m) @ t=0.94
3.498118085909952
% es.EZ (V/m) @ t=0.94
-12.814148313348976
% es.tEX (V/m) @ t=0.94
11.698496390033288
% es.tEY (V/m) @ t=0.94
0
% es.tEZ (V/m) @ t=0.94
-12.814148313348946
% es.Ex (V/m) @ t=0.94
11.69849639003331
% es.Ey (V/m) @ t=0.94
3.498118085909952
% es.Ez (V/m) @ t=0.94
-12.814148313348976
% es.tEx (V/m) @ t=0.94
11.698496390033288
% es.tEy (V/m) @ t=0.94
0
% es.tEz (V/m) @ t=0.94
-12.814148313348946
% V (V) @ t=0.94
0.015790873134285364
% es.normE (V/m) @ t=0.96
18.681806529077782
% es.EX (V/m) @ t=0.96
11.855469708600122
% es.EY (V/m) @ t=0.96
3.5450560837951084
% es.EZ (V/m) @ t=0.96
-12.986091674925277
% es.tEX (V/m) @ t=0.96
11.85546970860009
% es.tEY (V/m) @ t=0.96
0
% es.tEZ (V/m) @ t=0.96
-12.986091674925248
% es.Ex (V/m) @ t=0.96
11.855469708600122
% es.Ey (V/m) @ t=0.96
3.5450560837951084
% es.Ez (V/m) @ t=0.96
-12.986091674925277
% es.tEx (V/m) @ t=0.96
11.85546970860009
% es.tEy (V/m) @ t=0.96
0
% es.tEz (V/m) @ t=0.96
-12.986091674925248
% V (V) @ t=0.96
0.0160027603537986
% es.normE (V/m) @ t=0.98
18.93166213885661
% es.EX (V/m) @ t=0.98
12.014028017083167
% es.EY (V/m) @ t=0.98
3.592468589426616
% es.EZ (V/m) @ t=0.98
-13.159771228511682
% es.tEX (V/m) @ t=0.98
12.014028017083133
% es.tEY (V/m) @ t=0.98
0
% es.tEZ (V/m) @ t=0.98
-13.159771228511666
% es.Ex (V/m) @ t=0.98
12.014028017083167
% es.Ey (V/m) @ t=0.98
3.592468589426616
% es.Ez (V/m) @ t=0.98
-13.159771228511682
% es.tEx (V/m) @ t=0.98
12.014028017083133
% es.tEy (V/m) @ t=0.98
0
% es.tEz (V/m) @ t=0.98
-13.159771228511666
% V (V) @ t=0.98
0.016216785776074355
% es.normE (V/m) @ t=1
19.184015402337593
% es.EX (V/m) @ t=1
12.174171315482456
% es.EY (V/m) @ t=1
3.640355602804398
% es.EZ (V/m) @ t=1
-13.335186974108133
% es.tEX (V/m) @ t=1
12.174171315482422
% es.tEY (V/m) @ t=1
0
% es.tEZ (V/m) @ t=1
-13.335186974108105
% es.Ex (V/m) @ t=1
12.174171315482456
% es.Ey (V/m) @ t=1
3.640355602804398
% es.Ez (V/m) @ t=1
-13.335186974108133
% es.tEx (V/m) @ t=1
12.174171315482422
% es.tEy (V/m) @ t=1
0
% es.tEz (V/m) @ t=1
-13.335186974108105
% V (V) @ t=1
0.016432949401112614
% es.normE (V/m) @ t=1.02
19.438866319520805
% es.EX (V/m) @ t=1.02
12.335899603797994
% es.EY (V/m) @ t=1.02
3.6887171239284946
% es.EZ (V/m) @ t=1.02
-13.512338911714629
% es.tEX (V/m) @ t=1.02
12.335899603797987
% es.tEY (V/m) @ t=1.02
0
% es.tEZ (V/m) @ t=1.02
-13.512338911714599
% es.Ex (V/m) @ t=1.02
12.335899603797994
% es.Ey (V/m) @ t=1.02
3.6887171239284946
% es.Ez (V/m) @ t=1.02
-13.512338911714629
% es.tEx (V/m) @ t=1.02
12.335899603797987
% es.tEy (V/m) @ t=1.02
0
% es.tEz (V/m) @ t=1.02
-13.512338911714599
% V (V) @ t=1.02
0.016651251228913384
% es.normE (V/m) @ t=1.04
19.696214890406445
% es.EX (V/m) @ t=1.04
12.499212882029811
% es.EY (V/m) @ t=1.04
3.737553152798803
% es.EZ (V/m) @ t=1.04
-13.691227041331247
% es.tEX (V/m) @ t=1.04
12.499212882029767
% es.tEY (V/m) @ t=1.04
0
% es.tEZ (V/m) @ t=1.04
-13.691227041331217
% es.Ex (V/m) @ t=1.04
12.499212882029811
% es.Ey (V/m) @ t=1.04
3.737553152798803
% es.Ez (V/m) @ t=1.04
-13.691227041331247
% es.tEx (V/m) @ t=1.04
12.499212882029767
% es.tEy (V/m) @ t=1.04
0
% es.tEz (V/m) @ t=1.04
-13.691227041331217
% V (V) @ t=1.04
0.016871691259476657