% Model:              1x1--2 - Copy1.mph
% Version:            COMSOL 6.1.0.252
% Date:               Mar 28 2023, 12:27
% Dimension:          0
% Nodes:              14017
% Expressions:        14017
% Description:        Electric field norm, Electric field, X component, Electric field, Y component, Electric field, Z component, Tangential electric field, X component, Tangential electric field, Y component, Tangential electric field, Z component, Electric field, x component, Electric field, y component, Electric field, z component, Tangential electric field, x component, Tangential electric field, y component, Tangential electric field, z component, Electric potential
% Length unit:        mm
% x
1
% y
14.200000000000001
% z
2.0000000000000004
% es.normE (V/m) @ t=0
0.34635402285833733
% es.EX (V/m) @ t=0
0.25267306658232913
% es.EY (V/m) @ t=0
-0.008730818971169896
% es.EZ (V/m) @ t=0
-0.23673023333348908
% es.tEX (V/m) @ t=0
0.2526730665823287
% es.tEY (V/m) @ t=0
0
% es.tEZ (V/m) @ t=0
-0.2367302333334962
% es.Ex (V/m) @ t=0
0.25267306658232913
% es.Ey (V/m) @ t=0
-0.008730818971169896
% es.Ez (V/m) @ t=0
-0.23673023333348908
% es.tEx (V/m) @ t=0
0.2526730665823287
% es.tEy (V/m) @ t=0
0
% es.tEz (V/m) @ t=0
-0.2367302333334962
% V (V) @ t=0
0.02048017434934727
% es.normE (V/m) @ t=0.1
0.36622654184265135
% es.EX (V/m) @ t=0.1
0.26717050533144215
% es.EY (V/m) @ t=0.1
-0.009231764095741113
% es.EZ (V/m) @ t=0.1
-0.25031295524333075
% es.tEX (V/m) @ t=0.1
0.2671705053314417
% es.tEY (V/m) @ t=0.1
0
% es.tEZ (V/m) @ t=0.1
-0.25031295524333075
% es.Ex (V/m) @ t=0.1
0.26717050533144215
% es.Ey (V/m) @ t=0.1
-0.009231764095741113
% es.Ez (V/m) @ t=0.1
-0.25031295524333075
% es.tEx (V/m) @ t=0.1
0.2671705053314417
% es.tEy (V/m) @ t=0.1
0
% es.tEz (V/m) @ t=0.1
-0.25031295524333075
% V (V) @ t=0.1
0.0216552454043965
% es.normE (V/m) @ t=0.2
0.3913773926689584
% es.EX (V/m) @ t=0.2
0.2855183442240774
% es.EY (V/m) @ t=0.2
-0.009865845177898791
% es.EZ (V/m) @ t=0.2
-0.2675036517560443
% es.tEX (V/m) @ t=0.2
0.2855183442240694
% es.tEY (V/m) @ t=0.2
0
% es.tEZ (V/m) @ t=0.2
-0.2675036517560514
% es.Ex (V/m) @ t=0.2
0.2855183442240774
% es.Ey (V/m) @ t=0.2
-0.009865845177898791
% es.Ez (V/m) @ t=0.2
-0.2675036517560443
% es.tEx (V/m) @ t=0.2
0.2855183442240694
% es.tEy (V/m) @ t=0.2
0
% es.tEz (V/m) @ t=0.2
-0.2675036517560514
% V (V) @ t=0.2
0.023142762566329512
% es.normE (V/m) @ t=0.3
0.41753110096393337
% es.EX (V/m) @ t=0.3
0.3045976828745891
% es.EY (V/m) @ t=0.3
-0.010525239158845068
% es.EZ (V/m) @ t=0.3
-0.2853799067913414
% es.tEX (V/m) @ t=0.3
0.3045976828746024
% es.tEY (V/m) @ t=0.3
0
% es.tEZ (V/m) @ t=0.3
-0.2853799067913485
% es.Ex (V/m) @ t=0.3
0.3045976828745891
% es.Ey (V/m) @ t=0.3
-0.010525239158845068
% es.Ez (V/m) @ t=0.3
-0.2853799067913414
% es.tEx (V/m) @ t=0.3
0.3045976828746024
% es.tEy (V/m) @ t=0.3
0
% es.tEz (V/m) @ t=0.3
-0.2853799067913485
% V (V) @ t=0.3
0.024689714358390534
% es.normE (V/m) @ t=0.4
0.4452758087847685
% es.EX (V/m) @ t=0.4
0.32483852380832623
% es.EY (V/m) @ t=0.4
-0.011224481945109943
% es.EZ (V/m) @ t=0.4
-0.304342718565799
% es.tEX (V/m) @ t=0.4
0.3248385238083191
% es.tEY (V/m) @ t=0.4
0
% es.tEZ (V/m) @ t=0.4
-0.304342718565799
% es.Ex (V/m) @ t=0.4
0.32483852380832623
% es.Ey (V/m) @ t=0.4
-0.011224481945109943
% es.Ez (V/m) @ t=0.4
-0.304342718565799
% es.tEx (V/m) @ t=0.4
0.3248385238083191
% es.tEy (V/m) @ t=0.4
0
% es.tEz (V/m) @ t=0.4
-0.304342718565799
% V (V) @ t=0.4
0.026329686948581434
% es.normE (V/m) @ t=0.5
0.47416604698790965
% es.EX (V/m) @ t=0.5
0.34591523126996027
% es.EY (V/m) @ t=0.5
-0.01195254643117849
% es.EZ (V/m) @ t=0.5
-0.3240883051351915
% es.tEX (V/m) @ t=0.5
0.3459152312699594
% es.tEY (V/m) @ t=0.5
0
% es.tEZ (V/m) @ t=0.5
-0.3240883051351915
% es.Ex (V/m) @ t=0.5
0.34591523126996027
% es.Ey (V/m) @ t=0.5
-0.01195254643117849
% es.Ez (V/m) @ t=0.5
-0.3240883051351915
% es.tEx (V/m) @ t=0.5
0.3459152312699594
% es.tEy (V/m) @ t=0.5
0
% es.tEz (V/m) @ t=0.5
-0.3240883051351915
% V (V) @ t=0.5
0.028037171124287264
% es.normE (V/m) @ t=0.6
0.5037821386259959
% es.EX (V/m) @ t=0.6
0.36752147981743377
% es.EY (V/m) @ t=0.6
-0.012698903486342061
% es.EZ (V/m) @ t=0.6
-0.3443299913188369
% es.tEX (V/m) @ t=0.6
0.3675214798174329
% es.tEY (V/m) @ t=0.6
0
% es.tEZ (V/m) @ t=0.6
-0.344329991318844
% es.Ex (V/m) @ t=0.6
0.36752147981743377
% es.Ey (V/m) @ t=0.6
-0.012698903486342061
% es.Ez (V/m) @ t=0.6
-0.3443299913188369
% es.tEx (V/m) @ t=0.6
0.3675214798174329
% es.tEy (V/m) @ t=0.6
0
% es.tEz (V/m) @ t=0.6
-0.344329991318844
% V (V) @ t=0.6
0.029787556528819804
% es.normE (V/m) @ t=0.7
0.5343862208142512
% es.EX (V/m) @ t=0.7
0.38984796270459654
% es.EY (V/m) @ t=0.7
-0.013470328398426545
% es.EZ (V/m) @ t=0.7
-0.3652475177520742
% es.tEX (V/m) @ t=0.7
0.38984796270459565
% es.tEY (V/m) @ t=0.7
0
% es.tEZ (V/m) @ t=0.7
-0.3652475177520742
% es.Ex (V/m) @ t=0.7
0.38984796270459654
% es.Ey (V/m) @ t=0.7
-0.013470328398426545
% es.Ez (V/m) @ t=0.7
-0.3652475177520742
% es.tEx (V/m) @ t=0.7
0.38984796270459565
% es.tEy (V/m) @ t=0.7
0
% es.tEz (V/m) @ t=0.7
-0.3652475177520742
% V (V) @ t=0.7
0.03159703099965303
% es.normE (V/m) @ t=0.8
0.5657748311048029
% es.EX (V/m) @ t=0.8
0.41274635802548776
% es.EY (V/m) @ t=0.8
-0.014261658802880106
% es.EZ (V/m) @ t=0.8
-0.38670170485343647
% es.tEX (V/m) @ t=0.8
0.4127463580255011
% es.tEY (V/m) @ t=0.8
0
% es.tEZ (V/m) @ t=0.8
-0.3867017048534436
% es.Ex (V/m) @ t=0.8
0.41274635802548776
% es.Ey (V/m) @ t=0.8
-0.014261658802880106
% es.Ez (V/m) @ t=0.8
-0.38670170485343647
% es.tEx (V/m) @ t=0.8
0.4127463580255011
% es.tEy (V/m) @ t=0.8
0
% es.tEz (V/m) @ t=0.8
-0.3867017048534436
% V (V) @ t=0.8
0.03345342599322723
% es.normE (V/m) @ t=0.9
0.597918511788311
% es.EX (V/m) @ t=0.9
0.43619541160536013
% es.EY (V/m) @ t=0.9
-0.015072079238766634
% es.EZ (V/m) @ t=0.9
-0.4086721694231201
% es.tEX (V/m) @ t=0.9
0.43619541160535924
% es.tEY (V/m) @ t=0.9
0
% es.tEZ (V/m) @ t=0.9
-0.40867216942312723
% es.Ex (V/m) @ t=0.9
0.43619541160536013
% es.Ey (V/m) @ t=0.9
-0.015072079238766634
% es.Ez (V/m) @ t=0.9
-0.4086721694231201
% es.tEx (V/m) @ t=0.9
0.43619541160535924
% es.tEy (V/m) @ t=0.9
0
% es.tEz (V/m) @ t=0.9
-0.40867216942312723
% V (V) @ t=0.9
0.03535470007208806
% es.normE (V/m) @ t=1
0.6307484191537824
% es.EX (V/m) @ t=1
0.4601454516868966
% es.EY (V/m) @ t=1
-0.01589968394524277
% es.EZ (V/m) @ t=1
-0.4311112752031647
% es.tEX (V/m) @ t=1
0.4601454516869099
% es.tEY (V/m) @ t=1
0
% es.tEZ (V/m) @ t=1
-0.43111127520317893
% es.Ex (V/m) @ t=1
0.4601454516868966
% es.Ey (V/m) @ t=1
-0.01589968394524277
% es.Ez (V/m) @ t=1
-0.4311112752031647
% es.tEx (V/m) @ t=1
0.4601454516869099
% es.tEy (V/m) @ t=1
0
% es.tEz (V/m) @ t=1
-0.43111127520317893
% V (V) @ t=1
0.037296082324787885
% es.normE (V/m) @ t=1.1
0.6643066001475596
% es.EX (V/m) @ t=1.1
0.4846268157650986
% es.EY (V/m) @ t=1.1
-0.016745636883740644
% es.EZ (V/m) @ t=1.1
-0.4540481164880532
% es.tEX (V/m) @ t=1.1
0.4846268157650977
% es.tEY (V/m) @ t=1.1
0
% es.tEZ (V/m) @ t=1.1
-0.4540481164880674
% es.Ex (V/m) @ t=1.1
0.4846268157650986
% es.Ey (V/m) @ t=1.1
-0.016745636883740644
% es.Ez (V/m) @ t=1.1
-0.4540481164880532
% es.tEx (V/m) @ t=1.1
0.4846268157650977
% es.tEy (V/m) @ t=1.1
0
% es.tEz (V/m) @ t=1.1
-0.4540481164880674
% V (V) @ t=1.1
0.039280486630553106
% es.normE (V/m) @ t=1.2
0.6981798667408077
% es.EX (V/m) @ t=1.2
0.5093380220789809
% es.EY (V/m) @ t=1.2
-0.017599538604734732
% es.EZ (V/m) @ t=1.2
-0.47720033720418087
% es.tEX (V/m) @ t=1.2
0.5093380220790085
% es.tEY (V/m) @ t=1.2
0
% es.tEZ (V/m) @ t=1.2
-0.47720033720418087
% es.Ex (V/m) @ t=1.2
0.5093380220789809
% es.Ey (V/m) @ t=1.2
-0.017599538604734732
% es.Ez (V/m) @ t=1.2
-0.47720033720418087
% es.tEx (V/m) @ t=1.2
0.5093380220790085
% es.tEy (V/m) @ t=1.2
0
% es.tEz (V/m) @ t=1.2
-0.47720033720418087
% V (V) @ t=1.2
0.04128354877012444
% es.normE (V/m) @ t=1.3
0.7318337219958583
% es.EX (V/m) @ t=1.3
0.5338890760818487
% es.EY (V/m) @ t=1.3
-0.018447936458109382
% es.EZ (V/m) @ t=1.3
-0.5002026836505564
% es.tEX (V/m) @ t=1.3
0.5338890760818336
% es.tEY (V/m) @ t=1.3
0
% es.tEZ (V/m) @ t=1.3
-0.5002026836505564
% es.Ex (V/m) @ t=1.3
0.5338890760818487
% es.Ey (V/m) @ t=1.3
-0.018447936458109382
% es.Ez (V/m) @ t=1.3
-0.5002026836505564
% es.tEx (V/m) @ t=1.3
0.5338890760818336
% es.tEy (V/m) @ t=1.3
0
% es.tEz (V/m) @ t=1.3
-0.5002026836505564
% V (V) @ t=1.3
0.043273751372024286
% es.normE (V/m) @ t=1.4
0.7656440782174231
% es.EX (V/m) @ t=1.4
0.5585542613822518
% es.EY (V/m) @ t=1.4
-0.019300291708013617
% es.EZ (V/m) @ t=1.4
-0.5233120391708184
% es.tEX (V/m) @ t=1.4
0.5585542613822643
% es.tEY (V/m) @ t=1.4
0
% es.tEZ (V/m) @ t=1.4
-0.5233120391708326
% es.Ex (V/m) @ t=1.4
0.5585542613822518
% es.Ey (V/m) @ t=1.4
-0.019300291708013617
% es.Ez (V/m) @ t=1.4
-0.5233120391708184
% es.tEx (V/m) @ t=1.4
0.5585542613822643
% es.tEy (V/m) @ t=1.4
0
% es.tEz (V/m) @ t=1.4
-0.5233120391708326
% V (V) @ t=1.4
0.04527326063948493
% es.normE (V/m) @ t=1.5
0.7996109354056486
% es.EX (V/m) @ t=1.5
0.5833335779802571
% es.EY (V/m) @ t=1.5
-0.020156604354482965
% es.EZ (V/m) @ t=1.5
-0.5465284037650235
% es.tEX (V/m) @ t=1.5
0.5833335779802713
% es.tEY (V/m) @ t=1.5
0
% es.tEZ (V/m) @ t=1.5
-0.5465284037650378
% es.Ex (V/m) @ t=1.5
0.5833335779802571
% es.Ey (V/m) @ t=1.5
-0.020156604354482965
% es.Ez (V/m) @ t=1.5
-0.5465284037650235
% es.tEx (V/m) @ t=1.5
0.5833335779802713
% es.tEy (V/m) @ t=1.5
0
% es.tEz (V/m) @ t=1.5
-0.5465284037650378
% V (V) @ t=1.5
0.04728207657250638
% es.normE (V/m) @ t=1.6
0.8331739518553619
% es.EX (V/m) @ t=1.6
0.6078183511726056
% es.EY (V/m) @ t=1.6
-0.021002716253285314
% es.EZ (V/m) @ t=1.6
-0.5694686751157434
% es.tEX (V/m) @ t=1.6
0.6078183511725896
% es.tEY (V/m) @ t=1.6
0
% es.tEZ (V/m) @ t=1.6
-0.5694686751157576
% es.Ex (V/m) @ t=1.6
0.6078183511726056
% es.Ey (V/m) @ t=1.6
-0.021002716253285314
% es.Ez (V/m) @ t=1.6
-0.5694686751157434
% es.tEx (V/m) @ t=1.6
0.6078183511725896
% es.tEy (V/m) @ t=1.6
0
% es.tEz (V/m) @ t=1.6
-0.5694686751157576
% V (V) @ t=1.6
0.049266930754493364
% es.normE (V/m) @ t=1.7
0.8656750228618945
% es.EX (V/m) @ t=1.7
0.6315286046476611
% es.EY (V/m) @ t=1.7
-0.021821999084401966
% es.EZ (V/m) @ t=1.7
-0.5916829109199284
% es.tEX (V/m) @ t=1.7
0.6315286046476594
% es.tEY (V/m) @ t=1.7
0
% es.tEZ (V/m) @ t=1.7
-0.5916829109199284
% es.Ex (V/m) @ t=1.7
0.6315286046476611
% es.Ey (V/m) @ t=1.7
-0.021821999084401966
% es.Ez (V/m) @ t=1.7
-0.5916829109199284
% es.tEx (V/m) @ t=1.7
0.6315286046476594
% es.tEy (V/m) @ t=1.7
0
% es.tEz (V/m) @ t=1.7
-0.5916829109199284
% V (V) @ t=1.7
0.05118875041740104
% es.normE (V/m) @ t=1.8
0.8977244792015919
% es.EX (V/m) @ t=1.8
0.6549094716994048
% es.EY (V/m) @ t=1.8
-0.022629874064918454
% es.EZ (V/m) @ t=1.8
-0.6135883907278412
% es.tEX (V/m) @ t=1.8
0.6549094716994048
% es.tEY (V/m) @ t=1.8
0
% es.tEZ (V/m) @ t=1.8
-0.6135883907278554
% es.Ex (V/m) @ t=1.8
0.6549094716994048
% es.Ey (V/m) @ t=1.8
-0.022629874064918454
% es.Ez (V/m) @ t=1.8
-0.6135883907278412
% es.tEx (V/m) @ t=1.8
0.6549094716994048
% es.tEy (V/m) @ t=1.8
0
% es.tEz (V/m) @ t=1.8
-0.6135883907278554
% V (V) @ t=1.8
0.05308377191190836
% es.normE (V/m) @ t=1.9
0.9293223208745228
% es.EX (V/m) @ t=1.9
0.6779609523277941
% es.EY (V/m) @ t=1.9
-0.02342634119479925
% es.EZ (V/m) @ t=1.9
-0.6351851145395528
% es.tEX (V/m) @ t=1.9
0.6779609523277923
% es.tEY (V/m) @ t=1.9
0
% es.tEZ (V/m) @ t=1.9
-0.635185114539567
% es.Ex (V/m) @ t=1.9
0.6779609523277941
% es.Ey (V/m) @ t=1.9
-0.02342634119479925
% es.Ez (V/m) @ t=1.9
-0.6351851145395528
% es.tEx (V/m) @ t=1.9
0.6779609523277923
% es.tEy (V/m) @ t=1.9
0
% es.tEz (V/m) @ t=1.9
-0.635185114539567
% V (V) @ t=1.9
0.05495199523801533
% es.normE (V/m) @ t=2
0.9600026745675682
% es.EX (V/m) @ t=2
0.7003430629578471
% es.EY (V/m) @ t=2
-0.02419969376854425
% es.EZ (V/m) @ t=2
-0.6561547867425901
% es.tEX (V/m) @ t=2
0.7003430629578471
% es.tEY (V/m) @ t=2
0
% es.tEZ (V/m) @ t=2
-0.6561547867426043
% es.Ex (V/m) @ t=2
0.7003430629578471
% es.Ey (V/m) @ t=2
-0.02419969376854425
% es.Ez (V/m) @ t=2
-0.6561547867425901
% es.tEx (V/m) @ t=2
0.7003430629578471
% es.tEy (V/m) @ t=2
0
% es.tEz (V/m) @ t=2
-0.6561547867426043
% V (V) @ t=2
0.05676602550886975
% es.normE (V/m) @ t=2.1
0.9891508720242529
% es.EX (V/m) @ t=2.1
0.7216072329044394
% es.EY (V/m) @ t=2.1
-0.02493448608426263
% es.EZ (V/m) @ t=2.1
-0.6760774515172443
% es.tEX (V/m) @ t=2.1
0.7216072329044376
% es.tEY (V/m) @ t=2.1
0
% es.tEZ (V/m) @ t=2.1
-0.6760774515172585
% es.Ex (V/m) @ t=2.1
0.7216072329044394
% es.Ey (V/m) @ t=2.1
-0.02493448608426263
% es.Ez (V/m) @ t=2.1
-0.6760774515172443
% es.tEx (V/m) @ t=2.1
0.7216072329044376
% es.tEy (V/m) @ t=2.1
0
% es.tEz (V/m) @ t=2.1
-0.6760774515172585
% V (V) @ t=2.1
0.05848971820435535
% es.normE (V/m) @ t=2.2
1.017315319410586
% es.EX (V/m) @ t=2.2
0.7421536763107639
% es.EY (V/m) @ t=2.2
-0.02564449877578312
% es.EZ (V/m) @ t=2.2
-0.6953277928634947
% es.tEX (V/m) @ t=2.2
0.7421536763107621
% es.tEY (V/m) @ t=2.2
0
% es.tEZ (V/m) @ t=2.2
-0.6953277928635231
% es.Ex (V/m) @ t=2.2
0.7421536763107639
% es.Ey (V/m) @ t=2.2
-0.02564449877578312
% es.Ez (V/m) @ t=2.2
-0.6953277928634947
% es.tEx (V/m) @ t=2.2
0.7421536763107621
% es.tEy (V/m) @ t=2.2
0
% es.tEz (V/m) @ t=2.2
-0.6953277928635231
% V (V) @ t=2.2
0.06015532141519622
% es.normE (V/m) @ t=2.3
1.0444960167266422
% es.EX (V/m) @ t=2.3
0.7619823931768455
% es.EY (V/m) @ t=2.3
-0.02632973184301335
% es.EZ (V/m) @ t=2.3
-0.7139058107813554
% es.tEX (V/m) @ t=2.3
0.7619823931768437
% es.tEY (V/m) @ t=2.3
0
% es.tEZ (V/m) @ t=2.3
-0.7139058107813696
% es.Ex (V/m) @ t=2.3
0.7619823931768455
% es.Ey (V/m) @ t=2.3
-0.02632973184301335
% es.Ez (V/m) @ t=2.3
-0.7139058107813554
% es.tEx (V/m) @ t=2.3
0.7619823931768437
% es.tEy (V/m) @ t=2.3
0
% es.tEz (V/m) @ t=2.3
-0.7139058107813696
% V (V) @ t=2.3
0.06176283514139236
% es.normE (V/m) @ t=2.4
1.0705508510704467
% es.EX (V/m) @ t=2.4
0.7809898018716073
% es.EY (V/m) @ t=2.4
-0.02698657396593518
% es.EZ (V/m) @ t=2.4
-0.7317142741027993
% es.tEX (V/m) @ t=2.4
0.7809898018716055
% es.tEY (V/m) @ t=2.4
0
% es.tEZ (V/m) @ t=2.4
-0.7317142741028135
% es.Ex (V/m) @ t=2.4
0.7809898018716073
% es.Ey (V/m) @ t=2.4
-0.02698657396593518
% es.Ez (V/m) @ t=2.4
-0.7317142741027993
% es.tEx (V/m) @ t=2.4
0.7809898018716055
% es.tEy (V/m) @ t=2.4
0
% es.tEz (V/m) @ t=2.4
-0.7317142741028135
% V (V) @ t=2.4
0.06330373819182084
% es.normE (V/m) @ t=2.5
1.0952696589421025
% es.EX (V/m) @ t=2.5
0.799022720820453
% es.EY (V/m) @ t=2.5
-0.027609684548046687
% es.EZ (V/m) @ t=2.5
-0.748609392628083
% es.tEX (V/m) @ t=2.5
0.7990227208204512
% es.tEY (V/m) @ t=2.5
0
% es.tEZ (V/m) @ t=2.5
-0.7486093926280972
% es.Ex (V/m) @ t=2.5
0.799022720820453
% es.Ey (V/m) @ t=2.5
-0.027609684548046687
% es.Ez (V/m) @ t=2.5
-0.748609392628083
% es.tEx (V/m) @ t=2.5
0.7990227208204512
% es.tEy (V/m) @ t=2.5
0
% es.tEz (V/m) @ t=2.5
-0.7486093926280972
% V (V) @ t=2.5
0.06476542901291431
% es.normE (V/m) @ t=2.6
1.1188334717036488
% es.EX (V/m) @ t=2.6
0.8162130980976237
% es.EY (V/m) @ t=2.6
-0.02820366389084228
% es.EZ (V/m) @ t=2.6
-0.7647150248566135
% es.tEX (V/m) @ t=2.6
0.8162130980976219
% es.tEY (V/m) @ t=2.6
0
% es.tEZ (V/m) @ t=2.6
-0.7647150248566277
% es.Ex (V/m) @ t=2.6
0.8162130980976237
% es.Ey (V/m) @ t=2.6
-0.02820366389084228
% es.Ez (V/m) @ t=2.6
-0.7647150248566135
% es.tEx (V/m) @ t=2.6
0.8162130980976219
% es.tEy (V/m) @ t=2.6
0
% es.tEz (V/m) @ t=2.6
-0.7647150248566277
% V (V) @ t=2.6
0.06615876237445259
% es.normE (V/m) @ t=2.7
1.1412422893551266
% es.EX (V/m) @ t=2.7
0.8325609337032294
% es.EY (V/m) @ t=2.7
-0.028768511994243795
% es.EZ (V/m) @ t=2.7
-0.7800311707883054
% es.tEX (V/m) @ t=2.7
0.832560933703256
% es.tEY (V/m) @ t=2.7
0
% es.tEZ (V/m) @ t=2.7
-0.7800311707883338
% es.Ex (V/m) @ t=2.7
0.8325609337032294
% es.Ey (V/m) @ t=2.7
-0.028768511994243795
% es.Ez (V/m) @ t=2.7
-0.7800311707883054
% es.tEx (V/m) @ t=2.7
0.832560933703256
% es.tEy (V/m) @ t=2.7
0
% es.tEz (V/m) @ t=2.7
-0.7800311707883338
% V (V) @ t=2.7
0.06748373827643564
% es.normE (V/m) @ t=2.8
1.1626237712543188
% es.EX (V/m) @ t=2.8
0.8481593764179003
% es.EY (V/m) @ t=2.8
-0.029307441323140893
% es.EZ (V/m) @ t=2.8
-0.7946450651473924
% es.tEX (V/m) @ t=2.8
0.8481593764178985
% es.tEY (V/m) @ t=2.8
0
% es.tEZ (V/m) @ t=2.8
-0.7946450651474066
% es.Ex (V/m) @ t=2.8
0.8481593764179003
% es.Ey (V/m) @ t=2.8
-0.029307441323140893
% es.Ez (V/m) @ t=2.8
-0.7946450651473924
% es.tEx (V/m) @ t=2.8
0.8481593764178985
% es.tEy (V/m) @ t=2.8
0
% es.tEz (V/m) @ t=2.8
-0.7946450651474066
% V (V) @ t=2.8
0.06874788240989751
% es.normE (V/m) @ t=2.9
1.1831892144835279
% es.EX (V/m) @ t=2.9
0.8631626026839303
% es.EY (V/m) @ t=2.9
-0.02982576903110612
% es.EZ (V/m) @ t=2.9
-0.8087010956464411
% es.tEX (V/m) @ t=2.9
0.8631626026839285
% es.tEY (V/m) @ t=2.9
0
% es.tEZ (V/m) @ t=2.9
-0.8087010956464553
% es.Ex (V/m) @ t=2.9
0.8631626026839303
% es.Ey (V/m) @ t=2.9
-0.02982576903110612
% es.Ez (V/m) @ t=2.9
-0.8087010956464411
% es.tEx (V/m) @ t=2.9
0.8631626026839285
% es.tEy (V/m) @ t=2.9
0
% es.tEz (V/m) @ t=2.9
-0.8087010956464553
% V (V) @ t=2.9
0.0699636510223507
% es.normE (V/m) @ t=3
1.2027623597873858
% es.EX (V/m) @ t=3
0.8774420019940621
% es.EY (V/m) @ t=3
-0.03031905966866333
% es.EZ (V/m) @ t=3
-0.8220788173154574
% es.tEX (V/m) @ t=3
0.8774420019940319
% es.tEY (V/m) @ t=3
0
% es.tEZ (V/m) @ t=3
-0.8220788173154716
% es.Ex (V/m) @ t=3
0.8774420019940621
% es.Ey (V/m) @ t=3
-0.03031905966866333
% es.Ez (V/m) @ t=3
-0.8220788173154574
% es.tEx (V/m) @ t=3
0.8774420019940319
% es.tEy (V/m) @ t=3
0
% es.tEz (V/m) @ t=3
-0.8220788173154716
% V (V) @ t=3
0.07112065339335061
% es.normE (V/m) @ t=3.1
1.2213432071661046
% es.EX (V/m) @ t=3.1
0.8909975743483862
% es.EY (V/m) @ t=3.1
-0.030787313235698832
% es.EZ (V/m) @ t=3.1
-0.8347782301544555
% es.tEX (V/m) @ t=3.1
0.890997574348356
% es.tEY (V/m) @ t=3.1
0
% es.tEZ (V/m) @ t=3.1
-0.8347782301544555
% es.Ex (V/m) @ t=3.1
0.8909975743483862
% es.Ey (V/m) @ t=3.1
-0.030787313235698832
% es.Ez (V/m) @ t=3.1
-0.8347782301544555
% es.tEx (V/m) @ t=3.1
0.890997574348356
% es.tEy (V/m) @ t=3.1
0
% es.tEz (V/m) @ t=3.1
-0.8347782301544555
% V (V) @ t=3.1
0.0722188895228972
% es.normE (V/m) @ t=3.2
1.2392974626977216
% es.EX (V/m) @ t=3.2
0.9040959856181274
% es.EY (V/m) @ t=3.2
-0.031239786897984345
% es.EZ (V/m) @ t=3.2
-0.8470494233235542
% es.tEX (V/m) @ t=3.2
0.9040959856181257
% es.tEY (V/m) @ t=3.2
0
% es.tEZ (V/m) @ t=3.2
-0.8470494233235684
% es.Ex (V/m) @ t=3.2
0.9040959856181274
% es.Ey (V/m) @ t=3.2
-0.031239786897984345
% es.Ez (V/m) @ t=3.2
-0.8470494233235542
% es.tEx (V/m) @ t=3.2
0.9040959856181257
% es.tEy (V/m) @ t=3.2
0
% es.tEz (V/m) @ t=3.2
-0.8470494233235684
% V (V) @ t=3.2
0.07328014135267313
% es.normE (V/m) @ t=3.3
1.257302108964126
% es.EX (V/m) @ t=3.3
0.9172308785426964
% es.EY (V/m) @ t=3.3
-0.03169361720396324
% es.EZ (V/m) @ t=3.3
-0.8593553533212912
% es.tEX (V/m) @ t=3.3
0.9172308785426946
% es.tEY (V/m) @ t=3.3
0
% es.tEZ (V/m) @ t=3.3
-0.8593553533212912
% es.Ex (V/m) @ t=3.3
0.9172308785426964
% es.Ey (V/m) @ t=3.3
-0.03169361720396324
% es.Ez (V/m) @ t=3.3
-0.8593553533212912
% es.tEx (V/m) @ t=3.3
0.9172308785426946
% es.tEy (V/m) @ t=3.3
0
% es.tEz (V/m) @ t=3.3
-0.8593553533212912
% V (V) @ t=3.3
0.07434473086805013
% es.normE (V/m) @ t=3.4
1.2748088087099305
% es.EX (V/m) @ t=3.4
0.9300024160923623
% es.EY (V/m) @ t=3.4
-0.03213492402116458
% es.EZ (V/m) @ t=3.4
-0.8713210381282863
% es.tEX (V/m) @ t=3.4
0.9300024160923606
% es.tEY (V/m) @ t=3.4
0
% es.tEZ (V/m) @ t=3.4
-0.8713210381283147
% es.Ex (V/m) @ t=3.4
0.9300024160923623
% es.Ey (V/m) @ t=3.4
-0.03213492402116458
% es.Ez (V/m) @ t=3.4
-0.8713210381282863
% es.tEx (V/m) @ t=3.4
0.9300024160923606
% es.tEy (V/m) @ t=3.4
0
% es.tEz (V/m) @ t=3.4
-0.8713210381283147
% V (V) @ t=3.4
0.07537999837087703
% es.normE (V/m) @ t=3.5
1.2918175619352612
% es.EX (V/m) @ t=3.5
0.9424105982672621
% es.EY (V/m) @ t=3.5
-0.03256370734943914
% es.EZ (V/m) @ t=3.5
-0.8829464777445821
% es.tEX (V/m) @ t=3.5
0.9424105982672604
% es.tEY (V/m) @ t=3.5
0
% es.tEZ (V/m) @ t=3.5
-0.8829464777446105
% es.Ex (V/m) @ t=3.5
0.9424105982672621
% es.Ey (V/m) @ t=3.5
-0.03256370734943914
% es.Ez (V/m) @ t=3.5
-0.8829464777445821
% es.tEx (V/m) @ t=3.5
0.9424105982672604
% es.tEy (V/m) @ t=3.5
0
% es.tEz (V/m) @ t=3.5
-0.8829464777446105
% V (V) @ t=3.5
0.07638594386115383
% es.normE (V/m) @ t=3.6
1.3083283686400076
% es.EX (V/m) @ t=3.6
0.9544554250672341
% es.EY (V/m) @ t=3.6
-0.03297996718883667
% es.EZ (V/m) @ t=3.6
-0.8942316721701218
% es.tEX (V/m) @ t=3.6
0.9544554250672324
% es.tEY (V/m) @ t=3.6
0
% es.tEZ (V/m) @ t=3.6
-0.8942316721701502
% es.Ex (V/m) @ t=3.6
0.9544554250672341
% es.Ey (V/m) @ t=3.6
-0.03297996718883667
% es.Ez (V/m) @ t=3.6
-0.8942316721701218
% es.tEx (V/m) @ t=3.6
0.9544554250672324
% es.tEy (V/m) @ t=3.6
0
% es.tEz (V/m) @ t=3.6
-0.8942316721701502
% V (V) @ t=3.6
0.07736256733888058
% es.normE (V/m) @ t=3.7
1.3243412288242793
% es.EX (V/m) @ t=3.7
0.9661368964923049
% es.EY (V/m) @ t=3.7
-0.03338370353959874
% es.EZ (V/m) @ t=3.7
-0.9051766214049053
% es.tEX (V/m) @ t=3.7
0.9661368964923032
% es.tEY (V/m) @ t=3.7
0
% es.tEZ (V/m) @ t=3.7
-0.9051766214049337
% es.Ex (V/m) @ t=3.7
0.9661368964923049
% es.Ey (V/m) @ t=3.7
-0.03338370353959874
% es.Ez (V/m) @ t=3.7
-0.9051766214049053
% es.tEx (V/m) @ t=3.7
0.9661368964923032
% es.tEy (V/m) @ t=3.7
0
% es.tEz (V/m) @ t=3.7
-0.9051766214049337
% V (V) @ t=3.7
0.07830986880405723
% es.normE (V/m) @ t=3.8
1.339856142488206
% es.EX (V/m) @ t=3.8
0.9774550125424977
% es.EY (V/m) @ t=3.8
-0.03377491640134167
% es.EZ (V/m) @ t=3.8
-0.9157813254489326
% es.tEX (V/m) @ t=3.8
0.9774550125425243
% es.tEY (V/m) @ t=3.8
0
% es.tEZ (V/m) @ t=3.8
-0.9157813254489611
% es.Ex (V/m) @ t=3.8
0.9774550125424977
% es.Ey (V/m) @ t=3.8
-0.03377491640134167
% es.Ez (V/m) @ t=3.8
-0.9157813254489326
% es.tEx (V/m) @ t=3.8
0.9774550125425243
% es.tEy (V/m) @ t=3.8
0
% es.tEz (V/m) @ t=3.8
-0.9157813254489611
% V (V) @ t=3.8
0.07922784825668379
% es.normE (V/m) @ t=3.9
1.3548731096319975
% es.EX (V/m) @ t=3.9
0.9884097732178159
% es.EY (V/m) @ t=3.9
-0.034153605774434936
% es.EZ (V/m) @ t=3.9
-0.9260457843022607
% es.tEX (V/m) @ t=3.9
0.9884097732178123
% es.tEY (V/m) @ t=3.9
0
% es.tEZ (V/m) @ t=3.9
-0.9260457843022891
% es.Ex (V/m) @ t=3.9
0.9884097732178159
% es.Ey (V/m) @ t=3.9
-0.034153605774434936
% es.Ez (V/m) @ t=3.9
-0.9260457843022607
% es.tEx (V/m) @ t=3.9
0.9884097732178123
% es.tEy (V/m) @ t=3.9
0
% es.tEz (V/m) @ t=3.9
-0.9260457843022891
% V (V) @ t=3.9
0.08011650569676025
% es.normE (V/m) @ t=4
1.369545497983298
% es.EX (V/m) @ t=4
0.9991132857194369
% es.EY (V/m) @ t=4
-0.03452356909618004
% es.EZ (V/m) @ t=4
-0.9360745891872568
% es.tEX (V/m) @ t=4
0.9991132857194334
% es.tEY (V/m) @ t=4
0
% es.tEZ (V/m) @ t=4
-0.9360745891872568
% es.Ex (V/m) @ t=4
0.9991132857194369
% es.Ey (V/m) @ t=4
-0.03452356909618004
% es.Ez (V/m) @ t=4
-0.9360745891872568
% es.tEx (V/m) @ t=4
0.9991132857194334
% es.tEy (V/m) @ t=4
0
% es.tEz (V/m) @ t=4
-0.9360745891872568
% V (V) @ t=4
0.08098462638845982
% es.normE (V/m) @ t=4.1
1.3841548160988546
% es.EX (V/m) @ t=4.1
1.0097713243449622
% es.EY (V/m) @ t=4.1
-0.034891776615680214
% es.EZ (V/m) @ t=4.1
-0.9460597187201643
% es.tEX (V/m) @ t=4.1
1.009771324344932
% es.tEY (V/m) @ t=4.1
0
% es.tEZ (V/m) @ t=4.1
-0.9460597187202211
% es.Ex (V/m) @ t=4.1
1.0097713243449622
% es.Ey (V/m) @ t=4.1
-0.034891776615680214
% es.Ez (V/m) @ t=4.1
-0.9460597187201643
% es.tEx (V/m) @ t=4.1
1.009771324344932
% es.tEy (V/m) @ t=4.1
0
% es.tEz (V/m) @ t=4.1
-0.9460597187202211
% V (V) @ t=4.1
0.08184833580407098
% es.normE (V/m) @ t=4.2
1.3983882190145736
% es.EX (V/m) @ t=4.2
1.0201552088245283
% es.EY (V/m) @ t=4.2
-0.03525048218381244
% es.EZ (V/m) @ t=4.2
-0.955787823992722
% es.tEX (V/m) @ t=4.2
1.020155208824498
% es.tEY (V/m) @ t=4.2
0
% es.tEZ (V/m) @ t=4.2
-0.9557878239927504
% es.Ex (V/m) @ t=4.2
1.0201552088245283
% es.Ey (V/m) @ t=4.2
-0.03525048218381244
% es.Ez (V/m) @ t=4.2
-0.955787823992722
% es.tEx (V/m) @ t=4.2
1.020155208824498
% es.tEy (V/m) @ t=4.2
0
% es.tEz (V/m) @ t=4.2
-0.9557878239927504
% V (V) @ t=4.2
0.08268971344819559
% es.normE (V/m) @ t=4.3
1.4122457067305934
% es.EX (V/m) @ t=4.3
1.030264939158167
% es.EY (V/m) @ t=4.3
-0.035599685800505654
% es.EZ (V/m) @ t=4.3
-0.9652589050049301
% es.tEX (V/m) @ t=4.3
1.0302649391581653
% es.tEY (V/m) @ t=4.3
0
% es.tEZ (V/m) @ t=4.3
-0.9652589050049585
% es.Ex (V/m) @ t=4.3
1.030264939158167
% es.Ey (V/m) @ t=4.3
-0.035599685800505654
% es.Ez (V/m) @ t=4.3
-0.9652589050049301
% es.tEx (V/m) @ t=4.3
1.0302649391581653
% es.tEy (V/m) @ t=4.3
0
% es.tEz (V/m) @ t=4.3
-0.9652589050049585
% V (V) @ t=4.3
0.08350875932083368
% es.normE (V/m) @ t=4.4
1.4257272792470814
% es.EX (V/m) @ t=4.4
1.0401005153459355
% es.EY (V/m) @ t=4.4
-0.035939387465745654
% es.EZ (V/m) @ t=4.4
-0.97447296175676
% es.tEX (V/m) @ t=4.4
1.0401005153459622
% es.tEY (V/m) @ t=4.4
0
% es.tEZ (V/m) @ t=4.4
-0.97447296175676
% es.Ex (V/m) @ t=4.4
1.0401005153459355
% es.Ey (V/m) @ t=4.4
-0.035939387465745654
% es.Ez (V/m) @ t=4.4
-0.97447296175676
% es.tEx (V/m) @ t=4.4
1.0401005153459622
% es.tEy (V/m) @ t=4.4
0
% es.tEz (V/m) @ t=4.4
-0.97447296175676
% V (V) @ t=4.4
0.0843054734219853
% es.normE (V/m) @ t=4.5
1.4388329365641528
% es.EX (V/m) @ t=4.5
1.0496619373877731
% es.EY (V/m) @ t=4.5
-0.03626958717973139
% es.EZ (V/m) @ t=4.5
-0.9834299942481834
% es.tEX (V/m) @ t=4.5
1.049661937387743
% es.tEY (V/m) @ t=4.5
0
% es.tEZ (V/m) @ t=4.5
-0.9834299942482119
% es.Ex (V/m) @ t=4.5
1.0496619373877731
% es.Ey (V/m) @ t=4.5
-0.03626958717973139
% es.Ez (V/m) @ t=4.5
-0.9834299942481834
% es.tEx (V/m) @ t=4.5
1.049661937387743
% es.tEy (V/m) @ t=4.5
0
% es.tEz (V/m) @ t=4.5
-0.9834299942482119
% V (V) @ t=4.5
0.08507985575165035
% es.normE (V/m) @ t=4.6
1.4515626786819644
% es.EX (V/m) @ t=4.6
1.0589492052835716
% es.EY (V/m) @ t=4.6
-0.03659028494233496
% es.EZ (V/m) @ t=4.6
-0.9921300024792572
% es.tEX (V/m) @ t=4.6
1.058949205283568
% es.tEY (V/m) @ t=4.6
0
% es.tEZ (V/m) @ t=4.6
-0.9921300024792856
% es.Ex (V/m) @ t=4.6
1.0589492052835716
% es.Ey (V/m) @ t=4.6
-0.03659028494233496
% es.Ez (V/m) @ t=4.6
-0.9921300024792572
% es.tEx (V/m) @ t=4.6
1.058949205283568
% es.tEy (V/m) @ t=4.6
0
% es.tEz (V/m) @ t=4.6
-0.9921300024792856
% V (V) @ t=4.6
0.0858319063098289
% es.normE (V/m) @ t=4.7
1.4637727670755099
% es.EX (V/m) @ t=4.7
1.067857201776759
% es.EY (V/m) @ t=4.7
-0.03689793652570472
% es.EZ (V/m) @ t=4.7
-1.0004750134438893
% es.tEX (V/m) @ t=4.7
1.067857201776727
% es.tEY (V/m) @ t=4.7
0
% es.tEZ (V/m) @ t=4.7
-1.0004750134439178
% es.Ex (V/m) @ t=4.7
1.067857201776759
% es.Ey (V/m) @ t=4.7
-0.03689793652570472
% es.Ez (V/m) @ t=4.7
-1.0004750134438893
% es.tEx (V/m) @ t=4.7
1.067857201776727
% es.tEy (V/m) @ t=4.7
0
% es.tEz (V/m) @ t=4.7
-1.0004750134439178
% V (V) @ t=4.7
0.08655344596154238
% es.normE (V/m) @ t=4.8
1.4753459719118227
% es.EX (V/m) @ t=4.8
1.0763001956524327
% es.EY (V/m) @ t=4.8
-0.03718965133910501
% es.EZ (V/m) @ t=4.8
-1.0083851226135039
% es.tEX (V/m) @ t=4.8
1.0763001956524292
% es.tEY (V/m) @ t=4.8
0
% es.tEZ (V/m) @ t=4.8
-1.0083851226135323
% es.Ex (V/m) @ t=4.8
1.0763001956524327
% es.Ey (V/m) @ t=4.8
-0.03718965133910501
% es.Ez (V/m) @ t=4.8
-1.0083851226135039
% es.tEx (V/m) @ t=4.8
1.0763001956524292
% es.tEy (V/m) @ t=4.8
0
% es.tEz (V/m) @ t=4.8
-1.0083851226135323
% V (V) @ t=4.8
0.08723780399258446
% es.normE (V/m) @ t=4.9
1.486450501266319
% es.EX (V/m) @ t=4.9
1.0844011989661322
% es.EY (V/m) @ t=4.9
-0.037469576967524176
% es.EZ (V/m) @ t=4.9
-1.0159749815805412
% es.tEX (V/m) @ t=4.9
1.0844011989661304
% es.tEY (V/m) @ t=4.9
0
% es.tEZ (V/m) @ t=4.9
-1.0159749815805696
% es.Ex (V/m) @ t=4.9
1.0844011989661322
% es.Ey (V/m) @ t=4.9
-0.037469576967524176
% es.Ez (V/m) @ t=4.9
-1.0159749815805412
% es.tEx (V/m) @ t=4.9
1.0844011989661304
% es.tEy (V/m) @ t=4.9
0
% es.tEz (V/m) @ t=4.9
-1.0159749815805696
% V (V) @ t=4.9
0.0878945519256258
% es.normE (V/m) @ t=5
1.4970863551389897
% es.EX (V/m) @ t=5
1.092160211717804
% es.EY (V/m) @ t=5
-0.03773771341110432
% es.EZ (V/m) @ t=5
-1.0232445903450298
% es.tEX (V/m) @ t=5
1.0921602117178573
% es.tEY (V/m) @ t=5
0
% es.tEZ (V/m) @ t=5
-1.0232445903450298
% es.Ex (V/m) @ t=5
1.092160211717804
% es.Ey (V/m) @ t=5
-0.03773771341110432
% es.Ez (V/m) @ t=5
-1.0232445903450298
% es.tEx (V/m) @ t=5
1.0921602117178573
% es.tEy (V/m) @ t=5
0
% es.tEz (V/m) @ t=5
-1.0232445903450298
% V (V) @ t=5
0.08852368976066641
% es.normE (V/m) @ t=5.1
1.5072535335298536
% es.EX (V/m) @ t=5.1
1.0995772339075671
% es.EY (V/m) @ t=5.1
-0.03799406066966071
% es.EZ (V/m) @ t=5.1
-1.0301939489068275
% es.tEX (V/m) @ t=5.1
1.0995772339075351
% es.tEY (V/m) @ t=5.1
0
% es.tEZ (V/m) @ t=5.1
-1.030193948906856
% es.Ex (V/m) @ t=5.1
1.0995772339075671
% es.Ey (V/m) @ t=5.1
-0.03799406066966071
% es.Ez (V/m) @ t=5.1
-1.0301939489068275
% es.tEx (V/m) @ t=5.1
1.0995772339075351
% es.tEy (V/m) @ t=5.1
0
% es.tEz (V/m) @ t=5.1
-1.030193948906856
% V (V) @ t=5.1
0.08912521749770633
% es.normE (V/m) @ t=5.2
1.5169520364389246
% es.EX (V/m) @ t=5.2
1.1066522655352422
% es.EY (V/m) @ t=5.2
-0.03823861874337808
% es.EZ (V/m) @ t=5.2
-1.036823057266048
% es.tEX (V/m) @ t=5.2
1.1066522655352387
% es.tEY (V/m) @ t=5.2
0
% es.tEZ (V/m) @ t=5.2
-1.036823057266048
% es.Ex (V/m) @ t=5.2
1.1066522655352422
% es.Ey (V/m) @ t=5.2
-0.03823861874337808
% es.Ez (V/m) @ t=5.2
-1.036823057266048
% es.tEx (V/m) @ t=5.2
1.1066522655352387
% es.tEy (V/m) @ t=5.2
0
% es.tEz (V/m) @ t=5.2
-1.036823057266048
% V (V) @ t=5.2
0.08969913513674549
% es.normE (V/m) @ t=5.3
1.526181863866354
% es.EX (V/m) @ t=5.3
1.1133853066009465
% es.EY (V/m) @ t=5.3