% Model:              1x1--2 - Copy1.mph
% Version:            COMSOL 6.1.0.252
% Date:               Mar 28 2023, 12:28
% Dimension:          0
% Nodes:              14017
% Expressions:        14017
% Description:        Electric field norm, Electric field, X component, Electric field, Y component, Electric field, Z component, Tangential electric field, X component, Tangential electric field, Y component, Tangential electric field, Z component, Electric field, x component, Electric field, y component, Electric field, z component, Tangential electric field, x component, Tangential electric field, y component, Tangential electric field, z component, Electric potential
% Length unit:        mm
% x
1.3300000000000003
% y
14.200000000000001
% z
2
% es.normE (V/m) @ t=0
0.3722052742276009
% es.EX (V/m) @ t=0
0.25473906172535266
% es.EY (V/m) @ t=0
0.010363384765767147
% es.EZ (V/m) @ t=0
-0.2711777587678002
% es.tEX (V/m) @ t=0
0.25473906172535266
% es.tEY (V/m) @ t=0
0
% es.tEZ (V/m) @ t=0
-0.27117775876780215
% es.Ex (V/m) @ t=0
0.25473906172535266
% es.Ey (V/m) @ t=0
0.010363384765767147
% es.Ez (V/m) @ t=0
-0.2711777587678002
% es.tEx (V/m) @ t=0
0.25473906172535266
% es.tEy (V/m) @ t=0
0
% es.tEz (V/m) @ t=0
-0.27117775876780215
% V (V) @ t=0
0.020396415611845128
% es.normE (V/m) @ t=0.1
0.3935610431976337
% es.EX (V/m) @ t=0.1
0.2693550396798656
% es.EY (V/m) @ t=0.1
0.010957993937773303
% es.EZ (V/m) @ t=0.1
-0.28673695208453237
% es.tEX (V/m) @ t=0.1
0.2693550396798621
% es.tEY (V/m) @ t=0.1
0
% es.tEZ (V/m) @ t=0.1
-0.28673695208452976
% es.Ex (V/m) @ t=0.1
0.2693550396798656
% es.Ey (V/m) @ t=0.1
0.010957993937773303
% es.Ez (V/m) @ t=0.1
-0.28673695208453237
% es.tEx (V/m) @ t=0.1
0.2693550396798621
% es.tEy (V/m) @ t=0.1
0
% es.tEz (V/m) @ t=0.1
-0.28673695208452976
% V (V) @ t=0.1
0.02156668090239467
% es.normE (V/m) @ t=0.2
0.420589231256749
% es.EX (V/m) @ t=0.2
0.2878529020256124
% es.EY (V/m) @ t=0.2
0.011710570638943985
% es.EZ (V/m) @ t=0.2
-0.30642922638006737
% es.tEX (V/m) @ t=0.2
0.287852902025616
% es.tEY (V/m) @ t=0.2
0
% es.tEZ (V/m) @ t=0.2
-0.30642922638005565
% es.Ex (V/m) @ t=0.2
0.2878529020256124
% es.Ey (V/m) @ t=0.2
0.011710570638943985
% es.Ez (V/m) @ t=0.2
-0.30642922638006737
% es.tEx (V/m) @ t=0.2
0.287852902025616
% es.tEy (V/m) @ t=0.2
0
% es.tEz (V/m) @ t=0.2
-0.30642922638005565
% V (V) @ t=0.2
0.02304811594430648
% es.normE (V/m) @ t=0.3
0.4486951777225555
% es.EX (V/m) @ t=0.3
0.30708824578521643
% es.EY (V/m) @ t=0.3
0.012493167067203714
% es.EZ (V/m) @ t=0.3
-0.32690685613591086
% es.tEX (V/m) @ t=0.3
0.30708824578522
% es.tEY (V/m) @ t=0.3
0
% es.tEZ (V/m) @ t=0.3
-0.32690685613590453
% es.Ex (V/m) @ t=0.3
0.30708824578521643
% es.Ey (V/m) @ t=0.3
0.012493167067203714
% es.Ez (V/m) @ t=0.3
-0.32690685613591086
% es.tEx (V/m) @ t=0.3
0.30708824578522
% es.tEy (V/m) @ t=0.3
0
% es.tEz (V/m) @ t=0.3
-0.32690685613590453
% V (V) @ t=0.3
0.024588743137447525
% es.normE (V/m) @ t=0.4
0.47851048730366097
% es.EX (V/m) @ t=0.4
0.3274945849437856
% es.EY (V/m) @ t=0.4
0.013323266188110416
% es.EZ (V/m) @ t=0.4
-0.3486288483045622
% es.tEX (V/m) @ t=0.4
0.32749458494378914
% es.tEY (V/m) @ t=0.4
0
% es.tEZ (V/m) @ t=0.4
-0.34862884830455165
% es.Ex (V/m) @ t=0.4
0.3274945849437856
% es.Ey (V/m) @ t=0.4
0.013323266188110416
% es.Ez (V/m) @ t=0.4
-0.3486288483045622
% es.tEx (V/m) @ t=0.4
0.32749458494378914
% es.tEy (V/m) @ t=0.4
0
% es.tEz (V/m) @ t=0.4
-0.34862884830455165
% V (V) @ t=0.4
0.02622200605179508
% es.normE (V/m) @ t=0.5
0.5095567458638035
% es.EX (V/m) @ t=0.5
0.3487436244417381
% es.EY (V/m) @ t=0.5
0.014187619452973976
% es.EZ (V/m) @ t=0.5
-0.37124745537283665
% es.tEX (V/m) @ t=0.5
0.34874362444173634
% es.tEY (V/m) @ t=0.5
0
% es.tEZ (V/m) @ t=0.5
-0.37124745537282244
% es.Ex (V/m) @ t=0.5
0.3487436244417381
% es.Ey (V/m) @ t=0.5
0.014187619452973976
% es.Ez (V/m) @ t=0.5
-0.37124745537283665
% es.tEx (V/m) @ t=0.5
0.34874362444173634
% es.tEy (V/m) @ t=0.5
0
% es.tEz (V/m) @ t=0.5
-0.37124745537282244
% V (V) @ t=0.5
0.02792250345918147
% es.normE (V/m) @ t=0.6
0.5413830274191307
% es.EX (V/m) @ t=0.6
0.3705265348350366
% es.EY (V/m) @ t=0.6
0.015073689383615196
% es.EZ (V/m) @ t=0.6
-0.394434345929725
% es.tEX (V/m) @ t=0.6
0.37052653483504194
% es.tEY (V/m) @ t=0.6
0
% es.tEZ (V/m) @ t=0.6
-0.3944343459297084
% es.Ex (V/m) @ t=0.6
0.3705265348350366
% es.Ey (V/m) @ t=0.6
0.015073689383615196
% es.Ez (V/m) @ t=0.6
-0.394434345929725
% es.tEx (V/m) @ t=0.6
0.37052653483504194
% es.tEy (V/m) @ t=0.6
0
% es.tEz (V/m) @ t=0.6
-0.3944343459297084
% V (V) @ t=0.6
0.02966572655661593
% es.normE (V/m) @ t=0.7
0.5742712853811592
% es.EX (V/m) @ t=0.7
0.3930355710071609
% es.EY (V/m) @ t=0.7
0.01598938577344633
% es.EZ (V/m) @ t=0.7
-0.418395612643096
% es.tEX (V/m) @ t=0.7
0.3930355710071556
% es.tEY (V/m) @ t=0.7
0
% es.tEZ (V/m) @ t=0.7
-0.41839561264308855
% es.Ex (V/m) @ t=0.7
0.3930355710071609
% es.Ey (V/m) @ t=0.7
0.01598938577344633
% es.Ez (V/m) @ t=0.7
-0.418395612643096
% es.tEx (V/m) @ t=0.7
0.3930355710071556
% es.tEy (V/m) @ t=0.7
0
% es.tEz (V/m) @ t=0.7
-0.41839561264308855
% V (V) @ t=0.7
0.03146780000101208
% es.normE (V/m) @ t=0.8
0.6080028209785807
% es.EX (V/m) @ t=0.8
0.41612119779498613
% es.EY (V/m) @ t=0.8
0.016928607479223423
% es.EZ (V/m) @ t=0.8
-0.4429717838783781
% es.tEX (V/m) @ t=0.8
0.4161211977949897
% es.tEY (V/m) @ t=0.8
0
% es.tEZ (V/m) @ t=0.8
-0.44297178387836844
% es.Ex (V/m) @ t=0.8
0.41612119779498613
% es.Ey (V/m) @ t=0.8
0.016928607479223423
% es.Ez (V/m) @ t=0.8
-0.4429717838783781
% es.tEx (V/m) @ t=0.8
0.4161211977949897
% es.tEy (V/m) @ t=0.8
0
% es.tEz (V/m) @ t=0.8
-0.44297178387836844
% V (V) @ t=0.8
0.03331660440962551
% es.normE (V/m) @ t=0.9
0.6425458685671442
% es.EX (V/m) @ t=0.9
0.4397619861387341
% es.EY (V/m) @ t=0.9
0.017890444155713503
% es.EZ (V/m) @ t=0.9
-0.46813942449652
% es.tEX (V/m) @ t=0.9
0.4397619861387234
% es.tEY (V/m) @ t=0.9
0
% es.tEZ (V/m) @ t=0.9
-0.4681394244965169
% es.Ex (V/m) @ t=0.9
0.4397619861387341
% es.Ey (V/m) @ t=0.9
0.017890444155713503
% es.Ez (V/m) @ t=0.9
-0.46813942449652
% es.tEx (V/m) @ t=0.9
0.4397619861387234
% es.tEy (V/m) @ t=0.9
0
% es.tEz (V/m) @ t=0.9
-0.4681394244965169
% V (V) @ t=0.9
0.035210105376431676
% es.normE (V/m) @ t=1
0.6778261907091918
% es.EX (V/m) @ t=1
0.4639078555685856
% es.EY (V/m) @ t=1
0.01887276829385076
% es.EZ (V/m) @ t=1
-0.4938437657498742
% es.tEX (V/m) @ t=1
0.4639078555685927
% es.tEY (V/m) @ t=1
0
% es.tEZ (V/m) @ t=1
-0.49384376574987243
% es.Ex (V/m) @ t=1
0.4639078555685856
% es.Ey (V/m) @ t=1
0.01887276829385076
% es.Ez (V/m) @ t=1
-0.4938437657498742
% es.tEx (V/m) @ t=1
0.4639078555685927
% es.tEy (V/m) @ t=1
0
% es.tEz (V/m) @ t=1
-0.49384376574987243
% V (V) @ t=1
0.037143548422682846
% es.normE (V/m) @ t=1.1
0.7138891286202879
% es.EX (V/m) @ t=1.1
0.4885893932044496
% es.EY (V/m) @ t=1.1
0.019876879289914662
% es.EZ (V/m) @ t=1.1
-0.520118258168309
% es.tEX (V/m) @ t=1.1
0.48858939320444605
% es.tEY (V/m) @ t=1.1
0
% es.tEZ (V/m) @ t=1.1
-0.5201182581682815
% es.Ex (V/m) @ t=1.1
0.4885893932044496
% es.Ey (V/m) @ t=1.1
0.019876879289914662
% es.Ez (V/m) @ t=1.1
-0.520118258168309
% es.tEx (V/m) @ t=1.1
0.48858939320444605
% es.tEy (V/m) @ t=1.1
0
% es.tEz (V/m) @ t=1.1
-0.5201182581682815
% V (V) @ t=1.1
0.03911983739117876
% es.normE (V/m) @ t=1.2
0.7502906790924044
% es.EX (V/m) @ t=1.2
0.5135026524815203
% es.EY (V/m) @ t=1.2
0.020890420858449943
% es.EZ (V/m) @ t=1.2
-0.5466394783984607
% es.tEX (V/m) @ t=1.2
0.5135026524815238
% es.tEY (V/m) @ t=1.2
0
% es.tEZ (V/m) @ t=1.2
-0.5466394783984221
% es.Ex (V/m) @ t=1.2
0.5135026524815203
% es.Ey (V/m) @ t=1.2
0.020890420858449943
% es.Ez (V/m) @ t=1.2
-0.5466394783984607
% es.tEx (V/m) @ t=1.2
0.5135026524815238
% es.tEy (V/m) @ t=1.2
0
% es.tEz (V/m) @ t=1.2
-0.5466394783984221
% V (V) @ t=1.2
0.041114708004207294
% es.normE (V/m) @ t=1.3
0.786456482902518
% es.EX (V/m) @ t=1.3
0.5382544504009132
% es.EY (V/m) @ t=1.3
0.021897409001374157
% es.EZ (V/m) @ t=1.3
-0.5729890484136988
% es.tEX (V/m) @ t=1.3
0.5382544504009097
% es.tEY (V/m) @ t=1.3
0
% es.tEZ (V/m) @ t=1.3
-0.5729890484136746
% es.Ex (V/m) @ t=1.3
0.5382544504009132
% es.Ey (V/m) @ t=1.3
0.021897409001374157
% es.Ez (V/m) @ t=1.3
-0.5729890484136988
% es.tEx (V/m) @ t=1.3
0.5382544504009097
% es.tEy (V/m) @ t=1.3
0
% es.tEz (V/m) @ t=1.3
-0.5729890484136746
% V (V) @ t=1.3
0.04309677217392743
% es.normE (V/m) @ t=1.4
0.8227904875460382
% es.EX (V/m) @ t=1.4
0.5631213130132409
% es.EY (V/m) @ t=1.4
0.022909085282748265
% es.EZ (V/m) @ t=1.4
-0.5994612139563316
% es.tEX (V/m) @ t=1.4
0.563121313013248
% es.tEY (V/m) @ t=1.4
0
% es.tEZ (V/m) @ t=1.4
-0.5994612139563316
% es.Ex (V/m) @ t=1.4
0.5631213130132409
% es.Ey (V/m) @ t=1.4
0.022909085282748265
% es.Ez (V/m) @ t=1.4
-0.5994612139563316
% es.tEx (V/m) @ t=1.4
0.563121313013248
% es.tEy (V/m) @ t=1.4
0
% es.tEz (V/m) @ t=1.4
-0.5994612139563316
% V (V) @ t=1.4
0.04508810517824271
% es.normE (V/m) @ t=1.5
0.8592926930230668
% es.EX (V/m) @ t=1.5
0.5881032403185031
% es.EY (V/m) @ t=1.5
0.0239254497025847
% es.EZ (V/m) @ t=1.5
-0.6260559750263874
% es.tEX (V/m) @ t=1.5
0.5881032403185031
% es.tEY (V/m) @ t=1.5
0
% es.tEZ (V/m) @ t=1.5
-0.6260559750263788
% es.Ex (V/m) @ t=1.5
0.5881032403185031
% es.Ey (V/m) @ t=1.5
0.0239254497025847
% es.Ez (V/m) @ t=1.5
-0.6260559750263874
% es.tEx (V/m) @ t=1.5
0.5881032403185031
% es.tEy (V/m) @ t=1.5
0
% es.tEz (V/m) @ t=1.5
-0.6260559750263788
% V (V) @ t=1.5
0.04708870701715313
% es.normE (V/m) @ t=1.6
0.8953608853484581
% es.EX (V/m) @ t=1.6
0.6127882155685711
% es.EY (V/m) @ t=1.6
0.024929723244104807
% es.EZ (V/m) @ t=1.6
-0.6523344439558849
% es.tEX (V/m) @ t=1.6
0.6127882155685604
% es.tEY (V/m) @ t=1.6
0
% es.tEZ (V/m) @ t=1.6
-0.6523344439558727
% es.Ex (V/m) @ t=1.6
0.6127882155685711
% es.Ey (V/m) @ t=1.6
0.024929723244104807
% es.Ez (V/m) @ t=1.6
-0.6523344439558849
% es.tEx (V/m) @ t=1.6
0.6127882155685604
% es.tEy (V/m) @ t=1.6
0
% es.tEz (V/m) @ t=1.6
-0.6523344439558727
% V (V) @ t=1.6
0.04906544473950768
% es.normE (V/m) @ t=1.7
0.9302877820673788
% es.EX (V/m) @ t=1.7
0.6366923373195448
% es.EY (V/m) @ t=1.7
0.0259021994501758
% es.EZ (V/m) @ t=1.7
-0.6777811602029531
% es.tEX (V/m) @ t=1.7
0.6366923373195519
% es.tEY (V/m) @ t=1.7
0
% es.tEZ (V/m) @ t=1.7
-0.6777811602029402
% es.Ex (V/m) @ t=1.7
0.6366923373195448
% es.Ey (V/m) @ t=1.7
0.0259021994501758
% es.Ez (V/m) @ t=1.7
-0.6777811602029531
% es.tEx (V/m) @ t=1.7
0.6366923373195519
% es.tEy (V/m) @ t=1.7
0
% es.tEz (V/m) @ t=1.7
-0.6777811602029402
% V (V) @ t=1.7
0.050979404677405825
% es.normE (V/m) @ t=1.8
0.9647293217359914
% es.EX (V/m) @ t=1.8
0.6602643790597824
% es.EY (V/m) @ t=1.8
0.026861154223103867
% es.EZ (V/m) @ t=1.8
-0.7028741653779775
% es.tEX (V/m) @ t=1.8
0.6602643790597966
% es.tEY (V/m) @ t=1.8
0
% es.tEZ (V/m) @ t=1.8
-0.702874165377942
% es.Ex (V/m) @ t=1.8
0.6602643790597824
% es.Ey (V/m) @ t=1.8
0.026861154223103867
% es.Ez (V/m) @ t=1.8
-0.7028741653779775
% es.tEx (V/m) @ t=1.8
0.6602643790597966
% es.tEy (V/m) @ t=1.8
0
% es.tEz (V/m) @ t=1.8
-0.702874165377942
% V (V) @ t=1.8
0.05286667563097122
% es.normE (V/m) @ t=1.9
0.9986855043543453
% es.EX (V/m) @ t=1.9
0.6835043407893124
% es.EY (V/m) @ t=1.9
0.02780658756294052
% es.EZ (V/m) @ t=1.9
-0.7276134594809012
% es.tEX (V/m) @ t=1.9
0.683504340789316
% es.tEY (V/m) @ t=1.9
0
% es.tEZ (V/m) @ t=1.9
-0.7276134594809065
% es.Ex (V/m) @ t=1.9
0.6835043407893124
% es.Ey (V/m) @ t=1.9
0.02780658756294052
% es.Ez (V/m) @ t=1.9
-0.7276134594809012
% es.tEx (V/m) @ t=1.9
0.683504340789316
% es.tEy (V/m) @ t=1.9
0
% es.tEz (V/m) @ t=1.9
-0.7276134594809065
% V (V) @ t=1.9
0.054727257600203874
% es.normE (V/m) @ t=2
1.0316557400535076
% es.EX (V/m) @ t=2
0.7060694595317187
% es.EY (V/m) @ t=2
0.028724574838230765
% es.EZ (V/m) @ t=2
-0.7516344743971632
% es.tEX (V/m) @ t=2
0.7060694595317187
% es.tEY (V/m) @ t=2
0
% es.tEZ (V/m) @ t=2
-0.7516344743971501
% es.Ex (V/m) @ t=2
0.7060694595317187
% es.Ey (V/m) @ t=2
0.028724574838230765
% es.Ez (V/m) @ t=2
-0.7516344743971632
% es.tEx (V/m) @ t=2
0.7060694595317187
% es.tEy (V/m) @ t=2
0
% es.tEz (V/m) @ t=2
-0.7516344743971501
% V (V) @ t=2
0.05653386840681357
% es.normE (V/m) @ t=2.1
1.0629795559249937
% es.EX (V/m) @ t=2.1
0.7275074974892703
% es.EY (V/m) @ t=2.1
0.029596744039407596
% es.EZ (V/m) @ t=2.1
-0.7744562028634427
% es.tEX (V/m) @ t=2.1
0.7275074974892597
% es.tEY (V/m) @ t=2.1
0
% es.tEZ (V/m) @ t=2.1
-0.7744562028634157
% es.Ex (V/m) @ t=2.1
0.7275074974892703
% es.Ey (V/m) @ t=2.1
0.029596744039407596
% es.Ez (V/m) @ t=2.1
-0.7744562028634427
% es.tEx (V/m) @ t=2.1
0.7275074974892597
% es.tEy (V/m) @ t=2.1
0
% es.tEz (V/m) @ t=2.1
-0.7744562028634157
% V (V) @ t=2.1
0.05825051223715288
% es.normE (V/m) @ t=2.2
1.0932462249817456
% es.EX (V/m) @ t=2.2
0.7482219405979151
% es.EY (V/m) @ t=2.2
0.030439486647864555
% es.EZ (V/m) @ t=2.2
-0.7965077988929814
% es.tEX (V/m) @ t=2.2
0.7482219405979187
% es.tEY (V/m) @ t=2.2
0
% es.tEZ (V/m) @ t=2.2
-0.7965077988929679
% es.Ex (V/m) @ t=2.2
0.7482219405979151
% es.Ey (V/m) @ t=2.2
0.030439486647864555
% es.Ez (V/m) @ t=2.2
-0.7965077988929814
% es.tEx (V/m) @ t=2.2
0.7482219405979187
% es.tEy (V/m) @ t=2.2
0
% es.tEz (V/m) @ t=2.2
-0.7965077988929679
% V (V) @ t=2.2
0.05990930450624061
% es.normE (V/m) @ t=2.3
1.1224557472238674
% es.EX (V/m) @ t=2.3
0.7682127888576531
% es.EY (V/m) @ t=2.3
0.03125280266366204
% es.EZ (V/m) @ t=2.3
-0.8177892624858214
% es.tEX (V/m) @ t=2.3
0.7682127888576566
% es.tEY (V/m) @ t=2.3
0
% es.tEZ (V/m) @ t=2.3
-0.817789262485821
% es.Ex (V/m) @ t=2.3
0.7682127888576531
% es.Ey (V/m) @ t=2.3
0.03125280266366204
% es.Ez (V/m) @ t=2.3
-0.8177892624858214
% es.tEx (V/m) @ t=2.3
0.7682127888576566
% es.tEy (V/m) @ t=2.3
0
% es.tEz (V/m) @ t=2.3
-0.817789262485821
% V (V) @ t=2.3
0.06151024521407679
% es.normE (V/m) @ t=2.4
1.1504553596666625
% es.EX (V/m) @ t=2.4
0.7873756133259491
% es.EY (V/m) @ t=2.4
0.03203242861787636
% es.EZ (V/m) @ t=2.4
-0.8381891801032604
% es.tEX (V/m) @ t=2.4
0.787375613325942
% es.tEY (V/m) @ t=2.4
0
% es.tEZ (V/m) @ t=2.4
-0.838189180103246
% es.Ex (V/m) @ t=2.4
0.7873756133259491
% es.Ey (V/m) @ t=2.4
0.03203242861787636
% es.Ez (V/m) @ t=2.4
-0.8381891801032604
% es.tEx (V/m) @ t=2.4
0.787375613325942
% es.tEy (V/m) @ t=2.4
0
% es.tEz (V/m) @ t=2.4
-0.838189180103246
% V (V) @ t=2.4
0.06304484750029629
% es.normE (V/m) @ t=2.5
1.177019148947886
% es.EX (V/m) @ t=2.5
0.8055559793826461
% es.EY (V/m) @ t=2.5
0.03277205948455553
% es.EZ (V/m) @ t=2.5
-0.8575427879633837
% es.tEX (V/m) @ t=2.5
0.8055559793826603
% es.tEY (V/m) @ t=2.5
0
% es.tEZ (V/m) @ t=2.5
-0.8575427879633608
% es.Ex (V/m) @ t=2.5
0.8055559793826461
% es.Ey (V/m) @ t=2.5
0.03277205948455553
% es.Ez (V/m) @ t=2.5
-0.8575427879633837
% es.tEx (V/m) @ t=2.5
0.8055559793826603
% es.tEy (V/m) @ t=2.5
0
% es.tEz (V/m) @ t=2.5
-0.8575427879633608
% V (V) @ t=2.5
0.06450056058133301
% es.normE (V/m) @ t=2.6
1.202341713100533
% es.EX (V/m) @ t=2.6
0.8228869144548128
% es.EY (V/m) @ t=2.6
0.033477126308854466
% es.EZ (V/m) @ t=2.6
-0.8759920108623496
% es.tEX (V/m) @ t=2.6
0.8228869144547915
% es.tEY (V/m) @ t=2.6
0
% es.tEZ (V/m) @ t=2.6
-0.8759920108623334
% es.Ex (V/m) @ t=2.6
0.8228869144548128
% es.Ey (V/m) @ t=2.6
0.033477126308854466
% es.Ez (V/m) @ t=2.6
-0.8759920108623496
% es.tEx (V/m) @ t=2.6
0.8228869144547915
% es.tEy (V/m) @ t=2.6
0
% es.tEz (V/m) @ t=2.6
-0.8759920108623334
% V (V) @ t=2.6
0.06588819549452755
% es.normE (V/m) @ t=2.7
1.2264230521244948
% es.EX (V/m) @ t=2.7
0.8393684185423353
% es.EY (V/m) @ t=2.7
0.03414762909062219
% es.EZ (V/m) @ t=2.7
-0.893536848800087
% es.tEX (V/m) @ t=2.7
0.8393684185423353
% es.tEY (V/m) @ t=2.7
0
% es.tEZ (V/m) @ t=2.7
-0.8935368488000677
% es.Ex (V/m) @ t=2.7
0.8393684185423353
% es.Ey (V/m) @ t=2.7
0.03414762909062219
% es.Ez (V/m) @ t=2.7
-0.893536848800087
% es.tEx (V/m) @ t=2.7
0.8393684185423353
% es.tEy (V/m) @ t=2.7
0
% es.tEz (V/m) @ t=2.7
-0.8935368488000677
% V (V) @ t=2.7
0.06720775223987993
% es.normE (V/m) @ t=2.8
1.2494003452160425
% es.EX (V/m) @ t=2.8
0.8550944019496285
% es.EY (V/m) @ t=2.8
0.034787385364580814
% es.EZ (V/m) @ t=2.8
-0.9102772238169368
% es.tEX (V/m) @ t=2.8
0.8550944019496356
% es.tEY (V/m) @ t=2.8
0
% es.tEZ (V/m) @ t=2.8
-0.9102772238168981
% es.Ex (V/m) @ t=2.8
0.8550944019496285
% es.Ey (V/m) @ t=2.8
0.034787385364580814
% es.Ez (V/m) @ t=2.8
-0.9102772238169368
% es.tEx (V/m) @ t=2.8
0.8550944019496356
% es.tEy (V/m) @ t=2.8
0
% es.tEz (V/m) @ t=2.8
-0.9102772238168981
% V (V) @ t=2.8
0.06846672562940492
% es.normE (V/m) @ t=2.9
1.2715006463444325
% es.EX (V/m) @ t=2.9
0.8702203015647569
% es.EY (V/m) @ t=2.9
0.035402713773697414
% es.EZ (V/m) @ t=2.9
-0.9263785232054502
% es.tEX (V/m) @ t=2.9
0.8702203015647569
% es.tEY (V/m) @ t=2.9
0
% es.tEZ (V/m) @ t=2.9
-0.9263785232054431
% es.Ex (V/m) @ t=2.9
0.8702203015647569
% es.Ey (V/m) @ t=2.9
0.035402713773697414
% es.Ez (V/m) @ t=2.9
-0.9263785232054502
% es.tEx (V/m) @ t=2.9
0.8702203015647569
% es.tEy (V/m) @ t=2.9
0
% es.tEz (V/m) @ t=2.9
-0.9263785232054431
% V (V) @ t=2.9
0.0696775208007961
% es.normE (V/m) @ t=3
1.2925345522149658
% es.EX (V/m) @ t=3
0.8846164554449416
% es.EY (V/m) @ t=3
0.03598834344853152
% es.EZ (V/m) @ t=3
-0.9417027846201796
% es.tEX (V/m) @ t=3
0.8846164554449416
% es.tEY (V/m) @ t=3
0
% es.tEZ (V/m) @ t=3
-0.9417027846201478
% es.Ex (V/m) @ t=3
0.8846164554449416
% es.Ey (V/m) @ t=3
0.03598834344853152
% es.Ez (V/m) @ t=3
-0.9417027846201796
% es.tEx (V/m) @ t=3
0.8846164554449416
% es.tEy (V/m) @ t=3
0
% es.tEz (V/m) @ t=3
-0.9417027846201478
% V (V) @ t=3
0.07082978966826589
% es.normE (V/m) @ t=3.1
1.3125020628279604
% es.EX (V/m) @ t=3.1
0.898282863590353
% es.EY (V/m) @ t=3.1
0.03654427438925545
% es.EZ (V/m) @ t=3.1
-0.9562500080611394
% es.tEX (V/m) @ t=3.1
0.8982828635903317
% es.tEY (V/m) @ t=3.1
0
% es.tEZ (V/m) @ t=3.1
-0.9562500080611116
% es.Ex (V/m) @ t=3.1
0.898282863590353
% es.Ey (V/m) @ t=3.1
0.03654427438925545
% es.Ez (V/m) @ t=3.1
-0.9562500080611394
% es.tEx (V/m) @ t=3.1
0.8982828635903317
% es.tEy (V/m) @ t=3.1
0
% es.tEz (V/m) @ t=3.1
-0.9562500080611116
% V (V) @ t=3.1
0.07192353223181425
% es.normE (V/m) @ t=3.2
1.3317962375335186
% es.EX (V/m) @ t=3.2
0.9114883728493339
% es.EY (V/m) @ t=3.2
0.037081464067707515
% es.EZ (V/m) @ t=3.2
-0.9703067192859717
% es.tEX (V/m) @ t=3.2
0.9114883728493339
% es.tEY (V/m) @ t=3.2
0
% es.tEZ (V/m) @ t=3.2
-0.9703067192859507
% es.Ex (V/m) @ t=3.2
0.9114883728493339
% es.Ey (V/m) @ t=3.2
0.037081464067707515
% es.Ez (V/m) @ t=3.2
-0.9703067192859717
% es.tEx (V/m) @ t=3.2
0.9114883728493339
% es.tEy (V/m) @ t=3.2
0
% es.tEz (V/m) @ t=3.2
-0.9703067192859507
% V (V) @ t=3.2
0.07298044204333687
% es.normE (V/m) @ t=3.3
1.3511446943553491
% es.EX (V/m) @ t=3.3
0.9247306633116921
% es.EY (V/m) @ t=3.3
0.037620196581285015
% es.EZ (V/m) @ t=3.3
-0.9844033249765634
% es.tEX (V/m) @ t=3.3
0.924730663311685
% es.tEY (V/m) @ t=3.3
0
% es.tEZ (V/m) @ t=3.3
-0.9844033249765687
% es.Ex (V/m) @ t=3.3
0.9247306633116921
% es.Ey (V/m) @ t=3.3
0.037620196581285015
% es.Ez (V/m) @ t=3.3
-0.9844033249765634
% es.tEx (V/m) @ t=3.3
0.924730663311685
% es.tEy (V/m) @ t=3.3
0
% es.tEz (V/m) @ t=3.3
-0.9844033249765687
% V (V) @ t=3.3
0.07404067746405524
% es.normE (V/m) @ t=3.4
1.3699580827241105
% es.EX (V/m) @ t=3.4
0.937606627805053
% es.EY (V/m) @ t=3.4
0.03814404236944924
% es.EZ (V/m) @ t=3.4
-0.9981102103219239
% es.tEX (V/m) @ t=3.4
0.9376066278050601
% es.tEY (V/m) @ t=3.4
0
% es.tEZ (V/m) @ t=3.4
-0.9981102103218831
% es.Ex (V/m) @ t=3.4
0.937606627805053
% es.Ey (V/m) @ t=3.4
0.03814404236944924
% es.Ez (V/m) @ t=3.4
-0.9981102103219239
% es.tEx (V/m) @ t=3.4
0.9376066278050601
% es.tEy (V/m) @ t=3.4
0
% es.tEz (V/m) @ t=3.4
-0.9981102103218831
% V (V) @ t=3.4
0.0750717113268756
% es.normE (V/m) @ t=3.5
1.3882364026396627
% es.EX (V/m) @ t=3.5
0.9501162663293456
% es.EY (V/m) @ t=3.5
0.03865300143230499
% es.EZ (V/m) @ t=3.5
-1.0114273753219112
% es.tEX (V/m) @ t=3.5
0.9501162663293314
% es.tEY (V/m) @ t=3.5
0
% es.tEZ (V/m) @ t=3.5
-1.0114273753218725
% es.Ex (V/m) @ t=3.5
0.9501162663293456
% es.Ey (V/m) @ t=3.5
0.03865300143230499
% es.Ez (V/m) @ t=3.5
-1.0114273753219112
% es.tEx (V/m) @ t=3.5
0.9501162663293314
% es.tEy (V/m) @ t=3.5
0
% es.tEz (V/m) @ t=3.5
-1.0114273753218725
% V (V) @ t=3.5
0.07607354363179789
% es.normE (V/m) @ t=3.6
1.405979654102297
% es.EX (V/m) @ t=3.6
0.9622595788847121
% es.EY (V/m) @ t=3.6
0.03914707376986293
% es.EZ (V/m) @ t=3.6
-1.0243548199766956
% es.tEX (V/m) @ t=3.6
0.9622595788846979
% es.tEY (V/m) @ t=3.6
0
% es.tEZ (V/m) @ t=3.6
-1.024354819976658
% es.Ex (V/m) @ t=3.6
0.9622595788847121
% es.Ey (V/m) @ t=3.6
0.03914707376986293
% es.Ez (V/m) @ t=3.6
-1.0243548199766956
% es.tEx (V/m) @ t=3.6
0.9622595788846979
% es.tEy (V/m) @ t=3.6
0
% es.tEz (V/m) @ t=3.6
-1.024354819976658
% V (V) @ t=3.6
0.07704617437882214
% es.normE (V/m) @ t=3.7
1.423187837111973
% es.EX (V/m) @ t=3.7
0.9740365654710672
% es.EY (V/m) @ t=3.7
0.03962625938197917
% es.EZ (V/m) @ t=3.7
-1.0368925442861354
% es.tEX (V/m) @ t=3.7
0.9740365654710743
% es.tEY (V/m) @ t=3.7
0
% es.tEZ (V/m) @ t=3.7
-1.0368925442861325
% es.Ex (V/m) @ t=3.7
0.9740365654710672
% es.Ey (V/m) @ t=3.7
0.03962625938197917
% es.Ez (V/m) @ t=3.7
-1.0368925442861354
% es.tEx (V/m) @ t=3.7
0.9740365654710743
% es.tEy (V/m) @ t=3.7
0
% es.tEz (V/m) @ t=3.7
-1.0368925442861325
% V (V) @ t=3.7
0.07798960356794843
% es.normE (V/m) @ t=3.8
1.4398609516689789
% es.EX (V/m) @ t=3.8
0.9854472260884108
% es.EY (V/m) @ t=3.8
0.0400905582689024
% es.EZ (V/m) @ t=3.8
-1.0490405482503724
% es.tEX (V/m) @ t=3.8
0.9854472260884393
% es.tEY (V/m) @ t=3.8
0
% es.tEZ (V/m) @ t=3.8
-1.0490405482503604
% es.Ex (V/m) @ t=3.8
0.9854472260884108
% es.Ey (V/m) @ t=3.8
0.0400905582689024
% es.Ez (V/m) @ t=3.8
-1.0490405482503724
% es.tEx (V/m) @ t=3.8
0.9854472260884393
% es.tEy (V/m) @ t=3.8
0
% es.tEz (V/m) @ t=3.8
-1.0490405482503604
% V (V) @ t=3.8
0.07890383119917661
% es.normE (V/m) @ t=3.9
1.4559989977735237
% es.EX (V/m) @ t=3.9
0.9964915607367857
% es.EY (V/m) @ t=3.9
0.040539970430337746
% es.EZ (V/m) @ t=3.9
-1.06079883186935
% es.tEX (V/m) @ t=3.9
0.9964915607367644
% es.tEY (V/m) @ t=3.9
0
% es.tEZ (V/m) @ t=3.9
-1.0607988318693273
% es.Ex (V/m) @ t=3.9
0.9964915607367857
% es.Ey (V/m) @ t=3.9
0.040539970430337746
% es.Ez (V/m) @ t=3.9
-1.06079883186935
% es.tEx (V/m) @ t=3.9
0.9964915607367644
% es.tEy (V/m) @ t=3.9
0
% es.tEz (V/m) @ t=3.9
-1.0607988318693273
% V (V) @ t=3.9
0.07978885727250683
% es.normE (V/m) @ t=4
1.4717666869829886
% es.EX (V/m) @ t=4
1.0072825922827349
% es.EY (V/m) @ t=4
0.040979057212748415
% es.EZ (V/m) @ t=4
-1.0722871243594274
% es.tEX (V/m) @ t=4
1.0072825922827207
% es.tEY (V/m) @ t=4
0
% es.tEZ (V/m) @ t=4
-1.0722871243594199
% es.Ex (V/m) @ t=4
1.0072825922827349
% es.Ey (V/m) @ t=4
0.040979057212748415
% es.Ez (V/m) @ t=4
-1.0722871243594274
% es.tEx (V/m) @ t=4
1.0072825922827207
% es.tEy (V/m) @ t=4
0
% es.tEz (V/m) @ t=4
-1.0722871243594199
% V (V) @ t=4
0.08065342987623789
% es.normE (V/m) @ t=4.1
1.4874663496084726
% es.EX (V/m) @ t=4.1
1.0180277757403644
% es.EY (V/m) @ t=4.1
0.04141619102926519
% es.EZ (V/m) @ t=4.1
-1.0837251903316212
% es.tEX (V/m) @ t=4.1
1.0180277757403573
% es.tEY (V/m) @ t=4.1
0
% es.tEZ (V/m) @ t=4.1
-1.08372519033162
% es.Ex (V/m) @ t=4.1
1.0180277757403644
% es.Ey (V/m) @ t=4.1
0.04141619102926519
% es.Ez (V/m) @ t=4.1
-1.0837251903316212
% es.tEx (V/m) @ t=4.1
1.0180277757403573
% es.tEy (V/m) @ t=4.1
0
% es.tEz (V/m) @ t=4.1
-1.08372519033162
% V (V) @ t=4.1
0.08151360624583386
% es.normE (V/m) @ t=4.2
1.5027620011370797
% es.EX (V/m) @ t=4.2
1.0284965630327747
% es.EY (V/m) @ t=4.2
0.04184206748322339
% es.EZ (V/m) @ t=4.2
-1.0948688018571082
% es.tEX (V/m) @ t=4.2
1.0284965630327534
% es.tEY (V/m) @ t=4.2
0
% es.tEZ (V/m) @ t=4.2
-1.0948688018570962
% es.Ex (V/m) @ t=4.2
1.0284965630327747
% es.Ey (V/m) @ t=4.2
0.04184206748322339
% es.Ez (V/m) @ t=4.2
-1.0948688018571082
% es.tEx (V/m) @ t=4.2
1.0284965630327534
% es.tEy (V/m) @ t=4.2
0
% es.tEz (V/m) @ t=4.2
-1.0948688018570962
% V (V) @ t=4.2
0.08235154171857156
% es.normE (V/m) @ t=4.3
1.5176536415689172
% es.EX (V/m) @ t=4.3
1.0386889541599373
% es.EY (V/m) @ t=4.3
0.0422566865743903
% es.EZ (V/m) @ t=4.3
-1.1057179589358603
% es.tEX (V/m) @ t=4.3
1.0386889541599373
% es.tEY (V/m) @ t=4.3
0
% es.tEZ (V/m) @ t=4.3
-1.1057179589358554
% es.Ex (V/m) @ t=4.3
1.0386889541599373
% es.Ey (V/m) @ t=4.3
0.0422566865743903
% es.Ez (V/m) @ t=4.3
-1.1057179589358603
% es.tEx (V/m) @ t=4.3
1.0386889541599373
% es.tEy (V/m) @ t=4.3
0
% es.tEz (V/m) @ t=4.3
-1.1057179589358554
% V (V) @ t=4.3
0.08316723629445111
% es.normE (V/m) @ t=4.4
1.532141270904183
% es.EX (V/m) @ t=4.4
1.048604949121824
% es.EY (V/m) @ t=4.4
0.04266004830290271
% es.EZ (V/m) @ t=4.4
-1.1162726615679057
% es.tEX (V/m) @ t=4.4
1.0486049491218168
% es.tEY (V/m) @ t=4.4
0
% es.tEZ (V/m) @ t=4.4
-1.1162726615678622
% es.Ex (V/m) @ t=4.4
1.048604949121824
% es.Ey (V/m) @ t=4.4
0.04266004830290271
% es.Ez (V/m) @ t=4.4
-1.1162726615679057
% es.tEx (V/m) @ t=4.4
1.0486049491218168
% es.tEy (V/m) @ t=4.4
0
% es.tEz (V/m) @ t=4.4
-1.1162726615678622
% V (V) @ t=4.4
0.08396068997347246
% es.normE (V/m) @ t=4.5
1.5462248891431283
% es.EX (V/m) @ t=4.5
1.0582445479184912
% es.EY (V/m) @ t=4.5
0.043052152668817456
% es.EZ (V/m) @ t=4.5
-1.1265329097532164
% es.tEX (V/m) @ t=4.5
1.058244547918477
% es.tEY (V/m) @ t=4.5
0
% es.tEZ (V/m) @ t=4.5
-1.1265329097531378
% es.Ex (V/m) @ t=4.5
1.0582445479184912
% es.Ey (V/m) @ t=4.5
0.043052152668817456
% es.Ez (V/m) @ t=4.5
-1.1265329097532164
% es.tEx (V/m) @ t=4.5
1.058244547918477
% es.tEy (V/m) @ t=4.5
0
% es.tEz (V/m) @ t=4.5
-1.1265329097531378
% V (V) @ t=4.5
0.0847319027556356
% es.normE (V/m) @ t=4.6
1.5599044962860356
% es.EX (V/m) @ t=4.6
1.0676077505499677
% es.EY (V/m) @ t=4.6
0.043432999671953354
% es.EZ (V/m) @ t=4.6
-1.136498703491792
% es.tEX (V/m) @ t=4.6
1.0676077505499535
% es.tEY (V/m) @ t=4.6
0
% es.tEZ (V/m) @ t=4.6
-1.1364987034917675
% es.Ex (V/m) @ t=4.6
1.0676077505499677
% es.Ey (V/m) @ t=4.6
0.043432999671953354
% es.Ez (V/m) @ t=4.6
-1.136498703491792
% es.tEx (V/m) @ t=4.6
1.0676077505499535
% es.tEy (V/m) @ t=4.6
0
% es.tEz (V/m) @ t=4.6
-1.1364987034917675
% V (V) @ t=4.6
0.08548087464094056
% es.normE (V/m) @ t=4.7
1.5730257429847465
% es.EX (V/m) @ t=4.7
1.0765885814195997
% es.EY (V/m) @ t=4.7
0.0437983185240256
% es.EZ (V/m) @ t=4.7
-1.1460579050572077
% es.tEX (V/m) @ t=4.7
1.0765885814195855
% es.tEY (V/m) @ t=4.7
0
% es.tEZ (V/m) @ t=4.7
-1.146057905057198
% es.Ex (V/m) @ t=4.7
1.0765885814195997
% es.Ey (V/m) @ t=4.7
0.0437983185240256
% es.Ez (V/m) @ t=4.7
-1.1460579050572077
% es.tEx (V/m) @ t=4.7
1.0765885814195855
% es.tEy (V/m) @ t=4.7
0
% es.tEz (V/m) @ t=4.7
-1.146057905057198
% V (V) @ t=4.7
0.08619946135489683
% es.normE (V/m) @ t=4.8
1.5854627454633203
% es.EX (V/m) @ t=4.8
1.0851006092704836
% es.EY (V/m) @ t=4.8
0.044144626068252535
% es.EZ (V/m) @ t=4.8
-1.155119057501091
% es.tEX (V/m) @ t=4.8
1.0851006092704907
% es.tEY (V/m) @ t=4.8
0
% es.tEZ (V/m) @ t=4.8
-1.1551190575010253
% es.Ex (V/m) @ t=4.8
1.0851006092704836
% es.Ey (V/m) @ t=4.8
0.044144626068252535
% es.Ez (V/m) @ t=4.8
-1.155119057501091
% es.tEx (V/m) @ t=4.8
1.0851006092704907
% es.tEy (V/m) @ t=4.8
0
% es.tEz (V/m) @ t=4.8
-1.1551190575010253
% V (V) @ t=4.8
0.08688102061470956
% es.normE (V/m) @ t=4.9
1.5973961289698424
% es.EX (V/m) @ t=4.9
1.0932678506186448
% es.EY (V/m) @ t=4.9
0.04447692013734539
% es.EZ (V/m) @ t=4.9
-1.1638133884891606
% es.tEX (V/m) @ t=4.9
1.093267850618652
% es.tEY (V/m) @ t=4.9
0
% es.tEZ (V/m) @ t=4.9
-1.1638133884891602
% es.Ex (V/m) @ t=4.9
1.0932678506186448
% es.Ey (V/m) @ t=4.9
0.04447692013734539
% es.Ez (V/m) @ t=4.9
-1.1638133884891606
% es.tEx (V/m) @ t=4.9
1.093267850618652
% es.tEy (V/m) @ t=4.9
0
% es.tEz (V/m) @ t=4.9
-1.1638133884891602
% V (V) @ t=4.9
0.08753508314803238
% es.normE (V/m) @ t=5
1.6088258935044295
% es.EX (V/m) @ t=5
1.1010903054641403
% es.EY (V/m) @ t=5
0.044795200731332585
% es.EZ (V/m) @ t=5
-1.1721408980215013
% es.tEX (V/m) @ t=5
1.1010903054641403
% es.tEY (V/m) @ t=5
0
% es.tEZ (V/m) @ t=5
-1.1721408980215102
% es.Ex (V/m) @ t=5
1.1010903054641403
% es.Ey (V/m) @ t=5
0.044795200731332585
% es.Ez (V/m) @ t=5
-1.1721408980215013
% es.tEx (V/m) @ t=5
1.1010903054641403
% es.tEy (V/m) @ t=5
0
% es.tEz (V/m) @ t=5
-1.1721408980215102
% V (V) @ t=5
0.08816164895486525
% es.normE (V/m) @ t=5.1
1.6197520390671367
% es.EX (V/m) @ t=5.1
1.10856797380697
% es.EY (V/m) @ t=5.1
0.045099467850214126
% es.EZ (V/m) @ t=5.1
-1.1801015860981139
% es.tEX (V/m) @ t=5.1
1.1085679738069771
% es.tEY (V/m) @ t=5.1
0
% es.tEZ (V/m) @ t=5.1
-1.180101586098104
% es.Ex (V/m) @ t=5.1
1.10856797380697
% es.Ey (V/m) @ t=5.1
0.045099467850214126
% es.Ez (V/m) @ t=5.1
-1.1801015860981139
% es.tEx (V/m) @ t=5.1
1.1085679738069771
% es.tEy (V/m) @ t=5.1
0
% es.tEz (V/m) @ t=5.1
-1.180101586098104
% V (V) @ t=5.1
0.08876071803520823
% es.normE (V/m) @ t=5.2
1.6301745656580742
% es.EX (V/m) @ t=5.2
1.115700855647134
% es.EY (V/m) @ t=5.2
0.04538972149387632
% es.EZ (V/m) @ t=5.2
-1.187695452719026
% es.tEX (V/m) @ t=5.2
1.1157008556471197
% es.tEY (V/m) @ t=5.2
0
% es.tEZ (V/m) @ t=5.2
-1.1876954527189696
% es.Ex (V/m) @ t=5.2
1.115700855647134
% es.Ey (V/m) @ t=5.2
0.04538972149387632
% es.Ez (V/m) @ t=5.2
-1.187695452719026
% es.tEx (V/m) @ t=5.2
1.1157008556471197
% es.tEy (V/m) @ t=5.2
0
% es.tEz (V/m) @ t=5.2
-1.1876954527189696
% V (V) @ t=5.2
0.08933229038906124
% es.normE (V/m) @ t=5.3
1.6400934732772692
% es.EX (V/m) @ t=5.3
1.122488950984632
% es.EY (V/m) @ t=5.3
0.045665961662383125
% es.EZ (V/m) @ t=5.3
-1.1949224978840958
% es.tEX (V/m) @ t=5.3
1.1224889509846179
% es.tEY (V/m) @ t=5.3
0