% Model:              1x1--2 - Copy1.mph
% Version:            COMSOL 6.1.0.252
% Date:               Mar 28 2023, 12:28
% Dimension:          0
% Nodes:              14017
% Expressions:        14017
% Description:        Electric field norm, Electric field, X component, Electric field, Y component, Electric field, Z component, Tangential electric field, X component, Tangential electric field, Y component, Tangential electric field, Z component, Electric field, x component, Electric field, y component, Electric field, z component, Tangential electric field, x component, Tangential electric field, y component, Tangential electric field, z component, Electric potential
% Length unit:        mm
% x
2
% y
14.200000000000001
% z
1.66
% es.normE (V/m) @ t=0
0.49866154237030386
% es.EX (V/m) @ t=0
0.2958386481752928
% es.EY (V/m) @ t=0
-0.04671209197223636
% es.EZ (V/m) @ t=0
-0.3986988945915489
% es.tEX (V/m) @ t=0
0.29583864817529815
% es.tEY (V/m) @ t=0
0
% es.tEZ (V/m) @ t=0
-0.3986988945915506
% es.Ex (V/m) @ t=0
0.2958386481752928
% es.Ey (V/m) @ t=0
-0.04671209197223636
% es.Ez (V/m) @ t=0
-0.3986988945915489
% es.tEx (V/m) @ t=0
0.29583864817529815
% es.tEy (V/m) @ t=0
0
% es.tEz (V/m) @ t=0
-0.3986988945915506
% V (V) @ t=0
0.020098093047957327
% es.normE (V/m) @ t=0.1
0.5272729317244192
% es.EX (V/m) @ t=0.1
0.3128127812751398
% es.EY (V/m) @ t=0.1
-0.0493922648529177
% es.EZ (V/m) @ t=0.1
-0.42157480068532893
% es.tEX (V/m) @ t=0.1
0.3128127812751451
% es.tEY (V/m) @ t=0.1
0
% es.tEZ (V/m) @ t=0.1
-0.4215748006853346
% es.Ex (V/m) @ t=0.1
0.3128127812751398
% es.Ey (V/m) @ t=0.1
-0.0493922648529177
% es.Ez (V/m) @ t=0.1
-0.42157480068532893
% es.tEx (V/m) @ t=0.1
0.3128127812751451
% es.tEy (V/m) @ t=0.1
0
% es.tEz (V/m) @ t=0.1
-0.4215748006853346
% V (V) @ t=0.1
0.02125124168440387
% es.normE (V/m) @ t=0.2
0.5634833930316058
% es.EX (V/m) @ t=0.2
0.3342947982209541
% es.EY (V/m) @ t=0.2
-0.052784270743554185
% es.EZ (V/m) @ t=0.2
-0.45052673934728216
% es.tEX (V/m) @ t=0.2
0.334294798220963
% es.tEY (V/m) @ t=0.2
0
% es.tEZ (V/m) @ t=0.2
-0.4505267393472856
% es.Ex (V/m) @ t=0.2
0.3342947982209541
% es.Ey (V/m) @ t=0.2
-0.052784270743554185
% es.Ez (V/m) @ t=0.2
-0.45052673934728216
% es.tEx (V/m) @ t=0.2
0.334294798220963
% es.tEy (V/m) @ t=0.2
0
% es.tEz (V/m) @ t=0.2
-0.4505267393472856
% V (V) @ t=0.2
0.02271101395055023
% es.normE (V/m) @ t=0.3
0.6011375616711933
% es.EX (V/m) @ t=0.3
0.35663316013345714
% es.EY (V/m) @ t=0.3
-0.056311512218305104
% es.EZ (V/m) @ t=0.3
-0.4806330936763502
% es.tEX (V/m) @ t=0.3
0.3566331601334696
% es.tEY (V/m) @ t=0.3
0
% es.tEZ (V/m) @ t=0.3
-0.48063309367634943
% es.Ex (V/m) @ t=0.3
0.35663316013345714
% es.Ey (V/m) @ t=0.3
-0.056311512218305104
% es.Ez (V/m) @ t=0.3
-0.4806330936763502
% es.tEx (V/m) @ t=0.3
0.3566331601334696
% es.tEy (V/m) @ t=0.3
0
% es.tEz (V/m) @ t=0.3
-0.48063309367634943
% V (V) @ t=0.3
0.02422911467499668
% es.normE (V/m) @ t=0.4
0.6410835621389022
% es.EX (V/m) @ t=0.4
0.3803324021079
% es.EY (V/m) @ t=0.4
-0.060053470574964685
% es.EZ (V/m) @ t=0.4
-0.5125709494532832
% es.tEX (V/m) @ t=0.4
0.38033240210790353
% es.tEY (V/m) @ t=0.4
0
% es.tEZ (V/m) @ t=0.4
-0.5125709494532806
% es.Ex (V/m) @ t=0.4
0.3803324021079
% es.Ey (V/m) @ t=0.4
-0.060053470574964685
% es.Ez (V/m) @ t=0.4
-0.5125709494532832
% es.tEx (V/m) @ t=0.4
0.38033240210790353
% es.tEy (V/m) @ t=0.4
0
% es.tEz (V/m) @ t=0.4
-0.5125709494532806
% V (V) @ t=0.4
0.025838480045513937
% es.normE (V/m) @ t=0.5
0.6826790889380869
% es.EX (V/m) @ t=0.5
0.4050105088933549
% es.EY (V/m) @ t=0.5
-0.06394995442100893
% es.EZ (V/m) @ t=0.5
-0.5458274722738249
% es.tEX (V/m) @ t=0.5
0.405010508893362
% es.tEY (V/m) @ t=0.5
0
% es.tEZ (V/m) @ t=0.5
-0.5458274722738281
% es.Ex (V/m) @ t=0.5
0.4050105088933549
% es.Ey (V/m) @ t=0.5
-0.06394995442100893
% es.Ez (V/m) @ t=0.5
-0.5458274722738249
% es.tEx (V/m) @ t=0.5
0.405010508893362
% es.tEy (V/m) @ t=0.5
0
% es.tEz (V/m) @ t=0.5
-0.5458274722738281
% V (V) @ t=0.5
0.02751409308681428
% es.normE (V/m) @ t=0.6
0.7253196814243825
% es.EX (V/m) @ t=0.6
0.4303086385821686
% es.EY (V/m) @ t=0.6
-0.06794433529013766
% es.EZ (V/m) @ t=0.6
-0.579919548838552
% es.tEX (V/m) @ t=0.6
0.4303086385821757
% es.tEY (V/m) @ t=0.6
0
% es.tEZ (V/m) @ t=0.6
-0.5799195488385536
% es.Ex (V/m) @ t=0.6
0.4303086385821686
% es.Ey (V/m) @ t=0.6
-0.06794433529013766
% es.Ez (V/m) @ t=0.6
-0.579919548838552
% es.tEx (V/m) @ t=0.6
0.4303086385821757
% es.tEy (V/m) @ t=0.6
0
% es.tEz (V/m) @ t=0.6
-0.5799195488385536
% V (V) @ t=0.6
0.029231806611410564
% es.normE (V/m) @ t=0.7
0.7693819716872943
% es.EX (V/m) @ t=0.7
0.4564494424938026
% es.EY (V/m) @ t=0.7
-0.07207187534303117
% es.EZ (V/m) @ t=0.7
-0.6151489003396364
% es.tEX (V/m) @ t=0.7
0.45644944249382746
% es.tEY (V/m) @ t=0.7
0
% es.tEZ (V/m) @ t=0.7
-0.6151489003396406
% es.Ex (V/m) @ t=0.7
0.4564494424938026
% es.Ey (V/m) @ t=0.7
-0.07207187534303117
% es.Ez (V/m) @ t=0.7
-0.6151489003396364
% es.tEx (V/m) @ t=0.7
0.45644944249382746
% es.tEy (V/m) @ t=0.7
0
% es.tEz (V/m) @ t=0.7
-0.6151489003396406
% V (V) @ t=0.7
0.031007519954282182
% es.normE (V/m) @ t=0.8
0.8145731815119645
% es.EX (V/m) @ t=0.8
0.4832593839889441
% es.EY (V/m) @ t=0.8
-0.07630515236057
% es.EZ (V/m) @ t=0.8
-0.6512813213568929
% es.tEX (V/m) @ t=0.8
0.4832593839889583
% es.tEY (V/m) @ t=0.8
0
% es.tEZ (V/m) @ t=0.8
-0.6512813213568975
% es.Ex (V/m) @ t=0.8
0.4832593839889441
% es.Ey (V/m) @ t=0.8
-0.07630515236057
% es.Ez (V/m) @ t=0.8
-0.6512813213568929
% es.tEx (V/m) @ t=0.8
0.4832593839889583
% es.tEy (V/m) @ t=0.8
0
% es.tEz (V/m) @ t=0.8
-0.6512813213568975
% V (V) @ t=0.8
0.03282928888683789
% es.normE (V/m) @ t=0.9
0.8608512389081378
% es.EX (V/m) @ t=0.9
0.5107138477790123
% es.EY (V/m) @ t=0.9
-0.08064023334222714
% es.EZ (V/m) @ t=0.9
-0.6882829171081778
% es.tEX (V/m) @ t=0.9
0.5107138477790372
% es.tEY (V/m) @ t=0.9
0
% es.tEZ (V/m) @ t=0.9
-0.6882829171081752
% es.Ex (V/m) @ t=0.9
0.5107138477790123
% es.Ey (V/m) @ t=0.9
-0.08064023334222714
% es.Ez (V/m) @ t=0.9
-0.6882829171081778
% es.tEx (V/m) @ t=0.9
0.5107138477790372
% es.tEy (V/m) @ t=0.9
0
% es.tEz (V/m) @ t=0.9
-0.6882829171081752
% V (V) @ t=0.9
0.034695104173996426
% es.normE (V/m) @ t=1
0.9081178201446791
% es.EX (V/m) @ t=1
0.5387553070651414
% es.EY (V/m) @ t=1
-0.0850679267268446
% es.EZ (V/m) @ t=1
-0.7260744742902516
% es.tEX (V/m) @ t=1
0.538755307065145
% es.tEY (V/m) @ t=1
0
% es.tEZ (V/m) @ t=1
-0.7260744742902503
% es.Ex (V/m) @ t=1
0.5387553070651414
% es.Ey (V/m) @ t=1
-0.0850679267268446
% es.Ez (V/m) @ t=1
-0.7260744742902516
% es.tEx (V/m) @ t=1
0.538755307065145
% es.tEy (V/m) @ t=1
0
% es.tEz (V/m) @ t=1
-0.7260744742902503
% V (V) @ t=1
0.03660027016239373
% es.normE (V/m) @ t=1.1
0.9564329773685696
% es.EX (V/m) @ t=1.1
0.5674188968830443
% es.EY (V/m) @ t=1.1
-0.08959384634728407
% es.EZ (V/m) @ t=1.1
-0.7647043731762198
% es.tEX (V/m) @ t=1.1
0.5674188968830549
% es.tEY (V/m) @ t=1.1
0
% es.tEZ (V/m) @ t=1.1
-0.7647043731762224
% es.Ex (V/m) @ t=1.1
0.5674188968830443
% es.Ey (V/m) @ t=1.1
-0.08959384634728407
% es.Ez (V/m) @ t=1.1
-0.7647043731762198
% es.tEx (V/m) @ t=1.1
0.5674188968830549
% es.tEy (V/m) @ t=1.1
0
% es.tEz (V/m) @ t=1.1
-0.7647043731762224
% V (V) @ t=1.1
0.03854765476667087
% es.normE (V/m) @ t=1.2
1.0052017461653835
% es.EX (V/m) @ t=1.2
0.5963515696497375
% es.EY (V/m) @ t=1.2
-0.09416225710729265
% es.EZ (V/m) @ t=1.2
-0.8036969734960375
% es.tEX (V/m) @ t=1.2
0.5963515696497552
% es.tEY (V/m) @ t=1.2
0
% es.tEZ (V/m) @ t=1.2
-0.803696973496038
% es.Ex (V/m) @ t=1.2
0.5963515696497375
% es.Ey (V/m) @ t=1.2
-0.09416225710729265
% es.Ez (V/m) @ t=1.2
-0.8036969734960375
% es.tEx (V/m) @ t=1.2
0.5963515696497552
% es.tEy (V/m) @ t=1.2
0
% es.tEz (V/m) @ t=1.2
-0.803696973496038
% V (V) @ t=1.2
0.04051334964297127
% es.normE (V/m) @ t=1.3
1.0536544850265472
% es.EX (V/m) @ t=1.3
0.6250966256569548
% es.EY (V/m) @ t=1.3
-0.09870106050414185
% es.EZ (V/m) @ t=1.3
-0.8424369905602468
% es.tEX (V/m) @ t=1.3
0.6250966256569868
% es.tEY (V/m) @ t=1.3
0
% es.tEZ (V/m) @ t=1.3
-0.8424369905602447
% es.Ex (V/m) @ t=1.3
0.6250966256569548
% es.Ey (V/m) @ t=1.3
-0.09870106050414185
% es.Ez (V/m) @ t=1.3
-0.8424369905602468
% es.tEx (V/m) @ t=1.3
0.6250966256569868
% es.tEy (V/m) @ t=1.3
0
% es.tEz (V/m) @ t=1.3
-0.8424369905602447
% V (V) @ t=1.3
0.04246642713682247
% es.normE (V/m) @ t=1.4
1.1023324837011543
% es.EX (V/m) @ t=1.4
0.6539752623293715
% es.EY (V/m) @ t=1.4
-0.10326096349687752
% es.EZ (V/m) @ t=1.4
-0.8813571547912242
% es.tEX (V/m) @ t=1.4
0.6539752623293822
% es.tEY (V/m) @ t=1.4
0
% es.tEZ (V/m) @ t=1.4
-0.8813571547912247
% es.Ex (V/m) @ t=1.4
0.6539752623293715
% es.Ey (V/m) @ t=1.4
-0.10326096349687752
% es.Ez (V/m) @ t=1.4
-0.8813571547912242
% es.tEx (V/m) @ t=1.4
0.6539752623293822
% es.tEy (V/m) @ t=1.4
0
% es.tEz (V/m) @ t=1.4
-0.8813571547912247
% V (V) @ t=1.4
0.04442863870281585
% es.normE (V/m) @ t=1.5
1.1512357421892447
% es.EX (V/m) @ t=1.5
0.6829874796668918
% es.EY (V/m) @ t=1.5
-0.10784196608553298
% es.EZ (V/m) @ t=1.5
-0.9204574661890114
% es.tEX (V/m) @ t=1.5
0.6829874796668989
% es.tEY (V/m) @ t=1.5
0
% es.tEZ (V/m) @ t=1.5
-0.9204574661890064
% es.Ex (V/m) @ t=1.5
0.6829874796668918
% es.Ey (V/m) @ t=1.5
-0.10784196608553298
% es.Ez (V/m) @ t=1.5
-0.9204574661890114
% es.tEx (V/m) @ t=1.5
0.6829874796668989
% es.tEy (V/m) @ t=1.5
0
% es.tEz (V/m) @ t=1.5
-0.9204574661890064
% V (V) @ t=1.5
0.0463999843409514
% es.normE (V/m) @ t=1.6
1.199557663634661
% es.EX (V/m) @ t=1.6
0.7116549080924734
% es.EY (V/m) @ t=1.6
-0.11236851377890167
% es.EZ (V/m) @ t=1.6
-0.9590929033642467
% es.tEX (V/m) @ t=1.6
0.7116549080924983
% es.tEY (V/m) @ t=1.6
0
% es.tEZ (V/m) @ t=1.6
-0.959092903364251
% es.Ex (V/m) @ t=1.6
0.7116549080924734
% es.Ey (V/m) @ t=1.6
-0.11236851377890167
% es.Ez (V/m) @ t=1.6
-0.9590929033642467
% es.tEx (V/m) @ t=1.6
0.7116549080924983
% es.tEy (V/m) @ t=1.6
0
% es.tEz (V/m) @ t=1.6
-0.959092903364251
% V (V) @ t=1.6
0.04834781364403679
% es.normE (V/m) @ t=1.7
1.246350923965605
% es.EX (V/m) @ t=1.7
0.7394157167335322
% es.EY (V/m) @ t=1.7
-0.1167518700693777
% es.EZ (V/m) @ t=1.7
-0.9965059078363044
% es.tEX (V/m) @ t=1.7
0.7394157167335536
% es.tEY (V/m) @ t=1.7
0
% es.tEZ (V/m) @ t=1.7
-0.9965059078363225
% es.Ex (V/m) @ t=1.7
0.7394157167335322
% es.Ey (V/m) @ t=1.7
-0.1167518700693777
% es.Ez (V/m) @ t=1.7
-0.9965059078363044
% es.tEx (V/m) @ t=1.7
0.7394157167335536
% es.tEy (V/m) @ t=1.7
0
% es.tEz (V/m) @ t=1.7
-0.9965059078363225
% V (V) @ t=1.7
0.05023377967773137
% es.normE (V/m) @ t=1.8
1.2924940779654768
% es.EX (V/m) @ t=1.8
0.766790951360278
% es.EY (V/m) @ t=1.8
-0.12107432979734645
% es.EZ (V/m) @ t=1.8
-1.0333990444895675
% es.tEX (V/m) @ t=1.8
0.7667909513603064
% es.tEY (V/m) @ t=1.8
0
% es.tEZ (V/m) @ t=1.8
-1.0333990444895633
% es.Ex (V/m) @ t=1.8
0.766790951360278
% es.Ey (V/m) @ t=1.8
-0.12107432979734645
% es.Ez (V/m) @ t=1.8
-1.0333990444895675
% es.tEx (V/m) @ t=1.8
0.7667909513603064
% es.tEy (V/m) @ t=1.8
0
% es.tEz (V/m) @ t=1.8
-1.0333990444895633
% V (V) @ t=1.8
0.052093445649603005
% es.normE (V/m) @ t=1.9
1.3379871256343798
% es.EX (V/m) @ t=1.9
0.7937806119727924
% es.EY (V/m) @ t=1.9
-0.1253358929627817
% es.EZ (V/m) @ t=1.9
-1.0697723133240415
% es.tEX (V/m) @ t=1.9
0.7937806119728066
% es.tEY (V/m) @ t=1.9
0
% es.tEZ (V/m) @ t=1.9
-1.0697723133240586
% es.Ex (V/m) @ t=1.9
0.7937806119727924
% es.Ey (V/m) @ t=1.9
-0.1253358929627817
% es.Ez (V/m) @ t=1.9
-1.0697723133240415
% es.tEx (V/m) @ t=1.9
0.7937806119728066
% es.tEy (V/m) @ t=1.9
0
% es.tEz (V/m) @ t=1.9
-1.0697723133240586
% V (V) @ t=1.9
0.05392681155965173
% es.normE (V/m) @ t=2
1.3821591521365775
% es.EX (V/m) @ t=2
0.8199864946313795
% es.EY (V/m) @ t=2
-0.1294737074242125
% es.EZ (V/m) @ t=2
-1.1050894215143292
% es.tEX (V/m) @ t=2
0.8199864946314364
% es.tEY (V/m) @ t=2
0
% es.tEZ (V/m) @ t=2
-1.1050894215143359
% es.Ex (V/m) @ t=2
0.8199864946313795
% es.Ey (V/m) @ t=2
-0.1294737074242125
% es.Ez (V/m) @ t=2
-1.1050894215143292
% es.tEx (V/m) @ t=2
0.8199864946314364
% es.tEy (V/m) @ t=2
0
% es.tEz (V/m) @ t=2
-1.1050894215143359
% V (V) @ t=2
0.05570699659986397
% es.normE (V/m) @ t=2.1
1.4241249596282548
% es.EX (V/m) @ t=2.1
0.8448832133261917
% es.EY (V/m) @ t=2.1
-0.13340484673977215
% es.EZ (V/m) @ t=2.1
-1.1386427900540737
% es.tEX (V/m) @ t=2.1
0.8448832133261988
% es.tEY (V/m) @ t=2.1
0
% es.tEZ (V/m) @ t=2.1
-1.138642790054078
% es.Ex (V/m) @ t=2.1
0.8448832133261917
% es.Ey (V/m) @ t=2.1
-0.13340484673977215
% es.Ez (V/m) @ t=2.1
-1.1386427900540737
% es.tEx (V/m) @ t=2.1
0.8448832133261988
% es.tEy (V/m) @ t=2.1
0
% es.tEz (V/m) @ t=2.1
-1.138642790054078
% V (V) @ t=2.1
0.05739853452023372
% es.normE (V/m) @ t=2.2
1.4646743203981427
% es.EX (V/m) @ t=2.2
0.8689395167266909
% es.EY (V/m) @ t=2.2
-0.137203297765927
% es.EZ (V/m) @ t=2.2
-1.1710637199515237
% es.tEX (V/m) @ t=2.2
0.8689395167267122
% es.tEY (V/m) @ t=2.2
0
% es.tEZ (V/m) @ t=2.2
-1.1710637199515332
% es.Ex (V/m) @ t=2.2
0.8689395167266909
% es.Ey (V/m) @ t=2.2
-0.137203297765927
% es.Ez (V/m) @ t=2.2
-1.1710637199515237
% es.tEx (V/m) @ t=2.2
0.8689395167267122
% es.tEy (V/m) @ t=2.2
0
% es.tEz (V/m) @ t=2.2
-1.1710637199515332
% V (V) @ t=2.2
0.059033068259833295
% es.normE (V/m) @ t=2.3
1.5038072344462823
% es.EX (V/m) @ t=2.3
0.8921554048329341
% es.EY (V/m) @ t=2.3
-0.1408690605026388
% es.EZ (V/m) @ t=2.3
-1.202352211206626
% es.tEX (V/m) @ t=2.3
0.8921554048329625
% es.tEY (V/m) @ t=2.3
0
% es.tEZ (V/m) @ t=2.3
-1.2023522112066303
% es.Ex (V/m) @ t=2.3
0.8921554048329341
% es.Ey (V/m) @ t=2.3
-0.1408690605026388
% es.Ez (V/m) @ t=2.3
-1.202352211206626
% es.tEx (V/m) @ t=2.3
0.8921554048329625
% es.tEy (V/m) @ t=2.3
0
% es.tEz (V/m) @ t=2.3
-1.2023522112066303
% V (V) @ t=2.3
0.060610597818662716
% es.normE (V/m) @ t=2.4
1.5413192301804761
% es.EX (V/m) @ t=2.4
0.9144097075154178
% es.EY (V/m) @ t=2.4
-0.14438298410708494
% es.EZ (V/m) @ t=2.4
-1.2323446798789846
% es.tEX (V/m) @ t=2.4
0.9144097075154178
% es.tEY (V/m) @ t=2.4
0
% es.tEZ (V/m) @ t=2.4
-1.2323446798789917
% es.Ex (V/m) @ t=2.4
0.9144097075154178
% es.Ey (V/m) @ t=2.4
-0.14438298410708494
% es.Ez (V/m) @ t=2.4
-1.2323446798789846
% es.tEx (V/m) @ t=2.4
0.9144097075154178
% es.tEy (V/m) @ t=2.4
0
% es.tEz (V/m) @ t=2.4
-1.2323446798789917
% V (V) @ t=2.4
0.06212275866161745
% es.normE (V/m) @ t=2.5
1.576907925024568
% es.EX (V/m) @ t=2.5
0.9355232324693432
% es.EY (V/m) @ t=2.5
-0.14771674737745588
% es.EZ (V/m) @ t=2.5
-1.2607992100487788
% es.tEX (V/m) @ t=2.5
0.9355232324693503
% es.tEY (V/m) @ t=2.5
0
% es.tEZ (V/m) @ t=2.5
-1.2607992100487877
% es.Ex (V/m) @ t=2.5
0.9355232324693432
% es.Ey (V/m) @ t=2.5
-0.14771674737745588
% es.Ez (V/m) @ t=2.5
-1.2607992100487788
% es.tEx (V/m) @ t=2.5
0.9355232324693503
% es.tEy (V/m) @ t=2.5
0
% es.tEz (V/m) @ t=2.5
-1.2607992100487877
% V (V) @ t=2.5
0.0635571809057005
% es.normE (V/m) @ t=2.6
1.6108337863273605
% es.EX (V/m) @ t=2.6
0.9556503329816977
% es.EY (V/m) @ t=2.6
-0.15089474572850392
% es.EZ (V/m) @ t=2.6
-1.2879241840874178
% es.tEX (V/m) @ t=2.6
0.9556503329817474
% es.tEY (V/m) @ t=2.6
0
% es.tEZ (V/m) @ t=2.6
-1.2879241840874158
% es.Ex (V/m) @ t=2.6
0.9556503329816977
% es.Ey (V/m) @ t=2.6
-0.15089474572850392
% es.Ez (V/m) @ t=2.6
-1.2879241840874178
% es.tEx (V/m) @ t=2.6
0.9556503329817474
% es.tEy (V/m) @ t=2.6
0
% es.tEz (V/m) @ t=2.6
-1.2879241840874158
% V (V) @ t=2.6
0.06492451976349485
% es.normE (V/m) @ t=2.7
1.643096814088905
% es.EX (V/m) @ t=2.7
0.9747910090525593
% es.EY (V/m) @ t=2.7
-0.15391697916022018
% es.EZ (V/m) @ t=2.7
-1.3137196019948836
% es.tEX (V/m) @ t=2.7
0.9747910090525664
% es.tEY (V/m) @ t=2.7
0
% es.tEZ (V/m) @ t=2.7
-1.3137196019948902
% es.Ex (V/m) @ t=2.7
0.9747910090525593
% es.Ey (V/m) @ t=2.7
-0.15391697916022018
% es.Ez (V/m) @ t=2.7
-1.3137196019948836
% es.tEx (V/m) @ t=2.7
0.9747910090525664
% es.tEy (V/m) @ t=2.7
0
% es.tEz (V/m) @ t=2.7
-1.3137196019948902
% V (V) @ t=2.7
0.0662247752350005
% es.normE (V/m) @ t=2.8
1.6738808303347106
% es.EX (V/m) @ t=2.8
0.9930543427473353
% es.EY (V/m) @ t=2.8
-0.1568006678829983
% es.EZ (V/m) @ t=2.8
-1.3383324165035095
% es.tEX (V/m) @ t=2.8
0.993054342747385
% es.tEY (V/m) @ t=2.8
0
% es.tEZ (V/m) @ t=2.8
-1.338332416503519
% es.Ex (V/m) @ t=2.8
0.9930543427473353
% es.Ey (V/m) @ t=2.8
-0.1568006678829983
% es.Ez (V/m) @ t=2.8
-1.3383324165035095
% es.tEx (V/m) @ t=2.8
0.993054342747385
% es.tEy (V/m) @ t=2.8
0
% es.tEz (V/m) @ t=2.8
-1.338332416503519
% V (V) @ t=2.8
0.06746533216107695
% es.normE (V/m) @ t=2.9
1.7034900905329782
% es.EX (V/m) @ t=2.9
1.0106208826961662
% es.EY (V/m) @ t=2.9
-0.15957431415695478
% es.EZ (V/m) @ t=2.9
-1.3620058583808712
% es.tEX (V/m) @ t=2.9
1.0106208826961733
% es.tEY (V/m) @ t=2.9
0
% es.tEZ (V/m) @ t=2.9
-1.3620058583808685
% es.Ex (V/m) @ t=2.9
1.0106208826961662
% es.Ey (V/m) @ t=2.9
-0.15957431415695478
% es.Ez (V/m) @ t=2.9
-1.3620058583808712
% es.tEx (V/m) @ t=2.9
1.0106208826961733
% es.tEy (V/m) @ t=2.9
0
% es.tEz (V/m) @ t=2.9
-1.3620058583808685
% V (V) @ t=2.9
0.06865841365919902
% es.normE (V/m) @ t=3
1.7316707916417324
% es.EX (V/m) @ t=3
1.027340019308241
% es.EY (V/m) @ t=3
-0.16221414204024853
% es.EZ (V/m) @ t=3
-1.3845370300121964
% es.tEX (V/m) @ t=3
1.0273400193082836
% es.tEY (V/m) @ t=3
0
% es.tEZ (V/m) @ t=3
-1.384537030012197
% es.Ex (V/m) @ t=3
1.027340019308241
% es.Ey (V/m) @ t=3
-0.16221414204024853
% es.Ez (V/m) @ t=3
-1.3845370300121964
% es.tEx (V/m) @ t=3
1.0273400193082836
% es.tEy (V/m) @ t=3
0
% es.tEz (V/m) @ t=3
-1.384537030012197
% V (V) @ t=3
0.06979382348073607
% es.normE (V/m) @ t=3.1
1.7584229336609796
% es.EX (V/m) @ t=3.1
1.0432117525833604
% es.EY (V/m) @ t=3.1
-0.16472015153288577
% es.EZ (V/m) @ t=3.1
-1.4059259313974624
% es.tEX (V/m) @ t=3.1
1.0432117525834173
% es.tEY (V/m) @ t=3.1
0
% es.tEZ (V/m) @ t=3.1
-1.4059259313974621
% es.Ex (V/m) @ t=3.1
1.0432117525833604
% es.Ey (V/m) @ t=3.1
-0.16472015153288577
% es.Ez (V/m) @ t=3.1
-1.4059259313974624
% es.tEx (V/m) @ t=3.1
1.0432117525834173
% es.tEy (V/m) @ t=3.1
0
% es.tEz (V/m) @ t=3.1
-1.4059259313974621
% V (V) @ t=3.1
0.07087156162568808
% es.normE (V/m) @ t=3.2
1.7842728629051772
% es.EX (V/m) @ t=3.2
1.0585481631442732
% es.EY (V/m) @ t=3.2
-0.16714164382448526
% es.EZ (V/m) @ t=3.2
-1.4265935323361632
% es.tEX (V/m) @ t=3.2
1.0585481631442804
% es.tEY (V/m) @ t=3.2
0
% es.tEZ (V/m) @ t=3.2
-1.4265935323361845
% es.Ex (V/m) @ t=3.2
1.0585481631442732
% es.Ey (V/m) @ t=3.2
-0.16714164382448526
% es.Ez (V/m) @ t=3.2
-1.4265935323361632
% es.tEx (V/m) @ t=3.2
1.0585481631442804
% es.tEy (V/m) @ t=3.2
0
% es.tEz (V/m) @ t=3.2
-1.4265935323361845
% V (V) @ t=3.2
0.07191300676100323
% es.normE (V/m) @ t=3.3
1.8101949336668282
% es.EX (V/m) @ t=3.3
1.0739269639642757
% es.EY (V/m) @ t=3.3
-0.1695698835913424
% es.EZ (V/m) @ t=3.3
-1.44731911772157
% es.tEX (V/m) @ t=3.3
1.0739269639642828
% es.tEY (V/m) @ t=3.3
0
% es.tEZ (V/m) @ t=3.3
-1.4473191177215625
% es.Ex (V/m) @ t=3.3
1.0739269639642757
% es.Ey (V/m) @ t=3.3
-0.1695698835913424
% es.Ez (V/m) @ t=3.3
-1.44731911772157
% es.tEx (V/m) @ t=3.3
1.0739269639642828
% es.tEy (V/m) @ t=3.3
0
% es.tEz (V/m) @ t=3.3
-1.4473191177215625
% V (V) @ t=3.3
0.0729577343436591
% es.normE (V/m) @ t=3.4
1.8353999457910597
% es.EX (V/m) @ t=3.4
1.0888802234384087
% es.EY (V/m) @ t=3.4
-0.17193094895811978
% es.EZ (V/m) @ t=3.4
-1.4674714882425848
% es.tEX (V/m) @ t=3.4
1.0888802234384372
% es.tEY (V/m) @ t=3.4
0
% es.tEZ (V/m) @ t=3.4
-1.4674714882425945
% es.Ex (V/m) @ t=3.4
1.0888802234384087
% es.Ey (V/m) @ t=3.4
-0.17193094895811978
% es.Ez (V/m) @ t=3.4
-1.4674714882425848
% es.tEx (V/m) @ t=3.4
1.0888802234384372
% es.tEy (V/m) @ t=3.4
0
% es.tEz (V/m) @ t=3.4
-1.4674714882425945
% V (V) @ t=3.4
0.07397368934295305
% es.normE (V/m) @ t=3.5
1.8598878992779757
% es.EX (V/m) @ t=3.5
1.1034079415667932
% es.EY (V/m) @ t=3.5
-0.17422483992477122
% es.EZ (V/m) @ t=3.5
-1.487050643899246
% es.tEX (V/m) @ t=3.5
1.1034079415668288
% es.tEY (V/m) @ t=3.5
0
% es.tEZ (V/m) @ t=3.5
-1.4870506438992521
% es.Ex (V/m) @ t=3.5
1.1034079415667932
% es.Ey (V/m) @ t=3.5
-0.17422483992477122
% es.Ez (V/m) @ t=3.5
-1.487050643899246
% es.tEx (V/m) @ t=3.5
1.1034079415668288
% es.tEy (V/m) @ t=3.5
0
% es.tEz (V/m) @ t=3.5
-1.4870506438992521
% V (V) @ t=3.5
0.07496087175888506
% es.normE (V/m) @ t=3.6
1.883658794127492
% es.EX (V/m) @ t=3.6
1.1175101183492515
% es.EY (V/m) @ t=3.6
-0.1764515564912923
% es.EZ (V/m) @ t=3.6
-1.506056584691518
% es.tEX (V/m) @ t=3.6
1.117510118349287
% es.tEY (V/m) @ t=3.6
0
% es.tEZ (V/m) @ t=3.6
-1.506056584691521
% es.Ex (V/m) @ t=3.6
1.1175101183492515
% es.Ey (V/m) @ t=3.6
-0.1764515564912923
% es.Ez (V/m) @ t=3.6
-1.506056584691518
% es.tEx (V/m) @ t=3.6
1.117510118349287
% es.tEy (V/m) @ t=3.6
0
% es.tEz (V/m) @ t=3.6
-1.506056584691521
% V (V) @ t=3.6
0.07591928159145517
% es.normE (V/m) @ t=3.7
1.9067126303398285
% es.EX (V/m) @ t=3.7
1.1311867537859328
% es.EY (V/m) @ t=3.7
-0.17861109865775138
% es.EZ (V/m) @ t=3.7
-1.5244893106194422
% es.tEX (V/m) @ t=3.7
1.1311867537859968
% es.tEY (V/m) @ t=3.7
0
% es.tEZ (V/m) @ t=3.7
-1.5244893106194581
% es.Ex (V/m) @ t=3.7
1.1311867537859328
% es.Ey (V/m) @ t=3.7
-0.17861109865775138
% es.Ez (V/m) @ t=3.7
-1.5244893106194422
% es.tEx (V/m) @ t=3.7
1.1311867537859968
% es.tEy (V/m) @ t=3.7
0
% es.tEz (V/m) @ t=3.7
-1.5244893106194581
% V (V) @ t=3.7
0.07684891884066335
% es.normE (V/m) @ t=3.8
1.9290494079150682
% es.EX (V/m) @ t=3.8
1.1444378478767803
% es.EY (V/m) @ t=3.8
-0.18070346642410406
% es.EZ (V/m) @ t=3.8
-1.5423488216830041
% es.tEX (V/m) @ t=3.8
1.1444378478768016
% es.tEY (V/m) @ t=3.8
0
% es.tEZ (V/m) @ t=3.8
-1.5423488216830066
% es.Ex (V/m) @ t=3.8
1.1444378478767803
% es.Ey (V/m) @ t=3.8
-0.18070346642410406
% es.Ez (V/m) @ t=3.8
-1.5423488216830041
% es.tEx (V/m) @ t=3.8
1.1444378478768016
% es.tEy (V/m) @ t=3.8
0
% es.tEz (V/m) @ t=3.8
-1.5423488216830066
% V (V) @ t=3.8
0.07774978350650959
% es.normE (V/m) @ t=3.9
1.9506691268533642
% es.EX (V/m) @ t=3.9
1.1572634006217726
% es.EY (V/m) @ t=3.9
-0.18272865979038233
% es.EZ (V/m) @ t=3.9
-1.5596351178821948
% es.tEX (V/m) @ t=3.9
1.1572634006217868
% es.tEY (V/m) @ t=3.9
0
% es.tEZ (V/m) @ t=3.9
-1.5596351178821948
% es.Ex (V/m) @ t=3.9
1.1572634006217726
% es.Ey (V/m) @ t=3.9
-0.18272865979038233
% es.Ez (V/m) @ t=3.9
-1.5596351178821948
% es.tEx (V/m) @ t=3.9
1.1572634006217868
% es.tEy (V/m) @ t=3.9
0
% es.tEz (V/m) @ t=3.9
-1.5596351178821948
% V (V) @ t=3.9
0.07862187558899392
% es.normE (V/m) @ t=4
1.9717929202143978
% es.EX (V/m) @ t=4
1.1697949271966195
% es.EY (V/m) @ t=4
-0.18470740147106302
% es.EZ (V/m) @ t=4
-1.5765247617321099
% es.tEX (V/m) @ t=4
1.1697949271966195
% es.tEY (V/m) @ t=4
0
% es.tEZ (V/m) @ t=4
-1.5765247617321307
% es.Ex (V/m) @ t=4
1.1697949271966195
% es.Ey (V/m) @ t=4
-0.18470740147106302
% es.Ez (V/m) @ t=4
-1.5765247617321099
% es.tEx (V/m) @ t=4
1.1697949271966195
% es.tEy (V/m) @ t=4
0
% es.tEz (V/m) @ t=4
-1.5765247617321307
% V (V) @ t=4
0.07947381088657676
% es.normE (V/m) @ t=4.1
1.9928266807466692
% es.EX (V/m) @ t=4.1
1.1822738255011274
% es.EY (V/m) @ t=4.1
-0.18667772829192497
% es.EZ (V/m) @ t=4.1
-1.5933418361389007
% es.tEX (V/m) @ t=4.1
1.1822738255011558
% es.tEY (V/m) @ t=4.1
0
% es.tEZ (V/m) @ t=4.1
-1.5933418361389045
% es.Ex (V/m) @ t=4.1
1.1822738255011274
% es.Ey (V/m) @ t=4.1
-0.18667772829192497
% es.Ez (V/m) @ t=4.1
-1.5933418361389007
% es.tEx (V/m) @ t=4.1
1.1822738255011558
% es.tEy (V/m) @ t=4.1
0
% es.tEz (V/m) @ t=4.1
-1.5933418361389045
% V (V) @ t=4.1
0.08032140381491795
% es.normE (V/m) @ t=4.2
2.013319333343352
% es.EX (V/m) @ t=4.2
1.1944318261863174
% es.EY (V/m) @ t=4.2
-0.188597369319929
% es.EZ (V/m) @ t=4.2
-1.6097261825829081
% es.tEX (V/m) @ t=4.2
1.1944318261863742
% es.tEY (V/m) @ t=4.2
0
% es.tEZ (V/m) @ t=4.2
-1.6097261825828895
% es.Ex (V/m) @ t=4.2
1.1944318261863174
% es.Ey (V/m) @ t=4.2
-0.188597369319929
% es.Ez (V/m) @ t=4.2
-1.6097261825829081
% es.tEx (V/m) @ t=4.2
1.1944318261863742
% es.tEy (V/m) @ t=4.2
0
% es.tEz (V/m) @ t=4.2
-1.6097261825828895
% V (V) @ t=4.2
0.08114707956082837
% es.normE (V/m) @ t=4.3
2.0332708780045543
% es.EX (V/m) @ t=4.3
1.2062689292522109
% es.EY (V/m) @ t=4.3
-0.19046632455505552
% es.EZ (V/m) @ t=4.3
-1.6256778010641053
% es.tEX (V/m) @ t=4.3
1.2062689292522606
% es.tEY (V/m) @ t=4.3
0
% es.tEZ (V/m) @ t=4.3
-1.6256778010641142
% es.Ex (V/m) @ t=4.3
1.2062689292522109
% es.Ey (V/m) @ t=4.3
-0.19046632455505552
% es.Ez (V/m) @ t=4.3
-1.6256778010641053
% es.tEx (V/m) @ t=4.3
1.2062689292522606
% es.tEy (V/m) @ t=4.3
0
% es.tEz (V/m) @ t=4.3
-1.6256778010641142
% V (V) @ t=4.3
0.08195083812430803
% es.normE (V/m) @ t=4.4
2.052681314730447
% es.EX (V/m) @ t=4.4
1.2177851346988149
% es.EY (V/m) @ t=4.4
-0.19228459399726638
% es.EZ (V/m) @ t=4.4
-1.6411966915825205
% es.tEX (V/m) @ t=4.4
1.2177851346988575
% es.tEY (V/m) @ t=4.4
0
% es.tEZ (V/m) @ t=4.4
-1.6411966915825218
% es.Ex (V/m) @ t=4.4
1.2177851346988149
% es.Ey (V/m) @ t=4.4
-0.19228459399726638
% es.Ez (V/m) @ t=4.4
-1.6411966915825205
% es.tEx (V/m) @ t=4.4
1.2177851346988575
% es.tEy (V/m) @ t=4.4
0
% es.tEz (V/m) @ t=4.4
-1.6411966915825218
% V (V) @ t=4.4
0.08273267950535695
% es.normE (V/m) @ t=4.5
2.0715506435212045
% es.EX (V/m) @ t=4.5
1.2289804425260726
% es.EY (V/m) @ t=4.5
-0.19405217764679605
% es.EZ (V/m) @ t=4.5
-1.6562828541381667
% es.tEX (V/m) @ t=4.5
1.2289804425261224
% es.tEY (V/m) @ t=4.5
0
% es.tEZ (V/m) @ t=4.5
-1.6562828541381691
% es.Ex (V/m) @ t=4.5
1.2289804425260726
% es.Ey (V/m) @ t=4.5
-0.19405217764679605
% es.Ez (V/m) @ t=4.5
-1.6562828541381667
% es.tEx (V/m) @ t=4.5
1.2289804425261224
% es.tEy (V/m) @ t=4.5
0
% es.tEz (V/m) @ t=4.5
-1.6562828541381691
% V (V) @ t=4.5
0.08349260370397513
% es.normE (V/m) @ t=4.6
2.089878864377069
% es.EX (V/m) @ t=4.6
1.2398548527340552
% es.EY (V/m) @ t=4.6
-0.19576907550342337
% es.EZ (V/m) @ t=4.6
-1.6709362887310628
% es.tEX (V/m) @ t=4.6
1.2398548527340978
% es.tEY (V/m) @ t=4.6
0
% es.tEZ (V/m) @ t=4.6
-1.6709362887310562
% es.Ex (V/m) @ t=4.6
1.2398548527340552
% es.Ey (V/m) @ t=4.6
-0.19576907550342337
% es.Ez (V/m) @ t=4.6
-1.6709362887310628
% es.tEx (V/m) @ t=4.6
1.2398548527340978
% es.tEy (V/m) @ t=4.6
0
% es.tEz (V/m) @ t=4.6
-1.6709362887310562
% V (V) @ t=4.6
0.08423061072016254
% es.normE (V/m) @ t=4.7
2.1074586727645013
% es.EX (V/m) @ t=4.7
1.2502850041907578
% es.EY (V/m) @ t=4.7
-0.19741586008269518
% es.EZ (V/m) @ t=4.7
-1.6849915263566877
% es.tEX (V/m) @ t=4.7
1.2502850041907863
% es.tEY (V/m) @ t=4.7
0
% es.tEZ (V/m) @ t=4.7
-1.6849915263566828
% es.Ex (V/m) @ t=4.7
1.2502850041907578
% es.Ey (V/m) @ t=4.7
-0.19741586008269518
% es.Ez (V/m) @ t=4.7
-1.6849915263566877
% es.tEx (V/m) @ t=4.7
1.2502850041907863
% es.tEy (V/m) @ t=4.7
0
% es.tEz (V/m) @ t=4.7
-1.6849915263566828
% V (V) @ t=4.7
0.08493868030037699
% es.normE (V/m) @ t=4.8
2.1241209958775955
% es.EX (V/m) @ t=4.8
1.2601702863965585
% es.EY (V/m) @ t=4.8
-0.1989766867756506
% es.EZ (V/m) @ t=4.8
-1.6983136143042101
% es.tEX (V/m) @ t=4.8
1.260170286396587
% es.tEY (V/m) @ t=4.8
0
% es.tEZ (V/m) @ t=4.8
-1.6983136143042117
% es.Ex (V/m) @ t=4.8
1.2601702863965585
% es.Ey (V/m) @ t=4.8
-0.1989766867756506
% es.Ez (V/m) @ t=4.8
-1.6983136143042101
% es.tEx (V/m) @ t=4.8
1.260170286396587
% es.tEy (V/m) @ t=4.8
0
% es.tEz (V/m) @ t=4.8
-1.6983136143042117
% V (V) @ t=4.8
0.0856102713104542
% es.normE (V/m) @ t=4.9
2.1401084290577677
% es.EX (V/m) @ t=4.9
1.269655061056774
% es.EY (V/m) @ t=4.9
-0.2004742903345358
% es.EZ (V/m) @ t=4.9
-1.7110961904498205
% es.tEX (V/m) @ t=4.9
1.2696550610567954
% es.tEY (V/m) @ t=4.9
0
% es.tEZ (V/m) @ t=4.9
-1.7110961904498225
% es.Ex (V/m) @ t=4.9
1.269655061056774
% es.Ey (V/m) @ t=4.9
-0.2004742903345358
% es.Ez (V/m) @ t=4.9
-1.7110961904498205
% es.tEx (V/m) @ t=4.9
1.2696550610567954
% es.tEy (V/m) @ t=4.9
0
% es.tEz (V/m) @ t=4.9
-1.7110961904498225
% V (V) @ t=4.9
0.08625476934420148
% es.normE (V/m) @ t=5
2.1554209723049325
% es.EX (V/m) @ t=5
1.2787393281711417
% es.EY (V/m) @ t=5
-0.20190867075931163
% es.EZ (V/m) @ t=5
-1.7233392547936013
% es.tEX (V/m) @ t=5
1.2787393281711843
% es.tEY (V/m) @ t=5
0
% es.tEZ (V/m) @ t=5
-1.7233392547936148
% es.Ex (V/m) @ t=5
1.2787393281711417
% es.Ey (V/m) @ t=5
-0.20190867075931163
% es.Ez (V/m) @ t=5
-1.7233392547936013
% es.tEx (V/m) @ t=5
1.2787393281711843
% es.tEy (V/m) @ t=5
0
% es.tEz (V/m) @ t=5
-1.7233392547936148
% V (V) @ t=5
0.08687217440161886
% es.normE (V/m) @ t=5.1
2.170058625619198
% es.EX (V/m) @ t=5.1
1.2874230877398105
% es.EY (V/m) @ t=5.1
-0.20327982805009537
% es.EZ (V/m) @ t=5.1
-1.7350428073355126
% es.tEX (V/m) @ t=5.1
1.287423087739839
% es.tEY (V/m) @ t=5.1
0
% es.tEZ (V/m) @ t=5.1
-1.7350428073355175
% es.Ex (V/m) @ t=5.1
1.2874230877398105
% es.Ey (V/m) @ t=5.1
-0.20327982805009537
% es.Ez (V/m) @ t=5.1
-1.7350428073355126
% es.tEx (V/m) @ t=5.1
1.287423087739839
% es.tEy (V/m) @ t=5.1
0
% es.tEz (V/m) @ t=5.1
-1.7350428073355175
% V (V) @ t=5.1
0.08746248648270631
% es.normE (V/m) @ t=5.2
2.1840213890006357
% es.EX (V/m) @ t=5.2
1.2957063397627806
% es.EY (V/m) @ t=5.2
-0.2045877622066543
% es.EZ (V/m) @ t=5.2
-1.746206848075587
% es.tEX (V/m) @ t=5.2
1.2957063397628161
% es.tEY (V/m) @ t=5.2
0
% es.tEZ (V/m) @ t=5.2
-1.7462068480755875
% es.Ex (V/m) @ t=5.2
1.2957063397627806
% es.Ey (V/m) @ t=5.2
-0.2045877622066543
% es.Ez (V/m) @ t=5.2
-1.746206848075587
% es.tEx (V/m) @ t=5.2
1.2957063397628161
% es.tEy (V/m) @ t=5.2
0
% es.tEz (V/m) @ t=5.2
-1.7462068480755875
% V (V) @ t=5.2
0.08802570558746384
% es.normE (V/m) @ t=5.3
2.19730926244933
% es.EX (V/m) @ t=5.3
1.3035890842399809
% es.EY (V/m) @ t=5.3
-0.20583247322928422
% es.EZ (V/m) @ t=5.3
-1.7568313770138277
% es.tEX (V/m) @ t=5.3
1.3035890842400164
% es.tEY (V/m) @ t=5.3
0