% Model:              1x1--2 - Copy1.mph
% Version:            COMSOL 6.1.0.252
% Date:               Mar 28 2023, 12:27
% Dimension:          0
% Nodes:              14017
% Expressions:        14017
% Description:        Electric field norm, Electric field, X component, Electric field, Y component, Electric field, Z component, Tangential electric field, X component, Tangential electric field, Y component, Tangential electric field, Z component, Electric field, x component, Electric field, y component, Electric field, z component, Tangential electric field, x component, Tangential electric field, y component, Tangential electric field, z component, Electric potential
% Length unit:        mm
% x
2
% y
14.200000000000001
% z
2
% es.normE (V/m) @ t=0
0.4335909630391399
% es.EX (V/m) @ t=0
0.256140337466368
% es.EY (V/m) @ t=0
-0.017554226752407365
% es.EZ (V/m) @ t=0
-0.349406782811881
% es.tEX (V/m) @ t=0
0.2561403374663467
% es.tEY (V/m) @ t=0
0
% es.tEZ (V/m) @ t=0
-0.3494067828118812
% es.Ex (V/m) @ t=0
0.256140337466368
% es.Ey (V/m) @ t=0
-0.017554226752407365
% es.Ez (V/m) @ t=0
-0.349406782811881
% es.tEx (V/m) @ t=0
0.2561403374663467
% es.tEy (V/m) @ t=0
0
% es.tEz (V/m) @ t=0
-0.3494067828118812
% V (V) @ t=0
0.020225271013115914
% es.normE (V/m) @ t=0.1
0.45846883010139133
% es.EX (V/m) @ t=0.1
0.27083672375912293
% es.EY (V/m) @ t=0.1
-0.01856142565933605
% es.EZ (V/m) @ t=0.1
-0.3694544771896206
% es.tEX (V/m) @ t=0.1
0.2708367237591176
% es.tEY (V/m) @ t=0.1
0
% es.tEZ (V/m) @ t=0.1
-0.36945447718962576
% es.Ex (V/m) @ t=0.1
0.27083672375912293
% es.Ey (V/m) @ t=0.1
-0.01856142565933605
% es.Ez (V/m) @ t=0.1
-0.3694544771896206
% es.tEx (V/m) @ t=0.1
0.2708367237591176
% es.tEy (V/m) @ t=0.1
0
% es.tEz (V/m) @ t=0.1
-0.36945447718962576
% V (V) @ t=0.1
0.021385716661642618
% es.normE (V/m) @ t=0.2
0.4899544290347663
% es.EX (V/m) @ t=0.2
0.2894360415381314
% es.EY (V/m) @ t=0.2
-0.019836143593944033
% es.EZ (V/m) @ t=0.2
-0.3948273645491677
% es.tEX (V/m) @ t=0.2
0.28943604153811897
% es.tEY (V/m) @ t=0.2
0
% es.tEZ (V/m) @ t=0.2
-0.3948273645491689
% es.Ex (V/m) @ t=0.2
0.2894360415381314
% es.Ey (V/m) @ t=0.2
-0.019836143593944033
% es.Ez (V/m) @ t=0.2
-0.3948273645491677
% es.tEx (V/m) @ t=0.2
0.28943604153811897
% es.tEy (V/m) @ t=0.2
0
% es.tEz (V/m) @ t=0.2
-0.3948273645491689
% V (V) @ t=0.2
0.022854724148212636
% es.normE (V/m) @ t=0.3
0.522695452349809
% es.EX (V/m) @ t=0.3
0.3087767740845635
% es.EY (V/m) @ t=0.3
-0.0211616885978978
% es.EZ (V/m) @ t=0.3
-0.42121208746756944
% es.tEX (V/m) @ t=0.3
0.3087767740845706
% es.tEY (V/m) @ t=0.3
0
% es.tEZ (V/m) @ t=0.3
-0.42121208746757155
% es.Ex (V/m) @ t=0.3
0.3087767740845635
% es.Ey (V/m) @ t=0.3
-0.0211616885978978
% es.Ez (V/m) @ t=0.3
-0.42121208746756944
% es.tEx (V/m) @ t=0.3
0.3087767740845706
% es.tEy (V/m) @ t=0.3
0
% es.tEz (V/m) @ t=0.3
-0.42121208746757155
% V (V) @ t=0.3
0.024382428355791155
% es.normE (V/m) @ t=0.4
0.5574284049710988
% es.EX (V/m) @ t=0.4
0.3292959107185176
% es.EY (V/m) @ t=0.4
-0.022567876243947183
% es.EZ (V/m) @ t=0.4
-0.4492007578071562
% es.tEX (V/m) @ t=0.4
0.32929591071851405
% es.tEY (V/m) @ t=0.4
0
% es.tEZ (V/m) @ t=0.4
-0.4492007578071586
% es.Ex (V/m) @ t=0.4
0.3292959107185176
% es.Ey (V/m) @ t=0.4
-0.022567876243947183
% es.Ez (V/m) @ t=0.4
-0.4492007578071562
% es.tEx (V/m) @ t=0.4
0.32929591071851405
% es.tEy (V/m) @ t=0.4
0
% es.tEz (V/m) @ t=0.4
-0.4492007578071586
% V (V) @ t=0.4
0.02600198123574822
% es.normE (V/m) @ t=0.5
0.5935954581765926
% es.EX (V/m) @ t=0.5
0.3506625888170518
% es.EY (V/m) @ t=0.5
-0.0240321238949468
% es.EZ (V/m) @ t=0.5
-0.4783448272879096
% es.tEX (V/m) @ t=0.5
0.35066258881703405
% es.tEY (V/m) @ t=0.5
0
% es.tEZ (V/m) @ t=0.5
-0.47834482728790917
% es.Ex (V/m) @ t=0.5
0.3506625888170518
% es.Ey (V/m) @ t=0.5
-0.0240321238949468
% es.Ez (V/m) @ t=0.5
-0.4783448272879096
% es.tEx (V/m) @ t=0.5
0.35066258881703405
% es.tEy (V/m) @ t=0.5
0
% es.tEz (V/m) @ t=0.5
-0.47834482728790917
% V (V) @ t=0.5
0.027688202377739782
% es.normE (V/m) @ t=0.6
0.6306711908797403
% es.EX (V/m) @ t=0.6
0.3725660920183991
% es.EY (V/m) @ t=0.6
-0.025533160003859745
% es.EZ (V/m) @ t=0.6
-0.5082211288642229
% es.tEX (V/m) @ t=0.6
0.3725660920183671
% es.tEY (V/m) @ t=0.6
0
% es.tEZ (V/m) @ t=0.6
-0.5082211288642249
% es.Ex (V/m) @ t=0.6
0.3725660920183991
% es.Ey (V/m) @ t=0.6
-0.025533160003859745
% es.Ez (V/m) @ t=0.6
-0.5082211288642229
% es.tEx (V/m) @ t=0.6
0.3725660920183671
% es.tEy (V/m) @ t=0.6
0
% es.tEz (V/m) @ t=0.6
-0.5082211288642249
% V (V) @ t=0.6
0.02941679052662004
% es.normE (V/m) @ t=0.7
0.6689836344486124
% es.EX (V/m) @ t=0.7
0.3951991034993618
% es.EY (V/m) @ t=0.7
-0.02708426674897746
% es.EZ (V/m) @ t=0.7
-0.5390948100733726
% es.tEX (V/m) @ t=0.7
0.3951991034993405
% es.tEY (V/m) @ t=0.7
0
% es.tEZ (V/m) @ t=0.7
-0.5390948100733759
% es.Ex (V/m) @ t=0.7
0.3951991034993618
% es.Ey (V/m) @ t=0.7
-0.02708426674897746
% es.Ez (V/m) @ t=0.7
-0.5390948100733726
% es.tEx (V/m) @ t=0.7
0.3951991034993405
% es.tEy (V/m) @ t=0.7
0
% es.tEz (V/m) @ t=0.7
-0.5390948100733759
% V (V) @ t=0.7
0.031203741385052403
% es.normE (V/m) @ t=0.8
0.7082781060620785
% es.EX (V/m) @ t=0.8
0.4184113915193812
% es.EY (V/m) @ t=0.8
-0.028675132802780112
% es.EZ (V/m) @ t=0.8
-0.5707604749213483
% es.tEX (V/m) @ t=0.8
0.4184113915193741
% es.tEY (V/m) @ t=0.8
0
% es.tEZ (V/m) @ t=0.8
-0.5707604749213502
% es.Ex (V/m) @ t=0.8
0.4184113915193812
% es.Ey (V/m) @ t=0.8
-0.028675132802780112
% es.Ez (V/m) @ t=0.8
-0.5707604749213483
% es.tEx (V/m) @ t=0.8
0.4184113915193741
% es.tEy (V/m) @ t=0.8
0
% es.tEz (V/m) @ t=0.8
-0.5707604749213502
% V (V) @ t=0.8
0.033037035992205206
% es.normE (V/m) @ t=0.9
0.7485177856942492
% es.EX (V/m) @ t=0.9
0.4421816832937786
% es.EY (V/m) @ t=0.9
-0.030304266762885668
% es.EZ (V/m) @ t=0.9
-0.6031881015703695
% es.tEX (V/m) @ t=0.9
0.44218168329377505
% es.tEY (V/m) @ t=0.9
0
% es.tEZ (V/m) @ t=0.9
-0.6031881015703746
% es.Ex (V/m) @ t=0.9
0.4421816832937786
% es.Ey (V/m) @ t=0.9
-0.030304266762885668
% es.Ez (V/m) @ t=0.9
-0.6031881015703695
% es.tEx (V/m) @ t=0.9
0.44218168329377505
% es.tEy (V/m) @ t=0.9
0
% es.tEz (V/m) @ t=0.9
-0.6031881015703746
% V (V) @ t=0.9
0.03491465424717179
% es.normE (V/m) @ t=1
0.7896166236357849
% es.EX (V/m) @ t=1
0.4664602635733246
% es.EY (V/m) @ t=1
-0.03196818316917183
% es.EZ (V/m) @ t=1
-0.6363075279249363
% es.tEX (V/m) @ t=1
0.4664602635732997
% es.tEY (V/m) @ t=1
0
% es.tEZ (V/m) @ t=1
-0.6363075279249379
% es.Ex (V/m) @ t=1
0.4664602635733246
% es.Ey (V/m) @ t=1
-0.03196818316917183
% es.Ez (V/m) @ t=1
-0.6363075279249363
% es.tEx (V/m) @ t=1
0.4664602635732997
% es.tEy (V/m) @ t=1
0
% es.tEz (V/m) @ t=1
-0.6363075279249379
% V (V) @ t=1
0.03683187510277033
% es.normE (V/m) @ t=1.1
0.8316271755583801
% es.EX (V/m) @ t=1.1
0.4912774964159894
% es.EY (V/m) @ t=1.1
-0.03366901079937401
% es.EZ (V/m) @ t=1.1
-0.6701616061475305
% es.tEX (V/m) @ t=1.1
0.49127749641597873
% es.tEY (V/m) @ t=1.1
0
% es.tEZ (V/m) @ t=1.1
-0.6701616061475306
% es.Ex (V/m) @ t=1.1
0.4912774964159894
% es.Ey (V/m) @ t=1.1
-0.03366901079937401
% es.Ez (V/m) @ t=1.1
-0.6701616061475305
% es.tEx (V/m) @ t=1.1
0.49127749641597873
% es.tEy (V/m) @ t=1.1
0
% es.tEz (V/m) @ t=1.1
-0.6701616061475306
% V (V) @ t=1.1
0.03879158198315592
% es.normE (V/m) @ t=1.2
0.8740321684609329
% es.EX (V/m) @ t=1.2
0.5163277010280822
% es.EY (V/m) @ t=1.2
-0.035385807601696406
% es.EZ (V/m) @ t=1.2
-0.7043335724469988
% es.tEX (V/m) @ t=1.2
0.516327701028068
% es.tEY (V/m) @ t=1.2
0
% es.tEZ (V/m) @ t=1.2
-0.7043335724470055
% es.Ex (V/m) @ t=1.2
0.5163277010280822
% es.Ey (V/m) @ t=1.2
-0.035385807601696406
% es.Ez (V/m) @ t=1.2
-0.7043335724469988
% es.tEx (V/m) @ t=1.2
0.516327701028068
% es.tEy (V/m) @ t=1.2
0
% es.tEz (V/m) @ t=1.2
-0.7043335724470055
% V (V) @ t=1.2
0.040769714835781595
% es.normE (V/m) @ t=1.3
0.9161624618651975
% es.EX (V/m) @ t=1.3
0.5412154510251455
% es.EY (V/m) @ t=1.3
-0.03709148309498067
% es.EZ (V/m) @ t=1.3
-0.7382843043058429
% es.tEX (V/m) @ t=1.3
0.5412154510251277
% es.tEY (V/m) @ t=1.3
0
% es.tEZ (V/m) @ t=1.3
-0.7382843043058465
% es.Ex (V/m) @ t=1.3
0.5412154510251455
% es.Ey (V/m) @ t=1.3
-0.03709148309498067
% es.Ez (V/m) @ t=1.3
-0.7382843043058429
% es.tEx (V/m) @ t=1.3
0.5412154510251277
% es.tEy (V/m) @ t=1.3
0
% es.tEz (V/m) @ t=1.3
-0.7382843043058465
% V (V) @ t=1.3
0.042735149756949725
% es.normE (V/m) @ t=1.4
0.958488663031373
% es.EX (V/m) @ t=1.4
0.5662188502334509
% es.EY (V/m) @ t=1.4
-0.038805090045438195
% es.EZ (V/m) @ t=1.4
-0.7723929672042227
% es.tEX (V/m) @ t=1.4
0.5662188502334153
% es.tEY (V/m) @ t=1.4
0
% es.tEZ (V/m) @ t=1.4
-0.7723929672042225
% es.Ex (V/m) @ t=1.4
0.5662188502334509
% es.Ey (V/m) @ t=1.4
-0.038805090045438195
% es.Ez (V/m) @ t=1.4
-0.7723929672042227
% es.tEx (V/m) @ t=1.4
0.5662188502334153
% es.tEy (V/m) @ t=1.4
0
% es.tEz (V/m) @ t=1.4
-0.7723929672042225
% V (V) @ t=1.4
0.044709776223555084
% es.normE (V/m) @ t=1.5
1.0010107719595844
% es.EX (V/m) @ t=1.5
0.5913378986529487
% es.EY (V/m) @ t=1.5
-0.040526628453149804
% es.EZ (V/m) @ t=1.5
-0.8066595611421579
% es.tEX (V/m) @ t=1.5
0.5913378986529239
% es.tEY (V/m) @ t=1.5
0
% es.tEZ (V/m) @ t=1.5
-0.8066595611421583
% es.Ex (V/m) @ t=1.5
0.5913378986529487
% es.Ey (V/m) @ t=1.5
-0.040526628453149804
% es.Ez (V/m) @ t=1.5
-0.8066595611421579
% es.tEx (V/m) @ t=1.5
0.5913378986529239
% es.tEy (V/m) @ t=1.5
0
% es.tEz (V/m) @ t=1.5
-0.8066595611421583
% V (V) @ t=1.5
0.04669359423559771
% es.normE (V/m) @ t=1.6
1.0430273378246477
% es.EX (V/m) @ t=1.6
0.6161584366097124
% es.EY (V/m) @ t=1.6
-0.042227699200033
% es.EZ (V/m) @ t=1.6
-0.8405186671719542
% es.tEX (V/m) @ t=1.6
0.6161584366097017
% es.tEY (V/m) @ t=1.6
0
% es.tEZ (V/m) @ t=1.6
-0.8405186671719562
% es.Ex (V/m) @ t=1.6
0.6161584366097124
% es.Ey (V/m) @ t=1.6
-0.042227699200033
% es.Ez (V/m) @ t=1.6
-0.8405186671719542
% es.tEx (V/m) @ t=1.6
0.6161584366097017
% es.tEy (V/m) @ t=1.6
0
% es.tEz (V/m) @ t=1.6
-0.8405186671719562
% V (V) @ t=1.6
0.048653747611027955
% es.normE (V/m) @ t=1.7
1.0837145274477091
% es.EX (V/m) @ t=1.7
0.640194045857001
% es.EY (V/m) @ t=1.7
-0.04387494836484285
% es.EZ (V/m) @ t=1.7
-0.8733062175184818
% es.tEX (V/m) @ t=1.7
0.6401940458569939
% es.tEY (V/m) @ t=1.7
0
% es.tEZ (V/m) @ t=1.7
-0.8733062175184827
% es.Ex (V/m) @ t=1.7
0.640194045857001
% es.Ey (V/m) @ t=1.7
-0.04387494836484285
% es.Ez (V/m) @ t=1.7
-0.8733062175184818
% es.tEx (V/m) @ t=1.7
0.6401940458569939
% es.tEy (V/m) @ t=1.7
0
% es.tEz (V/m) @ t=1.7
-0.8733062175184827
% V (V) @ t=1.7
0.050551647739041694
% es.normE (V/m) @ t=1.8
1.123836369318483
% es.EX (V/m) @ t=1.8
0.6638958339832612
% es.EY (V/m) @ t=1.8
-0.04549930860092344
% es.EZ (V/m) @ t=1.8
-0.9056380731503384
% es.tEX (V/m) @ t=1.8
0.6638958339832399
% es.tEY (V/m) @ t=1.8
0
% es.tEZ (V/m) @ t=1.8
-0.9056380731503353
% es.Ex (V/m) @ t=1.8
0.6638958339832612
% es.Ey (V/m) @ t=1.8
-0.04549930860092344
% es.Ez (V/m) @ t=1.8
-0.9056380731503384
% es.tEx (V/m) @ t=1.8
0.6638958339832399
% es.tEy (V/m) @ t=1.8
0
% es.tEz (V/m) @ t=1.8
-0.9056380731503353
% V (V) @ t=1.8
0.05242308195960181
% es.normE (V/m) @ t=1.9
1.1633928634370934
% es.EX (V/m) @ t=1.9
0.6872638009884895
% es.EY (V/m) @ t=1.9
-0.047100779908236134
% es.EZ (V/m) @ t=1.9
-0.9375142340675418
% es.tEX (V/m) @ t=1.9
0.6872638009885037
% es.tEY (V/m) @ t=1.9
0
% es.tEZ (V/m) @ t=1.9
-0.9375142340675495
% es.Ex (V/m) @ t=1.9
0.6872638009884895
% es.Ey (V/m) @ t=1.9
-0.047100779908236134
% es.Ez (V/m) @ t=1.9
-0.9375142340675418
% es.tEx (V/m) @ t=1.9
0.6872638009885037
% es.tEy (V/m) @ t=1.9
0
% es.tEz (V/m) @ t=1.9
-0.9375142340675495
% V (V) @ t=1.9
0.05426805027270831
% es.normE (V/m) @ t=2
1.201800764978477
% es.EX (V/m) @ t=2
0.7099531580578216
% es.EY (V/m) @ t=2
-0.04865574939592232
% es.EZ (V/m) @ t=2
-0.968464872939282
% es.tEX (V/m) @ t=2
0.709953158057786
% es.tEY (V/m) @ t=2
0
% es.tEZ (V/m) @ t=2
-0.9684648729392862
% es.Ex (V/m) @ t=2
0.7099531580578216
% es.Ey (V/m) @ t=2
-0.04865574939592232
% es.Ez (V/m) @ t=2
-0.968464872939282
% es.tEx (V/m) @ t=2
0.709953158057786
% es.tEy (V/m) @ t=2
0
% es.tEz (V/m) @ t=2
-0.9684648729392862
% V (V) @ t=2
0.0560595008299211
% es.normE (V/m) @ t=2.1
1.2382905469709027
% es.EX (V/m) @ t=2.1
0.7315089945241056
% es.EY (V/m) @ t=2.1
-0.050133062468798784
% es.EZ (V/m) @ t=2.1
-0.9978701046205007
% es.tEX (V/m) @ t=2.1
0.7315089945240842
% es.tEY (V/m) @ t=2.1
0
% es.tEZ (V/m) @ t=2.1
-0.9978701046205103
% es.Ex (V/m) @ t=2.1
0.7315089945241056
% es.Ey (V/m) @ t=2.1
-0.050133062468798784
% es.Ez (V/m) @ t=2.1
-0.9978701046205007
% es.tEx (V/m) @ t=2.1
0.7315089945240842
% es.tEy (V/m) @ t=2.1
0
% es.tEz (V/m) @ t=2.1
-0.9978701046205103
% V (V) @ t=2.1
0.05776174171232841
% es.normE (V/m) @ t=2.2
1.273548780311376
% es.EX (V/m) @ t=2.2
0.7523371810537185
% es.EY (V/m) @ t=2.2
-0.05156051521351035
% es.EZ (V/m) @ t=2.2
-1.0262829897779926
% es.tEX (V/m) @ t=2.2
0.752337181053683
% es.tEY (V/m) @ t=2.2
0
% es.tEZ (V/m) @ t=2.2
-1.0262829897779966
% es.Ex (V/m) @ t=2.2
0.7523371810537185
% es.Ey (V/m) @ t=2.2
-0.05156051521351035
% es.Ez (V/m) @ t=2.2
-1.0262829897779926
% es.tEx (V/m) @ t=2.2
0.752337181053683
% es.tEy (V/m) @ t=2.2
0
% es.tEz (V/m) @ t=2.2
-1.0262829897779966
% V (V) @ t=2.2
0.05940661720048732
% es.normE (V/m) @ t=2.3
1.3075754650000013
% es.EX (V/m) @ t=2.3
0.772437717646639
% es.EY (V/m) @ t=2.3
-0.0529381076300206
% es.EZ (V/m) @ t=2.3
-1.0537035284117509
% es.tEX (V/m) @ t=2.3
0.7724377176466319
% es.tEY (V/m) @ t=2.3
0
% es.tEZ (V/m) @ t=2.3
-1.0537035284117593
% es.Ex (V/m) @ t=2.3
0.772437717646639
% es.Ey (V/m) @ t=2.3
-0.0529381076300206
% es.Ez (V/m) @ t=2.3
-1.0537035284117509
% es.tEx (V/m) @ t=2.3
0.7724377176466319
% es.tEy (V/m) @ t=2.3
0
% es.tEz (V/m) @ t=2.3
-1.0537035284117593
% V (V) @ t=2.3
0.060994127294397855
% es.normE (V/m) @ t=2.4
1.3401927169450163
% es.EX (V/m) @ t=2.4
0.7917057092909303
% es.EY (V/m) @ t=2.4
-0.05425863770504957
% es.EZ (V/m) @ t=2.4
-1.0799882354280539
% es.tEX (V/m) @ t=2.4
0.7917057092909019
% es.tEY (V/m) @ t=2.4
0
% es.tEZ (V/m) @ t=2.4
-1.079988235428054
% es.Ex (V/m) @ t=2.4
0.7917057092909303
% es.Ey (V/m) @ t=2.4
-0.05425863770504957
% es.Ez (V/m) @ t=2.4
-1.0799882354280539
% es.tEx (V/m) @ t=2.4
0.7917057092909019
% es.tEy (V/m) @ t=2.4
0
% es.tEz (V/m) @ t=2.4
-1.079988235428054
% V (V) @ t=2.4
0.06251585525721966
% es.normE (V/m) @ t=2.5
1.3711374724640484
% es.EX (V/m) @ t=2.5
0.8099860321201859
% es.EY (V/m) @ t=2.5
-0.055511454749549216
% es.EZ (V/m) @ t=2.5
-1.104924918063162
% es.tEX (V/m) @ t=2.5
0.8099860321201788
% es.tEY (V/m) @ t=2.5
0
% es.tEZ (V/m) @ t=2.5
-1.104924918063162
% es.Ex (V/m) @ t=2.5
0.8099860321201859
% es.Ey (V/m) @ t=2.5
-0.055511454749549216
% es.Ez (V/m) @ t=2.5
-1.104924918063162
% es.tEx (V/m) @ t=2.5
0.8099860321201788
% es.tEy (V/m) @ t=2.5
0
% es.tEz (V/m) @ t=2.5
-1.104924918063162
% V (V) @ t=2.5
0.06395935400747955
% es.normE (V/m) @ t=2.6
1.4006363302611669
% es.EX (V/m) @ t=2.6
0.8274123072667905
% es.EY (V/m) @ t=2.6
-0.056705733090873345
% es.EZ (V/m) @ t=2.6
-1.1286963556535219
% es.tEX (V/m) @ t=2.6
0.8274123072667692
% es.tEY (V/m) @ t=2.6
0
% es.tEZ (V/m) @ t=2.6
-1.128696355653517
% es.Ex (V/m) @ t=2.6
0.8274123072667905
% es.Ey (V/m) @ t=2.6
-0.056705733090873345
% es.Ez (V/m) @ t=2.6
-1.1286963556535219
% es.tEx (V/m) @ t=2.6
0.8274123072667692
% es.tEy (V/m) @ t=2.6
0
% es.tEz (V/m) @ t=2.6
-1.128696355653517
% V (V) @ t=2.6
0.06533534525525084
% es.normE (V/m) @ t=2.7
1.4286892903363568
% es.EX (V/m) @ t=2.7
0.8439845347306587
% es.EY (V/m) @ t=2.7
-0.057841472729062815
% es.EZ (V/m) @ t=2.7
-1.15130254819913
% es.tEX (V/m) @ t=2.7
0.8439845347306374
% es.tEY (V/m) @ t=2.7
0
% es.tEZ (V/m) @ t=2.7
-1.1513025481991335
% es.Ex (V/m) @ t=2.7
0.8439845347306587
% es.Ey (V/m) @ t=2.7
-0.057841472729062815
% es.Ez (V/m) @ t=2.7
-1.15130254819913
% es.tEx (V/m) @ t=2.7
0.8439845347306374
% es.tEy (V/m) @ t=2.7
0
% es.tEz (V/m) @ t=2.7
-1.1513025481991335
% V (V) @ t=2.7
0.06664382900053349
% es.normE (V/m) @ t=2.8
1.4554561697075987
% es.EX (V/m) @ t=2.8
0.8597971621424847
% es.EY (V/m) @ t=2.8
-0.05892514388797476
% es.EZ (V/m) @ t=2.8
-1.1728722561853981
% es.tEX (V/m) @ t=2.8
0.8597971621424563
% es.tEY (V/m) @ t=2.8
0
% es.tEZ (V/m) @ t=2.8
-1.1728722561854141
% es.Ex (V/m) @ t=2.8
0.8597971621424847
% es.Ey (V/m) @ t=2.8
-0.05892514388797476
% es.Ez (V/m) @ t=2.8
-1.1728722561853981
% es.tEx (V/m) @ t=2.8
0.8597971621424563
% es.tEy (V/m) @ t=2.8
0
% es.tEz (V/m) @ t=2.8
-1.1728722561854141
% V (V) @ t=2.8
0.06789223695543409
% es.normE (V/m) @ t=2.9
1.4812014916357215
% es.EX (V/m) @ t=2.9
0.875006515752915
% es.EY (V/m) @ t=2.9
-0.05996745584473473
% es.EZ (V/m) @ t=2.9
-1.1936185992407038
% es.tEX (V/m) @ t=2.9
0.8750065157528866
% es.tEY (V/m) @ t=2.9
0
% es.tEZ (V/m) @ t=2.9
-1.1936185992407076
% es.Ex (V/m) @ t=2.9
0.875006515752915
% es.Ey (V/m) @ t=2.9
-0.05996745584473473
% es.Ez (V/m) @ t=2.9
-1.1936185992407038
% es.tEx (V/m) @ t=2.9
0.8750065157528866
% es.tEy (V/m) @ t=2.9
0
% es.tEz (V/m) @ t=2.9
-1.1936185992407076
% V (V) @ t=2.9
0.0690928698169947
% es.normE (V/m) @ t=3
1.505704596789279
% es.EX (V/m) @ t=3
0.8894821917332365
% es.EY (V/m) @ t=3
-0.06095947516207456
% es.EZ (V/m) @ t=3
-1.2133637977827456
% es.tEX (V/m) @ t=3
0.8894821917332081
% es.tEY (V/m) @ t=3
0
% es.tEZ (V/m) @ t=3
-1.2133637977827547
% es.Ex (V/m) @ t=3
0.8894821917332365
% es.Ey (V/m) @ t=3
-0.06095947516207456
% es.Ez (V/m) @ t=3
-1.2133637977827456
% es.tEx (V/m) @ t=3
0.8894821917332081
% es.tEy (V/m) @ t=3
0
% es.tEz (V/m) @ t=3
-1.2133637977827547
% V (V) @ t=3
0.07023546662146121
% es.normE (V/m) @ t=3.1
1.5289654851684427
% es.EX (V/m) @ t=3.1
0.9032241900832219
% es.EY (V/m) @ t=3.1
-0.06190120184014347
% es.EZ (V/m) @ t=3.1
-1.2321078518115307
% es.tEX (V/m) @ t=3.1
0.903224190083165
% es.tEY (V/m) @ t=3.1
0
% es.tEZ (V/m) @ t=3.1
-1.2321078518115343
% es.Ex (V/m) @ t=3.1
0.9032241900832219
% es.Ey (V/m) @ t=3.1
-0.06190120184014347
% es.Ez (V/m) @ t=3.1
-1.2321078518115307
% es.tEx (V/m) @ t=3.1
0.903224190083165
% es.tEy (V/m) @ t=3.1
0
% es.tEz (V/m) @ t=3.1
-1.2321078518115343
% V (V) @ t=3.1
0.07132002736883362
% es.normE (V/m) @ t=3.2
1.5514419448244854
% es.EX (V/m) @ t=3.2
0.9165026925538982
% es.EY (V/m) @ t=3.2
-0.06281117015740456
% es.EZ (V/m) @ t=3.2
-1.2502198525082275
% es.tEX (V/m) @ t=3.2
0.9165026925538768
% es.tEY (V/m) @ t=3.2
0
% es.tEZ (V/m) @ t=3.2
-1.2502198525082306
% es.Ex (V/m) @ t=3.2
0.9165026925538982
% es.Ey (V/m) @ t=3.2
-0.06281117015740456
% es.Ez (V/m) @ t=3.2
-1.2502198525082275
% es.tEx (V/m) @ t=3.2
0.9165026925538768
% es.tEy (V/m) @ t=3.2
0
% es.tEz (V/m) @ t=3.2
-1.2502198525082306
% V (V) @ t=3.2
0.0723680650364268
% es.normE (V/m) @ t=3.3
1.5739814173378246
% es.EX (V/m) @ t=3.3
0.9298178503607488
% es.EY (V/m) @ t=3.3
-0.06372369013662205
% es.EZ (V/m) @ t=3.3
-1.2683830488423735
% es.tEX (V/m) @ t=3.3
0.9298178503607204
% es.tEY (V/m) @ t=3.3
0
% es.tEZ (V/m) @ t=3.3
-1.2683830488423737
% es.Ex (V/m) @ t=3.3
0.9298178503607488
% es.Ey (V/m) @ t=3.3
-0.06372369013662205
% es.Ez (V/m) @ t=3.3
-1.2683830488423735
% es.tEx (V/m) @ t=3.3
0.9298178503607204
% es.tEy (V/m) @ t=3.3
0
% es.tEz (V/m) @ t=3.3
-1.2683830488423737
% V (V) @ t=3.3
0.07341940371197499
% es.normE (V/m) @ t=3.4
1.595897498356437
% es.EX (V/m) @ t=3.4
0.9427645547875798
% es.EY (V/m) @ t=3.4
-0.064610971603968
% es.EZ (V/m) @ t=3.4
-1.286044027957403
% es.tEX (V/m) @ t=3.4
0.9427645547875585
% es.tEY (V/m) @ t=3.4
0
% es.tEZ (V/m) @ t=3.4
-1.2860440279574092
% es.Ex (V/m) @ t=3.4
0.9427645547875798
% es.Ey (V/m) @ t=3.4
-0.064610971603968
% es.Ez (V/m) @ t=3.4
-1.286044027957403
% es.tEx (V/m) @ t=3.4
0.9427645547875585
% es.tEy (V/m) @ t=3.4
0
% es.tEz (V/m) @ t=3.4
-1.2860440279574092
% V (V) @ t=3.4
0.07444178698070705
% es.normE (V/m) @ t=3.5
1.617190187880378
% es.EX (V/m) @ t=3.5
0.9553428058344338
% es.EY (V/m) @ t=3.5
-0.06547301455933496
% es.EZ (V/m) @ t=3.5
-1.30320278985332
% es.tEX (V/m) @ t=3.5
0.9553428058343982
% es.tEY (V/m) @ t=3.5
0
% es.tEZ (V/m) @ t=3.5
-1.303202789853323
% es.Ex (V/m) @ t=3.5
0.9553428058344338
% es.Ey (V/m) @ t=3.5
-0.06547301455933496
% es.Ez (V/m) @ t=3.5
-1.30320278985332
% es.tEx (V/m) @ t=3.5
0.9553428058343982
% es.tEy (V/m) @ t=3.5
0
% es.tEz (V/m) @ t=3.5
-1.303202789853323
% V (V) @ t=3.5
0.07543521484262303
% es.normE (V/m) @ t=3.6
1.6378594859097515
% es.EX (V/m) @ t=3.6
0.967552603501268
% es.EY (V/m) @ t=3.6
-0.06630981900276378
% es.EZ (V/m) @ t=3.6
-1.319859334530121
% es.tEX (V/m) @ t=3.6
0.9675526035012609
% es.tEY (V/m) @ t=3.6
0
% es.tEZ (V/m) @ t=3.6
-1.319859334530129
% es.Ex (V/m) @ t=3.6
0.967552603501268
% es.Ey (V/m) @ t=3.6
-0.06630981900276378
% es.Ez (V/m) @ t=3.6
-1.319859334530121
% es.tEx (V/m) @ t=3.6
0.9675526035012609
% es.tEy (V/m) @ t=3.6
0
% es.tEz (V/m) @ t=3.6
-1.319859334530129
% V (V) @ t=3.6
0.07639968729772287
% es.normE (V/m) @ t=3.7
1.6579053924448168
% es.EX (V/m) @ t=3.7
0.9793939477881253
% es.EY (V/m) @ t=3.7
-0.06712138493433173
% es.EZ (V/m) @ t=3.7
-1.3360136619878145
% es.tEX (V/m) @ t=3.7
0.9793939477881111
% es.tEY (V/m) @ t=3.7
0
% es.tEZ (V/m) @ t=3.7
-1.3360136619878205
% es.Ex (V/m) @ t=3.7
0.9793939477881253
% es.Ey (V/m) @ t=3.7
-0.06712138493433173
% es.Ez (V/m) @ t=3.7
-1.3360136619878145
% es.tEx (V/m) @ t=3.7
0.9793939477881111
% es.tEy (V/m) @ t=3.7
0
% es.tEz (V/m) @ t=3.7
-1.3360136619878205
% V (V) @ t=3.7
0.0773352043460066
% es.normE (V/m) @ t=3.8
1.6773279074858303
% es.EX (V/m) @ t=3.8
0.9908668386949273
% es.EY (V/m) @ t=3.8
-0.06790771235394644
% es.EZ (V/m) @ t=3.8
-1.3516657722263918
% es.tEX (V/m) @ t=3.8
0.9908668386948989
% es.tEY (V/m) @ t=3.8
0
% es.tEZ (V/m) @ t=3.8
-1.35166577222639
% es.Ex (V/m) @ t=3.8
0.9908668386949273
% es.Ey (V/m) @ t=3.8
-0.06790771235394644
% es.Ez (V/m) @ t=3.8
-1.3516657722263918
% es.tEx (V/m) @ t=3.8
0.9908668386948989
% es.tEy (V/m) @ t=3.8
0
% es.tEz (V/m) @ t=3.8
-1.35166577222639
% V (V) @ t=3.8
0.07824176598747422
% es.normE (V/m) @ t=3.9
1.696127031033258
% es.EX (V/m) @ t=3.9
1.0019712762217878
% es.EY (V/m) @ t=3.9
-0.06866880126171981
% es.EZ (V/m) @ t=3.9
-1.3668156652458496
% es.tEX (V/m) @ t=3.9
1.0019712762217168
% es.tEY (V/m) @ t=3.9
0
% es.tEZ (V/m) @ t=3.9
-1.3668156652458592
% es.Ex (V/m) @ t=3.9
1.0019712762217878
% es.Ey (V/m) @ t=3.9
-0.06866880126171981
% es.Ez (V/m) @ t=3.9
-1.3668156652458496
% es.tEx (V/m) @ t=3.9
1.0019712762217168
% es.tEy (V/m) @ t=3.9
0
% es.tEz (V/m) @ t=3.9
-1.3668156652458592
% V (V) @ t=3.9
0.07911937222212571
% es.normE (V/m) @ t=4
1.714494814777386
% es.EX (V/m) @ t=4
1.0128211647324221
% es.EY (V/m) @ t=4
-0.06941242650697532
% es.EZ (V/m) @ t=4
-1.381617773921216
% es.tEX (V/m) @ t=4
1.0128211647323937
% es.tEY (V/m) @ t=4
0
% es.tEZ (V/m) @ t=4
-1.3816177739212208
% es.Ex (V/m) @ t=4
1.0128211647324221
% es.Ey (V/m) @ t=4
-0.06941242650697532
% es.Ez (V/m) @ t=4
-1.381617773921216
% es.tEx (V/m) @ t=4
1.0128211647323937
% es.tEy (V/m) @ t=4
0
% es.tEz (V/m) @ t=4
-1.3816177739212208
% V (V) @ t=4
0.07997669511763784
% es.normE (V/m) @ t=4.1
1.732783772215868
% es.EX (V/m) @ t=4.1
1.023625577241475
% es.EY (V/m) @ t=4.1
-0.07015285893252621
% es.EZ (V/m) @ t=4.1
-1.3963555619022339
% es.tEX (V/m) @ t=4.1
1.023625577241404
% es.tEY (V/m) @ t=4.1
0
% es.tEZ (V/m) @ t=4.1
-1.3963555619022259
% es.Ex (V/m) @ t=4.1
1.023625577241475
% es.Ey (V/m) @ t=4.1
-0.07015285893252621
% es.Ez (V/m) @ t=4.1
-1.3963555619022339
% es.tEx (V/m) @ t=4.1
1.023625577241404
% es.tEy (V/m) @ t=4.1
0
% es.tEz (V/m) @ t=4.1
-1.3963555619022259
% V (V) @ t=4.1
0.08082965237258496
% es.normE (V/m) @ t=4.2
1.7506021494571407
% es.EX (V/m) @ t=4.2
1.0341521675621692
% es.EY (V/m) @ t=4.2
-0.07087423912258473
% es.EZ (V/m) @ t=4.2
-1.410714011498866
% es.tEX (V/m) @ t=4.2
1.0341521675621692
% es.tEY (V/m) @ t=4.2
0
% es.tEZ (V/m) @ t=4.2
-1.410714011498868
% es.Ex (V/m) @ t=4.2
1.0341521675621692
% es.Ey (V/m) @ t=4.2
-0.07087423912258473
% es.Ez (V/m) @ t=4.2
-1.410714011498866
% es.tEx (V/m) @ t=4.2
1.0341521675621692
% es.tEy (V/m) @ t=4.2
0
% es.tEz (V/m) @ t=4.2
-1.410714011498868
% V (V) @ t=4.2
0.0816605543938223
% es.normE (V/m) @ t=4.3
1.7679499465015436
% es.EX (V/m) @ t=4.3
1.0444009356946822
% es.EY (V/m) @ t=4.3
-0.07157656707707982
% es.EZ (V/m) @ t=4.3
-1.4246931227111133
% es.tEX (V/m) @ t=4.3
1.0444009356946395
% es.tEY (V/m) @ t=4.3
0
% es.tEZ (V/m) @ t=4.3
-1.424693122711112
% es.Ex (V/m) @ t=4.3
1.0444009356946822
% es.Ey (V/m) @ t=4.3
-0.07157656707707982
% es.Ez (V/m) @ t=4.3
-1.4246931227111133
% es.tEx (V/m) @ t=4.3
1.0444009356946395
% es.tEy (V/m) @ t=4.3
0
% es.tEz (V/m) @ t=4.3
-1.424693122711112
% V (V) @ t=4.3
0.08246940118134986
% es.normE (V/m) @ t=4.4
1.7848271633493327
% es.EX (V/m) @ t=4.4
1.0543718816388932
% es.EY (V/m) @ t=4.4
-0.07225984279605768
% es.EZ (V/m) @ t=4.4
-1.4382928955390049
% es.tEX (V/m) @ t=4.4
1.0543718816388576
% es.tEY (V/m) @ t=4.4
0
% es.tEZ (V/m) @ t=4.4
-1.4382928955390213
% es.Ex (V/m) @ t=4.4
1.0543718816388932
% es.Ey (V/m) @ t=4.4
-0.07225984279605768
% es.Ez (V/m) @ t=4.4
-1.4382928955390049
% es.tEx (V/m) @ t=4.4
1.0543718816388576
% es.tEy (V/m) @ t=4.4
0
% es.tEz (V/m) @ t=4.4
-1.4382928955390213
% V (V) @ t=4.4
0.08325619273516764
% es.normE (V/m) @ t=4.5
1.8012338000008468
% es.EX (V/m) @ t=4.5
1.064065005394795
% es.EY (V/m) @ t=4.5
-0.07292406627970482
% es.EZ (V/m) @ t=4.5
-1.4515133299825043
% es.tEX (V/m) @ t=4.5
1.0640650053948093
% es.tEY (V/m) @ t=4.5
0
% es.tEZ (V/m) @ t=4.5
-1.451513329982511
% es.Ex (V/m) @ t=4.5
1.064065005394795
% es.Ey (V/m) @ t=4.5
-0.07292406627970482
% es.Ez (V/m) @ t=4.5
-1.4515133299825043
% es.tEx (V/m) @ t=4.5
1.0640650053948093
% es.tEy (V/m) @ t=4.5
0
% es.tEz (V/m) @ t=4.5
-1.451513329982511
% V (V) @ t=4.5
0.08402092905527567
% es.normE (V/m) @ t=4.6
1.8171698564566272
% es.EX (V/m) @ t=4.6
1.07348030696253
% es.EY (V/m) @ t=4.6
-0.07356923752775124
% es.EZ (V/m) @ t=4.6
-1.4643544260416659
% es.tEX (V/m) @ t=4.6
1.0734803069624945
% es.tEY (V/m) @ t=4.6
0
% es.tEZ (V/m) @ t=4.6
-1.4643544260416732
% es.Ex (V/m) @ t=4.6
1.07348030696253
% es.Ey (V/m) @ t=4.6
-0.07356923752775124
% es.Ez (V/m) @ t=4.6
-1.4643544260416659
% es.tEx (V/m) @ t=4.6
1.0734803069624945
% es.tEy (V/m) @ t=4.6
0
% es.tEz (V/m) @ t=4.6
-1.4643544260416732
% V (V) @ t=4.6
0.08476361014167393
% es.normE (V/m) @ t=4.7
1.832455332916875
% es.EX (V/m) @ t=4.7
1.0825109353691644
% es.EY (V/m) @ t=4.7
-0.07418807021096452
% es.EZ (V/m) @ t=4.7
-1.4766715112644535
% es.tEX (V/m) @ t=4.7
1.0825109353691502
% es.tEY (V/m) @ t=4.7
0
% es.tEZ (V/m) @ t=4.7
-1.4766715112644562
% es.Ex (V/m) @ t=4.7
1.0825109353691644
% es.Ey (V/m) @ t=4.7
-0.07418807021096452
% es.Ez (V/m) @ t=4.7
-1.4766715112644535
% es.tEx (V/m) @ t=4.7
1.0825109353691502
% es.tEy (V/m) @ t=4.7
0
% es.tEz (V/m) @ t=4.7
-1.4766715112644562
% V (V) @ t=4.7
0.08547616301677262
% es.normE (V/m) @ t=4.8
1.8469434256874633
% es.EX (V/m) @ t=4.8
1.091069745421045
% es.EY (V/m) @ t=4.8
-0.07477462176700023
% es.EZ (V/m) @ t=4.8
-1.4883465941294052
% es.tEX (V/m) @ t=4.8
1.0910697454209597
% es.tEY (V/m) @ t=4.8
0
% es.tEZ (V/m) @ t=4.8
-1.4883465941294105
% es.Ex (V/m) @ t=4.8
1.091069745421045
% es.Ey (V/m) @ t=4.8
-0.07477462176700023
% es.Ez (V/m) @ t=4.8
-1.4883465941294052
% es.tEx (V/m) @ t=4.8
1.0910697454209597
% es.tEy (V/m) @ t=4.8
0
% es.tEz (V/m) @ t=4.8
-1.4883465941294105
% V (V) @ t=4.8
0.08615200354588794
% es.normE (V/m) @ t=4.9
1.8608447771124408
% es.EX (V/m) @ t=4.9
1.0992817780315605
% es.EY (V/m) @ t=4.9
-0.07533741892463741
% es.EZ (V/m) @ t=4.9
-1.4995489756270697
% es.tEX (V/m) @ t=4.9
1.099281778031525
% es.tEY (V/m) @ t=4.9
0
% es.tEZ (V/m) @ t=4.9
-1.4995489756270644
% es.Ex (V/m) @ t=4.9
1.0992817780315605
% es.Ey (V/m) @ t=4.9
-0.07533741892463741
% es.Ez (V/m) @ t=4.9
-1.4995489756270697
% es.tEx (V/m) @ t=4.9
1.099281778031525
% es.tEy (V/m) @ t=4.9
0
% es.tEz (V/m) @ t=4.9
-1.4995489756270644
% V (V) @ t=4.9
0.08680057902243458
% es.normE (V/m) @ t=5
1.8741593871918267
% es.EX (V/m) @ t=5
1.1071470332006612
% es.EY (V/m) @ t=5
-0.07587646168387341
% es.EZ (V/m) @ t=5
-1.5102786557574577
% es.tEX (V/m) @ t=5
1.1071470332006186
% es.tEY (V/m) @ t=5
0
% es.tEZ (V/m) @ t=5
-1.5102786557574532
% es.Ex (V/m) @ t=5
1.1071470332006612
% es.Ey (V/m) @ t=5
-0.07587646168387341
% es.Ez (V/m) @ t=5
-1.5102786557574577
% es.tEx (V/m) @ t=5
1.1071470332006186
% es.tEy (V/m) @ t=5
0
% es.tEz (V/m) @ t=5
-1.5102786557574532
% V (V) @ t=5
0.08742188944641258
% es.normE (V/m) @ t=5.1
1.886887255925789
% es.EX (V/m) @ t=5.1
1.1146655109284325
% es.EY (V/m) @ t=5.1
-0.07639175004474197
% es.EZ (V/m) @ t=5.1
-1.5205356345205832
% es.tEX (V/m) @ t=5.1
1.114665510928404
% es.tEY (V/m) @ t=5.1
0
% es.tEZ (V/m) @ t=5.1
-1.52053563452057
% es.Ex (V/m) @ t=5.1
1.1146655109284325
% es.Ey (V/m) @ t=5.1
-0.07639175004474197
% es.Ez (V/m) @ t=5.1
-1.5205356345205832
% es.tEx (V/m) @ t=5.1
1.114665510928404
% es.tEy (V/m) @ t=5.1
0
% es.tEz (V/m) @ t=5.1
-1.52053563452057
% V (V) @ t=5.1
0.08801593481782188
% es.normE (V/m) @ t=5.2
1.89902838331448
% es.EX (V/m) @ t=5.2
1.1218372112148458
% es.EY (V/m) @ t=5.2
-0.07688328400714983
% es.EZ (V/m) @ t=5.2
-1.5303199119164534
% es.tEX (V/m) @ t=5.2
1.1218372112148032
% es.tEY (V/m) @ t=5.2
0
% es.tEZ (V/m) @ t=5.2
-1.5303199119164574
% es.Ex (V/m) @ t=5.2
1.1218372112148458
% es.Ey (V/m) @ t=5.2
-0.07688328400714983
% es.Ez (V/m) @ t=5.2
-1.5303199119164534
% es.tEx (V/m) @ t=5.2
1.1218372112148032
% es.tEy (V/m) @ t=5.2
0
% es.tEz (V/m) @ t=5.2
-1.5303199119164574
% V (V) @ t=5.2
0.0885827151366625
% es.normE (V/m) @ t=5.3
1.910582769358063
% es.EX (V/m) @ t=5.3
1.1286621340598444
% es.EY (V/m) @ t=5.3
-0.07735106357121779
% es.EZ (V/m) @ t=5.3
-1.5396314879450226
% es.tEX (V/m) @ t=5.3
1.1286621340597804