% Model:              1x1--2 - Copy1.mph
% Version:            COMSOL 6.1.0.252
% Date:               Mar 28 2023, 12:28
% Dimension:          0
% Nodes:              14017
% Expressions:        14017
% Description:        Electric field norm, Electric field, X component, Electric field, Y component, Electric field, Z component, Tangential electric field, X component, Tangential electric field, Y component, Tangential electric field, Z component, Electric field, x component, Electric field, y component, Electric field, z component, Tangential electric field, x component, Tangential electric field, y component, Tangential electric field, z component, Electric potential
% Length unit:        mm
% x
1.3329999999999995
% y
14.200000000000001
% z
1.33
% es.normE (V/m) @ t=0
0.46388521546350825
% es.EX (V/m) @ t=0
0.3427942400993125
% es.EY (V/m) @ t=0
0.02382353383873559
% es.EZ (V/m) @ t=0
-0.311631258566587
% es.tEX (V/m) @ t=0
0.3427942400993107
% es.tEY (V/m) @ t=0
0
% es.tEZ (V/m) @ t=0
-0.31163125856658525
% es.Ex (V/m) @ t=0
0.3427942400993125
% es.Ey (V/m) @ t=0
0.02382353383873559
% es.Ez (V/m) @ t=0
-0.311631258566587
% es.tEx (V/m) @ t=0
0.3427942400993107
% es.tEy (V/m) @ t=0
0
% es.tEz (V/m) @ t=0
-0.31163125856658525
% V (V) @ t=0
0.020188708231706005
% es.normE (V/m) @ t=0.1
0.49050125584489673
% es.EX (V/m) @ t=0.1
0.3624625131878929
% es.EY (V/m) @ t=0.1
0.02519044789930236
% es.EZ (V/m) @ t=0.1
-0.329511532201181
% es.tEX (V/m) @ t=0.1
0.36246251318788403
% es.tEY (V/m) @ t=0.1
0
% es.tEZ (V/m) @ t=0.1
-0.3295115322011739
% es.Ex (V/m) @ t=0.1
0.3624625131878929
% es.Ey (V/m) @ t=0.1
0.02519044789930236
% es.Ez (V/m) @ t=0.1
-0.329511532201181
% es.tEx (V/m) @ t=0.1
0.36246251318788403
% es.tEy (V/m) @ t=0.1
0
% es.tEz (V/m) @ t=0.1
-0.3295115322011739
% V (V) @ t=0.1
0.02134705602496426
% es.normE (V/m) @ t=0.2
0.5241864998229566
% es.EX (V/m) @ t=0.2
0.38735432054298613
% es.EY (V/m) @ t=0.2
0.0269201535819108
% es.EZ (V/m) @ t=0.2
-0.3521411965170369
% es.tEX (V/m) @ t=0.2
0.3873543205429826
% es.tEY (V/m) @ t=0.2
0
% es.tEZ (V/m) @ t=0.2
-0.3521411965170316
% es.Ex (V/m) @ t=0.2
0.38735432054298613
% es.Ey (V/m) @ t=0.2
0.0269201535819108
% es.Ez (V/m) @ t=0.2
-0.3521411965170369
% es.tEx (V/m) @ t=0.2
0.3873543205429826
% es.tEy (V/m) @ t=0.2
0
% es.tEz (V/m) @ t=0.2
-0.3521411965170316
% V (V) @ t=0.2
0.022813408011031964
% es.normE (V/m) @ t=0.3
0.5592148018326297
% es.EX (V/m) @ t=0.3
0.413238456279565
% es.EY (V/m) @ t=0.3
0.02871873010665338
% es.EZ (V/m) @ t=0.3
-0.3756732721148133
% es.tEX (V/m) @ t=0.3
0.41323845627955436
% es.tEY (V/m) @ t=0.3
0
% es.tEZ (V/m) @ t=0.3
-0.3756732721148097
% es.Ex (V/m) @ t=0.3
0.413238456279565
% es.Ey (V/m) @ t=0.3
0.02871873010665338
% es.Ez (V/m) @ t=0.3
-0.3756732721148133
% es.tEx (V/m) @ t=0.3
0.41323845627955436
% es.tEy (V/m) @ t=0.3
0
% es.tEz (V/m) @ t=0.3
-0.3756732721148097
% V (V) @ t=0.3
0.024338350671801543
% es.normE (V/m) @ t=0.4
0.5963748358296279
% es.EX (V/m) @ t=0.4
0.4406989715923473
% es.EY (V/m) @ t=0.4
0.03062759972575435
% es.EZ (V/m) @ t=0.4
-0.4006361333970041
% es.tEX (V/m) @ t=0.4
0.4406989715923473
% es.tEY (V/m) @ t=0.4
0
% es.tEZ (V/m) @ t=0.4
-0.40063613339700055
% es.Ex (V/m) @ t=0.4
0.4406989715923473
% es.Ey (V/m) @ t=0.4
0.03062759972575435
% es.Ez (V/m) @ t=0.4
-0.4006361333970041
% es.tEx (V/m) @ t=0.4
0.4406989715923473
% es.tEy (V/m) @ t=0.4
0
% es.tEz (V/m) @ t=0.4
-0.40063613339700055
% V (V) @ t=0.4
0.025954975446913872
% es.normE (V/m) @ t=0.5
0.6350693018648981
% es.EX (V/m) @ t=0.5
0.46929361108448475
% es.EY (V/m) @ t=0.5
0.03261544556310092
% es.EZ (V/m) @ t=0.5
-0.42662953188589015
% es.tEX (V/m) @ t=0.5
0.46929361108448475
% es.tEY (V/m) @ t=0.5
0
% es.tEZ (V/m) @ t=0.5
-0.4266295318858795
% es.Ex (V/m) @ t=0.5
0.46929361108448475
% es.Ey (V/m) @ t=0.5
0.03261544556310092
% es.Ez (V/m) @ t=0.5
-0.42662953188589015
% es.tEx (V/m) @ t=0.5
0.46929361108448475
% es.tEy (V/m) @ t=0.5
0
% es.tEz (V/m) @ t=0.5
-0.4266295318858795
% V (V) @ t=0.5
0.027638147852400673
% es.normE (V/m) @ t=0.6
0.6747359464105966
% es.EX (V/m) @ t=0.6
0.4986066746618256
% es.EY (V/m) @ t=0.6
0.034653233797788285
% es.EZ (V/m) @ t=0.6
-0.4532760028378249
% es.tEX (V/m) @ t=0.6
0.4986066746618256
% es.tEY (V/m) @ t=0.6
0
% es.tEZ (V/m) @ t=0.6
-0.4532760028378142
% es.Ex (V/m) @ t=0.6
0.4986066746618256
% es.Ey (V/m) @ t=0.6
0.034653233797788285
% es.Ez (V/m) @ t=0.6
-0.4532760028378249
% es.tEx (V/m) @ t=0.6
0.4986066746618256
% es.tEy (V/m) @ t=0.6
0
% es.tEz (V/m) @ t=0.6
-0.4532760028378142
% V (V) @ t=0.6
0.02936361066495356
% es.normE (V/m) @ t=0.7
0.7157253105977097
% es.EX (V/m) @ t=0.7
0.5288964784664181
% es.EY (V/m) @ t=0.7
0.036758436905540925
% es.EZ (V/m) @ t=0.7
-0.48081186821070787
% es.tEX (V/m) @ t=0.7
0.528896478466411
% es.tEY (V/m) @ t=0.7
0
% es.tEZ (V/m) @ t=0.7
-0.4808118682107043
% es.Ex (V/m) @ t=0.7
0.5288964784664181
% es.Ey (V/m) @ t=0.7
0.036758436905540925
% es.Ez (V/m) @ t=0.7
-0.48081186821070787
% es.tEx (V/m) @ t=0.7
0.528896478466411
% es.tEy (V/m) @ t=0.7
0
% es.tEz (V/m) @ t=0.7
-0.4808118682107043
% V (V) @ t=0.7
0.031147331006161915
% es.normE (V/m) @ t=0.8
0.7577649993347383
% es.EX (V/m) @ t=0.8
0.559961876893059
% es.EY (V/m) @ t=0.8
0.03891717176260734
% es.EZ (V/m) @ t=0.8
-0.5090539700121965
% es.tEX (V/m) @ t=0.8
0.559961876893059
% es.tEY (V/m) @ t=0.8
0
% es.tEZ (V/m) @ t=0.8
-0.5090539700121894
% es.Ex (V/m) @ t=0.8
0.559961876893059
% es.Ey (V/m) @ t=0.8
0.03891717176260734
% es.Ez (V/m) @ t=0.8
-0.5090539700121965
% es.tEx (V/m) @ t=0.8
0.559961876893059
% es.tEy (V/m) @ t=0.8
0
% es.tEz (V/m) @ t=0.8
-0.5090539700121894
% V (V) @ t=0.8
0.03297731157568732
% es.normE (V/m) @ t=0.9
0.8008157982358377
% es.EX (V/m) @ t=0.9
0.5917742059714648
% es.EY (V/m) @ t=0.9
0.04112765547310282
% es.EZ (V/m) @ t=0.9
-0.5379756014971591
% es.tEX (V/m) @ t=0.9
0.5917742059714648
% es.tEY (V/m) @ t=0.9
0
% es.tEZ (V/m) @ t=0.9
-0.5379756014971555
% es.Ex (V/m) @ t=0.9
0.5917742059714648
% es.Ey (V/m) @ t=0.9
0.04112765547310282
% es.Ez (V/m) @ t=0.9
-0.5379756014971591
% es.tEx (V/m) @ t=0.9
0.5917742059714648
% es.tEy (V/m) @ t=0.9
0
% es.tEz (V/m) @ t=0.9
-0.5379756014971555
% V (V) @ t=0.9
0.03485153577794008
% es.normE (V/m) @ t=1
0.8447860618898587
% es.EX (V/m) @ t=1
0.6242664769904778
% es.EY (V/m) @ t=1
0.04338572134618257
% es.EZ (V/m) @ t=1
-0.5675143480587472
% es.tEX (V/m) @ t=1
0.6242664769904707
% es.tEY (V/m) @ t=1
0
% es.tEZ (V/m) @ t=1
-0.5675143480587401
% es.Ex (V/m) @ t=1
0.6242664769904778
% es.Ey (V/m) @ t=1
0.04338572134618257
% es.Ez (V/m) @ t=1
-0.5675143480587472
% es.tEx (V/m) @ t=1
0.6242664769904707
% es.tEy (V/m) @ t=1
0
% es.tEz (V/m) @ t=1
-0.5675143480587401
% V (V) @ t=1
0.036765290757787936
% es.normE (V/m) @ t=1.1
0.8897317635964953
% es.EX (V/m) @ t=1.1
0.6574796039381106
% es.EY (V/m) @ t=1.1
0.045693914227678434
% es.EZ (V/m) @ t=1.1
-0.5977083300075954
% es.tEX (V/m) @ t=1.1
0.6574796039381035
% es.tEY (V/m) @ t=1.1
0
% es.tEZ (V/m) @ t=1.1
-0.5977083300075954
% es.Ex (V/m) @ t=1.1
0.6574796039381106
% es.Ey (V/m) @ t=1.1
0.045693914227678434
% es.Ez (V/m) @ t=1.1
-0.5977083300075954
% es.tEx (V/m) @ t=1.1
0.6574796039381035
% es.tEy (V/m) @ t=1.1
0
% es.tEz (V/m) @ t=1.1
-0.5977083300075954
% V (V) @ t=1.1
0.03872145493601433
% es.normE (V/m) @ t=1.2
0.9350994496287404
% es.EX (V/m) @ t=1.2
0.6910045350817171
% es.EY (V/m) @ t=1.2
0.04802375811866799
% es.EZ (V/m) @ t=1.2
-0.6281858258896271
% es.tEX (V/m) @ t=1.2
0.6910045350817136
% es.tEY (V/m) @ t=1.2
0
% es.tEZ (V/m) @ t=1.2
-0.6281858258896129
% es.Ex (V/m) @ t=1.2
0.6910045350817171
% es.Ey (V/m) @ t=1.2
0.04802375811866799
% es.Ez (V/m) @ t=1.2
-0.6281858258896271
% es.tEx (V/m) @ t=1.2
0.6910045350817136
% es.tEy (V/m) @ t=1.2
0
% es.tEz (V/m) @ t=1.2
-0.6281858258896129
% V (V) @ t=1.2
0.04069601179115818
% es.normE (V/m) @ t=1.3
0.9801731763924132
% es.EX (V/m) @ t=1.3
0.7243121241648858
% es.EY (V/m) @ t=1.3
0.05033841668059669
% es.EZ (V/m) @ t=1.3
-0.6584659796170449
% es.tEX (V/m) @ t=1.3
0.7243121241648822
% es.tEY (V/m) @ t=1.3
0
% es.tEZ (V/m) @ t=1.3
-0.6584659796170307
% es.Ex (V/m) @ t=1.3
0.7243121241648858
% es.Ey (V/m) @ t=1.3
0.05033841668059669
% es.Ez (V/m) @ t=1.3
-0.6584659796170449
% es.tEx (V/m) @ t=1.3
0.7243121241648822
% es.tEy (V/m) @ t=1.3
0
% es.tEz (V/m) @ t=1.3
-0.6584659796170307
% V (V) @ t=1.3
0.04265789373100833
% es.normE (V/m) @ t=1.4
1.0254564678323246
% es.EX (V/m) @ t=1.4
0.7577745203519868
% es.EY (V/m) @ t=1.4
0.05266379695225076
% es.EZ (V/m) @ t=1.4
-0.6888869778236746
% es.tEX (V/m) @ t=1.4
0.7577745203519868
% es.tEY (V/m) @ t=1.4
0
% es.tEZ (V/m) @ t=1.4
-0.6888869778236604
% es.Ex (V/m) @ t=1.4
0.7577745203519868
% es.Ey (V/m) @ t=1.4
0.05266379695225076
% es.Ez (V/m) @ t=1.4
-0.6888869778236746
% es.tEx (V/m) @ t=1.4
0.7577745203519868
% es.tEy (V/m) @ t=1.4
0
% es.tEz (V/m) @ t=1.4
-0.6888869778236604
% V (V) @ t=1.4
0.04462895062852708
% es.normE (V/m) @ t=1.5
1.0709493239486034
% es.EX (V/m) @ t=1.5
0.7913917236430308
% es.EY (V/m) @ t=1.5
0.054999898933759894
% es.EZ (V/m) @ t=1.5
-0.719448820509534
% es.tEX (V/m) @ t=1.5
0.791391723643045
% es.tEY (V/m) @ t=1.5
0
% es.tEZ (V/m) @ t=1.5
-0.7194488205095233
% es.Ex (V/m) @ t=1.5
0.7913917236430308
% es.Ey (V/m) @ t=1.5
0.054999898933759894
% es.Ez (V/m) @ t=1.5
-0.719448820509534
% es.tEx (V/m) @ t=1.5
0.791391723643045
% es.tEy (V/m) @ t=1.5
0
% es.tEz (V/m) @ t=1.5
-0.7194488205095233
% V (V) @ t=1.5
0.04660918248371439
% es.normE (V/m) @ t=1.6
1.1159013652465266
% es.EX (V/m) @ t=1.6
0.8246093734085775
% es.EY (V/m) @ t=1.6
0.057308289857080474
% es.EZ (V/m) @ t=1.6
-0.749647249150847
% es.tEX (V/m) @ t=1.6
0.8246093734085633
% es.tEY (V/m) @ t=1.6
0
% es.tEZ (V/m) @ t=1.6
-0.7496472491508328
% es.Ex (V/m) @ t=1.6
0.8246093734085775
% es.Ey (V/m) @ t=1.6
0.057308289857080474
% es.Ez (V/m) @ t=1.6
-0.749647249150847
% es.tEx (V/m) @ t=1.6
0.8246093734085633
% es.tEy (V/m) @ t=1.6
0
% es.tEz (V/m) @ t=1.6
-0.7496472491508328
% V (V) @ t=1.6
0.048565792446530205
% es.normE (V/m) @ t=1.7
1.1594312932768474
% es.EX (V/m) @ t=1.7
0.8567763895400446
% es.EY (V/m) @ t=1.7
0.059543831576787554
% es.EZ (V/m) @ t=1.7
-0.7788900270753913
% es.tEX (V/m) @ t=1.7
0.8567763895400446
% es.tEY (V/m) @ t=1.7
0
% es.tEZ (V/m) @ t=1.7
-0.7788900270753771
% es.Ex (V/m) @ t=1.7
0.8567763895400446
% es.Ey (V/m) @ t=1.7
0.059543831576787554
% es.Ez (V/m) @ t=1.7
-0.7788900270753913
% es.tEx (V/m) @ t=1.7
0.8567763895400446
% es.tEy (V/m) @ t=1.7
0
% es.tEz (V/m) @ t=1.7
-0.7788900270753771
% V (V) @ t=1.7
0.05046026158985491
% es.normE (V/m) @ t=1.8
1.2023564302117193
% es.EX (V/m) @ t=1.8
0.8884965881557818
% es.EY (V/m) @ t=1.8
0.061748385515797644
% es.EZ (V/m) @ t=1.8
-0.8077263985986818
% es.tEX (V/m) @ t=1.8
0.888496588155796
% es.tEY (V/m) @ t=1.8
0
% es.tEZ (V/m) @ t=1.8
-0.8077263985986676
% es.Ex (V/m) @ t=1.8
0.8884965881557818
% es.Ey (V/m) @ t=1.8
0.061748385515797644
% es.Ez (V/m) @ t=1.8
-0.8077263985986818
% es.tEx (V/m) @ t=1.8
0.888496588155796
% es.tEy (V/m) @ t=1.8
0
% es.tEz (V/m) @ t=1.8
-0.8077263985986676
% V (V) @ t=1.8
0.052328312628528696
% es.normE (V/m) @ t=1.9
1.2446767760512318
% es.EX (V/m) @ t=1.9
0.9197699692558103
% es.EY (V/m) @ t=1.9
0.06392195167408143
% es.EZ (V/m) @ t=1.9
-0.8361563637207041
% es.tEX (V/m) @ t=1.9
0.9197699692558103
% es.tEY (V/m) @ t=1.9
0
% es.tEZ (V/m) @ t=1.9
-0.8361563637206899
% es.Ex (V/m) @ t=1.9
0.9197699692558103
% es.Ey (V/m) @ t=1.9
0.06392195167408143
% es.Ez (V/m) @ t=1.9
-0.8361563637207041
% es.tEx (V/m) @ t=1.9
0.9197699692558103
% es.tEy (V/m) @ t=1.9
0
% es.tEz (V/m) @ t=1.9
-0.8361563637206899
% V (V) @ t=1.9
0.05416994556255158
% es.normE (V/m) @ t=2
1.2857682452399013
% es.EX (V/m) @ t=2
0.9501351978057642
% es.EY (V/m) @ t=2
0.0660323609392961
% es.EZ (V/m) @ t=2
-0.8637608544421767
% es.tEX (V/m) @ t=2
0.9501351978057571
% es.tEY (V/m) @ t=2
0
% es.tEZ (V/m) @ t=2
-0.8637608544421624
% es.Ex (V/m) @ t=2
0.9501351978057642
% es.Ey (V/m) @ t=2
0.0660323609392961
% es.Ez (V/m) @ t=2
-0.8637608544421767
% es.tEx (V/m) @ t=2
0.9501351978057571
% es.tEy (V/m) @ t=2
0
% es.tEz (V/m) @ t=2
-0.8637608544421624
% V (V) @ t=2
0.055958157524269185
% es.normE (V/m) @ t=2.1
1.324807425984028
% es.EX (V/m) @ t=2.1
0.9789835933054931
% es.EY (V/m) @ t=2.1
0.06803716972922746
% es.EZ (V/m) @ t=2.1
-0.8899869569360703
% es.tEX (V/m) @ t=2.1
0.9789835933054931
% es.tEY (V/m) @ t=2.1
0
% es.tEZ (V/m) @ t=2.1
-0.8899869569360703
% es.Ex (V/m) @ t=2.1
0.9789835933054931
% es.Ey (V/m) @ t=2.1
0.06803716972922746
% es.Ez (V/m) @ t=2.1
-0.8899869569360703
% es.tEx (V/m) @ t=2.1
0.9789835933054931
% es.tEy (V/m) @ t=2.1
0
% es.tEz (V/m) @ t=2.1
-0.8899869569360703
% V (V) @ t=2.1
0.05765732121949359
% es.normE (V/m) @ t=2.2
1.3625289651440957
% es.EX (V/m) @ t=2.2
1.0068582196531608
% es.EY (V/m) @ t=2.2
0.06997424614909331
% es.EZ (V/m) @ t=2.2
-0.9153279801521279
% es.tEX (V/m) @ t=2.2
1.0068582196531466
% es.tEY (V/m) @ t=2.2
0
% es.tEZ (V/m) @ t=2.2
-0.9153279801521208
% es.Ex (V/m) @ t=2.2
1.0068582196531608
% es.Ey (V/m) @ t=2.2
0.06997424614909331
% es.Ez (V/m) @ t=2.2
-0.9153279801521279
% es.tEx (V/m) @ t=2.2
1.0068582196531466
% es.tEy (V/m) @ t=2.2
0
% es.tEz (V/m) @ t=2.2
-0.9153279801521208
% V (V) @ t=2.2
0.0592992232706929
% es.normE (V/m) @ t=2.3
1.3989328627201345
% es.EX (V/m) @ t=2.3
1.0337590768487033
% es.EY (V/m) @ t=2.3
0.0718435901987915
% es.EZ (V/m) @ t=2.3
-0.9397839240903281
% es.tEX (V/m) @ t=2.3
1.033759076848689
% es.tEY (V/m) @ t=2.3
0
% es.tEZ (V/m) @ t=2.3
-0.9397839240903139
% es.Ex (V/m) @ t=2.3
1.0337590768487033
% es.Ey (V/m) @ t=2.3
0.0718435901987915
% es.Ez (V/m) @ t=2.3
-0.9397839240903281
% es.tEx (V/m) @ t=2.3
1.033759076848689
% es.tEy (V/m) @ t=2.3
0
% es.tEz (V/m) @ t=2.3
-0.9397839240903139
% V (V) @ t=2.3
0.06088386367786713
% es.normE (V/m) @ t=2.4
1.4338288763650353
% es.EX (V/m) @ t=2.4
1.0595457066483434
% es.EY (V/m) @ t=2.4
0.07363552304119825
% es.EZ (V/m) @ t=2.4
-0.9632268434630191
% es.tEX (V/m) @ t=2.4
1.0595457066483291
% es.tEY (V/m) @ t=2.4
0
% es.tEZ (V/m) @ t=2.4
-0.9632268434629978
% es.Ex (V/m) @ t=2.4
1.0595457066483434
% es.Ey (V/m) @ t=2.4
0.07363552304119825
% es.Ez (V/m) @ t=2.4
-0.9632268434630191
% es.tEx (V/m) @ t=2.4
1.0595457066483291
% es.tEy (V/m) @ t=2.4
0
% es.tEz (V/m) @ t=2.4
-0.9632268434629978
% V (V) @ t=2.4
0.06240284086222746
% es.normE (V/m) @ t=2.5
1.4669356664050162
% es.EX (V/m) @ t=2.5
1.0840103925418063
% es.EY (V/m) @ t=2.5
0.07533573113901415
% es.EZ (V/m) @ t=2.5
-0.9854675265305488
% es.tEX (V/m) @ t=2.5
1.0840103925418063
% es.tEY (V/m) @ t=2.5
0
% es.tEZ (V/m) @ t=2.5
-0.9854675265305417
% es.Ex (V/m) @ t=2.5
1.0840103925418063
% es.Ey (V/m) @ t=2.5
0.07533573113901415
% es.Ez (V/m) @ t=2.5
-0.9854675265305488
% es.tEx (V/m) @ t=2.5
1.0840103925418063
% es.tEy (V/m) @ t=2.5
0
% es.tEz (V/m) @ t=2.5
-0.9854675265305417
% V (V) @ t=2.5
0.06384373015876754
% es.normE (V/m) @ t=2.6
1.4984955741808217
% es.EX (V/m) @ t=2.6
1.1073320580948618
% es.EY (V/m) @ t=2.6
0.07695654393635998
% es.EZ (V/m) @ t=2.6
-1.0066689571553695
% es.tEX (V/m) @ t=2.6
1.1073320580948618
% es.tEY (V/m) @ t=2.6
0
% es.tEZ (V/m) @ t=2.6
-1.0066689571553553
% es.Ex (V/m) @ t=2.6
1.1073320580948618
% es.Ey (V/m) @ t=2.6
0.07695654393635998
% es.Ez (V/m) @ t=2.6
-1.0066689571553695
% es.tEx (V/m) @ t=2.6
1.1073320580948618
% es.tEy (V/m) @ t=2.6
0
% es.tEz (V/m) @ t=2.6
-1.0066689571553553
% V (V) @ t=2.6
0.06521723396838695
% es.normE (V/m) @ t=2.7
1.5285085996924974
% es.EX (V/m) @ t=2.7
1.1295107033074814
% es.EY (V/m) @ t=2.7
0.07849796143328014
% es.EZ (V/m) @ t=2.7
-1.0268311353375381
% es.tEX (V/m) @ t=2.7
1.1295107033074885
% es.tEY (V/m) @ t=2.7
0
% es.tEZ (V/m) @ t=2.7
-1.026831135337531
% es.Ex (V/m) @ t=2.7
1.1295107033074814
% es.Ey (V/m) @ t=2.7
0.07849796143328014
% es.Ez (V/m) @ t=2.7
-1.0268311353375381
% es.tEx (V/m) @ t=2.7
1.1295107033074885
% es.tEy (V/m) @ t=2.7
0
% es.tEz (V/m) @ t=2.7
-1.026831135337531
% V (V) @ t=2.7
0.0665233522910857
% es.normE (V/m) @ t=2.8
1.5571457398620938
% es.EX (V/m) @ t=2.8
1.150672712910719
% es.EY (V/m) @ t=2.8
0.07996878288702014
% es.EZ (V/m) @ t=2.8
-1.0460689062852992
% es.tEX (V/m) @ t=2.8
1.1506727129107048
% es.tEY (V/m) @ t=2.8
0
% es.tEZ (V/m) @ t=2.8
-1.046068906285278
% es.Ex (V/m) @ t=2.8
1.150672712910719
% es.Ey (V/m) @ t=2.8
0.07996878288702014
% es.Ez (V/m) @ t=2.8
-1.0460689062852992
% es.tEx (V/m) @ t=2.8
1.1506727129107048
% es.tEy (V/m) @ t=2.8
0
% es.tEz (V/m) @ t=2.8
-1.046068906285278
% V (V) @ t=2.8
0.0677695033934161
% es.normE (V/m) @ t=2.9
1.584690022517309
% es.EX (V/m) @ t=2.9
1.1710272742713954
% es.EY (V/m) @ t=2.9
0.08138357250511241
% es.EZ (V/m) @ t=2.9
-1.0645723575712083
% es.tEX (V/m) @ t=2.9
1.1710272742713954
% es.tEY (V/m) @ t=2.9
0
% es.tEZ (V/m) @ t=2.9
-1.0645723575711799
% es.Ex (V/m) @ t=2.9
1.1710272742713954
% es.Ey (V/m) @ t=2.9
0.08138357250511241
% es.Ez (V/m) @ t=2.9
-1.0645723575712083
% es.tEx (V/m) @ t=2.9
1.1710272742713954
% es.tEy (V/m) @ t=2.9
0
% es.tEz (V/m) @ t=2.9
-1.0645723575711799
% V (V) @ t=2.9
0.06896796571783248
% es.normE (V/m) @ t=3
1.6109053522346146
% es.EX (V/m) @ t=3
1.1903998880109654
% es.EY (V/m) @ t=3
0.08273018115442987
% es.EZ (V/m) @ t=3
-1.0821829224339865
% es.tEX (V/m) @ t=3
1.1903998880109512
% es.tEY (V/m) @ t=3
0
% es.tEZ (V/m) @ t=3
-1.0821829224339652
% es.Ex (V/m) @ t=3
1.1903998880109654
% es.Ey (V/m) @ t=3
0.08273018115442987
% es.Ez (V/m) @ t=3
-1.0821829224339865
% es.tEx (V/m) @ t=3
1.1903998880109512
% es.tEy (V/m) @ t=3
0
% es.tEz (V/m) @ t=3
-1.0821829224339652
% V (V) @ t=3
0.07010849686485539
% es.normE (V/m) @ t=3.1
1.6357917290142403
% es.EX (V/m) @ t=3.1
1.2087905541294575
% es.EY (V/m) @ t=3.1
0.08400860883501693
% es.EZ (V/m) @ t=3.1
-1.0989006008736197
% es.tEX (V/m) @ t=3.1
1.2087905541294717
% es.tEY (V/m) @ t=3.1
0
% es.tEZ (V/m) @ t=3.1
-1.0989006008735913
% es.Ex (V/m) @ t=3.1
1.2087905541294575
% es.Ey (V/m) @ t=3.1
0.08400860883501693
% es.Ez (V/m) @ t=3.1
-1.0989006008736197
% es.tEx (V/m) @ t=3.1
1.2087905541294717
% es.tEy (V/m) @ t=3.1
0
% es.tEz (V/m) @ t=3.1
-1.0989006008735913
% V (V) @ t=3.1
0.0711910968344848
% es.normE (V/m) @ t=3.2
1.659838831742345
% es.EX (V/m) @ t=3.2
1.226560961525216
% es.EY (V/m) @ t=3.2
0.08524388247351666
% es.EZ (V/m) @ t=3.2
-1.1150545437434758
% es.tEX (V/m) @ t=3.2
1.226560961525216
% es.tEY (V/m) @ t=3.2
0
% es.tEZ (V/m) @ t=3.2
-1.1150545437434545
% es.Ex (V/m) @ t=3.2
1.226560961525216
% es.Ey (V/m) @ t=3.2
0.08524388247351666
% es.Ez (V/m) @ t=3.2
-1.1150545437434758
% es.tEx (V/m) @ t=3.2
1.226560961525216
% es.tEy (V/m) @ t=3.2
0
% es.tEz (V/m) @ t=3.2
-1.1150545437434545
% V (V) @ t=3.2
0.07223723978889736
% es.normE (V/m) @ t=3.3
1.6839531372224559
% es.EX (V/m) @ t=3.3
1.244380656315002
% es.EY (V/m) @ t=3.3
0.0864823310606333
% es.EZ (V/m) @ t=3.3
-1.1312540638445086
% es.tEX (V/m) @ t=3.3
1.2443806563149877
% es.tEY (V/m) @ t=3.3
0
% es.tEZ (V/m) @ t=3.3
-1.1312540638444872
% es.Ex (V/m) @ t=3.3
1.244380656315002
% es.Ey (V/m) @ t=3.3
0.0864823310606333
% es.Ez (V/m) @ t=3.3
-1.1312540638445086
% es.tEx (V/m) @ t=3.3
1.2443806563149877
% es.tEy (V/m) @ t=3.3
0
% es.tEz (V/m) @ t=3.3
-1.1312540638444872
% V (V) @ t=3.3
0.07328667796257117
% es.normE (V/m) @ t=3.4
1.70740042419715
% es.EX (V/m) @ t=3.4
1.2617073245757808
% es.EY (V/m) @ t=3.4
0.0876864293892794
% es.EZ (V/m) @ t=3.4
-1.1470056345813617
% es.tEX (V/m) @ t=3.4
1.2617073245757666
% es.tEY (V/m) @ t=3.4
0
% es.tEZ (V/m) @ t=3.4
-1.1470056345813475
% es.Ex (V/m) @ t=3.4
1.2617073245757808
% es.Ey (V/m) @ t=3.4
0.0876864293892794
% es.Ez (V/m) @ t=3.4
-1.1470056345813617
% es.tEx (V/m) @ t=3.4
1.2617073245757666
% es.tEy (V/m) @ t=3.4
0
% es.tEz (V/m) @ t=3.4
-1.1470056345813475
% V (V) @ t=3.4
0.07430721313989457
% es.normE (V/m) @ t=3.5
1.7301806926664276
% es.EX (V/m) @ t=3.5
1.2785409663074603
% es.EY (V/m) @ t=3.5
0.0888561774594745
% es.EZ (V/m) @ t=3.5
-1.1623092559540922
% es.tEX (V/m) @ t=3.5
1.2785409663074532
% es.tEY (V/m) @ t=3.5
0
% es.tEZ (V/m) @ t=3.5
-1.1623092559540638
% es.Ex (V/m) @ t=3.5
1.2785409663074603
% es.Ey (V/m) @ t=3.5
0.0888561774594745
% es.Ez (V/m) @ t=3.5
-1.1623092559540922
% es.tEx (V/m) @ t=3.5
1.2785409663074532
% es.tEy (V/m) @ t=3.5
0
% es.tEz (V/m) @ t=3.5
-1.1623092559540638
% V (V) @ t=3.5
0.07529884532086757
% es.normE (V/m) @ t=3.6
1.7522939426304354
% es.EX (V/m) @ t=3.6
1.2948815815101895
% es.EY (V/m) @ t=3.6
0.08999157527119728
% es.EZ (V/m) @ t=3.6
-1.1771649279626004
% es.tEX (V/m) @ t=3.6
1.2948815815101824
% es.tEY (V/m) @ t=3.6
0
% es.tEZ (V/m) @ t=3.6
-1.1771649279625862
% es.Ex (V/m) @ t=3.6
1.2948815815101895
% es.Ey (V/m) @ t=3.6
0.08999157527119728
% es.Ez (V/m) @ t=3.6
-1.1771649279626004
% es.tEx (V/m) @ t=3.6
1.2948815815101824
% es.tEy (V/m) @ t=3.6
0
% es.tEz (V/m) @ t=3.6
-1.1771649279625862
% V (V) @ t=3.6
0.07626157450549019
% es.normE (V/m) @ t=3.7
1.7737401740893557
% es.EX (V/m) @ t=3.7
1.310729170183869
% es.EY (V/m) @ t=3.7
0.09109262282443709
% es.EZ (V/m) @ t=3.7
-1.1915726506070072
% es.tEX (V/m) @ t=3.7
1.310729170183862
% es.tEY (V/m) @ t=3.7
0
% es.tEZ (V/m) @ t=3.7
-1.1915726506069788
% es.Ex (V/m) @ t=3.7
1.310729170183869
% es.Ey (V/m) @ t=3.7
0.09109262282443709
% es.Ez (V/m) @ t=3.7
-1.1915726506070072
% es.tEx (V/m) @ t=3.7
1.310729170183862
% es.tEy (V/m) @ t=3.7
0
% es.tEz (V/m) @ t=3.7
-1.1915726506069788
% V (V) @ t=3.7
0.07719540069376242
% es.normE (V/m) @ t=3.8
1.794519387043411
% es.EX (V/m) @ t=3.8
1.326083732328577
% es.EY (V/m) @ t=3.8
0.09215932011925076
% es.EZ (V/m) @ t=3.8
-1.2055324238871918
% es.tEX (V/m) @ t=3.8
1.32608373232857
% es.tEY (V/m) @ t=3.8
0
% es.tEZ (V/m) @ t=3.8
-1.2055324238871705
% es.Ex (V/m) @ t=3.8
1.326083732328577
% es.Ey (V/m) @ t=3.8
0.09215932011925076
% es.Ez (V/m) @ t=3.8
-1.2055324238871918
% es.tEx (V/m) @ t=3.8
1.32608373232857
% es.tEy (V/m) @ t=3.8
0
% es.tEz (V/m) @ t=3.8
-1.2055324238871705
% V (V) @ t=3.8
0.07810032388568422
% es.normE (V/m) @ t=3.9
1.8146315814929272
% es.EX (V/m) @ t=3.9
1.3409452679442566
% es.EY (V/m) @ t=3.9
0.0931916671556241
% es.EZ (V/m) @ t=3.9
-1.2190442478032466
% es.tEX (V/m) @ t=3.9
1.340945267944214
% es.tEY (V/m) @ t=3.9
0
% es.tEZ (V/m) @ t=3.9
-1.2190442478032182
% es.Ex (V/m) @ t=3.9
1.3409452679442566
% es.Ey (V/m) @ t=3.9
0.0931916671556241
% es.Ez (V/m) @ t=3.9
-1.2190442478032466
% es.tEx (V/m) @ t=3.9
1.340945267944214
% es.tEy (V/m) @ t=3.9
0
% es.tEz (V/m) @ t=3.9
-1.2190442478032182
% V (V) @ t=3.9
0.07897634408125563
% es.normE (V/m) @ t=4
1.8342823959971448
% es.EX (V/m) @ t=4
1.3554660323931742
% es.EY (V/m) @ t=4
0.09420044357705848
% es.EZ (V/m) @ t=4
-1.2322459250178994
% es.tEX (V/m) @ t=4
1.355466032393167
% es.tEY (V/m) @ t=4
0
% es.tEZ (V/m) @ t=4
-1.232245925017871
% es.Ex (V/m) @ t=4
1.3554660323931742
% es.Ey (V/m) @ t=4
0.09420044357705848
% es.Ez (V/m) @ t=4
-1.2322459250178994
% es.tEx (V/m) @ t=4
1.355466032393167
% es.tEy (V/m) @ t=4
0
% es.tEz (V/m) @ t=4
-1.232245925017871
% V (V) @ t=4
0.07983211753048038
% es.normE (V/m) @ t=4.1
1.8538492829370758
% es.EX (V/m) @ t=4.1
1.3699254924707702
% es.EY (V/m) @ t=4.1
0.09520543556605965
% es.EZ (V/m) @ t=4.1
-1.2453903941992266
% es.tEX (V/m) @ t=4.1
1.3699254924707631
% es.tEY (V/m) @ t=4.1
0
% es.tEZ (V/m) @ t=4.1
-1.2453903941992124
% es.Ex (V/m) @ t=4.1
1.3699254924707702
% es.Ey (V/m) @ t=4.1
0.09520543556605965
% es.Ez (V/m) @ t=4.1
-1.2453903941992266
% es.tEx (V/m) @ t=4.1
1.3699254924707631
% es.tEy (V/m) @ t=4.1
0
% es.tEz (V/m) @ t=4.1
-1.2453903941992124
% V (V) @ t=4.1
0.08068353289837812
% es.normE (V/m) @ t=4.2
1.8729127734411197
% es.EX (V/m) @ t=4.2
1.384013072255179
% es.EY (V/m) @ t=4.2
0.09618465442146551
% es.EZ (V/m) @ t=4.2
-1.2581965605578134
% es.tEX (V/m) @ t=4.2
1.384013072255172
% es.tEY (V/m) @ t=4.2
0
% es.tEZ (V/m) @ t=4.2
-1.2581965605578063
% es.Ex (V/m) @ t=4.2
1.384013072255179
% es.Ey (V/m) @ t=4.2
0.09618465442146551
% es.Ez (V/m) @ t=4.2
-1.2581965605578134
% es.tEx (V/m) @ t=4.2
1.384013072255172
% es.tEy (V/m) @ t=4.2
0
% es.tEz (V/m) @ t=4.2
-1.2581965605578063
% V (V) @ t=4.2
0.081512932857258
% es.normE (V/m) @ t=4.3
1.8914728675094161
% es.EX (V/m) @ t=4.3
1.3977287717464435
% es.EY (V/m) @ t=4.3
0.0971381001430327
% es.EZ (V/m) @ t=4.3
-1.2706644240935816
% es.tEX (V/m) @ t=4.3
1.3977287717464648
% es.tEY (V/m) @ t=4.3
0
% es.tEZ (V/m) @ t=4.3
-1.2706644240935745
% es.Ex (V/m) @ t=4.3
1.3977287717464435
% es.Ey (V/m) @ t=4.3
0.0971381001430327
% es.Ez (V/m) @ t=4.3
-1.2706644240935816
% es.tEx (V/m) @ t=4.3
1.3977287717464648
% es.tEy (V/m) @ t=4.3
0
% es.tEz (V/m) @ t=4.3
-1.2706644240935745
% V (V) @ t=4.3
0.08232031740712008
% es.normE (V/m) @ t=4.4
1.9095295651422557
% es.EX (V/m) @ t=4.4
1.4110725909445705
% es.EY (V/m) @ t=4.4
0.09806577273081807
% es.EZ (V/m) @ t=4.4
-1.2827939848066237
% es.tEX (V/m) @ t=4.4
1.4110725909445634
% es.tEY (V/m) @ t=4.4
0
% es.tEZ (V/m) @ t=4.4
-1.2827939848065952
% es.Ex (V/m) @ t=4.4
1.4110725909445705
% es.Ey (V/m) @ t=4.4
0.09806577273081807
% es.Ez (V/m) @ t=4.4
-1.2827939848066237
% es.tEx (V/m) @ t=4.4
1.4110725909445634
% es.tEy (V/m) @ t=4.4
0
% es.tEz (V/m) @ t=4.4
-1.2827939848065952
% V (V) @ t=4.4
0.08310568654796431
% es.normE (V/m) @ t=4.5
1.927082866339808
% es.EX (V/m) @ t=4.5
1.4240445298494961
% es.EY (V/m) @ t=4.5
0.09896767218493707
% es.EZ (V/m) @ t=4.5
-1.2945852426968543
% es.tEX (V/m) @ t=4.5
1.424044529849489
% es.tEY (V/m) @ t=4.5
0
% es.tEZ (V/m) @ t=4.5
-1.29458524269684
% es.Ex (V/m) @ t=4.5
1.4240445298494961
% es.Ey (V/m) @ t=4.5
0.09896767218493707
% es.Ez (V/m) @ t=4.5
-1.2945852426968543
% es.tEx (V/m) @ t=4.5
1.424044529849489
% es.tEy (V/m) @ t=4.5
0
% es.tEz (V/m) @ t=4.5
-1.29458524269684
% V (V) @ t=4.5
0.08386904027979071
% es.normE (V/m) @ t=4.6
1.9441327711024452
% es.EX (V/m) @ t=4.6
1.4366445884612773
% es.EY (V/m) @ t=4.6
0.09984379850524583
% es.EZ (V/m) @ t=4.6
-1.306038197764309
% es.tEX (V/m) @ t=4.6
1.4366445884612418
% es.tEY (V/m) @ t=4.6
0
% es.tEZ (V/m) @ t=4.6
-1.3060381977642948
% es.Ex (V/m) @ t=4.6
1.4366445884612773
% es.Ey (V/m) @ t=4.6
0.09984379850524583
% es.Ez (V/m) @ t=4.6
-1.306038197764309
% es.tEx (V/m) @ t=4.6
1.4366445884612418
% es.tEy (V/m) @ t=4.6
0
% es.tEz (V/m) @ t=4.6
-1.3060381977642948
% V (V) @ t=4.6
0.0846103786025993
% es.normE (V/m) @ t=4.7
1.9604865115456955
% es.EX (V/m) @ t=4.7
1.4487299783943257
% es.EY (V/m) @ t=4.7
0.10068400540536082
% es.EZ (V/m) @ t=4.7
-1.3170237441708181
% es.tEX (V/m) @ t=4.7
1.4487299783943186
% es.tEY (V/m) @ t=4.7
0
% es.tEZ (V/m) @ t=4.7
-1.3170237441707755
% es.Ex (V/m) @ t=4.7
1.4487299783943257
% es.Ey (V/m) @ t=4.7
0.10068400540536082
% es.Ez (V/m) @ t=4.7
-1.3170237441708181
% es.tEx (V/m) @ t=4.7
1.4487299783943186
% es.tEy (V/m) @ t=4.7
0
% es.tEz (V/m) @ t=4.7
-1.3170237441707755
% V (V) @ t=4.7
0.08532164328245119
% es.normE (V/m) @ t=4.8
1.975986870619739
% es.EX (V/m) @ t=4.8
1.4601842447285307
% es.EY (V/m) @ t=4.8
0.10148001780747329
% es.EZ (V/m) @ t=4.8
-1.3274365861667192
% es.tEX (V/m) @ t=4.8
1.460184244728488
% es.tEY (V/m) @ t=4.8
0
% es.tEZ (V/m) @ t=4.8
-1.3274365861667121
% es.Ex (V/m) @ t=4.8
1.4601842447285307
% es.Ey (V/m) @ t=4.8
0.10148001780747329
% es.Ez (V/m) @ t=4.8
-1.3274365861667192
% es.tEx (V/m) @ t=4.8
1.460184244728488
% es.tEy (V/m) @ t=4.8
0
% es.tEz (V/m) @ t=4.8
-1.3274365861667121
% V (V) @ t=4.8
0.0859962622092449
% es.normE (V/m) @ t=4.9
1.9908594323478956
% es.EX (V/m) @ t=4.9
1.471174483650806
% es.EY (V/m) @ t=4.9
0.10224370926685644
% es.EZ (V/m) @ t=4.9
-1.3374278081222641
% es.tEX (V/m) @ t=4.9
1.471174483650799
% es.tEY (V/m) @ t=4.9
0
% es.tEZ (V/m) @ t=4.9
-1.3374278081222428
% es.Ex (V/m) @ t=4.9
1.471174483650806
% es.Ey (V/m) @ t=4.9
0.10224370926685644
% es.Ez (V/m) @ t=4.9
-1.3374278081222641
% es.tEx (V/m) @ t=4.9
1.471174483650799
% es.tEy (V/m) @ t=4.9
0
% es.tEz (V/m) @ t=4.9
-1.3374278081222428
% V (V) @ t=4.9
0.08664366542283598
% es.normE (V/m) @ t=5
2.0051041967303105
% es.EX (V/m) @ t=5
1.4817006951613436
% es.EY (V/m) @ t=5
0.10297507978352627
% es.EZ (V/m) @ t=5
-1.3469974100374031
% es.tEX (V/m) @ t=5
1.481700695161308
% es.tEY (V/m) @ t=5
0
% es.tEZ (V/m) @ t=5
-1.3469974100373818
% es.Ex (V/m) @ t=5
1.4817006951613436
% es.Ey (V/m) @ t=5
0.10297507978352627
% es.Ez (V/m) @ t=5
-1.3469974100374031
% es.tEx (V/m) @ t=5
1.481700695161308
% es.tEy (V/m) @ t=5
0
% es.tEz (V/m) @ t=5
-1.3469974100373818
% V (V) @ t=5
0.08726385292322442
% es.normE (V/m) @ t=5.1
2.0187211637670477
% es.EX (V/m) @ t=5.1
1.4917628792600723
% es.EY (V/m) @ t=5.1
0.10367412935754494
% es.EZ (V/m) @ t=5.1
-1.3561453919121789
% es.tEX (V/m) @ t=5.1
1.4917628792600652
% es.tEY (V/m) @ t=5.1
0
% es.tEZ (V/m) @ t=5.1
-1.3561453919121504
% es.Ex (V/m) @ t=5.1
1.4917628792600723
% es.Ey (V/m) @ t=5.1
0.10367412935754494
% es.Ez (V/m) @ t=5.1
-1.3561453919121789
% es.tEx (V/m) @ t=5.1
1.4917628792600652
% es.tEy (V/m) @ t=5.1
0
% es.tEz (V/m) @ t=5.1
-1.3561453919121504
% V (V) @ t=5.1
0.0878568247104102
% es.normE (V/m) @ t=5.2
2.0317103334582076
% es.EX (V/m) @ t=5.2
1.501361035946971
% es.EY (V/m) @ t=5.2
0.10434085798890713
% es.EZ (V/m) @ t=5.2
-1.36487175374657
% es.tEX (V/m) @ t=5.2
1.5013610359469851
% es.tEY (V/m) @ t=5.2
0
% es.tEZ (V/m) @ t=5.2
-1.3648717537465416
% es.Ex (V/m) @ t=5.2
1.501361035946971
% es.Ey (V/m) @ t=5.2
0.10434085798890713
% es.Ez (V/m) @ t=5.2
-1.36487175374657
% es.tEx (V/m) @ t=5.2
1.5013610359469851
% es.tEy (V/m) @ t=5.2
0
% es.tEz (V/m) @ t=5.2
-1.3648717537465416
% V (V) @ t=5.2
0.08842258078439331
% es.normE (V/m) @ t=5.3
2.044071705803999
% es.EX (V/m) @ t=5.3
1.5104951652220961
% es.EY (V/m) @ t=5.3
0.10497526567750981
% es.EZ (V/m) @ t=5.3
-1.3731764955405694
% es.tEX (V/m) @ t=5.3
1.5104951652220961
% es.tEY (V/m) @ t=5.3
0
% es.tEZ (V/m) @ t=5.3
-1.3731764955405268
% es.Ex (V/m) @ t=5.3
1.5104951652220961