% Model:              1x1--2 - Copy1.mph
% Version:            COMSOL 6.1.0.252
% Date:               Mar 28 2023, 12:34
% Dimension:          0
% Nodes:              14017
% Expressions:        14017
% Description:        Electric field norm, Electric field, X component, Electric field, Y component, Electric field, Z component, Tangential electric field, X component, Tangential electric field, Y component, Tangential electric field, Z component, Electric field, x component, Electric field, y component, Electric field, z component, Tangential electric field, x component, Tangential electric field, y component, Tangential electric field, z component, Electric potential
% Length unit:        mm
% x
1.6599999999999997
% y
14.200000000000001
% z
1
% es.normE (V/m) @ t=0
0.5188659791632145
% es.EX (V/m) @ t=0
0.393681341796432
% es.EY (V/m) @ t=0
-0.02068781526290331
% es.EZ (V/m) @ t=0
-0.33735577622742774
% es.tEX (V/m) @ t=0
0.39368134179641956
% es.tEY (V/m) @ t=0
0
% es.tEZ (V/m) @ t=0
-0.3373557762274313
% es.Ex (V/m) @ t=0
0.393681341796432
% es.Ey (V/m) @ t=0
-0.02068781526290331
% es.Ez (V/m) @ t=0
-0.33735577622742774
% es.tEx (V/m) @ t=0
0.39368134179641956
% es.tEy (V/m) @ t=0
0
% es.tEz (V/m) @ t=0
-0.3373557762274313
% V (V) @ t=0
0.019826192233711654
% es.normE (V/m) @ t=0.1
0.548522378852922
% es.EX (V/m) @ t=0.1
0.4161826494825327
% es.EY (V/m) @ t=0.1
-0.02187025205064641
% es.EZ (V/m) @ t=0.1
-0.35663776363056243
% es.tEX (V/m) @ t=0.1
0.41618264948252026
% es.tEY (V/m) @ t=0.1
0
% es.tEZ (V/m) @ t=0.1
-0.3566377636305784
% es.Ex (V/m) @ t=0.1
0.4161826494825327
% es.Ey (V/m) @ t=0.1
-0.02187025205064641
% es.Ez (V/m) @ t=0.1
-0.35663776363056243
% es.tEx (V/m) @ t=0.1
0.41618264948252026
% es.tEy (V/m) @ t=0.1
0
% es.tEz (V/m) @ t=0.1
-0.3566377636305784
% V (V) @ t=0.1
0.020959388353851152
% es.normE (V/m) @ t=0.2
0.5860958766525687
% es.EX (V/m) @ t=0.2
0.44469087340045377
% es.EY (V/m) @ t=0.2
-0.02336835931190384
% es.EZ (V/m) @ t=0.2
-0.3810673477569999
% es.tEX (V/m) @ t=0.2
0.4446908734004378
% es.tEY (V/m) @ t=0.2
0
% es.tEZ (V/m) @ t=0.2
-0.3810673477570159
% es.Ex (V/m) @ t=0.2
0.44469087340045377
% es.Ey (V/m) @ t=0.2
-0.02336835931190384
% es.Ez (V/m) @ t=0.2
-0.3810673477569999
% es.tEx (V/m) @ t=0.2
0.4446908734004378
% es.tEy (V/m) @ t=0.2
0
% es.tEz (V/m) @ t=0.2
-0.3810673477570159
% V (V) @ t=0.2
0.022395163625524978
% es.normE (V/m) @ t=0.3
0.6251504355159342
% es.EX (V/m) @ t=0.3
0.4743227552396103
% es.EY (V/m) @ t=0.3
-0.02492552586064445
% es.EZ (V/m) @ t=0.3
-0.40645997225832353
% es.tEX (V/m) @ t=0.3
0.474322755239605
% es.tEY (V/m) @ t=0.3
0
% es.tEZ (V/m) @ t=0.3
-0.4064599722583324
% es.Ex (V/m) @ t=0.3
0.4743227552396103
% es.Ey (V/m) @ t=0.3
-0.02492552586064445
% es.Ez (V/m) @ t=0.3
-0.40645997225832353
% es.tEx (V/m) @ t=0.3
0.474322755239605
% es.tEy (V/m) @ t=0.3
0
% es.tEz (V/m) @ t=0.3
-0.4064599722583324
% V (V) @ t=0.3
0.02388760950127185
% es.normE (V/m) @ t=0.4
0.6666626398551196
% es.EX (V/m) @ t=0.4
0.5058189839712206
% es.EY (V/m) @ t=0.4
-0.026580717538277954
% es.EZ (V/m) @ t=0.4
-0.4334509156618189
% es.tEX (V/m) @ t=0.4
0.5058189839712135
% es.tEY (V/m) @ t=0.4
0
% es.tEZ (V/m) @ t=0.4
-0.4334509156618349
% es.Ex (V/m) @ t=0.4
0.5058189839712206
% es.Ey (V/m) @ t=0.4
-0.026580717538277954
% es.Ez (V/m) @ t=0.4
-0.4334509156618189
% es.tEx (V/m) @ t=0.4
0.5058189839712135
% es.tEy (V/m) @ t=0.4
0
% es.tEz (V/m) @ t=0.4
-0.4334509156618349
% V (V) @ t=0.4
0.025474339057884907
% es.normE (V/m) @ t=0.5
0.7098272458063946
% es.EX (V/m) @ t=0.5
0.5385694394417335
% es.EY (V/m) @ t=0.5
-0.028301741233766275
% es.EZ (V/m) @ t=0.5
-0.46151564353946384
% es.tEX (V/m) @ t=0.5
0.5385694394417264
% es.tEY (V/m) @ t=0.5
0
% es.tEZ (V/m) @ t=0.5
-0.4615156435394727
% es.Ex (V/m) @ t=0.5
0.5385694394417335
% es.Ey (V/m) @ t=0.5
-0.028301741233766275
% es.Ez (V/m) @ t=0.5
-0.46151564353946384
% es.tEx (V/m) @ t=0.5
0.5385694394417264
% es.tEy (V/m) @ t=0.5
0
% es.tEz (V/m) @ t=0.5
-0.4615156435394727
% V (V) @ t=0.5
0.027123679962615492
% es.normE (V/m) @ t=0.6
0.7541073089680732
% es.EX (V/m) @ t=0.6
0.5721664942390916
% es.EY (V/m) @ t=0.6
-0.03006721218656061
% es.EZ (V/m) @ t=0.6
-0.49030531208681083
% es.tEX (V/m) @ t=0.6
0.5721664942390827
% es.tEY (V/m) @ t=0.6
0
% es.tEZ (V/m) @ t=0.6
-0.4903053120868268
% es.Ex (V/m) @ t=0.6
0.5721664942390916
% es.Ey (V/m) @ t=0.6
-0.03006721218656061
% es.Ez (V/m) @ t=0.6
-0.49030531208681083
% es.tEx (V/m) @ t=0.6
0.5721664942390827
% es.tEy (V/m) @ t=0.6
0
% es.tEz (V/m) @ t=0.6
-0.4903053120868268
% V (V) @ t=0.6
0.028815360769062333
% es.normE (V/m) @ t=0.7
0.7998483305657411
% es.EX (V/m) @ t=0.7
0.6068718832600588
% es.EY (V/m) @ t=0.7
-0.03189094867570841
% es.EZ (V/m) @ t=0.7
-0.5200450332516944
% es.tEX (V/m) @ t=0.7
0.6068718832600428
% es.tEY (V/m) @ t=0.7
0
% es.tEZ (V/m) @ t=0.7
-0.5200450332517033
% es.Ex (V/m) @ t=0.7
0.6068718832600588
% es.Ey (V/m) @ t=0.7
-0.03189094867570841
% es.Ez (V/m) @ t=0.7
-0.5200450332516944
% es.tEx (V/m) @ t=0.7
0.6068718832600428
% es.tEy (V/m) @ t=0.7
0
% es.tEz (V/m) @ t=0.7
-0.5200450332517033
% V (V) @ t=0.7
0.030563020912916114
% es.normE (V/m) @ t=0.8
0.8467486864222834
% es.EX (V/m) @ t=0.8
0.6424567838429187
% es.EY (V/m) @ t=0.8
-0.03376092140996567
% es.EZ (V/m) @ t=0.8
-0.5505386626183721
% es.tEX (V/m) @ t=0.8
0.6424567838428938
% es.tEY (V/m) @ t=0.8
0
% es.tEZ (V/m) @ t=0.8
-0.550538662618381
% es.Ex (V/m) @ t=0.8
0.6424567838429187
% es.Ey (V/m) @ t=0.8
-0.03376092140996567
% es.Ez (V/m) @ t=0.8
-0.5505386626183721
% es.tEx (V/m) @ t=0.8
0.6424567838428938
% es.tEy (V/m) @ t=0.8
0
% es.tEz (V/m) @ t=0.8
-0.550538662618381
% V (V) @ t=0.8
0.03235510310332079
% es.normE (V/m) @ t=0.9
0.8947740875544434
% es.EX (V/m) @ t=0.9
0.6788952605778356
% es.EY (V/m) @ t=0.9
-0.035675754810010396
% es.EZ (V/m) @ t=0.9
-0.5817638124209648
% es.tEX (V/m) @ t=0.9
0.6788952605778196
% es.tEY (V/m) @ t=0.9
0
% es.tEZ (V/m) @ t=0.9
-0.5817638124209807
% es.Ex (V/m) @ t=0.9
0.6788952605778356
% es.Ey (V/m) @ t=0.9
-0.035675754810010396
% es.Ez (V/m) @ t=0.9
-0.5817638124209648
% es.tEx (V/m) @ t=0.9
0.6788952605778196
% es.tEy (V/m) @ t=0.9
0
% es.tEz (V/m) @ t=0.9
-0.5817638124209807
% V (V) @ t=0.9
0.03419021068798002
% es.normE (V/m) @ t=1
0.9438187144748477
% es.EX (V/m) @ t=1
0.7161072740027254
% es.EY (V/m) @ t=1
-0.03763120368995665
% es.EZ (V/m) @ t=1
-0.6136513916077959
% es.tEX (V/m) @ t=1
0.7161072740027077
% es.tEY (V/m) @ t=1
0
% es.tEZ (V/m) @ t=1
-0.6136513916078119
% es.Ex (V/m) @ t=1
0.7161072740027254
% es.Ey (V/m) @ t=1
-0.03763120368995665
% es.Ez (V/m) @ t=1
-0.6136513916077959
% es.tEx (V/m) @ t=1
0.7161072740027077
% es.tEy (V/m) @ t=1
0
% es.tEz (V/m) @ t=1
-0.6136513916078119
% V (V) @ t=1
0.03606403344779809
% es.normE (V/m) @ t=1.1
0.9939444444425743
% es.EX (V/m) @ t=1.1
0.754139626673954
% es.EY (V/m) @ t=1.1
-0.039629750394744256
% es.EZ (V/m) @ t=1.1
-0.6462418007232102
% es.tEX (V/m) @ t=1.1
0.7541396266739291
% es.tEY (V/m) @ t=1.1
0
% es.tEZ (V/m) @ t=1.1
-0.6462418007232191
% es.Ex (V/m) @ t=1.1
0.754139626673954
% es.Ey (V/m) @ t=1.1
-0.039629750394744256
% es.Ez (V/m) @ t=1.1
-0.6462418007232102
% es.tEx (V/m) @ t=1.1
0.7541396266739291
% es.tEy (V/m) @ t=1.1
0
% es.tEz (V/m) @ t=1.1
-0.6462418007232191
% V (V) @ t=1.1
0.03797909175543547
% es.normE (V/m) @ t=1.2
1.0446383355505584
% es.EX (V/m) @ t=1.2
0.7926029984772924
% es.EY (V/m) @ t=1.2
-0.04165095695604348
% es.EZ (V/m) @ t=1.2
-0.67920169073059
% es.tEX (V/m) @ t=1.2
0.7926029984772676
% es.tEY (V/m) @ t=1.2
0
% es.tEZ (V/m) @ t=1.2
-0.6792016907306007
% es.Ex (V/m) @ t=1.2
0.7926029984772924
% es.Ey (V/m) @ t=1.2
-0.04165095695604348
% es.Ez (V/m) @ t=1.2
-0.67920169073059
% es.tEx (V/m) @ t=1.2
0.7926029984772676
% es.tEy (V/m) @ t=1.2
0
% es.tEz (V/m) @ t=1.2
-0.6792016907306007
% V (V) @ t=1.2
0.039915928477142926
% es.normE (V/m) @ t=1.3
1.0949485770551675
% es.EX (V/m) @ t=1.3
0.8307749702416594
% es.EY (V/m) @ t=1.3
-0.043656898849600445
% es.EZ (V/m) @ t=1.3
-0.7119125019255819
% es.tEX (V/m) @ t=1.3
0.8307749702416345
% es.tEY (V/m) @ t=1.3
0
% es.tEZ (V/m) @ t=1.3
-0.7119125019255961
% es.Ex (V/m) @ t=1.3
0.8307749702416594
% es.Ey (V/m) @ t=1.3
-0.043656898849600445
% es.Ez (V/m) @ t=1.3
-0.7119125019255819
% es.tEx (V/m) @ t=1.3
0.8307749702416345
% es.tEy (V/m) @ t=1.3
0
% es.tEz (V/m) @ t=1.3
-0.7119125019255961
% V (V) @ t=1.3
0.04183843911709721
% es.normE (V/m) @ t=1.4
1.1454880278793762
% es.EX (V/m) @ t=1.4
0.8691206985520701
% es.EY (V/m) @ t=1.4
-0.04567199519785525
% es.EZ (V/m) @ t=1.4
-0.7447725170936366
% es.tEX (V/m) @ t=1.4
0.8691206985520452
% es.tEY (V/m) @ t=1.4
0
% es.tEZ (V/m) @ t=1.4
-0.7447725170936366
% es.Ex (V/m) @ t=1.4
0.8691206985520701
% es.Ey (V/m) @ t=1.4
-0.04567199519785525
% es.Ez (V/m) @ t=1.4
-0.7447725170936366
% es.tEx (V/m) @ t=1.4
0.8691206985520452
% es.tEy (V/m) @ t=1.4
0
% es.tEz (V/m) @ t=1.4
-0.7447725170936366
% V (V) @ t=1.4
0.04376987090440437
% es.normE (V/m) @ t=1.5
1.196256688023443
% es.EX (V/m) @ t=1.5
0.9076401834085814
% es.EY (V/m) @ t=1.5
-0.047696246000830556
% es.EZ (V/m) @ t=1.5
-0.7777817362347115
% es.tEX (V/m) @ t=1.5
0.9076401834085459
% es.tEY (V/m) @ t=1.5
0
% es.tEZ (V/m) @ t=1.5
-0.7777817362347399
% es.Ex (V/m) @ t=1.5
0.9076401834085814
% es.Ey (V/m) @ t=1.5
-0.047696246000830556
% es.Ez (V/m) @ t=1.5
-0.7777817362347115
% es.tEx (V/m) @ t=1.5
0.9076401834085459
% es.tEy (V/m) @ t=1.5
0
% es.tEz (V/m) @ t=1.5
-0.7777817362347399
% V (V) @ t=1.5
0.04571022383906441
% es.normE (V/m) @ t=1.6
1.2465680990177397
% es.EX (V/m) @ t=1.6
0.9458126465146002
% es.EY (V/m) @ t=1.6
-0.04970227524402615
% es.EZ (V/m) @ t=1.6
-0.8104937674142327
% es.tEX (V/m) @ t=1.6
0.9458126465145753
% es.tEY (V/m) @ t=1.6
0
% es.tEZ (V/m) @ t=1.6
-0.8104937674142647
% es.Ex (V/m) @ t=1.6
0.9458126465146002
% es.Ey (V/m) @ t=1.6
-0.04970227524402615
% es.Ez (V/m) @ t=1.6
-0.8104937674142327
% es.tEx (V/m) @ t=1.6
0.9458126465145753
% es.tEy (V/m) @ t=1.6
0
% es.tEz (V/m) @ t=1.6
-0.8104937674142647
% V (V) @ t=1.6
0.047633204212952654
% es.normE (V/m) @ t=1.7
1.2952229334921534
% es.EX (V/m) @ t=1.7
0.9827282241388566
% es.EY (V/m) @ t=1.7
-0.051642253663490845
% es.EZ (V/m) @ t=1.7
-0.8421287090234273
% es.tEX (V/m) @ t=1.7
0.9827282241388389
% es.tEY (V/m) @ t=1.7
0
% es.tEZ (V/m) @ t=1.7
-0.8421287090234735
% es.Ex (V/m) @ t=1.7
0.9827282241388566
% es.Ey (V/m) @ t=1.7
-0.051642253663490845
% es.Ez (V/m) @ t=1.7
-0.8421287090234273
% es.tEx (V/m) @ t=1.7
0.9827282241388389
% es.tEy (V/m) @ t=1.7
0
% es.tEz (V/m) @ t=1.7
-0.8421287090234735
% V (V) @ t=1.7
0.04949287368427838
% es.normE (V/m) @ t=1.8
1.3432071159876495
% es.EX (V/m) @ t=1.8
1.0191348830198912
% es.EY (V/m) @ t=1.8
-0.053555500002622214
% es.EZ (V/m) @ t=1.8
-0.8733276905442544
% es.tEX (V/m) @ t=1.8
1.0191348830198734
% es.tEY (V/m) @ t=1.8
0
% es.tEZ (V/m) @ t=1.8
-0.8733276905442864
% es.Ex (V/m) @ t=1.8
1.0191348830198912
% es.Ey (V/m) @ t=1.8
-0.053555500002622214
% es.Ez (V/m) @ t=1.8
-0.8733276905442544
% es.tEx (V/m) @ t=1.8
1.0191348830198734
% es.tEy (V/m) @ t=1.8
0
% es.tEz (V/m) @ t=1.8
-0.8733276905442864
% V (V) @ t=1.8
0.0513269965363089
% es.normE (V/m) @ t=1.9
1.3905206465043554
% es.EX (V/m) @ t=1.9
1.0550326231577252
% es.EY (V/m) @ t=1.9
-0.055442014261394945
% es.EZ (V/m) @ t=1.9
-0.9040907119766572
% es.tEX (V/m) @ t=1.9
1.0550326231576932
% es.tEY (V/m) @ t=1.9
0
% es.tEZ (V/m) @ t=1.9
-0.904090711976675
% es.Ex (V/m) @ t=1.9
1.0550326231577252
% es.Ey (V/m) @ t=1.9
-0.055442014261394945
% es.Ez (V/m) @ t=1.9
-0.9040907119766572
% es.tEx (V/m) @ t=1.9
1.0550326231576932
% es.tEy (V/m) @ t=1.9
0
% es.tEz (V/m) @ t=1.9
-0.904090711976675
% V (V) @ t=1.9
0.053135572769044216
% es.normE (V/m) @ t=2
1.4365956705843677
% es.EX (V/m) @ t=2
1.0899910006869504
% es.EY (V/m) @ t=2
-0.05727911409006392
% es.EZ (V/m) @ t=2
-0.9340480941858758
% es.tEX (V/m) @ t=2
1.0899910006869185
% es.tEY (V/m) @ t=2
0
% es.tEZ (V/m) @ t=2
-0.9340480941859042
% es.Ex (V/m) @ t=2
1.0899910006869504
% es.Ey (V/m) @ t=2
-0.05727911409006392
% es.Ez (V/m) @ t=2
-0.9340480941858758
% es.tEx (V/m) @ t=2
1.0899910006869185
% es.tEy (V/m) @ t=2
0
% es.tEz (V/m) @ t=2
-0.9340480941859042
% V (V) @ t=2
0.054896470371607296
% es.normE (V/m) @ t=2.1
1.4803271329975394
% es.EX (V/m) @ t=2.1
1.1231723639203182
% es.EY (V/m) @ t=2.1
-0.059022659218222806
% es.EZ (V/m) @ t=2.1
-0.9624804347690237
% es.tEX (V/m) @ t=2.1
1.1231723639202862
% es.tEY (V/m) @ t=2.1
0
% es.tEZ (V/m) @ t=2.1
-0.9624804347690556
% es.Ex (V/m) @ t=2.1
1.1231723639203182
% es.Ey (V/m) @ t=2.1
-0.059022659218222806
% es.Ez (V/m) @ t=2.1
-0.9624804347690237
% es.tEx (V/m) @ t=2.1
1.1231723639202862
% es.tEy (V/m) @ t=2.1
0
% es.tEz (V/m) @ t=2.1
-0.9624804347690556
% V (V) @ t=2.1
0.05656662004333532
% es.normE (V/m) @ t=2.2
1.5225989819927552
% es.EX (V/m) @ t=2.2
1.1552467614852624
% es.EY (V/m) @ t=2.2
-0.06070795803023454
% es.EZ (V/m) @ t=2.2
-0.9899631931920432
% es.tEX (V/m) @ t=2.2
1.1552467614852304
% es.tEY (V/m) @ t=2.2
0
% es.tEZ (V/m) @ t=2.2
-0.9899631931920752
% es.Ex (V/m) @ t=2.2
1.1552467614852624
% es.Ey (V/m) @ t=2.2
-0.06070795803023454
% es.Ez (V/m) @ t=2.2
-0.9899631931920432
% es.tEx (V/m) @ t=2.2
1.1552467614852304
% es.tEy (V/m) @ t=2.2
0
% es.tEz (V/m) @ t=2.2
-0.9899631931920752
% V (V) @ t=2.2
0.05818047348561204
% es.normE (V/m) @ t=2.3
1.5634112175728563
% es.EX (V/m) @ t=2.3
1.186214193381737
% es.EY (V/m) @ t=2.3
-0.06233501052584778
% es.EZ (V/m) @ t=2.3
-1.016496369454952
% es.tEX (V/m) @ t=2.3
1.1862141933817192
% es.tEY (V/m) @ t=2.3
0
% es.tEZ (V/m) @ t=2.3
-1.0164963694549698
% es.Ex (V/m) @ t=2.3
1.186214193381737
% es.Ey (V/m) @ t=2.3
-0.06233501052584778
% es.Ez (V/m) @ t=2.3
-1.016496369454952
% es.tEx (V/m) @ t=2.3
1.1862141933817192
% es.tEy (V/m) @ t=2.3
0
% es.tEz (V/m) @ t=2.3
-1.0164963694549698
% V (V) @ t=2.3
0.05973803069843744
% es.normE (V/m) @ t=2.4
1.602608491810406
% es.EX (V/m) @ t=2.4
1.2159561700859456
% es.EY (V/m) @ t=2.4
-0.0638976860657321
% es.EZ (V/m) @ t=2.4
-1.0419796812645572
% es.tEX (V/m) @ t=2.4
1.2159561700859278
% es.tEY (V/m) @ t=2.4
0
% es.tEZ (V/m) @ t=2.4
-1.0419796812645892
% es.Ex (V/m) @ t=2.4
1.2159561700859456
% es.Ey (V/m) @ t=2.4
-0.0638976860657321
% es.Ez (V/m) @ t=2.4
-1.0419796812645572
% es.tEx (V/m) @ t=2.4
1.2159561700859278
% es.tEy (V/m) @ t=2.4
0
% es.tEz (V/m) @ t=2.4
-1.0419796812645892
% V (V) @ t=2.4
0.06123402021841948
% es.normE (V/m) @ t=2.5
1.6398539826918115
% es.EX (V/m) @ t=2.5
1.2442157851847142
% es.EY (V/m) @ t=2.5
-0.0653826923306351
% es.EZ (V/m) @ t=2.5
-1.0661956987302936
% es.tEX (V/m) @ t=2.5
1.2442157851846822
% es.tEY (V/m) @ t=2.5
0
% es.tEZ (V/m) @ t=2.5
-1.0661956987303256
% es.Ex (V/m) @ t=2.5
1.2442157851847142
% es.Ey (V/m) @ t=2.5
-0.0653826923306351
% es.Ez (V/m) @ t=2.5
-1.0661956987302936
% es.tEx (V/m) @ t=2.5
1.2442157851846822
% es.tEy (V/m) @ t=2.5
0
% es.tEz (V/m) @ t=2.5
-1.0661956987303256
% V (V) @ t=2.5
0.06265701257308093
% es.normE (V/m) @ t=2.6
1.6754103902254376
% es.EX (V/m) @ t=2.6
1.271193409542196
% es.EY (V/m) @ t=2.6
-0.06680039649458003
% es.EZ (V/m) @ t=2.6
-1.0893140035086333
% es.tEX (V/m) @ t=2.6
1.2711934095421498
% es.tEY (V/m) @ t=2.6
0
% es.tEZ (V/m) @ t=2.6
-1.089314003508651
% es.Ex (V/m) @ t=2.6
1.271193409542196
% es.Ey (V/m) @ t=2.6
-0.06680039649458003
% es.Ez (V/m) @ t=2.6
-1.0893140035086333
% es.tEx (V/m) @ t=2.6
1.2711934095421498
% es.tEy (V/m) @ t=2.6
0
% es.tEz (V/m) @ t=2.6
-1.089314003508651
% V (V) @ t=2.6
0.06401592203299
% es.normE (V/m) @ t=2.7
1.7092777144116702
% es.EX (V/m) @ t=2.7
1.296889043158398
% es.EY (V/m) @ t=2.7
-0.0681507985576042
% es.EZ (V/m) @ t=2.7
-1.1113345955993807
% es.tEX (V/m) @ t=2.7
1.2968890431583802
% es.tEY (V/m) @ t=2.7
0
% es.tEZ (V/m) @ t=2.7
-1.1113345955994127
% es.Ex (V/m) @ t=2.7
1.296889043158398
% es.Ey (V/m) @ t=2.7
-0.0681507985576042
% es.Ez (V/m) @ t=2.7
-1.1113345955993807
% es.tEx (V/m) @ t=2.7
1.2968890431583802
% es.tEy (V/m) @ t=2.7
0
% es.tEz (V/m) @ t=2.7
-1.1113345955994127
% V (V) @ t=2.7
0.06531074859814676
% es.normE (V/m) @ t=2.8
1.7416119079580359
% es.EX (V/m) @ t=2.8
1.321421329372125
% es.EY (V/m) @ t=2.8
-0.06944008432095838
% es.EZ (V/m) @ t=2.8
-1.1323585045872768
% es.tEX (V/m) @ t=2.8
1.321421329372079
% es.tEY (V/m) @ t=2.8
0
% es.tEZ (V/m) @ t=2.8
-1.1323585045873088
% es.Ex (V/m) @ t=2.8
1.321421329372125
% es.Ey (V/m) @ t=2.8
-0.06944008432095838
% es.Ez (V/m) @ t=2.8
-1.1323585045872768
% es.tEx (V/m) @ t=2.8
1.321421329372079
% es.tEy (V/m) @ t=2.8
0
% es.tEz (V/m) @ t=2.8
-1.1323585045873088
% V (V) @ t=2.8
0.0665471122958716
% es.normE (V/m) @ t=2.9
1.7727900571049626
% es.EX (V/m) @ t=2.9
1.3450771421445644
% es.EY (V/m) @ t=2.9
-0.0706832107588431
% es.EZ (V/m) @ t=2.9
-1.152630015211841
% es.tEX (V/m) @ t=2.9
1.3450771421445182
% es.tEY (V/m) @ t=2.9
0
% es.tEZ (V/m) @ t=2.9
-1.1526300152118587
% es.Ex (V/m) @ t=2.9
1.3450771421445644
% es.Ey (V/m) @ t=2.9
-0.0706832107588431
% es.Ez (V/m) @ t=2.9
-1.152630015211841
% es.tEx (V/m) @ t=2.9
1.3450771421445182
% es.tEy (V/m) @ t=2.9
0
% es.tEz (V/m) @ t=2.9
-1.1526300152118587
% V (V) @ t=2.9
0.06773860208545888
% es.normE (V/m) @ t=3
1.802524888303103
% es.EX (V/m) @ t=3
1.3676379338544322
% es.EY (V/m) @ t=3
-0.07186878328144708
% es.EZ (V/m) @ t=3
-1.1719630253656206
% es.tEX (V/m) @ t=3
1.3676379338543967
% es.tEY (V/m) @ t=3
0
% es.tEZ (V/m) @ t=3
-1.1719630253656526
% es.Ex (V/m) @ t=3
1.3676379338544322
% es.Ey (V/m) @ t=3
-0.07186878328144708
% es.Ez (V/m) @ t=3
-1.1719630253656206
% es.tEx (V/m) @ t=3
1.3676379338543967
% es.tEy (V/m) @ t=3
0
% es.tEz (V/m) @ t=3
-1.1719630253656526
% V (V) @ t=3
0.06887486556435143
% es.normE (V/m) @ t=3.1
1.8308164015524238
% es.EX (V/m) @ t=3.1
1.3891037045017178
% es.EY (V/m) @ t=3.1
-0.07299680188870461
% es.EZ (V/m) @ t=3.1
-1.190357535048605
% es.tEX (V/m) @ t=3.1
1.3891037045016574
% es.tEY (V/m) @ t=3.1
0
% es.tEZ (V/m) @ t=3.1
-1.1903575350486229
% es.Ex (V/m) @ t=3.1
1.3891037045017178
% es.Ey (V/m) @ t=3.1
-0.07299680188870461
% es.Ez (V/m) @ t=3.1
-1.190357535048605
% es.tEx (V/m) @ t=3.1
1.3891037045016574
% es.tEy (V/m) @ t=3.1
0
% es.tEz (V/m) @ t=3.1
-1.1903575350486229
% V (V) @ t=3.1
0.06995590273254929
% es.normE (V/m) @ t=3.2
1.8580975533078563
% es.EX (V/m) @ t=3.2
1.4098029039722242
% es.EY (V/m) @ t=3.2
-0.07408453402989412
% es.EZ (V/m) @ t=3.2
-1.2080951003036553
% es.tEX (V/m) @ t=3.2
1.4098029039721922
% es.tEY (V/m) @ t=3.2
0
% es.tEZ (V/m) @ t=3.2
-1.2080951003036908
% es.Ex (V/m) @ t=3.2
1.4098029039722242
% es.Ey (V/m) @ t=3.2
-0.07408453402989412
% es.Ez (V/m) @ t=3.2
-1.2080951003036553
% es.tEx (V/m) @ t=3.2
1.4098029039721922
% es.tEy (V/m) @ t=3.2
0
% es.tEz (V/m) @ t=3.2
-1.2080951003036908
% V (V) @ t=3.2
0.07099830963050117
% es.normE (V/m) @ t=3.3
1.885537693091195
% es.EX (V/m) @ t=3.3
1.4306226254424494
% es.EY (V/m) @ t=3.3
-0.07517861645846846
% es.EZ (V/m) @ t=3.3
-1.2259361611712123
% es.tEX (V/m) @ t=3.3
1.4306226254424033
% es.tEY (V/m) @ t=3.3
0
% es.tEZ (V/m) @ t=3.3
-1.22593616117123
% es.Ex (V/m) @ t=3.3
1.4306226254424494
% es.Ey (V/m) @ t=3.3
-0.07517861645846846
% es.Ez (V/m) @ t=3.3
-1.2259361611712123
% es.tEx (V/m) @ t=3.3
1.4306226254424033
% es.tEy (V/m) @ t=3.3
0
% es.tEz (V/m) @ t=3.3
-1.22593616117123
% V (V) @ t=3.3
0.07204690963879143
% es.normE (V/m) @ t=3.4
1.912265281277924
% es.EX (V/m) @ t=3.4
1.4509017005965674
% es.EY (V/m) @ t=3.4
-0.07624428986780529
% es.EZ (V/m) @ t=3.4
-1.2433139464549896
% es.tEX (V/m) @ t=3.4
1.4509017005965497
% es.tEY (V/m) @ t=3.4
0
% es.tEZ (V/m) @ t=3.4
-1.2433139464550251
% es.Ex (V/m) @ t=3.4
1.4509017005965674
% es.Ey (V/m) @ t=3.4
-0.07624428986780529
% es.Ez (V/m) @ t=3.4
-1.2433139464549896
% es.tEx (V/m) @ t=3.4
1.4509017005965497
% es.tEy (V/m) @ t=3.4
0
% es.tEz (V/m) @ t=3.4
-1.2433139464550251
% V (V) @ t=3.4
0.07306829499391085
% es.normE (V/m) @ t=3.5
1.9382803178681483
% es.EX (V/m) @ t=3.5
1.4706401294346492
% es.EY (V/m) @ t=3.5
-0.07728155425790817
% es.EZ (V/m) @ t=3.5
-1.2602284561550618
% es.tEX (V/m) @ t=3.5
1.4706401294345994
% es.tEY (V/m) @ t=3.5
0
% es.tEZ (V/m) @ t=3.5
-1.260228456155108
% es.Ex (V/m) @ t=3.5
1.4706401294346492
% es.Ey (V/m) @ t=3.5
-0.07728155425790817
% es.Ez (V/m) @ t=3.5
-1.2602284561550618
% es.tEx (V/m) @ t=3.5
1.4706401294345994
% es.tEy (V/m) @ t=3.5
0
% es.tEz (V/m) @ t=3.5
-1.260228456155108
% V (V) @ t=3.5
0.07406246569585948
% es.normE (V/m) @ t=3.6
1.9635828028617999
% es.EX (V/m) @ t=3.6
1.4898379119565703
% es.EY (V/m) @ t=3.6
-0.07829040962874956
% es.EZ (V/m) @ t=3.6
-1.276679690271468
% es.tEX (V/m) @ t=3.6
1.489837911956549
% es.tEY (V/m) @ t=3.6
0
% es.tEZ (V/m) @ t=3.6
-1.2766796902715
% es.Ex (V/m) @ t=3.6
1.4898379119565703
% es.Ey (V/m) @ t=3.6
-0.07829040962874956
% es.Ez (V/m) @ t=3.6
-1.276679690271468
% es.tEx (V/m) @ t=3.6
1.489837911956549
% es.tEy (V/m) @ t=3.6
0
% es.tEz (V/m) @ t=3.6
-1.2766796902715
% V (V) @ t=3.6
0.07502942174463724
% es.normE (V/m) @ t=3.7
1.9881727362589654
% es.EX (V/m) @ t=3.7
1.5084950481625157
% es.EY (V/m) @ t=3.7
-0.07927085598025663
% es.EZ (V/m) @ t=3.7
-1.2926676488041267
% es.tEX (V/m) @ t=3.7
1.5084950481624873
% es.tEY (V/m) @ t=3.7
0
% es.tEZ (V/m) @ t=3.7
-1.2926676488041586
% es.Ex (V/m) @ t=3.7
1.5084950481625157
% es.Ey (V/m) @ t=3.7
-0.07927085598025663
% es.Ez (V/m) @ t=3.7
-1.2926676488041267
% es.tEx (V/m) @ t=3.7
1.5084950481624873
% es.tEy (V/m) @ t=3.7
0
% es.tEz (V/m) @ t=3.7
-1.2926676488041586
% V (V) @ t=3.7
0.0759691631402442
% es.normE (V/m) @ t=3.8
2.0120501180595407
% es.EX (V/m) @ t=3.8
1.5266115380523075
% es.EY (V/m) @ t=3.8
-0.0802228933125555
% es.EZ (V/m) @ t=3.8
-1.308192331753073
% es.tEX (V/m) @ t=3.8
1.5266115380522578
% es.tEY (V/m) @ t=3.8
0
% es.tEZ (V/m) @ t=3.8
-1.3081923317530944
% es.Ex (V/m) @ t=3.8
1.5266115380523075
% es.Ey (V/m) @ t=3.8
-0.0802228933125555
% es.Ez (V/m) @ t=3.8
-1.308192331753073
% es.tEx (V/m) @ t=3.8
1.5266115380522578
% es.tEy (V/m) @ t=3.8
0
% es.tEz (V/m) @ t=3.8
-1.3081923317530944
% V (V) @ t=3.8
0.07688168988268029
% es.normE (V/m) @ t=3.9
2.035214948263556
% es.EX (V/m) @ t=3.9
1.544187381626017
% es.EY (V/m) @ t=3.9
-0.0811465216256213
% es.EZ (V/m) @ t=3.9
-1.3232537391182682
% es.tEX (V/m) @ t=3.9
1.5441873816259744
% es.tEY (V/m) @ t=3.9
0
% es.tEZ (V/m) @ t=3.9
-1.3232537391182717
% es.Ex (V/m) @ t=3.9
1.544187381626017
% es.Ey (V/m) @ t=3.9
-0.0811465216256213
% es.Ez (V/m) @ t=3.9
-1.3232537391182682
% es.tEx (V/m) @ t=3.9
1.5441873816259744
% es.tEy (V/m) @ t=3.9
0
% es.tEz (V/m) @ t=3.9
-1.3232537391182717
% V (V) @ t=3.9
0.07776700197194561
% es.normE (V/m) @ t=4
2.057835775069568
% es.EX (V/m) @ t=4
1.5613506104484358
% es.EY (V/m) @ t=4
-0.0820484461253761
% es.EZ (V/m) @ t=4
-1.337961285275803
% es.tEX (V/m) @ t=4
1.561350610448379
% es.tEY (V/m) @ t=4
0
% es.tEZ (V/m) @ t=4
-1.3379612852758385
% es.Ex (V/m) @ t=4
1.5613506104484358
% es.Ey (V/m) @ t=4
-0.0820484461253761
% es.Ez (V/m) @ t=4
-1.337961285275803
% es.tEx (V/m) @ t=4
1.561350610448379
% es.tEy (V/m) @ t=4
0
% es.tEz (V/m) @ t=4
-1.3379612852758385
% V (V) @ t=4
0.07863138025055737
% es.normE (V/m) @ t=4.1
2.080385502659163
% es.EX (V/m) @ t=4.1
1.5784604491381913
% es.EY (V/m) @ t=4.1
-0.0829474799464025
% es.EZ (V/m) @ t=4.1
-1.352621959658876
% es.tEX (V/m) @ t=4.1
1.5784604491381273
% es.tEY (V/m) @ t=4.1
0
% es.tEZ (V/m) @ t=4.1
-1.352621959658883
% es.Ex (V/m) @ t=4.1
1.5784604491381913
% es.Ey (V/m) @ t=4.1
-0.0829474799464025
% es.Ez (V/m) @ t=4.1
-1.352621959658876
% es.tEx (V/m) @ t=4.1
1.5784604491381273
% es.tEy (V/m) @ t=4.1
0
% es.tEz (V/m) @ t=4.1
-1.352621959658883
% V (V) @ t=4.1
0.07949244719513938
% es.normE (V/m) @ t=4.2
2.1023929331001128
% es.EX (V/m) @ t=4.2
1.5951589691670591
% es.EY (V/m) @ t=4.2
-0.0838248778324786
% es.EZ (V/m) @ t=4.2
-1.3669298804589616
% es.tEX (V/m) @ t=4.2
1.5951589691670094
% es.tEY (V/m) @ t=4.2
0
% es.tEZ (V/m) @ t=4.2
-1.3669298804589616
% es.Ex (V/m) @ t=4.2
1.5951589691670591
% es.Ey (V/m) @ t=4.2
-0.0838248778324786
% es.Ez (V/m) @ t=4.2
-1.3669298804589616
% es.tEx (V/m) @ t=4.2
1.5951589691670094
% es.tEy (V/m) @ t=4.2
0
% es.tEz (V/m) @ t=4.2
-1.3669298804589616
% V (V) @ t=4.2
0.08033264391135646
% es.normE (V/m) @ t=4.3
2.1238580663928017
% es.EX (V/m) @ t=4.3
1.6114461705350749
% es.EY (V/m) @ t=4.3
-0.08468063978338236
% es.EZ (V/m) @ t=4.3
-1.3808850476761236
% es.tEX (V/m) @ t=4.3
1.6114461705350607
% es.tEY (V/m) @ t=4.3
0
% es.tEZ (V/m) @ t=4.3
-1.380885047676145
% es.Ex (V/m) @ t=4.3
1.6114461705350749
% es.Ey (V/m) @ t=4.3
-0.08468063978338236
% es.Ez (V/m) @ t=4.3
-1.3808850476761236
% es.tEx (V/m) @ t=4.3
1.6114461705350607
% es.tEy (V/m) @ t=4.3
0
% es.tEz (V/m) @ t=4.3
-1.380885047676145
% V (V) @ t=4.3
0.08115197039920855
% es.normE (V/m) @ t=4.4
2.144780902537604
% es.EX (V/m) @ t=4.4
1.6273220532422314
% es.EY (V/m) @ t=4.4
-0.0855147657992994
% es.EZ (V/m) @ t=4.4
-1.394487461310355
% es.tEX (V/m) @ t=4.4
1.6273220532421817
% es.tEY (V/m) @ t=4.4
0
% es.tEZ (V/m) @ t=4.4
-1.3944874613103764
% es.Ex (V/m) @ t=4.4
1.6273220532422314
% es.Ey (V/m) @ t=4.4
-0.0855147657992994
% es.Ez (V/m) @ t=4.4
-1.394487461310355
% es.tEx (V/m) @ t=4.4
1.6273220532421817
% es.tEy (V/m) @ t=4.4
0
% es.tEz (V/m) @ t=4.4
-1.3944874613103764
% V (V) @ t=4.4
0.08195042665869576
% es.normE (V/m) @ t=4.5
2.165161441534927
% es.EX (V/m) @ t=4.5
1.6427866172885714
% es.EY (V/m) @ t=4.5
-0.08632725588014623
% es.EZ (V/m) @ t=4.5
-1.4077371213615777
% es.tEX (V/m) @ t=4.5
1.6427866172885288
% es.tEY (V/m) @ t=4.5
0
% es.tEZ (V/m) @ t=4.5
-1.4077371213616345
% es.Ex (V/m) @ t=4.5
1.6427866172885714
% es.Ey (V/m) @ t=4.5
-0.08632725588014623
% es.Ez (V/m) @ t=4.5
-1.4077371213615777
% es.tEx (V/m) @ t=4.5
1.6427866172885288
% es.tEy (V/m) @ t=4.5
0
% es.tEz (V/m) @ t=4.5
-1.4077371213616345
% V (V) @ t=4.5
0.082728012689818
% es.normE (V/m) @ t=4.6
2.1849996833852376
% es.EX (V/m) @ t=4.6
1.6578398626740096
% es.EY (V/m) @ t=4.6
-0.08711811002582692
% es.EZ (V/m) @ t=4.6
-1.4206340278298768
% es.tEX (V/m) @ t=4.6
1.657839862673967
% es.tEY (V/m) @ t=4.6
0
% es.tEZ (V/m) @ t=4.6
-1.4206340278299407
% es.Ex (V/m) @ t=4.6
1.6578398626740096
% es.Ey (V/m) @ t=4.6
-0.08711811002582692
% es.Ez (V/m) @ t=4.6
-1.4206340278298768
% es.tEx (V/m) @ t=4.6
1.657839862673967
% es.tEy (V/m) @ t=4.6
0
% es.tEz (V/m) @ t=4.6
-1.4206340278299407
% V (V) @ t=4.6
0.08348472849257531
% es.normE (V/m) @ t=4.7
2.2040811389285513
% es.EX (V/m) @ t=4.7
1.6723185509565468
% es.EY (V/m) @ t=4.7
-0.08787882586160922
% es.EZ (V/m) @ t=4.7
-1.4330393026963222
% es.tEX (V/m) @ t=4.7
1.672318550956497
% es.tEY (V/m) @ t=4.7
0
% es.tEZ (V/m) @ t=4.7
-1.4330393026963577
% es.Ex (V/m) @ t=4.7
1.6723185509565468
% es.Ey (V/m) @ t=4.7
-0.08787882586160922
% es.Ez (V/m) @ t=4.7
-1.4330393026963222
% es.tEx (V/m) @ t=4.7
1.672318550956497
% es.tEy (V/m) @ t=4.7
0
% es.tEz (V/m) @ t=4.7
-1.4330393026963577
% V (V) @ t=4.7
0.08421290824609053
% es.normE (V/m) @ t=4.8
2.2221332629857344
% es.EX (V/m) @ t=4.8
1.686015259765064
% es.EY (V/m) @ t=4.8
-0.08859859966511596
% es.EZ (V/m) @ t=4.8
-1.4447764776754752
% es.tEX (V/m) @ t=4.8
1.6860152597650142
% es.tEY (V/m) @ t=4.8
0
% es.tEZ (V/m) @ t=4.8
-1.4447764776755676
% es.Ex (V/m) @ t=4.8
1.686015259765064
% es.Ey (V/m) @ t=4.8
-0.08859859966511596
% es.Ez (V/m) @ t=4.8
-1.4447764776754752
% es.tEx (V/m) @ t=4.8
1.6860152597650142
% es.tEy (V/m) @ t=4.8
0
% es.tEz (V/m) @ t=4.8
-1.4447764776755676
% V (V) @ t=4.8
0.08490281121330814
% es.normE (V/m) @ t=4.9
2.23947999363652
% es.EX (V/m) @ t=4.9
1.6991765243901469
% es.EY (V/m) @ t=4.9
-0.0892902723792961
% es.EZ (V/m) @ t=4.9
-1.4560552970674152
% es.tEX (V/m) @ t=4.9
1.6991765243900971
% es.tEY (V/m) @ t=4.9
0
% es.tEZ (V/m) @ t=4.9
-1.4560552970674223
% es.Ex (V/m) @ t=4.9
1.6991765243901469
% es.Ey (V/m) @ t=4.9
-0.0892902723792961
% es.Ez (V/m) @ t=4.9
-1.4560552970674152
% es.tEx (V/m) @ t=4.9
1.6991765243900971
% es.tEy (V/m) @ t=4.9
0
% es.tEz (V/m) @ t=4.9
-1.4560552970674223
% V (V) @ t=4.9
0.08556601490840218
% es.normE (V/m) @ t=5
2.256121330881112
% es.EX (V/m) @ t=5
1.7118023448318738
% es.EY (V/m) @ t=5
-0.08995384400386097
% es.EZ (V/m) @ t=5
-1.466875760871993
% es.tEX (V/m) @ t=5
1.7118023448318525
% es.tEY (V/m) @ t=5
0
% es.tEZ (V/m) @ t=5
-1.4668757608720284
% es.Ex (V/m) @ t=5
1.7118023448318738
% es.Ey (V/m) @ t=5
-0.08995384400386097
% es.Ez (V/m) @ t=5
-1.466875760871993
% es.tEx (V/m) @ t=5
1.7118023448318525
% es.tEy (V/m) @ t=5
0
% es.tEz (V/m) @ t=5
-1.4668757608720284
% V (V) @ t=5
0.08620251933137252
% es.normE (V/m) @ t=5.1
2.2720572747199292
% es.EX (V/m) @ t=5.1
1.7238927210901664
% es.EY (V/m) @ t=5.1
-0.09058931453895269
% es.EZ (V/m) @ t=5.1
-1.4772378690892864
% es.tEX (V/m) @ t=5.1
1.7238927210901167
% es.tEY (V/m) @ t=5.1
0
% es.tEZ (V/m) @ t=5.1
-1.4772378690892936
% es.Ex (V/m) @ t=5.1
1.7238927210901664
% es.Ey (V/m) @ t=5.1
-0.09058931453895269
% es.Ez (V/m) @ t=5.1
-1.4772378690892864
% es.tEx (V/m) @ t=5.1
1.7238927210901167
% es.tEy (V/m) @ t=5.1
0
% es.tEz (V/m) @ t=5.1
-1.4772378690892936
% V (V) @ t=5.1
0.0868123244822192
% es.normE (V/m) @ t=5.2
2.287287825153562
% es.EX (V/m) @ t=5.2
1.735447653165025
% es.EY (V/m) @ t=5.2
-0.0911966839845606
% es.EZ (V/m) @ t=5.2
-1.48714162171931
% es.tEX (V/m) @ t=5.2
1.7354476531650036
% es.tEY (V/m) @ t=5.2
0
% es.tEZ (V/m) @ t=5.2
-1.48714162171931
% es.Ex (V/m) @ t=5.2
1.735447653165025
% es.Ey (V/m) @ t=5.2
-0.0911966839845606
% es.Ez (V/m) @ t=5.2
-1.48714162171931
% es.tEx (V/m) @ t=5.2
1.7354476531650036
% es.tEy (V/m) @ t=5.2
0
% es.tEz (V/m) @ t=5.2
-1.48714162171931
% V (V) @ t=5.2
0.08739543036094227
% es.normE (V/m) @ t=5.3
2.3018129821827342
% es.EX (V/m) @ t=5.3
1.7464671410565202
% es.EY (V/m) @ t=5.3
-0.09177595234076641
% es.EZ (V/m) @ t=5.3
-1.49658701876195
% es.tEX (V/m) @ t=5.3
1.7464671410564563
% es.tEY (V/m) @ t=5.3
0