% Model:              1x1--2 - Copy1.mph
% Version:            COMSOL 6.1.0.252
% Date:               Mar 28 2023, 12:34
% Dimension:          0
% Nodes:              14017
% Expressions:        14017
% Description:        Electric field norm, Electric field, X component, Electric field, Y component, Electric field, Z component, Tangential electric field, X component, Tangential electric field, Y component, Tangential electric field, Z component, Electric field, x component, Electric field, y component, Electric field, z component, Tangential electric field, x component, Tangential electric field, y component, Tangential electric field, z component, Electric potential
% Length unit:        mm
% x
1.6599999999999997
% y
14.200000000000001
% z
1.3300000000000003
% es.normE (V/m) @ t=0
0.4972882542702763
% es.EX (V/m) @ t=0
0.342292613630216
% es.EY (V/m) @ t=0
-0.014204024425065576
% es.EZ (V/m) @ t=0
-0.36045751508257773
% es.tEX (V/m) @ t=0
0.34229261363021823
% es.tEY (V/m) @ t=0
0
% es.tEZ (V/m) @ t=0
-0.3604575150825755
% es.Ex (V/m) @ t=0
0.342292613630216
% es.Ey (V/m) @ t=0
-0.014204024425065576
% es.Ez (V/m) @ t=0
-0.36045751508257773
% es.tEx (V/m) @ t=0
0.34229261363021823
% es.tEy (V/m) @ t=0
0
% es.tEz (V/m) @ t=0
-0.3604575150825755
% V (V) @ t=0
0.0199413314267778
% es.normE (V/m) @ t=0.1
0.5257113584290461
% es.EX (V/m) @ t=0.1
0.3618567369084955
% es.EY (V/m) @ t=0.1
-0.015015872774337302
% es.EZ (V/m) @ t=0.1
-0.3810599137931905
% es.tEX (V/m) @ t=0.1
0.36185673690849596
% es.tEY (V/m) @ t=0.1
0
% es.tEZ (V/m) @ t=0.1
-0.38105991379319404
% es.Ex (V/m) @ t=0.1
0.3618567369084955
% es.Ey (V/m) @ t=0.1
-0.015015872774337302
% es.Ez (V/m) @ t=0.1
-0.3810599137931905
% es.tEx (V/m) @ t=0.1
0.36185673690849596
% es.tEy (V/m) @ t=0.1
0
% es.tEz (V/m) @ t=0.1
-0.38105991379319404
% V (V) @ t=0.1
0.02108110847062607
% es.normE (V/m) @ t=0.2
0.5617223584602583
% es.EX (V/m) @ t=0.2
0.3866436753481004
% es.EY (V/m) @ t=0.2
-0.016044463961766398
% es.EZ (V/m) @ t=0.2
-0.40716243869449364
% es.tEX (V/m) @ t=0.2
0.38664367534810484
% es.tEY (V/m) @ t=0.2
0
% es.tEZ (V/m) @ t=0.2
-0.4071624386945003
% es.Ex (V/m) @ t=0.2
0.3866436753481004
% es.Ey (V/m) @ t=0.2
-0.016044463961766398
% es.Ez (V/m) @ t=0.2
-0.40716243869449364
% es.tEx (V/m) @ t=0.2
0.38664367534810484
% es.tEy (V/m) @ t=0.2
0
% es.tEz (V/m) @ t=0.2
-0.4071624386945003
% V (V) @ t=0.2
0.022525221540289474
% es.normE (V/m) @ t=0.3
0.599152879236521
% es.EX (V/m) @ t=0.3
0.4124076013548801
% es.EY (V/m) @ t=0.3
-0.017113613435978947
% es.EZ (V/m) @ t=0.3
-0.43429398715304757
% es.tEX (V/m) @ t=0.3
0.41240760135488097
% es.tEY (V/m) @ t=0.3
0
% es.tEZ (V/m) @ t=0.3
-0.4342939871530507
% es.Ex (V/m) @ t=0.3
0.4124076013548801
% es.Ey (V/m) @ t=0.3
-0.017113613435978947
% es.Ez (V/m) @ t=0.3
-0.43429398715304757
% es.tEx (V/m) @ t=0.3
0.41240760135488097
% es.tEy (V/m) @ t=0.3
0
% es.tEz (V/m) @ t=0.3
-0.4342939871530507
% V (V) @ t=0.3
0.024026333904574735
% es.normE (V/m) @ t=0.4
0.6389390877850883
% es.EX (V/m) @ t=0.4
0.43979253758417114
% es.EY (V/m) @ t=0.4
-0.018250108545469046
% es.EZ (V/m) @ t=0.4
-0.463133474630149
% es.tEX (V/m) @ t=0.4
0.4397925375841756
% es.tEY (V/m) @ t=0.4
0
% es.tEZ (V/m) @ t=0.4
-0.4631334746301521
% es.Ex (V/m) @ t=0.4
0.43979253758417114
% es.Ey (V/m) @ t=0.4
-0.018250108545469046
% es.Ez (V/m) @ t=0.4
-0.463133474630149
% es.tEx (V/m) @ t=0.4
0.4397925375841756
% es.tEy (V/m) @ t=0.4
0
% es.tEz (V/m) @ t=0.4
-0.4631334746301521
% V (V) @ t=0.4
0.02562227548228309
% es.normE (V/m) @ t=0.5
0.6803086332979655
% es.EX (V/m) @ t=0.5
0.4682679466355739
% es.EY (V/m) @ t=0.5
-0.019431743400757595
% es.EZ (V/m) @ t=0.5
-0.49312004019493694
% es.tEX (V/m) @ t=0.5
0.4682679466355748
% es.tEY (V/m) @ t=0.5
0
% es.tEZ (V/m) @ t=0.5
-0.49312004019493294
% es.Ex (V/m) @ t=0.5
0.4682679466355739
% es.Ey (V/m) @ t=0.5
-0.019431743400757595
% es.Ez (V/m) @ t=0.5
-0.49312004019493694
% es.tEx (V/m) @ t=0.5
0.4682679466355748
% es.tEy (V/m) @ t=0.5
0
% es.tEz (V/m) @ t=0.5
-0.49312004019493294
% V (V) @ t=0.5
0.027281194850431675
% es.normE (V/m) @ t=0.6
0.7227470624901843
% es.EX (V/m) @ t=0.6
0.49747942653893196
% es.EY (V/m) @ t=0.6
-0.020643863257569506
% es.EZ (V/m) @ t=0.6
-0.5238810622827366
% es.tEX (V/m) @ t=0.6
0.4974794265389324
% es.tEY (V/m) @ t=0.6
0
% es.tEZ (V/m) @ t=0.6
-0.5238810622827401
% es.Ex (V/m) @ t=0.6
0.49747942653893196
% es.Ey (V/m) @ t=0.6
-0.020643863257569506
% es.Ez (V/m) @ t=0.6
-0.5238810622827366
% es.tEx (V/m) @ t=0.6
0.4974794265389324
% es.tEy (V/m) @ t=0.6
0
% es.tEz (V/m) @ t=0.6
-0.5238810622827401
% V (V) @ t=0.6
0.028982701520833314
% es.normE (V/m) @ t=0.7
0.7665857966321231
% es.EX (V/m) @ t=0.7
0.5276545761921749
% es.EY (V/m) @ t=0.7
-0.021896005074464653
% es.EZ (V/m) @ t=0.7
-0.5556572655723508
% es.tEX (V/m) @ t=0.7
0.5276545761921758
% es.tEY (V/m) @ t=0.7
0
% es.tEZ (V/m) @ t=0.7
-0.5556572655723468
% es.Ex (V/m) @ t=0.7
0.5276545761921749
% es.Ey (V/m) @ t=0.7
-0.021896005074464653
% es.Ez (V/m) @ t=0.7
-0.5556572655723508
% es.tEx (V/m) @ t=0.7
0.5276545761921758
% es.tEy (V/m) @ t=0.7
0
% es.tEz (V/m) @ t=0.7
-0.5556572655723468
% V (V) @ t=0.7
0.030740511792222078
% es.normE (V/m) @ t=0.8
0.8115357338452858
% es.EX (V/m) @ t=0.8
0.5585944398358516
% es.EY (V/m) @ t=0.8
-0.023179906062724243
% es.EZ (V/m) @ t=0.8
-0.5882390594368934
% es.tEX (V/m) @ t=0.8
0.5585944398358595
% es.tEY (V/m) @ t=0.8
0
% es.tEZ (V/m) @ t=0.8
-0.5882390594368898
% es.Ex (V/m) @ t=0.8
0.5585944398358516
% es.Ey (V/m) @ t=0.8
-0.023179906062724243
% es.Ez (V/m) @ t=0.8
-0.5882390594368934
% es.tEx (V/m) @ t=0.8
0.5585944398358595
% es.tEy (V/m) @ t=0.8
0
% es.tEz (V/m) @ t=0.8
-0.5882390594368898
% V (V) @ t=0.8
0.0325430014274599
% es.normE (V/m) @ t=0.9
0.8575639541854921
% es.EX (V/m) @ t=0.9
0.5902764617665168
% es.EY (V/m) @ t=0.9
-0.024494612003434058
% es.EZ (V/m) @ t=0.9
-0.6216024840566998
% es.tEX (V/m) @ t=0.9
0.5902764617665177
% es.tEY (V/m) @ t=0.9
0
% es.tEZ (V/m) @ t=0.9
-0.6216024840566954
% es.Ex (V/m) @ t=0.9
0.5902764617665168
% es.Ey (V/m) @ t=0.9
-0.024494612003434058
% es.Ez (V/m) @ t=0.9
-0.6216024840566998
% es.tEx (V/m) @ t=0.9
0.5902764617665177
% es.tEy (V/m) @ t=0.9
0
% es.tEz (V/m) @ t=0.9
-0.6216024840566954
% V (V) @ t=0.9
0.03438876612689883
% es.normE (V/m) @ t=1
0.9045688631670977
% es.EX (V/m) @ t=1
0.6226310326592062
% es.EY (V/m) @ t=1
-0.025837178074052503
% es.EZ (V/m) @ t=1
-0.6556735968531262
% es.tEX (V/m) @ t=1
0.6226310326592142
% es.tEY (V/m) @ t=1
0
% es.tEZ (V/m) @ t=1
-0.6556735968531147
% es.Ex (V/m) @ t=1
0.6226310326592062
% es.Ey (V/m) @ t=1
-0.025837178074052503
% es.Ez (V/m) @ t=1
-0.6556735968531262
% es.tEx (V/m) @ t=1
0.6226310326592142
% es.tEy (V/m) @ t=1
0
% es.tEz (V/m) @ t=1
-0.6556735968531147
% V (V) @ t=1
0.03627347207089415
% es.normE (V/m) @ t=1.1
0.9526098675068417
% es.EX (V/m) @ t=1.1
0.6556988561152242
% es.EY (V/m) @ t=1.1
-0.027209326240440257
% es.EZ (V/m) @ t=1.1
-0.6904956352694276
% es.tEX (V/m) @ t=1.1
0.6556988561152357
% es.tEY (V/m) @ t=1.1
0
% es.tEZ (V/m) @ t=1.1
-0.6904956352694311
% es.Ex (V/m) @ t=1.1
0.6556988561152242
% es.Ey (V/m) @ t=1.1
-0.027209326240440257
% es.Ez (V/m) @ t=1.1
-0.6904956352694276
% es.tEx (V/m) @ t=1.1
0.6556988561152357
% es.tEy (V/m) @ t=1.1
0
% es.tEz (V/m) @ t=1.1
-0.6904956352694311
% V (V) @ t=1.1
0.03819965343237426
% es.normE (V/m) @ t=1.2
1.0011954503856646
% es.EX (V/m) @ t=1.2
0.6891414406391805
% es.EY (V/m) @ t=1.2
-0.028597040249040417
% es.EZ (V/m) @ t=1.2
-0.7257124871157332
% es.tEX (V/m) @ t=1.2
0.6891414406391849
% es.tEY (V/m) @ t=1.2
0
% es.tEZ (V/m) @ t=1.2
-0.7257124871157288
% es.Ex (V/m) @ t=1.2
0.6891414406391805
% es.Ey (V/m) @ t=1.2
-0.028597040249040417
% es.Ez (V/m) @ t=1.2
-0.7257124871157332
% es.tEx (V/m) @ t=1.2
0.6891414406391849
% es.tEy (V/m) @ t=1.2
0
% es.tEz (V/m) @ t=1.2
-0.7257124871157288
% V (V) @ t=1.2
0.040147739316487574
% es.normE (V/m) @ t=1.3
1.049413557275001
% es.EX (V/m) @ t=1.3
0.7223306842228885
% es.EY (V/m) @ t=1.3
-0.029974311656224994
% es.EZ (V/m) @ t=1.3
-0.7606633535693703
% es.tEX (V/m) @ t=1.3
0.7223306842229
% es.tEY (V/m) @ t=1.3
0
% es.tEZ (V/m) @ t=1.3
-0.7606633535693765
% es.Ex (V/m) @ t=1.3
0.7223306842228885
% es.Ey (V/m) @ t=1.3
-0.029974311656224994
% es.Ez (V/m) @ t=1.3
-0.7606633535693703
% es.tEx (V/m) @ t=1.3
0.7223306842229
% es.tEy (V/m) @ t=1.3
0
% es.tEz (V/m) @ t=1.3
-0.7606633535693765
% V (V) @ t=1.3
0.04208141413325389
% es.normE (V/m) @ t=1.4
1.0978514485727862
% es.EX (V/m) @ t=1.4
0.7556710138207672
% es.EY (V/m) @ t=1.4
-0.03135788697063424
% es.EZ (V/m) @ t=1.4
-0.7957737146508395
% es.tEX (V/m) @ t=1.4
0.7556710138207716
% es.tEY (V/m) @ t=1.4
0
% es.tEZ (V/m) @ t=1.4
-0.7957737146508386
% es.Ex (V/m) @ t=1.4
0.7556710138207672
% es.Ey (V/m) @ t=1.4
-0.03135788697063424
% es.Ez (V/m) @ t=1.4
-0.7957737146508395
% es.tEx (V/m) @ t=1.4
0.7556710138207716
% es.tEy (V/m) @ t=1.4
0
% es.tEz (V/m) @ t=1.4
-0.7957737146508386
% V (V) @ t=1.4
0.044024061032642225
% es.normE (V/m) @ t=1.5
1.1465091242793775
% es.EX (V/m) @ t=1.5
0.7891624294328334
% es.EY (V/m) @ t=1.5
-0.032747766192111616
% es.EZ (V/m) @ t=1.5
-0.8310435703601584
% es.tEX (V/m) @ t=1.5
0.7891624294328317
% es.tEY (V/m) @ t=1.5
0
% es.tEZ (V/m) @ t=1.5
-0.831043570360154
% es.Ex (V/m) @ t=1.5
0.7891624294328334
% es.Ey (V/m) @ t=1.5
-0.032747766192111616
% es.Ez (V/m) @ t=1.5
-0.8310435703601584
% es.tEx (V/m) @ t=1.5
0.7891624294328317
% es.tEy (V/m) @ t=1.5
0
% es.tEz (V/m) @ t=1.5
-0.831043570360154
% V (V) @ t=1.5
0.04597568001465257
% es.normE (V/m) @ t=1.6
1.19472863106637
% es.EX (V/m) @ t=1.6
0.8223521281852504
% es.EY (V/m) @ t=1.6
-0.034125145988032735
% es.EZ (V/m) @ t=1.6
-0.8659959316129653
% es.tEX (V/m) @ t=1.6
0.8223521281852584
% es.tEY (V/m) @ t=1.6
0
% es.tEZ (V/m) @ t=1.6
-0.8659959316129431
% es.Ex (V/m) @ t=1.6
0.8223521281852504
% es.Ey (V/m) @ t=1.6
-0.034125145988032735
% es.Ez (V/m) @ t=1.6
-0.8659959316129653
% es.tEx (V/m) @ t=1.6
0.8223521281852584
% es.tEy (V/m) @ t=1.6
0
% es.tEz (V/m) @ t=1.6
-0.8659959316129431
% V (V) @ t=1.6
0.04790982501329214
% es.normE (V/m) @ t=1.7
1.2413604435508432
% es.EX (V/m) @ t=1.7
0.854449007770139
% es.EY (V/m) @ t=1.7
-0.03545717462353859
% es.EZ (V/m) @ t=1.7
-0.899797439816922
% es.tEX (V/m) @ t=1.7
0.8544490077701408
% es.tEY (V/m) @ t=1.7
0
% es.tEZ (V/m) @ t=1.7
-0.8997974398169184
% es.Ex (V/m) @ t=1.7
0.854449007770139
% es.Ey (V/m) @ t=1.7
-0.03545717462353859
% es.Ez (V/m) @ t=1.7
-0.899797439816922
% es.tEx (V/m) @ t=1.7
0.8544490077701408
% es.tEy (V/m) @ t=1.7
0
% es.tEz (V/m) @ t=1.7
-0.8997974398169184
% V (V) @ t=1.7
0.04978029149883704
% es.normE (V/m) @ t=1.8
1.2873495458245299
% es.EX (V/m) @ t=1.8
0.8861034053673578
% es.EY (V/m) @ t=1.8
-0.036770858345925195
% es.EZ (V/m) @ t=1.8
-0.933133169546287
% es.tEX (V/m) @ t=1.8
0.8861034053673738
% es.tEY (V/m) @ t=1.8
0
% es.tEZ (V/m) @ t=1.8
-0.9331331695462861
% es.Ex (V/m) @ t=1.8
0.8861034053673578
% es.Ey (V/m) @ t=1.8
-0.036770858345925195
% es.Ez (V/m) @ t=1.8
-0.933133169546287
% es.tEx (V/m) @ t=1.8
0.8861034053673738
% es.tEy (V/m) @ t=1.8
0
% es.tEz (V/m) @ t=1.8
-0.9331331695462861
% V (V) @ t=1.8
0.05162506257822384
% es.normE (V/m) @ t=1.9
1.3326959378876666
% es.EX (V/m) @ t=1.9
0.9173153209769609
% es.EY (V/m) @ t=1.9
-0.03806619715521786
% es.EZ (V/m) @ t=1.9
-0.9660031208010471
% es.tEX (V/m) @ t=1.9
0.9173153209769618
% es.tEY (V/m) @ t=1.9
0
% es.tEZ (V/m) @ t=1.9
-0.9660031208010462
% es.Ex (V/m) @ t=1.9
0.9173153209769609
% es.Ey (V/m) @ t=1.9
-0.03806619715521786
% es.Ez (V/m) @ t=1.9
-0.9660031208010471
% es.tEx (V/m) @ t=1.9
0.9173153209769618
% es.tEy (V/m) @ t=1.9
0
% es.tEz (V/m) @ t=1.9
-0.9660031208010462
% V (V) @ t=1.9
0.05344413825145255
% es.normE (V/m) @ t=2
1.3768550956906151
% es.EX (V/m) @ t=2
0.9477104709247497
% es.EY (V/m) @ t=2
-0.03932756841496121
% es.EZ (V/m) @ t=2
-0.9980121042308898
% es.tEX (V/m) @ t=2
0.9477104709247515
% es.tEY (V/m) @ t=2
0
% es.tEZ (V/m) @ t=2
-0.9980121042308783
% es.Ex (V/m) @ t=2
0.9477104709247497
% es.Ey (V/m) @ t=2
-0.03932756841496121
% es.Ez (V/m) @ t=2
-0.9980121042308898
% es.tEx (V/m) @ t=2
0.9477104709247515
% es.tEy (V/m) @ t=2
0
% es.tEz (V/m) @ t=2
-0.9980121042308783
% V (V) @ t=2
0.055215260304346064
% es.normE (V/m) @ t=2.1
1.4187673654073862
% es.EX (V/m) @ t=2.1
0.9765604922895248
% es.EY (V/m) @ t=2.1
-0.04052457018691613
% es.EZ (V/m) @ t=2.1
-1.0283910740838929
% es.tEX (V/m) @ t=2.1
0.9765604922895337
% es.tEY (V/m) @ t=2.1
0
% es.tEZ (V/m) @ t=2.1
-1.0283910740838849
% es.Ex (V/m) @ t=2.1
0.9765604922895248
% es.Ey (V/m) @ t=2.1
-0.04052457018691613
% es.Ez (V/m) @ t=2.1
-1.0283910740838929
% es.tEx (V/m) @ t=2.1
0.9765604922895337
% es.tEy (V/m) @ t=2.1
0
% es.tEz (V/m) @ t=2.1
-1.0283910740838849
% V (V) @ t=2.1
0.05689511384229605
% es.normE (V/m) @ t=2.2
1.4592803781060084
% es.EX (V/m) @ t=2.2
1.0044480121739747
% es.EY (V/m) @ t=2.2
-0.04168152138234493
% es.EZ (V/m) @ t=2.2
-1.0577552001953094
% es.tEX (V/m) @ t=2.2
1.0044480121739907
% es.tEY (V/m) @ t=2.2
0
% es.tEZ (V/m) @ t=2.2
-1.0577552001953014
% es.Ex (V/m) @ t=2.2
1.0044480121739747
% es.Ey (V/m) @ t=2.2
-0.04168152138234493
% es.Ez (V/m) @ t=2.2
-1.0577552001953094
% es.tEx (V/m) @ t=2.2
1.0044480121739907
% es.tEy (V/m) @ t=2.2
0
% es.tEz (V/m) @ t=2.2
-1.0577552001953014
% V (V) @ t=2.2
0.05851834702052095
% es.normE (V/m) @ t=2.3
1.4983941337905746
% es.EX (V/m) @ t=2.3
1.0313730305781483
% es.EY (V/m) @ t=2.3
-0.042798422001156355
% es.EZ (V/m) @ t=2.3
-1.0861044825652195
% es.tEX (V/m) @ t=2.3
1.03137303057815
% es.tEY (V/m) @ t=2.3
0
% es.tEZ (V/m) @ t=2.3
-1.0861044825651938
% es.Ex (V/m) @ t=2.3
1.0313730305781483
% es.Ey (V/m) @ t=2.3
-0.042798422001156355
% es.Ez (V/m) @ t=2.3
-1.0861044825652195
% es.tEx (V/m) @ t=2.3
1.03137303057815
% es.tEy (V/m) @ t=2.3
0
% es.tEz (V/m) @ t=2.3
-1.0861044825651938
% V (V) @ t=2.3
0.060084959839020756
% es.normE (V/m) @ t=2.4
1.535960180552282
% es.EX (V/m) @ t=2.4
1.0572325669612255
% es.EY (V/m) @ t=2.4
-0.04387113820022104
% es.EZ (V/m) @ t=2.4
-1.1133320703329233
% es.tEX (V/m) @ t=2.4
1.0572325669612272
% es.tEY (V/m) @ t=2.4
0
% es.tEZ (V/m) @ t=2.4
-1.1133320703329153
% es.Ex (V/m) @ t=2.4
1.0572325669612255
% es.Ey (V/m) @ t=2.4
-0.04387113820022104
% es.Ez (V/m) @ t=2.4
-1.1133320703329233
% es.tEx (V/m) @ t=2.4
1.0572325669612272
% es.tEy (V/m) @ t=2.4
0
% es.tEz (V/m) @ t=2.4
-1.1133320703329153
% V (V) @ t=2.4
0.06158964665743308
% es.normE (V/m) @ t=2.5
1.5716566481717331
% es.EX (V/m) @ t=2.5
1.0818033411505716
% es.EY (V/m) @ t=2.5
-0.044890707070697644
% es.EZ (V/m) @ t=2.5
-1.1392062917823793
% es.tEX (V/m) @ t=2.5
1.0818033411505734
% es.tEY (V/m) @ t=2.5
0
% es.tEZ (V/m) @ t=2.5
-1.1392062917823855
% es.Ex (V/m) @ t=2.5
1.0818033411505716
% es.Ey (V/m) @ t=2.5
-0.044890707070697644
% es.Ez (V/m) @ t=2.5
-1.1392062917823793
% es.tEx (V/m) @ t=2.5
1.0818033411505734
% es.tEy (V/m) @ t=2.5
0
% es.tEz (V/m) @ t=2.5
-1.1392062917823855
% V (V) @ t=2.5
0.06302090390151552
% es.normE (V/m) @ t=2.6
1.6057345751954302
% es.EX (V/m) @ t=2.6
1.1052594976550392
% es.EY (V/m) @ t=2.6
-0.045864119118441904
% es.EZ (V/m) @ t=2.6
-1.1639078362992787
% es.tEX (V/m) @ t=2.6
1.1052594976550694
% es.tEY (V/m) @ t=2.6
0
% es.tEZ (V/m) @ t=2.6
-1.1639078362992858
% es.Ex (V/m) @ t=2.6
1.1052594976550392
% es.Ey (V/m) @ t=2.6
-0.045864119118441904
% es.Ez (V/m) @ t=2.6
-1.1639078362992787
% es.tEx (V/m) @ t=2.6
1.1052594976550694
% es.tEy (V/m) @ t=2.6
0
% es.tEz (V/m) @ t=2.6
-1.1639078362992858
% V (V) @ t=2.6
0.06438770363655832
% es.normE (V/m) @ t=2.7
1.6381939616240822
% es.EX (V/m) @ t=2.7
1.1276010364747222
% es.EY (V/m) @ t=2.7
-0.046791374343490455
% es.EZ (V/m) @ t=2.7
-1.187436703883531
% es.tEX (V/m) @ t=2.7
1.1276010364747098
% es.tEY (V/m) @ t=2.7
0
% es.tEZ (V/m) @ t=2.7
-1.1874367038835363
% es.Ex (V/m) @ t=2.7
1.1276010364747222
% es.Ey (V/m) @ t=2.7
-0.046791374343490455
% es.Ez (V/m) @ t=2.7
-1.187436703883531
% es.tEx (V/m) @ t=2.7
1.1276010364747098
% es.tEy (V/m) @ t=2.7
0
% es.tEz (V/m) @ t=2.7
-1.1874367038835363
% V (V) @ t=2.7
0.06569004586256144
% es.normE (V/m) @ t=2.8
1.6691840526333808
% es.EX (V/m) @ t=2.8
1.148931092554351
% es.EY (V/m) @ t=2.8
-0.047676681421824796
% es.EZ (V/m) @ t=2.8
-1.209900690212244
% es.tEX (V/m) @ t=2.8
1.148931092554367
% es.tEY (V/m) @ t=2.8
0
% es.tEZ (V/m) @ t=2.8
-1.2099006902122493
% es.Ex (V/m) @ t=2.8
1.148931092554351
% es.Ey (V/m) @ t=2.8
-0.047676681421824796
% es.Ez (V/m) @ t=2.8
-1.209900690212244
% es.tEx (V/m) @ t=2.8
1.148931092554367
% es.tEy (V/m) @ t=2.8
0
% es.tEz (V/m) @ t=2.8
-1.2099006902122493
% V (V) @ t=2.8
0.06693358506301353
% es.normE (V/m) @ t=2.9
1.6990657159695552
% es.EX (V/m) @ t=2.9
1.1694990412948894
% es.EY (V/m) @ t=2.9
-0.04853021673244662
% es.EZ (V/m) @ t=2.9
-1.2315604401154552
% es.tEX (V/m) @ t=2.9
1.1694990412948982
% es.tEY (V/m) @ t=2.9
0
% es.tEZ (V/m) @ t=2.9
-1.2315604401154463
% es.Ex (V/m) @ t=2.9
1.1694990412948894
% es.Ey (V/m) @ t=2.9
-0.04853021673244662
% es.Ez (V/m) @ t=2.9
-1.2315604401154552
% es.tEx (V/m) @ t=2.9
1.1694990412948982
% es.tEy (V/m) @ t=2.9
0
% es.tEz (V/m) @ t=2.9
-1.2315604401154463
% V (V) @ t=2.9
0.0681319935105879
% es.normE (V/m) @ t=3
1.727564033729871
% es.EX (V/m) @ t=3
1.1891149023982095
% es.EY (V/m) @ t=3
-0.04934422766019142
% es.EZ (V/m) @ t=3
-1.2522173879674963
% es.tEX (V/m) @ t=3
1.1891149023982184
% es.tEY (V/m) @ t=3
0
% es.tEZ (V/m) @ t=3
-1.2522173879674874
% es.Ex (V/m) @ t=3
1.1891149023982095
% es.Ey (V/m) @ t=3
-0.04934422766019142
% es.Ez (V/m) @ t=3
-1.2522173879674963
% es.tEx (V/m) @ t=3
1.1891149023982184
% es.tEy (V/m) @ t=3
0
% es.tEz (V/m) @ t=3
-1.2522173879674874
% V (V) @ t=3
0.0692748553325514
% es.normE (V/m) @ t=3.1
1.7546790059142217
% es.EX (V/m) @ t=3.1
1.2077786758642706
% es.EY (V/m) @ t=3.1
-0.05011871420503722
% es.EZ (V/m) @ t=3.1
-1.2718715337682909
% es.tEX (V/m) @ t=3.1
1.2077786758642581
% es.tEY (V/m) @ t=3.1
0
% es.tEZ (V/m) @ t=3.1
-1.271871533768298
% es.Ex (V/m) @ t=3.1
1.2077786758642706
% es.Ey (V/m) @ t=3.1
-0.05011871420503722
% es.Ez (V/m) @ t=3.1
-1.2718715337682909
% es.tEx (V/m) @ t=3.1
1.2077786758642581
% es.tEy (V/m) @ t=3.1
0
% es.tEz (V/m) @ t=3.1
-1.271871533768298
% V (V) @ t=3.1
0.07036217052890409
% es.normE (V/m) @ t=3.2
1.7808256182100228
% es.EX (V/m) @ t=3.2
1.2257759410052635
% es.EY (V/m) @ t=3.2
-0.0508655379214622
% es.EZ (V/m) @ t=3.2
-1.2908237377650487
% es.tEX (V/m) @ t=3.2
1.2257759410052795
% es.tEY (V/m) @ t=3.2
0
% es.tEZ (V/m) @ t=3.2
-1.290823737765054
% es.Ex (V/m) @ t=3.2
1.2257759410052635
% es.Ey (V/m) @ t=3.2
-0.0508655379214622
% es.Ez (V/m) @ t=3.2
-1.2908237377650487
% es.tEx (V/m) @ t=3.2
1.2257759410052795
% es.tEy (V/m) @ t=3.2
0
% es.tEz (V/m) @ t=3.2
-1.290823737765054
% V (V) @ t=3.2
0.0714106312387825
% es.normE (V/m) @ t=3.3
1.807124683829532
% es.EX (V/m) @ t=3.3
1.2438780040998854
% es.EY (V/m) @ t=3.3
-0.05161673506344333
% es.EZ (V/m) @ t=3.3
-1.3098865777172701
% es.tEX (V/m) @ t=3.3
1.243878004099873
% es.tEY (V/m) @ t=3.3
0
% es.tEZ (V/m) @ t=3.3
-1.3098865777172612
% es.Ex (V/m) @ t=3.3
1.2438780040998854
% es.Ey (V/m) @ t=3.3
-0.05161673506344333
% es.Ez (V/m) @ t=3.3
-1.3098865777172701
% es.tEx (V/m) @ t=3.3
1.243878004099873
% es.tEy (V/m) @ t=3.3
0
% es.tEz (V/m) @ t=3.3
-1.3098865777172612
% V (V) @ t=3.3
0.07246532039070802
% es.normE (V/m) @ t=3.4
1.8327408382320034
% es.EX (V/m) @ t=3.4
1.2615099951267812
% es.EY (V/m) @ t=3.4
-0.05234842836917575
% es.EZ (V/m) @ t=3.4
-1.3284544231421158
% es.tEX (V/m) @ t=3.4
1.2615099951267972
% es.tEY (V/m) @ t=3.4
0
% es.tEZ (V/m) @ t=3.4
-1.3284544231421282
% es.Ex (V/m) @ t=3.4
1.2615099951267812
% es.Ey (V/m) @ t=3.4
-0.05234842836917575
% es.Ez (V/m) @ t=3.4
-1.3284544231421158
% es.tEx (V/m) @ t=3.4
1.2615099951267972
% es.tEy (V/m) @ t=3.4
0
% es.tEz (V/m) @ t=3.4
-1.3284544231421282
% V (V) @ t=3.4
0.07349263677489438
% es.normE (V/m) @ t=3.5
1.8576740814175932
% es.EX (V/m) @ t=3.5
1.2786719140860594
% es.EY (V/m) @ t=3.5
-0.05306061783858884
% es.EZ (V/m) @ t=3.5
-1.3465272740396976
% es.tEX (V/m) @ t=3.5
1.2786719140860683
% es.tEY (V/m) @ t=3.5
0
% es.tEZ (V/m) @ t=3.5
-1.3465272740396959
% es.Ex (V/m) @ t=3.5
1.2786719140860594
% es.Ey (V/m) @ t=3.5
-0.05306061783858884
% es.Ez (V/m) @ t=3.5
-1.3465272740396976
% es.tEx (V/m) @ t=3.5
1.2786719140860683
% es.tEy (V/m) @ t=3.5
0
% es.tEz (V/m) @ t=3.5
-1.3465272740396959
% V (V) @ t=3.5
0.07449258039134161
% es.normE (V/m) @ t=3.6
1.8819244133862376
% es.EX (V/m) @ t=3.6
1.295363760977617
% es.EY (V/m) @ t=3.6
-0.05375330347166751
% es.EZ (V/m) @ t=3.6
-1.364105130410021
% es.tEX (V/m) @ t=3.6
1.295363760977633
% es.tEY (V/m) @ t=3.6
0
% es.tEZ (V/m) @ t=3.6
-1.3641051304100138
% es.Ex (V/m) @ t=3.6
1.295363760977617
% es.Ey (V/m) @ t=3.6
-0.05375330347166751
% es.Ez (V/m) @ t=3.6
-1.364105130410021
% es.tEx (V/m) @ t=3.6
1.295363760977633
% es.tEy (V/m) @ t=3.6
0
% es.tEz (V/m) @ t=3.6
-1.3641051304100138
% V (V) @ t=3.6
0.07546515124004968
% es.normE (V/m) @ t=3.7
1.9054918341379543
% es.EX (V/m) @ t=3.7
1.3115855358015533
% es.EY (V/m) @ t=3.7
-0.05442648526837646
% es.EZ (V/m) @ t=3.7
-1.3811879922530128
% es.tEX (V/m) @ t=3.7
1.3115855358015693
% es.tEY (V/m) @ t=3.7
0
% es.tEZ (V/m) @ t=3.7
-1.3811879922530057
% es.Ex (V/m) @ t=3.7
1.3115855358015533
% es.Ey (V/m) @ t=3.7
-0.05442648526837646
% es.Ez (V/m) @ t=3.7
-1.3811879922530128
% es.tEx (V/m) @ t=3.7
1.3115855358015693
% es.tEy (V/m) @ t=3.7
0
% es.tEz (V/m) @ t=3.7
-1.3811879922530057
% V (V) @ t=3.7
0.07641034932101863
% es.normE (V/m) @ t=3.8
1.9283763436727543
% es.EX (V/m) @ t=3.8
1.3273372385577886
% es.EY (V/m) @ t=3.8
-0.05508016322881604
% es.EZ (V/m) @ t=3.8
-1.397775859568755
% es.tEX (V/m) @ t=3.8
1.3273372385577922
% es.tEY (V/m) @ t=3.8
0
% es.tEZ (V/m) @ t=3.8
-1.3977758595687604
% es.Ex (V/m) @ t=3.8
1.3273372385577886
% es.Ey (V/m) @ t=3.8
-0.05508016322881604
% es.Ez (V/m) @ t=3.8
-1.397775859568755
% es.tEx (V/m) @ t=3.8
1.3273372385577922
% es.tEy (V/m) @ t=3.8
0
% es.tEz (V/m) @ t=3.8
-1.3977758595687604
% V (V) @ t=3.8
0.0773281746342484
% es.normE (V/m) @ t=3.9
1.950577941990562
% es.EX (V/m) @ t=3.9
1.3426188692463317
% es.EY (V/m) @ t=3.9
-0.05571433735291431
% es.EZ (V/m) @ t=3.9
-1.4138687323571322
% es.tEX (V/m) @ t=3.9
1.3426188692463334
% es.tEY (V/m) @ t=3.9
0
% es.tEZ (V/m) @ t=3.9
-1.413868732357125
% es.Ex (V/m) @ t=3.9
1.3426188692463317
% es.Ey (V/m) @ t=3.9
-0.05571433735291431
% es.Ez (V/m) @ t=3.9
-1.4138687323571322
% es.tEx (V/m) @ t=3.9
1.3426188692463334
% es.tEy (V/m) @ t=3.9
0
% es.tEz (V/m) @ t=3.9
-1.413868732357125
% V (V) @ t=3.9
0.07821862717973904
% es.normE (V/m) @ t=4
1.972258063492555
% es.EX (V/m) @ t=4
1.3575417366780638
% es.EY (V/m) @ t=4
-0.056333593299816354
% es.EZ (V/m) @ t=4
-1.4295834457821766
% es.tEX (V/m) @ t=4
1.3575417366780869
% es.tEY (V/m) @ t=4
0
% es.tEZ (V/m) @ t=4
-1.429583445782189
% es.Ex (V/m) @ t=4
1.3575417366780638
% es.Ey (V/m) @ t=4
-0.056333593299816354
% es.Ez (V/m) @ t=4
-1.4295834457821766
% es.tEx (V/m) @ t=4
1.3575417366780869
% es.tEy (V/m) @ t=4
0
% es.tEz (V/m) @ t=4
-1.429583445782189
% V (V) @ t=4
0.07908802513118193
% es.normE (V/m) @ t=4.1
1.9938696528200834
% es.EX (V/m) @ t=4.1
1.372418145597452
% es.EY (V/m) @ t=4.1
-0.056950797284573085
% es.EZ (V/m) @ t=4.1
-1.4452478101558857
% es.tEX (V/m) @ t=4.1
1.3724181455974538
% es.tEY (V/m) @ t=4.1
0
% es.tEZ (V/m) @ t=4.1
-1.4452478101558768
% es.Ex (V/m) @ t=4.1
1.372418145597452
% es.Ey (V/m) @ t=4.1
-0.056950797284573085
% es.Ez (V/m) @ t=4.1
-1.4452478101558857
% es.tEx (V/m) @ t=4.1
1.3724181455974538
% es.tEy (V/m) @ t=4.1
0
% es.tEz (V/m) @ t=4.1
-1.4452478101558768
% V (V) @ t=4.1
0.0799540957071588
% es.normE (V/m) @ t=4.2
2.014961399566882
% es.EX (V/m) @ t=4.2
1.3869369180624815
% es.EY (V/m) @ t=4.2
-0.057553129513791434
% es.EZ (V/m) @ t=4.2
-1.460535197913094
% es.tEX (V/m) @ t=4.2
1.386936918062478
% es.tEY (V/m) @ t=4.2
0
% es.tEZ (V/m) @ t=4.2
-1.460535197913071
% es.Ex (V/m) @ t=4.2
1.3869369180624815
% es.Ey (V/m) @ t=4.2
-0.057553129513791434
% es.Ez (V/m) @ t=4.2
-1.460535197913094
% es.tEx (V/m) @ t=4.2
1.386936918062478
% es.tEy (V/m) @ t=4.2
0
% es.tEz (V/m) @ t=4.2
-1.460535197913071
% V (V) @ t=4.2
0.08079917564928783
% es.normE (V/m) @ t=4.3
2.035533303733508
% es.EX (V/m) @ t=4.3
1.4010980540732003
% es.EY (V/m) @ t=4.3
-0.058140589987315305
% es.EZ (V/m) @ t=4.3
-1.4754456090539119
% es.tEX (V/m) @ t=4.3
1.4010980540732092
% es.tEY (V/m) @ t=4.3
0
% es.tEZ (V/m) @ t=4.3
-1.475445609053903
% es.Ex (V/m) @ t=4.3
1.4010980540732003
% es.Ey (V/m) @ t=4.3
-0.058140589987315305
% es.Ez (V/m) @ t=4.3
-1.4754456090539119
% es.tEx (V/m) @ t=4.3
1.4010980540732092
% es.tEy (V/m) @ t=4.3
0
% es.tEz (V/m) @ t=4.3
-1.475445609053903
% V (V) @ t=4.3
0.08162326495756903
% es.normE (V/m) @ t=4.4
2.0555853653203706
% es.EX (V/m) @ t=4.4
1.414901553629523
% es.EY (V/m) @ t=4.4
-0.058713178705294355
% es.EZ (V/m) @ t=4.4
-1.489979043578252
% es.tEX (V/m) @ t=4.4
1.4149015536295249
% es.tEY (V/m) @ t=4.4
0
% es.tEZ (V/m) @ t=4.4
-1.4899790435782503
% es.Ex (V/m) @ t=4.4
1.414901553629523
% es.Ey (V/m) @ t=4.4
-0.058713178705294355
% es.Ez (V/m) @ t=4.4
-1.489979043578252
% es.tEx (V/m) @ t=4.4
1.4149015536295249
% es.tEy (V/m) @ t=4.4
0
% es.tEz (V/m) @ t=4.4
-1.4899790435782503
% V (V) @ t=4.4
0.08242636363200237
% es.normE (V/m) @ t=4.5
2.075117584328172
% es.EX (V/m) @ t=4.5
1.4283474167315724
% es.EY (V/m) @ t=4.5
-0.05927089566764221
% es.EZ (V/m) @ t=4.5
-1.5041355014861484
% es.tEX (V/m) @ t=4.5
1.4283474167315742
% es.tEY (V/m) @ t=4.5
0
% es.tEZ (V/m) @ t=4.5
-1.5041355014861182
% es.Ex (V/m) @ t=4.5
1.4283474167315724
% es.Ey (V/m) @ t=4.5
-0.05927089566764221
% es.Ez (V/m) @ t=4.5
-1.5041355014861484
% es.tEx (V/m) @ t=4.5
1.4283474167315742
% es.tEy (V/m) @ t=4.5
0
% es.tEz (V/m) @ t=4.5
-1.5041355014861182
% V (V) @ t=4.5
0.08320847167258788
% es.normE (V/m) @ t=4.6
2.094129960757471
% es.EX (V/m) @ t=4.6
1.4414356433792488
% es.EY (V/m) @ t=4.6
-0.05981374087438196
% es.EZ (V/m) @ t=4.6
-1.517914982777544
% es.tEX (V/m) @ t=4.6
1.4414356433792648
% es.tEY (V/m) @ t=4.6
0
% es.tEZ (V/m) @ t=4.6
-1.5179149827775564
% es.Ex (V/m) @ t=4.6
1.4414356433792488
% es.Ey (V/m) @ t=4.6
-0.05981374087438196
% es.Ez (V/m) @ t=4.6
-1.517914982777544
% es.tEx (V/m) @ t=4.6
1.4414356433792648
% es.tEy (V/m) @ t=4.6
0
% es.tEz (V/m) @ t=4.6
-1.5179149827775564
% V (V) @ t=4.6
0.08396958907932554
% es.normE (V/m) @ t=4.7
2.112417272707058
% es.EX (V/m) @ t=4.7
1.4540243356384934
% es.EY (V/m) @ t=4.7
-0.060335936571531246
% es.EZ (V/m) @ t=4.7
-1.5311693375195965
% es.tEX (V/m) @ t=4.7
1.4540243356385023
% es.tEY (V/m) @ t=4.7
0
% es.tEZ (V/m) @ t=4.7
-1.5311693375195965
% es.Ex (V/m) @ t=4.7
1.4540243356384934
% es.Ey (V/m) @ t=4.7
-0.060335936571531246
% es.Ez (V/m) @ t=4.7
-1.5311693375195965
% es.tEx (V/m) @ t=4.7
1.4540243356385023
% es.tEy (V/m) @ t=4.7
0
% es.tEz (V/m) @ t=4.7
-1.5311693375195965
% V (V) @ t=4.7
0.08470200267172616
% es.normE (V/m) @ t=4.8
2.129718750635111
% es.EX (V/m) @ t=4.8
1.4659331879050939
% es.EY (V/m) @ t=4.8
-0.06083014113411167
% es.EZ (V/m) @ t=4.8
-1.5437103158736711
% es.tEX (V/m) @ t=4.8
1.4659331879051027
% es.tEY (V/m) @ t=4.8
0
% es.tEZ (V/m) @ t=4.8
-1.5437103158736978
% es.Ex (V/m) @ t=4.8
1.4659331879050939
% es.Ey (V/m) @ t=4.8
-0.06083014113411167
% es.Ez (V/m) @ t=4.8
-1.5437103158736711
% es.tEx (V/m) @ t=4.8
1.4659331879051027
% es.tEy (V/m) @ t=4.8
0
% es.tEz (V/m) @ t=4.8
-1.5437103158736978
% V (V) @ t=4.8
0.08539591153424377
% es.normE (V/m) @ t=4.9
2.1463443364921906
% es.EX (V/m) @ t=4.9
1.4773765053878112
% es.EY (V/m) @ t=4.9
-0.061305080572119586
% es.EZ (V/m) @ t=4.9
-1.5557616652997481
% es.tEX (V/m) @ t=4.9
1.4773765053878147
% es.tEY (V/m) @ t=4.9
0
% es.tEZ (V/m) @ t=4.9
-1.5557616652997321
% es.Ex (V/m) @ t=4.9
1.4773765053878112
% es.Ey (V/m) @ t=4.9
-0.061305080572119586
% es.Ez (V/m) @ t=4.9
-1.5557616652997481
% es.tEx (V/m) @ t=4.9
1.4773765053878147
% es.tEy (V/m) @ t=4.9
0
% es.tEz (V/m) @ t=4.9
-1.5557616652997321
% V (V) @ t=4.9
0.08606296470719275
% es.normE (V/m) @ t=5
2.162294030278628
% es.EX (V/m) @ t=5
1.488354288086656
% es.EY (V/m) @ t=5
-0.06176075488519994
% es.EZ (V/m) @ t=5
-1.5673233857977955
% es.tEX (V/m) @ t=5
1.4883542880866667
% es.tEY (V/m) @ t=5
0
% es.tEZ (V/m) @ t=5
-1.5673233857977866
% es.Ex (V/m) @ t=5
1.488354288086656
% es.Ey (V/m) @ t=5
-0.06176075488519994
% es.Ez (V/m) @ t=5
-1.5673233857977955
% es.tEx (V/m) @ t=5
1.4883542880866667
% es.tEy (V/m) @ t=5
0
% es.tEz (V/m) @ t=5
-1.5673233857977866
% V (V) @ t=5
0.08670316219057303
% es.normE (V/m) @ t=5.1
2.177567831994908
% es.EX (V/m) @ t=5.1
1.4988665360015894
% es.EY (V/m) @ t=5.1
-0.06219716407363651
% es.EZ (V/m) @ t=5.1
-1.578395477367696
% es.tEX (V/m) @ t=5.1
1.4988665360016071
% es.tEY (V/m) @ t=5.1
0
% es.tEZ (V/m) @ t=5.1
-1.5783954773676943
% es.Ex (V/m) @ t=5.1
1.4988665360015894
% es.Ey (V/m) @ t=5.1
-0.06219716407363651
% es.Ez (V/m) @ t=5.1
-1.578395477367696
% es.tEx (V/m) @ t=5.1
1.4988665360016071
% es.tEy (V/m) @ t=5.1
0
% es.tEz (V/m) @ t=5.1
-1.5783954773676943
% V (V) @ t=5.1
0.08731650398438462
% es.normE (V/m) @ t=5.2
2.1921657416420395
% es.EX (V/m) @ t=5.2
1.5089132491326716
% es.EY (V/m) @ t=5.2
-0.06261430813731605
% es.EZ (V/m) @ t=5.2
-1.5889779400096664
% es.tEX (V/m) @ t=5.2
1.5089132491326662
% es.tEY (V/m) @ t=5.2
0
% es.tEZ (V/m) @ t=5.2
-1.5889779400096433
% es.Ex (V/m) @ t=5.2
1.5089132491326716
% es.Ey (V/m) @ t=5.2
-0.06261430813731605
% es.Ez (V/m) @ t=5.2
-1.5889779400096664
% es.tEx (V/m) @ t=5.2
1.5089132491326662
% es.tEy (V/m) @ t=5.2
0
% es.tEz (V/m) @ t=5.2
-1.5889779400096433
% V (V) @ t=5.2
0.08790299008862755
% es.normE (V/m) @ t=5.3
2.206087759220874
% es.EX (V/m) @ t=5.3
1.5184944274798724
% es.EY (V/m) @ t=5.3
-0.06301218707634515