% Model:              1 neuron.mph
% Version:            COMSOL 6.1.0.252
% Date:               Mar 22 2023, 19:12
% Dimension:          0
% Nodes:              14017
% Expressions:        14017
% Description:        Electric field norm, Electric field, X component, Electric field, Y component, Electric field, Z component, Tangential electric field, X component, Tangential electric field, Y component, Tangential electric field, Z component, Electric field, x component, Electric field, y component, Electric field, z component, Tangential electric field, x component, Tangential electric field, y component, Tangential electric field, z component, Electric potential
% Length unit:        mm
% x
2
% y
12.2
% z
1.33
% es.normE (V/m) @ t=0
2.360106946381217
% es.EX (V/m) @ t=0
-2.170772062766698
% es.EY (V/m) @ t=0
0.1693350285279902
% es.EZ (V/m) @ t=0
0.9078600225887309
% es.tEX (V/m) @ t=0
-2.1707720627666873
% es.tEY (V/m) @ t=0
0
% es.tEZ (V/m) @ t=0
0.9078600225887214
% es.Ex (V/m) @ t=0
-2.170772062766698
% es.Ey (V/m) @ t=0
0.1693350285279902
% es.Ez (V/m) @ t=0
0.9078600225887309
% es.tEx (V/m) @ t=0
-2.1707720627666873
% es.tEy (V/m) @ t=0
0
% es.tEz (V/m) @ t=0
0.9078600225887214
% V (V) @ t=0
0.013176951325640819
% es.normE (V/m) @ t=0.02
2.0384453060847214
% es.EX (V/m) @ t=0.02
-1.8749150875090377
% es.EY (V/m) @ t=0.02
0.14625616634550143
% es.EZ (V/m) @ t=0.02
0.7841267551501607
% es.tEX (V/m) @ t=0.02
-1.8749150875090326
% es.tEY (V/m) @ t=0.02
0
% es.tEZ (V/m) @ t=0.02
0.7841267551501616
% es.Ex (V/m) @ t=0.02
-1.8749150875090377
% es.Ey (V/m) @ t=0.02
0.14625616634550143
% es.Ez (V/m) @ t=0.02
0.7841267551501607
% es.tEx (V/m) @ t=0.02
-1.8749150875090326
% es.tEy (V/m) @ t=0.02
0
% es.tEz (V/m) @ t=0.02
0.7841267551501616
% V (V) @ t=0.02
0.01138104975185474
% es.normE (V/m) @ t=0.04
2.057194090623746
% es.EX (V/m) @ t=0.04
-1.8921597881106138
% es.EY (V/m) @ t=0.04
0.14760137064607104
% es.EZ (V/m) @ t=0.04
0.791338831705162
% es.tEX (V/m) @ t=0.04
-1.892159788110602
% es.tEY (V/m) @ t=0.04
0
% es.tEZ (V/m) @ t=0.04
0.7913388317051648
% es.Ex (V/m) @ t=0.04
-1.8921597881106138
% es.Ey (V/m) @ t=0.04
0.14760137064607104
% es.Ez (V/m) @ t=0.04
0.791338831705162
% es.tEx (V/m) @ t=0.04
-1.892159788110602
% es.tEy (V/m) @ t=0.04
0
% es.tEz (V/m) @ t=0.04
0.7913388317051648
% V (V) @ t=0.04
0.011485727983039986
% es.normE (V/m) @ t=0.06
2.0760836452410265
% es.EX (V/m) @ t=0.06
-1.9095339658212045
% es.EY (V/m) @ t=0.06
0.14895667495067066
% es.EZ (V/m) @ t=0.06
0.798605058081796
% es.tEX (V/m) @ t=0.06
-1.9095339658211934
% es.tEY (V/m) @ t=0.06
0
% es.tEZ (V/m) @ t=0.06
0.7986050580817938
% es.Ex (V/m) @ t=0.06
-1.9095339658212045
% es.Ey (V/m) @ t=0.06
0.14895667495067066
% es.Ez (V/m) @ t=0.06
0.798605058081796
% es.tEx (V/m) @ t=0.06
-1.9095339658211934
% es.tEy (V/m) @ t=0.06
0
% es.tEz (V/m) @ t=0.06
0.7986050580817938
% V (V) @ t=0.06
0.011591192164483897
% es.normE (V/m) @ t=0.08
2.0953262495187905
% es.EX (V/m) @ t=0.08
-1.9272328704793482
% es.EY (V/m) @ t=0.08
0.1503373102114589
% es.EZ (V/m) @ t=0.08
0.8060070917369008
% es.tEX (V/m) @ t=0.08
-1.9272328704793456
% es.tEY (V/m) @ t=0.08
0
% es.tEZ (V/m) @ t=0.08
0.8060070917368982
% es.Ex (V/m) @ t=0.08
-1.9272328704793482
% es.Ey (V/m) @ t=0.08
0.1503373102114589
% es.Ez (V/m) @ t=0.08
0.8060070917369008
% es.tEx (V/m) @ t=0.08
-1.9272328704793456
% es.tEy (V/m) @ t=0.08
0
% es.tEz (V/m) @ t=0.08
0.8060070917368982
% V (V) @ t=0.08
0.011698627492298866
% es.normE (V/m) @ t=0.1
2.1146791510753773
% es.EX (V/m) @ t=0.1
-1.9450332240345933
% es.EY (V/m) @ t=0.1
0.1517258591904449
% es.EZ (V/m) @ t=0.1
0.8134515533417644
% es.tEX (V/m) @ t=0.1
-1.9450332240345887
% es.tEY (V/m) @ t=0.1
0
% es.tEZ (V/m) @ t=0.1
0.8134515533417641
% es.Ex (V/m) @ t=0.1
-1.9450332240345933
% es.Ey (V/m) @ t=0.1
0.1517258591904449
% es.Ez (V/m) @ t=0.1
0.8134515533417644
% es.tEx (V/m) @ t=0.1
-1.9450332240345887
% es.tEy (V/m) @ t=0.1
0
% es.tEz (V/m) @ t=0.1
0.8134515533417641
% V (V) @ t=0.1
0.011806678631726833
% es.normE (V/m) @ t=0.12
2.134032052631963
% es.EX (V/m) @ t=0.12
-1.9628335775898422
% es.EY (V/m) @ t=0.12
0.153114408169438
% es.EZ (V/m) @ t=0.12
0.8208960149466175
% es.tEX (V/m) @ t=0.12
-1.9628335775898336
% es.tEY (V/m) @ t=0.12
0
% es.tEZ (V/m) @ t=0.12
0.8208960149466193
% es.Ex (V/m) @ t=0.12
-1.9628335775898422
% es.Ey (V/m) @ t=0.12
0.153114408169438
% es.Ez (V/m) @ t=0.12
0.8208960149466175
% es.tEx (V/m) @ t=0.12
-1.9628335775898336
% es.tEy (V/m) @ t=0.12
0
% es.tEz (V/m) @ t=0.12
0.8208960149466193
% V (V) @ t=0.12
0.011914729771154802
% es.normE (V/m) @ t=0.14
2.153906291272905
% es.EX (V/m) @ t=0.14
-1.981113444987096
% es.EY (V/m) @ t=0.14
0.1545403625135756
% es.EZ (V/m) @ t=0.14
0.8285410188049854
% es.tEX (V/m) @ t=0.14
-1.981113444987093
% es.tEY (V/m) @ t=0.14
0
% es.tEZ (V/m) @ t=0.14
0.8285410188049802
% es.Ex (V/m) @ t=0.14
-1.981113444987096
% es.Ey (V/m) @ t=0.14
0.1545403625135756
% es.Ez (V/m) @ t=0.14
0.8285410188049854
% es.tEx (V/m) @ t=0.14
-1.981113444987093
% es.tEy (V/m) @ t=0.14
0
% es.tEz (V/m) @ t=0.14
0.8285410188049802
% V (V) @ t=0.14
0.012025691639408535
% es.normE (V/m) @ t=0.16
2.174236633824415
% es.EX (V/m) @ t=0.16
-1.9998128262556547
% es.EY (V/m) @ t=0.16
0.15599904181404145
% es.EZ (V/m) @ t=0.16
0.8363614717323008
% es.tEX (V/m) @ t=0.16
-1.9998128262556563
% es.tEY (V/m) @ t=0.16
0
% es.tEZ (V/m) @ t=0.16
0.8363614717323031
% es.Ex (V/m) @ t=0.16
-1.9998128262556547
% es.Ey (V/m) @ t=0.16
0.15599904181404145
% es.Ez (V/m) @ t=0.16
0.8363614717323008
% es.tEx (V/m) @ t=0.16
-1.9998128262556563
% es.tEy (V/m) @ t=0.16
0
% es.tEz (V/m) @ t=0.16
0.8363614717323031
% V (V) @ t=0.16
0.012139200026680074
% es.normE (V/m) @ t=0.18
2.194566976375934
% es.EX (V/m) @ t=0.18
-2.0185122075242194
% es.EY (V/m) @ t=0.18
0.15745772111449852
% es.EZ (V/m) @ t=0.18
0.844181924659625
% es.tEX (V/m) @ t=0.18
-2.0185122075242106
% es.tEY (V/m) @ t=0.18
0
% es.tEZ (V/m) @ t=0.18
0.8441819246596332
% es.Ex (V/m) @ t=0.18
-2.0185122075242194
% es.Ey (V/m) @ t=0.18
0.15745772111449852
% es.Ez (V/m) @ t=0.18
0.844181924659625
% es.tEx (V/m) @ t=0.18
-2.0185122075242106
% es.tEy (V/m) @ t=0.18
0
% es.tEz (V/m) @ t=0.18
0.8441819246596332
% V (V) @ t=0.18
0.012252708413951612
% es.normE (V/m) @ t=0.2
2.2148973189274344
% es.EX (V/m) @ t=0.2
-2.03721158879277
% es.EY (V/m) @ t=0.2
0.15891640041493438
% es.EZ (V/m) @ t=0.2
0.852002377586942
% es.tEX (V/m) @ t=0.2
-2.037211588792765
% es.tEY (V/m) @ t=0.2
0
% es.tEZ (V/m) @ t=0.2
0.852002377586949
% es.Ex (V/m) @ t=0.2
-2.03721158879277
% es.Ey (V/m) @ t=0.2
0.15891640041493438
% es.Ez (V/m) @ t=0.2
0.852002377586942
% es.tEx (V/m) @ t=0.2
-2.037211588792765
% es.tEy (V/m) @ t=0.2
0
% es.tEz (V/m) @ t=0.2
0.852002377586949
% V (V) @ t=0.2
0.012366216801223151
% es.normE (V/m) @ t=0.22
2.2352276614789517
% es.EX (V/m) @ t=0.22
-2.055910970061336
% es.EY (V/m) @ t=0.22
0.16037507971541443
% es.EZ (V/m) @ t=0.22
0.8598228305142573
% es.tEX (V/m) @ t=0.22
-2.05591097006133
% es.tEY (V/m) @ t=0.22
0
% es.tEZ (V/m) @ t=0.22
0.8598228305142577
% es.Ex (V/m) @ t=0.22
-2.055910970061336
% es.Ey (V/m) @ t=0.22
0.16037507971541443
% es.Ez (V/m) @ t=0.22
0.8598228305142573
% es.tEx (V/m) @ t=0.22
-2.05591097006133
% es.tEy (V/m) @ t=0.22
0
% es.tEz (V/m) @ t=0.22
0.8598228305142577
% V (V) @ t=0.22
0.01247972518849469
% es.normE (V/m) @ t=0.24
2.2555580040304486
% es.EX (V/m) @ t=0.24
-2.0746103513298877
% es.EY (V/m) @ t=0.24
0.16183375901586616
% es.EZ (V/m) @ t=0.24
0.8676432834415583
% es.tEX (V/m) @ t=0.24
-2.0746103513298806
% es.tEY (V/m) @ t=0.24
0
% es.tEZ (V/m) @ t=0.24
0.8676432834415593
% es.Ex (V/m) @ t=0.24
-2.0746103513298877
% es.Ey (V/m) @ t=0.24
0.16183375901586616
% es.Ez (V/m) @ t=0.24
0.8676432834415583
% es.tEx (V/m) @ t=0.24
-2.0746103513298806
% es.tEy (V/m) @ t=0.24
0
% es.tEz (V/m) @ t=0.24
0.8676432834415593
% V (V) @ t=0.24
0.012593233575766227
% es.normE (V/m) @ t=0.26
2.276054778869658
% es.EX (V/m) @ t=0.26
-2.0934628132431135
% es.EY (V/m) @ t=0.26
0.16330437961998645
% es.EZ (V/m) @ t=0.26
0.8755277575759793
% es.tEX (V/m) @ t=0.26
-2.0934628132430966
% es.tEY (V/m) @ t=0.26
0
% es.tEZ (V/m) @ t=0.26
0.8755277575759841
% es.Ex (V/m) @ t=0.26
-2.0934628132431135
% es.Ey (V/m) @ t=0.26
0.16330437961998645
% es.Ez (V/m) @ t=0.26
0.8755277575759793
% es.tEx (V/m) @ t=0.26
-2.0934628132430966
% es.tEy (V/m) @ t=0.26
0
% es.tEz (V/m) @ t=0.26
0.8755277575759841
% V (V) @ t=0.26
0.012707671193510541
% es.normE (V/m) @ t=0.28
2.2985693443809776
% es.EX (V/m) @ t=0.28
-2.114171193266659
% es.EY (V/m) @ t=0.28
0.16491977412301828
% es.EZ (V/m) @ t=0.28
0.8841884115989386
% es.tEX (V/m) @ t=0.28
-2.1141711932666514
% es.tEY (V/m) @ t=0.28
0
% es.tEZ (V/m) @ t=0.28
0.8841884115989416
% es.Ex (V/m) @ t=0.28
-2.114171193266659
% es.Ey (V/m) @ t=0.28
0.16491977412301828
% es.Ez (V/m) @ t=0.28
0.8841884115989386
% es.tEx (V/m) @ t=0.28
-2.1141711932666514
% es.tEy (V/m) @ t=0.28
0
% es.tEz (V/m) @ t=0.28
0.8841884115989416
% V (V) @ t=0.28
0.012833374609532934
% es.normE (V/m) @ t=0.3
2.321083909892293
% es.EX (V/m) @ t=0.3
-2.1348795732902097
% es.EY (V/m) @ t=0.3
0.16653516862600226
% es.EZ (V/m) @ t=0.3
0.8928490656218849
% es.tEX (V/m) @ t=0.3
-2.134879573290201
% es.tEY (V/m) @ t=0.3
0
% es.tEZ (V/m) @ t=0.3
0.8928490656218813
% es.Ex (V/m) @ t=0.3
-2.1348795732902097
% es.Ey (V/m) @ t=0.3
0.16653516862600226
% es.Ez (V/m) @ t=0.3
0.8928490656218849
% es.tEx (V/m) @ t=0.3
-2.134879573290201
% es.tEy (V/m) @ t=0.3
0
% es.tEz (V/m) @ t=0.3
0.8928490656218813
% V (V) @ t=0.3
0.012959078025555328
% es.normE (V/m) @ t=0.32
2.3435984754036134
% es.EX (V/m) @ t=0.32
-2.1555879533137565
% es.EY (V/m) @ t=0.32
0.16815056312899845
% es.EZ (V/m) @ t=0.32
0.9015097196448494
% es.tEX (V/m) @ t=0.32
-2.155587953313743
% es.tEY (V/m) @ t=0.32
0
% es.tEZ (V/m) @ t=0.32
0.9015097196448494
% es.Ex (V/m) @ t=0.32
-2.1555879533137565
% es.Ey (V/m) @ t=0.32
0.16815056312899845
% es.Ez (V/m) @ t=0.32
0.9015097196448494
% es.tEx (V/m) @ t=0.32
-2.155587953313743
% es.tEy (V/m) @ t=0.32
0
% es.tEz (V/m) @ t=0.32
0.9015097196448494
% V (V) @ t=0.32
0.013084781441577717
% es.normE (V/m) @ t=0.34
2.3661130409149207
% es.EX (V/m) @ t=0.34
-2.1762963333372998
% es.EY (V/m) @ t=0.34
0.1697659576319931
% es.EZ (V/m) @ t=0.34
0.9101703736677887
% es.tEX (V/m) @ t=0.34
-2.1762963333372873
% es.tEY (V/m) @ t=0.34
0
% es.tEZ (V/m) @ t=0.34
0.910170373667782
% es.Ex (V/m) @ t=0.34
-2.1762963333372998
% es.Ey (V/m) @ t=0.34
0.1697659576319931
% es.Ez (V/m) @ t=0.34
0.9101703736677887
% es.tEx (V/m) @ t=0.34
-2.1762963333372873
% es.tEy (V/m) @ t=0.34
0
% es.tEz (V/m) @ t=0.34
0.910170373667782
% V (V) @ t=0.34
0.01321048485760011
% es.normE (V/m) @ t=0.36
2.388627606426251
% es.EX (V/m) @ t=0.36
-2.1970047133608572
% es.EY (V/m) @ t=0.36
0.1713813521350035
% es.EZ (V/m) @ t=0.36
0.9188310276907533
% es.tEX (V/m) @ t=0.36
-2.1970047133608457
% es.tEY (V/m) @ t=0.36
0
% es.tEZ (V/m) @ t=0.36
0.9188310276907501
% es.Ex (V/m) @ t=0.36
-2.1970047133608572
% es.Ey (V/m) @ t=0.36
0.1713813521350035
% es.Ez (V/m) @ t=0.36
0.9188310276907533
% es.tEx (V/m) @ t=0.36
-2.1970047133608457
% es.tEy (V/m) @ t=0.36
0
% es.tEz (V/m) @ t=0.36
0.9188310276907501
% V (V) @ t=0.36
0.013336188273622504
% es.normE (V/m) @ t=0.38
2.4111421719375556
% es.EX (V/m) @ t=0.38
-2.2177130933843925
% es.EY (V/m) @ t=0.38
0.17299674663799092
% es.EZ (V/m) @ t=0.38
0.9274916817137052
% es.tEX (V/m) @ t=0.38
-2.217713093384379
% es.tEY (V/m) @ t=0.38
0
% es.tEZ (V/m) @ t=0.38
0.927491681713704
% es.Ex (V/m) @ t=0.38
-2.2177130933843925
% es.Ey (V/m) @ t=0.38
0.17299674663799092
% es.Ez (V/m) @ t=0.38
0.9274916817137052
% es.tEx (V/m) @ t=0.38
-2.217713093384379
% es.tEy (V/m) @ t=0.38
0
% es.tEz (V/m) @ t=0.38
0.927491681713704
% V (V) @ t=0.38
0.013461891689644899
% es.normE (V/m) @ t=0.4
2.433656737448877
% es.EX (V/m) @ t=0.4
-2.2384214734079446
% es.EY (V/m) @ t=0.4
0.17461214114101542
% es.EZ (V/m) @ t=0.4
0.9361523357366573
% es.tEX (V/m) @ t=0.4
-2.2384214734079304
% es.tEY (V/m) @ t=0.4
0
% es.tEZ (V/m) @ t=0.4
0.9361523357366508
% es.Ex (V/m) @ t=0.4
-2.2384214734079446
% es.Ey (V/m) @ t=0.4
0.17461214114101542
% es.Ez (V/m) @ t=0.4
0.9361523357366573
% es.tEx (V/m) @ t=0.4
-2.2384214734079304
% es.tEy (V/m) @ t=0.4
0
% es.tEz (V/m) @ t=0.4
0.9361523357366508
% V (V) @ t=0.4
0.013587595105667292
% es.normE (V/m) @ t=0.42
2.4561713029601924
% es.EX (V/m) @ t=0.42
-2.259129853431493
% es.EY (V/m) @ t=0.42
0.17622753564400118
% es.EZ (V/m) @ t=0.42
0.9448129897596039
% es.tEX (V/m) @ t=0.42
-2.2591298534314816
% es.tEY (V/m) @ t=0.42
0
% es.tEZ (V/m) @ t=0.42
0.9448129897596047
% es.Ex (V/m) @ t=0.42
-2.259129853431493
% es.Ey (V/m) @ t=0.42
0.17622753564400118
% es.Ez (V/m) @ t=0.42
0.9448129897596039
% es.tEx (V/m) @ t=0.42
-2.2591298534314816
% es.tEy (V/m) @ t=0.42
0
% es.tEz (V/m) @ t=0.42
0.9448129897596047
% V (V) @ t=0.42
0.013713298521689685
% es.normE (V/m) @ t=0.44
2.478685868471502
% es.EX (V/m) @ t=0.44
-2.279838233455033
% es.EY (V/m) @ t=0.44
0.1778429301469957
% es.EZ (V/m) @ t=0.44
0.9534736437825594
% es.tEX (V/m) @ t=0.44
-2.279838233455026
% es.tEY (V/m) @ t=0.44
0
% es.tEZ (V/m) @ t=0.44
0.9534736437825657
% es.Ex (V/m) @ t=0.44
-2.279838233455033
% es.Ey (V/m) @ t=0.44
0.1778429301469957
% es.Ez (V/m) @ t=0.44
0.9534736437825594
% es.tEx (V/m) @ t=0.44
-2.279838233455026
% es.tEy (V/m) @ t=0.44
0
% es.tEz (V/m) @ t=0.44
0.9534736437825657
% V (V) @ t=0.44
0.013839001937712078
% es.normE (V/m) @ t=0.46
2.5012004339828096
% es.EX (V/m) @ t=0.46
-2.300546613478577
% es.EY (V/m) @ t=0.46
0.17945832464998301
% es.EZ (V/m) @ t=0.46
0.9621342978055024
% es.tEX (V/m) @ t=0.46
-2.30054661347857
% es.tEY (V/m) @ t=0.46
0
% es.tEZ (V/m) @ t=0.46
0.9621342978055054
% es.Ex (V/m) @ t=0.46
-2.300546613478577
% es.Ey (V/m) @ t=0.46
0.17945832464998301
% es.Ez (V/m) @ t=0.46
0.9621342978055024
% es.tEx (V/m) @ t=0.46
-2.30054661347857
% es.tEy (V/m) @ t=0.46
0
% es.tEz (V/m) @ t=0.46
0.9621342978055054
% V (V) @ t=0.46
0.01396470535373447
% es.normE (V/m) @ t=0.48
2.5237149994941386
% es.EX (V/m) @ t=0.48
-2.321254993502129
% es.EY (V/m) @ t=0.48
0.1810737191529972
% es.EZ (V/m) @ t=0.48
0.9707949518284721
% es.tEX (V/m) @ t=0.48
-2.3212549935021176
% es.tEY (V/m) @ t=0.48
0
% es.tEZ (V/m) @ t=0.48
0.9707949518284735
% es.Ex (V/m) @ t=0.48
-2.321254993502129
% es.Ey (V/m) @ t=0.48
0.1810737191529972
% es.Ez (V/m) @ t=0.48
0.9707949518284721
% es.tEx (V/m) @ t=0.48
-2.3212549935021176
% es.tEy (V/m) @ t=0.48
0
% es.tEz (V/m) @ t=0.48
0.9707949518284735
% V (V) @ t=0.48
0.014090408769756863
% es.normE (V/m) @ t=0.5
2.546229565005447
% es.EX (V/m) @ t=0.5
-2.3419633735256706
% es.EY (V/m) @ t=0.5
0.18268911365600227
% es.EZ (V/m) @ t=0.5
0.9794556058514189
% es.tEX (V/m) @ t=0.5
-2.3419633735256618
% es.tEY (V/m) @ t=0.5
0
% es.tEZ (V/m) @ t=0.5
0.9794556058514203
% es.Ex (V/m) @ t=0.5
-2.3419633735256706
% es.Ey (V/m) @ t=0.5
0.18268911365600227
% es.Ez (V/m) @ t=0.5
0.9794556058514189
% es.tEx (V/m) @ t=0.5
-2.3419633735256618
% es.tEy (V/m) @ t=0.5
0
% es.tEz (V/m) @ t=0.5
0.9794556058514203
% V (V) @ t=0.5
0.014216112185779256
% es.normE (V/m) @ t=0.52
2.5691421295370107
% es.EX (V/m) @ t=0.52
-2.3630378237851177
% es.EY (V/m) @ t=0.52
0.18433306418856943
% es.EZ (V/m) @ t=0.52
0.9882693580247012
% es.tEX (V/m) @ t=0.52
-2.363037823785106
% es.tEY (V/m) @ t=0.52
0
% es.tEZ (V/m) @ t=0.52
0.9882693580247022
% es.Ex (V/m) @ t=0.52
-2.3630378237851177
% es.Ey (V/m) @ t=0.52
0.18433306418856943
% es.Ez (V/m) @ t=0.52
0.9882693580247012
% es.tEx (V/m) @ t=0.52
-2.363037823785106
% es.tEy (V/m) @ t=0.52
0
% es.tEz (V/m) @ t=0.52
0.9882693580247022
% V (V) @ t=0.52
0.01434403769986707
% es.normE (V/m) @ t=0.54
2.594115699664667
% es.EX (V/m) @ t=0.54
-2.3860079390245312
% es.EY (V/m) @ t=0.54
0.18612488980064712
% es.EZ (V/m) @ t=0.54
0.9978759165330379
% es.tEX (V/m) @ t=0.54
-2.3860079390245232
% es.tEY (V/m) @ t=0.54
0
% es.tEZ (V/m) @ t=0.54
0.9978759165330331
% es.Ex (V/m) @ t=0.54
-2.3860079390245312
% es.Ey (V/m) @ t=0.54
0.18612488980064712
% es.Ez (V/m) @ t=0.54
0.9978759165330379
% es.tEx (V/m) @ t=0.54
-2.3860079390245232
% es.tEy (V/m) @ t=0.54
0
% es.tEz (V/m) @ t=0.54
0.9978759165330331
% V (V) @ t=0.54
0.014483470168280598
% es.normE (V/m) @ t=0.56
2.619089269792301
% es.EX (V/m) @ t=0.56
-2.4089780542639243
% es.EY (V/m) @ t=0.56
0.18791671541271215
% es.EZ (V/m) @ t=0.56
1.0074824750413658
% es.tEX (V/m) @ t=0.56
-2.408978054263912
% es.tEY (V/m) @ t=0.56
0
% es.tEZ (V/m) @ t=0.56
1.007482475041364
% es.Ex (V/m) @ t=0.56
-2.4089780542639243
% es.Ey (V/m) @ t=0.56
0.18791671541271215
% es.Ez (V/m) @ t=0.56
1.0074824750413658
% es.tEx (V/m) @ t=0.56
-2.408978054263912
% es.tEy (V/m) @ t=0.56
0
% es.tEz (V/m) @ t=0.56
1.007482475041364
% V (V) @ t=0.56
0.01462290263669413
% es.normE (V/m) @ t=0.58
2.644062839919952
% es.EX (V/m) @ t=0.58
-2.43194816950333
% es.EY (V/m) @ t=0.58
0.1897085410247702
% es.EZ (V/m) @ t=0.58
1.0170890335497078
% es.tEX (V/m) @ t=0.58
-2.4319481695033165
% es.tEY (V/m) @ t=0.58
0
% es.tEZ (V/m) @ t=0.58
1.0170890335497091
% es.Ex (V/m) @ t=0.58
-2.43194816950333
% es.Ey (V/m) @ t=0.58
0.1897085410247702
% es.Ez (V/m) @ t=0.58
1.0170890335497078
% es.tEx (V/m) @ t=0.58
-2.4319481695033165
% es.tEy (V/m) @ t=0.58
0
% es.tEz (V/m) @ t=0.58
1.0170890335497091
% V (V) @ t=0.58
0.01476233510510766
% es.normE (V/m) @ t=0.6
2.669036410047588
% es.EX (V/m) @ t=0.6
-2.4549182847427256
% es.EY (V/m) @ t=0.6
0.1915003666368318
% es.EZ (V/m) @ t=0.6
1.0266955920580356
% es.tEX (V/m) @ t=0.6
-2.454918284742721
% es.tEY (V/m) @ t=0.6
0
% es.tEZ (V/m) @ t=0.6
1.0266955920580259
% es.Ex (V/m) @ t=0.6
-2.4549182847427256
% es.Ey (V/m) @ t=0.6
0.1915003666368318
% es.Ez (V/m) @ t=0.6
1.0266955920580356
% es.tEx (V/m) @ t=0.6
-2.454918284742721
% es.tEy (V/m) @ t=0.6
0
% es.tEz (V/m) @ t=0.6
1.0266955920580259
% V (V) @ t=0.6
0.01490176757352119
% es.normE (V/m) @ t=0.62
2.6940099801752364
% es.EX (V/m) @ t=0.62
-2.4778883999821337
% es.EY (V/m) @ t=0.62
0.19329219224891114
% es.EZ (V/m) @ t=0.62
1.0363021505663634
% es.tEX (V/m) @ t=0.62
-2.477888399982124
% es.tEY (V/m) @ t=0.62
0
% es.tEZ (V/m) @ t=0.62
1.0363021505663639
% es.Ex (V/m) @ t=0.62
-2.4778883999821337
% es.Ey (V/m) @ t=0.62
0.19329219224891114
% es.Ez (V/m) @ t=0.62
1.0363021505663634
% es.tEx (V/m) @ t=0.62
-2.477888399982124
% es.tEy (V/m) @ t=0.62
0
% es.tEz (V/m) @ t=0.62
1.0363021505663639
% V (V) @ t=0.62
0.01504120004193472
% es.normE (V/m) @ t=0.64
2.7189835503028674
% es.EX (V/m) @ t=0.64
-2.500858515221527
% es.EY (V/m) @ t=0.64
0.19508401786098684
% es.EZ (V/m) @ t=0.64
1.0459087090746841
% es.tEX (V/m) @ t=0.64
-2.5008585152215126
% es.tEY (V/m) @ t=0.64
0
% es.tEZ (V/m) @ t=0.64
1.0459087090746806
% es.Ex (V/m) @ t=0.64
-2.500858515221527
% es.Ey (V/m) @ t=0.64
0.19508401786098684
% es.Ez (V/m) @ t=0.64
1.0459087090746841
% es.tEx (V/m) @ t=0.64
-2.5008585152215126
% es.tEy (V/m) @ t=0.64
0
% es.tEz (V/m) @ t=0.64
1.0459087090746806
% V (V) @ t=0.64
0.015180632510348253
% es.normE (V/m) @ t=0.66
2.7439571204305118
% es.EX (V/m) @ t=0.66
-2.523828630460925
% es.EY (V/m) @ t=0.66
0.19687584347304488
% es.EZ (V/m) @ t=0.66
1.0555152675830262
% es.tEX (V/m) @ t=0.66
-2.5238286304609137
% es.tEY (V/m) @ t=0.66
0
% es.tEZ (V/m) @ t=0.66
1.0555152675830257
% es.Ex (V/m) @ t=0.66
-2.523828630460925
% es.Ey (V/m) @ t=0.66
0.19687584347304488
% es.Ez (V/m) @ t=0.66
1.0555152675830262
% es.tEx (V/m) @ t=0.66
-2.5238286304609137
% es.tEy (V/m) @ t=0.66
0
% es.tEz (V/m) @ t=0.66
1.0555152675830257
% V (V) @ t=0.66
0.015320064978761783
% es.normE (V/m) @ t=0.68
2.768930690558152
% es.EX (V/m) @ t=0.68
-2.546798745700329
% es.EY (V/m) @ t=0.68
0.1986676690851047
% es.EZ (V/m) @ t=0.68
1.0651218260913469
% es.tEX (V/m) @ t=0.68
-2.546798745700313
% es.tEY (V/m) @ t=0.68
0
% es.tEZ (V/m) @ t=0.68
1.0651218260913424
% es.Ex (V/m) @ t=0.68
-2.546798745700329
% es.Ey (V/m) @ t=0.68
0.1986676690851047
% es.Ez (V/m) @ t=0.68
1.0651218260913469
% es.tEx (V/m) @ t=0.68
-2.546798745700313
% es.tEy (V/m) @ t=0.68
0
% es.tEz (V/m) @ t=0.68
1.0651218260913424
% V (V) @ t=0.68
0.015459497447175312
% es.normE (V/m) @ t=0.7
2.793904260685787
% es.EX (V/m) @ t=0.7
-2.569768860939723
% es.EY (V/m) @ t=0.7
0.20045949469718927
% es.EZ (V/m) @ t=0.7
1.0747283845996747
% es.tEX (V/m) @ t=0.7
-2.569768860939707
% es.tEY (V/m) @ t=0.7
0
% es.tEZ (V/m) @ t=0.7
1.0747283845996662
% es.Ex (V/m) @ t=0.7
-2.569768860939723
% es.Ey (V/m) @ t=0.7
0.20045949469718927
% es.Ez (V/m) @ t=0.7
1.0747283845996747
% es.tEx (V/m) @ t=0.7
-2.569768860939707
% es.tEy (V/m) @ t=0.7
0
% es.tEz (V/m) @ t=0.7
1.0747283845996662
% V (V) @ t=0.7
0.015598929915588844
% es.normE (V/m) @ t=0.72
2.818877830813433
% es.EX (V/m) @ t=0.72
-2.5927389761791257
% es.EY (V/m) @ t=0.72
0.2022513203092332
% es.EZ (V/m) @ t=0.72
1.084334943108015
% es.tEX (V/m) @ t=0.72
-2.5927389761791115
% es.tEY (V/m) @ t=0.72
0
% es.tEZ (V/m) @ t=0.72
1.0843349431080114
% es.Ex (V/m) @ t=0.72
-2.5927389761791257
% es.Ey (V/m) @ t=0.72
0.2022513203092332
% es.Ez (V/m) @ t=0.72
1.084334943108015
% es.tEx (V/m) @ t=0.72
-2.5927389761791115
% es.tEy (V/m) @ t=0.72
0
% es.tEz (V/m) @ t=0.72
1.0843349431080114
% V (V) @ t=0.72
0.015738362384002377
% es.normE (V/m) @ t=0.74
2.843851400941073
% es.EX (V/m) @ t=0.74
-2.6157090914185277
% es.EY (V/m) @ t=0.74
0.20404314592131256
% es.EZ (V/m) @ t=0.74
1.0939415016163339
% es.tEX (V/m) @ t=0.74
-2.615709091418518
% es.tEY (V/m) @ t=0.74
0
% es.tEZ (V/m) @ t=0.74
1.0939415016163352
% es.Ex (V/m) @ t=0.74
-2.6157090914185277
% es.Ey (V/m) @ t=0.74
0.20404314592131256
% es.Ez (V/m) @ t=0.74
1.0939415016163339
% es.tEx (V/m) @ t=0.74
-2.615709091418518
% es.tEy (V/m) @ t=0.74
0
% es.tEz (V/m) @ t=0.74
1.0939415016163352
% V (V) @ t=0.74
0.015877794852415906
% es.normE (V/m) @ t=0.76
2.8688249710687117
% es.EX (V/m) @ t=0.76
-2.6386792066579208
% es.EY (V/m) @ t=0.76
0.2058349715333847
% es.EZ (V/m) @ t=0.76
1.103548060124674
% es.tEX (V/m) @ t=0.76
-2.6386792066579083
% es.tEY (V/m) @ t=0.76
0
% es.tEZ (V/m) @ t=0.76
1.1035480601246803
% es.Ex (V/m) @ t=0.76
-2.6386792066579208
% es.Ey (V/m) @ t=0.76
0.2058349715333847
% es.Ez (V/m) @ t=0.76
1.103548060124674
% es.tEx (V/m) @ t=0.76
-2.6386792066579083
% es.tEy (V/m) @ t=0.76
0
% es.tEz (V/m) @ t=0.76
1.1035480601246803
% V (V) @ t=0.76
0.016017227320829434
% es.normE (V/m) @ t=0.78
2.8944848262071066
% es.EX (V/m) @ t=0.78
-2.6622805510547556
% es.EY (V/m) @ t=0.78
0.20767603732342044
% es.EZ (V/m) @ t=0.78
1.1134186112245419
% es.tEX (V/m) @ t=0.78
-2.6622805510547405
% es.tEY (V/m) @ t=0.78
0
% es.tEZ (V/m) @ t=0.78
1.1134186112245459
% es.Ex (V/m) @ t=0.78
-2.6622805510547556
% es.Ey (V/m) @ t=0.78
0.20767603732342044
% es.Ez (V/m) @ t=0.78
1.1134186112245419
% es.tEx (V/m) @ t=0.78
-2.6622805510547405
% es.tEy (V/m) @ t=0.78
0
% es.tEz (V/m) @ t=0.78
1.1134186112245459
% V (V) @ t=0.78
0.01616049145597002
% es.normE (V/m) @ t=0.8
2.9222311537170738
% es.EX (V/m) @ t=0.8
-2.6878009847169597
% es.EY (V/m) @ t=0.8
0.20966680516038028
% es.EZ (V/m) @ t=0.8
1.124091763634242
% es.tEX (V/m) @ t=0.8
-2.6878009847169544
% es.tEY (V/m) @ t=0.8
0
% es.tEZ (V/m) @ t=0.8
1.1240917636342331
% es.Ex (V/m) @ t=0.8
-2.6878009847169597
% es.Ey (V/m) @ t=0.8
0.20966680516038028
% es.Ez (V/m) @ t=0.8
1.124091763634242
% es.tEx (V/m) @ t=0.8
-2.6878009847169544
% es.tEy (V/m) @ t=0.8
0
% es.tEz (V/m) @ t=0.8
1.1240917636342331
% V (V) @ t=0.8
0.01631540478443128
% es.normE (V/m) @ t=0.82
2.949977481227074
% es.EX (V/m) @ t=0.82
-2.713321418379194
% es.EY (V/m) @ t=0.82
0.21165757299731502
% es.EZ (V/m) @ t=0.82
1.1347649160439532
% es.tEX (V/m) @ t=0.82
-2.7133214183791843
% es.tEY (V/m) @ t=0.82
0
% es.tEZ (V/m) @ t=0.82
1.134764916043956
% es.Ex (V/m) @ t=0.82
-2.713321418379194
% es.Ey (V/m) @ t=0.82
0.21165757299731502
% es.Ez (V/m) @ t=0.82
1.1347649160439532
% es.tEx (V/m) @ t=0.82
-2.7133214183791843
% es.tEy (V/m) @ t=0.82
0
% es.tEz (V/m) @ t=0.82
1.134764916043956
% V (V) @ t=0.82
0.016470318112892533
% es.normE (V/m) @ t=0.84
2.9777238087370446
% es.EX (V/m) @ t=0.84
-2.738841852041396
% es.EY (V/m) @ t=0.84
0.21364834083428552
% es.EZ (V/m) @ t=0.84
1.145438068453664
% es.tEX (V/m) @ t=0.84
-2.738841852041393
% es.tEY (V/m) @ t=0.84
0
% es.tEZ (V/m) @ t=0.84
1.1454380684536645
% es.Ex (V/m) @ t=0.84
-2.738841852041396
% es.Ey (V/m) @ t=0.84
0.21364834083428552
% es.Ez (V/m) @ t=0.84
1.145438068453664
% es.tEx (V/m) @ t=0.84
-2.738841852041393
% es.tEy (V/m) @ t=0.84
0
% es.tEz (V/m) @ t=0.84
1.1454380684536645
% V (V) @ t=0.84
0.01662523144135379
% es.normE (V/m) @ t=0.86
3.0054701362470437
% es.EX (V/m) @ t=0.86
-2.7643622857036325
% es.EY (V/m) @ t=0.86
0.21563910867123803
% es.EZ (V/m) @ t=0.86
1.15611122086337
% es.tEX (V/m) @ t=0.86
-2.7643622857036227
% es.tEY (V/m) @ t=0.86
0
% es.tEZ (V/m) @ t=0.86
1.1561112208633588
% es.Ex (V/m) @ t=0.86
-2.7643622857036325
% es.Ey (V/m) @ t=0.86
0.21563910867123803
% es.Ez (V/m) @ t=0.86
1.15611122086337
% es.tEx (V/m) @ t=0.86
-2.7643622857036227
% es.tEy (V/m) @ t=0.86
0
% es.tEz (V/m) @ t=0.86
1.1561112208633588
% V (V) @ t=0.86
0.01678014476981505
% es.normE (V/m) @ t=0.88
3.033216463757025
% es.EX (V/m) @ t=0.88
-2.7898827193658495
% es.EY (V/m) @ t=0.88
0.21762987650821208
% es.EZ (V/m) @ t=0.88
1.1667843732730705
% es.tEX (V/m) @ t=0.88
-2.789882719365835
% es.tEY (V/m) @ t=0.88
0
% es.tEZ (V/m) @ t=0.88
1.1667843732730816
% es.Ex (V/m) @ t=0.88
-2.7898827193658495
% es.Ey (V/m) @ t=0.88
0.21762987650821208
% es.Ez (V/m) @ t=0.88
1.1667843732730705
% es.tEx (V/m) @ t=0.88
-2.789882719365835
% es.tEy (V/m) @ t=0.88
0
% es.tEz (V/m) @ t=0.88
1.1667843732730816
% V (V) @ t=0.88
0.01693505809827631
% es.normE (V/m) @ t=0.9
3.0609627912670136
% es.EX (V/m) @ t=0.9
-2.8154031530280665
% es.EY (V/m) @ t=0.9
0.21962064434517525
% es.EZ (V/m) @ t=0.9
1.1774575256827888
% es.tEX (V/m) @ t=0.9
-2.815403153028054
% es.tEY (V/m) @ t=0.9
0
% es.tEZ (V/m) @ t=0.9
1.1774575256827902
% es.Ex (V/m) @ t=0.9
-2.8154031530280665
% es.Ey (V/m) @ t=0.9
0.21962064434517525
% es.Ez (V/m) @ t=0.9
1.1774575256827888
% es.tEx (V/m) @ t=0.9
-2.815403153028054
% es.tEy (V/m) @ t=0.9
0
% es.tEz (V/m) @ t=0.9
1.1774575256827902
% V (V) @ t=0.9
0.017089971426737564
% es.normE (V/m) @ t=0.92
3.0887091187769897
% es.EX (V/m) @ t=0.92
-2.8409235866902773
% es.EY (V/m) @ t=0.92
0.22161141218212443
% es.EZ (V/m) @ t=0.92
1.188130678092496
% es.tEX (V/m) @ t=0.92
-2.84092358669027
% es.tEY (V/m) @ t=0.92
0
% es.tEZ (V/m) @ t=0.92
1.1881306780924845
% es.Ex (V/m) @ t=0.92
-2.8409235866902773
% es.Ey (V/m) @ t=0.92
0.22161141218212443
% es.Ez (V/m) @ t=0.92
1.188130678092496
% es.tEx (V/m) @ t=0.92
-2.84092358669027
% es.tEy (V/m) @ t=0.92
0
% es.tEz (V/m) @ t=0.92
1.1881306780924845
% V (V) @ t=0.92
0.01724488475519882
% es.normE (V/m) @ t=0.94
3.1164554462869845
% es.EX (V/m) @ t=0.94
-2.8664440203525015
% es.EY (V/m) @ t=0.94
0.22360218001909138
% es.EZ (V/m) @ t=0.94
1.1988038305022142
% es.tEX (V/m) @ t=0.94
-2.8664440203524926
% es.tEY (V/m) @ t=0.94
0
% es.tEZ (V/m) @ t=0.94
1.1988038305022144
% es.Ex (V/m) @ t=0.94
-2.8664440203525015
% es.Ey (V/m) @ t=0.94
0.22360218001909138
% es.Ez (V/m) @ t=0.94
1.1988038305022142
% es.tEx (V/m) @ t=0.94
-2.8664440203524926
% es.tEy (V/m) @ t=0.94
0
% es.tEz (V/m) @ t=0.94
1.1988038305022144
% V (V) @ t=0.94
0.01739979808366008
% es.normE (V/m) @ t=0.96
3.1442017737969596
% es.EX (V/m) @ t=0.96
-2.8919644540147194
% es.EY (V/m) @ t=0.96
0.225592947856051
% es.EZ (V/m) @ t=0.96
1.2094769829119005
% es.tEX (V/m) @ t=0.96
-2.8919644540147047
% es.tEY (V/m) @ t=0.96
0
% es.tEZ (V/m) @ t=0.96
1.2094769829119087
% es.Ex (V/m) @ t=0.96
-2.8919644540147194
% es.Ey (V/m) @ t=0.96
0.225592947856051
% es.Ez (V/m) @ t=0.96
1.2094769829119005
% es.tEx (V/m) @ t=0.96
-2.8919644540147047
% es.tEy (V/m) @ t=0.96
0
% es.tEz (V/m) @ t=0.96
1.2094769829119087
% V (V) @ t=0.96
0.01755471141212133
% es.normE (V/m) @ t=0.98
3.1719481013069313
% es.EX (V/m) @ t=0.98
-2.917484887676921
% es.EY (V/m) @ t=0.98
0.2275837156930106
% es.EZ (V/m) @ t=0.98
1.2201501353216153
% es.tEX (V/m) @ t=0.98
-2.917484887676917
% es.tEY (V/m) @ t=0.98
0
% es.tEZ (V/m) @ t=0.98
1.2201501353216173
% es.Ex (V/m) @ t=0.98
-2.917484887676921
% es.Ey (V/m) @ t=0.98
0.2275837156930106
% es.Ez (V/m) @ t=0.98
1.2201501353216153
% es.tEx (V/m) @ t=0.98
-2.917484887676917
% es.tEy (V/m) @ t=0.98
0
% es.tEz (V/m) @ t=0.98
1.2201501353216173
% V (V) @ t=0.98
0.017709624740582585
% es.normE (V/m) @ t=1
3.199694428816923
% es.EX (V/m) @ t=1
-2.943005321339145
% es.EY (V/m) @ t=1
0.22957448352997756
% es.EZ (V/m) @ t=1
1.2308232877313263
% es.tEX (V/m) @ t=1
-2.943005321339143
% es.tEY (V/m) @ t=1
0
% es.tEZ (V/m) @ t=1
1.230823287731333
% es.Ex (V/m) @ t=1
-2.943005321339145
% es.Ey (V/m) @ t=1
0.22957448352997756
% es.Ez (V/m) @ t=1
1.2308232877313263
% es.tEx (V/m) @ t=1
-2.943005321339143
% es.tEy (V/m) @ t=1
0
% es.tEz (V/m) @ t=1
1.230823287731333
% V (V) @ t=1
0.017864538069043846
% es.normE (V/m) @ t=1.02
3.2274407563269314
% es.EX (V/m) @ t=1.02
-2.9685257550013833
% es.EY (V/m) @ t=1.02
0.23156525136693384
% es.EZ (V/m) @ t=1.02
1.2414964401410478
% es.tEX (V/m) @ t=1.02
-2.9685257550013695
% es.tEY (V/m) @ t=1.02
0
% es.tEZ (V/m) @ t=1.02
1.2414964401410487
% es.Ex (V/m) @ t=1.02
-2.9685257550013833
% es.Ey (V/m) @ t=1.02
0.23156525136693384
% es.Ez (V/m) @ t=1.02
1.2414964401410478
% es.tEx (V/m) @ t=1.02
-2.9685257550013695
% es.tEy (V/m) @ t=1.02
0
% es.tEz (V/m) @ t=1.02
1.2414964401410487
% V (V) @ t=1.02
0.018019451397505104
% es.normE (V/m) @ t=1.04
3.2556243829009865
% es.EX (V/m) @ t=1.04
-2.9944484062211916
% es.EY (V/m) @ t=1.04
0.23358739495380199
% es.EZ (V/m) @ t=1.04
1.2523378080973657
% es.tEX (V/m) @ t=1.04
-2.9944484062211743
% es.tEY (V/m) @ t=1.04
0
% es.tEZ (V/m) @ t=1.04
1.2523378080973728
% es.Ex (V/m) @ t=1.04