% Model:              1 neuron.mph
% Version:            COMSOL 6.1.0.252
% Date:               Mar 22 2023, 19:31
% Dimension:          0
% Nodes:              14017
% Expressions:        14017
% Description:        Electric field norm, Electric field, X component, Electric field, Y component, Electric field, Z component, Tangential electric field, X component, Tangential electric field, Y component, Tangential electric field, Z component, Electric field, x component, Electric field, y component, Electric field, z component, Tangential electric field, x component, Tangential electric field, y component, Tangential electric field, z component, Electric potential
% Length unit:        mm
% x
2
% y
12.199999999999998
% z
2
% es.normE (V/m) @ t=0
1.3366217005814147
% es.EX (V/m) @ t=0
-0.9568975096274033
% es.EY (V/m) @ t=0
0.3644199812795379
% es.EZ (V/m) @ t=0
-0.8538856627535321
% es.tEX (V/m) @ t=0
-0.9568975096273977
% es.tEY (V/m) @ t=0
0
% es.tEZ (V/m) @ t=0
-0.8538856627535374
% es.Ex (V/m) @ t=0
-0.9568975096274033
% es.Ey (V/m) @ t=0
0.3644199812795379
% es.Ez (V/m) @ t=0
-0.8538856627535321
% es.tEx (V/m) @ t=0
-0.9568975096273977
% es.tEy (V/m) @ t=0
0
% es.tEz (V/m) @ t=0
-0.8538856627535374
% V (V) @ t=0
0.013602539494281852
% es.normE (V/m) @ t=0.02
1.1544569389845973
% es.EX (V/m) @ t=0.02
-0.8264843891985338
% es.EY (V/m) @ t=0.02
0.3147541120517634
% es.EZ (V/m) @ t=0.02
-0.7375117641099189
% es.tEX (V/m) @ t=0.02
-0.8264843891985283
% es.tEY (V/m) @ t=0.02
0
% es.tEZ (V/m) @ t=0.02
-0.7375117641099216
% es.Ex (V/m) @ t=0.02
-0.8264843891985338
% es.Ey (V/m) @ t=0.02
0.3147541120517634
% es.Ez (V/m) @ t=0.02
-0.7375117641099189
% es.tEx (V/m) @ t=0.02
-0.8264843891985283
% es.tEy (V/m) @ t=0.02
0
% es.tEz (V/m) @ t=0.02
-0.7375117641099216
% V (V) @ t=0.02
0.011748684077800551
% es.normE (V/m) @ t=0.04
1.1650801805535265
% es.EX (V/m) @ t=0.04
-0.8340896476299042
% es.EY (V/m) @ t=0.04
0.3176504597697738
% es.EZ (V/m) @ t=0.04
-0.7442983019539593
% es.tEX (V/m) @ t=0.04
-0.8340896476299062
% es.tEY (V/m) @ t=0.04
0
% es.tEZ (V/m) @ t=0.04
-0.7442983019539628
% es.Ex (V/m) @ t=0.04
-0.8340896476299042
% es.Ey (V/m) @ t=0.04
0.3176504597697738
% es.Ez (V/m) @ t=0.04
-0.7442983019539593
% es.tEx (V/m) @ t=0.04
-0.8340896476299062
% es.tEy (V/m) @ t=0.04
0
% es.tEz (V/m) @ t=0.04
-0.7442983019539628
% V (V) @ t=0.04
0.01185679475181008
% es.normE (V/m) @ t=0.06
1.1757807475481252
% es.EX (V/m) @ t=0.06
-0.8417502640433538
% es.EY (V/m) @ t=0.06
0.3205678890895616
% es.EZ (V/m) @ t=0.06
-0.7511342384469026
% es.tEX (V/m) @ t=0.06
-0.841750264043347
% es.tEY (V/m) @ t=0.06
0
% es.tEZ (V/m) @ t=0.06
-0.7511342384469053
% es.Ex (V/m) @ t=0.06
-0.8417502640433538
% es.Ey (V/m) @ t=0.06
0.3205678890895616
% es.Ez (V/m) @ t=0.06
-0.7511342384469026
% es.tEx (V/m) @ t=0.06
-0.841750264043347
% es.tEy (V/m) @ t=0.06
0
% es.tEz (V/m) @ t=0.06
-0.7511342384469053
% V (V) @ t=0.06
0.011965692373387106
% es.normE (V/m) @ t=0.08
1.1866866689616988
% es.EX (V/m) @ t=0.08
-0.8495578949399005
% es.EY (V/m) @ t=0.08
0.32354130815048343
% es.EZ (V/m) @ t=0.08
-0.7581013628743793
% es.tEX (V/m) @ t=0.08
-0.8495578949398972
% es.tEY (V/m) @ t=0.08
0
% es.tEZ (V/m) @ t=0.08
-0.7581013628743776
% es.Ex (V/m) @ t=0.08
-0.8495578949399005
% es.Ey (V/m) @ t=0.08
0.32354130815048343
% es.Ez (V/m) @ t=0.08
-0.7581013628743793
% es.tEx (V/m) @ t=0.08
-0.8495578949398972
% es.tEy (V/m) @ t=0.08
0
% es.tEz (V/m) @ t=0.08
-0.7581013628743776
% V (V) @ t=0.08
0.012076679797587664
% es.normE (V/m) @ t=0.1
1.1976478131162753
% es.EX (V/m) @ t=0.1
-0.8574050601340819
% es.EY (V/m) @ t=0.1
0.3265297836537817
% es.EZ (V/m) @ t=0.1
-0.7651037656141977
% es.tEX (V/m) @ t=0.1
-0.8574050601340821
% es.tEY (V/m) @ t=0.1
0
% es.tEZ (V/m) @ t=0.1
-0.7651037656142048
% es.Ex (V/m) @ t=0.1
-0.8574050601340819
% es.Ey (V/m) @ t=0.1
0.3265297836537817
% es.Ez (V/m) @ t=0.1
-0.7651037656141977
% es.tEx (V/m) @ t=0.1
-0.8574050601340821
% es.tEy (V/m) @ t=0.1
0
% es.tEz (V/m) @ t=0.1
-0.7651037656142048
% V (V) @ t=0.1
0.012188229199609664
% es.normE (V/m) @ t=0.12
1.2086089572708414
% es.EX (V/m) @ t=0.12
-0.8652522253282651
% es.EY (V/m) @ t=0.12
0.3295182591570738
% es.EZ (V/m) @ t=0.12
-0.7721061683540027
% es.tEX (V/m) @ t=0.12
-0.8652522253282577
% es.tEY (V/m) @ t=0.12
0
% es.tEZ (V/m) @ t=0.12
-0.7721061683540107
% es.Ex (V/m) @ t=0.12
-0.8652522253282651
% es.Ey (V/m) @ t=0.12
0.3295182591570738
% es.Ez (V/m) @ t=0.12
-0.7721061683540027
% es.tEx (V/m) @ t=0.12
-0.8652522253282577
% es.tEy (V/m) @ t=0.12
0
% es.tEz (V/m) @ t=0.12
-0.7721061683540107
% V (V) @ t=0.12
0.01229977860163166
% es.normE (V/m) @ t=0.14
1.2198901499511523
% es.EX (V/m) @ t=0.14
-0.8733285159415336
% es.EY (V/m) @ t=0.14
0.33259399216170493
% es.EZ (V/m) @ t=0.14
-0.7793130308857412
% es.tEX (V/m) @ t=0.14
-0.8733285159415374
% es.tEY (V/m) @ t=0.14
0
% es.tEZ (V/m) @ t=0.14
-0.7793130308857492
% es.Ex (V/m) @ t=0.14
-0.8733285159415336
% es.Ey (V/m) @ t=0.14
0.33259399216170493
% es.Ez (V/m) @ t=0.14
-0.7793130308857412
% es.tEx (V/m) @ t=0.14
-0.8733285159415374
% es.tEy (V/m) @ t=0.14
0
% es.tEz (V/m) @ t=0.14
-0.7793130308857492
% V (V) @ t=0.14
0.012414585123470472
% es.normE (V/m) @ t=0.16
1.2314008170048292
% es.EX (V/m) @ t=0.16
-0.8815690891799115
% es.EY (V/m) @ t=0.16
0.33573228868039795
% es.EZ (V/m) @ t=0.16
-0.7866664908202337
% es.tEX (V/m) @ t=0.16
-0.8815690891799131
% es.tEY (V/m) @ t=0.16
0
% es.tEZ (V/m) @ t=0.16
-0.7866664908202345
% es.Ex (V/m) @ t=0.16
-0.8815690891799115
% es.Ey (V/m) @ t=0.16
0.33573228868039795
% es.Ez (V/m) @ t=0.16
-0.7866664908202337
% es.tEx (V/m) @ t=0.16
-0.8815690891799131
% es.tEy (V/m) @ t=0.16
0
% es.tEz (V/m) @ t=0.16
-0.7866664908202345
% V (V) @ t=0.16
0.012531726995947703
% es.normE (V/m) @ t=0.18
1.2429114840585158
% es.EX (V/m) @ t=0.18
-0.8898096624182898
% es.EY (V/m) @ t=0.18
0.33887058519912294
% es.EZ (V/m) @ t=0.18
-0.7940199507547234
% es.tEX (V/m) @ t=0.18
-0.8898096624182963
% es.tEY (V/m) @ t=0.18
0
% es.tEZ (V/m) @ t=0.18
-0.7940199507547288
% es.Ex (V/m) @ t=0.18
-0.8898096624182898
% es.Ey (V/m) @ t=0.18
0.33887058519912294
% es.Ez (V/m) @ t=0.18
-0.7940199507547234
% es.tEx (V/m) @ t=0.18
-0.8898096624182963
% es.tEy (V/m) @ t=0.18
0
% es.tEz (V/m) @ t=0.18
-0.7940199507547288
% V (V) @ t=0.18
0.012648868868424933
% es.normE (V/m) @ t=0.2
1.2544221511121953
% es.EX (V/m) @ t=0.2
-0.8980502356566709
% es.EY (V/m) @ t=0.2
0.34200888171783195
% es.EZ (V/m) @ t=0.2
-0.8013734106892079
% es.tEX (V/m) @ t=0.2
-0.8980502356566684
% es.tEY (V/m) @ t=0.2
0
% es.tEZ (V/m) @ t=0.2
-0.8013734106892141
% es.Ex (V/m) @ t=0.2
-0.8980502356566709
% es.Ey (V/m) @ t=0.2
0.34200888171783195
% es.Ez (V/m) @ t=0.2
-0.8013734106892079
% es.tEx (V/m) @ t=0.2
-0.8980502356566684
% es.tEy (V/m) @ t=0.2
0
% es.tEz (V/m) @ t=0.2
-0.8013734106892141
% V (V) @ t=0.2
0.01276601074090216
% es.normE (V/m) @ t=0.22
1.2659328181658693
% es.EX (V/m) @ t=0.22
-0.9062908088950403
% es.EY (V/m) @ t=0.22
0.3451471782365356
% es.EZ (V/m) @ t=0.22
-0.8087268706237012
% es.tEX (V/m) @ t=0.22
-0.9062908088950379
% es.tEY (V/m) @ t=0.22
0
% es.tEZ (V/m) @ t=0.22
-0.8087268706236994
% es.Ex (V/m) @ t=0.22
-0.9062908088950403
% es.Ey (V/m) @ t=0.22
0.3451471782365356
% es.Ez (V/m) @ t=0.22
-0.8087268706237012
% es.tEx (V/m) @ t=0.22
-0.9062908088950379
% es.tEy (V/m) @ t=0.22
0
% es.tEz (V/m) @ t=0.22
-0.8087268706236994
% V (V) @ t=0.22
0.012883152613379389
% es.normE (V/m) @ t=0.24
1.2774434852195446
% es.EX (V/m) @ t=0.24
-0.9145313821334133
% es.EY (V/m) @ t=0.24
0.34828547475523663
% es.EZ (V/m) @ t=0.24
-0.8160803305581901
% es.tEX (V/m) @ t=0.24
-0.914531382133406
% es.tEY (V/m) @ t=0.24
0
% es.tEZ (V/m) @ t=0.24
-0.8160803305581936
% es.Ex (V/m) @ t=0.24
-0.9145313821334133
% es.Ey (V/m) @ t=0.24
0.34828547475523663
% es.Ez (V/m) @ t=0.24
-0.8160803305581901
% es.tEx (V/m) @ t=0.24
-0.914531382133406
% es.tEy (V/m) @ t=0.24
0
% es.tEz (V/m) @ t=0.24
-0.8160803305581936
% V (V) @ t=0.24
0.01300029448585662
% es.normE (V/m) @ t=0.26
1.2891640806962308
% es.EX (V/m) @ t=0.26
-0.9229222465467692
% es.EY (V/m) @ t=0.26
0.3514809976328146
% es.EZ (V/m) @ t=0.26
-0.8235679036524166
% es.tEX (V/m) @ t=0.26
-0.9229222465467695
% es.tEY (V/m) @ t=0.26
0
% es.tEZ (V/m) @ t=0.26
-0.823567903652421
% es.Ex (V/m) @ t=0.26
-0.9229222465467692
% es.Ey (V/m) @ t=0.26
0.3514809976328146
% es.Ez (V/m) @ t=0.26
-0.8235679036524166
% es.tEx (V/m) @ t=0.26
-0.9229222465467695
% es.tEy (V/m) @ t=0.26
0
% es.tEz (V/m) @ t=0.26
-0.823567903652421
% V (V) @ t=0.26
0.013119573080935747
% es.normE (V/m) @ t=0.28
1.3019017943203957
% es.EX (V/m) @ t=0.28
-0.9320412823972448
% es.EY (V/m) @ t=0.28
0.3549537862911216
% es.EZ (V/m) @ t=0.28
-0.8317052645487957
% es.tEX (V/m) @ t=0.28
-0.9320412823972384
% es.tEY (V/m) @ t=0.28
0
% es.tEZ (V/m) @ t=0.28
-0.8317052645488001
% es.Ex (V/m) @ t=0.28
-0.9320412823972448
% es.Ey (V/m) @ t=0.28
0.3549537862911216
% es.Ez (V/m) @ t=0.28
-0.8317052645487957
% es.tEx (V/m) @ t=0.28
-0.9320412823972384
% es.tEy (V/m) @ t=0.28
0
% es.tEz (V/m) @ t=0.28
-0.8317052645488001
% V (V) @ t=0.28
0.013249204249064749
% es.normE (V/m) @ t=0.3
1.314639507944551
% es.EX (V/m) @ t=0.3
-0.9411603182477148
% es.EY (V/m) @ t=0.3
0.35842657494942864
% es.EZ (V/m) @ t=0.3
-0.8398426254451641
% es.tEX (V/m) @ t=0.3
-0.9411603182477113
% es.tEY (V/m) @ t=0.3
0
% es.tEZ (V/m) @ t=0.3
-0.8398426254451632
% es.Ex (V/m) @ t=0.3
-0.9411603182477148
% es.Ey (V/m) @ t=0.3
0.35842657494942864
% es.Ez (V/m) @ t=0.3
-0.8398426254451641
% es.tEx (V/m) @ t=0.3
-0.9411603182477113
% es.tEy (V/m) @ t=0.3
0
% es.tEz (V/m) @ t=0.3
-0.8398426254451632
% V (V) @ t=0.3
0.01337883541719375
% es.normE (V/m) @ t=0.32
1.3273772215687174
% es.EX (V/m) @ t=0.32
-0.9502793540981973
% es.EY (V/m) @ t=0.32
0.36189936360773967
% es.EZ (V/m) @ t=0.32
-0.8479799863415227
% es.tEX (V/m) @ t=0.32
-0.9502793540981909
% es.tEY (V/m) @ t=0.32
0
% es.tEZ (V/m) @ t=0.32
-0.847979986341528
% es.Ex (V/m) @ t=0.32
-0.9502793540981973
% es.Ey (V/m) @ t=0.32
0.36189936360773967
% es.Ez (V/m) @ t=0.32
-0.8479799863415227
% es.tEx (V/m) @ t=0.32
-0.9502793540981909
% es.tEy (V/m) @ t=0.32
0
% es.tEz (V/m) @ t=0.32
-0.847979986341528
% V (V) @ t=0.32
0.013508466585322754
% es.normE (V/m) @ t=0.34
1.3401149351928883
% es.EX (V/m) @ t=0.34
-0.9593983899486698
% es.EY (V/m) @ t=0.34
0.36537215226603736
% es.EZ (V/m) @ t=0.34
-0.8561173472379018
% es.tEX (V/m) @ t=0.34
-0.9593983899486678
% es.tEY (V/m) @ t=0.34
0
% es.tEZ (V/m) @ t=0.34
-0.8561173472379071
% es.Ex (V/m) @ t=0.34
-0.9593983899486698
% es.Ey (V/m) @ t=0.34
0.36537215226603736
% es.Ez (V/m) @ t=0.34
-0.8561173472379018
% es.tEx (V/m) @ t=0.34
-0.9593983899486678
% es.tEy (V/m) @ t=0.34
0
% es.tEz (V/m) @ t=0.34
-0.8561173472379071
% V (V) @ t=0.34
0.013638097753451756
% es.normE (V/m) @ t=0.36
1.3528526488170507
% es.EX (V/m) @ t=0.36
-0.9685174257991342
% es.EY (V/m) @ t=0.36
0.3688449409243497
% es.EZ (V/m) @ t=0.36
-0.8642547081342631
% es.tEX (V/m) @ t=0.36
-0.9685174257991345
% es.tEY (V/m) @ t=0.36
0
% es.tEZ (V/m) @ t=0.36
-0.864254708134272
% es.Ex (V/m) @ t=0.36
-0.9685174257991342
% es.Ey (V/m) @ t=0.36
0.3688449409243497
% es.Ez (V/m) @ t=0.36
-0.8642547081342631
% es.tEx (V/m) @ t=0.36
-0.9685174257991345
% es.tEy (V/m) @ t=0.36
0
% es.tEz (V/m) @ t=0.36
-0.864254708134272
% V (V) @ t=0.36
0.013767728921580756
% es.normE (V/m) @ t=0.38
1.365590362441226
% es.EX (V/m) @ t=0.38
-0.977636461649608
% es.EY (V/m) @ t=0.38
0.37231772958265763
% es.EZ (V/m) @ t=0.38
-0.8723920690306279
% es.tEX (V/m) @ t=0.38
-0.9776364616496105
% es.tEY (V/m) @ t=0.38
0
% es.tEZ (V/m) @ t=0.38
-0.8723920690306279
% es.Ex (V/m) @ t=0.38
-0.977636461649608
% es.Ey (V/m) @ t=0.38
0.37231772958265763
% es.Ez (V/m) @ t=0.38
-0.8723920690306279
% es.tEx (V/m) @ t=0.38
-0.9776364616496105
% es.tEy (V/m) @ t=0.38
0
% es.tEz (V/m) @ t=0.38
-0.8723920690306279
% V (V) @ t=0.38
0.013897360089709758
% es.normE (V/m) @ t=0.4
1.3783280760654075
% es.EX (V/m) @ t=0.4
-0.9867554975000854
% es.EY (V/m) @ t=0.4
0.37579051824095355
% es.EZ (V/m) @ t=0.4
-0.8805294299270008
% es.tEX (V/m) @ t=0.4
-0.9867554975000798
% es.tEY (V/m) @ t=0.4
0
% es.tEZ (V/m) @ t=0.4
-0.8805294299270141
% es.Ex (V/m) @ t=0.4
-0.9867554975000854
% es.Ey (V/m) @ t=0.4
0.37579051824095355
% es.Ez (V/m) @ t=0.4
-0.8805294299270008
% es.tEx (V/m) @ t=0.4
-0.9867554975000798
% es.tEy (V/m) @ t=0.4
0
% es.tEz (V/m) @ t=0.4
-0.8805294299270141
% V (V) @ t=0.4
0.01402699125783876
% es.normE (V/m) @ t=0.42
1.391065789689597
% es.EX (V/m) @ t=0.42
-0.995874533350565
% es.EY (V/m) @ t=0.42
0.37926330689927434
% es.EZ (V/m) @ t=0.42
-0.8886667908233656
% es.tEX (V/m) @ t=0.42
-0.9958745333505603
% es.tEY (V/m) @ t=0.42
0
% es.tEZ (V/m) @ t=0.42
-0.8886667908233807
% es.Ex (V/m) @ t=0.42
-0.995874533350565
% es.Ey (V/m) @ t=0.42
0.37926330689927434
% es.Ez (V/m) @ t=0.42
-0.8886667908233656
% es.tEx (V/m) @ t=0.42
-0.9958745333505603
% es.tEy (V/m) @ t=0.42
0
% es.tEz (V/m) @ t=0.42
-0.8886667908233807
% V (V) @ t=0.42
0.014156622425967763
% es.normE (V/m) @ t=0.44
1.403803503313787
% es.EX (V/m) @ t=0.44
-1.0049935692010405
% es.EY (V/m) @ t=0.44
0.38273609555756805
% es.EZ (V/m) @ t=0.44
-0.896804151719742
% es.tEX (V/m) @ t=0.44
-1.0049935692010332
% es.tEY (V/m) @ t=0.44
0
% es.tEZ (V/m) @ t=0.44
-0.8968041517197509
% es.Ex (V/m) @ t=0.44
-1.0049935692010405
% es.Ey (V/m) @ t=0.44
0.38273609555756805
% es.Ez (V/m) @ t=0.44
-0.896804151719742
% es.tEx (V/m) @ t=0.44
-1.0049935692010332
% es.tEy (V/m) @ t=0.44
0
% es.tEz (V/m) @ t=0.44
-0.8968041517197509
% V (V) @ t=0.44
0.014286253594096762
% es.normE (V/m) @ t=0.46
1.4165412169379805
% es.EX (V/m) @ t=0.46
-1.0141126050515192
% es.EY (V/m) @ t=0.46
0.3862088842158835
% es.EZ (V/m) @ t=0.46
-0.9049415126161042
% es.tEX (V/m) @ t=0.46
-1.0141126050515172
% es.tEY (V/m) @ t=0.46
0
% es.tEZ (V/m) @ t=0.46
-0.9049415126161087
% es.Ex (V/m) @ t=0.46
-1.0141126050515192
% es.Ey (V/m) @ t=0.46
0.3862088842158835
% es.Ez (V/m) @ t=0.46
-0.9049415126161042
% es.tEx (V/m) @ t=0.46
-1.0141126050515172
% es.tEy (V/m) @ t=0.46
0
% es.tEz (V/m) @ t=0.46
-0.9049415126161087
% V (V) @ t=0.46
0.014415884762225765
% es.normE (V/m) @ t=0.48
1.4292789305621627
% es.EX (V/m) @ t=0.48
-1.0232316409019806
% es.EY (V/m) @ t=0.48
0.3896816728741994
% es.EZ (V/m) @ t=0.48
-0.9130788735124646
% es.tEX (V/m) @ t=0.48
-1.0232316409019795
% es.tEY (V/m) @ t=0.48
0
% es.tEZ (V/m) @ t=0.48
-0.9130788735124735
% es.Ex (V/m) @ t=0.48
-1.0232316409019806
% es.Ey (V/m) @ t=0.48
0.3896816728741994
% es.Ez (V/m) @ t=0.48
-0.9130788735124646
% es.tEx (V/m) @ t=0.48
-1.0232316409019795
% es.tEy (V/m) @ t=0.48
0
% es.tEz (V/m) @ t=0.48
-0.9130788735124735
% V (V) @ t=0.48
0.014545515930354766
% es.normE (V/m) @ t=0.5
1.442016644186361
% es.EX (V/m) @ t=0.5
-1.0323506767524595
% es.EY (V/m) @ t=0.5
0.3931544615325002
% es.EZ (V/m) @ t=0.5
-0.9212162344088304
% es.tEX (V/m) @ t=0.5
-1.0323506767524604
% es.tEY (V/m) @ t=0.5
0
% es.tEZ (V/m) @ t=0.5
-0.9212162344088224
% es.Ex (V/m) @ t=0.5
-1.0323506767524595
% es.Ey (V/m) @ t=0.5
0.3931544615325002
% es.Ez (V/m) @ t=0.5
-0.9212162344088304
% es.tEx (V/m) @ t=0.5
-1.0323506767524604
% es.tEy (V/m) @ t=0.5
0
% es.tEz (V/m) @ t=0.5
-0.9212162344088224
% V (V) @ t=0.5
0.014675147098483773
% es.normE (V/m) @ t=0.52
1.4552351724483323
% es.EX (V/m) @ t=0.52
-1.0418139287325825
% es.EY (V/m) @ t=0.52
0.3967583540087407
% es.EZ (V/m) @ t=0.52
-0.9296607542403192
% es.tEX (V/m) @ t=0.52
-1.0418139287325778
% es.tEY (V/m) @ t=0.52
0
% es.tEZ (V/m) @ t=0.52
-0.9296607542403201
% es.Ex (V/m) @ t=0.52
-1.0418139287325825
% es.Ey (V/m) @ t=0.52
0.3967583540087407
% es.Ez (V/m) @ t=0.52
-0.9296607542403192
% es.tEx (V/m) @ t=0.52
-1.0418139287325778
% es.tEy (V/m) @ t=0.52
0
% es.tEz (V/m) @ t=0.52
-0.9296607542403201
% V (V) @ t=0.52
0.014809670953543255
% es.normE (V/m) @ t=0.54
1.4693528334384875
% es.EX (V/m) @ t=0.54
-1.0519208715727888
% es.EY (V/m) @ t=0.54
0.40060741317551063
% es.EZ (V/m) @ t=0.54
-0.9386796672571105
% es.tEX (V/m) @ t=0.54
-1.0519208715727895
% es.tEY (V/m) @ t=0.54
0
% es.tEZ (V/m) @ t=0.54
-0.9386796672571105
% es.Ex (V/m) @ t=0.54
-1.0519208715727888
% es.Ey (V/m) @ t=0.54
0.40060741317551063
% es.Ez (V/m) @ t=0.54
-0.9386796672571105
% es.tEx (V/m) @ t=0.54
-1.0519208715727895
% es.tEy (V/m) @ t=0.54
0
% es.tEz (V/m) @ t=0.54
-0.9386796672571105
% V (V) @ t=0.54
0.014953344228363155
% es.normE (V/m) @ t=0.56
1.4834704944286392
% es.EX (V/m) @ t=0.56
-1.0620278144130089
% es.EY (V/m) @ t=0.56
0.4044564723422486
% es.EZ (V/m) @ t=0.56
-0.947698580273892
% es.tEX (V/m) @ t=0.56
-1.0620278144130078
% es.tEY (V/m) @ t=0.56
0
% es.tEZ (V/m) @ t=0.56
-0.9476985802738973
% es.Ex (V/m) @ t=0.56
-1.0620278144130089
% es.Ey (V/m) @ t=0.56
0.4044564723422486
% es.Ez (V/m) @ t=0.56
-0.947698580273892
% es.tEx (V/m) @ t=0.56
-1.0620278144130078
% es.tEy (V/m) @ t=0.56
0
% es.tEz (V/m) @ t=0.56
-0.9476985802738973
% V (V) @ t=0.56
0.015097017503183052
% es.normE (V/m) @ t=0.58
1.497588155418794
% es.EX (V/m) @ t=0.58
-1.0721347572531996
% es.EY (V/m) @ t=0.58
0.4083055315090198
% es.EZ (V/m) @ t=0.58
-0.9567174932906966
% es.tEX (V/m) @ t=0.58
-1.0721347572531976
% es.tEY (V/m) @ t=0.58
0
% es.tEZ (V/m) @ t=0.58
-0.9567174932906948
% es.Ex (V/m) @ t=0.58
-1.0721347572531996
% es.Ey (V/m) @ t=0.58
0.4083055315090198
% es.Ez (V/m) @ t=0.58
-0.9567174932906966
% es.tEx (V/m) @ t=0.58
-1.0721347572531976
% es.tEy (V/m) @ t=0.58
0
% es.tEz (V/m) @ t=0.58
-0.9567174932906948
% V (V) @ t=0.58
0.015240690778002951
% es.normE (V/m) @ t=0.6
1.5117058164089352
% es.EX (V/m) @ t=0.6
-1.0822417000934037
% es.EY (V/m) @ t=0.6
0.4121545906757835
% es.EZ (V/m) @ t=0.6
-0.9657364063074709
% es.tEX (V/m) @ t=0.6
-1.0822417000934026
% es.tEY (V/m) @ t=0.6
0
% es.tEZ (V/m) @ t=0.6
-0.9657364063074692
% es.Ex (V/m) @ t=0.6
-1.0822417000934037
% es.Ey (V/m) @ t=0.6
0.4121545906757835
% es.Ez (V/m) @ t=0.6
-0.9657364063074709
% es.tEx (V/m) @ t=0.6
-1.0822417000934026
% es.tEy (V/m) @ t=0.6
0
% es.tEz (V/m) @ t=0.6
-0.9657364063074692
% V (V) @ t=0.6
0.015384364052822848
% es.normE (V/m) @ t=0.62
1.5258234773990829
% es.EX (V/m) @ t=0.62
-1.0923486429336193
% es.EY (V/m) @ t=0.62
0.4160036498425077
% es.EZ (V/m) @ t=0.62
-0.9747553193242542
% es.tEX (V/m) @ t=0.62
-1.0923486429336138
% es.tEY (V/m) @ t=0.62
0
% es.tEZ (V/m) @ t=0.62
-0.9747553193242666
% es.Ex (V/m) @ t=0.62
-1.0923486429336193
% es.Ey (V/m) @ t=0.62
0.4160036498425077
% es.Ez (V/m) @ t=0.62
-0.9747553193242542
% es.tEx (V/m) @ t=0.62
-1.0923486429336138
% es.tEy (V/m) @ t=0.62
0
% es.tEz (V/m) @ t=0.62
-0.9747553193242666
% V (V) @ t=0.62
0.015528037327642744
% es.normE (V/m) @ t=0.64
1.5399411383892456
% es.EX (V/m) @ t=0.64
-1.1024555857738447
% es.EY (V/m) @ t=0.64
0.4198527090092856
% es.EZ (V/m) @ t=0.64
-0.9837742323410303
% es.tEX (V/m) @ t=0.64
-1.1024555857738463
% es.tEY (V/m) @ t=0.64
0
% es.tEZ (V/m) @ t=0.64
-0.9837742323410321
% es.Ex (V/m) @ t=0.64
-1.1024555857738447
% es.Ey (V/m) @ t=0.64
0.4198527090092856
% es.Ez (V/m) @ t=0.64
-0.9837742323410303
% es.tEx (V/m) @ t=0.64
-1.1024555857738463
% es.tEy (V/m) @ t=0.64
0
% es.tEz (V/m) @ t=0.64
-0.9837742323410321
% V (V) @ t=0.64
0.015671710602462644
% es.normE (V/m) @ t=0.66
1.5540587993793968
% es.EX (V/m) @ t=0.66
-1.1125625286140417
% es.EY (V/m) @ t=0.66
0.4237017681760533
% es.EZ (V/m) @ t=0.66
-0.9927931453578243
% es.tEX (V/m) @ t=0.66
-1.1125625286140433
% es.tEY (V/m) @ t=0.66
0
% es.tEZ (V/m) @ t=0.66
-0.9927931453578136
% es.Ex (V/m) @ t=0.66
-1.1125625286140417
% es.Ey (V/m) @ t=0.66
0.4237017681760533
% es.Ez (V/m) @ t=0.66
-0.9927931453578243
% es.tEx (V/m) @ t=0.66
-1.1125625286140433
% es.tEy (V/m) @ t=0.66
0
% es.tEz (V/m) @ t=0.66
-0.9927931453578136
% V (V) @ t=0.66
0.01581538387728254
% es.normE (V/m) @ t=0.68
1.5681764603695458
% es.EX (V/m) @ t=0.68
-1.1226694714542467
% es.EY (V/m) @ t=0.68
0.4275508273428166
% es.EZ (V/m) @ t=0.68
-1.0018120583746075
% es.tEX (V/m) @ t=0.68
-1.1226694714542447
% es.tEY (V/m) @ t=0.68
0
% es.tEZ (V/m) @ t=0.68
-1.001812058374611
% es.Ex (V/m) @ t=0.68
-1.1226694714542467
% es.Ey (V/m) @ t=0.68
0.4275508273428166
% es.Ez (V/m) @ t=0.68
-1.0018120583746075
% es.tEx (V/m) @ t=0.68
-1.1226694714542447
% es.tEy (V/m) @ t=0.68
0
% es.tEz (V/m) @ t=0.68
-1.001812058374611
% V (V) @ t=0.68
0.015959057152102437
% es.normE (V/m) @ t=0.7
1.582294121359701
% es.EX (V/m) @ t=0.7
-1.132776414294465
% es.EY (V/m) @ t=0.7
0.4313998865095696
% es.EZ (V/m) @ t=0.7
-1.0108309713913908
% es.tEX (V/m) @ t=0.7
-1.132776414294463
% es.tEY (V/m) @ t=0.7
0
% es.tEZ (V/m) @ t=0.7
-1.0108309713913997
% es.Ex (V/m) @ t=0.7
-1.132776414294465
% es.Ey (V/m) @ t=0.7
0.4313998865095696
% es.Ez (V/m) @ t=0.7
-1.0108309713913908
% es.tEx (V/m) @ t=0.7
-1.132776414294463
% es.tEy (V/m) @ t=0.7
0
% es.tEz (V/m) @ t=0.7
-1.0108309713913997
% V (V) @ t=0.7
0.016102730426922337
% es.normE (V/m) @ t=0.72
1.5964117823498623
% es.EX (V/m) @ t=0.72
-1.1428833571346717
% es.EY (V/m) @ t=0.72
0.4352489456763329
% es.EZ (V/m) @ t=0.72
-1.0198498844081882
% es.tEX (V/m) @ t=0.72
-1.1428833571346741
% es.tEY (V/m) @ t=0.72
0
% es.tEZ (V/m) @ t=0.72
-1.019849884408183
% es.Ex (V/m) @ t=0.72
-1.1428833571346717
% es.Ey (V/m) @ t=0.72
0.4352489456763329
% es.Ez (V/m) @ t=0.72
-1.0198498844081882
% es.tEx (V/m) @ t=0.72
-1.1428833571346741
% es.tEy (V/m) @ t=0.72
0
% es.tEz (V/m) @ t=0.72
-1.019849884408183
% V (V) @ t=0.72
0.016246403701742233
% es.normE (V/m) @ t=0.74
1.6105294433400217
% es.EX (V/m) @ t=0.74
-1.1529902999748918
% es.EY (V/m) @ t=0.74
0.43909800484310013
% es.EZ (V/m) @ t=0.74
-1.028868797424968
% es.tEX (V/m) @ t=0.74
-1.1529902999748924
% es.tEY (V/m) @ t=0.74
0
% es.tEZ (V/m) @ t=0.74
-1.0288687974249768
% es.Ex (V/m) @ t=0.74
-1.1529902999748918
% es.Ey (V/m) @ t=0.74
0.43909800484310013
% es.Ez (V/m) @ t=0.74
-1.028868797424968
% es.tEx (V/m) @ t=0.74
-1.1529902999748924
% es.tEy (V/m) @ t=0.74
0
% es.tEz (V/m) @ t=0.74
-1.0288687974249768
% V (V) @ t=0.74
0.01639007697656213
% es.normE (V/m) @ t=0.76
1.624647104330165
% es.EX (V/m) @ t=0.76
-1.1630972428150959
% es.EY (V/m) @ t=0.76
0.4429470640098443
% es.EZ (V/m) @ t=0.76
-1.0378877104417512
% es.tEX (V/m) @ t=0.76
-1.1630972428150939
% es.tEY (V/m) @ t=0.76
0
% es.tEZ (V/m) @ t=0.76
-1.037887710441744
% es.Ex (V/m) @ t=0.76
-1.1630972428150959
% es.Ey (V/m) @ t=0.76
0.4429470640098443
% es.Ez (V/m) @ t=0.76
-1.0378877104417512
% es.tEx (V/m) @ t=0.76
-1.1630972428150939
% es.tEy (V/m) @ t=0.76
0
% es.tEz (V/m) @ t=0.76
-1.037887710441744
% V (V) @ t=0.76
0.01653375025138203
% es.normE (V/m) @ t=0.78
1.639582149091331
% es.EX (V/m) @ t=0.78
-1.173789355115525
% es.EY (V/m) @ t=0.78
0.4470189850932922
% es.EZ (V/m) @ t=0.78
-1.0474287973486636
% es.tEX (V/m) @ t=0.78
-1.1737893551155265
% es.tEY (V/m) @ t=0.78
0
% es.tEZ (V/m) @ t=0.78
-1.0474287973486724
% es.Ex (V/m) @ t=0.78
-1.173789355115525
% es.Ey (V/m) @ t=0.78
0.4470189850932922
% es.Ez (V/m) @ t=0.78
-1.0474287973486636
% es.tEx (V/m) @ t=0.78
-1.1737893551155265
% es.tEy (V/m) @ t=0.78
0
% es.tEz (V/m) @ t=0.78
-1.0474287973486724
% V (V) @ t=0.78
0.016685741585673583
% es.normE (V/m) @ t=0.8
1.6552544364147348
% es.EX (V/m) @ t=0.8
-1.1850092633515927
% es.EY (V/m) @ t=0.8
0.45129191737409524
% es.EZ (V/m) @ t=0.8
-1.0574408610847383
% es.tEX (V/m) @ t=0.8
-1.1850092633515907
% es.tEY (V/m) @ t=0.8
0
% es.tEZ (V/m) @ t=0.8
-1.0574408610847499
% es.Ex (V/m) @ t=0.8
-1.1850092633515927
% es.Ey (V/m) @ t=0.8
0.45129191737409524
% es.Ez (V/m) @ t=0.8
-1.0574408610847383
% es.tEx (V/m) @ t=0.8
-1.1850092633515907
% es.tEy (V/m) @ t=0.8
0
% es.tEz (V/m) @ t=0.8
-1.0574408610847499
% V (V) @ t=0.8
0.01684523542698231
% es.normE (V/m) @ t=0.82
1.67092672373815
% es.EX (V/m) @ t=0.82
-1.1962291715876503
% es.EY (V/m) @ t=0.82
0.4555648496548623
% es.EZ (V/m) @ t=0.82
-1.0674529248208602
% es.tEX (V/m) @ t=0.82
-1.196229171587651
% es.tEY (V/m) @ t=0.82
0
% es.tEZ (V/m) @ t=0.82
-1.0674529248208504
% es.Ex (V/m) @ t=0.82
-1.1962291715876503
% es.Ey (V/m) @ t=0.82
0.4555648496548623
% es.Ez (V/m) @ t=0.82
-1.0674529248208602
% es.tEx (V/m) @ t=0.82
-1.196229171587651
% es.tEy (V/m) @ t=0.82
0
% es.tEz (V/m) @ t=0.82
-1.0674529248208504
% V (V) @ t=0.82
0.017004729268291042
% es.normE (V/m) @ t=0.84
1.6865990110615456
% es.EX (V/m) @ t=0.84
-1.2074490798237119
% es.EY (V/m) @ t=0.84
0.4598377819356525
% es.EZ (V/m) @ t=0.84
-1.0774649885569314
% es.tEX (V/m) @ t=0.84
-1.207449079823712
% es.tEY (V/m) @ t=0.84
0
% es.tEZ (V/m) @ t=0.84
-1.0774649885569385
% es.Ex (V/m) @ t=0.84
-1.2074490798237119
% es.Ey (V/m) @ t=0.84
0.4598377819356525
% es.Ez (V/m) @ t=0.84
-1.0774649885569314
% es.tEx (V/m) @ t=0.84
-1.207449079823712
% es.tEy (V/m) @ t=0.84
0
% es.tEz (V/m) @ t=0.84
-1.0774649885569385
% V (V) @ t=0.84
0.01716422310959977
% es.normE (V/m) @ t=0.86
1.7022712983849604
% es.EX (V/m) @ t=0.86
-1.218668988059773
% es.EY (V/m) @ t=0.86
0.46411071421646
% es.EZ (V/m) @ t=0.86
-1.0874770522930293
% es.tEX (V/m) @ t=0.86
-1.218668988059778
% es.tEY (V/m) @ t=0.86
0
% es.tEZ (V/m) @ t=0.86
-1.087477052293039
% es.Ex (V/m) @ t=0.86
-1.218668988059773
% es.Ey (V/m) @ t=0.86
0.46411071421646
% es.Ez (V/m) @ t=0.86
-1.0874770522930293
% es.tEx (V/m) @ t=0.86
-1.218668988059778
% es.tEy (V/m) @ t=0.86
0
% es.tEz (V/m) @ t=0.86
-1.087477052293039
% V (V) @ t=0.86
0.017323716950908494
% es.normE (V/m) @ t=0.88
1.7179435857083654
% es.EX (V/m) @ t=0.88
-1.2298888962958505
% es.EY (V/m) @ t=0.88
0.46838364649723063
% es.EZ (V/m) @ t=0.88
-1.0974891160291094
% es.tEX (V/m) @ t=0.88
-1.229888896295856
% es.tEY (V/m) @ t=0.88
0
% es.tEZ (V/m) @ t=0.88
-1.0974891160291111
% es.Ex (V/m) @ t=0.88
-1.2298888962958505
% es.Ey (V/m) @ t=0.88
0.46838364649723063
% es.Ez (V/m) @ t=0.88
-1.0974891160291094
% es.tEx (V/m) @ t=0.88
-1.229888896295856
% es.tEy (V/m) @ t=0.88
0
% es.tEz (V/m) @ t=0.88
-1.0974891160291111
% V (V) @ t=0.88
0.01748321079221723
% es.normE (V/m) @ t=0.9
1.7336158730317697
% es.EX (V/m) @ t=0.9
-1.2411088045318974
% es.EY (V/m) @ t=0.9
0.4726565787780208
% es.EZ (V/m) @ t=0.9
-1.1075011797652143
% es.tEX (V/m) @ t=0.9
-1.2411088045318999
% es.tEY (V/m) @ t=0.9
0
% es.tEZ (V/m) @ t=0.9
-1.1075011797652206
% es.Ex (V/m) @ t=0.9
-1.2411088045318974
% es.Ey (V/m) @ t=0.9
0.4726565787780208
% es.Ez (V/m) @ t=0.9
-1.1075011797652143
% es.tEx (V/m) @ t=0.9
-1.2411088045318999
% es.tEy (V/m) @ t=0.9
0
% es.tEz (V/m) @ t=0.9
-1.1075011797652206
% V (V) @ t=0.9
0.017642704633525956
% es.normE (V/m) @ t=0.92
1.749288160355174
% es.EX (V/m) @ t=0.92
-1.2523287127679514
% es.EY (V/m) @ t=0.92
0.4769295110587892
% es.EZ (V/m) @ t=0.92
-1.1175132435013166
% es.tEX (V/m) @ t=0.92
-1.252328712767953
% es.tEY (V/m) @ t=0.92
0
% es.tEZ (V/m) @ t=0.92
-1.1175132435013069
% es.Ex (V/m) @ t=0.92
-1.2523287127679514
% es.Ey (V/m) @ t=0.92
0.4769295110587892
% es.Ez (V/m) @ t=0.92
-1.1175132435013166
% es.tEx (V/m) @ t=0.92
-1.252328712767953
% es.tEy (V/m) @ t=0.92
0
% es.tEz (V/m) @ t=0.92
-1.1175132435013069
% V (V) @ t=0.92
0.017802198474834687
% es.normE (V/m) @ t=0.94
1.7649604476785967
% es.EX (V/m) @ t=0.94
-1.2635486210040308
% es.EY (V/m) @ t=0.94
0.4812024433396007
% es.EZ (V/m) @ t=0.94
-1.127525307237402
% es.tEX (V/m) @ t=0.94
-1.2635486210040319
% es.tEY (V/m) @ t=0.94
0
% es.tEZ (V/m) @ t=0.94
-1.1275253072374092
% es.Ex (V/m) @ t=0.94
-1.2635486210040308
% es.Ey (V/m) @ t=0.94
0.4812024433396007
% es.Ez (V/m) @ t=0.94
-1.127525307237402
% es.tEx (V/m) @ t=0.94
-1.2635486210040319
% es.tEy (V/m) @ t=0.94
0
% es.tEz (V/m) @ t=0.94
-1.1275253072374092
% V (V) @ t=0.94
0.01796169231614342
% es.normE (V/m) @ t=0.96
1.7806327350019948
% es.EX (V/m) @ t=0.96
-1.2747685292401079
% es.EY (V/m) @ t=0.96
0.485475375620366
% es.EZ (V/m) @ t=0.96
-1.1375373709734724
% es.tEX (V/m) @ t=0.96
-1.274768529240105
% es.tEY (V/m) @ t=0.96
0
% es.tEZ (V/m) @ t=0.96
-1.1375373709734813
% es.Ex (V/m) @ t=0.96
-1.2747685292401079
% es.Ey (V/m) @ t=0.96
0.485475375620366
% es.Ez (V/m) @ t=0.96
-1.1375373709734724
% es.tEx (V/m) @ t=0.96
-1.274768529240105
% es.tEy (V/m) @ t=0.96
0
% es.tEz (V/m) @ t=0.96
-1.1375373709734813
% V (V) @ t=0.96
0.018121186157452146
% es.normE (V/m) @ t=0.98
1.7963050223254067
% es.EX (V/m) @ t=0.98
-1.2859884374761534
% es.EY (V/m) @ t=0.98
0.48974830790116286
% es.EZ (V/m) @ t=0.98
-1.1475494347095854
% es.tEX (V/m) @ t=0.98
-1.2859884374761474
% es.tEY (V/m) @ t=0.98
0
% es.tEZ (V/m) @ t=0.98
-1.1475494347095907
% es.Ex (V/m) @ t=0.98
-1.2859884374761534
% es.Ey (V/m) @ t=0.98
0.48974830790116286
% es.Ez (V/m) @ t=0.98
-1.1475494347095854
% es.tEx (V/m) @ t=0.98
-1.2859884374761474
% es.tEy (V/m) @ t=0.98
0
% es.tEz (V/m) @ t=0.98
-1.1475494347095907
% V (V) @ t=0.98
0.018280679998760877
% es.normE (V/m) @ t=1
1.8119773096488028
% es.EX (V/m) @ t=1
-1.2972083457122146
% es.EY (V/m) @ t=1
0.49402124018195837
% es.EZ (V/m) @ t=1
-1.1575614984456575
% es.tEX (V/m) @ t=1
-1.2972083457122192
% es.tEY (V/m) @ t=1
0
% es.tEZ (V/m) @ t=1
-1.1575614984456628
% es.Ex (V/m) @ t=1
-1.2972083457122146
% es.Ey (V/m) @ t=1
0.49402124018195837
% es.Ez (V/m) @ t=1
-1.1575614984456575
% es.tEx (V/m) @ t=1
-1.2972083457122192
% es.tEy (V/m) @ t=1
0
% es.tEz (V/m) @ t=1
-1.1575614984456628
% V (V) @ t=1
0.01844017384006961
% es.normE (V/m) @ t=1.02
1.82764959697223
% es.EX (V/m) @ t=1.02
-1.3084282539482794
% es.EY (V/m) @ t=1.02
0.49829417246274677
% es.EZ (V/m) @ t=1.02
-1.1675735621817784
% es.tEX (V/m) @ t=1.02
-1.3084282539482763
% es.tEY (V/m) @ t=1.02
0
% es.tEZ (V/m) @ t=1.02
-1.1675735621817793
% es.Ex (V/m) @ t=1.02
-1.3084282539482794
% es.Ey (V/m) @ t=1.02
0.49829417246274677
% es.Ez (V/m) @ t=1.02
-1.1675735621817784
% es.tEx (V/m) @ t=1.02
-1.3084282539482763
% es.tEy (V/m) @ t=1.02
0
% es.tEz (V/m) @ t=1.02
-1.1675735621817793
% V (V) @ t=1.02
0.018599667681378333
% es.normE (V/m) @ t=1.04