% Model:              1 neuron.mph
% Version:            COMSOL 6.1.0.252
% Date:               Mar 22 2023, 19:23
% Dimension:          0
% Nodes:              14017
% Expressions:        14017
% Description:        Electric field norm, Electric field, X component, Electric field, Y component, Electric field, Z component, Tangential electric field, X component, Tangential electric field, Y component, Tangential electric field, Z component, Electric field, x component, Electric field, y component, Electric field, z component, Tangential electric field, x component, Tangential electric field, y component, Tangential electric field, z component, Electric potential
% Length unit:        mm
% x
1
% y
12.2
% z
1.6599999999999997
% es.normE (V/m) @ t=0
2.9150455002550935
% es.EX (V/m) @ t=0
2.6095769685732577
% es.EY (V/m) @ t=0
0.10040506889265638
% es.EZ (V/m) @ t=0
-1.2951899555682032
% es.tEX (V/m) @ t=0
2.6095769685732515
% es.tEY (V/m) @ t=0
0
% es.tEZ (V/m) @ t=0
-1.2951899555681976
% es.Ex (V/m) @ t=0
2.6095769685732577
% es.Ey (V/m) @ t=0
0.10040506889265638
% es.Ez (V/m) @ t=0
-1.2951899555682032
% es.tEx (V/m) @ t=0
2.6095769685732515
% es.tEy (V/m) @ t=0
0
% es.tEz (V/m) @ t=0
-1.2951899555681976
% V (V) @ t=0
0.013225531998576831
% es.normE (V/m) @ t=0.02
2.5177525115256945
% es.EX (V/m) @ t=0.02
2.253916436720136
% es.EY (V/m) @ t=0.02
0.08672081283260252
% es.EZ (V/m) @ t=0.02
-1.1186678776871193
% es.tEX (V/m) @ t=0.02
2.253916436720133
% es.tEY (V/m) @ t=0.02
0
% es.tEZ (V/m) @ t=0.02
-1.118667877687109
% es.Ex (V/m) @ t=0.02
2.253916436720136
% es.Ey (V/m) @ t=0.02
0.08672081283260252
% es.Ez (V/m) @ t=0.02
-1.1186678776871193
% es.tEx (V/m) @ t=0.02
2.253916436720133
% es.tEy (V/m) @ t=0.02
0
% es.tEz (V/m) @ t=0.02
-1.118667877687109
% V (V) @ t=0.02
0.011423017708870126
% es.normE (V/m) @ t=0.04
2.5409118182664603
% es.EX (V/m) @ t=0.04
2.2746488724737697
% es.EY (V/m) @ t=0.04
0.0875185061286724
% es.EZ (V/m) @ t=0.04
-1.1289578375798321
% es.tEX (V/m) @ t=0.04
2.2746488724737652
% es.tEY (V/m) @ t=0.04
0
% es.tEZ (V/m) @ t=0.04
-1.12895783757984
% es.Ex (V/m) @ t=0.04
2.2746488724737697
% es.Ey (V/m) @ t=0.04
0.0875185061286724
% es.Ez (V/m) @ t=0.04
-1.1289578375798321
% es.tEx (V/m) @ t=0.04
2.2746488724737652
% es.tEy (V/m) @ t=0.04
0
% es.tEz (V/m) @ t=0.04
-1.12895783757984
% V (V) @ t=0.04
0.01152809124375256
% es.normE (V/m) @ t=0.06
2.564241379831868
% es.EX (V/m) @ t=0.06
2.2955337218603167
% es.EY (V/m) @ t=0.06
0.088322062942295
% es.EZ (V/m) @ t=0.06
-1.139323444076021
% es.tEX (V/m) @ t=0.06
2.2955337218603136
% es.tEY (V/m) @ t=0.06
0
% es.tEZ (V/m) @ t=0.06
-1.1393234440760054
% es.Ex (V/m) @ t=0.06
2.2955337218603167
% es.Ey (V/m) @ t=0.06
0.088322062942295
% es.Ez (V/m) @ t=0.06
-1.139323444076021
% es.tEx (V/m) @ t=0.06
2.2955337218603136
% es.tEy (V/m) @ t=0.06
0
% es.tEz (V/m) @ t=0.06
-1.1393234440760054
% V (V) @ t=0.06
0.011633937250820493
% es.normE (V/m) @ t=0.08
2.588014875513455
% es.EX (V/m) @ t=0.08
2.3168159854228714
% es.EY (V/m) @ t=0.08
0.08914091081299352
% es.EZ (V/m) @ t=0.08
-1.1498862957320812
% es.tEX (V/m) @ t=0.08
2.3168159854228696
% es.tEY (V/m) @ t=0.08
0
% es.tEZ (V/m) @ t=0.08
-1.149886295732081
% es.Ex (V/m) @ t=0.08
2.3168159854228714
% es.Ey (V/m) @ t=0.08
0.08914091081299352
% es.Ez (V/m) @ t=0.08
-1.1498862957320812
% es.tEx (V/m) @ t=0.08
2.3168159854228696
% es.tEy (V/m) @ t=0.08
0
% es.tEz (V/m) @ t=0.08
-1.149886295732081
% V (V) @ t=0.08
0.01174179737058948
% es.normE (V/m) @ t=0.1
2.6119141221579762
% es.EX (V/m) @ t=0.1
2.338210822481114
% es.EY (V/m) @ t=0.1
0.08996409010376699
% es.EZ (V/m) @ t=0.1
-1.1605050200230487
% es.tEX (V/m) @ t=0.1
2.3382108224811136
% es.tEY (V/m) @ t=0.1
0
% es.tEZ (V/m) @ t=0.1
-1.1605050200230522
% es.Ex (V/m) @ t=0.1
2.338210822481114
% es.Ey (V/m) @ t=0.1
0.08996409010376699
% es.Ez (V/m) @ t=0.1
-1.1605050200230487
% es.tEx (V/m) @ t=0.1
2.3382108224811136
% es.tEy (V/m) @ t=0.1
0
% es.tEz (V/m) @ t=0.1
-1.1605050200230522
% V (V) @ t=0.1
0.011850228017836199
% es.normE (V/m) @ t=0.12
2.635813368802504
% es.EX (V/m) @ t=0.12
2.35960565953935
% es.EY (V/m) @ t=0.12
0.09078726939458048
% es.EZ (V/m) @ t=0.12
-1.1711237443140412
% es.tEX (V/m) @ t=0.12
2.359605659539344
% es.tEY (V/m) @ t=0.12
0
% es.tEZ (V/m) @ t=0.12
-1.1711237443140377
% es.Ex (V/m) @ t=0.12
2.35960565953935
% es.Ey (V/m) @ t=0.12
0.09078726939458048
% es.Ez (V/m) @ t=0.12
-1.1711237443140412
% es.tEx (V/m) @ t=0.12
2.359605659539344
% es.tEy (V/m) @ t=0.12
0
% es.tEz (V/m) @ t=0.12
-1.1711237443140377
% V (V) @ t=0.12
0.011958658665082922
% es.normE (V/m) @ t=0.14
2.6603912166415915
% es.EX (V/m) @ t=0.14
2.381607986989792
% es.EY (V/m) @ t=0.14
0.09163382235024942
% es.EZ (V/m) @ t=0.14
-1.1820439792519206
% es.tEX (V/m) @ t=0.14
2.3816079869897884
% es.tEY (V/m) @ t=0.14
0
% es.tEZ (V/m) @ t=0.14
-1.1820439792519224
% es.Ex (V/m) @ t=0.14
2.381607986989792
% es.Ey (V/m) @ t=0.14
0.09163382235024942
% es.Ez (V/m) @ t=0.14
-1.1820439792519206
% es.tEx (V/m) @ t=0.14
2.3816079869897884
% es.tEy (V/m) @ t=0.14
0
% es.tEz (V/m) @ t=0.14
-1.1820439792519224
% V (V) @ t=0.14
0.012070168114324601
% es.normE (V/m) @ t=0.16
2.6854919465261133
% es.EX (V/m) @ t=0.16
2.404078403534979
% es.EY (V/m) @ t=0.16
0.09249838539753158
% es.EZ (V/m) @ t=0.16
-1.1931965369517394
% es.tEX (V/m) @ t=0.16
2.4040784035349736
% es.tEY (V/m) @ t=0.16
0
% es.tEZ (V/m) @ t=0.16
-1.1931965369517386
% es.Ex (V/m) @ t=0.16
2.404078403534979
% es.Ey (V/m) @ t=0.16
0.09249838539753158
% es.Ez (V/m) @ t=0.16
-1.1931965369517394
% es.tEx (V/m) @ t=0.16
2.4040784035349736
% es.tEy (V/m) @ t=0.16
0
% es.tEz (V/m) @ t=0.16
-1.1931965369517386
% V (V) @ t=0.16
0.012184049870449128
% es.normE (V/m) @ t=0.18
2.710592676410685
% es.EX (V/m) @ t=0.18
2.426548820080197
% es.EY (V/m) @ t=0.18
0.09336294844483595
% es.EZ (V/m) @ t=0.18
-1.2043490946516044
% es.tEX (V/m) @ t=0.18
2.4265488200801935
% es.tEY (V/m) @ t=0.18
0
% es.tEZ (V/m) @ t=0.18
-1.2043490946515831
% es.Ex (V/m) @ t=0.18
2.426548820080197
% es.Ey (V/m) @ t=0.18
0.09336294844483595
% es.Ez (V/m) @ t=0.18
-1.2043490946516044
% es.tEx (V/m) @ t=0.18
2.4265488200801935
% es.tEy (V/m) @ t=0.18
0
% es.tEz (V/m) @ t=0.18
-1.2043490946515831
% V (V) @ t=0.18
0.012297931626573654
% es.normE (V/m) @ t=0.2
2.7356934062952
% es.EX (V/m) @ t=0.2
2.449019236625383
% es.EY (V/m) @ t=0.2
0.09422751149214742
% es.EZ (V/m) @ t=0.2
-1.2155016523514055
% es.tEX (V/m) @ t=0.2
2.4490192366253787
% es.tEY (V/m) @ t=0.2
0
% es.tEZ (V/m) @ t=0.2
-1.2155016523514135
% es.Ex (V/m) @ t=0.2
2.449019236625383
% es.Ey (V/m) @ t=0.2
0.09422751149214742
% es.Ez (V/m) @ t=0.2
-1.2155016523514055
% es.tEx (V/m) @ t=0.2
2.4490192366253787
% es.tEy (V/m) @ t=0.2
0
% es.tEz (V/m) @ t=0.2
-1.2155016523514135
% V (V) @ t=0.2
0.012411813382698178
% es.normE (V/m) @ t=0.22
2.7607941361797375
% es.EX (V/m) @ t=0.22
2.4714896531705737
% es.EY (V/m) @ t=0.22
0.0950920745394615
% es.EZ (V/m) @ t=0.22
-1.226654210051249
% es.tEX (V/m) @ t=0.22
2.471489653170571
% es.tEY (V/m) @ t=0.22
0
% es.tEZ (V/m) @ t=0.22
-1.2266542100512439
% es.Ex (V/m) @ t=0.22
2.4714896531705737
% es.Ey (V/m) @ t=0.22
0.0950920745394615
% es.Ez (V/m) @ t=0.22
-1.226654210051249
% es.tEx (V/m) @ t=0.22
2.471489653170571
% es.tEy (V/m) @ t=0.22
0
% es.tEz (V/m) @ t=0.22
-1.2266542100512439
% V (V) @ t=0.22
0.012525695138822701
% es.normE (V/m) @ t=0.24
2.785894866064272
% es.EX (V/m) @ t=0.24
2.493960069715767
% es.EY (V/m) @ t=0.24
0.0959566375867339
% es.EZ (V/m) @ t=0.24
-1.237806767751082
% es.tEX (V/m) @ t=0.24
2.4939600697157633
% es.tEY (V/m) @ t=0.24
0
% es.tEZ (V/m) @ t=0.24
-1.2378067677510742
% es.Ex (V/m) @ t=0.24
2.493960069715767
% es.Ey (V/m) @ t=0.24
0.0959566375867339
% es.Ez (V/m) @ t=0.24
-1.237806767751082
% es.tEx (V/m) @ t=0.24
2.4939600697157633
% es.tEy (V/m) @ t=0.24
0
% es.tEz (V/m) @ t=0.24
-1.2378067677510742
% V (V) @ t=0.24
0.012639576894947225
% es.normE (V/m) @ t=0.26
2.81136023113985
% es.EX (V/m) @ t=0.26
2.5167569109213153
% es.EY (V/m) @ t=0.26
0.09683375908130881
% es.EZ (V/m) @ t=0.26
-1.2491213379422819
% es.tEX (V/m) @ t=0.26
2.516756910921317
% es.tEY (V/m) @ t=0.26
0
% es.tEZ (V/m) @ t=0.26
-1.2491213379422845
% es.Ex (V/m) @ t=0.26
2.5167569109213153
% es.Ey (V/m) @ t=0.26
0.09683375908130881
% es.Ez (V/m) @ t=0.26
-1.2491213379422819
% es.tEx (V/m) @ t=0.26
2.516756910921317
% es.tEy (V/m) @ t=0.26
0
% es.tEz (V/m) @ t=0.26
-1.2491213379422845
% V (V) @ t=0.26
0.012755113044034172
% es.normE (V/m) @ t=0.28
2.839144390909965
% es.EX (V/m) @ t=0.28
2.5416295577242884
% es.EY (V/m) @ t=0.28
0.09779074248062619
% es.EZ (V/m) @ t=0.28
-1.2614661808956416
% es.tEX (V/m) @ t=0.28
2.541629557724284
% es.tEY (V/m) @ t=0.28
0
% es.tEZ (V/m) @ t=0.28
-1.2614661808956456
% es.Ex (V/m) @ t=0.28
2.5416295577242884
% es.Ey (V/m) @ t=0.28
0.09779074248062619
% es.Ez (V/m) @ t=0.28
-1.2614661808956416
% es.tEx (V/m) @ t=0.28
2.541629557724284
% es.tEy (V/m) @ t=0.28
0
% es.tEz (V/m) @ t=0.28
-1.2614661808956456
% V (V) @ t=0.28
0.012881169838736183
% es.normE (V/m) @ t=0.3
2.866928550680024
% es.EX (V/m) @ t=0.3
2.56650220452722
% es.EY (V/m) @ t=0.3
0.0987477258799046
% es.EZ (V/m) @ t=0.3
-1.2738110238489624
% es.tEX (V/m) @ t=0.3
2.5665022045272234
% es.tEY (V/m) @ t=0.3
0
% es.tEZ (V/m) @ t=0.3
-1.2738110238489497
% es.Ex (V/m) @ t=0.3
2.56650220452722
% es.Ey (V/m) @ t=0.3
0.0987477258799046
% es.Ez (V/m) @ t=0.3
-1.2738110238489624
% es.tEx (V/m) @ t=0.3
2.5665022045272234
% es.tEy (V/m) @ t=0.3
0
% es.tEz (V/m) @ t=0.3
-1.2738110238489497
% V (V) @ t=0.3
0.013007226633438191
% es.normE (V/m) @ t=0.32
2.8947127104501216
% es.EX (V/m) @ t=0.32
2.591374851330175
% es.EY (V/m) @ t=0.32
0.09970470927921582
% es.EZ (V/m) @ t=0.32
-1.2861558668023187
% es.tEX (V/m) @ t=0.32
2.591374851330168
% es.tEY (V/m) @ t=0.32
0
% es.tEZ (V/m) @ t=0.32
-1.2861558668023036
% es.Ex (V/m) @ t=0.32
2.591374851330175
% es.Ey (V/m) @ t=0.32
0.09970470927921582
% es.Ez (V/m) @ t=0.32
-1.2861558668023187
% es.tEx (V/m) @ t=0.32
2.591374851330168
% es.tEy (V/m) @ t=0.32
0
% es.tEz (V/m) @ t=0.32
-1.2861558668023036
% V (V) @ t=0.32
0.013133283428140198
% es.normE (V/m) @ t=0.34
2.9224968702201943
% es.EX (V/m) @ t=0.34
2.616247498133116
% es.EY (V/m) @ t=0.34
0.10066169267846309
% es.EZ (V/m) @ t=0.34
-1.2985007097556536
% es.tEX (V/m) @ t=0.34
2.616247498133114
% es.tEY (V/m) @ t=0.34
0
% es.tEZ (V/m) @ t=0.34
-1.2985007097556505
% es.Ex (V/m) @ t=0.34
2.616247498133116
% es.Ey (V/m) @ t=0.34
0.10066169267846309
% es.Ez (V/m) @ t=0.34
-1.2985007097556536
% es.tEx (V/m) @ t=0.34
2.616247498133114
% es.tEy (V/m) @ t=0.34
0
% es.tEz (V/m) @ t=0.34
-1.2985007097556505
% V (V) @ t=0.34
0.013259340222842204
% es.normE (V/m) @ t=0.36
2.9502810299902937
% es.EX (V/m) @ t=0.36
2.6411201449360755
% es.EY (V/m) @ t=0.36
0.10161867607779473
% es.EZ (V/m) @ t=0.36
-1.3108455527090028
% es.tEX (V/m) @ t=0.36
2.6411201449360746
% es.tEY (V/m) @ t=0.36
0
% es.tEZ (V/m) @ t=0.36
-1.310845552708983
% es.Ex (V/m) @ t=0.36
2.6411201449360755
% es.Ey (V/m) @ t=0.36
0.10161867607779473
% es.Ez (V/m) @ t=0.36
-1.3108455527090028
% es.tEx (V/m) @ t=0.36
2.6411201449360746
% es.tEy (V/m) @ t=0.36
0
% es.tEz (V/m) @ t=0.36
-1.310845552708983
% V (V) @ t=0.36
0.013385397017544215
% es.normE (V/m) @ t=0.38
2.978065189760365
% es.EX (V/m) @ t=0.38
2.6659927917390167
% es.EY (V/m) @ t=0.38
0.10257565947708114
% es.EZ (V/m) @ t=0.38
-1.3231903956623308
% es.tEX (V/m) @ t=0.38
2.6659927917390123
% es.tEY (V/m) @ t=0.38
0
% es.tEZ (V/m) @ t=0.38
-1.323190395662337
% es.Ex (V/m) @ t=0.38
2.6659927917390167
% es.Ey (V/m) @ t=0.38
0.10257565947708114
% es.Ez (V/m) @ t=0.38
-1.3231903956623308
% es.tEx (V/m) @ t=0.38
2.6659927917390123
% es.tEy (V/m) @ t=0.38
0
% es.tEz (V/m) @ t=0.38
-1.323190395662337
% V (V) @ t=0.38
0.013511453812246221
% es.normE (V/m) @ t=0.4
3.0058493495304504
% es.EX (V/m) @ t=0.4
2.6908654385419686
% es.EY (V/m) @ t=0.4
0.1035326428763994
% es.EZ (V/m) @ t=0.4
-1.3355352386156658
% es.tEX (V/m) @ t=0.4
2.690865438541965
% es.tEY (V/m) @ t=0.4
0
% es.tEZ (V/m) @ t=0.4
-1.3355352386156625
% es.Ex (V/m) @ t=0.4
2.6908654385419686
% es.Ey (V/m) @ t=0.4
0.1035326428763994
% es.Ez (V/m) @ t=0.4
-1.3355352386156658
% es.tEx (V/m) @ t=0.4
2.690865438541965
% es.tEy (V/m) @ t=0.4
0
% es.tEz (V/m) @ t=0.4
-1.3355352386156625
% V (V) @ t=0.4
0.01363751060694823
% es.normE (V/m) @ t=0.42
3.0336335093005378
% es.EX (V/m) @ t=0.42
2.715738085344922
% es.EY (V/m) @ t=0.42
0.10448962627565561
% es.EZ (V/m) @ t=0.42
-1.347880081569008
% es.tEX (V/m) @ t=0.42
2.715738085344926
% es.tEY (V/m) @ t=0.42
0
% es.tEZ (V/m) @ t=0.42
-1.3478800815690022
% es.Ex (V/m) @ t=0.42
2.715738085344922
% es.Ey (V/m) @ t=0.42
0.10448962627565561
% es.Ez (V/m) @ t=0.42
-1.347880081569008
% es.tEx (V/m) @ t=0.42
2.715738085344926
% es.tEy (V/m) @ t=0.42
0
% es.tEz (V/m) @ t=0.42
-1.3478800815690022
% V (V) @ t=0.42
0.01376356740165024
% es.normE (V/m) @ t=0.44
3.061417669070626
% es.EX (V/m) @ t=0.44
2.740610732147873
% es.EY (V/m) @ t=0.44
0.10544660967496333
% es.EZ (V/m) @ t=0.44
-1.3602249245223499
% es.tEX (V/m) @ t=0.44
2.7406107321478705
% es.tEY (V/m) @ t=0.44
0
% es.tEZ (V/m) @ t=0.44
-1.360224924522342
% es.Ex (V/m) @ t=0.44
2.740610732147873
% es.Ey (V/m) @ t=0.44
0.10544660967496333
% es.Ez (V/m) @ t=0.44
-1.3602249245223499
% es.tEx (V/m) @ t=0.44
2.7406107321478705
% es.tEy (V/m) @ t=0.44
0
% es.tEz (V/m) @ t=0.44
-1.360224924522342
% V (V) @ t=0.44
0.013889624196352247
% es.normE (V/m) @ t=0.46
3.089201828840706
% es.EX (V/m) @ t=0.46
2.765483378950822
% es.EY (V/m) @ t=0.46
0.10640359307424962
% es.EZ (V/m) @ t=0.46
-1.3725697674756814
% es.tEX (V/m) @ t=0.46
2.7654833789508233
% es.tEY (V/m) @ t=0.46
0
% es.tEZ (V/m) @ t=0.46
-1.3725697674756887
% es.Ex (V/m) @ t=0.46
2.765483378950822
% es.Ey (V/m) @ t=0.46
0.10640359307424962
% es.Ez (V/m) @ t=0.46
-1.3725697674756814
% es.tEx (V/m) @ t=0.46
2.7654833789508233
% es.tEy (V/m) @ t=0.46
0
% es.tEz (V/m) @ t=0.46
-1.3725697674756887
% V (V) @ t=0.46
0.014015680991054257
% es.normE (V/m) @ t=0.48
3.116985988610785
% es.EX (V/m) @ t=0.48
2.7903560257537636
% es.EY (V/m) @ t=0.48
0.10736057647355374
% es.EZ (V/m) @ t=0.48
-1.3849146104290235
% es.tEX (V/m) @ t=0.48
2.79035602575377
% es.tEY (V/m) @ t=0.48
0
% es.tEZ (V/m) @ t=0.48
-1.3849146104290142
% es.Ex (V/m) @ t=0.48
2.7903560257537636
% es.Ey (V/m) @ t=0.48
0.10736057647355374
% es.Ez (V/m) @ t=0.48
-1.3849146104290235
% es.tEx (V/m) @ t=0.48
2.79035602575377
% es.tEy (V/m) @ t=0.48
0
% es.tEz (V/m) @ t=0.48
-1.3849146104290142
% V (V) @ t=0.48
0.014141737785756262
% es.normE (V/m) @ t=0.5
3.1447701483808674
% es.EX (V/m) @ t=0.5
2.815228672556711
% es.EY (V/m) @ t=0.5
0.10831755987284364
% es.EZ (V/m) @ t=0.5
-1.397259453382362
% es.tEX (V/m) @ t=0.5
2.8152286725566995
% es.tEY (V/m) @ t=0.5
0
% es.tEZ (V/m) @ t=0.5
-1.3972594533823468
% es.Ex (V/m) @ t=0.5
2.815228672556711
% es.Ey (V/m) @ t=0.5
0.10831755987284364
% es.Ez (V/m) @ t=0.5
-1.397259453382362
% es.tEx (V/m) @ t=0.5
2.8152286725566995
% es.tEy (V/m) @ t=0.5
0
% es.tEz (V/m) @ t=0.5
-1.3972594533823468
% V (V) @ t=0.5
0.014267794580458269
% es.normE (V/m) @ t=0.52
3.1733938200958605
% es.EX (V/m) @ t=0.52
2.8408528591252593
% es.EY (V/m) @ t=0.52
0.10930346092247323
% es.EZ (V/m) @ t=0.52
-1.409977300418745
% es.tEX (V/m) @ t=0.52
2.8408528591252598
% es.tEY (V/m) @ t=0.52
0
% es.tEZ (V/m) @ t=0.52
-1.4099773004187384
% es.Ex (V/m) @ t=0.52
2.8408528591252593
% es.Ey (V/m) @ t=0.52
0.10930346092247323
% es.Ez (V/m) @ t=0.52
-1.409977300418745
% es.tEx (V/m) @ t=0.52
2.8408528591252598
% es.tEy (V/m) @ t=0.52
0
% es.tEz (V/m) @ t=0.52
-1.4099773004187384
% V (V) @ t=0.52
0.014397660147302174
% es.normE (V/m) @ t=0.54
3.2041973047505747
% es.EX (V/m) @ t=0.54
2.868428436755841
% es.EY (V/m) @ t=0.54
0.11036444734611273
% es.EZ (V/m) @ t=0.54
-1.423663661520615
% es.tEX (V/m) @ t=0.54
2.8684284367558384
% es.tEY (V/m) @ t=0.54
0
% es.tEZ (V/m) @ t=0.54
-1.4236636615206066
% es.Ex (V/m) @ t=0.54
2.868428436755841
% es.Ey (V/m) @ t=0.54
0.11036444734611273
% es.Ez (V/m) @ t=0.54
-1.423663661520615
% es.tEx (V/m) @ t=0.54
2.8684284367558384
% es.tEy (V/m) @ t=0.54
0
% es.tEz (V/m) @ t=0.54
-1.4236636615206066
% V (V) @ t=0.54
0.014537415282543226
% es.normE (V/m) @ t=0.56
3.235000789405281
% es.EX (V/m) @ t=0.56
2.8960040143864196
% es.EY (V/m) @ t=0.56
0.1114254337697132
% es.EZ (V/m) @ t=0.56
-1.437350022622478
% es.tEX (V/m) @ t=0.56
2.89600401438641
% es.tEY (V/m) @ t=0.56
0
% es.tEZ (V/m) @ t=0.56
-1.4373500226224607
% es.Ex (V/m) @ t=0.56
2.8960040143864196
% es.Ey (V/m) @ t=0.56
0.1114254337697132
% es.Ez (V/m) @ t=0.56
-1.437350022622478
% es.tEx (V/m) @ t=0.56
2.89600401438641
% es.tEy (V/m) @ t=0.56
0
% es.tEz (V/m) @ t=0.56
-1.4373500226224607
% V (V) @ t=0.56
0.014677170417784276
% es.normE (V/m) @ t=0.58
3.2658042740599975
% es.EX (V/m) @ t=0.58
2.9235795920170125
% es.EY (V/m) @ t=0.58
0.1124864201933421
% es.EZ (V/m) @ t=0.58
-1.4510363837243339
% es.tEX (V/m) @ t=0.58
2.92357959201701
% es.tEY (V/m) @ t=0.58
0
% es.tEZ (V/m) @ t=0.58
-1.4510363837243432
% es.Ex (V/m) @ t=0.58
2.9235795920170125
% es.Ey (V/m) @ t=0.58
0.1124864201933421
% es.Ez (V/m) @ t=0.58
-1.4510363837243339
% es.tEx (V/m) @ t=0.58
2.92357959201701
% es.tEy (V/m) @ t=0.58
0
% es.tEz (V/m) @ t=0.58
-1.4510363837243432
% V (V) @ t=0.58
0.014816925553025325
% es.normE (V/m) @ t=0.6
3.2966077587147007
% es.EX (V/m) @ t=0.6
2.9511551696475875
% es.EY (V/m) @ t=0.6
0.11354740661695584
% es.EZ (V/m) @ t=0.6
-1.464722744826197
% es.tEX (V/m) @ t=0.6
2.9511551696475813
% es.tEY (V/m) @ t=0.6
0
% es.tEZ (V/m) @ t=0.6
-1.4647227448261901
% es.Ex (V/m) @ t=0.6
2.9511551696475875
% es.Ey (V/m) @ t=0.6
0.11354740661695584
% es.Ez (V/m) @ t=0.6
-1.464722744826197
% es.tEx (V/m) @ t=0.6
2.9511551696475813
% es.tEy (V/m) @ t=0.6
0
% es.tEz (V/m) @ t=0.6
-1.4647227448261901
% V (V) @ t=0.6
0.014956680688266378
% es.normE (V/m) @ t=0.62
3.3274112433694283
% es.EX (V/m) @ t=0.62
2.978730747278184
% es.EY (V/m) @ t=0.62
0.11460839304057324
% es.EZ (V/m) @ t=0.62
-1.4784091059280708
% es.tEX (V/m) @ t=0.62
2.978730747278181
% es.tEY (V/m) @ t=0.62
0
% es.tEZ (V/m) @ t=0.62
-1.4784091059280726
% es.Ex (V/m) @ t=0.62
2.978730747278184
% es.Ey (V/m) @ t=0.62
0.11460839304057324
% es.Ez (V/m) @ t=0.62
-1.4784091059280708
% es.tEx (V/m) @ t=0.62
2.978730747278181
% es.tEy (V/m) @ t=0.62
0
% es.tEz (V/m) @ t=0.62
-1.4784091059280726
% V (V) @ t=0.62
0.015096435823507429
% es.normE (V/m) @ t=0.64
3.358214728024133
% es.EX (V/m) @ t=0.64
3.006306324908759
% es.EY (V/m) @ t=0.64
0.1156693794642163
% es.EZ (V/m) @ t=0.64
-1.4920954670299338
% es.tEX (V/m) @ t=0.64
3.0063063249087527
% es.tEY (V/m) @ t=0.64
0
% es.tEZ (V/m) @ t=0.64
-1.4920954670299125
% es.Ex (V/m) @ t=0.64
3.006306324908759
% es.Ey (V/m) @ t=0.64
0.1156693794642163
% es.Ez (V/m) @ t=0.64
-1.4920954670299338
% es.tEx (V/m) @ t=0.64
3.0063063249087527
% es.tEy (V/m) @ t=0.64
0
% es.tEz (V/m) @ t=0.64
-1.4920954670299125
% V (V) @ t=0.64
0.01523619095874848
% es.normE (V/m) @ t=0.66
3.3890182126788426
% es.EX (V/m) @ t=0.66
3.03388190253934
% es.EY (V/m) @ t=0.66
0.1167303658878488
% es.EZ (V/m) @ t=0.66
-1.5057818281317967
% es.tEX (V/m) @ t=0.66
3.0338819025393367
% es.tEY (V/m) @ t=0.66
0
% es.tEZ (V/m) @ t=0.66
-1.505781828131802
% es.Ex (V/m) @ t=0.66
3.03388190253934
% es.Ey (V/m) @ t=0.66
0.1167303658878488
% es.Ez (V/m) @ t=0.66
-1.5057818281317967
% es.tEx (V/m) @ t=0.66
3.0338819025393367
% es.tEy (V/m) @ t=0.66
0
% es.tEz (V/m) @ t=0.66
-1.505781828131802
% V (V) @ t=0.66
0.015375946093989533
% es.normE (V/m) @ t=0.68
3.4198216973335605
% es.EX (V/m) @ t=0.68
3.0614574801699295
% es.EY (V/m) @ t=0.68
0.11779135231147048
% es.EZ (V/m) @ t=0.68
-1.5194681892336632
% es.tEX (V/m) @ t=0.68
3.0614574801699224
% es.tEY (V/m) @ t=0.68
0
% es.tEZ (V/m) @ t=0.68
-1.5194681892336561
% es.Ex (V/m) @ t=0.68
3.0614574801699295
% es.Ey (V/m) @ t=0.68
0.11779135231147048
% es.Ez (V/m) @ t=0.68
-1.5194681892336632
% es.tEx (V/m) @ t=0.68
3.0614574801699224
% es.tEy (V/m) @ t=0.68
0
% es.tEz (V/m) @ t=0.68
-1.5194681892336561
% V (V) @ t=0.68
0.015515701229230584
% es.normE (V/m) @ t=0.7
3.4506251819882756
% es.EX (V/m) @ t=0.7
3.089033057800515
% es.EY (V/m) @ t=0.7
0.11885233873509587
% es.EZ (V/m) @ t=0.7
-1.53315455033553
% es.tEX (V/m) @ t=0.7
3.089033057800508
% es.tEY (V/m) @ t=0.7
0
% es.tEZ (V/m) @ t=0.7
-1.5331545503355244
% es.Ex (V/m) @ t=0.7
3.089033057800515
% es.Ey (V/m) @ t=0.7
0.11885233873509587
% es.Ez (V/m) @ t=0.7
-1.53315455033553
% es.tEx (V/m) @ t=0.7
3.089033057800508
% es.tEy (V/m) @ t=0.7
0
% es.tEz (V/m) @ t=0.7
-1.5331545503355244
% V (V) @ t=0.7
0.01565545636447163
% es.normE (V/m) @ t=0.72
3.4814286666429703
% es.EX (V/m) @ t=0.72
3.1166086354310867
% es.EY (V/m) @ t=0.72
0.1199133251586928
% es.EZ (V/m) @ t=0.72
-1.5468409114373822
% es.tEX (V/m) @ t=0.72
3.1166086354310867
% es.tEY (V/m) @ t=0.72
0
% es.tEZ (V/m) @ t=0.72
-1.5468409114373713
% es.Ex (V/m) @ t=0.72
3.1166086354310867
% es.Ey (V/m) @ t=0.72
0.1199133251586928
% es.Ez (V/m) @ t=0.72
-1.5468409114373822
% es.tEx (V/m) @ t=0.72
3.1166086354310867
% es.tEy (V/m) @ t=0.72
0
% es.tEz (V/m) @ t=0.72
-1.5468409114373713
% V (V) @ t=0.72
0.015795211499712684
% es.normE (V/m) @ t=0.74
3.5122321512976855
% es.EX (V/m) @ t=0.74
3.1441842130616697
% es.EY (V/m) @ t=0.74
0.1209743115823394
% es.EZ (V/m) @ t=0.74
-1.5605272725392525
% es.tEX (V/m) @ t=0.74
3.1441842130616813
% es.tEY (V/m) @ t=0.74
0
% es.tEZ (V/m) @ t=0.74
-1.5605272725392538
% es.Ex (V/m) @ t=0.74
3.1441842130616697
% es.Ey (V/m) @ t=0.74
0.1209743115823394
% es.Ez (V/m) @ t=0.74
-1.5605272725392525
% es.tEx (V/m) @ t=0.74
3.1441842130616813
% es.tEy (V/m) @ t=0.74
0
% es.tEz (V/m) @ t=0.74
-1.5605272725392538
% V (V) @ t=0.74
0.015934966634953734
% es.normE (V/m) @ t=0.76
3.543035635952392
% es.EX (V/m) @ t=0.76
3.171759790692251
% es.EY (V/m) @ t=0.76
0.12203529800592833
% es.EZ (V/m) @ t=0.76
-1.5742136336411119
% es.tEX (V/m) @ t=0.76
3.171759790692265
% es.tEY (V/m) @ t=0.76
0
% es.tEZ (V/m) @ t=0.76
-1.5742136336411008
% es.Ex (V/m) @ t=0.76
3.171759790692251
% es.Ey (V/m) @ t=0.76
0.12203529800592833
% es.Ez (V/m) @ t=0.76
-1.5742136336411119
% es.tEx (V/m) @ t=0.76
3.171759790692265
% es.tEy (V/m) @ t=0.76
0
% es.tEz (V/m) @ t=0.76
-1.5742136336411008
% V (V) @ t=0.76
0.01607472177019479
% es.normE (V/m) @ t=0.78
3.575268927660139
% es.EX (V/m) @ t=0.78
3.2006153454745183
% es.EY (V/m) @ t=0.78
0.12314553242868587
% es.EZ (V/m) @ t=0.78
-1.588535275237722
% es.tEX (V/m) @ t=0.78
3.2006153454745245
% es.tEY (V/m) @ t=0.78
0
% es.tEZ (V/m) @ t=0.78
-1.5885352752377173
% es.Ex (V/m) @ t=0.78
3.2006153454745183
% es.Ey (V/m) @ t=0.78
0.12314553242868587
% es.Ez (V/m) @ t=0.78
-1.588535275237722
% es.tEx (V/m) @ t=0.78
3.2006153454745245
% es.tEy (V/m) @ t=0.78
0
% es.tEz (V/m) @ t=0.78
-1.5885352752377173
% V (V) @ t=0.78
0.016220963921010932
% es.normE (V/m) @ t=0.8
3.60947502577127
% es.EX (V/m) @ t=0.8
3.2312369756972834
% es.EY (V/m) @ t=0.8
0.12432371781573903
% es.EZ (V/m) @ t=0.8
-1.603733458480527
% es.tEX (V/m) @ t=0.8
3.2312369756973
% es.tEY (V/m) @ t=0.8
0
% es.tEZ (V/m) @ t=0.8
-1.6037334584805194
% es.Ex (V/m) @ t=0.8
3.2312369756972834
% es.Ey (V/m) @ t=0.8
0.12432371781573903
% es.Ez (V/m) @ t=0.8
-1.603733458480527
% es.tEx (V/m) @ t=0.8
3.2312369756973
% es.tEy (V/m) @ t=0.8
0
% es.tEz (V/m) @ t=0.8
-1.6037334584805194
% V (V) @ t=0.8
0.016376156668229558
% es.normE (V/m) @ t=0.82
3.6436811238823714
% es.EX (V/m) @ t=0.82
3.261858605920035
% es.EY (V/m) @ t=0.82
0.12550190320277094
% es.EZ (V/m) @ t=0.82
-1.618931641723293
% es.tEX (V/m) @ t=0.82
3.2618586059200467
% es.tEY (V/m) @ t=0.82
0
% es.tEZ (V/m) @ t=0.82
-1.618931641723293
% es.Ex (V/m) @ t=0.82
3.261858605920035
% es.Ey (V/m) @ t=0.82
0.12550190320277094
% es.Ez (V/m) @ t=0.82
-1.618931641723293
% es.tEx (V/m) @ t=0.82
3.2618586059200467
% es.tEy (V/m) @ t=0.82
0
% es.tEz (V/m) @ t=0.82
-1.618931641723293
% V (V) @ t=0.82
0.016531349415448184
% es.normE (V/m) @ t=0.84
3.6778872219935232
% es.EX (V/m) @ t=0.84
3.292480236142814
% es.EY (V/m) @ t=0.84
0.12668008858985347
% es.EZ (V/m) @ t=0.84
-1.6341298249661125
% es.tEX (V/m) @ t=0.84
3.292480236142824
% es.tEY (V/m) @ t=0.84
0
% es.tEZ (V/m) @ t=0.84
-1.6341298249660952
% es.Ex (V/m) @ t=0.84
3.292480236142814
% es.Ey (V/m) @ t=0.84
0.12668008858985347
% es.Ez (V/m) @ t=0.84
-1.6341298249661125
% es.tEx (V/m) @ t=0.84
3.292480236142824
% es.tEy (V/m) @ t=0.84
0
% es.tEz (V/m) @ t=0.84
-1.6341298249660952
% V (V) @ t=0.84
0.01668654216266681
% es.normE (V/m) @ t=0.86
3.712093320104636
% es.EX (V/m) @ t=0.86
3.323101866365565
% es.EY (V/m) @ t=0.86
0.12785827397689065
% es.EZ (V/m) @ t=0.86
-1.649328008208907
% es.tEX (V/m) @ t=0.86
3.3231018663655423
% es.tEY (V/m) @ t=0.86
0
% es.tEZ (V/m) @ t=0.86
-1.649328008208883
% es.Ex (V/m) @ t=0.86
3.323101866365565
% es.Ey (V/m) @ t=0.86
0.12785827397689065
% es.Ez (V/m) @ t=0.86
-1.649328008208907
% es.tEx (V/m) @ t=0.86
3.3231018663655423
% es.tEy (V/m) @ t=0.86
0
% es.tEz (V/m) @ t=0.86
-1.649328008208883
% V (V) @ t=0.86
0.01684173490988543
% es.normE (V/m) @ t=0.88
3.7462994182157314
% es.EX (V/m) @ t=0.88
3.3537234965883096
% es.EY (V/m) @ t=0.88
0.12903645936393854
% es.EZ (V/m) @ t=0.88
-1.664526191451673
% es.tEX (V/m) @ t=0.88
3.353723496588305
% es.tEY (V/m) @ t=0.88
0
% es.tEZ (V/m) @ t=0.88
-1.664526191451671
% es.Ex (V/m) @ t=0.88
3.3537234965883096
% es.Ey (V/m) @ t=0.88
0.12903645936393854
% es.Ez (V/m) @ t=0.88
-1.664526191451673
% es.tEx (V/m) @ t=0.88
3.353723496588305
% es.tEy (V/m) @ t=0.88
0
% es.tEz (V/m) @ t=0.88
-1.664526191451671
% V (V) @ t=0.88
0.016996927657104057
% es.normE (V/m) @ t=0.9
3.7805055163268726
% es.EX (V/m) @ t=0.9
3.3843451268110814
% es.EY (V/m) @ t=0.9
0.13021464475095618
% es.EZ (V/m) @ t=0.9
-1.6797243746944885
% es.tEX (V/m) @ t=0.9
3.3843451268110663
% es.tEY (V/m) @ t=0.9
0
% es.tEZ (V/m) @ t=0.9
-1.679724374694466
% es.Ex (V/m) @ t=0.9
3.3843451268110814
% es.Ey (V/m) @ t=0.9
0.13021464475095618
% es.Ez (V/m) @ t=0.9
-1.6797243746944885
% es.tEx (V/m) @ t=0.9
3.3843451268110663
% es.tEy (V/m) @ t=0.9
0
% es.tEz (V/m) @ t=0.9
-1.679724374694466
% V (V) @ t=0.9
0.017152120404322683
% es.normE (V/m) @ t=0.92
3.814711614437971
% es.EX (V/m) @ t=0.92
3.414966757033833
% es.EY (V/m) @ t=0.92
0.13139283013799252
% es.EZ (V/m) @ t=0.92
-1.6949225579372476
% es.tEX (V/m) @ t=0.92
3.4149667570338273
% es.tEY (V/m) @ t=0.92
0
% es.tEZ (V/m) @ t=0.92
-1.6949225579372467
% es.Ex (V/m) @ t=0.92
3.414966757033833
% es.Ey (V/m) @ t=0.92
0.13139283013799252
% es.Ez (V/m) @ t=0.92
-1.6949225579372476
% es.tEx (V/m) @ t=0.92
3.4149667570338273
% es.tEy (V/m) @ t=0.92
0
% es.tEz (V/m) @ t=0.92
-1.6949225579372467
% V (V) @ t=0.92
0.01730731315154131
% es.normE (V/m) @ t=0.94
3.8489177125491016
% es.EX (V/m) @ t=0.94
3.445588387256591
% es.EY (V/m) @ t=0.94
0.13257101552507772
% es.EZ (V/m) @ t=0.94
-1.7101207411800634
% es.tEX (V/m) @ t=0.94
3.4455883872565902
% es.tEY (V/m) @ t=0.94
0
% es.tEZ (V/m) @ t=0.94
-1.7101207411800345
% es.Ex (V/m) @ t=0.94
3.445588387256591
% es.Ey (V/m) @ t=0.94
0.13257101552507772
% es.Ez (V/m) @ t=0.94
-1.7101207411800634
% es.tEx (V/m) @ t=0.94
3.4455883872565902
% es.tEy (V/m) @ t=0.94
0
% es.tEz (V/m) @ t=0.94
-1.7101207411800345
% V (V) @ t=0.94
0.017462505898759934
% es.normE (V/m) @ t=0.96
3.8831238106601984
% es.EX (V/m) @ t=0.96
3.4762100174793416
% es.EY (V/m) @ t=0.96
0.13374920091209713
% es.EZ (V/m) @ t=0.96
-1.7253189244228224
% es.tEX (V/m) @ t=0.96
3.476210017479337
% es.tEY (V/m) @ t=0.96
0
% es.tEZ (V/m) @ t=0.96
-1.7253189244228224
% es.Ex (V/m) @ t=0.96
3.4762100174793416
% es.Ey (V/m) @ t=0.96
0.13374920091209713
% es.Ez (V/m) @ t=0.96
-1.7253189244228224
% es.tEx (V/m) @ t=0.96
3.476210017479337
% es.tEy (V/m) @ t=0.96
0
% es.tEz (V/m) @ t=0.96
-1.7253189244228224
% V (V) @ t=0.96
0.017617698645978556
% es.normE (V/m) @ t=0.98
3.917329908771324
% es.EX (V/m) @ t=0.98
3.5068316477021004
% es.EY (V/m) @ t=0.98
0.13492738629913703
% es.EZ (V/m) @ t=0.98
-1.7405171076656276
% es.tEX (V/m) @ t=0.98
3.506831647702084
% es.tEY (V/m) @ t=0.98
0
% es.tEZ (V/m) @ t=0.98
-1.740517107665596
% es.Ex (V/m) @ t=0.98
3.5068316477021004
% es.Ey (V/m) @ t=0.98
0.13492738629913703
% es.Ez (V/m) @ t=0.98
-1.7405171076656276
% es.tEx (V/m) @ t=0.98
3.506831647702084
% es.tEy (V/m) @ t=0.98
0
% es.tEz (V/m) @ t=0.98
-1.740517107665596
% V (V) @ t=0.98
0.017772891393197182
% es.normE (V/m) @ t=1
3.951536006882429
% es.EX (V/m) @ t=1
3.5374532779248513
% es.EY (V/m) @ t=1
0.1361055716862027
% es.EZ (V/m) @ t=1
-1.7557152909084006
% es.tEX (V/m) @ t=1
3.537453277924847
% es.tEY (V/m) @ t=1
0
% es.tEZ (V/m) @ t=1
-1.7557152909084124
% es.Ex (V/m) @ t=1
3.5374532779248513
% es.Ey (V/m) @ t=1
0.1361055716862027
% es.Ez (V/m) @ t=1
-1.7557152909084006
% es.tEx (V/m) @ t=1
3.537453277924847
% es.tEy (V/m) @ t=1
0
% es.tEz (V/m) @ t=1
-1.7557152909084124
% V (V) @ t=1
0.017928084140415804
% es.normE (V/m) @ t=1.02
3.985742104993513
% es.EX (V/m) @ t=1.02
3.5680749081475804
% es.EY (V/m) @ t=1.02
0.13728375707323098
% es.EZ (V/m) @ t=1.02
-1.7709134741511736
% es.tEX (V/m) @ t=1.02
3.5680749081475938
% es.tEY (V/m) @ t=1.02
0
% es.tEZ (V/m) @ t=1.02
-1.770913474151186
% es.Ex (V/m) @ t=1.02
3.5680749081475804
% es.Ey (V/m) @ t=1.02
0.13728375707323098
% es.Ez (V/m) @ t=1.02
-1.7709134741511736
% es.tEx (V/m) @ t=1.02
3.5680749081475938
% es.tEy (V/m) @ t=1.02
0
% es.tEz (V/m) @ t=1.02
-1.770913474151186
% V (V) @ t=1.02
0.018083276887634434
% es.normE (V/m) @ t=1.04
4.020869136803862
% es.EX (V/m) @ t=1.04
3.5995209674406823
% es.EY (V/m) @ t=1.04
0.1384936638589871
% es.EZ (V/m) @ t=1.04
-1.7865208386832663
% es.tEX (V/m) @ t=1.04
3.5995209674406787
% es.tEY (V/m) @ t=1.04
0
% es.tEZ (V/m) @ t=1.04
-1.786520838683245
% es.Ex (V/m) @ t=1.04
3.5995209674406823