% Model:              1 neuron.mph
% Version:            COMSOL 6.1.0.252
% Date:               Mar 22 2023, 19:42
% Dimension:          0
% Nodes:              14017
% Expressions:        14017
% Description:        Electric field norm, Electric field, X component, Electric field, Y component, Electric field, Z component, Tangential electric field, X component, Tangential electric field, Y component, Tangential electric field, Z component, Electric field, x component, Electric field, y component, Electric field, z component, Tangential electric field, x component, Tangential electric field, y component, Tangential electric field, z component, Electric potential
% Length unit:        mm
% x
1.33
% y
12.2
% z
1.33
% es.normE (V/m) @ t=0
14.045803410909262
% es.EX (V/m) @ t=0
10.883871728306763
% es.EY (V/m) @ t=0
-1.6677312812499192
% es.EZ (V/m) @ t=0
8.695029597525828
% es.tEX (V/m) @ t=0
10.883871728306769
% es.tEY (V/m) @ t=0
0
% es.tEZ (V/m) @ t=0
8.69502959752582
% es.Ex (V/m) @ t=0
10.883871728306763
% es.Ey (V/m) @ t=0
-1.6677312812499192
% es.Ez (V/m) @ t=0
8.695029597525828
% es.tEx (V/m) @ t=0
10.883871728306769
% es.tEy (V/m) @ t=0
0
% es.tEz (V/m) @ t=0
8.69502959752582
% V (V) @ t=0
0.011599485028153457
% es.normE (V/m) @ t=0.02
12.131527449264258
% es.EX (V/m) @ t=0.02
9.400529451293243
% es.EY (V/m) @ t=0.02
-1.4404393388572672
% es.EZ (V/m) @ t=0.02
7.510000471418953
% es.tEX (V/m) @ t=0.02
9.400529451293307
% es.tEY (V/m) @ t=0.02
0
% es.tEZ (V/m) @ t=0.02
7.51000047141897
% es.Ex (V/m) @ t=0.02
9.400529451293243
% es.Ey (V/m) @ t=0.02
-1.4404393388572672
% es.Ez (V/m) @ t=0.02
7.510000471418953
% es.tEx (V/m) @ t=0.02
9.400529451293307
% es.tEy (V/m) @ t=0.02
0
% es.tEz (V/m) @ t=0.02
7.51000047141897
% V (V) @ t=0.02
0.010018613164884449
% es.normE (V/m) @ t=0.04
12.24315272068235
% es.EX (V/m) @ t=0.04
9.487026113967886
% es.EY (V/m) @ t=0.04
-1.4536931963435205
% es.EZ (V/m) @ t=0.04
7.579101896320352
% es.tEX (V/m) @ t=0.04
9.487026113967941
% es.tEY (V/m) @ t=0.04
0
% es.tEZ (V/m) @ t=0.04
7.5791018963203625
% es.Ex (V/m) @ t=0.04
9.487026113967886
% es.Ey (V/m) @ t=0.04
-1.4536931963435205
% es.Ez (V/m) @ t=0.04
7.579101896320352
% es.tEx (V/m) @ t=0.04
9.487026113967941
% es.tEy (V/m) @ t=0.04
0
% es.tEz (V/m) @ t=0.04
7.5791018963203625
% V (V) @ t=0.04
0.01011079698612707
% es.normE (V/m) @ t=0.06
12.35557638392052
% es.EX (V/m) @ t=0.06
9.574141436998417
% es.EY (V/m) @ t=0.06
-1.4670418575797353
% es.EZ (V/m) @ t=0.06
7.648697563757862
% es.tEX (V/m) @ t=0.06
9.57414143699843
% es.tEY (V/m) @ t=0.06
0
% es.tEZ (V/m) @ t=0.06
7.6486975637578585
% es.Ex (V/m) @ t=0.06
9.574141436998417
% es.Ey (V/m) @ t=0.06
-1.4670418575797353
% es.Ez (V/m) @ t=0.06
7.648697563757862
% es.tEx (V/m) @ t=0.06
9.57414143699843
% es.tEy (V/m) @ t=0.06
0
% es.tEz (V/m) @ t=0.06
7.6486975637578585
% V (V) @ t=0.06
0.010203640154640863
% es.normE (V/m) @ t=0.08
12.470188583893165
% es.EX (V/m) @ t=0.08
9.662952620955902
% es.EY (V/m) @ t=0.08
-1.480650387846154
% es.EZ (V/m) @ t=0.08
7.719648039980354
% es.tEX (V/m) @ t=0.08
9.662952620955897
% es.tEY (V/m) @ t=0.08
0
% es.tEZ (V/m) @ t=0.08
7.719648039980337
% es.Ex (V/m) @ t=0.08
9.662952620955902
% es.Ey (V/m) @ t=0.08
-1.480650387846154
% es.Ez (V/m) @ t=0.08
7.719648039980354
% es.tEx (V/m) @ t=0.08
9.662952620955897
% es.tEy (V/m) @ t=0.08
0
% es.tEz (V/m) @ t=0.08
7.719648039980337
% V (V) @ t=0.08
0.01029829070611734
% es.normE (V/m) @ t=0.1
12.58533665720321
% es.EX (V/m) @ t=0.1
9.752179044301613
% es.EY (V/m) @ t=0.1
-1.4943225482460072
% es.EZ (V/m) @ t=0.1
7.790930247397343
% es.tEX (V/m) @ t=0.1
9.752179044301654
% es.tEY (V/m) @ t=0.1
0
% es.tEZ (V/m) @ t=0.1
7.790930247397343
% es.Ex (V/m) @ t=0.1
9.752179044301613
% es.Ey (V/m) @ t=0.1
-1.4943225482460072
% es.Ez (V/m) @ t=0.1
7.790930247397343
% es.tEx (V/m) @ t=0.1
9.752179044301654
% es.tEy (V/m) @ t=0.1
0
% es.tEz (V/m) @ t=0.1
7.790930247397343
% V (V) @ t=0.1
0.010393383803668074
% es.normE (V/m) @ t=0.12
12.70048473051325
% es.EX (V/m) @ t=0.12
9.841405467647295
% es.EY (V/m) @ t=0.12
-1.5079947086459118
% es.EZ (V/m) @ t=0.12
7.862212454814342
% es.tEX (V/m) @ t=0.12
9.84140546764734
% es.tEY (V/m) @ t=0.12
0
% es.tEZ (V/m) @ t=0.12
7.862212454814342
% es.Ex (V/m) @ t=0.12
9.841405467647295
% es.Ey (V/m) @ t=0.12
-1.5079947086459118
% es.Ez (V/m) @ t=0.12
7.862212454814342
% es.tEx (V/m) @ t=0.12
9.84140546764734
% es.tEy (V/m) @ t=0.12
0
% es.tEz (V/m) @ t=0.12
7.862212454814342
% V (V) @ t=0.12
0.010488476901218808
% es.normE (V/m) @ t=0.14
12.819152625204609
% es.EX (V/m) @ t=0.14
9.933359350118986
% es.EY (V/m) @ t=0.14
-1.5220847585271837
% es.EZ (V/m) @ t=0.14
7.935673604268215
% es.tEX (V/m) @ t=0.14
9.933359350119037
% es.tEY (V/m) @ t=0.14
0
% es.tEZ (V/m) @ t=0.14
7.935673604268211
% es.Ex (V/m) @ t=0.14
9.933359350118986
% es.Ey (V/m) @ t=0.14
-1.5220847585271837
% es.Ez (V/m) @ t=0.14
7.935673604268215
% es.tEx (V/m) @ t=0.14
9.933359350119037
% es.tEy (V/m) @ t=0.14
0
% es.tEz (V/m) @ t=0.14
7.935673604268211
% V (V) @ t=0.14
0.010586476731079058
% es.normE (V/m) @ t=0.16
12.940044113641953
% es.EX (V/m) @ t=0.16
10.02703626350566
% es.EY (V/m) @ t=0.16
-1.5364388037470675
% es.EZ (V/m) @ t=0.16
8.010511267289367
% es.tEX (V/m) @ t=0.16
10.02703626350567
% es.tEY (V/m) @ t=0.16
0
% es.tEZ (V/m) @ t=0.16
8.010511267289358
% es.Ex (V/m) @ t=0.16
10.02703626350566
% es.Ey (V/m) @ t=0.16
-1.5364388037470675
% es.Ez (V/m) @ t=0.16
8.010511267289367
% es.tEx (V/m) @ t=0.16
10.02703626350567
% es.tEy (V/m) @ t=0.16
0
% es.tEz (V/m) @ t=0.16
8.010511267289358
% V (V) @ t=0.16
0.010686312844967471
% es.normE (V/m) @ t=0.18
13.060935602079281
% es.EX (V/m) @ t=0.18
10.120713176892277
% es.EY (V/m) @ t=0.18
-1.5507928489669425
% es.EZ (V/m) @ t=0.18
8.085348930310563
% es.tEX (V/m) @ t=0.18
10.12071317689233
% es.tEY (V/m) @ t=0.18
0
% es.tEZ (V/m) @ t=0.18
8.085348930310534
% es.Ex (V/m) @ t=0.18
10.120713176892277
% es.Ey (V/m) @ t=0.18
-1.5507928489669425
% es.Ez (V/m) @ t=0.18
8.085348930310563
% es.tEx (V/m) @ t=0.18
10.12071317689233
% es.tEy (V/m) @ t=0.18
0
% es.tEz (V/m) @ t=0.18
8.085348930310534
% V (V) @ t=0.18
0.010786148958855882
% es.normE (V/m) @ t=0.2
13.181827090516586
% es.EX (V/m) @ t=0.2
10.21439009027888
% es.EY (V/m) @ t=0.2
-1.5651468941867996
% es.EZ (V/m) @ t=0.2
8.160186593331739
% es.tEX (V/m) @ t=0.2
10.214390090278934
% es.tEY (V/m) @ t=0.2
0
% es.tEZ (V/m) @ t=0.2
8.16018659333173
% es.Ex (V/m) @ t=0.2
10.21439009027888
% es.Ey (V/m) @ t=0.2
-1.5651468941867996
% es.Ez (V/m) @ t=0.2
8.160186593331739
% es.tEx (V/m) @ t=0.2
10.214390090278934
% es.tEy (V/m) @ t=0.2
0
% es.tEz (V/m) @ t=0.2
8.16018659333173
% V (V) @ t=0.2
0.010885985072744296
% es.normE (V/m) @ t=0.22
13.302718578953915
% es.EX (V/m) @ t=0.22
10.308067003665519
% es.EY (V/m) @ t=0.22
-1.5795009394066515
% es.EZ (V/m) @ t=0.22
8.235024256352908
% es.tEX (V/m) @ t=0.22
10.308067003665567
% es.tEY (V/m) @ t=0.22
0
% es.tEZ (V/m) @ t=0.22
8.2350242563529
% es.Ex (V/m) @ t=0.22
10.308067003665519
% es.Ey (V/m) @ t=0.22
-1.5795009394066515
% es.Ez (V/m) @ t=0.22
8.235024256352908
% es.tEx (V/m) @ t=0.22
10.308067003665567
% es.tEy (V/m) @ t=0.22
0
% es.tEz (V/m) @ t=0.22
8.2350242563529
% V (V) @ t=0.22
0.010985821186632709
% es.normE (V/m) @ t=0.24
13.423610067391273
% es.EX (V/m) @ t=0.24
10.401743917052201
% es.EY (V/m) @ t=0.24
-1.593854984626514
% es.EZ (V/m) @ t=0.24
8.309861919374075
% es.tEX (V/m) @ t=0.24
10.401743917052228
% es.tEY (V/m) @ t=0.24
0
% es.tEZ (V/m) @ t=0.24
8.30986191937409
% es.Ex (V/m) @ t=0.24
10.401743917052201
% es.Ey (V/m) @ t=0.24
-1.593854984626514
% es.Ez (V/m) @ t=0.24
8.309861919374075
% es.tEx (V/m) @ t=0.24
10.401743917052228
% es.tEy (V/m) @ t=0.24
0
% es.tEz (V/m) @ t=0.24
8.30986191937409
% V (V) @ t=0.24
0.01108565730052112
% es.normE (V/m) @ t=0.26
13.54747581930132
% es.EX (V/m) @ t=0.26
10.497725396951909
% es.EY (V/m) @ t=0.26
-1.6085632424295557
% es.EZ (V/m) @ t=0.26
8.386540713323384
% es.tEX (V/m) @ t=0.26
10.497725396951955
% es.tEY (V/m) @ t=0.26
0
% es.tEZ (V/m) @ t=0.26
8.386540713323384
% es.Ex (V/m) @ t=0.26
10.497725396951909
% es.Ey (V/m) @ t=0.26
-1.6085632424295557
% es.Ez (V/m) @ t=0.26
8.386540713323384
% es.tEx (V/m) @ t=0.26
10.497725396951955
% es.tEy (V/m) @ t=0.26
0
% es.tEz (V/m) @ t=0.26
8.386540713323384
% V (V) @ t=0.26
0.011187951136052284
% es.normE (V/m) @ t=0.28
13.681191791211077
% es.EX (V/m) @ t=0.28
10.60133918224864
% es.EY (V/m) @ t=0.28
-1.6244445879239322
% es.EZ (V/m) @ t=0.28
8.469316998249354
% es.tEX (V/m) @ t=0.28
10.601339182248674
% es.tEY (V/m) @ t=0.28
0
% es.tEZ (V/m) @ t=0.28
8.469316998249365
% es.Ex (V/m) @ t=0.28
10.60133918224864
% es.Ey (V/m) @ t=0.28
-1.6244445879239322
% es.Ez (V/m) @ t=0.28
8.469316998249354
% es.tEx (V/m) @ t=0.28
10.601339182248674
% es.tEy (V/m) @ t=0.28
0
% es.tEz (V/m) @ t=0.28
8.469316998249365
% V (V) @ t=0.28
0.011298384498931013
% es.normE (V/m) @ t=0.3
13.814907763123074
% es.EX (V/m) @ t=0.3
10.704952967545353
% es.EY (V/m) @ t=0.3
-1.6403259334182305
% es.EZ (V/m) @ t=0.3
8.552093283175374
% es.tEX (V/m) @ t=0.3
10.704952967545395
% es.tEY (V/m) @ t=0.3
0
% es.tEZ (V/m) @ t=0.3
8.552093283175381
% es.Ex (V/m) @ t=0.3
10.704952967545353
% es.Ey (V/m) @ t=0.3
-1.6403259334182305
% es.Ez (V/m) @ t=0.3
8.552093283175374
% es.tEx (V/m) @ t=0.3
10.704952967545395
% es.tEy (V/m) @ t=0.3
0
% es.tEz (V/m) @ t=0.3
8.552093283175381
% V (V) @ t=0.3
0.011408817861809736
% es.normE (V/m) @ t=0.32
13.94862373503725
% es.EX (V/m) @ t=0.32
10.808566752842077
% es.EY (V/m) @ t=0.32
-1.6562072789126265
% es.EZ (V/m) @ t=0.32
8.634869568101381
% es.tEX (V/m) @ t=0.32
10.808566752842143
% es.tEY (V/m) @ t=0.32
0
% es.tEZ (V/m) @ t=0.32
8.634869568101369
% es.Ex (V/m) @ t=0.32
10.808566752842077
% es.Ey (V/m) @ t=0.32
-1.6562072789126265
% es.Ez (V/m) @ t=0.32
8.634869568101381
% es.tEx (V/m) @ t=0.32
10.808566752842143
% es.tEy (V/m) @ t=0.32
0
% es.tEz (V/m) @ t=0.32
8.634869568101369
% V (V) @ t=0.32
0.011519251224688463
% es.normE (V/m) @ t=0.34
14.082339706953533
% es.EX (V/m) @ t=0.34
10.91218053813883
% es.EY (V/m) @ t=0.34
-1.672088624406932
% es.EZ (V/m) @ t=0.34
8.71764585302736
% es.tEX (V/m) @ t=0.34
10.912180538138893
% es.tEY (V/m) @ t=0.34
0
% es.tEZ (V/m) @ t=0.34
8.717645853027353
% es.Ex (V/m) @ t=0.34
10.91218053813883
% es.Ey (V/m) @ t=0.34
-1.672088624406932
% es.Ez (V/m) @ t=0.34
8.71764585302736
% es.tEx (V/m) @ t=0.34
10.912180538138893
% es.tEy (V/m) @ t=0.34
0
% es.tEz (V/m) @ t=0.34
8.717645853027353
% V (V) @ t=0.34
0.011629684587567192
% es.normE (V/m) @ t=0.36
14.216055678871806
% es.EX (V/m) @ t=0.36
11.015794323435493
% es.EY (V/m) @ t=0.36
-1.6879699699012853
% es.EZ (V/m) @ t=0.36
8.800422137953353
% es.tEX (V/m) @ t=0.36
11.015794323435555
% es.tEY (V/m) @ t=0.36
0
% es.tEZ (V/m) @ t=0.36
8.800422137953348
% es.Ex (V/m) @ t=0.36
11.015794323435493
% es.Ey (V/m) @ t=0.36
-1.6879699699012853
% es.Ez (V/m) @ t=0.36
8.800422137953353
% es.tEx (V/m) @ t=0.36
11.015794323435555
% es.tEy (V/m) @ t=0.36
0
% es.tEz (V/m) @ t=0.36
8.800422137953348
% V (V) @ t=0.36
0.01174011795044592
% es.normE (V/m) @ t=0.38
14.349771650792126
% es.EX (V/m) @ t=0.38
11.11940810873221
% es.EY (V/m) @ t=0.38
-1.7038513153956263
% es.EZ (V/m) @ t=0.38
8.883198422879364
% es.tEX (V/m) @ t=0.38
11.119408108732276
% es.tEY (V/m) @ t=0.38
0
% es.tEZ (V/m) @ t=0.38
8.883198422879378
% es.Ex (V/m) @ t=0.38
11.11940810873221
% es.Ey (V/m) @ t=0.38
-1.7038513153956263
% es.Ez (V/m) @ t=0.38
8.883198422879364
% es.tEx (V/m) @ t=0.38
11.119408108732276
% es.tEy (V/m) @ t=0.38
0
% es.tEz (V/m) @ t=0.38
8.883198422879378
% V (V) @ t=0.38
0.011850551313324645
% es.normE (V/m) @ t=0.4
14.483487622714419
% es.EX (V/m) @ t=0.4
11.223021894028978
% es.EY (V/m) @ t=0.4
-1.7197326608899388
% es.EZ (V/m) @ t=0.4
8.965974707805378
% es.tEX (V/m) @ t=0.4
11.223021894028996
% es.tEY (V/m) @ t=0.4
0
% es.tEZ (V/m) @ t=0.4
8.965974707805366
% es.Ex (V/m) @ t=0.4
11.223021894028978
% es.Ey (V/m) @ t=0.4
-1.7197326608899388
% es.Ez (V/m) @ t=0.4
8.965974707805378
% es.tEx (V/m) @ t=0.4
11.223021894028996
% es.tEy (V/m) @ t=0.4
0
% es.tEz (V/m) @ t=0.4
8.965974707805366
% V (V) @ t=0.4
0.011960984676203372
% es.normE (V/m) @ t=0.42
14.617203594638529
% es.EX (V/m) @ t=0.42
11.32663567932566
% es.EY (V/m) @ t=0.42
-1.7356140063842833
% es.EZ (V/m) @ t=0.42
9.048750992731385
% es.tEX (V/m) @ t=0.42
11.326635679325715
% es.tEY (V/m) @ t=0.42
0
% es.tEZ (V/m) @ t=0.42
9.048750992731367
% es.Ex (V/m) @ t=0.42
11.32663567932566
% es.Ey (V/m) @ t=0.42
-1.7356140063842833
% es.Ez (V/m) @ t=0.42
9.048750992731385
% es.tEx (V/m) @ t=0.42
11.326635679325715
% es.tEy (V/m) @ t=0.42
0
% es.tEz (V/m) @ t=0.42
9.048750992731367
% V (V) @ t=0.42
0.012071418039082097
% es.normE (V/m) @ t=0.44
14.750919566564466
% es.EX (V/m) @ t=0.44
11.430249464622378
% es.EY (V/m) @ t=0.44
-1.7514953518786491
% es.EZ (V/m) @ t=0.44
9.13152727765734
% es.tEX (V/m) @ t=0.44
11.430249464622381
% es.tEY (V/m) @ t=0.44
0
% es.tEZ (V/m) @ t=0.44
9.131527277657353
% es.Ex (V/m) @ t=0.44
11.430249464622378
% es.Ey (V/m) @ t=0.44
-1.7514953518786491
% es.Ez (V/m) @ t=0.44
9.13152727765734
% es.tEx (V/m) @ t=0.44
11.430249464622381
% es.tEy (V/m) @ t=0.44
0
% es.tEz (V/m) @ t=0.44
9.131527277657353
% V (V) @ t=0.44
0.012181851401960824
% es.normE (V/m) @ t=0.46
14.884635538492233
% es.EX (V/m) @ t=0.46
11.533863249919118
% es.EY (V/m) @ t=0.46
-1.7673766973729759
% es.EZ (V/m) @ t=0.46
9.214303562583348
% es.tEX (V/m) @ t=0.46
11.533863249919158
% es.tEY (V/m) @ t=0.46
0
% es.tEZ (V/m) @ t=0.46
9.214303562583327
% es.Ex (V/m) @ t=0.46
11.533863249919118
% es.Ey (V/m) @ t=0.46
-1.7673766973729759
% es.Ez (V/m) @ t=0.46
9.214303562583348
% es.tEx (V/m) @ t=0.46
11.533863249919158
% es.tEy (V/m) @ t=0.46
0
% es.tEz (V/m) @ t=0.46
9.214303562583327
% V (V) @ t=0.46
0.012292284764839553
% es.normE (V/m) @ t=0.48
15.01835151042168
% es.EX (V/m) @ t=0.48
11.637477035215808
% es.EY (V/m) @ t=0.48
-1.7832580428672653
% es.EZ (V/m) @ t=0.48
9.297079847509334
% es.tEX (V/m) @ t=0.48
11.637477035215849
% es.tEY (V/m) @ t=0.48
0
% es.tEZ (V/m) @ t=0.48
9.297079847509341
% es.Ex (V/m) @ t=0.48
11.637477035215808
% es.Ey (V/m) @ t=0.48
-1.7832580428672653
% es.Ez (V/m) @ t=0.48
9.297079847509334
% es.tEx (V/m) @ t=0.48
11.637477035215849
% es.tEy (V/m) @ t=0.48
0
% es.tEz (V/m) @ t=0.48
9.297079847509341
% V (V) @ t=0.48
0.01240271812771828
% es.normE (V/m) @ t=0.5
15.152067482352916
% es.EX (V/m) @ t=0.5
11.741090820512582
% es.EY (V/m) @ t=0.5
-1.7991393883616364
% es.EZ (V/m) @ t=0.5
9.379856132435362
% es.tEX (V/m) @ t=0.5
11.741090820512627
% es.tEY (V/m) @ t=0.5
0
% es.tEZ (V/m) @ t=0.5
9.379856132435357
% es.Ex (V/m) @ t=0.5
11.741090820512582
% es.Ey (V/m) @ t=0.5
-1.7991393883616364
% es.Ez (V/m) @ t=0.5
9.379856132435362
% es.tEx (V/m) @ t=0.5
11.741090820512627
% es.tEy (V/m) @ t=0.5
0
% es.tEz (V/m) @ t=0.5
9.379856132435357
% V (V) @ t=0.5
0.012513151490597004
% es.normE (V/m) @ t=0.52
15.292556045506863
% es.EX (V/m) @ t=0.52
11.84995262133683
% es.EY (V/m) @ t=0.52
-1.8158245740714811
% es.EZ (V/m) @ t=0.52
9.466825001056623
% es.tEX (V/m) @ t=0.52
11.84995262133689
% es.tEY (V/m) @ t=0.52
0
% es.tEZ (V/m) @ t=0.52
9.466825001056623
% es.Ex (V/m) @ t=0.52
11.84995262133683
% es.Ey (V/m) @ t=0.52
-1.8158245740714811
% es.Ez (V/m) @ t=0.52
9.466825001056623
% es.tEx (V/m) @ t=0.52
11.84995262133689
% es.tEy (V/m) @ t=0.52
0
% es.tEz (V/m) @ t=0.52
9.466825001056623
% V (V) @ t=0.52
0.012629177457097946
% es.normE (V/m) @ t=0.54
15.440679553866921
% es.EX (V/m) @ t=0.54
11.964730667462044
% es.EY (V/m) @ t=0.54
-1.8334159529647334
% es.EZ (V/m) @ t=0.54
9.558520295020063
% es.tEX (V/m) @ t=0.54
11.964730667462083
% es.tEY (V/m) @ t=0.54
0
% es.tEZ (V/m) @ t=0.54
9.558520295020049
% es.Ex (V/m) @ t=0.54
11.964730667462044
% es.Ey (V/m) @ t=0.54
-1.8334159529647334
% es.Ez (V/m) @ t=0.54
9.558520295020063
% es.tEx (V/m) @ t=0.54
11.964730667462083
% es.tEy (V/m) @ t=0.54
0
% es.tEz (V/m) @ t=0.54
9.558520295020049
% V (V) @ t=0.54
0.012751508133393617
% es.normE (V/m) @ t=0.56
15.588803062227996
% es.EX (V/m) @ t=0.56
12.079508713587218
% es.EY (V/m) @ t=0.56
-1.8510073318579714
% es.EZ (V/m) @ t=0.56
9.650215588983487
% es.tEX (V/m) @ t=0.56
12.079508713587277
% es.tEY (V/m) @ t=0.56
0
% es.tEZ (V/m) @ t=0.56
9.650215588983485
% es.Ex (V/m) @ t=0.56
12.079508713587218
% es.Ey (V/m) @ t=0.56
-1.8510073318579714
% es.Ez (V/m) @ t=0.56
9.650215588983487
% es.tEx (V/m) @ t=0.56
12.079508713587277
% es.tEy (V/m) @ t=0.56
0
% es.tEz (V/m) @ t=0.56
9.650215588983485
% V (V) @ t=0.56
0.012873838809689286
% es.normE (V/m) @ t=0.58
15.736926570590107
% es.EX (V/m) @ t=0.58
12.19428675971239
% es.EY (V/m) @ t=0.58
-1.8685987107512307
% es.EZ (V/m) @ t=0.58
9.741910882946913
% es.tEX (V/m) @ t=0.58
12.194286759712414
% es.tEY (V/m) @ t=0.58
0
% es.tEZ (V/m) @ t=0.58
9.741910882946925
% es.Ex (V/m) @ t=0.58
12.19428675971239
% es.Ey (V/m) @ t=0.58
-1.8685987107512307
% es.Ez (V/m) @ t=0.58
9.741910882946913
% es.tEx (V/m) @ t=0.58
12.194286759712414
% es.tEy (V/m) @ t=0.58
0
% es.tEz (V/m) @ t=0.58
9.741910882946925
% V (V) @ t=0.58
0.012996169485984959
% es.normE (V/m) @ t=0.6
15.885050078953249
% es.EX (V/m) @ t=0.6
12.309064805837593
% es.EY (V/m) @ t=0.6
-1.8861900896444759
% es.EZ (V/m) @ t=0.6
9.83360617691035
% es.tEX (V/m) @ t=0.6
12.309064805837636
% es.tEY (V/m) @ t=0.6
0
% es.tEZ (V/m) @ t=0.6
9.833606176910363
% es.Ex (V/m) @ t=0.6
12.309064805837593
% es.Ey (V/m) @ t=0.6
-1.8861900896444759
% es.Ez (V/m) @ t=0.6
9.83360617691035
% es.tEx (V/m) @ t=0.6
12.309064805837636
% es.tEy (V/m) @ t=0.6
0
% es.tEz (V/m) @ t=0.6
9.833606176910363
% V (V) @ t=0.6
0.013118500162280628
% es.normE (V/m) @ t=0.62
16.033173587317393
% es.EX (V/m) @ t=0.62
12.423842851962846
% es.EY (V/m) @ t=0.62
-1.9037814685376642
% es.EZ (V/m) @ t=0.62
9.92530147087379
% es.tEX (V/m) @ t=0.62
12.423842851962917
% es.tEY (V/m) @ t=0.62
0
% es.tEZ (V/m) @ t=0.62
9.925301470873787
% es.Ex (V/m) @ t=0.62
12.423842851962846
% es.Ey (V/m) @ t=0.62
-1.9037814685376642
% es.Ez (V/m) @ t=0.62
9.92530147087379
% es.tEx (V/m) @ t=0.62
12.423842851962917
% es.tEy (V/m) @ t=0.62
0
% es.tEz (V/m) @ t=0.62
9.925301470873787
% V (V) @ t=0.62
0.013240830838576297
% es.normE (V/m) @ t=0.64
16.181297095682428
% es.EX (V/m) @ t=0.64
12.538620898088018
% es.EY (V/m) @ t=0.64
-1.921372847430904
% es.EZ (V/m) @ t=0.64
10.016996764837224
% es.tEX (V/m) @ t=0.64
12.538620898088023
% es.tEY (V/m) @ t=0.64
0
% es.tEZ (V/m) @ t=0.64
10.016996764837213
% es.Ex (V/m) @ t=0.64
12.538620898088018
% es.Ey (V/m) @ t=0.64
-1.921372847430904
% es.Ez (V/m) @ t=0.64
10.016996764837224
% es.tEx (V/m) @ t=0.64
12.538620898088023
% es.tEy (V/m) @ t=0.64
0
% es.tEz (V/m) @ t=0.64
10.016996764837213
% V (V) @ t=0.64
0.013363161514871972
% es.normE (V/m) @ t=0.66
16.32942060404836
% es.EX (V/m) @ t=0.66
12.653398944213162
% es.EY (V/m) @ t=0.66
-1.9389642263241846
% es.EZ (V/m) @ t=0.66
10.108692058800642
% es.tEX (V/m) @ t=0.66
12.653398944213217
% es.tEY (V/m) @ t=0.66
0
% es.tEZ (V/m) @ t=0.66
10.108692058800651
% es.Ex (V/m) @ t=0.66
12.653398944213162
% es.Ey (V/m) @ t=0.66
-1.9389642263241846
% es.Ez (V/m) @ t=0.66
10.108692058800642
% es.tEx (V/m) @ t=0.66
12.653398944213217
% es.tEy (V/m) @ t=0.66
0
% es.tEz (V/m) @ t=0.66
10.108692058800651
% V (V) @ t=0.66
0.013485492191167644
% es.normE (V/m) @ t=0.68
16.47754411241528
% es.EX (V/m) @ t=0.68
12.768176990338414
% es.EY (V/m) @ t=0.68
-1.9565556052174067
% es.EZ (V/m) @ t=0.68
10.200387352764087
% es.tEX (V/m) @ t=0.68
12.76817699033844
% es.tEY (V/m) @ t=0.68
0
% es.tEZ (V/m) @ t=0.68
10.20038735276409
% es.Ex (V/m) @ t=0.68
12.768176990338414
% es.Ey (V/m) @ t=0.68
-1.9565556052174067
% es.Ez (V/m) @ t=0.68
10.200387352764087
% es.tEx (V/m) @ t=0.68
12.76817699033844
% es.tEy (V/m) @ t=0.68
0
% es.tEz (V/m) @ t=0.68
10.20038735276409
% V (V) @ t=0.68
0.013607822867463312
% es.normE (V/m) @ t=0.7
16.625667620783013
% es.EX (V/m) @ t=0.7
12.882955036463601
% es.EY (V/m) @ t=0.7
-1.9741469841106376
% es.EZ (V/m) @ t=0.7
10.29208264672752
% es.tEX (V/m) @ t=0.7
12.882955036463661
% es.tEY (V/m) @ t=0.7
0
% es.tEZ (V/m) @ t=0.7
10.292082646727515
% es.Ex (V/m) @ t=0.7
12.882955036463601
% es.Ey (V/m) @ t=0.7
-1.9741469841106376
% es.Ez (V/m) @ t=0.7
10.29208264672752
% es.tEx (V/m) @ t=0.7
12.882955036463661
% es.tEy (V/m) @ t=0.7
0
% es.tEz (V/m) @ t=0.7
10.292082646727515
% V (V) @ t=0.7
0.013730153543758984
% es.normE (V/m) @ t=0.72
16.77379112915158
% es.EX (V/m) @ t=0.72
12.997733082588782
% es.EY (V/m) @ t=0.72
-1.9917383630038845
% es.EZ (V/m) @ t=0.72
10.38377794069093
% es.tEX (V/m) @ t=0.72
12.997733082588855
% es.tEY (V/m) @ t=0.72
0
% es.tEZ (V/m) @ t=0.72
10.383777940690939
% es.Ex (V/m) @ t=0.72
12.997733082588782
% es.Ey (V/m) @ t=0.72
-1.9917383630038845
% es.Ez (V/m) @ t=0.72
10.38377794069093
% es.tEx (V/m) @ t=0.72
12.997733082588855
% es.tEy (V/m) @ t=0.72
0
% es.tEz (V/m) @ t=0.72
10.383777940690939
% V (V) @ t=0.72
0.013852484220054655
% es.normE (V/m) @ t=0.74
16.921914637521006
% es.EX (V/m) @ t=0.74
13.112511128713976
% es.EY (V/m) @ t=0.74
-2.0093297418971154
% es.EZ (V/m) @ t=0.74
10.475473234654377
% es.tEX (V/m) @ t=0.74
13.11251112871405
% es.tEY (V/m) @ t=0.74
0
% es.tEZ (V/m) @ t=0.74
10.475473234654391
% es.Ex (V/m) @ t=0.74
13.112511128713976
% es.Ey (V/m) @ t=0.74
-2.0093297418971154
% es.Ez (V/m) @ t=0.74
10.475473234654377
% es.tEx (V/m) @ t=0.74
13.11251112871405
% es.tEy (V/m) @ t=0.74
0
% es.tEz (V/m) @ t=0.74
10.475473234654391
% V (V) @ t=0.74
0.013974814896350328
% es.normE (V/m) @ t=0.76
17.070038145891225
% es.EX (V/m) @ t=0.76
13.227289174839179
% es.EY (V/m) @ t=0.76
-2.0269211207903304
% es.EZ (V/m) @ t=0.76
10.567168528617795
% es.tEX (V/m) @ t=0.76
13.227289174839242
% es.tEY (V/m) @ t=0.76
0
% es.tEZ (V/m) @ t=0.76
10.567168528617803
% es.Ex (V/m) @ t=0.76
13.227289174839179
% es.Ey (V/m) @ t=0.76
-2.0269211207903304
% es.Ez (V/m) @ t=0.76
10.567168528617795
% es.tEx (V/m) @ t=0.76
13.227289174839242
% es.tEy (V/m) @ t=0.76
0
% es.tEz (V/m) @ t=0.76
10.567168528617803
% V (V) @ t=0.76
0.014097145572645997
% es.normE (V/m) @ t=0.78
17.22964896569043
% es.EX (V/m) @ t=0.78
13.350968712307095
% es.EY (V/m) @ t=0.78
-2.045875299835881
% es.EZ (V/m) @ t=0.78
10.665975110596387
% es.tEX (V/m) @ t=0.78
13.350968712307154
% es.tEY (V/m) @ t=0.78
0
% es.tEZ (V/m) @ t=0.78
10.665975110596378
% es.Ex (V/m) @ t=0.78
13.350968712307095
% es.Ey (V/m) @ t=0.78
-2.045875299835881
% es.Ez (V/m) @ t=0.78
10.665975110596387
% es.tEx (V/m) @ t=0.78
13.350968712307154
% es.tEy (V/m) @ t=0.78
0
% es.tEz (V/m) @ t=0.78
10.665975110596378
% V (V) @ t=0.78
0.014228961251958688
% es.normE (V/m) @ t=0.8
17.393992337653977
% es.EX (V/m) @ t=0.8
13.478315493618918
% es.EY (V/m) @ t=0.8
-2.065390926427174
% es.EZ (V/m) @ t=0.8
10.767711406955588
% es.tEX (V/m) @ t=0.8
13.478315493618988
% es.tEY (V/m) @ t=0.8
0
% es.tEZ (V/m) @ t=0.8
10.767711406955572
% es.Ex (V/m) @ t=0.8
13.478315493618918
% es.Ey (V/m) @ t=0.8
-2.065390926427174
% es.Ez (V/m) @ t=0.8
10.767711406955588
% es.tEx (V/m) @ t=0.8
13.478315493618988
% es.tEy (V/m) @ t=0.8
0
% es.tEz (V/m) @ t=0.8
10.767711406955572
% V (V) @ t=0.8
0.014364684570742602
% es.normE (V/m) @ t=0.82
17.558335709617644
% es.EX (V/m) @ t=0.82
13.605662274930744
% es.EY (V/m) @ t=0.82
-2.0849065530185094
% es.EZ (V/m) @ t=0.82
10.869447703314773
% es.tEX (V/m) @ t=0.82
13.605662274930765
% es.tEY (V/m) @ t=0.82
0
% es.tEZ (V/m) @ t=0.82
10.869447703314766
% es.Ex (V/m) @ t=0.82
13.605662274930744
% es.Ey (V/m) @ t=0.82
-2.0849065530185094
% es.Ez (V/m) @ t=0.82
10.869447703314773
% es.tEx (V/m) @ t=0.82
13.605662274930765
% es.tEy (V/m) @ t=0.82
0
% es.tEz (V/m) @ t=0.82
10.869447703314766
% V (V) @ t=0.82
0.014500407889526515
% es.normE (V/m) @ t=0.84
17.722679081581454
% es.EX (V/m) @ t=0.84
13.733009056242583
% es.EY (V/m) @ t=0.84
-2.104422179609852
% es.EZ (V/m) @ t=0.84
10.97118399967395
% es.tEX (V/m) @ t=0.84
13.733009056242599
% es.tEY (V/m) @ t=0.84
0
% es.tEZ (V/m) @ t=0.84
10.971183999673944
% es.Ex (V/m) @ t=0.84
13.733009056242583
% es.Ey (V/m) @ t=0.84
-2.104422179609852
% es.Ez (V/m) @ t=0.84
10.97118399967395
% es.tEx (V/m) @ t=0.84
13.733009056242599
% es.tEy (V/m) @ t=0.84
0
% es.tEz (V/m) @ t=0.84
10.971183999673944
% V (V) @ t=0.84
0.01463613120831043
% es.normE (V/m) @ t=0.86
17.88702245354544
% es.EX (V/m) @ t=0.86
13.860355837554478
% es.EY (V/m) @ t=0.86
-2.123937806201152
% es.EZ (V/m) @ t=0.86
11.072920296033157
% es.tEX (V/m) @ t=0.86
13.860355837554462
% es.tEY (V/m) @ t=0.86
0
% es.tEZ (V/m) @ t=0.86
11.072920296033137
% es.Ex (V/m) @ t=0.86
13.860355837554478
% es.Ey (V/m) @ t=0.86
-2.123937806201152
% es.Ez (V/m) @ t=0.86
11.072920296033157
% es.tEx (V/m) @ t=0.86
13.860355837554462
% es.tEy (V/m) @ t=0.86
0
% es.tEz (V/m) @ t=0.86
11.072920296033137
% V (V) @ t=0.86
0.014771854527094343
% es.normE (V/m) @ t=0.88
18.05136582550942
% es.EX (V/m) @ t=0.88
13.987702618866244
% es.EY (V/m) @ t=0.88
-2.14345343279248
% es.EZ (V/m) @ t=0.88
11.17465659239232
% es.tEX (V/m) @ t=0.88
13.98770261886624
% es.tEY (V/m) @ t=0.88
0
% es.tEZ (V/m) @ t=0.88
11.174656592392315
% es.Ex (V/m) @ t=0.88
13.987702618866244
% es.Ey (V/m) @ t=0.88
-2.14345343279248
% es.Ez (V/m) @ t=0.88
11.17465659239232
% es.tEx (V/m) @ t=0.88
13.98770261886624
% es.tEy (V/m) @ t=0.88
0
% es.tEz (V/m) @ t=0.88
11.174656592392315
% V (V) @ t=0.88
0.014907577845878258
% es.normE (V/m) @ t=0.9
18.215709197473604
% es.EX (V/m) @ t=0.9
14.115049400178084
% es.EY (V/m) @ t=0.9
-2.162969059383837
% es.EZ (V/m) @ t=0.9
11.276392888751515
% es.tEX (V/m) @ t=0.9
14.115049400178101
% es.tEY (V/m) @ t=0.9
0
% es.tEZ (V/m) @ t=0.9
11.276392888751495
% es.Ex (V/m) @ t=0.9
14.115049400178084
% es.Ey (V/m) @ t=0.9
-2.162969059383837
% es.Ez (V/m) @ t=0.9
11.276392888751515
% es.tEx (V/m) @ t=0.9
14.115049400178101
% es.tEy (V/m) @ t=0.9
0
% es.tEz (V/m) @ t=0.9
11.276392888751495
% V (V) @ t=0.9
0.015043301164662175
% es.normE (V/m) @ t=0.92
18.3800525694379
% es.EX (V/m) @ t=0.92
14.242396181489937
% es.EY (V/m) @ t=0.92
-2.1824846859751617
% es.EZ (V/m) @ t=0.92
11.378129185110708
% es.tEX (V/m) @ t=0.92
14.242396181489994
% es.tEY (V/m) @ t=0.92
0
% es.tEZ (V/m) @ t=0.92
11.378129185110717
% es.Ex (V/m) @ t=0.92
14.242396181489937
% es.Ey (V/m) @ t=0.92
-2.1824846859751617
% es.Ez (V/m) @ t=0.92
11.378129185110708
% es.tEx (V/m) @ t=0.92
14.242396181489994
% es.tEy (V/m) @ t=0.92
0
% es.tEz (V/m) @ t=0.92
11.378129185110717
% V (V) @ t=0.92
0.015179024483446091
% es.normE (V/m) @ t=0.94
18.544395941402307
% es.EX (V/m) @ t=0.94
14.369742962801789
% es.EY (V/m) @ t=0.94
-2.202000312566504
% es.EZ (V/m) @ t=0.94
11.479865481469886
% es.tEX (V/m) @ t=0.94
14.369742962801798
% es.tEY (V/m) @ t=0.94
0
% es.tEZ (V/m) @ t=0.94
11.479865481469853
% es.Ex (V/m) @ t=0.94
14.369742962801789
% es.Ey (V/m) @ t=0.94
-2.202000312566504
% es.Ez (V/m) @ t=0.94
11.479865481469886
% es.tEx (V/m) @ t=0.94
14.369742962801798
% es.tEy (V/m) @ t=0.94
0
% es.tEz (V/m) @ t=0.94
11.479865481469853
% V (V) @ t=0.94
0.015314747802230006
% es.normE (V/m) @ t=0.96
18.7087393133668
% es.EX (V/m) @ t=0.96
14.4970897441136
% es.EY (V/m) @ t=0.96
-2.2215159391578396
% es.EZ (V/m) @ t=0.96
11.581601777829093
% es.tEX (V/m) @ t=0.96
14.497089744113634
% es.tEY (V/m) @ t=0.96
0
% es.tEZ (V/m) @ t=0.96
11.581601777829103
% es.Ex (V/m) @ t=0.96
14.4970897441136
% es.Ey (V/m) @ t=0.96
-2.2215159391578396
% es.Ez (V/m) @ t=0.96
11.581601777829093
% es.tEx (V/m) @ t=0.96
14.497089744113634
% es.tEy (V/m) @ t=0.96
0
% es.tEz (V/m) @ t=0.96
11.581601777829103
% V (V) @ t=0.96
0.01545047112101392
% es.normE (V/m) @ t=0.98
18.873082685331394
% es.EX (V/m) @ t=0.98
14.62443652542541
% es.EY (V/m) @ t=0.98
-2.2410315657491964
% es.EZ (V/m) @ t=0.98
11.683338074188285
% es.tEX (V/m) @ t=0.98
14.624436525425468
% es.tEY (V/m) @ t=0.98
0
% es.tEZ (V/m) @ t=0.98
11.683338074188255
% es.Ex (V/m) @ t=0.98
14.62443652542541
% es.Ey (V/m) @ t=0.98
-2.2410315657491964
% es.Ez (V/m) @ t=0.98
11.683338074188285
% es.tEx (V/m) @ t=0.98
14.624436525425468
% es.tEy (V/m) @ t=0.98
0
% es.tEz (V/m) @ t=0.98
11.683338074188255
% V (V) @ t=0.98
0.015586194439797835
% es.normE (V/m) @ t=1
19.037426057296088
% es.EX (V/m) @ t=1
14.75178330673722
% es.EY (V/m) @ t=1
-2.260547192340489
% es.EZ (V/m) @ t=1
11.785074370547484
% es.tEX (V/m) @ t=1
14.751783306737273
% es.tEY (V/m) @ t=1
0
% es.tEZ (V/m) @ t=1
11.785074370547461
% es.Ex (V/m) @ t=1
14.75178330673722
% es.Ey (V/m) @ t=1
-2.260547192340489
% es.Ez (V/m) @ t=1
11.785074370547484
% es.tEx (V/m) @ t=1
14.751783306737273
% es.tEy (V/m) @ t=1
0
% es.tEz (V/m) @ t=1
11.785074370547461
% V (V) @ t=1
0.01572191775858175
% es.normE (V/m) @ t=1.02
19.20176942926093
% es.EX (V/m) @ t=1.02
14.879130088049116
% es.EY (V/m) @ t=1.02
-2.280062818931839
% es.EZ (V/m) @ t=1.02
11.886810666906648
% es.tEX (V/m) @ t=1.02
14.879130088049166
% es.tEY (V/m) @ t=1.02
0
% es.tEZ (V/m) @ t=1.02
11.886810666906653
% es.Ex (V/m) @ t=1.02
14.879130088049116
% es.Ey (V/m) @ t=1.02
-2.280062818931839
% es.Ez (V/m) @ t=1.02
11.886810666906648
% es.tEx (V/m) @ t=1.02
14.879130088049166
% es.tEy (V/m) @ t=1.02
0
% es.tEz (V/m) @ t=1.02
11.886810666906653
% V (V) @ t=1.02
0.015857641077365665
% es.normE (V/m) @ t=1.04
19.373702332387055
% es.EX (V/m) @ t=1.04
15.012358224856268
% es.EY (V/m) @ t=1.04
-2.3004770139817055
% es.EZ (V/m) @ t=1.04
11.993245446962817
% es.tEX (V/m) @ t=1.04
15.012358224856339
% es.tEY (V/m) @ t=1.04
0
% es.tEZ (V/m) @ t=1.04
11.9932454469628
% es.Ex (V/m) @ t=1.04
15.012358224856268
% es.Ey (V/m) @ t=1.04
-2.3004770139817055
% es.Ez (V/m) @ t=1.04
11.993245446962817
% es.tEx (V/m) @ t=1.04
15.012358224856339
% es.tEy (V/m) @ t=1.04
0
% es.tEz (V/m) @ t=1.04
11.9932454469628
% V (V) @ t=1.04
0.015999628499695263
% es.normE (V/m) @ t=1.06