% Model:              1 neuron.mph
% Version:            COMSOL 6.1.0.252
% Date:               Mar 22 2023, 19:29
% Dimension:          0
% Nodes:              14017
% Expressions:        14017
% Description:        Electric field norm, Electric field, X component, Electric field, Y component, Electric field, Z component, Tangential electric field, X component, Tangential electric field, Y component, Tangential electric field, Z component, Electric field, x component, Electric field, y component, Electric field, z component, Tangential electric field, x component, Tangential electric field, y component, Tangential electric field, z component, Electric potential
% Length unit:        mm
% x
1.0000000000000002
% y
12.2
% z
2
% es.normE (V/m) @ t=0
1.2667652132676381
% es.EX (V/m) @ t=0
0.8799050871711902
% es.EY (V/m) @ t=0
0.1317560035937485
% es.EZ (V/m) @ t=0
-0.8786210624821371
% es.tEX (V/m) @ t=0
0.8799050871711946
% es.tEY (V/m) @ t=0
0
% es.tEZ (V/m) @ t=0
-0.8786210624821189
% es.Ex (V/m) @ t=0
0.8799050871711902
% es.Ey (V/m) @ t=0
0.1317560035937485
% es.Ez (V/m) @ t=0
-0.8786210624821371
% es.tEx (V/m) @ t=0
0.8799050871711946
% es.tEy (V/m) @ t=0
0
% es.tEz (V/m) @ t=0
-0.8786210624821189
% V (V) @ t=0
0.013565387649294148
% es.normE (V/m) @ t=0.02
1.0941194701140549
% es.EX (V/m) @ t=0.02
0.7599839951113312
% es.EY (V/m) @ t=0.02
0.11379915368573917
% es.EZ (V/m) @ t=0.02
-0.7588749684673357
% es.tEX (V/m) @ t=0.02
0.7599839951113334
% es.tEY (V/m) @ t=0.02
0
% es.tEZ (V/m) @ t=0.02
-0.7588749684673246
% es.Ex (V/m) @ t=0.02
0.7599839951113312
% es.Ey (V/m) @ t=0.02
0.11379915368573917
% es.Ez (V/m) @ t=0.02
-0.7588749684673357
% es.tEx (V/m) @ t=0.02
0.7599839951113334
% es.tEy (V/m) @ t=0.02
0
% es.tEz (V/m) @ t=0.02
-0.7588749684673246
% V (V) @ t=0.02
0.01171657902084261
% es.normE (V/m) @ t=0.04
1.1041859445018787
% es.EX (V/m) @ t=0.04
0.7669762454562485
% es.EY (V/m) @ t=0.04
0.1148461753565953
% es.EZ (V/m) @ t=0.04
-0.7658570158995053
% es.tEX (V/m) @ t=0.04
0.7669762454562528
% es.tEY (V/m) @ t=0.04
0
% es.tEZ (V/m) @ t=0.04
-0.7658570158994875
% es.Ex (V/m) @ t=0.04
0.7669762454562485
% es.Ey (V/m) @ t=0.04
0.1148461753565953
% es.Ez (V/m) @ t=0.04
-0.7658570158995053
% es.tEx (V/m) @ t=0.04
0.7669762454562528
% es.tEy (V/m) @ t=0.04
0
% es.tEz (V/m) @ t=0.04
-0.7658570158994875
% V (V) @ t=0.04
0.011824377073687935
% es.normE (V/m) @ t=0.06
1.11432524781134
% es.EX (V/m) @ t=0.06
0.774019080184601
% es.EY (V/m) @ t=0.06
0.11590078736933551
% es.EZ (V/m) @ t=0.06
-0.772889574972146
% es.tEX (V/m) @ t=0.06
0.7740190801845999
% es.tEY (V/m) @ t=0.06
0
% es.tEZ (V/m) @ t=0.06
-0.772889574972135
% es.Ex (V/m) @ t=0.06
0.774019080184601
% es.Ey (V/m) @ t=0.06
0.11590078736933551
% es.Ez (V/m) @ t=0.06
-0.772889574972146
% es.tEx (V/m) @ t=0.06
0.7740190801845999
% es.tEy (V/m) @ t=0.06
0
% es.tEz (V/m) @ t=0.06
-0.772889574972135
% V (V) @ t=0.06
0.011932954019186277
% es.normE (V/m) @ t=0.08
1.1246600874459247
% es.EX (V/m) @ t=0.08
0.7811977426683028
% es.EY (V/m) @ t=0.08
0.11697570433868837
% es.EZ (V/m) @ t=0.08
-0.7800577613544815
% es.tEX (V/m) @ t=0.08
0.7811977426682999
% es.tEY (V/m) @ t=0.08
0
% es.tEZ (V/m) @ t=0.08
-0.7800577613544704
% es.Ex (V/m) @ t=0.08
0.7811977426683028
% es.Ey (V/m) @ t=0.08
0.11697570433868837
% es.Ez (V/m) @ t=0.08
-0.7800577613544815
% es.tEx (V/m) @ t=0.08
0.7811977426682999
% es.tEy (V/m) @ t=0.08
0
% es.tEz (V/m) @ t=0.08
-0.7800577613544704
% V (V) @ t=0.08
0.01204362703882908
% es.normE (V/m) @ t=0.1
1.1350460289614015
% es.EX (V/m) @ t=0.1
0.7884119026677303
% es.EY (V/m) @ t=0.1
0.11805592784878577
% es.EZ (V/m) @ t=0.1
-0.7872613928676349
% es.tEX (V/m) @ t=0.1
0.7884119026677308
% es.tEY (V/m) @ t=0.1
0
% es.tEZ (V/m) @ t=0.1
-0.7872613928676166
% es.Ex (V/m) @ t=0.1
0.7884119026677303
% es.Ey (V/m) @ t=0.1
0.11805592784878577
% es.Ez (V/m) @ t=0.1
-0.7872613928676349
% es.tEx (V/m) @ t=0.1
0.7884119026677308
% es.tEy (V/m) @ t=0.1
0
% es.tEz (V/m) @ t=0.1
-0.7872613928676166
% V (V) @ t=0.1
0.012154847850966195
% es.normE (V/m) @ t=0.12
1.1454319704768774
% es.EX (V/m) @ t=0.12
0.7956260626671605
% es.EY (V/m) @ t=0.12
0.11913615135889111
% es.EZ (V/m) @ t=0.12
-0.7944650243807883
% es.tEX (V/m) @ t=0.12
0.795626062667163
% es.tEY (V/m) @ t=0.12
0
% es.tEZ (V/m) @ t=0.12
-0.7944650243807772
% es.Ex (V/m) @ t=0.12
0.7956260626671605
% es.Ey (V/m) @ t=0.12
0.11913615135889111
% es.Ez (V/m) @ t=0.12
-0.7944650243807883
% es.tEx (V/m) @ t=0.12
0.795626062667163
% es.tEy (V/m) @ t=0.12
0
% es.tEz (V/m) @ t=0.12
-0.7944650243807772
% V (V) @ t=0.12
0.012266068663103301
% es.normE (V/m) @ t=0.14
1.1561255524611789
% es.EX (V/m) @ t=0.14
0.8030539081783585
% es.EY (V/m) @ t=0.14
0.12024839308432428
% es.EZ (V/m) @ t=0.14
-0.8018820305234766
% es.tEX (V/m) @ t=0.14
0.8030539081783603
% es.tEY (V/m) @ t=0.14
0
% es.tEZ (V/m) @ t=0.14
-0.8018820305234726
% es.Ex (V/m) @ t=0.14
0.8030539081783585
% es.Ey (V/m) @ t=0.14
0.12024839308432428
% es.Ez (V/m) @ t=0.14
-0.8018820305234766
% es.tEx (V/m) @ t=0.14
0.8030539081783603
% es.tEy (V/m) @ t=0.14
0
% es.tEz (V/m) @ t=0.14
-0.8018820305234726
% V (V) @ t=0.14
0.012380582606129295
% es.normE (V/m) @ t=0.16
1.167031275942998
% es.EX (V/m) @ t=0.16
0.8106291060994588
% es.EY (V/m) @ t=0.16
0.12138271380404886
% es.EZ (V/m) @ t=0.16
-0.80944617469912
% es.tEX (V/m) @ t=0.16
0.8106291060994639
% es.tEY (V/m) @ t=0.16
0
% es.tEZ (V/m) @ t=0.16
-0.8094461746991017
% es.Ex (V/m) @ t=0.16
0.8106291060994588
% es.Ey (V/m) @ t=0.16
0.12138271380404886
% es.Ez (V/m) @ t=0.16
-0.80944617469912
% es.tEx (V/m) @ t=0.16
0.8106291060994639
% es.tEy (V/m) @ t=0.16
0
% es.tEz (V/m) @ t=0.16
-0.8094461746991017
% V (V) @ t=0.16
0.012497367413326257
% es.normE (V/m) @ t=0.18
1.1779369994247937
% es.EX (V/m) @ t=0.18
0.8182043040205456
% es.EY (V/m) @ t=0.18
0.12251703452374824
% es.EZ (V/m) @ t=0.18
-0.8170103188747491
% es.tEX (V/m) @ t=0.18
0.8182043040205507
% es.tEY (V/m) @ t=0.18
0
% es.tEZ (V/m) @ t=0.18
-0.817010318874738
% es.Ex (V/m) @ t=0.18
0.8182043040205456
% es.Ey (V/m) @ t=0.18
0.12251703452374824
% es.Ez (V/m) @ t=0.18
-0.8170103188747491
% es.tEx (V/m) @ t=0.18
0.8182043040205507
% es.tEy (V/m) @ t=0.18
0
% es.tEz (V/m) @ t=0.18
-0.817010318874738
% V (V) @ t=0.18
0.012614152220523214
% es.normE (V/m) @ t=0.2
1.1888427229065917
% es.EX (V/m) @ t=0.2
0.8257795019416392
% es.EY (V/m) @ t=0.2
0.12365135524348192
% es.EZ (V/m) @ t=0.2
-0.8245744630503702
% es.tEX (V/m) @ t=0.2
0.8257795019416445
% es.tEY (V/m) @ t=0.2
0
% es.tEZ (V/m) @ t=0.2
-0.824574463050352
% es.Ex (V/m) @ t=0.2
0.8257795019416392
% es.Ey (V/m) @ t=0.2
0.12365135524348192
% es.Ez (V/m) @ t=0.2
-0.8245744630503702
% es.tEx (V/m) @ t=0.2
0.8257795019416445
% es.tEy (V/m) @ t=0.2
0
% es.tEz (V/m) @ t=0.2
-0.824574463050352
% V (V) @ t=0.2
0.012730937027720178
% es.normE (V/m) @ t=0.22
1.1997484463884107
% es.EX (V/m) @ t=0.22
0.8333546998627284
% es.EY (V/m) @ t=0.22
0.12478567596320017
% es.EZ (V/m) @ t=0.22
-0.8321386072260206
% es.tEX (V/m) @ t=0.22
0.8333546998627299
% es.tEY (V/m) @ t=0.22
0
% es.tEZ (V/m) @ t=0.22
-0.8321386072260095
% es.Ex (V/m) @ t=0.22
0.8333546998627284
% es.Ey (V/m) @ t=0.22
0.12478567596320017
% es.Ez (V/m) @ t=0.22
-0.8321386072260206
% es.tEx (V/m) @ t=0.22
0.8333546998627299
% es.tEy (V/m) @ t=0.22
0
% es.tEz (V/m) @ t=0.22
-0.8321386072260095
% V (V) @ t=0.22
0.012847721834917138
% es.normE (V/m) @ t=0.24
1.2106541698702222
% es.EX (V/m) @ t=0.24
0.8409298977838249
% es.EY (V/m) @ t=0.24
0.12591999668291481
% es.EZ (V/m) @ t=0.24
-0.839702751401656
% es.tEX (V/m) @ t=0.24
0.8409298977838269
% es.tEY (V/m) @ t=0.24
0
% es.tEZ (V/m) @ t=0.24
-0.8397027514016377
% es.Ex (V/m) @ t=0.24
0.8409298977838249
% es.Ey (V/m) @ t=0.24
0.12591999668291481
% es.Ez (V/m) @ t=0.24
-0.839702751401656
% es.tEx (V/m) @ t=0.24
0.8409298977838269
% es.tEy (V/m) @ t=0.24
0
% es.tEz (V/m) @ t=0.24
-0.8397027514016377
% V (V) @ t=0.24
0.012964506642114099
% es.normE (V/m) @ t=0.26
1.221780379177103
% es.EX (V/m) @ t=0.26
0.8486582483457827
% es.EY (V/m) @ t=0.26
0.12707724227883732
% es.EZ (V/m) @ t=0.26
-0.8474198244882261
% es.tEX (V/m) @ t=0.26
0.8486582483457843
% es.tEY (V/m) @ t=0.26
0
% es.tEZ (V/m) @ t=0.26
-0.8474198244882185
% es.Ex (V/m) @ t=0.26
0.8486582483457827
% es.Ey (V/m) @ t=0.26
0.12707724227883732
% es.Ez (V/m) @ t=0.26
-0.8474198244882261
% es.tEx (V/m) @ t=0.26
0.8486582483457843
% es.tEy (V/m) @ t=0.26
0
% es.tEz (V/m) @ t=0.26
-0.8474198244882185
% V (V) @ t=0.26
0.013083653038295253
% es.normE (V/m) @ t=0.28
1.2338466719891203
% es.EX (V/m) @ t=0.28
0.8570395944978493
% es.EY (V/m) @ t=0.28
0.128332232471073
% es.EZ (V/m) @ t=0.28
-0.8557889392494644
% es.tEX (V/m) @ t=0.28
0.8570395944978522
% es.tEY (V/m) @ t=0.28
0
% es.tEZ (V/m) @ t=0.28
-0.8557889392494538
% es.Ex (V/m) @ t=0.28
0.8570395944978493
% es.Ey (V/m) @ t=0.28
0.128332232471073
% es.Ez (V/m) @ t=0.28
-0.8557889392494644
% es.tEx (V/m) @ t=0.28
0.8570395944978522
% es.tEy (V/m) @ t=0.28
0
% es.tEz (V/m) @ t=0.28
-0.8557889392494538
% V (V) @ t=0.28
0.013212868521000001
% es.normE (V/m) @ t=0.3
1.2459129648011251
% es.EX (V/m) @ t=0.3
0.8654209406499078
% es.EY (V/m) @ t=0.3
0.1295872226633547
% es.EZ (V/m) @ t=0.3
-0.8641580540106859
% es.tEX (V/m) @ t=0.3
0.8654209406499129
% es.tEY (V/m) @ t=0.3
0
% es.tEZ (V/m) @ t=0.3
-0.8641580540106748
% es.Ex (V/m) @ t=0.3
0.8654209406499078
% es.Ey (V/m) @ t=0.3
0.1295872226633547
% es.Ez (V/m) @ t=0.3
-0.8641580540106859
% es.tEx (V/m) @ t=0.3
0.8654209406499129
% es.tEy (V/m) @ t=0.3
0
% es.tEz (V/m) @ t=0.3
-0.8641580540106748
% V (V) @ t=0.3
0.013342084003704754
% es.normE (V/m) @ t=0.32
1.2579792576131468
% es.EX (V/m) @ t=0.32
0.8738022868019699
% es.EY (V/m) @ t=0.32
0.13084221285561615
% es.EZ (V/m) @ t=0.32
-0.8725271687719283
% es.tEX (V/m) @ t=0.32
0.8738022868019693
% es.tEY (V/m) @ t=0.32
0
% es.tEZ (V/m) @ t=0.32
-0.8725271687719172
% es.Ex (V/m) @ t=0.32
0.8738022868019699
% es.Ey (V/m) @ t=0.32
0.13084221285561615
% es.Ez (V/m) @ t=0.32
-0.8725271687719283
% es.tEx (V/m) @ t=0.32
0.8738022868019693
% es.tEy (V/m) @ t=0.32
0
% es.tEz (V/m) @ t=0.32
-0.8725271687719172
% V (V) @ t=0.32
0.013471299486409502
% es.normE (V/m) @ t=0.34
1.2700455504251664
% es.EX (V/m) @ t=0.34
0.882183632954032
% es.EY (V/m) @ t=0.34
0.13209720304786587
% es.EZ (V/m) @ t=0.34
-0.8808962835331711
% es.tEX (V/m) @ t=0.34
0.8821836329540336
% es.tEY (V/m) @ t=0.34
0
% es.tEZ (V/m) @ t=0.34
-0.8808962835331533
% es.Ex (V/m) @ t=0.34
0.882183632954032
% es.Ey (V/m) @ t=0.34
0.13209720304786587
% es.Ez (V/m) @ t=0.34
-0.8808962835331711
% es.tEx (V/m) @ t=0.34
0.8821836329540336
% es.tEy (V/m) @ t=0.34
0
% es.tEz (V/m) @ t=0.34
-0.8808962835331533
% V (V) @ t=0.34
0.013600514969114253
% es.normE (V/m) @ t=0.36
1.2821118432371867
% es.EX (V/m) @ t=0.36
0.8905649791060946
% es.EY (V/m) @ t=0.36
0.13335219324011222
% es.EZ (V/m) @ t=0.36
-0.889265398294413
% es.tEX (V/m) @ t=0.36
0.8905649791060934
% es.tEY (V/m) @ t=0.36
0
% es.tEZ (V/m) @ t=0.36
-0.8892653982943948
% es.Ex (V/m) @ t=0.36
0.8905649791060946
% es.Ey (V/m) @ t=0.36
0.13335219324011222
% es.Ez (V/m) @ t=0.36
-0.889265398294413
% es.tEx (V/m) @ t=0.36
0.8905649791060934
% es.tEy (V/m) @ t=0.36
0
% es.tEz (V/m) @ t=0.36
-0.8892653982943948
% V (V) @ t=0.36
0.013729730451819003
% es.normE (V/m) @ t=0.38
1.2941781360492128
% es.EX (V/m) @ t=0.38
0.8989463252581531
% es.EY (V/m) @ t=0.38
0.13460718343239392
% es.EZ (V/m) @ t=0.38
-0.8976345130556562
% es.tEX (V/m) @ t=0.38
0.898946325258156
% es.tEY (V/m) @ t=0.38
0
% es.tEZ (V/m) @ t=0.38
-0.8976345130556522
% es.Ex (V/m) @ t=0.38
0.8989463252581531
% es.Ey (V/m) @ t=0.38
0.13460718343239392
% es.Ez (V/m) @ t=0.38
-0.8976345130556562
% es.tEx (V/m) @ t=0.38
0.898946325258156
% es.tEy (V/m) @ t=0.38
0
% es.tEz (V/m) @ t=0.38
-0.8976345130556522
% V (V) @ t=0.38
0.013858945934523755
% es.normE (V/m) @ t=0.4
1.3062444288612194
% es.EX (V/m) @ t=0.4
0.9073276714102054
% es.EY (V/m) @ t=0.4
0.1358621736246587
% es.EZ (V/m) @ t=0.4
-0.9060036278168844
% es.tEX (V/m) @ t=0.4
0.9073276714102101
% es.tEY (V/m) @ t=0.4
0
% es.tEZ (V/m) @ t=0.4
-0.9060036278168662
% es.Ex (V/m) @ t=0.4
0.9073276714102054
% es.Ey (V/m) @ t=0.4
0.1358621736246587
% es.Ez (V/m) @ t=0.4
-0.9060036278168844
% es.tEx (V/m) @ t=0.4
0.9073276714102101
% es.tEy (V/m) @ t=0.4
0
% es.tEz (V/m) @ t=0.4
-0.9060036278168662
% V (V) @ t=0.4
0.013988161417228508
% es.normE (V/m) @ t=0.42
1.3183107216732404
% es.EX (V/m) @ t=0.42
0.915709017562264
% es.EY (V/m) @ t=0.42
0.13711716381690597
% es.EZ (V/m) @ t=0.42
-0.9143727425781267
% es.tEX (V/m) @ t=0.42
0.9157090175622633
% es.tEY (V/m) @ t=0.42
0
% es.tEZ (V/m) @ t=0.42
-0.9143727425781156
% es.Ex (V/m) @ t=0.42
0.915709017562264
% es.Ey (V/m) @ t=0.42
0.13711716381690597
% es.Ez (V/m) @ t=0.42
-0.9143727425781267
% es.tEx (V/m) @ t=0.42
0.9157090175622633
% es.tEy (V/m) @ t=0.42
0
% es.tEz (V/m) @ t=0.42
-0.9143727425781156
% V (V) @ t=0.42
0.014117376899933256
% es.normE (V/m) @ t=0.44
1.3303770144852578
% es.EX (V/m) @ t=0.44
0.9240903637143261
% es.EY (V/m) @ t=0.44
0.13837215400916364
% es.EZ (V/m) @ t=0.44
-0.9227418573393549
% es.tEX (V/m) @ t=0.44
0.9240903637143272
% es.tEY (V/m) @ t=0.44
0
% es.tEZ (V/m) @ t=0.44
-0.9227418573393438
% es.Ex (V/m) @ t=0.44
0.9240903637143261
% es.Ey (V/m) @ t=0.44
0.13837215400916364
% es.Ez (V/m) @ t=0.44
-0.9227418573393549
% es.tEx (V/m) @ t=0.44
0.9240903637143272
% es.tEy (V/m) @ t=0.44
0
% es.tEz (V/m) @ t=0.44
-0.9227418573393438
% V (V) @ t=0.44
0.014246592382638005
% es.normE (V/m) @ t=0.46
1.3424433072972746
% es.EX (V/m) @ t=0.46
0.9324717098663908
% es.EY (V/m) @ t=0.46
0.13962714420143418
% es.EZ (V/m) @ t=0.46
-0.9311109721005892
% es.tEX (V/m) @ t=0.46
0.932471709866395
% es.tEY (V/m) @ t=0.46
0
% es.tEZ (V/m) @ t=0.46
-0.931110972100571
% es.Ex (V/m) @ t=0.46
0.9324717098663908
% es.Ey (V/m) @ t=0.46
0.13962714420143418
% es.Ez (V/m) @ t=0.46
-0.9311109721005892
% es.tEx (V/m) @ t=0.46
0.932471709866395
% es.tEy (V/m) @ t=0.46
0
% es.tEz (V/m) @ t=0.46
-0.931110972100571
% V (V) @ t=0.46
0.014375807865342753
% es.normE (V/m) @ t=0.48
1.3545096001092958
% es.EX (V/m) @ t=0.48
0.9408530560184449
% es.EY (V/m) @ t=0.48
0.1408821343936757
% es.EZ (V/m) @ t=0.48
-0.9394800868618325
% es.tEX (V/m) @ t=0.48
0.9408530560184514
% es.tEY (V/m) @ t=0.48
0
% es.tEZ (V/m) @ t=0.48
-0.9394800868618143
% es.Ex (V/m) @ t=0.48
0.9408530560184449
% es.Ey (V/m) @ t=0.48
0.1408821343936757
% es.Ez (V/m) @ t=0.48
-0.9394800868618325
% es.tEx (V/m) @ t=0.48
0.9408530560184514
% es.tEy (V/m) @ t=0.48
0
% es.tEz (V/m) @ t=0.48
-0.9394800868618143
% V (V) @ t=0.48
0.014505023348047503
% es.normE (V/m) @ t=0.5
1.3665758929213108
% es.EX (V/m) @ t=0.5
0.9492344021705101
% es.EY (V/m) @ t=0.5
0.14213712458595512
% es.EZ (V/m) @ t=0.5
-0.9478492016230455
% es.tEX (V/m) @ t=0.5
0.9492344021705157
% es.tEY (V/m) @ t=0.5
0
% es.tEZ (V/m) @ t=0.5
-0.9478492016230273
% es.Ex (V/m) @ t=0.5
0.9492344021705101
% es.Ey (V/m) @ t=0.5
0.14213712458595512
% es.Ez (V/m) @ t=0.5
-0.9478492016230455
% es.tEx (V/m) @ t=0.5
0.9492344021705157
% es.tEy (V/m) @ t=0.5
0
% es.tEz (V/m) @ t=0.5
-0.9478492016230273
% V (V) @ t=0.5
0.014634238830752258
% es.normE (V/m) @ t=0.52
1.3791464374478806
% es.EX (V/m) @ t=0.52
0.9579660157156182
% es.EY (V/m) @ t=0.52
0.14344450650210389
% es.EZ (V/m) @ t=0.52
-0.9565680711663762
% es.tEX (V/m) @ t=0.52
0.9579660157156185
% es.tEY (V/m) @ t=0.52
0
% es.tEZ (V/m) @ t=0.52
-0.956568071166358
% es.Ex (V/m) @ t=0.52
0.9579660157156182
% es.Ey (V/m) @ t=0.52
0.14344450650210389
% es.Ez (V/m) @ t=0.52
-0.9565680711663762
% es.tEx (V/m) @ t=0.52
0.9579660157156185
% es.tEy (V/m) @ t=0.52
0
% es.tEz (V/m) @ t=0.52
-0.956568071166358
% V (V) @ t=0.52
0.0147688575650951
% es.normE (V/m) @ t=0.54
1.3925183602782856
% es.EX (V/m) @ t=0.54
0.9672542891217233
% es.EY (V/m) @ t=0.54
0.14483515157752924
% es.EZ (V/m) @ t=0.54
-0.9658427859074927
% es.tEX (V/m) @ t=0.54
0.9672542891217288
% es.tEY (V/m) @ t=0.54
0
% es.tEZ (V/m) @ t=0.54
-0.9658427859074745
% es.Ex (V/m) @ t=0.54
0.9672542891217233
% es.Ey (V/m) @ t=0.54
0.14483515157752924
% es.Ez (V/m) @ t=0.54
-0.9658427859074927
% es.tEx (V/m) @ t=0.54
0.9672542891217288
% es.tEy (V/m) @ t=0.54
0
% es.tEz (V/m) @ t=0.54
-0.9658427859074745
% V (V) @ t=0.54
0.014912063377097783
% es.normE (V/m) @ t=0.56
1.4058902831087103
% es.EX (V/m) @ t=0.56
0.9765425625278239
% es.EY (V/m) @ t=0.56
0.14622579665297336
% es.EZ (V/m) @ t=0.56
-0.9751175006485959
% es.tEX (V/m) @ t=0.56
0.976542562527825
% es.tEY (V/m) @ t=0.56
0
% es.tEZ (V/m) @ t=0.56
-0.9751175006485777
% es.Ex (V/m) @ t=0.56
0.9765425625278239
% es.Ey (V/m) @ t=0.56
0.14622579665297336
% es.Ez (V/m) @ t=0.56
-0.9751175006485959
% es.tEx (V/m) @ t=0.56
0.976542562527825
% es.tEy (V/m) @ t=0.56
0
% es.tEz (V/m) @ t=0.56
-0.9751175006485777
% V (V) @ t=0.56
0.015055269189100464
% es.normE (V/m) @ t=0.58
1.419262205939189
% es.EX (V/m) @ t=0.58
0.9858308359339347
% es.EY (V/m) @ t=0.58
0.1476164417284252
% es.EZ (V/m) @ t=0.58
-0.9843922153897204
% es.tEX (V/m) @ t=0.58
0.9858308359339385
% es.tEY (V/m) @ t=0.58
0
% es.tEZ (V/m) @ t=0.58
-0.9843922153897022
% es.Ex (V/m) @ t=0.58
0.9858308359339347
% es.Ey (V/m) @ t=0.58
0.1476164417284252
% es.Ez (V/m) @ t=0.58
-0.9843922153897204
% es.tEx (V/m) @ t=0.58
0.9858308359339385
% es.tEy (V/m) @ t=0.58
0
% es.tEz (V/m) @ t=0.58
-0.9843922153897022
% V (V) @ t=0.58
0.015198475001103143
% es.normE (V/m) @ t=0.6
1.4326341287696862
% es.EX (V/m) @ t=0.6
0.9951191093400433
% es.EY (V/m) @ t=0.6
0.14900708680385333
% es.EZ (V/m) @ t=0.6
-0.9936669301308378
% es.tEX (V/m) @ t=0.6
0.9951191093400453
% es.tEY (V/m) @ t=0.6
0
% es.tEZ (V/m) @ t=0.6
-0.9936669301308196
% es.Ex (V/m) @ t=0.6
0.9951191093400433
% es.Ey (V/m) @ t=0.6
0.14900708680385333
% es.Ez (V/m) @ t=0.6
-0.9936669301308378
% es.tEx (V/m) @ t=0.6
0.9951191093400453
% es.tEy (V/m) @ t=0.6
0
% es.tEz (V/m) @ t=0.6
-0.9936669301308196
% V (V) @ t=0.6
0.015341680813105822
% es.normE (V/m) @ t=0.62
1.446006051600202
% es.EX (V/m) @ t=0.62
1.004407382746139
% es.EY (V/m) @ t=0.62
0.15039773187929822
% es.EZ (V/m) @ t=0.62
-1.0029416448719402
% es.tEX (V/m) @ t=0.62
1.004407382746141
% es.tEY (V/m) @ t=0.62
0
% es.tEZ (V/m) @ t=0.62
-1.002941644871922
% es.Ex (V/m) @ t=0.62
1.004407382746139
% es.Ey (V/m) @ t=0.62
0.15039773187929822
% es.Ez (V/m) @ t=0.62
-1.0029416448719402
% es.tEx (V/m) @ t=0.62
1.004407382746141
% es.tEy (V/m) @ t=0.62
0
% es.tEz (V/m) @ t=0.62
-1.002941644871922
% V (V) @ t=0.62
0.015484886625108506
% es.normE (V/m) @ t=0.64
1.4593779744307667
% es.EX (V/m) @ t=0.64
1.013695656152249
% es.EY (V/m) @ t=0.64
0.15178837695473524
% es.EZ (V/m) @ t=0.64
-1.0122163596130718
% es.tEX (V/m) @ t=0.64
1.0136956561522545
% es.tEY (V/m) @ t=0.64
0
% es.tEZ (V/m) @ t=0.64
-1.0122163596130536
% es.Ex (V/m) @ t=0.64
1.013695656152249
% es.Ey (V/m) @ t=0.64
0.15178837695473524
% es.Ez (V/m) @ t=0.64
-1.0122163596130718
% es.tEx (V/m) @ t=0.64
1.0136956561522545
% es.tEy (V/m) @ t=0.64
0
% es.tEz (V/m) @ t=0.64
-1.0122163596130536
% V (V) @ t=0.64
0.015628092437111184
% es.normE (V/m) @ t=0.66
1.4727498972613393
% es.EX (V/m) @ t=0.66
1.0229839295583563
% es.EY (V/m) @ t=0.66
0.15317902203015615
% es.EZ (V/m) @ t=0.66
-1.0214910743541705
% es.tEX (V/m) @ t=0.66
1.0229839295583618
% es.tEY (V/m) @ t=0.66
0
% es.tEZ (V/m) @ t=0.66
-1.0214910743541488
% es.Ex (V/m) @ t=0.66
1.0229839295583563
% es.Ey (V/m) @ t=0.66
0.15317902203015615
% es.Ez (V/m) @ t=0.66
-1.0214910743541705
% es.tEx (V/m) @ t=0.66
1.0229839295583618
% es.tEy (V/m) @ t=0.66
0
% es.tEz (V/m) @ t=0.66
-1.0214910743541488
% V (V) @ t=0.66
0.015771298249113865
% es.normE (V/m) @ t=0.68
1.4861218200919506
% es.EX (V/m) @ t=0.68
1.032272202964464
% es.EY (V/m) @ t=0.68
0.15456966710560932
% es.EZ (V/m) @ t=0.68
-1.030765789095287
% es.tEX (V/m) @ t=0.68
1.032272202964466
% es.tEY (V/m) @ t=0.68
0
% es.tEZ (V/m) @ t=0.68
-1.0307657890952653
% es.Ex (V/m) @ t=0.68
1.032272202964464
% es.Ey (V/m) @ t=0.68
0.15456966710560932
% es.Ez (V/m) @ t=0.68
-1.030765789095287
% es.tEx (V/m) @ t=0.68
1.032272202964466
% es.tEy (V/m) @ t=0.68
0
% es.tEz (V/m) @ t=0.68
-1.0307657890952653
% V (V) @ t=0.68
0.015914504061116542
% es.normE (V/m) @ t=0.7
1.4994937429225792
% es.EX (V/m) @ t=0.7
1.0415604763705606
% es.EY (V/m) @ t=0.7
0.15596031218103468
% es.EZ (V/m) @ t=0.7
-1.040040503836404
% es.tEX (V/m) @ t=0.7
1.0415604763705661
% es.tEY (V/m) @ t=0.7
0
% es.tEZ (V/m) @ t=0.7
-1.0400405038363818
% es.Ex (V/m) @ t=0.7
1.0415604763705606
% es.Ey (V/m) @ t=0.7
0.15596031218103468
% es.Ez (V/m) @ t=0.7
-1.040040503836404
% es.tEx (V/m) @ t=0.7
1.0415604763705661
% es.tEy (V/m) @ t=0.7
0
% es.tEz (V/m) @ t=0.7
-1.0400405038363818
% V (V) @ t=0.7
0.016057709873119223
% es.normE (V/m) @ t=0.72
1.5128656657532487
% es.EX (V/m) @ t=0.72
1.050848749776674
% es.EY (V/m) @ t=0.72
0.15735095725648596
% es.EZ (V/m) @ t=0.72
-1.0493152185775148
% es.tEX (V/m) @ t=0.72
1.0508487497766787
% es.tEY (V/m) @ t=0.72
0
% es.tEZ (V/m) @ t=0.72
-1.049315218577493
% es.Ex (V/m) @ t=0.72
1.050848749776674
% es.Ey (V/m) @ t=0.72
0.15735095725648596
% es.Ez (V/m) @ t=0.72
-1.0493152185775148
% es.tEx (V/m) @ t=0.72
1.0508487497766787
% es.tEy (V/m) @ t=0.72
0
% es.tEz (V/m) @ t=0.72
-1.049315218577493
% V (V) @ t=0.72
0.016200915685121907
% es.normE (V/m) @ t=0.74
1.5262375885839403
% es.EX (V/m) @ t=0.74
1.060137023182777
% es.EY (V/m) @ t=0.74
0.15874160233193352
% es.EZ (V/m) @ t=0.74
-1.0585899333186455
% es.tEX (V/m) @ t=0.74
1.0601370231827785
% es.tEY (V/m) @ t=0.74
0
% es.tEZ (V/m) @ t=0.74
-1.0585899333186166
% es.Ex (V/m) @ t=0.74
1.060137023182777
% es.Ey (V/m) @ t=0.74
0.15874160233193352
% es.Ez (V/m) @ t=0.74
-1.0585899333186455
% es.tEx (V/m) @ t=0.74
1.0601370231827785
% es.tEy (V/m) @ t=0.74
0
% es.tEz (V/m) @ t=0.74
-1.0585899333186166
% V (V) @ t=0.74
0.016344121497124584
% es.normE (V/m) @ t=0.76
1.5396095114146413
% es.EX (V/m) @ t=0.76
1.0694252965888793
% es.EY (V/m) @ t=0.76
0.1601322474073763
% es.EZ (V/m) @ t=0.76
-1.0678646480597496
% es.tEX (V/m) @ t=0.76
1.0694252965888777
% es.tEY (V/m) @ t=0.76
0
% es.tEZ (V/m) @ t=0.76
-1.0678646480597278
% es.Ex (V/m) @ t=0.76
1.0694252965888793
% es.Ey (V/m) @ t=0.76
0.1601322474073763
% es.Ez (V/m) @ t=0.76
-1.0678646480597496
% es.tEx (V/m) @ t=0.76
1.0694252965888777
% es.tEy (V/m) @ t=0.76
0
% es.tEz (V/m) @ t=0.76
-1.0678646480597278
% V (V) @ t=0.76
0.016487327309127265
% es.normE (V/m) @ t=0.78
1.5538377644463623
% es.EX (V/m) @ t=0.78
1.0793083987319927
% es.EY (V/m) @ t=0.78
0.16161187769151764
% es.EZ (V/m) @ t=0.78
-1.0777333212488958
% es.tEX (V/m) @ t=0.78
1.0793083987319942
% es.tEY (V/m) @ t=0.78
0
% es.tEZ (V/m) @ t=0.78
-1.077733321248874
% es.Ex (V/m) @ t=0.78
1.0793083987319927
% es.Ey (V/m) @ t=0.78
0.16161187769151764
% es.Ez (V/m) @ t=0.78
-1.0777333212488958
% es.tEx (V/m) @ t=0.78
1.0793083987319942
% es.tEy (V/m) @ t=0.78
0
% es.tEz (V/m) @ t=0.78
-1.077733321248874
% V (V) @ t=0.78
0.016639708257269886
% es.normE (V/m) @ t=0.8
1.5686799185615272
% es.EX (V/m) @ t=0.8
1.0896179321812356
% es.EY (V/m) @ t=0.8
0.16315530126004196
% es.EZ (V/m) @ t=0.8
-1.0880278018360383
% es.tEX (V/m) @ t=0.8
1.0896179321812438
% es.tEY (V/m) @ t=0.8
0
% es.tEZ (V/m) @ t=0.8
-1.0880278018360094
% es.Ex (V/m) @ t=0.8
1.0896179321812356
% es.Ey (V/m) @ t=0.8
0.16315530126004196
% es.Ez (V/m) @ t=0.8
-1.0880278018360383
% es.tEx (V/m) @ t=0.8
1.0896179321812438
% es.tEy (V/m) @ t=0.8
0
% es.tEz (V/m) @ t=0.8
-1.0880278018360094
% V (V) @ t=0.8
0.016798666838678554
% es.normE (V/m) @ t=0.82
1.583522072676781
% es.EX (V/m) @ t=0.82
1.0999274656304647
% es.EY (V/m) @ t=0.82
0.16469872482857023
% es.EZ (V/m) @ t=0.82
-1.0983222824232026
% es.tEX (V/m) @ t=0.82
1.0999274656304698
% es.tEY (V/m) @ t=0.82
0
% es.tEZ (V/m) @ t=0.82
-1.0983222824231804
% es.Ex (V/m) @ t=0.82
1.0999274656304647
% es.Ey (V/m) @ t=0.82
0.16469872482857023
% es.Ez (V/m) @ t=0.82
-1.0983222824232026
% es.tEx (V/m) @ t=0.82
1.0999274656304698
% es.tEy (V/m) @ t=0.82
0
% es.tEz (V/m) @ t=0.82
-1.0983222824231804
% V (V) @ t=0.82
0.016957625420087222
% es.normE (V/m) @ t=0.84
1.5983642267921128
% es.EX (V/m) @ t=0.84
1.1102369990797114
% es.EY (V/m) @ t=0.84
0.16624214839709278
% es.EZ (V/m) @ t=0.84
-1.1086167630103385
% es.tEX (V/m) @ t=0.84
1.1102369990797127
% es.tEY (V/m) @ t=0.84
0
% es.tEZ (V/m) @ t=0.84
-1.1086167630103168
% es.Ex (V/m) @ t=0.84
1.1102369990797114
% es.Ey (V/m) @ t=0.84
0.16624214839709278
% es.Ez (V/m) @ t=0.84
-1.1086167630103385
% es.tEx (V/m) @ t=0.84
1.1102369990797127
% es.tEy (V/m) @ t=0.84
0
% es.tEz (V/m) @ t=0.84
-1.1086167630103168
% V (V) @ t=0.84
0.017116584001495894
% es.normE (V/m) @ t=0.86
1.613206380907541
% es.EX (V/m) @ t=0.86
1.120546532528938
% es.EY (V/m) @ t=0.86
0.16778557196560295
% es.EZ (V/m) @ t=0.86
-1.1189112435975246
% es.tEX (V/m) @ t=0.86
1.1205465325289463
% es.tEY (V/m) @ t=0.86
0
% es.tEZ (V/m) @ t=0.86
-1.11891124359751
% es.Ex (V/m) @ t=0.86
1.120546532528938
% es.Ey (V/m) @ t=0.86
0.16778557196560295
% es.Ez (V/m) @ t=0.86
-1.1189112435975246
% es.tEx (V/m) @ t=0.86
1.1205465325289463
% es.tEy (V/m) @ t=0.86
0
% es.tEz (V/m) @ t=0.86
-1.11891124359751
% V (V) @ t=0.86
0.017275542582904566
% es.normE (V/m) @ t=0.88
1.6280485350230434
% es.EX (V/m) @ t=0.88
1.130856065978185
% es.EY (V/m) @ t=0.88
0.16932899553413927
% es.EZ (V/m) @ t=0.88
-1.1292057241846822
% es.tEX (V/m) @ t=0.88
1.1308560659781821
% es.tEY (V/m) @ t=0.88
0
% es.tEZ (V/m) @ t=0.88
-1.1292057241846605
% es.Ex (V/m) @ t=0.88
1.130856065978185
% es.Ey (V/m) @ t=0.88
0.16932899553413927
% es.Ez (V/m) @ t=0.88
-1.1292057241846822
% es.tEx (V/m) @ t=0.88
1.1308560659781821
% es.tEy (V/m) @ t=0.88
0
% es.tEz (V/m) @ t=0.88
-1.1292057241846605
% V (V) @ t=0.88
0.017434501164313235
% es.normE (V/m) @ t=0.9
1.6428906891386146
% es.EX (V/m) @ t=0.9
1.1411655994274172
% es.EY (V/m) @ t=0.9
0.17087241910266182
% es.EZ (V/m) @ t=0.9
-1.139500204771839
% es.tEX (V/m) @ t=0.9
1.1411655994274184
% es.tEY (V/m) @ t=0.9
0
% es.tEZ (V/m) @ t=0.9
-1.1395002047718101
% es.Ex (V/m) @ t=0.9
1.1411655994274172
% es.Ey (V/m) @ t=0.9
0.17087241910266182
% es.Ez (V/m) @ t=0.9
-1.139500204771839
% es.tEx (V/m) @ t=0.9
1.1411655994274184
% es.tEy (V/m) @ t=0.9
0
% es.tEz (V/m) @ t=0.9
-1.1395002047718101
% V (V) @ t=0.9
0.017593459745721907
% es.normE (V/m) @ t=0.92
1.6577328432542453
% es.EX (V/m) @ t=0.92
1.1514751328766522
% es.EY (V/m) @ t=0.92
0.17241584267117943
% es.EZ (V/m) @ t=0.92
-1.1497946853589815
% es.tEX (V/m) @ t=0.92
1.1514751328766666
% es.tEY (V/m) @ t=0.92
0
% es.tEZ (V/m) @ t=0.92
-1.1497946853589598
% es.Ex (V/m) @ t=0.92
1.1514751328766522
% es.Ey (V/m) @ t=0.92
0.17241584267117943
% es.Ez (V/m) @ t=0.92
-1.1497946853589815
% es.tEx (V/m) @ t=0.92
1.1514751328766666
% es.tEy (V/m) @ t=0.92
0
% es.tEz (V/m) @ t=0.92
-1.1497946853589598
% V (V) @ t=0.92
0.01775241832713058
% es.normE (V/m) @ t=0.94
1.6725749973699715
% es.EX (V/m) @ t=0.94
1.161784666325906
% es.EY (V/m) @ t=0.94
0.1739592662397073
% es.EZ (V/m) @ t=0.94
-1.1600891659461388
% es.tEX (V/m) @ t=0.94
1.1617846663259104
% es.tEY (V/m) @ t=0.94
0
% es.tEZ (V/m) @ t=0.94
-1.1600891659461237
% es.Ex (V/m) @ t=0.94
1.161784666325906
% es.Ey (V/m) @ t=0.94
0.1739592662397073
% es.Ez (V/m) @ t=0.94
-1.1600891659461388
% es.tEx (V/m) @ t=0.94
1.1617846663259104
% es.tEy (V/m) @ t=0.94
0
% es.tEz (V/m) @ t=0.94
-1.1600891659461237
% V (V) @ t=0.94
0.017911376908539244
% es.normE (V/m) @ t=0.96
1.6874171514857688
% es.EX (V/m) @ t=0.96
1.1720941997751448
% es.EY (V/m) @ t=0.96
0.17550268980822015
% es.EZ (V/m) @ t=0.96
-1.170383646533311
% es.tEX (V/m) @ t=0.96
1.1720941997751453
% es.tEY (V/m) @ t=0.96
0
% es.tEZ (V/m) @ t=0.96
-1.170383646533275
% es.Ex (V/m) @ t=0.96
1.1720941997751448
% es.Ey (V/m) @ t=0.96
0.17550268980822015
% es.Ez (V/m) @ t=0.96
-1.170383646533311
% es.tEx (V/m) @ t=0.96
1.1720941997751453
% es.tEy (V/m) @ t=0.96
0
% es.tEz (V/m) @ t=0.96
-1.170383646533275
% V (V) @ t=0.96
0.018070335489947915
% es.normE (V/m) @ t=0.98
1.702259305601618
% es.EX (V/m) @ t=0.98
1.1824037332243789
% es.EY (V/m) @ t=0.98
0.1770461133767236
% es.EZ (V/m) @ t=0.98
-1.1806781271204678
% es.tEX (V/m) @ t=0.98
1.1824037332243797
% es.tEY (V/m) @ t=0.98
0
% es.tEZ (V/m) @ t=0.98
-1.180678127120439
% es.Ex (V/m) @ t=0.98
1.1824037332243789
% es.Ey (V/m) @ t=0.98
0.1770461133767236
% es.Ez (V/m) @ t=0.98
-1.1806781271204678
% es.tEx (V/m) @ t=0.98
1.1824037332243797
% es.tEy (V/m) @ t=0.98
0
% es.tEz (V/m) @ t=0.98
-1.180678127120439
% V (V) @ t=0.98
0.01822929407135658
% es.normE (V/m) @ t=1
1.7171014597175418
% es.EX (V/m) @ t=1
1.192713266673612
% es.EY (V/m) @ t=1
0.1785895369452834
% es.EZ (V/m) @ t=1
-1.1909726077076397
% es.tEX (V/m) @ t=1
1.192713266673615
% es.tEY (V/m) @ t=1
0
% es.tEZ (V/m) @ t=1
-1.1909726077076037
% es.Ex (V/m) @ t=1
1.192713266673612
% es.Ey (V/m) @ t=1
0.1785895369452834
% es.Ez (V/m) @ t=1
-1.1909726077076397
% es.tEx (V/m) @ t=1
1.192713266673615
% es.tEy (V/m) @ t=1
0
% es.tEz (V/m) @ t=1
-1.1909726077076037
% V (V) @ t=1
0.018388252652765252
% es.normE (V/m) @ t=1.02
1.7319436138335367
% es.EX (V/m) @ t=1.02
1.2030228001228571
% es.EY (V/m) @ t=1.02
0.18013296051379485
% es.EZ (V/m) @ t=1.02
-1.2012670882948036
% es.tEX (V/m) @ t=1.02
1.2030228001228576
% es.tEY (V/m) @ t=1.02
0
% es.tEZ (V/m) @ t=1.02
-1.2012670882947818
% es.Ex (V/m) @ t=1.02
1.2030228001228571
% es.Ey (V/m) @ t=1.02
0.18013296051379485
% es.Ez (V/m) @ t=1.02
-1.2012670882948036
% es.tEx (V/m) @ t=1.02
1.2030228001228576
% es.tEy (V/m) @ t=1.02
0
% es.tEz (V/m) @ t=1.02
-1.2012670882947818
% V (V) @ t=1.02
0.01854721123417392
% es.normE (V/m) @ t=1.04
1.7473448144397201
% es.EX (V/m) @ t=1.04
1.2137206213206841
% es.EY (V/m) @ t=1.04
0.18173469506835216
% es.EZ (V/m) @ t=1.04
-1.2119492945339325
% es.tEX (V/m) @ t=1.04
1.2137206213206913