% Model:              1 neuron.mph
% Version:            COMSOL 6.1.0.252
% Date:               Mar 22 2023, 19:44
% Dimension:          0
% Nodes:              14017
% Expressions:        14017
% Description:        Electric field norm, Electric field, X component, Electric field, Y component, Electric field, Z component, Tangential electric field, X component, Tangential electric field, Y component, Tangential electric field, Z component, Electric field, x component, Electric field, y component, Electric field, z component, Tangential electric field, x component, Tangential electric field, y component, Tangential electric field, z component, Electric potential
% Length unit:        mm
% x
1.66
% y
12.2
% z
1
% es.normE (V/m) @ t=0
2.7185629523961534
% es.EX (V/m) @ t=0
-0.9689970824346046
% es.EY (V/m) @ t=0
0.3078460288406011
% es.EZ (V/m) @ t=0
2.513472264022254
% es.tEX (V/m) @ t=0
-0.9689970824346188
% es.tEY (V/m) @ t=0
0
% es.tEZ (V/m) @ t=0
2.5134722640222584
% es.Ex (V/m) @ t=0
-0.9689970824346046
% es.Ey (V/m) @ t=0
0.3078460288406011
% es.Ez (V/m) @ t=0
2.513472264022254
% es.tEx (V/m) @ t=0
-0.9689970824346188
% es.tEy (V/m) @ t=0
0
% es.tEz (V/m) @ t=0
2.5134722640222584
% V (V) @ t=0
0.01323611635854982
% es.normE (V/m) @ t=0.02
2.348064757609525
% es.EX (V/m) @ t=0.02
-0.8369377274656413
% es.EY (V/m) @ t=0.02
0.2658913638157925
% es.EZ (V/m) @ t=0.02
2.17092476642154
% es.tEX (V/m) @ t=0.02
-0.8369377274656484
% es.tEY (V/m) @ t=0.02
0
% es.tEZ (V/m) @ t=0.02
2.1709247664215425
% es.Ex (V/m) @ t=0.02
-0.8369377274656413
% es.Ey (V/m) @ t=0.02
0.2658913638157925
% es.Ez (V/m) @ t=0.02
2.17092476642154
% es.tEx (V/m) @ t=0.02
-0.8369377274656484
% es.tEy (V/m) @ t=0.02
0
% es.tEz (V/m) @ t=0.02
2.1709247664215425
% V (V) @ t=0.02
0.011432237869473396
% es.normE (V/m) @ t=0.04
2.3696796164125535
% es.EX (V/m) @ t=0.04
-0.8446420681316038
% es.EY (V/m) @ t=0.04
0.26833899830227437
% es.EZ (V/m) @ t=0.04
2.190908981997203
% es.tEX (V/m) @ t=0.04
-0.844642068131618
% es.tEY (V/m) @ t=0.04
0
% es.tEZ (V/m) @ t=0.04
2.1909089819972056
% es.Ex (V/m) @ t=0.04
-0.8446420681316038
% es.Ey (V/m) @ t=0.04
0.26833899830227437
% es.Ez (V/m) @ t=0.04
2.190908981997203
% es.tEx (V/m) @ t=0.04
-0.844642068131618
% es.tEy (V/m) @ t=0.04
0
% es.tEz (V/m) @ t=0.04
2.1909089819972056
% V (V) @ t=0.04
0.011537476111403289
% es.normE (V/m) @ t=0.06
2.3914506452122533
% es.EX (V/m) @ t=0.06
-0.8524020738142287
% es.EY (V/m) @ t=0.06
0.27080431733260313
% es.EZ (V/m) @ t=0.06
2.2110375858922815
% es.tEX (V/m) @ t=0.06
-0.8524020738142429
% es.tEY (V/m) @ t=0.06
0
% es.tEZ (V/m) @ t=0.06
2.2110375858922833
% es.Ex (V/m) @ t=0.06
-0.8524020738142287
% es.Ey (V/m) @ t=0.06
0.27080431733260313
% es.Ez (V/m) @ t=0.06
2.2110375858922815
% es.tEx (V/m) @ t=0.06
-0.8524020738142429
% es.tEy (V/m) @ t=0.06
0
% es.tEz (V/m) @ t=0.06
2.2110375858922833
% V (V) @ t=0.06
0.011643474734341009
% es.normE (V/m) @ t=0.08
2.4136421340359364
% es.EX (V/m) @ t=0.08
-0.8603119471334995
% es.EY (V/m) @ t=0.08
0.2733172486393338
% es.EZ (V/m) @ t=0.08
2.231554929942148
% es.tEX (V/m) @ t=0.08
-0.8603119471335137
% es.tEY (V/m) @ t=0.08
0
% es.tEZ (V/m) @ t=0.08
2.2315549299421544
% es.Ex (V/m) @ t=0.08
-0.8603119471334995
% es.Ey (V/m) @ t=0.08
0.2733172486393338
% es.Ez (V/m) @ t=0.08
2.231554929942148
% es.tEx (V/m) @ t=0.08
-0.8603119471335137
% es.tEy (V/m) @ t=0.08
0
% es.tEz (V/m) @ t=0.08
2.2315549299421544
% V (V) @ t=0.08
0.01175152049190314
% es.normE (V/m) @ t=0.1
2.435942285884206
% es.EX (V/m) @ t=0.1
-0.8682605520080886
% es.EY (V/m) @ t=0.1
0.27584248478759377
% es.EZ (V/m) @ t=0.1
2.2521727393837043
% es.tEX (V/m) @ t=0.1
-0.8682605520081064
% es.tEY (V/m) @ t=0.1
0
% es.tEZ (V/m) @ t=0.1
2.252172739383706
% es.Ex (V/m) @ t=0.1
-0.8682605520080886
% es.Ey (V/m) @ t=0.1
0.27584248478759377
% es.Ez (V/m) @ t=0.1
2.2521727393837043
% es.tEx (V/m) @ t=0.1
-0.8682605520081064
% es.tEy (V/m) @ t=0.1
0
% es.tEz (V/m) @ t=0.1
2.252172739383706
% V (V) @ t=0.1
0.011860095307704729
% es.normE (V/m) @ t=0.12
2.4582424377324834
% es.EX (V/m) @ t=0.12
-0.8762091568826882
% es.EY (V/m) @ t=0.12
0.2783677209358497
% es.EZ (V/m) @ t=0.12
2.2727905488252684
% es.tEX (V/m) @ t=0.12
-0.876209156882706
% es.tEY (V/m) @ t=0.12
0
% es.tEZ (V/m) @ t=0.12
2.2727905488252667
% es.Ex (V/m) @ t=0.12
-0.8762091568826882
% es.Ey (V/m) @ t=0.12
0.2783677209358497
% es.Ez (V/m) @ t=0.12
2.2727905488252684
% es.tEx (V/m) @ t=0.12
-0.876209156882706
% es.tEy (V/m) @ t=0.12
0
% es.tEz (V/m) @ t=0.12
2.2727905488252667
% V (V) @ t=0.12
0.011968670123506317
% es.normE (V/m) @ t=0.14
2.4812070002594835
% es.EX (V/m) @ t=0.14
-0.8843945821326544
% es.EY (V/m) @ t=0.14
0.280968193838379
% es.EZ (V/m) @ t=0.14
2.2940226453674812
% es.tEX (V/m) @ t=0.14
-0.8843945821326615
% es.tEY (V/m) @ t=0.14
0
% es.tEZ (V/m) @ t=0.14
2.2940226453674857
% es.Ex (V/m) @ t=0.14
-0.8843945821326544
% es.Ey (V/m) @ t=0.14
0.280968193838379
% es.Ez (V/m) @ t=0.14
2.2940226453674812
% es.tEx (V/m) @ t=0.14
-0.8843945821326615
% es.tEy (V/m) @ t=0.14
0
% es.tEz (V/m) @ t=0.14
2.2940226453674857
% V (V) @ t=0.14
0.012080479781772154
% es.normE (V/m) @ t=0.16
2.5046228345567285
% es.EX (V/m) @ t=0.16
-0.8927408572206028
% es.EY (V/m) @ t=0.16
0.2836197680015602
% es.EZ (V/m) @ t=0.16
2.3156719694411407
% es.tEX (V/m) @ t=0.16
-0.8927408572206099
% es.tEY (V/m) @ t=0.16
0
% es.tEZ (V/m) @ t=0.16
2.3156719694411443
% es.Ex (V/m) @ t=0.16
-0.8927408572206028
% es.Ey (V/m) @ t=0.16
0.2836197680015602
% es.Ez (V/m) @ t=0.16
2.3156719694411407
% es.tEx (V/m) @ t=0.16
-0.8927408572206099
% es.tEy (V/m) @ t=0.16
0
% es.tEz (V/m) @ t=0.16
2.3156719694411443
% V (V) @ t=0.16
0.012194486564696004
% es.normE (V/m) @ t=0.18
2.528038668853984
% es.EX (V/m) @ t=0.18
-0.9010871323085654
% es.EY (V/m) @ t=0.18
0.2862713421647378
% es.EZ (V/m) @ t=0.18
2.3373212935148064
% es.tEX (V/m) @ t=0.18
-0.9010871323085725
% es.tEY (V/m) @ t=0.18
0
% es.tEZ (V/m) @ t=0.18
2.337321293514808
% es.Ex (V/m) @ t=0.18
-0.9010871323085654
% es.Ey (V/m) @ t=0.18
0.2862713421647378
% es.Ez (V/m) @ t=0.18
2.3373212935148064
% es.tEx (V/m) @ t=0.18
-0.9010871323085725
% es.tEy (V/m) @ t=0.18
0
% es.tEz (V/m) @ t=0.18
2.337321293514808
% V (V) @ t=0.18
0.012308493347619855
% es.normE (V/m) @ t=0.2
2.5514545031512363
% es.EX (V/m) @ t=0.2
-0.9094334073965138
% es.EY (V/m) @ t=0.2
0.28892291632792766
% es.EZ (V/m) @ t=0.2
2.358970617588472
% es.tEX (V/m) @ t=0.2
-0.9094334073965209
% es.tEY (V/m) @ t=0.2
0
% es.tEZ (V/m) @ t=0.2
2.358970617588467
% es.Ex (V/m) @ t=0.2
-0.9094334073965138
% es.Ey (V/m) @ t=0.2
0.28892291632792766
% es.Ez (V/m) @ t=0.2
2.358970617588472
% es.tEx (V/m) @ t=0.2
-0.9094334073965209
% es.tEy (V/m) @ t=0.2
0
% es.tEz (V/m) @ t=0.2
2.358970617588467
% V (V) @ t=0.2
0.012422500130543707
% es.normE (V/m) @ t=0.22
2.574870337448492
% es.EX (V/m) @ t=0.22
-0.9177796824844691
% es.EY (V/m) @ t=0.22
0.2915744904911246
% es.EZ (V/m) @ t=0.22
2.380619941662138
% es.tEX (V/m) @ t=0.22
-0.9177796824844833
% es.tEY (V/m) @ t=0.22
0
% es.tEZ (V/m) @ t=0.22
2.380619941662143
% es.Ex (V/m) @ t=0.22
-0.9177796824844691
% es.Ey (V/m) @ t=0.22
0.2915744904911246
% es.Ez (V/m) @ t=0.22
2.380619941662138
% es.tEx (V/m) @ t=0.22
-0.9177796824844833
% es.tEy (V/m) @ t=0.22
0
% es.tEz (V/m) @ t=0.22
2.380619941662143
% V (V) @ t=0.22
0.012536506913467556
% es.normE (V/m) @ t=0.24
2.5982861717457375
% es.EX (V/m) @ t=0.24
-0.9261259575724172
% es.EY (V/m) @ t=0.24
0.29422606465430046
% es.EZ (V/m) @ t=0.24
2.4022692657358
% es.tEX (V/m) @ t=0.24
-0.9261259575724243
% es.tEY (V/m) @ t=0.24
0
% es.tEZ (V/m) @ t=0.24
2.4022692657357947
% es.Ex (V/m) @ t=0.24
-0.9261259575724172
% es.Ey (V/m) @ t=0.24
0.29422606465430046
% es.Ez (V/m) @ t=0.24
2.4022692657358
% es.tEx (V/m) @ t=0.24
-0.9261259575724243
% es.tEy (V/m) @ t=0.24
0
% es.tEz (V/m) @ t=0.24
2.4022692657357947
% V (V) @ t=0.24
0.012650513696391407
% es.normE (V/m) @ t=0.26
2.6221935405499246
% es.EX (V/m) @ t=0.26
-0.9346474443736141
% es.EY (V/m) @ t=0.26
0.2969333032784167
% es.EZ (V/m) @ t=0.26
2.424373038612937
% es.tEX (V/m) @ t=0.26
-0.9346474443736248
% es.tEY (V/m) @ t=0.26
0
% es.tEZ (V/m) @ t=0.26
2.424373038612938
% es.Ex (V/m) @ t=0.26
-0.9346474443736141
% es.Ey (V/m) @ t=0.26
0.2969333032784167
% es.Ez (V/m) @ t=0.26
2.424373038612937
% es.tEx (V/m) @ t=0.26
-0.9346474443736248
% es.tEy (V/m) @ t=0.26
0
% es.tEz (V/m) @ t=0.26
2.424373038612938
% V (V) @ t=0.26
0.012766914776380686
% es.normE (V/m) @ t=0.28
2.6481008401514092
% es.EX (V/m) @ t=0.28
-0.9438818237518338
% es.EY (V/m) @ t=0.28
0.29986702665210463
% es.EZ (V/m) @ t=0.28
2.4483258498486187
% es.tEX (V/m) @ t=0.28
-0.943881823751848
% es.tEY (V/m) @ t=0.28
0
% es.tEZ (V/m) @ t=0.28
2.4483258498486276
% es.Ex (V/m) @ t=0.28
-0.9438818237518338
% es.Ey (V/m) @ t=0.28
0.29986702665210463
% es.Ez (V/m) @ t=0.28
2.4483258498486187
% es.tEx (V/m) @ t=0.28
-0.943881823751848
% es.tEy (V/m) @ t=0.28
0
% es.tEz (V/m) @ t=0.28
2.4483258498486276
% V (V) @ t=0.28
0.012893057651445494
% es.normE (V/m) @ t=0.3
2.6740081397529005
% es.EX (V/m) @ t=0.3
-0.9531162031300573
% es.EY (V/m) @ t=0.3
0.3028007500257741
% es.EZ (V/m) @ t=0.3
2.4722786610843066
% es.tEX (V/m) @ t=0.3
-0.9531162031300715
% es.tEY (V/m) @ t=0.3
0
% es.tEZ (V/m) @ t=0.3
2.472278661084312
% es.Ex (V/m) @ t=0.3
-0.9531162031300573
% es.Ey (V/m) @ t=0.3
0.3028007500257741
% es.Ez (V/m) @ t=0.3
2.4722786610843066
% es.tEx (V/m) @ t=0.3
-0.9531162031300715
% es.tEy (V/m) @ t=0.3
0
% es.tEz (V/m) @ t=0.3
2.472278661084312
% V (V) @ t=0.3
0.013019200526510302
% es.normE (V/m) @ t=0.32
2.699915439354399
% es.EX (V/m) @ t=0.32
-0.9623505825082628
% es.EY (V/m) @ t=0.32
0.3057344733994676
% es.EZ (V/m) @ t=0.32
2.4962314723200043
% es.tEX (V/m) @ t=0.32
-0.9623505825082805
% es.tEY (V/m) @ t=0.32
0
% es.tEZ (V/m) @ t=0.32
2.4962314723200016
% es.Ex (V/m) @ t=0.32
-0.9623505825082628
% es.Ey (V/m) @ t=0.32
0.3057344733994676
% es.Ez (V/m) @ t=0.32
2.4962314723200043
% es.tEx (V/m) @ t=0.32
-0.9623505825082805
% es.tEy (V/m) @ t=0.32
0
% es.tEz (V/m) @ t=0.32
2.4962314723200016
% V (V) @ t=0.32
0.013145343401575109
% es.normE (V/m) @ t=0.34
2.7258227389558947
% es.EX (V/m) @ t=0.34
-0.9715849618864969
% es.EY (V/m) @ t=0.34
0.3086681967731484
% es.EZ (V/m) @ t=0.34
2.5201842835556887
% es.tEX (V/m) @ t=0.34
-0.9715849618865111
% es.tEY (V/m) @ t=0.34
0
% es.tEZ (V/m) @ t=0.34
2.5201842835556914
% es.Ex (V/m) @ t=0.34
-0.9715849618864969
% es.Ey (V/m) @ t=0.34
0.3086681967731484
% es.Ez (V/m) @ t=0.34
2.5201842835556887
% es.tEx (V/m) @ t=0.34
-0.9715849618865111
% es.tEy (V/m) @ t=0.34
0
% es.tEz (V/m) @ t=0.34
2.5201842835556914
% V (V) @ t=0.34
0.013271486276639918
% es.normE (V/m) @ t=0.36
2.7517300385573984
% es.EX (V/m) @ t=0.36
-0.9808193412647237
% es.EY (V/m) @ t=0.36
0.3116019201468381
% es.EZ (V/m) @ t=0.36
2.5441370947913793
% es.tEX (V/m) @ t=0.36
-0.9808193412647415
% es.tEY (V/m) @ t=0.36
0
% es.tEZ (V/m) @ t=0.36
2.5441370947913775
% es.Ex (V/m) @ t=0.36
-0.9808193412647237
% es.Ey (V/m) @ t=0.36
0.3116019201468381
% es.Ez (V/m) @ t=0.36
2.5441370947913793
% es.tEx (V/m) @ t=0.36
-0.9808193412647415
% es.tEy (V/m) @ t=0.36
0
% es.tEz (V/m) @ t=0.36
2.5441370947913775
% V (V) @ t=0.36
0.013397629151704723
% es.normE (V/m) @ t=0.38
2.7776373381588924
% es.EX (V/m) @ t=0.38
-0.9900537206429401
% es.EY (V/m) @ t=0.38
0.31453564352051533
% es.EZ (V/m) @ t=0.38
2.5680899060270663
% es.tEX (V/m) @ t=0.38
-0.9900537206429578
% es.tEY (V/m) @ t=0.38
0
% es.tEZ (V/m) @ t=0.38
2.568089906027067
% es.Ex (V/m) @ t=0.38
-0.9900537206429401
% es.Ey (V/m) @ t=0.38
0.31453564352051533
% es.Ez (V/m) @ t=0.38
2.5680899060270663
% es.tEx (V/m) @ t=0.38
-0.9900537206429578
% es.tEy (V/m) @ t=0.38
0
% es.tEz (V/m) @ t=0.38
2.568089906027067
% V (V) @ t=0.38
0.013523772026769531
% es.normE (V/m) @ t=0.4
2.803544637760394
% es.EX (V/m) @ t=0.4
-0.9992881000211598
% es.EY (V/m) @ t=0.4
0.3174693668942008
% es.EZ (V/m) @ t=0.4
2.5920427172627543
% es.tEX (V/m) @ t=0.4
-0.999288100021174
% es.tEY (V/m) @ t=0.4
0
% es.tEZ (V/m) @ t=0.4
2.592042717262755
% es.Ex (V/m) @ t=0.4
-0.9992881000211598
% es.Ey (V/m) @ t=0.4
0.3174693668942008
% es.Ez (V/m) @ t=0.4
2.5920427172627543
% es.tEx (V/m) @ t=0.4
-0.999288100021174
% es.tEy (V/m) @ t=0.4
0
% es.tEz (V/m) @ t=0.4
2.592042717262755
% V (V) @ t=0.4
0.013649914901834337
% es.normE (V/m) @ t=0.42
2.8294519373618914
% es.EX (V/m) @ t=0.42
-1.0085224793993794
% es.EY (V/m) @ t=0.42
0.3204030902678887
% es.EZ (V/m) @ t=0.42
2.615995528498437
% es.tEX (V/m) @ t=0.42
-1.0085224793993972
% es.tEY (V/m) @ t=0.42
0
% es.tEZ (V/m) @ t=0.42
2.6159955284984377
% es.Ex (V/m) @ t=0.42
-1.0085224793993794
% es.Ey (V/m) @ t=0.42
0.3204030902678887
% es.Ez (V/m) @ t=0.42
2.615995528498437
% es.tEx (V/m) @ t=0.42
-1.0085224793993972
% es.tEy (V/m) @ t=0.42
0
% es.tEz (V/m) @ t=0.42
2.6159955284984377
% V (V) @ t=0.42
0.013776057776899145
% es.normE (V/m) @ t=0.44
2.855359236963405
% es.EX (V/m) @ t=0.44
-1.0177568587775991
% es.EY (V/m) @ t=0.44
0.32333681364158373
% es.EZ (V/m) @ t=0.44
2.6399483397341355
% es.tEX (V/m) @ t=0.44
-1.0177568587776133
% es.tEY (V/m) @ t=0.44
0
% es.tEZ (V/m) @ t=0.44
2.6399483397341292
% es.Ex (V/m) @ t=0.44
-1.0177568587775991
% es.Ey (V/m) @ t=0.44
0.32333681364158373
% es.Ez (V/m) @ t=0.44
2.6399483397341355
% es.tEx (V/m) @ t=0.44
-1.0177568587776133
% es.tEy (V/m) @ t=0.44
0
% es.tEz (V/m) @ t=0.44
2.6399483397341292
% V (V) @ t=0.44
0.013902200651963953
% es.normE (V/m) @ t=0.46
2.8812665365649046
% es.EX (V/m) @ t=0.46
-1.0269912381558366
% es.EY (V/m) @ t=0.46
0.3262705370152468
% es.EZ (V/m) @ t=0.46
2.6639011509698136
% es.tEX (V/m) @ t=0.46
-1.0269912381558508
% es.tEY (V/m) @ t=0.46
0
% es.tEZ (V/m) @ t=0.46
2.6639011509698154
% es.Ex (V/m) @ t=0.46
-1.0269912381558366
% es.Ey (V/m) @ t=0.46
0.3262705370152468
% es.Ez (V/m) @ t=0.46
2.6639011509698136
% es.tEx (V/m) @ t=0.46
-1.0269912381558508
% es.tEy (V/m) @ t=0.46
0
% es.tEz (V/m) @ t=0.46
2.6639011509698154
% V (V) @ t=0.46
0.014028343527028758
% es.normE (V/m) @ t=0.48
2.9071738361664115
% es.EX (V/m) @ t=0.48
-1.0362256175340565
% es.EY (V/m) @ t=0.48
0.32920426038894
% es.EZ (V/m) @ t=0.48
2.6878539622055015
% es.tEX (V/m) @ t=0.48
-1.0362256175340743
% es.tEY (V/m) @ t=0.48
0
% es.tEZ (V/m) @ t=0.48
2.687853962205505
% es.Ex (V/m) @ t=0.48
-1.0362256175340565
% es.Ey (V/m) @ t=0.48
0.32920426038894
% es.Ez (V/m) @ t=0.48
2.6878539622055015
% es.tEx (V/m) @ t=0.48
-1.0362256175340743
% es.tEy (V/m) @ t=0.48
0
% es.tEz (V/m) @ t=0.48
2.687853962205505
% V (V) @ t=0.48
0.014154486402093566
% es.normE (V/m) @ t=0.5
2.933081135767919
% es.EX (V/m) @ t=0.5
-1.045459996912269
% es.EY (V/m) @ t=0.5
0.3321379837626306
% es.EZ (V/m) @ t=0.5
2.7118067734411913
% es.tEX (V/m) @ t=0.5
-1.0454599969122833
% es.tEY (V/m) @ t=0.5
0
% es.tEZ (V/m) @ t=0.5
2.7118067734411877
% es.Ex (V/m) @ t=0.5
-1.045459996912269
% es.Ey (V/m) @ t=0.5
0.3321379837626306
% es.Ez (V/m) @ t=0.5
2.7118067734411913
% es.tEx (V/m) @ t=0.5
-1.0454599969122833
% es.tEy (V/m) @ t=0.5
0
% es.tEz (V/m) @ t=0.5
2.7118067734411877
% V (V) @ t=0.5
0.014280629277158374
% es.normE (V/m) @ t=0.52
2.9601109323553376
% es.EX (V/m) @ t=0.52
-1.0550944641566529
% es.EY (V/m) @ t=0.52
0.3351988126512775
% es.EZ (V/m) @ t=0.52
2.7367974039741005
% es.tEX (V/m) @ t=0.52
-1.055094464156667
% es.tEY (V/m) @ t=0.52
0
% es.tEZ (V/m) @ t=0.52
2.7367974039741014
% es.Ex (V/m) @ t=0.52
-1.0550944641566529
% es.Ey (V/m) @ t=0.52
0.3351988126512775
% es.Ez (V/m) @ t=0.52
2.7367974039741005
% es.tEx (V/m) @ t=0.52
-1.055094464156667
% es.tEy (V/m) @ t=0.52
0
% es.tEz (V/m) @ t=0.52
2.7367974039741014
% V (V) @ t=0.52
0.014412236087219525
% es.normE (V/m) @ t=0.54
2.9888187130690764
% es.EX (V/m) @ t=0.54
-1.065327009700552
% es.EY (V/m) @ t=0.54
0.33844964742788775
% es.EZ (V/m) @ t=0.54
2.7633394367188444
% es.tEX (V/m) @ t=0.54
-1.0653270097005663
% es.tEY (V/m) @ t=0.54
0
% es.tEZ (V/m) @ t=0.54
2.763339436718846
% es.Ex (V/m) @ t=0.54
-1.065327009700552
% es.Ey (V/m) @ t=0.54
0.33844964742788775
% es.Ez (V/m) @ t=0.54
2.7633394367188444
% es.tEx (V/m) @ t=0.54
-1.0653270097005663
% es.tEy (V/m) @ t=0.54
0
% es.tEz (V/m) @ t=0.54
2.763339436718846
% V (V) @ t=0.54
0.01455201075546305
% es.normE (V/m) @ t=0.56
3.0175264937827926
% es.EX (V/m) @ t=0.56
-1.0755595552444368
% es.EY (V/m) @ t=0.56
0.3417004822044747
% es.EZ (V/m) @ t=0.56
2.789881469463574
% es.tEX (V/m) @ t=0.56
-1.075559555244451
% es.tEY (V/m) @ t=0.56
0
% es.tEZ (V/m) @ t=0.56
2.789881469463582
% es.Ex (V/m) @ t=0.56
-1.0755595552444368
% es.Ey (V/m) @ t=0.56
0.3417004822044747
% es.Ez (V/m) @ t=0.56
2.789881469463574
% es.tEx (V/m) @ t=0.56
-1.075559555244451
% es.tEy (V/m) @ t=0.56
0
% es.tEz (V/m) @ t=0.56
2.789881469463582
% V (V) @ t=0.56
0.014691785423706574
% es.normE (V/m) @ t=0.58
3.04623427449653
% es.EX (V/m) @ t=0.58
-1.0857921007883466
% es.EY (V/m) @ t=0.58
0.3449513169810672
% es.EZ (V/m) @ t=0.58
2.816423502208316
% es.tEX (V/m) @ t=0.58
-1.0857921007883644
% es.tEY (V/m) @ t=0.58
0
% es.tEZ (V/m) @ t=0.58
2.8164235022083197
% es.Ex (V/m) @ t=0.58
-1.0857921007883466
% es.Ey (V/m) @ t=0.58
0.3449513169810672
% es.Ez (V/m) @ t=0.58
2.816423502208316
% es.tEx (V/m) @ t=0.58
-1.0857921007883644
% es.tEy (V/m) @ t=0.58
0
% es.tEz (V/m) @ t=0.58
2.8164235022083197
% V (V) @ t=0.58
0.014831560091950103
% es.normE (V/m) @ t=0.6
3.0749420552102595
% es.EX (V/m) @ t=0.6
-1.0960246463322636
% es.EY (V/m) @ t=0.6
0.3482021517576357
% es.EZ (V/m) @ t=0.6
2.8429655349530485
% es.tEX (V/m) @ t=0.6
-1.0960246463322778
% es.tEY (V/m) @ t=0.6
0
% es.tEZ (V/m) @ t=0.6
2.8429655349530485
% es.Ex (V/m) @ t=0.6
-1.0960246463322636
% es.Ey (V/m) @ t=0.6
0.3482021517576357
% es.Ez (V/m) @ t=0.6
2.8429655349530485
% es.tEx (V/m) @ t=0.6
-1.0960246463322778
% es.tEy (V/m) @ t=0.6
0
% es.tEz (V/m) @ t=0.6
2.8429655349530485
% V (V) @ t=0.6
0.01497133476019363
% es.normE (V/m) @ t=0.62
3.1036498359239797
% es.EX (V/m) @ t=0.62
-1.1062571918761483
% es.EY (V/m) @ t=0.62
0.3514529865342322
% es.EZ (V/m) @ t=0.62
2.86950756769778
% es.tEX (V/m) @ t=0.62
-1.1062571918761626
% es.tEY (V/m) @ t=0.62
0
% es.tEZ (V/m) @ t=0.62
2.8695075676977826
% es.Ex (V/m) @ t=0.62
-1.1062571918761483
% es.Ey (V/m) @ t=0.62
0.3514529865342322
% es.Ez (V/m) @ t=0.62
2.86950756769778
% es.tEx (V/m) @ t=0.62
-1.1062571918761626
% es.tEy (V/m) @ t=0.62
0
% es.tEz (V/m) @ t=0.62
2.8695075676977826
% V (V) @ t=0.62
0.015111109428437155
% es.normE (V/m) @ t=0.64
3.132357616637717
% es.EX (V/m) @ t=0.64
-1.1164897374200478
% es.EY (V/m) @ t=0.64
0.35470382131082223
% es.EZ (V/m) @ t=0.64
2.8960496004425247
% es.tEX (V/m) @ t=0.64
-1.116489737420062
% es.tEY (V/m) @ t=0.64
0
% es.tEZ (V/m) @ t=0.64
2.896049600442522
% es.Ex (V/m) @ t=0.64
-1.1164897374200478
% es.Ey (V/m) @ t=0.64
0.35470382131082223
% es.Ez (V/m) @ t=0.64
2.8960496004425247
% es.tEx (V/m) @ t=0.64
-1.116489737420062
% es.tEy (V/m) @ t=0.64
0
% es.tEz (V/m) @ t=0.64
2.896049600442522
% V (V) @ t=0.64
0.015250884096680678
% es.normE (V/m) @ t=0.66
3.1610653973514364
% es.EX (V/m) @ t=0.66
-1.1267222829639327
% es.EY (V/m) @ t=0.66
0.35795465608741917
% es.EZ (V/m) @ t=0.66
2.922591633187256
% es.tEX (V/m) @ t=0.66
-1.126722282963947
% es.tEY (V/m) @ t=0.66
0
% es.tEZ (V/m) @ t=0.66
2.922591633187256
% es.Ex (V/m) @ t=0.66
-1.1267222829639327
% es.Ey (V/m) @ t=0.66
0.35795465608741917
% es.Ez (V/m) @ t=0.66
2.922591633187256
% es.tEx (V/m) @ t=0.66
-1.126722282963947
% es.tEy (V/m) @ t=0.66
0
% es.tEz (V/m) @ t=0.66
2.922591633187256
% V (V) @ t=0.66
0.015390658764924205
% es.normE (V/m) @ t=0.68
3.1897731780651655
% es.EX (V/m) @ t=0.68
-1.1369548285078388
% es.EY (V/m) @ t=0.68
0.3612054908640052
% es.EZ (V/m) @ t=0.68
2.9491336659319902
% es.tEX (V/m) @ t=0.68
-1.1369548285078601
% es.tEY (V/m) @ t=0.68
0
% es.tEZ (V/m) @ t=0.68
2.949133665931992
% es.Ex (V/m) @ t=0.68
-1.1369548285078388
% es.Ey (V/m) @ t=0.68
0.3612054908640052
% es.Ez (V/m) @ t=0.68
2.9491336659319902
% es.tEx (V/m) @ t=0.68
-1.1369548285078601
% es.tEy (V/m) @ t=0.68
0
% es.tEz (V/m) @ t=0.68
2.949133665931992
% V (V) @ t=0.68
0.015530433433167734
% es.normE (V/m) @ t=0.7
3.21848095877891
% es.EX (V/m) @ t=0.7
-1.1471873740517593
% es.EY (V/m) @ t=0.7
0.3644563256405957
% es.EZ (V/m) @ t=0.7
2.975675698676733
% es.tEX (V/m) @ t=0.7
-1.1471873740517735
% es.tEY (V/m) @ t=0.7
0
% es.tEZ (V/m) @ t=0.7
2.9756756986767403
% es.Ex (V/m) @ t=0.7
-1.1471873740517593
% es.Ey (V/m) @ t=0.7
0.3644563256405957
% es.Ez (V/m) @ t=0.7
2.975675698676733
% es.tEx (V/m) @ t=0.7
-1.1471873740517735
% es.tEy (V/m) @ t=0.7
0
% es.tEz (V/m) @ t=0.7
2.9756756986767403
% V (V) @ t=0.7
0.01567020810141126
% es.normE (V/m) @ t=0.72
3.2471887394926453
% es.EX (V/m) @ t=0.72
-1.1574199195956585
% es.EY (V/m) @ t=0.72
0.36770716041716445
% es.EZ (V/m) @ t=0.72
3.0022177314214806
% es.tEX (V/m) @ t=0.72
-1.1574199195956727
% es.tEY (V/m) @ t=0.72
0
% es.tEZ (V/m) @ t=0.72
3.0022177314214815
% es.Ex (V/m) @ t=0.72
-1.1574199195956585
% es.Ey (V/m) @ t=0.72
0.36770716041716445
% es.Ez (V/m) @ t=0.72
3.0022177314214806
% es.tEx (V/m) @ t=0.72
-1.1574199195956727
% es.tEy (V/m) @ t=0.72
0
% es.tEz (V/m) @ t=0.72
3.0022177314214815
% V (V) @ t=0.72
0.015809982769654785
% es.normE (V/m) @ t=0.74
3.275896520206378
% es.EX (V/m) @ t=0.74
-1.1676524651395574
% es.EY (V/m) @ t=0.74
0.37095799519375405
% es.EZ (V/m) @ t=0.74
3.0287597641662183
% es.tEX (V/m) @ t=0.74
-1.1676524651395717
% es.tEY (V/m) @ t=0.74
0
% es.tEZ (V/m) @ t=0.74
3.0287597641662174
% es.Ex (V/m) @ t=0.74
-1.1676524651395574
% es.Ey (V/m) @ t=0.74
0.37095799519375405
% es.Ez (V/m) @ t=0.74
3.0287597641662183
% es.tEx (V/m) @ t=0.74
-1.1676524651395717
% es.tEy (V/m) @ t=0.74
0
% es.tEz (V/m) @ t=0.74
3.0287597641662174
% V (V) @ t=0.74
0.015949757437898313
% es.normE (V/m) @ t=0.76
3.3046043009200896
% es.EX (V/m) @ t=0.76
-1.1778850106834424
% es.EY (V/m) @ t=0.76
0.37420882997034544
% es.EZ (V/m) @ t=0.76
3.05530179691094
% es.tEX (V/m) @ t=0.76
-1.1778850106834566
% es.tEY (V/m) @ t=0.76
0
% es.tEZ (V/m) @ t=0.76
3.0553017969109426
% es.Ex (V/m) @ t=0.76
-1.1778850106834424
% es.Ey (V/m) @ t=0.76
0.37420882997034544
% es.Ez (V/m) @ t=0.76
3.05530179691094
% es.tEx (V/m) @ t=0.76
-1.1778850106834566
% es.tEy (V/m) @ t=0.76
0
% es.tEz (V/m) @ t=0.76
3.0553017969109426
% V (V) @ t=0.76
0.01608953210614184
% es.normE (V/m) @ t=0.78
3.3352183341232937
% es.EX (V/m) @ t=0.78
-1.188797006721978
% es.EY (V/m) @ t=0.78
0.377675522817573
% es.EZ (V/m) @ t=0.78
3.083606276158773
% es.tEX (V/m) @ t=0.78
-1.1887970067219922
% es.tEY (V/m) @ t=0.78
0
% es.tEZ (V/m) @ t=0.78
3.08360627615877
% es.Ex (V/m) @ t=0.78
-1.188797006721978
% es.Ey (V/m) @ t=0.78
0.377675522817573
% es.Ez (V/m) @ t=0.78
3.083606276158773
% es.tEx (V/m) @ t=0.78
-1.1887970067219922
% es.tEy (V/m) @ t=0.78
0
% es.tEz (V/m) @ t=0.78
3.08360627615877
% V (V) @ t=0.78
0.01623858698513437
% es.normE (V/m) @ t=0.8
3.3670802898649264
% es.EX (V/m) @ t=0.8
-1.2001538030116352
% es.EY (V/m) @ t=0.8
0.3812835265104837
% es.EZ (V/m) @ t=0.8
3.1130645357825673
% es.tEX (V/m) @ t=0.8
-1.2001538030116565
% es.tEY (V/m) @ t=0.8
0
% es.tEZ (V/m) @ t=0.8
3.11306453578257
% es.Ex (V/m) @ t=0.8
-1.2001538030116352
% es.Ey (V/m) @ t=0.8
0.3812835265104837
% es.Ez (V/m) @ t=0.8
3.1130645357825673
% es.tEx (V/m) @ t=0.8
-1.2001538030116565
% es.tEy (V/m) @ t=0.8
0
% es.tEz (V/m) @ t=0.8
3.11306453578257
% V (V) @ t=0.8
0.016393717126569476
% es.normE (V/m) @ t=0.82
3.3989422456065634
% es.EX (V/m) @ t=0.82
-1.2115105993012645
% es.EY (V/m) @ t=0.82
0.38489153020341815
% es.EZ (V/m) @ t=0.82
3.142522795406376
% es.tEX (V/m) @ t=0.82
-1.2115105993012787
% es.tEY (V/m) @ t=0.82
0
% es.tEZ (V/m) @ t=0.82
3.142522795406382
% es.Ex (V/m) @ t=0.82
-1.2115105993012645
% es.Ey (V/m) @ t=0.82
0.38489153020341815
% es.Ez (V/m) @ t=0.82
3.142522795406376
% es.tEx (V/m) @ t=0.82
-1.2115105993012787
% es.tEy (V/m) @ t=0.82
0
% es.tEz (V/m) @ t=0.82
3.142522795406382
% V (V) @ t=0.82
0.016548847268004582
% es.normE (V/m) @ t=0.84
3.430804201348206
% es.EX (V/m) @ t=0.84
-1.22286739559095
% es.EY (V/m) @ t=0.84
0.38849953389632863
% es.EZ (V/m) @ t=0.84
3.1719810550301704
% es.tEX (V/m) @ t=0.84
-1.222867395590957
% es.tEY (V/m) @ t=0.84
0
% es.tEZ (V/m) @ t=0.84
3.171981055030166
% es.Ex (V/m) @ t=0.84
-1.22286739559095
% es.Ey (V/m) @ t=0.84
0.38849953389632863
% es.Ez (V/m) @ t=0.84
3.1719810550301704
% es.tEx (V/m) @ t=0.84
-1.222867395590957
% es.tEy (V/m) @ t=0.84
0
% es.tEz (V/m) @ t=0.84
3.171981055030166
% V (V) @ t=0.84
0.01670397740943969
% es.normE (V/m) @ t=0.86
3.4626661570898483
% es.EX (V/m) @ t=0.86
-1.2342241918805863
% es.EY (V/m) @ t=0.86
0.392107537589254
% es.EZ (V/m) @ t=0.86
3.2014393146539826
% es.tEX (V/m) @ t=0.86
-1.2342241918806076
% es.tEY (V/m) @ t=0.86
0
% es.tEZ (V/m) @ t=0.86
3.201439314653987
% es.Ex (V/m) @ t=0.86
-1.2342241918805863
% es.Ey (V/m) @ t=0.86
0.392107537589254
% es.Ez (V/m) @ t=0.86
3.2014393146539826
% es.tEx (V/m) @ t=0.86
-1.2342241918806076
% es.tEy (V/m) @ t=0.86
0
% es.tEz (V/m) @ t=0.86
3.201439314653987
% V (V) @ t=0.86
0.016859107550874802
% es.normE (V/m) @ t=0.88
3.4945281128314782
% es.EX (V/m) @ t=0.88
-1.2455809881702222
% es.EY (V/m) @ t=0.88
0.3957155412821738
% es.EZ (V/m) @ t=0.88
3.2308975742777815
% es.tEX (V/m) @ t=0.88
-1.2455809881702293
% es.tEY (V/m) @ t=0.88
0
% es.tEZ (V/m) @ t=0.88
3.230897574277785
% es.Ex (V/m) @ t=0.88
-1.2455809881702222
% es.Ey (V/m) @ t=0.88
0.3957155412821738
% es.Ez (V/m) @ t=0.88
3.2308975742777815
% es.tEx (V/m) @ t=0.88
-1.2455809881702293
% es.tEy (V/m) @ t=0.88
0
% es.tEz (V/m) @ t=0.88
3.230897574277785
% V (V) @ t=0.88
0.017014237692309905
% es.normE (V/m) @ t=0.9
3.526390068573126
% es.EX (V/m) @ t=0.9
-1.2569377844598941
% es.EY (V/m) @ t=0.9
0.39932354497509914
% es.EZ (V/m) @ t=0.9
3.2603558339015875
% es.tEX (V/m) @ t=0.9
-1.2569377844599083
% es.tEY (V/m) @ t=0.9
0
% es.tEZ (V/m) @ t=0.9
3.2603558339015777
% es.Ex (V/m) @ t=0.9
-1.2569377844598941
% es.Ey (V/m) @ t=0.9
0.39932354497509914
% es.Ez (V/m) @ t=0.9
3.2603558339015875
% es.tEx (V/m) @ t=0.9
-1.2569377844599083
% es.tEy (V/m) @ t=0.9
0
% es.tEz (V/m) @ t=0.9
3.2603558339015777
% V (V) @ t=0.9
0.017169367833745015
% es.normE (V/m) @ t=0.92
3.558252024314765
% es.EX (V/m) @ t=0.92
-1.26829458074953
% es.EY (V/m) @ t=0.92
0.40293154866803826
% es.EZ (V/m) @ t=0.92
3.2898140935253926
% es.tEX (V/m) @ t=0.92
-1.2682945807495443
% es.tEY (V/m) @ t=0.92
0
% es.tEZ (V/m) @ t=0.92
3.289814093525388
% es.Ex (V/m) @ t=0.92
-1.26829458074953
% es.Ey (V/m) @ t=0.92
0.40293154866803826
% es.Ez (V/m) @ t=0.92
3.2898140935253926
% es.tEx (V/m) @ t=0.92
-1.2682945807495443
% es.tEy (V/m) @ t=0.92
0
% es.tEz (V/m) @ t=0.92
3.289814093525388
% V (V) @ t=0.92
0.017324497975180125
% es.normE (V/m) @ t=0.94
3.5901139800564064
% es.EX (V/m) @ t=0.94
-1.2796513770391735
% es.EY (V/m) @ t=0.94
0.4065395523609525
% es.EZ (V/m) @ t=0.94
3.319272353149203
% es.tEX (V/m) @ t=0.94
-1.2796513770391948
% es.tEY (V/m) @ t=0.94
0
% es.tEZ (V/m) @ t=0.94
3.3192723531491968
% es.Ex (V/m) @ t=0.94
-1.2796513770391735
% es.Ey (V/m) @ t=0.94
0.4065395523609525
% es.Ez (V/m) @ t=0.94
3.319272353149203
% es.tEx (V/m) @ t=0.94
-1.2796513770391948
% es.tEy (V/m) @ t=0.94
0
% es.tEz (V/m) @ t=0.94
3.3192723531491968
% V (V) @ t=0.94
0.01747962811661523
% es.normE (V/m) @ t=0.96
3.621975935798032
% es.EX (V/m) @ t=0.96
-1.2910081733288234
% es.EY (V/m) @ t=0.96
0.41014755605386277
% es.EZ (V/m) @ t=0.96
3.348730612772994
% es.tEX (V/m) @ t=0.96
-1.291008173328859
% es.tEY (V/m) @ t=0.96
0
% es.tEZ (V/m) @ t=0.96
3.348730612772991
% es.Ex (V/m) @ t=0.96
-1.2910081733288234
% es.Ey (V/m) @ t=0.96
0.41014755605386277
% es.Ez (V/m) @ t=0.96
3.348730612772994
% es.tEx (V/m) @ t=0.96
-1.291008173328859
% es.tEy (V/m) @ t=0.96
0
% es.tEz (V/m) @ t=0.96
3.348730612772991
% V (V) @ t=0.96
0.01763475825805034
% es.normE (V/m) @ t=0.98
3.6538378915396796
% es.EX (V/m) @ t=0.98
-1.3023649696184811
% es.EY (V/m) @ t=0.98
0.41375555974680234
% es.EZ (V/m) @ t=0.98
3.3781888723968025
% es.tEX (V/m) @ t=0.98
-1.3023649696184953
% es.tEY (V/m) @ t=0.98
0
% es.tEZ (V/m) @ t=0.98
3.3781888723968123
% es.Ex (V/m) @ t=0.98
-1.3023649696184811
% es.Ey (V/m) @ t=0.98
0.41375555974680234
% es.Ez (V/m) @ t=0.98
3.3781888723968025
% es.tEx (V/m) @ t=0.98
-1.3023649696184953
% es.tEy (V/m) @ t=0.98
0
% es.tEz (V/m) @ t=0.98
3.3781888723968123
% V (V) @ t=0.98
0.017789888399485445
% es.normE (V/m) @ t=1
3.685699847281324
% es.EX (V/m) @ t=1
-1.3137217659081313
% es.EY (V/m) @ t=1
0.4173635634397401
% es.EZ (V/m) @ t=1
3.4076471320206103
% es.tEX (V/m) @ t=1
-1.3137217659081455
% es.tEY (V/m) @ t=1
0
% es.tEZ (V/m) @ t=1
3.4076471320206103
% es.Ex (V/m) @ t=1
-1.3137217659081313
% es.Ey (V/m) @ t=1
0.4173635634397401
% es.Ez (V/m) @ t=1
3.4076471320206103
% es.tEx (V/m) @ t=1
-1.3137217659081455
% es.tEy (V/m) @ t=1
0
% es.tEz (V/m) @ t=1
3.4076471320206103
% V (V) @ t=1
0.01794501854092055
% es.normE (V/m) @ t=1.02
3.717561803022952
% es.EX (V/m) @ t=1.02
-1.3250785621977677
% es.EY (V/m) @ t=1.02
0.4209715671326406
% es.EZ (V/m) @ t=1.02
3.437105391644409
% es.tEX (V/m) @ t=1.02
-1.325078562197796
% es.tEY (V/m) @ t=1.02
0
% es.tEZ (V/m) @ t=1.02
3.43710539164441
% es.Ex (V/m) @ t=1.02
-1.3250785621977677
% es.Ey (V/m) @ t=1.02
0.4209715671326406
% es.Ez (V/m) @ t=1.02
3.437105391644409
% es.tEx (V/m) @ t=1.02
-1.325078562197796
% es.tEy (V/m) @ t=1.02
0
% es.tEz (V/m) @ t=1.02
3.43710539164441
% V (V) @ t=1.02
0.01810014868235566
% es.normE (V/m) @ t=1.04
3.7506716006260055
% es.EX (V/m) @ t=1.04
-1.336880121129258
% es.EY (V/m) @ t=1.04
0.424720869256344
% es.EZ (V/m) @ t=1.04
3.4677173603624496
% es.tEX (V/m) @ t=1.04
-1.3368801211292722
% es.tEY (V/m) @ t=1.04
0
% es.tEZ (V/m) @ t=1.04
3.467717360362455
% es.Ex (V/m) @ t=1.04
-1.336880121129258
% es.Ey (V/m) @ t=1.04