% Model:              1 neuron.mph
% Version:            COMSOL 6.1.0.252
% Date:               Mar 22 2023, 19:25
% Dimension:          0
% Nodes:              14017
% Expressions:        14017
% Description:        Electric field norm, Electric field, X component, Electric field, Y component, Electric field, Z component, Tangential electric field, X component, Tangential electric field, Y component, Tangential electric field, Z component, Electric field, x component, Electric field, y component, Electric field, z component, Tangential electric field, x component, Tangential electric field, y component, Tangential electric field, z component, Electric potential
% Length unit:        mm
% x
1
% y
12.2
% z
1
% es.normE (V/m) @ t=0
1.4494523106239563
% es.EX (V/m) @ t=0
0.9841964742265077
% es.EY (V/m) @ t=0
0.279524709015309
% es.EZ (V/m) @ t=0
0.9999884246311677
% es.tEX (V/m) @ t=0
0.9841964742264935
% es.tEY (V/m) @ t=0
0
% es.tEZ (V/m) @ t=0
0.999988424631141
% es.Ex (V/m) @ t=0
0.9841964742265077
% es.Ey (V/m) @ t=0
0.279524709015309
% es.Ez (V/m) @ t=0
0.9999884246311677
% es.tEx (V/m) @ t=0
0.9841964742264935
% es.tEy (V/m) @ t=0
0
% es.tEz (V/m) @ t=0
0.999988424631141
% V (V) @ t=0
0.013591908836483837
% es.normE (V/m) @ t=0.02
1.2519042039476922
% es.EX (V/m) @ t=0.02
0.8500588079005063
% es.EY (V/m) @ t=0.02
0.2414278533190064
% es.EZ (V/m) @ t=0.02
0.8636984487614496
% es.tEX (V/m) @ t=0.02
0.8500588079004814
% es.tEY (V/m) @ t=0.02
0
% es.tEZ (V/m) @ t=0.02
0.8636984487614328
% es.Ex (V/m) @ t=0.02
0.8500588079005063
% es.Ey (V/m) @ t=0.02
0.2414278533190064
% es.Ez (V/m) @ t=0.02
0.8636984487614496
% es.tEx (V/m) @ t=0.02
0.8500588079004814
% es.tEy (V/m) @ t=0.02
0
% es.tEz (V/m) @ t=0.02
0.8636984487614328
% V (V) @ t=0.02
0.011739446415021892
% es.normE (V/m) @ t=0.04
1.2634186612577984
% es.EX (V/m) @ t=0.04
0.8578772702456057
% es.EY (V/m) @ t=0.04
0.24364839907477354
% es.EZ (V/m) @ t=0.04
0.8716423624731631
% es.tEX (V/m) @ t=0.04
0.857877270245595
% es.tEY (V/m) @ t=0.04
0
% es.tEZ (V/m) @ t=0.04
0.8716423624731533
% es.Ex (V/m) @ t=0.04
0.8578772702456057
% es.Ey (V/m) @ t=0.04
0.24364839907477354
% es.Ez (V/m) @ t=0.04
0.8716423624731631
% es.tEx (V/m) @ t=0.04
0.857877270245595
% es.tEy (V/m) @ t=0.04
0
% es.tEz (V/m) @ t=0.04
0.8716423624731533
% V (V) @ t=0.04
0.011847420618507824
% es.normE (V/m) @ t=0.06
1.275016792585025
% es.EX (V/m) @ t=0.06
0.8657525486424298
% es.EY (V/m) @ t=0.06
0.2458850796133305
% es.EZ (V/m) @ t=0.06
0.879644004036428
% es.tEX (V/m) @ t=0.06
0.8657525486424191
% es.tEY (V/m) @ t=0.06
0
% es.tEZ (V/m) @ t=0.06
0.8796440040364146
% es.Ex (V/m) @ t=0.06
0.8657525486424298
% es.Ey (V/m) @ t=0.06
0.2458850796133305
% es.Ez (V/m) @ t=0.06
0.879644004036428
% es.tEx (V/m) @ t=0.06
0.8657525486424191
% es.tEy (V/m) @ t=0.06
0
% es.tEz (V/m) @ t=0.06
0.8796440040364146
% V (V) @ t=0.06
0.01195617953976885
% es.normE (V/m) @ t=0.08
1.2868377753521414
% es.EX (V/m) @ t=0.08
0.8737791463417466
% es.EY (V/m) @ t=0.08
0.24816473504865932
% es.EZ (V/m) @ t=0.08
0.8877993930360262
% es.tEX (V/m) @ t=0.08
0.8737791463417324
% es.tEY (V/m) @ t=0.08
0
% es.tEZ (V/m) @ t=0.08
0.887799393036012
% es.Ex (V/m) @ t=0.08
0.8737791463417466
% es.Ey (V/m) @ t=0.08
0.24816473504865932
% es.Ez (V/m) @ t=0.08
0.8877993930360262
% es.tEx (V/m) @ t=0.08
0.8737791463417324
% es.tEy (V/m) @ t=0.08
0
% es.tEz (V/m) @ t=0.08
0.887799393036012
% V (V) @ t=0.08
0.012067028288820473
% es.normE (V/m) @ t=0.1
1.298718205429591
% es.EX (V/m) @ t=0.1
0.8818461096116756
% es.EY (V/m) @ t=0.1
0.25045585436341966
% es.EZ (V/m) @ t=0.1
0.8959957953293136
% es.tEX (V/m) @ t=0.1
0.8818461096116437
% es.tEY (V/m) @ t=0.1
0
% es.tEZ (V/m) @ t=0.1
0.8959957953292985
% es.Ex (V/m) @ t=0.1
0.8818461096116756
% es.Ey (V/m) @ t=0.1
0.25045585436341966
% es.Ez (V/m) @ t=0.1
0.8959957953293136
% es.tEx (V/m) @ t=0.1
0.8818461096116437
% es.tEy (V/m) @ t=0.1
0
% es.tEz (V/m) @ t=0.1
0.8959957953292985
% V (V) @ t=0.1
0.012178434515271447
% es.normE (V/m) @ t=0.12
1.3105986355070174
% es.EX (V/m) @ t=0.12
0.8899130728815976
% es.EY (V/m) @ t=0.12
0.2527469736781409
% es.EZ (V/m) @ t=0.12
0.9041921976226099
% es.tEX (V/m) @ t=0.12
0.8899130728815692
% es.tEY (V/m) @ t=0.12
0
% es.tEZ (V/m) @ t=0.12
0.9041921976225993
% es.Ex (V/m) @ t=0.12
0.8899130728815976
% es.Ey (V/m) @ t=0.12
0.2527469736781409
% es.Ez (V/m) @ t=0.12
0.9041921976226099
% es.tEx (V/m) @ t=0.12
0.8899130728815692
% es.tEy (V/m) @ t=0.12
0
% es.tEz (V/m) @ t=0.12
0.9041921976225993
% V (V) @ t=0.12
0.012289840741722421
% es.normE (V/m) @ t=0.14
1.3228272364475218
% es.EX (V/m) @ t=0.14
0.8982164434661044
% es.EY (V/m) @ t=0.14
0.2551052619943732
% es.EZ (V/m) @ t=0.14
0.9126287981645405
% es.tEX (V/m) @ t=0.14
0.8982164434660831
% es.tEY (V/m) @ t=0.14
0
% es.tEZ (V/m) @ t=0.14
0.9126287981645262
% es.Ex (V/m) @ t=0.14
0.8982164434661044
% es.Ey (V/m) @ t=0.14
0.2551052619943732
% es.Ez (V/m) @ t=0.14
0.9126287981645405
% es.tEx (V/m) @ t=0.14
0.8982164434660831
% es.tEy (V/m) @ t=0.14
0
% es.tEz (V/m) @ t=0.14
0.9126287981645262
% V (V) @ t=0.14
0.01240451058499498
% es.normE (V/m) @ t=0.16
1.3353027363024168
% es.EX (V/m) @ t=0.16
0.9066874579160782
% es.EY (V/m) @ t=0.16
0.25751118196305534
% es.EZ (V/m) @ t=0.16
0.9212357308425556
% es.tEX (V/m) @ t=0.16
0.9066874579160782
% es.tEY (V/m) @ t=0.16
0
% es.tEZ (V/m) @ t=0.16
0.9212357308425325
% es.Ex (V/m) @ t=0.16
0.9066874579160782
% es.Ey (V/m) @ t=0.16
0.25751118196305534
% es.Ez (V/m) @ t=0.16
0.9212357308425556
% es.tEx (V/m) @ t=0.16
0.9066874579160782
% es.tEy (V/m) @ t=0.16
0
% es.tEz (V/m) @ t=0.16
0.9212357308425325
% V (V) @ t=0.16
0.012521494761647238
% es.normE (V/m) @ t=0.18
1.34777823615732
% es.EX (V/m) @ t=0.18
0.9151584723660733
% es.EY (V/m) @ t=0.18
0.2599171019317623
% es.EZ (V/m) @ t=0.18
0.9298426635205548
% es.tEX (V/m) @ t=0.18
0.9151584723660591
% es.tEY (V/m) @ t=0.18
0
% es.tEZ (V/m) @ t=0.18
0.9298426635205317
% es.Ex (V/m) @ t=0.18
0.9151584723660733
% es.Ey (V/m) @ t=0.18
0.2599171019317623
% es.Ez (V/m) @ t=0.18
0.9298426635205548
% es.tEx (V/m) @ t=0.18
0.9151584723660591
% es.tEy (V/m) @ t=0.18
0
% es.tEz (V/m) @ t=0.18
0.9298426635205317
% V (V) @ t=0.18
0.012638478938299495
% es.normE (V/m) @ t=0.2
1.3602537360122469
% es.EX (V/m) @ t=0.2
0.923629486816079
% es.EY (V/m) @ t=0.2
0.26232302190037693
% es.EZ (V/m) @ t=0.2
0.9384495961985877
% es.tEX (V/m) @ t=0.2
0.9236294868160684
% es.tEY (V/m) @ t=0.2
0
% es.tEZ (V/m) @ t=0.2
0.9384495961985735
% es.Ex (V/m) @ t=0.2
0.923629486816079
% es.Ey (V/m) @ t=0.2
0.26232302190037693
% es.Ez (V/m) @ t=0.2
0.9384495961985877
% es.tEx (V/m) @ t=0.2
0.9236294868160684
% es.tEy (V/m) @ t=0.2
0
% es.tEz (V/m) @ t=0.2
0.9384495961985735
% V (V) @ t=0.2
0.012755463114951755
% es.normE (V/m) @ t=0.22
1.3727292358671372
% es.EX (V/m) @ t=0.22
0.932100501266035
% es.EY (V/m) @ t=0.22
0.2647289418691017
% es.EZ (V/m) @ t=0.22
0.9470565288765886
% es.tEX (V/m) @ t=0.22
0.932100501266035
% es.tEY (V/m) @ t=0.22
0
% es.tEZ (V/m) @ t=0.22
0.9470565288765727
% es.Ex (V/m) @ t=0.22
0.932100501266035
% es.Ey (V/m) @ t=0.22
0.2647289418691017
% es.Ez (V/m) @ t=0.22
0.9470565288765886
% es.tEx (V/m) @ t=0.22
0.932100501266035
% es.tEy (V/m) @ t=0.22
0
% es.tEz (V/m) @ t=0.22
0.9470565288765727
% V (V) @ t=0.22
0.012872447291604009
% es.normE (V/m) @ t=0.24
1.385204735722057
% es.EX (V/m) @ t=0.24
0.9405715157160479
% es.EY (V/m) @ t=0.24
0.267134861837766
% es.EZ (V/m) @ t=0.24
0.9556634615545931
% es.tEX (V/m) @ t=0.24
0.9405715157160159
% es.tEY (V/m) @ t=0.24
0
% es.tEZ (V/m) @ t=0.24
0.9556634615545931
% es.Ex (V/m) @ t=0.24
0.9405715157160479
% es.Ey (V/m) @ t=0.24
0.267134861837766
% es.Ez (V/m) @ t=0.24
0.9556634615545931
% es.tEx (V/m) @ t=0.24
0.9405715157160159
% es.tEy (V/m) @ t=0.24
0
% es.tEz (V/m) @ t=0.24
0.9556634615545931
% V (V) @ t=0.24
0.012989431468256268
% es.normE (V/m) @ t=0.26
1.3979143486361076
% es.EX (V/m) @ t=0.26
0.9492014756502556
% es.EY (V/m) @ t=0.26
0.2695860284552296
% es.EZ (V/m) @ t=0.26
0.9644318806790828
% es.tEX (V/m) @ t=0.26
0.9492014756502272
% es.tEY (V/m) @ t=0.26
0
% es.tEZ (V/m) @ t=0.26
0.964431880679065
% es.Ex (V/m) @ t=0.26
0.9492014756502556
% es.Ey (V/m) @ t=0.26
0.2695860284552296
% es.Ez (V/m) @ t=0.26
0.9644318806790828
% es.tEx (V/m) @ t=0.26
0.9492014756502272
% es.tEy (V/m) @ t=0.26
0
% es.tEz (V/m) @ t=0.26
0.964431880679065
% V (V) @ t=0.26
0.013108605942784565
% es.normE (V/m) @ t=0.28
1.4117166932513627
% es.EX (V/m) @ t=0.28
0.9585733197404416
% es.EY (V/m) @ t=0.28
0.27224838554519515
% es.EZ (V/m) @ t=0.28
0.9739540439987984
% es.tEX (V/m) @ t=0.28
0.9585733197404238
% es.tEY (V/m) @ t=0.28
0
% es.tEZ (V/m) @ t=0.28
0.9739540439987948
% es.Ex (V/m) @ t=0.28
0.9585733197404416
% es.Ey (V/m) @ t=0.28
0.27224838554519515
% es.Ez (V/m) @ t=0.28
0.9739540439987984
% es.tEx (V/m) @ t=0.28
0.9585733197404238
% es.tEy (V/m) @ t=0.28
0
% es.tEz (V/m) @ t=0.28
0.9739540439987948
% V (V) @ t=0.28
0.013238003716828175
% es.normE (V/m) @ t=0.3
1.425519037867178
% es.EX (V/m) @ t=0.3
0.9679451638307341
% es.EY (V/m) @ t=0.3
0.2749107426350932
% es.EZ (V/m) @ t=0.3
0.9834762073185281
% es.tEX (V/m) @ t=0.3
0.9679451638307057
% es.tEY (V/m) @ t=0.3
0
% es.tEZ (V/m) @ t=0.3
0.9834762073185246
% es.Ex (V/m) @ t=0.3
0.9679451638307341
% es.Ey (V/m) @ t=0.3
0.2749107426350932
% es.Ez (V/m) @ t=0.3
0.9834762073185281
% es.tEx (V/m) @ t=0.3
0.9679451638307057
% es.tEy (V/m) @ t=0.3
0
% es.tEz (V/m) @ t=0.3
0.9834762073185246
% V (V) @ t=0.3
0.013367401490871789
% es.normE (V/m) @ t=0.32
1.4393213824834614
% es.EX (V/m) @ t=0.32
0.9773170079210409
% es.EY (V/m) @ t=0.32
0.2775730997249841
% es.EZ (V/m) @ t=0.32
0.9929983706382473
% es.tEX (V/m) @ t=0.32
0.9773170079210161
% es.tEY (V/m) @ t=0.32
0
% es.tEZ (V/m) @ t=0.32
0.9929983706382401
% es.Ex (V/m) @ t=0.32
0.9773170079210409
% es.Ey (V/m) @ t=0.32
0.2775730997249841
% es.Ez (V/m) @ t=0.32
0.9929983706382473
% es.tEx (V/m) @ t=0.32
0.9773170079210161
% es.tEy (V/m) @ t=0.32
0
% es.tEz (V/m) @ t=0.32
0.9929983706382401
% V (V) @ t=0.32
0.0134967992649154
% es.normE (V/m) @ t=0.34
1.4531237271001607
% es.EX (V/m) @ t=0.34
0.9866888520112731
% es.EY (V/m) @ t=0.34
0.2802354568149301
% es.EZ (V/m) @ t=0.34
1.0025205339579468
% es.tEX (V/m) @ t=0.34
0.9866888520112553
% es.tEY (V/m) @ t=0.34
0
% es.tEZ (V/m) @ t=0.34
1.0025205339579273
% es.Ex (V/m) @ t=0.34
0.9866888520112731
% es.Ey (V/m) @ t=0.34
0.2802354568149301
% es.Ez (V/m) @ t=0.34
1.0025205339579468
% es.tEx (V/m) @ t=0.34
0.9866888520112553
% es.tEy (V/m) @ t=0.34
0
% es.tEz (V/m) @ t=0.34
1.0025205339579273
% V (V) @ t=0.34
0.013626197038959013
% es.normE (V/m) @ t=0.36
1.466926071717333
% es.EX (V/m) @ t=0.36
0.9960606961015337
% es.EY (V/m) @ t=0.36
0.28289781390478375
% es.EZ (V/m) @ t=0.36
1.0120426972776855
% es.tEX (V/m) @ t=0.36
0.996060696101523
% es.tEY (V/m) @ t=0.36
0
% es.tEZ (V/m) @ t=0.36
1.0120426972776784
% es.Ex (V/m) @ t=0.36
0.9960606961015337
% es.Ey (V/m) @ t=0.36
0.28289781390478375
% es.Ez (V/m) @ t=0.36
1.0120426972776855
% es.tEx (V/m) @ t=0.36
0.996060696101523
% es.tEy (V/m) @ t=0.36
0
% es.tEz (V/m) @ t=0.36
1.0120426972776784
% V (V) @ t=0.36
0.013755594813002625
% es.normE (V/m) @ t=0.38
1.4807284163349674
% es.EX (V/m) @ t=0.38
1.0054325401918334
% es.EY (V/m) @ t=0.38
0.28556017099470665
% es.EZ (V/m) @ t=0.38
1.021564860597401
% es.tEX (V/m) @ t=0.38
1.0054325401918192
% es.tEY (V/m) @ t=0.38
0
% es.tEZ (V/m) @ t=0.38
1.0215648605973868
% es.Ex (V/m) @ t=0.38
1.0054325401918334
% es.Ey (V/m) @ t=0.38
0.28556017099470665
% es.Ez (V/m) @ t=0.38
1.021564860597401
% es.tEx (V/m) @ t=0.38
1.0054325401918192
% es.tEy (V/m) @ t=0.38
0
% es.tEz (V/m) @ t=0.38
1.0215648605973868
% V (V) @ t=0.38
0.013884992587046237
% es.normE (V/m) @ t=0.4
1.49453076095298
% es.EX (V/m) @ t=0.4
1.0148043842820336
% es.EY (V/m) @ t=0.4
0.288222528084642
% es.EZ (V/m) @ t=0.4
1.0310870239171468
% es.tEX (V/m) @ t=0.4
1.0148043842820442
% es.tEY (V/m) @ t=0.4
0
% es.tEZ (V/m) @ t=0.4
1.0310870239171308
% es.Ex (V/m) @ t=0.4
1.0148043842820336
% es.Ey (V/m) @ t=0.4
0.288222528084642
% es.Ez (V/m) @ t=0.4
1.0310870239171468
% es.tEx (V/m) @ t=0.4
1.0148043842820442
% es.tEy (V/m) @ t=0.4
0
% es.tEz (V/m) @ t=0.4
1.0310870239171308
% V (V) @ t=0.4
0.01401439036108985
% es.normE (V/m) @ t=0.42
1.5083331055714493
% es.EX (V/m) @ t=0.42
1.0241762283723332
% es.EY (V/m) @ t=0.42
0.2908848851745418
% es.EZ (V/m) @ t=0.42
1.0406091872368677
% es.tEX (V/m) @ t=0.42
1.0241762283723261
% es.tEY (V/m) @ t=0.42
0
% es.tEZ (V/m) @ t=0.42
1.0406091872368464
% es.Ex (V/m) @ t=0.42
1.0241762283723332
% es.Ey (V/m) @ t=0.42
0.2908848851745418
% es.Ez (V/m) @ t=0.42
1.0406091872368677
% es.tEx (V/m) @ t=0.42
1.0241762283723261
% es.tEy (V/m) @ t=0.42
0
% es.tEz (V/m) @ t=0.42
1.0406091872368464
% V (V) @ t=0.42
0.014143788135133463
% es.normE (V/m) @ t=0.44
1.522135450190293
% es.EX (V/m) @ t=0.44
1.0335480724625938
% es.EY (V/m) @ t=0.44
0.2935472422644594
% es.EZ (V/m) @ t=0.44
1.0501313505565903
% es.tEX (V/m) @ t=0.44
1.0335480724625796
% es.tEY (V/m) @ t=0.44
0
% es.tEZ (V/m) @ t=0.44
1.0501313505565761
% es.Ex (V/m) @ t=0.44
1.0335480724625938
% es.Ey (V/m) @ t=0.44
0.2935472422644594
% es.Ez (V/m) @ t=0.44
1.0501313505565903
% es.tEx (V/m) @ t=0.44
1.0335480724625796
% es.tEy (V/m) @ t=0.44
0
% es.tEz (V/m) @ t=0.44
1.0501313505565761
% V (V) @ t=0.44
0.014273185909177076
% es.normE (V/m) @ t=0.46
1.535937794809509
% es.EX (V/m) @ t=0.46
1.0429199165528438
% es.EY (V/m) @ t=0.46
0.29620959935436275
% es.EZ (V/m) @ t=0.46
1.059653513876297
% es.tEX (V/m) @ t=0.46
1.0429199165528331
% es.tEY (V/m) @ t=0.46
0
% es.tEZ (V/m) @ t=0.46
1.0596535138762846
% es.Ex (V/m) @ t=0.46
1.0429199165528438
% es.Ey (V/m) @ t=0.46
0.29620959935436275
% es.Ez (V/m) @ t=0.46
1.059653513876297
% es.tEx (V/m) @ t=0.46
1.0429199165528331
% es.tEy (V/m) @ t=0.46
0
% es.tEz (V/m) @ t=0.46
1.0596535138762846
% V (V) @ t=0.46
0.014402583683220687
% es.normE (V/m) @ t=0.48
1.5497401394291463
% es.EX (V/m) @ t=0.48
1.052291760643154
% es.EY (V/m) @ t=0.48
0.2988719564442306
% es.EZ (V/m) @ t=0.48
1.0691756771960215
% es.tEX (V/m) @ t=0.48
1.0522917606431577
% es.tEY (V/m) @ t=0.48
0
% es.tEZ (V/m) @ t=0.48
1.0691756771960073
% es.Ex (V/m) @ t=0.48
1.052291760643154
% es.Ey (V/m) @ t=0.48
0.2988719564442306
% es.Ez (V/m) @ t=0.48
1.0691756771960215
% es.tEx (V/m) @ t=0.48
1.0522917606431577
% es.tEy (V/m) @ t=0.48
0
% es.tEz (V/m) @ t=0.48
1.0691756771960073
% V (V) @ t=0.48
0.014531981457264299
% es.normE (V/m) @ t=0.5
1.563542484049131
% es.EX (V/m) @ t=0.5
1.0616636047334218
% es.EY (V/m) @ t=0.5
0.3015343135341695
% es.EZ (V/m) @ t=0.5
1.0786978405157264
% es.tEX (V/m) @ t=0.5
1.061663604733397
% es.tEY (V/m) @ t=0.5
0
% es.tEZ (V/m) @ t=0.5
1.0786978405157157
% es.Ex (V/m) @ t=0.5
1.0616636047334218
% es.Ey (V/m) @ t=0.5
0.3015343135341695
% es.Ez (V/m) @ t=0.5
1.0786978405157264
% es.tEx (V/m) @ t=0.5
1.061663604733397
% es.tEy (V/m) @ t=0.5
0
% es.tEz (V/m) @ t=0.5
1.0786978405157157
% V (V) @ t=0.5
0.014661379231307912
% es.normE (V/m) @ t=0.52
1.5778822368343084
% es.EX (V/m) @ t=0.52
1.0714003830814818
% es.EY (V/m) @ t=0.52
0.3043001766299689
% es.EZ (V/m) @ t=0.52
1.0885908061971854
% es.tEX (V/m) @ t=0.52
1.0714003830814818
% es.tEY (V/m) @ t=0.52
0
% es.tEZ (V/m) @ t=0.52
1.0885908061971676
% es.Ex (V/m) @ t=0.52
1.0714003830814818
% es.Ey (V/m) @ t=0.52
0.3043001766299689
% es.Ez (V/m) @ t=0.52
1.0885908061971854
% es.tEx (V/m) @ t=0.52
1.0714003830814818
% es.tEy (V/m) @ t=0.52
0
% es.tEz (V/m) @ t=0.52
1.0885908061971676
% V (V) @ t=0.52
0.014795823250086007
% es.normE (V/m) @ t=0.54
1.593180934361202
% es.EX (V/m) @ t=0.54
1.08178834578149
% es.EY (V/m) @ t=0.54
0.30725073461238495
% es.EZ (V/m) @ t=0.54
1.0991454272054604
% es.tEX (V/m) @ t=0.54
1.0817883457814617
% es.tEY (V/m) @ t=0.54
0
% es.tEZ (V/m) @ t=0.54
1.0991454272054426
% es.Ex (V/m) @ t=0.54
1.08178834578149
% es.Ey (V/m) @ t=0.54
0.30725073461238495
% es.Ez (V/m) @ t=0.54
1.0991454272054604
% es.tEx (V/m) @ t=0.54
1.0817883457814617
% es.tEy (V/m) @ t=0.54
0
% es.tEz (V/m) @ t=0.54
1.0991454272054426
% V (V) @ t=0.54
0.014939271727987424
% es.normE (V/m) @ t=0.56
1.6084796318880887
% es.EX (V/m) @ t=0.56
1.092176308481477
% es.EY (V/m) @ t=0.56
0.3102012925948152
% es.EZ (V/m) @ t=0.56
1.1097000482136927
% es.tEX (V/m) @ t=0.56
1.09217630848147
% es.tEY (V/m) @ t=0.56
0
% es.tEZ (V/m) @ t=0.56
1.109700048213682
% es.Ex (V/m) @ t=0.56
1.092176308481477
% es.Ey (V/m) @ t=0.56
0.3102012925948152
% es.Ez (V/m) @ t=0.56
1.1097000482136927
% es.tEx (V/m) @ t=0.56
1.09217630848147
% es.tEy (V/m) @ t=0.56
0
% es.tEz (V/m) @ t=0.56
1.109700048213682
% V (V) @ t=0.56
0.015082720205888842
% es.normE (V/m) @ t=0.58
1.6237783294150692
% es.EX (V/m) @ t=0.58
1.1025642711815138
% es.EY (V/m) @ t=0.58
0.31315185057724904
% es.EZ (V/m) @ t=0.58
1.1202546692219713
% es.tEX (V/m) @ t=0.58
1.1025642711814783
% es.tEY (V/m) @ t=0.58
0
% es.tEZ (V/m) @ t=0.58
1.12025466922195
% es.Ex (V/m) @ t=0.58
1.1025642711815138
% es.Ey (V/m) @ t=0.58
0.31315185057724904
% es.Ez (V/m) @ t=0.58
1.1202546692219713
% es.tEx (V/m) @ t=0.58
1.1025642711814783
% es.tEy (V/m) @ t=0.58
0
% es.tEz (V/m) @ t=0.58
1.12025466922195
% V (V) @ t=0.58
0.015226168683790255
% es.normE (V/m) @ t=0.6
1.639077026941985
% es.EX (V/m) @ t=0.6
1.1129522338814652
% es.EY (V/m) @ t=0.6
0.3161024085597184
% es.EZ (V/m) @ t=0.6
1.1308092902302
% es.tEX (V/m) @ t=0.6
1.1129522338814581
% es.tEY (V/m) @ t=0.6
0
% es.tEZ (V/m) @ t=0.6
1.1308092902301894
% es.Ex (V/m) @ t=0.6
1.1129522338814652
% es.Ey (V/m) @ t=0.6
0.3161024085597184
% es.Ez (V/m) @ t=0.6
1.1308092902302
% es.tEx (V/m) @ t=0.6
1.1129522338814581
% es.tEy (V/m) @ t=0.6
0
% es.tEz (V/m) @ t=0.6
1.1308092902301894
% V (V) @ t=0.6
0.015369617161691669
% es.normE (V/m) @ t=0.62
1.654375724468969
% es.EX (V/m) @ t=0.62
1.1233401965814807
% es.EY (V/m) @ t=0.62
0.3190529665421309
% es.EZ (V/m) @ t=0.62
1.141363911238443
% es.tEX (V/m) @ t=0.62
1.1233401965814664
% es.tEY (V/m) @ t=0.62
0
% es.tEZ (V/m) @ t=0.62
1.1413639112384217
% es.Ex (V/m) @ t=0.62
1.1233401965814807
% es.Ey (V/m) @ t=0.62
0.3190529665421309
% es.Ez (V/m) @ t=0.62
1.141363911238443
% es.tEx (V/m) @ t=0.62
1.1233401965814664
% es.tEy (V/m) @ t=0.62
0
% es.tEz (V/m) @ t=0.62
1.1413639112384217
% V (V) @ t=0.62
0.015513065639593086
% es.normE (V/m) @ t=0.64
1.6696744219959623
% es.EX (V/m) @ t=0.64
1.1337281592814534
% es.EY (V/m) @ t=0.64
0.32200352452456826
% es.EZ (V/m) @ t=0.64
1.151918532246695
% es.tEX (V/m) @ t=0.64
1.1337281592814463
% es.tEY (V/m) @ t=0.64
0
% es.tEZ (V/m) @ t=0.64
1.1519185322466825
% es.Ex (V/m) @ t=0.64
1.1337281592814534
% es.Ey (V/m) @ t=0.64
0.32200352452456826
% es.Ez (V/m) @ t=0.64
1.151918532246695
% es.tEx (V/m) @ t=0.64
1.1337281592814463
% es.tEy (V/m) @ t=0.64
0
% es.tEz (V/m) @ t=0.64
1.1519185322466825
% V (V) @ t=0.64
0.015656514117494507
% es.normE (V/m) @ t=0.66
1.6849731195230517
% es.EX (V/m) @ t=0.66
1.1441161219814902
% es.EY (V/m) @ t=0.66
0.3249540825070163
% es.EZ (V/m) @ t=0.66
1.1624731532549841
% es.tEX (V/m) @ t=0.66
1.1441161219814546
% es.tEY (V/m) @ t=0.66
0
% es.tEZ (V/m) @ t=0.66
1.1624731532549646
% es.Ex (V/m) @ t=0.66
1.1441161219814902
% es.Ey (V/m) @ t=0.66
0.3249540825070163
% es.Ez (V/m) @ t=0.66
1.1624731532549841
% es.tEx (V/m) @ t=0.66
1.1441161219814546
% es.tEy (V/m) @ t=0.66
0
% es.tEz (V/m) @ t=0.66
1.1624731532549646
% V (V) @ t=0.66
0.01579996259539592
% es.normE (V/m) @ t=0.68
1.7002718170501048
% es.EX (V/m) @ t=0.68
1.15450408468147
% es.EY (V/m) @ t=0.68
0.32790464048943946
% es.EZ (V/m) @ t=0.68
1.173027774263245
% es.tEX (V/m) @ t=0.68
1.154504084681463
% es.tEY (V/m) @ t=0.68
0
% es.tEZ (V/m) @ t=0.68
1.1730277742632254
% es.Ex (V/m) @ t=0.68
1.15450408468147
% es.Ey (V/m) @ t=0.68
0.32790464048943946
% es.Ez (V/m) @ t=0.68
1.173027774263245
% es.tEx (V/m) @ t=0.68
1.154504084681463
% es.tEy (V/m) @ t=0.68
0
% es.tEz (V/m) @ t=0.68
1.1730277742632254
% V (V) @ t=0.68
0.015943411073297338
% es.normE (V/m) @ t=0.7
1.7155705145771307
% es.EX (V/m) @ t=0.7
1.1648920473814428
% es.EY (V/m) @ t=0.7
0.33085519847191236
% es.EZ (V/m) @ t=0.7
1.1835823952714382
% es.tEX (V/m) @ t=0.7
1.1648920473814144
% es.tEY (V/m) @ t=0.7
0
% es.tEZ (V/m) @ t=0.7
1.1835823952714222
% es.Ex (V/m) @ t=0.7
1.1648920473814428
% es.Ey (V/m) @ t=0.7
0.33085519847191236
% es.Ez (V/m) @ t=0.7
1.1835823952714382
% es.tEx (V/m) @ t=0.7
1.1648920473814144
% es.tEy (V/m) @ t=0.7
0
% es.tEz (V/m) @ t=0.7
1.1835823952714222
% V (V) @ t=0.7
0.016086859551198752
% es.normE (V/m) @ t=0.72
1.7308692121042704
% es.EX (V/m) @ t=0.72
1.1752800100814724
% es.EY (V/m) @ t=0.72
0.33380575645432486
% es.EZ (V/m) @ t=0.72
1.194137016279722
% es.tEX (V/m) @ t=0.72
1.175280010081451
% es.tEY (V/m) @ t=0.72
0
% es.tEZ (V/m) @ t=0.72
1.1941370162796971
% es.Ex (V/m) @ t=0.72
1.1752800100814724
% es.Ey (V/m) @ t=0.72
0.33380575645432486
% es.Ez (V/m) @ t=0.72
1.194137016279722
% es.tEx (V/m) @ t=0.72
1.175280010081451
% es.tEy (V/m) @ t=0.72
0
% es.tEz (V/m) @ t=0.72
1.1941370162796971
% V (V) @ t=0.72
0.01623030802910017
% es.normE (V/m) @ t=0.74
1.7461679096314011
% es.EX (V/m) @ t=0.74
1.1856679727814807
% es.EY (V/m) @ t=0.74
0.33675631443673026
% es.EZ (V/m) @ t=0.74
1.2046916372879828
% es.tEX (V/m) @ t=0.74
1.1856679727814594
% es.tEY (V/m) @ t=0.74
0
% es.tEZ (V/m) @ t=0.74
1.204691637287965
% es.Ex (V/m) @ t=0.74
1.1856679727814807
% es.Ey (V/m) @ t=0.74
0.33675631443673026
% es.Ez (V/m) @ t=0.74
1.2046916372879828
% es.tEx (V/m) @ t=0.74
1.1856679727814594
% es.tEy (V/m) @ t=0.74
0
% es.tEz (V/m) @ t=0.74
1.204691637287965
% V (V) @ t=0.74
0.016373756507001583
% es.normE (V/m) @ t=0.76
1.7614666071585074
% es.EX (V/m) @ t=0.76
1.1960559354814393
% es.EY (V/m) @ t=0.76
0.33970687241918895
% es.EZ (V/m) @ t=0.76
1.2152462582962134
% es.tEX (V/m) @ t=0.76
1.1960559354814109
% es.tEY (V/m) @ t=0.76
0
% es.tEZ (V/m) @ t=0.76
1.2152462582961974
% es.Ex (V/m) @ t=0.76
1.1960559354814393
% es.Ey (V/m) @ t=0.76
0.33970687241918895
% es.Ez (V/m) @ t=0.76
1.2152462582962134
% es.tEx (V/m) @ t=0.76
1.1960559354814109
% es.tEy (V/m) @ t=0.76
0
% es.tEz (V/m) @ t=0.76
1.2152462582961974
% V (V) @ t=0.76
0.016517204984903004
% es.normE (V/m) @ t=0.78
1.7776790456203746
% es.EX (V/m) @ t=0.78
1.2070643992739107
% es.EY (V/m) @ t=0.78
0.3428333551026945
% es.EZ (V/m) @ t=0.78
1.2264313644915248
% es.tEX (V/m) @ t=0.78
1.2070643992738894
% es.tEY (V/m) @ t=0.78
0
% es.tEZ (V/m) @ t=0.78
1.2264313644915106
% es.Ex (V/m) @ t=0.78
1.2070643992739107
% es.Ey (V/m) @ t=0.78
0.3428333551026945
% es.Ez (V/m) @ t=0.78
1.2264313644915248
% es.tEx (V/m) @ t=0.78
1.2070643992738894
% es.tEy (V/m) @ t=0.78
0
% es.tEz (V/m) @ t=0.78
1.2264313644915106
% V (V) @ t=0.78
0.016669236624648913
% es.normE (V/m) @ t=0.8
1.794664087366388
% es.EX (V/m) @ t=0.8
1.2185975207275703
% es.EY (V/m) @ t=0.8
0.34610858892204277
% es.EZ (V/m) @ t=0.8
1.2381495702860068
% es.tEX (V/m) @ t=0.8
1.2185975207275135
% es.tEY (V/m) @ t=0.8
0
% es.tEZ (V/m) @ t=0.8
1.2381495702859908
% es.Ex (V/m) @ t=0.8
1.2185975207275703
% es.Ey (V/m) @ t=0.8
0.34610858892204277
% es.Ez (V/m) @ t=0.8
1.2381495702860068
% es.tEx (V/m) @ t=0.8
1.2185975207275135
% es.tEy (V/m) @ t=0.8
0
% es.tEz (V/m) @ t=0.8
1.2381495702859908
% V (V) @ t=0.8
0.01682852565954488
% es.normE (V/m) @ t=0.82
1.8116491291124792
% es.EX (V/m) @ t=0.82
1.2301306421811304
% es.EY (V/m) @ t=0.82
0.34938382274135904
% es.EZ (V/m) @ t=0.82
1.2498677760804355
% es.tEX (V/m) @ t=0.82
1.2301306421811091
% es.tEY (V/m) @ t=0.82
0
% es.tEZ (V/m) @ t=0.82
1.2498677760804071
% es.Ex (V/m) @ t=0.82
1.2301306421811304
% es.Ey (V/m) @ t=0.82
0.34938382274135904
% es.Ez (V/m) @ t=0.82
1.2498677760804355
% es.tEx (V/m) @ t=0.82
1.2301306421811091
% es.tEy (V/m) @ t=0.82
0
% es.tEz (V/m) @ t=0.82
1.2498677760804071
% V (V) @ t=0.82
0.01698781469444085
% es.normE (V/m) @ t=0.84
1.828634170858789
% es.EX (V/m) @ t=0.84
1.2416637636347332
% es.EY (V/m) @ t=0.84
0.3526590565606931
% es.EZ (V/m) @ t=0.84
1.2615859818748927
% es.tEX (V/m) @ t=0.84
1.2416637636347048
% es.tEY (V/m) @ t=0.84
0
% es.tEZ (V/m) @ t=0.84
1.2615859818748731
% es.Ex (V/m) @ t=0.84
1.2416637636347332
% es.Ey (V/m) @ t=0.84
0.3526590565606931
% es.Ez (V/m) @ t=0.84
1.2615859818748927
% es.tEx (V/m) @ t=0.84
1.2416637636347048
% es.tEy (V/m) @ t=0.84
0
% es.tEz (V/m) @ t=0.84
1.2615859818748731
% V (V) @ t=0.84
0.017147103729336814
% es.normE (V/m) @ t=0.86
1.8456192126052886
% es.EX (V/m) @ t=0.86
1.2531968850883644
% es.EY (V/m) @ t=0.86
0.3559342903799809
% es.EZ (V/m) @ t=0.86
1.2733041876693498
% es.tEX (V/m) @ t=0.86
1.2531968850883572
% es.tEY (V/m) @ t=0.86
0
% es.tEZ (V/m) @ t=0.86
1.2733041876693392
% es.Ex (V/m) @ t=0.86
1.2531968850883644
% es.Ey (V/m) @ t=0.86
0.3559342903799809
% es.Ez (V/m) @ t=0.86
1.2733041876693498
% es.tEx (V/m) @ t=0.86
1.2531968850883572
% es.tEy (V/m) @ t=0.86
0
% es.tEz (V/m) @ t=0.86
1.2733041876693392
% V (V) @ t=0.86
0.017306392764232778
% es.normE (V/m) @ t=0.88
1.862604254351967
% es.EX (V/m) @ t=0.88
1.2647300065419742
% es.EY (V/m) @ t=0.88
0.35920952419934693
% es.EZ (V/m) @ t=0.88
1.2850223934638283
% es.tEX (V/m) @ t=0.88
1.264730006541953
% es.tEY (V/m) @ t=0.88
0
% es.tEZ (V/m) @ t=0.88
1.285022393463791
% es.Ex (V/m) @ t=0.88
1.2647300065419742
% es.Ey (V/m) @ t=0.88
0.35920952419934693
% es.Ez (V/m) @ t=0.88
1.2850223934638283
% es.tEx (V/m) @ t=0.88
1.264730006541953
% es.tEy (V/m) @ t=0.88
0
% es.tEz (V/m) @ t=0.88
1.285022393463791
% V (V) @ t=0.88
0.017465681799128746
% es.normE (V/m) @ t=0.9
1.8795892960988057
% es.EX (V/m) @ t=0.9
1.2762631279956196
% es.EY (V/m) @ t=0.9
0.36248475801858504
% es.EZ (V/m) @ t=0.9
1.2967405992583068
% es.tEX (V/m) @ t=0.9
1.2762631279956338
% es.tEY (V/m) @ t=0.9
0
% es.tEZ (V/m) @ t=0.9
1.2967405992582854
% es.Ex (V/m) @ t=0.9
1.2762631279956196
% es.Ey (V/m) @ t=0.9
0.36248475801858504
% es.Ez (V/m) @ t=0.9
1.2967405992583068
% es.tEx (V/m) @ t=0.9
1.2762631279956338
% es.tEy (V/m) @ t=0.9
0
% es.tEz (V/m) @ t=0.9
1.2967405992582854
% V (V) @ t=0.9
0.01762497083402471
% es.normE (V/m) @ t=0.92
1.8965743378457613
% es.EX (V/m) @ t=0.92
1.287796249449201
% es.EY (V/m) @ t=0.92
0.3657599918379262
% es.EZ (V/m) @ t=0.92
1.3084588050527497
% es.tEX (V/m) @ t=0.92
1.2877962494491726
% es.tEY (V/m) @ t=0.92
0
% es.tEZ (V/m) @ t=0.92
1.3084588050527373
% es.Ex (V/m) @ t=0.92
1.287796249449201
% es.Ey (V/m) @ t=0.92
0.3657599918379262
% es.Ez (V/m) @ t=0.92
1.3084588050527497
% es.tEx (V/m) @ t=0.92
1.2877962494491726
% es.tEy (V/m) @ t=0.92
0
% es.tEz (V/m) @ t=0.92
1.3084588050527373
% V (V) @ t=0.92
0.01778425986892068
% es.normE (V/m) @ t=0.94
1.913559379592877
% es.EX (V/m) @ t=0.94
1.2993293709027967
% es.EY (V/m) @ t=0.94
0.36903522565724245
% es.EZ (V/m) @ t=0.94
1.3201770108472015
% es.tEX (V/m) @ t=0.94
1.2993293709027682
% es.tEY (V/m) @ t=0.94
0
% es.tEZ (V/m) @ t=0.94
1.320177010847189
% es.Ex (V/m) @ t=0.94
1.2993293709027967
% es.Ey (V/m) @ t=0.94
0.36903522565724245
% es.Ez (V/m) @ t=0.94
1.3201770108472015
% es.tEx (V/m) @ t=0.94
1.2993293709027682
% es.tEy (V/m) @ t=0.94
0
% es.tEz (V/m) @ t=0.94
1.320177010847189
% V (V) @ t=0.94
0.017943548903816643
% es.normE (V/m) @ t=0.96
1.9305444213401524
% es.EX (V/m) @ t=0.96
1.3108624923564207
% es.EY (V/m) @ t=0.96
0.3723104594765374
% es.EZ (V/m) @ t=0.96
1.3318952166416533
% es.tEX (V/m) @ t=0.96
1.3108624923563923
% es.tEY (V/m) @ t=0.96
0
% es.tEZ (V/m) @ t=0.96
1.331895216641641
% es.Ex (V/m) @ t=0.96
1.3108624923564207
% es.Ey (V/m) @ t=0.96
0.3723104594765374
% es.Ez (V/m) @ t=0.96
1.3318952166416533
% es.tEx (V/m) @ t=0.96
1.3108624923563923
% es.tEy (V/m) @ t=0.96
0
% es.tEz (V/m) @ t=0.96
1.331895216641641
% V (V) @ t=0.96
0.018102837938712608
% es.normE (V/m) @ t=0.98
1.9475294630876343
% es.EX (V/m) @ t=0.98
1.3223956138100803
% es.EY (V/m) @ t=0.98
0.3755856932958608
% es.EZ (V/m) @ t=0.98
1.3436134224361318
% es.tEX (V/m) @ t=0.98
1.3223956138100164
% es.tEY (V/m) @ t=0.98
0
% es.tEZ (V/m) @ t=0.98
1.343613422436107
% es.Ex (V/m) @ t=0.98
1.3223956138100803
% es.Ey (V/m) @ t=0.98
0.3755856932958608
% es.Ez (V/m) @ t=0.98
1.3436134224361318
% es.tEx (V/m) @ t=0.98
1.3223956138100164
% es.tEy (V/m) @ t=0.98
0
% es.tEz (V/m) @ t=0.98
1.343613422436107
% V (V) @ t=0.98
0.01826212697360858
% es.normE (V/m) @ t=1
1.964514504835154
% es.EX (V/m) @ t=1
1.3339287352635978
% es.EY (V/m) @ t=1
0.37886092711525166
% es.EZ (V/m) @ t=1
1.3553316282305836
% es.tEX (V/m) @ t=1
1.333928735263612
% es.tEY (V/m) @ t=1
0
% es.tEZ (V/m) @ t=1
1.3553316282305587
% es.Ex (V/m) @ t=1
1.3339287352635978
% es.Ey (V/m) @ t=1
0.37886092711525166
% es.Ez (V/m) @ t=1
1.3553316282305836
% es.tEx (V/m) @ t=1
1.333928735263612
% es.tEy (V/m) @ t=1
0
% es.tEz (V/m) @ t=1
1.3553316282305587
% V (V) @ t=1
0.01842141600850454
% es.normE (V/m) @ t=1.02
1.981499546582847
% es.EX (V/m) @ t=1.02
1.3454618567172432
% es.EY (V/m) @ t=1.02
0.3821361609344862
% es.EZ (V/m) @ t=1.02
1.3670498340250052
% es.tEX (V/m) @ t=1.02
1.3454618567172076
% es.tEY (V/m) @ t=1.02
0
% es.tEZ (V/m) @ t=1.02
1.3670498340249964
% es.Ex (V/m) @ t=1.02
1.3454618567172432
% es.Ey (V/m) @ t=1.02
0.3821361609344862
% es.Ez (V/m) @ t=1.02
1.3670498340250052
% es.tEx (V/m) @ t=1.02
1.3454618567172076
% es.tEy (V/m) @ t=1.02
0
% es.tEz (V/m) @ t=1.02
1.3670498340249964
% V (V) @ t=1.02
0.01858070504340051
% es.normE (V/m) @ t=1.04
1.9990785017801893
% es.EX (V/m) @ t=1.04
1.357398253765595
% es.EY (V/m) @ t=1.04
0.38552592598122004
% es.EZ (V/m) @ t=1.04
1.379177786586462
% es.tEX (V/m) @ t=1.04
1.3573982537655525
% es.tEY (V/m) @ t=1.04
0
% es.tEZ (V/m) @ t=1.04
1.379177786586439
% es.Ex (V/m) @ t=1.04
1.357398253765595
% es.Ey (V/m) @ t=1.04
0.38552592598122004
% es.Ez (V/m) @ t=1.04
1.379177786586462
% es.tEx (V/m) @ t=1.04
1.3573982537655525
% es.tEy (V/m) @ t=1.04
0
% es.tEz (V/m) @ t=1.04