% Model:              1 neuron.mph
% Version:            COMSOL 6.1.0.252
% Date:               Mar 22 2023, 19:39
% Dimension:          0
% Nodes:              14017
% Expressions:        14017
% Description:        Electric field norm, Electric field, X component, Electric field, Y component, Electric field, Z component, Tangential electric field, X component, Tangential electric field, Y component, Tangential electric field, Z component, Electric field, x component, Electric field, y component, Electric field, z component, Tangential electric field, x component, Tangential electric field, y component, Tangential electric field, z component, Electric potential
% Length unit:        mm
% x
1
% y
12.2
% z
1.33
% es.normE (V/m) @ t=0
2.6623504486872793
% es.EX (V/m) @ t=0
2.460360870646909
% es.EY (V/m) @ t=0
0.15491954528798857
% es.EZ (V/m) @ t=0
0.9946303845279658
% es.tEX (V/m) @ t=0
2.4603608706469036
% es.tEY (V/m) @ t=0
0
% es.tEZ (V/m) @ t=0
0.9946303845279711
% es.Ex (V/m) @ t=0
2.460360870646909
% es.Ey (V/m) @ t=0
0.15491954528798857
% es.Ez (V/m) @ t=0
0.9946303845279658
% es.tEx (V/m) @ t=0
2.4603608706469036
% es.tEy (V/m) @ t=0
0
% es.tEz (V/m) @ t=0
0.9946303845279711
% V (V) @ t=0
0.013280235177542534
% es.normE (V/m) @ t=0.02
2.2995040048342528
% es.EX (V/m) @ t=0.02
2.125043184303812
% es.EY (V/m) @ t=0.02
0.1338058689815862
% es.EZ (V/m) @ t=0.02
0.8590741891628471
% es.tEX (V/m) @ t=0.02
2.1250431843038182
% es.tEY (V/m) @ t=0.02
0
% es.tEZ (V/m) @ t=0.02
0.8590741891628393
% es.Ex (V/m) @ t=0.02
2.125043184303812
% es.Ey (V/m) @ t=0.02
0.1338058689815862
% es.Ez (V/m) @ t=0.02
0.8590741891628471
% es.tEx (V/m) @ t=0.02
2.1250431843038182
% es.tEy (V/m) @ t=0.02
0
% es.tEz (V/m) @ t=0.02
0.8590741891628393
% V (V) @ t=0.02
0.011470298346285851
% es.normE (V/m) @ t=0.04
2.3206627678950893
% es.EX (V/m) @ t=0.04
2.1445966551136015
% es.EY (V/m) @ t=0.04
0.13503707747629567
% es.EZ (V/m) @ t=0.04
0.8669789151677649
% es.tEX (V/m) @ t=0.04
2.144596655113613
% es.tEY (V/m) @ t=0.04
0
% es.tEZ (V/m) @ t=0.04
0.8669789151677705
% es.Ex (V/m) @ t=0.04
2.1445966551136015
% es.Ey (V/m) @ t=0.04
0.13503707747629567
% es.Ez (V/m) @ t=0.04
0.8669789151677649
% es.tEx (V/m) @ t=0.04
2.144596655113613
% es.tEy (V/m) @ t=0.04
0
% es.tEz (V/m) @ t=0.04
0.8669789151677705
% V (V) @ t=0.04
0.011575841632386286
% es.normE (V/m) @ t=0.06
2.341973269862667
% es.EX (V/m) @ t=0.06
2.164290352544265
% es.EY (V/m) @ t=0.06
0.13627711554412125
% es.EZ (V/m) @ t=0.06
0.874940329537061
% es.tEX (V/m) @ t=0.06
2.1642903525442687
% es.tEY (V/m) @ t=0.06
0
% es.tEZ (V/m) @ t=0.06
0.8749403295370599
% es.Ex (V/m) @ t=0.06
2.164290352544265
% es.Ey (V/m) @ t=0.06
0.13627711554412125
% es.Ez (V/m) @ t=0.06
0.874940329537061
% es.tEx (V/m) @ t=0.06
2.1642903525442687
% es.tEy (V/m) @ t=0.06
0
% es.tEz (V/m) @ t=0.06
0.8749403295370599
% V (V) @ t=0.06
0.011682141815943119
% es.normE (V/m) @ t=0.08
2.3636977668556005
% es.EX (V/m) @ t=0.08
2.1843666361841656
% es.EY (V/m) @ t=0.08
0.1375412421527088
% es.EZ (V/m) @ t=0.08
0.8830564074974205
% es.tEX (V/m) @ t=0.08
2.184366636184164
% es.tEY (V/m) @ t=0.08
0
% es.tEZ (V/m) @ t=0.08
0.8830564074974223
% es.Ex (V/m) @ t=0.08
2.1843666361841656
% es.Ey (V/m) @ t=0.08
0.1375412421527088
% es.Ez (V/m) @ t=0.08
0.8830564074974205
% es.tEx (V/m) @ t=0.08
2.184366636184164
% es.tEy (V/m) @ t=0.08
0
% es.tEz (V/m) @ t=0.08
0.8830564074974223
% V (V) @ t=0.08
0.011790507147894067
% es.normE (V/m) @ t=0.1
2.385524984620541
% es.EX (V/m) @ t=0.1
2.204537847415846
% es.EY (V/m) @ t=0.1
0.1388113456290283
% es.EZ (V/m) @ t=0.1
0.8912108607099358
% es.tEX (V/m) @ t=0.1
2.204537847415846
% es.tEY (V/m) @ t=0.1
0
% es.tEZ (V/m) @ t=0.1
0.8912108607099332
% es.Ex (V/m) @ t=0.1
2.204537847415846
% es.Ey (V/m) @ t=0.1
0.1388113456290283
% es.Ez (V/m) @ t=0.1
0.8912108607099358
% es.tEx (V/m) @ t=0.1
2.204537847415846
% es.tEy (V/m) @ t=0.1
0
% es.tEz (V/m) @ t=0.1
0.8912108607099332
% V (V) @ t=0.1
0.011899384886092277
% es.normE (V/m) @ t=0.12
2.407352202385459
% es.EX (V/m) @ t=0.12
2.224709058647509
% es.EY (V/m) @ t=0.12
0.1400814491053204
% es.EZ (V/m) @ t=0.12
0.8993653139224418
% es.tEX (V/m) @ t=0.12
2.2247090586475124
% es.tEY (V/m) @ t=0.12
0
% es.tEZ (V/m) @ t=0.12
0.8993653139224391
% es.Ex (V/m) @ t=0.12
2.224709058647509
% es.Ey (V/m) @ t=0.12
0.1400814491053204
% es.Ez (V/m) @ t=0.12
0.8993653139224418
% es.tEx (V/m) @ t=0.12
2.2247090586475124
% es.tEy (V/m) @ t=0.12
0
% es.tEz (V/m) @ t=0.12
0.8993653139224391
% V (V) @ t=0.12
0.012008262624290488
% es.normE (V/m) @ t=0.14
2.429842478677639
% es.EX (V/m) @ t=0.14
2.2454930224442915
% es.EY (V/m) @ t=0.14
0.1413901364851109
% es.EZ (V/m) @ t=0.14
0.9077674809470102
% es.tEX (V/m) @ t=0.14
2.245493022444288
% es.tEY (V/m) @ t=0.14
0
% es.tEZ (V/m) @ t=0.14
0.9077674809470042
% es.Ex (V/m) @ t=0.14
2.2454930224442915
% es.Ey (V/m) @ t=0.14
0.1413901364851109
% es.Ez (V/m) @ t=0.14
0.9077674809470102
% es.tEx (V/m) @ t=0.14
2.245493022444288
% es.tEy (V/m) @ t=0.14
0
% es.tEz (V/m) @ t=0.14
0.9077674809470042
% V (V) @ t=0.14
0.012120447741925498
% es.normE (V/m) @ t=0.16
2.452759098461873
% es.EX (V/m) @ t=0.16
2.26667098323777
% es.EY (V/m) @ t=0.16
0.14272363313208414
% es.EZ (V/m) @ t=0.16
0.916328926779298
% es.tEX (V/m) @ t=0.16
2.2666709832377734
% es.tEY (V/m) @ t=0.16
0
% es.tEZ (V/m) @ t=0.16
0.9163289267793022
% es.Ex (V/m) @ t=0.16
2.26667098323777
% es.Ey (V/m) @ t=0.16
0.14272363313208414
% es.Ez (V/m) @ t=0.16
0.916328926779298
% es.tEx (V/m) @ t=0.16
2.2666709832377734
% es.tEy (V/m) @ t=0.16
0
% es.tEz (V/m) @ t=0.16
0.9163289267793022
% V (V) @ t=0.16
0.012234759488871027
% es.normE (V/m) @ t=0.18
2.4756757182460927
% es.EX (V/m) @ t=0.18
2.287848944031225
% es.EY (V/m) @ t=0.18
0.14405712977905694
% es.EZ (V/m) @ t=0.18
0.9248903726116078
% es.tEX (V/m) @ t=0.18
2.2878489440312197
% es.tEY (V/m) @ t=0.18
0
% es.tEZ (V/m) @ t=0.18
0.9248903726116087
% es.Ex (V/m) @ t=0.18
2.287848944031225
% es.Ey (V/m) @ t=0.18
0.14405712977905694
% es.Ez (V/m) @ t=0.18
0.9248903726116078
% es.tEx (V/m) @ t=0.18
2.2878489440312197
% es.tEy (V/m) @ t=0.18
0
% es.tEz (V/m) @ t=0.18
0.9248903726116087
% V (V) @ t=0.18
0.012349071235816559
% es.normE (V/m) @ t=0.2
2.498592338030325
% es.EX (V/m) @ t=0.2
2.3090269048247096
% es.EY (V/m) @ t=0.2
0.14539062642603462
% es.EZ (V/m) @ t=0.2
0.9334518184438791
% es.tEX (V/m) @ t=0.2
2.3090269048247016
% es.tEY (V/m) @ t=0.2
0
% es.tEZ (V/m) @ t=0.2
0.9334518184438823
% es.Ex (V/m) @ t=0.2
2.3090269048247096
% es.Ey (V/m) @ t=0.2
0.14539062642603462
% es.Ez (V/m) @ t=0.2
0.9334518184438791
% es.tEx (V/m) @ t=0.2
2.3090269048247016
% es.tEy (V/m) @ t=0.2
0
% es.tEz (V/m) @ t=0.2
0.9334518184438823
% V (V) @ t=0.2
0.012463382982762087
% es.normE (V/m) @ t=0.22
2.5215089578145284
% es.EX (V/m) @ t=0.22
2.3302048656181586
% es.EY (V/m) @ t=0.22
0.14672412307300542
% es.EZ (V/m) @ t=0.22
0.9420132642761598
% es.tEX (V/m) @ t=0.22
2.330204865618171
% es.tEY (V/m) @ t=0.22
0
% es.tEZ (V/m) @ t=0.22
0.9420132642761585
% es.Ex (V/m) @ t=0.22
2.3302048656181586
% es.Ey (V/m) @ t=0.22
0.14672412307300542
% es.Ez (V/m) @ t=0.22
0.9420132642761598
% es.tEx (V/m) @ t=0.22
2.330204865618171
% es.tEy (V/m) @ t=0.22
0
% es.tEz (V/m) @ t=0.22
0.9420132642761585
% V (V) @ t=0.22
0.012577694729707616
% es.normE (V/m) @ t=0.24
2.5444255775987616
% es.EX (V/m) @ t=0.24
2.3513828264116388
% es.EY (V/m) @ t=0.24
0.14805761971995401
% es.EZ (V/m) @ t=0.24
0.9505747101084454
% es.tEX (V/m) @ t=0.24
2.3513828264116317
% es.tEY (V/m) @ t=0.24
0
% es.tEZ (V/m) @ t=0.24
0.9505747101084534
% es.Ex (V/m) @ t=0.24
2.3513828264116388
% es.Ey (V/m) @ t=0.24
0.14805761971995401
% es.Ez (V/m) @ t=0.24
0.9505747101084454
% es.tEx (V/m) @ t=0.24
2.3513828264116317
% es.tEy (V/m) @ t=0.24
0
% es.tEz (V/m) @ t=0.24
0.9505747101084534
% V (V) @ t=0.24
0.012692006476653146
% es.normE (V/m) @ t=0.26
2.5678858068902937
% es.EX (V/m) @ t=0.26
2.3730631539568456
% es.EY (V/m) @ t=0.26
0.14942274767732966
% es.EZ (V/m) @ t=0.26
0.9593392429057124
% es.tEX (V/m) @ t=0.26
2.3730631539568474
% es.tEY (V/m) @ t=0.26
0
% es.tEZ (V/m) @ t=0.26
0.9593392429057168
% es.Ex (V/m) @ t=0.26
2.3730631539568456
% es.Ey (V/m) @ t=0.26
0.14942274767732966
% es.Ez (V/m) @ t=0.26
0.9593392429057124
% es.tEx (V/m) @ t=0.26
2.3730631539568474
% es.tEy (V/m) @ t=0.26
0
% es.tEz (V/m) @ t=0.26
0.9593392429057168
% V (V) @ t=0.26
0.012809029879072394
% es.normE (V/m) @ t=0.28
2.5932344181246276
% es.EX (V/m) @ t=0.28
2.396488595025417
% es.EY (V/m) @ t=0.28
0.1508977559708048
% es.EZ (V/m) @ t=0.28
0.9688092559279617
% es.tEX (V/m) @ t=0.28
2.3964885950254153
% es.tEY (V/m) @ t=0.28
0
% es.tEZ (V/m) @ t=0.28
0.9688092559279582
% es.Ex (V/m) @ t=0.28
2.396488595025417
% es.Ey (V/m) @ t=0.28
0.1508977559708048
% es.Ez (V/m) @ t=0.28
0.9688092559279617
% es.tEx (V/m) @ t=0.28
2.3964885950254153
% es.tEy (V/m) @ t=0.28
0
% es.tEz (V/m) @ t=0.28
0.9688092559279582
% V (V) @ t=0.28
0.012935472986560781
% es.normE (V/m) @ t=0.3
2.6185830293589794
% es.EX (V/m) @ t=0.3
2.4199140360940197
% es.EY (V/m) @ t=0.3
0.15237276426426039
% es.EZ (V/m) @ t=0.3
0.9782792689501862
% es.tEX (V/m) @ t=0.3
2.419914036094019
% es.tEY (V/m) @ t=0.3
0
% es.tEZ (V/m) @ t=0.3
0.9782792689501925
% es.Ex (V/m) @ t=0.3
2.4199140360940197
% es.Ey (V/m) @ t=0.3
0.15237276426426039
% es.Ez (V/m) @ t=0.3
0.9782792689501862
% es.tEx (V/m) @ t=0.3
2.419914036094019
% es.tEy (V/m) @ t=0.3
0
% es.tEz (V/m) @ t=0.3
0.9782792689501925
% V (V) @ t=0.3
0.013061916094049166
% es.normE (V/m) @ t=0.32
2.6439316405933218
% es.EX (V/m) @ t=0.32
2.443339477162607
% es.EY (V/m) @ t=0.32
0.15384777255771953
% es.EZ (V/m) @ t=0.32
0.9877492819724214
% es.tEX (V/m) @ t=0.32
2.44333947716261
% es.tEY (V/m) @ t=0.32
0
% es.tEZ (V/m) @ t=0.32
0.9877492819724196
% es.Ex (V/m) @ t=0.32
2.443339477162607
% es.Ey (V/m) @ t=0.32
0.15384777255771953
% es.Ez (V/m) @ t=0.32
0.9877492819724214
% es.tEx (V/m) @ t=0.32
2.44333947716261
% es.tEy (V/m) @ t=0.32
0
% es.tEz (V/m) @ t=0.32
0.9877492819724196
% V (V) @ t=0.32
0.01318835920153755
% es.normE (V/m) @ t=0.34
2.669280251827661
% es.EX (V/m) @ t=0.34
2.466764918231199
% es.EY (V/m) @ t=0.34
0.1553227808511839
% es.EZ (V/m) @ t=0.34
0.9972192949946375
% es.tEX (V/m) @ t=0.34
2.4667649182312044
% es.tEY (V/m) @ t=0.34
0
% es.tEZ (V/m) @ t=0.34
0.9972192949946441
% es.Ex (V/m) @ t=0.34
2.466764918231199
% es.Ey (V/m) @ t=0.34
0.1553227808511839
% es.Ez (V/m) @ t=0.34
0.9972192949946375
% es.tEx (V/m) @ t=0.34
2.4667649182312044
% es.tEy (V/m) @ t=0.34
0
% es.tEz (V/m) @ t=0.34
0.9972192949946441
% V (V) @ t=0.34
0.013314802309025934
% es.normE (V/m) @ t=0.36
2.6946288630620012
% es.EX (V/m) @ t=0.36
2.4901903592997883
% es.EY (V/m) @ t=0.36
0.15679778914465536
% es.EZ (V/m) @ t=0.36
1.0066893080168606
% es.tEX (V/m) @ t=0.36
2.490190359299799
% es.tEY (V/m) @ t=0.36
0
% es.tEZ (V/m) @ t=0.36
1.0066893080168624
% es.Ex (V/m) @ t=0.36
2.4901903592997883
% es.Ey (V/m) @ t=0.36
0.15679778914465536
% es.Ez (V/m) @ t=0.36
1.0066893080168606
% es.tEx (V/m) @ t=0.36
2.490190359299799
% es.tEy (V/m) @ t=0.36
0
% es.tEz (V/m) @ t=0.36
1.0066893080168624
% V (V) @ t=0.36
0.013441245416514317
% es.normE (V/m) @ t=0.38
2.719977474296353
% es.EX (V/m) @ t=0.38
2.5136158003683837
% es.EY (V/m) @ t=0.38
0.15827279743812883
% es.EZ (V/m) @ t=0.38
1.016159321039099
% es.tEX (V/m) @ t=0.38
2.51361580036839
% es.tEY (V/m) @ t=0.38
0
% es.tEZ (V/m) @ t=0.38
1.016159321039102
% es.Ex (V/m) @ t=0.38
2.5136158003683837
% es.Ey (V/m) @ t=0.38
0.15827279743812883
% es.Ez (V/m) @ t=0.38
1.016159321039099
% es.tEx (V/m) @ t=0.38
2.51361580036839
% es.tEy (V/m) @ t=0.38
0
% es.tEz (V/m) @ t=0.38
1.016159321039102
% V (V) @ t=0.38
0.0135676885240027
% es.normE (V/m) @ t=0.4
2.7453260855306927
% es.EX (V/m) @ t=0.4
2.5370412414369703
% es.EY (V/m) @ t=0.4
0.15974780573158953
% es.EZ (V/m) @ t=0.4
1.0256293340613314
% es.tEX (V/m) @ t=0.4
2.537041241436974
% es.tEY (V/m) @ t=0.4
0
% es.tEZ (V/m) @ t=0.4
1.025629334061331
% es.Ex (V/m) @ t=0.4
2.5370412414369703
% es.Ey (V/m) @ t=0.4
0.15974780573158953
% es.Ez (V/m) @ t=0.4
1.0256293340613314
% es.tEx (V/m) @ t=0.4
2.537041241436974
% es.tEy (V/m) @ t=0.4
0
% es.tEz (V/m) @ t=0.4
1.025629334061331
% V (V) @ t=0.4
0.01369413163149109
% es.normE (V/m) @ t=0.42
2.7706746967650315
% es.EX (V/m) @ t=0.42
2.560466682505563
% es.EY (V/m) @ t=0.42
0.16122281402506455
% es.EZ (V/m) @ t=0.42
1.0350993470835395
% es.tEX (V/m) @ t=0.42
2.560466682505565
% es.tEY (V/m) @ t=0.42
0
% es.tEZ (V/m) @ t=0.42
1.0350993470835403
% es.Ex (V/m) @ t=0.42
2.560466682505563
% es.Ey (V/m) @ t=0.42
0.16122281402506455
% es.Ez (V/m) @ t=0.42
1.0350993470835395
% es.tEx (V/m) @ t=0.42
2.560466682505565
% es.tEy (V/m) @ t=0.42
0
% es.tEz (V/m) @ t=0.42
1.0350993470835403
% V (V) @ t=0.42
0.013820574738979472
% es.normE (V/m) @ t=0.44
2.796023307999376
% es.EX (V/m) @ t=0.44
2.5838921235741577
% es.EY (V/m) @ t=0.44
0.16269782231851493
% es.EZ (V/m) @ t=0.44
1.0445693601057657
% es.tEX (V/m) @ t=0.44
2.5838921235741594
% es.tEY (V/m) @ t=0.44
0
% es.tEZ (V/m) @ t=0.44
1.044569360105771
% es.Ex (V/m) @ t=0.44
2.5838921235741577
% es.Ey (V/m) @ t=0.44
0.16269782231851493
% es.Ez (V/m) @ t=0.44
1.0445693601057657
% es.tEx (V/m) @ t=0.44
2.5838921235741594
% es.tEy (V/m) @ t=0.44
0
% es.tEz (V/m) @ t=0.44
1.044569360105771
% V (V) @ t=0.44
0.013947017846467857
% es.normE (V/m) @ t=0.46
2.821371919233722
% es.EX (V/m) @ t=0.46
2.6073175646427504
% es.EY (V/m) @ t=0.46
0.16417283061199173
% es.EZ (V/m) @ t=0.46
1.0540393731279956
% es.tEX (V/m) @ t=0.46
2.607317564642747
% es.tEY (V/m) @ t=0.46
0
% es.tEZ (V/m) @ t=0.46
1.0540393731280018
% es.Ex (V/m) @ t=0.46
2.6073175646427504
% es.Ey (V/m) @ t=0.46
0.16417283061199173
% es.Ez (V/m) @ t=0.46
1.0540393731279956
% es.tEx (V/m) @ t=0.46
2.607317564642747
% es.tEy (V/m) @ t=0.46
0
% es.tEz (V/m) @ t=0.46
1.0540393731280018
% V (V) @ t=0.46
0.01407346095395624
% es.normE (V/m) @ t=0.48
2.846720530468069
% es.EX (V/m) @ t=0.48
2.630743005711347
% es.EY (V/m) @ t=0.48
0.16564783890544366
% es.EZ (V/m) @ t=0.48
1.063509386150221
% es.tEX (V/m) @ t=0.48
2.630743005711354
% es.tEY (V/m) @ t=0.48
0
% es.tEZ (V/m) @ t=0.48
1.0635093861502245
% es.Ex (V/m) @ t=0.48
2.630743005711347
% es.Ey (V/m) @ t=0.48
0.16564783890544366
% es.Ez (V/m) @ t=0.48
1.063509386150221
% es.tEx (V/m) @ t=0.48
2.630743005711354
% es.tEy (V/m) @ t=0.48
0
% es.tEz (V/m) @ t=0.48
1.0635093861502245
% V (V) @ t=0.48
0.014199904061444625
% es.normE (V/m) @ t=0.5
2.8720691417024176
% es.EX (V/m) @ t=0.5
2.654168446779936
% es.EY (V/m) @ t=0.5
0.16712284719892412
% es.EZ (V/m) @ t=0.5
1.0729793991724685
% es.tEX (V/m) @ t=0.5
2.654168446779936
% es.tEY (V/m) @ t=0.5
0
% es.tEZ (V/m) @ t=0.5
1.0729793991724623
% es.Ex (V/m) @ t=0.5
2.654168446779936
% es.Ey (V/m) @ t=0.5
0.16712284719892412
% es.Ez (V/m) @ t=0.5
1.0729793991724685
% es.tEx (V/m) @ t=0.5
2.654168446779936
% es.tEy (V/m) @ t=0.5
0
% es.tEz (V/m) @ t=0.5
1.0729793991724623
% V (V) @ t=0.5
0.01432634716893301
% es.normE (V/m) @ t=0.52
2.8986567923651005
% es.EX (V/m) @ t=0.52
2.678738922330478
% es.EY (V/m) @ t=0.52
0.16866995505400784
% es.EZ (V/m) @ t=0.52
1.0829123072171418
% es.tEX (V/m) @ t=0.52
2.6787389223304743
% es.tEY (V/m) @ t=0.52
0
% es.tEZ (V/m) @ t=0.52
1.0829123072171347
% es.Ex (V/m) @ t=0.52
2.678738922330478
% es.Ey (V/m) @ t=0.52
0.16866995505400784
% es.Ez (V/m) @ t=0.52
1.0829123072171418
% es.tEx (V/m) @ t=0.52
2.6787389223304743
% es.tEy (V/m) @ t=0.52
0
% es.tEz (V/m) @ t=0.52
1.0829123072171347
% V (V) @ t=0.52
0.014458970746906412
% es.normE (V/m) @ t=0.54
2.9267388742693017
% es.EX (V/m) @ t=0.54
2.704690447800253
% es.EY (V/m) @ t=0.54
0.17030402369089892
% es.EZ (V/m) @ t=0.54
1.0934035225822116
% es.tEX (V/m) @ t=0.54
2.704690447800253
% es.tEY (V/m) @ t=0.54
0
% es.tEZ (V/m) @ t=0.54
1.0934035225822134
% es.Ex (V/m) @ t=0.54
2.704690447800253
% es.Ey (V/m) @ t=0.54
0.17030402369089892
% es.Ez (V/m) @ t=0.54
1.0934035225822116
% es.tEx (V/m) @ t=0.54
2.704690447800253
% es.tEy (V/m) @ t=0.54
0
% es.tEz (V/m) @ t=0.54
1.0934035225822134
% V (V) @ t=0.54
0.014599048718960103
% es.normE (V/m) @ t=0.56
2.954820956173497
% es.EX (V/m) @ t=0.56
2.730641973270023
% es.EY (V/m) @ t=0.56
0.171938092327797
% es.EZ (V/m) @ t=0.56
1.1038947379472797
% es.tEX (V/m) @ t=0.56
2.7306419732700213
% es.tEY (V/m) @ t=0.56
0
% es.tEZ (V/m) @ t=0.56
1.1038947379472814
% es.Ex (V/m) @ t=0.56
2.730641973270023
% es.Ey (V/m) @ t=0.56
0.171938092327797
% es.Ez (V/m) @ t=0.56
1.1038947379472797
% es.tEx (V/m) @ t=0.56
2.7306419732700213
% es.tEy (V/m) @ t=0.56
0
% es.tEz (V/m) @ t=0.56
1.1038947379472814
% V (V) @ t=0.56
0.014739126691013791
% es.normE (V/m) @ t=0.58
2.982903038077704
% es.EX (V/m) @ t=0.58
2.7565934987397984
% es.EY (V/m) @ t=0.58
0.17357216096471495
% es.EZ (V/m) @ t=0.58
1.1143859533123637
% es.tEX (V/m) @ t=0.58
2.7565934987397913
% es.tEY (V/m) @ t=0.58
0
% es.tEZ (V/m) @ t=0.58
1.1143859533123672
% es.Ex (V/m) @ t=0.58
2.7565934987397984
% es.Ey (V/m) @ t=0.58
0.17357216096471495
% es.Ez (V/m) @ t=0.58
1.1143859533123637
% es.tEx (V/m) @ t=0.58
2.7565934987397913
% es.tEy (V/m) @ t=0.58
0
% es.tEz (V/m) @ t=0.58
1.1143859533123672
% V (V) @ t=0.58
0.014879204663067483
% es.normE (V/m) @ t=0.6
3.010985119981905
% es.EX (V/m) @ t=0.6
2.7825450242095755
% es.EY (V/m) @ t=0.6
0.17520622960160426
% es.EZ (V/m) @ t=0.6
1.1248771686774335
% es.tEX (V/m) @ t=0.6
2.7825450242095826
% es.tEY (V/m) @ t=0.6
0
% es.tEZ (V/m) @ t=0.6
1.1248771686774317
% es.Ex (V/m) @ t=0.6
2.7825450242095755
% es.Ey (V/m) @ t=0.6
0.17520622960160426
% es.Ez (V/m) @ t=0.6
1.1248771686774335
% es.tEx (V/m) @ t=0.6
2.7825450242095826
% es.tEy (V/m) @ t=0.6
0
% es.tEz (V/m) @ t=0.6
1.1248771686774317
% V (V) @ t=0.6
0.015019282635121175
% es.normE (V/m) @ t=0.62
3.0390672018860982
% es.EX (V/m) @ t=0.62
2.8084965496793366
% es.EY (V/m) @ t=0.62
0.17684029823851677
% es.EZ (V/m) @ t=0.62
1.135368384042513
% es.tEX (V/m) @ t=0.62
2.808496549679335
% es.tEY (V/m) @ t=0.62
0
% es.tEZ (V/m) @ t=0.62
1.1353683840425148
% es.Ex (V/m) @ t=0.62
2.8084965496793366
% es.Ey (V/m) @ t=0.62
0.17684029823851677
% es.Ez (V/m) @ t=0.62
1.135368384042513
% es.tEx (V/m) @ t=0.62
2.808496549679335
% es.tEy (V/m) @ t=0.62
0
% es.tEz (V/m) @ t=0.62
1.1353683840425148
% V (V) @ t=0.62
0.015159360607174863
% es.normE (V/m) @ t=0.64
3.0671492837902994
% es.EX (V/m) @ t=0.64
2.834448075149111
% es.EY (V/m) @ t=0.64
0.17847436687542018
% es.EZ (V/m) @ t=0.64
1.1458595994075864
% es.tEX (V/m) @ t=0.64
2.834448075149112
% es.tEY (V/m) @ t=0.64
0
% es.tEZ (V/m) @ t=0.64
1.1458595994075864
% es.Ex (V/m) @ t=0.64
2.834448075149111
% es.Ey (V/m) @ t=0.64
0.17847436687542018
% es.Ez (V/m) @ t=0.64
1.1458595994075864
% es.tEx (V/m) @ t=0.64
2.834448075149112
% es.tEy (V/m) @ t=0.64
0
% es.tEz (V/m) @ t=0.64
1.1458595994075864
% V (V) @ t=0.64
0.015299438579228554
% es.normE (V/m) @ t=0.66
3.0952313656944908
% es.EX (V/m) @ t=0.66
2.860399600618873
% es.EY (V/m) @ t=0.66
0.18010843551231304
% es.EZ (V/m) @ t=0.66
1.1563508147726633
% es.tEX (V/m) @ t=0.66
2.8603996006188694
% es.tEY (V/m) @ t=0.66
0
% es.tEZ (V/m) @ t=0.66
1.156350814772658
% es.Ex (V/m) @ t=0.66
2.860399600618873
% es.Ey (V/m) @ t=0.66
0.18010843551231304
% es.Ez (V/m) @ t=0.66
1.1563508147726633
% es.tEx (V/m) @ t=0.66
2.8603996006188694
% es.tEy (V/m) @ t=0.66
0
% es.tEz (V/m) @ t=0.66
1.156350814772658
% V (V) @ t=0.66
0.015439516551282246
% es.normE (V/m) @ t=0.68
3.1233134475986852
% es.EX (V/m) @ t=0.68
2.8863511260886376
% es.EY (V/m) @ t=0.68
0.18174250414922555
% es.EZ (V/m) @ t=0.68
1.1668420301377411
% es.tEX (V/m) @ t=0.68
2.886351126088636
% es.tEY (V/m) @ t=0.68
0
% es.tEZ (V/m) @ t=0.68
1.1668420301377447
% es.Ex (V/m) @ t=0.68
2.8863511260886376
% es.Ey (V/m) @ t=0.68
0.18174250414922555
% es.Ez (V/m) @ t=0.68
1.1668420301377411
% es.tEx (V/m) @ t=0.68
2.886351126088636
% es.tEy (V/m) @ t=0.68
0
% es.tEz (V/m) @ t=0.68
1.1668420301377447
% V (V) @ t=0.68
0.015579594523335934
% es.normE (V/m) @ t=0.7
3.151395529502884
% es.EX (V/m) @ t=0.7
2.912302651558411
% es.EY (V/m) @ t=0.7
0.1833765727861043
% es.EZ (V/m) @ t=0.7
1.1773332455028154
% es.tEX (V/m) @ t=0.7
2.912302651558411
% es.tEY (V/m) @ t=0.7
0
% es.tEZ (V/m) @ t=0.7
1.177333245502819
% es.Ex (V/m) @ t=0.7
2.912302651558411
% es.Ey (V/m) @ t=0.7
0.1833765727861043
% es.Ez (V/m) @ t=0.7
1.1773332455028154
% es.tEx (V/m) @ t=0.7
2.912302651558411
% es.tEy (V/m) @ t=0.7
0
% es.tEz (V/m) @ t=0.7
1.177333245502819
% V (V) @ t=0.7
0.015719672495389626
% es.normE (V/m) @ t=0.72
3.1794776114070853
% es.EX (V/m) @ t=0.72
2.93825417702819
% es.EY (V/m) @ t=0.72
0.18501064142301304
% es.EZ (V/m) @ t=0.72
1.1878244608678745
% es.tEX (V/m) @ t=0.72
2.9382541770281954
% es.tEY (V/m) @ t=0.72
0
% es.tEZ (V/m) @ t=0.72
1.1878244608678763
% es.Ex (V/m) @ t=0.72
2.93825417702819
% es.Ey (V/m) @ t=0.72
0.18501064142301304
% es.Ez (V/m) @ t=0.72
1.1878244608678745
% es.tEx (V/m) @ t=0.72
2.9382541770281954
% es.tEy (V/m) @ t=0.72
0
% es.tEz (V/m) @ t=0.72
1.1878244608678763
% V (V) @ t=0.72
0.015859750467443316
% es.normE (V/m) @ t=0.74
3.2075596933112758
% es.EX (V/m) @ t=0.74
2.9642057024979547
% es.EY (V/m) @ t=0.74
0.1866447100599129
% es.EZ (V/m) @ t=0.74
1.1983156762329408
% es.tEX (V/m) @ t=0.74
2.96420570249796
% es.tEY (V/m) @ t=0.74
0
% es.tEZ (V/m) @ t=0.74
1.1983156762329479
% es.Ex (V/m) @ t=0.74
2.9642057024979547
% es.Ey (V/m) @ t=0.74
0.1866447100599129
% es.Ez (V/m) @ t=0.74
1.1983156762329408
% es.tEx (V/m) @ t=0.74
2.96420570249796
% es.tEy (V/m) @ t=0.74
0
% es.tEz (V/m) @ t=0.74
1.1983156762329479
% V (V) @ t=0.74
0.015999828439497005
% es.normE (V/m) @ t=0.76
3.235641775215486
% es.EX (V/m) @ t=0.76
2.9901572279677335
% es.EY (V/m) @ t=0.76
0.18827877869682552
% es.EZ (V/m) @ t=0.76
1.2088068915980257
% es.tEX (V/m) @ t=0.76
2.9901572279677335
% es.tEY (V/m) @ t=0.76
0
% es.tEZ (V/m) @ t=0.76
1.2088068915980275
% es.Ex (V/m) @ t=0.76
2.9901572279677335
% es.Ey (V/m) @ t=0.76
0.18827877869682552
% es.Ez (V/m) @ t=0.76
1.2088068915980257
% es.tEx (V/m) @ t=0.76
2.9901572279677335
% es.tEy (V/m) @ t=0.76
0
% es.tEz (V/m) @ t=0.76
1.2088068915980275
% V (V) @ t=0.76
0.016139906411550695
% es.normE (V/m) @ t=0.78
3.2658260944355364
% es.EX (V/m) @ t=0.78
3.018051496287729
% es.EY (V/m) @ t=0.78
0.19003517458675967
% es.EZ (V/m) @ t=0.78
1.2200834841951247
% es.tEX (V/m) @ t=0.78
3.0180514962877236
% es.tEY (V/m) @ t=0.78
0
% es.tEZ (V/m) @ t=0.78
1.2200834841951282
% es.Ex (V/m) @ t=0.78
3.018051496287729
% es.Ey (V/m) @ t=0.78
0.19003517458675967
% es.Ez (V/m) @ t=0.78
1.2200834841951247
% es.tEx (V/m) @ t=0.78
3.0180514962877236
% es.tEy (V/m) @ t=0.78
0
% es.tEz (V/m) @ t=0.78
1.2200834841951282
% V (V) @ t=0.78
0.016290470676288134
% es.normE (V/m) @ t=0.8
3.2969859233042698
% es.EX (V/m) @ t=0.8
3.046847263397127
% es.EY (V/m) @ t=0.8
0.19184833448457483
% es.EZ (V/m) @ t=0.8
1.2317245185524373
% es.tEX (V/m) @ t=0.8
3.046847263397124
% es.tEY (V/m) @ t=0.8
0
% es.tEZ (V/m) @ t=0.8
1.2317245185524355
% es.Ex (V/m) @ t=0.8
3.046847263397127
% es.Ey (V/m) @ t=0.8
0.19184833448457483
% es.Ez (V/m) @ t=0.8
1.2317245185524373
% es.tEx (V/m) @ t=0.8
3.046847263397124
% es.tEy (V/m) @ t=0.8
0
% es.tEz (V/m) @ t=0.8
1.2317245185524355
% V (V) @ t=0.8
0.01644590093765456
% es.normE (V/m) @ t=0.82
3.328145752173028
% es.EX (V/m) @ t=0.82
3.075643030506553
% es.EY (V/m) @ t=0.82
0.19366149438243085
% es.EZ (V/m) @ t=0.82
1.2433655529097387
% es.tEX (V/m) @ t=0.82
3.0756430305065585
% es.tEY (V/m) @ t=0.82
0
% es.tEZ (V/m) @ t=0.82
1.243365552909741
% es.Ex (V/m) @ t=0.82
3.075643030506553
% es.Ey (V/m) @ t=0.82
0.19366149438243085
% es.Ez (V/m) @ t=0.82
1.2433655529097387
% es.tEx (V/m) @ t=0.82
3.0756430305065585
% es.tEy (V/m) @ t=0.82
0
% es.tEz (V/m) @ t=0.82
1.243365552909741
% V (V) @ t=0.82
0.01660133119902099
% es.normE (V/m) @ t=0.84
3.359305581041796
% es.EX (V/m) @ t=0.84
3.104438797615977
% es.EY (V/m) @ t=0.84
0.195474654280269
% es.EZ (V/m) @ t=0.84
1.2550065872670784
% es.tEX (V/m) @ t=0.84
3.104438797615982
% es.tEY (V/m) @ t=0.84
0
% es.tEZ (V/m) @ t=0.84
1.255006587267073
% es.Ex (V/m) @ t=0.84
3.104438797615977
% es.Ey (V/m) @ t=0.84
0.195474654280269
% es.Ez (V/m) @ t=0.84
1.2550065872670784
% es.tEx (V/m) @ t=0.84
3.104438797615982
% es.tEy (V/m) @ t=0.84
0
% es.tEz (V/m) @ t=0.84
1.255006587267073
% V (V) @ t=0.84
0.016756761460387414
% es.normE (V/m) @ t=0.86
3.3904654099105587
% es.EX (V/m) @ t=0.86
3.1332345647254156
% es.EY (V/m) @ t=0.86
0.19728781417811403
% es.EZ (V/m) @ t=0.86
1.2666476216243572
% es.tEX (V/m) @ t=0.86
3.133234564725413
% es.tEY (V/m) @ t=0.86
0
% es.tEZ (V/m) @ t=0.86
1.2666476216243554
% es.Ex (V/m) @ t=0.86
3.1332345647254156
% es.Ey (V/m) @ t=0.86
0.19728781417811403
% es.Ez (V/m) @ t=0.86
1.2666476216243572
% es.tEx (V/m) @ t=0.86
3.133234564725413
% es.tEy (V/m) @ t=0.86
0
% es.tEz (V/m) @ t=0.86
1.2666476216243554
% V (V) @ t=0.86
0.016912191721753844
% es.normE (V/m) @ t=0.88
3.421625238779318
% es.EX (V/m) @ t=0.88
3.1620303318348384
% es.EY (V/m) @ t=0.88
0.19910097407594174
% es.EZ (V/m) @ t=0.88
1.2782886559816733
% es.tEX (V/m) @ t=0.88
3.162030331834835
% es.tEY (V/m) @ t=0.88
0
% es.tEZ (V/m) @ t=0.88
1.278288655981684
% es.Ex (V/m) @ t=0.88
3.1620303318348384
% es.Ey (V/m) @ t=0.88
0.19910097407594174
% es.Ez (V/m) @ t=0.88
1.2782886559816733
% es.tEx (V/m) @ t=0.88
3.162030331834835
% es.tEy (V/m) @ t=0.88
0
% es.tEz (V/m) @ t=0.88
1.278288655981684
% V (V) @ t=0.88
0.017067621983120274
% es.normE (V/m) @ t=0.9
3.4527850676480805
% es.EX (V/m) @ t=0.9
3.1908260989442656
% es.EY (V/m) @ t=0.9
0.20091413397376767
% es.EZ (V/m) @ t=0.9
1.2899296903389925
% es.tEX (V/m) @ t=0.9
3.190826098944269
% es.tEY (V/m) @ t=0.9
0
% es.tEZ (V/m) @ t=0.9
1.2899296903389965
% es.Ex (V/m) @ t=0.9
3.1908260989442656
% es.Ey (V/m) @ t=0.9
0.20091413397376767
% es.Ez (V/m) @ t=0.9
1.2899296903389925
% es.tEx (V/m) @ t=0.9
3.190826098944269
% es.tEy (V/m) @ t=0.9
0
% es.tEz (V/m) @ t=0.9
1.2899296903389965
% V (V) @ t=0.9
0.0172230522444867
% es.normE (V/m) @ t=0.92
3.4839448965168356
% es.EX (V/m) @ t=0.92
3.2196218660536893
% es.EY (V/m) @ t=0.92
0.20272729387162514
% es.EZ (V/m) @ t=0.92
1.301570724696293
% es.tEX (V/m) @ t=0.92
3.2196218660536857
% es.tEY (V/m) @ t=0.92
0
% es.tEZ (V/m) @ t=0.92
1.301570724696293
% es.Ex (V/m) @ t=0.92
3.2196218660536893
% es.Ey (V/m) @ t=0.92
0.20272729387162514
% es.Ez (V/m) @ t=0.92
1.301570724696293
% es.tEx (V/m) @ t=0.92
3.2196218660536857
% es.tEy (V/m) @ t=0.92
0
% es.tEz (V/m) @ t=0.92
1.301570724696293
% V (V) @ t=0.92
0.017378482505853124
% es.normE (V/m) @ t=0.94
3.5151047253856103
% es.EX (V/m) @ t=0.94
3.248417633163129
% es.EY (V/m) @ t=0.94
0.20454045376945795
% es.EZ (V/m) @ t=0.94
1.3132117590536074
% es.tEX (V/m) @ t=0.94
3.248417633163122
% es.tEY (V/m) @ t=0.94
0
% es.tEZ (V/m) @ t=0.94
1.313211759053611
% es.Ex (V/m) @ t=0.94
3.248417633163129
% es.Ey (V/m) @ t=0.94
0.20454045376945795
% es.Ez (V/m) @ t=0.94
1.3132117590536074
% es.tEx (V/m) @ t=0.94
3.248417633163122
% es.tEy (V/m) @ t=0.94
0
% es.tEz (V/m) @ t=0.94
1.313211759053611
% V (V) @ t=0.94
0.017533912767219557
% es.normE (V/m) @ t=0.96
3.5462645542543543
% es.EX (V/m) @ t=0.96
3.2772134002725384
% es.EY (V/m) @ t=0.96
0.2063536136673103
% es.EZ (V/m) @ t=0.96
1.3248527934109142
% es.tEX (V/m) @ t=0.96
3.2772134002725632
% es.tEY (V/m) @ t=0.96
0
% es.tEZ (V/m) @ t=0.96
1.324852793410927
% es.Ex (V/m) @ t=0.96
3.2772134002725384
% es.Ey (V/m) @ t=0.96
0.2063536136673103
% es.Ez (V/m) @ t=0.96
1.3248527934109142
% es.tEx (V/m) @ t=0.96
3.2772134002725632
% es.tEy (V/m) @ t=0.96
0
% es.tEz (V/m) @ t=0.96
1.324852793410927
% V (V) @ t=0.96
0.017689343028585984
% es.normE (V/m) @ t=0.98
3.577424383123113
% es.EX (V/m) @ t=0.98
3.3060091673819656
% es.EY (V/m) @ t=0.98
0.20816677356514313
% es.EZ (V/m) @ t=0.98
1.3364938277682166
% es.tEX (V/m) @ t=0.98
3.3060091673819585
% es.tEY (V/m) @ t=0.98
0
% es.tEZ (V/m) @ t=0.98
1.336493827768206
% es.Ex (V/m) @ t=0.98
3.3060091673819656
% es.Ey (V/m) @ t=0.98
0.20816677356514313
% es.Ez (V/m) @ t=0.98
1.3364938277682166
% es.tEx (V/m) @ t=0.98
3.3060091673819585
% es.tEy (V/m) @ t=0.98
0
% es.tEz (V/m) @ t=0.98
1.336493827768206
% V (V) @ t=0.98
0.01784477328995241
% es.normE (V/m) @ t=1
3.6085842119918494
% es.EX (V/m) @ t=1
3.334804934491367
% es.EY (V/m) @ t=1
0.20997993346297594
% es.EZ (V/m) @ t=1
1.3481348621255256
% es.tEX (V/m) @ t=1
3.3348049344913733
% es.tEY (V/m) @ t=1
0
% es.tEZ (V/m) @ t=1
1.3481348621255274
% es.Ex (V/m) @ t=1
3.334804934491367
% es.Ey (V/m) @ t=1
0.20997993346297594
% es.Ez (V/m) @ t=1
1.3481348621255256
% es.tEx (V/m) @ t=1
3.3348049344913733
% es.tEy (V/m) @ t=1
0
% es.tEz (V/m) @ t=1
1.3481348621255274
% V (V) @ t=1
0.018000203551318837
% es.normE (V/m) @ t=1.02
3.6397440408606334
% es.EX (V/m) @ t=1.02
3.3636007016008183
% es.EY (V/m) @ t=1.02
0.21179309336080676
% es.EZ (V/m) @ t=1.02
1.3597758964828364
% es.tEX (V/m) @ t=1.02
3.363600701600797
% es.tEY (V/m) @ t=1.02
0
% es.tEZ (V/m) @ t=1.02
1.3597758964828452
% es.Ex (V/m) @ t=1.02
3.3636007016008183
% es.Ey (V/m) @ t=1.02
0.21179309336080676
% es.Ez (V/m) @ t=1.02
1.3597758964828364
% es.tEx (V/m) @ t=1.02
3.363600701600797
% es.tEy (V/m) @ t=1.02
0
% es.tEz (V/m) @ t=1.02
1.3597758964828452
% V (V) @ t=1.02
0.018155633812685267
% es.normE (V/m) @ t=1.04
3.6722899832000877
% es.EX (V/m) @ t=1.04
3.3936774192291477
% es.EY (V/m) @ t=1.04
0.21368690999943385
% es.EZ (V/m) @ t=1.04
1.3719347706103475
% es.tEX (V/m) @ t=1.04
3.3936774192291477
% es.tEY (V/m) @ t=1.04
0
% es.tEZ (V/m) @ t=1.04
1.371934770610344
% es.Ex (V/m) @ t=1.04
3.3936774192291477
% es.Ey (V/m) @ t=1.04
0.21368690999943385
% es.Ez (V/m) @ t=1.04
1.3719347706103475
% es.tEx (V/m) @ t=1.04
3.3936774192291477
% es.tEy (V/m) @ t=1.04
0
% es.tEz (V/m) @ t=1.04
1.371934770610344