% Model:              1 neuron.mph
% Version:            COMSOL 6.1.0.252
% Date:               Mar 22 2023, 19:31
% Dimension:          0
% Nodes:              14017
% Expressions:        14017
% Description:        Electric field norm, Electric field, X component, Electric field, Y component, Electric field, Z component, Tangential electric field, X component, Tangential electric field, Y component, Tangential electric field, Z component, Electric field, x component, Electric field, y component, Electric field, z component, Tangential electric field, x component, Tangential electric field, y component, Tangential electric field, z component, Electric potential
% Length unit:        mm
% x
1.66
% y
12.2
% z
2
% es.normE (V/m) @ t=0
2.6440404847348393
% es.EX (V/m) @ t=0
-0.7887707311017733
% es.EY (V/m) @ t=0
0.05891808927257884
% es.EZ (V/m) @ t=0
-2.5187131223153365
% es.tEX (V/m) @ t=0
-0.7887707311017778
% es.tEY (V/m) @ t=0
0
% es.tEZ (V/m) @ t=0
-2.518713122315347
% es.Ex (V/m) @ t=0
-0.7887707311017733
% es.Ey (V/m) @ t=0
0.05891808927257884
% es.Ez (V/m) @ t=0
-2.5187131223153365
% es.tEx (V/m) @ t=0
-0.7887707311017778
% es.tEy (V/m) @ t=0
0
% es.tEz (V/m) @ t=0
-2.518713122315347
% V (V) @ t=0
0.013290046008215777
% es.normE (V/m) @ t=0.02
2.283690953400934
% es.EX (V/m) @ t=0.02
-0.6812711809674322
% es.EY (V/m) @ t=0.02
0.05088829347517575
% es.EZ (V/m) @ t=0.02
-2.175444137340297
% es.tEX (V/m) @ t=0.02
-0.6812711809674425
% es.tEY (V/m) @ t=0.02
0
% es.tEZ (V/m) @ t=0.02
-2.1754441373403166
% es.Ex (V/m) @ t=0.02
-0.6812711809674322
% es.Ey (V/m) @ t=0.02
0.05088829347517575
% es.Ez (V/m) @ t=0.02
-2.175444137340297
% es.tEx (V/m) @ t=0.02
-0.6812711809674425
% es.tEy (V/m) @ t=0.02
0
% es.tEz (V/m) @ t=0.02
-2.1754441373403166
% V (V) @ t=0.02
0.011478779531666206
% es.normE (V/m) @ t=0.04
2.3047053361214926
% es.EX (V/m) @ t=0.04
-0.6875401960129527
% es.EY (V/m) @ t=0.04
0.05135656422990753
% es.EZ (V/m) @ t=0.04
-2.195462439626196
% es.tEX (V/m) @ t=0.04
-0.6875401960129608
% es.tEY (V/m) @ t=0.04
0
% es.tEZ (V/m) @ t=0.04
-2.195462439626212
% es.Ex (V/m) @ t=0.04
-0.6875401960129527
% es.Ey (V/m) @ t=0.04
0.05135656422990753
% es.Ez (V/m) @ t=0.04
-2.195462439626196
% es.tEx (V/m) @ t=0.04
-0.6875401960129608
% es.tEy (V/m) @ t=0.04
0
% es.tEz (V/m) @ t=0.04
-2.195462439626212
% V (V) @ t=0.04
0.011584406560724807
% es.normE (V/m) @ t=0.06
2.3258726785845933
% es.EX (V/m) @ t=0.06
-0.6938548415823943
% es.EY (V/m) @ t=0.06
0.05182824295033395
% es.EZ (V/m) @ t=0.06
-2.2156264515429456
% es.tEX (V/m) @ t=0.06
-0.6938548415824037
% es.tEY (V/m) @ t=0.06
0
% es.tEZ (V/m) @ t=0.06
-2.2156264515429607
% es.Ex (V/m) @ t=0.06
-0.6938548415823943
% es.Ey (V/m) @ t=0.06
0.05182824295033395
% es.Ez (V/m) @ t=0.06
-2.2156264515429456
% es.tEx (V/m) @ t=0.06
-0.6938548415824037
% es.tEy (V/m) @ t=0.06
0
% es.tEz (V/m) @ t=0.06
-2.2156264515429607
% V (V) @ t=0.06
0.01169080245927158
% es.normE (V/m) @ t=0.08
2.347446247186921
% es.EX (V/m) @ t=0.08
-0.7002906737012763
% es.EY (V/m) @ t=0.08
0.052308974866520516
% es.EZ (V/m) @ t=0.08
-2.2361774341031735
% es.tEX (V/m) @ t=0.08
-0.7002906737012786
% es.tEY (V/m) @ t=0.08
0
% es.tEZ (V/m) @ t=0.08
-2.236177434103194
% es.Ex (V/m) @ t=0.08
-0.7002906737012763
% es.Ey (V/m) @ t=0.08
0.052308974866520516
% es.Ez (V/m) @ t=0.08
-2.2361774341031735
% es.tEx (V/m) @ t=0.08
-0.7002906737012786
% es.tEy (V/m) @ t=0.08
0
% es.tEz (V/m) @ t=0.08
-2.236177434103194
% V (V) @ t=0.08
0.011799240149659681
% es.normE (V/m) @ t=0.1
2.369129055809392
% es.EX (V/m) @ t=0.1
-0.7067590946169472
% es.EY (V/m) @ t=0.1
0.05279214131659511
% es.EZ (V/m) @ t=0.1
-2.2568324786052747
% es.tEX (V/m) @ t=0.1
-0.706759094616956
% es.tEY (V/m) @ t=0.1
0
% es.tEZ (V/m) @ t=0.1
-2.2568324786052925
% es.Ex (V/m) @ t=0.1
-0.7067590946169472
% es.Ey (V/m) @ t=0.1
0.05279214131659511
% es.Ez (V/m) @ t=0.1
-2.2568324786052747
% es.tEx (V/m) @ t=0.1
-0.706759094616956
% es.tEy (V/m) @ t=0.1
0
% es.tEz (V/m) @ t=0.1
-2.2568324786052925
% V (V) @ t=0.1
0.011908226907083062
% es.normE (V/m) @ t=0.12
2.3908118644318597
% es.EX (V/m) @ t=0.12
-0.713227515532612
% es.EY (V/m) @ t=0.12
0.053275307766653915
% es.EZ (V/m) @ t=0.12
-2.277487523107375
% es.tEX (V/m) @ t=0.12
-0.7132275155326155
% es.tEY (V/m) @ t=0.12
0
% es.tEZ (V/m) @ t=0.12
-2.277487523107391
% es.Ex (V/m) @ t=0.12
-0.713227515532612
% es.Ey (V/m) @ t=0.12
0.053275307766653915
% es.Ez (V/m) @ t=0.12
-2.277487523107375
% es.tEx (V/m) @ t=0.12
-0.7132275155326155
% es.tEy (V/m) @ t=0.12
0
% es.tEz (V/m) @ t=0.12
-2.277487523107391
% V (V) @ t=0.12
0.012017213664506443
% es.normE (V/m) @ t=0.14
2.413127773699168
% es.EX (V/m) @ t=0.14
-0.7198848021067306
% es.EY (V/m) @ t=0.14
0.0537725807370896
% es.EZ (V/m) @ t=0.14
-2.2987456597157276
% es.tEX (V/m) @ t=0.14
-0.719884802106737
% es.tEY (V/m) @ t=0.14
0
% es.tEZ (V/m) @ t=0.14
-2.2987456597157543
% es.Ex (V/m) @ t=0.14
-0.7198848021067306
% es.Ey (V/m) @ t=0.14
0.0537725807370896
% es.Ez (V/m) @ t=0.14
-2.2987456597157276
% es.tEx (V/m) @ t=0.14
-0.719884802106737
% es.tEy (V/m) @ t=0.14
0
% es.tEz (V/m) @ t=0.14
-2.2987456597157543
% V (V) @ t=0.14
0.01212938271672619
% es.normE (V/m) @ t=0.16
2.4358976152987815
% es.EX (V/m) @ t=0.16
-0.7266775051103183
% es.EY (V/m) @ t=0.16
0.054279968064128256
% es.EZ (V/m) @ t=0.16
-2.3204362125735694
% es.tEX (V/m) @ t=0.16
-0.7266775051103238
% es.tEY (V/m) @ t=0.16
0
% es.tEZ (V/m) @ t=0.16
-2.320436212573588
% es.Ex (V/m) @ t=0.16
-0.7266775051103183
% es.Ey (V/m) @ t=0.16
0.054279968064128256
% es.Ez (V/m) @ t=0.16
-2.3204362125735694
% es.tEx (V/m) @ t=0.16
-0.7266775051103238
% es.tEy (V/m) @ t=0.16
0
% es.tEz (V/m) @ t=0.16
-2.320436212573588
% V (V) @ t=0.16
0.012243833470142795
% es.normE (V/m) @ t=0.18
2.458667456898394
% es.EX (V/m) @ t=0.18
-0.733470208113922
% es.EY (V/m) @ t=0.18
0.05478735539115272
% es.EZ (V/m) @ t=0.18
-2.342126765431404
% es.tEX (V/m) @ t=0.18
-0.7334702081139284
% es.tEY (V/m) @ t=0.18
0
% es.tEZ (V/m) @ t=0.18
-2.3421267654314297
% es.Ex (V/m) @ t=0.18
-0.733470208113922
% es.Ey (V/m) @ t=0.18
0.05478735539115272
% es.Ez (V/m) @ t=0.18
-2.342126765431404
% es.tEx (V/m) @ t=0.18
-0.7334702081139284
% es.tEy (V/m) @ t=0.18
0
% es.tEz (V/m) @ t=0.18
-2.3421267654314297
% V (V) @ t=0.18
0.012358284223559397
% es.normE (V/m) @ t=0.2
2.481437298498024
% es.EX (V/m) @ t=0.2
-0.7402629111175143
% es.EY (V/m) @ t=0.2
0.05529474271822313
% es.EZ (V/m) @ t=0.2
-2.36381731828926
% es.tEX (V/m) @ t=0.2
-0.7402629111175223
% es.tEY (V/m) @ t=0.2
0
% es.tEZ (V/m) @ t=0.2
-2.3638173182892643
% es.Ex (V/m) @ t=0.2
-0.7402629111175143
% es.Ey (V/m) @ t=0.2
0.05529474271822313
% es.Ez (V/m) @ t=0.2
-2.36381731828926
% es.tEx (V/m) @ t=0.2
-0.7402629111175223
% es.tEy (V/m) @ t=0.2
0
% es.tEz (V/m) @ t=0.2
-2.3638173182892643
% V (V) @ t=0.2
0.012472734976976001
% es.normE (V/m) @ t=0.22
2.504207140097636
% es.EX (V/m) @ t=0.22
-0.7470556141211181
% es.EY (V/m) @ t=0.22
0.05580213004523138
% es.EZ (V/m) @ t=0.22
-2.3855078711470945
% es.tEX (V/m) @ t=0.22
-0.7470556141211304
% es.tEY (V/m) @ t=0.22
0
% es.tEZ (V/m) @ t=0.22
-2.385507871147114
% es.Ex (V/m) @ t=0.22
-0.7470556141211181
% es.Ey (V/m) @ t=0.22
0.05580213004523138
% es.Ez (V/m) @ t=0.22
-2.3855078711470945
% es.tEx (V/m) @ t=0.22
-0.7470556141211304
% es.tEy (V/m) @ t=0.22
0
% es.tEz (V/m) @ t=0.22
-2.385507871147114
% V (V) @ t=0.22
0.012587185730392607
% es.normE (V/m) @ t=0.24
2.5269769816972527
% es.EX (V/m) @ t=0.24
-0.7538483171247148
% es.EY (V/m) @ t=0.24
0.05630951737227183
% es.EZ (V/m) @ t=0.24
-2.407198424004936
% es.tEX (V/m) @ t=0.24
-0.7538483171247243
% es.tEY (V/m) @ t=0.24
0
% es.tEZ (V/m) @ t=0.24
-2.407198424004955
% es.Ex (V/m) @ t=0.24
-0.7538483171247148
% es.Ey (V/m) @ t=0.24
0.05630951737227183
% es.Ez (V/m) @ t=0.24
-2.407198424004936
% es.tEx (V/m) @ t=0.24
-0.7538483171247243
% es.tEy (V/m) @ t=0.24
0
% es.tEz (V/m) @ t=0.24
-2.407198424004955
% V (V) @ t=0.24
0.01270163648380921
% es.normE (V/m) @ t=0.26
2.5501620674312067
% es.EX (V/m) @ t=0.26
-0.7607648887108671
% es.EY (V/m) @ t=0.26
0.05682615046334902
% es.EZ (V/m) @ t=0.26
-2.429284541096526
% es.tEX (V/m) @ t=0.26
-0.7607648887108702
% es.tEY (V/m) @ t=0.26
0
% es.tEZ (V/m) @ t=0.26
-2.4292845410965462
% es.Ex (V/m) @ t=0.26
-0.7607648887108671
% es.Ey (V/m) @ t=0.26
0.05682615046334902
% es.Ez (V/m) @ t=0.26
-2.429284541096526
% es.tEx (V/m) @ t=0.26
-0.7607648887108702
% es.tEy (V/m) @ t=0.26
0
% es.tEz (V/m) @ t=0.26
-2.4292845410965462
% V (V) @ t=0.26
0.012818174881602721
% es.normE (V/m) @ t=0.28
2.5753590405437174
% es.EX (V/m) @ t=0.28
-0.768281612393654
% es.EY (V/m) @ t=0.28
0.057387579939079114
% es.EZ (V/m) @ t=0.28
-2.453287195047949
% es.tEX (V/m) @ t=0.28
-0.7682816123936647
% es.tEY (V/m) @ t=0.28
0
% es.tEZ (V/m) @ t=0.28
-2.45328719504797
% es.Ex (V/m) @ t=0.28
-0.768281612393654
% es.Ey (V/m) @ t=0.28
0.057387579939079114
% es.Ez (V/m) @ t=0.28
-2.453287195047949
% es.tEx (V/m) @ t=0.28
-0.7682816123936647
% es.tEy (V/m) @ t=0.28
0
% es.tEz (V/m) @ t=0.28
-2.45328719504797
% V (V) @ t=0.28
0.012944828064953758
% es.normE (V/m) @ t=0.3
2.6005560136562496
% es.EX (V/m) @ t=0.3
-0.7757983360764469
% es.EY (V/m) @ t=0.3
0.05794900941483609
% es.EZ (V/m) @ t=0.3
-2.4772898489993933
% es.tEX (V/m) @ t=0.3
-0.7757983360764484
% es.tEY (V/m) @ t=0.3
0
% es.tEZ (V/m) @ t=0.3
-2.4772898489994084
% es.Ex (V/m) @ t=0.3
-0.7757983360764469
% es.Ey (V/m) @ t=0.3
0.05794900941483609
% es.Ez (V/m) @ t=0.3
-2.4772898489993933
% es.tEx (V/m) @ t=0.3
-0.7757983360764484
% es.tEy (V/m) @ t=0.3
0
% es.tEz (V/m) @ t=0.3
-2.4772898489994084
% V (V) @ t=0.3
0.013071481248304791
% es.normE (V/m) @ t=0.32
2.6257529867687843
% es.EX (V/m) @ t=0.32
-0.7833150597592335
% es.EY (V/m) @ t=0.32
0.05851043889054869
% es.EZ (V/m) @ t=0.32
-2.5012925029508386
% es.tEX (V/m) @ t=0.32
-0.7833150597592464
% es.tEY (V/m) @ t=0.32
0
% es.tEZ (V/m) @ t=0.32
-2.5012925029508466
% es.Ex (V/m) @ t=0.32
-0.7833150597592335
% es.Ey (V/m) @ t=0.32
0.05851043889054869
% es.Ez (V/m) @ t=0.32
-2.5012925029508386
% es.tEx (V/m) @ t=0.32
-0.7833150597592464
% es.tEy (V/m) @ t=0.32
0
% es.tEz (V/m) @ t=0.32
-2.5012925029508466
% V (V) @ t=0.32
0.013198134431655828
% es.normE (V/m) @ t=0.34
2.6509499598813075
% es.EX (V/m) @ t=0.34
-0.7908317834420258
% es.EY (V/m) @ t=0.34
0.05907186836629848
% es.EZ (V/m) @ t=0.34
-2.525295156902268
% es.tEX (V/m) @ t=0.34
-0.7908317834420302
% es.tEY (V/m) @ t=0.34
0
% es.tEZ (V/m) @ t=0.34
-2.525295156902285
% es.Ex (V/m) @ t=0.34
-0.7908317834420258
% es.Ey (V/m) @ t=0.34
0.05907186836629848
% es.Ez (V/m) @ t=0.34
-2.525295156902268
% es.tEx (V/m) @ t=0.34
-0.7908317834420302
% es.tEy (V/m) @ t=0.34
0
% es.tEz (V/m) @ t=0.34
-2.525295156902285
% V (V) @ t=0.34
0.01332478761500686
% es.normE (V/m) @ t=0.36
2.676146932993853
% es.EX (V/m) @ t=0.36
-0.7983485071248168
% es.EY (V/m) @ t=0.36
0.059633297842039495
% es.EZ (V/m) @ t=0.36
-2.5492978108537203
% es.tEX (V/m) @ t=0.36
-0.7983485071248211
% es.tEY (V/m) @ t=0.36
0
% es.tEZ (V/m) @ t=0.36
-2.549297810853723
% es.Ex (V/m) @ t=0.36
-0.7983485071248168
% es.Ey (V/m) @ t=0.36
0.059633297842039495
% es.Ez (V/m) @ t=0.36
-2.5492978108537203
% es.tEx (V/m) @ t=0.36
-0.7983485071248211
% es.tEy (V/m) @ t=0.36
0
% es.tEz (V/m) @ t=0.36
-2.549297810853723
% V (V) @ t=0.36
0.013451440798357896
% es.normE (V/m) @ t=0.38
2.7013439061063567
% es.EX (V/m) @ t=0.38
-0.8058652308076024
% es.EY (V/m) @ t=0.38
0.06019472731776321
% es.EZ (V/m) @ t=0.38
-2.57330046480513
% es.tEX (V/m) @ t=0.38
-0.805865230807612
% es.tEY (V/m) @ t=0.38
0
% es.tEZ (V/m) @ t=0.38
-2.573300464805147
% es.Ex (V/m) @ t=0.38
-0.8058652308076024
% es.Ey (V/m) @ t=0.38
0.06019472731776321
% es.Ez (V/m) @ t=0.38
-2.57330046480513
% es.tEx (V/m) @ t=0.38
-0.805865230807612
% es.tEy (V/m) @ t=0.38
0
% es.tEz (V/m) @ t=0.38
-2.573300464805147
% V (V) @ t=0.38
0.01357809398170893
% es.normE (V/m) @ t=0.4
2.7265408792189048
% es.EX (V/m) @ t=0.4
-0.8133819544903902
% es.EY (V/m) @ t=0.4
0.060756156793511026
% es.EZ (V/m) @ t=0.4
-2.5973031187565816
% es.tEX (V/m) @ t=0.4
-0.8133819544903957
% es.tEY (V/m) @ t=0.4
0
% es.tEZ (V/m) @ t=0.4
-2.5973031187565994
% es.Ex (V/m) @ t=0.4
-0.8133819544903902
% es.Ey (V/m) @ t=0.4
0.060756156793511026
% es.Ez (V/m) @ t=0.4
-2.5973031187565816
% es.tEx (V/m) @ t=0.4
-0.8133819544903957
% es.tEy (V/m) @ t=0.4
0
% es.tEz (V/m) @ t=0.4
-2.5973031187565994
% V (V) @ t=0.4
0.013704747165059967
% es.normE (V/m) @ t=0.42
2.751737852331434
% es.EX (V/m) @ t=0.42
-0.8208986781731813
% es.EY (V/m) @ t=0.42
0.06131758626925382
% es.EZ (V/m) @ t=0.42
-2.6213057727080127
% es.tEX (V/m) @ t=0.42
-0.8208986781731866
% es.tEY (V/m) @ t=0.42
0
% es.tEZ (V/m) @ t=0.42
-2.6213057727080376
% es.Ex (V/m) @ t=0.42
-0.8208986781731813
% es.Ey (V/m) @ t=0.42
0.06131758626925382
% es.Ez (V/m) @ t=0.42
-2.6213057727080127
% es.tEx (V/m) @ t=0.42
-0.8208986781731866
% es.tEy (V/m) @ t=0.42
0
% es.tEz (V/m) @ t=0.42
-2.6213057727080376
% V (V) @ t=0.42
0.013831400348411002
% es.normE (V/m) @ t=0.44
2.776934825443958
% es.EX (V/m) @ t=0.44
-0.8284154018559706
% es.EY (V/m) @ t=0.44
0.06187901574498211
% es.EZ (V/m) @ t=0.44
-2.6453084266594358
% es.tEX (V/m) @ t=0.44
-0.8284154018559846
% es.tEY (V/m) @ t=0.44
0
% es.tEZ (V/m) @ t=0.44
-2.6453084266594615
% es.Ex (V/m) @ t=0.44
-0.8284154018559706
% es.Ey (V/m) @ t=0.44
0.06187901574498211
% es.Ez (V/m) @ t=0.44
-2.6453084266594358
% es.tEx (V/m) @ t=0.44
-0.8284154018559846
% es.tEy (V/m) @ t=0.44
0
% es.tEz (V/m) @ t=0.44
-2.6453084266594615
% V (V) @ t=0.44
0.013958053531762037
% es.normE (V/m) @ t=0.46
2.802131798556501
% es.EX (V/m) @ t=0.46
-0.8359321255387546
% es.EY (V/m) @ t=0.46
0.06244044522072517
% es.EZ (V/m) @ t=0.46
-2.669311080610881
% es.tEX (V/m) @ t=0.46
-0.8359321255387684
% es.tEY (V/m) @ t=0.46
0
% es.tEZ (V/m) @ t=0.46
-2.669311080610914
% es.Ex (V/m) @ t=0.46
-0.8359321255387546
% es.Ey (V/m) @ t=0.46
0.06244044522072517
% es.Ez (V/m) @ t=0.46
-2.669311080610881
% es.tEx (V/m) @ t=0.46
-0.8359321255387684
% es.tEy (V/m) @ t=0.46
0
% es.tEz (V/m) @ t=0.46
-2.669311080610914
% V (V) @ t=0.46
0.014084706715113072
% es.normE (V/m) @ t=0.48
2.827328771669041
% es.EX (V/m) @ t=0.48
-0.843448849221546
% es.EY (V/m) @ t=0.48
0.06300187469646627
% es.EZ (V/m) @ t=0.48
-2.6933137345623175
% es.tEX (V/m) @ t=0.48
-0.8434488492215522
% es.tEY (V/m) @ t=0.48
0
% es.tEZ (V/m) @ t=0.48
-2.693313734562338
% es.Ex (V/m) @ t=0.48
-0.843448849221546
% es.Ey (V/m) @ t=0.48
0.06300187469646627
% es.Ez (V/m) @ t=0.48
-2.6933137345623175
% es.tEx (V/m) @ t=0.48
-0.8434488492215522
% es.tEy (V/m) @ t=0.48
0
% es.tEz (V/m) @ t=0.48
-2.693313734562338
% V (V) @ t=0.48
0.014211359898464105
% es.normE (V/m) @ t=0.5
2.852525744781582
% es.EX (V/m) @ t=0.5
-0.8509655729043353
% es.EY (V/m) @ t=0.5
0.0635633041721933
% es.EZ (V/m) @ t=0.5
-2.7173163885137557
% es.tEX (V/m) @ t=0.5
-0.850965572904343
% es.tEY (V/m) @ t=0.5
0
% es.tEZ (V/m) @ t=0.5
-2.717316388513776
% es.Ex (V/m) @ t=0.5
-0.8509655729043353
% es.Ey (V/m) @ t=0.5
0.0635633041721933
% es.Ez (V/m) @ t=0.5
-2.7173163885137557
% es.tEx (V/m) @ t=0.5
-0.850965572904343
% es.tEy (V/m) @ t=0.5
0
% es.tEz (V/m) @ t=0.5
-2.717316388513776
% V (V) @ t=0.5
0.014338013081815142
% es.normE (V/m) @ t=0.52
2.8786738805558363
% es.EX (V/m) @ t=0.52
-0.8587660581175892
% es.EY (V/m) @ t=0.52
0.06414593936724826
% es.EZ (V/m) @ t=0.52
-2.742225116188571
% es.tEX (V/m) @ t=0.52
-0.8587660581175953
% es.tEY (V/m) @ t=0.52
0
% es.tEZ (V/m) @ t=0.52
-2.7422251161886013
% es.Ex (V/m) @ t=0.52
-0.8587660581175892
% es.Ey (V/m) @ t=0.52
0.06414593936724826
% es.Ez (V/m) @ t=0.52
-2.742225116188571
% es.tEx (V/m) @ t=0.52
-0.8587660581175953
% es.tEy (V/m) @ t=0.52
0
% es.tEz (V/m) @ t=0.52
-2.7422251161886013
% V (V) @ t=0.52
0.014469446538278372
% es.normE (V/m) @ t=0.54
2.9066007090149086
% es.EX (V/m) @ t=0.54
-0.8670971829141363
% es.EY (V/m) @ t=0.54
0.0647682296699883
% es.EZ (V/m) @ t=0.54
-2.7688282193562035
% es.tEX (V/m) @ t=0.54
-0.8670971829141507
% es.tEY (V/m) @ t=0.54
0
% es.tEZ (V/m) @ t=0.54
-2.7688282193562355
% es.Ex (V/m) @ t=0.54
-0.8670971829141363
% es.Ey (V/m) @ t=0.54
0.0647682296699883
% es.Ez (V/m) @ t=0.54
-2.7688282193562035
% es.tEx (V/m) @ t=0.54
-0.8670971829141507
% es.tEy (V/m) @ t=0.54
0
% es.tEz (V/m) @ t=0.54
-2.7688282193562355
% V (V) @ t=0.54
0.014609819198474488
% es.normE (V/m) @ t=0.56
2.9345275374740014
% es.EX (V/m) @ t=0.56
-0.875428307710701
% es.EY (V/m) @ t=0.56
0.06539051997273995
% es.EZ (V/m) @ t=0.56
-2.795431322523851
% es.tEX (V/m) @ t=0.56
-0.8754283077107132
% es.tEY (V/m) @ t=0.56
0
% es.tEZ (V/m) @ t=0.56
-2.795431322523859
% es.Ex (V/m) @ t=0.56
-0.875428307710701
% es.Ey (V/m) @ t=0.56
0.06539051997273995
% es.Ez (V/m) @ t=0.56
-2.795431322523851
% es.tEx (V/m) @ t=0.56
-0.8754283077107132
% es.tEy (V/m) @ t=0.56
0
% es.tEz (V/m) @ t=0.56
-2.795431322523859
% V (V) @ t=0.56
0.014750191858670611
% es.normE (V/m) @ t=0.58
2.962454365933091
% es.EX (V/m) @ t=0.58
-0.8837594325072586
% es.EY (V/m) @ t=0.58
0.0660128102754977
% es.EZ (V/m) @ t=0.58
-2.8220344256914967
% es.tEX (V/m) @ t=0.58
-0.8837594325072686
% es.tEY (V/m) @ t=0.58
0
% es.tEZ (V/m) @ t=0.58
-2.822034425691509
% es.Ex (V/m) @ t=0.58
-0.8837594325072586
% es.Ey (V/m) @ t=0.58
0.0660128102754977
% es.Ez (V/m) @ t=0.58
-2.8220344256914967
% es.tEx (V/m) @ t=0.58
-0.8837594325072686
% es.tEy (V/m) @ t=0.58
0
% es.tEz (V/m) @ t=0.58
-2.822034425691509
% V (V) @ t=0.58
0.01489056451886673
% es.normE (V/m) @ t=0.6
2.990381194392141
% es.EX (V/m) @ t=0.6
-0.8920905573038145
% es.EY (V/m) @ t=0.6
0.06663510057824668
% es.EZ (V/m) @ t=0.6
-2.8486375288591015
% es.tEX (V/m) @ t=0.6
-0.892090557303824
% es.tEY (V/m) @ t=0.6
0
% es.tEZ (V/m) @ t=0.6
-2.848637528859145
% es.Ex (V/m) @ t=0.6
-0.8920905573038145
% es.Ey (V/m) @ t=0.6
0.06663510057824668
% es.Ez (V/m) @ t=0.6
-2.8486375288591015
% es.tEx (V/m) @ t=0.6
-0.892090557303824
% es.tEy (V/m) @ t=0.6
0
% es.tEz (V/m) @ t=0.6
-2.848637528859145
% V (V) @ t=0.6
0.01503093717906285
% es.normE (V/m) @ t=0.62
3.0183080228512282
% es.EX (V/m) @ t=0.62
-0.9004216821003597
% es.EY (V/m) @ t=0.62
0.06725739088099346
% es.EZ (V/m) @ t=0.62
-2.875240632026749
% es.tEX (V/m) @ t=0.62
-0.9004216821003652
% es.tEY (V/m) @ t=0.62
0
% es.tEZ (V/m) @ t=0.62
-2.875240632026795
% es.Ex (V/m) @ t=0.62
-0.9004216821003597
% es.Ey (V/m) @ t=0.62
0.06725739088099346
% es.Ez (V/m) @ t=0.62
-2.875240632026749
% es.tEx (V/m) @ t=0.62
-0.9004216821003652
% es.tEy (V/m) @ t=0.62
0
% es.tEz (V/m) @ t=0.62
-2.875240632026795
% V (V) @ t=0.62
0.01517130983925897
% es.normE (V/m) @ t=0.64
3.0462348513103175
% es.EX (V/m) @ t=0.64
-0.908752806896914
% es.EY (V/m) @ t=0.64
0.06787968118374586
% es.EZ (V/m) @ t=0.64
-2.9018437351943946
% es.tEX (V/m) @ t=0.64
-0.9087528068969206
% es.tEY (V/m) @ t=0.64
0
% es.tEZ (V/m) @ t=0.64
-2.901843735194415
% es.Ex (V/m) @ t=0.64
-0.908752806896914
% es.Ey (V/m) @ t=0.64
0.06787968118374586
% es.Ez (V/m) @ t=0.64
-2.9018437351943946
% es.tEx (V/m) @ t=0.64
-0.9087528068969206
% es.tEy (V/m) @ t=0.64
0
% es.tEz (V/m) @ t=0.64
-2.901843735194415
% V (V) @ t=0.64
0.015311682499455088
% es.normE (V/m) @ t=0.66
3.0741616797694054
% es.EX (V/m) @ t=0.66
-0.9170839316934645
% es.EY (V/m) @ t=0.66
0.06850197148650855
% es.EZ (V/m) @ t=0.66
-2.9284468383620412
% es.tEX (V/m) @ t=0.66
-0.917083931693476
% es.tEY (V/m) @ t=0.66
0
% es.tEZ (V/m) @ t=0.66
-2.928446838362065
% es.Ex (V/m) @ t=0.66
-0.9170839316934645
% es.Ey (V/m) @ t=0.66
0.06850197148650855
% es.Ez (V/m) @ t=0.66
-2.9284468383620412
% es.tEx (V/m) @ t=0.66
-0.917083931693476
% es.tEy (V/m) @ t=0.66
0
% es.tEz (V/m) @ t=0.66
-2.928446838362065
% V (V) @ t=0.66
0.01545205515965121
% es.normE (V/m) @ t=0.68
3.102088508228453
% es.EX (V/m) @ t=0.68
-0.9254150564900152
% es.EY (V/m) @ t=0.68
0.06912426178925747
% es.EZ (V/m) @ t=0.68
-2.955049941529645
% es.tEX (V/m) @ t=0.68
-0.9254150564900243
% es.tEY (V/m) @ t=0.68
0
% es.tEZ (V/m) @ t=0.68
-2.9550499415296727
% es.Ex (V/m) @ t=0.68
-0.9254150564900152
% es.Ey (V/m) @ t=0.68
0.06912426178925747
% es.Ez (V/m) @ t=0.68
-2.955049941529645
% es.tEx (V/m) @ t=0.68
-0.9254150564900243
% es.tEy (V/m) @ t=0.68
0
% es.tEz (V/m) @ t=0.68
-2.9550499415296727
% V (V) @ t=0.68
0.01559242781984733
% es.normE (V/m) @ t=0.7
3.1300153366875714
% es.EX (V/m) @ t=0.7
-0.9337461812865709
% es.EY (V/m) @ t=0.7
0.06974655209201668
% es.EZ (V/m) @ t=0.7
-2.981653044697321
% es.tEX (V/m) @ t=0.7
-0.9337461812865726
% es.tEY (V/m) @ t=0.7
0
% es.tEZ (V/m) @ t=0.7
-2.981653044697337
% es.Ex (V/m) @ t=0.7
-0.9337461812865709
% es.Ey (V/m) @ t=0.7
0.06974655209201668
% es.Ez (V/m) @ t=0.7
-2.981653044697321
% es.tEx (V/m) @ t=0.7
-0.9337461812865726
% es.tEy (V/m) @ t=0.7
0
% es.tEz (V/m) @ t=0.7
-2.981653044697337
% V (V) @ t=0.7
0.01573280048004345
% es.normE (V/m) @ t=0.72
3.1579421651466335
% es.EX (V/m) @ t=0.72
-0.9420773060831269
% es.EY (V/m) @ t=0.72
0.07036884239473673
% es.EZ (V/m) @ t=0.72
-3.0082561478649383
% es.tEX (V/m) @ t=0.72
-0.9420773060831351
% es.tEY (V/m) @ t=0.72
0
% es.tEZ (V/m) @ t=0.72
-3.008256147864973
% es.Ex (V/m) @ t=0.72
-0.9420773060831269
% es.Ey (V/m) @ t=0.72
0.07036884239473673
% es.Ez (V/m) @ t=0.72
-3.0082561478649383
% es.tEx (V/m) @ t=0.72
-0.9420773060831351
% es.tEy (V/m) @ t=0.72
0
% es.tEz (V/m) @ t=0.72
-3.008256147864973
% V (V) @ t=0.72
0.015873173140239567
% es.normE (V/m) @ t=0.74
3.1858689936057094
% es.EX (V/m) @ t=0.74
-0.950408430879681
% es.EY (V/m) @ t=0.74
0.07099113269750704
% es.EZ (V/m) @ t=0.74
-3.0348592510325716
% es.tEX (V/m) @ t=0.74
-0.9504084308796976
% es.tEY (V/m) @ t=0.74
0
% es.tEZ (V/m) @ t=0.74
-3.034859251032609
% es.Ex (V/m) @ t=0.74
-0.950408430879681
% es.Ey (V/m) @ t=0.74
0.07099113269750704
% es.Ez (V/m) @ t=0.74
-3.0348592510325716
% es.tEx (V/m) @ t=0.74
-0.9504084308796976
% es.tEy (V/m) @ t=0.74
0
% es.tEz (V/m) @ t=0.74
-3.034859251032609
% V (V) @ t=0.74
0.01601354580043569
% es.normE (V/m) @ t=0.76
3.2137958220648275
% es.EX (V/m) @ t=0.76
-0.9587395556762404
% es.EY (V/m) @ t=0.76
0.07161342300024835
% es.EZ (V/m) @ t=0.76
-3.0614623542002466
% es.tEX (V/m) @ t=0.76
-0.958739555676253
% es.tEY (V/m) @ t=0.76
0
% es.tEZ (V/m) @ t=0.76
-3.061462354200259
% es.Ex (V/m) @ t=0.76
-0.9587395556762404
% es.Ey (V/m) @ t=0.76
0.07161342300024835
% es.Ez (V/m) @ t=0.76
-3.0614623542002466
% es.tEx (V/m) @ t=0.76
-0.958739555676253
% es.tEy (V/m) @ t=0.76
0
% es.tEz (V/m) @ t=0.76
-3.061462354200259
% V (V) @ t=0.76
0.01615391846063181
% es.normE (V/m) @ t=0.78
3.2433395833596874
% es.EX (V/m) @ t=0.78
-0.967553050716571
% es.EY (V/m) @ t=0.78
0.07227175067452364
% es.EZ (V/m) @ t=0.78
-3.089605745274029
% es.tEX (V/m) @ t=0.78
-0.9675530507165746
% es.tEY (V/m) @ t=0.78
0
% es.tEZ (V/m) @ t=0.78
-3.0896057452740653
% es.Ex (V/m) @ t=0.78
-0.967553050716571
% es.Ey (V/m) @ t=0.78
0.07227175067452364
% es.Ez (V/m) @ t=0.78
-3.089605745274029
% es.tEx (V/m) @ t=0.78
-0.9675530507165746
% es.tEy (V/m) @ t=0.78
0
% es.tEz (V/m) @ t=0.78
-3.0896057452740653
% V (V) @ t=0.78
0.01630241807976351
% es.normE (V/m) @ t=0.8
3.2743417436944577
% es.EX (V/m) @ t=0.8
-0.9768016215280322
% es.EY (V/m) @ t=0.8
0.07296258240020194
% es.EZ (V/m) @ t=0.8
-3.1191384051868187
% es.tEX (V/m) @ t=0.8
-0.9768016215280468
% es.tEY (V/m) @ t=0.8
0
% es.tEZ (V/m) @ t=0.8
-3.1191384051868596
% es.Ex (V/m) @ t=0.8
-0.9768016215280322
% es.Ey (V/m) @ t=0.8
0.07296258240020194
% es.Ez (V/m) @ t=0.8
-3.1191384051868187
% es.tEx (V/m) @ t=0.8
-0.9768016215280468
% es.tEy (V/m) @ t=0.8
0
% es.tEz (V/m) @ t=0.8
-3.1191384051868596
% V (V) @ t=0.8
0.01645824784201938
% es.normE (V/m) @ t=0.82
3.305343904029182
% es.EX (V/m) @ t=0.82
-0.9860501923394778
% es.EY (V/m) @ t=0.82
0.07365341412588017
% es.EZ (V/m) @ t=0.82
-3.148671065099564
% es.tEX (V/m) @ t=0.82
-0.9860501923394764
% es.tEY (V/m) @ t=0.82
0
% es.tEZ (V/m) @ t=0.82
-3.148671065099613
% es.Ex (V/m) @ t=0.82
-0.9860501923394778
% es.Ey (V/m) @ t=0.82
0.07365341412588017
% es.Ez (V/m) @ t=0.82
-3.148671065099564
% es.tEx (V/m) @ t=0.82
-0.9860501923394764
% es.tEy (V/m) @ t=0.82
0
% es.tEz (V/m) @ t=0.82
-3.148671065099613
% V (V) @ t=0.82
0.01661407760427525
% es.normE (V/m) @ t=0.84
3.3363460643639486
% es.EX (V/m) @ t=0.84
-0.9952987631509266
% es.EY (V/m) @ t=0.84
0.07434424585154072
% es.EZ (V/m) @ t=0.84
-3.178203725012354
% es.tEX (V/m) @ t=0.84
-0.9952987631509274
% es.tEY (V/m) @ t=0.84
0
% es.tEZ (V/m) @ t=0.84
-3.178203725012393
% es.Ex (V/m) @ t=0.84
-0.9952987631509266
% es.Ey (V/m) @ t=0.84
0.07434424585154072
% es.Ez (V/m) @ t=0.84
-3.178203725012354
% es.tEx (V/m) @ t=0.84
-0.9952987631509274
% es.tEy (V/m) @ t=0.84
0
% es.tEz (V/m) @ t=0.84
-3.178203725012393
% V (V) @ t=0.84
0.01676990736653112
% es.normE (V/m) @ t=0.86
3.3673482246987003
% es.EX (V/m) @ t=0.86
-1.0045473339623718
% es.EY (V/m) @ t=0.86
0.07503507757723678
% es.EZ (V/m) @ t=0.86
-3.2077363849251297
% es.tEX (V/m) @ t=0.86
-1.0045473339623854
% es.tEY (V/m) @ t=0.86
0
% es.tEZ (V/m) @ t=0.86
-3.207736384925159
% es.Ex (V/m) @ t=0.86
-1.0045473339623718
% es.Ey (V/m) @ t=0.86
0.07503507757723678
% es.Ez (V/m) @ t=0.86
-3.2077363849251297
% es.tEx (V/m) @ t=0.86
-1.0045473339623854
% es.tEy (V/m) @ t=0.86
0
% es.tEz (V/m) @ t=0.86
-3.207736384925159
% V (V) @ t=0.86
0.01692573712878698
% es.normE (V/m) @ t=0.88
3.3983503850334706
% es.EX (V/m) @ t=0.88
-1.0137959047738276
% es.EY (V/m) @ t=0.88
0.07572590930290042
% es.EZ (V/m) @ t=0.88
-3.2372690448379196
% es.tEX (V/m) @ t=0.88
-1.0137959047738363
% es.tEY (V/m) @ t=0.88
0
% es.tEZ (V/m) @ t=0.88
-3.237269044837941
% es.Ex (V/m) @ t=0.88
-1.0137959047738276
% es.Ey (V/m) @ t=0.88
0.07572590930290042
% es.Ez (V/m) @ t=0.88
-3.2372690448379196
% es.tEx (V/m) @ t=0.88
-1.0137959047738363
% es.tEy (V/m) @ t=0.88
0
% es.tEz (V/m) @ t=0.88
-3.237269044837941
% V (V) @ t=0.88
0.01708156689104285
% es.normE (V/m) @ t=0.9
3.4293525453681806
% es.EX (V/m) @ t=0.9
-1.0230444755852643
% es.EY (V/m) @ t=0.9
0.07641674102856849
% es.EZ (V/m) @ t=0.9
-3.2668017047506517
% es.tEX (V/m) @ t=0.9
-1.023044475585266
% es.tEY (V/m) @ t=0.9
0
% es.tEZ (V/m) @ t=0.9
-3.2668017047506925
% es.Ex (V/m) @ t=0.9
-1.0230444755852643
% es.Ey (V/m) @ t=0.9
0.07641674102856849
% es.Ez (V/m) @ t=0.9
-3.2668017047506517
% es.tEx (V/m) @ t=0.9
-1.023044475585266
% es.tEy (V/m) @ t=0.9
0
% es.tEz (V/m) @ t=0.9
-3.2668017047506925
% V (V) @ t=0.9
0.01723739665329872
% es.normE (V/m) @ t=0.92
3.46035470570295
% es.EX (V/m) @ t=0.92
-1.0322930463967237
% es.EY (V/m) @ t=0.92
0.07710757275426057
% es.EZ (V/m) @ t=0.92
-3.2963343646634415
% es.tEX (V/m) @ t=0.92
-1.032293046396731
% es.tEY (V/m) @ t=0.92
0
% es.tEZ (V/m) @ t=0.92
-3.2963343646634744
% es.Ex (V/m) @ t=0.92
-1.0322930463967237
% es.Ey (V/m) @ t=0.92
0.07710757275426057
% es.Ez (V/m) @ t=0.92
-3.2963343646634415
% es.tEx (V/m) @ t=0.92
-1.032293046396731
% es.tEy (V/m) @ t=0.92
0
% es.tEz (V/m) @ t=0.92
-3.2963343646634744
% V (V) @ t=0.92
0.01739322641555458
% es.normE (V/m) @ t=0.94
3.4913568660376924
% es.EX (V/m) @ t=0.94
-1.0415416172081744
% es.EY (V/m) @ t=0.94
0.07779840447992865
% es.EZ (V/m) @ t=0.94
-3.325867024576203
% es.tEX (V/m) @ t=0.94
-1.041541617208182
% es.tEY (V/m) @ t=0.94
0
% es.tEZ (V/m) @ t=0.94
-3.325867024576228
% es.Ex (V/m) @ t=0.94
-1.0415416172081744
% es.Ey (V/m) @ t=0.94
0.07779840447992865
% es.Ez (V/m) @ t=0.94
-3.325867024576203
% es.tEx (V/m) @ t=0.94
-1.041541617208182
% es.tEy (V/m) @ t=0.94
0
% es.tEz (V/m) @ t=0.94
-3.325867024576228
% V (V) @ t=0.94
0.01754905617781045
% es.normE (V/m) @ t=0.96
3.5223590263724702
% es.EX (V/m) @ t=0.96
-1.050790188019616
% es.EY (V/m) @ t=0.96
0.07848923620560652
% es.EZ (V/m) @ t=0.96
-3.355399684489007
% es.tEX (V/m) @ t=0.96
-1.0507901880196258
% es.tEY (V/m) @ t=0.96
0
% es.tEZ (V/m) @ t=0.96
-3.3553996844890346
% es.Ex (V/m) @ t=0.96
-1.050790188019616
% es.Ey (V/m) @ t=0.96
0.07848923620560652
% es.Ez (V/m) @ t=0.96
-3.355399684489007
% es.tEx (V/m) @ t=0.96
-1.0507901880196258
% es.tEy (V/m) @ t=0.96
0
% es.tEz (V/m) @ t=0.96
-3.3553996844890346
% V (V) @ t=0.96
0.017704885940066317
% es.normE (V/m) @ t=0.98
3.5533611867072112
% es.EX (V/m) @ t=0.98
-1.0600387588310705
% es.EY (V/m) @ t=0.98
0.07918006793128873
% es.EZ (V/m) @ t=0.98
-3.3849323444017676
% es.tEX (V/m) @ t=0.98
-1.0600387588310767
% es.tEY (V/m) @ t=0.98
0
% es.tEZ (V/m) @ t=0.98
-3.3849323444018022
% es.Ex (V/m) @ t=0.98
-1.0600387588310705
% es.Ey (V/m) @ t=0.98
0.07918006793128873
% es.Ez (V/m) @ t=0.98
-3.3849323444017676
% es.tEx (V/m) @ t=0.98
-1.0600387588310767
% es.tEy (V/m) @ t=0.98
0
% es.tEz (V/m) @ t=0.98
-3.3849323444018022
% V (V) @ t=0.98
0.017860715702322182
% es.normE (V/m) @ t=1
3.5843633470419505
% es.EX (V/m) @ t=1
-1.0692873296425085
% es.EY (V/m) @ t=1
0.07987089965697369
% es.EZ (V/m) @ t=1
-3.414465004314529
% es.tEX (V/m) @ t=1
-1.0692873296425134
% es.tEY (V/m) @ t=1
0
% es.tEZ (V/m) @ t=1
-3.41446500431457
% es.Ex (V/m) @ t=1
-1.0692873296425085
% es.Ey (V/m) @ t=1
0.07987089965697369
% es.Ez (V/m) @ t=1
-3.414465004314529
% es.tEx (V/m) @ t=1
-1.0692873296425134
% es.tEy (V/m) @ t=1
0
% es.tEz (V/m) @ t=1
-3.41446500431457
% V (V) @ t=1
0.018016545464578055
% es.normE (V/m) @ t=1.02
3.615365507376721
% es.EX (V/m) @ t=1.02
-1.0785359004539732
% es.EY (V/m) @ t=1.02
0.08056173138263076
% es.EZ (V/m) @ t=1.02
-3.443997664227319
% es.tEX (V/m) @ t=1.02
-1.0785359004539785
% es.tEY (V/m) @ t=1.02
0
% es.tEZ (V/m) @ t=1.02
-3.4439976642273358
% es.Ex (V/m) @ t=1.02
-1.0785359004539732
% es.Ey (V/m) @ t=1.02
0.08056173138263076
% es.Ez (V/m) @ t=1.02
-3.443997664227319
% es.tEx (V/m) @ t=1.02
-1.0785359004539785
% es.tEy (V/m) @ t=1.02
0
% es.tEz (V/m) @ t=1.02
-3.4439976642273358
% V (V) @ t=1.02
0.018172375226833917
% es.normE (V/m) @ t=1.04
3.6474188611822917
% es.EX (V/m) @ t=1.04
-1.088098070650254