% Model:              1 neuron.mph
% Version:            COMSOL 6.1.0.252
% Date:               Mar 22 2023, 19:15
% Dimension:          0
% Nodes:              14017
% Expressions:        14017
% Description:        Electric field norm, Electric field, X component, Electric field, Y component, Electric field, Z component, Tangential electric field, X component, Tangential electric field, Y component, Tangential electric field, Z component, Electric field, x component, Electric field, y component, Electric field, z component, Tangential electric field, x component, Tangential electric field, y component, Tangential electric field, z component, Electric potential
% Length unit:        mm
% x
1.66
% y
12.200000000000001
% z
1.66
% es.normE (V/m) @ t=0
37.504646986883266
% es.EX (V/m) @ t=0
-17.711853905007374
% es.EY (V/m) @ t=0
14.210388706535419
% es.EZ (V/m) @ t=0
17.034770812866583
% es.tEX (V/m) @ t=0
-17.71185390500736
% es.tEY (V/m) @ t=0
0
% es.tEZ (V/m) @ t=0
17.034770812866554
% es.Ex (V/m) @ t=0
-17.711853905007374
% es.Ey (V/m) @ t=0
14.210388706535419
% es.Ez (V/m) @ t=0
17.034770812866583
% es.tEx (V/m) @ t=0
-17.71185390500736
% es.tEy (V/m) @ t=0
0
% es.tEz (V/m) @ t=0
17.034770812866554
% V (V) @ t=0
0.011770671260849281
% es.normE (V/m) @ t=0.02
32.393077984479625
% es.EX (V/m) @ t=0.02
-15.297876685232751
% es.EY (V/m) @ t=0.02
12.273631843632288
% es.EZ (V/m) @ t=0.02
14.71307434702095
% es.tEX (V/m) @ t=0.02
-15.297876685232765
% es.tEY (V/m) @ t=0.02
0
% es.tEZ (V/m) @ t=0.02
14.713074347020978
% es.Ex (V/m) @ t=0.02
-15.297876685232751
% es.Ey (V/m) @ t=0.02
12.273631843632288
% es.Ez (V/m) @ t=0.02
14.71307434702095
% es.tEx (V/m) @ t=0.02
-15.297876685232765
% es.tEy (V/m) @ t=0.02
0
% es.tEz (V/m) @ t=0.02
14.713074347020978
% V (V) @ t=0.02
0.010166427435827687
% es.normE (V/m) @ t=0.04
32.69100174509063
% es.EX (V/m) @ t=0.04
-15.438573414029847
% es.EY (V/m) @ t=0.04
12.386514179862253
% es.EZ (V/m) @ t=0.04
14.848392624960784
% es.tEX (V/m) @ t=0.04
-15.438573414029861
% es.tEY (V/m) @ t=0.04
0
% es.tEZ (V/m) @ t=0.04
14.848392624960809
% es.Ex (V/m) @ t=0.04
-15.438573414029847
% es.Ey (V/m) @ t=0.04
12.386514179862253
% es.Ez (V/m) @ t=0.04
14.848392624960784
% es.tEx (V/m) @ t=0.04
-15.438573414029861
% es.tEy (V/m) @ t=0.04
0
% es.tEz (V/m) @ t=0.04
14.848392624960809
% V (V) @ t=0.04
0.01025992952601179
% es.normE (V/m) @ t=0.06
32.9910844579261
% es.EX (V/m) @ t=0.06
-15.580289688664479
% es.EY (V/m) @ t=0.06
12.50021452609866
% es.EZ (V/m) @ t=0.06
14.984691554038719
% es.tEX (V/m) @ t=0.06
-15.580289688664493
% es.tEY (V/m) @ t=0.06
0
% es.tEZ (V/m) @ t=0.06
14.984691554038733
% es.Ex (V/m) @ t=0.06
-15.580289688664479
% es.Ey (V/m) @ t=0.06
12.50021452609866
% es.Ez (V/m) @ t=0.06
14.984691554038719
% es.tEx (V/m) @ t=0.06
-15.580289688664493
% es.tEy (V/m) @ t=0.06
0
% es.tEz (V/m) @ t=0.06
14.984691554038733
% V (V) @ t=0.06
0.010354109202706028
% es.normE (V/m) @ t=0.08
33.29694563693702
% es.EX (V/m) @ t=0.08
-15.724734968335568
% es.EY (V/m) @ t=0.08
12.61610433681939
% es.EZ (V/m) @ t=0.08
15.123614983383597
% es.tEX (V/m) @ t=0.08
-15.724734968335532
% es.tEY (V/m) @ t=0.08
0
% es.tEZ (V/m) @ t=0.08
15.12361498338359
% es.Ex (V/m) @ t=0.08
-15.724734968335568
% es.Ey (V/m) @ t=0.08
12.61610433681939
% es.Ez (V/m) @ t=0.08
15.123614983383597
% es.tEx (V/m) @ t=0.08
-15.724734968335532
% es.tEy (V/m) @ t=0.08
0
% es.tEz (V/m) @ t=0.08
15.12361498338359
% V (V) @ t=0.08
0.01045010240640658
% es.normE (V/m) @ t=0.1
33.604325056492215
% es.EX (V/m) @ t=0.1
-15.869897269784786
% es.EY (V/m) @ t=0.1
12.732569409841552
% es.EZ (V/m) @ t=0.1
15.263227976808686
% es.tEX (V/m) @ t=0.1
-15.8698972697848
% es.tEY (V/m) @ t=0.1
0
% es.tEZ (V/m) @ t=0.1
15.263227976808679
% es.Ex (V/m) @ t=0.1
-15.869897269784786
% es.Ey (V/m) @ t=0.1
12.732569409841552
% es.Ez (V/m) @ t=0.1
15.263227976808686
% es.tEx (V/m) @ t=0.1
-15.8698972697848
% es.tEy (V/m) @ t=0.1
0
% es.tEz (V/m) @ t=0.1
15.263227976808679
% V (V) @ t=0.1
0.010546572098183006
% es.normE (V/m) @ t=0.12
33.91170447604745
% es.EX (V/m) @ t=0.12
-16.01505957123402
% es.EY (V/m) @ t=0.12
12.849034482863757
% es.EZ (V/m) @ t=0.12
15.402840970233768
% es.tEX (V/m) @ t=0.12
-16.015059571234033
% es.tEY (V/m) @ t=0.12
0
% es.tEZ (V/m) @ t=0.12
15.402840970233797
% es.Ex (V/m) @ t=0.12
-16.01505957123402
% es.Ey (V/m) @ t=0.12
12.849034482863757
% es.Ez (V/m) @ t=0.12
15.402840970233768
% es.tEx (V/m) @ t=0.12
-16.015059571234033
% es.tEy (V/m) @ t=0.12
0
% es.tEz (V/m) @ t=0.12
15.402840970233797
% V (V) @ t=0.12
0.010643041789959434
% es.normE (V/m) @ t=0.14
34.22816030585891
% es.EX (V/m) @ t=0.14
-16.164508742762493
% es.EY (V/m) @ t=0.14
12.96893870821767
% es.EZ (V/m) @ t=0.14
15.546575906353837
% es.tEX (V/m) @ t=0.14
-16.16450874276252
% es.tEY (V/m) @ t=0.14
0
% es.tEZ (V/m) @ t=0.14
15.546575906353837
% es.Ex (V/m) @ t=0.14
-16.164508742762493
% es.Ey (V/m) @ t=0.14
12.96893870821767
% es.Ez (V/m) @ t=0.14
15.546575906353837
% es.tEx (V/m) @ t=0.14
-16.16450874276252
% es.tEy (V/m) @ t=0.14
0
% es.tEz (V/m) @ t=0.14
15.546575906353837
% V (V) @ t=0.14
0.010742359960209327
% es.normE (V/m) @ t=0.16
34.550920616987696
% es.EX (V/m) @ t=0.16
-16.316935577437633
% es.EY (V/m) @ t=0.16
13.091231771340105
% es.EZ (V/m) @ t=0.16
15.693173946936696
% es.tEX (V/m) @ t=0.16
-16.316935577437647
% es.tEY (V/m) @ t=0.16
0
% es.tEZ (V/m) @ t=0.16
15.693173946936696
% es.Ex (V/m) @ t=0.16
-16.316935577437633
% es.Ey (V/m) @ t=0.16
13.091231771340105
% es.Ez (V/m) @ t=0.16
15.693173946936696
% es.tEx (V/m) @ t=0.16
-16.316935577437647
% es.tEy (V/m) @ t=0.16
0
% es.tEz (V/m) @ t=0.16
15.693173946936696
% V (V) @ t=0.16
0.010843656685726275
% es.normE (V/m) @ t=0.18
34.873680928116514
% es.EX (V/m) @ t=0.18
-16.469362412112773
% es.EY (V/m) @ t=0.18
13.213524834462518
% es.EZ (V/m) @ t=0.18
15.83977198751954
% es.tEX (V/m) @ t=0.18
-16.469362412112766
% es.tEY (V/m) @ t=0.18
0
% es.tEZ (V/m) @ t=0.18
15.839771987519498
% es.Ex (V/m) @ t=0.18
-16.469362412112773
% es.Ey (V/m) @ t=0.18
13.213524834462518
% es.Ez (V/m) @ t=0.18
15.83977198751954
% es.tEx (V/m) @ t=0.18
-16.469362412112766
% es.tEy (V/m) @ t=0.18
0
% es.tEz (V/m) @ t=0.18
15.839771987519498
% V (V) @ t=0.18
0.010944953411243226
% es.normE (V/m) @ t=0.2
35.19644123924539
% es.EX (V/m) @ t=0.2
-16.62178924678787
% es.EY (V/m) @ t=0.2
13.335817897585024
% es.EZ (V/m) @ t=0.2
15.986370028102392
% es.tEX (V/m) @ t=0.2
-16.62178924678787
% es.tEY (V/m) @ t=0.2
0
% es.tEZ (V/m) @ t=0.2
15.986370028102385
% es.Ex (V/m) @ t=0.2
-16.62178924678787
% es.Ey (V/m) @ t=0.2
13.335817897585024
% es.Ez (V/m) @ t=0.2
15.986370028102392
% es.tEx (V/m) @ t=0.2
-16.62178924678787
% es.tEy (V/m) @ t=0.2
0
% es.tEz (V/m) @ t=0.2
15.986370028102385
% V (V) @ t=0.2
0.011046250136760177
% es.normE (V/m) @ t=0.22
35.519201550374255
% es.EX (V/m) @ t=0.22
-16.77421608146294
% es.EY (V/m) @ t=0.22
13.458110960707408
% es.EZ (V/m) @ t=0.22
16.13296806868521
% es.tEX (V/m) @ t=0.22
-16.774216081462946
% es.tEY (V/m) @ t=0.22
0
% es.tEZ (V/m) @ t=0.22
16.13296806868516
% es.Ex (V/m) @ t=0.22
-16.77421608146294
% es.Ey (V/m) @ t=0.22
13.458110960707408
% es.Ez (V/m) @ t=0.22
16.13296806868521
% es.tEx (V/m) @ t=0.22
-16.774216081462946
% es.tEy (V/m) @ t=0.22
0
% es.tEz (V/m) @ t=0.22
16.13296806868516
% V (V) @ t=0.22
0.011147546862277124
% es.normE (V/m) @ t=0.24
35.84196186150325
% es.EX (V/m) @ t=0.24
-16.92664291613808
% es.EY (V/m) @ t=0.24
13.580404023829857
% es.EZ (V/m) @ t=0.24
16.279566109268053
% es.tEX (V/m) @ t=0.24
-16.926642916138093
% es.tEY (V/m) @ t=0.24
0
% es.tEZ (V/m) @ t=0.24
16.279566109268046
% es.Ex (V/m) @ t=0.24
-16.92664291613808
% es.Ey (V/m) @ t=0.24
13.580404023829857
% es.Ez (V/m) @ t=0.24
16.279566109268053
% es.tEx (V/m) @ t=0.24
-16.926642916138093
% es.tEy (V/m) @ t=0.24
0
% es.tEz (V/m) @ t=0.24
16.279566109268046
% V (V) @ t=0.24
0.011248843587794074
% es.normE (V/m) @ t=0.26
36.171147935707495
% es.EX (V/m) @ t=0.26
-17.08210202984894
% es.EY (V/m) @ t=0.26
13.705131137709877
% es.EZ (V/m) @ t=0.26
16.429085776914654
% es.tEX (V/m) @ t=0.26
-17.08210202984889
% es.tEY (V/m) @ t=0.26
0
% es.tEZ (V/m) @ t=0.26
16.429085776914633
% es.Ex (V/m) @ t=0.26
-17.08210202984894
% es.Ey (V/m) @ t=0.26
13.705131137709877
% es.Ez (V/m) @ t=0.26
16.429085776914654
% es.tEx (V/m) @ t=0.26
-17.08210202984889
% es.tEy (V/m) @ t=0.26
0
% es.tEz (V/m) @ t=0.26
16.429085776914633
% V (V) @ t=0.26
0.011352157580239237
% es.normE (V/m) @ t=0.28
36.528367811672496
% es.EX (V/m) @ t=0.28
-17.250790126383336
% es.EY (V/m) @ t=0.28
13.840477332249947
% es.EZ (V/m) @ t=0.28
16.591351683871146
% es.tEX (V/m) @ t=0.28
-17.250790126383315
% es.tEY (V/m) @ t=0.28
0
% es.tEZ (V/m) @ t=0.28
16.591351683871096
% es.Ex (V/m) @ t=0.28
-17.250790126383336
% es.Ey (V/m) @ t=0.28
13.840477332249947
% es.Ez (V/m) @ t=0.28
16.591351683871146
% es.tEx (V/m) @ t=0.28
-17.250790126383315
% es.tEy (V/m) @ t=0.28
0
% es.tEz (V/m) @ t=0.28
16.591351683871096
% V (V) @ t=0.28
0.011464272342412162
% es.normE (V/m) @ t=0.3
36.885587687648126
% es.EX (V/m) @ t=0.3
-17.419478222917704
% es.EY (V/m) @ t=0.3
13.975823526790023
% es.EZ (V/m) @ t=0.3
16.75361759082758
% es.tEX (V/m) @ t=0.3
-17.41947822291774
% es.tEY (V/m) @ t=0.3
0
% es.tEZ (V/m) @ t=0.3
16.75361759082756
% es.Ex (V/m) @ t=0.3
-17.419478222917704
% es.Ey (V/m) @ t=0.3
13.975823526790023
% es.Ez (V/m) @ t=0.3
16.75361759082758
% es.tEx (V/m) @ t=0.3
-17.41947822291774
% es.tEy (V/m) @ t=0.3
0
% es.tEz (V/m) @ t=0.3
16.75361759082756
% V (V) @ t=0.3
0.011576387104585088
% es.normE (V/m) @ t=0.32
37.242807563634194
% es.EX (V/m) @ t=0.32
-17.5881663194521
% es.EY (V/m) @ t=0.32
14.111169721330143
% es.EZ (V/m) @ t=0.32
16.915883497784073
% es.tEX (V/m) @ t=0.32
-17.58816631945208
% es.tEY (V/m) @ t=0.32
0
% es.tEZ (V/m) @ t=0.32
16.91588349778408
% es.Ex (V/m) @ t=0.32
-17.5881663194521
% es.Ey (V/m) @ t=0.32
14.111169721330143
% es.Ez (V/m) @ t=0.32
16.915883497784073
% es.tEx (V/m) @ t=0.32
-17.58816631945208
% es.tEy (V/m) @ t=0.32
0
% es.tEz (V/m) @ t=0.32
16.91588349778408
% V (V) @ t=0.32
0.011688501866758011
% es.normE (V/m) @ t=0.34
37.600027439630324
% es.EX (V/m) @ t=0.34
-17.756854415986552
% es.EY (V/m) @ t=0.34
14.246515915870148
% es.EZ (V/m) @ t=0.34
17.078149404740564
% es.tEX (V/m) @ t=0.34
-17.75685441598653
% es.tEY (V/m) @ t=0.34
0
% es.tEZ (V/m) @ t=0.34
17.078149404740543
% es.Ex (V/m) @ t=0.34
-17.756854415986552
% es.Ey (V/m) @ t=0.34
14.246515915870148
% es.Ez (V/m) @ t=0.34
17.078149404740564
% es.tEx (V/m) @ t=0.34
-17.75685441598653
% es.tEy (V/m) @ t=0.34
0
% es.tEz (V/m) @ t=0.34
17.078149404740543
% V (V) @ t=0.34
0.011800616628930937
% es.normE (V/m) @ t=0.36
37.957247315636295
% es.EX (V/m) @ t=0.36
-17.925542512520934
% es.EY (V/m) @ t=0.36
14.381862110410282
% es.EZ (V/m) @ t=0.36
17.240415311697014
% es.tEX (V/m) @ t=0.36
-17.925542512520913
% es.tEY (V/m) @ t=0.36
0
% es.tEZ (V/m) @ t=0.36
17.240415311697006
% es.Ex (V/m) @ t=0.36
-17.925542512520934
% es.Ey (V/m) @ t=0.36
14.381862110410282
% es.Ez (V/m) @ t=0.36
17.240415311697014
% es.tEx (V/m) @ t=0.36
-17.925542512520913
% es.tEy (V/m) @ t=0.36
0
% es.tEz (V/m) @ t=0.36
17.240415311697006
% V (V) @ t=0.36
0.011912731391103859
% es.normE (V/m) @ t=0.38
38.31446719165175
% es.EX (V/m) @ t=0.38
-18.094230609055316
% es.EY (V/m) @ t=0.38
14.51720830495038
% es.EZ (V/m) @ t=0.38
17.402681218653534
% es.tEX (V/m) @ t=0.38
-18.09423060905533
% es.tEY (V/m) @ t=0.38
0
% es.tEZ (V/m) @ t=0.38
17.402681218653527
% es.Ex (V/m) @ t=0.38
-18.094230609055316
% es.Ey (V/m) @ t=0.38
14.51720830495038
% es.Ez (V/m) @ t=0.38
17.402681218653534
% es.tEx (V/m) @ t=0.38
-18.09423060905533
% es.tEy (V/m) @ t=0.38
0
% es.tEz (V/m) @ t=0.38
17.402681218653527
% V (V) @ t=0.38
0.012024846153276786
% es.normE (V/m) @ t=0.4
38.671687067676366
% es.EX (V/m) @ t=0.4
-18.26291870558967
% es.EY (V/m) @ t=0.4
14.652554499490435
% es.EZ (V/m) @ t=0.4
17.564947125609876
% es.tEX (V/m) @ t=0.4
-18.262918705589712
% es.tEY (V/m) @ t=0.4
0
% es.tEZ (V/m) @ t=0.4
17.564947125609876
% es.Ex (V/m) @ t=0.4
-18.26291870558967
% es.Ey (V/m) @ t=0.4
14.652554499490435
% es.Ez (V/m) @ t=0.4
17.564947125609876
% es.tEx (V/m) @ t=0.4
-18.262918705589712
% es.tEy (V/m) @ t=0.4
0
% es.tEz (V/m) @ t=0.4
17.564947125609876
% V (V) @ t=0.4
0.012136960915449708
% es.normE (V/m) @ t=0.42
39.02890694371019
% es.EX (V/m) @ t=0.42
-18.431606802124122
% es.EY (V/m) @ t=0.42
14.787900694030533
% es.EZ (V/m) @ t=0.42
17.72721303256641
% es.tEX (V/m) @ t=0.42
-18.431606802124108
% es.tEY (V/m) @ t=0.42
0
% es.tEZ (V/m) @ t=0.42
17.727213032566397
% es.Ex (V/m) @ t=0.42
-18.431606802124122
% es.Ey (V/m) @ t=0.42
14.787900694030533
% es.Ez (V/m) @ t=0.42
17.72721303256641
% es.tEx (V/m) @ t=0.42
-18.431606802124108
% es.tEy (V/m) @ t=0.42
0
% es.tEz (V/m) @ t=0.42
17.727213032566397
% V (V) @ t=0.42
0.012249075677622633
% es.normE (V/m) @ t=0.44
39.38612681975259
% es.EX (V/m) @ t=0.44
-18.60029489865849
% es.EY (V/m) @ t=0.44
14.923246888570603
% es.EZ (V/m) @ t=0.44
17.88947893952283
% es.tEX (V/m) @ t=0.44
-18.600294898658476
% es.tEY (V/m) @ t=0.44
0
% es.tEZ (V/m) @ t=0.44
17.88947893952286
% es.Ex (V/m) @ t=0.44
-18.60029489865849
% es.Ey (V/m) @ t=0.44
14.923246888570603
% es.Ez (V/m) @ t=0.44
17.88947893952283
% es.tEx (V/m) @ t=0.44
-18.600294898658476
% es.tEy (V/m) @ t=0.44
0
% es.tEz (V/m) @ t=0.44
17.88947893952286
% V (V) @ t=0.44
0.012361190439795557
% es.normE (V/m) @ t=0.46
39.74334669580364
% es.EX (V/m) @ t=0.46
-18.768982995192886
% es.EY (V/m) @ t=0.46
15.058593083110715
% es.EZ (V/m) @ t=0.46
18.051744846479302
% es.tEX (V/m) @ t=0.46
-18.768982995192843
% es.tEY (V/m) @ t=0.46
0
% es.tEZ (V/m) @ t=0.46
18.051744846479323
% es.Ex (V/m) @ t=0.46
-18.768982995192886
% es.Ey (V/m) @ t=0.46
15.058593083110715
% es.Ez (V/m) @ t=0.46
18.051744846479302
% es.tEx (V/m) @ t=0.46
-18.768982995192843
% es.tEy (V/m) @ t=0.46
0
% es.tEz (V/m) @ t=0.46
18.051744846479323
% V (V) @ t=0.46
0.01247330520196848
% es.normE (V/m) @ t=0.48
40.10056657186294
% es.EX (V/m) @ t=0.48
-18.93767109172734
% es.EY (V/m) @ t=0.48
15.193939277650749
% es.EZ (V/m) @ t=0.48
18.21401075343585
% es.tEX (V/m) @ t=0.48
-18.937671091727296
% es.tEY (V/m) @ t=0.48
0
% es.tEZ (V/m) @ t=0.48
18.2140107534359
% es.Ex (V/m) @ t=0.48
-18.93767109172734
% es.Ey (V/m) @ t=0.48
15.193939277650749
% es.Ez (V/m) @ t=0.48
18.21401075343585
% es.tEx (V/m) @ t=0.48
-18.937671091727296
% es.tEy (V/m) @ t=0.48
0
% es.tEz (V/m) @ t=0.48
18.2140107534359
% V (V) @ t=0.48
0.012585419964141404
% es.normE (V/m) @ t=0.5
40.457786447930474
% es.EX (V/m) @ t=0.5
-19.106359188261763
% es.EY (V/m) @ t=0.5
15.329285472190904
% es.EZ (V/m) @ t=0.5
18.376276660392364
% es.tEX (V/m) @ t=0.5
-19.10635918826172
% es.tEY (V/m) @ t=0.5
0
% es.tEZ (V/m) @ t=0.5
18.376276660392307
% es.Ex (V/m) @ t=0.5
-19.106359188261763
% es.Ey (V/m) @ t=0.5
15.329285472190904
% es.Ez (V/m) @ t=0.5
18.376276660392364
% es.tEx (V/m) @ t=0.5
-19.10635918826172
% es.tEy (V/m) @ t=0.5
0
% es.tEz (V/m) @ t=0.5
18.376276660392307
% V (V) @ t=0.5
0.012697534726314331
% es.normE (V/m) @ t=0.52
40.82958786297047
% es.EX (V/m) @ t=0.52
-19.281942276283672
% es.EY (V/m) @ t=0.52
15.470158998062793
% es.EZ (V/m) @ t=0.52
18.545154260737192
% es.tEX (V/m) @ t=0.52
-19.281942276283665
% es.tEY (V/m) @ t=0.52
0
% es.tEZ (V/m) @ t=0.52
18.54515426073715
% es.Ex (V/m) @ t=0.52
-19.281942276283672
% es.Ey (V/m) @ t=0.52
15.470158998062793
% es.Ez (V/m) @ t=0.52
18.545154260737192
% es.tEx (V/m) @ t=0.52
-19.281942276283665
% es.tEy (V/m) @ t=0.52
0
% es.tEz (V/m) @ t=0.52
18.54515426073715
% V (V) @ t=0.52
0.012814223710747847
% es.normE (V/m) @ t=0.54
41.22526130044167
% es.EX (V/m) @ t=0.54
-19.468813431482843
% es.EY (V/m) @ t=0.54
15.620081539803316
% es.EZ (V/m) @ t=0.54
18.72485612957579
% es.tEX (V/m) @ t=0.54
-19.4688134314828
% es.tEY (V/m) @ t=0.54
0
% es.tEZ (V/m) @ t=0.54
18.724856129575755
% es.Ex (V/m) @ t=0.54
-19.468813431482843
% es.Ey (V/m) @ t=0.54
15.620081539803316
% es.Ez (V/m) @ t=0.54
18.72485612957579
% es.tEx (V/m) @ t=0.54
-19.4688134314828
% es.tEy (V/m) @ t=0.54
0
% es.tEz (V/m) @ t=0.54
18.724856129575755
% V (V) @ t=0.54
0.01293840133795269
% es.normE (V/m) @ t=0.56
41.620934737924095
% es.EX (V/m) @ t=0.56
-19.65568458668203
% es.EY (V/m) @ t=0.56
15.770004081543846
% es.EZ (V/m) @ t=0.56
18.904557998414333
% es.tEX (V/m) @ t=0.56
-19.65568458668207
% es.tEY (V/m) @ t=0.56
0
% es.tEZ (V/m) @ t=0.56
18.904557998414248
% es.Ex (V/m) @ t=0.56
-19.65568458668203
% es.Ey (V/m) @ t=0.56
15.770004081543846
% es.Ez (V/m) @ t=0.56
18.904557998414333
% es.tEx (V/m) @ t=0.56
-19.65568458668207
% es.tEy (V/m) @ t=0.56
0
% es.tEz (V/m) @ t=0.56
18.904557998414248
% V (V) @ t=0.56
0.013062578965157536
% es.normE (V/m) @ t=0.58
42.01660817541732
% es.EX (V/m) @ t=0.58
-19.8425557418812
% es.EY (V/m) @ t=0.58
15.919926623284276
% es.EZ (V/m) @ t=0.58
19.08425986725291
% es.tEX (V/m) @ t=0.58
-19.842555741881213
% es.tEY (V/m) @ t=0.58
0
% es.tEZ (V/m) @ t=0.58
19.08425986725291
% es.Ex (V/m) @ t=0.58
-19.8425557418812
% es.Ey (V/m) @ t=0.58
15.919926623284276
% es.Ez (V/m) @ t=0.58
19.08425986725291
% es.tEx (V/m) @ t=0.58
-19.842555741881213
% es.tEy (V/m) @ t=0.58
0
% es.tEz (V/m) @ t=0.58
19.08425986725291
% V (V) @ t=0.58
0.013186756592362379
% es.normE (V/m) @ t=0.6
42.412281612921085
% es.EX (V/m) @ t=0.6
-20.029426897080413
% es.EY (V/m) @ t=0.6
16.06984916502477
% es.EZ (V/m) @ t=0.6
19.263961736091538
% es.tEX (V/m) @ t=0.6
-20.0294268970804
% es.tEY (V/m) @ t=0.6
0
% es.tEZ (V/m) @ t=0.6
19.263961736091517
% es.Ex (V/m) @ t=0.6
-20.029426897080413
% es.Ey (V/m) @ t=0.6
16.06984916502477
% es.Ez (V/m) @ t=0.6
19.263961736091538
% es.tEx (V/m) @ t=0.6
-20.0294268970804
% es.tEy (V/m) @ t=0.6
0
% es.tEz (V/m) @ t=0.6
19.263961736091517
% V (V) @ t=0.6
0.013310934219567222
% es.normE (V/m) @ t=0.62
42.80795505043516
% es.EX (V/m) @ t=0.62
-20.216298052279654
% es.EY (V/m) @ t=0.62
16.219771706765265
% es.EZ (V/m) @ t=0.62
19.443663604930173
% es.tEX (V/m) @ t=0.62
-20.21629805227964
% es.tEY (V/m) @ t=0.62
0
% es.tEZ (V/m) @ t=0.62
19.443663604930123
% es.Ex (V/m) @ t=0.62
-20.216298052279654
% es.Ey (V/m) @ t=0.62
16.219771706765265
% es.Ez (V/m) @ t=0.62
19.443663604930173
% es.tEx (V/m) @ t=0.62
-20.21629805227964
% es.tEy (V/m) @ t=0.62
0
% es.tEz (V/m) @ t=0.62
19.443663604930123
% V (V) @ t=0.62
0.013435111846772065
% es.normE (V/m) @ t=0.64
43.20362848795918
% es.EX (V/m) @ t=0.64
-20.403169207478783
% es.EY (V/m) @ t=0.64
16.369694248505795
% es.EZ (V/m) @ t=0.64
19.623365473768764
% es.tEX (V/m) @ t=0.64
-20.40316920747881
% es.tEY (V/m) @ t=0.64
0
% es.tEZ (V/m) @ t=0.64
19.623365473768672
% es.Ex (V/m) @ t=0.64
-20.403169207478783
% es.Ey (V/m) @ t=0.64
16.369694248505795
% es.Ez (V/m) @ t=0.64
19.623365473768764
% es.tEx (V/m) @ t=0.64
-20.40316920747881
% es.tEy (V/m) @ t=0.64
0
% es.tEz (V/m) @ t=0.64
19.623365473768672
% V (V) @ t=0.64
0.013559289473976912
% es.normE (V/m) @ t=0.66
43.59930192549294
% es.EX (V/m) @ t=0.66
-20.59004036267801
% es.EY (V/m) @ t=0.66
16.519616790246296
% es.EZ (V/m) @ t=0.66
19.803067342607406
% es.tEX (V/m) @ t=0.66
-20.590040362678003
% es.tEY (V/m) @ t=0.66
0
% es.tEZ (V/m) @ t=0.66
19.80306734260739
% es.Ex (V/m) @ t=0.66
-20.59004036267801
% es.Ey (V/m) @ t=0.66
16.519616790246296
% es.Ez (V/m) @ t=0.66
19.803067342607406
% es.tEx (V/m) @ t=0.66
-20.590040362678003
% es.tEy (V/m) @ t=0.66
0
% es.tEz (V/m) @ t=0.66
19.80306734260739
% V (V) @ t=0.66
0.013683467101181753
% es.normE (V/m) @ t=0.68
43.99497536303602
% es.EX (V/m) @ t=0.68
-20.77691151787721
% es.EY (V/m) @ t=0.68
16.66953933198677
% es.EZ (V/m) @ t=0.68
19.982769211445977
% es.tEX (V/m) @ t=0.68
-20.776911517877238
% es.tEY (V/m) @ t=0.68
0
% es.tEZ (V/m) @ t=0.68
19.98276921144594
% es.Ex (V/m) @ t=0.68
-20.77691151787721
% es.Ey (V/m) @ t=0.68
16.66953933198677
% es.Ez (V/m) @ t=0.68
19.982769211445977
% es.tEx (V/m) @ t=0.68
-20.776911517877238
% es.tEy (V/m) @ t=0.68
0
% es.tEz (V/m) @ t=0.68
19.98276921144594
% V (V) @ t=0.68
0.013807644728386597
% es.normE (V/m) @ t=0.7
44.390648800588494
% es.EX (V/m) @ t=0.7
-20.963782673076437
% es.EY (V/m) @ t=0.7
16.819461873727278
% es.EZ (V/m) @ t=0.7
20.162471080284604
% es.tEX (V/m) @ t=0.7
-20.963782673076416
% es.tEY (V/m) @ t=0.7
0
% es.tEZ (V/m) @ t=0.7
20.162471080284547
% es.Ex (V/m) @ t=0.7
-20.963782673076437
% es.Ey (V/m) @ t=0.7
16.819461873727278
% es.Ez (V/m) @ t=0.7
20.162471080284604
% es.tEx (V/m) @ t=0.7
-20.963782673076416
% es.tEy (V/m) @ t=0.7
0
% es.tEz (V/m) @ t=0.7
20.162471080284547
% V (V) @ t=0.7
0.013931822355591442
% es.normE (V/m) @ t=0.72
44.78632223814964
% es.EX (V/m) @ t=0.72
-21.15065382827555
% es.EY (V/m) @ t=0.72
16.969384415467715
% es.EZ (V/m) @ t=0.72
20.342172949123153
% es.tEX (V/m) @ t=0.72
-21.150653828275537
% es.tEY (V/m) @ t=0.72
0
% es.tEZ (V/m) @ t=0.72
20.342172949123096
% es.Ex (V/m) @ t=0.72
-21.15065382827555
% es.Ey (V/m) @ t=0.72
16.969384415467715
% es.Ez (V/m) @ t=0.72
20.342172949123153
% es.tEx (V/m) @ t=0.72
-21.150653828275537
% es.tEy (V/m) @ t=0.72
0
% es.tEz (V/m) @ t=0.72
20.342172949123096
% V (V) @ t=0.72
0.014055999982796285
% es.normE (V/m) @ t=0.74
45.181995675719634
% es.EX (V/m) @ t=0.74
-21.337524983474765
% es.EY (V/m) @ t=0.74
17.119306957208273
% es.EZ (V/m) @ t=0.74
20.52187481796176
% es.tEX (V/m) @ t=0.74
-21.33752498347475
% es.tEY (V/m) @ t=0.74
0
% es.tEZ (V/m) @ t=0.74
20.52187481796176
% es.Ex (V/m) @ t=0.74
-21.337524983474765
% es.Ey (V/m) @ t=0.74
17.119306957208273
% es.Ez (V/m) @ t=0.74
20.52187481796176
% es.tEx (V/m) @ t=0.74
-21.33752498347475
% es.tEy (V/m) @ t=0.74
0
% es.tEz (V/m) @ t=0.74
20.52187481796176
% V (V) @ t=0.74
0.014180177610001128
% es.normE (V/m) @ t=0.76
45.57766911329824
% es.EX (V/m) @ t=0.76
-21.524396138674035
% es.EY (V/m) @ t=0.76
17.269229498948732
% es.EZ (V/m) @ t=0.76
20.701576686800436
% es.tEX (V/m) @ t=0.76
-21.52439613867405
% es.tEY (V/m) @ t=0.76
0
% es.tEZ (V/m) @ t=0.76
20.70157668680048
% es.Ex (V/m) @ t=0.76
-21.524396138674035
% es.Ey (V/m) @ t=0.76
17.269229498948732
% es.Ez (V/m) @ t=0.76
20.701576686800436
% es.tEx (V/m) @ t=0.76
-21.52439613867405
% es.tEy (V/m) @ t=0.76
0
% es.tEz (V/m) @ t=0.76
20.70157668680048
% V (V) @ t=0.76
0.014304355237205975
% es.normE (V/m) @ t=0.78
45.99829930482899
% es.EX (V/m) @ t=0.78
-21.72304444997951
% es.EY (V/m) @ t=0.78
17.428605608884702
% es.EZ (V/m) @ t=0.78
20.892625465023677
% es.tEX (V/m) @ t=0.78
-21.72304444997952
% es.tEY (V/m) @ t=0.78
0
% es.tEZ (V/m) @ t=0.78
20.892625465023684
% es.Ex (V/m) @ t=0.78
-21.72304444997951
% es.Ey (V/m) @ t=0.78
17.428605608884702
% es.Ez (V/m) @ t=0.78
20.892625465023677
% es.tEx (V/m) @ t=0.78
-21.72304444997952
% es.tEy (V/m) @ t=0.78
0
% es.tEz (V/m) @ t=0.78
20.892625465023684
% V (V) @ t=0.78
0.01443636759121914
% es.normE (V/m) @ t=0.8
46.437609170509006
% es.EX (V/m) @ t=0.8
-21.930507747357893
% es.EY (V/m) @ t=0.8
17.59505754181481
% es.EZ (V/m) @ t=0.8
21.092167197512957
% es.tEX (V/m) @ t=0.8
-21.93050774735788
% es.tEY (V/m) @ t=0.8
0
% es.tEZ (V/m) @ t=0.8
21.092167197512993
% es.Ex (V/m) @ t=0.8
-21.930507747357893
% es.Ey (V/m) @ t=0.8
17.59505754181481
% es.Ez (V/m) @ t=0.8
21.092167197512957
% es.tEx (V/m) @ t=0.8
-21.93050774735788
% es.tEy (V/m) @ t=0.8
0
% es.tEz (V/m) @ t=0.8
21.092167197512993
% V (V) @ t=0.8
0.014574244095038609
% es.normE (V/m) @ t=0.82
46.87691903619003
% es.EX (V/m) @ t=0.82
-22.13797104473619
% es.EY (V/m) @ t=0.82
17.76150947474487
% es.EZ (V/m) @ t=0.82
21.29170893000228
% es.tEX (V/m) @ t=0.82
-22.137971044736176
% es.tEY (V/m) @ t=0.82
0
% es.tEZ (V/m) @ t=0.82
21.291708930002187
% es.Ex (V/m) @ t=0.82
-22.13797104473619
% es.Ey (V/m) @ t=0.82
17.76150947474487
% es.Ez (V/m) @ t=0.82
21.29170893000228
% es.tEx (V/m) @ t=0.82
-22.137971044736176
% es.tEy (V/m) @ t=0.82
0
% es.tEz (V/m) @ t=0.82
21.291708930002187
% V (V) @ t=0.82
0.014712120598858083
% es.normE (V/m) @ t=0.84
47.31622890187208
% es.EX (V/m) @ t=0.84
-22.34543434211446
% es.EY (V/m) @ t=0.84
17.927961407674957
% es.EZ (V/m) @ t=0.84
21.491250662491566
% es.tEX (V/m) @ t=0.84
-22.34543434211446
% es.tEY (V/m) @ t=0.84
0
% es.tEZ (V/m) @ t=0.84
21.491250662491552
% es.Ex (V/m) @ t=0.84
-22.34543434211446
% es.Ey (V/m) @ t=0.84
17.927961407674957
% es.Ez (V/m) @ t=0.84
21.491250662491566
% es.tEx (V/m) @ t=0.84
-22.34543434211446
% es.tEy (V/m) @ t=0.84
0
% es.tEz (V/m) @ t=0.84
21.491250662491552
% V (V) @ t=0.84
0.014849997102677554
% es.normE (V/m) @ t=0.86
47.755538767555066
% es.EX (V/m) @ t=0.86
-22.552897639492798
% es.EY (V/m) @ t=0.86
18.094413340604994
% es.EZ (V/m) @ t=0.86
21.690792394980853
% es.tEX (V/m) @ t=0.86
-22.552897639492798
% es.tEY (V/m) @ t=0.86
0
% es.tEZ (V/m) @ t=0.86
21.69079239498086
% es.Ex (V/m) @ t=0.86
-22.552897639492798
% es.Ey (V/m) @ t=0.86
18.094413340604994
% es.Ez (V/m) @ t=0.86
21.690792394980853
% es.tEx (V/m) @ t=0.86
-22.552897639492798
% es.tEy (V/m) @ t=0.86
0
% es.tEz (V/m) @ t=0.86
21.69079239498086
% V (V) @ t=0.86
0.014987873606497023
% es.normE (V/m) @ t=0.88
48.194848633239104
% es.EX (V/m) @ t=0.88
-22.760360936871123
% es.EY (V/m) @ t=0.88
18.260865273535153
% es.EZ (V/m) @ t=0.88
21.890334127470197
% es.tEX (V/m) @ t=0.88
-22.760360936871137
% es.tEY (V/m) @ t=0.88
0
% es.tEZ (V/m) @ t=0.88
21.89033412747017
% es.Ex (V/m) @ t=0.88
-22.760360936871123
% es.Ey (V/m) @ t=0.88
18.260865273535153
% es.Ez (V/m) @ t=0.88
21.890334127470197
% es.tEx (V/m) @ t=0.88
-22.760360936871137
% es.tEy (V/m) @ t=0.88
0
% es.tEz (V/m) @ t=0.88
21.89033412747017
% V (V) @ t=0.88
0.015125750110316494
% es.normE (V/m) @ t=0.9
48.63415849892401
% es.EX (V/m) @ t=0.9
-22.96782423424949
% es.EY (V/m) @ t=0.9
18.427317206465133
% es.EZ (V/m) @ t=0.9
22.089875859959506
% es.tEX (V/m) @ t=0.9
-22.967824234249505
% es.tEY (V/m) @ t=0.9
0
% es.tEZ (V/m) @ t=0.9
22.089875859959534
% es.Ex (V/m) @ t=0.9
-22.96782423424949
% es.Ey (V/m) @ t=0.9
18.427317206465133
% es.Ez (V/m) @ t=0.9
22.089875859959506
% es.tEx (V/m) @ t=0.9
-22.967824234249505
% es.tEy (V/m) @ t=0.9
0
% es.tEz (V/m) @ t=0.9
22.089875859959534
% V (V) @ t=0.9
0.015263626614135967
% es.normE (V/m) @ t=0.92
49.07346836460981
% es.EX (V/m) @ t=0.92
-23.175287531627802
% es.EY (V/m) @ t=0.92
18.59376913939529
% es.EZ (V/m) @ t=0.92
22.289417592448864
% es.tEX (V/m) @ t=0.92
-23.175287531627802
% es.tEY (V/m) @ t=0.92
0
% es.tEZ (V/m) @ t=0.92
22.289417592448842
% es.Ex (V/m) @ t=0.92
-23.175287531627802
% es.Ey (V/m) @ t=0.92
18.59376913939529
% es.Ez (V/m) @ t=0.92
22.289417592448864
% es.tEx (V/m) @ t=0.92
-23.175287531627802
% es.tEy (V/m) @ t=0.92
0
% es.tEz (V/m) @ t=0.92
22.289417592448842
% V (V) @ t=0.92
0.015401503117955434
% es.normE (V/m) @ t=0.94
49.5127782302965
% es.EX (V/m) @ t=0.94
-23.38275082900614
% es.EY (V/m) @ t=0.94
18.76022107232535
% es.EZ (V/m) @ t=0.94
22.488959324938207
% es.tEX (V/m) @ t=0.94
-23.38275082900612
% es.tEY (V/m) @ t=0.94
0
% es.tEZ (V/m) @ t=0.94
22.488959324938207
% es.Ex (V/m) @ t=0.94
-23.38275082900614
% es.Ey (V/m) @ t=0.94
18.76022107232535
% es.Ez (V/m) @ t=0.94
22.488959324938207
% es.tEx (V/m) @ t=0.94
-23.38275082900612
% es.tEy (V/m) @ t=0.94
0
% es.tEz (V/m) @ t=0.94
22.488959324938207
% V (V) @ t=0.94
0.015539379621774905
% es.normE (V/m) @ t=0.96
49.952088095984024
% es.EX (V/m) @ t=0.96
-23.590214126384538
% es.EY (V/m) @ t=0.96
18.92667300525543
% es.EZ (V/m) @ t=0.96
22.688501057427516
% es.tEX (V/m) @ t=0.96
-23.590214126384524
% es.tEY (V/m) @ t=0.96
0
% es.tEZ (V/m) @ t=0.96
22.68850105742746
% es.Ex (V/m) @ t=0.96
-23.590214126384538
% es.Ey (V/m) @ t=0.96
18.92667300525543
% es.Ez (V/m) @ t=0.96
22.688501057427516
% es.tEx (V/m) @ t=0.96
-23.590214126384524
% es.tEy (V/m) @ t=0.96
0
% es.tEz (V/m) @ t=0.96
22.68850105742746
% V (V) @ t=0.96
0.015677256125594376
% es.normE (V/m) @ t=0.98
50.39139796167237
% es.EX (V/m) @ t=0.98
-23.797677423762863
% es.EY (V/m) @ t=0.98
19.093124938185447
% es.EZ (V/m) @ t=0.98
22.888042789916774
% es.tEX (V/m) @ t=0.98
-23.79767742376285
% es.tEY (V/m) @ t=0.98
0
% es.tEZ (V/m) @ t=0.98
22.888042789916767
% es.Ex (V/m) @ t=0.98
-23.797677423762863
% es.Ey (V/m) @ t=0.98
19.093124938185447
% es.Ez (V/m) @ t=0.98
22.888042789916774
% es.tEx (V/m) @ t=0.98
-23.79767742376285
% es.tEy (V/m) @ t=0.98
0
% es.tEz (V/m) @ t=0.98
22.888042789916767
% V (V) @ t=0.98
0.015815132629413847
% es.normE (V/m) @ t=1
50.83070782736151
% es.EX (V/m) @ t=1
-24.00514072114116
% es.EY (V/m) @ t=1
19.259576871115556
% es.EZ (V/m) @ t=1
23.08758452240606
% es.tEX (V/m) @ t=1
-24.005140721141153
% es.tEY (V/m) @ t=1
0
% es.tEZ (V/m) @ t=1
23.08758452240602
% es.Ex (V/m) @ t=1
-24.00514072114116
% es.Ey (V/m) @ t=1
19.259576871115556
% es.Ez (V/m) @ t=1
23.08758452240606
% es.tEx (V/m) @ t=1
-24.005140721141153
% es.tEy (V/m) @ t=1
0
% es.tEz (V/m) @ t=1
23.08758452240602
% V (V) @ t=1
0.015953009133233317
% es.normE (V/m) @ t=1.02
51.27001769305143
% es.EX (V/m) @ t=1.02
-24.212604018519457
% es.EY (V/m) @ t=1.02
19.426028804045657
% es.EZ (V/m) @ t=1.02
23.287126254895355
% es.tEX (V/m) @ t=1.02
-24.21260401851945
% es.tEY (V/m) @ t=1.02
0
% es.tEZ (V/m) @ t=1.02
23.287126254895327
% es.Ex (V/m) @ t=1.02
-24.212604018519457
% es.Ey (V/m) @ t=1.02
19.426028804045657
% es.Ez (V/m) @ t=1.02
23.287126254895355
% es.tEx (V/m) @ t=1.02
-24.21260401851945
% es.tEy (V/m) @ t=1.02
0
% es.tEz (V/m) @ t=1.02
23.287126254895327
% V (V) @ t=1.02
0.01609088563705279
% es.normE (V/m) @ t=1.04
51.72555536356394
% es.EX (V/m) @ t=1.04
-24.427733155399864
% es.EY (V/m) @ t=1.04
19.598629993573944
% es.EZ (V/m) @ t=1.04
23.494035967858146
% es.tEX (V/m) @ t=1.04
-24.427733155399878
% es.tEY (V/m) @ t=1.04
0
% es.tEZ (V/m) @ t=1.04
23.494035967858167
% es.Ex (V/m) @ t=1.04
-24.427733155399864
% es.Ey (V/m) @ t=1.04
19.598629993573944
% es.Ez (V/m) @ t=1.04
23.494035967858146