% Model:              1 neuron.mph
% Version:            COMSOL 6.1.0.252
% Date:               Mar 22 2023, 19:27
% Dimension:          0
% Nodes:              14017
% Expressions:        14017
% Description:        Electric field norm, Electric field, X component, Electric field, Y component, Electric field, Z component, Tangential electric field, X component, Tangential electric field, Y component, Tangential electric field, Z component, Electric field, x component, Electric field, y component, Electric field, z component, Tangential electric field, x component, Tangential electric field, y component, Tangential electric field, z component, Electric potential
% Length unit:        mm
% x
1.66
% y
12.2
% z
1
% es.normE (V/m) @ t=0
2.7222347466556602
% es.EX (V/m) @ t=0
-0.9703053966347637
% es.EY (V/m) @ t=0
0.3082620092658157
% es.EZ (V/m) @ t=0
2.516867232531119
% es.tEX (V/m) @ t=0
-0.9703053966347779
% es.tEY (V/m) @ t=0
0
% es.tEZ (V/m) @ t=0
2.516867232531121
% es.Ex (V/m) @ t=0
-0.9703053966347637
% es.Ey (V/m) @ t=0
0.3082620092658157
% es.Ez (V/m) @ t=0
2.516867232531119
% es.tEx (V/m) @ t=0
-0.9703053966347779
% es.tEy (V/m) @ t=0
0
% es.tEz (V/m) @ t=0
2.516867232531121
% V (V) @ t=0
0.013253989547219756
% es.normE (V/m) @ t=0.02
2.351225273517269
% es.EX (V/m) @ t=0.02
-0.8380638643547319
% es.EY (V/m) @ t=0.02
0.26624942173707944
% es.EZ (V/m) @ t=0.02
2.173847003651116
% es.tEX (V/m) @ t=0.02
-0.838063864354739
% es.tEY (V/m) @ t=0.02
0
% es.tEZ (V/m) @ t=0.02
2.1738470036511117
% es.Ex (V/m) @ t=0.02
-0.8380638643547319
% es.Ey (V/m) @ t=0.02
0.26624942173707944
% es.Ez (V/m) @ t=0.02
2.173847003651116
% es.tEx (V/m) @ t=0.02
-0.838063864354739
% es.tEy (V/m) @ t=0.02
0
% es.tEz (V/m) @ t=0.02
2.1738470036511117
% V (V) @ t=0.02
0.01144762229622074
% es.normE (V/m) @ t=0.04
2.372858017151647
% es.EX (V/m) @ t=0.04
-0.8457745762670539
% es.EY (V/m) @ t=0.04
0.2686990830210043
% es.EZ (V/m) @ t=0.04
2.1938477562192373
% es.tEX (V/m) @ t=0.04
-0.8457745762670681
% es.tEY (V/m) @ t=0.04
0
% es.tEZ (V/m) @ t=0.04
2.19384775621924
% es.Ex (V/m) @ t=0.04
-0.8457745762670539
% es.Ey (V/m) @ t=0.04
0.2686990830210043
% es.Ez (V/m) @ t=0.04
2.1938477562192373
% es.tEx (V/m) @ t=0.04
-0.8457745762670681
% es.tEy (V/m) @ t=0.04
0
% es.tEz (V/m) @ t=0.04
2.19384775621924
% V (V) @ t=0.04
0.01155294758283344
% es.normE (V/m) @ t=0.06
2.394648288859633
% es.EX (V/m) @ t=0.06
-0.8535414372143083
% es.EY (V/m) @ t=0.06
0.271166582466116
% es.EZ (V/m) @ t=0.06
2.2139941527659603
% es.tEX (V/m) @ t=0.06
-0.8535414372143225
% es.tEY (V/m) @ t=0.06
0
% es.tEZ (V/m) @ t=0.06
2.2139941527659577
% es.Ex (V/m) @ t=0.06
-0.8535414372143083
% es.Ey (V/m) @ t=0.06
0.271166582466116
% es.Ez (V/m) @ t=0.06
2.2139941527659603
% es.tEx (V/m) @ t=0.06
-0.8535414372143225
% es.tEy (V/m) @ t=0.06
0
% es.tEz (V/m) @ t=0.06
2.2139941527659577
% V (V) @ t=0.06
0.01165903986342825
% es.normE (V/m) @ t=0.08
2.4168565633934143
% es.EX (V/m) @ t=0.08
-0.8614572896893679
% es.EY (V/m) @ t=0.08
0.27368141602958906
% es.EZ (V/m) @ t=0.08
2.23452701773169
% es.tEX (V/m) @ t=0.08
-0.8614572896893821
% es.tEY (V/m) @ t=0.08
0
% es.tEZ (V/m) @ t=0.08
2.2345270177316845
% es.Ex (V/m) @ t=0.08
-0.8614572896893679
% es.Ey (V/m) @ t=0.08
0.27368141602958906
% es.Ez (V/m) @ t=0.08
2.23452701773169
% es.tEx (V/m) @ t=0.08
-0.8614572896893821
% es.tEy (V/m) @ t=0.08
0
% es.tEz (V/m) @ t=0.08
2.2345270177316845
% V (V) @ t=0.08
0.011767167291688117
% es.normE (V/m) @ t=0.1
2.439177514323501
% es.EX (V/m) @ t=0.1
-0.8694133041619068
% es.EY (V/m) @ t=0.1
0.2762090089275926
% es.EZ (V/m) @ t=0.1
2.255164058712631
% es.tEX (V/m) @ t=0.1
-0.8694133041619245
% es.tEY (V/m) @ t=0.1
0
% es.tEZ (V/m) @ t=0.1
2.255164058712632
% es.Ex (V/m) @ t=0.1
-0.8694133041619068
% es.Ey (V/m) @ t=0.1
0.2762090089275926
% es.Ez (V/m) @ t=0.1
2.255164058712631
% es.tEx (V/m) @ t=0.1
-0.8694133041619245
% es.tEy (V/m) @ t=0.1
0
% es.tEz (V/m) @ t=0.1
2.255164058712632
% V (V) @ t=0.1
0.011875843312183922
% es.normE (V/m) @ t=0.12
2.4614984652535776
% es.EX (V/m) @ t=0.12
-0.8773693186344385
% es.EY (V/m) @ t=0.12
0.278736601825579
% es.EZ (V/m) @ t=0.12
2.275801099693564
% es.tEX (V/m) @ t=0.12
-0.8773693186344527
% es.tEY (V/m) @ t=0.12
0
% es.tEZ (V/m) @ t=0.12
2.2758010996935685
% es.Ex (V/m) @ t=0.12
-0.8773693186344385
% es.Ey (V/m) @ t=0.12
0.278736601825579
% es.Ez (V/m) @ t=0.12
2.275801099693564
% es.tEx (V/m) @ t=0.12
-0.8773693186344527
% es.tEy (V/m) @ t=0.12
0
% es.tEz (V/m) @ t=0.12
2.2758010996935685
% V (V) @ t=0.12
0.01198451933267973
% es.normE (V/m) @ t=0.14
2.4844702751411862
% es.EX (V/m) @ t=0.14
-0.8855573231137832
% es.EY (V/m) @ t=0.14
0.2813378970486984
% es.EZ (V/m) @ t=0.14
2.2970398984121125
% es.tEX (V/m) @ t=0.14
-0.8855573231137939
% es.tEY (V/m) @ t=0.14
0
% es.tEZ (V/m) @ t=0.14
2.2970398984121108
% es.Ex (V/m) @ t=0.14
-0.8855573231137832
% es.Ey (V/m) @ t=0.14
0.2813378970486984
% es.Ez (V/m) @ t=0.14
2.2970398984121125
% es.tEx (V/m) @ t=0.14
-0.8855573231137939
% es.tEy (V/m) @ t=0.14
0
% es.tEz (V/m) @ t=0.14
2.2970398984121108
% V (V) @ t=0.14
0.012096364227957354
% es.normE (V/m) @ t=0.16
2.5079102862716063
% es.EX (V/m) @ t=0.16
-0.8939122116902867
% es.EY (V/m) @ t=0.16
0.2839922107020494
% es.EZ (V/m) @ t=0.16
2.318711576969471
% es.tEX (V/m) @ t=0.16
-0.8939122116902938
% es.tEY (V/m) @ t=0.16
0
% es.tEZ (V/m) @ t=0.16
2.3187115769694735
% es.Ex (V/m) @ t=0.16
-0.8939122116902867
% es.Ey (V/m) @ t=0.16
0.2839922107020494
% es.Ez (V/m) @ t=0.16
2.318711576969471
% es.tEx (V/m) @ t=0.16
-0.8939122116902938
% es.tEy (V/m) @ t=0.16
0
% es.tEz (V/m) @ t=0.16
2.3187115769694735
% V (V) @ t=0.16
0.012210488681799948
% es.normE (V/m) @ t=0.18
2.531350297402027
% es.EX (V/m) @ t=0.18
-0.9022671002667721
% es.EY (V/m) @ t=0.18
0.28664652435539995
% es.EZ (V/m) @ t=0.18
2.3403832555268362
% es.tEX (V/m) @ t=0.18
-0.9022671002667864
% es.tEY (V/m) @ t=0.18
0
% es.tEZ (V/m) @ t=0.18
2.340383255526831
% es.Ex (V/m) @ t=0.18
-0.9022671002667721
% es.Ey (V/m) @ t=0.18
0.28664652435539995
% es.Ez (V/m) @ t=0.18
2.3403832555268362
% es.tEx (V/m) @ t=0.18
-0.9022671002667864
% es.tEy (V/m) @ t=0.18
0
% es.tEz (V/m) @ t=0.18
2.340383255526831
% V (V) @ t=0.18
0.012324613135642547
% es.normE (V/m) @ t=0.2
2.554790308532455
% es.EX (V/m) @ t=0.2
-0.9106219888432863
% es.EY (V/m) @ t=0.2
0.2893008380087423
% es.EZ (V/m) @ t=0.2
2.362054934084199
% es.tEX (V/m) @ t=0.2
-0.9106219888433005
% es.tEY (V/m) @ t=0.2
0
% es.tEZ (V/m) @ t=0.2
2.3620549340842008
% es.Ex (V/m) @ t=0.2
-0.9106219888432863
% es.Ey (V/m) @ t=0.2
0.2893008380087423
% es.Ez (V/m) @ t=0.2
2.362054934084199
% es.tEx (V/m) @ t=0.2
-0.9106219888433005
% es.tEy (V/m) @ t=0.2
0
% es.tEz (V/m) @ t=0.2
2.3620549340842008
% V (V) @ t=0.2
0.012438737589485145
% es.normE (V/m) @ t=0.22
2.5782303196628886
% es.EX (V/m) @ t=0.22
-0.9189768774198002
% es.EY (V/m) @ t=0.22
0.29195515166208263
% es.EZ (V/m) @ t=0.22
2.383726612641567
% es.tEX (V/m) @ t=0.22
-0.9189768774198144
% es.tEY (V/m) @ t=0.22
0
% es.tEZ (V/m) @ t=0.22
2.3837266126415706
% es.Ex (V/m) @ t=0.22
-0.9189768774198002
% es.Ey (V/m) @ t=0.22
0.29195515166208263
% es.Ez (V/m) @ t=0.22
2.383726612641567
% es.tEx (V/m) @ t=0.22
-0.9189768774198144
% es.tEy (V/m) @ t=0.22
0
% es.tEz (V/m) @ t=0.22
2.3837266126415706
% V (V) @ t=0.22
0.012552862043327742
% es.normE (V/m) @ t=0.24
2.601670330793298
% es.EX (V/m) @ t=0.24
-0.927331765996293
% es.EY (V/m) @ t=0.24
0.29460946531542276
% es.EZ (V/m) @ t=0.24
2.40539829119892
% es.tEX (V/m) @ t=0.24
-0.9273317659963072
% es.tEY (V/m) @ t=0.24
0
% es.tEZ (V/m) @ t=0.24
2.405398291198912
% es.Ex (V/m) @ t=0.24
-0.927331765996293
% es.Ey (V/m) @ t=0.24
0.29460946531542276
% es.Ez (V/m) @ t=0.24
2.40539829119892
% es.tEx (V/m) @ t=0.24
-0.9273317659963072
% es.tEy (V/m) @ t=0.24
0
% es.tEz (V/m) @ t=0.24
2.405398291198912
% V (V) @ t=0.24
0.01266698649717034
% es.normE (V/m) @ t=0.26
2.6255339816641396
% es.EX (V/m) @ t=0.26
-0.93583765621496
% es.EY (V/m) @ t=0.26
0.2973117510865122
% es.EZ (V/m) @ t=0.26
2.427461649561722
% es.tEX (V/m) @ t=0.26
-0.9358376562149671
% es.tEY (V/m) @ t=0.26
0
% es.tEZ (V/m) @ t=0.26
2.427461649561719
% es.Ex (V/m) @ t=0.26
-0.93583765621496
% es.Ey (V/m) @ t=0.26
0.2973117510865122
% es.Ez (V/m) @ t=0.26
2.427461649561722
% es.tEx (V/m) @ t=0.26
-0.9358376562149671
% es.tEy (V/m) @ t=0.26
0
% es.tEz (V/m) @ t=0.26
2.427461649561719
% V (V) @ t=0.26
0.012783173642099712
% es.normE (V/m) @ t=0.28
2.6514735480160487
% es.EX (V/m) @ t=0.28
-0.9450834832637303
% es.EY (V/m) @ t=0.28
0.30024910937884064
% es.EZ (V/m) @ t=0.28
2.4514443136320887
% es.tEX (V/m) @ t=0.28
-0.9450834832637374
% es.tEY (V/m) @ t=0.28
0
% es.tEZ (V/m) @ t=0.28
2.4514443136320896
% es.Ex (V/m) @ t=0.28
-0.9450834832637303
% es.Ey (V/m) @ t=0.28
0.30024910937884064
% es.Ez (V/m) @ t=0.28
2.4514443136320887
% es.tEx (V/m) @ t=0.28
-0.9450834832637374
% es.tEy (V/m) @ t=0.28
0
% es.tEz (V/m) @ t=0.28
2.4514443136320896
% V (V) @ t=0.28
0.012909468366539126
% es.normE (V/m) @ t=0.3
2.6774131143679574
% es.EX (V/m) @ t=0.3
-0.9543293103124866
% es.EY (V/m) @ t=0.3
0.3031864676711771
% es.EZ (V/m) @ t=0.3
2.475426977702462
% es.tEX (V/m) @ t=0.3
-0.9543293103125008
% es.tEY (V/m) @ t=0.3
0
% es.tEZ (V/m) @ t=0.3
2.475426977702462
% es.Ex (V/m) @ t=0.3
-0.9543293103124866
% es.Ey (V/m) @ t=0.3
0.3031864676711771
% es.Ez (V/m) @ t=0.3
2.475426977702462
% es.tEx (V/m) @ t=0.3
-0.9543293103125008
% es.tEy (V/m) @ t=0.3
0
% es.tEz (V/m) @ t=0.3
2.475426977702462
% V (V) @ t=0.3
0.013035763090978536
% es.normE (V/m) @ t=0.32
2.7033526807198847
% es.EX (V/m) @ t=0.32
-0.9635751373612604
% es.EY (V/m) @ t=0.32
0.3061238259635153
% es.EZ (V/m) @ t=0.32
2.4994096417728473
% es.tEX (V/m) @ t=0.32
-0.9635751373612782
% es.tEY (V/m) @ t=0.32
0
% es.tEZ (V/m) @ t=0.32
2.4994096417728517
% es.Ex (V/m) @ t=0.32
-0.9635751373612604
% es.Ey (V/m) @ t=0.32
0.3061238259635153
% es.Ez (V/m) @ t=0.32
2.4994096417728473
% es.tEx (V/m) @ t=0.32
-0.9635751373612782
% es.tEy (V/m) @ t=0.32
0
% es.tEz (V/m) @ t=0.32
2.4994096417728517
% V (V) @ t=0.32
0.01316205781541795
% es.normE (V/m) @ t=0.34
2.7292922470717915
% es.EX (V/m) @ t=0.34
-0.9728209644100132
% es.EY (V/m) @ t=0.34
0.3090611842558655
% es.EZ (V/m) @ t=0.34
2.523392305843216
% es.tEX (V/m) @ t=0.34
-0.9728209644100274
% es.tEY (V/m) @ t=0.34
0
% es.tEZ (V/m) @ t=0.34
2.523392305843224
% es.Ex (V/m) @ t=0.34
-0.9728209644100132
% es.Ey (V/m) @ t=0.34
0.3090611842558655
% es.Ez (V/m) @ t=0.34
2.523392305843216
% es.tEx (V/m) @ t=0.34
-0.9728209644100274
% es.tEy (V/m) @ t=0.34
0
% es.tEz (V/m) @ t=0.34
2.523392305843224
% V (V) @ t=0.34
0.013288352539857362
% es.normE (V/m) @ t=0.36
2.755231813423715
% es.EX (V/m) @ t=0.36
-0.98206679145878
% es.EY (V/m) @ t=0.36
0.31199854254820436
% es.EZ (V/m) @ t=0.36
2.5473749699135997
% es.tEX (V/m) @ t=0.36
-0.9820667914587977
% es.tEY (V/m) @ t=0.36
0
% es.tEZ (V/m) @ t=0.36
2.5473749699135997
% es.Ex (V/m) @ t=0.36
-0.98206679145878
% es.Ey (V/m) @ t=0.36
0.31199854254820436
% es.Ez (V/m) @ t=0.36
2.5473749699135997
% es.tEx (V/m) @ t=0.36
-0.9820667914587977
% es.tEy (V/m) @ t=0.36
0
% es.tEz (V/m) @ t=0.36
2.5473749699135997
% V (V) @ t=0.36
0.013414647264296774
% es.normE (V/m) @ t=0.38
2.7811713797756346
% es.EX (V/m) @ t=0.38
-0.9913126185075503
% es.EY (V/m) @ t=0.38
0.3149359008405277
% es.EZ (V/m) @ t=0.38
2.571357633983979
% es.tEX (V/m) @ t=0.38
-0.991312618507568
% es.tEY (V/m) @ t=0.38
0
% es.tEZ (V/m) @ t=0.38
2.571357633983986
% es.Ex (V/m) @ t=0.38
-0.9913126185075503
% es.Ey (V/m) @ t=0.38
0.3149359008405277
% es.Ez (V/m) @ t=0.38
2.571357633983979
% es.tEx (V/m) @ t=0.38
-0.991312618507568
% es.tEy (V/m) @ t=0.38
0
% es.tEz (V/m) @ t=0.38
2.571357633983986
% V (V) @ t=0.38
0.013540941988736184
% es.normE (V/m) @ t=0.4
2.807110946127543
% es.EX (V/m) @ t=0.4
-1.0005584455563206
% es.EY (V/m) @ t=0.4
0.3178732591328657
% es.EZ (V/m) @ t=0.4
2.5953402980543467
% es.tEX (V/m) @ t=0.4
-1.0005584455563383
% es.tEY (V/m) @ t=0.4
0
% es.tEZ (V/m) @ t=0.4
2.5953402980543494
% es.Ex (V/m) @ t=0.4
-1.0005584455563206
% es.Ey (V/m) @ t=0.4
0.3178732591328657
% es.Ez (V/m) @ t=0.4
2.5953402980543467
% es.tEx (V/m) @ t=0.4
-1.0005584455563383
% es.tEy (V/m) @ t=0.4
0
% es.tEz (V/m) @ t=0.4
2.5953402980543494
% V (V) @ t=0.4
0.0136672367131756
% es.normE (V/m) @ t=0.42
2.8330505124794656
% es.EX (V/m) @ t=0.42
-1.0098042726050769
% es.EY (V/m) @ t=0.42
0.32081061742520145
% es.EZ (V/m) @ t=0.42
2.619322962124734
% es.tEX (V/m) @ t=0.42
-1.0098042726050946
% es.tEY (V/m) @ t=0.42
0
% es.tEZ (V/m) @ t=0.42
2.6193229621247287
% es.Ex (V/m) @ t=0.42
-1.0098042726050769
% es.Ey (V/m) @ t=0.42
0.32081061742520145
% es.Ez (V/m) @ t=0.42
2.619322962124734
% es.tEx (V/m) @ t=0.42
-1.0098042726050946
% es.tEy (V/m) @ t=0.42
0
% es.tEz (V/m) @ t=0.42
2.6193229621247287
% V (V) @ t=0.42
0.013793531437615015
% es.normE (V/m) @ t=0.44
2.858990078831384
% es.EX (V/m) @ t=0.44
-1.019050099653858
% es.EY (V/m) @ t=0.44
0.3237479757175292
% es.EZ (V/m) @ t=0.44
2.643305626195107
% es.tEX (V/m) @ t=0.44
-1.0190500996538723
% es.tEY (V/m) @ t=0.44
0
% es.tEZ (V/m) @ t=0.44
2.643305626195108
% es.Ex (V/m) @ t=0.44
-1.019050099653858
% es.Ey (V/m) @ t=0.44
0.3237479757175292
% es.Ez (V/m) @ t=0.44
2.643305626195107
% es.tEx (V/m) @ t=0.44
-1.0190500996538723
% es.tEy (V/m) @ t=0.44
0
% es.tEz (V/m) @ t=0.44
2.643305626195108
% V (V) @ t=0.44
0.013919826162054427
% es.normE (V/m) @ t=0.46
2.884929645183295
% es.EX (V/m) @ t=0.46
-1.0282959267026177
% es.EY (V/m) @ t=0.46
0.3266853340098621
% es.EZ (V/m) @ t=0.46
2.667288290265482
% es.tEX (V/m) @ t=0.46
-1.0282959267026213
% es.tEY (V/m) @ t=0.46
0
% es.tEZ (V/m) @ t=0.46
2.6672882902654855
% es.Ex (V/m) @ t=0.46
-1.0282959267026177
% es.Ey (V/m) @ t=0.46
0.3266853340098621
% es.Ez (V/m) @ t=0.46
2.667288290265482
% es.tEx (V/m) @ t=0.46
-1.0282959267026213
% es.tEy (V/m) @ t=0.46
0
% es.tEz (V/m) @ t=0.46
2.6672882902654855
% V (V) @ t=0.46
0.014046120886493837
% es.normE (V/m) @ t=0.48
2.910869211535224
% es.EX (V/m) @ t=0.48
-1.0375417537513774
% es.EY (V/m) @ t=0.48
0.3296226923021941
% es.EZ (V/m) @ t=0.48
2.6912709543358737
% es.tEX (V/m) @ t=0.48
-1.0375417537513916
% es.tEY (V/m) @ t=0.48
0
% es.tEZ (V/m) @ t=0.48
2.69127095433587
% es.Ex (V/m) @ t=0.48
-1.0375417537513774
% es.Ey (V/m) @ t=0.48
0.3296226923021941
% es.Ez (V/m) @ t=0.48
2.6912709543358737
% es.tEx (V/m) @ t=0.48
-1.0375417537513916
% es.tEy (V/m) @ t=0.48
0
% es.tEz (V/m) @ t=0.48
2.69127095433587
% V (V) @ t=0.48
0.014172415610933251
% es.normE (V/m) @ t=0.5
2.9368087778871317
% es.EX (V/m) @ t=0.5
-1.0467875808001479
% es.EY (V/m) @ t=0.5
0.3325600505945394
% es.EZ (V/m) @ t=0.5
2.715253618406237
% es.tEX (V/m) @ t=0.5
-1.046787580800162
% es.tEY (V/m) @ t=0.5
0
% es.tEZ (V/m) @ t=0.5
2.715253618406239
% es.Ex (V/m) @ t=0.5
-1.0467875808001479
% es.Ey (V/m) @ t=0.5
0.3325600505945394
% es.Ez (V/m) @ t=0.5
2.715253618406237
% es.tEx (V/m) @ t=0.5
-1.046787580800162
% es.tEy (V/m) @ t=0.5
0
% es.tEz (V/m) @ t=0.5
2.715253618406239
% V (V) @ t=0.5
0.014298710335372665
% es.normE (V/m) @ t=0.52
2.963718701684382
% es.EX (V/m) @ t=0.52
-1.0563792781236814
% es.EY (V/m) @ t=0.52
0.33560729123111166
% es.EZ (V/m) @ t=0.52
2.7401334357264107
% es.tEX (V/m) @ t=0.52
-1.056379278123692
% es.tEY (V/m) @ t=0.52
0
% es.tEZ (V/m) @ t=0.52
2.740133435726415
% es.Ex (V/m) @ t=0.52
-1.0563792781236814
% es.Ey (V/m) @ t=0.52
0.33560729123111166
% es.Ez (V/m) @ t=0.52
2.7401334357264107
% es.tEx (V/m) @ t=0.52
-1.056379278123692
% es.tEy (V/m) @ t=0.52
0
% es.tEz (V/m) @ t=0.52
2.740133435726415
% V (V) @ t=0.52
0.014429729405477707
% es.normE (V/m) @ t=0.54
2.992468992387556
% es.EX (V/m) @ t=0.54
-1.0666269483678141
% es.EY (V/m) @ t=0.54
0.3388629332468869
% es.EZ (V/m) @ t=0.54
2.766714781857849
% es.tEX (V/m) @ t=0.54
-1.0666269483678283
% es.tEY (V/m) @ t=0.54
0
% es.tEZ (V/m) @ t=0.54
2.7667147818578464
% es.Ex (V/m) @ t=0.54
-1.0666269483678141
% es.Ey (V/m) @ t=0.54
0.3388629332468869
% es.Ez (V/m) @ t=0.54
2.766714781857849
% es.tEx (V/m) @ t=0.54
-1.0666269483678283
% es.tEy (V/m) @ t=0.54
0
% es.tEz (V/m) @ t=0.54
2.7667147818578464
% V (V) @ t=0.54
0.01456970860615825
% es.normE (V/m) @ t=0.56
3.0212192830907245
% es.EX (V/m) @ t=0.56
-1.0768746186119649
% es.EY (V/m) @ t=0.56
0.34211857526265055
% es.EZ (V/m) @ t=0.56
2.7932961279892705
% es.tEX (V/m) @ t=0.56
-1.076874618611979
% es.tEY (V/m) @ t=0.56
0
% es.tEZ (V/m) @ t=0.56
2.793296127989274
% es.Ex (V/m) @ t=0.56
-1.0768746186119649
% es.Ey (V/m) @ t=0.56
0.34211857526265055
% es.Ez (V/m) @ t=0.56
2.7932961279892705
% es.tEx (V/m) @ t=0.56
-1.076874618611979
% es.tEy (V/m) @ t=0.56
0
% es.tEz (V/m) @ t=0.56
2.793296127989274
% V (V) @ t=0.56
0.014709687806838791
% es.normE (V/m) @ t=0.58
3.049969573793896
% es.EX (V/m) @ t=0.58
-1.0871222888560976
% es.EY (V/m) @ t=0.58
0.34537421727842443
% es.EZ (V/m) @ t=0.58
2.8198774741207036
% es.tEX (V/m) @ t=0.58
-1.0871222888561012
% es.tEY (V/m) @ t=0.58
0
% es.tEZ (V/m) @ t=0.58
2.819877474120707
% es.Ex (V/m) @ t=0.58
-1.0871222888560976
% es.Ey (V/m) @ t=0.58
0.34537421727842443
% es.Ez (V/m) @ t=0.58
2.8198774741207036
% es.tEx (V/m) @ t=0.58
-1.0871222888561012
% es.tEy (V/m) @ t=0.58
0
% es.tEz (V/m) @ t=0.58
2.819877474120707
% V (V) @ t=0.58
0.014849667007519333
% es.normE (V/m) @ t=0.6
3.0787198644970677
% es.EX (V/m) @ t=0.6
-1.0973699591002375
% es.EY (V/m) @ t=0.6
0.34862985929418433
% es.EZ (V/m) @ t=0.6
2.8464588202521357
% es.tEX (V/m) @ t=0.6
-1.0973699591002517
% es.tEY (V/m) @ t=0.6
0
% es.tEZ (V/m) @ t=0.6
2.84645882025214
% es.Ex (V/m) @ t=0.6
-1.0973699591002375
% es.Ey (V/m) @ t=0.6
0.34862985929418433
% es.Ez (V/m) @ t=0.6
2.8464588202521357
% es.tEx (V/m) @ t=0.6
-1.0973699591002517
% es.tEy (V/m) @ t=0.6
0
% es.tEz (V/m) @ t=0.6
2.84645882025214
% V (V) @ t=0.6
0.014989646208199876
% es.normE (V/m) @ t=0.62
3.107470155200235
% es.EX (V/m) @ t=0.62
-1.1076176293443596
% es.EY (V/m) @ t=0.62
0.35188550130994867
% es.EZ (V/m) @ t=0.62
2.8730401663835696
% es.tEX (V/m) @ t=0.62
-1.1076176293443738
% es.tEY (V/m) @ t=0.62
0
% es.tEZ (V/m) @ t=0.62
2.8730401663835714
% es.Ex (V/m) @ t=0.62
-1.1076176293443596
% es.Ey (V/m) @ t=0.62
0.35188550130994867
% es.Ez (V/m) @ t=0.62
2.8730401663835696
% es.tEx (V/m) @ t=0.62
-1.1076176293443738
% es.tEy (V/m) @ t=0.62
0
% es.tEz (V/m) @ t=0.62
2.8730401663835714
% V (V) @ t=0.62
0.015129625408880422
% es.normE (V/m) @ t=0.64
3.1362204459034078
% es.EX (V/m) @ t=0.64
-1.1178652995884961
% es.EY (V/m) @ t=0.64
0.355141143325709
% es.EZ (V/m) @ t=0.64
2.8996215125150036
% es.tEX (V/m) @ t=0.64
-1.1178652995885103
% es.tEY (V/m) @ t=0.64
0
% es.tEZ (V/m) @ t=0.64
2.899621512515006
% es.Ex (V/m) @ t=0.64
-1.1178652995884961
% es.Ey (V/m) @ t=0.64
0.355141143325709
% es.Ez (V/m) @ t=0.64
2.8996215125150036
% es.tEx (V/m) @ t=0.64
-1.1178652995885103
% es.tEy (V/m) @ t=0.64
0
% es.tEz (V/m) @ t=0.64
2.899621512515006
% V (V) @ t=0.64
0.015269604609560963
% es.normE (V/m) @ t=0.66
3.1649707366065645
% es.EX (V/m) @ t=0.66
-1.1281129698326182
% es.EY (V/m) @ t=0.66
0.3583967853414698
% es.EZ (V/m) @ t=0.66
2.9262028586464277
% es.tEX (V/m) @ t=0.66
-1.1281129698326324
% es.tEY (V/m) @ t=0.66
0
% es.tEZ (V/m) @ t=0.66
2.9262028586464304
% es.Ex (V/m) @ t=0.66
-1.1281129698326182
% es.Ey (V/m) @ t=0.66
0.3583967853414698
% es.Ez (V/m) @ t=0.66
2.9262028586464277
% es.tEx (V/m) @ t=0.66
-1.1281129698326324
% es.tEy (V/m) @ t=0.66
0
% es.tEz (V/m) @ t=0.66
2.9262028586464304
% V (V) @ t=0.66
0.015409583810241505
% es.normE (V/m) @ t=0.68
3.1937210273097527
% es.EX (V/m) @ t=0.68
-1.138360640076783
% es.EY (V/m) @ t=0.68
0.3616524273572306
% es.EZ (V/m) @ t=0.68
2.952784204777866
% es.tEX (V/m) @ t=0.68
-1.1383606400767972
% es.tEY (V/m) @ t=0.68
0
% es.tEZ (V/m) @ t=0.68
2.9527842047778705
% es.Ex (V/m) @ t=0.68
-1.138360640076783
% es.Ey (V/m) @ t=0.68
0.3616524273572306
% es.Ez (V/m) @ t=0.68
2.952784204777866
% es.tEx (V/m) @ t=0.68
-1.1383606400767972
% es.tEy (V/m) @ t=0.68
0
% es.tEz (V/m) @ t=0.68
2.9527842047778705
% V (V) @ t=0.68
0.015549563010922047
% es.normE (V/m) @ t=0.7
3.222471318012912
% es.EX (V/m) @ t=0.7
-1.1486083103209053
% es.EY (V/m) @ t=0.7
0.3649080693730047
% es.EZ (V/m) @ t=0.7
2.9793655509092902
% es.tEX (V/m) @ t=0.7
-1.1486083103209195
% es.tEY (V/m) @ t=0.7
0
% es.tEZ (V/m) @ t=0.7
2.9793655509092947
% es.Ex (V/m) @ t=0.7
-1.1486083103209053
% es.Ey (V/m) @ t=0.7
0.3649080693730047
% es.Ez (V/m) @ t=0.7
2.9793655509092902
% es.tEx (V/m) @ t=0.7
-1.1486083103209195
% es.tEy (V/m) @ t=0.7
0
% es.tEz (V/m) @ t=0.7
2.9793655509092947
% V (V) @ t=0.7
0.01568954221160259
% es.normE (V/m) @ t=0.72
3.2512216087160857
% es.EX (V/m) @ t=0.72
-1.1588559805650274
% es.EY (V/m) @ t=0.72
0.368163711388779
% es.EZ (V/m) @ t=0.72
3.0059468970407286
% es.tEX (V/m) @ t=0.72
-1.1588559805650558
% es.tEY (V/m) @ t=0.72
0
% es.tEZ (V/m) @ t=0.72
3.005946897040724
% es.Ex (V/m) @ t=0.72
-1.1588559805650274
% es.Ey (V/m) @ t=0.72
0.368163711388779
% es.Ez (V/m) @ t=0.72
3.0059468970407286
% es.tEx (V/m) @ t=0.72
-1.1588559805650558
% es.tEy (V/m) @ t=0.72
0
% es.tEz (V/m) @ t=0.72
3.005946897040724
% V (V) @ t=0.72
0.01582952141228313
% es.normE (V/m) @ t=0.74
3.279971899419254
% es.EX (V/m) @ t=0.74
-1.1691036508091779
% es.EY (V/m) @ t=0.74
0.37141935340454335
% es.EZ (V/m) @ t=0.74
3.0325282431721536
% es.tEX (V/m) @ t=0.74
-1.169103650809192
% es.tEY (V/m) @ t=0.74
0
% es.tEZ (V/m) @ t=0.74
3.0325282431721607
% es.Ex (V/m) @ t=0.74
-1.1691036508091779
% es.Ey (V/m) @ t=0.74
0.37141935340454335
% es.Ez (V/m) @ t=0.74
3.0325282431721536
% es.tEx (V/m) @ t=0.74
-1.169103650809192
% es.tEy (V/m) @ t=0.74
0
% es.tEz (V/m) @ t=0.74
3.0325282431721607
% V (V) @ t=0.74
0.015969500612963677
% es.normE (V/m) @ t=0.76
3.308722190122423
% es.EX (V/m) @ t=0.76
-1.1793513210533
% es.EY (V/m) @ t=0.76
0.37467499542031035
% es.EZ (V/m) @ t=0.76
3.0591095893035893
% es.tEX (V/m) @ t=0.76
-1.1793513210533284
% es.tEY (V/m) @ t=0.76
0
% es.tEZ (V/m) @ t=0.76
3.0591095893035885
% es.Ex (V/m) @ t=0.76
-1.1793513210533
% es.Ey (V/m) @ t=0.76
0.37467499542031035
% es.Ez (V/m) @ t=0.76
3.0591095893035893
% es.tEx (V/m) @ t=0.76
-1.1793513210533284
% es.tEy (V/m) @ t=0.76
0
% es.tEz (V/m) @ t=0.76
3.0591095893035885
% V (V) @ t=0.76
0.016109479813644217
% es.normE (V/m) @ t=0.78
3.339121967184933
% es.EX (V/m) @ t=0.78
-1.190186926428578
% es.EY (V/m) @ t=0.78
0.37811742413397376
% es.EZ (V/m) @ t=0.78
3.087215984138888
% es.tEX (V/m) @ t=0.78
-1.1901869264285994
% es.tEY (V/m) @ t=0.78
0
% es.tEZ (V/m) @ t=0.78
3.0872159841388847
% es.Ex (V/m) @ t=0.78
-1.190186926428578
% es.Ey (V/m) @ t=0.78
0.37811742413397376
% es.Ez (V/m) @ t=0.78
3.087215984138888
% es.tEx (V/m) @ t=0.78
-1.1901869264285994
% es.tEy (V/m) @ t=0.78
0
% es.tEz (V/m) @ t=0.78
3.0872159841388847
% V (V) @ t=0.78
0.01625748968644784
% es.normE (V/m) @ t=0.8
3.3710383689803995
% es.EX (V/m) @ t=0.8
-1.2015631103640594
% es.EY (V/m) @ t=0.8
0.3817315943865982
% es.EZ (V/m) @ t=0.8
3.1167245891653623
% es.tEX (V/m) @ t=0.8
-1.2015631103640736
% es.tEY (V/m) @ t=0.8
0
% es.tEZ (V/m) @ t=0.8
3.1167245891653685
% es.Ex (V/m) @ t=0.8
-1.2015631103640594
% es.Ey (V/m) @ t=0.8
0.3817315943865982
% es.Ez (V/m) @ t=0.8
3.1167245891653623
% es.tEx (V/m) @ t=0.8
-1.2015631103640736
% es.tEy (V/m) @ t=0.8
0
% es.tEz (V/m) @ t=0.8
3.1167245891653685
% V (V) @ t=0.8
0.016412883382642882
% es.normE (V/m) @ t=0.82
3.4029547707758474
% es.EX (V/m) @ t=0.82
-1.2129392942995336
% es.EY (V/m) @ t=0.82
0.38534576463924486
% es.EZ (V/m) @ t=0.82
3.1462331941918196
% es.tEX (V/m) @ t=0.82
-1.2129392942995478
% es.tEY (V/m) @ t=0.82
0
% es.tEZ (V/m) @ t=0.82
3.1462331941918276
% es.Ex (V/m) @ t=0.82
-1.2129392942995336
% es.Ey (V/m) @ t=0.82
0.38534576463924486
% es.Ez (V/m) @ t=0.82
3.1462331941918196
% es.tEx (V/m) @ t=0.82
-1.2129392942995478
% es.tEy (V/m) @ t=0.82
0
% es.tEz (V/m) @ t=0.82
3.1462331941918276
% V (V) @ t=0.82
0.016568277078837932
% es.normE (V/m) @ t=0.84
3.434871172571327
% es.EX (V/m) @ t=0.84
-1.2243154782350356
% es.EY (V/m) @ t=0.84
0.38895993489185066
% es.EZ (V/m) @ t=0.84
3.1757417992183017
% es.tEX (V/m) @ t=0.84
-1.2243154782350498
% es.tEY (V/m) @ t=0.84
0
% es.tEZ (V/m) @ t=0.84
3.175741799218299
% es.Ex (V/m) @ t=0.84
-1.2243154782350356
% es.Ey (V/m) @ t=0.84
0.38895993489185066
% es.Ez (V/m) @ t=0.84
3.1757417992183017
% es.tEx (V/m) @ t=0.84
-1.2243154782350498
% es.tEy (V/m) @ t=0.84
0
% es.tEz (V/m) @ t=0.84
3.175741799218299
% V (V) @ t=0.84
0.016723670775032975
% es.normE (V/m) @ t=0.86
3.4667875743667977
% es.EX (V/m) @ t=0.86
-1.2356916621705312
% es.EY (V/m) @ t=0.86
0.39257410514449265
% es.EZ (V/m) @ t=0.86
3.205250404244773
% es.tEX (V/m) @ t=0.86
-1.2356916621705383
% es.tEY (V/m) @ t=0.86
0
% es.tEZ (V/m) @ t=0.86
3.2052504042447723
% es.Ex (V/m) @ t=0.86
-1.2356916621705312
% es.Ey (V/m) @ t=0.86
0.39257410514449265
% es.Ez (V/m) @ t=0.86
3.205250404244773
% es.tEx (V/m) @ t=0.86
-1.2356916621705383
% es.tEy (V/m) @ t=0.86
0
% es.tEz (V/m) @ t=0.86
3.2052504042447723
% V (V) @ t=0.86
0.016879064471228014
% es.normE (V/m) @ t=0.88
3.498703976162251
% es.EX (V/m) @ t=0.88
-1.2470678461060267
% es.EY (V/m) @ t=0.88
0.39618827539711443
% es.EZ (V/m) @ t=0.88
3.2347590092712286
% es.tEX (V/m) @ t=0.88
-1.247067846106041
% es.tEY (V/m) @ t=0.88
0
% es.tEZ (V/m) @ t=0.88
3.234759009271235
% es.Ex (V/m) @ t=0.88
-1.2470678461060267
% es.Ey (V/m) @ t=0.88
0.39618827539711443
% es.Ez (V/m) @ t=0.88
3.2347590092712286
% es.tEx (V/m) @ t=0.88
-1.247067846106041
% es.tEy (V/m) @ t=0.88
0
% es.tEz (V/m) @ t=0.88
3.234759009271235
% V (V) @ t=0.88
0.017034458167423064
% es.normE (V/m) @ t=0.9
3.5306203779576975
% es.EX (V/m) @ t=0.9
-1.2584440300414863
% es.EY (V/m) @ t=0.9
0.39980244564974887
% es.EZ (V/m) @ t=0.9
3.264267614297691
% es.tEX (V/m) @ t=0.9
-1.2584440300415005
% es.tEY (V/m) @ t=0.9
0
% es.tEZ (V/m) @ t=0.9
3.264267614297685
% es.Ex (V/m) @ t=0.9
-1.2584440300414863
% es.Ey (V/m) @ t=0.9
0.39980244564974887
% es.Ez (V/m) @ t=0.9
3.264267614297691
% es.tEx (V/m) @ t=0.9
-1.2584440300415005
% es.tEy (V/m) @ t=0.9
0
% es.tEz (V/m) @ t=0.9
3.264267614297685
% V (V) @ t=0.9
0.01718985186361811
% es.normE (V/m) @ t=0.92
3.5625367797531595
% es.EX (V/m) @ t=0.92
-1.2698202139769816
% es.EY (V/m) @ t=0.92
0.4034166159023731
% es.EZ (V/m) @ t=0.92
3.2937762193241547
% es.tEX (V/m) @ t=0.92
-1.269820213977003
% es.tEY (V/m) @ t=0.92
0
% es.tEZ (V/m) @ t=0.92
3.293776219324153
% es.Ex (V/m) @ t=0.92
-1.2698202139769816
% es.Ey (V/m) @ t=0.92
0.4034166159023731
% es.Ez (V/m) @ t=0.92
3.2937762193241547
% es.tEx (V/m) @ t=0.92
-1.269820213977003
% es.tEy (V/m) @ t=0.92
0
% es.tEz (V/m) @ t=0.92
3.293776219324153
% V (V) @ t=0.92
0.01734524555981315
% es.normE (V/m) @ t=0.94
3.5944531815486265
% es.EX (V/m) @ t=0.94
-1.2811963979124912
% es.EY (V/m) @ t=0.94
0.40703078615500443
% es.EZ (V/m) @ t=0.94
3.323284824350618
% es.tEX (V/m) @ t=0.94
-1.2811963979125054
% es.tEY (V/m) @ t=0.94
0
% es.tEZ (V/m) @ t=0.94
3.323284824350619
% es.Ex (V/m) @ t=0.94
-1.2811963979124912
% es.Ey (V/m) @ t=0.94
0.40703078615500443
% es.Ez (V/m) @ t=0.94
3.323284824350618
% es.tEx (V/m) @ t=0.94
-1.2811963979125054
% es.tEy (V/m) @ t=0.94
0
% es.tEz (V/m) @ t=0.94
3.323284824350619
% V (V) @ t=0.94
0.017500639256008196
% es.normE (V/m) @ t=0.96
3.626369583344089
% es.EX (V/m) @ t=0.96
-1.2925725818479723
% es.EY (V/m) @ t=0.96
0.4106449564076353
% es.EZ (V/m) @ t=0.96
3.352793429377088
% es.tEX (V/m) @ t=0.96
-1.2925725818479936
% es.tEY (V/m) @ t=0.96
0
% es.tEZ (V/m) @ t=0.96
3.352793429377078
% es.Ex (V/m) @ t=0.96
-1.2925725818479723
% es.Ey (V/m) @ t=0.96
0.4106449564076353
% es.Ez (V/m) @ t=0.96
3.352793429377088
% es.tEx (V/m) @ t=0.96
-1.2925725818479936
% es.tEy (V/m) @ t=0.96
0
% es.tEz (V/m) @ t=0.96
3.352793429377078
% V (V) @ t=0.96
0.01765603295220324
% es.normE (V/m) @ t=0.98
3.6582859851395555
% es.EX (V/m) @ t=0.98
-1.3039487657834679
% es.EY (V/m) @ t=0.98
0.41425912666027065
% es.EZ (V/m) @ t=0.98
3.3823020344035557
% es.tEX (V/m) @ t=0.98
-1.303948765783482
% es.tEY (V/m) @ t=0.98
0
% es.tEZ (V/m) @ t=0.98
3.3823020344035566
% es.Ex (V/m) @ t=0.98
-1.3039487657834679
% es.Ey (V/m) @ t=0.98
0.41425912666027065
% es.Ez (V/m) @ t=0.98
3.3823020344035557
% es.tEx (V/m) @ t=0.98
-1.303948765783482
% es.tEy (V/m) @ t=0.98
0
% es.tEz (V/m) @ t=0.98
3.3823020344035566
% V (V) @ t=0.98
0.01781142664839828
% es.normE (V/m) @ t=1
3.6902023869350047
% es.EX (V/m) @ t=1
-1.3153249497189274
% es.EY (V/m) @ t=1
0.4178732969129051
% es.EZ (V/m) @ t=1
3.41181063943002
% es.tEX (V/m) @ t=1
-1.3153249497189416
% es.tEY (V/m) @ t=1
0
% es.tEZ (V/m) @ t=1
3.411810639430019
% es.Ex (V/m) @ t=1
-1.3153249497189274
% es.Ey (V/m) @ t=1
0.4178732969129051
% es.Ez (V/m) @ t=1
3.41181063943002
% es.tEx (V/m) @ t=1
-1.3153249497189416
% es.tEy (V/m) @ t=1
0
% es.tEz (V/m) @ t=1
3.411810639430019
% V (V) @ t=1
0.017966820344593327
% es.normE (V/m) @ t=1.02
3.7221187887304605
% es.EX (V/m) @ t=1.02
-1.3267011336544299
% es.EY (V/m) @ t=1.02
0.4214874671655151
% es.EZ (V/m) @ t=1.02
3.4413192444564773
% es.tEX (V/m) @ t=1.02
-1.326701133654444
% es.tEY (V/m) @ t=1.02
0
% es.tEZ (V/m) @ t=1.02
3.441319244456487
% es.Ex (V/m) @ t=1.02
-1.3267011336544299
% es.Ey (V/m) @ t=1.02
0.4214874671655151
% es.Ez (V/m) @ t=1.02
3.4413192444564773
% es.tEx (V/m) @ t=1.02
-1.326701133654444
% es.tEy (V/m) @ t=1.02
0
% es.tEz (V/m) @ t=1.02
3.441319244456487
% V (V) @ t=1.02
0.01812221404078837
% es.normE (V/m) @ t=1.04
3.7551070995373754
% es.EX (V/m) @ t=1.04
-1.3384593870465455
% es.EY (V/m) @ t=1.04
0.4252230183105006
% es.EZ (V/m) @ t=1.04
3.4718188924445785
% es.tEX (V/m) @ t=1.04
-1.3384593870465669
% es.tEY (V/m) @ t=1.04
0
% es.tEZ (V/m) @ t=1.04
3.4718188924445794
% es.Ex (V/m) @ t=1.04
-1.3384593870465455
% es.Ey (V/m) @ t=1.04
0.4252230183105006