% Model:              1 neuron.mph
% Version:            COMSOL 6.1.0.252
% Date:               Mar 22 2023, 19:18
% Dimension:          0
% Nodes:              14017
% Expressions:        14017
% Description:        Electric field norm, Electric field, X component, Electric field, Y component, Electric field, Z component, Tangential electric field, X component, Tangential electric field, Y component, Tangential electric field, Z component, Electric field, x component, Electric field, y component, Electric field, z component, Tangential electric field, x component, Tangential electric field, y component, Tangential electric field, z component, Electric potential
% Length unit:        mm
% x
1
% y
12.2
% z
1
% es.normE (V/m) @ t=0
1.4475796244046943
% es.EX (V/m) @ t=0
0.9829245630873622
% es.EY (V/m) @ t=0
0.27916363890304474
% es.EZ (V/m) @ t=0
0.9986967331927019
% es.tEX (V/m) @ t=0
0.98292456308738
% es.tEY (V/m) @ t=0
0
% es.tEZ (V/m) @ t=0
0.9986967331926877
% es.Ex (V/m) @ t=0
0.9829245630873622
% es.Ey (V/m) @ t=0
0.27916363890304474
% es.Ez (V/m) @ t=0
0.9986967331927019
% es.tEx (V/m) @ t=0
0.98292456308738
% es.tEy (V/m) @ t=0
0
% es.tEz (V/m) @ t=0
0.9986967331926877
% V (V) @ t=0
0.013574345535303603
% es.normE (V/m) @ t=0.02
1.2502871944036844
% es.EX (V/m) @ t=0.02
0.8489605500938282
% es.EY (V/m) @ t=0.02
0.2411160790611504
% es.EZ (V/m) @ t=0.02
0.862583111455808
% es.tEX (V/m) @ t=0.02
0.8489605500938069
% es.tEY (V/m) @ t=0.02
0
% es.tEZ (V/m) @ t=0.02
0.8625831114557911
% es.Ex (V/m) @ t=0.02
0.8489605500938282
% es.Ey (V/m) @ t=0.02
0.2411160790611504
% es.Ez (V/m) @ t=0.02
0.862583111455808
% es.tEx (V/m) @ t=0.02
0.8489605500938069
% es.tEy (V/m) @ t=0.02
0
% es.tEz (V/m) @ t=0.02
0.8625831114557911
% V (V) @ t=0.02
0.011724281063524777
% es.normE (V/m) @ t=0.04
1.261786760927495
% es.EX (V/m) @ t=0.04
0.856768898815016
% es.EY (V/m) @ t=0.04
0.2433337535588791
% es.EZ (V/m) @ t=0.04
0.8705167542307635
% es.tEX (V/m) @ t=0.04
0.8567688988149911
% es.tEY (V/m) @ t=0.04
0
% es.tEZ (V/m) @ t=0.04
0.8705167542307564
% es.Ex (V/m) @ t=0.04
0.856768898815016
% es.Ey (V/m) @ t=0.04
0.2433337535588791
% es.Ez (V/m) @ t=0.04
0.8705167542307635
% es.tEx (V/m) @ t=0.04
0.8567688988149911
% es.tEy (V/m) @ t=0.04
0
% es.tEz (V/m) @ t=0.04
0.8705167542307564
% V (V) @ t=0.04
0.011832115621290357
% es.normE (V/m) @ t=0.06
1.2733704195047566
% es.EX (V/m) @ t=0.06
0.8646343474032783
% es.EY (V/m) @ t=0.06
0.24556764351779314
% es.EZ (V/m) @ t=0.06
0.8785084132858803
% es.tEX (V/m) @ t=0.06
0.8646343474032818
% es.tEY (V/m) @ t=0.06
0
% es.tEZ (V/m) @ t=0.06
0.8785084132858572
% es.Ex (V/m) @ t=0.06
0.8646343474032783
% es.Ey (V/m) @ t=0.06
0.24556764351779314
% es.Ez (V/m) @ t=0.06
0.8785084132858803
% es.tEx (V/m) @ t=0.06
0.8646343474032818
% es.tEy (V/m) @ t=0.06
0
% es.tEz (V/m) @ t=0.06
0.8785084132858572
% V (V) @ t=0.06
0.011940738815799875
% es.normE (V/m) @ t=0.08
1.285175434640007
% es.EX (V/m) @ t=0.08
0.8726500969984237
% es.EY (V/m) @ t=0.08
0.24784423473928818
% es.EZ (V/m) @ t=0.08
0.8866527841126057
% es.tEX (V/m) @ t=0.08
0.8726500969984272
% es.tEY (V/m) @ t=0.08
0
% es.tEZ (V/m) @ t=0.08
0.8866527841125773
% es.Ex (V/m) @ t=0.08
0.8726500969984237
% es.Ey (V/m) @ t=0.08
0.24784423473928818
% es.Ez (V/m) @ t=0.08
0.8866527841126057
% es.tEx (V/m) @ t=0.08
0.8726500969984272
% es.tEy (V/m) @ t=0.08
0
% es.tEz (V/m) @ t=0.08
0.8866527841125773
% V (V) @ t=0.08
0.012051437076413096
% es.normE (V/m) @ t=0.1
1.2970414485215513
% es.EX (V/m) @ t=0.1
0.8807072647158805
% es.EY (V/m) @ t=0.1
0.25013259305494273
% es.EZ (V/m) @ t=0.1
0.8948392373908387
% es.tEX (V/m) @ t=0.1
0.8807072647158805
% es.tEY (V/m) @ t=0.1
0
% es.tEZ (V/m) @ t=0.1
0.8948392373908192
% es.Ex (V/m) @ t=0.1
0.8807072647158805
% es.Ey (V/m) @ t=0.1
0.25013259305494273
% es.Ez (V/m) @ t=0.1
0.8948392373908387
% es.tEx (V/m) @ t=0.1
0.8807072647158805
% es.tEy (V/m) @ t=0.1
0
% es.tEz (V/m) @ t=0.1
0.8948392373908192
% V (V) @ t=0.1
0.012162707158489678
% es.normE (V/m) @ t=0.12
1.30890746240311
% es.EX (V/m) @ t=0.12
0.8887644324333088
% es.EY (V/m) @ t=0.12
0.2524209513706488
% es.EZ (V/m) @ t=0.12
0.9030256906690965
% es.tEX (V/m) @ t=0.12
0.8887644324332911
% es.tEY (V/m) @ t=0.12
0
% es.tEZ (V/m) @ t=0.12
0.9030256906690894
% es.Ex (V/m) @ t=0.12
0.8887644324333088
% es.Ey (V/m) @ t=0.12
0.2524209513706488
% es.Ez (V/m) @ t=0.12
0.9030256906690965
% es.tEx (V/m) @ t=0.12
0.8887644324332911
% es.tEy (V/m) @ t=0.12
0
% es.tEz (V/m) @ t=0.12
0.9030256906690894
% V (V) @ t=0.12
0.012273977240566256
% es.normE (V/m) @ t=0.14
1.3211155177644756
% es.EX (V/m) @ t=0.14
0.897053853376871
% es.EY (V/m) @ t=0.14
0.25477525918534916
% es.EZ (V/m) @ t=0.14
0.9114481248770758
% es.tEX (V/m) @ t=0.14
0.8970538533768604
% es.tEY (V/m) @ t=0.14
0
% es.tEZ (V/m) @ t=0.14
0.9114481248770545
% es.Ex (V/m) @ t=0.14
0.897053853376871
% es.Ey (V/m) @ t=0.14
0.25477525918534916
% es.Ez (V/m) @ t=0.14
0.9114481248770758
% es.tEx (V/m) @ t=0.14
0.8970538533768604
% es.tEy (V/m) @ t=0.14
0
% es.tEz (V/m) @ t=0.14
0.9114481248770545
% V (V) @ t=0.14
0.012388455376582813
% es.normE (V/m) @ t=0.16
1.3335772169986218
% es.EX (V/m) @ t=0.16
0.9055155037463685
% es.EY (V/m) @ t=0.16
0.2571784724321997
% es.EZ (V/m) @ t=0.16
0.9200455528225611
% es.tEX (V/m) @ t=0.16
0.9055155037463436
% es.tEY (V/m) @ t=0.16
0
% es.tEZ (V/m) @ t=0.16
0.9200455528225433
% es.Ex (V/m) @ t=0.16
0.9055155037463685
% es.Ey (V/m) @ t=0.16
0.2571784724321997
% es.Ez (V/m) @ t=0.16
0.9200455528225611
% es.tEx (V/m) @ t=0.16
0.9055155037463436
% es.tEy (V/m) @ t=0.16
0
% es.tEz (V/m) @ t=0.16
0.9200455528225433
% V (V) @ t=0.16
0.01250531247326278
% es.normE (V/m) @ t=0.18
1.346038916232814
% es.EX (V/m) @ t=0.18
0.9139771541159334
% es.EY (V/m) @ t=0.18
0.2595816856789863
% es.EZ (V/m) @ t=0.18
0.9286429807680676
% es.tEX (V/m) @ t=0.18
0.9139771541158836
% es.tEY (V/m) @ t=0.18
0
% es.tEZ (V/m) @ t=0.18
0.9286429807680534
% es.Ex (V/m) @ t=0.18
0.9139771541159334
% es.Ey (V/m) @ t=0.18
0.2595816856789863
% es.Ez (V/m) @ t=0.18
0.9286429807680676
% es.tEx (V/m) @ t=0.18
0.9139771541158836
% es.tEy (V/m) @ t=0.18
0
% es.tEz (V/m) @ t=0.18
0.9286429807680534
% V (V) @ t=0.18
0.012622169569942752
% es.normE (V/m) @ t=0.2
1.3585006154669605
% es.EX (V/m) @ t=0.2
0.922438804485413
% es.EY (V/m) @ t=0.2
0.2619848989258653
% es.EZ (V/m) @ t=0.2
0.9372404087135617
% es.tEX (V/m) @ t=0.2
0.9224388044853953
% es.tEY (V/m) @ t=0.2
0
% es.tEZ (V/m) @ t=0.2
0.9372404087135422
% es.Ex (V/m) @ t=0.2
0.922438804485413
% es.Ey (V/m) @ t=0.2
0.2619848989258653
% es.Ez (V/m) @ t=0.2
0.9372404087135617
% es.tEx (V/m) @ t=0.2
0.9224388044853953
% es.tEy (V/m) @ t=0.2
0
% es.tEz (V/m) @ t=0.2
0.9372404087135422
% V (V) @ t=0.2
0.012739026666622723
% es.normE (V/m) @ t=0.22
1.3709623147011183
% es.EX (V/m) @ t=0.22
0.9309004548549282
% es.EY (V/m) @ t=0.22
0.2643881121726821
% es.EZ (V/m) @ t=0.22
0.9458378366590559
% es.tEX (V/m) @ t=0.22
0.9309004548549353
% es.tEY (V/m) @ t=0.22
0
% es.tEZ (V/m) @ t=0.22
0.9458378366590523
% es.Ex (V/m) @ t=0.22
0.9309004548549282
% es.Ey (V/m) @ t=0.22
0.2643881121726821
% es.Ez (V/m) @ t=0.22
0.9458378366590559
% es.tEx (V/m) @ t=0.22
0.9309004548549353
% es.tEy (V/m) @ t=0.22
0
% es.tEz (V/m) @ t=0.22
0.9458378366590523
% V (V) @ t=0.22
0.012855883763302694
% es.normE (V/m) @ t=0.24
1.3834240139352803
% es.EX (V/m) @ t=0.24
0.9393621052244612
% es.EY (V/m) @ t=0.24
0.2667913254195362
% es.EZ (V/m) @ t=0.24
0.9544352646045287
% es.tEX (V/m) @ t=0.24
0.939362105224447
% es.tEY (V/m) @ t=0.24
0
% es.tEZ (V/m) @ t=0.24
0.9544352646045127
% es.Ex (V/m) @ t=0.24
0.9393621052244612
% es.Ey (V/m) @ t=0.24
0.2667913254195362
% es.Ez (V/m) @ t=0.24
0.9544352646045287
% es.tEx (V/m) @ t=0.24
0.939362105224447
% es.tEy (V/m) @ t=0.24
0
% es.tEz (V/m) @ t=0.24
0.9544352646045127
% V (V) @ t=0.24
0.012972740859982665
% es.normE (V/m) @ t=0.26
1.3960916624169264
% es.EX (V/m) @ t=0.26
0.9479636079692604
% es.EY (V/m) @ t=0.26
0.26923420945411536
% es.EZ (V/m) @ t=0.26
0.9631747922780676
% es.tEX (V/m) @ t=0.26
0.9479636079692426
% es.tEY (V/m) @ t=0.26
0
% es.tEZ (V/m) @ t=0.26
0.9631747922780534
% es.Ex (V/m) @ t=0.26
0.9479636079692604
% es.Ey (V/m) @ t=0.26
0.26923420945411536
% es.Ez (V/m) @ t=0.26
0.9631747922780676
% es.tEx (V/m) @ t=0.26
0.9479636079692426
% es.tEy (V/m) @ t=0.26
0
% es.tEz (V/m) @ t=0.26
0.9631747922780534
% V (V) @ t=0.26
0.013091531513944163
% es.normE (V/m) @ t=0.28
1.409884939670445
% es.EX (V/m) @ t=0.28
0.9573294828072392
% es.EY (V/m) @ t=0.28
0.27189391671441676
% es.EZ (V/m) @ t=0.28
0.9726909750950945
% es.tEX (V/m) @ t=0.28
0.957329482807225
% es.tEY (V/m) @ t=0.28
0
% es.tEZ (V/m) @ t=0.28
0.9726909750950767
% es.Ex (V/m) @ t=0.28
0.9573294828072392
% es.Ey (V/m) @ t=0.28
0.27189391671441676
% es.Ez (V/m) @ t=0.28
0.9726909750950945
% es.tEx (V/m) @ t=0.28
0.957329482807225
% es.tEy (V/m) @ t=0.28
0
% es.tEz (V/m) @ t=0.28
0.9726909750950767
% V (V) @ t=0.28
0.013220890148780216
% es.normE (V/m) @ t=0.3
1.4236782169241515
% es.EX (V/m) @ t=0.3
0.9666953576453103
% es.EY (V/m) @ t=0.3
0.27455362397465777
% es.EZ (V/m) @ t=0.3
0.982207157912125
% es.tEX (V/m) @ t=0.3
0.9666953576452926
% es.tEY (V/m) @ t=0.3
0
% es.tEZ (V/m) @ t=0.3
0.9822071579121143
% es.Ex (V/m) @ t=0.3
0.9666953576453103
% es.Ey (V/m) @ t=0.3
0.27455362397465777
% es.Ez (V/m) @ t=0.3
0.982207157912125
% es.tEx (V/m) @ t=0.3
0.9666953576452926
% es.tEy (V/m) @ t=0.3
0
% es.tEz (V/m) @ t=0.3
0.9822071579121143
% V (V) @ t=0.3
0.013350248783616268
% es.normE (V/m) @ t=0.32
1.4374714941779791
% es.EX (V/m) @ t=0.32
0.9760612324833495
% es.EY (V/m) @ t=0.32
0.27721333123490943
% es.EZ (V/m) @ t=0.32
0.9917233407291643
% es.tEX (V/m) @ t=0.32
0.9760612324833318
% es.tEY (V/m) @ t=0.32
0
% es.tEZ (V/m) @ t=0.32
0.9917233407291448
% es.Ex (V/m) @ t=0.32
0.9760612324833495
% es.Ey (V/m) @ t=0.32
0.27721333123490943
% es.Ez (V/m) @ t=0.32
0.9917233407291643
% es.tEx (V/m) @ t=0.32
0.9760612324833318
% es.tEy (V/m) @ t=0.32
0
% es.tEz (V/m) @ t=0.32
0.9917233407291448
% V (V) @ t=0.32
0.013479607418452319
% es.normE (V/m) @ t=0.34
1.4512647714319395
% es.EX (V/m) @ t=0.34
0.9854271073213994
% es.EY (V/m) @ t=0.34
0.2798730384951398
% es.EZ (V/m) @ t=0.34
1.001239523546218
% es.tEX (V/m) @ t=0.34
0.9854271073213852
% es.tEY (V/m) @ t=0.34
0
% es.tEZ (V/m) @ t=0.34
1.0012395235462037
% es.Ex (V/m) @ t=0.34
0.9854271073213994
% es.Ey (V/m) @ t=0.34
0.2798730384951398
% es.Ez (V/m) @ t=0.34
1.001239523546218
% es.tEx (V/m) @ t=0.34
0.9854271073213852
% es.tEy (V/m) @ t=0.34
0
% es.tEz (V/m) @ t=0.34
1.0012395235462037
% V (V) @ t=0.34
0.013608966053288374
% es.normE (V/m) @ t=0.36
1.4650580486860119
% es.EX (V/m) @ t=0.36
0.9947929821594244
% es.EY (V/m) @ t=0.36
0.28253274575539855
% es.EZ (V/m) @ t=0.36
1.0107557063632697
% es.tEX (V/m) @ t=0.36
0.9947929821594101
% es.tEY (V/m) @ t=0.36
0
% es.tEZ (V/m) @ t=0.36
1.0107557063632484
% es.Ex (V/m) @ t=0.36
0.9947929821594244
% es.Ey (V/m) @ t=0.36
0.28253274575539855
% es.Ez (V/m) @ t=0.36
1.0107557063632697
% es.tEx (V/m) @ t=0.36
0.9947929821594101
% es.tEy (V/m) @ t=0.36
0
% es.tEz (V/m) @ t=0.36
1.0107557063632484
% V (V) @ t=0.36
0.013738324688124425
% es.normE (V/m) @ t=0.38
1.4788513259401657
% es.EX (V/m) @ t=0.38
1.004158856997421
% es.EY (V/m) @ t=0.38
0.28519245301567153
% es.EZ (V/m) @ t=0.38
1.0202718891802807
% es.tEX (V/m) @ t=0.38
1.0041588569974351
% es.tEY (V/m) @ t=0.38
0
% es.tEZ (V/m) @ t=0.38
1.0202718891802718
% es.Ex (V/m) @ t=0.38
1.004158856997421
% es.Ey (V/m) @ t=0.38
0.28519245301567153
% es.Ez (V/m) @ t=0.38
1.0202718891802807
% es.tEx (V/m) @ t=0.38
1.0041588569974351
% es.tEy (V/m) @ t=0.38
0
% es.tEz (V/m) @ t=0.38
1.0202718891802718
% V (V) @ t=0.38
0.013867683322960478
% es.normE (V/m) @ t=0.4
1.4926446031944778
% es.EX (V/m) @ t=0.4
1.0135247318354743
% es.EY (V/m) @ t=0.4
0.287852160275925
% es.EZ (V/m) @ t=0.4
1.0297880719973183
% es.tEX (V/m) @ t=0.4
1.0135247318354743
% es.tEY (V/m) @ t=0.4
0
% es.tEZ (V/m) @ t=0.4
1.0297880719973165
% es.Ex (V/m) @ t=0.4
1.0135247318354743
% es.Ey (V/m) @ t=0.4
0.287852160275925
% es.Ez (V/m) @ t=0.4
1.0297880719973183
% es.tEx (V/m) @ t=0.4
1.0135247318354743
% es.tEy (V/m) @ t=0.4
0
% es.tEz (V/m) @ t=0.4
1.0297880719973165
% V (V) @ t=0.4
0.013997041957796531
% es.normE (V/m) @ t=0.42
1.5064378804488991
% es.EX (V/m) @ t=0.42
1.0228906066734922
% es.EY (V/m) @ t=0.42
0.2905118675362033
% es.EZ (V/m) @ t=0.42
1.0393042548143594
% es.tEX (V/m) @ t=0.42
1.022890606673485
% es.tEY (V/m) @ t=0.42
0
% es.tEZ (V/m) @ t=0.42
1.039304254814347
% es.Ex (V/m) @ t=0.42
1.0228906066734922
% es.Ey (V/m) @ t=0.42
0.2905118675362033
% es.Ez (V/m) @ t=0.42
1.0393042548143594
% es.tEx (V/m) @ t=0.42
1.022890606673485
% es.tEy (V/m) @ t=0.42
0
% es.tEz (V/m) @ t=0.42
1.039304254814347
% V (V) @ t=0.42
0.014126400592632583
% es.normE (V/m) @ t=0.44
1.5202311577034593
% es.EX (V/m) @ t=0.44
1.0322564815115776
% es.EY (V/m) @ t=0.44
0.29317157479645317
% es.EZ (V/m) @ t=0.44
1.0488204376313863
% es.tEX (V/m) @ t=0.44
1.0322564815115527
% es.tEY (V/m) @ t=0.44
0
% es.tEZ (V/m) @ t=0.44
1.0488204376313632
% es.Ex (V/m) @ t=0.44
1.0322564815115776
% es.Ey (V/m) @ t=0.44
0.29317157479645317
% es.Ez (V/m) @ t=0.44
1.0488204376313863
% es.tEx (V/m) @ t=0.44
1.0322564815115527
% es.tEy (V/m) @ t=0.44
0
% es.tEz (V/m) @ t=0.44
1.0488204376313632
% V (V) @ t=0.44
0.014255759227468634
% es.normE (V/m) @ t=0.46
1.5340244349580603
% es.EX (V/m) @ t=0.46
1.04162235634956
% es.EY (V/m) @ t=0.46
0.29583128205669595
% es.EZ (V/m) @ t=0.46
1.058336620448431
% es.tEX (V/m) @ t=0.46
1.0416223563495492
% es.tEY (V/m) @ t=0.46
0
% es.tEZ (V/m) @ t=0.46
1.058336620448415
% es.Ex (V/m) @ t=0.46
1.04162235634956
% es.Ey (V/m) @ t=0.46
0.29583128205669595
% es.Ez (V/m) @ t=0.46
1.058336620448431
% es.tEx (V/m) @ t=0.46
1.0416223563495492
% es.tEy (V/m) @ t=0.46
0
% es.tEz (V/m) @ t=0.46
1.058336620448415
% V (V) @ t=0.46
0.014385117862304689
% es.normE (V/m) @ t=0.48
1.5478177122128178
% es.EX (V/m) @ t=0.48
1.0509882311875884
% es.EY (V/m) @ t=0.48
0.29849098931699203
% es.EZ (V/m) @ t=0.48
1.0678528032654775
% es.tEX (V/m) @ t=0.48
1.0509882311875742
% es.tEY (V/m) @ t=0.48
0
% es.tEZ (V/m) @ t=0.48
1.0678528032654668
% es.Ex (V/m) @ t=0.48
1.0509882311875884
% es.Ey (V/m) @ t=0.48
0.29849098931699203
% es.Ez (V/m) @ t=0.48
1.0678528032654775
% es.tEx (V/m) @ t=0.48
1.0509882311875742
% es.tEy (V/m) @ t=0.48
0
% es.tEz (V/m) @ t=0.48
1.0678528032654668
% V (V) @ t=0.48
0.014514476497140738
% es.normE (V/m) @ t=0.5
1.5616109894676697
% es.EX (V/m) @ t=0.5
1.0603541060256454
% es.EY (V/m) @ t=0.5
0.3011506965772277
% es.EZ (V/m) @ t=0.5
1.077368986082515
% es.tEX (V/m) @ t=0.5
1.0603541060256703
% es.tEY (V/m) @ t=0.5
0
% es.tEZ (V/m) @ t=0.5
1.0773689860825044
% es.Ex (V/m) @ t=0.5
1.0603541060256454
% es.Ey (V/m) @ t=0.5
0.3011506965772277
% es.Ez (V/m) @ t=0.5
1.077368986082515
% es.tEx (V/m) @ t=0.5
1.0603541060256703
% es.tEy (V/m) @ t=0.5
0
% es.tEz (V/m) @ t=0.5
1.0773689860825044
% V (V) @ t=0.5
0.014643835131976791
% es.normE (V/m) @ t=0.52
1.575876353891365
% es.EX (V/m) @ t=0.52
1.0700405253974203
% es.EY (V/m) @ t=0.52
0.3039014836187697
% es.EZ (V/m) @ t=0.52
1.087210854180638
% es.tEX (V/m) @ t=0.52
1.0700405253973884
% es.tEY (V/m) @ t=0.52
0
% es.tEZ (V/m) @ t=0.52
1.0872108541806185
% es.Ex (V/m) @ t=0.52
1.0700405253974203
% es.Ey (V/m) @ t=0.52
0.3039014836187697
% es.Ez (V/m) @ t=0.52
1.087210854180638
% es.tEx (V/m) @ t=0.52
1.0700405253973884
% es.tEy (V/m) @ t=0.52
0
% es.tEz (V/m) @ t=0.52
1.0872108541806185
% V (V) @ t=0.52
0.01477761872738478
% es.normE (V/m) @ t=0.54
1.5911654705173968
% es.EX (V/m) @ t=0.54
1.0804220667594677
% es.EY (V/m) @ t=0.54
0.3068497831809722
% es.EZ (V/m) @ t=0.54
1.0977589923192426
% es.tEX (V/m) @ t=0.54
1.0804220667594393
% es.tEY (V/m) @ t=0.54
0
% es.tEZ (V/m) @ t=0.54
1.0977589923192212
% es.Ex (V/m) @ t=0.54
1.0804220667594677
% es.Ey (V/m) @ t=0.54
0.3068497831809722
% es.Ez (V/m) @ t=0.54
1.0977589923192426
% es.tEx (V/m) @ t=0.54
1.0804220667594393
% es.tEy (V/m) @ t=0.54
0
% es.tEz (V/m) @ t=0.54
1.0977589923192212
% V (V) @ t=0.54
0.014920998142020117
% es.normE (V/m) @ t=0.56
1.6064545871435307
% es.EX (V/m) @ t=0.56
1.0908036081216004
% es.EY (V/m) @ t=0.56
0.30979808274315346
% es.EZ (V/m) @ t=0.56
1.1083071304578844
% es.tEX (V/m) @ t=0.56
1.090803608121604
% es.tEY (V/m) @ t=0.56
0
% es.tEZ (V/m) @ t=0.56
1.1083071304578667
% es.Ex (V/m) @ t=0.56
1.0908036081216004
% es.Ey (V/m) @ t=0.56
0.30979808274315346
% es.Ez (V/m) @ t=0.56
1.1083071304578844
% es.tEx (V/m) @ t=0.56
1.090803608121604
% es.tEy (V/m) @ t=0.56
0
% es.tEz (V/m) @ t=0.56
1.1083071304578667
% V (V) @ t=0.56
0.015064377556655451
% es.normE (V/m) @ t=0.58
1.6217437037696545
% es.EX (V/m) @ t=0.58
1.101185149483669
% es.EY (V/m) @ t=0.58
0.312746382305356
% es.EZ (V/m) @ t=0.58
1.118855268596521
% es.tEX (V/m) @ t=0.58
1.1011851494836549
% es.tEY (V/m) @ t=0.58
0
% es.tEZ (V/m) @ t=0.58
1.1188552685964979
% es.Ex (V/m) @ t=0.58
1.101185149483669
% es.Ey (V/m) @ t=0.58
0.312746382305356
% es.Ez (V/m) @ t=0.58
1.118855268596521
% es.tEx (V/m) @ t=0.58
1.1011851494836549
% es.tEy (V/m) @ t=0.58
0
% es.tEz (V/m) @ t=0.58
1.1188552685964979
% V (V) @ t=0.58
0.015207756971290785
% es.normE (V/m) @ t=0.6
1.6370328203957931
% es.EX (V/m) @ t=0.6
1.1115666908457627
% es.EY (V/m) @ t=0.6
0.31569468186759053
% es.EZ (V/m) @ t=0.6
1.1294034067351042
% es.tEX (V/m) @ t=0.6
1.1115666908457627
% es.tEY (V/m) @ t=0.6
0
% es.tEZ (V/m) @ t=0.6
1.1294034067350864
% es.Ex (V/m) @ t=0.6
1.1115666908457627
% es.Ey (V/m) @ t=0.6
0.31569468186759053
% es.Ez (V/m) @ t=0.6
1.1294034067351042
% es.tEx (V/m) @ t=0.6
1.1115666908457627
% es.tEy (V/m) @ t=0.6
0
% es.tEz (V/m) @ t=0.6
1.1294034067350864
% V (V) @ t=0.6
0.015351136385926119
% es.normE (V/m) @ t=0.62
1.6523219370219833
% es.EX (V/m) @ t=0.62
1.1219482322078562
% es.EY (V/m) @ t=0.62
0.31864298142981795
% es.EZ (V/m) @ t=0.62
1.139951544873739
% es.tEX (V/m) @ t=0.62
1.1219482322078136
% es.tEY (V/m) @ t=0.62
0
% es.tEZ (V/m) @ t=0.62
1.1399515448737176
% es.Ex (V/m) @ t=0.62
1.1219482322078562
% es.Ey (V/m) @ t=0.62
0.31864298142981795
% es.Ez (V/m) @ t=0.62
1.139951544873739
% es.tEx (V/m) @ t=0.62
1.1219482322078136
% es.tEy (V/m) @ t=0.62
0
% es.tEz (V/m) @ t=0.62
1.1399515448737176
% V (V) @ t=0.62
0.01549451580056145
% es.normE (V/m) @ t=0.64
1.6676110536481805
% es.EX (V/m) @ t=0.64
1.1323297735699498
% es.EY (V/m) @ t=0.64
0.32159128099194234
% es.EZ (V/m) @ t=0.64
1.1504996830123826
% es.tEX (V/m) @ t=0.64
1.1323297735699214
% es.tEY (V/m) @ t=0.64
0
% es.tEZ (V/m) @ t=0.64
1.1504996830123702
% es.Ex (V/m) @ t=0.64
1.1323297735699498
% es.Ey (V/m) @ t=0.64
0.32159128099194234
% es.Ez (V/m) @ t=0.64
1.1504996830123826
% es.tEx (V/m) @ t=0.64
1.1323297735699214
% es.tEy (V/m) @ t=0.64
0
% es.tEz (V/m) @ t=0.64
1.1504996830123702
% V (V) @ t=0.64
0.01563789521519679
% es.normE (V/m) @ t=0.66
1.6829001702743964
% es.EX (V/m) @ t=0.66
1.142711314932015
% es.EY (V/m) @ t=0.66
0.32453958055422305
% es.EZ (V/m) @ t=0.66
1.1610478211509854
% es.tEX (V/m) @ t=0.66
1.1427113149319723
% es.tEY (V/m) @ t=0.66
0
% es.tEZ (V/m) @ t=0.66
1.1610478211509658
% es.Ex (V/m) @ t=0.66
1.142711314932015
% es.Ey (V/m) @ t=0.66
0.32453958055422305
% es.Ez (V/m) @ t=0.66
1.1610478211509854
% es.tEx (V/m) @ t=0.66
1.1427113149319723
% es.tEy (V/m) @ t=0.66
0
% es.tEz (V/m) @ t=0.66
1.1610478211509658
% V (V) @ t=0.66
0.015781274629832122
% es.normE (V/m) @ t=0.68
1.6981892869006467
% es.EX (V/m) @ t=0.68
1.1530928562941156
% es.EY (V/m) @ t=0.68
0.3274878801163936
% es.EZ (V/m) @ t=0.68
1.1715959592896272
% es.tEX (V/m) @ t=0.68
1.1530928562941085
% es.tEY (V/m) @ t=0.68
0
% es.tEZ (V/m) @ t=0.68
1.1715959592896112
% es.Ex (V/m) @ t=0.68
1.1530928562941156
% es.Ey (V/m) @ t=0.68
0.3274878801163936
% es.Ez (V/m) @ t=0.68
1.1715959592896272
% es.tEx (V/m) @ t=0.68
1.1530928562941085
% es.tEy (V/m) @ t=0.68
0
% es.tEz (V/m) @ t=0.68
1.1715959592896112
% V (V) @ t=0.68
0.01592465404446746
% es.normE (V/m) @ t=0.7
1.713478403526925
% es.EX (V/m) @ t=0.7
1.1634743976562092
% es.EY (V/m) @ t=0.7
0.33043617967856065
% es.EZ (V/m) @ t=0.7
1.1821440974282584
% es.tEX (V/m) @ t=0.7
1.1634743976561879
% es.tEY (V/m) @ t=0.7
0
% es.tEZ (V/m) @ t=0.7
1.1821440974282353
% es.Ex (V/m) @ t=0.7
1.1634743976562092
% es.Ey (V/m) @ t=0.7
0.33043617967856065
% es.Ez (V/m) @ t=0.7
1.1821440974282584
% es.tEx (V/m) @ t=0.7
1.1634743976561879
% es.tEy (V/m) @ t=0.7
0
% es.tEz (V/m) @ t=0.7
1.1821440974282353
% V (V) @ t=0.7
0.016068033459102793
% es.normE (V/m) @ t=0.72
1.7287675201531258
% es.EX (V/m) @ t=0.72
1.1738559390181962
% es.EY (V/m) @ t=0.72
0.3333844792408769
% es.EZ (V/m) @ t=0.72
1.1926922355668168
% es.tEX (V/m) @ t=0.72
1.173855939018182
% es.tEY (V/m) @ t=0.72
0
% es.tEZ (V/m) @ t=0.72
1.1926922355668026
% es.Ex (V/m) @ t=0.72
1.1738559390181962
% es.Ey (V/m) @ t=0.72
0.3333844792408769
% es.Ez (V/m) @ t=0.72
1.1926922355668168
% es.tEx (V/m) @ t=0.72
1.173855939018182
% es.tEy (V/m) @ t=0.72
0
% es.tEz (V/m) @ t=0.72
1.1926922355668026
% V (V) @ t=0.72
0.016211412873738125
% es.normE (V/m) @ t=0.74
1.7440566367795194
% es.EX (V/m) @ t=0.74
1.184237480380375
% es.EY (V/m) @ t=0.74
0.3363327788029764
% es.EZ (V/m) @ t=0.74
1.2032403737055013
% es.tEX (V/m) @ t=0.74
1.184237480380375
% es.tEY (V/m) @ t=0.74
0
% es.tEZ (V/m) @ t=0.74
1.2032403737054835
% es.Ex (V/m) @ t=0.74
1.184237480380375
% es.Ey (V/m) @ t=0.74
0.3363327788029764
% es.Ez (V/m) @ t=0.74
1.2032403737055013
% es.tEx (V/m) @ t=0.74
1.184237480380375
% es.tEy (V/m) @ t=0.74
0
% es.tEz (V/m) @ t=0.74
1.2032403737054835
% V (V) @ t=0.74
0.016354792288373464
% es.normE (V/m) @ t=0.76
1.7593457534058135
% es.EX (V/m) @ t=0.76
1.1946190217423904
% es.EY (V/m) @ t=0.76
0.3392810783652749
% es.EZ (V/m) @ t=0.76
1.2137885118441059
% es.tEX (V/m) @ t=0.76
1.1946190217423975
% es.tEY (V/m) @ t=0.76
0
% es.tEZ (V/m) @ t=0.76
1.2137885118440934
% es.Ex (V/m) @ t=0.76
1.1946190217423904
% es.Ey (V/m) @ t=0.76
0.3392810783652749
% es.Ez (V/m) @ t=0.76
1.2137885118441059
% es.tEx (V/m) @ t=0.76
1.1946190217423975
% es.tEy (V/m) @ t=0.76
0
% es.tEz (V/m) @ t=0.76
1.2137885118440934
% V (V) @ t=0.76
0.016498171703008796
% es.normE (V/m) @ t=0.78
1.7754379939961757
% es.EX (V/m) @ t=0.78
1.2055458778696604
% es.EY (V/m) @ t=0.78
0.34238433282285996
% es.EZ (V/m) @ t=0.78
1.2248907098418087
% es.tEX (V/m) @ t=0.78
1.2055458778696675
% es.tEY (V/m) @ t=0.78
0
% es.tEZ (V/m) @ t=0.78
1.2248907098417945
% es.Ex (V/m) @ t=0.78
1.2055458778696604
% es.Ey (V/m) @ t=0.78
0.34238433282285996
% es.Ez (V/m) @ t=0.78
1.2248907098418087
% es.tEx (V/m) @ t=0.78
1.2055458778696675
% es.tEy (V/m) @ t=0.78
0
% es.tEz (V/m) @ t=0.78
1.2248907098417945
% V (V) @ t=0.78
0.01664907854469626
% es.normE (V/m) @ t=0.8
1.7924124523049394
% es.EX (V/m) @ t=0.8
1.217071752790261
% es.EY (V/m) @ t=0.8
0.3456578025405186
% es.EZ (V/m) @ t=0.8
1.2366015329667572
% es.tEX (V/m) @ t=0.8
1.2170717527902752
% es.tEY (V/m) @ t=0.8
0
% es.tEZ (V/m) @ t=0.8
1.2366015329667377
% es.Ex (V/m) @ t=0.8
1.217071752790261
% es.Ey (V/m) @ t=0.8
0.3456578025405186
% es.Ez (V/m) @ t=0.8
1.2366015329667572
% es.tEx (V/m) @ t=0.8
1.2170717527902752
% es.tEy (V/m) @ t=0.8
0
% es.tEz (V/m) @ t=0.8
1.2366015329667377
% V (V) @ t=0.8
0.016808254134196336
% es.normE (V/m) @ t=0.82
1.8093869106138745
% es.EX (V/m) @ t=0.82
1.2285976277110109
% es.EY (V/m) @ t=0.82
0.34893127225821985
% es.EZ (V/m) @ t=0.82
1.2483123560917804
% es.tEX (V/m) @ t=0.82
1.2285976277109683
% es.tEY (V/m) @ t=0.82
0
% es.tEZ (V/m) @ t=0.82
1.248312356091759
% es.Ex (V/m) @ t=0.82
1.2285976277110109
% es.Ey (V/m) @ t=0.82
0.34893127225821985
% es.Ez (V/m) @ t=0.82
1.2483123560917804
% es.tEx (V/m) @ t=0.82
1.2285976277109683
% es.tEy (V/m) @ t=0.82
0
% es.tEz (V/m) @ t=0.82
1.248312356091759
% V (V) @ t=0.82
0.016967429723696414
% es.normE (V/m) @ t=0.84
1.8263613689227571
% es.EX (V/m) @ t=0.84
1.240123502631782
% es.EY (V/m) @ t=0.84
0.35220474197585716
% es.EZ (V/m) @ t=0.84
1.2600231792167325
% es.tEX (V/m) @ t=0.84
1.2401235026317465
% es.tEY (V/m) @ t=0.84
0
% es.tEZ (V/m) @ t=0.84
1.2600231792167165
% es.Ex (V/m) @ t=0.84
1.240123502631782
% es.Ey (V/m) @ t=0.84
0.35220474197585716
% es.Ez (V/m) @ t=0.84
1.2600231792167325
% es.tEx (V/m) @ t=0.84
1.2401235026317465
% es.tEy (V/m) @ t=0.84
0
% es.tEz (V/m) @ t=0.84
1.2600231792167165
% V (V) @ t=0.84
0.017126605313196486
% es.normE (V/m) @ t=0.86
1.843335827231594
% es.EX (V/m) @ t=0.86
1.2516493775524253
% es.EY (V/m) @ t=0.86
0.3554782116935762
% es.EZ (V/m) @ t=0.86
1.271734002341713
% es.tEX (V/m) @ t=0.86
1.2516493775524111
% es.tEY (V/m) @ t=0.86
0
% es.tEZ (V/m) @ t=0.86
1.271734002341688
% es.Ex (V/m) @ t=0.86
1.2516493775524253
% es.Ey (V/m) @ t=0.86
0.3554782116935762
% es.Ez (V/m) @ t=0.86
1.271734002341713
% es.tEx (V/m) @ t=0.86
1.2516493775524111
% es.tEy (V/m) @ t=0.86
0
% es.tEz (V/m) @ t=0.86
1.271734002341688
% V (V) @ t=0.86
0.017285780902696564
% es.normE (V/m) @ t=0.88
1.8603102855404519
% es.EX (V/m) @ t=0.88
1.2631752524731397
% es.EY (V/m) @ t=0.88
0.3587516814112064
% es.EZ (V/m) @ t=0.88
1.2834448254666846
% es.tEX (V/m) @ t=0.88
1.2631752524731326
% es.tEY (V/m) @ t=0.88
0
% es.tEZ (V/m) @ t=0.88
1.283444825466674
% es.Ex (V/m) @ t=0.88
1.2631752524731397
% es.Ey (V/m) @ t=0.88
0.3587516814112064
% es.Ez (V/m) @ t=0.88
1.2834448254666846
% es.tEx (V/m) @ t=0.88
1.2631752524731326
% es.tEy (V/m) @ t=0.88
0
% es.tEz (V/m) @ t=0.88
1.283444825466674
% V (V) @ t=0.88
0.017444956492196642
% es.normE (V/m) @ t=0.9
1.8772847438492641
% es.EX (V/m) @ t=0.9
1.2747011273937972
% es.EY (V/m) @ t=0.9
0.362025151128865
% es.EZ (V/m) @ t=0.9
1.295155648591642
% es.tEX (V/m) @ t=0.9
1.2747011273937972
% es.tEY (V/m) @ t=0.9
0
% es.tEZ (V/m) @ t=0.9
1.2951556485916313
% es.Ex (V/m) @ t=0.9
1.2747011273937972
% es.Ey (V/m) @ t=0.9
0.362025151128865
% es.Ez (V/m) @ t=0.9
1.295155648591642
% es.tEx (V/m) @ t=0.9
1.2747011273937972
% es.tEy (V/m) @ t=0.9
0
% es.tEz (V/m) @ t=0.9
1.2951556485916313
% V (V) @ t=0.9
0.017604132081696717
% es.normE (V/m) @ t=0.92
1.8942592021581581
% es.EX (V/m) @ t=0.92
1.286227002314547
% es.EY (V/m) @ t=0.92
0.36529862084653075
% es.EZ (V/m) @ t=0.92
1.3068664717166136
% es.tEX (V/m) @ t=0.92
1.2862270023145186
% es.tEY (V/m) @ t=0.92
0
% es.tEZ (V/m) @ t=0.92
1.306866471716603
% es.Ex (V/m) @ t=0.92
1.286227002314547
% es.Ey (V/m) @ t=0.92
0.36529862084653075
% es.Ez (V/m) @ t=0.92
1.3068664717166136
% es.tEx (V/m) @ t=0.92
1.2862270023145186
% es.tEy (V/m) @ t=0.92
0
% es.tEz (V/m) @ t=0.92
1.306866471716603
% V (V) @ t=0.92
0.01776330767119679
% es.normE (V/m) @ t=0.94
1.9112336604670483
% es.EX (V/m) @ t=0.94
1.2977528772352684
% es.EY (V/m) @ t=0.94
0.3685720905641716
% es.EZ (V/m) @ t=0.94
1.318577294841619
% es.tEX (V/m) @ t=0.94
1.2977528772352684
% es.tEY (V/m) @ t=0.94
0
% es.tEZ (V/m) @ t=0.94
1.3185772948415888
% es.Ex (V/m) @ t=0.94
1.2977528772352684
% es.Ey (V/m) @ t=0.94
0.3685720905641716
% es.Ez (V/m) @ t=0.94
1.318577294841619
% es.tEx (V/m) @ t=0.94
1.2977528772352684
% es.tEy (V/m) @ t=0.94
0
% es.tEz (V/m) @ t=0.94
1.3185772948415888
% V (V) @ t=0.94
0.01792248326069687
% es.normE (V/m) @ t=0.96
1.9282081187758782
% es.EX (V/m) @ t=0.96
1.3092787521559544
% es.EY (V/m) @ t=0.96
0.3718455602818551
% es.EZ (V/m) @ t=0.96
1.3302881179665569
% es.tEX (V/m) @ t=0.96
1.309278752155933
% es.tEY (V/m) @ t=0.96
0
% es.tEZ (V/m) @ t=0.96
1.3302881179665178
% es.Ex (V/m) @ t=0.96
1.3092787521559544
% es.Ey (V/m) @ t=0.96
0.3718455602818551
% es.Ez (V/m) @ t=0.96
1.3302881179665569
% es.tEx (V/m) @ t=0.96
1.309278752155933
% es.tEy (V/m) @ t=0.96
0
% es.tEz (V/m) @ t=0.96
1.3302881179665178
% V (V) @ t=0.96
0.018081658850196948
% es.normE (V/m) @ t=0.98
1.9451825770847577
% es.EX (V/m) @ t=0.98
1.32080462707669
% es.EY (V/m) @ t=0.98
0.37511902999952085
% es.EZ (V/m) @ t=0.98
1.3419989410915178
% es.tEX (V/m) @ t=0.98
1.320804627076683
% es.tEY (V/m) @ t=0.98
0
% es.tEZ (V/m) @ t=0.98
1.3419989410915036
% es.Ex (V/m) @ t=0.98
1.32080462707669
% es.Ey (V/m) @ t=0.98
0.37511902999952085
% es.Ez (V/m) @ t=0.98
1.3419989410915178
% es.tEx (V/m) @ t=0.98
1.320804627076683
% es.tEy (V/m) @ t=0.98
0
% es.tEz (V/m) @ t=0.98
1.3419989410915036
% V (V) @ t=0.98
0.018240834439697023
% es.normE (V/m) @ t=1
1.9621570353936417
% es.EX (V/m) @ t=1
1.3323305019974327
% es.EY (V/m) @ t=1
0.37839249971713684
% es.EZ (V/m) @ t=1
1.3537097642165037
% es.tEX (V/m) @ t=1
1.332330501997376
% es.tEY (V/m) @ t=1
0
% es.tEZ (V/m) @ t=1
1.3537097642164895
% es.Ex (V/m) @ t=1
1.3323305019974327
% es.Ey (V/m) @ t=1
0.37839249971713684
% es.Ez (V/m) @ t=1
1.3537097642165037
% es.tEx (V/m) @ t=1
1.332330501997376
% es.tEy (V/m) @ t=1
0
% es.tEz (V/m) @ t=1
1.3537097642164895
% V (V) @ t=1
0.018400010029197097
% es.normE (V/m) @ t=1.02
1.9791314937024538
% es.EX (V/m) @ t=1.02
1.3438563769180192
% es.EY (V/m) @ t=1.02
0.38166596943487363
% es.EZ (V/m) @ t=1.02
1.3654205873414806
% es.tEX (V/m) @ t=1.02
1.3438563769179837
% es.tEY (V/m) @ t=1.02
0
% es.tEZ (V/m) @ t=1.02
1.3654205873414753
% es.Ex (V/m) @ t=1.02
1.3438563769180192
% es.Ey (V/m) @ t=1.02
0.38166596943487363
% es.Ez (V/m) @ t=1.02
1.3654205873414806
% es.tEx (V/m) @ t=1.02
1.3438563769179837
% es.tEy (V/m) @ t=1.02
0
% es.tEz (V/m) @ t=1.02
1.3654205873414753
% V (V) @ t=1.02
0.018559185618697176
% es.normE (V/m) @ t=1.04
1.996625636941271
% es.EX (V/m) @ t=1.04
1.3557351101141606
% es.EY (V/m) @ t=1.04
0.38503972375572104
% es.EZ (V/m) @ t=1.04
1.3774899262488685
% es.tEX (V/m) @ t=1.04
1.3557351101141535
% es.tEY (V/m) @ t=1.04
0
% es.tEZ (V/m) @ t=1.04
1.3774899262488418
% es.Ex (V/m) @ t=1.04
1.3557351101141606
% es.Ey (V/m) @ t=1.04
0.38503972375572104
% es.Ez (V/m) @ t=1.04
1.3774899262488685
% es.tEx (V/m) @ t=1.04
1.3557351101141535
% es.tEy (V/m) @ t=1.04