% Model:              1 neuron.mph
% Version:            COMSOL 6.1.0.252
% Date:               Mar 22 2023, 19:35
% Dimension:          0
% Nodes:              14017
% Expressions:        14017
% Description:        Electric field norm, Electric field, X component, Electric field, Y component, Electric field, Z component, Tangential electric field, X component, Tangential electric field, Y component, Tangential electric field, Z component, Electric field, x component, Electric field, y component, Electric field, z component, Tangential electric field, x component, Tangential electric field, y component, Tangential electric field, z component, Electric potential
% Length unit:        mm
% x
1.3300000000000003
% y
12.200000000000001
% z
1.66
% es.normE (V/m) @ t=0
13.32795568011792
% es.EX (V/m) @ t=0
8.457914226631807
% es.EY (V/m) @ t=0
2.529211436967191
% es.EZ (V/m) @ t=0
-9.264528350279152
% es.tEX (V/m) @ t=0
8.457914226631793
% es.tEY (V/m) @ t=0
0
% es.tEZ (V/m) @ t=0
-9.264528350279145
% es.Ex (V/m) @ t=0
8.457914226631807
% es.Ey (V/m) @ t=0
2.529211436967191
% es.Ez (V/m) @ t=0
-9.264528350279152
% es.tEx (V/m) @ t=0
8.457914226631793
% es.tEy (V/m) @ t=0
0
% es.tEz (V/m) @ t=0
-9.264528350279145
% V (V) @ t=0
0.011416439383136788
% es.normE (V/m) @ t=0.02
11.511492816372776
% es.EX (V/m) @ t=0.02
7.305187773103704
% es.EY (V/m) @ t=0.02
2.1845060102239646
% es.EZ (V/m) @ t=0.02
-8.001868711102176
% es.tEX (V/m) @ t=0.02
7.305187773103682
% es.tEY (V/m) @ t=0.02
0
% es.tEZ (V/m) @ t=0.02
-8.001868711102167
% es.Ex (V/m) @ t=0.02
7.305187773103704
% es.Ey (V/m) @ t=0.02
2.1845060102239646
% es.Ez (V/m) @ t=0.02
-8.001868711102176
% es.tEx (V/m) @ t=0.02
7.305187773103682
% es.tEy (V/m) @ t=0.02
0
% es.tEz (V/m) @ t=0.02
-8.001868711102167
% V (V) @ t=0.02
0.00986049646807087
% es.normE (V/m) @ t=0.04
11.617391169706107
% es.EX (V/m) @ t=0.04
7.372390814575237
% es.EY (V/m) @ t=0.04
2.2046020649843845
% es.EZ (V/m) @ t=0.04
-8.075480774882369
% es.tEX (V/m) @ t=0.04
7.3723908145752155
% es.tEY (V/m) @ t=0.04
0
% es.tEZ (V/m) @ t=0.04
-8.075480774882346
% es.Ex (V/m) @ t=0.04
7.372390814575237
% es.Ey (V/m) @ t=0.04
2.2046020649843845
% es.Ez (V/m) @ t=0.04
-8.075480774882369
% es.tEx (V/m) @ t=0.04
7.3723908145752155
% es.tEy (V/m) @ t=0.04
0
% es.tEz (V/m) @ t=0.04
-8.075480774882346
% V (V) @ t=0.04
0.009951206719981575
% es.normE (V/m) @ t=0.06
11.72405668441699
% es.EX (V/m) @ t=0.06
7.440080690108728
% es.EY (V/m) @ t=0.06
2.2248437021728122
% es.EZ (V/m) @ t=0.06
-8.149626113207923
% es.tEX (V/m) @ t=0.06
7.440080690108713
% es.tEY (V/m) @ t=0.06
0
% es.tEZ (V/m) @ t=0.06
-8.149626113207914
% es.Ex (V/m) @ t=0.06
7.440080690108728
% es.Ey (V/m) @ t=0.06
2.2248437021728122
% es.Ez (V/m) @ t=0.06
-8.149626113207923
% es.tEx (V/m) @ t=0.06
7.440080690108713
% es.tEy (V/m) @ t=0.06
0
% es.tEz (V/m) @ t=0.06
-8.149626113207914
% V (V) @ t=0.06
0.010042574122805759
% es.normE (V/m) @ t=0.08
11.832777046615256
% es.EX (V/m) @ t=0.08
7.509074571507872
% es.EY (V/m) @ t=0.08
2.2454752824207107
% es.EZ (V/m) @ t=0.08
-8.225199816519476
% es.tEX (V/m) @ t=0.08
7.509074571507865
% es.tEY (V/m) @ t=0.08
0
% es.tEZ (V/m) @ t=0.08
-8.225199816519453
% es.Ex (V/m) @ t=0.08
7.509074571507872
% es.Ey (V/m) @ t=0.08
2.2454752824207107
% es.Ez (V/m) @ t=0.08
-8.225199816519476
% es.tEx (V/m) @ t=0.08
7.509074571507865
% es.tEy (V/m) @ t=0.08
0
% es.tEz (V/m) @ t=0.08
-8.225199816519453
% V (V) @ t=0.08
0.010135701661879193
% es.normE (V/m) @ t=0.1
11.942036508691878
% es.EX (V/m) @ t=0.1
7.5784105655980305
% es.EY (V/m) @ t=0.1
2.266209166249469
% es.EZ (V/m) @ t=0.1
-8.301148258781227
% es.tEX (V/m) @ t=0.1
7.57841056559803
% es.tEY (V/m) @ t=0.1
0
% es.tEZ (V/m) @ t=0.1
-8.301148258781204
% es.Ex (V/m) @ t=0.1
7.5784105655980305
% es.Ey (V/m) @ t=0.1
2.266209166249469
% es.Ez (V/m) @ t=0.1
-8.301148258781227
% es.tEx (V/m) @ t=0.1
7.57841056559803
% es.tEy (V/m) @ t=0.1
0
% es.tEz (V/m) @ t=0.1
-8.301148258781204
% V (V) @ t=0.1
0.010229290981811648
% es.normE (V/m) @ t=0.12
12.051295970768503
% es.EX (V/m) @ t=0.12
7.647746559688217
% es.EY (V/m) @ t=0.12
2.2869430500781185
% es.EZ (V/m) @ t=0.12
-8.377096701042946
% es.tEX (V/m) @ t=0.12
7.647746559688188
% es.tEY (V/m) @ t=0.12
0
% es.tEZ (V/m) @ t=0.12
-8.377096701042932
% es.Ex (V/m) @ t=0.12
7.647746559688217
% es.Ey (V/m) @ t=0.12
2.2869430500781185
% es.Ez (V/m) @ t=0.12
-8.377096701042946
% es.tEx (V/m) @ t=0.12
7.647746559688188
% es.tEy (V/m) @ t=0.12
0
% es.tEz (V/m) @ t=0.12
-8.377096701042932
% V (V) @ t=0.12
0.0103228803017441
% es.normE (V/m) @ t=0.14
12.163785804402746
% es.EX (V/m) @ t=0.14
7.719132549014249
% es.EY (V/m) @ t=0.14
2.308289952960824
% es.EZ (V/m) @ t=0.14
-8.455290636547854
% es.tEX (V/m) @ t=0.14
7.719132549014234
% es.tEY (V/m) @ t=0.14
0
% es.tEZ (V/m) @ t=0.14
-8.455290636547845
% es.Ex (V/m) @ t=0.14
7.719132549014249
% es.Ey (V/m) @ t=0.14
2.308289952960824
% es.Ez (V/m) @ t=0.14
-8.455290636547854
% es.tEx (V/m) @ t=0.14
7.719132549014234
% es.tEy (V/m) @ t=0.14
0
% es.tEz (V/m) @ t=0.14
-8.455290636547845
% V (V) @ t=0.14
0.010419236680015322
% es.normE (V/m) @ t=0.16
12.278514972802755
% es.EX (V/m) @ t=0.16
7.791939621184616
% es.EY (V/m) @ t=0.16
2.330061808470522
% es.EZ (V/m) @ t=0.16
-8.535041176609244
% es.tEX (V/m) @ t=0.16
7.791939621184594
% es.tEY (V/m) @ t=0.16
0
% es.tEZ (V/m) @ t=0.16
-8.535041176609223
% es.Ex (V/m) @ t=0.16
7.791939621184616
% es.Ey (V/m) @ t=0.16
2.330061808470522
% es.Ez (V/m) @ t=0.16
-8.535041176609244
% es.tEx (V/m) @ t=0.16
7.791939621184594
% es.tEy (V/m) @ t=0.16
0
% es.tEz (V/m) @ t=0.16
-8.535041176609223
% V (V) @ t=0.16
0.010517511218419623
% es.normE (V/m) @ t=0.18
12.393244141202727
% es.EX (V/m) @ t=0.18
7.8647466933549826
% es.EY (V/m) @ t=0.18
2.3518336639801953
% es.EZ (V/m) @ t=0.18
-8.614791716670604
% es.tEX (V/m) @ t=0.18
7.864746693354946
% es.tEY (V/m) @ t=0.18
0
% es.tEZ (V/m) @ t=0.18
-8.614791716670588
% es.Ex (V/m) @ t=0.18
7.8647466933549826
% es.Ey (V/m) @ t=0.18
2.3518336639801953
% es.Ez (V/m) @ t=0.18
-8.614791716670604
% es.tEx (V/m) @ t=0.18
7.864746693354946
% es.tEy (V/m) @ t=0.18
0
% es.tEz (V/m) @ t=0.18
-8.614791716670588
% V (V) @ t=0.18
0.010615785756823926
% es.normE (V/m) @ t=0.2
12.507973309602717
% es.EX (V/m) @ t=0.2
7.937553765525327
% es.EY (V/m) @ t=0.2
2.3736055194898826
% es.EZ (V/m) @ t=0.2
-8.694542256731992
% es.tEX (V/m) @ t=0.2
7.937553765525312
% es.tEY (V/m) @ t=0.2
0
% es.tEZ (V/m) @ t=0.2
-8.694542256731976
% es.Ex (V/m) @ t=0.2
7.937553765525327
% es.Ey (V/m) @ t=0.2
2.3736055194898826
% es.Ez (V/m) @ t=0.2
-8.694542256731992
% es.tEx (V/m) @ t=0.2
7.937553765525312
% es.tEy (V/m) @ t=0.2
0
% es.tEz (V/m) @ t=0.2
-8.694542256731976
% V (V) @ t=0.2
0.010714060295228225
% es.normE (V/m) @ t=0.22
12.622702478002719
% es.EX (V/m) @ t=0.22
8.010360837695695
% es.EY (V/m) @ t=0.22
2.395377374999616
% es.EZ (V/m) @ t=0.22
-8.774292796793375
% es.tEX (V/m) @ t=0.22
8.01036083769565
% es.tEY (V/m) @ t=0.22
0
% es.tEZ (V/m) @ t=0.22
-8.774292796793354
% es.Ex (V/m) @ t=0.22
8.010360837695695
% es.Ey (V/m) @ t=0.22
2.395377374999616
% es.Ez (V/m) @ t=0.22
-8.774292796793375
% es.tEx (V/m) @ t=0.22
8.01036083769565
% es.tEy (V/m) @ t=0.22
0
% es.tEz (V/m) @ t=0.22
-8.774292796793354
% V (V) @ t=0.22
0.01081233483363253
% es.normE (V/m) @ t=0.24
12.737431646402692
% es.EX (V/m) @ t=0.24
8.083167909866033
% es.EY (V/m) @ t=0.24
2.4171492305093034
% es.EZ (V/m) @ t=0.24
-8.854043336854746
% es.tEX (V/m) @ t=0.24
8.08316790986601
% es.tEY (V/m) @ t=0.24
0
% es.tEZ (V/m) @ t=0.24
-8.854043336854724
% es.Ex (V/m) @ t=0.24
8.083167909866033
% es.Ey (V/m) @ t=0.24
2.4171492305093034
% es.Ez (V/m) @ t=0.24
-8.854043336854746
% es.tEx (V/m) @ t=0.24
8.08316790986601
% es.tEy (V/m) @ t=0.24
0
% es.tEz (V/m) @ t=0.24
-8.854043336854724
% V (V) @ t=0.24
0.010910609372036832
% es.normE (V/m) @ t=0.26
12.854449773130568
% es.EX (V/m) @ t=0.26
8.15742751709011
% es.EY (V/m) @ t=0.26
2.4393554562815973
% es.EZ (V/m) @ t=0.26
-8.935385009708481
% es.tEX (V/m) @ t=0.26
8.157427517090092
% es.tEY (V/m) @ t=0.26
0
% es.tEZ (V/m) @ t=0.26
-8.93538500970846
% es.Ex (V/m) @ t=0.26
8.15742751709011
% es.Ey (V/m) @ t=0.26
2.4393554562815973
% es.Ez (V/m) @ t=0.26
-8.935385009708481
% es.tEx (V/m) @ t=0.26
8.157427517090092
% es.tEy (V/m) @ t=0.26
0
% es.tEz (V/m) @ t=0.26
-8.93538500970846
% V (V) @ t=0.26
0.011010844684835888
% es.normE (V/m) @ t=0.28
12.981390656217837
% es.EX (V/m) @ t=0.28
8.237983941196248
% es.EY (V/m) @ t=0.28
2.4634447002956494
% es.EZ (V/m) @ t=0.28
-9.023624328029037
% es.tEX (V/m) @ t=0.28
8.23798394119622
% es.tEY (V/m) @ t=0.28
0
% es.tEZ (V/m) @ t=0.28
-9.023624328029015
% es.Ex (V/m) @ t=0.28
8.237983941196248
% es.Ey (V/m) @ t=0.28
2.4634447002956494
% es.Ez (V/m) @ t=0.28
-9.023624328029037
% es.tEx (V/m) @ t=0.28
8.23798394119622
% es.tEy (V/m) @ t=0.28
0
% es.tEz (V/m) @ t=0.28
-9.023624328029015
% V (V) @ t=0.28
0.01111958005915105
% es.normE (V/m) @ t=0.3
13.108331539305095
% es.EX (V/m) @ t=0.3
8.31854036530234
% es.EY (V/m) @ t=0.3
2.487533944309708
% es.EZ (V/m) @ t=0.3
-9.111863646349594
% es.tEX (V/m) @ t=0.3
8.318540365302333
% es.tEY (V/m) @ t=0.3
0
% es.tEZ (V/m) @ t=0.3
-9.111863646349573
% es.Ex (V/m) @ t=0.3
8.31854036530234
% es.Ey (V/m) @ t=0.3
2.487533944309708
% es.Ez (V/m) @ t=0.3
-9.111863646349594
% es.tEx (V/m) @ t=0.3
8.318540365302333
% es.tEy (V/m) @ t=0.3
0
% es.tEz (V/m) @ t=0.3
-9.111863646349573
% V (V) @ t=0.3
0.011228315433466213
% es.normE (V/m) @ t=0.32
13.235272422392395
% es.EX (V/m) @ t=0.32
8.399096789408494
% es.EY (V/m) @ t=0.32
2.5116231883237634
% es.EZ (V/m) @ t=0.32
-9.200102964670144
% es.tEX (V/m) @ t=0.32
8.399096789408468
% es.tEY (V/m) @ t=0.32
0
% es.tEZ (V/m) @ t=0.32
-9.200102964670128
% es.Ex (V/m) @ t=0.32
8.399096789408494
% es.Ey (V/m) @ t=0.32
2.5116231883237634
% es.Ez (V/m) @ t=0.32
-9.200102964670144
% es.tEx (V/m) @ t=0.32
8.399096789408468
% es.tEy (V/m) @ t=0.32
0
% es.tEz (V/m) @ t=0.32
-9.200102964670128
% V (V) @ t=0.32
0.011337050807781378
% es.normE (V/m) @ t=0.34
13.362213305479663
% es.EX (V/m) @ t=0.34
8.479653213514618
% es.EY (V/m) @ t=0.34
2.535712432337794
% es.EZ (V/m) @ t=0.34
-9.288342282990683
% es.tEX (V/m) @ t=0.34
8.47965321351461
% es.tEY (V/m) @ t=0.34
0
% es.tEZ (V/m) @ t=0.34
-9.288342282990662
% es.Ex (V/m) @ t=0.34
8.479653213514618
% es.Ey (V/m) @ t=0.34
2.535712432337794
% es.Ez (V/m) @ t=0.34
-9.288342282990683
% es.tEx (V/m) @ t=0.34
8.47965321351461
% es.tEy (V/m) @ t=0.34
0
% es.tEz (V/m) @ t=0.34
-9.288342282990662
% V (V) @ t=0.34
0.01144578618209654
% es.normE (V/m) @ t=0.36
13.489154188566948
% es.EX (V/m) @ t=0.36
8.560209637620748
% es.EY (V/m) @ t=0.36
2.559801676351846
% es.EZ (V/m) @ t=0.36
-9.37658160131124
% es.tEX (V/m) @ t=0.36
8.560209637620732
% es.tEY (V/m) @ t=0.36
0
% es.tEZ (V/m) @ t=0.36
-9.37658160131122
% es.Ex (V/m) @ t=0.36
8.560209637620748
% es.Ey (V/m) @ t=0.36
2.559801676351846
% es.Ez (V/m) @ t=0.36
-9.37658160131124
% es.tEx (V/m) @ t=0.36
8.560209637620732
% es.tEy (V/m) @ t=0.36
0
% es.tEz (V/m) @ t=0.36
-9.37658160131122
% V (V) @ t=0.36
0.011554521556411705
% es.normE (V/m) @ t=0.38
13.616095071654229
% es.EX (V/m) @ t=0.38
8.640766061726893
% es.EY (V/m) @ t=0.38
2.5838909203658553
% es.EZ (V/m) @ t=0.38
-9.464820919631762
% es.tEX (V/m) @ t=0.38
8.64076606172686
% es.tEY (V/m) @ t=0.38
0
% es.tEZ (V/m) @ t=0.38
-9.46482091963174
% es.Ex (V/m) @ t=0.38
8.640766061726893
% es.Ey (V/m) @ t=0.38
2.5838909203658553
% es.Ez (V/m) @ t=0.38
-9.464820919631762
% es.tEx (V/m) @ t=0.38
8.64076606172686
% es.tEy (V/m) @ t=0.38
0
% es.tEz (V/m) @ t=0.38
-9.46482091963174
% V (V) @ t=0.38
0.011663256930726864
% es.normE (V/m) @ t=0.4
13.743035954741542
% es.EX (V/m) @ t=0.4
8.721322485833024
% es.EY (V/m) @ t=0.4
2.6079801643799354
% es.EZ (V/m) @ t=0.4
-9.553060237952332
% es.tEX (V/m) @ t=0.4
8.721322485833003
% es.tEY (V/m) @ t=0.4
0
% es.tEZ (V/m) @ t=0.4
-9.55306023795231
% es.Ex (V/m) @ t=0.4
8.721322485833024
% es.Ey (V/m) @ t=0.4
2.6079801643799354
% es.Ez (V/m) @ t=0.4
-9.553060237952332
% es.tEx (V/m) @ t=0.4
8.721322485833003
% es.tEy (V/m) @ t=0.4
0
% es.tEz (V/m) @ t=0.4
-9.55306023795231
% V (V) @ t=0.4
0.011771992305042028
% es.normE (V/m) @ t=0.42
13.869976837828826
% es.EX (V/m) @ t=0.42
8.801878909939141
% es.EY (V/m) @ t=0.42
2.6320694083939657
% es.EZ (V/m) @ t=0.42
-9.641299556272873
% es.tEX (V/m) @ t=0.42
8.80187890993913
% es.tEY (V/m) @ t=0.42
0
% es.tEZ (V/m) @ t=0.42
-9.641299556272852
% es.Ex (V/m) @ t=0.42
8.801878909939141
% es.Ey (V/m) @ t=0.42
2.6320694083939657
% es.Ez (V/m) @ t=0.42
-9.641299556272873
% es.tEx (V/m) @ t=0.42
8.80187890993913
% es.tEy (V/m) @ t=0.42
0
% es.tEz (V/m) @ t=0.42
-9.641299556272852
% V (V) @ t=0.42
0.011880727679357191
% es.normE (V/m) @ t=0.44
13.99691772091613
% es.EX (V/m) @ t=0.44
8.882435334045276
% es.EY (V/m) @ t=0.44
2.6561586524080427
% es.EZ (V/m) @ t=0.44
-9.729538874593409
% es.tEX (V/m) @ t=0.44
8.882435334045244
% es.tEY (V/m) @ t=0.44
0
% es.tEZ (V/m) @ t=0.44
-9.729538874593395
% es.Ex (V/m) @ t=0.44
8.882435334045276
% es.Ey (V/m) @ t=0.44
2.6561586524080427
% es.Ez (V/m) @ t=0.44
-9.729538874593409
% es.tEx (V/m) @ t=0.44
8.882435334045244
% es.tEy (V/m) @ t=0.44
0
% es.tEz (V/m) @ t=0.44
-9.729538874593395
% V (V) @ t=0.44
0.011989463053672352
% es.normE (V/m) @ t=0.46
14.123858604003434
% es.EX (V/m) @ t=0.46
8.96299175815139
% es.EY (V/m) @ t=0.46
2.6802478964220873
% es.EZ (V/m) @ t=0.46
-9.817778192913966
% es.tEX (V/m) @ t=0.46
8.962991758151373
% es.tEY (V/m) @ t=0.46
0
% es.tEZ (V/m) @ t=0.46
-9.81777819291395
% es.Ex (V/m) @ t=0.46
8.96299175815139
% es.Ey (V/m) @ t=0.46
2.6802478964220873
% es.Ez (V/m) @ t=0.46
-9.817778192913966
% es.tEx (V/m) @ t=0.46
8.962991758151373
% es.tEy (V/m) @ t=0.46
0
% es.tEz (V/m) @ t=0.46
-9.81777819291395
% V (V) @ t=0.46
0.012098198427987516
% es.normE (V/m) @ t=0.48
14.250799487090752
% es.EX (V/m) @ t=0.48
9.043548182257535
% es.EY (V/m) @ t=0.48
2.7043371404361176
% es.EZ (V/m) @ t=0.48
-9.906017511234515
% es.tEX (V/m) @ t=0.48
9.043548182257508
% es.tEY (V/m) @ t=0.48
0
% es.tEZ (V/m) @ t=0.48
-9.906017511234506
% es.Ex (V/m) @ t=0.48
9.043548182257535
% es.Ey (V/m) @ t=0.48
2.7043371404361176
% es.Ez (V/m) @ t=0.48
-9.906017511234515
% es.tEx (V/m) @ t=0.48
9.043548182257508
% es.tEy (V/m) @ t=0.48
0
% es.tEz (V/m) @ t=0.48
-9.906017511234506
% V (V) @ t=0.48
0.01220693380230268
% es.normE (V/m) @ t=0.5
14.377740370178072
% es.EX (V/m) @ t=0.5
9.124104606363677
% es.EY (V/m) @ t=0.5
2.7284263844501484
% es.EZ (V/m) @ t=0.5
-9.99425682955507
% es.tEX (V/m) @ t=0.5
9.124104606363636
% es.tEY (V/m) @ t=0.5
0
% es.tEZ (V/m) @ t=0.5
-9.994256829555056
% es.Ex (V/m) @ t=0.5
9.124104606363677
% es.Ey (V/m) @ t=0.5
2.7284263844501484
% es.Ez (V/m) @ t=0.5
-9.99425682955507
% es.tEx (V/m) @ t=0.5
9.124104606363636
% es.tEy (V/m) @ t=0.5
0
% es.tEz (V/m) @ t=0.5
-9.994256829555056
% V (V) @ t=0.5
0.012315669176617843
% es.normE (V/m) @ t=0.52
14.509914798391279
% es.EX (V/m) @ t=0.52
9.207982293007012
% es.EY (V/m) @ t=0.52
2.7535087838732695
% es.EZ (V/m) @ t=0.52
-10.086134039599814
% es.tEX (V/m) @ t=0.52
9.207982293006978
% es.tEY (V/m) @ t=0.52
0
% es.tEZ (V/m) @ t=0.52
-10.086134039599793
% es.Ex (V/m) @ t=0.52
9.207982293007012
% es.Ey (V/m) @ t=0.52
2.7535087838732695
% es.Ez (V/m) @ t=0.52
-10.086134039599814
% es.tEx (V/m) @ t=0.52
9.207982293006978
% es.tEy (V/m) @ t=0.52
0
% es.tEz (V/m) @ t=0.52
-10.086134039599793
% V (V) @ t=0.52
0.01242888733369131
% es.normE (V/m) @ t=0.54
14.65058725638573
% es.EX (V/m) @ t=0.54
9.297252918332187
% es.EY (V/m) @ t=0.54
2.78020383094543
% es.EZ (V/m) @ t=0.54
-10.183918318652188
% es.tEX (V/m) @ t=0.54
9.29725291833218
% es.tEY (V/m) @ t=0.54
0
% es.tEZ (V/m) @ t=0.54
-10.183918318652164
% es.Ex (V/m) @ t=0.54
9.297252918332187
% es.Ey (V/m) @ t=0.54
2.78020383094543
% es.Ez (V/m) @ t=0.54
-10.183918318652188
% es.tEx (V/m) @ t=0.54
9.29725291833218
% es.tEy (V/m) @ t=0.54
0
% es.tEz (V/m) @ t=0.54
-10.183918318652164
% V (V) @ t=0.54
0.012549384461417817
% es.normE (V/m) @ t=0.56
14.79125971438014
% es.EX (V/m) @ t=0.56
9.386523543657391
% es.EY (V/m) @ t=0.56
2.8068988780176154
% es.EZ (V/m) @ t=0.56
-10.281702597704488
% es.tEX (V/m) @ t=0.56
9.38652354365735
% es.tEY (V/m) @ t=0.56
0
% es.tEZ (V/m) @ t=0.56
-10.281702597704466
% es.Ex (V/m) @ t=0.56
9.386523543657391
% es.Ey (V/m) @ t=0.56
2.8068988780176154
% es.Ez (V/m) @ t=0.56
-10.281702597704488
% es.tEx (V/m) @ t=0.56
9.38652354365735
% es.tEy (V/m) @ t=0.56
0
% es.tEz (V/m) @ t=0.56
-10.281702597704466
% V (V) @ t=0.56
0.012669881589144326
% es.normE (V/m) @ t=0.58
14.931932172374555
% es.EX (V/m) @ t=0.58
9.475794168982556
% es.EY (V/m) @ t=0.58
2.8335939250897693
% es.EZ (V/m) @ t=0.58
-10.37948687675684
% es.tEX (V/m) @ t=0.58
9.475794168982523
% es.tEY (V/m) @ t=0.58
0
% es.tEZ (V/m) @ t=0.58
-10.379486876756818
% es.Ex (V/m) @ t=0.58
9.475794168982556
% es.Ey (V/m) @ t=0.58
2.8335939250897693
% es.Ez (V/m) @ t=0.58
-10.37948687675684
% es.tEx (V/m) @ t=0.58
9.475794168982523
% es.tEy (V/m) @ t=0.58
0
% es.tEz (V/m) @ t=0.58
-10.379486876756818
% V (V) @ t=0.58
0.012790378716870832
% es.normE (V/m) @ t=0.6
15.072604630369007
% es.EX (V/m) @ t=0.6
9.565064794307744
% es.EY (V/m) @ t=0.6
2.8602889721619227
% es.EZ (V/m) @ t=0.6
-10.477271155809206
% es.tEX (V/m) @ t=0.6
9.565064794307744
% es.tEY (V/m) @ t=0.6
0
% es.tEZ (V/m) @ t=0.6
-10.477271155809182
% es.Ex (V/m) @ t=0.6
9.565064794307744
% es.Ey (V/m) @ t=0.6
2.8602889721619227
% es.Ez (V/m) @ t=0.6
-10.477271155809206
% es.tEx (V/m) @ t=0.6
9.565064794307744
% es.tEy (V/m) @ t=0.6
0
% es.tEz (V/m) @ t=0.6
-10.477271155809182
% V (V) @ t=0.6
0.012910875844597339
% es.normE (V/m) @ t=0.62
15.213277088363437
% es.EX (V/m) @ t=0.62
9.654335419632915
% es.EY (V/m) @ t=0.62
2.8869840192341227
% es.EZ (V/m) @ t=0.62
-10.575055434861548
% es.tEX (V/m) @ t=0.62
9.654335419632895
% es.tEY (V/m) @ t=0.62
0
% es.tEZ (V/m) @ t=0.62
-10.575055434861518
% es.Ex (V/m) @ t=0.62
9.654335419632915
% es.Ey (V/m) @ t=0.62
2.8869840192341227
% es.Ez (V/m) @ t=0.62
-10.575055434861548
% es.tEx (V/m) @ t=0.62
9.654335419632895
% es.tEy (V/m) @ t=0.62
0
% es.tEz (V/m) @ t=0.62
-10.575055434861518
% V (V) @ t=0.62
0.013031372972323846
% es.normE (V/m) @ t=0.64
15.353949546357864
% es.EX (V/m) @ t=0.64
9.743606044958124
% es.EY (V/m) @ t=0.64
2.9136790663062233
% es.EZ (V/m) @ t=0.64
-10.672839713913891
% es.tEX (V/m) @ t=0.64
9.743606044958103
% es.tEY (V/m) @ t=0.64
0
% es.tEZ (V/m) @ t=0.64
-10.672839713913863
% es.Ex (V/m) @ t=0.64
9.743606044958124
% es.Ey (V/m) @ t=0.64
2.9136790663062233
% es.Ez (V/m) @ t=0.64
-10.672839713913891
% es.tEx (V/m) @ t=0.64
9.743606044958103
% es.tEy (V/m) @ t=0.64
0
% es.tEz (V/m) @ t=0.64
-10.672839713913863
% V (V) @ t=0.64
0.013151870100050356
% es.normE (V/m) @ t=0.66
15.494622004352273
% es.EX (V/m) @ t=0.66
9.832876670283257
% es.EY (V/m) @ t=0.66
2.9403741133784407
% es.EZ (V/m) @ t=0.66
-10.770623992966243
% es.tEX (V/m) @ t=0.66
9.832876670283238
% es.tEY (V/m) @ t=0.66
0
% es.tEZ (V/m) @ t=0.66
-10.770623992966222
% es.Ex (V/m) @ t=0.66
9.832876670283257
% es.Ey (V/m) @ t=0.66
2.9403741133784407
% es.Ez (V/m) @ t=0.66
-10.770623992966243
% es.tEx (V/m) @ t=0.66
9.832876670283238
% es.tEy (V/m) @ t=0.66
0
% es.tEz (V/m) @ t=0.66
-10.770623992966222
% V (V) @ t=0.66
0.013272367227776862
% es.normE (V/m) @ t=0.68
15.635294462346707
% es.EX (V/m) @ t=0.68
9.922147295608458
% es.EY (V/m) @ t=0.68
2.9670691604506154
% es.EZ (V/m) @ t=0.68
-10.86840827201858
% es.tEX (V/m) @ t=0.68
9.92214729560844
% es.tEY (V/m) @ t=0.68
0
% es.tEZ (V/m) @ t=0.68
-10.868408272018558
% es.Ex (V/m) @ t=0.68
9.922147295608458
% es.Ey (V/m) @ t=0.68
2.9670691604506154
% es.Ez (V/m) @ t=0.68
-10.86840827201858
% es.tEx (V/m) @ t=0.68
9.92214729560844
% es.tEy (V/m) @ t=0.68
0
% es.tEz (V/m) @ t=0.68
-10.868408272018558
% V (V) @ t=0.68
0.013392864355503369
% es.normE (V/m) @ t=0.7
15.775966920341146
% es.EX (V/m) @ t=0.7
10.011417920933665
% es.EY (V/m) @ t=0.7
2.993764207522783
% es.EZ (V/m) @ t=0.7
-10.966192551070916
% es.tEX (V/m) @ t=0.7
10.011417920933631
% es.tEY (V/m) @ t=0.7
0
% es.tEZ (V/m) @ t=0.7
-10.966192551070902
% es.Ex (V/m) @ t=0.7
10.011417920933665
% es.Ey (V/m) @ t=0.7
2.993764207522783
% es.Ez (V/m) @ t=0.7
-10.966192551070916
% es.tEx (V/m) @ t=0.7
10.011417920933631
% es.tEy (V/m) @ t=0.7
0
% es.tEz (V/m) @ t=0.7
-10.966192551070902
% V (V) @ t=0.7
0.013513361483229878
% es.normE (V/m) @ t=0.72
15.91663937833556
% es.EX (V/m) @ t=0.72
10.100688546258823
% es.EY (V/m) @ t=0.72
3.0204592545949405
% es.EZ (V/m) @ t=0.72
-11.063976830123273
% es.tEX (V/m) @ t=0.72
10.100688546258796
% es.tEY (V/m) @ t=0.72
0
% es.tEZ (V/m) @ t=0.72
-11.063976830123245
% es.Ex (V/m) @ t=0.72
10.100688546258823
% es.Ey (V/m) @ t=0.72
3.0204592545949405
% es.Ez (V/m) @ t=0.72
-11.063976830123273
% es.tEx (V/m) @ t=0.72
10.100688546258796
% es.tEy (V/m) @ t=0.72
0
% es.tEz (V/m) @ t=0.72
-11.063976830123245
% V (V) @ t=0.72
0.013633858610956385
% es.normE (V/m) @ t=0.74
16.057311836329983
% es.EX (V/m) @ t=0.74
10.189959171584029
% es.EY (V/m) @ t=0.74
3.0471543016670797
% es.EZ (V/m) @ t=0.74
-11.161761109175597
% es.tEX (V/m) @ t=0.74
10.189959171584011
% es.tEY (V/m) @ t=0.74
0
% es.tEZ (V/m) @ t=0.74
-11.161761109175568
% es.Ex (V/m) @ t=0.74
10.189959171584029
% es.Ey (V/m) @ t=0.74
3.0471543016670797
% es.Ez (V/m) @ t=0.74
-11.161761109175597
% es.tEx (V/m) @ t=0.74
10.189959171584011
% es.tEy (V/m) @ t=0.74
0
% es.tEz (V/m) @ t=0.74
-11.161761109175568
% V (V) @ t=0.74
0.013754355738682892
% es.normE (V/m) @ t=0.76
16.19798429432442
% es.EX (V/m) @ t=0.76
10.279229796909217
% es.EY (V/m) @ t=0.76
3.073849348739226
% es.EZ (V/m) @ t=0.76
-11.259545388227949
% es.tEX (V/m) @ t=0.76
10.279229796909183
% es.tEY (V/m) @ t=0.76
0
% es.tEZ (V/m) @ t=0.76
-11.259545388227918
% es.Ex (V/m) @ t=0.76
10.279229796909217
% es.Ey (V/m) @ t=0.76
3.073849348739226
% es.Ez (V/m) @ t=0.76
-11.259545388227949
% es.tEx (V/m) @ t=0.76
10.279229796909183
% es.tEy (V/m) @ t=0.76
0
% es.tEz (V/m) @ t=0.76
-11.259545388227918
% V (V) @ t=0.76
0.013874852866409403
% es.normE (V/m) @ t=0.78
16.347547509484755
% es.EX (V/m) @ t=0.78
10.374142501221959
% es.EY (V/m) @ t=0.78
3.102231571447734
% es.EZ (V/m) @ t=0.78
-11.363509802606682
% es.tEX (V/m) @ t=0.78
10.374142501221918
% es.tEY (V/m) @ t=0.78
0
% es.tEZ (V/m) @ t=0.78
-11.363509802606654
% es.Ex (V/m) @ t=0.78
10.374142501221959
% es.Ey (V/m) @ t=0.78
3.102231571447734
% es.Ez (V/m) @ t=0.78
-11.363509802606682
% es.tEx (V/m) @ t=0.78
10.374142501221918
% es.tEy (V/m) @ t=0.78
0
% es.tEz (V/m) @ t=0.78
-11.363509802606654
% V (V) @ t=0.78
0.014002965600606475
% es.normE (V/m) @ t=0.8
16.503686866148232
% es.EX (V/m) @ t=0.8
10.473228428253762
% es.EY (V/m) @ t=0.8
3.131861731257368
% es.EZ (V/m) @ t=0.8
-11.472045418701608
% es.tEX (V/m) @ t=0.8
10.47322842825373
% es.tEY (V/m) @ t=0.8
0
% es.tEZ (V/m) @ t=0.8
-11.472045418701578
% es.Ex (V/m) @ t=0.8
10.473228428253762
% es.Ey (V/m) @ t=0.8
3.131861731257368
% es.Ez (V/m) @ t=0.8
-11.472045418701608
% es.tEx (V/m) @ t=0.8
10.47322842825373
% es.tEy (V/m) @ t=0.8
0
% es.tEz (V/m) @ t=0.8
-11.472045418701578
% V (V) @ t=0.8
0.01413671129776143
% es.normE (V/m) @ t=0.82
16.659826222811777
% es.EX (V/m) @ t=0.82
10.572314355285606
% es.EY (V/m) @ t=0.82
3.161491891067003
% es.EZ (V/m) @ t=0.82
-11.580581034796552
% es.tEX (V/m) @ t=0.82
10.572314355285595
% es.tEY (V/m) @ t=0.82
0
% es.tEZ (V/m) @ t=0.82
-11.580581034796523
% es.Ex (V/m) @ t=0.82
10.572314355285606
% es.Ey (V/m) @ t=0.82
3.161491891067003
% es.Ez (V/m) @ t=0.82
-11.580581034796552
% es.tEx (V/m) @ t=0.82
10.572314355285595
% es.tEy (V/m) @ t=0.82
0
% es.tEz (V/m) @ t=0.82
-11.580581034796523
% V (V) @ t=0.82
0.014270456994916384
% es.normE (V/m) @ t=0.84
16.815965579475268
% es.EX (V/m) @ t=0.84
10.67140028231743
% es.EY (V/m) @ t=0.84
3.1911220508766447
% es.EZ (V/m) @ t=0.84
-11.689116650891478
% es.tEX (V/m) @ t=0.84
10.67140028231741
% es.tEY (V/m) @ t=0.84
0
% es.tEZ (V/m) @ t=0.84
-11.68911665089145
% es.Ex (V/m) @ t=0.84
10.67140028231743
% es.Ey (V/m) @ t=0.84
3.1911220508766447
% es.Ez (V/m) @ t=0.84
-11.689116650891478
% es.tEx (V/m) @ t=0.84
10.67140028231741
% es.tEy (V/m) @ t=0.84
0
% es.tEz (V/m) @ t=0.84
-11.68911665089145
% V (V) @ t=0.84
0.014404202692071343
% es.normE (V/m) @ t=0.86
16.97210493613878
% es.EX (V/m) @ t=0.86
10.770486209349256
% es.EY (V/m) @ t=0.86
3.2207522106862783
% es.EZ (V/m) @ t=0.86
-11.797652266986418
% es.tEX (V/m) @ t=0.86
10.770486209349237
% es.tEY (V/m) @ t=0.86
0
% es.tEZ (V/m) @ t=0.86
-11.797652266986388
% es.Ex (V/m) @ t=0.86
10.770486209349256
% es.Ey (V/m) @ t=0.86
3.2207522106862783
% es.Ez (V/m) @ t=0.86
-11.797652266986418
% es.tEx (V/m) @ t=0.86
10.770486209349237
% es.tEy (V/m) @ t=0.86
0
% es.tEz (V/m) @ t=0.86
-11.797652266986388
% V (V) @ t=0.86
0.0145379483892263
% es.normE (V/m) @ t=0.88
17.1282442928023
% es.EX (V/m) @ t=0.88
10.869572136381102
% es.EY (V/m) @ t=0.88
3.2503823704959274
% es.EZ (V/m) @ t=0.88
-11.906187883081342
% es.tEX (V/m) @ t=0.88
10.86957213638107
% es.tEY (V/m) @ t=0.88
0
% es.tEZ (V/m) @ t=0.88
-11.906187883081298
% es.Ex (V/m) @ t=0.88
10.869572136381102
% es.Ey (V/m) @ t=0.88
3.2503823704959274
% es.Ez (V/m) @ t=0.88
-11.906187883081342
% es.tEx (V/m) @ t=0.88
10.86957213638107
% es.tEy (V/m) @ t=0.88
0
% es.tEz (V/m) @ t=0.88
-11.906187883081298
% V (V) @ t=0.88
0.014671694086381259
% es.normE (V/m) @ t=0.9
17.2843836494658
% es.EX (V/m) @ t=0.9
10.968658063412931
% es.EY (V/m) @ t=0.9
3.2800125303055827
% es.EZ (V/m) @ t=0.9
-12.014723499176267
% es.tEX (V/m) @ t=0.9
10.968658063412907
% es.tEY (V/m) @ t=0.9
0
% es.tEZ (V/m) @ t=0.9
-12.014723499176252
% es.Ex (V/m) @ t=0.9
10.968658063412931
% es.Ey (V/m) @ t=0.9
3.2800125303055827
% es.Ez (V/m) @ t=0.9
-12.014723499176267
% es.tEx (V/m) @ t=0.9
10.968658063412907
% es.tEy (V/m) @ t=0.9
0
% es.tEz (V/m) @ t=0.9
-12.014723499176252
% V (V) @ t=0.9
0.014805439783536219
% es.normE (V/m) @ t=0.92
17.440523006129347
% es.EX (V/m) @ t=0.92
11.067743990444749
% es.EY (V/m) @ t=0.92
3.309642690115238
% es.EZ (V/m) @ t=0.92
-12.123259115271235
% es.tEX (V/m) @ t=0.92
11.067743990444722
% es.tEY (V/m) @ t=0.92
0
% es.tEZ (V/m) @ t=0.92
-12.123259115271205
% es.Ex (V/m) @ t=0.92
11.067743990444749
% es.Ey (V/m) @ t=0.92
3.309642690115238
% es.Ez (V/m) @ t=0.92
-12.123259115271235
% es.tEx (V/m) @ t=0.92
11.067743990444722
% es.tEy (V/m) @ t=0.92
0
% es.tEz (V/m) @ t=0.92
-12.123259115271205
% V (V) @ t=0.92
0.014939185480691172
% es.normE (V/m) @ t=0.94
17.59666236279283
% es.EX (V/m) @ t=0.94
11.166829917476564
% es.EY (V/m) @ t=0.94
3.3392728499248445
% es.EZ (V/m) @ t=0.94
-12.231794731366165
% es.tEX (V/m) @ t=0.94
11.166829917476537
% es.tEY (V/m) @ t=0.94
0
% es.tEZ (V/m) @ t=0.94
-12.23179473136615
% es.Ex (V/m) @ t=0.94
11.166829917476564
% es.Ey (V/m) @ t=0.94
3.3392728499248445
% es.Ez (V/m) @ t=0.94
-12.231794731366165
% es.tEx (V/m) @ t=0.94
11.166829917476537
% es.tEy (V/m) @ t=0.94
0
% es.tEz (V/m) @ t=0.94
-12.23179473136615
% V (V) @ t=0.94
0.015072931177846135
% es.normE (V/m) @ t=0.96
17.75280171945635
% es.EX (V/m) @ t=0.96
11.26591584450842
% es.EY (V/m) @ t=0.96
3.368903009734515
% es.EZ (V/m) @ t=0.96
-12.340330347461084
% es.tEX (V/m) @ t=0.96
11.265915844508392
% es.tEY (V/m) @ t=0.96
0
% es.tEZ (V/m) @ t=0.96
-12.34033034746104
% es.Ex (V/m) @ t=0.96
11.26591584450842
% es.Ey (V/m) @ t=0.96
3.368903009734515
% es.Ez (V/m) @ t=0.96
-12.340330347461084
% es.tEx (V/m) @ t=0.96
11.265915844508392
% es.tEy (V/m) @ t=0.96
0
% es.tEz (V/m) @ t=0.96
-12.34033034746104
% V (V) @ t=0.96
0.01520667687500109
% es.normE (V/m) @ t=0.98
17.908941076119874
% es.EX (V/m) @ t=0.98
11.365001771540262
% es.EY (V/m) @ t=0.98
3.398533169544149
% es.EZ (V/m) @ t=0.98
-12.448865963556022
% es.tEX (V/m) @ t=0.98
11.365001771540229
% es.tEY (V/m) @ t=0.98
0
% es.tEZ (V/m) @ t=0.98
-12.448865963555978
% es.Ex (V/m) @ t=0.98
11.365001771540262
% es.Ey (V/m) @ t=0.98
3.398533169544149
% es.Ez (V/m) @ t=0.98
-12.448865963556022
% es.tEx (V/m) @ t=0.98
11.365001771540229
% es.tEy (V/m) @ t=0.98
0
% es.tEz (V/m) @ t=0.98
-12.448865963555978
% V (V) @ t=0.98
0.015340422572156048
% es.normE (V/m) @ t=1
18.065080432783365
% es.EX (V/m) @ t=1
11.464087698572072
% es.EY (V/m) @ t=1
3.42816332935384
% es.EZ (V/m) @ t=1
-12.557401579650918
% es.tEX (V/m) @ t=1
11.464087698572053
% es.tEY (V/m) @ t=1
0
% es.tEZ (V/m) @ t=1
-12.55740157965089
% es.Ex (V/m) @ t=1
11.464087698572072
% es.Ey (V/m) @ t=1
3.42816332935384
% es.Ez (V/m) @ t=1
-12.557401579650918
% es.tEx (V/m) @ t=1
11.464087698572053
% es.tEy (V/m) @ t=1
0
% es.tEz (V/m) @ t=1
-12.55740157965089
% V (V) @ t=1
0.015474168269311002
% es.normE (V/m) @ t=1.02
18.221219789446874
% es.EX (V/m) @ t=1.02
11.563173625603898
% es.EY (V/m) @ t=1.02
3.4577934891634605
% es.EZ (V/m) @ t=1.02
-12.665937195745865
% es.tEX (V/m) @ t=1.02
11.56317362560387
% es.tEY (V/m) @ t=1.02
0
% es.tEZ (V/m) @ t=1.02
-12.665937195745835
% es.Ex (V/m) @ t=1.02
11.563173625603898
% es.Ey (V/m) @ t=1.02
3.4577934891634605
% es.Ez (V/m) @ t=1.02
-12.665937195745865
% es.tEx (V/m) @ t=1.02
11.56317362560387
% es.tEy (V/m) @ t=1.02
0
% es.tEz (V/m) @ t=1.02
-12.665937195745835
% V (V) @ t=1.02
0.01560791396646596
% es.normE (V/m) @ t=1.04
18.38316434395584
% es.EX (V/m) @ t=1.04
11.665943573658211
% es.EY (V/m) @ t=1.04
3.4885252854073183
% es.EZ (V/m) @ t=1.04
-12.778508081405706
% es.tEX (V/m) @ t=1.04
11.665943573658186
% es.tEY (V/m) @ t=1.04
0
% es.tEZ (V/m) @ t=1.04
-12.778508081405676
% es.Ex (V/m) @ t=1.04
11.665943573658211
% es.Ey (V/m) @ t=1.04
3.4885252854073183
% es.Ez (V/m) @ t=1.04
-12.778508081405706
% es.tEx (V/m) @ t=1.04
11.665943573658186
% es.tEy (V/m) @ t=1.04
0
% es.tEz (V/m) @ t=1.04
-12.778508081405676
% V (V) @ t=1.04