% Model:              1 neuron.mph
% Version:            COMSOL 6.1.0.252
% Date:               Mar 22 2023, 19:40
% Dimension:          0
% Nodes:              14017
% Expressions:        14017
% Description:        Electric field norm, Electric field, X component, Electric field, Y component, Electric field, Z component, Tangential electric field, X component, Tangential electric field, Y component, Tangential electric field, Z component, Electric field, x component, Electric field, y component, Electric field, z component, Tangential electric field, x component, Tangential electric field, y component, Tangential electric field, z component, Electric potential
% Length unit:        mm
% x
2
% y
12.2
% z
1.6599999999999997
% es.normE (V/m) @ t=0
2.290099483776748
% es.EX (V/m) @ t=0
-2.2128412851624892
% es.EY (V/m) @ t=0
0.17046954846302353
% es.EZ (V/m) @ t=0
-0.5639952603331317
% es.tEX (V/m) @ t=0
-2.212841285162483
% es.tEY (V/m) @ t=0
0
% es.tEZ (V/m) @ t=0
-0.5639952603331437
% es.Ex (V/m) @ t=0
-2.2128412851624892
% es.Ey (V/m) @ t=0
0.17046954846302353
% es.Ez (V/m) @ t=0
-0.5639952603331317
% es.tEx (V/m) @ t=0
-2.212841285162483
% es.tEy (V/m) @ t=0
0
% es.tEz (V/m) @ t=0
-0.5639952603331437
% V (V) @ t=0
0.013271603326872375
% es.normE (V/m) @ t=0.02
1.9779863837262064
% es.EX (V/m) @ t=0.02
-1.911257551130496
% es.EY (V/m) @ t=0.02
0.14723659347625506
% es.EZ (V/m) @ t=0.02
-0.4871294691632544
% es.tEX (V/m) @ t=0.02
-1.9112575511304914
% es.tEY (V/m) @ t=0.02
0
% es.tEZ (V/m) @ t=0.02
-0.4871294691632446
% es.Ex (V/m) @ t=0.02
-1.911257551130496
% es.Ey (V/m) @ t=0.02
0.14723659347625506
% es.Ez (V/m) @ t=0.02
-0.4871294691632544
% es.tEx (V/m) @ t=0.02
-1.9112575511304914
% es.tEy (V/m) @ t=0.02
0
% es.tEz (V/m) @ t=0.02
-0.4871294691632446
% V (V) @ t=0.02
0.011462842913197114
% es.normE (V/m) @ t=0.04
1.9961867229464643
% es.EX (V/m) @ t=0.04
-1.9288438880526098
% es.EY (V/m) @ t=0.04
0.14859138554272755
% es.EZ (V/m) @ t=0.04
-0.4916117666504811
% es.tEX (V/m) @ t=0.04
-1.9288438880526062
% es.tEY (V/m) @ t=0.04
0
% es.tEZ (V/m) @ t=0.04
-0.4916117666504718
% es.Ex (V/m) @ t=0.04
-1.9288438880526098
% es.Ey (V/m) @ t=0.04
0.14859138554272755
% es.Ez (V/m) @ t=0.04
-0.4916117666504811
% es.tEx (V/m) @ t=0.04
-1.9288438880526062
% es.tEy (V/m) @ t=0.04
0
% es.tEz (V/m) @ t=0.04
-0.4916117666504718
% V (V) @ t=0.04
0.011568317597711287
% es.normE (V/m) @ t=0.06
2.014517584939049
% es.EX (V/m) @ t=0.06
-1.9465563444690384
% es.EY (V/m) @ t=0.06
0.14995589343604832
% es.EZ (V/m) @ t=0.06
-0.49612620866971113
% es.tEX (V/m) @ t=0.06
-1.9465563444690428
% es.tEY (V/m) @ t=0.06
0
% es.tEZ (V/m) @ t=0.06
-0.49612620866971646
% es.Ex (V/m) @ t=0.06
-1.9465563444690384
% es.Ey (V/m) @ t=0.06
0.14995589343604832
% es.Ez (V/m) @ t=0.06
-0.49612620866971113
% es.tEx (V/m) @ t=0.06
-1.9465563444690428
% es.tEy (V/m) @ t=0.06
0
% es.tEz (V/m) @ t=0.06
-0.49612620866971646
% V (V) @ t=0.06
0.01167454868771263
% es.normE (V/m) @ t=0.08
2.033204552059964
% es.EX (V/m) @ t=0.08
-1.964612893125616
% es.EY (V/m) @ t=0.08
0.15134690574932574
% es.EZ (V/m) @ t=0.08
-0.5007283493236456
% es.tEX (V/m) @ t=0.08
-1.9646128931256044
% es.tEY (V/m) @ t=0.08
0
% es.tEZ (V/m) @ t=0.08
-0.5007283493236425
% es.Ex (V/m) @ t=0.08
-1.964612893125616
% es.Ey (V/m) @ t=0.08
0.15134690574932574
% es.Ez (V/m) @ t=0.08
-0.5007283493236456
% es.tEx (V/m) @ t=0.08
-1.9646128931256044
% es.tEy (V/m) @ t=0.08
0
% es.tEz (V/m) @ t=0.08
-0.5007283493236425
% V (V) @ t=0.08
0.011782843585049302
% es.normE (V/m) @ t=0.1
2.051979876265964
% es.EX (V/m) @ t=0.1
-1.9827548182199983
% es.EY (V/m) @ t=0.1
0.15274449436016646
% es.EZ (V/m) @ t=0.1
-0.5053522498319274
% es.tEX (V/m) @ t=0.1
-1.9827548182200072
% es.tEY (V/m) @ t=0.1
0
% es.tEZ (V/m) @ t=0.1
-0.5053522498319367
% es.Ex (V/m) @ t=0.1
-1.9827548182199983
% es.Ey (V/m) @ t=0.1
0.15274449436016646
% es.Ez (V/m) @ t=0.1
-0.5053522498319274
% es.tEx (V/m) @ t=0.1
-1.9827548182200072
% es.tEy (V/m) @ t=0.1
0
% es.tEz (V/m) @ t=0.1
-0.5053522498319367
% V (V) @ t=0.1
0.011891650555888677
% es.normE (V/m) @ t=0.12
2.0707552004719876
% es.EX (V/m) @ t=0.12
-2.000896743314409
% es.EY (V/m) @ t=0.12
0.1541420829710035
% es.EZ (V/m) @ t=0.12
-0.5099761503401941
% es.tEX (V/m) @ t=0.12
-2.0008967433144083
% es.tEY (V/m) @ t=0.12
0
% es.tEZ (V/m) @ t=0.12
-0.5099761503401954
% es.Ex (V/m) @ t=0.12
-2.000896743314409
% es.Ey (V/m) @ t=0.12
0.1541420829710035
% es.Ez (V/m) @ t=0.12
-0.5099761503401941
% es.tEx (V/m) @ t=0.12
-2.0008967433144083
% es.tEy (V/m) @ t=0.12
0
% es.tEz (V/m) @ t=0.12
-0.5099761503401954
% V (V) @ t=0.12
0.012000457526728051
% es.normE (V/m) @ t=0.14
2.0901008783640522
% es.EX (V/m) @ t=0.14
-2.019589780278567
% es.EY (V/m) @ t=0.14
0.15558213010300137
% es.EZ (V/m) @ t=0.14
-0.5147405161305882
% es.tEX (V/m) @ t=0.14
-2.019589780278565
% es.tEY (V/m) @ t=0.14
0
% es.tEZ (V/m) @ t=0.14
-0.5147405161305922
% es.Ex (V/m) @ t=0.14
-2.019589780278567
% es.Ey (V/m) @ t=0.14
0.15558213010300137
% es.Ez (V/m) @ t=0.14
-0.5147405161305882
% es.tEx (V/m) @ t=0.14
-2.019589780278565
% es.tEy (V/m) @ t=0.14
0
% es.tEz (V/m) @ t=0.14
-0.5147405161305922
% V (V) @ t=0.14
0.012112569726212632
% es.normE (V/m) @ t=0.16
2.109813290974463
% es.EX (V/m) @ t=0.16
-2.038637179564348
% es.EY (V/m) @ t=0.16
0.1570494778629875
% es.EZ (V/m) @ t=0.16
-0.5195952004319846
% es.tEX (V/m) @ t=0.16
-2.03863717956434
% es.tEY (V/m) @ t=0.16
0
% es.tEZ (V/m) @ t=0.16
-0.5195952004319722
% es.Ex (V/m) @ t=0.16
-2.038637179564348
% es.Ey (V/m) @ t=0.16
0.1570494778629875
% es.Ez (V/m) @ t=0.16
-0.5195952004319846
% es.tEx (V/m) @ t=0.16
-2.03863717956434
% es.tEy (V/m) @ t=0.16
0
% es.tEz (V/m) @ t=0.16
-0.5195952004319722
% V (V) @ t=0.16
0.012226807172058925
% es.normE (V/m) @ t=0.18
2.129525703584888
% es.EX (V/m) @ t=0.18
-2.0576845788501466
% es.EY (V/m) @ t=0.18
0.15851682562294067
% es.EZ (V/m) @ t=0.18
-0.5244498847333783
% es.tEX (V/m) @ t=0.18
-2.0576845788501466
% es.tEY (V/m) @ t=0.18
0
% es.tEZ (V/m) @ t=0.18
-0.5244498847333912
% es.Ex (V/m) @ t=0.18
-2.0576845788501466
% es.Ey (V/m) @ t=0.18
0.15851682562294067
% es.Ez (V/m) @ t=0.18
-0.5244498847333783
% es.tEx (V/m) @ t=0.18
-2.0576845788501466
% es.tEy (V/m) @ t=0.18
0
% es.tEz (V/m) @ t=0.18
-0.5244498847333912
% V (V) @ t=0.18
0.012341044617905216
% es.normE (V/m) @ t=0.2
2.1492381161952867
% es.EX (V/m) @ t=0.2
-2.076731978135915
% es.EY (V/m) @ t=0.2
0.15998417338293902
% es.EZ (V/m) @ t=0.2
-0.5293045690347675
% es.tEX (V/m) @ t=0.2
-2.0767319781359355
% es.tEY (V/m) @ t=0.2
0
% es.tEZ (V/m) @ t=0.2
-0.529304569034764
% es.Ex (V/m) @ t=0.2
-2.076731978135915
% es.Ey (V/m) @ t=0.2
0.15998417338293902
% es.Ez (V/m) @ t=0.2
-0.5293045690347675
% es.tEx (V/m) @ t=0.2
-2.0767319781359355
% es.tEy (V/m) @ t=0.2
0
% es.tEz (V/m) @ t=0.2
-0.529304569034764
% V (V) @ t=0.2
0.012455282063751513
% es.normE (V/m) @ t=0.22
2.168950528805725
% es.EX (V/m) @ t=0.22
-2.0957793774217324
% es.EY (V/m) @ t=0.22
0.16145152114287808
% es.EZ (V/m) @ t=0.22
-0.5341592533361492
% es.tEX (V/m) @ t=0.22
-2.095779377421728
% es.tEY (V/m) @ t=0.22
0
% es.tEZ (V/m) @ t=0.22
-0.5341592533361563
% es.Ex (V/m) @ t=0.22
-2.0957793774217324
% es.Ey (V/m) @ t=0.22
0.16145152114287808
% es.Ez (V/m) @ t=0.22
-0.5341592533361492
% es.tEx (V/m) @ t=0.22
-2.095779377421728
% es.tEy (V/m) @ t=0.22
0
% es.tEz (V/m) @ t=0.22
-0.5341592533361563
% V (V) @ t=0.22
0.012569519509597804
% es.normE (V/m) @ t=0.24
2.1886629414161263
% es.EX (V/m) @ t=0.24
-2.114826776707501
% es.EY (V/m) @ t=0.24
0.16291886890286322
% es.EZ (V/m) @ t=0.24
-0.5390139376375576
% es.tEX (V/m) @ t=0.24
-2.114826776707492
% es.tEY (V/m) @ t=0.24
0
% es.tEZ (V/m) @ t=0.24
-0.5390139376375558
% es.Ex (V/m) @ t=0.24
-2.114826776707501
% es.Ey (V/m) @ t=0.24
0.16291886890286322
% es.Ez (V/m) @ t=0.24
-0.5390139376375576
% es.tEx (V/m) @ t=0.24
-2.114826776707492
% es.tEy (V/m) @ t=0.24
0
% es.tEz (V/m) @ t=0.24
-0.5390139376375558
% V (V) @ t=0.24
0.012683756955444098
% es.normE (V/m) @ t=0.26
2.2088429529527778
% es.EX (V/m) @ t=0.26
-2.134326000470365
% es.EY (V/m) @ t=0.26
0.16442102176048468
% es.EZ (V/m) @ t=0.26
-0.5439837792758753
% es.tEX (V/m) @ t=0.26
-2.1343260004703595
% es.tEY (V/m) @ t=0.26
0
% es.tEZ (V/m) @ t=0.26
-0.5439837792758695
% es.Ex (V/m) @ t=0.26
-2.134326000470365
% es.Ey (V/m) @ t=0.26
0.16442102176048468
% es.Ez (V/m) @ t=0.26
-0.5439837792758753
% es.tEx (V/m) @ t=0.26
-2.1343260004703595
% es.tEy (V/m) @ t=0.26
0
% es.tEz (V/m) @ t=0.26
-0.5439837792758695
% V (V) @ t=0.26
0.012800704294971155
% es.normE (V/m) @ t=0.28
2.230647302101082
% es.EX (V/m) @ t=0.28
-2.1553947648176788
% es.EY (V/m) @ t=0.28
0.16604408000520354
% es.EZ (V/m) @ t=0.28
-0.5493536526147991
% es.tEX (V/m) @ t=0.28
-2.155394764817686
% es.tEY (V/m) @ t=0.28
0
% es.tEZ (V/m) @ t=0.28
-0.5493536526148031
% es.Ex (V/m) @ t=0.28
-2.1553947648176788
% es.Ey (V/m) @ t=0.28
0.16604408000520354
% es.Ez (V/m) @ t=0.28
-0.5493536526147991
% es.tEx (V/m) @ t=0.28
-2.155394764817686
% es.tEy (V/m) @ t=0.28
0
% es.tEz (V/m) @ t=0.28
-0.5493536526148031
% V (V) @ t=0.28
0.012927065219479375
% es.normE (V/m) @ t=0.3
2.2524516512494106
% es.EX (V/m) @ t=0.3
-2.176463529165022
% es.EY (V/m) @ t=0.3
0.1676671382499365
% es.EZ (V/m) @ t=0.3
-0.5547235259537016
% es.tEX (V/m) @ t=0.3
-2.1764635291650087
% es.tEY (V/m) @ t=0.3
0
% es.tEZ (V/m) @ t=0.3
-0.554723525953694
% es.Ex (V/m) @ t=0.3
-2.176463529165022
% es.Ey (V/m) @ t=0.3
0.1676671382499365
% es.Ez (V/m) @ t=0.3
-0.5547235259537016
% es.tEx (V/m) @ t=0.3
-2.1764635291650087
% es.tEy (V/m) @ t=0.3
0
% es.tEz (V/m) @ t=0.3
-0.554723525953694
% V (V) @ t=0.3
0.013053426143987593
% es.normE (V/m) @ t=0.32
2.2742560003977164
% es.EX (V/m) @ t=0.32
-2.1975322935123414
% es.EY (V/m) @ t=0.32
0.16929019649464117
% es.EZ (V/m) @ t=0.32
-0.5600933992926138
% es.tEX (V/m) @ t=0.32
-2.1975322935123316
% es.tEY (V/m) @ t=0.32
0
% es.tEZ (V/m) @ t=0.32
-0.5600933992926258
% es.Ex (V/m) @ t=0.32
-2.1975322935123414
% es.Ey (V/m) @ t=0.32
0.16929019649464117
% es.Ez (V/m) @ t=0.32
-0.5600933992926138
% es.tEx (V/m) @ t=0.32
-2.1975322935123316
% es.tEy (V/m) @ t=0.32
0
% es.tEz (V/m) @ t=0.32
-0.5600933992926258
% V (V) @ t=0.32
0.01317978706849582
% es.normE (V/m) @ t=0.34
2.2960603495460328
% es.EX (V/m) @ t=0.34
-2.2186010578596687
% es.EY (V/m) @ t=0.34
0.1709132547393598
% es.EZ (V/m) @ t=0.34
-0.5654632726315314
% es.tEX (V/m) @ t=0.34
-2.218601057859683
% es.tEY (V/m) @ t=0.34
0
% es.tEZ (V/m) @ t=0.34
-0.5654632726315221
% es.Ex (V/m) @ t=0.34
-2.2186010578596687
% es.Ey (V/m) @ t=0.34
0.1709132547393598
% es.Ez (V/m) @ t=0.34
-0.5654632726315314
% es.tEx (V/m) @ t=0.34
-2.218601057859683
% es.tEy (V/m) @ t=0.34
0
% es.tEz (V/m) @ t=0.34
-0.5654632726315221
% V (V) @ t=0.34
0.013306147993004037
% es.normE (V/m) @ t=0.36
2.3178646986943496
% es.EX (V/m) @ t=0.36
-2.2396698222069995
% es.EY (V/m) @ t=0.36
0.17253631298407146
% es.EZ (V/m) @ t=0.36
-0.5708331459704419
% es.tEX (V/m) @ t=0.36
-2.2396698222070057
% es.tEY (V/m) @ t=0.36
0
% es.tEZ (V/m) @ t=0.36
-0.5708331459704468
% es.Ex (V/m) @ t=0.36
-2.2396698222069995
% es.Ey (V/m) @ t=0.36
0.17253631298407146
% es.Ez (V/m) @ t=0.36
-0.5708331459704419
% es.tEx (V/m) @ t=0.36
-2.2396698222070057
% es.tEy (V/m) @ t=0.36
0
% es.tEz (V/m) @ t=0.36
-0.5708331459704468
% V (V) @ t=0.36
0.01343250891751226
% es.normE (V/m) @ t=0.38
2.339669047842661
% es.EX (V/m) @ t=0.38
-2.2607385865543312
% es.EY (V/m) @ t=0.38
0.17415937122877267
% es.EZ (V/m) @ t=0.38
-0.5762030193093306
% es.tEX (V/m) @ t=0.38
-2.2607385865543286
% es.tEY (V/m) @ t=0.38
0
% es.tEZ (V/m) @ t=0.38
-0.5762030193093324
% es.Ex (V/m) @ t=0.38
-2.2607385865543312
% es.Ey (V/m) @ t=0.38
0.17415937122877267
% es.Ez (V/m) @ t=0.38
-0.5762030193093306
% es.tEx (V/m) @ t=0.38
-2.2607385865543286
% es.tEy (V/m) @ t=0.38
0
% es.tEz (V/m) @ t=0.38
-0.5762030193093324
% V (V) @ t=0.38
0.013558869842020479
% es.normE (V/m) @ t=0.4
2.36147339699098
% es.EX (V/m) @ t=0.4
-2.2818073509016603
% es.EY (V/m) @ t=0.4
0.1757824294734932
% es.EZ (V/m) @ t=0.4
-0.5815728926482504
% es.tEX (V/m) @ t=0.4
-2.2818073509016656
% es.tEY (V/m) @ t=0.4
0
% es.tEZ (V/m) @ t=0.4
-0.5815728926482571
% es.Ex (V/m) @ t=0.4
-2.2818073509016603
% es.Ey (V/m) @ t=0.4
0.1757824294734932
% es.Ez (V/m) @ t=0.4
-0.5815728926482504
% es.tEx (V/m) @ t=0.4
-2.2818073509016656
% es.tEy (V/m) @ t=0.4
0
% es.tEz (V/m) @ t=0.4
-0.5815728926482571
% V (V) @ t=0.4
0.013685230766528703
% es.normE (V/m) @ t=0.42
2.3832777461392887
% es.EX (V/m) @ t=0.42
-2.3028761152489796
% es.EY (V/m) @ t=0.42
0.17740548771822262
% es.EZ (V/m) @ t=0.42
-0.5869427659871675
% es.tEX (V/m) @ t=0.42
-2.3028761152489885
% es.tEY (V/m) @ t=0.42
0
% es.tEZ (V/m) @ t=0.42
-0.5869427659871711
% es.Ex (V/m) @ t=0.42
-2.3028761152489796
% es.Ey (V/m) @ t=0.42
0.17740548771822262
% es.Ez (V/m) @ t=0.42
-0.5869427659871675
% es.tEx (V/m) @ t=0.42
-2.3028761152489885
% es.tEy (V/m) @ t=0.42
0
% es.tEz (V/m) @ t=0.42
-0.5869427659871711
% V (V) @ t=0.42
0.013811591691036922
% es.normE (V/m) @ t=0.44
2.4050820952875878
% es.EX (V/m) @ t=0.44
-2.3239448795962874
% es.EY (V/m) @ t=0.44
0.1790285459629325
% es.EZ (V/m) @ t=0.44
-0.5923126393260962
% es.tEX (V/m) @ t=0.44
-2.3239448795962687
% es.tEY (V/m) @ t=0.44
0
% es.tEZ (V/m) @ t=0.44
-0.5923126393260851
% es.Ex (V/m) @ t=0.44
-2.3239448795962874
% es.Ey (V/m) @ t=0.44
0.1790285459629325
% es.Ez (V/m) @ t=0.44
-0.5923126393260962
% es.tEx (V/m) @ t=0.44
-2.3239448795962687
% es.tEy (V/m) @ t=0.44
0
% es.tEz (V/m) @ t=0.44
-0.5923126393260851
% V (V) @ t=0.44
0.013937952615545144
% es.normE (V/m) @ t=0.46
2.4268864444358957
% es.EX (V/m) @ t=0.46
-2.3450136439436147
% es.EY (V/m) @ t=0.46
0.18065160420762472
% es.EZ (V/m) @ t=0.46
-0.5976825126649903
% es.tEX (V/m) @ t=0.46
-2.345013643943606
% es.tEY (V/m) @ t=0.46
0
% es.tEZ (V/m) @ t=0.46
-0.5976825126649956
% es.Ex (V/m) @ t=0.46
-2.3450136439436147
% es.Ey (V/m) @ t=0.46
0.18065160420762472
% es.Ez (V/m) @ t=0.46
-0.5976825126649903
% es.tEx (V/m) @ t=0.46
-2.345013643943606
% es.tEy (V/m) @ t=0.46
0
% es.tEz (V/m) @ t=0.46
-0.5976825126649956
% V (V) @ t=0.46
0.014064313540053365
% es.normE (V/m) @ t=0.48
2.448690793584201
% es.EX (V/m) @ t=0.48
-2.366082408290927
% es.EY (V/m) @ t=0.48
0.18227466245238966
% es.EZ (V/m) @ t=0.48
-0.6030523860039065
% es.tEX (V/m) @ t=0.48
-2.3660824082909393
% es.tEY (V/m) @ t=0.48
0
% es.tEZ (V/m) @ t=0.48
-0.6030523860039061
% es.Ex (V/m) @ t=0.48
-2.366082408290927
% es.Ey (V/m) @ t=0.48
0.18227466245238966
% es.Ez (V/m) @ t=0.48
-0.6030523860039065
% es.tEx (V/m) @ t=0.48
-2.3660824082909393
% es.tEy (V/m) @ t=0.48
0
% es.tEz (V/m) @ t=0.48
-0.6030523860039061
% V (V) @ t=0.48
0.014190674464561586
% es.normE (V/m) @ t=0.5
2.4704951427325232
% es.EX (V/m) @ t=0.5
-2.387151172638262
% es.EY (V/m) @ t=0.5
0.18389772069709764
% es.EZ (V/m) @ t=0.5
-0.6084222593428206
% es.tEX (V/m) @ t=0.5
-2.3871511726382906
% es.tEY (V/m) @ t=0.5
0
% es.tEZ (V/m) @ t=0.5
-0.6084222593428237
% es.Ex (V/m) @ t=0.5
-2.387151172638262
% es.Ey (V/m) @ t=0.5
0.18389772069709764
% es.Ez (V/m) @ t=0.5
-0.6084222593428206
% es.tEx (V/m) @ t=0.5
-2.3871511726382906
% es.tEy (V/m) @ t=0.5
0
% es.tEz (V/m) @ t=0.5
-0.6084222593428237
% V (V) @ t=0.5
0.014317035389069806
% es.normE (V/m) @ t=0.52
2.4933652921744525
% es.EX (V/m) @ t=0.52
-2.409249781249951
% es.EY (V/m) @ t=0.52
0.18560011709403135
% es.EZ (V/m) @ t=0.52
-0.6140546141922654
% es.tEX (V/m) @ t=0.52
-2.4092497812499545
% es.tEY (V/m) @ t=0.52
0
% es.tEZ (V/m) @ t=0.52
-0.6140546141922627
% es.Ex (V/m) @ t=0.52
-2.409249781249951
% es.Ey (V/m) @ t=0.52
0.18560011709403135
% es.Ez (V/m) @ t=0.52
-0.6140546141922654
% es.tEx (V/m) @ t=0.52
-2.4092497812499545
% es.tEy (V/m) @ t=0.52
0
% es.tEz (V/m) @ t=0.52
-0.6140546141922627
% V (V) @ t=0.52
0.014449572765916466
% es.normE (V/m) @ t=0.54
2.517520925531998
% es.EX (V/m) @ t=0.54
-2.4325905064620503
% es.EY (V/m) @ t=0.54
0.18739820488766545
% es.EZ (V/m) @ t=0.54
-0.6200035534543229
% es.tEX (V/m) @ t=0.54
-2.4325905064620486
% es.tEY (V/m) @ t=0.54
0
% es.tEZ (V/m) @ t=0.54
-0.6200035534543176
% es.Ex (V/m) @ t=0.54
-2.4325905064620503
% es.Ey (V/m) @ t=0.54
0.18739820488766545
% es.Ez (V/m) @ t=0.54
-0.6200035534543229
% es.tEx (V/m) @ t=0.54
-2.4325905064620486
% es.tEy (V/m) @ t=0.54
0
% es.tEz (V/m) @ t=0.54
-0.6200035534543176
% V (V) @ t=0.54
0.014589559690473217
% es.normE (V/m) @ t=0.56
2.541676558889547
% es.EX (V/m) @ t=0.56
-2.4559312316741586
% es.EY (V/m) @ t=0.56
0.18919629268123217
% es.EZ (V/m) @ t=0.56
-0.6259524927163782
% es.tEX (V/m) @ t=0.56
-2.4559312316741675
% es.tEY (V/m) @ t=0.56
0
% es.tEZ (V/m) @ t=0.56
-0.6259524927163795
% es.Ex (V/m) @ t=0.56
-2.4559312316741586
% es.Ey (V/m) @ t=0.56
0.18919629268123217
% es.Ez (V/m) @ t=0.56
-0.6259524927163782
% es.tEx (V/m) @ t=0.56
-2.4559312316741675
% es.tEy (V/m) @ t=0.56
0
% es.tEz (V/m) @ t=0.56
-0.6259524927163795
% V (V) @ t=0.56
0.014729546615029959
% es.normE (V/m) @ t=0.58
2.5658321922470826
% es.EX (V/m) @ t=0.58
-2.4792719568862527
% es.EY (V/m) @ t=0.58
0.1909943804748201
% es.EZ (V/m) @ t=0.58
-0.6319014319784304
% es.tEX (V/m) @ t=0.58
-2.4792719568862296
% es.tEY (V/m) @ t=0.58
0
% es.tEZ (V/m) @ t=0.58
-0.6319014319784308
% es.Ex (V/m) @ t=0.58
-2.4792719568862527
% es.Ey (V/m) @ t=0.58
0.1909943804748201
% es.Ez (V/m) @ t=0.58
-0.6319014319784304
% es.tEx (V/m) @ t=0.58
-2.4792719568862296
% es.tEy (V/m) @ t=0.58
0
% es.tEz (V/m) @ t=0.58
-0.6319014319784308
% V (V) @ t=0.58
0.014869533539586699
% es.normE (V/m) @ t=0.6
2.5899878256046405
% es.EX (V/m) @ t=0.6
-2.5026126820983627
% es.EY (V/m) @ t=0.6
0.19279246826844187
% es.EZ (V/m) @ t=0.6
-0.6378503712404981
% es.tEX (V/m) @ t=0.6
-2.5026126820983805
% es.tEY (V/m) @ t=0.6
0
% es.tEZ (V/m) @ t=0.6
-0.6378503712405141
% es.Ex (V/m) @ t=0.6
-2.5026126820983627
% es.Ey (V/m) @ t=0.6
0.19279246826844187
% es.Ez (V/m) @ t=0.6
-0.6378503712404981
% es.tEx (V/m) @ t=0.6
-2.5026126820983805
% es.tEy (V/m) @ t=0.6
0
% es.tEz (V/m) @ t=0.6
-0.6378503712405141
% V (V) @ t=0.6
0.015009520464143444
% es.normE (V/m) @ t=0.62
2.6141434589621917
% es.EX (V/m) @ t=0.62
-2.525953407310471
% es.EY (V/m) @ t=0.62
0.19459055606201203
% es.EZ (V/m) @ t=0.62
-0.6437993105025628
% es.tEX (V/m) @ t=0.62
-2.525953407310471
% es.tEY (V/m) @ t=0.62
0
% es.tEZ (V/m) @ t=0.62
-0.6437993105025583
% es.Ex (V/m) @ t=0.62
-2.525953407310471
% es.Ey (V/m) @ t=0.62
0.19459055606201203
% es.Ez (V/m) @ t=0.62
-0.6437993105025628
% es.tEx (V/m) @ t=0.62
-2.525953407310471
% es.tEy (V/m) @ t=0.62
0
% es.tEz (V/m) @ t=0.62
-0.6437993105025583
% V (V) @ t=0.62
0.015149507388700188
% es.normE (V/m) @ t=0.64
2.6382990923197207
% es.EX (V/m) @ t=0.64
-2.5492941325225544
% es.EY (V/m) @ t=0.64
0.19638864385562127
% es.EZ (V/m) @ t=0.64
-0.6497482497646221
% es.tEX (V/m) @ t=0.64
-2.549294132522565
% es.tEY (V/m) @ t=0.64
0
% es.tEZ (V/m) @ t=0.64
-0.6497482497646203
% es.Ex (V/m) @ t=0.64
-2.5492941325225544
% es.Ey (V/m) @ t=0.64
0.19638864385562127
% es.Ez (V/m) @ t=0.64
-0.6497482497646221
% es.tEx (V/m) @ t=0.64
-2.549294132522565
% es.tEy (V/m) @ t=0.64
0
% es.tEz (V/m) @ t=0.64
-0.6497482497646203
% V (V) @ t=0.64
0.015289494313256937
% es.normE (V/m) @ t=0.66
2.66245472567728
% es.EX (V/m) @ t=0.66
-2.57263485773467
% es.EY (V/m) @ t=0.66
0.19818673164923772
% es.EZ (V/m) @ t=0.66
-0.6556971890266774
% es.tEX (V/m) @ t=0.66
-2.57263485773467
% es.tEY (V/m) @ t=0.66
0
% es.tEZ (V/m) @ t=0.66
-0.6556971890266752
% es.Ex (V/m) @ t=0.66
-2.57263485773467
% es.Ey (V/m) @ t=0.66
0.19818673164923772
% es.Ez (V/m) @ t=0.66
-0.6556971890266774
% es.tEx (V/m) @ t=0.66
-2.57263485773467
% es.tEy (V/m) @ t=0.66
0
% es.tEz (V/m) @ t=0.66
-0.6556971890266752
% V (V) @ t=0.66
0.01542948123781368
% es.normE (V/m) @ t=0.68
2.686610359034807
% es.EX (V/m) @ t=0.68
-2.5959755829467497
% es.EY (V/m) @ t=0.68
0.19998481944281143
% es.EZ (V/m) @ t=0.68
-0.6616461282887545
% es.tEX (V/m) @ t=0.68
-2.5959755829467603
% es.tEY (V/m) @ t=0.68
0
% es.tEZ (V/m) @ t=0.68
-0.661646128288762
% es.Ex (V/m) @ t=0.68
-2.5959755829467497
% es.Ey (V/m) @ t=0.68
0.19998481944281143
% es.Ez (V/m) @ t=0.68
-0.6616461282887545
% es.tEx (V/m) @ t=0.68
-2.5959755829467603
% es.tEy (V/m) @ t=0.68
0
% es.tEz (V/m) @ t=0.68
-0.661646128288762
% V (V) @ t=0.68
0.015569468162370426
% es.normE (V/m) @ t=0.7
2.7107659923923872
% es.EX (V/m) @ t=0.7
-2.61931630815889
% es.EY (V/m) @ t=0.7
0.20178290723640113
% es.EZ (V/m) @ t=0.7
-0.6675950675508067
% es.tEX (V/m) @ t=0.7
-2.619316308158897
% es.tEY (V/m) @ t=0.7
0
% es.tEZ (V/m) @ t=0.7
-0.6675950675508098
% es.Ex (V/m) @ t=0.7
-2.61931630815889
% es.Ey (V/m) @ t=0.7
0.20178290723640113
% es.Ez (V/m) @ t=0.7
-0.6675950675508067
% es.tEx (V/m) @ t=0.7
-2.619316308158897
% es.tEy (V/m) @ t=0.7
0
% es.tEz (V/m) @ t=0.7
-0.6675950675508098
% V (V) @ t=0.7
0.01570945508692717
% es.normE (V/m) @ t=0.72
2.734921625749912
% es.EX (V/m) @ t=0.72
-2.642657033370968
% es.EY (V/m) @ t=0.72
0.20358099503000693
% es.EZ (V/m) @ t=0.72
-0.6735440068128691
% es.tEX (V/m) @ t=0.72
-2.6426570333709876
% es.tEY (V/m) @ t=0.72
0
% es.tEZ (V/m) @ t=0.72
-0.6735440068128611
% es.Ex (V/m) @ t=0.72
-2.642657033370968
% es.Ey (V/m) @ t=0.72
0.20358099503000693
% es.Ez (V/m) @ t=0.72
-0.6735440068128691
% es.tEx (V/m) @ t=0.72
-2.6426570333709876
% es.tEy (V/m) @ t=0.72
0
% es.tEz (V/m) @ t=0.72
-0.6735440068128611
% V (V) @ t=0.72
0.01584944201148391
% es.normE (V/m) @ t=0.74
2.759077259107456
% es.EX (V/m) @ t=0.74
-2.6659977585830674
% es.EY (V/m) @ t=0.74
0.2053790828236215
% es.EZ (V/m) @ t=0.74
-0.6794929460749248
% es.tEX (V/m) @ t=0.74
-2.6659977585830816
% es.tEY (V/m) @ t=0.74
0
% es.tEZ (V/m) @ t=0.74
-0.679492946074916
% es.Ex (V/m) @ t=0.74
-2.6659977585830674
% es.Ey (V/m) @ t=0.74
0.2053790828236215
% es.Ez (V/m) @ t=0.74
-0.6794929460749248
% es.tEx (V/m) @ t=0.74
-2.6659977585830816
% es.tEy (V/m) @ t=0.74
0
% es.tEz (V/m) @ t=0.74
-0.679492946074916
% V (V) @ t=0.74
0.015989428936040658
% es.normE (V/m) @ t=0.76
2.7832328924649827
% es.EX (V/m) @ t=0.76
-2.689338483795151
% es.EY (V/m) @ t=0.76
0.2071771706172184
% es.EZ (V/m) @ t=0.76
-0.6854418853369819
% es.tEX (V/m) @ t=0.76
-2.6893384837951686
% es.tEY (V/m) @ t=0.76
0
% es.tEZ (V/m) @ t=0.76
-0.6854418853369886
% es.Ex (V/m) @ t=0.76
-2.689338483795151
% es.Ey (V/m) @ t=0.76
0.2071771706172184
% es.Ez (V/m) @ t=0.76
-0.6854418853369819
% es.tEx (V/m) @ t=0.76
-2.6893384837951686
% es.tEy (V/m) @ t=0.76
0
% es.tEz (V/m) @ t=0.76
-0.6854418853369886
% V (V) @ t=0.76
0.0161294158605974
% es.normE (V/m) @ t=0.78
2.809196827921339
% es.EX (V/m) @ t=0.78
-2.7144265066386506
% es.EY (V/m) @ t=0.78
0.20910986443096813
% es.EZ (V/m) @ t=0.78
-0.6918361651324272
% es.tEX (V/m) @ t=0.78
-2.714426506638656
% es.tEY (V/m) @ t=0.78
0
% es.tEZ (V/m) @ t=0.78
-0.6918361651324254
% es.Ex (V/m) @ t=0.78
-2.7144265066386506
% es.Ey (V/m) @ t=0.78
0.20910986443096813
% es.Ez (V/m) @ t=0.78
-0.6918361651324272
% es.tEx (V/m) @ t=0.78
-2.714426506638656
% es.tEy (V/m) @ t=0.78
0
% es.tEz (V/m) @ t=0.78
-0.6918361651324254
% V (V) @ t=0.78
0.016279882261861004
% es.normE (V/m) @ t=0.8
2.835999877083718
% es.EX (V/m) @ t=0.8
-2.7403253350394525
% es.EY (V/m) @ t=0.8
0.21110502001843612
% es.EZ (V/m) @ t=0.8
-0.6984370980892409
% es.tEX (V/m) @ t=0.8
-2.7403253350394756
% es.tEY (V/m) @ t=0.8
0
% es.tEZ (V/m) @ t=0.8
-0.6984370980892294
% es.Ex (V/m) @ t=0.8
-2.7403253350394525
% es.Ey (V/m) @ t=0.8
0.21110502001843612
% es.Ez (V/m) @ t=0.8
-0.6984370980892409
% es.tEx (V/m) @ t=0.8
-2.7403253350394756
% es.tEy (V/m) @ t=0.8
0
% es.tEz (V/m) @ t=0.8
-0.6984370980892294
% V (V) @ t=0.8
0.01643521149690838
% es.normE (V/m) @ t=0.82
2.8628029262461316
% es.EX (V/m) @ t=0.82
-2.7662241634402864
% es.EY (V/m) @ t=0.82
0.21310017560593952
% es.EZ (V/m) @ t=0.82
-0.7050380310460573
% es.tEX (V/m) @ t=0.82
-2.7662241634402776
% es.tEY (V/m) @ t=0.82
0
% es.tEZ (V/m) @ t=0.82
-0.7050380310460582
% es.Ex (V/m) @ t=0.82
-2.7662241634402864
% es.Ey (V/m) @ t=0.82
0.21310017560593952
% es.Ez (V/m) @ t=0.82
-0.7050380310460573
% es.tEx (V/m) @ t=0.82
-2.7662241634402776
% es.tEy (V/m) @ t=0.82
0
% es.tEz (V/m) @ t=0.82
-0.7050380310460582
% V (V) @ t=0.82
0.016590540731955768
% es.normE (V/m) @ t=0.84
2.8896059754085277
% es.EX (V/m) @ t=0.84
-2.792122991841101
% es.EY (V/m) @ t=0.84
0.21509533119341617
% es.EZ (V/m) @ t=0.84
-0.7116389640028862
% es.tEX (V/m) @ t=0.84
-2.7921229918411186
% es.tEY (V/m) @ t=0.84
0
% es.tEZ (V/m) @ t=0.84
-0.7116389640028977
% es.Ex (V/m) @ t=0.84
-2.792122991841101
% es.Ey (V/m) @ t=0.84
0.21509533119341617
% es.Ez (V/m) @ t=0.84
-0.7116389640028862
% es.tEx (V/m) @ t=0.84
-2.7921229918411186
% es.tEy (V/m) @ t=0.84
0
% es.tEz (V/m) @ t=0.84
-0.7116389640028977
% V (V) @ t=0.84
0.01674586996700314
% es.normE (V/m) @ t=0.86
2.916409024570936
% es.EX (V/m) @ t=0.86
-2.8180218202419383
% es.EY (V/m) @ t=0.86
0.21709048678089304
% es.EZ (V/m) @ t=0.86
-0.7182398969596786
% es.tEX (V/m) @ t=0.86
-2.818021820241949
% es.tEY (V/m) @ t=0.86
0
% es.tEZ (V/m) @ t=0.86
-0.7182398969596768
% es.Ex (V/m) @ t=0.86
-2.8180218202419383
% es.Ey (V/m) @ t=0.86
0.21709048678089304
% es.Ez (V/m) @ t=0.86
-0.7182398969596786
% es.tEx (V/m) @ t=0.86
-2.818021820241949
% es.tEy (V/m) @ t=0.86
0
% es.tEz (V/m) @ t=0.86
-0.7182398969596768
% V (V) @ t=0.86
0.016901199202050517
% es.normE (V/m) @ t=0.88
2.9432120737333287
% es.EX (V/m) @ t=0.88
-2.843920648642758
% es.EY (V/m) @ t=0.88
0.2190856423683467
% es.EZ (V/m) @ t=0.88
-0.7248408299164826
% es.tEX (V/m) @ t=0.88
-2.8439206486427366
% es.tEY (V/m) @ t=0.88
0
% es.tEZ (V/m) @ t=0.88
-0.724840829916495
% es.Ex (V/m) @ t=0.88
-2.843920648642758
% es.Ey (V/m) @ t=0.88
0.2190856423683467
% es.Ez (V/m) @ t=0.88
-0.7248408299164826
% es.tEx (V/m) @ t=0.88
-2.8439206486427366
% es.tEy (V/m) @ t=0.88
0
% es.tEz (V/m) @ t=0.88
-0.724840829916495
% V (V) @ t=0.88
0.017056528437097897
% es.normE (V/m) @ t=0.9
2.970015122895724
% es.EX (V/m) @ t=0.9
-2.8698194770435723
% es.EY (V/m) @ t=0.9
0.22108079795583246
% es.EZ (V/m) @ t=0.9
-0.7314417628733052
% es.tEX (V/m) @ t=0.9
-2.8698194770435776
% es.tEY (V/m) @ t=0.9
0
% es.tEZ (V/m) @ t=0.9
-0.7314417628732919
% es.Ex (V/m) @ t=0.9
-2.8698194770435723
% es.Ey (V/m) @ t=0.9
0.22108079795583246
% es.Ez (V/m) @ t=0.9
-0.7314417628733052
% es.tEx (V/m) @ t=0.9
-2.8698194770435776
% es.tEy (V/m) @ t=0.9
0
% es.tEz (V/m) @ t=0.9
-0.7314417628732919
% V (V) @ t=0.9
0.01721185767214528
% es.normE (V/m) @ t=0.92
2.996818172058095
% es.EX (V/m) @ t=0.92
-2.895718305444369
% es.EY (V/m) @ t=0.92
0.22307595354330734
% es.EZ (V/m) @ t=0.92
-0.7380426958301052
% es.tEX (V/m) @ t=0.92
-2.895718305444369
% es.tEY (V/m) @ t=0.92
0
% es.tEZ (V/m) @ t=0.92
-0.7380426958300994
% es.Ex (V/m) @ t=0.92
-2.895718305444369
% es.Ey (V/m) @ t=0.92
0.22307595354330734
% es.Ez (V/m) @ t=0.92
-0.7380426958301052
% es.tEx (V/m) @ t=0.92
-2.895718305444369
% es.tEy (V/m) @ t=0.92
0
% es.tEz (V/m) @ t=0.92
-0.7380426958300994
% V (V) @ t=0.92
0.017367186907192658
% es.normE (V/m) @ t=0.94
3.0236212212204907
% es.EX (V/m) @ t=0.94
-2.921617133845187
% es.EY (V/m) @ t=0.94
0.22507110913081252
% es.EZ (V/m) @ t=0.94
-0.7446436287869109
% es.tEX (V/m) @ t=0.94
-2.9216171338451993
% es.tEY (V/m) @ t=0.94
0
% es.tEZ (V/m) @ t=0.94
-0.7446436287869034
% es.Ex (V/m) @ t=0.94
-2.921617133845187
% es.Ey (V/m) @ t=0.94
0.22507110913081252
% es.Ez (V/m) @ t=0.94
-0.7446436287869109
% es.tEx (V/m) @ t=0.94
-2.9216171338451993
% es.tEy (V/m) @ t=0.94
0
% es.tEz (V/m) @ t=0.94
-0.7446436287869034
% V (V) @ t=0.94
0.017522516142240038
% es.normE (V/m) @ t=0.96
3.050424270382879
% es.EX (V/m) @ t=0.96
-2.947515962245996
% es.EY (V/m) @ t=0.96
0.22706626471828917
% es.EZ (V/m) @ t=0.96
-0.7512445617437327
% es.tEX (V/m) @ t=0.96
-2.947515962246012
% es.tEY (V/m) @ t=0.96
0
% es.tEZ (V/m) @ t=0.96
-0.7512445617437429
% es.Ex (V/m) @ t=0.96
-2.947515962245996
% es.Ey (V/m) @ t=0.96
0.22706626471828917
% es.Ez (V/m) @ t=0.96
-0.7512445617437327
% es.tEx (V/m) @ t=0.96
-2.947515962246012
% es.tEy (V/m) @ t=0.96
0
% es.tEz (V/m) @ t=0.96
-0.7512445617437429
% V (V) @ t=0.96
0.017677845377287418
% es.normE (V/m) @ t=0.98
3.0772273195453135
% es.EX (V/m) @ t=0.98
-2.9734147906468618
% es.EY (V/m) @ t=0.98
0.2290614203057253
% es.EZ (V/m) @ t=0.98
-0.7578454947005282
% es.tEX (V/m) @ t=0.98
-2.973414790646899
% es.tEY (V/m) @ t=0.98
0
% es.tEZ (V/m) @ t=0.98
-0.757845494700522
% es.Ex (V/m) @ t=0.98
-2.9734147906468618
% es.Ey (V/m) @ t=0.98
0.2290614203057253
% es.Ez (V/m) @ t=0.98
-0.7578454947005282
% es.tEx (V/m) @ t=0.98
-2.973414790646899
% es.tEy (V/m) @ t=0.98
0
% es.tEz (V/m) @ t=0.98
-0.757845494700522
% V (V) @ t=0.98
0.0178331746123348
% es.normE (V/m) @ t=1
3.1040303687077198
% es.EX (V/m) @ t=1
-2.999313619047692
% es.EY (V/m) @ t=1
0.23105657589320572
% es.EZ (V/m) @ t=1
-0.7644464276573384
% es.tEX (V/m) @ t=1
-2.9993136190477045
% es.tEY (V/m) @ t=1
0
% es.tEZ (V/m) @ t=1
-0.7644464276573437
% es.Ex (V/m) @ t=1
-2.999313619047692
% es.Ey (V/m) @ t=1
0.23105657589320572
% es.Ez (V/m) @ t=1
-0.7644464276573384
% es.tEx (V/m) @ t=1
-2.9993136190477045
% es.tEy (V/m) @ t=1
0
% es.tEz (V/m) @ t=1
-0.7644464276573437
% V (V) @ t=1
0.017988503847382178
% es.normE (V/m) @ t=1.02
3.130833417870104
% es.EX (V/m) @ t=1.02
-3.025212447448496
% es.EY (V/m) @ t=1.02
0.23305173148070368
% es.EZ (V/m) @ t=1.02
-0.7710473606141548
% es.tEX (V/m) @ t=1.02
-3.0252124474485313
% es.tEY (V/m) @ t=1.02
0
% es.tEZ (V/m) @ t=1.02
-0.7710473606141512
% es.Ex (V/m) @ t=1.02
-3.025212447448496
% es.Ey (V/m) @ t=1.02
0.23305173148070368
% es.Ez (V/m) @ t=1.02
-0.7710473606141548
% es.tEx (V/m) @ t=1.02
-3.0252124474485313
% es.tEy (V/m) @ t=1.02
0
% es.tEz (V/m) @ t=1.02
-0.7710473606141512
% V (V) @ t=1.02
0.018143833082429558
% es.normE (V/m) @ t=1.04
3.158828774117021