% Model:              1 neuron.mph
% Version:            COMSOL 6.1.0.252
% Date:               Mar 22 2023, 19:21
% Dimension:          0
% Nodes:              14017
% Expressions:        14017
% Description:        Electric field norm, Electric field, X component, Electric field, Y component, Electric field, Z component, Tangential electric field, X component, Tangential electric field, Y component, Tangential electric field, Z component, Electric field, x component, Electric field, y component, Electric field, z component, Tangential electric field, x component, Tangential electric field, y component, Tangential electric field, z component, Electric potential
% Length unit:        mm
% x
1
% y
12.2
% z
1.6599999999999997
% es.normE (V/m) @ t=0
2.920146535623359
% es.EX (V/m) @ t=0
2.6141435400446484
% es.EY (V/m) @ t=0
0.10058075134321187
% es.EZ (V/m) @ t=0
-1.2974562570041344
% es.tEX (V/m) @ t=0
2.6141435400446538
% es.tEY (V/m) @ t=0
0
% es.tEZ (V/m) @ t=0
-1.2974562570041286
% es.Ex (V/m) @ t=0
2.6141435400446484
% es.Ey (V/m) @ t=0
0.10058075134321187
% es.Ez (V/m) @ t=0
-1.2974562570041344
% es.tEx (V/m) @ t=0
2.6141435400446538
% es.tEy (V/m) @ t=0
0
% es.tEz (V/m) @ t=0
-1.2974562570041286
% V (V) @ t=0
0.01324867576150458
% es.normE (V/m) @ t=0.02
2.522156090636347
% es.EX (V/m) @ t=0.02
2.2578586294712
% es.EY (V/m) @ t=0.02
0.08687247651247504
% es.EZ (V/m) @ t=0.02
-1.1206243089278538
% es.tEX (V/m) @ t=0.02
2.2578586294711975
% es.tEY (V/m) @ t=0.02
0
% es.tEZ (V/m) @ t=0.02
-1.1206243089278232
% es.Ex (V/m) @ t=0.02
2.2578586294712
% es.Ey (V/m) @ t=0.02
0.08687247651247504
% es.Ez (V/m) @ t=0.02
-1.1206243089278538
% es.tEx (V/m) @ t=0.02
2.2578586294711975
% es.tEy (V/m) @ t=0.02
0
% es.tEz (V/m) @ t=0.02
-1.1206243089278232
% V (V) @ t=0.02
0.011442996995822765
% es.normE (V/m) @ t=0.04
2.5453537014358636
% es.EX (V/m) @ t=0.04
2.2786253579969764
% es.EY (V/m) @ t=0.04
0.08767149272195496
% es.EZ (V/m) @ t=0.04
-1.1309312822451218
% es.tEX (V/m) @ t=0.04
2.2786253579969715
% es.tEY (V/m) @ t=0.04
0
% es.tEZ (V/m) @ t=0.04
-1.130931282245129
% es.Ex (V/m) @ t=0.04
2.2786253579969764
% es.Ey (V/m) @ t=0.04
0.08767149272195496
% es.Ez (V/m) @ t=0.04
-1.1309312822451218
% es.tEx (V/m) @ t=0.04
2.2786253579969715
% es.tEy (V/m) @ t=0.04
0
% es.tEz (V/m) @ t=0.04
-1.130931282245129
% V (V) @ t=0.04
0.011548244190335484
% es.normE (V/m) @ t=0.06
2.568720408069348
% es.EX (V/m) @ t=0.06
2.2995434638081402
% es.EY (V/m) @ t=0.06
0.08847633518201925
% es.EZ (V/m) @ t=0.06
-1.1413133846042605
% es.tEX (V/m) @ t=0.06
2.299543463808136
% es.tEY (V/m) @ t=0.06
0
% es.tEZ (V/m) @ t=0.06
-1.1413133846042811
% es.Ex (V/m) @ t=0.06
2.2995434638081402
% es.Ey (V/m) @ t=0.06
0.08847633518201925
% es.Ez (V/m) @ t=0.06
-1.1413133846042605
% es.tEx (V/m) @ t=0.06
2.299543463808136
% es.tEy (V/m) @ t=0.06
0
% es.tEz (V/m) @ t=0.06
-1.1413133846042811
% V (V) @ t=0.06
0.011654258501662306
% es.normE (V/m) @ t=0.08
2.59253491005648
% es.EX (V/m) @ t=0.08
2.320862433671417
% es.EY (V/m) @ t=0.08
0.08929658835753318
% es.EZ (V/m) @ t=0.08
-1.1518944623352239
% es.tEX (V/m) @ t=0.08
2.3208624336714117
% es.tEY (V/m) @ t=0.08
0
% es.tEZ (V/m) @ t=0.08
-1.1518944623351999
% es.Ex (V/m) @ t=0.08
2.320862433671417
% es.Ey (V/m) @ t=0.08
0.08929658835753318
% es.Ez (V/m) @ t=0.08
-1.1518944623352239
% es.tEx (V/m) @ t=0.08
2.3208624336714117
% es.tEy (V/m) @ t=0.08
0
% es.tEz (V/m) @ t=0.08
-1.1518944623351999
% V (V) @ t=0.08
0.011762304902114766
% es.normE (V/m) @ t=0.1
2.6164709003515005
% es.EX (V/m) @ t=0.1
2.3422901592307843
% es.EY (V/m) @ t=0.1
0.09012102250934056
% es.EZ (V/m) @ t=0.1
-1.1625295227192485
% es.tEX (V/m) @ t=0.1
2.342290159230787
% es.tEY (V/m) @ t=0.1
0
% es.tEZ (V/m) @ t=0.1
-1.162529522719268
% es.Ex (V/m) @ t=0.1
2.3422901592307843
% es.Ey (V/m) @ t=0.1
0.09012102250934056
% es.Ez (V/m) @ t=0.1
-1.1625295227192485
% es.tEx (V/m) @ t=0.1
2.342290159230787
% es.tEy (V/m) @ t=0.1
0
% es.tEz (V/m) @ t=0.1
-1.162529522719268
% V (V) @ t=0.1
0.011870902614829324
% es.normE (V/m) @ t=0.12
2.6404068906465277
% es.EX (V/m) @ t=0.12
2.363717884790149
% es.EY (V/m) @ t=0.12
0.09094545666112841
% es.EZ (V/m) @ t=0.12
-1.1731645831032942
% es.tEX (V/m) @ t=0.12
2.363717884790142
% es.tEY (V/m) @ t=0.12
0
% es.tEZ (V/m) @ t=0.12
-1.1731645831033006
% es.Ex (V/m) @ t=0.12
2.363717884790149
% es.Ey (V/m) @ t=0.12
0.09094545666112841
% es.Ez (V/m) @ t=0.12
-1.1731645831032942
% es.tEx (V/m) @ t=0.12
2.363717884790142
% es.tEy (V/m) @ t=0.12
0
% es.tEz (V/m) @ t=0.12
-1.1731645831033006
% V (V) @ t=0.12
0.011979500327543885
% es.normE (V/m) @ t=0.14
2.665038347502888
% es.EX (V/m) @ t=0.14
2.3857682287225606
% es.EY (V/m) @ t=0.14
0.09179390635097123
% es.EZ (V/m) @ t=0.14
-1.1841085825613917
% es.tEX (V/m) @ t=0.14
2.385768228722558
% es.tEY (V/m) @ t=0.14
0
% es.tEZ (V/m) @ t=0.14
-1.1841085825613575
% es.Ex (V/m) @ t=0.14
2.3857682287225606
% es.Ey (V/m) @ t=0.14
0.09179390635097123
% es.Ez (V/m) @ t=0.14
-1.1841085825613917
% es.tEx (V/m) @ t=0.14
2.385768228722558
% es.tEy (V/m) @ t=0.14
0
% es.tEz (V/m) @ t=0.14
-1.1841085825613575
% V (V) @ t=0.14
0.012091251345033652
% es.normE (V/m) @ t=0.16
2.6901745504233174
% es.EX (V/m) @ t=0.16
2.408270447972475
% es.EY (V/m) @ t=0.16
0.09265978570450084
% es.EZ (V/m) @ t=0.16
-1.195276799530903
% es.tEX (V/m) @ t=0.16
2.4082704479724715
% es.tEY (V/m) @ t=0.16
0
% es.tEZ (V/m) @ t=0.16
-1.1952767995308875
% es.Ex (V/m) @ t=0.16
2.408270447972475
% es.Ey (V/m) @ t=0.16
0.09265978570450084
% es.Ez (V/m) @ t=0.16
-1.195276799530903
% es.tEx (V/m) @ t=0.16
2.4082704479724715
% es.tEy (V/m) @ t=0.16
0
% es.tEz (V/m) @ t=0.16
-1.1952767995308875
% V (V) @ t=0.16
0.012205290924278392
% es.normE (V/m) @ t=0.18
2.715310753343746
% es.EX (V/m) @ t=0.18
2.430772667222383
% es.EY (V/m) @ t=0.18
0.09352566505805437
% es.EZ (V/m) @ t=0.18
-1.2064450165004041
% es.tEX (V/m) @ t=0.18
2.430772667222379
% es.tEY (V/m) @ t=0.18
0
% es.tEZ (V/m) @ t=0.18
-1.2064450165004033
% es.Ex (V/m) @ t=0.18
2.430772667222383
% es.Ey (V/m) @ t=0.18
0.09352566505805437
% es.Ez (V/m) @ t=0.18
-1.2064450165004041
% es.tEx (V/m) @ t=0.18
2.430772667222379
% es.tEy (V/m) @ t=0.18
0
% es.tEz (V/m) @ t=0.18
-1.2064450165004033
% V (V) @ t=0.18
0.012319330503523131
% es.normE (V/m) @ t=0.2
2.7404469562642144
% es.EX (V/m) @ t=0.2
2.4532748864723084
% es.EY (V/m) @ t=0.2
0.09439154441161318
% es.EZ (V/m) @ t=0.2
-1.2176132334699405
% es.tEX (V/m) @ t=0.2
2.4532748864723066
% es.tEY (V/m) @ t=0.2
0
% es.tEZ (V/m) @ t=0.2
-1.2176132334699474
% es.Ex (V/m) @ t=0.2
2.4532748864723084
% es.Ey (V/m) @ t=0.2
0.09439154441161318
% es.Ez (V/m) @ t=0.2
-1.2176132334699405
% es.tEx (V/m) @ t=0.2
2.4532748864723066
% es.tEy (V/m) @ t=0.2
0
% es.tEz (V/m) @ t=0.2
-1.2176132334699474
% V (V) @ t=0.2
0.012433370082767873
% es.normE (V/m) @ t=0.22
2.765583159184664
% es.EX (V/m) @ t=0.22
2.4757771057222224
% es.EY (V/m) @ t=0.22
0.09525742376516322
% es.EZ (V/m) @ t=0.22
-1.2287814504394414
% es.tEX (V/m) @ t=0.22
2.475777105722213
% es.tEY (V/m) @ t=0.22
0
% es.tEZ (V/m) @ t=0.22
-1.228781450439449
% es.Ex (V/m) @ t=0.22
2.4757771057222224
% es.Ey (V/m) @ t=0.22
0.09525742376516322
% es.Ez (V/m) @ t=0.22
-1.2287814504394414
% es.tEx (V/m) @ t=0.22
2.475777105722213
% es.tEy (V/m) @ t=0.22
0
% es.tEz (V/m) @ t=0.22
-1.228781450439449
% V (V) @ t=0.22
0.012547409662012614
% es.normE (V/m) @ t=0.24
2.790719362105124
% es.EX (V/m) @ t=0.24
2.4982793249721302
% es.EY (V/m) @ t=0.24
0.09612330311871237
% es.EZ (V/m) @ t=0.24
-1.2399496674089603
% es.tEX (V/m) @ t=0.24
2.4982793249721347
% es.tEY (V/m) @ t=0.24
0
% es.tEZ (V/m) @ t=0.24
-1.2399496674089576
% es.Ex (V/m) @ t=0.24
2.4982793249721302
% es.Ey (V/m) @ t=0.24
0.09612330311871237
% es.Ez (V/m) @ t=0.24
-1.2399496674089603
% es.tEx (V/m) @ t=0.24
2.4982793249721347
% es.tEy (V/m) @ t=0.24
0
% es.tEz (V/m) @ t=0.24
-1.2399496674089576
% V (V) @ t=0.24
0.012661449241257356
% es.normE (V/m) @ t=0.26
2.8162981317028324
% es.EX (V/m) @ t=0.26
2.5211777728080653
% es.EY (V/m) @ t=0.26
0.09700450447363712
% es.EZ (V/m) @ t=0.26
-1.2513144382291248
% es.tEX (V/m) @ t=0.26
2.5211777728080627
% es.tEY (V/m) @ t=0.26
0
% es.tEZ (V/m) @ t=0.26
-1.251314438229116
% es.Ex (V/m) @ t=0.26
2.5211777728080653
% es.Ey (V/m) @ t=0.26
0.09700450447363712
% es.Ez (V/m) @ t=0.26
-1.2513144382291248
% es.tEx (V/m) @ t=0.26
2.5211777728080627
% es.tEy (V/m) @ t=0.26
0
% es.tEz (V/m) @ t=0.26
-1.251314438229116
% V (V) @ t=0.26
0.012777494141640304
% es.normE (V/m) @ t=0.28
2.844113803713487
% es.EX (V/m) @ t=0.28
2.5460789124996843
% es.EY (V/m) @ t=0.28
0.0979631491237477
% es.EZ (V/m) @ t=0.28
-1.2636726679004366
% es.tEX (V/m) @ t=0.28
2.546078912499687
% es.tEY (V/m) @ t=0.28
0
% es.tEZ (V/m) @ t=0.28
-1.2636726679004298
% es.Ex (V/m) @ t=0.28
2.5460789124996843
% es.Ey (V/m) @ t=0.28
0.0979631491237477
% es.Ez (V/m) @ t=0.28
-1.2636726679004366
% es.tEx (V/m) @ t=0.28
2.546078912499687
% es.tEy (V/m) @ t=0.28
0
% es.tEz (V/m) @ t=0.28
-1.2636726679004298
% V (V) @ t=0.28
0.012903674707276557
% es.normE (V/m) @ t=0.3
2.8719294757244245
% es.EX (V/m) @ t=0.3
2.5709800521913024
% es.EY (V/m) @ t=0.3
0.09892179377386273
% es.EZ (V/m) @ t=0.3
-1.2760308975717554
% es.tEX (V/m) @ t=0.3
2.5709800521912882
% es.tEY (V/m) @ t=0.3
0
% es.tEZ (V/m) @ t=0.3
-1.2760308975717294
% es.Ex (V/m) @ t=0.3
2.5709800521913024
% es.Ey (V/m) @ t=0.3
0.09892179377386273
% es.Ez (V/m) @ t=0.3
-1.2760308975717554
% es.tEx (V/m) @ t=0.3
2.5709800521912882
% es.tEy (V/m) @ t=0.3
0
% es.tEz (V/m) @ t=0.3
-1.2760308975717294
% V (V) @ t=0.3
0.013029855272912812
% es.normE (V/m) @ t=0.32
2.899745147735639
% es.EX (V/m) @ t=0.32
2.5958811918829277
% es.EY (V/m) @ t=0.32
0.09988043842397248
% es.EZ (V/m) @ t=0.32
-1.2883891272430708
% es.tEX (V/m) @ t=0.32
2.5958811918829268
% es.tEY (V/m) @ t=0.32
0
% es.tEZ (V/m) @ t=0.32
-1.2883891272430503
% es.Ex (V/m) @ t=0.32
2.5958811918829277
% es.Ey (V/m) @ t=0.32
0.09988043842397248
% es.Ez (V/m) @ t=0.32
-1.2883891272430708
% es.tEx (V/m) @ t=0.32
2.5958811918829268
% es.tEy (V/m) @ t=0.32
0
% es.tEz (V/m) @ t=0.32
-1.2883891272430503
% V (V) @ t=0.32
0.013156035838549063
% es.normE (V/m) @ t=0.34
2.9275608197470913
% es.EX (V/m) @ t=0.34
2.620782331574536
% es.EY (V/m) @ t=0.34
0.10083908307407591
% es.EZ (V/m) @ t=0.34
-1.300747356914361
% es.tEX (V/m) @ t=0.34
2.620782331574545
% es.tEY (V/m) @ t=0.34
0
% es.tEZ (V/m) @ t=0.34
-1.30074735691435
% es.Ex (V/m) @ t=0.34
2.620782331574536
% es.Ey (V/m) @ t=0.34
0.10083908307407591
% es.Ez (V/m) @ t=0.34
-1.300747356914361
% es.tEx (V/m) @ t=0.34
2.620782331574545
% es.tEy (V/m) @ t=0.34
0
% es.tEz (V/m) @ t=0.34
-1.30074735691435
% V (V) @ t=0.34
0.013282216404185317
% es.normE (V/m) @ t=0.36
2.955376491758833
% es.EX (V/m) @ t=0.36
2.645683471266161
% es.EY (V/m) @ t=0.36
0.10179772772419271
% es.EZ (V/m) @ t=0.36
-1.3131055865856907
% es.tEX (V/m) @ t=0.36
2.6456834712661594
% es.tEY (V/m) @ t=0.36
0
% es.tEZ (V/m) @ t=0.36
-1.3131055865856993
% es.Ex (V/m) @ t=0.36
2.645683471266161
% es.Ey (V/m) @ t=0.36
0.10179772772419271
% es.Ez (V/m) @ t=0.36
-1.3131055865856907
% es.tEx (V/m) @ t=0.36
2.6456834712661594
% es.tEy (V/m) @ t=0.36
0
% es.tEz (V/m) @ t=0.36
-1.3131055865856993
% V (V) @ t=0.36
0.01340839696982157
% es.normE (V/m) @ t=0.38
2.983192163770819
% es.EX (V/m) @ t=0.38
2.6705846109577878
% es.EY (V/m) @ t=0.38
0.1027563723743194
% es.EZ (V/m) @ t=0.38
-1.3254638162570025
% es.tEX (V/m) @ t=0.38
2.6705846109577775
% es.tEY (V/m) @ t=0.38
0
% es.tEZ (V/m) @ t=0.38
-1.3254638162569776
% es.Ex (V/m) @ t=0.38
2.6705846109577878
% es.Ey (V/m) @ t=0.38
0.1027563723743194
% es.Ez (V/m) @ t=0.38
-1.3254638162570025
% es.tEx (V/m) @ t=0.38
2.6705846109577775
% es.tEy (V/m) @ t=0.38
0
% es.tEz (V/m) @ t=0.38
-1.3254638162569776
% V (V) @ t=0.38
0.013534577535457823
% es.normE (V/m) @ t=0.4
3.0110078357830328
% es.EX (V/m) @ t=0.4
2.695485750649398
% es.EY (V/m) @ t=0.4
0.10371501702441571
% es.EZ (V/m) @ t=0.4
-1.3378220459283177
% es.tEX (V/m) @ t=0.4
2.6954857506494
% es.tEY (V/m) @ t=0.4
0
% es.tEZ (V/m) @ t=0.4
-1.3378220459282986
% es.Ex (V/m) @ t=0.4
2.695485750649398
% es.Ey (V/m) @ t=0.4
0.10371501702441571
% es.Ez (V/m) @ t=0.4
-1.3378220459283177
% es.tEx (V/m) @ t=0.4
2.6954857506494
% es.tEy (V/m) @ t=0.4
0
% es.tEz (V/m) @ t=0.4
-1.3378220459282986
% V (V) @ t=0.4
0.013660758101094076
% es.normE (V/m) @ t=0.42
3.038823507795497
% es.EX (V/m) @ t=0.42
2.7203868903410275
% es.EY (V/m) @ t=0.42
0.10467366167454673
% es.EZ (V/m) @ t=0.42
-1.3501802755996222
% es.tEX (V/m) @ t=0.42
2.720386890341018
% es.tEY (V/m) @ t=0.42
0
% es.tEZ (V/m) @ t=0.42
-1.3501802755996195
% es.Ex (V/m) @ t=0.42
2.7203868903410275
% es.Ey (V/m) @ t=0.42
0.10467366167454673
% es.Ez (V/m) @ t=0.42
-1.3501802755996222
% es.tEx (V/m) @ t=0.42
2.720386890341018
% es.tEy (V/m) @ t=0.42
0
% es.tEz (V/m) @ t=0.42
-1.3501802755996195
% V (V) @ t=0.42
0.01378693866673033
% es.normE (V/m) @ t=0.44
3.0666391798081882
% es.EX (V/m) @ t=0.44
2.7452880300326536
% es.EY (V/m) @ t=0.44
0.10563230632465381
% es.EZ (V/m) @ t=0.44
-1.3625385052709305
% es.tEX (V/m) @ t=0.44
2.7452880300326425
% es.tEY (V/m) @ t=0.44
0
% es.tEZ (V/m) @ t=0.44
-1.3625385052709191
% es.Ex (V/m) @ t=0.44
2.7452880300326536
% es.Ey (V/m) @ t=0.44
0.10563230632465381
% es.Ez (V/m) @ t=0.44
-1.3625385052709305
% es.tEx (V/m) @ t=0.44
2.7452880300326425
% es.tEy (V/m) @ t=0.44
0
% es.tEz (V/m) @ t=0.44
-1.3625385052709191
% V (V) @ t=0.44
0.013913119232366579
% es.normE (V/m) @ t=0.46
3.094454851821094
% es.EX (V/m) @ t=0.46
2.770189169724268
% es.EY (V/m) @ t=0.46
0.1065909509747493
% es.EZ (V/m) @ t=0.46
-1.3748967349422423
% es.tEX (V/m) @ t=0.46
2.770189169724244
% es.tEY (V/m) @ t=0.46
0
% es.tEZ (V/m) @ t=0.46
-1.374896734942233
% es.Ex (V/m) @ t=0.46
2.770189169724268
% es.Ey (V/m) @ t=0.46
0.1065909509747493
% es.Ez (V/m) @ t=0.46
-1.3748967349422423
% es.tEx (V/m) @ t=0.46
2.770189169724244
% es.tEy (V/m) @ t=0.46
0
% es.tEz (V/m) @ t=0.46
-1.374896734942233
% V (V) @ t=0.46
0.014039299798002832
% es.normE (V/m) @ t=0.48
3.122270523834209
% es.EX (V/m) @ t=0.48
2.7950903094158726
% es.EY (V/m) @ t=0.48
0.10754959562487676
% es.EZ (V/m) @ t=0.48
-1.387254964613554
% es.tEX (V/m) @ t=0.48
2.7950903094158823
% es.tEY (V/m) @ t=0.48
0
% es.tEZ (V/m) @ t=0.48
-1.3872549646135468
% es.Ex (V/m) @ t=0.48
2.7950903094158726
% es.Ey (V/m) @ t=0.48
0.10754959562487676
% es.Ez (V/m) @ t=0.48
-1.387254964613554
% es.tEx (V/m) @ t=0.48
2.7950903094158823
% es.tEy (V/m) @ t=0.48
0
% es.tEz (V/m) @ t=0.48
-1.3872549646135468
% V (V) @ t=0.48
0.014165480363639089
% es.normE (V/m) @ t=0.5
3.150086195847568
% es.EX (V/m) @ t=0.5
2.8199914491075084
% es.EY (V/m) @ t=0.5
0.10850824027500067
% es.EZ (V/m) @ t=0.5
-1.3996131942848726
% es.tEX (V/m) @ t=0.5
2.819991449107505
% es.tEY (V/m) @ t=0.5
0
% es.tEZ (V/m) @ t=0.5
-1.3996131942848535
% es.Ex (V/m) @ t=0.5
2.8199914491075084
% es.Ey (V/m) @ t=0.5
0.10850824027500067
% es.Ez (V/m) @ t=0.5
-1.3996131942848726
% es.tEx (V/m) @ t=0.5
2.819991449107505
% es.tEy (V/m) @ t=0.5
0
% es.tEz (V/m) @ t=0.5
-1.3996131942848535
% V (V) @ t=0.5
0.01429166092927534
% es.normE (V/m) @ t=0.52
3.17891851494106
% es.EX (V/m) @ t=0.52
2.845802326160883
% es.EY (V/m) @ t=0.52
0.10950113517982496
% es.EZ (V/m) @ t=0.52
-1.4124239475523583
% es.tEX (V/m) @ t=0.52
2.845802326160886
% es.tEY (V/m) @ t=0.52
0
% es.tEZ (V/m) @ t=0.52
-1.412423947552341
% es.Ex (V/m) @ t=0.52
2.845802326160883
% es.Ey (V/m) @ t=0.52
0.10950113517982496
% es.Ez (V/m) @ t=0.52
-1.4124239475523583
% es.tEx (V/m) @ t=0.52
2.845802326160886
% es.tEy (V/m) @ t=0.52
0
% es.tEz (V/m) @ t=0.52
-1.412423947552341
% V (V) @ t=0.52
0.014422479321723558
% es.normE (V/m) @ t=0.54
3.2097545016698827
% es.EX (V/m) @ t=0.54
2.873406166911065
% es.EY (V/m) @ t=0.54
0.11056153249341477
% es.EZ (V/m) @ t=0.54
-1.4261265608378944
% es.tEX (V/m) @ t=0.54
2.8734061669110584
% es.tEY (V/m) @ t=0.54
0
% es.tEZ (V/m) @ t=0.54
-1.4261265608378864
% es.Ex (V/m) @ t=0.54
2.873406166911065
% es.Ey (V/m) @ t=0.54
0.11056153249341477
% es.Ez (V/m) @ t=0.54
-1.4261265608378944
% es.tEx (V/m) @ t=0.54
2.8734061669110584
% es.tEy (V/m) @ t=0.54
0
% es.tEz (V/m) @ t=0.54
-1.4261265608378864
% V (V) @ t=0.54
0.014562438214996924
% es.normE (V/m) @ t=0.56
3.240590488401181
% es.EX (V/m) @ t=0.56
2.9010100076612444
% es.EY (V/m) @ t=0.56
0.11162192980709079
% es.EZ (V/m) @ t=0.56
-1.439829174123434
% es.tEX (V/m) @ t=0.56
2.9010100076612506
% es.tEY (V/m) @ t=0.56
0
% es.tEZ (V/m) @ t=0.56
-1.4398291741234175
% es.Ex (V/m) @ t=0.56
2.9010100076612444
% es.Ey (V/m) @ t=0.56
0.11162192980709079
% es.Ez (V/m) @ t=0.56
-1.439829174123434
% es.tEx (V/m) @ t=0.56
2.9010100076612506
% es.tEy (V/m) @ t=0.56
0
% es.tEz (V/m) @ t=0.56
-1.4398291741234175
% V (V) @ t=0.56
0.014702397108270284
% es.normE (V/m) @ t=0.58
3.2714264751348763
% es.EX (V/m) @ t=0.58
2.928613848411439
% es.EY (V/m) @ t=0.58
0.1126823271207108
% es.EZ (V/m) @ t=0.58
-1.4535317874089382
% es.tEX (V/m) @ t=0.58
2.928613848411425
% es.tEY (V/m) @ t=0.58
0
% es.tEZ (V/m) @ t=0.58
-1.4535317874089344
% es.Ex (V/m) @ t=0.58
2.928613848411439
% es.Ey (V/m) @ t=0.58
0.1126823271207108
% es.Ez (V/m) @ t=0.58
-1.4535317874089382
% es.tEx (V/m) @ t=0.58
2.928613848411425
% es.tEy (V/m) @ t=0.58
0
% es.tEz (V/m) @ t=0.58
-1.4535317874089344
% V (V) @ t=0.58
0.014842356001543648
% es.normE (V/m) @ t=0.6
3.3022624618709013
% es.EX (V/m) @ t=0.6
2.956217689161611
% es.EY (V/m) @ t=0.6
0.11374272443433703
% es.EZ (V/m) @ t=0.6
-1.4672344006944742
% es.tEX (V/m) @ t=0.6
2.9562176891616048
% es.tEY (V/m) @ t=0.6
0
% es.tEZ (V/m) @ t=0.6
-1.4672344006944655
% es.Ex (V/m) @ t=0.6
2.956217689161611
% es.Ey (V/m) @ t=0.6
0.11374272443433703
% es.Ez (V/m) @ t=0.6
-1.4672344006944742
% es.tEx (V/m) @ t=0.6
2.9562176891616048
% es.tEy (V/m) @ t=0.6
0
% es.tEz (V/m) @ t=0.6
-1.4672344006944655
% V (V) @ t=0.6
0.014982314894817009
% es.normE (V/m) @ t=0.62
3.3330984486092015
% es.EX (V/m) @ t=0.62
2.983821529911797
% es.EY (V/m) @ t=0.62
0.11480312174796592
% es.EZ (V/m) @ t=0.62
-1.4809370139799927
% es.tEX (V/m) @ t=0.62
2.9838215299117845
% es.tEY (V/m) @ t=0.62
0
% es.tEZ (V/m) @ t=0.62
-1.4809370139799896
% es.Ex (V/m) @ t=0.62
2.983821529911797
% es.Ey (V/m) @ t=0.62
0.11480312174796592
% es.Ez (V/m) @ t=0.62
-1.4809370139799927
% es.tEx (V/m) @ t=0.62
2.9838215299117845
% es.tEy (V/m) @ t=0.62
0
% es.tEz (V/m) @ t=0.62
-1.4809370139799896
% V (V) @ t=0.62
0.015122273788090376
% es.normE (V/m) @ t=0.64
3.3639344353497007
% es.EX (V/m) @ t=0.64
3.0114253706619696
% es.EY (V/m) @ t=0.64
0.11586351906161707
% es.EZ (V/m) @ t=0.64
-1.494639627265518
% es.tEX (V/m) @ t=0.64
3.0114253706619643
% es.tEY (V/m) @ t=0.64
0
% es.tEZ (V/m) @ t=0.64
-1.4946396272655136
% es.Ex (V/m) @ t=0.64
3.0114253706619696
% es.Ey (V/m) @ t=0.64
0.11586351906161707
% es.Ez (V/m) @ t=0.64
-1.494639627265518
% es.tEx (V/m) @ t=0.64
3.0114253706619643
% es.tEy (V/m) @ t=0.64
0
% es.tEz (V/m) @ t=0.64
-1.4946396272655136
% V (V) @ t=0.64
0.01526223268136374
% es.normE (V/m) @ t=0.66
3.3947704220923676
% es.EX (V/m) @ t=0.66
3.039029211412159
% es.EY (V/m) @ t=0.66
0.1169239163752282
% es.EZ (V/m) @ t=0.66
-1.508342240551054
% es.tEX (V/m) @ t=0.66
3.0390292114121653
% es.tEY (V/m) @ t=0.66
0
% es.tEZ (V/m) @ t=0.66
-1.508342240551059
% es.Ex (V/m) @ t=0.66
3.039029211412159
% es.Ey (V/m) @ t=0.66
0.1169239163752282
% es.Ez (V/m) @ t=0.66
-1.508342240551054
% es.tEx (V/m) @ t=0.66
3.0390292114121653
% es.tEy (V/m) @ t=0.66
0
% es.tEz (V/m) @ t=0.66
-1.508342240551059
% V (V) @ t=0.66
0.015402191574637104
% es.normE (V/m) @ t=0.68
3.4256064088370994
% es.EX (V/m) @ t=0.68
3.066633052162328
% es.EY (V/m) @ t=0.68
0.11798431368888729
% es.EZ (V/m) @ t=0.68
-1.522044853836576
% es.tEX (V/m) @ t=0.68
3.0666330521623237
% es.tEY (V/m) @ t=0.68
0
% es.tEZ (V/m) @ t=0.68
-1.5220448538365687
% es.Ex (V/m) @ t=0.68
3.066633052162328
% es.Ey (V/m) @ t=0.68
0.11798431368888729
% es.Ez (V/m) @ t=0.68
-1.522044853836576
% es.tEx (V/m) @ t=0.68
3.0666330521623237
% es.tEy (V/m) @ t=0.68
0
% es.tEz (V/m) @ t=0.68
-1.5220448538365687
% V (V) @ t=0.68
0.015542150467910467
% es.normE (V/m) @ t=0.7
3.456442395583872
% es.EX (V/m) @ t=0.7
3.0942368929125
% es.EY (V/m) @ t=0.7
0.11904471100251357
% es.EZ (V/m) @ t=0.7
-1.5357474671221085
% es.tEX (V/m) @ t=0.7
3.0942368929124964
% es.tEY (V/m) @ t=0.7
0
% es.tEZ (V/m) @ t=0.7
-1.5357474671220999
% es.Ex (V/m) @ t=0.7
3.0942368929125
% es.Ey (V/m) @ t=0.7
0.11904471100251357
% es.Ez (V/m) @ t=0.7
-1.5357474671221085
% es.tEx (V/m) @ t=0.7
3.0942368929124964
% es.tEy (V/m) @ t=0.7
0
% es.tEz (V/m) @ t=0.7
-1.5357474671220999
% V (V) @ t=0.7
0.01568210936118383
% es.normE (V/m) @ t=0.72
3.4872783823326445
% es.EX (V/m) @ t=0.72
3.1218407336626974
% es.EY (V/m) @ t=0.72
0.12010510831613003
% es.EZ (V/m) @ t=0.72
-1.5494500804076377
% es.tEX (V/m) @ t=0.72
3.1218407336626903
% es.tEY (V/m) @ t=0.72
0
% es.tEZ (V/m) @ t=0.72
-1.5494500804076168
% es.Ex (V/m) @ t=0.72
3.1218407336626974
% es.Ey (V/m) @ t=0.72
0.12010510831613003
% es.Ez (V/m) @ t=0.72
-1.5494500804076377
% es.tEx (V/m) @ t=0.72
3.1218407336626903
% es.tEy (V/m) @ t=0.72
0
% es.tEz (V/m) @ t=0.72
-1.5494500804076168
% V (V) @ t=0.72
0.01582206825445719
% es.normE (V/m) @ t=0.74
3.5181143690833316
% es.EX (V/m) @ t=0.74
3.149444574412869
% es.EY (V/m) @ t=0.74
0.12116550562976958
% es.EZ (V/m) @ t=0.74
-1.5631526936931843
% es.tEX (V/m) @ t=0.74
3.149444574412877
% es.tEY (V/m) @ t=0.74
0
% es.tEZ (V/m) @ t=0.74
-1.5631526936931763
% es.Ex (V/m) @ t=0.74
3.149444574412869
% es.Ey (V/m) @ t=0.74
0.12116550562976958
% es.Ez (V/m) @ t=0.74
-1.5631526936931843
% es.tEx (V/m) @ t=0.74
3.149444574412877
% es.tEy (V/m) @ t=0.74
0
% es.tEz (V/m) @ t=0.74
-1.5631526936931763
% V (V) @ t=0.74
0.015962027147730557
% es.normE (V/m) @ t=0.76
3.548950355835887
% es.EX (V/m) @ t=0.76
3.1770484151630534
% es.EY (V/m) @ t=0.76
0.12222590294339947
% es.EZ (V/m) @ t=0.76
-1.5768553069786884
% es.tEX (V/m) @ t=0.76
3.1770484151630427
% es.tEY (V/m) @ t=0.76
0
% es.tEZ (V/m) @ t=0.76
-1.576855306978679
% es.Ex (V/m) @ t=0.76
3.1770484151630534
% es.Ey (V/m) @ t=0.76
0.12222590294339947
% es.Ez (V/m) @ t=0.76
-1.5768553069786884
% es.tEx (V/m) @ t=0.76
3.1770484151630427
% es.tEy (V/m) @ t=0.76
0
% es.tEz (V/m) @ t=0.76
-1.576855306978679
% V (V) @ t=0.76
0.016101986041003918
% es.normE (V/m) @ t=0.78
3.58150793570346
% es.EX (V/m) @ t=0.78
3.206194429463952
% es.EY (V/m) @ t=0.78
0.12334762452542924
% es.EZ (V/m) @ t=0.78
-1.591320699575672
% es.tEX (V/m) @ t=0.78
3.2061944294639506
% es.tEY (V/m) @ t=0.78
0
% es.tEZ (V/m) @ t=0.78
-1.591320699575654
% es.Ex (V/m) @ t=0.78
3.206194429463952
% es.Ey (V/m) @ t=0.78
0.12334762452542924
% es.Ez (V/m) @ t=0.78
-1.591320699575672
% es.tEx (V/m) @ t=0.78
3.2061944294639506
% es.tEy (V/m) @ t=0.78
0
% es.tEz (V/m) @ t=0.78
-1.591320699575654
% V (V) @ t=0.78
0.016249689109429477
% es.normE (V/m) @ t=0.8
3.615732641687196
% es.EX (V/m) @ t=0.8
3.2368338267116883
% es.EY (V/m) @ t=0.8
0.12452873022577049
% es.EZ (V/m) @ t=0.8
-1.6065247390100565
% es.tEX (V/m) @ t=0.8
3.2368338267116865
% es.tEY (V/m) @ t=0.8
0
% es.tEZ (V/m) @ t=0.8
-1.6065247390100552
% es.Ex (V/m) @ t=0.8
3.2368338267116883
% es.Ey (V/m) @ t=0.8
0.12452873022577049
% es.Ez (V/m) @ t=0.8
-1.6065247390100565
% es.tEx (V/m) @ t=0.8
3.2368338267116865
% es.tEy (V/m) @ t=0.8
0
% es.tEz (V/m) @ t=0.8
-1.6065247390100552
% V (V) @ t=0.8
0.016404891346223197
% es.normE (V/m) @ t=0.82
3.649957347674973
% es.EX (V/m) @ t=0.82
3.2674732239594677
% es.EY (V/m) @ t=0.82
0.12570983592620577
% es.EZ (V/m) @ t=0.82
-1.6217287784444765
% es.tEX (V/m) @ t=0.82
3.267473223959465
% es.tEY (V/m) @ t=0.82
0
% es.tEZ (V/m) @ t=0.82
-1.6217287784444565
% es.Ex (V/m) @ t=0.82
3.2674732239594677
% es.Ey (V/m) @ t=0.82
0.12570983592620577
% es.Ez (V/m) @ t=0.82
-1.6217287784444765
% es.tEx (V/m) @ t=0.82
3.267473223959465
% es.tEy (V/m) @ t=0.82
0
% es.tEz (V/m) @ t=0.82
-1.6217287784444565
% V (V) @ t=0.82
0.016560093583016924
% es.normE (V/m) @ t=0.84
3.684182053666552
% es.EX (V/m) @ t=0.84
3.2981126212071987
% es.EY (V/m) @ t=0.84
0.126890941626554
% es.EZ (V/m) @ t=0.84
-1.6369328178788398
% es.tEX (V/m) @ t=0.84
3.2981126212071903
% es.tEY (V/m) @ t=0.84
0
% es.tEZ (V/m) @ t=0.84
-1.6369328178788365
% es.Ex (V/m) @ t=0.84
3.2981126212071987
% es.Ey (V/m) @ t=0.84
0.126890941626554
% es.Ez (V/m) @ t=0.84
-1.6369328178788398
% es.tEx (V/m) @ t=0.84
3.2981126212071903
% es.tEy (V/m) @ t=0.84
0
% es.tEz (V/m) @ t=0.84
-1.6369328178788365
% V (V) @ t=0.84
0.016715295819810648
% es.normE (V/m) @ t=0.86
3.718406759661921
% es.EX (V/m) @ t=0.86
3.328752018454942
% es.EY (V/m) @ t=0.86
0.12807204732692362
% es.EZ (V/m) @ t=0.86
-1.6521368573132313
% es.tEX (V/m) @ t=0.86
3.3287520184549404
% es.tEY (V/m) @ t=0.86
0
% es.tEZ (V/m) @ t=0.86
-1.6521368573132094
% es.Ex (V/m) @ t=0.86
3.328752018454942
% es.Ey (V/m) @ t=0.86
0.12807204732692362
% es.Ez (V/m) @ t=0.86
-1.6521368573132313
% es.tEx (V/m) @ t=0.86
3.3287520184549404
% es.tEy (V/m) @ t=0.86
0
% es.tEz (V/m) @ t=0.86
-1.6521368573132094
% V (V) @ t=0.86
0.01687049805660437
% es.normE (V/m) @ t=0.88
3.752631465660963
% es.EX (V/m) @ t=0.88
3.359391415702702
% es.EY (V/m) @ t=0.88
0.12925315302734475
% es.EZ (V/m) @ t=0.88
-1.6673408967476089
% es.tEX (V/m) @ t=0.88
3.3593914157027065
% es.tEY (V/m) @ t=0.88
0
% es.tEZ (V/m) @ t=0.88
-1.6673408967476036
% es.Ex (V/m) @ t=0.88
3.359391415702702
% es.Ey (V/m) @ t=0.88
0.12925315302734475
% es.Ez (V/m) @ t=0.88
-1.6673408967476089
% es.tEx (V/m) @ t=0.88
3.3593914157027065
% es.tEy (V/m) @ t=0.88
0
% es.tEz (V/m) @ t=0.88
-1.6673408967476036
% V (V) @ t=0.88
0.017025700293398095
% es.normE (V/m) @ t=0.9
3.7868561716636
% es.EX (V/m) @ t=0.9
3.3900308129504735
% es.EY (V/m) @ t=0.9
0.13043425872772324
% es.EZ (V/m) @ t=0.9
-1.682544936182036
% es.tEX (V/m) @ t=0.9
3.3900308129504726
% es.tEY (V/m) @ t=0.9
0
% es.tEZ (V/m) @ t=0.9
-1.6825449361820333
% es.Ex (V/m) @ t=0.9
3.3900308129504735
% es.Ey (V/m) @ t=0.9
0.13043425872772324
% es.Ez (V/m) @ t=0.9
-1.682544936182036
% es.tEx (V/m) @ t=0.9
3.3900308129504726
% es.tEy (V/m) @ t=0.9
0
% es.tEz (V/m) @ t=0.9
-1.6825449361820333
% V (V) @ t=0.9
0.017180902530191822
% es.normE (V/m) @ t=0.92
3.8210808776696705
% es.EX (V/m) @ t=0.92
3.4206702101982245
% es.EY (V/m) @ t=0.92
0.1316153644281141
% es.EZ (V/m) @ t=0.92
-1.6977489756164277
% es.tEX (V/m) @ t=0.92
3.4206702101982085
% es.tEY (V/m) @ t=0.92
0
% es.tEZ (V/m) @ t=0.92
-1.6977489756164061
% es.Ex (V/m) @ t=0.92
3.4206702101982245
% es.Ey (V/m) @ t=0.92
0.1316153644281141
% es.Ez (V/m) @ t=0.92
-1.6977489756164277
% es.tEx (V/m) @ t=0.92
3.4206702101982085
% es.tEy (V/m) @ t=0.92
0
% es.tEz (V/m) @ t=0.92
-1.6977489756164061
% V (V) @ t=0.92
0.017336104766985546
% es.normE (V/m) @ t=0.94
3.8553055836790824
% es.EX (V/m) @ t=0.94
3.4513096074459617
% es.EY (V/m) @ t=0.94
0.1327964701284659
% es.EZ (V/m) @ t=0.94
-1.712953015050773
% es.tEX (V/m) @ t=0.94
3.4513096074459604
% es.tEY (V/m) @ t=0.94
0
% es.tEZ (V/m) @ t=0.94
-1.7129530150507861
% es.Ex (V/m) @ t=0.94
3.4513096074459617
% es.Ey (V/m) @ t=0.94
0.1327964701284659
% es.Ez (V/m) @ t=0.94
-1.712953015050773
% es.tEx (V/m) @ t=0.94
3.4513096074459604
% es.tEy (V/m) @ t=0.94
0
% es.tEz (V/m) @ t=0.94
-1.7129530150507861
% V (V) @ t=0.94
0.01749130700377927
% es.normE (V/m) @ t=0.96
3.889530289691817
% es.EX (V/m) @ t=0.96
3.481949004693706
% es.EY (V/m) @ t=0.96
0.13397757582884967
% es.EZ (V/m) @ t=0.96
-1.7281570544851825
% es.tEX (V/m) @ t=0.96
3.481949004693698
% es.tEY (V/m) @ t=0.96
0
% es.tEZ (V/m) @ t=0.96
-1.728157054485166
% es.Ex (V/m) @ t=0.96
3.481949004693706
% es.Ey (V/m) @ t=0.96
0.13397757582884967
% es.Ez (V/m) @ t=0.96
-1.7281570544851825
% es.tEx (V/m) @ t=0.96
3.481949004693698
% es.tEy (V/m) @ t=0.96
0
% es.tEz (V/m) @ t=0.96
-1.728157054485166
% V (V) @ t=0.96
0.017646509240572993
% es.normE (V/m) @ t=0.98
3.9237549957077684
% es.EX (V/m) @ t=0.98
3.512588401941486
% es.EY (V/m) @ t=0.98
0.13515868152922816
% es.EZ (V/m) @ t=0.98
-1.7433610939195598
% es.tEX (V/m) @ t=0.98
3.5125884019414784
% es.tEY (V/m) @ t=0.98
0
% es.tEZ (V/m) @ t=0.98
-1.7433610939195745
% es.Ex (V/m) @ t=0.98
3.512588401941486
% es.Ey (V/m) @ t=0.98
0.13515868152922816
% es.Ez (V/m) @ t=0.98
-1.7433610939195598
% es.tEx (V/m) @ t=0.98
3.5125884019414784
% es.tEy (V/m) @ t=0.98
0
% es.tEz (V/m) @ t=0.98
-1.7433610939195745
% V (V) @ t=0.98
0.017801711477366717
% es.normE (V/m) @ t=1
3.9579797017267913
% es.EX (V/m) @ t=1
3.543227799189208
% es.EY (V/m) @ t=1
0.13633978722960133
% es.EZ (V/m) @ t=1
-1.7585651333539478
% es.tEX (V/m) @ t=1
3.5432277991892143
% es.tEY (V/m) @ t=1
0
% es.tEZ (V/m) @ t=1
-1.7585651333539545
% es.Ex (V/m) @ t=1
3.543227799189208
% es.Ey (V/m) @ t=1
0.13633978722960133
% es.Ez (V/m) @ t=1
-1.7585651333539478
% es.tEx (V/m) @ t=1
3.5432277991892143
% es.tEy (V/m) @ t=1
0
% es.tEz (V/m) @ t=1
-1.7585651333539545
% V (V) @ t=1
0.01795691371416044
% es.normE (V/m) @ t=1.02
3.992204407748887
% es.EX (V/m) @ t=1.02
3.573867196436967
% es.EY (V/m) @ t=1.02
0.1375208929300047
% es.EZ (V/m) @ t=1.02
-1.7737691727883431
% es.tEX (V/m) @ t=1.02
3.57386719643695
% es.tEY (V/m) @ t=1.02
0
% es.tEZ (V/m) @ t=1.02
-1.773769172788306
% es.Ex (V/m) @ t=1.02
3.573867196436967
% es.Ey (V/m) @ t=1.02
0.1375208929300047
% es.Ez (V/m) @ t=1.02
-1.7737691727883431
% es.tEx (V/m) @ t=1.02
3.57386719643695
% es.tEy (V/m) @ t=1.02
0
% es.tEz (V/m) @ t=1.02
-1.773769172788306
% V (V) @ t=1.02
0.018112115950954168
% es.normE (V/m) @ t=1.04
4.0275504831136475
% es.EX (V/m) @ t=1.04
3.605510105639759
% es.EY (V/m) @ t=1.04
0.13873990551649729
% es.EZ (V/m) @ t=1.04
-1.7894722085279602
% es.tEX (V/m) @ t=1.04
3.6055101056397554
% es.tEY (V/m) @ t=1.04
0
% es.tEZ (V/m) @ t=1.04
-1.7894722085279824