% Model:              1 neuron.mph
% Version:            COMSOL 6.1.0.252
% Date:               Mar 22 2023, 19:33
% Dimension:          0
% Nodes:              14017
% Expressions:        14017
% Description:        Electric field norm, Electric field, X component, Electric field, Y component, Electric field, Z component, Tangential electric field, X component, Tangential electric field, Y component, Tangential electric field, Z component, Electric field, x component, Electric field, y component, Electric field, z component, Tangential electric field, x component, Tangential electric field, y component, Tangential electric field, z component, Electric potential
% Length unit:        mm
% x
2
% y
12.2
% z
1.6599999999999997
% es.normE (V/m) @ t=0
2.283685279425847
% es.EX (V/m) @ t=0
-2.206643563543155
% es.EY (V/m) @ t=0
0.16999207852888532
% es.EZ (V/m) @ t=0
-0.5624152303796377
% es.tEX (V/m) @ t=0
-2.206643563543164
% es.tEY (V/m) @ t=0
0
% es.tEZ (V/m) @ t=0
-0.5624152303796492
% es.Ex (V/m) @ t=0
-2.206643563543155
% es.Ey (V/m) @ t=0
0.16999207852888532
% es.Ez (V/m) @ t=0
-0.5624152303796377
% es.tEx (V/m) @ t=0
-2.206643563543164
% es.tEy (V/m) @ t=0
0
% es.tEz (V/m) @ t=0
-0.5624152303796492
% V (V) @ t=0
0.013234431922657606
% es.normE (V/m) @ t=0.02
1.9724538768218056
% es.EX (V/m) @ t=0.02
-1.9059117694065755
% es.EY (V/m) @ t=0.02
0.14682475621230173
% es.EZ (V/m) @ t=0.02
-0.4857666297116703
% es.tEX (V/m) @ t=0.02
-1.9059117694065915
% es.tEY (V/m) @ t=0.02
0
% es.tEZ (V/m) @ t=0.02
-0.4857666297116623
% es.Ex (V/m) @ t=0.02
-1.9059117694065755
% es.Ey (V/m) @ t=0.02
0.14682475621230173
% es.Ez (V/m) @ t=0.02
-0.4857666297116703
% es.tEx (V/m) @ t=0.02
-1.9059117694065915
% es.tEy (V/m) @ t=0.02
0
% es.tEz (V/m) @ t=0.02
-0.4857666297116623
% V (V) @ t=0.02
0.011430781107243642
% es.normE (V/m) @ t=0.04
1.9906106506776036
% es.EX (V/m) @ t=0.04
-1.9234560118299617
% es.EY (V/m) @ t=0.04
0.14817630314600094
% es.EZ (V/m) @ t=0.04
-0.490238194259387
% es.tEX (V/m) @ t=0.04
-1.9234560118299644
% es.tEY (V/m) @ t=0.04
0
% es.tEZ (V/m) @ t=0.04
-0.4902381942593941
% es.Ex (V/m) @ t=0.04
-1.9234560118299617
% es.Ey (V/m) @ t=0.04
0.14817630314600094
% es.Ez (V/m) @ t=0.04
-0.490238194259387
% es.tEx (V/m) @ t=0.04
-1.9234560118299644
% es.tEy (V/m) @ t=0.04
0
% es.tEz (V/m) @ t=0.04
-0.4902381942593941
% V (V) @ t=0.04
0.011536003391095657
% es.normE (V/m) @ t=0.06
2.0088978667293382
% es.EX (V/m) @ t=0.06
-1.941126295877588
% es.EY (V/m) @ t=0.06
0.1495375597240337
% es.EZ (V/m) @ t=0.06
-0.49474188358508453
% es.tEX (V/m) @ t=0.06
-1.9411262958775968
% es.tEY (V/m) @ t=0.06
0
% es.tEZ (V/m) @ t=0.06
-0.4947418835850872
% es.Ex (V/m) @ t=0.06
-1.941126295877588
% es.Ey (V/m) @ t=0.06
0.1495375597240337
% es.Ez (V/m) @ t=0.06
-0.49474188358508453
% es.tEx (V/m) @ t=0.06
-1.9411262958775968
% es.tEy (V/m) @ t=0.06
0
% es.tEz (V/m) @ t=0.06
-0.4947418835850872
% V (V) @ t=0.06
0.0116419816262134
% es.normE (V/m) @ t=0.08
2.0275398779115346
% es.EX (V/m) @ t=0.08
-1.9591394058091423
% es.EY (V/m) @ t=0.08
0.15092522650511708
% es.EZ (V/m) @ t=0.08
-0.4993329501005541
% es.tEX (V/m) @ t=0.08
-1.9591394058091733
% es.tEY (V/m) @ t=0.08
0
% es.tEZ (V/m) @ t=0.08
-0.49933295010056256
% es.Ex (V/m) @ t=0.08
-1.9591394058091423
% es.Ey (V/m) @ t=0.08
0.15092522650511708
% es.Ez (V/m) @ t=0.08
-0.4993329501005541
% es.tEx (V/m) @ t=0.08
-1.9591394058091733
% es.tEy (V/m) @ t=0.08
0
% es.tEz (V/m) @ t=0.08
-0.49933295010056256
% V (V) @ t=0.08
0.011750015965211708
% es.normE (V/m) @ t=0.1
2.0462708260516047
% es.EX (V/m) @ t=0.1
-1.9772384523519433
% es.EY (V/m) @ t=0.1
0.15231951356619822
% es.EZ (V/m) @ t=0.1
-0.5039459195700768
% es.tEX (V/m) @ t=0.1
-1.9772384523519602
% es.tEY (V/m) @ t=0.1
0
% es.tEZ (V/m) @ t=0.1
-0.5039459195700804
% es.Ex (V/m) @ t=0.1
-1.9772384523519433
% es.Ey (V/m) @ t=0.1
0.15231951356619822
% es.Ez (V/m) @ t=0.1
-0.5039459195700768
% es.tEx (V/m) @ t=0.1
-1.9772384523519602
% es.tEy (V/m) @ t=0.1
0
% es.tEz (V/m) @ t=0.1
-0.5039459195700804
% V (V) @ t=0.1
0.011858565710450134
% es.normE (V/m) @ t=0.12
2.0650017741916633
% es.EX (V/m) @ t=0.12
-1.9953374988947257
% es.EY (V/m) @ t=0.12
0.15371380062731577
% es.EZ (V/m) @ t=0.12
-0.5085588890396182
% es.tEX (V/m) @ t=0.12
-1.9953374988947434
% es.tEY (V/m) @ t=0.12
0
% es.tEZ (V/m) @ t=0.12
-0.5085588890396302
% es.Ex (V/m) @ t=0.12
-1.9953374988947257
% es.Ey (V/m) @ t=0.12
0.15371380062731577
% es.Ez (V/m) @ t=0.12
-0.5085588890396182
% es.tEx (V/m) @ t=0.12
-1.9953374988947434
% es.tEy (V/m) @ t=0.12
0
% es.tEz (V/m) @ t=0.12
-0.5085588890396302
% V (V) @ t=0.12
0.011967115455688553
% es.normE (V/m) @ t=0.14
2.0842990744899845
% es.EX (V/m) @ t=0.14
-2.0139837913178464
% es.EY (V/m) @ t=0.14
0.15515024552485968
% es.EZ (V/m) @ t=0.14
-0.51331133703474
% es.tEX (V/m) @ t=0.14
-2.0139837913178535
% es.tEY (V/m) @ t=0.14
0
% es.tEZ (V/m) @ t=0.14
-0.5133113370347289
% es.Ex (V/m) @ t=0.14
-2.0139837913178464
% es.Ey (V/m) @ t=0.14
0.15515024552485968
% es.Ez (V/m) @ t=0.14
-0.51331133703474
% es.tEx (V/m) @ t=0.14
-2.0139837913178535
% es.tEy (V/m) @ t=0.14
0
% es.tEz (V/m) @ t=0.14
-0.5133113370347289
% V (V) @ t=0.14
0.01207894733366112
% es.normE (V/m) @ t=0.16
2.103965554530552
% es.EX (V/m) @ t=0.16
-2.032986808951775
% es.EY (V/m) @ t=0.16
0.15661417123796406
% es.EZ (V/m) @ t=0.16
-0.5181547048672286
% es.tEX (V/m) @ t=0.16
-2.0329868089517866
% es.tEY (V/m) @ t=0.16
0
% es.tEZ (V/m) @ t=0.16
-0.5181547048672286
% es.Ex (V/m) @ t=0.16
-2.032986808951775
% es.Ey (V/m) @ t=0.16
0.15661417123796406
% es.Ez (V/m) @ t=0.16
-0.5181547048672286
% es.tEx (V/m) @ t=0.16
-2.0329868089517866
% es.tEy (V/m) @ t=0.16
0
% es.tEz (V/m) @ t=0.16
-0.5181547048672286
% V (V) @ t=0.16
0.012192918687751702
% es.normE (V/m) @ t=0.18
2.123632034571112
% es.EX (V/m) @ t=0.18
-2.0519898265856957
% es.EY (V/m) @ t=0.18
0.15807809695107278
% es.EZ (V/m) @ t=0.18
-0.5229980726997159
% es.tEX (V/m) @ t=0.18
-2.0519898265857055
% es.tEY (V/m) @ t=0.18
0
% es.tEZ (V/m) @ t=0.18
-0.5229980726997265
% es.Ex (V/m) @ t=0.18
-2.0519898265856957
% es.Ey (V/m) @ t=0.18
0.15807809695107278
% es.Ez (V/m) @ t=0.18
-0.5229980726997159
% es.tEx (V/m) @ t=0.18
-2.0519898265857055
% es.tEy (V/m) @ t=0.18
0
% es.tEz (V/m) @ t=0.18
-0.5229980726997265
% V (V) @ t=0.18
0.012306890041842286
% es.normE (V/m) @ t=0.2
2.1432985146116637
% es.EX (V/m) @ t=0.2
-2.070992844219605
% es.EY (V/m) @ t=0.2
0.1595420226641877
% es.EZ (V/m) @ t=0.2
-0.5278414405322116
% es.tEX (V/m) @ t=0.2
-2.0709928442195995
% es.tEY (V/m) @ t=0.2
0
% es.tEZ (V/m) @ t=0.2
-0.5278414405322138
% es.Ex (V/m) @ t=0.2
-2.070992844219605
% es.Ey (V/m) @ t=0.2
0.1595420226641877
% es.Ez (V/m) @ t=0.2
-0.5278414405322116
% es.tEx (V/m) @ t=0.2
-2.0709928442195995
% es.tEy (V/m) @ t=0.2
0
% es.tEz (V/m) @ t=0.2
-0.5278414405322138
% V (V) @ t=0.2
0.012420861395932866
% es.normE (V/m) @ t=0.22
2.1629649946522687
% es.EX (V/m) @ t=0.22
-2.08999586185357
% es.EY (V/m) @ t=0.22
0.161005948377284
% es.EZ (V/m) @ t=0.22
-0.5326848083647118
% es.tEX (V/m) @ t=0.22
-2.089995861853577
% es.tEY (V/m) @ t=0.22
0
% es.tEZ (V/m) @ t=0.22
-0.5326848083646976
% es.Ex (V/m) @ t=0.22
-2.08999586185357
% es.Ey (V/m) @ t=0.22
0.161005948377284
% es.Ez (V/m) @ t=0.22
-0.5326848083647118
% es.tEx (V/m) @ t=0.22
-2.089995861853577
% es.tEy (V/m) @ t=0.22
0
% es.tEz (V/m) @ t=0.22
-0.5326848083646976
% V (V) @ t=0.22
0.012534832750023452
% es.normE (V/m) @ t=0.24
2.182631474692844
% es.EX (V/m) @ t=0.24
-2.1089988794874976
% es.EY (V/m) @ t=0.24
0.1624698740904318
% es.EZ (V/m) @ t=0.24
-0.5375281761972222
% es.tEX (V/m) @ t=0.24
-2.1089988794874976
% es.tEY (V/m) @ t=0.24
0
% es.tEZ (V/m) @ t=0.24
-0.5375281761972239
% es.Ex (V/m) @ t=0.24
-2.1089988794874976
% es.Ey (V/m) @ t=0.24
0.1624698740904318
% es.Ez (V/m) @ t=0.24
-0.5375281761972222
% es.tEx (V/m) @ t=0.24
-2.1089988794874976
% es.tEy (V/m) @ t=0.24
0
% es.tEz (V/m) @ t=0.24
-0.5375281761972239
% V (V) @ t=0.24
0.012648804104114033
% es.normE (V/m) @ t=0.26
2.2027511472018353
% es.EX (V/m) @ t=0.26
-2.1284398008085184
% es.EY (V/m) @ t=0.26
0.16396753460273128
% es.EZ (V/m) @ t=0.26
-0.5424831541380626
% es.tEX (V/m) @ t=0.26
-2.1284398008085397
% es.tEY (V/m) @ t=0.26
0
% es.tEZ (V/m) @ t=0.26
-0.5424831541380648
% es.Ex (V/m) @ t=0.26
-2.1284398008085184
% es.Ey (V/m) @ t=0.26
0.16396753460273128
% es.Ez (V/m) @ t=0.26
-0.5424831541380626
% es.tEx (V/m) @ t=0.26
-2.1284398008085397
% es.tEy (V/m) @ t=0.26
0
% es.tEz (V/m) @ t=0.26
-0.5424831541380648
% V (V) @ t=0.26
0.01276540178949887
% es.normE (V/m) @ t=0.28
2.2245060877101377
% es.EX (V/m) @ t=0.28
-2.149460823159833
% es.EY (V/m) @ t=0.28
0.16558692140454134
% es.EZ (V/m) @ t=0.28
-0.5478408581860568
% es.tEX (V/m) @ t=0.28
-2.149460823159817
% es.tEY (V/m) @ t=0.28
0
% es.tEZ (V/m) @ t=0.28
-0.547840858186051
% es.Ex (V/m) @ t=0.28
-2.149460823159833
% es.Ey (V/m) @ t=0.28
0.16558692140454134
% es.Ez (V/m) @ t=0.28
-0.5478408581860568
% es.tEx (V/m) @ t=0.28
-2.149460823159817
% es.tEy (V/m) @ t=0.28
0
% es.tEz (V/m) @ t=0.28
-0.547840858186051
% V (V) @ t=0.28
0.012891476144996587
% es.normE (V/m) @ t=0.3
2.2462610282184357
% es.EX (V/m) @ t=0.3
-2.170481845511147
% es.EY (V/m) @ t=0.3
0.16720630820634863
% es.EZ (V/m) @ t=0.3
-0.5531985622340336
% es.tEX (V/m) @ t=0.3
-2.170481845511162
% es.tEY (V/m) @ t=0.3
0
% es.tEZ (V/m) @ t=0.3
-0.5531985622340141
% es.Ex (V/m) @ t=0.3
-2.170481845511147
% es.Ey (V/m) @ t=0.3
0.16720630820634863
% es.Ez (V/m) @ t=0.3
-0.5531985622340336
% es.tEx (V/m) @ t=0.3
-2.170481845511162
% es.tEy (V/m) @ t=0.3
0
% es.tEz (V/m) @ t=0.3
-0.5531985622340141
% V (V) @ t=0.3
0.013017550500494305
% es.normE (V/m) @ t=0.32
2.2680159687267207
% es.EX (V/m) @ t=0.32
-2.191502867862445
% es.EY (V/m) @ t=0.32
0.1688256950081818
% es.EZ (V/m) @ t=0.32
-0.5585562662820145
% es.tEX (V/m) @ t=0.32
-2.1915028678624644
% es.tEY (V/m) @ t=0.32
0
% es.tEZ (V/m) @ t=0.32
-0.558556266282018
% es.Ex (V/m) @ t=0.32
-2.191502867862445
% es.Ey (V/m) @ t=0.32
0.1688256950081818
% es.Ez (V/m) @ t=0.32
-0.5585562662820145
% es.tEx (V/m) @ t=0.32
-2.1915028678624644
% es.tEy (V/m) @ t=0.32
0
% es.tEz (V/m) @ t=0.32
-0.558556266282018
% V (V) @ t=0.32
0.013143624855992018
% es.normE (V/m) @ t=0.34
2.289770909235018
% es.EX (V/m) @ t=0.34
-2.2125238902137525
% es.EY (V/m) @ t=0.34
0.1704450818100024
% es.EZ (V/m) @ t=0.34
-0.5639139703300109
% es.tEX (V/m) @ t=0.34
-2.2125238902137703
% es.tEY (V/m) @ t=0.34
0
% es.tEZ (V/m) @ t=0.34
-0.5639139703300131
% es.Ex (V/m) @ t=0.34
-2.2125238902137525
% es.Ey (V/m) @ t=0.34
0.1704450818100024
% es.Ez (V/m) @ t=0.34
-0.5639139703300109
% es.tEx (V/m) @ t=0.34
-2.2125238902137703
% es.tEy (V/m) @ t=0.34
0
% es.tEz (V/m) @ t=0.34
-0.5639139703300131
% V (V) @ t=0.34
0.013269699211489738
% es.normE (V/m) @ t=0.36
2.3115258497433038
% es.EX (V/m) @ t=0.36
-2.2335449125650575
% es.EY (V/m) @ t=0.36
0.1720644686118019
% es.EZ (V/m) @ t=0.36
-0.5692716743779771
% es.tEX (V/m) @ t=0.36
-2.2335449125650726
% es.tEY (V/m) @ t=0.36
0
% es.tEZ (V/m) @ t=0.36
-0.569271674377994
% es.Ex (V/m) @ t=0.36
-2.2335449125650575
% es.Ey (V/m) @ t=0.36
0.1720644686118019
% es.Ez (V/m) @ t=0.36
-0.5692716743779771
% es.tEx (V/m) @ t=0.36
-2.2335449125650726
% es.tEy (V/m) @ t=0.36
0
% es.tEz (V/m) @ t=0.36
-0.569271674377994
% V (V) @ t=0.36
0.013395773566987453
% es.normE (V/m) @ t=0.38
2.3332807902516355
% es.EX (V/m) @ t=0.38
-2.2545659349164024
% es.EY (V/m) @ t=0.38
0.17368385541361897
% es.EZ (V/m) @ t=0.38
-0.57462937842597
% es.tEX (V/m) @ t=0.38
-2.2545659349163927
% es.tEY (V/m) @ t=0.38
0
% es.tEZ (V/m) @ t=0.38
-0.5746293784259677
% es.Ex (V/m) @ t=0.38
-2.2545659349164024
% es.Ey (V/m) @ t=0.38
0.17368385541361897
% es.Ez (V/m) @ t=0.38
-0.57462937842597
% es.tEx (V/m) @ t=0.38
-2.2545659349163927
% es.tEy (V/m) @ t=0.38
0
% es.tEz (V/m) @ t=0.38
-0.5746293784259677
% V (V) @ t=0.38
0.01352184792248517
% es.normE (V/m) @ t=0.4
2.3550357307598997
% es.EX (V/m) @ t=0.4
-2.2755869572676843
% es.EY (V/m) @ t=0.4
0.17530324221542726
% es.EZ (V/m) @ t=0.4
-0.5799870824739375
% es.tEX (V/m) @ t=0.4
-2.2755869572677234
% es.tEY (V/m) @ t=0.4
0
% es.tEZ (V/m) @ t=0.4
-0.579987082473945
% es.Ex (V/m) @ t=0.4
-2.2755869572676843
% es.Ey (V/m) @ t=0.4
0.17530324221542726
% es.Ez (V/m) @ t=0.4
-0.5799870824739375
% es.tEx (V/m) @ t=0.4
-2.2755869572677234
% es.tEy (V/m) @ t=0.4
0
% es.tEz (V/m) @ t=0.4
-0.579987082473945
% V (V) @ t=0.4
0.013647922277982887
% es.normE (V/m) @ t=0.42
2.376790671268206
% es.EX (V/m) @ t=0.42
-2.2966079796190044
% es.EY (V/m) @ t=0.42
0.1769226290172372
% es.EZ (V/m) @ t=0.42
-0.5853447865219237
% es.tEX (V/m) @ t=0.42
-2.2966079796189938
% es.tEY (V/m) @ t=0.42
0
% es.tEZ (V/m) @ t=0.42
-0.5853447865219188
% es.Ex (V/m) @ t=0.42
-2.2966079796190044
% es.Ey (V/m) @ t=0.42
0.1769226290172372
% es.Ez (V/m) @ t=0.42
-0.5853447865219237
% es.tEx (V/m) @ t=0.42
-2.2966079796189938
% es.tEy (V/m) @ t=0.42
0
% es.tEz (V/m) @ t=0.42
-0.5853447865219188
% V (V) @ t=0.42
0.0137739966334806
% es.normE (V/m) @ t=0.44
2.3985456117764983
% es.EX (V/m) @ t=0.44
-2.317629001970311
% es.EY (V/m) @ t=0.44
0.17854201581905094
% es.EZ (V/m) @ t=0.44
-0.5907024905699054
% es.tEX (V/m) @ t=0.44
-2.3176290019703423
% es.tEY (V/m) @ t=0.44
0
% es.tEZ (V/m) @ t=0.44
-0.5907024905698925
% es.Ex (V/m) @ t=0.44
-2.317629001970311
% es.Ey (V/m) @ t=0.44
0.17854201581905094
% es.Ez (V/m) @ t=0.44
-0.5907024905699054
% es.tEx (V/m) @ t=0.44
-2.3176290019703423
% es.tEy (V/m) @ t=0.44
0
% es.tEz (V/m) @ t=0.44
-0.5907024905698925
% V (V) @ t=0.44
0.01390007098897832
% es.normE (V/m) @ t=0.46
2.4203005522847985
% es.EX (V/m) @ t=0.46
-2.3386500243216304
% es.EY (V/m) @ t=0.46
0.18016140262087166
% es.EZ (V/m) @ t=0.46
-0.5960601946178681
% es.tEX (V/m) @ t=0.46
-2.3386500243216446
% es.tEY (V/m) @ t=0.46
0
% es.tEZ (V/m) @ t=0.46
-0.5960601946178841
% es.Ex (V/m) @ t=0.46
-2.3386500243216304
% es.Ey (V/m) @ t=0.46
0.18016140262087166
% es.Ez (V/m) @ t=0.46
-0.5960601946178681
% es.tEx (V/m) @ t=0.46
-2.3386500243216446
% es.tEy (V/m) @ t=0.46
0
% es.tEz (V/m) @ t=0.46
-0.5960601946178841
% V (V) @ t=0.46
0.014026145344476038
% es.normE (V/m) @ t=0.48
2.4420554927930924
% es.EX (V/m) @ t=0.48
-2.359671046672938
% es.EY (V/m) @ t=0.48
0.18178078942266918
% es.EZ (V/m) @ t=0.48
-0.6014178986658574
% es.tEX (V/m) @ t=0.48
-2.3596710466729505
% es.tEY (V/m) @ t=0.48
0
% es.tEZ (V/m) @ t=0.48
-0.6014178986658472
% es.Ex (V/m) @ t=0.48
-2.359671046672938
% es.Ey (V/m) @ t=0.48
0.18178078942266918
% es.Ez (V/m) @ t=0.48
-0.6014178986658574
% es.tEx (V/m) @ t=0.48
-2.3596710466729505
% es.tEy (V/m) @ t=0.48
0
% es.tEz (V/m) @ t=0.48
-0.6014178986658472
% V (V) @ t=0.48
0.014152219699973753
% es.normE (V/m) @ t=0.5
2.463810433301383
% es.EX (V/m) @ t=0.5
-2.3806920690242386
% es.EY (V/m) @ t=0.5
0.18340017622449867
% es.EZ (V/m) @ t=0.5
-0.6067756027138502
% es.tEX (V/m) @ t=0.5
-2.380692069024253
% es.tEY (V/m) @ t=0.5
0
% es.tEZ (V/m) @ t=0.5
-0.60677560271386
% es.Ex (V/m) @ t=0.5
-2.3806920690242386
% es.Ey (V/m) @ t=0.5
0.18340017622449867
% es.Ez (V/m) @ t=0.5
-0.6067756027138502
% es.tEx (V/m) @ t=0.5
-2.380692069024253
% es.tEy (V/m) @ t=0.5
0
% es.tEz (V/m) @ t=0.5
-0.60677560271386
% V (V) @ t=0.5
0.014278294055471466
% es.normE (V/m) @ t=0.52
2.4865988794549123
% es.EX (V/m) @ t=0.52
-2.402711731039533
% es.EY (V/m) @ t=0.52
0.1850964936054068
% es.EZ (V/m) @ t=0.52
-0.6123878337316313
% es.tEX (V/m) @ t=0.52
-2.402711731039542
% es.tEY (V/m) @ t=0.52
0
% es.tEZ (V/m) @ t=0.52
-0.6123878337316349
% es.Ex (V/m) @ t=0.52
-2.402711731039533
% es.Ey (V/m) @ t=0.52
0.1850964936054068
% es.Ez (V/m) @ t=0.52
-0.6123878337316313
% es.tEx (V/m) @ t=0.52
-2.402711731039542
% es.tEy (V/m) @ t=0.52
0
% es.tEz (V/m) @ t=0.52
-0.6123878337316349
% V (V) @ t=0.52
0.014410357859908513
% es.normE (V/m) @ t=0.54
2.5107014407352137
% es.EX (V/m) @ t=0.54
-2.4260011756580315
% es.EY (V/m) @ t=0.54
0.1868906291628728
% es.EZ (V/m) @ t=0.54
-0.6183236989189465
% es.tEX (V/m) @ t=0.54
-2.4260011756580226
% es.tEY (V/m) @ t=0.54
0
% es.tEZ (V/m) @ t=0.54
-0.6183236989189389
% es.Ex (V/m) @ t=0.54
-2.4260011756580315
% es.Ey (V/m) @ t=0.54
0.1868906291628728
% es.Ez (V/m) @ t=0.54
-0.6183236989189465
% es.tEx (V/m) @ t=0.54
-2.4260011756580226
% es.tEy (V/m) @ t=0.54
0
% es.tEz (V/m) @ t=0.54
-0.6183236989189389
% V (V) @ t=0.54
0.014550037322265582
% es.normE (V/m) @ t=0.56
2.534804002015486
% es.EX (V/m) @ t=0.56
-2.4492906202765106
% es.EY (V/m) @ t=0.56
0.18868476472028206
% es.EZ (V/m) @ t=0.56
-0.6242595641062394
% es.tEX (V/m) @ t=0.56
-2.4492906202765177
% es.tEY (V/m) @ t=0.56
0
% es.tEZ (V/m) @ t=0.56
-0.624259564106243
% es.Ex (V/m) @ t=0.56
-2.4492906202765106
% es.Ey (V/m) @ t=0.56
0.18868476472028206
% es.Ez (V/m) @ t=0.56
-0.6242595641062394
% es.tEx (V/m) @ t=0.56
-2.4492906202765177
% es.tEy (V/m) @ t=0.56
0
% es.tEz (V/m) @ t=0.56
-0.624259564106243
% V (V) @ t=0.56
0.01468971678462265
% es.normE (V/m) @ t=0.58
2.558906563295773
% es.EX (V/m) @ t=0.58
-2.472580064894993
% es.EY (V/m) @ t=0.58
0.1904789002777446
% es.EZ (V/m) @ t=0.58
-0.6301954292935634
% es.tEX (V/m) @ t=0.58
-2.472580064894995
% es.tEY (V/m) @ t=0.58
0
% es.tEZ (V/m) @ t=0.58
-0.6301954292935541
% es.Ex (V/m) @ t=0.58
-2.472580064894993
% es.Ey (V/m) @ t=0.58
0.1904789002777446
% es.Ez (V/m) @ t=0.58
-0.6301954292935634
% es.tEx (V/m) @ t=0.58
-2.472580064894995
% es.tEy (V/m) @ t=0.58
0
% es.tEz (V/m) @ t=0.58
-0.6301954292935541
% V (V) @ t=0.58
0.01482939624697972
% es.normE (V/m) @ t=0.6
2.5830091245760705
% es.EX (V/m) @ t=0.6
-2.4958695095134864
% es.EY (V/m) @ t=0.6
0.19227303583524968
% es.EZ (V/m) @ t=0.6
-0.6361312944808728
% es.tEX (V/m) @ t=0.6
-2.49586950951349
% es.tEY (V/m) @ t=0.6
0
% es.tEZ (V/m) @ t=0.6
-0.6361312944808795
% es.Ex (V/m) @ t=0.6
-2.4958695095134864
% es.Ey (V/m) @ t=0.6
0.19227303583524968
% es.Ez (V/m) @ t=0.6
-0.6361312944808728
% es.tEx (V/m) @ t=0.6
-2.49586950951349
% es.tEy (V/m) @ t=0.6
0
% es.tEz (V/m) @ t=0.6
-0.6361312944808795
% V (V) @ t=0.6
0.014969075709336789
% es.normE (V/m) @ t=0.62
2.6071116858563776
% es.EX (V/m) @ t=0.62
-2.519158954131992
% es.EY (V/m) @ t=0.62
0.19406717139268725
% es.EZ (V/m) @ t=0.62
-0.6420671596681933
% es.tEX (V/m) @ t=0.62
-2.519158954131999
% es.tEY (V/m) @ t=0.62
0
% es.tEZ (V/m) @ t=0.62
-0.6420671596681942
% es.Ex (V/m) @ t=0.62
-2.519158954131992
% es.Ey (V/m) @ t=0.62
0.19406717139268725
% es.Ez (V/m) @ t=0.62
-0.6420671596681933
% es.tEx (V/m) @ t=0.62
-2.519158954131999
% es.tEy (V/m) @ t=0.62
0
% es.tEz (V/m) @ t=0.62
-0.6420671596681942
% V (V) @ t=0.62
0.015108755171693857
% es.normE (V/m) @ t=0.64
2.631214247136677
% es.EX (V/m) @ t=0.64
-2.5424483987504924
% es.EY (V/m) @ t=0.64
0.19586130695012471
% es.EZ (V/m) @ t=0.64
-0.6480030248555049
% es.tEX (V/m) @ t=0.64
-2.5424483987504907
% es.tEY (V/m) @ t=0.64
0
% es.tEZ (V/m) @ t=0.64
-0.6480030248555018
% es.Ex (V/m) @ t=0.64
-2.5424483987504924
% es.Ey (V/m) @ t=0.64
0.19586130695012471
% es.Ez (V/m) @ t=0.64
-0.6480030248555049
% es.tEx (V/m) @ t=0.64
-2.5424483987504907
% es.tEy (V/m) @ t=0.64
0
% es.tEz (V/m) @ t=0.64
-0.6480030248555018
% V (V) @ t=0.64
0.015248434634050926
% es.normE (V/m) @ t=0.66
2.6553168084169623
% es.EX (V/m) @ t=0.66
-2.565737843368975
% es.EY (V/m) @ t=0.66
0.19765544250757672
% es.EZ (V/m) @ t=0.66
-0.6539388900428245
% es.tEX (V/m) @ t=0.66
-2.5657378433689857
% es.tEY (V/m) @ t=0.66
0
% es.tEZ (V/m) @ t=0.66
-0.6539388900428236
% es.Ex (V/m) @ t=0.66
-2.565737843368975
% es.Ey (V/m) @ t=0.66
0.19765544250757672
% es.Ez (V/m) @ t=0.66
-0.6539388900428245
% es.tEx (V/m) @ t=0.66
-2.5657378433689857
% es.tEy (V/m) @ t=0.66
0
% es.tEz (V/m) @ t=0.66
-0.6539388900428236
% V (V) @ t=0.66
0.015388114096407994
% es.normE (V/m) @ t=0.68
2.679419369697248
% es.EX (V/m) @ t=0.68
-2.5890272879874594
% es.EY (V/m) @ t=0.68
0.19944957806508012
% es.EZ (V/m) @ t=0.68
-0.6598747552301218
% es.tEX (V/m) @ t=0.68
-2.589027287987463
% es.tEY (V/m) @ t=0.68
0
% es.tEZ (V/m) @ t=0.68
-0.6598747552301241
% es.Ex (V/m) @ t=0.68
-2.5890272879874594
% es.Ey (V/m) @ t=0.68
0.19944957806508012
% es.Ez (V/m) @ t=0.68
-0.6598747552301218
% es.tEx (V/m) @ t=0.68
-2.589027287987463
% es.tEy (V/m) @ t=0.68
0
% es.tEz (V/m) @ t=0.68
-0.6598747552301241
% V (V) @ t=0.68
0.015527793558765064
% es.normE (V/m) @ t=0.7
2.703521930977571
% es.EX (V/m) @ t=0.7
-2.612316732605981
% es.EY (V/m) @ t=0.7
0.20124371362249993
% es.EZ (V/m) @ t=0.7
-0.6658106204174508
% es.tEX (V/m) @ t=0.7
-2.61231673260599
% es.tEY (V/m) @ t=0.7
0
% es.tEZ (V/m) @ t=0.7
-0.665810620417453
% es.Ex (V/m) @ t=0.7
-2.612316732605981
% es.Ey (V/m) @ t=0.7
0.20124371362249993
% es.Ez (V/m) @ t=0.7
-0.6658106204174508
% es.tEx (V/m) @ t=0.7
-2.61231673260599
% es.tEy (V/m) @ t=0.7
0
% es.tEz (V/m) @ t=0.7
-0.665810620417453
% V (V) @ t=0.7
0.015667473021122136
% es.normE (V/m) @ t=0.72
2.7276244922578226
% es.EX (V/m) @ t=0.72
-2.63560617722443
% es.EY (V/m) @ t=0.72
0.20303784917997303
% es.EZ (V/m) @ t=0.72
-0.6717464856047588
% es.tEX (V/m) @ t=0.72
-2.635606177224439
% es.tEY (V/m) @ t=0.72
0
% es.tEZ (V/m) @ t=0.72
-0.6717464856047428
% es.Ex (V/m) @ t=0.72
-2.63560617722443
% es.Ey (V/m) @ t=0.72
0.20303784917997303
% es.Ez (V/m) @ t=0.72
-0.6717464856047588
% es.tEx (V/m) @ t=0.72
-2.635606177224439
% es.tEy (V/m) @ t=0.72
0
% es.tEz (V/m) @ t=0.72
-0.6717464856047428
% V (V) @ t=0.72
0.015807152483479203
% es.normE (V/m) @ t=0.74
2.751727053538181
% es.EX (V/m) @ t=0.74
-2.6588956218429853
% es.EY (V/m) @ t=0.74
0.2048319847374479
% es.EZ (V/m) @ t=0.74
-0.6776823507920788
% es.tEX (V/m) @ t=0.74
-2.658895621842987
% es.tEY (V/m) @ t=0.74
0
% es.tEZ (V/m) @ t=0.74
-0.6776823507920788
% es.Ex (V/m) @ t=0.74
-2.6588956218429853
% es.Ey (V/m) @ t=0.74
0.2048319847374479
% es.Ez (V/m) @ t=0.74
-0.6776823507920788
% es.tEx (V/m) @ t=0.74
-2.658895621842987
% es.tEy (V/m) @ t=0.74
0
% es.tEz (V/m) @ t=0.74
-0.6776823507920788
% V (V) @ t=0.74
0.015946831945836272
% es.normE (V/m) @ t=0.76
2.775829614818421
% es.EX (V/m) @ t=0.76
-2.6821850664614253
% es.EY (V/m) @ t=0.76
0.20662612029493543
% es.EZ (V/m) @ t=0.76
-0.68361821597937
% es.tEX (V/m) @ t=0.76
-2.6821850664614395
% es.tEY (V/m) @ t=0.76
0
% es.tEZ (V/m) @ t=0.76
-0.6836182159793829
% es.Ex (V/m) @ t=0.76
-2.6821850664614253
% es.Ey (V/m) @ t=0.76
0.20662612029493543
% es.Ez (V/m) @ t=0.76
-0.68361821597937
% es.tEx (V/m) @ t=0.76
-2.6821850664614395
% es.tEy (V/m) @ t=0.76
0
% es.tEz (V/m) @ t=0.76
-0.6836182159793829
% V (V) @ t=0.76
0.016086511408193345
% es.normE (V/m) @ t=0.78
2.8016860587031482
% es.EX (V/m) @ t=0.78
-2.707169225190336
% es.EY (V/m) @ t=0.78
0.2085508117779573
% es.EZ (V/m) @ t=0.78
-0.68998601897884
% es.tEX (V/m) @ t=0.78
-2.707169225190345
% es.tEY (V/m) @ t=0.78
0
% es.tEZ (V/m) @ t=0.78
-0.6899860189788534
% es.Ex (V/m) @ t=0.78
-2.707169225190336
% es.Ey (V/m) @ t=0.78
0.2085508117779573
% es.Ez (V/m) @ t=0.78
-0.68998601897884
% es.tEx (V/m) @ t=0.78
-2.707169225190345
% es.tEy (V/m) @ t=0.78
0
% es.tEz (V/m) @ t=0.78
-0.6899860189788534
% V (V) @ t=0.78
0.016236354915952936
% es.normE (V/m) @ t=0.8
2.8284321101171166
% es.EX (V/m) @ t=0.8
-2.733012979897186
% es.EY (V/m) @ t=0.8
0.2105417240752906
% es.EZ (V/m) @ t=0.8
-0.6965729102621396
% es.tEX (V/m) @ t=0.8
-2.733012979897193
% es.tEY (V/m) @ t=0.8
0
% es.tEZ (V/m) @ t=0.8
-0.6965729102621374
% es.Ex (V/m) @ t=0.8
-2.733012979897186
% es.Ey (V/m) @ t=0.8
0.2105417240752906
% es.Ez (V/m) @ t=0.8
-0.6965729102621396
% es.tEx (V/m) @ t=0.8
-2.733012979897193
% es.tEy (V/m) @ t=0.8
0
% es.tEz (V/m) @ t=0.8
-0.6965729102621374
% V (V) @ t=0.8
0.016391353849335554
% es.normE (V/m) @ t=0.82
2.855178161531116
% es.EX (V/m) @ t=0.82
-2.7588567346040698
% es.EY (V/m) @ t=0.82
0.21253263637266107
% es.EZ (V/m) @ t=0.82
-0.7031598015454255
% es.tEX (V/m) @ t=0.82
-2.7588567346040733
% es.tEY (V/m) @ t=0.82
0
% es.tEZ (V/m) @ t=0.82
-0.7031598015454179
% es.Ex (V/m) @ t=0.82
-2.7588567346040698
% es.Ey (V/m) @ t=0.82
0.21253263637266107
% es.Ez (V/m) @ t=0.82
-0.7031598015454255
% es.tEx (V/m) @ t=0.82
-2.7588567346040733
% es.tEy (V/m) @ t=0.82
0
% es.tEz (V/m) @ t=0.82
-0.7031598015454179
% V (V) @ t=0.82
0.016546352782718175
% es.normE (V/m) @ t=0.84
2.881924212945094
% es.EX (V/m) @ t=0.84
-2.784700489310932
% es.EY (V/m) @ t=0.84
0.21452354867006873
% es.EZ (V/m) @ t=0.84
-0.709746692828694
% es.tEX (V/m) @ t=0.84
-2.784700489310943
% es.tEY (V/m) @ t=0.84
0
% es.tEZ (V/m) @ t=0.84
-0.7097466928286948
% es.Ex (V/m) @ t=0.84
-2.784700489310932
% es.Ey (V/m) @ t=0.84
0.21452354867006873
% es.Ez (V/m) @ t=0.84
-0.709746692828694
% es.tEx (V/m) @ t=0.84
-2.784700489310943
% es.tEy (V/m) @ t=0.84
0
% es.tEz (V/m) @ t=0.84
-0.7097466928286948
% V (V) @ t=0.84
0.016701351716100786
% es.normE (V/m) @ t=0.86
2.9086702643590945
% es.EX (V/m) @ t=0.86
-2.810544244017807
% es.EY (V/m) @ t=0.86
0.21651446096745686
% es.EZ (V/m) @ t=0.86
-0.7163335841120109
% es.tEX (V/m) @ t=0.86
-2.810544244017809
% es.tEY (V/m) @ t=0.86
0
% es.tEZ (V/m) @ t=0.86
-0.716333584112018
% es.Ex (V/m) @ t=0.86
-2.810544244017807
% es.Ey (V/m) @ t=0.86
0.21651446096745686
% es.Ez (V/m) @ t=0.86
-0.7163335841120109
% es.tEx (V/m) @ t=0.86
-2.810544244017809
% es.tEy (V/m) @ t=0.86
0
% es.tEz (V/m) @ t=0.86
-0.716333584112018
% V (V) @ t=0.86
0.016856350649483404
% es.normE (V/m) @ t=0.88
2.93541631577307
% es.EX (V/m) @ t=0.88
-2.836387998724657
% es.EY (V/m) @ t=0.88
0.21850537326485764
% es.EZ (V/m) @ t=0.88
-0.7229204753953176
% es.tEX (V/m) @ t=0.88
-2.83638799872465
% es.tEY (V/m) @ t=0.88
0
% es.tEZ (V/m) @ t=0.88
-0.7229204753953233
% es.Ex (V/m) @ t=0.88
-2.836387998724657
% es.Ey (V/m) @ t=0.88
0.21850537326485764
% es.Ez (V/m) @ t=0.88
-0.7229204753953176
% es.tEx (V/m) @ t=0.88
-2.83638799872465
% es.tEy (V/m) @ t=0.88
0
% es.tEz (V/m) @ t=0.88
-0.7229204753953233
% V (V) @ t=0.88
0.017011349582866025
% es.normE (V/m) @ t=0.9
2.9621623671870694
% es.EX (V/m) @ t=0.9
-2.8622317534315336
% es.EY (V/m) @ t=0.9
0.220496285562221
% es.EZ (V/m) @ t=0.9
-0.7295073666786318
% es.tEX (V/m) @ t=0.9
-2.8622317534315513
% es.tEY (V/m) @ t=0.9
0
% es.tEZ (V/m) @ t=0.9
-0.7295073666786287
% es.Ex (V/m) @ t=0.9
-2.8622317534315336
% es.Ey (V/m) @ t=0.9
0.220496285562221
% es.Ez (V/m) @ t=0.9
-0.7295073666786318
% es.tEx (V/m) @ t=0.9
-2.8622317534315513
% es.tEy (V/m) @ t=0.9
0
% es.tEz (V/m) @ t=0.9
-0.7295073666786287
% V (V) @ t=0.9
0.017166348516248636
% es.normE (V/m) @ t=0.92
2.988908418601058
% es.EX (V/m) @ t=0.92
-2.888075508138405
% es.EY (V/m) @ t=0.92
0.22248719785962356
% es.EZ (V/m) @ t=0.92
-0.7360942579619101
% es.tEX (V/m) @ t=0.92
-2.8880755081384173
% es.tEY (V/m) @ t=0.92
0
% es.tEZ (V/m) @ t=0.92
-0.7360942579619234
% es.Ex (V/m) @ t=0.92
-2.888075508138405
% es.Ey (V/m) @ t=0.92
0.22248719785962356
% es.Ez (V/m) @ t=0.92
-0.7360942579619101
% es.tEx (V/m) @ t=0.92
-2.8880755081384173
% es.tEy (V/m) @ t=0.92
0
% es.tEz (V/m) @ t=0.92
-0.7360942579619234
% V (V) @ t=0.92
0.017321347449631253
% es.normE (V/m) @ t=0.94
3.0156544700150505
% es.EX (V/m) @ t=0.94
-2.913919262845276
% es.EY (V/m) @ t=0.94
0.2244781101569816
% es.EZ (V/m) @ t=0.94
-0.742681149245219
% es.tEX (V/m) @ t=0.94
-2.9139192628452832
% es.tEY (V/m) @ t=0.94
0
% es.tEZ (V/m) @ t=0.94
-0.7426811492452323
% es.Ex (V/m) @ t=0.94
-2.913919262845276
% es.Ey (V/m) @ t=0.94
0.2244781101569816
% es.Ez (V/m) @ t=0.94
-0.742681149245219
% es.tEx (V/m) @ t=0.94
-2.9139192628452832
% es.tEy (V/m) @ t=0.94
0
% es.tEz (V/m) @ t=0.94
-0.7426811492452323
% V (V) @ t=0.94
0.01747634638301387
% es.normE (V/m) @ t=0.96
3.042400521429086
% es.EX (V/m) @ t=0.96
-2.939763017552181
% es.EY (V/m) @ t=0.96
0.22646902245440348
% es.EZ (V/m) @ t=0.96
-0.7492680405285461
% es.tEX (V/m) @ t=0.96
-2.9397630175521385
% es.tEY (V/m) @ t=0.96
0
% es.tEZ (V/m) @ t=0.96
-0.7492680405285377
% es.Ex (V/m) @ t=0.96
-2.939763017552181
% es.Ey (V/m) @ t=0.96
0.22646902245440348
% es.Ez (V/m) @ t=0.96
-0.7492680405285461
% es.tEx (V/m) @ t=0.96
-2.9397630175521385
% es.tEy (V/m) @ t=0.96
0
% es.tEz (V/m) @ t=0.96
-0.7492680405285377
% V (V) @ t=0.96
0.017631345316396485
% es.normE (V/m) @ t=0.98
3.0691465728430347
% es.EX (V/m) @ t=0.98
-2.9656067722590205
% es.EY (V/m) @ t=0.98
0.22845993475175075
% es.EZ (V/m) @ t=0.98
-0.7558549318118075
% es.tEX (V/m) @ t=0.98
-2.9656067722590507
% es.tEY (V/m) @ t=0.98
0
% es.tEZ (V/m) @ t=0.98
-0.7558549318118146
% es.Ex (V/m) @ t=0.98
-2.9656067722590205
% es.Ey (V/m) @ t=0.98
0.22845993475175075
% es.Ez (V/m) @ t=0.98
-0.7558549318118075
% es.tEx (V/m) @ t=0.98
-2.9656067722590507
% es.tEy (V/m) @ t=0.98
0
% es.tEz (V/m) @ t=0.98
-0.7558549318118146
% V (V) @ t=0.98
0.017786344249779103
% es.normE (V/m) @ t=1
3.095892624257066
% es.EX (V/m) @ t=1
-2.991450526965929
% es.EY (V/m) @ t=1
0.2304508470491604
% es.EZ (V/m) @ t=1
-0.7624418230951111
% es.tEX (V/m) @ t=1
-2.991450526965931
% es.tEY (V/m) @ t=1
0
% es.tEZ (V/m) @ t=1
-0.7624418230951093
% es.Ex (V/m) @ t=1
-2.991450526965929
% es.Ey (V/m) @ t=1
0.2304508470491604
% es.Ez (V/m) @ t=1
-0.7624418230951111
% es.tEx (V/m) @ t=1
-2.991450526965931
% es.tEy (V/m) @ t=1
0
% es.tEz (V/m) @ t=1
-0.7624418230951093
% V (V) @ t=1
0.01794134318316172
% es.normE (V/m) @ t=1.02
3.1226386756710083
% es.EX (V/m) @ t=1.02
-3.0172942816727453
% es.EY (V/m) @ t=1.02
0.232441759346538
% es.EZ (V/m) @ t=1.02
-0.7690287143784236
% es.tEX (V/m) @ t=1.02
-3.0172942816727613
% es.tEY (V/m) @ t=1.02
0
% es.tEZ (V/m) @ t=1.02
-0.7690287143784431
% es.Ex (V/m) @ t=1.02
-3.0172942816727453
% es.Ey (V/m) @ t=1.02
0.232441759346538
% es.Ez (V/m) @ t=1.02
-0.7690287143784236
% es.tEx (V/m) @ t=1.02
-3.0172942816727613
% es.tEy (V/m) @ t=1.02
0
% es.tEz (V/m) @ t=1.02
-0.7690287143784431
% V (V) @ t=1.02
0.018096342116544335
% es.normE (V/m) @ t=1.04
3.1505390941142464
% es.EX (V/m) @ t=1.04
-3.04425346003514