% Model:              1 neuron.mph
% Version:            COMSOL 6.1.0.252
% Date:               Mar 22 2023, 19:44
% Dimension:          0
% Nodes:              14017
% Expressions:        14017
% Description:        Electric field norm, Electric field, X component, Electric field, Y component, Electric field, Z component, Tangential electric field, X component, Tangential electric field, Y component, Tangential electric field, Z component, Electric field, x component, Electric field, y component, Electric field, z component, Tangential electric field, x component, Tangential electric field, y component, Tangential electric field, z component, Electric potential
% Length unit:        mm
% x
1
% y
12.2
% z
1.6599999999999997
% es.normE (V/m) @ t=0
2.922655182696382
% es.EX (V/m) @ t=0
2.6163885404184164
% es.EY (V/m) @ t=0
0.10066729288477744
% es.EZ (V/m) @ t=0
-1.2985724096807023
% es.tEX (V/m) @ t=0
2.616388540418418
% es.tEY (V/m) @ t=0
0
% es.tEZ (V/m) @ t=0
-1.2985724096807019
% es.Ex (V/m) @ t=0
2.6163885404184164
% es.Ey (V/m) @ t=0
0.10066729288477744
% es.Ez (V/m) @ t=0
-1.2985724096807023
% es.tEx (V/m) @ t=0
2.616388540418418
% es.tEy (V/m) @ t=0
0
% es.tEz (V/m) @ t=0
-1.2985724096807019
% V (V) @ t=0
0.013260053987703432
% es.normE (V/m) @ t=0.02
2.524342365101408
% es.EX (V/m) @ t=0.02
2.2598151418681405
% es.EY (V/m) @ t=0.02
0.08694789377703577
% es.EZ (V/m) @ t=0.02
-1.121597021419419
% es.tEX (V/m) @ t=0.02
2.2598151418681383
% es.tEY (V/m) @ t=0.02
0
% es.tEZ (V/m) @ t=0.02
-1.1215970214194115
% es.Ex (V/m) @ t=0.02
2.2598151418681405
% es.Ey (V/m) @ t=0.02
0.08694789377703577
% es.Ez (V/m) @ t=0.02
-1.121597021419419
% es.tEx (V/m) @ t=0.02
2.2598151418681383
% es.tEy (V/m) @ t=0.02
0
% es.tEz (V/m) @ t=0.02
-1.1215970214194115
% V (V) @ t=0.02
0.011452913169021302
% es.normE (V/m) @ t=0.04
2.547579928549616
% es.EX (V/m) @ t=0.04
2.2806176282807122
% es.EY (V/m) @ t=0.04
0.08774828330241208
% es.EZ (V/m) @ t=0.04
-1.1319217627417233
% es.tEX (V/m) @ t=0.04
2.2806176282807025
% es.tEY (V/m) @ t=0.04
0
% es.tEZ (V/m) @ t=0.04
-1.1319217627417046
% es.Ex (V/m) @ t=0.04
2.2806176282807122
% es.Ey (V/m) @ t=0.04
0.08774828330241208
% es.Ez (V/m) @ t=0.04
-1.1319217627417233
% es.tEx (V/m) @ t=0.04
2.2806176282807025
% es.tEy (V/m) @ t=0.04
0
% es.tEz (V/m) @ t=0.04
-1.1319217627417046
% V (V) @ t=0.04
0.011558341735205646
% es.normE (V/m) @ t=0.06
2.57098538655396
% es.EX (V/m) @ t=0.06
2.3015704152422067
% es.EY (V/m) @ t=0.06
0.08855445550950541
% es.EZ (V/m) @ t=0.06
-1.1423211022355926
% es.tEX (V/m) @ t=0.06
2.301570415242204
% es.tEY (V/m) @ t=0.06
0
% es.tEZ (V/m) @ t=0.06
-1.1423211022355844
% es.Ex (V/m) @ t=0.06
2.3015704152422067
% es.Ey (V/m) @ t=0.06
0.08855445550950541
% es.Ez (V/m) @ t=0.06
-1.1423211022355926
% es.tEx (V/m) @ t=0.06
2.301570415242204
% es.tEy (V/m) @ t=0.06
0
% es.tEz (V/m) @ t=0.06
-1.1423211022355844
% V (V) @ t=0.06
0.011664532057537792
% es.normE (V/m) @ t=0.08
2.5948428700505914
% es.EX (V/m) @ t=0.08
2.322927859670002
% es.EY (V/m) @ t=0.08
0.08937619715250372
% es.EZ (V/m) @ t=0.08
-1.152921282389076
% es.tEX (V/m) @ t=0.08
2.3229278596699974
% es.tEY (V/m) @ t=0.08
0
% es.tEZ (V/m) @ t=0.08
-1.1529212823890802
% es.Ex (V/m) @ t=0.08
2.322927859670002
% es.Ey (V/m) @ t=0.08
0.08937619715250372
% es.Ez (V/m) @ t=0.08
-1.152921282389076
% es.tEx (V/m) @ t=0.08
2.3229278596699974
% es.tEy (V/m) @ t=0.08
0
% es.tEz (V/m) @ t=0.08
-1.1529212823890802
% V (V) @ t=0.08
0.011772773216751324
% es.normE (V/m) @ t=0.1
2.6188171743015944
% es.EX (V/m) @ t=0.1
2.3443898831343324
% es.EY (V/m) @ t=0.1
0.09020196253594726
% es.EZ (V/m) @ t=0.1
-1.1635733674854647
% es.tEX (V/m) @ t=0.1
2.3443898831343315
% es.tEY (V/m) @ t=0.1
0
% es.tEZ (V/m) @ t=0.1
-1.163573367485455
% es.Ex (V/m) @ t=0.1
2.3443898831343324
% es.Ey (V/m) @ t=0.1
0.09020196253594726
% es.Ez (V/m) @ t=0.1
-1.1635733674854647
% es.tEx (V/m) @ t=0.1
2.3443898831343315
% es.tEy (V/m) @ t=0.1
0
% es.tEz (V/m) @ t=0.1
-1.163573367485455
% V (V) @ t=0.1
0.011881544391009762
% es.normE (V/m) @ t=0.12
2.642791478552601
% es.EX (V/m) @ t=0.12
2.3658519065986736
% es.EY (V/m) @ t=0.12
0.09102772791938818
% es.EZ (V/m) @ t=0.12
-1.174225452581839
% es.tEX (V/m) @ t=0.12
2.365851906598671
% es.tEY (V/m) @ t=0.12
0
% es.tEZ (V/m) @ t=0.12
-1.174225452581858
% es.Ex (V/m) @ t=0.12
2.3658519065986736
% es.Ey (V/m) @ t=0.12
0.09102772791938818
% es.Ez (V/m) @ t=0.12
-1.174225452581839
% es.tEx (V/m) @ t=0.12
2.365851906598671
% es.tEy (V/m) @ t=0.12
0
% es.tEz (V/m) @ t=0.12
-1.174225452581858
% V (V) @ t=0.12
0.0119903155652682
% es.normE (V/m) @ t=0.14
2.6674800726640155
% es.EX (V/m) @ t=0.14
2.38795336947534
% es.EY (V/m) @ t=0.14
0.09187809655255003
% es.EZ (V/m) @ t=0.14
-1.185194904840573
% es.tEX (V/m) @ t=0.14
2.3879533694753423
% es.tEY (V/m) @ t=0.14
0
% es.tEZ (V/m) @ t=0.14
-1.1851949048405643
% es.Ex (V/m) @ t=0.14
2.38795336947534
% es.Ey (V/m) @ t=0.14
0.09187809655255003
% es.Ez (V/m) @ t=0.14
-1.185194904840573
% es.tEx (V/m) @ t=0.14
2.3879533694753423
% es.tEy (V/m) @ t=0.14
0
% es.tEz (V/m) @ t=0.14
-1.1851949048405643
% V (V) @ t=0.14
0.012102327432265738
% es.normE (V/m) @ t=0.16
2.69265381678895
% es.EX (V/m) @ t=0.16
2.410489143486387
% es.EY (V/m) @ t=0.16
0.09274517586241415
% es.EZ (V/m) @ t=0.16
-1.196379914804397
% es.tEX (V/m) @ t=0.16
2.4104891434863847
% es.tEY (V/m) @ t=0.16
0
% es.tEZ (V/m) @ t=0.16
-1.196379914804396
% es.Ex (V/m) @ t=0.16
2.410489143486387
% es.Ey (V/m) @ t=0.16
0.09274517586241415
% es.Ez (V/m) @ t=0.16
-1.196379914804397
% es.tEx (V/m) @ t=0.16
2.4104891434863847
% es.tEy (V/m) @ t=0.16
0
% es.tEz (V/m) @ t=0.16
-1.196379914804396
% V (V) @ t=0.16
0.012216540397463518
% es.normE (V/m) @ t=0.18
2.717827560913876
% es.EX (V/m) @ t=0.18
2.4330249174974194
% es.EY (V/m) @ t=0.18
0.09361225517224536
% es.EZ (V/m) @ t=0.18
-1.2075649247682316
% es.tEX (V/m) @ t=0.18
2.4330249174974146
% es.tEY (V/m) @ t=0.18
0
% es.tEZ (V/m) @ t=0.18
-1.2075649247682207
% es.Ex (V/m) @ t=0.18
2.4330249174974194
% es.Ey (V/m) @ t=0.18
0.09361225517224536
% es.Ez (V/m) @ t=0.18
-1.2075649247682316
% es.tEx (V/m) @ t=0.18
2.4330249174974146
% es.tEy (V/m) @ t=0.18
0
% es.tEz (V/m) @ t=0.18
-1.2075649247682207
% V (V) @ t=0.18
0.0123307533626613
% es.normE (V/m) @ t=0.2
2.7430013050388
% es.EX (V/m) @ t=0.2
2.455560691508455
% es.EY (V/m) @ t=0.2
0.09447933448208728
% es.EZ (V/m) @ t=0.2
-1.2187499347320556
% es.tEX (V/m) @ t=0.2
2.4555606915084427
% es.tEY (V/m) @ t=0.2
0
% es.tEZ (V/m) @ t=0.2
-1.2187499347320454
% es.Ex (V/m) @ t=0.2
2.455560691508455
% es.Ey (V/m) @ t=0.2
0.09447933448208728
% es.Ez (V/m) @ t=0.2
-1.2187499347320556
% es.tEx (V/m) @ t=0.2
2.4555606915084427
% es.tEy (V/m) @ t=0.2
0
% es.tEz (V/m) @ t=0.2
-1.2187499347320454
% V (V) @ t=0.2
0.012444966327859082
% es.normE (V/m) @ t=0.22
2.768175049163715
% es.EX (V/m) @ t=0.22
2.47809646551948
% es.EY (V/m) @ t=0.22
0.09534641379195496
% es.EZ (V/m) @ t=0.22
-1.2299349446958798
% es.tEX (V/m) @ t=0.22
2.478096465519478
% es.tEY (V/m) @ t=0.22
0
% es.tEZ (V/m) @ t=0.22
-1.2299349446958914
% es.Ex (V/m) @ t=0.22
2.47809646551948
% es.Ey (V/m) @ t=0.22
0.09534641379195496
% es.Ez (V/m) @ t=0.22
-1.2299349446958798
% es.tEx (V/m) @ t=0.22
2.478096465519478
% es.tEy (V/m) @ t=0.22
0
% es.tEz (V/m) @ t=0.22
-1.2299349446958914
% V (V) @ t=0.22
0.012559179293056864
% es.normE (V/m) @ t=0.24
2.7933487932886374
% es.EX (V/m) @ t=0.24
2.5006322395305163
% es.EY (V/m) @ t=0.24
0.09621349310178534
% es.EZ (V/m) @ t=0.24
-1.2411199546597003
% es.tEX (V/m) @ t=0.24
2.500632239530514
% es.tEY (V/m) @ t=0.24
0
% es.tEZ (V/m) @ t=0.24
-1.241119954659709
% es.Ex (V/m) @ t=0.24
2.5006322395305163
% es.Ey (V/m) @ t=0.24
0.09621349310178534
% es.Ez (V/m) @ t=0.24
-1.2411199546597003
% es.tEx (V/m) @ t=0.24
2.500632239530514
% es.tEy (V/m) @ t=0.24
0
% es.tEz (V/m) @ t=0.24
-1.241119954659709
% V (V) @ t=0.24
0.012673392258254647
% es.normE (V/m) @ t=0.26
2.819050989591461
% es.EX (V/m) @ t=0.26
2.5236410769041893
% es.EY (V/m) @ t=0.26
0.0970987608323276
% es.EZ (V/m) @ t=0.26
-1.2525397878345783
% es.tEX (V/m) @ t=0.26
2.5236410769041893
% es.tEY (V/m) @ t=0.26
0
% es.tEZ (V/m) @ t=0.26
-1.2525397878345714
% es.Ex (V/m) @ t=0.26
2.5236410769041893
% es.Ey (V/m) @ t=0.26
0.0970987608323276
% es.Ez (V/m) @ t=0.26
-1.2525397878345783
% es.tEx (V/m) @ t=0.26
2.5236410769041893
% es.tEy (V/m) @ t=0.26
0
% es.tEz (V/m) @ t=0.26
-1.2525397878345714
% V (V) @ t=0.26
0.012790003849318927
% es.normE (V/m) @ t=0.28
2.8469033254482143
% es.EX (V/m) @ t=0.28
2.548574690615426
% es.EY (V/m) @ t=0.28
0.09805803269104779
% es.EZ (V/m) @ t=0.28
-1.2649150578404635
% es.tEX (V/m) @ t=0.28
2.5485746906154167
% es.tEY (V/m) @ t=0.28
0
% es.tEZ (V/m) @ t=0.28
-1.2649150578404758
% es.Ex (V/m) @ t=0.28
2.548574690615426
% es.Ey (V/m) @ t=0.28
0.09805803269104779
% es.Ez (V/m) @ t=0.28
-1.2649150578404635
% es.tEx (V/m) @ t=0.28
2.5485746906154167
% es.tEy (V/m) @ t=0.28
0
% es.tEz (V/m) @ t=0.28
-1.2649150578404758
% V (V) @ t=0.28
0.01291637484826609
% es.normE (V/m) @ t=0.3
2.8747556613049743
% es.EX (V/m) @ t=0.3
2.5735083043266416
% es.EY (V/m) @ t=0.3
0.09901730454975904
% es.EZ (V/m) @ t=0.3
-1.2772903278463805
% es.tEX (V/m) @ t=0.3
2.57350830432664
% es.tEY (V/m) @ t=0.3
0
% es.tEZ (V/m) @ t=0.3
-1.2772903278463659
% es.Ex (V/m) @ t=0.3
2.5735083043266416
% es.Ey (V/m) @ t=0.3
0.09901730454975904
% es.Ez (V/m) @ t=0.3
-1.2772903278463805
% es.tEx (V/m) @ t=0.3
2.57350830432664
% es.tEy (V/m) @ t=0.3
0
% es.tEz (V/m) @ t=0.3
-1.2772903278463659
% V (V) @ t=0.3
0.013042745847213249
% es.normE (V/m) @ t=0.32
2.90260799716176
% es.EX (V/m) @ t=0.32
2.5984419180378717
% es.EY (V/m) @ t=0.32
0.09997657640850055
% es.EZ (V/m) @ t=0.32
-1.2896655978522977
% es.tEX (V/m) @ t=0.32
2.598441918037868
% es.tEY (V/m) @ t=0.32
0
% es.tEZ (V/m) @ t=0.32
-1.2896655978522915
% es.Ex (V/m) @ t=0.32
2.5984419180378717
% es.Ey (V/m) @ t=0.32
0.09997657640850055
% es.Ez (V/m) @ t=0.32
-1.2896655978522977
% es.tEx (V/m) @ t=0.32
2.598441918037868
% es.tEy (V/m) @ t=0.32
0
% es.tEz (V/m) @ t=0.32
-1.2896655978522915
% V (V) @ t=0.32
0.013169116846160409
% es.normE (V/m) @ t=0.34
2.930460333018579
% es.EX (V/m) @ t=0.34
2.6233755317491196
% es.EY (V/m) @ t=0.34
0.10093584826726343
% es.EZ (V/m) @ t=0.34
-1.3020408678582256
% es.tEX (V/m) @ t=0.34
2.623375531749117
% es.tEY (V/m) @ t=0.34
0
% es.tEZ (V/m) @ t=0.34
-1.30204086785821
% es.Ex (V/m) @ t=0.34
2.6233755317491196
% es.Ey (V/m) @ t=0.34
0.10093584826726343
% es.Ez (V/m) @ t=0.34
-1.3020408678582256
% es.tEx (V/m) @ t=0.34
2.623375531749117
% es.tEy (V/m) @ t=0.34
0
% es.tEz (V/m) @ t=0.34
-1.30204086785821
% V (V) @ t=0.34
0.01329548784510757
% es.normE (V/m) @ t=0.36
2.9583126688753554
% es.EX (V/m) @ t=0.36
2.6483091454603276
% es.EY (V/m) @ t=0.36
0.10189512012597379
% es.EZ (V/m) @ t=0.36
-1.3144161378641144
% es.tEX (V/m) @ t=0.36
2.648309145460332
% es.tEY (V/m) @ t=0.36
0
% es.tEZ (V/m) @ t=0.36
-1.314416137864086
% es.Ex (V/m) @ t=0.36
2.6483091454603276
% es.Ey (V/m) @ t=0.36
0.10189512012597379
% es.Ez (V/m) @ t=0.36
-1.3144161378641144
% es.tEx (V/m) @ t=0.36
2.648309145460332
% es.tEy (V/m) @ t=0.36
0
% es.tEz (V/m) @ t=0.36
-1.314416137864086
% V (V) @ t=0.36
0.013421858844054729
% es.normE (V/m) @ t=0.38
2.9861650047321704
% es.EX (V/m) @ t=0.38
2.6732427591715577
% es.EY (V/m) @ t=0.38
0.10285439198469482
% es.EZ (V/m) @ t=0.38
-1.326791407870021
% es.tEX (V/m) @ t=0.38
2.6732427591715613
% es.tEY (V/m) @ t=0.38
0
% es.tEZ (V/m) @ t=0.38
-1.3267914078700258
% es.Ex (V/m) @ t=0.38
2.6732427591715577
% es.Ey (V/m) @ t=0.38
0.10285439198469482
% es.Ez (V/m) @ t=0.38
-1.326791407870021
% es.tEx (V/m) @ t=0.38
2.6732427591715613
% es.tEy (V/m) @ t=0.38
0
% es.tEz (V/m) @ t=0.38
-1.3267914078700258
% V (V) @ t=0.38
0.01354822984300189
% es.normE (V/m) @ t=0.4
3.0140173405890014
% es.EX (V/m) @ t=0.4
2.698176372882791
% es.EY (V/m) @ t=0.4
0.10381366384343627
% es.EZ (V/m) @ t=0.4
-1.339166677875931
% es.tEX (V/m) @ t=0.4
2.6981763728827888
% es.tEY (V/m) @ t=0.4
0
% es.tEZ (V/m) @ t=0.4
-1.339166677875923
% es.Ex (V/m) @ t=0.4
2.698176372882791
% es.Ey (V/m) @ t=0.4
0.10381366384343627
% es.Ez (V/m) @ t=0.4
-1.339166677875931
% es.tEx (V/m) @ t=0.4
2.6981763728827888
% es.tEy (V/m) @ t=0.4
0
% es.tEz (V/m) @ t=0.4
-1.339166677875923
% V (V) @ t=0.4
0.01367460084194905
% es.normE (V/m) @ t=0.42
3.0418696764458324
% es.EX (V/m) @ t=0.42
2.723109986594017
% es.EY (V/m) @ t=0.42
0.10477293570215379
% es.EZ (V/m) @ t=0.42
-1.351541947881834
% es.tEX (V/m) @ t=0.42
2.723109986594018
% es.tEY (V/m) @ t=0.42
0
% es.tEZ (V/m) @ t=0.42
-1.3515419478818345
% es.Ex (V/m) @ t=0.42
2.723109986594017
% es.Ey (V/m) @ t=0.42
0.10477293570215379
% es.Ez (V/m) @ t=0.42
-1.351541947881834
% es.tEx (V/m) @ t=0.42
2.723109986594018
% es.tEy (V/m) @ t=0.42
0
% es.tEz (V/m) @ t=0.42
-1.3515419478818345
% V (V) @ t=0.42
0.013800971840896212
% es.normE (V/m) @ t=0.44
3.069722012302684
% es.EX (V/m) @ t=0.44
2.748043600305251
% es.EY (V/m) @ t=0.44
0.10573220756087043
% es.EZ (V/m) @ t=0.44
-1.3639172178877441
% es.tEX (V/m) @ t=0.44
2.7480436003052544
% es.tEY (V/m) @ t=0.44
0
% es.tEZ (V/m) @ t=0.44
-1.3639172178877388
% es.Ex (V/m) @ t=0.44
2.748043600305251
% es.Ey (V/m) @ t=0.44
0.10573220756087043
% es.Ez (V/m) @ t=0.44
-1.3639172178877441
% es.tEx (V/m) @ t=0.44
2.7480436003052544
% es.tEy (V/m) @ t=0.44
0
% es.tEz (V/m) @ t=0.44
-1.3639172178877388
% V (V) @ t=0.44
0.013927342839843374
% es.normE (V/m) @ t=0.46
3.0975743481595517
% es.EX (V/m) @ t=0.46
2.772977214016488
% es.EY (V/m) @ t=0.46
0.10669147941959417
% es.EZ (V/m) @ t=0.46
-1.376292487893661
% es.tEX (V/m) @ t=0.46
2.77297721401649
% es.tEY (V/m) @ t=0.46
0
% es.tEZ (V/m) @ t=0.46
-1.3762924878936644
% es.Ex (V/m) @ t=0.46
2.772977214016488
% es.Ey (V/m) @ t=0.46
0.10669147941959417
% es.Ez (V/m) @ t=0.46
-1.376292487893661
% es.tEx (V/m) @ t=0.46
2.77297721401649
% es.tEy (V/m) @ t=0.46
0
% es.tEz (V/m) @ t=0.46
-1.3762924878936644
% V (V) @ t=0.46
0.014053713838790532
% es.normE (V/m) @ t=0.48
3.1254266840164355
% es.EX (V/m) @ t=0.48
2.797910827727728
% es.EY (V/m) @ t=0.48
0.10765075127834983
% es.EZ (V/m) @ t=0.48
-1.3886677578995854
% es.tEX (V/m) @ t=0.48
2.7979108277277254
% es.tEY (V/m) @ t=0.48
0
% es.tEZ (V/m) @ t=0.48
-1.3886677578995688
% es.Ex (V/m) @ t=0.48
2.797910827727728
% es.Ey (V/m) @ t=0.48
0.10765075127834983
% es.Ez (V/m) @ t=0.48
-1.3886677578995854
% es.tEx (V/m) @ t=0.48
2.7979108277277254
% es.tEy (V/m) @ t=0.48
0
% es.tEz (V/m) @ t=0.48
-1.3886677578995688
% V (V) @ t=0.48
0.014180084837737694
% es.normE (V/m) @ t=0.5
3.153279019873312
% es.EX (V/m) @ t=0.5
2.8228444414389546
% es.EY (V/m) @ t=0.5
0.10861002313706375
% es.EZ (V/m) @ t=0.5
-1.4010430279055026
% es.tEX (V/m) @ t=0.5
2.822844441438953
% es.tEY (V/m) @ t=0.5
0
% es.tEZ (V/m) @ t=0.5
-1.4010430279054873
% es.Ex (V/m) @ t=0.5
2.8228444414389546
% es.Ey (V/m) @ t=0.5
0.10861002313706375
% es.Ez (V/m) @ t=0.5
-1.4010430279055026
% es.tEx (V/m) @ t=0.5
2.822844441438953
% es.tEy (V/m) @ t=0.5
0
% es.tEz (V/m) @ t=0.5
-1.4010430279054873
% V (V) @ t=0.5
0.014306455836684853
% es.normE (V/m) @ t=0.52
3.1823381038650753
% es.EX (V/m) @ t=0.52
2.8488583611091474
% es.EY (V/m) @ t=0.52
0.10961087525008789
% es.EZ (V/m) @ t=0.52
-1.4139544426244095
% es.tEX (V/m) @ t=0.52
2.8488583611091443
% es.tEY (V/m) @ t=0.52
0
% es.tEZ (V/m) @ t=0.52
-1.4139544426244157
% es.Ex (V/m) @ t=0.52
2.8488583611091474
% es.Ey (V/m) @ t=0.52
0.10961087525008789
% es.Ez (V/m) @ t=0.52
-1.4139544426244095
% es.tEx (V/m) @ t=0.52
2.8488583611091443
% es.tEy (V/m) @ t=0.52
0
% es.tEz (V/m) @ t=0.52
-1.4139544426244157
% V (V) @ t=0.52
0.014438300653690396
% es.normE (V/m) @ t=0.54
3.2132011162773617
% es.EX (V/m) @ t=0.54
2.8764871949158186
% es.EY (V/m) @ t=0.54
0.11067388432878428
% es.EZ (V/m) @ t=0.54
-1.4276673225848524
% es.tEX (V/m) @ t=0.54
2.8764871949158213
% es.tEY (V/m) @ t=0.54
0
% es.tEZ (V/m) @ t=0.54
-1.4276673225848455
% es.Ex (V/m) @ t=0.54
2.8764871949158186
% es.Ey (V/m) @ t=0.54
0.11067388432878428
% es.Ez (V/m) @ t=0.54
-1.4276673225848524
% es.tEx (V/m) @ t=0.54
2.8764871949158213
% es.tEy (V/m) @ t=0.54
0
% es.tEz (V/m) @ t=0.54
-1.4276673225848455
% V (V) @ t=0.54
0.014578328102745359
% es.normE (V/m) @ t=0.56
3.2440641286896317
% es.EX (V/m) @ t=0.56
2.9041160287224805
% es.EY (V/m) @ t=0.56
0.11173689340750187
% es.EZ (V/m) @ t=0.56
-1.441380202545274
% es.tEX (V/m) @ t=0.56
2.9041160287224876
% es.tEY (V/m) @ t=0.56
0
% es.tEZ (V/m) @ t=0.56
-1.4413802025452611
% es.Ex (V/m) @ t=0.56
2.9041160287224805
% es.Ey (V/m) @ t=0.56
0.11173689340750187
% es.Ez (V/m) @ t=0.56
-1.441380202545274
% es.tEx (V/m) @ t=0.56
2.9041160287224876
% es.tEy (V/m) @ t=0.56
0
% es.tEz (V/m) @ t=0.56
-1.4413802025452611
% V (V) @ t=0.56
0.014718355551800318
% es.normE (V/m) @ t=0.58
3.274927141101905
% es.EX (V/m) @ t=0.58
2.931744862529153
% es.EY (V/m) @ t=0.58
0.11279990248620714
% es.EZ (V/m) @ t=0.58
-1.4550930825056778
% es.tEX (V/m) @ t=0.58
2.9317448625291522
% es.tEY (V/m) @ t=0.58
0
% es.tEZ (V/m) @ t=0.58
-1.4550930825056625
% es.Ex (V/m) @ t=0.58
2.931744862529153
% es.Ey (V/m) @ t=0.58
0.11279990248620714
% es.Ez (V/m) @ t=0.58
-1.4550930825056778
% es.tEx (V/m) @ t=0.58
2.9317448625291522
% es.tEy (V/m) @ t=0.58
0
% es.tEz (V/m) @ t=0.58
-1.4550930825056625
% V (V) @ t=0.58
0.014858383000855277
% es.normE (V/m) @ t=0.6
3.3057901535141676
% es.EX (V/m) @ t=0.6
2.9593736963358115
% es.EY (V/m) @ t=0.6
0.11386291156491235
% es.EZ (V/m) @ t=0.6
-1.4688059624660852
% es.tEX (V/m) @ t=0.6
2.9593736963358097
% es.tEY (V/m) @ t=0.6
0
% es.tEZ (V/m) @ t=0.6
-1.468805962466078
% es.Ex (V/m) @ t=0.6
2.9593736963358115
% es.Ey (V/m) @ t=0.6
0.11386291156491235
% es.Ez (V/m) @ t=0.6
-1.4688059624660852
% es.tEx (V/m) @ t=0.6
2.9593736963358097
% es.tEy (V/m) @ t=0.6
0
% es.tEz (V/m) @ t=0.6
-1.468805962466078
% V (V) @ t=0.6
0.014998410449910238
% es.normE (V/m) @ t=0.62
3.3366531659264687
% es.EX (V/m) @ t=0.62
2.987002530142509
% es.EY (V/m) @ t=0.62
0.11492592064363444
% es.EZ (V/m) @ t=0.62
-1.4825188424264963
% es.tEX (V/m) @ t=0.62
2.9870025301424974
% es.tEY (V/m) @ t=0.62
0
% es.tEZ (V/m) @ t=0.62
-1.4825188424264866
% es.Ex (V/m) @ t=0.62
2.987002530142509
% es.Ey (V/m) @ t=0.62
0.11492592064363444
% es.Ez (V/m) @ t=0.62
-1.4825188424264963
% es.tEx (V/m) @ t=0.62
2.9870025301424974
% es.tEy (V/m) @ t=0.62
0
% es.tEz (V/m) @ t=0.62
-1.4825188424264866
% V (V) @ t=0.62
0.015138437898965197
% es.normE (V/m) @ t=0.64
3.3675161783387475
% es.EX (V/m) @ t=0.64
3.0146313639491673
% es.EY (V/m) @ t=0.64
0.11598892972234326
% es.EZ (V/m) @ t=0.64
-1.4962317223869355
% es.tEX (V/m) @ t=0.64
3.014631363949169
% es.tEY (V/m) @ t=0.64
0
% es.tEZ (V/m) @ t=0.64
-1.4962317223869235
% es.Ex (V/m) @ t=0.64
3.0146313639491673
% es.Ey (V/m) @ t=0.64
0.11598892972234326
% es.Ez (V/m) @ t=0.64
-1.4962317223869355
% es.tEx (V/m) @ t=0.64
3.014631363949169
% es.tEy (V/m) @ t=0.64
0
% es.tEz (V/m) @ t=0.64
-1.4962317223869235
% V (V) @ t=0.64
0.015278465348020158
% es.normE (V/m) @ t=0.66
3.3983791907509993
% es.EX (V/m) @ t=0.66
3.0422601977558252
% es.EY (V/m) @ t=0.66
0.11705193880101644
% es.EZ (V/m) @ t=0.66
-1.5099446023473146
% es.tEX (V/m) @ t=0.66
3.0422601977558195
% es.tEY (V/m) @ t=0.66
0
% es.tEZ (V/m) @ t=0.66
-1.5099446023473035
% es.Ex (V/m) @ t=0.66
3.0422601977558252
% es.Ey (V/m) @ t=0.66
0.11705193880101644
% es.Ez (V/m) @ t=0.66
-1.5099446023473146
% es.tEx (V/m) @ t=0.66
3.0422601977558195
% es.tEy (V/m) @ t=0.66
0
% es.tEz (V/m) @ t=0.66
-1.5099446023473035
% V (V) @ t=0.66
0.015418492797075118
% es.normE (V/m) @ t=0.68
3.4292422031632825
% es.EX (V/m) @ t=0.68
3.069889031562502
% es.EY (V/m) @ t=0.68
0.1181149478797403
% es.EZ (V/m) @ t=0.68
-1.523657482307722
% es.tEX (V/m) @ t=0.68
3.069889031562493
% es.tEY (V/m) @ t=0.68
0
% es.tEZ (V/m) @ t=0.68
-1.5236574823077191
% es.Ex (V/m) @ t=0.68
3.069889031562502
% es.Ey (V/m) @ t=0.68
0.1181149478797403
% es.Ez (V/m) @ t=0.68
-1.523657482307722
% es.tEx (V/m) @ t=0.68
3.069889031562493
% es.tEy (V/m) @ t=0.68
0
% es.tEz (V/m) @ t=0.68
-1.5236574823077191
% V (V) @ t=0.68
0.015558520246130077
% es.normE (V/m) @ t=0.7
3.4601052155755774
% es.EX (V/m) @ t=0.7
3.097517865369171
% es.EY (V/m) @ t=0.7
0.119177956958466
% es.EZ (V/m) @ t=0.7
-1.5373703622681685
% es.tEX (V/m) @ t=0.7
3.0975178653691646
% es.tEY (V/m) @ t=0.7
0
% es.tEZ (V/m) @ t=0.7
-1.5373703622681631
% es.Ex (V/m) @ t=0.7
3.097517865369171
% es.Ey (V/m) @ t=0.7
0.119177956958466
% es.Ez (V/m) @ t=0.7
-1.5373703622681685
% es.tEx (V/m) @ t=0.7
3.0975178653691646
% es.tEy (V/m) @ t=0.7
0
% es.tEz (V/m) @ t=0.7
-1.5373703622681631
% V (V) @ t=0.7
0.015698547695185038
% es.normE (V/m) @ t=0.72
3.4909682279878407
% es.EX (V/m) @ t=0.72
3.125146699175832
% es.EY (V/m) @ t=0.72
0.1202409660371721
% es.EZ (V/m) @ t=0.72
-1.551083242228558
% es.tEX (V/m) @ t=0.72
3.125146699175829
% es.tEY (V/m) @ t=0.72
0
% es.tEZ (V/m) @ t=0.72
-1.5510832422285503
% es.Ex (V/m) @ t=0.72
3.125146699175832
% es.Ey (V/m) @ t=0.72
0.1202409660371721
% es.Ez (V/m) @ t=0.72
-1.551083242228558
% es.tEx (V/m) @ t=0.72
3.125146699175829
% es.tEy (V/m) @ t=0.72
0
% es.tEz (V/m) @ t=0.72
-1.5510832422285503
% V (V) @ t=0.72
0.01583857514424
% es.normE (V/m) @ t=0.74
3.521831240400159
% es.EX (V/m) @ t=0.74
3.15277553298253
% es.EY (V/m) @ t=0.74
0.1213039751159049
% es.EZ (V/m) @ t=0.74
-1.5647961221889939
% es.tEX (V/m) @ t=0.74
3.152775532982524
% es.tEY (V/m) @ t=0.74
0
% es.tEZ (V/m) @ t=0.74
-1.564796122188973
% es.Ex (V/m) @ t=0.74
3.15277553298253
% es.Ey (V/m) @ t=0.74
0.1213039751159049
% es.Ez (V/m) @ t=0.74
-1.5647961221889939
% es.tEx (V/m) @ t=0.74
3.152775532982524
% es.tEy (V/m) @ t=0.74
0
% es.tEz (V/m) @ t=0.74
-1.564796122188973
% V (V) @ t=0.74
0.015978602593294956
% es.normE (V/m) @ t=0.76
3.5526942528123993
% es.EX (V/m) @ t=0.76
3.180404366789163
% es.EY (V/m) @ t=0.76
0.12236698419456116
% es.EZ (V/m) @ t=0.76
-1.5785090021493906
% es.tEX (V/m) @ t=0.76
3.18040436678916
% es.tEY (V/m) @ t=0.76
0
% es.tEZ (V/m) @ t=0.76
-1.5785090021493886
% es.Ex (V/m) @ t=0.76
3.180404366789163
% es.Ey (V/m) @ t=0.76
0.12236698419456116
% es.Ez (V/m) @ t=0.76
-1.5785090021493906
% es.tEx (V/m) @ t=0.76
3.18040436678916
% es.tEy (V/m) @ t=0.76
0
% es.tEz (V/m) @ t=0.76
-1.5785090021493886
% V (V) @ t=0.76
0.016118630042349917
% es.normE (V/m) @ t=0.78
3.5856066132743356
% es.EX (V/m) @ t=0.78
3.20986780641861
% es.EY (V/m) @ t=0.78
0.12350059185866819
% es.EZ (V/m) @ t=0.78
-1.5931324119988386
% es.tEX (V/m) @ t=0.78
3.209867806418602
% es.tEY (V/m) @ t=0.78
0
% es.tEZ (V/m) @ t=0.78
-1.5931324119988304
% es.Ex (V/m) @ t=0.78
3.20986780641861
% es.Ey (V/m) @ t=0.78
0.12350059185866819
% es.Ez (V/m) @ t=0.78
-1.5931324119988386
% es.tEx (V/m) @ t=0.78
3.209867806418602
% es.tEy (V/m) @ t=0.78
0
% es.tEz (V/m) @ t=0.78
-1.5931324119988304
% V (V) @ t=0.78
0.016267954486581672
% es.normE (V/m) @ t=0.8
3.619860573358808
% es.EX (V/m) @ t=0.8
3.240532265308666
% es.EY (V/m) @ t=0.8
0.12468041667731333
% es.EZ (V/m) @ t=0.8
-1.6083518975396167
% es.tEX (V/m) @ t=0.8
3.2405322653086603
% es.tEY (V/m) @ t=0.8
0
% es.tEZ (V/m) @ t=0.8
-1.608351897539606
% es.Ex (V/m) @ t=0.8
3.240532265308666
% es.Ey (V/m) @ t=0.8
0.12468041667731333
% es.Ez (V/m) @ t=0.8
-1.6083518975396167
% es.tEx (V/m) @ t=0.8
3.2405322653086603
% es.tEy (V/m) @ t=0.8
0
% es.tEz (V/m) @ t=0.8
-1.608351897539606
% V (V) @ t=0.8
0.016423365181131872
% es.normE (V/m) @ t=0.82
3.654114533443237
% es.EX (V/m) @ t=0.82
3.271196724198694
% es.EY (V/m) @ t=0.82
0.12586024149592095
% es.EZ (V/m) @ t=0.82
-1.623571383080356
% es.tEX (V/m) @ t=0.82
3.271196724198692
% es.tEY (V/m) @ t=0.82
0
% es.tEZ (V/m) @ t=0.82
-1.623571383080339
% es.Ex (V/m) @ t=0.82
3.271196724198694
% es.Ey (V/m) @ t=0.82
0.12586024149592095
% es.Ez (V/m) @ t=0.82
-1.623571383080356
% es.tEx (V/m) @ t=0.82
3.271196724198692
% es.tEy (V/m) @ t=0.82
0
% es.tEz (V/m) @ t=0.82
-1.623571383080339
% V (V) @ t=0.82
0.016578775875682072
% es.normE (V/m) @ t=0.84
3.688368493527703
% es.EX (V/m) @ t=0.84
3.301861183088743
% es.EY (V/m) @ t=0.84
0.12704006631455977
% es.EZ (V/m) @ t=0.84
-1.6387908686211339
% es.tEX (V/m) @ t=0.84
3.301861183088736
% es.tEY (V/m) @ t=0.84
0
% es.tEZ (V/m) @ t=0.84
-1.6387908686211148
% es.Ex (V/m) @ t=0.84
3.301861183088743
% es.Ey (V/m) @ t=0.84
0.12704006631455977
% es.Ez (V/m) @ t=0.84
-1.6387908686211339
% es.tEx (V/m) @ t=0.84
3.301861183088736
% es.tEy (V/m) @ t=0.84
0
% es.tEz (V/m) @ t=0.84
-1.6387908686211148
% V (V) @ t=0.84
0.016734186570232276
% es.normE (V/m) @ t=0.86
3.7226224536121606
% es.EX (V/m) @ t=0.86
3.3325256419787985
% es.EY (V/m) @ t=0.86
0.1282198911332137
% es.EZ (V/m) @ t=0.86
-1.6540103541618802
% es.tEX (V/m) @ t=0.86
3.332525641978794
% es.tEY (V/m) @ t=0.86
0
% es.tEZ (V/m) @ t=0.86
-1.6540103541618834
% es.Ex (V/m) @ t=0.86
3.3325256419787985
% es.Ey (V/m) @ t=0.86
0.1282198911332137
% es.Ez (V/m) @ t=0.86
-1.6540103541618802
% es.tEx (V/m) @ t=0.86
3.332525641978794
% es.tEy (V/m) @ t=0.86
0
% es.tEz (V/m) @ t=0.86
-1.6540103541618834
% V (V) @ t=0.86
0.016889597264782473
% es.normE (V/m) @ t=0.88
3.7568764136965997
% es.EX (V/m) @ t=0.88
3.3631901008688265
% es.EY (V/m) @ t=0.88
0.12939971595179572
% es.EZ (V/m) @ t=0.88
-1.6692298397026442
% es.tEX (V/m) @ t=0.88
3.3631901008688256
% es.tEY (V/m) @ t=0.88
0
% es.tEZ (V/m) @ t=0.88
-1.6692298397026306
% es.Ex (V/m) @ t=0.88
3.3631901008688265
% es.Ey (V/m) @ t=0.88
0.12939971595179572
% es.Ez (V/m) @ t=0.88
-1.6692298397026442
% es.tEx (V/m) @ t=0.88
3.3631901008688256
% es.tEy (V/m) @ t=0.88
0
% es.tEz (V/m) @ t=0.88
-1.6692298397026306
% V (V) @ t=0.88
0.017045007959332677
% es.normE (V/m) @ t=0.9
3.7911303737810425
% es.EX (V/m) @ t=0.9
3.393854559758861
% es.EY (V/m) @ t=0.9
0.13057954077041767
% es.EZ (V/m) @ t=0.9
-1.684449325243401
% es.tEX (V/m) @ t=0.9
3.3938545597588554
% es.tEY (V/m) @ t=0.9
0
% es.tEZ (V/m) @ t=0.9
-1.684449325243385
% es.Ex (V/m) @ t=0.9
3.393854559758861
% es.Ey (V/m) @ t=0.9
0.13057954077041767
% es.Ez (V/m) @ t=0.9
-1.684449325243401
% es.tEx (V/m) @ t=0.9
3.3938545597588554
% es.tEy (V/m) @ t=0.9
0
% es.tEz (V/m) @ t=0.9
-1.684449325243385
% V (V) @ t=0.9
0.017200418653882873
% es.normE (V/m) @ t=0.92
3.825384333865487
% es.EX (V/m) @ t=0.92
3.42451901864891
% es.EY (V/m) @ t=0.92
0.13175936558906798
% es.EZ (V/m) @ t=0.92
-1.6996688107841296
% es.tEX (V/m) @ t=0.92
3.424519018648901
% es.tEY (V/m) @ t=0.92
0
% es.tEZ (V/m) @ t=0.92
-1.699668810784118
% es.Ex (V/m) @ t=0.92
3.42451901864891
% es.Ey (V/m) @ t=0.92
0.13175936558906798
% es.Ez (V/m) @ t=0.92
-1.6996688107841296
% es.tEx (V/m) @ t=0.92
3.424519018648901
% es.tEy (V/m) @ t=0.92
0
% es.tEz (V/m) @ t=0.92
-1.699668810784118
% V (V) @ t=0.92
0.017355829348433077
% es.normE (V/m) @ t=0.94
3.859638293949952
% es.EX (V/m) @ t=0.94
3.4551834775389603
% es.EY (V/m) @ t=0.94
0.1329391904076953
% es.EZ (V/m) @ t=0.94
-1.7148882963249041
% es.tEX (V/m) @ t=0.94
3.455183477538945
% es.tEY (V/m) @ t=0.94
0
% es.tEZ (V/m) @ t=0.94
-1.7148882963249008
% es.Ex (V/m) @ t=0.94
3.4551834775389603
% es.Ey (V/m) @ t=0.94
0.1329391904076953
% es.Ez (V/m) @ t=0.94
-1.7148882963249041
% es.tEx (V/m) @ t=0.94
3.455183477538945
% es.tEy (V/m) @ t=0.94
0
% es.tEz (V/m) @ t=0.94
-1.7148882963249008
% V (V) @ t=0.94
0.017511240042983277
% es.normE (V/m) @ t=0.96
3.893892254034407
% es.EX (V/m) @ t=0.96
3.4858479364289936
% es.EY (V/m) @ t=0.96
0.13411901522628883
% es.EZ (V/m) @ t=0.96
-1.730107781865693
% es.tEX (V/m) @ t=0.96
3.4858479364290034
% es.tEY (V/m) @ t=0.96
0
% es.tEZ (V/m) @ t=0.96
-1.7301077818656552
% es.Ex (V/m) @ t=0.96
3.4858479364289936
% es.Ey (V/m) @ t=0.96
0.13411901522628883
% es.Ez (V/m) @ t=0.96
-1.730107781865693
% es.tEx (V/m) @ t=0.96
3.4858479364290034
% es.tEy (V/m) @ t=0.96
0
% es.tEz (V/m) @ t=0.96
-1.7301077818656552
% V (V) @ t=0.96
0.017666650737533478
% es.normE (V/m) @ t=0.98
3.9281462141188377
% es.EX (V/m) @ t=0.98
3.5165123953190287
% es.EY (V/m) @ t=0.98
0.1352988400449356
% es.EZ (V/m) @ t=0.98
-1.745327267406418
% es.tEX (V/m) @ t=0.98
3.5165123953190207
% es.tEY (V/m) @ t=0.98
0
% es.tEZ (V/m) @ t=0.98
-1.7453272674063953
% es.Ex (V/m) @ t=0.98
3.5165123953190287
% es.Ey (V/m) @ t=0.98
0.1352988400449356
% es.Ez (V/m) @ t=0.98
-1.745327267406418
% es.tEx (V/m) @ t=0.98
3.5165123953190207
% es.tEy (V/m) @ t=0.98
0
% es.tEz (V/m) @ t=0.98
-1.7453272674063953
% V (V) @ t=0.98
0.017822061432083675
% es.normE (V/m) @ t=1
3.962400174203294
% es.EX (V/m) @ t=1
3.5471768542090856
% es.EY (V/m) @ t=1
0.1364786648635602
% es.EZ (V/m) @ t=1
-1.7605467529471603
% es.tEX (V/m) @ t=1
3.5471768542090807
% es.tEY (V/m) @ t=1
0
% es.tEZ (V/m) @ t=1
-1.760546752947164
% es.Ex (V/m) @ t=1
3.5471768542090856
% es.Ey (V/m) @ t=1
0.1364786648635602
% es.Ez (V/m) @ t=1
-1.7605467529471603
% es.tEx (V/m) @ t=1
3.5471768542090807
% es.tEy (V/m) @ t=1
0
% es.tEz (V/m) @ t=1
-1.760546752947164
% V (V) @ t=1
0.01797747212663388
% es.normE (V/m) @ t=1.02
3.996654134287729
% es.EX (V/m) @ t=1.02
3.5778413130991056
% es.EY (V/m) @ t=1.02
0.13765848968219635
% es.EZ (V/m) @ t=1.02
-1.775766238487928
% es.tEX (V/m) @ t=1.02
3.5778413130990945
% es.tEY (V/m) @ t=1.02
0
% es.tEZ (V/m) @ t=1.02
-1.7757662384879183
% es.Ex (V/m) @ t=1.02
3.5778413130991056
% es.Ey (V/m) @ t=1.02
0.13765848968219635
% es.Ez (V/m) @ t=1.02
-1.775766238487928
% es.tEx (V/m) @ t=1.02
3.5778413130990945
% es.tEy (V/m) @ t=1.02
0
% es.tEz (V/m) @ t=1.02
-1.7757662384879183
% V (V) @ t=1.02
0.01813288282118408
% es.normE (V/m) @ t=1.04
4.0322495933139315
% es.EX (V/m) @ t=1.04
3.6097067112866754
% es.EY (V/m) @ t=1.04
0.138884539551489
% es.EZ (V/m) @ t=1.04
-1.7915817336153377
% es.tEX (V/m) @ t=1.04
3.609706711286691
% es.tEY (V/m) @ t=1.04
0
% es.tEZ (V/m) @ t=1.04
-1.791581733615331
% es.Ex (V/m) @ t=1.04
3.6097067112866754