% Model:              1 neuron.mph
% Version:            COMSOL 6.1.0.252
% Date:               Mar 22 2023, 19:26
% Dimension:          0
% Nodes:              14017
% Expressions:        14017
% Description:        Electric field norm, Electric field, X component, Electric field, Y component, Electric field, Z component, Tangential electric field, X component, Tangential electric field, Y component, Tangential electric field, Z component, Electric field, x component, Electric field, y component, Electric field, z component, Tangential electric field, x component, Tangential electric field, y component, Tangential electric field, z component, Electric potential
% Length unit:        mm
% x
1.0000000000000002
% y
12.2
% z
2
% es.normE (V/m) @ t=0
1.273416367204244
% es.EX (V/m) @ t=0
0.8845251175378925
% es.EY (V/m) @ t=0
0.13244775689530608
% es.EZ (V/m) @ t=0
-0.8832341876261185
% es.tEX (V/m) @ t=0
0.8845251175378954
% es.tEY (V/m) @ t=0
0
% es.tEZ (V/m) @ t=0
-0.8832341876261145
% es.Ex (V/m) @ t=0
0.8845251175378925
% es.Ey (V/m) @ t=0
0.13244775689530608
% es.Ez (V/m) @ t=0
-0.8832341876261185
% es.tEx (V/m) @ t=0
0.8845251175378954
% es.tEy (V/m) @ t=0
0
% es.tEz (V/m) @ t=0
-0.8832341876261145
% V (V) @ t=0
0.013636614109891497
% es.normE (V/m) @ t=0.02
1.099864275203489
% es.EX (V/m) @ t=0.02
0.7639744566678821
% es.EY (V/m) @ t=0.02
0.11439664207848083
% es.EZ (V/m) @ t=0.02
-0.7628594657663705
% es.tEX (V/m) @ t=0.02
0.7639744566678845
% es.tEY (V/m) @ t=0.02
0
% es.tEZ (V/m) @ t=0.02
-0.7628594657663559
% es.Ex (V/m) @ t=0.02
0.7639744566678821
% es.Ey (V/m) @ t=0.02
0.11439664207848083
% es.Ez (V/m) @ t=0.02
-0.7628594657663705
% es.tEx (V/m) @ t=0.02
0.7639744566678845
% es.tEy (V/m) @ t=0.02
0
% es.tEz (V/m) @ t=0.02
-0.7628594657663559
% V (V) @ t=0.02
0.01177809950542119
% es.normE (V/m) @ t=0.04
1.1099837147146494
% es.EX (V/m) @ t=0.04
0.7710034996835857
% es.EY (V/m) @ t=0.04
0.11544916281049944
% es.EZ (V/m) @ t=0.04
-0.7698782501524866
% es.tEX (V/m) @ t=0.04
0.7710034996835882
% es.tEY (V/m) @ t=0.04
0
% es.tEZ (V/m) @ t=0.04
-0.7698782501524724
% es.Ex (V/m) @ t=0.04
0.7710034996835857
% es.Ey (V/m) @ t=0.04
0.11544916281049944
% es.Ez (V/m) @ t=0.04
-0.7698782501524866
% es.tEx (V/m) @ t=0.04
0.7710034996835882
% es.tEy (V/m) @ t=0.04
0
% es.tEz (V/m) @ t=0.04
-0.7698782501524724
% V (V) @ t=0.04
0.01188646538913216
% es.normE (V/m) @ t=0.06
1.1201768428700034
% es.EX (V/m) @ t=0.06
0.7780837275755361
% es.EY (V/m) @ t=0.06
0.11650934721868744
% es.EZ (V/m) @ t=0.06
-0.776948144613359
% es.tEX (V/m) @ t=0.06
0.7780837275755386
% es.tEY (V/m) @ t=0.06
0
% es.tEZ (V/m) @ t=0.06
-0.776948144613355
% es.Ex (V/m) @ t=0.06
0.7780837275755361
% es.Ey (V/m) @ t=0.06
0.11650934721868744
% es.Ez (V/m) @ t=0.06
-0.776948144613359
% es.tEx (V/m) @ t=0.06
0.7780837275755386
% es.tEy (V/m) @ t=0.06
0
% es.tEz (V/m) @ t=0.06
-0.776948144613355
% V (V) @ t=0.06
0.011995620408459
% es.normE (V/m) @ t=0.08
1.130565506174288
% es.EX (V/m) @ t=0.08
0.7852997755843059
% es.EY (V/m) @ t=0.08
0.1175898697662614
% es.EZ (V/m) @ t=0.08
-0.7841536610791162
% es.tEX (V/m) @ t=0.08
0.7852997755843045
% es.tEY (V/m) @ t=0.08
0
% es.tEZ (V/m) @ t=0.08
-0.784153661079098
% es.Ex (V/m) @ t=0.08
0.7852997755843059
% es.Ey (V/m) @ t=0.08
0.1175898697662614
% es.Ez (V/m) @ t=0.08
-0.7841536610791162
% es.tEx (V/m) @ t=0.08
0.7852997755843045
% es.tEy (V/m) @ t=0.08
0
% es.tEz (V/m) @ t=0.08
-0.784153661079098
% V (V) @ t=0.08
0.012106869327756137
% es.normE (V/m) @ t=0.1
1.1410068777249553
% es.EX (V/m) @ t=0.1
0.7925524351190345
% es.EY (V/m) @ t=0.1
0.11867587464099649
% es.EZ (V/m) @ t=0.1
-0.7913957356679906
% es.tEX (V/m) @ t=0.1
0.792552435119044
% es.tEY (V/m) @ t=0.1
0
% es.tEZ (V/m) @ t=0.1
-0.791395735667983
% es.Ex (V/m) @ t=0.1
0.7925524351190345
% es.Ey (V/m) @ t=0.1
0.11867587464099649
% es.Ez (V/m) @ t=0.1
-0.7913957356679906
% es.tEx (V/m) @ t=0.1
0.792552435119044
% es.tEy (V/m) @ t=0.1
0
% es.tEz (V/m) @ t=0.1
-0.791395735667983
% V (V) @ t=0.1
0.012218682676498005
% es.normE (V/m) @ t=0.12
1.1514482492756075
% es.EX (V/m) @ t=0.12
0.7998050946537567
% es.EY (V/m) @ t=0.12
0.1197618795157554
% es.EZ (V/m) @ t=0.12
-0.7986378102568437
% es.tEX (V/m) @ t=0.12
0.7998050946537663
% es.tEY (V/m) @ t=0.12
0
% es.tEZ (V/m) @ t=0.12
-0.7986378102568326
% es.Ex (V/m) @ t=0.12
0.7998050946537567
% es.Ey (V/m) @ t=0.12
0.1197618795157554
% es.Ez (V/m) @ t=0.12
-0.7986378102568437
% es.tEx (V/m) @ t=0.12
0.7998050946537663
% es.tEy (V/m) @ t=0.12
0
% es.tEz (V/m) @ t=0.12
-0.7986378102568326
% V (V) @ t=0.12
0.012330496025239873
% es.normE (V/m) @ t=0.14
1.1621940822669965
% es.EX (V/m) @ t=0.14
0.8072692353077693
% es.EY (V/m) @ t=0.14
0.12087955182043375
% es.EZ (V/m) @ t=0.14
-0.8060910576011078
% es.tEX (V/m) @ t=0.14
0.8072692353077753
% es.tEY (V/m) @ t=0.14
0
% es.tEZ (V/m) @ t=0.14
-0.8060910576011002
% es.Ex (V/m) @ t=0.14
0.8072692353077693
% es.Ey (V/m) @ t=0.14
0.12087955182043375
% es.Ez (V/m) @ t=0.14
-0.8060910576011078
% es.tEx (V/m) @ t=0.14
0.8072692353077753
% es.tEy (V/m) @ t=0.14
0
% es.tEz (V/m) @ t=0.14
-0.8060910576011002
% V (V) @ t=0.14
0.012445569730136025
% es.normE (V/m) @ t=0.16
1.1731589323331433
% es.EX (V/m) @ t=0.16
0.8148855068063154
% es.EY (V/m) @ t=0.16
0.12202000437553462
% es.EZ (V/m) @ t=0.16
-0.813696213965605
% es.tEX (V/m) @ t=0.16
0.8148855068063208
% es.tEY (V/m) @ t=0.16
0
% es.tEZ (V/m) @ t=0.16
-0.8136962139655939
% es.Ex (V/m) @ t=0.16
0.8148855068063154
% es.Ey (V/m) @ t=0.16
0.12202000437553462
% es.Ez (V/m) @ t=0.16
-0.813696213965605
% es.tEx (V/m) @ t=0.16
0.8148855068063208
% es.tEy (V/m) @ t=0.16
0
% es.tEz (V/m) @ t=0.16
-0.8136962139655939
% V (V) @ t=0.16
0.012562988801544923
% es.normE (V/m) @ t=0.18
1.1841237823992943
% es.EX (V/m) @ t=0.18
0.8225017783048709
% es.EY (V/m) @ t=0.18
0.12316045693064803
% es.EZ (V/m) @ t=0.18
-0.8213013703301013
% es.tEX (V/m) @ t=0.18
0.8225017783048743
% es.tEY (V/m) @ t=0.18
0
% es.tEZ (V/m) @ t=0.18
-0.8213013703300867
% es.Ex (V/m) @ t=0.18
0.8225017783048709
% es.Ey (V/m) @ t=0.18
0.12316045693064803
% es.Ez (V/m) @ t=0.18
-0.8213013703301013
% es.tEx (V/m) @ t=0.18
0.8225017783048743
% es.tEy (V/m) @ t=0.18
0
% es.tEz (V/m) @ t=0.18
-0.8213013703300867
% V (V) @ t=0.18
0.012680407872953823
% es.normE (V/m) @ t=0.2
1.195088632465446
% es.EX (V/m) @ t=0.2
0.8301180498034222
% es.EY (V/m) @ t=0.2
0.12430090948577771
% es.EZ (V/m) @ t=0.2
-0.8289065266945976
% es.tEX (V/m) @ t=0.2
0.8301180498034282
% es.tEY (V/m) @ t=0.2
0
% es.tEZ (V/m) @ t=0.2
-0.8289065266945794
% es.Ex (V/m) @ t=0.2
0.8301180498034222
% es.Ey (V/m) @ t=0.2
0.12430090948577771
% es.Ez (V/m) @ t=0.2
-0.8289065266945976
% es.tEx (V/m) @ t=0.2
0.8301180498034282
% es.tEy (V/m) @ t=0.2
0
% es.tEz (V/m) @ t=0.2
-0.8289065266945794
% V (V) @ t=0.2
0.012797826944362722
% es.normE (V/m) @ t=0.22
1.2060534825315936
% es.EX (V/m) @ t=0.22
0.8377343213019726
% es.EY (V/m) @ t=0.22
0.12544136204089273
% es.EZ (V/m) @ t=0.22
-0.8365116830590984
% es.tEX (V/m) @ t=0.22
0.8377343213019741
% es.tEY (V/m) @ t=0.22
0
% es.tEZ (V/m) @ t=0.22
-0.8365116830590802
% es.Ex (V/m) @ t=0.22
0.8377343213019726
% es.Ey (V/m) @ t=0.22
0.12544136204089273
% es.Ez (V/m) @ t=0.22
-0.8365116830590984
% es.tEx (V/m) @ t=0.22
0.8377343213019741
% es.tEy (V/m) @ t=0.22
0
% es.tEz (V/m) @ t=0.22
-0.8365116830590802
% V (V) @ t=0.22
0.012915246015771622
% es.normE (V/m) @ t=0.24
1.2170183325977322
% es.EX (V/m) @ t=0.24
0.8453505928005185
% es.EY (V/m) @ t=0.24
0.1265818145959937
% es.EZ (V/m) @ t=0.24
-0.8441168394235841
% es.tEX (V/m) @ t=0.24
0.8453505928005236
% es.tEY (V/m) @ t=0.24
0
% es.tEZ (V/m) @ t=0.24
-0.8441168394235659
% es.Ex (V/m) @ t=0.24
0.8453505928005185
% es.Ey (V/m) @ t=0.24
0.1265818145959937
% es.Ez (V/m) @ t=0.24
-0.8441168394235841
% es.tEx (V/m) @ t=0.24
0.8453505928005236
% es.tEy (V/m) @ t=0.24
0
% es.tEz (V/m) @ t=0.24
-0.8441168394235659
% V (V) @ t=0.24
0.01303266508718052
% es.normE (V/m) @ t=0.26
1.2281813529701113
% es.EX (V/m) @ t=0.26
0.8531045155878514
% es.EY (V/m) @ t=0.26
0.1277428766461043
% es.EZ (V/m) @ t=0.26
-0.851859445642448
% es.tEX (V/m) @ t=0.26
0.8531045155878547
% es.tEY (V/m) @ t=0.26
0
% es.tEZ (V/m) @ t=0.26
-0.8518594456424298
% es.Ex (V/m) @ t=0.26
0.8531045155878514
% es.Ey (V/m) @ t=0.26
0.1277428766461043
% es.Ez (V/m) @ t=0.26
-0.851859445642448
% es.tEx (V/m) @ t=0.26
0.8531045155878547
% es.tEy (V/m) @ t=0.26
0
% es.tEz (V/m) @ t=0.26
-0.8518594456424298
% V (V) @ t=0.26
0.013152206395368071
% es.normE (V/m) @ t=0.28
1.2403154456177425
% es.EX (V/m) @ t=0.28
0.861532955929001
% es.EY (V/m) @ t=0.28
0.1290049291502725
% es.EZ (V/m) @ t=0.28
-0.8602755823480122
% es.tEX (V/m) @ t=0.28
0.861532955928999
% es.tEY (V/m) @ t=0.28
0
% es.tEZ (V/m) @ t=0.28
-0.8602755823480086
% es.Ex (V/m) @ t=0.28
0.861532955929001
% es.Ey (V/m) @ t=0.28
0.1290049291502725
% es.Ez (V/m) @ t=0.28
-0.8602755823480122
% es.tEx (V/m) @ t=0.28
0.861532955928999
% es.tEy (V/m) @ t=0.28
0
% es.tEz (V/m) @ t=0.28
-0.8602755823480086
% V (V) @ t=0.28
0.013282147068306315
% es.normE (V/m) @ t=0.3
1.2524495382653482
% es.EX (V/m) @ t=0.3
0.8699613962701356
% es.EY (V/m) @ t=0.3
0.130266981654455
% es.EZ (V/m) @ t=0.3
-0.8686917190535586
% es.tEX (V/m) @ t=0.3
0.8699613962701367
% es.tEY (V/m) @ t=0.3
0
% es.tEZ (V/m) @ t=0.3
-0.8686917190535439
% es.Ex (V/m) @ t=0.3
0.8699613962701356
% es.Ey (V/m) @ t=0.3
0.130266981654455
% es.Ez (V/m) @ t=0.3
-0.8686917190535586
% es.tEx (V/m) @ t=0.3
0.8699613962701367
% es.tEy (V/m) @ t=0.3
0
% es.tEz (V/m) @ t=0.3
-0.8686917190535439
% V (V) @ t=0.3
0.013412087741244562
% es.normE (V/m) @ t=0.32
1.2645836309129732
% es.EX (V/m) @ t=0.32
0.8783898366112817
% es.EY (V/m) @ t=0.32
0.13152903415862433
% es.EZ (V/m) @ t=0.32
-0.8771078557591161
% es.tEX (V/m) @ t=0.32
0.878389836611281
% es.tEY (V/m) @ t=0.32
0
% es.tEZ (V/m) @ t=0.32
-0.8771078557591014
% es.Ex (V/m) @ t=0.32
0.8783898366112817
% es.Ey (V/m) @ t=0.32
0.13152903415862433
% es.Ez (V/m) @ t=0.32
-0.8771078557591161
% es.tEx (V/m) @ t=0.32
0.878389836611281
% es.tEy (V/m) @ t=0.32
0
% es.tEz (V/m) @ t=0.32
-0.8771078557591014
% V (V) @ t=0.32
0.013542028414182805
% es.normE (V/m) @ t=0.34
1.276717723560608
% es.EX (V/m) @ t=0.34
0.8868182769524242
% es.EY (V/m) @ t=0.34
0.1327910866627916
% es.EZ (V/m) @ t=0.34
-0.8855239924646905
% es.tEX (V/m) @ t=0.34
0.886818276952436
% es.tEY (V/m) @ t=0.34
0
% es.tEZ (V/m) @ t=0.34
-0.8855239924646723
% es.Ex (V/m) @ t=0.34
0.8868182769524242
% es.Ey (V/m) @ t=0.34
0.1327910866627916
% es.Ez (V/m) @ t=0.34
-0.8855239924646905
% es.tEx (V/m) @ t=0.34
0.886818276952436
% es.tEy (V/m) @ t=0.34
0
% es.tEz (V/m) @ t=0.34
-0.8855239924646723
% V (V) @ t=0.34
0.013671969087121049
% es.normE (V/m) @ t=0.36
1.2888518162082254
% es.EX (V/m) @ t=0.36
0.8952467172935614
% es.EY (V/m) @ t=0.36
0.13405313916695738
% es.EZ (V/m) @ t=0.36
-0.8939401291702471
% es.tEX (V/m) @ t=0.36
0.8952467172935696
% es.tEY (V/m) @ t=0.36
0
% es.tEZ (V/m) @ t=0.36
-0.893940129170236
% es.Ex (V/m) @ t=0.36
0.8952467172935614
% es.Ey (V/m) @ t=0.36
0.13405313916695738
% es.Ez (V/m) @ t=0.36
-0.8939401291702471
% es.tEx (V/m) @ t=0.36
0.8952467172935696
% es.tEy (V/m) @ t=0.36
0
% es.tEz (V/m) @ t=0.36
-0.893940129170236
% V (V) @ t=0.36
0.013801909760059296
% es.normE (V/m) @ t=0.38
1.3009859088558535
% es.EX (V/m) @ t=0.38
0.9036751576347168
% es.EY (V/m) @ t=0.38
0.13531519167112543
% es.EZ (V/m) @ t=0.38
-0.9023562658758046
% es.tEX (V/m) @ t=0.38
0.9036751576347215
% es.tEY (V/m) @ t=0.38
0
% es.tEZ (V/m) @ t=0.38
-0.9023562658757935
% es.Ex (V/m) @ t=0.38
0.9036751576347168
% es.Ey (V/m) @ t=0.38
0.13531519167112543
% es.Ez (V/m) @ t=0.38
-0.9023562658758046
% es.tEx (V/m) @ t=0.38
0.9036751576347215
% es.tEy (V/m) @ t=0.38
0
% es.tEz (V/m) @ t=0.38
-0.9023562658757935
% V (V) @ t=0.38
0.013931850432997538
% es.normE (V/m) @ t=0.4
1.3131200015034712
% es.EX (V/m) @ t=0.4
0.9121035979758523
% es.EY (V/m) @ t=0.4
0.13657724417530454
% es.EZ (V/m) @ t=0.4
-0.9107724025813542
% es.tEX (V/m) @ t=0.4
0.9121035979758552
% es.tEY (V/m) @ t=0.4
0
% es.tEZ (V/m) @ t=0.4
-0.910772402581336
% es.Ex (V/m) @ t=0.4
0.9121035979758523
% es.Ey (V/m) @ t=0.4
0.13657724417530454
% es.Ez (V/m) @ t=0.4
-0.9107724025813542
% es.tEx (V/m) @ t=0.4
0.9121035979758552
% es.tEy (V/m) @ t=0.4
0
% es.tEz (V/m) @ t=0.4
-0.910772402581336
% V (V) @ t=0.4
0.014061791105935785
% es.normE (V/m) @ t=0.42
1.325254094151104
% es.EX (V/m) @ t=0.42
0.9205320383169944
% es.EY (V/m) @ t=0.42
0.1378392966794772
% es.EZ (V/m) @ t=0.42
-0.9191885392869295
% es.tEX (V/m) @ t=0.42
0.9205320383169955
% es.tEY (V/m) @ t=0.42
0
% es.tEZ (V/m) @ t=0.42
-0.9191885392869148
% es.Ex (V/m) @ t=0.42
0.9205320383169944
% es.Ey (V/m) @ t=0.42
0.1378392966794772
% es.Ez (V/m) @ t=0.42
-0.9191885392869295
% es.tEx (V/m) @ t=0.42
0.9205320383169955
% es.tEy (V/m) @ t=0.42
0
% es.tEz (V/m) @ t=0.42
-0.9191885392869148
% V (V) @ t=0.42
0.014191731778874029
% es.normE (V/m) @ t=0.44
1.3373881867987403
% es.EX (V/m) @ t=0.44
0.9289604786581422
% es.EY (V/m) @ t=0.44
0.13910134918363032
% es.EZ (V/m) @ t=0.44
-0.9276046759925047
% es.tEX (V/m) @ t=0.44
0.9289604786581469
% es.tEY (V/m) @ t=0.44
0
% es.tEZ (V/m) @ t=0.44
-0.9276046759924865
% es.Ex (V/m) @ t=0.44
0.9289604786581422
% es.Ey (V/m) @ t=0.44
0.13910134918363032
% es.Ez (V/m) @ t=0.44
-0.9276046759925047
% es.tEx (V/m) @ t=0.44
0.9289604786581469
% es.tEy (V/m) @ t=0.44
0
% es.tEz (V/m) @ t=0.44
-0.9276046759924865
% V (V) @ t=0.44
0.014321672451812272
% es.normE (V/m) @ t=0.46
1.3495222794463526
% es.EX (V/m) @ t=0.46
0.9373889189992786
% es.EY (V/m) @ t=0.46
0.14036340168779715
% es.EZ (V/m) @ t=0.46
-0.9360208126980569
% es.tEX (V/m) @ t=0.46
0.9373889189992846
% es.tEY (V/m) @ t=0.46
0
% es.tEZ (V/m) @ t=0.46
-0.9360208126980494
% es.Ex (V/m) @ t=0.46
0.9373889189992786
% es.Ey (V/m) @ t=0.46
0.14036340168779715
% es.Ez (V/m) @ t=0.46
-0.9360208126980569
% es.tEx (V/m) @ t=0.46
0.9373889189992846
% es.tEy (V/m) @ t=0.46
0
% es.tEz (V/m) @ t=0.46
-0.9360208126980494
% V (V) @ t=0.46
0.014451613124750514
% es.normE (V/m) @ t=0.48
1.3616563720939872
% es.EX (V/m) @ t=0.48
0.9458173593404242
% es.EY (V/m) @ t=0.48
0.14162545419198053
% es.EZ (V/m) @ t=0.48
-0.9444369494036251
% es.tEX (V/m) @ t=0.48
0.9458173593404249
% es.tEY (V/m) @ t=0.48
0
% es.tEZ (V/m) @ t=0.48
-0.9444369494036069
% es.Ex (V/m) @ t=0.48
0.9458173593404242
% es.Ey (V/m) @ t=0.48
0.14162545419198053
% es.Ez (V/m) @ t=0.48
-0.9444369494036251
% es.tEx (V/m) @ t=0.48
0.9458173593404249
% es.tEy (V/m) @ t=0.48
0
% es.tEz (V/m) @ t=0.48
-0.9444369494036069
% V (V) @ t=0.48
0.014581553797688761
% es.normE (V/m) @ t=0.5
1.3737904647416128
% es.EX (V/m) @ t=0.5
0.9542457996815668
% es.EY (V/m) @ t=0.5
0.14288750669615052
% es.EZ (V/m) @ t=0.5
-0.9528530861091853
% es.tEX (V/m) @ t=0.5
0.9542457996815656
% es.tEY (V/m) @ t=0.5
0
% es.tEZ (V/m) @ t=0.5
-0.9528530861091706
% es.Ex (V/m) @ t=0.5
0.9542457996815668
% es.Ey (V/m) @ t=0.5
0.14288750669615052
% es.Ez (V/m) @ t=0.5
-0.9528530861091853
% es.tEx (V/m) @ t=0.5
0.9542457996815656
% es.tEy (V/m) @ t=0.5
0
% es.tEz (V/m) @ t=0.5
-0.9528530861091706
% V (V) @ t=0.5
0.014711494470627005
% es.normE (V/m) @ t=0.52
1.3863784766277407
% es.EX (V/m) @ t=0.52
0.9629895349969619
% es.EY (V/m) @ t=0.52
0.14419677465594916
% es.EZ (V/m) @ t=0.52
-0.9615840583725483
% es.tEX (V/m) @ t=0.52
0.9629895349969639
% es.tEY (V/m) @ t=0.52
0
% es.tEZ (V/m) @ t=0.52
-0.9615840583725301
% es.Ex (V/m) @ t=0.52
0.9629895349969619
% es.Ey (V/m) @ t=0.52
0.14419677465594916
% es.Ez (V/m) @ t=0.52
-0.9615840583725483
% es.tEx (V/m) @ t=0.52
0.9629895349969639
% es.tEy (V/m) @ t=0.52
0
% es.tEz (V/m) @ t=0.52
-0.9615840583725301
% V (V) @ t=0.52
0.01484629587682155
% es.normE (V/m) @ t=0.54
1.3998273856488095
% es.EX (V/m) @ t=0.54
0.9723312545284053
% es.EY (V/m) @ t=0.54
0.1455955908151485
% es.EZ (V/m) @ t=0.54
-0.9709121435289165
% es.tEX (V/m) @ t=0.54
0.9723312545284091
% es.tEY (V/m) @ t=0.54
0
% es.tEZ (V/m) @ t=0.54
-0.9709121435288983
% es.Ex (V/m) @ t=0.54
0.9723312545284053
% es.Ey (V/m) @ t=0.54
0.1455955908151485
% es.Ez (V/m) @ t=0.54
-0.9709121435289165
% es.tEx (V/m) @ t=0.54
0.9723312545284091
% es.tEy (V/m) @ t=0.54
0
% es.tEz (V/m) @ t=0.54
-0.9709121435288983
% V (V) @ t=0.54
0.01499031608446536
% es.normE (V/m) @ t=0.56
1.4132762946698487
% es.EX (V/m) @ t=0.56
0.9816729740598433
% es.EY (V/m) @ t=0.56
0.14699440697435406
% es.EZ (V/m) @ t=0.56
-0.9802402286852563
% es.tEX (V/m) @ t=0.56
0.981672974059848
% es.tEY (V/m) @ t=0.56
0
% es.tEZ (V/m) @ t=0.56
-0.9802402286852381
% es.Ex (V/m) @ t=0.56
0.9816729740598433
% es.Ey (V/m) @ t=0.56
0.14699440697435406
% es.Ez (V/m) @ t=0.56
-0.9802402286852563
% es.tEx (V/m) @ t=0.56
0.981672974059848
% es.tEy (V/m) @ t=0.56
0
% es.tEz (V/m) @ t=0.56
-0.9802402286852381
% V (V) @ t=0.56
0.01513433629210917
% es.normE (V/m) @ t=0.58
1.4267252036909162
% es.EX (V/m) @ t=0.58
0.9910146935912831
% es.EY (V/m) @ t=0.58
0.14839322313354242
% es.EZ (V/m) @ t=0.58
-0.9895683138416334
% es.tEX (V/m) @ t=0.58
0.9910146935912887
% es.tEY (V/m) @ t=0.58
0
% es.tEZ (V/m) @ t=0.58
-0.9895683138416151
% es.Ex (V/m) @ t=0.58
0.9910146935912831
% es.Ey (V/m) @ t=0.58
0.14839322313354242
% es.Ez (V/m) @ t=0.58
-0.9895683138416334
% es.tEx (V/m) @ t=0.58
0.9910146935912887
% es.tEy (V/m) @ t=0.58
0
% es.tEz (V/m) @ t=0.58
-0.9895683138416151
% V (V) @ t=0.58
0.015278356499752984
% es.normE (V/m) @ t=0.6
1.44017411271196
% es.EX (V/m) @ t=0.6
1.0003564131227247
% es.EY (V/m) @ t=0.6
0.14979203929274354
% es.EZ (V/m) @ t=0.6
-0.9988963989979731
% es.tEX (V/m) @ t=0.6
1.0003564131227267
% es.tEY (V/m) @ t=0.6
0
% es.tEZ (V/m) @ t=0.6
-0.9988963989979549
% es.Ex (V/m) @ t=0.6
1.0003564131227247
% es.Ey (V/m) @ t=0.6
0.14979203929274354
% es.Ez (V/m) @ t=0.6
-0.9988963989979731
% es.tEx (V/m) @ t=0.6
1.0003564131227267
% es.tEy (V/m) @ t=0.6
0
% es.tEz (V/m) @ t=0.6
-0.9988963989979549
% V (V) @ t=0.6
0.015422376707396797
% es.normE (V/m) @ t=0.62
1.4536230217330268
% es.EX (V/m) @ t=0.62
1.0096981326541663
% es.EY (V/m) @ t=0.62
0.15119085545194078
% es.EZ (V/m) @ t=0.62
-1.0082244841543457
% es.tEX (V/m) @ t=0.62
1.0096981326541647
% es.tEY (V/m) @ t=0.62
0
% es.tEZ (V/m) @ t=0.62
-1.008224484154331
% es.Ex (V/m) @ t=0.62
1.0096981326541663
% es.Ey (V/m) @ t=0.62
0.15119085545194078
% es.Ez (V/m) @ t=0.62
-1.0082244841543457
% es.tEx (V/m) @ t=0.62
1.0096981326541647
% es.tEy (V/m) @ t=0.62
0
% es.tEz (V/m) @ t=0.62
-1.008224484154331
% V (V) @ t=0.62
0.015566396915040605
% es.normE (V/m) @ t=0.64
1.4670719307540723
% es.EX (V/m) @ t=0.64
1.0190398521855968
% es.EY (V/m) @ t=0.64
0.1525896716111403
% es.EZ (V/m) @ t=0.64
-1.0175525693106997
% es.tEX (V/m) @ t=0.64
1.0190398521855988
% es.tEY (V/m) @ t=0.64
0
% es.tEZ (V/m) @ t=0.64
-1.017552569310685
% es.Ex (V/m) @ t=0.64
1.0190398521855968
% es.Ey (V/m) @ t=0.64
0.1525896716111403
% es.Ez (V/m) @ t=0.64
-1.0175525693106997
% es.tEx (V/m) @ t=0.64
1.0190398521855988
% es.tEy (V/m) @ t=0.64
0
% es.tEz (V/m) @ t=0.64
-1.017552569310685
% V (V) @ t=0.64
0.01571041712268442
% es.normE (V/m) @ t=0.66
1.480520839775135
% es.EX (V/m) @ t=0.66
1.0283815717170353
% es.EY (V/m) @ t=0.66
0.15398848777033924
% es.EZ (V/m) @ t=0.66
-1.0268806544670688
% es.tEX (V/m) @ t=0.66
1.0283815717170435
% es.tEY (V/m) @ t=0.66
0
% es.tEZ (V/m) @ t=0.66
-1.026880654467047
% es.Ex (V/m) @ t=0.66
1.0283815717170353
% es.Ey (V/m) @ t=0.66
0.15398848777033924
% es.Ez (V/m) @ t=0.66
-1.0268806544670688
% es.tEx (V/m) @ t=0.66
1.0283815717170435
% es.tEy (V/m) @ t=0.66
0
% es.tEz (V/m) @ t=0.66
-1.026880654467047
% V (V) @ t=0.66
0.015854437330328233
% es.normE (V/m) @ t=0.68
1.4939697487961876
% es.EX (V/m) @ t=0.68
1.0377232912484695
% es.EY (V/m) @ t=0.68
0.1553873039295191
% es.EZ (V/m) @ t=0.68
-1.0362087396234299
% es.tEX (V/m) @ t=0.68
1.0377232912484753
% es.tEY (V/m) @ t=0.68
0
% es.tEZ (V/m) @ t=0.68
-1.036208739623408
% es.Ex (V/m) @ t=0.68
1.0377232912484695
% es.Ey (V/m) @ t=0.68
0.1553873039295191
% es.Ez (V/m) @ t=0.68
-1.0362087396234299
% es.tEx (V/m) @ t=0.68
1.0377232912484753
% es.tEy (V/m) @ t=0.68
0
% es.tEz (V/m) @ t=0.68
-1.036208739623408
% V (V) @ t=0.68
0.01599845753797204
% es.normE (V/m) @ t=0.7
1.507418657817234
% es.EX (V/m) @ t=0.7
1.0470650107799113
% es.EY (V/m) @ t=0.7
0.15678612008871984
% es.EZ (V/m) @ t=0.7
-1.0455368247797634
% es.tEX (V/m) @ t=0.7
1.0470650107799164
% es.tEY (V/m) @ t=0.7
0
% es.tEZ (V/m) @ t=0.7
-1.0455368247797416
% es.Ex (V/m) @ t=0.7
1.0470650107799113
% es.Ey (V/m) @ t=0.7
0.15678612008871984
% es.Ez (V/m) @ t=0.7
-1.0455368247797634
% es.tEx (V/m) @ t=0.7
1.0470650107799164
% es.tEy (V/m) @ t=0.7
0
% es.tEz (V/m) @ t=0.7
-1.0455368247797416
% V (V) @ t=0.7
0.016142477745615856
% es.normE (V/m) @ t=0.72
1.5208675668382887
% es.EX (V/m) @ t=0.72
1.0564067303113502
% es.EY (V/m) @ t=0.72
0.1581849362479223
% es.EZ (V/m) @ t=0.72
-1.0548649099361245
% es.tEX (V/m) @ t=0.72
1.056406730311355
% es.tEY (V/m) @ t=0.72
0
% es.tEZ (V/m) @ t=0.72
-1.0548649099361027
% es.Ex (V/m) @ t=0.72
1.0564067303113502
% es.Ey (V/m) @ t=0.72
0.1581849362479223
% es.Ez (V/m) @ t=0.72
-1.0548649099361245
% es.tEx (V/m) @ t=0.72
1.056406730311355
% es.tEy (V/m) @ t=0.72
0
% es.tEz (V/m) @ t=0.72
-1.0548649099361027
% V (V) @ t=0.72
0.016286497953259663
% es.normE (V/m) @ t=0.74
1.5343164758593386
% es.EX (V/m) @ t=0.74
1.0657484498427878
% es.EY (V/m) @ t=0.74
0.15958375240712835
% es.EZ (V/m) @ t=0.74
-1.0641929950924784
% es.tEX (V/m) @ t=0.74
1.0657484498427898
% es.tEY (V/m) @ t=0.74
0
% es.tEZ (V/m) @ t=0.74
-1.0641929950924567
% es.Ex (V/m) @ t=0.74
1.0657484498427878
% es.Ey (V/m) @ t=0.74
0.15958375240712835
% es.Ez (V/m) @ t=0.74
-1.0641929950924784
% es.tEx (V/m) @ t=0.74
1.0657484498427898
% es.tEy (V/m) @ t=0.74
0
% es.tEz (V/m) @ t=0.74
-1.0641929950924567
% V (V) @ t=0.74
0.016430518160903473
% es.normE (V/m) @ t=0.76
1.5477653848803827
% es.EX (V/m) @ t=0.76
1.0750901693742263
% es.EY (V/m) @ t=0.76
0.1609825685663135
% es.EZ (V/m) @ t=0.76
-1.0735210802488262
% es.tEX (V/m) @ t=0.76
1.0750901693742274
% es.tEY (V/m) @ t=0.76
0
% es.tEZ (V/m) @ t=0.76
-1.0735210802488044
% es.Ex (V/m) @ t=0.76
1.0750901693742263
% es.Ey (V/m) @ t=0.76
0.1609825685663135
% es.Ez (V/m) @ t=0.76
-1.0735210802488262
% es.tEx (V/m) @ t=0.76
1.0750901693742274
% es.tEy (V/m) @ t=0.76
0
% es.tEz (V/m) @ t=0.76
-1.0735210802488044
% V (V) @ t=0.76
0.016574538368547286
% es.normE (V/m) @ t=0.78
1.561985901989903
% es.EX (V/m) @ t=0.78
1.084967851483065
% es.EY (V/m) @ t=0.78
0.16246164883764985
% es.EZ (V/m) @ t=0.78
-1.0833843477590874
% es.tEX (V/m) @ t=0.78
1.0849678514830665
% es.tEY (V/m) @ t=0.78
0
% es.tEZ (V/m) @ t=0.78
-1.0833843477590728
% es.Ex (V/m) @ t=0.78
1.084967851483065
% es.Ey (V/m) @ t=0.78
0.16246164883764985
% es.Ez (V/m) @ t=0.78
-1.0833843477590874
% es.tEx (V/m) @ t=0.78
1.0849678514830665
% es.tEy (V/m) @ t=0.78
0
% es.tEz (V/m) @ t=0.78
-1.0833843477590728
% V (V) @ t=0.78
0.01672682108884327
% es.normE (V/m) @ t=0.8
1.5769158762613225
% es.EX (V/m) @ t=0.8
1.0953383258458034
% es.EY (V/m) @ t=0.8
0.16401452816587003
% es.EZ (V/m) @ t=0.8
-1.0937396901446443
% es.tEX (V/m) @ t=0.8
1.095338325845808
% es.tEY (V/m) @ t=0.8
0
% es.tEZ (V/m) @ t=0.8
-1.0937396901446226
% es.Ex (V/m) @ t=0.8
1.0953383258458034
% es.Ey (V/m) @ t=0.8
0.16401452816587003
% es.Ez (V/m) @ t=0.8
-1.0937396901446443
% es.tEx (V/m) @ t=0.8
1.095338325845808
% es.tEy (V/m) @ t=0.8
0
% es.tEz (V/m) @ t=0.8
-1.0937396901446226
% V (V) @ t=0.8
0.01688670079893761
% es.normE (V/m) @ t=0.82
1.591845850532747
% es.EX (V/m) @ t=0.82
1.1057088002085314
% es.EY (V/m) @ t=0.82
0.1655674074940791
% es.EZ (V/m) @ t=0.82
-1.1040950325302163
% es.tEX (V/m) @ t=0.82
1.1057088002085393
% es.tEY (V/m) @ t=0.82
0
% es.tEZ (V/m) @ t=0.82
-1.1040950325301946
% es.Ex (V/m) @ t=0.82
1.1057088002085314
% es.Ey (V/m) @ t=0.82
0.1655674074940791
% es.Ez (V/m) @ t=0.82
-1.1040950325302163
% es.tEx (V/m) @ t=0.82
1.1057088002085393
% es.tEy (V/m) @ t=0.82
0
% es.tEz (V/m) @ t=0.82
-1.1040950325301946
% V (V) @ t=0.82
0.017046580509031947
% es.normE (V/m) @ t=0.84
1.6067758248041701
% es.EX (V/m) @ t=0.84
1.116079274571281
% es.EY (V/m) @ t=0.84
0.1671202868223305
% es.EZ (V/m) @ t=0.84
-1.1144503749157608
% es.tEX (V/m) @ t=0.84
1.1160792745712826
% es.tEY (V/m) @ t=0.84
0
% es.tEZ (V/m) @ t=0.84
-1.1144503749157462
% es.Ex (V/m) @ t=0.84
1.116079274571281
% es.Ey (V/m) @ t=0.84
0.1671202868223305
% es.Ez (V/m) @ t=0.84
-1.1144503749157608
% es.tEx (V/m) @ t=0.84
1.1160792745712826
% es.tEy (V/m) @ t=0.84
0
% es.tEz (V/m) @ t=0.84
-1.1144503749157462
% V (V) @ t=0.84
0.017206460219126286
% es.normE (V/m) @ t=0.86
1.6217057990755972
% es.EX (V/m) @ t=0.86
1.1264497489340164
% es.EY (V/m) @ t=0.86
0.16867316615053424
% es.EZ (V/m) @ t=0.86
-1.1248057173013328
% es.tEX (V/m) @ t=0.86
1.1264497489340175
% es.tEY (V/m) @ t=0.86
0
% es.tEZ (V/m) @ t=0.86
-1.1248057173013182
% es.Ex (V/m) @ t=0.86
1.1264497489340164
% es.Ey (V/m) @ t=0.86
0.16867316615053424
% es.Ez (V/m) @ t=0.86
-1.1248057173013328
% es.tEx (V/m) @ t=0.86
1.1264497489340175
% es.tEy (V/m) @ t=0.86
0
% es.tEz (V/m) @ t=0.86
-1.1248057173013182
% V (V) @ t=0.86
0.017366339929220626
% es.normE (V/m) @ t=0.88
1.6366357733470311
% es.EX (V/m) @ t=0.88
1.1368202232967541
% es.EY (V/m) @ t=0.88
0.17022604547876113
% es.EZ (V/m) @ t=0.88
-1.1351610596869057
% es.tEX (V/m) @ t=0.88
1.136820223296755
% es.tEY (V/m) @ t=0.88
0
% es.tEZ (V/m) @ t=0.88
-1.1351610596868769
% es.Ex (V/m) @ t=0.88
1.1368202232967541
% es.Ey (V/m) @ t=0.88
0.17022604547876113
% es.Ez (V/m) @ t=0.88
-1.1351610596869057
% es.tEx (V/m) @ t=0.88
1.136820223296755
% es.tEy (V/m) @ t=0.88
0
% es.tEz (V/m) @ t=0.88
-1.1351610596868769
% V (V) @ t=0.88
0.01752621963931497
% es.normE (V/m) @ t=0.9
1.6515657476184558
% es.EX (V/m) @ t=0.9
1.1471906976594963
% es.EY (V/m) @ t=0.9
0.17177892480698442
% es.EZ (V/m) @ t=0.9
-1.1455164020724626
% es.tEX (V/m) @ t=0.9
1.147190697659501
% es.tEY (V/m) @ t=0.9
0
% es.tEZ (V/m) @ t=0.9
-1.145516402072448
% es.Ex (V/m) @ t=0.9
1.1471906976594963
% es.Ey (V/m) @ t=0.9
0.17177892480698442
% es.Ez (V/m) @ t=0.9
-1.1455164020724626
% es.tEx (V/m) @ t=0.9
1.147190697659501
% es.tEy (V/m) @ t=0.9
0
% es.tEz (V/m) @ t=0.9
-1.145516402072448
% V (V) @ t=0.9
0.01768609934940931
% es.normE (V/m) @ t=0.92
1.6664957218898608
% es.EX (V/m) @ t=0.92
1.1575611720222205
% es.EY (V/m) @ t=0.92
0.17333180413522548
% es.EZ (V/m) @ t=0.92
-1.1558717444580062
% es.tEX (V/m) @ t=0.92
1.1575611720222283
% es.tEY (V/m) @ t=0.92
0
% es.tEZ (V/m) @ t=0.92
-1.1558717444579916
% es.Ex (V/m) @ t=0.92
1.1575611720222205
% es.Ey (V/m) @ t=0.92
0.17333180413522548
% es.Ez (V/m) @ t=0.92
-1.1558717444580062
% es.tEx (V/m) @ t=0.92
1.1575611720222283
% es.tEy (V/m) @ t=0.92
0
% es.tEz (V/m) @ t=0.92
-1.1558717444579916
% V (V) @ t=0.92
0.01784597905950365
% es.normE (V/m) @ t=0.94
1.6814256961612981
% es.EX (V/m) @ t=0.94
1.1679316463849692
% es.EY (V/m) @ t=0.94
0.174884683463432
% es.EZ (V/m) @ t=0.94
-1.1662270868435791
% es.tEX (V/m) @ t=0.94
1.1679316463849694
% es.tEY (V/m) @ t=0.94
0
% es.tEZ (V/m) @ t=0.94
-1.1662270868435503
% es.Ex (V/m) @ t=0.94
1.1679316463849692
% es.Ey (V/m) @ t=0.94
0.174884683463432
% es.Ez (V/m) @ t=0.94
-1.1662270868435791
% es.tEx (V/m) @ t=0.94
1.1679316463849694
% es.tEy (V/m) @ t=0.94
0
% es.tEz (V/m) @ t=0.94
-1.1662270868435503
% V (V) @ t=0.94
0.018005858769597993
% es.normE (V/m) @ t=0.96
1.6963556704327187
% es.EX (V/m) @ t=0.96
1.1783021207477025
% es.EY (V/m) @ t=0.96
0.1764375627916393
% es.EZ (V/m) @ t=0.96
-1.176582429229136
% es.tEX (V/m) @ t=0.96
1.1783021207477065
% es.tEY (V/m) @ t=0.96
0
% es.tEZ (V/m) @ t=0.96
-1.1765824292291072
% es.Ex (V/m) @ t=0.96
1.1783021207477025
% es.Ey (V/m) @ t=0.96
0.1764375627916393
% es.Ez (V/m) @ t=0.96
-1.176582429229136
% es.tEx (V/m) @ t=0.96
1.1783021207477065
% es.tEy (V/m) @ t=0.96
0
% es.tEz (V/m) @ t=0.96
-1.1765824292291072
% V (V) @ t=0.96
0.018165738479692328
% es.normE (V/m) @ t=0.98
1.7112856447041267
% es.EX (V/m) @ t=0.98
1.1886725951104258
% es.EY (V/m) @ t=0.98
0.17799044211985687
% es.EZ (V/m) @ t=0.98
-1.1869377716146805
% es.tEX (V/m) @ t=0.98
1.1886725951104404
% es.tEY (V/m) @ t=0.98
0
% es.tEZ (V/m) @ t=0.98
-1.1869377716146658
% es.Ex (V/m) @ t=0.98
1.1886725951104258
% es.Ey (V/m) @ t=0.98
0.17799044211985687
% es.Ez (V/m) @ t=0.98
-1.1869377716146805
% es.tEx (V/m) @ t=0.98
1.1886725951104404
% es.tEy (V/m) @ t=0.98
0
% es.tEz (V/m) @ t=0.98
-1.1869377716146658
% V (V) @ t=0.98
0.01832561818978667
% es.normE (V/m) @ t=1
1.7262156189755715
% es.EX (V/m) @ t=1
1.1990430694731824
% es.EY (V/m) @ t=1
0.17954332144809748
% es.EZ (V/m) @ t=1
-1.1972931140002525
% es.tEX (V/m) @ t=1
1.1990430694731824
% es.tEY (V/m) @ t=1
0
% es.tEZ (V/m) @ t=1
-1.1972931140002379
% es.Ex (V/m) @ t=1
1.1990430694731824
% es.Ey (V/m) @ t=1
0.17954332144809748
% es.Ez (V/m) @ t=1
-1.1972931140002525
% es.tEx (V/m) @ t=1
1.1990430694731824
% es.tEy (V/m) @ t=1
0
% es.tEz (V/m) @ t=1
-1.1972931140002379
% V (V) @ t=1
0.018485497899881013
% es.normE (V/m) @ t=1.02
1.7411455932469955
% es.EX (V/m) @ t=1.02
1.2094135438359208
% es.EY (V/m) @ t=1.02
0.18109620077630922
% es.EZ (V/m) @ t=1.02
-1.2076484563858099
% es.tEX (V/m) @ t=1.02
1.2094135438359253
% es.tEY (V/m) @ t=1.02
0
% es.tEZ (V/m) @ t=1.02
-1.2076484563857806
% es.Ex (V/m) @ t=1.02
1.2094135438359208
% es.Ey (V/m) @ t=1.02
0.18109620077630922
% es.Ez (V/m) @ t=1.02
-1.2076484563858099
% es.tEx (V/m) @ t=1.02
1.2094135438359253
% es.tEy (V/m) @ t=1.02
0
% es.tEz (V/m) @ t=1.02
-1.2076484563857806
% V (V) @ t=1.02
0.018645377609975353
% es.normE (V/m) @ t=1.04
1.756576986234521
% es.EX (V/m) @ t=1.04
1.2201323087589677
% es.EY (V/m) @ t=1.04
0.18270122826943241
% es.EZ (V/m) @ t=1.04
-1.2183515801435343
% es.tEX (V/m) @ t=1.04
1.2201323087589753