% Model:              1 neuron.mph
% Version:            COMSOL 6.1.0.252
% Date:               Mar 22 2023, 19:37
% Dimension:          0
% Nodes:              14017
% Expressions:        14017
% Description:        Electric field norm, Electric field, X component, Electric field, Y component, Electric field, Z component, Tangential electric field, X component, Tangential electric field, Y component, Tangential electric field, Z component, Electric field, x component, Electric field, y component, Electric field, z component, Tangential electric field, x component, Tangential electric field, y component, Tangential electric field, z component, Electric potential
% Length unit:        mm
% x
1.0000000000000002
% y
12.2
% z
2
% es.normE (V/m) @ t=0
1.2724778395855052
% es.EX (V/m) @ t=0
0.8838728069444619
% es.EY (V/m) @ t=0
0.13235027756514312
% es.EZ (V/m) @ t=0
-0.8825835912495825
% es.tEX (V/m) @ t=0
0.883872806944463
% es.tEY (V/m) @ t=0
0
% es.tEZ (V/m) @ t=0
-0.8825835912495714
% es.Ex (V/m) @ t=0
0.8838728069444619
% es.Ey (V/m) @ t=0
0.13235027756514312
% es.Ez (V/m) @ t=0
-0.8825835912495825
% es.tEx (V/m) @ t=0
0.883872806944463
% es.tEy (V/m) @ t=0
0
% es.tEz (V/m) @ t=0
-0.8825835912495714
% V (V) @ t=0
0.013626557878942075
% es.normE (V/m) @ t=0.02
1.0990549963855585
% es.EX (V/m) @ t=0.02
0.7634119781200652
% es.EY (V/m) @ t=0.02
0.1143125872286812
% es.EZ (V/m) @ t=0.02
-0.7622984663910097
% es.tEX (V/m) @ t=0.02
0.7634119781200694
% es.tEY (V/m) @ t=0.02
0
% es.tEZ (V/m) @ t=0.02
-0.7622984663909991
% es.Ex (V/m) @ t=0.02
0.7634119781200652
% es.Ey (V/m) @ t=0.02
0.1143125872286812
% es.Ez (V/m) @ t=0.02
-0.7622984663910097
% es.tEx (V/m) @ t=0.02
0.7634119781200694
% es.tEy (V/m) @ t=0.02
0
% es.tEz (V/m) @ t=0.02
-0.7622984663909991
% V (V) @ t=0.02
0.011769428156703756
% es.normE (V/m) @ t=0.04
1.1091682553743047
% es.EX (V/m) @ t=0.04
0.7704367249116335
% es.EY (V/m) @ t=0.04
0.1153644662222072
% es.EZ (V/m) @ t=0.04
-0.7693129668574534
% es.tEX (V/m) @ t=0.04
0.7704367249116357
% es.tEY (V/m) @ t=0.04
0
% es.tEZ (V/m) @ t=0.04
-0.7693129668574423
% es.Ex (V/m) @ t=0.04
0.7704367249116335
% es.Ey (V/m) @ t=0.04
0.1153644662222072
% es.Ez (V/m) @ t=0.04
-0.7693129668574534
% es.tEx (V/m) @ t=0.04
0.7704367249116357
% es.tEy (V/m) @ t=0.04
0
% es.tEz (V/m) @ t=0.04
-0.7693129668574423
% V (V) @ t=0.04
0.011877727808657972
% es.normE (V/m) @ t=0.06
1.1193571774469904
% es.EX (V/m) @ t=0.06
0.7775140278860102
% es.EY (V/m) @ t=0.06
0.11642421445046025
% es.EZ (V/m) @ t=0.06
-0.7763799469499753
% es.tEX (V/m) @ t=0.06
0.7775140278860126
% es.tEY (V/m) @ t=0.06
0
% es.tEZ (V/m) @ t=0.06
-0.7763799469499642
% es.Ex (V/m) @ t=0.06
0.7775140278860102
% es.Ey (V/m) @ t=0.06
0.11642421445046025
% es.Ez (V/m) @ t=0.06
-0.7763799469499753
% es.tEx (V/m) @ t=0.06
0.7775140278860126
% es.tEy (V/m) @ t=0.06
0
% es.tEz (V/m) @ t=0.06
-0.7763799469499642
% V (V) @ t=0.06
0.011986837727520313
% es.normE (V/m) @ t=0.08
1.1297371670322318
% es.EX (V/m) @ t=0.08
0.7847240477754689
% es.EY (V/m) @ t=0.08
0.11750383595523717
% es.EZ (V/m) @ t=0.08
-0.7835794503283151
% es.tEX (V/m) @ t=0.08
0.784724047775466
% es.tEY (V/m) @ t=0.08
0
% es.tEZ (V/m) @ t=0.08
-0.7835794503283005
% es.Ex (V/m) @ t=0.08
0.7847240477754689
% es.Ey (V/m) @ t=0.08
0.11750383595523717
% es.Ez (V/m) @ t=0.08
-0.7835794503283151
% es.tEx (V/m) @ t=0.08
0.784724047775466
% es.tEy (V/m) @ t=0.08
0
% es.tEz (V/m) @ t=0.08
-0.7835794503283005
% V (V) @ t=0.08
0.012097993714975377
% es.normE (V/m) @ t=0.1
1.140175774706743
% es.EX (V/m) @ t=0.1
0.7919747842256459
% es.EY (V/m) @ t=0.1
0.11858955443319641
% es.EZ (V/m) @ t=0.1
-0.7908196108633461
% es.tEX (V/m) @ t=0.1
0.7919747842256477
% es.tEY (V/m) @ t=0.1
0
% es.tEZ (V/m) @ t=0.1
-0.7908196108633279
% es.Ex (V/m) @ t=0.1
0.7919747842256459
% es.Ey (V/m) @ t=0.1
0.11858955443319641
% es.Ez (V/m) @ t=0.1
-0.7908196108633461
% es.tEx (V/m) @ t=0.1
0.7919747842256477
% es.tEy (V/m) @ t=0.1
0
% es.tEz (V/m) @ t=0.1
-0.7908196108633279
% V (V) @ t=0.1
0.01220977742103016
% es.normE (V/m) @ t=0.12
1.1506143823812585
% es.EX (V/m) @ t=0.12
0.7992255206758201
% es.EY (V/m) @ t=0.12
0.1196752729111451
% es.EZ (V/m) @ t=0.12
-0.7980597713983881
% es.tEX (V/m) @ t=0.12
0.799225520675825
% es.tEY (V/m) @ t=0.12
0
% es.tEZ (V/m) @ t=0.12
-0.7980597713983775
% es.Ex (V/m) @ t=0.12
0.7992255206758201
% es.Ey (V/m) @ t=0.12
0.1196752729111451
% es.Ez (V/m) @ t=0.12
-0.7980597713983881
% es.tEx (V/m) @ t=0.12
0.799225520675825
% es.tEy (V/m) @ t=0.12
0
% es.tEz (V/m) @ t=0.12
-0.7980597713983775
% V (V) @ t=0.12
0.012321561127084942
% es.normE (V/m) @ t=0.14
1.1613373701995071
% es.EX (V/m) @ t=0.14
0.8066737897448741
% es.EY (V/m) @ t=0.14
0.12079056963245244
% es.EZ (V/m) @ t=0.14
-0.8054971764596721
% es.tEX (V/m) @ t=0.14
0.8066737897448784
% es.tEY (V/m) @ t=0.14
0
% es.tEZ (V/m) @ t=0.14
-0.8054971764596539
% es.Ex (V/m) @ t=0.14
0.8066737897448741
% es.Ey (V/m) @ t=0.14
0.12079056963245244
% es.Ez (V/m) @ t=0.14
-0.8054971764596721
% es.tEx (V/m) @ t=0.14
0.8066737897448784
% es.tEy (V/m) @ t=0.14
0
% es.tEz (V/m) @ t=0.14
-0.8054971764596539
% V (V) @ t=0.14
0.01243639017232744
% es.normE (V/m) @ t=0.16
1.1723026916764687
% es.EX (V/m) @ t=0.16
0.8142903856232906
% es.EY (V/m) @ t=0.16
0.12193107136225295
% es.EZ (V/m) @ t=0.16
-0.8131026628330971
% es.tEX (V/m) @ t=0.16
0.8142903856232961
% es.tEY (V/m) @ t=0.16
0
% es.tEZ (V/m) @ t=0.16
-0.813102662833086
% es.Ex (V/m) @ t=0.16
0.8142903856232906
% es.Ey (V/m) @ t=0.16
0.12193107136225295
% es.Ez (V/m) @ t=0.16
-0.8131026628330971
% es.tEx (V/m) @ t=0.16
0.8142903856232961
% es.tEy (V/m) @ t=0.16
0
% es.tEz (V/m) @ t=0.16
-0.813102662833086
% V (V) @ t=0.16
0.012553814293926855
% es.normE (V/m) @ t=0.18
1.1832680131534419
% es.EX (V/m) @ t=0.18
0.8219069815017219
% es.EY (V/m) @ t=0.18
0.12307157309205691
% es.EZ (V/m) @ t=0.18
-0.8207081492065291
% es.tEX (V/m) @ t=0.18
0.8219069815017215
% es.tEY (V/m) @ t=0.18
0
% es.tEZ (V/m) @ t=0.18
-0.8207081492065109
% es.Ex (V/m) @ t=0.18
0.8219069815017219
% es.Ey (V/m) @ t=0.18
0.12307157309205691
% es.Ez (V/m) @ t=0.18
-0.8207081492065291
% es.tEx (V/m) @ t=0.18
0.8219069815017215
% es.tEy (V/m) @ t=0.18
0
% es.tEz (V/m) @ t=0.18
-0.8207081492065109
% V (V) @ t=0.18
0.012671238415526268
% es.normE (V/m) @ t=0.2
1.1942333346304053
% es.EX (V/m) @ t=0.2
0.8295235773801422
% es.EY (V/m) @ t=0.2
0.12421207482184671
% es.EZ (V/m) @ t=0.2
-0.8283136355799576
% es.tEX (V/m) @ t=0.2
0.8295235773801446
% es.tEY (V/m) @ t=0.2
0
% es.tEZ (V/m) @ t=0.2
-0.828313635579943
% es.Ex (V/m) @ t=0.2
0.8295235773801422
% es.Ey (V/m) @ t=0.2
0.12421207482184671
% es.Ez (V/m) @ t=0.2
-0.8283136355799576
% es.tEx (V/m) @ t=0.2
0.8295235773801446
% es.tEy (V/m) @ t=0.2
0
% es.tEz (V/m) @ t=0.2
-0.828313635579943
% V (V) @ t=0.2
0.01278866253712568
% es.normE (V/m) @ t=0.22
1.2051986561073593
% es.EX (V/m) @ t=0.22
0.8371401732585648
% es.EY (V/m) @ t=0.22
0.12535257655165227
% es.EZ (V/m) @ t=0.22
-0.8359191219533719
% es.tEX (V/m) @ t=0.22
0.8371401732585704
% es.tEY (V/m) @ t=0.22
0
% es.tEZ (V/m) @ t=0.22
-0.8359191219533608
% es.Ex (V/m) @ t=0.22
0.8371401732585648
% es.Ey (V/m) @ t=0.22
0.12535257655165227
% es.Ez (V/m) @ t=0.22
-0.8359191219533719
% es.tEx (V/m) @ t=0.22
0.8371401732585704
% es.tEy (V/m) @ t=0.22
0
% es.tEz (V/m) @ t=0.22
-0.8359191219533608
% V (V) @ t=0.22
0.012906086658725089
% es.normE (V/m) @ t=0.24
1.2161639775843431
% es.EX (V/m) @ t=0.24
0.8447567691370015
% es.EY (V/m) @ t=0.24
0.12649307828143164
% es.EZ (V/m) @ t=0.24
-0.8435246083268111
% es.tEX (V/m) @ t=0.24
0.8447567691369993
% es.tEY (V/m) @ t=0.24
0
% es.tEZ (V/m) @ t=0.24
-0.8435246083267929
% es.Ex (V/m) @ t=0.24
0.8447567691370015
% es.Ey (V/m) @ t=0.24
0.12649307828143164
% es.Ez (V/m) @ t=0.24
-0.8435246083268111
% es.tEx (V/m) @ t=0.24
0.8447567691369993
% es.tEy (V/m) @ t=0.24
0
% es.tEz (V/m) @ t=0.24
-0.8435246083267929
% V (V) @ t=0.24
0.013023510780324503
% es.normE (V/m) @ t=0.26
1.2272343966602384
% es.EX (V/m) @ t=0.26
0.852446366508562
% es.EY (V/m) @ t=0.26
0.12764450819426715
% es.EZ (V/m) @ t=0.26
-0.8512029909529555
% es.tEX (V/m) @ t=0.26
0.8524463665085671
% es.tEY (V/m) @ t=0.26
0
% es.tEZ (V/m) @ t=0.26
-0.8512029909529444
% es.Ex (V/m) @ t=0.26
0.852446366508562
% es.Ey (V/m) @ t=0.26
0.12764450819426715
% es.Ez (V/m) @ t=0.26
-0.8512029909529555
% es.tEx (V/m) @ t=0.26
0.8524463665085671
% es.tEy (V/m) @ t=0.26
0
% es.tEz (V/m) @ t=0.26
-0.8512029909529444
% V (V) @ t=0.26
0.013142060443013547
% es.normE (V/m) @ t=0.28
1.2393769244430959
% es.EX (V/m) @ t=0.28
0.8608806577381458
% es.EY (V/m) @ t=0.28
0.12890741734447952
% es.EZ (V/m) @ t=0.28
-0.8596249938714071
% es.tEX (V/m) @ t=0.28
0.8608806577381469
% es.tEY (V/m) @ t=0.28
0
% es.tEZ (V/m) @ t=0.28
-0.859624993871396
% es.Ex (V/m) @ t=0.28
0.8608806577381458
% es.Ey (V/m) @ t=0.28
0.12890741734447952
% es.Ez (V/m) @ t=0.28
-0.8596249938714071
% es.tEx (V/m) @ t=0.28
0.8608806577381469
% es.tEy (V/m) @ t=0.28
0
% es.tEz (V/m) @ t=0.28
-0.859624993871396
% V (V) @ t=0.28
0.013272091837107581
% es.normE (V/m) @ t=0.3
1.2515194522259652
% es.EX (V/m) @ t=0.3
0.8693149489677354
% es.EY (V/m) @ t=0.3
0.1301703264946772
% es.EZ (V/m) @ t=0.3
-0.8680469967898614
% es.tEX (V/m) @ t=0.3
0.8693149489677405
% es.tEY (V/m) @ t=0.3
0
% es.tEZ (V/m) @ t=0.3
-0.8680469967898468
% es.Ex (V/m) @ t=0.3
0.8693149489677354
% es.Ey (V/m) @ t=0.3
0.1301703264946772
% es.Ez (V/m) @ t=0.3
-0.8680469967898614
% es.tEx (V/m) @ t=0.3
0.8693149489677405
% es.tEy (V/m) @ t=0.3
0
% es.tEz (V/m) @ t=0.3
-0.8680469967898468
% V (V) @ t=0.3
0.01340212323120162
% es.normE (V/m) @ t=0.32
1.2636619800088373
% es.EX (V/m) @ t=0.32
0.8777492401973268
% es.EY (V/m) @ t=0.32
0.1314332356448969
% es.EZ (V/m) @ t=0.32
-0.8764689997083241
% es.tEX (V/m) @ t=0.32
0.8777492401973248
% es.tEY (V/m) @ t=0.32
0
% es.tEZ (V/m) @ t=0.32
-0.8764689997083064
% es.Ex (V/m) @ t=0.32
0.8777492401973268
% es.Ey (V/m) @ t=0.32
0.1314332356448969
% es.Ez (V/m) @ t=0.32
-0.8764689997083241
% es.tEx (V/m) @ t=0.32
0.8777492401973248
% es.tEy (V/m) @ t=0.32
0
% es.tEz (V/m) @ t=0.32
-0.8764689997083064
% V (V) @ t=0.32
0.013532154625295655
% es.normE (V/m) @ t=0.34
1.275804507791706
% es.EX (V/m) @ t=0.34
0.8861835314269169
% es.EY (V/m) @ t=0.34
0.1326961447950996
% es.EZ (V/m) @ t=0.34
-0.8848910026267824
% es.tEX (V/m) @ t=0.34
0.8861835314269184
% es.tEY (V/m) @ t=0.34
0
% es.tEZ (V/m) @ t=0.34
-0.8848910026267713
% es.Ex (V/m) @ t=0.34
0.8861835314269169
% es.Ey (V/m) @ t=0.34
0.1326961447950996
% es.Ez (V/m) @ t=0.34
-0.8848910026267824
% es.tEx (V/m) @ t=0.34
0.8861835314269184
% es.tEy (V/m) @ t=0.34
0
% es.tEz (V/m) @ t=0.34
-0.8848910026267713
% V (V) @ t=0.34
0.013662186019389693
% es.normE (V/m) @ t=0.36
1.2879470355745635
% es.EX (V/m) @ t=0.36
0.8946178226564909
% es.EY (V/m) @ t=0.36
0.13395905394531293
% es.EZ (V/m) @ t=0.36
-0.893313005545231
% es.tEX (V/m) @ t=0.36
0.8946178226564907
% es.tEY (V/m) @ t=0.36
0
% es.tEZ (V/m) @ t=0.36
-0.8933130055452168
% es.Ex (V/m) @ t=0.36
0.8946178226564909
% es.Ey (V/m) @ t=0.36
0.13395905394531293
% es.Ez (V/m) @ t=0.36
-0.893313005545231
% es.tEx (V/m) @ t=0.36
0.8946178226564907
% es.tEy (V/m) @ t=0.36
0
% es.tEz (V/m) @ t=0.36
-0.8933130055452168
% V (V) @ t=0.36
0.01379221741348373
% es.normE (V/m) @ t=0.38
1.3000895633574496
% es.EX (V/m) @ t=0.38
0.903052113886085
% es.EY (V/m) @ t=0.38
0.13522196309550416
% es.EZ (V/m) @ t=0.38
-0.901735008463707
% es.tEX (V/m) @ t=0.38
0.9030521138860843
% es.tEY (V/m) @ t=0.38
0
% es.tEZ (V/m) @ t=0.38
-0.9017350084636888
% es.Ex (V/m) @ t=0.38
0.903052113886085
% es.Ey (V/m) @ t=0.38
0.13522196309550416
% es.Ez (V/m) @ t=0.38
-0.901735008463707
% es.tEx (V/m) @ t=0.38
0.9030521138860843
% es.tEy (V/m) @ t=0.38
0
% es.tEz (V/m) @ t=0.38
-0.9017350084636888
% V (V) @ t=0.38
0.013922248807577767
% es.normE (V/m) @ t=0.4
1.312232091140316
% es.EX (V/m) @ t=0.4
0.9114864051156657
% es.EY (V/m) @ t=0.4
0.1364848722457267
% es.EZ (V/m) @ t=0.4
-0.9101570113821578
% es.tEX (V/m) @ t=0.4
0.9114864051156655
% es.tEY (V/m) @ t=0.4
0
% es.tEZ (V/m) @ t=0.4
-0.9101570113821396
% es.Ex (V/m) @ t=0.4
0.9114864051156657
% es.Ey (V/m) @ t=0.4
0.1364848722457267
% es.Ez (V/m) @ t=0.4
-0.9101570113821578
% es.tEx (V/m) @ t=0.4
0.9114864051156655
% es.tEy (V/m) @ t=0.4
0
% es.tEz (V/m) @ t=0.4
-0.9101570113821396
% V (V) @ t=0.4
0.014052280201671805
% es.normE (V/m) @ t=0.42
1.324374618923201
% es.EX (V/m) @ t=0.42
0.9199206963452571
% es.EY (V/m) @ t=0.42
0.13774778139591776
% es.EZ (V/m) @ t=0.42
-0.9185790143006245
% es.tEX (V/m) @ t=0.42
0.9199206963452617
% es.tEY (V/m) @ t=0.42
0
% es.tEZ (V/m) @ t=0.42
-0.9185790143006063
% es.Ex (V/m) @ t=0.42
0.9199206963452571
% es.Ey (V/m) @ t=0.42
0.13774778139591776
% es.Ez (V/m) @ t=0.42
-0.9185790143006245
% es.tEx (V/m) @ t=0.42
0.9199206963452617
% es.tEy (V/m) @ t=0.42
0
% es.tEz (V/m) @ t=0.42
-0.9185790143006063
% V (V) @ t=0.42
0.014182311595765842
% es.normE (V/m) @ t=0.44
1.3365171467060608
% es.EX (V/m) @ t=0.44
0.9283549875748431
% es.EY (V/m) @ t=0.44
0.13901069054613918
% es.EZ (V/m) @ t=0.44
-0.9270010172190681
% es.tEX (V/m) @ t=0.44
0.9283549875748456
% es.tEY (V/m) @ t=0.44
0
% es.tEZ (V/m) @ t=0.44
-0.9270010172190499
% es.Ex (V/m) @ t=0.44
0.9283549875748431
% es.Ey (V/m) @ t=0.44
0.13901069054613918
% es.Ez (V/m) @ t=0.44
-0.9270010172190681
% es.tEx (V/m) @ t=0.44
0.9283549875748456
% es.tEy (V/m) @ t=0.44
0
% es.tEz (V/m) @ t=0.44
-0.9270010172190499
% V (V) @ t=0.44
0.014312342989859873
% es.normE (V/m) @ t=0.46
1.348659674488935
% es.EX (V/m) @ t=0.46
0.9367892788044279
% es.EY (V/m) @ t=0.46
0.1402735996963358
% es.EZ (V/m) @ t=0.46
-0.9354230201375198
% es.tEX (V/m) @ t=0.46
0.9367892788044325
% es.tEY (V/m) @ t=0.46
0
% es.tEZ (V/m) @ t=0.46
-0.9354230201375087
% es.Ex (V/m) @ t=0.46
0.9367892788044279
% es.Ey (V/m) @ t=0.46
0.1402735996963358
% es.Ez (V/m) @ t=0.46
-0.9354230201375198
% es.tEx (V/m) @ t=0.46
0.9367892788044325
% es.tEy (V/m) @ t=0.46
0
% es.tEz (V/m) @ t=0.46
-0.9354230201375087
% V (V) @ t=0.46
0.014442374383953913
% es.normE (V/m) @ t=0.48
1.3608022022718254
% es.EX (V/m) @ t=0.48
0.945223570034017
% es.EY (V/m) @ t=0.48
0.14153650884654922
% es.EZ (V/m) @ t=0.48
-0.9438450230559923
% es.tEX (V/m) @ t=0.48
0.9452235700340199
% es.tEY (V/m) @ t=0.48
0
% es.tEZ (V/m) @ t=0.48
-0.9438450230559745
% es.Ex (V/m) @ t=0.48
0.945223570034017
% es.Ey (V/m) @ t=0.48
0.14153650884654922
% es.Ez (V/m) @ t=0.48
-0.9438450230559923
% es.tEx (V/m) @ t=0.48
0.9452235700340199
% es.tEy (V/m) @ t=0.48
0
% es.tEz (V/m) @ t=0.48
-0.9438450230559745
% V (V) @ t=0.48
0.014572405778047953
% es.normE (V/m) @ t=0.5
1.372944730054702
% es.EX (V/m) @ t=0.5
0.9536578612636
% es.EY (V/m) @ t=0.5
0.1427994179967474
% es.EZ (V/m) @ t=0.5
-0.9522670259744515
% es.tEX (V/m) @ t=0.5
0.9536578612636055
% es.tEY (V/m) @ t=0.5
0
% es.tEZ (V/m) @ t=0.5
-0.9522670259744332
% es.Ex (V/m) @ t=0.5
0.9536578612636
% es.Ey (V/m) @ t=0.5
0.1427994179967474
% es.Ez (V/m) @ t=0.5
-0.9522670259744515
% es.tEx (V/m) @ t=0.5
0.9536578612636055
% es.tEy (V/m) @ t=0.5
0
% es.tEz (V/m) @ t=0.5
-0.9522670259744332
% V (V) @ t=0.5
0.014702437172141989
% es.normE (V/m) @ t=0.52
1.3853363496537492
% es.EX (V/m) @ t=0.52
0.9622651737901136
% es.EY (V/m) @ t=0.52
0.14408824238845058
% es.EZ (V/m) @ t=0.52
-0.9608617948800773
% es.tEX (V/m) @ t=0.52
0.9622651737901191
% es.tEY (V/m) @ t=0.52
0
% es.tEZ (V/m) @ t=0.52
-0.9608617948800662
% es.Ex (V/m) @ t=0.52
0.9622651737901136
% es.Ey (V/m) @ t=0.52
0.14408824238845058
% es.Ez (V/m) @ t=0.52
-0.9608617948800773
% es.tEx (V/m) @ t=0.52
0.9622651737901191
% es.tEy (V/m) @ t=0.52
0
% es.tEz (V/m) @ t=0.52
-0.9608617948800662
% V (V) @ t=0.52
0.014835135806288001
% es.normE (V/m) @ t=0.54
1.3988038097145399
% es.EX (V/m) @ t=0.54
0.9716197742638835
% es.EY (V/m) @ t=0.54
0.14548899605097787
% es.EZ (V/m) @ t=0.54
-0.9702027490368672
% es.tEX (V/m) @ t=0.54
0.9716197742638881
% es.tEY (V/m) @ t=0.54
0
% es.tEZ (V/m) @ t=0.54
-0.9702027490368561
% es.Ex (V/m) @ t=0.54
0.9716197742638835
% es.Ey (V/m) @ t=0.54
0.14548899605097787
% es.Ez (V/m) @ t=0.54
-0.9702027490368672
% es.tEx (V/m) @ t=0.54
0.9716197742638881
% es.tEy (V/m) @ t=0.54
0
% es.tEz (V/m) @ t=0.54
-0.9702027490368561
% V (V) @ t=0.54
0.014979354388433036
% es.normE (V/m) @ t=0.56
1.412271269775323
% es.EX (V/m) @ t=0.56
0.980974374737652
% es.EY (V/m) @ t=0.56
0.14688974971348578
% es.EZ (V/m) @ t=0.56
-0.97954370319365
% es.tEX (V/m) @ t=0.56
0.9809743747376634
% es.tEY (V/m) @ t=0.56
0
% es.tEZ (V/m) @ t=0.56
-0.9795437031936389
% es.Ex (V/m) @ t=0.56
0.980974374737652
% es.Ey (V/m) @ t=0.56
0.14688974971348578
% es.Ez (V/m) @ t=0.56
-0.97954370319365
% es.tEx (V/m) @ t=0.56
0.9809743747376634
% es.tEy (V/m) @ t=0.56
0
% es.tEz (V/m) @ t=0.56
-0.9795437031936389
% V (V) @ t=0.56
0.015123572970578076
% es.normE (V/m) @ t=0.58
1.4257387298361102
% es.EX (V/m) @ t=0.58
0.9903289752114384
% es.EY (V/m) @ t=0.58
0.14829050337601662
% es.EZ (V/m) @ t=0.58
-0.9888846573504124
% es.tEX (V/m) @ t=0.58
0.990328975211435
% es.tEY (V/m) @ t=0.58
0
% es.tEZ (V/m) @ t=0.58
-0.9888846573503942
% es.Ex (V/m) @ t=0.58
0.9903289752114384
% es.Ey (V/m) @ t=0.58
0.14829050337601662
% es.Ez (V/m) @ t=0.58
-0.9888846573504124
% es.tEx (V/m) @ t=0.58
0.990328975211435
% es.tEy (V/m) @ t=0.58
0
% es.tEz (V/m) @ t=0.58
-0.9888846573503942
% V (V) @ t=0.58
0.015267791552723118
% es.normE (V/m) @ t=0.6
1.4392061898969017
% es.EX (V/m) @ t=0.6
0.9996835756852043
% es.EY (V/m) @ t=0.6
0.14969125703856517
% es.EZ (V/m) @ t=0.6
-0.9982256115072023
% es.tEX (V/m) @ t=0.6
0.9996835756852134
% es.tEY (V/m) @ t=0.6
0
% es.tEZ (V/m) @ t=0.6
-0.9982256115071841
% es.Ex (V/m) @ t=0.6
0.9996835756852043
% es.Ey (V/m) @ t=0.6
0.14969125703856517
% es.Ez (V/m) @ t=0.6
-0.9982256115072023
% es.tEx (V/m) @ t=0.6
0.9996835756852134
% es.tEy (V/m) @ t=0.6
0
% es.tEz (V/m) @ t=0.6
-0.9982256115071841
% V (V) @ t=0.6
0.015412010134868159
% es.normE (V/m) @ t=0.62
1.4526736499576978
% es.EX (V/m) @ t=0.62
1.0090381761589844
% es.EY (V/m) @ t=0.62
0.1510920107010839
% es.EZ (V/m) @ t=0.62
-1.0075665656639914
% es.tEX (V/m) @ t=0.62
1.00903817615899
% es.tEY (V/m) @ t=0.62
0
% es.tEZ (V/m) @ t=0.62
-1.0075665656639803
% es.Ex (V/m) @ t=0.62
1.0090381761589844
% es.Ey (V/m) @ t=0.62
0.1510920107010839
% es.Ez (V/m) @ t=0.62
-1.0075665656639914
% es.tEx (V/m) @ t=0.62
1.00903817615899
% es.tEy (V/m) @ t=0.62
0
% es.tEz (V/m) @ t=0.62
-1.0075665656639803
% V (V) @ t=0.62
0.015556228717013194
% es.normE (V/m) @ t=0.64
1.4661411100184962
% es.EX (V/m) @ t=0.64
1.0183927766327605
% es.EY (V/m) @ t=0.64
0.15249276436361187
% es.EZ (V/m) @ t=0.64
-1.0169075198207858
% es.tEX (V/m) @ t=0.64
1.018392776632766
% es.tEY (V/m) @ t=0.64
0
% es.tEZ (V/m) @ t=0.64
-1.016907519820764
% es.Ex (V/m) @ t=0.64
1.0183927766327605
% es.Ey (V/m) @ t=0.64
0.15249276436361187
% es.Ez (V/m) @ t=0.64
-1.0169075198207858
% es.tEx (V/m) @ t=0.64
1.018392776632766
% es.tEy (V/m) @ t=0.64
0
% es.tEz (V/m) @ t=0.64
-1.016907519820764
% V (V) @ t=0.64
0.015700447299158232
% es.normE (V/m) @ t=0.66
1.4796085700792654
% es.EX (V/m) @ t=0.66
1.027747377106529
% es.EY (V/m) @ t=0.66
0.15389351802614304
% es.EZ (V/m) @ t=0.66
-1.0262484739775393
% es.tEX (V/m) @ t=0.66
1.0277473771065346
% es.tEY (V/m) @ t=0.66
0
% es.tEZ (V/m) @ t=0.66
-1.0262484739775175
% es.Ex (V/m) @ t=0.66
1.027747377106529
% es.Ey (V/m) @ t=0.66
0.15389351802614304
% es.Ez (V/m) @ t=0.66
-1.0262484739775393
% es.tEx (V/m) @ t=0.66
1.0277473771065346
% es.tEy (V/m) @ t=0.66
0
% es.tEz (V/m) @ t=0.66
-1.0262484739775175
% V (V) @ t=0.66
0.015844665881303267
% es.normE (V/m) @ t=0.68
1.493076030140096
% es.EX (V/m) @ t=0.68
1.037101977580307
% es.EY (V/m) @ t=0.68
0.15529427168868987
% es.EZ (V/m) @ t=0.68
-1.0355894281343727
% es.tEX (V/m) @ t=0.68
1.037101977580309
% es.tEY (V/m) @ t=0.68
0
% es.tEZ (V/m) @ t=0.68
-1.035589428134351
% es.Ex (V/m) @ t=0.68
1.037101977580307
% es.Ey (V/m) @ t=0.68
0.15529427168868987
% es.Ez (V/m) @ t=0.68
-1.0355894281343727
% es.tEx (V/m) @ t=0.68
1.037101977580309
% es.tEy (V/m) @ t=0.68
0
% es.tEz (V/m) @ t=0.68
-1.035589428134351
% V (V) @ t=0.68
0.01598888446344831
% es.normE (V/m) @ t=0.7
1.5065434902008747
% es.EX (V/m) @ t=0.7
1.0464565780540822
% es.EY (V/m) @ t=0.7
0.15669502535118518
% es.EZ (V/m) @ t=0.7
-1.0449303822911413
% es.tEX (V/m) @ t=0.7
1.0464565780540873
% es.tEY (V/m) @ t=0.7
0
% es.tEZ (V/m) @ t=0.7
-1.0449303822911196
% es.Ex (V/m) @ t=0.7
1.0464565780540822
% es.Ey (V/m) @ t=0.7
0.15669502535118518
% es.Ez (V/m) @ t=0.7
-1.0449303822911413
% es.tEx (V/m) @ t=0.7
1.0464565780540873
% es.tEy (V/m) @ t=0.7
0
% es.tEz (V/m) @ t=0.7
-1.0449303822911196
% V (V) @ t=0.7
0.016133103045593344
% es.normE (V/m) @ t=0.72
1.5200109502616688
% es.EX (V/m) @ t=0.72
1.0558111785278548
% es.EY (V/m) @ t=0.72
0.15809577901371813
% es.EZ (V/m) @ t=0.72
-1.0542713364479304
% es.tEX (V/m) @ t=0.72
1.0558111785278559
% es.tEY (V/m) @ t=0.72
0
% es.tEZ (V/m) @ t=0.72
-1.0542713364479086
% es.Ex (V/m) @ t=0.72
1.0558111785278548
% es.Ey (V/m) @ t=0.72
0.15809577901371813
% es.Ez (V/m) @ t=0.72
-1.0542713364479304
% es.tEx (V/m) @ t=0.72
1.0558111785278559
% es.tEy (V/m) @ t=0.72
0
% es.tEz (V/m) @ t=0.72
-1.0542713364479086
% V (V) @ t=0.72
0.016277321627738383
% es.normE (V/m) @ t=0.74
1.5334784103224415
% es.EX (V/m) @ t=0.74
1.0651657790016158
% es.EY (V/m) @ t=0.74
0.15949653267625252
% es.EZ (V/m) @ t=0.74
-1.0636122906046999
% es.tEX (V/m) @ t=0.74
1.065165779001625
% es.tEY (V/m) @ t=0.74
0
% es.tEZ (V/m) @ t=0.74
-1.063612290604678
% es.Ex (V/m) @ t=0.74
1.0651657790016158
% es.Ey (V/m) @ t=0.74
0.15949653267625252
% es.Ez (V/m) @ t=0.74
-1.0636122906046999
% es.tEx (V/m) @ t=0.74
1.065165779001625
% es.tEy (V/m) @ t=0.74
0
% es.tEz (V/m) @ t=0.74
-1.063612290604678
% V (V) @ t=0.74
0.016421540209883425
% es.normE (V/m) @ t=0.76
1.546945870383266
% es.EX (V/m) @ t=0.76
1.0745203794753948
% es.EY (V/m) @ t=0.76
0.1608972863387922
% es.EZ (V/m) @ t=0.76
-1.0729532447615253
% es.tEX (V/m) @ t=0.76
1.0745203794754001
% es.tEY (V/m) @ t=0.76
0
% es.tEZ (V/m) @ t=0.76
-1.0729532447615036
% es.Ex (V/m) @ t=0.76
1.0745203794753948
% es.Ey (V/m) @ t=0.76
0.1608972863387922
% es.Ez (V/m) @ t=0.76
-1.0729532447615253
% es.tEx (V/m) @ t=0.76
1.0745203794754001
% es.tEy (V/m) @ t=0.76
0
% es.tEz (V/m) @ t=0.76
-1.0729532447615036
% V (V) @ t=0.76
0.016565758792028464
% es.normE (V/m) @ t=0.78
1.5608416297265018
% es.EX (V/m) @ t=0.78
1.08417247978149
% es.EY (V/m) @ t=0.78
0.16234258268970198
% es.EZ (V/m) @ t=0.78
-1.0825912666542385
% es.tEX (V/m) @ t=0.78
1.0841724797814911
% es.tEY (V/m) @ t=0.78
0
% es.tEZ (V/m) @ t=0.78
-1.0825912666542097
% es.Ex (V/m) @ t=0.78
1.08417247978149
% es.Ey (V/m) @ t=0.78
0.16234258268970198
% es.Ez (V/m) @ t=0.78
-1.0825912666542385
% es.tEx (V/m) @ t=0.78
1.0841724797814911
% es.tEy (V/m) @ t=0.78
0
% es.tEz (V/m) @ t=0.78
-1.0825912666542097
% V (V) @ t=0.78
0.01671456402791879
% es.normE (V/m) @ t=0.8
1.5758028284132988
% es.EX (V/m) @ t=0.8
1.0945646420933504
% es.EY (V/m) @ t=0.8
0.16389868364534643
% es.EZ (V/m) @ t=0.8
-1.0929682756677592
% es.tEX (V/m) @ t=0.8
1.094564642093348
% es.tEY (V/m) @ t=0.8
0
% es.tEZ (V/m) @ t=0.8
-1.0929682756677375
% es.Ex (V/m) @ t=0.8
1.0945646420933504
% es.Ey (V/m) @ t=0.8
0.16389868364534643
% es.Ez (V/m) @ t=0.8
-1.0929682756677592
% es.tEx (V/m) @ t=0.8
1.094564642093348
% es.tEy (V/m) @ t=0.8
0
% es.tEz (V/m) @ t=0.8
-1.0929682756677375
% V (V) @ t=0.8
0.016874779045603618
% es.normE (V/m) @ t=0.82
1.590764027100093
% es.EX (V/m) @ t=0.82
1.1049568044052263
% es.EY (V/m) @ t=0.82
0.16545478460098068
% es.EZ (V/m) @ t=0.82
-1.1033452846812692
% es.tEX (V/m) @ t=0.82
1.1049568044052234
% es.tEY (V/m) @ t=0.82
0
% es.tEZ (V/m) @ t=0.82
-1.103345284681244
% es.Ex (V/m) @ t=0.82
1.1049568044052263
% es.Ey (V/m) @ t=0.82
0.16545478460098068
% es.Ez (V/m) @ t=0.82
-1.1033452846812692
% es.tEx (V/m) @ t=0.82
1.1049568044052234
% es.tEy (V/m) @ t=0.82
0
% es.tEz (V/m) @ t=0.82
-1.103345284681244
% V (V) @ t=0.82
0.017034994063288445
% es.normE (V/m) @ t=0.84
1.605725225786888
% es.EX (V/m) @ t=0.84
1.115348966717087
% es.EY (V/m) @ t=0.84
0.16701088555661858
% es.EZ (V/m) @ t=0.84
-1.1137222936947881
% es.tEX (V/m) @ t=0.84
1.1153489667170882
% es.tEY (V/m) @ t=0.84
0
% es.tEZ (V/m) @ t=0.84
-1.1137222936947664
% es.Ex (V/m) @ t=0.84
1.115348966717087
% es.Ey (V/m) @ t=0.84
0.16701088555661858
% es.Ez (V/m) @ t=0.84
-1.1137222936947881
% es.tEx (V/m) @ t=0.84
1.1153489667170882
% es.tEy (V/m) @ t=0.84
0
% es.tEz (V/m) @ t=0.84
-1.1137222936947664
% V (V) @ t=0.84
0.017195209080973273
% es.normE (V/m) @ t=0.86
1.6206864244736687
% es.EX (V/m) @ t=0.86
1.1257411290289476
% es.EY (V/m) @ t=0.86
0.16856698651224739
% es.EZ (V/m) @ t=0.86
-1.1240993027082928
% es.tEX (V/m) @ t=0.86
1.125741129028953
% es.tEY (V/m) @ t=0.86
0
% es.tEZ (V/m) @ t=0.86
-1.1240993027082782
% es.Ex (V/m) @ t=0.86
1.1257411290289476
% es.Ey (V/m) @ t=0.86
0.16856698651224739
% es.Ez (V/m) @ t=0.86
-1.1240993027082928
% es.tEx (V/m) @ t=0.86
1.125741129028953
% es.tEy (V/m) @ t=0.86
0
% es.tEz (V/m) @ t=0.86
-1.1240993027082782
% V (V) @ t=0.86
0.017355424098658104
% es.normE (V/m) @ t=0.88
1.6356476231604817
% es.EX (V/m) @ t=0.88
1.1361332913408184
% es.EY (V/m) @ t=0.88
0.17012308746786697
% es.EZ (V/m) @ t=0.88
-1.1344763117218348
% es.tEX (V/m) @ t=0.88
1.1361332913408262
% es.tEY (V/m) @ t=0.88
0
% es.tEZ (V/m) @ t=0.88
-1.1344763117217989
% es.Ex (V/m) @ t=0.88
1.1361332913408184
% es.Ey (V/m) @ t=0.88
0.17012308746786697
% es.Ez (V/m) @ t=0.88
-1.1344763117218348
% es.tEx (V/m) @ t=0.88
1.1361332913408262
% es.tEy (V/m) @ t=0.88
0
% es.tEz (V/m) @ t=0.88
-1.1344763117217989
% V (V) @ t=0.88
0.01751563911634293
% es.normE (V/m) @ t=0.9
1.6506088218472965
% es.EX (V/m) @ t=0.9
1.1465254536526925
% es.EY (V/m) @ t=0.9
0.1716791884235182
% es.EZ (V/m) @ t=0.9
-1.1448533207353644
% es.tEX (V/m) @ t=0.9
1.1465254536526968
% es.tEY (V/m) @ t=0.9
0
% es.tEZ (V/m) @ t=0.9
-1.1448533207353355
% es.Ex (V/m) @ t=0.9
1.1465254536526925
% es.Ey (V/m) @ t=0.9
0.1716791884235182
% es.Ez (V/m) @ t=0.9
-1.1448533207353644
% es.tEx (V/m) @ t=0.9
1.1465254536526968
% es.tEy (V/m) @ t=0.9
0
% es.tEz (V/m) @ t=0.9
-1.1448533207353355
% V (V) @ t=0.9
0.01767585413402776
% es.normE (V/m) @ t=0.92
1.6655700205340724
% es.EX (V/m) @ t=0.92
1.1569176159645547
% es.EY (V/m) @ t=0.92
0.1732352893791479
% es.EZ (V/m) @ t=0.92
-1.1552303297488624
% es.tEX (V/m) @ t=0.92
1.1569176159645584
% es.tEY (V/m) @ t=0.92
0
% es.tEZ (V/m) @ t=0.92
-1.1552303297488402
% es.Ex (V/m) @ t=0.92
1.1569176159645547
% es.Ey (V/m) @ t=0.92
0.1732352893791479
% es.Ez (V/m) @ t=0.92
-1.1552303297488624
% es.tEx (V/m) @ t=0.92
1.1569176159645584
% es.tEy (V/m) @ t=0.92
0
% es.tEz (V/m) @ t=0.92
-1.1552303297488402
% V (V) @ t=0.92
0.017836069151712586
% es.normE (V/m) @ t=0.94
1.6805312192208812
% es.EX (V/m) @ t=0.94
1.1673097782764288
% es.EY (V/m) @ t=0.94
0.1747913903347657
% es.EZ (V/m) @ t=0.94
-1.1656073387623906
% es.tEX (V/m) @ t=0.94
1.167309778276433
% es.tEY (V/m) @ t=0.94
0
% es.tEZ (V/m) @ t=0.94
-1.165607338762376
% es.Ex (V/m) @ t=0.94
1.1673097782764288
% es.Ey (V/m) @ t=0.94
0.1747913903347657
% es.Ez (V/m) @ t=0.94
-1.1656073387623906
% es.tEx (V/m) @ t=0.94
1.167309778276433
% es.tEy (V/m) @ t=0.94
0
% es.tEz (V/m) @ t=0.94
-1.165607338762376
% V (V) @ t=0.94
0.017996284169397414
% es.normE (V/m) @ t=0.96
1.6954924179076707
% es.EX (V/m) @ t=0.96
1.177701940588285
% es.EY (V/m) @ t=0.96
0.17634749129039384
% es.EZ (V/m) @ t=0.96
-1.175984347775905
% es.tEX (V/m) @ t=0.96
1.1777019405882854
% es.tEY (V/m) @ t=0.96
0
% es.tEZ (V/m) @ t=0.96
-1.1759843477758833
% es.Ex (V/m) @ t=0.96
1.177701940588285
% es.Ey (V/m) @ t=0.96
0.17634749129039384
% es.Ez (V/m) @ t=0.96
-1.175984347775905
% es.tEx (V/m) @ t=0.96
1.1777019405882854
% es.tEy (V/m) @ t=0.96
0
% es.tEz (V/m) @ t=0.96
-1.1759843477758833
% V (V) @ t=0.96
0.018156499187082245
% es.normE (V/m) @ t=0.98
1.7104536165944808
% es.EX (V/m) @ t=0.98
1.1880941029001595
% es.EY (V/m) @ t=0.98
0.17790359224604274
% es.EZ (V/m) @ t=0.98
-1.1863613567894329
% es.tEX (V/m) @ t=0.98
1.188094102900167
% es.tEY (V/m) @ t=0.98
0
% es.tEZ (V/m) @ t=0.98
-1.186361356789404
% es.Ex (V/m) @ t=0.98
1.1880941029001595
% es.Ey (V/m) @ t=0.98
0.17790359224604274
% es.Ez (V/m) @ t=0.98
-1.1863613567894329
% es.tEx (V/m) @ t=0.98
1.188094102900167
% es.tEy (V/m) @ t=0.98
0
% es.tEz (V/m) @ t=0.98
-1.186361356789404
% V (V) @ t=0.98
0.018316714204767076
% es.normE (V/m) @ t=1
1.725414815281269
% es.EX (V/m) @ t=1
1.1984862652120287
% es.EY (V/m) @ t=1
0.17945969320166982
% es.EZ (V/m) @ t=1
-1.1967383658029456
% es.tEX (V/m) @ t=1
1.1984862652120292
% es.tEY (V/m) @ t=1
0
% es.tEZ (V/m) @ t=1
-1.1967383658029238
% es.Ex (V/m) @ t=1
1.1984862652120287
% es.Ey (V/m) @ t=1
0.17945969320166982
% es.Ez (V/m) @ t=1
-1.1967383658029456
% es.tEx (V/m) @ t=1
1.1984862652120292
% es.tEy (V/m) @ t=1
0
% es.tEz (V/m) @ t=1
-1.1967383658029238
% V (V) @ t=1
0.0184769292224519
% es.normE (V/m) @ t=1.02
1.7403760139680842
% es.EX (V/m) @ t=1.02
1.2088784275238953
% es.EY (V/m) @ t=1.02
0.18101579415731034
% es.EZ (V/m) @ t=1.02
-1.2071153748164818
% es.tEX (V/m) @ t=1.02
1.2088784275239028
% es.tEY (V/m) @ t=1.02
0
% es.tEZ (V/m) @ t=1.02
-1.2071153748164454
% es.Ex (V/m) @ t=1.02
1.2088784275238953
% es.Ey (V/m) @ t=1.02
0.18101579415731034
% es.Ez (V/m) @ t=1.02
-1.2071153748164818
% es.tEx (V/m) @ t=1.02
1.2088784275239028
% es.tEy (V/m) @ t=1.02
0
% es.tEz (V/m) @ t=1.02
-1.2071153748164454
% V (V) @ t=1.02
0.01863714424013673
% es.normE (V/m) @ t=1.04
1.7556107610827725
% es.EX (V/m) @ t=1.04
1.2194605988041949
% es.EY (V/m) @ t=1.04
0.18260035138155933
% es.EZ (V/m) @ t=1.04
-1.2176821137969402
% es.tEX (V/m) @ t=1.04
1.2194605988041989