% Model:              1 neuron.mph
% Version:            COMSOL 6.1.0.252
% Date:               Mar 22 2023, 19:25
% Dimension:          0
% Nodes:              14017
% Expressions:        14017
% Description:        Electric field norm, Electric field, X component, Electric field, Y component, Electric field, Z component, Tangential electric field, X component, Tangential electric field, Y component, Tangential electric field, Z component, Electric field, x component, Electric field, y component, Electric field, z component, Tangential electric field, x component, Tangential electric field, y component, Tangential electric field, z component, Electric potential
% Length unit:        mm
% x
1.66
% y
12.2
% z
1.33
% es.normE (V/m) @ t=0
13.847302873813947
% es.EX (V/m) @ t=0
-7.694121286359415
% es.EY (V/m) @ t=0
-0.8305136108854874
% es.EZ (V/m) @ t=0
10.302377815410171
% es.tEX (V/m) @ t=0
-7.694121286359435
% es.tEY (V/m) @ t=0
0
% es.tEZ (V/m) @ t=0
10.302377815410157
% es.Ex (V/m) @ t=0
-7.694121286359415
% es.Ey (V/m) @ t=0
-0.8305136108854874
% es.Ez (V/m) @ t=0
10.302377815410171
% es.tEx (V/m) @ t=0
-7.694121286359435
% es.tEy (V/m) @ t=0
0
% es.tEz (V/m) @ t=0
10.302377815410157
% V (V) @ t=0
0.01137230571127638
% es.normE (V/m) @ t=0.02
11.960032464598713
% es.EX (V/m) @ t=0.02
-6.645477580785345
% es.EY (V/m) @ t=0.02
-0.7173215918372602
% es.EZ (V/m) @ t=0.02
8.898250738632656
% es.tEX (V/m) @ t=0.02
-6.645477580785351
% es.tEY (V/m) @ t=0.02
0
% es.tEZ (V/m) @ t=0.02
8.898250738632642
% es.Ex (V/m) @ t=0.02
-6.645477580785345
% es.Ey (V/m) @ t=0.02
-0.7173215918372602
% es.Ez (V/m) @ t=0.02
8.898250738632656
% es.tEx (V/m) @ t=0.02
-6.645477580785351
% es.tEy (V/m) @ t=0.02
0
% es.tEz (V/m) @ t=0.02
8.898250738632642
% V (V) @ t=0.02
0.009822356443283619
% es.normE (V/m) @ t=0.04
12.070035516872402
% es.EX (V/m) @ t=0.04
-6.706599721944765
% es.EY (V/m) @ t=0.04
-0.7239191978670767
% es.EZ (V/m) @ t=0.04
8.980092886990601
% es.tEX (V/m) @ t=0.04
-6.706599721944778
% es.tEY (V/m) @ t=0.04
0
% es.tEZ (V/m) @ t=0.04
8.98009288699059
% es.Ex (V/m) @ t=0.04
-6.706599721944765
% es.Ey (V/m) @ t=0.04
-0.7239191978670767
% es.Ez (V/m) @ t=0.04
8.980092886990601
% es.tEx (V/m) @ t=0.04
-6.706599721944778
% es.tEy (V/m) @ t=0.04
0
% es.tEz (V/m) @ t=0.04
8.98009288699059
% V (V) @ t=0.04
0.009912698107165644
% es.normE (V/m) @ t=0.06
12.18083793693164
% es.EX (V/m) @ t=0.06
-6.7681659771357765
% es.EY (V/m) @ t=0.06
-0.7305647913138065
% es.EZ (V/m) @ t=0.06
9.062529776383654
% es.tEX (V/m) @ t=0.06
-6.768165977135797
% es.tEY (V/m) @ t=0.06
0
% es.tEZ (V/m) @ t=0.06
9.062529776383643
% es.Ex (V/m) @ t=0.06
-6.7681659771357765
% es.Ey (V/m) @ t=0.06
-0.7305647913138065
% es.Ez (V/m) @ t=0.06
9.062529776383654
% es.tEx (V/m) @ t=0.06
-6.768165977135797
% es.tEy (V/m) @ t=0.06
0
% es.tEz (V/m) @ t=0.06
9.062529776383643
% V (V) @ t=0.06
0.010003696361322825
% es.normE (V/m) @ t=0.08
12.293769350741314
% es.EX (V/m) @ t=0.08
-6.830915137270534
% es.EY (V/m) @ t=0.08
-0.7373381221845519
% es.EZ (V/m) @ t=0.08
9.1465506473454
% es.tEX (V/m) @ t=0.08
-6.8309151372705355
% es.tEY (V/m) @ t=0.08
0
% es.tEZ (V/m) @ t=0.08
9.146550647345382
% es.Ex (V/m) @ t=0.08
-6.830915137270534
% es.Ey (V/m) @ t=0.08
-0.7373381221845519
% es.Ez (V/m) @ t=0.08
9.1465506473454
% es.tEx (V/m) @ t=0.08
-6.8309151372705355
% es.tEy (V/m) @ t=0.08
0
% es.tEz (V/m) @ t=0.08
9.146550647345382
% V (V) @ t=0.08
0.010096443188479739
% es.normE (V/m) @ t=0.1
12.407268689766834
% es.EX (V/m) @ t=0.1
-6.89397984626276
% es.EY (V/m) @ t=0.1
-0.7441455279810159
% es.EZ (V/m) @ t=0.1
9.230994057393582
% es.tEX (V/m) @ t=0.1
-6.893979846262773
% es.tEY (V/m) @ t=0.1
0
% es.tEZ (V/m) @ t=0.1
9.230994057393579
% es.Ex (V/m) @ t=0.1
-6.89397984626276
% es.Ey (V/m) @ t=0.1
-0.7441455279810159
% es.Ez (V/m) @ t=0.1
9.230994057393582
% es.tEx (V/m) @ t=0.1
-6.893979846262773
% es.tEy (V/m) @ t=0.1
0
% es.tEz (V/m) @ t=0.1
9.230994057393579
% V (V) @ t=0.1
0.010189656460734591
% es.normE (V/m) @ t=0.12
12.520768028792395
% es.EX (V/m) @ t=0.12
-6.957044555254987
% es.EY (V/m) @ t=0.12
-0.7509529337775085
% es.EZ (V/m) @ t=0.12
9.315437467441816
% es.tEX (V/m) @ t=0.12
-6.957044555254999
% es.tEY (V/m) @ t=0.12
0
% es.tEZ (V/m) @ t=0.12
9.31543746744181
% es.Ex (V/m) @ t=0.12
-6.957044555254987
% es.Ey (V/m) @ t=0.12
-0.7509529337775085
% es.Ez (V/m) @ t=0.12
9.315437467441816
% es.tEx (V/m) @ t=0.12
-6.957044555254999
% es.tEy (V/m) @ t=0.12
0
% es.tEz (V/m) @ t=0.12
9.31543746744181
% V (V) @ t=0.12
0.010282869732989445
% es.normE (V/m) @ t=0.14
12.637593756124808
% es.EX (V/m) @ t=0.14
-7.0219582565727965
% es.EY (V/m) @ t=0.14
-0.757959172657602
% es.EZ (V/m) @ t=0.14
9.402355519635147
% es.tEX (V/m) @ t=0.14
-7.021958256572809
% es.tEY (V/m) @ t=0.14
0
% es.tEZ (V/m) @ t=0.14
9.402355519635137
% es.Ex (V/m) @ t=0.14
-7.0219582565727965
% es.Ey (V/m) @ t=0.14
-0.757959172657602
% es.Ez (V/m) @ t=0.14
9.402355519635147
% es.tEx (V/m) @ t=0.14
-7.021958256572809
% es.tEy (V/m) @ t=0.14
0
% es.tEz (V/m) @ t=0.14
9.402355519635137
% V (V) @ t=0.14
0.010378813365878847
% es.normE (V/m) @ t=0.16
12.75677833007246
% es.EX (V/m) @ t=0.16
-7.0881831365282455
% es.EY (V/m) @ t=0.16
-0.7651064103336087
% es.EZ (V/m) @ t=0.16
9.491028418439582
% es.tEX (V/m) @ t=0.16
-7.088183136528251
% es.tEY (V/m) @ t=0.16
0
% es.tEZ (V/m) @ t=0.16
9.491028418439573
% es.Ex (V/m) @ t=0.16
-7.0881831365282455
% es.Ey (V/m) @ t=0.16
-0.7651064103336087
% es.Ez (V/m) @ t=0.16
9.491028418439582
% es.tEx (V/m) @ t=0.16
-7.088183136528251
% es.tEy (V/m) @ t=0.16
0
% es.tEz (V/m) @ t=0.16
9.491028418439573
% V (V) @ t=0.16
0.010476693183406521
% es.normE (V/m) @ t=0.18
12.875962904020334
% es.EX (V/m) @ t=0.18
-7.15440801648368
% es.EY (V/m) @ t=0.18
-0.7722536480096567
% es.EZ (V/m) @ t=0.18
9.579701317244004
% es.tEX (V/m) @ t=0.18
-7.154408016483686
% es.tEY (V/m) @ t=0.18
0
% es.tEZ (V/m) @ t=0.18
9.579701317243996
% es.Ex (V/m) @ t=0.18
-7.15440801648368
% es.Ey (V/m) @ t=0.18
-0.7722536480096567
% es.Ez (V/m) @ t=0.18
9.579701317244004
% es.tEx (V/m) @ t=0.18
-7.154408016483686
% es.tEy (V/m) @ t=0.18
0
% es.tEz (V/m) @ t=0.18
9.579701317243996
% V (V) @ t=0.18
0.010574573000934196
% es.normE (V/m) @ t=0.2
12.995147477968466
% es.EX (V/m) @ t=0.2
-7.220632896439122
% es.EY (V/m) @ t=0.2
-0.77940088568569
% es.EZ (V/m) @ t=0.2
9.668374216048461
% es.tEX (V/m) @ t=0.2
-7.220632896439129
% es.tEY (V/m) @ t=0.2
0
% es.tEZ (V/m) @ t=0.2
9.668374216048448
% es.Ex (V/m) @ t=0.2
-7.220632896439122
% es.Ey (V/m) @ t=0.2
-0.77940088568569
% es.Ez (V/m) @ t=0.2
9.668374216048461
% es.tEx (V/m) @ t=0.2
-7.220632896439129
% es.tEy (V/m) @ t=0.2
0
% es.tEz (V/m) @ t=0.2
9.668374216048448
% V (V) @ t=0.2
0.010672452818461868
% es.normE (V/m) @ t=0.22
13.114332051916794
% es.EX (V/m) @ t=0.22
-7.286857776394557
% es.EY (V/m) @ t=0.22
-0.7865481233617433
% es.EZ (V/m) @ t=0.22
9.75704711485288
% es.tEX (V/m) @ t=0.22
-7.2868577763945765
% es.tEY (V/m) @ t=0.22
0
% es.tEZ (V/m) @ t=0.22
9.757047114852865
% es.Ex (V/m) @ t=0.22
-7.286857776394557
% es.Ey (V/m) @ t=0.22
-0.7865481233617433
% es.Ez (V/m) @ t=0.22
9.75704711485288
% es.tEx (V/m) @ t=0.22
-7.2868577763945765
% es.tEy (V/m) @ t=0.22
0
% es.tEz (V/m) @ t=0.22
9.757047114852865
% V (V) @ t=0.22
0.010770332635989545
% es.normE (V/m) @ t=0.24
13.233516625865352
% es.EX (V/m) @ t=0.24
-7.353082656350022
% es.EY (V/m) @ t=0.24
-0.7936953610377611
% es.EZ (V/m) @ t=0.24
9.845720013657314
% es.tEX (V/m) @ t=0.24
-7.353082656350034
% es.tEY (V/m) @ t=0.24
0
% es.tEZ (V/m) @ t=0.24
9.845720013657301
% es.Ex (V/m) @ t=0.24
-7.353082656350022
% es.Ey (V/m) @ t=0.24
-0.7936953610377611
% es.Ez (V/m) @ t=0.24
9.845720013657314
% es.tEx (V/m) @ t=0.24
-7.353082656350034
% es.tEy (V/m) @ t=0.24
0
% es.tEz (V/m) @ t=0.24
9.845720013657301
% V (V) @ t=0.24
0.010868212453517217
% es.normE (V/m) @ t=0.26
13.354938368442317
% es.EX (V/m) @ t=0.26
-7.420553429339682
% es.EY (V/m) @ t=0.26
-0.8009741241193877
% es.EZ (V/m) @ t=0.26
9.936056621495945
% es.tEX (V/m) @ t=0.26
-7.4205534293397015
% es.tEY (V/m) @ t=0.26
0
% es.tEZ (V/m) @ t=0.26
9.93605662149593
% es.Ex (V/m) @ t=0.26
-7.420553429339682
% es.Ey (V/m) @ t=0.26
-0.8009741241193877
% es.Ez (V/m) @ t=0.26
9.936056621495945
% es.tEx (V/m) @ t=0.26
-7.4205534293397015
% es.tEy (V/m) @ t=0.26
0
% es.tEz (V/m) @ t=0.26
9.93605662149593
% V (V) @ t=0.26
0.01096792371377448
% es.normE (V/m) @ t=0.28
13.486802181603501
% es.EX (V/m) @ t=0.28
-7.493839455949683
% es.EY (V/m) @ t=0.28
-0.8088667870863393
% es.EZ (V/m) @ t=0.28
10.034158655192485
% es.tEX (V/m) @ t=0.28
-7.49383945594969
% es.tEY (V/m) @ t=0.28
0
% es.tEZ (V/m) @ t=0.28
10.034158655192474
% es.Ex (V/m) @ t=0.28
-7.493839455949683
% es.Ey (V/m) @ t=0.28
-0.8088667870863393
% es.Ez (V/m) @ t=0.28
10.034158655192485
% es.tEx (V/m) @ t=0.28
-7.49383945594969
% es.tEy (V/m) @ t=0.28
0
% es.tEz (V/m) @ t=0.28
10.034158655192474
% V (V) @ t=0.28
0.01107618330335926
% es.normE (V/m) @ t=0.3
13.618665994817281
% es.EX (V/m) @ t=0.3
-7.567125482559652
% es.EY (V/m) @ t=0.3
-0.8167594500532935
% es.EZ (V/m) @ t=0.3
10.132260688889032
% es.tEX (V/m) @ t=0.3
-7.567125482559673
% es.tEY (V/m) @ t=0.3
0
% es.tEZ (V/m) @ t=0.3
10.13226068888902
% es.Ex (V/m) @ t=0.3
-7.567125482559652
% es.Ey (V/m) @ t=0.3
-0.8167594500532935
% es.Ez (V/m) @ t=0.3
10.132260688889032
% es.tEx (V/m) @ t=0.3
-7.567125482559673
% es.tEy (V/m) @ t=0.3
0
% es.tEz (V/m) @ t=0.3
10.13226068888902
% V (V) @ t=0.3
0.01118444289294404
% es.normE (V/m) @ t=0.32
13.75052980808217
% es.EX (V/m) @ t=0.32
-7.640411509169663
% es.EY (V/m) @ t=0.32
-0.8246521130202344
% es.EZ (V/m) @ t=0.32
10.23036272258556
% es.tEX (V/m) @ t=0.32
-7.640411509169663
% es.tEY (V/m) @ t=0.32
0
% es.tEZ (V/m) @ t=0.32
10.230362722585554
% es.Ex (V/m) @ t=0.32
-7.640411509169663
% es.Ey (V/m) @ t=0.32
-0.8246521130202344
% es.Ez (V/m) @ t=0.32
10.23036272258556
% es.tEx (V/m) @ t=0.32
-7.640411509169663
% es.tEy (V/m) @ t=0.32
0
% es.tEz (V/m) @ t=0.32
10.230362722585554
% V (V) @ t=0.32
0.011292702482528817
% es.normE (V/m) @ t=0.34
13.882393621396705
% es.EX (V/m) @ t=0.34
-7.713697535779646
% es.EY (V/m) @ t=0.34
-0.8325447759871891
% es.EZ (V/m) @ t=0.34
10.328464756282102
% es.tEX (V/m) @ t=0.34
-7.713697535779666
% es.tEY (V/m) @ t=0.34
0
% es.tEZ (V/m) @ t=0.34
10.32846475628209
% es.Ex (V/m) @ t=0.34
-7.713697535779646
% es.Ey (V/m) @ t=0.34
-0.8325447759871891
% es.Ez (V/m) @ t=0.34
10.328464756282102
% es.tEx (V/m) @ t=0.34
-7.713697535779666
% es.tEy (V/m) @ t=0.34
0
% es.tEz (V/m) @ t=0.34
10.32846475628209
% V (V) @ t=0.34
0.011400962072113597
% es.normE (V/m) @ t=0.36
14.014257434759472
% es.EX (V/m) @ t=0.36
-7.786983562389642
% es.EY (V/m) @ t=0.36
-0.840437438954126
% es.EZ (V/m) @ t=0.36
10.426566789978615
% es.tEX (V/m) @ t=0.36
-7.78698356238964
% es.tEY (V/m) @ t=0.36
0
% es.tEZ (V/m) @ t=0.36
10.426566789978597
% es.Ex (V/m) @ t=0.36
-7.786983562389642
% es.Ey (V/m) @ t=0.36
-0.840437438954126
% es.Ez (V/m) @ t=0.36
10.426566789978615
% es.tEx (V/m) @ t=0.36
-7.78698356238964
% es.tEy (V/m) @ t=0.36
0
% es.tEz (V/m) @ t=0.36
10.426566789978597
% V (V) @ t=0.36
0.011509221661698377
% es.normE (V/m) @ t=0.38
14.146121248169162
% es.EX (V/m) @ t=0.38
-7.860269588999632
% es.EY (V/m) @ t=0.38
-0.8483301019211025
% es.EZ (V/m) @ t=0.38
10.524668823675151
% es.tEX (V/m) @ t=0.38
-7.860269588999637
% es.tEY (V/m) @ t=0.38
0
% es.tEZ (V/m) @ t=0.38
10.524668823675139
% es.Ex (V/m) @ t=0.38
-7.860269588999632
% es.Ey (V/m) @ t=0.38
-0.8483301019211025
% es.Ez (V/m) @ t=0.38
10.524668823675151
% es.tEx (V/m) @ t=0.38
-7.860269588999637
% es.tEy (V/m) @ t=0.38
0
% es.tEz (V/m) @ t=0.38
10.524668823675139
% V (V) @ t=0.38
0.011617481251283153
% es.normE (V/m) @ t=0.4
14.277985061624431
% es.EX (V/m) @ t=0.4
-7.933555615609613
% es.EY (V/m) @ t=0.4
-0.8562227648880465
% es.EZ (V/m) @ t=0.4
10.62277085737168
% es.tEX (V/m) @ t=0.4
-7.9335556156096345
% es.tEY (V/m) @ t=0.4
0
% es.tEZ (V/m) @ t=0.4
10.622770857371666
% es.Ex (V/m) @ t=0.4
-7.933555615609613
% es.Ey (V/m) @ t=0.4
-0.8562227648880465
% es.Ez (V/m) @ t=0.4
10.62277085737168
% es.tEx (V/m) @ t=0.4
-7.9335556156096345
% es.tEy (V/m) @ t=0.4
0
% es.tEz (V/m) @ t=0.4
10.622770857371666
% V (V) @ t=0.4
0.011725740840867931
% es.normE (V/m) @ t=0.42
14.409848875124066
% es.EX (V/m) @ t=0.42
-8.006841642219598
% es.EY (V/m) @ t=0.42
-0.8641154278550087
% es.EZ (V/m) @ t=0.42
10.720872891068222
% es.tEX (V/m) @ t=0.42
-8.006841642219603
% es.tEY (V/m) @ t=0.42
0
% es.tEZ (V/m) @ t=0.42
10.720872891068211
% es.Ex (V/m) @ t=0.42
-8.006841642219598
% es.Ey (V/m) @ t=0.42
-0.8641154278550087
% es.Ez (V/m) @ t=0.42
10.720872891068222
% es.tEx (V/m) @ t=0.42
-8.006841642219603
% es.tEy (V/m) @ t=0.42
0
% es.tEz (V/m) @ t=0.42
10.720872891068211
% V (V) @ t=0.42
0.01183400043045271
% es.normE (V/m) @ t=0.44
14.541712688666806
% es.EX (V/m) @ t=0.44
-8.080127668829594
% es.EY (V/m) @ t=0.44
-0.8720080908219492
% es.EZ (V/m) @ t=0.44
10.81897492476474
% es.tEX (V/m) @ t=0.44
-8.080127668829599
% es.tEY (V/m) @ t=0.44
0
% es.tEZ (V/m) @ t=0.44
10.818974924764728
% es.Ex (V/m) @ t=0.44
-8.080127668829594
% es.Ey (V/m) @ t=0.44
-0.8720080908219492
% es.Ez (V/m) @ t=0.44
10.81897492476474
% es.tEx (V/m) @ t=0.44
-8.080127668829599
% es.tEy (V/m) @ t=0.44
0
% es.tEz (V/m) @ t=0.44
10.818974924764728
% V (V) @ t=0.44
0.011942260020037489
% es.normE (V/m) @ t=0.46
14.673576502251539
% es.EX (V/m) @ t=0.46
-8.153413695439582
% es.EY (V/m) @ t=0.46
-0.8799007537889358
% es.EZ (V/m) @ t=0.46
10.917076958461255
% es.tEX (V/m) @ t=0.46
-8.153413695439594
% es.tEY (V/m) @ t=0.46
0
% es.tEZ (V/m) @ t=0.46
10.917076958461248
% es.Ex (V/m) @ t=0.46
-8.153413695439582
% es.Ey (V/m) @ t=0.46
-0.8799007537889358
% es.Ez (V/m) @ t=0.46
10.917076958461255
% es.tEx (V/m) @ t=0.46
-8.153413695439594
% es.tEy (V/m) @ t=0.46
0
% es.tEz (V/m) @ t=0.46
10.917076958461248
% V (V) @ t=0.46
0.01205051960962227
% es.normE (V/m) @ t=0.48
14.80544031587715
% es.EX (V/m) @ t=0.48
-8.226699722049565
% es.EY (V/m) @ t=0.48
-0.887793416755859
% es.EZ (V/m) @ t=0.48
11.015178992157821
% es.tEX (V/m) @ t=0.48
-8.22669972204957
% es.tEY (V/m) @ t=0.48
0
% es.tEZ (V/m) @ t=0.48
11.015178992157804
% es.Ex (V/m) @ t=0.48
-8.226699722049565
% es.Ey (V/m) @ t=0.48
-0.887793416755859
% es.Ez (V/m) @ t=0.48
11.015178992157821
% es.tEx (V/m) @ t=0.48
-8.22669972204957
% es.tEy (V/m) @ t=0.48
0
% es.tEz (V/m) @ t=0.48
11.015178992157804
% V (V) @ t=0.48
0.012158779199207048
% es.normE (V/m) @ t=0.5
14.937304129542527
% es.EX (V/m) @ t=0.5
-8.29998574865954
% es.EY (V/m) @ t=0.5
-0.8956860797228208
% es.EZ (V/m) @ t=0.5
11.113281025854373
% es.tEX (V/m) @ t=0.5
-8.299985748659552
% es.tEY (V/m) @ t=0.5
0
% es.tEZ (V/m) @ t=0.5
11.113281025854349
% es.Ex (V/m) @ t=0.5
-8.29998574865954
% es.Ey (V/m) @ t=0.5
-0.8956860797228208
% es.Ez (V/m) @ t=0.5
11.113281025854373
% es.tEx (V/m) @ t=0.5
-8.299985748659552
% es.tEy (V/m) @ t=0.5
0
% es.tEz (V/m) @ t=0.5
11.113281025854349
% V (V) @ t=0.5
0.012267038788791826
% es.normE (V/m) @ t=0.52
15.074301275494335
% es.EX (V/m) @ t=0.52
-8.376120233932904
% es.EY (V/m) @ t=0.52
-0.9038902117463836
% es.EZ (V/m) @ t=0.52
11.215203253732088
% es.tEX (V/m) @ t=0.52
-8.37612023393293
% es.tEY (V/m) @ t=0.52
0
% es.tEZ (V/m) @ t=0.52
11.215203253732074
% es.Ex (V/m) @ t=0.52
-8.376120233932904
% es.Ey (V/m) @ t=0.52
-0.9038902117463836
% es.Ez (V/m) @ t=0.52
11.215203253732088
% es.tEx (V/m) @ t=0.52
-8.37612023393293
% es.tEy (V/m) @ t=0.52
0
% es.tEz (V/m) @ t=0.52
11.215203253732074
% V (V) @ t=0.52
0.012379522140856544
% es.normE (V/m) @ t=0.54
15.220458278507195
% es.EX (V/m) @ t=0.54
-8.45733747498766
% es.EY (V/m) @ t=0.54
-0.9126501254523265
% es.EZ (V/m) @ t=0.54
11.323942190699002
% es.tEX (V/m) @ t=0.54
-8.457337474987673
% es.tEY (V/m) @ t=0.54
0
% es.tEZ (V/m) @ t=0.54
11.323942190698991
% es.Ex (V/m) @ t=0.54
-8.45733747498766
% es.Ey (V/m) @ t=0.54
-0.9126501254523265
% es.Ez (V/m) @ t=0.54
11.323942190699002
% es.tEx (V/m) @ t=0.54
-8.457337474987673
% es.tEy (V/m) @ t=0.54
0
% es.tEz (V/m) @ t=0.54
11.323942190698991
% V (V) @ t=0.54
0.012499542324485791
% es.normE (V/m) @ t=0.56
15.366615281523
% es.EX (V/m) @ t=0.56
-8.538554716042457
% es.EY (V/m) @ t=0.56
-0.9214100391582662
% es.EZ (V/m) @ t=0.56
11.432681127665916
% es.tEX (V/m) @ t=0.56
-8.538554716042476
% es.tEY (V/m) @ t=0.56
0
% es.tEZ (V/m) @ t=0.56
11.432681127665903
% es.Ex (V/m) @ t=0.56
-8.538554716042457
% es.Ey (V/m) @ t=0.56
-0.9214100391582662
% es.Ez (V/m) @ t=0.56
11.432681127665916
% es.tEx (V/m) @ t=0.56
-8.538554716042476
% es.tEy (V/m) @ t=0.56
0
% es.tEz (V/m) @ t=0.56
11.432681127665903
% V (V) @ t=0.56
0.012619562508115046
% es.normE (V/m) @ t=0.58
15.51277228454164
% es.EX (V/m) @ t=0.58
-8.619771957097223
% es.EY (V/m) @ t=0.58
-0.9301699528641985
% es.EZ (V/m) @ t=0.58
11.541420064632842
% es.tEX (V/m) @ t=0.58
-8.619771957097235
% es.tEY (V/m) @ t=0.58
0
% es.tEZ (V/m) @ t=0.58
11.541420064632833
% es.Ex (V/m) @ t=0.58
-8.619771957097223
% es.Ey (V/m) @ t=0.58
-0.9301699528641985
% es.Ez (V/m) @ t=0.58
11.541420064632842
% es.tEx (V/m) @ t=0.58
-8.619771957097235
% es.tEy (V/m) @ t=0.58
0
% es.tEz (V/m) @ t=0.58
11.541420064632833
% V (V) @ t=0.58
0.012739582691744295
% es.normE (V/m) @ t=0.6
15.65892928756303
% es.EX (V/m) @ t=0.6
-8.700989198151987
% es.EY (V/m) @ t=0.6
-0.938929866570156
% es.EZ (V/m) @ t=0.6
11.650159001599746
% es.tEX (V/m) @ t=0.6
-8.700989198152
% es.tEY (V/m) @ t=0.6
0
% es.tEZ (V/m) @ t=0.6
11.65015900159974
% es.Ex (V/m) @ t=0.6
-8.700989198151987
% es.Ey (V/m) @ t=0.6
-0.938929866570156
% es.Ez (V/m) @ t=0.6
11.650159001599746
% es.tEx (V/m) @ t=0.6
-8.700989198152
% es.tEy (V/m) @ t=0.6
0
% es.tEz (V/m) @ t=0.6
11.65015900159974
% V (V) @ t=0.6
0.012859602875373547
% es.normE (V/m) @ t=0.62
15.805086290587123
% es.EX (V/m) @ t=0.62
-8.782206439206767
% es.EY (V/m) @ t=0.62
-0.947689780276074
% es.EZ (V/m) @ t=0.62
11.758897938566658
% es.tEX (V/m) @ t=0.62
-8.782206439206782
% es.tEY (V/m) @ t=0.62
0
% es.tEZ (V/m) @ t=0.62
11.758897938566648
% es.Ex (V/m) @ t=0.62
-8.782206439206767
% es.Ey (V/m) @ t=0.62
-0.947689780276074
% es.Ez (V/m) @ t=0.62
11.758897938566658
% es.tEx (V/m) @ t=0.62
-8.782206439206782
% es.tEy (V/m) @ t=0.62
0
% es.tEz (V/m) @ t=0.62
11.758897938566648
% V (V) @ t=0.62
0.0129796230590028
% es.normE (V/m) @ t=0.64
15.951243293613864
% es.EX (V/m) @ t=0.64
-8.863423680261555
% es.EY (V/m) @ t=0.64
-0.9564496939820417
% es.EZ (V/m) @ t=0.64
11.86763687553359
% es.tEX (V/m) @ t=0.64
-8.863423680261567
% es.tEY (V/m) @ t=0.64
0
% es.tEZ (V/m) @ t=0.64
11.867636875533574
% es.Ex (V/m) @ t=0.64
-8.863423680261555
% es.Ey (V/m) @ t=0.64
-0.9564496939820417
% es.Ez (V/m) @ t=0.64
11.86763687553359
% es.tEx (V/m) @ t=0.64
-8.863423680261567
% es.tEy (V/m) @ t=0.64
0
% es.tEz (V/m) @ t=0.64
11.867636875533574
% V (V) @ t=0.64
0.013099643242632051
% es.normE (V/m) @ t=0.66
16.097400296643084
% es.EX (V/m) @ t=0.66
-8.944640921316292
% es.EY (V/m) @ t=0.66
-0.9652096076879602
% es.EZ (V/m) @ t=0.66
11.976375812500503
% es.tEX (V/m) @ t=0.66
-8.944640921316319
% es.tEY (V/m) @ t=0.66
0
% es.tEZ (V/m) @ t=0.66
11.976375812500484
% es.Ex (V/m) @ t=0.66
-8.944640921316292
% es.Ey (V/m) @ t=0.66
-0.9652096076879602
% es.Ez (V/m) @ t=0.66
11.976375812500503
% es.tEx (V/m) @ t=0.66
-8.944640921316319
% es.tEy (V/m) @ t=0.66
0
% es.tEz (V/m) @ t=0.66
11.976375812500484
% V (V) @ t=0.66
0.013219663426261302
% es.normE (V/m) @ t=0.68
16.2435572996748
% es.EX (V/m) @ t=0.68
-9.0258581623711
% es.EY (V/m) @ t=0.68
-0.9739695213938817
% es.EZ (V/m) @ t=0.68
12.085114749467401
% es.tEX (V/m) @ t=0.68
-9.025858162371104
% es.tEY (V/m) @ t=0.68
0
% es.tEZ (V/m) @ t=0.68
12.08511474946739
% es.Ex (V/m) @ t=0.68
-9.0258581623711
% es.Ey (V/m) @ t=0.68
-0.9739695213938817
% es.Ez (V/m) @ t=0.68
12.085114749467401
% es.tEx (V/m) @ t=0.68
-9.025858162371104
% es.tEy (V/m) @ t=0.68
0
% es.tEz (V/m) @ t=0.68
12.08511474946739
% V (V) @ t=0.68
0.013339683609890556
% es.normE (V/m) @ t=0.7
16.389714302708946
% es.EX (V/m) @ t=0.7
-9.10707540342585
% es.EY (V/m) @ t=0.7
-0.9827294350998494
% es.EZ (V/m) @ t=0.7
12.193853686434334
% es.tEX (V/m) @ t=0.7
-9.107075403425869
% es.tEY (V/m) @ t=0.7
0
% es.tEZ (V/m) @ t=0.7
12.193853686434316
% es.Ex (V/m) @ t=0.7
-9.10707540342585
% es.Ey (V/m) @ t=0.7
-0.9827294350998494
% es.Ez (V/m) @ t=0.7
12.193853686434334
% es.tEx (V/m) @ t=0.7
-9.107075403425869
% es.tEy (V/m) @ t=0.7
0
% es.tEz (V/m) @ t=0.7
12.193853686434316
% V (V) @ t=0.7
0.013459703793519804
% es.normE (V/m) @ t=0.72
16.53587130574541
% es.EX (V/m) @ t=0.72
-9.188292644480624
% es.EY (V/m) @ t=0.72
-0.9914893488057785
% es.EZ (V/m) @ t=0.72
12.302592623401246
% es.tEX (V/m) @ t=0.72
-9.188292644480637
% es.tEY (V/m) @ t=0.72
0
% es.tEZ (V/m) @ t=0.72
12.302592623401228
% es.Ex (V/m) @ t=0.72
-9.188292644480624
% es.Ey (V/m) @ t=0.72
-0.9914893488057785
% es.Ez (V/m) @ t=0.72
12.302592623401246
% es.tEx (V/m) @ t=0.72
-9.188292644480637
% es.tEy (V/m) @ t=0.72
0
% es.tEz (V/m) @ t=0.72
12.302592623401228
% V (V) @ t=0.72
0.013579723977149058
% es.normE (V/m) @ t=0.74
16.6820283087842
% es.EX (V/m) @ t=0.74
-9.269509885535395
% es.EY (V/m) @ t=0.74
-1.0002492625117396
% es.EZ (V/m) @ t=0.74
12.411331560368183
% es.tEX (V/m) @ t=0.74
-9.269509885535408
% es.tEY (V/m) @ t=0.74
0
% es.tEZ (V/m) @ t=0.74
12.411331560368161
% es.Ex (V/m) @ t=0.74
-9.269509885535395
% es.Ey (V/m) @ t=0.74
-1.0002492625117396
% es.Ez (V/m) @ t=0.74
12.411331560368183
% es.tEx (V/m) @ t=0.74
-9.269509885535408
% es.tEy (V/m) @ t=0.74
0
% es.tEz (V/m) @ t=0.74
12.411331560368161
% V (V) @ t=0.74
0.013699744160778305
% es.normE (V/m) @ t=0.76
16.828185311825145
% es.EX (V/m) @ t=0.76
-9.350727126590169
% es.EY (V/m) @ t=0.76
-1.00900917621765
% es.EZ (V/m) @ t=0.76
12.520070497335062
% es.tEX (V/m) @ t=0.76
-9.350727126590181
% es.tEY (V/m) @ t=0.76
0
% es.tEZ (V/m) @ t=0.76
12.520070497335041
% es.Ex (V/m) @ t=0.76
-9.350727126590169
% es.Ey (V/m) @ t=0.76
-1.00900917621765
% es.Ez (V/m) @ t=0.76
12.520070497335062
% es.tEx (V/m) @ t=0.76
-9.350727126590181
% es.tEy (V/m) @ t=0.76
0
% es.tEz (V/m) @ t=0.76
12.520070497335041
% V (V) @ t=0.76
0.013819764344407558
% es.normE (V/m) @ t=0.78
16.983070026694115
% es.EX (V/m) @ t=0.78
-9.436785544207385
% es.EY (V/m) @ t=0.78
-1.018300311529313
% es.EZ (V/m) @ t=0.78
12.635305018250238
% es.tEX (V/m) @ t=0.78
-9.436785544207398
% es.tEY (V/m) @ t=0.78
0
% es.tEZ (V/m) @ t=0.78
12.635305018250227
% es.Ex (V/m) @ t=0.78
-9.436785544207385
% es.Ey (V/m) @ t=0.78
-1.018300311529313
% es.Ez (V/m) @ t=0.78
12.635305018250238
% es.tEx (V/m) @ t=0.78
-9.436785544207398
% es.tEy (V/m) @ t=0.78
0
% es.tEz (V/m) @ t=0.78
12.635305018250227
% V (V) @ t=0.78
0.013946969463426193
% es.normE (V/m) @ t=0.8
17.145334359326327
% es.EX (V/m) @ t=0.8
-9.526937363759892
% es.EY (V/m) @ t=0.8
-1.0280406152447084
% es.EZ (V/m) @ t=0.8
12.756031806501909
% es.tEX (V/m) @ t=0.8
-9.526937363759897
% es.tEY (V/m) @ t=0.8
0
% es.tEZ (V/m) @ t=0.8
12.75603180650189
% es.Ex (V/m) @ t=0.8
-9.526937363759892
% es.Ey (V/m) @ t=0.8
-1.0280406152447084
% es.Ez (V/m) @ t=0.8
12.756031806501909
% es.tEx (V/m) @ t=0.8
-9.526937363759897
% es.tEy (V/m) @ t=0.8
0
% es.tEz (V/m) @ t=0.8
12.75603180650189
% V (V) @ t=0.8
0.014080249723074005
% es.normE (V/m) @ t=0.82
17.30759869197808
% es.EX (V/m) @ t=0.82
-9.617089183312386
% es.EY (V/m) @ t=0.82
-1.037780918960057
% es.EZ (V/m) @ t=0.82
12.876758594753612
% es.tEX (V/m) @ t=0.82
-9.61708918331242
% es.tEY (V/m) @ t=0.82
0
% es.tEZ (V/m) @ t=0.82
12.876758594753587
% es.Ex (V/m) @ t=0.82
-9.617089183312386
% es.Ey (V/m) @ t=0.82
-1.037780918960057
% es.Ez (V/m) @ t=0.82
12.876758594753612
% es.tEx (V/m) @ t=0.82
-9.61708918331242
% es.tEy (V/m) @ t=0.82
0
% es.tEz (V/m) @ t=0.82
12.876758594753587
% V (V) @ t=0.82
0.01421352998272182
% es.normE (V/m) @ t=0.84
17.469863024648824
% es.EX (V/m) @ t=0.84
-9.707241002864889
% es.EY (V/m) @ t=0.84
-1.0475212226754915
% es.EZ (V/m) @ t=0.84
12.997485383005296
% es.tEX (V/m) @ t=0.84
-9.707241002864894
% es.tEY (V/m) @ t=0.84
0
% es.tEZ (V/m) @ t=0.84
12.997485383005289
% es.Ex (V/m) @ t=0.84
-9.707241002864889
% es.Ey (V/m) @ t=0.84
-1.0475212226754915
% es.Ez (V/m) @ t=0.84
12.997485383005296
% es.tEx (V/m) @ t=0.84
-9.707241002864894
% es.tEy (V/m) @ t=0.84
0
% es.tEz (V/m) @ t=0.84
12.997485383005289
% V (V) @ t=0.84
0.014346810242369635
% es.normE (V/m) @ t=0.86
17.632127357338057
% es.EX (V/m) @ t=0.86
-9.797392822417395
% es.EY (V/m) @ t=0.86
-1.057261526390937
% es.EZ (V/m) @ t=0.86
13.11821217125699
% es.tEX (V/m) @ t=0.86
-9.797392822417407
% es.tEY (V/m) @ t=0.86
0
% es.tEZ (V/m) @ t=0.86
13.11821217125697
% es.Ex (V/m) @ t=0.86
-9.797392822417395
% es.Ey (V/m) @ t=0.86
-1.057261526390937
% es.Ez (V/m) @ t=0.86
13.11821217125699
% es.tEx (V/m) @ t=0.86
-9.797392822417407
% es.tEy (V/m) @ t=0.86
0
% es.tEz (V/m) @ t=0.86
13.11821217125697
% V (V) @ t=0.86
0.01448009050201745
% es.normE (V/m) @ t=0.88
17.794391690045195
% es.EX (V/m) @ t=0.88
-9.887544641969866
% es.EY (V/m) @ t=0.88
-1.0670018301063213
% es.EZ (V/m) @ t=0.88
13.238938959508662
% es.tEX (V/m) @ t=0.88
-9.887544641969892
% es.tEY (V/m) @ t=0.88
0
% es.tEZ (V/m) @ t=0.88
13.238938959508662
% es.Ex (V/m) @ t=0.88
-9.887544641969866
% es.Ey (V/m) @ t=0.88
-1.0670018301063213
% es.Ez (V/m) @ t=0.88
13.238938959508662
% es.tEx (V/m) @ t=0.88
-9.887544641969892
% es.tEy (V/m) @ t=0.88
0
% es.tEz (V/m) @ t=0.88
13.238938959508662
% V (V) @ t=0.88
0.014613370761665264
% es.normE (V/m) @ t=0.9
17.956656022769877
% es.EX (V/m) @ t=0.9
-9.977696461522372
% es.EY (V/m) @ t=0.9
-1.0767421338217273
% es.EZ (V/m) @ t=0.9
13.359665747760403
% es.tEX (V/m) @ t=0.9
-9.977696461522385
% es.tEY (V/m) @ t=0.9
0
% es.tEZ (V/m) @ t=0.9
13.359665747760385
% es.Ex (V/m) @ t=0.9
-9.977696461522372
% es.Ey (V/m) @ t=0.9
-1.0767421338217273
% es.Ez (V/m) @ t=0.9
13.359665747760403
% es.tEx (V/m) @ t=0.9
-9.977696461522385
% es.tEy (V/m) @ t=0.9
0
% es.tEz (V/m) @ t=0.9
13.359665747760385
% V (V) @ t=0.9
0.01474665102131308
% es.normE (V/m) @ t=0.92
18.118920355511484
% es.EX (V/m) @ t=0.92
-10.067848281074845
% es.EY (V/m) @ t=0.92
-1.0864824375370938
% es.EZ (V/m) @ t=0.92
13.480392536012072
% es.tEX (V/m) @ t=0.92
-10.067848281074864
% es.tEY (V/m) @ t=0.92
0
% es.tEZ (V/m) @ t=0.92
13.480392536012051
% es.Ex (V/m) @ t=0.92
-10.067848281074845
% es.Ey (V/m) @ t=0.92
-1.0864824375370938
% es.Ez (V/m) @ t=0.92
13.480392536012072
% es.tEx (V/m) @ t=0.92
-10.067848281074864
% es.tEy (V/m) @ t=0.92
0
% es.tEz (V/m) @ t=0.92
13.480392536012051
% V (V) @ t=0.92
0.014879931280960892
% es.normE (V/m) @ t=0.94
18.281184688269697
% es.EX (V/m) @ t=0.94
-10.158000100627353
% es.EY (V/m) @ t=0.94
-1.096222741252518
% es.EZ (V/m) @ t=0.94
13.601119324263749
% es.tEX (V/m) @ t=0.94
-10.158000100627364
% es.tEY (V/m) @ t=0.94
0
% es.tEZ (V/m) @ t=0.94
13.601119324263731
% es.Ex (V/m) @ t=0.94
-10.158000100627353
% es.Ey (V/m) @ t=0.94
-1.096222741252518
% es.Ez (V/m) @ t=0.94
13.601119324263749
% es.tEx (V/m) @ t=0.94
-10.158000100627364
% es.tEy (V/m) @ t=0.94
0
% es.tEz (V/m) @ t=0.94
13.601119324263731
% V (V) @ t=0.94
0.015013211540608709
% es.normE (V/m) @ t=0.96
18.44344902104398
% es.EX (V/m) @ t=0.96
-10.24815192017984
% es.EY (V/m) @ t=0.96
-1.1059630449678952
% es.EZ (V/m) @ t=0.96
13.721846112515417
% es.tEX (V/m) @ t=0.96
-10.248151920179852
% es.tEY (V/m) @ t=0.96
0
% es.tEZ (V/m) @ t=0.96
13.72184611251539
% es.Ex (V/m) @ t=0.96
-10.24815192017984
% es.Ey (V/m) @ t=0.96
-1.1059630449678952
% es.Ez (V/m) @ t=0.96
13.721846112515417
% es.tEx (V/m) @ t=0.96
-10.248151920179852
% es.tEy (V/m) @ t=0.96
0
% es.tEz (V/m) @ t=0.96
13.72184611251539
% V (V) @ t=0.96
0.015146491800256522
% es.normE (V/m) @ t=0.98
18.60571335383399
% es.EX (V/m) @ t=0.98
-10.338303739732334
% es.EY (V/m) @ t=0.98
-1.115703348683319
% es.EZ (V/m) @ t=0.98
13.84257290076711
% es.tEX (V/m) @ t=0.98
-10.338303739732346
% es.tEY (V/m) @ t=0.98
0
% es.tEZ (V/m) @ t=0.98
13.842572900767092
% es.Ex (V/m) @ t=0.98
-10.338303739732334
% es.Ey (V/m) @ t=0.98
-1.115703348683319
% es.Ez (V/m) @ t=0.98
13.84257290076711
% es.tEx (V/m) @ t=0.98
-10.338303739732346
% es.tEy (V/m) @ t=0.98
0
% es.tEz (V/m) @ t=0.98
13.842572900767092
% V (V) @ t=0.98
0.015279772059904339
% es.normE (V/m) @ t=1
18.767977686639316
% es.EX (V/m) @ t=1
-10.42845555928487
% es.EY (V/m) @ t=1
-1.1254436523987144
% es.EZ (V/m) @ t=1
13.963299689018818
% es.tEX (V/m) @ t=1
-10.428455559284867
% es.tEY (V/m) @ t=1
0
% es.tEZ (V/m) @ t=1
13.963299689018807
% es.Ex (V/m) @ t=1
-10.42845555928487
% es.Ey (V/m) @ t=1
-1.1254436523987144
% es.Ez (V/m) @ t=1
13.963299689018818
% es.tEx (V/m) @ t=1
-10.428455559284867
% es.tEy (V/m) @ t=1
0
% es.tEz (V/m) @ t=1
13.963299689018807
% V (V) @ t=1
0.015413052319552152
% es.normE (V/m) @ t=1.02
18.9302420194595
% es.EX (V/m) @ t=1.02
-10.518607378837341
% es.EY (V/m) @ t=1.02
-1.1351839561141266
% es.EZ (V/m) @ t=1.02
14.084026477270507
% es.tEX (V/m) @ t=1.02
-10.518607378837354
% es.tEY (V/m) @ t=1.02
0
% es.tEZ (V/m) @ t=1.02
14.08402647727047
% es.Ex (V/m) @ t=1.02
-10.518607378837341
% es.Ey (V/m) @ t=1.02
-1.1351839561141266
% es.Ez (V/m) @ t=1.02
14.084026477270507
% es.tEx (V/m) @ t=1.02
-10.518607378837354
% es.tEy (V/m) @ t=1.02
0
% es.tEz (V/m) @ t=1.02
14.08402647727047
% V (V) @ t=1.02
0.015546332579199967
% es.normE (V/m) @ t=1.04
19.0981802670029
% es.EX (V/m) @ t=1.04
-10.611911736190649
% es.EY (V/m) @ t=1.04
-1.1452646715041617
% es.EZ (V/m) @ t=1.04
14.208974683508163
% es.tEX (V/m) @ t=1.04
-10.611911736190667
% es.tEY (V/m) @ t=1.04
0
% es.tEZ (V/m) @ t=1.04
14.208974683508142
% es.Ex (V/m) @ t=1.04
-10.611911736190649
% es.Ey (V/m) @ t=1.04
-1.1452646715041617
% es.Ez (V/m) @ t=1.04
14.208974683508163
% es.tEx (V/m) @ t=1.04
-10.611911736190667