% Model:              1 neuron.mph
% Version:            COMSOL 6.1.0.252
% Date:               Mar 22 2023, 19:12
% Dimension:          0
% Nodes:              14017
% Expressions:        14017
% Description:        Electric field norm, Electric field, X component, Electric field, Y component, Electric field, Z component, Tangential electric field, X component, Tangential electric field, Y component, Tangential electric field, Z component, Electric field, x component, Electric field, y component, Electric field, z component, Tangential electric field, x component, Tangential electric field, y component, Tangential electric field, z component, Electric potential
% Length unit:        mm
% x
1
% y
12.2
% z
1
% es.normE (V/m) @ t=0
1.4417073405892316
% es.EX (V/m) @ t=0
0.978936966793647
% es.EY (V/m) @ t=0
0.278031229211539
% es.EZ (V/m) @ t=0
0.9946456067123624
% es.tEX (V/m) @ t=0
0.9789369667936256
% es.tEY (V/m) @ t=0
0
% es.tEZ (V/m) @ t=0
0.9946456067123464
% es.Ex (V/m) @ t=0
0.978936966793647
% es.Ey (V/m) @ t=0
0.278031229211539
% es.Ez (V/m) @ t=0
0.9946456067123624
% es.tEx (V/m) @ t=0
0.9789369667936256
% es.tEy (V/m) @ t=0
0
% es.tEz (V/m) @ t=0
0.9946456067123464
% V (V) @ t=0
0.013519276202318917
% es.normE (V/m) @ t=0.02
1.2452154194559844
% es.EX (V/m) @ t=0.02
0.8455165423659459
% es.EY (V/m) @ t=0.02
0.2401380391372303
% es.EZ (V/m) @ t=0.02
0.8590842340034346
% es.tEX (V/m) @ t=0.02
0.8455165423659423
% es.tEY (V/m) @ t=0.02
0
% es.tEZ (V/m) @ t=0.02
0.8590842340034186
% es.Ex (V/m) @ t=0.02
0.8455165423659459
% es.Ey (V/m) @ t=0.02
0.2401380391372303
% es.Ez (V/m) @ t=0.02
0.8590842340034346
% es.tEx (V/m) @ t=0.02
0.8455165423659423
% es.tEy (V/m) @ t=0.02
0
% es.tEz (V/m) @ t=0.02
0.8590842340034186
% V (V) @ t=0.02
0.011676718784610357
% es.normE (V/m) @ t=0.04
1.256668400581812
% es.EX (V/m) @ t=0.04
0.8532932570170644
% es.EY (V/m) @ t=0.04
0.2423467304418292
% es.EZ (V/m) @ t=0.04
0.8669857387163029
% es.tEX (V/m) @ t=0.04
0.8532932570170431
% es.tEY (V/m) @ t=0.04
0
% es.tEZ (V/m) @ t=0.04
0.8669857387162949
% es.Ex (V/m) @ t=0.04
0.8532932570170644
% es.Ey (V/m) @ t=0.04
0.2423467304418292
% es.Ez (V/m) @ t=0.04
0.8669857387163029
% es.tEx (V/m) @ t=0.04
0.8532932570170431
% es.tEy (V/m) @ t=0.04
0
% es.tEz (V/m) @ t=0.04
0.8669857387162949
% V (V) @ t=0.04
0.011784116458393147
% es.normE (V/m) @ t=0.06
1.2682073732452128
% es.EX (V/m) @ t=0.06
0.861128360990076
% es.EY (V/m) @ t=0.06
0.2445720049707436
% es.EZ (V/m) @ t=0.06
0.8749465697335523
% es.tEX (V/m) @ t=0.06
0.8611283609900795
% es.tEY (V/m) @ t=0.06
0
% es.tEZ (V/m) @ t=0.06
0.8749465697335381
% es.Ex (V/m) @ t=0.06
0.861128360990076
% es.Ey (V/m) @ t=0.06
0.2445720049707436
% es.Ez (V/m) @ t=0.06
0.8749465697335523
% es.tEx (V/m) @ t=0.06
0.8611283609900795
% es.tEy (V/m) @ t=0.06
0
% es.tEz (V/m) @ t=0.06
0.8749465697335381
% V (V) @ t=0.06
0.011892320500608754
% es.normE (V/m) @ t=0.08
1.279962011693236
% es.EX (V/m) @ t=0.08
0.8691099046711201
% es.EY (V/m) @ t=0.08
0.2468388703969122
% es.EZ (V/m) @ t=0.08
0.8830561903080589
% es.tEX (V/m) @ t=0.08
0.8691099046711059
% es.tEY (V/m) @ t=0.08
0
% es.tEZ (V/m) @ t=0.08
0.8830561903080394
% es.Ex (V/m) @ t=0.08
0.8691099046711201
% es.Ey (V/m) @ t=0.08
0.2468388703969122
% es.Ez (V/m) @ t=0.08
0.8830561903080589
% es.tEx (V/m) @ t=0.08
0.8691099046711059
% es.tEy (V/m) @ t=0.08
0
% es.tEz (V/m) @ t=0.08
0.8830561903080394
% V (V) @ t=0.08
0.01200254689776232
% es.normE (V/m) @ t=0.1
1.291784026920899
% es.EX (V/m) @ t=0.1
0.8771371980103737
% es.EY (V/m) @ t=0.1
0.2491187293571837
% es.EZ (V/m) @ t=0.1
0.8912122946640828
% es.tEX (V/m) @ t=0.1
0.8771371980103453
% es.tEY (V/m) @ t=0.1
0
% es.tEZ (V/m) @ t=0.1
0.891212294664065
% es.Ex (V/m) @ t=0.1
0.8771371980103737
% es.Ey (V/m) @ t=0.1
0.2491187293571837
% es.Ez (V/m) @ t=0.1
0.8912122946640828
% es.tEx (V/m) @ t=0.1
0.8771371980103453
% es.tEy (V/m) @ t=0.1
0
% es.tEz (V/m) @ t=0.1
0.891212294664065
% V (V) @ t=0.1
0.012113405104747302
% es.normE (V/m) @ t=0.12
1.3036060421486204
% es.EX (V/m) @ t=0.12
0.8851644913496806
% es.EY (V/m) @ t=0.12
0.251398588317457
% es.EZ (V/m) @ t=0.12
0.8993683990201378
% es.tEX (V/m) @ t=0.12
0.8851644913496557
% es.tEY (V/m) @ t=0.12
0
% es.tEZ (V/m) @ t=0.12
0.8993683990201191
% es.Ex (V/m) @ t=0.12
0.8851644913496806
% es.Ey (V/m) @ t=0.12
0.251398588317457
% es.Ez (V/m) @ t=0.12
0.8993683990201378
% es.tEx (V/m) @ t=0.12
0.8851644913496557
% es.tEy (V/m) @ t=0.12
0
% es.tEz (V/m) @ t=0.12
0.8993683990201191
% V (V) @ t=0.12
0.012224263311732287
% es.normE (V/m) @ t=0.14
1.3157465240856796
% es.EX (V/m) @ t=0.14
0.8934080274897163
% es.EY (V/m) @ t=0.14
0.25373986314520636
% es.EZ (V/m) @ t=0.14
0.9077442161398501
% es.tEX (V/m) @ t=0.14
0.8934080274897411
% es.tEY (V/m) @ t=0.14
0
% es.tEZ (V/m) @ t=0.14
0.9077442161398395
% es.Ex (V/m) @ t=0.14
0.8934080274897163
% es.Ey (V/m) @ t=0.14
0.25373986314520636
% es.Ez (V/m) @ t=0.14
0.9077442161398501
% es.tEx (V/m) @ t=0.14
0.8934080274897411
% es.tEy (V/m) @ t=0.14
0
% es.tEz (V/m) @ t=0.14
0.9077442161398395
% V (V) @ t=0.14
0.012338107865580903
% es.normE (V/m) @ t=0.16
1.32816562405301
% es.EX (V/m) @ t=0.16
0.9018407486887767
% es.EY (V/m) @ t=0.16
0.2561348690774352
% es.EZ (V/m) @ t=0.16
0.9163122540965656
% es.tEX (V/m) @ t=0.16
0.901840748688798
% es.tEY (V/m) @ t=0.16
0
% es.tEZ (V/m) @ t=0.16
0.9163122540965531
% es.Ex (V/m) @ t=0.16
0.9018407486887767
% es.Ey (V/m) @ t=0.16
0.2561348690774352
% es.Ez (V/m) @ t=0.16
0.9163122540965656
% es.tEx (V/m) @ t=0.16
0.901840748688798
% es.tEy (V/m) @ t=0.16
0
% es.tEz (V/m) @ t=0.16
0.9163122540965531
% V (V) @ t=0.16
0.012454565094651846
% es.normE (V/m) @ t=0.18
1.3405847240203852
% es.EX (V/m) @ t=0.18
0.9102734698879225
% es.EY (V/m) @ t=0.18
0.25852987500961255
% es.EZ (V/m) @ t=0.18
0.9248802920532935
% es.tEX (V/m) @ t=0.18
0.9102734698879118
% es.tEY (V/m) @ t=0.18
0
% es.tEZ (V/m) @ t=0.18
0.924880292053281
% es.Ex (V/m) @ t=0.18
0.9102734698879225
% es.Ey (V/m) @ t=0.18
0.25852987500961255
% es.Ez (V/m) @ t=0.18
0.9248802920532935
% es.tEx (V/m) @ t=0.18
0.9102734698879118
% es.tEy (V/m) @ t=0.18
0
% es.tEz (V/m) @ t=0.18
0.924880292053281
% V (V) @ t=0.18
0.01257102232372279
% es.normE (V/m) @ t=0.2
1.3530038239877573
% es.EX (V/m) @ t=0.2
0.9187061910870398
% es.EY (V/m) @ t=0.2
0.26092488094181654
% es.EZ (V/m) @ t=0.2
0.9334483300100302
% es.tEX (V/m) @ t=0.2
0.9187061910870398
% es.tEY (V/m) @ t=0.2
0
% es.tEZ (V/m) @ t=0.2
0.933448330010016
% es.Ex (V/m) @ t=0.2
0.9187061910870398
% es.Ey (V/m) @ t=0.2
0.26092488094181654
% es.Ez (V/m) @ t=0.2
0.9334483300100302
% es.tEx (V/m) @ t=0.2
0.9187061910870398
% es.tEy (V/m) @ t=0.2
0
% es.tEz (V/m) @ t=0.2
0.933448330010016
% V (V) @ t=0.2
0.012687479552793736
% es.normE (V/m) @ t=0.22
1.3654229239551183
% es.EX (V/m) @ t=0.22
0.9271389122861571
% es.EY (V/m) @ t=0.22
0.2633198868740152
% es.EZ (V/m) @ t=0.22
0.9420163679667564
% es.tEX (V/m) @ t=0.22
0.9271389122861393
% es.tEY (V/m) @ t=0.22
0
% es.tEZ (V/m) @ t=0.22
0.9420163679667439
% es.Ex (V/m) @ t=0.22
0.9271389122861571
% es.Ey (V/m) @ t=0.22
0.2633198868740152
% es.Ez (V/m) @ t=0.22
0.9420163679667564
% es.tEx (V/m) @ t=0.22
0.9271389122861393
% es.tEy (V/m) @ t=0.22
0
% es.tEz (V/m) @ t=0.22
0.9420163679667439
% V (V) @ t=0.22
0.012803936781864679
% es.normE (V/m) @ t=0.24
1.377842023922475
% es.EX (V/m) @ t=0.24
0.9355716334852424
% es.EY (V/m) @ t=0.24
0.26571489280624583
% es.EZ (V/m) @ t=0.24
0.9505844059234789
% es.tEX (V/m) @ t=0.24
0.9355716334852673
% es.tEY (V/m) @ t=0.24
0
% es.tEZ (V/m) @ t=0.24
0.9505844059234789
% es.Ex (V/m) @ t=0.24
0.9355716334852424
% es.Ey (V/m) @ t=0.24
0.26571489280624583
% es.Ez (V/m) @ t=0.24
0.9505844059234789
% es.tEx (V/m) @ t=0.24
0.9355716334852673
% es.tEy (V/m) @ t=0.24
0
% es.tEz (V/m) @ t=0.24
0.9505844059234789
% V (V) @ t=0.24
0.012920394010935622
% es.normE (V/m) @ t=0.26
1.3903627917021963
% es.EX (V/m) @ t=0.26
0.9440733883586958
% es.EY (V/m) @ t=0.26
0.26812950528622714
% es.EZ (V/m) @ t=0.26
0.9592225853439089
% es.tEX (V/m) @ t=0.26
0.9440733883586887
% es.tEY (V/m) @ t=0.26
0
% es.tEZ (V/m) @ t=0.26
0.9592225853438947
% es.Ex (V/m) @ t=0.26
0.9440733883586958
% es.Ey (V/m) @ t=0.26
0.26812950528622714
% es.Ez (V/m) @ t=0.26
0.9592225853439089
% es.tEx (V/m) @ t=0.26
0.9440733883586887
% es.tEy (V/m) @ t=0.26
0
% es.tEz (V/m) @ t=0.26
0.9592225853438947
% V (V) @ t=0.26
0.01303780461090268
% es.normE (V/m) @ t=0.28
1.4041161590346838
% es.EX (V/m) @ t=0.28
0.9534120932376915
% es.EY (V/m) @ t=0.28
0.2707818235000161
% es.EZ (V/m) @ t=0.28
0.9687111453794621
% es.tEX (V/m) @ t=0.28
0.9534120932377022
% es.tEY (V/m) @ t=0.28
0
% es.tEZ (V/m) @ t=0.28
0.9687111453794444
% es.Ex (V/m) @ t=0.28
0.9534120932376915
% es.Ey (V/m) @ t=0.28
0.2707818235000161
% es.Ez (V/m) @ t=0.28
0.9687111453794621
% es.tEx (V/m) @ t=0.28
0.9534120932377022
% es.tEy (V/m) @ t=0.28
0
% es.tEz (V/m) @ t=0.28
0.9687111453794444
% V (V) @ t=0.28
0.013166773682653045
% es.normE (V/m) @ t=0.3
1.4178695263671879
% es.EX (V/m) @ t=0.3
0.9627507981167192
% es.EY (V/m) @ t=0.3
0.2734341417138104
% es.EZ (V/m) @ t=0.3
0.9781997054149993
% es.tEX (V/m) @ t=0.3
0.9627507981167298
% es.tEY (V/m) @ t=0.3
0
% es.tEZ (V/m) @ t=0.3
0.978199705414994
% es.Ex (V/m) @ t=0.3
0.9627507981167192
% es.Ey (V/m) @ t=0.3
0.2734341417138104
% es.Ez (V/m) @ t=0.3
0.9781997054149993
% es.tEx (V/m) @ t=0.3
0.9627507981167298
% es.tEy (V/m) @ t=0.3
0
% es.tEz (V/m) @ t=0.3
0.978199705414994
% V (V) @ t=0.3
0.013295742754403414
% es.normE (V/m) @ t=0.32
1.4316228936996884
% es.EX (V/m) @ t=0.32
0.9720895029957397
% es.EY (V/m) @ t=0.32
0.276086459927658
% es.EZ (V/m) @ t=0.32
0.9876882654505259
% es.tEX (V/m) @ t=0.32
0.972089502995729
% es.tEY (V/m) @ t=0.32
0
% es.tEZ (V/m) @ t=0.32
0.9876882654505081
% es.Ex (V/m) @ t=0.32
0.9720895029957397
% es.Ey (V/m) @ t=0.32
0.276086459927658
% es.Ez (V/m) @ t=0.32
0.9876882654505259
% es.tEx (V/m) @ t=0.32
0.972089502995729
% es.tEy (V/m) @ t=0.32
0
% es.tEz (V/m) @ t=0.32
0.9876882654505081
% V (V) @ t=0.32
0.01342471182615378
% es.normE (V/m) @ t=0.34
1.4453762610321965
% es.EX (V/m) @ t=0.34
0.9814282078747283
% es.EY (V/m) @ t=0.34
0.2787387781415145
% es.EZ (V/m) @ t=0.34
0.9971768254860933
% es.tEX (V/m) @ t=0.34
0.9814282078747283
% es.tEY (V/m) @ t=0.34
0
% es.tEZ (V/m) @ t=0.34
0.9971768254860791
% es.Ex (V/m) @ t=0.34
0.9814282078747283
% es.Ey (V/m) @ t=0.34
0.2787387781415145
% es.Ez (V/m) @ t=0.34
0.9971768254860933
% es.tEx (V/m) @ t=0.34
0.9814282078747283
% es.tEy (V/m) @ t=0.34
0
% es.tEz (V/m) @ t=0.34
0.9971768254860791
% V (V) @ t=0.34
0.013553680897904145
% es.normE (V/m) @ t=0.36
1.459129628364702
% es.EX (V/m) @ t=0.36
0.9907669127537488
% es.EY (V/m) @ t=0.36
0.28139109635536563
% es.EZ (V/m) @ t=0.36
1.0066653855216217
% es.tEX (V/m) @ t=0.36
0.9907669127537702
% es.tEY (V/m) @ t=0.36
0
% es.tEZ (V/m) @ t=0.36
1.0066653855216146
% es.Ex (V/m) @ t=0.36
0.9907669127537488
% es.Ey (V/m) @ t=0.36
0.28139109635536563
% es.Ez (V/m) @ t=0.36
1.0066653855216217
% es.tEx (V/m) @ t=0.36
0.9907669127537702
% es.tEy (V/m) @ t=0.36
0
% es.tEz (V/m) @ t=0.36
1.0066653855216146
% V (V) @ t=0.36
0.013682649969654515
% es.normE (V/m) @ t=0.38
1.4728829956972072
% es.EX (V/m) @ t=0.38
1.0001056176327587
% es.EY (V/m) @ t=0.38
0.2840434145691617
% es.EZ (V/m) @ t=0.38
1.0161539455571802
% es.tEX (V/m) @ t=0.38
1.000105617632741
% es.tEY (V/m) @ t=0.38
0
% es.tEZ (V/m) @ t=0.38
1.016153945557157
% es.Ex (V/m) @ t=0.38
1.0001056176327587
% es.Ey (V/m) @ t=0.38
0.2840434145691617
% es.Ez (V/m) @ t=0.38
1.0161539455571802
% es.tEx (V/m) @ t=0.38
1.000105617632741
% es.tEy (V/m) @ t=0.38
0
% es.tEz (V/m) @ t=0.38
1.016153945557157
% V (V) @ t=0.38
0.01381161904140488
% es.normE (V/m) @ t=0.4
1.4866363630297341
% es.EX (V/m) @ t=0.4
1.0094443225118006
% es.EY (V/m) @ t=0.4
0.2866957327830022
% es.EZ (V/m) @ t=0.4
1.0256425055927263
% es.tEX (V/m) @ t=0.4
1.0094443225117828
% es.tEY (V/m) @ t=0.4
0
% es.tEZ (V/m) @ t=0.4
1.0256425055927139
% es.Ex (V/m) @ t=0.4
1.0094443225118006
% es.Ey (V/m) @ t=0.4
0.2866957327830022
% es.Ez (V/m) @ t=0.4
1.0256425055927263
% es.tEx (V/m) @ t=0.4
1.0094443225117828
% es.tEy (V/m) @ t=0.4
0
% es.tEz (V/m) @ t=0.4
1.0256425055927139
% V (V) @ t=0.4
0.01394058811315525
% es.normE (V/m) @ t=0.42
1.5003897303622291
% es.EX (V/m) @ t=0.42
1.0187830273907892
% es.EY (V/m) @ t=0.42
0.2893480509968356
% es.EZ (V/m) @ t=0.42
1.0351310656282706
% es.tEX (V/m) @ t=0.42
1.0187830273907963
% es.tEY (V/m) @ t=0.42
0
% es.tEZ (V/m) @ t=0.42
1.0351310656282493
% es.Ex (V/m) @ t=0.42
1.0187830273907892
% es.Ey (V/m) @ t=0.42
0.2893480509968356
% es.Ez (V/m) @ t=0.42
1.0351310656282706
% es.tEx (V/m) @ t=0.42
1.0187830273907963
% es.tEy (V/m) @ t=0.42
0
% es.tEz (V/m) @ t=0.42
1.0351310656282493
% V (V) @ t=0.42
0.014069557184905615
% es.normE (V/m) @ t=0.44
1.5141430976947365
% es.EX (V/m) @ t=0.44
1.0281217322698204
% es.EY (V/m) @ t=0.44
0.29200036921065475
% es.EZ (V/m) @ t=0.44
1.044619625663815
% es.tEX (V/m) @ t=0.44
1.0281217322697955
% es.tEY (V/m) @ t=0.44
0
% es.tEZ (V/m) @ t=0.44
1.0446196256638132
% es.Ex (V/m) @ t=0.44
1.0281217322698204
% es.Ey (V/m) @ t=0.44
0.29200036921065475
% es.Ez (V/m) @ t=0.44
1.044619625663815
% es.tEx (V/m) @ t=0.44
1.0281217322697955
% es.tEy (V/m) @ t=0.44
0
% es.tEz (V/m) @ t=0.44
1.0446196256638132
% V (V) @ t=0.44
0.014198526256655979
% es.normE (V/m) @ t=0.46
1.5278964650272475
% es.EX (V/m) @ t=0.46
1.037460437148841
% es.EY (V/m) @ t=0.46
0.2946526874244846
% es.EZ (V/m) @ t=0.46
1.0541081856993593
% es.tEX (V/m) @ t=0.46
1.0374604371488232
% es.tEY (V/m) @ t=0.46
0
% es.tEZ (V/m) @ t=0.46
1.0541081856993415
% es.Ex (V/m) @ t=0.46
1.037460437148841
% es.Ey (V/m) @ t=0.46
0.2946526874244846
% es.Ez (V/m) @ t=0.46
1.0541081856993593
% es.tEx (V/m) @ t=0.46
1.0374604371488232
% es.tEy (V/m) @ t=0.46
0
% es.tEz (V/m) @ t=0.46
1.0541081856993415
% V (V) @ t=0.46
0.014327495328406346
% es.normE (V/m) @ t=0.48
1.541649832359747
% es.EX (V/m) @ t=0.48
1.0467991420278153
% es.EY (V/m) @ t=0.48
0.29730500563834994
% es.EZ (V/m) @ t=0.48
1.0635967457349143
% es.tEX (V/m) @ t=0.48
1.046799142027794
% es.tEY (V/m) @ t=0.48
0
% es.tEZ (V/m) @ t=0.48
1.0635967457349054
% es.Ex (V/m) @ t=0.48
1.0467991420278153
% es.Ey (V/m) @ t=0.48
0.29730500563834994
% es.Ez (V/m) @ t=0.48
1.0635967457349143
% es.tEx (V/m) @ t=0.48
1.046799142027794
% es.tEy (V/m) @ t=0.48
0
% es.tEz (V/m) @ t=0.48
1.0635967457349054
% V (V) @ t=0.48
0.014456464400156714
% es.normE (V/m) @ t=0.5
1.5554031996922664
% es.EX (V/m) @ t=0.5
1.0561378469068607
% es.EY (V/m) @ t=0.5
0.2999573238521869
% es.EZ (V/m) @ t=0.5
1.0730853057704461
% es.tEX (V/m) @ t=0.5
1.05613784690685
% es.tEY (V/m) @ t=0.5
0
% es.tEZ (V/m) @ t=0.5
1.0730853057704266
% es.Ex (V/m) @ t=0.5
1.0561378469068607
% es.Ey (V/m) @ t=0.5
0.2999573238521869
% es.Ez (V/m) @ t=0.5
1.0730853057704461
% es.tEx (V/m) @ t=0.5
1.05613784690685
% es.tEy (V/m) @ t=0.5
0
% es.tEz (V/m) @ t=0.5
1.0730853057704266
% V (V) @ t=0.5
0.014585433471907081
% es.normE (V/m) @ t=0.52
1.5693996905914989
% es.EX (V/m) @ t=0.52
1.0656416357019864
% es.EY (V/m) @ t=0.52
0.3026565279990727
% es.EZ (V/m) @ t=0.52
1.0827415987053666
% es.tEX (V/m) @ t=0.52
1.0656416357019793
% es.tEY (V/m) @ t=0.52
0
% es.tEZ (V/m) @ t=0.52
1.0827415987053612
% es.Ex (V/m) @ t=0.52
1.0656416357019864
% es.Ey (V/m) @ t=0.52
0.3026565279990727
% es.Ez (V/m) @ t=0.52
1.0827415987053666
% es.tEx (V/m) @ t=0.52
1.0656416357019793
% es.tEy (V/m) @ t=0.52
0
% es.tEz (V/m) @ t=0.52
1.0827415987053612
% V (V) @ t=0.52
0.014716682369968037
% es.normE (V/m) @ t=0.54
1.5846551771316024
% es.EX (V/m) @ t=0.54
1.0760002981465924
% es.EY (V/m) @ t=0.54
0.3055985271421626
% es.EZ (V/m) @ t=0.54
1.0932664828342133
% es.tEX (V/m) @ t=0.54
1.0760002981465675
% es.tEY (V/m) @ t=0.54
0
% es.tEZ (V/m) @ t=0.54
1.0932664828342027
% es.Ex (V/m) @ t=0.54
1.0760002981465924
% es.Ey (V/m) @ t=0.54
0.3055985271421626
% es.Ez (V/m) @ t=0.54
1.0932664828342133
% es.tEx (V/m) @ t=0.54
1.0760002981465675
% es.tEy (V/m) @ t=0.54
0
% es.tEz (V/m) @ t=0.54
1.0932664828342027
% V (V) @ t=0.54
0.014859737163382927
% es.normE (V/m) @ t=0.56
1.599910663671706
% es.EX (V/m) @ t=0.56
1.086358960591216
% es.EY (V/m) @ t=0.56
0.30854052628517437
% es.EZ (V/m) @ t=0.56
1.1037913669630868
% es.tEX (V/m) @ t=0.56
1.0863589605912125
% es.tEY (V/m) @ t=0.56
0
% es.tEZ (V/m) @ t=0.56
1.1037913669630726
% es.Ex (V/m) @ t=0.56
1.086358960591216
% es.Ey (V/m) @ t=0.56
0.30854052628517437
% es.Ez (V/m) @ t=0.56
1.1037913669630868
% es.tEx (V/m) @ t=0.56
1.0863589605912125
% es.tEy (V/m) @ t=0.56
0
% es.tEz (V/m) @ t=0.56
1.1037913669630726
% V (V) @ t=0.56
0.01500279195679782
% es.normE (V/m) @ t=0.58
1.6151661502118224
% es.EX (V/m) @ t=0.58
1.096717623035829
% es.EY (V/m) @ t=0.58
0.3114825254281932
% es.EZ (V/m) @ t=0.58
1.1143162510919709
% es.tEX (V/m) @ t=0.58
1.096717623035829
% es.tEY (V/m) @ t=0.58
0
% es.tEZ (V/m) @ t=0.58
1.1143162510919566
% es.Ex (V/m) @ t=0.58
1.096717623035829
% es.Ey (V/m) @ t=0.58
0.3114825254281932
% es.Ez (V/m) @ t=0.58
1.1143162510919709
% es.tEx (V/m) @ t=0.58
1.096717623035829
% es.tEy (V/m) @ t=0.58
0
% es.tEz (V/m) @ t=0.58
1.1143162510919566
% V (V) @ t=0.58
0.015145846750212709
% es.normE (V/m) @ t=0.6
1.6304216367519198
% es.EX (V/m) @ t=0.6
1.1070762854804457
% es.EY (V/m) @ t=0.6
0.3144245245712405
% es.EZ (V/m) @ t=0.6
1.1248411352208159
% es.tEX (V/m) @ t=0.6
1.1070762854804173
% es.tEY (V/m) @ t=0.6
0
% es.tEZ (V/m) @ t=0.6
1.124841135220798
% es.Ex (V/m) @ t=0.6
1.1070762854804457
% es.Ey (V/m) @ t=0.6
0.3144245245712405
% es.Ez (V/m) @ t=0.6
1.1248411352208159
% es.tEx (V/m) @ t=0.6
1.1070762854804173
% es.tEy (V/m) @ t=0.6
0
% es.tEz (V/m) @ t=0.6
1.124841135220798
% V (V) @ t=0.6
0.0152889015436276
% es.normE (V/m) @ t=0.62
1.6456771232920324
% es.EX (V/m) @ t=0.62
1.1174349479250694
% es.EY (V/m) @ t=0.62
0.3173665237142913
% es.EZ (V/m) @ t=0.62
1.1353660193496715
% es.tEX (V/m) @ t=0.62
1.1174349479250623
% es.tEY (V/m) @ t=0.62
0
% es.tEZ (V/m) @ t=0.62
1.1353660193496609
% es.Ex (V/m) @ t=0.62
1.1174349479250694
% es.Ey (V/m) @ t=0.62
0.3173665237142913
% es.Ez (V/m) @ t=0.62
1.1353660193496715
% es.tEx (V/m) @ t=0.62
1.1174349479250623
% es.tEy (V/m) @ t=0.62
0
% es.tEz (V/m) @ t=0.62
1.1353660193496609
% V (V) @ t=0.62
0.015431956337042493
% es.normE (V/m) @ t=0.64
1.6609326098321078
% es.EX (V/m) @ t=0.64
1.127793610369622
% es.EY (V/m) @ t=0.64
0.320308522857367
% es.EZ (V/m) @ t=0.64
1.1458909034785432
% es.tEX (V/m) @ t=0.64
1.127793610369622
% es.tEY (V/m) @ t=0.64
0
% es.tEZ (V/m) @ t=0.64
1.1458909034785236
% es.Ex (V/m) @ t=0.64
1.127793610369622
% es.Ey (V/m) @ t=0.64
0.320308522857367
% es.Ez (V/m) @ t=0.64
1.1458909034785432
% es.tEx (V/m) @ t=0.64
1.127793610369622
% es.tEy (V/m) @ t=0.64
0
% es.tEz (V/m) @ t=0.64
1.1458909034785236
% V (V) @ t=0.64
0.01557501113045738
% es.normE (V/m) @ t=0.66
1.6761880963722362
% es.EX (V/m) @ t=0.66
1.1381522728142954
% es.EY (V/m) @ t=0.66
0.3232505220003645
% es.EZ (V/m) @ t=0.66
1.1564157876074024
% es.tEX (V/m) @ t=0.66
1.1381522728142954
% es.tEY (V/m) @ t=0.66
0
% es.tEZ (V/m) @ t=0.66
1.1564157876073935
% es.Ex (V/m) @ t=0.66
1.1381522728142954
% es.Ey (V/m) @ t=0.66
0.3232505220003645
% es.Ez (V/m) @ t=0.66
1.1564157876074024
% es.tEx (V/m) @ t=0.66
1.1381522728142954
% es.tEy (V/m) @ t=0.66
0
% es.tEz (V/m) @ t=0.66
1.1564157876073935
% V (V) @ t=0.66
0.01571806592387227
% es.normE (V/m) @ t=0.68
1.6914435829123347
% es.EX (V/m) @ t=0.68
1.1485109352588694
% es.EY (V/m) @ t=0.68
0.32619252114341535
% es.EZ (V/m) @ t=0.68
1.16694067173629
% es.tEX (V/m) @ t=0.68
1.1485109352588552
% es.tEY (V/m) @ t=0.68
0
% es.tEZ (V/m) @ t=0.68
1.1669406717362705
% es.Ex (V/m) @ t=0.68
1.1485109352588694
% es.Ey (V/m) @ t=0.68
0.32619252114341535
% es.Ez (V/m) @ t=0.68
1.16694067173629
% es.tEx (V/m) @ t=0.68
1.1485109352588552
% es.tEy (V/m) @ t=0.68
0
% es.tEz (V/m) @ t=0.68
1.1669406717362705
% V (V) @ t=0.68
0.015861120717287163
% es.normE (V/m) @ t=0.7
1.7066990694524358
% es.EX (V/m) @ t=0.7
1.1588695977035073
% es.EY (V/m) @ t=0.7
0.32913452028642
% es.EZ (V/m) @ t=0.7
1.177465555865144
% es.tEX (V/m) @ t=0.7
1.1588695977034718
% es.tEY (V/m) @ t=0.7
0
% es.tEZ (V/m) @ t=0.7
1.1774655558651261
% es.Ex (V/m) @ t=0.7
1.1588695977035073
% es.Ey (V/m) @ t=0.7
0.32913452028642
% es.Ez (V/m) @ t=0.7
1.177465555865144
% es.tEx (V/m) @ t=0.7
1.1588695977034718
% es.tEy (V/m) @ t=0.7
0
% es.tEz (V/m) @ t=0.7
1.1774655558651261
% V (V) @ t=0.7
0.016004175510702053
% es.normE (V/m) @ t=0.72
1.7219545559925298
% es.EX (V/m) @ t=0.72
1.1692282601481097
% es.EY (V/m) @ t=0.72
0.3320765194294957
% es.EZ (V/m) @ t=0.72
1.1879904399939925
% es.tEX (V/m) @ t=0.72
1.1692282601480883
% es.tEY (V/m) @ t=0.72
0
% es.tEZ (V/m) @ t=0.72
1.1879904399939747
% es.Ex (V/m) @ t=0.72
1.1692282601481097
% es.Ey (V/m) @ t=0.72
0.3320765194294957
% es.Ez (V/m) @ t=0.72
1.1879904399939925
% es.tEx (V/m) @ t=0.72
1.1692282601480883
% es.tEy (V/m) @ t=0.72
0
% es.tEz (V/m) @ t=0.72
1.1879904399939747
% V (V) @ t=0.72
0.016147230304116945
% es.normE (V/m) @ t=0.74
1.7372100425326669
% es.EX (V/m) @ t=0.74
1.1795869225927547
% es.EY (V/m) @ t=0.74
0.3350185185724932
% es.EZ (V/m) @ t=0.74
1.1985153241228783
% es.tEX (V/m) @ t=0.74
1.1795869225927333
% es.tEY (V/m) @ t=0.74
0
% es.tEZ (V/m) @ t=0.74
1.1985153241228659
% es.Ex (V/m) @ t=0.74
1.1795869225927547
% es.Ey (V/m) @ t=0.74
0.3350185185724932
% es.Ez (V/m) @ t=0.74
1.1985153241228783
% es.tEx (V/m) @ t=0.74
1.1795869225927333
% es.tEy (V/m) @ t=0.74
0
% es.tEz (V/m) @ t=0.74
1.1985153241228659
% V (V) @ t=0.74
0.016290285097531835
% es.normE (V/m) @ t=0.76
1.7524655290727496
% es.EX (V/m) @ t=0.76
1.1899455850373712
% es.EY (V/m) @ t=0.76
0.33796051771548363
% es.EZ (V/m) @ t=0.76
1.2090402082517286
% es.tEX (V/m) @ t=0.76
1.18994558503735
% es.tEY (V/m) @ t=0.76
0
% es.tEZ (V/m) @ t=0.76
1.2090402082517215
% es.Ex (V/m) @ t=0.76
1.1899455850373712
% es.Ey (V/m) @ t=0.76
0.33796051771548363
% es.Ez (V/m) @ t=0.76
1.2090402082517286
% es.tEx (V/m) @ t=0.76
1.18994558503735
% es.tEy (V/m) @ t=0.76
0
% es.tEz (V/m) @ t=0.76
1.2090402082517215
% V (V) @ t=0.76
0.016433339890946724
% es.normE (V/m) @ t=0.78
1.7681402432719395
% es.EX (V/m) @ t=0.78
1.2005889082060506
% es.EY (V/m) @ t=0.78
0.3409833643110396
% es.EZ (V/m) @ t=0.78
1.2198543209499864
% es.tEX (V/m) @ t=0.78
1.200588908206015
% es.tEY (V/m) @ t=0.78
0
% es.tEZ (V/m) @ t=0.78
1.2198543209499562
% es.Ex (V/m) @ t=0.78
1.2005889082060506
% es.Ey (V/m) @ t=0.78
0.3409833643110396
% es.Ez (V/m) @ t=0.78
1.2198543209499864
% es.tEx (V/m) @ t=0.78
1.200588908206015
% es.tEy (V/m) @ t=0.78
0
% es.tEz (V/m) @ t=0.78
1.2198543209499562
% V (V) @ t=0.78
0.016580325894214425
% es.normE (V/m) @ t=0.8
1.785089510920966
% es.EX (V/m) @ t=0.8
1.2120976688049154
% es.EY (V/m) @ t=0.8
0.3442520067101391
% es.EZ (V/m) @ t=0.8
1.2315477584326118
% es.tEX (V/m) @ t=0.8
1.2120976688049154
% es.tEY (V/m) @ t=0.8
0
% es.tEZ (V/m) @ t=0.8
1.2315477584325976
% es.Ex (V/m) @ t=0.8
1.2120976688049154
% es.Ey (V/m) @ t=0.8
0.3442520067101391
% es.Ez (V/m) @ t=0.8
1.2315477584326118
% es.tEx (V/m) @ t=0.8
1.2120976688049154
% es.tEy (V/m) @ t=0.8
0
% es.tEz (V/m) @ t=0.8
1.2315477584325976
% V (V) @ t=0.8
0.016739263725973917
% es.normE (V/m) @ t=0.82
1.8020387785700342
% es.EX (V/m) @ t=0.82
1.2236064294038513
% es.EY (V/m) @ t=0.82
0.3475206491092919
% es.EZ (V/m) @ t=0.82
1.2432411959152123
% es.tEX (V/m) @ t=0.82
1.2236064294038442
% es.tEY (V/m) @ t=0.82
0
% es.tEZ (V/m) @ t=0.82
1.2432411959151963
% es.Ex (V/m) @ t=0.82
1.2236064294038513
% es.Ey (V/m) @ t=0.82
0.3475206491092919
% es.Ez (V/m) @ t=0.82
1.2432411959152123
% es.tEx (V/m) @ t=0.82
1.2236064294038442
% es.tEy (V/m) @ t=0.82
0
% es.tEz (V/m) @ t=0.82
1.2432411959151963
% V (V) @ t=0.82
0.01689820155773341
% es.normE (V/m) @ t=0.84
1.8189880462190202
% es.EX (V/m) @ t=0.84
1.2351151900026665
% es.EY (V/m) @ t=0.84
0.3507892915084554
% es.EZ (V/m) @ t=0.84
1.2549346333978093
% es.tEX (V/m) @ t=0.84
1.2351151900026593
% es.tEY (V/m) @ t=0.84
0
% es.tEZ (V/m) @ t=0.84
1.254934633397795
% es.Ex (V/m) @ t=0.84
1.2351151900026665
% es.Ey (V/m) @ t=0.84
0.3507892915084554
% es.Ez (V/m) @ t=0.84
1.2549346333978093
% es.tEx (V/m) @ t=0.84
1.2351151900026593
% es.tEy (V/m) @ t=0.84
0
% es.tEz (V/m) @ t=0.84
1.254934633397795
% V (V) @ t=0.84
0.017057139389492902
% es.normE (V/m) @ t=0.86
1.835937313868036
% es.EX (V/m) @ t=0.86
1.24662395060151
% es.EY (V/m) @ t=0.86
0.35405793390762597
% es.EZ (V/m) @ t=0.86
1.2666280708804223
% es.tEX (V/m) @ t=0.86
1.2466239506014745
% es.tEY (V/m) @ t=0.86
0
% es.tEZ (V/m) @ t=0.86
1.266628070880408
% es.Ex (V/m) @ t=0.86
1.24662395060151
% es.Ey (V/m) @ t=0.86
0.35405793390762597
% es.Ez (V/m) @ t=0.86
1.2666280708804223
% es.tEx (V/m) @ t=0.86
1.2466239506014745
% es.tEy (V/m) @ t=0.86
0
% es.tEz (V/m) @ t=0.86
1.266628070880408
% V (V) @ t=0.86
0.017216077221252395
% es.normE (V/m) @ t=0.88
1.8528865815170579
% es.EX (V/m) @ t=0.88
1.2581327112003962
% es.EY (V/m) @ t=0.88
0.3573265763067539
% es.EZ (V/m) @ t=0.88
1.2783215083630157
% es.tEX (V/m) @ t=0.88
1.2581327112003464
% es.tEY (V/m) @ t=0.88
0
% es.tEZ (V/m) @ t=0.88
1.2783215083629784
% es.Ex (V/m) @ t=0.88
1.2581327112003962
% es.Ey (V/m) @ t=0.88
0.3573265763067539
% es.Ez (V/m) @ t=0.88
1.2783215083630157
% es.tEx (V/m) @ t=0.88
1.2581327112003464
% es.tEy (V/m) @ t=0.88
0
% es.tEz (V/m) @ t=0.88
1.2783215083629784
% V (V) @ t=0.88
0.017375015053011887
% es.normE (V/m) @ t=0.9
1.869835849166152
% es.EX (V/m) @ t=0.9
1.2696414717993534
% es.EY (V/m) @ t=0.9
0.3605952187058641
% es.EZ (V/m) @ t=0.9
1.29001494584565
% es.tEX (V/m) @ t=0.9
1.2696414717993036
% es.tEY (V/m) @ t=0.9
0
% es.tEZ (V/m) @ t=0.9
1.2900149458456411
% es.Ex (V/m) @ t=0.9
1.2696414717993534
% es.Ey (V/m) @ t=0.9
0.3605952187058641
% es.Ez (V/m) @ t=0.9
1.29001494584565
% es.tEx (V/m) @ t=0.9
1.2696414717993036
% es.tEy (V/m) @ t=0.9
0
% es.tEz (V/m) @ t=0.9
1.2900149458456411
% V (V) @ t=0.9
0.01753395288477138
% es.normE (V/m) @ t=0.92
1.8867851168151324
% es.EX (V/m) @ t=0.92
1.2811502323981472
% es.EY (V/m) @ t=0.92
0.3638638611050773
% es.EZ (V/m) @ t=0.92
1.3017083833282328
% es.tEX (V/m) @ t=0.92
1.2811502323981472
% es.tEY (V/m) @ t=0.92
0
% es.tEZ (V/m) @ t=0.92
1.3017083833282186
% es.Ex (V/m) @ t=0.92
1.2811502323981472
% es.Ey (V/m) @ t=0.92
0.3638638611050773
% es.Ez (V/m) @ t=0.92
1.3017083833282328
% es.tEx (V/m) @ t=0.92
1.2811502323981472
% es.tEy (V/m) @ t=0.92
0
% es.tEz (V/m) @ t=0.92
1.3017083833282186
% V (V) @ t=0.92
0.017692890716530872
% es.normE (V/m) @ t=0.94
1.9037343844642234
% es.EX (V/m) @ t=0.94
1.2926589929971044
% es.EY (V/m) @ t=0.94
0.3671325035041768
% es.EZ (V/m) @ t=0.94
1.3134018208108742
% es.tEX (V/m) @ t=0.94
1.292658992997076
% es.tEY (V/m) @ t=0.94
0
% es.tEZ (V/m) @ t=0.94
1.313401820810867
% es.Ex (V/m) @ t=0.94
1.2926589929971044
% es.Ey (V/m) @ t=0.94
0.3671325035041768
% es.Ez (V/m) @ t=0.94
1.3134018208108742
% es.tEx (V/m) @ t=0.94
1.292658992997076
% es.tEy (V/m) @ t=0.94
0
% es.tEz (V/m) @ t=0.94
1.313401820810867
% V (V) @ t=0.94
0.017851828548290368
% es.normE (V/m) @ t=0.96
1.9206836521132211
% es.EX (V/m) @ t=0.96
1.3041677535959195
% es.EY (V/m) @ t=0.96
0.3704011459033154
% es.EZ (V/m) @ t=0.96
1.325095258293489
% es.tEX (V/m) @ t=0.96
1.3041677535959195
% es.tEY (V/m) @ t=0.96
0
% es.tEZ (V/m) @ t=0.96
1.3250952582934588
% es.Ex (V/m) @ t=0.96
1.3041677535959195
% es.Ey (V/m) @ t=0.96
0.3704011459033154
% es.Ez (V/m) @ t=0.96
1.325095258293489
% es.tEx (V/m) @ t=0.96
1.3041677535959195
% es.tEy (V/m) @ t=0.96
0
% es.tEz (V/m) @ t=0.96
1.3250952582934588
% V (V) @ t=0.96
0.01801076638004986
% es.normE (V/m) @ t=0.98
1.9376329197622568
% es.EX (V/m) @ t=0.98
1.3156765141947915
% es.EY (V/m) @ t=0.98
0.3736697883025073
% es.EZ (V/m) @ t=0.98
1.3367886957760877
% es.tEX (V/m) @ t=0.98
1.3156765141947346
% es.tEY (V/m) @ t=0.98
0
% es.tEZ (V/m) @ t=0.98
1.3367886957760788
% es.Ex (V/m) @ t=0.98
1.3156765141947915
% es.Ey (V/m) @ t=0.98
0.3736697883025073
% es.Ez (V/m) @ t=0.98
1.3367886957760877
% es.tEx (V/m) @ t=0.98
1.3156765141947346
% es.tEy (V/m) @ t=0.98
0
% es.tEz (V/m) @ t=0.98
1.3367886957760788
% V (V) @ t=0.98
0.01816970421180935
% es.normE (V/m) @ t=1
1.9545821874113098
% es.EX (V/m) @ t=1
1.3271852747936919
% es.EY (V/m) @ t=1
0.3769384307016459
% es.EZ (V/m) @ t=1
1.3484821332587131
% es.tEX (V/m) @ t=1
1.3271852747936634
% es.tEY (V/m) @ t=1
0
% es.tEZ (V/m) @ t=1
1.348482133258699
% es.Ex (V/m) @ t=1
1.3271852747936919
% es.Ey (V/m) @ t=1
0.3769384307016459
% es.Ez (V/m) @ t=1
1.3484821332587131
% es.tEx (V/m) @ t=1
1.3271852747936634
% es.tEy (V/m) @ t=1
0
% es.tEz (V/m) @ t=1
1.348482133258699
% V (V) @ t=1
0.018328642043568842
% es.normE (V/m) @ t=1.02
1.9715314550603116
% es.EX (V/m) @ t=1.02
1.3386940353925425
% es.EY (V/m) @ t=1.02
0.38020707310076673
% es.EZ (V/m) @ t=1.02
1.3601755707413137
% es.tEX (V/m) @ t=1.02
1.3386940353925354
% es.tEY (V/m) @ t=1.02
0
% es.tEZ (V/m) @ t=1.02
1.3601755707412906
% es.Ex (V/m) @ t=1.02
1.3386940353925425
% es.Ey (V/m) @ t=1.02
0.38020707310076673
% es.Ez (V/m) @ t=1.02
1.3601755707413137
% es.tEx (V/m) @ t=1.02
1.3386940353925354
% es.tEy (V/m) @ t=1.02
0
% es.tEz (V/m) @ t=1.02
1.3601755707412906
% V (V) @ t=1.02
0.018487579875328335
% es.normE (V/m) @ t=1.04
1.9887478533998286
% es.EX (V/m) @ t=1.04
1.3503841810247152
% es.EY (V/m) @ t=1.04
0.3835272312255462
% es.EZ (V/m) @ t=1.04
1.372053303840394
% es.tEX (V/m) @ t=1.04
1.3503841810247366
% es.tEY (V/m) @ t=1.04
0
% es.tEZ (V/m) @ t=1.04
1.3720533038403744
% es.Ex (V/m) @ t=1.04
1.3503841810247152
% es.Ey (V/m) @ t=1.04
0.3835272312255462
% es.Ez (V/m) @ t=1.04
1.372053303840394
% es.tEx (V/m) @ t=1.04
1.3503841810247366
% es.tEy (V/m) @ t=1.04
0
% es.tEz (V/m) @ t=1.04