% Model:              1 neuron.mph
% Version:            COMSOL 6.1.0.252
% Date:               Mar 22 2023, 19:33
% Dimension:          0
% Nodes:              14017
% Expressions:        14017
% Description:        Electric field norm, Electric field, X component, Electric field, Y component, Electric field, Z component, Tangential electric field, X component, Tangential electric field, Y component, Tangential electric field, Z component, Electric field, x component, Electric field, y component, Electric field, z component, Tangential electric field, x component, Tangential electric field, y component, Tangential electric field, z component, Electric potential
% Length unit:        mm
% x
1.66
% y
12.2
% z
2
% es.normE (V/m) @ t=0
2.635197525163437
% es.EX (V/m) @ t=0
-0.7861326663455208
% es.EY (V/m) @ t=0
0.0587210718410546
% es.EZ (V/m) @ t=0
-2.5102893262553545
% es.tEX (V/m) @ t=0
-0.786132666345523
% es.tEY (V/m) @ t=0
0
% es.tEZ (V/m) @ t=0
-2.5102893262553856
% es.Ex (V/m) @ t=0
-0.7861326663455208
% es.Ey (V/m) @ t=0
0.0587210718410546
% es.Ez (V/m) @ t=0
-2.5102893262553545
% es.tEx (V/m) @ t=0
-0.786132666345523
% es.tEy (V/m) @ t=0
0
% es.tEz (V/m) @ t=0
-2.5102893262553856
% V (V) @ t=0
0.013245596525204493
% es.normE (V/m) @ t=0.02
2.2760603755761126
% es.EX (V/m) @ t=0.02
-0.6789947982190385
% es.EY (V/m) @ t=0.02
0.050718287248665506
% es.EZ (V/m) @ t=0.02
-2.1681752552261786
% es.tEX (V/m) @ t=0.02
-0.6789947982190476
% es.tEY (V/m) @ t=0.02
0
% es.tEZ (V/m) @ t=0.02
-2.1681752552261964
% es.Ex (V/m) @ t=0.02
-0.6789947982190385
% es.Ey (V/m) @ t=0.02
0.050718287248665506
% es.Ez (V/m) @ t=0.02
-2.1681752552261786
% es.tEx (V/m) @ t=0.02
-0.6789947982190476
% es.tEy (V/m) @ t=0.02
0
% es.tEz (V/m) @ t=0.02
-2.1681752552261964
% V (V) @ t=0.02
0.011440424145086567
% es.normE (V/m) @ t=0.04
2.2970118989935155
% es.EX (V/m) @ t=0.04
-0.685245061002565
% es.EY (V/m) @ t=0.04
0.05118515780949595
% es.EZ (V/m) @ t=0.04
-2.1881336777245073
% es.tEX (V/m) @ t=0.04
-0.6852450610025684
% es.tEY (V/m) @ t=0.04
0
% es.tEZ (V/m) @ t=0.04
-2.188133677724532
% es.Ex (V/m) @ t=0.04
-0.685245061002565
% es.Ey (V/m) @ t=0.04
0.05118515780949595
% es.Ez (V/m) @ t=0.04
-2.1881336777245073
% es.tEx (V/m) @ t=0.04
-0.6852450610025684
% es.tEy (V/m) @ t=0.04
0
% es.tEz (V/m) @ t=0.04
-2.188133677724532
% V (V) @ t=0.04
0.011545735194744661
% es.normE (V/m) @ t=0.06
2.3181139425320865
% es.EX (V/m) @ t=0.06
-0.6915402268944966
% es.EY (V/m) @ t=0.06
0.051655382150549364
% es.EZ (V/m) @ t=0.06
-2.208235485746176
% es.tEX (V/m) @ t=0.06
-0.6915402268945066
% es.tEY (V/m) @ t=0.06
0
% es.tEZ (V/m) @ t=0.06
-2.2082354857461928
% es.Ex (V/m) @ t=0.06
-0.6915402268944966
% es.Ey (V/m) @ t=0.06
0.051655382150549364
% es.Ez (V/m) @ t=0.06
-2.208235485746176
% es.tEx (V/m) @ t=0.06
-0.6915402268945066
% es.tEy (V/m) @ t=0.06
0
% es.tEz (V/m) @ t=0.06
-2.2082354857461928
% V (V) @ t=0.06
0.011651802833400213
% es.normE (V/m) @ t=0.08
2.339625392535514
% es.EX (V/m) @ t=0.08
-0.6979575270681961
% es.EY (V/m) @ t=0.08
0.05213472964850427
% es.EZ (V/m) @ t=0.08
-2.2287272943592615
% es.tEX (V/m) @ t=0.08
-0.6979575270681977
% es.tEY (V/m) @ t=0.08
0
% es.tEZ (V/m) @ t=0.08
-2.2287272943592766
% es.Ex (V/m) @ t=0.08
-0.6979575270681961
% es.Ey (V/m) @ t=0.08
0.05213472964850427
% es.Ez (V/m) @ t=0.08
-2.2287272943592615
% es.tEx (V/m) @ t=0.08
-0.6979575270681977
% es.tEy (V/m) @ t=0.08
0
% es.tEz (V/m) @ t=0.08
-2.2287272943592766
% V (V) @ t=0.08
0.011759928310458145
% es.normE (V/m) @ t=0.1
2.3612394689912026
% es.EX (V/m) @ t=0.1
-0.7044054428015298
% es.EY (V/m) @ t=0.1
0.05261636406011694
% es.EZ (V/m) @ t=0.1
-2.249316864929014
% es.tEX (V/m) @ t=0.1
-0.7044054428015407
% es.tEY (V/m) @ t=0.1
0
% es.tEZ (V/m) @ t=0.1
-2.2493168649290336
% es.Ex (V/m) @ t=0.1
-0.7044054428015298
% es.Ey (V/m) @ t=0.1
0.05261636406011694
% es.Ez (V/m) @ t=0.1
-2.249316864929014
% es.tEx (V/m) @ t=0.1
-0.7044054428015407
% es.tEy (V/m) @ t=0.1
0
% es.tEz (V/m) @ t=0.1
-2.2493168649290336
% V (V) @ t=0.1
0.011868569628551031
% es.normE (V/m) @ t=0.12
2.3828535454468764
% es.EX (V/m) @ t=0.12
-0.7108533585348606
% es.EY (V/m) @ t=0.12
0.053097998471708346
% es.EZ (V/m) @ t=0.12
-2.2699064354987524
% es.tEX (V/m) @ t=0.12
-0.710853358534866
% es.tEY (V/m) @ t=0.12
0
% es.tEZ (V/m) @ t=0.12
-2.2699064354987684
% es.Ex (V/m) @ t=0.12
-0.7108533585348606
% es.Ey (V/m) @ t=0.12
0.053097998471708346
% es.Ez (V/m) @ t=0.12
-2.2699064354987524
% es.tEx (V/m) @ t=0.12
-0.710853358534866
% es.tEy (V/m) @ t=0.12
0
% es.tEz (V/m) @ t=0.12
-2.2699064354987684
% V (V) @ t=0.12
0.01197721094664392
% es.normE (V/m) @ t=0.14
2.405121148785256
% es.EX (V/m) @ t=0.14
-0.7174962345189686
% es.EY (V/m) @ t=0.14
0.053594195540868805
% es.EZ (V/m) @ t=0.14
-2.291118555831308
% es.tEX (V/m) @ t=0.14
-0.7174962345189755
% es.tEY (V/m) @ t=0.14
0
% es.tEZ (V/m) @ t=0.14
-2.2911185558313347
% es.Ex (V/m) @ t=0.14
-0.7174962345189686
% es.Ey (V/m) @ t=0.14
0.053594195540868805
% es.Ez (V/m) @ t=0.14
-2.291118555831308
% es.tEx (V/m) @ t=0.14
-0.7174962345189755
% es.tEy (V/m) @ t=0.14
0
% es.tEz (V/m) @ t=0.14
-2.2911185558313347
% V (V) @ t=0.14
0.012089137166276192
% es.normE (V/m) @ t=0.16
2.427814757185401
% es.EX (V/m) @ t=0.16
-0.7242661964055351
% es.EY (V/m) @ t=0.16
0.054099885357758185
% es.EZ (V/m) @ t=0.16
-2.312736488621134
% es.tEX (V/m) @ t=0.16
-0.7242661964055337
% es.tEY (V/m) @ t=0.16
0
% es.tEZ (V/m) @ t=0.16
-2.312736488621148
% es.Ex (V/m) @ t=0.16
-0.7242661964055351
% es.Ey (V/m) @ t=0.16
0.054099885357758185
% es.Ez (V/m) @ t=0.16
-2.312736488621134
% es.tEx (V/m) @ t=0.16
-0.7242661964055337
% es.tEy (V/m) @ t=0.16
0
% es.tEz (V/m) @ t=0.16
-2.312736488621148
% V (V) @ t=0.16
0.012203204666887275
% es.normE (V/m) @ t=0.18
2.4505083655855384
% es.EX (V/m) @ t=0.18
-0.7310361582921023
% es.EY (V/m) @ t=0.18
0.05460557517464032
% es.EZ (V/m) @ t=0.18
-2.3343544214109526
% es.tEX (V/m) @ t=0.18
-0.7310361582921097
% es.tEY (V/m) @ t=0.18
0
% es.tEZ (V/m) @ t=0.18
-2.334354421410983
% es.Ex (V/m) @ t=0.18
-0.7310361582921023
% es.Ey (V/m) @ t=0.18
0.05460557517464032
% es.Ez (V/m) @ t=0.18
-2.3343544214109526
% es.tEx (V/m) @ t=0.18
-0.7310361582921097
% es.tEy (V/m) @ t=0.18
0
% es.tEz (V/m) @ t=0.18
-2.334354421410983
% V (V) @ t=0.18
0.012317272167498356
% es.normE (V/m) @ t=0.2
2.473201973985679
% es.EX (V/m) @ t=0.2
-0.737806120178673
% es.EY (V/m) @ t=0.2
0.05511126499152981
% es.EZ (V/m) @ t=0.2
-2.355972354200773
% es.tEX (V/m) @ t=0.2
-0.7378061201786821
% es.tEY (V/m) @ t=0.2
0
% es.tEZ (V/m) @ t=0.2
-2.355972354200791
% es.Ex (V/m) @ t=0.2
-0.737806120178673
% es.Ey (V/m) @ t=0.2
0.05511126499152981
% es.Ez (V/m) @ t=0.2
-2.355972354200773
% es.tEx (V/m) @ t=0.2
-0.7378061201786821
% es.tEy (V/m) @ t=0.2
0
% es.tEz (V/m) @ t=0.2
-2.355972354200791
% V (V) @ t=0.2
0.01243133966810944
% es.normE (V/m) @ t=0.22
2.495895582385831
% es.EX (V/m) @ t=0.22
-0.7445760820652441
% es.EY (V/m) @ t=0.22
0.055616954808415414
% es.EZ (V/m) @ t=0.22
-2.377590286990606
% es.tEX (V/m) @ t=0.22
-0.7445760820652509
% es.tEY (V/m) @ t=0.22
0
% es.tEZ (V/m) @ t=0.22
-2.3775902869906256
% es.Ex (V/m) @ t=0.22
-0.7445760820652441
% es.Ey (V/m) @ t=0.22
0.055616954808415414
% es.Ez (V/m) @ t=0.22
-2.377590286990606
% es.tEx (V/m) @ t=0.22
-0.7445760820652509
% es.tEy (V/m) @ t=0.22
0
% es.tEz (V/m) @ t=0.22
-2.3775902869906256
% V (V) @ t=0.22
0.012545407168720525
% es.normE (V/m) @ t=0.24
2.5185891907859457
% es.EX (V/m) @ t=0.24
-0.7513460439517988
% es.EY (V/m) @ t=0.24
0.05612264462531043
% es.EZ (V/m) @ t=0.24
-2.3992082197804043
% es.tEX (V/m) @ t=0.24
-0.7513460439517985
% es.tEY (V/m) @ t=0.24
0
% es.tEZ (V/m) @ t=0.24
-2.3992082197804248
% es.Ex (V/m) @ t=0.24
-0.7513460439517988
% es.Ey (V/m) @ t=0.24
0.05612264462531043
% es.Ez (V/m) @ t=0.24
-2.3992082197804043
% es.tEx (V/m) @ t=0.24
-0.7513460439517985
% es.tEy (V/m) @ t=0.24
0
% es.tEz (V/m) @ t=0.24
-2.3992082197804248
% V (V) @ t=0.24
0.012659474669331606
% es.normE (V/m) @ t=0.26
2.5418057486471315
% es.EX (V/m) @ t=0.26
-0.7582720123123158
% es.EY (V/m) @ t=0.26
0.05663998793624525
% es.EZ (V/m) @ t=0.26
-2.421324314209211
% es.tEX (V/m) @ t=0.26
-0.7582720123123217
% es.tEY (V/m) @ t=0.26
0
% es.tEZ (V/m) @ t=0.26
-2.42132431420924
% es.Ex (V/m) @ t=0.26
-0.7582720123123158
% es.Ey (V/m) @ t=0.26
0.05663998793624525
% es.Ez (V/m) @ t=0.26
-2.421324314209211
% es.tEx (V/m) @ t=0.26
-0.7582720123123217
% es.tEy (V/m) @ t=0.26
0
% es.tEz (V/m) @ t=0.26
-2.42132431420924
% V (V) @ t=0.26
0.012776170716843635
% es.normE (V/m) @ t=0.28
2.5669092807598686
% es.EX (V/m) @ t=0.28
-0.7657609035197656
% es.EY (V/m) @ t=0.28
0.057199380899886715
% es.EZ (V/m) @ t=0.28
-2.4452379402465168
% es.tEX (V/m) @ t=0.28
-0.7657609035197765
% es.tEY (V/m) @ t=0.28
0
% es.tEZ (V/m) @ t=0.28
-2.4452379402465354
% es.Ex (V/m) @ t=0.28
-0.7657609035197656
% es.Ey (V/m) @ t=0.28
0.057199380899886715
% es.Ez (V/m) @ t=0.28
-2.4452379402465168
% es.tEx (V/m) @ t=0.28
-0.7657609035197765
% es.tEy (V/m) @ t=0.28
0
% es.tEz (V/m) @ t=0.28
-2.4452379402465354
% V (V) @ t=0.28
0.012902351429108736
% es.normE (V/m) @ t=0.3
2.592012812872583
% es.EX (V/m) @ t=0.3
-0.7732497947272056
% es.EY (V/m) @ t=0.3
0.057758773863524404
% es.EZ (V/m) @ t=0.3
-2.4691515662838013
% es.tEX (V/m) @ t=0.3
-0.7732497947272066
% es.tEY (V/m) @ t=0.3
0
% es.tEZ (V/m) @ t=0.3
-2.4691515662838146
% es.Ex (V/m) @ t=0.3
-0.7732497947272056
% es.Ey (V/m) @ t=0.3
0.057758773863524404
% es.Ez (V/m) @ t=0.3
-2.4691515662838013
% es.tEx (V/m) @ t=0.3
-0.7732497947272066
% es.tEy (V/m) @ t=0.3
0
% es.tEz (V/m) @ t=0.3
-2.4691515662838146
% V (V) @ t=0.3
0.013028532141373839
% es.normE (V/m) @ t=0.32
2.6171163449853188
% es.EX (V/m) @ t=0.32
-0.7807386859346508
% es.EY (V/m) @ t=0.32
0.058318166827184756
% es.EZ (V/m) @ t=0.32
-2.493065192321108
% es.tEX (V/m) @ t=0.32
-0.7807386859346579
% es.tEY (V/m) @ t=0.32
0
% es.tEZ (V/m) @ t=0.32
-2.4930651923211222
% es.Ex (V/m) @ t=0.32
-0.7807386859346508
% es.Ey (V/m) @ t=0.32
0.058318166827184756
% es.Ez (V/m) @ t=0.32
-2.493065192321108
% es.tEx (V/m) @ t=0.32
-0.7807386859346579
% es.tEy (V/m) @ t=0.32
0
% es.tEz (V/m) @ t=0.32
-2.4930651923211222
% V (V) @ t=0.32
0.013154712853638941
% es.normE (V/m) @ t=0.34
2.6422198770980336
% es.EX (V/m) @ t=0.34
-0.7882275771420953
% es.EY (V/m) @ t=0.34
0.058877559790811745
% es.EZ (V/m) @ t=0.34
-2.5169788183583917
% es.tEX (V/m) @ t=0.34
-0.7882275771421092
% es.tEY (V/m) @ t=0.34
0
% es.tEZ (V/m) @ t=0.34
-2.516978818358405
% es.Ex (V/m) @ t=0.34
-0.7882275771420953
% es.Ey (V/m) @ t=0.34
0.058877559790811745
% es.Ez (V/m) @ t=0.34
-2.5169788183583917
% es.tEx (V/m) @ t=0.34
-0.7882275771421092
% es.tEy (V/m) @ t=0.34
0
% es.tEz (V/m) @ t=0.34
-2.516978818358405
% V (V) @ t=0.34
0.013280893565904046
% es.normE (V/m) @ t=0.36
2.6673234092107494
% es.EX (V/m) @ t=0.36
-0.7957164683495398
% es.EY (V/m) @ t=0.36
0.05943695275443875
% es.EZ (V/m) @ t=0.36
-2.540892444395676
% es.tEX (V/m) @ t=0.36
-0.7957164683495463
% es.tEY (V/m) @ t=0.36
0
% es.tEZ (V/m) @ t=0.36
-2.5408924443956984
% es.Ex (V/m) @ t=0.36
-0.7957164683495398
% es.Ey (V/m) @ t=0.36
0.05943695275443875
% es.Ez (V/m) @ t=0.36
-2.540892444395676
% es.tEx (V/m) @ t=0.36
-0.7957164683495463
% es.tEy (V/m) @ t=0.36
0
% es.tEz (V/m) @ t=0.36
-2.5408924443956984
% V (V) @ t=0.36
0.013407074278169147
% es.normE (V/m) @ t=0.38
2.692426941323487
% es.EX (V/m) @ t=0.38
-0.8032053595569922
% es.EY (V/m) @ t=0.38
0.059996345718081545
% es.EZ (V/m) @ t=0.38
-2.564806070432982
% es.tEX (V/m) @ t=0.38
-0.8032053595569977
% es.tEY (V/m) @ t=0.38
0
% es.tEZ (V/m) @ t=0.38
-2.5648060704329794
% es.Ex (V/m) @ t=0.38
-0.8032053595569922
% es.Ey (V/m) @ t=0.38
0.059996345718081545
% es.Ez (V/m) @ t=0.38
-2.564806070432982
% es.tEx (V/m) @ t=0.38
-0.8032053595569977
% es.tEy (V/m) @ t=0.38
0
% es.tEz (V/m) @ t=0.38
-2.5648060704329794
% V (V) @ t=0.38
0.01353325499043425
% es.normE (V/m) @ t=0.4
2.717530473436206
% es.EX (V/m) @ t=0.4
-0.8106942507644233
% es.EY (V/m) @ t=0.4
0.06055573868171572
% es.EZ (V/m) @ t=0.4
-2.5887196964702746
% es.tEX (V/m) @ t=0.4
-0.8106942507644277
% es.tEY (V/m) @ t=0.4
0
% es.tEZ (V/m) @ t=0.4
-2.588719696470273
% es.Ex (V/m) @ t=0.4
-0.8106942507644233
% es.Ey (V/m) @ t=0.4
0.06055573868171572
% es.Ez (V/m) @ t=0.4
-2.5887196964702746
% es.tEx (V/m) @ t=0.4
-0.8106942507644277
% es.tEy (V/m) @ t=0.4
0
% es.tEz (V/m) @ t=0.4
-2.588719696470273
% V (V) @ t=0.4
0.013659435702699353
% es.normE (V/m) @ t=0.42
2.742634005548916
% es.EX (V/m) @ t=0.42
-0.818183141971874
% es.EY (V/m) @ t=0.42
0.06111513164535512
% es.EZ (V/m) @ t=0.42
-2.612633322507552
% es.tEX (V/m) @ t=0.42
-0.818183141971879
% es.tEY (V/m) @ t=0.42
0
% es.tEZ (V/m) @ t=0.42
-2.612633322507566
% es.Ex (V/m) @ t=0.42
-0.818183141971874
% es.Ey (V/m) @ t=0.42
0.06111513164535512
% es.Ez (V/m) @ t=0.42
-2.612633322507552
% es.tEx (V/m) @ t=0.42
-0.818183141971879
% es.tEy (V/m) @ t=0.42
0
% es.tEz (V/m) @ t=0.42
-2.612633322507566
% V (V) @ t=0.42
0.013785616414964452
% es.normE (V/m) @ t=0.44
2.767737537661625
% es.EX (V/m) @ t=0.44
-0.8256720331793211
% es.EY (V/m) @ t=0.44
0.061674524608991255
% es.EZ (V/m) @ t=0.44
-2.6365469485448294
% es.tEX (V/m) @ t=0.44
-0.8256720331793233
% es.tEY (V/m) @ t=0.44
0
% es.tEZ (V/m) @ t=0.44
-2.636546948544863
% es.Ex (V/m) @ t=0.44
-0.8256720331793211
% es.Ey (V/m) @ t=0.44
0.061674524608991255
% es.Ez (V/m) @ t=0.44
-2.6365469485448294
% es.tEx (V/m) @ t=0.44
-0.8256720331793233
% es.tEy (V/m) @ t=0.44
0
% es.tEz (V/m) @ t=0.44
-2.636546948544863
% V (V) @ t=0.44
0.013911797127229555
% es.normE (V/m) @ t=0.46
2.7928410697743717
% es.EX (V/m) @ t=0.46
-0.8331609243867523
% es.EY (V/m) @ t=0.46
0.062233917572640934
% es.EZ (V/m) @ t=0.46
-2.6604605745821495
% es.tEX (V/m) @ t=0.46
-0.8331609243867675
% es.tEY (V/m) @ t=0.46
0
% es.tEZ (V/m) @ t=0.46
-2.6604605745821566
% es.Ex (V/m) @ t=0.46
-0.8331609243867523
% es.Ey (V/m) @ t=0.46
0.062233917572640934
% es.Ez (V/m) @ t=0.46
-2.6604605745821495
% es.tEx (V/m) @ t=0.46
-0.8331609243867675
% es.tEy (V/m) @ t=0.46
0
% es.tEz (V/m) @ t=0.46
-2.6604605745821566
% V (V) @ t=0.46
0.014037977839494661
% es.normE (V/m) @ t=0.48
2.8179446018870835
% es.EX (V/m) @ t=0.48
-0.8406498155942117
% es.EY (V/m) @ t=0.48
0.06279331053626801
% es.EZ (V/m) @ t=0.48
-2.684374200619427
% es.tEX (V/m) @ t=0.48
-0.8406498155942259
% es.tEY (V/m) @ t=0.48
0
% es.tEZ (V/m) @ t=0.48
-2.6843742006194518
% es.Ex (V/m) @ t=0.48
-0.8406498155942117
% es.Ey (V/m) @ t=0.48
0.06279331053626801
% es.Ez (V/m) @ t=0.48
-2.684374200619427
% es.tEx (V/m) @ t=0.48
-0.8406498155942259
% es.tEy (V/m) @ t=0.48
0
% es.tEz (V/m) @ t=0.48
-2.6843742006194518
% V (V) @ t=0.48
0.01416415855175976
% es.normE (V/m) @ t=0.5
2.8430481339997975
% es.EX (V/m) @ t=0.5
-0.8481387068016499
% es.EY (V/m) @ t=0.5
0.06335270349991451
% es.EZ (V/m) @ t=0.5
-2.7082878266567114
% es.tEX (V/m) @ t=0.5
-0.8481387068016559
% es.tEY (V/m) @ t=0.5
0
% es.tEZ (V/m) @ t=0.5
-2.708287826656731
% es.Ex (V/m) @ t=0.5
-0.8481387068016499
% es.Ey (V/m) @ t=0.5
0.06335270349991451
% es.Ez (V/m) @ t=0.5
-2.7082878266567114
% es.tEx (V/m) @ t=0.5
-0.8481387068016559
% es.tEy (V/m) @ t=0.5
0
% es.tEz (V/m) @ t=0.5
-2.708287826656731
% V (V) @ t=0.5
0.014290339264024864
% es.normE (V/m) @ t=0.52
2.8693442514954732
% es.EX (V/m) @ t=0.52
-0.8559833698485391
% es.EY (V/m) @ t=0.52
0.06393866922026147
% es.EZ (V/m) @ t=0.52
-2.73333750987324
% es.tEX (V/m) @ t=0.52
-0.8559833698485448
% es.tEY (V/m) @ t=0.52
0
% es.tEZ (V/m) @ t=0.52
-2.7333375098732837
% es.Ex (V/m) @ t=0.52
-0.8559833698485391
% es.Ey (V/m) @ t=0.52
0.06393866922026147
% es.Ez (V/m) @ t=0.52
-2.73333750987324
% es.tEx (V/m) @ t=0.52
-0.8559833698485448
% es.tEy (V/m) @ t=0.52
0
% es.tEz (V/m) @ t=0.52
-2.7333375098732837
% V (V) @ t=0.52
0.014422514477857338
% es.normE (V/m) @ t=0.54
2.8971567559591844
% es.EX (V/m) @ t=0.54
-0.8642804011607219
% es.EY (V/m) @ t=0.54
0.06455842252730855
% es.EZ (V/m) @ t=0.54
-2.759831703752207
% es.tEX (V/m) @ t=0.54
-0.8642804011607268
% es.tEY (V/m) @ t=0.54
0
% es.tEZ (V/m) @ t=0.54
-2.759831703752223
% es.Ex (V/m) @ t=0.54
-0.8642804011607219
% es.Ey (V/m) @ t=0.54
0.06455842252730855
% es.Ez (V/m) @ t=0.54
-2.759831703752207
% es.tEx (V/m) @ t=0.54
-0.8642804011607268
% es.tEy (V/m) @ t=0.54
0
% es.tEz (V/m) @ t=0.54
-2.759831703752223
% V (V) @ t=0.54
0.014562311774088479
% es.normE (V/m) @ t=0.56
2.9249692604228557
% es.EX (V/m) @ t=0.56
-0.8725774324729065
% es.EY (V/m) @ t=0.56
0.0651781758343175
% es.EZ (V/m) @ t=0.56
-2.786325897631131
% es.tEX (V/m) @ t=0.56
-0.8725774324729088
% es.tEY (V/m) @ t=0.56
0
% es.tEZ (V/m) @ t=0.56
-2.786325897631148
% es.Ex (V/m) @ t=0.56
-0.8725774324729065
% es.Ey (V/m) @ t=0.56
0.0651781758343175
% es.Ez (V/m) @ t=0.56
-2.786325897631131
% es.tEx (V/m) @ t=0.56
-0.8725774324729088
% es.tEy (V/m) @ t=0.56
0
% es.tEz (V/m) @ t=0.56
-2.786325897631148
% V (V) @ t=0.56
0.014702109070319623
% es.normE (V/m) @ t=0.58
2.952781764886527
% es.EX (V/m) @ t=0.58
-0.8808744637850927
% es.EY (V/m) @ t=0.58
0.06579792914136069
% es.EZ (V/m) @ t=0.58
-2.812820091510056
% es.tEX (V/m) @ t=0.58
-0.8808744637850978
% es.tEY (V/m) @ t=0.58
0
% es.tEZ (V/m) @ t=0.58
-2.8128200915100994
% es.Ex (V/m) @ t=0.58
-0.8808744637850927
% es.Ey (V/m) @ t=0.58
0.06579792914136069
% es.Ez (V/m) @ t=0.58
-2.812820091510056
% es.tEx (V/m) @ t=0.58
-0.8808744637850978
% es.tEy (V/m) @ t=0.58
0
% es.tEz (V/m) @ t=0.58
-2.8128200915100994
% V (V) @ t=0.58
0.014841906366550764
% es.normE (V/m) @ t=0.6
2.98059426935024
% es.EX (V/m) @ t=0.6
-0.8891714950972864
% es.EY (V/m) @ t=0.6
0.06641768244836467
% es.EZ (V/m) @ t=0.6
-2.8393142853890216
% es.tEX (V/m) @ t=0.6
-0.889171495097294
% es.tEY (V/m) @ t=0.6
0
% es.tEZ (V/m) @ t=0.6
-2.8393142853890403
% es.Ex (V/m) @ t=0.6
-0.8891714950972864
% es.Ey (V/m) @ t=0.6
0.06641768244836467
% es.Ez (V/m) @ t=0.6
-2.8393142853890216
% es.tEx (V/m) @ t=0.6
-0.889171495097294
% es.tEy (V/m) @ t=0.6
0
% es.tEz (V/m) @ t=0.6
-2.8393142853890403
% V (V) @ t=0.6
0.014981703662781906
% es.normE (V/m) @ t=0.62
3.008406773813926
% es.EX (V/m) @ t=0.62
-0.8974685264094762
% es.EY (V/m) @ t=0.62
0.0670374357554007
% es.EZ (V/m) @ t=0.62
-2.865808479267961
% es.tEX (V/m) @ t=0.62
-0.897468526409483
% es.tEY (V/m) @ t=0.62
0
% es.tEZ (V/m) @ t=0.62
-2.8658084792679794
% es.Ex (V/m) @ t=0.62
-0.8974685264094762
% es.Ey (V/m) @ t=0.62
0.0670374357554007
% es.Ez (V/m) @ t=0.62
-2.865808479267961
% es.tEx (V/m) @ t=0.62
-0.897468526409483
% es.tEy (V/m) @ t=0.62
0
% es.tEz (V/m) @ t=0.62
-2.8658084792679794
% V (V) @ t=0.62
0.015121500959013049
% es.normE (V/m) @ t=0.64
3.0362192782775956
% es.EX (V/m) @ t=0.64
-0.9057655577216557
% es.EY (V/m) @ t=0.64
0.06765718906244332
% es.EZ (V/m) @ t=0.64
-2.892302673146884
% es.tEX (V/m) @ t=0.64
-0.905765557721665
% es.tEY (V/m) @ t=0.64
0
% es.tEZ (V/m) @ t=0.64
-2.8923026731469186
% es.Ex (V/m) @ t=0.64
-0.9057655577216557
% es.Ey (V/m) @ t=0.64
0.06765718906244332
% es.Ez (V/m) @ t=0.64
-2.892302673146884
% es.tEx (V/m) @ t=0.64
-0.905765557721665
% es.tEy (V/m) @ t=0.64
0
% es.tEz (V/m) @ t=0.64
-2.8923026731469186
% V (V) @ t=0.64
0.015261298255244192
% es.normE (V/m) @ t=0.66
3.064031782741295
% es.EX (V/m) @ t=0.66
-0.9140625890338472
% es.EY (V/m) @ t=0.66
0.06827694236945982
% es.EZ (V/m) @ t=0.66
-2.9187968670258364
% es.tEX (V/m) @ t=0.66
-0.9140625890338541
% es.tEY (V/m) @ t=0.66
0
% es.tEZ (V/m) @ t=0.66
-2.9187968670258435
% es.Ex (V/m) @ t=0.66
-0.9140625890338472
% es.Ey (V/m) @ t=0.66
0.06827694236945982
% es.Ez (V/m) @ t=0.66
-2.9187968670258364
% es.tEx (V/m) @ t=0.66
-0.9140625890338541
% es.tEy (V/m) @ t=0.66
0
% es.tEz (V/m) @ t=0.66
-2.9187968670258435
% V (V) @ t=0.66
0.015401095551475336
% es.normE (V/m) @ t=0.68
3.0918442872049656
% es.EX (V/m) @ t=0.68
-0.92235962034603
% es.EY (V/m) @ t=0.68
0.06889669567647809
% es.EZ (V/m) @ t=0.68
-2.9452910609047613
% es.tEX (V/m) @ t=0.68
-0.9223596203460431
% es.tEY (V/m) @ t=0.68
0
% es.tEZ (V/m) @ t=0.68
-2.945291060904795
% es.Ex (V/m) @ t=0.68
-0.92235962034603
% es.Ey (V/m) @ t=0.68
0.06889669567647809
% es.Ez (V/m) @ t=0.68
-2.9452910609047613
% es.tEx (V/m) @ t=0.68
-0.9223596203460431
% es.tEy (V/m) @ t=0.68
0
% es.tEz (V/m) @ t=0.68
-2.945291060904795
% V (V) @ t=0.68
0.015540892847706477
% es.normE (V/m) @ t=0.7
3.119656791668666
% es.EX (V/m) @ t=0.7
-0.9306566516582233
% es.EY (V/m) @ t=0.7
0.06951644898351413
% es.EZ (V/m) @ t=0.7
-2.971785254783714
% es.tEX (V/m) @ t=0.7
-0.9306566516582322
% es.tEY (V/m) @ t=0.7
0
% es.tEZ (V/m) @ t=0.7
-2.971785254783722
% es.Ex (V/m) @ t=0.7
-0.9306566516582233
% es.Ey (V/m) @ t=0.7
0.06951644898351413
% es.Ez (V/m) @ t=0.7
-2.971785254783714
% es.tEx (V/m) @ t=0.7
-0.9306566516582322
% es.tEy (V/m) @ t=0.7
0
% es.tEz (V/m) @ t=0.7
-2.971785254783722
% V (V) @ t=0.7
0.01568069014393762
% es.normE (V/m) @ t=0.72
3.147469296132348
% es.EX (V/m) @ t=0.72
-0.9389536829704008
% es.EY (V/m) @ t=0.72
0.07013620229057153
% es.EZ (V/m) @ t=0.72
-2.998279448662653
% es.tEX (V/m) @ t=0.72
-0.9389536829703999
% es.tEY (V/m) @ t=0.72
0
% es.tEZ (V/m) @ t=0.72
-2.998279448662675
% es.Ex (V/m) @ t=0.72
-0.9389536829704008
% es.Ey (V/m) @ t=0.72
0.07013620229057153
% es.Ez (V/m) @ t=0.72
-2.998279448662653
% es.tEx (V/m) @ t=0.72
-0.9389536829703999
% es.tEy (V/m) @ t=0.72
0
% es.tEz (V/m) @ t=0.72
-2.998279448662675
% V (V) @ t=0.72
0.01582048744016876
% es.normE (V/m) @ t=0.74
3.1752818005960473
% es.EX (V/m) @ t=0.74
-0.9472507142825909
% es.EY (V/m) @ t=0.74
0.07075595559757862
% es.EZ (V/m) @ t=0.74
-3.0247736425416045
% es.tEX (V/m) @ t=0.74
-0.9472507142826032
% es.tEY (V/m) @ t=0.74
0
% es.tEZ (V/m) @ t=0.74
-3.0247736425416267
% es.Ex (V/m) @ t=0.74
-0.9472507142825909
% es.Ey (V/m) @ t=0.74
0.07075595559757862
% es.Ez (V/m) @ t=0.74
-3.0247736425416045
% es.tEx (V/m) @ t=0.74
-0.9472507142826032
% es.tEy (V/m) @ t=0.74
0
% es.tEz (V/m) @ t=0.74
-3.0247736425416267
% V (V) @ t=0.74
0.0159602847363999
% es.normE (V/m) @ t=0.76
3.2030943050597163
% es.EX (V/m) @ t=0.76
-0.9555477455947683
% es.EY (V/m) @ t=0.76
0.07137570890459023
% es.EZ (V/m) @ t=0.76
-3.0512678364205295
% es.tEX (V/m) @ t=0.76
-0.955547745594771
% es.tEY (V/m) @ t=0.76
0
% es.tEZ (V/m) @ t=0.76
-3.0512678364205517
% es.Ex (V/m) @ t=0.76
-0.9555477455947683
% es.Ey (V/m) @ t=0.76
0.07137570890459023
% es.Ez (V/m) @ t=0.76
-3.0512678364205295
% es.tEx (V/m) @ t=0.76
-0.955547745594771
% es.tEy (V/m) @ t=0.76
0
% es.tEz (V/m) @ t=0.76
-3.0512678364205517
% V (V) @ t=0.76
0.016100082032631045
% es.normE (V/m) @ t=0.78
3.232930656287465
% es.EX (V/m) @ t=0.78
-0.9644485317966578
% es.EY (V/m) @ t=0.78
0.07204056239103687
% es.EZ (V/m) @ t=0.78
-3.0796899465731116
% es.tEX (V/m) @ t=0.78
-0.9644485317966698
% es.tEY (V/m) @ t=0.78
0
% es.tEZ (V/m) @ t=0.78
-3.07968994657314
% es.Ex (V/m) @ t=0.78
-0.9644485317966578
% es.Ey (V/m) @ t=0.78
0.07204056239103687
% es.Ez (V/m) @ t=0.78
-3.0796899465731116
% es.tEx (V/m) @ t=0.78
-0.9644485317966698
% es.tEy (V/m) @ t=0.78
0
% es.tEz (V/m) @ t=0.78
-3.07968994657314
% V (V) @ t=0.78
0.01625005194875253
% es.normE (V/m) @ t=0.8
3.2637935467573294
% es.EX (V/m) @ t=0.8
-0.9736555556534481
% es.EY (V/m) @ t=0.8
0.0727282916726039
% es.EZ (V/m) @ t=0.8
-3.1090899379297197
% es.tEX (V/m) @ t=0.8
-0.9736555556534583
% es.tEY (V/m) @ t=0.8
0
% es.tEZ (V/m) @ t=0.8
-3.1090899379297543
% es.Ex (V/m) @ t=0.8
-0.9736555556534481
% es.Ey (V/m) @ t=0.8
0.0727282916726039
% es.Ez (V/m) @ t=0.8
-3.1090899379297197
% es.tEx (V/m) @ t=0.8
-0.9736555556534583
% es.tEy (V/m) @ t=0.8
0
% es.tEz (V/m) @ t=0.8
-3.1090899379297543
% V (V) @ t=0.8
0.016405181639664364
% es.normE (V/m) @ t=0.82
3.294656437227247
% es.EX (V/m) @ t=0.82
-0.982862579510233
% es.EY (V/m) @ t=0.82
0.07341602095421042
% es.EZ (V/m) @ t=0.82
-3.1384899292863846
% es.tEX (V/m) @ t=0.82
-0.9828625795102468
% es.tEY (V/m) @ t=0.82
0
% es.tEZ (V/m) @ t=0.82
-3.1384899292863917
% es.Ex (V/m) @ t=0.82
-0.982862579510233
% es.Ey (V/m) @ t=0.82
0.07341602095421042
% es.Ez (V/m) @ t=0.82
-3.1384899292863846
% es.tEx (V/m) @ t=0.82
-0.9828625795102468
% es.tEy (V/m) @ t=0.82
0
% es.tEz (V/m) @ t=0.82
-3.1384899292863917
% V (V) @ t=0.82
0.016560311330576196
% es.normE (V/m) @ t=0.84
3.3255193276971347
% es.EX (V/m) @ t=0.84
-0.9920696033670162
% es.EY (V/m) @ t=0.84
0.07410375023577029
% es.EZ (V/m) @ t=0.84
-3.167889920643021
% es.tEX (V/m) @ t=0.84
-0.9920696033670211
% es.tEY (V/m) @ t=0.84
0
% es.tEZ (V/m) @ t=0.84
-3.167889920643045
% es.Ex (V/m) @ t=0.84
-0.9920696033670162
% es.Ey (V/m) @ t=0.84
0.07410375023577029
% es.Ez (V/m) @ t=0.84
-3.167889920643021
% es.tEx (V/m) @ t=0.84
-0.9920696033670211
% es.tEy (V/m) @ t=0.84
0
% es.tEz (V/m) @ t=0.84
-3.167889920643045
% V (V) @ t=0.84
0.016715441021488028
% es.normE (V/m) @ t=0.86
3.3563822181669973
% es.EX (V/m) @ t=0.86
-1.0012766272238012
% es.EY (V/m) @ t=0.86
0.07479147951735908
% es.EZ (V/m) @ t=0.86
-3.197289911999629
% es.tEX (V/m) @ t=0.86
-1.0012766272238025
% es.tEY (V/m) @ t=0.86
0
% es.tEZ (V/m) @ t=0.86
-3.1972899119996416
% es.Ex (V/m) @ t=0.86
-1.0012766272238012
% es.Ey (V/m) @ t=0.86
0.07479147951735908
% es.Ez (V/m) @ t=0.86
-3.197289911999629
% es.tEx (V/m) @ t=0.86
-1.0012766272238025
% es.tEy (V/m) @ t=0.86
0
% es.tEz (V/m) @ t=0.86
-3.1972899119996416
% V (V) @ t=0.86
0.016870570712399863
% es.normE (V/m) @ t=0.88
3.387245108636888
% es.EX (V/m) @ t=0.88
-1.0104836510805895
% es.EY (V/m) @ t=0.88
0.07547920879894701
% es.EZ (V/m) @ t=0.88
-3.2266899033562666
% es.tEX (V/m) @ t=0.88
-1.0104836510805981
% es.tEY (V/m) @ t=0.88
0
% es.tEZ (V/m) @ t=0.88
-3.226689903356295
% es.Ex (V/m) @ t=0.88
-1.0104836510805895
% es.Ey (V/m) @ t=0.88
0.07547920879894701
% es.Ez (V/m) @ t=0.88
-3.2266899033562666
% es.tEx (V/m) @ t=0.88
-1.0104836510805981
% es.tEy (V/m) @ t=0.88
0
% es.tEz (V/m) @ t=0.88
-3.226689903356295
% V (V) @ t=0.88
0.017025700403311698
% es.normE (V/m) @ t=0.9
3.418107999106767
% es.EX (V/m) @ t=0.9
-1.01969067493738
% es.EY (V/m) @ t=0.9
0.07616693808053536
% es.EZ (V/m) @ t=0.9
-3.256089894712889
% es.tEX (V/m) @ t=0.9
-1.0196906749373866
% es.tEY (V/m) @ t=0.9
0
% es.tEZ (V/m) @ t=0.9
-3.2560898947129218
% es.Ex (V/m) @ t=0.9
-1.01969067493738
% es.Ey (V/m) @ t=0.9
0.07616693808053536
% es.Ez (V/m) @ t=0.9
-3.256089894712889
% es.tEx (V/m) @ t=0.9
-1.0196906749373866
% es.tEy (V/m) @ t=0.9
0
% es.tEz (V/m) @ t=0.9
-3.2560898947129218
% V (V) @ t=0.9
0.01718083009422353
% es.normE (V/m) @ t=0.92
3.448970889576624
% es.EX (V/m) @ t=0.92
-1.0288976987941472
% es.EY (V/m) @ t=0.92
0.07685466736211034
% es.EZ (V/m) @ t=0.92
-3.285489886069497
% es.tEX (V/m) @ t=0.92
-1.0288976987941538
% es.tEY (V/m) @ t=0.92
0
% es.tEZ (V/m) @ t=0.92
-3.2854898860695307
% es.Ex (V/m) @ t=0.92
-1.0288976987941472
% es.Ey (V/m) @ t=0.92
0.07685466736211034
% es.Ez (V/m) @ t=0.92
-3.285489886069497
% es.tEx (V/m) @ t=0.92
-1.0288976987941538
% es.tEy (V/m) @ t=0.92
0
% es.tEz (V/m) @ t=0.92
-3.2854898860695307
% V (V) @ t=0.92
0.01733595978513536
% es.normE (V/m) @ t=0.94
3.479833780046542
% es.EX (V/m) @ t=0.94
-1.0381047226509392
% es.EY (V/m) @ t=0.94
0.07754239664368048
% es.EZ (V/m) @ t=0.94
-3.314889877426162
% es.tEX (V/m) @ t=0.94
-1.0381047226509423
% es.tEY (V/m) @ t=0.94
0
% es.tEZ (V/m) @ t=0.94
-3.3148898774261824
% es.Ex (V/m) @ t=0.94
-1.0381047226509392
% es.Ey (V/m) @ t=0.94
0.07754239664368048
% es.Ez (V/m) @ t=0.94
-3.314889877426162
% es.tEx (V/m) @ t=0.94
-1.0381047226509423
% es.tEy (V/m) @ t=0.94
0
% es.tEz (V/m) @ t=0.94
-3.3148898774261824
% V (V) @ t=0.94
0.017491089476047193
% es.normE (V/m) @ t=0.96
3.5106966705164213
% es.EX (V/m) @ t=0.96
-1.0473117465077273
% es.EY (V/m) @ t=0.96
0.0782301259252622
% es.EZ (V/m) @ t=0.96
-3.344289868782786
% es.tEX (V/m) @ t=0.96
-1.047311746507745
% es.tEY (V/m) @ t=0.96
0
% es.tEZ (V/m) @ t=0.96
-3.3442898687828073
% es.Ex (V/m) @ t=0.96
-1.0473117465077273
% es.Ey (V/m) @ t=0.96
0.0782301259252622
% es.Ez (V/m) @ t=0.96
-3.344289868782786
% es.tEx (V/m) @ t=0.96
-1.047311746507745
% es.tEy (V/m) @ t=0.96
0
% es.tEz (V/m) @ t=0.96
-3.3442898687828073
% V (V) @ t=0.96
0.017646219166959024
% es.normE (V/m) @ t=0.98
3.541559560986312
% es.EX (V/m) @ t=0.98
-1.056518770364514
% es.EY (V/m) @ t=0.98
0.0789178552068541
% es.EZ (V/m) @ t=0.98
-3.3736898601394225
% es.tEX (V/m) @ t=0.98
-1.0565187703645336
% es.tEY (V/m) @ t=0.98
0
% es.tEZ (V/m) @ t=0.98
-3.3736898601394483
% es.Ex (V/m) @ t=0.98
-1.056518770364514
% es.Ey (V/m) @ t=0.98
0.0789178552068541
% es.Ez (V/m) @ t=0.98
-3.3736898601394225
% es.tEx (V/m) @ t=0.98
-1.0565187703645336
% es.tEy (V/m) @ t=0.98
0
% es.tEz (V/m) @ t=0.98
-3.3736898601394483
% V (V) @ t=0.98
0.01780134885787086
% es.normE (V/m) @ t=1
3.5724224514561733
% es.EX (V/m) @ t=1
-1.0657257942212954
% es.EY (V/m) @ t=1
0.0796055844884247
% es.EZ (V/m) @ t=1
-3.4030898514960315
% es.tEX (V/m) @ t=1
-1.065725794221315
% es.tEY (V/m) @ t=1
0
% es.tEZ (V/m) @ t=1
-3.4030898514960715
% es.Ex (V/m) @ t=1
-1.0657257942212954
% es.Ey (V/m) @ t=1
0.0796055844884247
% es.Ez (V/m) @ t=1
-3.4030898514960315
% es.tEx (V/m) @ t=1
-1.065725794221315
% es.tEy (V/m) @ t=1
0
% es.tEz (V/m) @ t=1
-3.4030898514960715
% V (V) @ t=1
0.017956478548782698
% es.normE (V/m) @ t=1.02
3.603285341926063
% es.EX (V/m) @ t=1.02
-1.0749328180780804
% es.EY (V/m) @ t=1.02
0.0802933137700064
% es.EZ (V/m) @ t=1.02
-3.432489842852668
% es.tEX (V/m) @ t=1.02
-1.0749328180780893
% es.tEY (V/m) @ t=1.02
0
% es.tEZ (V/m) @ t=1.02
-3.4324898428526964
% es.Ex (V/m) @ t=1.02
-1.0749328180780804
% es.Ey (V/m) @ t=1.02
0.0802933137700064
% es.Ez (V/m) @ t=1.02
-3.432489842852668
% es.tEx (V/m) @ t=1.02
-1.0749328180780893
% es.tEy (V/m) @ t=1.02
0
% es.tEz (V/m) @ t=1.02
-3.4324898428526964
% V (V) @ t=1.02
0.01811160823969453
% es.normE (V/m) @ t=1.04
3.6354802834115705