% Model:              1 neuron.mph
% Version:            COMSOL 6.1.0.252
% Date:               Mar 22 2023, 19:39
% Dimension:          0
% Nodes:              14017
% Expressions:        14017
% Description:        Electric field norm, Electric field, X component, Electric field, Y component, Electric field, Z component, Tangential electric field, X component, Tangential electric field, Y component, Tangential electric field, Z component, Electric field, x component, Electric field, y component, Electric field, z component, Tangential electric field, x component, Tangential electric field, y component, Tangential electric field, z component, Electric potential
% Length unit:        mm
% x
1.0000000000000002
% y
12.2
% z
2
% es.normE (V/m) @ t=0
1.2720980969464613
% es.EX (V/m) @ t=0
0.8836089757088883
% es.EY (V/m) @ t=0
0.13231077943220004
% es.EZ (V/m) @ t=0
-0.8823202654231257
% es.tEX (V/m) @ t=0
0.8836089757088912
% es.tEY (V/m) @ t=0
0
% es.tEZ (V/m) @ t=0
-0.8823202654231075
% es.Ex (V/m) @ t=0
0.8836089757088883
% es.Ey (V/m) @ t=0
0.13231077943220004
% es.Ez (V/m) @ t=0
-0.8823202654231257
% es.tEx (V/m) @ t=0
0.8836089757088912
% es.tEy (V/m) @ t=0
0
% es.tEz (V/m) @ t=0
-0.8823202654231075
% V (V) @ t=0
0.013622490249229149
% es.normE (V/m) @ t=0.02
1.0987263793328088
% es.EX (V/m) @ t=0.02
0.7631836671253454
% es.EY (V/m) @ t=0.02
0.1142784069723452
% es.EZ (V/m) @ t=0.02
-0.7620705925866567
% es.tEX (V/m) @ t=0.02
0.7631836671253529
% es.tEY (V/m) @ t=0.02
0
% es.tEZ (V/m) @ t=0.02
-0.7620705925866496
% es.Ex (V/m) @ t=0.02
0.7631836671253454
% es.Ey (V/m) @ t=0.02
0.1142784069723452
% es.Ez (V/m) @ t=0.02
-0.7620705925866567
% es.tEx (V/m) @ t=0.02
0.7631836671253529
% es.tEy (V/m) @ t=0.02
0
% es.tEz (V/m) @ t=0.02
-0.7620705925866496
% V (V) @ t=0.02
0.011765908155339332
% es.normE (V/m) @ t=0.04
1.108836252312794
% es.EX (V/m) @ t=0.04
0.7702060612750232
% es.EY (V/m) @ t=0.04
0.11532993529001828
% es.EZ (V/m) @ t=0.04
-0.7690827447667341
% es.tEX (V/m) @ t=0.04
0.7702060612750254
% es.tEY (V/m) @ t=0.04
0
% es.tEZ (V/m) @ t=0.04
-0.7690827447667195
% es.Ex (V/m) @ t=0.04
0.7702060612750232
% es.Ey (V/m) @ t=0.04
0.11532993529001828
% es.Ez (V/m) @ t=0.04
-0.7690827447667341
% es.tEx (V/m) @ t=0.04
0.7702060612750254
% es.tEy (V/m) @ t=0.04
0
% es.tEz (V/m) @ t=0.04
-0.7690827447667195
% V (V) @ t=0.04
0.011874171478814931
% es.normE (V/m) @ t=0.06
1.119018627710975
% es.EX (V/m) @ t=0.06
0.7772788161488704
% es.EY (V/m) @ t=0.06
0.11638900462122337
% es.EZ (V/m) @ t=0.06
-0.7761451842140903
% es.tEX (V/m) @ t=0.06
0.7772788161488728
% es.tEY (V/m) @ t=0.06
0
% es.tEZ (V/m) @ t=0.06
-0.7761451842140756
% es.Ex (V/m) @ t=0.06
0.7772788161488704
% es.Ey (V/m) @ t=0.06
0.11638900462122337
% es.Ez (V/m) @ t=0.06
-0.7761451842140903
% es.tEx (V/m) @ t=0.06
0.7772788161488728
% es.tEy (V/m) @ t=0.06
0
% es.tEz (V/m) @ t=0.06
-0.7761451842140756
% V (V) @ t=0.06
0.011983211206338953
% es.normE (V/m) @ t=0.08
1.129398812669867
% es.EX (V/m) @ t=0.08
0.7844889713610355
% es.EY (V/m) @ t=0.08
0.11746864577402927
% es.EZ (V/m) @ t=0.08
-0.7833448237203968
% es.tEX (V/m) @ t=0.08
0.7844889713610379
% es.tEY (V/m) @ t=0.08
0
% es.tEZ (V/m) @ t=0.08
-0.7833448237203857
% es.Ex (V/m) @ t=0.08
0.7844889713610355
% es.Ey (V/m) @ t=0.08
0.11746864577402927
% es.Ez (V/m) @ t=0.08
-0.7833448237203968
% es.tEx (V/m) @ t=0.08
0.7844889713610379
% es.tEy (V/m) @ t=0.08
0
% es.tEz (V/m) @ t=0.08
-0.7833448237203857
% V (V) @ t=0.08
0.012094369303548468
% es.normE (V/m) @ t=0.1
1.1398280782928816
% es.EX (V/m) @ t=0.1
0.7917332184534436
% es.EY (V/m) @ t=0.1
0.11855339122341368
% es.EZ (V/m) @ t=0.1
-0.7905785054134813
% es.tEX (V/m) @ t=0.1
0.7917332184534502
% es.tEY (V/m) @ t=0.1
0
% es.tEZ (V/m) @ t=0.1
-0.7905785054134702
% es.Ex (V/m) @ t=0.1
0.7917332184534436
% es.Ey (V/m) @ t=0.1
0.11855339122341368
% es.Ez (V/m) @ t=0.1
-0.7905785054134813
% es.tEx (V/m) @ t=0.1
0.7917332184534502
% es.tEy (V/m) @ t=0.1
0
% es.tEz (V/m) @ t=0.1
-0.7905785054134702
% V (V) @ t=0.1
0.012206053012314012
% es.normE (V/m) @ t=0.12
1.1502573439159098
% es.EX (V/m) @ t=0.12
0.7989774655458539
% es.EY (V/m) @ t=0.12
0.11963813667278794
% es.EZ (V/m) @ t=0.12
-0.7978121871065871
% es.tEX (V/m) @ t=0.12
0.7989774655458599
% es.tEY (V/m) @ t=0.12
0
% es.tEZ (V/m) @ t=0.12
-0.7978121871065689
% es.Ex (V/m) @ t=0.12
0.7989774655458539
% es.Ey (V/m) @ t=0.12
0.11963813667278794
% es.Ez (V/m) @ t=0.12
-0.7978121871065871
% es.tEx (V/m) @ t=0.12
0.7989774655458599
% es.tEy (V/m) @ t=0.12
0
% es.tEz (V/m) @ t=0.12
-0.7978121871065689
% V (V) @ t=0.12
0.012317736721079553
% es.normE (V/m) @ t=0.14
1.1610034268933043
% es.EX (V/m) @ t=0.14
0.8064417760938487
% es.EY (V/m) @ t=0.14
0.12075583622961444
% es.EZ (V/m) @ t=0.14
-0.8052656112279437
% es.tEX (V/m) @ t=0.14
0.8064417760938536
% es.tEY (V/m) @ t=0.14
0
% es.tEZ (V/m) @ t=0.14
-0.8052656112279326
% es.Ex (V/m) @ t=0.14
0.8064417760938487
% es.Ey (V/m) @ t=0.14
0.12075583622961444
% es.Ez (V/m) @ t=0.14
-0.8052656112279437
% es.tEx (V/m) @ t=0.14
0.8064417760938536
% es.tEy (V/m) @ t=0.14
0
% es.tEz (V/m) @ t=0.14
-0.8052656112279326
% V (V) @ t=0.14
0.012432813047334252
% es.normE (V/m) @ t=0.16
1.1719532219287785
% es.EX (V/m) @ t=0.16
0.8140475864013246
% es.EY (V/m) @ t=0.16
0.12189472512142596
% es.EZ (V/m) @ t=0.16
-0.8128603286897556
% es.tEX (V/m) @ t=0.16
0.8140475864013208
% es.tEY (V/m) @ t=0.16
0
% es.tEZ (V/m) @ t=0.16
-0.8128603286897444
% es.Ex (V/m) @ t=0.16
0.8140475864013246
% es.Ey (V/m) @ t=0.16
0.12189472512142596
% es.Ez (V/m) @ t=0.16
-0.8128603286897556
% es.tEx (V/m) @ t=0.16
0.8140475864013208
% es.tEy (V/m) @ t=0.16
0
% es.tEz (V/m) @ t=0.16
-0.8128603286897444
% V (V) @ t=0.16
0.012550070810563346
% es.normE (V/m) @ t=0.18
1.182903016964243
% es.EX (V/m) @ t=0.18
0.8216533967087958
% es.EY (V/m) @ t=0.18
0.12303361401323465
% es.EZ (V/m) @ t=0.18
-0.8204550461515532
% es.tEX (V/m) @ t=0.18
0.8216533967088009
% es.tEY (V/m) @ t=0.18
0
% es.tEZ (V/m) @ t=0.18
-0.8204550461515421
% es.Ex (V/m) @ t=0.18
0.8216533967087958
% es.Ey (V/m) @ t=0.18
0.12303361401323465
% es.Ez (V/m) @ t=0.18
-0.8204550461515532
% es.tEx (V/m) @ t=0.18
0.8216533967088009
% es.tEy (V/m) @ t=0.18
0
% es.tEz (V/m) @ t=0.18
-0.8204550461515421
% V (V) @ t=0.18
0.012667328573792444
% es.normE (V/m) @ t=0.2
1.193852811999714
% es.EX (V/m) @ t=0.2
0.8292592070162714
% es.EY (V/m) @ t=0.2
0.12417250290505127
% es.EZ (V/m) @ t=0.2
-0.8280497636133588
% es.tEX (V/m) @ t=0.2
0.8292592070162788
% es.tEY (V/m) @ t=0.2
0
% es.tEZ (V/m) @ t=0.2
-0.8280497636133406
% es.Ex (V/m) @ t=0.2
0.8292592070162714
% es.Ey (V/m) @ t=0.2
0.12417250290505127
% es.Ez (V/m) @ t=0.2
-0.8280497636133588
% es.tEx (V/m) @ t=0.2
0.8292592070162788
% es.tEy (V/m) @ t=0.2
0
% es.tEz (V/m) @ t=0.2
-0.8280497636133406
% V (V) @ t=0.2
0.012784586337021541
% es.normE (V/m) @ t=0.22
1.2048026070351956
% es.EX (V/m) @ t=0.22
0.836865017323748
% es.EY (V/m) @ t=0.22
0.1253113917968644
% es.EZ (V/m) @ t=0.22
-0.8356444810751742
% es.tEX (V/m) @ t=0.22
0.8368650173237517
% es.tEY (V/m) @ t=0.22
0
% es.tEZ (V/m) @ t=0.22
-0.8356444810751595
% es.Ex (V/m) @ t=0.22
0.836865017323748
% es.Ey (V/m) @ t=0.22
0.1253113917968644
% es.Ez (V/m) @ t=0.22
-0.8356444810751742
% es.tEx (V/m) @ t=0.22
0.8368650173237517
% es.tEy (V/m) @ t=0.22
0
% es.tEz (V/m) @ t=0.22
-0.8356444810751595
% V (V) @ t=0.22
0.01290184410025064
% es.normE (V/m) @ t=0.24
1.215752402070663
% es.EX (V/m) @ t=0.24
0.8444708276312201
% es.EY (V/m) @ t=0.24
0.12645028068867836
% es.EZ (V/m) @ t=0.24
-0.8432391985369829
% es.tEX (V/m) @ t=0.24
0.8444708276312327
% es.tEY (V/m) @ t=0.24
0
% es.tEZ (V/m) @ t=0.24
-0.8432391985369723
% es.Ex (V/m) @ t=0.24
0.8444708276312201
% es.Ey (V/m) @ t=0.24
0.12645028068867836
% es.Ez (V/m) @ t=0.24
-0.8432391985369829
% es.tEx (V/m) @ t=0.24
0.8444708276312327
% es.tEy (V/m) @ t=0.24
0
% es.tEz (V/m) @ t=0.24
-0.8432391985369723
% V (V) @ t=0.24
0.013019101863479737
% es.normE (V/m) @ t=0.26
1.2269619384118582
% es.EX (V/m) @ t=0.26
0.8522570564007104
% es.EY (V/m) @ t=0.26
0.12761618392297347
% es.EZ (V/m) @ t=0.26
-0.8510140713834455
% es.tEX (V/m) @ t=0.26
0.8522570564007155
% es.tEY (V/m) @ t=0.26
0
% es.tEZ (V/m) @ t=0.26
-0.8510140713834273
% es.Ex (V/m) @ t=0.26
0.8522570564007104
% es.Ey (V/m) @ t=0.26
0.12761618392297347
% es.Ez (V/m) @ t=0.26
-0.8510140713834455
% es.tEx (V/m) @ t=0.26
0.8522570564007155
% es.tEy (V/m) @ t=0.26
0
% es.tEz (V/m) @ t=0.26
-0.8510140713834273
% V (V) @ t=0.26
0.013139141165607788
% es.normE (V/m) @ t=0.28
1.2390737599134403
% es.EX (V/m) @ t=0.28
0.8606700199149302
% es.EY (V/m) @ t=0.28
0.1288759291447139
% es.EZ (V/m) @ t=0.28
-0.8594147651007424
% es.tEX (V/m) @ t=0.28
0.8606700199149335
% es.tEY (V/m) @ t=0.28
0
% es.tEZ (V/m) @ t=0.28
-0.8594147651007278
% es.Ex (V/m) @ t=0.28
0.8606700199149302
% es.Ey (V/m) @ t=0.28
0.1288759291447139
% es.Ez (V/m) @ t=0.28
-0.8594147651007424
% es.tEx (V/m) @ t=0.28
0.8606700199149335
% es.tEy (V/m) @ t=0.28
0
% es.tEz (V/m) @ t=0.28
-0.8594147651007278
% V (V) @ t=0.28
0.013268842932720942
% es.normE (V/m) @ t=0.3
1.251185581415021
% es.EX (V/m) @ t=0.3
0.8690829834291398
% es.EY (V/m) @ t=0.3
0.1301356743664442
% es.EZ (V/m) @ t=0.3
-0.86781545881805
% es.tEX (V/m) @ t=0.3
0.8690829834291427
% es.tEY (V/m) @ t=0.3
0
% es.tEZ (V/m) @ t=0.3
-0.8678154588180353
% es.Ex (V/m) @ t=0.3
0.8690829834291398
% es.Ey (V/m) @ t=0.3
0.1301356743664442
% es.Ez (V/m) @ t=0.3
-0.86781545881805
% es.tEx (V/m) @ t=0.3
0.8690829834291427
% es.tEy (V/m) @ t=0.3
0
% es.tEz (V/m) @ t=0.3
-0.8678154588180353
% V (V) @ t=0.3
0.013398544699834095
% es.normE (V/m) @ t=0.32
1.2632974029166015
% es.EX (V/m) @ t=0.32
0.877495946943361
% es.EY (V/m) @ t=0.32
0.13139541958818463
% es.EZ (V/m) @ t=0.32
-0.8762161525353434
% es.tEX (V/m) @ t=0.32
0.8774959469433603
% es.tEY (V/m) @ t=0.32
0
% es.tEZ (V/m) @ t=0.32
-0.8762161525353287
% es.Ex (V/m) @ t=0.32
0.877495946943361
% es.Ey (V/m) @ t=0.32
0.13139541958818463
% es.Ez (V/m) @ t=0.32
-0.8762161525353434
% es.tEx (V/m) @ t=0.32
0.8774959469433603
% es.tEy (V/m) @ t=0.32
0
% es.tEz (V/m) @ t=0.32
-0.8762161525353287
% V (V) @ t=0.32
0.013528246466947247
% es.normE (V/m) @ t=0.34
1.2754092244181938
% es.EX (V/m) @ t=0.34
0.8859089104575724
% es.EY (V/m) @ t=0.34
0.13265516480992573
% es.EZ (V/m) @ t=0.34
-0.884616846252658
% es.tEX (V/m) @ t=0.34
0.8859089104575704
% es.tEY (V/m) @ t=0.34
0
% es.tEZ (V/m) @ t=0.34
-0.8846168462526434
% es.Ex (V/m) @ t=0.34
0.8859089104575724
% es.Ey (V/m) @ t=0.34
0.13265516480992573
% es.Ez (V/m) @ t=0.34
-0.884616846252658
% es.tEx (V/m) @ t=0.34
0.8859089104575704
% es.tEy (V/m) @ t=0.34
0
% es.tEz (V/m) @ t=0.34
-0.8846168462526434
% V (V) @ t=0.34
0.0136579482340604
% es.normE (V/m) @ t=0.36
1.2875210459197666
% es.EX (V/m) @ t=0.36
0.8943218739717873
% es.EY (V/m) @ t=0.36
0.13391491003166617
% es.EZ (V/m) @ t=0.36
-0.8930175399699478
% es.tEX (V/m) @ t=0.36
0.8943218739717924
% es.tEY (V/m) @ t=0.36
0
% es.tEZ (V/m) @ t=0.36
-0.8930175399699296
% es.Ex (V/m) @ t=0.36
0.8943218739717873
% es.Ey (V/m) @ t=0.36
0.13391491003166617
% es.Ez (V/m) @ t=0.36
-0.8930175399699478
% es.tEx (V/m) @ t=0.36
0.8943218739717924
% es.tEy (V/m) @ t=0.36
0
% es.tEz (V/m) @ t=0.36
-0.8930175399699296
% V (V) @ t=0.36
0.013787650001173553
% es.normE (V/m) @ t=0.38
1.2996328674213564
% es.EX (V/m) @ t=0.38
0.9027348374860045
% es.EY (V/m) @ t=0.38
0.1351746552533915
% es.EZ (V/m) @ t=0.38
-0.9014182336872545
% es.tEX (V/m) @ t=0.38
0.9027348374860056
% es.tEY (V/m) @ t=0.38
0
% es.tEZ (V/m) @ t=0.38
-0.9014182336872363
% es.Ex (V/m) @ t=0.38
0.9027348374860045
% es.Ey (V/m) @ t=0.38
0.1351746552533915
% es.Ez (V/m) @ t=0.38
-0.9014182336872545
% es.tEx (V/m) @ t=0.38
0.9027348374860056
% es.tEy (V/m) @ t=0.38
0
% es.tEz (V/m) @ t=0.38
-0.9014182336872363
% V (V) @ t=0.38
0.013917351768286707
% es.normE (V/m) @ t=0.4
1.3117446889229543
% es.EX (V/m) @ t=0.4
0.9111478010002212
% es.EY (V/m) @ t=0.4
0.1364344004751351
% es.EZ (V/m) @ t=0.4
-0.9098189274045771
% es.tEX (V/m) @ t=0.4
0.9111478010002263
% es.tEY (V/m) @ t=0.4
0
% es.tEZ (V/m) @ t=0.4
-0.9098189274045589
% es.Ex (V/m) @ t=0.4
0.9111478010002212
% es.Ey (V/m) @ t=0.4
0.1364344004751351
% es.Ez (V/m) @ t=0.4
-0.9098189274045771
% es.tEx (V/m) @ t=0.4
0.9111478010002263
% es.tEy (V/m) @ t=0.4
0
% es.tEz (V/m) @ t=0.4
-0.9098189274045589
% V (V) @ t=0.4
0.014047053535399857
% es.normE (V/m) @ t=0.42
1.3238565104245246
% es.EX (V/m) @ t=0.42
0.9195607645144357
% es.EY (V/m) @ t=0.42
0.13769414569685134
% es.EZ (V/m) @ t=0.42
-0.9182196211218634
% es.tEX (V/m) @ t=0.42
0.9195607645144372
% es.tEY (V/m) @ t=0.42
0
% es.tEZ (V/m) @ t=0.42
-0.9182196211218523
% es.Ex (V/m) @ t=0.42
0.9195607645144357
% es.Ey (V/m) @ t=0.42
0.13769414569685134
% es.Ez (V/m) @ t=0.42
-0.9182196211218634
% es.tEx (V/m) @ t=0.42
0.9195607645144372
% es.tEy (V/m) @ t=0.42
0
% es.tEz (V/m) @ t=0.42
-0.9182196211218523
% V (V) @ t=0.42
0.01417675530251301
% es.normE (V/m) @ t=0.44
1.3359683319261182
% es.EX (V/m) @ t=0.44
0.9279737280286584
% es.EY (V/m) @ t=0.44
0.13895389091860977
% es.EZ (V/m) @ t=0.44
-0.9266203148391772
% es.tEX (V/m) @ t=0.44
0.9279737280286575
% es.tEY (V/m) @ t=0.44
0
% es.tEZ (V/m) @ t=0.44
-0.9266203148391661
% es.Ex (V/m) @ t=0.44
0.9279737280286584
% es.Ey (V/m) @ t=0.44
0.13895389091860977
% es.Ez (V/m) @ t=0.44
-0.9266203148391772
% es.tEx (V/m) @ t=0.44
0.9279737280286575
% es.tEy (V/m) @ t=0.44
0
% es.tEz (V/m) @ t=0.44
-0.9266203148391661
% V (V) @ t=0.44
0.014306457069626164
% es.normE (V/m) @ t=0.46
1.3480801534277131
% es.EX (V/m) @ t=0.46
0.9363866915428753
% es.EY (V/m) @ t=0.46
0.1402136361403189
% es.EZ (V/m) @ t=0.46
-0.935021008556499
% es.tEX (V/m) @ t=0.46
0.9363866915428813
% es.tEY (V/m) @ t=0.46
0
% es.tEZ (V/m) @ t=0.46
-0.9350210085564807
% es.Ex (V/m) @ t=0.46
0.9363866915428753
% es.Ey (V/m) @ t=0.46
0.1402136361403189
% es.Ez (V/m) @ t=0.46
-0.935021008556499
% es.tEx (V/m) @ t=0.46
0.9363866915428813
% es.tEy (V/m) @ t=0.46
0
% es.tEz (V/m) @ t=0.46
-0.9350210085564807
% V (V) @ t=0.46
0.014436158836739316
% es.normE (V/m) @ t=0.48
1.3601919749292746
% es.EX (V/m) @ t=0.48
0.9447996550570936
% es.EY (V/m) @ t=0.48
0.14147338136206072
% es.EZ (V/m) @ t=0.48
-0.9434217022737648
% es.tEX (V/m) @ t=0.48
0.9447996550570954
% es.tEY (V/m) @ t=0.48
0
% es.tEZ (V/m) @ t=0.48
-0.9434217022737466
% es.Ex (V/m) @ t=0.48
0.9447996550570936
% es.Ey (V/m) @ t=0.48
0.14147338136206072
% es.Ez (V/m) @ t=0.48
-0.9434217022737648
% es.tEx (V/m) @ t=0.48
0.9447996550570954
% es.tEy (V/m) @ t=0.48
0
% es.tEz (V/m) @ t=0.48
-0.9434217022737466
% V (V) @ t=0.48
0.01456586060385247
% es.normE (V/m) @ t=0.5
1.3723037964308749
% es.EX (V/m) @ t=0.5
0.9532126185713123
% es.EY (V/m) @ t=0.5
0.14273312658380582
% es.EZ (V/m) @ t=0.5
-0.9518223959910856
% es.tEX (V/m) @ t=0.5
0.953212618571317
% es.tEY (V/m) @ t=0.5
0
% es.tEZ (V/m) @ t=0.5
-0.9518223959910674
% es.Ex (V/m) @ t=0.5
0.9532126185713123
% es.Ey (V/m) @ t=0.5
0.14273312658380582
% es.Ez (V/m) @ t=0.5
-0.9518223959910856
% es.tEx (V/m) @ t=0.5
0.953212618571317
% es.tEy (V/m) @ t=0.5
0
% es.tEz (V/m) @ t=0.5
-0.9518223959910674
% V (V) @ t=0.5
0.014695562370965623
% es.normE (V/m) @ t=0.52
1.3850076447039736
% es.EX (V/m) @ t=0.52
0.9620368081210227
% es.EY (V/m) @ t=0.52
0.14405445024284447
% es.EZ (V/m) @ t=0.52
-0.960633715900582
% es.tEX (V/m) @ t=0.52
0.9620368081210264
% es.tEY (V/m) @ t=0.52
0
% es.tEZ (V/m) @ t=0.52
-0.9606337159005642
% es.Ex (V/m) @ t=0.52
0.9620368081210227
% es.Ey (V/m) @ t=0.52
0.14405445024284447
% es.Ez (V/m) @ t=0.52
-0.960633715900582
% es.tEx (V/m) @ t=0.52
0.9620368081210264
% es.tEy (V/m) @ t=0.52
0
% es.tEz (V/m) @ t=0.52
-0.9606337159005642
% V (V) @ t=0.52
0.014831603891161076
% es.normE (V/m) @ t=0.54
1.3984255487875368
% es.EX (V/m) @ t=0.54
0.9713569859506019
% es.EY (V/m) @ t=0.54
0.14545004493665137
% es.EZ (V/m) @ t=0.54
-0.9699403006065199
% es.tEX (V/m) @ t=0.54
0.9713569859506079
% es.tEY (V/m) @ t=0.54
0
% es.tEZ (V/m) @ t=0.54
-0.9699403006065017
% es.Ex (V/m) @ t=0.54
0.9713569859506019
% es.Ey (V/m) @ t=0.54
0.14545004493665137
% es.Ez (V/m) @ t=0.54
-0.9699403006065199
% es.tEx (V/m) @ t=0.54
0.9713569859506079
% es.tEy (V/m) @ t=0.54
0
% es.tEz (V/m) @ t=0.54
-0.9699403006065017
% V (V) @ t=0.54
0.014975291919492408
% es.normE (V/m) @ t=0.56
1.4118434528710853
% es.EX (V/m) @ t=0.56
0.9806771637801899
% es.EY (V/m) @ t=0.56
0.14684563963050534
% es.EZ (V/m) @ t=0.56
-0.9792468853124343
% es.tEX (V/m) @ t=0.56
0.9806771637801934
% es.tEY (V/m) @ t=0.56
0
% es.tEZ (V/m) @ t=0.56
-0.9792468853124197
% es.Ex (V/m) @ t=0.56
0.9806771637801899
% es.Ey (V/m) @ t=0.56
0.14684563963050534
% es.Ez (V/m) @ t=0.56
-0.9792468853124343
% es.tEx (V/m) @ t=0.56
0.9806771637801934
% es.tEy (V/m) @ t=0.56
0
% es.tEz (V/m) @ t=0.56
-0.9792468853124197
% V (V) @ t=0.56
0.015118979947823732
% es.normE (V/m) @ t=0.58
1.425261356954656
% es.EX (V/m) @ t=0.58
0.9899973416097934
% es.EY (V/m) @ t=0.58
0.14824123432430847
% es.EZ (V/m) @ t=0.58
-0.988553470018362
% es.tEX (V/m) @ t=0.58
0.9899973416097971
% es.tEY (V/m) @ t=0.58
0
% es.tEZ (V/m) @ t=0.58
-0.9885534700183509
% es.Ex (V/m) @ t=0.58
0.9899973416097934
% es.Ey (V/m) @ t=0.58
0.14824123432430847
% es.Ez (V/m) @ t=0.58
-0.988553470018362
% es.tEx (V/m) @ t=0.58
0.9899973416097971
% es.tEy (V/m) @ t=0.58
0
% es.tEz (V/m) @ t=0.58
-0.9885534700183509
% V (V) @ t=0.58
0.015262667976155055
% es.normE (V/m) @ t=0.6
1.4386792610381933
% es.EX (V/m) @ t=0.6
0.9993175194393731
% es.EY (V/m) @ t=0.6
0.149636829018152
% es.EZ (V/m) @ t=0.6
-0.9978600547242649
% es.tEX (V/m) @ t=0.6
0.9993175194393786
% es.tEY (V/m) @ t=0.6
0
% es.tEZ (V/m) @ t=0.6
-0.9978600547242467
% es.Ex (V/m) @ t=0.6
0.9993175194393731
% es.Ey (V/m) @ t=0.6
0.149636829018152
% es.Ez (V/m) @ t=0.6
-0.9978600547242649
% es.tEx (V/m) @ t=0.6
0.9993175194393786
% es.tEy (V/m) @ t=0.6
0
% es.tEz (V/m) @ t=0.6
-0.9978600547242467
% V (V) @ t=0.6
0.015406356004486383
% es.normE (V/m) @ t=0.62
1.452097165121763
% es.EX (V/m) @ t=0.62
1.0086376972689652
% es.EY (V/m) @ t=0.62
0.1510324237119754
% es.EZ (V/m) @ t=0.62
-1.0071666394302041
% es.tEX (V/m) @ t=0.62
1.0086376972689637
% es.tEY (V/m) @ t=0.62
0
% es.tEZ (V/m) @ t=0.62
-1.007166639430186
% es.Ex (V/m) @ t=0.62
1.0086376972689652
% es.Ey (V/m) @ t=0.62
0.1510324237119754
% es.Ez (V/m) @ t=0.62
-1.0071666394302041
% es.tEx (V/m) @ t=0.62
1.0086376972689637
% es.tEy (V/m) @ t=0.62
0
% es.tEz (V/m) @ t=0.62
-1.007166639430186
% V (V) @ t=0.62
0.015550044032817713
% es.normE (V/m) @ t=0.64
1.4655150692053345
% es.EX (V/m) @ t=0.64
1.017957875098556
% es.EY (V/m) @ t=0.64
0.15242801840580716
% es.EZ (V/m) @ t=0.64
-1.016473224136146
% es.tEX (V/m) @ t=0.64
1.017957875098558
% es.tEY (V/m) @ t=0.64
0
% es.tEZ (V/m) @ t=0.64
-1.0164732241361243
% es.Ex (V/m) @ t=0.64
1.017957875098556
% es.Ey (V/m) @ t=0.64
0.15242801840580716
% es.Ez (V/m) @ t=0.64
-1.016473224136146
% es.tEx (V/m) @ t=0.64
1.017957875098558
% es.tEy (V/m) @ t=0.64
0
% es.tEz (V/m) @ t=0.64
-1.0164732241361243
% V (V) @ t=0.64
0.01569373206114904
% es.normE (V/m) @ t=0.66
1.4789329732888523
% es.EX (V/m) @ t=0.66
1.0272780529281358
% es.EY (V/m) @ t=0.66
0.15382361309963521
% es.EZ (V/m) @ t=0.66
-1.0257798088420214
% es.tEX (V/m) @ t=0.66
1.0272780529281342
% es.tEY (V/m) @ t=0.66
0
% es.tEZ (V/m) @ t=0.66
-1.0257798088420067
% es.Ex (V/m) @ t=0.66
1.0272780529281358
% es.Ey (V/m) @ t=0.66
0.15382361309963521
% es.Ez (V/m) @ t=0.66
-1.0257798088420214
% es.tEx (V/m) @ t=0.66
1.0272780529281342
% es.tEy (V/m) @ t=0.66
0
% es.tEz (V/m) @ t=0.66
-1.0257798088420067
% V (V) @ t=0.66
0.015837420089480362
% es.normE (V/m) @ t=0.68
1.492350877372428
% es.EX (V/m) @ t=0.68
1.036598230757724
% es.EY (V/m) @ t=0.68
0.15521920779346277
% es.EZ (V/m) @ t=0.68
-1.035086393547974
% es.tEX (V/m) @ t=0.68
1.0365982307577295
% es.tEY (V/m) @ t=0.68
0
% es.tEZ (V/m) @ t=0.68
-1.0350863935479522
% es.Ex (V/m) @ t=0.68
1.036598230757724
% es.Ey (V/m) @ t=0.68
0.15521920779346277
% es.Ez (V/m) @ t=0.68
-1.035086393547974
% es.tEx (V/m) @ t=0.68
1.0365982307577295
% es.tEy (V/m) @ t=0.68
0
% es.tEz (V/m) @ t=0.68
-1.0350863935479522
% V (V) @ t=0.68
0.015981108117811692
% es.normE (V/m) @ t=0.7
1.5057687814559841
% es.EX (V/m) @ t=0.7
1.045918408587317
% es.EY (V/m) @ t=0.7
0.15661480248729026
% es.EZ (V/m) @ t=0.7
-1.044392978253883
% es.tEX (V/m) @ t=0.7
1.045918408587322
% es.tEY (V/m) @ t=0.7
0
% es.tEZ (V/m) @ t=0.7
-1.0443929782538612
% es.Ex (V/m) @ t=0.7
1.045918408587317
% es.Ey (V/m) @ t=0.7
0.15661480248729026
% es.Ez (V/m) @ t=0.7
-1.044392978253883
% es.tEx (V/m) @ t=0.7
1.045918408587322
% es.tEy (V/m) @ t=0.7
0
% es.tEz (V/m) @ t=0.7
-1.0443929782538612
% V (V) @ t=0.7
0.016124796146143025
% es.normE (V/m) @ t=0.72
1.5191866855395362
% es.EX (V/m) @ t=0.72
1.0552385864169056
% es.EY (V/m) @ t=0.72
0.15801039718110937
% es.EZ (V/m) @ t=0.72
-1.053699562959801
% es.tEX (V/m) @ t=0.72
1.0552385864169067
% es.tEY (V/m) @ t=0.72
0
% es.tEZ (V/m) @ t=0.72
-1.0536995629597792
% es.Ex (V/m) @ t=0.72
1.0552385864169056
% es.Ey (V/m) @ t=0.72
0.15801039718110937
% es.Ez (V/m) @ t=0.72
-1.053699562959801
% es.tEx (V/m) @ t=0.72
1.0552385864169067
% es.tEy (V/m) @ t=0.72
0
% es.tEz (V/m) @ t=0.72
-1.0536995629597792
% V (V) @ t=0.72
0.01626848417447435
% es.normE (V/m) @ t=0.74
1.5326045896230989
% es.EX (V/m) @ t=0.74
1.0645587642464973
% es.EY (V/m) @ t=0.74
0.1594059918749507
% es.EZ (V/m) @ t=0.74
-1.0630061476657287
% es.tEX (V/m) @ t=0.74
1.0645587642464958
% es.tEY (V/m) @ t=0.74
0
% es.tEZ (V/m) @ t=0.74
-1.0630061476657104
% es.Ex (V/m) @ t=0.74
1.0645587642464973
% es.Ey (V/m) @ t=0.74
0.1594059918749507
% es.Ez (V/m) @ t=0.74
-1.0630061476657287
% es.tEx (V/m) @ t=0.74
1.0645587642464958
% es.tEy (V/m) @ t=0.74
0
% es.tEz (V/m) @ t=0.74
-1.0630061476657104
% V (V) @ t=0.74
0.016412172202805674
% es.normE (V/m) @ t=0.76
1.5460224937066296
% es.EX (V/m) @ t=0.76
1.073878942076077
% es.EY (V/m) @ t=0.76
0.1608015865687658
% es.EZ (V/m) @ t=0.76
-1.0723127323716213
% es.tEX (V/m) @ t=0.76
1.0738789420760826
% es.tEY (V/m) @ t=0.76
0
% es.tEZ (V/m) @ t=0.76
-1.072312732371599
% es.Ex (V/m) @ t=0.76
1.073878942076077
% es.Ey (V/m) @ t=0.76
0.1608015865687658
% es.Ez (V/m) @ t=0.76
-1.0723127323716213
% es.tEx (V/m) @ t=0.76
1.0738789420760826
% es.tEy (V/m) @ t=0.76
0
% es.tEz (V/m) @ t=0.76
-1.072312732371599
% V (V) @ t=0.76
0.016555860231137004
% es.normE (V/m) @ t=0.78
1.5604448682863228
% es.EX (V/m) @ t=0.78
1.0838968326910867
% es.EY (V/m) @ t=0.78
0.16230165635488947
% es.EZ (V/m) @ t=0.78
-1.0823160122640858
% es.tEX (V/m) @ t=0.78
1.0838968326910914
% es.tEY (V/m) @ t=0.78
0
% es.tEZ (V/m) @ t=0.78
-1.082316012264064
% es.Ex (V/m) @ t=0.78
1.0838968326910867
% es.Ey (V/m) @ t=0.78
0.16230165635488947
% es.Ez (V/m) @ t=0.78
-1.0823160122640858
% es.tEx (V/m) @ t=0.78
1.0838968326910914
% es.tEy (V/m) @ t=0.78
0
% es.tEz (V/m) @ t=0.78
-1.082316012264064
% V (V) @ t=0.78
0.01671030480252477
% es.normE (V/m) @ t=0.8
1.575333351355971
% es.EX (V/m) @ t=0.8
1.0942384857800318
% es.EY (V/m) @ t=0.8
0.16385020613891693
% es.EZ (V/m) @ t=0.8
-1.0926425824299923
% es.tEX (V/m) @ t=0.8
1.094238485780033
% es.tEY (V/m) @ t=0.8
0
% es.tEZ (V/m) @ t=0.8
-1.0926425824299706
% es.Ex (V/m) @ t=0.8
1.0942384857800318
% es.Ey (V/m) @ t=0.8
0.16385020613891693
% es.Ez (V/m) @ t=0.8
-1.0926425824299923
% es.tEx (V/m) @ t=0.8
1.094238485780033
% es.tEy (V/m) @ t=0.8
0
% es.tEz (V/m) @ t=0.8
-1.0926425824299706
% V (V) @ t=0.8
0.016869740775910434
% es.normE (V/m) @ t=0.82
1.590221834425599
% es.EX (V/m) @ t=0.82
1.104580138868979
% es.EY (V/m) @ t=0.82
0.16539875592289943
% es.EZ (V/m) @ t=0.82
-1.1029691525958687
% es.tEX (V/m) @ t=0.82
1.1045801388689873
% es.tEY (V/m) @ t=0.82
0
% es.tEZ (V/m) @ t=0.82
-1.102969152595847
% es.Ex (V/m) @ t=0.82
1.104580138868979
% es.Ey (V/m) @ t=0.82
0.16539875592289943
% es.Ez (V/m) @ t=0.82
-1.1029691525958687
% es.tEx (V/m) @ t=0.82
1.1045801388689873
% es.tEy (V/m) @ t=0.82
0
% es.tEz (V/m) @ t=0.82
-1.102969152595847
% V (V) @ t=0.82
0.017029176749296104
% es.normE (V/m) @ t=0.84
1.6051103174952306
% es.EX (V/m) @ t=0.84
1.114921791957917
% es.EY (V/m) @ t=0.84
0.16694730570689226
% es.EZ (V/m) @ t=0.84
-1.1132957227617646
% es.tEX (V/m) @ t=0.84
1.1149217919579222
% es.tEY (V/m) @ t=0.84
0
% es.tEZ (V/m) @ t=0.84
-1.1132957227617464
% es.Ex (V/m) @ t=0.84
1.114921791957917
% es.Ey (V/m) @ t=0.84
0.16694730570689226
% es.Ez (V/m) @ t=0.84
-1.1132957227617646
% es.tEx (V/m) @ t=0.84
1.1149217919579222
% es.tEy (V/m) @ t=0.84
0
% es.tEz (V/m) @ t=0.84
-1.1132957227617464
% V (V) @ t=0.84
0.01718861272268176
% es.normE (V/m) @ t=0.86
1.6199988005648918
% es.EX (V/m) @ t=0.86
1.1252634450468808
% es.EY (V/m) @ t=0.86
0.16849585549090235
% es.EZ (V/m) @ t=0.86
-1.1236222929276742
% es.tEX (V/m) @ t=0.86
1.125263445046889
% es.tEY (V/m) @ t=0.86
0
% es.tEZ (V/m) @ t=0.86
-1.1236222929276591
% es.Ex (V/m) @ t=0.86
1.1252634450468808
% es.Ey (V/m) @ t=0.86
0.16849585549090235
% es.Ez (V/m) @ t=0.86
-1.1236222929276742
% es.tEx (V/m) @ t=0.86
1.125263445046889
% es.tEy (V/m) @ t=0.86
0
% es.tEz (V/m) @ t=0.86
-1.1236222929276591
% V (V) @ t=0.86
0.017348048696067424
% es.normE (V/m) @ t=0.88
1.6348872836344945
% es.EX (V/m) @ t=0.88
1.1356050981358161
% es.EY (V/m) @ t=0.88
0.1700444052748752
% es.EZ (V/m) @ t=0.88
-1.1339488630935244
% es.tEX (V/m) @ t=0.88
1.1356050981358243
% es.tEY (V/m) @ t=0.88
0
% es.tEZ (V/m) @ t=0.88
-1.1339488630935097
% es.Ex (V/m) @ t=0.88
1.1356050981358161
% es.Ey (V/m) @ t=0.88
0.1700444052748752
% es.Ez (V/m) @ t=0.88
-1.1339488630935244
% es.tEx (V/m) @ t=0.88
1.1356050981358243
% es.tEy (V/m) @ t=0.88
0
% es.tEz (V/m) @ t=0.88
-1.1339488630935097
% V (V) @ t=0.88
0.017507484669453094
% es.normE (V/m) @ t=0.9
1.649775766704148
% es.EX (V/m) @ t=0.9
1.145946751224755
% es.EY (V/m) @ t=0.9
0.17159295505888172
% es.EZ (V/m) @ t=0.9
-1.1442754332594443
% es.tEX (V/m) @ t=0.9
1.1459467512247592
% es.tEY (V/m) @ t=0.9
0
% es.tEZ (V/m) @ t=0.9
-1.1442754332594154
% es.Ex (V/m) @ t=0.9
1.145946751224755
% es.Ey (V/m) @ t=0.9
0.17159295505888172
% es.Ez (V/m) @ t=0.9
-1.1442754332594443
% es.tEx (V/m) @ t=0.9
1.1459467512247592
% es.tEy (V/m) @ t=0.9
0
% es.tEz (V/m) @ t=0.9
-1.1442754332594154
% V (V) @ t=0.9
0.017666920642838757
% es.normE (V/m) @ t=0.92
1.664664249773797
% es.EX (V/m) @ t=0.92
1.1562884043137187
% es.EY (V/m) @ t=0.92
0.17314150484287094
% es.EZ (V/m) @ t=0.92
-1.1546020034253428
% es.tEX (V/m) @ t=0.92
1.156288404313727
% es.tEY (V/m) @ t=0.92
0
% es.tEZ (V/m) @ t=0.92
-1.154602003425321
% es.Ex (V/m) @ t=0.92
1.1562884043137187
% es.Ey (V/m) @ t=0.92
0.17314150484287094
% es.Ez (V/m) @ t=0.92
-1.1546020034253428
% es.tEx (V/m) @ t=0.92
1.156288404313727
% es.tEy (V/m) @ t=0.92
0
% es.tEz (V/m) @ t=0.92
-1.154602003425321
% V (V) @ t=0.92
0.01782635661622442
% es.normE (V/m) @ t=0.94
1.6795527328434265
% es.EX (V/m) @ t=0.94
1.1666300574026687
% es.EY (V/m) @ t=0.94
0.17469005462688542
% es.EZ (V/m) @ t=0.94
-1.164928573591213
% es.tEX (V/m) @ t=0.94
1.1666300574026724
% es.tEY (V/m) @ t=0.94
0
% es.tEZ (V/m) @ t=0.94
-1.1649285735911983
% es.Ex (V/m) @ t=0.94
1.1666300574026687
% es.Ey (V/m) @ t=0.94
0.17469005462688542
% es.Ez (V/m) @ t=0.94
-1.164928573591213
% es.tEx (V/m) @ t=0.94
1.1666300574026724
% es.tEy (V/m) @ t=0.94
0
% es.tEz (V/m) @ t=0.94
-1.1649285735911983
% V (V) @ t=0.94
0.017985792589610087
% es.normE (V/m) @ t=0.96
1.6944412159130628
% es.EX (V/m) @ t=0.96
1.1769717104915998
% es.EY (V/m) @ t=0.96
0.17623860441087963
% es.EZ (V/m) @ t=0.96
-1.1752551437571204
% es.tEX (V/m) @ t=0.96
1.1769717104916113
% es.tEY (V/m) @ t=0.96
0
% es.tEZ (V/m) @ t=0.96
-1.1752551437571057
% es.Ex (V/m) @ t=0.96
1.1769717104915998
% es.Ey (V/m) @ t=0.96
0.17623860441087963
% es.Ez (V/m) @ t=0.96
-1.1752551437571204
% es.tEx (V/m) @ t=0.96
1.1769717104916113
% es.tEy (V/m) @ t=0.96
0
% es.tEz (V/m) @ t=0.96
-1.1752551437571057
% V (V) @ t=0.96
0.018145228562995747
% es.normE (V/m) @ t=0.98
1.7093296989827
% es.EX (V/m) @ t=0.98
1.1873133635805493
% es.EY (V/m) @ t=0.98
0.1777871541948684
% es.EZ (V/m) @ t=0.98
-1.1855817139230118
% es.tEX (V/m) @ t=0.98
1.1873133635805564
% es.tEY (V/m) @ t=0.98
0
% es.tEZ (V/m) @ t=0.98
-1.1855817139229972
% es.Ex (V/m) @ t=0.98
1.1873133635805493
% es.Ey (V/m) @ t=0.98
0.1777871541948684
% es.Ez (V/m) @ t=0.98
-1.1855817139230118
% es.tEx (V/m) @ t=0.98
1.1873133635805564
% es.tEy (V/m) @ t=0.98
0
% es.tEz (V/m) @ t=0.98
-1.1855817139229972
% V (V) @ t=0.98
0.018304664536381413
% es.normE (V/m) @ t=1
1.724218182052356
% es.EX (V/m) @ t=1
1.197655016669506
% es.EY (V/m) @ t=1
0.179335703978878
% es.EZ (V/m) @ t=1
-1.1959082840889246
% es.tEX (V/m) @ t=1
1.1976550166695104
% es.tEY (V/m) @ t=1
0
% es.tEZ (V/m) @ t=1
-1.1959082840888886
% es.Ex (V/m) @ t=1
1.197655016669506
% es.Ey (V/m) @ t=1
0.179335703978878
% es.Ez (V/m) @ t=1
-1.1959082840889246
% es.tEx (V/m) @ t=1
1.1976550166695104
% es.tEy (V/m) @ t=1
0
% es.tEz (V/m) @ t=1
-1.1959082840888886
% V (V) @ t=1
0.018464100509767076
% es.normE (V/m) @ t=1.02
1.7391066651219882
% es.EX (V/m) @ t=1.02
1.2079966697584563
% es.EY (V/m) @ t=1.02
0.18088425376287742
% es.EZ (V/m) @ t=1.02
-1.2062348542548018
% es.tEX (V/m) @ t=1.02
1.2079966697584563
% es.tEY (V/m) @ t=1.02
0
% es.tEZ (V/m) @ t=1.02
-1.2062348542547658
% es.Ex (V/m) @ t=1.02
1.2079966697584563
% es.Ey (V/m) @ t=1.02
0.18088425376287742
% es.Ez (V/m) @ t=1.02
-1.2062348542548018
% es.tEx (V/m) @ t=1.02
1.2079966697584563
% es.tEy (V/m) @ t=1.02
0
% es.tEz (V/m) @ t=1.02
-1.2062348542547658
% V (V) @ t=1.02
0.018623536483152743
% es.normE (V/m) @ t=1.04
1.7546574474671195
% es.EX (V/m) @ t=1.04
1.2187983609080946
% es.EY (V/m) @ t=1.04
0.18250168949570783
% es.EZ (V/m) @ t=1.04
-1.217020791512311
% es.tEX (V/m) @ t=1.04
1.2187983609081021