% Model:              1 neuron.mph
% Version:            COMSOL 6.1.0.252
% Date:               Mar 22 2023, 19:25
% Dimension:          0
% Nodes:              14017
% Expressions:        14017
% Description:        Electric field norm, Electric field, X component, Electric field, Y component, Electric field, Z component, Tangential electric field, X component, Tangential electric field, Y component, Tangential electric field, Z component, Electric field, x component, Electric field, y component, Electric field, z component, Tangential electric field, x component, Tangential electric field, y component, Tangential electric field, z component, Electric potential
% Length unit:        mm
% x
1.33
% y
12.2
% z
2
% es.normE (V/m) @ t=0
2.649687667511424
% es.EX (V/m) @ t=0
1.056003276765583
% es.EY (V/m) @ t=0
0.27918756445187665
% es.EZ (V/m) @ t=0
-2.4119317441337724
% es.tEX (V/m) @ t=0
1.0560032767655834
% es.tEY (V/m) @ t=0
0
% es.tEZ (V/m) @ t=0
-2.411931744133785
% es.Ex (V/m) @ t=0
1.056003276765583
% es.Ey (V/m) @ t=0
0.27918756445187665
% es.Ez (V/m) @ t=0
-2.4119317441337724
% es.tEx (V/m) @ t=0
1.0560032767655834
% es.tEy (V/m) @ t=0
0
% es.tEz (V/m) @ t=0
-2.411931744133785
% V (V) @ t=0
0.013248671497901363
% es.normE (V/m) @ t=0.02
2.28855762704612
% es.EX (V/m) @ t=0.02
0.9120789543631962
% es.EY (V/m) @ t=0.02
0.24113666062590777
% es.EZ (V/m) @ t=0.02
-2.0832058262734243
% es.tEX (V/m) @ t=0.02
0.9120789543631966
% es.tEY (V/m) @ t=0.02
0
% es.tEZ (V/m) @ t=0.02
-2.083205826273435
% es.Ex (V/m) @ t=0.02
0.9120789543631962
% es.Ey (V/m) @ t=0.02
0.24113666062590777
% es.Ez (V/m) @ t=0.02
-2.0832058262734243
% es.tEx (V/m) @ t=0.02
0.9120789543631966
% es.tEy (V/m) @ t=0.02
0
% es.tEz (V/m) @ t=0.02
-2.083205826273435
% V (V) @ t=0.02
0.011442989425285783
% es.normE (V/m) @ t=0.04
2.3096067606676334
% es.EX (V/m) @ t=0.04
0.9204678502017163
% es.EY (V/m) @ t=0.04
0.24335452799142576
% es.EZ (V/m) @ t=0.04
-2.1023662255659366
% es.tEX (V/m) @ t=0.04
0.9204678502017165
% es.tEY (V/m) @ t=0.04
0
% es.tEZ (V/m) @ t=0.04
-2.102366225565939
% es.Ex (V/m) @ t=0.04
0.9204678502017163
% es.Ey (V/m) @ t=0.04
0.24335452799142576
% es.Ez (V/m) @ t=0.04
-2.1023662255659366
% es.tEx (V/m) @ t=0.04
0.9204678502017165
% es.tEy (V/m) @ t=0.04
0
% es.tEz (V/m) @ t=0.04
-2.102366225565939
% V (V) @ t=0.04
0.011548236949452255
% es.normE (V/m) @ t=0.06
2.330808844953104
% es.EX (V/m) @ t=0.06
0.9289177005609759
% es.EY (V/m) @ t=0.06
0.24558850778218044
% es.EZ (V/m) @ t=0.06
-2.1216658525436722
% es.tEX (V/m) @ t=0.06
0.9289177005609761
% es.tEY (V/m) @ t=0.06
0
% es.tEZ (V/m) @ t=0.06
-2.121665852543682
% es.Ex (V/m) @ t=0.06
0.9289177005609759
% es.Ey (V/m) @ t=0.06
0.24558850778218044
% es.Ez (V/m) @ t=0.06
-2.1216658525436722
% es.tEx (V/m) @ t=0.06
0.9289177005609761
% es.tEy (V/m) @ t=0.06
0
% es.tEz (V/m) @ t=0.06
-2.121665852543682
% V (V) @ t=0.06
0.011654249378666375
% es.normE (V/m) @ t=0.08
2.352418303619149
% es.EX (V/m) @ t=0.08
0.9375299030082875
% es.EY (V/m) @ t=0.08
0.2478654075557829
% es.EZ (V/m) @ t=0.08
-2.1413363016105995
% es.tEX (V/m) @ t=0.08
0.9375299030082878
% es.tEY (V/m) @ t=0.08
0
% es.tEZ (V/m) @ t=0.08
-2.1413363016106004
% es.Ex (V/m) @ t=0.08
0.9375299030082875
% es.Ey (V/m) @ t=0.08
0.2478654075557829
% es.Ez (V/m) @ t=0.08
-2.1413363016105995
% es.tEx (V/m) @ t=0.08
0.9375299030082878
% es.tEy (V/m) @ t=0.08
0
% es.tEz (V/m) @ t=0.08
-2.1413363016106004
% V (V) @ t=0.08
0.011762298865219982
% es.normE (V/m) @ t=0.1
2.3741364324882017
% es.EX (V/m) @ t=0.1
0.9461854141053627
% es.EY (V/m) @ t=0.1
0.2501537565600751
% es.EZ (V/m) @ t=0.1
-2.1611056702798157
% es.tEX (V/m) @ t=0.1
0.9461854141053596
% es.tEY (V/m) @ t=0.1
0
% es.tEZ (V/m) @ t=0.1
-2.161105670279815
% es.Ex (V/m) @ t=0.1
0.9461854141053627
% es.Ey (V/m) @ t=0.1
0.2501537565600751
% es.Ez (V/m) @ t=0.1
-2.1611056702798157
% es.tEx (V/m) @ t=0.1
0.9461854141053596
% es.tEy (V/m) @ t=0.1
0
% es.tEz (V/m) @ t=0.1
-2.161105670279815
% V (V) @ t=0.1
0.011870891752255221
% es.normE (V/m) @ t=0.12
2.3958545613572175
% es.EX (V/m) @ t=0.12
0.9548409252024015
% es.EY (V/m) @ t=0.12
0.25244210556437263
% es.EZ (V/m) @ t=0.12
-2.180875038949008
% es.tEX (V/m) @ t=0.12
0.9548409252024017
% es.tEY (V/m) @ t=0.12
0
% es.tEZ (V/m) @ t=0.12
-2.1808750389490115
% es.Ex (V/m) @ t=0.12
0.9548409252024015
% es.Ey (V/m) @ t=0.12
0.25244210556437263
% es.Ez (V/m) @ t=0.12
-2.180875038949008
% es.tEx (V/m) @ t=0.12
0.9548409252024017
% es.tEy (V/m) @ t=0.12
0
% es.tEz (V/m) @ t=0.12
-2.1808750389490115
% V (V) @ t=0.12
0.011979484639290458
% es.normE (V/m) @ t=0.14
2.4182093292501268
% es.EX (V/m) @ t=0.14
0.9637501959368349
% es.EY (V/m) @ t=0.14
0.2547975866760632
% es.EZ (V/m) @ t=0.14
-2.2012239020633046
% es.tEX (V/m) @ t=0.14
0.9637501959368353
% es.tEY (V/m) @ t=0.14
0
% es.tEZ (V/m) @ t=0.14
-2.2012239020633046
% es.Ex (V/m) @ t=0.14
0.9637501959368349
% es.Ey (V/m) @ t=0.14
0.2547975866760632
% es.Ez (V/m) @ t=0.14
-2.2012239020633046
% es.tEx (V/m) @ t=0.14
0.9637501959368353
% es.tEy (V/m) @ t=0.14
0
% es.tEz (V/m) @ t=0.14
-2.2012239020633046
% V (V) @ t=0.14
0.012091258668874148
% es.normE (V/m) @ t=0.16
2.4410155579070576
% es.EX (V/m) @ t=0.16
0.9728394156148163
% es.EY (V/m) @ t=0.16
0.25720067327746765
% es.EZ (V/m) @ t=0.16
-2.221983702922717
% es.tEX (V/m) @ t=0.16
0.9728394156148168
% es.tEY (V/m) @ t=0.16
0
% es.tEZ (V/m) @ t=0.16
-2.2219837029227207
% es.Ex (V/m) @ t=0.16
0.9728394156148163
% es.Ey (V/m) @ t=0.16
0.25720067327746765
% es.Ez (V/m) @ t=0.16
-2.221983702922717
% es.tEx (V/m) @ t=0.16
0.9728394156148168
% es.tEy (V/m) @ t=0.16
0
% es.tEz (V/m) @ t=0.16
-2.2219837029227207
% V (V) @ t=0.16
0.012205288546735355
% es.normE (V/m) @ t=0.18
2.463821786563994
% es.EX (V/m) @ t=0.18
0.9819286352928054
% es.EY (V/m) @ t=0.18
0.2596037598788463
% es.EZ (V/m) @ t=0.18
-2.2427435037821297
% es.tEX (V/m) @ t=0.18
0.9819286352928058
% es.tEY (V/m) @ t=0.18
0
% es.tEZ (V/m) @ t=0.18
-2.2427435037821333
% es.Ex (V/m) @ t=0.18
0.9819286352928054
% es.Ey (V/m) @ t=0.18
0.2596037598788463
% es.Ez (V/m) @ t=0.18
-2.2427435037821297
% es.tEx (V/m) @ t=0.18
0.9819286352928058
% es.tEy (V/m) @ t=0.18
0
% es.tEz (V/m) @ t=0.18
-2.2427435037821333
% V (V) @ t=0.18
0.012319318424596565
% es.normE (V/m) @ t=0.2
2.486628015220934
% es.EX (V/m) @ t=0.2
0.9910178549707722
% es.EY (V/m) @ t=0.2
0.2620068464802552
% es.EZ (V/m) @ t=0.2
-2.263503304641544
% es.tEX (V/m) @ t=0.2
0.9910178549707727
% es.tEY (V/m) @ t=0.2
0
% es.tEZ (V/m) @ t=0.2
-2.2635033046415423
% es.Ex (V/m) @ t=0.2
0.9910178549707722
% es.Ey (V/m) @ t=0.2
0.2620068464802552
% es.Ez (V/m) @ t=0.2
-2.263503304641544
% es.tEx (V/m) @ t=0.2
0.9910178549707727
% es.tEy (V/m) @ t=0.2
0
% es.tEz (V/m) @ t=0.2
-2.2635033046415423
% V (V) @ t=0.2
0.012433348302457776
% es.normE (V/m) @ t=0.22
2.5094342438778767
% es.EX (V/m) @ t=0.22
1.0001070746487541
% es.EY (V/m) @ t=0.22
0.2644099330816534
% es.EZ (V/m) @ t=0.22
-2.2842631055009512
% es.tEX (V/m) @ t=0.22
1.0001070746487475
% es.tEY (V/m) @ t=0.22
0
% es.tEZ (V/m) @ t=0.22
-2.2842631055009583
% es.Ex (V/m) @ t=0.22
1.0001070746487541
% es.Ey (V/m) @ t=0.22
0.2644099330816534
% es.Ez (V/m) @ t=0.22
-2.2842631055009512
% es.tEx (V/m) @ t=0.22
1.0001070746487475
% es.tEy (V/m) @ t=0.22
0
% es.tEz (V/m) @ t=0.22
-2.2842631055009583
% V (V) @ t=0.22
0.012547378180318985
% es.normE (V/m) @ t=0.24
2.5322404725348386
% es.EX (V/m) @ t=0.24
1.009196294326736
% es.EY (V/m) @ t=0.24
0.2668130196830498
% es.EZ (V/m) @ t=0.24
-2.3050229063603727
% es.tEX (V/m) @ t=0.24
1.0091962943267294
% es.tEY (V/m) @ t=0.24
0
% es.tEZ (V/m) @ t=0.24
-2.3050229063603744
% es.Ex (V/m) @ t=0.24
1.009196294326736
% es.Ey (V/m) @ t=0.24
0.2668130196830498
% es.Ez (V/m) @ t=0.24
-2.3050229063603727
% es.tEx (V/m) @ t=0.24
1.0091962943267294
% es.tEy (V/m) @ t=0.24
0
% es.tEz (V/m) @ t=0.24
-2.3050229063603744
% V (V) @ t=0.24
0.012661408058180198
% es.normE (V/m) @ t=0.26
2.555475309149137
% es.EX (V/m) @ t=0.26
1.0184564664747087
% es.EY (V/m) @ t=0.26
0.26926147269790324
% es.EZ (V/m) @ t=0.26
-2.3261727807684007
% es.tEX (V/m) @ t=0.26
1.0184564664747162
% es.tEY (V/m) @ t=0.26
0
% es.tEZ (V/m) @ t=0.26
-2.3261727807684025
% es.Ex (V/m) @ t=0.26
1.0184564664747087
% es.Ey (V/m) @ t=0.26
0.26926147269790324
% es.Ez (V/m) @ t=0.26
-2.3261727807684007
% es.tEx (V/m) @ t=0.26
1.0184564664747162
% es.tEy (V/m) @ t=0.26
0
% es.tEz (V/m) @ t=0.26
-2.3261727807684025
% V (V) @ t=0.26
0.012777572693481195
% es.normE (V/m) @ t=0.28
2.580710689877685
% es.EX (V/m) @ t=0.28
1.0285145658465233
% es.EY (V/m) @ t=0.28
0.2719216751912148
% es.EZ (V/m) @ t=0.28
-2.3491433384561358
% es.tEX (V/m) @ t=0.28
1.0285145658465167
% es.tEY (V/m) @ t=0.28
0
% es.tEZ (V/m) @ t=0.28
-2.349143338456134
% es.Ex (V/m) @ t=0.28
1.0285145658465233
% es.Ey (V/m) @ t=0.28
0.2719216751912148
% es.Ez (V/m) @ t=0.28
-2.3491433384561358
% es.tEx (V/m) @ t=0.28
1.0285145658465167
% es.tEy (V/m) @ t=0.28
0
% es.tEz (V/m) @ t=0.28
-2.349143338456134
% V (V) @ t=0.28
0.012903701391176756
% es.normE (V/m) @ t=0.3
2.605946070607593
% es.EX (V/m) @ t=0.3
1.0385726652183176
% es.EY (V/m) @ t=0.3
0.27458187768451836
% es.EZ (V/m) @ t=0.3
-2.3721138961438673
% es.tEX (V/m) @ t=0.3
1.038572665218318
% es.tEY (V/m) @ t=0.3
0
% es.tEZ (V/m) @ t=0.3
-2.3721138961438797
% es.Ex (V/m) @ t=0.3
1.0385726652183176
% es.Ey (V/m) @ t=0.3
0.27458187768451836
% es.Ez (V/m) @ t=0.3
-2.3721138961438673
% es.tEx (V/m) @ t=0.3
1.038572665218318
% es.tEy (V/m) @ t=0.3
0
% es.tEz (V/m) @ t=0.3
-2.3721138961438797
% V (V) @ t=0.3
0.013029830088872315
% es.normE (V/m) @ t=0.32
2.631181451338862
% es.EX (V/m) @ t=0.32
1.0486307645901323
% es.EY (V/m) @ t=0.32
0.27724208017781127
% es.EZ (V/m) @ t=0.32
-2.39508445383162
% es.tEX (V/m) @ t=0.32
1.0486307645901327
% es.tEY (V/m) @ t=0.32
0
% es.tEZ (V/m) @ t=0.32
-2.3950844538316254
% es.Ex (V/m) @ t=0.32
1.0486307645901323
% es.Ey (V/m) @ t=0.32
0.27724208017781127
% es.Ez (V/m) @ t=0.32
-2.39508445383162
% es.tEx (V/m) @ t=0.32
1.0486307645901327
% es.tEy (V/m) @ t=0.32
0
% es.tEz (V/m) @ t=0.32
-2.3950844538316254
% V (V) @ t=0.32
0.013155958786567872
% es.normE (V/m) @ t=0.34
2.656416832071408
% es.EX (V/m) @ t=0.34
1.058688863961947
% es.EY (V/m) @ t=0.34
0.27990228267111394
% es.EZ (V/m) @ t=0.34
-2.4180550115193515
% es.tEX (V/m) @ t=0.34
1.0586888639619474
% es.tEY (V/m) @ t=0.34
0
% es.tEZ (V/m) @ t=0.34
-2.4180550115193498
% es.Ex (V/m) @ t=0.34
1.058688863961947
% es.Ey (V/m) @ t=0.34
0.27990228267111394
% es.Ez (V/m) @ t=0.34
-2.4180550115193515
% es.tEx (V/m) @ t=0.34
1.0586888639619474
% es.tEy (V/m) @ t=0.34
0
% es.tEz (V/m) @ t=0.34
-2.4180550115193498
% V (V) @ t=0.34
0.013282087484263435
% es.normE (V/m) @ t=0.36
2.6816522128052087
% es.EX (V/m) @ t=0.36
1.0687469633337483
% es.EY (V/m) @ t=0.36
0.2825624851644122
% es.EZ (V/m) @ t=0.36
-2.441025569207083
% es.tEX (V/m) @ t=0.36
1.0687469633337487
% es.tEY (V/m) @ t=0.36
0
% es.tEZ (V/m) @ t=0.36
-2.441025569207092
% es.Ex (V/m) @ t=0.36
1.0687469633337483
% es.Ey (V/m) @ t=0.36
0.2825624851644122
% es.Ez (V/m) @ t=0.36
-2.441025569207083
% es.tEx (V/m) @ t=0.36
1.0687469633337487
% es.tEy (V/m) @ t=0.36
0
% es.tEz (V/m) @ t=0.36
-2.441025569207092
% V (V) @ t=0.36
0.01340821618195899
% es.normE (V/m) @ t=0.38
2.706887593540248
% es.EX (V/m) @ t=0.38
1.078805062705563
% es.EY (V/m) @ t=0.38
0.28522268765770686
% es.EZ (V/m) @ t=0.38
-2.463996126894825
% es.tEX (V/m) @ t=0.38
1.0788050627055634
% es.tEY (V/m) @ t=0.38
0
% es.tEZ (V/m) @ t=0.38
-2.4639961268948305
% es.Ex (V/m) @ t=0.38
1.078805062705563
% es.Ey (V/m) @ t=0.38
0.28522268765770686
% es.Ez (V/m) @ t=0.38
-2.463996126894825
% es.tEx (V/m) @ t=0.38
1.0788050627055634
% es.tEy (V/m) @ t=0.38
0
% es.tEz (V/m) @ t=0.38
-2.4639961268948305
% V (V) @ t=0.38
0.01353434487965455
% es.normE (V/m) @ t=0.4
2.732122974276472
% es.EX (V/m) @ t=0.4
1.0888631620773643
% es.EY (V/m) @ t=0.4
0.2878828901510264
% es.EZ (V/m) @ t=0.4
-2.4869666845825638
% es.tEX (V/m) @ t=0.4
1.0888631620773648
% es.tEY (V/m) @ t=0.4
0
% es.tEZ (V/m) @ t=0.4
-2.4869666845825726
% es.Ex (V/m) @ t=0.4
1.0888631620773643
% es.Ey (V/m) @ t=0.4
0.2878828901510264
% es.Ez (V/m) @ t=0.4
-2.4869666845825638
% es.tEx (V/m) @ t=0.4
1.0888631620773648
% es.tEy (V/m) @ t=0.4
0
% es.tEz (V/m) @ t=0.4
-2.4869666845825726
% V (V) @ t=0.4
0.013660473577350108
% es.normE (V/m) @ t=0.42
2.757358355013853
% es.EX (V/m) @ t=0.42
1.098921261449179
% es.EY (V/m) @ t=0.42
0.29054309264432554
% es.EZ (V/m) @ t=0.42
-2.509937242270299
% es.tEX (V/m) @ t=0.42
1.0989212614491795
% es.tEY (V/m) @ t=0.42
0
% es.tEZ (V/m) @ t=0.42
-2.5099372422703077
% es.Ex (V/m) @ t=0.42
1.098921261449179
% es.Ey (V/m) @ t=0.42
0.29054309264432554
% es.Ez (V/m) @ t=0.42
-2.509937242270299
% es.tEx (V/m) @ t=0.42
1.0989212614491795
% es.tEy (V/m) @ t=0.42
0
% es.tEz (V/m) @ t=0.42
-2.5099372422703077
% V (V) @ t=0.42
0.013786602275045667
% es.normE (V/m) @ t=0.44
2.782593735752352
% es.EX (V/m) @ t=0.44
1.1089793608209662
% es.EY (V/m) @ t=0.44
0.2932032951376202
% es.EZ (V/m) @ t=0.44
-2.5329077999580374
% es.tEX (V/m) @ t=0.44
1.1089793608209666
% es.tEY (V/m) @ t=0.44
0
% es.tEZ (V/m) @ t=0.44
-2.5329077999580427
% es.Ex (V/m) @ t=0.44
1.1089793608209662
% es.Ey (V/m) @ t=0.44
0.2932032951376202
% es.Ez (V/m) @ t=0.44
-2.5329077999580374
% es.tEx (V/m) @ t=0.44
1.1089793608209666
% es.tEy (V/m) @ t=0.44
0
% es.tEz (V/m) @ t=0.44
-2.5329077999580427
% V (V) @ t=0.44
0.013912730972741228
% es.normE (V/m) @ t=0.46
2.807829116491969
% es.EX (V/m) @ t=0.46
1.119037460192795
% es.EY (V/m) @ t=0.46
0.2958634976309087
% es.EZ (V/m) @ t=0.46
-2.555878357645783
% es.tEX (V/m) @ t=0.46
1.1190374601927955
% es.tEY (V/m) @ t=0.46
0
% es.tEZ (V/m) @ t=0.46
-2.5558783576457955
% es.Ex (V/m) @ t=0.46
1.119037460192795
% es.Ey (V/m) @ t=0.46
0.2958634976309087
% es.Ez (V/m) @ t=0.46
-2.555878357645783
% es.tEx (V/m) @ t=0.46
1.1190374601927955
% es.tEy (V/m) @ t=0.46
0
% es.tEz (V/m) @ t=0.46
-2.5558783576457955
% V (V) @ t=0.46
0.014038859670436787
% es.normE (V/m) @ t=0.48
2.8330644972326335
% es.EX (V/m) @ t=0.48
1.1290955595646022
% es.EY (V/m) @ t=0.48
0.29852370012421403
% es.EZ (V/m) @ t=0.48
-2.5788489153335146
% es.tEX (V/m) @ t=0.48
1.129095559564595
% es.tEY (V/m) @ t=0.48
0
% es.tEZ (V/m) @ t=0.48
-2.5788489153335163
% es.Ex (V/m) @ t=0.48
1.1290955595646022
% es.Ey (V/m) @ t=0.48
0.29852370012421403
% es.Ez (V/m) @ t=0.48
-2.5788489153335146
% es.tEx (V/m) @ t=0.48
1.129095559564595
% es.tEy (V/m) @ t=0.48
0
% es.tEz (V/m) @ t=0.48
-2.5788489153335163
% V (V) @ t=0.48
0.014164988368132347
% es.normE (V/m) @ t=0.5
2.858299877974333
% es.EX (V/m) @ t=0.5
1.139153658936404
% es.EY (V/m) @ t=0.5
0.3011839026175158
% es.EZ (V/m) @ t=0.5
-2.601819473021246
% es.tEX (V/m) @ t=0.5
1.1391536589363973
% es.tEY (V/m) @ t=0.5
0
% es.tEZ (V/m) @ t=0.5
-2.6018194730212514
% es.Ex (V/m) @ t=0.5
1.139153658936404
% es.Ey (V/m) @ t=0.5
0.3011839026175158
% es.Ez (V/m) @ t=0.5
-2.601819473021246
% es.tEx (V/m) @ t=0.5
1.1391536589363973
% es.tEy (V/m) @ t=0.5
0
% es.tEz (V/m) @ t=0.5
-2.6018194730212514
% V (V) @ t=0.5
0.014291117065827906
% es.normE (V/m) @ t=0.52
2.8845168131582213
% es.EX (V/m) @ t=0.52
1.1496027625651162
% es.EY (V/m) @ t=0.52
0.30394725066812
% es.EZ (V/m) @ t=0.52
-2.6256836124761467
% es.tEX (V/m) @ t=0.52
1.1496027625651166
% es.tEY (V/m) @ t=0.52
0
% es.tEZ (V/m) @ t=0.52
-2.625683612476159
% es.Ex (V/m) @ t=0.52
1.1496027625651162
% es.Ey (V/m) @ t=0.52
0.30394725066812
% es.Ez (V/m) @ t=0.52
-2.6256836124761467
% es.tEx (V/m) @ t=0.52
1.1496027625651166
% es.tEy (V/m) @ t=0.52
0
% es.tEz (V/m) @ t=0.52
-2.625683612476159
% V (V) @ t=0.52
0.014422164884683605
% es.normE (V/m) @ t=0.54
2.9124852224203166
% es.EX (V/m) @ t=0.54
1.1607495695423524
% es.EY (V/m) @ t=0.54
0.3068946504251526
% es.EZ (V/m) @ t=0.54
-2.651142248615015
% es.tEX (V/m) @ t=0.54
1.1607495695423529
% es.tEY (V/m) @ t=0.54
0
% es.tEZ (V/m) @ t=0.54
-2.651142248615013
% es.Ex (V/m) @ t=0.54
1.1607495695423524
% es.Ey (V/m) @ t=0.54
0.3068946504251526
% es.Ez (V/m) @ t=0.54
-2.651142248615015
% es.tEx (V/m) @ t=0.54
1.1607495695423529
% es.tEy (V/m) @ t=0.54
0
% es.tEz (V/m) @ t=0.54
-2.651142248615013
% V (V) @ t=0.54
0.014561990324867588
% es.normE (V/m) @ t=0.56
2.9404536316824643
% es.EX (V/m) @ t=0.56
1.1718963765195318
% es.EY (V/m) @ t=0.56
0.3098420501821746
% es.EZ (V/m) @ t=0.56
-2.676600884753883
% es.tEX (V/m) @ t=0.56
1.1718963765195323
% es.tEY (V/m) @ t=0.56
0
% es.tEZ (V/m) @ t=0.56
-2.6766008847538885
% es.Ex (V/m) @ t=0.56
1.1718963765195318
% es.Ey (V/m) @ t=0.56
0.3098420501821746
% es.Ez (V/m) @ t=0.56
-2.676600884753883
% es.tEx (V/m) @ t=0.56
1.1718963765195323
% es.tEy (V/m) @ t=0.56
0
% es.tEz (V/m) @ t=0.56
-2.6766008847538885
% V (V) @ t=0.56
0.014701815765051569
% es.normE (V/m) @ t=0.58
2.9684220409447004
% es.EX (V/m) @ t=0.58
1.1830431834967459
% es.EY (V/m) @ t=0.58
0.3127894499392081
% es.EZ (V/m) @ t=0.58
-2.702059520892748
% es.tEX (V/m) @ t=0.58
1.1830431834967392
% es.tEY (V/m) @ t=0.58
0
% es.tEZ (V/m) @ t=0.58
-2.702059520892753
% es.Ex (V/m) @ t=0.58
1.1830431834967459
% es.Ey (V/m) @ t=0.58
0.3127894499392081
% es.Ez (V/m) @ t=0.58
-2.702059520892748
% es.tEx (V/m) @ t=0.58
1.1830431834967392
% es.tEy (V/m) @ t=0.58
0
% es.tEz (V/m) @ t=0.58
-2.702059520892753
% V (V) @ t=0.58
0.014841641205235553
% es.normE (V/m) @ t=0.6
2.9963904502070076
% es.EX (V/m) @ t=0.6
1.1941899904739466
% es.EY (V/m) @ t=0.6
0.31573684969624427
% es.EZ (V/m) @ t=0.6
-2.727518157031616
% es.tEX (V/m) @ t=0.6
1.194189990473947
% es.tEY (V/m) @ t=0.6
0
% es.tEZ (V/m) @ t=0.6
-2.7275181570316143
% es.Ex (V/m) @ t=0.6
1.1941899904739466
% es.Ey (V/m) @ t=0.6
0.31573684969624427
% es.Ez (V/m) @ t=0.6
-2.727518157031616
% es.tEx (V/m) @ t=0.6
1.194189990473947
% es.tEy (V/m) @ t=0.6
0
% es.tEz (V/m) @ t=0.6
-2.7275181570316143
% V (V) @ t=0.6
0.014981466645419536
% es.normE (V/m) @ t=0.62
3.0243588594693946
% es.EX (V/m) @ t=0.62
1.2053367974511553
% es.EY (V/m) @ t=0.62
0.31868424945330087
% es.EZ (V/m) @ t=0.62
-2.752976793170488
% es.tEX (V/m) @ t=0.62
1.2053367974511557
% es.tEY (V/m) @ t=0.62
0
% es.tEZ (V/m) @ t=0.62
-2.752976793170493
% es.Ex (V/m) @ t=0.62
1.2053367974511553
% es.Ey (V/m) @ t=0.62
0.31868424945330087
% es.Ez (V/m) @ t=0.62
-2.752976793170488
% es.tEx (V/m) @ t=0.62
1.2053367974511557
% es.tEy (V/m) @ t=0.62
0
% es.tEz (V/m) @ t=0.62
-2.752976793170493
% V (V) @ t=0.62
0.01512129208560352
% es.normE (V/m) @ t=0.64
3.05232726873185
% es.EX (V/m) @ t=0.64
1.2164836044283631
% es.EY (V/m) @ t=0.64
0.32163164921032195
% es.EZ (V/m) @ t=0.64
-2.778435429309363
% es.tEX (V/m) @ t=0.64
1.2164836044283636
% es.tEY (V/m) @ t=0.64
0
% es.tEZ (V/m) @ t=0.64
-2.7784354293093614
% es.Ex (V/m) @ t=0.64
1.2164836044283631
% es.Ey (V/m) @ t=0.64
0.32163164921032195
% es.Ez (V/m) @ t=0.64
-2.778435429309363
% es.tEx (V/m) @ t=0.64
1.2164836044283636
% es.tEy (V/m) @ t=0.64
0
% es.tEz (V/m) @ t=0.64
-2.7784354293093614
% V (V) @ t=0.64
0.015261117525787503
% es.normE (V/m) @ t=0.66
3.080295677994352
% es.EX (V/m) @ t=0.66
1.227630411405555
% es.EY (V/m) @ t=0.66
0.324579048967335
% es.EZ (V/m) @ t=0.66
-2.8038940654482243
% es.tEX (V/m) @ t=0.66
1.2276304114055554
% es.tEY (V/m) @ t=0.66
0
% es.tEZ (V/m) @ t=0.66
-2.803894065448226
% es.Ex (V/m) @ t=0.66
1.227630411405555
% es.Ey (V/m) @ t=0.66
0.324579048967335
% es.Ez (V/m) @ t=0.66
-2.8038940654482243
% es.tEx (V/m) @ t=0.66
1.2276304114055554
% es.tEy (V/m) @ t=0.66
0
% es.tEz (V/m) @ t=0.66
-2.803894065448226
% V (V) @ t=0.66
0.015400942965971484
% es.normE (V/m) @ t=0.68
3.108264087256919
% es.EX (V/m) @ t=0.68
1.2387772183827495
% es.EY (V/m) @ t=0.68
0.3275264487243845
% es.EZ (V/m) @ t=0.68
-2.8293527015870783
% es.tEX (V/m) @ t=0.68
1.23877721838275
% es.tEY (V/m) @ t=0.68
0
% es.tEZ (V/m) @ t=0.68
-2.829352701587087
% es.Ex (V/m) @ t=0.68
1.2387772183827495
% es.Ey (V/m) @ t=0.68
0.3275264487243845
% es.Ez (V/m) @ t=0.68
-2.8293527015870783
% es.tEx (V/m) @ t=0.68
1.23877721838275
% es.tEy (V/m) @ t=0.68
0
% es.tEz (V/m) @ t=0.68
-2.829352701587087
% V (V) @ t=0.68
0.015540768406155472
% es.normE (V/m) @ t=0.7
3.13623249651958
% es.EX (V/m) @ t=0.7
1.2499240253599715
% es.EY (V/m) @ t=0.7
0.3304738484814065
% es.EZ (V/m) @ t=0.7
-2.854811337725957
% es.tEX (V/m) @ t=0.7
1.249924025359972
% es.tEY (V/m) @ t=0.7
0
% es.tEZ (V/m) @ t=0.7
-2.8548113377259625
% es.Ex (V/m) @ t=0.7
1.2499240253599715
% es.Ey (V/m) @ t=0.7
0.3304738484814065
% es.Ez (V/m) @ t=0.7
-2.854811337725957
% es.tEx (V/m) @ t=0.7
1.249924025359972
% es.tEy (V/m) @ t=0.7
0
% es.tEz (V/m) @ t=0.7
-2.8548113377259625
% V (V) @ t=0.7
0.015680593846339453
% es.normE (V/m) @ t=0.72
3.1642009057822804
% es.EX (V/m) @ t=0.72
1.261070832337165
% es.EY (V/m) @ t=0.72
0.333421248238464
% es.EZ (V/m) @ t=0.72
-2.8802699738648183
% es.tEX (V/m) @ t=0.72
1.2610708323371655
% es.tEY (V/m) @ t=0.72
0
% es.tEZ (V/m) @ t=0.72
-2.8802699738648236
% es.Ex (V/m) @ t=0.72
1.261070832337165
% es.Ey (V/m) @ t=0.72
0.333421248238464
% es.Ez (V/m) @ t=0.72
-2.8802699738648183
% es.tEx (V/m) @ t=0.72
1.2610708323371655
% es.tEy (V/m) @ t=0.72
0
% es.tEz (V/m) @ t=0.72
-2.8802699738648236
% V (V) @ t=0.72
0.015820419286523436
% es.normE (V/m) @ t=0.74
3.1921693150450503
% es.EX (V/m) @ t=0.74
1.272217639314373
% es.EY (V/m) @ t=0.74
0.3363686479954966
% es.EZ (V/m) @ t=0.74
-2.9057286100036865
% es.tEX (V/m) @ t=0.74
1.2722176393143734
% es.tEY (V/m) @ t=0.74
0
% es.tEZ (V/m) @ t=0.74
-2.905728610003692
% es.Ex (V/m) @ t=0.74
1.272217639314373
% es.Ey (V/m) @ t=0.74
0.3363686479954966
% es.Ez (V/m) @ t=0.74
-2.9057286100036865
% es.tEx (V/m) @ t=0.74
1.2722176393143734
% es.tEy (V/m) @ t=0.74
0
% es.tEz (V/m) @ t=0.74
-2.905728610003692
% V (V) @ t=0.74
0.015960244726707415
% es.normE (V/m) @ t=0.76
3.2201377243078895
% es.EX (V/m) @ t=0.76
1.283364446291595
% es.EY (V/m) @ t=0.76
0.3393160477524928
% es.EZ (V/m) @ t=0.76
-2.9311872461425654
% es.tEX (V/m) @ t=0.76
1.2833644462915954
% es.tEY (V/m) @ t=0.76
0
% es.tEZ (V/m) @ t=0.76
-2.9311872461425708
% es.Ex (V/m) @ t=0.76
1.283364446291595
% es.Ey (V/m) @ t=0.76
0.3393160477524928
% es.Ez (V/m) @ t=0.76
-2.9311872461425654
% es.tEx (V/m) @ t=0.76
1.2833644462915954
% es.tEy (V/m) @ t=0.76
0
% es.tEz (V/m) @ t=0.76
-2.9311872461425708
% V (V) @ t=0.76
0.016100070166891398
% es.normE (V/m) @ t=0.78
3.249774651162535
% es.EX (V/m) @ t=0.78
1.2951758250383194
% es.EY (V/m) @ t=0.78
0.34243864916121947
% es.EZ (V/m) @ t=0.78
-2.9581649054411994
% es.tEX (V/m) @ t=0.78
1.2951758250383199
% es.tEY (V/m) @ t=0.78
0
% es.tEZ (V/m) @ t=0.78
-2.9581649054412047
% es.Ex (V/m) @ t=0.78
1.2951758250383194
% es.Ey (V/m) @ t=0.78
0.34243864916121947
% es.Ez (V/m) @ t=0.78
-2.9581649054411994
% es.tEx (V/m) @ t=0.78
1.2951758250383199
% es.tEy (V/m) @ t=0.78
0
% es.tEz (V/m) @ t=0.78
-2.9581649054412047
% V (V) @ t=0.78
0.016248262687000973
% es.normE (V/m) @ t=0.8
3.280822374143489
% es.EX (V/m) @ t=0.8
1.307549124907354
% es.EY (V/m) @ t=0.8
0.3457093903394508
% es.EZ (V/m) @ t=0.8
-2.986426957544287
% es.tEX (V/m) @ t=0.8
1.3075491249073545
% es.tEY (V/m) @ t=0.8
0
% es.tEZ (V/m) @ t=0.8
-2.986426957544289
% es.Ex (V/m) @ t=0.8
1.307549124907354
% es.Ey (V/m) @ t=0.8
0.3457093903394508
% es.Ez (V/m) @ t=0.8
-2.986426957544287
% es.tEx (V/m) @ t=0.8
1.3075491249073545
% es.tEy (V/m) @ t=0.8
0
% es.tEz (V/m) @ t=0.8
-2.986426957544289
% V (V) @ t=0.8
0.0164035298966448
% es.normE (V/m) @ t=0.82
3.3118700971249764
% es.EX (V/m) @ t=0.82
1.3199224247764314
% es.EY (V/m) @ t=0.82
0.3489801315176635
% es.EZ (V/m) @ t=0.82
-3.014689009647382
% es.tEX (V/m) @ t=0.82
1.3199224247764318
% es.tEY (V/m) @ t=0.82
0
% es.tEZ (V/m) @ t=0.82
-3.0146890096473946
% es.Ex (V/m) @ t=0.82
1.3199224247764314
% es.Ey (V/m) @ t=0.82
0.3489801315176635
% es.Ez (V/m) @ t=0.82
-3.014689009647382
% es.tEx (V/m) @ t=0.82
1.3199224247764318
% es.tEy (V/m) @ t=0.82
0
% es.tEz (V/m) @ t=0.82
-3.0146890096473946
% V (V) @ t=0.82
0.016558797106288627
% es.normE (V/m) @ t=0.84
3.3429178201069365
% es.EX (V/m) @ t=0.84
1.3322957246454803
% es.EY (V/m) @ t=0.84
0.3522508726958842
% es.EZ (V/m) @ t=0.84
-3.042951061750463
% es.tEX (V/m) @ t=0.84
1.3322957246454807
% es.tEY (V/m) @ t=0.84
0
% es.tEZ (V/m) @ t=0.84
-3.0429510617504683
% es.Ex (V/m) @ t=0.84
1.3322957246454803
% es.Ey (V/m) @ t=0.84
0.3522508726958842
% es.Ez (V/m) @ t=0.84
-3.042951061750463
% es.tEx (V/m) @ t=0.84
1.3322957246454807
% es.tEy (V/m) @ t=0.84
0
% es.tEz (V/m) @ t=0.84
-3.0429510617504683
% V (V) @ t=0.84
0.016714064315932455
% es.normE (V/m) @ t=0.86
3.373965543089385
% es.EX (V/m) @ t=0.86
1.3446690245145292
% es.EY (V/m) @ t=0.86
0.3555216138741244
% es.EZ (V/m) @ t=0.86
-3.0712131138535472
% es.tEX (V/m) @ t=0.86
1.3446690245145296
% es.tEY (V/m) @ t=0.86
0
% es.tEZ (V/m) @ t=0.86
-3.071213113853563
% es.Ex (V/m) @ t=0.86
1.3446690245145292
% es.Ey (V/m) @ t=0.86
0.3555216138741244
% es.Ez (V/m) @ t=0.86
-3.0712131138535472
% es.tEx (V/m) @ t=0.86
1.3446690245145296
% es.tEy (V/m) @ t=0.86
0
% es.tEz (V/m) @ t=0.86
-3.071213113853563
% V (V) @ t=0.86
0.01686933152557628
% es.normE (V/m) @ t=0.88
3.4050132660723156
% es.EX (V/m) @ t=0.88
1.357042324383586
% es.EY (V/m) @ t=0.88
0.3587923550523229
% es.EZ (V/m) @ t=0.88
-3.0994751659566457
% es.tEX (V/m) @ t=0.88
1.3570423243835794
% es.tEY (V/m) @ t=0.88
0
% es.tEZ (V/m) @ t=0.88
-3.0994751659566546
% es.Ex (V/m) @ t=0.88
1.357042324383586
% es.Ey (V/m) @ t=0.88
0.3587923550523229
% es.Ez (V/m) @ t=0.88
-3.0994751659566457
% es.tEx (V/m) @ t=0.88
1.3570423243835794
% es.tEy (V/m) @ t=0.88
0
% es.tEz (V/m) @ t=0.88
-3.0994751659566546
% V (V) @ t=0.88
0.01702459873522011
% es.normE (V/m) @ t=0.9
3.436060989055699
% es.EX (V/m) @ t=0.9
1.3694156242526287
% es.EY (V/m) @ t=0.9
0.3620630962305631
% es.EZ (V/m) @ t=0.9
-3.1277372180597407
% es.tEX (V/m) @ t=0.9
1.3694156242526292
% es.tEY (V/m) @ t=0.9
0
% es.tEZ (V/m) @ t=0.9
-3.127737218059753
% es.Ex (V/m) @ t=0.9
1.3694156242526287
% es.Ey (V/m) @ t=0.9
0.3620630962305631
% es.Ez (V/m) @ t=0.9
-3.1277372180597407
% es.tEx (V/m) @ t=0.9
1.3694156242526292
% es.tEy (V/m) @ t=0.9
0
% es.tEz (V/m) @ t=0.9
-3.127737218059753
% V (V) @ t=0.9
0.017179865944863936
% es.normE (V/m) @ t=0.92
3.467108712039524
% es.EX (V/m) @ t=0.92
1.3817889241216919
% es.EY (V/m) @ t=0.92
0.3653338374087651
% es.EZ (V/m) @ t=0.92
-3.1559992701628286
% es.tEX (V/m) @ t=0.92
1.3817889241216923
% es.tEY (V/m) @ t=0.92
0
% es.tEZ (V/m) @ t=0.92
-3.1559992701628374
% es.Ex (V/m) @ t=0.92
1.3817889241216919
% es.Ey (V/m) @ t=0.92
0.3653338374087651
% es.Ez (V/m) @ t=0.92
-3.1559992701628286
% es.tEx (V/m) @ t=0.92
1.3817889241216923
% es.tEy (V/m) @ t=0.92
0
% es.tEz (V/m) @ t=0.92
-3.1559992701628374
% V (V) @ t=0.92
0.017335133154507763
% es.normE (V/m) @ t=0.94
3.498156435023799
% es.EX (V/m) @ t=0.94
1.394162223990762
% es.EY (V/m) @ t=0.94
0.36860457858699647
% es.EZ (V/m) @ t=0.94
-3.184261322265927
% es.tEX (V/m) @ t=0.94
1.3941622239907554
% es.tEY (V/m) @ t=0.94
0
% es.tEZ (V/m) @ t=0.94
-3.184261322265936
% es.Ex (V/m) @ t=0.94
1.394162223990762
% es.Ey (V/m) @ t=0.94
0.36860457858699647
% es.Ez (V/m) @ t=0.94
-3.184261322265927
% es.tEx (V/m) @ t=0.94
1.3941622239907554
% es.tEy (V/m) @ t=0.94
0
% es.tEz (V/m) @ t=0.94
-3.184261322265936
% V (V) @ t=0.94
0.017490400364151594
% es.normE (V/m) @ t=0.96
3.52920415800848
% es.EX (V/m) @ t=0.96
1.406535523859818
% es.EY (V/m) @ t=0.96
0.37187531976520827
% es.EZ (V/m) @ t=0.96
-3.2125233743690185
% es.tEX (V/m) @ t=0.96
1.4065355238598185
% es.tEY (V/m) @ t=0.96
0
% es.tEZ (V/m) @ t=0.96
-3.2125233743690345
% es.Ex (V/m) @ t=0.96
1.406535523859818
% es.Ey (V/m) @ t=0.96
0.37187531976520827
% es.Ez (V/m) @ t=0.96
-3.2125233743690185
% es.tEx (V/m) @ t=0.96
1.4065355238598185
% es.tEy (V/m) @ t=0.96
0
% es.tEz (V/m) @ t=0.96
-3.2125233743690345
% V (V) @ t=0.96
0.01764566757379542
% es.normE (V/m) @ t=0.98
3.5602518809935684
% es.EX (V/m) @ t=0.98
1.4189088237288678
% es.EY (V/m) @ t=0.98
0.37514606094343783
% es.EZ (V/m) @ t=0.98
-3.2407854264721063
% es.tEX (V/m) @ t=0.98
1.4189088237288683
% es.tEY (V/m) @ t=0.98
0
% es.tEZ (V/m) @ t=0.98
-3.240785426472126
% es.Ex (V/m) @ t=0.98
1.4189088237288678
% es.Ey (V/m) @ t=0.98
0.37514606094343783
% es.Ez (V/m) @ t=0.98
-3.2407854264721063
% es.tEx (V/m) @ t=0.98
1.4189088237288683
% es.tEy (V/m) @ t=0.98
0
% es.tEz (V/m) @ t=0.98
-3.240785426472126
% V (V) @ t=0.98
0.017800934783439252
% es.normE (V/m) @ t=1
3.5912996039790657
% es.EX (V/m) @ t=1
1.4312821235979318
% es.EY (V/m) @ t=1
0.3784168021216363
% es.EZ (V/m) @ t=1
-3.2690474785752013
% es.tEX (V/m) @ t=1
1.4312821235979323
% es.tEY (V/m) @ t=1
0
% es.tEZ (V/m) @ t=1
-3.26904747857521
% es.Ex (V/m) @ t=1
1.4312821235979318
% es.Ey (V/m) @ t=1
0.3784168021216363
% es.Ez (V/m) @ t=1
-3.2690474785752013
% es.tEx (V/m) @ t=1
1.4312821235979323
% es.tEy (V/m) @ t=1
0
% es.tEz (V/m) @ t=1
-3.26904747857521
% V (V) @ t=1
0.01795620199308308
% es.normE (V/m) @ t=1.02
3.6223473269649364
% es.EX (V/m) @ t=1.02
1.4436554234669727
% es.EY (V/m) @ t=1.02
0.38168754329985344
% es.EZ (V/m) @ t=1.02
-3.2973095306782856
% es.tEX (V/m) @ t=1.02
1.4436554234669803
% es.tEY (V/m) @ t=1.02
0
% es.tEZ (V/m) @ t=1.02
-3.2973095306782874
% es.Ex (V/m) @ t=1.02
1.4436554234669727
% es.Ey (V/m) @ t=1.02
0.38168754329985344
% es.Ez (V/m) @ t=1.02
-3.2973095306782856
% es.tEx (V/m) @ t=1.02
1.4436554234669803
% es.tEy (V/m) @ t=1.02
0
% es.tEz (V/m) @ t=1.02
-3.2973095306782874
% V (V) @ t=1.02
0.018111469202726903
% es.normE (V/m) @ t=1.04
3.654480734246672
% es.EX (V/m) @ t=1.04
1.4564614049696751
% es.EY (V/m) @ t=1.04
0.3850726703203655
% es.EZ (V/m) @ t=1.04
-3.3265598520023563
% es.tEX (V/m) @ t=1.04
1.4564614049696756
% es.tEY (V/m) @ t=1.04
0
% es.tEZ (V/m) @ t=1.04
-3.326559852002351
% es.Ex (V/m) @ t=1.04
1.4564614049696751