% Model:              1 neuron.mph
% Version:            COMSOL 6.1.0.252
% Date:               Mar 22 2023, 19:37
% Dimension:          0
% Nodes:              14017
% Expressions:        14017
% Description:        Electric field norm, Electric field, X component, Electric field, Y component, Electric field, Z component, Tangential electric field, X component, Tangential electric field, Y component, Tangential electric field, Z component, Electric field, x component, Electric field, y component, Electric field, z component, Tangential electric field, x component, Tangential electric field, y component, Tangential electric field, z component, Electric potential
% Length unit:        mm
% x
2
% y
12.199999999999998
% z
2
% es.normE (V/m) @ t=0
1.3362920684014314
% es.EX (V/m) @ t=0
-0.9566612943480493
% es.EY (V/m) @ t=0
0.3643301271302182
% es.EZ (V/m) @ t=0
-0.8536753213824104
% es.tEX (V/m) @ t=0
-0.956661294348049
% es.tEY (V/m) @ t=0
0
% es.tEZ (V/m) @ t=0
-0.8536753213824184
% es.Ex (V/m) @ t=0
-0.9566612943480493
% es.Ey (V/m) @ t=0
0.3643301271302182
% es.Ez (V/m) @ t=0
-0.8536753213824104
% es.tEx (V/m) @ t=0
-0.956661294348049
% es.tEy (V/m) @ t=0
0
% es.tEz (V/m) @ t=0
-0.8536753213824184
% V (V) @ t=0
0.013599181977546485
% es.normE (V/m) @ t=0.02
1.1541721425099767
% es.EX (V/m) @ t=0.02
-0.826280303381302
% es.EY (V/m) @ t=0.02
0.314676479464169
% es.EZ (V/m) @ t=0.02
-0.737330032821732
% es.tEX (V/m) @ t=0.02
-0.8262803033813046
% es.tEY (V/m) @ t=0.02
0
% es.tEZ (V/m) @ t=0.02
-0.73733003282174
% es.Ex (V/m) @ t=0.02
-0.826280303381302
% es.Ey (V/m) @ t=0.02
0.314676479464169
% es.Ez (V/m) @ t=0.02
-0.737330032821732
% es.tEx (V/m) @ t=0.02
-0.8262803033813046
% es.tEy (V/m) @ t=0.02
0
% es.tEz (V/m) @ t=0.02
-0.73733003282174
% V (V) @ t=0.02
0.011745783248870444
% es.normE (V/m) @ t=0.04
1.164792577194928
% es.EX (V/m) @ t=0.04
-0.8338835504603861
% es.EY (V/m) @ t=0.04
0.3175720623019431
% es.EZ (V/m) @ t=0.04
-0.7441147793634526
% es.tEX (V/m) @ t=0.04
-0.833883550460389
% es.tEY (V/m) @ t=0.04
0
% es.tEZ (V/m) @ t=0.04
-0.7441147793634517
% es.Ex (V/m) @ t=0.04
-0.8338835504603861
% es.Ey (V/m) @ t=0.04
0.3175720623019431
% es.Ez (V/m) @ t=0.04
-0.7441147793634526
% es.tEx (V/m) @ t=0.04
-0.833883550460389
% es.tEy (V/m) @ t=0.04
0
% es.tEz (V/m) @ t=0.04
-0.7441147793634517
% V (V) @ t=0.04
0.011853865325636407
% es.normE (V/m) @ t=0.06
1.1754924694301414
% es.EX (V/m) @ t=0.06
-0.8415436819350786
% es.EY (V/m) @ t=0.06
0.3204893081779412
% es.EZ (V/m) @ t=0.06
-0.7509502865584423
% es.tEX (V/m) @ t=0.06
-0.841543681935077
% es.tEY (V/m) @ t=0.06
0
% es.tEZ (V/m) @ t=0.06
-0.7509502865584494
% es.Ex (V/m) @ t=0.06
-0.8415436819350786
% es.Ey (V/m) @ t=0.06
0.3204893081779412
% es.Ez (V/m) @ t=0.06
-0.7509502865584423
% es.tEx (V/m) @ t=0.06
-0.841543681935077
% es.tEy (V/m) @ t=0.06
0
% es.tEz (V/m) @ t=0.06
-0.7509502865584494
% V (V) @ t=0.06
0.011962756041563246
% es.normE (V/m) @ t=0.08
1.1863930111277439
% es.EX (V/m) @ t=0.08
-0.849347459714999
% es.EY (V/m) @ t=0.08
0.3234612600239273
% es.EZ (V/m) @ t=0.08
-0.7579139763584823
% es.tEX (V/m) @ t=0.08
-0.8493474597150006
% es.tEY (V/m) @ t=0.08
0
% es.tEZ (V/m) @ t=0.08
-0.7579139763585001
% es.Ex (V/m) @ t=0.08
-0.849347459714999
% es.Ey (V/m) @ t=0.08
0.3234612600239273
% es.Ez (V/m) @ t=0.08
-0.7579139763584823
% es.tEx (V/m) @ t=0.08
-0.8493474597150006
% es.tEy (V/m) @ t=0.08
0
% es.tEz (V/m) @ t=0.08
-0.7579139763585001
% V (V) @ t=0.08
0.012073688715454247
% es.normE (V/m) @ t=0.1
1.197355110585441
% es.EX (V/m) @ t=0.1
-0.8571953071110985
% es.EY (V/m) @ t=0.1
0.32644999525387197
% es.EZ (V/m) @ t=0.1
-0.7649169916267349
% es.tEX (V/m) @ t=0.1
-0.8571953071111058
% es.tEY (V/m) @ t=0.1
0
% es.tEZ (V/m) @ t=0.1
-0.7649169916267375
% es.Ex (V/m) @ t=0.1
-0.8571953071110985
% es.Ey (V/m) @ t=0.1
0.32644999525387197
% es.Ez (V/m) @ t=0.1
-0.7649169916267349
% es.tEx (V/m) @ t=0.1
-0.8571953071111058
% es.tEy (V/m) @ t=0.1
0
% es.tEz (V/m) @ t=0.1
-0.7649169916267375
% V (V) @ t=0.1
0.012185247846834744
% es.normE (V/m) @ t=0.12
1.2083172100431336
% es.EX (V/m) @ t=0.12
-0.8650431545072077
% es.EY (V/m) @ t=0.12
0.3294387304838322
% es.EZ (V/m) @ t=0.12
-0.7719200068949634
% es.tEX (V/m) @ t=0.12
-0.8650431545072008
% es.tEY (V/m) @ t=0.12
0
% es.tEZ (V/m) @ t=0.12
-0.7719200068949643
% es.Ex (V/m) @ t=0.12
-0.8650431545072077
% es.Ey (V/m) @ t=0.12
0.3294387304838322
% es.Ez (V/m) @ t=0.12
-0.7719200068949634
% es.tEx (V/m) @ t=0.12
-0.8650431545072008
% es.tEy (V/m) @ t=0.12
0
% es.tEz (V/m) @ t=0.12
-0.7719200068949643
% V (V) @ t=0.12
0.012296806978215244
% es.normE (V/m) @ t=0.14
1.2195779511849445
% es.EX (V/m) @ t=0.14
-0.8731048017087122
% es.EY (V/m) @ t=0.14
0.3325088880557914
% es.EZ (V/m) @ t=0.14
-0.7791138060967047
% es.tEX (V/m) @ t=0.14
-0.8731048017087195
% es.tEY (V/m) @ t=0.14
0
% es.tEZ (V/m) @ t=0.14
-0.7791138060967047
% es.Ex (V/m) @ t=0.14
-0.8731048017087122
% es.Ey (V/m) @ t=0.14
0.3325088880557914
% es.Ez (V/m) @ t=0.14
-0.7791138060967047
% es.tEx (V/m) @ t=0.14
-0.8731048017087195
% es.tEy (V/m) @ t=0.14
0
% es.tEz (V/m) @ t=0.14
-0.7791138060967047
% V (V) @ t=0.14
0.012411405330685594
% es.normE (V/m) @ t=0.16
1.2310931789129578
% es.EX (V/m) @ t=0.16
-0.8813486377522499
% es.EY (V/m) @ t=0.16
0.33564842942432005
% es.EZ (V/m) @ t=0.16
-0.7864701812364929
% es.tEX (V/m) @ t=0.16
-0.8813486377522439
% es.tEY (V/m) @ t=0.16
0
% es.tEZ (V/m) @ t=0.16
-0.786470181236492
% es.Ex (V/m) @ t=0.16
-0.8813486377522499
% es.Ey (V/m) @ t=0.16
0.33564842942432005
% es.Ez (V/m) @ t=0.16
-0.7864701812364929
% es.tEx (V/m) @ t=0.16
-0.8813486377522439
% es.tEy (V/m) @ t=0.16
0
% es.tEz (V/m) @ t=0.16
-0.786470181236492
% V (V) @ t=0.16
0.01252859354599471
% es.normE (V/m) @ t=0.18
1.2426084066409633
% es.EX (V/m) @ t=0.18
-0.8895924737957925
% es.EY (V/m) @ t=0.18
0.3387879707928314
% es.EZ (V/m) @ t=0.18
-0.793826556376267
% es.tEX (V/m) @ t=0.18
-0.889592473795783
% es.tEY (V/m) @ t=0.18
0
% es.tEZ (V/m) @ t=0.18
-0.7938265563762741
% es.Ex (V/m) @ t=0.18
-0.8895924737957925
% es.Ey (V/m) @ t=0.18
0.3387879707928314
% es.Ez (V/m) @ t=0.18
-0.793826556376267
% es.tEx (V/m) @ t=0.18
-0.889592473795783
% es.tEy (V/m) @ t=0.18
0
% es.tEz (V/m) @ t=0.18
-0.7938265563762741
% V (V) @ t=0.18
0.012645781761303827
% es.normE (V/m) @ t=0.2
1.2541236343689697
% es.EX (V/m) @ t=0.2
-0.8978363098393178
% es.EY (V/m) @ t=0.2
0.34192751216135076
% es.EZ (V/m) @ t=0.2
-0.8011829315160588
% es.tEX (V/m) @ t=0.2
-0.897836309839315
% es.tEY (V/m) @ t=0.2
0
% es.tEZ (V/m) @ t=0.2
-0.8011829315160703
% es.Ex (V/m) @ t=0.2
-0.8978363098393178
% es.Ey (V/m) @ t=0.2
0.34192751216135076
% es.Ez (V/m) @ t=0.2
-0.8011829315160588
% es.tEx (V/m) @ t=0.2
-0.897836309839315
% es.tEy (V/m) @ t=0.2
0
% es.tEz (V/m) @ t=0.2
-0.8011829315160703
% V (V) @ t=0.2
0.012762969976612942
% es.normE (V/m) @ t=0.22
1.2656388620969645
% es.EX (V/m) @ t=0.22
-0.9060801458828411
% es.EY (V/m) @ t=0.22
0.3450670535298688
% es.EZ (V/m) @ t=0.22
-0.8085393066558373
% es.tEX (V/m) @ t=0.22
-0.9060801458828367
% es.tEY (V/m) @ t=0.22
0
% es.tEZ (V/m) @ t=0.22
-0.8085393066558506
% es.Ex (V/m) @ t=0.22
-0.9060801458828411
% es.Ey (V/m) @ t=0.22
0.3450670535298688
% es.Ez (V/m) @ t=0.22
-0.8085393066558373
% es.tEx (V/m) @ t=0.22
-0.9060801458828367
% es.tEy (V/m) @ t=0.22
0
% es.tEz (V/m) @ t=0.22
-0.8085393066558506
% V (V) @ t=0.22
0.012880158191922056
% es.normE (V/m) @ t=0.24
1.2771540898249794
% es.EX (V/m) @ t=0.24
-0.9143239819263742
% es.EY (V/m) @ t=0.24
0.3482065948984028
% es.EZ (V/m) @ t=0.24
-0.8158956817956291
% es.tEX (V/m) @ t=0.24
-0.9143239819263718
% es.tEY (V/m) @ t=0.24
0
% es.tEZ (V/m) @ t=0.24
-0.8158956817956238
% es.Ex (V/m) @ t=0.24
-0.9143239819263742
% es.Ey (V/m) @ t=0.24
0.3482065948984028
% es.Ez (V/m) @ t=0.24
-0.8158956817956291
% es.tEx (V/m) @ t=0.24
-0.9143239819263718
% es.tEy (V/m) @ t=0.24
0
% es.tEz (V/m) @ t=0.24
-0.8158956817956238
% V (V) @ t=0.24
0.012997346407231172
% es.normE (V/m) @ t=0.26
1.288779685501567
% es.EX (V/m) @ t=0.26
-0.9226468321700263
% es.EY (V/m) @ t=0.26
0.35137622460483087
% es.EZ (V/m) @ t=0.26
-0.8233225646040436
% es.tEX (V/m) @ t=0.26
-0.9226468321700318
% es.tEY (V/m) @ t=0.26
0
% es.tEZ (V/m) @ t=0.26
-0.8233225646040427
% es.Ex (V/m) @ t=0.26
-0.9226468321700263
% es.Ey (V/m) @ t=0.26
0.35137622460483087
% es.Ez (V/m) @ t=0.26
-0.8233225646040436
% es.tEx (V/m) @ t=0.26
-0.9226468321700318
% es.tEy (V/m) @ t=0.26
0
% es.tEz (V/m) @ t=0.26
-0.8233225646040427
% V (V) @ t=0.26
0.013115657903196418
% es.normE (V/m) @ t=0.28
1.30153115312813
% es.EX (V/m) @ t=0.28
-0.9317757123590817
% es.EY (V/m) @ t=0.28
0.3548527877653407
% es.EZ (V/m) @ t=0.28
-0.8314687015744067
% es.tEX (V/m) @ t=0.28
-0.9317757123590824
% es.tEY (V/m) @ t=0.28
0
% es.tEZ (V/m) @ t=0.28
-0.8314687015744102
% es.Ex (V/m) @ t=0.28
-0.9317757123590817
% es.Ey (V/m) @ t=0.28
0.3548527877653407
% es.Ez (V/m) @ t=0.28
-0.8314687015744067
% es.tEx (V/m) @ t=0.28
-0.9317757123590824
% es.tEy (V/m) @ t=0.28
0
% es.tEz (V/m) @ t=0.28
-0.8314687015744102
% V (V) @ t=0.28
0.013245428071710313
% es.normE (V/m) @ t=0.3
1.314282620754689
% es.EX (V/m) @ t=0.3
-0.9409045925481248
% es.EY (V/m) @ t=0.3
0.3583293509258598
% es.EZ (V/m) @ t=0.3
-0.8396148385447715
% es.tEX (V/m) @ t=0.3
-0.9409045925481232
% es.tEY (V/m) @ t=0.3
0
% es.tEZ (V/m) @ t=0.3
-0.8396148385447724
% es.Ex (V/m) @ t=0.3
-0.9409045925481248
% es.Ey (V/m) @ t=0.3
0.3583293509258598
% es.Ez (V/m) @ t=0.3
-0.8396148385447715
% es.tEx (V/m) @ t=0.3
-0.9409045925481232
% es.tEy (V/m) @ t=0.3
0
% es.tEz (V/m) @ t=0.3
-0.8396148385447724
% V (V) @ t=0.3
0.013375198240224212
% es.normE (V/m) @ t=0.32
1.3270340883812557
% es.EX (V/m) @ t=0.32
-0.9500334727371997
% es.EY (V/m) @ t=0.32
0.36180591408637586
% es.EZ (V/m) @ t=0.32
-0.8477609755151105
% es.tEX (V/m) @ t=0.32
-0.9500334727371986
% es.tEY (V/m) @ t=0.32
0
% es.tEZ (V/m) @ t=0.32
-0.8477609755151043
% es.Ex (V/m) @ t=0.32
-0.9500334727371997
% es.Ey (V/m) @ t=0.32
0.36180591408637586
% es.Ez (V/m) @ t=0.32
-0.8477609755151105
% es.tEx (V/m) @ t=0.32
-0.9500334727371986
% es.tEy (V/m) @ t=0.32
0
% es.tEz (V/m) @ t=0.32
-0.8477609755151043
% V (V) @ t=0.32
0.013504968408738107
% es.normE (V/m) @ t=0.34
1.3397855560078282
% es.EX (V/m) @ t=0.34
-0.9591623529262641
% es.EY (V/m) @ t=0.34
0.36528247724688967
% es.EZ (V/m) @ t=0.34
-0.8559071124854727
% es.tEX (V/m) @ t=0.34
-0.9591623529262638
% es.tEY (V/m) @ t=0.34
0
% es.tEZ (V/m) @ t=0.34
-0.8559071124854736
% es.Ex (V/m) @ t=0.34
-0.9591623529262641
% es.Ey (V/m) @ t=0.34
0.36528247724688967
% es.Ez (V/m) @ t=0.34
-0.8559071124854727
% es.tEx (V/m) @ t=0.34
-0.9591623529262638
% es.tEy (V/m) @ t=0.34
0
% es.tEz (V/m) @ t=0.34
-0.8559071124854736
% V (V) @ t=0.34
0.013634738577252007
% es.normE (V/m) @ t=0.36
1.3525370236343763
% es.EX (V/m) @ t=0.36
-0.9682912331153022
% es.EY (V/m) @ t=0.36
0.36875904040738483
% es.EZ (V/m) @ t=0.36
-0.8640532494558295
% es.tEX (V/m) @ t=0.36
-0.9682912331152975
% es.tEY (V/m) @ t=0.36
0
% es.tEZ (V/m) @ t=0.36
-0.8640532494558357
% es.Ex (V/m) @ t=0.36
-0.9682912331153022
% es.Ey (V/m) @ t=0.36
0.36875904040738483
% es.Ez (V/m) @ t=0.36
-0.8640532494558295
% es.tEx (V/m) @ t=0.36
-0.9682912331152975
% es.tEy (V/m) @ t=0.36
0
% es.tEz (V/m) @ t=0.36
-0.8640532494558357
% V (V) @ t=0.36
0.013764508745765899
% es.normE (V/m) @ t=0.38
1.3652884912609653
% es.EX (V/m) @ t=0.38
-0.9774201133043745
% es.EY (V/m) @ t=0.38
0.3722356035679044
% es.EZ (V/m) @ t=0.38
-0.8721993864261997
% es.tEX (V/m) @ t=0.38
-0.9774201133043685
% es.tEY (V/m) @ t=0.38
0
% es.tEZ (V/m) @ t=0.38
-0.8721993864262103
% es.Ex (V/m) @ t=0.38
-0.9774201133043745
% es.Ey (V/m) @ t=0.38
0.3722356035679044
% es.Ez (V/m) @ t=0.38
-0.8721993864261997
% es.tEx (V/m) @ t=0.38
-0.9774201133043685
% es.tEy (V/m) @ t=0.38
0
% es.tEz (V/m) @ t=0.38
-0.8721993864262103
% V (V) @ t=0.38
0.013894278914279795
% es.normE (V/m) @ t=0.4
1.3780399588875358
% es.EX (V/m) @ t=0.4
-0.9865489934934324
% es.EY (V/m) @ t=0.4
0.37571216672841734
% es.EZ (V/m) @ t=0.4
-0.8803455233965582
% es.tEX (V/m) @ t=0.4
-0.9865489934934333
% es.tEY (V/m) @ t=0.4
0
% es.tEZ (V/m) @ t=0.4
-0.8803455233965582
% es.Ex (V/m) @ t=0.4
-0.9865489934934324
% es.Ey (V/m) @ t=0.4
0.37571216672841734
% es.Ez (V/m) @ t=0.4
-0.8803455233965582
% es.tEx (V/m) @ t=0.4
-0.9865489934934333
% es.tEy (V/m) @ t=0.4
0
% es.tEz (V/m) @ t=0.4
-0.8803455233965582
% V (V) @ t=0.4
0.014024049082793694
% es.normE (V/m) @ t=0.42
1.3907914265140962
% es.EX (V/m) @ t=0.42
-0.9956778736824756
% es.EY (V/m) @ t=0.42
0.37918872988892227
% es.EZ (V/m) @ t=0.42
-0.8884916603669168
% es.tEX (V/m) @ t=0.42
-0.9956778736824701
% es.tEY (V/m) @ t=0.42
0
% es.tEZ (V/m) @ t=0.42
-0.8884916603669204
% es.Ex (V/m) @ t=0.42
-0.9956778736824756
% es.Ey (V/m) @ t=0.42
0.37918872988892227
% es.Ez (V/m) @ t=0.42
-0.8884916603669168
% es.tEx (V/m) @ t=0.42
-0.9956778736824701
% es.tEy (V/m) @ t=0.42
0
% es.tEz (V/m) @ t=0.42
-0.8884916603669204
% V (V) @ t=0.42
0.014153819251307593
% es.normE (V/m) @ t=0.44
1.4035428941406782
% es.EX (V/m) @ t=0.44
-1.004806753871543
% es.EY (V/m) @ t=0.44
0.38266529304942054
% es.EZ (V/m) @ t=0.44
-0.896637797337287
% es.tEX (V/m) @ t=0.44
-1.004806753871541
% es.tEY (V/m) @ t=0.44
0
% es.tEZ (V/m) @ t=0.44
-0.8966377973372879
% es.Ex (V/m) @ t=0.44
-1.004806753871543
% es.Ey (V/m) @ t=0.44
0.38266529304942054
% es.Ez (V/m) @ t=0.44
-0.896637797337287
% es.tEx (V/m) @ t=0.44
-1.004806753871541
% es.tEy (V/m) @ t=0.44
0
% es.tEz (V/m) @ t=0.44
-0.8966377973372879
% V (V) @ t=0.44
0.014283589419821486
% es.normE (V/m) @ t=0.46
1.4162943617672425
% es.EX (V/m) @ t=0.46
-1.0139356340605985
% es.EY (V/m) @ t=0.46
0.3861418562099663
% es.EZ (V/m) @ t=0.46
-0.9047839343076189
% es.tEX (V/m) @ t=0.46
-1.0139356340606063
% es.tEY (V/m) @ t=0.46
0
% es.tEZ (V/m) @ t=0.46
-0.9047839343076287
% es.Ex (V/m) @ t=0.46
-1.0139356340605985
% es.Ey (V/m) @ t=0.46
0.3861418562099663
% es.Ez (V/m) @ t=0.46
-0.9047839343076189
% es.tEx (V/m) @ t=0.46
-1.0139356340606063
% es.tEy (V/m) @ t=0.46
0
% es.tEz (V/m) @ t=0.46
-0.9047839343076287
% V (V) @ t=0.46
0.014413359588335384
% es.normE (V/m) @ t=0.48
1.4290458293938222
% es.EX (V/m) @ t=0.48
-1.0230645142496535
% es.EY (V/m) @ t=0.48
0.38961841937046726
% es.EZ (V/m) @ t=0.48
-0.9129300712779944
% es.tEX (V/m) @ t=0.48
-1.0230645142496502
% es.tEY (V/m) @ t=0.48
0
% es.tEZ (V/m) @ t=0.48
-0.9129300712780033
% es.Ex (V/m) @ t=0.48
-1.0230645142496535
% es.Ey (V/m) @ t=0.48
0.38961841937046726
% es.Ez (V/m) @ t=0.48
-0.9129300712779944
% es.tEx (V/m) @ t=0.48
-1.0230645142496502
% es.tEy (V/m) @ t=0.48
0
% es.tEz (V/m) @ t=0.48
-0.9129300712780033
% V (V) @ t=0.48
0.01454312975684928
% es.normE (V/m) @ t=0.5
1.441797297020393
% es.EX (V/m) @ t=0.5
-1.0321933944387147
% es.EY (V/m) @ t=0.5
0.39309498253096686
% es.EZ (V/m) @ t=0.5
-0.9210762082483477
% es.tEX (V/m) @ t=0.5
-1.032193394438719
% es.tEY (V/m) @ t=0.5
0
% es.tEZ (V/m) @ t=0.5
-0.9210762082483654
% es.Ex (V/m) @ t=0.5
-1.0321933944387147
% es.Ey (V/m) @ t=0.5
0.39309498253096686
% es.Ez (V/m) @ t=0.5
-0.9210762082483477
% es.tEx (V/m) @ t=0.5
-1.032193394438719
% es.tEy (V/m) @ t=0.5
0
% es.tEz (V/m) @ t=0.5
-0.9210762082483654
% V (V) @ t=0.5
0.014672899925363176
% es.normE (V/m) @ t=0.52
1.4548103489022806
% es.EX (V/m) @ t=0.52
-1.0415095423698861
% es.EY (V/m) @ t=0.52
0.3966428711323142
% es.EZ (V/m) @ t=0.52
-0.9293894545960626
% es.tEX (V/m) @ t=0.52
-1.0415095423698895
% es.tEY (V/m) @ t=0.52
0
% es.tEZ (V/m) @ t=0.52
-0.9293894545960661
% es.Ex (V/m) @ t=0.52
-1.0415095423698861
% es.Ey (V/m) @ t=0.52
0.3966428711323142
% es.Ez (V/m) @ t=0.52
-0.9293894545960626
% es.tEx (V/m) @ t=0.52
-1.0415095423698895
% es.tEy (V/m) @ t=0.52
0
% es.tEz (V/m) @ t=0.52
-0.9293894545960661
% V (V) @ t=0.52
0.014805331973527066
% es.normE (V/m) @ t=0.54
1.4689531967379579
% es.EX (V/m) @ t=0.54
-1.0516345093832873
% es.EY (V/m) @ t=0.54
0.40049881800863885
% es.EZ (V/m) @ t=0.54
-0.9384244550041245
% es.tEX (V/m) @ t=0.54
-1.0516345093832862
% es.tEY (V/m) @ t=0.54
0
% es.tEZ (V/m) @ t=0.54
-0.9384244550041263
% es.Ex (V/m) @ t=0.54
-1.0516345093832873
% es.Ey (V/m) @ t=0.54
0.40049881800863885
% es.Ez (V/m) @ t=0.54
-0.9384244550041245
% es.tEx (V/m) @ t=0.54
-1.0516345093832862
% es.tEy (V/m) @ t=0.54
0
% es.tEz (V/m) @ t=0.54
-0.9384244550041263
% V (V) @ t=0.54
0.014949260817836034
% es.normE (V/m) @ t=0.56
1.4830960445736305
% es.EX (V/m) @ t=0.56
-1.0617594763967035
% es.EY (V/m) @ t=0.56
0.40435476488497324
% es.EZ (V/m) @ t=0.56
-0.947459455412158
% es.tEX (V/m) @ t=0.56
-1.061759476396701
% es.tEY (V/m) @ t=0.56
0
% es.tEZ (V/m) @ t=0.56
-0.9474594554121651
% es.Ex (V/m) @ t=0.56
-1.0617594763967035
% es.Ey (V/m) @ t=0.56
0.40435476488497324
% es.Ez (V/m) @ t=0.56
-0.947459455412158
% es.tEx (V/m) @ t=0.56
-1.061759476396701
% es.tEy (V/m) @ t=0.56
0
% es.tEz (V/m) @ t=0.56
-0.9474594554121651
% V (V) @ t=0.56
0.015093189662145004
% es.normE (V/m) @ t=0.58
1.4972388924093132
% es.EX (V/m) @ t=0.58
-1.0718844434101238
% es.EY (V/m) @ t=0.58
0.4082107117613134
% es.EZ (V/m) @ t=0.58
-0.9564944558201969
% es.tEX (V/m) @ t=0.58
-1.0718844434101218
% es.tEY (V/m) @ t=0.58
0
% es.tEZ (V/m) @ t=0.58
-0.9564944558201969
% es.Ex (V/m) @ t=0.58
-1.0718844434101238
% es.Ey (V/m) @ t=0.58
0.4082107117613134
% es.Ez (V/m) @ t=0.58
-0.9564944558201969
% es.tEx (V/m) @ t=0.58
-1.0718844434101218
% es.tEy (V/m) @ t=0.58
0
% es.tEz (V/m) @ t=0.58
-0.9564944558201969
% V (V) @ t=0.58
0.015237118506453972
% es.normE (V/m) @ t=0.6
1.5113817402449872
% es.EX (V/m) @ t=0.6
-1.0820094104235316
% es.EY (V/m) @ t=0.6
0.41206665863764247
% es.EZ (V/m) @ t=0.6
-0.9655294562282446
% es.tEX (V/m) @ t=0.6
-1.0820094104235332
% es.tEY (V/m) @ t=0.6
0
% es.tEZ (V/m) @ t=0.6
-0.965529456228257
% es.Ex (V/m) @ t=0.6
-1.0820094104235316
% es.Ey (V/m) @ t=0.6
0.41206665863764247
% es.Ez (V/m) @ t=0.6
-0.9655294562282446
% es.tEx (V/m) @ t=0.6
-1.0820094104235332
% es.tEy (V/m) @ t=0.6
0
% es.tEz (V/m) @ t=0.6
-0.965529456228257
% V (V) @ t=0.6
0.015381047350762941
% es.normE (V/m) @ t=0.62
1.5255245880806618
% es.EX (V/m) @ t=0.62
-1.0921343774369452
% es.EY (V/m) @ t=0.62
0.4159226055139804
% es.EZ (V/m) @ t=0.62
-0.9745644566362799
% es.tEX (V/m) @ t=0.62
-1.0921343774369476
% es.tEY (V/m) @ t=0.62
0
% es.tEZ (V/m) @ t=0.62
-0.9745644566362905
% es.Ex (V/m) @ t=0.62
-1.0921343774369452
% es.Ey (V/m) @ t=0.62
0.4159226055139804
% es.Ez (V/m) @ t=0.62
-0.9745644566362799
% es.tEx (V/m) @ t=0.62
-1.0921343774369476
% es.tEy (V/m) @ t=0.62
0
% es.tEz (V/m) @ t=0.62
-0.9745644566362905
% V (V) @ t=0.62
0.01552497619507191
% es.normE (V/m) @ t=0.64
1.5396674359163616
% es.EX (V/m) @ t=0.64
-1.1022593444503743
% es.EY (V/m) @ t=0.64
0.41977855239030903
% es.EZ (V/m) @ t=0.64
-0.9835994570443418
% es.tEX (V/m) @ t=0.64
-1.1022593444503688
% es.tEY (V/m) @ t=0.64
0
% es.tEZ (V/m) @ t=0.64
-0.9835994570443436
% es.Ex (V/m) @ t=0.64
-1.1022593444503743
% es.Ey (V/m) @ t=0.64
0.41977855239030903
% es.Ez (V/m) @ t=0.64
-0.9835994570443418
% es.tEx (V/m) @ t=0.64
-1.1022593444503688
% es.tEy (V/m) @ t=0.64
0
% es.tEz (V/m) @ t=0.64
-0.9835994570443436
% V (V) @ t=0.64
0.015668905039380874
% es.normE (V/m) @ t=0.66
1.5538102837520376
% es.EX (V/m) @ t=0.66
-1.1123843114637821
% es.EY (V/m) @ t=0.66
0.4236344992666399
% es.EZ (V/m) @ t=0.66
-0.9926344574523913
% es.tEX (V/m) @ t=0.66
-1.1123843114637766
% es.tEY (V/m) @ t=0.66
0
% es.tEZ (V/m) @ t=0.66
-0.9926344574523824
% es.Ex (V/m) @ t=0.66
-1.1123843114637821
% es.Ey (V/m) @ t=0.66
0.4236344992666399
% es.Ez (V/m) @ t=0.66
-0.9926344574523913
% es.tEx (V/m) @ t=0.66
-1.1123843114637766
% es.tEy (V/m) @ t=0.66
0
% es.tEz (V/m) @ t=0.66
-0.9926344574523824
% V (V) @ t=0.66
0.01581283388368985
% es.normE (V/m) @ t=0.68
1.567953131587711
% es.EX (V/m) @ t=0.68
-1.1225092784771935
% es.EY (V/m) @ t=0.68
0.4274904461429916
% es.EZ (V/m) @ t=0.68
-1.001669457860423
% es.tEX (V/m) @ t=0.68
-1.1225092784771906
% es.tEY (V/m) @ t=0.68
0
% es.tEZ (V/m) @ t=0.68
-1.0016694578604355
% es.Ex (V/m) @ t=0.68
-1.1225092784771935
% es.Ey (V/m) @ t=0.68
0.4274904461429916
% es.Ez (V/m) @ t=0.68
-1.001669457860423
% es.tEx (V/m) @ t=0.68
-1.1225092784771906
% es.tEy (V/m) @ t=0.68
0
% es.tEz (V/m) @ t=0.68
-1.0016694578604355
% V (V) @ t=0.68
0.015956762727998817
% es.normE (V/m) @ t=0.7
1.5820959794233873
% es.EX (V/m) @ t=0.7
-1.1326342454906064
% es.EY (V/m) @ t=0.7
0.43134639301930777
% es.EZ (V/m) @ t=0.7
-1.0107044582684708
% es.tEX (V/m) @ t=0.7
-1.1326342454906078
% es.tEY (V/m) @ t=0.7
0
% es.tEZ (V/m) @ t=0.7
-1.0107044582684743
% es.Ex (V/m) @ t=0.7
-1.1326342454906064
% es.Ey (V/m) @ t=0.7
0.43134639301930777
% es.Ez (V/m) @ t=0.7
-1.0107044582684708
% es.tEx (V/m) @ t=0.7
-1.1326342454906078
% es.tEy (V/m) @ t=0.7
0
% es.tEz (V/m) @ t=0.7
-1.0107044582684743
% V (V) @ t=0.7
0.01610069157230778
% es.normE (V/m) @ t=0.72
1.5962388272590682
% es.EX (V/m) @ t=0.72
-1.1427592125040318
% es.EY (V/m) @ t=0.72
0.43520233989562973
% es.EZ (V/m) @ t=0.72
-1.0197394586765096
% es.tEX (V/m) @ t=0.72
-1.142759212504029
% es.tEY (V/m) @ t=0.72
0
% es.tEZ (V/m) @ t=0.72
-1.0197394586765203
% es.Ex (V/m) @ t=0.72
-1.1427592125040318
% es.Ey (V/m) @ t=0.72
0.43520233989562973
% es.Ez (V/m) @ t=0.72
-1.0197394586765096
% es.tEx (V/m) @ t=0.72
-1.142759212504029
% es.tEy (V/m) @ t=0.72
0
% es.tEz (V/m) @ t=0.72
-1.0197394586765203
% V (V) @ t=0.72
0.01624462041661675
% es.normE (V/m) @ t=0.74
1.6103816750947617
% es.EX (V/m) @ t=0.74
-1.1528841795174547
% es.EY (V/m) @ t=0.74
0.439058286771965
% es.EZ (V/m) @ t=0.74
-1.028774459084568
% es.tEX (V/m) @ t=0.74
-1.1528841795174518
% es.tEY (V/m) @ t=0.74
0
% es.tEZ (V/m) @ t=0.74
-1.0287744590845609
% es.Ex (V/m) @ t=0.74
-1.1528841795174547
% es.Ey (V/m) @ t=0.74
0.439058286771965
% es.Ez (V/m) @ t=0.74
-1.028774459084568
% es.tEx (V/m) @ t=0.74
-1.1528841795174518
% es.tEy (V/m) @ t=0.74
0
% es.tEz (V/m) @ t=0.74
-1.0287744590845609
% V (V) @ t=0.74
0.01638854926092572
% es.normE (V/m) @ t=0.76
1.624524522930423
% es.EX (V/m) @ t=0.76
-1.163009146530857
% es.EY (V/m) @ t=0.76
0.4429142336483025
% es.EZ (V/m) @ t=0.76
-1.0378094594925935
% es.tEX (V/m) @ t=0.76
-1.1630091465308592
% es.tEY (V/m) @ t=0.76
0
% es.tEZ (V/m) @ t=0.76
-1.0378094594925997
% es.Ex (V/m) @ t=0.76
-1.163009146530857
% es.Ey (V/m) @ t=0.76
0.4429142336483025
% es.Ez (V/m) @ t=0.76
-1.0378094594925935
% es.tEx (V/m) @ t=0.76
-1.1630091465308592
% es.tEy (V/m) @ t=0.76
0
% es.tEz (V/m) @ t=0.76
-1.0378094594925997
% V (V) @ t=0.76
0.016532478105234692
% es.normE (V/m) @ t=0.78
1.6391171487190896
% es.EX (V/m) @ t=0.78
-1.1734561143927682
% es.EY (V/m) @ t=0.78
0.4468928049565859
% es.EZ (V/m) @ t=0.78
-1.047131796089455
% es.tEX (V/m) @ t=0.78
-1.1734561143927658
% es.tEY (V/m) @ t=0.78
0
% es.tEZ (V/m) @ t=0.78
-1.047131796089463
% es.Ex (V/m) @ t=0.78
-1.1734561143927682
% es.Ey (V/m) @ t=0.78
0.4468928049565859
% es.Ez (V/m) @ t=0.78
-1.047131796089455
% es.tEx (V/m) @ t=0.78
-1.1734561143927658
% es.tEy (V/m) @ t=0.78
0
% es.tEz (V/m) @ t=0.78
-1.047131796089463
% V (V) @ t=0.78
0.016680984389850422
% es.normE (V/m) @ t=0.8
1.654828644294846
% es.EX (V/m) @ t=0.8
-1.1847040931054884
% es.EY (V/m) @ t=0.8
0.45117641738828196
% es.EZ (V/m) @ t=0.8
-1.057168911563931
% es.tEX (V/m) @ t=0.8
-1.1847040931054909
% es.tEY (V/m) @ t=0.8
0
% es.tEZ (V/m) @ t=0.8
-1.0571689115639344
% es.Ex (V/m) @ t=0.8
-1.1847040931054884
% es.Ey (V/m) @ t=0.8
0.45117641738828196
% es.Ez (V/m) @ t=0.8
-1.057168911563931
% es.tEx (V/m) @ t=0.8
-1.1847040931054909
% es.tEy (V/m) @ t=0.8
0
% es.tEz (V/m) @ t=0.8
-1.0571689115639344
% V (V) @ t=0.8
0.016840877536866902
% es.normE (V/m) @ t=0.82
1.6705401398705988
% es.EX (V/m) @ t=0.82
-1.195952071818205
% es.EY (V/m) @ t=0.82
0.4554600298199998
% es.EZ (V/m) @ t=0.82
-1.0672060270383952
% es.tEX (V/m) @ t=0.82
-1.1959520718182057
% es.tEY (V/m) @ t=0.82
0
% es.tEZ (V/m) @ t=0.82
-1.06720602703842
% es.Ex (V/m) @ t=0.82
-1.195952071818205
% es.Ey (V/m) @ t=0.82
0.4554600298199998
% es.Ez (V/m) @ t=0.82
-1.0672060270383952
% es.tEx (V/m) @ t=0.82
-1.1959520718182057
% es.tEy (V/m) @ t=0.82
0
% es.tEz (V/m) @ t=0.82
-1.06720602703842
% V (V) @ t=0.82
0.017000770683883382
% es.normE (V/m) @ t=0.84
1.6862516354463801
% es.EX (V/m) @ t=0.84
-1.2072000505309555
% es.EY (V/m) @ t=0.84
0.4597436422517065
% es.EZ (V/m) @ t=0.84
-1.077243142512871
% es.tEX (V/m) @ t=0.84
-1.2072000505309526
% es.tEY (V/m) @ t=0.84
0
% es.tEZ (V/m) @ t=0.84
-1.077243142512863
% es.Ex (V/m) @ t=0.84
-1.2072000505309555
% es.Ey (V/m) @ t=0.84
0.4597436422517065
% es.Ez (V/m) @ t=0.84
-1.077243142512871
% es.tEx (V/m) @ t=0.84
-1.2072000505309526
% es.tEy (V/m) @ t=0.84
0
% es.tEz (V/m) @ t=0.84
-1.077243142512863
% V (V) @ t=0.84
0.017160663830899862
% es.normE (V/m) @ t=0.86
1.7019631310221328
% es.EX (V/m) @ t=0.86
-1.2184480292436686
% es.EY (V/m) @ t=0.86
0.4640272546834079
% es.EZ (V/m) @ t=0.86
-1.087280257987346
% es.tEX (V/m) @ t=0.86
-1.2184480292436701
% es.tEY (V/m) @ t=0.86
0
% es.tEZ (V/m) @ t=0.86
-1.0872802579873415
% es.Ex (V/m) @ t=0.86
-1.2184480292436686
% es.Ey (V/m) @ t=0.86
0.4640272546834079
% es.Ez (V/m) @ t=0.86
-1.087280257987346
% es.tEx (V/m) @ t=0.86
-1.2184480292436701
% es.tEy (V/m) @ t=0.86
0
% es.tEz (V/m) @ t=0.86
-1.0872802579873415
% V (V) @ t=0.86
0.017320556977916342
% es.normE (V/m) @ t=0.88
1.7176746265979
% es.EX (V/m) @ t=0.88
-1.2296960079564048
% es.EY (V/m) @ t=0.88
0.46831086711512926
% es.EZ (V/m) @ t=0.88
-1.0973173734618031
% es.tEX (V/m) @ t=0.88
-1.2296960079564054
% es.tEY (V/m) @ t=0.88
0
% es.tEZ (V/m) @ t=0.88
-1.0973173734618058
% es.Ex (V/m) @ t=0.88
-1.2296960079564048
% es.Ey (V/m) @ t=0.88
0.46831086711512926
% es.Ez (V/m) @ t=0.88
-1.0973173734618031
% es.tEx (V/m) @ t=0.88
-1.2296960079564054
% es.tEy (V/m) @ t=0.88
0
% es.tEz (V/m) @ t=0.88
-1.0973173734618058
% V (V) @ t=0.88
0.017480450124932826
% es.normE (V/m) @ t=0.9
1.7333861221736429
% es.EX (V/m) @ t=0.9
-1.2409439866691054
% es.EY (V/m) @ t=0.9
0.47259447954681466
% es.EZ (V/m) @ t=0.9
-1.107354488936286
% es.tEX (V/m) @ t=0.9
-1.2409439866691097
% es.tEY (V/m) @ t=0.9
0
% es.tEZ (V/m) @ t=0.9
-1.1073544889362914
% es.Ex (V/m) @ t=0.9
-1.2409439866691054
% es.Ey (V/m) @ t=0.9
0.47259447954681466
% es.Ez (V/m) @ t=0.9
-1.107354488936286
% es.tEx (V/m) @ t=0.9
-1.2409439866691097
% es.tEy (V/m) @ t=0.9
0
% es.tEz (V/m) @ t=0.9
-1.1073544889362914
% V (V) @ t=0.9
0.017640343271949303
% es.normE (V/m) @ t=0.92
1.7490976177494206
% es.EX (V/m) @ t=0.92
-1.2521919653818612
% es.EY (V/m) @ t=0.92
0.47687809197854625
% es.EZ (V/m) @ t=0.92
-1.1173916044107353
% es.tEX (V/m) @ t=0.92
-1.252191965381852
% es.tEY (V/m) @ t=0.92
0
% es.tEZ (V/m) @ t=0.92
-1.1173916044107415
% es.Ex (V/m) @ t=0.92
-1.2521919653818612
% es.Ey (V/m) @ t=0.92
0.47687809197854625
% es.Ez (V/m) @ t=0.92
-1.1173916044107353
% es.tEx (V/m) @ t=0.92
-1.252191965381852
% es.tEy (V/m) @ t=0.92
0
% es.tEz (V/m) @ t=0.92
-1.1173916044107415
% V (V) @ t=0.92
0.017800236418965786
% es.normE (V/m) @ t=0.94
1.7648091133251766
% es.EX (V/m) @ t=0.94
-1.2634399440945692
% es.EY (V/m) @ t=0.94
0.4811617044102552
% es.EZ (V/m) @ t=0.94
-1.1274287198852182
% es.tEX (V/m) @ t=0.94
-1.2634399440945696
% es.tEY (V/m) @ t=0.94
0
% es.tEZ (V/m) @ t=0.94
-1.1274287198852342
% es.Ex (V/m) @ t=0.94
-1.2634399440945692
% es.Ey (V/m) @ t=0.94
0.4811617044102552
% es.Ez (V/m) @ t=0.94
-1.1274287198852182
% es.tEx (V/m) @ t=0.94
-1.2634399440945696
% es.tEy (V/m) @ t=0.94
0
% es.tEz (V/m) @ t=0.94
-1.1274287198852342
% V (V) @ t=0.94
0.01796012956598227
% es.normE (V/m) @ t=0.96
1.7805206089009484
% es.EX (V/m) @ t=0.96
-1.2746879228073125
% es.EY (V/m) @ t=0.96
0.4854453168419175
% es.EZ (V/m) @ t=0.96
-1.1374658353597074
% es.tEX (V/m) @ t=0.96
-1.2746879228073094
% es.tEY (V/m) @ t=0.96
0
% es.tEZ (V/m) @ t=0.96
-1.1374658353597198
% es.Ex (V/m) @ t=0.96
-1.2746879228073125
% es.Ey (V/m) @ t=0.96
0.4854453168419175
% es.Ez (V/m) @ t=0.96
-1.1374658353597074
% es.tEx (V/m) @ t=0.96
-1.2746879228073094
% es.tEy (V/m) @ t=0.96
0
% es.tEz (V/m) @ t=0.96
-1.1374658353597198
% V (V) @ t=0.96
0.018120022712998746
% es.normE (V/m) @ t=0.98
1.7962321044767098
% es.EX (V/m) @ t=0.98
-1.2859359015200365
% es.EY (V/m) @ t=0.98
0.48972892927366374
% es.EZ (V/m) @ t=0.98
-1.1475029508341628
% es.tEX (V/m) @ t=0.98
-1.2859359015200305
% es.tEY (V/m) @ t=0.98
0
% es.tEZ (V/m) @ t=0.98
-1.1475029508341557
% es.Ex (V/m) @ t=0.98
-1.2859359015200365
% es.Ey (V/m) @ t=0.98
0.48972892927366374
% es.Ez (V/m) @ t=0.98
-1.1475029508341628
% es.tEx (V/m) @ t=0.98
-1.2859359015200305
% es.tEy (V/m) @ t=0.98
0
% es.tEz (V/m) @ t=0.98
-1.1475029508341557
% V (V) @ t=0.98
0.01827991586001523
% es.normE (V/m) @ t=1
1.8119436000524813
% es.EX (V/m) @ t=1
-1.297183880232762
% es.EY (V/m) @ t=1
0.49401254170537046
% es.EZ (V/m) @ t=1
-1.1575400663086475
% es.tEX (V/m) @ t=1
-1.297183880232755
% es.tEY (V/m) @ t=1
0
% es.tEZ (V/m) @ t=1
-1.1575400663086484
% es.Ex (V/m) @ t=1
-1.297183880232762
% es.Ey (V/m) @ t=1
0.49401254170537046
% es.Ez (V/m) @ t=1
-1.1575400663086475
% es.tEx (V/m) @ t=1
-1.297183880232755
% es.tEy (V/m) @ t=1
0
% es.tEz (V/m) @ t=1
-1.1575400663086484
% V (V) @ t=1
0.01843980900703171
% es.normE (V/m) @ t=1.02
1.827655095628228
% es.EX (V/m) @ t=1.02
-1.3084318589454733
% es.EY (V/m) @ t=1.02
0.4982961541370807
% es.EZ (V/m) @ t=1.02
-1.167577181783109
% es.tEX (V/m) @ t=1.02
-1.30843185894547
% es.tEY (V/m) @ t=1.02
0
% es.tEZ (V/m) @ t=1.02
-1.1675771817831126
% es.Ex (V/m) @ t=1.02
-1.3084318589454733
% es.Ey (V/m) @ t=1.02
0.4982961541370807
% es.Ez (V/m) @ t=1.02
-1.167577181783109
% es.tEx (V/m) @ t=1.02
-1.30843185894547
% es.tEy (V/m) @ t=1.02
0
% es.tEz (V/m) @ t=1.02
-1.1675771817831126
% V (V) @ t=1.02
0.018599702154048194
% es.normE (V/m) @ t=1.04
1.8436538583451096