% Model:              1 neuron.mph
% Version:            COMSOL 6.1.0.252
% Date:               Mar 22 2023, 19:22
% Dimension:          0
% Nodes:              14017
% Expressions:        14017
% Description:        Electric field norm, Electric field, X component, Electric field, Y component, Electric field, Z component, Tangential electric field, X component, Tangential electric field, Y component, Tangential electric field, Z component, Electric field, x component, Electric field, y component, Electric field, z component, Tangential electric field, x component, Tangential electric field, y component, Tangential electric field, z component, Electric potential
% Length unit:        mm
% x
1.66
% y
12.2
% z
1.33
% es.normE (V/m) @ t=0
13.830191116954671
% es.EX (V/m) @ t=0
-7.684613222057008
% es.EY (V/m) @ t=0
-0.829487267559935
% es.EZ (V/m) @ t=0
10.289646803207981
% es.tEX (V/m) @ t=0
-7.684613222057028
% es.tEY (V/m) @ t=0
0
% es.tEZ (V/m) @ t=0
10.289646803207976
% es.Ex (V/m) @ t=0
-7.684613222057008
% es.Ey (V/m) @ t=0
-0.829487267559935
% es.Ez (V/m) @ t=0
10.289646803207981
% es.tEx (V/m) @ t=0
-7.684613222057028
% es.tEy (V/m) @ t=0
0
% es.tEz (V/m) @ t=0
10.289646803207976
% V (V) @ t=0
0.011358252276465261
% es.normE (V/m) @ t=0.02
11.945267541603249
% es.EX (V/m) @ t=0.02
-6.637273497412288
% es.EY (V/m) @ t=0.02
-0.7164360352356922
% es.EZ (V/m) @ t=0.02
8.88726575850322
% es.tEX (V/m) @ t=0.02
-6.637273497412307
% es.tEY (V/m) @ t=0.02
0
% es.tEZ (V/m) @ t=0.02
8.887265758503217
% es.Ex (V/m) @ t=0.02
-6.637273497412288
% es.Ey (V/m) @ t=0.02
-0.7164360352356922
% es.Ez (V/m) @ t=0.02
8.88726575850322
% es.tEx (V/m) @ t=0.02
-6.637273497412307
% es.tEy (V/m) @ t=0.02
0
% es.tEz (V/m) @ t=0.02
8.887265758503217
% V (V) @ t=0.02
0.009810230461528499
% es.normE (V/m) @ t=0.04
12.055144943723318
% es.EX (V/m) @ t=0.04
-6.69832582612745
% es.EY (V/m) @ t=0.04
-0.7230261021075914
% es.EZ (V/m) @ t=0.04
8.969014422491227
% es.tEX (V/m) @ t=0.04
-6.698325826127459
% es.tEY (V/m) @ t=0.04
0
% es.tEZ (V/m) @ t=0.04
8.96901442249121
% es.Ex (V/m) @ t=0.04
-6.69832582612745
% es.Ey (V/m) @ t=0.04
-0.7230261021075914
% es.Ez (V/m) @ t=0.04
8.969014422491227
% es.tEx (V/m) @ t=0.04
-6.698325826127459
% es.tEy (V/m) @ t=0.04
0
% es.tEz (V/m) @ t=0.04
8.96901442249121
% V (V) @ t=0.04
0.009900468926796958
% es.normE (V/m) @ t=0.06
12.165830124515226
% es.EX (V/m) @ t=0.06
-6.75982697671604
% es.EY (V/m) @ t=0.06
-0.7296646241385267
% es.EZ (V/m) @ t=0.06
9.051364077310676
% es.tEX (V/m) @ t=0.06
-6.759826976716043
% es.tEY (V/m) @ t=0.06
0
% es.tEZ (V/m) @ t=0.06
9.05136407731067
% es.Ex (V/m) @ t=0.06
-6.75982697671604
% es.Ey (V/m) @ t=0.06
-0.7296646241385267
% es.Ez (V/m) @ t=0.06
9.051364077310676
% es.tEx (V/m) @ t=0.06
-6.759826976716043
% es.tEy (V/m) @ t=0.06
0
% es.tEz (V/m) @ t=0.06
9.05136407731067
% V (V) @ t=0.06
0.009991370803263679
% es.normE (V/m) @ t=0.08
12.278621505794092
% es.EX (V/m) @ t=0.08
-6.822498422856073
% es.EY (V/m) @ t=0.08
-0.7364294656397357
% es.EZ (V/m) @ t=0.08
9.135280741044324
% es.tEX (V/m) @ t=0.08
-6.822498422856082
% es.tEY (V/m) @ t=0.08
0
% es.tEZ (V/m) @ t=0.08
9.135280741044317
% es.Ex (V/m) @ t=0.08
-6.822498422856073
% es.Ey (V/m) @ t=0.08
-0.7364294656397357
% es.Ez (V/m) @ t=0.08
9.135280741044324
% es.tEx (V/m) @ t=0.08
-6.822498422856082
% es.tEy (V/m) @ t=0.08
0
% es.tEz (V/m) @ t=0.08
9.135280741044317
% V (V) @ t=0.08
0.010084002423864726
% es.normE (V/m) @ t=0.1
12.39200949979021
% es.EX (V/m) @ t=0.1
-6.885501372674528
% es.EY (V/m) @ t=0.1
-0.7432300890158958
% es.EZ (V/m) @ t=0.1
9.219641283436268
% es.tEX (V/m) @ t=0.1
-6.885501372674534
% es.tEY (V/m) @ t=0.1
0
% es.tEZ (V/m) @ t=0.1
9.21964128343626
% es.Ex (V/m) @ t=0.1
-6.885501372674528
% es.Ey (V/m) @ t=0.1
-0.7432300890158958
% es.Ez (V/m) @ t=0.1
9.219641283436268
% es.tEx (V/m) @ t=0.1
-6.885501372674534
% es.tEy (V/m) @ t=0.1
0
% es.tEz (V/m) @ t=0.1
9.21964128343626
% V (V) @ t=0.1
0.010177124020303557
% es.normE (V/m) @ t=0.12
12.50539749378633
% es.EX (V/m) @ t=0.12
-6.948504322492997
% es.EY (V/m) @ t=0.12
-0.7500307123920458
% es.EZ (V/m) @ t=0.12
9.304001825828193
% es.tEX (V/m) @ t=0.12
-6.948504322493008
% es.tEY (V/m) @ t=0.12
0
% es.tEZ (V/m) @ t=0.12
9.304001825828186
% es.Ex (V/m) @ t=0.12
-6.948504322492997
% es.Ey (V/m) @ t=0.12
-0.7500307123920458
% es.Ez (V/m) @ t=0.12
9.304001825828193
% es.tEx (V/m) @ t=0.12
-6.948504322493008
% es.tEy (V/m) @ t=0.12
0
% es.tEz (V/m) @ t=0.12
9.304001825828186
% V (V) @ t=0.12
0.01027024561674239
% es.normE (V/m) @ t=0.14
12.622005051497222
% es.EX (V/m) @ t=0.14
-7.013296194206662
% es.EY (V/m) @ t=0.14
-0.7570244328794047
% es.EZ (V/m) @ t=0.14
9.39075771930082
% es.tEX (V/m) @ t=0.14
-7.013296194206662
% es.tEY (V/m) @ t=0.14
0
% es.tEZ (V/m) @ t=0.14
9.390757719300808
% es.Ex (V/m) @ t=0.14
-7.013296194206662
% es.Ey (V/m) @ t=0.14
-0.7570244328794047
% es.Ez (V/m) @ t=0.14
9.39075771930082
% es.tEx (V/m) @ t=0.14
-7.013296194206662
% es.tEy (V/m) @ t=0.14
0
% es.tEz (V/m) @ t=0.14
9.390757719300808
% V (V) @ t=0.14
0.01036601132642299
% es.normE (V/m) @ t=0.16
12.741093377108363
% es.EX (V/m) @ t=0.16
-7.079466482503067
% es.EY (V/m) @ t=0.16
-0.7641669403321991
% es.EZ (V/m) @ t=0.16
9.479359300760136
% es.tEX (V/m) @ t=0.16
-7.079466482503065
% es.tEY (V/m) @ t=0.16
0
% es.tEZ (V/m) @ t=0.16
9.479359300760125
% es.Ex (V/m) @ t=0.16
-7.079466482503067
% es.Ey (V/m) @ t=0.16
-0.7641669403321991
% es.Ez (V/m) @ t=0.16
9.479359300760136
% es.tEx (V/m) @ t=0.16
-7.079466482503065
% es.tEy (V/m) @ t=0.16
0
% es.tEz (V/m) @ t=0.16
9.479359300760125
% V (V) @ t=0.16
0.01046381440260289
% es.normE (V/m) @ t=0.18
12.860181702719519
% es.EX (V/m) @ t=0.18
-7.145636770799454
% es.EY (V/m) @ t=0.18
-0.7713094477850315
% es.EZ (V/m) @ t=0.18
9.567960882219468
% es.tEX (V/m) @ t=0.18
-7.145636770799468
% es.tEY (V/m) @ t=0.18
0
% es.tEZ (V/m) @ t=0.18
9.567960882219452
% es.Ex (V/m) @ t=0.18
-7.145636770799454
% es.Ey (V/m) @ t=0.18
-0.7713094477850315
% es.Ez (V/m) @ t=0.18
9.567960882219468
% es.tEx (V/m) @ t=0.18
-7.145636770799468
% es.tEy (V/m) @ t=0.18
0
% es.tEz (V/m) @ t=0.18
9.567960882219452
% V (V) @ t=0.18
0.010561617478782787
% es.normE (V/m) @ t=0.2
12.979270028330639
% es.EX (V/m) @ t=0.2
-7.211807059095843
% es.EY (V/m) @ t=0.2
-0.7784519552378186
% es.EZ (V/m) @ t=0.2
9.656562463678775
% es.tEX (V/m) @ t=0.2
-7.2118070590958485
% es.tEY (V/m) @ t=0.2
0
% es.tEZ (V/m) @ t=0.2
9.656562463678764
% es.Ex (V/m) @ t=0.2
-7.211807059095843
% es.Ey (V/m) @ t=0.2
-0.7784519552378186
% es.Ez (V/m) @ t=0.2
9.656562463678775
% es.tEx (V/m) @ t=0.2
-7.2118070590958485
% es.tEy (V/m) @ t=0.2
0
% es.tEz (V/m) @ t=0.2
9.656562463678764
% V (V) @ t=0.2
0.010659420554962683
% es.normE (V/m) @ t=0.22
13.098358353941798
% es.EX (V/m) @ t=0.22
-7.277977347392266
% es.EY (V/m) @ t=0.22
-0.7855944626906468
% es.EZ (V/m) @ t=0.22
9.745164045138088
% es.tEX (V/m) @ t=0.22
-7.277977347392278
% es.tEY (V/m) @ t=0.22
0
% es.tEZ (V/m) @ t=0.22
9.745164045138086
% es.Ex (V/m) @ t=0.22
-7.277977347392266
% es.Ey (V/m) @ t=0.22
-0.7855944626906468
% es.Ez (V/m) @ t=0.22
9.745164045138088
% es.tEx (V/m) @ t=0.22
-7.277977347392278
% es.tEy (V/m) @ t=0.22
0
% es.tEz (V/m) @ t=0.22
9.745164045138086
% V (V) @ t=0.22
0.010757223631142579
% es.normE (V/m) @ t=0.24
13.217446679552944
% es.EX (V/m) @ t=0.24
-7.344147635688655
% es.EY (V/m) @ t=0.24
-0.7927369701434719
% es.EZ (V/m) @ t=0.24
9.833765626597414
% es.tEX (V/m) @ t=0.24
-7.344147635688675
% es.tEY (V/m) @ t=0.24
0
% es.tEZ (V/m) @ t=0.24
9.833765626597398
% es.Ex (V/m) @ t=0.24
-7.344147635688655
% es.Ey (V/m) @ t=0.24
-0.7927369701434719
% es.Ez (V/m) @ t=0.24
9.833765626597414
% es.tEx (V/m) @ t=0.24
-7.344147635688675
% es.tEy (V/m) @ t=0.24
0
% es.tEz (V/m) @ t=0.24
9.833765626597398
% V (V) @ t=0.24
0.010855026707322477
% es.normE (V/m) @ t=0.26
13.338265018198339
% es.EX (V/m) @ t=0.26
-7.411279167709564
% es.EY (V/m) @ t=0.26
-0.7999832505272124
% es.EZ (V/m) @ t=0.26
9.923654343208897
% es.tEX (V/m) @ t=0.26
-7.411279167709576
% es.tEY (V/m) @ t=0.26
0
% es.tEZ (V/m) @ t=0.26
9.92365434320888
% es.Ex (V/m) @ t=0.26
-7.411279167709564
% es.Ey (V/m) @ t=0.26
-0.7999832505272124
% es.Ez (V/m) @ t=0.26
9.923654343208897
% es.tEx (V/m) @ t=0.26
-7.411279167709576
% es.tEy (V/m) @ t=0.26
0
% es.tEz (V/m) @ t=0.26
9.92365434320888
% V (V) @ t=0.26
0.010954250600919136
% es.normE (V/m) @ t=0.28
13.470084886985415
% es.EX (V/m) @ t=0.28
-7.484523458189191
% es.EY (V/m) @ t=0.28
-0.8078894456080423
% es.EZ (V/m) @ t=0.28
10.021728232933269
% es.tEX (V/m) @ t=0.28
-7.484523458189203
% es.tEY (V/m) @ t=0.28
0
% es.tEZ (V/m) @ t=0.28
10.02172823293326
% es.Ex (V/m) @ t=0.28
-7.484523458189191
% es.Ey (V/m) @ t=0.28
-0.8078894456080423
% es.Ez (V/m) @ t=0.28
10.021728232933269
% es.tEx (V/m) @ t=0.28
-7.484523458189203
% es.tEy (V/m) @ t=0.28
0
% es.tEz (V/m) @ t=0.28
10.02172823293326
% V (V) @ t=0.28
0.011062509782301113
% es.normE (V/m) @ t=0.3
13.601904755772546
% es.EX (V/m) @ t=0.3
-7.557767748668818
% es.EY (V/m) @ t=0.3
-0.8157956406889224
% es.EZ (V/m) @ t=0.3
10.119802122657687
% es.tEX (V/m) @ t=0.3
-7.557767748668837
% es.tEY (V/m) @ t=0.3
0
% es.tEZ (V/m) @ t=0.3
10.119802122657678
% es.Ex (V/m) @ t=0.3
-7.557767748668818
% es.Ey (V/m) @ t=0.3
-0.8157956406889224
% es.Ez (V/m) @ t=0.3
10.119802122657687
% es.tEx (V/m) @ t=0.3
-7.557767748668837
% es.tEy (V/m) @ t=0.3
0
% es.tEz (V/m) @ t=0.3
10.119802122657678
% V (V) @ t=0.3
0.011170768963683088
% es.normE (V/m) @ t=0.32
13.733724624559656
% es.EX (V/m) @ t=0.32
-7.631012039148457
% es.EY (V/m) @ t=0.32
-0.8237018357697705
% es.EZ (V/m) @ t=0.32
10.217876012382085
% es.tEX (V/m) @ t=0.32
-7.631012039148471
% es.tEY (V/m) @ t=0.32
0
% es.tEZ (V/m) @ t=0.32
10.217876012382076
% es.Ex (V/m) @ t=0.32
-7.631012039148457
% es.Ey (V/m) @ t=0.32
-0.8237018357697705
% es.Ez (V/m) @ t=0.32
10.217876012382085
% es.tEx (V/m) @ t=0.32
-7.631012039148471
% es.tEy (V/m) @ t=0.32
0
% es.tEz (V/m) @ t=0.32
10.217876012382076
% V (V) @ t=0.32
0.011279028145065062
% es.normE (V/m) @ t=0.34
13.865544493346784
% es.EX (V/m) @ t=0.34
-7.704256329628091
% es.EY (V/m) @ t=0.34
-0.8316080308506395
% es.EZ (V/m) @ t=0.34
10.315949902106484
% es.tEX (V/m) @ t=0.34
-7.7042563296281035
% es.tEY (V/m) @ t=0.34
0
% es.tEZ (V/m) @ t=0.34
10.315949902106471
% es.Ex (V/m) @ t=0.34
-7.704256329628091
% es.Ey (V/m) @ t=0.34
-0.8316080308506395
% es.Ez (V/m) @ t=0.34
10.315949902106484
% es.tEx (V/m) @ t=0.34
-7.7042563296281035
% es.tEy (V/m) @ t=0.34
0
% es.tEz (V/m) @ t=0.34
10.315949902106471
% V (V) @ t=0.34
0.011387287326447039
% es.normE (V/m) @ t=0.36
13.997364362133888
% es.EX (V/m) @ t=0.36
-7.777500620107745
% es.EY (V/m) @ t=0.36
-0.8395142259314943
% es.EZ (V/m) @ t=0.36
10.414023791830846
% es.tEX (V/m) @ t=0.36
-7.777500620107764
% es.tEY (V/m) @ t=0.36
0
% es.tEZ (V/m) @ t=0.36
10.414023791830832
% es.Ex (V/m) @ t=0.36
-7.777500620107745
% es.Ey (V/m) @ t=0.36
-0.8395142259314943
% es.Ez (V/m) @ t=0.36
10.414023791830846
% es.tEx (V/m) @ t=0.36
-7.777500620107764
% es.tEy (V/m) @ t=0.36
0
% es.tEz (V/m) @ t=0.36
10.414023791830832
% V (V) @ t=0.36
0.011495546507829016
% es.normE (V/m) @ t=0.38
14.129184230921012
% es.EX (V/m) @ t=0.38
-7.8507449105873945
% es.EY (V/m) @ t=0.38
-0.8474204210123317
% es.EZ (V/m) @ t=0.38
10.512097681555245
% es.tEX (V/m) @ t=0.38
-7.850744910587407
% es.tEY (V/m) @ t=0.38
0
% es.tEZ (V/m) @ t=0.38
10.512097681555232
% es.Ex (V/m) @ t=0.38
-7.8507449105873945
% es.Ey (V/m) @ t=0.38
-0.8474204210123317
% es.Ez (V/m) @ t=0.38
10.512097681555245
% es.tEx (V/m) @ t=0.38
-7.850744910587407
% es.tEy (V/m) @ t=0.38
0
% es.tEz (V/m) @ t=0.38
10.512097681555232
% V (V) @ t=0.38
0.011603805689210989
% es.normE (V/m) @ t=0.4
14.261004099708124
% es.EX (V/m) @ t=0.4
-7.9239892010670125
% es.EY (V/m) @ t=0.4
-0.8553266160932007
% es.EZ (V/m) @ t=0.4
10.610171571279626
% es.tEX (V/m) @ t=0.4
-7.923989201067046
% es.tEY (V/m) @ t=0.4
0
% es.tEZ (V/m) @ t=0.4
10.610171571279615
% es.Ex (V/m) @ t=0.4
-7.9239892010670125
% es.Ey (V/m) @ t=0.4
-0.8553266160932007
% es.Ez (V/m) @ t=0.4
10.610171571279626
% es.tEx (V/m) @ t=0.4
-7.923989201067046
% es.tEy (V/m) @ t=0.4
0
% es.tEz (V/m) @ t=0.4
10.610171571279615
% V (V) @ t=0.4
0.011712064870592967
% es.normE (V/m) @ t=0.42
14.392823968495287
% es.EX (V/m) @ t=0.42
-7.997233491546675
% es.EY (V/m) @ t=0.42
-0.8632328111740555
% es.EZ (V/m) @ t=0.42
10.708245461004049
% es.tEX (V/m) @ t=0.42
-7.99723349154668
% es.tEY (V/m) @ t=0.42
0
% es.tEZ (V/m) @ t=0.42
10.708245461004044
% es.Ex (V/m) @ t=0.42
-7.997233491546675
% es.Ey (V/m) @ t=0.42
-0.8632328111740555
% es.Ez (V/m) @ t=0.42
10.708245461004049
% es.tEx (V/m) @ t=0.42
-7.99723349154668
% es.tEy (V/m) @ t=0.42
0
% es.tEz (V/m) @ t=0.42
10.708245461004044
% V (V) @ t=0.42
0.011820324051974944
% es.normE (V/m) @ t=0.44
14.524643837282404
% es.EX (V/m) @ t=0.44
-8.0704777820263
% es.EY (V/m) @ t=0.44
-0.8711390062549107
% es.EZ (V/m) @ t=0.44
10.806319350728435
% es.tEX (V/m) @ t=0.44
-8.070477782026327
% es.tEY (V/m) @ t=0.44
0
% es.tEZ (V/m) @ t=0.44
10.806319350728417
% es.Ex (V/m) @ t=0.44
-8.0704777820263
% es.Ey (V/m) @ t=0.44
-0.8711390062549107
% es.Ez (V/m) @ t=0.44
10.806319350728435
% es.tEx (V/m) @ t=0.44
-8.070477782026327
% es.tEy (V/m) @ t=0.44
0
% es.tEz (V/m) @ t=0.44
10.806319350728417
% V (V) @ t=0.44
0.011928583233356918
% es.normE (V/m) @ t=0.46
14.65646370606954
% es.EX (V/m) @ t=0.46
-8.143722072505934
% es.EY (V/m) @ t=0.46
-0.8790452013357655
% es.EZ (V/m) @ t=0.46
10.904393240452833
% es.tEX (V/m) @ t=0.46
-8.143722072505954
% es.tEY (V/m) @ t=0.46
0
% es.tEZ (V/m) @ t=0.46
10.904393240452817
% es.Ex (V/m) @ t=0.46
-8.143722072505934
% es.Ey (V/m) @ t=0.46
-0.8790452013357655
% es.Ez (V/m) @ t=0.46
10.904393240452833
% es.tEx (V/m) @ t=0.46
-8.143722072505954
% es.tEy (V/m) @ t=0.46
0
% es.tEz (V/m) @ t=0.46
10.904393240452817
% V (V) @ t=0.46
0.012036842414738895
% es.normE (V/m) @ t=0.48
14.788283574856663
% es.EX (V/m) @ t=0.48
-8.216966362985588
% es.EY (V/m) @ t=0.48
-0.8869513964166242
% es.EZ (V/m) @ t=0.48
11.002467130177209
% es.tEX (V/m) @ t=0.48
-8.216966362985595
% es.tEY (V/m) @ t=0.48
0
% es.tEZ (V/m) @ t=0.48
11.002467130177191
% es.Ex (V/m) @ t=0.48
-8.216966362985588
% es.Ey (V/m) @ t=0.48
-0.8869513964166242
% es.Ez (V/m) @ t=0.48
11.002467130177209
% es.tEx (V/m) @ t=0.48
-8.216966362985595
% es.tEy (V/m) @ t=0.48
0
% es.tEz (V/m) @ t=0.48
11.002467130177191
% V (V) @ t=0.48
0.012145101596120873
% es.normE (V/m) @ t=0.5
14.920103443643825
% es.EX (V/m) @ t=0.5
-8.290210653465222
% es.EY (V/m) @ t=0.5
-0.8948575914974577
% es.EZ (V/m) @ t=0.5
11.100541019901625
% es.tEX (V/m) @ t=0.5
-8.290210653465234
% es.tEY (V/m) @ t=0.5
0
% es.tEZ (V/m) @ t=0.5
11.100541019901605
% es.Ex (V/m) @ t=0.5
-8.290210653465222
% es.Ey (V/m) @ t=0.5
-0.8948575914974577
% es.Ez (V/m) @ t=0.5
11.100541019901625
% es.tEx (V/m) @ t=0.5
-8.290210653465234
% es.tEy (V/m) @ t=0.5
0
% es.tEz (V/m) @ t=0.5
11.100541019901605
% V (V) @ t=0.5
0.012253360777502848
% es.normE (V/m) @ t=0.52
15.055906249487087
% es.EX (V/m) @ t=0.52
-8.365668063796125
% es.EY (V/m) @ t=0.52
-0.9030026463223928
% es.EZ (V/m) @ t=0.52
11.201578196935662
% es.tEX (V/m) @ t=0.52
-8.365668063796138
% es.tEY (V/m) @ t=0.52
0
% es.tEZ (V/m) @ t=0.52
11.201578196935646
% es.Ex (V/m) @ t=0.52
-8.365668063796125
% es.Ey (V/m) @ t=0.52
-0.9030026463223928
% es.Ez (V/m) @ t=0.52
11.201578196935662
% es.tEx (V/m) @ t=0.52
-8.365668063796138
% es.tEy (V/m) @ t=0.52
0
% es.tEz (V/m) @ t=0.52
11.201578196935646
% V (V) @ t=0.52
0.012364890972664773
% es.normE (V/m) @ t=0.54
15.202050847112822
% es.EX (V/m) @ t=0.54
-8.446871893005595
% es.EY (V/m) @ t=0.54
-0.9117679062129755
% es.EZ (V/m) @ t=0.54
11.310309620681618
% es.tEX (V/m) @ t=0.54
-8.4468718930056
% es.tEY (V/m) @ t=0.54
0
% es.tEZ (V/m) @ t=0.54
11.310309620681604
% es.Ex (V/m) @ t=0.54
-8.446871893005595
% es.Ey (V/m) @ t=0.54
-0.9117679062129755
% es.Ez (V/m) @ t=0.54
11.310309620681618
% es.tEx (V/m) @ t=0.54
-8.4468718930056
% es.tEy (V/m) @ t=0.54
0
% es.tEz (V/m) @ t=0.54
11.310309620681604
% V (V) @ t=0.54
0.012484914433713896
% es.normE (V/m) @ t=0.56
15.348195444738556
% es.EX (V/m) @ t=0.56
-8.52807572221503
% es.EY (V/m) @ t=0.56
-0.9205331661035694
% es.EZ (V/m) @ t=0.56
11.419041044427605
% es.tEX (V/m) @ t=0.56
-8.528075722215043
% es.tEY (V/m) @ t=0.56
0
% es.tEZ (V/m) @ t=0.56
11.419041044427583
% es.Ex (V/m) @ t=0.56
-8.52807572221503
% es.Ey (V/m) @ t=0.56
-0.9205331661035694
% es.Ez (V/m) @ t=0.56
11.419041044427605
% es.tEx (V/m) @ t=0.56
-8.528075722215043
% es.tEy (V/m) @ t=0.56
0
% es.tEz (V/m) @ t=0.56
11.419041044427583
% V (V) @ t=0.56
0.012604937894763012
% es.normE (V/m) @ t=0.58
15.49434004236427
% es.EX (V/m) @ t=0.58
-8.609279551424493
% es.EY (V/m) @ t=0.58
-0.9292984259941663
% es.EZ (V/m) @ t=0.58
11.527772468173566
% es.tEX (V/m) @ t=0.58
-8.609279551424526
% es.tEY (V/m) @ t=0.58
0
% es.tEZ (V/m) @ t=0.58
11.527772468173554
% es.Ex (V/m) @ t=0.58
-8.609279551424493
% es.Ey (V/m) @ t=0.58
-0.9292984259941663
% es.Ez (V/m) @ t=0.58
11.527772468173566
% es.tEx (V/m) @ t=0.58
-8.609279551424526
% es.tEy (V/m) @ t=0.58
0
% es.tEz (V/m) @ t=0.58
11.527772468173554
% V (V) @ t=0.58
0.012724961355812133
% es.normE (V/m) @ t=0.6
15.64048463999001
% es.EX (V/m) @ t=0.6
-8.690483380633962
% es.EY (V/m) @ t=0.6
-0.9380636858847526
% es.EZ (V/m) @ t=0.6
11.636503891919533
% es.tEX (V/m) @ t=0.6
-8.69048338063396
% es.tEY (V/m) @ t=0.6
0
% es.tEZ (V/m) @ t=0.6
11.63650389191952
% es.Ex (V/m) @ t=0.6
-8.690483380633962
% es.Ey (V/m) @ t=0.6
-0.9380636858847526
% es.Ez (V/m) @ t=0.6
11.636503891919533
% es.tEx (V/m) @ t=0.6
-8.69048338063396
% es.tEy (V/m) @ t=0.6
0
% es.tEz (V/m) @ t=0.6
11.63650389191952
% V (V) @ t=0.6
0.01284498481686125
% es.normE (V/m) @ t=0.62
15.786629237615722
% es.EX (V/m) @ t=0.62
-8.771687209843396
% es.EY (V/m) @ t=0.62
-0.9468289457753176
% es.EZ (V/m) @ t=0.62
11.7452353156655
% es.tEX (V/m) @ t=0.62
-8.771687209843408
% es.tEY (V/m) @ t=0.62
0
% es.tEZ (V/m) @ t=0.62
11.745235315665493
% es.Ex (V/m) @ t=0.62
-8.771687209843396
% es.Ey (V/m) @ t=0.62
-0.9468289457753176
% es.Ez (V/m) @ t=0.62
11.7452353156655
% es.tEx (V/m) @ t=0.62
-8.771687209843408
% es.tEy (V/m) @ t=0.62
0
% es.tEz (V/m) @ t=0.62
11.745235315665493
% V (V) @ t=0.62
0.012965008277910372
% es.normE (V/m) @ t=0.64
15.932773835241445
% es.EX (V/m) @ t=0.64
-8.852891039052844
% es.EY (V/m) @ t=0.64
-0.9555942056658795
% es.EZ (V/m) @ t=0.64
11.85396673941146
% es.tEX (V/m) @ t=0.64
-8.85289103905287
% es.tEY (V/m) @ t=0.64
0
% es.tEZ (V/m) @ t=0.64
11.853966739411446
% es.Ex (V/m) @ t=0.64
-8.852891039052844
% es.Ey (V/m) @ t=0.64
-0.9555942056658795
% es.Ez (V/m) @ t=0.64
11.85396673941146
% es.tEx (V/m) @ t=0.64
-8.85289103905287
% es.tEy (V/m) @ t=0.64
0
% es.tEz (V/m) @ t=0.64
11.853966739411446
% V (V) @ t=0.64
0.013085031738959491
% es.normE (V/m) @ t=0.66
16.07891843286716
% es.EX (V/m) @ t=0.66
-8.934094868262294
% es.EY (V/m) @ t=0.66
-0.9643594655564591
% es.EZ (V/m) @ t=0.66
11.962698163157432
% es.tEX (V/m) @ t=0.66
-8.934094868262306
% es.tEY (V/m) @ t=0.66
0
% es.tEZ (V/m) @ t=0.66
11.962698163157423
% es.Ex (V/m) @ t=0.66
-8.934094868262294
% es.Ey (V/m) @ t=0.66
-0.9643594655564591
% es.Ez (V/m) @ t=0.66
11.962698163157432
% es.tEx (V/m) @ t=0.66
-8.934094868262306
% es.tEy (V/m) @ t=0.66
0
% es.tEz (V/m) @ t=0.66
11.962698163157423
% V (V) @ t=0.66
0.01320505520000861
% es.normE (V/m) @ t=0.68
16.22506303049287
% es.EX (V/m) @ t=0.68
-9.015298697471726
% es.EY (V/m) @ t=0.68
-0.9731247254470561
% es.EZ (V/m) @ t=0.68
12.071429586903392
% es.tEX (V/m) @ t=0.68
-9.015298697471753
% es.tEY (V/m) @ t=0.68
0
% es.tEZ (V/m) @ t=0.68
12.071429586903376
% es.Ex (V/m) @ t=0.68
-9.015298697471726
% es.Ey (V/m) @ t=0.68
-0.9731247254470561
% es.Ez (V/m) @ t=0.68
12.071429586903392
% es.tEx (V/m) @ t=0.68
-9.015298697471753
% es.tEy (V/m) @ t=0.68
0
% es.tEz (V/m) @ t=0.68
12.071429586903376
% V (V) @ t=0.68
0.01332507866105773
% es.normE (V/m) @ t=0.7
16.37120762811862
% es.EX (V/m) @ t=0.7
-9.096502526681212
% es.EY (V/m) @ t=0.7
-0.9818899853376322
% es.EZ (V/m) @ t=0.7
12.180161010649364
% es.tEX (V/m) @ t=0.7
-9.096502526681231
% es.tEY (V/m) @ t=0.7
0
% es.tEZ (V/m) @ t=0.7
12.180161010649353
% es.Ex (V/m) @ t=0.7
-9.096502526681212
% es.Ey (V/m) @ t=0.7
-0.9818899853376322
% es.Ez (V/m) @ t=0.7
12.180161010649364
% es.tEx (V/m) @ t=0.7
-9.096502526681231
% es.tEy (V/m) @ t=0.7
0
% es.tEz (V/m) @ t=0.7
12.180161010649353
% V (V) @ t=0.7
0.01344510212210685
% es.normE (V/m) @ t=0.72
16.51735222574431
% es.EX (V/m) @ t=0.72
-9.177706355890646
% es.EY (V/m) @ t=0.72
-0.9906552452281971
% es.EZ (V/m) @ t=0.72
12.288892434395324
% es.tEX (V/m) @ t=0.72
-9.177706355890665
% es.tEY (V/m) @ t=0.72
0
% es.tEZ (V/m) @ t=0.72
12.288892434395306
% es.Ex (V/m) @ t=0.72
-9.177706355890646
% es.Ey (V/m) @ t=0.72
-0.9906552452281971
% es.Ez (V/m) @ t=0.72
12.288892434395324
% es.tEx (V/m) @ t=0.72
-9.177706355890665
% es.tEy (V/m) @ t=0.72
0
% es.tEz (V/m) @ t=0.72
12.288892434395306
% V (V) @ t=0.72
0.01356512558315597
% es.normE (V/m) @ t=0.74
16.663496823370057
% es.EX (V/m) @ t=0.74
-9.258910185100115
% es.EY (V/m) @ t=0.74
-0.9994205051187834
% es.EZ (V/m) @ t=0.74
12.397623858141296
% es.tEX (V/m) @ t=0.74
-9.258910185100127
% es.tEY (V/m) @ t=0.74
0
% es.tEZ (V/m) @ t=0.74
12.397623858141284
% es.Ex (V/m) @ t=0.74
-9.258910185100115
% es.Ey (V/m) @ t=0.74
-0.9994205051187834
% es.Ez (V/m) @ t=0.74
12.397623858141296
% es.tEx (V/m) @ t=0.74
-9.258910185100127
% es.tEy (V/m) @ t=0.74
0
% es.tEz (V/m) @ t=0.74
12.397623858141284
% V (V) @ t=0.74
0.013685149044205088
% es.normE (V/m) @ t=0.76
16.80964142099578
% es.EX (V/m) @ t=0.76
-9.340114014309558
% es.EY (V/m) @ t=0.76
-1.0081857650093662
% es.EZ (V/m) @ t=0.76
12.50635528188726
% es.tEX (V/m) @ t=0.76
-9.340114014309592
% es.tEY (V/m) @ t=0.76
0
% es.tEZ (V/m) @ t=0.76
12.506355281887238
% es.Ex (V/m) @ t=0.76
-9.340114014309558
% es.Ey (V/m) @ t=0.76
-1.0081857650093662
% es.Ez (V/m) @ t=0.76
12.50635528188726
% es.tEx (V/m) @ t=0.76
-9.340114014309592
% es.tEy (V/m) @ t=0.76
0
% es.tEz (V/m) @ t=0.76
12.506355281887238
% V (V) @ t=0.76
0.013805172505254207
% es.normE (V/m) @ t=0.78
16.962569616254562
% es.EX (V/m) @ t=0.78
-9.425087086668926
% es.EY (V/m) @ t=0.78
-1.0173578805064416
% es.EZ (V/m) @ t=0.78
12.620133693996472
% es.tEX (V/m) @ t=0.78
-9.425087086668938
% es.tEY (V/m) @ t=0.78
0
% es.tEZ (V/m) @ t=0.78
12.620133693996461
% es.Ex (V/m) @ t=0.78
-9.425087086668926
% es.Ey (V/m) @ t=0.78
-1.0173578805064416
% es.Ez (V/m) @ t=0.78
12.620133693996472
% es.tEx (V/m) @ t=0.78
-9.425087086668938
% es.tEy (V/m) @ t=0.78
0
% es.tEz (V/m) @ t=0.78
12.620133693996461
% V (V) @ t=0.78
0.013930767096005887
% es.normE (V/m) @ t=0.8
17.124857623258364
% es.EX (V/m) @ t=0.8
-9.515260851671414
% es.EY (V/m) @ t=0.8
-1.0270913635978944
% es.EZ (V/m) @ t=0.8
12.74087579462533
% es.tEX (V/m) @ t=0.8
-9.51526085167142
% es.tEY (V/m) @ t=0.8
0
% es.tEZ (V/m) @ t=0.8
12.740875794625303
% es.Ex (V/m) @ t=0.8
-9.515260851671414
% es.Ey (V/m) @ t=0.8
-1.0270913635978944
% es.Ez (V/m) @ t=0.8
12.74087579462533
% es.tEx (V/m) @ t=0.8
-9.51526085167142
% es.tEy (V/m) @ t=0.8
0
% es.tEz (V/m) @ t=0.8
12.740875794625303
% V (V) @ t=0.8
0.014064048570332338
% es.normE (V/m) @ t=0.82
17.28714563026217
% es.EX (V/m) @ t=0.82
-9.605434616673909
% es.EY (V/m) @ t=0.82
-1.0368248466892753
% es.EZ (V/m) @ t=0.82
12.861617895254202
% es.tEX (V/m) @ t=0.82
-9.605434616673922
% es.tEY (V/m) @ t=0.82
0
% es.tEZ (V/m) @ t=0.82
12.861617895254192
% es.Ex (V/m) @ t=0.82
-9.605434616673909
% es.Ey (V/m) @ t=0.82
-1.0368248466892753
% es.Ez (V/m) @ t=0.82
12.861617895254202
% es.tEx (V/m) @ t=0.82
-9.605434616673922
% es.tEy (V/m) @ t=0.82
0
% es.tEz (V/m) @ t=0.82
12.861617895254192
% V (V) @ t=0.82
0.01419733004465879
% es.normE (V/m) @ t=0.84
17.449433637265983
% es.EX (V/m) @ t=0.84
-9.69560838167641
% es.EY (V/m) @ t=0.84
-1.046558329780725
% es.EZ (V/m) @ t=0.84
12.982359995883055
% es.tEX (V/m) @ t=0.84
-9.695608381676443
% es.tEY (V/m) @ t=0.84
0
% es.tEZ (V/m) @ t=0.84
12.982359995883032
% es.Ex (V/m) @ t=0.84
-9.69560838167641
% es.Ey (V/m) @ t=0.84
-1.046558329780725
% es.Ez (V/m) @ t=0.84
12.982359995883055
% es.tEx (V/m) @ t=0.84
-9.695608381676443
% es.tEy (V/m) @ t=0.84
0
% es.tEz (V/m) @ t=0.84
12.982359995883032
% V (V) @ t=0.84
0.01433061151898524
% es.normE (V/m) @ t=0.86
17.6117216442698
% es.EX (V/m) @ t=0.86
-9.785782146678907
% es.EY (V/m) @ t=0.86
-1.0562918128721241
% es.EZ (V/m) @ t=0.86
13.103102096511941
% es.tEX (V/m) @ t=0.86
-9.785782146678926
% es.tEY (V/m) @ t=0.86
0
% es.tEZ (V/m) @ t=0.86
13.103102096511918
% es.Ex (V/m) @ t=0.86
-9.785782146678907
% es.Ey (V/m) @ t=0.86
-1.0562918128721241
% es.Ez (V/m) @ t=0.86
13.103102096511941
% es.tEx (V/m) @ t=0.86
-9.785782146678926
% es.tEy (V/m) @ t=0.86
0
% es.tEz (V/m) @ t=0.86
13.103102096511918
% V (V) @ t=0.86
0.014463892993311689
% es.normE (V/m) @ t=0.88
17.77400965127362
% es.EX (V/m) @ t=0.88
-9.875955911681421
% es.EY (V/m) @ t=0.88
-1.0660252959635628
% es.EZ (V/m) @ t=0.88
13.2238441971408
% es.tEX (V/m) @ t=0.88
-9.875955911681434
% es.tEY (V/m) @ t=0.88
0
% es.tEZ (V/m) @ t=0.88
13.223844197140776
% es.Ex (V/m) @ t=0.88
-9.875955911681421
% es.Ey (V/m) @ t=0.88
-1.0660252959635628
% es.Ez (V/m) @ t=0.88
13.2238441971408
% es.tEx (V/m) @ t=0.88
-9.875955911681434
% es.tEy (V/m) @ t=0.88
0
% es.tEz (V/m) @ t=0.88
13.223844197140776
% V (V) @ t=0.88
0.014597174467638141
% es.normE (V/m) @ t=0.9
17.936297658277397
% es.EX (V/m) @ t=0.9
-9.966129676683902
% es.EY (V/m) @ t=0.9
-1.0757587790549659
% es.EZ (V/m) @ t=0.9
13.344586297769656
% es.tEX (V/m) @ t=0.9
-9.966129676683927
% es.tEY (V/m) @ t=0.9
0
% es.tEZ (V/m) @ t=0.9
13.344586297769654
% es.Ex (V/m) @ t=0.9
-9.966129676683902
% es.Ey (V/m) @ t=0.9
-1.0757587790549659
% es.Ez (V/m) @ t=0.9
13.344586297769656
% es.tEx (V/m) @ t=0.9
-9.966129676683927
% es.tEy (V/m) @ t=0.9
0
% es.tEz (V/m) @ t=0.9
13.344586297769654
% V (V) @ t=0.9
0.014730455941964591
% es.normE (V/m) @ t=0.92
18.098585665281256
% es.EX (V/m) @ t=0.92
-10.056303441686397
% es.EY (V/m) @ t=0.92
-1.0854922621463934
% es.EZ (V/m) @ t=0.92
13.465328398398556
% es.tEX (V/m) @ t=0.92
-10.05630344168641
% es.tEY (V/m) @ t=0.92
0
% es.tEZ (V/m) @ t=0.92
13.465328398398539
% es.Ex (V/m) @ t=0.92
-10.056303441686397
% es.Ey (V/m) @ t=0.92
-1.0854922621463934
% es.Ez (V/m) @ t=0.92
13.465328398398556
% es.tEx (V/m) @ t=0.92
-10.05630344168641
% es.tEy (V/m) @ t=0.92
0
% es.tEz (V/m) @ t=0.92
13.465328398398539
% V (V) @ t=0.92
0.014863737416291043
% es.normE (V/m) @ t=0.94
18.260873672285037
% es.EX (V/m) @ t=0.94
-10.146477206688903
% es.EY (V/m) @ t=0.94
-1.0952257452378324
% es.EZ (V/m) @ t=0.94
13.586070499027397
% es.tEX (V/m) @ t=0.94
-10.146477206688916
% es.tEY (V/m) @ t=0.94
0
% es.tEZ (V/m) @ t=0.94
13.586070499027382
% es.Ex (V/m) @ t=0.94
-10.146477206688903
% es.Ey (V/m) @ t=0.94
-1.0952257452378324
% es.Ez (V/m) @ t=0.94
13.586070499027397
% es.tEx (V/m) @ t=0.94
-10.146477206688916
% es.tEy (V/m) @ t=0.94
0
% es.tEz (V/m) @ t=0.94
13.586070499027382
% V (V) @ t=0.94
0.01499701889061749
% es.normE (V/m) @ t=0.96
18.423161679288857
% es.EX (V/m) @ t=0.96
-10.2366509716914
% es.EY (V/m) @ t=0.96
-1.1049592283292493
% es.EZ (V/m) @ t=0.96
13.706812599656274
% es.tEX (V/m) @ t=0.96
-10.236650971691413
% es.tEY (V/m) @ t=0.96
0
% es.tEZ (V/m) @ t=0.96
13.706812599656267
% es.Ex (V/m) @ t=0.96
-10.2366509716914
% es.Ey (V/m) @ t=0.96
-1.1049592283292493
% es.Ez (V/m) @ t=0.96
13.706812599656274
% es.tEx (V/m) @ t=0.96
-10.236650971691413
% es.tEy (V/m) @ t=0.96
0
% es.tEz (V/m) @ t=0.96
13.706812599656267
% V (V) @ t=0.96
0.015130300364943942
% es.normE (V/m) @ t=0.98
18.585449686292662
% es.EX (V/m) @ t=0.98
-10.326824736693908
% es.EY (V/m) @ t=0.98
-1.1146927114206555
% es.EZ (V/m) @ t=0.98
13.827554700285127
% es.tEX (V/m) @ t=0.98
-10.32682473669392
% es.tEY (V/m) @ t=0.98
0
% es.tEZ (V/m) @ t=0.98
13.827554700285113
% es.Ex (V/m) @ t=0.98
-10.326824736693908
% es.Ey (V/m) @ t=0.98
-1.1146927114206555
% es.Ez (V/m) @ t=0.98
13.827554700285127
% es.tEx (V/m) @ t=0.98
-10.32682473669392
% es.tEy (V/m) @ t=0.98
0
% es.tEz (V/m) @ t=0.98
13.827554700285113
% V (V) @ t=0.98
0.015263581839270393
% es.normE (V/m) @ t=1
18.747737693296486
% es.EX (V/m) @ t=1
-10.416998501696419
% es.EY (V/m) @ t=1
-1.1244261945121083
% es.EZ (V/m) @ t=1
13.948296800913994
% es.tEX (V/m) @ t=1
-10.416998501696446
% es.tEY (V/m) @ t=1
0
% es.tEZ (V/m) @ t=1
13.948296800913962
% es.Ex (V/m) @ t=1
-10.416998501696419
% es.Ey (V/m) @ t=1
-1.1244261945121083
% es.Ez (V/m) @ t=1
13.948296800913994
% es.tEx (V/m) @ t=1
-10.416998501696446
% es.tEy (V/m) @ t=1
0
% es.tEz (V/m) @ t=1
13.948296800913962
% V (V) @ t=1
0.015396863313596845
% es.normE (V/m) @ t=1.02
18.910025700300313
% es.EX (V/m) @ t=1.02
-10.507172266698905
% es.EY (V/m) @ t=1.02
-1.1341596776035217
% es.EZ (V/m) @ t=1.02
14.069038901542893
% es.tEX (V/m) @ t=1.02
-10.507172266698925
% es.tEY (V/m) @ t=1.02
0
% es.tEZ (V/m) @ t=1.02
14.069038901542882
% es.Ex (V/m) @ t=1.02
-10.507172266698905
% es.Ey (V/m) @ t=1.02
-1.1341596776035217
% es.Ez (V/m) @ t=1.02
14.069038901542893
% es.tEx (V/m) @ t=1.02
-10.507172266698925
% es.tEy (V/m) @ t=1.02
0
% es.tEz (V/m) @ t=1.02
14.069038901542882
% V (V) @ t=1.02
0.015530144787923295
% es.normE (V/m) @ t=1.04
19.076682967819913
% es.EX (V/m) @ t=1.04
-10.599773791707575
% es.EY (V/m) @ t=1.04
-1.1441552007022278
% es.EZ (V/m) @ t=1.04
14.193031719484814
% es.tEX (V/m) @ t=1.04
-10.599773791707587
% es.tEY (V/m) @ t=1.04
0
% es.tEZ (V/m) @ t=1.04
14.193031719484797
% es.Ex (V/m) @ t=1.04
-10.599773791707575
% es.Ey (V/m) @ t=1.04
-1.1441552007022278
% es.Ez (V/m) @ t=1.04
14.193031719484814