% Model:              1 neuron.mph
% Version:            COMSOL 6.1.0.252
% Date:               Mar 22 2023, 19:42
% Dimension:          0
% Nodes:              14017
% Expressions:        14017
% Description:        Electric field norm, Electric field, X component, Electric field, Y component, Electric field, Z component, Tangential electric field, X component, Tangential electric field, Y component, Tangential electric field, Z component, Electric field, x component, Electric field, y component, Electric field, z component, Tangential electric field, x component, Tangential electric field, y component, Tangential electric field, z component, Electric potential
% Length unit:        mm
% x
1.66
% y
12.2
% z
1.33
% es.normE (V/m) @ t=0
13.855078152418645
% es.EX (V/m) @ t=0
-7.698442053771849
% es.EY (V/m) @ t=0
-0.8309800620925887
% es.EZ (V/m) @ t=0
10.308162016253656
% es.tEX (V/m) @ t=0
-7.6984420537718545
% es.tEY (V/m) @ t=0
0
% es.tEZ (V/m) @ t=0
10.308162016253638
% es.Ex (V/m) @ t=0
-7.698442053771849
% es.Ey (V/m) @ t=0
-0.8309800620925887
% es.Ez (V/m) @ t=0
10.308162016253656
% es.tEx (V/m) @ t=0
-7.6984420537718545
% es.tEy (V/m) @ t=0
0
% es.tEz (V/m) @ t=0
10.308162016253638
% V (V) @ t=0
0.01137869191997505
% es.normE (V/m) @ t=0.02
11.966795775521486
% es.EX (V/m) @ t=0.02
-6.649235959579355
% es.EY (V/m) @ t=0.02
-0.7177273605243593
% es.EZ (V/m) @ t=0.02
8.903282125551051
% es.tEX (V/m) @ t=0.02
-6.649235959579364
% es.tEY (V/m) @ t=0.02
0
% es.tEZ (V/m) @ t=0.02
8.903282125551042
% es.Ex (V/m) @ t=0.02
-6.649235959579355
% es.Ey (V/m) @ t=0.02
-0.7177273605243593
% es.Ez (V/m) @ t=0.02
8.903282125551051
% es.tEx (V/m) @ t=0.02
-6.649235959579364
% es.tEy (V/m) @ t=0.02
0
% es.tEz (V/m) @ t=0.02
8.903282125551042
% V (V) @ t=0.02
0.00982791153139385
% es.normE (V/m) @ t=0.04
12.076905308073936
% es.EX (V/m) @ t=0.04
-6.7104172652937395
% es.EY (V/m) @ t=0.04
-0.7243313581837882
% es.EZ (V/m) @ t=0.04
8.985203491130957
% es.tEX (V/m) @ t=0.04
-6.710417265293753
% es.tEY (V/m) @ t=0.04
0
% es.tEZ (V/m) @ t=0.04
8.985203491130946
% es.Ex (V/m) @ t=0.04
-6.7104172652937395
% es.Ey (V/m) @ t=0.04
-0.7243313581837882
% es.Ez (V/m) @ t=0.04
8.985203491130957
% es.tEx (V/m) @ t=0.04
-6.710417265293753
% es.tEy (V/m) @ t=0.04
0
% es.tEz (V/m) @ t=0.04
8.985203491130946
% V (V) @ t=0.04
0.009918340658748324
% es.normE (V/m) @ t=0.06
12.187802390590228
% es.EX (V/m) @ t=0.06
-6.772036160934699
% es.EY (V/m) @ t=0.06
-0.7309825946926989
% es.EZ (V/m) @ t=0.06
9.067710794190242
% es.tEX (V/m) @ t=0.06
-6.772036160934713
% es.tEY (V/m) @ t=0.06
0
% es.tEZ (V/m) @ t=0.06
9.067710794190232
% es.Ex (V/m) @ t=0.06
-6.772036160934699
% es.Ey (V/m) @ t=0.06
-0.7309825946926989
% es.Ez (V/m) @ t=0.06
9.067710794190242
% es.tEx (V/m) @ t=0.06
-6.772036160934713
% es.tEy (V/m) @ t=0.06
0
% es.tEz (V/m) @ t=0.06
9.067710794190232
% V (V) @ t=0.06
0.01000941658333878
% es.normE (V/m) @ t=0.08
12.300858290936958
% es.EX (V/m) @ t=0.08
-6.834854574178109
% es.EY (V/m) @ t=0.08
-0.7377633179900573
% es.EZ (V/m) @ t=0.08
9.151824257461922
% es.tEX (V/m) @ t=0.08
-6.834854574178121
% es.tEY (V/m) @ t=0.08
0
% es.tEZ (V/m) @ t=0.08
9.151824257461907
% es.Ex (V/m) @ t=0.08
-6.834854574178109
% es.Ey (V/m) @ t=0.08
-0.7377633179900573
% es.Ez (V/m) @ t=0.08
9.151824257461922
% es.tEx (V/m) @ t=0.08
-6.834854574178121
% es.tEy (V/m) @ t=0.08
0
% es.tEz (V/m) @ t=0.08
9.151824257461907
% V (V) @ t=0.08
0.01010226548872312
% es.normE (V/m) @ t=0.1
12.414442787810096
% es.EX (V/m) @ t=0.1
-6.897966694852081
% es.EY (V/m) @ t=0.1
-0.744575746726206
% es.EZ (V/m) @ t=0.1
9.236330996487183
% es.tEX (V/m) @ t=0.1
-6.897966694852098
% es.tEY (V/m) @ t=0.1
0
% es.tEZ (V/m) @ t=0.1
9.23633099648717
% es.Ex (V/m) @ t=0.1
-6.897966694852081
% es.Ey (V/m) @ t=0.1
-0.744575746726206
% es.Ez (V/m) @ t=0.1
9.236330996487183
% es.tEx (V/m) @ t=0.1
-6.897966694852098
% es.tEy (V/m) @ t=0.1
0
% es.tEz (V/m) @ t=0.1
9.23633099648717
% V (V) @ t=0.1
0.010195548516651635
% es.normE (V/m) @ t=0.12
12.528027284683208
% es.EX (V/m) @ t=0.12
-6.961078815526044
% es.EY (V/m) @ t=0.12
-0.7513881754623815
% es.EZ (V/m) @ t=0.12
9.320837735512407
% es.tEX (V/m) @ t=0.12
-6.961078815526067
% es.tEY (V/m) @ t=0.12
0
% es.tEZ (V/m) @ t=0.12
9.320837735512406
% es.Ex (V/m) @ t=0.12
-6.961078815526044
% es.Ey (V/m) @ t=0.12
-0.7513881754623815
% es.Ez (V/m) @ t=0.12
9.320837735512407
% es.tEx (V/m) @ t=0.12
-6.961078815526067
% es.tEy (V/m) @ t=0.12
0
% es.tEz (V/m) @ t=0.12
9.320837735512406
% V (V) @ t=0.12
0.010288831544580147
% es.normE (V/m) @ t=0.14
12.64508381146915
% es.EX (V/m) @ t=0.14
-7.026120162833379
% es.EY (V/m) @ t=0.14
-0.7584088202567121
% es.EZ (V/m) @ t=0.14
9.407927654061686
% es.tEX (V/m) @ t=0.14
-7.026120162833378
% es.tEY (V/m) @ t=0.14
0
% es.tEZ (V/m) @ t=0.14
9.407927654061677
% es.Ex (V/m) @ t=0.14
-7.026120162833379
% es.Ey (V/m) @ t=0.14
-0.7584088202567121
% es.Ez (V/m) @ t=0.14
9.407927654061686
% es.tEx (V/m) @ t=0.14
-7.026120162833378
% es.tEy (V/m) @ t=0.14
0
% es.tEz (V/m) @ t=0.14
9.407927654061677
% V (V) @ t=0.14
0.010384965973338904
% es.normE (V/m) @ t=0.16
12.764333740465986
% es.EX (V/m) @ t=0.16
-7.092380269791182
% es.EY (V/m) @ t=0.16
-0.7655610023862129
% es.EZ (V/m) @ t=0.16
9.496649457076655
% es.tEX (V/m) @ t=0.16
-7.09238026979118
% es.tEY (V/m) @ t=0.16
0
% es.tEZ (V/m) @ t=0.16
9.496649457076643
% es.Ex (V/m) @ t=0.16
-7.092380269791182
% es.Ey (V/m) @ t=0.16
-0.7655610023862129
% es.Ez (V/m) @ t=0.16
9.496649457076655
% es.tEx (V/m) @ t=0.16
-7.09238026979118
% es.tEy (V/m) @ t=0.16
0
% es.tEz (V/m) @ t=0.16
9.496649457076643
% V (V) @ t=0.16
0.010482901731303422
% es.normE (V/m) @ t=0.18
12.883583669462812
% es.EX (V/m) @ t=0.18
-7.158640376748977
% es.EY (V/m) @ t=0.18
-0.7727131845156949
% es.EZ (V/m) @ t=0.18
9.585371260091627
% es.tEX (V/m) @ t=0.18
-7.158640376748997
% es.tEY (V/m) @ t=0.18
0
% es.tEZ (V/m) @ t=0.18
9.585371260091616
% es.Ex (V/m) @ t=0.18
-7.158640376748977
% es.Ey (V/m) @ t=0.18
-0.7727131845156949
% es.Ez (V/m) @ t=0.18
9.585371260091627
% es.tEx (V/m) @ t=0.18
-7.158640376748997
% es.tEy (V/m) @ t=0.18
0
% es.tEz (V/m) @ t=0.18
9.585371260091616
% V (V) @ t=0.18
0.010580837489267936
% es.normE (V/m) @ t=0.2
13.002833598459627
% es.EX (V/m) @ t=0.2
-7.224900483706758
% es.EY (V/m) @ t=0.2
-0.7798653666451849
% es.EZ (V/m) @ t=0.2
9.674093063106584
% es.tEX (V/m) @ t=0.2
-7.2249004837067705
% es.tEY (V/m) @ t=0.2
0
% es.tEZ (V/m) @ t=0.2
9.674093063106582
% es.Ex (V/m) @ t=0.2
-7.224900483706758
% es.Ey (V/m) @ t=0.2
-0.7798653666451849
% es.Ez (V/m) @ t=0.2
9.674093063106584
% es.tEx (V/m) @ t=0.2
-7.2249004837067705
% es.tEy (V/m) @ t=0.2
0
% es.tEz (V/m) @ t=0.2
9.674093063106582
% V (V) @ t=0.2
0.010678773247232454
% es.normE (V/m) @ t=0.22
13.122083527456478
% es.EX (V/m) @ t=0.22
-7.2911605906645605
% es.EY (V/m) @ t=0.22
-0.7870175487747035
% es.EZ (V/m) @ t=0.22
9.76281486612157
% es.tEX (V/m) @ t=0.22
-7.29116059066458
% es.tEY (V/m) @ t=0.22
0
% es.tEZ (V/m) @ t=0.22
9.762814866121564
% es.Ex (V/m) @ t=0.22
-7.2911605906645605
% es.Ey (V/m) @ t=0.22
-0.7870175487747035
% es.Ez (V/m) @ t=0.22
9.76281486612157
% es.tEx (V/m) @ t=0.22
-7.29116059066458
% es.tEy (V/m) @ t=0.22
0
% es.tEz (V/m) @ t=0.22
9.762814866121564
% V (V) @ t=0.22
0.010776709005196972
% es.normE (V/m) @ t=0.24
13.241333456453342
% es.EX (V/m) @ t=0.24
-7.357420697622363
% es.EY (V/m) @ t=0.24
-0.7941697309041942
% es.EZ (V/m) @ t=0.24
9.851536669136571
% es.tEX (V/m) @ t=0.24
-7.35742069762237
% es.tEY (V/m) @ t=0.24
0
% es.tEZ (V/m) @ t=0.24
9.851536669136564
% es.Ex (V/m) @ t=0.24
-7.357420697622363
% es.Ey (V/m) @ t=0.24
-0.7941697309041942
% es.Ez (V/m) @ t=0.24
9.851536669136571
% es.tEx (V/m) @ t=0.24
-7.35742069762237
% es.tEy (V/m) @ t=0.24
0
% es.tEz (V/m) @ t=0.24
9.851536669136564
% V (V) @ t=0.24
0.010874644763161488
% es.normE (V/m) @ t=0.26
13.36351715979724
% es.EX (V/m) @ t=0.26
-7.425310172062703
% es.EY (V/m) @ t=0.26
-0.8014985685059863
% es.EZ (V/m) @ t=0.26
9.94244139070749
% es.tEX (V/m) @ t=0.26
-7.425310172062709
% es.tEY (V/m) @ t=0.26
0
% es.tEZ (V/m) @ t=0.26
9.942441390707481
% es.Ex (V/m) @ t=0.26
-7.425310172062703
% es.Ey (V/m) @ t=0.26
-0.8014985685059863
% es.Ez (V/m) @ t=0.26
9.94244139070749
% es.tEx (V/m) @ t=0.26
-7.425310172062709
% es.tEy (V/m) @ t=0.26
0
% es.tEz (V/m) @ t=0.26
9.942441390707481
% V (V) @ t=0.26
0.010974991535378507
% es.normE (V/m) @ t=0.28
13.49541699051587
% es.EX (V/m) @ t=0.28
-7.498595815439753
% es.EY (V/m) @ t=0.28
-0.8094124569218009
% es.EZ (V/m) @ t=0.28
10.04057554175272
% es.tEX (V/m) @ t=0.28
-7.498595815439767
% es.tEY (V/m) @ t=0.28
0
% es.tEZ (V/m) @ t=0.28
10.040575541752697
% es.Ex (V/m) @ t=0.28
-7.498595815439753
% es.Ey (V/m) @ t=0.28
-0.8094124569218009
% es.Ez (V/m) @ t=0.28
10.04057554175272
% es.tEx (V/m) @ t=0.28
-7.498595815439767
% es.tEy (V/m) @ t=0.28
0
% es.tEz (V/m) @ t=0.28
10.040575541752697
% V (V) @ t=0.28
0.011083323148556482
% es.normE (V/m) @ t=0.3
13.627316821236333
% es.EX (V/m) @ t=0.3
-7.571881458816776
% es.EY (V/m) @ t=0.3
-0.8173263453376296
% es.EZ (V/m) @ t=0.3
10.13870969279791
% es.tEX (V/m) @ t=0.3
-7.571881458816788
% es.tEY (V/m) @ t=0.3
0
% es.tEZ (V/m) @ t=0.3
10.138709692797896
% es.Ex (V/m) @ t=0.3
-7.571881458816776
% es.Ey (V/m) @ t=0.3
-0.8173263453376296
% es.Ez (V/m) @ t=0.3
10.13870969279791
% es.tEx (V/m) @ t=0.3
-7.571881458816788
% es.tEy (V/m) @ t=0.3
0
% es.tEz (V/m) @ t=0.3
10.138709692797896
% V (V) @ t=0.3
0.011191654761734452
% es.normE (V/m) @ t=0.32
13.75921665195865
% es.EX (V/m) @ t=0.32
-7.6451671021938115
% es.EY (V/m) @ t=0.32
-0.8252402337534481
% es.EZ (V/m) @ t=0.32
10.23684384384311
% es.tEX (V/m) @ t=0.32
-7.645167102193838
% es.tEY (V/m) @ t=0.32
0
% es.tEZ (V/m) @ t=0.32
10.236843843843102
% es.Ex (V/m) @ t=0.32
-7.6451671021938115
% es.Ey (V/m) @ t=0.32
-0.8252402337534481
% es.Ez (V/m) @ t=0.32
10.23684384384311
% es.tEx (V/m) @ t=0.32
-7.645167102193838
% es.tEy (V/m) @ t=0.32
0
% es.tEz (V/m) @ t=0.32
10.236843843843102
% V (V) @ t=0.32
0.011299986374912424
% es.normE (V/m) @ t=0.34
13.891116482682738
% es.EX (V/m) @ t=0.34
-7.7184527455708185
% es.EY (V/m) @ t=0.34
-0.8331541221692662
% es.EZ (V/m) @ t=0.34
10.334977994888312
% es.tEX (V/m) @ t=0.34
-7.718452745570845
% es.tEY (V/m) @ t=0.34
0
% es.tEZ (V/m) @ t=0.34
10.334977994888298
% es.Ex (V/m) @ t=0.34
-7.7184527455708185
% es.Ey (V/m) @ t=0.34
-0.8331541221692662
% es.Ez (V/m) @ t=0.34
10.334977994888312
% es.tEx (V/m) @ t=0.34
-7.718452745570845
% es.tEy (V/m) @ t=0.34
0
% es.tEz (V/m) @ t=0.34
10.334977994888298
% V (V) @ t=0.34
0.011408317988090394
% es.normE (V/m) @ t=0.36
14.023016313408576
% es.EX (V/m) @ t=0.36
-7.7917383889478575
% es.EY (V/m) @ t=0.36
-0.8410680105850954
% es.EZ (V/m) @ t=0.36
10.433112145933524
% es.tEX (V/m) @ t=0.36
-7.791738388947877
% es.tEY (V/m) @ t=0.36
0
% es.tEZ (V/m) @ t=0.36
10.433112145933524
% es.Ex (V/m) @ t=0.36
-7.7917383889478575
% es.Ey (V/m) @ t=0.36
-0.8410680105850954
% es.Ez (V/m) @ t=0.36
10.433112145933524
% es.tEx (V/m) @ t=0.36
-7.791738388947877
% es.tEy (V/m) @ t=0.36
0
% es.tEz (V/m) @ t=0.36
10.433112145933524
% V (V) @ t=0.36
0.011516649601268367
% es.normE (V/m) @ t=0.38
14.154916144136081
% es.EX (V/m) @ t=0.38
-7.865024032324865
% es.EY (V/m) @ t=0.38
-0.8489818990009526
% es.EZ (V/m) @ t=0.38
10.531246296978733
% es.tEX (V/m) @ t=0.38
-7.865024032324877
% es.tEY (V/m) @ t=0.38
0
% es.tEZ (V/m) @ t=0.38
10.531246296978722
% es.Ex (V/m) @ t=0.38
-7.865024032324865
% es.Ey (V/m) @ t=0.38
-0.8489818990009526
% es.Ez (V/m) @ t=0.38
10.531246296978733
% es.tEx (V/m) @ t=0.38
-7.865024032324877
% es.tEy (V/m) @ t=0.38
0
% es.tEz (V/m) @ t=0.38
10.531246296978722
% V (V) @ t=0.38
0.011624981214446332
% es.normE (V/m) @ t=0.4
14.286815974865224
% es.EX (V/m) @ t=0.4
-7.938309675701909
% es.EY (V/m) @ t=0.4
-0.8568957874167493
% es.EZ (V/m) @ t=0.4
10.629380448023937
% es.tEX (V/m) @ t=0.4
-7.9383096757019285
% es.tEY (V/m) @ t=0.4
0
% es.tEZ (V/m) @ t=0.4
10.629380448023923
% es.Ex (V/m) @ t=0.4
-7.938309675701909
% es.Ey (V/m) @ t=0.4
-0.8568957874167493
% es.Ez (V/m) @ t=0.4
10.629380448023937
% es.tEx (V/m) @ t=0.4
-7.9383096757019285
% es.tEy (V/m) @ t=0.4
0
% es.tEz (V/m) @ t=0.4
10.629380448023923
% V (V) @ t=0.4
0.011733312827624303
% es.normE (V/m) @ t=0.42
14.418715805595948
% es.EX (V/m) @ t=0.42
-8.011595319078937
% es.EY (V/m) @ t=0.42
-0.8648096758325994
% es.EZ (V/m) @ t=0.42
10.72751459906913
% es.tEX (V/m) @ t=0.42
-8.011595319078957
% es.tEY (V/m) @ t=0.42
0
% es.tEZ (V/m) @ t=0.42
10.727514599069114
% es.Ex (V/m) @ t=0.42
-8.011595319078937
% es.Ey (V/m) @ t=0.42
-0.8648096758325994
% es.Ez (V/m) @ t=0.42
10.72751459906913
% es.tEx (V/m) @ t=0.42
-8.011595319078957
% es.tEy (V/m) @ t=0.42
0
% es.tEz (V/m) @ t=0.42
10.727514599069114
% V (V) @ t=0.42
0.011841644440802275
% es.normE (V/m) @ t=0.44
14.550615636328232
% es.EX (V/m) @ t=0.44
-8.084880962455951
% es.EY (V/m) @ t=0.44
-0.8727235642483926
% es.EZ (V/m) @ t=0.44
10.825648750114361
% es.tEX (V/m) @ t=0.44
-8.084880962455971
% es.tEY (V/m) @ t=0.44
0
% es.tEZ (V/m) @ t=0.44
10.825648750114347
% es.Ex (V/m) @ t=0.44
-8.084880962455951
% es.Ey (V/m) @ t=0.44
-0.8727235642483926
% es.Ez (V/m) @ t=0.44
10.825648750114361
% es.tEx (V/m) @ t=0.44
-8.084880962455971
% es.tEy (V/m) @ t=0.44
0
% es.tEz (V/m) @ t=0.44
10.825648750114347
% V (V) @ t=0.44
0.011949976053980247
% es.normE (V/m) @ t=0.46
14.682515467062018
% es.EX (V/m) @ t=0.46
-8.158166605832987
% es.EY (V/m) @ t=0.46
-0.8806374526642324
% es.EZ (V/m) @ t=0.46
10.923782901159552
% es.tEX (V/m) @ t=0.46
-8.158166605833006
% es.tEY (V/m) @ t=0.46
0
% es.tEZ (V/m) @ t=0.46
10.923782901159537
% es.Ex (V/m) @ t=0.46
-8.158166605832987
% es.Ey (V/m) @ t=0.46
-0.8806374526642324
% es.Ez (V/m) @ t=0.46
10.923782901159552
% es.tEx (V/m) @ t=0.46
-8.158166605833006
% es.tEy (V/m) @ t=0.46
0
% es.tEz (V/m) @ t=0.46
10.923782901159537
% V (V) @ t=0.46
0.012058307667158218
% es.normE (V/m) @ t=0.48
14.814415297797247
% es.EX (V/m) @ t=0.48
-8.23145224921001
% es.EY (V/m) @ t=0.48
-0.8885513410800581
% es.EZ (V/m) @ t=0.48
11.02191705220476
% es.tEX (V/m) @ t=0.48
-8.23145224921003
% es.tEY (V/m) @ t=0.48
0
% es.tEZ (V/m) @ t=0.48
11.021917052204742
% es.Ex (V/m) @ t=0.48
-8.23145224921001
% es.Ey (V/m) @ t=0.48
-0.8885513410800581
% es.Ez (V/m) @ t=0.48
11.02191705220476
% es.tEx (V/m) @ t=0.48
-8.23145224921003
% es.tEy (V/m) @ t=0.48
0
% es.tEz (V/m) @ t=0.48
11.021917052204742
% V (V) @ t=0.48
0.012166639280336188
% es.normE (V/m) @ t=0.5
14.946315128533936
% es.EX (V/m) @ t=0.5
-8.304737892587045
% es.EY (V/m) @ t=0.5
-0.8964652294959086
% es.EZ (V/m) @ t=0.5
11.12005120324999
% es.tEX (V/m) @ t=0.5
-8.30473789258705
% es.tEY (V/m) @ t=0.5
0
% es.tEZ (V/m) @ t=0.5
11.120051203249968
% es.Ex (V/m) @ t=0.5
-8.304737892587045
% es.Ey (V/m) @ t=0.5
-0.8964652294959086
% es.Ez (V/m) @ t=0.5
11.12005120324999
% es.tEx (V/m) @ t=0.5
-8.30473789258705
% es.tEy (V/m) @ t=0.5
0
% es.tEz (V/m) @ t=0.5
11.120051203249968
% V (V) @ t=0.5
0.01227497089351416
% es.normE (V/m) @ t=0.52
15.084895616649218
% es.EX (V/m) @ t=0.52
-8.381735797357631
% es.EY (V/m) @ t=0.52
-0.9047796005553126
% es.EZ (V/m) @ t=0.52
11.223155699451487
% es.tEX (V/m) @ t=0.52
-8.381735797357644
% es.tEY (V/m) @ t=0.52
0
% es.tEZ (V/m) @ t=0.52
11.223155699451482
% es.Ex (V/m) @ t=0.52
-8.381735797357631
% es.Ey (V/m) @ t=0.52
-0.9047796005553126
% es.Ez (V/m) @ t=0.52
11.223155699451487
% es.tEx (V/m) @ t=0.52
-8.381735797357644
% es.tEy (V/m) @ t=0.52
0
% es.tEz (V/m) @ t=0.52
11.223155699451482
% V (V) @ t=0.52
0.012388788635138284
% es.normE (V/m) @ t=0.54
15.231007410190829
% es.EX (V/m) @ t=0.54
-8.462918645734009
% es.EY (V/m) @ t=0.54
-0.9135454477100335
% es.EZ (V/m) @ t=0.54
11.331863414816539
% es.tEX (V/m) @ t=0.54
-8.462918645734021
% es.tEY (V/m) @ t=0.54
0
% es.tEZ (V/m) @ t=0.54
11.331863414816516
% es.Ex (V/m) @ t=0.54
-8.462918645734009
% es.Ey (V/m) @ t=0.54
-0.9135454477100335
% es.Ez (V/m) @ t=0.54
11.331863414816539
% es.tEx (V/m) @ t=0.54
-8.462918645734021
% es.tEy (V/m) @ t=0.54
0
% es.tEz (V/m) @ t=0.54
11.331863414816516
% V (V) @ t=0.54
0.012508791053897806
% es.normE (V/m) @ t=0.56
15.377119203733358
% es.EX (V/m) @ t=0.56
-8.544101494110413
% es.EY (V/m) @ t=0.56
-0.9223112948647367
% es.EZ (V/m) @ t=0.56
11.440571130181617
% es.tEX (V/m) @ t=0.56
-8.54410149411044
% es.tEY (V/m) @ t=0.56
0
% es.tEZ (V/m) @ t=0.56
11.44057113018161
% es.Ex (V/m) @ t=0.56
-8.544101494110413
% es.Ey (V/m) @ t=0.56
-0.9223112948647367
% es.Ez (V/m) @ t=0.56
11.440571130181617
% es.tEx (V/m) @ t=0.56
-8.54410149411044
% es.tEy (V/m) @ t=0.56
0
% es.tEz (V/m) @ t=0.56
11.44057113018161
% V (V) @ t=0.56
0.012628793472657326
% es.normE (V/m) @ t=0.58
15.523230997276734
% es.EX (V/m) @ t=0.58
-8.625284342486834
% es.EY (V/m) @ t=0.58
-0.931077142019404
% es.EZ (V/m) @ t=0.58
11.549278845546656
% es.tEX (V/m) @ t=0.58
-8.625284342486847
% es.tEY (V/m) @ t=0.58
0
% es.tEZ (V/m) @ t=0.58
11.549278845546644
% es.Ex (V/m) @ t=0.58
-8.625284342486834
% es.Ey (V/m) @ t=0.58
-0.931077142019404
% es.Ez (V/m) @ t=0.58
11.549278845546656
% es.tEx (V/m) @ t=0.58
-8.625284342486847
% es.tEy (V/m) @ t=0.58
0
% es.tEz (V/m) @ t=0.58
11.549278845546644
% V (V) @ t=0.58
0.012748795891416845
% es.normE (V/m) @ t=0.6
15.669342790820991
% es.EX (V/m) @ t=0.6
-8.706467190863233
% es.EY (V/m) @ t=0.6
-0.9398429891741107
% es.EZ (V/m) @ t=0.6
11.657986560911732
% es.tEX (V/m) @ t=0.6
-8.706467190863224
% es.tEY (V/m) @ t=0.6
0
% es.tEZ (V/m) @ t=0.6
11.657986560911727
% es.Ex (V/m) @ t=0.6
-8.706467190863233
% es.Ey (V/m) @ t=0.6
-0.9398429891741107
% es.Ez (V/m) @ t=0.6
11.657986560911732
% es.tEx (V/m) @ t=0.6
-8.706467190863224
% es.tEy (V/m) @ t=0.6
0
% es.tEz (V/m) @ t=0.6
11.657986560911727
% V (V) @ t=0.6
0.012868798310176363
% es.normE (V/m) @ t=0.62
15.815454584366044
% es.EX (V/m) @ t=0.62
-8.787650039239608
% es.EY (V/m) @ t=0.62
-0.9486088363288494
% es.EZ (V/m) @ t=0.62
11.766694276276807
% es.tEX (V/m) @ t=0.62
-8.78765003923962
% es.tEY (V/m) @ t=0.62
0
% es.tEZ (V/m) @ t=0.62
11.766694276276787
% es.Ex (V/m) @ t=0.62
-8.787650039239608
% es.Ey (V/m) @ t=0.62
-0.9486088363288494
% es.Ez (V/m) @ t=0.62
11.766694276276807
% es.tEx (V/m) @ t=0.62
-8.78765003923962
% es.tEy (V/m) @ t=0.62
0
% es.tEz (V/m) @ t=0.62
11.766694276276787
% V (V) @ t=0.62
0.012988800728935882
% es.normE (V/m) @ t=0.64
15.96156637791187
% es.EX (V/m) @ t=0.64
-8.868832887616035
% es.EY (V/m) @ t=0.64
-0.9573746834834953
% es.EZ (V/m) @ t=0.64
11.875401991641832
% es.tEX (V/m) @ t=0.64
-8.868832887616048
% es.tEY (V/m) @ t=0.64
0
% es.tEZ (V/m) @ t=0.64
11.875401991641828
% es.Ex (V/m) @ t=0.64
-8.868832887616035
% es.Ey (V/m) @ t=0.64
-0.9573746834834953
% es.Ez (V/m) @ t=0.64
11.875401991641832
% es.tEx (V/m) @ t=0.64
-8.868832887616048
% es.tEy (V/m) @ t=0.64
0
% es.tEz (V/m) @ t=0.64
11.875401991641828
% V (V) @ t=0.64
0.013108803147695403
% es.normE (V/m) @ t=0.66
16.107678171458513
% es.EX (V/m) @ t=0.66
-8.950015735992418
% es.EY (V/m) @ t=0.66
-0.9661405306382163
% es.EZ (V/m) @ t=0.66
11.984109707006915
% es.tEX (V/m) @ t=0.66
-8.950015735992444
% es.tEY (V/m) @ t=0.66
0
% es.tEZ (V/m) @ t=0.66
11.984109707006887
% es.Ex (V/m) @ t=0.66
-8.950015735992418
% es.Ey (V/m) @ t=0.66
-0.9661405306382163
% es.Ez (V/m) @ t=0.66
11.984109707006915
% es.tEx (V/m) @ t=0.66
-8.950015735992444
% es.tEy (V/m) @ t=0.66
0
% es.tEz (V/m) @ t=0.66
11.984109707006887
% V (V) @ t=0.66
0.013228805566454923
% es.normE (V/m) @ t=0.68
16.253789965005893
% es.EX (V/m) @ t=0.68
-9.031198584368818
% es.EY (V/m) @ t=0.68
-0.9749063777929017
% es.EZ (V/m) @ t=0.68
12.092817422371978
% es.tEX (V/m) @ t=0.68
-9.03119858436883
% es.tEY (V/m) @ t=0.68
0
% es.tEZ (V/m) @ t=0.68
12.09281742237196
% es.Ex (V/m) @ t=0.68
-9.031198584368818
% es.Ey (V/m) @ t=0.68
-0.9749063777929017
% es.Ez (V/m) @ t=0.68
12.092817422371978
% es.tEx (V/m) @ t=0.68
-9.03119858436883
% es.tEy (V/m) @ t=0.68
0
% es.tEz (V/m) @ t=0.68
12.09281742237196
% V (V) @ t=0.68
0.01334880798521444
% es.normE (V/m) @ t=0.7
16.39990175855398
% es.EX (V/m) @ t=0.7
-9.11238143274523
% es.EY (V/m) @ t=0.7
-0.9836722249476013
% es.EZ (V/m) @ t=0.7
12.201525137737006
% es.tEX (V/m) @ t=0.7
-9.11238143274525
% es.tEY (V/m) @ t=0.7
0
% es.tEZ (V/m) @ t=0.7
12.201525137736988
% es.Ex (V/m) @ t=0.7
-9.11238143274523
% es.Ey (V/m) @ t=0.7
-0.9836722249476013
% es.Ez (V/m) @ t=0.7
12.201525137737006
% es.tEx (V/m) @ t=0.7
-9.11238143274525
% es.tEy (V/m) @ t=0.7
0
% es.tEz (V/m) @ t=0.7
12.201525137736988
% V (V) @ t=0.7
0.013468810403973963
% es.normE (V/m) @ t=0.72
16.546013552102842
% es.EX (V/m) @ t=0.72
-9.193564281121649
% es.EY (V/m) @ t=0.72
-0.9924380721023041
% es.EZ (V/m) @ t=0.72
12.310232853102075
% es.tEX (V/m) @ t=0.72
-9.193564281121661
% es.tEY (V/m) @ t=0.72
0
% es.tEZ (V/m) @ t=0.72
12.310232853102054
% es.Ex (V/m) @ t=0.72
-9.193564281121649
% es.Ey (V/m) @ t=0.72
-0.9924380721023041
% es.Ez (V/m) @ t=0.72
12.310232853102075
% es.tEx (V/m) @ t=0.72
-9.193564281121661
% es.tEy (V/m) @ t=0.72
0
% es.tEz (V/m) @ t=0.72
12.310232853102054
% V (V) @ t=0.72
0.013588812822733482
% es.normE (V/m) @ t=0.74
16.692125345652343
% es.EX (V/m) @ t=0.74
-9.274747129498028
% es.EY (V/m) @ t=0.74
-1.0012039192569824
% es.EZ (V/m) @ t=0.74
12.418940568467132
% es.tEX (V/m) @ t=0.74
-9.27474712949804
% es.tEY (V/m) @ t=0.74
0
% es.tEZ (V/m) @ t=0.74
12.418940568467107
% es.Ex (V/m) @ t=0.74
-9.274747129498028
% es.Ey (V/m) @ t=0.74
-1.0012039192569824
% es.Ez (V/m) @ t=0.74
12.418940568467132
% es.tEx (V/m) @ t=0.74
-9.27474712949804
% es.tEy (V/m) @ t=0.74
0
% es.tEz (V/m) @ t=0.74
12.418940568467107
% V (V) @ t=0.74
0.013708815241492998
% es.normE (V/m) @ t=0.76
16.83823713920256
% es.EX (V/m) @ t=0.76
-9.355929977874426
% es.EY (V/m) @ t=0.76
-1.0099697664117033
% es.EZ (V/m) @ t=0.76
12.527648283832185
% es.tEX (V/m) @ t=0.76
-9.355929977874439
% es.tEY (V/m) @ t=0.76
0
% es.tEZ (V/m) @ t=0.76
12.527648283832171
% es.Ex (V/m) @ t=0.76
-9.355929977874426
% es.Ey (V/m) @ t=0.76
-1.0099697664117033
% es.Ez (V/m) @ t=0.76
12.527648283832185
% es.tEx (V/m) @ t=0.76
-9.355929977874439
% es.tEy (V/m) @ t=0.76
0
% es.tEz (V/m) @ t=0.76
12.527648283832171
% V (V) @ t=0.76
0.01382881766025252
% es.normE (V/m) @ t=0.78
16.995680370167747
% es.EX (V/m) @ t=0.78
-9.443409847697264
% es.EY (V/m) @ t=0.78
-1.019414480694711
% es.EZ (V/m) @ t=0.78
12.644786366396922
% es.tEX (V/m) @ t=0.78
-9.443409847697263
% es.tEY (V/m) @ t=0.78
0
% es.tEZ (V/m) @ t=0.78
12.644786366396902
% es.Ex (V/m) @ t=0.78
-9.443409847697264
% es.Ey (V/m) @ t=0.78
-1.019414480694711
% es.Ez (V/m) @ t=0.78
12.644786366396922
% es.tEx (V/m) @ t=0.78
-9.443409847697263
% es.tEy (V/m) @ t=0.78
0
% es.tEz (V/m) @ t=0.78
12.644786366396902
% V (V) @ t=0.78
0.01395812445686005
% es.normE (V/m) @ t=0.8
17.157791936190733
% es.EX (V/m) @ t=0.8
-9.533483969679093
% es.EY (V/m) @ t=0.8
-1.0291388752246702
% es.EZ (V/m) @ t=0.8
12.765397598687322
% es.tEX (V/m) @ t=0.8
-9.53348396967912
% es.tEY (V/m) @ t=0.8
0
% es.tEZ (V/m) @ t=0.8
12.765397598687308
% es.Ex (V/m) @ t=0.8
-9.533483969679093
% es.Ey (V/m) @ t=0.8
-1.0291388752246702
% es.Ez (V/m) @ t=0.8
12.765397598687322
% es.tEx (V/m) @ t=0.8
-9.53348396967912
% es.tEy (V/m) @ t=0.8
0
% es.tEz (V/m) @ t=0.8
12.765397598687308
% V (V) @ t=0.8
0.014091264478830686
% es.normE (V/m) @ t=0.82
17.319903502213805
% es.EX (V/m) @ t=0.82
-9.623558091660925
% es.EY (V/m) @ t=0.82
-1.0388632697546143
% es.EZ (V/m) @ t=0.82
12.886008830977712
% es.tEX (V/m) @ t=0.82
-9.623558091660952
% es.tEY (V/m) @ t=0.82
0
% es.tEZ (V/m) @ t=0.82
12.886008830977685
% es.Ex (V/m) @ t=0.82
-9.623558091660925
% es.Ey (V/m) @ t=0.82
-1.0388632697546143
% es.Ez (V/m) @ t=0.82
12.886008830977712
% es.tEx (V/m) @ t=0.82
-9.623558091660952
% es.tEy (V/m) @ t=0.82
0
% es.tEz (V/m) @ t=0.82
12.886008830977685
% V (V) @ t=0.82
0.01422440450080133
% es.normE (V/m) @ t=0.84
17.482015068236997
% es.EX (V/m) @ t=0.84
-9.713632213642745
% es.EY (V/m) @ t=0.84
-1.0485876642846161
% es.EZ (V/m) @ t=0.84
13.006620063268095
% es.tEX (V/m) @ t=0.84
-9.713632213642764
% es.tEY (V/m) @ t=0.84
0
% es.tEZ (V/m) @ t=0.84
13.006620063268093
% es.Ex (V/m) @ t=0.84
-9.713632213642745
% es.Ey (V/m) @ t=0.84
-1.0485876642846161
% es.Ez (V/m) @ t=0.84
13.006620063268095
% es.tEx (V/m) @ t=0.84
-9.713632213642764
% es.tEy (V/m) @ t=0.84
0
% es.tEz (V/m) @ t=0.84
13.006620063268093
% V (V) @ t=0.84
0.01435754452277197
% es.normE (V/m) @ t=0.86
17.64412663426028
% es.EX (V/m) @ t=0.86
-9.803706335624579
% es.EY (V/m) @ t=0.86
-1.0583120588146029
% es.EZ (V/m) @ t=0.86
13.127231295558468
% es.tEX (V/m) @ t=0.86
-9.803706335624591
% es.tEY (V/m) @ t=0.86
0
% es.tEZ (V/m) @ t=0.86
13.127231295558444
% es.Ex (V/m) @ t=0.86
-9.803706335624579
% es.Ey (V/m) @ t=0.86
-1.0583120588146029
% es.Ez (V/m) @ t=0.86
13.127231295558468
% es.tEx (V/m) @ t=0.86
-9.803706335624591
% es.tEy (V/m) @ t=0.86
0
% es.tEz (V/m) @ t=0.86
13.127231295558444
% V (V) @ t=0.86
0.01449068454474261
% es.normE (V/m) @ t=0.88
17.80623820028368
% es.EX (V/m) @ t=0.88
-9.893780457606413
% es.EY (V/m) @ t=0.88
-1.0680364533445723
% es.EZ (V/m) @ t=0.88
13.247842527848853
% es.tEX (V/m) @ t=0.88
-9.893780457606423
% es.tEY (V/m) @ t=0.88
0
% es.tEZ (V/m) @ t=0.88
13.247842527848848
% es.Ex (V/m) @ t=0.88
-9.893780457606413
% es.Ey (V/m) @ t=0.88
-1.0680364533445723
% es.Ez (V/m) @ t=0.88
13.247842527848853
% es.tEx (V/m) @ t=0.88
-9.893780457606423
% es.tEy (V/m) @ t=0.88
0
% es.tEz (V/m) @ t=0.88
13.247842527848848
% V (V) @ t=0.88
0.014623824566713253
% es.normE (V/m) @ t=0.9
17.96834976630718
% es.EX (V/m) @ t=0.9
-9.983854579588252
% es.EY (V/m) @ t=0.9
-1.0777608478745773
% es.EZ (V/m) @ t=0.9
13.36845376013924
% es.tEX (V/m) @ t=0.9
-9.983854579588257
% es.tEY (V/m) @ t=0.9
0
% es.tEZ (V/m) @ t=0.9
13.368453760139236
% es.Ex (V/m) @ t=0.9
-9.983854579588252
% es.Ey (V/m) @ t=0.9
-1.0777608478745773
% es.Ez (V/m) @ t=0.9
13.36845376013924
% es.tEx (V/m) @ t=0.9
-9.983854579588257
% es.tEy (V/m) @ t=0.9
0
% es.tEz (V/m) @ t=0.9
13.368453760139236
% V (V) @ t=0.9
0.014756964588683898
% es.normE (V/m) @ t=0.92
18.130461332330782
% es.EX (V/m) @ t=0.92
-10.073928701570091
% es.EY (V/m) @ t=0.92
-1.087485242404504
% es.EZ (V/m) @ t=0.92
13.489064992429633
% es.tEX (V/m) @ t=0.92
-10.07392870157009
% es.tEY (V/m) @ t=0.92
0
% es.tEZ (V/m) @ t=0.92
13.489064992429618
% es.Ex (V/m) @ t=0.92
-10.073928701570091
% es.Ey (V/m) @ t=0.92
-1.087485242404504
% es.Ez (V/m) @ t=0.92
13.489064992429633
% es.tEx (V/m) @ t=0.92
-10.07392870157009
% es.tEy (V/m) @ t=0.92
0
% es.tEz (V/m) @ t=0.92
13.489064992429618
% V (V) @ t=0.92
0.01489010461065454
% es.normE (V/m) @ t=0.94
18.292572898354454
% es.EX (V/m) @ t=0.94
-10.164002823551906
% es.EY (V/m) @ t=0.94
-1.09720963693447
% es.EZ (V/m) @ t=0.94
13.609676224720028
% es.tEX (V/m) @ t=0.94
-10.164002823551925
% es.tEY (V/m) @ t=0.94
0
% es.tEZ (V/m) @ t=0.94
13.609676224719998
% es.Ex (V/m) @ t=0.94
-10.164002823551906
% es.Ey (V/m) @ t=0.94
-1.09720963693447
% es.Ez (V/m) @ t=0.94
13.609676224720028
% es.tEx (V/m) @ t=0.94
-10.164002823551925
% es.tEy (V/m) @ t=0.94
0
% es.tEz (V/m) @ t=0.94
13.609676224719998
% V (V) @ t=0.94
0.015023244632625181
% es.normE (V/m) @ t=0.96
18.45468446437826
% es.EX (V/m) @ t=0.96
-10.25407694553374
% es.EY (V/m) @ t=0.96
-1.1069340314644673
% es.EZ (V/m) @ t=0.96
13.730287457010439
% es.tEX (V/m) @ t=0.96
-10.254076945533766
% es.tEY (V/m) @ t=0.96
0
% es.tEZ (V/m) @ t=0.96
13.730287457010418
% es.Ex (V/m) @ t=0.96
-10.25407694553374
% es.Ey (V/m) @ t=0.96
-1.1069340314644673
% es.Ez (V/m) @ t=0.96
13.730287457010439
% es.tEx (V/m) @ t=0.96
-10.254076945533766
% es.tEy (V/m) @ t=0.96
0
% es.tEz (V/m) @ t=0.96
13.730287457010418
% V (V) @ t=0.96
0.01515638465459582
% es.normE (V/m) @ t=0.98
18.616796030402117
% es.EX (V/m) @ t=0.98
-10.344151067515567
% es.EY (V/m) @ t=0.98
-1.1166584259944479
% es.EZ (V/m) @ t=0.98
13.850898689300825
% es.tEX (V/m) @ t=0.98
-10.344151067515586
% es.tEY (V/m) @ t=0.98
0
% es.tEZ (V/m) @ t=0.98
13.850898689300802
% es.Ex (V/m) @ t=0.98
-10.344151067515567
% es.Ey (V/m) @ t=0.98
-1.1166584259944479
% es.Ez (V/m) @ t=0.98
13.850898689300825
% es.tEx (V/m) @ t=0.98
-10.344151067515586
% es.tEy (V/m) @ t=0.98
0
% es.tEz (V/m) @ t=0.98
13.850898689300802
% V (V) @ t=0.98
0.015289524676566465
% es.normE (V/m) @ t=1
18.778907596426038
% es.EX (V/m) @ t=1
-10.434225189497406
% es.EY (V/m) @ t=1
-1.1263828205244133
% es.EZ (V/m) @ t=1
13.971509921591181
% es.tEX (V/m) @ t=1
-10.434225189497418
% es.tEY (V/m) @ t=1
0
% es.tEZ (V/m) @ t=1
13.971509921591178
% es.Ex (V/m) @ t=1
-10.434225189497406
% es.Ey (V/m) @ t=1
-1.1263828205244133
% es.Ez (V/m) @ t=1
13.971509921591181
% es.tEx (V/m) @ t=1
-10.434225189497418
% es.tEy (V/m) @ t=1
0
% es.tEz (V/m) @ t=1
13.971509921591178
% V (V) @ t=1
0.01542266469853711
% es.normE (V/m) @ t=1.02
18.941019162450104
% es.EX (V/m) @ t=1.02
-10.524299311479266
% es.EY (V/m) @ t=1.02
-1.1361072150543832
% es.EZ (V/m) @ t=1.02
14.092121153881582
% es.tEX (V/m) @ t=1.02
-10.524299311479293
% es.tEY (V/m) @ t=1.02
0
% es.tEZ (V/m) @ t=1.02
14.092121153881564
% es.Ex (V/m) @ t=1.02
-10.524299311479266
% es.Ey (V/m) @ t=1.02
-1.1361072150543832
% es.Ez (V/m) @ t=1.02
14.092121153881582
% es.tEx (V/m) @ t=1.02
-10.524299311479293
% es.tEy (V/m) @ t=1.02
0
% es.tEz (V/m) @ t=1.02
14.092121153881564
% V (V) @ t=1.02
0.015555804720507748
% es.normE (V/m) @ t=1.04
19.110617450018797
% es.EX (V/m) @ t=1.04
-10.618535191066863
% es.EY (V/m) @ t=1.04
-1.1462789464298195
% es.EZ (V/m) @ t=1.04
14.218302028935193
% es.tEX (V/m) @ t=1.04
-10.618535191066874
% es.tEY (V/m) @ t=1.04
0
% es.tEZ (V/m) @ t=1.04
14.218302028935168
% es.Ex (V/m) @ t=1.04
-10.618535191066863
% es.Ey (V/m) @ t=1.04
-1.1462789464298195
% es.Ez (V/m) @ t=1.04
14.218302028935193