% Model:              1 neuron.mph
% Version:            COMSOL 6.1.0.252
% Date:               Mar 22 2023, 19:21
% Dimension:          0
% Nodes:              14017
% Expressions:        14017
% Description:        Electric field norm, Electric field, X component, Electric field, Y component, Electric field, Z component, Tangential electric field, X component, Tangential electric field, Y component, Tangential electric field, Z component, Electric field, x component, Electric field, y component, Electric field, z component, Tangential electric field, x component, Tangential electric field, y component, Tangential electric field, z component, Electric potential
% Length unit:        mm
% x
1.33
% y
12.2
% z
1.33
% es.normE (V/m) @ t=0
14.045108581357248
% es.EX (V/m) @ t=0
10.88333241579165
% es.EY (V/m) @ t=0
-1.6676485689240614
% es.EZ (V/m) @ t=0
8.694600641108131
% es.tEX (V/m) @ t=0
10.88333241579167
% es.tEY (V/m) @ t=0
0
% es.tEZ (V/m) @ t=0
8.694600641108122
% es.Ex (V/m) @ t=0
10.88333241579165
% es.Ey (V/m) @ t=0
-1.6676485689240614
% es.Ez (V/m) @ t=0
8.694600641108131
% es.tEx (V/m) @ t=0
10.88333241579167
% es.tEy (V/m) @ t=0
0
% es.tEz (V/m) @ t=0
8.694600641108122
% V (V) @ t=0
0.011598910626102486
% es.normE (V/m) @ t=0.02
12.130883032771187
% es.EX (V/m) @ t=0.02
9.400029314227517
% es.EY (V/m) @ t=0.02
-1.4403626511498544
% es.EZ (V/m) @ t=0.02
7.509602576048108
% es.tEX (V/m) @ t=0.02
9.400029314227568
% es.tEY (V/m) @ t=0.02
0
% es.tEZ (V/m) @ t=0.02
7.509602576048118
% es.Ex (V/m) @ t=0.02
9.400029314227517
% es.Ey (V/m) @ t=0.02
-1.4403626511498544
% es.Ez (V/m) @ t=0.02
7.509602576048108
% es.tEx (V/m) @ t=0.02
9.400029314227568
% es.tEy (V/m) @ t=0.02
0
% es.tEz (V/m) @ t=0.02
7.509602576048118
% V (V) @ t=0.02
0.010018080427891898
% es.normE (V/m) @ t=0.04
12.242457162999802
% es.EX (V/m) @ t=0.04
9.486486323159973
% es.EY (V/m) @ t=0.04
-1.4536104388122624
% es.EZ (V/m) @ t=0.04
7.578672375379183
% es.tEX (V/m) @ t=0.04
9.486486323159992
% es.tEY (V/m) @ t=0.04
0
% es.tEZ (V/m) @ t=0.04
7.5786723753791785
% es.Ex (V/m) @ t=0.04
9.486486323159973
% es.Ey (V/m) @ t=0.04
-1.4536104388122624
% es.Ez (V/m) @ t=0.04
7.578672375379183
% es.tEx (V/m) @ t=0.04
9.486486323159992
% es.tEy (V/m) @ t=0.04
0
% es.tEz (V/m) @ t=0.04
7.5786723753791785
% V (V) @ t=0.04
0.010110221909876371
% es.normE (V/m) @ t=0.06
12.354844571330446
% es.EX (V/m) @ t=0.06
9.573573518442803
% es.EY (V/m) @ t=0.06
-1.466954797780467
% es.EZ (V/m) @ t=0.06
7.648245645217985
% es.tEX (V/m) @ t=0.06
9.57357351844285
% es.tEY (V/m) @ t=0.06
0
% es.tEZ (V/m) @ t=0.06
7.648245645217972
% es.Ex (V/m) @ t=0.06
9.573573518442803
% es.Ey (V/m) @ t=0.06
-1.466954797780467
% es.Ez (V/m) @ t=0.06
7.648245645217985
% es.tEx (V/m) @ t=0.06
9.57357351844285
% es.tEy (V/m) @ t=0.06
0
% es.tEz (V/m) @ t=0.06
7.648245645217972
% V (V) @ t=0.06
0.010203034977833755
% es.normE (V/m) @ t=0.08
12.469385927411018
% es.EX (V/m) @ t=0.08
9.66232983685676
% es.EY (V/m) @ t=0.08
-1.4805548647747724
% es.EZ (V/m) @ t=0.08
7.719152236341223
% es.tEX (V/m) @ t=0.08
9.662329836856763
% es.tEY (V/m) @ t=0.08
0
% es.tEZ (V/m) @ t=0.08
7.719152236341199
% es.Ex (V/m) @ t=0.08
9.66232983685676
% es.Ey (V/m) @ t=0.08
-1.4805548647747724
% es.Ez (V/m) @ t=0.08
7.719152236341223
% es.tEx (V/m) @ t=0.08
9.662329836856763
% es.tEy (V/m) @ t=0.08
0
% es.tEz (V/m) @ t=0.08
7.719152236341199
% V (V) @ t=0.08
0.010297627138934059
% es.normE (V/m) @ t=0.1
12.584511656387082
% es.EX (V/m) @ t=0.1
9.75153899370056
% es.EY (V/m) @ t=0.1
-1.4942243061722742
% es.EZ (V/m) @ t=0.1
7.7904205617821365
% es.tEX (V/m) @ t=0.1
9.75153899370057
% es.tEY (V/m) @ t=0.1
0
% es.tEZ (V/m) @ t=0.1
7.7904205617821285
% es.Ex (V/m) @ t=0.1
9.75153899370056
% es.Ey (V/m) @ t=0.1
-1.4942243061722742
% es.Ez (V/m) @ t=0.1
7.7904205617821365
% es.tEx (V/m) @ t=0.1
9.75153899370057
% es.tEy (V/m) @ t=0.1
0
% es.tEz (V/m) @ t=0.1
7.7904205617821285
% V (V) @ t=0.1
0.010392701973679301
% es.normE (V/m) @ t=0.12
12.699637385363193
% es.EX (V/m) @ t=0.12
9.840748150544396
% es.EY (V/m) @ t=0.12
-1.507893747569799
% es.EZ (V/m) @ t=0.12
7.861688887223075
% es.tEX (V/m) @ t=0.12
9.84074815054445
% es.tEY (V/m) @ t=0.12
0
% es.tEZ (V/m) @ t=0.12
7.861688887223064
% es.Ex (V/m) @ t=0.12
9.840748150544396
% es.Ey (V/m) @ t=0.12
-1.507893747569799
% es.Ez (V/m) @ t=0.12
7.861688887223075
% es.tEx (V/m) @ t=0.12
9.84074815054445
% es.tEy (V/m) @ t=0.12
0
% es.tEz (V/m) @ t=0.12
7.861688887223064
% V (V) @ t=0.12
0.010487776808424545
% es.normE (V/m) @ t=0.14
12.818107319750006
% es.EX (V/m) @ t=0.14
9.932548399002446
% es.EY (V/m) @ t=0.14
-1.5219604464276184
% es.EZ (V/m) @ t=0.14
7.935027777079597
% es.tEX (V/m) @ t=0.14
9.93254839900245
% es.tEY (V/m) @ t=0.14
0
% es.tEZ (V/m) @ t=0.14
7.935027777079594
% es.Ex (V/m) @ t=0.14
9.932548399002446
% es.Ey (V/m) @ t=0.14
-1.5219604464276184
% es.Ez (V/m) @ t=0.14
7.935027777079597
% es.tEx (V/m) @ t=0.14
9.93254839900245
% es.tEy (V/m) @ t=0.14
0
% es.tEz (V/m) @ t=0.14
7.935027777079594
% V (V) @ t=0.14
0.01058561208132069
% es.normE (V/m) @ t=0.16
12.939004365104344
% es.EX (V/m) @ t=0.16
10.026229173954027
% es.EY (V/m) @ t=0.16
-1.5363154612889751
% es.EZ (V/m) @ t=0.16
8.009869412427108
% es.tEX (V/m) @ t=0.16
10.026229173954032
% es.tEY (V/m) @ t=0.16
0
% es.tEZ (V/m) @ t=0.16
8.009869412427104
% es.Ex (V/m) @ t=0.16
10.026229173954027
% es.Ey (V/m) @ t=0.16
-1.5363154612889751
% es.Ez (V/m) @ t=0.16
8.009869412427108
% es.tEx (V/m) @ t=0.16
10.026229173954032
% es.tEy (V/m) @ t=0.16
0
% es.tEz (V/m) @ t=0.16
8.009869412427104
% V (V) @ t=0.16
0.01068545078668831
% es.normE (V/m) @ t=0.18
13.059901410458735
% es.EX (V/m) @ t=0.18
10.119909948905587
% es.EY (V/m) @ t=0.18
-1.5506704761503176
% es.EZ (V/m) @ t=0.18
8.084711047774633
% es.tEX (V/m) @ t=0.18
10.119909948905642
% es.tEY (V/m) @ t=0.18
0
% es.tEZ (V/m) @ t=0.18
8.084711047774626
% es.Ex (V/m) @ t=0.18
10.119909948905587
% es.Ey (V/m) @ t=0.18
-1.5506704761503176
% es.Ez (V/m) @ t=0.18
8.084711047774633
% es.tEx (V/m) @ t=0.18
10.119909948905642
% es.tEy (V/m) @ t=0.18
0
% es.tEz (V/m) @ t=0.18
8.084711047774626
% V (V) @ t=0.18
0.01078528949205593
% es.normE (V/m) @ t=0.2
13.18079845581321
% es.EX (V/m) @ t=0.2
10.213590723857187
% es.EY (V/m) @ t=0.2
-1.5650254910116868
% es.EZ (V/m) @ t=0.2
8.159552683122147
% es.tEX (V/m) @ t=0.2
10.213590723857253
% es.tEY (V/m) @ t=0.2
0
% es.tEZ (V/m) @ t=0.2
8.15955268312215
% es.Ex (V/m) @ t=0.2
10.213590723857187
% es.Ey (V/m) @ t=0.2
-1.5650254910116868
% es.Ez (V/m) @ t=0.2
8.159552683122147
% es.tEx (V/m) @ t=0.2
10.213590723857253
% es.tEy (V/m) @ t=0.2
0
% es.tEz (V/m) @ t=0.2
8.15955268312215
% V (V) @ t=0.2
0.010885128197423552
% es.normE (V/m) @ t=0.22
13.301695501167737
% es.EX (V/m) @ t=0.22
10.307271498808783
% es.EY (V/m) @ t=0.22
-1.579380505873047
% es.EZ (V/m) @ t=0.22
8.234394318469667
% es.tEX (V/m) @ t=0.22
10.307271498808834
% es.tEY (V/m) @ t=0.22
0
% es.tEZ (V/m) @ t=0.22
8.234394318469661
% es.Ex (V/m) @ t=0.22
10.307271498808783
% es.Ey (V/m) @ t=0.22
-1.579380505873047
% es.Ez (V/m) @ t=0.22
8.234394318469667
% es.tEx (V/m) @ t=0.22
10.307271498808834
% es.tEy (V/m) @ t=0.22
0
% es.tEz (V/m) @ t=0.22
8.234394318469661
% V (V) @ t=0.22
0.010984966902791174
% es.normE (V/m) @ t=0.24
13.422592546522278
% es.EX (V/m) @ t=0.24
10.400952273760321
% es.EY (V/m) @ t=0.24
-1.5937355207344144
% es.EZ (V/m) @ t=0.24
8.309235953817192
% es.tEX (V/m) @ t=0.24
10.400952273760389
% es.tEY (V/m) @ t=0.24
0
% es.tEZ (V/m) @ t=0.24
8.30923595381718
% es.Ex (V/m) @ t=0.24
10.400952273760321
% es.Ey (V/m) @ t=0.24
-1.5937355207344144
% es.Ez (V/m) @ t=0.24
8.309235953817192
% es.tEx (V/m) @ t=0.24
10.400952273760389
% es.tEy (V/m) @ t=0.24
0
% es.tEz (V/m) @ t=0.24
8.30923595381718
% V (V) @ t=0.24
0.011084805608158796
% es.normE (V/m) @ t=0.26
13.54561719047856
% es.EX (V/m) @ t=0.26
10.496281329727204
% es.EY (V/m) @ t=0.26
-1.6083433920018528
% es.EZ (V/m) @ t=0.26
8.385395113658806
% es.tEX (V/m) @ t=0.26
10.496281329727251
% es.tEY (V/m) @ t=0.26
0
% es.tEZ (V/m) @ t=0.26
8.385395113658808
% es.Ex (V/m) @ t=0.26
10.496281329727204
% es.Ey (V/m) @ t=0.26
-1.6083433920018528
% es.Ez (V/m) @ t=0.26
8.385395113658806
% es.tEx (V/m) @ t=0.26
10.496281329727251
% es.tEy (V/m) @ t=0.26
0
% es.tEz (V/m) @ t=0.26
8.385395113658808
% V (V) @ t=0.26
0.011186399658842277
% es.normE (V/m) @ t=0.28
13.679395537077095
% es.EX (V/m) @ t=0.28
10.599941432675145
% es.EY (V/m) @ t=0.28
-1.6242292969169512
% es.EZ (V/m) @ t=0.28
8.468213549653822
% es.tEX (V/m) @ t=0.28
10.59994143267518
% es.tEY (V/m) @ t=0.28
0
% es.tEZ (V/m) @ t=0.28
8.468213549653818
% es.Ex (V/m) @ t=0.28
10.599941432675145
% es.Ey (V/m) @ t=0.28
-1.6242292969169512
% es.Ez (V/m) @ t=0.28
8.468213549653822
% es.tEx (V/m) @ t=0.28
10.59994143267518
% es.tEy (V/m) @ t=0.28
0
% es.tEz (V/m) @ t=0.28
8.468213549653818
% V (V) @ t=0.28
0.011296865900710744
% es.normE (V/m) @ t=0.3
13.813173883677571
% es.EX (V/m) @ t=0.3
10.70360153562303
% es.EY (V/m) @ t=0.3
-1.6401152018319944
% es.EZ (V/m) @ t=0.3
8.551031985648825
% es.tEX (V/m) @ t=0.3
10.703601535623054
% es.tEY (V/m) @ t=0.3
0
% es.tEZ (V/m) @ t=0.3
8.551031985648828
% es.Ex (V/m) @ t=0.3
10.70360153562303
% es.Ey (V/m) @ t=0.3
-1.6401152018319944
% es.Ez (V/m) @ t=0.3
8.551031985648825
% es.tEx (V/m) @ t=0.3
10.703601535623054
% es.tEy (V/m) @ t=0.3
0
% es.tEz (V/m) @ t=0.3
8.551031985648828
% V (V) @ t=0.3
0.011407332142579212
% es.normE (V/m) @ t=0.32
13.946952230280099
% es.EX (V/m) @ t=0.32
10.807261638571058
% es.EY (V/m) @ t=0.32
-1.6560011067470946
% es.EZ (V/m) @ t=0.32
8.633850421643814
% es.tEX (V/m) @ t=0.32
10.807261638571095
% es.tEY (V/m) @ t=0.32
0
% es.tEZ (V/m) @ t=0.32
8.633850421643803
% es.Ex (V/m) @ t=0.32
10.807261638571058
% es.Ey (V/m) @ t=0.32
-1.6560011067470946
% es.Ez (V/m) @ t=0.32
8.633850421643814
% es.tEx (V/m) @ t=0.32
10.807261638571095
% es.tEy (V/m) @ t=0.32
0
% es.tEz (V/m) @ t=0.32
8.633850421643803
% V (V) @ t=0.32
0.011517798384447681
% es.normE (V/m) @ t=0.34
14.08073057688446
% es.EX (V/m) @ t=0.34
10.910921741519044
% es.EY (V/m) @ t=0.34
-1.671887011662049
% es.EZ (V/m) @ t=0.34
8.716668857638798
% es.tEX (V/m) @ t=0.34
10.910921741519054
% es.tEY (V/m) @ t=0.34
0
% es.tEZ (V/m) @ t=0.34
8.716668857638798
% es.Ex (V/m) @ t=0.34
10.910921741519044
% es.Ey (V/m) @ t=0.34
-1.671887011662049
% es.Ez (V/m) @ t=0.34
8.716668857638798
% es.tEx (V/m) @ t=0.34
10.910921741519054
% es.tEy (V/m) @ t=0.34
0
% es.tEz (V/m) @ t=0.34
8.716668857638798
% V (V) @ t=0.34
0.011628264626316153
% es.normE (V/m) @ t=0.36
14.214508923490648
% es.EX (V/m) @ t=0.36
11.01458184446697
% es.EY (V/m) @ t=0.36
-1.6877729165771775
% es.EZ (V/m) @ t=0.36
8.799487293633813
% es.tEX (V/m) @ t=0.36
11.014581844466983
% es.tEY (V/m) @ t=0.36
0
% es.tEZ (V/m) @ t=0.36
8.79948729363381
% es.Ex (V/m) @ t=0.36
11.01458184446697
% es.Ey (V/m) @ t=0.36
-1.6877729165771775
% es.Ez (V/m) @ t=0.36
8.799487293633813
% es.tEx (V/m) @ t=0.36
11.014581844466983
% es.tEy (V/m) @ t=0.36
0
% es.tEz (V/m) @ t=0.36
8.79948729363381
% V (V) @ t=0.36
0.011738730868184619
% es.normE (V/m) @ t=0.38
14.348287270098627
% es.EX (V/m) @ t=0.38
11.118241947414942
% es.EY (V/m) @ t=0.38
-1.7036588214922297
% es.EZ (V/m) @ t=0.38
8.88230572962881
% es.tEX (V/m) @ t=0.38
11.118241947414969
% es.tEY (V/m) @ t=0.38
0
% es.tEZ (V/m) @ t=0.38
8.882305729628804
% es.Ex (V/m) @ t=0.38
11.118241947414942
% es.Ey (V/m) @ t=0.38
-1.7036588214922297
% es.Ez (V/m) @ t=0.38
8.88230572962881
% es.tEx (V/m) @ t=0.38
11.118241947414969
% es.tEy (V/m) @ t=0.38
0
% es.tEz (V/m) @ t=0.38
8.882305729628804
% V (V) @ t=0.38
0.01184919711005309
% es.normE (V/m) @ t=0.4
14.482065616708285
% es.EX (V/m) @ t=0.4
11.221902050362848
% es.EY (V/m) @ t=0.4
-1.7195447264073245
% es.EZ (V/m) @ t=0.4
8.965124165623788
% es.tEX (V/m) @ t=0.4
11.221902050362926
% es.tEY (V/m) @ t=0.4
0
% es.tEZ (V/m) @ t=0.4
8.96512416562378
% es.Ex (V/m) @ t=0.4
11.221902050362848
% es.Ey (V/m) @ t=0.4
-1.7195447264073245
% es.Ez (V/m) @ t=0.4
8.965124165623788
% es.tEx (V/m) @ t=0.4
11.221902050362926
% es.tEy (V/m) @ t=0.4
0
% es.tEz (V/m) @ t=0.4
8.96512416562378
% V (V) @ t=0.4
0.011959663351921558
% es.normE (V/m) @ t=0.42
14.615843963319698
% es.EX (V/m) @ t=0.42
11.325562153310841
% es.EY (V/m) @ t=0.42
-1.7354306313223642
% es.EZ (V/m) @ t=0.42
9.047942601618786
% es.tEX (V/m) @ t=0.42
11.325562153310855
% es.tEY (V/m) @ t=0.42
0
% es.tEZ (V/m) @ t=0.42
9.047942601618768
% es.Ex (V/m) @ t=0.42
11.325562153310841
% es.Ey (V/m) @ t=0.42
-1.7354306313223642
% es.Ez (V/m) @ t=0.42
9.047942601618786
% es.tEx (V/m) @ t=0.42
11.325562153310855
% es.tEy (V/m) @ t=0.42
0
% es.tEz (V/m) @ t=0.42
9.047942601618768
% V (V) @ t=0.42
0.012070129593790026
% es.normE (V/m) @ t=0.44
14.749622309932718
% es.EX (V/m) @ t=0.44
11.42922225625879
% es.EY (V/m) @ t=0.44
-1.75131653623742
% es.EZ (V/m) @ t=0.44
9.130761037613784
% es.tEX (V/m) @ t=0.44
11.429222256258841
% es.tEY (V/m) @ t=0.44
0
% es.tEZ (V/m) @ t=0.44
9.130761037613771
% es.Ex (V/m) @ t=0.44
11.42922225625879
% es.Ey (V/m) @ t=0.44
-1.75131653623742
% es.Ez (V/m) @ t=0.44
9.130761037613784
% es.tEx (V/m) @ t=0.44
11.429222256258841
% es.tEy (V/m) @ t=0.44
0
% es.tEz (V/m) @ t=0.44
9.130761037613771
% V (V) @ t=0.44
0.012180595835658498
% es.normE (V/m) @ t=0.46
14.883400656547334
% es.EX (V/m) @ t=0.46
11.53288235920674
% es.EY (V/m) @ t=0.46
-1.767202441152497
% es.EZ (V/m) @ t=0.46
9.213579473608783
% es.tEX (V/m) @ t=0.46
11.53288235920677
% es.tEY (V/m) @ t=0.46
0
% es.tEZ (V/m) @ t=0.46
9.21357947360876
% es.Ex (V/m) @ t=0.46
11.53288235920674
% es.Ey (V/m) @ t=0.46
-1.767202441152497
% es.Ez (V/m) @ t=0.46
9.213579473608783
% es.tEx (V/m) @ t=0.46
11.53288235920677
% es.tEy (V/m) @ t=0.46
0
% es.tEz (V/m) @ t=0.46
9.21357947360876
% V (V) @ t=0.46
0.01229106207752697
% es.normE (V/m) @ t=0.48
15.017179003163491
% es.EX (V/m) @ t=0.48
11.636542462154676
% es.EY (V/m) @ t=0.48
-1.7830883460675704
% es.EZ (V/m) @ t=0.48
9.296397909603781
% es.tEX (V/m) @ t=0.48
11.63654246215467
% es.tEY (V/m) @ t=0.48
0
% es.tEZ (V/m) @ t=0.48
9.296397909603778
% es.Ex (V/m) @ t=0.48
11.636542462154676
% es.Ey (V/m) @ t=0.48
-1.7830883460675704
% es.Ez (V/m) @ t=0.48
9.296397909603781
% es.tEx (V/m) @ t=0.48
11.63654246215467
% es.tEy (V/m) @ t=0.48
0
% es.tEz (V/m) @ t=0.48
9.296397909603778
% V (V) @ t=0.48
0.012401528319395436
% es.normE (V/m) @ t=0.5
15.150957349781184
% es.EX (V/m) @ t=0.5
11.74020256510266
% es.EY (V/m) @ t=0.5
-1.7989742509826279
% es.EZ (V/m) @ t=0.5
9.379216345598758
% es.tEX (V/m) @ t=0.5
11.740202565102685
% es.tEY (V/m) @ t=0.5
0
% es.tEZ (V/m) @ t=0.5
9.379216345598765
% es.Ex (V/m) @ t=0.5
11.74020256510266
% es.Ey (V/m) @ t=0.5
-1.7989742509826279
% es.Ez (V/m) @ t=0.5
9.379216345598758
% es.tEx (V/m) @ t=0.5
11.740202565102685
% es.tEy (V/m) @ t=0.5
0
% es.tEz (V/m) @ t=0.5
9.379216345598765
% V (V) @ t=0.5
0.012511994561263905
% es.normE (V/m) @ t=0.52
15.289635510446312
% es.EX (V/m) @ t=0.52
11.84766296346913
% es.EY (V/m) @ t=0.52
-1.81543965206731
% es.EZ (V/m) @ t=0.52
9.465063751452686
% es.tEX (V/m) @ t=0.52
11.84766296346914
% es.tEY (V/m) @ t=0.52
0
% es.tEZ (V/m) @ t=0.52
9.465063751452679
% es.Ex (V/m) @ t=0.52
11.84766296346913
% es.Ey (V/m) @ t=0.52
-1.81543965206731
% es.Ez (V/m) @ t=0.52
9.465063751452686
% es.tEx (V/m) @ t=0.52
11.84766296346914
% es.tEy (V/m) @ t=0.52
0
% es.tEz (V/m) @ t=0.52
9.465063751452679
% V (V) @ t=0.52
0.012626523714355334
% es.normE (V/m) @ t=0.54
15.437970511740303
% es.EX (V/m) @ t=0.54
11.96261320671702
% es.EY (V/m) @ t=0.54
-1.8330471581573686
% es.EZ (V/m) @ t=0.54
9.55688082858094
% es.tEX (V/m) @ t=0.54
11.962613206717075
% es.tEY (V/m) @ t=0.54
0
% es.tEZ (V/m) @ t=0.54
9.556880828580933
% es.Ex (V/m) @ t=0.54
11.96261320671702
% es.Ey (V/m) @ t=0.54
-1.8330471581573686
% es.Ez (V/m) @ t=0.54
9.55688082858094
% es.tEx (V/m) @ t=0.54
11.962613206717075
% es.tEy (V/m) @ t=0.54
0
% es.tEz (V/m) @ t=0.54
9.556880828580933
% V (V) @ t=0.54
0.012749060290943071
% es.normE (V/m) @ t=0.56
15.586305513051748
% es.EX (V/m) @ t=0.56
12.077563449964932
% es.EY (V/m) @ t=0.56
-1.8506546642474824
% es.EZ (V/m) @ t=0.56
9.648697905709186
% es.tEX (V/m) @ t=0.56
12.077563449964952
% es.tEY (V/m) @ t=0.56
0
% es.tEZ (V/m) @ t=0.56
9.648697905709186
% es.Ex (V/m) @ t=0.56
12.077563449964932
% es.Ey (V/m) @ t=0.56
-1.8506546642474824
% es.Ez (V/m) @ t=0.56
9.648697905709186
% es.tEx (V/m) @ t=0.56
12.077563449964952
% es.tEy (V/m) @ t=0.56
0
% es.tEz (V/m) @ t=0.56
9.648697905709186
% V (V) @ t=0.56
0.012871596867530808
% es.normE (V/m) @ t=0.58
15.734640514380153
% es.EX (V/m) @ t=0.58
12.192513693212888
% es.EY (V/m) @ t=0.58
-1.8682621703376103
% es.EZ (V/m) @ t=0.58
9.74051498283741
% es.tEX (V/m) @ t=0.58
12.192513693212973
% es.tEY (V/m) @ t=0.58
0
% es.tEZ (V/m) @ t=0.58
9.740514982837396
% es.Ex (V/m) @ t=0.58
12.192513693212888
% es.Ey (V/m) @ t=0.58
-1.8682621703376103
% es.Ez (V/m) @ t=0.58
9.74051498283741
% es.tEx (V/m) @ t=0.58
12.192513693212973
% es.tEy (V/m) @ t=0.58
0
% es.tEz (V/m) @ t=0.58
9.740514982837396
% V (V) @ t=0.58
0.012994133444118545
% es.normE (V/m) @ t=0.6
15.882975515724967
% es.EX (V/m) @ t=0.6
12.307463936460756
% es.EY (V/m) @ t=0.6
-1.8858696764276885
% es.EZ (V/m) @ t=0.6
9.832332059965665
% es.tEX (V/m) @ t=0.6
12.307463936460824
% es.tEY (V/m) @ t=0.6
0
% es.tEZ (V/m) @ t=0.6
9.832332059965651
% es.Ex (V/m) @ t=0.6
12.307463936460756
% es.Ey (V/m) @ t=0.6
-1.8858696764276885
% es.Ez (V/m) @ t=0.6
9.832332059965665
% es.tEx (V/m) @ t=0.6
12.307463936460824
% es.tEy (V/m) @ t=0.6
0
% es.tEz (V/m) @ t=0.6
9.832332059965651
% V (V) @ t=0.6
0.013116670020706284
% es.normE (V/m) @ t=0.62
16.03131051708584
% es.EX (V/m) @ t=0.62
12.4224141797087
% es.EY (V/m) @ t=0.62
-1.9034771825178147
% es.EZ (V/m) @ t=0.62
9.924149137093906
% es.tEX (V/m) @ t=0.62
12.422414179708731
% es.tEY (V/m) @ t=0.62
0
% es.tEZ (V/m) @ t=0.62
9.924149137093888
% es.Ex (V/m) @ t=0.62
12.4224141797087
% es.Ey (V/m) @ t=0.62
-1.9034771825178147
% es.Ez (V/m) @ t=0.62
9.924149137093906
% es.tEx (V/m) @ t=0.62
12.422414179708731
% es.tEy (V/m) @ t=0.62
0
% es.tEz (V/m) @ t=0.62
9.924149137093888
% V (V) @ t=0.62
0.013239206597294021
% es.normE (V/m) @ t=0.64
16.17964551846222
% es.EX (V/m) @ t=0.64
12.537364422956596
% es.EY (V/m) @ t=0.64
-1.921084688607884
% es.EZ (V/m) @ t=0.64
10.015966214222118
% es.tEX (V/m) @ t=0.64
12.537364422956665
% es.tEY (V/m) @ t=0.64
0
% es.tEZ (V/m) @ t=0.64
10.015966214222114
% es.Ex (V/m) @ t=0.64
12.537364422956596
% es.Ey (V/m) @ t=0.64
-1.921084688607884
% es.Ez (V/m) @ t=0.64
10.015966214222118
% es.tEx (V/m) @ t=0.64
12.537364422956665
% es.tEy (V/m) @ t=0.64
0
% es.tEz (V/m) @ t=0.64
10.015966214222114
% V (V) @ t=0.64
0.013361743173881759
% es.normE (V/m) @ t=0.66
16.327980519853796
% es.EX (V/m) @ t=0.66
12.652314666204523
% es.EY (V/m) @ t=0.66
-1.938692194697989
% es.EZ (V/m) @ t=0.66
10.107783291350371
% es.tEX (V/m) @ t=0.66
12.652314666204571
% es.tEY (V/m) @ t=0.66
0
% es.tEZ (V/m) @ t=0.66
10.107783291350367
% es.Ex (V/m) @ t=0.66
12.652314666204523
% es.Ey (V/m) @ t=0.66
-1.938692194697989
% es.Ez (V/m) @ t=0.66
10.107783291350371
% es.tEx (V/m) @ t=0.66
12.652314666204571
% es.tEy (V/m) @ t=0.66
0
% es.tEz (V/m) @ t=0.66
10.107783291350367
% V (V) @ t=0.66
0.013484279750469494
% es.normE (V/m) @ t=0.68
16.476315521260116
% es.EX (V/m) @ t=0.68
12.767264909452471
% es.EY (V/m) @ t=0.68
-1.9562997007881346
% es.EZ (V/m) @ t=0.68
10.19960036847861
% es.tEX (V/m) @ t=0.68
12.767264909452479
% es.tEY (V/m) @ t=0.68
0
% es.tEZ (V/m) @ t=0.68
10.19960036847859
% es.Ex (V/m) @ t=0.68
12.767264909452471
% es.Ey (V/m) @ t=0.68
-1.9562997007881346
% es.Ez (V/m) @ t=0.68
10.19960036847861
% es.tEx (V/m) @ t=0.68
12.767264909452479
% es.tEy (V/m) @ t=0.68
0
% es.tEz (V/m) @ t=0.68
10.19960036847859
% V (V) @ t=0.68
0.013606816327057233
% es.normE (V/m) @ t=0.7
16.62465052268072
% es.EX (V/m) @ t=0.7
12.88221515270039
% es.EY (V/m) @ t=0.7
-1.9739072068781987
% es.EZ (V/m) @ t=0.7
10.291417445606815
% es.tEX (V/m) @ t=0.7
12.882215152700443
% es.tEY (V/m) @ t=0.7
0
% es.tEZ (V/m) @ t=0.7
10.291417445606816
% es.Ex (V/m) @ t=0.7
12.88221515270039
% es.Ey (V/m) @ t=0.7
-1.9739072068781987
% es.Ez (V/m) @ t=0.7
10.291417445606815
% es.tEx (V/m) @ t=0.7
12.882215152700443
% es.tEy (V/m) @ t=0.7
0
% es.tEz (V/m) @ t=0.7
10.291417445606816
% V (V) @ t=0.7
0.013729352903644972
% es.normE (V/m) @ t=0.72
16.772985524115366
% es.EX (V/m) @ t=0.72
12.997165395948352
% es.EY (V/m) @ t=0.72
-1.9915147129682307
% es.EZ (V/m) @ t=0.72
10.383234522735098
% es.tEX (V/m) @ t=0.72
12.997165395948377
% es.tEY (V/m) @ t=0.72
0
% es.tEZ (V/m) @ t=0.72
10.383234522735085
% es.Ex (V/m) @ t=0.72
12.997165395948352
% es.Ey (V/m) @ t=0.72
-1.9915147129682307
% es.Ez (V/m) @ t=0.72
10.383234522735098
% es.tEx (V/m) @ t=0.72
12.997165395948377
% es.tEy (V/m) @ t=0.72
0
% es.tEz (V/m) @ t=0.72
10.383234522735085
% V (V) @ t=0.72
0.013851889480232709
% es.normE (V/m) @ t=0.74
16.921320525563527
% es.EX (V/m) @ t=0.74
13.112115639196237
% es.EY (V/m) @ t=0.74
-2.0091222190584475
% es.EZ (V/m) @ t=0.74
10.475051599863331
% es.tEX (V/m) @ t=0.74
13.112115639196228
% es.tEY (V/m) @ t=0.74
0
% es.tEZ (V/m) @ t=0.74
10.475051599863324
% es.Ex (V/m) @ t=0.74
13.112115639196237
% es.Ey (V/m) @ t=0.74
-2.0091222190584475
% es.Ez (V/m) @ t=0.74
10.475051599863331
% es.tEx (V/m) @ t=0.74
13.112115639196228
% es.tEy (V/m) @ t=0.74
0
% es.tEz (V/m) @ t=0.74
10.475051599863324
% V (V) @ t=0.74
0.013974426056820446
% es.normE (V/m) @ t=0.76
17.069655527024977
% es.EX (V/m) @ t=0.76
13.227065882444206
% es.EY (V/m) @ t=0.76
-2.026729725148524
% es.EZ (V/m) @ t=0.76
10.566868676991563
% es.tEX (V/m) @ t=0.76
13.22706588244422
% es.tEY (V/m) @ t=0.76
0
% es.tEZ (V/m) @ t=0.76
10.566868676991561
% es.Ex (V/m) @ t=0.76
13.227065882444206
% es.Ey (V/m) @ t=0.76
-2.026729725148524
% es.Ez (V/m) @ t=0.76
10.566868676991563
% es.tEx (V/m) @ t=0.76
13.22706588244422
% es.tEy (V/m) @ t=0.76
0
% es.tEz (V/m) @ t=0.76
10.566868676991561
% V (V) @ t=0.76
0.014096962633408183
% es.normE (V/m) @ t=0.78
17.226244490082713
% es.EX (V/m) @ t=0.78
13.348402769465856
% es.EY (V/m) @ t=0.78
-2.0453232703631983
% es.EZ (V/m) @ t=0.78
10.663806534348453
% es.tEX (V/m) @ t=0.78
13.348402769465906
% es.tEY (V/m) @ t=0.78
0
% es.tEZ (V/m) @ t=0.78
10.663806534348433
% es.Ex (V/m) @ t=0.78
13.348402769465856
% es.Ey (V/m) @ t=0.78
-2.0453232703631983
% es.Ez (V/m) @ t=0.78
10.663806534348453
% es.tEx (V/m) @ t=0.78
13.348402769465906
% es.tEy (V/m) @ t=0.78
0
% es.tEz (V/m) @ t=0.78
10.663806534348433
% V (V) @ t=0.78
0.014226272206820238
% es.normE (V/m) @ t=0.8
17.390826279567246
% es.EX (V/m) @ t=0.8
13.475924242453912
% es.EY (V/m) @ t=0.8
-2.0648716588332547
% es.EZ (V/m) @ t=0.8
10.765703162956765
% es.tEX (V/m) @ t=0.8
13.475924242453967
% es.tEY (V/m) @ t=0.8
0
% es.tEZ (V/m) @ t=0.8
10.76570316295676
% es.Ex (V/m) @ t=0.8
13.475924242453912
% es.Ey (V/m) @ t=0.8
-2.0648716588332547
% es.Ez (V/m) @ t=0.8
10.765703162956765
% es.tEx (V/m) @ t=0.8
13.475924242453967
% es.tEy (V/m) @ t=0.8
0
% es.tEz (V/m) @ t=0.8
10.76570316295676
% V (V) @ t=0.8
0.014362140495982442
% es.normE (V/m) @ t=0.82
17.555408069079842
% es.EX (V/m) @ t=0.82
13.603445715442145
% es.EY (V/m) @ t=0.82
-2.0844200473033183
% es.EZ (V/m) @ t=0.82
10.867599791565093
% es.tEX (V/m) @ t=0.82
13.603445715442199
% es.tEY (V/m) @ t=0.82
0
% es.tEZ (V/m) @ t=0.82
10.867599791565112
% es.Ex (V/m) @ t=0.82
13.603445715442145
% es.Ey (V/m) @ t=0.82
-2.0844200473033183
% es.Ez (V/m) @ t=0.82
10.867599791565093
% es.tEx (V/m) @ t=0.82
13.603445715442199
% es.tEy (V/m) @ t=0.82
0
% es.tEz (V/m) @ t=0.82
10.867599791565112
% V (V) @ t=0.82
0.01449800878514464
% es.normE (V/m) @ t=0.84
17.719989858619492
% es.EX (V/m) @ t=0.84
13.730967188430265
% es.EY (V/m) @ t=0.84
-2.1039684357734068
% es.EZ (V/m) @ t=0.84
10.969496420173414
% es.tEX (V/m) @ t=0.84
13.730967188430288
% es.tEY (V/m) @ t=0.84
0
% es.tEZ (V/m) @ t=0.84
10.969496420173439
% es.Ex (V/m) @ t=0.84
13.730967188430265
% es.Ey (V/m) @ t=0.84
-2.1039684357734068
% es.Ez (V/m) @ t=0.84
10.969496420173414
% es.tEx (V/m) @ t=0.84
13.730967188430288
% es.tEy (V/m) @ t=0.84
0
% es.tEz (V/m) @ t=0.84
10.969496420173439
% V (V) @ t=0.84
0.014633877074306838
% es.normE (V/m) @ t=0.86
17.884571648185503
% es.EX (V/m) @ t=0.86
13.858488661418342
% es.EY (V/m) @ t=0.86
-2.123516824243456
% es.EZ (V/m) @ t=0.86
11.071393048781749
% es.tEX (V/m) @ t=0.86
13.858488661418406
% es.tEY (V/m) @ t=0.86
0
% es.tEZ (V/m) @ t=0.86
11.07139304878175
% es.Ex (V/m) @ t=0.86
13.858488661418342
% es.Ey (V/m) @ t=0.86
-2.123516824243456
% es.Ez (V/m) @ t=0.86
11.071393048781749
% es.tEx (V/m) @ t=0.86
13.858488661418406
% es.tEy (V/m) @ t=0.86
0
% es.tEz (V/m) @ t=0.86
11.07139304878175
% V (V) @ t=0.86
0.014769745363469046
% es.normE (V/m) @ t=0.88
18.049153437777264
% es.EX (V/m) @ t=0.88
13.986010134406518
% es.EY (V/m) @ t=0.88
-2.143065212713527
% es.EZ (V/m) @ t=0.88
11.173289677390091
% es.tEX (V/m) @ t=0.88
13.986010134406582
% es.tEY (V/m) @ t=0.88
0
% es.tEZ (V/m) @ t=0.88
11.173289677390075
% es.Ex (V/m) @ t=0.88
13.986010134406518
% es.Ey (V/m) @ t=0.88
-2.143065212713527
% es.Ez (V/m) @ t=0.88
11.173289677390091
% es.tEx (V/m) @ t=0.88
13.986010134406582
% es.tEy (V/m) @ t=0.88
0
% es.tEz (V/m) @ t=0.88
11.173289677390075
% V (V) @ t=0.88
0.014905613652631244
% es.normE (V/m) @ t=0.9
18.21373522739394
% es.EX (V/m) @ t=0.9
14.113531607394638
% es.EY (V/m) @ t=0.9
-2.162613601183601
% es.EZ (V/m) @ t=0.9
11.275186305998396
% es.tEX (V/m) @ t=0.9
14.113531607394673
% es.tEY (V/m) @ t=0.9
0
% es.tEZ (V/m) @ t=0.9
11.275186305998387
% es.Ex (V/m) @ t=0.9
14.113531607394638
% es.Ey (V/m) @ t=0.9
-2.162613601183601
% es.Ez (V/m) @ t=0.9
11.275186305998396
% es.tEx (V/m) @ t=0.9
14.113531607394673
% es.tEy (V/m) @ t=0.9
0
% es.tEz (V/m) @ t=0.9
11.275186305998387
% V (V) @ t=0.9
0.015041481941793448
% es.normE (V/m) @ t=0.92
18.37831701703495
% es.EX (V/m) @ t=0.92
14.241053080382773
% es.EY (V/m) @ t=0.92
-2.1821619896536433
% es.EZ (V/m) @ t=0.92
11.377082934606753
% es.tEX (V/m) @ t=0.92
14.241053080382848
% es.tEY (V/m) @ t=0.92
0
% es.tEZ (V/m) @ t=0.92
11.377082934606728
% es.Ex (V/m) @ t=0.92
14.241053080382773
% es.Ey (V/m) @ t=0.92
-2.1821619896536433
% es.Ez (V/m) @ t=0.92
11.377082934606753
% es.tEx (V/m) @ t=0.92
14.241053080382848
% es.tEy (V/m) @ t=0.92
0
% es.tEz (V/m) @ t=0.92
11.377082934606728
% V (V) @ t=0.92
0.01517735023095565
% es.normE (V/m) @ t=0.94
18.54289880669959
% es.EX (V/m) @ t=0.94
14.368574553370893
% es.EY (V/m) @ t=0.94
-2.2017103781237104
% es.EZ (V/m) @ t=0.94
11.47897956321508
% es.tEX (V/m) @ t=0.94
14.368574553370937
% es.tEY (V/m) @ t=0.94
0
% es.tEZ (V/m) @ t=0.94
11.47897956321508
% es.Ex (V/m) @ t=0.94
14.368574553370893
% es.Ey (V/m) @ t=0.94
-2.2017103781237104
% es.Ez (V/m) @ t=0.94
11.47897956321508
% es.tEx (V/m) @ t=0.94
14.368574553370937
% es.tEy (V/m) @ t=0.94
0
% es.tEz (V/m) @ t=0.94
11.47897956321508
% V (V) @ t=0.94
0.015313218520117852
% es.normE (V/m) @ t=0.96
18.70748059638722
% es.EX (V/m) @ t=0.96
14.49609602635897
% es.EY (V/m) @ t=0.96
-2.2212587665938557
% es.EZ (V/m) @ t=0.96
11.580876191823387
% es.tEX (V/m) @ t=0.96
14.496096026359027
% es.tEY (V/m) @ t=0.96
0
% es.tEZ (V/m) @ t=0.96
11.580876191823378
% es.Ex (V/m) @ t=0.96
14.49609602635897
% es.Ey (V/m) @ t=0.96
-2.2212587665938557
% es.Ez (V/m) @ t=0.96
11.580876191823387
% es.tEx (V/m) @ t=0.96
14.496096026359027
% es.tEy (V/m) @ t=0.96
0
% es.tEz (V/m) @ t=0.96
11.580876191823378
% V (V) @ t=0.96
0.015449086809280052
% es.normE (V/m) @ t=0.98
18.872062386097397
% es.EX (V/m) @ t=0.98
14.623617499347175
% es.EY (V/m) @ t=0.98
-2.240807155063848
% es.EZ (V/m) @ t=0.98
11.682772820431744
% es.tEX (V/m) @ t=0.98
14.623617499347201
% es.tEY (V/m) @ t=0.98
0
% es.tEZ (V/m) @ t=0.98
11.682772820431747
% es.Ex (V/m) @ t=0.98
14.623617499347175
% es.Ey (V/m) @ t=0.98
-2.240807155063848
% es.Ez (V/m) @ t=0.98
11.682772820431744
% es.tEx (V/m) @ t=0.98
14.623617499347201
% es.tEy (V/m) @ t=0.98
0
% es.tEz (V/m) @ t=0.98
11.682772820431747
% V (V) @ t=0.98
0.015584955098442254
% es.normE (V/m) @ t=1
19.036644175829295
% es.EX (V/m) @ t=1
14.751138972335252
% es.EY (V/m) @ t=1
-2.260355543533887
% es.EZ (V/m) @ t=1
11.784669449040049
% es.tEX (V/m) @ t=1
14.751138972335319
% es.tEY (V/m) @ t=1
0
% es.tEZ (V/m) @ t=1
11.78466944904003
% es.Ex (V/m) @ t=1
14.751138972335252
% es.Ey (V/m) @ t=1
-2.260355543533887
% es.Ez (V/m) @ t=1
11.784669449040049
% es.tEx (V/m) @ t=1
14.751138972335319
% es.tEy (V/m) @ t=1
0
% es.tEz (V/m) @ t=1
11.78466944904003
% V (V) @ t=1
0.015720823387604457
% es.normE (V/m) @ t=1.02
19.201225965582584
% es.EX (V/m) @ t=1.02
14.878660445323442
% es.EY (V/m) @ t=1.02
-2.2799039320039753
% es.EZ (V/m) @ t=1.02
11.886566077648377
% es.tEX (V/m) @ t=1.02
14.878660445323494
% es.tEY (V/m) @ t=1.02
0
% es.tEZ (V/m) @ t=1.02
11.886566077648368
% es.Ex (V/m) @ t=1.02
14.878660445323442
% es.Ey (V/m) @ t=1.02
-2.2799039320039753
% es.Ez (V/m) @ t=1.02
11.886566077648377
% es.tEx (V/m) @ t=1.02
14.878660445323494
% es.tEy (V/m) @ t=1.02
0
% es.tEz (V/m) @ t=1.02
11.886566077648368
% V (V) @ t=1.02
0.01585669167676666
% es.normE (V/m) @ t=1.04
19.371210588477453
% es.EX (V/m) @ t=1.04
15.010371746743129
% es.EY (V/m) @ t=1.04
-2.300091705462023
% es.EZ (V/m) @ t=1.04
11.991803370242216
% es.tEX (V/m) @ t=1.04
15.010371746743171
% es.tEY (V/m) @ t=1.04
0
% es.tEZ (V/m) @ t=1.04
11.991803370242192
% es.Ex (V/m) @ t=1.04
15.010371746743129
% es.Ey (V/m) @ t=1.04
-2.300091705462023
% es.Ez (V/m) @ t=1.04
11.991803370242216
% es.tEx (V/m) @ t=1.04
15.010371746743171
% es.tEy (V/m) @ t=1.04
0
% es.tEz (V/m) @ t=1.04
11.991803370242192
% V (V) @ t=1.04
0.015997037144902176
% es.normE (V/m) @ t=1.06