% Model:              1 neuron.mph
% Version:            COMSOL 6.1.0.252
% Date:               Mar 22 2023, 19:14
% Dimension:          0
% Nodes:              14017
% Expressions:        14017
% Description:        Electric field norm, Electric field, X component, Electric field, Y component, Electric field, Z component, Tangential electric field, X component, Tangential electric field, Y component, Tangential electric field, Z component, Electric field, x component, Electric field, y component, Electric field, z component, Tangential electric field, x component, Tangential electric field, y component, Tangential electric field, z component, Electric potential
% Length unit:        mm
% x
2
% y
12.199999999999998
% z
2
% es.normE (V/m) @ t=0
1.335567840394916
% es.EX (V/m) @ t=0
-0.9561437812111981
% es.EY (V/m) @ t=0
0.364132554854403
% es.EZ (V/m) @ t=0
-0.8532116644770191
% es.tEX (V/m) @ t=0
-0.956143781211197
% es.tEY (V/m) @ t=0
0
% es.tEZ (V/m) @ t=0
-0.8532116644770174
% es.Ex (V/m) @ t=0
-0.9561437812111981
% es.Ey (V/m) @ t=0
0.364132554854403
% es.Ez (V/m) @ t=0
-0.8532116644770191
% es.tEx (V/m) @ t=0
-0.956143781211197
% es.tEy (V/m) @ t=0
0
% es.tEz (V/m) @ t=0
-0.8532116644770174
% V (V) @ t=0
0.013591824409736837
% es.normE (V/m) @ t=0.02
1.1535411387684018
% es.EX (V/m) @ t=0.02
-0.8258293984461191
% es.EY (V/m) @ t=0.02
0.31450433977836534
% es.EZ (V/m) @ t=0.02
-0.7369260664508026
% es.tEX (V/m) @ t=0.02
-0.8258293984461207
% es.tEY (V/m) @ t=0.02
0
% es.tEZ (V/m) @ t=0.02
-0.7369260664507973
% es.Ex (V/m) @ t=0.02
-0.8258293984461191
% es.Ey (V/m) @ t=0.02
0.31450433977836534
% es.Ez (V/m) @ t=0.02
-0.7369260664508026
% es.tEx (V/m) @ t=0.02
-0.8258293984461207
% es.tEy (V/m) @ t=0.02
0
% es.tEz (V/m) @ t=0.02
-0.7369260664507973
% V (V) @ t=0.02
0.011739372675638326
% es.normE (V/m) @ t=0.04
1.1641504169938528
% es.EX (V/m) @ t=0.04
-0.833424666531166
% es.EY (V/m) @ t=0.04
0.3173968787761381
% es.EZ (V/m) @ t=0.04
-0.7437036782212205
% es.tEX (V/m) @ t=0.04
-0.8334246665311604
% es.tEY (V/m) @ t=0.04
0
% es.tEZ (V/m) @ t=0.04
-0.7437036782212267
% es.Ex (V/m) @ t=0.04
-0.833424666531166
% es.Ey (V/m) @ t=0.04
0.3173968787761381
% es.Ez (V/m) @ t=0.04
-0.7437036782212205
% es.tEx (V/m) @ t=0.04
-0.8334246665311604
% es.tEy (V/m) @ t=0.04
0
% es.tEz (V/m) @ t=0.04
-0.7437036782212267
% V (V) @ t=0.04
0.011847341358348437
% es.normE (V/m) @ t=0.06
1.174836571623081
% es.EX (V/m) @ t=0.06
-0.8410749715187436
% es.EY (V/m) @ t=0.06
0.32031037604247814
% es.EZ (V/m) @ t=0.06
-0.7505304018636174
% es.tEX (V/m) @ t=0.06
-0.8410749715187453
% es.tEY (V/m) @ t=0.06
0
% es.tEZ (V/m) @ t=0.06
-0.7505304018636156
% es.Ex (V/m) @ t=0.06
-0.8410749715187436
% es.Ey (V/m) @ t=0.06
0.32031037604247814
% es.Ez (V/m) @ t=0.06
-0.7505304018636174
% es.tEx (V/m) @ t=0.06
-0.8410749715187453
% es.tEy (V/m) @ t=0.06
0
% es.tEz (V/m) @ t=0.06
-0.7505304018636156
% V (V) @ t=0.06
0.01195609244953511
% es.normE (V/m) @ t=0.08
1.1857285143353964
% es.EX (V/m) @ t=0.08
-0.848872600866498
% es.EY (V/m) @ t=0.08
0.32327998334552843
% es.EZ (V/m) @ t=0.08
-0.7574885900141668
% es.tEX (V/m) @ t=0.08
-0.8488726008664997
% es.tEY (V/m) @ t=0.08
0
% es.tEZ (V/m) @ t=0.08
-0.7574885900141677
% es.Ex (V/m) @ t=0.08
-0.848872600866498
% es.Ey (V/m) @ t=0.08
0.32327998334552843
% es.Ez (V/m) @ t=0.08
-0.7574885900141668
% es.tEx (V/m) @ t=0.08
-0.8488726008664997
% es.tEy (V/m) @ t=0.08
0
% es.tEz (V/m) @ t=0.08
-0.7574885900141677
% V (V) @ t=0.08
0.012066937687439204
% es.normE (V/m) @ t=0.1
1.1966745260345166
% es.EX (V/m) @ t=0.1
-0.8567089383783466
% es.EY (V/m) @ t=0.1
0.3262643330611912
% es.EZ (V/m) @ t=0.1
-0.7644813192938686
% es.tEX (V/m) @ t=0.1
-0.8567089383783459
% es.tEY (V/m) @ t=0.1
0
% es.tEZ (V/m) @ t=0.1
-0.7644813192938713
% es.Ex (V/m) @ t=0.1
-0.8567089383783466
% es.Ey (V/m) @ t=0.1
0.3262643330611912
% es.Ez (V/m) @ t=0.1
-0.7644813192938686
% es.tEx (V/m) @ t=0.1
-0.8567089383783459
% es.tEy (V/m) @ t=0.1
0
% es.tEz (V/m) @ t=0.1
-0.7644813192938713
% V (V) @ t=0.1
0.012178333143750032
% es.normE (V/m) @ t=0.12
1.207620537733629
% es.EX (V/m) @ t=0.12
-0.8645452758901915
% es.EY (V/m) @ t=0.12
0.3292486827768366
% es.EZ (V/m) @ t=0.12
-0.7714740485735678
% es.tEX (V/m) @ t=0.12
-0.8645452758901855
% es.tEY (V/m) @ t=0.12
0
% es.tEZ (V/m) @ t=0.12
-0.7714740485735607
% es.Ex (V/m) @ t=0.12
-0.8645452758901915
% es.Ey (V/m) @ t=0.12
0.3292486827768366
% es.Ez (V/m) @ t=0.12
-0.7714740485735678
% es.tEx (V/m) @ t=0.12
-0.8645452758901855
% es.tEy (V/m) @ t=0.12
0
% es.tEz (V/m) @ t=0.12
-0.7714740485735607
% V (V) @ t=0.12
0.012289728600060862
% es.normE (V/m) @ t=0.14
1.2188898413184805
% es.EX (V/m) @ t=0.14
-0.872613055098564
% es.EY (V/m) @ t=0.14
0.33232119579849373
% es.EZ (V/m) @ t=0.14
-0.7786733043458645
% es.tEX (V/m) @ t=0.14
-0.872613055098562
% es.tEY (V/m) @ t=0.14
0
% es.tEZ (V/m) @ t=0.14
-0.778673304345876
% es.Ex (V/m) @ t=0.14
-0.872613055098564
% es.Ey (V/m) @ t=0.14
0.33232119579849373
% es.Ez (V/m) @ t=0.14
-0.7786733043458645
% es.tEx (V/m) @ t=0.14
-0.872613055098562
% es.tEy (V/m) @ t=0.14
0
% es.tEz (V/m) @ t=0.14
-0.778673304345876
% V (V) @ t=0.14
0.012404413433595139
% es.normE (V/m) @ t=0.16
1.2303837036877137
% es.EX (V/m) @ t=0.16
-0.8808415938815599
% es.EY (V/m) @ t=0.16
0.33545494711806345
% es.EZ (V/m) @ t=0.16
-0.7860160135735876
% es.tEX (V/m) @ t=0.16
-0.8808415938815561
% es.tEY (V/m) @ t=0.16
0
% es.tEZ (V/m) @ t=0.16
-0.7860160135735832
% es.Ex (V/m) @ t=0.16
-0.8808415938815599
% es.Ey (V/m) @ t=0.16
0.33545494711806345
% es.Ez (V/m) @ t=0.16
-0.7860160135735876
% es.tEx (V/m) @ t=0.16
-0.8808415938815561
% es.tEy (V/m) @ t=0.16
0
% es.tEz (V/m) @ t=0.16
-0.7860160135735832
% V (V) @ t=0.16
0.01252138307099626
% es.normE (V/m) @ t=0.18
1.241877566056941
% es.EX (V/m) @ t=0.18
-0.8890701326645667
% es.EY (V/m) @ t=0.18
0.33858869843761896
% es.EZ (V/m) @ t=0.18
-0.7933587228012948
% es.tEX (V/m) @ t=0.18
-0.8890701326645649
% es.tEY (V/m) @ t=0.18
0
% es.tEZ (V/m) @ t=0.18
-0.7933587228013028
% es.Ex (V/m) @ t=0.18
-0.8890701326645667
% es.Ey (V/m) @ t=0.18
0.33858869843761896
% es.Ez (V/m) @ t=0.18
-0.7933587228012948
% es.tEx (V/m) @ t=0.18
-0.8890701326645649
% es.tEy (V/m) @ t=0.18
0
% es.tEz (V/m) @ t=0.18
-0.7933587228013028
% V (V) @ t=0.18
0.012638352708397377
% es.normE (V/m) @ t=0.2
1.2533714284261719
% es.EX (V/m) @ t=0.2
-0.8972986714475504
% es.EY (V/m) @ t=0.2
0.341722449757186
% es.EZ (V/m) @ t=0.2
-0.8007014320290269
% es.tEX (V/m) @ t=0.2
-0.8972986714475519
% es.tEY (V/m) @ t=0.2
0
% es.tEZ (V/m) @ t=0.2
-0.8007014320290242
% es.Ex (V/m) @ t=0.2
-0.8972986714475504
% es.Ey (V/m) @ t=0.2
0.341722449757186
% es.Ez (V/m) @ t=0.2
-0.8007014320290269
% es.tEx (V/m) @ t=0.2
-0.8972986714475519
% es.tEy (V/m) @ t=0.2
0
% es.tEz (V/m) @ t=0.2
-0.8007014320290242
% V (V) @ t=0.2
0.012755322345798497
% es.normE (V/m) @ t=0.22
1.264865290795414
% es.EX (V/m) @ t=0.22
-0.9055272102305465
% es.EY (V/m) @ t=0.22
0.3448562010767615
% es.EZ (V/m) @ t=0.22
-0.8080441412567518
% es.tEX (V/m) @ t=0.22
-0.9055272102305465
% es.tEY (V/m) @ t=0.22
0
% es.tEZ (V/m) @ t=0.22
-0.8080441412567545
% es.Ex (V/m) @ t=0.22
-0.9055272102305465
% es.Ey (V/m) @ t=0.22
0.3448562010767615
% es.Ez (V/m) @ t=0.22
-0.8080441412567518
% es.tEx (V/m) @ t=0.22
-0.9055272102305465
% es.tEy (V/m) @ t=0.22
0
% es.tEz (V/m) @ t=0.22
-0.8080441412567545
% V (V) @ t=0.22
0.012872291983199618
% es.normE (V/m) @ t=0.24
1.2763591531646545
% es.EX (V/m) @ t=0.24
-0.913755749013548
% es.EY (V/m) @ t=0.24
0.34798995239634234
% es.EZ (V/m) @ t=0.24
-0.8153868504844661
% es.tEX (V/m) @ t=0.24
-0.9137557490135517
% es.tEY (V/m) @ t=0.24
0
% es.tEZ (V/m) @ t=0.24
-0.8153868504844688
% es.Ex (V/m) @ t=0.24
-0.913755749013548
% es.Ey (V/m) @ t=0.24
0.34798995239634234
% es.Ez (V/m) @ t=0.24
-0.8153868504844661
% es.tEx (V/m) @ t=0.24
-0.9137557490135517
% es.tEy (V/m) @ t=0.24
0
% es.tEz (V/m) @ t=0.24
-0.8153868504844688
% V (V) @ t=0.24
0.012989261620600738
% es.normE (V/m) @ t=0.26
1.2880814636229183
% es.EX (V/m) @ t=0.26
-0.922147862457104
% es.EY (V/m) @ t=0.26
0.3511858865003026
% es.EZ (V/m) @ t=0.26
-0.8228755261467793
% es.tEX (V/m) @ t=0.26
-0.9221478624571047
% es.tEY (V/m) @ t=0.26
0
% es.tEZ (V/m) @ t=0.26
-0.8228755261467757
% es.Ex (V/m) @ t=0.26
-0.922147862457104
% es.Ey (V/m) @ t=0.26
0.3511858865003026
% es.Ez (V/m) @ t=0.26
-0.8228755261467793
% es.tEx (V/m) @ t=0.26
-0.9221478624571047
% es.tEy (V/m) @ t=0.26
0
% es.tEz (V/m) @ t=0.26
-0.8228755261467757
% V (V) @ t=0.26
0.013108559714213586
% es.normE (V/m) @ t=0.28
1.3008004290100785
% es.EX (V/m) @ t=0.28
-0.9312536062590557
% es.EY (V/m) @ t=0.28
0.35465310664917205
% es.EZ (V/m) @ t=0.28
-0.8310010124170502
% es.tEX (V/m) @ t=0.28
-0.9312536062590531
% es.tEY (V/m) @ t=0.28
0
% es.tEZ (V/m) @ t=0.28
-0.8310010124170528
% es.Ex (V/m) @ t=0.28
-0.9312536062590557
% es.Ey (V/m) @ t=0.28
0.35465310664917205
% es.Ez (V/m) @ t=0.28
-0.8310010124170502
% es.tEx (V/m) @ t=0.28
-0.9312536062590531
% es.tEy (V/m) @ t=0.28
0
% es.tEz (V/m) @ t=0.28
-0.8310010124170528
% V (V) @ t=0.28
0.013238016209103915
% es.normE (V/m) @ t=0.3
1.3135193943976557
% es.EX (V/m) @ t=0.3
-0.9403593500610159
% es.EY (V/m) @ t=0.3
0.3581203267980322
% es.EZ (V/m) @ t=0.3
-0.8391264986873033
% es.tEX (V/m) @ t=0.3
-0.9403593500610126
% es.tEY (V/m) @ t=0.3
0
% es.tEZ (V/m) @ t=0.3
-0.8391264986872997
% es.Ex (V/m) @ t=0.3
-0.9403593500610159
% es.Ey (V/m) @ t=0.3
0.3581203267980322
% es.Ez (V/m) @ t=0.3
-0.8391264986873033
% es.tEx (V/m) @ t=0.3
-0.9403593500610126
% es.tEy (V/m) @ t=0.3
0
% es.tEz (V/m) @ t=0.3
-0.8391264986872997
% V (V) @ t=0.3
0.013367472703994241
% es.normE (V/m) @ t=0.32
1.3262383597856466
% es.EX (V/m) @ t=0.32
-0.9494650938629665
% es.EY (V/m) @ t=0.32
0.361587546946915
% es.EZ (V/m) @ t=0.32
-0.8472519849575626
% es.tEX (V/m) @ t=0.32
-0.949465093862961
% es.tEY (V/m) @ t=0.32
0
% es.tEZ (V/m) @ t=0.32
-0.8472519849575626
% es.Ex (V/m) @ t=0.32
-0.9494650938629665
% es.Ey (V/m) @ t=0.32
0.361587546946915
% es.Ez (V/m) @ t=0.32
-0.8472519849575626
% es.tEx (V/m) @ t=0.32
-0.949465093862961
% es.tEy (V/m) @ t=0.32
0
% es.tEz (V/m) @ t=0.32
-0.8472519849575626
% V (V) @ t=0.32
0.013496929198884575
% es.normE (V/m) @ t=0.34
1.3389573251740385
% es.EX (V/m) @ t=0.34
-0.9585708376649251
% es.EY (V/m) @ t=0.34
0.365054767095796
% es.EZ (V/m) @ t=0.34
-0.8553774712278139
% es.tEX (V/m) @ t=0.34
-0.958570837664924
% es.tEY (V/m) @ t=0.34
0
% es.tEZ (V/m) @ t=0.34
-0.8553774712278166
% es.Ex (V/m) @ t=0.34
-0.9585708376649251
% es.Ey (V/m) @ t=0.34
0.365054767095796
% es.Ez (V/m) @ t=0.34
-0.8553774712278139
% es.tEx (V/m) @ t=0.34
-0.958570837664924
% es.tEy (V/m) @ t=0.34
0
% es.tEz (V/m) @ t=0.34
-0.8553774712278166
% V (V) @ t=0.34
0.013626385693774902
% es.normE (V/m) @ t=0.36
1.351676290562816
% es.EX (V/m) @ t=0.36
-0.9676765814668784
% es.EY (V/m) @ t=0.36
0.3685219872446561
% es.EZ (V/m) @ t=0.36
-0.8635029574980759
% es.tEX (V/m) @ t=0.36
-0.9676765814668764
% es.tEY (V/m) @ t=0.36
0
% es.tEZ (V/m) @ t=0.36
-0.8635029574980777
% es.Ex (V/m) @ t=0.36
-0.9676765814668784
% es.Ey (V/m) @ t=0.36
0.3685219872446561
% es.Ez (V/m) @ t=0.36
-0.8635029574980759
% es.tEx (V/m) @ t=0.36
-0.9676765814668764
% es.tEy (V/m) @ t=0.36
0
% es.tEz (V/m) @ t=0.36
-0.8635029574980777
% V (V) @ t=0.36
0.01375584218866523
% es.normE (V/m) @ t=0.38
1.3643952559519708
% es.EX (V/m) @ t=0.38
-0.9767823252688268
% es.EY (V/m) @ t=0.38
0.37198920739353714
% es.EZ (V/m) @ t=0.38
-0.8716284437683326
% es.tEX (V/m) @ t=0.38
-0.9767823252688221
% es.tEY (V/m) @ t=0.38
0
% es.tEZ (V/m) @ t=0.38
-0.8716284437683424
% es.Ex (V/m) @ t=0.38
-0.9767823252688268
% es.Ey (V/m) @ t=0.38
0.37198920739353714
% es.Ez (V/m) @ t=0.38
-0.8716284437683326
% es.tEx (V/m) @ t=0.38
-0.9767823252688221
% es.tEy (V/m) @ t=0.38
0
% es.tEz (V/m) @ t=0.38
-0.8716284437683424
% V (V) @ t=0.38
0.013885298683555557
% es.normE (V/m) @ t=0.4
1.3771142213414915
% es.EX (V/m) @ t=0.4
-0.9858880690707819
% es.EY (V/m) @ t=0.4
0.37545642754240793
% es.EZ (V/m) @ t=0.4
-0.8797539300385866
% es.tEX (V/m) @ t=0.4
-0.9858880690707843
% es.tEY (V/m) @ t=0.4
0
% es.tEZ (V/m) @ t=0.4
-0.8797539300385964
% es.Ex (V/m) @ t=0.4
-0.9858880690707819
% es.Ey (V/m) @ t=0.4
0.37545642754240793
% es.Ez (V/m) @ t=0.4
-0.8797539300385866
% es.tEx (V/m) @ t=0.4
-0.9858880690707843
% es.tEy (V/m) @ t=0.4
0
% es.tEz (V/m) @ t=0.4
-0.8797539300385964
% V (V) @ t=0.4
0.014014755178445889
% es.normE (V/m) @ t=0.42
1.3898331867313778
% es.EX (V/m) @ t=0.42
-0.9949938128727467
% es.EY (V/m) @ t=0.42
0.3789236476912641
% es.EZ (V/m) @ t=0.42
-0.8878794163088441
% es.tEX (V/m) @ t=0.42
-0.9949938128727447
% es.tEY (V/m) @ t=0.42
0
% es.tEZ (V/m) @ t=0.42
-0.8878794163088521
% es.Ex (V/m) @ t=0.42
-0.9949938128727467
% es.Ey (V/m) @ t=0.42
0.3789236476912641
% es.Ez (V/m) @ t=0.42
-0.8878794163088441
% es.tEx (V/m) @ t=0.42
-0.9949938128727447
% es.tEy (V/m) @ t=0.42
0
% es.tEz (V/m) @ t=0.42
-0.8878794163088521
% V (V) @ t=0.42
0.014144211673336219
% es.normE (V/m) @ t=0.44
1.4025521521216084
% es.EX (V/m) @ t=0.44
-1.004099556674691
% es.EY (V/m) @ t=0.44
0.3823908678401384
% es.EZ (V/m) @ t=0.44
-0.8960049025791168
% es.tEX (V/m) @ t=0.44
-1.0040995566746829
% es.tEY (V/m) @ t=0.44
0
% es.tEZ (V/m) @ t=0.44
-0.8960049025791204
% es.Ex (V/m) @ t=0.44
-1.004099556674691
% es.Ey (V/m) @ t=0.44
0.3823908678401384
% es.Ez (V/m) @ t=0.44
-0.8960049025791168
% es.tEx (V/m) @ t=0.44
-1.0040995566746829
% es.tEy (V/m) @ t=0.44
0
% es.tEz (V/m) @ t=0.44
-0.8960049025791204
% V (V) @ t=0.44
0.014273668168226544
% es.normE (V/m) @ t=0.46
1.415271117512161
% es.EX (V/m) @ t=0.46
-1.013205300476632
% es.EY (V/m) @ t=0.46
0.38585808798899857
% es.EZ (V/m) @ t=0.46
-0.9041303888493726
% es.tEX (V/m) @ t=0.46
-1.0132053004766273
% es.tEY (V/m) @ t=0.46
0
% es.tEZ (V/m) @ t=0.46
-0.9041303888493832
% es.Ex (V/m) @ t=0.46
-1.013205300476632
% es.Ey (V/m) @ t=0.46
0.38585808798899857
% es.Ez (V/m) @ t=0.46
-0.9041303888493726
% es.tEx (V/m) @ t=0.46
-1.0132053004766273
% es.tEy (V/m) @ t=0.46
0
% es.tEz (V/m) @ t=0.46
-0.9041303888493832
% V (V) @ t=0.46
0.014403124663116872
% es.normE (V/m) @ t=0.48
1.4279900829030643
% es.EX (V/m) @ t=0.48
-1.022311044278598
% es.EY (V/m) @ t=0.48
0.38932530813788313
% es.EZ (V/m) @ t=0.48
-0.9122558751196213
% es.tEX (V/m) @ t=0.48
-1.0223110442785979
% es.tEY (V/m) @ t=0.48
0
% es.tEZ (V/m) @ t=0.48
-0.9122558751196301
% es.Ex (V/m) @ t=0.48
-1.022311044278598
% es.Ey (V/m) @ t=0.48
0.38932530813788313
% es.Ez (V/m) @ t=0.48
-0.9122558751196213
% es.tEx (V/m) @ t=0.48
-1.0223110442785979
% es.tEy (V/m) @ t=0.48
0
% es.tEz (V/m) @ t=0.48
-0.9122558751196301
% V (V) @ t=0.48
0.0145325811580072
% es.normE (V/m) @ t=0.5
1.4407090482942788
% es.EX (V/m) @ t=0.5
-1.0314167880805571
% es.EY (V/m) @ t=0.5
0.3927925282867557
% es.EZ (V/m) @ t=0.5
-0.9203813613898717
% es.tEX (V/m) @ t=0.5
-1.0314167880805543
% es.tEY (V/m) @ t=0.5
0
% es.tEZ (V/m) @ t=0.5
-0.9203813613898788
% es.Ex (V/m) @ t=0.5
-1.0314167880805571
% es.Ey (V/m) @ t=0.5
0.3927925282867557
% es.Ez (V/m) @ t=0.5
-0.9203813613898717
% es.tEx (V/m) @ t=0.5
-1.0314167880805543
% es.tEy (V/m) @ t=0.5
0
% es.tEz (V/m) @ t=0.5
-0.9203813613898788
% V (V) @ t=0.5
0.014662037652897532
% es.normE (V/m) @ t=0.52
1.4539486905996821
% es.EX (V/m) @ t=0.52
-1.0408951885637936
% es.EY (V/m) @ t=0.52
0.3964020888455866
% es.EZ (V/m) @ t=0.52
-0.9288393814485012
% es.tEX (V/m) @ t=0.52
-1.040895188563789
% es.tEY (V/m) @ t=0.52
0
% es.tEZ (V/m) @ t=0.52
-0.9288393814485065
% es.Ex (V/m) @ t=0.52
-1.0408951885637936
% es.Ey (V/m) @ t=0.52
0.3964020888455866
% es.Ez (V/m) @ t=0.52
-0.9288393814485012
% es.tEx (V/m) @ t=0.52
-1.040895188563789
% es.tEy (V/m) @ t=0.52
0
% es.tEz (V/m) @ t=0.52
-0.9288393814485065
% V (V) @ t=0.52
0.01479677954317439
% es.normE (V/m) @ t=0.54
1.4680407539697091
% es.EX (V/m) @ t=0.54
-1.0509836802501693
% es.EY (V/m) @ t=0.54
0.4002446806000308
% es.EZ (V/m) @ t=0.54
-0.9378418059126616
% es.tEX (V/m) @ t=0.54
-1.0509836802501673
% es.tEY (V/m) @ t=0.54
0
% es.tEZ (V/m) @ t=0.54
-0.9378418059126705
% es.Ex (V/m) @ t=0.54
-1.0509836802501693
% es.Ey (V/m) @ t=0.54
0.4002446806000308
% es.Ez (V/m) @ t=0.54
-0.9378418059126616
% es.tEx (V/m) @ t=0.54
-1.0509836802501673
% es.tEy (V/m) @ t=0.54
0
% es.tEz (V/m) @ t=0.54
-0.9378418059126705
% V (V) @ t=0.54
0.014940174366277873
% es.normE (V/m) @ t=0.56
1.4821328173401636
% es.EX (V/m) @ t=0.56
-1.0610721719365526
% es.EY (V/m) @ t=0.56
0.40408727235444264
% es.EZ (V/m) @ t=0.56
-0.9468442303768061
% es.tEX (V/m) @ t=0.56
-1.0610721719365577
% es.tEY (V/m) @ t=0.56
0
% es.tEZ (V/m) @ t=0.56
-0.9468442303768203
% es.Ex (V/m) @ t=0.56
-1.0610721719365526
% es.Ey (V/m) @ t=0.56
0.40408727235444264
% es.Ez (V/m) @ t=0.56
-0.9468442303768061
% es.tEx (V/m) @ t=0.56
-1.0610721719365577
% es.tEy (V/m) @ t=0.56
0
% es.tEz (V/m) @ t=0.56
-0.9468442303768203
% V (V) @ t=0.56
0.015083569189381356
% es.normE (V/m) @ t=0.58
1.496224880711062
% es.EX (V/m) @ t=0.58
-1.0711606636229385
% es.EY (V/m) @ t=0.58
0.4079298641088611
% es.EZ (V/m) @ t=0.58
-0.9558466548409665
% es.tEX (V/m) @ t=0.58
-1.0711606636229365
% es.tEY (V/m) @ t=0.58
0
% es.tEZ (V/m) @ t=0.58
-0.9558466548409665
% es.Ex (V/m) @ t=0.58
-1.0711606636229385
% es.Ey (V/m) @ t=0.58
0.4079298641088611
% es.Ez (V/m) @ t=0.58
-0.9558466548409665
% es.tEx (V/m) @ t=0.58
-1.0711606636229365
% es.tEy (V/m) @ t=0.58
0
% es.tEz (V/m) @ t=0.58
-0.9558466548409665
% V (V) @ t=0.58
0.015226964012484832
% es.normE (V/m) @ t=0.6
1.5103169440823732
% es.EX (V/m) @ t=0.6
-1.0812491553093218
% es.EY (V/m) @ t=0.6
0.4117724558632925
% es.EZ (V/m) @ t=0.6
-0.964849079305111
% es.tEX (V/m) @ t=0.6
-1.0812491553093242
% es.tEY (V/m) @ t=0.6
0
% es.tEZ (V/m) @ t=0.6
-0.964849079305111
% es.Ex (V/m) @ t=0.6
-1.0812491553093218
% es.Ey (V/m) @ t=0.6
0.4117724558632925
% es.Ez (V/m) @ t=0.6
-0.964849079305111
% es.tEx (V/m) @ t=0.6
-1.0812491553093242
% es.tEy (V/m) @ t=0.6
0
% es.tEz (V/m) @ t=0.6
-0.964849079305111
% V (V) @ t=0.6
0.015370358835588314
% es.normE (V/m) @ t=0.62
1.5244090074540813
% es.EX (V/m) @ t=0.62
-1.09133764699571
% es.EY (V/m) @ t=0.62
0.41561504761771006
% es.EZ (V/m) @ t=0.62
-0.973851503769243
% es.tEX (V/m) @ t=0.62
-1.0913376469957106
% es.tEY (V/m) @ t=0.62
0
% es.tEZ (V/m) @ t=0.62
-0.973851503769243
% es.Ex (V/m) @ t=0.62
-1.09133764699571
% es.Ey (V/m) @ t=0.62
0.41561504761771006
% es.Ez (V/m) @ t=0.62
-0.973851503769243
% es.tEx (V/m) @ t=0.62
-1.0913376469957106
% es.tEy (V/m) @ t=0.62
0
% es.tEz (V/m) @ t=0.62
-0.973851503769243
% V (V) @ t=0.62
0.015513753658691797
% es.normE (V/m) @ t=0.64
1.5385010708262064
% es.EX (V/m) @ t=0.64
-1.1014261386821012
% es.EY (V/m) @ t=0.64
0.4194576393721299
% es.EZ (V/m) @ t=0.64
-0.9828539282334052
% es.tEX (V/m) @ t=0.64
-1.1014261386821
% es.tEY (V/m) @ t=0.64
0
% es.tEZ (V/m) @ t=0.64
-0.9828539282334123
% es.Ex (V/m) @ t=0.64
-1.1014261386821012
% es.Ey (V/m) @ t=0.64
0.4194576393721299
% es.Ez (V/m) @ t=0.64
-0.9828539282334052
% es.tEx (V/m) @ t=0.64
-1.1014261386821
% es.tEy (V/m) @ t=0.64
0
% es.tEz (V/m) @ t=0.64
-0.9828539282334123
% V (V) @ t=0.64
0.01565714848179528
% es.normE (V/m) @ t=0.66
1.552593134198689
% es.EX (V/m) @ t=0.66
-1.1115146303684897
% es.EY (V/m) @ t=0.66
0.42330023112655946
% es.EZ (V/m) @ t=0.66
-0.9918563526975213
% es.tEX (V/m) @ t=0.66
-1.1115146303684869
% es.tEY (V/m) @ t=0.66
0
% es.tEZ (V/m) @ t=0.66
-0.9918563526975266
% es.Ex (V/m) @ t=0.66
-1.1115146303684897
% es.Ey (V/m) @ t=0.66
0.42330023112655946
% es.Ez (V/m) @ t=0.66
-0.9918563526975213
% es.tEx (V/m) @ t=0.66
-1.1115146303684869
% es.tEy (V/m) @ t=0.66
0
% es.tEz (V/m) @ t=0.66
-0.9918563526975266
% V (V) @ t=0.66
0.015800543304898763
% es.normE (V/m) @ t=0.68
1.566685197571569
% es.EX (V/m) @ t=0.68
-1.1216031220548623
% es.EY (V/m) @ t=0.68
0.42714282288098016
% es.EZ (V/m) @ t=0.68
-1.0008587771616941
% es.tEX (V/m) @ t=0.68
-1.1216031220548595
% es.tEY (V/m) @ t=0.68
0
% es.tEZ (V/m) @ t=0.68
-1.0008587771616977
% es.Ex (V/m) @ t=0.68
-1.1216031220548623
% es.Ey (V/m) @ t=0.68
0.42714282288098016
% es.Ez (V/m) @ t=0.68
-1.0008587771616941
% es.tEx (V/m) @ t=0.68
-1.1216031220548595
% es.tEy (V/m) @ t=0.68
0
% es.tEz (V/m) @ t=0.68
-1.0008587771616977
% V (V) @ t=0.68
0.015943938128002245
% es.normE (V/m) @ t=0.7
1.5807772609448112
% es.EX (V/m) @ t=0.7
-1.1316916137412538
% es.EY (V/m) @ t=0.7
0.4309854146353924
% es.EZ (V/m) @ t=0.7
-1.0098612016258475
% es.tEX (V/m) @ t=0.7
-1.1316916137412525
% es.tEY (V/m) @ t=0.7
0
% es.tEZ (V/m) @ t=0.7
-1.0098612016258386
% es.Ex (V/m) @ t=0.7
-1.1316916137412538
% es.Ey (V/m) @ t=0.7
0.4309854146353924
% es.Ez (V/m) @ t=0.7
-1.0098612016258475
% es.tEx (V/m) @ t=0.7
-1.1316916137412525
% es.tEy (V/m) @ t=0.7
0
% es.tEz (V/m) @ t=0.7
-1.0098612016258386
% V (V) @ t=0.7
0.016087332951105725
% es.normE (V/m) @ t=0.72
1.5948693243183825
% es.EX (V/m) @ t=0.72
-1.141780105427624
% es.EY (V/m) @ t=0.72
0.43482800638982644
% es.EZ (V/m) @ t=0.72
-1.0188636260899742
% es.tEX (V/m) @ t=0.72
-1.1417801054276255
% es.tEY (V/m) @ t=0.72
0
% es.tEZ (V/m) @ t=0.72
-1.0188636260899795
% es.Ex (V/m) @ t=0.72
-1.141780105427624
% es.Ey (V/m) @ t=0.72
0.43482800638982644
% es.Ez (V/m) @ t=0.72
-1.0188636260899742
% es.tEx (V/m) @ t=0.72
-1.1417801054276255
% es.tEy (V/m) @ t=0.72
0
% es.tEz (V/m) @ t=0.72
-1.0188636260899795
% V (V) @ t=0.72
0.016230727774209208
% es.normE (V/m) @ t=0.74
1.608961387692316
% es.EX (V/m) @ t=0.74
-1.1518685971139984
% es.EY (V/m) @ t=0.74
0.4386705981442276
% es.EZ (V/m) @ t=0.74
-1.0278660505541382
% es.tEX (V/m) @ t=0.74
-1.1518685971140044
% es.tEY (V/m) @ t=0.74
0
% es.tEZ (V/m) @ t=0.74
-1.0278660505541364
% es.Ex (V/m) @ t=0.74
-1.1518685971139984
% es.Ey (V/m) @ t=0.74
0.4386705981442276
% es.Ez (V/m) @ t=0.74
-1.0278660505541382
% es.tEx (V/m) @ t=0.74
-1.1518685971140044
% es.tEy (V/m) @ t=0.74
0
% es.tEz (V/m) @ t=0.74
-1.0278660505541364
% V (V) @ t=0.74
0.01637412259731269
% es.normE (V/m) @ t=0.76
1.6230534510666006
% es.EX (V/m) @ t=0.76
-1.1619570888004083
% es.EY (V/m) @ t=0.76
0.4425131898986554
% es.EZ (V/m) @ t=0.76
-1.0368684750182755
% es.tEX (V/m) @ t=0.76
-1.1619570888004027
% es.tEY (V/m) @ t=0.76
0
% es.tEZ (V/m) @ t=0.76
-1.0368684750182862
% es.Ex (V/m) @ t=0.76
-1.1619570888004083
% es.Ey (V/m) @ t=0.76
0.4425131898986554
% es.Ez (V/m) @ t=0.76
-1.0368684750182755
% es.tEx (V/m) @ t=0.76
-1.1619570888004027
% es.tEy (V/m) @ t=0.76
0
% es.tEz (V/m) @ t=0.76
-1.0368684750182862
% V (V) @ t=0.76
0.01651751742041617
% es.normE (V/m) @ t=0.78
1.6380328096442123
% es.EX (V/m) @ t=0.78
-1.1726809041556698
% es.EY (V/m) @ t=0.78
0.4465973100132037
% es.EZ (V/m) @ t=0.78
-1.0464378323094952
% es.tEX (V/m) @ t=0.78
-1.1726809041556723
% es.tEY (V/m) @ t=0.78
0
% es.tEZ (V/m) @ t=0.78
-1.0464378323094916
% es.Ex (V/m) @ t=0.78
-1.1726809041556698
% es.Ey (V/m) @ t=0.78
0.4465973100132037
% es.Ez (V/m) @ t=0.78
-1.0464378323094952
% es.tEx (V/m) @ t=0.78
-1.1726809041556723
% es.tEy (V/m) @ t=0.78
0
% es.tEz (V/m) @ t=0.78
-1.0464378323094916
% V (V) @ t=0.78
0.016669955661848364
% es.normE (V/m) @ t=0.8
1.6536762924626203
% es.EX (V/m) @ t=0.8
-1.1838802476641022
% es.EY (V/m) @ t=0.8
0.4508622096903232
% es.EZ (V/m) @ t=0.8
-1.0564315284589183
% es.tEX (V/m) @ t=0.8
-1.183880247664101
% es.tEY (V/m) @ t=0.8
0
% es.tEZ (V/m) @ t=0.8
-1.0564315284589263
% es.Ex (V/m) @ t=0.8
-1.1838802476641022
% es.Ey (V/m) @ t=0.8
0.4508622096903232
% es.Ez (V/m) @ t=0.8
-1.0564315284589183
% es.tEx (V/m) @ t=0.8
-1.183880247664101
% es.tEy (V/m) @ t=0.8
0
% es.tEz (V/m) @ t=0.8
-1.0564315284589263
% V (V) @ t=0.8
0.016829162736596393
% es.normE (V/m) @ t=0.82
1.6693197752810982
% es.EX (V/m) @ t=0.82
-1.1950795911725456
% es.EY (V/m) @ t=0.82
0.45512710936749645
% es.EZ (V/m) @ t=0.82
-1.066425224608353
% es.tEX (V/m) @ t=0.82
-1.1950795911725436
% es.tEY (V/m) @ t=0.82
0
% es.tEZ (V/m) @ t=0.82
-1.0664252246083628
% es.Ex (V/m) @ t=0.82
-1.1950795911725456
% es.Ey (V/m) @ t=0.82
0.45512710936749645
% es.Ez (V/m) @ t=0.82
-1.066425224608353
% es.tEx (V/m) @ t=0.82
-1.1950795911725436
% es.tEy (V/m) @ t=0.82
0
% es.tEz (V/m) @ t=0.82
-1.0664252246083628
% V (V) @ t=0.82
0.01698836981134442
% es.normE (V/m) @ t=0.84
1.6849632580996161
% es.EX (V/m) @ t=0.84
-1.2062789346810066
% es.EY (V/m) @ t=0.84
0.45939200904464306
% es.EZ (V/m) @ t=0.84
-1.076418920757777
% es.tEX (V/m) @ t=0.84
-1.2062789346810043
% es.tEY (V/m) @ t=0.84
0
% es.tEZ (V/m) @ t=0.84
-1.076418920757785
% es.Ex (V/m) @ t=0.84
-1.2062789346810066
% es.Ey (V/m) @ t=0.84
0.45939200904464306
% es.Ez (V/m) @ t=0.84
-1.076418920757777
% es.tEx (V/m) @ t=0.84
-1.2062789346810043
% es.tEy (V/m) @ t=0.84
0
% es.tEz (V/m) @ t=0.84
-1.076418920757785
% V (V) @ t=0.84
0.017147576886092447
% es.normE (V/m) @ t=0.86
1.7006067409181567
% es.EX (V/m) @ t=0.86
-1.217478278189448
% es.EY (V/m) @ t=0.86
0.4636569087218021
% es.EZ (V/m) @ t=0.86
-1.0864126169071984
% es.tEX (V/m) @ t=0.86
-1.2174782781894433
% es.tEY (V/m) @ t=0.86
0
% es.tEZ (V/m) @ t=0.86
-1.0864126169072215
% es.Ex (V/m) @ t=0.86
-1.217478278189448
% es.Ey (V/m) @ t=0.86
0.4636569087218021
% es.Ez (V/m) @ t=0.86
-1.0864126169071984
% es.tEx (V/m) @ t=0.86
-1.2174782781894433
% es.tEy (V/m) @ t=0.86
0
% es.tEz (V/m) @ t=0.86
-1.0864126169072215
% V (V) @ t=0.86
0.01730678396084048
% es.normE (V/m) @ t=0.88
1.7162502237367327
% es.EX (V/m) @ t=0.88
-1.2286776216978923
% es.EY (V/m) @ t=0.88
0.4679218083989758
% es.EZ (V/m) @ t=0.88
-1.0964063130566046
% es.tEX (V/m) @ t=0.88
-1.2286776216978832
% es.tEY (V/m) @ t=0.88
0
% es.tEZ (V/m) @ t=0.88
-1.0964063130566117
% es.Ex (V/m) @ t=0.88
-1.2286776216978923
% es.Ey (V/m) @ t=0.88
0.4679218083989758
% es.Ez (V/m) @ t=0.88
-1.0964063130566046
% es.tEx (V/m) @ t=0.88
-1.2286776216978832
% es.tEy (V/m) @ t=0.88
0
% es.tEz (V/m) @ t=0.88
-1.0964063130566117
% V (V) @ t=0.88
0.017465991035588505
% es.normE (V/m) @ t=0.9
1.7318937065553606
% es.EX (V/m) @ t=0.9
-1.2398769652063195
% es.EY (V/m) @ t=0.9
0.4721867080761415
% es.EZ (V/m) @ t=0.9
-1.106400009206057
% es.tEX (V/m) @ t=0.9
-1.2398769652063217
% es.tEY (V/m) @ t=0.9
0
% es.tEZ (V/m) @ t=0.9
-1.1064000092060553
% es.Ex (V/m) @ t=0.9
-1.2398769652063195
% es.Ey (V/m) @ t=0.9
0.4721867080761415
% es.Ez (V/m) @ t=0.9
-1.106400009206057
% es.tEx (V/m) @ t=0.9
-1.2398769652063217
% es.tEy (V/m) @ t=0.9
0
% es.tEz (V/m) @ t=0.9
-1.1064000092060553
% V (V) @ t=0.9
0.017625198110336533
% es.normE (V/m) @ t=0.92
1.7475371893740017
% es.EX (V/m) @ t=0.92
-1.2510763087147645
% es.EY (V/m) @ t=0.92
0.4764516077532899
% es.EZ (V/m) @ t=0.92
-1.1163937053554633
% es.tEX (V/m) @ t=0.92
-1.2510763087147616
% es.tEY (V/m) @ t=0.92
0
% es.tEZ (V/m) @ t=0.92
-1.1163937053554758
% es.Ex (V/m) @ t=0.92
-1.2510763087147645
% es.Ey (V/m) @ t=0.92
0.4764516077532899
% es.Ez (V/m) @ t=0.92
-1.1163937053554633
% es.tEx (V/m) @ t=0.92
-1.2510763087147616
% es.tEy (V/m) @ t=0.92
0
% es.tEz (V/m) @ t=0.92
-1.1163937053554758
% V (V) @ t=0.92
0.017784405185084562
% es.normE (V/m) @ t=0.94
1.76318067219269
% es.EX (V/m) @ t=0.94
-1.2622756522232017
% es.EY (V/m) @ t=0.94
0.4807165074304529
% es.EZ (V/m) @ t=0.94
-1.1263874015048918
% es.tEX (V/m) @ t=0.94
-1.2622756522232077
% es.tEY (V/m) @ t=0.94
0
% es.tEZ (V/m) @ t=0.94
-1.1263874015048945
% es.Ex (V/m) @ t=0.94
-1.2622756522232017
% es.Ey (V/m) @ t=0.94
0.4807165074304529
% es.Ez (V/m) @ t=0.94
-1.1263874015048918
% es.tEx (V/m) @ t=0.94
-1.2622756522232077
% es.tEy (V/m) @ t=0.94
0
% es.tEz (V/m) @ t=0.94
-1.1263874015048945
% V (V) @ t=0.94
0.01794361225983259
% es.normE (V/m) @ t=0.96
1.7788241550114123
% es.EX (V/m) @ t=0.96
-1.2734749957316593
% es.EY (V/m) @ t=0.96
0.48498140710760484
% es.EZ (V/m) @ t=0.96
-1.1363810976543052
% es.tEX (V/m) @ t=0.96
-1.2734749957316605
% es.tEY (V/m) @ t=0.96
0
% es.tEZ (V/m) @ t=0.96
-1.1363810976543025
% es.Ex (V/m) @ t=0.96
-1.2734749957316593
% es.Ey (V/m) @ t=0.96
0.48498140710760484
% es.Ez (V/m) @ t=0.96
-1.1363810976543052
% es.tEx (V/m) @ t=0.96
-1.2734749957316605
% es.tEy (V/m) @ t=0.96
0
% es.tEz (V/m) @ t=0.96
-1.1363810976543025
% V (V) @ t=0.96
0.01810281933458062
% es.normE (V/m) @ t=0.98
1.7944676378301678
% es.EX (V/m) @ t=0.98
-1.2846743392401005
% es.EY (V/m) @ t=0.98
0.48924630678477277
% es.EZ (V/m) @ t=0.98
-1.1463747938037292
% es.tEX (V/m) @ t=0.98
-1.284674339240094
% es.tEY (V/m) @ t=0.98
0
% es.tEZ (V/m) @ t=0.98
-1.146374793803739
% es.Ex (V/m) @ t=0.98
-1.2846743392401005
% es.Ey (V/m) @ t=0.98
0.48924630678477277
% es.Ez (V/m) @ t=0.98
-1.1463747938037292
% es.tEx (V/m) @ t=0.98
-1.284674339240094
% es.tEy (V/m) @ t=0.98
0
% es.tEz (V/m) @ t=0.98
-1.146374793803739
% V (V) @ t=0.98
0.01826202640932864
% es.normE (V/m) @ t=1
1.8101111206489464
% es.EX (V/m) @ t=1
-1.2958736827485369
% es.EY (V/m) @ t=1
0.49351120646193136
% es.EZ (V/m) @ t=1
-1.1563684899531497
% es.tEX (V/m) @ t=1
-1.2958736827485255
% es.tEY (V/m) @ t=1
0
% es.tEZ (V/m) @ t=1
-1.156368489953147
% es.Ex (V/m) @ t=1
-1.2958736827485369
% es.Ey (V/m) @ t=1
0.49351120646193136
% es.Ez (V/m) @ t=1
-1.1563684899531497
% es.tEx (V/m) @ t=1
-1.2958736827485255
% es.tEy (V/m) @ t=1
0
% es.tEz (V/m) @ t=1
-1.156368489953147
% V (V) @ t=1
0.018421233484076677
% es.normE (V/m) @ t=1.02
1.8257546034677592
% es.EX (V/m) @ t=1.02
-1.3070730262569816
% es.EY (V/m) @ t=1.02
0.4977761061390904
% es.EZ (V/m) @ t=1.02
-1.1663621861025666
% es.tEX (V/m) @ t=1.02
-1.3070730262569725
% es.tEY (V/m) @ t=1.02
0
% es.tEZ (V/m) @ t=1.02
-1.1663621861025817
% es.Ex (V/m) @ t=1.02
-1.3070730262569816
% es.Ey (V/m) @ t=1.02
0.4977761061390904
% es.Ez (V/m) @ t=1.02
-1.1663621861025666
% es.tEx (V/m) @ t=1.02
-1.3070730262569725
% es.tEy (V/m) @ t=1.02
0
% es.tEz (V/m) @ t=1.02
-1.1663621861025817
% V (V) @ t=1.02
0.0185804405588247
% es.normE (V/m) @ t=1.04
1.8419763145611463