% Model:              1 neuron.mph
% Version:            COMSOL 6.1.0.252
% Date:               Mar 22 2023, 19:20
% Dimension:          0
% Nodes:              14017
% Expressions:        14017
% Description:        Electric field norm, Electric field, X component, Electric field, Y component, Electric field, Z component, Tangential electric field, X component, Tangential electric field, Y component, Tangential electric field, Z component, Electric field, x component, Electric field, y component, Electric field, z component, Tangential electric field, x component, Tangential electric field, y component, Tangential electric field, z component, Electric potential
% Length unit:        mm
% x
1.33
% y
12.2
% z
1
% es.normE (V/m) @ t=0
2.836777497618976
% es.EX (V/m) @ t=0
0.8756094720944085
% es.EY (V/m) @ t=0
0.21212860772184827
% es.EZ (V/m) @ t=0
2.6898906164739547
% es.tEX (V/m) @ t=0
0.8756094720944034
% es.tEY (V/m) @ t=0
0
% es.tEZ (V/m) @ t=0
2.6898906164739422
% es.Ex (V/m) @ t=0
0.8756094720944085
% es.Ey (V/m) @ t=0
0.21212860772184827
% es.Ez (V/m) @ t=0
2.6898906164739547
% es.tEx (V/m) @ t=0
0.8756094720944034
% es.tEy (V/m) @ t=0
0
% es.tEz (V/m) @ t=0
2.6898906164739422
% V (V) @ t=0
0.013267674733457052
% es.normE (V/m) @ t=0.02
2.4501495219729277
% es.EX (V/m) @ t=0.02
0.7562715554240489
% es.EY (V/m) @ t=0.02
0.18321733328985834
% es.EZ (V/m) @ t=0.02
2.323282038580508
% es.tEX (V/m) @ t=0.02
0.7562715554240498
% es.tEY (V/m) @ t=0.02
0
% es.tEZ (V/m) @ t=0.02
2.3232820385805155
% es.Ex (V/m) @ t=0.02
0.7562715554240489
% es.Ey (V/m) @ t=0.02
0.18321733328985834
% es.Ez (V/m) @ t=0.02
2.323282038580508
% es.tEx (V/m) @ t=0.02
0.7562715554240498
% es.tEy (V/m) @ t=0.02
0
% es.tEz (V/m) @ t=0.02
2.3232820385805155
% V (V) @ t=0.02
0.011459406574733464
% es.normE (V/m) @ t=0.04
2.4726848471143414
% es.EX (V/m) @ t=0.04
0.7632273867672621
% es.EY (V/m) @ t=0.04
0.18490248113269758
% es.EZ (V/m) @ t=0.04
2.344650495909879
% es.tEX (V/m) @ t=0.04
0.7632273867672694
% es.tEY (V/m) @ t=0.04
0
% es.tEZ (V/m) @ t=0.04
2.344650495909871
% es.Ex (V/m) @ t=0.04
0.7632273867672621
% es.Ey (V/m) @ t=0.04
0.18490248113269758
% es.Ez (V/m) @ t=0.04
2.344650495909879
% es.tEx (V/m) @ t=0.04
0.7632273867672694
% es.tEy (V/m) @ t=0.04
0
% es.tEz (V/m) @ t=0.04
2.344650495909871
% V (V) @ t=0.04
0.011564804698170832
% es.normE (V/m) @ t=0.06
2.4953844389356705
% es.EX (V/m) @ t=0.06
0.7702339215197992
% es.EY (V/m) @ t=0.06
0.18659991291457034
% es.EZ (V/m) @ t=0.06
2.3661747141488023
% es.tEX (V/m) @ t=0.06
0.7702339215198037
% es.tEY (V/m) @ t=0.06
0
% es.tEZ (V/m) @ t=0.06
2.366174714148812
% es.Ex (V/m) @ t=0.06
0.7702339215197992
% es.Ey (V/m) @ t=0.06
0.18659991291457034
% es.Ez (V/m) @ t=0.06
2.3661747141488023
% es.tEx (V/m) @ t=0.06
0.7702339215198037
% es.tEy (V/m) @ t=0.06
0
% es.tEz (V/m) @ t=0.06
2.366174714148812
% V (V) @ t=0.06
0.011670971039274648
% es.normE (V/m) @ t=0.08
2.518519051536241
% es.EX (V/m) @ t=0.08
0.7773747292286272
% es.EY (V/m) @ t=0.08
0.18832987181642824
% es.EZ (V/m) @ t=0.08
2.3881114289017233
% es.tEX (V/m) @ t=0.08
0.7773747292286259
% es.tEY (V/m) @ t=0.08
0
% es.tEZ (V/m) @ t=0.08
2.3881114289017376
% es.Ex (V/m) @ t=0.08
0.7773747292286272
% es.Ey (V/m) @ t=0.08
0.18832987181642824
% es.Ez (V/m) @ t=0.08
2.3881114289017233
% es.tEx (V/m) @ t=0.08
0.7773747292286259
% es.tEy (V/m) @ t=0.08
0
% es.tEz (V/m) @ t=0.08
2.3881114289017376
% V (V) @ t=0.08
0.011779172378705238
% es.normE (V/m) @ t=0.1
2.541771686661936
% es.EX (V/m) @ t=0.1
0.7845519656188387
% es.EY (V/m) @ t=0.1
0.1900686554297668
% es.EZ (V/m) @ t=0.1
2.4101600552747473
% es.tEX (V/m) @ t=0.1
0.7845519656188387
% es.tEY (V/m) @ t=0.1
0
% es.tEZ (V/m) @ t=0.1
2.410160055274746
% es.Ex (V/m) @ t=0.1
0.7845519656188387
% es.Ey (V/m) @ t=0.1
0.1900686554297668
% es.Ez (V/m) @ t=0.1
2.4101600552747473
% es.tEx (V/m) @ t=0.1
0.7845519656188387
% es.tEy (V/m) @ t=0.1
0
% es.tEz (V/m) @ t=0.1
2.410160055274746
% V (V) @ t=0.1
0.011887925819673476
% es.normE (V/m) @ t=0.12
2.5650243217876074
% es.EX (V/m) @ t=0.12
0.7917292020090353
% es.EY (V/m) @ t=0.12
0.19180743904303443
% es.EZ (V/m) @ t=0.12
2.432208681647757
% es.tEX (V/m) @ t=0.12
0.7917292020090443
% es.tEY (V/m) @ t=0.12
0
% es.tEZ (V/m) @ t=0.12
2.4322086816477775
% es.Ex (V/m) @ t=0.12
0.7917292020090353
% es.Ey (V/m) @ t=0.12
0.19180743904303443
% es.Ez (V/m) @ t=0.12
2.432208681647757
% es.tEx (V/m) @ t=0.12
0.7917292020090443
% es.tEy (V/m) @ t=0.12
0
% es.tEz (V/m) @ t=0.12
2.4322086816477775
% V (V) @ t=0.12
0.011996679260641716
% es.normE (V/m) @ t=0.14
2.5889525240490188
% es.EX (V/m) @ t=0.14
0.7991149713582515
% es.EY (V/m) @ t=0.14
0.1935967546241405
% es.EZ (V/m) @ t=0.14
2.454897890253921
% es.tEX (V/m) @ t=0.14
0.7991149713582644
% es.tEY (V/m) @ t=0.14
0
% es.tEZ (V/m) @ t=0.14
2.454897890253937
% es.Ex (V/m) @ t=0.14
0.7991149713582515
% es.Ey (V/m) @ t=0.14
0.1935967546241405
% es.Ez (V/m) @ t=0.14
2.454897890253921
% es.tEx (V/m) @ t=0.14
0.7991149713582644
% es.tEy (V/m) @ t=0.14
0
% es.tEz (V/m) @ t=0.14
2.454897890253937
% V (V) @ t=0.14
0.01210859054947619
% es.normE (V/m) @ t=0.16
2.6133710300456947
% es.EX (V/m) @ t=0.16
0.8066520868629246
% es.EY (V/m) @ t=0.16
0.19542274459520848
% es.EZ (V/m) @ t=0.16
2.478052011738524
% es.tEX (V/m) @ t=0.16
0.8066520868629254
% es.tEY (V/m) @ t=0.16
0
% es.tEZ (V/m) @ t=0.16
2.478052011738523
% es.Ex (V/m) @ t=0.16
0.8066520868629246
% es.Ey (V/m) @ t=0.16
0.19542274459520848
% es.Ez (V/m) @ t=0.16
2.478052011738524
% es.tEx (V/m) @ t=0.16
0.8066520868629254
% es.tEy (V/m) @ t=0.16
0
% es.tEz (V/m) @ t=0.16
2.478052011738523
% V (V) @ t=0.16
0.012222793697287158
% es.normE (V/m) @ t=0.18
2.6377895360423613
% es.EX (V/m) @ t=0.18
0.814189202367581
% es.EY (V/m) @ t=0.18
0.19724873456625946
% es.EZ (V/m) @ t=0.18
2.5012061332231235
% es.tEX (V/m) @ t=0.18
0.8141892023675865
% es.tEY (V/m) @ t=0.18
0
% es.tEZ (V/m) @ t=0.18
2.5012061332231337
% es.Ex (V/m) @ t=0.18
0.814189202367581
% es.Ey (V/m) @ t=0.18
0.19724873456625946
% es.Ez (V/m) @ t=0.18
2.5012061332231235
% es.tEx (V/m) @ t=0.18
0.8141892023675865
% es.tEy (V/m) @ t=0.18
0
% es.tEz (V/m) @ t=0.18
2.5012061332231337
% V (V) @ t=0.18
0.012336996845098126
% es.normE (V/m) @ t=0.2
2.662208042039036
% es.EX (V/m) @ t=0.2
0.8217263178722574
% es.EY (V/m) @ t=0.2
0.19907472453732755
% es.EZ (V/m) @ t=0.2
2.5243602547077226
% es.tEX (V/m) @ t=0.2
0.8217263178722547
% es.tEY (V/m) @ t=0.2
0
% es.tEZ (V/m) @ t=0.2
2.5243602547077337
% es.Ex (V/m) @ t=0.2
0.8217263178722574
% es.Ey (V/m) @ t=0.2
0.19907472453732755
% es.Ez (V/m) @ t=0.2
2.5243602547077226
% es.tEx (V/m) @ t=0.2
0.8217263178722547
% es.tEy (V/m) @ t=0.2
0
% es.tEz (V/m) @ t=0.2
2.5243602547077337
% V (V) @ t=0.2
0.012451199992909095
% es.normE (V/m) @ t=0.22
2.686626548035706
% es.EX (V/m) @ t=0.22
0.8292634333769058
% es.EY (V/m) @ t=0.22
0.20090071450836067
% es.EZ (V/m) @ t=0.22
2.5475143761923293
% es.tEX (V/m) @ t=0.22
0.8292634333769087
% es.tEY (V/m) @ t=0.22
0
% es.tEZ (V/m) @ t=0.22
2.5475143761923427
% es.Ex (V/m) @ t=0.22
0.8292634333769058
% es.Ey (V/m) @ t=0.22
0.20090071450836067
% es.Ez (V/m) @ t=0.22
2.5475143761923293
% es.tEx (V/m) @ t=0.22
0.8292634333769087
% es.tEy (V/m) @ t=0.22
0
% es.tEz (V/m) @ t=0.22
2.5475143761923427
% V (V) @ t=0.22
0.012565403140720062
% es.normE (V/m) @ t=0.24
2.7110450540324225
% es.EX (V/m) @ t=0.24
0.8368005488815853
% es.EY (V/m) @ t=0.24
0.20272670447942154
% es.EZ (V/m) @ t=0.24
2.570668497676971
% es.tEX (V/m) @ t=0.24
0.8368005488815768
% es.tEY (V/m) @ t=0.24
0
% es.tEZ (V/m) @ t=0.24
2.570668497676971
% es.Ex (V/m) @ t=0.24
0.8368005488815853
% es.Ey (V/m) @ t=0.24
0.20272670447942154
% es.Ez (V/m) @ t=0.24
2.570668497676971
% es.tEx (V/m) @ t=0.24
0.8368005488815768
% es.tEy (V/m) @ t=0.24
0
% es.tEz (V/m) @ t=0.24
2.570668497676971
% V (V) @ t=0.24
0.012679606288531028
% es.normE (V/m) @ t=0.26
2.735893434774921
% es.EX (V/m) @ t=0.26
0.8444703638845428
% es.EY (V/m) @ t=0.26
0.20458485803000492
% es.EZ (V/m) @ t=0.26
2.5942302296146944
% es.tEX (V/m) @ t=0.26
0.8444703638845397
% es.tEY (V/m) @ t=0.26
0
% es.tEZ (V/m) @ t=0.26
2.594230229614711
% es.Ex (V/m) @ t=0.26
0.8444703638845428
% es.Ey (V/m) @ t=0.26
0.20458485803000492
% es.Ez (V/m) @ t=0.26
2.5942302296146944
% es.tEx (V/m) @ t=0.26
0.8444703638845397
% es.tEy (V/m) @ t=0.26
0
% es.tEz (V/m) @ t=0.26
2.594230229614711
% V (V) @ t=0.26
0.01279581766053918
% es.normE (V/m) @ t=0.28
2.7629145680216034
% es.EX (V/m) @ t=0.28
0.8528108932525615
% es.EY (V/m) @ t=0.28
0.20660557869728868
% es.EZ (V/m) @ t=0.28
2.619852181747608
% es.tEX (V/m) @ t=0.28
0.8528108932525669
% es.tEY (V/m) @ t=0.28
0
% es.tEZ (V/m) @ t=0.28
2.6198521817476124
% es.Ex (V/m) @ t=0.28
0.8528108932525615
% es.Ey (V/m) @ t=0.28
0.20660557869728868
% es.Ez (V/m) @ t=0.28
2.619852181747608
% es.tEx (V/m) @ t=0.28
0.8528108932525669
% es.tEy (V/m) @ t=0.28
0
% es.tEz (V/m) @ t=0.28
2.6198521817476124
% V (V) @ t=0.28
0.012922179370978611
% es.normE (V/m) @ t=0.3
2.789935701268262
% es.EX (V/m) @ t=0.3
0.8611514226205739
% es.EY (V/m) @ t=0.3
0.2086262993646293
% es.EZ (V/m) @ t=0.3
2.645474133880481
% es.tEX (V/m) @ t=0.3
0.8611514226205799
% es.tEY (V/m) @ t=0.3
0
% es.tEZ (V/m) @ t=0.3
2.6454741338805086
% es.Ex (V/m) @ t=0.3
0.8611514226205739
% es.Ey (V/m) @ t=0.3
0.2086262993646293
% es.Ez (V/m) @ t=0.3
2.645474133880481
% es.tEx (V/m) @ t=0.3
0.8611514226205799
% es.tEy (V/m) @ t=0.3
0
% es.tEz (V/m) @ t=0.3
2.6454741338805086
% V (V) @ t=0.3
0.013048541081418046
% es.normE (V/m) @ t=0.32
2.8169568345150022
% es.EX (V/m) @ t=0.32
0.8694919519886066
% es.EY (V/m) @ t=0.32
0.21064702003193814
% es.EZ (V/m) @ t=0.32
2.6710960860134234
% es.tEX (V/m) @ t=0.32
0.8694919519886071
% es.tEY (V/m) @ t=0.32
0
% es.tEZ (V/m) @ t=0.32
2.6710960860134065
% es.Ex (V/m) @ t=0.32
0.8694919519886066
% es.Ey (V/m) @ t=0.32
0.21064702003193814
% es.Ez (V/m) @ t=0.32
2.6710960860134234
% es.tEx (V/m) @ t=0.32
0.8694919519886071
% es.tEy (V/m) @ t=0.32
0
% es.tEz (V/m) @ t=0.32
2.6710960860134065
% V (V) @ t=0.32
0.01317490279185748
% es.normE (V/m) @ t=0.34
2.8439779677617087
% es.EX (V/m) @ t=0.34
0.8778324813566216
% es.EY (V/m) @ t=0.34
0.2126677406992401
% es.EZ (V/m) @ t=0.34
2.696718038146324
% es.tEX (V/m) @ t=0.34
0.8778324813566272
% es.tEY (V/m) @ t=0.34
0
% es.tEZ (V/m) @ t=0.34
2.6967180381463223
% es.Ex (V/m) @ t=0.34
0.8778324813566216
% es.Ey (V/m) @ t=0.34
0.2126677406992401
% es.Ez (V/m) @ t=0.34
2.696718038146324
% es.tEx (V/m) @ t=0.34
0.8778324813566272
% es.tEy (V/m) @ t=0.34
0
% es.tEz (V/m) @ t=0.34
2.6967180381463223
% V (V) @ t=0.34
0.013301264502296913
% es.normE (V/m) @ t=0.36
2.87099910100841
% es.EX (V/m) @ t=0.36
0.8861730107246271
% es.EY (V/m) @ t=0.36
0.21468846136655206
% es.EZ (V/m) @ t=0.36
2.7223399902792087
% es.tEX (V/m) @ t=0.36
0.8861730107246331
% es.tEY (V/m) @ t=0.36
0
% es.tEZ (V/m) @ t=0.36
2.7223399902792167
% es.Ex (V/m) @ t=0.36
0.8861730107246271
% es.Ey (V/m) @ t=0.36
0.21468846136655206
% es.Ez (V/m) @ t=0.36
2.7223399902792087
% es.tEx (V/m) @ t=0.36
0.8861730107246331
% es.tEy (V/m) @ t=0.36
0
% es.tEz (V/m) @ t=0.36
2.7223399902792167
% V (V) @ t=0.36
0.013427626212736347
% es.normE (V/m) @ t=0.38
2.898020234255161
% es.EX (V/m) @ t=0.38
0.8945135400926649
% es.EY (V/m) @ t=0.38
0.21670918203386824
% es.EZ (V/m) @ t=0.38
2.7479619424121244
% es.tEX (V/m) @ t=0.38
0.8945135400926674
% es.tEY (V/m) @ t=0.38
0
% es.tEZ (V/m) @ t=0.38
2.747961942412136
% es.Ex (V/m) @ t=0.38
0.8945135400926649
% es.Ey (V/m) @ t=0.38
0.21670918203386824
% es.Ez (V/m) @ t=0.38
2.7479619424121244
% es.tEx (V/m) @ t=0.38
0.8945135400926674
% es.tEy (V/m) @ t=0.38
0
% es.tEz (V/m) @ t=0.38
2.747961942412136
% V (V) @ t=0.38
0.013553987923175782
% es.normE (V/m) @ t=0.4
2.925041367501912
% es.EX (V/m) @ t=0.4
0.9028540694606746
% es.EY (V/m) @ t=0.4
0.2187299027011662
% es.EZ (V/m) @ t=0.4
2.7735838945450384
% es.tEX (V/m) @ t=0.4
0.9028540694606875
% es.tEY (V/m) @ t=0.4
0
% es.tEZ (V/m) @ t=0.4
2.773583894545048
% es.Ex (V/m) @ t=0.4
0.9028540694606746
% es.Ey (V/m) @ t=0.4
0.2187299027011662
% es.Ez (V/m) @ t=0.4
2.7735838945450384
% es.tEx (V/m) @ t=0.4
0.9028540694606875
% es.tEy (V/m) @ t=0.4
0
% es.tEz (V/m) @ t=0.4
2.773583894545048
% V (V) @ t=0.4
0.013680349633615214
% es.normE (V/m) @ t=0.42
2.9520625007486787
% es.EX (V/m) @ t=0.42
0.9111945988286974
% es.EY (V/m) @ t=0.42
0.22075062336847484
% es.EZ (V/m) @ t=0.42
2.7992058466779532
% es.tEX (V/m) @ t=0.42
0.9111945988287005
% es.tEY (V/m) @ t=0.42
0
% es.tEZ (V/m) @ t=0.42
2.799205846677932
% es.Ex (V/m) @ t=0.42
0.9111945988286974
% es.Ey (V/m) @ t=0.42
0.22075062336847484
% es.Ez (V/m) @ t=0.42
2.7992058466779532
% es.tEx (V/m) @ t=0.42
0.9111945988287005
% es.tEy (V/m) @ t=0.42
0
% es.tEz (V/m) @ t=0.42
2.799205846677932
% V (V) @ t=0.42
0.013806711344054649
% es.normE (V/m) @ t=0.44
2.9790836339954168
% es.EX (V/m) @ t=0.44
0.9195351281967195
% es.EY (V/m) @ t=0.44
0.22277134403579413
% es.EZ (V/m) @ t=0.44
2.8248277988108264
% es.tEX (V/m) @ t=0.44
0.9195351281967135
% es.tEY (V/m) @ t=0.44
0
% es.tEZ (V/m) @ t=0.44
2.824827798810844
% es.Ex (V/m) @ t=0.44
0.9195351281967195
% es.Ey (V/m) @ t=0.44
0.22277134403579413
% es.Ez (V/m) @ t=0.44
2.8248277988108264
% es.tEx (V/m) @ t=0.44
0.9195351281967135
% es.tEy (V/m) @ t=0.44
0
% es.tEz (V/m) @ t=0.44
2.824827798810844
% V (V) @ t=0.44
0.013933073054494084
% es.normE (V/m) @ t=0.46
3.0061047672422148
% es.EX (V/m) @ t=0.46
0.9278756575647371
% es.EY (V/m) @ t=0.46
0.22479206470309943
% es.EZ (V/m) @ t=0.46
2.8504497509437545
% es.tEX (V/m) @ t=0.46
0.9278756575647265
% es.tEY (V/m) @ t=0.46
0
% es.tEZ (V/m) @ t=0.46
2.850449750943742
% es.Ex (V/m) @ t=0.46
0.9278756575647371
% es.Ey (V/m) @ t=0.46
0.22479206470309943
% es.Ez (V/m) @ t=0.46
2.8504497509437545
% es.tEx (V/m) @ t=0.46
0.9278756575647265
% es.tEy (V/m) @ t=0.46
0
% es.tEz (V/m) @ t=0.46
2.850449750943742
% V (V) @ t=0.46
0.014059434764933515
% es.normE (V/m) @ t=0.48
3.0331259004890097
% es.EX (V/m) @ t=0.48
0.9362161869327743
% es.EY (V/m) @ t=0.48
0.22681278537040384
% es.EZ (V/m) @ t=0.48
2.876071703076663
% es.tEX (V/m) @ t=0.48
0.9362161869327821
% es.tEY (V/m) @ t=0.48
0
% es.tEZ (V/m) @ t=0.48
2.876071703076672
% es.Ex (V/m) @ t=0.48
0.9362161869327743
% es.Ey (V/m) @ t=0.48
0.22681278537040384
% es.Ez (V/m) @ t=0.48
2.876071703076663
% es.tEx (V/m) @ t=0.48
0.9362161869327821
% es.tEy (V/m) @ t=0.48
0
% es.tEz (V/m) @ t=0.48
2.876071703076672
% V (V) @ t=0.48
0.01418579647537295
% es.normE (V/m) @ t=0.5
3.0601470337357863
% es.EX (V/m) @ t=0.5
0.944556716300784
% es.EY (V/m) @ t=0.5
0.2288335060377238
% es.EZ (V/m) @ t=0.5
2.9016936552095496
% es.tEX (V/m) @ t=0.5
0.9445567163007809
% es.tEY (V/m) @ t=0.5
0
% es.tEZ (V/m) @ t=0.5
2.90169365520957
% es.Ex (V/m) @ t=0.5
0.944556716300784
% es.Ey (V/m) @ t=0.5
0.2288335060377238
% es.Ez (V/m) @ t=0.5
2.9016936552095496
% es.tEx (V/m) @ t=0.5
0.9445567163007809
% es.tEy (V/m) @ t=0.5
0
% es.tEz (V/m) @ t=0.5
2.90169365520957
% V (V) @ t=0.5
0.014312158185812385
% es.normE (V/m) @ t=0.52
3.088156341930243
% es.EX (V/m) @ t=0.52
0.9532021320563895
% es.EY (V/m) @ t=0.52
0.23092793891886254
% es.EZ (V/m) @ t=0.52
2.928252670325926
% es.tEX (V/m) @ t=0.52
0.9532021320563899
% es.tEY (V/m) @ t=0.52
0
% es.tEZ (V/m) @ t=0.52
2.9282526703259393
% es.Ex (V/m) @ t=0.52
0.9532021320563895
% es.Ey (V/m) @ t=0.52
0.23092793891886254
% es.Ez (V/m) @ t=0.52
2.928252670325926
% es.tEx (V/m) @ t=0.52
0.9532021320563899
% es.tEy (V/m) @ t=0.52
0
% es.tEz (V/m) @ t=0.52
2.9282526703259393
% V (V) @ t=0.52
0.014443164109391183
% es.normE (V/m) @ t=0.54
3.1181132032117866
% es.EX (V/m) @ t=0.54
0.9624484357688523
% es.EY (V/m) @ t=0.54
0.23316764815008906
% es.EZ (V/m) @ t=0.54
2.9566585040754987
% es.tEX (V/m) @ t=0.54
0.962448435768863
% es.tEY (V/m) @ t=0.54
0
% es.tEZ (V/m) @ t=0.54
2.9566585040754987
% es.Ex (V/m) @ t=0.54
0.9624484357688523
% es.Ey (V/m) @ t=0.54
0.23316764815008906
% es.Ez (V/m) @ t=0.54
2.9566585040754987
% es.tEx (V/m) @ t=0.54
0.962448435768863
% es.tEy (V/m) @ t=0.54
0
% es.tEz (V/m) @ t=0.54
2.9566585040754987
% V (V) @ t=0.54
0.014583323120343362
% es.normE (V/m) @ t=0.56
3.1480700644934148
% es.EX (V/m) @ t=0.56
0.9716947394813076
% es.EY (V/m) @ t=0.56
0.23540735738132668
% es.EZ (V/m) @ t=0.56
2.985064337825042
% es.tEX (V/m) @ t=0.56
0.9716947394813076
% es.tEY (V/m) @ t=0.56
0
% es.tEZ (V/m) @ t=0.56
2.985064337825044
% es.Ex (V/m) @ t=0.56
0.9716947394813076
% es.Ey (V/m) @ t=0.56
0.23540735738132668
% es.Ez (V/m) @ t=0.56
2.985064337825042
% es.tEx (V/m) @ t=0.56
0.9716947394813076
% es.tEy (V/m) @ t=0.56
0
% es.tEz (V/m) @ t=0.56
2.985064337825044
% V (V) @ t=0.56
0.014723482131295538
% es.normE (V/m) @ t=0.58
3.1780269257751397
% es.EX (V/m) @ t=0.58
0.9809410431937644
% es.EY (V/m) @ t=0.58
0.23764706661255364
% es.EZ (V/m) @ t=0.58
3.0134701715745713
% es.tEX (V/m) @ t=0.58
0.9809410431937664
% es.tEY (V/m) @ t=0.58
0
% es.tEZ (V/m) @ t=0.58
3.013470171574589
% es.Ex (V/m) @ t=0.58
0.9809410431937644
% es.Ey (V/m) @ t=0.58
0.23764706661255364
% es.Ez (V/m) @ t=0.58
3.0134701715745713
% es.tEx (V/m) @ t=0.58
0.9809410431937664
% es.tEy (V/m) @ t=0.58
0
% es.tEz (V/m) @ t=0.58
3.013470171574589
% V (V) @ t=0.58
0.014863641142247716
% es.normE (V/m) @ t=0.6
3.2079837870569943
% es.EX (V/m) @ t=0.6
0.9901873469062272
% es.EY (V/m) @ t=0.6
0.23988677584377305
% es.EZ (V/m) @ t=0.6
3.0418760053241227
% es.tEX (V/m) @ t=0.6
0.9901873469062252
% es.tEY (V/m) @ t=0.6
0
% es.tEZ (V/m) @ t=0.6
3.04187600532412
% es.Ex (V/m) @ t=0.6
0.9901873469062272
% es.Ey (V/m) @ t=0.6
0.23988677584377305
% es.Ez (V/m) @ t=0.6
3.0418760053241227
% es.tEx (V/m) @ t=0.6
0.9901873469062252
% es.tEy (V/m) @ t=0.6
0
% es.tEz (V/m) @ t=0.6
3.04187600532412
% V (V) @ t=0.6
0.015003800153199895
% es.normE (V/m) @ t=0.62
3.2379406483389257
% es.EX (V/m) @ t=0.62
0.9994336506186805
% es.EY (V/m) @ t=0.62
0.24212648507501755
% es.EZ (V/m) @ t=0.62
3.0702818390736457
% es.tEX (V/m) @ t=0.62
0.9994336506186698
% es.tEY (V/m) @ t=0.62
0
% es.tEZ (V/m) @ t=0.62
3.070281839073651
% es.Ex (V/m) @ t=0.62
0.9994336506186805
% es.Ey (V/m) @ t=0.62
0.24212648507501755
% es.Ez (V/m) @ t=0.62
3.0702818390736457
% es.tEx (V/m) @ t=0.62
0.9994336506186698
% es.tEy (V/m) @ t=0.62
0
% es.tEz (V/m) @ t=0.62
3.070281839073651
% V (V) @ t=0.62
0.015143959164152072
% es.normE (V/m) @ t=0.64
3.267897509620994
% es.EX (V/m) @ t=0.64
1.0086799543311256
% es.EY (V/m) @ t=0.64
0.24436619430624873
% es.EZ (V/m) @ t=0.64
3.0986876728232104
% es.tEX (V/m) @ t=0.64
1.0086799543311287
% es.tEY (V/m) @ t=0.64
0
% es.tEZ (V/m) @ t=0.64
3.0986876728232104
% es.Ex (V/m) @ t=0.64
1.0086799543311256
% es.Ey (V/m) @ t=0.64
0.24436619430624873
% es.Ez (V/m) @ t=0.64
3.0986876728232104
% es.tEx (V/m) @ t=0.64
1.0086799543311287
% es.tEy (V/m) @ t=0.64
0
% es.tEz (V/m) @ t=0.64
3.0986876728232104
% V (V) @ t=0.64
0.015284118175104253
% es.normE (V/m) @ t=0.66
3.2978543709031047
% es.EX (V/m) @ t=0.66
1.0179262580435693
% es.EY (V/m) @ t=0.66
0.2466059035374497
% es.EZ (V/m) @ t=0.66
3.1270935065727183
% es.tEX (V/m) @ t=0.66
1.0179262580435733
% es.tEY (V/m) @ t=0.66
0
% es.tEZ (V/m) @ t=0.66
3.127093506572727
% es.Ex (V/m) @ t=0.66
1.0179262580435693
% es.Ey (V/m) @ t=0.66
0.2466059035374497
% es.Ez (V/m) @ t=0.66
3.1270935065727183
% es.tEx (V/m) @ t=0.66
1.0179262580435733
% es.tEy (V/m) @ t=0.66
0
% es.tEz (V/m) @ t=0.66
3.127093506572727
% V (V) @ t=0.66
0.015424277186056429
% es.normE (V/m) @ t=0.68
3.327811232185379
% es.EX (V/m) @ t=0.68
1.0271725617560274
% es.EY (V/m) @ t=0.68
0.24884561276869133
% es.EZ (V/m) @ t=0.68
3.15549934032229
% es.tEX (V/m) @ t=0.68
1.027172561756032
% es.tEY (V/m) @ t=0.68
0
% es.tEZ (V/m) @ t=0.68
3.155499340322315
% es.Ex (V/m) @ t=0.68
1.0271725617560274
% es.Ey (V/m) @ t=0.68
0.24884561276869133
% es.Ez (V/m) @ t=0.68
3.15549934032229
% es.tEx (V/m) @ t=0.68
1.027172561756032
% es.tEy (V/m) @ t=0.68
0
% es.tEz (V/m) @ t=0.68
3.155499340322315
% V (V) @ t=0.68
0.01556443619700861
% es.normE (V/m) @ t=0.7
3.3577680934677065
% es.EX (V/m) @ t=0.7
1.03641886546849
% es.EY (V/m) @ t=0.7
0.2510853219998923
% es.EZ (V/m) @ t=0.7
3.1839051740718203
% es.tEX (V/m) @ t=0.7
1.036418865468491
% es.tEY (V/m) @ t=0.7
0
% es.tEZ (V/m) @ t=0.7
3.1839051740718176
% es.Ex (V/m) @ t=0.7
1.03641886546849
% es.Ey (V/m) @ t=0.7
0.2510853219998923
% es.Ez (V/m) @ t=0.7
3.1839051740718203
% es.tEx (V/m) @ t=0.7
1.036418865468491
% es.tEy (V/m) @ t=0.7
0
% es.tEz (V/m) @ t=0.7
3.1839051740718176
% V (V) @ t=0.7
0.015704595207960786
% es.normE (V/m) @ t=0.72
3.3877249547501265
% es.EX (V/m) @ t=0.72
1.0456651691809482
% es.EY (V/m) @ t=0.72
0.25332503123114747
% es.EZ (V/m) @ t=0.72
3.2123110078213495
% es.tEX (V/m) @ t=0.72
1.045665169180964
% es.tEY (V/m) @ t=0.72
0
% es.tEZ (V/m) @ t=0.72
3.2123110078213593
% es.Ex (V/m) @ t=0.72
1.0456651691809482
% es.Ey (V/m) @ t=0.72
0.25332503123114747
% es.Ez (V/m) @ t=0.72
3.2123110078213495
% es.tEx (V/m) @ t=0.72
1.045665169180964
% es.tEy (V/m) @ t=0.72
0
% es.tEz (V/m) @ t=0.72
3.2123110078213593
% V (V) @ t=0.72
0.015844754218912967
% es.normE (V/m) @ t=0.74
3.4176818160326734
% es.EX (V/m) @ t=0.74
1.0549114728934026
% es.EY (V/m) @ t=0.74
0.2555647404623751
% es.EZ (V/m) @ t=0.74
3.240716841570922
% es.tEX (V/m) @ t=0.74
1.0549114728934086
% es.tEY (V/m) @ t=0.74
0
% es.tEZ (V/m) @ t=0.74
3.240716841570922
% es.Ex (V/m) @ t=0.74
1.0549114728934026
% es.Ey (V/m) @ t=0.74
0.2555647404623751
% es.Ez (V/m) @ t=0.74
3.240716841570922
% es.tEx (V/m) @ t=0.74
1.0549114728934086
% es.tEy (V/m) @ t=0.74
0
% es.tEz (V/m) @ t=0.74
3.240716841570922
% V (V) @ t=0.74
0.015984913229865144
% es.normE (V/m) @ t=0.76
3.4476386773152843
% es.EX (V/m) @ t=0.76
1.0641577766058752
% es.EY (V/m) @ t=0.76
0.2578044496936016
% es.EZ (V/m) @ t=0.76
3.2691226753204665
% es.tEX (V/m) @ t=0.76
1.0641577766058674
% es.tEY (V/m) @ t=0.76
0
% es.tEZ (V/m) @ t=0.76
3.269122675320478
% es.Ex (V/m) @ t=0.76
1.0641577766058752
% es.Ey (V/m) @ t=0.76
0.2578044496936016
% es.Ez (V/m) @ t=0.76
3.2691226753204665
% es.tEx (V/m) @ t=0.76
1.0641577766058674
% es.tEy (V/m) @ t=0.76
0
% es.tEz (V/m) @ t=0.76
3.269122675320478
% V (V) @ t=0.76
0.01612507224081732
% es.normE (V/m) @ t=0.78
3.479266525590831
% es.EX (V/m) @ t=0.78
1.0739201900593687
% es.EY (V/m) @ t=0.78
0.2601695938801709
% es.EZ (V/m) @ t=0.78
3.2991128266880256
% es.tEX (V/m) @ t=0.78
1.0739201900593827
% es.tEY (V/m) @ t=0.78
0
% es.tEZ (V/m) @ t=0.78
3.2991128266880487
% es.Ex (V/m) @ t=0.78
1.0739201900593687
% es.Ey (V/m) @ t=0.78
0.2601695938801709
% es.Ez (V/m) @ t=0.78
3.2991128266880256
% es.tEx (V/m) @ t=0.78
1.0739201900593827
% es.tEy (V/m) @ t=0.78
0
% es.tEz (V/m) @ t=0.78
3.2991128266880487
% V (V) @ t=0.78
0.016272987225868583
% es.normE (V/m) @ t=0.8
3.5125124949129303
% es.EX (V/m) @ t=0.8
1.0841823848024328
% es.EY (V/m) @ t=0.8
0.2626562045665053
% es.EZ (V/m) @ t=0.8
3.3306371717344465
% es.tEX (V/m) @ t=0.8
1.084182384802432
% es.tEY (V/m) @ t=0.8
0
% es.tEZ (V/m) @ t=0.8
3.3306371717344483
% es.Ex (V/m) @ t=0.8
1.0841823848024328
% es.Ey (V/m) @ t=0.8
0.2626562045665053
% es.Ez (V/m) @ t=0.8
3.3306371717344465
% es.tEx (V/m) @ t=0.8
1.084182384802432
% es.tEy (V/m) @ t=0.8
0
% es.tEz (V/m) @ t=0.8
3.3306371717344483
% V (V) @ t=0.8
0.016428412804945048
% es.normE (V/m) @ t=0.82
3.545758464235183
% es.EX (V/m) @ t=0.82
1.0944445795455144
% es.EY (V/m) @ t=0.82
0.2651428152528086
% es.EZ (V/m) @ t=0.82
3.36216151678083
% es.tEX (V/m) @ t=0.82
1.0944445795455096
% es.tEY (V/m) @ t=0.82
0
% es.tEZ (V/m) @ t=0.82
3.362161516780837
% es.Ex (V/m) @ t=0.82
1.0944445795455144
% es.Ey (V/m) @ t=0.82
0.2651428152528086
% es.Ez (V/m) @ t=0.82
3.36216151678083
% es.tEx (V/m) @ t=0.82
1.0944445795455096
% es.tEy (V/m) @ t=0.82
0
% es.tEz (V/m) @ t=0.82
3.362161516780837
% V (V) @ t=0.82
0.01658383838402151
% es.normE (V/m) @ t=0.84
3.5790044335576416
% es.EX (V/m) @ t=0.84
1.1047067742886059
% es.EY (V/m) @ t=0.84
0.26762942593910743
% es.EZ (V/m) @ t=0.84
3.3936858618272376
% es.tEX (V/m) @ t=0.84
1.1047067742886156
% es.tEY (V/m) @ t=0.84
0
% es.tEZ (V/m) @ t=0.84
3.3936858618272403
% es.Ex (V/m) @ t=0.84
1.1047067742886059
% es.Ey (V/m) @ t=0.84
0.26762942593910743
% es.Ez (V/m) @ t=0.84
3.3936858618272376
% es.tEx (V/m) @ t=0.84
1.1047067742886156
% es.tEy (V/m) @ t=0.84
0
% es.tEz (V/m) @ t=0.84
3.3936858618272403
% V (V) @ t=0.84
0.016739263963097967
% es.normE (V/m) @ t=0.86
3.612250402880268
% es.EX (V/m) @ t=0.86
1.1149689690316973
% es.EY (V/m) @ t=0.86
0.27011603662543493
% es.EZ (V/m) @ t=0.86
3.4252102068736345
% es.tEX (V/m) @ t=0.86
1.1149689690317075
% es.tEY (V/m) @ t=0.86
0
% es.tEZ (V/m) @ t=0.86
3.4252102068736647
% es.Ex (V/m) @ t=0.86
1.1149689690316973
% es.Ey (V/m) @ t=0.86
0.27011603662543493
% es.Ez (V/m) @ t=0.86
3.4252102068736345
% es.tEx (V/m) @ t=0.86
1.1149689690317075
% es.tEy (V/m) @ t=0.86
0
% es.tEz (V/m) @ t=0.86
3.4252102068736647
% V (V) @ t=0.86
0.016894689542174435
% es.normE (V/m) @ t=0.88
3.645496372203079
% es.EX (V/m) @ t=0.88
1.1252311637747652
% es.EY (V/m) @ t=0.88
0.272602647311756
% es.EZ (V/m) @ t=0.88
3.4567345519200536
% es.tEX (V/m) @ t=0.88
1.125231163774771
% es.tEY (V/m) @ t=0.88
0
% es.tEZ (V/m) @ t=0.88
3.4567345519200643
% es.Ex (V/m) @ t=0.88
1.1252311637747652
% es.Ey (V/m) @ t=0.88
0.272602647311756
% es.Ez (V/m) @ t=0.88
3.4567345519200536
% es.tEx (V/m) @ t=0.88
1.125231163774771
% es.tEy (V/m) @ t=0.88
0
% es.tEz (V/m) @ t=0.88
3.4567345519200643
% V (V) @ t=0.88
0.017050115121250896
% es.normE (V/m) @ t=0.9
3.678742341526071
% es.EX (V/m) @ t=0.9
1.1354933585178582
% es.EY (V/m) @ t=0.9
0.27508925799805484
% es.EZ (V/m) @ t=0.9
3.4882588969664816
% es.tEX (V/m) @ t=0.9
1.135493358517877
% es.tEY (V/m) @ t=0.9
0
% es.tEZ (V/m) @ t=0.9
3.488258896966496
% es.Ex (V/m) @ t=0.9
1.1354933585178582
% es.Ey (V/m) @ t=0.9
0.27508925799805484
% es.Ez (V/m) @ t=0.9
3.4882588969664816
% es.tEx (V/m) @ t=0.9
1.135493358517877
% es.tEy (V/m) @ t=0.9
0
% es.tEz (V/m) @ t=0.9
3.488258896966496
% V (V) @ t=0.9
0.017205540700327357
% es.normE (V/m) @ t=0.92
3.7119883108492098
% es.EX (V/m) @ t=0.92
1.1457555532609434
% es.EY (V/m) @ t=0.92
0.27757586868440165
% es.EZ (V/m) @ t=0.92
3.5197832420128927
% es.tEX (V/m) @ t=0.92
1.1457555532609405
% es.tEY (V/m) @ t=0.92
0
% es.tEZ (V/m) @ t=0.92
3.519783242012874
% es.Ex (V/m) @ t=0.92
1.1457555532609434
% es.Ey (V/m) @ t=0.92
0.27757586868440165
% es.Ez (V/m) @ t=0.92
3.5197832420128927
% es.tEx (V/m) @ t=0.92
1.1457555532609405
% es.tEy (V/m) @ t=0.92
0
% es.tEz (V/m) @ t=0.92
3.519783242012874
% V (V) @ t=0.92
0.017360966279403818
% es.normE (V/m) @ t=0.94
3.745234280172472
% es.EX (V/m) @ t=0.94
1.1560177480040272
% es.EY (V/m) @ t=0.94
0.28006247937071405
% es.EZ (V/m) @ t=0.94
3.551307587059271
% es.tEX (V/m) @ t=0.94
1.1560177480040323
% es.tEY (V/m) @ t=0.94
0
% es.tEZ (V/m) @ t=0.94
3.551307587059277
% es.Ex (V/m) @ t=0.94
1.1560177480040272
% es.Ey (V/m) @ t=0.94
0.28006247937071405
% es.Ez (V/m) @ t=0.94
3.551307587059271
% es.tEx (V/m) @ t=0.94
1.1560177480040323
% es.tEy (V/m) @ t=0.94
0
% es.tEz (V/m) @ t=0.94
3.551307587059277
% V (V) @ t=0.94
0.017516391858480283
% es.normE (V/m) @ t=0.96
3.7784802494959155
% es.EX (V/m) @ t=0.96
1.166279942747112
% es.EY (V/m) @ t=0.96
0.28254909005704487
% es.EZ (V/m) @ t=0.96
3.5828319321056776
% es.tEX (V/m) @ t=0.96
1.16627994274711
% es.tEY (V/m) @ t=0.96
0
% es.tEZ (V/m) @ t=0.96
3.5828319321056767
% es.Ex (V/m) @ t=0.96
1.166279942747112
% es.Ey (V/m) @ t=0.96
0.28254909005704487
% es.Ez (V/m) @ t=0.96
3.5828319321056776
% es.tEx (V/m) @ t=0.96
1.16627994274711
% es.tEy (V/m) @ t=0.96
0
% es.tEz (V/m) @ t=0.96
3.5828319321056767
% V (V) @ t=0.96
0.01767181743755674
% es.normE (V/m) @ t=0.98
3.811726218819488
% es.EX (V/m) @ t=0.98
1.1765421374902043
% es.EY (V/m) @ t=0.98
0.2850357007433446
% es.EZ (V/m) @ t=0.98
3.614356277152062
% es.tEX (V/m) @ t=0.98
1.176542137490216
% es.tEY (V/m) @ t=0.98
0
% es.tEZ (V/m) @ t=0.98
3.6143562771520834
% es.Ex (V/m) @ t=0.98
1.1765421374902043
% es.Ey (V/m) @ t=0.98
0.2850357007433446
% es.Ez (V/m) @ t=0.98
3.614356277152062
% es.tEx (V/m) @ t=0.98
1.176542137490216
% es.tEy (V/m) @ t=0.98
0
% es.tEz (V/m) @ t=0.98
3.6143562771520834
% V (V) @ t=0.98
0.017827243016633205
% es.normE (V/m) @ t=1
3.8449721881432426
% es.EX (V/m) @ t=1
1.1868043322332826
% es.EY (V/m) @ t=1
0.2875223114296763
% es.EZ (V/m) @ t=1
3.6458806221984874
% es.tEX (V/m) @ t=1
1.1868043322332937
% es.tEY (V/m) @ t=1
0
% es.tEZ (V/m) @ t=1
3.6458806221985007
% es.Ex (V/m) @ t=1
1.1868043322332826
% es.Ey (V/m) @ t=1
0.2875223114296763
% es.Ez (V/m) @ t=1
3.6458806221984874
% es.tEx (V/m) @ t=1
1.1868043322332937
% es.tEy (V/m) @ t=1
0
% es.tEz (V/m) @ t=1
3.6458806221985007
% V (V) @ t=1
0.017982668595709666
% es.normE (V/m) @ t=1.02
3.8782181574671215
% es.EX (V/m) @ t=1.02
1.1970665269763607
% es.EY (V/m) @ t=1.02
0.29000892211599916
% es.EZ (V/m) @ t=1.02
3.677404967244895
% es.tEX (V/m) @ t=1.02
1.1970665269763714
% es.tEY (V/m) @ t=1.02
0
% es.tEZ (V/m) @ t=1.02
3.677404967244904
% es.Ex (V/m) @ t=1.02
1.1970665269763607
% es.Ey (V/m) @ t=1.02
0.29000892211599916
% es.Ez (V/m) @ t=1.02
3.677404967244895
% es.tEx (V/m) @ t=1.02
1.1970665269763714
% es.tEy (V/m) @ t=1.02
0
% es.tEz (V/m) @ t=1.02
3.677404967244904
% V (V) @ t=1.02
0.018138094174786134
% es.normE (V/m) @ t=1.04
3.9125539960322273
% es.EX (V/m) @ t=1.04
1.2076650049806532
% es.EY (V/m) @ t=1.04
0.29257686024311247
% es.EZ (V/m) @ t=1.04
3.7099628006044725
% es.tEX (V/m) @ t=1.04
1.2076650049806403
% es.tEY (V/m) @ t=1.04
0
% es.tEZ (V/m) @ t=1.04
3.709962800604469
% es.Ex (V/m) @ t=1.04
1.2076650049806532
% es.Ey (V/m) @ t=1.04
0.29257686024311247
% es.Ez (V/m) @ t=1.04
3.7099628006044725
% es.tEx (V/m) @ t=1.04
1.2076650049806403
% es.tEy (V/m) @ t=1.04
0
% es.tEz (V/m) @ t=1.04