% Model:              1 neuron.mph
% Version:            COMSOL 6.1.0.252
% Date:               Mar 22 2023, 19:37
% Dimension:          0
% Nodes:              14017
% Expressions:        14017
% Description:        Electric field norm, Electric field, X component, Electric field, Y component, Electric field, Z component, Tangential electric field, X component, Tangential electric field, Y component, Tangential electric field, Z component, Electric field, x component, Electric field, y component, Electric field, z component, Tangential electric field, x component, Tangential electric field, y component, Tangential electric field, z component, Electric potential
% Length unit:        mm
% x
1.33
% y
12.2
% z
1
% es.normE (V/m) @ t=0
2.840949490302986
% es.EX (V/m) @ t=0
0.8768977562823987
% es.EY (V/m) @ t=0
0.21244038110789676
% es.EZ (V/m) @ t=0
2.6938464234897896
% es.tEX (V/m) @ t=0
0.8768977562824034
% es.tEY (V/m) @ t=0
0
% es.tEZ (V/m) @ t=0
2.6938464234898056
% es.Ex (V/m) @ t=0
0.8768977562823987
% es.Ey (V/m) @ t=0
0.21244038110789676
% es.Ez (V/m) @ t=0
2.6938464234897896
% es.tEx (V/m) @ t=0
0.8768977562824034
% es.tEy (V/m) @ t=0
0
% es.tEz (V/m) @ t=0
2.6938464234898056
% V (V) @ t=0
0.013287192647473823
% es.normE (V/m) @ t=0.02
2.453763542633243
% es.EX (V/m) @ t=0.02
0.7573875397848804
% es.EY (V/m) @ t=0.02
0.1834874093922092
% es.EZ (V/m) @ t=0.02
2.3267087873011
% es.tEX (V/m) @ t=0.02
0.7573875397848795
% es.tEY (V/m) @ t=0.02
0
% es.tEZ (V/m) @ t=0.02
2.3267087873011043
% es.Ex (V/m) @ t=0.02
0.7573875397848804
% es.Ey (V/m) @ t=0.02
0.1834874093922092
% es.Ez (V/m) @ t=0.02
2.3267087873011
% es.tEx (V/m) @ t=0.02
0.7573875397848795
% es.tEy (V/m) @ t=0.02
0
% es.tEz (V/m) @ t=0.02
2.3267087873011043
% V (V) @ t=0.02
0.011476314169494371
% es.normE (V/m) @ t=0.04
2.4763425275418633
% es.EX (V/m) @ t=0.04
0.7643568510488493
% es.EY (V/m) @ t=0.04
0.18517581964136864
% es.EZ (V/m) @ t=0.04
2.3481186426747036
% es.tEX (V/m) @ t=0.04
0.7643568510488521
% es.tEY (V/m) @ t=0.04
0
% es.tEZ (V/m) @ t=0.04
2.348118642674697
% es.Ex (V/m) @ t=0.04
0.7643568510488493
% es.Ey (V/m) @ t=0.04
0.18517581964136864
% es.Ez (V/m) @ t=0.04
2.3481186426747036
% es.tEx (V/m) @ t=0.04
0.7643568510488521
% es.tEy (V/m) @ t=0.04
0
% es.tEz (V/m) @ t=0.04
2.348118642674697
% V (V) @ t=0.04
0.011581916651895676
% es.normE (V/m) @ t=0.06
2.4990904392827873
% es.EX (V/m) @ t=0.06
0.7713783037507751
% es.EY (V/m) @ t=0.06
0.18687686185991015
% es.EZ (V/m) @ t=0.06
2.3696886779707813
% es.tEX (V/m) @ t=0.06
0.7713783037507724
% es.tEY (V/m) @ t=0.06
0
% es.tEZ (V/m) @ t=0.06
2.369688677970805
% es.Ex (V/m) @ t=0.06
0.7713783037507751
% es.Ey (V/m) @ t=0.06
0.18687686185991015
% es.Ez (V/m) @ t=0.06
2.3696886779707813
% es.tEx (V/m) @ t=0.06
0.7713783037507724
% es.tEy (V/m) @ t=0.06
0
% es.tEz (V/m) @ t=0.06
2.369688677970805
% V (V) @ t=0.06
0.011688309222008367
% es.normE (V/m) @ t=0.08
2.522264930234855
% es.EX (V/m) @ t=0.08
0.7785314260239754
% es.EY (V/m) @ t=0.08
0.188609802795917
% es.EZ (V/m) @ t=0.08
2.391663204373276
% es.tEX (V/m) @ t=0.08
0.7785314260239744
% es.tEY (V/m) @ t=0.08
0
% es.tEZ (V/m) @ t=0.08
2.391663204373275
% es.Ex (V/m) @ t=0.08
0.7785314260239754
% es.Ey (V/m) @ t=0.08
0.188609802795917
% es.Ez (V/m) @ t=0.08
2.391663204373276
% es.tEx (V/m) @ t=0.08
0.7785314260239744
% es.tEy (V/m) @ t=0.08
0
% es.tEz (V/m) @ t=0.08
2.391663204373275
% V (V) @ t=0.08
0.01179669690382299
% es.normE (V/m) @ t=0.1
2.54557029251058
% es.EX (V/m) @ t=0.1
0.7857249435406171
% es.EY (V/m) @ t=0.1
0.19035253002080843
% es.EZ (V/m) @ t=0.1
2.4137618256334643
% es.tEX (V/m) @ t=0.1
0.7857249435406146
% es.tEY (V/m) @ t=0.1
0
% es.tEZ (V/m) @ t=0.1
2.4137618256334648
% es.Ex (V/m) @ t=0.1
0.7857249435406171
% es.Ey (V/m) @ t=0.1
0.19035253002080843
% es.Ez (V/m) @ t=0.1
2.4137618256334643
% es.tEx (V/m) @ t=0.1
0.7857249435406146
% es.tEy (V/m) @ t=0.1
0
% es.tEz (V/m) @ t=0.1
2.4137618256334648
% V (V) @ t=0.1
0.011905696671042893
% es.normE (V/m) @ t=0.12
2.568875654786302
% es.EX (V/m) @ t=0.12
0.7929184610572535
% es.EY (V/m) @ t=0.12
0.19209525724571785
% es.EZ (V/m) @ t=0.12
2.43586044689365
% es.tEX (V/m) @ t=0.12
0.7929184610572548
% es.tEY (V/m) @ t=0.12
0
% es.tEZ (V/m) @ t=0.12
2.435860446893642
% es.Ex (V/m) @ t=0.12
0.7929184610572535
% es.Ey (V/m) @ t=0.12
0.19209525724571785
% es.Ez (V/m) @ t=0.12
2.43586044689365
% es.tEx (V/m) @ t=0.12
0.7929184610572548
% es.tEy (V/m) @ t=0.12
0
% es.tEz (V/m) @ t=0.12
2.435860446893642
% V (V) @ t=0.12
0.012014696438262801
% es.normE (V/m) @ t=0.14
2.592815927729344
% es.EX (V/m) @ t=0.14
0.800307952367994
% es.EY (V/m) @ t=0.14
0.19388546177643096
% es.EZ (V/m) @ t=0.14
2.458561103447945
% es.tEX (V/m) @ t=0.14
0.8003079523679872
% es.tEY (V/m) @ t=0.14
0
% es.tEZ (V/m) @ t=0.14
2.4585611034479395
% es.Ex (V/m) @ t=0.14
0.800307952367994
% es.Ey (V/m) @ t=0.14
0.19388546177643096
% es.Ez (V/m) @ t=0.14
2.458561103447945
% es.tEx (V/m) @ t=0.14
0.8003079523679872
% es.tEy (V/m) @ t=0.14
0
% es.tEz (V/m) @ t=0.14
2.4585611034479395
% V (V) @ t=0.14
0.012126665701493396
% es.normE (V/m) @ t=0.16
2.6172972378310346
% es.EX (V/m) @ t=0.16
0.8078644421403711
% es.EY (V/m) @ t=0.16
0.19571612394629256
% es.EZ (V/m) @ t=0.16
2.4817747825134324
% es.tEX (V/m) @ t=0.16
0.807864442140378
% es.tEY (V/m) @ t=0.16
0
% es.tEZ (V/m) @ t=0.16
2.481774782513444
% es.Ex (V/m) @ t=0.16
0.8078644421403711
% es.Ey (V/m) @ t=0.16
0.19571612394629256
% es.Ez (V/m) @ t=0.16
2.4817747825134324
% es.tEx (V/m) @ t=0.16
0.807864442140378
% es.tEy (V/m) @ t=0.16
0
% es.tEz (V/m) @ t=0.16
2.481774782513444
% V (V) @ t=0.16
0.012241165411552506
% es.normE (V/m) @ t=0.18
2.6417785479327573
% es.EX (V/m) @ t=0.18
0.8154209319127568
% es.EY (V/m) @ t=0.18
0.19754678611608678
% es.EZ (V/m) @ t=0.18
2.504988461578957
% es.tEX (V/m) @ t=0.18
0.8154209319127546
% es.tEY (V/m) @ t=0.18
0
% es.tEZ (V/m) @ t=0.18
2.5049884615789626
% es.Ex (V/m) @ t=0.18
0.8154209319127568
% es.Ey (V/m) @ t=0.18
0.19754678611608678
% es.Ez (V/m) @ t=0.18
2.504988461578957
% es.tEx (V/m) @ t=0.18
0.8154209319127546
% es.tEy (V/m) @ t=0.18
0
% es.tEz (V/m) @ t=0.18
2.5049884615789626
% V (V) @ t=0.18
0.012355665121611611
% es.normE (V/m) @ t=0.2
2.666259858034472
% es.EX (V/m) @ t=0.2
0.8229774216851402
% es.EY (V/m) @ t=0.2
0.19937744828593862
% es.EZ (V/m) @ t=0.2
2.528202140644469
% es.tEX (V/m) @ t=0.2
0.8229774216851382
% es.tEY (V/m) @ t=0.2
0
% es.tEZ (V/m) @ t=0.2
2.5282021406444812
% es.Ex (V/m) @ t=0.2
0.8229774216851402
% es.Ey (V/m) @ t=0.2
0.19937744828593862
% es.Ez (V/m) @ t=0.2
2.528202140644469
% es.tEx (V/m) @ t=0.2
0.8229774216851382
% es.tEy (V/m) @ t=0.2
0
% es.tEz (V/m) @ t=0.2
2.5282021406444812
% V (V) @ t=0.2
0.012470164831670716
% es.normE (V/m) @ t=0.22
2.6907411681362223
% es.EX (V/m) @ t=0.22
0.8305339114575294
% es.EY (V/m) @ t=0.22
0.20120811045577547
% es.EZ (V/m) @ t=0.22
2.551415819710017
% es.tEX (V/m) @ t=0.22
0.8305339114575361
% es.tEY (V/m) @ t=0.22
0
% es.tEZ (V/m) @ t=0.22
2.5514158197100283
% es.Ex (V/m) @ t=0.22
0.8305339114575294
% es.Ey (V/m) @ t=0.22
0.20120811045577547
% es.Ez (V/m) @ t=0.22
2.551415819710017
% es.tEx (V/m) @ t=0.22
0.8305339114575361
% es.tEy (V/m) @ t=0.22
0
% es.tEz (V/m) @ t=0.22
2.5514158197100283
% V (V) @ t=0.22
0.012584664541729825
% es.normE (V/m) @ t=0.24
2.7152224782379553
% es.EX (V/m) @ t=0.24
0.838090401229928
% es.EY (V/m) @ t=0.24
0.2030387726255659
% es.EZ (V/m) @ t=0.24
2.5746294987755483
% es.tEX (V/m) @ t=0.24
0.8380904012299268
% es.tEY (V/m) @ t=0.24
0
% es.tEZ (V/m) @ t=0.24
2.574629498775547
% es.Ex (V/m) @ t=0.24
0.838090401229928
% es.Ey (V/m) @ t=0.24
0.2030387726255659
% es.Ez (V/m) @ t=0.24
2.5746294987755483
% es.tEx (V/m) @ t=0.24
0.8380904012299268
% es.tEy (V/m) @ t=0.24
0
% es.tEz (V/m) @ t=0.24
2.574629498775547
% V (V) @ t=0.24
0.012699164251788932
% es.normE (V/m) @ t=0.26
2.7399384327568317
% es.EX (V/m) @ t=0.26
0.8457193161033083
% es.EY (V/m) @ t=0.26
0.20488698026959395
% es.EZ (V/m) @ t=0.26
2.598065672888492
% es.tEX (V/m) @ t=0.26
0.8457193161033203
% es.tEY (V/m) @ t=0.26
0
% es.tEZ (V/m) @ t=0.26
2.598065672888504
% es.Ex (V/m) @ t=0.26
0.8457193161033083
% es.Ey (V/m) @ t=0.26
0.20488698026959395
% es.Ez (V/m) @ t=0.26
2.598065672888492
% es.tEx (V/m) @ t=0.26
0.8457193161033203
% es.tEy (V/m) @ t=0.26
0
% es.tEz (V/m) @ t=0.26
2.598065672888504
% V (V) @ t=0.26
0.012814761473511014
% es.normE (V/m) @ t=0.28
2.7670480130601574
% es.EX (V/m) @ t=0.28
0.8540870450141771
% es.EY (V/m) @ t=0.28
0.20691417064797513
% es.EZ (V/m) @ t=0.28
2.6237715361288307
% es.tEX (V/m) @ t=0.28
0.8540870450141895
% es.tEY (V/m) @ t=0.28
0
% es.tEZ (V/m) @ t=0.28
2.6237715361288316
% es.Ex (V/m) @ t=0.28
0.8540870450141771
% es.Ey (V/m) @ t=0.28
0.20691417064797513
% es.Ez (V/m) @ t=0.28
2.6237715361288307
% es.tEx (V/m) @ t=0.28
0.8540870450141895
% es.tEy (V/m) @ t=0.28
0
% es.tEz (V/m) @ t=0.28
2.6237715361288316
% V (V) @ t=0.28
0.012941554496296448
% es.normE (V/m) @ t=0.3
2.794157593363454
% es.EX (V/m) @ t=0.3
0.8624547739250341
% es.EY (V/m) @ t=0.3
0.20894136102638128
% es.EZ (V/m) @ t=0.3
2.6494773993691405
% es.tEX (V/m) @ t=0.3
0.8624547739250303
% es.tEY (V/m) @ t=0.3
0
% es.tEZ (V/m) @ t=0.3
2.649477399369143
% es.Ex (V/m) @ t=0.3
0.8624547739250341
% es.Ey (V/m) @ t=0.3
0.20894136102638128
% es.Ez (V/m) @ t=0.3
2.6494773993691405
% es.tEx (V/m) @ t=0.3
0.8624547739250303
% es.tEy (V/m) @ t=0.3
0
% es.tEz (V/m) @ t=0.3
2.649477399369143
% V (V) @ t=0.3
0.013068347519081883
% es.normE (V/m) @ t=0.32
2.821267173666774
% es.EX (V/m) @ t=0.32
0.8708225028358869
% es.EY (V/m) @ t=0.32
0.21096855140476567
% es.EZ (V/m) @ t=0.32
2.675183262609478
% es.tEX (V/m) @ t=0.32
0.8708225028358854
% es.tEY (V/m) @ t=0.32
0
% es.tEZ (V/m) @ t=0.32
2.675183262609494
% es.Ex (V/m) @ t=0.32
0.8708225028358869
% es.Ey (V/m) @ t=0.32
0.21096855140476567
% es.Ez (V/m) @ t=0.32
2.675183262609478
% es.tEx (V/m) @ t=0.32
0.8708225028358854
% es.tEy (V/m) @ t=0.32
0
% es.tEz (V/m) @ t=0.32
2.675183262609494
% V (V) @ t=0.32
0.013195140541867316
% es.normE (V/m) @ t=0.34
2.8483767539700526
% es.EX (V/m) @ t=0.34
0.8791902317467322
% es.EY (V/m) @ t=0.34
0.21299574178313985
% es.EZ (V/m) @ t=0.34
2.7008891258497743
% es.tEX (V/m) @ t=0.34
0.8791902317467404
% es.tEY (V/m) @ t=0.34
0
% es.tEZ (V/m) @ t=0.34
2.7008891258497876
% es.Ex (V/m) @ t=0.34
0.8791902317467322
% es.Ey (V/m) @ t=0.34
0.21299574178313985
% es.Ez (V/m) @ t=0.34
2.7008891258497743
% es.tEx (V/m) @ t=0.34
0.8791902317467404
% es.tEy (V/m) @ t=0.34
0
% es.tEz (V/m) @ t=0.34
2.7008891258497876
% V (V) @ t=0.34
0.013321933564652751
% es.normE (V/m) @ t=0.36
2.8754863342733987
% es.EX (V/m) @ t=0.36
0.8875579606575907
% es.EY (V/m) @ t=0.36
0.215022932161556
% es.EZ (V/m) @ t=0.36
2.7265949890901346
% es.tEX (V/m) @ t=0.36
0.8875579606575812
% es.tEY (V/m) @ t=0.36
0
% es.tEZ (V/m) @ t=0.36
2.7265949890901275
% es.Ex (V/m) @ t=0.36
0.8875579606575907
% es.Ey (V/m) @ t=0.36
0.215022932161556
% es.Ez (V/m) @ t=0.36
2.7265949890901346
% es.tEx (V/m) @ t=0.36
0.8875579606575812
% es.tEy (V/m) @ t=0.36
0
% es.tEz (V/m) @ t=0.36
2.7265949890901275
% V (V) @ t=0.36
0.013448726587438184
% es.normE (V/m) @ t=0.38
2.902595914576712
% es.EX (V/m) @ t=0.38
0.8959256895684555
% es.EY (V/m) @ t=0.38
0.2170501225399617
% es.EZ (V/m) @ t=0.38
2.7523008523304586
% es.tEX (V/m) @ t=0.38
0.8959256895684646
% es.tEY (V/m) @ t=0.38
0
% es.tEZ (V/m) @ t=0.38
2.752300852330464
% es.Ex (V/m) @ t=0.38
0.8959256895684555
% es.Ey (V/m) @ t=0.38
0.2170501225399617
% es.Ez (V/m) @ t=0.38
2.7523008523304586
% es.tEx (V/m) @ t=0.38
0.8959256895684646
% es.tEy (V/m) @ t=0.38
0
% es.tEz (V/m) @ t=0.38
2.752300852330464
% V (V) @ t=0.38
0.01357551961022362
% es.normE (V/m) @ t=0.4
2.9297054948800176
% es.EX (V/m) @ t=0.4
0.9042934184793148
% es.EY (V/m) @ t=0.4
0.21907731291835364
% es.EZ (V/m) @ t=0.4
2.7780067155707773
% es.tEX (V/m) @ t=0.4
0.9042934184793125
% es.tEY (V/m) @ t=0.4
0
% es.tEZ (V/m) @ t=0.4
2.778006715570779
% es.Ex (V/m) @ t=0.4
0.9042934184793148
% es.Ey (V/m) @ t=0.4
0.21907731291835364
% es.Ez (V/m) @ t=0.4
2.7780067155707773
% es.tEx (V/m) @ t=0.4
0.9042934184793125
% es.tEy (V/m) @ t=0.4
0
% es.tEz (V/m) @ t=0.4
2.778006715570779
% V (V) @ t=0.4
0.013702312633009053
% es.normE (V/m) @ t=0.42
2.956815075183319
% es.EX (V/m) @ t=0.42
0.9126611473901522
% es.EY (V/m) @ t=0.42
0.22110450329671694
% es.EZ (V/m) @ t=0.42
2.8037125788111004
% es.tEX (V/m) @ t=0.42
0.9126611473901534
% es.tEY (V/m) @ t=0.42
0
% es.tEZ (V/m) @ t=0.42
2.8037125788111155
% es.Ex (V/m) @ t=0.42
0.9126611473901522
% es.Ey (V/m) @ t=0.42
0.22110450329671694
% es.Ez (V/m) @ t=0.42
2.8037125788111004
% es.tEx (V/m) @ t=0.42
0.9126611473901534
% es.tEy (V/m) @ t=0.42
0
% es.tEz (V/m) @ t=0.42
2.8037125788111155
% V (V) @ t=0.42
0.013829105655794486
% es.normE (V/m) @ t=0.44
2.9839246554866383
% es.EX (V/m) @ t=0.44
0.9210288763010162
% es.EY (V/m) @ t=0.44
0.22313169367511976
% es.EZ (V/m) @ t=0.44
2.8294184420514314
% es.tEX (V/m) @ t=0.44
0.9210288763010226
% es.tEY (V/m) @ t=0.44
0
% es.tEZ (V/m) @ t=0.44
2.8294184420514377
% es.Ex (V/m) @ t=0.44
0.9210288763010162
% es.Ey (V/m) @ t=0.44
0.22313169367511976
% es.Ez (V/m) @ t=0.44
2.8294184420514314
% es.tEx (V/m) @ t=0.44
0.9210288763010226
% es.tEy (V/m) @ t=0.44
0
% es.tEz (V/m) @ t=0.44
2.8294184420514377
% V (V) @ t=0.44
0.013955898678579923
% es.normE (V/m) @ t=0.46
3.0110342357899618
% es.EX (V/m) @ t=0.46
0.9293966052118694
% es.EY (V/m) @ t=0.46
0.22515888405351459
% es.EZ (V/m) @ t=0.46
2.8551243052917705
% es.tEX (V/m) @ t=0.46
0.9293966052118776
% es.tEY (V/m) @ t=0.46
0
% es.tEZ (V/m) @ t=0.46
2.8551243052917776
% es.Ex (V/m) @ t=0.46
0.9293966052118694
% es.Ey (V/m) @ t=0.46
0.22515888405351459
% es.Ez (V/m) @ t=0.46
2.8551243052917705
% es.tEx (V/m) @ t=0.46
0.9293966052118776
% es.tEy (V/m) @ t=0.46
0
% es.tEz (V/m) @ t=0.46
2.8551243052917776
% V (V) @ t=0.46
0.014082691701365354
% es.normE (V/m) @ t=0.48
3.0381438160932706
% es.EX (V/m) @ t=0.48
0.9377643341227211
% es.EY (V/m) @ t=0.48
0.22718607443190275
% es.EZ (V/m) @ t=0.48
2.8808301685320945
% es.tEX (V/m) @ t=0.48
0.9377643341227184
% es.tEY (V/m) @ t=0.48
0
% es.tEZ (V/m) @ t=0.48
2.8808301685321
% es.Ex (V/m) @ t=0.48
0.9377643341227211
% es.Ey (V/m) @ t=0.48
0.22718607443190275
% es.Ez (V/m) @ t=0.48
2.8808301685320945
% es.tEx (V/m) @ t=0.48
0.9377643341227184
% es.tEy (V/m) @ t=0.48
0
% es.tEz (V/m) @ t=0.48
2.8808301685321
% V (V) @ t=0.48
0.01420948472415079
% es.normE (V/m) @ t=0.5
3.0652533963965496
% es.EX (V/m) @ t=0.5
0.9461320630335712
% es.EY (V/m) @ t=0.5
0.22921326481026605
% es.EZ (V/m) @ t=0.5
2.90653603177239
% es.tEX (V/m) @ t=0.5
0.9461320630335734
% es.tEY (V/m) @ t=0.5
0
% es.tEZ (V/m) @ t=0.5
2.906536031772397
% es.Ex (V/m) @ t=0.5
0.9461320630335712
% es.Ey (V/m) @ t=0.5
0.22921326481026605
% es.Ez (V/m) @ t=0.5
2.90653603177239
% es.tEx (V/m) @ t=0.5
0.9461320630335734
% es.tEy (V/m) @ t=0.5
0
% es.tEz (V/m) @ t=0.5
2.906536031772397
% V (V) @ t=0.5
0.014336277746936224
% es.normE (V/m) @ t=0.52
3.0929190966245965
% es.EX (V/m) @ t=0.52
0.9546714485653252
% es.EY (V/m) @ t=0.52
0.2312820424768074
% es.EZ (V/m) @ t=0.52
2.9327692183162384
% es.tEX (V/m) @ t=0.52
0.9546714485653212
% es.tEY (V/m) @ t=0.52
0
% es.tEZ (V/m) @ t=0.52
2.9327692183162455
% es.Ex (V/m) @ t=0.52
0.9546714485653252
% es.Ey (V/m) @ t=0.52
0.2312820424768074
% es.Ez (V/m) @ t=0.52
2.9327692183162384
% es.tEx (V/m) @ t=0.52
0.9546714485653212
% es.tEy (V/m) @ t=0.52
0
% es.tEz (V/m) @ t=0.52
2.9327692183162455
% V (V) @ t=0.52
0.014465671578599135
% es.normE (V/m) @ t=0.54
3.1229867076250795
% es.EX (V/m) @ t=0.54
0.9639522279377646
% es.EY (V/m) @ t=0.54
0.23353043779567018
% es.EZ (V/m) @ t=0.54
2.9612799415333244
% es.tEX (V/m) @ t=0.54
0.9639522279377672
% es.tEY (V/m) @ t=0.54
0
% es.tEZ (V/m) @ t=0.54
2.961279941533327
% es.Ex (V/m) @ t=0.54
0.9639522279377646
% es.Ey (V/m) @ t=0.54
0.23353043779567018
% es.Ez (V/m) @ t=0.54
2.9612799415333244
% es.tEx (V/m) @ t=0.54
0.9639522279377672
% es.tEy (V/m) @ t=0.54
0
% es.tEz (V/m) @ t=0.54
2.961279941533327
% V (V) @ t=0.54
0.014606298438575995
% es.normE (V/m) @ t=0.56
3.153054318625585
% es.EX (V/m) @ t=0.56
0.9732330073102278
% es.EY (V/m) @ t=0.56
0.2357788331145536
% es.EZ (V/m) @ t=0.56
2.9897906647504247
% es.tEX (V/m) @ t=0.56
0.9732330073102418
% es.tEY (V/m) @ t=0.56
0
% es.tEZ (V/m) @ t=0.56
2.9897906647504264
% es.Ex (V/m) @ t=0.56
0.9732330073102278
% es.Ey (V/m) @ t=0.56
0.2357788331145536
% es.Ez (V/m) @ t=0.56
2.9897906647504247
% es.tEx (V/m) @ t=0.56
0.9732330073102418
% es.tEy (V/m) @ t=0.56
0
% es.tEz (V/m) @ t=0.56
2.9897906647504264
% V (V) @ t=0.56
0.014746925298552854
% es.normE (V/m) @ t=0.58
3.1831219296260445
% es.EX (V/m) @ t=0.58
0.9825137866826694
% es.EY (V/m) @ t=0.58
0.2380272284334306
% es.EZ (V/m) @ t=0.58
3.018301387967483
% es.tEX (V/m) @ t=0.58
0.9825137866826879
% es.tEY (V/m) @ t=0.58
0
% es.tEZ (V/m) @ t=0.58
3.0183013879674903
% es.Ex (V/m) @ t=0.58
0.9825137866826694
% es.Ey (V/m) @ t=0.58
0.2380272284334306
% es.Ez (V/m) @ t=0.58
3.018301387967483
% es.tEx (V/m) @ t=0.58
0.9825137866826879
% es.tEy (V/m) @ t=0.58
0
% es.tEz (V/m) @ t=0.58
3.0183013879674903
% V (V) @ t=0.58
0.014887552158529712
% es.normE (V/m) @ t=0.6
3.213189540626554
% es.EX (V/m) @ t=0.6
0.9917945660551257
% es.EY (V/m) @ t=0.6
0.24027562375231826
% es.EZ (V/m) @ t=0.6
3.0468121111845896
% es.tEX (V/m) @ t=0.6
0.9917945660551339
% es.tEY (V/m) @ t=0.6
0
% es.tEZ (V/m) @ t=0.6
3.0468121111845896
% es.Ex (V/m) @ t=0.6
0.9917945660551257
% es.Ey (V/m) @ t=0.6
0.24027562375231826
% es.Ez (V/m) @ t=0.6
3.0468121111845896
% es.tEx (V/m) @ t=0.6
0.9917945660551339
% es.tEy (V/m) @ t=0.6
0
% es.tEz (V/m) @ t=0.6
3.0468121111845896
% V (V) @ t=0.6
0.01502817901850657
% es.normE (V/m) @ t=0.62
3.24325715162709
% es.EX (V/m) @ t=0.62
1.001075345427597
% es.EY (V/m) @ t=0.62
0.24252401907117993
% es.EZ (V/m) @ t=0.62
3.075322834401721
% es.tEX (V/m) @ t=0.62
1.0010753454275942
% es.tEY (V/m) @ t=0.62
0
% es.tEZ (V/m) @ t=0.62
3.0753228344017174
% es.Ex (V/m) @ t=0.62
1.001075345427597
% es.Ey (V/m) @ t=0.62
0.24252401907117993
% es.Ez (V/m) @ t=0.62
3.075322834401721
% es.tEx (V/m) @ t=0.62
1.0010753454275942
% es.tEy (V/m) @ t=0.62
0
% es.tEz (V/m) @ t=0.62
3.0753228344017174
% V (V) @ t=0.62
0.015168805878483429
% es.normE (V/m) @ t=0.64
3.273324762627577
% es.EX (V/m) @ t=0.64
1.0103561248000434
% es.EY (V/m) @ t=0.64
0.2447724143900818
% es.EZ (V/m) @ t=0.64
3.103833557618806
% es.tEX (V/m) @ t=0.64
1.0103561248000545
% es.tEY (V/m) @ t=0.64
0
% es.tEZ (V/m) @ t=0.64
3.103833557618813
% es.Ex (V/m) @ t=0.64
1.0103561248000434
% es.Ey (V/m) @ t=0.64
0.2447724143900818
% es.Ez (V/m) @ t=0.64
3.103833557618806
% es.tEx (V/m) @ t=0.64
1.0103561248000545
% es.tEy (V/m) @ t=0.64
0
% es.tEz (V/m) @ t=0.64
3.103833557618813
% V (V) @ t=0.64
0.015309432738460287
% es.normE (V/m) @ t=0.66
3.3033923736280615
% es.EX (V/m) @ t=0.66
1.0196369041725104
% es.EY (V/m) @ t=0.66
0.24702080970894813
% es.EZ (V/m) @ t=0.66
3.132344280835884
% es.tEX (V/m) @ t=0.66
1.0196369041725148
% es.tEY (V/m) @ t=0.66
0
% es.tEZ (V/m) @ t=0.66
3.132344280835909
% es.Ex (V/m) @ t=0.66
1.0196369041725104
% es.Ey (V/m) @ t=0.66
0.24702080970894813
% es.Ez (V/m) @ t=0.66
3.132344280835884
% es.tEx (V/m) @ t=0.66
1.0196369041725148
% es.tEy (V/m) @ t=0.66
0
% es.tEz (V/m) @ t=0.66
3.132344280835909
% V (V) @ t=0.66
0.015450059598437146
% es.normE (V/m) @ t=0.68
3.3334599846285604
% es.EX (V/m) @ t=0.68
1.0289176835449558
% es.EY (V/m) @ t=0.68
0.24926920502781003
% es.EZ (V/m) @ t=0.68
3.1608550040529844
% es.tEX (V/m) @ t=0.68
1.028917683544961
% es.tEY (V/m) @ t=0.68
0
% es.tEZ (V/m) @ t=0.68
3.1608550040529906
% es.Ex (V/m) @ t=0.68
1.0289176835449558
% es.Ey (V/m) @ t=0.68
0.24926920502781003
% es.Ez (V/m) @ t=0.68
3.1608550040529844
% es.tEx (V/m) @ t=0.68
1.028917683544961
% es.tEy (V/m) @ t=0.68
0
% es.tEz (V/m) @ t=0.68
3.1608550040529906
% V (V) @ t=0.68
0.015590686458414006
% es.normE (V/m) @ t=0.7
3.363527595629069
% es.EX (V/m) @ t=0.7
1.038198462917405
% es.EY (V/m) @ t=0.7
0.25151760034670834
% es.EZ (V/m) @ t=0.7
3.1893657272700917
% es.tEX (V/m) @ t=0.7
1.038198462917407
% es.tEY (V/m) @ t=0.7
0
% es.tEZ (V/m) @ t=0.7
3.1893657272701006
% es.Ex (V/m) @ t=0.7
1.038198462917405
% es.Ey (V/m) @ t=0.7
0.25151760034670834
% es.Ez (V/m) @ t=0.7
3.1893657272700917
% es.tEx (V/m) @ t=0.7
1.038198462917407
% es.tEy (V/m) @ t=0.7
0
% es.tEz (V/m) @ t=0.7
3.1893657272701006
% V (V) @ t=0.7
0.015731313318390866
% es.normE (V/m) @ t=0.72
3.393595206629545
% es.EX (V/m) @ t=0.72
1.0474792422898502
% es.EY (V/m) @ t=0.72
0.25376599566561375
% es.EZ (V/m) @ t=0.72
3.2178764504871644
% es.tEX (V/m) @ t=0.72
1.047479242289839
% es.tEY (V/m) @ t=0.72
0
% es.tEZ (V/m) @ t=0.72
3.2178764504871715
% es.Ex (V/m) @ t=0.72
1.0474792422898502
% es.Ey (V/m) @ t=0.72
0.25376599566561375
% es.Ez (V/m) @ t=0.72
3.2178764504871644
% es.tEx (V/m) @ t=0.72
1.047479242289839
% es.tEy (V/m) @ t=0.72
0
% es.tEz (V/m) @ t=0.72
3.2178764504871715
% V (V) @ t=0.72
0.015871940178367724
% es.normE (V/m) @ t=0.74
3.4236628176300377
% es.EX (V/m) @ t=0.74
1.056760021662303
% es.EY (V/m) @ t=0.74
0.25601439098445145
% es.EZ (V/m) @ t=0.74
3.2463871737042576
% es.tEX (V/m) @ t=0.74
1.0567600216623134
% es.tEY (V/m) @ t=0.74
0
% es.tEZ (V/m) @ t=0.74
3.2463871737042673
% es.Ex (V/m) @ t=0.74
1.056760021662303
% es.Ey (V/m) @ t=0.74
0.25601439098445145
% es.Ez (V/m) @ t=0.74
3.2463871737042576
% es.tEx (V/m) @ t=0.74
1.0567600216623134
% es.tEy (V/m) @ t=0.74
0
% es.tEz (V/m) @ t=0.74
3.2463871737042673
% V (V) @ t=0.74
0.016012567038344583
% es.normE (V/m) @ t=0.76
3.4537304286305606
% es.EX (V/m) @ t=0.76
1.0660408010347706
% es.EY (V/m) @ t=0.76
0.2582627863033409
% es.EZ (V/m) @ t=0.76
3.274897896921374
% es.tEX (V/m) @ t=0.76
1.0660408010347737
% es.tEY (V/m) @ t=0.76
0
% es.tEZ (V/m) @ t=0.76
3.2748978969213773
% es.Ex (V/m) @ t=0.76
1.0660408010347706
% es.Ey (V/m) @ t=0.76
0.2582627863033409
% es.Ez (V/m) @ t=0.76
3.274897896921374
% es.tEx (V/m) @ t=0.76
1.0660408010347737
% es.tEy (V/m) @ t=0.76
0
% es.tEz (V/m) @ t=0.76
3.2748978969213773
% V (V) @ t=0.76
0.016153193898321438
% es.normE (V/m) @ t=0.78
3.4847542695231724
% es.EX (V/m) @ t=0.78
1.0756167320851562
% es.EY (V/m) @ t=0.78
0.26058268543524155
% es.EZ (V/m) @ t=0.78
3.304315337517359
% es.tEX (V/m) @ t=0.78
1.075616732085166
% es.tEY (V/m) @ t=0.78
0
% es.tEZ (V/m) @ t=0.78
3.304315337517373
% es.Ex (V/m) @ t=0.78
1.0756167320851562
% es.Ey (V/m) @ t=0.78
0.26058268543524155
% es.Ez (V/m) @ t=0.78
3.304315337517359
% es.tEx (V/m) @ t=0.78
1.075616732085166
% es.tEy (V/m) @ t=0.78
0
% es.tEz (V/m) @ t=0.78
3.304315337517373
% V (V) @ t=0.78
0.016298293185649314
% es.normE (V/m) @ t=0.8
3.5181568324691312
% es.EX (V/m) @ t=0.8
1.0859268838612848
% es.EY (V/m) @ t=0.8
0.26308045779441924
% es.EZ (V/m) @ t=0.8
3.335988332601975
% es.tEX (V/m) @ t=0.8
1.0859268838612905
% es.tEY (V/m) @ t=0.8
0
% es.tEZ (V/m) @ t=0.8
3.335988332601964
% es.Ex (V/m) @ t=0.8
1.0859268838612848
% es.Ey (V/m) @ t=0.8
0.26308045779441924
% es.Ez (V/m) @ t=0.8
3.335988332601975
% es.tEx (V/m) @ t=0.8
1.0859268838612905
% es.tEy (V/m) @ t=0.8
0
% es.tEz (V/m) @ t=0.8
3.335988332601964
% V (V) @ t=0.8
0.01645451810464695
% es.normE (V/m) @ t=0.82
3.5515593954150164
% es.EX (V/m) @ t=0.82
1.0962370356373803
% es.EY (V/m) @ t=0.82
0.2655782301535674
% es.EZ (V/m) @ t=0.82
3.367661327686526
% es.tEX (V/m) @ t=0.82
1.0962370356373867
% es.tEY (V/m) @ t=0.82
0
% es.tEZ (V/m) @ t=0.82
3.3676613276865375
% es.Ex (V/m) @ t=0.82
1.0962370356373803
% es.Ey (V/m) @ t=0.82
0.2655782301535674
% es.Ez (V/m) @ t=0.82
3.367661327686526
% es.tEx (V/m) @ t=0.82
1.0962370356373867
% es.tEy (V/m) @ t=0.82
0
% es.tEz (V/m) @ t=0.82
3.3676613276865375
% V (V) @ t=0.82
0.016610743023644587
% es.normE (V/m) @ t=0.84
3.5849619583608945
% es.EX (V/m) @ t=0.84
1.1065471874134687
% es.EY (V/m) @ t=0.84
0.2680760025127167
% es.EZ (V/m) @ t=0.84
3.3993343227710717
% es.tEX (V/m) @ t=0.84
1.1065471874134687
% es.tEY (V/m) @ t=0.84
0
% es.tEZ (V/m) @ t=0.84
3.3993343227710717
% es.Ex (V/m) @ t=0.84
1.1065471874134687
% es.Ey (V/m) @ t=0.84
0.2680760025127167
% es.Ez (V/m) @ t=0.84
3.3993343227710717
% es.tEx (V/m) @ t=0.84
1.1065471874134687
% es.tEy (V/m) @ t=0.84
0
% es.tEz (V/m) @ t=0.84
3.3993343227710717
% V (V) @ t=0.84
0.016766967942642222
% es.normE (V/m) @ t=0.86
3.6183645213068383
% es.EX (V/m) @ t=0.86
1.1168573391895793
% es.EY (V/m) @ t=0.86
0.27057377487186485
% es.EZ (V/m) @ t=0.86
3.4310073178556806
% es.tEX (V/m) @ t=0.86
1.116857339189579
% es.tEY (V/m) @ t=0.86
0
% es.tEZ (V/m) @ t=0.86
3.4310073178556877
% es.Ex (V/m) @ t=0.86
1.1168573391895793
% es.Ey (V/m) @ t=0.86
0.27057377487186485
% es.Ez (V/m) @ t=0.86
3.4310073178556806
% es.tEx (V/m) @ t=0.86
1.116857339189579
% es.tEy (V/m) @ t=0.86
0
% es.tEz (V/m) @ t=0.86
3.4310073178556877
% V (V) @ t=0.86
0.016923192861639857
% es.normE (V/m) @ t=0.88
3.651767084252731
% es.EX (V/m) @ t=0.88
1.1271674909656801
% es.EY (V/m) @ t=0.88
0.27307154723106697
% es.EZ (V/m) @ t=0.88
3.4626803129402335
% es.tEX (V/m) @ t=0.88
1.1271674909656895
% es.tEY (V/m) @ t=0.88
0
% es.tEZ (V/m) @ t=0.88
3.462680312940254
% es.Ex (V/m) @ t=0.88
1.1271674909656801
% es.Ey (V/m) @ t=0.88
0.27307154723106697
% es.Ez (V/m) @ t=0.88
3.4626803129402335
% es.tEx (V/m) @ t=0.88
1.1271674909656895
% es.tEy (V/m) @ t=0.88
0
% es.tEz (V/m) @ t=0.88
3.462680312940254
% V (V) @ t=0.88
0.01707941778063749
% es.normE (V/m) @ t=0.9
3.6851696471986712
% es.EX (V/m) @ t=0.9
1.1374776427418056
% es.EY (V/m) @ t=0.9
0.2755693195902009
% es.EZ (V/m) @ t=0.9
3.4943533080248343
% es.tEX (V/m) @ t=0.9
1.137477642741814
% es.tEY (V/m) @ t=0.9
0
% es.tEZ (V/m) @ t=0.9
3.4943533080248415
% es.Ex (V/m) @ t=0.9
1.1374776427418056
% es.Ey (V/m) @ t=0.9
0.2755693195902009
% es.Ez (V/m) @ t=0.9
3.4943533080248343
% es.tEx (V/m) @ t=0.9
1.137477642741814
% es.tEy (V/m) @ t=0.9
0
% es.tEz (V/m) @ t=0.9
3.4943533080248415
% V (V) @ t=0.9
0.017235642699635127
% es.normE (V/m) @ t=0.92
3.7185722101445586
% es.EX (V/m) @ t=0.92
1.1477877945179007
% es.EY (V/m) @ t=0.92
0.2780670919493855
% es.EZ (V/m) @ t=0.92
3.5260263031093855
% es.tEX (V/m) @ t=0.92
1.147787794517896
% es.tEY (V/m) @ t=0.92
0
% es.tEZ (V/m) @ t=0.92
3.526026303109404
% es.Ex (V/m) @ t=0.92
1.1477877945179007
% es.Ey (V/m) @ t=0.92
0.2780670919493855
% es.Ez (V/m) @ t=0.92
3.5260263031093855
% es.tEx (V/m) @ t=0.92
1.147787794517896
% es.tEy (V/m) @ t=0.92
0
% es.tEz (V/m) @ t=0.92
3.526026303109404
% V (V) @ t=0.92
0.01739186761863276
% es.normE (V/m) @ t=0.94
3.7519747730904935
% es.EX (V/m) @ t=0.94
1.158097946294008
% es.EY (V/m) @ t=0.94
0.2805648643085319
% es.EZ (V/m) @ t=0.94
3.5576992981939854
% es.tEX (V/m) @ t=0.94
1.1580979462940206
% es.tEY (V/m) @ t=0.94
0
% es.tEZ (V/m) @ t=0.94
3.557699298193995
% es.Ex (V/m) @ t=0.94
1.158097946294008
% es.Ey (V/m) @ t=0.94
0.2805648643085319
% es.Ez (V/m) @ t=0.94
3.5576992981939854
% es.tEx (V/m) @ t=0.94
1.1580979462940206
% es.tEy (V/m) @ t=0.94
0
% es.tEz (V/m) @ t=0.94
3.557699298193995
% V (V) @ t=0.94
0.0175480925376304
% es.normE (V/m) @ t=0.96
3.7853773360364
% es.EX (V/m) @ t=0.96
1.1684080980701255
% es.EY (V/m) @ t=0.96
0.2830626366676685
% es.EZ (V/m) @ t=0.96
3.5893722932785526
% es.tEX (V/m) @ t=0.96
1.1684080980701168
% es.tEY (V/m) @ t=0.96
0
% es.tEZ (V/m) @ t=0.96
3.5893722932785543
% es.Ex (V/m) @ t=0.96
1.1684080980701255
% es.Ey (V/m) @ t=0.96
0.2830626366676685
% es.Ez (V/m) @ t=0.96
3.5893722932785526
% es.tEx (V/m) @ t=0.96
1.1684080980701168
% es.tEy (V/m) @ t=0.96
0
% es.tEz (V/m) @ t=0.96
3.5893722932785543
% V (V) @ t=0.96
0.01770431745662803
% es.normE (V/m) @ t=0.98
3.8187798989823163
% es.EX (V/m) @ t=0.98
1.1787182498462216
% es.EY (V/m) @ t=0.98
0.28556040902685575
% es.EZ (V/m) @ t=0.98
3.621045288363134
% es.tEX (V/m) @ t=0.98
1.1787182498462272
% es.tEY (V/m) @ t=0.98
0
% es.tEZ (V/m) @ t=0.98
3.6210452883631454
% es.Ex (V/m) @ t=0.98
1.1787182498462216
% es.Ey (V/m) @ t=0.98
0.28556040902685575
% es.Ez (V/m) @ t=0.98
3.621045288363134
% es.tEx (V/m) @ t=0.98
1.1787182498462272
% es.tEy (V/m) @ t=0.98
0
% es.tEz (V/m) @ t=0.98
3.6210452883631454
% V (V) @ t=0.98
0.01786054237562567
% es.normE (V/m) @ t=1
3.8521824619282166
% es.EX (V/m) @ t=1
1.1890284016223287
% es.EY (V/m) @ t=1
0.28805818138598016
% es.EZ (V/m) @ t=1
3.652718283447699
% es.tEX (V/m) @ t=1
1.1890284016223376
% es.tEY (V/m) @ t=1
0
% es.tEZ (V/m) @ t=1
3.6527182834477046
% es.Ex (V/m) @ t=1
1.1890284016223287
% es.Ey (V/m) @ t=1
0.28805818138598016
% es.Ez (V/m) @ t=1
3.652718283447699
% es.tEx (V/m) @ t=1
1.1890284016223376
% es.tEy (V/m) @ t=1
0
% es.tEz (V/m) @ t=1
3.6527182834477046
% V (V) @ t=1
0.0180167672946233
% es.normE (V/m) @ t=1.02
3.885585024874117
% es.EX (V/m) @ t=1.02
1.1993385533984067
% es.EY (V/m) @ t=1.02
0.29055595374514076
% es.EZ (V/m) @ t=1.02
3.6843912785322708
% es.tEX (V/m) @ t=1.02
1.1993385533984195
% es.tEY (V/m) @ t=1.02
0
% es.tEZ (V/m) @ t=1.02
3.684391278532292
% es.Ex (V/m) @ t=1.02
1.1993385533984067
% es.Ey (V/m) @ t=1.02
0.29055595374514076
% es.Ez (V/m) @ t=1.02
3.6843912785322708
% es.tEx (V/m) @ t=1.02
1.1993385533984195
% es.tEy (V/m) @ t=1.02
0
% es.tEz (V/m) @ t=1.02
3.684391278532292
% V (V) @ t=1.02
0.01817299221362094
% es.normE (V/m) @ t=1.04
3.91959831196699
% es.EX (V/m) @ t=1.04
1.2098372151522534
% es.EY (V/m) @ t=1.04
0.2930993959351178
% es.EZ (V/m) @ t=1.04
3.716643374126954
% es.tEX (V/m) @ t=1.04
1.2098372151522625
% es.tEY (V/m) @ t=1.04
0
% es.tEZ (V/m) @ t=1.04
3.7166433741269707
% es.Ex (V/m) @ t=1.04
1.2098372151522534
% es.Ey (V/m) @ t=1.04
0.2930993959351178
% es.Ez (V/m) @ t=1.04
3.716643374126954
% es.tEx (V/m) @ t=1.04
1.2098372151522625
% es.tEy (V/m) @ t=1.04
0
% es.tEz (V/m) @ t=1.04