% Model:              1 neuron.mph
% Version:            COMSOL 6.1.0.252
% Date:               Mar 22 2023, 19:29
% Dimension:          0
% Nodes:              14017
% Expressions:        14017
% Description:        Electric field norm, Electric field, X component, Electric field, Y component, Electric field, Z component, Tangential electric field, X component, Tangential electric field, Y component, Tangential electric field, Z component, Electric field, x component, Electric field, y component, Electric field, z component, Tangential electric field, x component, Tangential electric field, y component, Tangential electric field, z component, Electric potential
% Length unit:        mm
% x
2
% y
12.2
% z
1.6599999999999997
% es.normE (V/m) @ t=0
2.280499718496533
% es.EX (V/m) @ t=0
-2.2035655628780315
% es.EY (V/m) @ t=0
0.16975494005199754
% es.EZ (V/m) @ t=0
-0.5616303428240075
% es.tEX (V/m) @ t=0
-2.2035655628780084
% es.tEY (V/m) @ t=0
0
% es.tEZ (V/m) @ t=0
-0.561630342824003
% es.Ex (V/m) @ t=0
-2.2035655628780315
% es.Ey (V/m) @ t=0
0.16975494005199754
% es.Ez (V/m) @ t=0
-0.5616303428240075
% es.tEx (V/m) @ t=0
-2.2035655628780084
% es.tEy (V/m) @ t=0
0
% es.tEz (V/m) @ t=0
-0.561630342824003
% V (V) @ t=0
0.013215971823307453
% es.normE (V/m) @ t=0.02
1.9696934504602452
% es.EX (V/m) @ t=0.02
-1.9032445484680949
% es.EY (V/m) @ t=0.02
0.1466192657955494
% es.EZ (V/m) @ t=0.02
-0.48508649139941884
% es.tEX (V/m) @ t=0.02
-1.9032445484680824
% es.tEY (V/m) @ t=0.02
0
% es.tEZ (V/m) @ t=0.02
-0.4850864913994357
% es.Ex (V/m) @ t=0.02
-1.9032445484680949
% es.Ey (V/m) @ t=0.02
0.1466192657955494
% es.Ez (V/m) @ t=0.02
-0.48508649139941884
% es.tEx (V/m) @ t=0.02
-1.9032445484680824
% es.tEy (V/m) @ t=0.02
0
% es.tEz (V/m) @ t=0.02
-0.4850864913994357
% V (V) @ t=0.02
0.011414784612359207
% es.normE (V/m) @ t=0.04
1.9878156718424729
% es.EX (V/m) @ t=0.04
-1.9207554069276016
% es.EY (V/m) @ t=0.04
0.14796825185715168
% es.EZ (V/m) @ t=0.04
-0.4895495329067825
% es.tEX (V/m) @ t=0.04
-1.9207554069276096
% es.tEY (V/m) @ t=0.04
0
% es.tEZ (V/m) @ t=0.04
-0.4895495329067696
% es.Ex (V/m) @ t=0.04
-1.9207554069276016
% es.Ey (V/m) @ t=0.04
0.14796825185715168
% es.Ez (V/m) @ t=0.04
-0.4895495329067825
% es.tEx (V/m) @ t=0.04
-1.9207554069276096
% es.tEy (V/m) @ t=0.04
0
% es.tEz (V/m) @ t=0.04
-0.4895495329067696
% V (V) @ t=0.04
0.011519806001750328
% es.normE (V/m) @ t=0.06
2.0060690133064254
% es.EX (V/m) @ t=0.06
-1.938392965402688
% es.EY (V/m) @ t=0.06
0.14932701617671096
% es.EZ (V/m) @ t=0.06
-0.4940448489630729
% es.tEX (V/m) @ t=0.06
-1.9383929654027003
% es.tEY (V/m) @ t=0.06
0
% es.tEZ (V/m) @ t=0.06
-0.494044848963064
% es.Ex (V/m) @ t=0.06
-1.938392965402688
% es.Ey (V/m) @ t=0.06
0.14932701617671096
% es.Ez (V/m) @ t=0.06
-0.4940448489630729
% es.tEx (V/m) @ t=0.06
-1.9383929654027003
% es.tEy (V/m) @ t=0.06
0
% es.tEz (V/m) @ t=0.06
-0.494044848963064
% V (V) @ t=0.06
0.011625586201143652
% es.normE (V/m) @ t=0.08
2.024674349863976
% es.EX (V/m) @ t=0.08
-1.9563706370845484
% es.EY (V/m) @ t=0.08
0.15071194401880472
% es.EZ (V/m) @ t=0.08
-0.49862688878244343
% es.tEX (V/m) @ t=0.08
-1.9563706370845715
% es.tEY (V/m) @ t=0.08
0
% es.tEZ (V/m) @ t=0.08
-0.49862688878243944
% es.Ex (V/m) @ t=0.08
-1.9563706370845484
% es.Ey (V/m) @ t=0.08
0.15071194401880472
% es.Ez (V/m) @ t=0.08
-0.49862688878244343
% es.tEx (V/m) @ t=0.08
-1.9563706370845715
% es.tEy (V/m) @ t=0.08
0
% es.tEz (V/m) @ t=0.08
-0.49862688878243944
% V (V) @ t=0.08
0.01173340852663979
% es.normE (V/m) @ t=0.1
2.0433716775712067
% es.EX (V/m) @ t=0.1
-1.9744371946784058
% es.EY (V/m) @ t=0.1
0.15210370949177
% es.EZ (V/m) @ t=0.1
-0.5032315931753044
% es.tEX (V/m) @ t=0.1
-1.974437194678396
% es.tEY (V/m) @ t=0.1
0
% es.tEZ (V/m) @ t=0.1
-0.5032315931753075
% es.Ex (V/m) @ t=0.1
-1.9744371946784058
% es.Ey (V/m) @ t=0.1
0.15210370949177
% es.Ez (V/m) @ t=0.1
-0.5032315931753044
% es.tEx (V/m) @ t=0.1
-1.974437194678396
% es.tEy (V/m) @ t=0.1
0
% es.tEz (V/m) @ t=0.1
-0.5032315931753075
% V (V) @ t=0.1
0.011841764545733794
% es.normE (V/m) @ t=0.12
2.0620690052784347
% es.EX (V/m) @ t=0.12
-1.992503752272273
% es.EY (V/m) @ t=0.12
0.15349547496468796
% es.EZ (V/m) @ t=0.12
-0.5078362975681299
% es.tEX (V/m) @ t=0.12
-1.9925037522722615
% es.tEY (V/m) @ t=0.12
0
% es.tEZ (V/m) @ t=0.12
-0.5078362975681259
% es.Ex (V/m) @ t=0.12
-1.992503752272273
% es.Ey (V/m) @ t=0.12
0.15349547496468796
% es.Ez (V/m) @ t=0.12
-0.5078362975681299
% es.tEx (V/m) @ t=0.12
-1.9925037522722615
% es.tEy (V/m) @ t=0.12
0
% es.tEz (V/m) @ t=0.12
-0.5078362975681259
% V (V) @ t=0.12
0.011950120564827792
% es.normE (V/m) @ t=0.14
2.0813201756716406
% es.EX (V/m) @ t=0.14
-2.011105472534796
% es.EY (V/m) @ t=0.14
0.15492849061673986
% es.EZ (V/m) @ t=0.14
-0.5125773779312182
% es.tEX (V/m) @ t=0.14
-2.01110547253481
% es.tEY (V/m) @ t=0.14
0
% es.tEZ (V/m) @ t=0.14
-0.5125773779312102
% es.Ex (V/m) @ t=0.14
-2.011105472534796
% es.Ey (V/m) @ t=0.14
0.15492849061673986
% es.Ez (V/m) @ t=0.14
-0.5125773779312182
% es.tEx (V/m) @ t=0.14
-2.01110547253481
% es.tEy (V/m) @ t=0.14
0
% es.tEz (V/m) @ t=0.14
-0.5125773779312102
% V (V) @ t=0.14
0.012061684864796016
% es.normE (V/m) @ t=0.16
2.100953262713311
% es.EX (V/m) @ t=0.16
-2.0300762281533498
% es.EY (V/m) @ t=0.16
0.1563899514040884
% es.EZ (V/m) @ t=0.16
-0.5174124998963445
% es.tEX (V/m) @ t=0.16
-2.030076228153373
% es.tEY (V/m) @ t=0.16
0
% es.tEZ (V/m) @ t=0.16
-0.5174124998963343
% es.Ex (V/m) @ t=0.16
-2.0300762281533498
% es.Ey (V/m) @ t=0.16
0.1563899514040884
% es.Ez (V/m) @ t=0.16
-0.5174124998963445
% es.tEx (V/m) @ t=0.16
-2.030076228153373
% es.tEy (V/m) @ t=0.16
0
% es.tEz (V/m) @ t=0.16
-0.5174124998963343
% V (V) @ t=0.16
0.012175461518397747
% es.normE (V/m) @ t=0.18
2.120586349754981
% es.EX (V/m) @ t=0.18
-2.049046983771899
% es.EY (V/m) @ t=0.18
0.15785141219144494
% es.EZ (V/m) @ t=0.18
-0.5222476218614838
% es.tEX (V/m) @ t=0.18
-2.049046983771907
% es.tEY (V/m) @ t=0.18
0
% es.tEZ (V/m) @ t=0.18
-0.5222476218614727
% es.Ex (V/m) @ t=0.18
-2.049046983771899
% es.Ey (V/m) @ t=0.18
0.15785141219144494
% es.Ez (V/m) @ t=0.18
-0.5222476218614838
% es.tEx (V/m) @ t=0.18
-2.049046983771907
% es.tEy (V/m) @ t=0.18
0
% es.tEz (V/m) @ t=0.18
-0.5222476218614727
% V (V) @ t=0.18
0.012289238171999482
% es.normE (V/m) @ t=0.2
2.1402194367966674
% es.EX (V/m) @ t=0.2
-2.06801773939047
% es.EY (V/m) @ t=0.2
0.15931287297876517
% es.EZ (V/m) @ t=0.2
-0.5270827438266128
% es.tEX (V/m) @ t=0.2
-2.0680177393904735
% es.tEY (V/m) @ t=0.2
0
% es.tEZ (V/m) @ t=0.2
-0.5270827438265933
% es.Ex (V/m) @ t=0.2
-2.06801773939047
% es.Ey (V/m) @ t=0.2
0.15931287297876517
% es.Ez (V/m) @ t=0.2
-0.5270827438266128
% es.tEx (V/m) @ t=0.2
-2.0680177393904735
% es.tEy (V/m) @ t=0.2
0
% es.tEz (V/m) @ t=0.2
-0.5270827438265933
% V (V) @ t=0.2
0.012403014825601218
% es.normE (V/m) @ t=0.22
2.1598525238383304
% es.EX (V/m) @ t=0.22
-2.0869884950090114
% es.EY (V/m) @ t=0.22
0.16077433376612182
% es.EZ (V/m) @ t=0.22
-0.5319178657917489
% es.tEX (V/m) @ t=0.22
-2.0869884950090203
% es.tEY (V/m) @ t=0.22
0
% es.tEZ (V/m) @ t=0.22
-0.531917865791744
% es.Ex (V/m) @ t=0.22
-2.0869884950090114
% es.Ey (V/m) @ t=0.22
0.16077433376612182
% es.Ez (V/m) @ t=0.22
-0.5319178657917489
% es.tEx (V/m) @ t=0.22
-2.0869884950090203
% es.tEy (V/m) @ t=0.22
0
% es.tEz (V/m) @ t=0.22
-0.531917865791744
% V (V) @ t=0.22
0.012516791479202953
% es.normE (V/m) @ t=0.24
2.179485610879997
% es.EX (V/m) @ t=0.24
-2.1059592506275537
% es.EY (V/m) @ t=0.24
0.16223579455346326
% es.EZ (V/m) @ t=0.24
-0.5367529877568935
% es.tEX (V/m) @ t=0.24
-2.1059592506275564
% es.tEY (V/m) @ t=0.24
0
% es.tEZ (V/m) @ t=0.24
-0.5367529877568824
% es.Ex (V/m) @ t=0.24
-2.1059592506275537
% es.Ey (V/m) @ t=0.24
0.16223579455346326
% es.Ez (V/m) @ t=0.24
-0.5367529877568935
% es.tEx (V/m) @ t=0.24
-2.1059592506275564
% es.tEy (V/m) @ t=0.24
0
% es.tEz (V/m) @ t=0.24
-0.5367529877568824
% V (V) @ t=0.24
0.012630568132804684
% es.normE (V/m) @ t=0.26
2.199515624409643
% es.EX (V/m) @ t=0.26
-2.125313540617989
% es.EY (V/m) @ t=0.26
0.16372679285144232
% es.EZ (V/m) @ t=0.26
-0.5416858707967624
% es.tEX (V/m) @ t=0.26
-2.1253135406179915
% es.tEY (V/m) @ t=0.26
0
% es.tEZ (V/m) @ t=0.26
-0.5416858707967549
% es.Ex (V/m) @ t=0.26
-2.125313540617989
% es.Ey (V/m) @ t=0.26
0.16372679285144232
% es.Ez (V/m) @ t=0.26
-0.5416858707967624
% es.tEx (V/m) @ t=0.26
-2.1253135406179915
% es.tEy (V/m) @ t=0.26
0
% es.tEz (V/m) @ t=0.26
-0.5416858707967549
% V (V) @ t=0.26
0.012746645555416955
% es.normE (V/m) @ t=0.28
2.2212380099725557
% es.EX (V/m) @ t=0.28
-2.146303102792147
% es.EY (V/m) @ t=0.28
0.1653437299779491
% es.EZ (V/m) @ t=0.28
-0.5470355768854054
% es.tEX (V/m) @ t=0.28
-2.146303102792153
% es.tEY (V/m) @ t=0.28
0
% es.tEZ (V/m) @ t=0.28
-0.5470355768853992
% es.Ex (V/m) @ t=0.28
-2.146303102792147
% es.Ey (V/m) @ t=0.28
0.1653437299779491
% es.Ez (V/m) @ t=0.28
-0.5470355768854054
% es.tEx (V/m) @ t=0.28
-2.146303102792153
% es.tEy (V/m) @ t=0.28
0
% es.tEz (V/m) @ t=0.28
-0.5470355768853992
% V (V) @ t=0.28
0.01287253274695723
% es.normE (V/m) @ t=0.3
2.2429603955354693
% es.EX (V/m) @ t=0.3
-2.167292664966304
% es.EY (V/m) @ t=0.3
0.166960667104479
% es.EZ (V/m) @ t=0.3
-0.5523852829740403
% es.tEX (V/m) @ t=0.3
-2.167292664966297
% es.tEY (V/m) @ t=0.3
0
% es.tEZ (V/m) @ t=0.3
-0.5523852829740328
% es.Ex (V/m) @ t=0.3
-2.167292664966304
% es.Ey (V/m) @ t=0.3
0.166960667104479
% es.Ez (V/m) @ t=0.3
-0.5523852829740403
% es.tEx (V/m) @ t=0.3
-2.167292664966297
% es.tEy (V/m) @ t=0.3
0
% es.tEz (V/m) @ t=0.3
-0.5523852829740328
% V (V) @ t=0.3
0.012998419938497504
% es.normE (V/m) @ t=0.32
2.264682781098368
% es.EX (V/m) @ t=0.32
-2.188282227140447
% es.EY (V/m) @ t=0.32
0.1685776042309982
% es.EZ (V/m) @ t=0.32
-0.5577349890626704
% es.tEX (V/m) @ t=0.32
-2.1882822271404407
% es.tEY (V/m) @ t=0.32
0
% es.tEZ (V/m) @ t=0.32
-0.5577349890626841
% es.Ex (V/m) @ t=0.32
-2.188282227140447
% es.Ey (V/m) @ t=0.32
0.1685776042309982
% es.Ez (V/m) @ t=0.32
-0.5577349890626704
% es.tEx (V/m) @ t=0.32
-2.1882822271404407
% es.tEy (V/m) @ t=0.32
0
% es.tEz (V/m) @ t=0.32
-0.5577349890626841
% V (V) @ t=0.32
0.013124307130037783
% es.normE (V/m) @ t=0.34
2.2864051666612757
% es.EX (V/m) @ t=0.34
-2.2092717893145934
% es.EY (V/m) @ t=0.34
0.17019454135752987
% es.EZ (V/m) @ t=0.34
-0.5630846951513129
% es.tEX (V/m) @ t=0.34
-2.209271789314588
% es.tEY (V/m) @ t=0.34
0
% es.tEZ (V/m) @ t=0.34
-0.5630846951513142
% es.Ex (V/m) @ t=0.34
-2.2092717893145934
% es.Ey (V/m) @ t=0.34
0.17019454135752987
% es.Ez (V/m) @ t=0.34
-0.5630846951513129
% es.tEx (V/m) @ t=0.34
-2.209271789314588
% es.tEy (V/m) @ t=0.34
0
% es.tEz (V/m) @ t=0.34
-0.5630846951513142
% V (V) @ t=0.34
0.013250194321578061
% es.normE (V/m) @ t=0.36
2.308127552224189
% es.EX (V/m) @ t=0.36
-2.2302613514887506
% es.EY (V/m) @ t=0.36
0.17181147848405087
% es.EZ (V/m) @ t=0.36
-0.5684344012399336
% es.tEX (V/m) @ t=0.36
-2.2302613514887604
% es.tEY (V/m) @ t=0.36
0
% es.tEZ (V/m) @ t=0.36
-0.5684344012399336
% es.Ex (V/m) @ t=0.36
-2.2302613514887506
% es.Ey (V/m) @ t=0.36
0.17181147848405087
% es.Ez (V/m) @ t=0.36
-0.5684344012399336
% es.tEx (V/m) @ t=0.36
-2.2302613514887604
% es.tEy (V/m) @ t=0.36
0
% es.tEz (V/m) @ t=0.36
-0.5684344012399336
% V (V) @ t=0.36
0.013376081513118337
% es.normE (V/m) @ t=0.38
2.3298499377871016
% es.EX (V/m) @ t=0.38
-2.2512509136628935
% es.EY (V/m) @ t=0.38
0.17342841561059852
% es.EZ (V/m) @ t=0.38
-0.5737841073285948
% es.tEX (V/m) @ t=0.38
-2.251250913662904
% es.tEY (V/m) @ t=0.38
0
% es.tEZ (V/m) @ t=0.38
-0.5737841073285956
% es.Ex (V/m) @ t=0.38
-2.2512509136628935
% es.Ey (V/m) @ t=0.38
0.17342841561059852
% es.Ez (V/m) @ t=0.38
-0.5737841073285948
% es.tEx (V/m) @ t=0.38
-2.251250913662904
% es.tEy (V/m) @ t=0.38
0
% es.tEz (V/m) @ t=0.38
-0.5737841073285956
% V (V) @ t=0.38
0.013501968704658616
% es.normE (V/m) @ t=0.4
2.3515723233500063
% es.EX (V/m) @ t=0.4
-2.272240475837047
% es.EY (V/m) @ t=0.4
0.17504535273707156
% es.EZ (V/m) @ t=0.4
-0.5791338134172013
% es.tEX (V/m) @ t=0.4
-2.2722404758370516
% es.tEY (V/m) @ t=0.4
0
% es.tEZ (V/m) @ t=0.4
-0.5791338134172221
% es.Ex (V/m) @ t=0.4
-2.272240475837047
% es.Ey (V/m) @ t=0.4
0.17504535273707156
% es.Ez (V/m) @ t=0.4
-0.5791338134172013
% es.tEx (V/m) @ t=0.4
-2.2722404758370516
% es.tEy (V/m) @ t=0.4
0
% es.tEz (V/m) @ t=0.4
-0.5791338134172221
% V (V) @ t=0.4
0.013627855896198894
% es.normE (V/m) @ t=0.42
2.373294708912944
% es.EX (V/m) @ t=0.42
-2.2932300380112185
% es.EY (V/m) @ t=0.42
0.17666228986360322
% es.EZ (V/m) @ t=0.42
-0.5844835195058455
% es.tEX (V/m) @ t=0.42
-2.2932300380112096
% es.tEY (V/m) @ t=0.42
0
% es.tEZ (V/m) @ t=0.42
-0.5844835195058486
% es.Ex (V/m) @ t=0.42
-2.2932300380112185
% es.Ey (V/m) @ t=0.42
0.17666228986360322
% es.Ez (V/m) @ t=0.42
-0.5844835195058455
% es.tEx (V/m) @ t=0.42
-2.2932300380112096
% es.tEy (V/m) @ t=0.42
0
% es.tEz (V/m) @ t=0.42
-0.5844835195058486
% V (V) @ t=0.42
0.01375374308773917
% es.normE (V/m) @ t=0.44
2.3950170944758513
% es.EX (V/m) @ t=0.44
-2.3142196001853534
% es.EY (V/m) @ t=0.44
0.17827922699013843
% es.EZ (V/m) @ t=0.44
-0.5898332255945067
% es.tEX (V/m) @ t=0.44
-2.3142196001853392
% es.tEY (V/m) @ t=0.44
0
% es.tEZ (V/m) @ t=0.44
-0.5898332255945107
% es.Ex (V/m) @ t=0.44
-2.3142196001853534
% es.Ey (V/m) @ t=0.44
0.17827922699013843
% es.Ez (V/m) @ t=0.44
-0.5898332255945067
% es.tEx (V/m) @ t=0.44
-2.3142196001853392
% es.tEy (V/m) @ t=0.44
0
% es.tEz (V/m) @ t=0.44
-0.5898332255945107
% V (V) @ t=0.44
0.013879630279279444
% es.normE (V/m) @ t=0.46
2.4167394800387725
% es.EX (V/m) @ t=0.46
-2.335209162359507
% es.EY (V/m) @ t=0.46
0.17989616411666298
% es.EZ (V/m) @ t=0.46
-0.5951829316831452
% es.tEX (V/m) @ t=0.46
-2.335209162359501
% es.tEY (V/m) @ t=0.46
0
% es.tEZ (V/m) @ t=0.46
-0.5951829316831372
% es.Ex (V/m) @ t=0.46
-2.335209162359507
% es.Ey (V/m) @ t=0.46
0.17989616411666298
% es.Ez (V/m) @ t=0.46
-0.5951829316831452
% es.tEx (V/m) @ t=0.46
-2.335209162359501
% es.tEy (V/m) @ t=0.46
0
% es.tEz (V/m) @ t=0.46
-0.5951829316831372
% V (V) @ t=0.46
0.014005517470819722
% es.normE (V/m) @ t=0.48
2.438461865601673
% es.EX (V/m) @ t=0.48
-2.356198724533643
% es.EY (V/m) @ t=0.48
0.1815131012432034
% es.EZ (V/m) @ t=0.48
-0.6005326377717624
% es.tEX (V/m) @ t=0.48
-2.3561987245336624
% es.tEY (V/m) @ t=0.48
0
% es.tEZ (V/m) @ t=0.48
-0.6005326377717637
% es.Ex (V/m) @ t=0.48
-2.356198724533643
% es.Ey (V/m) @ t=0.48
0.1815131012432034
% es.Ez (V/m) @ t=0.48
-0.6005326377717624
% es.tEx (V/m) @ t=0.48
-2.3561987245336624
% es.tEy (V/m) @ t=0.48
0
% es.tEz (V/m) @ t=0.48
-0.6005326377717637
% V (V) @ t=0.48
0.014131404662359999
% es.normE (V/m) @ t=0.5
2.460184251164601
% es.EX (V/m) @ t=0.5
-2.377188286707801
% es.EY (V/m) @ t=0.5
0.18313003836972275
% es.EZ (V/m) @ t=0.5
-0.6058823438604062
% es.tEX (V/m) @ t=0.5
-2.377188286707778
% es.tEY (V/m) @ t=0.5
0
% es.tEZ (V/m) @ t=0.5
-0.6058823438603902
% es.Ex (V/m) @ t=0.5
-2.377188286707801
% es.Ey (V/m) @ t=0.5
0.18313003836972275
% es.Ez (V/m) @ t=0.5
-0.6058823438604062
% es.tEx (V/m) @ t=0.5
-2.377188286707778
% es.tEy (V/m) @ t=0.5
0
% es.tEz (V/m) @ t=0.5
-0.6058823438603902
% V (V) @ t=0.5
0.014257291853900279
% es.normE (V/m) @ t=0.52
2.482814389223329
% es.EX (V/m) @ t=0.52
-2.399054966865222
% es.EY (V/m) @ t=0.52
0.1848144844440731
% es.EZ (V/m) @ t=0.52
-0.6114556630770331
% es.tEX (V/m) @ t=0.52
-2.3990549668652257
% es.tEY (V/m) @ t=0.52
0
% es.tEZ (V/m) @ t=0.52
-0.6114556630770096
% es.Ex (V/m) @ t=0.52
-2.399054966865222
% es.Ey (V/m) @ t=0.52
0.1848144844440731
% es.Ez (V/m) @ t=0.52
-0.6114556630770331
% es.tEx (V/m) @ t=0.52
-2.3990549668652257
% es.tEy (V/m) @ t=0.52
0
% es.tEz (V/m) @ t=0.52
-0.6114556630770096
% V (V) @ t=0.52
0.014388443188950604
% es.normE (V/m) @ t=0.54
2.5068871662150265
% es.EX (V/m) @ t=0.54
-2.422315600283321
% es.EY (V/m) @ t=0.54
0.18660621861404247
% es.EZ (V/m) @ t=0.54
-0.6173843578017015
% es.tEX (V/m) @ t=0.54
-2.4223156002833157
% es.tEY (V/m) @ t=0.54
0
% es.tEZ (V/m) @ t=0.54
-0.6173843578017042
% es.Ex (V/m) @ t=0.54
-2.422315600283321
% es.Ey (V/m) @ t=0.54
0.18660621861404247
% es.Ez (V/m) @ t=0.54
-0.6173843578017015
% es.tEx (V/m) @ t=0.54
-2.4223156002833157
% es.tEy (V/m) @ t=0.54
0
% es.tEz (V/m) @ t=0.54
-0.6173843578017042
% V (V) @ t=0.54
0.014527960525098228
% es.normE (V/m) @ t=0.56
2.5309599432067986
% es.EX (V/m) @ t=0.56
-2.445576233701429
% es.EY (V/m) @ t=0.56
0.18839795278398708
% es.EZ (V/m) @ t=0.56
-0.6233130525263926
% es.tEX (V/m) @ t=0.56
-2.4455762337014235
% es.tEY (V/m) @ t=0.56
0
% es.tEZ (V/m) @ t=0.56
-0.6233130525263952
% es.Ex (V/m) @ t=0.56
-2.445576233701429
% es.Ey (V/m) @ t=0.56
0.18839795278398708
% es.Ez (V/m) @ t=0.56
-0.6233130525263926
% es.tEx (V/m) @ t=0.56
-2.4455762337014235
% es.tEy (V/m) @ t=0.56
0
% es.tEz (V/m) @ t=0.56
-0.6233130525263952
% V (V) @ t=0.56
0.014667477861245849
% es.normE (V/m) @ t=0.58
2.5550327201986285
% es.EX (V/m) @ t=0.58
-2.468836867119542
% es.EY (V/m) @ t=0.58
0.19018968695392446
% es.EZ (V/m) @ t=0.58
-0.6292417472510454
% es.tEX (V/m) @ t=0.58
-2.468836867119542
% es.tEY (V/m) @ t=0.58
0
% es.tEZ (V/m) @ t=0.58
-0.6292417472510579
% es.Ex (V/m) @ t=0.58
-2.468836867119542
% es.Ey (V/m) @ t=0.58
0.19018968695392446
% es.Ez (V/m) @ t=0.58
-0.6292417472510454
% es.tEx (V/m) @ t=0.58
-2.468836867119542
% es.tEy (V/m) @ t=0.58
0
% es.tEz (V/m) @ t=0.58
-0.6292417472510579
% V (V) @ t=0.58
0.014806995197393473
% es.normE (V/m) @ t=0.6
2.5791054971905094
% es.EX (V/m) @ t=0.6
-2.4920975005376444
% es.EY (V/m) @ t=0.6
0.19198142112387073
% es.EZ (V/m) @ t=0.6
-0.6351704419757
% es.tEX (V/m) @ t=0.6
-2.49209750053765
% es.tEY (V/m) @ t=0.6
0
% es.tEZ (V/m) @ t=0.6
-0.6351704419757063
% es.Ex (V/m) @ t=0.6
-2.4920975005376444
% es.Ey (V/m) @ t=0.6
0.19198142112387073
% es.Ez (V/m) @ t=0.6
-0.6351704419757
% es.tEx (V/m) @ t=0.6
-2.49209750053765
% es.tEy (V/m) @ t=0.6
0
% es.tEz (V/m) @ t=0.6
-0.6351704419757063
% V (V) @ t=0.6
0.014946512533541095
% es.normE (V/m) @ t=0.62
2.603178274182423
% es.EX (V/m) @ t=0.62
-2.5153581339557185
% es.EY (V/m) @ t=0.62
0.19377315529381
% es.EZ (V/m) @ t=0.62
-0.6410991367003644
% es.tEX (V/m) @ t=0.62
-2.515358133955729
% es.tEY (V/m) @ t=0.62
0
% es.tEZ (V/m) @ t=0.62
-0.6410991367003653
% es.Ex (V/m) @ t=0.62
-2.5153581339557185
% es.Ey (V/m) @ t=0.62
0.19377315529381
% es.Ez (V/m) @ t=0.62
-0.6410991367003644
% es.tEx (V/m) @ t=0.62
-2.515358133955729
% es.tEy (V/m) @ t=0.62
0
% es.tEz (V/m) @ t=0.62
-0.6410991367003653
% V (V) @ t=0.62
0.01508602986968872
% es.normE (V/m) @ t=0.64
2.627251051174433
% es.EX (V/m) @ t=0.64
-2.538618767373837
% es.EY (V/m) @ t=0.64
0.19556488946374573
% es.EZ (V/m) @ t=0.64
-0.6470278314250133
% es.tEX (V/m) @ t=0.64
-2.5386187673738476
% es.tEY (V/m) @ t=0.64
0
% es.tEZ (V/m) @ t=0.64
-0.6470278314250137
% es.Ex (V/m) @ t=0.64
-2.538618767373837
% es.Ey (V/m) @ t=0.64
0.19556488946374573
% es.Ez (V/m) @ t=0.64
-0.6470278314250133
% es.tEx (V/m) @ t=0.64
-2.5386187673738476
% es.tEy (V/m) @ t=0.64
0
% es.tEz (V/m) @ t=0.64
-0.6470278314250137
% V (V) @ t=0.64
0.01522554720583634
% es.normE (V/m) @ t=0.66
2.651323828166518
% es.EX (V/m) @ t=0.66
-2.561879400791968
% es.EY (V/m) @ t=0.66
0.19735662363366713
% es.EZ (V/m) @ t=0.66
-0.652956526149703
% es.tEX (V/m) @ t=0.66
-2.5618794007919696
% es.tEY (V/m) @ t=0.66
0
% es.tEZ (V/m) @ t=0.66
-0.6529565261496906
% es.Ex (V/m) @ t=0.66
-2.561879400791968
% es.Ey (V/m) @ t=0.66
0.19735662363366713
% es.Ez (V/m) @ t=0.66
-0.652956526149703
% es.tEx (V/m) @ t=0.66
-2.5618794007919696
% es.tEy (V/m) @ t=0.66
0
% es.tEz (V/m) @ t=0.66
-0.6529565261496906
% V (V) @ t=0.66
0.015365064541983964
% es.normE (V/m) @ t=0.68
2.6753966051586153
% es.EX (V/m) @ t=0.68
-2.5851400342100543
% es.EY (V/m) @ t=0.68
0.19914835780363116
% es.EZ (V/m) @ t=0.68
-0.6588852208743807
% es.tEX (V/m) @ t=0.68
-2.5851400342100455
% es.tEY (V/m) @ t=0.68
0
% es.tEZ (V/m) @ t=0.68
-0.658885220874371
% es.Ex (V/m) @ t=0.68
-2.5851400342100543
% es.Ey (V/m) @ t=0.68
0.19914835780363116
% es.Ez (V/m) @ t=0.68
-0.6588852208743807
% es.tEx (V/m) @ t=0.68
-2.5851400342100455
% es.tEy (V/m) @ t=0.68
0
% es.tEz (V/m) @ t=0.68
-0.658885220874371
% V (V) @ t=0.68
0.015504581878131588
% es.normE (V/m) @ t=0.7
2.6994693821507765
% es.EX (V/m) @ t=0.7
-2.6084006676281604
% es.EY (V/m) @ t=0.7
0.2009400919735579
% es.EZ (V/m) @ t=0.7
-0.6648139155990385
% es.tEX (V/m) @ t=0.7
-2.6084006676281497
% es.tEY (V/m) @ t=0.7
0
% es.tEZ (V/m) @ t=0.7
-0.6648139155990478
% es.Ex (V/m) @ t=0.7
-2.6084006676281604
% es.Ey (V/m) @ t=0.7
0.2009400919735579
% es.Ez (V/m) @ t=0.7
-0.6648139155990385
% es.tEx (V/m) @ t=0.7
-2.6084006676281497
% es.tEy (V/m) @ t=0.7
0
% es.tEz (V/m) @ t=0.7
-0.6648139155990478
% V (V) @ t=0.7
0.01564409921427921
% es.normE (V/m) @ t=0.72
2.723542159143004
% es.EX (V/m) @ t=0.72
-2.6316613010462824
% es.EY (V/m) @ t=0.72
0.20273182614349183
% es.EZ (V/m) @ t=0.72
-0.6707426103236962
% es.tEX (V/m) @ t=0.72
-2.631661301046286
% es.tEY (V/m) @ t=0.72
0
% es.tEZ (V/m) @ t=0.72
-0.6707426103236891
% es.Ex (V/m) @ t=0.72
-2.6316613010462824
% es.Ey (V/m) @ t=0.72
0.20273182614349183
% es.Ez (V/m) @ t=0.72
-0.6707426103236962
% es.tEx (V/m) @ t=0.72
-2.631661301046286
% es.tEy (V/m) @ t=0.72
0
% es.tEz (V/m) @ t=0.72
-0.6707426103236891
% V (V) @ t=0.72
0.015783616550426833
% es.normE (V/m) @ t=0.74
2.747614936135259
% es.EX (V/m) @ t=0.74
-2.654921934464374
% es.EY (V/m) @ t=0.74
0.20452356031344354
% es.EZ (V/m) @ t=0.74
-0.6766713050483788
% es.tEX (V/m) @ t=0.74
-2.6549219344643475
% es.tEY (V/m) @ t=0.74
0
% es.tEZ (V/m) @ t=0.74
-0.6766713050483801
% es.Ex (V/m) @ t=0.74
-2.654921934464374
% es.Ey (V/m) @ t=0.74
0.20452356031344354
% es.Ez (V/m) @ t=0.74
-0.6766713050483788
% es.tEx (V/m) @ t=0.74
-2.6549219344643475
% es.tEy (V/m) @ t=0.74
0
% es.tEz (V/m) @ t=0.74
-0.6766713050483801
% V (V) @ t=0.74
0.01592313388657446
% es.normE (V/m) @ t=0.76
2.771687713127598
% es.EX (V/m) @ t=0.76
-2.6781825678825104
% es.EY (V/m) @ t=0.76
0.20631529448337926
% es.EZ (V/m) @ t=0.76
-0.6825999997730325
% es.tEX (V/m) @ t=0.76
-2.678182567882512
% es.tEY (V/m) @ t=0.76
0
% es.tEZ (V/m) @ t=0.76
-0.6825999997730214
% es.Ex (V/m) @ t=0.76
-2.6781825678825104
% es.Ey (V/m) @ t=0.76
0.20631529448337926
% es.Ez (V/m) @ t=0.76
-0.6825999997730325
% es.tEx (V/m) @ t=0.76
-2.678182567882512
% es.tEy (V/m) @ t=0.76
0
% es.tEz (V/m) @ t=0.76
-0.6825999997730214
% V (V) @ t=0.76
0.016062651222722078
% es.normE (V/m) @ t=0.78
2.7973020598081484
% es.EX (V/m) @ t=0.78
-2.702932749092776
% es.EY (V/m) @ t=0.78
0.20822168821967024
% es.EZ (V/m) @ t=0.78
-0.6889084276002366
% es.tEX (V/m) @ t=0.78
-2.702932749092774
% es.tEY (V/m) @ t=0.78
0
% es.tEZ (V/m) @ t=0.78
-0.6889084276002393
% es.Ex (V/m) @ t=0.78
-2.702932749092776
% es.Ey (V/m) @ t=0.78
0.20822168821967024
% es.Ez (V/m) @ t=0.78
-0.6889084276002366
% es.tEx (V/m) @ t=0.78
-2.702932749092774
% es.tEy (V/m) @ t=0.78
0
% es.tEz (V/m) @ t=0.78
-0.6889084276002393
% V (V) @ t=0.78
0.016211107463019986
% es.normE (V/m) @ t=0.8
2.824021554130094
% es.EX (V/m) @ t=0.8
-2.7287507835708116
% es.EY (V/m) @ t=0.8
0.2102102811262856
% es.EZ (V/m) @ t=0.8
-0.6954890851850535
% es.tEX (V/m) @ t=0.8
-2.7287507835708276
% es.tEY (V/m) @ t=0.8
0
% es.tEZ (V/m) @ t=0.8
-0.6954890851850415
% es.Ex (V/m) @ t=0.8
-2.7287507835708116
% es.Ey (V/m) @ t=0.8
0.2102102811262856
% es.Ez (V/m) @ t=0.8
-0.6954890851850535
% es.tEx (V/m) @ t=0.8
-2.7287507835708276
% es.tEy (V/m) @ t=0.8
0
% es.tEz (V/m) @ t=0.8
-0.6954890851850415
% V (V) @ t=0.8
0.01636597198243268
% es.normE (V/m) @ t=0.82
2.8507410484522007
% es.EX (V/m) @ t=0.82
-2.754568818048835
% es.EY (V/m) @ t=0.82
0.21219887403284243
% es.EZ (V/m) @ t=0.82
-0.7020697427699099
% es.tEX (V/m) @ t=0.82
-2.7545688180488455
% es.tEY (V/m) @ t=0.82
0
% es.tEZ (V/m) @ t=0.82
-0.7020697427699005
% es.Ex (V/m) @ t=0.82
-2.754568818048835
% es.Ey (V/m) @ t=0.82
0.21219887403284243
% es.Ez (V/m) @ t=0.82
-0.7020697427699099
% es.tEx (V/m) @ t=0.82
-2.7545688180488455
% es.tEy (V/m) @ t=0.82
0
% es.tEz (V/m) @ t=0.82
-0.7020697427699005
% V (V) @ t=0.82
0.016520836501845375
% es.normE (V/m) @ t=0.84
2.8774605427744957
% es.EX (V/m) @ t=0.84
-2.780386852526883
% es.EY (V/m) @ t=0.84
0.2141874669394649
% es.EZ (V/m) @ t=0.84
-0.7086504003547485
% es.tEX (V/m) @ t=0.84
-2.7803868525268953
% es.tEY (V/m) @ t=0.84
0
% es.tEZ (V/m) @ t=0.84
-0.7086504003547383
% es.Ex (V/m) @ t=0.84
-2.780386852526883
% es.Ey (V/m) @ t=0.84
0.2141874669394649
% es.Ez (V/m) @ t=0.84
-0.7086504003547485
% es.tEx (V/m) @ t=0.84
-2.7803868525268953
% es.tEy (V/m) @ t=0.84
0
% es.tEz (V/m) @ t=0.84
-0.7086504003547383
% V (V) @ t=0.84
0.01667570102125807
% es.normE (V/m) @ t=0.86
2.9041800370969417
% es.EX (V/m) @ t=0.86
-2.8062048870049328
% es.EY (V/m) @ t=0.86
0.21617605984602173
% es.EZ (V/m) @ t=0.86
-0.7152310579395653
% es.tEX (V/m) @ t=0.86
-2.8062048870049487
% es.tEY (V/m) @ t=0.86
0
% es.tEZ (V/m) @ t=0.86
-0.7152310579395724
% es.Ex (V/m) @ t=0.86
-2.8062048870049328
% es.Ey (V/m) @ t=0.86
0.21617605984602173
% es.Ez (V/m) @ t=0.86
-0.7152310579395653
% es.tEx (V/m) @ t=0.86
-2.8062048870049487
% es.tEy (V/m) @ t=0.86
0
% es.tEz (V/m) @ t=0.86
-0.7152310579395724
% V (V) @ t=0.86
0.016830565540670764
% es.normE (V/m) @ t=0.88
2.9308995314195236
% es.EX (V/m) @ t=0.88
-2.832022921482956
% es.EY (V/m) @ t=0.88
0.2181646527526121
% es.EZ (V/m) @ t=0.88
-0.7218117155244026
% es.tEX (V/m) @ t=0.88
-2.83202292148297
% es.tEY (V/m) @ t=0.88
0
% es.tEZ (V/m) @ t=0.88
-0.7218117155244101
% es.Ex (V/m) @ t=0.88
-2.832022921482956
% es.Ey (V/m) @ t=0.88
0.2181646527526121
% es.Ez (V/m) @ t=0.88
-0.7218117155244026
% es.tEx (V/m) @ t=0.88
-2.83202292148297
% es.tEy (V/m) @ t=0.88
0
% es.tEz (V/m) @ t=0.88
-0.7218117155244101
% V (V) @ t=0.88
0.01698543006008346
% es.normE (V/m) @ t=0.9
2.9576190257423143
% es.EX (V/m) @ t=0.9
-2.8578409559610325
% es.EY (V/m) @ t=0.9
0.2201532456592169
% es.EZ (V/m) @ t=0.9
-0.7283923731092607
% es.tEX (V/m) @ t=0.9
-2.857840955961052
% es.tEY (V/m) @ t=0.9
0
% es.tEZ (V/m) @ t=0.9
-0.7283923731092266
% es.Ex (V/m) @ t=0.9
-2.8578409559610325
% es.Ey (V/m) @ t=0.9
0.2201532456592169
% es.Ez (V/m) @ t=0.9
-0.7283923731092607
% es.tEx (V/m) @ t=0.9
-2.857840955961052
% es.tEy (V/m) @ t=0.9
0
% es.tEz (V/m) @ t=0.9
-0.7283923731092266
% V (V) @ t=0.9
0.017140294579496153
% es.normE (V/m) @ t=0.92
2.984338520065151
% es.EX (V/m) @ t=0.92
-2.8836589904390184
% es.EY (V/m) @ t=0.92
0.22214183856581116
% es.EZ (V/m) @ t=0.92
-0.7349730306940718
% es.tEX (V/m) @ t=0.92
-2.883658990439031
% es.tEY (V/m) @ t=0.92
0
% es.tEZ (V/m) @ t=0.92
-0.7349730306940714
% es.Ex (V/m) @ t=0.92
-2.8836589904390184
% es.Ey (V/m) @ t=0.92
0.22214183856581116
% es.Ez (V/m) @ t=0.92
-0.7349730306940718
% es.tEx (V/m) @ t=0.92
-2.883658990439031
% es.tEy (V/m) @ t=0.92
0
% es.tEz (V/m) @ t=0.92
-0.7349730306940714
% V (V) @ t=0.92
0.01729515909890885
% es.normE (V/m) @ t=0.94
3.011058014388161
% es.EX (V/m) @ t=0.94
-2.9094770249170328
% es.EY (V/m) @ t=0.94
0.22413043147240708
% es.EZ (V/m) @ t=0.94
-0.7415536882788922
% es.tEX (V/m) @ t=0.94
-2.909477024917038
% es.tEY (V/m) @ t=0.94
0
% es.tEZ (V/m) @ t=0.94
-0.7415536882788878
% es.Ex (V/m) @ t=0.94
-2.9094770249170328
% es.Ey (V/m) @ t=0.94
0.22413043147240708
% es.Ez (V/m) @ t=0.94
-0.7415536882788922
% es.tEx (V/m) @ t=0.94
-2.909477024917038
% es.tEy (V/m) @ t=0.94
0
% es.tEz (V/m) @ t=0.94
-0.7415536882788878
% V (V) @ t=0.94
0.01745002361832155
% es.normE (V/m) @ t=0.96
3.0377775087113954
% es.EX (V/m) @ t=0.96
-2.9352950593951377
% es.EY (V/m) @ t=0.96
0.22611902437894238
% es.EZ (V/m) @ t=0.96
-0.7481343458637246
% es.tEX (V/m) @ t=0.96
-2.935295059395102
% es.tEY (V/m) @ t=0.96
0
% es.tEZ (V/m) @ t=0.96
-0.7481343458637184
% es.Ex (V/m) @ t=0.96
-2.9352950593951377
% es.Ey (V/m) @ t=0.96
0.22611902437894238
% es.Ez (V/m) @ t=0.96
-0.7481343458637246
% es.tEx (V/m) @ t=0.96
-2.935295059395102
% es.tEy (V/m) @ t=0.96
0
% es.tEz (V/m) @ t=0.96
-0.7481343458637184
% V (V) @ t=0.96
0.017604888137734243
% es.normE (V/m) @ t=0.98
3.064497003034666
% es.EX (V/m) @ t=0.98
-2.9611130938731307
% es.EY (V/m) @ t=0.98
0.2281076172855666
% es.EZ (V/m) @ t=0.98
-0.7547150034485663
% es.tEX (V/m) @ t=0.98
-2.9611130938731414
% es.tEY (V/m) @ t=0.98
0
% es.tEZ (V/m) @ t=0.98
-0.7547150034485632
% es.Ex (V/m) @ t=0.98
-2.9611130938731307
% es.Ey (V/m) @ t=0.98
0.2281076172855666
% es.Ez (V/m) @ t=0.98
-0.7547150034485663
% es.tEx (V/m) @ t=0.98
-2.9611130938731414
% es.tEy (V/m) @ t=0.98
0
% es.tEz (V/m) @ t=0.98
-0.7547150034485632
% V (V) @ t=0.98
0.017759752657146934
% es.normE (V/m) @ t=1
3.0912164973581566
% es.EX (V/m) @ t=1
-2.9869311283512214
% es.EY (V/m) @ t=1
0.23009621019216253
% es.EZ (V/m) @ t=1
-0.7612956610333903
% es.tEX (V/m) @ t=1
-2.9869311283512054
% es.tEY (V/m) @ t=1
0
% es.tEZ (V/m) @ t=1
-0.7612956610333654
% es.Ex (V/m) @ t=1
-2.9869311283512214
% es.Ey (V/m) @ t=1
0.23009621019216253
% es.Ez (V/m) @ t=1
-0.7612956610333903
% es.tEx (V/m) @ t=1
-2.9869311283512054
% es.tEy (V/m) @ t=1
0
% es.tEz (V/m) @ t=1
-0.7612956610333654
% V (V) @ t=1
0.017914617176559632
% es.normE (V/m) @ t=1.02
3.117935991681655
% es.EX (V/m) @ t=1.02
-3.0127491628291896
% es.EY (V/m) @ t=1.02
0.2320848030987548
% es.EZ (V/m) @ t=1.02
-0.7678763186182112
% es.tEX (V/m) @ t=1.02
-3.0127491628291985
% es.tEY (V/m) @ t=1.02
0
% es.tEZ (V/m) @ t=1.02
-0.7678763186182103
% es.Ex (V/m) @ t=1.02
-3.0127491628291896
% es.Ey (V/m) @ t=1.02
0.2320848030987548
% es.Ez (V/m) @ t=1.02
-0.7678763186182112
% es.tEx (V/m) @ t=1.02
-3.0127491628291985
% es.tEy (V/m) @ t=1.02
0
% es.tEz (V/m) @ t=1.02
-0.7678763186182103
% V (V) @ t=1.02
0.018069481695972327
% es.normE (V/m) @ t=1.04
3.145661997904897
% es.EX (V/m) @ t=1.04