% Model:              1 neuron.mph
% Version:            COMSOL 6.1.0.252
% Date:               Mar 22 2023, 19:40
% Dimension:          0
% Nodes:              14017
% Expressions:        14017
% Description:        Electric field norm, Electric field, X component, Electric field, Y component, Electric field, Z component, Tangential electric field, X component, Tangential electric field, Y component, Tangential electric field, Z component, Electric field, x component, Electric field, y component, Electric field, z component, Tangential electric field, x component, Tangential electric field, y component, Tangential electric field, z component, Electric potential
% Length unit:        mm
% x
1.66
% y
12.2
% z
2
% es.normE (V/m) @ t=0
2.642599275684999
% es.EX (V/m) @ t=0
-0.788340610185505
% es.EY (V/m) @ t=0
0.058886079929756724
% es.EZ (V/m) @ t=0
-2.5173402756844734
% es.tEX (V/m) @ t=0
-0.7883406101855144
% es.tEY (V/m) @ t=0
0
% es.tEZ (V/m) @ t=0
-2.5173402756844823
% es.Ex (V/m) @ t=0
-0.788340610185505
% es.Ey (V/m) @ t=0
0.058886079929756724
% es.Ez (V/m) @ t=0
-2.5173402756844734
% es.tEx (V/m) @ t=0
-0.7883406101855144
% es.tEy (V/m) @ t=0
0
% es.tEz (V/m) @ t=0
-2.5173402756844823
% V (V) @ t=0
0.013282799428298705
% es.normE (V/m) @ t=0.02
2.2824446806632572
% es.EX (V/m) @ t=0.02
-0.6808992377604376
% es.EY (V/m) @ t=0.02
0.05086061383625878
% es.EZ (V/m) @ t=0.02
-2.1742569803749703
% es.tEX (V/m) @ t=0.02
-0.6808992377604426
% es.tEY (V/m) @ t=0.02
0
% es.tEZ (V/m) @ t=0.02
-2.1742569803749827
% es.Ex (V/m) @ t=0.02
-0.6808992377604376
% es.Ey (V/m) @ t=0.02
0.05086061383625878
% es.Ez (V/m) @ t=0.02
-2.1742569803749703
% es.tEx (V/m) @ t=0.02
-0.6808992377604426
% es.tEy (V/m) @ t=0.02
0
% es.tEz (V/m) @ t=0.02
-2.1742569803749827
% V (V) @ t=0.02
0.01147251312023789
% es.normE (V/m) @ t=0.04
2.303446477104001
% es.EX (V/m) @ t=0.04
-0.687164497292015
% es.EY (V/m) @ t=0.04
0.05132860773047296
% es.EZ (V/m) @ t=0.04
-2.1942632929874772
% es.tEX (V/m) @ t=0.04
-0.6871644972920308
% es.tEY (V/m) @ t=0.04
0
% es.tEZ (V/m) @ t=0.04
-2.194263292987494
% es.Ex (V/m) @ t=0.04
-0.687164497292015
% es.Ey (V/m) @ t=0.04
0.05132860773047296
% es.Ez (V/m) @ t=0.04
-2.1942632929874772
% es.tEx (V/m) @ t=0.04
-0.6871644972920308
% es.tEy (V/m) @ t=0.04
0
% es.tEz (V/m) @ t=0.04
-2.194263292987494
% V (V) @ t=0.04
0.011578076784609224
% es.normE (V/m) @ t=0.06
2.324598886835476
% es.EX (V/m) @ t=0.06
-0.6934746878251691
% es.EY (V/m) @ t=0.06
0.051799957843129005
% es.EZ (V/m) @ t=0.06
-2.2144130798214707
% es.tEX (V/m) @ t=0.06
-0.6934746878251694
% es.tEY (V/m) @ t=0.06
0
% es.tEZ (V/m) @ t=0.06
-2.2144130798214894
% es.Ex (V/m) @ t=0.06
-0.6934746878251691
% es.Ey (V/m) @ t=0.06
0.051799957843129005
% es.Ez (V/m) @ t=0.06
-2.2144130798214707
% es.tEx (V/m) @ t=0.06
-0.6934746878251694
% es.tEy (V/m) @ t=0.06
0
% es.tEz (V/m) @ t=0.06
-2.2144130798214894
% V (V) @ t=0.06
0.011684397492571573
% es.normE (V/m) @ t=0.08
2.346162214608038
% es.EX (V/m) @ t=0.08
-0.699907462762991
% es.EY (V/m) @ t=0.08
0.05228046078701072
% es.EZ (V/m) @ t=0.08
-2.2349543076774223
% es.tEX (V/m) @ t=0.08
-0.6999074627629973
% es.tEY (V/m) @ t=0.08
0
% es.tEZ (V/m) @ t=0.08
-2.2349543076774436
% es.Ex (V/m) @ t=0.08
-0.699907462762991
% es.Ey (V/m) @ t=0.08
0.05228046078701072
% es.Ez (V/m) @ t=0.08
-2.2349543076774223
% es.tEx (V/m) @ t=0.08
-0.6999074627629973
% es.tEy (V/m) @ t=0.08
0
% es.tEz (V/m) @ t=0.08
-2.2349543076774436
% V (V) @ t=0.08
0.011792783748923851
% es.normE (V/m) @ t=0.1
2.3678274996888407
% es.EX (V/m) @ t=0.1
-0.706370653439918
% es.EY (V/m) @ t=0.1
0.05276323473862843
% es.EZ (V/m) @ t=0.1
-2.2555926601882765
% es.tEX (V/m) @ t=0.1
-0.7063706534399188
% es.tEY (V/m) @ t=0.1
0
% es.tEZ (V/m) @ t=0.1
-2.2555926601882916
% es.Ex (V/m) @ t=0.1
-0.706370653439918
% es.Ey (V/m) @ t=0.1
0.05276323473862843
% es.Ez (V/m) @ t=0.1
-2.2555926601882765
% es.tEx (V/m) @ t=0.1
-0.7063706534399188
% es.tEy (V/m) @ t=0.1
0
% es.tEz (V/m) @ t=0.1
-2.2555926601882916
% V (V) @ t=0.1
0.01190168251077067
% es.normE (V/m) @ t=0.12
2.3894927847696303
% es.EX (V/m) @ t=0.12
-0.7128338441168439
% es.EY (V/m) @ t=0.12
0.05324600869022862
% es.EZ (V/m) @ t=0.12
-2.2762310126991174
% es.tEX (V/m) @ t=0.12
-0.7128338441168474
% es.tEY (V/m) @ t=0.12
0
% es.tEZ (V/m) @ t=0.12
-2.276231012699152
% es.Ex (V/m) @ t=0.12
-0.7128338441168439
% es.Ey (V/m) @ t=0.12
0.05324600869022862
% es.Ez (V/m) @ t=0.12
-2.2762310126991174
% es.tEx (V/m) @ t=0.12
-0.7128338441168474
% es.tEy (V/m) @ t=0.12
0
% es.tEz (V/m) @ t=0.12
-2.276231012699152
% V (V) @ t=0.12
0.01201058127261749
% es.normE (V/m) @ t=0.14
2.4118162142442343
% es.EX (V/m) @ t=0.14
-0.7194933731615962
% es.EY (V/m) @ t=0.14
0.053743451607154866
% es.EZ (V/m) @ t=0.14
-2.2974963132108304
% es.tEX (V/m) @ t=0.14
-0.7194933731616011
% es.tEY (V/m) @ t=0.14
0
% es.tEZ (V/m) @ t=0.14
-2.297496313210856
% es.Ex (V/m) @ t=0.14
-0.7194933731615962
% es.Ey (V/m) @ t=0.14
0.053743451607154866
% es.Ez (V/m) @ t=0.14
-2.2974963132108304
% es.tEx (V/m) @ t=0.14
-0.7194933731616011
% es.tEy (V/m) @ t=0.14
0
% es.tEz (V/m) @ t=0.14
-2.297496313210856
% V (V) @ t=0.14
0.012122788051449666
% es.normE (V/m) @ t=0.16
2.4345628274463875
% es.EX (V/m) @ t=0.16
-0.726279146846804
% es.EY (V/m) @ t=0.16
0.054250326599313434
% es.EZ (V/m) @ t=0.16
-2.3191647383172054
% es.tEX (V/m) @ t=0.16
-0.7262791468468066
% es.tEY (V/m) @ t=0.16
0
% es.tEZ (V/m) @ t=0.16
-2.319164738317217
% es.Ex (V/m) @ t=0.16
-0.726279146846804
% es.Ey (V/m) @ t=0.16
0.054250326599313434
% es.Ez (V/m) @ t=0.16
-2.3191647383172054
% es.tEx (V/m) @ t=0.16
-0.7262791468468066
% es.tEy (V/m) @ t=0.16
0
% es.tEz (V/m) @ t=0.16
-2.319164738317217
% V (V) @ t=0.16
0.01223712186953306
% es.normE (V/m) @ t=0.18
2.457309440648518
% es.EX (V/m) @ t=0.18
-0.7330649205320054
% es.EY (V/m) @ t=0.18
0.05475720159144562
% es.EZ (V/m) @ t=0.18
-2.340833163423559
% es.tEX (V/m) @ t=0.18
-0.7330649205320192
% es.tEY (V/m) @ t=0.18
0
% es.tEZ (V/m) @ t=0.18
-2.3408331634235653
% es.Ex (V/m) @ t=0.18
-0.7330649205320054
% es.Ey (V/m) @ t=0.18
0.05475720159144562
% es.Ez (V/m) @ t=0.18
-2.340833163423559
% es.tEx (V/m) @ t=0.18
-0.7330649205320192
% es.tEy (V/m) @ t=0.18
0
% es.tEz (V/m) @ t=0.18
-2.3408331634235653
% V (V) @ t=0.18
0.012351455687616454
% es.normE (V/m) @ t=0.2
2.4800560538506566
% es.EX (V/m) @ t=0.2
-0.7398506942172095
% es.EY (V/m) @ t=0.2
0.05526407658360066
% es.EZ (V/m) @ t=0.2
-2.3625015885299208
% es.tEX (V/m) @ t=0.2
-0.7398506942172283
% es.tEY (V/m) @ t=0.2
0
% es.tEZ (V/m) @ t=0.2
-2.3625015885299403
% es.Ex (V/m) @ t=0.2
-0.7398506942172095
% es.Ey (V/m) @ t=0.2
0.05526407658360066
% es.Ez (V/m) @ t=0.2
-2.3625015885299208
% es.tEx (V/m) @ t=0.2
-0.7398506942172283
% es.tEy (V/m) @ t=0.2
0
% es.tEz (V/m) @ t=0.2
-2.3625015885299403
% V (V) @ t=0.2
0.012465789505699846
% es.normE (V/m) @ t=0.22
2.502802667052782
% es.EX (V/m) @ t=0.22
-0.7466364679024144
% es.EY (V/m) @ t=0.22
0.05577095157574018
% es.EZ (V/m) @ t=0.22
-2.3841700136362673
% es.tEX (V/m) @ t=0.22
-0.7466364679024267
% es.tEY (V/m) @ t=0.22
0
% es.tEZ (V/m) @ t=0.22
-2.3841700136363
% es.Ex (V/m) @ t=0.22
-0.7466364679024144
% es.Ey (V/m) @ t=0.22
0.05577095157574018
% es.Ez (V/m) @ t=0.22
-2.3841700136362673
% es.tEx (V/m) @ t=0.22
-0.7466364679024267
% es.tEy (V/m) @ t=0.22
0
% es.tEz (V/m) @ t=0.22
-2.3841700136363
% V (V) @ t=0.22
0.012580123323783238
% es.normE (V/m) @ t=0.24
2.5255492802549284
% es.EX (V/m) @ t=0.24
-0.7534222415876186
% es.EY (V/m) @ t=0.24
0.056277826567893235
% es.EZ (V/m) @ t=0.24
-2.405838438742636
% es.tEX (V/m) @ t=0.24
-0.753422241587618
% es.tEY (V/m) @ t=0.24
0
% es.tEZ (V/m) @ t=0.24
-2.4058384387426557
% es.Ex (V/m) @ t=0.24
-0.7534222415876186
% es.Ey (V/m) @ t=0.24
0.056277826567893235
% es.Ez (V/m) @ t=0.24
-2.405838438742636
% es.tEx (V/m) @ t=0.24
-0.753422241587618
% es.tEy (V/m) @ t=0.24
0
% es.tEz (V/m) @ t=0.24
-2.4058384387426557
% V (V) @ t=0.24
0.012694457141866634
% es.normE (V/m) @ t=0.26
2.548835466800964
% es.EX (V/m) @ t=0.26
-0.7603689804481593
% es.EY (V/m) @ t=0.26
0.05679672288605225
% es.EZ (V/m) @ t=0.26
-2.428020861726334
% es.tEX (V/m) @ t=0.26
-0.7603689804481633
% es.tEY (V/m) @ t=0.26
0
% es.tEZ (V/m) @ t=0.26
-2.4280208617263472
% es.Ex (V/m) @ t=0.26
-0.7603689804481593
% es.Ey (V/m) @ t=0.26
0.05679672288605225
% es.Ez (V/m) @ t=0.26
-2.428020861726334
% es.tEx (V/m) @ t=0.26
-0.7603689804481633
% es.tEy (V/m) @ t=0.26
0
% es.tEz (V/m) @ t=0.26
-2.4280208617263472
% V (V) @ t=0.26
0.012811503139728701
% es.normE (V/m) @ t=0.28
2.573996014530326
% es.EX (V/m) @ t=0.28
-0.7678748775397799
% es.EY (V/m) @ t=0.28
0.05735737869271773
% es.EZ (V/m) @ t=0.28
-2.4519888022499305
% es.tEX (V/m) @ t=0.28
-0.7678748775397963
% es.tEY (V/m) @ t=0.28
0
% es.tEZ (V/m) @ t=0.28
-2.451988802249959
% es.Ex (V/m) @ t=0.28
-0.7678748775397799
% es.Ey (V/m) @ t=0.28
0.05735737869271773
% es.Ez (V/m) @ t=0.28
-2.4519888022499305
% es.tEx (V/m) @ t=0.28
-0.7678748775397963
% es.tEy (V/m) @ t=0.28
0
% es.tEz (V/m) @ t=0.28
-2.451988802249959
% V (V) @ t=0.28
0.012937970663982
% es.normE (V/m) @ t=0.3
2.599156562259701
% es.EX (V/m) @ t=0.3
-0.7753807746314058
% es.EY (V/m) @ t=0.3
0.057918034499373036
% es.EZ (V/m) @ t=0.3
-2.4759567427735414
% es.tEX (V/m) @ t=0.3
-0.7753807746314223
% es.tEY (V/m) @ t=0.3
0
% es.tEZ (V/m) @ t=0.3
-2.4759567427735565
% es.Ex (V/m) @ t=0.3
-0.7753807746314058
% es.Ey (V/m) @ t=0.3
0.057918034499373036
% es.Ez (V/m) @ t=0.3
-2.4759567427735414
% es.tEx (V/m) @ t=0.3
-0.7753807746314223
% es.tEy (V/m) @ t=0.3
0
% es.tEz (V/m) @ t=0.3
-2.4759567427735565
% V (V) @ t=0.3
0.013064438188235293
% es.normE (V/m) @ t=0.32
2.6243171099890636
% es.EX (V/m) @ t=0.32
-0.7828866717230302
% es.EY (V/m) @ t=0.32
0.058478690306040235
% es.EZ (V/m) @ t=0.32
-2.499924683297137
% es.tEX (V/m) @ t=0.32
-0.782886671723034
% es.tEY (V/m) @ t=0.32
0
% es.tEZ (V/m) @ t=0.32
-2.499924683297168
% es.Ex (V/m) @ t=0.32
-0.7828866717230302
% es.Ey (V/m) @ t=0.32
0.058478690306040235
% es.Ez (V/m) @ t=0.32
-2.499924683297137
% es.tEx (V/m) @ t=0.32
-0.782886671723034
% es.tEy (V/m) @ t=0.32
0
% es.tEz (V/m) @ t=0.32
-2.499924683297168
% V (V) @ t=0.32
0.013190905712488592
% es.normE (V/m) @ t=0.34
2.649477657718438
% es.EX (V/m) @ t=0.34
-0.7903925688146545
% es.EY (V/m) @ t=0.34
0.05903934611270216
% es.EZ (V/m) @ t=0.34
-2.523892623820747
% es.tEX (V/m) @ t=0.34
-0.79039256881466
% es.tEY (V/m) @ t=0.34
0
% es.tEZ (V/m) @ t=0.34
-2.523892623820764
% es.Ex (V/m) @ t=0.34
-0.7903925688146545
% es.Ey (V/m) @ t=0.34
0.05903934611270216
% es.Ez (V/m) @ t=0.34
-2.523892623820747
% es.tEx (V/m) @ t=0.34
-0.79039256881466
% es.tEy (V/m) @ t=0.34
0
% es.tEz (V/m) @ t=0.34
-2.523892623820764
% V (V) @ t=0.34
0.013317373236741887
% es.normE (V/m) @ t=0.36
2.674638205447798
% es.EX (V/m) @ t=0.36
-0.7978984659062733
% es.EY (V/m) @ t=0.36
0.059600001919349846
% es.EZ (V/m) @ t=0.36
-2.5478605643443437
% es.tEX (V/m) @ t=0.36
-0.797898465906286
% es.tEY (V/m) @ t=0.36
0
% es.tEZ (V/m) @ t=0.36
-2.5478605643443757
% es.Ex (V/m) @ t=0.36
-0.7978984659062733
% es.Ey (V/m) @ t=0.36
0.059600001919349846
% es.Ez (V/m) @ t=0.36
-2.5478605643443437
% es.tEx (V/m) @ t=0.36
-0.797898465906286
% es.tEy (V/m) @ t=0.36
0
% es.tEz (V/m) @ t=0.36
-2.5478605643443757
% V (V) @ t=0.36
0.013443840760995186
% es.normE (V/m) @ t=0.38
2.699798753177183
% es.EX (V/m) @ t=0.38
-0.8054043629979102
% es.EY (V/m) @ t=0.38
0.06016065772601174
% es.EZ (V/m) @ t=0.38
-2.57182850486796
% es.tEX (V/m) @ t=0.38
-0.8054043629979262
% es.tEY (V/m) @ t=0.38
0
% es.tEZ (V/m) @ t=0.38
-2.5718285048679874
% es.Ex (V/m) @ t=0.38
-0.8054043629979102
% es.Ey (V/m) @ t=0.38
0.06016065772601174
% es.Ez (V/m) @ t=0.38
-2.57182850486796
% es.tEx (V/m) @ t=0.38
-0.8054043629979262
% es.tEy (V/m) @ t=0.38
0
% es.tEz (V/m) @ t=0.38
-2.5718285048679874
% V (V) @ t=0.38
0.01357030828524848
% es.normE (V/m) @ t=0.4
2.724959300906579
% es.EX (V/m) @ t=0.4
-0.812910260089529
% es.EY (V/m) @ t=0.4
0.06072131353268079
% es.EZ (V/m) @ t=0.4
-2.595796445391593
% es.tEX (V/m) @ t=0.4
-0.812910260089545
% es.tEY (V/m) @ t=0.4
0
% es.tEZ (V/m) @ t=0.4
-2.595796445391599
% es.Ex (V/m) @ t=0.4
-0.812910260089529
% es.Ey (V/m) @ t=0.4
0.06072131353268079
% es.Ez (V/m) @ t=0.4
-2.595796445391593
% es.tEx (V/m) @ t=0.4
-0.812910260089545
% es.tEy (V/m) @ t=0.4
0
% es.tEz (V/m) @ t=0.4
-2.595796445391599
% V (V) @ t=0.4
0.013696775809501778
% es.normE (V/m) @ t=0.42
2.750119848635932
% es.EX (V/m) @ t=0.42
-0.8204161571811515
% es.EY (V/m) @ t=0.42
0.0612819693393285
% es.EZ (V/m) @ t=0.42
-2.6197643859151816
% es.tEX (V/m) @ t=0.42
-0.8204161571811497
% es.tEY (V/m) @ t=0.42
0
% es.tEZ (V/m) @ t=0.42
-2.619764385915195
% es.Ex (V/m) @ t=0.42
-0.8204161571811515
% es.Ey (V/m) @ t=0.42
0.0612819693393285
% es.Ez (V/m) @ t=0.42
-2.6197643859151816
% es.tEx (V/m) @ t=0.42
-0.8204161571811497
% es.tEy (V/m) @ t=0.42
0
% es.tEz (V/m) @ t=0.42
-2.619764385915195
% V (V) @ t=0.42
0.013823243333755075
% es.normE (V/m) @ t=0.44
2.7752803963652894
% es.EX (V/m) @ t=0.44
-0.8279220542727812
% es.EY (V/m) @ t=0.44
0.06184262514600636
% es.EZ (V/m) @ t=0.44
-2.64373232643877
% es.tEX (V/m) @ t=0.44
-0.8279220542727899
% es.tEY (V/m) @ t=0.44
0
% es.tEZ (V/m) @ t=0.44
-2.6437323264387924
% es.Ex (V/m) @ t=0.44
-0.8279220542727812
% es.Ey (V/m) @ t=0.44
0.06184262514600636
% es.Ez (V/m) @ t=0.44
-2.64373232643877
% es.tEx (V/m) @ t=0.44
-0.8279220542727899
% es.tEy (V/m) @ t=0.44
0
% es.tEz (V/m) @ t=0.44
-2.6437323264387924
% V (V) @ t=0.44
0.013949710858008372
% es.normE (V/m) @ t=0.46
2.800440944094671
% es.EX (V/m) @ t=0.46
-0.8354279513644055
% es.EY (V/m) @ t=0.46
0.06240328095266651
% es.EZ (V/m) @ t=0.46
-2.6677002669623873
% es.tEX (V/m) @ t=0.46
-0.8354279513644087
% es.tEY (V/m) @ t=0.46
0
% es.tEZ (V/m) @ t=0.46
-2.667700266962404
% es.Ex (V/m) @ t=0.46
-0.8354279513644055
% es.Ey (V/m) @ t=0.46
0.06240328095266651
% es.Ez (V/m) @ t=0.46
-2.6677002669623873
% es.tEx (V/m) @ t=0.46
-0.8354279513644087
% es.tEy (V/m) @ t=0.46
0
% es.tEz (V/m) @ t=0.46
-2.667700266962404
% V (V) @ t=0.46
0.01407617838226167
% es.normE (V/m) @ t=0.48
2.8256014918240306
% es.EX (V/m) @ t=0.48
-0.8429338484560207
% es.EY (V/m) @ t=0.48
0.06296393675930893
% es.EZ (V/m) @ t=0.48
-2.691668207485984
% es.tEX (V/m) @ t=0.48
-0.8429338484560347
% es.tEY (V/m) @ t=0.48
0
% es.tEZ (V/m) @ t=0.48
-2.691668207486014
% es.Ex (V/m) @ t=0.48
-0.8429338484560207
% es.Ey (V/m) @ t=0.48
0.06296393675930893
% es.Ez (V/m) @ t=0.48
-2.691668207485984
% es.tEx (V/m) @ t=0.48
-0.8429338484560347
% es.tEy (V/m) @ t=0.48
0
% es.tEz (V/m) @ t=0.48
-2.691668207486014
% V (V) @ t=0.48
0.014202645906514967
% es.normE (V/m) @ t=0.5
2.850762039553411
% es.EX (V/m) @ t=0.5
-0.8504397455476416
% es.EY (V/m) @ t=0.5
0.06352459256598499
% es.EZ (V/m) @ t=0.5
-2.715636148009601
% es.tEX (V/m) @ t=0.5
-0.8504397455476465
% es.tEY (V/m) @ t=0.5
0
% es.tEZ (V/m) @ t=0.5
-2.715636148009626
% es.Ex (V/m) @ t=0.5
-0.8504397455476416
% es.Ey (V/m) @ t=0.5
0.06352459256598499
% es.Ez (V/m) @ t=0.5
-2.715636148009601
% es.tEx (V/m) @ t=0.5
-0.8504397455476465
% es.tEy (V/m) @ t=0.5
0
% es.tEz (V/m) @ t=0.5
-2.715636148009626
% V (V) @ t=0.5
0.014329113430768264
% es.normE (V/m) @ t=0.52
2.877152439110312
% es.EX (V/m) @ t=0.52
-0.8583125327920513
% es.EY (V/m) @ t=0.52
0.06411265663327842
% es.EZ (V/m) @ t=0.52
-2.740775645117446
% es.tEX (V/m) @ t=0.52
-0.8583125327920555
% es.tEY (V/m) @ t=0.52
0
% es.tEZ (V/m) @ t=0.52
-2.7407756451174663
% es.Ex (V/m) @ t=0.52
-0.8583125327920513
% es.Ey (V/m) @ t=0.52
0.06411265663327842
% es.Ez (V/m) @ t=0.52
-2.740775645117446
% es.tEx (V/m) @ t=0.52
-0.8583125327920555
% es.tEy (V/m) @ t=0.52
0
% es.tEz (V/m) @ t=0.52
-2.7407756451174663
% V (V) @ t=0.52
0.014461762617904298
% es.normE (V/m) @ t=0.54
2.9050261885521556
% es.EX (V/m) @ t=0.54
-0.8666278338854494
% es.EY (V/m) @ t=0.54
0.0647337783741562
% es.EZ (V/m) @ t=0.54
-2.767328181004066
% es.tEX (V/m) @ t=0.54
-0.8666278338854596
% es.tEY (V/m) @ t=0.54
0
% es.tEZ (V/m) @ t=0.54
-2.7673281810040784
% es.Ex (V/m) @ t=0.54
-0.8666278338854494
% es.Ey (V/m) @ t=0.54
0.0647337783741562
% es.Ez (V/m) @ t=0.54
-2.767328181004066
% es.tEx (V/m) @ t=0.54
-0.8666278338854596
% es.tEy (V/m) @ t=0.54
0
% es.tEz (V/m) @ t=0.54
-2.7673281810040784
% V (V) @ t=0.54
0.014601867637296324
% es.normE (V/m) @ t=0.56
2.9328999379939695
% es.EX (V/m) @ t=0.56
-0.8749431349788365
% es.EY (V/m) @ t=0.56
0.06535490011504864
% es.EZ (V/m) @ t=0.56
-2.7938807168906585
% es.tEX (V/m) @ t=0.56
-0.8749431349788424
% es.tEY (V/m) @ t=0.56
0
% es.tEZ (V/m) @ t=0.56
-2.7938807168906905
% es.Ex (V/m) @ t=0.56
-0.8749431349788365
% es.Ey (V/m) @ t=0.56
0.06535490011504864
% es.Ez (V/m) @ t=0.56
-2.7938807168906585
% es.tEx (V/m) @ t=0.56
-0.8749431349788424
% es.tEy (V/m) @ t=0.56
0
% es.tEz (V/m) @ t=0.56
-2.7938807168906905
% V (V) @ t=0.56
0.014741972656688357
% es.normE (V/m) @ t=0.58
2.9607736874358275
% es.EX (V/m) @ t=0.58
-0.8832584360722395
% es.EY (V/m) @ t=0.58
0.06597602185592473
% es.EZ (V/m) @ t=0.58
-2.8204332527772937
% es.tEX (V/m) @ t=0.58
-0.8832584360722535
% es.tEY (V/m) @ t=0.58
0
% es.tEZ (V/m) @ t=0.58
-2.820433252777317
% es.Ex (V/m) @ t=0.58
-0.8832584360722395
% es.Ey (V/m) @ t=0.58
0.06597602185592473
% es.Ez (V/m) @ t=0.58
-2.8204332527772937
% es.tEx (V/m) @ t=0.58
-0.8832584360722535
% es.tEy (V/m) @ t=0.58
0
% es.tEz (V/m) @ t=0.58
-2.820433252777317
% V (V) @ t=0.58
0.014882077676080383
% es.normE (V/m) @ t=0.6
2.9886474368776605
% es.EX (V/m) @ t=0.6
-0.8915737371656465
% es.EY (V/m) @ t=0.6
0.06659714359681666
% es.EZ (V/m) @ t=0.6
-2.8469857886639005
% es.tEX (V/m) @ t=0.6
-0.8915737371656505
% es.tEY (V/m) @ t=0.6
0
% es.tEZ (V/m) @ t=0.6
-2.846985788663943
% es.Ex (V/m) @ t=0.6
-0.8915737371656465
% es.Ey (V/m) @ t=0.6
0.06659714359681666
% es.Ez (V/m) @ t=0.6
-2.8469857886639005
% es.tEx (V/m) @ t=0.6
-0.8915737371656505
% es.tEy (V/m) @ t=0.6
0
% es.tEz (V/m) @ t=0.6
-2.846985788663943
% V (V) @ t=0.6
0.015022182695472413
% es.normE (V/m) @ t=0.62
3.016521186319487
% es.EX (V/m) @ t=0.62
-0.8998890382590299
% es.EY (V/m) @ t=0.62
0.06721826533768076
% es.EZ (V/m) @ t=0.62
-2.8735383245505073
% es.tEX (V/m) @ t=0.62
-0.8998890382590403
% es.tEY (V/m) @ t=0.62
0
% es.tEZ (V/m) @ t=0.62
-2.873538324550527
% es.Ex (V/m) @ t=0.62
-0.8998890382590299
% es.Ey (V/m) @ t=0.62
0.06721826533768076
% es.Ez (V/m) @ t=0.62
-2.8735383245505073
% es.tEx (V/m) @ t=0.62
-0.8998890382590403
% es.tEy (V/m) @ t=0.62
0
% es.tEz (V/m) @ t=0.62
-2.873538324550527
% V (V) @ t=0.62
0.015162287714864444
% es.normE (V/m) @ t=0.64
3.044394935761331
% es.EX (V/m) @ t=0.64
-0.9082043393524275
% es.EY (V/m) @ t=0.64
0.06783938707856388
% es.EZ (V/m) @ t=0.64
-2.9000908604371283
% es.tEX (V/m) @ t=0.64
-0.9082043393524302
% es.tEY (V/m) @ t=0.64
0
% es.tEZ (V/m) @ t=0.64
-2.900090860437153
% es.Ex (V/m) @ t=0.64
-0.9082043393524275
% es.Ey (V/m) @ t=0.64
0.06783938707856388
% es.Ez (V/m) @ t=0.64
-2.9000908604371283
% es.tEx (V/m) @ t=0.64
-0.9082043393524302
% es.tEy (V/m) @ t=0.64
0
% es.tEz (V/m) @ t=0.64
-2.900090860437153
% V (V) @ t=0.64
0.015302392734256473
% es.normE (V/m) @ t=0.66
3.072268685203173
% es.EX (V/m) @ t=0.66
-0.91651964044582
% es.EY (V/m) @ t=0.66
0.06846050881944574
% es.EZ (V/m) @ t=0.66
-2.9266433963237493
% es.tEX (V/m) @ t=0.66
-0.9165196404458271
% es.tEY (V/m) @ t=0.66
0
% es.tEZ (V/m) @ t=0.66
-2.9266433963237652
% es.Ex (V/m) @ t=0.66
-0.91651964044582
% es.Ey (V/m) @ t=0.66
0.06846050881944574
% es.Ez (V/m) @ t=0.66
-2.9266433963237493
% es.tEx (V/m) @ t=0.66
-0.9165196404458271
% es.tEy (V/m) @ t=0.66
0
% es.tEz (V/m) @ t=0.66
-2.9266433963237652
% V (V) @ t=0.66
0.0154424977536485
% es.normE (V/m) @ t=0.68
3.1001424346450173
% es.EX (V/m) @ t=0.68
-0.9248349415392143
% es.EY (V/m) @ t=0.68
0.06908163056033374
% es.EZ (V/m) @ t=0.68
-2.953195932210371
% es.tEX (V/m) @ t=0.68
-0.924834941539217
% es.tEY (V/m) @ t=0.68
0
% es.tEZ (V/m) @ t=0.68
-2.95319593221039
% es.Ex (V/m) @ t=0.68
-0.9248349415392143
% es.Ey (V/m) @ t=0.68
0.06908163056033374
% es.Ez (V/m) @ t=0.68
-2.953195932210371
% es.tEx (V/m) @ t=0.68
-0.924834941539217
% es.tEy (V/m) @ t=0.68
0
% es.tEz (V/m) @ t=0.68
-2.95319593221039
% V (V) @ t=0.68
0.015582602773040534
% es.normE (V/m) @ t=0.7
3.1280161840868494
% es.EX (V/m) @ t=0.7
-0.933150242632623
% es.EY (V/m) @ t=0.7
0.06970275230122255
% es.EZ (V/m) @ t=0.7
-2.979748468096976
% es.tEX (V/m) @ t=0.7
-0.9331502426326352
% es.tEY (V/m) @ t=0.7
0
% es.tEZ (V/m) @ t=0.7
-2.9797484680970037
% es.Ex (V/m) @ t=0.7
-0.933150242632623
% es.Ey (V/m) @ t=0.7
0.06970275230122255
% es.Ez (V/m) @ t=0.7
-2.979748468096976
% es.tEx (V/m) @ t=0.7
-0.9331502426326352
% es.tEy (V/m) @ t=0.7
0
% es.tEz (V/m) @ t=0.7
-2.9797484680970037
% V (V) @ t=0.7
0.01572270779243256
% es.normE (V/m) @ t=0.72
3.155889933528689
% es.EX (V/m) @ t=0.72
-0.9414655437260102
% es.EY (V/m) @ t=0.72
0.07032387404208304
% es.EZ (V/m) @ t=0.72
-3.006301003983597
% es.tEX (V/m) @ t=0.72
-0.941465543726018
% es.tEY (V/m) @ t=0.72
0
% es.tEZ (V/m) @ t=0.72
-3.006301003983614
% es.Ex (V/m) @ t=0.72
-0.9414655437260102
% es.Ey (V/m) @ t=0.72
0.07032387404208304
% es.Ez (V/m) @ t=0.72
-3.006301003983597
% es.tEx (V/m) @ t=0.72
-0.941465543726018
% es.tEy (V/m) @ t=0.72
0
% es.tEz (V/m) @ t=0.72
-3.006301003983614
% V (V) @ t=0.72
0.015862812811824594
% es.normE (V/m) @ t=0.74
3.18376368297052
% es.EX (V/m) @ t=0.74
-0.9497808448194078
% es.EY (V/m) @ t=0.74
0.07094499578297155
% es.EZ (V/m) @ t=0.74
-3.032853539870204
% es.tEX (V/m) @ t=0.74
-0.9497808448194149
% es.tEY (V/m) @ t=0.74
0
% es.tEZ (V/m) @ t=0.74
-3.032853539870228
% es.Ex (V/m) @ t=0.74
-0.9497808448194078
% es.Ey (V/m) @ t=0.74
0.07094499578297155
% es.Ez (V/m) @ t=0.74
-3.032853539870204
% es.tEx (V/m) @ t=0.74
-0.9497808448194149
% es.tEy (V/m) @ t=0.74
0
% es.tEz (V/m) @ t=0.74
-3.032853539870228
% V (V) @ t=0.74
0.01600291783121662
% es.normE (V/m) @ t=0.76
3.2116374324123527
% es.EX (V/m) @ t=0.76
-0.958096145912811
% es.EY (V/m) @ t=0.76
0.07156611752386355
% es.EZ (V/m) @ t=0.76
-3.0594060757568107
% es.tEX (V/m) @ t=0.76
-0.958096145912819
% es.tEY (V/m) @ t=0.76
0
% es.tEZ (V/m) @ t=0.76
-3.059406075756824
% es.Ex (V/m) @ t=0.76
-0.958096145912811
% es.Ey (V/m) @ t=0.76
0.07156611752386355
% es.Ez (V/m) @ t=0.76
-3.0594060757568107
% es.tEx (V/m) @ t=0.76
-0.958096145912819
% es.tEy (V/m) @ t=0.76
0
% es.tEz (V/m) @ t=0.76
-3.059406075756824
% V (V) @ t=0.76
0.01614302285060865
% es.normE (V/m) @ t=0.78
3.241597823873054
% es.EX (V/m) @ t=0.78
-0.9670339344364043
% es.EY (V/m) @ t=0.78
0.07223373711104253
% es.EZ (V/m) @ t=0.78
-3.087946346947155
% es.tEX (V/m) @ t=0.78
-0.9670339344364081
% es.tEY (V/m) @ t=0.78
0
% es.tEZ (V/m) @ t=0.78
-3.0879463469471737
% es.Ex (V/m) @ t=0.78
-0.9670339344364043
% es.Ey (V/m) @ t=0.78
0.07223373711104253
% es.Ez (V/m) @ t=0.78
-3.087946346947155
% es.tEx (V/m) @ t=0.78
-0.9670339344364081
% es.tEy (V/m) @ t=0.78
0
% es.tEz (V/m) @ t=0.78
-3.0879463469471737
% V (V) @ t=0.78
0.016293616187334912
% es.normE (V/m) @ t=0.8
3.2725264882339955
% es.EX (V/m) @ t=0.8
-0.9762605783093932
% es.EY (V/m) @ t=0.8
0.07292293328113557
% es.EZ (V/m) @ t=0.8
-3.1174089949563513
% es.tEX (V/m) @ t=0.8
-0.9762605783094003
% es.tEY (V/m) @ t=0.8
0
% es.tEZ (V/m) @ t=0.8
-3.1174089949563797
% es.Ex (V/m) @ t=0.8
-0.9762605783093932
% es.Ey (V/m) @ t=0.8
0.07292293328113557
% es.Ez (V/m) @ t=0.8
-3.1174089949563513
% es.tEx (V/m) @ t=0.8
-0.9762605783094003
% es.tEy (V/m) @ t=0.8
0
% es.tEz (V/m) @ t=0.8
-3.1174089949563797
% V (V) @ t=0.8
0.016449076460196884
% es.normE (V/m) @ t=0.82
3.3034551525949465
% es.EX (V/m) @ t=0.82
-0.9854872221823741
% es.EY (V/m) @ t=0.82
0.07361212945122533
% es.EZ (V/m) @ t=0.82
-3.14687164296556
% es.tEX (V/m) @ t=0.82
-0.9854872221823854
% es.tEY (V/m) @ t=0.82
0
% es.tEZ (V/m) @ t=0.82
-3.146871642965584
% es.Ex (V/m) @ t=0.82
-0.9854872221823741
% es.Ey (V/m) @ t=0.82
0.07361212945122533
% es.Ez (V/m) @ t=0.82
-3.14687164296556
% es.tEx (V/m) @ t=0.82
-0.9854872221823854
% es.tEy (V/m) @ t=0.82
0
% es.tEz (V/m) @ t=0.82
-3.146871642965584
% V (V) @ t=0.82
0.01660453673305885
% es.normE (V/m) @ t=0.84
3.3343838169558744
% es.EX (V/m) @ t=0.84
-0.9947138660553523
% es.EY (V/m) @ t=0.84
0.07430132562131526
% es.EZ (V/m) @ t=0.84
-3.1763342909747427
% es.tEX (V/m) @ t=0.84
-0.9947138660553634
% es.tEY (V/m) @ t=0.84
0
% es.tEZ (V/m) @ t=0.84
-3.1763342909747596
% es.Ex (V/m) @ t=0.84
-0.9947138660553523
% es.Ey (V/m) @ t=0.84
0.07430132562131526
% es.Ez (V/m) @ t=0.84
-3.1763342909747427
% es.tEx (V/m) @ t=0.84
-0.9947138660553634
% es.tEy (V/m) @ t=0.84
0
% es.tEz (V/m) @ t=0.84
-3.1763342909747596
% V (V) @ t=0.84
0.016759997005920818
% es.normE (V/m) @ t=0.86
3.3653124813168267
% es.EX (V/m) @ t=0.86
-1.0039405099283363
% es.EY (V/m) @ t=0.86
0.07499052179140822
% es.EZ (V/m) @ t=0.86
-3.2057969389839522
% es.tEX (V/m) @ t=0.86
-1.0039405099283485
% es.tEY (V/m) @ t=0.86
0
% es.tEZ (V/m) @ t=0.86
-3.205796938983978
% es.Ex (V/m) @ t=0.86
-1.0039405099283363
% es.Ey (V/m) @ t=0.86
0.07499052179140822
% es.Ez (V/m) @ t=0.86
-3.2057969389839522
% es.tEx (V/m) @ t=0.86
-1.0039405099283485
% es.tEy (V/m) @ t=0.86
0
% es.tEz (V/m) @ t=0.86
-3.205796938983978
% V (V) @ t=0.86
0.016915457278782783
% es.normE (V/m) @ t=0.88
3.39624114567778
% es.EX (V/m) @ t=0.88
-1.0131671538013218
% es.EY (V/m) @ t=0.88
0.07567971796149105
% es.EZ (V/m) @ t=0.88
-3.2352595869931635
% es.tEX (V/m) @ t=0.88
-1.0131671538013265
% es.tEY (V/m) @ t=0.88
0
% es.tEZ (V/m) @ t=0.88
-3.235259586993184
% es.Ex (V/m) @ t=0.88
-1.0131671538013218
% es.Ey (V/m) @ t=0.88
0.07567971796149105
% es.Ez (V/m) @ t=0.88
-3.2352595869931635
% es.tEx (V/m) @ t=0.88
-1.0131671538013265
% es.tEy (V/m) @ t=0.88
0
% es.tEz (V/m) @ t=0.88
-3.235259586993184
% V (V) @ t=0.88
0.017070917551644752
% es.normE (V/m) @ t=0.9
3.4271698100386643
% es.EX (V/m) @ t=0.9
-1.0223937976742952
% es.EY (V/m) @ t=0.9
0.0763689141315809
% es.EZ (V/m) @ t=0.9
-3.264722235002302
% es.tEX (V/m) @ t=0.9
-1.0223937976743045
% es.tEY (V/m) @ t=0.9
0
% es.tEZ (V/m) @ t=0.9
-3.264722235002358
% es.Ex (V/m) @ t=0.9
-1.0223937976742952
% es.Ey (V/m) @ t=0.9
0.0763689141315809
% es.Ez (V/m) @ t=0.9
-3.264722235002302
% es.tEx (V/m) @ t=0.9
-1.0223937976743045
% es.tEy (V/m) @ t=0.9
0
% es.tEz (V/m) @ t=0.9
-3.264722235002358
% V (V) @ t=0.9
0.01722637782450672
% es.normE (V/m) @ t=0.92
3.4580984743996326
% es.EX (V/m) @ t=0.92
-1.031620441547288
% es.EY (V/m) @ t=0.92
0.0770581103016703
% es.EZ (V/m) @ t=0.92
-3.2941848830115257
% es.tEX (V/m) @ t=0.92
-1.0316204415472967
% es.tEY (V/m) @ t=0.92
0
% es.tEZ (V/m) @ t=0.92
-3.294184883011562
% es.Ex (V/m) @ t=0.92
-1.031620441547288
% es.Ey (V/m) @ t=0.92
0.0770581103016703
% es.Ez (V/m) @ t=0.92
-3.2941848830115257
% es.tEx (V/m) @ t=0.92
-1.0316204415472967
% es.tEy (V/m) @ t=0.92
0
% es.tEz (V/m) @ t=0.92
-3.294184883011562
% V (V) @ t=0.92
0.017381838097368686
% es.normE (V/m) @ t=0.94
3.4890271387605702
% es.EX (V/m) @ t=0.94
-1.0408470854202667
% es.EY (V/m) @ t=0.94
0.07774730647175306
% es.EZ (V/m) @ t=0.94
-3.323647531020721
% es.tEX (V/m) @ t=0.94
-1.0408470854202747
% es.tEY (V/m) @ t=0.94
0
% es.tEZ (V/m) @ t=0.94
-3.323647531020754
% es.Ex (V/m) @ t=0.94
-1.0408470854202667
% es.Ey (V/m) @ t=0.94
0.07774730647175306
% es.Ez (V/m) @ t=0.94
-3.323647531020721
% es.tEx (V/m) @ t=0.94
-1.0408470854202747
% es.tEy (V/m) @ t=0.94
0
% es.tEz (V/m) @ t=0.94
-3.323647531020754
% V (V) @ t=0.94
0.017537298370230662
% es.normE (V/m) @ t=0.96
3.5199558031215235
% es.EX (V/m) @ t=0.96
-1.0500737292932505
% es.EY (V/m) @ t=0.96
0.07843650264184963
% es.EZ (V/m) @ t=0.96
-3.3531101790299322
% es.tEX (V/m) @ t=0.96
-1.0500737292932527
% es.tEY (V/m) @ t=0.96
0
% es.tEZ (V/m) @ t=0.96
-3.3531101790299704
% es.Ex (V/m) @ t=0.96
-1.0500737292932505
% es.Ey (V/m) @ t=0.96
0.07843650264184963
% es.Ez (V/m) @ t=0.96
-3.3531101790299322
% es.tEx (V/m) @ t=0.96
-1.0500737292932527
% es.tEy (V/m) @ t=0.96
0
% es.tEz (V/m) @ t=0.96
-3.3531101790299704
% V (V) @ t=0.96
0.017692758643092627
% es.normE (V/m) @ t=0.98
3.5508844674824624
% es.EX (V/m) @ t=0.98
-1.0593003731662292
% es.EY (V/m) @ t=0.98
0.07912569881193594
% es.EZ (V/m) @ t=0.98
-3.3825728270391275
% es.tEX (V/m) @ t=0.98
-1.059300373166245
% es.tEY (V/m) @ t=0.98
0
% es.tEZ (V/m) @ t=0.98
-3.382572827039162
% es.Ex (V/m) @ t=0.98
-1.0593003731662292
% es.Ey (V/m) @ t=0.98
0.07912569881193594
% es.Ez (V/m) @ t=0.98
-3.3825728270391275
% es.tEx (V/m) @ t=0.98
-1.059300373166245
% es.tEy (V/m) @ t=0.98
0
% es.tEz (V/m) @ t=0.98
-3.382572827039162
% V (V) @ t=0.98
0.0178482189159546
% es.normE (V/m) @ t=1
3.581813131843404
% es.EX (V/m) @ t=1
-1.0685270170392203
% es.EY (V/m) @ t=1
0.07981489498201158
% es.EZ (V/m) @ t=1
-3.412035475048323
% es.tEX (V/m) @ t=1
-1.068527017039223
% es.tEY (V/m) @ t=1
0
% es.tEZ (V/m) @ t=1
-3.412035475048352
% es.Ex (V/m) @ t=1
-1.0685270170392203
% es.Ey (V/m) @ t=1
0.07981489498201158
% es.Ez (V/m) @ t=1
-3.412035475048323
% es.tEx (V/m) @ t=1
-1.068527017039223
% es.tEy (V/m) @ t=1
0
% es.tEz (V/m) @ t=1
-3.412035475048352
% V (V) @ t=1
0.01800367918881656
% es.normE (V/m) @ t=1.02
3.6127417962043555
% es.EX (V/m) @ t=1.02
-1.0777536609121972
% es.EY (V/m) @ t=1.02
0.08050409115211163
% es.EZ (V/m) @ t=1.02
-3.441498123057533
% es.tEX (V/m) @ t=1.02
-1.077753660912208
% es.tEY (V/m) @ t=1.02
0
% es.tEZ (V/m) @ t=1.02
-3.4414981230575545
% es.Ex (V/m) @ t=1.02
-1.0777536609121972
% es.Ey (V/m) @ t=1.02
0.08050409115211163
% es.Ez (V/m) @ t=1.02
-3.441498123057533
% es.tEx (V/m) @ t=1.02
-1.077753660912208
% es.tEy (V/m) @ t=1.02
0
% es.tEz (V/m) @ t=1.02
-3.4414981230575545
% V (V) @ t=1.02
0.018159139461678533
% es.normE (V/m) @ t=1.04
3.6450462915579322
% es.EX (V/m) @ t=1.04
-1.0873907429787826