% Model:              1 neuron.mph
% Version:            COMSOL 6.1.0.252
% Date:               Mar 22 2023, 19:33
% Dimension:          0
% Nodes:              14017
% Expressions:        14017
% Description:        Electric field norm, Electric field, X component, Electric field, Y component, Electric field, Z component, Tangential electric field, X component, Tangential electric field, Y component, Tangential electric field, Z component, Electric field, x component, Electric field, y component, Electric field, z component, Tangential electric field, x component, Tangential electric field, y component, Tangential electric field, z component, Electric potential
% Length unit:        mm
% x
1.33
% y
12.2
% z
2
% es.normE (V/m) @ t=0
2.646718712573943
% es.EX (V/m) @ t=0
1.0548197317301224
% es.EY (V/m) @ t=0
0.27887487737895
% es.EZ (V/m) @ t=0
-2.4092293180266946
% es.tEX (V/m) @ t=0
1.054819731730123
% es.tEY (V/m) @ t=0
0
% es.tEZ (V/m) @ t=0
-2.4092293180267035
% es.Ex (V/m) @ t=0
1.0548197317301224
% es.Ey (V/m) @ t=0
0.27887487737895
% es.Ez (V/m) @ t=0
-2.4092293180266946
% es.tEx (V/m) @ t=0
1.054819731730123
% es.tEy (V/m) @ t=0
0
% es.tEz (V/m) @ t=0
-2.4092293180267035
% V (V) @ t=0
0.013233823579897169
% es.normE (V/m) @ t=0.02
2.2860114011905814
% es.EX (V/m) @ t=0.02
0.9110639228642696
% es.EY (V/m) @ t=0.02
0.24086849365985508
% es.EZ (V/m) @ t=0.02
-2.0808881816122247
% es.tEX (V/m) @ t=0.02
0.9110639228642698
% es.tEY (V/m) @ t=0.02
0
% es.tEZ (V/m) @ t=0.02
-2.080888181612231
% es.Ex (V/m) @ t=0.02
0.9110639228642696
% es.Ey (V/m) @ t=0.02
0.24086849365985508
% es.Ez (V/m) @ t=0.02
-2.0808881816122247
% es.tEx (V/m) @ t=0.02
0.9110639228642698
% es.tEy (V/m) @ t=0.02
0
% es.tEz (V/m) @ t=0.02
-2.080888181612231
% V (V) @ t=0.02
0.01143025567230195
% es.normE (V/m) @ t=0.04
2.307054525460568
% es.EX (V/m) @ t=0.04
0.9194504214567392
% es.EY (V/m) @ t=0.04
0.24308572926756078
% es.EZ (V/m) @ t=0.04
-2.100043111694456
% es.tEX (V/m) @ t=0.04
0.9194504214567361
% es.tEY (V/m) @ t=0.04
0
% es.tEZ (V/m) @ t=0.04
-2.100043111694463
% es.Ex (V/m) @ t=0.04
0.9194504214567392
% es.Ey (V/m) @ t=0.04
0.24308572926756078
% es.Ez (V/m) @ t=0.04
-2.100043111694456
% es.tEx (V/m) @ t=0.04
0.9194504214567361
% es.tEy (V/m) @ t=0.04
0
% es.tEz (V/m) @ t=0.04
-2.100043111694463
% V (V) @ t=0.04
0.011535473119436016
% es.normE (V/m) @ t=0.06
2.3282488280384155
% es.EX (V/m) @ t=0.06
0.927897170355074
% es.EY (V/m) @ t=0.06
0.24531889360112835
% es.EZ (V/m) @ t=0.06
-2.119335654962124
% es.tEX (V/m) @ t=0.06
0.9278971703550707
% es.tEY (V/m) @ t=0.06
0
% es.tEZ (V/m) @ t=0.06
-2.1193356549621267
% es.Ex (V/m) @ t=0.06
0.927897170355074
% es.Ey (V/m) @ t=0.06
0.24531889360112835
% es.Ez (V/m) @ t=0.06
-2.119335654962124
% es.tEx (V/m) @ t=0.06
0.9278971703550707
% es.tEy (V/m) @ t=0.06
0
% es.tEz (V/m) @ t=0.06
-2.1193356549621267
% V (V) @ t=0.06
0.011641446483105928
% es.normE (V/m) @ t=0.08
2.3498543269576118
% es.EX (V/m) @ t=0.08
0.9365077969587674
% es.EY (V/m) @ t=0.08
0.24759538439787043
% es.EZ (V/m) @ t=0.08
-2.1390024979822657
% es.tEX (V/m) @ t=0.08
0.9365077969587676
% es.tEY (V/m) @ t=0.08
0
% es.tEZ (V/m) @ t=0.08
-2.1390024979822684
% es.Ex (V/m) @ t=0.08
0.9365077969587674
% es.Ey (V/m) @ t=0.08
0.24759538439787043
% es.Ez (V/m) @ t=0.08
-2.1390024979822657
% es.tEx (V/m) @ t=0.08
0.9365077969587676
% es.tEy (V/m) @ t=0.08
0
% es.tEz (V/m) @ t=0.08
-2.1390024979822684
% V (V) @ t=0.08
0.011749475856125334
% es.normE (V/m) @ t=0.1
2.3715629009997703
% es.EX (V/m) @ t=0.1
0.9451595030005324
% es.EY (V/m) @ t=0.1
0.24988273589559018
% es.EZ (V/m) @ t=0.1
-2.1587631672093286
% es.tEX (V/m) @ t=0.1
0.9451595030005326
% es.tEY (V/m) @ t=0.1
0
% es.tEZ (V/m) @ t=0.1
-2.1587631672093384
% es.Ex (V/m) @ t=0.1
0.9451595030005324
% es.Ey (V/m) @ t=0.1
0.24988273589559018
% es.Ez (V/m) @ t=0.1
-2.1587631672093286
% es.tEx (V/m) @ t=0.1
0.9451595030005326
% es.tEy (V/m) @ t=0.1
0
% es.tEz (V/m) @ t=0.1
-2.1587631672093384
% V (V) @ t=0.1
0.011858020611688627
% es.normE (V/m) @ t=0.12
2.393271475041928
% es.EX (V/m) @ t=0.12
0.9538112090423039
% es.EY (V/m) @ t=0.12
0.2521700873932966
% es.EZ (V/m) @ t=0.12
-2.1785238364363897
% es.tEX (V/m) @ t=0.12
0.9538112090422972
% es.tEY (V/m) @ t=0.12
0
% es.tEZ (V/m) @ t=0.12
-2.1785238364363924
% es.Ex (V/m) @ t=0.12
0.9538112090423039
% es.Ey (V/m) @ t=0.12
0.2521700873932966
% es.Ez (V/m) @ t=0.12
-2.1785238364363897
% es.tEx (V/m) @ t=0.12
0.9538112090422972
% es.tEy (V/m) @ t=0.12
0
% es.tEz (V/m) @ t=0.12
-2.1785238364363924
% V (V) @ t=0.12
0.011966565367251917
% es.normE (V/m) @ t=0.14
2.4156364332626925
% es.EX (V/m) @ t=0.14
0.962724509526121
% es.EY (V/m) @ t=0.14
0.2545265995033086
% es.EZ (V/m) @ t=0.14
-2.1988819926814074
% es.tEX (V/m) @ t=0.14
0.9627245095261214
% es.tEY (V/m) @ t=0.14
0
% es.tEZ (V/m) @ t=0.14
-2.198881992681418
% es.Ex (V/m) @ t=0.14
0.962724509526121
% es.Ey (V/m) @ t=0.14
0.2545265995033086
% es.Ez (V/m) @ t=0.14
-2.1988819926814074
% es.tEx (V/m) @ t=0.14
0.9627245095261214
% es.tEy (V/m) @ t=0.14
0
% es.tEz (V/m) @ t=0.14
-2.198881992681418
% V (V) @ t=0.14
0.012078392104674722
% es.normE (V/m) @ t=0.16
2.4384292590891103
% es.EX (V/m) @ t=0.16
0.9718083317732735
% es.EY (V/m) @ t=0.16
0.256928194335579
% es.EZ (V/m) @ t=0.16
-2.2196296240967825
% es.tEX (V/m) @ t=0.16
0.971808331773274
% es.tEY (V/m) @ t=0.16
0
% es.tEZ (V/m) @ t=0.16
-2.219629624096786
% es.Ex (V/m) @ t=0.16
0.9718083317732735
% es.Ey (V/m) @ t=0.16
0.256928194335579
% es.Ez (V/m) @ t=0.16
-2.2196296240967825
% es.tEx (V/m) @ t=0.16
0.971808331773274
% es.tEy (V/m) @ t=0.16
0
% es.tEz (V/m) @ t=0.16
-2.219629624096786
% V (V) @ t=0.16
0.012192358219867097
% es.normE (V/m) @ t=0.18
2.461222084915522
% es.EX (V/m) @ t=0.18
0.9808921540204261
% es.EY (V/m) @ t=0.18
0.2593297891678201
% es.EZ (V/m) @ t=0.18
-2.240377255512154
% es.tEX (V/m) @ t=0.18
0.9808921540204265
% es.tEY (V/m) @ t=0.18
0
% es.tEZ (V/m) @ t=0.18
-2.2403772555121613
% es.Ex (V/m) @ t=0.18
0.9808921540204261
% es.Ey (V/m) @ t=0.18
0.2593297891678201
% es.Ez (V/m) @ t=0.18
-2.240377255512154
% es.tEx (V/m) @ t=0.18
0.9808921540204265
% es.tEy (V/m) @ t=0.18
0
% es.tEz (V/m) @ t=0.18
-2.2403772555121613
% V (V) @ t=0.18
0.012306324335059467
% es.normE (V/m) @ t=0.2
2.4840149107419376
% es.EX (V/m) @ t=0.2
0.9899759762675915
% es.EY (V/m) @ t=0.2
0.26173138400007456
% es.EZ (V/m) @ t=0.2
-2.2611248869275222
% es.tEX (V/m) @ t=0.2
0.9899759762675844
% es.tEY (V/m) @ t=0.2
0
% es.tEZ (V/m) @ t=0.2
-2.261124886927526
% es.Ex (V/m) @ t=0.2
0.9899759762675915
% es.Ey (V/m) @ t=0.2
0.26173138400007456
% es.Ez (V/m) @ t=0.2
-2.2611248869275222
% es.tEx (V/m) @ t=0.2
0.9899759762675844
% es.tEy (V/m) @ t=0.2
0
% es.tEz (V/m) @ t=0.2
-2.261124886927526
% V (V) @ t=0.2
0.012420290450251843
% es.normE (V/m) @ t=0.22
2.506807736568343
% es.EX (V/m) @ t=0.22
0.9990597985147303
% es.EY (V/m) @ t=0.22
0.26413297883231923
% es.EZ (V/m) @ t=0.22
-2.281872518342894
% es.tEX (V/m) @ t=0.22
0.9990597985147236
% es.tEY (V/m) @ t=0.22
0
% es.tEZ (V/m) @ t=0.22
-2.2818725183428974
% es.Ex (V/m) @ t=0.22
0.9990597985147303
% es.Ey (V/m) @ t=0.22
0.26413297883231923
% es.Ez (V/m) @ t=0.22
-2.281872518342894
% es.tEx (V/m) @ t=0.22
0.9990597985147236
% es.tEy (V/m) @ t=0.22
0
% es.tEz (V/m) @ t=0.22
-2.2818725183428974
% V (V) @ t=0.22
0.012534256565444216
% es.normE (V/m) @ t=0.24
2.529600562394772
% es.EX (V/m) @ t=0.24
1.0081436207618961
% es.EY (V/m) @ t=0.24
0.266534573664555
% es.EZ (V/m) @ t=0.24
-2.3026201497582797
% es.tEX (V/m) @ t=0.24
1.0081436207618966
% es.tEY (V/m) @ t=0.24
0
% es.tEZ (V/m) @ t=0.24
-2.302620149758283
% es.Ex (V/m) @ t=0.24
1.0081436207618961
% es.Ey (V/m) @ t=0.24
0.266534573664555
% es.Ez (V/m) @ t=0.24
-2.3026201497582797
% es.tEx (V/m) @ t=0.24
1.0081436207618966
% es.tEy (V/m) @ t=0.24
0
% es.tEz (V/m) @ t=0.24
-2.302620149758283
% V (V) @ t=0.24
0.012648222680636593
% es.normE (V/m) @ t=0.26
2.552918623873719
% es.EX (V/m) @ t=0.26
1.0174367698287545
% es.EY (V/m) @ t=0.26
0.26899151110152175
% es.EZ (V/m) @ t=0.26
-2.3238458874807737
% es.tEX (V/m) @ t=0.26
1.0174367698287616
% es.tEY (V/m) @ t=0.26
0
% es.tEZ (V/m) @ t=0.26
-2.323845887480779
% es.Ex (V/m) @ t=0.26
1.0174367698287545
% es.Ey (V/m) @ t=0.26
0.26899151110152175
% es.Ez (V/m) @ t=0.26
-2.3238458874807737
% es.tEx (V/m) @ t=0.26
1.0174367698287616
% es.tEy (V/m) @ t=0.26
0
% es.tEz (V/m) @ t=0.26
-2.323845887480779
% V (V) @ t=0.26
0.012764815006410503
% es.normE (V/m) @ t=0.28
2.578131908937512
% es.EX (V/m) @ t=0.28
1.0274852391480307
% es.EY (V/m) @ t=0.28
0.271648142921717
% es.EZ (V/m) @ t=0.28
-2.346796790555148
% es.tEX (V/m) @ t=0.28
1.0274852391480307
% es.tEY (V/m) @ t=0.28
0
% es.tEZ (V/m) @ t=0.28
-2.3467967905551532
% es.Ex (V/m) @ t=0.28
1.0274852391480307
% es.Ey (V/m) @ t=0.28
0.271648142921717
% es.Ez (V/m) @ t=0.28
-2.346796790555148
% es.tEx (V/m) @ t=0.28
1.0274852391480307
% es.tEy (V/m) @ t=0.28
0
% es.tEz (V/m) @ t=0.28
-2.3467967905551532
% V (V) @ t=0.28
0.012890883566725977
% es.normE (V/m) @ t=0.3
2.603345194001324
% es.EX (V/m) @ t=0.3
1.037533708467321
% es.EY (V/m) @ t=0.3
0.2743047747418883
% es.EZ (V/m) @ t=0.3
-2.36974769362954
% es.tEX (V/m) @ t=0.3
1.037533708467314
% es.tEY (V/m) @ t=0.3
0
% es.tEZ (V/m) @ t=0.3
-2.369747693629545
% es.Ex (V/m) @ t=0.3
1.037533708467321
% es.Ey (V/m) @ t=0.3
0.2743047747418883
% es.Ez (V/m) @ t=0.3
-2.36974769362954
% es.tEx (V/m) @ t=0.3
1.037533708467314
% es.tEy (V/m) @ t=0.3
0
% es.tEz (V/m) @ t=0.3
-2.369747693629545
% V (V) @ t=0.3
0.013016952127041452
% es.normE (V/m) @ t=0.32
2.6285584790651226
% es.EX (V/m) @ t=0.32
1.0475821777865968
% es.EY (V/m) @ t=0.32
0.27696140656207024
% es.EZ (V/m) @ t=0.32
-2.392698596703921
% es.tEX (V/m) @ t=0.32
1.0475821777865972
% es.tEY (V/m) @ t=0.32
0
% es.tEZ (V/m) @ t=0.32
-2.3926985967039265
% es.Ex (V/m) @ t=0.32
1.0475821777865968
% es.Ey (V/m) @ t=0.32
0.27696140656207024
% es.Ez (V/m) @ t=0.32
-2.392698596703921
% es.tEx (V/m) @ t=0.32
1.0475821777865972
% es.tEy (V/m) @ t=0.32
0
% es.tEz (V/m) @ t=0.32
-2.3926985967039265
% V (V) @ t=0.32
0.013143020687356927
% es.normE (V/m) @ t=0.34
2.6537717641289285
% es.EX (V/m) @ t=0.34
1.0576306471058943
% es.EY (V/m) @ t=0.34
0.2796180383822495
% es.EZ (V/m) @ t=0.34
-2.4156494997783025
% es.tEX (V/m) @ t=0.34
1.0576306471058947
% es.tEY (V/m) @ t=0.34
0
% es.tEZ (V/m) @ t=0.34
-2.4156494997783113
% es.Ex (V/m) @ t=0.34
1.0576306471058943
% es.Ey (V/m) @ t=0.34
0.2796180383822495
% es.Ez (V/m) @ t=0.34
-2.4156494997783025
% es.tEx (V/m) @ t=0.34
1.0576306471058947
% es.tEy (V/m) @ t=0.34
0
% es.tEz (V/m) @ t=0.34
-2.4156494997783113
% V (V) @ t=0.34
0.013269089247672403
% es.normE (V/m) @ t=0.36
2.6789850491927227
% es.EX (V/m) @ t=0.36
1.0676791164251633
% es.EY (V/m) @ t=0.36
0.2822746702024501
% es.EZ (V/m) @ t=0.36
-2.43860040285268
% es.tEX (V/m) @ t=0.36
1.0676791164251638
% es.tEY (V/m) @ t=0.36
0
% es.tEZ (V/m) @ t=0.36
-2.4386004028526855
% es.Ex (V/m) @ t=0.36
1.0676791164251633
% es.Ey (V/m) @ t=0.36
0.2822746702024501
% es.Ez (V/m) @ t=0.36
-2.43860040285268
% es.tEx (V/m) @ t=0.36
1.0676791164251638
% es.tEy (V/m) @ t=0.36
0
% es.tEz (V/m) @ t=0.36
-2.4386004028526855
% V (V) @ t=0.36
0.013395157807987878
% es.normE (V/m) @ t=0.38
2.7041983342565272
% es.EX (V/m) @ t=0.38
1.0777275857444466
% es.EY (V/m) @ t=0.38
0.2849313020226152
% es.EZ (V/m) @ t=0.38
-2.461551305927067
% es.tEX (V/m) @ t=0.38
1.077727585744447
% es.tEY (V/m) @ t=0.38
0
% es.tEZ (V/m) @ t=0.38
-2.461551305927074
% es.Ex (V/m) @ t=0.38
1.0777275857444466
% es.Ey (V/m) @ t=0.38
0.2849313020226152
% es.Ez (V/m) @ t=0.38
-2.461551305927067
% es.tEx (V/m) @ t=0.38
1.077727585744447
% es.tEy (V/m) @ t=0.38
0
% es.tEz (V/m) @ t=0.38
-2.461551305927074
% V (V) @ t=0.38
0.013521226368303354
% es.normE (V/m) @ t=0.4
2.7294116193203255
% es.EX (V/m) @ t=0.4
1.0877760550637157
% es.EY (V/m) @ t=0.4
0.2875879338428069
% es.EZ (V/m) @ t=0.4
-2.48450220900145
% es.tEX (V/m) @ t=0.4
1.087776055063716
% es.tEY (V/m) @ t=0.4
0
% es.tEZ (V/m) @ t=0.4
-2.4845022090014552
% es.Ex (V/m) @ t=0.4
1.0877760550637157
% es.Ey (V/m) @ t=0.4
0.2875879338428069
% es.Ez (V/m) @ t=0.4
-2.48450220900145
% es.tEx (V/m) @ t=0.4
1.087776055063716
% es.tEy (V/m) @ t=0.4
0
% es.tEz (V/m) @ t=0.4
-2.4845022090014552
% V (V) @ t=0.4
0.013647294928618827
% es.normE (V/m) @ t=0.42
2.754624904384137
% es.EX (V/m) @ t=0.42
1.0978245243830131
% es.EY (V/m) @ t=0.42
0.29024456566301016
% es.EZ (V/m) @ t=0.42
-2.5074531120758348
% es.tEX (V/m) @ t=0.42
1.0978245243830136
% es.tEY (V/m) @ t=0.42
0
% es.tEZ (V/m) @ t=0.42
-2.50745311207584
% es.Ex (V/m) @ t=0.42
1.0978245243830131
% es.Ey (V/m) @ t=0.42
0.29024456566301016
% es.Ez (V/m) @ t=0.42
-2.5074531120758348
% es.tEx (V/m) @ t=0.42
1.0978245243830136
% es.tEy (V/m) @ t=0.42
0
% es.tEz (V/m) @ t=0.42
-2.50745311207584
% V (V) @ t=0.42
0.013773363488934303
% es.normE (V/m) @ t=0.44
2.7798381894479305
% es.EX (V/m) @ t=0.44
1.1078729937022822
% es.EY (V/m) @ t=0.44
0.2929011974831761
% es.EZ (V/m) @ t=0.44
-2.530404015150216
% es.tEX (V/m) @ t=0.44
1.1078729937022826
% es.tEY (V/m) @ t=0.44
0
% es.tEZ (V/m) @ t=0.44
-2.530404015150225
% es.Ex (V/m) @ t=0.44
1.1078729937022822
% es.Ey (V/m) @ t=0.44
0.2929011974831761
% es.Ez (V/m) @ t=0.44
-2.530404015150216
% es.tEx (V/m) @ t=0.44
1.1078729937022826
% es.tEy (V/m) @ t=0.44
0
% es.tEz (V/m) @ t=0.44
-2.530404015150225
% V (V) @ t=0.44
0.013899432049249776
% es.normE (V/m) @ t=0.46
2.805051474511745
% es.EX (V/m) @ t=0.46
1.1179214630215655
% es.EY (V/m) @ t=0.46
0.29555782930336605
% es.EZ (V/m) @ t=0.46
-2.5533549182246116
% es.tEX (V/m) @ t=0.46
1.117921463021566
% es.tEY (V/m) @ t=0.46
0
% es.tEZ (V/m) @ t=0.46
-2.5533549182246134
% es.Ex (V/m) @ t=0.46
1.1179214630215655
% es.Ey (V/m) @ t=0.46
0.29555782930336605
% es.Ez (V/m) @ t=0.46
-2.5533549182246116
% es.tEx (V/m) @ t=0.46
1.117921463021566
% es.tEy (V/m) @ t=0.46
0
% es.tEz (V/m) @ t=0.46
-2.5533549182246134
% V (V) @ t=0.46
0.014025500609565254
% es.normE (V/m) @ t=0.48
2.830264759575544
% es.EX (V/m) @ t=0.48
1.1279699323408479
% es.EY (V/m) @ t=0.48
0.2982144611235542
% es.EZ (V/m) @ t=0.48
-2.5763058212989893
% es.tEX (V/m) @ t=0.48
1.1279699323408483
% es.tEY (V/m) @ t=0.48
0
% es.tEZ (V/m) @ t=0.48
-2.5763058212989947
% es.Ex (V/m) @ t=0.48
1.1279699323408479
% es.Ey (V/m) @ t=0.48
0.2982144611235542
% es.Ez (V/m) @ t=0.48
-2.5763058212989893
% es.tEx (V/m) @ t=0.48
1.1279699323408483
% es.tEy (V/m) @ t=0.48
0
% es.tEz (V/m) @ t=0.48
-2.5763058212989947
% V (V) @ t=0.48
0.014151569169880729
% es.normE (V/m) @ t=0.5
2.8554780446393595
% es.EX (V/m) @ t=0.5
1.138018401660132
% es.EY (V/m) @ t=0.5
0.3008710929437184
% es.EZ (V/m) @ t=0.5
-2.5992567243733884
% es.tEX (V/m) @ t=0.5
1.1380184016601325
% es.tEY (V/m) @ t=0.5
0
% es.tEZ (V/m) @ t=0.5
-2.5992567243733937
% es.Ex (V/m) @ t=0.5
1.138018401660132
% es.Ey (V/m) @ t=0.5
0.3008710929437184
% es.Ez (V/m) @ t=0.5
-2.5992567243733884
% es.tEx (V/m) @ t=0.5
1.1380184016601325
% es.tEy (V/m) @ t=0.5
0
% es.tEz (V/m) @ t=0.5
-2.5992567243733937
% V (V) @ t=0.5
0.014277637730196201
% es.normE (V/m) @ t=0.52
2.881889129906968
% es.EX (V/m) @ t=0.52
1.1485442400875878
% es.EY (V/m) @ t=0.52
0.30365393011685526
% es.EZ (V/m) @ t=0.52
-2.6232979497843463
% es.tEX (V/m) @ t=0.52
1.1485442400875883
% es.tEY (V/m) @ t=0.52
0
% es.tEZ (V/m) @ t=0.52
-2.6232979497843623
% es.Ex (V/m) @ t=0.52
1.1485442400875878
% es.Ey (V/m) @ t=0.52
0.30365393011685526
% es.Ez (V/m) @ t=0.52
-2.6232979497843463
% es.tEx (V/m) @ t=0.52
1.1485442400875883
% es.tEy (V/m) @ t=0.52
0
% es.tEz (V/m) @ t=0.52
-2.6232979497843623
% V (V) @ t=0.52
0.014409695464128135
% es.normE (V/m) @ t=0.54
2.9098232328513998
% es.EX (V/m) @ t=0.54
1.1596770592016545
% es.EY (V/m) @ t=0.54
0.30659723894697866
% es.EZ (V/m) @ t=0.54
-2.648725533443331
% es.tEX (V/m) @ t=0.54
1.1596770592016545
% es.tEY (V/m) @ t=0.54
0
% es.tEZ (V/m) @ t=0.54
-2.64872553344334
% es.Ex (V/m) @ t=0.54
1.1596770592016545
% es.Ey (V/m) @ t=0.54
0.30659723894697866
% es.Ez (V/m) @ t=0.54
-2.648725533443331
% es.tEx (V/m) @ t=0.54
1.1596770592016545
% es.tEy (V/m) @ t=0.54
0
% es.tEz (V/m) @ t=0.54
-2.64872553344334
% V (V) @ t=0.54
0.014549368505903682
% es.normE (V/m) @ t=0.56
2.9377573357958315
% es.EX (V/m) @ t=0.56
1.1708098783157204
% es.EY (V/m) @ t=0.56
0.3095405477771074
% es.EZ (V/m) @ t=0.56
-2.674153117102316
% es.tEX (V/m) @ t=0.56
1.1708098783157208
% es.tEY (V/m) @ t=0.56
0
% es.tEZ (V/m) @ t=0.56
-2.674153117102314
% es.Ex (V/m) @ t=0.56
1.1708098783157204
% es.Ey (V/m) @ t=0.56
0.3095405477771074
% es.Ez (V/m) @ t=0.56
-2.674153117102316
% es.tEx (V/m) @ t=0.56
1.1708098783157208
% es.tEy (V/m) @ t=0.56
0
% es.tEz (V/m) @ t=0.56
-2.674153117102314
% V (V) @ t=0.56
0.014689041547679225
% es.normE (V/m) @ t=0.58
2.9656914387402473
% es.EX (V/m) @ t=0.58
1.1819426974297795
% es.EY (V/m) @ t=0.58
0.31248385660720324
% es.EZ (V/m) @ t=0.58
-2.69958070076129
% es.tEX (V/m) @ t=0.58
1.1819426974297729
% es.tEY (V/m) @ t=0.58
0
% es.tEZ (V/m) @ t=0.58
-2.6995807007612953
% es.Ex (V/m) @ t=0.58
1.1819426974297795
% es.Ey (V/m) @ t=0.58
0.31248385660720324
% es.Ez (V/m) @ t=0.58
-2.69958070076129
% es.tEx (V/m) @ t=0.58
1.1819426974297729
% es.tEy (V/m) @ t=0.58
0
% es.tEz (V/m) @ t=0.58
-2.6995807007612953
% V (V) @ t=0.58
0.01482871458945477
% es.normE (V/m) @ t=0.6
2.9936255416846658
% es.EX (V/m) @ t=0.6
1.1930755165438334
% es.EY (V/m) @ t=0.6
0.31542716543734084
% es.EZ (V/m) @ t=0.6
-2.725008284420264
% es.tEX (V/m) @ t=0.6
1.1930755165438267
% es.tEY (V/m) @ t=0.6
0
% es.tEZ (V/m) @ t=0.6
-2.725008284420273
% es.Ex (V/m) @ t=0.6
1.1930755165438334
% es.Ey (V/m) @ t=0.6
0.31542716543734084
% es.Ez (V/m) @ t=0.6
-2.725008284420264
% es.tEx (V/m) @ t=0.6
1.1930755165438267
% es.tEy (V/m) @ t=0.6
0
% es.tEz (V/m) @ t=0.6
-2.725008284420273
% V (V) @ t=0.6
0.014968387631230312
% es.normE (V/m) @ t=0.62
3.0215596446290878
% es.EX (V/m) @ t=0.62
1.2042083356579067
% es.EY (V/m) @ t=0.62
0.31837047426744025
% es.EZ (V/m) @ t=0.62
-2.7504358680792382
% es.tEX (V/m) @ t=0.62
1.2042083356579072
% es.tEY (V/m) @ t=0.62
0
% es.tEZ (V/m) @ t=0.62
-2.750435868079247
% es.Ex (V/m) @ t=0.62
1.2042083356579067
% es.Ey (V/m) @ t=0.62
0.31837047426744025
% es.Ez (V/m) @ t=0.62
-2.7504358680792382
% es.tEx (V/m) @ t=0.62
1.2042083356579072
% es.tEy (V/m) @ t=0.62
0
% es.tEz (V/m) @ t=0.62
-2.750435868079247
% V (V) @ t=0.62
0.015108060673005859
% es.normE (V/m) @ t=0.64
3.049493747573531
% es.EX (V/m) @ t=0.64
1.2153411547719597
% es.EY (V/m) @ t=0.64
0.321313783097553
% es.EZ (V/m) @ t=0.64
-2.7758634517382443
% es.tEX (V/m) @ t=0.64
1.2153411547719601
% es.tEY (V/m) @ t=0.64
0
% es.tEZ (V/m) @ t=0.64
-2.7758634517382497
% es.Ex (V/m) @ t=0.64
1.2153411547719597
% es.Ey (V/m) @ t=0.64
0.321313783097553
% es.Ez (V/m) @ t=0.64
-2.7758634517382443
% es.tEx (V/m) @ t=0.64
1.2153411547719601
% es.tEy (V/m) @ t=0.64
0
% es.tEz (V/m) @ t=0.64
-2.7758634517382497
% V (V) @ t=0.64
0.015247733714781405
% es.normE (V/m) @ t=0.66
3.0774278505179478
% es.EX (V/m) @ t=0.66
1.2264739738860189
% es.EY (V/m) @ t=0.66
0.32425709192767727
% es.EZ (V/m) @ t=0.66
-2.801291035397215
% es.tEX (V/m) @ t=0.66
1.2264739738860122
% es.tEY (V/m) @ t=0.66
0
% es.tEZ (V/m) @ t=0.66
-2.801291035397224
% es.Ex (V/m) @ t=0.66
1.2264739738860189
% es.Ey (V/m) @ t=0.66
0.32425709192767727
% es.Ez (V/m) @ t=0.66
-2.801291035397215
% es.tEx (V/m) @ t=0.66
1.2264739738860122
% es.tEy (V/m) @ t=0.66
0
% es.tEz (V/m) @ t=0.66
-2.801291035397224
% V (V) @ t=0.66
0.015387406756556948
% es.normE (V/m) @ t=0.68
3.1053619534623724
% es.EX (V/m) @ t=0.68
1.2376067930000851
% es.EY (V/m) @ t=0.68
0.32720040075780155
% es.EZ (V/m) @ t=0.68
-2.8267186190561926
% es.tEX (V/m) @ t=0.68
1.2376067930000785
% es.tEY (V/m) @ t=0.68
0
% es.tEZ (V/m) @ t=0.68
-2.826718619056198
% es.Ex (V/m) @ t=0.68
1.2376067930000851
% es.Ey (V/m) @ t=0.68
0.32720040075780155
% es.Ez (V/m) @ t=0.68
-2.8267186190561926
% es.tEx (V/m) @ t=0.68
1.2376067930000785
% es.tEy (V/m) @ t=0.68
0
% es.tEz (V/m) @ t=0.68
-2.826718619056198
% V (V) @ t=0.68
0.015527079798332493
% es.normE (V/m) @ t=0.7
3.133296056406789
% es.EX (V/m) @ t=0.7
1.2487396121141443
% es.EY (V/m) @ t=0.7
0.33014370958790185
% es.EZ (V/m) @ t=0.7
-2.8521462027151667
% es.tEX (V/m) @ t=0.7
1.2487396121141447
% es.tEY (V/m) @ t=0.7
0
% es.tEZ (V/m) @ t=0.7
-2.852146202715172
% es.Ex (V/m) @ t=0.7
1.2487396121141443
% es.Ey (V/m) @ t=0.7
0.33014370958790185
% es.Ez (V/m) @ t=0.7
-2.8521462027151667
% es.tEx (V/m) @ t=0.7
1.2487396121141447
% es.tEy (V/m) @ t=0.7
0
% es.tEz (V/m) @ t=0.7
-2.852146202715172
% V (V) @ t=0.7
0.01566675284010804
% es.normE (V/m) @ t=0.72
3.1612301593512058
% es.EX (V/m) @ t=0.72
1.2598724312281955
% es.EY (V/m) @ t=0.72
0.33308701841800836
% es.EZ (V/m) @ t=0.72
-2.8775737863741444
% es.tEX (V/m) @ t=0.72
1.259872431228196
% es.tEY (V/m) @ t=0.72
0
% es.tEZ (V/m) @ t=0.72
-2.8775737863741533
% es.Ex (V/m) @ t=0.72
1.2598724312281955
% es.Ey (V/m) @ t=0.72
0.33308701841800836
% es.Ez (V/m) @ t=0.72
-2.8775737863741444
% es.tEx (V/m) @ t=0.72
1.259872431228196
% es.tEy (V/m) @ t=0.72
0
% es.tEz (V/m) @ t=0.72
-2.8775737863741533
% V (V) @ t=0.72
0.015806425881883582
% es.normE (V/m) @ t=0.74
3.1891642622956473
% es.EX (V/m) @ t=0.74
1.2710052503422706
% es.EY (V/m) @ t=0.74
0.33603032724813175
% es.EZ (V/m) @ t=0.74
-2.9030013700331363
% es.tEX (V/m) @ t=0.74
1.271005250342264
% es.tEY (V/m) @ t=0.74
0
% es.tEZ (V/m) @ t=0.74
-2.9030013700331416
% es.Ex (V/m) @ t=0.74
1.2710052503422706
% es.Ey (V/m) @ t=0.74
0.33603032724813175
% es.Ez (V/m) @ t=0.74
-2.9030013700331363
% es.tEx (V/m) @ t=0.74
1.271005250342264
% es.tEy (V/m) @ t=0.74
0
% es.tEz (V/m) @ t=0.74
-2.9030013700331416
% V (V) @ t=0.74
0.015946098923659127
% es.normE (V/m) @ t=0.76
3.2170983652400613
% es.EX (V/m) @ t=0.76
1.2821380694563156
% es.EY (V/m) @ t=0.76
0.3389736360782525
% es.EZ (V/m) @ t=0.76
-2.9284289536921104
% es.tEX (V/m) @ t=0.76
1.282138069456316
% es.tEY (V/m) @ t=0.76
0
% es.tEZ (V/m) @ t=0.76
-2.9284289536921158
% es.Ex (V/m) @ t=0.76
1.2821380694563156
% es.Ey (V/m) @ t=0.76
0.3389736360782525
% es.Ez (V/m) @ t=0.76
-2.9284289536921104
% es.tEx (V/m) @ t=0.76
1.282138069456316
% es.tEy (V/m) @ t=0.76
0
% es.tEz (V/m) @ t=0.76
-2.9284289536921158
% V (V) @ t=0.76
0.016085771965434672
% es.normE (V/m) @ t=0.78
3.2470651624982745
% es.EX (V/m) @ t=0.78
1.2940809964499276
% es.EY (V/m) @ t=0.78
0.34213112471829543
% es.EZ (V/m) @ t=0.78
-2.955706838071455
% es.tEX (V/m) @ t=0.78
1.294080996449928
% es.tEY (V/m) @ t=0.78
0
% es.tEZ (V/m) @ t=0.78
-2.9557068380714675
% es.Ex (V/m) @ t=0.78
1.2940809964499276
% es.Ey (V/m) @ t=0.78
0.34213112471829543
% es.Ez (V/m) @ t=0.78
-2.955706838071455
% es.tEx (V/m) @ t=0.78
1.294080996449928
% es.tEy (V/m) @ t=0.78
0
% es.tEz (V/m) @ t=0.78
-2.9557068380714675
% V (V) @ t=0.78
0.016235608585395276
% es.normE (V/m) @ t=0.8
3.2780629866689024
% es.EX (V/m) @ t=0.8
1.3064348278377813
% es.EY (V/m) @ t=0.8
0.3453972500316853
% es.EZ (V/m) @ t=0.8
-2.9839232353525436
% es.tEX (V/m) @ t=0.8
1.3064348278377746
% es.tEY (V/m) @ t=0.8
0
% es.tEZ (V/m) @ t=0.8
-2.9839232353525453
% es.Ex (V/m) @ t=0.8
1.3064348278377813
% es.Ey (V/m) @ t=0.8
0.3453972500316853
% es.Ez (V/m) @ t=0.8
-2.9839232353525436
% es.tEx (V/m) @ t=0.8
1.3064348278377746
% es.tEy (V/m) @ t=0.8
0
% es.tEz (V/m) @ t=0.8
-2.9839232353525453
% V (V) @ t=0.8
0.016390600393996004
% es.normE (V/m) @ t=0.82
3.3090608108395236
% es.EX (V/m) @ t=0.82
1.3187886592256493
% es.EY (V/m) @ t=0.82
0.3486633753450725
% es.EZ (V/m) @ t=0.82
-3.012139632633618
% es.tEX (V/m) @ t=0.82
1.3187886592256497
% es.tEY (V/m) @ t=0.82
0
% es.tEZ (V/m) @ t=0.82
-3.0121396326336267
% es.Ex (V/m) @ t=0.82
1.3187886592256493
% es.Ey (V/m) @ t=0.82
0.3486633753450725
% es.Ez (V/m) @ t=0.82
-3.012139632633618
% es.tEx (V/m) @ t=0.82
1.3187886592256497
% es.tEy (V/m) @ t=0.82
0
% es.tEz (V/m) @ t=0.82
-3.0121396326336267
% V (V) @ t=0.82
0.01654559220259673
% es.normE (V/m) @ t=0.84
3.3400586350101404
% es.EX (V/m) @ t=0.84
1.3311424906134959
% es.EY (V/m) @ t=0.84
0.3519295006584553
% es.EZ (V/m) @ t=0.84
-3.0403560299146957
% es.tEX (V/m) @ t=0.84
1.3311424906134963
% es.tEY (V/m) @ t=0.84
0
% es.tEZ (V/m) @ t=0.84
-3.0403560299147045
% es.Ex (V/m) @ t=0.84
1.3311424906134959
% es.Ey (V/m) @ t=0.84
0.3519295006584553
% es.Ez (V/m) @ t=0.84
-3.0403560299146957
% es.tEx (V/m) @ t=0.84
1.3311424906134963
% es.tEy (V/m) @ t=0.84
0
% es.tEz (V/m) @ t=0.84
-3.0403560299147045
% V (V) @ t=0.84
0.016700584011197457
% es.normE (V/m) @ t=0.86
3.371056459180778
% es.EX (V/m) @ t=0.86
1.3434963220013851
% es.EY (V/m) @ t=0.86
0.3551956259718283
% es.EZ (V/m) @ t=0.86
-3.0685724271957806
% es.tEX (V/m) @ t=0.86
1.3434963220013856
% es.tEY (V/m) @ t=0.86
0
% es.tEZ (V/m) @ t=0.86
-3.0685724271957895
% es.Ex (V/m) @ t=0.86
1.3434963220013851
% es.Ey (V/m) @ t=0.86
0.3551956259718283
% es.Ez (V/m) @ t=0.86
-3.0685724271957806
% es.tEx (V/m) @ t=0.86
1.3434963220013856
% es.tEy (V/m) @ t=0.86
0
% es.tEz (V/m) @ t=0.86
-3.0685724271957895
% V (V) @ t=0.86
0.016855575819798185
% es.normE (V/m) @ t=0.88
3.402054283351397
% es.EX (V/m) @ t=0.88
1.355850153389245
% es.EY (V/m) @ t=0.88
0.35846175128521995
% es.EZ (V/m) @ t=0.88
-3.096788824476855
% es.tEX (V/m) @ t=0.88
1.3558501533892455
% es.tEY (V/m) @ t=0.88
0
% es.tEZ (V/m) @ t=0.88
-3.0967888244768638
% es.Ex (V/m) @ t=0.88
1.355850153389245
% es.Ey (V/m) @ t=0.88
0.35846175128521995
% es.Ez (V/m) @ t=0.88
-3.096788824476855
% es.tEx (V/m) @ t=0.88
1.3558501533892455
% es.tEy (V/m) @ t=0.88
0
% es.tEz (V/m) @ t=0.88
-3.0967888244768638
% V (V) @ t=0.88
0.017010567628398914
% es.normE (V/m) @ t=0.9
3.4330521075220153
% es.EX (V/m) @ t=0.9
1.3682039847770917
% es.EY (V/m) @ t=0.9
0.3617278765986036
% es.EZ (V/m) @ t=0.9
-3.1250052217579345
% es.tEX (V/m) @ t=0.9
1.3682039847770922
% es.tEY (V/m) @ t=0.9
0
% es.tEZ (V/m) @ t=0.9
-3.125005221757945
% es.Ex (V/m) @ t=0.9
1.3682039847770917
% es.Ey (V/m) @ t=0.9
0.3617278765986036
% es.Ez (V/m) @ t=0.9
-3.1250052217579345
% es.tEx (V/m) @ t=0.9
1.3682039847770922
% es.tEy (V/m) @ t=0.9
0
% es.tEz (V/m) @ t=0.9
-3.125005221757945
% V (V) @ t=0.9
0.01716555943699964
% es.normE (V/m) @ t=0.92
3.4640499316926423
% es.EX (V/m) @ t=0.92
1.3805578161649597
% es.EY (V/m) @ t=0.92
0.36499400191196507
% es.EZ (V/m) @ t=0.92
-3.1532216190390177
% es.tEX (V/m) @ t=0.92
1.380557816164953
% es.tEY (V/m) @ t=0.92
0
% es.tEZ (V/m) @ t=0.92
-3.153221619039023
% es.Ex (V/m) @ t=0.92
1.3805578161649597
% es.Ey (V/m) @ t=0.92
0.36499400191196507
% es.Ez (V/m) @ t=0.92
-3.1532216190390177
% es.tEx (V/m) @ t=0.92
1.380557816164953
% es.tEy (V/m) @ t=0.92
0
% es.tEz (V/m) @ t=0.92
-3.153221619039023
% V (V) @ t=0.92
0.01732055124560037
% es.normE (V/m) @ t=0.94
3.495047755863264
% es.EX (V/m) @ t=0.94
1.3929116475528134
% es.EY (V/m) @ t=0.94
0.36826012722535584
% es.EZ (V/m) @ t=0.94
-3.181438016320099
% es.tEX (V/m) @ t=0.94
1.3929116475528138
% es.tEY (V/m) @ t=0.94
0
% es.tEZ (V/m) @ t=0.94
-3.181438016320108
% es.Ex (V/m) @ t=0.94
1.3929116475528134
% es.Ey (V/m) @ t=0.94
0.36826012722535584
% es.Ez (V/m) @ t=0.94
-3.181438016320099
% es.tEx (V/m) @ t=0.94
1.3929116475528138
% es.tEy (V/m) @ t=0.94
0
% es.tEz (V/m) @ t=0.94
-3.181438016320108
% V (V) @ t=0.94
0.017475543054201095
% es.normE (V/m) @ t=0.96
3.5260455800338866
% es.EX (V/m) @ t=0.96
1.4052654789406795
% es.EY (V/m) @ t=0.96
0.3715262525387546
% es.EZ (V/m) @ t=0.96
-3.2096544136011733
% es.tEX (V/m) @ t=0.96
1.4052654789406729
% es.tEY (V/m) @ t=0.96
0
% es.tEZ (V/m) @ t=0.96
-3.209654413601175
% es.Ex (V/m) @ t=0.96
1.4052654789406795
% es.Ey (V/m) @ t=0.96
0.3715262525387546
% es.Ez (V/m) @ t=0.96
-3.2096544136011733
% es.tEx (V/m) @ t=0.96
1.4052654789406729
% es.tEy (V/m) @ t=0.96
0
% es.tEz (V/m) @ t=0.96
-3.209654413601175
% V (V) @ t=0.96
0.017630534862801823
% es.normE (V/m) @ t=0.98
3.557043404204509
% es.EX (V/m) @ t=0.98
1.4176193103285475
% es.EY (V/m) @ t=0.98
0.3747923778521267
% es.EZ (V/m) @ t=0.98
-3.237870810882251
% es.tEX (V/m) @ t=0.98
1.417619310328548
% es.tEY (V/m) @ t=0.98
0
% es.tEZ (V/m) @ t=0.98
-3.23787081088226
% es.Ex (V/m) @ t=0.98
1.4176193103285475
% es.Ey (V/m) @ t=0.98
0.3747923778521267
% es.Ez (V/m) @ t=0.98
-3.237870810882251
% es.tEx (V/m) @ t=0.98
1.417619310328548
% es.tEy (V/m) @ t=0.98
0
% es.tEz (V/m) @ t=0.98
-3.23787081088226
% V (V) @ t=0.98
0.017785526671402554
% es.normE (V/m) @ t=1
3.5880412283751193
% es.EX (V/m) @ t=1
1.4299731417163861
% es.EY (V/m) @ t=1
0.37805850316551926
% es.EZ (V/m) @ t=1
-3.2660872081633237
% es.tEX (V/m) @ t=1
1.4299731417163795
% es.tEY (V/m) @ t=1
0
% es.tEZ (V/m) @ t=1
-3.2660872081633308
% es.Ex (V/m) @ t=1
1.4299731417163861
% es.Ey (V/m) @ t=1
0.37805850316551926
% es.Ez (V/m) @ t=1
-3.2660872081633237
% es.tEx (V/m) @ t=1
1.4299731417163795
% es.tEy (V/m) @ t=1
0
% es.tEz (V/m) @ t=1
-3.2660872081633308
% V (V) @ t=1
0.01794051848000328
% es.normE (V/m) @ t=1.02
3.6190390525457516
% es.EX (V/m) @ t=1.02
1.4423269731042683
% es.EY (V/m) @ t=1.02
0.3813246284789127
% es.EZ (V/m) @ t=1.02
-3.2943036054444033
% es.tEX (V/m) @ t=1.02
1.4423269731042687
% es.tEY (V/m) @ t=1.02
0
% es.tEZ (V/m) @ t=1.02
-3.2943036054444157
% es.Ex (V/m) @ t=1.02
1.4423269731042683
% es.Ey (V/m) @ t=1.02
0.3813246284789127
% es.Ez (V/m) @ t=1.02
-3.2943036054444033
% es.tEx (V/m) @ t=1.02
1.4423269731042687
% es.tEy (V/m) @ t=1.02
0
% es.tEz (V/m) @ t=1.02
-3.2943036054444157
% V (V) @ t=1.02
0.01809551028860401
% es.normE (V/m) @ t=1.04
3.6513747514761263
% es.EX (V/m) @ t=1.04
1.4552139993511592
% es.EY (V/m) @ t=1.04
0.3847317207772676
% es.EZ (V/m) @ t=1.04
-3.3237378302971354
% es.tEX (V/m) @ t=1.04
1.4552139993511597
% es.tEY (V/m) @ t=1.04
0
% es.tEZ (V/m) @ t=1.04
-3.3237378302971443
% es.Ex (V/m) @ t=1.04
1.4552139993511592