% Model:              1 neuron.mph
% Version:            COMSOL 6.1.0.252
% Date:               Mar 22 2023, 19:25
% Dimension:          0
% Nodes:              14017
% Expressions:        14017
% Description:        Electric field norm, Electric field, X component, Electric field, Y component, Electric field, Z component, Tangential electric field, X component, Tangential electric field, Y component, Tangential electric field, Z component, Electric field, x component, Electric field, y component, Electric field, z component, Tangential electric field, x component, Tangential electric field, y component, Tangential electric field, z component, Electric potential
% Length unit:        mm
% x
1
% y
12.2
% z
1.33
% es.normE (V/m) @ t=0
2.6578729354298685
% es.EX (V/m) @ t=0
2.4562226482386684
% es.EY (V/m) @ t=0
0.15465904294586919
% es.EZ (V/m) @ t=0
0.9929586579170735
% es.tEX (V/m) @ t=0
2.456222648238672
% es.tEY (V/m) @ t=0
0
% es.tEZ (V/m) @ t=0
0.9929586579170833
% es.Ex (V/m) @ t=0
2.4562226482386684
% es.Ey (V/m) @ t=0
0.15465904294586919
% es.Ez (V/m) @ t=0
0.9929586579170735
% es.tEx (V/m) @ t=0
2.456222648238672
% es.tEy (V/m) @ t=0
0
% es.tEz (V/m) @ t=0
0.9929586579170833
% V (V) @ t=0
0.013257898485747495
% es.normE (V/m) @ t=0.02
2.2956273059417285
% es.EX (V/m) @ t=0.02
2.1214602490959233
% es.EY (V/m) @ t=0.02
0.1335803232806415
% es.EZ (V/m) @ t=0.02
0.8576267816111567
% es.tEX (V/m) @ t=0.02
2.1214602490959287
% es.tEY (V/m) @ t=0.02
0
% es.tEZ (V/m) @ t=0.02
0.8576267816111596
% es.Ex (V/m) @ t=0.02
2.1214602490959233
% es.Ey (V/m) @ t=0.02
0.1335803232806415
% es.Ez (V/m) @ t=0.02
0.8576267816111567
% es.tEx (V/m) @ t=0.02
2.1214602490959287
% es.tEy (V/m) @ t=0.02
0
% es.tEz (V/m) @ t=0.02
0.8576267816111596
% V (V) @ t=0.02
0.011450958853581399
% es.normE (V/m) @ t=0.04
2.31674146353256
% es.EX (V/m) @ t=0.04
2.1409724956643092
% es.EY (V/m) @ t=0.04
0.1348089354491644
% es.EZ (V/m) @ t=0.04
0.8655148507985768
% es.tEX (V/m) @ t=0.04
2.140972495664313
% es.tEY (V/m) @ t=0.04
0
% es.tEZ (V/m) @ t=0.04
0.8655148507985775
% es.Ex (V/m) @ t=0.04
2.1409724956643092
% es.Ey (V/m) @ t=0.04
0.1348089354491644
% es.Ez (V/m) @ t=0.04
0.8655148507985768
% es.tEx (V/m) @ t=0.04
2.140972495664313
% es.tEy (V/m) @ t=0.04
0
% es.tEz (V/m) @ t=0.04
0.8655148507985775
% V (V) @ t=0.04
0.01155627967695265
% es.normE (V/m) @ t=0.06
2.3380090533989524
% es.EX (V/m) @ t=0.06
2.160626534351099
% es.EY (V/m) @ t=0.06
0.1360464734449277
% es.EZ (V/m) @ t=0.06
0.873460239470718
% es.tEX (V/m) @ t=0.06
2.160626534351101
% es.tEY (V/m) @ t=0.06
0
% es.tEZ (V/m) @ t=0.06
0.8734602394707269
% es.Ex (V/m) @ t=0.06
2.160626534351099
% es.Ey (V/m) @ t=0.06
0.1360464734449277
% es.Ez (V/m) @ t=0.06
0.873460239470718
% es.tEx (V/m) @ t=0.06
2.160626534351101
% es.tEy (V/m) @ t=0.06
0
% es.tEz (V/m) @ t=0.06
0.8734602394707269
% V (V) @ t=0.06
0.011662365936601563
% es.normE (V/m) @ t=0.08
2.3596852861133852
% es.EX (V/m) @ t=0.08
2.1806582132252252
% es.EY (V/m) @ t=0.08
0.13730778765784202
% es.EZ (V/m) @ t=0.08
0.8815582919240981
% es.tEX (V/m) @ t=0.08
2.1806582132252306
% es.tEY (V/m) @ t=0.08
0
% es.tEZ (V/m) @ t=0.08
0.8815582919241001
% es.Ex (V/m) @ t=0.08
2.1806582132252252
% es.Ey (V/m) @ t=0.08
0.13730778765784202
% es.Ez (V/m) @ t=0.08
0.8815582919240981
% es.tEx (V/m) @ t=0.08
2.1806582132252306
% es.tEy (V/m) @ t=0.08
0
% es.tEz (V/m) @ t=0.08
0.8815582919241001
% V (V) @ t=0.08
0.011770490670682416
% es.normE (V/m) @ t=0.1
2.3814705274041152
% es.EX (V/m) @ t=0.1
2.2007906304809826
% es.EY (V/m) @ t=0.1
0.1385754443568309
% es.EZ (V/m) @ t=0.1
0.8896970685979531
% es.tEX (V/m) @ t=0.1
2.200790630480981
% es.tEY (V/m) @ t=0.1
0
% es.tEZ (V/m) @ t=0.1
0.8896970685979584
% es.Ex (V/m) @ t=0.1
2.2007906304809826
% es.Ey (V/m) @ t=0.1
0.1385754443568309
% es.Ez (V/m) @ t=0.1
0.8896970685979531
% es.tEx (V/m) @ t=0.1
2.200790630480981
% es.tEy (V/m) @ t=0.1
0
% es.tEz (V/m) @ t=0.1
0.8896970685979584
% V (V) @ t=0.1
0.011879159183265046
% es.normE (V/m) @ t=0.12
2.4032557686948413
% es.EX (V/m) @ t=0.12
2.2209230477367328
% es.EY (V/m) @ t=0.12
0.1398431010558212
% es.EZ (V/m) @ t=0.12
0.8978358452718125
% es.tEX (V/m) @ t=0.12
2.220923047736731
% es.tEY (V/m) @ t=0.12
0
% es.tEZ (V/m) @ t=0.12
0.8978358452718185
% es.Ex (V/m) @ t=0.12
2.2209230477367328
% es.Ey (V/m) @ t=0.12
0.1398431010558212
% es.Ez (V/m) @ t=0.12
0.8978358452718125
% es.tEx (V/m) @ t=0.12
2.220923047736731
% es.tEy (V/m) @ t=0.12
0
% es.tEz (V/m) @ t=0.12
0.8978358452718185
% V (V) @ t=0.12
0.011987827695847678
% es.normE (V/m) @ t=0.14
2.4256794764013163
% es.EX (V/m) @ t=0.14
2.241645482358787
% es.EY (V/m) @ t=0.14
0.1411479437254325
% es.EZ (V/m) @ t=0.14
0.906213170519141
% es.tEX (V/m) @ t=0.14
2.241645482358786
% es.tEY (V/m) @ t=0.14
0
% es.tEZ (V/m) @ t=0.14
0.9062131705191496
% es.Ex (V/m) @ t=0.14
2.241645482358787
% es.Ey (V/m) @ t=0.14
0.1411479437254325
% es.Ez (V/m) @ t=0.14
0.906213170519141
% es.tEx (V/m) @ t=0.14
2.241645482358786
% es.tEy (V/m) @ t=0.14
0
% es.tEz (V/m) @ t=0.14
0.9062131705191496
% V (V) @ t=0.14
0.012099679589131392
% es.normE (V/m) @ t=0.16
2.448555940732878
% es.EX (V/m) @ t=0.16
2.262786316860498
% es.EY (V/m) @ t=0.16
0.14247915613687878
% es.EZ (V/m) @ t=0.16
0.9147596580659407
% es.tEX (V/m) @ t=0.16
2.2627863168605025
% es.tEY (V/m) @ t=0.16
0
% es.tEZ (V/m) @ t=0.16
0.9147596580659405
% es.Ex (V/m) @ t=0.16
2.262786316860498
% es.Ey (V/m) @ t=0.16
0.14247915613687878
% es.Ez (V/m) @ t=0.16
0.9147596580659407
% es.tEx (V/m) @ t=0.16
2.2627863168605025
% es.tEy (V/m) @ t=0.16
0
% es.tEz (V/m) @ t=0.16
0.9147596580659405
% V (V) @ t=0.16
0.01221378891783708
% es.normE (V/m) @ t=0.18
2.471432405064464
% es.EX (V/m) @ t=0.18
2.283927151362226
% es.EY (V/m) @ t=0.18
0.14381036854832707
% es.EZ (V/m) @ t=0.18
0.923306145612758
% es.tEX (V/m) @ t=0.18
2.2839271513622172
% es.tEY (V/m) @ t=0.18
0
% es.tEZ (V/m) @ t=0.18
0.9233061456127603
% es.Ex (V/m) @ t=0.18
2.283927151362226
% es.Ey (V/m) @ t=0.18
0.14381036854832707
% es.Ez (V/m) @ t=0.18
0.923306145612758
% es.tEx (V/m) @ t=0.18
2.2839271513622172
% es.tEy (V/m) @ t=0.18
0
% es.tEz (V/m) @ t=0.18
0.9233061456127603
% V (V) @ t=0.18
0.012327898246542773
% es.normE (V/m) @ t=0.2
2.494308869396032
% es.EX (V/m) @ t=0.2
2.305067985863939
% es.EY (V/m) @ t=0.2
0.14514158095976826
% es.EZ (V/m) @ t=0.2
0.9318526331595574
% es.tEX (V/m) @ t=0.2
2.305067985863934
% es.tEY (V/m) @ t=0.2
0
% es.tEZ (V/m) @ t=0.2
0.9318526331595498
% es.Ex (V/m) @ t=0.2
2.305067985863939
% es.Ey (V/m) @ t=0.2
0.14514158095976826
% es.Ez (V/m) @ t=0.2
0.9318526331595574
% es.tEx (V/m) @ t=0.2
2.305067985863934
% es.tEy (V/m) @ t=0.2
0
% es.tEz (V/m) @ t=0.2
0.9318526331595498
% V (V) @ t=0.2
0.012442007575248463
% es.normE (V/m) @ t=0.22
2.517185333727616
% es.EX (V/m) @ t=0.22
2.3262088203656557
% es.EY (V/m) @ t=0.22
0.14647279337121455
% es.EZ (V/m) @ t=0.22
0.9403991207063829
% es.tEX (V/m) @ t=0.22
2.3262088203656557
% es.tEY (V/m) @ t=0.22
0
% es.tEZ (V/m) @ t=0.22
0.9403991207063775
% es.Ex (V/m) @ t=0.22
2.3262088203656557
% es.Ey (V/m) @ t=0.22
0.14647279337121455
% es.Ez (V/m) @ t=0.22
0.9403991207063829
% es.tEx (V/m) @ t=0.22
2.3262088203656557
% es.tEy (V/m) @ t=0.22
0
% es.tEz (V/m) @ t=0.22
0.9403991207063775
% V (V) @ t=0.22
0.012556116903954155
% es.normE (V/m) @ t=0.24
2.540061798059189
% es.EX (V/m) @ t=0.24
2.3473496548673705
% es.EY (V/m) @ t=0.24
0.14780400578265118
% es.EZ (V/m) @ t=0.24
0.948945608253176
% es.tEX (V/m) @ t=0.24
2.347349654867365
% es.tEY (V/m) @ t=0.24
0
% es.tEZ (V/m) @ t=0.24
0.9489456082531831
% es.Ex (V/m) @ t=0.24
2.3473496548673705
% es.Ey (V/m) @ t=0.24
0.14780400578265118
% es.Ez (V/m) @ t=0.24
0.948945608253176
% es.tEx (V/m) @ t=0.24
2.347349654867365
% es.tEy (V/m) @ t=0.24
0
% es.tEz (V/m) @ t=0.24
0.9489456082531831
% V (V) @ t=0.24
0.012670226232659842
% es.normE (V/m) @ t=0.26
2.5633676457315313
% es.EX (V/m) @ t=0.26
2.368887259668403
% es.EY (V/m) @ t=0.26
0.14916033936559325
% es.EZ (V/m) @ t=0.26
0.9576525998634091
% es.tEX (V/m) @ t=0.26
2.368887259668405
% es.tEY (V/m) @ t=0.26
0
% es.tEZ (V/m) @ t=0.26
0.9576525998634189
% es.Ex (V/m) @ t=0.26
2.368887259668403
% es.Ey (V/m) @ t=0.26
0.14916033936559325
% es.Ez (V/m) @ t=0.26
0.9576525998634091
% es.tEx (V/m) @ t=0.26
2.368887259668405
% es.tEy (V/m) @ t=0.26
0
% es.tEz (V/m) @ t=0.26
0.9576525998634189
% V (V) @ t=0.26
0.012786471894953997
% es.normE (V/m) @ t=0.28
2.588677656649573
% es.EX (V/m) @ t=0.28
2.392276805090395
% es.EY (V/m) @ t=0.28
0.15063392698196532
% es.EZ (V/m) @ t=0.28
0.9671087503582467
% es.tEX (V/m) @ t=0.28
2.3922768050903915
% es.tEY (V/m) @ t=0.28
0
% es.tEZ (V/m) @ t=0.28
0.9671087503582401
% es.Ex (V/m) @ t=0.28
2.392276805090395
% es.Ey (V/m) @ t=0.28
0.15063392698196532
% es.Ez (V/m) @ t=0.28
0.9671087503582467
% es.tEx (V/m) @ t=0.28
2.3922768050903915
% es.tEy (V/m) @ t=0.28
0
% es.tEz (V/m) @ t=0.28
0.9671087503582401
% V (V) @ t=0.28
0.012912688976377247
% es.normE (V/m) @ t=0.3
2.6139876675683222
% es.EX (V/m) @ t=0.3
2.415666350512409
% es.EY (V/m) @ t=0.3
0.15210751459833471
% es.EZ (V/m) @ t=0.3
0.9765649008530843
% es.tEX (V/m) @ t=0.3
2.4156663505124083
% es.tEY (V/m) @ t=0.3
0
% es.tEZ (V/m) @ t=0.3
0.9765649008530817
% es.Ex (V/m) @ t=0.3
2.415666350512409
% es.Ey (V/m) @ t=0.3
0.15210751459833471
% es.Ez (V/m) @ t=0.3
0.9765649008530843
% es.tEx (V/m) @ t=0.3
2.4156663505124083
% es.tEy (V/m) @ t=0.3
0
% es.tEz (V/m) @ t=0.3
0.9765649008530817
% V (V) @ t=0.3
0.013038906057800496
% es.normE (V/m) @ t=0.32
2.639297678487733
% es.EX (V/m) @ t=0.32
2.439055895934409
% es.EY (V/m) @ t=0.32
0.15358110221470744
% es.EZ (V/m) @ t=0.32
0.9860210513479402
% es.tEX (V/m) @ t=0.32
2.439055895934409
% es.tEY (V/m) @ t=0.32
0
% es.tEZ (V/m) @ t=0.32
0.986021051347933
% es.Ex (V/m) @ t=0.32
2.439055895934409
% es.Ey (V/m) @ t=0.32
0.15358110221470744
% es.Ez (V/m) @ t=0.32
0.9860210513479402
% es.tEx (V/m) @ t=0.32
2.439055895934409
% es.tEy (V/m) @ t=0.32
0
% es.tEz (V/m) @ t=0.32
0.986021051347933
% V (V) @ t=0.32
0.013165123139223746
% es.normE (V/m) @ t=0.34
2.664607689407789
% es.EX (V/m) @ t=0.34
2.462445441356407
% es.EY (V/m) @ t=0.34
0.15505468983106785
% es.EZ (V/m) @ t=0.34
0.995477201842792
% es.tEX (V/m) @ t=0.34
2.462445441356408
% es.tEY (V/m) @ t=0.34
0
% es.tEZ (V/m) @ t=0.34
0.9954772018427889
% es.Ex (V/m) @ t=0.34
2.462445441356407
% es.Ey (V/m) @ t=0.34
0.15505468983106785
% es.Ez (V/m) @ t=0.34
0.995477201842792
% es.tEx (V/m) @ t=0.34
2.462445441356408
% es.tEy (V/m) @ t=0.34
0
% es.tEz (V/m) @ t=0.34
0.9954772018427889
% V (V) @ t=0.34
0.013291340220646996
% es.normE (V/m) @ t=0.36
2.6899177003284604
% es.EX (V/m) @ t=0.36
2.4858349867783964
% es.EY (V/m) @ t=0.36
0.1565282774474459
% es.EZ (V/m) @ t=0.36
1.0049333523376216
% es.tEX (V/m) @ t=0.36
2.4858349867784018
% es.tEY (V/m) @ t=0.36
0
% es.tEZ (V/m) @ t=0.36
1.0049333523376163
% es.Ex (V/m) @ t=0.36
2.4858349867783964
% es.Ey (V/m) @ t=0.36
0.1565282774474459
% es.Ez (V/m) @ t=0.36
1.0049333523376216
% es.tEx (V/m) @ t=0.36
2.4858349867784018
% es.tEy (V/m) @ t=0.36
0
% es.tEz (V/m) @ t=0.36
1.0049333523376163
% V (V) @ t=0.36
0.013417557302070242
% es.normE (V/m) @ t=0.38
2.7152277112497676
% es.EX (V/m) @ t=0.38
2.5092245322004025
% es.EY (V/m) @ t=0.38
0.15800186506380465
% es.EZ (V/m) @ t=0.38
1.014389502832473
% es.tEX (V/m) @ t=0.38
2.5092245322004043
% es.tEY (V/m) @ t=0.38
0
% es.tEZ (V/m) @ t=0.38
1.014389502832465
% es.Ex (V/m) @ t=0.38
2.5092245322004025
% es.Ey (V/m) @ t=0.38
0.15800186506380465
% es.Ez (V/m) @ t=0.38
1.014389502832473
% es.tEx (V/m) @ t=0.38
2.5092245322004043
% es.tEy (V/m) @ t=0.38
0
% es.tEz (V/m) @ t=0.38
1.014389502832465
% V (V) @ t=0.38
0.013543774383493492
% es.normE (V/m) @ t=0.4
2.7405377221716627
% es.EX (V/m) @ t=0.4
2.5326140776224086
% es.EY (V/m) @ t=0.4
0.15947545268017405
% es.EZ (V/m) @ t=0.4
1.023845653327299
% es.tEX (V/m) @ t=0.4
2.532614077622405
% es.tEY (V/m) @ t=0.4
0
% es.tEZ (V/m) @ t=0.4
1.0238456533272977
% es.Ex (V/m) @ t=0.4
2.5326140776224086
% es.Ey (V/m) @ t=0.4
0.15947545268017405
% es.Ez (V/m) @ t=0.4
1.023845653327299
% es.tEx (V/m) @ t=0.4
2.532614077622405
% es.tEy (V/m) @ t=0.4
0
% es.tEz (V/m) @ t=0.4
1.0238456533272977
% V (V) @ t=0.4
0.01366999146491674
% es.normE (V/m) @ t=0.42
2.7658477330941427
% es.EX (V/m) @ t=0.42
2.556003623044414
% es.EY (V/m) @ t=0.42
0.16094904029655943
% es.EZ (V/m) @ t=0.42
1.0333018038221429
% es.tEX (V/m) @ t=0.42
2.5560036230444183
% es.tEY (V/m) @ t=0.42
0
% es.tEZ (V/m) @ t=0.42
1.0333018038221464
% es.Ex (V/m) @ t=0.42
2.556003623044414
% es.Ey (V/m) @ t=0.42
0.16094904029655943
% es.Ez (V/m) @ t=0.42
1.0333018038221429
% es.tEx (V/m) @ t=0.42
2.5560036230444183
% es.tEy (V/m) @ t=0.42
0
% es.tEz (V/m) @ t=0.42
1.0333018038221464
% V (V) @ t=0.42
0.013796208546339986
% es.normE (V/m) @ t=0.44
2.7911577440171804
% es.EX (V/m) @ t=0.44
2.579393168466412
% es.EY (V/m) @ t=0.44
0.16242262791291984
% es.EZ (V/m) @ t=0.44
1.0427579543169907
% es.tEX (V/m) @ t=0.44
2.5793931684664084
% es.tEY (V/m) @ t=0.44
0
% es.tEZ (V/m) @ t=0.44
1.042757954316988
% es.Ex (V/m) @ t=0.44
2.579393168466412
% es.Ey (V/m) @ t=0.44
0.16242262791291984
% es.Ez (V/m) @ t=0.44
1.0427579543169907
% es.tEx (V/m) @ t=0.44
2.5793931684664084
% es.tEy (V/m) @ t=0.44
0
% es.tEz (V/m) @ t=0.44
1.042757954316988
% V (V) @ t=0.44
0.01392242562776324
% es.normE (V/m) @ t=0.46
2.816467754940765
% es.EX (V/m) @ t=0.46
2.602782713888412
% es.EY (V/m) @ t=0.46
0.16389621552928202
% es.EZ (V/m) @ t=0.46
1.0522141048118305
% es.tEX (V/m) @ t=0.46
2.602782713888409
% es.tEY (V/m) @ t=0.46
0
% es.tEZ (V/m) @ t=0.46
1.0522141048118279
% es.Ex (V/m) @ t=0.46
2.602782713888412
% es.Ey (V/m) @ t=0.46
0.16389621552928202
% es.Ez (V/m) @ t=0.46
1.0522141048118305
% es.tEx (V/m) @ t=0.46
2.602782713888409
% es.tEy (V/m) @ t=0.46
0
% es.tEz (V/m) @ t=0.46
1.0522141048118279
% V (V) @ t=0.46
0.014048642709186489
% es.normE (V/m) @ t=0.48
2.8417777658648857
% es.EX (V/m) @ t=0.48
2.62617225931041
% es.EY (V/m) @ t=0.48
0.16536980314566374
% es.EZ (V/m) @ t=0.48
1.0616702553066788
% es.tEX (V/m) @ t=0.48
2.6261722593104047
% es.tEY (V/m) @ t=0.48
0
% es.tEZ (V/m) @ t=0.48
1.0616702553066784
% es.Ex (V/m) @ t=0.48
2.62617225931041
% es.Ey (V/m) @ t=0.48
0.16536980314566374
% es.Ez (V/m) @ t=0.48
1.0616702553066788
% es.tEx (V/m) @ t=0.48
2.6261722593104047
% es.tEy (V/m) @ t=0.48
0
% es.tEz (V/m) @ t=0.48
1.0616702553066784
% V (V) @ t=0.48
0.014174859790609737
% es.normE (V/m) @ t=0.5
2.867087776789531
% es.EX (V/m) @ t=0.5
2.6495618047324196
% es.EY (V/m) @ t=0.5
0.16684339076201882
% es.EZ (V/m) @ t=0.5
1.0711264058015084
% es.tEX (V/m) @ t=0.5
2.649561804732416
% es.tEY (V/m) @ t=0.5
0
% es.tEZ (V/m) @ t=0.5
1.0711264058015182
% es.Ex (V/m) @ t=0.5
2.6495618047324196
% es.Ey (V/m) @ t=0.5
0.16684339076201882
% es.Ez (V/m) @ t=0.5
1.0711264058015084
% es.tEx (V/m) @ t=0.5
2.649561804732416
% es.tEy (V/m) @ t=0.5
0
% es.tEz (V/m) @ t=0.5
1.0711264058015182
% V (V) @ t=0.5
0.014301076872032982
% es.normE (V/m) @ t=0.52
2.893383117435029
% es.EX (V/m) @ t=0.52
2.673861972933727
% es.EY (V/m) @ t=0.52
0.16837413086755537
% es.EZ (V/m) @ t=0.52
1.080950544693466
% es.tEX (V/m) @ t=0.52
2.673861972933725
% es.tEY (V/m) @ t=0.52
0
% es.tEZ (V/m) @ t=0.52
1.0809505446934624
% es.Ex (V/m) @ t=0.52
2.673861972933727
% es.Ey (V/m) @ t=0.52
0.16837413086755537
% es.Ez (V/m) @ t=0.52
1.080950544693466
% es.tEx (V/m) @ t=0.52
2.673861972933725
% es.tEy (V/m) @ t=0.52
0
% es.tEz (V/m) @ t=0.52
1.0809505446934624
% V (V) @ t=0.52
0.014432216379540438
% es.normE (V/m) @ t=0.54
2.9214366687218813
% es.EX (V/m) @ t=0.54
2.699787045598601
% es.EY (V/m) @ t=0.54
0.17000685319545183
% es.EZ (V/m) @ t=0.54
1.091431317707201
% es.tEX (V/m) @ t=0.54
2.699787045598594
% es.tEY (V/m) @ t=0.54
0
% es.tEZ (V/m) @ t=0.54
1.09143131770721
% es.Ex (V/m) @ t=0.54
2.699787045598601
% es.Ey (V/m) @ t=0.54
0.17000685319545183
% es.Ez (V/m) @ t=0.54
1.091431317707201
% es.tEx (V/m) @ t=0.54
2.699787045598594
% es.tEy (V/m) @ t=0.54
0
% es.tEz (V/m) @ t=0.54
1.09143131770721
% V (V) @ t=0.54
0.014572139405643399
% es.normE (V/m) @ t=0.56
2.9494902200087685
% es.EX (V/m) @ t=0.56
2.7257121182634663
% es.EY (V/m) @ t=0.56
0.17163957552333442
% es.EZ (V/m) @ t=0.56
1.101912090720956
% es.tEX (V/m) @ t=0.56
2.7257121182634627
% es.tEY (V/m) @ t=0.56
0
% es.tEZ (V/m) @ t=0.56
1.101912090720961
% es.Ex (V/m) @ t=0.56
2.7257121182634663
% es.Ey (V/m) @ t=0.56
0.17163957552333442
% es.Ez (V/m) @ t=0.56
1.101912090720956
% es.tEx (V/m) @ t=0.56
2.7257121182634627
% es.tEy (V/m) @ t=0.56
0
% es.tEz (V/m) @ t=0.56
1.101912090720961
% V (V) @ t=0.56
0.014712062431746355
% es.normE (V/m) @ t=0.58
2.9775437712957027
% es.EX (V/m) @ t=0.58
2.7516371909283457
% es.EY (V/m) @ t=0.58
0.173272297851222
% es.EZ (V/m) @ t=0.58
1.1123928637346925
% es.tEX (V/m) @ t=0.58
2.751637190928344
% es.tEY (V/m) @ t=0.58
0
% es.tEZ (V/m) @ t=0.58
1.1123928637346907
% es.Ex (V/m) @ t=0.58
2.7516371909283457
% es.Ey (V/m) @ t=0.58
0.173272297851222
% es.Ez (V/m) @ t=0.58
1.1123928637346925
% es.tEx (V/m) @ t=0.58
2.751637190928344
% es.tEy (V/m) @ t=0.58
0
% es.tEz (V/m) @ t=0.58
1.1123928637346907
% V (V) @ t=0.58
0.014851985457849312
% es.normE (V/m) @ t=0.6
3.005597322582655
% es.EX (V/m) @ t=0.6
2.777562263593211
% es.EY (V/m) @ t=0.6
0.17490502017909204
% es.EZ (V/m) @ t=0.6
1.1228736367484213
% es.tEX (V/m) @ t=0.6
2.777562263593211
% es.tEY (V/m) @ t=0.6
0
% es.tEZ (V/m) @ t=0.6
1.1228736367484178
% es.Ex (V/m) @ t=0.6
2.777562263593211
% es.Ey (V/m) @ t=0.6
0.17490502017909204
% es.Ez (V/m) @ t=0.6
1.1228736367484213
% es.tEx (V/m) @ t=0.6
2.777562263593211
% es.tEy (V/m) @ t=0.6
0
% es.tEz (V/m) @ t=0.6
1.1228736367484178
% V (V) @ t=0.6
0.014991908483952272
% es.normE (V/m) @ t=0.62
3.033650873869655
% es.EX (V/m) @ t=0.62
2.803487336258085
% es.EY (V/m) @ t=0.62
0.1765377425069583
% es.EZ (V/m) @ t=0.62
1.133354409762159
% es.tEX (V/m) @ t=0.62
2.8034873362580814
% es.tEY (V/m) @ t=0.62
0
% es.tEZ (V/m) @ t=0.62
1.1333544097621644
% es.Ex (V/m) @ t=0.62
2.803487336258085
% es.Ey (V/m) @ t=0.62
0.1765377425069583
% es.Ez (V/m) @ t=0.62
1.133354409762159
% es.tEx (V/m) @ t=0.62
2.8034873362580814
% es.tEy (V/m) @ t=0.62
0
% es.tEz (V/m) @ t=0.62
1.1333544097621644
% V (V) @ t=0.62
0.015131831510055229
% es.normE (V/m) @ t=0.64
3.061704425156675
% es.EX (V/m) @ t=0.64
2.8294124089229413
% es.EY (V/m) @ t=0.64
0.17817046483484789
% es.EZ (V/m) @ t=0.64
1.1438351827759012
% es.tEX (V/m) @ t=0.64
2.8294124089229378
% es.tEY (V/m) @ t=0.64
0
% es.tEZ (V/m) @ t=0.64
1.1438351827759048
% es.Ex (V/m) @ t=0.64
2.8294124089229413
% es.Ey (V/m) @ t=0.64
0.17817046483484789
% es.Ez (V/m) @ t=0.64
1.1438351827759012
% es.tEx (V/m) @ t=0.64
2.8294124089229378
% es.tEy (V/m) @ t=0.64
0
% es.tEz (V/m) @ t=0.64
1.1438351827759048
% V (V) @ t=0.64
0.01527175453615819
% es.normE (V/m) @ t=0.66
3.089757976443738
% es.EX (V/m) @ t=0.66
2.8553374815878083
% es.EY (V/m) @ t=0.66
0.17980318716274424
% es.EZ (V/m) @ t=0.66
1.154315955789638
% es.tEX (V/m) @ t=0.66
2.8553374815878225
% es.tEY (V/m) @ t=0.66
0
% es.tEZ (V/m) @ t=0.66
1.1543159557896416
% es.Ex (V/m) @ t=0.66
2.8553374815878083
% es.Ey (V/m) @ t=0.66
0.17980318716274424
% es.Ez (V/m) @ t=0.66
1.154315955789638
% es.tEx (V/m) @ t=0.66
2.8553374815878225
% es.tEy (V/m) @ t=0.66
0
% es.tEz (V/m) @ t=0.66
1.1543159557896416
% V (V) @ t=0.66
0.015411677562261146
% es.normE (V/m) @ t=0.68
3.117811527730844
% es.EX (V/m) @ t=0.68
2.8812625542526824
% es.EY (V/m) @ t=0.68
0.1814359094906124
% es.EZ (V/m) @ t=0.68
1.1647967288033945
% es.tEX (V/m) @ t=0.68
2.881262554252679
% es.tEY (V/m) @ t=0.68
0
% es.tEZ (V/m) @ t=0.68
1.1647967288033891
% es.Ex (V/m) @ t=0.68
2.8812625542526824
% es.Ey (V/m) @ t=0.68
0.1814359094906124
% es.Ez (V/m) @ t=0.68
1.1647967288033945
% es.tEx (V/m) @ t=0.68
2.881262554252679
% es.tEy (V/m) @ t=0.68
0
% es.tEz (V/m) @ t=0.68
1.1647967288033891
% V (V) @ t=0.68
0.015551600588364103
% es.normE (V/m) @ t=0.7
3.145865079017965
% es.EX (V/m) @ t=0.7
2.9071876269175547
% es.EY (V/m) @ t=0.7
0.1830686318185215
% es.EZ (V/m) @ t=0.7
1.1752775018170958
% es.tEX (V/m) @ t=0.7
2.907187626917553
% es.tEY (V/m) @ t=0.7
0
% es.tEZ (V/m) @ t=0.7
1.1752775018170976
% es.Ex (V/m) @ t=0.7
2.9071876269175547
% es.Ey (V/m) @ t=0.7
0.1830686318185215
% es.Ez (V/m) @ t=0.7
1.1752775018170958
% es.tEx (V/m) @ t=0.7
2.907187626917553
% es.tEy (V/m) @ t=0.7
0
% es.tEz (V/m) @ t=0.7
1.1752775018170976
% V (V) @ t=0.7
0.015691523614467063
% es.normE (V/m) @ t=0.72
3.17391863030514
% es.EX (V/m) @ t=0.72
2.9331126995824324
% es.EY (V/m) @ t=0.72
0.18470135414639144
% es.EZ (V/m) @ t=0.72
1.1857582748308557
% es.tEX (V/m) @ t=0.72
2.9331126995824306
% es.tEY (V/m) @ t=0.72
0
% es.tEZ (V/m) @ t=0.72
1.1857582748308593
% es.Ex (V/m) @ t=0.72
2.9331126995824324
% es.Ey (V/m) @ t=0.72
0.18470135414639144
% es.Ez (V/m) @ t=0.72
1.1857582748308557
% es.tEx (V/m) @ t=0.72
2.9331126995824306
% es.tEy (V/m) @ t=0.72
0
% es.tEz (V/m) @ t=0.72
1.1857582748308593
% V (V) @ t=0.72
0.015831446640570023
% es.normE (V/m) @ t=0.74
3.2019721815923194
% es.EX (V/m) @ t=0.74
2.9590377722472887
% es.EY (V/m) @ t=0.74
0.18633407647427203
% es.EZ (V/m) @ t=0.74
1.1962390478445961
% es.tEX (V/m) @ t=0.74
2.95903777224728
% es.tEY (V/m) @ t=0.74
0
% es.tEZ (V/m) @ t=0.74
1.1962390478445961
% es.Ex (V/m) @ t=0.74
2.9590377722472887
% es.Ey (V/m) @ t=0.74
0.18633407647427203
% es.Ez (V/m) @ t=0.74
1.1962390478445961
% es.tEx (V/m) @ t=0.74
2.95903777224728
% es.tEy (V/m) @ t=0.74
0
% es.tEz (V/m) @ t=0.74
1.1962390478445961
% V (V) @ t=0.74
0.01597136966667298
% es.normE (V/m) @ t=0.76
3.2300257328795485
% es.EX (V/m) @ t=0.76
2.984962844912168
% es.EY (V/m) @ t=0.76
0.1879667988021615
% es.EZ (V/m) @ t=0.76
1.2067198208583365
% es.tEX (V/m) @ t=0.76
2.984962844912168
% es.tEY (V/m) @ t=0.76
0
% es.tEZ (V/m) @ t=0.76
1.20671982085834
% es.Ex (V/m) @ t=0.76
2.984962844912168
% es.Ey (V/m) @ t=0.76
0.1879667988021615
% es.Ez (V/m) @ t=0.76
1.2067198208583365
% es.tEx (V/m) @ t=0.76
2.984962844912168
% es.tEy (V/m) @ t=0.76
0
% es.tEz (V/m) @ t=0.76
1.20671982085834
% V (V) @ t=0.76
0.016111292692775937
% es.normE (V/m) @ t=0.78
3.2597545614196344
% es.EX (V/m) @ t=0.78
3.0124361986773494
% es.EY (V/m) @ t=0.78
0.18969660503360608
% es.EZ (V/m) @ t=0.78
1.2178261999814106
% es.tEX (V/m) @ t=0.78
3.0124361986773476
% es.tEY (V/m) @ t=0.78
0
% es.tEZ (V/m) @ t=0.78
1.2178261999814106
% es.Ex (V/m) @ t=0.78
3.0124361986773494
% es.Ey (V/m) @ t=0.78
0.18969660503360608
% es.Ez (V/m) @ t=0.78
1.2178261999814106
% es.tEx (V/m) @ t=0.78
3.0124361986773476
% es.tEy (V/m) @ t=0.78
0
% es.tEz (V/m) @ t=0.78
1.2178261999814106
% V (V) @ t=0.78
0.01625958836429802
% es.normE (V/m) @ t=0.8
3.2908999016406137
% es.EX (V/m) @ t=0.8
3.0412186839667994
% es.EY (V/m) @ t=0.8
0.1915084994586278
% es.EZ (V/m) @ t=0.8
1.2294615532547963
% es.tEX (V/m) @ t=0.8
3.0412186839668074
% es.tEY (V/m) @ t=0.8
0
% es.tEZ (V/m) @ t=0.8
1.2294615532547981
% es.Ex (V/m) @ t=0.8
3.0412186839667994
% es.Ey (V/m) @ t=0.8
0.1915084994586278
% es.Ez (V/m) @ t=0.8
1.2294615532547963
% es.tEx (V/m) @ t=0.8
3.0412186839668074
% es.tEy (V/m) @ t=0.8
0
% es.tEz (V/m) @ t=0.8
1.2294615532547981
% V (V) @ t=0.8
0.016414963431194293
% es.normE (V/m) @ t=0.82
3.3220452418618396
% es.EX (V/m) @ t=0.82
3.070001169256244
% es.EY (V/m) @ t=0.82
0.19332039388366185
% es.EZ (V/m) @ t=0.82
1.2410969065281714
% es.tEX (V/m) @ t=0.82
3.0700011692562406
% es.tEY (V/m) @ t=0.82
0
% es.tEZ (V/m) @ t=0.82
1.2410969065281714
% es.Ex (V/m) @ t=0.82
3.070001169256244
% es.Ey (V/m) @ t=0.82
0.19332039388366185
% es.Ez (V/m) @ t=0.82
1.2410969065281714
% es.tEx (V/m) @ t=0.82
3.0700011692562406
% es.tEy (V/m) @ t=0.82
0
% es.tEz (V/m) @ t=0.82
1.2410969065281714
% V (V) @ t=0.82
0.01657033849809057
% es.normE (V/m) @ t=0.84
3.3531905820833163
% es.EX (V/m) @ t=0.84
3.0987836545456897
% es.EY (V/m) @ t=0.84
0.1951322883086728
% es.EZ (V/m) @ t=0.84
1.2527322598015544
% es.tEX (V/m) @ t=0.84
3.098783654545697
% es.tEY (V/m) @ t=0.84
0
% es.tEZ (V/m) @ t=0.84
1.2527322598015598
% es.Ex (V/m) @ t=0.84
3.0987836545456897
% es.Ey (V/m) @ t=0.84
0.1951322883086728
% es.Ez (V/m) @ t=0.84
1.2527322598015544
% es.tEx (V/m) @ t=0.84
3.098783654545697
% es.tEy (V/m) @ t=0.84
0
% es.tEz (V/m) @ t=0.84
1.2527322598015598
% V (V) @ t=0.84
0.01672571356498684
% es.normE (V/m) @ t=0.86
3.3843359223050316
% es.EX (V/m) @ t=0.86
3.1275661398351335
% es.EY (V/m) @ t=0.86
0.19694418273371017
% es.EZ (V/m) @ t=0.86
1.2643676130749268
% es.tEX (V/m) @ t=0.86
3.1275661398351264
% es.tEY (V/m) @ t=0.86
0
% es.tEZ (V/m) @ t=0.86
1.2643676130749286
% es.Ex (V/m) @ t=0.86
3.1275661398351335
% es.Ey (V/m) @ t=0.86
0.19694418273371017
% es.Ez (V/m) @ t=0.86
1.2643676130749268
% es.tEx (V/m) @ t=0.86
3.1275661398351264
% es.tEy (V/m) @ t=0.86
0
% es.tEz (V/m) @ t=0.86
1.2643676130749286
% V (V) @ t=0.86
0.016881088631883114
% es.normE (V/m) @ t=0.88
3.4154812625269706
% es.EX (V/m) @ t=0.88
3.156348625124558
% es.EY (V/m) @ t=0.88
0.19875607715871757
% es.EZ (V/m) @ t=0.88
1.276002966348324
% es.tEX (V/m) @ t=0.88
3.1563486251245543
% es.tEY (V/m) @ t=0.88
0
% es.tEZ (V/m) @ t=0.88
1.276002966348317
% es.Ex (V/m) @ t=0.88
3.156348625124558
% es.Ey (V/m) @ t=0.88
0.19875607715871757
% es.Ez (V/m) @ t=0.88
1.276002966348324
% es.tEx (V/m) @ t=0.88
3.1563486251245543
% es.tEy (V/m) @ t=0.88
0
% es.tEz (V/m) @ t=0.88
1.276002966348317
% V (V) @ t=0.88
0.017036463698779387
% es.normE (V/m) @ t=0.9
3.4466266027491566
% es.EX (V/m) @ t=0.9
3.185131110414016
% es.EY (V/m) @ t=0.9
0.2005679715837465
% es.EZ (V/m) @ t=0.9
1.2876383196216832
% es.tEX (V/m) @ t=0.9
3.1851311104140123
% es.tEY (V/m) @ t=0.9
0
% es.tEZ (V/m) @ t=0.9
1.2876383196216796
% es.Ex (V/m) @ t=0.9
3.185131110414016
% es.Ey (V/m) @ t=0.9
0.2005679715837465
% es.Ez (V/m) @ t=0.9
1.2876383196216832
% es.tEx (V/m) @ t=0.9
3.1851311104140123
% es.tEy (V/m) @ t=0.9
0
% es.tEz (V/m) @ t=0.9
1.2876383196216796
% V (V) @ t=0.9
0.017191838765675663
% es.normE (V/m) @ t=0.92
3.4777719429715646
% es.EX (V/m) @ t=0.92
3.213913595703457
% es.EY (V/m) @ t=0.92
0.202379866008773
% es.EZ (V/m) @ t=0.92
1.299273672895083
% es.tEX (V/m) @ t=0.92
3.213913595703458
% es.tEY (V/m) @ t=0.92
0
% es.tEZ (V/m) @ t=0.92
1.2992736728950742
% es.Ex (V/m) @ t=0.92
3.213913595703457
% es.Ey (V/m) @ t=0.92
0.202379866008773
% es.Ez (V/m) @ t=0.92
1.299273672895083
% es.tEx (V/m) @ t=0.92
3.213913595703458
% es.tEy (V/m) @ t=0.92
0
% es.tEz (V/m) @ t=0.92
1.2992736728950742
% V (V) @ t=0.92
0.017347213832571935
% es.normE (V/m) @ t=0.94
3.508917283194183
% es.EX (V/m) @ t=0.94
3.242696080992899
% es.EY (V/m) @ t=0.94
0.2041917604337844
% es.EZ (V/m) @ t=0.94
1.3109090261684608
% es.tEX (V/m) @ t=0.94
3.2426960809929124
% es.tEY (V/m) @ t=0.94
0
% es.tEZ (V/m) @ t=0.94
1.3109090261684662
% es.Ex (V/m) @ t=0.94
3.242696080992899
% es.Ey (V/m) @ t=0.94
0.2041917604337844
% es.Ez (V/m) @ t=0.94
1.3109090261684608
% es.tEx (V/m) @ t=0.94
3.2426960809929124
% es.tEy (V/m) @ t=0.94
0
% es.tEz (V/m) @ t=0.94
1.3109090261684662
% V (V) @ t=0.94
0.01750258889946821
% es.normE (V/m) @ t=0.96
3.5400626234170023
% es.EX (V/m) @ t=0.96
3.2714785662823322
% es.EY (V/m) @ t=0.96
0.20600365485880912
% es.EZ (V/m) @ t=0.96
1.3225443794418332
% es.tEX (V/m) @ t=0.96
3.2714785662823473
% es.tEY (V/m) @ t=0.96
0
% es.tEZ (V/m) @ t=0.96
1.322544379441835
% es.Ex (V/m) @ t=0.96
3.2714785662823322
% es.Ey (V/m) @ t=0.96
0.20600365485880912
% es.Ez (V/m) @ t=0.96
1.3225443794418332
% es.tEx (V/m) @ t=0.96
3.2714785662823473
% es.tEy (V/m) @ t=0.96
0
% es.tEz (V/m) @ t=0.96
1.322544379441835
% V (V) @ t=0.96
0.01765796396636448
% es.normE (V/m) @ t=0.98
3.57120796364005
% es.EX (V/m) @ t=0.98
3.3002610515717814
% es.EY (V/m) @ t=0.98
0.2078155492838416
% es.EZ (V/m) @ t=0.98
1.3341797327152305
% es.tEX (V/m) @ t=0.98
3.3002610515717805
% es.tEY (V/m) @ t=0.98
0
% es.tEZ (V/m) @ t=0.98
1.3341797327152376
% es.Ex (V/m) @ t=0.98
3.3002610515717814
% es.Ey (V/m) @ t=0.98
0.2078155492838416
% es.Ez (V/m) @ t=0.98
1.3341797327152305
% es.tEx (V/m) @ t=0.98
3.3002610515717805
% es.tEy (V/m) @ t=0.98
0
% es.tEz (V/m) @ t=0.98
1.3341797327152376
% V (V) @ t=0.98
0.017813339033260756
% es.normE (V/m) @ t=1
3.602353303863289
% es.EX (V/m) @ t=1
3.329043536861226
% es.EY (V/m) @ t=1
0.20962744370885944
% es.EZ (V/m) @ t=1
1.345815085988609
% es.tEX (V/m) @ t=1
3.329043536861219
% es.tEY (V/m) @ t=1
0
% es.tEZ (V/m) @ t=1
1.3458150859886109
% es.Ex (V/m) @ t=1
3.329043536861226
% es.Ey (V/m) @ t=1
0.20962744370885944
% es.Ez (V/m) @ t=1
1.345815085988609
% es.tEx (V/m) @ t=1
3.329043536861219
% es.tEy (V/m) @ t=1
0
% es.tEz (V/m) @ t=1
1.3458150859886109
% V (V) @ t=1
0.01796871410015703
% es.normE (V/m) @ t=1.02
3.633498644086716
% es.EX (V/m) @ t=1.02
3.3578260221506637
% es.EY (V/m) @ t=1.02
0.21143933813389193
% es.EZ (V/m) @ t=1.02
1.3574504392619877
% es.tEX (V/m) @ t=1.02
3.3578260221506415
% es.tEY (V/m) @ t=1.02
0
% es.tEZ (V/m) @ t=1.02
1.3574504392619913
% es.Ex (V/m) @ t=1.02
3.3578260221506637
% es.Ey (V/m) @ t=1.02
0.21143933813389193
% es.Ez (V/m) @ t=1.02
1.3574504392619877
% es.tEx (V/m) @ t=1.02
3.3578260221506415
% es.tEy (V/m) @ t=1.02
0
% es.tEz (V/m) @ t=1.02
1.3574504392619913
% V (V) @ t=1.02
0.018124089167053305
% es.normE (V/m) @ t=1.04
3.6657330448680705
% es.EX (V/m) @ t=1.04
3.3876149434672245
% es.EY (V/m) @ t=1.04
0.21331459826035593
% es.EZ (V/m) @ t=1.04
1.3694926526422635
% es.tEX (V/m) @ t=1.04
3.387614943467213
% es.tEY (V/m) @ t=1.04
0
% es.tEZ (V/m) @ t=1.04
1.369492652642264
% es.Ex (V/m) @ t=1.04
3.3876149434672245
% es.Ey (V/m) @ t=1.04
0.21331459826035593
% es.Ez (V/m) @ t=1.04
1.3694926526422635
% es.tEx (V/m) @ t=1.04
3.387614943467213
% es.tEy (V/m) @ t=1.04
0
% es.tEz (V/m) @ t=1.04
1.369492652642264
% V (V) @ t=1.04