% Model:              1 neuron.mph
% Version:            COMSOL 6.1.0.252
% Date:               Mar 22 2023, 19:39
% Dimension:          0
% Nodes:              14017
% Expressions:        14017
% Description:        Electric field norm, Electric field, X component, Electric field, Y component, Electric field, Z component, Tangential electric field, X component, Tangential electric field, Y component, Tangential electric field, Z component, Electric field, x component, Electric field, y component, Electric field, z component, Tangential electric field, x component, Tangential electric field, y component, Tangential electric field, z component, Electric potential
% Length unit:        mm
% x
1.66
% y
12.2
% z
1.33
% es.normE (V/m) @ t=0
13.870631885445036
% es.EX (V/m) @ t=0
-7.707084282058968
% es.EY (V/m) @ t=0
-0.8319129277511976
% es.EZ (V/m) @ t=0
10.319734037619009
% es.tEX (V/m) @ t=0
-7.707084282058988
% es.tEY (V/m) @ t=0
0
% es.tEZ (V/m) @ t=0
10.319734037619
% es.Ex (V/m) @ t=0
-7.707084282058968
% es.Ey (V/m) @ t=0
-0.8319129277511976
% es.Ez (V/m) @ t=0
10.319734037619009
% es.tEx (V/m) @ t=0
-7.707084282058988
% es.tEy (V/m) @ t=0
0
% es.tEz (V/m) @ t=0
10.319734037619
% V (V) @ t=0
0.011391465553959553
% es.normE (V/m) @ t=0.02
11.980231071367044
% es.EX (V/m) @ t=0.02
-6.656701108662349
% es.EY (V/m) @ t=0.02
-0.7185331661923497
% es.EZ (V/m) @ t=0.02
8.913278023008463
% es.tEX (V/m) @ t=0.02
-6.656701108662359
% es.tEY (V/m) @ t=0.02
0
% es.tEZ (V/m) @ t=0.02
8.913278023008443
% es.Ex (V/m) @ t=0.02
-6.656701108662349
% es.Ey (V/m) @ t=0.02
-0.7185331661923497
% es.Ez (V/m) @ t=0.02
8.913278023008463
% es.tEx (V/m) @ t=0.02
-6.656701108662359
% es.tEy (V/m) @ t=0.02
0
% es.tEz (V/m) @ t=0.02
8.913278023008443
% V (V) @ t=0.02
0.009838945375195857
% es.normE (V/m) @ t=0.04
12.090466523130186
% es.EX (V/m) @ t=0.04
-6.717952408837401
% es.EY (V/m) @ t=0.04
-0.7251446889895132
% es.EZ (V/m) @ t=0.04
8.995293065489072
% es.tEX (V/m) @ t=0.04
-6.717952408837414
% es.tEY (V/m) @ t=0.04
0
% es.tEZ (V/m) @ t=0.04
8.995293065489058
% es.Ex (V/m) @ t=0.04
-6.717952408837401
% es.Ey (V/m) @ t=0.04
-0.7251446889895132
% es.Ez (V/m) @ t=0.04
8.995293065489072
% es.tEx (V/m) @ t=0.04
-6.717952408837414
% es.tEy (V/m) @ t=0.04
0
% es.tEz (V/m) @ t=0.04
8.995293065489058
% V (V) @ t=0.04
0.009929477852505373
% es.normE (V/m) @ t=0.06
12.201492522637125
% es.EX (V/m) @ t=0.06
-6.779642969841239
% es.EY (V/m) @ t=0.06
-0.7318036256730824
% es.EZ (V/m) @ t=0.06
9.077896274364255
% es.tEX (V/m) @ t=0.06
-6.779642969841252
% es.tEY (V/m) @ t=0.06
0
% es.tEZ (V/m) @ t=0.06
9.077896274364239
% es.Ex (V/m) @ t=0.06
-6.779642969841239
% es.Ey (V/m) @ t=0.06
-0.7318036256730824
% es.Ez (V/m) @ t=0.06
9.077896274364255
% es.tEx (V/m) @ t=0.06
-6.779642969841252
% es.tEy (V/m) @ t=0.06
0
% es.tEz (V/m) @ t=0.06
9.077896274364239
% V (V) @ t=0.06
0.010020659578026376
% es.normE (V/m) @ t=0.08
12.314675407679985
% es.EX (V/m) @ t=0.08
-6.842531949697137
% es.EY (V/m) @ t=0.08
-0.7385919566956156
% es.EZ (V/m) @ t=0.08
9.162104212218235
% es.tEX (V/m) @ t=0.08
-6.842531949697147
% es.tEY (V/m) @ t=0.08
0
% es.tEZ (V/m) @ t=0.08
9.162104212218221
% es.Ex (V/m) @ t=0.08
-6.842531949697137
% es.Ey (V/m) @ t=0.08
-0.7385919566956156
% es.Ez (V/m) @ t=0.08
9.162104212218235
% es.tEx (V/m) @ t=0.08
-6.842531949697147
% es.tEy (V/m) @ t=0.08
0
% es.tEz (V/m) @ t=0.08
9.162104212218221
% V (V) @ t=0.08
0.01011361275116588
% es.normE (V/m) @ t=0.1
12.428393460862075
% es.EX (V/m) @ t=0.1
-6.905718282183193
% es.EY (V/m) @ t=0.1
-0.7454123931434977
% es.EZ (V/m) @ t=0.1
9.246710316691313
% es.tEX (V/m) @ t=0.1
-6.905718282183205
% es.tEY (V/m) @ t=0.1
0
% es.tEZ (V/m) @ t=0.1
9.246710316691304
% es.Ex (V/m) @ t=0.1
-6.905718282183193
% es.Ey (V/m) @ t=0.1
-0.7454123931434977
% es.Ez (V/m) @ t=0.1
9.246710316691313
% es.tEx (V/m) @ t=0.1
-6.905718282183205
% es.tEy (V/m) @ t=0.1
0
% es.tEz (V/m) @ t=0.1
9.246710316691304
% V (V) @ t=0.1
0.010207005457284719
% es.normE (V/m) @ t=0.12
12.542111514044102
% es.EX (V/m) @ t=0.12
-6.968904614669254
% es.EY (V/m) @ t=0.12
-0.7522328295913652
% es.EZ (V/m) @ t=0.12
9.33131642116433
% es.tEX (V/m) @ t=0.12
-6.968904614669258
% es.tEY (V/m) @ t=0.12
0
% es.tEZ (V/m) @ t=0.12
9.331316421164331
% es.Ex (V/m) @ t=0.12
-6.968904614669254
% es.Ey (V/m) @ t=0.12
-0.7522328295913652
% es.Ez (V/m) @ t=0.12
9.33131642116433
% es.tEx (V/m) @ t=0.12
-6.968904614669258
% es.tEy (V/m) @ t=0.12
0
% es.tEz (V/m) @ t=0.12
9.331316421164331
% V (V) @ t=0.12
0.010300398163403555
% es.normE (V/m) @ t=0.14
12.659284044651885
% es.EX (V/m) @ t=0.14
-7.034010423716079
% es.EY (V/m) @ t=0.14
-0.7592604264670113
% es.EZ (V/m) @ t=0.14
9.418492645556993
% es.tEX (V/m) @ t=0.14
-7.034010423716108
% es.tEY (V/m) @ t=0.14
0
% es.tEZ (V/m) @ t=0.14
9.41849264555698
% es.Ex (V/m) @ t=0.14
-7.034010423716079
% es.Ey (V/m) @ t=0.14
-0.7592604264670113
% es.Ez (V/m) @ t=0.14
9.418492645556993
% es.tEx (V/m) @ t=0.14
-7.034010423716108
% es.tEy (V/m) @ t=0.14
0
% es.tEz (V/m) @ t=0.14
9.41849264555698
% V (V) @ t=0.14
0.010396627848599727
% es.normE (V/m) @ t=0.16
12.778677787880186
% es.EX (V/m) @ t=0.16
-7.100350447098744
% es.EY (V/m) @ t=0.16
-0.7664212265163242
% es.EZ (V/m) @ t=0.16
9.507321444883035
% es.tEX (V/m) @ t=0.16
-7.100350447098743
% es.tEY (V/m) @ t=0.16
0
% es.tEZ (V/m) @ t=0.16
9.507321444883017
% es.Ex (V/m) @ t=0.16
-7.100350447098744
% es.Ey (V/m) @ t=0.16
-0.7664212265163242
% es.Ez (V/m) @ t=0.16
9.507321444883035
% es.tEx (V/m) @ t=0.16
-7.100350447098743
% es.tEy (V/m) @ t=0.16
0
% es.tEz (V/m) @ t=0.16
9.507321444883017
% V (V) @ t=0.16
0.010494681697903609
% es.normE (V/m) @ t=0.18
12.898071531108506
% es.EX (V/m) @ t=0.18
-7.166690470481438
% es.EY (V/m) @ t=0.18
-0.7735820265656517
% es.EZ (V/m) @ t=0.18
9.59615024420908
% es.tEX (V/m) @ t=0.18
-7.166690470481436
% es.tEY (V/m) @ t=0.18
0
% es.tEZ (V/m) @ t=0.18
9.596150244209074
% es.Ex (V/m) @ t=0.18
-7.166690470481438
% es.Ey (V/m) @ t=0.18
-0.7735820265656517
% es.Ez (V/m) @ t=0.18
9.59615024420908
% es.tEx (V/m) @ t=0.18
-7.166690470481436
% es.tEy (V/m) @ t=0.18
0
% es.tEz (V/m) @ t=0.18
9.596150244209074
% V (V) @ t=0.18
0.010592735547207492
% es.normE (V/m) @ t=0.2
13.017465274336825
% es.EX (V/m) @ t=0.2
-7.23303049386411
% es.EY (V/m) @ t=0.2
-0.7807428266149734
% es.EZ (V/m) @ t=0.2
9.684979043535163
% es.tEX (V/m) @ t=0.2
-7.233030493864129
% es.tEY (V/m) @ t=0.2
0
% es.tEZ (V/m) @ t=0.2
9.684979043535158
% es.Ex (V/m) @ t=0.2
-7.23303049386411
% es.Ey (V/m) @ t=0.2
-0.7807428266149734
% es.Ez (V/m) @ t=0.2
9.684979043535163
% es.tEx (V/m) @ t=0.2
-7.233030493864129
% es.tEy (V/m) @ t=0.2
0
% es.tEz (V/m) @ t=0.2
9.684979043535158
% V (V) @ t=0.2
0.010690789396511378
% es.normE (V/m) @ t=0.22
13.136859017565143
% es.EX (V/m) @ t=0.22
-7.299370517246766
% es.EY (V/m) @ t=0.22
-0.7879036266642956
% es.EZ (V/m) @ t=0.22
9.77380784286123
% es.tEX (V/m) @ t=0.22
-7.299370517246778
% es.tEY (V/m) @ t=0.22
0
% es.tEZ (V/m) @ t=0.22
9.77380784286122
% es.Ex (V/m) @ t=0.22
-7.299370517246766
% es.Ey (V/m) @ t=0.22
-0.7879036266642956
% es.Ez (V/m) @ t=0.22
9.77380784286123
% es.tEx (V/m) @ t=0.22
-7.299370517246778
% es.tEy (V/m) @ t=0.22
0
% es.tEz (V/m) @ t=0.22
9.77380784286122
% V (V) @ t=0.22
0.010788843245815258
% es.normE (V/m) @ t=0.24
13.256252760793462
% es.EX (V/m) @ t=0.24
-7.365710540629459
% es.EY (V/m) @ t=0.24
-0.7950644267136142
% es.EZ (V/m) @ t=0.24
9.862636642187285
% es.tEX (V/m) @ t=0.24
-7.365710540629479
% es.tEY (V/m) @ t=0.24
0
% es.tEZ (V/m) @ t=0.24
9.862636642187269
% es.Ex (V/m) @ t=0.24
-7.365710540629459
% es.Ey (V/m) @ t=0.24
-0.7950644267136142
% es.Ez (V/m) @ t=0.24
9.862636642187285
% es.tEx (V/m) @ t=0.24
-7.365710540629479
% es.tEy (V/m) @ t=0.24
0
% es.tEz (V/m) @ t=0.24
9.862636642187269
% V (V) @ t=0.24
0.010886897095119143
% es.normE (V/m) @ t=0.26
13.378478668857767
% es.EX (V/m) @ t=0.26
-7.43362420971248
% es.EY (V/m) @ t=0.26
-0.8023951086498595
% es.EZ (V/m) @ t=0.26
9.953572573799844
% es.tEX (V/m) @ t=0.26
-7.433624209712493
% es.tEY (V/m) @ t=0.26
0
% es.tEZ (V/m) @ t=0.26
9.953572573799825
% es.Ex (V/m) @ t=0.26
-7.43362420971248
% es.Ey (V/m) @ t=0.26
-0.8023951086498595
% es.Ez (V/m) @ t=0.26
9.953572573799844
% es.tEx (V/m) @ t=0.26
-7.433624209712493
% es.tEy (V/m) @ t=0.26
0
% es.tEz (V/m) @ t=0.26
9.953572573799825
% V (V) @ t=0.26
0.010987276944713449
% es.normE (V/m) @ t=0.28
13.510542905471096
% es.EX (V/m) @ t=0.28
-7.507004383860101
% es.EY (V/m) @ t=0.28
-0.810315923546165
% es.EZ (V/m) @ t=0.28
10.0518282275795
% es.tEX (V/m) @ t=0.28
-7.507004383860128
% es.tEY (V/m) @ t=0.28
0
% es.tEZ (V/m) @ t=0.28
10.05182822757948
% es.Ex (V/m) @ t=0.28
-7.507004383860101
% es.Ey (V/m) @ t=0.28
-0.810315923546165
% es.Ez (V/m) @ t=0.28
10.0518282275795
% es.tEx (V/m) @ t=0.28
-7.507004383860128
% es.tEy (V/m) @ t=0.28
0
% es.tEz (V/m) @ t=0.28
10.05182822757948
% V (V) @ t=0.28
0.01109573681661841
% es.normE (V/m) @ t=0.3
13.642607142084433
% es.EX (V/m) @ t=0.3
-7.58038455800771
% es.EY (V/m) @ t=0.3
-0.818236738442482
% es.EZ (V/m) @ t=0.3
10.15008388135916
% es.tEX (V/m) @ t=0.3
-7.580384558007738
% es.tEY (V/m) @ t=0.3
0
% es.tEZ (V/m) @ t=0.3
10.150083881359155
% es.Ex (V/m) @ t=0.3
-7.58038455800771
% es.Ey (V/m) @ t=0.3
-0.818236738442482
% es.Ez (V/m) @ t=0.3
10.15008388135916
% es.tEx (V/m) @ t=0.3
-7.580384558007738
% es.tEy (V/m) @ t=0.3
0
% es.tEz (V/m) @ t=0.3
10.150083881359155
% V (V) @ t=0.3
0.011204196688523373
% es.normE (V/m) @ t=0.32
13.774671378697786
% es.EX (V/m) @ t=0.32
-7.653764732155352
% es.EY (V/m) @ t=0.32
-0.8261575533388097
% es.EZ (V/m) @ t=0.32
10.248339535138829
% es.tEX (V/m) @ t=0.32
-7.653764732155365
% es.tEY (V/m) @ t=0.32
0
% es.tEZ (V/m) @ t=0.32
10.248339535138824
% es.Ex (V/m) @ t=0.32
-7.653764732155352
% es.Ey (V/m) @ t=0.32
-0.8261575533388097
% es.Ez (V/m) @ t=0.32
10.248339535138829
% es.tEx (V/m) @ t=0.32
-7.653764732155365
% es.tEy (V/m) @ t=0.32
0
% es.tEz (V/m) @ t=0.32
10.248339535138824
% V (V) @ t=0.32
0.011312656560428338
% es.normE (V/m) @ t=0.34
13.906735615311113
% es.EX (V/m) @ t=0.34
-7.727144906302955
% es.EY (V/m) @ t=0.34
-0.8340783682350947
% es.EZ (V/m) @ t=0.34
10.346595188918505
% es.tEX (V/m) @ t=0.34
-7.727144906302968
% es.tEY (V/m) @ t=0.34
0
% es.tEZ (V/m) @ t=0.34
10.346595188918496
% es.Ex (V/m) @ t=0.34
-7.727144906302955
% es.Ey (V/m) @ t=0.34
-0.8340783682350947
% es.Ez (V/m) @ t=0.34
10.346595188918505
% es.tEx (V/m) @ t=0.34
-7.727144906302968
% es.tEy (V/m) @ t=0.34
0
% es.tEz (V/m) @ t=0.34
10.346595188918496
% V (V) @ t=0.34
0.011421116432333303
% es.normE (V/m) @ t=0.36
14.038799851924452
% es.EX (V/m) @ t=0.36
-7.80052508045056
% es.EY (V/m) @ t=0.36
-0.8419991831314078
% es.EZ (V/m) @ t=0.36
10.444850842698155
% es.tEX (V/m) @ t=0.36
-7.80052508045058
% es.tEY (V/m) @ t=0.36
0
% es.tEZ (V/m) @ t=0.36
10.444850842698148
% es.Ex (V/m) @ t=0.36
-7.80052508045056
% es.Ey (V/m) @ t=0.36
-0.8419991831314078
% es.Ez (V/m) @ t=0.36
10.444850842698155
% es.tEx (V/m) @ t=0.36
-7.80052508045058
% es.tEy (V/m) @ t=0.36
0
% es.tEz (V/m) @ t=0.36
10.444850842698148
% V (V) @ t=0.36
0.011529576304238268
% es.normE (V/m) @ t=0.38
14.170864088537801
% es.EX (V/m) @ t=0.38
-7.873905254598194
% es.EY (V/m) @ t=0.38
-0.849919998027703
% es.EZ (V/m) @ t=0.38
10.543106496477835
% es.tEX (V/m) @ t=0.38
-7.873905254598199
% es.tEY (V/m) @ t=0.38
0
% es.tEZ (V/m) @ t=0.38
10.543106496477819
% es.Ex (V/m) @ t=0.38
-7.873905254598194
% es.Ey (V/m) @ t=0.38
-0.849919998027703
% es.Ez (V/m) @ t=0.38
10.543106496477835
% es.tEx (V/m) @ t=0.38
-7.873905254598199
% es.tEy (V/m) @ t=0.38
0
% es.tEz (V/m) @ t=0.38
10.543106496477819
% V (V) @ t=0.38
0.011638036176143235
% es.normE (V/m) @ t=0.4
14.302928325151129
% es.EX (V/m) @ t=0.4
-7.94728542874582
% es.EY (V/m) @ t=0.4
-0.8578408129240307
% es.EZ (V/m) @ t=0.4
10.641362150257468
% es.tEX (V/m) @ t=0.4
-7.947285428745825
% es.tEY (V/m) @ t=0.4
0
% es.tEZ (V/m) @ t=0.4
10.641362150257446
% es.Ex (V/m) @ t=0.4
-7.94728542874582
% es.Ey (V/m) @ t=0.4
-0.8578408129240307
% es.Ez (V/m) @ t=0.4
10.641362150257468
% es.tEx (V/m) @ t=0.4
-7.947285428745825
% es.tEy (V/m) @ t=0.4
0
% es.tEz (V/m) @ t=0.4
10.641362150257446
% V (V) @ t=0.4
0.011746496048048194
% es.normE (V/m) @ t=0.42
14.43499256176448
% es.EX (V/m) @ t=0.42
-8.020665602893425
% es.EY (V/m) @ t=0.42
-0.8657616278203615
% es.EZ (V/m) @ t=0.42
10.739617804037147
% es.tEX (V/m) @ t=0.42
-8.02066560289343
% es.tEY (V/m) @ t=0.42
0
% es.tEZ (V/m) @ t=0.42
10.739617804037131
% es.Ex (V/m) @ t=0.42
-8.020665602893425
% es.Ey (V/m) @ t=0.42
-0.8657616278203615
% es.Ez (V/m) @ t=0.42
10.739617804037147
% es.tEx (V/m) @ t=0.42
-8.02066560289343
% es.tEy (V/m) @ t=0.42
0
% es.tEz (V/m) @ t=0.42
10.739617804037131
% V (V) @ t=0.42
0.01185495591995316
% es.normE (V/m) @ t=0.44
14.56705679837781
% es.EX (V/m) @ t=0.44
-8.094045777041043
% es.EY (V/m) @ t=0.44
-0.8736824427166714
% es.EZ (V/m) @ t=0.44
10.837873457816798
% es.tEX (V/m) @ t=0.44
-8.094045777041062
% es.tEY (V/m) @ t=0.44
0
% es.tEZ (V/m) @ t=0.44
10.83787345781679
% es.Ex (V/m) @ t=0.44
-8.094045777041043
% es.Ey (V/m) @ t=0.44
-0.8736824427166714
% es.Ez (V/m) @ t=0.44
10.837873457816798
% es.tEx (V/m) @ t=0.44
-8.094045777041062
% es.tEy (V/m) @ t=0.44
0
% es.tEz (V/m) @ t=0.44
10.83787345781679
% V (V) @ t=0.44
0.011963415791858124
% es.normE (V/m) @ t=0.46
14.69912103499117
% es.EX (V/m) @ t=0.46
-8.167425951188655
% es.EY (V/m) @ t=0.46
-0.8816032576129738
% es.EZ (V/m) @ t=0.46
10.936129111596486
% es.tEX (V/m) @ t=0.46
-8.167425951188683
% es.tEY (V/m) @ t=0.46
0
% es.tEZ (V/m) @ t=0.46
10.936129111596474
% es.Ex (V/m) @ t=0.46
-8.167425951188655
% es.Ey (V/m) @ t=0.46
-0.8816032576129738
% es.Ez (V/m) @ t=0.46
10.936129111596486
% es.tEx (V/m) @ t=0.46
-8.167425951188683
% es.tEy (V/m) @ t=0.46
0
% es.tEz (V/m) @ t=0.46
10.936129111596474
% V (V) @ t=0.46
0.012071875663763087
% es.normE (V/m) @ t=0.48
14.83118527160448
% es.EX (V/m) @ t=0.48
-8.240806125336293
% es.EY (V/m) @ t=0.48
-0.8895240725092624
% es.EZ (V/m) @ t=0.48
11.034384765376117
% es.tEX (V/m) @ t=0.48
-8.240806125336306
% es.tEY (V/m) @ t=0.48
0
% es.tEZ (V/m) @ t=0.48
11.034384765376103
% es.Ex (V/m) @ t=0.48
-8.240806125336293
% es.Ey (V/m) @ t=0.48
-0.8895240725092624
% es.Ez (V/m) @ t=0.48
11.034384765376117
% es.tEx (V/m) @ t=0.48
-8.240806125336306
% es.tEy (V/m) @ t=0.48
0
% es.tEz (V/m) @ t=0.48
11.034384765376103
% V (V) @ t=0.48
0.01218033553566805
% es.normE (V/m) @ t=0.5
14.963249508217848
% es.EX (V/m) @ t=0.5
-8.314186299483913
% es.EY (V/m) @ t=0.5
-0.8974448874056042
% es.EZ (V/m) @ t=0.5
11.132640419155793
% es.tEX (V/m) @ t=0.5
-8.314186299483927
% es.tEY (V/m) @ t=0.5
0
% es.tEZ (V/m) @ t=0.5
11.132640419155779
% es.Ex (V/m) @ t=0.5
-8.314186299483913
% es.Ey (V/m) @ t=0.5
-0.8974448874056042
% es.Ez (V/m) @ t=0.5
11.132640419155793
% es.tEx (V/m) @ t=0.5
-8.314186299483927
% es.tEy (V/m) @ t=0.5
0
% es.tEz (V/m) @ t=0.5
11.132640419155779
% V (V) @ t=0.5
0.012288795407573015
% es.normE (V/m) @ t=0.52
15.10176903654229
% es.EX (V/m) @ t=0.52
-8.391153321668803
% es.EY (V/m) @ t=0.52
-0.9057528436312188
% es.EZ (V/m) @ t=0.52
11.235698795733999
% es.tEX (V/m) @ t=0.52
-8.391153321668837
% es.tEY (V/m) @ t=0.52
0
% es.tEZ (V/m) @ t=0.52
11.235698795733992
% es.Ex (V/m) @ t=0.52
-8.391153321668803
% es.Ey (V/m) @ t=0.52
-0.9057528436312188
% es.Ez (V/m) @ t=0.52
11.235698795733999
% es.tEx (V/m) @ t=0.52
-8.391153321668837
% es.tEy (V/m) @ t=0.52
0
% es.tEz (V/m) @ t=0.52
11.235698795733992
% V (V) @ t=0.52
0.012402556727710075
% es.normE (V/m) @ t=0.54
15.248074426547431
% es.EX (V/m) @ t=0.54
-8.47244651592115
% es.EY (V/m) @ t=0.54
-0.9145277390713789
% es.EZ (V/m) @ t=0.54
11.344549836234068
% es.tEX (V/m) @ t=0.54
-8.472446515921156
% es.tEY (V/m) @ t=0.54
0
% es.tEZ (V/m) @ t=0.54
11.344549836234053
% es.Ex (V/m) @ t=0.54
-8.47244651592115
% es.Ey (V/m) @ t=0.54
-0.9145277390713789
% es.Ez (V/m) @ t=0.54
11.344549836234068
% es.tEx (V/m) @ t=0.54
-8.472446515921156
% es.tEy (V/m) @ t=0.54
0
% es.tEz (V/m) @ t=0.54
11.344549836234053
% V (V) @ t=0.54
0.012522712234893915
% es.normE (V/m) @ t=0.56
15.394379816552544
% es.EX (V/m) @ t=0.56
-8.553739710173518
% es.EY (V/m) @ t=0.56
-0.9233026345115172
% es.EZ (V/m) @ t=0.56
11.453400876734095
% es.tEX (V/m) @ t=0.56
-8.553739710173524
% es.tEY (V/m) @ t=0.56
0
% es.tEZ (V/m) @ t=0.56
11.453400876734085
% es.Ex (V/m) @ t=0.56
-8.553739710173518
% es.Ey (V/m) @ t=0.56
-0.9233026345115172
% es.Ez (V/m) @ t=0.56
11.453400876734095
% es.tEx (V/m) @ t=0.56
-8.553739710173524
% es.tEy (V/m) @ t=0.56
0
% es.tEz (V/m) @ t=0.56
11.453400876734085
% V (V) @ t=0.56
0.012642867742077754
% es.normE (V/m) @ t=0.58
15.540685206557654
% es.EX (V/m) @ t=0.58
-8.635032904425845
% es.EY (V/m) @ t=0.58
-0.9320775299516417
% es.EZ (V/m) @ t=0.58
11.562251917234157
% es.tEX (V/m) @ t=0.58
-8.635032904425872
% es.tEY (V/m) @ t=0.58
0
% es.tEZ (V/m) @ t=0.58
11.562251917234143
% es.Ex (V/m) @ t=0.58
-8.635032904425845
% es.Ey (V/m) @ t=0.58
-0.9320775299516417
% es.Ez (V/m) @ t=0.58
11.562251917234157
% es.tEx (V/m) @ t=0.58
-8.635032904425872
% es.tEy (V/m) @ t=0.58
0
% es.tEz (V/m) @ t=0.58
11.562251917234143
% V (V) @ t=0.58
0.012763023249261594
% es.normE (V/m) @ t=0.6
15.686990596562769
% es.EX (V/m) @ t=0.6
-8.716326098678206
% es.EY (V/m) @ t=0.6
-0.9408524253918409
% es.EZ (V/m) @ t=0.6
11.671102957734195
% es.tEX (V/m) @ t=0.6
-8.716326098678211
% es.tEY (V/m) @ t=0.6
0
% es.tEZ (V/m) @ t=0.6
11.671102957734178
% es.Ex (V/m) @ t=0.6
-8.716326098678206
% es.Ey (V/m) @ t=0.6
-0.9408524253918409
% es.Ez (V/m) @ t=0.6
11.671102957734195
% es.tEx (V/m) @ t=0.6
-8.716326098678211
% es.tEy (V/m) @ t=0.6
0
% es.tEz (V/m) @ t=0.6
11.671102957734178
% V (V) @ t=0.6
0.012883178756445433
% es.normE (V/m) @ t=0.62
15.83329598656788
% es.EX (V/m) @ t=0.62
-8.797619292930547
% es.EY (V/m) @ t=0.62
-0.9496273208319086
% es.EZ (V/m) @ t=0.62
11.779953998234262
% es.tEX (V/m) @ t=0.62
-8.797619292930573
% es.tEY (V/m) @ t=0.62
0
% es.tEZ (V/m) @ t=0.62
11.779953998234234
% es.Ex (V/m) @ t=0.62
-8.797619292930547
% es.Ey (V/m) @ t=0.62
-0.9496273208319086
% es.Ez (V/m) @ t=0.62
11.779953998234262
% es.tEx (V/m) @ t=0.62
-8.797619292930573
% es.tEy (V/m) @ t=0.62
0
% es.tEz (V/m) @ t=0.62
11.779953998234234
% V (V) @ t=0.62
0.013003334263629273
% es.normE (V/m) @ t=0.64
15.979601376572997
% es.EX (V/m) @ t=0.64
-8.8789124871829
% es.EY (V/m) @ t=0.64
-0.9584022162720904
% es.EZ (V/m) @ t=0.64
11.888805038734297
% es.tEX (V/m) @ t=0.64
-8.878912487182912
% es.tEY (V/m) @ t=0.64
0
% es.tEZ (V/m) @ t=0.64
11.888805038734276
% es.Ex (V/m) @ t=0.64
-8.8789124871829
% es.Ey (V/m) @ t=0.64
-0.9584022162720904
% es.Ez (V/m) @ t=0.64
11.888805038734297
% es.tEx (V/m) @ t=0.64
-8.878912487182912
% es.tEy (V/m) @ t=0.64
0
% es.tEz (V/m) @ t=0.64
11.888805038734276
% V (V) @ t=0.64
0.013123489770813113
% es.normE (V/m) @ t=0.66
16.12590676657815
% es.EX (V/m) @ t=0.66
-8.960205681435262
% es.EY (V/m) @ t=0.66
-0.9671771117122181
% es.EZ (V/m) @ t=0.66
11.997656079234371
% es.tEX (V/m) @ t=0.66
-8.960205681435275
% es.tEY (V/m) @ t=0.66
0
% es.tEZ (V/m) @ t=0.66
11.997656079234355
% es.Ex (V/m) @ t=0.66
-8.960205681435262
% es.Ey (V/m) @ t=0.66
-0.9671771117122181
% es.Ez (V/m) @ t=0.66
11.997656079234371
% es.tEx (V/m) @ t=0.66
-8.960205681435275
% es.tEy (V/m) @ t=0.66
0
% es.tEz (V/m) @ t=0.66
11.997656079234355
% V (V) @ t=0.66
0.013243645277996954
% es.normE (V/m) @ t=0.68
16.272212156583258
% es.EX (V/m) @ t=0.68
-9.041498875687624
% es.EY (V/m) @ t=0.68
-0.9759520071523498
% es.EZ (V/m) @ t=0.68
12.106507119734417
% es.tEX (V/m) @ t=0.68
-9.04149887568763
% es.tEY (V/m) @ t=0.68
0
% es.tEZ (V/m) @ t=0.68
12.106507119734403
% es.Ex (V/m) @ t=0.68
-9.041498875687624
% es.Ey (V/m) @ t=0.68
-0.9759520071523498
% es.Ez (V/m) @ t=0.68
12.106507119734417
% es.tEx (V/m) @ t=0.68
-9.04149887568763
% es.tEy (V/m) @ t=0.68
0
% es.tEz (V/m) @ t=0.68
12.106507119734403
% V (V) @ t=0.68
0.013363800785180794
% es.normE (V/m) @ t=0.7
16.41851754658839
% es.EX (V/m) @ t=0.7
-9.122792069939976
% es.EY (V/m) @ t=0.7
-0.9847269025924774
% es.EZ (V/m) @ t=0.7
12.215358160234477
% es.tEX (V/m) @ t=0.7
-9.122792069939981
% es.tEY (V/m) @ t=0.7
0
% es.tEZ (V/m) @ t=0.7
12.215358160234459
% es.Ex (V/m) @ t=0.7
-9.122792069939976
% es.Ey (V/m) @ t=0.7
-0.9847269025924774
% es.Ez (V/m) @ t=0.7
12.215358160234477
% es.tEx (V/m) @ t=0.7
-9.122792069939981
% es.tEy (V/m) @ t=0.7
0
% es.tEz (V/m) @ t=0.7
12.215358160234459
% V (V) @ t=0.7
0.01348395629236463
% es.normE (V/m) @ t=0.72
16.564822936593494
% es.EX (V/m) @ t=0.72
-9.204085264192317
% es.EY (V/m) @ t=0.72
-0.9935017980326268
% es.EZ (V/m) @ t=0.72
12.32420920073452
% es.tEX (V/m) @ t=0.72
-9.20408526419233
% es.tEY (V/m) @ t=0.72
0
% es.tEZ (V/m) @ t=0.72
12.324209200734522
% es.Ex (V/m) @ t=0.72
-9.204085264192317
% es.Ey (V/m) @ t=0.72
-0.9935017980326268
% es.Ez (V/m) @ t=0.72
12.32420920073452
% es.tEx (V/m) @ t=0.72
-9.20408526419233
% es.tEy (V/m) @ t=0.72
0
% es.tEz (V/m) @ t=0.72
12.324209200734522
% V (V) @ t=0.72
0.013604111799548471
% es.normE (V/m) @ t=0.74
16.711128326598605
% es.EX (V/m) @ t=0.74
-9.285378458444663
% es.EY (V/m) @ t=0.74
-1.0022766934727514
% es.EZ (V/m) @ t=0.74
12.433060241234555
% es.tEX (V/m) @ t=0.74
-9.285378458444676
% es.tEY (V/m) @ t=0.74
0
% es.tEZ (V/m) @ t=0.74
12.43306024123455
% es.Ex (V/m) @ t=0.74
-9.285378458444663
% es.Ey (V/m) @ t=0.74
-1.0022766934727514
% es.Ez (V/m) @ t=0.74
12.433060241234555
% es.tEx (V/m) @ t=0.74
-9.285378458444676
% es.tEy (V/m) @ t=0.74
0
% es.tEz (V/m) @ t=0.74
12.43306024123455
% V (V) @ t=0.74
0.013724267306732308
% es.normE (V/m) @ t=0.76
16.857433716603715
% es.EX (V/m) @ t=0.76
-9.366671652697011
% es.EY (V/m) @ t=0.76
-1.0110515889129363
% es.EZ (V/m) @ t=0.76
12.5419112817346
% es.tEX (V/m) @ t=0.76
-9.36667165269703
% es.tEY (V/m) @ t=0.76
0
% es.tEZ (V/m) @ t=0.76
12.541911281734585
% es.Ex (V/m) @ t=0.76
-9.366671652697011
% es.Ey (V/m) @ t=0.76
-1.0110515889129363
% es.Ez (V/m) @ t=0.76
12.5419112817346
% es.tEx (V/m) @ t=0.76
-9.36667165269703
% es.tEy (V/m) @ t=0.76
0
% es.tEz (V/m) @ t=0.76
12.541911281734585
% V (V) @ t=0.76
0.01384442281391615
% es.normE (V/m) @ t=0.78
17.01469159355318
% es.EX (V/m) @ t=0.78
-9.454050495239748
% es.EY (V/m) @ t=0.78
-1.0204833737861447
% es.EZ (V/m) @ t=0.78
12.658910958961393
% es.tEX (V/m) @ t=0.78
-9.454050495239754
% es.tEY (V/m) @ t=0.78
0
% es.tEZ (V/m) @ t=0.78
12.658910958961382
% es.Ex (V/m) @ t=0.78
-9.454050495239748
% es.Ey (V/m) @ t=0.78
-1.0204833737861447
% es.Ez (V/m) @ t=0.78
12.658910958961393
% es.tEx (V/m) @ t=0.78
-9.454050495239754
% es.tEy (V/m) @ t=0.78
0
% es.tEz (V/m) @ t=0.78
12.658910958961382
% V (V) @ t=0.78
0.01397357320882866
% es.normE (V/m) @ t=0.8
17.17703179713201
% es.EX (V/m) @ t=0.8
-9.544253285669392
% es.EY (V/m) @ t=0.8
-1.030219977708704
% es.EZ (V/m) @ t=0.8
12.77969188090821
% es.tEX (V/m) @ t=0.8
-9.544253285669397
% es.tEY (V/m) @ t=0.8
0
% es.tEZ (V/m) @ t=0.8
12.77969188090818
% es.Ex (V/m) @ t=0.8
-9.544253285669392
% es.Ey (V/m) @ t=0.8
-1.030219977708704
% es.Ez (V/m) @ t=0.8
12.77969188090821
% es.tEx (V/m) @ t=0.8
-9.544253285669397
% es.tEy (V/m) @ t=0.8
0
% es.tEz (V/m) @ t=0.8
12.77969188090818
% V (V) @ t=0.8
0.014106897537722022
% es.normE (V/m) @ t=0.82
17.339372000710878
% es.EX (V/m) @ t=0.82
-9.634456076099076
% es.EY (V/m) @ t=0.82
-1.0399565816312775
% es.EZ (V/m) @ t=0.82
12.900472802855031
% es.tEX (V/m) @ t=0.82
-9.634456076099095
% es.tEY (V/m) @ t=0.82
0
% es.tEZ (V/m) @ t=0.82
12.900472802855015
% es.Ex (V/m) @ t=0.82
-9.634456076099076
% es.Ey (V/m) @ t=0.82
-1.0399565816312775
% es.Ez (V/m) @ t=0.82
12.900472802855031
% es.tEx (V/m) @ t=0.82
-9.634456076099095
% es.tEy (V/m) @ t=0.82
0
% es.tEz (V/m) @ t=0.82
12.900472802855015
% V (V) @ t=0.82
0.014240221866615374
% es.normE (V/m) @ t=0.84
17.50171220428969
% es.EX (V/m) @ t=0.84
-9.724658866528735
% es.EY (V/m) @ t=0.84
-1.0496931855538545
% es.EZ (V/m) @ t=0.84
13.021253724801834
% es.tEX (V/m) @ t=0.84
-9.724658866528747
% es.tEY (V/m) @ t=0.84
0
% es.tEZ (V/m) @ t=0.84
13.021253724801818
% es.Ex (V/m) @ t=0.84
-9.724658866528735
% es.Ey (V/m) @ t=0.84
-1.0496931855538545
% es.Ez (V/m) @ t=0.84
13.021253724801834
% es.tEx (V/m) @ t=0.84
-9.724658866528747
% es.tEy (V/m) @ t=0.84
0
% es.tEz (V/m) @ t=0.84
13.021253724801818
% V (V) @ t=0.84
0.014373546195508732
% es.normE (V/m) @ t=0.86
17.66405240786854
% es.EX (V/m) @ t=0.86
-9.814861656958412
% es.EY (V/m) @ t=0.86
-1.0594297894764386
% es.EZ (V/m) @ t=0.86
13.142034646748648
% es.tEX (V/m) @ t=0.86
-9.81486165695841
% es.tEY (V/m) @ t=0.86
0
% es.tEZ (V/m) @ t=0.86
13.142034646748632
% es.Ex (V/m) @ t=0.86
-9.814861656958412
% es.Ey (V/m) @ t=0.86
-1.0594297894764386
% es.Ez (V/m) @ t=0.86
13.142034646748648
% es.tEx (V/m) @ t=0.86
-9.81486165695841
% es.tEy (V/m) @ t=0.86
0
% es.tEz (V/m) @ t=0.86
13.142034646748632
% V (V) @ t=0.86
0.01450687052440209
% es.normE (V/m) @ t=0.88
17.826392611447385
% es.EX (V/m) @ t=0.88
-9.905064447388076
% es.EY (V/m) @ t=0.88
-1.0691663933989872
% es.EZ (V/m) @ t=0.88
13.262815568695467
% es.tEX (V/m) @ t=0.88
-9.905064447388096
% es.tEY (V/m) @ t=0.88
0
% es.tEZ (V/m) @ t=0.88
13.262815568695455
% es.Ex (V/m) @ t=0.88
-9.905064447388076
% es.Ey (V/m) @ t=0.88
-1.0691663933989872
% es.Ez (V/m) @ t=0.88
13.262815568695467
% es.tEx (V/m) @ t=0.88
-9.905064447388096
% es.tEy (V/m) @ t=0.88
0
% es.tEz (V/m) @ t=0.88
13.262815568695455
% V (V) @ t=0.88
0.014640194853295445
% es.normE (V/m) @ t=0.9
17.98873281502624
% es.EX (V/m) @ t=0.9
-9.995267237817757
% es.EY (V/m) @ t=0.9
-1.0789029973215674
% es.EZ (V/m) @ t=0.9
13.383596490642281
% es.tEX (V/m) @ t=0.9
-9.995267237817776
% es.tEY (V/m) @ t=0.9
0
% es.tEZ (V/m) @ t=0.9
13.38359649064227
% es.Ex (V/m) @ t=0.9
-9.995267237817757
% es.Ey (V/m) @ t=0.9
-1.0789029973215674
% es.Ez (V/m) @ t=0.9
13.383596490642281
% es.tEx (V/m) @ t=0.9
-9.995267237817776
% es.tEy (V/m) @ t=0.9
0
% es.tEz (V/m) @ t=0.9
13.38359649064227
% V (V) @ t=0.9
0.014773519182188805
% es.normE (V/m) @ t=0.92
18.151073018605082
% es.EX (V/m) @ t=0.92
-10.08547002824742
% es.EY (V/m) @ t=0.92
-1.088639601244116
% es.EZ (V/m) @ t=0.92
13.504377412589102
% es.tEX (V/m) @ t=0.92
-10.085470028247425
% es.tEY (V/m) @ t=0.92
0
% es.tEZ (V/m) @ t=0.92
13.504377412589081
% es.Ex (V/m) @ t=0.92
-10.08547002824742
% es.Ey (V/m) @ t=0.92
-1.088639601244116
% es.Ez (V/m) @ t=0.92
13.504377412589102
% es.tEx (V/m) @ t=0.92
-10.085470028247425
% es.tEy (V/m) @ t=0.92
0
% es.tEz (V/m) @ t=0.92
13.504377412589081
% V (V) @ t=0.92
0.014906843511082162
% es.normE (V/m) @ t=0.94
18.313413222183915
% es.EX (V/m) @ t=0.94
-10.175672818677093
% es.EY (V/m) @ t=0.94
-1.0983762051666965
% es.EZ (V/m) @ t=0.94
13.625158334535909
% es.tEX (V/m) @ t=0.94
-10.175672818677112
% es.tEY (V/m) @ t=0.94
0
% es.tEZ (V/m) @ t=0.94
13.625158334535884
% es.Ex (V/m) @ t=0.94
-10.175672818677093
% es.Ey (V/m) @ t=0.94
-1.0983762051666965
% es.Ez (V/m) @ t=0.94
13.625158334535909
% es.tEx (V/m) @ t=0.94
-10.175672818677112
% es.tEy (V/m) @ t=0.94
0
% es.tEz (V/m) @ t=0.94
13.625158334535884
% V (V) @ t=0.94
0.01504016783997552
% es.normE (V/m) @ t=0.96
18.47575342576273
% es.EX (V/m) @ t=0.96
-10.265875609106727
% es.EY (V/m) @ t=0.96
-1.1081128090893237
% es.EZ (V/m) @ t=0.96
13.745939256482696
% es.tEX (V/m) @ t=0.96
-10.265875609106747
% es.tEY (V/m) @ t=0.96
0
% es.tEZ (V/m) @ t=0.96
13.745939256482684
% es.Ex (V/m) @ t=0.96
-10.265875609106727
% es.Ey (V/m) @ t=0.96
-1.1081128090893237
% es.Ez (V/m) @ t=0.96
13.745939256482696
% es.tEx (V/m) @ t=0.96
-10.265875609106747
% es.tEy (V/m) @ t=0.96
0
% es.tEz (V/m) @ t=0.96
13.745939256482684
% V (V) @ t=0.96
0.015173492168868876
% es.normE (V/m) @ t=0.98
18.63809362934158
% es.EX (V/m) @ t=0.98
-10.356078399536386
% es.EY (V/m) @ t=0.98
-1.1178494130118786
% es.EZ (V/m) @ t=0.98
13.866720178429528
% es.tEX (V/m) @ t=0.98
-10.35607839953642
% es.tEY (V/m) @ t=0.98
0
% es.tEZ (V/m) @ t=0.98
13.866720178429512
% es.Ex (V/m) @ t=0.98
-10.356078399536386
% es.Ey (V/m) @ t=0.98
-1.1178494130118786
% es.Ez (V/m) @ t=0.98
13.866720178429528
% es.tEx (V/m) @ t=0.98
-10.35607839953642
% es.tEy (V/m) @ t=0.98
0
% es.tEz (V/m) @ t=0.98
13.866720178429512
% V (V) @ t=0.98
0.015306816497762233
% es.normE (V/m) @ t=1
18.800433832920415
% es.EX (V/m) @ t=1
-10.446281189966086
% es.EY (V/m) @ t=1
-1.127586016934445
% es.EZ (V/m) @ t=1
13.987501100376331
% es.tEX (V/m) @ t=1
-10.446281189966099
% es.tEY (V/m) @ t=1
0
% es.tEZ (V/m) @ t=1
13.987501100376319
% es.Ex (V/m) @ t=1
-10.446281189966086
% es.Ey (V/m) @ t=1
-1.127586016934445
% es.Ez (V/m) @ t=1
13.987501100376331
% es.tEx (V/m) @ t=1
-10.446281189966099
% es.tEy (V/m) @ t=1
0
% es.tEz (V/m) @ t=1
13.987501100376319
% V (V) @ t=1
0.01544014082665559
% es.normE (V/m) @ t=1.02
18.962774036499297
% es.EX (V/m) @ t=1.02
-10.536483980395749
% es.EY (V/m) @ t=1.02
-1.1373226208569829
% es.EZ (V/m) @ t=1.02
14.108282022323197
% es.tEX (V/m) @ t=1.02
-10.536483980395776
% es.tEY (V/m) @ t=1.02
0
% es.tEZ (V/m) @ t=1.02
14.108282022323177
% es.Ex (V/m) @ t=1.02
-10.536483980395749
% es.Ey (V/m) @ t=1.02
-1.1373226208569829
% es.Ez (V/m) @ t=1.02
14.108282022323197
% es.tEx (V/m) @ t=1.02
-10.536483980395776
% es.tEy (V/m) @ t=1.02
0
% es.tEz (V/m) @ t=1.02
14.108282022323177
% V (V) @ t=1.02
0.01557346515554895
% es.normE (V/m) @ t=1.04
19.13233577916433
% es.EX (V/m) @ t=1.04
-10.630699354285216
% es.EY (V/m) @ t=1.04
-1.147492344105995
% es.EZ (V/m) @ t=1.04
14.234435759902487
% es.tEX (V/m) @ t=1.04
-10.630699354285227
% es.tEY (V/m) @ t=1.04
0
% es.tEZ (V/m) @ t=1.04
14.234435759902473
% es.Ex (V/m) @ t=1.04
-10.630699354285216
% es.Ey (V/m) @ t=1.04
-1.147492344105995
% es.Ez (V/m) @ t=1.04
14.234435759902487
% es.tEx (V/m) @ t=1.04