% Model:              1x1--2 - Copy1.mph
% Version:            COMSOL 6.1.0.252
% Date:               Mar 28 2023, 12:06
% Dimension:          0
% Nodes:              14017
% Expressions:        14017
% Description:        Electric field norm, Electric field, X component, Electric field, Y component, Electric field, Z component, Tangential electric field, X component, Tangential electric field, Y component, Tangential electric field, Z component, Electric field, x component, Electric field, y component, Electric field, z component, Tangential electric field, x component, Tangential electric field, y component, Tangential electric field, z component, Electric potential
% Length unit:        mm
% x
2
% y
12.199999999999998
% z
2
% es.normE (V/m) @ t=0
1.359120195388905
% es.EX (V/m) @ t=0
-0.9730039779011344
% es.EY (V/m) @ t=0
0.3705540281681059
% es.EZ (V/m) @ t=0
-0.8682589740861726
% es.tEX (V/m) @ t=0
-0.9730039779011324
% es.tEY (V/m) @ t=0
0
% es.tEZ (V/m) @ t=0
-0.8682589740861761
% es.Ex (V/m) @ t=0
-0.9730039779011344
% es.Ey (V/m) @ t=0
0.3705540281681059
% es.Ez (V/m) @ t=0
-0.8682589740861726
% es.tEx (V/m) @ t=0
-0.9730039779011324
% es.tEy (V/m) @ t=0
0
% es.tEz (V/m) @ t=0
-0.8682589740861761
% V (V) @ t=0
0.013831495636024378
% es.normE (V/m) @ t=0.1
1.3980025402915177
% es.EX (V/m) @ t=0.1
-1.000840125029612
% es.EY (V/m) @ t=0.1
0.38115500565677474
% es.EZ (V/m) @ t=0.1
-0.8930985391958925
% es.tEX (V/m) @ t=0.1
-1.000840125029609
% es.tEY (V/m) @ t=0.1
0
% es.tEZ (V/m) @ t=0.1
-0.8930985391958917
% es.Ex (V/m) @ t=0.1
-1.000840125029612
% es.Ey (V/m) @ t=0.1
0.38115500565677474
% es.Ez (V/m) @ t=0.1
-0.8930985391958925
% es.tEx (V/m) @ t=0.1
-1.000840125029609
% es.tEy (V/m) @ t=0.1
0
% es.tEz (V/m) @ t=0.1
-0.8930985391958917
% V (V) @ t=0.1
0.014227193519562803
% es.normE (V/m) @ t=0.2
1.482795890780496
% es.EX (V/m) @ t=0.2
-1.0615442923417706
% es.EY (V/m) @ t=0.2
0.4042732768192945
% es.EZ (V/m) @ t=0.2
-0.947267846051842
% es.tEX (V/m) @ t=0.2
-1.0615442923417713
% es.tEY (V/m) @ t=0.2
0
% es.tEZ (V/m) @ t=0.2
-0.9472678460518384
% es.Ex (V/m) @ t=0.2
-1.0615442923417706
% es.Ey (V/m) @ t=0.2
0.4042732768192945
% es.Ez (V/m) @ t=0.2
-0.947267846051842
% es.tEx (V/m) @ t=0.2
-1.0615442923417713
% es.tEy (V/m) @ t=0.2
0
% es.tEz (V/m) @ t=0.2
-0.9472678460518384
% V (V) @ t=0.2
0.015090118579075062
% es.normE (V/m) @ t=0.3
1.5716857320784876
% es.EX (V/m) @ t=0.3
-1.125181151303461
% es.EY (V/m) @ t=0.3
0.42850846152841804
% es.EZ (V/m) @ t=0.3
-1.0040541497158628
% es.tEX (V/m) @ t=0.3
-1.125181151303459
% es.tEY (V/m) @ t=0.3
0
% es.tEZ (V/m) @ t=0.3
-1.0040541497158557
% es.Ex (V/m) @ t=0.3
-1.125181151303461
% es.Ey (V/m) @ t=0.3
0.42850846152841804
% es.Ez (V/m) @ t=0.3
-1.0040541497158628
% es.tEx (V/m) @ t=0.3
-1.125181151303459
% es.tEy (V/m) @ t=0.3
0
% es.tEz (V/m) @ t=0.3
-1.0040541497158557
% V (V) @ t=0.3
0.01599473075188671
% es.normE (V/m) @ t=0.4
1.664828000833099
% es.EX (V/m) @ t=0.4
-1.1918623551192808
% es.EY (V/m) @ t=0.4
0.4539030337678809
% es.EZ (V/m) @ t=0.4
-1.0635570710529834
% es.tEX (V/m) @ t=0.4
-1.191862355119282
% es.tEY (V/m) @ t=0.4
0
% es.tEZ (V/m) @ t=0.4
-1.063557071052987
% es.Ex (V/m) @ t=0.4
-1.1918623551192808
% es.Ey (V/m) @ t=0.4
0.4539030337678809
% es.Ez (V/m) @ t=0.4
-1.0635570710529834
% es.tEx (V/m) @ t=0.4
-1.191862355119282
% es.tEy (V/m) @ t=0.4
0
% es.tEz (V/m) @ t=0.4
-1.063557071052987
% V (V) @ t=0.4
0.01694261929907845
% es.normE (V/m) @ t=0.5
1.7639991553858554
% es.EX (V/m) @ t=0.5
-1.262859675024312
% es.EY (V/m) @ t=0.5
0.4809413503704807
% es.EZ (V/m) @ t=0.5
-1.1269114801849822
% es.tEX (V/m) @ t=0.5
-1.2628596750243029
% es.tEY (V/m) @ t=0.5
0
% es.tEZ (V/m) @ t=0.5
-1.1269114801849902
% es.Ex (V/m) @ t=0.5
-1.262859675024312
% es.Ey (V/m) @ t=0.5
0.4809413503704807
% es.Ez (V/m) @ t=0.5
-1.1269114801849822
% es.tEx (V/m) @ t=0.5
-1.2628596750243029
% es.tEy (V/m) @ t=0.5
0
% es.tEz (V/m) @ t=0.5
-1.1269114801849902
% V (V) @ t=0.5
0.017951861808599753
% es.normE (V/m) @ t=0.6
1.8665157557489933
% es.EX (V/m) @ t=0.6
-1.3362520319874966
% es.EY (V/m) @ t=0.6
0.5088917572283562
% es.EZ (V/m) @ t=0.6
-1.1924030921499567
% es.tEX (V/m) @ t=0.6
-1.3362520319874944
% es.tEY (V/m) @ t=0.6
0
% es.tEZ (V/m) @ t=0.6
-1.1924030921499842
% es.Ex (V/m) @ t=0.6
-1.3362520319874966
% es.Ey (V/m) @ t=0.6
0.5088917572283562
% es.Ez (V/m) @ t=0.6
-1.1924030921499567
% es.tEx (V/m) @ t=0.6
-1.3362520319874944
% es.tEy (V/m) @ t=0.6
0
% es.tEz (V/m) @ t=0.6
-1.1924030921499842
% V (V) @ t=0.6
0.01899515140826263
% es.normE (V/m) @ t=0.7
1.973763763135787
% es.EX (V/m) @ t=0.7
-1.4130316490652235
% es.EY (V/m) @ t=0.7
0.5381321177978187
% es.EZ (V/m) @ t=0.7
-1.2609173136767158
% es.tEX (V/m) @ t=0.7
-1.4130316490652142
% es.tEY (V/m) @ t=0.7
0
% es.tEZ (V/m) @ t=0.7
-1.2609173136767122
% es.Ex (V/m) @ t=0.7
-1.4130316490652235
% es.Ey (V/m) @ t=0.7
0.5381321177978187
% es.Ez (V/m) @ t=0.7
-1.2609173136767158
% es.tEx (V/m) @ t=0.7
-1.4130316490652142
% es.tEy (V/m) @ t=0.7
0
% es.tEz (V/m) @ t=0.7
-1.2609173136767122
% V (V) @ t=0.7
0.020086593227557303
% es.normE (V/m) @ t=0.8
2.085469696105869
% es.EX (V/m) @ t=0.8
-1.4930027329775681
% es.EY (V/m) @ t=0.8
0.5685878834721612
% es.EZ (V/m) @ t=0.8
-1.3322794334130172
% es.tEX (V/m) @ t=0.8
-1.4930027329775717
% es.tEY (V/m) @ t=0.8
0
% es.tEZ (V/m) @ t=0.8
-1.3322794334130243
% es.Ex (V/m) @ t=0.8
-1.4930027329775681
% es.Ey (V/m) @ t=0.8
0.5685878834721612
% es.Ez (V/m) @ t=0.8
-1.3322794334130172
% es.tEx (V/m) @ t=0.8
-1.4930027329775717
% es.tEy (V/m) @ t=0.8
0
% es.tEz (V/m) @ t=0.8
-1.3322794334130243
% V (V) @ t=0.8
0.021223403308820665
% es.normE (V/m) @ t=0.9
2.2035003885255495
% es.EX (V/m) @ t=0.9
-1.5775017293292342
% es.EY (V/m) @ t=0.9
0.6007681124038915
% es.EZ (V/m) @ t=0.9
-1.4076820539967745
% es.tEX (V/m) @ t=0.9
-1.5775017293292457
% es.tEY (V/m) @ t=0.9
0
% es.tEZ (V/m) @ t=0.9
-1.4076820539967798
% es.Ex (V/m) @ t=0.9
-1.5775017293292342
% es.Ey (V/m) @ t=0.9
0.6007681124038915
% es.Ez (V/m) @ t=0.9
-1.4076820539967745
% es.tEx (V/m) @ t=0.9
-1.5775017293292457
% es.tEy (V/m) @ t=0.9
0
% es.tEz (V/m) @ t=0.9
-1.4076820539967798
% V (V) @ t=0.9
0.022424575552595652
% es.normE (V/m) @ t=1
2.326947257091106
% es.EX (V/m) @ t=1
-1.6658781934370217
% es.EY (V/m) @ t=1
0.6344250472824258
% es.EZ (V/m) @ t=1
-1.4865447387515687
% es.tEX (V/m) @ t=1
-1.6658781934370195
% es.tEY (V/m) @ t=1
0
% es.tEZ (V/m) @ t=1
-1.4865447387515935
% es.Ex (V/m) @ t=1
-1.6658781934370217
% es.Ey (V/m) @ t=1
0.6344250472824258
% es.Ez (V/m) @ t=1
-1.4865447387515687
% es.tEx (V/m) @ t=1
-1.6658781934370195
% es.tEy (V/m) @ t=1
0
% es.tEz (V/m) @ t=1
-1.4865447387515935
% V (V) @ t=1
0.023680865675704592
% es.normE (V/m) @ t=1.1
2.456373683034375
% es.EX (V/m) @ t=1.1
-1.7585354778954678
% es.EY (V/m) @ t=1.1
0.6697122334022501
% es.EZ (V/m) @ t=1.1
-1.5692274005009796
% es.tEX (V/m) @ t=1.1
-1.7585354778954718
% es.tEY (V/m) @ t=1.1
0
% es.tEZ (V/m) @ t=1.1
-1.5692274005009708
% es.Ex (V/m) @ t=1.1
-1.7585354778954678
% es.Ey (V/m) @ t=1.1
0.6697122334022501
% es.Ez (V/m) @ t=1.1
-1.5692274005009796
% es.tEx (V/m) @ t=1.1
-1.7585354778954718
% es.tEy (V/m) @ t=1.1
0
% es.tEz (V/m) @ t=1.1
-1.5692274005009708
% V (V) @ t=1.1
0.024998010199195023
% es.normE (V/m) @ t=1.2
2.592218382412055
% es.EX (V/m) @ t=1.2
-1.8557876813109795
% es.EY (V/m) @ t=1.2
0.7067492395070012
% es.EZ (V/m) @ t=1.2
-1.6560103104463604
% es.tEX (V/m) @ t=1.2
-1.855787681310967
% es.tEY (V/m) @ t=1.2
0
% es.tEZ (V/m) @ t=1.2
-1.6560103104463906
% es.Ex (V/m) @ t=1.2
-1.8557876813109795
% es.Ey (V/m) @ t=1.2
0.7067492395070012
% es.Ez (V/m) @ t=1.2
-1.6560103104463604
% es.tEx (V/m) @ t=1.2
-1.855787681310967
% es.tEy (V/m) @ t=1.2
0
% es.tEz (V/m) @ t=1.2
-1.6560103104463906
% V (V) @ t=1.2
0.026380476264944313
% es.normE (V/m) @ t=1.3
2.7341473688623448
% es.EX (V/m) @ t=1.3
-1.9573956862653268
% es.EY (V/m) @ t=1.3
0.7454450401394421
% es.EZ (V/m) @ t=1.3
-1.7466801033428787
% es.tEX (V/m) @ t=1.3
-1.9573956862653263
% es.tEY (V/m) @ t=1.3
0
% es.tEZ (V/m) @ t=1.3
-1.7466801033428823
% es.Ex (V/m) @ t=1.3
-1.9573956862653268
% es.Ey (V/m) @ t=1.3
0.7454450401394421
% es.Ez (V/m) @ t=1.3
-1.7466801033428787
% es.tEx (V/m) @ t=1.3
-1.9573956862653263
% es.tEy (V/m) @ t=1.3
0
% es.tEz (V/m) @ t=1.3
-1.7466801033428823
% V (V) @ t=1.3
0.02782486312105243
% es.normE (V/m) @ t=1.4
2.8829646735943886
% es.EX (V/m) @ t=1.4
-2.063935067061325
% es.EY (V/m) @ t=1.4
0.7860189370028072
% es.EZ (V/m) @ t=1.4
-1.8417504210293352
% es.tEX (V/m) @ t=1.4
-2.063935067061312
% es.tEY (V/m) @ t=1.4
0
% es.tEZ (V/m) @ t=1.4
-1.8417504210293458
% es.Ex (V/m) @ t=1.4
-2.063935067061325
% es.Ey (V/m) @ t=1.4
0.7860189370028072
% es.Ez (V/m) @ t=1.4
-1.8417504210293352
% es.tEx (V/m) @ t=1.4
-2.063935067061312
% es.tEy (V/m) @ t=1.4
0
% es.tEz (V/m) @ t=1.4
-1.8417504210293458
% V (V) @ t=1.4
0.02933934839359649
% es.normE (V/m) @ t=1.5
3.038411619103213
% es.EX (V/m) @ t=1.5
-2.175220646652479
% es.EY (V/m) @ t=1.5
0.828400375102734
% es.EZ (V/m) @ t=1.5
-1.9410560117247329
% es.tEX (V/m) @ t=1.5
-2.175220646652477
% es.tEY (V/m) @ t=1.5
0
% es.tEZ (V/m) @ t=1.5
-1.9410560117247435
% es.Ex (V/m) @ t=1.5
-2.175220646652479
% es.Ey (V/m) @ t=1.5
0.828400375102734
% es.Ez (V/m) @ t=1.5
-1.9410560117247329
% es.tEx (V/m) @ t=1.5
-2.175220646652477
% es.tEy (V/m) @ t=1.5
0
% es.tEz (V/m) @ t=1.5
-1.9410560117247435
% V (V) @ t=1.5
0.03092130113008889
% es.normE (V/m) @ t=1.6
3.2004376245466624
% es.EX (V/m) @ t=1.6
-2.291216216204299
% es.EY (V/m) @ t=1.6
0.8725755583767523
% es.EZ (V/m) @ t=1.6
-2.044564562707274
% es.tEX (V/m) @ t=1.6
-2.291216216204295
% es.tEY (V/m) @ t=1.6
0
% es.tEZ (V/m) @ t=1.6
-2.0445645627072864
% es.Ex (V/m) @ t=1.6
-2.291216216204299
% es.Ey (V/m) @ t=1.6
0.8725755583767523
% es.Ez (V/m) @ t=1.6
-2.044564562707274
% es.tEx (V/m) @ t=1.6
-2.291216216204295
% es.tEy (V/m) @ t=1.6
0
% es.tEz (V/m) @ t=1.6
-2.0445645627072864
% V (V) @ t=1.6
0.03257020688381466
% es.normE (V/m) @ t=1.7
3.3690426899247043
% es.EX (V/m) @ t=1.7
-2.411921775716831
% es.EY (V/m) @ t=1.7
0.9185444868248176
% es.EZ (V/m) @ t=1.7
-2.152276073976891
% es.tEX (V/m) @ t=1.7
-2.4119217757168325
% es.tEY (V/m) @ t=1.7
0
% es.tEZ (V/m) @ t=1.7
-2.1522760739768962
% es.Ex (V/m) @ t=1.7
-2.411921775716831
% es.Ey (V/m) @ t=1.7
0.9185444868248176
% es.Ez (V/m) @ t=1.7
-2.152276073976891
% es.tEx (V/m) @ t=1.7
-2.4119217757168325
% es.tEy (V/m) @ t=1.7
0
% es.tEz (V/m) @ t=1.7
-2.1522760739768962
% V (V) @ t=1.7
0.03428606565477379
% es.normE (V/m) @ t=1.8
3.54422681523734
% es.EX (V/m) @ t=1.8
-2.537337325190015
% es.EY (V/m) @ t=1.8
0.9663071604470019
% es.EZ (V/m) @ t=1.8
-2.264190545533607
% es.tEX (V/m) @ t=1.8
-2.537337325190018
% es.tEY (V/m) @ t=1.8
0
% es.tEZ (V/m) @ t=1.8
-2.2641905455336264
% es.Ex (V/m) @ t=1.8
-2.537337325190015
% es.Ey (V/m) @ t=1.8
0.9663071604470019
% es.Ez (V/m) @ t=1.8
-2.264190545533607
% es.tEx (V/m) @ t=1.8
-2.537337325190018
% es.tEy (V/m) @ t=1.8
0
% es.tEz (V/m) @ t=1.8
-2.2641905455336264
% V (V) @ t=1.8
0.036068877442966274
% es.normE (V/m) @ t=1.9
3.724204966720147
% es.EX (V/m) @ t=1.9
-2.6661849532242368
% es.EY (V/m) @ t=1.9
1.0153768929370734
% es.EZ (V/m) @ t=1.9
-2.3791676257178356
% es.tEX (V/m) @ t=1.9
-2.666184953224233
% es.tEY (V/m) @ t=1.9
0
% es.tEZ (V/m) @ t=1.9
-2.379167625717834
% es.Ex (V/m) @ t=1.9
-2.6661849532242368
% es.Ey (V/m) @ t=1.9
1.0153768929370734
% es.Ez (V/m) @ t=1.9
-2.3791676257178356
% es.tEx (V/m) @ t=1.9
-2.666184953224233
% es.tEy (V/m) @ t=1.9
0
% es.tEz (V/m) @ t=1.9
-2.379167625717834
% V (V) @ t=1.9
0.03790047691415071
% es.normE (V/m) @ t=2
3.9092111891869377
% es.EX (V/m) @ t=2
-2.7986322132526418
% es.EY (V/m) @ t=2
1.0658174962006886
% es.EZ (V/m) @ t=2
-2.4973568318088333
% es.tEX (V/m) @ t=2
-2.798632213252649
% es.tEY (V/m) @ t=2
0
% es.tEZ (V/m) @ t=2
-2.497356831808851
% es.Ex (V/m) @ t=2
-2.7986322132526418
% es.Ey (V/m) @ t=2
1.0658174962006886
% es.Ez (V/m) @ t=2
-2.4973568318088333
% es.tEx (V/m) @ t=2
-2.798632213252649
% es.tEy (V/m) @ t=2
0
% es.tEz (V/m) @ t=2
-2.497356831808851
% V (V) @ t=2
0.03978324581726449
% es.normE (V/m) @ t=2.1
4.09991937676705
% es.EX (V/m) @ t=2.1
-2.9351615482448405
% es.EY (V/m) @ t=2.1
1.1178127062830043
% es.EZ (V/m) @ t=2.1
-2.619188674592465
% es.tEX (V/m) @ t=2.1
-2.935161548244837
% es.tEY (V/m) @ t=2.1
0
% es.tEZ (V/m) @ t=2.1
-2.619188674592486
% es.Ex (V/m) @ t=2.1
-2.9351615482448405
% es.Ey (V/m) @ t=2.1
1.1178127062830043
% es.Ez (V/m) @ t=2.1
-2.619188674592465
% es.tEx (V/m) @ t=2.1
-2.935161548244837
% es.tEy (V/m) @ t=2.1
0
% es.tEz (V/m) @ t=2.1
-2.619188674592486
% V (V) @ t=2.1
0.04172404201255909
% es.normE (V/m) @ t=2.2
4.296329529460378
% es.EX (V/m) @ t=2.2
-3.0757729582007327
% es.EY (V/m) @ t=2.2
1.1713625231840128
% es.EZ (V/m) @ t=2.2
-2.7446631540686894
% es.tEX (V/m) @ t=2.2
-3.0757729582006963
% es.tEY (V/m) @ t=2.2
0
% es.tEZ (V/m) @ t=2.2
-2.744663154068718
% es.Ex (V/m) @ t=2.2
-3.0757729582007327
% es.Ey (V/m) @ t=2.2
1.1713625231840128
% es.Ez (V/m) @ t=2.2
-2.7446631540686894
% es.tEx (V/m) @ t=2.2
-3.0757729582006963
% es.tEy (V/m) @ t=2.2
0
% es.tEz (V/m) @ t=2.2
-2.744663154068718
% V (V) @ t=2.2
0.0437228655000345
% es.normE (V/m) @ t=2.3
4.498441647266964
% es.EX (V/m) @ t=2.3
-3.2204664431203023
% es.EY (V/m) @ t=2.3
1.2264669469037326
% es.EZ (V/m) @ t=2.3
-2.8737802702375674
% es.tEX (V/m) @ t=2.3
-3.220466443120296
% es.tEY (V/m) @ t=2.3
0
% es.tEZ (V/m) @ t=2.3
-2.8737802702375745
% es.Ex (V/m) @ t=2.3
-3.2204664431203023
% es.Ey (V/m) @ t=2.3
1.2264669469037326
% es.Ez (V/m) @ t=2.3
-2.8737802702375674
% es.tEx (V/m) @ t=2.3
-3.220466443120296
% es.tEy (V/m) @ t=2.3
0
% es.tEz (V/m) @ t=2.3
-2.8737802702375745
% V (V) @ t=2.3
0.04577971627969072
% es.normE (V/m) @ t=2.4
4.703187428757234
% es.EX (V/m) @ t=2.4
-3.36704541662347
% es.EY (V/m) @ t=2.4
1.2822893644561635
% es.EZ (V/m) @ t=2.4
-3.0045798693690777
% es.tEX (V/m) @ t=2.4
-3.3670454166234407
% es.tEY (V/m) @ t=2.4
0
% es.tEZ (V/m) @ t=2.4
-3.004579869369074
% es.Ex (V/m) @ t=2.4
-3.36704541662347
% es.Ey (V/m) @ t=2.4
1.2822893644561635
% es.Ez (V/m) @ t=2.4
-3.0045798693690777
% es.tEx (V/m) @ t=2.4
-3.3670454166234407
% es.tEy (V/m) @ t=2.4
0
% es.tEz (V/m) @ t=2.4
-3.004579869369074
% V (V) @ t=2.4
0.04786337264998215
% es.normE (V/m) @ t=2.5
4.908250692625748
% es.EX (V/m) @ t=2.5
-3.51385173252526
% es.EY (V/m) @ t=2.5
1.3381982383595474
% es.EZ (V/m) @ t=2.5
-3.135582282164453
% es.tEX (V/m) @ t=2.5
-3.5138517325252554
% es.tEY (V/m) @ t=2.5
0
% es.tEZ (V/m) @ t=2.5
-3.135582282164485
% es.Ex (V/m) @ t=2.5
-3.51385173252526
% es.Ey (V/m) @ t=2.5
1.3381982383595474
% es.Ez (V/m) @ t=2.5
-3.135582282164453
% es.tEx (V/m) @ t=2.5
-3.5138517325252554
% es.tEy (V/m) @ t=2.5
0
% es.tEz (V/m) @ t=2.5
-3.135582282164485
% V (V) @ t=2.5
0.0499502661567974
% es.normE (V/m) @ t=2.6
5.116649369236814
% es.EX (V/m) @ t=2.6
-3.66304591673447
% es.EY (V/m) @ t=2.6
1.3950164472625275
% es.EZ (V/m) @ t=2.6
-3.2687154833014525
% es.tEX (V/m) @ t=2.6
-3.663045916734463
% es.tEY (V/m) @ t=2.6
0
% es.tEZ (V/m) @ t=2.6
-3.268715483301463
% es.Ex (V/m) @ t=2.6
-3.66304591673447
% es.Ey (V/m) @ t=2.6
1.3950164472625275
% es.Ez (V/m) @ t=2.6
-3.2687154833014525
% es.tEx (V/m) @ t=2.6
-3.663045916734463
% es.tEy (V/m) @ t=2.6
0
% es.tEz (V/m) @ t=2.6
-3.268715483301463
% V (V) @ t=2.6
0.052071105947617914
% es.normE (V/m) @ t=2.7
5.328383458590396
% es.EX (V/m) @ t=2.7
-3.8146279692511404
% es.EY (V/m) @ t=2.7
1.4527439911648852
% es.EZ (V/m) @ t=2.7
-3.4039794727800725
% es.tEX (V/m) @ t=2.7
-3.814627969251136
% es.tEY (V/m) @ t=2.7
0
% es.tEZ (V/m) @ t=2.7
-3.403979472780044
% es.Ex (V/m) @ t=2.7
-3.8146279692511404
% es.Ey (V/m) @ t=2.7
1.4527439911648852
% es.Ez (V/m) @ t=2.7
-3.4039794727800725
% es.tEx (V/m) @ t=2.7
-3.814627969251136
% es.tEy (V/m) @ t=2.7
0
% es.tEz (V/m) @ t=2.7
-3.403979472780044
% V (V) @ t=2.7
0.05422589202244366
% es.normE (V/m) @ t=2.8
5.543452960686585
% es.EX (V/m) @ t=2.8
-3.968597890075242
% es.EY (V/m) @ t=2.8
1.5113808700667999
% es.EZ (V/m) @ t=2.8
-3.5413742506004056
% es.tEX (V/m) @ t=2.8
-3.968597890075255
% es.tEY (V/m) @ t=2.8
0
% es.tEZ (V/m) @ t=2.8
-3.5413742506003985
% es.Ex (V/m) @ t=2.8
-3.968597890075242
% es.Ey (V/m) @ t=2.8
1.5113808700667999
% es.Ez (V/m) @ t=2.8
-3.5413742506004056
% es.tEx (V/m) @ t=2.8
-3.968597890075255
% es.tEy (V/m) @ t=2.8
0
% es.tEz (V/m) @ t=2.8
-3.5413742506003985
% V (V) @ t=2.8
0.05641462438127465
% es.normE (V/m) @ t=2.9
5.760091471665316
% es.EX (V/m) @ t=2.9
-4.123691071768216
% es.EY (V/m) @ t=2.9
1.5704455306421519
% es.EZ (V/m) @ t=2.9
-3.679771375529871
% es.tEX (V/m) @ t=2.9
-4.123691071768198
% es.tEY (V/m) @ t=2.9
0
% es.tEZ (V/m) @ t=2.9
-3.6797713755298886
% es.Ex (V/m) @ t=2.9
-4.123691071768216
% es.Ey (V/m) @ t=2.9
1.5704455306421519
% es.Ez (V/m) @ t=2.9
-3.679771375529871
% es.tEx (V/m) @ t=2.9
-4.123691071768198
% es.tEy (V/m) @ t=2.9
0
% es.tEz (V/m) @ t=2.9
-3.6797713755298886
% V (V) @ t=2.9
0.05861932399995296
% es.normE (V/m) @ t=3
5.972184915366432
% es.EX (V/m) @ t=3
-4.275530312509711
% es.EY (V/m) @ t=3
1.628271166235324
% es.EZ (V/m) @ t=3
-3.8152649595693546
% es.tEX (V/m) @ t=3
-4.275530312509707
% es.tEY (V/m) @ t=3
0
% es.tEZ (V/m) @ t=3
-3.8152649595693475
% es.Ex (V/m) @ t=3
-4.275530312509711
% es.Ey (V/m) @ t=3
1.628271166235324
% es.Ez (V/m) @ t=3
-3.8152649595693546
% es.tEx (V/m) @ t=3
-4.275530312509707
% es.tEy (V/m) @ t=3
0
% es.tEz (V/m) @ t=3
-3.8152649595693475
% V (V) @ t=3
0.06077775985335838
% es.normE (V/m) @ t=3.1
6.184725527633382
% es.EX (V/m) @ t=3.1
-4.4276896639223855
% es.EY (V/m) @ t=3.1
1.6862187497410392
% es.EZ (V/m) @ t=3.1
-3.9510442194638635
% es.tEX (V/m) @ t=3.1
-4.427689663922392
% es.tEY (V/m) @ t=3.1
0
% es.tEZ (V/m) @ t=3.1
-3.951044219463867
% es.Ex (V/m) @ t=3.1
-4.4276896639223855
% es.Ey (V/m) @ t=3.1
1.6862187497410392
% es.Ez (V/m) @ t=3.1
-3.9510442194638635
% es.tEx (V/m) @ t=3.1
-4.427689663922392
% es.tEy (V/m) @ t=3.1
0
% es.tEz (V/m) @ t=3.1
-3.951044219463867
% V (V) @ t=3.1
0.0629407445166114
% es.normE (V/m) @ t=3.2
6.397713308466223
% es.EX (V/m) @ t=3.2
-4.580169126006433
% es.EY (V/m) @ t=3.2
1.7442882811594114
% es.EZ (V/m) @ t=3.2
-4.087109155213231
% es.tEX (V/m) @ t=3.2
-4.580169126006425
% es.tEY (V/m) @ t=3.2
0
% es.tEZ (V/m) @ t=3.2
-4.0871091552132555
% es.Ex (V/m) @ t=3.2
-4.580169126006433
% es.Ey (V/m) @ t=3.2
1.7442882811594114
% es.Ez (V/m) @ t=3.2
-4.087109155213231
% es.tEx (V/m) @ t=3.2
-4.580169126006425
% es.tEy (V/m) @ t=3.2
0
% es.tEz (V/m) @ t=3.2
-4.0871091552132555
% V (V) @ t=3.2
0.06510827798971203
% es.normE (V/m) @ t=3.3
6.611148257864911
% es.EX (V/m) @ t=3.3
-4.732968698761675
% es.EY (V/m) @ t=3.3
1.8024797604904084
% es.EZ (V/m) @ t=3.3
-4.2234597668175695
% es.tEX (V/m) @ t=3.3
-4.732968698761679
% es.tEY (V/m) @ t=3.3
0
% es.tEZ (V/m) @ t=3.3
-4.223459766817612
% es.Ex (V/m) @ t=3.3
-4.732968698761675
% es.Ey (V/m) @ t=3.3
1.8024797604904084
% es.Ez (V/m) @ t=3.3
-4.2234597668175695
% es.tEx (V/m) @ t=3.3
-4.732968698761679
% es.tEy (V/m) @ t=3.3
0
% es.tEz (V/m) @ t=3.3
-4.223459766817612
% V (V) @ t=3.3
0.06728036027266021
% es.normE (V/m) @ t=3.4
6.825030375829432
% es.EX (V/m) @ t=3.4
-4.8860883821882775
% es.EY (V/m) @ t=3.4
1.860793187733826
% es.EZ (V/m) @ t=3.4
-4.360096054276795
% es.tEX (V/m) @ t=3.4
-4.886088382188298
% es.tEY (V/m) @ t=3.4
0
% es.tEZ (V/m) @ t=3.4
-4.360096054276816
% es.Ex (V/m) @ t=3.4
-4.8860883821882775
% es.Ey (V/m) @ t=3.4
1.860793187733826
% es.Ez (V/m) @ t=3.4
-4.360096054276795
% es.tEx (V/m) @ t=3.4
-4.886088382188298
% es.tEy (V/m) @ t=3.4
0
% es.tEz (V/m) @ t=3.4
-4.360096054276816
% V (V) @ t=3.4
0.06945699136545601
% es.normE (V/m) @ t=3.5
7.035765830285053
% es.EX (V/m) @ t=3.5
-5.036955376454226
% es.EY (V/m) @ t=3.5
1.9182487171032
% es.EZ (V/m) @ t=3.5
-4.49472208899741
% es.tEX (V/m) @ t=3.5
-5.036955376454227
% es.tEY (V/m) @ t=3.5
0
% es.tEZ (V/m) @ t=3.5
-4.494722088997378
% es.Ex (V/m) @ t=3.5
-5.036955376454226
% es.Ey (V/m) @ t=3.5
1.9182487171032
% es.Ez (V/m) @ t=3.5
-4.49472208899741
% es.tEx (V/m) @ t=3.5
-5.036955376454227
% es.tEy (V/m) @ t=3.5
0
% es.tEz (V/m) @ t=3.5
-4.494722088997378
% V (V) @ t=3.5
0.07160159973680626
% es.normE (V/m) @ t=3.6
7.245031030825383
% es.EX (V/m) @ t=3.6
-5.186769811735547
% es.EY (V/m) @ t=3.6
1.9753034158298153
% es.EZ (V/m) @ t=3.6
-4.62840884943391
% es.tEX (V/m) @ t=3.6
-5.186769811735537
% es.tEY (V/m) @ t=3.6
0
% es.tEZ (V/m) @ t=3.6
-4.628408849433953
% es.Ex (V/m) @ t=3.6
-5.186769811735547
% es.Ey (V/m) @ t=3.6
1.9753034158298153
% es.Ez (V/m) @ t=3.6
-4.62840884943391
% es.tEx (V/m) @ t=3.6
-5.186769811735537
% es.tEy (V/m) @ t=3.6
0
% es.tEz (V/m) @ t=3.6
-4.628408849433953
% V (V) @ t=3.6
0.07373124485544454
% es.normE (V/m) @ t=3.7
7.452542158074877
% es.EX (V/m) @ t=3.7
-5.335328503680261
% es.EY (V/m) @ t=3.7
2.0318799015505373
% es.EZ (V/m) @ t=3.7
-4.760975016869356
% es.tEX (V/m) @ t=3.7
-5.335328503680277
% es.tEY (V/m) @ t=3.7
0
% es.tEZ (V/m) @ t=3.7
-4.760975016869438
% es.Ex (V/m) @ t=3.7
-5.335328503680261
% es.Ey (V/m) @ t=3.7
2.0318799015505373
% es.Ez (V/m) @ t=3.7
-4.760975016869356
% es.tEx (V/m) @ t=3.7
-5.335328503680277
% es.tEy (V/m) @ t=3.7
0
% es.tEz (V/m) @ t=3.7
-4.760975016869438
% V (V) @ t=3.7
0.07584303852043314
% es.normE (V/m) @ t=3.8
7.65799450777562
% es.EX (V/m) @ t=3.8
-5.482413316591559
% es.EY (V/m) @ t=3.8
2.0878950977115753
% es.EZ (V/m) @ t=3.8
-4.892225930228022
% es.tEX (V/m) @ t=3.8
-5.482413316591526
% es.tEY (V/m) @ t=3.8
0
% es.tEZ (V/m) @ t=3.8
-4.89222593022798
% es.Ex (V/m) @ t=3.8
-5.482413316591559
% es.Ey (V/m) @ t=3.8
2.0878950977115753
% es.Ez (V/m) @ t=3.8
-4.892225930228022
% es.tEx (V/m) @ t=3.8
-5.482413316591526
% es.tEy (V/m) @ t=3.8
0
% es.tEz (V/m) @ t=3.8
-4.89222593022798
% V (V) @ t=3.8
0.07793388000222064
% es.normE (V/m) @ t=3.9
7.861083375669059
% es.EX (V/m) @ t=3.9
-5.627806114772245
% es.EY (V/m) @ t=3.9
2.1432659277592965
% es.EZ (V/m) @ t=3.9
-5.0219669284334785
% es.tEX (V/m) @ t=3.9
-5.627806114772248
% es.tEY (V/m) @ t=3.9
0
% es.tEZ (V/m) @ t=3.9
-5.021966928433528
% es.Ex (V/m) @ t=3.9
-5.627806114772245
% es.Ey (V/m) @ t=3.9
2.1432659277592965
% es.Ez (V/m) @ t=3.9
-5.0219669284334785
% es.tEx (V/m) @ t=3.9
-5.627806114772248
% es.tEy (V/m) @ t=3.9
0
% es.tEz (V/m) @ t=3.9
-5.021966928433528
% V (V) @ t=3.9
0.08000066857125564
% es.normE (V/m) @ t=4
8.062307271629184
% es.EX (V/m) @ t=4
-5.771863733270582
% es.EY (V/m) @ t=4
2.198128313373429
% es.EZ (V/m) @ t=4
-5.150516532951983
% es.tEX (V/m) @ t=4
-5.771863733270553
% es.tEY (V/m) @ t=4
0
% es.tEZ (V/m) @ t=4
-5.150516532951997
% es.Ex (V/m) @ t=4
-5.771863733270582
% es.Ey (V/m) @ t=4
2.198128313373429
% es.Ez (V/m) @ t=4
-5.150516532951983
% es.tEx (V/m) @ t=4
-5.771863733270553
% es.tEy (V/m) @ t=4
0
% es.tEz (V/m) @ t=4
-5.150516532951997
% V (V) @ t=4
0.08204847567634534
% es.normE (V/m) @ t=4.1
8.261314374538609
% es.EX (V/m) @ t=4.1
-5.914334308377976
% es.EY (V/m) @ t=4.1
2.252386331477549
% es.EZ (V/m) @ t=4.1
-5.277649979215958
% es.tEX (V/m) @ t=4.1
-5.91433430837791
% es.tEY (V/m) @ t=4.1
0
% es.tEZ (V/m) @ t=4.1
-5.277649979215951
% es.Ex (V/m) @ t=4.1
-5.914334308377976
% es.Ey (V/m) @ t=4.1
2.252386331477549
% es.Ez (V/m) @ t=4.1
-5.277649979215958
% es.tEx (V/m) @ t=4.1
-5.91433430837791
% es.tEy (V/m) @ t=4.1
0
% es.tEz (V/m) @ t=4.1
-5.277649979215951
% V (V) @ t=4.1
0.08407372120471884
% es.normE (V/m) @ t=4.2
8.457702464541192
% es.EX (V/m) @ t=4.2
-6.054929899081779
% es.EY (V/m) @ t=4.2
2.305930317659058
% es.EZ (V/m) @ t=4.2
-5.403110302337346
% es.tEX (V/m) @ t=4.2
-6.054929899081806
% es.tEY (V/m) @ t=4.2
0
% es.tEZ (V/m) @ t=4.2
-5.403110302337339
% es.Ex (V/m) @ t=4.2
-6.054929899081779
% es.Ey (V/m) @ t=4.2
2.305930317659058
% es.Ez (V/m) @ t=4.2
-5.403110302337346
% es.tEx (V/m) @ t=4.2
-6.054929899081806
% es.tEy (V/m) @ t=4.2
0
% es.tEz (V/m) @ t=4.2
-5.403110302337339
% V (V) @ t=4.2
0.08607231226940938
% es.normE (V/m) @ t=4.3
8.651261021774175
% es.EX (V/m) @ t=4.3
-6.193499790401306
% es.EY (V/m) @ t=4.3
2.3587028749623844
% es.EZ (V/m) @ t=4.3
-5.526763016709481
% es.tEX (V/m) @ t=4.3
-6.193499790401347
% es.tEY (V/m) @ t=4.3
0
% es.tEZ (V/m) @ t=4.3
-5.526763016709495
% es.Ex (V/m) @ t=4.3
-6.193499790401306
% es.Ey (V/m) @ t=4.3
2.3587028749623844
% es.Ez (V/m) @ t=4.3
-5.526763016709481
% es.tEx (V/m) @ t=4.3
-6.193499790401347
% es.tEy (V/m) @ t=4.3
0
% es.tEz (V/m) @ t=4.3
-5.526763016709495
% V (V) @ t=4.3
0.08804210640547613
% es.normE (V/m) @ t=4.4
8.84177952637462
% es.EX (V/m) @ t=4.4
-6.329893267355853
% es.EY (V/m) @ t=4.4
2.410646606432266
% es.EZ (V/m) @ t=4.4
-5.648473636725299
% es.tEX (V/m) @ t=4.4
-6.329893267355811
% es.tEY (V/m) @ t=4.4
0
% es.tEZ (V/m) @ t=4.4
-5.648473636725271
% es.Ex (V/m) @ t=4.4
-6.329893267355853
% es.Ey (V/m) @ t=4.4
2.410646606432266
% es.Ez (V/m) @ t=4.4
-5.648473636725299
% es.tEx (V/m) @ t=4.4
-6.329893267355811
% es.tEy (V/m) @ t=4.4
0
% es.tEz (V/m) @ t=4.4
-5.648473636725271
% V (V) @ t=4.4
0.08998096114797827
% es.normE (V/m) @ t=4.5
9.029284697286649
% es.EX (V/m) @ t=4.5
-6.464129522833657
% es.EY (V/m) @ t=4.5
2.4617686849179634
% es.EZ (V/m) @ t=4.5
-5.768259217946252
% es.tEX (V/m) @ t=4.5
-6.464129522833645
% es.tEY (V/m) @ t=4.5
0
% es.tEZ (V/m) @ t=4.5
-5.768259217946294
% es.Ex (V/m) @ t=4.5
-6.464129522833657
% es.Ey (V/m) @ t=4.5
2.4617686849179634
% es.Ez (V/m) @ t=4.5
-5.768259217946252
% es.tEx (V/m) @ t=4.5
-6.464129522833645
% es.tEy (V/m) @ t=4.5
0
% es.tEz (V/m) @ t=4.5
-5.768259217946294
% V (V) @ t=4.5
0.09188915502453103
% es.normE (V/m) @ t=4.6
9.21373220832719
% es.EX (V/m) @ t=4.6
-6.596176867971481
% es.EY (V/m) @ t=4.6
2.5120569467611613
% es.EZ (V/m) @ t=4.6
-5.886091434396619
% es.tEX (V/m) @ t=4.6
-6.596176867971444
% es.tEY (V/m) @ t=4.6
0
% es.tEZ (V/m) @ t=4.6
-5.886091434396647
% es.Ex (V/m) @ t=4.6
-6.596176867971481
% es.Ey (V/m) @ t=4.6
2.5120569467611613
% es.Ez (V/m) @ t=4.6
-5.886091434396619
% es.tEx (V/m) @ t=4.6
-6.596176867971444
% es.tEy (V/m) @ t=4.6
0
% es.tEz (V/m) @ t=4.6
-5.886091434396647
% V (V) @ t=4.6
0.0937662415560494
% es.normE (V/m) @ t=4.7
9.39479536790325
% es.EX (V/m) @ t=4.7
-6.725801386850764
% es.EY (V/m) @ t=4.7
2.5614223762927004
% es.EZ (V/m) @ t=4.7
-6.0017615933877195
% es.tEX (V/m) @ t=4.7
-6.725801386850826
% es.tEY (V/m) @ t=4.7
0
% es.tEZ (V/m) @ t=4.7
-6.0017615933877835
% es.Ex (V/m) @ t=4.7
-6.725801386850764
% es.Ey (V/m) @ t=4.7
2.5614223762927004
% es.Ez (V/m) @ t=4.7
-6.0017615933877195
% es.tEx (V/m) @ t=4.7
-6.725801386850826
% es.tEy (V/m) @ t=4.7
0
% es.tEz (V/m) @ t=4.7
-6.0017615933877835
% V (V) @ t=4.7
0.09560889275951973
% es.normE (V/m) @ t=4.8
9.572306145625365
% es.EX (V/m) @ t=4.8
-6.852882794992357
% es.EY (V/m) @ t=4.8
2.609819141009435
% es.EZ (V/m) @ t=4.8
-6.115162350338117
% es.tEX (V/m) @ t=4.8
-6.852882794992372
% es.tEY (V/m) @ t=4.8
0
% es.tEZ (V/m) @ t=4.8
-6.115162350338153
% es.Ex (V/m) @ t=4.8
-6.852882794992357
% es.Ey (V/m) @ t=4.8
2.609819141009435
% es.Ez (V/m) @ t=4.8
-6.115162350338117
% es.tEx (V/m) @ t=4.8
-6.852882794992372
% es.tEy (V/m) @ t=4.8
0
% es.tEz (V/m) @ t=4.8
-6.115162350338153
% V (V) @ t=4.8
0.09741539976979993
% es.normE (V/m) @ t=4.9
9.746096511104351
% es.EX (V/m) @ t=4.9
-6.977300807917343
% es.EY (V/m) @ t=4.9
2.6572014084096374
% es.EZ (V/m) @ t=4.9
-6.226186360665885
% es.tEX (V/m) @ t=4.9
-6.977300807917352
% es.tEY (V/m) @ t=4.9
0
% es.tEZ (V/m) @ t=4.9
-6.226186360665963
% es.Ex (V/m) @ t=4.9
-6.977300807917343
% es.Ey (V/m) @ t=4.9
2.6572014084096374
% es.Ez (V/m) @ t=4.9
-6.226186360665885
% es.tEx (V/m) @ t=4.9
-6.977300807917352
% es.tEy (V/m) @ t=4.9
0
% es.tEz (V/m) @ t=4.9
-6.226186360665963
% V (V) @ t=4.9
0.09918405372174795
% es.normE (V/m) @ t=5
9.91554303680367
% es.EX (V/m) @ t=5
-7.098609055820839
% es.EY (V/m) @ t=5
2.7033993166093637
% es.EZ (V/m) @ t=5
-6.3344353560547475
% es.tEX (V/m) @ t=5
-7.098609055820763
% es.tEY (V/m) @ t=5
0
% es.tEZ (V/m) @ t=5
-6.3344353560548115
% es.Ex (V/m) @ t=5
-7.098609055820839
% es.Ey (V/m) @ t=5
2.7033993166093637
% es.Ez (V/m) @ t=5
-6.3344353560547475
% es.tEx (V/m) @ t=5
-7.098609055820763
% es.tEy (V/m) @ t=5
0
% es.tEz (V/m) @ t=5
-6.3344353560548115
% V (V) @ t=5
0.1009085037646475
% es.normE (V/m) @ t=5.1
10.07927930751148
% es.EX (V/m) @ t=5.1
-7.215829155512717
% es.EY (V/m) @ t=5.1
2.7480406478219663
% es.EZ (V/m) @ t=5.1
-6.439036421495409
% es.tEX (V/m) @ t=5.1
-7.215829155512655
% es.tEY (V/m) @ t=5.1
0
% es.tEZ (V/m) @ t=5.1
-6.439036421495416
% es.Ex (V/m) @ t=5.1
-7.215829155512717
% es.Ey (V/m) @ t=5.1
2.7480406478219663
% es.Ez (V/m) @ t=5.1
-6.439036421495409
% es.tEx (V/m) @ t=5.1
-7.215829155512655
% es.tEy (V/m) @ t=5.1
0
% es.tEz (V/m) @ t=5.1
-6.439036421495416
% V (V) @ t=5.1
0.10257482557462158
% es.normE (V/m) @ t=5.2
10.237782547386114
% es.EX (V/m) @ t=5.2
-7.329302854480092
% es.EY (V/m) @ t=5.2
2.7912553074089033
% es.EZ (V/m) @ t=5.2
-6.5402944237348635
% es.tEX (V/m) @ t=5.2
-7.329302854480048
% es.tEY (V/m) @ t=5.2
0
% es.tEZ (V/m) @ t=5.2
-6.5402944237348635
% es.Ex (V/m) @ t=5.2
-7.329302854480092
% es.Ey (V/m) @ t=5.2
2.7912553074089033
% es.Ez (V/m) @ t=5.2
-6.5402944237348635
% es.tEx (V/m) @ t=5.2
-7.329302854480048
% es.tEy (V/m) @ t=5.2
0
% es.tEz (V/m) @ t=5.2
-6.5402944237348635
% V (V) @ t=5.2
0.1041878875396379
% es.normE (V/m) @ t=5.3
10.390730257877005
% es.EX (V/m) @ t=5.3
-7.438799261927828
% es.EY (V/m) @ t=5.3
2.832955392796517
% es.EZ (V/m) @ t=5.3
-6.638003338490641
% es.tEX (V/m) @ t=5.3
-7.438799261927855
% es.tEY (V/m) @ t=5.3
0
% es.tEZ (V/m) @ t=5.3
-6.638003338490648
% es.Ex (V/m) @ t=5.3
-7.438799261927828
% es.Ey (V/m) @ t=5.3
2.832955392796517
% es.Ez (V/m) @ t=5.3
-6.638003338490641
% es.tEx (V/m) @ t=5.3
-7.438799261927855
% es.tEy (V/m) @ t=5.3
0
% es.tEz (V/m) @ t=5.3