% Model:              1x1--2 - Copy1.mph
% Version:            COMSOL 6.1.0.252
% Date:               Mar 28 2023, 12:06
% Dimension:          0
% Nodes:              14017
% Expressions:        14017
% Description:        Electric field norm, Electric field, X component, Electric field, Y component, Electric field, Z component, Tangential electric field, X component, Tangential electric field, Y component, Tangential electric field, Z component, Electric field, x component, Electric field, y component, Electric field, z component, Tangential electric field, x component, Tangential electric field, y component, Tangential electric field, z component, Electric potential
% Length unit:        mm
% x
1.66
% y
12.2
% z
1.33
% es.normE (V/m) @ t=0
14.111794845494018
% es.EX (V/m) @ t=0
-7.841084463369034
% es.EY (V/m) @ t=0
-0.8463770930553691
% es.EZ (V/m) @ t=0
10.499158756987123
% es.tEX (V/m) @ t=0
-7.841084463369047
% es.tEY (V/m) @ t=0
0
% es.tEZ (V/m) @ t=0
10.499158756987107
% es.Ex (V/m) @ t=0
-7.841084463369034
% es.Ey (V/m) @ t=0
-0.8463770930553691
% es.Ez (V/m) @ t=0
10.499158756987123
% es.tEx (V/m) @ t=0
-7.841084463369047
% es.tEy (V/m) @ t=0
0
% es.tEz (V/m) @ t=0
10.499158756987107
% V (V) @ t=0
0.011589524318116636
% es.normE (V/m) @ t=0.1
14.51551126116116
% es.EX (V/m) @ t=0.1
-8.065405520141544
% es.EY (V/m) @ t=0.1
-0.8705907534586066
% es.EZ (V/m) @ t=0.1
10.79952332217548
% es.tEX (V/m) @ t=0.1
-8.06540552014157
% es.tEY (V/m) @ t=0.1
0
% es.tEZ (V/m) @ t=0.1
10.799523322175475
% es.Ex (V/m) @ t=0.1
-8.065405520141544
% es.Ey (V/m) @ t=0.1
-0.8705907534586066
% es.Ez (V/m) @ t=0.1
10.79952332217548
% es.tEx (V/m) @ t=0.1
-8.06540552014157
% es.tEy (V/m) @ t=0.1
0
% es.tEz (V/m) @ t=0.1
10.799523322175475
% V (V) @ t=0.1
0.011921082874427131
% es.normE (V/m) @ t=0.2
15.39592327089329
% es.EX (V/m) @ t=0.2
-8.554597921104145
% es.EY (V/m) @ t=0.2
-0.9233950051244673
% es.EZ (V/m) @ t=0.2
11.454548854922756
% es.tEX (V/m) @ t=0.2
-8.554597921104172
% es.tEY (V/m) @ t=0.2
0
% es.tEZ (V/m) @ t=0.2
11.454548854922743
% es.Ex (V/m) @ t=0.2
-8.554597921104145
% es.Ey (V/m) @ t=0.2
-0.9233950051244673
% es.Ez (V/m) @ t=0.2
11.454548854922756
% es.tEx (V/m) @ t=0.2
-8.554597921104172
% es.tEy (V/m) @ t=0.2
0
% es.tEz (V/m) @ t=0.2
11.454548854922743
% V (V) @ t=0.2
0.012644134944001503
% es.normE (V/m) @ t=0.3
16.31886881007573
% es.EX (V/m) @ t=0.3
-9.067424424078208
% es.EY (V/m) @ t=0.3
-0.9787496698155334
% es.EZ (V/m) @ t=0.3
12.141219016541429
% es.tEX (V/m) @ t=0.3
-9.067424424078235
% es.tEY (V/m) @ t=0.3
0
% es.tEZ (V/m) @ t=0.3
12.14121901654142
% es.Ex (V/m) @ t=0.3
-9.067424424078208
% es.Ey (V/m) @ t=0.3
-0.9787496698155334
% es.Ez (V/m) @ t=0.3
12.141219016541429
% es.tEx (V/m) @ t=0.3
-9.067424424078235
% es.tEy (V/m) @ t=0.3
0
% es.tEz (V/m) @ t=0.3
12.14121901654142
% V (V) @ t=0.3
0.013402116684073123
% es.normE (V/m) @ t=0.4
17.285967469482745
% es.EX (V/m) @ t=0.4
-9.604784073354457
% es.EY (V/m) @ t=0.4
-1.0367525844301007
% es.EZ (V/m) @ t=0.4
12.860739085550376
% es.tEX (V/m) @ t=0.4
-9.60478407335447
% es.tEY (V/m) @ t=0.4
0
% es.tEZ (V/m) @ t=0.4
12.86073908555036
% es.Ex (V/m) @ t=0.4
-9.604784073354457
% es.Ey (V/m) @ t=0.4
-1.0367525844301007
% es.Ez (V/m) @ t=0.4
12.860739085550376
% es.tEx (V/m) @ t=0.4
-9.60478407335447
% es.tEy (V/m) @ t=0.4
0
% es.tEz (V/m) @ t=0.4
12.86073908555036
% V (V) @ t=0.4
0.014196360099704741
% es.normE (V/m) @ t=0.5
18.315664032026667
% es.EX (V/m) @ t=0.5
-10.176925930813901
% es.EY (V/m) @ t=0.5
-1.0985096871302713
% es.EZ (V/m) @ t=0.5
13.626831819268846
% es.tEX (V/m) @ t=0.5
-10.176925930813914
% es.tEY (V/m) @ t=0.5
0
% es.tEZ (V/m) @ t=0.5
13.626831819268826
% es.Ex (V/m) @ t=0.5
-10.176925930813901
% es.Ey (V/m) @ t=0.5
-1.0985096871302713
% es.Ez (V/m) @ t=0.5
13.626831819268846
% es.tEx (V/m) @ t=0.5
-10.176925930813914
% es.tEy (V/m) @ t=0.5
0
% es.tEz (V/m) @ t=0.5
13.626831819268826
% V (V) @ t=0.5
0.015042012390904911
% es.normE (V/m) @ t=0.6
19.38009669619128
% es.EX (V/m) @ t=0.6
-10.768368133755802
% es.EY (V/m) @ t=0.6
-1.1623504975686014
% es.EZ (V/m) @ t=0.6
14.418768325406175
% es.tEX (V/m) @ t=0.6
-10.768368133755814
% es.tEY (V/m) @ t=0.6
0
% es.tEZ (V/m) @ t=0.6
14.418768325406162
% es.Ex (V/m) @ t=0.6
-10.768368133755802
% es.Ey (V/m) @ t=0.6
-1.1623504975686014
% es.Ez (V/m) @ t=0.6
14.418768325406175
% es.tEx (V/m) @ t=0.6
-10.768368133755814
% es.tEy (V/m) @ t=0.6
0
% es.tEz (V/m) @ t=0.6
14.418768325406162
% V (V) @ t=0.6
0.015916193196142795
% es.normE (V/m) @ t=0.7
20.493656037185897
% es.EX (V/m) @ t=0.7
-11.387106486552982
% es.EY (V/m) @ t=0.7
-1.2291382603673462
% es.EZ (V/m) @ t=0.7
15.247255238654692
% es.tEX (V/m) @ t=0.7
-11.387106486552993
% es.tEY (V/m) @ t=0.7
0
% es.tEZ (V/m) @ t=0.7
15.247255238654672
% es.Ex (V/m) @ t=0.7
-11.387106486552982
% es.Ey (V/m) @ t=0.7
-1.2291382603673462
% es.Ez (V/m) @ t=0.7
15.247255238654692
% es.tEx (V/m) @ t=0.7
-11.387106486552993
% es.tEy (V/m) @ t=0.7
0
% es.tEz (V/m) @ t=0.7
15.247255238654672
% V (V) @ t=0.7
0.01683072139283176
% es.normE (V/m) @ t=0.8
21.65350231722722
% es.EX (V/m) @ t=0.8
-12.031563410747909
% es.EY (V/m) @ t=0.8
-1.2987024221189492
% es.EZ (V/m) @ t=0.8
16.110179692366145
% es.tEX (V/m) @ t=0.8
-12.031563410747927
% es.tEY (V/m) @ t=0.8
0
% es.tEZ (V/m) @ t=0.8
16.1101796923661
% es.Ex (V/m) @ t=0.8
-12.031563410747909
% es.Ey (V/m) @ t=0.8
-1.2987024221189492
% es.Ez (V/m) @ t=0.8
16.110179692366145
% es.tEx (V/m) @ t=0.8
-12.031563410747927
% es.tEy (V/m) @ t=0.8
0
% es.tEz (V/m) @ t=0.8
16.1101796923661
% V (V) @ t=0.8
0.01778326416098462
% es.normE (V/m) @ t=0.9
22.879017937340453
% es.EX (V/m) @ t=0.9
-12.712510217378636
% es.EY (V/m) @ t=0.9
-1.3722041477522477
% es.EZ (V/m) @ t=0.9
17.02196157373102
% es.tEX (V/m) @ t=0.9
-12.712510217378648
% es.tEY (V/m) @ t=0.9
0
% es.tEZ (V/m) @ t=0.9
17.021961573730994
% es.Ex (V/m) @ t=0.9
-12.712510217378636
% es.Ey (V/m) @ t=0.9
-1.3722041477522477
% es.Ez (V/m) @ t=0.9
17.02196157373102
% es.tEx (V/m) @ t=0.9
-12.712510217378648
% es.tEy (V/m) @ t=0.9
0
% es.tEz (V/m) @ t=0.9
17.021961573730994
% V (V) @ t=0.9
0.018789735974614766
% es.normE (V/m) @ t=1
24.160769532149565
% es.EX (V/m) @ t=1
-13.424704536706255
% es.EY (V/m) @ t=1
-1.4490783012440414
% es.EZ (V/m) @ t=1
17.975582760259034
% es.tEX (V/m) @ t=1
-13.424704536706287
% es.tEY (V/m) @ t=1
0
% es.tEZ (V/m) @ t=1
17.97558276025901
% es.Ex (V/m) @ t=1
-13.424704536706255
% es.Ey (V/m) @ t=1
-1.4490783012440414
% es.Ez (V/m) @ t=1
17.975582760259034
% es.tEx (V/m) @ t=1
-13.424704536706287
% es.tEy (V/m) @ t=1
0
% es.tEz (V/m) @ t=1
17.97558276025901
% V (V) @ t=1
0.01984239129961924
% es.normE (V/m) @ t=1.1
25.50460739475274
% es.EX (V/m) @ t=1.1
-14.171395870049395
% es.EY (V/m) @ t=1.1
-1.5296766754743434
% es.EZ (V/m) @ t=1.1
18.97539628391046
% es.tEX (V/m) @ t=1.1
-14.171395870049405
% es.tEY (V/m) @ t=1.1
0
% es.tEZ (V/m) @ t=1.1
18.975396283910435
% es.Ex (V/m) @ t=1.1
-14.171395870049395
% es.Ey (V/m) @ t=1.1
-1.5296766754743434
% es.Ez (V/m) @ t=1.1
18.97539628391046
% es.tEx (V/m) @ t=1.1
-14.171395870049405
% es.tEy (V/m) @ t=1.1
0
% es.tEz (V/m) @ t=1.1
18.975396283910435
% V (V) @ t=1.1
0.020946037278273783
% es.normE (V/m) @ t=1.2
26.915087263563088
% es.EX (V/m) @ t=1.2
-14.95511466805917
% es.EY (V/m) @ t=1.2
-1.6142732184847146
% es.EZ (V/m) @ t=1.2
20.024791936373152
% es.tEX (V/m) @ t=1.2
-14.95511466805921
% es.tEY (V/m) @ t=1.2
0
% es.tEZ (V/m) @ t=1.2
20.024791936373134
% es.Ex (V/m) @ t=1.2
-14.95511466805917
% es.Ey (V/m) @ t=1.2
-1.6142732184847146
% es.Ez (V/m) @ t=1.2
20.024791936373152
% es.tEx (V/m) @ t=1.2
-14.95511466805921
% es.tEy (V/m) @ t=1.2
0
% es.tEz (V/m) @ t=1.2
20.024791936373134
% V (V) @ t=1.2
0.022104417326909053
% es.normE (V/m) @ t=1.3
28.38874093978851
% es.EX (V/m) @ t=1.3
-15.773934545790635
% es.EY (V/m) @ t=1.3
-1.7026593787339284
% es.EZ (V/m) @ t=1.3
21.121189132378213
% es.tEX (V/m) @ t=1.3
-15.77393454579066
% es.tEY (V/m) @ t=1.3
0
% es.tEZ (V/m) @ t=1.3
21.12118913237819
% es.Ex (V/m) @ t=1.3
-15.773934545790635
% es.Ey (V/m) @ t=1.3
-1.7026593787339284
% es.Ez (V/m) @ t=1.3
21.121189132378213
% es.tEx (V/m) @ t=1.3
-15.77393454579066
% es.tEy (V/m) @ t=1.3
0
% es.tEz (V/m) @ t=1.3
21.12118913237819
% V (V) @ t=1.3
0.0233146816524026
% es.normE (V/m) @ t=1.4
29.933915644368902
% es.EX (V/m) @ t=1.4
-16.632495367404218
% es.EY (V/m) @ t=1.4
-1.7953343705963025
% es.EZ (V/m) @ t=1.4
22.27079753529136
% es.tEX (V/m) @ t=1.4
-16.632495367404257
% es.tEY (V/m) @ t=1.4
0
% es.tEZ (V/m) @ t=1.4
22.270797535291337
% es.Ex (V/m) @ t=1.4
-16.632495367404218
% es.Ey (V/m) @ t=1.4
-1.7953343705963025
% es.Ez (V/m) @ t=1.4
22.27079753529136
% es.tEx (V/m) @ t=1.4
-16.632495367404257
% es.tEy (V/m) @ t=1.4
0
% es.tEz (V/m) @ t=1.4
22.270797535291337
% V (V) @ t=1.4
0.02458368163123368
% es.normE (V/m) @ t=1.5
31.547925861790418
% es.EX (V/m) @ t=1.5
-17.529304369347273
% es.EY (V/m) @ t=1.5
-1.8921375839770178
% es.EZ (V/m) @ t=1.5
23.471619336809212
% es.tEX (V/m) @ t=1.5
-17.52930436934727
% es.tEY (V/m) @ t=1.5
0
% es.tEZ (V/m) @ t=1.5
23.47161933680916
% es.Ex (V/m) @ t=1.5
-17.529304369347273
% es.Ey (V/m) @ t=1.5
-1.8921375839770178
% es.Ez (V/m) @ t=1.5
23.471619336809212
% es.tEx (V/m) @ t=1.5
-17.52930436934727
% es.tEy (V/m) @ t=1.5
0
% es.tEz (V/m) @ t=1.5
23.47161933680916
% V (V) @ t=1.5
0.025909212999497156
% es.normE (V/m) @ t=1.6
33.2302464762856
% es.EX (V/m) @ t=1.6
-18.464069662157844
% es.EY (V/m) @ t=1.6
-1.9930376137722536
% es.EZ (V/m) @ t=1.6
24.723263892887896
% es.tEX (V/m) @ t=1.6
-18.46406966215787
% es.tEY (V/m) @ t=1.6
0
% es.tEZ (V/m) @ t=1.6
24.72326389288785
% es.Ex (V/m) @ t=1.6
-18.464069662157844
% es.Ey (V/m) @ t=1.6
-1.9930376137722536
% es.Ez (V/m) @ t=1.6
24.723263892887896
% es.tEx (V/m) @ t=1.6
-18.46406966215787
% es.tEy (V/m) @ t=1.6
0
% es.tEz (V/m) @ t=1.6
24.72326389288785
% V (V) @ t=1.6
0.027290844743584727
% es.normE (V/m) @ t=1.7
34.98087748785464
% es.EX (V/m) @ t=1.7
-19.436791245836016
% es.EY (V/m) @ t=1.7
-2.0980344599822587
% es.EZ (V/m) @ t=1.7
26.025731203527467
% es.tEX (V/m) @ t=1.7
-19.43679124583604
% es.tEY (V/m) @ t=1.7
0
% es.tEZ (V/m) @ t=1.7
26.02573120352744
% es.Ex (V/m) @ t=1.7
-19.436791245836016
% es.Ey (V/m) @ t=1.7
-2.0980344599822587
% es.Ez (V/m) @ t=1.7
26.025731203527467
% es.tEx (V/m) @ t=1.7
-19.43679124583604
% es.tEy (V/m) @ t=1.7
0
% es.tEz (V/m) @ t=1.7
26.02573120352744
% V (V) @ t=1.7
0.02872857686349639
% es.normE (V/m) @ t=1.8
36.799818896497385
% es.EX (V/m) @ t=1.8
-20.447469120381633
% es.EY (V/m) @ t=1.8
-2.2071281226068846
% es.EZ (V/m) @ t=1.8
27.379021268727833
% es.tEX (V/m) @ t=1.8
-20.447469120381644
% es.tEY (V/m) @ t=1.8
0
% es.tEZ (V/m) @ t=1.8
27.379021268727797
% es.Ex (V/m) @ t=1.8
-20.447469120381633
% es.Ey (V/m) @ t=1.8
-2.2071281226068846
% es.Ez (V/m) @ t=1.8
27.379021268727833
% es.tEx (V/m) @ t=1.8
-20.447469120381644
% es.tEy (V/m) @ t=1.8
0
% es.tEz (V/m) @ t=1.8
27.379021268727797
% V (V) @ t=1.8
0.030222409359232136
% es.normE (V/m) @ t=1.9
38.66853682345867
% es.EX (V/m) @ t=1.9
-21.48580489621267
% es.EY (V/m) @ t=1.9
-2.3192071637488336
% es.EZ (V/m) @ t=1.9
28.769344983666404
% es.tEX (V/m) @ t=1.9
-21.485804896212695
% es.tEY (V/m) @ t=1.9
0
% es.tEZ (V/m) @ t=1.9
28.769344983666375
% es.Ex (V/m) @ t=1.9
-21.48580489621267
% es.Ey (V/m) @ t=1.9
-2.3192071637488336
% es.Ez (V/m) @ t=1.9
28.769344983666404
% es.tEx (V/m) @ t=1.9
-21.485804896212695
% es.tEy (V/m) @ t=1.9
0
% es.tEz (V/m) @ t=1.9
28.769344983666375
% V (V) @ t=1.9
0.031757121434245326
% es.normE (V/m) @ t=2
40.58946133941308
% es.EX (V/m) @ t=2
-22.5531488473244
% es.EY (V/m) @ t=2
-2.4344173096579427
% es.EZ (V/m) @ t=2
30.198510307686195
% es.tEX (V/m) @ t=2
-22.55314884732441
% es.tEY (V/m) @ t=2
0
% es.tEZ (V/m) @ t=2
30.198510307686153
% es.Ex (V/m) @ t=2
-22.5531488473244
% es.Ey (V/m) @ t=2
-2.4344173096579427
% es.Ez (V/m) @ t=2
30.198510307686195
% es.tEx (V/m) @ t=2
-22.55314884732441
% es.tEy (V/m) @ t=2
0
% es.tEz (V/m) @ t=2
30.198510307686153
% V (V) @ t=2
0.033334708764229004
% es.normE (V/m) @ t=2.1
42.56958943922613
% es.EX (V/m) @ t=2.1
-23.6533888689591
% es.EY (V/m) @ t=2.1
-2.553178155463562
% es.EZ (V/m) @ t=2.1
31.671722966848055
% es.tEX (V/m) @ t=2.1
-23.653388868959155
% es.tEY (V/m) @ t=2.1
0
% es.tEZ (V/m) @ t=2.1
31.671722966848016
% es.Ex (V/m) @ t=2.1
-23.6533888689591
% es.Ey (V/m) @ t=2.1
-2.553178155463562
% es.Ez (V/m) @ t=2.1
31.671722966848055
% es.tEx (V/m) @ t=2.1
-23.653388868959155
% es.tEy (V/m) @ t=2.1
0
% es.tEz (V/m) @ t=2.1
31.671722966848016
% V (V) @ t=2.1
0.03496091757406653
% es.normE (V/m) @ t=2.2
44.608921122897755
% es.EX (V/m) @ t=2.2
-24.786524961116736
% es.EY (V/m) @ t=2.2
-2.675489701165855
% es.EZ (V/m) @ t=2.2
33.18898296115193
% es.tEX (V/m) @ t=2.2
-24.786524961116758
% es.tEY (V/m) @ t=2.2
0
% es.tEZ (V/m) @ t=2.2
33.18898296115192
% es.Ex (V/m) @ t=2.2
-24.786524961116736
% es.Ey (V/m) @ t=2.2
-2.675489701165855
% es.Ez (V/m) @ t=2.2
33.18898296115193
% es.tEx (V/m) @ t=2.2
-24.786524961116758
% es.tEy (V/m) @ t=2.2
0
% es.tEz (V/m) @ t=2.2
33.18898296115192
% V (V) @ t=2.2
0.03663574786375791
% es.normE (V/m) @ t=2.3
46.70745639042826
% es.EX (V/m) @ t=2.3
-25.95255712379732
% es.EY (V/m) @ t=2.3
-2.8013519467648713
% es.EZ (V/m) @ t=2.3
34.750290290597995
% es.tEX (V/m) @ t=2.3
-25.952557123797344
% es.tEY (V/m) @ t=2.3
0
% es.tEZ (V/m) @ t=2.3
34.75029029059796
% es.Ex (V/m) @ t=2.3
-25.95255712379732
% es.Ey (V/m) @ t=2.3
-2.8013519467648713
% es.Ez (V/m) @ t=2.3
34.750290290597995
% es.tEx (V/m) @ t=2.3
-25.952557123797344
% es.tEy (V/m) @ t=2.3
0
% es.tEz (V/m) @ t=2.3
34.75029029059796
% V (V) @ t=2.3
0.03835919963330314
% es.normE (V/m) @ t=2.4
48.833337829593304
% es.EX (V/m) @ t=2.4
-27.133782697468153
% es.EY (V/m) @ t=2.4
-2.9288553249770786
% es.EZ (V/m) @ t=2.4
36.33194355405784
% es.tEX (V/m) @ t=2.4
-27.133782697468174
% es.tEY (V/m) @ t=2.4
0
% es.tEZ (V/m) @ t=2.4
36.33194355405777
% es.Ex (V/m) @ t=2.4
-27.133782697468153
% es.Ey (V/m) @ t=2.4
-2.9288553249770786
% es.Ez (V/m) @ t=2.4
36.33194355405784
% es.tEx (V/m) @ t=2.4
-27.133782697468174
% es.tEy (V/m) @ t=2.4
0
% es.tEz (V/m) @ t=2.4
36.33194355405777
% V (V) @ t=2.4
0.04010511253114187
% es.normE (V/m) @ t=2.5
50.96251710475005
% es.EX (V/m) @ t=2.5
-28.31683840280138
% es.EY (V/m) @ t=2.5
-3.0565583529019946
% es.EZ (V/m) @ t=2.5
37.91605117749121
% es.tEX (V/m) @ t=2.5
-28.31683840280143
% es.tEY (V/m) @ t=2.5
0
% es.tEZ (V/m) @ t=2.5
37.91605117749116
% es.Ex (V/m) @ t=2.5
-28.31683840280138
% es.Ey (V/m) @ t=2.5
-3.0565583529019946
% es.Ez (V/m) @ t=2.5
37.91605117749121
% es.tEx (V/m) @ t=2.5
-28.31683840280143
% es.tEy (V/m) @ t=2.5
0
% es.tEz (V/m) @ t=2.5
37.91605117749116
% V (V) @ t=2.5
0.04185373878521921
% es.normE (V/m) @ t=2.6
53.12632863785322
% es.EX (V/m) @ t=2.6
-29.51913628191803
% es.EY (V/m) @ t=2.6
-3.1863392492284905
% es.EZ (V/m) @ t=2.6
39.525925465696524
% es.tEX (V/m) @ t=2.6
-29.51913628191803
% es.tEY (V/m) @ t=2.6
0
% es.tEZ (V/m) @ t=2.6
39.52592546569646
% es.Ex (V/m) @ t=2.6
-29.51913628191803
% es.Ey (V/m) @ t=2.6
-3.1863392492284905
% es.Ez (V/m) @ t=2.6
39.525925465696524
% es.tEx (V/m) @ t=2.6
-29.51913628191803
% es.tEy (V/m) @ t=2.6
0
% es.tEz (V/m) @ t=2.6
39.52592546569646
% V (V) @ t=2.6
0.043630809283169814
% es.normE (V/m) @ t=2.7
55.32477242890337
% es.EX (V/m) @ t=2.7
-30.740676334818147
% es.EY (V/m) @ t=2.7
-3.3181980139566374
% es.EZ (V/m) @ t=2.7
41.16156641867398
% es.tEX (V/m) @ t=2.7
-30.74067633481817
% es.tEY (V/m) @ t=2.7
0
% es.tEZ (V/m) @ t=2.7
41.16156641867393
% es.Ex (V/m) @ t=2.7
-30.740676334818147
% es.Ey (V/m) @ t=2.7
-3.3181980139566374
% es.Ez (V/m) @ t=2.7
41.16156641867398
% es.tEx (V/m) @ t=2.7
-30.74067633481817
% es.tEy (V/m) @ t=2.7
0
% es.tEz (V/m) @ t=2.7
41.16156641867393
% V (V) @ t=2.7
0.045436324024993695
% es.normE (V/m) @ t=2.8
57.557848477900606
% es.EX (V/m) @ t=2.8
-31.98145856150152
% es.EY (V/m) @ t=2.8
-3.452134647086263
% es.EZ (V/m) @ t=2.8
42.82297403642359
% es.tEX (V/m) @ t=2.8
-31.981458561501604
% es.tEY (V/m) @ t=2.8
0
% es.tEZ (V/m) @ t=2.8
42.82297403642351
% es.Ex (V/m) @ t=2.8
-31.98145856150152
% es.Ey (V/m) @ t=2.8
-3.452134647086263
% es.Ez (V/m) @ t=2.8
42.82297403642359
% es.tEx (V/m) @ t=2.8
-31.981458561501604
% es.tEy (V/m) @ t=2.8
0
% es.tEz (V/m) @ t=2.8
42.82297403642351
% V (V) @ t=2.8
0.04727028301069084
% es.normE (V/m) @ t=2.9
59.80721576627969
% es.EX (V/m) @ t=2.9
-33.23129302753229
% es.EY (V/m) @ t=2.9
-3.5870482108711617
% es.EZ (V/m) @ t=2.9
44.49650228845016
% es.tEX (V/m) @ t=2.9
-33.23129302753231
% es.tEY (V/m) @ t=2.9
0
% es.tEZ (V/m) @ t=2.9
44.49650228845009
% es.Ex (V/m) @ t=2.9
-33.23129302753229
% es.Ey (V/m) @ t=2.9
-3.5870482108711617
% es.Ez (V/m) @ t=2.9
44.49650228845016
% es.tEx (V/m) @ t=2.9
-33.23129302753231
% es.tEy (V/m) @ t=2.9
0
% es.tEz (V/m) @ t=2.9
44.49650228845009
% V (V) @ t=2.9
0.0491176210337107
% es.normE (V/m) @ t=3
62.00939029306775
% es.EX (V/m) @ t=3
-34.454909183169214
% es.EY (V/m) @ t=3
-3.719128015479223
% es.EZ (V/m) @ t=3
46.13491799573858
% es.tEX (V/m) @ t=3
-34.454909183169235
% es.tEY (V/m) @ t=3
0
% es.tEZ (V/m) @ t=3
46.13491799573852
% es.Ex (V/m) @ t=3
-34.454909183169214
% es.Ey (V/m) @ t=3
-3.719128015479223
% es.Ez (V/m) @ t=3
46.13491799573858
% es.tEx (V/m) @ t=3
-34.454909183169235
% es.tEy (V/m) @ t=3
0
% es.tEz (V/m) @ t=3
46.13491799573852
% V (V) @ t=3
0.05092619270289886
% es.normE (V/m) @ t=3.1
64.2162077071568
% es.EX (V/m) @ t=3.1
-35.681105966800324
% es.EY (V/m) @ t=3.1
-3.851485546909375
% es.EZ (V/m) @ t=3.1
47.776787764772266
% es.tEX (V/m) @ t=3.1
-35.681105966800345
% es.tEY (V/m) @ t=3.1
0
% es.tEZ (V/m) @ t=3.1
47.776787764772216
% es.Ex (V/m) @ t=3.1
-35.681105966800324
% es.Ey (V/m) @ t=3.1
-3.851485546909375
% es.Ez (V/m) @ t=3.1
47.776787764772266
% es.tEx (V/m) @ t=3.1
-35.681105966800345
% es.tEy (V/m) @ t=3.1
0
% es.tEz (V/m) @ t=3.1
47.776787764772216
% V (V) @ t=3.1
0.052738575520395174
% es.normE (V/m) @ t=3.2
66.427668008547
% es.EX (V/m) @ t=3.2
-36.90988337842562
% es.EY (V/m) @ t=3.2
-3.9841208051614085
% es.EZ (V/m) @ t=3.2
49.422111595551485
% es.tEX (V/m) @ t=3.2
-36.90988337842564
% es.tEY (V/m) @ t=3.2
0
% es.tEZ (V/m) @ t=3.2
49.42211159555143
% es.Ex (V/m) @ t=3.2
-36.90988337842562
% es.Ey (V/m) @ t=3.2
-3.9841208051614085
% es.Ez (V/m) @ t=3.2
49.422111595551485
% es.tEx (V/m) @ t=3.2
-36.90988337842564
% es.tEy (V/m) @ t=3.2
0
% es.tEz (V/m) @ t=3.2
49.42211159555143
% V (V) @ t=3.2
0.054554769486199625
% es.normE (V/m) @ t=3.3
68.64377119723844
% es.EX (V/m) @ t=3.3
-38.14124141804524
% es.EY (V/m) @ t=3.3
-4.117033790235482
% es.EZ (V/m) @ t=3.3
51.07088948807598
% es.tEX (V/m) @ t=3.3
-38.14124141804535
% es.tEY (V/m) @ t=3.3
0
% es.tEZ (V/m) @ t=3.3
51.070889488075935
% es.Ex (V/m) @ t=3.3
-38.14124141804524
% es.Ey (V/m) @ t=3.3
-4.117033790235482
% es.Ez (V/m) @ t=3.3
51.07088948807598
% es.tEx (V/m) @ t=3.3
-38.14124141804535
% es.tEy (V/m) @ t=3.3
0
% es.tEz (V/m) @ t=3.3
51.070889488075935
% V (V) @ t=3.3
0.05637477460031222
% es.normE (V/m) @ t=3.4
70.86451727323102
% es.EX (V/m) @ t=3.4
-39.37518008565899
% es.EY (V/m) @ t=3.4
-4.250224502131392
% es.EZ (V/m) @ t=3.4
52.72312144234566
% es.tEX (V/m) @ t=3.4
-39.37518008565901
% es.tEY (V/m) @ t=3.4
0
% es.tEZ (V/m) @ t=3.4
52.72312144234559
% es.Ex (V/m) @ t=3.4
-39.37518008565899
% es.Ey (V/m) @ t=3.4
-4.250224502131392
% es.Ez (V/m) @ t=3.4
52.72312144234566
% es.tEx (V/m) @ t=3.4
-39.37518008565901
% es.tEy (V/m) @ t=3.4
0
% es.tEz (V/m) @ t=3.4
52.72312144234559
% V (V) @ t=3.4
0.05819859086273293
% es.normE (V/m) @ t=3.5
73.0525911844693
% es.EX (V/m) @ t=3.5
-40.590964495013324
% es.EY (V/m) @ t=3.5
-4.381455971870965
% es.EZ (V/m) @ t=3.5
54.351045289629006
% es.tEX (V/m) @ t=3.5
-40.59096449501331
% es.tEY (V/m) @ t=3.5
0
% es.tEZ (V/m) @ t=3.5
54.35104528962896
% es.Ex (V/m) @ t=3.5
-40.590964495013324
% es.Ey (V/m) @ t=3.5
-4.381455971870965
% es.Ez (V/m) @ t=3.5
54.351045289629006
% es.tEx (V/m) @ t=3.5
-40.59096449501331
% es.tEy (V/m) @ t=3.5
0
% es.tEz (V/m) @ t=3.5
54.35104528962896
% V (V) @ t=3.5
0.059995575139689936
% es.normE (V/m) @ t=3.6
75.22539922872994
% es.EX (V/m) @ t=3.6
-41.79826681818365
% es.EY (V/m) @ t=3.6
-4.511771675103088
% es.EZ (V/m) @ t=3.6
55.96761120818509
% es.tEX (V/m) @ t=3.6
-41.7982668181837
% es.tEY (V/m) @ t=3.6
0
% es.tEZ (V/m) @ t=3.6
55.967611208185076
% es.Ex (V/m) @ t=3.6
-41.79826681818365
% es.Ey (V/m) @ t=3.6
-4.511771675103088
% es.Ez (V/m) @ t=3.6
55.96761120818509
% es.tEx (V/m) @ t=3.6
-41.7982668181837
% es.tEy (V/m) @ t=3.6
0
% es.tEz (V/m) @ t=3.6
55.967611208185076
% V (V) @ t=3.6
0.06178002148899247
% es.normE (V/m) @ t=3.7
77.37999448624976
% es.EX (V/m) @ t=3.7
-42.995449537795345
% es.EY (V/m) @ t=3.7
-4.640994949389055
% es.EZ (V/m) @ t=3.7
57.57062670787412
% es.tEX (V/m) @ t=3.7
-42.995449537795395
% es.tEY (V/m) @ t=3.7
0
% es.tEZ (V/m) @ t=3.7
57.57062670787405
% es.Ex (V/m) @ t=3.7
-42.995449537795345
% es.Ey (V/m) @ t=3.7
-4.640994949389055
% es.Ez (V/m) @ t=3.7
57.57062670787412
% es.tEx (V/m) @ t=3.7
-42.995449537795395
% es.tEy (V/m) @ t=3.7
0
% es.tEz (V/m) @ t=3.7
57.57062670787405
% V (V) @ t=3.7
0.06354950989910256
% es.normE (V/m) @ t=3.8
79.5132131878201
% es.EX (V/m) @ t=3.8
-44.18075463956011
% es.EY (V/m) @ t=3.8
-4.7689361325633435
% es.EZ (V/m) @ t=3.8
59.15773796390511
% es.tEX (V/m) @ t=3.8
-44.18075463956018
% es.tEY (V/m) @ t=3.8
0
% es.tEZ (V/m) @ t=3.8
59.15773796390504
% es.Ex (V/m) @ t=3.8
-44.18075463956011
% es.Ey (V/m) @ t=3.8
-4.7689361325633435
% es.Ez (V/m) @ t=3.8
59.15773796390511
% es.tEx (V/m) @ t=3.8
-44.18075463956018
% es.tEy (V/m) @ t=3.8
0
% es.tEz (V/m) @ t=3.8
59.15773796390504
% V (V) @ t=3.8
0.06530144228164171
% es.normE (V/m) @ t=3.9
81.62189156423187
% es.EX (V/m) @ t=3.9
-45.35242410918978
% es.EY (V/m) @ t=3.9
-4.895405562460853
% es.EZ (V/m) @ t=3.9
60.7265911514871
% es.tEX (V/m) @ t=3.9
-45.35242410918986
% es.tEY (V/m) @ t=3.9
0
% es.tEZ (V/m) @ t=3.9
60.72659115148704
% es.Ex (V/m) @ t=3.9
-45.35242410918978
% es.Ey (V/m) @ t=3.9
-4.895405562460853
% es.Ez (V/m) @ t=3.9
60.7265911514871
% es.tEx (V/m) @ t=3.9
-45.35242410918986
% es.tEy (V/m) @ t=3.9
0
% es.tEz (V/m) @ t=3.9
60.72659115148704
% V (V) @ t=3.9
0.0670332205482315
% es.normE (V/m) @ t=4
83.71120601851291
% es.EX (V/m) @ t=4
-46.51333520556837
% es.EY (V/m) @ t=4
-5.0207127021868985
% es.EZ (V/m) @ t=4
62.28103737806186
% es.tEX (V/m) @ t=4
-46.513335205568474
% es.tEY (V/m) @ t=4
0
% es.tEZ (V/m) @ t=4
62.28103737806175
% es.Ex (V/m) @ t=4
-46.51333520556837
% es.Ey (V/m) @ t=4
-5.0207127021868985
% es.Ez (V/m) @ t=4
62.28103737806186
% es.tEx (V/m) @ t=4
-46.513335205568474
% es.tEy (V/m) @ t=4
0
% es.tEz (V/m) @ t=4
62.28103737806175
% V (V) @ t=4
0.0687490936962663
% es.normE (V/m) @ t=4.1
85.77750354364778
% es.EX (V/m) @ t=4.1
-47.66145800744785
% es.EY (V/m) @ t=4.1
-5.144638610690112
% es.EZ (V/m) @ t=4.1
63.81835883505573
% es.tEX (V/m) @ t=4.1
-47.661458007447955
% es.tEY (V/m) @ t=4.1
0
% es.tEZ (V/m) @ t=4.1
63.81835883505567
% es.Ex (V/m) @ t=4.1
-47.66145800744785
% es.Ey (V/m) @ t=4.1
-5.144638610690112
% es.Ez (V/m) @ t=4.1
63.81835883505573
% es.tEx (V/m) @ t=4.1
-47.661458007447955
% es.tEy (V/m) @ t=4.1
0
% es.tEz (V/m) @ t=4.1
63.81835883505567
% V (V) @ t=4.1
0.07044606198460415
% es.normE (V/m) @ t=4.2
87.81660781742544
% es.EX (V/m) @ t=4.2
-48.79447174720171
% es.EY (V/m) @ t=4.2
-5.2669330286399045
% es.EZ (V/m) @ t=4.2
65.33544837717291
% es.tEX (V/m) @ t=4.2
-48.79447174720173
% es.tEY (V/m) @ t=4.2
0
% es.tEZ (V/m) @ t=4.2
65.33544837717281
% es.Ex (V/m) @ t=4.2
-48.79447174720171
% es.Ey (V/m) @ t=4.2
-5.2669330286399045
% es.Ez (V/m) @ t=4.2
65.33544837717291
% es.tEx (V/m) @ t=4.2
-48.79447174720173
% es.tEy (V/m) @ t=4.2
0
% es.tEz (V/m) @ t=4.2
65.33544837717281
% V (V) @ t=4.2
0.07212069604260316
% es.normE (V/m) @ t=4.3
89.82633303410738
% es.EX (V/m) @ t=4.3
-49.91116193982464
% es.EY (V/m) @ t=4.3
-5.387464820994111
% es.EZ (V/m) @ t=4.3
66.83067976616233
% es.tEX (V/m) @ t=4.3
-49.911161939824744
% es.tEY (V/m) @ t=4.3
0
% es.tEZ (V/m) @ t=4.3
66.83067976616225
% es.Ex (V/m) @ t=4.3
-49.91116193982464
% es.Ey (V/m) @ t=4.3
-5.387464820994111
% es.Ez (V/m) @ t=4.3
66.83067976616233
% es.tEx (V/m) @ t=4.3
-49.911161939824744
% es.tEy (V/m) @ t=4.3
0
% es.tEz (V/m) @ t=4.3
66.83067976616225
% V (V) @ t=4.3
0.07377120066695347
% es.normE (V/m) @ t=4.4
91.80449338795404
% es.EX (V/m) @ t=4.4
-51.010314100310985
% es.EY (V/m) @ t=4.4
-5.50610285270926
% es.EZ (V/m) @ t=4.4
68.3024267637719
% es.tEX (V/m) @ t=4.4
-51.01031410031109
% es.tEY (V/m) @ t=4.4
0
% es.tEZ (V/m) @ t=4.4
68.3024267637718
% es.Ex (V/m) @ t=4.4
-51.010314100310985
% es.Ey (V/m) @ t=4.4
-5.50610285270926
% es.Ez (V/m) @ t=4.4
68.3024267637719
% es.tEx (V/m) @ t=4.4
-51.01031410031109
% es.tEy (V/m) @ t=4.4
0
% es.tEz (V/m) @ t=4.4
68.3024267637718
% V (V) @ t=4.4
0.07539578065434518
% es.normE (V/m) @ t=4.5
93.75136741525603
% es.EX (V/m) @ t=4.5
-52.092080390792354
% es.EY (V/m) @ t=4.5
-5.62286598739664
% es.EZ (V/m) @ t=4.5
69.75089743645202
% es.tEX (V/m) @ t=4.5
-52.0920803907924
% es.tEY (V/m) @ t=4.5
0
% es.tEZ (V/m) @ t=4.5
69.75089743645195
% es.Ex (V/m) @ t=4.5
-52.092080390792354
% es.Ey (V/m) @ t=4.5
-5.62286598739664
% es.Ez (V/m) @ t=4.5
69.75089743645202
% es.tEx (V/m) @ t=4.5
-52.0920803907924
% es.tEy (V/m) @ t=4.5
0
% es.tEz (V/m) @ t=4.5
69.75089743645195
% V (V) @ t=4.5
0.07699467043193084
% es.normE (V/m) @ t=4.6
95.66649566387798
% es.EX (V/m) @ t=4.6
-53.156203708063735
% es.EY (V/m) @ t=4.6
-5.737728169063196
% es.EZ (V/m) @ t=4.6
71.17575053744035
% es.tEX (V/m) @ t=4.6
-53.15620370806389
% es.tEY (V/m) @ t=4.6
0
% es.tEZ (V/m) @ t=4.6
71.17575053744031
% es.Ex (V/m) @ t=4.6
-53.156203708063735
% es.Ey (V/m) @ t=4.6
-5.737728169063196
% es.Ez (V/m) @ t=4.6
71.17575053744035
% es.tEx (V/m) @ t=4.6
-53.15620370806389
% es.tEy (V/m) @ t=4.6
0
% es.tEz (V/m) @ t=4.6
71.17575053744031
% V (V) @ t=4.6
0.07856749662008516
% es.normE (V/m) @ t=4.7
97.54648558252185
% es.EX (V/m) @ t=4.7
-54.20080034371623
% es.EY (V/m) @ t=4.7
-5.850484810925451
% es.EZ (V/m) @ t=4.7
72.57446160128052
% es.tEX (V/m) @ t=4.7
-54.2008003437163
% es.tEY (V/m) @ t=4.7
0
% es.tEZ (V/m) @ t=4.7
72.57446160128043
% es.Ex (V/m) @ t=4.7
-54.20080034371623
% es.Ey (V/m) @ t=4.7
-5.850484810925451
% es.Ez (V/m) @ t=4.7
72.57446160128052
% es.tEx (V/m) @ t=4.7
-54.2008003437163
% es.tEy (V/m) @ t=4.7
0
% es.tEz (V/m) @ t=4.7
72.57446160128043
% V (V) @ t=4.7
0.08011147014065631
% es.normE (V/m) @ t=4.8
99.38959272913891
% es.EX (V/m) @ t=4.8
-55.22490057926421
% es.EY (V/m) @ t=4.8
-5.961031642701503
% es.EZ (V/m) @ t=4.8
73.94573291371735
% es.tEX (V/m) @ t=4.8
-55.22490057926431
% es.tEY (V/m) @ t=4.8
0
% es.tEZ (V/m) @ t=4.8
73.94573291371734
% es.Ex (V/m) @ t=4.8
-55.22490057926421
% es.Ey (V/m) @ t=4.8
-5.961031642701503
% es.Ez (V/m) @ t=4.8
73.94573291371735
% es.tEx (V/m) @ t=4.8
-55.22490057926431
% es.tEy (V/m) @ t=4.8
0
% es.tEz (V/m) @ t=4.8
73.94573291371734
% V (V) @ t=4.8
0.08162515929717695
% es.normE (V/m) @ t=4.9
101.19407266168125
% es.EX (V/m) @ t=4.9
-56.22753469622276
% es.EY (V/m) @ t=4.9
-6.069264394109787
% es.EZ (V/m) @ t=4.9
75.28826676049557
% es.tEX (V/m) @ t=4.9
-56.227534696222875
% es.tEY (V/m) @ t=4.9
0
% es.tEZ (V/m) @ t=4.9
75.28826676049542
% es.Ex (V/m) @ t=4.9
-56.22753469622276
% es.Ey (V/m) @ t=4.9
-6.069264394109787
% es.Ez (V/m) @ t=4.9
75.28826676049557
% es.tEx (V/m) @ t=4.9
-56.227534696222875
% es.tEy (V/m) @ t=4.9
0
% es.tEz (V/m) @ t=4.9
75.28826676049542
% V (V) @ t=4.9
0.0831071323931798
% es.normE (V/m) @ t=5
102.95345095058084
% es.EX (V/m) @ t=5
-57.20510760705238
% es.EY (V/m) @ t=5
-6.17479282587313
% es.EZ (V/m) @ t=5
76.59724536027538
% es.tEX (V/m) @ t=5
-57.205107607052426
% es.tEY (V/m) @ t=5
0
% es.tEZ (V/m) @ t=5
76.59724536027532
% es.Ex (V/m) @ t=5
-57.20510760705238
% es.Ey (V/m) @ t=5
-6.17479282587313
% es.Ez (V/m) @ t=5
76.59724536027538
% es.tEx (V/m) @ t=5
-57.205107607052426
% es.tEy (V/m) @ t=5
0
% es.tEz (V/m) @ t=5
76.59724536027532
% V (V) @ t=5
0.08455206703795586
% es.normE (V/m) @ t=5.1
104.65353611653751
% es.EX (V/m) @ t=5.1
-58.14974089292188
% es.EY (V/m) @ t=5.1
-6.276760135760515
% es.EZ (V/m) @ t=5.1
77.86210788638508
% es.tEX (V/m) @ t=5.1
-58.149740892921926
% es.tEY (V/m) @ t=5.1
0
% es.tEZ (V/m) @ t=5.1
77.86210788638493
% es.Ex (V/m) @ t=5.1
-58.14974089292188
% es.Ey (V/m) @ t=5.1
-6.276760135760515
% es.Ez (V/m) @ t=5.1
77.86210788638508
% es.tEx (V/m) @ t=5.1
-58.149740892921926
% es.tEy (V/m) @ t=5.1
0
% es.tEz (V/m) @ t=5.1
77.86210788638493
% V (V) @ t=5.1
0.08594829311137182
% es.normE (V/m) @ t=5.2
106.29928566101687
% es.EX (V/m) @ t=5.2
-59.06418473419029
% es.EY (V/m) @ t=5.2
-6.375467244421468
% es.EZ (V/m) @ t=5.2
79.08654422562999
% es.tEX (V/m) @ t=5.2
-59.064184734190334
% es.tEY (V/m) @ t=5.2
0
% es.tEZ (V/m) @ t=5.2
79.08654422562988
% es.Ex (V/m) @ t=5.2
-59.06418473419029
% es.Ey (V/m) @ t=5.2
-6.375467244421468
% es.Ez (V/m) @ t=5.2
79.08654422562999
% es.tEx (V/m) @ t=5.2
-59.064184734190334
% es.tEy (V/m) @ t=5.2
0
% es.tEz (V/m) @ t=5.2
79.08654422562988
% V (V) @ t=5.2
0.08729989166153738
% es.normE (V/m) @ t=5.3
107.8873507567039
% es.EX (V/m) @ t=5.3
-59.946578901898434
% es.EY (V/m) @ t=5.3
-6.470712882493693
% es.EZ (V/m) @ t=5.3
80.26806267672187
% es.tEX (V/m) @ t=5.3
-59.94657890189848
% es.tEY (V/m) @ t=5.3
0
% es.tEZ (V/m) @ t=5.3
80.26806267672177
% es.Ex (V/m) @ t=5.3
-59.946578901898434
% es.Ey (V/m) @ t=5.3
-6.470712882493693
% es.Ez (V/m) @ t=5.3
80.26806267672187
% es.tEx (V/m) @ t=5.3
-59.94657890189848
% es.tEy (V/m) @ t=5.3
0
% es.tEz (V/m) @ t=5.3
80.26806267672177
% V (V) @ t=5.3
0.08860411129029636
% es.normE (V/m) @ t=5.4
109.41438257628226
% es.EX (V/m) @ t=5.4
-60.79506316708671