% Model:              1x1--2 - Copy1.mph
% Version:            COMSOL 6.1.0.252
% Date:               Mar 28 2023, 12:01
% Dimension:          0
% Nodes:              14017
% Expressions:        14017
% Description:        Electric field norm, Electric field, X component, Electric field, Y component, Electric field, Z component, Tangential electric field, X component, Tangential electric field, Y component, Tangential electric field, Z component, Electric field, x component, Electric field, y component, Electric field, z component, Tangential electric field, x component, Tangential electric field, y component, Tangential electric field, z component, Electric potential
% Length unit:        mm
% x
2
% y
12.2
% z
1
% es.normE (V/m) @ t=0
1.4432151282831613
% es.EX (V/m) @ t=0
-0.9320088473440209
% es.EY (V/m) @ t=0
0.20707015238014415
% es.EZ (V/m) @ t=0
1.0629199303273378
% es.tEX (V/m) @ t=0
-0.9320088473440178
% es.tEY (V/m) @ t=0
0
% es.tEZ (V/m) @ t=0
1.0629199303273493
% es.Ex (V/m) @ t=0
-0.9320088473440209
% es.Ey (V/m) @ t=0
0.20707015238014415
% es.Ez (V/m) @ t=0
1.0629199303273378
% es.tEx (V/m) @ t=0
-0.9320088473440178
% es.tEy (V/m) @ t=0
0
% es.tEz (V/m) @ t=0
1.0629199303273493
% V (V) @ t=0
0.013967499561022905
% es.normE (V/m) @ t=0.1
1.4846295438137669
% es.EX (V/m) @ t=0.1
-0.9587537316884003
% es.EY (V/m) @ t=0.1
0.21301224882407122
% es.EZ (V/m) @ t=0.1
1.093421398511758
% es.tEX (V/m) @ t=0.1
-0.9587537316883972
% es.tEY (V/m) @ t=0.1
0
% es.tEZ (V/m) @ t=0.1
1.0934213985117625
% es.Ex (V/m) @ t=0.1
-0.9587537316884003
% es.Ey (V/m) @ t=0.1
0.21301224882407122
% es.Ez (V/m) @ t=0.1
1.093421398511758
% es.tEx (V/m) @ t=0.1
-0.9587537316883972
% es.tEy (V/m) @ t=0.1
0
% es.tEz (V/m) @ t=0.1
1.0934213985117625
% V (V) @ t=0.1
0.014368306832948489
% es.normE (V/m) @ t=0.2
1.5748219710741092
% es.EX (V/m) @ t=0.2
-1.0169993872821
% es.EY (V/m) @ t=0.2
0.2259524131895987
% es.EZ (V/m) @ t=0.2
1.1598472356372413
% es.tEX (V/m) @ t=0.2
-1.0169993872820968
% es.tEY (V/m) @ t=0.2
0
% es.tEZ (V/m) @ t=0.2
1.1598472356372564
% es.Ex (V/m) @ t=0.2
-1.0169993872821
% es.Ey (V/m) @ t=0.2
0.2259524131895987
% es.Ez (V/m) @ t=0.2
1.1598472356372413
% es.tEx (V/m) @ t=0.2
-1.0169993872820968
% es.tEy (V/m) @ t=0.2
0
% es.tEz (V/m) @ t=0.2
1.1598472356372564
% V (V) @ t=0.2
0.015241265108934778
% es.normE (V/m) @ t=0.3
1.669374255893276
% es.EX (V/m) @ t=0.3
-1.0780617214969221
% es.EY (V/m) @ t=0.3
0.23951710568732076
% es.EZ (V/m) @ t=0.3
1.229483377570915
% es.tEX (V/m) @ t=0.3
-1.0780617214969217
% es.tEY (V/m) @ t=0.3
0
% es.tEZ (V/m) @ t=0.3
1.2294833775709186
% es.Ex (V/m) @ t=0.3
-1.0780617214969221
% es.Ey (V/m) @ t=0.3
0.23951710568732076
% es.Ez (V/m) @ t=0.3
1.229483377570915
% es.tEx (V/m) @ t=0.3
-1.0780617214969217
% es.tEy (V/m) @ t=0.3
0
% es.tEz (V/m) @ t=0.3
1.2294833775709186
% V (V) @ t=0.3
0.01615656499172682
% es.normE (V/m) @ t=0.4
1.7684525797353352
% es.EX (V/m) @ t=0.4
-1.1420485201230717
% es.EY (V/m) @ t=0.4
0.2537297512634762
% es.EZ (V/m) @ t=0.4
1.3024519269247232
% es.tEX (V/m) @ t=0.4
-1.1420485201230677
% es.tEY (V/m) @ t=0.4
0
% es.tEZ (V/m) @ t=0.4
1.302451926924732
% es.Ex (V/m) @ t=0.4
-1.1420485201230717
% es.Ey (V/m) @ t=0.4
0.2537297512634762
% es.Ez (V/m) @ t=0.4
1.3024519269247232
% es.tEx (V/m) @ t=0.4
-1.1420485201230677
% es.tEy (V/m) @ t=0.4
0
% es.tEz (V/m) @ t=0.4
1.302451926924732
% V (V) @ t=0.4
0.0171158751460776
% es.normE (V/m) @ t=0.5
1.8740319278732063
% es.EX (V/m) @ t=0.5
-1.2102357711212282
% es.EY (V/m) @ t=0.5
0.2688732115407948
% es.EZ (V/m) @ t=0.5
1.3802070969060427
% es.tEX (V/m) @ t=0.5
-1.2102357711212242
% es.tEY (V/m) @ t=0.5
0
% es.tEZ (V/m) @ t=0.5
1.3802070969060551
% es.Ex (V/m) @ t=0.5
-1.2102357711212282
% es.Ey (V/m) @ t=0.5
0.2688732115407948
% es.Ez (V/m) @ t=0.5
1.3802070969060427
% es.tEx (V/m) @ t=0.5
-1.2102357711212242
% es.tEy (V/m) @ t=0.5
0
% es.tEz (V/m) @ t=0.5
1.3802070969060551
% V (V) @ t=0.5
0.018138382742633467
% es.normE (V/m) @ t=0.6
1.9830986871869953
% es.EX (V/m) @ t=0.6
-1.280670484369276
% es.EY (V/m) @ t=0.6
0.28452121139419395
% es.EZ (V/m) @ t=0.6
1.4605336036865406
% es.tEX (V/m) @ t=0.6
-1.2806704843692716
% es.tEY (V/m) @ t=0.6
0
% es.tEZ (V/m) @ t=0.6
1.4605336036865406
% es.Ex (V/m) @ t=0.6
-1.280670484369276
% es.Ey (V/m) @ t=0.6
0.28452121139419395
% es.Ez (V/m) @ t=0.6
1.4605336036865406
% es.tEx (V/m) @ t=0.6
-1.2806704843692716
% es.tEy (V/m) @ t=0.6
0
% es.tEz (V/m) @ t=0.6
1.4605336036865406
% V (V) @ t=0.6
0.019194039954608083
% es.normE (V/m) @ t=0.7
2.097205564820561
% es.EX (V/m) @ t=0.7
-1.3543533020385845
% es.EY (V/m) @ t=0.7
0.3008983880013638
% es.EZ (V/m) @ t=0.7
1.5445762887594192
% es.tEX (V/m) @ t=0.7
-1.3543533020385867
% es.tEY (V/m) @ t=0.7
0
% es.tEZ (V/m) @ t=0.7
1.5445762887594192
% es.Ex (V/m) @ t=0.7
-1.3543533020385845
% es.Ey (V/m) @ t=0.7
0.3008983880013638
% es.Ez (V/m) @ t=0.7
1.5445762887594192
% es.tEx (V/m) @ t=0.7
-1.3543533020385867
% es.tEy (V/m) @ t=0.7
0
% es.tEz (V/m) @ t=0.7
1.5445762887594192
% V (V) @ t=0.7
0.020297606052443296
% es.normE (V/m) @ t=0.8
2.216019833524301
% es.EX (V/m) @ t=0.8
-1.4310717482455737
% es.EY (V/m) @ t=0.8
0.31795485994068895
% es.EZ (V/m) @ t=0.8
1.6320886211490642
% es.tEX (V/m) @ t=0.8
-1.431071748245576
% es.tEY (V/m) @ t=0.8
0
% es.tEZ (V/m) @ t=0.8
1.6320886211490588
% es.Ex (V/m) @ t=0.8
-1.4310717482455737
% es.Ey (V/m) @ t=0.8
0.31795485994068895
% es.Ez (V/m) @ t=0.8
1.6320886211490642
% es.tEx (V/m) @ t=0.8
-1.431071748245576
% es.tEy (V/m) @ t=0.8
0
% es.tEz (V/m) @ t=0.8
1.6320886211490588
% V (V) @ t=0.8
0.02144616988721376
% es.normE (V/m) @ t=0.9
2.341621589340406
% es.EX (V/m) @ t=0.9
-1.5121827784219266
% es.EY (V/m) @ t=0.9
0.3359768631841278
% es.EZ (V/m) @ t=0.9
1.7245941443205108
% es.tEX (V/m) @ t=0.9
-1.5121827784219217
% es.tEY (V/m) @ t=0.9
0
% es.tEZ (V/m) @ t=0.9
1.7245941443205268
% es.Ex (V/m) @ t=0.9
-1.5121827784219266
% es.Ey (V/m) @ t=0.9
0.3359768631841278
% es.Ez (V/m) @ t=0.9
1.7245941443205108
% es.tEx (V/m) @ t=0.9
-1.5121827784219217
% es.tEy (V/m) @ t=0.9
0
% es.tEz (V/m) @ t=0.9
1.7245941443205268
% V (V) @ t=0.9
0.02266162432575649
% es.normE (V/m) @ t=1
2.4730065376911226
% es.EX (V/m) @ t=1
-1.5970312387219376
% es.EY (V/m) @ t=1
0.35482619967931694
% es.EZ (V/m) @ t=1
1.8213572737903725
% es.tEX (V/m) @ t=1
-1.5970312387219394
% es.tEY (V/m) @ t=1
0
% es.tEZ (V/m) @ t=1
1.8213572737903885
% es.Ex (V/m) @ t=1
-1.5970312387219376
% es.Ey (V/m) @ t=1
0.35482619967931694
% es.Ez (V/m) @ t=1
1.8213572737903725
% es.tEx (V/m) @ t=1
-1.5970312387219394
% es.tEy (V/m) @ t=1
0
% es.tEz (V/m) @ t=1
1.8213572737903885
% V (V) @ t=1
0.023933399237640686
% es.normE (V/m) @ t=1.1
2.610741701849083
% es.EX (V/m) @ t=1.1
-1.6859815521346295
% es.EY (V/m) @ t=1.1
0.3745857932063428
% es.EZ (V/m) @ t=1.1
1.9227967015990917
% es.tEX (V/m) @ t=1.1
-1.6859815521346304
% es.tEY (V/m) @ t=1.1
0
% es.tEZ (V/m) @ t=1.1
1.9227967015991343
% es.Ex (V/m) @ t=1.1
-1.6859815521346295
% es.Ey (V/m) @ t=1.1
0.3745857932063428
% es.Ez (V/m) @ t=1.1
1.9227967015990917
% es.tEx (V/m) @ t=1.1
-1.6859815521346304
% es.tEy (V/m) @ t=1.1
0
% es.tEz (V/m) @ t=1.1
1.9227967015991343
% V (V) @ t=1.1
0.02526675611218702
% es.normE (V/m) @ t=1.2
2.7553280145290455
% es.EX (V/m) @ t=1.2
-1.779355665587894
% es.EY (V/m) @ t=1.2
0.395328902195873
% es.EZ (V/m) @ t=1.2
2.0292823182866098
% es.tEX (V/m) @ t=1.2
-1.7793556655878877
% es.tEY (V/m) @ t=1.2
0
% es.tEZ (V/m) @ t=1.2
2.0292823182866258
% es.Ex (V/m) @ t=1.2
-1.779355665587894
% es.Ey (V/m) @ t=1.2
0.395328902195873
% es.Ez (V/m) @ t=1.2
2.0292823182866098
% es.tEx (V/m) @ t=1.2
-1.7793556655878877
% es.tEy (V/m) @ t=1.2
0
% es.tEz (V/m) @ t=1.2
2.0292823182866258
% V (V) @ t=1.2
0.026666343175149685
% es.normE (V/m) @ t=1.3
2.9064007823579994
% es.EX (V/m) @ t=1.3
-1.8769191924900603
% es.EY (V/m) @ t=1.3
0.4170021924105254
% es.EZ (V/m) @ t=1.3
2.1405448329374916
% es.tEX (V/m) @ t=1.3
-1.8769191924900532
% es.tEY (V/m) @ t=1.3
0
% es.tEZ (V/m) @ t=1.3
2.1405448329375076
% es.Ex (V/m) @ t=1.3
-1.8769191924900603
% es.Ey (V/m) @ t=1.3
0.4170021924105254
% es.Ez (V/m) @ t=1.3
2.1405448329374916
% es.tEx (V/m) @ t=1.3
-1.8769191924900532
% es.tEy (V/m) @ t=1.3
0
% es.tEz (V/m) @ t=1.3
2.1405448329375076
% V (V) @ t=1.3
0.028128776384945067
% es.normE (V/m) @ t=1.4
3.0647634858528434
% es.EX (V/m) @ t=1.4
-1.979188841684783
% es.EY (V/m) @ t=1.4
0.4397228836949185
% es.EZ (V/m) @ t=1.4
2.2571773438844698
% es.tEX (V/m) @ t=1.4
-1.979188841684783
% es.tEY (V/m) @ t=1.4
0
% es.tEZ (V/m) @ t=1.4
2.2571773438845
% es.Ex (V/m) @ t=1.4
-1.979188841684783
% es.Ey (V/m) @ t=1.4
0.4397228836949185
% es.Ez (V/m) @ t=1.4
2.2571773438844698
% es.tEx (V/m) @ t=1.4
-1.979188841684783
% es.tEy (V/m) @ t=1.4
0
% es.tEz (V/m) @ t=1.4
2.2571773438845
% V (V) @ t=1.4
0.029661552359641092
% es.normE (V/m) @ t=1.5
3.230193290822192
% es.EX (V/m) @ t=1.5
-2.086021311134097
% es.EY (V/m) @ t=1.5
0.463458466749455
% es.EZ (V/m) @ t=1.5
2.3790153635232816
% es.tEX (V/m) @ t=1.5
-2.086021311134097
% es.tEY (V/m) @ t=1.5
0
% es.tEZ (V/m) @ t=1.5
2.3790153635232976
% es.Ex (V/m) @ t=1.5
-2.086021311134097
% es.Ey (V/m) @ t=1.5
0.463458466749455
% es.Ez (V/m) @ t=1.5
2.3790153635232816
% es.tEx (V/m) @ t=1.5
-2.086021311134097
% es.tEy (V/m) @ t=1.5
0
% es.tEz (V/m) @ t=1.5
2.3790153635232976
% V (V) @ t=1.5
0.03126259201609446
% es.normE (V/m) @ t=1.6
3.402621477027168
% es.EX (V/m) @ t=1.6
-2.197372407662736
% es.EY (V/m) @ t=1.6
0.48819891597221865
% es.EZ (V/m) @ t=1.6
2.5060081652234665
% es.tEX (V/m) @ t=1.6
-2.197372407662729
% es.tEY (V/m) @ t=1.6
0
% es.tEZ (V/m) @ t=1.6
2.5060081652234665
% es.Ex (V/m) @ t=1.6
-2.197372407662736
% es.Ey (V/m) @ t=1.6
0.48819891597221865
% es.Ez (V/m) @ t=1.6
2.5060081652234665
% es.tEx (V/m) @ t=1.6
-2.197372407662729
% es.tEy (V/m) @ t=1.6
0
% es.tEz (V/m) @ t=1.6
2.5060081652234665
% V (V) @ t=1.6
0.03293125418208532
% es.normE (V/m) @ t=1.7
3.5820480444694285
% es.EX (V/m) @ t=1.7
-2.3132421312707185
% es.EY (V/m) @ t=1.7
0.5139442313632636
% es.EZ (V/m) @ t=1.7
2.6381557489849747
% es.tEX (V/m) @ t=1.7
-2.3132421312707105
% es.tEY (V/m) @ t=1.7
0
% es.tEZ (V/m) @ t=1.7
2.638155748985046
% es.Ex (V/m) @ t=1.7
-2.3132421312707185
% es.Ey (V/m) @ t=1.7
0.5139442313632636
% es.Ez (V/m) @ t=1.7
2.6381557489849747
% es.tEx (V/m) @ t=1.7
-2.3132421312707105
% es.tEy (V/m) @ t=1.7
0
% es.tEz (V/m) @ t=1.7
2.638155748985046
% V (V) @ t=1.7
0.034667538857613686
% es.normE (V/m) @ t=1.8
3.7684729931516836
% es.EX (V/m) @ t=1.8
-2.4336304819580183
% es.EY (V/m) @ t=1.8
0.5406944129226461
% es.EZ (V/m) @ t=1.8
2.775458114807826
% es.tEX (V/m) @ t=1.8
-2.4336304819580103
% es.tEY (V/m) @ t=1.8
0
% es.tEZ (V/m) @ t=1.8
2.7754581148078437
% es.Ex (V/m) @ t=1.8
-2.4336304819580183
% es.Ey (V/m) @ t=1.8
0.5406944129226461
% es.Ez (V/m) @ t=1.8
2.775458114807826
% es.tEx (V/m) @ t=1.8
-2.4336304819580103
% es.tEy (V/m) @ t=1.8
0
% es.tEz (V/m) @ t=1.8
2.7754581148078437
% V (V) @ t=1.8
0.036471446042679545
% es.normE (V/m) @ t=1.9
3.960062550736321
% es.EX (V/m) @ t=1.9
-2.557353731127038
% es.EY (V/m) @ t=1.9
0.5681859041876205
% es.EZ (V/m) @ t=1.9
2.9165643941951664
% es.tEX (V/m) @ t=1.9
-2.55735373112703
% es.tEY (V/m) @ t=1.9
0
% es.tEZ (V/m) @ t=1.9
2.9165643941952233
% es.Ex (V/m) @ t=1.9
-2.557353731127038
% es.Ey (V/m) @ t=1.9
0.5681859041876205
% es.Ez (V/m) @ t=1.9
2.9165643941951664
% es.tEx (V/m) @ t=1.9
-2.55735373112703
% es.tEy (V/m) @ t=1.9
0
% es.tEz (V/m) @ t=1.9
2.9165643941952233
% V (V) @ t=1.9
0.038325293453257504
% es.normE (V/m) @ t=2
4.156878504547445
% es.EX (V/m) @ t=2
-2.6844517634568232
% es.EY (V/m) @ t=2
0.5964275854581107
% es.EZ (V/m) @ t=2
3.0615201034558446
% es.tEX (V/m) @ t=2
-2.6844517634568144
% es.tEY (V/m) @ t=2
0
% es.tEZ (V/m) @ t=2
3.061520103455873
% es.Ex (V/m) @ t=2
-2.6844517634568232
% es.Ey (V/m) @ t=2
0.5964275854581107
% es.Ez (V/m) @ t=2
3.0615201034558446
% es.tEx (V/m) @ t=2
-2.6844517634568144
% es.tEy (V/m) @ t=2
0
% es.tEz (V/m) @ t=2
3.061520103455873
% V (V) @ t=2
0.04022967687813292
% es.normE (V/m) @ t=2.1
4.359736946468419
% es.EX (V/m) @ t=2.1
-2.8154513789633366
% es.EY (V/m) @ t=2.1
0.6255367484419381
% es.EZ (V/m) @ t=2.1
3.2109264256204355
% es.tEX (V/m) @ t=2.1
-2.8154513789633127
% es.tEY (V/m) @ t=2.1
0
% es.tEZ (V/m) @ t=2.1
3.2109264256204533
% es.Ex (V/m) @ t=2.1
-2.8154513789633366
% es.Ey (V/m) @ t=2.1
0.6255367484419381
% es.Ez (V/m) @ t=2.1
3.2109264256204355
% es.tEx (V/m) @ t=2.1
-2.8154513789633127
% es.tEy (V/m) @ t=2.1
0
% es.tEz (V/m) @ t=2.1
3.2109264256204533
% V (V) @ t=2.1
0.042192465543009997
% es.normE (V/m) @ t=2.2
4.568637876501487
% es.EX (V/m) @ t=2.2
-2.9503525776466235
% es.EY (V/m) @ t=2.2
0.6555133931390276
% es.EZ (V/m) @ t=2.2
3.364783360688932
% es.tEX (V/m) @ t=2.2
-2.950352577646627
% es.tEY (V/m) @ t=2.2
0
% es.tEZ (V/m) @ t=2.2
3.364783360688964
% es.Ex (V/m) @ t=2.2
-2.9503525776466235
% es.Ey (V/m) @ t=2.2
0.6555133931390276
% es.Ez (V/m) @ t=2.2
3.364783360688932
% es.tEx (V/m) @ t=2.2
-2.950352577646627
% es.tEy (V/m) @ t=2.2
0
% es.tEz (V/m) @ t=2.2
3.364783360688964
% V (V) @ t=2.2
0.044213659447888735
% es.normE (V/m) @ t=2.3
4.783581294648938
% es.EX (V/m) @ t=2.3
-3.08915535950662
% es.EY (V/m) @ t=2.3
0.6863575195493361
% es.EZ (V/m) @ t=2.3
3.5230909086613984
% es.tEX (V/m) @ t=2.3
-3.0891553595066092
% es.tEY (V/m) @ t=2.3
0
% es.tEZ (V/m) @ t=2.3
3.5230909086614695
% es.Ex (V/m) @ t=2.3
-3.08915535950662
% es.Ey (V/m) @ t=2.3
0.6863575195493361
% es.Ez (V/m) @ t=2.3
3.5230909086613984
% es.tEx (V/m) @ t=2.3
-3.0891553595066092
% es.tEy (V/m) @ t=2.3
0
% es.tEz (V/m) @ t=2.3
3.5230909086614695
% V (V) @ t=2.3
0.04629325859276913
% es.normE (V/m) @ t=2.4
5.001612815770679
% es.EX (V/m) @ t=2.4
-3.229951514072857
% es.EY (V/m) @ t=2.4
0.7176455068820378
% es.EZ (V/m) @ t=2.4
3.6836733734542797
% es.tEX (V/m) @ t=2.4
-3.2299515140728463
% es.tEY (V/m) @ t=2.4
0
% es.tEZ (V/m) @ t=2.4
3.68367337345434
% es.Ex (V/m) @ t=2.4
-3.229951514072857
% es.Ey (V/m) @ t=2.4
0.7176455068820378
% es.Ez (V/m) @ t=2.4
3.6836733734542797
% es.tEx (V/m) @ t=2.4
-3.2299515140728463
% es.tEy (V/m) @ t=2.4
0
% es.tEz (V/m) @ t=2.4
3.68367337345434
% V (V) @ t=2.4
0.048402631737408885
% es.normE (V/m) @ t=2.5
5.219614167732287
% es.EX (V/m) @ t=2.5
-3.3707269777550213
% es.EY (V/m) @ t=2.5
0.748930235060763
% es.EZ (V/m) @ t=2.5
3.8442343677805155
% es.tEX (V/m) @ t=2.5
-3.370726977755025
% es.tEY (V/m) @ t=2.5
0
% es.tEZ (V/m) @ t=2.5
3.844234367780576
% es.Ex (V/m) @ t=2.5
-3.3707269777550213
% es.Ey (V/m) @ t=2.5
0.748930235060763
% es.Ez (V/m) @ t=2.5
3.8442343677805155
% es.tEx (V/m) @ t=2.5
-3.370726977755025
% es.tEy (V/m) @ t=2.5
0
% es.tEz (V/m) @ t=2.5
3.844234367780576
% V (V) @ t=2.5
0.05051155939637607
% es.normE (V/m) @ t=2.6
5.4411007450654925
% es.EX (V/m) @ t=2.6
-3.5137523118779477
% es.EY (V/m) @ t=2.6
0.780715766399013
% es.EZ (V/m) @ t=2.6
4.007362731528737
% es.tEX (V/m) @ t=2.6
-3.5137523118779637
% es.tEY (V/m) @ t=2.6
0
% es.tEZ (V/m) @ t=2.6
4.007362731528765
% es.Ex (V/m) @ t=2.6
-3.5137523118779477
% es.Ey (V/m) @ t=2.6
0.780715766399013
% es.Ez (V/m) @ t=2.6
4.007362731528737
% es.tEx (V/m) @ t=2.6
-3.5137523118779637
% es.tEy (V/m) @ t=2.6
0
% es.tEz (V/m) @ t=2.6
4.007362731528765
% V (V) @ t=2.6
0.05265410960764619
% es.normE (V/m) @ t=2.7
5.666072547774987
% es.EX (V/m) @ t=2.7
-3.659027516441663
% es.EY (V/m) @ t=2.7
0.8130021008967447
% es.EZ (V/m) @ t=2.7
4.173058464699
% es.tEX (V/m) @ t=2.7
-3.6590275164416486
% es.tEY (V/m) @ t=2.7
0
% es.tEZ (V/m) @ t=2.7
4.173058464699061
% es.Ex (V/m) @ t=2.7
-3.659027516441663
% es.Ey (V/m) @ t=2.7
0.8130021008967447
% es.Ez (V/m) @ t=2.7
4.173058464699
% es.tEx (V/m) @ t=2.7
-3.6590275164416486
% es.tEy (V/m) @ t=2.7
0
% es.tEz (V/m) @ t=2.7
4.173058464699061
% V (V) @ t=2.7
0.05483028237121924
% es.normE (V/m) @ t=2.8
5.894529575865429
% es.EX (V/m) @ t=2.8
-3.806552591446154
% es.EY (V/m) @ t=2.8
0.8457892385539734
% es.EZ (V/m) @ t=2.8
4.341321567291331
% es.tEX (V/m) @ t=2.8
-3.80655259144614
% es.tEY (V/m) @ t=2.8
0
% es.tEZ (V/m) @ t=2.8
4.341321567291363
% es.Ex (V/m) @ t=2.8
-3.806552591446154
% es.Ey (V/m) @ t=2.8
0.8457892385539734
% es.Ez (V/m) @ t=2.8
4.341321567291331
% es.tEx (V/m) @ t=2.8
-3.80655259144614
% es.tEy (V/m) @ t=2.8
0
% es.tEz (V/m) @ t=2.8
4.341321567291363
% V (V) @ t=2.8
0.057040077687095216
% es.normE (V/m) @ t=2.9
6.125082198159776
% es.EX (V/m) @ t=2.9
-3.955431915277863
% es.EY (V/m) @ t=2.9
0.8788761934308269
% es.EZ (V/m) @ t=2.9
4.511127485010039
% es.tEX (V/m) @ t=2.9
-3.955431915277849
% es.tEY (V/m) @ t=2.9
0
% es.tEZ (V/m) @ t=2.9
4.511127485010071
% es.Ex (V/m) @ t=2.9
-3.955431915277863
% es.Ey (V/m) @ t=2.9
0.8788761934308269
% es.Ez (V/m) @ t=2.9
4.511127485010039
% es.tEx (V/m) @ t=2.9
-3.955431915277849
% es.tEy (V/m) @ t=2.9
0
% es.tEz (V/m) @ t=2.9
4.511127485010071
% V (V) @ t=2.9
0.05927027729823353
% es.normE (V/m) @ t=3
6.350375771689555
% es.EX (V/m) @ t=3
-4.100925397700044
% es.EY (V/m) @ t=3
0.9111992445571198
% es.EZ (V/m) @ t=3
4.6770537495496995
% es.tEX (V/m) @ t=3
-4.1009253977000295
% es.tEY (V/m) @ t=3
0
% es.tEZ (V/m) @ t=3
4.677053749549717
% es.Ex (V/m) @ t=3
-4.100925397700044
% es.Ey (V/m) @ t=3
0.9111992445571198
% es.Ez (V/m) @ t=3
4.6770537495496995
% es.tEx (V/m) @ t=3
-4.1009253977000295
% es.tEy (V/m) @ t=3
0
% es.tEz (V/m) @ t=3
4.677053749549717
% V (V) @ t=3
0.06145092338963646
% es.normE (V/m) @ t=3.1
6.576072286914258
% es.EX (V/m) @ t=3.1
-4.24668220915056
% es.EY (V/m) @ t=3.1
0.9435773002077634
% es.EZ (V/m) @ t=3.1
4.843274861827343
% es.tEX (V/m) @ t=3.1
-4.24668220915056
% es.tEY (V/m) @ t=3.1
0
% es.tEZ (V/m) @ t=3.1
4.843274861827403
% es.Ex (V/m) @ t=3.1
-4.24668220915056
% es.Ey (V/m) @ t=3.1
0.9435773002077634
% es.Ez (V/m) @ t=3.1
4.843274861827343
% es.tEx (V/m) @ t=3.1
-4.24668220915056
% es.tEy (V/m) @ t=3.1
0
% es.tEz (V/m) @ t=3.1
4.843274861827403
% V (V) @ t=3.1
0.06363587316182821
% es.normE (V/m) @ t=3.2
6.802171743856242
% es.EX (V/m) @ t=3.2
-4.392702349629383
% es.EY (V/m) @ t=3.2
0.9760103603826145
% es.EZ (V/m) @ t=3.2
5.009790821843133
% es.tEX (V/m) @ t=3.2
-4.392702349629369
% es.tEY (V/m) @ t=3.2
0
% es.tEZ (V/m) @ t=3.2
5.009790821843133
% es.Ex (V/m) @ t=3.2
-4.392702349629383
% es.Ey (V/m) @ t=3.2
0.9760103603826145
% es.Ez (V/m) @ t=3.2
5.009790821843133
% es.tEx (V/m) @ t=3.2
-4.392702349629369
% es.tEy (V/m) @ t=3.2
0
% es.tEz (V/m) @ t=3.2
5.009790821843133
% V (V) @ t=3.2
0.06582512661480873
% es.normE (V/m) @ t=3.3
7.028674142544661
% es.EX (V/m) @ t=3.3
-4.538985819136505
% es.EY (V/m) @ t=3.3
1.0084984250818807
% es.EZ (V/m) @ t=3.3
5.176601629597052
% es.tEX (V/m) @ t=3.3
-4.538985819136489
% es.tEY (V/m) @ t=3.3
0
% es.tEZ (V/m) @ t=3.3
5.176601629597066
% es.Ex (V/m) @ t=3.3
-4.538985819136505
% es.Ey (V/m) @ t=3.3
1.0084984250818807
% es.Ez (V/m) @ t=3.3
5.176601629597052
% es.tEx (V/m) @ t=3.3
-4.538985819136489
% es.tEy (V/m) @ t=3.3
0
% es.tEz (V/m) @ t=3.3
5.176601629597066
% V (V) @ t=3.3
0.06801868374857803
% es.normE (V/m) @ t=3.4
7.2555794830143965
% es.EX (V/m) @ t=3.4
-4.685532617671898
% es.EY (V/m) @ t=3.4
1.0410414943052824
% es.EZ (V/m) @ t=3.4
5.343707285088968
% es.tEX (V/m) @ t=3.4
-4.685532617671882
% es.tEY (V/m) @ t=3.4
0
% es.tEZ (V/m) @ t=3.4
5.343707285089053
% es.Ex (V/m) @ t=3.4
-4.685532617671898
% es.Ey (V/m) @ t=3.4
1.0410414943052824
% es.Ez (V/m) @ t=3.4
5.343707285088968
% es.tEx (V/m) @ t=3.4
-4.685532617671882
% es.tEy (V/m) @ t=3.4
0
% es.tEz (V/m) @ t=3.4
5.343707285089053
% V (V) @ t=3.4
0.07021654456313614
% es.normE (V/m) @ t=3.5
7.479375066451338
% es.EX (V/m) @ t=3.5
-4.830071083777783
% es.EY (V/m) @ t=3.5
1.0731384607843735
% es.EZ (V/m) @ t=3.5
5.508522679425134
% es.tEX (V/m) @ t=3.5
-4.830071083777767
% es.tEY (V/m) @ t=3.5
0
% es.tEZ (V/m) @ t=3.5
5.508522679425226
% es.Ex (V/m) @ t=3.5
-4.830071083777783
% es.Ey (V/m) @ t=3.5
1.0731384607843735
% es.Ez (V/m) @ t=3.5
5.508522679425134
% es.tEx (V/m) @ t=3.5
-4.830071083777767
% es.tEy (V/m) @ t=3.5
0
% es.tEz (V/m) @ t=3.5
5.508522679425226
% V (V) @ t=3.5
0.07238429998374513
% es.normE (V/m) @ t=3.6
7.70135627408964
% es.EX (V/m) @ t=3.6
-4.9734389401715635
% es.EY (V/m) @ t=3.6
1.1049741183146846
% es.EZ (V/m) @ t=3.6
5.672001125626593
% es.tEX (V/m) @ t=3.6
-4.9734389401715475
% es.tEY (V/m) @ t=3.6
0
% es.tEZ (V/m) @ t=3.6
5.672001125626714
% es.Ex (V/m) @ t=3.6
-4.9734389401715635
% es.Ey (V/m) @ t=3.6
1.1049741183146846
% es.Ez (V/m) @ t=3.6
5.672001125626593
% es.tEx (V/m) @ t=3.6
-4.9734389401715475
% es.tEy (V/m) @ t=3.6
0
% es.tEz (V/m) @ t=3.6
5.672001125626714
% V (V) @ t=3.6
0.07453463907703167
% es.normE (V/m) @ t=3.7
7.92141826012193
% es.EX (V/m) @ t=3.7
-5.115568383090782
% es.EY (V/m) @ t=3.7
1.1365335100200058
% es.EZ (V/m) @ t=3.7
5.834065464260931
% es.tEX (V/m) @ t=3.7
-5.115568383090736
% es.tEY (V/m) @ t=3.7
0
% es.tEZ (V/m) @ t=3.7
5.834065464261052
% es.Ex (V/m) @ t=3.7
-5.115568383090782
% es.Ey (V/m) @ t=3.7
1.1365335100200058
% es.Ez (V/m) @ t=3.7
5.834065464260931
% es.tEx (V/m) @ t=3.7
-5.115568383090736
% es.tEy (V/m) @ t=3.7
0
% es.tEz (V/m) @ t=3.7
5.834065464261052
% V (V) @ t=3.7
0.07666653481288228
% es.normE (V/m) @ t=3.8
8.139237003501604
% es.EX (V/m) @ t=3.8
-5.256249868204451
% es.EY (V/m) @ t=3.8
1.16777041238148
% es.EZ (V/m) @ t=3.8
5.9944772377389555
% es.tEX (V/m) @ t=3.8
-5.256249868204433
% es.tEY (V/m) @ t=3.8
0
% es.tEZ (V/m) @ t=3.8
5.994477237739019
% es.Ex (V/m) @ t=3.8
-5.256249868204451
% es.Ey (V/m) @ t=3.8
1.16777041238148
% es.Ez (V/m) @ t=3.8
5.9944772377389555
% es.tEx (V/m) @ t=3.8
-5.256249868204433
% es.tEy (V/m) @ t=3.8
0
% es.tEz (V/m) @ t=3.8
5.994477237739019
% V (V) @ t=3.8
0.07877681320314528
% es.normE (V/m) @ t=3.9
8.354488483176569
% es.EX (V/m) @ t=3.9
-5.395273851181322
% es.EY (V/m) @ t=3.9
1.1986386018794608
% es.EZ (V/m) @ t=3.9
6.152997988472023
% es.tEX (V/m) @ t=3.9
-5.395273851181276
% es.tEY (V/m) @ t=3.9
0
% es.tEZ (V/m) @ t=3.9
6.152997988472087
% es.Ex (V/m) @ t=3.9
-5.395273851181322
% es.Ey (V/m) @ t=3.9
1.1986386018794608
% es.Ez (V/m) @ t=3.9
6.152997988472023
% es.tEx (V/m) @ t=3.9
-5.395273851181276
% es.tEy (V/m) @ t=3.9
0
% es.tEz (V/m) @ t=3.9
6.152997988472087
% V (V) @ t=3.9
0.08086230025966888
% es.normE (V/m) @ t=4
8.567588076075593
% es.EX (V/m) @ t=4
-5.532901672751915
% es.EY (V/m) @ t=4
1.2292038284931674
% es.EZ (V/m) @ t=4
6.309937911191696
% es.tEX (V/m) @ t=4
-5.532901672751896
% es.tEY (V/m) @ t=4
0
% es.tEZ (V/m) @ t=4
6.309937911191781
% es.Ex (V/m) @ t=4
-5.532901672751915
% es.Ey (V/m) @ t=4
1.2292038284931674
% es.Ez (V/m) @ t=4
6.309937911191696
% es.tEx (V/m) @ t=4
-5.532901672751896
% es.tEy (V/m) @ t=4
0
% es.tEz (V/m) @ t=4
6.309937911191781
% V (V) @ t=4
0.08292612503314409
% es.normE (V/m) @ t=4.1
8.778315058347648
% es.EX (V/m) @ t=4.1
-5.668989573368288
% es.EY (V/m) @ t=4.1
1.2594355119099996
% es.EZ (V/m) @ t=4.1
6.4651351975313816
% es.tEX (V/m) @ t=4.1
-5.668989573368268
% es.tEY (V/m) @ t=4.1
0
% es.tEZ (V/m) @ t=4.1
6.46513519753141
% es.Ex (V/m) @ t=4.1
-5.668989573368288
% es.Ey (V/m) @ t=4.1
1.2594355119099996
% es.Ez (V/m) @ t=4.1
6.4651351975313816
% es.tEx (V/m) @ t=4.1
-5.668989573368268
% es.tEy (V/m) @ t=4.1
0
% es.tEz (V/m) @ t=4.1
6.46513519753141
% V (V) @ t=4.1
0.08496599409859062
% es.normE (V/m) @ t=4.2
8.986183209972598
% es.EX (V/m) @ t=4.2
-5.803224712417416
% es.EY (V/m) @ t=4.2
1.2892628654060578
% es.EZ (V/m) @ t=4.2
6.618231034110153
% es.tEX (V/m) @ t=4.2
-5.803224712417423
% es.tEY (V/m) @ t=4.2
0
% es.tEZ (V/m) @ t=4.2
6.618231034110323
% es.Ex (V/m) @ t=4.2
-5.803224712417416
% es.Ey (V/m) @ t=4.2
1.2892628654060578
% es.Ez (V/m) @ t=4.2
6.618231034110153
% es.tEx (V/m) @ t=4.2
-5.803224712417423
% es.tEy (V/m) @ t=4.2
0
% es.tEz (V/m) @ t=4.2
6.618231034110323
% V (V) @ t=4.2
0.08697735079397464
% es.normE (V/m) @ t=4.3
9.190966783150943
% es.EX (V/m) @ t=4.3
-5.9354601308006245
% es.EY (V/m) @ t=4.3
1.3186545478354734
% es.EZ (V/m) @ t=4.3
6.769059884600942
% es.tEX (V/m) @ t=4.3
-5.935460130800605
% es.tEY (V/m) @ t=4.3
0
% es.tEZ (V/m) @ t=4.3
6.7690598846010275
% es.Ex (V/m) @ t=4.3
-5.9354601308006245
% es.Ey (V/m) @ t=4.3
1.3186545478354734
% es.Ez (V/m) @ t=4.3
6.769059884600942
% es.tEx (V/m) @ t=4.3
-5.935460130800605
% es.tEy (V/m) @ t=4.3
0
% es.tEz (V/m) @ t=4.3
6.7690598846010275
% V (V) @ t=4.3
0.08895785886668277
% es.normE (V/m) @ t=4.4
9.392440030135742
% es.EX (V/m) @ t=4.4
-6.065548869418977
% es.EY (V/m) @ t=4.4
1.3475792180525623
% es.EZ (V/m) @ t=4.4
6.917456212676939
% es.tEX (V/m) @ t=4.4
-6.0655488694189845
% es.tEY (V/m) @ t=4.4
0
% es.tEZ (V/m) @ t=4.4
6.917456212676946
% es.Ex (V/m) @ t=4.4
-6.065548869418977
% es.Ey (V/m) @ t=4.4
1.3475792180525623
% es.Ez (V/m) @ t=4.4
6.917456212676939
% es.tEx (V/m) @ t=4.4
-6.0655488694189845
% es.tEy (V/m) @ t=4.4
0
% es.tEz (V/m) @ t=4.4
6.917456212676946
% V (V) @ t=4.4
0.09090518206410163
% es.normE (V/m) @ t=4.5
9.590610322256275
% es.EX (V/m) @ t=4.5
-6.193503125245989
% es.EY (V/m) @ t=4.5
1.376031293734978
% es.EZ (V/m) @ t=4.5
7.063420850531202
% es.tEX (V/m) @ t=4.5
-6.19350312524594
% es.tEY (V/m) @ t=4.5
0
% es.tEZ (V/m) @ t=4.5
7.063420850531294
% es.Ex (V/m) @ t=4.5
-6.193503125245989
% es.Ey (V/m) @ t=4.5
1.376031293734978
% es.Ez (V/m) @ t=4.5
7.063420850531202
% es.tEx (V/m) @ t=4.5
-6.19350312524594
% es.tEy (V/m) @ t=4.5
0
% es.tEz (V/m) @ t=4.5
7.063420850531294
% V (V) @ t=4.5
0.09282035033072256
% es.normE (V/m) @ t=4.6
9.785531585502365
% es.EX (V/m) @ t=4.6
-6.319366879367092
% es.EY (V/m) @ t=4.6
1.4040103367014796
% es.EZ (V/m) @ t=4.6
7.206987854823986
% es.tEX (V/m) @ t=4.6
-6.319366879367099
% es.tEY (V/m) @ t=4.6
0
% es.tEZ (V/m) @ t=4.6
7.206987854823964
% es.Ex (V/m) @ t=4.6
-6.319366879367092
% es.Ey (V/m) @ t=4.6
1.4040103367014796
% es.Ez (V/m) @ t=4.6
7.206987854823986
% es.tEx (V/m) @ t=4.6
-6.319366879367099
% es.tEy (V/m) @ t=4.6
0
% es.tEz (V/m) @ t=4.6
7.206987854823964
% V (V) @ t=4.6
0.09470506585423356
% es.normE (V/m) @ t=4.7
9.97680732651163
% es.EX (V/m) @ t=4.7
-6.442876600531591
% es.EY (V/m) @ t=4.7
1.4314661390334535
% es.EZ (V/m) @ t=4.7
7.347869834396533
% es.tEX (V/m) @ t=4.7
-6.442876600531598
% es.tEY (V/m) @ t=4.7
0
% es.tEZ (V/m) @ t=4.7
7.347869834396597
% es.Ex (V/m) @ t=4.7
-6.442876600531591
% es.Ey (V/m) @ t=4.7
1.4314661390334535
% es.Ez (V/m) @ t=4.7
7.347869834396533
% es.tEx (V/m) @ t=4.7
-6.442876600531598
% es.tEy (V/m) @ t=4.7
0
% es.tEz (V/m) @ t=4.7
7.347869834396597
% V (V) @ t=4.7
0.09655452684718205
% es.normE (V/m) @ t=4.8
10.164262984049813
% es.EX (V/m) @ t=4.8
-6.563920275980404
% es.EY (V/m) @ t=4.8
1.4583730155215857
% es.EZ (V/m) @ t=4.8
7.485937782919166
% es.tEX (V/m) @ t=4.8
-6.563920275980379
% es.tEY (V/m) @ t=4.8
0
% es.tEZ (V/m) @ t=4.8
7.48593778291923
% es.Ex (V/m) @ t=4.8
-6.563920275980404
% es.Ey (V/m) @ t=4.8
1.4583730155215857
% es.Ez (V/m) @ t=4.8
7.485937782919166
% es.tEx (V/m) @ t=4.8
-6.563920275980379
% es.tEy (V/m) @ t=4.8
0
% es.tEz (V/m) @ t=4.8
7.48593778291923
% V (V) @ t=4.8
0.09836713618218033
% es.normE (V/m) @ t=4.9
10.347723996875267
% es.EX (V/m) @ t=4.9
-6.682385892954549
% es.EY (V/m) @ t=4.9
1.484705280955894
% es.EZ (V/m) @ t=4.9
7.621062694061791
% es.tEX (V/m) @ t=4.9
-6.682385892954528
% es.tEY (V/m) @ t=4.9
0
% es.tEZ (V/m) @ t=4.9
7.621062694061848
% es.Ex (V/m) @ t=4.9
-6.682385892954549
% es.Ey (V/m) @ t=4.9
1.484705280955894
% es.Ez (V/m) @ t=4.9
7.621062694061791
% es.tEx (V/m) @ t=4.9
-6.682385892954528
% es.tEy (V/m) @ t=4.9
0
% es.tEz (V/m) @ t=4.9
7.621062694061848
% V (V) @ t=4.9
0.10014129673184072
% es.normE (V/m) @ t=5
10.526704995964536
% es.EX (V/m) @ t=5
-6.797961272301819
% es.EY (V/m) @ t=5
1.510392165797418
% es.EZ (V/m) @ t=5
7.752886313924343
% es.tEX (V/m) @ t=5
-6.797961272301823
% es.tEY (V/m) @ t=5
0
% es.tEZ (V/m) @ t=5
7.7528863139243995
% es.Ex (V/m) @ t=5
-6.797961272301819
% es.Ey (V/m) @ t=5
1.510392165797418
% es.Ez (V/m) @ t=5
7.752886313924343
% es.tEx (V/m) @ t=5
-6.797961272301823
% es.tEy (V/m) @ t=5
0
% es.tEz (V/m) @ t=5
7.7528863139243995
% V (V) @ t=5
0.10187247401552976
% es.normE (V/m) @ t=5.1
10.69952941883291
% es.EX (V/m) @ t=5.1
-6.909567082580306
% es.EY (V/m) @ t=5.1
1.5351901115265596
% es.EZ (V/m) @ t=5.1
7.880171780589258
% es.tEX (V/m) @ t=5.1
-6.909567082580281
% es.tEY (V/m) @ t=5.1
0
% es.tEZ (V/m) @ t=5.1
7.880171780589379
% es.Ex (V/m) @ t=5.1
-6.909567082580306
% es.Ey (V/m) @ t=5.1
1.5351901115265596
% es.Ez (V/m) @ t=5.1
7.880171780589258
% es.tEx (V/m) @ t=5.1
-6.909567082580281
% es.tEy (V/m) @ t=5.1
0
% es.tEz (V/m) @ t=5.1
7.880171780589379
% V (V) @ t=5.1
0.10354487593222712
% es.normE (V/m) @ t=5.2
10.866791867473632
% es.EX (V/m) @ t=5.2
-7.017586667457035
% es.EY (V/m) @ t=5.2
1.5591850041731279
% es.EZ (V/m) @ t=5.2
8.003357412016292
% es.tEX (V/m) @ t=5.2
-7.017586667457007
% es.tEY (V/m) @ t=5.2
0
% es.tEZ (V/m) @ t=5.2
8.003357412016413
% es.Ex (V/m) @ t=5.2
-7.017586667457035
% es.Ey (V/m) @ t=5.2
1.5591850041731279
% es.Ez (V/m) @ t=5.2
8.003357412016292
% es.tEx (V/m) @ t=5.2
-7.017586667457007
% es.tEy (V/m) @ t=5.2
0
% es.tEz (V/m) @ t=5.2
8.003357412016413
% V (V) @ t=5.2
0.10516417449090407
% es.normE (V/m) @ t=5.3
11.028155728674967
% es.EX (V/m) @ t=5.3
-7.121803649461839
% es.EY (V/m) @ t=5.3
1.582327652018737
% es.EZ (V/m) @ t=5.3
8.12219467453577
% es.tEX (V/m) @ t=5.3
-7.121803649461846
% es.tEY (V/m) @ t=5.3
0
% es.tEZ (V/m) @ t=5.3
8.122194674535834
% es.Ex (V/m) @ t=5.3
-7.121803649461839
% es.Ey (V/m) @ t=5.3
1.582327652018737
% es.Ez (V/m) @ t=5.3
8.12219467453577
% es.tEx (V/m) @ t=5.3
-7.121803649461846
% es.tEy (V/m) @ t=5.3
0
% es.tEz (V/m) @ t=5.3
8.122194674535834
% V (V) @ t=5.3
0.10672724105821656
% es.normE (V/m) @ t=5.4
11.183284389258608
% es.EX (V/m) @ t=5.4
-7.22200165112449
% es.EY (V/m) @ t=5.4
1.604568863345011
% es.EZ (V/m) @ t=5.4
8.236435034478653