% Model:              1x1--2 - Copy1.mph
% Version:            COMSOL 6.1.0.252
% Date:               Mar 28 2023, 12:12
% Dimension:          0
% Nodes:              14017
% Expressions:        14017
% Description:        Electric field norm, Electric field, X component, Electric field, Y component, Electric field, Z component, Tangential electric field, X component, Tangential electric field, Y component, Tangential electric field, Z component, Electric field, x component, Electric field, y component, Electric field, z component, Tangential electric field, x component, Tangential electric field, y component, Tangential electric field, z component, Electric potential
% Length unit:        mm
% x
1
% y
12.2
% z
1.33
% es.normE (V/m) @ t=0
2.4376796039133555
% es.EX (V/m) @ t=0
2.252735454746648
% es.EY (V/m) @ t=0
0.14184602337729413
% es.EZ (V/m) @ t=0
0.9106955960553984
% es.tEX (V/m) @ t=0
2.2527354547466327
% es.tEY (V/m) @ t=0
0
% es.tEZ (V/m) @ t=0
0.9106955960554037
% es.Ex (V/m) @ t=0
2.252735454746648
% es.Ey (V/m) @ t=0
0.14184602337729413
% es.Ez (V/m) @ t=0
0.9106955960553984
% es.tEx (V/m) @ t=0
2.2527354547466327
% es.tEy (V/m) @ t=0
0
% es.tEz (V/m) @ t=0
0.9106955960554037
% V (V) @ t=0
0.012159543291580298
% es.normE (V/m) @ t=0.1
2.737660927504861
% es.EX (V/m) @ t=0.1
2.529957088748713
% es.EY (V/m) @ t=0.1
0.15930298666542597
% es.EZ (V/m) @ t=0.1
1.0227669687506165
% es.tEX (V/m) @ t=0.1
2.5299570887487004
% es.tEY (V/m) @ t=0.1
0
% es.tEZ (V/m) @ t=0.1
1.0227669687506173
% es.Ex (V/m) @ t=0.1
2.529957088748713
% es.Ey (V/m) @ t=0.1
0.15930298666542597
% es.Ez (V/m) @ t=0.1
1.0227669687506165
% es.tEx (V/m) @ t=0.1
2.5299570887487004
% es.tEy (V/m) @ t=0.1
0
% es.tEz (V/m) @ t=0.1
1.0227669687506173
% V (V) @ t=0.1
0.013655860640017486
% es.normE (V/m) @ t=0.2
2.90672087445584
% es.EX (V/m) @ t=0.2
2.6861906099484383
% es.EY (V/m) @ t=0.2
0.16914049414604715
% es.EZ (V/m) @ t=0.2
1.0859263389934437
% es.tEX (V/m) @ t=0.2
2.6861906099484347
% es.tEY (V/m) @ t=0.2
0
% es.tEZ (V/m) @ t=0.2
1.085926338993449
% es.Ex (V/m) @ t=0.2
2.6861906099484383
% es.Ey (V/m) @ t=0.2
0.16914049414604715
% es.Ez (V/m) @ t=0.2
1.0859263389934437
% es.tEx (V/m) @ t=0.2
2.6861906099484347
% es.tEy (V/m) @ t=0.2
0
% es.tEz (V/m) @ t=0.2
1.085926338993449
% V (V) @ t=0.2
0.014499156563165595
% es.normE (V/m) @ t=0.3
3.086083258848908
% es.EX (V/m) @ t=0.3
2.8519440105779026
% es.EY (V/m) @ t=0.3
0.17958224014675916
% es.EZ (V/m) @ t=0.3
1.1529366609130873
% es.tEX (V/m) @ t=0.3
2.8519440105779026
% es.tEY (V/m) @ t=0.3
0
% es.tEZ (V/m) @ t=0.3
1.1529366609130909
% es.Ex (V/m) @ t=0.3
2.8519440105779026
% es.Ey (V/m) @ t=0.3
0.17958224014675916
% es.Ez (V/m) @ t=0.3
1.1529366609130873
% es.tEx (V/m) @ t=0.3
2.8519440105779026
% es.tEy (V/m) @ t=0.3
0
% es.tEz (V/m) @ t=0.3
1.1529366609130909
% V (V) @ t=0.3
0.015393708673129732
% es.normE (V/m) @ t=0.4
3.2772241163854856
% es.EX (V/m) @ t=0.4
3.028586037606411
% es.EY (V/m) @ t=0.4
0.1906899607025726
% es.EZ (V/m) @ t=0.4
1.224338929574281
% es.tEX (V/m) @ t=0.4
3.028586037606427
% es.tEY (V/m) @ t=0.4
0
% es.tEZ (V/m) @ t=0.4
1.224338929574281
% es.Ex (V/m) @ t=0.4
3.028586037606411
% es.Ey (V/m) @ t=0.4
0.1906899607025726
% es.Ez (V/m) @ t=0.4
1.224338929574281
% es.tEx (V/m) @ t=0.4
3.028586037606427
% es.tEy (V/m) @ t=0.4
0
% es.tEz (V/m) @ t=0.4
1.224338929574281
% V (V) @ t=0.4
0.01634756242738549
% es.normE (V/m) @ t=0.5
3.477890269062086
% es.EX (V/m) @ t=0.5
3.214026561516394
% es.EY (V/m) @ t=0.5
0.2023731514312357
% es.EZ (V/m) @ t=0.5
1.2993089310207875
% es.tEX (V/m) @ t=0.5
3.2140265615163983
% es.tEY (V/m) @ t=0.5
0
% es.tEZ (V/m) @ t=0.5
1.2993089310207946
% es.Ex (V/m) @ t=0.5
3.214026561516394
% es.Ey (V/m) @ t=0.5
0.2023731514312357
% es.Ez (V/m) @ t=0.5
1.2993089310207875
% es.tEx (V/m) @ t=0.5
3.2140265615163983
% es.tEy (V/m) @ t=0.5
0
% es.tEz (V/m) @ t=0.5
1.2993089310207946
% V (V) @ t=0.5
0.01734833022039328
% es.normE (V/m) @ t=0.6
3.6855685585553064
% es.EX (V/m) @ t=0.6
3.4059465108659177
% es.EY (V/m) @ t=0.6
0.21446800845367164
% es.EZ (V/m) @ t=0.6
1.3769001786769666
% es.tEX (V/m) @ t=0.6
3.4059465108659186
% es.tEY (V/m) @ t=0.6
0
% es.tEZ (V/m) @ t=0.6
1.3769001786769648
% es.Ex (V/m) @ t=0.6
3.4059465108659177
% es.Ey (V/m) @ t=0.6
0.21446800845367164
% es.Ez (V/m) @ t=0.6
1.3769001786769666
% es.tEx (V/m) @ t=0.6
3.4059465108659186
% es.tEy (V/m) @ t=0.6
0
% es.tEz (V/m) @ t=0.6
1.3769001786769648
% V (V) @ t=0.6
0.018383972814598866
% es.normE (V/m) @ t=0.7
3.9034922990152365
% es.EX (V/m) @ t=0.7
3.6073364267385433
% es.EY (V/m) @ t=0.7
0.22714963833893065
% es.EZ (V/m) @ t=0.7
1.458314976318532
% es.tEX (V/m) @ t=0.7
3.6073364267385593
% es.tEY (V/m) @ t=0.7
0
% es.tEZ (V/m) @ t=0.7
1.4583149763185395
% es.Ex (V/m) @ t=0.7
3.6073364267385433
% es.Ey (V/m) @ t=0.7
0.22714963833893065
% es.Ez (V/m) @ t=0.7
1.458314976318532
% es.tEx (V/m) @ t=0.7
3.6073364267385593
% es.tEy (V/m) @ t=0.7
0
% es.tEz (V/m) @ t=0.7
1.4583149763185395
% V (V) @ t=0.7
0.019470987211783104
% es.normE (V/m) @ t=0.8
4.130194194241101
% es.EX (V/m) @ t=0.8
3.8168399610486663
% es.EY (V/m) @ t=0.8
0.24033458504815264
% es.EZ (V/m) @ t=0.8
1.5430059863846943
% es.tEX (V/m) @ t=0.8
3.8168399610486823
% es.tEY (V/m) @ t=0.8
0
% es.tEZ (V/m) @ t=0.8
1.5430059863846939
% es.Ex (V/m) @ t=0.8
3.8168399610486663
% es.Ey (V/m) @ t=0.8
0.24033458504815264
% es.Ez (V/m) @ t=0.8
1.5430059863846943
% es.tEx (V/m) @ t=0.8
3.8168399610486823
% es.tEy (V/m) @ t=0.8
0
% es.tEz (V/m) @ t=0.8
1.5430059863846939
% V (V) @ t=0.8
0.020601999874893865
% es.normE (V/m) @ t=0.9
4.369955525695268
% es.EX (V/m) @ t=0.9
4.038410230022368
% es.EY (V/m) @ t=0.9
0.2542891947678836
% es.EZ (V/m) @ t=0.9
1.6325801006536396
% es.tEX (V/m) @ t=0.9
4.03841023002235
% es.tEY (V/m) @ t=0.9
0
% es.tEZ (V/m) @ t=0.9
1.6325801006536578
% es.Ex (V/m) @ t=0.9
4.038410230022368
% es.Ey (V/m) @ t=0.9
0.2542891947678836
% es.Ez (V/m) @ t=0.9
1.6325801006536396
% es.tEx (V/m) @ t=0.9
4.03841023002235
% es.tEy (V/m) @ t=0.9
0
% es.tEz (V/m) @ t=0.9
1.6325801006536578
% V (V) @ t=0.9
0.02179787945014682
% es.normE (V/m) @ t=1
4.620923129661162
% es.EX (V/m) @ t=1
4.270336117104456
% es.EY (V/m) @ t=1
0.26889817886426637
% es.EZ (V/m) @ t=1
1.7263417718742864
% es.tEX (V/m) @ t=1
4.270336117104463
% es.tEY (V/m) @ t=1
0
% es.tEZ (V/m) @ t=1
1.7263417718742815
% es.Ex (V/m) @ t=1
4.270336117104456
% es.Ey (V/m) @ t=1
0.26889817886426637
% es.Ez (V/m) @ t=1
1.7263417718742864
% es.tEx (V/m) @ t=1
4.270336117104463
% es.tEy (V/m) @ t=1
0
% es.tEz (V/m) @ t=1
1.7263417718742815
% V (V) @ t=1
0.02304959289019877
% es.normE (V/m) @ t=1.1
4.8845530591193915
% es.EX (V/m) @ t=1.1
4.51396432401539
% es.EY (V/m) @ t=1.1
0.284240512167637
% es.EZ (V/m) @ t=1.1
1.8248324842216763
% es.tEX (V/m) @ t=1.1
4.513964324015394
% es.tEY (V/m) @ t=1.1
0
% es.tEZ (V/m) @ t=1.1
1.8248324842216919
% es.Ex (V/m) @ t=1.1
4.51396432401539
% es.Ey (V/m) @ t=1.1
0.284240512167637
% es.Ez (V/m) @ t=1.1
1.8248324842216763
% es.tEx (V/m) @ t=1.1
4.513964324015394
% es.tEy (V/m) @ t=1.1
0
% es.tEz (V/m) @ t=1.1
1.8248324842216919
% V (V) @ t=1.1
0.024364565867238494
% es.normE (V/m) @ t=1.2
5.161858765388278
% es.EX (V/m) @ t=1.2
4.7702321907125675
% es.EY (V/m) @ t=1.2
0.3003711632452952
% es.EZ (V/m) @ t=1.2
1.9284291249795054
% es.tEX (V/m) @ t=1.2
4.770232190712555
% es.tEY (V/m) @ t=1.2
0
% es.tEZ (V/m) @ t=1.2
1.9284291249795142
% es.Ex (V/m) @ t=1.2
4.7702321907125675
% es.Ey (V/m) @ t=1.2
0.3003711632452952
% es.Ez (V/m) @ t=1.2
1.9284291249795054
% es.tEx (V/m) @ t=1.2
4.770232190712555
% es.tEy (V/m) @ t=1.2
0
% es.tEz (V/m) @ t=1.2
1.9284291249795142
% V (V) @ t=1.2
0.02574796684518606
% es.normE (V/m) @ t=1.3
5.452371337206829
% es.EX (V/m) @ t=1.3
5.038705664646502
% es.EY (V/m) @ t=1.3
0.3172665355924835
% es.EZ (V/m) @ t=1.3
2.0369581065660123
% es.tEX (V/m) @ t=1.3
5.038705664646503
% es.tEY (V/m) @ t=1.3
0
% es.tEZ (V/m) @ t=1.3
2.036958106566031
% es.Ex (V/m) @ t=1.3
5.038705664646502
% es.Ey (V/m) @ t=1.3
0.3172665355924835
% es.Ez (V/m) @ t=1.3
2.0369581065660123
% es.tEx (V/m) @ t=1.3
5.038705664646503
% es.tEy (V/m) @ t=1.3
0
% es.tEz (V/m) @ t=1.3
2.036958106566031
% V (V) @ t=1.3
0.027197352499003305
% es.normE (V/m) @ t=1.4
5.760319754442584
% es.EX (V/m) @ t=1.4
5.323290974573364
% es.EY (V/m) @ t=1.4
0.33518249779688136
% es.EZ (V/m) @ t=1.4
2.152003567633203
% es.tEX (V/m) @ t=1.4
5.323290974573364
% es.tEY (V/m) @ t=1.4
0
% es.tEZ (V/m) @ t=1.4
2.152003567633191
% es.Ex (V/m) @ t=1.4
5.323290974573364
% es.Ey (V/m) @ t=1.4
0.33518249779688136
% es.Ez (V/m) @ t=1.4
2.152003567633203
% es.tEx (V/m) @ t=1.4
5.323290974573364
% es.tEy (V/m) @ t=1.4
0
% es.tEz (V/m) @ t=1.4
2.152003567633191
% V (V) @ t=1.4
0.02873354086427938
% es.normE (V/m) @ t=1.5
6.083821567071778
% es.EX (V/m) @ t=1.5
5.622249337005275
% es.EY (V/m) @ t=1.5
0.3540051548197545
% es.EZ (V/m) @ t=1.5
2.272860358968778
% es.tEX (V/m) @ t=1.5
5.622249337005275
% es.tEY (V/m) @ t=1.5
0
% es.tEZ (V/m) @ t=1.5
2.272860358968778
% es.Ex (V/m) @ t=1.5
5.622249337005275
% es.Ey (V/m) @ t=1.5
0.3540051548197545
% es.Ez (V/m) @ t=1.5
2.272860358968778
% es.tEx (V/m) @ t=1.5
5.622249337005275
% es.tEy (V/m) @ t=1.5
0
% es.tEz (V/m) @ t=1.5
2.272860358968778
% V (V) @ t=1.5
0.030347265188145563
% es.normE (V/m) @ t=1.6
6.422876775092339
% es.EX (V/m) @ t=1.6
5.9355807519422505
% es.EY (V/m) @ t=1.6
0.37373450666123875
% es.EZ (V/m) @ t=1.6
2.399528480572677
% es.tEX (V/m) @ t=1.6
5.935580751942261
% es.tEY (V/m) @ t=1.6
0
% es.tEZ (V/m) @ t=1.6
2.399528480572684
% es.Ex (V/m) @ t=1.6
5.9355807519422505
% es.Ey (V/m) @ t=1.6
0.37373450666123875
% es.Ez (V/m) @ t=1.6
2.399528480572677
% es.tEx (V/m) @ t=1.6
5.935580751942261
% es.tEy (V/m) @ t=1.6
0
% es.tEz (V/m) @ t=1.6
2.399528480572684
% V (V) @ t=1.6
0.03203852547060189
% es.normE (V/m) @ t=1.7
6.777485378504764
% es.EX (V/m) @ t=1.7
6.263285219384258
% es.EY (V/m) @ t=1.7
0.39437055332117943
% es.EZ (V/m) @ t=1.7
2.5320079324449623
% es.tEX (V/m) @ t=1.7
6.263285219384244
% es.tEY (V/m) @ t=1.7
0
% es.tEZ (V/m) @ t=1.7
2.5320079324449516
% es.Ex (V/m) @ t=1.7
6.263285219384258
% es.Ey (V/m) @ t=1.7
0.39437055332117943
% es.Ez (V/m) @ t=1.7
2.5320079324449623
% es.tEx (V/m) @ t=1.7
6.263285219384244
% es.tEy (V/m) @ t=1.7
0
% es.tEz (V/m) @ t=1.7
2.5320079324449516
% V (V) @ t=1.7
0.033807321711648346
% es.normE (V/m) @ t=1.8
7.14800503971272
% es.EX (V/m) @ t=1.8
6.60569343653845
% es.EY (V/m) @ t=1.8
0.41593323097512114
% es.EZ (V/m) @ t=1.8
2.6704319556974507
% es.tEX (V/m) @ t=1.8
6.605693436538456
% es.tEY (V/m) @ t=1.8
0
% es.tEZ (V/m) @ t=1.8
2.670431955697458
% es.Ex (V/m) @ t=1.8
6.60569343653845
% es.Ey (V/m) @ t=1.8
0.41593323097512114
% es.Ez (V/m) @ t=1.8
2.6704319556974507
% es.tEx (V/m) @ t=1.8
6.605693436538456
% es.tEy (V/m) @ t=1.8
0
% es.tEz (V/m) @ t=1.8
2.670431955697458
% V (V) @ t=1.8
0.035655462752749154
% es.normE (V/m) @ t=1.9
7.536918974051934
% es.EX (V/m) @ t=1.9
6.965101402014273
% es.EY (V/m) @ t=1.9
0.4385609545540743
% es.EZ (V/m) @ t=1.9
2.8157256304359626
% es.tEX (V/m) @ t=1.9
6.965101402014277
% es.tEY (V/m) @ t=1.9
0
% es.tEZ (V/m) @ t=1.9
2.815725630435958
% es.Ex (V/m) @ t=1.9
6.965101402014273
% es.Ey (V/m) @ t=1.9
0.4385609545540743
% es.Ez (V/m) @ t=1.9
2.8157256304359626
% es.tEx (V/m) @ t=1.9
6.965101402014277
% es.tEy (V/m) @ t=1.9
0
% es.tEz (V/m) @ t=1.9
2.815725630435958
% V (V) @ t=1.9
0.03759550720461243
% es.normE (V/m) @ t=2
7.942414190239846
% es.EX (V/m) @ t=2
7.33983281114045
% es.EY (V/m) @ t=2
0.46215266755286377
% es.EZ (V/m) @ t=2
2.9672135572520473
% es.tEX (V/m) @ t=2
7.339832811140447
% es.tEY (V/m) @ t=2
0
% es.tEZ (V/m) @ t=2
2.967213557252057
% es.Ex (V/m) @ t=2
7.33983281114045
% es.Ey (V/m) @ t=2
0.46215266755286377
% es.Ez (V/m) @ t=2
2.9672135572520473
% es.tEx (V/m) @ t=2
7.339832811140447
% es.tEy (V/m) @ t=2
0
% es.tEz (V/m) @ t=2
2.967213557252057
% V (V) @ t=2
0.03961828604696652
% es.normE (V/m) @ t=2.1
8.364490688278071
% es.EX (V/m) @ t=2.1
7.7298876639170615
% es.EY (V/m) @ t=2.1
0.4867083699714039
% es.EZ (V/m) @ t=2.1
3.1248957361458176
% es.tEX (V/m) @ t=2.1
7.729887663917076
% es.tEY (V/m) @ t=2.1
0
% es.tEZ (V/m) @ t=2.1
3.1248957361457954
% es.Ex (V/m) @ t=2.1
7.7298876639170615
% es.Ey (V/m) @ t=2.1
0.4867083699714039
% es.Ez (V/m) @ t=2.1
3.1248957361458176
% es.tEx (V/m) @ t=2.1
7.729887663917076
% es.tEy (V/m) @ t=2.1
0
% es.tEz (V/m) @ t=2.1
3.1248957361457954
% V (V) @ t=2.1
0.04172379927981148
% es.normE (V/m) @ t=2.2
8.803148468168136
% es.EX (V/m) @ t=2.2
8.1352659603441
% es.EY (V/m) @ t=2.2
0.5122280618097741
% es.EZ (V/m) @ t=2.2
3.28877216711708
% es.tEX (V/m) @ t=2.2
8.135265960344114
% es.tEY (V/m) @ t=2.2
0
% es.tEZ (V/m) @ t=2.2
3.288772167117079
% es.Ex (V/m) @ t=2.2
8.1352659603441
% es.Ey (V/m) @ t=2.2
0.5122280618097741
% es.Ez (V/m) @ t=2.2
3.28877216711708
% es.tEx (V/m) @ t=2.2
8.135265960344114
% es.tEy (V/m) @ t=2.2
0
% es.tEz (V/m) @ t=2.2
3.288772167117079
% V (V) @ t=2.2
0.043912046903147275
% es.normE (V/m) @ t=2.3
9.257939175590831
% es.EX (V/m) @ t=2.3
8.555553255650704
% es.EY (V/m) @ t=2.3
0.5386862012390154
% es.EZ (V/m) @ t=2.3
3.4586755859103073
% es.tEX (V/m) @ t=2.3
8.555553255650715
% es.tEY (V/m) @ t=2.3
0
% es.tEZ (V/m) @ t=2.3
3.4586755859102993
% es.Ex (V/m) @ t=2.3
8.555553255650704
% es.Ey (V/m) @ t=2.3
0.5386862012390154
% es.Ez (V/m) @ t=2.3
3.4586755859103073
% es.tEx (V/m) @ t=2.3
8.555553255650715
% es.tEy (V/m) @ t=2.3
0
% es.tEz (V/m) @ t=2.3
3.4586755859102993
% V (V) @ t=2.3
0.046180776986844474
% es.normE (V/m) @ t=2.4
9.726806402749126
% es.EX (V/m) @ t=2.4
8.988848670514418
% es.EY (V/m) @ t=2.4
0.5659656389117278
% es.EZ (V/m) @ t=2.4
3.633838823563411
% es.tEX (V/m) @ t=2.4
8.988848670514386
% es.tEY (V/m) @ t=2.4
0
% es.tEZ (V/m) @ t=2.4
3.6338388235633925
% es.Ex (V/m) @ t=2.4
8.988848670514418
% es.Ey (V/m) @ t=2.4
0.5659656389117278
% es.Ez (V/m) @ t=2.4
3.633838823563411
% es.tEx (V/m) @ t=2.4
8.988848670514386
% es.tEy (V/m) @ t=2.4
0
% es.tEz (V/m) @ t=2.4
3.6338388235633925
% V (V) @ t=2.4
0.048519660899156075
% es.normE (V/m) @ t=2.5
10.211320930285627
% es.EX (V/m) @ t=2.5
9.436604185643354
% es.EY (V/m) @ t=2.5
0.5941558589894829
% es.EZ (V/m) @ t=2.5
3.8148478796818495
% es.tEX (V/m) @ t=2.5
9.436604185643333
% es.tEY (V/m) @ t=2.5
0
% es.tEZ (V/m) @ t=2.5
3.8148478796818353
% es.Ex (V/m) @ t=2.5
9.436604185643354
% es.Ey (V/m) @ t=2.5
0.5941558589894829
% es.Ez (V/m) @ t=2.5
3.8148478796818495
% es.tEx (V/m) @ t=2.5
9.436604185643333
% es.tEy (V/m) @ t=2.5
0
% es.tEz (V/m) @ t=2.5
3.8148478796818353
% V (V) @ t=2.5
0.05093658813304533
% es.normE (V/m) @ t=2.6
10.711482758199955
% es.EX (V/m) @ t=2.6
9.898819801037568
% es.EY (V/m) @ t=2.6
0.6232568614722216
% es.EZ (V/m) @ t=2.6
4.00170275426553
% es.tEX (V/m) @ t=2.6
9.898819801037547
% es.tEY (V/m) @ t=2.6
0
% es.tEZ (V/m) @ t=2.6
4.001702754265512
% es.Ex (V/m) @ t=2.6
9.898819801037568
% es.Ey (V/m) @ t=2.6
0.6232568614722216
% es.Ez (V/m) @ t=2.6
4.00170275426553
% es.tEx (V/m) @ t=2.6
9.898819801037547
% es.tEy (V/m) @ t=2.6
0
% es.tEz (V/m) @ t=2.6
4.001702754265512
% V (V) @ t=2.6
0.05343155868851226
% es.normE (V/m) @ t=2.7
11.227291886491905
% es.EX (V/m) @ t=2.7
10.375495516697104
% es.EY (V/m) @ t=2.7
0.6532686463600013
% es.EZ (V/m) @ t=2.7
4.194403447314539
% es.tEX (V/m) @ t=2.7
10.375495516697093
% es.tEY (V/m) @ t=2.7
0
% es.tEZ (V/m) @ t=2.7
4.194403447314546
% es.Ex (V/m) @ t=2.7
10.375495516697104
% es.Ey (V/m) @ t=2.7
0.6532686463600013
% es.Ez (V/m) @ t=2.7
4.194403447314539
% es.tEx (V/m) @ t=2.7
10.375495516697093
% es.tEy (V/m) @ t=2.7
0
% es.tEz (V/m) @ t=2.7
4.194403447314546
% V (V) @ t=2.7
0.05600457256555686
% es.normE (V/m) @ t=2.8
11.755066735875118
% es.EX (V/m) @ t=2.8
10.863229852060378
% es.EY (V/m) @ t=2.8
0.683972969991455
% es.EZ (V/m) @ t=2.8
4.391572816904507
% es.tEX (V/m) @ t=2.8
10.863229852060371
% es.tEY (V/m) @ t=2.8
0
% es.tEZ (V/m) @ t=2.8
4.391572816904514
% es.Ex (V/m) @ t=2.8
10.863229852060378
% es.Ey (V/m) @ t=2.8
0.683972969991455
% es.Ez (V/m) @ t=2.8
4.391572816904507
% es.tEx (V/m) @ t=2.8
10.863229852060371
% es.tEy (V/m) @ t=2.8
0
% es.tEz (V/m) @ t=2.8
4.391572816904514
% V (V) @ t=2.8
0.05863737900309317
% es.normE (V/m) @ t=2.9
12.282931563841888
% es.EX (V/m) @ t=2.9
11.351050584533986
% es.EY (V/m) @ t=2.9
0.7146658395047996
% es.EZ (V/m) @ t=2.9
4.588768589306095
% es.tEX (V/m) @ t=2.9
11.351050584533972
% es.tEY (V/m) @ t=2.9
0
% es.tEZ (V/m) @ t=2.9
4.588768589306081
% es.Ex (V/m) @ t=2.9
11.351050584533986
% es.Ey (V/m) @ t=2.9
0.7146658395047996
% es.Ez (V/m) @ t=2.9
4.588768589306095
% es.tEx (V/m) @ t=2.9
11.351050584533972
% es.tEy (V/m) @ t=2.9
0
% es.tEz (V/m) @ t=2.9
4.588768589306081
% V (V) @ t=2.9
0.061271106162954614
% es.normE (V/m) @ t=3
12.820453905986962
% es.EX (V/m) @ t=3
11.847797340705242
% es.EY (V/m) @ t=3
0.7459144174748449
% es.EZ (V/m) @ t=3
4.789569623827884
% es.tEX (V/m) @ t=3
11.847797340705263
% es.tEY (V/m) @ t=3
0
% es.tEZ (V/m) @ t=3
4.789569623827884
% es.Ex (V/m) @ t=3
11.847797340705242
% es.Ey (V/m) @ t=3
0.7459144174748449
% es.Ez (V/m) @ t=3
4.789569623827884
% es.tEx (V/m) @ t=3
11.847797340705263
% es.tEy (V/m) @ t=3
0
% es.tEz (V/m) @ t=3
4.789569623827884
% V (V) @ t=3
0.06395318336599828
% es.normE (V/m) @ t=3.1
13.36763376236536
% es.EX (V/m) @ t=3.1
12.353470120574215
% es.EY (V/m) @ t=3.1
0.7777187039015798
% es.EZ (V/m) @ t=3.1
4.993975920469886
% es.tEX (V/m) @ t=3.1
12.35347012057423
% es.tEY (V/m) @ t=3.1
0
% es.tEZ (V/m) @ t=3.1
4.993975920469886
% es.Ex (V/m) @ t=3.1
12.353470120574215
% es.Ey (V/m) @ t=3.1
0.7777187039015798
% es.Ez (V/m) @ t=3.1
4.993975920469886
% es.tEx (V/m) @ t=3.1
12.35347012057423
% es.tEy (V/m) @ t=3.1
0
% es.tEz (V/m) @ t=3.1
4.993975920469886
% V (V) @ t=3.1
0.06668361061222425
% es.normE (V/m) @ t=3.2
13.924471133037525
% es.EX (V/m) @ t=3.2
12.868068924140886
% es.EY (V/m) @ t=3.2
0.8100786987849524
% es.EZ (V/m) @ t=3.2
5.201987479232361
% es.tEX (V/m) @ t=3.2
12.868068924140914
% es.tEY (V/m) @ t=3.2
0
% es.tEZ (V/m) @ t=3.2
5.201987479232326
% es.Ex (V/m) @ t=3.2
12.868068924140886
% es.Ey (V/m) @ t=3.2
0.8100786987849524
% es.Ez (V/m) @ t=3.2
5.201987479232361
% es.tEx (V/m) @ t=3.2
12.868068924140914
% es.tEy (V/m) @ t=3.2
0
% es.tEz (V/m) @ t=3.2
5.201987479232326
% V (V) @ t=3.2
0.06946238790163246
% es.normE (V/m) @ t=3.3
14.486056934254012
% es.EX (V/m) @ t=3.3
13.387055677750997
% es.EY (V/m) @ t=3.3
0.8427161409733044
% es.EZ (V/m) @ t=3.3
5.411773503232045
% es.tEX (V/m) @ t=3.3
13.387055677750979
% es.tEY (V/m) @ t=3.3
0
% es.tEZ (V/m) @ t=3.3
5.4117735032320375
% es.Ex (V/m) @ t=3.3
13.387055677750997
% es.Ey (V/m) @ t=3.3
0.8427161409733044
% es.Ez (V/m) @ t=3.3
5.411773503232045
% es.tEx (V/m) @ t=3.3
13.387055677750979
% es.tEy (V/m) @ t=3.3
0
% es.tEz (V/m) @ t=3.3
5.4117735032320375
% V (V) @ t=3.3
0.07226481886379661
% es.normE (V/m) @ t=3.4
15.03833446449385
% es.EX (V/m) @ t=3.4
13.89743603277811
% es.EY (V/m) @ t=3.4
0.8748342557358972
% es.EZ (V/m) @ t=3.4
5.618091677167191
% es.tEX (V/m) @ t=3.4
13.897436032778074
% es.tEY (V/m) @ t=3.4
0
% es.tEZ (V/m) @ t=3.4
5.6180916771671825
% es.Ex (V/m) @ t=3.4
13.89743603277811
% es.Ey (V/m) @ t=3.4
0.8748342557358972
% es.Ez (V/m) @ t=3.4
5.618091677167191
% es.tEx (V/m) @ t=3.4
13.897436032778074
% es.tEy (V/m) @ t=3.4
0
% es.tEz (V/m) @ t=3.4
5.6180916771671825
% V (V) @ t=3.4
0.0750201877564044
% es.normE (V/m) @ t=3.5
15.588275003691273
% es.EX (V/m) @ t=3.5
14.405654406020211
% es.EY (V/m) @ t=3.5
0.9068281955042607
% es.EZ (V/m) @ t=3.5
5.823541874702954
% es.tEX (V/m) @ t=3.5
14.405654406020233
% es.tEY (V/m) @ t=3.5
0
% es.tEZ (V/m) @ t=3.5
5.823541874702968
% es.Ex (V/m) @ t=3.5
14.405654406020211
% es.Ey (V/m) @ t=3.5
0.9068281955042607
% es.Ez (V/m) @ t=3.5
5.823541874702954
% es.tEx (V/m) @ t=3.5
14.405654406020233
% es.tEy (V/m) @ t=3.5
0
% es.tEz (V/m) @ t=3.5
5.823541874702968
% V (V) @ t=3.5
0.07776356534219504
% es.normE (V/m) @ t=3.6
16.13395543029206
% es.EX (V/m) @ t=3.6
14.90993301823471
% es.EY (V/m) @ t=3.6
0.9385889521538004
% es.EZ (V/m) @ t=3.6
6.027406885643229
% es.tEX (V/m) @ t=3.6
14.90993301823471
% es.tEY (V/m) @ t=3.6
0
% es.tEZ (V/m) @ t=3.6
6.027406885643245
% es.Ex (V/m) @ t=3.6
14.90993301823471
% es.Ey (V/m) @ t=3.6
0.9385889521538004
% es.Ez (V/m) @ t=3.6
6.027406885643229
% es.tEx (V/m) @ t=3.6
14.90993301823471
% es.tEy (V/m) @ t=3.6
0
% es.tEz (V/m) @ t=3.6
6.027406885643245
% V (V) @ t=3.6
0.08048527687852436
% es.normE (V/m) @ t=3.7
16.67345262282064
% es.EX (V/m) @ t=3.7
15.408494090179552
% es.EY (V/m) @ t=3.7
0.9700075175595222
% es.EZ (V/m) @ t=3.7
6.228969499792116
% es.tEX (V/m) @ t=3.7
15.408494090179488
% es.tEY (V/m) @ t=3.7
0
% es.tEZ (V/m) @ t=3.7
6.228969499792118
% es.Ex (V/m) @ t=3.7
15.408494090179552
% es.Ey (V/m) @ t=3.7
0.9700075175595222
% es.Ez (V/m) @ t=3.7
6.228969499792116
% es.tEx (V/m) @ t=3.7
15.408494090179488
% es.tEy (V/m) @ t=3.7
0
% es.tEz (V/m) @ t=3.7
6.228969499792118
% V (V) @ t=3.7
0.08317564762274826
% es.normE (V/m) @ t=3.8
17.20199468823121
% es.EX (V/m) @ t=3.8
15.896929065795938
% es.EY (V/m) @ t=3.8
1.0007995401837926
% es.EZ (V/m) @ t=3.8
6.42644409331078
% es.tEX (V/m) @ t=3.8
15.896929065795959
% es.tEY (V/m) @ t=3.8
0
% es.tEZ (V/m) @ t=3.8
6.426444093310739
% es.Ex (V/m) @ t=3.8
15.896929065795938
% es.Ey (V/m) @ t=3.8
1.0007995401837926
% es.Ez (V/m) @ t=3.8
6.42644409331078
% es.tEx (V/m) @ t=3.8
15.896929065795959
% es.tEy (V/m) @ t=3.8
0
% es.tEz (V/m) @ t=3.8
6.426444093310739
% V (V) @ t=3.8
0.08581106348184775
% es.normE (V/m) @ t=3.9
17.711458233936696
% es.EX (V/m) @ t=3.9
16.36773435440486
% es.EY (V/m) @ t=3.9
1.0304743819161724
% es.EZ (V/m) @ t=3.9
6.61678808388548
% es.tEX (V/m) @ t=3.9
16.367734354404817
% es.tEY (V/m) @ t=3.9
0
% es.tEZ (V/m) @ t=3.9
6.616788083885545
% es.Ex (V/m) @ t=3.9
16.36773435440486
% es.Ey (V/m) @ t=3.9
1.0304743819161724
% es.Ez (V/m) @ t=3.9
6.61678808388548
% es.tEx (V/m) @ t=3.9
16.367734354404817
% es.tEy (V/m) @ t=3.9
0
% es.tEz (V/m) @ t=3.9
6.616788083885545
% V (V) @ t=3.9
0.0883515111107976
% es.normE (V/m) @ t=4
18.203080732007695
% es.EX (V/m) @ t=4
16.822050914141187
% es.EY (V/m) @ t=4
1.0591175708499616
% es.EZ (V/m) @ t=4
6.8004696217869185
% es.tEX (V/m) @ t=4
16.822050914141187
% es.tEY (V/m) @ t=4
0
% es.tEZ (V/m) @ t=4
6.800469621786878
% es.Ex (V/m) @ t=4
16.822050914141187
% es.Ey (V/m) @ t=4
1.0591175708499616
% es.Ez (V/m) @ t=4
6.8004696217869185
% es.tEx (V/m) @ t=4
16.822050914141187
% es.tEy (V/m) @ t=4
0
% es.tEz (V/m) @ t=4
6.800469621786878
% V (V) @ t=4
0.09080278089599578
% es.normE (V/m) @ t=4.1
18.67400246744166
% es.EX (V/m) @ t=4.1
17.257236042629067
% es.EY (V/m) @ t=4.1
1.086562451030428
% es.EZ (V/m) @ t=4.1
6.976420233393176
% es.tEX (V/m) @ t=4.1
17.25723604262903
% es.tEY (V/m) @ t=4.1
0
% es.tEZ (V/m) @ t=4.1
6.9764202333931316
% es.Ex (V/m) @ t=4.1
17.257236042629067
% es.Ey (V/m) @ t=4.1
1.086562451030428
% es.Ez (V/m) @ t=4.1
6.976420233393176
% es.tEx (V/m) @ t=4.1
17.25723604262903
% es.tEy (V/m) @ t=4.1
0
% es.tEz (V/m) @ t=4.1
6.9764202333931316
% V (V) @ t=4.1
0.09315061524058972
% es.normE (V/m) @ t=4.2
19.121363725237664
% es.EX (V/m) @ t=4.2
17.67064703749263
% es.EY (V/m) @ t=4.2
1.1126423665031826
% es.EZ (V/m) @ t=4.2
7.143571445083241
% es.tEX (V/m) @ t=4.2
17.67064703749253
% es.tEY (V/m) @ t=4.2
0
% es.tEZ (V/m) @ t=4.2
7.143571445083197
% es.Ex (V/m) @ t=4.2
17.67064703749263
% es.Ey (V/m) @ t=4.2
1.1126423665031826
% es.Ez (V/m) @ t=4.2
7.143571445083241
% es.tEx (V/m) @ t=4.2
17.67064703749253
% es.tEy (V/m) @ t=4.2
0
% es.tEz (V/m) @ t=4.2
7.143571445083197
% V (V) @ t=4.2
0.09538075654772672
% es.normE (V/m) @ t=4.3
19.544301163957577
% es.EX (V/m) @ t=4.3
18.061488513649067
% es.EY (V/m) @ t=4.3
1.1372944476379514
% es.EZ (V/m) @ t=4.3
7.301595262639919
% es.tEX (V/m) @ t=4.3
18.061488513649152
% es.tEY (V/m) @ t=4.3
0
% es.tEZ (V/m) @ t=4.3
7.301595262639967
% es.Ex (V/m) @ t=4.3
18.061488513649067
% es.Ey (V/m) @ t=4.3
1.1372944476379514
% es.Ez (V/m) @ t=4.3
7.301595262639919
% es.tEx (V/m) @ t=4.3
18.061488513649152
% es.tEy (V/m) @ t=4.3
0
% es.tEz (V/m) @ t=4.3
7.301595262639967
% V (V) @ t=4.3
0.09748925552736173
% es.normE (V/m) @ t=4.4
19.943282507530007
% es.EX (V/m) @ t=4.4
18.430196769531904
% es.EY (V/m) @ t=4.4
1.1605250234775442
% es.EZ (V/m) @ t=4.4
7.450657400360797
% es.tEX (V/m) @ t=4.4
18.430196769531975
% es.tEY (V/m) @ t=4.4
0
% es.tEZ (V/m) @ t=4.4
7.450657400360733
% es.Ex (V/m) @ t=4.4
18.430196769531904
% es.Ey (V/m) @ t=4.4
1.1605250234775442
% es.Ez (V/m) @ t=4.4
7.450657400360797
% es.tEx (V/m) @ t=4.4
18.430196769531975
% es.tEy (V/m) @ t=4.4
0
% es.tEz (V/m) @ t=4.4
7.450657400360733
% V (V) @ t=4.4
0.09947903586769556
% es.normE (V/m) @ t=4.5
20.313694169588175
% es.EX (V/m) @ t=4.5
18.7725061817576
% es.EY (V/m) @ t=4.5
1.182076258816811
% es.EZ (V/m) @ t=4.5
7.589038852317117
% es.tEX (V/m) @ t=4.5
18.772506181757606
% es.tEY (V/m) @ t=4.5
0
% es.tEZ (V/m) @ t=4.5
7.589038852317124
% es.Ex (V/m) @ t=4.5
18.7725061817576
% es.Ey (V/m) @ t=4.5
1.182076258816811
% es.Ez (V/m) @ t=4.5
7.589038852317117
% es.tEx (V/m) @ t=4.5
18.772506181757606
% es.tEy (V/m) @ t=4.5
0
% es.tEz (V/m) @ t=4.5
7.589038852317124
% V (V) @ t=4.5
0.10132678382990772
% es.normE (V/m) @ t=4.6
20.653239767458025
% es.EX (V/m) @ t=4.6
19.086295319946423
% es.EY (V/m) @ t=4.6
1.2018107839013883
% es.EZ (V/m) @ t=4.6
7.715880091763065
% es.tEX (V/m) @ t=4.6
19.0862953199464
% es.tEY (V/m) @ t=4.6
0
% es.tEZ (V/m) @ t=4.6
7.715880091763033
% es.Ex (V/m) @ t=4.6
19.086295319946423
% es.Ey (V/m) @ t=4.6
1.2018107839013883
% es.Ez (V/m) @ t=4.6
7.715880091763065
% es.tEx (V/m) @ t=4.6
19.0862953199464
% es.tEy (V/m) @ t=4.6
0
% es.tEz (V/m) @ t=4.6
7.715880091763033
% V (V) @ t=4.6
0.103021150592851
% es.normE (V/m) @ t=4.7
20.959622918588696
% es.EX (V/m) @ t=4.7
19.369442753718275
% es.EY (V/m) @ t=4.7
1.2195912289773014
% es.EZ (V/m) @ t=4.7
7.830321591953222
% es.tEX (V/m) @ t=4.7
19.36944275371826
% es.tEY (V/m) @ t=4.7
0
% es.tEZ (V/m) @ t=4.7
7.830321591953215
% es.Ex (V/m) @ t=4.7
19.369442753718275
% es.Ey (V/m) @ t=4.7
1.2195912289773014
% es.Ez (V/m) @ t=4.7
7.830321591953222
% es.tEx (V/m) @ t=4.7
19.36944275371826
% es.tEy (V/m) @ t=4.7
0
% es.tEz (V/m) @ t=4.7
7.830321591953215
% V (V) @ t=4.7
0.10455078733537837
% es.normE (V/m) @ t=4.8
21.236845101032532
% es.EX (V/m) @ t=4.8
19.625641195135742
% es.EY (V/m) @ t=4.8
1.235677078173854
% es.EZ (V/m) @ t=4.8
7.9338697779954686
% es.tEX (V/m) @ t=4.8
19.625641195135756
% es.tEY (V/m) @ t=4.8
0
% es.tEZ (V/m) @ t=4.8
7.933869777995561
% es.Ex (V/m) @ t=4.8
19.625641195135742
% es.Ey (V/m) @ t=4.8
1.235677078173854
% es.Ez (V/m) @ t=4.8
7.9338697779954686
% es.tEx (V/m) @ t=4.8
19.625641195135756
% es.tEy (V/m) @ t=4.8
0
% es.tEz (V/m) @ t=4.8
7.933869777995561
% V (V) @ t=4.8
0.10593490085330766
% es.normE (V/m) @ t=4.9
21.490629251445306
% es.EX (V/m) @ t=4.9
19.860172595603345
% es.EY (V/m) @ t=4.9
1.2504362917733083
% es.EZ (V/m) @ t=4.9
8.028677784947476
% es.tEX (V/m) @ t=4.9
19.86017259560336
% es.tEY (V/m) @ t=4.9
0
% es.tEZ (V/m) @ t=4.9
8.02867778494744
% es.Ex (V/m) @ t=4.9
19.860172595603345
% es.Ey (V/m) @ t=4.9
1.2504362917733083
% es.Ez (V/m) @ t=4.9
8.028677784947476
% es.tEx (V/m) @ t=4.9
19.86017259560336
% es.tEy (V/m) @ t=4.9
0
% es.tEz (V/m) @ t=4.9
8.02867778494744
% V (V) @ t=4.9
0.10720105002345079
% es.normE (V/m) @ t=5
21.714270977750914
% es.EX (V/m) @ t=5
20.06684608015768
% es.EY (V/m) @ t=5
1.2634537333682028
% es.EZ (V/m) @ t=5
8.112230104970841
% es.tEX (V/m) @ t=5
20.066846080157674
% es.tEY (V/m) @ t=5
0
% es.tEZ (V/m) @ t=5
8.112230104970855
% es.Ex (V/m) @ t=5
20.06684608015768
% es.Ey (V/m) @ t=5
1.2634537333682028
% es.Ez (V/m) @ t=5
8.112230104970841
% es.tEx (V/m) @ t=5
20.066846080157674
% es.tEy (V/m) @ t=5
0
% es.tEz (V/m) @ t=5
8.112230104970855
% V (V) @ t=5
0.1083164994846531
% es.normE (V/m) @ t=5.1
21.907025288938293
% es.EX (V/m) @ t=5.1
20.244972452743504
% es.EY (V/m) @ t=5.1
1.2746897927211585
% es.EZ (V/m) @ t=5.1
8.184250031140618
% es.tEX (V/m) @ t=5.1
20.244972452743568
% es.tEY (V/m) @ t=5.1
0
% es.tEZ (V/m) @ t=5.1
8.184250031140643
% es.Ex (V/m) @ t=5.1
20.244972452743504
% es.Ey (V/m) @ t=5.1
1.2746897927211585
% es.Ez (V/m) @ t=5.1
8.184250031140618
% es.tEx (V/m) @ t=5.1
20.244972452743568
% es.tEy (V/m) @ t=5.1
0
% es.tEz (V/m) @ t=5.1
8.184250031140643
% V (V) @ t=5.1
0.10927742737333368
% es.normE (V/m) @ t=5.2
22.06814719407294
% es.EX (V/m) @ t=5.2
20.393862517306815
% es.EY (V/m) @ t=5.2
1.2841048595941924
% es.EZ (V/m) @ t=5.2
8.244460856532491
% es.tEX (V/m) @ t=5.2
20.393862517306843
% es.tEY (V/m) @ t=5.2
0
% es.tEZ (V/m) @ t=5.2
8.244460856532456
% es.Ex (V/m) @ t=5.2
20.393862517306815
% es.Ey (V/m) @ t=5.2
1.2841048595941924
% es.Ez (V/m) @ t=5.2
8.244460856532491
% es.tEx (V/m) @ t=5.2
20.393862517306843
% es.tEy (V/m) @ t=5.2
0
% es.tEz (V/m) @ t=5.2
8.244460856532456
% V (V) @ t=5.2
0.1100800118259115
% es.normE (V/m) @ t=5.3
22.20368674937078
% es.EX (V/m) @ t=5.3
20.519108995159897
% es.EY (V/m) @ t=5.3
1.2920423424143568
% es.EZ (V/m) @ t=5.3
8.29511910219189
% es.tEX (V/m) @ t=5.3
20.51910899515987
% es.tEY (V/m) @ t=5.3
0
% es.tEZ (V/m) @ t=5.3
8.295119102191904
% es.Ex (V/m) @ t=5.3
20.519108995159897
% es.Ey (V/m) @ t=5.3
1.2920423424143568
% es.Ez (V/m) @ t=5.3
8.29511910219189
% es.tEx (V/m) @ t=5.3
20.51910899515987
% es.tEy (V/m) @ t=5.3
0
% es.tEz (V/m) @ t=5.3
8.295119102191904
% V (V) @ t=5.3
0.11075467549977137
% es.normE (V/m) @ t=5.4
22.319425024867986
% es.EX (V/m) @ t=5.4
20.626055934075495
% es.EY (V/m) @ t=5.4
1.2988304875801848
% es.EZ (V/m) @ t=5.4
8.338381009787277
% es.tEX (V/m) @ t=5.4
20.626055934075495
% es.tEY (V/m) @ t=5.4
0
% es.tEZ (V/m) @ t=5.4
8.338381009787255
% es.Ex (V/m) @ t=5.4
20.626055934075495
% es.Ey (V/m) @ t=5.4