% Model:              1x1--2 - Copy1.mph
% Version:            COMSOL 6.1.0.252
% Date:               Mar 28 2023, 12:01
% Dimension:          0
% Nodes:              14017
% Expressions:        14017
% Description:        Electric field norm, Electric field, X component, Electric field, Y component, Electric field, Z component, Tangential electric field, X component, Tangential electric field, Y component, Tangential electric field, Z component, Electric field, x component, Electric field, y component, Electric field, z component, Tangential electric field, x component, Tangential electric field, y component, Tangential electric field, z component, Electric potential
% Length unit:        mm
% x
1.33
% y
12.2
% z
2
% es.normE (V/m) @ t=0
2.721912105452769
% es.EX (V/m) @ t=0
1.0847872297162247
% es.EY (V/m) @ t=0
0.28679786760619663
% es.EZ (V/m) @ t=0
-2.477675610814222
% es.tEX (V/m) @ t=0
1.084787229716218
% es.tEY (V/m) @ t=0
0
% es.tEZ (V/m) @ t=0
-2.4776756108142344
% es.Ex (V/m) @ t=0
1.0847872297162247
% es.Ey (V/m) @ t=0
0.28679786760619663
% es.Ez (V/m) @ t=0
-2.477675610814222
% es.tEx (V/m) @ t=0
1.084787229716218
% es.tEy (V/m) @ t=0
0
% es.tEz (V/m) @ t=0
-2.4776756108142344
% V (V) @ t=0
0.013609793392986978
% es.normE (V/m) @ t=0.1
2.800020056429072
% es.EX (V/m) @ t=0.1
1.1159162820299255
% es.EY (V/m) @ t=0.1
0.2950279370571778
% es.EZ (V/m) @ t=0.1
-2.5487749409060765
% es.tEX (V/m) @ t=0.1
1.115916282029926
% es.tEY (V/m) @ t=0.1
0
% es.tEZ (V/m) @ t=0.1
-2.5487749409060783
% es.Ex (V/m) @ t=0.1
1.1159162820299255
% es.Ey (V/m) @ t=0.1
0.2950279370571778
% es.Ez (V/m) @ t=0.1
-2.5487749409060765
% es.tEx (V/m) @ t=0.1
1.115916282029926
% es.tEy (V/m) @ t=0.1
0
% es.tEz (V/m) @ t=0.1
-2.5487749409060783
% V (V) @ t=0.1
0.014000335950973178
% es.normE (V/m) @ t=0.2
2.970121350798144
% es.EX (V/m) @ t=0.2
1.1837067999393027
% es.EY (V/m) @ t=0.2
0.3129483347683619
% es.EZ (V/m) @ t=0.2
-2.703613881491071
% es.tEX (V/m) @ t=0.2
1.1837067999393032
% es.tEY (V/m) @ t=0.2
0
% es.tEZ (V/m) @ t=0.2
-2.70361388149108
% es.Ex (V/m) @ t=0.2
1.1837067999393027
% es.Ey (V/m) @ t=0.2
0.3129483347683619
% es.Ez (V/m) @ t=0.2
-2.703613881491071
% es.tEx (V/m) @ t=0.2
1.1837067999393032
% es.tEy (V/m) @ t=0.2
0
% es.tEz (V/m) @ t=0.2
-2.70361388149108
% V (V) @ t=0.2
0.01485093995265055
% es.normE (V/m) @ t=0.3
3.1484409321928863
% es.EX (V/m) @ t=0.3
1.2547698278065993
% es.EY (V/m) @ t=0.3
0.331729453470178
% es.EZ (V/m) @ t=0.3
-2.865935252726688
% es.tEX (V/m) @ t=0.3
1.2547698278065997
% es.tEY (V/m) @ t=0.3
0
% es.tEZ (V/m) @ t=0.3
-2.865935252726686
% es.Ex (V/m) @ t=0.3
1.2547698278065993
% es.Ey (V/m) @ t=0.3
0.331729453470178
% es.Ez (V/m) @ t=0.3
-2.865935252726688
% es.tEx (V/m) @ t=0.3
1.2547698278065997
% es.tEy (V/m) @ t=0.3
0
% es.tEz (V/m) @ t=0.3
-2.865935252726686
% V (V) @ t=0.3
0.015742805437396857
% es.normE (V/m) @ t=0.4
3.335290396749181
% es.EX (V/m) @ t=0.4
1.3292284006888804
% es.EY (V/m) @ t=0.4
0.35140198144785906
% es.EZ (V/m) @ t=0.4
-3.0360233356221773
% es.tEX (V/m) @ t=0.4
1.3292284006888808
% es.tEY (V/m) @ t=0.4
0
% es.tEZ (V/m) @ t=0.4
-3.036023335622179
% es.Ex (V/m) @ t=0.4
1.3292284006888804
% es.Ey (V/m) @ t=0.4
0.35140198144785906
% es.Ez (V/m) @ t=0.4
-3.0360233356221773
% es.tEx (V/m) @ t=0.4
1.3292284006888808
% es.tEy (V/m) @ t=0.4
0
% es.tEz (V/m) @ t=0.4
-3.036023335622179
% V (V) @ t=0.4
0.01667756007949706
% es.normE (V/m) @ t=0.5
3.5343923658745835
% es.EX (V/m) @ t=0.5
1.4085647320507495
% es.EY (V/m) @ t=0.5
0.37235555800112863
% es.EZ (V/m) @ t=0.5
-3.217267504126969
% es.tEX (V/m) @ t=0.5
1.4085647320507428
% es.tEY (V/m) @ t=0.5
0
% es.tEZ (V/m) @ t=0.5
-3.2172675041269905
% es.Ex (V/m) @ t=0.5
1.4085647320507495
% es.Ey (V/m) @ t=0.5
0.37235555800112863
% es.Ez (V/m) @ t=0.5
-3.217267504126969
% es.tEx (V/m) @ t=0.5
1.4085647320507428
% es.tEy (V/m) @ t=0.5
0
% es.tEz (V/m) @ t=0.5
-3.2172675041269905
% V (V) @ t=0.5
0.017673901783641196
% es.normE (V/m) @ t=0.6
3.740089793370339
% es.EX (V/m) @ t=0.6
1.4905410475791192
% es.EY (V/m) @ t=0.6
0.3940254438039297
% es.EZ (V/m) @ t=0.6
-3.404508900686933
% es.tEX (V/m) @ t=0.6
1.4905410475791196
% es.tEY (V/m) @ t=0.6
0
% es.tEZ (V/m) @ t=0.6
-3.4045089006869276
% es.Ex (V/m) @ t=0.6
1.4905410475791192
% es.Ey (V/m) @ t=0.6
0.3940254438039297
% es.Ez (V/m) @ t=0.6
-3.404508900686933
% es.tEx (V/m) @ t=0.6
1.4905410475791196
% es.tEy (V/m) @ t=0.6
0
% es.tEz (V/m) @ t=0.6
-3.4045089006869276
% V (V) @ t=0.6
0.018702526760738653
% es.normE (V/m) @ t=0.7
3.9553191885368397
% es.EX (V/m) @ t=0.7
1.576332752773741
% es.EY (V/m) @ t=0.7
0.41673056267491937
% es.EZ (V/m) @ t=0.7
-3.6004176833008454
% es.tEX (V/m) @ t=0.7
1.5763327527737419
% es.tEY (V/m) @ t=0.7
0
% es.tEZ (V/m) @ t=0.7
-3.6004176833008543
% es.Ex (V/m) @ t=0.7
1.576332752773741
% es.Ey (V/m) @ t=0.7
0.41673056267491937
% es.Ez (V/m) @ t=0.7
-3.6004176833008454
% es.tEx (V/m) @ t=0.7
1.5763327527737419
% es.tEy (V/m) @ t=0.7
0
% es.tEz (V/m) @ t=0.7
-3.6004176833008543
% V (V) @ t=0.7
0.019777808557819982
% es.normE (V/m) @ t=0.8
4.179443691363426
% es.EX (V/m) @ t=0.8
1.665680157637468
% es.EY (V/m) @ t=0.8
0.44039283667644114
% es.EZ (V/m) @ t=0.8
-3.8044174345180917
% es.tEX (V/m) @ t=0.8
1.6656801576374614
% es.tEY (V/m) @ t=0.8
0
% es.tEZ (V/m) @ t=0.8
-3.8044174345181005
% es.Ex (V/m) @ t=0.8
1.665680157637468
% es.Ey (V/m) @ t=0.8
0.44039283667644114
% es.Ez (V/m) @ t=0.8
-3.8044174345180917
% es.tEx (V/m) @ t=0.8
1.6656801576374614
% es.tEy (V/m) @ t=0.8
0
% es.tEz (V/m) @ t=0.8
-3.8044174345181005
% V (V) @ t=0.8
0.02089691950821194
% es.normE (V/m) @ t=0.9
4.416333153666724
% es.EX (V/m) @ t=0.9
1.7600920443460737
% es.EY (V/m) @ t=0.9
0.4653574552528781
% es.EZ (V/m) @ t=0.9
-4.020049573904798
% es.tEX (V/m) @ t=0.9
1.7600920443460746
% es.tEY (V/m) @ t=0.9
0
% es.tEZ (V/m) @ t=0.9
-4.020049573904803
% es.Ex (V/m) @ t=0.9
1.7600920443460737
% es.Ey (V/m) @ t=0.9
0.4653574552528781
% es.Ez (V/m) @ t=0.9
-4.020049573904798
% es.tEx (V/m) @ t=0.9
1.7600920443460746
% es.tEy (V/m) @ t=0.9
0
% es.tEz (V/m) @ t=0.9
-4.020049573904803
% V (V) @ t=0.9
0.02208124270434074
% es.normE (V/m) @ t=1
4.664119165439134
% es.EX (V/m) @ t=1
1.8588399553380217
% es.EY (V/m) @ t=1
0.4914577569305756
% es.EZ (V/m) @ t=1
-4.245604262954981
% es.tEX (V/m) @ t=1
1.8588399553380226
% es.tEY (V/m) @ t=1
0
% es.tEZ (V/m) @ t=1
-4.245604262954988
% es.Ex (V/m) @ t=1
1.8588399553380217
% es.Ey (V/m) @ t=1
0.4914577569305756
% es.Ez (V/m) @ t=1
-4.245604262954981
% es.tEx (V/m) @ t=1
1.8588399553380226
% es.tEy (V/m) @ t=1
0
% es.tEz (V/m) @ t=1
-4.245604262954988
% V (V) @ t=1
0.023320454140782983
% es.normE (V/m) @ t=1.1
4.923877969628516
% es.EX (V/m) @ t=1.1
1.9623571159156876
% es.EY (V/m) @ t=1.1
0.5188151743596094
% es.EZ (V/m) @ t=1.1
-4.482058758879013
% es.tEX (V/m) @ t=1.1
1.9623571159156885
% es.tEY (V/m) @ t=1.1
0
% es.tEZ (V/m) @ t=1.1
-4.48205875887902
% es.Ex (V/m) @ t=1.1
1.9623571159156876
% es.Ey (V/m) @ t=1.1
0.5188151743596094
% es.Ez (V/m) @ t=1.1
-4.482058758879013
% es.tEx (V/m) @ t=1.1
1.9623571159156885
% es.tEy (V/m) @ t=1.1
0
% es.tEz (V/m) @ t=1.1
-4.48205875887902
% V (V) @ t=1.1
0.0246196740255002
% es.normE (V/m) @ t=1.2
5.196560365378784
% es.EX (V/m) @ t=1.2
2.071026255926852
% es.EY (V/m) @ t=1.2
0.5475369863611554
% es.EZ (V/m) @ t=1.2
-4.7302764126896655
% es.tEX (V/m) @ t=1.2
2.071026255926853
% es.tEY (V/m) @ t=1.2
0
% es.tEZ (V/m) @ t=1.2
-4.730276412689676
% es.Ex (V/m) @ t=1.2
2.071026255926852
% es.Ey (V/m) @ t=1.2
0.5475369863611554
% es.Ez (V/m) @ t=1.2
-4.7302764126896655
% es.tEx (V/m) @ t=1.2
2.071026255926853
% es.tEy (V/m) @ t=1.2
0
% es.tEz (V/m) @ t=1.2
-4.730276412689676
% V (V) @ t=1.2
0.025983425770223025
% es.normE (V/m) @ t=1.3
5.481474143683758
% es.EX (V/m) @ t=1.3
2.1845687370719054
% es.EY (V/m) @ t=1.3
0.5775450908783792
% es.EZ (V/m) @ t=1.3
-4.989628680102975
% es.tEX (V/m) @ t=1.3
2.1845687370719062
% es.tEY (V/m) @ t=1.3
0
% es.tEZ (V/m) @ t=1.3
-4.989628680102982
% es.Ex (V/m) @ t=1.3
2.1845687370719054
% es.Ey (V/m) @ t=1.3
0.5775450908783792
% es.Ez (V/m) @ t=1.3
-4.989628680102975
% es.tEx (V/m) @ t=1.3
2.1845687370719062
% es.tEy (V/m) @ t=1.3
0
% es.tEz (V/m) @ t=1.3
-4.989628680102982
% V (V) @ t=1.3
0.027408416201554604
% es.normE (V/m) @ t=1.4
5.780143116698041
% es.EX (V/m) @ t=1.4
2.3035971745487007
% es.EY (V/m) @ t=1.4
0.6090099724474207
% es.EZ (V/m) @ t=1.4
-5.261499657376444
% es.tEX (V/m) @ t=1.4
2.3035971745486865
% es.tEY (V/m) @ t=1.4
0
% es.tEZ (V/m) @ t=1.4
-5.261499657376447
% es.Ex (V/m) @ t=1.4
2.3035971745487007
% es.Ey (V/m) @ t=1.4
0.6090099724474207
% es.Ez (V/m) @ t=1.4
-5.261499657376444
% es.tEx (V/m) @ t=1.4
2.3035971745486865
% es.tEy (V/m) @ t=1.4
0
% es.tEz (V/m) @ t=1.4
-5.261499657376447
% V (V) @ t=1.4
0.028901941873774165
% es.normE (V/m) @ t=1.5
6.092144676190399
% es.EX (V/m) @ t=1.5
2.427941668020895
% es.EY (V/m) @ t=1.5
0.6418843495445898
% es.EZ (V/m) @ t=1.5
-5.545505484591974
% es.tEX (V/m) @ t=1.5
2.427941668020896
% es.tEY (V/m) @ t=1.5
0
% es.tEZ (V/m) @ t=1.5
-5.545505484591999
% es.Ex (V/m) @ t=1.5
2.427941668020895
% es.Ey (V/m) @ t=1.5
0.6418843495445898
% es.Ez (V/m) @ t=1.5
-5.545505484591974
% es.tEx (V/m) @ t=1.5
2.427941668020896
% es.tEy (V/m) @ t=1.5
0
% es.tEz (V/m) @ t=1.5
-5.545505484591999
% V (V) @ t=1.5
0.030461979188657985
% es.normE (V/m) @ t=1.6
6.417348493260819
% es.EX (V/m) @ t=1.6
2.5575498216157238
% es.EY (V/m) @ t=1.6
0.6761536409349453
% es.EZ (V/m) @ t=1.6
-5.84152778249349
% es.tEX (V/m) @ t=1.6
2.5575498216157246
% es.tEY (V/m) @ t=1.6
0
% es.tEZ (V/m) @ t=1.6
-5.8415277824935
% es.Ex (V/m) @ t=1.6
2.5575498216157238
% es.Ey (V/m) @ t=1.6
0.6761536409349453
% es.Ez (V/m) @ t=1.6
-5.84152778249349
% es.tEx (V/m) @ t=1.6
2.5575498216157246
% es.tEy (V/m) @ t=1.6
0
% es.tEz (V/m) @ t=1.6
-5.8415277824935
% V (V) @ t=1.6
0.03208790408508118
% es.normE (V/m) @ t=1.7
6.755754567932131
% es.EX (V/m) @ t=1.7
2.6924216353332016
% es.EY (V/m) @ t=1.7
0.7118178466185849
% es.EZ (V/m) @ t=1.7
-6.149566551080984
% es.tEX (V/m) @ t=1.7
2.6924216353332024
% es.tEY (V/m) @ t=1.7
0
% es.tEZ (V/m) @ t=1.7
-6.149566551081001
% es.Ex (V/m) @ t=1.7
2.6924216353332016
% es.Ey (V/m) @ t=1.7
0.7118178466185849
% es.Ez (V/m) @ t=1.7
-6.149566551080984
% es.tEx (V/m) @ t=1.7
2.6924216353332024
% es.tEy (V/m) @ t=1.7
0
% es.tEz (V/m) @ t=1.7
-6.149566551081001
% V (V) @ t=1.7
0.03377971656304373
% es.normE (V/m) @ t=1.8
7.107362900240243
% es.EX (V/m) @ t=1.8
2.83255710917335
% es.EY (V/m) @ t=1.8
0.7488769665954358
% es.EZ (V/m) @ t=1.8
-6.469621790354456
% es.tEX (V/m) @ t=1.8
2.832557109173351
% es.tEY (V/m) @ t=1.8
0
% es.tEZ (V/m) @ t=1.8
-6.4696217903544735
% es.Ex (V/m) @ t=1.8
2.83255710917335
% es.Ey (V/m) @ t=1.8
0.7488769665954358
% es.Ez (V/m) @ t=1.8
-6.469621790354456
% es.tEx (V/m) @ t=1.8
2.832557109173351
% es.tEy (V/m) @ t=1.8
0
% es.tEz (V/m) @ t=1.8
-6.4696217903544735
% V (V) @ t=1.8
0.03553741662254564
% es.normE (V/m) @ t=1.9
7.468713013740016
% es.EX (V/m) @ t=1.9
2.9765758815838277
% es.EY (V/m) @ t=1.9
0.7869640727344454
% es.EZ (V/m) @ t=1.9
-6.7985442219207854
% es.tEX (V/m) @ t=1.9
2.9765758815838286
% es.tEY (V/m) @ t=1.9
0
% es.tEZ (V/m) @ t=1.9
-6.7985442219207926
% es.Ex (V/m) @ t=1.9
2.9765758815838277
% es.Ey (V/m) @ t=1.9
0.7869640727344454
% es.Ez (V/m) @ t=1.9
-6.7985442219207854
% es.tEx (V/m) @ t=1.9
2.9765758815838286
% es.tEy (V/m) @ t=1.9
0
% es.tEz (V/m) @ t=1.9
-6.7985442219207926
% V (V) @ t=1.9
0.037343776698625916
% es.normE (V/m) @ t=2
7.839921506113026
% es.EX (V/m) @ t=2
3.1245244626159607
% es.EY (V/m) @ t=2
0.8260915283512915
% es.EZ (V/m) @ t=2
-7.136439957905981
% es.tEX (V/m) @ t=2
3.1245244626159625
% es.tEY (V/m) @ t=2
0
% es.tEZ (V/m) @ t=2
-7.136439957906006
% es.Ex (V/m) @ t=2
3.1245244626159607
% es.Ey (V/m) @ t=2
0.8260915283512915
% es.Ez (V/m) @ t=2
-7.136439957905981
% es.tEx (V/m) @ t=2
3.1245244626159625
% es.tEy (V/m) @ t=2
0
% es.tEz (V/m) @ t=2
-7.136439957906006
% V (V) @ t=2
0.039199377258716694
% es.normE (V/m) @ t=2.1
8.222528408665166
% es.EX (V/m) @ t=2.1
3.2770171607260057
% es.EY (V/m) @ t=2.1
0.8664226291086088
% es.EZ (V/m) @ t=2.1
-7.484710535715632
% es.tEX (V/m) @ t=2.1
3.2770171607260075
% es.tEY (V/m) @ t=2.1
0
% es.tEZ (V/m) @ t=2.1
-7.484710535715649
% es.Ex (V/m) @ t=2.1
3.2770171607260057
% es.Ey (V/m) @ t=2.1
0.8664226291086088
% es.Ez (V/m) @ t=2.1
-7.484710535715632
% es.tEx (V/m) @ t=2.1
3.2770171607260075
% es.tEy (V/m) @ t=2.1
0
% es.tEz (V/m) @ t=2.1
-7.484710535715649
% V (V) @ t=2.1
0.041111885162869385
% es.normE (V/m) @ t=2.2
8.616533721426084
% es.EX (V/m) @ t=2.2
3.4340539759140443
% es.EY (V/m) @ t=2.2
0.9079573750063936
% es.EZ (V/m) @ t=2.2
-7.843355955349839
% es.tEX (V/m) @ t=2.2
3.434053975914045
% es.tEY (V/m) @ t=2.2
0
% es.tEZ (V/m) @ t=2.2
-7.843355955349828
% es.Ex (V/m) @ t=2.2
3.4340539759140443
% es.Ey (V/m) @ t=2.2
0.9079573750063936
% es.Ez (V/m) @ t=2.2
-7.843355955349839
% es.tEx (V/m) @ t=2.2
3.434053975914045
% es.tEy (V/m) @ t=2.2
0
% es.tEz (V/m) @ t=2.2
-7.843355955349828
% V (V) @ t=2.2
0.04308130041108397
% es.normE (V/m) @ t=2.3
9.021937444425577
% es.EX (V/m) @ t=2.3
3.5956349081801022
% es.EY (V/m) @ t=2.3
0.9506957660445821
% es.EZ (V/m) @ t=2.3
-8.212376216808547
% es.tEX (V/m) @ t=2.3
3.595634908180104
% es.tEY (V/m) @ t=2.3
0
% es.tEZ (V/m) @ t=2.3
-8.212376216808572
% es.Ex (V/m) @ t=2.3
3.5956349081801022
% es.Ey (V/m) @ t=2.3
0.9506957660445821
% es.Ez (V/m) @ t=2.3
-8.212376216808547
% es.tEx (V/m) @ t=2.3
3.595634908180104
% es.tEy (V/m) @ t=2.3
0
% es.tEz (V/m) @ t=2.3
-8.212376216808572
% V (V) @ t=2.3
0.045107623003360464
% es.normE (V/m) @ t=2.4
9.433168746954841
% es.EX (V/m) @ t=2.4
3.7595405111350146
% es.EY (V/m) @ t=2.4
0.9940521938188844
% es.EZ (V/m) @ t=2.4
-8.586699941618644
% es.tEX (V/m) @ t=2.4
3.7595405111350164
% es.tEY (V/m) @ t=2.4
0
% es.tEZ (V/m) @ t=2.4
-8.586699941618683
% es.Ex (V/m) @ t=2.4
3.7595405111350146
% es.Ey (V/m) @ t=2.4
0.9940521938188844
% es.Ez (V/m) @ t=2.4
-8.586699941618644
% es.tEx (V/m) @ t=2.4
3.7595405111350164
% es.tEy (V/m) @ t=2.4
0
% es.tEz (V/m) @ t=2.4
-8.586699941618683
% V (V) @ t=2.4
0.047162953826044025
% es.normE (V/m) @ t=2.5
9.8443477706874
% es.EX (V/m) @ t=2.5
3.9234282202494004
% es.EY (V/m) @ t=2.5
1.037408564789235
% es.EZ (V/m) @ t=2.5
-8.96097442949231
% es.tEX (V/m) @ t=2.5
3.923428220249402
% es.tEY (V/m) @ t=2.5
0
% es.tEZ (V/m) @ t=2.5
-8.960974429492339
% es.Ex (V/m) @ t=2.5
3.9234282202494004
% es.Ey (V/m) @ t=2.5
1.037408564789235
% es.Ez (V/m) @ t=2.5
-8.96097442949231
% es.tEx (V/m) @ t=2.5
3.923428220249402
% es.tEy (V/m) @ t=2.5
0
% es.tEz (V/m) @ t=2.5
-8.960974429492339
% V (V) @ t=2.5
0.049217846133149404
% es.normE (V/m) @ t=2.6
10.262103193723394
% es.EX (V/m) @ t=2.6
4.089938933480466
% es.EY (V/m) @ t=2.6
1.081461688775505
% es.EZ (V/m) @ t=2.6
-9.341234065001906
% es.tEX (V/m) @ t=2.6
4.089938933480468
% es.tEY (V/m) @ t=2.6
0
% es.tEZ (V/m) @ t=2.6
-9.341234065001956
% es.Ex (V/m) @ t=2.6
4.089938933480466
% es.Ey (V/m) @ t=2.6
1.081461688775505
% es.Ez (V/m) @ t=2.6
-9.341234065001906
% es.tEx (V/m) @ t=2.6
4.089938933480468
% es.tEy (V/m) @ t=2.6
0
% es.tEz (V/m) @ t=2.6
-9.341234065001956
% V (V) @ t=2.6
0.05130549681225233
% es.normE (V/m) @ t=2.7
10.686435016123003
% es.EX (V/m) @ t=2.7
4.259072650828243
% es.EY (V/m) @ t=2.7
1.1262115657775702
% es.EZ (V/m) @ t=2.7
-9.727478848147548
% es.tEX (V/m) @ t=2.7
4.259072650828244
% es.tEY (V/m) @ t=2.7
0
% es.tEZ (V/m) @ t=2.7
-9.72747884814757
% es.Ex (V/m) @ t=2.7
4.259072650828243
% es.Ey (V/m) @ t=2.7
1.1262115657775702
% es.Ez (V/m) @ t=2.7
-9.727478848147548
% es.tEx (V/m) @ t=2.7
4.259072650828244
% es.tEy (V/m) @ t=2.7
0
% es.tEz (V/m) @ t=2.7
-9.72747884814757
% V (V) @ t=2.7
0.05342590586335278
% es.normE (V/m) @ t=2.8
11.1173432379466
% es.EX (V/m) @ t=2.8
4.430829372292818
% es.EY (V/m) @ t=2.8
1.1716581957954553
% es.EZ (V/m) @ t=2.8
-10.119708778929173
% es.tEX (V/m) @ t=2.8
4.430829372292791
% es.tEY (V/m) @ t=2.8
0
% es.tEZ (V/m) @ t=2.8
-10.119708778929194
% es.Ex (V/m) @ t=2.8
4.430829372292818
% es.Ey (V/m) @ t=2.8
1.1716581957954553
% es.Ez (V/m) @ t=2.8
-10.119708778929173
% es.tEx (V/m) @ t=2.8
4.430829372292791
% es.tEy (V/m) @ t=2.8
0
% es.tEz (V/m) @ t=2.8
-10.119708778929194
% V (V) @ t=2.8
0.05557907328645077
% es.normE (V/m) @ t=2.9
11.552200040106225
% es.EX (V/m) @ t=2.9
4.604157429999413
% es.EY (V/m) @ t=2.9
1.2175165007262336
% es.EZ (V/m) @ t=2.9
-10.515534292598055
% es.tEX (V/m) @ t=2.9
4.604157429999415
% es.tEY (V/m) @ t=2.9
0
% es.tEZ (V/m) @ t=2.9
-10.515534292598105
% es.Ex (V/m) @ t=2.9
4.604157429999413
% es.Ey (V/m) @ t=2.9
1.2175165007262336
% es.Ez (V/m) @ t=2.9
-10.515534292598055
% es.tEx (V/m) @ t=2.9
4.604157429999415
% es.tEy (V/m) @ t=2.9
0
% es.tEz (V/m) @ t=2.9
-10.515534292598105
% V (V) @ t=2.9
0.057752126004056666
% es.normE (V/m) @ t=3
11.977097651975665
% es.EX (V/m) @ t=3
4.77349085663584
% es.EY (V/m) @ t=3
1.2622777006206078
% es.EZ (V/m) @ t=3
-10.902308583444146
% es.tEX (V/m) @ t=3
4.773490856635842
% es.tEY (V/m) @ t=3
0
% es.tEZ (V/m) @ t=3
-10.902308583444167
% es.Ex (V/m) @ t=3
4.77349085663584
% es.Ey (V/m) @ t=3
1.2622777006206078
% es.Ez (V/m) @ t=3
-10.902308583444146
% es.tEx (V/m) @ t=3
4.773490856635842
% es.tEy (V/m) @ t=3
0
% es.tEz (V/m) @ t=3
-10.902308583444167
% V (V) @ t=3
0.059876933068897714
% es.normE (V/m) @ t=3.1
12.402743005882925
% es.EX (V/m) @ t=3.1
4.9431146261917664
% es.EY (V/m) @ t=3.1
1.3071033335325843
% es.EZ (V/m) @ t=3.1
-11.289767826777215
% es.tEX (V/m) @ t=3.1
4.943114626191768
% es.tEY (V/m) @ t=3.1
0
% es.tEZ (V/m) @ t=3.1
-11.28976782677725
% es.Ex (V/m) @ t=3.1
4.9431146261917664
% es.Ey (V/m) @ t=3.1
1.3071033335325843
% es.Ez (V/m) @ t=3.1
-11.289767826777215
% es.tEx (V/m) @ t=3.1
4.943114626191768
% es.tEy (V/m) @ t=3.1
0
% es.tEz (V/m) @ t=3.1
-11.28976782677725
% V (V) @ t=3.1
0.06200594526276706
% es.normE (V/m) @ t=3.2
12.829136102122977
% es.EX (V/m) @ t=3.2
5.113028738667479
% es.EY (V/m) @ t=3.2
1.3519933994616231
% es.EZ (V/m) @ t=3.2
-11.677912022597532
% es.tEX (V/m) @ t=3.2
5.113028738667481
% es.tEY (V/m) @ t=3.2
0
% es.tEZ (V/m) @ t=3.2
-11.677912022597582
% es.Ex (V/m) @ t=3.2
5.113028738667479
% es.Ey (V/m) @ t=3.2
1.3519933994616231
% es.Ez (V/m) @ t=3.2
-11.677912022597532
% es.tEx (V/m) @ t=3.2
5.113028738667481
% es.tEy (V/m) @ t=3.2
0
% es.tEz (V/m) @ t=3.2
-11.677912022597582
% V (V) @ t=3.2
0.06413916258566468
% es.normE (V/m) @ t=3.3
13.256276941081598
% es.EX (V/m) @ t=3.3
5.283233194062857
% es.EY (V/m) @ t=3.3
1.3969478984080865
% es.EZ (V/m) @ t=3.3
-12.066741170904983
% es.tEX (V/m) @ t=3.3
5.283233194062859
% es.tEY (V/m) @ t=3.3
0
% es.tEZ (V/m) @ t=3.3
-12.066741170905004
% es.Ex (V/m) @ t=3.3
5.283233194062857
% es.Ey (V/m) @ t=3.3
1.3969478984080865
% es.Ez (V/m) @ t=3.3
-12.066741170904983
% es.tEx (V/m) @ t=3.3
5.283233194062859
% es.tEy (V/m) @ t=3.3
0
% es.tEz (V/m) @ t=3.3
-12.066741170905004
% V (V) @ t=3.3
0.06627658503759064
% es.normE (V/m) @ t=3.4
13.684165523221218
% es.EX (V/m) @ t=3.4
5.453727992377621
% es.EY (V/m) @ t=3.4
1.4419668303718574
% es.EZ (V/m) @ t=3.4
-12.456255271699412
% es.tEX (V/m) @ t=3.4
5.4537279923776225
% es.tEY (V/m) @ t=3.4
0
% es.tEZ (V/m) @ t=3.4
-12.456255271699419
% es.Ex (V/m) @ t=3.4
5.453727992377621
% es.Ey (V/m) @ t=3.4
1.4419668303718574
% es.Ez (V/m) @ t=3.4
-12.456255271699412
% es.tEx (V/m) @ t=3.4
5.4537279923776225
% es.tEy (V/m) @ t=3.4
0
% es.tEz (V/m) @ t=3.4
-12.456255271699419
% V (V) @ t=3.4
0.06841821261854485
% es.normE (V/m) @ t=3.5
14.106189326781001
% es.EX (V/m) @ t=3.5
5.621885650458323
% es.EY (V/m) @ t=3.5
1.4863681402807494
% es.EZ (V/m) @ t=3.5
-12.840430727487806
% es.tEX (V/m) @ t=3.5
5.621885650458353
% es.tEY (V/m) @ t=3.5
0
% es.tEZ (V/m) @ t=3.5
-12.840430727487856
% es.Ex (V/m) @ t=3.5
5.621885650458323
% es.Ey (V/m) @ t=3.5
1.4863681402807494
% es.Ez (V/m) @ t=3.5
-12.840430727487806
% es.tEx (V/m) @ t=3.5
5.621885650458353
% es.tEy (V/m) @ t=3.5
0
% es.tEz (V/m) @ t=3.5
-12.840430727487856
% V (V) @ t=3.5
0.07053050554002616
% es.normE (V/m) @ t=3.6
14.524786857745415
% es.EX (V/m) @ t=3.6
5.788675107721639
% es.EY (V/m) @ t=3.6
1.5304033502204568
% es.EZ (V/m) @ t=3.6
-13.221488865943371
% es.tEX (V/m) @ t=3.6
5.7886751077216125
% es.tEY (V/m) @ t=3.6
0
% es.tEZ (V/m) @ t=3.6
-13.221488865943329
% es.Ex (V/m) @ t=3.6
5.788675107721639
% es.Ey (V/m) @ t=3.6
1.5304033502204568
% es.Ez (V/m) @ t=3.6
-13.221488865943371
% es.tEx (V/m) @ t=3.6
5.7886751077216125
% es.tEy (V/m) @ t=3.6
0
% es.tEz (V/m) @ t=3.6
-13.221488865943329
% V (V) @ t=3.6
0.07262583230116383
% es.normE (V/m) @ t=3.7
14.939760747957628
% es.EX (V/m) @ t=3.7
5.954017939962474
% es.EY (V/m) @ t=3.7
1.574052102448043
% es.EZ (V/m) @ t=3.7
-13.599249896819742
% es.tEX (V/m) @ t=3.7
5.954017939962448
% es.tEY (V/m) @ t=3.7
0
% es.tEZ (V/m) @ t=3.7
-13.599249896819757
% es.Ex (V/m) @ t=3.7
5.954017939962474
% es.Ey (V/m) @ t=3.7
1.574052102448043
% es.Ez (V/m) @ t=3.7
-13.599249896819742
% es.tEx (V/m) @ t=3.7
5.954017939962448
% es.tEy (V/m) @ t=3.7
0
% es.tEz (V/m) @ t=3.7
-13.599249896819757
% V (V) @ t=3.7
0.07470319181799809
% es.normE (V/m) @ t=3.8
15.3505010401399
% es.EX (V/m) @ t=3.8
6.117671780873236
% es.EY (V/m) @ t=3.8
1.617251482318963
% es.EZ (V/m) @ t=3.8
-13.97315818683657
% es.tEX (V/m) @ t=3.8
6.117671780873209
% es.tEY (V/m) @ t=3.8
0
% es.tEZ (V/m) @ t=3.8
-13.97315818683667
% es.Ex (V/m) @ t=3.8
6.117671780873236
% es.Ey (V/m) @ t=3.8
1.617251482318963
% es.Ez (V/m) @ t=3.8
-13.97315818683657
% es.tEx (V/m) @ t=3.8
6.117671780873209
% es.tEy (V/m) @ t=3.8
0
% es.tEz (V/m) @ t=3.8
-13.97315818683667
% V (V) @ t=3.8
0.07675949028774227
% es.normE (V/m) @ t=3.9
15.756397776942316
% es.EX (V/m) @ t=3.9
6.279394264146328
% es.EY (V/m) @ t=3.9
1.6599385751878941
% es.EZ (V/m) @ t=3.9
-14.342658102713493
% es.tEX (V/m) @ t=3.9
6.27939426414633
% es.tEY (V/m) @ t=3.9
0
% es.tEZ (V/m) @ t=3.9
-14.3426581027135
% es.Ex (V/m) @ t=3.9
6.279394264146328
% es.Ey (V/m) @ t=3.9
1.6599385751878941
% es.Ez (V/m) @ t=3.9
-14.342658102713493
% es.tEx (V/m) @ t=3.9
6.27939426414633
% es.tEy (V/m) @ t=3.9
0
% es.tEz (V/m) @ t=3.9
-14.3426581027135
% V (V) @ t=3.9
0.07879163390760946
% es.normE (V/m) @ t=4
16.15826130403743
% es.EX (V/m) @ t=4
6.439525284370616
% es.EY (V/m) @ t=4
1.7022303915916197
% es.EZ (V/m) @ t=4
-14.708477771485043
% es.tEX (V/m) @ t=4
6.439525284370617
% es.tEY (V/m) @ t=4
0
% es.tEZ (V/m) @ t=4
-14.708477771485093
% es.Ex (V/m) @ t=4
6.439525284370616
% es.Ey (V/m) @ t=4
1.7022303915916197
% es.Ez (V/m) @ t=4
-14.708477771485043
% es.tEx (V/m) @ t=4
6.439525284370617
% es.tEy (V/m) @ t=4
0
% es.tEz (V/m) @ t=4
-14.708477771485093
% V (V) @ t=4
0.08080264584193363
% es.normE (V/m) @ t=4.1
16.555680086099265
% es.EX (V/m) @ t=4.1
6.597903819731975
% es.EY (V/m) @ t=4.1
1.7440891532504423
% es.EZ (V/m) @ t=4.1
-15.07024090702086
% es.tEX (V/m) @ t=4.1
6.597903819731979
% es.tEY (V/m) @ t=4.1
0
% es.tEZ (V/m) @ t=4.1
-15.070240907020946
% es.Ex (V/m) @ t=4.1
6.597903819731975
% es.Ey (V/m) @ t=4.1
1.7440891532504423
% es.Ez (V/m) @ t=4.1
-15.07024090702086
% es.tEx (V/m) @ t=4.1
6.597903819731979
% es.tEy (V/m) @ t=4.1
0
% es.tEz (V/m) @ t=4.1
-15.070240907020946
% V (V) @ t=4.1
0.08279028685603426
% es.normE (V/m) @ t=4.2
16.9477325989921
% es.EX (V/m) @ t=4.2
6.754159775543416
% es.EY (V/m) @ t=4.2
1.7854124760108334
% es.EZ (V/m) @ t=4.2
-15.427110262377184
% es.tEX (V/m) @ t=4.2
6.7541597755434175
% es.tEY (V/m) @ t=4.2
0
% es.tEZ (V/m) @ t=4.2
-15.427110262377212
% es.Ex (V/m) @ t=4.2
6.754159775543416
% es.Ey (V/m) @ t=4.2
1.7854124760108334
% es.Ez (V/m) @ t=4.2
-15.427110262377184
% es.tEx (V/m) @ t=4.2
6.7541597755434175
% es.tEy (V/m) @ t=4.2
0
% es.tEz (V/m) @ t=4.2
-15.427110262377212
% V (V) @ t=4.2
0.08475012129109503
% es.normE (V/m) @ t=4.3
17.33399765786069
% es.EX (V/m) @ t=4.3
6.90812817366816
% es.EY (V/m) @ t=4.3
1.826161359044562
% es.EZ (V/m) @ t=4.3
-15.778700828581457
% es.tEX (V/m) @ t=4.3
6.908128173668164
% es.tEY (V/m) @ t=4.3
0
% es.tEZ (V/m) @ t=4.3
-15.778700828581506
% es.Ex (V/m) @ t=4.3
6.90812817366816
% es.Ey (V/m) @ t=4.3
1.826161359044562
% es.Ez (V/m) @ t=4.3
-15.778700828581457
% es.tEx (V/m) @ t=4.3
6.908128173668164
% es.tEy (V/m) @ t=4.3
0
% es.tEz (V/m) @ t=4.3
-15.778700828581506
% V (V) @ t=4.3
0.08667986834911492
% es.normE (V/m) @ t=4.4
17.714054078537153
% es.EX (V/m) @ t=4.4
7.059644035968843
% es.EY (V/m) @ t=4.4
1.8662968015240153
% es.EZ (V/m) @ t=4.4
-16.124627596660666
% es.tEX (V/m) @ t=4.4
7.059644035968816
% es.tEY (V/m) @ t=4.4
0
% es.tEZ (V/m) @ t=4.4
-16.124627596660645
% es.Ex (V/m) @ t=4.4
7.059644035968843
% es.Ey (V/m) @ t=4.4
1.8662968015240153
% es.Ez (V/m) @ t=4.4
-16.124627596660666
% es.tEx (V/m) @ t=4.4
7.059644035968816
% es.tEy (V/m) @ t=4.4
0
% es.tEz (V/m) @ t=4.4
-16.124627596660645
% V (V) @ t=4.4
0.08857724723209287
% es.normE (V/m) @ t=4.5
18.087886802428528
% es.EX (V/m) @ t=4.5
7.208683123437837
% es.EY (V/m) @ t=4.5
1.9057831777113279
% es.EZ (V/m) @ t=4.5
-16.46488709377288
% es.tEX (V/m) @ t=4.5
7.208683123437812
% es.tEY (V/m) @ t=4.5
0
% es.tEZ (V/m) @ t=4.5
-16.4648870937729
% es.Ex (V/m) @ t=4.5
7.208683123437837
% es.Ey (V/m) @ t=4.5
1.9057831777113279
% es.Ez (V/m) @ t=4.5
-16.46488709377288
% es.tEx (V/m) @ t=4.5
7.208683123437812
% es.tEy (V/m) @ t=4.5
0
% es.tEz (V/m) @ t=4.5
-16.4648870937729
% V (V) @ t=4.5
0.09044328920908466
% es.normE (V/m) @ t=4.6
18.455561873740248
% es.EX (V/m) @ t=4.6
7.3552493032412265
% es.EY (V/m) @ t=4.6
1.9445855358876187
% es.EZ (V/m) @ t=4.6
-16.799552041387344
% es.tEX (V/m) @ t=4.6
7.355249303241202
% es.tEY (V/m) @ t=4.6
0
% es.tEZ (V/m) @ t=4.6
-16.799552041387372
% es.Ex (V/m) @ t=4.6
7.3552493032412265
% es.Ey (V/m) @ t=4.6
1.9445855358876187
% es.Ez (V/m) @ t=4.6
-16.799552041387344
% es.tEx (V/m) @ t=4.6
7.355249303241202
% es.tEy (V/m) @ t=4.6
0
% es.tEz (V/m) @ t=4.6
-16.799552041387372
% V (V) @ t=4.6
0.09227968698235278
% es.normE (V/m) @ t=4.7
18.81636064526074
% es.EX (V/m) @ t=4.7
7.499074514382228
% es.EY (V/m) @ t=4.7
1.9826624031765263
% es.EZ (V/m) @ t=4.7
-17.12795797849853
% es.tEX (V/m) @ t=4.7
7.4990745143822295
% es.tEY (V/m) @ t=4.7
0
% es.tEZ (V/m) @ t=4.7
-17.127957978498557
% es.Ex (V/m) @ t=4.7
7.499074514382228
% es.Ey (V/m) @ t=4.7
1.9826624031765263
% es.Ez (V/m) @ t=4.7
-17.12795797849853
% es.tEx (V/m) @ t=4.7
7.4990745143822295
% es.tEy (V/m) @ t=4.7
0
% es.tEz (V/m) @ t=4.7
-17.127957978498557
% V (V) @ t=4.7
0.094081733866028
% es.normE (V/m) @ t=4.8
19.16995110578406
% es.EX (V/m) @ t=4.8
7.640024681203732
% es.EY (V/m) @ t=4.8
2.019975519828435
% es.EZ (V/m) @ t=4.8
-17.449803671079046
% es.tEX (V/m) @ t=4.8
7.640024681203734
% es.tEY (V/m) @ t=4.8
0
% es.tEZ (V/m) @ t=4.8
-17.449803671079124
% es.Ex (V/m) @ t=4.8
7.640024681203732
% es.Ey (V/m) @ t=4.8
2.019975519828435
% es.Ez (V/m) @ t=4.8
-17.449803671079046
% es.tEx (V/m) @ t=4.8
7.640024681203734
% es.tEy (V/m) @ t=4.8
0
% es.tEz (V/m) @ t=4.8
-17.449803671079124
% V (V) @ t=4.8
0.09584787630185042
% es.normE (V/m) @ t=4.9
19.516001244013246
% es.EX (V/m) @ t=4.9
7.777965728049278
% es.EY (V/m) @ t=4.9
2.0564866260935517
% es.EZ (V/m) @ t=4.9
-17.764787885101427
% es.tEX (V/m) @ t=4.9
7.777965728049281
% es.tEY (V/m) @ t=4.9
0
% es.tEZ (V/m) @ t=4.9
-17.76478788510147
% es.Ex (V/m) @ t=4.9
7.777965728049278
% es.Ey (V/m) @ t=4.9
2.0564866260935517
% es.Ez (V/m) @ t=4.9
-17.764787885101427
% es.tEx (V/m) @ t=4.9
7.777965728049281
% es.tEy (V/m) @ t=4.9
0
% es.tEz (V/m) @ t=4.9
-17.76478788510147
% V (V) @ t=4.9
0.09757656073156011
% es.normE (V/m) @ t=5
19.853590729784138
% es.EX (V/m) @ t=5
7.912527766164391
% es.EY (V/m) @ t=5
2.0920929639466337
% es.EZ (V/m) @ t=5
-18.07207461254474
% es.tEX (V/m) @ t=5
7.912527766164395
% es.tEY (V/m) @ t=5
0
% es.tEZ (V/m) @ t=5
-18.07207461254478
% es.Ex (V/m) @ t=5
7.912527766164391
% es.Ey (V/m) @ t=5
2.0920929639466337
% es.Ez (V/m) @ t=5
-18.07207461254474
% es.tEx (V/m) @ t=5
7.912527766164395
% es.tEy (V/m) @ t=5
0
% es.tEz (V/m) @ t=5
-18.07207461254478
% V (V) @ t=5
0.09926337351078651
% es.normE (V/m) @ t=5.1
20.179544458167733
% es.EX (V/m) @ t=5.1
8.042437135909058
% es.EY (V/m) @ t=5.1
2.1264445810228167
% es.EZ (V/m) @ t=5.1
-18.368778285081987
% es.tEX (V/m) @ t=5.1
8.042437135909005
% es.tEY (V/m) @ t=5.1
0
% es.tEZ (V/m) @ t=5.1
-18.368778285082016
% es.Ex (V/m) @ t=5.1
8.042437135909058
% es.Ey (V/m) @ t=5.1
2.1264445810228167
% es.Ez (V/m) @ t=5.1
-18.368778285081987
% es.tEx (V/m) @ t=5.1
8.042437135909005
% es.tEy (V/m) @ t=5.1
0
% es.tEz (V/m) @ t=5.1
-18.368778285082016
% V (V) @ t=5.1
0.10089293950669932
% es.normE (V/m) @ t=5.2
20.494986344158107
% es.EX (V/m) @ t=5.2
8.168143333783203
% es.EY (V/m) @ t=5.2
2.1596628329522503
% es.EZ (V/m) @ t=5.2
-18.655921086320078
% es.tEX (V/m) @ t=5.2
8.16814333378315
% es.tEY (V/m) @ t=5.2
0
% es.tEZ (V/m) @ t=5.2
-18.65592108632012
% es.Ex (V/m) @ t=5.2
8.168143333783203
% es.Ey (V/m) @ t=5.2
2.1596628329522503
% es.Ez (V/m) @ t=5.2
-18.655921086320078
% es.tEx (V/m) @ t=5.2
8.16814333378315
% es.tEy (V/m) @ t=5.2
0
% es.tEz (V/m) @ t=5.2
-18.65592108632012
% V (V) @ t=5.2
0.10247078308262184
% es.normE (V/m) @ t=5.3
20.799277633418814
% es.EX (V/m) @ t=5.3
8.289389333591014
% es.EY (V/m) @ t=5.3
2.191675831244453
% es.EZ (V/m) @ t=5.3
-18.932922956537638
% es.tEX (V/m) @ t=5.3
8.289389333591075
% es.tEY (V/m) @ t=5.3
0
% es.tEZ (V/m) @ t=5.3
-18.93292295653771
% es.Ex (V/m) @ t=5.3
8.289389333591014
% es.Ey (V/m) @ t=5.3
2.191675831244453
% es.Ez (V/m) @ t=5.3
-18.932922956537638
% es.tEx (V/m) @ t=5.3
8.289389333591075
% es.tEy (V/m) @ t=5.3
0
% es.tEz (V/m) @ t=5.3
-18.93292295653771
% V (V) @ t=5.3
0.10399385946063214
% es.normE (V/m) @ t=5.4
21.091779572050825
% es.EX (V/m) @ t=5.4
8.405918109137307
% es.EY (V/m) @ t=5.4
2.2224116874075364