% Model:              1x1--2 - Copy1.mph
% Version:            COMSOL 6.1.0.252
% Date:               Mar 28 2023, 12:01
% Dimension:          0
% Nodes:              14017
% Expressions:        14017
% Description:        Electric field norm, Electric field, X component, Electric field, Y component, Electric field, Z component, Tangential electric field, X component, Tangential electric field, Y component, Tangential electric field, Z component, Electric field, x component, Electric field, y component, Electric field, z component, Tangential electric field, x component, Tangential electric field, y component, Tangential electric field, z component, Electric potential
% Length unit:        mm
% x
2
% y
12.2
% z
1.33
% es.normE (V/m) @ t=0
2.437460736360178
% es.EX (V/m) @ t=0
-2.2419213174846475
% es.EY (V/m) @ t=0
0.1748848578481873
% es.EZ (V/m) @ t=0
0.9376132101789257
% es.tEX (V/m) @ t=0
-2.2419213174846426
% es.tEY (V/m) @ t=0
0
% es.tEZ (V/m) @ t=0
0.9376132101789239
% es.Ex (V/m) @ t=0
-2.2419213174846475
% es.Ey (V/m) @ t=0
0.1748848578481873
% es.Ez (V/m) @ t=0
0.9376132101789257
% es.tEx (V/m) @ t=0
-2.2419213174846426
% es.tEy (V/m) @ t=0
0
% es.tEz (V/m) @ t=0
0.9376132101789239
% V (V) @ t=0
0.013608840448651877
% es.normE (V/m) @ t=0.1
2.5074060258449236
% es.EX (V/m) @ t=0.1
-2.306255417616252
% es.EY (V/m) @ t=0.1
0.17990340385876902
% es.EZ (V/m) @ t=0.1
0.9645189103138325
% es.tEX (V/m) @ t=0.1
-2.306255417616235
% es.tEY (V/m) @ t=0.1
0
% es.tEZ (V/m) @ t=0.1
0.9645189103138421
% es.Ex (V/m) @ t=0.1
-2.306255417616252
% es.Ey (V/m) @ t=0.1
0.17990340385876902
% es.Ez (V/m) @ t=0.1
0.9645189103138325
% es.tEx (V/m) @ t=0.1
-2.306255417616235
% es.tEy (V/m) @ t=0.1
0
% es.tEz (V/m) @ t=0.1
0.9645189103138421
% V (V) @ t=0.1
0.013999355663564559
% es.normE (V/m) @ t=0.2
2.6597321658037014
% es.EX (V/m) @ t=0.2
-2.4463619627320847
% es.EY (V/m) @ t=0.2
0.19083148475934897
% es.EZ (V/m) @ t=0.2
1.0231131317598279
% es.tEX (V/m) @ t=0.2
-2.4463619627320767
% es.tEY (V/m) @ t=0.2
0
% es.tEZ (V/m) @ t=0.2
1.0231131317598283
% es.Ex (V/m) @ t=0.2
-2.4463619627320847
% es.Ey (V/m) @ t=0.2
0.19083148475934897
% es.Ez (V/m) @ t=0.2
1.0231131317598279
% es.tEx (V/m) @ t=0.2
-2.4463619627320767
% es.tEy (V/m) @ t=0.2
0
% es.tEz (V/m) @ t=0.2
1.0231131317598283
% V (V) @ t=0.2
0.014849900069725835
% es.normE (V/m) @ t=0.3
2.819420089254462
% es.EX (V/m) @ t=0.3
-2.593240485340699
% es.EY (V/m) @ t=0.3
0.2022854413883931
% es.EZ (V/m) @ t=0.3
1.0845377286688689
% es.tEX (V/m) @ t=0.3
-2.5932404853406847
% es.tEY (V/m) @ t=0.3
0
% es.tEZ (V/m) @ t=0.3
1.084537728668863
% es.Ex (V/m) @ t=0.3
-2.593240485340699
% es.Ey (V/m) @ t=0.3
0.2022854413883931
% es.Ez (V/m) @ t=0.3
1.0845377286688689
% es.tEx (V/m) @ t=0.3
-2.5932404853406847
% es.tEy (V/m) @ t=0.3
0
% es.tEz (V/m) @ t=0.3
1.084537728668863
% V (V) @ t=0.3
0.01574170299281996
% es.normE (V/m) @ t=0.4
2.9867497925620667
% es.EX (V/m) @ t=0.4
-2.7471488379367144
% es.EY (V/m) @ t=0.4
0.21428440716975816
% es.EZ (V/m) @ t=0.4
1.1488998049816916
% es.tEX (V/m) @ t=0.4
-2.7471488379367024
% es.tEY (V/m) @ t=0.4
0
% es.tEZ (V/m) @ t=0.4
1.1488998049816956
% es.Ex (V/m) @ t=0.4
-2.7471488379367144
% es.Ey (V/m) @ t=0.4
0.21428440716975816
% es.Ez (V/m) @ t=0.4
1.1488998049816916
% es.tEx (V/m) @ t=0.4
-2.7471488379367024
% es.tEy (V/m) @ t=0.4
0
% es.tEz (V/m) @ t=0.4
1.1488998049816956
% V (V) @ t=0.4
0.016676391961453405
% es.normE (V/m) @ t=0.5
3.165056036288993
% es.EX (V/m) @ t=0.5
-2.911154644820705
% es.EY (V/m) @ t=0.5
0.22706648852918598
% es.EZ (V/m) @ t=0.5
1.217481404127643
% es.tEX (V/m) @ t=0.5
-2.911154644820691
% es.tEY (V/m) @ t=0.5
0
% es.tEZ (V/m) @ t=0.5
1.217481404127632
% es.Ex (V/m) @ t=0.5
-2.911154644820705
% es.Ey (V/m) @ t=0.5
0.22706648852918598
% es.Ez (V/m) @ t=0.5
1.217481404127643
% es.tEx (V/m) @ t=0.5
-2.911154644820691
% es.tEy (V/m) @ t=0.5
0
% es.tEz (V/m) @ t=0.5
1.217481404127632
% V (V) @ t=0.5
0.01767266353230055
% es.normE (V/m) @ t=0.6
3.3492588801200567
% es.EX (V/m) @ t=0.6
-3.0805808419400615
% es.EY (V/m) @ t=0.6
0.24028117468101284
% es.EZ (V/m) @ t=0.6
1.2883372290388815
% es.tEX (V/m) @ t=0.6
-3.0805808419400584
% es.tEY (V/m) @ t=0.6
0
% es.tEZ (V/m) @ t=0.6
1.2883372290388806
% es.Ex (V/m) @ t=0.6
-3.0805808419400615
% es.Ey (V/m) @ t=0.6
0.24028117468101284
% es.Ez (V/m) @ t=0.6
1.2883372290388815
% es.tEx (V/m) @ t=0.6
-3.0805808419400584
% es.tEy (V/m) @ t=0.6
0
% es.tEz (V/m) @ t=0.6
1.2883372290388806
% V (V) @ t=0.6
0.018701216432096
% es.normE (V/m) @ t=0.7
3.5419836792678874
% es.EX (V/m) @ t=0.7
-3.2578407606222624
% es.EY (V/m) @ t=0.7
0.2541210751334908
% es.EZ (V/m) @ t=0.7
1.3624798378610312
% es.tEX (V/m) @ t=0.7
-3.2578407606222477
% es.tEY (V/m) @ t=0.7
0
% es.tEZ (V/m) @ t=0.7
1.3624798378610095
% es.Ex (V/m) @ t=0.7
-3.2578407606222624
% es.Ey (V/m) @ t=0.7
0.2541210751334908
% es.Ez (V/m) @ t=0.7
1.3624798378610312
% es.tEx (V/m) @ t=0.7
-3.2578407606222477
% es.tEy (V/m) @ t=0.7
0
% es.tEz (V/m) @ t=0.7
1.3624798378610095
% V (V) @ t=0.7
0.01977642334233702
% es.normE (V/m) @ t=0.8
3.7426650599068214
% es.EX (V/m) @ t=0.8
-3.442416010956791
% es.EY (V/m) @ t=0.8
0.2685407306269596
% es.EZ (V/m) @ t=0.8
1.4396886702716252
% es.tEX (V/m) @ t=0.8
-3.4424160109567588
% es.tEY (V/m) @ t=0.8
0
% es.tEZ (V/m) @ t=0.8
1.4396886702716287
% es.Ex (V/m) @ t=0.8
-3.442416010956791
% es.Ey (V/m) @ t=0.8
0.2685407306269596
% es.Ez (V/m) @ t=0.8
1.4396886702716252
% es.tEx (V/m) @ t=0.8
-3.4424160109567588
% es.tEy (V/m) @ t=0.8
0
% es.tEz (V/m) @ t=0.8
1.4396886702716287
% V (V) @ t=0.8
0.020895456631867277
% es.normE (V/m) @ t=0.9
3.954796580656761
% es.EX (V/m) @ t=0.9
-3.6375291744450693
% es.EY (V/m) @ t=0.9
0.28376289763978857
% es.EZ (V/m) @ t=0.9
1.521290028499519
% es.tEX (V/m) @ t=0.9
-3.6375291744450635
% es.tEY (V/m) @ t=0.9
0
% es.tEZ (V/m) @ t=0.9
1.5212900284995285
% es.Ex (V/m) @ t=0.9
-3.6375291744450693
% es.Ey (V/m) @ t=0.9
0.28376289763978857
% es.Ez (V/m) @ t=0.9
1.521290028499519
% es.tEx (V/m) @ t=0.9
-3.6375291744450635
% es.tEy (V/m) @ t=0.9
0
% es.tEz (V/m) @ t=0.9
1.5212900284995285
% V (V) @ t=0.9
0.022079696969718877
% es.normE (V/m) @ t=1
4.176691510757715
% es.EX (V/m) @ t=1
-3.841624351302674
% es.EY (V/m) @ t=1
0.2996800267565145
% es.EZ (V/m) @ t=1
1.6066435584214693
% es.tEX (V/m) @ t=1
-3.8416243513026487
% es.tEY (V/m) @ t=1
0
% es.tEZ (V/m) @ t=1
1.6066435584214602
% es.Ex (V/m) @ t=1
-3.841624351302674
% es.Ey (V/m) @ t=1
0.2996800267565145
% es.Ez (V/m) @ t=1
1.6066435584214693
% es.tEx (V/m) @ t=1
-3.8416243513026487
% es.tEy (V/m) @ t=1
0
% es.tEz (V/m) @ t=1
1.6066435584214602
% V (V) @ t=1
0.02331882152051125
% es.normE (V/m) @ t=1.1
4.409310010318276
% es.EX (V/m) @ t=1.1
-4.05558348322789
% es.EY (V/m) @ t=1.1
0.3163645909613577
% es.EZ (V/m) @ t=1.1
1.6961208565255894
% es.tEX (V/m) @ t=1.1
-4.055583483227878
% es.tEY (V/m) @ t=1.1
0
% es.tEZ (V/m) @ t=1.1
1.6961208565255887
% es.Ex (V/m) @ t=1.1
-4.05558348322789
% es.Ey (V/m) @ t=1.1
0.3163645909613577
% es.Ez (V/m) @ t=1.1
1.6961208565255894
% es.tEx (V/m) @ t=1.1
-4.055583483227878
% es.tEy (V/m) @ t=1.1
0
% es.tEz (V/m) @ t=1.1
1.6961208565255887
% V (V) @ t=1.1
0.024617950252594827
% es.normE (V/m) @ t=1.2
4.653500326021366
% es.EX (V/m) @ t=1.2
-4.280185715414518
% es.EY (V/m) @ t=1.2
0.3338806160027594
% es.EZ (V/m) @ t=1.2
1.7900502071171378
% es.tEX (V/m) @ t=1.2
-4.2801857154145075
% es.tEY (V/m) @ t=1.2
0
% es.tEZ (V/m) @ t=1.2
1.7900502071171474
% es.Ex (V/m) @ t=1.2
-4.280185715414518
% es.Ey (V/m) @ t=1.2
0.3338806160027594
% es.Ez (V/m) @ t=1.2
1.7900502071171378
% es.tEx (V/m) @ t=1.2
-4.2801857154145075
% es.tEy (V/m) @ t=1.2
0
% es.tEz (V/m) @ t=1.2
1.7900502071171474
% V (V) @ t=1.2
0.02598160636601748
% es.normE (V/m) @ t=1.3
4.9086449099710485
% es.EX (V/m) @ t=1.3
-4.514863807828393
% es.EY (V/m) @ t=1.3
0.35218148930060744
% es.EZ (V/m) @ t=1.3
1.8881926098120345
% es.tEX (V/m) @ t=1.3
-4.514863807828366
% es.tEY (V/m) @ t=1.3
0
% es.tEZ (V/m) @ t=1.3
1.8881926098120232
% es.Ex (V/m) @ t=1.3
-4.514863807828393
% es.Ey (V/m) @ t=1.3
0.35218148930060744
% es.Ez (V/m) @ t=1.3
1.8881926098120345
% es.tEx (V/m) @ t=1.3
-4.514863807828366
% es.tEy (V/m) @ t=1.3
0
% es.tEz (V/m) @ t=1.3
1.8881926098120232
% V (V) @ t=1.3
0.027406496841493485
% es.normE (V/m) @ t=1.4
5.176103867527448
% es.EX (V/m) @ t=1.4
-4.760867280902186
% es.EY (V/m) @ t=1.4
0.37136922364144986
% es.EZ (V/m) @ t=1.4
1.9910740408115315
% es.tEX (V/m) @ t=1.4
-4.760867280902172
% es.tEY (V/m) @ t=1.4
0
% es.tEZ (V/m) @ t=1.4
1.991074040811526
% es.Ex (V/m) @ t=1.4
-4.760867280902186
% es.Ey (V/m) @ t=1.4
0.37136922364144986
% es.Ez (V/m) @ t=1.4
1.9910740408115315
% es.tEx (V/m) @ t=1.4
-4.760867280902172
% es.tEy (V/m) @ t=1.4
0
% es.tEz (V/m) @ t=1.4
1.991074040811526
% V (V) @ t=1.4
0.02889991786933371
% es.normE (V/m) @ t=1.5
5.455499992309584
% es.EX (V/m) @ t=1.5
-5.017849597457978
% es.EY (V/m) @ t=1.5
0.39141552719248596
% es.EZ (V/m) @ t=1.5
2.0985486279044334
% es.tEX (V/m) @ t=1.5
-5.0178495974579675
% es.tEY (V/m) @ t=1.5
0
% es.tEZ (V/m) @ t=1.5
2.098548627904435
% es.Ex (V/m) @ t=1.5
-5.017849597457978
% es.Ey (V/m) @ t=1.5
0.39141552719248596
% es.Ez (V/m) @ t=1.5
2.0985486279044334
% es.tEx (V/m) @ t=1.5
-5.0178495974579675
% es.tEy (V/m) @ t=1.5
0
% es.tEz (V/m) @ t=1.5
2.098548627904435
% V (V) @ t=1.5
0.03045984595225603
% es.normE (V/m) @ t=1.6
5.746716956960265
% es.EX (V/m) @ t=1.6
-5.285703888267348
% es.EY (V/m) @ t=1.6
0.41231167498407806
% es.EZ (V/m) @ t=1.6
2.2105713852951734
% es.tEX (V/m) @ t=1.6
-5.2857038882673315
% es.tEY (V/m) @ t=1.6
0
% es.tEZ (V/m) @ t=1.6
2.2105713852951823
% es.Ex (V/m) @ t=1.6
-5.285703888267348
% es.Ey (V/m) @ t=1.6
0.41231167498407806
% es.Ez (V/m) @ t=1.6
2.2105713852951734
% es.tEx (V/m) @ t=1.6
-5.2857038882673315
% es.tEy (V/m) @ t=1.6
0
% es.tEz (V/m) @ t=1.6
2.2105713852951823
% V (V) @ t=1.6
0.03208565706026509
% es.normE (V/m) @ t=1.7
6.04975476148215
% es.EX (V/m) @ t=1.7
-5.564430153330152
% es.EY (V/m) @ t=1.7
0.4340576670163081
% es.EZ (V/m) @ t=1.7
2.327142312983609
% es.tEX (V/m) @ t=1.7
-5.564430153330143
% es.tEY (V/m) @ t=1.7
0
% es.tEZ (V/m) @ t=1.7
2.327142312983611
% es.Ex (V/m) @ t=1.7
-5.564430153330152
% es.Ey (V/m) @ t=1.7
0.4340576670163081
% es.Ez (V/m) @ t=1.7
2.327142312983609
% es.tEx (V/m) @ t=1.7
-5.564430153330143
% es.tEy (V/m) @ t=1.7
0
% es.tEz (V/m) @ t=1.7
2.327142312983611
% V (V) @ t=1.7
0.03377735119336091
% es.normE (V/m) @ t=1.8
6.364613405879898
% es.EX (V/m) @ t=1.8
-5.854028392646493
% es.EY (V/m) @ t=1.8
0.45665350328904686
% es.EZ (V/m) @ t=1.8
2.448261410969902
% es.tEX (V/m) @ t=1.8
-5.854028392646455
% es.tEY (V/m) @ t=1.8
0
% es.tEZ (V/m) @ t=1.8
2.4482614109699057
% es.Ex (V/m) @ t=1.8
-5.854028392646493
% es.Ey (V/m) @ t=1.8
0.45665350328904686
% es.Ez (V/m) @ t=1.8
2.448261410969902
% es.tEx (V/m) @ t=1.8
-5.854028392646455
% es.tEy (V/m) @ t=1.8
0
% es.tEz (V/m) @ t=1.8
2.4482614109699057
% V (V) @ t=1.8
0.03553492835154346
% es.normE (V/m) @ t=1.9
6.6881950862748845
% es.EX (V/m) @ t=1.9
-6.151649655313194
% es.EY (V/m) @ t=1.9
0.4798758896248374
% es.EZ (V/m) @ t=1.9
2.572736413713315
% es.tEX (V/m) @ t=1.9
-6.151649655313179
% es.tEY (V/m) @ t=1.9
0
% es.tEZ (V/m) @ t=1.9
2.5727364137133293
% es.Ex (V/m) @ t=1.9
-6.151649655313194
% es.Ey (V/m) @ t=1.9
0.4798758896248374
% es.Ez (V/m) @ t=1.9
2.572736413713315
% es.tEx (V/m) @ t=1.9
-6.151649655313179
% es.tEy (V/m) @ t=1.9
0
% es.tEz (V/m) @ t=1.9
2.5727364137133293
% V (V) @ t=1.9
0.03734116214143416
% es.normE (V/m) @ t=2
7.020604180407073
% es.EX (V/m) @ t=2
-6.4573899341893
% es.EY (V/m) @ t=2
0.503732349721846
% es.EZ (V/m) @ t=2
2.7006074935376905
% es.tEX (V/m) @ t=2
-6.457389934189258
% es.tEY (V/m) @ t=2
0
% es.tEZ (V/m) @ t=2
2.7006074935376745
% es.Ex (V/m) @ t=2
-6.4573899341893
% es.Ey (V/m) @ t=2
0.503732349721846
% es.Ez (V/m) @ t=2
2.7006074935376905
% es.tEx (V/m) @ t=2
-6.457389934189258
% es.tEy (V/m) @ t=2
0
% es.tEz (V/m) @ t=2
2.7006074935376745
% V (V) @ t=2
0.03919663299098974
% es.normE (V/m) @ t=2.1
7.363219317754842
% es.EX (V/m) @ t=2.1
-6.7725171105984705
% es.EY (V/m) @ t=2.1
0.5283222571834281
% es.EZ (V/m) @ t=2.1
2.832405249692698
% es.tEX (V/m) @ t=2.1
-6.77251711059845
% es.tEY (V/m) @ t=2.1
0
% es.tEZ (V/m) @ t=2.1
2.832405249692698
% es.Ex (V/m) @ t=2.1
-6.7725171105984705
% es.Ey (V/m) @ t=2.1
0.5283222571834281
% es.Ez (V/m) @ t=2.1
2.832405249692698
% es.tEx (V/m) @ t=2.1
-6.77251711059845
% es.tEy (V/m) @ t=2.1
0
% es.tEz (V/m) @ t=2.1
2.832405249692698
% V (V) @ t=2.1
0.04110900723886703
% es.normE (V/m) @ t=2.2
7.7160404983221085
% es.EX (V/m) @ t=2.2
-7.097031184540871
% es.EY (V/m) @ t=2.2
0.553645612009662
% es.EZ (V/m) @ t=2.2
2.9681296821784318
% es.tEX (V/m) @ t=2.2
-7.097031184540839
% es.tEY (V/m) @ t=2.2
0
% es.tEZ (V/m) @ t=2.2
2.968129682178443
% es.Ex (V/m) @ t=2.2
-7.097031184540871
% es.Ey (V/m) @ t=2.2
0.553645612009662
% es.Ez (V/m) @ t=2.2
2.9681296821784318
% es.tEx (V/m) @ t=2.2
-7.097031184540839
% es.tEy (V/m) @ t=2.2
0
% es.tEz (V/m) @ t=2.2
2.968129682178443
% V (V) @ t=2.2
0.04307828488506606
% es.normE (V/m) @ t=2.3
8.079067722112518
% es.EX (V/m) @ t=2.3
-7.430932156016376
% es.EY (V/m) @ t=2.3
0.5797024142004896
% es.EZ (V/m) @ t=2.3
3.1077807909948767
% es.tEX (V/m) @ t=2.3
-7.430932156016368
% es.tEY (V/m) @ t=2.3
0
% es.tEZ (V/m) @ t=2.3
3.1077807909948802
% es.Ex (V/m) @ t=2.3
-7.430932156016376
% es.Ey (V/m) @ t=2.3
0.5797024142004896
% es.Ez (V/m) @ t=2.3
3.1077807909948767
% es.tEx (V/m) @ t=2.3
-7.430932156016368
% es.tEy (V/m) @ t=2.3
0
% es.tEz (V/m) @ t=2.3
3.1077807909948802
% V (V) @ t=2.3
0.045104465929586814
% es.normE (V/m) @ t=2.4
8.447311717918051
% es.EX (V/m) @ t=2.4
-7.769630798176556
% es.EY (V/m) @ t=2.4
0.6061353004653829
% es.EZ (V/m) @ t=2.4
3.249439758405539
% es.tEX (V/m) @ t=2.4
-7.7696307981765145
% es.tEY (V/m) @ t=2.4
0
% es.tEZ (V/m) @ t=2.4
3.249439758405515
% es.Ex (V/m) @ t=2.4
-7.769630798176556
% es.Ey (V/m) @ t=2.4
0.6061353004653829
% es.Ez (V/m) @ t=2.4
3.249439758405539
% es.tEx (V/m) @ t=2.4
-7.7696307981765145
% es.tEy (V/m) @ t=2.4
0
% es.tEz (V/m) @ t=2.4
3.249439758405515
% V (V) @ t=2.4
0.04715965323173883
% es.normE (V/m) @ t=2.5
8.81550644741232
% es.EX (V/m) @ t=2.5
-8.108283308492407
% es.EY (V/m) @ t=2.5
0.6325670836947057
% es.EZ (V/m) @ t=2.5
3.3910813251432663
% es.tEX (V/m) @ t=2.5
-8.108283308492382
% es.tEY (V/m) @ t=2.5
0
% es.tEZ (V/m) @ t=2.5
3.391081325143219
% es.Ex (V/m) @ t=2.5
-8.108283308492407
% es.Ey (V/m) @ t=2.5
0.6325670836947057
% es.Ez (V/m) @ t=2.5
3.3910813251432663
% es.tEx (V/m) @ t=2.5
-8.108283308492382
% es.tEy (V/m) @ t=2.5
0
% es.tEz (V/m) @ t=2.5
3.391081325143219
% V (V) @ t=2.5
0.04921440212794638
% es.normE (V/m) @ t=2.6
9.189588596534652
% es.EX (V/m) @ t=2.6
-8.452350363945854
% es.EY (V/m) @ t=2.6
0.6594229870380679
% es.EZ (V/m) @ t=2.6
3.534988674016718
% es.tEX (V/m) @ t=2.6
-8.452350363945826
% es.tEY (V/m) @ t=2.6
0
% es.tEZ (V/m) @ t=2.6
3.5349886740167165
% es.Ex (V/m) @ t=2.6
-8.452350363945854
% es.Ey (V/m) @ t=2.6
0.6594229870380679
% es.Ez (V/m) @ t=2.6
3.534988674016718
% es.tEx (V/m) @ t=2.6
-8.452350363945826
% es.tEy (V/m) @ t=2.6
0
% es.tEz (V/m) @ t=2.6
3.5349886740167165
% V (V) @ t=2.6
0.051301907158173836
% es.normE (V/m) @ t=2.7
9.569558165292605
% es.EX (V/m) @ t=2.7
-8.801831964536834
% es.EY (V/m) @ t=2.7
0.6867030104954766
% es.EZ (V/m) @ t=2.7
3.6811618050258663
% es.tEX (V/m) @ t=2.7
-8.801831964536788
% es.tEY (V/m) @ t=2.7
0
% es.tEZ (V/m) @ t=2.7
3.6811618050258517
% es.Ex (V/m) @ t=2.7
-8.801831964536834
% es.Ey (V/m) @ t=2.7
0.6867030104954766
% es.Ez (V/m) @ t=2.7
3.6811618050258663
% es.tEx (V/m) @ t=2.7
-8.801831964536788
% es.tEy (V/m) @ t=2.7
0
% es.tEz (V/m) @ t=2.7
3.6811618050258517
% V (V) @ t=2.7
0.05342216832242119
% es.normE (V/m) @ t=2.8
9.955415153693838
% es.EX (V/m) @ t=2.8
-9.156728110265348
% es.EY (V/m) @ t=2.8
0.714407154066897
% es.EZ (V/m) @ t=2.8
3.8296007181707465
% es.tEX (V/m) @ t=2.8
-9.156728110265313
% es.tEY (V/m) @ t=2.8
0
% es.tEZ (V/m) @ t=2.8
3.8296007181707523
% es.Ex (V/m) @ t=2.8
-9.156728110265348
% es.Ey (V/m) @ t=2.8
0.714407154066897
% es.Ez (V/m) @ t=2.8
3.8296007181707465
% es.tEx (V/m) @ t=2.8
-9.156728110265313
% es.tEy (V/m) @ t=2.8
0
% es.tEz (V/m) @ t=2.8
3.8296007181707523
% V (V) @ t=2.8
0.055575185620688465
% es.normE (V/m) @ t=2.9
10.344810042027156
% es.EX (V/m) @ t=2.9
-9.51487897878052
% es.EY (V/m) @ t=2.9
0.7423631867558744
% es.EZ (V/m) @ t=2.9
3.9793993369097724
% es.tEX (V/m) @ t=2.9
-9.51487897878048
% es.tEY (V/m) @ t=2.9
0
% es.tEZ (V/m) @ t=2.9
3.9793993369098075
% es.Ex (V/m) @ t=2.9
-9.51487897878052
% es.Ey (V/m) @ t=2.9
0.7423631867558744
% es.Ez (V/m) @ t=2.9
3.9793993369097724
% es.tEx (V/m) @ t=2.9
-9.51487897878048
% es.tEy (V/m) @ t=2.9
0
% es.tEz (V/m) @ t=2.9
3.9793993369098075
% V (V) @ t=2.9
0.05774808675672484
% es.normE (V/m) @ t=3
10.725307963465523
% es.EX (V/m) @ t=3
-9.864853679307846
% es.EY (V/m) @ t=3
0.7696595735427292
% es.EZ (V/m) @ t=3
4.125762238149024
% es.tEX (V/m) @ t=3
-9.86485367930782
% es.tEY (V/m) @ t=3
0
% es.tEZ (V/m) @ t=3
4.125762238149065
% es.Ex (V/m) @ t=3
-9.864853679307846
% es.Ey (V/m) @ t=3
0.7696595735427292
% es.Ez (V/m) @ t=3
4.125762238149024
% es.tEx (V/m) @ t=3
-9.86485367930782
% es.tEy (V/m) @ t=3
0
% es.tEz (V/m) @ t=3
4.125762238149065
% V (V) @ t=3
0.05987274491797539
% es.normE (V/m) @ t=3.1
11.106481931633525
% es.EX (V/m) @ t=3.1
-10.21545231197383
% es.EY (V/m) @ t=3.1
0.7969980619637886
% es.EZ (V/m) @ t=3.1
4.272381190465985
% es.tEX (V/m) @ t=3.1
-10.21545231197377
% es.tEY (V/m) @ t=3.1
0
% es.tEZ (V/m) @ t=3.1
4.27238119046595
% es.Ex (V/m) @ t=3.1
-10.21545231197383
% es.Ey (V/m) @ t=3.1
0.7969980619637886
% es.Ez (V/m) @ t=3.1
4.272381190465985
% es.tEx (V/m) @ t=3.1
-10.21545231197377
% es.tEy (V/m) @ t=3.1
0
% es.tEz (V/m) @ t=3.1
4.27238119046595
% V (V) @ t=3.1
0.06200160770311034
% es.normE (V/m) @ t=3.2
11.488331946568405
% es.EX (V/m) @ t=3.2
-10.5666748767785
% es.EY (V/m) @ t=3.2
0.8243786520195568
% es.EZ (V/m) @ t=3.2
4.419256193860889
% es.tEX (V/m) @ t=3.2
-10.566674876778457
% es.tEY (V/m) @ t=3.2
0
% es.tEZ (V/m) @ t=3.2
4.419256193860889
% es.Ex (V/m) @ t=3.2
-10.5666748767785
% es.Ey (V/m) @ t=3.2
0.8243786520195568
% es.Ez (V/m) @ t=3.2
4.419256193860889
% es.tEx (V/m) @ t=3.2
-10.566674876778457
% es.tEy (V/m) @ t=3.2
0
% es.tEz (V/m) @ t=3.2
4.419256193860889
% V (V) @ t=3.2
0.06413467511212965
% es.normE (V/m) @ t=3.3
11.870858008318482
% es.EX (V/m) @ t=3.3
-10.918521373721713
% es.EY (V/m) @ t=3.3
0.8518013437094587
% es.EZ (V/m) @ t=3.3
4.566387248333461
% es.tEX (V/m) @ t=3.3
-10.91852137372166
% es.tEY (V/m) @ t=3.3
0
% es.tEZ (V/m) @ t=3.3
4.566387248333484
% es.Ex (V/m) @ t=3.3
-10.918521373721713
% es.Ey (V/m) @ t=3.3
0.8518013437094587
% es.Ez (V/m) @ t=3.3
4.566387248333461
% es.tEx (V/m) @ t=3.3
-10.91852137372166
% es.tEy (V/m) @ t=3.3
0
% es.tEz (V/m) @ t=3.3
4.566387248333484
% V (V) @ t=3.3
0.06627194714503334
% es.normE (V/m) @ t=3.4
12.254060116942274
% es.EX (V/m) @ t=3.4
-11.27099180280359
% es.EY (V/m) @ t=3.4
0.8792661370339978
% es.EZ (V/m) @ t=3.4
4.713774353883942
% es.tEX (V/m) @ t=3.4
-11.27099180280355
% es.tEY (V/m) @ t=3.4
0
% es.tEZ (V/m) @ t=3.4
4.7137743538839345
% es.Ex (V/m) @ t=3.4
-11.27099180280359
% es.Ey (V/m) @ t=3.4
0.8792661370339978
% es.Ez (V/m) @ t=3.4
4.713774353883942
% es.tEx (V/m) @ t=3.4
-11.27099180280355
% es.tEy (V/m) @ t=3.4
0
% es.tEz (V/m) @ t=3.4
4.7137743538839345
% V (V) @ t=3.4
0.0684134238018214
% es.normE (V/m) @ t=3.5
12.632010197528974
% es.EX (V/m) @ t=3.5
-11.618631477241202
% es.EY (V/m) @ t=3.5
0.9063542517619805
% es.EZ (V/m) @ t=3.5
4.85914128566033
% es.tEX (V/m) @ t=3.5
-11.618631477241152
% es.tEY (V/m) @ t=3.5
0
% es.tEZ (V/m) @ t=3.5
4.859141285660314
% es.Ex (V/m) @ t=3.5
-11.618631477241202
% es.Ey (V/m) @ t=3.5
0.9063542517619805
% es.Ez (V/m) @ t=3.5
4.85914128566033
% es.tEx (V/m) @ t=3.5
-11.618631477241152
% es.tEy (V/m) @ t=3.5
0
% es.tEz (V/m) @ t=3.5
4.859141285660314
% V (V) @ t=3.5
0.07052556785273363
% es.normE (V/m) @ t=3.6
13.006894351819668
% es.EX (V/m) @ t=3.6
-11.963451926973693
% es.EY (V/m) @ t=3.6
0.9332201218707006
% es.EZ (V/m) @ t=3.6
5.003327449227074
% es.tEX (V/m) @ t=3.6
-11.963451926973619
% es.tEY (V/m) @ t=3.6
0
% es.tEZ (V/m) @ t=3.6
5.0033274492271005
% es.Ex (V/m) @ t=3.6
-11.963451926973693
% es.Ey (V/m) @ t=3.6
0.9332201218707006
% es.Ez (V/m) @ t=3.6
5.003327449227074
% es.tEx (V/m) @ t=3.6
-11.963451926973619
% es.tEy (V/m) @ t=3.6
0
% es.tEz (V/m) @ t=3.6
5.0033274492271005
% V (V) @ t=3.6
0.07262074685330996
% es.normE (V/m) @ t=3.7
13.378535640704948
% es.EX (V/m) @ t=3.7
-12.305290342404076
% es.EY (V/m) @ t=3.7
0.9598512477526233
% es.EZ (V/m) @ t=3.7
5.146264904615196
% es.tEX (V/m) @ t=3.7
-12.305290342404078
% es.tEY (V/m) @ t=3.7
0
% es.tEZ (V/m) @ t=3.7
5.146264904615151
% es.Ex (V/m) @ t=3.7
-12.305290342404076
% es.Ey (V/m) @ t=3.7
0.9598512477526233
% es.Ez (V/m) @ t=3.7
5.146264904615196
% es.tEx (V/m) @ t=3.7
-12.305290342404078
% es.tEy (V/m) @ t=3.7
0
% es.tEz (V/m) @ t=3.7
5.146264904615151
% V (V) @ t=3.7
0.07469795979596314
% es.normE (V/m) @ t=3.8
13.746387242172261
% es.EX (V/m) @ t=3.8
-12.643643568148443
% es.EY (V/m) @ t=3.8
0.9862089999625754
% es.EZ (V/m) @ t=3.8
5.287743686553666
% es.tEX (V/m) @ t=3.8
-12.643643568148363
% es.tEY (V/m) @ t=3.8
0
% es.tEZ (V/m) @ t=3.8
5.287743686553654
% es.Ex (V/m) @ t=3.8
-12.643643568148443
% es.Ey (V/m) @ t=3.8
0.9862089999625754
% es.Ez (V/m) @ t=3.8
5.287743686553666
% es.tEx (V/m) @ t=3.8
-12.643643568148363
% es.tEy (V/m) @ t=3.8
0
% es.tEz (V/m) @ t=3.8
5.287743686553654
% V (V) @ t=3.8
0.07675411311393167
% es.normE (V/m) @ t=3.9
14.109902334199262
% es.EX (V/m) @ t=3.9
-12.978008448822385
% es.EY (V/m) @ t=3.9
1.0122547490541054
% es.EZ (V/m) @ t=3.9
5.42755382977105
% es.tEX (V/m) @ t=3.9
-12.978008448822322
% es.tEY (V/m) @ t=3.9
0
% es.tEZ (V/m) @ t=3.9
5.427553829771085
% es.Ex (V/m) @ t=3.9
-12.978008448822385
% es.Ey (V/m) @ t=3.9
1.0122547490541054
% es.Ez (V/m) @ t=3.9
5.42755382977105
% es.tEx (V/m) @ t=3.9
-12.978008448822322
% es.tEy (V/m) @ t=3.9
0
% es.tEz (V/m) @ t=3.9
5.427553829771085
% V (V) @ t=3.9
0.07878611324045416
% es.normE (V/m) @ t=4
14.46979235200434
% es.EX (V/m) @ t=4
-13.30903464978479
% es.EY (V/m) @ t=4
1.0380536416722368
% es.EZ (V/m) @ t=4
5.565977884237379
% es.tEX (V/m) @ t=4
-13.309034649784692
% es.tEY (V/m) @ t=4
0
% es.tEZ (V/m) @ t=4
5.565977884237327
% es.Ex (V/m) @ t=4
-13.30903464978479
% es.Ey (V/m) @ t=4
1.0380536416722368
% es.Ez (V/m) @ t=4
5.565977884237379
% es.tEx (V/m) @ t=4
-13.309034649784692
% es.tEy (V/m) @ t=4
0
% es.tEz (V/m) @ t=4
5.565977884237327
% V (V) @ t=4
0.08079698360322878
% es.normE (V/m) @ t=4.1
14.825686257724128
% es.EX (V/m) @ t=4.1
-13.636380069948041
% es.EY (V/m) @ t=4.1
1.0635815463629381
% es.EZ (V/m) @ t=4.1
5.702874691298797
% es.tEX (V/m) @ t=4.1
-13.636380069948004
% es.tEY (V/m) @ t=4.1
0
% es.tEZ (V/m) @ t=4.1
5.702874691298803
% es.Ex (V/m) @ t=4.1
-13.636380069948041
% es.Ey (V/m) @ t=4.1
1.0635815463629381
% es.Ez (V/m) @ t=4.1
5.702874691298797
% es.tEx (V/m) @ t=4.1
-13.636380069948004
% es.tEy (V/m) @ t=4.1
0
% es.tEz (V/m) @ t=4.1
5.702874691298803
% V (V) @ t=4.1
0.08278448520741975
% es.normE (V/m) @ t=4.2
15.17676121015448
% es.EX (V/m) @ t=4.2
-13.959288663985612
% es.EY (V/m) @ t=4.2
1.088777068709872
% es.EZ (V/m) @ t=4.2
5.837926244471525
% es.tEX (V/m) @ t=4.2
-13.959288663985532
% es.tEY (V/m) @ t=4.2
0
% es.tEZ (V/m) @ t=4.2
5.837926244471504
% es.Ex (V/m) @ t=4.2
-13.959288663985612
% es.Ey (V/m) @ t=4.2
1.088777068709872
% es.Ez (V/m) @ t=4.2
5.837926244471525
% es.tEx (V/m) @ t=4.2
-13.959288663985532
% es.tEy (V/m) @ t=4.2
0
% es.tEz (V/m) @ t=4.2
5.837926244471504
% V (V) @ t=4.2
0.08474418262423887
% es.normE (V/m) @ t=4.3
15.522637622014173
% es.EX (V/m) @ t=4.3
-14.277410497670267
% es.EY (V/m) @ t=4.3
1.1136153721254098
% es.EZ (V/m) @ t=4.3
5.970988038579
% es.tEX (V/m) @ t=4.3
-14.277410497670218
% es.tEY (V/m) @ t=4.3
0
% es.tEZ (V/m) @ t=4.3
5.970988038579037
% es.Ex (V/m) @ t=4.3
-14.277410497670267
% es.Ey (V/m) @ t=4.3
1.1136153721254098
% es.Ez (V/m) @ t=4.3
5.970988038579
% es.tEx (V/m) @ t=4.3
-14.277410497670218
% es.tEy (V/m) @ t=4.3
0
% es.tEz (V/m) @ t=4.3
5.970988038579037
% V (V) @ t=4.3
0.08667379529534404
% es.normE (V/m) @ t=4.4
15.862935906109502
% es.EX (V/m) @ t=4.4
-14.590395636775233
% es.EY (V/m) @ t=4.4
1.138071620021183
% es.EZ (V/m) @ t=4.4
6.101915568445046
% es.tEX (V/m) @ t=4.4
-14.590395636775142
% es.tEY (V/m) @ t=4.4
0
% es.tEZ (V/m) @ t=4.4
6.101915568445065
% es.Ex (V/m) @ t=4.4
-14.590395636775233
% es.Ey (V/m) @ t=4.4
1.138071620021183
% es.Ez (V/m) @ t=4.4
6.101915568445046
% es.tEx (V/m) @ t=4.4
-14.590395636775142
% es.tEy (V/m) @ t=4.4
0
% es.tEz (V/m) @ t=4.4
6.101915568445065
% V (V) @ t=4.4
0.08857104266239323
% es.normE (V/m) @ t=4.5
16.197657880151922
% es.EX (V/m) @ t=4.5
-14.898250808645852
% es.EY (V/m) @ t=4.5
1.162130762686938
% es.EZ (V/m) @ t=4.5
6.230699971025173
% es.tEX (V/m) @ t=4.5
-14.898250808645813
% es.tEY (V/m) @ t=4.5
0
% es.tEZ (V/m) @ t=4.5
6.230699971025217
% es.Ex (V/m) @ t=4.5
-14.898250808645852
% es.Ey (V/m) @ t=4.5
1.162130762686938
% es.Ez (V/m) @ t=4.5
6.230699971025173
% es.tEx (V/m) @ t=4.5
-14.898250808645813
% es.tEy (V/m) @ t=4.5
0
% es.tEz (V/m) @ t=4.5
6.230699971025217
% V (V) @ t=4.5
0.09043695541674523
% es.normE (V/m) @ t=4.6
16.5268815296889
% es.EX (V/m) @ t=4.6
-15.201053967388559
% es.EY (V/m) @ t=4.6
1.1857797048908925
% es.EZ (V/m) @ t=4.6
6.357359471558652
% es.tEX (V/m) @ t=4.6
-15.201053967388447
% es.tEY (V/m) @ t=4.6
0
% es.tEZ (V/m) @ t=4.6
6.357359471558624
% es.Ex (V/m) @ t=4.6
-15.201053967388559
% es.Ey (V/m) @ t=4.6
1.1857797048908925
% es.Ez (V/m) @ t=4.6
6.357359471558652
% es.tEx (V/m) @ t=4.6
-15.201053967388447
% es.tEy (V/m) @ t=4.6
0
% es.tEz (V/m) @ t=4.6
6.357359471558624
% V (V) @ t=4.6
0.09227322551973637
% es.normE (V/m) @ t=4.7
16.84994791151435
% es.EX (V/m) @ t=4.7
-15.498193945846078
% es.EY (V/m) @ t=4.7
1.2089864417522138
% es.EZ (V/m) @ t=4.7
6.481650215249229
% es.tEX (V/m) @ t=4.7
-15.498193945845998
% es.tEY (V/m) @ t=4.7
0
% es.tEZ (V/m) @ t=4.7
6.4816502152492035
% es.Ex (V/m) @ t=4.7
-15.498193945846078
% es.Ey (V/m) @ t=4.7
1.2089864417522138
% es.Ez (V/m) @ t=4.7
6.481650215249229
% es.tEx (V/m) @ t=4.7
-15.498193945845998
% es.tEy (V/m) @ t=4.7
0
% es.tEz (V/m) @ t=4.7
6.4816502152492035
% V (V) @ t=4.7
0.0940751471238199
% es.normE (V/m) @ t=4.8
17.166561184419855
% es.EX (V/m) @ t=4.8
-15.78939912296134
% es.EY (V/m) @ t=4.8
1.2317282856147518
% es.EZ (V/m) @ t=4.8
6.603457480239319
% es.tEX (V/m) @ t=4.8
-15.7893991229612
% es.tEY (V/m) @ t=4.8
0
% es.tEZ (V/m) @ t=4.8
6.603457480239314
% es.Ex (V/m) @ t=4.8
-15.78939912296134
% es.Ey (V/m) @ t=4.8
1.2317282856147518
% es.Ez (V/m) @ t=4.8
6.603457480239319
% es.tEx (V/m) @ t=4.8
-15.7893991229612
% es.tEy (V/m) @ t=4.8
0
% es.tEz (V/m) @ t=4.8
6.603457480239314
% V (V) @ t=4.8
0.09584116673092574
% es.normE (V/m) @ t=4.9
17.476425507185308
% es.EX (V/m) @ t=4.9
-16.07439787767717
% es.EY (V/m) @ t=4.9
1.2539825488220497
% es.EZ (V/m) @ t=4.9
6.7226665446713705
% es.tEX (V/m) @ t=4.9
-16.074397877677043
% es.tEY (V/m) @ t=4.9
0
% es.tEZ (V/m) @ t=4.9
6.72266654467137
% es.Ex (V/m) @ t=4.9
-16.07439787767717
% es.Ey (V/m) @ t=4.9
1.2539825488220497
% es.Ez (V/m) @ t=4.9
6.7226665446713705
% es.tEx (V/m) @ t=4.9
-16.074397877677043
% es.tEy (V/m) @ t=4.9
0
% es.tEz (V/m) @ t=4.9
6.72266654467137
% V (V) @ t=4.9
0.09756973084298384
% es.normE (V/m) @ t=5
17.778719329629304
% es.EX (V/m) @ t=5
-16.352435426765027
% es.EY (V/m) @ t=5
1.2756877055901477
% es.EZ (V/m) @ t=5
6.8389597575554735
% es.tEX (V/m) @ t=5
-16.352435426765
% es.tEY (V/m) @ t=5
0
% es.tEZ (V/m) @ t=5
6.838959757555415
% es.Ex (V/m) @ t=5
-16.352435426765027
% es.Ey (V/m) @ t=5
1.2756877055901477
% es.Ez (V/m) @ t=5
6.8389597575554735
% es.tEx (V/m) @ t=5
-16.352435426765
% es.tEy (V/m) @ t=5
0
% es.tEz (V/m) @ t=5
6.838959757555415
% V (V) @ t=5
0.09925642603903868
% es.normE (V/m) @ t=5.1
18.070606283685937
% es.EX (V/m) @ t=5.1
-16.620905232763562
% es.EY (V/m) @ t=5.1
1.2966333801776386
% es.EZ (V/m) @ t=5.1
6.95124172721252
% es.tEX (V/m) @ t=5.1
-16.620905232763505
% es.tEY (V/m) @ t=5.1
0
% es.tEZ (V/m) @ t=5.1
6.9512417272124765
% es.Ex (V/m) @ t=5.1
-16.620905232763562
% es.Ey (V/m) @ t=5.1
1.2966333801776386
% es.Ez (V/m) @ t=5.1
6.95124172721252
% es.tEx (V/m) @ t=5.1
-16.620905232763505
% es.tEy (V/m) @ t=5.1
0
% es.tEz (V/m) @ t=5.1
6.9512417272124765
% V (V) @ t=5.1
0.100885878035247
% es.normE (V/m) @ t=5.2
18.353091512310193
% es.EX (V/m) @ t=5.2
-16.880731367271935
% es.EY (V/m) @ t=5.2
1.3168929985470852
% es.EZ (V/m) @ t=5.2
7.059899925226216
% es.tEX (V/m) @ t=5.2
-16.88073136727182
% es.tEY (V/m) @ t=5.2
0
% es.tEZ (V/m) @ t=5.2
7.059899925226148
% es.Ex (V/m) @ t=5.2
-16.880731367271935
% es.Ey (V/m) @ t=5.2
1.3168929985470852
% es.Ez (V/m) @ t=5.2
7.059899925226216
% es.tEx (V/m) @ t=5.2
-16.88073136727182
% es.tEy (V/m) @ t=5.2
0
% es.tEz (V/m) @ t=5.2
7.059899925226148
% V (V) @ t=5.2
0.10246361085118491
% es.normE (V/m) @ t=5.3
18.625605075053876
% es.EX (V/m) @ t=5.3
-17.13139029341562
% es.EY (V/m) @ t=5.3
1.3364236232392885
% es.EZ (V/m) @ t=5.3
7.16471382456353
% es.tEX (V/m) @ t=5.3
-17.13139029341555
% es.tEY (V/m) @ t=5.3
0
% es.tEZ (V/m) @ t=5.3
7.164713824563535
% es.Ex (V/m) @ t=5.3
-17.13139029341562
% es.Ey (V/m) @ t=5.3
1.3364236232392885
% es.Ez (V/m) @ t=5.3
7.16471382456353
% es.tEx (V/m) @ t=5.3
-17.13139029341555
% es.tEy (V/m) @ t=5.3
0
% es.tEz (V/m) @ t=5.3
7.164713824563535
% V (V) @ t=5.3
0.10398657985422438
% es.normE (V/m) @ t=5.4
18.88757703152444
% es.EX (V/m) @ t=5.4
-17.372358474320528
% es.EY (V/m) @ t=5.4
1.3551823167949628