% Model:              1 neuron.mph
% Version:            COMSOL 6.0.0.405
% Date:               Mar 16 2023, 10:01
% Dimension:          0
% Nodes:              14017
% Expressions:        14017
% Description:        Electric field norm, Electric field, X component, Electric field, Y component, Electric field, Z component, Tangential electric field, X component, Tangential electric field, Y component, Tangential electric field, Z component, Electric field, x component, Electric field, y component, Electric field, z component, Tangential electric field, x component, Tangential electric field, y component, Tangential electric field, z component, Electric potential
% Length unit:        mm
% x
1.33
% y
12.2
% z
1
% es.normE (V/m) @ t=0
1.5621879671604575
% es.EX (V/m) @ t=0
0.48219089337953636
% es.EY (V/m) @ t=0
0.11681694567786538
% es.EZ (V/m) @ t=0
1.4812985103253111
% es.tEX (V/m) @ t=0
0.48219089337953847
% es.tEY (V/m) @ t=0
0
% es.tEZ (V/m) @ t=0
1.4812985103253098
% es.Ex (V/m) @ t=0
0.48219089337953636
% es.Ey (V/m) @ t=0
0.11681694567786538
% es.Ez (V/m) @ t=0
1.4812985103253111
% es.tEx (V/m) @ t=0
0.48219089337953847
% es.tEy (V/m) @ t=0
0
% es.tEz (V/m) @ t=0
1.4812985103253098
% V (V) @ t=0
0.007306397717113057
% es.normE (V/m) @ t=0.02
1.3492928989244106
% es.EX (V/m) @ t=0.02
0.41647789142925074
% es.EY (V/m) @ t=0.02
0.10089712472593093
% es.EZ (V/m) @ t=0.02
1.2794270616280572
% es.tEX (V/m) @ t=0.02
0.41647789142924907
% es.tEY (V/m) @ t=0.02
0
% es.tEZ (V/m) @ t=0.02
1.2794270616280556
% es.Ex (V/m) @ t=0.02
0.41647789142925074
% es.Ey (V/m) @ t=0.02
0.10089712472593093
% es.Ez (V/m) @ t=0.02
1.2794270616280572
% es.tEx (V/m) @ t=0.02
0.41647789142924907
% es.tEy (V/m) @ t=0.02
0
% es.tEz (V/m) @ t=0.02
1.2794270616280556
% V (V) @ t=0.02
0.006310681270034844
% es.normE (V/m) @ t=0.04
1.3617050956566779
% es.EX (V/m) @ t=0.04
0.42030909092230506
% es.EY (V/m) @ t=0.04
0.10182527947616676
% es.EZ (V/m) @ t=0.04
1.291196558855084
% es.tEX (V/m) @ t=0.04
0.42030909092230573
% es.tEY (V/m) @ t=0.04
0
% es.tEZ (V/m) @ t=0.04
1.2911965588550762
% es.Ex (V/m) @ t=0.04
0.42030909092230506
% es.Ey (V/m) @ t=0.04
0.10182527947616676
% es.Ez (V/m) @ t=0.04
1.291196558855084
% es.tEx (V/m) @ t=0.04
0.42030909092230573
% es.tEy (V/m) @ t=0.04
0
% es.tEz (V/m) @ t=0.04
1.2911965588550762
% V (V) @ t=0.04
0.006368733128521063
% es.normE (V/m) @ t=0.06
1.3742287836060136
% es.EX (V/m) @ t=0.06
0.4241747027453946
% es.EY (V/m) @ t=0.06
0.1027617717826208
% es.EZ (V/m) @ t=0.06
1.3030717746079643
% es.tEX (V/m) @ t=0.06
0.42417470274539326
% es.tEY (V/m) @ t=0.06
0
% es.tEZ (V/m) @ t=0.06
1.3030717746079672
% es.Ex (V/m) @ t=0.06
0.4241747027453946
% es.Ey (V/m) @ t=0.06
0.1027617717826208
% es.Ez (V/m) @ t=0.06
1.3030717746079643
% es.tEx (V/m) @ t=0.06
0.42417470274539326
% es.tEy (V/m) @ t=0.06
0
% es.tEz (V/m) @ t=0.06
1.3030717746079672
% V (V) @ t=0.06
0.006427306528925708
% es.normE (V/m) @ t=0.08
1.386944538435614
% es.EX (V/m) @ t=0.08
0.4280996053155287
% es.EY (V/m) @ t=0.08
0.1037126231017067
% es.EZ (V/m) @ t=0.08
1.3151291101914722
% es.tEX (V/m) @ t=0.08
0.4280996053155306
% es.tEY (V/m) @ t=0.08
0
% es.tEZ (V/m) @ t=0.08
1.3151291101914788
% es.Ex (V/m) @ t=0.08
0.4280996053155287
% es.Ey (V/m) @ t=0.08
0.1037126231017067
% es.Ez (V/m) @ t=0.08
1.3151291101914722
% es.tEx (V/m) @ t=0.08
0.4280996053155306
% es.tEy (V/m) @ t=0.08
0
% es.tEz (V/m) @ t=0.08
1.3151291101914788
% V (V) @ t=0.08
0.006486777593503976
% es.normE (V/m) @ t=0.1
1.3997917829341455
% es.EX (V/m) @ t=0.1
0.4320650985418538
% es.EY (V/m) @ t=0.1
0.10467330465188651
% es.EZ (V/m) @ t=0.1
1.3273111256583667
% es.tEX (V/m) @ t=0.1
0.43206509854185526
% es.tEY (V/m) @ t=0.1
0
% es.tEZ (V/m) @ t=0.1
1.3273111256583778
% es.Ex (V/m) @ t=0.1
0.4320650985418538
% es.Ey (V/m) @ t=0.1
0.10467330465188651
% es.Ez (V/m) @ t=0.1
1.3273111256583667
% es.tEx (V/m) @ t=0.1
0.43206509854185526
% es.tEy (V/m) @ t=0.1
0
% es.tEz (V/m) @ t=0.1
1.3273111256583778
% V (V) @ t=0.1
0.006546863202166189
% es.normE (V/m) @ t=0.12
1.4126390274326823
% es.EX (V/m) @ t=0.12
0.4360305917681817
% es.EY (V/m) @ t=0.12
0.1056339862020611
% es.EZ (V/m) @ t=0.12
1.3394931411252666
% es.tEX (V/m) @ t=0.12
0.4360305917681764
% es.tEY (V/m) @ t=0.12
0
% es.tEZ (V/m) @ t=0.12
1.3394931411252688
% es.Ex (V/m) @ t=0.12
0.4360305917681817
% es.Ey (V/m) @ t=0.12
0.1056339862020611
% es.Ez (V/m) @ t=0.12
1.3394931411252666
% es.tEx (V/m) @ t=0.12
0.4360305917681764
% es.tEy (V/m) @ t=0.12
0
% es.tEz (V/m) @ t=0.12
1.3394931411252688
% V (V) @ t=0.12
0.006606948810828403
% es.normE (V/m) @ t=0.14
1.4256213345542372
% es.EX (V/m) @ t=0.14
0.4400377691406636
% es.EY (V/m) @ t=0.14
0.10660476982574985
% es.EZ (V/m) @ t=0.14
1.3518032271019602
% es.tEX (V/m) @ t=0.14
0.44003776914066606
% es.tEY (V/m) @ t=0.14
0
% es.tEZ (V/m) @ t=0.14
1.351803227101957
% es.Ex (V/m) @ t=0.14
0.4400377691406636
% es.Ey (V/m) @ t=0.14
0.10660476982574985
% es.Ez (V/m) @ t=0.14
1.3518032271019602
% es.tEx (V/m) @ t=0.14
0.44003776914066606
% es.tEy (V/m) @ t=0.14
0
% es.tEz (V/m) @ t=0.14
1.351803227101957
% V (V) @ t=0.14
0.006667666571466661
% es.normE (V/m) @ t=0.16
1.4391535730123104
% es.EX (V/m) @ t=0.16
0.44421467088029054
% es.EY (V/m) @ t=0.16
0.10761668582689965
% es.EZ (V/m) @ t=0.16
1.3646347747905794
% es.tEX (V/m) @ t=0.16
0.44421467088029587
% es.tEY (V/m) @ t=0.16
0
% es.tEZ (V/m) @ t=0.16
1.3646347747905914
% es.Ex (V/m) @ t=0.16
0.44421467088029054
% es.Ey (V/m) @ t=0.16
0.10761668582689965
% es.Ez (V/m) @ t=0.16
1.3646347747905794
% es.tEx (V/m) @ t=0.16
0.44421467088029587
% es.tEy (V/m) @ t=0.16
0
% es.tEz (V/m) @ t=0.16
1.3646347747905914
% V (V) @ t=0.16
0.00673095825058289
% es.normE (V/m) @ t=0.18
1.452685811470387
% es.EX (V/m) @ t=0.18
0.44839157261990814
% es.EY (V/m) @ t=0.18
0.10862860182803913
% es.EZ (V/m) @ t=0.18
1.3774663224792056
% es.tEX (V/m) @ t=0.18
0.4483915726199079
% es.tEY (V/m) @ t=0.18
0
% es.tEZ (V/m) @ t=0.18
1.3774663224792096
% es.Ex (V/m) @ t=0.18
0.44839157261990814
% es.Ey (V/m) @ t=0.18
0.10862860182803913
% es.Ez (V/m) @ t=0.18
1.3774663224792056
% es.tEx (V/m) @ t=0.18
0.4483915726199079
% es.tEy (V/m) @ t=0.18
0
% es.tEz (V/m) @ t=0.18
1.3774663224792096
% V (V) @ t=0.18
0.0067942499296991185
% es.normE (V/m) @ t=0.2
1.466218049928461
% es.EX (V/m) @ t=0.2
0.4525684743595222
% es.EY (V/m) @ t=0.2
0.10964051782916262
% es.EZ (V/m) @ t=0.2
1.3902978701678315
% es.tEX (V/m) @ t=0.2
0.4525684743595235
% es.tEY (V/m) @ t=0.2
0
% es.tEZ (V/m) @ t=0.2
1.390297870167835
% es.Ex (V/m) @ t=0.2
0.4525684743595222
% es.Ey (V/m) @ t=0.2
0.10964051782916262
% es.Ez (V/m) @ t=0.2
1.3902978701678315
% es.tEx (V/m) @ t=0.2
0.4525684743595235
% es.tEy (V/m) @ t=0.2
0
% es.tEz (V/m) @ t=0.2
1.390297870167835
% V (V) @ t=0.2
0.006857541608815347
% es.normE (V/m) @ t=0.22
1.4797502883865306
% es.EX (V/m) @ t=0.22
0.45674537609914634
% es.EY (V/m) @ t=0.22
0.11065243383031975
% es.EZ (V/m) @ t=0.22
1.4031294178564466
% es.tEX (V/m) @ t=0.22
0.4567453760991498
% es.tEY (V/m) @ t=0.22
0
% es.tEZ (V/m) @ t=0.22
1.4031294178564622
% es.Ex (V/m) @ t=0.22
0.45674537609914634
% es.Ey (V/m) @ t=0.22
0.11065243383031975
% es.Ez (V/m) @ t=0.22
1.4031294178564466
% es.tEx (V/m) @ t=0.22
0.4567453760991498
% es.tEy (V/m) @ t=0.22
0
% es.tEz (V/m) @ t=0.22
1.4031294178564622
% V (V) @ t=0.22
0.006920833287931576
% es.normE (V/m) @ t=0.24
1.493282526844617
% es.EX (V/m) @ t=0.24
0.4609222778387684
% es.EY (V/m) @ t=0.24
0.11166434983144125
% es.EZ (V/m) @ t=0.24
1.415960965545083
% es.tEX (V/m) @ t=0.24
0.46092227783876893
% es.tEY (V/m) @ t=0.24
0
% es.tEZ (V/m) @ t=0.24
1.4159609655450751
% es.Ex (V/m) @ t=0.24
0.4609222778387684
% es.Ey (V/m) @ t=0.24
0.11166434983144125
% es.Ez (V/m) @ t=0.24
1.415960965545083
% es.tEx (V/m) @ t=0.24
0.46092227783876893
% es.tEy (V/m) @ t=0.24
0
% es.tEz (V/m) @ t=0.24
1.4159609655450751
% V (V) @ t=0.24
0.006984124967047804
% es.normE (V/m) @ t=0.26
1.5068147653026922
% es.EX (V/m) @ t=0.26
0.465099179578389
% es.EY (V/m) @ t=0.26
0.11267626583258605
% es.EZ (V/m) @ t=0.26
1.4287925132337058
% es.tEX (V/m) @ t=0.26
0.4650991795783881
% es.tEY (V/m) @ t=0.26
0
% es.tEZ (V/m) @ t=0.26
1.4287925132337094
% es.Ex (V/m) @ t=0.26
0.465099179578389
% es.Ey (V/m) @ t=0.26
0.11267626583258605
% es.Ez (V/m) @ t=0.26
1.4287925132337058
% es.tEx (V/m) @ t=0.26
0.4650991795783881
% es.tEy (V/m) @ t=0.26
0
% es.tEz (V/m) @ t=0.26
1.4287925132337094
% V (V) @ t=0.26
0.007047416646164033
% es.normE (V/m) @ t=0.28
1.5209696495816
% es.EX (V/m) @ t=0.28
0.4694682883243785
% es.EY (V/m) @ t=0.28
0.11373473245925758
% es.EZ (V/m) @ t=0.28
1.442214461025229
% es.tEX (V/m) @ t=0.28
0.4694682883243857
% es.tEY (V/m) @ t=0.28
0
% es.tEZ (V/m) @ t=0.28
1.4422144610252339
% es.Ex (V/m) @ t=0.28
0.4694682883243785
% es.Ey (V/m) @ t=0.28
0.11373473245925758
% es.Ez (V/m) @ t=0.28
1.442214461025229
% es.tEx (V/m) @ t=0.28
0.4694682883243857
% es.tEy (V/m) @ t=0.28
0
% es.tEz (V/m) @ t=0.28
1.4422144610252339
% V (V) @ t=0.28
0.007113618662041224
% es.normE (V/m) @ t=0.3
1.5360419568458639
% es.EX (V/m) @ t=0.3
0.47412060000805223
% es.EY (V/m) @ t=0.3
0.11486178802113023
% es.EZ (V/m) @ t=0.3
1.4565063200999084
% es.tEX (V/m) @ t=0.3
0.47412060000805667
% es.tEY (V/m) @ t=0.3
0
% es.tEZ (V/m) @ t=0.3
1.456506320099912
% es.Ex (V/m) @ t=0.3
0.47412060000805223
% es.Ey (V/m) @ t=0.3
0.11486178802113023
% es.Ez (V/m) @ t=0.3
1.4565063200999084
% es.tEx (V/m) @ t=0.3
0.47412060000805667
% es.tEy (V/m) @ t=0.3
0
% es.tEz (V/m) @ t=0.3
1.456506320099912
% V (V) @ t=0.3
0.007184108845846985
% es.normE (V/m) @ t=0.32
1.55111426411014
% es.EX (V/m) @ t=0.32
0.4787729116917301
% es.EY (V/m) @ t=0.32
0.11598884358301054
% es.EZ (V/m) @ t=0.32
1.4707981791745977
% es.tEX (V/m) @ t=0.32
0.47877291169173475
% es.tEY (V/m) @ t=0.32
0
% es.tEZ (V/m) @ t=0.32
1.4707981791745972
% es.Ex (V/m) @ t=0.32
0.4787729116917301
% es.Ey (V/m) @ t=0.32
0.11598884358301054
% es.Ez (V/m) @ t=0.32
1.4707981791745977
% es.tEx (V/m) @ t=0.32
0.47877291169173475
% es.tEy (V/m) @ t=0.32
0
% es.tEz (V/m) @ t=0.32
1.4707981791745972
% V (V) @ t=0.32
0.007254599029652744
% es.normE (V/m) @ t=0.34
1.5661865713744212
% es.EX (V/m) @ t=0.34
0.48342522337540994
% es.EY (V/m) @ t=0.34
0.11711589914488896
% es.EZ (V/m) @ t=0.34
1.4850900382492904
% es.tEX (V/m) @ t=0.34
0.4834252233754128
% es.tEY (V/m) @ t=0.34
0
% es.tEZ (V/m) @ t=0.34
1.4850900382492984
% es.Ex (V/m) @ t=0.34
0.48342522337540994
% es.Ey (V/m) @ t=0.34
0.11711589914488896
% es.Ez (V/m) @ t=0.34
1.4850900382492904
% es.tEx (V/m) @ t=0.34
0.4834252233754128
% es.tEy (V/m) @ t=0.34
0
% es.tEz (V/m) @ t=0.34
1.4850900382492984
% V (V) @ t=0.34
0.007325089213458505
% es.normE (V/m) @ t=0.36
1.581258878638695
% es.EX (V/m) @ t=0.36
0.4880775350590847
% es.EY (V/m) @ t=0.36
0.11824295470675472
% es.EZ (V/m) @ t=0.36
1.4993818973239774
% es.tEX (V/m) @ t=0.36
0.4880775350590909
% es.tEY (V/m) @ t=0.36
0
% es.tEZ (V/m) @ t=0.36
1.4993818973239836
% es.Ex (V/m) @ t=0.36
0.4880775350590847
% es.Ey (V/m) @ t=0.36
0.11824295470675472
% es.Ez (V/m) @ t=0.36
1.4993818973239774
% es.tEx (V/m) @ t=0.36
0.4880775350590909
% es.tEy (V/m) @ t=0.36
0
% es.tEz (V/m) @ t=0.36
1.4993818973239836
% V (V) @ t=0.36
0.007395579397264265
% es.normE (V/m) @ t=0.38
1.596331185902983
% es.EX (V/m) @ t=0.38
0.4927298467427663
% es.EY (V/m) @ t=0.38
0.11937001026864713
% es.EZ (V/m) @ t=0.38
1.5136737563986737
% es.tEX (V/m) @ t=0.38
0.492729846742769
% es.tEY (V/m) @ t=0.38
0
% es.tEZ (V/m) @ t=0.38
1.513673756398683
% es.Ex (V/m) @ t=0.38
0.4927298467427663
% es.Ey (V/m) @ t=0.38
0.11937001026864713
% es.Ez (V/m) @ t=0.38
1.5136737563986737
% es.tEx (V/m) @ t=0.38
0.492729846742769
% es.tEy (V/m) @ t=0.38
0
% es.tEz (V/m) @ t=0.38
1.513673756398683
% V (V) @ t=0.38
0.007466069581070025
% es.normE (V/m) @ t=0.4
1.6114034931672576
% es.EX (V/m) @ t=0.4
0.4973821584264403
% es.EY (V/m) @ t=0.4
0.12049706583050801
% es.EZ (V/m) @ t=0.4
1.5279656154733599
% es.tEX (V/m) @ t=0.4
0.49738215842643996
% es.tEY (V/m) @ t=0.4
0
% es.tEZ (V/m) @ t=0.4
1.527965615473363
% es.Ex (V/m) @ t=0.4
0.4973821584264403
% es.Ey (V/m) @ t=0.4
0.12049706583050801
% es.Ez (V/m) @ t=0.4
1.5279656154733599
% es.tEx (V/m) @ t=0.4
0.49738215842643996
% es.tEy (V/m) @ t=0.4
0
% es.tEz (V/m) @ t=0.4
1.527965615473363
% V (V) @ t=0.4
0.007536559764875785
% es.normE (V/m) @ t=0.42
1.6264758004315385
% es.EX (V/m) @ t=0.42
0.5020344701101146
% es.EY (V/m) @ t=0.42
0.12162412139239509
% es.EZ (V/m) @ t=0.42
1.5422574745480495
% es.tEX (V/m) @ t=0.42
0.5020344701101109
% es.tEY (V/m) @ t=0.42
0
% es.tEZ (V/m) @ t=0.42
1.5422574745480535
% es.Ex (V/m) @ t=0.42
0.5020344701101146
% es.Ey (V/m) @ t=0.42
0.12162412139239509
% es.Ez (V/m) @ t=0.42
1.5422574745480495
% es.tEx (V/m) @ t=0.42
0.5020344701101109
% es.tEy (V/m) @ t=0.42
0
% es.tEz (V/m) @ t=0.42
1.5422574745480535
% V (V) @ t=0.42
0.007607049948681545
% es.normE (V/m) @ t=0.44
1.641548107695832
% es.EX (V/m) @ t=0.44
0.5066867817937926
% es.EY (V/m) @ t=0.44
0.12275117695425253
% es.EZ (V/m) @ t=0.44
1.5565493336227525
% es.tEX (V/m) @ t=0.44
0.5066867817937961
% es.tEY (V/m) @ t=0.44
0
% es.tEZ (V/m) @ t=0.44
1.5565493336227547
% es.Ex (V/m) @ t=0.44
0.5066867817937926
% es.Ey (V/m) @ t=0.44
0.12275117695425253
% es.Ez (V/m) @ t=0.44
1.5565493336227525
% es.tEx (V/m) @ t=0.44
0.5066867817937961
% es.tEy (V/m) @ t=0.44
0
% es.tEz (V/m) @ t=0.44
1.5565493336227547
% V (V) @ t=0.44
0.007677540132487306
% es.normE (V/m) @ t=0.46
1.6566204149601154
% es.EX (V/m) @ t=0.46
0.5113390934774746
% es.EY (V/m) @ t=0.46
0.12387823251615682
% es.EZ (V/m) @ t=0.46
1.570841192697439
% es.tEX (V/m) @ t=0.46
0.5113390934774813
% es.tEY (V/m) @ t=0.46
0
% es.tEZ (V/m) @ t=0.46
1.5708411926974417
% es.Ex (V/m) @ t=0.46
0.5113390934774746
% es.Ey (V/m) @ t=0.46
0.12387823251615682
% es.Ez (V/m) @ t=0.46
1.570841192697439
% es.tEx (V/m) @ t=0.46
0.5113390934774813
% es.tEy (V/m) @ t=0.46
0
% es.tEz (V/m) @ t=0.46
1.5708411926974417
% V (V) @ t=0.46
0.007748030316293065
% es.normE (V/m) @ t=0.48
1.671692722224395
% es.EX (V/m) @ t=0.48
0.5159914051611434
% es.EY (V/m) @ t=0.48
0.1250052880780178
% es.EZ (V/m) @ t=0.48
1.5851330517721283
% es.tEX (V/m) @ t=0.48
0.5159914051611523
% es.tEY (V/m) @ t=0.48
0
% es.tEZ (V/m) @ t=0.48
1.585133051772134
% es.Ex (V/m) @ t=0.48
0.5159914051611434
% es.Ey (V/m) @ t=0.48
0.1250052880780178
% es.Ez (V/m) @ t=0.48
1.5851330517721283
% es.tEx (V/m) @ t=0.48
0.5159914051611523
% es.tEy (V/m) @ t=0.48
0
% es.tEz (V/m) @ t=0.48
1.585133051772134
% V (V) @ t=0.48
0.007818520500098826
% es.normE (V/m) @ t=0.5
1.6867650294886802
% es.EX (V/m) @ t=0.5
0.5206437168448266
% es.EY (V/m) @ t=0.5
0.12613234363988146
% es.EZ (V/m) @ t=0.5
1.5994249108468175
% es.tEX (V/m) @ t=0.5
0.5206437168448304
% es.tEY (V/m) @ t=0.5
0
% es.tEZ (V/m) @ t=0.5
1.5994249108468193
% es.Ex (V/m) @ t=0.5
0.5206437168448266
% es.Ey (V/m) @ t=0.5
0.12613234363988146
% es.Ez (V/m) @ t=0.5
1.5994249108468175
% es.tEx (V/m) @ t=0.5
0.5206437168448304
% es.tEy (V/m) @ t=0.5
0
% es.tEz (V/m) @ t=0.5
1.5994249108468193
% V (V) @ t=0.5
0.007889010683904588
% es.normE (V/m) @ t=0.52
1.7018373367529664
% es.EX (V/m) @ t=0.52
0.5252960285285107
% es.EY (V/m) @ t=0.52
0.12725939920178853
% es.EZ (V/m) @ t=0.52
1.6137167699215036
% es.tEX (V/m) @ t=0.52
0.5252960285285084
% es.tEY (V/m) @ t=0.52
0
% es.tEZ (V/m) @ t=0.52
1.6137167699215063
% es.Ex (V/m) @ t=0.52
0.5252960285285107
% es.Ey (V/m) @ t=0.52
0.12725939920178853
% es.Ez (V/m) @ t=0.52
1.6137167699215036
% es.tEx (V/m) @ t=0.52
0.5252960285285084
% es.tEy (V/m) @ t=0.52
0
% es.tEz (V/m) @ t=0.52
1.6137167699215063
% V (V) @ t=0.52
0.007959500867710348
% es.normE (V/m) @ t=0.54
1.7169096440172522
% es.EX (V/m) @ t=0.54
0.5299483402121816
% es.EY (V/m) @ t=0.54
0.12838645476363297
% es.EZ (V/m) @ t=0.54
1.6280086289961972
% es.tEX (V/m) @ t=0.54
0.5299483402121865
% es.tEY (V/m) @ t=0.54
0
% es.tEZ (V/m) @ t=0.54
1.6280086289962057
% es.Ex (V/m) @ t=0.54
0.5299483402121816
% es.Ey (V/m) @ t=0.54
0.12838645476363297
% es.Ez (V/m) @ t=0.54
1.6280086289961972
% es.tEx (V/m) @ t=0.54
0.5299483402121865
% es.tEy (V/m) @ t=0.54
0
% es.tEz (V/m) @ t=0.54
1.6280086289962057
% V (V) @ t=0.54
0.008029991051516108
% es.normE (V/m) @ t=0.56
1.7334110599470836
% es.EX (V/m) @ t=0.56
0.535041715798304
% es.EY (V/m) @ t=0.56
0.12962040120712048
% es.EZ (V/m) @ t=0.56
1.6436556124376853
% es.tEX (V/m) @ t=0.56
0.5350417157983074
% es.tEY (V/m) @ t=0.56
0
% es.tEZ (V/m) @ t=0.56
1.6436556124376889
% es.Ex (V/m) @ t=0.56
0.535041715798304
% es.Ey (V/m) @ t=0.56
0.12962040120712048
% es.Ez (V/m) @ t=0.56
1.6436556124376853
% es.tEx (V/m) @ t=0.56
0.5350417157983074
% es.tEy (V/m) @ t=0.56
0
% es.tEz (V/m) @ t=0.56
1.6436556124376889
% V (V) @ t=0.56
0.008107170018645502
% es.normE (V/m) @ t=0.58
1.7502292799262167
% es.EX (V/m) @ t=0.58
0.5402328661958536
% es.EY (V/m) @ t=0.58
0.13087804316445117
% es.EZ (V/m) @ t=0.58
1.6596029991284578
% es.tEX (V/m) @ t=0.58
0.5402328661958578
% es.tEY (V/m) @ t=0.58
0
% es.tEZ (V/m) @ t=0.58
1.6596029991284613
% es.Ex (V/m) @ t=0.58
0.5402328661958536
% es.Ey (V/m) @ t=0.58
0.13087804316445117
% es.Ez (V/m) @ t=0.58
1.6596029991284578
% es.tEx (V/m) @ t=0.58
0.5402328661958578
% es.tEy (V/m) @ t=0.58
0
% es.tEz (V/m) @ t=0.58
1.6596029991284613
% V (V) @ t=0.58
0.008185831751706398
% es.normE (V/m) @ t=0.6
1.7670474999053163
% es.EX (V/m) @ t=0.6
0.5454240165934011
% es.EY (V/m) @ t=0.6
0.1321356851217249
% es.EZ (V/m) @ t=0.6
1.6755503858191991
% es.tEX (V/m) @ t=0.6
0.545424016593401
% es.tEY (V/m) @ t=0.6
0
% es.tEZ (V/m) @ t=0.6
1.6755503858192053
% es.Ex (V/m) @ t=0.6
0.5454240165934011
% es.Ey (V/m) @ t=0.6
0.1321356851217249
% es.Ez (V/m) @ t=0.6
1.6755503858191991
% es.tEx (V/m) @ t=0.6
0.545424016593401
% es.tEy (V/m) @ t=0.6
0
% es.tEz (V/m) @ t=0.6
1.6755503858192053
% V (V) @ t=0.6
0.008264493484767294
% es.normE (V/m) @ t=0.62
1.7838657198844237
% es.EX (V/m) @ t=0.62
0.5506151669909407
% es.EY (V/m) @ t=0.62
0.13339332707903762
% es.EZ (V/m) @ t=0.62
1.6914977725099476
% es.tEX (V/m) @ t=0.62
0.5506151669909372
% es.tEY (V/m) @ t=0.62
0
% es.tEZ (V/m) @ t=0.62
1.6914977725099494
% es.Ex (V/m) @ t=0.62
0.5506151669909407
% es.Ey (V/m) @ t=0.62
0.13339332707903762
% es.Ez (V/m) @ t=0.62
1.6914977725099476
% es.tEx (V/m) @ t=0.62
0.5506151669909372
% es.tEy (V/m) @ t=0.62
0
% es.tEz (V/m) @ t=0.62
1.6914977725099494
% V (V) @ t=0.62
0.00834315521782819
% es.normE (V/m) @ t=0.64
1.8006839398635517
% es.EX (V/m) @ t=0.64
0.5558063173885065
% es.EY (V/m) @ t=0.64
0.13465096903636997
% es.EZ (V/m) @ t=0.64
1.7074451592007067
% es.tEX (V/m) @ t=0.64
0.5558063173885017
% es.tEY (V/m) @ t=0.64
0
% es.tEZ (V/m) @ t=0.64
1.7074451592007094
% es.Ex (V/m) @ t=0.64
0.5558063173885065
% es.Ey (V/m) @ t=0.64
0.13465096903636997
% es.Ez (V/m) @ t=0.64
1.7074451592007067
% es.tEx (V/m) @ t=0.64
0.5558063173885017
% es.tEy (V/m) @ t=0.64
0
% es.tEz (V/m) @ t=0.64
1.7074451592007094
% V (V) @ t=0.64
0.008421816950889085
% es.normE (V/m) @ t=0.66
1.8175021598426557
% es.EX (V/m) @ t=0.66
0.5609974677860483
% es.EY (V/m) @ t=0.66
0.13590861099365803
% es.EZ (V/m) @ t=0.66
1.7233925458914516
% es.tEX (V/m) @ t=0.66
0.5609974677860521
% es.tEY (V/m) @ t=0.66
0
% es.tEZ (V/m) @ t=0.66
1.7233925458914534
% es.Ex (V/m) @ t=0.66
0.5609974677860483
% es.Ey (V/m) @ t=0.66
0.13590861099365803
% es.Ez (V/m) @ t=0.66
1.7233925458914516
% es.tEx (V/m) @ t=0.66
0.5609974677860521
% es.tEy (V/m) @ t=0.66
0
% es.tEz (V/m) @ t=0.66
1.7233925458914534
% V (V) @ t=0.66
0.008500478683949982
% es.normE (V/m) @ t=0.68
1.8343203798217784
% es.EX (V/m) @ t=0.68
0.5661886181835966
% es.EY (V/m) @ t=0.68
0.1371662529509845
% es.EZ (V/m) @ t=0.68
1.7393399325822103
% es.tEX (V/m) @ t=0.68
0.5661886181836024
% es.tEY (V/m) @ t=0.68
0
% es.tEZ (V/m) @ t=0.68
1.7393399325822188
% es.Ex (V/m) @ t=0.68
0.5661886181835966
% es.Ey (V/m) @ t=0.68
0.1371662529509845
% es.Ez (V/m) @ t=0.68
1.7393399325822103
% es.tEx (V/m) @ t=0.68
0.5661886181836024
% es.tEy (V/m) @ t=0.68
0
% es.tEz (V/m) @ t=0.68
1.7393399325822188
% V (V) @ t=0.68
0.008579140417010878
% es.normE (V/m) @ t=0.7
1.851138599800887
% es.EX (V/m) @ t=0.7
0.5713797685811409
% es.EY (V/m) @ t=0.7
0.1384238949083031
% es.EZ (V/m) @ t=0.7
1.7552873192729552
% es.tEX (V/m) @ t=0.7
0.5713797685811457
% es.tEY (V/m) @ t=0.7
0
% es.tEZ (V/m) @ t=0.7
1.7552873192729574
% es.Ex (V/m) @ t=0.7
0.5713797685811409
% es.Ey (V/m) @ t=0.7
0.1384238949083031
% es.Ez (V/m) @ t=0.7
1.7552873192729552
% es.tEx (V/m) @ t=0.7
0.5713797685811457
% es.tEy (V/m) @ t=0.7
0
% es.tEz (V/m) @ t=0.7
1.7552873192729574
% V (V) @ t=0.7
0.008657802150071774
% es.normE (V/m) @ t=0.72
1.8679568197800238
% es.EX (V/m) @ t=0.72
0.5765709189786938
% es.EY (V/m) @ t=0.72
0.1396815368655996
% es.EZ (V/m) @ t=0.72
1.7712347059637286
% es.tEX (V/m) @ t=0.72
0.5765709189786961
% es.tEY (V/m) @ t=0.72
0
% es.tEZ (V/m) @ t=0.72
1.77123470596373
% es.Ex (V/m) @ t=0.72
0.5765709189786938
% es.Ey (V/m) @ t=0.72
0.1396815368655996
% es.Ez (V/m) @ t=0.72
1.7712347059637286
% es.tEx (V/m) @ t=0.72
0.5765709189786961
% es.tEy (V/m) @ t=0.72
0
% es.tEz (V/m) @ t=0.72
1.77123470596373
% V (V) @ t=0.72
0.00873646388313267
% es.normE (V/m) @ t=0.74
1.8847750397591319
% es.EX (V/m) @ t=0.74
0.5817620693762385
% es.EY (V/m) @ t=0.74
0.1409391788229034
% es.EZ (V/m) @ t=0.74
1.787182092654473
% es.tEX (V/m) @ t=0.74
0.5817620693762393
% es.tEY (V/m) @ t=0.74
0
% es.tEZ (V/m) @ t=0.74
1.7871820926544757
% es.Ex (V/m) @ t=0.74
0.5817620693762385
% es.Ey (V/m) @ t=0.74
0.1409391788229034
% es.Ez (V/m) @ t=0.74
1.787182092654473
% es.tEx (V/m) @ t=0.74
0.5817620693762393
% es.tEy (V/m) @ t=0.74
0
% es.tEz (V/m) @ t=0.74
1.7871820926544757
% V (V) @ t=0.74
0.008815125616193567
% es.normE (V/m) @ t=0.76
1.9015932597382457
% es.EX (V/m) @ t=0.76
0.5869532197737913
% es.EY (V/m) @ t=0.76
0.1421968207802039
% es.EZ (V/m) @ t=0.76
1.8031294793452206
% es.tEX (V/m) @ t=0.76
0.5869532197737826
% es.tEY (V/m) @ t=0.76
0
% es.tEZ (V/m) @ t=0.76
1.8031294793452215
% es.Ex (V/m) @ t=0.76
0.5869532197737913
% es.Ey (V/m) @ t=0.76
0.1421968207802039
% es.Ez (V/m) @ t=0.76
1.8031294793452206
% es.tEx (V/m) @ t=0.76
0.5869532197737826
% es.tEy (V/m) @ t=0.76
0
% es.tEz (V/m) @ t=0.76
1.8031294793452215
% V (V) @ t=0.76
0.008893787349254462
% es.normE (V/m) @ t=0.78
1.9184114797173741
% es.EX (V/m) @ t=0.78
0.5921443701713411
% es.EY (V/m) @ t=0.78
0.14345446273751317
% es.EZ (V/m) @ t=0.78
1.8190768660359833
% es.tEX (V/m) @ t=0.78
0.59214437017134
% es.tEY (V/m) @ t=0.78
0
% es.tEZ (V/m) @ t=0.78
1.8190768660359797
% es.Ex (V/m) @ t=0.78
0.5921443701713411
% es.Ey (V/m) @ t=0.78
0.14345446273751317
% es.Ez (V/m) @ t=0.78
1.8190768660359833
% es.tEx (V/m) @ t=0.78
0.59214437017134
% es.tEy (V/m) @ t=0.78
0
% es.tEz (V/m) @ t=0.78
1.8190768660359797
% V (V) @ t=0.78
0.008972449082315358
% es.normE (V/m) @ t=0.8
1.9352296996964904
% es.EX (V/m) @ t=0.8
0.5973355205688922
% es.EY (V/m) @ t=0.8
0.1447121046948332
% es.EZ (V/m) @ t=0.8
1.8350242527267313
% es.tEX (V/m) @ t=0.8
0.5973355205688904
% es.tEY (V/m) @ t=0.8
0
% es.tEZ (V/m) @ t=0.8
1.8350242527267326
% es.Ex (V/m) @ t=0.8
0.5973355205688922
% es.Ey (V/m) @ t=0.8
0.1447121046948332
% es.Ez (V/m) @ t=0.8
1.8350242527267313
% es.tEx (V/m) @ t=0.8
0.5973355205688904
% es.tEy (V/m) @ t=0.8
0
% es.tEz (V/m) @ t=0.8
1.8350242527267326
% V (V) @ t=0.8
0.009051110815376254
% es.normE (V/m) @ t=0.82
1.9525092888576112
% es.EX (V/m) @ t=0.82
0.602669084301769
% es.EY (V/m) @ t=0.82
0.1460042441185676
% es.EZ (V/m) @ t=0.82
1.851409117556086
% es.tEX (V/m) @ t=0.82
0.6026690843017732
% es.tEY (V/m) @ t=0.82
0
% es.tEZ (V/m) @ t=0.82
1.8514091175560878
% es.Ex (V/m) @ t=0.82
0.602669084301769
% es.Ey (V/m) @ t=0.82
0.1460042441185676
% es.Ez (V/m) @ t=0.82
1.851409117556086
% es.tEx (V/m) @ t=0.82
0.6026690843017732
% es.tEy (V/m) @ t=0.82
0
% es.tEz (V/m) @ t=0.82
1.8514091175560878
% V (V) @ t=0.82
0.009131929871970472
% es.normE (V/m) @ t=0.84
1.9713093929652308
% es.EX (V/m) @ t=0.84
0.6084719936550379
% es.EY (V/m) @ t=0.84
0.14741007538689954
% es.EZ (V/m) @ t=0.84
1.8692357606282357
% es.tEX (V/m) @ t=0.84
0.6084719936550371
% es.tEY (V/m) @ t=0.84
0
% es.tEZ (V/m) @ t=0.84
1.8692357606282464
% es.Ex (V/m) @ t=0.84
0.6084719936550379
% es.Ey (V/m) @ t=0.84
0.14741007538689954
% es.Ez (V/m) @ t=0.84
1.8692357606282357
% es.tEx (V/m) @ t=0.84
0.6084719936550371
% es.tEy (V/m) @ t=0.84
0
% es.tEz (V/m) @ t=0.84
1.8692357606282464
% V (V) @ t=0.84
0.00921985872870914
% es.normE (V/m) @ t=0.86
1.9901094970728406
% es.EX (V/m) @ t=0.86
0.6142749030082941
% es.EY (V/m) @ t=0.86
0.14881590665519995
% es.EZ (V/m) @ t=0.86
1.8870624037003818
% es.tEX (V/m) @ t=0.86
0.614274903008301
% es.tEY (V/m) @ t=0.86
0
% es.tEZ (V/m) @ t=0.86
1.8870624037003836
% es.Ex (V/m) @ t=0.86
0.6142749030082941
% es.Ey (V/m) @ t=0.86
0.14881590665519995
% es.Ez (V/m) @ t=0.86
1.8870624037003818
% es.tEx (V/m) @ t=0.86
0.614274903008301
% es.tEy (V/m) @ t=0.86
0
% es.tEz (V/m) @ t=0.86
1.8870624037003836
% V (V) @ t=0.86
0.00930778758544781
% es.normE (V/m) @ t=0.88
2.0089096011804584
% es.EX (V/m) @ t=0.88
0.6200778123615542
% es.EY (V/m) @ t=0.88
0.1502217379235128
% es.EZ (V/m) @ t=0.88
1.9048890467725341
% es.tEX (V/m) @ t=0.88
0.6200778123615578
% es.tEY (V/m) @ t=0.88
0
% es.tEZ (V/m) @ t=0.88
1.9048890467725297
% es.Ex (V/m) @ t=0.88
0.6200778123615542
% es.Ey (V/m) @ t=0.88
0.1502217379235128
% es.Ez (V/m) @ t=0.88
1.9048890467725341
% es.tEx (V/m) @ t=0.88
0.6200778123615578
% es.tEy (V/m) @ t=0.88
0
% es.tEz (V/m) @ t=0.88
1.9048890467725297
% V (V) @ t=0.88
0.00939571644218648
% es.normE (V/m) @ t=0.9
2.0277097052880775
% es.EX (V/m) @ t=0.9
0.625880721714822
% es.EY (V/m) @ t=0.9
0.1516275691918334
% es.EZ (V/m) @ t=0.9
1.922715689844685
% es.tEX (V/m) @ t=0.9
0.6258807217148288
% es.tEY (V/m) @ t=0.9
0
% es.tEZ (V/m) @ t=0.9
1.9227156898446758
% es.Ex (V/m) @ t=0.9
0.625880721714822
% es.Ey (V/m) @ t=0.9
0.1516275691918334
% es.Ez (V/m) @ t=0.9
1.922715689844685
% es.tEx (V/m) @ t=0.9
0.6258807217148288
% es.tEy (V/m) @ t=0.9
0
% es.tEz (V/m) @ t=0.9
1.9227156898446758
% V (V) @ t=0.9
0.009483645298925151
% es.normE (V/m) @ t=0.92
2.046509809395702
% es.EX (V/m) @ t=0.92
0.6316836310680852
% es.EY (V/m) @ t=0.92
0.15303340046015468
% es.EZ (V/m) @ t=0.92
1.9405423329168423
% es.tEX (V/m) @ t=0.92
0.6316836310680856
% es.tEY (V/m) @ t=0.92
0
% es.tEZ (V/m) @ t=0.92
1.9405423329168485
% es.Ex (V/m) @ t=0.92
0.6316836310680852
% es.Ey (V/m) @ t=0.92
0.15303340046015468
% es.Ez (V/m) @ t=0.92
1.9405423329168423
% es.tEx (V/m) @ t=0.92
0.6316836310680856
% es.tEy (V/m) @ t=0.92
0
% es.tEz (V/m) @ t=0.92
1.9405423329168485
% V (V) @ t=0.92
0.009571574155663818
% es.normE (V/m) @ t=0.94
2.065309913503322
% es.EX (V/m) @ t=0.94
0.6374865404213508
% es.EY (V/m) @ t=0.94
0.15443923172847285
% es.EZ (V/m) @ t=0.94
1.958368975988995
% es.tEX (V/m) @ t=0.94
0.6374865404213494
% es.tEY (V/m) @ t=0.94
0
% es.tEZ (V/m) @ t=0.94
1.9583689759889946
% es.Ex (V/m) @ t=0.94
0.6374865404213508
% es.Ey (V/m) @ t=0.94
0.15443923172847285
% es.Ez (V/m) @ t=0.94
1.958368975988995
% es.tEx (V/m) @ t=0.94
0.6374865404213494
% es.tEy (V/m) @ t=0.94
0
% es.tEz (V/m) @ t=0.94
1.9583689759889946
% V (V) @ t=0.94
0.009659503012402489
% es.normE (V/m) @ t=0.96
2.0841100176109206
% es.EX (V/m) @ t=0.96
0.6432894497746032
% es.EY (V/m) @ t=0.96
0.15584506299677636
% es.EZ (V/m) @ t=0.96
1.9761956190611305
% es.tEX (V/m) @ t=0.96
0.6432894497745991
% es.tEY (V/m) @ t=0.96
0
% es.tEZ (V/m) @ t=0.96
1.97619561906113
% es.Ex (V/m) @ t=0.96
0.6432894497746032
% es.Ey (V/m) @ t=0.96
0.15584506299677636
% es.Ez (V/m) @ t=0.96
1.9761956190611305
% es.tEx (V/m) @ t=0.96
0.6432894497745991
% es.tEy (V/m) @ t=0.96
0
% es.tEz (V/m) @ t=0.96
1.97619561906113
% V (V) @ t=0.96
0.00974743186914116
% es.normE (V/m) @ t=0.98
2.1029101217185433
% es.EX (V/m) @ t=0.98
0.649092359127869
% es.EY (V/m) @ t=0.98
0.1572508942651082
% es.EZ (V/m) @ t=0.98
1.9940222621332842
% es.tEX (V/m) @ t=0.98
0.6490923591278701
% es.tEY (V/m) @ t=0.98
0
% es.tEZ (V/m) @ t=0.98
1.9940222621332744
% es.Ex (V/m) @ t=0.98
0.649092359127869
% es.Ey (V/m) @ t=0.98
0.1572508942651082
% es.Ez (V/m) @ t=0.98
1.9940222621332842
% es.tEx (V/m) @ t=0.98
0.6490923591278701
% es.tEy (V/m) @ t=0.98
0
% es.tEz (V/m) @ t=0.98
1.9940222621332744
% V (V) @ t=0.98
0.009835360725879828
% es.normE (V/m) @ t=1
2.1217102258261624
% es.EX (V/m) @ t=1
0.6548952684811349
% es.EY (V/m) @ t=1
0.15865672553343324
% es.EZ (V/m) @ t=1
2.011848905205435
% es.tEX (V/m) @ t=1
0.654895268481134
% es.tEY (V/m) @ t=1
0
% es.tEZ (V/m) @ t=1
2.011848905205449
% es.Ex (V/m) @ t=1
0.6548952684811349
% es.Ey (V/m) @ t=1
0.15865672553343324
% es.Ez (V/m) @ t=1
2.011848905205435
% es.tEx (V/m) @ t=1
0.654895268481134
% es.tEy (V/m) @ t=1
0
% es.tEz (V/m) @ t=1
2.011848905205449
% V (V) @ t=1
0.009923289582618497
% es.normE (V/m) @ t=1.02
2.1405103299337727
% es.EX (V/m) @ t=1.02
0.6606981778343862
% es.EY (V/m) @ t=1.02
0.1600625568017301
% es.EZ (V/m) @ t=1.02
2.029675548277584
% es.tEX (V/m) @ t=1.02
0.6606981778343837
% es.tEY (V/m) @ t=1.02
0
% es.tEZ (V/m) @ t=1.02
2.029675548277579
% es.Ex (V/m) @ t=1.02
0.6606981778343862
% es.Ey (V/m) @ t=1.02
0.1600625568017301
% es.Ez (V/m) @ t=1.02
2.029675548277584
% es.tEx (V/m) @ t=1.02
0.6606981778343837
% es.tEy (V/m) @ t=1.02
0
% es.tEz (V/m) @ t=1.02
2.029675548277579
% V (V) @ t=1.02
0.010011218439357168
% es.normE (V/m) @ t=1.04
2.159310434041389
% es.EX (V/m) @ t=1.04
0.6665010871876548
% es.EY (V/m) @ t=1.04
0.1614683880700567
% es.EZ (V/m) @ t=1.04
2.047502191349731
% es.tEX (V/m) @ t=1.04
0.6665010871876618
% es.tEY (V/m) @ t=1.04
0
% es.tEZ (V/m) @ t=1.04
2.0475021913497393
% es.Ex (V/m) @ t=1.04
0.6665010871876548
% es.Ey (V/m) @ t=1.04
0.1614683880700567
% es.Ez (V/m) @ t=1.04