% Model:              1 neuron.mph
% Version:            COMSOL 6.1.0.252
% Date:               Mar 18 2023, 11:45
% Dimension:          0
% Nodes:              14017
% Expressions:        14017
% Description:        Electric field norm, Electric field, X component, Electric field, Y component, Electric field, Z component, Tangential electric field, X component, Tangential electric field, Y component, Tangential electric field, Z component, Electric field, x component, Electric field, y component, Electric field, z component, Tangential electric field, x component, Tangential electric field, y component, Tangential electric field, z component, Electric potential
% Length unit:        mm
% x
1
% y
12.2
% z
1
% es.normE (V/m) @ t=0
0.8057200329064673
% es.EX (V/m) @ t=0
0.5470949903194153
% es.EY (V/m) @ t=0
0.15538168380111728
% es.EZ (V/m) @ t=0
0.5558717754051123
% es.tEX (V/m) @ t=0
0.5470949903194082
% es.tEY (V/m) @ t=0
0
% es.tEZ (V/m) @ t=0
0.5558717754051052
% es.Ex (V/m) @ t=0
0.5470949903194153
% es.Ey (V/m) @ t=0
0.15538168380111728
% es.Ez (V/m) @ t=0
0.5558717754051123
% es.tEx (V/m) @ t=0
0.5470949903194082
% es.tEy (V/m) @ t=0
0
% es.tEz (V/m) @ t=0
0.5558717754051052
% V (V) @ t=0
0.007555471268524145
% es.normE (V/m) @ t=0.02
0.6959086699219428
% es.EX (V/m) @ t=0.02
0.4725315638280989
% es.EY (V/m) @ t=0.02
0.13420475683192556
% es.EZ (V/m) @ t=0.02
0.480112162840201
% es.tEX (V/m) @ t=0.02
0.4725315638280847
% es.tEY (V/m) @ t=0.02
0
% es.tEZ (V/m) @ t=0.02
0.4801121628401894
% es.Ex (V/m) @ t=0.02
0.4725315638280989
% es.Ey (V/m) @ t=0.02
0.13420475683192556
% es.Ez (V/m) @ t=0.02
0.480112162840201
% es.tEx (V/m) @ t=0.02
0.4725315638280847
% es.tEy (V/m) @ t=0.02
0
% es.tEz (V/m) @ t=0.02
0.4801121628401894
% V (V) @ t=0.02
0.006525738140020889
% es.normE (V/m) @ t=0.04
0.7023092581279243
% es.EX (V/m) @ t=0.04
0.4768776520025053
% es.EY (V/m) @ t=0.04
0.13543910181001007
% es.EZ (V/m) @ t=0.04
0.4845279703160408
% es.tEX (V/m) @ t=0.04
0.4768776520024929
% es.tEY (V/m) @ t=0.04
0
% es.tEZ (V/m) @ t=0.04
0.48452797031602657
% es.Ex (V/m) @ t=0.04
0.4768776520025053
% es.Ey (V/m) @ t=0.04
0.13543910181001007
% es.Ez (V/m) @ t=0.04
0.4845279703160408
% es.tEx (V/m) @ t=0.04
0.4768776520024929
% es.tEy (V/m) @ t=0.04
0
% es.tEz (V/m) @ t=0.04
0.48452797031602657
% V (V) @ t=0.04
0.006585758174533657
% es.normE (V/m) @ t=0.06
0.7087691446541923
% es.EX (V/m) @ t=0.06
0.48126400427671356
% es.EY (V/m) @ t=0.06
0.13668488563601588
% es.EZ (V/m) @ t=0.06
0.48898468672191964
% es.tEX (V/m) @ t=0.06
0.48126400427671
% es.tEY (V/m) @ t=0.06
0
% es.tEZ (V/m) @ t=0.06
0.488984686721917
% es.Ex (V/m) @ t=0.06
0.48126400427671356
% es.Ey (V/m) @ t=0.06
0.13668488563601588
% es.Ez (V/m) @ t=0.06
0.48898468672191964
% es.tEx (V/m) @ t=0.06
0.48126400427671
% es.tEy (V/m) @ t=0.06
0
% es.tEz (V/m) @ t=0.06
0.488984686721917
% V (V) @ t=0.06
0.006646334140550227
% es.normE (V/m) @ t=0.08
0.7153238531070999
% es.EX (V/m) @ t=0.08
0.4857147416109733
% es.EY (V/m) @ t=0.08
0.13794894782373568
% es.EZ (V/m) @ t=0.08
0.49350682583267425
% es.tEX (V/m) @ t=0.08
0.4857147416109626
% es.tEY (V/m) @ t=0.08
0
% es.tEZ (V/m) @ t=0.08
0.49350682583266803
% es.Ex (V/m) @ t=0.08
0.4857147416109733
% es.Ey (V/m) @ t=0.08
0.13794894782373568
% es.Ez (V/m) @ t=0.08
0.49350682583267425
% es.tEx (V/m) @ t=0.08
0.4857147416109626
% es.tEy (V/m) @ t=0.08
0
% es.tEz (V/m) @ t=0.08
0.49350682583266803
% V (V) @ t=0.08
0.006707799616704991
% es.normE (V/m) @ t=0.1
0.7219522707647313
% es.EX (V/m) @ t=0.1
0.4902155282507117
% es.EY (V/m) @ t=0.1
0.13922721857642362
% es.EZ (V/m) @ t=0.1
0.4980798208553301
% es.tEX (V/m) @ t=0.1
0.49021552825071524
% es.tEY (V/m) @ t=0.1
0
% es.tEZ (V/m) @ t=0.1
0.4980798208553274
% es.Ex (V/m) @ t=0.1
0.4902155282507117
% es.Ey (V/m) @ t=0.1
0.13922721857642362
% es.Ez (V/m) @ t=0.1
0.4980798208553301
% es.tEx (V/m) @ t=0.1
0.49021552825071524
% es.tEy (V/m) @ t=0.1
0
% es.tEz (V/m) @ t=0.1
0.4980798208553274
% V (V) @ t=0.1
0.006769956547750318
% es.normE (V/m) @ t=0.12
0.7285806884223811
% es.EX (V/m) @ t=0.12
0.4947163148904643
% es.EY (V/m) @ t=0.12
0.14050548932915952
% es.EZ (V/m) @ t=0.12
0.5026528158779842
% es.tEX (V/m) @ t=0.12
0.49471631489045365
% es.tEY (V/m) @ t=0.12
0
% es.tEZ (V/m) @ t=0.12
0.5026528158779833
% es.Ex (V/m) @ t=0.12
0.4947163148904643
% es.Ey (V/m) @ t=0.12
0.14050548932915952
% es.Ez (V/m) @ t=0.12
0.5026528158779842
% es.tEx (V/m) @ t=0.12
0.49471631489045365
% es.tEy (V/m) @ t=0.12
0
% es.tEz (V/m) @ t=0.12
0.5026528158779833
% V (V) @ t=0.12
0.006832113478795643
% es.normE (V/m) @ t=0.14
0.7352573590273133
% es.EX (V/m) @ t=0.14
0.49924986602636245
% es.EY (V/m) @ t=0.14
0.141793073982857
% es.EZ (V/m) @ t=0.14
0.5072590965270951
% es.tEX (V/m) @ t=0.14
0.4992498660263536
% es.tEY (V/m) @ t=0.14
0
% es.tEZ (V/m) @ t=0.14
0.5072590965270862
% es.Ex (V/m) @ t=0.14
0.49924986602636245
% es.Ey (V/m) @ t=0.14
0.141793073982857
% es.Ez (V/m) @ t=0.14
0.5072590965270951
% es.tEx (V/m) @ t=0.14
0.4992498660263536
% es.tEy (V/m) @ t=0.14
0
% es.tEz (V/m) @ t=0.14
0.5072590965270862
% V (V) @ t=0.14
0.00689472254398616
% es.normE (V/m) @ t=0.16
0.7422423715226112
% es.EX (V/m) @ t=0.16
0.5039927860662008
% es.EY (V/m) @ t=0.16
0.14314017553624403
% es.EZ (V/m) @ t=0.16
0.5120780761626769
% es.tEX (V/m) @ t=0.16
0.5039927860661919
% es.tEY (V/m) @ t=0.16
0
% es.tEZ (V/m) @ t=0.16
0.5120780761626662
% es.Ex (V/m) @ t=0.16
0.5039927860662008
% es.Ey (V/m) @ t=0.16
0.14314017553624403
% es.Ez (V/m) @ t=0.16
0.5120780761626769
% es.tEx (V/m) @ t=0.16
0.5039927860661919
% es.tEy (V/m) @ t=0.16
0
% es.tEz (V/m) @ t=0.16
0.5120780761626662
% V (V) @ t=0.16
0.006960220798433539
% es.normE (V/m) @ t=0.18
0.7492273840178932
% es.EX (V/m) @ t=0.18
0.5087357061060214
% es.EY (V/m) @ t=0.18
0.14448727708965414
% es.EZ (V/m) @ t=0.18
0.5168970557982329
% es.tEX (V/m) @ t=0.18
0.5087357061060374
% es.tEY (V/m) @ t=0.18
0
% es.tEZ (V/m) @ t=0.18
0.5168970557982213
% es.Ex (V/m) @ t=0.18
0.5087357061060214
% es.Ey (V/m) @ t=0.18
0.14448727708965414
% es.Ez (V/m) @ t=0.18
0.5168970557982329
% es.tEx (V/m) @ t=0.18
0.5087357061060374
% es.tEy (V/m) @ t=0.18
0
% es.tEz (V/m) @ t=0.18
0.5168970557982213
% V (V) @ t=0.18
0.007025719052880916
% es.normE (V/m) @ t=0.2
0.7562123965132106
% es.EX (V/m) @ t=0.2
0.5134786261458686
% es.EY (V/m) @ t=0.2
0.14583437864306248
% es.EZ (V/m) @ t=0.2
0.5217160354337995
% es.tEX (V/m) @ t=0.2
0.5134786261458615
% es.tEY (V/m) @ t=0.2
0
% es.tEZ (V/m) @ t=0.2
0.5217160354337906
% es.Ex (V/m) @ t=0.2
0.5134786261458686
% es.Ey (V/m) @ t=0.2
0.14583437864306248
% es.Ez (V/m) @ t=0.2
0.5217160354337995
% es.tEx (V/m) @ t=0.2
0.5134786261458615
% es.tEy (V/m) @ t=0.2
0
% es.tEz (V/m) @ t=0.2
0.5217160354337906
% V (V) @ t=0.2
0.007091217307328296
% es.normE (V/m) @ t=0.22
0.7631974090085336
% es.EX (V/m) @ t=0.22
0.5182215461857016
% es.EY (V/m) @ t=0.22
0.14718148019645483
% es.EZ (V/m) @ t=0.22
0.526535015069383
% es.tEX (V/m) @ t=0.22
0.5182215461856927
% es.tEY (V/m) @ t=0.22
0
% es.tEZ (V/m) @ t=0.22
0.5265350150693742
% es.Ex (V/m) @ t=0.22
0.5182215461857016
% es.Ey (V/m) @ t=0.22
0.14718148019645483
% es.Ez (V/m) @ t=0.22
0.526535015069383
% es.tEx (V/m) @ t=0.22
0.5182215461856927
% es.tEy (V/m) @ t=0.22
0
% es.tEz (V/m) @ t=0.22
0.5265350150693742
% V (V) @ t=0.22
0.007156715561775676
% es.normE (V/m) @ t=0.24
0.7701824215038273
% es.EX (V/m) @ t=0.24
0.5229644662255115
% es.EY (V/m) @ t=0.24
0.14852858174987027
% es.EZ (V/m) @ t=0.24
0.5313539947049284
% es.tEX (V/m) @ t=0.24
0.5229644662255097
% es.tEY (V/m) @ t=0.24
0
% es.tEZ (V/m) @ t=0.24
0.5313539947049222
% es.Ex (V/m) @ t=0.24
0.5229644662255115
% es.Ey (V/m) @ t=0.24
0.14852858174987027
% es.Ez (V/m) @ t=0.24
0.5313539947049284
% es.tEx (V/m) @ t=0.24
0.5229644662255097
% es.tEy (V/m) @ t=0.24
0
% es.tEz (V/m) @ t=0.24
0.5313539947049222
% V (V) @ t=0.24
0.0072222138162230535
% es.normE (V/m) @ t=0.26
0.777167433999168
% es.EX (V/m) @ t=0.26
0.5277073862653481
% es.EY (V/m) @ t=0.26
0.14987568330326262
% es.EZ (V/m) @ t=0.26
0.536172974340511
% es.tEX (V/m) @ t=0.26
0.5277073862653339
% es.tEY (V/m) @ t=0.26
0
% es.tEZ (V/m) @ t=0.26
0.5361729743405022
% es.Ex (V/m) @ t=0.26
0.5277073862653481
% es.Ey (V/m) @ t=0.26
0.14987568330326262
% es.Ez (V/m) @ t=0.26
0.536172974340511
% es.tEx (V/m) @ t=0.26
0.5277073862653339
% es.tEy (V/m) @ t=0.26
0
% es.tEz (V/m) @ t=0.26
0.5361729743405022
% V (V) @ t=0.26
0.007287712070670433
% es.normE (V/m) @ t=0.28
0.7843777985084139
% es.EX (V/m) @ t=0.28
0.5326033233146195
% es.EY (V/m) @ t=0.28
0.15126630205408098
% es.EZ (V/m) @ t=0.28
0.5411473958875259
% es.tEX (V/m) @ t=0.28
0.5326033233146035
% es.tEY (V/m) @ t=0.28
0
% es.tEZ (V/m) @ t=0.28
0.541147395887517
% es.Ex (V/m) @ t=0.28
0.5326033233146195
% es.Ey (V/m) @ t=0.28
0.15126630205408098
% es.Ez (V/m) @ t=0.28
0.5411473958875259
% es.tEx (V/m) @ t=0.28
0.5326033233146035
% es.tEy (V/m) @ t=0.28
0
% es.tEz (V/m) @ t=0.28
0.541147395887517
% V (V) @ t=0.28
0.00735532112875722
% es.normE (V/m) @ t=0.3
0.7921657104918112
% es.EX (V/m) @ t=0.3
0.5378914227669238
% es.EY (V/m) @ t=0.3
0.15276844963926628
% es.EZ (V/m) @ t=0.3
0.5465201945412934
% es.tEX (V/m) @ t=0.3
0.5378914227669185
% es.tEY (V/m) @ t=0.3
0
% es.tEZ (V/m) @ t=0.3
0.5465201945412836
% es.Ex (V/m) @ t=0.3
0.5378914227669238
% es.Ey (V/m) @ t=0.3
0.15276844963926628
% es.Ez (V/m) @ t=0.3
0.5465201945412934
% es.tEx (V/m) @ t=0.3
0.5378914227669185
% es.tEy (V/m) @ t=0.3
0
% es.tEz (V/m) @ t=0.3
0.5465201945412836
% V (V) @ t=0.3
0.0074283398980279185
% es.normE (V/m) @ t=0.32
0.7999536224753915
% es.EX (V/m) @ t=0.32
0.5431795222192193
% es.EY (V/m) @ t=0.32
0.15427059722443914
% es.EZ (V/m) @ t=0.32
0.5518929931950733
% es.tEX (V/m) @ t=0.32
0.5431795222192051
% es.tEY (V/m) @ t=0.32
0
% es.tEZ (V/m) @ t=0.32
0.5518929931950645
% es.Ex (V/m) @ t=0.32
0.5431795222192193
% es.Ey (V/m) @ t=0.32
0.15427059722443914
% es.Ez (V/m) @ t=0.32
0.5518929931950733
% es.tEx (V/m) @ t=0.32
0.5431795222192051
% es.tEy (V/m) @ t=0.32
0
% es.tEz (V/m) @ t=0.32
0.5518929931950645
% V (V) @ t=0.32
0.007501358667298619
% es.normE (V/m) @ t=0.34
0.8077415344591298
% es.EX (V/m) @ t=0.34
0.5484676216714703
% es.EY (V/m) @ t=0.34
0.15577274480966707
% es.EZ (V/m) @ t=0.34
0.557265791848855
% es.tEX (V/m) @ t=0.34
0.5484676216714632
% es.tEY (V/m) @ t=0.34
0
% es.tEZ (V/m) @ t=0.34
0.5572657918488453
% es.Ex (V/m) @ t=0.34
0.5484676216714703
% es.Ey (V/m) @ t=0.34
0.15577274480966707
% es.Ez (V/m) @ t=0.34
0.557265791848855
% es.tEx (V/m) @ t=0.34
0.5484676216714632
% es.tEy (V/m) @ t=0.34
0
% es.tEz (V/m) @ t=0.34
0.5572657918488453
% V (V) @ t=0.34
0.0075743774365693165
% es.normE (V/m) @ t=0.36
0.8155294464430247
% es.EX (V/m) @ t=0.36
0.5537557211237534
% es.EY (V/m) @ t=0.36
0.1572748923948133
% es.EZ (V/m) @ t=0.36
0.5626385905026137
% es.tEX (V/m) @ t=0.36
0.5537557211237356
% es.tEY (V/m) @ t=0.36
0
% es.tEZ (V/m) @ t=0.36
0.5626385905026119
% es.Ex (V/m) @ t=0.36
0.5537557211237534
% es.Ey (V/m) @ t=0.36
0.1572748923948133
% es.Ez (V/m) @ t=0.36
0.5626385905026137
% es.tEx (V/m) @ t=0.36
0.5537557211237356
% es.tEy (V/m) @ t=0.36
0
% es.tEz (V/m) @ t=0.36
0.5626385905026119
% V (V) @ t=0.36
0.007647396205840016
% es.normE (V/m) @ t=0.38
0.8233173584270959
% es.EX (V/m) @ t=0.38
0.5590438205760044
% es.EY (V/m) @ t=0.38
0.15877703998000925
% es.EZ (V/m) @ t=0.38
0.568011389156398
% es.tEX (V/m) @ t=0.38
0.559043820576008
% es.tEY (V/m) @ t=0.38
0
% es.tEZ (V/m) @ t=0.38
0.5680113891563892
% es.Ex (V/m) @ t=0.38
0.5590438205760044
% es.Ey (V/m) @ t=0.38
0.15877703998000925
% es.Ez (V/m) @ t=0.38
0.568011389156398
% es.tEx (V/m) @ t=0.38
0.559043820576008
% es.tEy (V/m) @ t=0.38
0
% es.tEz (V/m) @ t=0.38
0.5680113891563892
% V (V) @ t=0.38
0.0077204149751107145
% es.normE (V/m) @ t=0.4
0.8311052704113362
% es.EX (V/m) @ t=0.4
0.5643319200282946
% es.EY (V/m) @ t=0.4
0.16027918756519277
% es.EZ (V/m) @ t=0.4
0.5733841878101602
% es.tEX (V/m) @ t=0.4
0.5643319200282946
% es.tEY (V/m) @ t=0.4
0
% es.tEZ (V/m) @ t=0.4
0.5733841878101487
% es.Ex (V/m) @ t=0.4
0.5643319200282946
% es.Ey (V/m) @ t=0.4
0.16027918756519277
% es.Ez (V/m) @ t=0.4
0.5733841878101602
% es.tEx (V/m) @ t=0.4
0.5643319200282946
% es.tEy (V/m) @ t=0.4
0
% es.tEz (V/m) @ t=0.4
0.5733841878101487
% V (V) @ t=0.4
0.007793433744381415
% es.normE (V/m) @ t=0.42
0.8388931823957269
% es.EX (V/m) @ t=0.42
0.5696200194805492
% es.EY (V/m) @ t=0.42
0.16178133515037807
% es.EZ (V/m) @ t=0.42
0.5787569864639428
% es.tEX (V/m) @ t=0.42
0.5696200194805527
% es.tEY (V/m) @ t=0.42
0
% es.tEZ (V/m) @ t=0.42
0.578756986463933
% es.Ex (V/m) @ t=0.42
0.5696200194805492
% es.Ey (V/m) @ t=0.42
0.16178133515037807
% es.Ez (V/m) @ t=0.42
0.5787569864639428
% es.tEx (V/m) @ t=0.42
0.5696200194805527
% es.tEy (V/m) @ t=0.42
0
% es.tEz (V/m) @ t=0.42
0.578756986463933
% V (V) @ t=0.42
0.007866452513652115
% es.normE (V/m) @ t=0.44
0.8466810943802743
% es.EX (V/m) @ t=0.44
0.5749081189328287
% es.EY (V/m) @ t=0.44
0.16328348273555982
% es.EZ (V/m) @ t=0.44
0.5841297851177192
% es.tEX (V/m) @ t=0.44
0.5749081189328109
% es.tEY (V/m) @ t=0.44
0
% es.tEZ (V/m) @ t=0.44
0.5841297851177103
% es.Ex (V/m) @ t=0.44
0.5749081189328287
% es.Ey (V/m) @ t=0.44
0.16328348273555982
% es.Ez (V/m) @ t=0.44
0.5841297851177192
% es.tEx (V/m) @ t=0.44
0.5749081189328109
% es.tEy (V/m) @ t=0.44
0
% es.tEz (V/m) @ t=0.44
0.5841297851177103
% V (V) @ t=0.44
0.007939471282922812
% es.normE (V/m) @ t=0.46
0.8544690063649703
% es.EX (V/m) @ t=0.46
0.5801962183850904
% es.EY (V/m) @ t=0.46
0.16478563032077354
% es.EZ (V/m) @ t=0.46
0.5895025837714929
% es.tEX (V/m) @ t=0.46
0.5801962183850975
% es.tEY (V/m) @ t=0.46
0
% es.tEZ (V/m) @ t=0.46
0.589502583771484
% es.Ex (V/m) @ t=0.46
0.5801962183850904
% es.Ey (V/m) @ t=0.46
0.16478563032077354
% es.Ez (V/m) @ t=0.46
0.5895025837714929
% es.tEx (V/m) @ t=0.46
0.5801962183850975
% es.tEy (V/m) @ t=0.46
0
% es.tEz (V/m) @ t=0.46
0.589502583771484
% V (V) @ t=0.46
0.008012490052193514
% es.normE (V/m) @ t=0.48
0.8622569183498359
% es.EX (V/m) @ t=0.48
0.585484317837409
% es.EY (V/m) @ t=0.48
0.16628777790594285
% es.EZ (V/m) @ t=0.48
0.5948753824252684
% es.tEX (V/m) @ t=0.48
0.5854843178373983
% es.tEY (V/m) @ t=0.48
0
% es.tEZ (V/m) @ t=0.48
0.5948753824252648
% es.Ex (V/m) @ t=0.48
0.585484317837409
% es.Ey (V/m) @ t=0.48
0.16628777790594285
% es.Ez (V/m) @ t=0.48
0.5948753824252684
% es.tEx (V/m) @ t=0.48
0.5854843178373983
% es.tEy (V/m) @ t=0.48
0
% es.tEz (V/m) @ t=0.48
0.5948753824252648
% V (V) @ t=0.48
0.00808550882146421
% es.normE (V/m) @ t=0.5
0.8700448303347956
% es.EX (V/m) @ t=0.5
0.5907724172896529
% es.EY (V/m) @ t=0.5
0.1677899254911388
% es.EZ (V/m) @ t=0.5
0.6002481810790368
% es.tEX (V/m) @ t=0.5
0.5907724172896422
% es.tEY (V/m) @ t=0.5
0
% es.tEZ (V/m) @ t=0.5
0.6002481810790314
% es.Ex (V/m) @ t=0.5
0.5907724172896529
% es.Ey (V/m) @ t=0.5
0.1677899254911388
% es.Ez (V/m) @ t=0.5
0.6002481810790368
% es.tEx (V/m) @ t=0.5
0.5907724172896422
% es.tEy (V/m) @ t=0.5
0
% es.tEz (V/m) @ t=0.5
0.6002481810790314
% V (V) @ t=0.5
0.008158527590734911
% es.normE (V/m) @ t=0.52
0.877832742319943
% es.EX (V/m) @ t=0.52
0.5960605167419537
% es.EY (V/m) @ t=0.52
0.16929207307630456
% es.EZ (V/m) @ t=0.52
0.6056209797328354
% es.tEX (V/m) @ t=0.52
0.596060516741943
% es.tEY (V/m) @ t=0.52
0
% es.tEZ (V/m) @ t=0.52
0.6056209797328265
% es.Ex (V/m) @ t=0.52
0.5960605167419537
% es.Ey (V/m) @ t=0.52
0.16929207307630456
% es.Ez (V/m) @ t=0.52
0.6056209797328354
% es.tEx (V/m) @ t=0.52
0.596060516741943
% es.tEy (V/m) @ t=0.52
0
% es.tEz (V/m) @ t=0.52
0.6056209797328265
% V (V) @ t=0.52
0.00823154636000561
% es.normE (V/m) @ t=0.54
0.8856206543051778
% es.EX (V/m) @ t=0.54
0.6013486161941977
% es.EY (V/m) @ t=0.54
0.17079422066153072
% es.EZ (V/m) @ t=0.54
0.6109937783866028
% es.tEX (V/m) @ t=0.54
0.6013486161942012
% es.tEY (V/m) @ t=0.54
0
% es.tEZ (V/m) @ t=0.54
0.6109937783865931
% es.Ex (V/m) @ t=0.54
0.6013486161941977
% es.Ey (V/m) @ t=0.54
0.17079422066153072
% es.Ez (V/m) @ t=0.54
0.6109937783866028
% es.tEx (V/m) @ t=0.54
0.6013486161942012
% es.tEy (V/m) @ t=0.54
0
% es.tEz (V/m) @ t=0.54
0.6109937783865931
% V (V) @ t=0.54
0.00830456512927631
% es.normE (V/m) @ t=0.56
0.8939304517314413
% es.EX (V/m) @ t=0.56
0.606991133829883
% es.EY (V/m) @ t=0.56
0.17239632485781264
% es.EZ (V/m) @ t=0.56
0.6167269299404259
% es.tEX (V/m) @ t=0.56
0.6069911338298652
% es.tEY (V/m) @ t=0.56
0
% es.tEZ (V/m) @ t=0.56
0.616726929940409
% es.Ex (V/m) @ t=0.56
0.606991133829883
% es.Ey (V/m) @ t=0.56
0.17239632485781264
% es.Ez (V/m) @ t=0.56
0.6167269299404259
% es.tEx (V/m) @ t=0.56
0.6069911338298652
% es.tEy (V/m) @ t=0.56
0
% es.tEz (V/m) @ t=0.56
0.616726929940409
% V (V) @ t=0.56
0.00838250391408274
% es.normE (V/m) @ t=0.58
0.9026317304902702
% es.EX (V/m) @ t=0.58
0.6128995107734418
% es.EY (V/m) @ t=0.58
0.17407340939286797
% es.EZ (V/m) @ t=0.58
0.6227303926043755
% es.tEX (V/m) @ t=0.58
0.6128995107734312
% es.tEY (V/m) @ t=0.58
0
% es.tEZ (V/m) @ t=0.58
0.6227303926043675
% es.Ex (V/m) @ t=0.58
0.6128995107734418
% es.Ey (V/m) @ t=0.58
0.17407340939286797
% es.Ez (V/m) @ t=0.58
0.6227303926043755
% es.tEx (V/m) @ t=0.58
0.6128995107734312
% es.tEy (V/m) @ t=0.58
0
% es.tEz (V/m) @ t=0.58
0.6227303926043675
% V (V) @ t=0.58
0.008464133344534386
% es.normE (V/m) @ t=0.6
0.9113330092512261
% es.EX (V/m) @ t=0.6
0.6188078877169971
% es.EY (V/m) @ t=0.6
0.17575049392793218
% es.EZ (V/m) @ t=0.6
0.6287338552683277
% es.tEX (V/m) @ t=0.6
0.6188078877169971
% es.tEY (V/m) @ t=0.6
0
% es.tEZ (V/m) @ t=0.6
0.6287338552683224
% es.Ex (V/m) @ t=0.6
0.6188078877169971
% es.Ey (V/m) @ t=0.6
0.17575049392793218
% es.Ez (V/m) @ t=0.6
0.6287338552683277
% es.tEx (V/m) @ t=0.6
0.6188078877169971
% es.tEy (V/m) @ t=0.6
0
% es.tEz (V/m) @ t=0.6
0.6287338552683224
% V (V) @ t=0.6
0.008545762774986032
% es.normE (V/m) @ t=0.62
0.9200342880142502
% es.EX (V/m) @ t=0.62
0.6247162646605346
% es.EY (V/m) @ t=0.62
0.17742757846304258
% es.EZ (V/m) @ t=0.62
0.6347373179322808
% es.tEX (V/m) @ t=0.62
0.6247162646605346
% es.tEY (V/m) @ t=0.62
0
% es.tEZ (V/m) @ t=0.62
0.6347373179322631
% es.Ex (V/m) @ t=0.62
0.6247162646605346
% es.Ey (V/m) @ t=0.62
0.17742757846304258
% es.Ez (V/m) @ t=0.62
0.6347373179322808
% es.tEx (V/m) @ t=0.62
0.6247162646605346
% es.tEy (V/m) @ t=0.62
0
% es.tEz (V/m) @ t=0.62
0.6347373179322631
% V (V) @ t=0.62
0.008627392205437678
% es.normE (V/m) @ t=0.64
0.9287355667792889
% es.EX (V/m) @ t=0.64
0.6306246416040864
% es.EY (V/m) @ t=0.64
0.17910466299812988
% es.EZ (V/m) @ t=0.64
0.6407407805962357
% es.tEX (V/m) @ t=0.64
0.6306246416040864
% es.tEY (V/m) @ t=0.64
0
% es.tEZ (V/m) @ t=0.64
0.6407407805962322
% es.Ex (V/m) @ t=0.64
0.6306246416040864
% es.Ey (V/m) @ t=0.64
0.17910466299812988
% es.Ez (V/m) @ t=0.64
0.6407407805962357
% es.tEx (V/m) @ t=0.64
0.6306246416040864
% es.tEy (V/m) @ t=0.64
0
% es.tEz (V/m) @ t=0.64
0.6407407805962322
% V (V) @ t=0.64
0.008709021635889325
% es.normE (V/m) @ t=0.66
0.9374368455463078
% es.EX (V/m) @ t=0.66
0.636533018547695
% es.EY (V/m) @ t=0.66
0.180781747533187
% es.EZ (V/m) @ t=0.66
0.6467442432601862
% es.tEX (V/m) @ t=0.66
0.6365330185476807
% es.tEY (V/m) @ t=0.66
0
% es.tEZ (V/m) @ t=0.66
0.6467442432601729
% es.Ex (V/m) @ t=0.66
0.636533018547695
% es.Ey (V/m) @ t=0.66
0.180781747533187
% es.Ez (V/m) @ t=0.66
0.6467442432601862
% es.tEx (V/m) @ t=0.66
0.6365330185476807
% es.tEy (V/m) @ t=0.66
0
% es.tEz (V/m) @ t=0.66
0.6467442432601729
% V (V) @ t=0.66
0.008790651066340971
% es.normE (V/m) @ t=0.68
0.9461381243151736
% es.EX (V/m) @ t=0.68
0.6424413954912147
% es.EY (V/m) @ t=0.68
0.18245883206827962
% es.EZ (V/m) @ t=0.68
0.6527477059241473
% es.tEX (V/m) @ t=0.68
0.642441395491204
% es.tEY (V/m) @ t=0.68
0
% es.tEZ (V/m) @ t=0.68
0.6527477059241349
% es.Ex (V/m) @ t=0.68
0.6424413954912147
% es.Ey (V/m) @ t=0.68
0.18245883206827962
% es.Ez (V/m) @ t=0.68
0.6527477059241473
% es.tEx (V/m) @ t=0.68
0.642441395491204
% es.tEy (V/m) @ t=0.68
0
% es.tEz (V/m) @ t=0.68
0.6527477059241349
% V (V) @ t=0.68
0.008872280496792617
% es.normE (V/m) @ t=0.7
0.9548394030859095
% es.EX (V/m) @ t=0.7
0.6483497724347771
% es.EY (V/m) @ t=0.7
0.1841359166033545
% es.EZ (V/m) @ t=0.7
0.6587511685881022
% es.tEX (V/m) @ t=0.7
0.64834977243477
% es.tEY (V/m) @ t=0.7
0
% es.tEZ (V/m) @ t=0.7
0.6587511685880898
% es.Ex (V/m) @ t=0.7
0.6483497724347771
% es.Ey (V/m) @ t=0.7
0.1841359166033545
% es.Ez (V/m) @ t=0.7
0.6587511685881022
% es.tEx (V/m) @ t=0.7
0.64834977243477
% es.tEy (V/m) @ t=0.7
0
% es.tEz (V/m) @ t=0.7
0.6587511685880898
% V (V) @ t=0.7
0.008953909927244263
% es.normE (V/m) @ t=0.72
0.9635406818584386
% es.EX (V/m) @ t=0.72
0.6542581493783288
% es.EY (V/m) @ t=0.72
0.18581300113842758
% es.EZ (V/m) @ t=0.72
0.6647546312520571
% es.tEX (V/m) @ t=0.72
0.6542581493783217
% es.tEY (V/m) @ t=0.72
0
% es.tEZ (V/m) @ t=0.72
0.6647546312520518
% es.Ex (V/m) @ t=0.72
0.6542581493783288
% es.Ey (V/m) @ t=0.72
0.18581300113842758
% es.Ez (V/m) @ t=0.72
0.6647546312520571
% es.tEx (V/m) @ t=0.72
0.6542581493783217
% es.tEy (V/m) @ t=0.72
0
% es.tEz (V/m) @ t=0.72
0.6647546312520518
% V (V) @ t=0.72
0.00903553935769591
% es.normE (V/m) @ t=0.74
0.9722419606327176
% es.EX (V/m) @ t=0.74
0.6601665263218912
% es.EY (V/m) @ t=0.74
0.18749008567350067
% es.EZ (V/m) @ t=0.74
0.670758093916012
% es.tEX (V/m) @ t=0.74
0.6601665263218734
% es.tEY (V/m) @ t=0.74
0
% es.tEZ (V/m) @ t=0.74
0.6707580939159996
% es.Ex (V/m) @ t=0.74
0.6601665263218912
% es.Ey (V/m) @ t=0.74
0.18749008567350067
% es.Ez (V/m) @ t=0.74
0.670758093916012
% es.tEx (V/m) @ t=0.74
0.6601665263218734
% es.tEy (V/m) @ t=0.74
0
% es.tEz (V/m) @ t=0.74
0.6707580939159996
% V (V) @ t=0.74
0.009117168788147556
% es.normE (V/m) @ t=0.76
0.98094323940867
% es.EX (V/m) @ t=0.76
0.6660749032654074
% es.EY (V/m) @ t=0.76
0.1891671702085862
% es.EZ (V/m) @ t=0.76
0.6767615565799634
% es.tEX (V/m) @ t=0.76
0.6660749032653968
% es.tEY (V/m) @ t=0.76
0
% es.tEZ (V/m) @ t=0.76
0.6767615565799545
% es.Ex (V/m) @ t=0.76
0.6660749032654074
% es.Ey (V/m) @ t=0.76
0.1891671702085862
% es.Ez (V/m) @ t=0.76
0.6767615565799634
% es.tEx (V/m) @ t=0.76
0.6660749032653968
% es.tEy (V/m) @ t=0.76
0
% es.tEz (V/m) @ t=0.76
0.6767615565799545
% V (V) @ t=0.76
0.009198798218599202
% es.normE (V/m) @ t=0.78
0.9896445181863228
% es.EX (V/m) @ t=0.78
0.6719832802089805
% es.EY (V/m) @ t=0.78
0.1908442547436522
% es.EZ (V/m) @ t=0.78
0.6827650192439325
% es.tEX (V/m) @ t=0.78
0.6719832802089911
% es.tEY (V/m) @ t=0.78
0
% es.tEZ (V/m) @ t=0.78
0.6827650192439236
% es.Ex (V/m) @ t=0.78
0.6719832802089805
% es.Ey (V/m) @ t=0.78
0.1908442547436522
% es.Ez (V/m) @ t=0.78
0.6827650192439325
% es.tEx (V/m) @ t=0.78
0.6719832802089911
% es.tEy (V/m) @ t=0.78
0
% es.tEz (V/m) @ t=0.78
0.6827650192439236
% V (V) @ t=0.78
0.009280427649050849
% es.normE (V/m) @ t=0.8
0.9983457969655689
% es.EX (V/m) @ t=0.8
0.6778916571525393
% es.EY (V/m) @ t=0.8
0.1925213392787306
% es.EZ (V/m) @ t=0.8
0.6887684819078848
% es.tEX (V/m) @ t=0.8
0.6778916571525571
% es.tEY (V/m) @ t=0.8
0
% es.tEZ (V/m) @ t=0.8
0.6887684819078785
% es.Ex (V/m) @ t=0.8
0.6778916571525393
% es.Ey (V/m) @ t=0.8
0.1925213392787306
% es.Ez (V/m) @ t=0.8
0.6887684819078848
% es.tEx (V/m) @ t=0.8
0.6778916571525571
% es.tEy (V/m) @ t=0.8
0
% es.tEz (V/m) @ t=0.8
0.6887684819078785
% V (V) @ t=0.8
0.009362057079502495
% es.normE (V/m) @ t=0.82
1.0070470757464103
% es.EX (V/m) @ t=0.82
0.683800034096123
% es.EY (V/m) @ t=0.82
0.19419842381382857
% es.EZ (V/m) @ t=0.82
0.6947719445718405
% es.tEX (V/m) @ t=0.82
0.6838000340961088
% es.tEY (V/m) @ t=0.82
0
% es.tEZ (V/m) @ t=0.82
0.6947719445718263
% es.Ex (V/m) @ t=0.82
0.683800034096123
% es.Ey (V/m) @ t=0.82
0.19419842381382857
% es.Ez (V/m) @ t=0.82
0.6947719445718405
% es.tEx (V/m) @ t=0.82
0.6838000340961088
% es.tEy (V/m) @ t=0.82
0
% es.tEz (V/m) @ t=0.82
0.6947719445718263
% V (V) @ t=0.82
0.009443686509954141
% es.normE (V/m) @ t=0.84
1.0166414227704634
% es.EX (V/m) @ t=0.84
0.690314759984112
% es.EY (V/m) @ t=0.84
0.19604801257750637
% es.EZ (V/m) @ t=0.84
0.7013914581923304
% es.tEX (V/m) @ t=0.84
0.6903147599840906
% es.tEY (V/m) @ t=0.84
0
% es.tEZ (V/m) @ t=0.84
0.7013914581923189
% es.Ex (V/m) @ t=0.84
0.690314759984112
% es.Ey (V/m) @ t=0.84
0.19604801257750637
% es.Ez (V/m) @ t=0.84
0.7013914581923304
% es.tEx (V/m) @ t=0.84
0.6903147599840906
% es.tEy (V/m) @ t=0.84
0
% es.tEz (V/m) @ t=0.84
0.7013914581923189
% V (V) @ t=0.84
0.009533681397503895
% es.normE (V/m) @ t=0.86
1.0263786231355998
% es.EX (V/m) @ t=0.86
0.6969264761894962
% es.EY (V/m) @ t=0.86
0.19792519475913828
% es.EZ (V/m) @ t=0.86
0.708109514043838
% es.tEX (V/m) @ t=0.86
0.6969264761895175
% es.tEY (V/m) @ t=0.86
0
% es.tEZ (V/m) @ t=0.86
0.7081095140438265
% es.Ex (V/m) @ t=0.86
0.6969264761894962
% es.Ey (V/m) @ t=0.86
0.19792519475913828
% es.Ez (V/m) @ t=0.86
0.708109514043838
% es.tEx (V/m) @ t=0.86
0.6969264761895175
% es.tEy (V/m) @ t=0.86
0
% es.tEz (V/m) @ t=0.86
0.7081095140438265
% V (V) @ t=0.86
0.009625014406190117
% es.normE (V/m) @ t=0.88
1.036115823501297
% es.EX (V/m) @ t=0.88
0.7035381923948272
% es.EY (V/m) @ t=0.88
0.19980237694081104
% es.EZ (V/m) @ t=0.88
0.7148275698953626
% es.tEX (V/m) @ t=0.88
0.7035381923948449
% es.tEY (V/m) @ t=0.88
0
% es.tEZ (V/m) @ t=0.88
0.7148275698953483
% es.Ex (V/m) @ t=0.88
0.7035381923948272
% es.Ey (V/m) @ t=0.88
0.19980237694081104
% es.Ez (V/m) @ t=0.88
0.7148275698953626
% es.tEx (V/m) @ t=0.88
0.7035381923948449
% es.tEy (V/m) @ t=0.88
0
% es.tEz (V/m) @ t=0.88
0.7148275698953483
% V (V) @ t=0.88
0.00971634741487634
% es.normE (V/m) @ t=0.9
1.0458530238675807
% es.EX (V/m) @ t=0.9
0.7101499086001972
% es.EY (V/m) @ t=0.9
0.20167955912249624
% es.EZ (V/m) @ t=0.9
0.7215456257468809
% es.tEX (V/m) @ t=0.9
0.7101499086001724
% es.tEY (V/m) @ t=0.9
0
% es.tEZ (V/m) @ t=0.9
0.7215456257468702
% es.Ex (V/m) @ t=0.9
0.7101499086001972
% es.Ey (V/m) @ t=0.9
0.20167955912249624
% es.Ez (V/m) @ t=0.9
0.7215456257468809
% es.tEx (V/m) @ t=0.9
0.7101499086001724
% es.tEy (V/m) @ t=0.9
0
% es.tEz (V/m) @ t=0.9
0.7215456257468702
% V (V) @ t=0.9
0.009807680423562563
% es.normE (V/m) @ t=0.92
1.055590224234399
% es.EX (V/m) @ t=0.92
0.7167616248055495
% es.EY (V/m) @ t=0.92
0.2035567413041779
% es.EZ (V/m) @ t=0.92
0.7282636815983983
% es.tEX (V/m) @ t=0.92
0.7167616248055566
% es.tEY (V/m) @ t=0.92
0
% es.tEZ (V/m) @ t=0.92
0.728263681598385
% es.Ex (V/m) @ t=0.92
0.7167616248055495
% es.Ey (V/m) @ t=0.92
0.2035567413041779
% es.Ez (V/m) @ t=0.92
0.7282636815983983
% es.tEx (V/m) @ t=0.92
0.7167616248055566
% es.tEy (V/m) @ t=0.92
0
% es.tEz (V/m) @ t=0.92
0.728263681598385
% V (V) @ t=0.92
0.009899013432248785
% es.normE (V/m) @ t=0.94
1.0653274246017435
% es.EX (V/m) @ t=0.94
0.7233733410109231
% es.EY (V/m) @ t=0.94
0.20543392348582046
% es.EZ (V/m) @ t=0.94
0.7349817374499095
% es.tEX (V/m) @ t=0.94
0.7233733410109124
% es.tEY (V/m) @ t=0.94
0
% es.tEZ (V/m) @ t=0.94
0.7349817374498997
% es.Ex (V/m) @ t=0.94
0.7233733410109231
% es.Ey (V/m) @ t=0.94
0.20543392348582046
% es.Ez (V/m) @ t=0.94
0.7349817374499095
% es.tEx (V/m) @ t=0.94
0.7233733410109124
% es.tEy (V/m) @ t=0.94
0
% es.tEz (V/m) @ t=0.94
0.7349817374498997
% V (V) @ t=0.94
0.009990346440935008
% es.normE (V/m) @ t=0.96
1.0750646249695914
% es.EX (V/m) @ t=0.96
0.7299850572162505
% es.EY (V/m) @ t=0.96
0.20731110566751454
% es.EZ (V/m) @ t=0.96
0.7416997933014198
% es.tEX (V/m) @ t=0.96
0.7299850572162541
% es.tEY (V/m) @ t=0.96
0
% es.tEZ (V/m) @ t=0.96
0.7416997933014144
% es.Ex (V/m) @ t=0.96
0.7299850572162505
% es.Ey (V/m) @ t=0.96
0.20731110566751454
% es.Ez (V/m) @ t=0.96
0.7416997933014198
% es.tEx (V/m) @ t=0.96
0.7299850572162541
% es.tEy (V/m) @ t=0.96
0
% es.tEz (V/m) @ t=0.96
0.7416997933014144
% V (V) @ t=0.96
0.010081679449621229
% es.normE (V/m) @ t=0.98
1.0848018253380065
% es.EX (V/m) @ t=0.98
0.7365967734216596
% es.EY (V/m) @ t=0.98
0.20918828784917487
% es.EZ (V/m) @ t=0.98
0.7484178491529594
% es.tEX (V/m) @ t=0.98
0.7365967734216525
% es.tEY (V/m) @ t=0.98
0
% es.tEZ (V/m) @ t=0.98
0.7484178491529505
% es.Ex (V/m) @ t=0.98
0.7365967734216596
% es.Ey (V/m) @ t=0.98
0.20918828784917487
% es.Ez (V/m) @ t=0.98
0.7484178491529594
% es.tEx (V/m) @ t=0.98
0.7365967734216525
% es.tEy (V/m) @ t=0.98
0
% es.tEz (V/m) @ t=0.98
0.7484178491529505
% V (V) @ t=0.98
0.010173012458307453
% es.normE (V/m) @ t=1
1.0945390257068515
% es.EX (V/m) @ t=1
0.7432084896270013
% es.EY (V/m) @ t=1
0.2110654700308494
% es.EZ (V/m) @ t=1
0.7551359050044715
% es.tEX (V/m) @ t=1
0.7432084896269799
% es.tEY (V/m) @ t=1
0
% es.tEZ (V/m) @ t=1
0.7551359050044653
% es.Ex (V/m) @ t=1
0.7432084896270013
% es.Ey (V/m) @ t=1
0.2110654700308494
% es.Ez (V/m) @ t=1
0.7551359050044715
% es.tEx (V/m) @ t=1
0.7432084896269799
% es.tEy (V/m) @ t=1
0
% es.tEz (V/m) @ t=1
0.7551359050044653
% V (V) @ t=1
0.010264345466993674
% es.normE (V/m) @ t=1.02
1.1042762260761783
% es.EX (V/m) @ t=1.02
0.7498202058323713
% es.EY (V/m) @ t=1.02
0.21294265221251152
% es.EZ (V/m) @ t=1.02
0.7618539608559773
% es.tEX (V/m) @ t=1.02
0.7498202058323642
% es.tEY (V/m) @ t=1.02
0
% es.tEZ (V/m) @ t=1.02
0.7618539608559658
% es.Ex (V/m) @ t=1.02
0.7498202058323713
% es.Ey (V/m) @ t=1.02
0.21294265221251152
% es.Ez (V/m) @ t=1.02
0.7618539608559773
% es.tEx (V/m) @ t=1.02
0.7498202058323642
% es.tEy (V/m) @ t=1.02
0
% es.tEz (V/m) @ t=1.02
0.7618539608559658
% V (V) @ t=1.02
0.010355678475679897
% es.normE (V/m) @ t=1.04
1.1140134264459793
% es.EX (V/m) @ t=1.04
0.7564319220377449
% es.EY (V/m) @ t=1.04
0.21481983439413987
% es.EZ (V/m) @ t=1.04
0.7685720167075036
% es.tEX (V/m) @ t=1.04
0.75643192203772
% es.tEY (V/m) @ t=1.04
0
% es.tEZ (V/m) @ t=1.04
0.7685720167074876
% es.Ex (V/m) @ t=1.04
0.7564319220377449
% es.Ey (V/m) @ t=1.04
0.21481983439413987