% Model:              1 neuron.mph
% Version:            COMSOL 6.0.0.405
% Date:               Mar 16 2023, 09:52
% Dimension:          0
% Nodes:              14017
% Expressions:        14017
% Description:        Electric field norm, Electric field, X component, Electric field, Y component, Electric field, Z component, Tangential electric field, X component, Tangential electric field, Y component, Tangential electric field, Z component, Electric field, x component, Electric field, y component, Electric field, z component, Tangential electric field, x component, Tangential electric field, y component, Tangential electric field, z component, Electric potential
% Length unit:        mm
% x
2
% y
12.2
% z
1
% es.normE (V/m) @ t=0
0.7705438300291696
% es.EX (V/m) @ t=0
-0.497606764476739
% es.EY (V/m) @ t=0
0.11055641139857142
% es.EZ (V/m) @ t=0
0.5675012876049168
% es.tEX (V/m) @ t=0
-0.49760676447673724
% es.tEY (V/m) @ t=0
0
% es.tEZ (V/m) @ t=0
0.5675012876049172
% es.Ex (V/m) @ t=0
-0.497606764476739
% es.Ey (V/m) @ t=0
0.11055641139857142
% es.Ez (V/m) @ t=0
0.5675012876049168
% es.tEx (V/m) @ t=0
-0.49760676447673724
% es.tEy (V/m) @ t=0
0
% es.tEz (V/m) @ t=0
0.5675012876049172
% V (V) @ t=0
0.00745735718651847
% es.normE (V/m) @ t=0.02
0.6655322581023435
% es.EX (V/m) @ t=0.02
-0.42979171365616264
% es.EY (V/m) @ t=0.02
0.09548951558008734
% es.EZ (V/m) @ t=0.02
0.49016084405653704
% es.tEX (V/m) @ t=0.02
-0.4297917136561613
% es.tEY (V/m) @ t=0.02
0
% es.tEZ (V/m) @ t=0.02
0.4901608440565428
% es.Ex (V/m) @ t=0.02
-0.42979171365616264
% es.Ey (V/m) @ t=0.02
0.09548951558008734
% es.Ez (V/m) @ t=0.02
0.49016084405653704
% es.tEx (V/m) @ t=0.02
-0.4297917136561613
% es.tEy (V/m) @ t=0.02
0
% es.tEz (V/m) @ t=0.02
0.4901608440565428
% V (V) @ t=0.02
0.006441050384901615
% es.normE (V/m) @ t=0.04
0.6716526510999037
% es.EX (V/m) @ t=0.04
-0.43374418032883555
% es.EY (V/m) @ t=0.04
0.09636765933327823
% es.EZ (V/m) @ t=0.04
0.494668480125835
% es.tEX (V/m) @ t=0.04
-0.433744180328834
% es.tEY (V/m) @ t=0.04
0
% es.tEZ (V/m) @ t=0.04
0.49466848012583853
% es.Ex (V/m) @ t=0.04
-0.43374418032883555
% es.Ey (V/m) @ t=0.04
0.09636765933327823
% es.Ez (V/m) @ t=0.04
0.494668480125835
% es.tEx (V/m) @ t=0.04
-0.433744180328834
% es.tEy (V/m) @ t=0.04
0
% es.tEz (V/m) @ t=0.04
0.49466848012583853
% V (V) @ t=0.04
0.0065002837583232375
% es.normE (V/m) @ t=0.06
0.6778283059697596
% es.EX (V/m) @ t=0.06
-0.43773233569428327
% es.EY (V/m) @ t=0.06
0.09725373506115798
% es.EZ (V/m) @ t=0.06
0.4992168142386788
% es.tEX (V/m) @ t=0.06
-0.4377323356942817
% es.tEY (V/m) @ t=0.06
0
% es.tEZ (V/m) @ t=0.06
0.4992168142386828
% es.Ex (V/m) @ t=0.06
-0.43773233569428327
% es.Ey (V/m) @ t=0.06
0.09725373506115798
% es.Ez (V/m) @ t=0.06
0.4992168142386788
% es.tEx (V/m) @ t=0.06
-0.4377323356942817
% es.tEy (V/m) @ t=0.06
0
% es.tEz (V/m) @ t=0.06
0.4992168142386828
% V (V) @ t=0.06
0.006560052351778339
% es.normE (V/m) @ t=0.08
0.6840981318372226
% es.EX (V/m) @ t=0.08
-0.44178130543789407
% es.EY (V/m) @ t=0.08
0.0981533221348414
% es.EZ (V/m) @ t=0.08
0.5038345048030748
% es.tEX (V/m) @ t=0.08
-0.4417813054378925
% es.tEY (V/m) @ t=0.08
0
% es.tEZ (V/m) @ t=0.08
0.5038345048030788
% es.Ex (V/m) @ t=0.08
-0.44178130543789407
% es.Ey (V/m) @ t=0.08
0.0981533221348414
% es.Ez (V/m) @ t=0.08
0.5038345048030748
% es.tEx (V/m) @ t=0.08
-0.4417813054378925
% es.tEy (V/m) @ t=0.08
0
% es.tEz (V/m) @ t=0.08
0.5038345048030788
% V (V) @ t=0.08
0.006620732338290828
% es.normE (V/m) @ t=0.1
0.6904335870705194
% es.EX (V/m) @ t=0.1
-0.4458726577533558
% es.EY (V/m) @ t=0.1
0.09906232549461819
% es.EZ (V/m) @ t=0.1
0.5085005310551889
% es.tEX (V/m) @ t=0.1
-0.4458726577533545
% es.tEY (V/m) @ t=0.1
0
% es.tEZ (V/m) @ t=0.1
0.5085005310551911
% es.Ex (V/m) @ t=0.1
-0.4458726577533558
% es.Ey (V/m) @ t=0.1
0.09906232549461819
% es.Ez (V/m) @ t=0.1
0.5085005310551889
% es.tEx (V/m) @ t=0.1
-0.4458726577533545
% es.tEy (V/m) @ t=0.1
0
% es.tEz (V/m) @ t=0.1
0.5085005310551911
% V (V) @ t=0.1
0.006682047490086764
% es.normE (V/m) @ t=0.12
0.6967690423038162
% es.EX (V/m) @ t=0.12
-0.44996401006881537
% es.EY (V/m) @ t=0.12
0.0999713288543958
% es.EZ (V/m) @ t=0.12
0.5131665573073034
% es.tEX (V/m) @ t=0.12
-0.44996401006881404
% es.tEY (V/m) @ t=0.12
0
% es.tEZ (V/m) @ t=0.12
0.5131665573073074
% es.Ex (V/m) @ t=0.12
-0.44996401006881537
% es.Ey (V/m) @ t=0.12
0.0999713288543958
% es.Ez (V/m) @ t=0.12
0.5131665573073034
% es.tEx (V/m) @ t=0.12
-0.44996401006881404
% es.tEy (V/m) @ t=0.12
0
% es.tEz (V/m) @ t=0.12
0.5131665573073074
% V (V) @ t=0.12
0.0067433626418827
% es.normE (V/m) @ t=0.14
0.7031682273629378
% es.EX (V/m) @ t=0.14
-0.45409651736657763
% es.EY (V/m) @ t=0.14
0.10088947436956158
% es.EZ (V/m) @ t=0.14
0.5178795214552157
% es.tEX (V/m) @ t=0.14
-0.4540965173665761
% es.tEY (V/m) @ t=0.14
0
% es.tEZ (V/m) @ t=0.14
0.5178795214552232
% es.Ex (V/m) @ t=0.14
-0.45409651736657763
% es.Ey (V/m) @ t=0.14
0.10088947436956158
% es.Ez (V/m) @ t=0.14
0.5178795214552157
% es.tEx (V/m) @ t=0.14
-0.4540965173665761
% es.tEy (V/m) @ t=0.14
0
% es.tEz (V/m) @ t=0.14
0.5178795214552232
% V (V) @ t=0.14
0.0068052943219198475
% es.normE (V/m) @ t=0.16
0.7098416443154311
% es.EX (V/m) @ t=0.16
-0.4584061161371449
% es.EY (V/m) @ t=0.16
0.10184695893120504
% es.EZ (V/m) @ t=0.16
0.5227944611753181
% es.tEX (V/m) @ t=0.16
-0.4584061161371433
% es.tEY (V/m) @ t=0.16
0
% es.tEZ (V/m) @ t=0.16
0.5227944611753252
% es.Ex (V/m) @ t=0.16
-0.4584061161371449
% es.Ey (V/m) @ t=0.16
0.10184695893120504
% es.Ez (V/m) @ t=0.16
0.5227944611753181
% es.tEx (V/m) @ t=0.16
-0.4584061161371433
% es.tEy (V/m) @ t=0.16
0
% es.tEz (V/m) @ t=0.16
0.5227944611753252
% V (V) @ t=0.16
0.0068698789467077455
% es.normE (V/m) @ t=0.18
0.7165150612679221
% es.EX (V/m) @ t=0.18
-0.462715714907705
% es.EY (V/m) @ t=0.18
0.1028044434928494
% es.EZ (V/m) @ t=0.18
0.5277094008954237
% es.tEX (V/m) @ t=0.18
-0.462715714907705
% es.tEY (V/m) @ t=0.18
0
% es.tEZ (V/m) @ t=0.18
0.5277094008954277
% es.Ex (V/m) @ t=0.18
-0.462715714907705
% es.Ey (V/m) @ t=0.18
0.1028044434928494
% es.Ez (V/m) @ t=0.18
0.5277094008954237
% es.tEx (V/m) @ t=0.18
-0.462715714907705
% es.tEy (V/m) @ t=0.18
0
% es.tEz (V/m) @ t=0.18
0.5277094008954277
% V (V) @ t=0.18
0.006934463571495647
% es.normE (V/m) @ t=0.2
0.7231884782204115
% es.EX (V/m) @ t=0.2
-0.4670253136782685
% es.EY (V/m) @ t=0.2
0.10376192805449908
% es.EZ (V/m) @ t=0.2
0.5326243406155227
% es.tEX (V/m) @ t=0.2
-0.46702531367826694
% es.tEY (V/m) @ t=0.2
0
% es.tEZ (V/m) @ t=0.2
0.5326243406155267
% es.Ex (V/m) @ t=0.2
-0.4670253136782685
% es.Ey (V/m) @ t=0.2
0.10376192805449908
% es.Ez (V/m) @ t=0.2
0.5326243406155227
% es.tEx (V/m) @ t=0.2
-0.46702531367826694
% es.tEy (V/m) @ t=0.2
0
% es.tEz (V/m) @ t=0.2
0.5326243406155267
% V (V) @ t=0.2
0.0069990481962835475
% es.normE (V/m) @ t=0.22
0.7298618951728959
% es.EX (V/m) @ t=0.22
-0.4713349124488322
% es.EY (V/m) @ t=0.22
0.10471941261614076
% es.EZ (V/m) @ t=0.22
0.5375392803356176
% es.tEX (V/m) @ t=0.22
-0.47133491244883086
% es.tEY (V/m) @ t=0.22
0
% es.tEZ (V/m) @ t=0.22
0.5375392803356287
% es.Ex (V/m) @ t=0.22
-0.4713349124488322
% es.Ey (V/m) @ t=0.22
0.10471941261614076
% es.Ez (V/m) @ t=0.22
0.5375392803356176
% es.tEx (V/m) @ t=0.22
-0.47133491244883086
% es.tEy (V/m) @ t=0.22
0
% es.tEz (V/m) @ t=0.22
0.5375392803356287
% V (V) @ t=0.22
0.007063632821071447
% es.normE (V/m) @ t=0.24
0.7365353121253879
% es.EX (V/m) @ t=0.24
-0.4756445112193928
% es.EY (V/m) @ t=0.24
0.10567689717778955
% es.EZ (V/m) @ t=0.24
0.5424542200557219
% es.tEX (V/m) @ t=0.24
-0.4756445112193928
% es.tEY (V/m) @ t=0.24
0
% es.tEZ (V/m) @ t=0.24
0.5424542200557276
% es.Ex (V/m) @ t=0.24
-0.4756445112193928
% es.Ey (V/m) @ t=0.24
0.10567689717778955
% es.Ez (V/m) @ t=0.24
0.5424542200557219
% es.tEx (V/m) @ t=0.24
-0.4756445112193928
% es.tEy (V/m) @ t=0.24
0
% es.tEz (V/m) @ t=0.24
0.5424542200557276
% V (V) @ t=0.24
0.007128217445859347
% es.normE (V/m) @ t=0.26
0.7432087290778796
% es.EX (V/m) @ t=0.26
-0.4799541099899596
% es.EY (V/m) @ t=0.26
0.10663438173943651
% es.EZ (V/m) @ t=0.26
0.5473691597758208
% es.tEX (V/m) @ t=0.26
-0.479954109989958
% es.tEY (V/m) @ t=0.26
0
% es.tEZ (V/m) @ t=0.26
0.5473691597758337
% es.Ex (V/m) @ t=0.26
-0.4799541099899596
% es.Ey (V/m) @ t=0.26
0.10663438173943651
% es.Ez (V/m) @ t=0.26
0.5473691597758208
% es.tEx (V/m) @ t=0.26
-0.479954109989958
% es.tEy (V/m) @ t=0.26
0
% es.tEz (V/m) @ t=0.26
0.5473691597758337
% V (V) @ t=0.26
0.007192802070647247
% es.normE (V/m) @ t=0.28
0.7501771397548562
% es.EX (V/m) @ t=0.28
-0.4844542272874035
% es.EY (V/m) @ t=0.28
0.10763422094020036
% es.EZ (V/m) @ t=0.28
0.5525013391237303
% es.tEX (V/m) @ t=0.28
-0.48445422728740173
% es.tEY (V/m) @ t=0.28
0
% es.tEZ (V/m) @ t=0.28
0.5525013391237303
% es.Ex (V/m) @ t=0.28
-0.4844542272874035
% es.Ey (V/m) @ t=0.28
0.10763422094020036
% es.Ez (V/m) @ t=0.28
0.5525013391237303
% es.tEx (V/m) @ t=0.28
-0.48445422728740173
% es.tEy (V/m) @ t=0.28
0
% es.tEz (V/m) @ t=0.28
0.5525013391237303
% V (V) @ t=0.28
0.007260246117991316
% es.normE (V/m) @ t=0.3
0.7576126069272948
% es.EX (V/m) @ t=0.3
-0.4892559880033187
% es.EY (V/m) @ t=0.3
0.1087011192262165
% es.EZ (V/m) @ t=0.3
0.5579774687689301
% es.tEX (V/m) @ t=0.3
-0.4892559880033187
% es.tEY (V/m) @ t=0.3
0
% es.tEZ (V/m) @ t=0.3
0.5579774687689376
% es.Ex (V/m) @ t=0.3
-0.4892559880033187
% es.Ey (V/m) @ t=0.3
0.1087011192262165
% es.Ez (V/m) @ t=0.3
0.5579774687689301
% es.tEx (V/m) @ t=0.3
-0.4892559880033187
% es.tEy (V/m) @ t=0.3
0
% es.tEz (V/m) @ t=0.3
0.5579774687689376
% V (V) @ t=0.3
0.007332217420552048
% es.normE (V/m) @ t=0.32
0.7650480740997416
% es.EX (V/m) @ t=0.32
-0.494057748719237
% es.EY (V/m) @ t=0.32
0.10976801751222187
% es.EZ (V/m) @ t=0.32
0.5634535984141276
% es.tEX (V/m) @ t=0.32
-0.49405774871923525
% es.tEY (V/m) @ t=0.32
0
% es.tEZ (V/m) @ t=0.32
0.5634535984141351
% es.Ex (V/m) @ t=0.32
-0.494057748719237
% es.Ey (V/m) @ t=0.32
0.10976801751222187
% es.Ez (V/m) @ t=0.32
0.5634535984141276
% es.tEx (V/m) @ t=0.32
-0.49405774871923525
% es.tEy (V/m) @ t=0.32
0
% es.tEz (V/m) @ t=0.32
0.5634535984141351
% V (V) @ t=0.32
0.007404188723112781
% es.normE (V/m) @ t=0.34
0.7724835412721913
% es.EX (V/m) @ t=0.34
-0.4988595094351489
% es.EY (V/m) @ t=0.34
0.11083491579823085
% es.EZ (V/m) @ t=0.34
0.5689297280593166
% es.tEX (V/m) @ t=0.34
-0.4988595094351489
% es.tEY (V/m) @ t=0.34
0
% es.tEZ (V/m) @ t=0.34
0.5689297280593277
% es.Ex (V/m) @ t=0.34
-0.4988595094351489
% es.Ey (V/m) @ t=0.34
0.11083491579823085
% es.Ez (V/m) @ t=0.34
0.5689297280593166
% es.tEx (V/m) @ t=0.34
-0.4988595094351489
% es.tEy (V/m) @ t=0.34
0
% es.tEz (V/m) @ t=0.34
0.5689297280593277
% V (V) @ t=0.34
0.007476160025673514
% es.normE (V/m) @ t=0.36
0.7799190084446728
% es.EX (V/m) @ t=0.36
-0.5036612701510697
% es.EY (V/m) @ t=0.36
0.11190181408424427
% es.EZ (V/m) @ t=0.36
0.5744058577045243
% es.tEX (V/m) @ t=0.36
-0.5036612701510679
% es.tEY (V/m) @ t=0.36
0
% es.tEZ (V/m) @ t=0.36
0.5744058577045283
% es.Ex (V/m) @ t=0.36
-0.5036612701510697
% es.Ey (V/m) @ t=0.36
0.11190181408424427
% es.Ez (V/m) @ t=0.36
0.5744058577045243
% es.tEx (V/m) @ t=0.36
-0.5036612701510679
% es.tEy (V/m) @ t=0.36
0
% es.tEz (V/m) @ t=0.36
0.5744058577045283
% V (V) @ t=0.36
0.007548131328234242
% es.normE (V/m) @ t=0.38
0.7873544756171493
% es.EX (V/m) @ t=0.38
-0.5084630308669846
% es.EY (V/m) @ t=0.38
0.11296871237025413
% es.EZ (V/m) @ t=0.38
0.5798819873497174
% es.tEX (V/m) @ t=0.38
-0.5084630308669829
% es.tEY (V/m) @ t=0.38
0
% es.tEZ (V/m) @ t=0.38
0.5798819873497214
% es.Ex (V/m) @ t=0.38
-0.5084630308669846
% es.Ey (V/m) @ t=0.38
0.11296871237025413
% es.Ez (V/m) @ t=0.38
0.5798819873497174
% es.tEx (V/m) @ t=0.38
-0.5084630308669829
% es.tEy (V/m) @ t=0.38
0
% es.tEz (V/m) @ t=0.38
0.5798819873497214
% V (V) @ t=0.38
0.007620102630794975
% es.normE (V/m) @ t=0.4
0.7947899427896465
% es.EX (V/m) @ t=0.4
-0.5132647915828996
% es.EY (V/m) @ t=0.4
0.11403561065627377
% es.EZ (V/m) @ t=0.4
0.5853581169949198
% es.tEX (V/m) @ t=0.4
-0.5132647915828996
% es.tEY (V/m) @ t=0.4
0
% es.tEZ (V/m) @ t=0.4
0.5853581169949256
% es.Ex (V/m) @ t=0.4
-0.5132647915828996
% es.Ey (V/m) @ t=0.4
0.11403561065627377
% es.Ez (V/m) @ t=0.4
0.5853581169949198
% es.tEx (V/m) @ t=0.4
-0.5132647915828996
% es.tEy (V/m) @ t=0.4
0
% es.tEz (V/m) @ t=0.4
0.5853581169949256
% V (V) @ t=0.4
0.007692073933355708
% es.normE (V/m) @ t=0.42
0.8022254099621406
% es.EX (V/m) @ t=0.42
-0.5180665522988166
% es.EY (V/m) @ t=0.42
0.1151025089422818
% es.EZ (V/m) @ t=0.42
0.5908342466401062
% es.tEX (V/m) @ t=0.42
-0.5180665522988148
% es.tEY (V/m) @ t=0.42
0
% es.tEZ (V/m) @ t=0.42
0.5908342466401191
% es.Ex (V/m) @ t=0.42
-0.5180665522988166
% es.Ey (V/m) @ t=0.42
0.1151025089422818
% es.Ez (V/m) @ t=0.42
0.5908342466401062
% es.tEx (V/m) @ t=0.42
-0.5180665522988148
% es.tEy (V/m) @ t=0.42
0
% es.tEz (V/m) @ t=0.42
0.5908342466401191
% V (V) @ t=0.42
0.007764045235916439
% es.normE (V/m) @ t=0.44
0.8096608771346546
% es.EX (V/m) @ t=0.44
-0.5228683130147334
% es.EY (V/m) @ t=0.44
0.1161694072282925
% es.EZ (V/m) @ t=0.44
0.596310376285305
% es.tEX (V/m) @ t=0.44
-0.5228683130147334
% es.tEY (V/m) @ t=0.44
0
% es.tEZ (V/m) @ t=0.44
0.596310376285309
% es.Ex (V/m) @ t=0.44
-0.5228683130147334
% es.Ey (V/m) @ t=0.44
0.1161694072282925
% es.Ez (V/m) @ t=0.44
0.596310376285305
% es.tEx (V/m) @ t=0.44
-0.5228683130147334
% es.tEy (V/m) @ t=0.44
0
% es.tEz (V/m) @ t=0.44
0.596310376285309
% V (V) @ t=0.44
0.007836016538477174
% es.normE (V/m) @ t=0.46
0.8170963443071744
% es.EX (V/m) @ t=0.46
-0.527670073730647
% es.EY (V/m) @ t=0.46
0.11723630551429887
% es.EZ (V/m) @ t=0.46
0.6017865059304999
% es.tEX (V/m) @ t=0.46
-0.527670073730647
% es.tEY (V/m) @ t=0.46
0
% es.tEZ (V/m) @ t=0.46
0.6017865059305021
% es.Ex (V/m) @ t=0.46
-0.527670073730647
% es.Ey (V/m) @ t=0.46
0.11723630551429887
% es.Ez (V/m) @ t=0.46
0.6017865059304999
% es.tEx (V/m) @ t=0.46
-0.527670073730647
% es.tEy (V/m) @ t=0.46
0
% es.tEz (V/m) @ t=0.46
0.6017865059305021
% V (V) @ t=0.46
0.007907987841037904
% es.normE (V/m) @ t=0.48
0.8245318114797087
% es.EX (V/m) @ t=0.48
-0.5324718344465653
% es.EY (V/m) @ t=0.48
0.11830320380030512
% es.EZ (V/m) @ t=0.48
0.6072626355757005
% es.tEX (V/m) @ t=0.48
-0.5324718344465635
% es.tEY (V/m) @ t=0.48
0
% es.tEZ (V/m) @ t=0.48
0.6072626355757098
% es.Ex (V/m) @ t=0.48
-0.5324718344465653
% es.Ey (V/m) @ t=0.48
0.11830320380030512
% es.Ez (V/m) @ t=0.48
0.6072626355757005
% es.tEx (V/m) @ t=0.48
-0.5324718344465635
% es.tEy (V/m) @ t=0.48
0
% es.tEz (V/m) @ t=0.48
0.6072626355757098
% V (V) @ t=0.48
0.007979959143598635
% es.normE (V/m) @ t=0.5
0.8319672786522505
% es.EX (V/m) @ t=0.5
-0.5372735951624821
% es.EY (V/m) @ t=0.5
0.11937010208631582
% es.EZ (V/m) @ t=0.5
0.612738765220898
% es.tEX (V/m) @ t=0.5
-0.5372735951624819
% es.tEY (V/m) @ t=0.5
0
% es.tEZ (V/m) @ t=0.5
0.6127387652209073
% es.Ex (V/m) @ t=0.5
-0.5372735951624821
% es.Ey (V/m) @ t=0.5
0.11937010208631582
% es.Ez (V/m) @ t=0.5
0.612738765220898
% es.tEx (V/m) @ t=0.5
-0.5372735951624819
% es.tEy (V/m) @ t=0.5
0
% es.tEz (V/m) @ t=0.5
0.6127387652209073
% V (V) @ t=0.5
0.008051930446159367
% es.normE (V/m) @ t=0.52
0.8394027458248048
% es.EX (V/m) @ t=0.52
-0.5420753558784008
% es.EY (V/m) @ t=0.52
0.12043700037232746
% es.EZ (V/m) @ t=0.52
0.6182148948660977
% es.tEX (V/m) @ t=0.52
-0.5420753558783973
% es.tEY (V/m) @ t=0.52
0
% es.tEZ (V/m) @ t=0.52
0.6182148948661004
% es.Ex (V/m) @ t=0.52
-0.5420753558784008
% es.Ey (V/m) @ t=0.52
0.12043700037232746
% es.Ez (V/m) @ t=0.52
0.6182148948660977
% es.tEx (V/m) @ t=0.52
-0.5420753558783973
% es.tEy (V/m) @ t=0.52
0
% es.tEz (V/m) @ t=0.52
0.6182148948661004
% V (V) @ t=0.52
0.008123901748720096
% es.normE (V/m) @ t=0.54
0.8468382129973601
% es.EX (V/m) @ t=0.54
-0.5468771165943125
% es.EY (V/m) @ t=0.54
0.12150389865833194
% es.EZ (V/m) @ t=0.54
0.6236910245112934
% es.tEX (V/m) @ t=0.54
-0.5468771165943123
% es.tEY (V/m) @ t=0.54
0
% es.tEZ (V/m) @ t=0.54
0.623691024511297
% es.Ex (V/m) @ t=0.54
-0.5468771165943125
% es.Ey (V/m) @ t=0.54
0.12150389865833194
% es.Ez (V/m) @ t=0.54
0.6236910245112934
% es.tEx (V/m) @ t=0.54
-0.5468771165943123
% es.tEy (V/m) @ t=0.54
0
% es.tEz (V/m) @ t=0.54
0.623691024511297
% V (V) @ t=0.54
0.008195873051280831
% es.normE (V/m) @ t=0.56
0.8549472275584173
% es.EX (V/m) @ t=0.56
-0.5521137680037336
% es.EY (V/m) @ t=0.56
0.1226673036364106
% es.EZ (V/m) @ t=0.56
0.6296633211908755
% es.tEX (V/m) @ t=0.56
-0.5521137680037316
% es.tEY (V/m) @ t=0.56
0
% es.tEZ (V/m) @ t=0.56
0.629663321190888
% es.Ex (V/m) @ t=0.56
-0.5521137680037336
% es.Ey (V/m) @ t=0.56
0.1226673036364106
% es.Ez (V/m) @ t=0.56
0.6296633211908755
% es.tEx (V/m) @ t=0.56
-0.5521137680037316
% es.tEy (V/m) @ t=0.56
0
% es.tEz (V/m) @ t=0.56
0.629663321190888
% V (V) @ t=0.56
0.008274341205181798
% es.normE (V/m) @ t=0.58
0.8632416208836655
% es.EX (V/m) @ t=0.58
-0.5574701132916866
% es.EY (V/m) @ t=0.58
0.12385726991010132
% es.EZ (V/m) @ t=0.58
0.6357721766831457
% es.tEX (V/m) @ t=0.58
-0.5574701132916848
% es.tEY (V/m) @ t=0.58
0
% es.tEZ (V/m) @ t=0.58
0.6357721766831572
% es.Ex (V/m) @ t=0.58
-0.5574701132916866
% es.Ey (V/m) @ t=0.58
0.12385726991010132
% es.Ez (V/m) @ t=0.58
0.6357721766831457
% es.tEx (V/m) @ t=0.58
-0.5574701132916848
% es.tEy (V/m) @ t=0.58
0
% es.tEz (V/m) @ t=0.58
0.6357721766831572
% V (V) @ t=0.58
0.008354597471237811
% es.normE (V/m) @ t=0.6
0.8715360142089348
% es.EX (V/m) @ t=0.6
-0.5628264585796452
% es.EY (V/m) @ t=0.6
0.12504723618379365
% es.EZ (V/m) @ t=0.6
0.6418810321753989
% es.tEX (V/m) @ t=0.6
-0.5628264585796432
% es.tEY (V/m) @ t=0.6
0
% es.tEZ (V/m) @ t=0.6
0.6418810321754016
% es.Ex (V/m) @ t=0.6
-0.5628264585796452
% es.Ey (V/m) @ t=0.6
0.12504723618379365
% es.Ez (V/m) @ t=0.6
0.6418810321753989
% es.tEx (V/m) @ t=0.6
-0.5628264585796432
% es.tEy (V/m) @ t=0.6
0
% es.tEz (V/m) @ t=0.6
0.6418810321754016
% V (V) @ t=0.6
0.008434853737293826
% es.normE (V/m) @ t=0.62
0.8798304075342374
% es.EX (V/m) @ t=0.62
-0.5681828038675998
% es.EY (V/m) @ t=0.62
0.12623720245748876
% es.EZ (V/m) @ t=0.62
0.6479898876676646
% es.tEX (V/m) @ t=0.62
-0.5681828038676013
% es.tEY (V/m) @ t=0.62
0
% es.tEZ (V/m) @ t=0.62
0.6479898876676664
% es.Ex (V/m) @ t=0.62
-0.5681828038675998
% es.Ey (V/m) @ t=0.62
0.12623720245748876
% es.Ez (V/m) @ t=0.62
0.6479898876676646
% es.tEx (V/m) @ t=0.62
-0.5681828038676013
% es.tEy (V/m) @ t=0.62
0
% es.tEz (V/m) @ t=0.62
0.6479898876676664
% V (V) @ t=0.62
0.008515110003349839
% es.normE (V/m) @ t=0.64
0.8881248008595661
% es.EX (V/m) @ t=0.64
-0.5735391491555586
% es.EY (V/m) @ t=0.64
0.12742716873119453
% es.EZ (V/m) @ t=0.64
0.6540987431599241
% es.tEX (V/m) @ t=0.64
-0.5735391491555566
% es.tEY (V/m) @ t=0.64
0
% es.tEZ (V/m) @ t=0.64
0.6540987431599286
% es.Ex (V/m) @ t=0.64
-0.5735391491555586
% es.Ey (V/m) @ t=0.64
0.12742716873119453
% es.Ez (V/m) @ t=0.64
0.6540987431599241
% es.tEx (V/m) @ t=0.64
-0.5735391491555566
% es.tEy (V/m) @ t=0.64
0
% es.tEz (V/m) @ t=0.64
0.6540987431599286
% V (V) @ t=0.64
0.008595366269405852
% es.normE (V/m) @ t=0.66
0.8964191941849248
% es.EX (V/m) @ t=0.66
-0.578895494443513
% es.EY (V/m) @ t=0.66
0.12861713500487892
% es.EZ (V/m) @ t=0.66
0.6602075986521987
% es.tEX (V/m) @ t=0.66
-0.5788954944435074
% es.tEY (V/m) @ t=0.66
0
% es.tEZ (V/m) @ t=0.66
0.6602075986522014
% es.Ex (V/m) @ t=0.66
-0.578895494443513
% es.Ey (V/m) @ t=0.66
0.12861713500487892
% es.Ez (V/m) @ t=0.66
0.6602075986521987
% es.tEx (V/m) @ t=0.66
-0.5788954944435074
% es.tEy (V/m) @ t=0.66
0
% es.tEz (V/m) @ t=0.66
0.6602075986522014
% V (V) @ t=0.66
0.008675622535461865
% es.normE (V/m) @ t=0.68
0.9047135875102883
% es.EX (V/m) @ t=0.68
-0.5842518397314647
% es.EY (V/m) @ t=0.68
0.12980710127857403
% es.EZ (V/m) @ t=0.68
0.6663164541444448
% es.tEX (V/m) @ t=0.68
-0.5842518397314627
% es.tEY (V/m) @ t=0.68
0
% es.tEZ (V/m) @ t=0.68
0.666316454144452
% es.Ex (V/m) @ t=0.68
-0.5842518397314647
% es.Ey (V/m) @ t=0.68
0.12980710127857403
% es.Ez (V/m) @ t=0.68
0.6663164541444448
% es.tEx (V/m) @ t=0.68
-0.5842518397314627
% es.tEy (V/m) @ t=0.68
0
% es.tEz (V/m) @ t=0.68
0.666316454144452
% V (V) @ t=0.68
0.00875587880151788
% es.normE (V/m) @ t=0.7
0.9130079808356958
% es.EX (V/m) @ t=0.7
-0.5896081850194232
% es.EY (V/m) @ t=0.7
0.1309970675522727
% es.EZ (V/m) @ t=0.7
0.6724253096367097
% es.tEX (V/m) @ t=0.7
-0.5896081850194248
% es.tEY (V/m) @ t=0.7
0
% es.tEZ (V/m) @ t=0.7
0.6724253096367141
% es.Ex (V/m) @ t=0.7
-0.5896081850194232
% es.Ey (V/m) @ t=0.7
0.1309970675522727
% es.Ez (V/m) @ t=0.7
0.6724253096367097
% es.tEx (V/m) @ t=0.7
-0.5896081850194248
% es.tEy (V/m) @ t=0.7
0
% es.tEz (V/m) @ t=0.7
0.6724253096367141
% V (V) @ t=0.7
0.008836135067573893
% es.normE (V/m) @ t=0.72
0.9213023741611133
% es.EX (V/m) @ t=0.72
-0.5949645303073745
% es.EY (V/m) @ t=0.72
0.1321870338259642
% es.EZ (V/m) @ t=0.72
0.6785341651289682
% es.tEX (V/m) @ t=0.72
-0.5949645303073758
% es.tEY (V/m) @ t=0.72
0
% es.tEZ (V/m) @ t=0.72
0.6785341651289727
% es.Ex (V/m) @ t=0.72
-0.5949645303073745
% es.Ey (V/m) @ t=0.72
0.1321870338259642
% es.Ez (V/m) @ t=0.72
0.6785341651289682
% es.tEx (V/m) @ t=0.72
-0.5949645303073758
% es.tEy (V/m) @ t=0.72
0
% es.tEz (V/m) @ t=0.72
0.6785341651289727
% V (V) @ t=0.72
0.008916391333629906
% es.normE (V/m) @ t=0.74
0.9295967674865675
% es.EX (V/m) @ t=0.74
-0.6003208755953293
% es.EY (V/m) @ t=0.74
0.13337700009966375
% es.EZ (V/m) @ t=0.74
0.6846430206212357
% es.tEX (V/m) @ t=0.74
-0.6003208755953273
% es.tEY (V/m) @ t=0.74
0
% es.tEZ (V/m) @ t=0.74
0.6846430206212446
% es.Ex (V/m) @ t=0.74
-0.6003208755953293
% es.Ey (V/m) @ t=0.74
0.13337700009966375
% es.Ez (V/m) @ t=0.74
0.6846430206212357
% es.tEx (V/m) @ t=0.74
-0.6003208755953273
% es.tEy (V/m) @ t=0.74
0
% es.tEz (V/m) @ t=0.74
0.6846430206212446
% V (V) @ t=0.74
0.00899664759968592
% es.normE (V/m) @ t=0.76
0.9378911608120297
% es.EX (V/m) @ t=0.76
-0.6056772208832877
% es.EY (V/m) @ t=0.76
0.13456696637336585
% es.EZ (V/m) @ t=0.76
0.6907518761134819
% es.tEX (V/m) @ t=0.76
-0.6056772208832857
% es.tEY (V/m) @ t=0.76
0
% es.tEZ (V/m) @ t=0.76
0.6907518761135005
% es.Ex (V/m) @ t=0.76
-0.6056772208832877
% es.Ey (V/m) @ t=0.76
0.13456696637336585
% es.Ez (V/m) @ t=0.76
0.6907518761134819
% es.tEx (V/m) @ t=0.76
-0.6056772208832857
% es.tEy (V/m) @ t=0.76
0
% es.tEz (V/m) @ t=0.76
0.6907518761135005
% V (V) @ t=0.76
0.009076903865741934
% es.normE (V/m) @ t=0.78
0.9461855541375277
% es.EX (V/m) @ t=0.78
-0.6110335661712418
% es.EY (V/m) @ t=0.78
0.13575693264704758
% es.EZ (V/m) @ t=0.78
0.6968607316057547
% es.tEX (V/m) @ t=0.78
-0.6110335661712434
% es.tEY (V/m) @ t=0.78
0
% es.tEZ (V/m) @ t=0.78
0.6968607316057591
% es.Ex (V/m) @ t=0.78
-0.6110335661712418
% es.Ey (V/m) @ t=0.78
0.13575693264704758
% es.Ez (V/m) @ t=0.78
0.6968607316057547
% es.tEx (V/m) @ t=0.78
-0.6110335661712434
% es.tEy (V/m) @ t=0.78
0
% es.tEz (V/m) @ t=0.78
0.6968607316057591
% V (V) @ t=0.78
0.009157160131797949
% es.normE (V/m) @ t=0.8
0.954479947463039
% es.EX (V/m) @ t=0.8
-0.6163899114591969
% es.EY (V/m) @ t=0.8
0.13694689892073741
% es.EZ (V/m) @ t=0.8
0.702969587098015
% es.tEX (V/m) @ t=0.8
-0.6163899114591949
% es.tEY (V/m) @ t=0.8
0
% es.tEZ (V/m) @ t=0.8
0.7029695870980168
% es.Ex (V/m) @ t=0.8
-0.6163899114591969
% es.Ey (V/m) @ t=0.8
0.13694689892073741
% es.Ez (V/m) @ t=0.8
0.702969587098015
% es.tEx (V/m) @ t=0.8
-0.6163899114591949
% es.tEy (V/m) @ t=0.8
0
% es.tEz (V/m) @ t=0.8
0.7029695870980168
% V (V) @ t=0.8
0.009237416397853962
% es.normE (V/m) @ t=0.82
0.9629515544032261
% es.EX (V/m) @ t=0.82
-0.6218606930411275
% es.EY (V/m) @ t=0.82
0.13816227541519055
% es.EZ (V/m) @ t=0.82
0.7092089691361085
% es.tEX (V/m) @ t=0.82
-0.6218606930411219
% es.tEY (V/m) @ t=0.82
0
% es.tEZ (V/m) @ t=0.82
0.7092089691361156
% es.Ex (V/m) @ t=0.82
-0.6218606930411275
% es.Ey (V/m) @ t=0.82
0.13816227541519055
% es.Ez (V/m) @ t=0.82
0.7092089691361085
% es.tEx (V/m) @ t=0.82
-0.6218606930411219
% es.tEy (V/m) @ t=0.82
0
% es.tEz (V/m) @ t=0.82
0.7092089691361156
% V (V) @ t=0.82
0.00931938594722101
% es.normE (V/m) @ t=0.84
0.97222371983369
% es.EX (V/m) @ t=0.84
-0.6278484379890452
% es.EY (V/m) @ t=0.84
0.13949244200631838
% es.EZ (V/m) @ t=0.84
0.7160380018885446
% es.tEX (V/m) @ t=0.84
-0.6278484379890465
% es.tEY (V/m) @ t=0.84
0
% es.tEZ (V/m) @ t=0.84
0.7160380018885597
% es.Ex (V/m) @ t=0.84
-0.6278484379890452
% es.Ey (V/m) @ t=0.84
0.13949244200631838
% es.Ez (V/m) @ t=0.84
0.7160380018885446
% es.tEx (V/m) @ t=0.84
-0.6278484379890465
% es.tEy (V/m) @ t=0.84
0
% es.tEz (V/m) @ t=0.84
0.7160380018885597
% V (V) @ t=0.84
0.009409095215138899
% es.normE (V/m) @ t=0.86
0.9814958852642289
% es.EX (V/m) @ t=0.86
-0.6338361829369703
% es.EY (V/m) @ t=0.86
0.14082260859744367
% es.EZ (V/m) @ t=0.86
0.7228670346409878
% es.tEX (V/m) @ t=0.86
-0.6338361829369681
% es.tEY (V/m) @ t=0.86
0
% es.tEZ (V/m) @ t=0.86
0.7228670346410029
% es.Ex (V/m) @ t=0.86
-0.6338361829369703
% es.Ey (V/m) @ t=0.86
0.14082260859744367
% es.Ez (V/m) @ t=0.86
0.7228670346409878
% es.tEx (V/m) @ t=0.86
-0.6338361829369681
% es.tEy (V/m) @ t=0.86
0
% es.tEz (V/m) @ t=0.86
0.7228670346410029
% V (V) @ t=0.86
0.009498804483056792
% es.normE (V/m) @ t=0.88
0.9907680506948218
% es.EX (V/m) @ t=0.88
-0.6398239278848914
% es.EY (V/m) @ t=0.88
0.14215277518857328
% es.EZ (V/m) @ t=0.88
0.7296960673934239
% es.tEX (V/m) @ t=0.88
-0.6398239278848892
% es.tEY (V/m) @ t=0.88
0
% es.tEZ (V/m) @ t=0.88
0.729696067393439
% es.Ex (V/m) @ t=0.88
-0.6398239278848914
% es.Ey (V/m) @ t=0.88
0.14215277518857328
% es.Ez (V/m) @ t=0.88
0.7296960673934239
% es.tEx (V/m) @ t=0.88
-0.6398239278848892
% es.tEy (V/m) @ t=0.88
0
% es.tEz (V/m) @ t=0.88
0.729696067393439
% V (V) @ t=0.88
0.009588513750974683
% es.normE (V/m) @ t=0.9
1.0000402161254773
% es.EX (V/m) @ t=0.9
-0.6458116728328167
% es.EY (V/m) @ t=0.9
0.14348294177970566
% es.EZ (V/m) @ t=0.9
0.7365251001458599
% es.tEX (V/m) @ t=0.9
-0.6458116728328145
% es.tEY (V/m) @ t=0.9
0
% es.tEZ (V/m) @ t=0.9
0.736525100145867
% es.Ex (V/m) @ t=0.9
-0.6458116728328167
% es.Ey (V/m) @ t=0.9
0.14348294177970566
% es.Ez (V/m) @ t=0.9
0.7365251001458599
% es.tEx (V/m) @ t=0.9
-0.6458116728328145
% es.tEy (V/m) @ t=0.9
0
% es.tEz (V/m) @ t=0.9
0.736525100145867
% V (V) @ t=0.9
0.009678223018892571
% es.normE (V/m) @ t=0.92
1.0093123815561873
% es.EX (V/m) @ t=0.92
-0.6517994177807378
% es.EY (V/m) @ t=0.92
0.14481310837082373
% es.EZ (V/m) @ t=0.92
0.743354132898296
% es.tEX (V/m) @ t=0.92
-0.6517994177807356
% es.tEY (V/m) @ t=0.92
0
% es.tEZ (V/m) @ t=0.92
0.743354132898304
% es.Ex (V/m) @ t=0.92
-0.6517994177807378
% es.Ey (V/m) @ t=0.92
0.14481310837082373
% es.Ez (V/m) @ t=0.92
0.743354132898296
% es.tEx (V/m) @ t=0.92
-0.6517994177807356
% es.tEy (V/m) @ t=0.92
0
% es.tEz (V/m) @ t=0.92
0.743354132898304
% V (V) @ t=0.92
0.009767932286810464
% es.normE (V/m) @ t=0.94
1.018584546986963
% es.EX (V/m) @ t=0.94
-0.6577871627286593
% es.EY (V/m) @ t=0.94
0.14614327496196677
% es.EZ (V/m) @ t=0.94
0.7501831656507356
% es.tEX (V/m) @ t=0.94
-0.6577871627286571
% es.tEY (V/m) @ t=0.94
0
% es.tEZ (V/m) @ t=0.94
0.7501831656507401
% es.Ex (V/m) @ t=0.94
-0.6577871627286593
% es.Ey (V/m) @ t=0.94
0.14614327496196677
% es.Ez (V/m) @ t=0.94
0.7501831656507356
% es.tEx (V/m) @ t=0.94
-0.6577871627286571
% es.tEy (V/m) @ t=0.94
0
% es.tEz (V/m) @ t=0.94
0.7501831656507401
% V (V) @ t=0.94
0.009857641554728356
% es.normE (V/m) @ t=0.96
1.0278567124177804
% es.EX (V/m) @ t=0.96
-0.6637749076765771
% es.EY (V/m) @ t=0.96
0.14747344155308484
% es.EZ (V/m) @ t=0.96
0.7570121984031681
% es.tEX (V/m) @ t=0.96
-0.6637749076765784
% es.tEY (V/m) @ t=0.96
0
% es.tEZ (V/m) @ t=0.96
0.7570121984031832
% es.Ex (V/m) @ t=0.96
-0.6637749076765771
% es.Ey (V/m) @ t=0.96
0.14747344155308484
% es.Ez (V/m) @ t=0.96
0.7570121984031681
% es.tEx (V/m) @ t=0.96
-0.6637749076765784
% es.tEy (V/m) @ t=0.96
0
% es.tEz (V/m) @ t=0.96
0.7570121984031832
% V (V) @ t=0.96
0.009947350822646245
% es.normE (V/m) @ t=0.98
1.0371288778486607
% es.EX (V/m) @ t=0.98
-0.6697626526244986
% es.EY (V/m) @ t=0.98
0.14880360814422167
% es.EZ (V/m) @ t=0.98
0.7638412311556042
% es.tEX (V/m) @ t=0.98
-0.6697626526244997
% es.tEY (V/m) @ t=0.98
0
% es.tEZ (V/m) @ t=0.98
0.7638412311556113
% es.Ex (V/m) @ t=0.98
-0.6697626526244986
% es.Ey (V/m) @ t=0.98
0.14880360814422167
% es.Ez (V/m) @ t=0.98
0.7638412311556042
% es.tEx (V/m) @ t=0.98
-0.6697626526244997
% es.tEy (V/m) @ t=0.98
0
% es.tEz (V/m) @ t=0.98
0.7638412311556113
% V (V) @ t=0.98
0.010037060090564136
% es.normE (V/m) @ t=1
1.0464010432795954
% es.EX (V/m) @ t=1
-0.67575039757242
% es.EY (V/m) @ t=1
0.1501337747353344
% es.EZ (V/m) @ t=1
0.7706702639080474
% es.tEX (V/m) @ t=1
-0.6757503975724211
% es.tEY (V/m) @ t=1
0
% es.tEZ (V/m) @ t=1
0.7706702639080474
% es.Ex (V/m) @ t=1
-0.67575039757242
% es.Ey (V/m) @ t=1
0.1501337747353344
% es.Ez (V/m) @ t=1
0.7706702639080474
% es.tEx (V/m) @ t=1
-0.6757503975724211
% es.tEy (V/m) @ t=1
0
% es.tEz (V/m) @ t=1
0.7706702639080474
% V (V) @ t=1
0.010126769358482026
% es.normE (V/m) @ t=1.02
1.0556732087105822
% es.EX (V/m) @ t=1.02
-0.6817381425203448
% es.EY (V/m) @ t=1.02
0.1514639413264588
% es.EZ (V/m) @ t=1.02
0.777499296660487
% es.tEX (V/m) @ t=1.02
-0.6817381425203426
% es.tEY (V/m) @ t=1.02
0
% es.tEZ (V/m) @ t=1.02
0.7774992966604986
% es.Ex (V/m) @ t=1.02
-0.6817381425203448
% es.Ey (V/m) @ t=1.02
0.1514639413264588
% es.Ez (V/m) @ t=1.02
0.777499296660487
% es.tEx (V/m) @ t=1.02
-0.6817381425203426
% es.tEy (V/m) @ t=1.02
0
% es.tEz (V/m) @ t=1.02
0.7774992966604986
% V (V) @ t=1.02
0.010216478626399919
% es.normE (V/m) @ t=1.04
1.0649453741416108
% es.EX (V/m) @ t=1.04
-0.6877258874682666
% es.EY (V/m) @ t=1.04
0.15279410791759118
% es.EZ (V/m) @ t=1.04