% Model:              1 neuron.mph
% Version:            COMSOL 6.0.0.405
% Date:               Mar 16 2023, 09:58
% Dimension:          0
% Nodes:              14017
% Expressions:        14017
% Description:        Electric field norm, Electric field, X component, Electric field, Y component, Electric field, Z component, Tangential electric field, X component, Tangential electric field, Y component, Tangential electric field, Z component, Electric field, x component, Electric field, y component, Electric field, z component, Tangential electric field, x component, Tangential electric field, y component, Tangential electric field, z component, Electric potential
% Length unit:        mm
% x
1.0000000000000002
% y
12.2
% z
2
% es.normE (V/m) @ t=0
0.7029871162756905
% es.EX (V/m) @ t=0
0.4882998715375756
% es.EY (V/m) @ t=0
0.07311738909469553
% es.EZ (V/m) @ t=0
-0.4875883868454103
% es.tEX (V/m) @ t=0
0.4882998715375775
% es.tEY (V/m) @ t=0
0
% es.tEZ (V/m) @ t=0
-0.48758838684540473
% es.Ex (V/m) @ t=0
0.4882998715375756
% es.Ey (V/m) @ t=0
0.07311738909469553
% es.Ez (V/m) @ t=0
-0.4875883868454103
% es.tEx (V/m) @ t=0
0.4882998715375775
% es.tEy (V/m) @ t=0
0
% es.tEz (V/m) @ t=0
-0.48758838684540473
% V (V) @ t=0
0.007528067029917436
% es.normE (V/m) @ t=0.02
0.6071836752817477
% es.EX (V/m) @ t=0.02
0.4217541171854272
% es.EY (V/m) @ t=0.02
0.06315291431691214
% es.EZ (V/m) @ t=0.02
-0.4211395940162346
% es.tEX (V/m) @ t=0.02
0.4217541171854291
% es.tEY (V/m) @ t=0.02
0
% es.tEZ (V/m) @ t=0.02
-0.42113959401622747
% es.Ex (V/m) @ t=0.02
0.4217541171854272
% es.Ey (V/m) @ t=0.02
0.06315291431691214
% es.Ez (V/m) @ t=0.02
-0.4211395940162346
% es.tEx (V/m) @ t=0.02
0.4217541171854291
% es.tEy (V/m) @ t=0.02
0
% es.tEz (V/m) @ t=0.02
-0.42113959401622747
% V (V) @ t=0.02
0.006502138230770348
% es.normE (V/m) @ t=0.04
0.6127688442280621
% es.EX (V/m) @ t=0.04
0.425633615362224
% es.EY (V/m) @ t=0.04
0.06373382559545088
% es.EZ (V/m) @ t=0.04
-0.4250134395602412
% es.tEX (V/m) @ t=0.04
0.42563361536222555
% es.tEY (V/m) @ t=0.04
0
% es.tEZ (V/m) @ t=0.04
-0.4250134395602374
% es.Ex (V/m) @ t=0.04
0.425633615362224
% es.Ey (V/m) @ t=0.04
0.06373382559545088
% es.Ez (V/m) @ t=0.04
-0.4250134395602412
% es.tEx (V/m) @ t=0.04
0.42563361536222555
% es.tEy (V/m) @ t=0.04
0
% es.tEz (V/m) @ t=0.04
-0.4250134395602374
% V (V) @ t=0.04
0.006561948033891745
% es.normE (V/m) @ t=0.06
0.6184042459976724
% es.EX (V/m) @ t=0.06
0.42954800579946284
% es.EY (V/m) @ t=0.06
0.06431996094022593
% es.EZ (V/m) @ t=0.06
-0.4289221263473546
% es.tEX (V/m) @ t=0.06
0.42954800579946384
% es.tEY (V/m) @ t=0.06
0
% es.tEZ (V/m) @ t=0.06
-0.4289221263473473
% es.Ex (V/m) @ t=0.06
0.42954800579946284
% es.Ey (V/m) @ t=0.06
0.06431996094022593
% es.Ez (V/m) @ t=0.06
-0.4289221263473546
% es.tEx (V/m) @ t=0.06
0.42954800579946384
% es.tEy (V/m) @ t=0.06
0
% es.tEz (V/m) @ t=0.06
-0.4289221263473473
% V (V) @ t=0.06
0.006622295784049809
% es.normE (V/m) @ t=0.08
0.624125953944161
% es.EX (V/m) @ t=0.08
0.4335223445027666
% es.EY (V/m) @ t=0.08
0.06491507500689264
% es.EZ (V/m) @ t=0.08
-0.43289067467774855
% es.tEX (V/m) @ t=0.08
0.43352234450276894
% es.tEY (V/m) @ t=0.08
0
% es.tEZ (V/m) @ t=0.08
-0.432890674677743
% es.Ex (V/m) @ t=0.08
0.4335223445027666
% es.Ey (V/m) @ t=0.08
0.06491507500689264
% es.Ez (V/m) @ t=0.08
-0.43289067467774855
% es.tEx (V/m) @ t=0.08
0.43352234450276894
% es.tEy (V/m) @ t=0.08
0
% es.tEz (V/m) @ t=0.08
-0.432890674677743
% V (V) @ t=0.08
0.0066835676950312934
% es.normE (V/m) @ t=0.1
0.629907057821443
% es.EX (V/m) @ t=0.1
0.43753793961658627
% es.EY (V/m) @ t=0.1
0.06551636823205947
% es.EZ (V/m) @ t=0.1
-0.4369004197359929
% es.tEX (V/m) @ t=0.1
0.4375379396165868
% es.tEY (V/m) @ t=0.1
0
% es.tEZ (V/m) @ t=0.1
-0.43690041973598914
% es.Ex (V/m) @ t=0.1
0.43753793961658627
% es.Ey (V/m) @ t=0.1
0.06551636823205947
% es.Ez (V/m) @ t=0.1
-0.4369004197359929
% es.tEx (V/m) @ t=0.1
0.4375379396165868
% es.tEy (V/m) @ t=0.1
0
% es.tEz (V/m) @ t=0.1
-0.43690041973598914
% V (V) @ t=0.1
0.006745475613704205
% es.normE (V/m) @ t=0.12
0.6356881616987243
% es.EX (V/m) @ t=0.12
0.44155353473039904
% es.EY (V/m) @ t=0.12
0.06611766145722667
% es.EZ (V/m) @ t=0.12
-0.4409101647942395
% es.tEX (V/m) @ t=0.12
0.4415535347304007
% es.tEY (V/m) @ t=0.12
0
% es.tEZ (V/m) @ t=0.12
-0.4409101647942322
% es.Ex (V/m) @ t=0.12
0.44155353473039904
% es.Ey (V/m) @ t=0.12
0.06611766145722667
% es.Ez (V/m) @ t=0.12
-0.4409101647942395
% es.tEx (V/m) @ t=0.12
0.4415535347304007
% es.tEy (V/m) @ t=0.12
0
% es.tEz (V/m) @ t=0.12
-0.4409101647942322
% V (V) @ t=0.12
0.006807383532377118
% es.normE (V/m) @ t=0.14
0.6415292673225143
% es.EX (V/m) @ t=0.14
0.44561080776994133
% es.EY (V/m) @ t=0.14
0.06672519450872103
% es.EZ (V/m) @ t=0.14
-0.44496152676139356
% es.tEX (V/m) @ t=0.14
0.4456108077699439
% es.tEY (V/m) @ t=0.14
0
% es.tEZ (V/m) @ t=0.14
-0.44496152676138445
% es.Ex (V/m) @ t=0.14
0.44561080776994133
% es.Ey (V/m) @ t=0.14
0.06672519450872103
% es.Ez (V/m) @ t=0.14
-0.44496152676139356
% es.tEx (V/m) @ t=0.14
0.4456108077699439
% es.tEy (V/m) @ t=0.14
0
% es.tEz (V/m) @ t=0.14
-0.44496152676138445
% V (V) @ t=0.14
0.00686993402022899
% es.normE (V/m) @ t=0.16
0.6476186292389503
% es.EX (V/m) @ t=0.16
0.44984052257874263
% es.EY (V/m) @ t=0.16
0.06735854474460437
% es.EZ (V/m) @ t=0.16
-0.449185078041636
% es.tEX (V/m) @ t=0.16
0.4498405225787452
% es.tEY (V/m) @ t=0.16
0
% es.tEZ (V/m) @ t=0.16
-0.4491850780416269
% es.Ex (V/m) @ t=0.16
0.44984052257874263
% es.Ey (V/m) @ t=0.16
0.06735854474460437
% es.Ez (V/m) @ t=0.16
-0.449185078041636
% es.tEx (V/m) @ t=0.16
0.4498405225787452
% es.tEy (V/m) @ t=0.16
0
% es.tEz (V/m) @ t=0.16
-0.4491850780416269
% V (V) @ t=0.16
0.006935143128061357
% es.normE (V/m) @ t=0.18
0.6537079911553954
% es.EX (V/m) @ t=0.18
0.4540702373875478
% es.EY (V/m) @ t=0.18
0.06799189498049149
% es.EZ (V/m) @ t=0.18
-0.4534086293218891
% es.tEX (V/m) @ t=0.18
0.45407023738755004
% es.tEY (V/m) @ t=0.18
0
% es.tEZ (V/m) @ t=0.18
-0.4534086293218835
% es.Ex (V/m) @ t=0.18
0.4540702373875478
% es.Ey (V/m) @ t=0.18
0.06799189498049149
% es.Ez (V/m) @ t=0.18
-0.4534086293218891
% es.tEx (V/m) @ t=0.18
0.45407023738755004
% es.tEy (V/m) @ t=0.18
0
% es.tEz (V/m) @ t=0.18
-0.4534086293218835
% V (V) @ t=0.18
0.007000352235893724
% es.normE (V/m) @ t=0.2
0.6597973530718299
% es.EX (V/m) @ t=0.2
0.45829995219634856
% es.EY (V/m) @ t=0.2
0.06862524521637883
% es.EZ (V/m) @ t=0.2
-0.4576321806021315
% es.tEX (V/m) @ t=0.2
0.4582999521963509
% es.tEY (V/m) @ t=0.2
0
% es.tEZ (V/m) @ t=0.2
-0.4576321806021224
% es.Ex (V/m) @ t=0.2
0.45829995219634856
% es.Ey (V/m) @ t=0.2
0.06862524521637883
% es.Ez (V/m) @ t=0.2
-0.4576321806021315
% es.tEx (V/m) @ t=0.2
0.4582999521963509
% es.tEy (V/m) @ t=0.2
0
% es.tEz (V/m) @ t=0.2
-0.4576321806021224
% V (V) @ t=0.2
0.0070655613437260924
% es.normE (V/m) @ t=0.22
0.6658867149882672
% es.EX (V/m) @ t=0.22
0.46252966700515386
% es.EY (V/m) @ t=0.22
0.06925859545226265
% es.EZ (V/m) @ t=0.22
-0.46185573188237394
% es.tEX (V/m) @ t=0.22
0.4625296670051562
% es.tEY (V/m) @ t=0.22
0
% es.tEZ (V/m) @ t=0.22
-0.4618557318823684
% es.Ex (V/m) @ t=0.22
0.46252966700515386
% es.Ey (V/m) @ t=0.22
0.06925859545226265
% es.Ez (V/m) @ t=0.22
-0.46185573188237394
% es.tEx (V/m) @ t=0.22
0.4625296670051562
% es.tEy (V/m) @ t=0.22
0
% es.tEz (V/m) @ t=0.22
-0.4618557318823684
% V (V) @ t=0.22
0.00713077045155846
% es.normE (V/m) @ t=0.24
0.6719760769047031
% es.EX (V/m) @ t=0.24
0.46675938181395193
% es.EY (V/m) @ t=0.24
0.06989194568814983
% es.EZ (V/m) @ t=0.24
-0.4660792831626226
% es.tEX (V/m) @ t=0.24
0.46675938181395416
% es.tEY (V/m) @ t=0.24
0
% es.tEZ (V/m) @ t=0.24
-0.4660792831626135
% es.Ex (V/m) @ t=0.24
0.46675938181395193
% es.Ey (V/m) @ t=0.24
0.06989194568814983
% es.Ez (V/m) @ t=0.24
-0.4660792831626226
% es.tEx (V/m) @ t=0.24
0.46675938181395416
% es.tEy (V/m) @ t=0.24
0
% es.tEz (V/m) @ t=0.24
-0.4660792831626135
% V (V) @ t=0.24
0.007195979559390826
% es.normE (V/m) @ t=0.26
0.6780654388211416
% es.EX (V/m) @ t=0.26
0.47098909662275845
% es.EY (V/m) @ t=0.26
0.07052529592403675
% es.EZ (V/m) @ t=0.26
-0.470302834442865
% es.tEX (V/m) @ t=0.26
0.470989096622759
% es.tEY (V/m) @ t=0.26
0
% es.tEZ (V/m) @ t=0.26
-0.4703028344428595
% es.Ex (V/m) @ t=0.26
0.47098909662275845
% es.Ey (V/m) @ t=0.26
0.07052529592403675
% es.Ez (V/m) @ t=0.26
-0.470302834442865
% es.tEx (V/m) @ t=0.26
0.470989096622759
% es.tEy (V/m) @ t=0.26
0
% es.tEz (V/m) @ t=0.26
-0.4703028344428595
% V (V) @ t=0.26
0.0072611886672231925
% es.normE (V/m) @ t=0.28
0.6844316151290779
% es.EX (V/m) @ t=0.28
0.4754110857344658
% es.EY (V/m) @ t=0.28
0.07118744431928609
% es.EZ (V/m) @ t=0.28
-0.4747183837373965
% es.tEX (V/m) @ t=0.28
0.4754110857344702
% es.tEY (V/m) @ t=0.28
0
% es.tEZ (V/m) @ t=0.28
-0.47471838373739095
% es.Ex (V/m) @ t=0.28
0.4754110857344658
% es.Ey (V/m) @ t=0.28
0.07118744431928609
% es.Ez (V/m) @ t=0.28
-0.4747183837373965
% es.tEx (V/m) @ t=0.28
0.4754110857344702
% es.tEy (V/m) @ t=0.28
0
% es.tEz (V/m) @ t=0.28
-0.47471838373739095
% V (V) @ t=0.28
0.007329361851558026
% es.normE (V/m) @ t=0.3
0.6912143134127506
% es.EX (V/m) @ t=0.3
0.48012238954580166
% es.EY (V/m) @ t=0.3
0.07189292523845073
% es.EZ (V/m) @ t=0.3
-0.47942283200070435
% es.tEX (V/m) @ t=0.3
0.4801223895458002
% es.tEY (V/m) @ t=0.3
0
% es.tEZ (V/m) @ t=0.3
-0.479422832000699
% es.Ex (V/m) @ t=0.3
0.48012238954580166
% es.Ey (V/m) @ t=0.3
0.07189292523845073
% es.Ez (V/m) @ t=0.3
-0.47942283200070435
% es.tEx (V/m) @ t=0.3
0.4801223895458002
% es.tEy (V/m) @ t=0.3
0
% es.tEz (V/m) @ t=0.3
-0.479422832000699
% V (V) @ t=0.3
0.007401995074962211
% es.normE (V/m) @ t=0.32
0.697997011696438
% es.EX (V/m) @ t=0.32
0.48483369335714344
% es.EY (V/m) @ t=0.32
0.07259840615760393
% es.EZ (V/m) @ t=0.32
-0.48412728026402774
% es.tEX (V/m) @ t=0.32
0.48483369335714377
% es.tEY (V/m) @ t=0.32
0
% es.tEZ (V/m) @ t=0.32
-0.4841272802640204
% es.Ex (V/m) @ t=0.32
0.48483369335714344
% es.Ey (V/m) @ t=0.32
0.07259840615760393
% es.Ez (V/m) @ t=0.32
-0.48412728026402774
% es.tEx (V/m) @ t=0.32
0.48483369335714377
% es.tEy (V/m) @ t=0.32
0
% es.tEz (V/m) @ t=0.32
-0.4841272802640204
% V (V) @ t=0.32
0.007474628298366397
% es.normE (V/m) @ t=0.34
0.7047797099801028
% es.EX (V/m) @ t=0.34
0.4895449971684783
% es.EY (V/m) @ t=0.34
0.07330388707677443
% es.EZ (V/m) @ t=0.34
-0.48883172852732293
% es.tEX (V/m) @ t=0.34
0.4895449971684789
% es.tEY (V/m) @ t=0.34
0
% es.tEZ (V/m) @ t=0.34
-0.4888317285273174
% es.Ex (V/m) @ t=0.34
0.4895449971684783
% es.Ey (V/m) @ t=0.34
0.07330388707677443
% es.Ez (V/m) @ t=0.34
-0.48883172852732293
% es.tEx (V/m) @ t=0.34
0.4895449971684789
% es.tEy (V/m) @ t=0.34
0
% es.tEz (V/m) @ t=0.34
-0.4888317285273174
% V (V) @ t=0.34
0.007547261521770584
% es.normE (V/m) @ t=0.36
0.7115624082637773
% es.EX (V/m) @ t=0.36
0.4942563009798143
% es.EY (V/m) @ t=0.36
0.0740093679959333
% es.EZ (V/m) @ t=0.36
-0.49353617679063233
% es.tEX (V/m) @ t=0.36
0.49425630097981665
% es.tEY (V/m) @ t=0.36
0
% es.tEZ (V/m) @ t=0.36
-0.493536176790625
% es.Ex (V/m) @ t=0.36
0.4942563009798143
% es.Ey (V/m) @ t=0.36
0.0740093679959333
% es.Ez (V/m) @ t=0.36
-0.49353617679063233
% es.tEx (V/m) @ t=0.36
0.49425630097981665
% es.tEy (V/m) @ t=0.36
0
% es.tEz (V/m) @ t=0.36
-0.493536176790625
% V (V) @ t=0.36
0.00761989474517477
% es.normE (V/m) @ t=0.38
0.7183451065474629
% es.EX (V/m) @ t=0.38
0.49896760479115365
% es.EY (V/m) @ t=0.38
0.0747148489150947
% es.EZ (V/m) @ t=0.38
-0.4982406250539537
% es.tEX (V/m) @ t=0.38
0.4989676047911564
% es.tEY (V/m) @ t=0.38
0
% es.tEZ (V/m) @ t=0.38
-0.4982406250539464
% es.Ex (V/m) @ t=0.38
0.49896760479115365
% es.Ey (V/m) @ t=0.38
0.0747148489150947
% es.Ez (V/m) @ t=0.38
-0.4982406250539537
% es.tEx (V/m) @ t=0.38
0.4989676047911564
% es.tEy (V/m) @ t=0.38
0
% es.tEz (V/m) @ t=0.38
-0.4982406250539464
% V (V) @ t=0.38
0.007692527968578955
% es.normE (V/m) @ t=0.4
0.7251278048311453
% es.EX (V/m) @ t=0.4
0.5036789086024916
% es.EY (V/m) @ t=0.4
0.07542032983426111
% es.EZ (V/m) @ t=0.4
-0.5029450733172667
% es.tEX (V/m) @ t=0.4
0.5036789086024944
% es.tEY (V/m) @ t=0.4
0
% es.tEZ (V/m) @ t=0.4
-0.5029450733172576
% es.Ex (V/m) @ t=0.4
0.5036789086024916
% es.Ey (V/m) @ t=0.4
0.07542032983426111
% es.Ez (V/m) @ t=0.4
-0.5029450733172667
% es.tEx (V/m) @ t=0.4
0.5036789086024944
% es.tEy (V/m) @ t=0.4
0
% es.tEz (V/m) @ t=0.4
-0.5029450733172576
% V (V) @ t=0.4
0.0077651611919831425
% es.normE (V/m) @ t=0.42
0.731910503114817
% es.EX (V/m) @ t=0.42
0.5083902124138265
% es.EY (V/m) @ t=0.42
0.07612581075341296
% es.EZ (V/m) @ t=0.42
-0.5076495215805721
% es.tEX (V/m) @ t=0.42
0.5083902124138293
% es.tEY (V/m) @ t=0.42
0
% es.tEZ (V/m) @ t=0.42
-0.5076495215805612
% es.Ex (V/m) @ t=0.42
0.5083902124138265
% es.Ey (V/m) @ t=0.42
0.07612581075341296
% es.Ez (V/m) @ t=0.42
-0.5076495215805721
% es.tEx (V/m) @ t=0.42
0.5083902124138293
% es.tEy (V/m) @ t=0.42
0
% es.tEz (V/m) @ t=0.42
-0.5076495215805612
% V (V) @ t=0.42
0.007837794415387326
% es.normE (V/m) @ t=0.44
0.7386932013985081
% es.EX (V/m) @ t=0.44
0.5131015162251674
% es.EY (V/m) @ t=0.44
0.0768312916725824
% es.EZ (V/m) @ t=0.44
-0.5123539698438979
% es.tEX (V/m) @ t=0.44
0.5131015162251702
% es.tEY (V/m) @ t=0.44
0
% es.tEZ (V/m) @ t=0.44
-0.512353969843887
% es.Ex (V/m) @ t=0.44
0.5131015162251674
% es.Ey (V/m) @ t=0.44
0.0768312916725824
% es.Ez (V/m) @ t=0.44
-0.5123539698438979
% es.tEx (V/m) @ t=0.44
0.5131015162251702
% es.tEy (V/m) @ t=0.44
0
% es.tEz (V/m) @ t=0.44
-0.512353969843887
% V (V) @ t=0.44
0.007910427638791514
% es.normE (V/m) @ t=0.46
0.7454758996821809
% es.EX (V/m) @ t=0.46
0.5178128200365025
% es.EY (V/m) @ t=0.46
0.0775367725917297
% es.EZ (V/m) @ t=0.46
-0.517058418107202
% es.tEX (V/m) @ t=0.46
0.5178128200365053
% es.tEY (V/m) @ t=0.46
0
% es.tEZ (V/m) @ t=0.46
-0.5170584181071911
% es.Ex (V/m) @ t=0.46
0.5178128200365025
% es.Ey (V/m) @ t=0.46
0.0775367725917297
% es.Ez (V/m) @ t=0.46
-0.517058418107202
% es.tEx (V/m) @ t=0.46
0.5178128200365053
% es.tEy (V/m) @ t=0.46
0
% es.tEz (V/m) @ t=0.46
-0.5170584181071911
% V (V) @ t=0.46
0.007983060862195699
% es.normE (V/m) @ t=0.48
0.7522585979658603
% es.EX (V/m) @ t=0.48
0.5225241238478412
% es.EY (V/m) @ t=0.48
0.07824225351090566
% es.EZ (V/m) @ t=0.48
-0.5217628663705096
% es.tEX (V/m) @ t=0.48
0.5225241238478422
% es.tEY (V/m) @ t=0.48
0
% es.tEZ (V/m) @ t=0.48
-0.5217628663704987
% es.Ex (V/m) @ t=0.48
0.5225241238478412
% es.Ey (V/m) @ t=0.48
0.07824225351090566
% es.Ez (V/m) @ t=0.48
-0.5217628663705096
% es.tEx (V/m) @ t=0.48
0.5225241238478422
% es.tEy (V/m) @ t=0.48
0
% es.tEz (V/m) @ t=0.48
-0.5217628663704987
% V (V) @ t=0.48
0.008055694085599885
% es.normE (V/m) @ t=0.5
0.7590412962495481
% es.EX (V/m) @ t=0.5
0.5272354276591734
% es.EY (V/m) @ t=0.5
0.07894773443006517
% es.EZ (V/m) @ t=0.5
-0.5264673146338381
% es.tEX (V/m) @ t=0.5
0.5272354276591744
% es.tEY (V/m) @ t=0.5
0
% es.tEZ (V/m) @ t=0.5
-0.5264673146338272
% es.Ex (V/m) @ t=0.5
0.5272354276591734
% es.Ey (V/m) @ t=0.5
0.07894773443006517
% es.Ez (V/m) @ t=0.5
-0.5264673146338381
% es.tEx (V/m) @ t=0.5
0.5272354276591744
% es.tEy (V/m) @ t=0.5
0
% es.tEz (V/m) @ t=0.5
-0.5264673146338272
% V (V) @ t=0.5
0.008128327309004072
% es.normE (V/m) @ t=0.52
0.7658239945332261
% es.EX (V/m) @ t=0.52
0.5319467314705139
% es.EY (V/m) @ t=0.52
0.07965321534921957
% es.EZ (V/m) @ t=0.52
-0.5311717628971422
% es.tEX (V/m) @ t=0.52
0.5319467314705149
% es.tEY (V/m) @ t=0.52
0
% es.tEZ (V/m) @ t=0.52
-0.5311717628971313
% es.Ex (V/m) @ t=0.52
0.5319467314705139
% es.Ey (V/m) @ t=0.52
0.07965321534921957
% es.Ez (V/m) @ t=0.52
-0.5311717628971422
% es.tEx (V/m) @ t=0.52
0.5319467314705149
% es.tEy (V/m) @ t=0.52
0
% es.tEz (V/m) @ t=0.52
-0.5311717628971313
% V (V) @ t=0.52
0.008200960532408257
% es.normE (V/m) @ t=0.54
0.772606692816904
% es.EX (V/m) @ t=0.54
0.5366580352818543
% es.EY (V/m) @ t=0.54
0.08035869626838663
% es.EZ (V/m) @ t=0.54
-0.5358762111604458
% es.tEX (V/m) @ t=0.54
0.5366580352818549
% es.tEY (V/m) @ t=0.54
0
% es.tEZ (V/m) @ t=0.54
-0.5358762111604349
% es.Ex (V/m) @ t=0.54
0.5366580352818543
% es.Ey (V/m) @ t=0.54
0.08035869626838663
% es.Ez (V/m) @ t=0.54
-0.5358762111604458
% es.tEx (V/m) @ t=0.54
0.5366580352818549
% es.tEy (V/m) @ t=0.54
0
% es.tEz (V/m) @ t=0.54
-0.5358762111604349
% V (V) @ t=0.54
0.008273593755812441
% es.normE (V/m) @ t=0.56
0.7800247264353
% es.EX (V/m) @ t=0.56
0.5418106523047234
% es.EY (V/m) @ t=0.56
0.08113024745859204
% es.EZ (V/m) @ t=0.56
-0.5410213232995809
% es.tEX (V/m) @ t=0.56
0.5418106523047239
% es.tEY (V/m) @ t=0.56
0
% es.tEZ (V/m) @ t=0.56
-0.54102132329957
% es.Ex (V/m) @ t=0.56
0.5418106523047234
% es.Ey (V/m) @ t=0.56
0.08113024745859204
% es.Ez (V/m) @ t=0.56
-0.5410213232995809
% es.tEx (V/m) @ t=0.56
0.5418106523047239
% es.tEy (V/m) @ t=0.56
0
% es.tEz (V/m) @ t=0.56
-0.54102132329957
% V (V) @ t=0.56
0.008353030966937038
% es.normE (V/m) @ t=0.58
0.7875932895023174
% es.EX (V/m) @ t=0.58
0.5470678292832233
% es.EY (V/m) @ t=0.58
0.08191745262067981
% es.EZ (V/m) @ t=0.58
-0.5462708415477764
% es.tEX (V/m) @ t=0.58
0.5470678292832276
% es.tEY (V/m) @ t=0.58
0
% es.tEZ (V/m) @ t=0.58
-0.5462708415477655
% es.Ex (V/m) @ t=0.58
0.5470678292832233
% es.Ey (V/m) @ t=0.58
0.08191745262067981
% es.Ez (V/m) @ t=0.58
-0.5462708415477764
% es.tEx (V/m) @ t=0.58
0.5470678292832276
% es.tEy (V/m) @ t=0.58
0
% es.tEz (V/m) @ t=0.58
-0.5462708415477655
% V (V) @ t=0.58
0.008434080240958299
% es.normE (V/m) @ t=0.6
0.7951618525693284
% es.EX (V/m) @ t=0.6
0.5523250062617172
% es.EY (V/m) @ t=0.6
0.08270465778278141
% es.EZ (V/m) @ t=0.6
-0.5515203597959724
% es.tEX (V/m) @ t=0.6
0.5523250062617213
% es.tEY (V/m) @ t=0.6
0
% es.tEZ (V/m) @ t=0.6
-0.551520359795965
% es.Ex (V/m) @ t=0.6
0.5523250062617172
% es.Ey (V/m) @ t=0.6
0.08270465778278141
% es.Ez (V/m) @ t=0.6
-0.5515203597959724
% es.tEx (V/m) @ t=0.6
0.5523250062617213
% es.tEy (V/m) @ t=0.6
0
% es.tEz (V/m) @ t=0.6
-0.551520359795965
% V (V) @ t=0.6
0.008515129514979557
% es.normE (V/m) @ t=0.62
0.8027304156363457
% es.EX (V/m) @ t=0.62
0.5575821832402134
% es.EY (V/m) @ t=0.62
0.08349186294487274
% es.EZ (V/m) @ t=0.62
-0.556769878044175
% es.tEX (V/m) @ t=0.62
0.5575821832402159
% es.tEY (V/m) @ t=0.62
0
% es.tEZ (V/m) @ t=0.62
-0.5567698780441641
% es.Ex (V/m) @ t=0.62
0.5575821832402134
% es.Ey (V/m) @ t=0.62
0.08349186294487274
% es.Ez (V/m) @ t=0.62
-0.556769878044175
% es.tEx (V/m) @ t=0.62
0.5575821832402159
% es.tEy (V/m) @ t=0.62
0
% es.tEz (V/m) @ t=0.62
-0.5567698780441641
% V (V) @ t=0.62
0.008596178789000816
% es.normE (V/m) @ t=0.64
0.8102989787033632
% es.EX (V/m) @ t=0.64
0.5628393602187114
% es.EY (V/m) @ t=0.64
0.08427906810697494
% es.EZ (V/m) @ t=0.64
-0.5620193962923745
% es.tEX (V/m) @ t=0.64
0.5628393602187156
% es.tEY (V/m) @ t=0.64
0
% es.tEZ (V/m) @ t=0.64
-0.5620193962923636
% es.Ex (V/m) @ t=0.64
0.5628393602187114
% es.Ey (V/m) @ t=0.64
0.08427906810697494
% es.Ez (V/m) @ t=0.64
-0.5620193962923745
% es.tEx (V/m) @ t=0.64
0.5628393602187156
% es.tEy (V/m) @ t=0.64
0
% es.tEz (V/m) @ t=0.64
-0.5620193962923636
% V (V) @ t=0.64
0.008677228063022076
% es.normE (V/m) @ t=0.66
0.8178675417703871
% es.EX (V/m) @ t=0.66
0.568096537197209
% es.EY (V/m) @ t=0.66
0.08506627326907498
% es.EZ (V/m) @ t=0.66
-0.5672689145405811
% es.tEX (V/m) @ t=0.66
0.5680965371972093
% es.tEY (V/m) @ t=0.66
0
% es.tEZ (V/m) @ t=0.66
-0.5672689145405703
% es.Ex (V/m) @ t=0.66
0.568096537197209
% es.Ey (V/m) @ t=0.66
0.08506627326907498
% es.Ez (V/m) @ t=0.66
-0.5672689145405811
% es.tEx (V/m) @ t=0.66
0.5680965371972093
% es.tEy (V/m) @ t=0.66
0
% es.tEz (V/m) @ t=0.66
-0.5672689145405703
% V (V) @ t=0.66
0.008758277337043333
% es.normE (V/m) @ t=0.68
0.8254361048374081
% es.EX (V/m) @ t=0.68
0.5733537141757098
% es.EY (V/m) @ t=0.68
0.08585347843117053
% es.EZ (V/m) @ t=0.68
-0.5725184327887838
% es.tEX (V/m) @ t=0.68
0.5733537141757137
% es.tEY (V/m) @ t=0.68
0
% es.tEZ (V/m) @ t=0.68
-0.5725184327887765
% es.Ex (V/m) @ t=0.68
0.5733537141757098
% es.Ey (V/m) @ t=0.68
0.08585347843117053
% es.Ez (V/m) @ t=0.68
-0.5725184327887838
% es.tEx (V/m) @ t=0.68
0.5733537141757137
% es.tEy (V/m) @ t=0.68
0
% es.tEz (V/m) @ t=0.68
-0.5725184327887765
% V (V) @ t=0.68
0.008839326611064593
% es.normE (V/m) @ t=0.7
0.8330046679044179
% es.EX (V/m) @ t=0.7
0.5786108911542006
% es.EY (V/m) @ t=0.7
0.08664068359327429
% es.EZ (V/m) @ t=0.7
-0.577767951036976
% es.tEX (V/m) @ t=0.7
0.5786108911542029
% es.tEY (V/m) @ t=0.7
0
% es.tEZ (V/m) @ t=0.7
-0.5777679510369613
% es.Ex (V/m) @ t=0.7
0.5786108911542006
% es.Ey (V/m) @ t=0.7
0.08664068359327429
% es.Ez (V/m) @ t=0.7
-0.577767951036976
% es.tEx (V/m) @ t=0.7
0.5786108911542029
% es.tEy (V/m) @ t=0.7
0
% es.tEz (V/m) @ t=0.7
-0.5777679510369613
% V (V) @ t=0.7
0.008920375885085853
% es.normE (V/m) @ t=0.72
0.8405732309714399
% es.EX (V/m) @ t=0.72
0.5838680681327001
% es.EY (V/m) @ t=0.72
0.08742788875536364
% es.EZ (V/m) @ t=0.72
-0.5830174692851828
% es.tEX (V/m) @ t=0.72
0.5838680681327022
% es.tEY (V/m) @ t=0.72
0
% es.tEZ (V/m) @ t=0.72
-0.5830174692851755
% es.Ex (V/m) @ t=0.72
0.5838680681327001
% es.Ey (V/m) @ t=0.72
0.08742788875536364
% es.Ez (V/m) @ t=0.72
-0.5830174692851828
% es.tEx (V/m) @ t=0.72
0.5838680681327022
% es.tEy (V/m) @ t=0.72
0
% es.tEz (V/m) @ t=0.72
-0.5830174692851755
% V (V) @ t=0.72
0.009001425159107112
% es.normE (V/m) @ t=0.74
0.8481417940384572
% es.EX (V/m) @ t=0.74
0.5891252451111979
% es.EY (V/m) @ t=0.74
0.08821509391745147
% es.EZ (V/m) @ t=0.74
-0.5882669875333828
% es.tEX (V/m) @ t=0.74
0.5891252451112017
% es.tEY (V/m) @ t=0.74
0
% es.tEZ (V/m) @ t=0.74
-0.5882669875333755
% es.Ex (V/m) @ t=0.74
0.5891252451111979
% es.Ey (V/m) @ t=0.74
0.08821509391745147
% es.Ez (V/m) @ t=0.74
-0.5882669875333828
% es.tEx (V/m) @ t=0.74
0.5891252451112017
% es.tEy (V/m) @ t=0.74
0
% es.tEz (V/m) @ t=0.74
-0.5882669875333755
% V (V) @ t=0.74
0.00908247443312837
% es.normE (V/m) @ t=0.76
0.8557103571054789
% es.EX (V/m) @ t=0.76
0.5943824220896956
% es.EY (V/m) @ t=0.76
0.08900229907956278
% es.EZ (V/m) @ t=0.76
-0.5935165057815925
% es.tEX (V/m) @ t=0.76
0.5943824220896978
% es.tEY (V/m) @ t=0.76
0
% es.tEZ (V/m) @ t=0.76
-0.5935165057815817
% es.Ex (V/m) @ t=0.76
0.5943824220896956
% es.Ey (V/m) @ t=0.76
0.08900229907956278
% es.Ez (V/m) @ t=0.76
-0.5935165057815925
% es.tEx (V/m) @ t=0.76
0.5943824220896978
% es.tEy (V/m) @ t=0.76
0
% es.tEz (V/m) @ t=0.76
-0.5935165057815817
% V (V) @ t=0.76
0.009163523707149627
% es.normE (V/m) @ t=0.78
0.8632789201724964
% es.EX (V/m) @ t=0.78
0.5996395990681973
% es.EY (V/m) @ t=0.78
0.08978950424165388
% es.EZ (V/m) @ t=0.78
-0.598766024029781
% es.tEX (V/m) @ t=0.78
0.5996395990681935
% es.tEY (V/m) @ t=0.78
0
% es.tEZ (V/m) @ t=0.78
-0.5987660240297665
% es.Ex (V/m) @ t=0.78
0.5996395990681973
% es.Ey (V/m) @ t=0.78
0.08978950424165388
% es.Ez (V/m) @ t=0.78
-0.598766024029781
% es.tEx (V/m) @ t=0.78
0.5996395990681935
% es.tEy (V/m) @ t=0.78
0
% es.tEz (V/m) @ t=0.78
-0.5987660240297665
% V (V) @ t=0.78
0.009244572981170887
% es.normE (V/m) @ t=0.8
0.8708474832395126
% es.EX (V/m) @ t=0.8
0.6048967760466915
% es.EY (V/m) @ t=0.8
0.0905767094037501
% es.EZ (V/m) @ t=0.8
-0.6040155422779871
% es.tEX (V/m) @ t=0.8
0.6048967760466972
% es.tEY (V/m) @ t=0.8
0
% es.tEZ (V/m) @ t=0.8
-0.6040155422779798
% es.Ex (V/m) @ t=0.8
0.6048967760466915
% es.Ey (V/m) @ t=0.8
0.0905767094037501
% es.Ez (V/m) @ t=0.8
-0.6040155422779871
% es.tEx (V/m) @ t=0.8
0.6048967760466972
% es.tEy (V/m) @ t=0.8
0
% es.tEz (V/m) @ t=0.8
-0.6040155422779798
% V (V) @ t=0.8
0.009325622255192144
% es.normE (V/m) @ t=0.82
0.8786102637122266
% es.EX (V/m) @ t=0.82
0.6102888579839412
% es.EY (V/m) @ t=0.82
0.09138411467118723
% es.EZ (V/m) @ t=0.82
-0.6093997687048318
% es.tEX (V/m) @ t=0.82
0.6102888579839432
% es.tEY (V/m) @ t=0.82
0
% es.tEZ (V/m) @ t=0.82
-0.6093997687048245
% es.Ex (V/m) @ t=0.82
0.6102888579839412
% es.Ey (V/m) @ t=0.82
0.09138411467118723
% es.Ez (V/m) @ t=0.82
-0.6093997687048318
% es.tEx (V/m) @ t=0.82
0.6102888579839432
% es.tEy (V/m) @ t=0.82
0
% es.tEz (V/m) @ t=0.82
-0.6093997687048245
% V (V) @ t=0.82
0.009408751355062745
% es.normE (V/m) @ t=0.84
0.8870711332717127
% es.EX (V/m) @ t=0.84
0.616165838167698
% es.EY (V/m) @ t=0.84
0.09226412657774069
% es.EZ (V/m) @ t=0.84
-0.6152681860777418
% es.tEX (V/m) @ t=0.84
0.6161658381676984
% es.tEY (V/m) @ t=0.84
0
% es.tEZ (V/m) @ t=0.84
-0.6152681860777309
% es.Ex (V/m) @ t=0.84
0.616165838167698
% es.Ey (V/m) @ t=0.84
0.09226412657774069
% es.Ez (V/m) @ t=0.84
-0.6152681860777418
% es.tEx (V/m) @ t=0.84
0.6161658381676984
% es.tEy (V/m) @ t=0.84
0
% es.tEz (V/m) @ t=0.84
-0.6152681860777309
% V (V) @ t=0.84
0.00949935611718268
% es.normE (V/m) @ t=0.86
0.8955320028312045
% es.EX (V/m) @ t=0.86
0.6220428183514481
% es.EY (V/m) @ t=0.86
0.09314413848429254
% es.EZ (V/m) @ t=0.86
-0.6211366034506656
% es.tEX (V/m) @ t=0.86
0.6220428183514484
% es.tEY (V/m) @ t=0.86
0
% es.tEZ (V/m) @ t=0.86
-0.6211366034506511
% es.Ex (V/m) @ t=0.86
0.6220428183514481
% es.Ey (V/m) @ t=0.86
0.09314413848429254
% es.Ez (V/m) @ t=0.86
-0.6211366034506656
% es.tEx (V/m) @ t=0.86
0.6220428183514484
% es.tEy (V/m) @ t=0.86
0
% es.tEz (V/m) @ t=0.86
-0.6211366034506511
% V (V) @ t=0.86
0.009589960879302615
% es.normE (V/m) @ t=0.88
0.9039928723906909
% es.EX (V/m) @ t=0.88
0.6279197985352014
% es.EY (V/m) @ t=0.88
0.09402415039085327
% es.EZ (V/m) @ t=0.88
-0.6270050208235751
% es.tEX (V/m) @ t=0.88
0.6279197985352027
% es.tEY (V/m) @ t=0.88
0
% es.tEZ (V/m) @ t=0.88
-0.6270050208235571
% es.Ex (V/m) @ t=0.88
0.6279197985352014
% es.Ey (V/m) @ t=0.88
0.09402415039085327
% es.Ez (V/m) @ t=0.88
-0.6270050208235751
% es.tEx (V/m) @ t=0.88
0.6279197985352027
% es.tEy (V/m) @ t=0.88
0
% es.tEz (V/m) @ t=0.88
-0.6270050208235571
% V (V) @ t=0.88
0.009680565641422553
% es.normE (V/m) @ t=0.9
0.9124537419501888
% es.EX (V/m) @ t=0.9
0.6337967787189536
% es.EY (V/m) @ t=0.9
0.0949041622974236
% es.EZ (V/m) @ t=0.9
-0.6328734381965029
% es.tEX (V/m) @ t=0.9
0.6337967787189531
% es.tEY (V/m) @ t=0.9
0
% es.tEZ (V/m) @ t=0.9
-0.632873438196492
% es.Ex (V/m) @ t=0.9
0.6337967787189536
% es.Ey (V/m) @ t=0.9
0.0949041622974236
% es.Ez (V/m) @ t=0.9
-0.6328734381965029
% es.tEx (V/m) @ t=0.9
0.6337967787189531
% es.tEy (V/m) @ t=0.9
0
% es.tEz (V/m) @ t=0.9
-0.632873438196492
% V (V) @ t=0.9
0.00977117040354249
% es.normE (V/m) @ t=0.92
0.9209146115096689
% es.EX (V/m) @ t=0.92
0.6396737589027068
% es.EY (V/m) @ t=0.92
0.09578417420398522
% es.EZ (V/m) @ t=0.92
-0.6387418555694053
% es.tEX (V/m) @ t=0.92
0.6396737589027124
% es.tEY (V/m) @ t=0.92
0
% es.tEZ (V/m) @ t=0.92
-0.6387418555693909
% es.Ex (V/m) @ t=0.92
0.6396737589027068
% es.Ey (V/m) @ t=0.92
0.09578417420398522
% es.Ez (V/m) @ t=0.92
-0.6387418555694053
% es.tEx (V/m) @ t=0.92
0.6396737589027124
% es.tEy (V/m) @ t=0.92
0
% es.tEz (V/m) @ t=0.92
-0.6387418555693909
% V (V) @ t=0.92
0.009861775165662426
% es.normE (V/m) @ t=0.94
0.9293754810691617
% es.EX (V/m) @ t=0.94
0.6455507390864661
% es.EY (V/m) @ t=0.94
0.09666418611052713
% es.EZ (V/m) @ t=0.94
-0.6446102729423226
% es.tEX (V/m) @ t=0.94
0.6455507390864663
% es.tEY (V/m) @ t=0.94
0
% es.tEZ (V/m) @ t=0.94
-0.6446102729423115
% es.Ex (V/m) @ t=0.94
0.6455507390864661
% es.Ey (V/m) @ t=0.94
0.09666418611052713
% es.Ez (V/m) @ t=0.94
-0.6446102729423226
% es.tEx (V/m) @ t=0.94
0.6455507390864663
% es.tEy (V/m) @ t=0.94
0
% es.tEz (V/m) @ t=0.94
-0.6446102729423115
% V (V) @ t=0.94
0.009952379927782362
% es.normE (V/m) @ t=0.96
0.9378363506286491
% es.EX (V/m) @ t=0.96
0.6514277192702154
% es.EY (V/m) @ t=0.96
0.09754419801709124
% es.EZ (V/m) @ t=0.96
-0.6504786903152364
% es.tEX (V/m) @ t=0.96
0.6514277192702203
% es.tEY (V/m) @ t=0.96
0
% es.tEZ (V/m) @ t=0.96
-0.6504786903152255
% es.Ex (V/m) @ t=0.96
0.6514277192702154
% es.Ey (V/m) @ t=0.96
0.09754419801709124
% es.Ez (V/m) @ t=0.96
-0.6504786903152364
% es.tEx (V/m) @ t=0.96
0.6514277192702203
% es.tEy (V/m) @ t=0.96
0
% es.tEz (V/m) @ t=0.96
-0.6504786903152255
% V (V) @ t=0.96
0.010042984689902298
% es.normE (V/m) @ t=0.98
0.9462972201881459
% es.EX (V/m) @ t=0.98
0.6573046994539724
% es.EY (V/m) @ t=0.98
0.09842420992364842
% es.EZ (V/m) @ t=0.98
-0.6563471076881602
% es.tEX (V/m) @ t=0.98
0.6573046994539755
% es.tEY (V/m) @ t=0.98
0
% es.tEZ (V/m) @ t=0.98
-0.6563471076881529
% es.Ex (V/m) @ t=0.98
0.6573046994539724
% es.Ey (V/m) @ t=0.98
0.09842420992364842
% es.Ez (V/m) @ t=0.98
-0.6563471076881602
% es.tEx (V/m) @ t=0.98
0.6573046994539755
% es.tEy (V/m) @ t=0.98
0
% es.tEz (V/m) @ t=0.98
-0.6563471076881529
% V (V) @ t=0.98
0.010133589452022234
% es.normE (V/m) @ t=1
0.9547580897476443
% es.EX (V/m) @ t=1
0.6631816796377292
% es.EY (V/m) @ t=1
0.09930422183021431
% es.EZ (V/m) @ t=1
-0.6622155250610879
% es.tEX (V/m) @ t=1
0.663181679637729
% es.tEY (V/m) @ t=1
0
% es.tEZ (V/m) @ t=1
-0.6622155250610806
% es.Ex (V/m) @ t=1
0.6631816796377292
% es.Ey (V/m) @ t=1
0.09930422183021431
% es.Ez (V/m) @ t=1
-0.6622155250610879
% es.tEx (V/m) @ t=1
0.663181679637729
% es.tEy (V/m) @ t=1
0
% es.tEz (V/m) @ t=1
-0.6622155250610806
% V (V) @ t=1
0.010224194214142172
% es.normE (V/m) @ t=1.02
0.9632189593071304
% es.EX (V/m) @ t=1.02
0.6690586598214769
% es.EY (V/m) @ t=1.02
0.1001842337367635
% es.EZ (V/m) @ t=1.02
-0.6680839424340046
% es.tEX (V/m) @ t=1.02
0.6690586598214843
% es.tEY (V/m) @ t=1.02
0
% es.tEZ (V/m) @ t=1.02
-0.6680839424339937
% es.Ex (V/m) @ t=1.02
0.6690586598214769
% es.Ey (V/m) @ t=1.02
0.1001842337367635
% es.Ez (V/m) @ t=1.02
-0.6680839424340046
% es.tEx (V/m) @ t=1.02
0.6690586598214843
% es.tEy (V/m) @ t=1.02
0
% es.tEz (V/m) @ t=1.02
-0.6680839424339937
% V (V) @ t=1.02
0.010314798976262108
% es.normE (V/m) @ t=1.04
0.9716798288666211
% es.EX (V/m) @ t=1.04
0.6749356400052344