% Model:              1 neuron.mph
% Version:            COMSOL 6.0.0.405
% Date:               Mar 16 2023, 09:52
% Dimension:          0
% Nodes:              14017
% Expressions:        14017
% Description:        Electric field norm, Electric field, X component, Electric field, Y component, Electric field, Z component, Tangential electric field, X component, Tangential electric field, Y component, Tangential electric field, Z component, Electric field, x component, Electric field, y component, Electric field, z component, Tangential electric field, x component, Tangential electric field, y component, Tangential electric field, z component, Electric potential
% Length unit:        mm
% x
1.0000000000000002
% y
12.2
% z
2
% es.normE (V/m) @ t=0
0.6965210204370322
% es.EX (V/m) @ t=0
0.48380906679410873
% es.EY (V/m) @ t=0
0.07244465912111056
% es.EZ (V/m) @ t=0
-0.4831030013316535
% es.tEX (V/m) @ t=0
0.48380906679411106
% es.tEY (V/m) @ t=0
0
% es.tEZ (V/m) @ t=0
-0.4831030013316462
% es.Ex (V/m) @ t=0
0.48380906679410873
% es.Ey (V/m) @ t=0
0.07244465912111056
% es.Ez (V/m) @ t=0
-0.4831030013316535
% es.tEx (V/m) @ t=0
0.48380906679411106
% es.tEy (V/m) @ t=0
0
% es.tEz (V/m) @ t=0
-0.4831030013316462
% V (V) @ t=0
0.007458831942197965
% es.normE (V/m) @ t=0.02
0.6015974565611149
% es.EX (V/m) @ t=0.02
0.4178743997262576
% es.EY (V/m) @ t=0.02
0.06257172888389087
% es.EZ (V/m) @ t=0.02
-0.4172645596447626
% es.tEX (V/m) @ t=0.02
0.4178743997262604
% es.tEY (V/m) @ t=0.02
0
% es.tEZ (V/m) @ t=0.02
-0.4172645596447553
% es.Ex (V/m) @ t=0.02
0.4178743997262576
% es.Ey (V/m) @ t=0.02
0.06257172888389087
% es.Ez (V/m) @ t=0.02
-0.4172645596447626
% es.tEx (V/m) @ t=0.02
0.4178743997262604
% es.tEy (V/m) @ t=0.02
0
% es.tEz (V/m) @ t=0.02
-0.4172645596447553
% V (V) @ t=0.02
0.006442324155722608
% es.normE (V/m) @ t=0.04
0.607129890280683
% es.EX (V/m) @ t=0.04
0.42171727201257136
% es.EY (V/m) @ t=0.04
0.06314715423093262
% es.EZ (V/m) @ t=0.04
-0.42110182412549957
% es.tEX (V/m) @ t=0.04
0.42171727201257303
% es.tEY (V/m) @ t=0.04
0
% es.tEZ (V/m) @ t=0.04
-0.42110182412549246
% es.Ex (V/m) @ t=0.04
0.42171727201257136
% es.Ey (V/m) @ t=0.04
0.06314715423093262
% es.Ez (V/m) @ t=0.04
-0.42110182412549957
% es.tEx (V/m) @ t=0.04
0.42171727201257303
% es.tEy (V/m) @ t=0.04
0
% es.tEz (V/m) @ t=0.04
-0.42110182412549246
% V (V) @ t=0.04
0.006501569242477171
% es.normE (V/m) @ t=0.06
0.6127122748720033
% es.EX (V/m) @ t=0.06
0.4255948429345172
% es.EY (V/m) @ t=0.06
0.06372776917028272
% es.EZ (V/m) @ t=0.06
-0.4249737341936153
% es.tEX (V/m) @ t=0.06
0.4255948429345189
% es.tEY (V/m) @ t=0.06
0
% es.tEZ (V/m) @ t=0.06
-0.4249737341936064
% es.Ex (V/m) @ t=0.06
0.4255948429345172
% es.Ey (V/m) @ t=0.06
0.06372776917028272
% es.Ez (V/m) @ t=0.06
-0.4249737341936153
% es.tEx (V/m) @ t=0.06
0.4255948429345189
% es.tEy (V/m) @ t=0.06
0
% es.tEz (V/m) @ t=0.06
-0.4249737341936064
% V (V) @ t=0.06
0.006561349658616141
% es.normE (V/m) @ t=0.08
0.6183797839219676
% es.EX (V/m) @ t=0.08
0.4295315419498823
% es.EY (V/m) @ t=0.08
0.06431723771223405
% es.EZ (V/m) @ t=0.08
-0.4289046861859569
% es.tEX (V/m) @ t=0.08
0.4295315419498831
% es.tEY (V/m) @ t=0.08
0
% es.tEZ (V/m) @ t=0.08
-0.42890468618595134
% es.Ex (V/m) @ t=0.08
0.4295315419498823
% es.Ey (V/m) @ t=0.08
0.06431723771223405
% es.Ez (V/m) @ t=0.08
-0.4289046861859569
% es.tEx (V/m) @ t=0.08
0.4295315419498831
% es.tEy (V/m) @ t=0.08
0
% es.tEz (V/m) @ t=0.08
-0.42890468618595134
% V (V) @ t=0.08
0.006622041648001948
% es.normE (V/m) @ t=0.1
0.6241066176512786
% es.EX (V/m) @ t=0.1
0.43350944833665295
% es.EY (V/m) @ t=0.1
0.06491287648003025
% es.EZ (V/m) @ t=0.1
-0.43287678549691644
% es.tEX (V/m) @ t=0.1
0.43350944833665195
% es.tEY (V/m) @ t=0.1
0
% es.tEZ (V/m) @ t=0.1
-0.43287678549690733
% es.Ex (V/m) @ t=0.1
0.43350944833665295
% es.Ey (V/m) @ t=0.1
0.06491287648003025
% es.Ez (V/m) @ t=0.1
-0.43287678549691644
% es.tEx (V/m) @ t=0.1
0.43350944833665195
% es.tEy (V/m) @ t=0.1
0
% es.tEz (V/m) @ t=0.1
-0.43287678549690733
% V (V) @ t=0.1
0.006683368928248286
% es.normE (V/m) @ t=0.12
0.6298334513805914
% es.EX (V/m) @ t=0.12
0.4374873547234176
% es.EY (V/m) @ t=0.12
0.0655085152478338
% es.EZ (V/m) @ t=0.12
-0.4368488848078833
% es.tEX (V/m) @ t=0.12
0.4374873547234195
% es.tEY (V/m) @ t=0.12
0
% es.tEZ (V/m) @ t=0.12
-0.4368488848078744
% es.Ex (V/m) @ t=0.12
0.4374873547234176
% es.Ey (V/m) @ t=0.12
0.0655085152478338
% es.Ez (V/m) @ t=0.12
-0.4368488848078833
% es.tEx (V/m) @ t=0.12
0.4374873547234195
% es.tEy (V/m) @ t=0.12
0
% es.tEz (V/m) @ t=0.12
-0.4368488848078744
% V (V) @ t=0.12
0.006744696208494625
% es.normE (V/m) @ t=0.14
0.6356178940031294
% es.EX (V/m) @ t=0.14
0.44150527527081385
% es.EY (V/m) @ t=0.14
0.06611014973073265
% es.EZ (V/m) @ t=0.14
-0.4408609412150917
% es.tEX (V/m) @ t=0.14
0.4415052752708164
% es.tEY (V/m) @ t=0.14
0
% es.tEZ (V/m) @ t=0.14
-0.44086094121508257
% es.Ex (V/m) @ t=0.14
0.44150527527081385
% es.Ey (V/m) @ t=0.14
0.06611014973073265
% es.Ez (V/m) @ t=0.14
-0.4408609412150917
% es.tEx (V/m) @ t=0.14
0.4415052752708164
% es.tEy (V/m) @ t=0.14
0
% es.tEz (V/m) @ t=0.14
-0.44086094121508257
% V (V) @ t=0.14
0.0068066401367611945
% es.normE (V/m) @ t=0.16
0.6416502299104496
% es.EX (V/m) @ t=0.16
0.4456953782914449
% es.EY (V/m) @ t=0.16
0.06673758400644406
% es.EZ (V/m) @ t=0.16
-0.4450449345453189
% es.tEX (V/m) @ t=0.16
0.44569537829144923
% es.tEY (V/m) @ t=0.16
0
% es.tEZ (V/m) @ t=0.16
-0.4450449345453169
% es.Ex (V/m) @ t=0.16
0.4456953782914449
% es.Ey (V/m) @ t=0.16
0.06673758400644406
% es.Ez (V/m) @ t=0.16
-0.4450449345453189
% es.tEx (V/m) @ t=0.16
0.44569537829144923
% es.tEy (V/m) @ t=0.16
0
% es.tEz (V/m) @ t=0.16
-0.4450449345453169
% V (V) @ t=0.16
0.006871237525192239
% es.normE (V/m) @ t=0.18
0.6476825658177736
% es.EX (V/m) @ t=0.18
0.4498854813120795
% es.EY (V/m) @ t=0.18
0.06736501828215455
% es.EZ (V/m) @ t=0.18
-0.4492289278755497
% es.tEX (V/m) @ t=0.18
0.44988548131208206
% es.tEY (V/m) @ t=0.18
0
% es.tEZ (V/m) @ t=0.18
-0.4492289278755406
% es.Ex (V/m) @ t=0.18
0.4498854813120795
% es.Ey (V/m) @ t=0.18
0.06736501828215455
% es.Ez (V/m) @ t=0.18
-0.4492289278755497
% es.tEx (V/m) @ t=0.18
0.44988548131208206
% es.tEy (V/m) @ t=0.18
0
% es.tEz (V/m) @ t=0.18
-0.4492289278755406
% V (V) @ t=0.18
0.006935834913623283
% es.normE (V/m) @ t=0.2
0.6537149017250937
% es.EX (V/m) @ t=0.2
0.45407558433271056
% es.EY (V/m) @ t=0.2
0.0679924525578702
% es.EZ (V/m) @ t=0.2
-0.45341292120577026
% es.tEX (V/m) @ t=0.2
0.4540755843327129
% es.tEY (V/m) @ t=0.2
0
% es.tEZ (V/m) @ t=0.2
-0.45341292120576826
% es.Ex (V/m) @ t=0.2
0.45407558433271056
% es.Ey (V/m) @ t=0.2
0.0679924525578702
% es.Ez (V/m) @ t=0.2
-0.45341292120577026
% es.tEx (V/m) @ t=0.2
0.4540755843327129
% es.tEy (V/m) @ t=0.2
0
% es.tEz (V/m) @ t=0.2
-0.45341292120576826
% V (V) @ t=0.2
0.007000432302054329
% es.normE (V/m) @ t=0.22
0.6597472376324154
% es.EX (V/m) @ t=0.22
0.4582656873533416
% es.EY (V/m) @ t=0.22
0.06861988683357492
% es.EZ (V/m) @ t=0.22
-0.45759691453600104
% es.tEX (V/m) @ t=0.22
0.45826568735334217
% es.tEY (V/m) @ t=0.22
0
% es.tEZ (V/m) @ t=0.22
-0.45759691453599194
% es.Ex (V/m) @ t=0.22
0.4582656873533416
% es.Ey (V/m) @ t=0.22
0.06861988683357492
% es.Ez (V/m) @ t=0.22
-0.45759691453600104
% es.tEx (V/m) @ t=0.22
0.45826568735334217
% es.tEy (V/m) @ t=0.22
0
% es.tEz (V/m) @ t=0.22
-0.45759691453599194
% V (V) @ t=0.22
0.007065029690485374
% es.normE (V/m) @ t=0.24
0.6657795735397494
% es.EX (V/m) @ t=0.24
0.4624557903739722
% es.EY (V/m) @ t=0.24
0.06924732110929122
% es.EZ (V/m) @ t=0.24
-0.46178090786624293
% es.tEX (V/m) @ t=0.24
0.46245579037397455
% es.tEY (V/m) @ t=0.24
0
% es.tEZ (V/m) @ t=0.24
-0.4617809078662338
% es.Ex (V/m) @ t=0.24
0.4624557903739722
% es.Ey (V/m) @ t=0.24
0.06924732110929122
% es.Ez (V/m) @ t=0.24
-0.46178090786624293
% es.tEx (V/m) @ t=0.24
0.46245579037397455
% es.tEy (V/m) @ t=0.24
0
% es.tEz (V/m) @ t=0.24
-0.4617809078662338
% V (V) @ t=0.24
0.007129627078916419
% es.normE (V/m) @ t=0.26
0.6718119094470725
% es.EX (V/m) @ t=0.26
0.4666458933946033
% es.EY (V/m) @ t=0.26
0.06987475538500243
% es.EZ (V/m) @ t=0.26
-0.46596490119646705
% es.tEX (V/m) @ t=0.26
0.4666458933946054
% es.tEY (V/m) @ t=0.26
0
% es.tEZ (V/m) @ t=0.26
-0.4659649011964615
% es.Ex (V/m) @ t=0.26
0.4666458933946033
% es.Ey (V/m) @ t=0.26
0.06987475538500243
% es.Ez (V/m) @ t=0.26
-0.46596490119646705
% es.tEx (V/m) @ t=0.26
0.4666458933946054
% es.tEy (V/m) @ t=0.26
0
% es.tEz (V/m) @ t=0.26
-0.4659649011964615
% V (V) @ t=0.26
0.0071942244673474645
% es.normE (V/m) @ t=0.28
0.678110877293632
% es.EX (V/m) @ t=0.28
0.47102122634865384
% es.EY (V/m) @ t=0.28
0.07052985318620661
% es.EZ (V/m) @ t=0.28
-0.47033383108381543
% es.tEX (V/m) @ t=0.28
0.4710212263486562
% es.tEY (V/m) @ t=0.28
0
% es.tEZ (V/m) @ t=0.28
-0.47033383108380633
% es.Ex (V/m) @ t=0.28
0.47102122634865384
% es.Ey (V/m) @ t=0.28
0.07052985318620661
% es.Ez (V/m) @ t=0.28
-0.47033383108381543
% es.tEx (V/m) @ t=0.28
0.4710212263486562
% es.tEy (V/m) @ t=0.28
0
% es.tEz (V/m) @ t=0.28
-0.47033383108380633
% V (V) @ t=0.28
0.007261681881540309
% es.normE (V/m) @ t=0.3
0.6848319971007111
% es.EX (V/m) @ t=0.3
0.47568982941786786
% es.EY (V/m) @ t=0.3
0.07122874998445758
% es.EZ (V/m) @ t=0.3
-0.47499556659068953
% es.tEX (V/m) @ t=0.3
0.47568982941786997
% es.tEY (V/m) @ t=0.3
0
% es.tEZ (V/m) @ t=0.3
-0.474995566590684
% es.Ex (V/m) @ t=0.3
0.47568982941786786
% es.Ey (V/m) @ t=0.3
0.07122874998445758
% es.Ez (V/m) @ t=0.3
-0.47499556659068953
% es.tEx (V/m) @ t=0.3
0.47568982941786997
% es.tEy (V/m) @ t=0.3
0
% es.tEz (V/m) @ t=0.3
-0.474995566590684
% V (V) @ t=0.3
0.007333667505990832
% es.normE (V/m) @ t=0.32
0.6915531169078719
% es.EX (V/m) @ t=0.32
0.48035843248708276
% es.EY (V/m) @ t=0.32
0.07192764678270447
% es.EZ (V/m) @ t=0.32
-0.4796573020975601
% es.tEX (V/m) @ t=0.32
0.480358432487086
% es.tEY (V/m) @ t=0.32
0
% es.tEZ (V/m) @ t=0.32
-0.4796573020975545
% es.Ex (V/m) @ t=0.32
0.48035843248708276
% es.Ey (V/m) @ t=0.32
0.07192764678270447
% es.Ez (V/m) @ t=0.32
-0.4796573020975601
% es.tEx (V/m) @ t=0.32
0.480358432487086
% es.tEy (V/m) @ t=0.32
0
% es.tEz (V/m) @ t=0.32
-0.4796573020975545
% V (V) @ t=0.32
0.007405653130441356
% es.normE (V/m) @ t=0.34
0.6982742367151165
% es.EX (V/m) @ t=0.34
0.48502703555629745
% es.EY (V/m) @ t=0.34
0.0726265435809568
% es.EZ (V/m) @ t=0.34
-0.4843190376044306
% es.tEX (V/m) @ t=0.34
0.48502703555629934
% es.tEY (V/m) @ t=0.34
0
% es.tEZ (V/m) @ t=0.34
-0.4843190376044215
% es.Ex (V/m) @ t=0.34
0.48502703555629745
% es.Ey (V/m) @ t=0.34
0.0726265435809568
% es.Ez (V/m) @ t=0.34
-0.4843190376044306
% es.tEx (V/m) @ t=0.34
0.48502703555629934
% es.tEy (V/m) @ t=0.34
0
% es.tEz (V/m) @ t=0.34
-0.4843190376044215
% V (V) @ t=0.34
0.007477638754891877
% es.normE (V/m) @ t=0.36
0.7049953565224434
% es.EX (V/m) @ t=0.36
0.48969563862551013
% es.EY (V/m) @ t=0.36
0.07332544037920555
% es.EZ (V/m) @ t=0.36
-0.4889807731113083
% es.tEX (V/m) @ t=0.36
0.489695638625512
% es.tEY (V/m) @ t=0.36
0
% es.tEZ (V/m) @ t=0.36
-0.48898077311129917
% es.Ex (V/m) @ t=0.36
0.48969563862551013
% es.Ey (V/m) @ t=0.36
0.07332544037920555
% es.Ez (V/m) @ t=0.36
-0.4889807731113083
% es.tEx (V/m) @ t=0.36
0.489695638625512
% es.tEy (V/m) @ t=0.36
0
% es.tEz (V/m) @ t=0.36
-0.48898077311129917
% V (V) @ t=0.36
0.0075496243793424
% es.normE (V/m) @ t=0.38
0.7117164763298413
% es.EX (V/m) @ t=0.38
0.49436424169472837
% es.EY (V/m) @ t=0.38
0.07402433717746096
% es.EZ (V/m) @ t=0.38
-0.49364250861816816
% es.tEX (V/m) @ t=0.38
0.4943642416947298
% es.tEY (V/m) @ t=0.38
0
% es.tEZ (V/m) @ t=0.38
-0.4936425086181626
% es.Ex (V/m) @ t=0.38
0.49436424169472837
% es.Ey (V/m) @ t=0.38
0.07402433717746096
% es.Ez (V/m) @ t=0.38
-0.49364250861816816
% es.tEx (V/m) @ t=0.38
0.4943642416947298
% es.tEy (V/m) @ t=0.38
0
% es.tEz (V/m) @ t=0.38
-0.4936425086181626
% V (V) @ t=0.38
0.007621610003792924
% es.normE (V/m) @ t=0.4
0.7184375961373222
% es.EX (V/m) @ t=0.4
0.4990328447639406
% es.EY (V/m) @ t=0.4
0.07472323397570316
% es.EZ (V/m) @ t=0.4
-0.4983042441250489
% es.tEX (V/m) @ t=0.4
0.4990328447639434
% es.tEY (V/m) @ t=0.4
0
% es.tEZ (V/m) @ t=0.4
-0.4983042441250398
% es.Ex (V/m) @ t=0.4
0.4990328447639406
% es.Ey (V/m) @ t=0.4
0.07472323397570316
% es.Ez (V/m) @ t=0.4
-0.4983042441250489
% es.tEx (V/m) @ t=0.4
0.4990328447639434
% es.tEy (V/m) @ t=0.4
0
% es.tEz (V/m) @ t=0.4
-0.4983042441250398
% V (V) @ t=0.4
0.007693595628243447
% es.normE (V/m) @ t=0.42
0.7251587159448767
% es.EX (V/m) @ t=0.42
0.5037014478331586
% es.EY (V/m) @ t=0.42
0.07542213077395135
% es.EZ (V/m) @ t=0.42
-0.502965979631923
% es.tEX (V/m) @ t=0.42
0.5037014478331614
% es.tEY (V/m) @ t=0.42
0
% es.tEZ (V/m) @ t=0.42
-0.5029659796319139
% es.Ex (V/m) @ t=0.42
0.5037014478331586
% es.Ey (V/m) @ t=0.42
0.07542213077395135
% es.Ez (V/m) @ t=0.42
-0.502965979631923
% es.tEx (V/m) @ t=0.42
0.5037014478331614
% es.tEy (V/m) @ t=0.42
0
% es.tEz (V/m) @ t=0.42
-0.5029659796319139
% V (V) @ t=0.42
0.00776558125269397
% es.normE (V/m) @ t=0.44
0.7318798357524927
% es.EX (V/m) @ t=0.44
0.5083700509023709
% es.EY (V/m) @ t=0.44
0.07612102757220005
% es.EZ (V/m) @ t=0.44
-0.5076277151387882
% es.tEX (V/m) @ t=0.44
0.5083700509023736
% es.tEY (V/m) @ t=0.44
0
% es.tEZ (V/m) @ t=0.44
-0.5076277151387774
% es.Ex (V/m) @ t=0.44
0.5083700509023709
% es.Ey (V/m) @ t=0.44
0.07612102757220005
% es.Ez (V/m) @ t=0.44
-0.5076277151387882
% es.tEx (V/m) @ t=0.44
0.5083700509023736
% es.tEy (V/m) @ t=0.44
0
% es.tEz (V/m) @ t=0.44
-0.5076277151387774
% V (V) @ t=0.44
0.007837566877144491
% es.normE (V/m) @ t=0.46
0.7386009555601816
% es.EX (V/m) @ t=0.46
0.5130386539715842
% es.EY (V/m) @ t=0.46
0.0768199243704536
% es.EZ (V/m) @ t=0.46
-0.5122894506456557
% es.tEX (V/m) @ t=0.46
0.5130386539715852
% es.tEY (V/m) @ t=0.46
0
% es.tEZ (V/m) @ t=0.46
-0.5122894506456483
% es.Ex (V/m) @ t=0.46
0.5130386539715842
% es.Ey (V/m) @ t=0.46
0.0768199243704536
% es.Ez (V/m) @ t=0.46
-0.5122894506456557
% es.tEx (V/m) @ t=0.46
0.5130386539715852
% es.tEy (V/m) @ t=0.46
0
% es.tEz (V/m) @ t=0.46
-0.5122894506456483
% V (V) @ t=0.46
0.007909552501595014
% es.normE (V/m) @ t=0.48
0.7453220753679455
% es.EX (V/m) @ t=0.48
0.5177072570408
% es.EY (V/m) @ t=0.48
0.07751882116870165
% es.EZ (V/m) @ t=0.48
-0.5169511861525329
% es.tEX (V/m) @ t=0.48
0.517707257040801
% es.tEY (V/m) @ t=0.48
0
% es.tEZ (V/m) @ t=0.48
-0.5169511861525256
% es.Ex (V/m) @ t=0.48
0.5177072570408
% es.Ey (V/m) @ t=0.48
0.07751882116870165
% es.Ez (V/m) @ t=0.48
-0.5169511861525329
% es.tEx (V/m) @ t=0.48
0.517707257040801
% es.tEy (V/m) @ t=0.48
0
% es.tEz (V/m) @ t=0.48
-0.5169511861525256
% V (V) @ t=0.48
0.007981538126045537
% es.normE (V/m) @ t=0.5
0.7520431951757638
% es.EX (V/m) @ t=0.5
0.5223758601100151
% es.EY (V/m) @ t=0.5
0.07821771796694774
% es.EZ (V/m) @ t=0.5
-0.5216129216593923
% es.tEX (V/m) @ t=0.5
0.5223758601100157
% es.tEY (V/m) @ t=0.5
0
% es.tEZ (V/m) @ t=0.5
-0.5216129216593779
% es.Ex (V/m) @ t=0.5
0.5223758601100151
% es.Ey (V/m) @ t=0.5
0.07821771796694774
% es.Ez (V/m) @ t=0.5
-0.5216129216593923
% es.tEx (V/m) @ t=0.5
0.5223758601100157
% es.tEy (V/m) @ t=0.5
0
% es.tEz (V/m) @ t=0.5
-0.5216129216593779
% V (V) @ t=0.5
0.008053523750496063
% es.normE (V/m) @ t=0.52
0.7587643149836645
% es.EX (V/m) @ t=0.52
0.5270444631792278
% es.EY (V/m) @ t=0.52
0.07891661476518785
% es.EZ (V/m) @ t=0.52
-0.5262746571662846
% es.tEX (V/m) @ t=0.52
0.5270444631792306
% es.tEY (V/m) @ t=0.52
0
% es.tEZ (V/m) @ t=0.52
-0.5262746571662702
% es.Ex (V/m) @ t=0.52
0.5270444631792278
% es.Ey (V/m) @ t=0.52
0.07891661476518785
% es.Ez (V/m) @ t=0.52
-0.5262746571662846
% es.tEx (V/m) @ t=0.52
0.5270444631792306
% es.tEy (V/m) @ t=0.52
0
% es.tEz (V/m) @ t=0.52
-0.5262746571662702
% V (V) @ t=0.52
0.008125509374946584
% es.normE (V/m) @ t=0.54
0.7654854347916087
% es.EX (V/m) @ t=0.54
0.531713066248441
% es.EY (V/m) @ t=0.54
0.0796155115634497
% es.EZ (V/m) @ t=0.54
-0.5309363926731476
% es.tEX (V/m) @ t=0.54
0.5317130662484453
% es.tEY (V/m) @ t=0.54
0
% es.tEZ (V/m) @ t=0.54
-0.5309363926731367
% es.Ex (V/m) @ t=0.54
0.531713066248441
% es.Ey (V/m) @ t=0.54
0.0796155115634497
% es.Ez (V/m) @ t=0.54
-0.5309363926731476
% es.tEx (V/m) @ t=0.54
0.5317130662484453
% es.tEy (V/m) @ t=0.54
0
% es.tEz (V/m) @ t=0.54
-0.5309363926731367
% V (V) @ t=0.54
0.008197494999397108
% es.normE (V/m) @ t=0.56
0.7728155049399794
% es.EX (V/m) @ t=0.56
0.5368045307688666
% es.EY (V/m) @ t=0.56
0.08037808628119944
% es.EZ (V/m) @ t=0.56
-0.5360204767873717
% es.tEX (V/m) @ t=0.56
0.5368045307688689
% es.tEY (V/m) @ t=0.56
0
% es.tEZ (V/m) @ t=0.56
-0.5360204767873609
% es.Ex (V/m) @ t=0.56
0.5368045307688666
% es.Ey (V/m) @ t=0.56
0.08037808628119944
% es.Ez (V/m) @ t=0.56
-0.5360204767873717
% es.tEx (V/m) @ t=0.56
0.5368045307688689
% es.tEy (V/m) @ t=0.56
0
% es.tEz (V/m) @ t=0.56
-0.5360204767873609
% V (V) @ t=0.56
0.008275978579765714
% es.normE (V/m) @ t=0.58
0.7803131749686388
% es.EX (V/m) @ t=0.58
0.5420123783895429
% es.EY (V/m) @ t=0.58
0.08115818691356555
% es.EZ (V/m) @ t=0.58
-0.5412208028531025
% es.tEX (V/m) @ t=0.58
0.5420123783895452
% es.tEY (V/m) @ t=0.58
0
% es.tEZ (V/m) @ t=0.58
-0.5412208028530952
% es.Ex (V/m) @ t=0.58
0.5420123783895429
% es.Ey (V/m) @ t=0.58
0.08115818691356555
% es.Ez (V/m) @ t=0.58
-0.5412208028531025
% es.tEx (V/m) @ t=0.58
0.5420123783895452
% es.tEy (V/m) @ t=0.58
0
% es.tEz (V/m) @ t=0.58
-0.5412208028530952
% V (V) @ t=0.58
0.00835625057629957
% es.normE (V/m) @ t=0.6
0.7878108449975385
% es.EX (V/m) @ t=0.6
0.5472202260102156
% es.EY (V/m) @ t=0.6
0.08193828754592791
% es.EZ (V/m) @ t=0.6
-0.5464211289188403
% es.tEX (V/m) @ t=0.6
0.5472202260102179
% es.tEY (V/m) @ t=0.6
0
% es.tEZ (V/m) @ t=0.6
-0.5464211289188294
% es.Ex (V/m) @ t=0.6
0.5472202260102156
% es.Ey (V/m) @ t=0.6
0.08193828754592791
% es.Ez (V/m) @ t=0.6
-0.5464211289188403
% es.tEx (V/m) @ t=0.6
0.5472202260102179
% es.tEy (V/m) @ t=0.6
0
% es.tEz (V/m) @ t=0.6
-0.5464211289188294
% V (V) @ t=0.6
0.008436522572833428
% es.normE (V/m) @ t=0.62
0.7953085150266683
% es.EX (V/m) @ t=0.62
0.5524280736308919
% es.EY (V/m) @ t=0.62
0.0827183881783003
% es.EZ (V/m) @ t=0.62
-0.5516214549845715
% es.tEX (V/m) @ t=0.62
0.5524280736308909
% es.tEY (V/m) @ t=0.62
0
% es.tEZ (V/m) @ t=0.62
-0.5516214549845606
% es.Ex (V/m) @ t=0.62
0.5524280736308919
% es.Ey (V/m) @ t=0.62
0.0827183881783003
% es.Ez (V/m) @ t=0.62
-0.5516214549845715
% es.tEx (V/m) @ t=0.62
0.5524280736308909
% es.tEy (V/m) @ t=0.62
0
% es.tEz (V/m) @ t=0.62
-0.5516214549845606
% V (V) @ t=0.62
0.008516794569367284
% es.normE (V/m) @ t=0.64
0.8028061850560162
% es.EX (V/m) @ t=0.64
0.557635921251563
% es.EY (V/m) @ t=0.64
0.08349848881067196
% es.EZ (V/m) @ t=0.64
-0.5568217810502987
% es.tEX (V/m) @ t=0.64
0.5576359212515671
% es.tEY (V/m) @ t=0.64
0
% es.tEZ (V/m) @ t=0.64
-0.5568217810502842
% es.Ex (V/m) @ t=0.64
0.557635921251563
% es.Ey (V/m) @ t=0.64
0.08349848881067196
% es.Ez (V/m) @ t=0.64
-0.5568217810502987
% es.tEx (V/m) @ t=0.64
0.5576359212515671
% es.tEy (V/m) @ t=0.64
0
% es.tEz (V/m) @ t=0.64
-0.5568217810502842
% V (V) @ t=0.64
0.008597066565901142
% es.normE (V/m) @ t=0.66
0.810303855085588
% es.EX (V/m) @ t=0.66
0.5628437688722319
% es.EY (V/m) @ t=0.66
0.08427858944302058
% es.EZ (V/m) @ t=0.66
-0.562022107116037
% es.tEX (V/m) @ t=0.66
0.5628437688722361
% es.tEY (V/m) @ t=0.66
0
% es.tEZ (V/m) @ t=0.66
-0.5620221071160296
% es.Ex (V/m) @ t=0.66
0.5628437688722319
% es.Ey (V/m) @ t=0.66
0.08427858944302058
% es.Ez (V/m) @ t=0.66
-0.562022107116037
% es.tEx (V/m) @ t=0.66
0.5628437688722361
% es.tEy (V/m) @ t=0.66
0
% es.tEz (V/m) @ t=0.66
-0.5620221071160296
% V (V) @ t=0.66
0.008677338562434998
% es.normE (V/m) @ t=0.68
0.8178015251153596
% es.EX (V/m) @ t=0.68
0.5680516164929049
% es.EY (V/m) @ t=0.68
0.08505869007539138
% es.EZ (V/m) @ t=0.68
-0.5672224331817499
% es.tEX (V/m) @ t=0.68
0.568051616492907
% es.tEY (V/m) @ t=0.68
0
% es.tEZ (V/m) @ t=0.68
-0.5672224331817426
% es.Ex (V/m) @ t=0.68
0.5680516164929049
% es.Ey (V/m) @ t=0.68
0.08505869007539138
% es.Ez (V/m) @ t=0.68
-0.5672224331817499
% es.tEx (V/m) @ t=0.68
0.568051616492907
% es.tEy (V/m) @ t=0.68
0
% es.tEz (V/m) @ t=0.68
-0.5672224331817426
% V (V) @ t=0.68
0.008757610558968855
% es.normE (V/m) @ t=0.7
0.8252991951453617
% es.EX (V/m) @ t=0.7
0.5732594641135847
% es.EY (V/m) @ t=0.7
0.08583879070775904
% es.EZ (V/m) @ t=0.7
-0.5724227592474911
% es.tEX (V/m) @ t=0.7
0.5732594641135833
% es.tEY (V/m) @ t=0.7
0
% es.tEZ (V/m) @ t=0.7
-0.5724227592474764
% es.Ex (V/m) @ t=0.7
0.5732594641135847
% es.Ey (V/m) @ t=0.7
0.08583879070775904
% es.Ez (V/m) @ t=0.7
-0.5724227592474911
% es.tEx (V/m) @ t=0.7
0.5732594641135833
% es.tEy (V/m) @ t=0.7
0
% es.tEz (V/m) @ t=0.7
-0.5724227592474764
% V (V) @ t=0.7
0.00883788255550271
% es.normE (V/m) @ t=0.72
0.8327968651755525
% es.EX (V/m) @ t=0.72
0.5784673117342537
% es.EY (V/m) @ t=0.72
0.08661889134012876
% es.EZ (V/m) @ t=0.72
-0.577623085313226
% es.tEX (V/m) @ t=0.72
0.5784673117342578
% es.tEY (V/m) @ t=0.72
0
% es.tEZ (V/m) @ t=0.72
-0.5776230853132187
% es.Ex (V/m) @ t=0.72
0.5784673117342537
% es.Ey (V/m) @ t=0.72
0.08661889134012876
% es.Ez (V/m) @ t=0.72
-0.577623085313226
% es.tEx (V/m) @ t=0.72
0.5784673117342578
% es.tEy (V/m) @ t=0.72
0
% es.tEz (V/m) @ t=0.72
-0.5776230853132187
% V (V) @ t=0.72
0.008918154552036567
% es.normE (V/m) @ t=0.74
0.840294535205946
% es.EX (V/m) @ t=0.74
0.5836751593549321
% es.EY (V/m) @ t=0.74
0.08739899197248999
% es.EZ (V/m) @ t=0.74
-0.5828234113789601
% es.tEX (V/m) @ t=0.74
0.5836751593549325
% es.tEY (V/m) @ t=0.74
0
% es.tEZ (V/m) @ t=0.74
-0.5828234113789454
% es.Ex (V/m) @ t=0.74
0.5836751593549321
% es.Ey (V/m) @ t=0.74
0.08739899197248999
% es.Ez (V/m) @ t=0.74
-0.5828234113789601
% es.tEx (V/m) @ t=0.74
0.5836751593549325
% es.tEy (V/m) @ t=0.74
0
% es.tEz (V/m) @ t=0.74
-0.5828234113789454
% V (V) @ t=0.74
0.008998426548570424
% es.normE (V/m) @ t=0.76
0.847792205236523
% es.EX (V/m) @ t=0.76
0.5888830069755984
% es.EY (V/m) @ t=0.76
0.08817909260486237
% es.EZ (V/m) @ t=0.76
-0.588023737444695
% es.tEX (V/m) @ t=0.76
0.5888830069755984
% es.tEY (V/m) @ t=0.76
0
% es.tEZ (V/m) @ t=0.76
-0.5880237374446877
% es.Ex (V/m) @ t=0.76
0.5888830069755984
% es.Ey (V/m) @ t=0.76
0.08817909260486237
% es.Ez (V/m) @ t=0.76
-0.588023737444695
% es.tEx (V/m) @ t=0.76
0.5888830069755984
% es.tEy (V/m) @ t=0.76
0
% es.tEz (V/m) @ t=0.76
-0.5880237374446877
% V (V) @ t=0.76
0.00907869854510428
% es.normE (V/m) @ t=0.78
0.8552898752672884
% es.EX (V/m) @ t=0.78
0.594090854596274
% es.EY (V/m) @ t=0.78
0.08895919323722046
% es.EZ (V/m) @ t=0.78
-0.5932240635104249
% es.tEX (V/m) @ t=0.78
0.5940908545962778
% es.tEY (V/m) @ t=0.78
0
% es.tEZ (V/m) @ t=0.78
-0.593224063510414
% es.Ex (V/m) @ t=0.78
0.594090854596274
% es.Ey (V/m) @ t=0.78
0.08895919323722046
% es.Ez (V/m) @ t=0.78
-0.5932240635104249
% es.tEx (V/m) @ t=0.78
0.5940908545962778
% es.tEy (V/m) @ t=0.78
0
% es.tEz (V/m) @ t=0.78
-0.593224063510414
% V (V) @ t=0.78
0.009158970541638134
% es.normE (V/m) @ t=0.8
0.8627875452982315
% es.EX (V/m) @ t=0.8
0.599298702216952
% es.EY (V/m) @ t=0.8
0.08973929386957996
% es.EZ (V/m) @ t=0.8
-0.598424389576149
% es.tEX (V/m) @ t=0.8
0.5992987022169523
% es.tEY (V/m) @ t=0.8
0
% es.tEZ (V/m) @ t=0.8
-0.5984243895761416
% es.Ex (V/m) @ t=0.8
0.599298702216952
% es.Ey (V/m) @ t=0.8
0.08973929386957996
% es.Ez (V/m) @ t=0.8
-0.598424389576149
% es.tEx (V/m) @ t=0.8
0.5992987022169523
% es.tEy (V/m) @ t=0.8
0
% es.tEz (V/m) @ t=0.8
-0.5984243895761416
% V (V) @ t=0.8
0.009239242538171991
% es.normE (V/m) @ t=0.82
0.8704454159076203
% es.EX (V/m) @ t=0.82
0.6046178150889641
% es.EY (V/m) @ t=0.82
0.09053608204286115
% es.EZ (V/m) @ t=0.82
-0.6037358310777388
% es.tEX (V/m) @ t=0.82
0.6046178150889623
% es.tEY (V/m) @ t=0.82
0
% es.tEZ (V/m) @ t=0.82
-0.6037358310777243
% es.Ex (V/m) @ t=0.82
0.6046178150889641
% es.Ey (V/m) @ t=0.82
0.09053608204286115
% es.Ez (V/m) @ t=0.82
-0.6037358310777388
% es.tEx (V/m) @ t=0.82
0.6046178150889623
% es.tEy (V/m) @ t=0.82
0
% es.tEz (V/m) @ t=0.82
-0.6037358310777243
% V (V) @ t=0.82
0.00932122814006574
% es.normE (V/m) @ t=0.84
0.8788269890010012
% es.EX (V/m) @ t=0.84
0.6104395662136974
% es.EY (V/m) @ t=0.84
0.09140825580419437
% es.EZ (V/m) @ t=0.84
-0.6095492340439475
% es.tEX (V/m) @ t=0.84
0.6104395662136977
% es.tEY (V/m) @ t=0.84
0
% es.tEZ (V/m) @ t=0.84
-0.6095492340439401
% es.Ex (V/m) @ t=0.84
0.6104395662136974
% es.Ey (V/m) @ t=0.84
0.09140825580419437
% es.Ez (V/m) @ t=0.84
-0.6095492340439475
% es.tEx (V/m) @ t=0.84
0.6104395662136977
% es.tEy (V/m) @ t=0.84
0
% es.tEz (V/m) @ t=0.84
-0.6095492340439401
% V (V) @ t=0.84
0.009410954915358736
% es.normE (V/m) @ t=0.86
0.8872085620947756
% es.EX (V/m) @ t=0.86
0.616261317338443
% es.EY (V/m) @ t=0.86
0.0922804295655287
% es.EZ (V/m) @ t=0.86
-0.6153626370101455
% es.tEX (V/m) @ t=0.86
0.6162613173384397
% es.tEY (V/m) @ t=0.86
0
% es.tEZ (V/m) @ t=0.86
-0.6153626370101346
% es.Ex (V/m) @ t=0.86
0.616261317338443
% es.Ey (V/m) @ t=0.86
0.0922804295655287
% es.Ez (V/m) @ t=0.86
-0.6153626370101455
% es.tEx (V/m) @ t=0.86
0.6162613173384397
% es.tEy (V/m) @ t=0.86
0
% es.tEz (V/m) @ t=0.86
-0.6153626370101346
% V (V) @ t=0.86
0.009500681690651734
% es.normE (V/m) @ t=0.88
0.8955901351889425
% es.EX (V/m) @ t=0.88
0.6220830684631751
% es.EY (V/m) @ t=0.88
0.0931526033268612
% es.EZ (V/m) @ t=0.88
-0.6211760399763644
% es.tEX (V/m) @ t=0.88
0.6220830684631782
% es.tEY (V/m) @ t=0.88
0
% es.tEZ (V/m) @ t=0.88
-0.62117603997635
% es.Ex (V/m) @ t=0.88
0.6220830684631751
% es.Ey (V/m) @ t=0.88
0.0931526033268612
% es.Ez (V/m) @ t=0.88
-0.6211760399763644
% es.tEx (V/m) @ t=0.88
0.6220830684631782
% es.tEy (V/m) @ t=0.88
0
% es.tEz (V/m) @ t=0.88
-0.62117603997635
% V (V) @ t=0.88
0.009590408465944732
% es.normE (V/m) @ t=0.9
0.90397170828347
% es.EX (V/m) @ t=0.9
0.6279048195879064
% es.EY (V/m) @ t=0.9
0.09402477708818047
% es.EZ (V/m) @ t=0.9
-0.626989442942566
% es.tEX (V/m) @ t=0.9
0.6279048195879136
% es.tEY (V/m) @ t=0.9
0
% es.tEZ (V/m) @ t=0.9
-0.6269894429425587
% es.Ex (V/m) @ t=0.9
0.6279048195879064
% es.Ey (V/m) @ t=0.9
0.09402477708818047
% es.Ez (V/m) @ t=0.9
-0.626989442942566
% es.tEx (V/m) @ t=0.9
0.6279048195879136
% es.tEy (V/m) @ t=0.9
0
% es.tEz (V/m) @ t=0.9
-0.6269894429425587
% V (V) @ t=0.9
0.00968013524123773
% es.normE (V/m) @ t=0.92
0.912353281378377
% es.EX (V/m) @ t=0.92
0.6337265707126507
% es.EY (V/m) @ t=0.92
0.0948969508495005
% es.EZ (V/m) @ t=0.92
-0.6328028459087778
% es.tEX (V/m) @ t=0.92
0.633726570712652
% es.tEY (V/m) @ t=0.92
0
% es.tEZ (V/m) @ t=0.92
-0.632802845908774
% es.Ex (V/m) @ t=0.92
0.6337265707126507
% es.Ey (V/m) @ t=0.92
0.0948969508495005
% es.Ez (V/m) @ t=0.92
-0.6328028459087778
% es.tEx (V/m) @ t=0.92
0.633726570712652
% es.tEy (V/m) @ t=0.92
0
% es.tEz (V/m) @ t=0.92
-0.632802845908774
% V (V) @ t=0.92
0.009769862016530725
% es.normE (V/m) @ t=0.94
0.9207348544736285
% es.EX (V/m) @ t=0.94
0.6395483218373859
% es.EY (V/m) @ t=0.94
0.09576912461083309
% es.EZ (V/m) @ t=0.94
-0.6386162488749865
% es.tEX (V/m) @ t=0.94
0.6395483218373879
% es.tEY (V/m) @ t=0.94
0
% es.tEZ (V/m) @ t=0.94
-0.6386162488749756
% es.Ex (V/m) @ t=0.94
0.6395483218373859
% es.Ey (V/m) @ t=0.94
0.09576912461083309
% es.Ez (V/m) @ t=0.94
-0.6386162488749865
% es.tEx (V/m) @ t=0.94
0.6395483218373879
% es.tEy (V/m) @ t=0.94
0
% es.tEz (V/m) @ t=0.94
-0.6386162488749756
% V (V) @ t=0.94
0.009859588791823725
% es.normE (V/m) @ t=0.96
0.9291164275692216
% es.EX (V/m) @ t=0.96
0.645370072962127
% es.EY (V/m) @ t=0.96
0.09664129837216184
% es.EZ (V/m) @ t=0.96
-0.644429651841181
% es.tEX (V/m) @ t=0.96
0.6453700729621268
% es.tEY (V/m) @ t=0.96
0
% es.tEZ (V/m) @ t=0.96
-0.6444296518411701
% es.Ex (V/m) @ t=0.96
0.645370072962127
% es.Ey (V/m) @ t=0.96
0.09664129837216184
% es.Ez (V/m) @ t=0.96
-0.644429651841181
% es.tEx (V/m) @ t=0.96
0.6453700729621268
% es.tEy (V/m) @ t=0.96
0
% es.tEz (V/m) @ t=0.96
-0.6444296518411701
% V (V) @ t=0.96
0.009949315567116722
% es.normE (V/m) @ t=0.98
0.9374980006651641
% es.EX (V/m) @ t=0.98
0.651191824086865
% es.EY (V/m) @ t=0.98
0.09751347213349354
% es.EZ (V/m) @ t=0.98
-0.6502430548074003
% es.tEX (V/m) @ t=0.98
0.6511918240868684
% es.tEY (V/m) @ t=0.98
0
% es.tEZ (V/m) @ t=0.98
-0.650243054807393
% es.Ex (V/m) @ t=0.98
0.651191824086865
% es.Ey (V/m) @ t=0.98
0.09751347213349354
% es.Ez (V/m) @ t=0.98
-0.6502430548074003
% es.tEx (V/m) @ t=0.98
0.6511918240868684
% es.tEy (V/m) @ t=0.98
0
% es.tEz (V/m) @ t=0.98
-0.650243054807393
% V (V) @ t=0.98
0.01003904234240972
% es.normE (V/m) @ t=1
0.9458795737614207
% es.EX (V/m) @ t=1
0.6570135752115969
% es.EY (V/m) @ t=1
0.09838564589481624
% es.EZ (V/m) @ t=1
-0.6560564577736085
% es.tEX (V/m) @ t=1
0.6570135752116033
% es.tEY (V/m) @ t=1
0
% es.tEZ (V/m) @ t=1
-0.6560564577735941
% es.Ex (V/m) @ t=1
0.6570135752115969
% es.Ey (V/m) @ t=1
0.09838564589481624
% es.Ez (V/m) @ t=1
-0.6560564577736085
% es.tEx (V/m) @ t=1
0.6570135752116033
% es.tEy (V/m) @ t=1
0
% es.tEz (V/m) @ t=1
-0.6560564577735941
% V (V) @ t=1
0.010128769117702718
% es.normE (V/m) @ t=1.02
0.9542611468580011
% es.EX (V/m) @ t=1.02
0.6628353263363318
% es.EY (V/m) @ t=1.02
0.09925781965615149
% es.EZ (V/m) @ t=1.02
-0.6618698607398208
% es.tEX (V/m) @ t=1.02
0.6628353263363387
% es.tEY (V/m) @ t=1.02
0
% es.tEZ (V/m) @ t=1.02
-0.6618698607398028
% es.Ex (V/m) @ t=1.02
0.6628353263363318
% es.Ey (V/m) @ t=1.02
0.09925781965615149
% es.Ez (V/m) @ t=1.02
-0.6618698607398208
% es.tEx (V/m) @ t=1.02
0.6628353263363387
% es.tEy (V/m) @ t=1.02
0
% es.tEz (V/m) @ t=1.02
-0.6618698607398028
% V (V) @ t=1.02
0.010218495892995717
% es.normE (V/m) @ t=1.04
0.962642719954891
% es.EX (V/m) @ t=1.04
0.6686570774610725
% es.EY (V/m) @ t=1.04