% Model:              1 neuron.mph
% Version:            COMSOL 6.0.0.405
% Date:               Mar 16 2023, 09:57
% Dimension:          0
% Nodes:              14017
% Expressions:        14017
% Description:        Electric field norm, Electric field, X component, Electric field, Y component, Electric field, Z component, Tangential electric field, X component, Tangential electric field, Y component, Tangential electric field, Z component, Electric field, x component, Electric field, y component, Electric field, z component, Tangential electric field, x component, Tangential electric field, y component, Tangential electric field, z component, Electric potential
% Length unit:        mm
% x
1.33
% y
12.2
% z
1
% es.normE (V/m) @ t=0
1.5500834129540446
% es.EX (V/m) @ t=0
0.4784545021967528
% es.EY (V/m) @ t=0
0.11591189031191551
% es.EZ (V/m) @ t=0
1.4698207678393982
% es.tEX (V/m) @ t=0
0.47845450219675456
% es.tEY (V/m) @ t=0
0
% es.tEZ (V/m) @ t=0
1.4698207678393995
% es.Ex (V/m) @ t=0
0.4784545021967528
% es.Ey (V/m) @ t=0
0.11591189031191551
% es.Ez (V/m) @ t=0
1.4698207678393982
% es.tEx (V/m) @ t=0
0.47845450219675456
% es.tEy (V/m) @ t=0
0
% es.tEz (V/m) @ t=0
1.4698207678393995
% V (V) @ t=0
0.007249782307847395
% es.normE (V/m) @ t=0.02
1.3388337657414002
% es.EX (V/m) @ t=0.02
0.41324940183728665
% es.EY (V/m) @ t=0.02
0.10011509789323114
% es.EZ (V/m) @ t=0.02
1.2695095354416421
% es.tEX (V/m) @ t=0.02
0.413249401837291
% es.tEY (V/m) @ t=0.02
0
% es.tEZ (V/m) @ t=0.02
1.2695095354416388
% es.Ex (V/m) @ t=0.02
0.41324940183728665
% es.Ey (V/m) @ t=0.02
0.10011509789323114
% es.Ez (V/m) @ t=0.02
1.2695095354416421
% es.tEx (V/m) @ t=0.02
0.413249401837291
% es.tEy (V/m) @ t=0.02
0
% es.tEz (V/m) @ t=0.02
1.2695095354416388
% V (V) @ t=0.02
0.0062617619399930186
% es.normE (V/m) @ t=0.04
1.3511456490797449
% es.EX (V/m) @ t=0.04
0.41704963402266637
% es.EY (V/m) @ t=0.04
0.10103575400608295
% es.EZ (V/m) @ t=0.04
1.2811839146286006
% es.tEX (V/m) @ t=0.04
0.41704963402267126
% es.tEY (V/m) @ t=0.04
0
% es.tEZ (V/m) @ t=0.04
1.2811839146286008
% es.Ex (V/m) @ t=0.04
0.41704963402266637
% es.Ey (V/m) @ t=0.04
0.10103575400608295
% es.Ez (V/m) @ t=0.04
1.2811839146286006
% es.tEx (V/m) @ t=0.04
0.41704963402267126
% es.tEy (V/m) @ t=0.04
0
% es.tEz (V/m) @ t=0.04
1.2811839146286008
% V (V) @ t=0.04
0.0063193448973264
% es.normE (V/m) @ t=0.06
1.3635671937457765
% es.EX (V/m) @ t=0.06
0.4208837159204807
% es.EY (V/m) @ t=0.06
0.10196461047892291
% es.EZ (V/m) @ t=0.06
1.2929622765151387
% es.tEX (V/m) @ t=0.06
0.4208837159204819
% es.tEY (V/m) @ t=0.06
0
% es.tEZ (V/m) @ t=0.06
1.2929622765151398
% es.Ex (V/m) @ t=0.06
0.4208837159204807
% es.Ey (V/m) @ t=0.06
0.10196461047892291
% es.Ez (V/m) @ t=0.06
1.2929622765151387
% es.tEx (V/m) @ t=0.06
0.4208837159204819
% es.tEy (V/m) @ t=0.06
0
% es.tEz (V/m) @ t=0.06
1.2929622765151398
% V (V) @ t=0.06
0.00637744061993661
% es.normE (V/m) @ t=0.08
1.3761814259919518
% es.EX (V/m) @ t=0.08
0.42477727085036043
% es.EY (V/m) @ t=0.08
0.10290787547347224
% es.EZ (V/m) @ t=0.08
1.304923349576225
% es.tEX (V/m) @ t=0.08
0.4247772708503632
% es.tEY (V/m) @ t=0.08
0
% es.tEZ (V/m) @ t=0.08
1.3049233495762218
% es.Ex (V/m) @ t=0.08
0.42477727085036043
% es.Ey (V/m) @ t=0.08
0.10290787547347224
% es.Ez (V/m) @ t=0.08
1.304923349576225
% es.tEx (V/m) @ t=0.08
0.4247772708503632
% es.tEy (V/m) @ t=0.08
0
% es.tEz (V/m) @ t=0.08
1.3049233495762218
% V (V) @ t=0.08
0.006436437808445424
% es.normE (V/m) @ t=0.1
1.3889232911848102
% es.EX (V/m) @ t=0.1
0.42871021969616263
% es.EY (V/m) @ t=0.1
0.10386068442558027
% es.EZ (V/m) @ t=0.1
1.3170054473841142
% es.tEX (V/m) @ t=0.1
0.4287102196961676
% es.tEY (V/m) @ t=0.1
0
% es.tEZ (V/m) @ t=0.1
1.3170054473841173
% es.Ex (V/m) @ t=0.1
0.42871021969616263
% es.Ey (V/m) @ t=0.1
0.10386068442558027
% es.Ez (V/m) @ t=0.1
1.3170054473841142
% es.tEx (V/m) @ t=0.1
0.4287102196961676
% es.tEy (V/m) @ t=0.1
0
% es.tEz (V/m) @ t=0.1
1.3170054473841173
% V (V) @ t=0.1
0.006496032112496738
% es.normE (V/m) @ t=0.12
1.4016651563776668
% es.EX (V/m) @ t=0.12
0.4326431685419625
% es.EY (V/m) @ t=0.12
0.10481349337765411
% es.EZ (V/m) @ t=0.12
1.3290875451920043
% es.tEX (V/m) @ t=0.12
0.43264316854196494
% es.tEY (V/m) @ t=0.12
0
% es.tEZ (V/m) @ t=0.12
1.329087545191996
% es.Ex (V/m) @ t=0.12
0.4326431685419625
% es.Ey (V/m) @ t=0.12
0.10481349337765411
% es.Ez (V/m) @ t=0.12
1.3290875451920043
% es.tEx (V/m) @ t=0.12
0.43264316854196494
% es.tEy (V/m) @ t=0.12
0
% es.tEz (V/m) @ t=0.12
1.329087545191996
% V (V) @ t=0.12
0.006555626416548053
% es.normE (V/m) @ t=0.14
1.4145512698594223
% es.EX (V/m) @ t=0.14
0.4366206452985616
% es.EY (V/m) @ t=0.14
0.10577708915912687
% es.EZ (V/m) @ t=0.14
1.3413064209539463
% es.tEX (V/m) @ t=0.14
0.4366206452985679
% es.tEY (V/m) @ t=0.14
0
% es.tEZ (V/m) @ t=0.14
1.3413064209539485
% es.Ex (V/m) @ t=0.14
0.4366206452985616
% es.Ey (V/m) @ t=0.14
0.10577708915912687
% es.Ez (V/m) @ t=0.14
1.3413064209539463
% es.tEx (V/m) @ t=0.14
0.4366206452985679
% es.tEy (V/m) @ t=0.14
0
% es.tEz (V/m) @ t=0.14
1.3413064209539485
% V (V) @ t=0.14
0.0066158950139389916
% es.normE (V/m) @ t=0.16
1.427970294669321
% es.EX (V/m) @ t=0.16
0.44076262610766526
% es.EY (V/m) @ t=0.16
0.10678053583668334
% es.EZ (V/m) @ t=0.16
1.3540306096156738
% es.tEX (V/m) @ t=0.16
0.4407626261076665
% es.tEY (V/m) @ t=0.16
0
% es.tEZ (V/m) @ t=0.16
1.354030609615677
% es.Ex (V/m) @ t=0.16
0.44076262610766526
% es.Ey (V/m) @ t=0.16
0.10678053583668334
% es.Ez (V/m) @ t=0.16
1.3540306096156738
% es.tEx (V/m) @ t=0.16
0.4407626261076665
% es.tEy (V/m) @ t=0.16
0
% es.tEz (V/m) @ t=0.16
1.354030609615677
% V (V) @ t=0.16
0.006678654722745451
% es.normE (V/m) @ t=0.18
1.4413893194792133
% es.EX (V/m) @ t=0.18
0.4449046069167514
% es.EY (V/m) @ t=0.18
0.10778398251421895
% es.EZ (V/m) @ t=0.18
1.3667547982774018
% es.tEX (V/m) @ t=0.18
0.4449046069167508
% es.tEY (V/m) @ t=0.18
0
% es.tEZ (V/m) @ t=0.18
1.3667547982774124
% es.Ex (V/m) @ t=0.18
0.4449046069167514
% es.Ey (V/m) @ t=0.18
0.10778398251421895
% es.Ez (V/m) @ t=0.18
1.3667547982774018
% es.tEx (V/m) @ t=0.18
0.4449046069167508
% es.tEy (V/m) @ t=0.18
0
% es.tEz (V/m) @ t=0.18
1.3667547982774124
% V (V) @ t=0.18
0.006741414431551913
% es.normE (V/m) @ t=0.2
1.4548083442891104
% es.EX (V/m) @ t=0.2
0.44904658772584194
% es.EY (V/m) @ t=0.2
0.10878742919178586
% es.EZ (V/m) @ t=0.2
1.379478986939131
% es.tEX (V/m) @ t=0.2
0.4490465877258387
% es.tEY (V/m) @ t=0.2
0
% es.tEZ (V/m) @ t=0.2
1.379478986939132
% es.Ex (V/m) @ t=0.2
0.44904658772584194
% es.Ey (V/m) @ t=0.2
0.10878742919178586
% es.Ez (V/m) @ t=0.2
1.379478986939131
% es.tEx (V/m) @ t=0.2
0.4490465877258387
% es.tEy (V/m) @ t=0.2
0
% es.tEz (V/m) @ t=0.2
1.379478986939132
% V (V) @ t=0.2
0.006804174140358373
% es.normE (V/m) @ t=0.22
1.4682273690990217
% es.EX (V/m) @ t=0.22
0.45318856853494005
% es.EY (V/m) @ t=0.22
0.10979087586932623
% es.EZ (V/m) @ t=0.22
1.3922031756008741
% es.tEX (V/m) @ t=0.22
0.4531885685349408
% es.tEY (V/m) @ t=0.22
0
% es.tEZ (V/m) @ t=0.22
1.3922031756008746
% es.Ex (V/m) @ t=0.22
0.45318856853494005
% es.Ey (V/m) @ t=0.22
0.10979087586932623
% es.Ez (V/m) @ t=0.22
1.3922031756008741
% es.tEx (V/m) @ t=0.22
0.4531885685349408
% es.tEy (V/m) @ t=0.22
0
% es.tEz (V/m) @ t=0.22
1.3922031756008746
% V (V) @ t=0.22
0.006866933849164834
% es.normE (V/m) @ t=0.24
1.481646393908905
% es.EX (V/m) @ t=0.24
0.4573305493440274
% es.EY (V/m) @ t=0.24
0.1107943225468635
% es.EZ (V/m) @ t=0.24
1.404927364262592
% es.tEX (V/m) @ t=0.24
0.4573305493440287
% es.tEY (V/m) @ t=0.24
0
% es.tEZ (V/m) @ t=0.24
1.4049273642625888
% es.Ex (V/m) @ t=0.24
0.4573305493440274
% es.Ey (V/m) @ t=0.24
0.1107943225468635
% es.Ez (V/m) @ t=0.24
1.404927364262592
% es.tEx (V/m) @ t=0.24
0.4573305493440287
% es.tEy (V/m) @ t=0.24
0
% es.tEz (V/m) @ t=0.24
1.4049273642625888
% V (V) @ t=0.24
0.0069296935579712966
% es.normE (V/m) @ t=0.26
1.4950654187187935
% es.EX (V/m) @ t=0.26
0.46147253015311795
% es.EY (V/m) @ t=0.26
0.11179776922440932
% es.EZ (V/m) @ t=0.26
1.4176515529243128
% es.tEX (V/m) @ t=0.26
0.46147253015312373
% es.tEY (V/m) @ t=0.26
0
% es.tEZ (V/m) @ t=0.26
1.4176515529243172
% es.Ex (V/m) @ t=0.26
0.46147253015311795
% es.Ey (V/m) @ t=0.26
0.11179776922440932
% es.Ez (V/m) @ t=0.26
1.4176515529243128
% es.tEx (V/m) @ t=0.26
0.46147253015312373
% es.tEy (V/m) @ t=0.26
0
% es.tEz (V/m) @ t=0.26
1.4176515529243172
% V (V) @ t=0.26
0.006992453266777757
% es.normE (V/m) @ t=0.28
1.5091481241199451
% es.EX (V/m) @ t=0.28
0.4658193821768273
% es.EY (V/m) @ t=0.28
0.11285084559286973
% es.EZ (V/m) @ t=0.28
1.431005051445263
% es.tEX (V/m) @ t=0.28
0.46581938217683216
% es.tEY (V/m) @ t=0.28
0
% es.tEZ (V/m) @ t=0.28
1.431005051445263
% es.Ex (V/m) @ t=0.28
0.4658193821768273
% es.Ey (V/m) @ t=0.28
0.11285084559286973
% es.Ez (V/m) @ t=0.28
1.431005051445263
% es.tEx (V/m) @ t=0.28
0.46581938217683216
% es.tEy (V/m) @ t=0.28
0
% es.tEz (V/m) @ t=0.28
1.431005051445263
% V (V) @ t=0.28
0.00705831537192559
% es.normE (V/m) @ t=0.3
1.5240894688177338
% es.EX (V/m) @ t=0.3
0.4704312871159776
% es.EY (V/m) @ t=0.3
0.11396813056325461
% es.EZ (V/m) @ t=0.3
1.4451727219971628
% es.tEX (V/m) @ t=0.3
0.4704312871159786
% es.tEY (V/m) @ t=0.3
0
% es.tEZ (V/m) @ t=0.3
1.4451727219971655
% es.Ex (V/m) @ t=0.3
0.4704312871159776
% es.Ey (V/m) @ t=0.3
0.11396813056325461
% es.Ez (V/m) @ t=0.3
1.4451727219971628
% es.tEx (V/m) @ t=0.3
0.4704312871159786
% es.tEy (V/m) @ t=0.3
0
% es.tEz (V/m) @ t=0.3
1.4451727219971655
% V (V) @ t=0.3
0.007128191214174688
% es.normE (V/m) @ t=0.32
1.5390308135155046
% es.EX (V/m) @ t=0.32
0.47504319205512513
% es.EY (V/m) @ t=0.32
0.11508541553363916
% es.EZ (V/m) @ t=0.32
1.4593403925490427
% es.tEX (V/m) @ t=0.32
0.4750431920551179
% es.tEY (V/m) @ t=0.32
0
% es.tEZ (V/m) @ t=0.32
1.4593403925490538
% es.Ex (V/m) @ t=0.32
0.47504319205512513
% es.Ey (V/m) @ t=0.32
0.11508541553363916
% es.Ez (V/m) @ t=0.32
1.4593403925490427
% es.tEx (V/m) @ t=0.32
0.4750431920551179
% es.tEy (V/m) @ t=0.32
0
% es.tEz (V/m) @ t=0.32
1.4593403925490538
% V (V) @ t=0.32
0.007198067056423786
% es.normE (V/m) @ t=0.34
1.553972158213306
% es.EX (V/m) @ t=0.34
0.47965509699426656
% es.EY (V/m) @ t=0.34
0.11620270050402226
% es.EZ (V/m) @ t=0.34
1.473508063100954
% es.tEX (V/m) @ t=0.34
0.47965509699427145
% es.tEY (V/m) @ t=0.34
0
% es.tEZ (V/m) @ t=0.34
1.4735080631009545
% es.Ex (V/m) @ t=0.34
0.47965509699426656
% es.Ey (V/m) @ t=0.34
0.11620270050402226
% es.Ez (V/m) @ t=0.34
1.473508063100954
% es.tEx (V/m) @ t=0.34
0.47965509699427145
% es.tEy (V/m) @ t=0.34
0
% es.tEz (V/m) @ t=0.34
1.4735080631009545
% V (V) @ t=0.34
0.007267942898672884
% es.normE (V/m) @ t=0.36
1.5689135029110934
% es.EX (V/m) @ t=0.36
0.48426700193340455
% es.EY (V/m) @ t=0.36
0.11731998547440536
% es.EZ (V/m) @ t=0.36
1.4876757336528508
% es.tEX (V/m) @ t=0.36
0.48426700193341077
% es.tEY (V/m) @ t=0.36
0
% es.tEZ (V/m) @ t=0.36
1.4876757336528499
% es.Ex (V/m) @ t=0.36
0.48426700193340455
% es.Ey (V/m) @ t=0.36
0.11731998547440536
% es.Ez (V/m) @ t=0.36
1.4876757336528508
% es.tEx (V/m) @ t=0.36
0.48426700193341077
% es.tEy (V/m) @ t=0.36
0
% es.tEz (V/m) @ t=0.36
1.4876757336528499
% V (V) @ t=0.36
0.007337818740921981
% es.normE (V/m) @ t=0.38
1.5838548476088783
% es.EX (V/m) @ t=0.38
0.48887890687255764
% es.EY (V/m) @ t=0.38
0.11843727044478469
% es.EZ (V/m) @ t=0.38
1.5018434042047377
% es.tEX (V/m) @ t=0.38
0.4888789068725572
% es.tEY (V/m) @ t=0.38
0
% es.tEZ (V/m) @ t=0.38
1.5018434042047435
% es.Ex (V/m) @ t=0.38
0.48887890687255764
% es.Ey (V/m) @ t=0.38
0.11843727044478469
% es.Ez (V/m) @ t=0.38
1.5018434042047377
% es.tEx (V/m) @ t=0.38
0.4888789068725572
% es.tEy (V/m) @ t=0.38
0
% es.tEz (V/m) @ t=0.38
1.5018434042047435
% V (V) @ t=0.38
0.0074076945831710785
% es.normE (V/m) @ t=0.4
1.5987961923066836
% es.EX (V/m) @ t=0.4
0.49349081181170096
% es.EY (V/m) @ t=0.4
0.11955455541518378
% es.EZ (V/m) @ t=0.4
1.516011074756646
% es.tEX (V/m) @ t=0.4
0.4934908118117036
% es.tEY (V/m) @ t=0.4
0
% es.tEZ (V/m) @ t=0.4
1.516011074756646
% es.Ex (V/m) @ t=0.4
0.49349081181170096
% es.Ey (V/m) @ t=0.4
0.11955455541518378
% es.Ez (V/m) @ t=0.4
1.516011074756646
% es.tEx (V/m) @ t=0.4
0.4934908118117036
% es.tEy (V/m) @ t=0.4
0
% es.tEz (V/m) @ t=0.4
1.516011074756646
% V (V) @ t=0.4
0.007477570425420176
% es.normE (V/m) @ t=0.42
1.613737537004485
% es.EX (V/m) @ t=0.42
0.49810271675085005
% es.EY (V/m) @ t=0.42
0.12067184038557166
% es.EZ (V/m) @ t=0.42
1.5301787453085471
% es.tEX (V/m) @ t=0.42
0.49810271675085005
% es.tEY (V/m) @ t=0.42
0
% es.tEZ (V/m) @ t=0.42
1.5301787453085485
% es.Ex (V/m) @ t=0.42
0.49810271675085005
% es.Ey (V/m) @ t=0.42
0.12067184038557166
% es.Ez (V/m) @ t=0.42
1.5301787453085471
% es.tEx (V/m) @ t=0.42
0.49810271675085005
% es.tEy (V/m) @ t=0.42
0
% es.tEz (V/m) @ t=0.42
1.5301787453085485
% V (V) @ t=0.42
0.007547446267669272
% es.normE (V/m) @ t=0.44
1.6286788817022768
% es.EX (V/m) @ t=0.44
0.5027146216899897
% es.EY (V/m) @ t=0.44
0.12178912535595476
% es.EZ (V/m) @ t=0.44
1.5443464158604399
% es.tEX (V/m) @ t=0.44
0.5027146216899965
% es.tEY (V/m) @ t=0.44
0
% es.tEZ (V/m) @ t=0.44
1.5443464158604367
% es.Ex (V/m) @ t=0.44
0.5027146216899897
% es.Ey (V/m) @ t=0.44
0.12178912535595476
% es.Ez (V/m) @ t=0.44
1.5443464158604399
% es.tEx (V/m) @ t=0.44
0.5027146216899965
% es.tEy (V/m) @ t=0.44
0
% es.tEz (V/m) @ t=0.44
1.5443464158604367
% V (V) @ t=0.44
0.007617322109918371
% es.normE (V/m) @ t=0.46
1.643620226400071
% es.EX (V/m) @ t=0.46
0.5073265266291369
% es.EY (V/m) @ t=0.46
0.12290641032633554
% es.EZ (V/m) @ t=0.46
1.5585140864123308
% es.tEX (V/m) @ t=0.46
0.5073265266291429
% es.tEY (V/m) @ t=0.46
0
% es.tEZ (V/m) @ t=0.46
1.5585140864123321
% es.Ex (V/m) @ t=0.46
0.5073265266291369
% es.Ey (V/m) @ t=0.46
0.12290641032633554
% es.Ez (V/m) @ t=0.46
1.5585140864123308
% es.tEx (V/m) @ t=0.46
0.5073265266291429
% es.tEy (V/m) @ t=0.46
0
% es.tEz (V/m) @ t=0.46
1.5585140864123321
% V (V) @ t=0.46
0.007687197952167468
% es.normE (V/m) @ t=0.48
1.6585615710978776
% es.EX (V/m) @ t=0.48
0.5119384315682803
% es.EY (V/m) @ t=0.48
0.12402369529672619
% es.EZ (V/m) @ t=0.48
1.5726817569642342
% es.tEX (V/m) @ t=0.48
0.5119384315682751
% es.tEY (V/m) @ t=0.48
0
% es.tEZ (V/m) @ t=0.48
1.572681756964231
% es.Ex (V/m) @ t=0.48
0.5119384315682803
% es.Ey (V/m) @ t=0.48
0.12402369529672619
% es.Ez (V/m) @ t=0.48
1.5726817569642342
% es.tEx (V/m) @ t=0.48
0.5119384315682751
% es.tEy (V/m) @ t=0.48
0
% es.tEz (V/m) @ t=0.48
1.572681756964231
% V (V) @ t=0.48
0.007757073794416564
% es.normE (V/m) @ t=0.5
1.6735029157956736
% es.EX (V/m) @ t=0.5
0.5165503365074273
% es.EY (V/m) @ t=0.5
0.12514098026709286
% es.EZ (V/m) @ t=0.5
1.5868494275161247
% es.tEX (V/m) @ t=0.5
0.5165503365074287
% es.tEY (V/m) @ t=0.5
0
% es.tEZ (V/m) @ t=0.5
1.5868494275161282
% es.Ex (V/m) @ t=0.5
0.5165503365074273
% es.Ey (V/m) @ t=0.5
0.12514098026709286
% es.Ez (V/m) @ t=0.5
1.5868494275161247
% es.tEx (V/m) @ t=0.5
0.5165503365074287
% es.tEy (V/m) @ t=0.5
0
% es.tEz (V/m) @ t=0.5
1.5868494275161282
% V (V) @ t=0.5
0.007826949636665663
% es.normE (V/m) @ t=0.52
1.6884442604934833
% es.EX (V/m) @ t=0.52
0.5211622414465759
% es.EY (V/m) @ t=0.52
0.1262582652374954
% es.EZ (V/m) @ t=0.52
1.6010170980680254
% es.tEX (V/m) @ t=0.52
0.5211622414465822
% es.tEY (V/m) @ t=0.52
0
% es.tEZ (V/m) @ t=0.52
1.6010170980680307
% es.Ex (V/m) @ t=0.52
0.5211622414465759
% es.Ey (V/m) @ t=0.52
0.1262582652374954
% es.Ez (V/m) @ t=0.52
1.6010170980680254
% es.tEx (V/m) @ t=0.52
0.5211622414465822
% es.tEy (V/m) @ t=0.52
0
% es.tEz (V/m) @ t=0.52
1.6010170980680307
% V (V) @ t=0.52
0.00789682547891476
% es.normE (V/m) @ t=0.54
1.7033856051912823
% es.EX (V/m) @ t=0.54
0.5257741463857254
% es.EY (V/m) @ t=0.54
0.12737555020785885
% es.EZ (V/m) @ t=0.54
1.6151847686199154
% es.tEX (V/m) @ t=0.54
0.5257741463857215
% es.tEY (V/m) @ t=0.54
0
% es.tEZ (V/m) @ t=0.54
1.615184768619926
% es.Ex (V/m) @ t=0.54
0.5257741463857254
% es.Ey (V/m) @ t=0.54
0.12737555020785885
% es.Ez (V/m) @ t=0.54
1.6151847686199154
% es.tEx (V/m) @ t=0.54
0.5257741463857215
% es.tEy (V/m) @ t=0.54
0
% es.tEz (V/m) @ t=0.54
1.615184768619926
% V (V) @ t=0.54
0.007966701321163859
% es.normE (V/m) @ t=0.56
1.7198509330468985
% es.EX (V/m) @ t=0.56
0.530856317607508
% es.EY (V/m) @ t=0.56
0.12860678637326084
% es.EZ (V/m) @ t=0.56
1.6307975547298725
% es.tEX (V/m) @ t=0.56
0.5308563176075083
% es.tEY (V/m) @ t=0.56
0
% es.tEZ (V/m) @ t=0.56
1.6307975547298827
% es.Ex (V/m) @ t=0.56
0.530856317607508
% es.Ey (V/m) @ t=0.56
0.12860678637326084
% es.Ez (V/m) @ t=0.56
1.6307975547298725
% es.tEx (V/m) @ t=0.56
0.5308563176075083
% es.tEy (V/m) @ t=0.56
0
% es.tEz (V/m) @ t=0.56
1.6307975547298827
% V (V) @ t=0.56
0.008043717720373706
% es.normE (V/m) @ t=0.58
1.7365204231767404
% es.EX (V/m) @ t=0.58
0.5360014886290616
% es.EY (V/m) @ t=0.58
0.12985328815037445
% es.EZ (V/m) @ t=0.58
1.6466039375192385
% es.tEX (V/m) @ t=0.58
0.5360014886290685
% es.tEY (V/m) @ t=0.58
0
% es.tEZ (V/m) @ t=0.58
1.6466039375192363
% es.Ex (V/m) @ t=0.58
0.5360014886290616
% es.Ey (V/m) @ t=0.58
0.12985328815037445
% es.Ez (V/m) @ t=0.58
1.6466039375192385
% es.tEx (V/m) @ t=0.58
0.5360014886290685
% es.tEy (V/m) @ t=0.58
0
% es.tEz (V/m) @ t=0.58
1.6466039375192363
% V (V) @ t=0.58
0.008121690713060835
% es.normE (V/m) @ t=0.6
1.753189913306593
% es.EX (V/m) @ t=0.6
0.5411466596506104
% es.EY (V/m) @ t=0.6
0.13109978992746008
% es.EZ (V/m) @ t=0.6
1.662410320308612
% es.tEX (V/m) @ t=0.6
0.5411466596506145
% es.tEY (V/m) @ t=0.6
0
% es.tEZ (V/m) @ t=0.6
1.6624103203086165
% es.Ex (V/m) @ t=0.6
0.5411466596506104
% es.Ey (V/m) @ t=0.6
0.13109978992746008
% es.Ez (V/m) @ t=0.6
1.662410320308612
% es.tEx (V/m) @ t=0.6
0.5411466596506145
% es.tEy (V/m) @ t=0.6
0
% es.tEz (V/m) @ t=0.6
1.6624103203086165
% V (V) @ t=0.6
0.008199663705747966
% es.normE (V/m) @ t=0.62
1.7698594034364405
% es.EX (V/m) @ t=0.62
0.5462918306721521
% es.EY (V/m) @ t=0.62
0.13234629170454826
% es.EZ (V/m) @ t=0.62
1.6782167030979753
% es.tEX (V/m) @ t=0.62
0.5462918306721463
% es.tEY (V/m) @ t=0.62
0
% es.tEZ (V/m) @ t=0.62
1.6782167030979824
% es.Ex (V/m) @ t=0.62
0.5462918306721521
% es.Ey (V/m) @ t=0.62
0.13234629170454826
% es.Ez (V/m) @ t=0.62
1.6782167030979753
% es.tEx (V/m) @ t=0.62
0.5462918306721463
% es.tEy (V/m) @ t=0.62
0
% es.tEz (V/m) @ t=0.62
1.6782167030979824
% V (V) @ t=0.62
0.008277636698435096
% es.normE (V/m) @ t=0.64
1.7865288935663086
% es.EX (V/m) @ t=0.64
0.5514370016936954
% es.EY (V/m) @ t=0.64
0.13359279348165398
% es.EZ (V/m) @ t=0.64
1.6940230858873515
% es.tEX (V/m) @ t=0.64
0.5514370016936923
% es.tEY (V/m) @ t=0.64
0
% es.tEZ (V/m) @ t=0.64
1.6940230858873502
% es.Ex (V/m) @ t=0.64
0.5514370016936954
% es.Ey (V/m) @ t=0.64
0.13359279348165398
% es.Ez (V/m) @ t=0.64
1.6940230858873515
% es.tEx (V/m) @ t=0.64
0.5514370016936923
% es.tEy (V/m) @ t=0.64
0
% es.tEz (V/m) @ t=0.64
1.6940230858873502
% V (V) @ t=0.64
0.008355609691122227
% es.normE (V/m) @ t=0.66
1.8031983836961731
% es.EX (V/m) @ t=0.66
0.5565821727152388
% es.EY (V/m) @ t=0.66
0.13483929525875504
% es.EZ (V/m) @ t=0.66
1.709829468676718
% es.tEX (V/m) @ t=0.66
0.5565821727152382
% es.tEY (V/m) @ t=0.66
0
% es.tEZ (V/m) @ t=0.66
1.7098294686767233
% es.Ex (V/m) @ t=0.66
0.5565821727152388
% es.Ey (V/m) @ t=0.66
0.13483929525875504
% es.Ez (V/m) @ t=0.66
1.709829468676718
% es.tEx (V/m) @ t=0.66
0.5565821727152382
% es.tEy (V/m) @ t=0.66
0
% es.tEz (V/m) @ t=0.66
1.7098294686767233
% V (V) @ t=0.66
0.008433582683809357
% es.normE (V/m) @ t=0.68
1.8198678738260345
% es.EX (V/m) @ t=0.68
0.5617273437367841
% es.EY (V/m) @ t=0.68
0.13608579703584955
% es.EZ (V/m) @ t=0.68
1.7256358514660741
% es.tEX (V/m) @ t=0.68
0.5617273437367842
% es.tEY (V/m) @ t=0.68
0
% es.tEZ (V/m) @ t=0.68
1.7256358514660821
% es.Ex (V/m) @ t=0.68
0.5617273437367841
% es.Ey (V/m) @ t=0.68
0.13608579703584955
% es.Ez (V/m) @ t=0.68
1.7256358514660741
% es.tEx (V/m) @ t=0.68
0.5617273437367842
% es.tEy (V/m) @ t=0.68
0
% es.tEz (V/m) @ t=0.68
1.7256358514660821
% V (V) @ t=0.68
0.008511555676496488
% es.normE (V/m) @ t=0.7
1.8365373639559224
% es.EX (V/m) @ t=0.7
0.5668725147583326
% es.EY (V/m) @ t=0.7
0.13733229881294184
% es.EZ (V/m) @ t=0.7
1.7414422342554512
% es.tEX (V/m) @ t=0.7
0.5668725147583302
% es.tEY (V/m) @ t=0.7
0
% es.tEZ (V/m) @ t=0.7
1.7414422342554499
% es.Ex (V/m) @ t=0.7
0.5668725147583326
% es.Ey (V/m) @ t=0.7
0.13733229881294184
% es.Ez (V/m) @ t=0.7
1.7414422342554512
% es.tEx (V/m) @ t=0.7
0.5668725147583302
% es.tEy (V/m) @ t=0.7
0
% es.tEz (V/m) @ t=0.7
1.7414422342554499
% V (V) @ t=0.7
0.008589528669183617
% es.normE (V/m) @ t=0.72
1.8532068540857942
% es.EX (V/m) @ t=0.72
0.5720176857798639
% es.EY (V/m) @ t=0.72
0.13857880059004568
% es.EZ (V/m) @ t=0.72
1.75724861704481
% es.tEX (V/m) @ t=0.72
0.5720176857798691
% es.tEY (V/m) @ t=0.72
0
% es.tEZ (V/m) @ t=0.72
1.757248617044807
% es.Ex (V/m) @ t=0.72
0.5720176857798639
% es.Ey (V/m) @ t=0.72
0.13857880059004568
% es.Ez (V/m) @ t=0.72
1.75724861704481
% es.tEx (V/m) @ t=0.72
0.5720176857798691
% es.tEy (V/m) @ t=0.72
0
% es.tEz (V/m) @ t=0.72
1.757248617044807
% V (V) @ t=0.72
0.00866750166187075
% es.normE (V/m) @ t=0.74
1.8698763442156787
% es.EX (V/m) @ t=0.74
0.5771628568014128
% es.EY (V/m) @ t=0.74
0.1398253023671534
% es.EZ (V/m) @ t=0.74
1.7730549998341703
% es.tEX (V/m) @ t=0.74
0.5771628568014151
% es.tEY (V/m) @ t=0.74
0
% es.tEZ (V/m) @ t=0.74
1.773054999834173
% es.Ex (V/m) @ t=0.74
0.5771628568014128
% es.Ey (V/m) @ t=0.74
0.1398253023671534
% es.Ez (V/m) @ t=0.74
1.7730549998341703
% es.tEx (V/m) @ t=0.74
0.5771628568014151
% es.tEy (V/m) @ t=0.74
0
% es.tEz (V/m) @ t=0.74
1.773054999834173
% V (V) @ t=0.74
0.00874547465455788
% es.normE (V/m) @ t=0.76
1.8865458343455872
% es.EX (V/m) @ t=0.76
0.5823080278229616
% es.EY (V/m) @ t=0.76
0.14107180414424836
% es.EZ (V/m) @ t=0.76
1.7888613826235504
% es.tEX (V/m) @ t=0.76
0.5823080278229682
% es.tEY (V/m) @ t=0.76
0
% es.tEZ (V/m) @ t=0.76
1.788861382623553
% es.Ex (V/m) @ t=0.76
0.5823080278229616
% es.Ey (V/m) @ t=0.76
0.14107180414424836
% es.Ez (V/m) @ t=0.76
1.7888613826235504
% es.tEx (V/m) @ t=0.76
0.5823080278229682
% es.tEy (V/m) @ t=0.76
0
% es.tEz (V/m) @ t=0.76
1.788861382623553
% V (V) @ t=0.76
0.00882344764724501
% es.normE (V/m) @ t=0.78
1.9032153244754855
% es.EX (V/m) @ t=0.78
0.587453198844514
% es.EY (V/m) @ t=0.78
0.14231830592134231
% es.EZ (V/m) @ t=0.78
1.8046677654129137
% es.tEX (V/m) @ t=0.78
0.5874531988445071
% es.tEY (V/m) @ t=0.78
0
% es.tEZ (V/m) @ t=0.78
1.8046677654129208
% es.Ex (V/m) @ t=0.78
0.587453198844514
% es.Ey (V/m) @ t=0.78
0.14231830592134231
% es.Ez (V/m) @ t=0.78
1.8046677654129137
% es.tEx (V/m) @ t=0.78
0.5874531988445071
% es.tEy (V/m) @ t=0.78
0
% es.tEz (V/m) @ t=0.78
1.8046677654129208
% V (V) @ t=0.78
0.00890142063993214
% es.normE (V/m) @ t=0.8
1.9198848146053842
% es.EX (V/m) @ t=0.8
0.5925983698660517
% es.EY (V/m) @ t=0.8
0.1435648076984387
% es.EZ (V/m) @ t=0.8
1.8204741482022762
% es.tEX (V/m) @ t=0.8
0.592598369866046
% es.tEY (V/m) @ t=0.8
0
% es.tEZ (V/m) @ t=0.8
1.8204741482022797
% es.Ex (V/m) @ t=0.8
0.5925983698660517
% es.Ey (V/m) @ t=0.8
0.1435648076984387
% es.Ez (V/m) @ t=0.8
1.8204741482022762
% es.tEx (V/m) @ t=0.8
0.592598369866046
% es.tEy (V/m) @ t=0.8
0
% es.tEz (V/m) @ t=0.8
1.8204741482022797
% V (V) @ t=0.8
0.008979393632619272
% es.normE (V/m) @ t=0.82
1.9371966176583506
% es.EX (V/m) @ t=0.82
0.5979417780697932
% es.EY (V/m) @ t=0.82
0.14485933903180137
% es.EZ (V/m) @ t=0.82
1.836889592313589
% es.tEX (V/m) @ t=0.82
0.5979417780697958
% es.tEY (V/m) @ t=0.82
0
% es.tEZ (V/m) @ t=0.82
1.8368895923135913
% es.Ex (V/m) @ t=0.82
0.5979417780697932
% es.Ey (V/m) @ t=0.82
0.14485933903180137
% es.Ez (V/m) @ t=0.82
1.836889592313589
% es.tEx (V/m) @ t=0.82
0.5979417780697958
% es.tEy (V/m) @ t=0.82
0
% es.tEz (V/m) @ t=0.82
1.8368895923135913
% V (V) @ t=0.82
0.009060372810700308
% es.normE (V/m) @ t=0.84
1.9558258464296765
% es.EX (V/m) @ t=0.84
0.6036917836698976
% es.EY (V/m) @ t=0.84
0.14625238211917246
% es.EZ (V/m) @ t=0.84
1.8545542609395853
% es.tEX (V/m) @ t=0.84
0.6036917836699018
% es.tEY (V/m) @ t=0.84
0
% es.tEZ (V/m) @ t=0.84
1.8545542609395902
% es.Ex (V/m) @ t=0.84
0.6036917836698976
% es.Ey (V/m) @ t=0.84
0.14625238211917246
% es.Ez (V/m) @ t=0.84
1.8545542609395853
% es.tEx (V/m) @ t=0.84
0.6036917836699018
% es.tEy (V/m) @ t=0.84
0
% es.tEz (V/m) @ t=0.84
1.8545542609395902
% V (V) @ t=0.84
0.009147517871188456
% es.normE (V/m) @ t=0.86
1.9744550752010164
% es.EX (V/m) @ t=0.86
0.6094417892700023
% es.EY (V/m) @ t=0.86
0.14764542520653146
% es.EZ (V/m) @ t=0.86
1.8722189295655824
% es.tEX (V/m) @ t=0.86
0.6094417892700079
% es.tEY (V/m) @ t=0.86
0
% es.tEZ (V/m) @ t=0.86
1.8722189295655944
% es.Ex (V/m) @ t=0.86
0.6094417892700023
% es.Ey (V/m) @ t=0.86
0.14764542520653146
% es.Ez (V/m) @ t=0.86
1.8722189295655824
% es.tEx (V/m) @ t=0.86
0.6094417892700079
% es.tEy (V/m) @ t=0.86
0
% es.tEz (V/m) @ t=0.86
1.8722189295655944
% V (V) @ t=0.86
0.009234662931676605
% es.normE (V/m) @ t=0.88
1.9930843039723767
% es.EX (V/m) @ t=0.88
0.6151917948701054
% es.EY (V/m) @ t=0.88
0.14903846829387646
% es.EZ (V/m) @ t=0.88
1.8898835981915885
% es.tEX (V/m) @ t=0.88
0.6151917948701069
% es.tEY (V/m) @ t=0.88
0
% es.tEZ (V/m) @ t=0.88
1.8898835981916005
% es.Ex (V/m) @ t=0.88
0.6151917948701054
% es.Ey (V/m) @ t=0.88
0.14903846829387646
% es.Ez (V/m) @ t=0.88
1.8898835981915885
% es.tEx (V/m) @ t=0.88
0.6151917948701069
% es.tEy (V/m) @ t=0.88
0
% es.tEz (V/m) @ t=0.88
1.8898835981916005
% V (V) @ t=0.88
0.009321807992164755
% es.normE (V/m) @ t=0.9
2.0117135327437556
% es.EX (V/m) @ t=0.9
0.6209418004702203
% es.EY (V/m) @ t=0.9
0.15043151138123334
% es.EZ (V/m) @ t=0.9
1.907548266817595
% es.tEX (V/m) @ t=0.9
0.620941800470213
% es.tEY (V/m) @ t=0.9
0
% es.tEZ (V/m) @ t=0.9
1.9075482668176011
% es.Ex (V/m) @ t=0.9
0.6209418004702203
% es.Ey (V/m) @ t=0.9
0.15043151138123334
% es.Ez (V/m) @ t=0.9
1.907548266817595
% es.tEx (V/m) @ t=0.9
0.620941800470213
% es.tEy (V/m) @ t=0.9
0
% es.tEz (V/m) @ t=0.9
1.9075482668176011
% V (V) @ t=0.9
0.009408953052652904
% es.normE (V/m) @ t=0.92
2.0303427615151346
% es.EX (V/m) @ t=0.92
0.6266918060703217
% es.EY (V/m) @ t=0.92
0.1518245544685778
% es.EZ (V/m) @ t=0.92
1.925212935443593
% es.tEX (V/m) @ t=0.92
0.626691806070319
% es.tEY (V/m) @ t=0.92
0
% es.tEZ (V/m) @ t=0.92
1.9252129354435894
% es.Ex (V/m) @ t=0.92
0.6266918060703217
% es.Ey (V/m) @ t=0.92
0.1518245544685778
% es.Ez (V/m) @ t=0.92
1.925212935443593
% es.tEx (V/m) @ t=0.92
0.626691806070319
% es.tEy (V/m) @ t=0.92
0
% es.tEz (V/m) @ t=0.92
1.9252129354435894
% V (V) @ t=0.92
0.009496098113141052
% es.normE (V/m) @ t=0.94
2.0489719902865344
% es.EX (V/m) @ t=0.94
0.6324418116704332
% es.EY (V/m) @ t=0.94
0.15321759755594533
% es.EZ (V/m) @ t=0.94
1.9428776040695954
% es.tEX (V/m) @ t=0.94
0.6324418116704393
% es.tEY (V/m) @ t=0.94
0
% es.tEZ (V/m) @ t=0.94
1.9428776040695972
% es.Ex (V/m) @ t=0.94
0.6324418116704332
% es.Ey (V/m) @ t=0.94
0.15321759755594533
% es.Ez (V/m) @ t=0.94
1.9428776040695954
% es.tEx (V/m) @ t=0.94
0.6324418116704393
% es.tEy (V/m) @ t=0.94
0
% es.tEz (V/m) @ t=0.94
1.9428776040695972
% V (V) @ t=0.94
0.009583243173629201
% es.normE (V/m) @ t=0.96
2.0676012190579423
% es.EX (V/m) @ t=0.96
0.6381918172705383
% es.EY (V/m) @ t=0.96
0.15461064064329366
% es.EZ (V/m) @ t=0.96
1.960542272695596
% es.tEX (V/m) @ t=0.96
0.6381918172705383
% es.tEY (V/m) @ t=0.96
0
% es.tEZ (V/m) @ t=0.96
1.960542272695596
% es.Ex (V/m) @ t=0.96
0.6381918172705383
% es.Ey (V/m) @ t=0.96
0.15461064064329366
% es.Ez (V/m) @ t=0.96
1.960542272695596
% es.tEx (V/m) @ t=0.96
0.6381918172705383
% es.tEy (V/m) @ t=0.96
0
% es.tEz (V/m) @ t=0.96
1.960542272695596
% V (V) @ t=0.96
0.009670388234117349
% es.normE (V/m) @ t=0.98
2.086230447829368
% es.EX (V/m) @ t=0.98
0.6439418228706483
% es.EY (V/m) @ t=0.98
0.15600368373064533
% es.EZ (V/m) @ t=0.98
1.9782069413216021
% es.tEX (V/m) @ t=0.98
0.6439418228706586
% es.tEY (V/m) @ t=0.98
0
% es.tEZ (V/m) @ t=0.98
1.9782069413216146
% es.Ex (V/m) @ t=0.98
0.6439418228706483
% es.Ey (V/m) @ t=0.98
0.15600368373064533
% es.Ez (V/m) @ t=0.98
1.9782069413216021
% es.tEx (V/m) @ t=0.98
0.6439418228706586
% es.tEy (V/m) @ t=0.98
0
% es.tEz (V/m) @ t=0.98
1.9782069413216146
% V (V) @ t=0.98
0.009757533294605499
% es.normE (V/m) @ t=1
2.1048596766007996
% es.EX (V/m) @ t=1
0.6496918284707406
% es.EY (V/m) @ t=1
0.15739672681800254
% es.EZ (V/m) @ t=1
1.9958716099476068
% es.tEX (V/m) @ t=1
0.6496918284707434
% es.tEY (V/m) @ t=1
0
% es.tEZ (V/m) @ t=1
1.9958716099476135
% es.Ex (V/m) @ t=1
0.6496918284707406
% es.Ey (V/m) @ t=1
0.15739672681800254
% es.Ez (V/m) @ t=1
1.9958716099476068
% es.tEx (V/m) @ t=1
0.6496918284707434
% es.tEy (V/m) @ t=1
0
% es.tEz (V/m) @ t=1
1.9958716099476135
% V (V) @ t=1
0.009844678355093648
% es.normE (V/m) @ t=1.02
2.1234889053722545
% es.EX (V/m) @ t=1.02
0.6554418340708614
% es.EY (V/m) @ t=1.02
0.15878976990538973
% es.EZ (V/m) @ t=1.02
2.0135362785736133
% es.tEX (V/m) @ t=1.02
0.6554418340708565
% es.tEY (V/m) @ t=1.02
0
% es.tEZ (V/m) @ t=1.02
2.0135362785736124
% es.Ex (V/m) @ t=1.02
0.6554418340708614
% es.Ey (V/m) @ t=1.02
0.15878976990538973
% es.Ez (V/m) @ t=1.02
2.0135362785736133
% es.tEx (V/m) @ t=1.02
0.6554418340708565
% es.tEy (V/m) @ t=1.02
0
% es.tEz (V/m) @ t=1.02
2.0135362785736124
% V (V) @ t=1.02
0.009931823415581796
% es.normE (V/m) @ t=1.04
2.142118134143689
% es.EX (V/m) @ t=1.04
0.661191839670957
% es.EY (V/m) @ t=1.04
0.16018281299271997
% es.EZ (V/m) @ t=1.04
2.031200947199599
% es.tEX (V/m) @ t=1.04
0.6611918396709555
% es.tEY (V/m) @ t=1.04
0
% es.tEZ (V/m) @ t=1.04
2.0312009471996166
% es.Ex (V/m) @ t=1.04
0.661191839670957
% es.Ey (V/m) @ t=1.04