% Model:              1 neuron.mph
% Version:            COMSOL 6.0.0.405
% Date:               Mar 16 2023, 09:43
% Dimension:          0
% Nodes:              14017
% Expressions:        14017
% Description:        Electric field norm, Electric field, X component, Electric field, Y component, Electric field, Z component, Tangential electric field, X component, Tangential electric field, Y component, Tangential electric field, Z component, Electric field, x component, Electric field, y component, Electric field, z component, Tangential electric field, x component, Tangential electric field, y component, Tangential electric field, z component, Electric potential
% Length unit:        mm
% x
1.0000000000000002
% y
12.2
% z
2
% es.normE (V/m) @ t=0
0.6987518770472558
% es.EX (V/m) @ t=0
0.4853593646502453
% es.EY (V/m) @ t=0
0.0726764485327524
% es.EZ (V/m) @ t=0
-0.484649655752144
% es.tEX (V/m) @ t=0
0.4853593646502472
% es.tEY (V/m) @ t=0
0
% es.tEZ (V/m) @ t=0
-0.4846496557521349
% es.Ex (V/m) @ t=0
0.4853593646502453
% es.Ey (V/m) @ t=0
0.0726764485327524
% es.Ez (V/m) @ t=0
-0.484649655752144
% es.tEx (V/m) @ t=0
0.4853593646502472
% es.tEy (V/m) @ t=0
0
% es.tEz (V/m) @ t=0
-0.4846496557521349
% V (V) @ t=0
0.007482731772325244
% es.normE (V/m) @ t=0.02
0.6035260231040802
% es.EX (V/m) @ t=0.02
0.4192146263985864
% es.EY (V/m) @ t=0.02
0.06277210858171056
% es.EZ (V/m) @ t=0.02
-0.41860163630640446
% es.tEX (V/m) @ t=0.02
0.4192146263985874
% es.tEY (V/m) @ t=0.02
0
% es.tEZ (V/m) @ t=0.02
-0.41860163630639713
% es.Ex (V/m) @ t=0.02
0.4192146263985864
% es.Ey (V/m) @ t=0.02
0.06277210858171056
% es.Ez (V/m) @ t=0.02
-0.41860163630640446
% es.tEx (V/m) @ t=0.02
0.4192146263985874
% es.tEy (V/m) @ t=0.02
0
% es.tEz (V/m) @ t=0.02
-0.41860163630639713
% V (V) @ t=0.02
0.006462985569535916
% es.normE (V/m) @ t=0.04
0.6090777506699642
% es.EX (V/m) @ t=0.04
0.42307090647968415
% es.EY (V/m) @ t=0.04
0.06334953816165986
% es.EZ (V/m) @ t=0.04
-0.42245227757980897
% es.tEX (V/m) @ t=0.04
0.42307090647968404
% es.tEY (V/m) @ t=0.04
0
% es.tEZ (V/m) @ t=0.04
-0.42245227757980164
% es.Ex (V/m) @ t=0.04
0.42307090647968415
% es.Ey (V/m) @ t=0.04
0.06334953816165986
% es.Ez (V/m) @ t=0.04
-0.42245227757980897
% es.tEx (V/m) @ t=0.04
0.42307090647968404
% es.tEy (V/m) @ t=0.04
0
% es.tEz (V/m) @ t=0.04
-0.42245227757980164
% V (V) @ t=0.04
0.006522437401650676
% es.normE (V/m) @ t=0.06
0.6146804968808606
% es.EX (V/m) @ t=0.06
0.4269626246289301
% es.EY (V/m) @ t=0.06
0.06393227346762928
% es.EZ (V/m) @ t=0.06
-0.4263383052281846
% es.tEX (V/m) @ t=0.06
0.42696262462893086
% es.tEY (V/m) @ t=0.06
0
% es.tEZ (V/m) @ t=0.06
-0.4263383052281773
% es.Ex (V/m) @ t=0.06
0.4269626246289301
% es.Ey (V/m) @ t=0.06
0.06393227346762928
% es.Ez (V/m) @ t=0.06
-0.4263383052281846
% es.tEx (V/m) @ t=0.06
0.42696262462893086
% es.tEy (V/m) @ t=0.06
0
% es.tEz (V/m) @ t=0.06
-0.4263383052281773
% V (V) @ t=0.06
0.00658243561974592
% es.normE (V/m) @ t=0.08
0.620366474082561
% es.EX (V/m) @ t=0.08
0.4309121557622926
% es.EY (V/m) @ t=0.08
0.06452366575015589
% es.EZ (V/m) @ t=0.08
-0.43028206127669066
% es.tEX (V/m) @ t=0.08
0.4309121557622986
% es.tEY (V/m) @ t=0.08
0
% es.tEZ (V/m) @ t=0.08
-0.43028206127668156
% es.Ex (V/m) @ t=0.08
0.4309121557622926
% es.Ey (V/m) @ t=0.08
0.06452366575015589
% es.Ez (V/m) @ t=0.08
-0.43028206127669066
% es.tEx (V/m) @ t=0.08
0.4309121557622986
% es.tEy (V/m) @ t=0.08
0
% es.tEz (V/m) @ t=0.08
-0.43028206127668156
% V (V) @ t=0.08
0.006643325120606854
% es.normE (V/m) @ t=0.1
0.6261150213667945
% es.EX (V/m) @ t=0.1
0.4349051486297212
% es.EY (V/m) @ t=0.1
0.06512156603805686
% es.EZ (V/m) @ t=0.1
-0.43426921547203157
% es.tEX (V/m) @ t=0.1
0.43490514862972196
% es.tEY (V/m) @ t=0.1
0
% es.tEZ (V/m) @ t=0.1
-0.43426921547202957
% es.Ex (V/m) @ t=0.1
0.4349051486297212
% es.Ey (V/m) @ t=0.1
0.06512156603805686
% es.Ez (V/m) @ t=0.1
-0.43426921547203157
% es.tEx (V/m) @ t=0.1
0.43490514862972196
% es.tEy (V/m) @ t=0.1
0
% es.tEz (V/m) @ t=0.1
-0.43426921547202957
% V (V) @ t=0.1
0.006704884655978753
% es.normE (V/m) @ t=0.12
0.6318635686510267
% es.EX (V/m) @ t=0.12
0.4388981414971417
% es.EY (V/m) @ t=0.12
0.065719466325968
% es.EZ (V/m) @ t=0.12
-0.4382563696673796
% es.tEX (V/m) @ t=0.12
0.438898141497144
% es.tEY (V/m) @ t=0.12
0
% es.tEZ (V/m) @ t=0.12
-0.43825636966737047
% es.Ex (V/m) @ t=0.12
0.4388981414971417
% es.Ey (V/m) @ t=0.12
0.065719466325968
% es.Ez (V/m) @ t=0.12
-0.4382563696673796
% es.tEx (V/m) @ t=0.12
0.438898141497144
% es.tEy (V/m) @ t=0.12
0
% es.tEz (V/m) @ t=0.12
-0.43825636966737047
% V (V) @ t=0.12
0.00676644419135065
% es.normE (V/m) @ t=0.14
0.637658938225975
% es.EX (V/m) @ t=0.14
0.4429236575473142
% es.EY (V/m) @ t=0.14
0.06632223660250358
% es.EZ (V/m) @ t=0.14
-0.44227599947693874
% es.tEX (V/m) @ t=0.14
0.442923657547315
% es.tEY (V/m) @ t=0.14
0
% es.tEZ (V/m) @ t=0.14
-0.4422759994769314
% es.Ex (V/m) @ t=0.14
0.4429236575473142
% es.Ey (V/m) @ t=0.14
0.06632223660250358
% es.Ez (V/m) @ t=0.14
-0.44227599947693874
% es.tEx (V/m) @ t=0.14
0.442923657547315
% es.tEy (V/m) @ t=0.14
0
% es.tEz (V/m) @ t=0.14
-0.4422759994769314
% V (V) @ t=0.14
0.006828505129825686
% es.normE (V/m) @ t=0.16
0.6437160890243794
% es.EX (V/m) @ t=0.16
0.4471310091813464
% es.EY (V/m) @ t=0.16
0.0669522347562582
% es.EZ (V/m) @ t=0.16
-0.44647719891696336
% es.tEX (V/m) @ t=0.16
0.44713100918134807
% es.tEY (V/m) @ t=0.16
0
% es.tEZ (V/m) @ t=0.16
-0.44647719891695603
% es.Ex (V/m) @ t=0.16
0.4471310091813464
% es.Ey (V/m) @ t=0.16
0.0669522347562582
% es.Ez (V/m) @ t=0.16
-0.44647719891696336
% es.tEx (V/m) @ t=0.16
0.44713100918134807
% es.tEy (V/m) @ t=0.16
0
% es.tEz (V/m) @ t=0.16
-0.44647719891695603
% V (V) @ t=0.16
0.0068933693894493425
% es.normE (V/m) @ t=0.18
0.649773239822786
% es.EX (V/m) @ t=0.18
0.4513383608153846
% es.EY (V/m) @ t=0.18
0.06758223291001153
% es.EZ (V/m) @ t=0.18
-0.45067839835698575
% es.tEX (V/m) @ t=0.18
0.45133836081538536
% es.tEY (V/m) @ t=0.18
0
% es.tEZ (V/m) @ t=0.18
-0.45067839835697665
% es.Ex (V/m) @ t=0.18
0.4513383608153846
% es.Ey (V/m) @ t=0.18
0.06758223291001153
% es.Ez (V/m) @ t=0.18
-0.45067839835698575
% es.tEx (V/m) @ t=0.18
0.45133836081538536
% es.tEy (V/m) @ t=0.18
0
% es.tEz (V/m) @ t=0.18
-0.45067839835697665
% V (V) @ t=0.18
0.006958233649073
% es.normE (V/m) @ t=0.2
0.6558303906211855
% es.EX (V/m) @ t=0.2
0.4555457124494181
% es.EY (V/m) @ t=0.2
0.06821223106377602
% es.EZ (V/m) @ t=0.2
-0.45487959779699927
% es.tEX (V/m) @ t=0.2
0.45554571244942044
% es.tEY (V/m) @ t=0.2
0
% es.tEZ (V/m) @ t=0.2
-0.45487959779699016
% es.Ex (V/m) @ t=0.2
0.4555457124494181
% es.Ey (V/m) @ t=0.2
0.06821223106377602
% es.Ez (V/m) @ t=0.2
-0.45487959779699927
% es.tEx (V/m) @ t=0.2
0.45554571244942044
% es.tEy (V/m) @ t=0.2
0
% es.tEz (V/m) @ t=0.2
-0.45487959779699016
% V (V) @ t=0.2
0.007023097908696658
% es.normE (V/m) @ t=0.22
0.6618875414195913
% es.EX (V/m) @ t=0.22
0.4597530640834565
% es.EY (V/m) @ t=0.22
0.06884222921753469
% es.EZ (V/m) @ t=0.22
-0.4590807972370199
% es.tEX (V/m) @ t=0.22
0.45975306408345795
% es.tEY (V/m) @ t=0.22
0
% es.tEZ (V/m) @ t=0.22
-0.4590807972370108
% es.Ex (V/m) @ t=0.22
0.4597530640834565
% es.Ey (V/m) @ t=0.22
0.06884222921753469
% es.Ez (V/m) @ t=0.22
-0.4590807972370199
% es.tEx (V/m) @ t=0.22
0.45975306408345795
% es.tEy (V/m) @ t=0.22
0
% es.tEz (V/m) @ t=0.22
-0.4590807972370108
% V (V) @ t=0.22
0.007087962168320313
% es.normE (V/m) @ t=0.24
0.6679446922179908
% es.EX (V/m) @ t=0.24
0.46396041571748925
% es.EY (V/m) @ t=0.24
0.06947222737129971
% es.EZ (V/m) @ t=0.24
-0.46328199667703474
% es.tEX (V/m) @ t=0.24
0.46396041571748947
% es.tEY (V/m) @ t=0.24
0
% es.tEZ (V/m) @ t=0.24
-0.46328199667703096
% es.Ex (V/m) @ t=0.24
0.46396041571748925
% es.Ey (V/m) @ t=0.24
0.06947222737129971
% es.Ez (V/m) @ t=0.24
-0.46328199667703474
% es.tEx (V/m) @ t=0.24
0.46396041571748947
% es.tEy (V/m) @ t=0.24
0
% es.tEz (V/m) @ t=0.24
-0.46328199667703096
% V (V) @ t=0.24
0.0071528264279439695
% es.normE (V/m) @ t=0.26
0.6740018430163977
% es.EX (V/m) @ t=0.26
0.46816776735152443
% es.EY (V/m) @ t=0.26
0.07010222552504997
% es.EZ (V/m) @ t=0.26
-0.4674831961170576
% es.tEX (V/m) @ t=0.26
0.46816776735152454
% es.tEY (V/m) @ t=0.26
0
% es.tEZ (V/m) @ t=0.26
-0.46748319611704847
% es.Ex (V/m) @ t=0.26
0.46816776735152443
% es.Ey (V/m) @ t=0.26
0.07010222552504997
% es.Ez (V/m) @ t=0.26
-0.4674831961170576
% es.tEx (V/m) @ t=0.26
0.46816776735152454
% es.tEy (V/m) @ t=0.26
0
% es.tEz (V/m) @ t=0.26
-0.46748319611704847
% V (V) @ t=0.26
0.007217690687567627
% es.normE (V/m) @ t=0.28
0.6802767144550573
% es.EX (V/m) @ t=0.28
0.47252635512921104
% es.EY (V/m) @ t=0.28
0.07075478693980453
% es.EZ (V/m) @ t=0.28
-0.4718354294411957
% es.tEX (V/m) @ t=0.28
0.4725263551292116
% es.tEY (V/m) @ t=0.28
0
% es.tEZ (V/m) @ t=0.28
-0.4718354294411866
% es.Ex (V/m) @ t=0.28
0.47252635512921104
% es.Ey (V/m) @ t=0.28
0.07075478693980453
% es.Ez (V/m) @ t=0.28
-0.4718354294411957
% es.tEx (V/m) @ t=0.28
0.4725263551292116
% es.tEy (V/m) @ t=0.28
0
% es.tEz (V/m) @ t=0.28
-0.4718354294411866
% V (V) @ t=0.28
0.007284891875469428
% es.normE (V/m) @ t=0.3
0.6870284303975651
% es.EX (V/m) @ t=0.3
0.47721617527777094
% es.EY (V/m) @ t=0.3
0.07145676565823059
% es.EZ (V/m) @ t=0.3
-0.47651845215414323
% es.tEX (V/m) @ t=0.3
0.47721617527777327
% es.tEY (V/m) @ t=0.3
0
% es.tEZ (V/m) @ t=0.3
-0.47651845215413413
% es.Ex (V/m) @ t=0.3
0.47721617527777094
% es.Ey (V/m) @ t=0.3
0.07145676565823059
% es.Ez (V/m) @ t=0.3
-0.47651845215414323
% es.tEx (V/m) @ t=0.3
0.47721617527777327
% es.tEy (V/m) @ t=0.3
0
% es.tEz (V/m) @ t=0.3
-0.47651845215413413
% V (V) @ t=0.3
0.0073572113259470755
% es.normE (V/m) @ t=0.32
0.6937801463402503
% es.EX (V/m) @ t=0.32
0.4819059954263337
% es.EY (V/m) @ t=0.32
0.0721587443766405
% es.EZ (V/m) @ t=0.32
-0.4812014748670863
% es.tEX (V/m) @ t=0.32
0.48190599542633605
% es.tEY (V/m) @ t=0.32
0
% es.tEZ (V/m) @ t=0.32
-0.4812014748670772
% es.Ex (V/m) @ t=0.32
0.4819059954263337
% es.Ey (V/m) @ t=0.32
0.0721587443766405
% es.Ez (V/m) @ t=0.32
-0.4812014748670863
% es.tEx (V/m) @ t=0.32
0.48190599542633605
% es.tEy (V/m) @ t=0.32
0
% es.tEz (V/m) @ t=0.32
-0.4812014748670772
% V (V) @ t=0.32
0.007429530776424724
% es.normE (V/m) @ t=0.34
0.700531862283112
% es.EX (V/m) @ t=0.34
0.4865958155748936
% es.EY (V/m) @ t=0.34
0.07286072309505343
% es.EZ (V/m) @ t=0.34
-0.4858844975800267
% es.tEX (V/m) @ t=0.34
0.4865958155748955
% es.tEY (V/m) @ t=0.34
0
% es.tEZ (V/m) @ t=0.34
-0.4858844975800176
% es.Ex (V/m) @ t=0.34
0.4865958155748936
% es.Ey (V/m) @ t=0.34
0.07286072309505343
% es.Ez (V/m) @ t=0.34
-0.4858844975800267
% es.tEx (V/m) @ t=0.34
0.4865958155748955
% es.tEy (V/m) @ t=0.34
0
% es.tEz (V/m) @ t=0.34
-0.4858844975800176
% V (V) @ t=0.34
0.007501850226902372
% es.normE (V/m) @ t=0.36
0.7072835782261486
% es.EX (V/m) @ t=0.36
0.49128563572345574
% es.EY (V/m) @ t=0.36
0.07356270181348057
% es.EZ (V/m) @ t=0.36
-0.4905675202929698
% es.tEX (V/m) @ t=0.36
0.4912856357234576
% es.tEY (V/m) @ t=0.36
0
% es.tEZ (V/m) @ t=0.36
-0.49056752029296424
% es.Ex (V/m) @ t=0.36
0.49128563572345574
% es.Ey (V/m) @ t=0.36
0.07356270181348057
% es.Ez (V/m) @ t=0.36
-0.4905675202929698
% es.tEx (V/m) @ t=0.36
0.4912856357234576
% es.tEy (V/m) @ t=0.36
0
% es.tEz (V/m) @ t=0.36
-0.49056752029296424
% V (V) @ t=0.36
0.007574169677380019
% es.normE (V/m) @ t=0.38
0.7140352941693546
% es.EX (V/m) @ t=0.38
0.4959754558720181
% es.EY (V/m) @ t=0.38
0.07426468053190372
% es.EZ (V/m) @ t=0.38
-0.49525054300591687
% es.tEX (V/m) @ t=0.38
0.49597545587201997
% es.tEY (V/m) @ t=0.38
0
% es.tEZ (V/m) @ t=0.38
-0.49525054300590776
% es.Ex (V/m) @ t=0.38
0.4959754558720181
% es.Ey (V/m) @ t=0.38
0.07426468053190372
% es.Ez (V/m) @ t=0.38
-0.49525054300591687
% es.tEx (V/m) @ t=0.38
0.49597545587201997
% es.tEy (V/m) @ t=0.38
0
% es.tEz (V/m) @ t=0.38
-0.49525054300590776
% V (V) @ t=0.38
0.0076464891278576665
% es.normE (V/m) @ t=0.4
0.7207870101127192
% es.EX (V/m) @ t=0.4
0.5006652760205831
% es.EY (V/m) @ t=0.4
0.07496665925031681
% es.EZ (V/m) @ t=0.4
-0.49993356571885994
% es.tEX (V/m) @ t=0.4
0.5006652760205823
% es.tEY (V/m) @ t=0.4
0
% es.tEZ (V/m) @ t=0.4
-0.49993356571885084
% es.Ex (V/m) @ t=0.4
0.5006652760205831
% es.Ey (V/m) @ t=0.4
0.07496665925031681
% es.Ez (V/m) @ t=0.4
-0.49993356571885994
% es.tEx (V/m) @ t=0.4
0.5006652760205823
% es.tEy (V/m) @ t=0.4
0
% es.tEz (V/m) @ t=0.4
-0.49993356571885084
% V (V) @ t=0.4
0.007718808578335314
% es.normE (V/m) @ t=0.42
0.7275387260562428
% es.EX (V/m) @ t=0.42
0.5053550961691379
% es.EY (V/m) @ t=0.42
0.07566863796873419
% es.EZ (V/m) @ t=0.42
-0.5046165884318101
% es.tEX (V/m) @ t=0.42
0.5053550961691389
% es.tEY (V/m) @ t=0.42
0
% es.tEZ (V/m) @ t=0.42
-0.5046165884318046
% es.Ex (V/m) @ t=0.42
0.5053550961691379
% es.Ey (V/m) @ t=0.42
0.07566863796873419
% es.Ez (V/m) @ t=0.42
-0.5046165884318101
% es.tEx (V/m) @ t=0.42
0.5053550961691389
% es.tEy (V/m) @ t=0.42
0
% es.tEz (V/m) @ t=0.42
-0.5046165884318046
% V (V) @ t=0.42
0.007791128028812963
% es.normE (V/m) @ t=0.44
0.734290441999914
% es.EX (V/m) @ t=0.44
0.510044916317706
% es.EY (V/m) @ t=0.44
0.07637061668715678
% es.EZ (V/m) @ t=0.44
-0.5092996111447416
% es.tEX (V/m) @ t=0.44
0.5100449163177083
% es.tEY (V/m) @ t=0.44
0
% es.tEZ (V/m) @ t=0.44
-0.5092996111447308
% es.Ex (V/m) @ t=0.44
0.510044916317706
% es.Ey (V/m) @ t=0.44
0.07637061668715678
% es.Ez (V/m) @ t=0.44
-0.5092996111447416
% es.tEx (V/m) @ t=0.44
0.5100449163177083
% es.tEy (V/m) @ t=0.44
0
% es.tEz (V/m) @ t=0.44
-0.5092996111447308
% V (V) @ t=0.44
0.00786344747929061
% es.normE (V/m) @ t=0.46
0.741042157943741
% es.EX (V/m) @ t=0.46
0.5147347364662661
% es.EY (V/m) @ t=0.46
0.07707259540555819
% es.EZ (V/m) @ t=0.46
-0.5139826338576923
% es.tEX (V/m) @ t=0.46
0.5147347364662636
% es.tEY (V/m) @ t=0.46
0
% es.tEZ (V/m) @ t=0.46
-0.5139826338576814
% es.Ex (V/m) @ t=0.46
0.5147347364662661
% es.Ey (V/m) @ t=0.46
0.07707259540555819
% es.Ez (V/m) @ t=0.46
-0.5139826338576923
% es.tEx (V/m) @ t=0.46
0.5147347364662636
% es.tEy (V/m) @ t=0.46
0
% es.tEz (V/m) @ t=0.46
-0.5139826338576814
% V (V) @ t=0.46
0.007935766929768258
% es.normE (V/m) @ t=0.48
0.7477938738877246
% es.EX (V/m) @ t=0.48
0.5194245566148288
% es.EY (V/m) @ t=0.48
0.07777457412398578
% es.EZ (V/m) @ t=0.48
-0.5186656565706536
% es.tEX (V/m) @ t=0.48
0.5194245566148334
% es.tEY (V/m) @ t=0.48
0
% es.tEZ (V/m) @ t=0.48
-0.5186656565706427
% es.Ex (V/m) @ t=0.48
0.5194245566148288
% es.Ey (V/m) @ t=0.48
0.07777457412398578
% es.Ez (V/m) @ t=0.48
-0.5186656565706536
% es.tEx (V/m) @ t=0.48
0.5194245566148334
% es.tEy (V/m) @ t=0.48
0
% es.tEz (V/m) @ t=0.48
-0.5186656565706427
% V (V) @ t=0.48
0.008008086380245907
% es.normE (V/m) @ t=0.5
0.7545455898318314
% es.EX (V/m) @ t=0.5
0.5241143767633972
% es.EY (V/m) @ t=0.5
0.07847655284239735
% es.EZ (V/m) @ t=0.5
-0.523348679283586
% es.tEX (V/m) @ t=0.5
0.5241143767633982
% es.tEY (V/m) @ t=0.5
0
% es.tEZ (V/m) @ t=0.5
-0.5233486792835751
% es.Ex (V/m) @ t=0.5
0.5241143767633972
% es.Ey (V/m) @ t=0.5
0.07847655284239735
% es.Ez (V/m) @ t=0.5
-0.523348679283586
% es.tEx (V/m) @ t=0.5
0.5241143767633982
% es.tEy (V/m) @ t=0.5
0
% es.tEz (V/m) @ t=0.5
-0.5233486792835751
% V (V) @ t=0.5
0.008080405830723553
% es.normE (V/m) @ t=0.52
0.7612973057760761
% es.EX (V/m) @ t=0.52
0.5288041969119507
% es.EY (V/m) @ t=0.52
0.07917853156080648
% es.EZ (V/m) @ t=0.52
-0.5280317019965326
% es.tEX (V/m) @ t=0.52
0.5288041969119515
% es.tEY (V/m) @ t=0.52
0
% es.tEZ (V/m) @ t=0.52
-0.5280317019965217
% es.Ex (V/m) @ t=0.52
0.5288041969119507
% es.Ey (V/m) @ t=0.52
0.07917853156080648
% es.Ez (V/m) @ t=0.52
-0.5280317019965326
% es.tEx (V/m) @ t=0.52
0.5288041969119515
% es.tEy (V/m) @ t=0.52
0
% es.tEz (V/m) @ t=0.52
-0.5280317019965217
% V (V) @ t=0.52
0.008152725281201203
% es.normE (V/m) @ t=0.54
0.7680490217204605
% es.EX (V/m) @ t=0.54
0.5334940170605164
% es.EY (V/m) @ t=0.54
0.07988051027923629
% es.EZ (V/m) @ t=0.54
-0.5327147247094726
% es.tEX (V/m) @ t=0.54
0.5334940170605187
% es.tEY (V/m) @ t=0.54
0
% es.tEZ (V/m) @ t=0.54
-0.5327147247094652
% es.Ex (V/m) @ t=0.54
0.5334940170605164
% es.Ey (V/m) @ t=0.54
0.07988051027923629
% es.Ez (V/m) @ t=0.54
-0.5327147247094726
% es.tEx (V/m) @ t=0.54
0.5334940170605187
% es.tEy (V/m) @ t=0.54
0
% es.tEz (V/m) @ t=0.54
-0.5327147247094652
% V (V) @ t=0.54
0.008225044731678849
% es.normE (V/m) @ t=0.56
0.7753026008481948
% es.EX (V/m) @ t=0.56
0.5385324451291403
% es.EY (V/m) @ t=0.56
0.08063454947390014
% es.EZ (V/m) @ t=0.56
-0.5377458773540911
% es.tEX (V/m) @ t=0.56
0.5385324451291413
% es.tEY (V/m) @ t=0.56
0
% es.tEZ (V/m) @ t=0.56
-0.5377458773540802
% es.Ex (V/m) @ t=0.56
0.5385324451291403
% es.Ey (V/m) @ t=0.56
0.08063454947390014
% es.Ez (V/m) @ t=0.56
-0.5377458773540911
% es.tEx (V/m) @ t=0.56
0.5385324451291413
% es.tEy (V/m) @ t=0.56
0
% es.tEz (V/m) @ t=0.56
-0.5377458773540802
% V (V) @ t=0.56
0.00830274762067142
% es.normE (V/m) @ t=0.58
0.7828422410176747
% es.EX (V/m) @ t=0.58
0.5437695790362654
% es.EY (V/m) @ t=0.58
0.08141826303910141
% es.EZ (V/m) @ t=0.58
-0.5429754633847395
% es.tEX (V/m) @ t=0.58
0.5437695790362642
% es.tEY (V/m) @ t=0.58
0
% es.tEZ (V/m) @ t=0.58
-0.542975463384725
% es.Ex (V/m) @ t=0.58
0.5437695790362654
% es.Ey (V/m) @ t=0.58
0.08141826303910141
% es.Ez (V/m) @ t=0.58
-0.5429754633847395
% es.tEx (V/m) @ t=0.58
0.5437695790362642
% es.tEy (V/m) @ t=0.58
0
% es.tEz (V/m) @ t=0.58
-0.542975463384725
% V (V) @ t=0.58
0.008383519059179258
% es.normE (V/m) @ t=0.6
0.7903818811876051
% es.EX (V/m) @ t=0.6
0.5490067129433803
% es.EY (V/m) @ t=0.6
0.08220197660428882
% es.EZ (V/m) @ t=0.6
-0.5482050494153932
% es.tEX (V/m) @ t=0.6
0.5490067129433827
% es.tEY (V/m) @ t=0.6
0
% es.tEZ (V/m) @ t=0.6
-0.5482050494153823
% es.Ex (V/m) @ t=0.6
0.5490067129433803
% es.Ey (V/m) @ t=0.6
0.08220197660428882
% es.Ez (V/m) @ t=0.6
-0.5482050494153932
% es.tEx (V/m) @ t=0.6
0.5490067129433827
% es.tEy (V/m) @ t=0.6
0
% es.tEz (V/m) @ t=0.6
-0.5482050494153823
% V (V) @ t=0.6
0.008464290497687096
% es.normE (V/m) @ t=0.62
0.7979215213579899
% es.EX (V/m) @ t=0.62
0.5542438468504994
% es.EY (V/m) @ t=0.62
0.08298569016947208
% es.EZ (V/m) @ t=0.62
-0.5534346354460513
% es.tEX (V/m) @ t=0.62
0.5542438468505018
% es.tEY (V/m) @ t=0.62
0
% es.tEZ (V/m) @ t=0.62
-0.5534346354460404
% es.Ex (V/m) @ t=0.62
0.5542438468504994
% es.Ey (V/m) @ t=0.62
0.08298569016947208
% es.Ez (V/m) @ t=0.62
-0.5534346354460513
% es.tEx (V/m) @ t=0.62
0.5542438468505018
% es.tEy (V/m) @ t=0.62
0
% es.tEz (V/m) @ t=0.62
-0.5534346354460404
% V (V) @ t=0.62
0.008545061936194935
% es.normE (V/m) @ t=0.64
0.8054611615287972
% es.EX (V/m) @ t=0.64
0.5594809807576281
% es.EY (V/m) @ t=0.64
0.08376940373465197
% es.EZ (V/m) @ t=0.64
-0.5586642214766881
% es.tEX (V/m) @ t=0.64
0.5594809807576289
% es.tEY (V/m) @ t=0.64
0
% es.tEZ (V/m) @ t=0.64
-0.5586642214766773
% es.Ex (V/m) @ t=0.64
0.5594809807576281
% es.Ey (V/m) @ t=0.64
0.08376940373465197
% es.Ez (V/m) @ t=0.64
-0.5586642214766881
% es.tEx (V/m) @ t=0.64
0.5594809807576289
% es.tEy (V/m) @ t=0.64
0
% es.tEz (V/m) @ t=0.64
-0.5586642214766773
% V (V) @ t=0.64
0.008625833374702775
% es.normE (V/m) @ t=0.66
0.8130008017000248
% es.EX (V/m) @ t=0.66
0.5647181146647468
% es.EY (V/m) @ t=0.66
0.08455311729983761
% es.EZ (V/m) @ t=0.66
-0.5638938075073316
% es.tEX (V/m) @ t=0.66
0.5647181146647471
% es.tEY (V/m) @ t=0.66
0
% es.tEZ (V/m) @ t=0.66
-0.5638938075073172
% es.Ex (V/m) @ t=0.66
0.5647181146647468
% es.Ey (V/m) @ t=0.66
0.08455311729983761
% es.Ez (V/m) @ t=0.66
-0.5638938075073316
% es.tEx (V/m) @ t=0.66
0.5647181146647471
% es.tEy (V/m) @ t=0.66
0
% es.tEz (V/m) @ t=0.66
-0.5638938075073172
% V (V) @ t=0.66
0.008706604813210613
% es.normE (V/m) @ t=0.68
0.8205404418716793
% es.EX (V/m) @ t=0.68
0.5699552485718712
% es.EY (V/m) @ t=0.68
0.08533683086502974
% es.EZ (V/m) @ t=0.68
-0.5691233935379969
% es.tEX (V/m) @ t=0.68
0.5699552485718733
% es.tEY (V/m) @ t=0.68
0
% es.tEZ (V/m) @ t=0.68
-0.5691233935379825
% es.Ex (V/m) @ t=0.68
0.5699552485718712
% es.Ey (V/m) @ t=0.68
0.08533683086502974
% es.Ez (V/m) @ t=0.68
-0.5691233935379969
% es.tEx (V/m) @ t=0.68
0.5699552485718733
% es.tEy (V/m) @ t=0.68
0
% es.tEz (V/m) @ t=0.68
-0.5691233935379825
% V (V) @ t=0.68
0.008787376251718451
% es.normE (V/m) @ t=0.7
0.8280800820437103
% es.EX (V/m) @ t=0.7
0.5751923824789932
% es.EY (V/m) @ t=0.7
0.08612054443021983
% es.EZ (V/m) @ t=0.7
-0.5743529795686333
% es.tEX (V/m) @ t=0.7
0.5751923824789917
% es.tEY (V/m) @ t=0.7
0
% es.tEZ (V/m) @ t=0.7
-0.5743529795686189
% es.Ex (V/m) @ t=0.7
0.5751923824789932
% es.Ey (V/m) @ t=0.7
0.08612054443021983
% es.Ez (V/m) @ t=0.7
-0.5743529795686333
% es.tEx (V/m) @ t=0.7
0.5751923824789917
% es.tEy (V/m) @ t=0.7
0
% es.tEz (V/m) @ t=0.7
-0.5743529795686189
% V (V) @ t=0.7
0.008868147690226291
% es.normE (V/m) @ t=0.72
0.8356197222161384
% es.EX (V/m) @ t=0.72
0.5804295163861066
% es.EY (V/m) @ t=0.72
0.08690425799539844
% es.EZ (V/m) @ t=0.72
-0.5795825655992919
% es.tEX (V/m) @ t=0.72
0.5804295163861124
% es.tEY (V/m) @ t=0.72
0
% es.tEZ (V/m) @ t=0.72
-0.5795825655992775
% es.Ex (V/m) @ t=0.72
0.5804295163861066
% es.Ey (V/m) @ t=0.72
0.08690425799539844
% es.Ez (V/m) @ t=0.72
-0.5795825655992919
% es.tEx (V/m) @ t=0.72
0.5804295163861124
% es.tEy (V/m) @ t=0.72
0
% es.tEz (V/m) @ t=0.72
-0.5795825655992775
% V (V) @ t=0.72
0.008948919128734129
% es.normE (V/m) @ t=0.74
0.8431593623889451
% es.EX (V/m) @ t=0.74
0.5856666502932323
% es.EY (V/m) @ t=0.74
0.08768797156058564
% es.EZ (V/m) @ t=0.74
-0.584812151629946
% es.tEX (V/m) @ t=0.74
0.5856666502932344
% es.tEY (V/m) @ t=0.74
0
% es.tEZ (V/m) @ t=0.74
-0.5848121516299281
% es.Ex (V/m) @ t=0.74
0.5856666502932323
% es.Ey (V/m) @ t=0.74
0.08768797156058564
% es.Ez (V/m) @ t=0.74
-0.584812151629946
% es.tEx (V/m) @ t=0.74
0.5856666502932344
% es.tEy (V/m) @ t=0.74
0
% es.tEz (V/m) @ t=0.74
-0.5848121516299281
% V (V) @ t=0.74
0.009029690567241969
% es.normE (V/m) @ t=0.76
0.8506990025621181
% es.EX (V/m) @ t=0.76
0.5909037842003522
% es.EY (V/m) @ t=0.76
0.0884716851257773
% es.EZ (V/m) @ t=0.76
-0.5900417376606006
% es.tEX (V/m) @ t=0.76
0.5909037842003557
% es.tEY (V/m) @ t=0.76
0
% es.tEZ (V/m) @ t=0.76
-0.5900417376605862
% es.Ex (V/m) @ t=0.76
0.5909037842003522
% es.Ey (V/m) @ t=0.76
0.0884716851257773
% es.Ez (V/m) @ t=0.76
-0.5900417376606006
% es.tEx (V/m) @ t=0.76
0.5909037842003557
% es.tEy (V/m) @ t=0.76
0
% es.tEz (V/m) @ t=0.76
-0.5900417376605862
% V (V) @ t=0.76
0.009110462005749807
% es.normE (V/m) @ t=0.78
0.8582386427356468
% es.EX (V/m) @ t=0.78
0.596140918107473
% es.EY (V/m) @ t=0.78
0.0892553986909641
% es.EZ (V/m) @ t=0.78
-0.5952713236912517
% es.tEX (V/m) @ t=0.78
0.5961409181074804
% es.tEY (V/m) @ t=0.78
0
% es.tEZ (V/m) @ t=0.78
-0.5952713236912373
% es.Ex (V/m) @ t=0.78
0.596140918107473
% es.Ey (V/m) @ t=0.78
0.0892553986909641
% es.Ez (V/m) @ t=0.78
-0.5952713236912517
% es.tEx (V/m) @ t=0.78
0.5961409181074804
% es.tEy (V/m) @ t=0.78
0
% es.tEz (V/m) @ t=0.78
-0.5952713236912373
% V (V) @ t=0.78
0.009191233444257645
% es.normE (V/m) @ t=0.8
0.8657782829095221
% es.EX (V/m) @ t=0.8
0.6013780520146033
% es.EY (V/m) @ t=0.8
0.09003911225614955
% es.EZ (V/m) @ t=0.8
-0.6005009097218992
% es.tEX (V/m) @ t=0.8
0.6013780520146055
% es.tEY (V/m) @ t=0.8
0
% es.tEZ (V/m) @ t=0.8
-0.6005009097218812
% es.Ex (V/m) @ t=0.8
0.6013780520146033
% es.Ey (V/m) @ t=0.8
0.09003911225614955
% es.Ez (V/m) @ t=0.8
-0.6005009097218992
% es.tEx (V/m) @ t=0.8
0.6013780520146055
% es.tEy (V/m) @ t=0.8
0
% es.tEz (V/m) @ t=0.8
-0.6005009097218812
% V (V) @ t=0.8
0.009272004882765483
% es.normE (V/m) @ t=0.82
0.8733179230837388
% es.EX (V/m) @ t=0.82
0.6066151859217248
% es.EY (V/m) @ t=0.82
0.09082282582134807
% es.EZ (V/m) @ t=0.82
-0.6057304957525496
% es.tEX (V/m) @ t=0.82
0.6066151859217266
% es.tEY (V/m) @ t=0.82
0
% es.tEZ (V/m) @ t=0.82
-0.6057304957525314
% es.Ex (V/m) @ t=0.82
0.6066151859217248
% es.Ey (V/m) @ t=0.82
0.09082282582134807
% es.Ez (V/m) @ t=0.82
-0.6057304957525496
% es.tEx (V/m) @ t=0.82
0.6066151859217266
% es.tEy (V/m) @ t=0.82
0
% es.tEz (V/m) @ t=0.82
-0.6057304957525314
% V (V) @ t=0.82
0.00935277632127332
% es.normE (V/m) @ t=0.84
0.88171782873069
% es.EX (V/m) @ t=0.84
0.6124498456186414
% es.EY (V/m) @ t=0.84
0.09169635072405258
% es.EZ (V/m) @ t=0.84
-0.6115566562317396
% es.tEX (V/m) @ t=0.84
0.6124498456186411
% es.tEY (V/m) @ t=0.84
0
% es.tEZ (V/m) @ t=0.84
-0.6115566562317216
% es.Ex (V/m) @ t=0.84
0.6124498456186414
% es.Ey (V/m) @ t=0.84
0.09169635072405258
% es.Ez (V/m) @ t=0.84
-0.6115566562317396
% es.tEx (V/m) @ t=0.84
0.6124498456186411
% es.tEy (V/m) @ t=0.84
0
% es.tEz (V/m) @ t=0.84
-0.6115566562317216
% V (V) @ t=0.84
0.0094427377969895
% es.normE (V/m) @ t=0.86
0.890153183460086
% es.EX (V/m) @ t=0.86
0.6183091276462946
% es.EY (V/m) @ t=0.86
0.09257357649540915
% es.EZ (V/m) @ t=0.86
-0.6174073998396039
% es.tEX (V/m) @ t=0.86
0.6183091276462984
% es.tEY (V/m) @ t=0.86
0
% es.tEZ (V/m) @ t=0.86
-0.617407399839593
% es.Ex (V/m) @ t=0.86
0.6183091276462946
% es.Ey (V/m) @ t=0.86
0.09257357649540915
% es.Ez (V/m) @ t=0.86
-0.6174073998396039
% es.tEx (V/m) @ t=0.86
0.6183091276462984
% es.tEy (V/m) @ t=0.86
0
% es.tEz (V/m) @ t=0.86
-0.617407399839593
% V (V) @ t=0.86
0.009533077967884166
% es.normE (V/m) @ t=0.88
0.8985885381894928
% es.EX (V/m) @ t=0.88
0.6241684096739555
% es.EY (V/m) @ t=0.88
0.0934508022667665
% es.EZ (V/m) @ t=0.88
-0.6232581434474731
% es.tEX (V/m) @ t=0.88
0.6241684096739575
% es.tEY (V/m) @ t=0.88
0
% es.tEZ (V/m) @ t=0.88
-0.6232581434474658
% es.Ex (V/m) @ t=0.88
0.6241684096739555
% es.Ey (V/m) @ t=0.88
0.0934508022667665
% es.Ez (V/m) @ t=0.88
-0.6232581434474731
% es.tEx (V/m) @ t=0.88
0.6241684096739575
% es.tEy (V/m) @ t=0.88
0
% es.tEz (V/m) @ t=0.88
-0.6232581434474658
% V (V) @ t=0.88
0.009623418138778836
% es.normE (V/m) @ t=0.9
0.907023892918891
% es.EX (V/m) @ t=0.9
0.6300276917016121
% es.EY (V/m) @ t=0.9
0.09432802803813028
% es.EZ (V/m) @ t=0.9
-0.629108887055331
% es.tEX (V/m) @ t=0.9
0.6300276917016103
% es.tEY (V/m) @ t=0.9
0
% es.tEZ (V/m) @ t=0.9
-0.6291088870553163
% es.Ex (V/m) @ t=0.9
0.6300276917016121
% es.Ey (V/m) @ t=0.9
0.09432802803813028
% es.Ez (V/m) @ t=0.9
-0.629108887055331
% es.tEx (V/m) @ t=0.9
0.6300276917016103
% es.tEy (V/m) @ t=0.9
0
% es.tEz (V/m) @ t=0.9
-0.6291088870553163
% V (V) @ t=0.9
0.009713758309673502
% es.normE (V/m) @ t=0.92
0.9154592476482903
% es.EX (V/m) @ t=0.92
0.6358869737292665
% es.EY (V/m) @ t=0.92
0.09520525380947642
% es.EZ (V/m) @ t=0.92
-0.6349596306631917
% es.tEX (V/m) @ t=0.92
0.6358869737292703
% es.tEY (V/m) @ t=0.92
0
% es.tEZ (V/m) @ t=0.92
-0.6349596306631877
% es.Ex (V/m) @ t=0.92
0.6358869737292665
% es.Ey (V/m) @ t=0.92
0.09520525380947642
% es.Ez (V/m) @ t=0.92
-0.6349596306631917
% es.tEx (V/m) @ t=0.92
0.6358869737292703
% es.tEy (V/m) @ t=0.92
0
% es.tEz (V/m) @ t=0.92
-0.6349596306631877
% V (V) @ t=0.92
0.009804098480568173
% es.normE (V/m) @ t=0.94
0.9238946023777063
% es.EX (V/m) @ t=0.94
0.6417462557569269
% es.EY (V/m) @ t=0.94
0.09608247958083571
% es.EZ (V/m) @ t=0.94
-0.6408103742710709
% es.tEX (V/m) @ t=0.94
0.6417462557569298
% es.tEY (V/m) @ t=0.94
0
% es.tEZ (V/m) @ t=0.94
-0.64081037427106
% es.Ex (V/m) @ t=0.94
0.6417462557569269
% es.Ey (V/m) @ t=0.94
0.09608247958083571
% es.Ez (V/m) @ t=0.94
-0.6408103742710709
% es.tEx (V/m) @ t=0.94
0.6417462557569298
% es.tEy (V/m) @ t=0.94
0
% es.tEz (V/m) @ t=0.94
-0.64081037427106
% V (V) @ t=0.94
0.00989443865146284
% es.normE (V/m) @ t=0.96
0.932329957107106
% es.EX (V/m) @ t=0.96
0.6476055377845791
% es.EY (V/m) @ t=0.96
0.096959705352195
% es.EZ (V/m) @ t=0.96
-0.646661117878925
% es.tEX (V/m) @ t=0.96
0.6476055377845817
% es.tEY (V/m) @ t=0.96
0
% es.tEZ (V/m) @ t=0.96
-0.6466611178789106
% es.Ex (V/m) @ t=0.96
0.6476055377845791
% es.Ey (V/m) @ t=0.96
0.096959705352195
% es.Ez (V/m) @ t=0.96
-0.646661117878925
% es.tEx (V/m) @ t=0.96
0.6476055377845817
% es.tEy (V/m) @ t=0.96
0
% es.tEz (V/m) @ t=0.96
-0.6466611178789106
% V (V) @ t=0.96
0.009984778822357508
% es.normE (V/m) @ t=0.98
0.9407653118365229
% es.EX (V/m) @ t=0.98
0.6534648198122384
% es.EY (V/m) @ t=0.98
0.09783693112354991
% es.EZ (V/m) @ t=0.98
-0.6525118614868008
% es.tEX (V/m) @ t=0.98
0.6534648198122448
% es.tEY (V/m) @ t=0.98
0
% es.tEZ (V/m) @ t=0.98
-0.65251186148679
% es.Ex (V/m) @ t=0.98
0.6534648198122384
% es.Ey (V/m) @ t=0.98
0.09783693112354991
% es.Ez (V/m) @ t=0.98
-0.6525118614868008
% es.tEx (V/m) @ t=0.98
0.6534648198122448
% es.tEy (V/m) @ t=0.98
0
% es.tEz (V/m) @ t=0.98
-0.65251186148679
% V (V) @ t=0.98
0.010075118993252176
% es.normE (V/m) @ t=1
0.9492006665659305
% es.EX (V/m) @ t=1
0.6593241018398983
% es.EY (V/m) @ t=1
0.0987141568949092
% es.EZ (V/m) @ t=1
-0.6583626050946549
% es.tEX (V/m) @ t=1
0.6593241018399016
% es.tEY (V/m) @ t=1
0
% es.tEZ (V/m) @ t=1
-0.6583626050946476
% es.Ex (V/m) @ t=1
0.6593241018398983
% es.Ey (V/m) @ t=1
0.0987141568949092
% es.Ez (V/m) @ t=1
-0.6583626050946549
% es.tEx (V/m) @ t=1
0.6593241018399016
% es.tEy (V/m) @ t=1
0
% es.tEz (V/m) @ t=1
-0.6583626050946476
% V (V) @ t=1
0.010165459164146844
% es.normE (V/m) @ t=1.02
0.9576360212953483
% es.EX (V/m) @ t=1.02
0.6651833838675543
% es.EY (V/m) @ t=1.02
0.09959138266626244
% es.EZ (V/m) @ t=1.02
-0.6642133487025299
% es.tEX (V/m) @ t=1.02
0.6651833838675576
% es.tEY (V/m) @ t=1.02
0
% es.tEZ (V/m) @ t=1.02
-0.664213348702519
% es.Ex (V/m) @ t=1.02
0.6651833838675543
% es.Ey (V/m) @ t=1.02
0.09959138266626244
% es.Ez (V/m) @ t=1.02
-0.6642133487025299
% es.tEx (V/m) @ t=1.02
0.6651833838675576
% es.tEy (V/m) @ t=1.02
0
% es.tEz (V/m) @ t=1.02
-0.664213348702519
% V (V) @ t=1.02
0.010255799335041511
% es.normE (V/m) @ t=1.04
0.9660713760247515
% es.EX (V/m) @ t=1.04