% Model:              1 neuron.mph
% Version:            COMSOL 6.0.0.405
% Date:               Mar 16 2023, 09:45
% Dimension:          0
% Nodes:              14017
% Expressions:        14017
% Description:        Electric field norm, Electric field, X component, Electric field, Y component, Electric field, Z component, Tangential electric field, X component, Tangential electric field, Y component, Tangential electric field, Z component, Electric field, x component, Electric field, y component, Electric field, z component, Tangential electric field, x component, Tangential electric field, y component, Tangential electric field, z component, Electric potential
% Length unit:        mm
% x
1.33
% y
12.2
% z
2
% es.normE (V/m) @ t=0
1.4758909052636846
% es.EX (V/m) @ t=0
0.5881999945439917
% es.EY (V/m) @ t=0
0.15550873891556183
% es.EZ (V/m) @ t=0
-1.3434594308931223
% es.tEX (V/m) @ t=0
0.588199994543992
% es.tEY (V/m) @ t=0
0
% es.tEZ (V/m) @ t=0
-1.3434594308931267
% es.Ex (V/m) @ t=0
0.5881999945439917
% es.Ey (V/m) @ t=0
0.15550873891556183
% es.Ez (V/m) @ t=0
-1.3434594308931223
% es.tEx (V/m) @ t=0
0.588199994543992
% es.tEy (V/m) @ t=0
0
% es.tEz (V/m) @ t=0
-1.3434594308931267
% V (V) @ t=0
0.007379591321987604
% es.normE (V/m) @ t=0.02
1.2747551255348095
% es.EX (V/m) @ t=0.02
0.508039555810303
% es.EY (V/m) @ t=0.02
0.13431586690618103
% es.EZ (V/m) @ t=0.02
-1.160371534343164
% es.tEX (V/m) @ t=0.02
0.5080395558103032
% es.tEY (V/m) @ t=0.02
0
% es.tEZ (V/m) @ t=0.02
-1.1603715343431649
% es.Ex (V/m) @ t=0.02
0.508039555810303
% es.Ey (V/m) @ t=0.02
0.13431586690618103
% es.Ez (V/m) @ t=0.02
-1.160371534343164
% es.tEx (V/m) @ t=0.02
0.5080395558103032
% es.tEy (V/m) @ t=0.02
0
% es.tEz (V/m) @ t=0.02
-1.1603715343431649
% V (V) @ t=0.02
0.006373893654408725
% es.normE (V/m) @ t=0.04
1.2864802813263803
% es.EX (V/m) @ t=0.04
0.5127124884710488
% es.EY (V/m) @ t=0.04
0.13555130316228414
% es.EZ (V/m) @ t=0.04
-1.1710445927188387
% es.tEX (V/m) @ t=0.04
0.5127124884710454
% es.tEY (V/m) @ t=0.04
0
% es.tEZ (V/m) @ t=0.04
-1.1710445927188413
% es.Ex (V/m) @ t=0.04
0.5127124884710488
% es.Ey (V/m) @ t=0.04
0.13555130316228414
% es.Ez (V/m) @ t=0.04
-1.1710445927188387
% es.tEx (V/m) @ t=0.04
0.5127124884710454
% es.tEy (V/m) @ t=0.04
0
% es.tEz (V/m) @ t=0.04
-1.1710445927188413
% V (V) @ t=0.04
0.0064325203831333945
% es.normE (V/m) @ t=0.06
1.2983097033397386
% es.EX (V/m) @ t=0.06
0.517426973164077
% es.EY (V/m) @ t=0.06
0.1367977208484472
% es.EZ (V/m) @ t=0.06
-1.1818125627888234
% es.tEX (V/m) @ t=0.06
0.5174269731640737
% es.tEY (V/m) @ t=0.06
0
% es.tEZ (V/m) @ t=0.06
-1.1818125627888314
% es.Ex (V/m) @ t=0.06
0.517426973164077
% es.Ey (V/m) @ t=0.06
0.1367977208484472
% es.Ez (V/m) @ t=0.06
-1.1818125627888234
% es.tEx (V/m) @ t=0.06
0.5174269731640737
% es.tEy (V/m) @ t=0.06
0
% es.tEz (V/m) @ t=0.06
-1.1818125627888314
% V (V) @ t=0.06
0.006491668643708431
% es.normE (V/m) @ t=0.08
1.3103230714362832
% es.EX (V/m) @ t=0.08
0.5222147677968791
% es.EY (V/m) @ t=0.08
0.13806352080421336
% es.EZ (V/m) @ t=0.08
-1.192747973328184
% es.tEX (V/m) @ t=0.08
0.5222147677968758
% es.tEY (V/m) @ t=0.08
0
% es.tEZ (V/m) @ t=0.08
-1.1927479733281885
% es.Ex (V/m) @ t=0.08
0.5222147677968791
% es.Ey (V/m) @ t=0.08
0.13806352080421336
% es.Ez (V/m) @ t=0.08
-1.192747973328184
% es.tEx (V/m) @ t=0.08
0.5222147677968758
% es.tEy (V/m) @ t=0.08
0
% es.tEz (V/m) @ t=0.08
-1.1927479733281885
% V (V) @ t=0.08
0.006551736627941102
% es.normE (V/m) @ t=0.1
1.3224572989906451
% es.EX (V/m) @ t=0.1
0.527050729802532
% es.EY (V/m) @ t=0.1
0.13934205563619484
% es.EZ (V/m) @ t=0.1
-1.2037933985196352
% es.tEX (V/m) @ t=0.1
0.5270507298025322
% es.tEY (V/m) @ t=0.1
0
% es.tEZ (V/m) @ t=0.1
-1.2037933985196396
% es.Ex (V/m) @ t=0.1
0.527050729802532
% es.Ey (V/m) @ t=0.1
0.13934205563619484
% es.Ez (V/m) @ t=0.1
-1.2037933985196352
% es.tEx (V/m) @ t=0.1
0.5270507298025322
% es.tEy (V/m) @ t=0.1
0
% es.tEz (V/m) @ t=0.1
-1.2037933985196396
% V (V) @ t=0.1
0.006612408905022396
% es.normE (V/m) @ t=0.12
1.3345915265450032
% es.EX (V/m) @ t=0.12
0.5318866918081848
% es.EY (V/m) @ t=0.12
0.14062059046817543
% es.EZ (V/m) @ t=0.12
-1.2148388237110828
% es.tEX (V/m) @ t=0.12
0.5318866918081815
% es.tEY (V/m) @ t=0.12
0
% es.tEZ (V/m) @ t=0.12
-1.2148388237110872
% es.Ex (V/m) @ t=0.12
0.5318866918081848
% es.Ey (V/m) @ t=0.12
0.14062059046817543
% es.Ez (V/m) @ t=0.12
-1.2148388237110828
% es.tEx (V/m) @ t=0.12
0.5318866918081815
% es.tEy (V/m) @ t=0.12
0
% es.tEz (V/m) @ t=0.12
-1.2148388237110872
% V (V) @ t=0.12
0.006673081182103691
% es.normE (V/m) @ t=0.14
1.3468656059495983
% es.EX (V/m) @ t=0.14
0.5367783900349408
% es.EY (V/m) @ t=0.14
0.14191386050459975
% es.EZ (V/m) @ t=0.14
-1.2260115519793855
% es.tEX (V/m) @ t=0.14
0.5367783900349408
% es.tEY (V/m) @ t=0.14
0
% es.tEZ (V/m) @ t=0.14
-1.2260115519793882
% es.Ex (V/m) @ t=0.14
0.5367783900349408
% es.Ey (V/m) @ t=0.14
0.14191386050459975
% es.Ez (V/m) @ t=0.14
-1.2260115519793855
% es.tEx (V/m) @ t=0.14
0.5367783900349408
% es.tEy (V/m) @ t=0.14
0
% es.tEz (V/m) @ t=0.14
-1.2260115519793882
% V (V) @ t=0.14
0.006734452748264911
% es.normE (V/m) @ t=0.16
1.3596446240420814
% es.EX (V/m) @ t=0.16
0.5418713253158145
% es.EY (V/m) @ t=0.16
0.1432603323741648
% es.EZ (V/m) @ t=0.16
-1.2376439112678073
% es.tEX (V/m) @ t=0.16
0.5418713253158147
% es.tEY (V/m) @ t=0.16
0
% es.tEZ (V/m) @ t=0.16
-1.2376439112678135
% es.Ex (V/m) @ t=0.16
0.5418713253158145
% es.Ey (V/m) @ t=0.16
0.1432603323741648
% es.Ez (V/m) @ t=0.16
-1.2376439112678073
% es.tEx (V/m) @ t=0.16
0.5418713253158147
% es.tEy (V/m) @ t=0.16
0
% es.tEz (V/m) @ t=0.16
-1.2376439112678135
% V (V) @ t=0.16
0.0067983491155630005
% es.normE (V/m) @ t=0.18
1.3724236421345595
% es.EX (V/m) @ t=0.18
0.5469642605966738
% es.EY (V/m) @ t=0.18
0.14460680424372807
% es.EZ (V/m) @ t=0.18
-1.249276270556229
% es.tEX (V/m) @ t=0.18
0.546964260596674
% es.tEY (V/m) @ t=0.18
0
% es.tEZ (V/m) @ t=0.18
-1.2492762705562317
% es.Ex (V/m) @ t=0.18
0.5469642605966738
% es.Ey (V/m) @ t=0.18
0.14460680424372807
% es.Ez (V/m) @ t=0.18
-1.249276270556229
% es.tEx (V/m) @ t=0.18
0.546964260596674
% es.tEy (V/m) @ t=0.18
0
% es.tEz (V/m) @ t=0.18
-1.2492762705562317
% V (V) @ t=0.18
0.00686224548286109
% es.normE (V/m) @ t=0.2
1.3852026602270389
% es.EX (V/m) @ t=0.2
0.5520571958775402
% es.EY (V/m) @ t=0.2
0.145953276113286
% es.EZ (V/m) @ t=0.2
-1.2609086298446508
% es.tEX (V/m) @ t=0.2
0.5520571958775404
% es.tEY (V/m) @ t=0.2
0
% es.tEZ (V/m) @ t=0.2
-1.2609086298446535
% es.Ex (V/m) @ t=0.2
0.5520571958775402
% es.Ey (V/m) @ t=0.2
0.145953276113286
% es.Ez (V/m) @ t=0.2
-1.2609086298446508
% es.tEx (V/m) @ t=0.2
0.5520571958775404
% es.tEy (V/m) @ t=0.2
0
% es.tEz (V/m) @ t=0.2
-1.2609086298446535
% V (V) @ t=0.2
0.006926141850159179
% es.normE (V/m) @ t=0.22
1.3979816783195167
% es.EX (V/m) @ t=0.22
0.5571501311584031
% es.EY (V/m) @ t=0.22
0.14729974798285816
% es.EZ (V/m) @ t=0.22
-1.2725409891330708
% es.tEX (V/m) @ t=0.22
0.5571501311584068
% es.tEY (V/m) @ t=0.22
0
% es.tEZ (V/m) @ t=0.22
-1.2725409891330717
% es.Ex (V/m) @ t=0.22
0.5571501311584031
% es.Ey (V/m) @ t=0.22
0.14729974798285816
% es.Ez (V/m) @ t=0.22
-1.2725409891330708
% es.tEx (V/m) @ t=0.22
0.5571501311584068
% es.tEy (V/m) @ t=0.22
0
% es.tEz (V/m) @ t=0.22
-1.2725409891330717
% V (V) @ t=0.22
0.00699003821745727
% es.normE (V/m) @ t=0.24
1.4107606964120036
% es.EX (V/m) @ t=0.24
0.5622430664392735
% es.EY (V/m) @ t=0.24
0.14864621985241921
% es.EZ (V/m) @ t=0.24
-1.2841733484214979
% es.tEX (V/m) @ t=0.24
0.5622430664392737
% es.tEY (V/m) @ t=0.24
0
% es.tEZ (V/m) @ t=0.24
-1.2841733484215023
% es.Ex (V/m) @ t=0.24
0.5622430664392735
% es.Ey (V/m) @ t=0.24
0.14864621985241921
% es.Ez (V/m) @ t=0.24
-1.2841733484214979
% es.tEx (V/m) @ t=0.24
0.5622430664392737
% es.tEy (V/m) @ t=0.24
0
% es.tEz (V/m) @ t=0.24
-1.2841733484215023
% V (V) @ t=0.24
0.007053934584755358
% es.normE (V/m) @ t=0.26
1.4235397145044795
% es.EX (V/m) @ t=0.26
0.5673360017201328
% es.EY (V/m) @ t=0.26
0.14999269172198426
% es.EZ (V/m) @ t=0.26
-1.2958057077099179
% es.tEX (V/m) @ t=0.26
0.567336001720133
% es.tEY (V/m) @ t=0.26
0
% es.tEZ (V/m) @ t=0.26
-1.2958057077099205
% es.Ex (V/m) @ t=0.26
0.5673360017201328
% es.Ey (V/m) @ t=0.26
0.14999269172198426
% es.Ez (V/m) @ t=0.26
-1.2958057077099179
% es.tEx (V/m) @ t=0.26
0.567336001720133
% es.tEy (V/m) @ t=0.26
0
% es.tEz (V/m) @ t=0.26
-1.2958057077099205
% V (V) @ t=0.26
0.007117830952053448
% es.normE (V/m) @ t=0.28
1.4369621711514462
% es.EX (V/m) @ t=0.28
0.5726852553572306
% es.EY (V/m) @ t=0.28
0.1514066995825294
% es.EZ (V/m) @ t=0.28
-1.3080238399212663
% es.tEX (V/m) @ t=0.28
0.5726852553572308
% es.tEY (V/m) @ t=0.28
0
% es.tEZ (V/m) @ t=0.28
-1.308023839921269
% es.Ex (V/m) @ t=0.28
0.5726852553572306
% es.Ey (V/m) @ t=0.28
0.1514066995825294
% es.Ez (V/m) @ t=0.28
-1.3080238399212663
% es.tEx (V/m) @ t=0.28
0.5726852553572308
% es.tEy (V/m) @ t=0.28
0
% es.tEz (V/m) @ t=0.28
-1.308023839921269
% V (V) @ t=0.28
0.0071849551519807126
% es.normE (V/m) @ t=0.3
1.4511913168615274
% es.EX (V/m) @ t=0.3
0.5783558593596532
% es.EY (V/m) @ t=0.3
0.15290537838000207
% es.EZ (V/m) @ t=0.3
-1.3209763648836548
% es.tEX (V/m) @ t=0.3
0.5783558593596534
% es.tEY (V/m) @ t=0.3
0
% es.tEZ (V/m) @ t=0.3
-1.3209763648836592
% es.Ex (V/m) @ t=0.3
0.5783558593596532
% es.Ey (V/m) @ t=0.3
0.15290537838000207
% es.Ez (V/m) @ t=0.3
-1.3209763648836548
% es.tEx (V/m) @ t=0.3
0.5783558593596534
% es.tEy (V/m) @ t=0.3
0
% es.tEz (V/m) @ t=0.3
-1.3209763648836592
% V (V) @ t=0.3
0.007256126136577653
% es.normE (V/m) @ t=0.32
1.4654204625721508
% es.EX (V/m) @ t=0.32
0.5840264633620584
% es.EY (V/m) @ t=0.32
0.15440405717749073
% es.EZ (V/m) @ t=0.32
-1.3339288898460433
% es.tEX (V/m) @ t=0.32
0.5840264633620551
% es.tEY (V/m) @ t=0.32
0
% es.tEZ (V/m) @ t=0.32
-1.333928889846046
% es.Ex (V/m) @ t=0.32
0.5840264633620584
% es.Ey (V/m) @ t=0.32
0.15440405717749073
% es.Ez (V/m) @ t=0.32
-1.3339288898460433
% es.tEx (V/m) @ t=0.32
0.5840264633620551
% es.tEy (V/m) @ t=0.32
0
% es.tEz (V/m) @ t=0.32
-1.333928889846046
% V (V) @ t=0.32
0.007327297121174593
% es.normE (V/m) @ t=0.34
1.4796496082833057
% es.EX (V/m) @ t=0.34
0.5896970673644704
% es.EY (V/m) @ t=0.34
0.15590273597497228
% es.EZ (V/m) @ t=0.34
-1.3468814148084318
% es.tEX (V/m) @ t=0.34
0.5896970673644706
% es.tEY (V/m) @ t=0.34
0
% es.tEZ (V/m) @ t=0.34
-1.3468814148084327
% es.Ex (V/m) @ t=0.34
0.5896970673644704
% es.Ey (V/m) @ t=0.34
0.15590273597497228
% es.Ez (V/m) @ t=0.34
-1.3468814148084318
% es.tEx (V/m) @ t=0.34
0.5896970673644706
% es.tEy (V/m) @ t=0.34
0
% es.tEz (V/m) @ t=0.34
-1.3468814148084327
% V (V) @ t=0.34
0.007398468105771533
% es.normE (V/m) @ t=0.36
1.4938787539949705
% es.EX (V/m) @ t=0.36
0.5953676713668858
% es.EY (V/m) @ t=0.36
0.15740141477245784
% es.EZ (V/m) @ t=0.36
-1.3598339397708115
% es.tEX (V/m) @ t=0.36
0.5953676713668861
% es.tEY (V/m) @ t=0.36
0
% es.tEZ (V/m) @ t=0.36
-1.3598339397708141
% es.Ex (V/m) @ t=0.36
0.5953676713668858
% es.Ey (V/m) @ t=0.36
0.15740141477245784
% es.Ez (V/m) @ t=0.36
-1.3598339397708115
% es.tEx (V/m) @ t=0.36
0.5953676713668861
% es.tEy (V/m) @ t=0.36
0
% es.tEz (V/m) @ t=0.36
-1.3598339397708141
% V (V) @ t=0.36
0.007469639090368473
% es.normE (V/m) @ t=0.38
1.508107899707145
% es.EX (V/m) @ t=0.38
0.6010382753693018
% es.EY (V/m) @ t=0.38
0.1589000935699323
% es.EZ (V/m) @ t=0.38
-1.3727864647332018
% es.tEX (V/m) @ t=0.38
0.601038275369302
% es.tEY (V/m) @ t=0.38
0
% es.tEZ (V/m) @ t=0.38
-1.372786464733199
% es.Ex (V/m) @ t=0.38
0.6010382753693018
% es.Ey (V/m) @ t=0.38
0.1589000935699323
% es.Ez (V/m) @ t=0.38
-1.3727864647332018
% es.tEx (V/m) @ t=0.38
0.601038275369302
% es.tEy (V/m) @ t=0.38
0
% es.tEz (V/m) @ t=0.38
-1.372786464733199
% V (V) @ t=0.38
0.007540810074965412
% es.normE (V/m) @ t=0.4
1.5223370454198093
% es.EX (V/m) @ t=0.4
0.6067088793717244
% es.EY (V/m) @ t=0.4
0.16039877236742317
% es.EZ (V/m) @ t=0.4
-1.3857389896955903
% es.tEX (V/m) @ t=0.4
0.6067088793717246
% es.tEY (V/m) @ t=0.4
0
% es.tEZ (V/m) @ t=0.4
-1.3857389896955912
% es.Ex (V/m) @ t=0.4
0.6067088793717244
% es.Ey (V/m) @ t=0.4
0.16039877236742317
% es.Ez (V/m) @ t=0.4
-1.3857389896955903
% es.tEx (V/m) @ t=0.4
0.6067088793717246
% es.tEy (V/m) @ t=0.4
0
% es.tEz (V/m) @ t=0.4
-1.3857389896955912
% V (V) @ t=0.4
0.007611981059562352
% es.normE (V/m) @ t=0.42
1.5365661911329416
% es.EX (V/m) @ t=0.42
0.6123794833741327
% es.EY (V/m) @ t=0.42
0.16189745116489762
% es.EZ (V/m) @ t=0.42
-1.3986915146579806
% es.tEX (V/m) @ t=0.42
0.612379483374133
% es.tEY (V/m) @ t=0.42
0
% es.tEZ (V/m) @ t=0.42
-1.3986915146579832
% es.Ex (V/m) @ t=0.42
0.6123794833741327
% es.Ey (V/m) @ t=0.42
0.16189745116489762
% es.Ez (V/m) @ t=0.42
-1.3986915146579806
% es.tEx (V/m) @ t=0.42
0.612379483374133
% es.tEy (V/m) @ t=0.42
0
% es.tEz (V/m) @ t=0.42
-1.3986915146579832
% V (V) @ t=0.42
0.007683152044159292
% es.normE (V/m) @ t=0.44
1.5507953368465355
% es.EX (V/m) @ t=0.44
0.6180500873765558
% es.EY (V/m) @ t=0.44
0.16339612996237696
% es.EZ (V/m) @ t=0.44
-1.4116440396203656
% es.tEX (V/m) @ t=0.44
0.618050087376556
% es.tEY (V/m) @ t=0.44
0
% es.tEZ (V/m) @ t=0.44
-1.4116440396203664
% es.Ex (V/m) @ t=0.44
0.6180500873765558
% es.Ey (V/m) @ t=0.44
0.16339612996237696
% es.Ez (V/m) @ t=0.44
-1.4116440396203656
% es.tEx (V/m) @ t=0.44
0.618050087376556
% es.tEy (V/m) @ t=0.44
0
% es.tEz (V/m) @ t=0.44
-1.4116440396203664
% V (V) @ t=0.44
0.007754323028756232
% es.normE (V/m) @ t=0.46
1.5650244825605826
% es.EX (V/m) @ t=0.46
0.6237206913789717
% es.EY (V/m) @ t=0.46
0.1648948087598585
% es.EZ (V/m) @ t=0.46
-1.4245965645827594
% es.tEX (V/m) @ t=0.46
0.6237206913789719
% es.tEY (V/m) @ t=0.46
0
% es.tEZ (V/m) @ t=0.46
-1.4245965645827603
% es.Ex (V/m) @ t=0.46
0.6237206913789717
% es.Ey (V/m) @ t=0.46
0.1648948087598585
% es.Ez (V/m) @ t=0.46
-1.4245965645827594
% es.tEx (V/m) @ t=0.46
0.6237206913789719
% es.tEy (V/m) @ t=0.46
0
% es.tEz (V/m) @ t=0.46
-1.4245965645827603
% V (V) @ t=0.46
0.007825494013353173
% es.normE (V/m) @ t=0.48
1.57925362827504
% es.EX (V/m) @ t=0.48
0.6293912953813658
% es.EY (V/m) @ t=0.48
0.16639348755733518
% es.EZ (V/m) @ t=0.48
-1.4375490895451355
% es.tEX (V/m) @ t=0.48
0.6293912953813661
% es.tEY (V/m) @ t=0.48
0
% es.tEZ (V/m) @ t=0.48
-1.43754908954514
% es.Ex (V/m) @ t=0.48
0.6293912953813658
% es.Ey (V/m) @ t=0.48
0.16639348755733518
% es.Ez (V/m) @ t=0.48
-1.4375490895451355
% es.tEx (V/m) @ t=0.48
0.6293912953813661
% es.tEy (V/m) @ t=0.48
0
% es.tEz (V/m) @ t=0.48
-1.43754908954514
% V (V) @ t=0.48
0.007896664997950113
% es.normE (V/m) @ t=0.5
1.5934827739899409
% es.EX (V/m) @ t=0.5
0.6350618993837818
% es.EY (V/m) @ t=0.5
0.16789216635481852
% es.EZ (V/m) @ t=0.5
-1.4505016145075222
% es.tEX (V/m) @ t=0.5
0.635061899383782
% es.tEY (V/m) @ t=0.5
0
% es.tEZ (V/m) @ t=0.5
-1.4505016145075231
% es.Ex (V/m) @ t=0.5
0.6350618993837818
% es.Ey (V/m) @ t=0.5
0.16789216635481852
% es.Ez (V/m) @ t=0.5
-1.4505016145075222
% es.tEx (V/m) @ t=0.5
0.635061899383782
% es.tEy (V/m) @ t=0.5
0
% es.tEz (V/m) @ t=0.5
-1.4505016145075231
% V (V) @ t=0.5
0.00796783598254705
% es.normE (V/m) @ t=0.52
1.6077119197052512
% es.EX (V/m) @ t=0.52
0.6407325033861906
% es.EY (V/m) @ t=0.52
0.1693908451523014
% es.EZ (V/m) @ t=0.52
-1.463454139469909
% es.tEX (V/m) @ t=0.52
0.6407325033861908
% es.tEY (V/m) @ t=0.52
0
% es.tEZ (V/m) @ t=0.52
-1.4634541394699117
% es.Ex (V/m) @ t=0.52
0.6407325033861906
% es.Ey (V/m) @ t=0.52
0.1693908451523014
% es.Ez (V/m) @ t=0.52
-1.463454139469909
% es.tEx (V/m) @ t=0.52
0.6407325033861908
% es.tEy (V/m) @ t=0.52
0
% es.tEz (V/m) @ t=0.52
-1.4634541394699117
% V (V) @ t=0.52
0.008039006967143991
% es.normE (V/m) @ t=0.54
1.6219410654209812
% es.EX (V/m) @ t=0.54
0.6464031073886305
% es.EY (V/m) @ t=0.54
0.17088952394977097
% es.EZ (V/m) @ t=0.54
-1.4764066644323028
% es.tEX (V/m) @ t=0.54
0.6464031073886272
% es.tEY (V/m) @ t=0.54
0
% es.tEZ (V/m) @ t=0.54
-1.4764066644323037
% es.Ex (V/m) @ t=0.54
0.6464031073886305
% es.Ey (V/m) @ t=0.54
0.17088952394977097
% es.Ez (V/m) @ t=0.54
-1.4764066644323028
% es.tEx (V/m) @ t=0.54
0.6464031073886272
% es.tEy (V/m) @ t=0.54
0
% es.tEz (V/m) @ t=0.54
-1.4764066644323037
% V (V) @ t=0.54
0.00811017795174093
% es.normE (V/m) @ t=0.56
1.637644082432438
% es.EX (V/m) @ t=0.56
0.6526610600030185
% es.EY (V/m) @ t=0.56
0.1725433946163868
% es.EZ (V/m) @ t=0.56
-1.4907008383011222
% es.tEX (V/m) @ t=0.56
0.6526610600030187
% es.tEY (V/m) @ t=0.56
0
% es.tEZ (V/m) @ t=0.56
-1.490700838301123
% es.Ex (V/m) @ t=0.56
0.6526610600030185
% es.Ey (V/m) @ t=0.56
0.1725433946163868
% es.Ez (V/m) @ t=0.56
-1.4907008383011222
% es.tEx (V/m) @ t=0.56
0.6526610600030187
% es.tEy (V/m) @ t=0.56
0
% es.tEz (V/m) @ t=0.56
-1.490700838301123
% V (V) @ t=0.56
0.008188722628317158
% es.normE (V/m) @ t=0.58
1.6535157082270495
% es.EX (V/m) @ t=0.58
0.6589862044643169
% es.EY (V/m) @ t=0.58
0.17421501901240344
% es.EZ (V/m) @ t=0.58
-1.5051484948990703
% es.tEX (V/m) @ t=0.58
0.6589862044643171
% es.tEY (V/m) @ t=0.58
0
% es.tEZ (V/m) @ t=0.58
-1.5051484948990712
% es.Ex (V/m) @ t=0.58
0.6589862044643169
% es.Ey (V/m) @ t=0.58
0.17421501901240344
% es.Ez (V/m) @ t=0.58
-1.5051484948990703
% es.tEx (V/m) @ t=0.58
0.6589862044643171
% es.tEy (V/m) @ t=0.58
0
% es.tEz (V/m) @ t=0.58
-1.5051484948990712
% V (V) @ t=0.58
0.008268110844781719
% es.normE (V/m) @ t=0.6
1.6693873340221854
% es.EX (V/m) @ t=0.6
0.6653113489256011
% es.EY (V/m) @ t=0.6
0.17588664340841476
% es.EZ (V/m) @ t=0.6
-1.5195961514970096
% es.tEX (V/m) @ t=0.6
0.6653113489256013
% es.tEY (V/m) @ t=0.6
0
% es.tEZ (V/m) @ t=0.6
-1.5195961514970104
% es.Ex (V/m) @ t=0.6
0.6653113489256011
% es.Ey (V/m) @ t=0.6
0.17588664340841476
% es.Ez (V/m) @ t=0.6
-1.5195961514970096
% es.tEx (V/m) @ t=0.6
0.6653113489256013
% es.tEy (V/m) @ t=0.6
0
% es.tEz (V/m) @ t=0.6
-1.5195961514970104
% V (V) @ t=0.6
0.00834749906124628
% es.normE (V/m) @ t=0.62
1.6852589598178551
% es.EX (V/m) @ t=0.62
0.6716364933868999
% es.EY (V/m) @ t=0.62
0.1775582678044172
% es.EZ (V/m) @ t=0.62
-1.5340438080949559
% es.tEX (V/m) @ t=0.62
0.6716364933869001
% es.tEY (V/m) @ t=0.62
0
% es.tEZ (V/m) @ t=0.62
-1.5340438080949585
% es.Ex (V/m) @ t=0.62
0.6716364933868999
% es.Ey (V/m) @ t=0.62
0.1775582678044172
% es.Ez (V/m) @ t=0.62
-1.5340438080949559
% es.tEx (V/m) @ t=0.62
0.6716364933869001
% es.tEy (V/m) @ t=0.62
0
% es.tEz (V/m) @ t=0.62
-1.5340438080949585
% V (V) @ t=0.62
0.00842688727771084
% es.normE (V/m) @ t=0.64
1.7011305856140249
% es.EX (V/m) @ t=0.64
0.6779616378481845
% es.EY (V/m) @ t=0.64
0.17922989220043117
% es.EZ (V/m) @ t=0.64
-1.548491464692896
% es.tEX (V/m) @ t=0.64
0.6779616378481848
% es.tEY (V/m) @ t=0.64
0
% es.tEZ (V/m) @ t=0.64
-1.5484914646929049
% es.Ex (V/m) @ t=0.64
0.6779616378481845
% es.Ey (V/m) @ t=0.64
0.17922989220043117
% es.Ez (V/m) @ t=0.64
-1.548491464692896
% es.tEx (V/m) @ t=0.64
0.6779616378481848
% es.tEy (V/m) @ t=0.64
0
% es.tEz (V/m) @ t=0.64
-1.5484914646929049
% V (V) @ t=0.64
0.0085062754941754
% es.normE (V/m) @ t=0.66
1.7170022114106973
% es.EX (V/m) @ t=0.66
0.6842867823094829
% es.EY (V/m) @ t=0.66
0.18090151659642295
% es.EZ (V/m) @ t=0.66
-1.5629391212908414
% es.tEX (V/m) @ t=0.66
0.6842867823094831
% es.tEY (V/m) @ t=0.66
0
% es.tEZ (V/m) @ t=0.66
-1.5629391212908477
% es.Ex (V/m) @ t=0.66
0.6842867823094829
% es.Ey (V/m) @ t=0.66
0.18090151659642295
% es.Ez (V/m) @ t=0.66
-1.5629391212908414
% es.tEx (V/m) @ t=0.66
0.6842867823094831
% es.tEy (V/m) @ t=0.66
0
% es.tEz (V/m) @ t=0.66
-1.5629391212908477
% V (V) @ t=0.66
0.00858566371063996
% es.normE (V/m) @ t=0.68
1.7328738372078596
% es.EX (V/m) @ t=0.68
0.6906119267707853
% es.EY (V/m) @ t=0.68
0.1825731409924325
% es.EZ (V/m) @ t=0.68
-1.5773867778887931
% es.tEX (V/m) @ t=0.68
0.690611926770782
% es.tEY (V/m) @ t=0.68
0
% es.tEZ (V/m) @ t=0.68
-1.5773867778887958
% es.Ex (V/m) @ t=0.68
0.6906119267707853
% es.Ey (V/m) @ t=0.68
0.1825731409924325
% es.Ez (V/m) @ t=0.68
-1.5773867778887931
% es.tEx (V/m) @ t=0.68
0.690611926770782
% es.tEy (V/m) @ t=0.68
0
% es.tEz (V/m) @ t=0.68
-1.5773867778887958
% V (V) @ t=0.68
0.008665051927104522
% es.normE (V/m) @ t=0.7
1.7487454630054764
% es.EX (V/m) @ t=0.7
0.6969370712320695
% es.EY (V/m) @ t=0.7
0.18424476538844603
% es.EZ (V/m) @ t=0.7
-1.5918344344867377
% es.tEX (V/m) @ t=0.7
0.6969370712320662
% es.tEY (V/m) @ t=0.7
0
% es.tEZ (V/m) @ t=0.7
-1.5918344344867386
% es.Ex (V/m) @ t=0.7
0.6969370712320695
% es.Ey (V/m) @ t=0.7
0.18424476538844603
% es.Ez (V/m) @ t=0.7
-1.5918344344867377
% es.tEx (V/m) @ t=0.7
0.6969370712320662
% es.tEy (V/m) @ t=0.7
0
% es.tEz (V/m) @ t=0.7
-1.5918344344867386
% V (V) @ t=0.7
0.008744440143569081
% es.normE (V/m) @ t=0.72
1.7646170888035513
% es.EX (V/m) @ t=0.72
0.7032622156933608
% es.EY (V/m) @ t=0.72
0.18591638978445024
% es.EZ (V/m) @ t=0.72
-1.6062820910846822
% es.tEX (V/m) @ t=0.72
0.7032622156933575
% es.tEY (V/m) @ t=0.72
0
% es.tEZ (V/m) @ t=0.72
-1.6062820910846831
% es.Ex (V/m) @ t=0.72
0.7032622156933608
% es.Ey (V/m) @ t=0.72
0.18591638978445024
% es.Ez (V/m) @ t=0.72
-1.6062820910846822
% es.tEx (V/m) @ t=0.72
0.7032622156933575
% es.tEy (V/m) @ t=0.72
0
% es.tEz (V/m) @ t=0.72
-1.6062820910846831
% V (V) @ t=0.72
0.00882382836003364
% es.normE (V/m) @ t=0.74
1.7804887146020796
% es.EX (V/m) @ t=0.74
0.70958736015467
% es.EY (V/m) @ t=0.74
0.18758801418045623
% es.EZ (V/m) @ t=0.74
-1.6207297476826303
% es.tEX (V/m) @ t=0.74
0.7095873601546705
% es.tEY (V/m) @ t=0.74
0
% es.tEZ (V/m) @ t=0.74
-1.6207297476826366
% es.Ex (V/m) @ t=0.74
0.70958736015467
% es.Ey (V/m) @ t=0.74
0.18758801418045623
% es.Ez (V/m) @ t=0.74
-1.6207297476826303
% es.tEx (V/m) @ t=0.74
0.7095873601546705
% es.tEy (V/m) @ t=0.74
0
% es.tEz (V/m) @ t=0.74
-1.6207297476826366
% V (V) @ t=0.74
0.008903216576498202
% es.normE (V/m) @ t=0.76
1.7963603404010238
% es.EX (V/m) @ t=0.76
0.7159125046159545
% es.EY (V/m) @ t=0.76
0.18925963857645334
% es.EZ (V/m) @ t=0.76
-1.6351774042805731
% es.tEX (V/m) @ t=0.76
0.7159125046159547
% es.tEY (V/m) @ t=0.76
0
% es.tEZ (V/m) @ t=0.76
-1.6351774042805776
% es.Ex (V/m) @ t=0.76
0.7159125046159545
% es.Ey (V/m) @ t=0.76
0.18925963857645334
% es.Ez (V/m) @ t=0.76
-1.6351774042805731
% es.tEx (V/m) @ t=0.76
0.7159125046159547
% es.tEy (V/m) @ t=0.76
0
% es.tEz (V/m) @ t=0.76
-1.6351774042805776
% V (V) @ t=0.76
0.008982604792962761
% es.normE (V/m) @ t=0.78
1.8122319662004007
% es.EX (V/m) @ t=0.78
0.7222376490772568
% es.EY (V/m) @ t=0.78
0.19093126297245133
% es.EZ (V/m) @ t=0.78
-1.6496250608785221
% es.tEX (V/m) @ t=0.78
0.7222376490772535
% es.tEY (V/m) @ t=0.78
0
% es.tEZ (V/m) @ t=0.78
-1.6496250608785203
% es.Ex (V/m) @ t=0.78
0.7222376490772568
% es.Ey (V/m) @ t=0.78
0.19093126297245133
% es.Ez (V/m) @ t=0.78
-1.6496250608785221
% es.tEx (V/m) @ t=0.78
0.7222376490772535
% es.tEy (V/m) @ t=0.78
0
% es.tEz (V/m) @ t=0.78
-1.6496250608785203
% V (V) @ t=0.78
0.009061993009427323
% es.normE (V/m) @ t=0.8
1.8281035920001767
% es.EX (V/m) @ t=0.8
0.7285627935385448
% es.EY (V/m) @ t=0.8
0.1926028873684662
% es.EZ (V/m) @ t=0.8
-1.664072717476464
% es.tEX (V/m) @ t=0.8
0.7285627935385453
% es.tEY (V/m) @ t=0.8
0
% es.tEZ (V/m) @ t=0.8
-1.6640727174764702
% es.Ex (V/m) @ t=0.8
0.7285627935385448
% es.Ey (V/m) @ t=0.8
0.1926028873684662
% es.Ez (V/m) @ t=0.8
-1.664072717476464
% es.tEx (V/m) @ t=0.8
0.7285627935385453
% es.tEy (V/m) @ t=0.8
0
% es.tEz (V/m) @ t=0.8
-1.6640727174764702
% V (V) @ t=0.8
0.009141381225891882
% es.normE (V/m) @ t=0.82
1.8446290950667885
% es.EX (V/m) @ t=0.82
0.7351487283595757
% es.EY (V/m) @ t=0.82
0.19434384250338965
% es.EZ (V/m) @ t=0.82
-1.679115462401131
% es.tEX (V/m) @ t=0.82
0.7351487283595759
% es.tEY (V/m) @ t=0.82
0
% es.tEZ (V/m) @ t=0.82
-1.679115462401132
% es.Ex (V/m) @ t=0.82
0.7351487283595757
% es.Ey (V/m) @ t=0.82
0.19434384250338965
% es.Ez (V/m) @ t=0.82
-1.679115462401131
% es.tEx (V/m) @ t=0.82
0.7351487283595759
% es.tEy (V/m) @ t=0.82
0
% es.tEz (V/m) @ t=0.82
-1.679115462401132
% V (V) @ t=0.82
0.009224021270988323
% es.normE (V/m) @ t=0.84
1.8623637340460033
% es.EX (V/m) @ t=0.84
0.7422169111584476
% es.EY (V/m) @ t=0.84
0.19621300256383023
% es.EZ (V/m) @ t=0.84
-1.695258631982865
% es.tEX (V/m) @ t=0.84
0.7422169111584478
% es.tEY (V/m) @ t=0.84
0
% es.tEZ (V/m) @ t=0.84
-1.695258631982874
% es.Ex (V/m) @ t=0.84
0.7422169111584476
% es.Ey (V/m) @ t=0.84
0.19621300256383023
% es.Ez (V/m) @ t=0.84
-1.695258631982865
% es.tEx (V/m) @ t=0.84
0.7422169111584478
% es.tEy (V/m) @ t=0.84
0
% es.tEz (V/m) @ t=0.84
-1.695258631982874
% V (V) @ t=0.84
0.009312674528319737
% es.normE (V/m) @ t=0.86
1.8800983730258198
% es.EX (V/m) @ t=0.86
0.7492850939573117
% es.EY (V/m) @ t=0.86
0.1980821626242566
% es.EZ (V/m) @ t=0.86
-1.7114018015646018
% es.tEX (V/m) @ t=0.86
0.7492850939573121
% es.tEY (V/m) @ t=0.86
0
% es.tEZ (V/m) @ t=0.86
-1.7114018015646089
% es.Ex (V/m) @ t=0.86
0.7492850939573117
% es.Ey (V/m) @ t=0.86
0.1980821626242566
% es.Ez (V/m) @ t=0.86
-1.7114018015646018
% es.tEx (V/m) @ t=0.86
0.7492850939573121
% es.tEy (V/m) @ t=0.86
0
% es.tEz (V/m) @ t=0.86
-1.7114018015646089
% V (V) @ t=0.86
0.009401327785651151
% es.normE (V/m) @ t=0.88
1.8978330120062283
% es.EX (V/m) @ t=0.88
0.7563532767561829
% es.EY (V/m) @ t=0.88
0.19995132268467497
% es.EZ (V/m) @ t=0.88
-1.727544971146341
% es.tEX (V/m) @ t=0.88
0.7563532767561831
% es.tEY (V/m) @ t=0.88
0
% es.tEZ (V/m) @ t=0.88
-1.7275449711463438
% es.Ex (V/m) @ t=0.88
0.7563532767561829
% es.Ey (V/m) @ t=0.88
0.19995132268467497
% es.Ez (V/m) @ t=0.88
-1.727544971146341
% es.tEx (V/m) @ t=0.88
0.7563532767561831
% es.tEy (V/m) @ t=0.88
0
% es.tEz (V/m) @ t=0.88
-1.7275449711463438
% V (V) @ t=0.88
0.009489981042982569
% es.normE (V/m) @ t=0.9
1.9155676509872044
% es.EX (V/m) @ t=0.9
0.7634214595550477
% es.EY (V/m) @ t=0.9
0.20182048274512088
% es.EZ (V/m) @ t=0.9
-1.743688140728076
% es.tEX (V/m) @ t=0.9
0.7634214595550479
% es.tEY (V/m) @ t=0.9
0
% es.tEZ (V/m) @ t=0.9
-1.7436881407280804
% es.Ex (V/m) @ t=0.9
0.7634214595550477
% es.Ey (V/m) @ t=0.9
0.20182048274512088
% es.Ez (V/m) @ t=0.9
-1.743688140728076
% es.tEx (V/m) @ t=0.9
0.7634214595550479
% es.tEy (V/m) @ t=0.9
0
% es.tEz (V/m) @ t=0.9
-1.7436881407280804
% V (V) @ t=0.9
0.00957863430031398
% es.normE (V/m) @ t=0.92
1.9333022899687449
% es.EX (V/m) @ t=0.92
0.770489642353916
% es.EY (V/m) @ t=0.92
0.20368964280556057
% es.EZ (V/m) @ t=0.92
-1.7598313103098207
% es.tEX (V/m) @ t=0.92
0.7704896423539127
% es.tEY (V/m) @ t=0.92
0
% es.tEZ (V/m) @ t=0.92
-1.759831310309826
% es.Ex (V/m) @ t=0.92
0.770489642353916
% es.Ey (V/m) @ t=0.92
0.20368964280556057
% es.Ez (V/m) @ t=0.92
-1.7598313103098207
% es.tEx (V/m) @ t=0.92
0.7704896423539127
% es.tEy (V/m) @ t=0.92
0
% es.tEz (V/m) @ t=0.92
-1.759831310309826
% V (V) @ t=0.92
0.009667287557645395
% es.normE (V/m) @ t=0.94
1.9510369289508143
% es.EX (V/m) @ t=0.94
0.7775578251527879
% es.EY (V/m) @ t=0.94
0.2055588028659816
% es.EZ (V/m) @ t=0.94
-1.7759744798915529
% es.tEX (V/m) @ t=0.94
0.7775578251527917
% es.tEY (V/m) @ t=0.94
0
% es.tEZ (V/m) @ t=0.94
-1.775974479891559
% es.Ex (V/m) @ t=0.94
0.7775578251527879
% es.Ey (V/m) @ t=0.94
0.2055588028659816
% es.Ez (V/m) @ t=0.94
-1.7759744798915529
% es.tEx (V/m) @ t=0.94
0.7775578251527917
% es.tEy (V/m) @ t=0.94
0
% es.tEz (V/m) @ t=0.94
-1.775974479891559
% V (V) @ t=0.94
0.00975594081497681
% es.normE (V/m) @ t=0.96
1.9687715679334208
% es.EX (V/m) @ t=0.96
0.7846260079516558
% es.EY (V/m) @ t=0.96
0.20742796292641952
% es.EZ (V/m) @ t=0.96
-1.7921176494732984
% es.tEX (V/m) @ t=0.96
0.784626007951656
% es.tEY (V/m) @ t=0.96
0
% es.tEZ (V/m) @ t=0.96
-1.792117649473301
% es.Ex (V/m) @ t=0.96
0.7846260079516558
% es.Ey (V/m) @ t=0.96
0.20742796292641952
% es.Ez (V/m) @ t=0.96
-1.7921176494732984
% es.tEx (V/m) @ t=0.96
0.784626007951656
% es.tEy (V/m) @ t=0.96
0
% es.tEz (V/m) @ t=0.96
-1.792117649473301
% V (V) @ t=0.96
0.009844594072308225
% es.normE (V/m) @ t=0.98
1.9865062069165218
% es.EX (V/m) @ t=0.98
0.7916941907505093
% es.EY (V/m) @ t=0.98
0.20929712298684944
% es.EZ (V/m) @ t=0.98
-1.8082608190550316
% es.tEX (V/m) @ t=0.98
0.7916941907505133
% es.tEY (V/m) @ t=0.98
0
% es.tEZ (V/m) @ t=0.98
-1.808260819055029
% es.Ex (V/m) @ t=0.98
0.7916941907505093
% es.Ey (V/m) @ t=0.98
0.20929712298684944
% es.Ez (V/m) @ t=0.98
-1.8082608190550316
% es.tEx (V/m) @ t=0.98
0.7916941907505133
% es.tEy (V/m) @ t=0.98
0
% es.tEz (V/m) @ t=0.98
-1.808260819055029
% V (V) @ t=0.98
0.00993324732963964
% es.normE (V/m) @ t=1
2.00424084590014
% es.EX (V/m) @ t=1
0.7987623735493918
% es.EY (V/m) @ t=1
0.21116628304727936
% es.EZ (V/m) @ t=1
-1.8244039886367736
% es.tEX (V/m) @ t=1
0.7987623735493923
% es.tEY (V/m) @ t=1
0
% es.tEZ (V/m) @ t=1
-1.8244039886367744
% es.Ex (V/m) @ t=1
0.7987623735493918
% es.Ey (V/m) @ t=1
0.21116628304727936
% es.Ez (V/m) @ t=1
-1.8244039886367736
% es.tEx (V/m) @ t=1
0.7987623735493923
% es.tEy (V/m) @ t=1
0
% es.tEz (V/m) @ t=1
-1.8244039886367744
% V (V) @ t=1
0.010021900586971054
% es.normE (V/m) @ t=1.02
2.021975484884233
% es.EX (V/m) @ t=1.02
0.8058305563482564
% es.EY (V/m) @ t=1.02
0.21303544310771638
% es.EZ (V/m) @ t=1.02
-1.840547158218512
% es.tEX (V/m) @ t=1.02
0.8058305563482566
% es.tEY (V/m) @ t=1.02
0
% es.tEZ (V/m) @ t=1.02
-1.8405471582185182
% es.Ex (V/m) @ t=1.02
0.8058305563482564
% es.Ey (V/m) @ t=1.02
0.21303544310771638
% es.Ez (V/m) @ t=1.02
-1.840547158218512
% es.tEx (V/m) @ t=1.02
0.8058305563482566
% es.tEy (V/m) @ t=1.02
0
% es.tEz (V/m) @ t=1.02
-1.8405471582185182
% V (V) @ t=1.02
0.010110553844302468
% es.normE (V/m) @ t=1.04
2.039710123868797
% es.EX (V/m) @ t=1.04
0.8128987391471283
% es.EY (V/m) @ t=1.04
0.2149046031681472
% es.EZ (V/m) @ t=1.04
-1.856690327800246
% es.tEX (V/m) @ t=1.04
0.8128987391471285