% Model:              1 neuron.mph
% Version:            COMSOL 6.1.0.252
% Date:               Mar 18 2023, 11:44
% Dimension:          0
% Nodes:              14017
% Expressions:        14017
% Description:        Electric field norm, Electric field, X component, Electric field, Y component, Electric field, Z component, Tangential electric field, X component, Tangential electric field, Y component, Tangential electric field, Z component, Electric field, x component, Electric field, y component, Electric field, z component, Tangential electric field, x component, Tangential electric field, y component, Tangential electric field, z component, Electric potential
% Length unit:        mm
% x
1
% y
12.2
% z
1.6599999999999997
% es.normE (V/m) @ t=0
1.6117548167683502
% es.EX (V/m) @ t=0
1.4428576486000568
% es.EY (V/m) @ t=0
0.055514945789286896
% es.EZ (V/m) @ t=0
-0.7161239075216421
% es.tEX (V/m) @ t=0
1.4428576486000528
% es.tEY (V/m) @ t=0
0
% es.tEZ (V/m) @ t=0
-0.7161239075216379
% es.Ex (V/m) @ t=0
1.4428576486000568
% es.Ey (V/m) @ t=0
0.055514945789286896
% es.Ez (V/m) @ t=0
-0.7161239075216421
% es.tEx (V/m) @ t=0
1.4428576486000528
% es.tEy (V/m) @ t=0
0
% es.tEz (V/m) @ t=0
-0.7161239075216379
% V (V) @ t=0
0.007312512226214507
% es.normE (V/m) @ t=0.02
1.3920893796004834
% es.EX (V/m) @ t=0.02
1.2462111467552721
% es.EY (V/m) @ t=0.02
0.04794884582168407
% es.EZ (V/m) @ t=0.02
-0.6185236458544064
% es.tEX (V/m) @ t=0.02
1.24621114675527
% es.tEY (V/m) @ t=0.02
0
% es.tEZ (V/m) @ t=0.02
-0.6185236458543955
% es.Ex (V/m) @ t=0.02
1.2462111467552721
% es.Ey (V/m) @ t=0.02
0.04794884582168407
% es.Ez (V/m) @ t=0.02
-0.6185236458544064
% es.tEx (V/m) @ t=0.02
1.24621114675527
% es.tEy (V/m) @ t=0.02
0
% es.tEz (V/m) @ t=0.02
-0.6185236458543955
% V (V) @ t=0.02
0.006315892502521068
% es.normE (V/m) @ t=0.04
1.4048935646675766
% es.EX (V/m) @ t=0.04
1.2576735773918941
% es.EY (V/m) @ t=0.04
0.04838988337556596
% es.EZ (V/m) @ t=0.04
-0.6242126987433603
% es.tEX (V/m) @ t=0.04
1.2576735773918926
% es.tEY (V/m) @ t=0.04
0
% es.tEZ (V/m) @ t=0.04
-0.6242126987433565
% es.Ex (V/m) @ t=0.04
1.2576735773918941
% es.Ey (V/m) @ t=0.04
0.04838988337556596
% es.Ez (V/m) @ t=0.04
-0.6242126987433603
% es.tEx (V/m) @ t=0.04
1.2576735773918926
% es.tEy (V/m) @ t=0.04
0
% es.tEz (V/m) @ t=0.04
-0.6242126987433565
% V (V) @ t=0.04
0.0063739846027161505
% es.normE (V/m) @ t=0.06
1.4178138166360355
% es.EX (V/m) @ t=0.06
1.2692398995682859
% es.EY (V/m) @ t=0.06
0.04883489542483668
% es.EZ (V/m) @ t=0.06
-0.629953348904804
% es.tEX (V/m) @ t=0.06
1.2692398995682832
% es.tEY (V/m) @ t=0.06
0
% es.tEZ (V/m) @ t=0.06
-0.6299533489048024
% es.Ex (V/m) @ t=0.06
1.2692398995682859
% es.Ey (V/m) @ t=0.06
0.04883489542483668
% es.Ez (V/m) @ t=0.06
-0.629953348904804
% es.tEx (V/m) @ t=0.06
1.2692398995682832
% es.tEy (V/m) @ t=0.06
0
% es.tEz (V/m) @ t=0.06
-0.6299533489048024
% V (V) @ t=0.06
0.006432603894111628
% es.normE (V/m) @ t=0.08
1.4309299767468502
% es.EX (V/m) @ t=0.08
1.2809816013194215
% es.EY (V/m) @ t=0.08
0.04928665692723236
% es.EZ (V/m) @ t=0.08
-0.6357810418679799
% es.tEX (V/m) @ t=0.08
1.2809816013194224
% es.tEY (V/m) @ t=0.08
0
% es.tEZ (V/m) @ t=0.08
-0.635781041867979
% es.Ex (V/m) @ t=0.08
1.2809816013194215
% es.Ey (V/m) @ t=0.08
0.04928665692723236
% es.Ez (V/m) @ t=0.08
-0.6357810418679799
% es.tEx (V/m) @ t=0.08
1.2809816013194224
% es.tEy (V/m) @ t=0.08
0
% es.tEz (V/m) @ t=0.08
-0.635781041867979
% V (V) @ t=0.08
0.006492111978478004
% es.normE (V/m) @ t=0.1
1.4441849748046591
% es.EX (V/m) @ t=0.1
1.2928475926473426
% es.EY (V/m) @ t=0.1
0.04974320169283117
% es.EZ (V/m) @ t=0.1
-0.6416704211079393
% es.tEX (V/m) @ t=0.1
1.2928475926473433
% es.tEY (V/m) @ t=0.1
0
% es.tEZ (V/m) @ t=0.1
-0.6416704211079427
% es.Ex (V/m) @ t=0.1
1.2928475926473426
% es.Ey (V/m) @ t=0.1
0.04974320169283117
% es.Ez (V/m) @ t=0.1
-0.6416704211079393
% es.tEx (V/m) @ t=0.1
1.2928475926473433
% es.tEy (V/m) @ t=0.1
0
% es.tEz (V/m) @ t=0.1
-0.6416704211079427
% V (V) @ t=0.1
0.006552249940652866
% es.normE (V/m) @ t=0.12
1.4574399728624683
% es.EX (V/m) @ t=0.12
1.3047135839752655
% es.EY (V/m) @ t=0.12
0.05019974645843714
% es.EZ (V/m) @ t=0.12
-0.6475598003478951
% es.tEX (V/m) @ t=0.12
1.3047135839752677
% es.tEY (V/m) @ t=0.12
0
% es.tEZ (V/m) @ t=0.12
-0.6475598003478922
% es.Ex (V/m) @ t=0.12
1.3047135839752655
% es.Ey (V/m) @ t=0.12
0.05019974645843714
% es.Ez (V/m) @ t=0.12
-0.6475598003478951
% es.tEx (V/m) @ t=0.12
1.3047135839752677
% es.tEy (V/m) @ t=0.12
0
% es.tEz (V/m) @ t=0.12
-0.6475598003478922
% V (V) @ t=0.12
0.006612387902827727
% es.normE (V/m) @ t=0.14
1.4708227828336953
% es.EX (V/m) @ t=0.14
1.3166939970022462
% es.EY (V/m) @ t=0.14
0.05066069995469977
% es.EZ (V/m) @ t=0.14
-0.6535059609480932
% es.tEX (V/m) @ t=0.14
1.316693997002242
% es.tEY (V/m) @ t=0.14
0
% es.tEZ (V/m) @ t=0.14
-0.6535059609480918
% es.Ex (V/m) @ t=0.14
1.3166939970022462
% es.Ey (V/m) @ t=0.14
0.05066069995469977
% es.Ez (V/m) @ t=0.14
-0.6535059609480932
% es.tEx (V/m) @ t=0.14
1.316693997002242
% es.tEy (V/m) @ t=0.14
0
% es.tEz (V/m) @ t=0.14
-0.6535059609480918
% V (V) @ t=0.14
0.006673105586536381
% es.normE (V/m) @ t=0.16
1.484786025484973
% es.EX (V/m) @ t=0.16
1.3291940336829688
% es.EY (V/m) @ t=0.16
0.05114167483454951
% es.EZ (V/m) @ t=0.16
-0.6597099829339637
% es.tEX (V/m) @ t=0.16
1.3291940336829646
% es.tEY (V/m) @ t=0.16
0
% es.tEZ (V/m) @ t=0.16
-0.6597099829339683
% es.Ex (V/m) @ t=0.16
1.3291940336829688
% es.Ey (V/m) @ t=0.16
0.05114167483454951
% es.Ez (V/m) @ t=0.16
-0.6597099829339637
% es.tEx (V/m) @ t=0.16
1.3291940336829646
% es.tEy (V/m) @ t=0.16
0
% es.tEz (V/m) @ t=0.16
-0.6597099829339683
% V (V) @ t=0.16
0.0067364559616315675
% es.normE (V/m) @ t=0.18
1.4987492681362458
% es.EX (V/m) @ t=0.18
1.3416940703636824
% es.EY (V/m) @ t=0.18
0.051622649714395286
% es.EZ (V/m) @ t=0.18
-0.6659140049198378
% es.tEX (V/m) @ t=0.18
1.3416940703636842
% es.tEY (V/m) @ t=0.18
0
% es.tEZ (V/m) @ t=0.18
-0.6659140049198378
% es.Ex (V/m) @ t=0.18
1.3416940703636824
% es.Ey (V/m) @ t=0.18
0.051622649714395286
% es.Ez (V/m) @ t=0.18
-0.6659140049198378
% es.tEx (V/m) @ t=0.18
1.3416940703636842
% es.tEy (V/m) @ t=0.18
0
% es.tEz (V/m) @ t=0.18
-0.6659140049198378
% V (V) @ t=0.18
0.006799806336726754
% es.normE (V/m) @ t=0.2
1.5127125107875417
% es.EX (V/m) @ t=0.2
1.3541941070444188
% es.EY (V/m) @ t=0.2
0.05210362459425258
% es.EZ (V/m) @ t=0.2
-0.6721180269057137
% es.tEX (V/m) @ t=0.2
1.354194107044414
% es.tEY (V/m) @ t=0.2
0
% es.tEZ (V/m) @ t=0.2
-0.6721180269057179
% es.Ex (V/m) @ t=0.2
1.3541941070444188
% es.Ey (V/m) @ t=0.2
0.05210362459425258
% es.Ez (V/m) @ t=0.2
-0.6721180269057137
% es.tEx (V/m) @ t=0.2
1.354194107044414
% es.tEy (V/m) @ t=0.2
0
% es.tEz (V/m) @ t=0.2
-0.6721180269057179
% V (V) @ t=0.2
0.006863156711821941
% es.normE (V/m) @ t=0.22
1.5266757534388278
% es.EX (V/m) @ t=0.22
1.3666941437251432
% es.EY (V/m) @ t=0.22
0.0525845994741001
% es.EZ (V/m) @ t=0.22
-0.6783220488915895
% es.tEX (V/m) @ t=0.22
1.366694143725144
% es.tEY (V/m) @ t=0.22
0
% es.tEZ (V/m) @ t=0.22
-0.6783220488915838
% es.Ex (V/m) @ t=0.22
1.3666941437251432
% es.Ey (V/m) @ t=0.22
0.0525845994741001
% es.Ez (V/m) @ t=0.22
-0.6783220488915895
% es.tEx (V/m) @ t=0.22
1.366694143725144
% es.tEy (V/m) @ t=0.22
0
% es.tEz (V/m) @ t=0.22
-0.6783220488915838
% V (V) @ t=0.22
0.006926507086917126
% es.normE (V/m) @ t=0.24
1.5406389960901063
% es.EX (V/m) @ t=0.24
1.3791941804058605
% es.EY (V/m) @ t=0.24
0.0530655743539481
% es.EZ (V/m) @ t=0.24
-0.68452607087746
% es.tEX (V/m) @ t=0.24
1.3791941804058596
% es.tEY (V/m) @ t=0.24
0
% es.tEZ (V/m) @ t=0.24
-0.6845260708774568
% es.Ex (V/m) @ t=0.24
1.3791941804058605
% es.Ey (V/m) @ t=0.24
0.0530655743539481
% es.Ez (V/m) @ t=0.24
-0.68452607087746
% es.tEx (V/m) @ t=0.24
1.3791941804058596
% es.tEy (V/m) @ t=0.24
0
% es.tEz (V/m) @ t=0.24
-0.6845260708774568
% V (V) @ t=0.24
0.006989857462012313
% es.normE (V/m) @ t=0.26
1.554602238741403
% es.EX (V/m) @ t=0.26
1.391694217086588
% es.EY (V/m) @ t=0.26
0.05354654923380717
% es.EZ (V/m) @ t=0.26
-0.6907300928633465
% es.tEX (V/m) @ t=0.26
1.3916942170865925
% es.tEY (V/m) @ t=0.26
0
% es.tEZ (V/m) @ t=0.26
-0.6907300928633511
% es.Ex (V/m) @ t=0.26
1.391694217086588
% es.Ey (V/m) @ t=0.26
0.05354654923380717
% es.Ez (V/m) @ t=0.26
-0.6907300928633465
% es.tEx (V/m) @ t=0.26
1.3916942170865925
% es.tEy (V/m) @ t=0.26
0
% es.tEz (V/m) @ t=0.26
-0.6907300928633511
% V (V) @ t=0.26
0.0070532078371075
% es.normE (V/m) @ t=0.28
1.5691547252148295
% es.EX (V/m) @ t=0.28
1.40472203139023
% es.EY (V/m) @ t=0.28
0.054048388442665546
% es.EZ (V/m) @ t=0.28
-0.6971953129918916
% es.tEX (V/m) @ t=0.28
1.4047220313902224
% es.tEY (V/m) @ t=0.28
0
% es.tEZ (V/m) @ t=0.28
-0.6971953129918873
% es.Ex (V/m) @ t=0.28
1.40472203139023
% es.Ey (V/m) @ t=0.28
0.054048388442665546
% es.Ez (V/m) @ t=0.28
-0.6971953129918916
% es.tEx (V/m) @ t=0.28
1.4047220313902224
% es.tEy (V/m) @ t=0.28
0
% es.tEz (V/m) @ t=0.28
-0.6971953129918873
% V (V) @ t=0.28
0.007119217791144581
% es.normE (V/m) @ t=0.3
1.5847066506923304
% es.EX (V/m) @ t=0.3
1.4186450295218709
% es.EY (V/m) @ t=0.3
0.054585616438567214
% es.EZ (V/m) @ t=0.3
-0.7041035612881297
% es.tEX (V/m) @ t=0.3
1.4186450295218664
% es.tEY (V/m) @ t=0.3
0
% es.tEZ (V/m) @ t=0.3
-0.7041035612881252
% es.Ex (V/m) @ t=0.3
1.4186450295218709
% es.Ey (V/m) @ t=0.3
0.054585616438567214
% es.Ez (V/m) @ t=0.3
-0.7041035612881297
% es.tEx (V/m) @ t=0.3
1.4186450295218664
% es.tEy (V/m) @ t=0.3
0
% es.tEz (V/m) @ t=0.3
-0.7041035612881252
% V (V) @ t=0.3
0.0071897387588257845
% es.normE (V/m) @ t=0.32
1.6002585761738517
% es.EX (V/m) @ t=0.32
1.4325680276535042
% es.EY (V/m) @ t=0.32
0.05512284443445334
% es.EZ (V/m) @ t=0.32
-0.7110118095843625
% es.tEX (V/m) @ t=0.32
1.4325680276534989
% es.tEY (V/m) @ t=0.32
0
% es.tEZ (V/m) @ t=0.32
-0.7110118095843667
% es.Ex (V/m) @ t=0.32
1.4325680276535042
% es.Ey (V/m) @ t=0.32
0.05512284443445334
% es.Ez (V/m) @ t=0.32
-0.7110118095843625
% es.tEx (V/m) @ t=0.32
1.4325680276534989
% es.tEy (V/m) @ t=0.32
0
% es.tEz (V/m) @ t=0.32
-0.7110118095843667
% V (V) @ t=0.32
0.007260259726506991
% es.normE (V/m) @ t=0.34
1.6158105016593152
% es.EX (V/m) @ t=0.34
1.446491025785157
% es.EY (V/m) @ t=0.34
0.05566007243037413
% es.EZ (V/m) @ t=0.34
-0.7179200578806184
% es.tEX (V/m) @ t=0.34
1.4464910257851527
% es.tEY (V/m) @ t=0.34
0
% es.tEZ (V/m) @ t=0.34
-0.7179200578806082
% es.Ex (V/m) @ t=0.34
1.446491025785157
% es.Ey (V/m) @ t=0.34
0.05566007243037413
% es.Ez (V/m) @ t=0.34
-0.7179200578806184
% es.tEx (V/m) @ t=0.34
1.4464910257851527
% es.tEy (V/m) @ t=0.34
0
% es.tEz (V/m) @ t=0.34
-0.7179200578806082
% V (V) @ t=0.34
0.007330780694188197
% es.normE (V/m) @ t=0.36
1.631362427148551
% es.EX (V/m) @ t=0.36
1.4604140239167887
% es.EY (V/m) @ t=0.36
0.05619730042626733
% es.EZ (V/m) @ t=0.36
-0.7248283061768547
% es.tEX (V/m) @ t=0.36
1.460414023916786
% es.tEY (V/m) @ t=0.36
0
% es.tEZ (V/m) @ t=0.36
-0.7248283061768497
% es.Ex (V/m) @ t=0.36
1.4604140239167887
% es.Ey (V/m) @ t=0.36
0.05619730042626733
% es.Ez (V/m) @ t=0.36
-0.7248283061768547
% es.tEx (V/m) @ t=0.36
1.460414023916786
% es.tEy (V/m) @ t=0.36
0
% es.tEz (V/m) @ t=0.36
-0.7248283061768497
% V (V) @ t=0.36
0.007401301661869401
% es.normE (V/m) @ t=0.38
1.6469143526414864
% es.EX (V/m) @ t=0.38
1.4743370220484275
% es.EY (V/m) @ t=0.38
0.05673452842217658
% es.EZ (V/m) @ t=0.38
-0.7317365544730874
% es.tEX (V/m) @ t=0.38
1.4743370220484255
% es.tEY (V/m) @ t=0.38
0
% es.tEZ (V/m) @ t=0.38
-0.731736554473084
% es.Ex (V/m) @ t=0.38
1.4743370220484275
% es.Ey (V/m) @ t=0.38
0.05673452842217658
% es.Ez (V/m) @ t=0.38
-0.7317365544730874
% es.tEx (V/m) @ t=0.38
1.4743370220484255
% es.tEy (V/m) @ t=0.38
0
% es.tEz (V/m) @ t=0.38
-0.731736554473084
% V (V) @ t=0.38
0.007471822629550607
% es.normE (V/m) @ t=0.4
1.6624662781380255
% es.EX (V/m) @ t=0.4
1.4882600201800718
% es.EY (V/m) @ t=0.4
0.057271756418070724
% es.EZ (V/m) @ t=0.4
-0.7386448027693415
% es.tEX (V/m) @ t=0.4
1.4882600201800757
% es.tEY (V/m) @ t=0.4
0
% es.tEZ (V/m) @ t=0.4
-0.7386448027693326
% es.Ex (V/m) @ t=0.4
1.4882600201800718
% es.Ey (V/m) @ t=0.4
0.057271756418070724
% es.Ez (V/m) @ t=0.4
-0.7386448027693415
% es.tEx (V/m) @ t=0.4
1.4882600201800757
% es.tEy (V/m) @ t=0.4
0
% es.tEz (V/m) @ t=0.4
-0.7386448027693326
% V (V) @ t=0.4
0.007542343597231813
% es.normE (V/m) @ t=0.42
1.6780182036380413
% es.EX (V/m) @ t=0.42
1.502183018311711
% es.EY (V/m) @ t=0.42
0.05780898441399013
% es.EZ (V/m) @ t=0.42
-0.7455530510655726
% es.tEX (V/m) @ t=0.42
1.502183018311709
% es.tEY (V/m) @ t=0.42
0
% es.tEZ (V/m) @ t=0.42
-0.7455530510655706
% es.Ex (V/m) @ t=0.42
1.502183018311711
% es.Ey (V/m) @ t=0.42
0.05780898441399013
% es.Ez (V/m) @ t=0.42
-0.7455530510655726
% es.tEx (V/m) @ t=0.42
1.502183018311709
% es.tEy (V/m) @ t=0.42
0
% es.tEz (V/m) @ t=0.42
-0.7455530510655706
% V (V) @ t=0.42
0.007612864564913018
% es.normE (V/m) @ t=0.44
1.6935701291414504
% es.EX (V/m) @ t=0.44
1.5161060164433517
% es.EY (V/m) @ t=0.44
0.058346212409881165
% es.EZ (V/m) @ t=0.44
-0.7524612993618017
% es.tEX (V/m) @ t=0.44
1.5161060164433522
% es.tEY (V/m) @ t=0.44
0
% es.tEZ (V/m) @ t=0.44
-0.7524612993617978
% es.Ex (V/m) @ t=0.44
1.5161060164433517
% es.Ey (V/m) @ t=0.44
0.058346212409881165
% es.Ez (V/m) @ t=0.44
-0.7524612993618017
% es.tEx (V/m) @ t=0.44
1.5161060164433522
% es.tEy (V/m) @ t=0.44
0
% es.tEz (V/m) @ t=0.44
-0.7524612993617978
% V (V) @ t=0.44
0.007683385532594223
% es.normE (V/m) @ t=0.46
1.7091220546481776
% es.EX (V/m) @ t=0.46
1.5300290145749957
% es.EY (V/m) @ t=0.46
0.05888344040579571
% es.EZ (V/m) @ t=0.46
-0.7593695476580593
% es.tEX (V/m) @ t=0.46
1.5300290145749953
% es.tEY (V/m) @ t=0.46
0
% es.tEZ (V/m) @ t=0.46
-0.75936954765805
% es.Ex (V/m) @ t=0.46
1.5300290145749957
% es.Ey (V/m) @ t=0.46
0.05888344040579571
% es.Ez (V/m) @ t=0.46
-0.7593695476580593
% es.tEx (V/m) @ t=0.46
1.5300290145749953
% es.tEy (V/m) @ t=0.46
0
% es.tEz (V/m) @ t=0.46
-0.75936954765805
% V (V) @ t=0.46
0.007753906500275428
% es.normE (V/m) @ t=0.48
1.7246739801581028
% es.EX (V/m) @ t=0.48
1.5439520127066362
% es.EY (V/m) @ t=0.48
0.05942066840169205
% es.EZ (V/m) @ t=0.48
-0.7662777959542939
% es.tEX (V/m) @ t=0.48
1.5439520127066313
% es.tEY (V/m) @ t=0.48
0
% es.tEZ (V/m) @ t=0.48
-0.7662777959542915
% es.Ex (V/m) @ t=0.48
1.5439520127066362
% es.Ey (V/m) @ t=0.48
0.05942066840169205
% es.Ez (V/m) @ t=0.48
-0.7662777959542939
% es.tEx (V/m) @ t=0.48
1.5439520127066313
% es.tEy (V/m) @ t=0.48
0
% es.tEz (V/m) @ t=0.48
-0.7662777959542915
% V (V) @ t=0.48
0.007824427467956634
% es.normE (V/m) @ t=0.5
1.7402259056711533
% es.EX (V/m) @ t=0.5
1.5578750108382717
% es.EY (V/m) @ t=0.5
0.0599578963975973
% es.EZ (V/m) @ t=0.5
-0.7731860442505356
% es.tEX (V/m) @ t=0.5
1.5578750108382788
% es.tEY (V/m) @ t=0.5
0
% es.tEZ (V/m) @ t=0.5
-0.7731860442505258
% es.Ex (V/m) @ t=0.5
1.5578750108382717
% es.Ey (V/m) @ t=0.5
0.0599578963975973
% es.Ez (V/m) @ t=0.5
-0.7731860442505356
% es.tEx (V/m) @ t=0.5
1.5578750108382788
% es.tEy (V/m) @ t=0.5
0
% es.tEz (V/m) @ t=0.5
-0.7731860442505258
% V (V) @ t=0.5
0.007894948435637839
% es.normE (V/m) @ t=0.52
1.7557778311872525
% es.EX (V/m) @ t=0.52
1.5717980089699175
% es.EY (V/m) @ t=0.52
0.06049512439350074
% es.EZ (V/m) @ t=0.52
-0.7800942925467701
% es.tEX (V/m) @ t=0.52
1.5717980089699148
% es.tEY (V/m) @ t=0.52
0
% es.tEZ (V/m) @ t=0.52
-0.7800942925467673
% es.Ex (V/m) @ t=0.52
1.5717980089699175
% es.Ey (V/m) @ t=0.52
0.06049512439350074
% es.Ez (V/m) @ t=0.52
-0.7800942925467701
% es.tEx (V/m) @ t=0.52
1.5717980089699148
% es.tEy (V/m) @ t=0.52
0
% es.tEz (V/m) @ t=0.52
-0.7800942925467673
% V (V) @ t=0.52
0.007965469403319044
% es.normE (V/m) @ t=0.54
1.7713297567063089
% es.EX (V/m) @ t=0.54
1.5857210071015544
% es.EY (V/m) @ t=0.54
0.061032352389402855
% es.EZ (V/m) @ t=0.54
-0.7870025408430099
% es.tEX (V/m) @ t=0.54
1.5857210071015473
% es.tEY (V/m) @ t=0.54
0
% es.tEZ (V/m) @ t=0.54
-0.7870025408430052
% es.Ex (V/m) @ t=0.54
1.5857210071015544
% es.Ey (V/m) @ t=0.54
0.061032352389402855
% es.Ez (V/m) @ t=0.54
-0.7870025408430099
% es.tEx (V/m) @ t=0.54
1.5857210071015473
% es.tEy (V/m) @ t=0.54
0
% es.tEz (V/m) @ t=0.54
-0.7870025408430052
% V (V) @ t=0.54
0.00803599037100025
% es.normE (V/m) @ t=0.56
1.7882537621246881
% es.EX (V/m) @ t=0.56
1.600870242463172
% es.EY (V/m) @ t=0.56
0.06161267861533104
% es.EZ (V/m) @ t=0.56
-0.7945248988211129
% es.tEX (V/m) @ t=0.56
1.6008702424631691
% es.tEY (V/m) @ t=0.56
0
% es.tEZ (V/m) @ t=0.56
-0.7945248988211091
% es.Ex (V/m) @ t=0.56
1.600870242463172
% es.Ey (V/m) @ t=0.56
0.06161267861533104
% es.Ez (V/m) @ t=0.56
-0.7945248988211129
% es.tEx (V/m) @ t=0.56
1.6008702424631691
% es.tEy (V/m) @ t=0.56
0
% es.tEz (V/m) @ t=0.56
-0.7945248988211091
% V (V) @ t=0.56
0.008112837671348978
% es.normE (V/m) @ t=0.58
1.8056308040492488
% es.EX (V/m) @ t=0.58
1.616424359642163
% es.EY (V/m) @ t=0.58
0.06220723511358042
% es.EZ (V/m) @ t=0.58
-0.8022500249406156
% es.tEX (V/m) @ t=0.58
1.616424359642159
% es.tEY (V/m) @ t=0.58
0
% es.tEZ (V/m) @ t=0.58
-0.802250024940605
% es.Ex (V/m) @ t=0.58
1.616424359642163
% es.Ey (V/m) @ t=0.58
0.06220723511358042
% es.Ez (V/m) @ t=0.58
-0.8022500249406156
% es.tEx (V/m) @ t=0.58
1.616424359642159
% es.tEy (V/m) @ t=0.58
0
% es.tEz (V/m) @ t=0.58
-0.802250024940605
% V (V) @ t=0.58
0.008191773814708758
% es.normE (V/m) @ t=0.6
1.8230078459991568
% es.EX (V/m) @ t=0.6
1.6319784768211645
% es.EY (V/m) @ t=0.6
0.06280179161183819
% es.EZ (V/m) @ t=0.6
-0.8099751510601253
% es.tEX (V/m) @ t=0.6
1.6319784768211623
% es.tEY (V/m) @ t=0.6
0
% es.tEZ (V/m) @ t=0.6
-0.8099751510601223
% es.Ex (V/m) @ t=0.6
1.6319784768211645
% es.Ey (V/m) @ t=0.6
0.06280179161183819
% es.Ez (V/m) @ t=0.6
-0.8099751510601253
% es.tEx (V/m) @ t=0.6
1.6319784768211623
% es.tEy (V/m) @ t=0.6
0
% es.tEz (V/m) @ t=0.6
-0.8099751510601223
% V (V) @ t=0.6
0.00827070995806854
% es.normE (V/m) @ t=0.62
1.8403848879736884
% es.EX (V/m) @ t=0.62
1.6475325940001662
% es.EY (V/m) @ t=0.62
0.06339634811010175
% es.EZ (V/m) @ t=0.62
-0.8177002771796493
% es.tEX (V/m) @ t=0.62
1.6475325940001584
% es.tEY (V/m) @ t=0.62
0
% es.tEZ (V/m) @ t=0.62
-0.8177002771796396
% es.Ex (V/m) @ t=0.62
1.6475325940001662
% es.Ey (V/m) @ t=0.62
0.06339634811010175
% es.Ez (V/m) @ t=0.62
-0.8177002771796493
% es.tEx (V/m) @ t=0.62
1.6475325940001584
% es.tEy (V/m) @ t=0.62
0
% es.tEz (V/m) @ t=0.62
-0.8177002771796396
% V (V) @ t=0.62
0.008349646101428323
% es.normE (V/m) @ t=0.64
1.8577619299721237
% es.EX (V/m) @ t=0.64
1.6630867111791572
% es.EY (V/m) @ t=0.64
0.06399090460833287
% es.EZ (V/m) @ t=0.64
-0.8254254032991466
% es.tEX (V/m) @ t=0.64
1.6630867111791545
% es.tEY (V/m) @ t=0.64
0
% es.tEZ (V/m) @ t=0.64
-0.8254254032991426
% es.Ex (V/m) @ t=0.64
1.6630867111791572
% es.Ey (V/m) @ t=0.64
0.06399090460833287
% es.Ez (V/m) @ t=0.64
-0.8254254032991466
% es.tEx (V/m) @ t=0.64
1.6630867111791545
% es.tEy (V/m) @ t=0.64
0
% es.tEz (V/m) @ t=0.64
-0.8254254032991426
% V (V) @ t=0.64
0.008428582244788107
% es.normE (V/m) @ t=0.66
1.8751389719938263
% es.EX (V/m) @ t=0.66
1.6786408283581444
% es.EY (V/m) @ t=0.66
0.06458546110658447
% es.EZ (V/m) @ t=0.66
-0.8331505294186635
% es.tEX (V/m) @ t=0.66
1.6786408283581498
% es.tEY (V/m) @ t=0.66
0
% es.tEZ (V/m) @ t=0.66
-0.8331505294186634
% es.Ex (V/m) @ t=0.66
1.6786408283581444
% es.Ey (V/m) @ t=0.66
0.06458546110658447
% es.Ez (V/m) @ t=0.66
-0.8331505294186635
% es.tEx (V/m) @ t=0.66
1.6786408283581498
% es.tEy (V/m) @ t=0.66
0
% es.tEz (V/m) @ t=0.66
-0.8331505294186634
% V (V) @ t=0.66
0.008507518388147887
% es.normE (V/m) @ t=0.68
1.892516014038149
% es.EX (V/m) @ t=0.68
1.6941949455371383
% es.EY (V/m) @ t=0.68
0.06518001760484268
% es.EZ (V/m) @ t=0.68
-0.8408756555381662
% es.tEX (V/m) @ t=0.68
1.694194945537146
% es.tEY (V/m) @ t=0.68
0
% es.tEZ (V/m) @ t=0.68
-0.8408756555381594
% es.Ex (V/m) @ t=0.68
1.6941949455371383
% es.Ey (V/m) @ t=0.68
0.06518001760484268
% es.Ez (V/m) @ t=0.68
-0.8408756555381662
% es.tEx (V/m) @ t=0.68
1.694194945537146
% es.tEy (V/m) @ t=0.68
0
% es.tEz (V/m) @ t=0.68
-0.8408756555381594
% V (V) @ t=0.68
0.00858645453150767
% es.normE (V/m) @ t=0.7
1.9098930561044811
% es.EX (V/m) @ t=0.7
1.7097490627161367
% es.EY (V/m) @ t=0.7
0.06577457410309692
% es.EZ (V/m) @ t=0.7
-0.8486007816576759
% es.tEX (V/m) @ t=0.7
1.709749062716135
% es.tEY (V/m) @ t=0.7
0
% es.tEZ (V/m) @ t=0.7
-0.8486007816576766
% es.Ex (V/m) @ t=0.7
1.7097490627161367
% es.Ey (V/m) @ t=0.7
0.06577457410309692
% es.Ez (V/m) @ t=0.7
-0.8486007816576759
% es.tEx (V/m) @ t=0.7
1.709749062716135
% es.tEy (V/m) @ t=0.7
0
% es.tEz (V/m) @ t=0.7
-0.8486007816576766
% V (V) @ t=0.7
0.008665390674867452
% es.normE (V/m) @ t=0.72
1.927270098192229
% es.EX (V/m) @ t=0.72
1.7253031798951382
% es.EY (V/m) @ t=0.72
0.06636913060133032
% es.EZ (V/m) @ t=0.72
-0.8563259077771982
% es.tEX (V/m) @ t=0.72
1.7253031798951382
% es.tEY (V/m) @ t=0.72
0
% es.tEZ (V/m) @ t=0.72
-0.8563259077771903
% es.Ex (V/m) @ t=0.72
1.7253031798951382
% es.Ey (V/m) @ t=0.72
0.06636913060133032
% es.Ez (V/m) @ t=0.72
-0.8563259077771982
% es.tEx (V/m) @ t=0.72
1.7253031798951382
% es.tEy (V/m) @ t=0.72
0
% es.tEz (V/m) @ t=0.72
-0.8563259077771903
% V (V) @ t=0.72
0.008744326818227236
% es.normE (V/m) @ t=0.74
1.9446471403007954
% es.EX (V/m) @ t=0.74
1.7408572970741325
% es.EY (V/m) @ t=0.74
0.06696368709959519
% es.EZ (V/m) @ t=0.74
-0.864051033896699
% es.tEX (V/m) @ t=0.74
1.7408572970741263
% es.tEY (V/m) @ t=0.74
0
% es.tEZ (V/m) @ t=0.74
-0.8640510338966934
% es.Ex (V/m) @ t=0.74
1.7408572970741325
% es.Ey (V/m) @ t=0.74
0.06696368709959519
% es.Ez (V/m) @ t=0.74
-0.864051033896699
% es.tEx (V/m) @ t=0.74
1.7408572970741263
% es.tEy (V/m) @ t=0.74
0
% es.tEz (V/m) @ t=0.74
-0.8640510338966934
% V (V) @ t=0.74
0.008823262961587018
% es.normE (V/m) @ t=0.76
1.9620241824296443
% es.EX (V/m) @ t=0.76
1.7564114142531198
% es.EY (V/m) @ t=0.76
0.06755824359785387
% es.EZ (V/m) @ t=0.76
-0.8717761600162195
% es.tEX (V/m) @ t=0.76
1.7564114142531224
% es.tEY (V/m) @ t=0.76
0
% es.tEZ (V/m) @ t=0.76
-0.8717761600162106
% es.Ex (V/m) @ t=0.76
1.7564114142531198
% es.Ey (V/m) @ t=0.76
0.06755824359785387
% es.Ez (V/m) @ t=0.76
-0.8717761600162195
% es.tEx (V/m) @ t=0.76
1.7564114142531224
% es.tEy (V/m) @ t=0.76
0
% es.tEz (V/m) @ t=0.76
-0.8717761600162106
% V (V) @ t=0.76
0.0089021991049468
% es.normE (V/m) @ t=0.78
1.9794012245782429
% es.EX (V/m) @ t=0.78
1.771965531432118
% es.EY (V/m) @ t=0.78
0.06815280009609967
% es.EZ (V/m) @ t=0.78
-0.8795012861357256
% es.tEX (V/m) @ t=0.78
1.7719655314321194
% es.tEY (V/m) @ t=0.78
0
% es.tEZ (V/m) @ t=0.78
-0.879501286135735
% es.Ex (V/m) @ t=0.78
1.771965531432118
% es.Ey (V/m) @ t=0.78
0.06815280009609967
% es.Ez (V/m) @ t=0.78
-0.8795012861357256
% es.tEx (V/m) @ t=0.78
1.7719655314321194
% es.tEy (V/m) @ t=0.78
0
% es.tEz (V/m) @ t=0.78
-0.879501286135735
% V (V) @ t=0.78
0.008981135248306581
% es.normE (V/m) @ t=0.8
1.9967782667460645
% es.EX (V/m) @ t=0.8
1.787519648611109
% es.EY (V/m) @ t=0.8
0.06874735659433256
% es.EZ (V/m) @ t=0.8
-0.8872264122552319
% es.tEX (V/m) @ t=0.8
1.7875196486111085
% es.tEY (V/m) @ t=0.8
0
% es.tEZ (V/m) @ t=0.8
-0.8872264122552309
% es.Ex (V/m) @ t=0.8
1.787519648611109
% es.Ey (V/m) @ t=0.8
0.06874735659433256
% es.Ez (V/m) @ t=0.8
-0.8872264122552319
% es.tEx (V/m) @ t=0.8
1.7875196486111085
% es.tEy (V/m) @ t=0.8
0
% es.tEz (V/m) @ t=0.8
-0.8872264122552309
% V (V) @ t=0.8
0.009060071391666365
% es.normE (V/m) @ t=0.82
2.0144237220652945
% es.EX (V/m) @ t=0.82
1.803314626125972
% es.EY (V/m) @ t=0.82
0.06935231526222094
% es.EZ (V/m) @ t=0.82
-0.8950695507221471
% es.tEX (V/m) @ t=0.82
1.8033146261259771
% es.tEY (V/m) @ t=0.82
0
% es.tEZ (V/m) @ t=0.82
-0.8950695507221482
% es.Ex (V/m) @ t=0.82
1.803314626125972
% es.Ey (V/m) @ t=0.82
0.06935231526222094
% es.Ez (V/m) @ t=0.82
-0.8950695507221471
% es.tEx (V/m) @ t=0.82
1.8033146261259771
% es.tEy (V/m) @ t=0.82
0
% es.tEz (V/m) @ t=0.82
-0.8950695507221482
% V (V) @ t=0.82
0.009140197138241813
% es.normE (V/m) @ t=0.84
2.0338241954859253
% es.EX (V/m) @ t=0.84
1.8206844678755747
% es.EY (V/m) @ t=0.84
0.07002528847006115
% es.EZ (V/m) @ t=0.84
-0.9036843123976975
% es.tEX (V/m) @ t=0.84
1.8206844678755703
% es.tEY (V/m) @ t=0.84
0
% es.tEZ (V/m) @ t=0.84
-0.9036843123976865
% es.Ex (V/m) @ t=0.84
1.8206844678755747
% es.Ey (V/m) @ t=0.84
0.07002528847006115
% es.Ez (V/m) @ t=0.84
-0.9036843123976975
% es.tEx (V/m) @ t=0.84
1.8206844678755703
% es.tEy (V/m) @ t=0.84
0
% es.tEz (V/m) @ t=0.84
-0.9036843123976865
% V (V) @ t=0.84
0.009228101100151449
% es.normE (V/m) @ t=0.86
2.053224668939989
% es.EX (V/m) @ t=0.86
1.838054309625192
% es.EY (V/m) @ t=0.86
0.07069826167793197
% es.EZ (V/m) @ t=0.86
-0.9122990740732408
% es.tEX (V/m) @ t=0.86
1.8380543096251856
% es.tEY (V/m) @ t=0.86
0
% es.tEZ (V/m) @ t=0.86
-0.9122990740732391
% es.Ex (V/m) @ t=0.86
1.838054309625192
% es.Ey (V/m) @ t=0.86
0.07069826167793197
% es.Ez (V/m) @ t=0.86
-0.9122990740732408
% es.tEx (V/m) @ t=0.86
1.8380543096251856
% es.tEy (V/m) @ t=0.86
0
% es.tEz (V/m) @ t=0.86
-0.9122990740732391
% V (V) @ t=0.86
0.009316005062061084
% es.normE (V/m) @ t=0.88
2.0726251424265296
% es.EX (V/m) @ t=0.88
1.8554241513747947
% es.EY (V/m) @ t=0.88
0.07137123488576155
% es.EZ (V/m) @ t=0.88
-0.9209138357488038
% es.tEX (V/m) @ t=0.88
1.8554241513747929
% es.tEY (V/m) @ t=0.88
0
% es.tEZ (V/m) @ t=0.88
-0.9209138357488058
% es.Ex (V/m) @ t=0.88
1.8554241513747947
% es.Ey (V/m) @ t=0.88
0.07137123488576155
% es.Ez (V/m) @ t=0.88
-0.9209138357488038
% es.tEx (V/m) @ t=0.88
1.8554241513747929
% es.tEy (V/m) @ t=0.88
0
% es.tEz (V/m) @ t=0.88
-0.9209138357488058
% V (V) @ t=0.88
0.009403909023970716
% es.normE (V/m) @ t=0.9
2.092025615944638
% es.EX (V/m) @ t=0.9
1.872793993124394
% es.EY (V/m) @ t=0.9
0.07204420809358977
% es.EZ (V/m) @ t=0.9
-0.9295285974243489
% es.tEX (V/m) @ t=0.9
1.8727939931244002
% es.tEY (V/m) @ t=0.9
0
% es.tEZ (V/m) @ t=0.9
-0.9295285974243512
% es.Ex (V/m) @ t=0.9
1.872793993124394
% es.Ey (V/m) @ t=0.9
0.07204420809358977
% es.Ez (V/m) @ t=0.9
-0.9295285974243489
% es.tEx (V/m) @ t=0.9
1.8727939931244002
% es.tEy (V/m) @ t=0.9
0
% es.tEz (V/m) @ t=0.9
-0.9295285974243512
% V (V) @ t=0.9
0.009491812985880354
% es.normE (V/m) @ t=0.92
2.111426089493472
% es.EX (V/m) @ t=0.92
1.890163834874007
% es.EY (V/m) @ t=0.92
0.07271718130143884
% es.EZ (V/m) @ t=0.92
-0.9381433590999011
% es.tEX (V/m) @ t=0.92
1.8901638348740004
% es.tEY (V/m) @ t=0.92
0
% es.tEZ (V/m) @ t=0.92
-0.9381433590999038
% es.Ex (V/m) @ t=0.92
1.890163834874007
% es.Ey (V/m) @ t=0.92
0.07271718130143884
% es.Ez (V/m) @ t=0.92
-0.9381433590999011
% es.tEx (V/m) @ t=0.92
1.8901638348740004
% es.tEy (V/m) @ t=0.92
0
% es.tEz (V/m) @ t=0.92
-0.9381433590999038
% V (V) @ t=0.92
0.009579716947789989
% es.normE (V/m) @ t=0.94
2.130826563072179
% es.EX (V/m) @ t=0.94
1.9075336766236206
% es.EY (V/m) @ t=0.94
0.07339015450928352
% es.EZ (V/m) @ t=0.94
-0.9467581207754605
% es.tEX (V/m) @ t=0.94
1.9075336766236148
% es.tEY (V/m) @ t=0.94
0
% es.tEZ (V/m) @ t=0.94
-0.9467581207754634
% es.Ex (V/m) @ t=0.94
1.9075336766236206
% es.Ey (V/m) @ t=0.94
0.07339015450928352
% es.Ez (V/m) @ t=0.94
-0.9467581207754605
% es.tEx (V/m) @ t=0.94
1.9075336766236148
% es.tEy (V/m) @ t=0.94
0
% es.tEz (V/m) @ t=0.94
-0.9467581207754634
% V (V) @ t=0.94
0.009667620909699623
% es.normE (V/m) @ t=0.96
2.1502270366799277
% es.EX (V/m) @ t=0.96
1.9249035183732204
% es.EY (V/m) @ t=0.96
0.07406312771714146
% es.EZ (V/m) @ t=0.96
-0.9553728824510019
% es.tEX (V/m) @ t=0.96
1.924903518373216
% es.tEY (V/m) @ t=0.96
0
% es.tEZ (V/m) @ t=0.96
-0.9553728824509875
% es.Ex (V/m) @ t=0.96
1.9249035183732204
% es.Ey (V/m) @ t=0.96
0.07406312771714146
% es.Ez (V/m) @ t=0.96
-0.9553728824510019
% es.tEx (V/m) @ t=0.96
1.924903518373216
% es.tEy (V/m) @ t=0.96
0
% es.tEz (V/m) @ t=0.96
-0.9553728824509875
% V (V) @ t=0.96
0.009755524871609257
% es.normE (V/m) @ t=0.98
2.169627510315963
% es.EX (V/m) @ t=0.98
1.9422733601228228
% es.EY (V/m) @ t=0.98
0.0747361009249719
% es.EZ (V/m) @ t=0.98
-0.9639876441265507
% es.tEX (V/m) @ t=0.98
1.9422733601228233
% es.tEY (V/m) @ t=0.98
0
% es.tEZ (V/m) @ t=0.98
-0.9639876441265471
% es.Ex (V/m) @ t=0.98
1.9422733601228228
% es.Ey (V/m) @ t=0.98
0.0747361009249719
% es.Ez (V/m) @ t=0.98
-0.9639876441265507
% es.tEx (V/m) @ t=0.98
1.9422733601228233
% es.tEy (V/m) @ t=0.98
0
% es.tEz (V/m) @ t=0.98
-0.9639876441265471
% V (V) @ t=0.98
0.009843428833518892
% es.normE (V/m) @ t=1
2.1890279839795346
% es.EX (V/m) @ t=1
1.9596432018724328
% es.EY (V/m) @ t=1
0.0754090741328041
% es.EZ (V/m) @ t=1
-0.9726024058020993
% es.tEX (V/m) @ t=1
1.9596432018724235
% es.tEY (V/m) @ t=1
0
% es.tEZ (V/m) @ t=1
-0.9726024058021068
% es.Ex (V/m) @ t=1
1.9596432018724328
% es.Ey (V/m) @ t=1
0.0754090741328041
% es.Ez (V/m) @ t=1
-0.9726024058020993
% es.tEx (V/m) @ t=1
1.9596432018724235
% es.tEy (V/m) @ t=1
0
% es.tEz (V/m) @ t=1
-0.9726024058021068
% V (V) @ t=1
0.009931332795428528
% es.normE (V/m) @ t=1.02
2.208428457669905
% es.EX (V/m) @ t=1.02
1.9770130436220394
% es.EY (V/m) @ t=1.02
0.07608204734063989
% es.EZ (V/m) @ t=1.02
-0.9812171674776409
% es.tEX (V/m) @ t=1.02
1.9770130436220388
% es.tEY (V/m) @ t=1.02
0
% es.tEZ (V/m) @ t=1.02
-0.981217167477638
% es.Ex (V/m) @ t=1.02
1.9770130436220394
% es.Ey (V/m) @ t=1.02
0.07608204734063989
% es.Ez (V/m) @ t=1.02
-0.9812171674776409
% es.tEx (V/m) @ t=1.02
1.9770130436220388
% es.tEy (V/m) @ t=1.02
0
% es.tEz (V/m) @ t=1.02
-0.981217167477638
% V (V) @ t=1.02
0.010019236757338163
% es.normE (V/m) @ t=1.04
2.2278289313863926
% es.EX (V/m) @ t=1.04
1.9943828853716492
% es.EY (V/m) @ t=1.04
0.07675502054848987
% es.EZ (V/m) @ t=1.04
-0.9898319291532038