% Model:              1 neuron.mph
% Version:            COMSOL 6.1.0.252
% Date:               Mar 18 2023, 11:47
% Dimension:          0
% Nodes:              14017
% Expressions:        14017
% Description:        Electric field norm, Electric field, X component, Electric field, Y component, Electric field, Z component, Tangential electric field, X component, Tangential electric field, Y component, Tangential electric field, Z component, Electric field, x component, Electric field, y component, Electric field, z component, Tangential electric field, x component, Tangential electric field, y component, Tangential electric field, z component, Electric potential
% Length unit:        mm
% x
1
% y
12.2
% z
1.6599999999999997
% es.normE (V/m) @ t=0
1.6059339184208676
% es.EX (V/m) @ t=0
1.4376465541573125
% es.EY (V/m) @ t=0
0.05531448097122771
% es.EZ (V/m) @ t=0
-0.713537952017202
% es.tEX (V/m) @ t=0
1.4376465541573165
% es.tEY (V/m) @ t=0
0
% es.tEZ (V/m) @ t=0
-0.713537952017198
% es.Ex (V/m) @ t=0
1.4376465541573125
% es.Ey (V/m) @ t=0
0.05531448097122771
% es.Ez (V/m) @ t=0
-0.713537952017202
% es.tEx (V/m) @ t=0
1.4376465541573165
% es.tEy (V/m) @ t=0
0
% es.tEz (V/m) @ t=0
-0.713537952017198
% V (V) @ t=0
0.007286102059437894
% es.normE (V/m) @ t=0.02
1.3870612573135406
% es.EX (V/m) @ t=0.02
1.2417097707471827
% es.EY (V/m) @ t=0.02
0.04777567479852873
% es.EZ (V/m) @ t=0.02
-0.6162898957861555
% es.tEX (V/m) @ t=0.02
1.2417097707471791
% es.tEY (V/m) @ t=0.02
0
% es.tEZ (V/m) @ t=0.02
-0.6162898957861493
% es.Ex (V/m) @ t=0.02
1.2417097707471827
% es.Ey (V/m) @ t=0.02
0.04777567479852873
% es.Ez (V/m) @ t=0.02
-0.6162898957861555
% es.tEx (V/m) @ t=0.02
1.2417097707471791
% es.tEy (V/m) @ t=0.02
0
% es.tEz (V/m) @ t=0.02
-0.6162898957861493
% V (V) @ t=0.02
0.0062930794940934025
% es.normE (V/m) @ t=0.04
1.3998182235948078
% es.EX (V/m) @ t=0.04
1.2531299226007828
% es.EY (V/m) @ t=0.04
0.048215075212866276
% es.EZ (V/m) @ t=0.04
-0.6219579858890891
% es.tEX (V/m) @ t=0.04
1.253129922600786
% es.tEY (V/m) @ t=0.04
0
% es.tEZ (V/m) @ t=0.04
-0.6219579858890825
% es.Ex (V/m) @ t=0.04
1.2531299226007828
% es.Ey (V/m) @ t=0.04
0.048215075212866276
% es.Ez (V/m) @ t=0.04
-0.6219579858890891
% es.tEx (V/m) @ t=0.04
1.253129922600786
% es.tEy (V/m) @ t=0.04
0
% es.tEz (V/m) @ t=0.04
-0.6219579858890825
% V (V) @ t=0.04
0.006350957648353033
% es.normE (V/m) @ t=0.06
1.412694640504157
% es.EX (V/m) @ t=0.06
1.2646570065948008
% es.EY (V/m) @ t=0.06
0.04865858405131904
% es.EZ (V/m) @ t=0.06
-0.6276791522640859
% es.tEX (V/m) @ t=0.06
1.2646570065947924
% es.tEY (V/m) @ t=0.06
0
% es.tEZ (V/m) @ t=0.06
-0.6276791522640899
% es.Ex (V/m) @ t=0.06
1.2646570065948008
% es.Ey (V/m) @ t=0.06
0.04865858405131904
% es.Ez (V/m) @ t=0.06
-0.6276791522640859
% es.tEx (V/m) @ t=0.06
1.2646570065947924
% es.tEy (V/m) @ t=0.06
0
% es.tEz (V/m) @ t=0.06
-0.6276791522640899
% V (V) @ t=0.06
0.006409377877113213
% es.normE (V/m) @ t=0.08
1.4257570555980381
% es.EX (V/m) @ t=0.08
1.276350594991809
% es.EY (V/m) @ t=0.08
0.0491084864501827
% es.EZ (V/m) @ t=0.08
-0.6334829668740544
% es.tEX (V/m) @ t=0.08
1.2763505949918117
% es.tEY (V/m) @ t=0.08
0
% es.tEZ (V/m) @ t=0.08
-0.6334829668740518
% es.Ex (V/m) @ t=0.08
1.276350594991809
% es.Ey (V/m) @ t=0.08
0.0491084864501827
% es.Ez (V/m) @ t=0.08
-0.6334829668740544
% es.tEx (V/m) @ t=0.08
1.2763505949918117
% es.tEy (V/m) @ t=0.08
0
% es.tEz (V/m) @ t=0.08
-0.6334829668740518
% V (V) @ t=0.08
0.006468642277025676
% es.normE (V/m) @ t=0.1
1.4389704177207183
% es.EX (V/m) @ t=0.1
1.288179310218034
% es.EY (V/m) @ t=0.1
0.049563577549952414
% es.EZ (V/m) @ t=0.1
-0.6393538547489064
% es.tEX (V/m) @ t=0.1
1.28817931021803
% es.tEY (V/m) @ t=0.1
0
% es.tEZ (V/m) @ t=0.1
-0.6393538547488973
% es.Ex (V/m) @ t=0.1
1.288179310218034
% es.Ey (V/m) @ t=0.1
0.049563577549952414
% es.Ez (V/m) @ t=0.1
-0.6393538547489064
% es.tEx (V/m) @ t=0.1
1.28817931021803
% es.tEy (V/m) @ t=0.1
0
% es.tEz (V/m) @ t=0.1
-0.6393538547488973
% V (V) @ t=0.1
0.006528591764954149
% es.normE (V/m) @ t=0.12
1.4521837798433945
% es.EX (V/m) @ t=0.12
1.3000080254442499
% es.EY (V/m) @ t=0.12
0.05001866864971943
% es.EZ (V/m) @ t=0.12
-0.6452247426237656
% es.tEX (V/m) @ t=0.12
1.3000080254442454
% es.tEY (V/m) @ t=0.12
0
% es.tEZ (V/m) @ t=0.12
-0.6452247426237498
% es.Ex (V/m) @ t=0.12
1.3000080254442499
% es.Ey (V/m) @ t=0.12
0.05001866864971943
% es.Ez (V/m) @ t=0.12
-0.6452247426237656
% es.tEx (V/m) @ t=0.12
1.3000080254442454
% es.tEy (V/m) @ t=0.12
0
% es.tEz (V/m) @ t=0.12
-0.6452247426237498
% V (V) @ t=0.12
0.006588541252882622
% es.normE (V/m) @ t=0.14
1.4654785495128753
% es.EX (V/m) @ t=0.14
1.3119096174021911
% es.EY (V/m) @ t=0.14
0.0504765630374224
% es.EZ (V/m) @ t=0.14
-0.6511318010964283
% es.tEX (V/m) @ t=0.14
1.3119096174021925
% es.tEY (V/m) @ t=0.14
0
% es.tEZ (V/m) @ t=0.14
-0.6511318010964189
% es.Ex (V/m) @ t=0.14
1.3119096174021911
% es.Ey (V/m) @ t=0.14
0.0504765630374224
% es.Ez (V/m) @ t=0.14
-0.6511318010964283
% es.tEx (V/m) @ t=0.14
1.3119096174021925
% es.tEy (V/m) @ t=0.14
0
% es.tEz (V/m) @ t=0.14
-0.6511318010964189
% V (V) @ t=0.14
0.0066488600958634686
% es.normE (V/m) @ t=0.16
1.47940539774741
% es.EX (V/m) @ t=0.16
1.3243770514941782
% es.EY (V/m) @ t=0.16
0.05095622319862092
% es.EZ (V/m) @ t=0.16
-0.657319701585111
% es.tEX (V/m) @ t=0.16
1.3243770514941762
% es.tEY (V/m) @ t=0.16
0
% es.tEZ (V/m) @ t=0.16
-0.6573197015851022
% es.Ex (V/m) @ t=0.16
1.3243770514941782
% es.Ey (V/m) @ t=0.16
0.05095622319862092
% es.Ez (V/m) @ t=0.16
-0.657319701585111
% es.tEx (V/m) @ t=0.16
1.3243770514941762
% es.tEy (V/m) @ t=0.16
0
% es.tEz (V/m) @ t=0.16
-0.6573197015851022
% V (V) @ t=0.16
0.006712046749270043
% es.normE (V/m) @ t=0.18
1.4933322459819582
% es.EX (V/m) @ t=0.18
1.3368444855861739
% es.EY (V/m) @ t=0.18
0.05143588335982471
% es.EZ (V/m) @ t=0.18
-0.6635076020738043
% es.tEX (V/m) @ t=0.18
1.336844485586171
% es.tEY (V/m) @ t=0.18
0
% es.tEZ (V/m) @ t=0.18
-0.6635076020737998
% es.Ex (V/m) @ t=0.18
1.3368444855861739
% es.Ey (V/m) @ t=0.18
0.05143588335982471
% es.Ez (V/m) @ t=0.18
-0.6635076020738043
% es.tEx (V/m) @ t=0.18
1.336844485586171
% es.tEy (V/m) @ t=0.18
0
% es.tEz (V/m) @ t=0.18
-0.6635076020737998
% V (V) @ t=0.18
0.006775233402676619
% es.normE (V/m) @ t=0.2
1.507259094216504
% es.EX (V/m) @ t=0.2
1.3493119196781644
% es.EY (V/m) @ t=0.2
0.05191554352104233
% es.EZ (V/m) @ t=0.2
-0.6696955025624994
% es.tEX (V/m) @ t=0.2
1.3493119196781613
% es.tEY (V/m) @ t=0.2
0
% es.tEZ (V/m) @ t=0.2
-0.6696955025624938
% es.Ex (V/m) @ t=0.2
1.3493119196781644
% es.Ey (V/m) @ t=0.2
0.05191554352104233
% es.Ez (V/m) @ t=0.2
-0.6696955025624994
% es.tEx (V/m) @ t=0.2
1.3493119196781613
% es.tEy (V/m) @ t=0.2
0
% es.tEz (V/m) @ t=0.2
-0.6696955025624938
% V (V) @ t=0.2
0.006838420056083195
% es.normE (V/m) @ t=0.22
1.5211859424510403
% es.EX (V/m) @ t=0.22
1.361779353770153
% es.EY (V/m) @ t=0.22
0.052395203682233715
% es.EZ (V/m) @ t=0.22
-0.6758834030511768
% es.tEX (V/m) @ t=0.22
1.3617793537701521
% es.tEY (V/m) @ t=0.22
0
% es.tEZ (V/m) @ t=0.22
-0.6758834030511807
% es.Ex (V/m) @ t=0.22
1.361779353770153
% es.Ey (V/m) @ t=0.22
0.052395203682233715
% es.Ez (V/m) @ t=0.22
-0.6758834030511768
% es.tEx (V/m) @ t=0.22
1.3617793537701521
% es.tEy (V/m) @ t=0.22
0
% es.tEz (V/m) @ t=0.22
-0.6758834030511807
% V (V) @ t=0.22
0.006901606709489772
% es.normE (V/m) @ t=0.24
1.535112790685582
% es.EX (V/m) @ t=0.24
1.3742467878621398
% es.EY (V/m) @ t=0.24
0.05287486384341977
% es.EZ (V/m) @ t=0.24
-0.6820713035398683
% es.tEX (V/m) @ t=0.24
1.3742467878621398
% es.tEY (V/m) @ t=0.24
0
% es.tEZ (V/m) @ t=0.24
-0.6820713035398605
% es.Ex (V/m) @ t=0.24
1.3742467878621398
% es.Ey (V/m) @ t=0.24
0.05287486384341977
% es.Ez (V/m) @ t=0.24
-0.6820713035398683
% es.tEx (V/m) @ t=0.24
1.3742467878621398
% es.tEy (V/m) @ t=0.24
0
% es.tEz (V/m) @ t=0.24
-0.6820713035398605
% V (V) @ t=0.24
0.006964793362896347
% es.normE (V/m) @ t=0.26
1.5490396389201102
% es.EX (V/m) @ t=0.26
1.3867142219541182
% es.EY (V/m) @ t=0.26
0.053354524004618736
% es.EZ (V/m) @ t=0.26
-0.6882592040285439
% es.tEX (V/m) @ t=0.26
1.38671422195412
% es.tEY (V/m) @ t=0.26
0
% es.tEZ (V/m) @ t=0.26
-0.6882592040285402
% es.Ex (V/m) @ t=0.26
1.3867142219541182
% es.Ey (V/m) @ t=0.26
0.053354524004618736
% es.Ez (V/m) @ t=0.26
-0.6882592040285439
% es.tEx (V/m) @ t=0.26
1.38671422195412
% es.tEy (V/m) @ t=0.26
0
% es.tEz (V/m) @ t=0.26
-0.6882592040285402
% V (V) @ t=0.26
0.007027980016302923
% es.normE (V/m) @ t=0.28
1.5633496621546703
% es.EX (V/m) @ t=0.28
1.399524648072585
% es.EY (V/m) @ t=0.28
0.053847230528456025
% es.EZ (V/m) @ t=0.28
-0.6946174259034401
% es.tEX (V/m) @ t=0.28
1.3995246480725858
% es.tEY (V/m) @ t=0.28
0
% es.tEZ (V/m) @ t=0.28
-0.6946174259034308
% es.Ex (V/m) @ t=0.28
1.399524648072585
% es.Ey (V/m) @ t=0.28
0.053847230528456025
% es.Ez (V/m) @ t=0.28
-0.6946174259034401
% es.tEx (V/m) @ t=0.28
1.3995246480725858
% es.tEy (V/m) @ t=0.28
0
% es.tEz (V/m) @ t=0.28
-0.6946174259034308
% V (V) @ t=0.28
0.007092908441514347
% es.normE (V/m) @ t=0.3
1.5788846744503746
% es.EX (V/m) @ t=0.3
1.4134316005312333
% es.EY (V/m) @ t=0.3
0.054381645544519214
% es.EZ (V/m) @ t=0.3
-0.7015201557314255
% es.tEX (V/m) @ t=0.3
1.4134316005312337
% es.tEY (V/m) @ t=0.3
0
% es.tEZ (V/m) @ t=0.3
-0.7015201557314192
% es.Ex (V/m) @ t=0.3
1.4134316005312333
% es.Ey (V/m) @ t=0.3
0.054381645544519214
% es.Ez (V/m) @ t=0.3
-0.7015201557314255
% es.tEx (V/m) @ t=0.3
1.4134316005312337
% es.tEy (V/m) @ t=0.3
0
% es.tEz (V/m) @ t=0.3
-0.7015201557314192
% V (V) @ t=0.3
0.007163405213845278
% es.normE (V/m) @ t=0.32
1.5944196867464788
% es.EX (V/m) @ t=0.32
1.4273385529898925
% es.EY (V/m) @ t=0.32
0.054916060560587315
% es.EZ (V/m) @ t=0.32
-0.7084228855594319
% es.tEX (V/m) @ t=0.32
1.4273385529898883
% es.tEY (V/m) @ t=0.32
0
% es.tEZ (V/m) @ t=0.32
-0.708422885559429
% es.Ex (V/m) @ t=0.32
1.4273385529898925
% es.Ey (V/m) @ t=0.32
0.054916060560587315
% es.Ez (V/m) @ t=0.32
-0.7084228855594319
% es.tEx (V/m) @ t=0.32
1.4273385529898883
% es.tEy (V/m) @ t=0.32
0
% es.tEz (V/m) @ t=0.32
-0.708422885559429
% V (V) @ t=0.32
0.007233901986176209
% es.normE (V/m) @ t=0.34
1.6099546990429516
% es.EX (V/m) @ t=0.34
1.4412455054485533
% es.EY (V/m) @ t=0.34
0.05545047557664162
% es.EZ (V/m) @ t=0.34
-0.7153256153874331
% es.tEX (V/m) @ t=0.34
1.4412455054485465
% es.tEY (V/m) @ t=0.34
0
% es.tEZ (V/m) @ t=0.34
-0.7153256153874317
% es.Ex (V/m) @ t=0.34
1.4412455054485533
% es.Ey (V/m) @ t=0.34
0.05545047557664162
% es.Ez (V/m) @ t=0.34
-0.7153256153874331
% es.tEx (V/m) @ t=0.34
1.4412455054485465
% es.tEy (V/m) @ t=0.34
0
% es.tEz (V/m) @ t=0.34
-0.7153256153874317
% V (V) @ t=0.34
0.007304398758507141
% es.normE (V/m) @ t=0.36
1.6254897113397648
% es.EX (V/m) @ t=0.36
1.4551524579071988
% es.EY (V/m) @ t=0.36
0.05598489059270126
% es.EZ (V/m) @ t=0.36
-0.7222283452154219
% es.tEX (V/m) @ t=0.36
1.4551524579071984
% es.tEY (V/m) @ t=0.36
0
% es.tEZ (V/m) @ t=0.36
-0.722228345215413
% es.Ex (V/m) @ t=0.36
1.4551524579071988
% es.Ey (V/m) @ t=0.36
0.05598489059270126
% es.Ez (V/m) @ t=0.36
-0.7222283452154219
% es.tEx (V/m) @ t=0.36
1.4551524579071984
% es.tEy (V/m) @ t=0.36
0
% es.tEz (V/m) @ t=0.36
-0.722228345215413
% V (V) @ t=0.36
0.007374895530838072
% es.normE (V/m) @ t=0.38
1.6410247236369409
% es.EX (V/m) @ t=0.38
1.4690594103658543
% es.EY (V/m) @ t=0.38
0.05651930560875512
% es.EZ (V/m) @ t=0.38
-0.7291310750434213
% es.tEX (V/m) @ t=0.38
1.4690594103658565
% es.tEY (V/m) @ t=0.38
0
% es.tEZ (V/m) @ t=0.38
-0.7291310750434157
% es.Ex (V/m) @ t=0.38
1.4690594103658543
% es.Ey (V/m) @ t=0.38
0.05651930560875512
% es.Ez (V/m) @ t=0.38
-0.7291310750434213
% es.tEx (V/m) @ t=0.38
1.4690594103658565
% es.tEy (V/m) @ t=0.38
0
% es.tEz (V/m) @ t=0.38
-0.7291310750434157
% V (V) @ t=0.38
0.007445392303169004
% es.normE (V/m) @ t=0.4
1.6565597359344535
% es.EX (V/m) @ t=0.4
1.4829663628245076
% es.EY (V/m) @ t=0.4
0.05705372062482186
% es.EZ (V/m) @ t=0.4
-0.736033804871419
% es.tEX (V/m) @ t=0.4
1.4829663628245031
% es.tEY (V/m) @ t=0.4
0
% es.tEZ (V/m) @ t=0.4
-0.7360338048714148
% es.Ex (V/m) @ t=0.4
1.4829663628245076
% es.Ey (V/m) @ t=0.4
0.05705372062482186
% es.Ez (V/m) @ t=0.4
-0.736033804871419
% es.tEx (V/m) @ t=0.4
1.4829663628245031
% es.tEy (V/m) @ t=0.4
0
% es.tEz (V/m) @ t=0.4
-0.7360338048714148
% V (V) @ t=0.4
0.007515889075499936
% es.normE (V/m) @ t=0.42
1.6720947482322956
% es.EX (V/m) @ t=0.42
1.49687331528316
% es.EY (V/m) @ t=0.42
0.05758813564088508
% es.EZ (V/m) @ t=0.42
-0.7429365346994183
% es.tEX (V/m) @ t=0.42
1.4968733152831586
% es.tEY (V/m) @ t=0.42
0
% es.tEZ (V/m) @ t=0.42
-0.7429365346994103
% es.Ex (V/m) @ t=0.42
1.49687331528316
% es.Ey (V/m) @ t=0.42
0.05758813564088508
% es.Ez (V/m) @ t=0.42
-0.7429365346994183
% es.tEx (V/m) @ t=0.42
1.4968733152831586
% es.tEy (V/m) @ t=0.42
0
% es.tEz (V/m) @ t=0.42
-0.7429365346994103
% V (V) @ t=0.42
0.0075863858478308665
% es.normE (V/m) @ t=0.44
1.6876297605304589
% es.EX (V/m) @ t=0.44
1.5107802677418154
% es.EY (V/m) @ t=0.44
0.058122550656947825
% es.EZ (V/m) @ t=0.44
-0.7498392645274107
% es.tEX (V/m) @ t=0.44
1.5107802677418132
% es.tEY (V/m) @ t=0.44
0
% es.tEZ (V/m) @ t=0.44
-0.7498392645274095
% es.Ex (V/m) @ t=0.44
1.5107802677418154
% es.Ey (V/m) @ t=0.44
0.058122550656947825
% es.Ez (V/m) @ t=0.44
-0.7498392645274107
% es.tEx (V/m) @ t=0.44
1.5107802677418132
% es.tEy (V/m) @ t=0.44
0
% es.tEz (V/m) @ t=0.44
-0.7498392645274095
% V (V) @ t=0.44
0.007656882620161798
% es.normE (V/m) @ t=0.46
1.7031647728289332
% es.EX (V/m) @ t=0.46
1.5246872202004678
% es.EY (V/m) @ t=0.46
0.058656965673014566
% es.EZ (V/m) @ t=0.46
-0.7567419943554083
% es.tEX (V/m) @ t=0.46
1.5246872202004687
% es.tEY (V/m) @ t=0.46
0
% es.tEZ (V/m) @ t=0.46
-0.756741994355405
% es.Ex (V/m) @ t=0.46
1.5246872202004678
% es.Ey (V/m) @ t=0.46
0.058656965673014566
% es.Ez (V/m) @ t=0.46
-0.7567419943554083
% es.tEx (V/m) @ t=0.46
1.5246872202004687
% es.tEy (V/m) @ t=0.46
0
% es.tEz (V/m) @ t=0.46
-0.756741994355405
% V (V) @ t=0.46
0.00772737939249273
% es.normE (V/m) @ t=0.48
1.7186997851277142
% es.EX (V/m) @ t=0.48
1.5385941726591232
% es.EY (V/m) @ t=0.48
0.05919138068908311
% es.EZ (V/m) @ t=0.48
-0.763644724183406
% es.tEX (V/m) @ t=0.48
1.5385941726591232
% es.tEY (V/m) @ t=0.48
0
% es.tEZ (V/m) @ t=0.48
-0.763644724183397
% es.Ex (V/m) @ t=0.48
1.5385941726591232
% es.Ey (V/m) @ t=0.48
0.05919138068908311
% es.Ez (V/m) @ t=0.48
-0.763644724183406
% es.tEx (V/m) @ t=0.48
1.5385941726591232
% es.tEy (V/m) @ t=0.48
0
% es.tEz (V/m) @ t=0.48
-0.763644724183397
% V (V) @ t=0.48
0.007797876164823661
% es.normE (V/m) @ t=0.5
1.7342347974267907
% es.EX (V/m) @ t=0.5
1.5525011251177787
% es.EY (V/m) @ t=0.5
0.059725795705137
% es.EZ (V/m) @ t=0.5
-0.7705474540114055
% es.tEX (V/m) @ t=0.5
1.5525011251177778
% es.tEY (V/m) @ t=0.5
0
% es.tEZ (V/m) @ t=0.5
-0.7705474540114032
% es.Ex (V/m) @ t=0.5
1.5525011251177787
% es.Ey (V/m) @ t=0.5
0.059725795705137
% es.Ez (V/m) @ t=0.5
-0.7705474540114055
% es.tEx (V/m) @ t=0.5
1.5525011251177778
% es.tEy (V/m) @ t=0.5
0
% es.tEz (V/m) @ t=0.5
-0.7705474540114032
% V (V) @ t=0.5
0.007868372937154592
% es.normE (V/m) @ t=0.52
1.7497698097261492
% es.EX (V/m) @ t=0.52
1.5664080775764329
% es.EY (V/m) @ t=0.52
0.06026021072120549
% es.EZ (V/m) @ t=0.52
-0.7774501838393942
% es.tEX (V/m) @ t=0.52
1.5664080775764297
% es.tEY (V/m) @ t=0.52
0
% es.tEZ (V/m) @ t=0.52
-0.7774501838393881
% es.Ex (V/m) @ t=0.52
1.5664080775764329
% es.Ey (V/m) @ t=0.52
0.06026021072120549
% es.Ez (V/m) @ t=0.52
-0.7774501838393942
% es.tEx (V/m) @ t=0.52
1.5664080775764297
% es.tEy (V/m) @ t=0.52
0
% es.tEz (V/m) @ t=0.52
-0.7774501838393881
% V (V) @ t=0.52
0.007938869709485524
% es.normE (V/m) @ t=0.54
1.7653048220257856
% es.EX (V/m) @ t=0.54
1.5803150300350792
% es.EY (V/m) @ t=0.54
0.06079462573726116
% es.EZ (V/m) @ t=0.54
-0.7843529136673955
% es.tEX (V/m) @ t=0.54
1.58031503003508
% es.tEY (V/m) @ t=0.54
0
% es.tEZ (V/m) @ t=0.54
-0.7843529136673908
% es.Ex (V/m) @ t=0.54
1.5803150300350792
% es.Ey (V/m) @ t=0.54
0.06079462573726116
% es.Ez (V/m) @ t=0.54
-0.7843529136673955
% es.tEx (V/m) @ t=0.54
1.58031503003508
% es.tEy (V/m) @ t=0.54
0
% es.tEz (V/m) @ t=0.54
-0.7843529136673908
% V (V) @ t=0.54
0.008009366481816457
% es.normE (V/m) @ t=0.56
1.78172705066947
% es.EX (V/m) @ t=0.56
1.5950163133570823
% es.EY (V/m) @ t=0.56
0.06136004401533604
% es.EZ (V/m) @ t=0.56
-0.7916496362989618
% es.tEX (V/m) @ t=0.56
1.59501631335708
% es.tEY (V/m) @ t=0.56
0
% es.tEZ (V/m) @ t=0.56
-0.7916496362989562
% es.Ex (V/m) @ t=0.56
1.5950163133570823
% es.Ey (V/m) @ t=0.56
0.06136004401533604
% es.Ez (V/m) @ t=0.56
-0.7916496362989618
% es.tEx (V/m) @ t=0.56
1.59501631335708
% es.tEy (V/m) @ t=0.56
0
% es.tEz (V/m) @ t=0.56
-0.7916496362989562
% V (V) @ t=0.56
0.008083878854827522
% es.normE (V/m) @ t=0.58
1.7990853254825656
% es.EX (V/m) @ t=0.58
1.610555645219329
% es.EY (V/m) @ t=0.58
0.06195817188540581
% es.EZ (V/m) @ t=0.58
-0.7993620359602567
% es.tEX (V/m) @ t=0.58
1.6105556452193346
% es.tEY (V/m) @ t=0.58
0
% es.tEZ (V/m) @ t=0.58
-0.7993620359602538
% es.Ex (V/m) @ t=0.58
1.610555645219329
% es.Ey (V/m) @ t=0.58
0.06195817188540581
% es.Ez (V/m) @ t=0.58
-0.7993620359602567
% es.tEx (V/m) @ t=0.58
1.6105556452193346
% es.tEy (V/m) @ t=0.58
0
% es.tEz (V/m) @ t=0.58
-0.7993620359602538
% V (V) @ t=0.58
0.008162627835584224
% es.normE (V/m) @ t=0.6
1.8164436002957807
% es.EX (V/m) @ t=0.6
1.6260949770815971
% es.EY (V/m) @ t=0.6
0.06255629975550131
% es.EZ (V/m) @ t=0.6
-0.8070744356215854
% es.tEX (V/m) @ t=0.6
1.6260949770815962
% es.tEY (V/m) @ t=0.6
0
% es.tEZ (V/m) @ t=0.6
-0.8070744356215727
% es.Ex (V/m) @ t=0.6
1.6260949770815971
% es.Ey (V/m) @ t=0.6
0.06255629975550131
% es.Ez (V/m) @ t=0.6
-0.8070744356215854
% es.tEx (V/m) @ t=0.6
1.6260949770815962
% es.tEy (V/m) @ t=0.6
0
% es.tEz (V/m) @ t=0.6
-0.8070744356215727
% V (V) @ t=0.6
0.008241376816340927
% es.normE (V/m) @ t=0.62
1.833801875109045
% es.EX (V/m) @ t=0.62
1.6416343089438472
% es.EY (V/m) @ t=0.62
0.06315442762557236
% es.EZ (V/m) @ t=0.62
-0.8147868352828785
% es.tEX (V/m) @ t=0.62
1.6416343089438428
% es.tEY (V/m) @ t=0.62
0
% es.tEZ (V/m) @ t=0.62
-0.8147868352828702
% es.Ex (V/m) @ t=0.62
1.6416343089438472
% es.Ey (V/m) @ t=0.62
0.06315442762557236
% es.Ez (V/m) @ t=0.62
-0.8147868352828785
% es.tEx (V/m) @ t=0.62
1.6416343089438428
% es.tEy (V/m) @ t=0.62
0
% es.tEz (V/m) @ t=0.62
-0.8147868352828702
% V (V) @ t=0.62
0.008320125797097629
% es.normE (V/m) @ t=0.64
1.8511601499224177
% es.EX (V/m) @ t=0.64
1.6571736408061188
% es.EY (V/m) @ t=0.64
0.0637525554956696
% es.EZ (V/m) @ t=0.64
-0.8224992349441895
% es.tEX (V/m) @ t=0.64
1.6571736408061186
% es.tEY (V/m) @ t=0.64
0
% es.tEZ (V/m) @ t=0.64
-0.8224992349441855
% es.Ex (V/m) @ t=0.64
1.6571736408061188
% es.Ey (V/m) @ t=0.64
0.0637525554956696
% es.Ez (V/m) @ t=0.64
-0.8224992349441895
% es.tEx (V/m) @ t=0.64
1.6571736408061186
% es.tEy (V/m) @ t=0.64
0
% es.tEz (V/m) @ t=0.64
-0.8224992349441855
% V (V) @ t=0.64
0.00839887477785433
% es.normE (V/m) @ t=0.66
1.8685184247358584
% es.EX (V/m) @ t=0.66
1.6727129726683798
% es.EY (V/m) @ t=0.66
0.06435068336574556
% es.EZ (V/m) @ t=0.66
-0.8302116346055022
% es.tEX (V/m) @ t=0.66
1.6727129726683803
% es.tEY (V/m) @ t=0.66
0
% es.tEZ (V/m) @ t=0.66
-0.8302116346054973
% es.Ex (V/m) @ t=0.66
1.6727129726683798
% es.Ey (V/m) @ t=0.66
0.06435068336574556
% es.Ez (V/m) @ t=0.66
-0.8302116346055022
% es.tEx (V/m) @ t=0.66
1.6727129726683803
% es.tEy (V/m) @ t=0.66
0
% es.tEz (V/m) @ t=0.66
-0.8302116346054973
% V (V) @ t=0.66
0.008477623758611032
% es.normE (V/m) @ t=0.68
1.8858766995493625
% es.EX (V/m) @ t=0.68
1.68825230453063
% es.EY (V/m) @ t=0.68
0.06494881123582416
% es.EZ (V/m) @ t=0.68
-0.8379240342668095
% es.tEX (V/m) @ t=0.68
1.6882523045306268
% es.tEY (V/m) @ t=0.68
0
% es.tEZ (V/m) @ t=0.68
-0.8379240342667984
% es.Ex (V/m) @ t=0.68
1.68825230453063
% es.Ey (V/m) @ t=0.68
0.06494881123582416
% es.Ez (V/m) @ t=0.68
-0.8379240342668095
% es.tEx (V/m) @ t=0.68
1.6882523045306268
% es.tEy (V/m) @ t=0.68
0
% es.tEz (V/m) @ t=0.68
-0.8379240342667984
% V (V) @ t=0.68
0.008556372739367735
% es.normE (V/m) @ t=0.7
1.9032349743629429
% es.EX (V/m) @ t=0.7
1.7037916363928842
% es.EY (V/m) @ t=0.7
0.06554693910591475
% es.EZ (V/m) @ t=0.7
-0.8456364339281134
% es.tEX (V/m) @ t=0.7
1.7037916363928884
% es.tEY (V/m) @ t=0.7
0
% es.tEZ (V/m) @ t=0.7
-0.845636433928096
% es.Ex (V/m) @ t=0.7
1.7037916363928842
% es.Ey (V/m) @ t=0.7
0.06554693910591475
% es.Ez (V/m) @ t=0.7
-0.8456364339281134
% es.tEx (V/m) @ t=0.7
1.7037916363928884
% es.tEy (V/m) @ t=0.7
0
% es.tEz (V/m) @ t=0.7
-0.845636433928096
% V (V) @ t=0.7
0.008635121720124435
% es.normE (V/m) @ t=0.72
1.9205932491765942
% es.EX (V/m) @ t=0.72
1.7193309682551376
% es.EY (V/m) @ t=0.72
0.0661450669759934
% es.EZ (V/m) @ t=0.72
-0.853348833589419
% es.tEX (V/m) @ t=0.72
1.7193309682551359
% es.tEY (V/m) @ t=0.72
0
% es.tEZ (V/m) @ t=0.72
-0.8533488335894077
% es.Ex (V/m) @ t=0.72
1.7193309682551376
% es.Ey (V/m) @ t=0.72
0.0661450669759934
% es.Ez (V/m) @ t=0.72
-0.853348833589419
% es.tEx (V/m) @ t=0.72
1.7193309682551359
% es.tEy (V/m) @ t=0.72
0
% es.tEz (V/m) @ t=0.72
-0.8533488335894077
% V (V) @ t=0.72
0.008713870700881138
% es.normE (V/m) @ t=0.74
1.9379515239903222
% es.EX (V/m) @ t=0.74
1.7348703001173984
% es.EY (V/m) @ t=0.74
0.06674319484606933
% es.EZ (V/m) @ t=0.74
-0.8610612332507264
% es.tEX (V/m) @ t=0.74
1.7348703001173966
% es.tEY (V/m) @ t=0.74
0
% es.tEZ (V/m) @ t=0.74
-0.8610612332507088
% es.Ex (V/m) @ t=0.74
1.7348703001173984
% es.Ey (V/m) @ t=0.74
0.06674319484606933
% es.Ez (V/m) @ t=0.74
-0.8610612332507264
% es.tEx (V/m) @ t=0.74
1.7348703001173966
% es.tEy (V/m) @ t=0.74
0
% es.tEz (V/m) @ t=0.74
-0.8610612332507088
% V (V) @ t=0.74
0.008792619681637841
% es.normE (V/m) @ t=0.76
1.9553097988041284
% es.EX (V/m) @ t=0.76
1.7504096319796705
% es.EY (V/m) @ t=0.76
0.06734132271614704
% es.EZ (V/m) @ t=0.76
-0.8687736329120337
% es.tEX (V/m) @ t=0.76
1.7504096319796654
% es.tEY (V/m) @ t=0.76
0
% es.tEZ (V/m) @ t=0.76
-0.8687736329120312
% es.Ex (V/m) @ t=0.76
1.7504096319796705
% es.Ey (V/m) @ t=0.76
0.06734132271614704
% es.Ez (V/m) @ t=0.76
-0.8687736329120337
% es.tEx (V/m) @ t=0.76
1.7504096319796654
% es.tEy (V/m) @ t=0.76
0
% es.tEz (V/m) @ t=0.76
-0.8687736329120312
% V (V) @ t=0.76
0.008871368662394543
% es.normE (V/m) @ t=0.78
1.9726680736179736
% es.EX (V/m) @ t=0.78
1.7659489638419172
% es.EY (V/m) @ t=0.78
0.067939450586227
% es.EZ (V/m) @ t=0.78
-0.8764860325733321
% es.tEX (V/m) @ t=0.78
1.7659489638419137
% es.tEY (V/m) @ t=0.78
0
% es.tEZ (V/m) @ t=0.78
-0.8764860325733181
% es.Ex (V/m) @ t=0.78
1.7659489638419172
% es.Ey (V/m) @ t=0.78
0.067939450586227
% es.Ez (V/m) @ t=0.78
-0.8764860325733321
% es.tEx (V/m) @ t=0.78
1.7659489638419137
% es.tEy (V/m) @ t=0.78
0
% es.tEz (V/m) @ t=0.78
-0.8764860325733181
% V (V) @ t=0.78
0.008950117643151243
% es.normE (V/m) @ t=0.8
1.990026348431909
% es.EX (V/m) @ t=0.8
1.7814882957041815
% es.EY (V/m) @ t=0.8
0.0685375784563225
% es.EZ (V/m) @ t=0.8
-0.884198432234652
% es.tEX (V/m) @ t=0.8
1.7814882957041887
% es.tEY (V/m) @ t=0.8
0
% es.tEZ (V/m) @ t=0.8
-0.8841984322346335
% es.Ex (V/m) @ t=0.8
1.7814882957041815
% es.Ey (V/m) @ t=0.8
0.0685375784563225
% es.Ez (V/m) @ t=0.8
-0.884198432234652
% es.tEx (V/m) @ t=0.8
1.7814882957041887
% es.tEy (V/m) @ t=0.8
0
% es.tEz (V/m) @ t=0.8
-0.8841984322346335
% V (V) @ t=0.8
0.009028866623907946
% es.normE (V/m) @ t=0.82
2.0073846232458843
% es.EX (V/m) @ t=0.82
1.797027627566432
% es.EY (V/m) @ t=0.82
0.06913570632640997
% es.EZ (V/m) @ t=0.82
-0.8919108318959506
% es.tEX (V/m) @ t=0.82
1.7970276275664352
% es.tEY (V/m) @ t=0.82
0
% es.tEZ (V/m) @ t=0.82
-0.8919108318959346
% es.Ex (V/m) @ t=0.82
1.797027627566432
% es.Ey (V/m) @ t=0.82
0.06913570632640997
% es.Ez (V/m) @ t=0.82
-0.8919108318959506
% es.tEx (V/m) @ t=0.82
1.7970276275664352
% es.tEy (V/m) @ t=0.82
0
% es.tEz (V/m) @ t=0.82
-0.8919108318959346
% V (V) @ t=0.82
0.009107615604664648
% es.normE (V/m) @ t=0.84
2.026271223139861
% es.EX (V/m) @ t=0.84
1.8139346471932873
% es.EY (V/m) @ t=0.84
0.0697840015636696
% es.EZ (V/m) @ t=0.84
-0.900303451313728
% es.tEX (V/m) @ t=0.84
1.8139346471932898
% es.tEY (V/m) @ t=0.84
0
% es.tEZ (V/m) @ t=0.84
-0.900303451313718
% es.Ex (V/m) @ t=0.84
1.8139346471932873
% es.Ey (V/m) @ t=0.84
0.0697840015636696
% es.Ez (V/m) @ t=0.84
-0.900303451313728
% es.tEx (V/m) @ t=0.84
1.8139346471932898
% es.tEy (V/m) @ t=0.84
0
% es.tEz (V/m) @ t=0.84
-0.900303451313718
% V (V) @ t=0.84
0.009193352532223234
% es.normE (V/m) @ t=0.86
2.0457089937430295
% es.EX (V/m) @ t=0.86
1.8313349057504942
% es.EY (V/m) @ t=0.86
0.07045038901409456
% es.EZ (V/m) @ t=0.86
-0.9089413832025137
% es.tEX (V/m) @ t=0.86
1.8313349057504977
% es.tEY (V/m) @ t=0.86
0
% es.tEZ (V/m) @ t=0.86
-0.9089413832025244
% es.Ex (V/m) @ t=0.86
1.8313349057504942
% es.Ey (V/m) @ t=0.86
0.07045038901409456
% es.Ez (V/m) @ t=0.86
-0.9089413832025137
% es.tEx (V/m) @ t=0.86
1.8313349057504977
% es.tEy (V/m) @ t=0.86
0
% es.tEz (V/m) @ t=0.86
-0.9089413832025244
% V (V) @ t=0.86
0.009281609572555471
% es.normE (V/m) @ t=0.88
2.065146764352347
% es.EX (V/m) @ t=0.88
1.8487351643077012
% es.EY (V/m) @ t=0.88
0.07111677646453332
% es.EZ (V/m) @ t=0.88
-0.9175793150912906
% es.tEX (V/m) @ t=0.88
1.8487351643077066
% es.tEY (V/m) @ t=0.88
0
% es.tEZ (V/m) @ t=0.88
-0.9175793150912952
% es.Ex (V/m) @ t=0.88
1.8487351643077012
% es.Ey (V/m) @ t=0.88
0.07111677646453332
% es.Ez (V/m) @ t=0.88
-0.9175793150912906
% es.tEx (V/m) @ t=0.88
1.8487351643077066
% es.tEy (V/m) @ t=0.88
0
% es.tEz (V/m) @ t=0.88
-0.9175793150912952
% V (V) @ t=0.88
0.009369866612887707
% es.normE (V/m) @ t=0.9
2.0845845349676484
% es.EX (V/m) @ t=0.9
1.8661354228649012
% es.EY (V/m) @ t=0.9
0.07178316391493034
% es.EZ (V/m) @ t=0.9
-0.9262172469800941
% es.tEX (V/m) @ t=0.9
1.8661354228649003
% es.tEY (V/m) @ t=0.9
0
% es.tEZ (V/m) @ t=0.9
-0.9262172469800873
% es.Ex (V/m) @ t=0.9
1.8661354228649012
% es.Ey (V/m) @ t=0.9
0.07178316391493034
% es.Ez (V/m) @ t=0.9
-0.9262172469800941
% es.tEx (V/m) @ t=0.9
1.8661354228649003
% es.tEy (V/m) @ t=0.9
0
% es.tEz (V/m) @ t=0.9
-0.9262172469800873
% V (V) @ t=0.9
0.009458123653219942
% es.normE (V/m) @ t=0.92
2.1040223055887624
% es.EX (V/m) @ t=0.92
1.8835356814221116
% es.EY (V/m) @ t=0.92
0.07244955136534778
% es.EZ (V/m) @ t=0.92
-0.934855178868871
% es.tEX (V/m) @ t=0.92
1.8835356814221011
% es.tEY (V/m) @ t=0.92
0
% es.tEZ (V/m) @ t=0.92
-0.9348551788688653
% es.Ex (V/m) @ t=0.92
1.8835356814221116
% es.Ey (V/m) @ t=0.92
0.07244955136534778
% es.Ez (V/m) @ t=0.92
-0.934855178868871
% es.tEx (V/m) @ t=0.92
1.8835356814221011
% es.tEy (V/m) @ t=0.92
0
% es.tEz (V/m) @ t=0.92
-0.9348551788688653
% V (V) @ t=0.92
0.009546380693552181
% es.normE (V/m) @ t=0.94
2.123460076215527
% es.EX (V/m) @ t=0.94
1.9009359399793224
% es.EY (V/m) @ t=0.94
0.07311593881577186
% es.EZ (V/m) @ t=0.94
-0.9434931107576372
% es.tEX (V/m) @ t=0.94
1.90093593997931
% es.tEY (V/m) @ t=0.94
0
% es.tEZ (V/m) @ t=0.94
-0.9434931107576432
% es.Ex (V/m) @ t=0.94
1.9009359399793224
% es.Ey (V/m) @ t=0.94
0.07311593881577186
% es.Ez (V/m) @ t=0.94
-0.9434931107576372
% es.tEx (V/m) @ t=0.94
1.90093593997931
% es.tEy (V/m) @ t=0.94
0
% es.tEz (V/m) @ t=0.94
-0.9434931107576432
% V (V) @ t=0.94
0.00963463773388442
% es.normE (V/m) @ t=0.96
2.142897846847787
% es.EX (V/m) @ t=0.96
1.9183361985365153
% es.EY (V/m) @ t=0.96
0.07378232626617554
% es.EZ (V/m) @ t=0.96
-0.9521310426464282
% es.tEX (V/m) @ t=0.96
1.9183361985365197
% es.tEY (V/m) @ t=0.96
0
% es.tEZ (V/m) @ t=0.96
-0.9521310426464211
% es.Ex (V/m) @ t=0.96
1.9183361985365153
% es.Ey (V/m) @ t=0.96
0.07378232626617554
% es.Ez (V/m) @ t=0.96
-0.9521310426464282
% es.tEx (V/m) @ t=0.96
1.9183361985365197
% es.tEy (V/m) @ t=0.96
0
% es.tEz (V/m) @ t=0.96
-0.9521310426464211
% V (V) @ t=0.96
0.009722894774216655
% es.normE (V/m) @ t=0.98
2.162335617485408
% es.EX (V/m) @ t=0.98
1.9357364570937223
% es.EY (V/m) @ t=0.98
0.07444871371659875
% es.EZ (V/m) @ t=0.98
-0.9607689745352087
% es.tEX (V/m) @ t=0.98
1.9357364570937277
% es.tEY (V/m) @ t=0.98
0
% es.tEZ (V/m) @ t=0.98
-0.9607689745352062
% es.Ex (V/m) @ t=0.98
1.9357364570937223
% es.Ey (V/m) @ t=0.98
0.07444871371659875
% es.Ez (V/m) @ t=0.98
-0.9607689745352087
% es.tEx (V/m) @ t=0.98
1.9357364570937277
% es.tEy (V/m) @ t=0.98
0
% es.tEz (V/m) @ t=0.98
-0.9607689745352062
% V (V) @ t=0.98
0.009811151814548892
% es.normE (V/m) @ t=1
2.181773388128244
% es.EX (V/m) @ t=1
1.9531367156509292
% es.EY (V/m) @ t=1
0.07511510116701306
% es.EZ (V/m) @ t=1
-0.9694069064240033
% es.tEX (V/m) @ t=1
1.9531367156509356
% es.tEY (V/m) @ t=1
0
% es.tEZ (V/m) @ t=1
-0.9694069064239983
% es.Ex (V/m) @ t=1
1.9531367156509292
% es.Ey (V/m) @ t=1
0.07511510116701306
% es.Ez (V/m) @ t=1
-0.9694069064240033
% es.tEx (V/m) @ t=1
1.9531367156509356
% es.tEy (V/m) @ t=1
0
% es.tEz (V/m) @ t=1
-0.9694069064239983
% V (V) @ t=1
0.00989940885488113
% es.normE (V/m) @ t=1.02
2.201211158776152
% es.EX (V/m) @ t=1.02
1.970536974208143
% es.EY (V/m) @ t=1.02
0.07578148861743006
% es.EZ (V/m) @ t=1.02
-0.9780448383127838
% es.tEX (V/m) @ t=1.02
1.9705369742081436
% es.tEY (V/m) @ t=1.02
0
% es.tEZ (V/m) @ t=1.02
-0.9780448383127904
% es.Ex (V/m) @ t=1.02
1.970536974208143
% es.Ey (V/m) @ t=1.02
0.07578148861743006
% es.Ez (V/m) @ t=1.02
-0.9780448383127838
% es.tEx (V/m) @ t=1.02
1.9705369742081436
% es.tEy (V/m) @ t=1.02
0
% es.tEz (V/m) @ t=1.02
-0.9780448383127904
% V (V) @ t=1.02
0.009987665895213367
% es.normE (V/m) @ t=1.04
2.220648929429002
% es.EX (V/m) @ t=1.04
1.987937232765354
% es.EY (V/m) @ t=1.04
0.07644787606785505
% es.EZ (V/m) @ t=1.04
-0.9866827702015784