% Model:              1 neuron.mph
% Version:            COMSOL 6.0.0.405
% Date:               Mar 16 2023, 10:01
% Dimension:          0
% Nodes:              14017
% Expressions:        14017
% Description:        Electric field norm, Electric field, X component, Electric field, Y component, Electric field, Z component, Tangential electric field, X component, Tangential electric field, Y component, Tangential electric field, Z component, Electric field, x component, Electric field, y component, Electric field, z component, Tangential electric field, x component, Tangential electric field, y component, Tangential electric field, z component, Electric potential
% Length unit:        mm
% x
1.66
% y
12.2
% z
1.33
% es.normE (V/m) @ t=0
7.629498157431627
% es.EX (V/m) @ t=0
-4.239258328328185
% es.EY (V/m) @ t=0
-0.45759127218057927
% es.EZ (V/m) @ t=0
5.676337228512573
% es.tEX (V/m) @ t=0
-4.239258328328198
% es.tEY (V/m) @ t=0
0
% es.tEZ (V/m) @ t=0
5.676337228512568
% es.Ex (V/m) @ t=0
-4.239258328328185
% es.Ey (V/m) @ t=0
-0.45759127218057927
% es.Ez (V/m) @ t=0
5.676337228512573
% es.tEx (V/m) @ t=0
-4.239258328328198
% es.tEy (V/m) @ t=0
0
% es.tEz (V/m) @ t=0
5.676337228512568
% V (V) @ t=0
0.006265840909644935
% es.normE (V/m) @ t=0.02
6.589749672361952
% es.EX (V/m) @ t=0.02
-3.661532001598144
% es.EY (V/m) @ t=0.02
-0.39523064789049767
% es.EZ (V/m) @ t=0.02
4.902765623340387
% es.tEX (V/m) @ t=0.02
-3.6615320015981503
% es.tEY (V/m) @ t=0.02
0
% es.tEZ (V/m) @ t=0.02
4.902765623340377
% es.Ex (V/m) @ t=0.02
-3.661532001598144
% es.Ey (V/m) @ t=0.02
-0.39523064789049767
% es.Ez (V/m) @ t=0.02
4.902765623340387
% es.tEx (V/m) @ t=0.02
-3.6615320015981503
% es.tEy (V/m) @ t=0.02
0
% es.tEz (V/m) @ t=0.02
4.902765623340377
% V (V) @ t=0.02
0.005411931603260449
% es.normE (V/m) @ t=0.04
6.65036896363279
% es.EX (V/m) @ t=0.04
-3.6952146936361316
% es.EY (V/m) @ t=0.04
-0.3988662431779244
% es.EZ (V/m) @ t=0.04
4.947866267641359
% es.tEX (V/m) @ t=0.04
-3.6952146936361414
% es.tEY (V/m) @ t=0.04
0
% es.tEZ (V/m) @ t=0.04
4.947866267641347
% es.Ex (V/m) @ t=0.04
-3.6952146936361316
% es.Ey (V/m) @ t=0.04
-0.3988662431779244
% es.Ez (V/m) @ t=0.04
4.947866267641359
% es.tEx (V/m) @ t=0.04
-3.6952146936361414
% es.tEy (V/m) @ t=0.04
0
% es.tEz (V/m) @ t=0.04
4.947866267641347
% V (V) @ t=0.04
0.0054617158235680625
% es.normE (V/m) @ t=0.06
6.711532780265229
% es.EX (V/m) @ t=0.06
-3.729199902355896
% es.EY (V/m) @ t=0.06
-0.40253453698935426
% es.EZ (V/m) @ t=0.06
4.993372047422697
% es.tEX (V/m) @ t=0.06
-3.7291999023559024
% es.tEY (V/m) @ t=0.06
0
% es.tEZ (V/m) @ t=0.06
4.993372047422691
% es.Ex (V/m) @ t=0.06
-3.729199902355896
% es.Ey (V/m) @ t=0.06
-0.40253453698935426
% es.Ez (V/m) @ t=0.06
4.993372047422697
% es.tEx (V/m) @ t=0.06
-3.7291999023559024
% es.tEy (V/m) @ t=0.06
0
% es.tEz (V/m) @ t=0.06
4.993372047422691
% V (V) @ t=0.06
0.005511947324310632
% es.normE (V/m) @ t=0.08
6.773634498485848
% es.EX (V/m) @ t=0.08
-3.7637065429275367
% es.EY (V/m) @ t=0.08
-0.4062588139646677
% es.EZ (V/m) @ t=0.08
5.0395755617817795
% es.tEX (V/m) @ t=0.08
-3.7637065429275394
% es.tEY (V/m) @ t=0.08
0
% es.tEZ (V/m) @ t=0.08
5.039575561781776
% es.Ex (V/m) @ t=0.08
-3.7637065429275367
% es.Ey (V/m) @ t=0.08
-0.4062588139646677
% es.Ez (V/m) @ t=0.08
5.0395755617817795
% es.tEx (V/m) @ t=0.08
-3.7637065429275394
% es.tEy (V/m) @ t=0.08
0
% es.tEz (V/m) @ t=0.08
5.039575561781776
% V (V) @ t=0.08
0.005562948544464912
% es.normE (V/m) @ t=0.1
6.836378307467548
% es.EX (V/m) @ t=0.1
-3.7985701575983786
% es.EY (V/m) @ t=0.1
-0.4100214172129619
% es.EZ (V/m) @ t=0.1
5.086256747712839
% es.tEX (V/m) @ t=0.1
-3.7985701575983812
% es.tEY (V/m) @ t=0.1
0
% es.tEZ (V/m) @ t=0.1
5.086256747712831
% es.Ex (V/m) @ t=0.1
-3.7985701575983786
% es.Ey (V/m) @ t=0.1
-0.4100214172129619
% es.Ez (V/m) @ t=0.1
5.086256747712839
% es.tEx (V/m) @ t=0.1
-3.7985701575983812
% es.tEy (V/m) @ t=0.1
0
% es.tEz (V/m) @ t=0.1
5.086256747712831
% V (V) @ t=0.1
0.005614476717264365
% es.normE (V/m) @ t=0.12
6.899122116449394
% es.EX (V/m) @ t=0.12
-3.8334337722692258
% es.EY (V/m) @ t=0.12
-0.4137840204612844
% es.EZ (V/m) @ t=0.12
5.132937933643886
% es.tEX (V/m) @ t=0.12
-3.833433772269232
% es.tEY (V/m) @ t=0.12
0
% es.tEZ (V/m) @ t=0.12
5.1329379336438805
% es.Ex (V/m) @ t=0.12
-3.8334337722692258
% es.Ey (V/m) @ t=0.12
-0.4137840204612844
% es.Ez (V/m) @ t=0.12
5.132937933643886
% es.tEx (V/m) @ t=0.12
-3.833433772269232
% es.tEy (V/m) @ t=0.12
0
% es.tEz (V/m) @ t=0.12
5.1329379336438805
% V (V) @ t=0.12
0.005666004890063817
% es.normE (V/m) @ t=0.14
6.962525641810595
% es.EX (V/m) @ t=0.14
-3.8686637387913745
% es.EY (V/m) @ t=0.14
-0.4175863852089019
% es.EZ (V/m) @ t=0.14
5.180109993257924
% es.tEX (V/m) @ t=0.14
-3.8686637387913807
% es.tEY (V/m) @ t=0.14
0
% es.tEZ (V/m) @ t=0.14
5.180109993257918
% es.Ex (V/m) @ t=0.14
-3.8686637387913745
% es.Ey (V/m) @ t=0.14
-0.4175863852089019
% es.Ez (V/m) @ t=0.14
5.180109993257924
% es.tEx (V/m) @ t=0.14
-3.8686637387913807
% es.tEy (V/m) @ t=0.14
0
% es.tEz (V/m) @ t=0.14
5.180109993257918
% V (V) @ t=0.14
0.005718075259022338
% es.normE (V/m) @ t=0.16
7.028615318988401
% es.EX (V/m) @ t=0.16
-3.905385371614117
% es.EY (V/m) @ t=0.16
-0.42155064592734304
% es.EZ (V/m) @ t=0.16
5.229280731814496
% es.tEX (V/m) @ t=0.16
-3.9053853716141234
% es.tEY (V/m) @ t=0.16
0
% es.tEZ (V/m) @ t=0.16
5.229280731814483
% es.Ex (V/m) @ t=0.16
-3.905385371614117
% es.Ey (V/m) @ t=0.16
-0.42155064592734304
% es.Ez (V/m) @ t=0.16
5.229280731814496
% es.tEx (V/m) @ t=0.16
-3.9053853716141234
% es.tEy (V/m) @ t=0.16
0
% es.tEz (V/m) @ t=0.16
5.229280731814483
% V (V) @ t=0.16
0.005772353275453919
% es.normE (V/m) @ t=0.18
7.094704996166289
% es.EX (V/m) @ t=0.18
-3.9421070044368705
% es.EY (V/m) @ t=0.18
-0.425514906645752
% es.EZ (V/m) @ t=0.18
5.278451470371053
% es.tEX (V/m) @ t=0.18
-3.9421070044368767
% es.tEY (V/m) @ t=0.18
0
% es.tEZ (V/m) @ t=0.18
5.278451470371046
% es.Ex (V/m) @ t=0.18
-3.9421070044368705
% es.Ey (V/m) @ t=0.18
-0.425514906645752
% es.Ez (V/m) @ t=0.18
5.278451470371053
% es.tEx (V/m) @ t=0.18
-3.9421070044368767
% es.tEy (V/m) @ t=0.18
0
% es.tEz (V/m) @ t=0.18
5.278451470371046
% V (V) @ t=0.18
0.005826631291885499
% es.normE (V/m) @ t=0.2
7.160794673344256
% es.EX (V/m) @ t=0.2
-3.97882863725962
% es.EY (V/m) @ t=0.2
-0.42947916736417713
% es.EZ (V/m) @ t=0.2
5.327622208927603
% es.tEX (V/m) @ t=0.2
-3.9788286372596193
% es.tEY (V/m) @ t=0.2
0
% es.tEZ (V/m) @ t=0.2
5.327622208927597
% es.Ex (V/m) @ t=0.2
-3.97882863725962
% es.Ey (V/m) @ t=0.2
-0.42947916736417713
% es.Ez (V/m) @ t=0.2
5.327622208927603
% es.tEx (V/m) @ t=0.2
-3.9788286372596193
% es.tEy (V/m) @ t=0.2
0
% es.tEz (V/m) @ t=0.2
5.327622208927597
% V (V) @ t=0.2
0.00588090930831708
% es.normE (V/m) @ t=0.22
7.226884350522314
% es.EX (V/m) @ t=0.22
-4.015550270082366
% es.EY (V/m) @ t=0.22
-0.4334434280825954
% es.EZ (V/m) @ t=0.22
5.376792947484166
% es.tEX (V/m) @ t=0.22
-4.015550270082369
% es.tEY (V/m) @ t=0.22
0
% es.tEZ (V/m) @ t=0.22
5.376792947484154
% es.Ex (V/m) @ t=0.22
-4.015550270082366
% es.Ey (V/m) @ t=0.22
-0.4334434280825954
% es.Ez (V/m) @ t=0.22
5.376792947484166
% es.tEx (V/m) @ t=0.22
-4.015550270082369
% es.tEy (V/m) @ t=0.22
0
% es.tEz (V/m) @ t=0.22
5.376792947484154
% V (V) @ t=0.22
0.005935187324748661
% es.normE (V/m) @ t=0.24
7.292974027700438
% es.EX (V/m) @ t=0.24
-4.052271902905102
% es.EY (V/m) @ t=0.24
-0.43740768880101344
% es.EZ (V/m) @ t=0.24
5.425963686040728
% es.tEX (V/m) @ t=0.24
-4.052271902905115
% es.tEY (V/m) @ t=0.24
0
% es.tEZ (V/m) @ t=0.24
5.4259636860407205
% es.Ex (V/m) @ t=0.24
-4.052271902905102
% es.Ey (V/m) @ t=0.24
-0.43740768880101344
% es.Ez (V/m) @ t=0.24
5.425963686040728
% es.tEx (V/m) @ t=0.24
-4.052271902905115
% es.tEy (V/m) @ t=0.24
0
% es.tEz (V/m) @ t=0.24
5.4259636860407205
% V (V) @ t=0.24
0.005989465341180242
% es.normE (V/m) @ t=0.26
7.359063704878649
% es.EX (V/m) @ t=0.26
-4.088993535727844
% es.EY (V/m) @ t=0.26
-0.4413719495194437
% es.EZ (V/m) @ t=0.26
5.475134424597274
% es.tEX (V/m) @ t=0.26
-4.0889935357278535
% es.tEY (V/m) @ t=0.26
0
% es.tEZ (V/m) @ t=0.26
5.47513442459727
% es.Ex (V/m) @ t=0.26
-4.088993535727844
% es.Ey (V/m) @ t=0.26
-0.4413719495194437
% es.Ez (V/m) @ t=0.26
5.475134424597274
% es.tEx (V/m) @ t=0.26
-4.0889935357278535
% es.tEy (V/m) @ t=0.26
0
% es.tEz (V/m) @ t=0.26
5.47513442459727
% V (V) @ t=0.26
0.006043743357611821
% es.normE (V/m) @ t=0.28
7.428193944904572
% es.EX (V/m) @ t=0.28
-4.127405461591481
% es.EY (V/m) @ t=0.28
-0.4455178132831985
% es.EZ (V/m) @ t=0.28
5.526567161554273
% es.tEX (V/m) @ t=0.28
-4.12740546159148
% es.tEY (V/m) @ t=0.28
0
% es.tEZ (V/m) @ t=0.28
5.526567161554267
% es.Ex (V/m) @ t=0.28
-4.127405461591481
% es.Ey (V/m) @ t=0.28
-0.4455178132831985
% es.Ez (V/m) @ t=0.28
5.526567161554273
% es.tEx (V/m) @ t=0.28
-4.12740546159148
% es.tEy (V/m) @ t=0.28
0
% es.tEz (V/m) @ t=0.28
5.526567161554267
% V (V) @ t=0.28
0.006100516941276685
% es.normE (V/m) @ t=0.3
7.501804231454527
% es.EX (V/m) @ t=0.3
-4.16830791037499
% es.EY (V/m) @ t=0.3
-0.44993125582514204
% es.EZ (V/m) @ t=0.3
5.581332787380093
% es.tEX (V/m) @ t=0.3
-4.168307910374993
% es.tEY (V/m) @ t=0.3
0
% es.tEZ (V/m) @ t=0.3
5.581332787380086
% es.Ex (V/m) @ t=0.3
-4.16830791037499
% es.Ey (V/m) @ t=0.3
-0.44993125582514204
% es.Ez (V/m) @ t=0.3
5.581332787380093
% es.tEx (V/m) @ t=0.3
-4.168307910374993
% es.tEy (V/m) @ t=0.3
0
% es.tEz (V/m) @ t=0.3
5.581332787380086
% V (V) @ t=0.3
0.0061609675603681345
% es.normE (V/m) @ t=0.32
7.5754145180053625
% es.EX (V/m) @ t=0.32
-4.209210359158503
% es.EY (V/m) @ t=0.32
-0.45434469836710156
% es.EZ (V/m) @ t=0.32
5.636098413205925
% es.tEX (V/m) @ t=0.32
-4.20921035915851
% es.tEY (V/m) @ t=0.32
0
% es.tEZ (V/m) @ t=0.32
5.636098413205919
% es.Ex (V/m) @ t=0.32
-4.209210359158503
% es.Ey (V/m) @ t=0.32
-0.45434469836710156
% es.Ez (V/m) @ t=0.32
5.636098413205925
% es.tEx (V/m) @ t=0.32
-4.20921035915851
% es.tEy (V/m) @ t=0.32
0
% es.tEz (V/m) @ t=0.32
5.636098413205919
% V (V) @ t=0.32
0.006221418179459583
% es.normE (V/m) @ t=0.34
7.649024804557035
% es.EX (V/m) @ t=0.34
-4.25011280794199
% es.EY (V/m) @ t=0.34
-0.4587581409090702
% es.EZ (V/m) @ t=0.34
5.690864039031771
% es.tEX (V/m) @ t=0.34
-4.2501128079419965
% es.tEY (V/m) @ t=0.34
0
% es.tEZ (V/m) @ t=0.34
5.690864039031762
% es.Ex (V/m) @ t=0.34
-4.25011280794199
% es.Ey (V/m) @ t=0.34
-0.4587581409090702
% es.Ez (V/m) @ t=0.34
5.690864039031771
% es.tEx (V/m) @ t=0.34
-4.2501128079419965
% es.tEy (V/m) @ t=0.34
0
% es.tEz (V/m) @ t=0.34
5.690864039031762
% V (V) @ t=0.34
0.006281868798551029
% es.normE (V/m) @ t=0.36
7.722635091109524
% es.EX (V/m) @ t=0.36
-4.291015256725514
% es.EY (V/m) @ t=0.36
-0.4631715834510297
% es.EZ (V/m) @ t=0.36
5.745629664857599
% es.tEX (V/m) @ t=0.36
-4.291015256725528
% es.tEY (V/m) @ t=0.36
0
% es.tEZ (V/m) @ t=0.36
5.745629664857591
% es.Ex (V/m) @ t=0.36
-4.291015256725514
% es.Ey (V/m) @ t=0.36
-0.4631715834510297
% es.Ez (V/m) @ t=0.36
5.745629664857599
% es.tEx (V/m) @ t=0.36
-4.291015256725528
% es.tEy (V/m) @ t=0.36
0
% es.tEz (V/m) @ t=0.36
5.745629664857591
% V (V) @ t=0.36
0.006342319417642477
% es.normE (V/m) @ t=0.38
7.796245377662794
% es.EX (V/m) @ t=0.38
-4.331917705509016
% es.EY (V/m) @ t=0.38
-0.46758502599298923
% es.EZ (V/m) @ t=0.38
5.800395290683434
% es.tEX (V/m) @ t=0.38
-4.331917705509026
% es.tEY (V/m) @ t=0.38
0
% es.tEZ (V/m) @ t=0.38
5.800395290683425
% es.Ex (V/m) @ t=0.38
-4.331917705509016
% es.Ey (V/m) @ t=0.38
-0.46758502599298923
% es.Ez (V/m) @ t=0.38
5.800395290683434
% es.tEx (V/m) @ t=0.38
-4.331917705509026
% es.tEy (V/m) @ t=0.38
0
% es.tEz (V/m) @ t=0.38
5.800395290683425
% V (V) @ t=0.38
0.006402770036733925
% es.normE (V/m) @ t=0.4
7.869855664216832
% es.EX (V/m) @ t=0.4
-4.372820154292519
% es.EY (V/m) @ t=0.4
-0.47199846853495053
% es.EZ (V/m) @ t=0.4
5.855160916509254
% es.tEX (V/m) @ t=0.4
-4.372820154292522
% es.tEY (V/m) @ t=0.4
0
% es.tEZ (V/m) @ t=0.4
5.855160916509247
% es.Ex (V/m) @ t=0.4
-4.372820154292519
% es.Ey (V/m) @ t=0.4
-0.47199846853495053
% es.Ez (V/m) @ t=0.4
5.855160916509254
% es.tEx (V/m) @ t=0.4
-4.372820154292522
% es.tEy (V/m) @ t=0.4
0
% es.tEz (V/m) @ t=0.4
5.855160916509247
% V (V) @ t=0.4
0.006463220655825374
% es.normE (V/m) @ t=0.42
7.943465950771628
% es.EX (V/m) @ t=0.42
-4.413722603076034
% es.EY (V/m) @ t=0.42
-0.47641191107689607
% es.EZ (V/m) @ t=0.42
5.909926542335087
% es.tEX (V/m) @ t=0.42
-4.413722603076037
% es.tEY (V/m) @ t=0.42
0
% es.tEZ (V/m) @ t=0.42
5.90992654233508
% es.Ex (V/m) @ t=0.42
-4.413722603076034
% es.Ey (V/m) @ t=0.42
-0.47641191107689607
% es.Ez (V/m) @ t=0.42
5.909926542335087
% es.tEx (V/m) @ t=0.42
-4.413722603076037
% es.tEy (V/m) @ t=0.42
0
% es.tEz (V/m) @ t=0.42
5.90992654233508
% V (V) @ t=0.42
0.006523671274916822
% es.normE (V/m) @ t=0.44
8.017076237327162
% es.EX (V/m) @ t=0.44
-4.454625051859529
% es.EY (V/m) @ t=0.44
-0.48082535361888046
% es.EZ (V/m) @ t=0.44
5.96469216816094
% es.tEX (V/m) @ t=0.44
-4.454625051859532
% es.tEY (V/m) @ t=0.44
0
% es.tEZ (V/m) @ t=0.44
5.9646921681609335
% es.Ex (V/m) @ t=0.44
-4.454625051859529
% es.Ey (V/m) @ t=0.44
-0.48082535361888046
% es.Ez (V/m) @ t=0.44
5.96469216816094
% es.tEx (V/m) @ t=0.44
-4.454625051859532
% es.tEy (V/m) @ t=0.44
0
% es.tEz (V/m) @ t=0.44
5.9646921681609335
% V (V) @ t=0.44
0.0065841218940082685
% es.normE (V/m) @ t=0.46
8.090686523883386
% es.EX (V/m) @ t=0.46
-4.49552750064305
% es.EY (V/m) @ t=0.46
-0.48523879616082954
% es.EZ (V/m) @ t=0.46
6.019457793986765
% es.tEX (V/m) @ t=0.46
-4.4955275006430595
% es.tEY (V/m) @ t=0.46
0
% es.tEZ (V/m) @ t=0.46
6.019457793986756
% es.Ex (V/m) @ t=0.46
-4.49552750064305
% es.Ey (V/m) @ t=0.46
-0.48523879616082954
% es.Ez (V/m) @ t=0.46
6.019457793986765
% es.tEx (V/m) @ t=0.46
-4.4955275006430595
% es.tEy (V/m) @ t=0.46
0
% es.tEz (V/m) @ t=0.46
6.019457793986756
% V (V) @ t=0.46
0.006644572513099717
% es.normE (V/m) @ t=0.48
8.164296810440312
% es.EX (V/m) @ t=0.48
-4.536429949426555
% es.EY (V/m) @ t=0.48
-0.4896522387027926
% es.EZ (V/m) @ t=0.48
6.074223419812609
% es.tEX (V/m) @ t=0.48
-4.536429949426565
% es.tEY (V/m) @ t=0.48
0
% es.tEZ (V/m) @ t=0.48
6.074223419812597
% es.Ex (V/m) @ t=0.48
-4.536429949426555
% es.Ey (V/m) @ t=0.48
-0.4896522387027926
% es.Ez (V/m) @ t=0.48
6.074223419812609
% es.tEx (V/m) @ t=0.48
-4.536429949426565
% es.tEy (V/m) @ t=0.48
0
% es.tEz (V/m) @ t=0.48
6.074223419812597
% V (V) @ t=0.48
0.006705023132191166
% es.normE (V/m) @ t=0.5
8.237907096997887
% es.EX (V/m) @ t=0.5
-4.577332398210057
% es.EY (V/m) @ t=0.5
-0.49406568124475747
% es.EZ (V/m) @ t=0.5
6.128989045638428
% es.tEX (V/m) @ t=0.5
-4.577332398210063
% es.tEY (V/m) @ t=0.5
0
% es.tEZ (V/m) @ t=0.5
6.128989045638418
% es.Ex (V/m) @ t=0.5
-4.577332398210057
% es.Ey (V/m) @ t=0.5
-0.49406568124475747
% es.Ez (V/m) @ t=0.5
6.128989045638428
% es.tEx (V/m) @ t=0.5
-4.577332398210063
% es.tEy (V/m) @ t=0.5
0
% es.tEz (V/m) @ t=0.5
6.128989045638418
% V (V) @ t=0.5
0.006765473751282612
% es.normE (V/m) @ t=0.52
8.311517383556128
% es.EX (V/m) @ t=0.52
-4.618234846993574
% es.EY (V/m) @ t=0.52
-0.49847912378670833
% es.EZ (V/m) @ t=0.52
6.1837546714642615
% es.tEX (V/m) @ t=0.52
-4.61823484699358
% es.tEY (V/m) @ t=0.52
0
% es.tEZ (V/m) @ t=0.52
6.183754671464257
% es.Ex (V/m) @ t=0.52
-4.618234846993574
% es.Ey (V/m) @ t=0.52
-0.49847912378670833
% es.Ez (V/m) @ t=0.52
6.1837546714642615
% es.tEx (V/m) @ t=0.52
-4.61823484699358
% es.tEy (V/m) @ t=0.52
0
% es.tEz (V/m) @ t=0.52
6.183754671464257
% V (V) @ t=0.52
0.006825924370374061
% es.normE (V/m) @ t=0.54
8.385127670115008
% es.EX (V/m) @ t=0.54
-4.65913729577708
% es.EY (V/m) @ t=0.54
-0.5028925663286734
% es.EZ (V/m) @ t=0.54
6.238520297290099
% es.tEX (V/m) @ t=0.54
-4.659137295777082
% es.tEY (V/m) @ t=0.54
0
% es.tEZ (V/m) @ t=0.54
6.238520297290088
% es.Ex (V/m) @ t=0.54
-4.65913729577708
% es.Ey (V/m) @ t=0.54
-0.5028925663286734
% es.Ez (V/m) @ t=0.54
6.238520297290099
% es.tEx (V/m) @ t=0.54
-4.659137295777082
% es.tEy (V/m) @ t=0.54
0
% es.tEz (V/m) @ t=0.54
6.238520297290088
% V (V) @ t=0.54
0.0068863749894655085
% es.normE (V/m) @ t=0.56
8.465718445539657
% es.EX (V/m) @ t=0.56
-4.703916158917137
% es.EY (V/m) @ t=0.56
-0.507726706855893
% es.EZ (V/m) @ t=0.56
6.298479870151468
% es.tEX (V/m) @ t=0.56
-4.703916158917143
% es.tEY (V/m) @ t=0.56
0
% es.tEZ (V/m) @ t=0.56
6.298479870151462
% es.Ex (V/m) @ t=0.56
-4.703916158917137
% es.Ey (V/m) @ t=0.56
-0.507726706855893
% es.Ez (V/m) @ t=0.56
6.298479870151468
% es.tEx (V/m) @ t=0.56
-4.703916158917143
% es.tEy (V/m) @ t=0.56
0
% es.tEz (V/m) @ t=0.56
6.298479870151462
% V (V) @ t=0.56
0.006952562562981584
% es.normE (V/m) @ t=0.58
8.547856652025743
% es.EX (V/m) @ t=0.58
-4.749554343531085
% es.EY (V/m) @ t=0.58
-0.5126541074888675
% es.EZ (V/m) @ t=0.58
6.359590834430632
% es.tEX (V/m) @ t=0.58
-4.749554343531095
% es.tEY (V/m) @ t=0.58
0
% es.tEZ (V/m) @ t=0.58
6.359590834430621
% es.Ex (V/m) @ t=0.58
-4.749554343531085
% es.Ey (V/m) @ t=0.58
-0.5126541074888675
% es.Ez (V/m) @ t=0.58
6.359590834430632
% es.tEx (V/m) @ t=0.58
-4.749554343531095
% es.tEy (V/m) @ t=0.58
0
% es.tEz (V/m) @ t=0.58
6.359590834430621
% V (V) @ t=0.58
0.007020021901504807
% es.normE (V/m) @ t=0.6
8.629994858512347
% es.EX (V/m) @ t=0.6
-4.795192528145041
% es.EY (V/m) @ t=0.6
-0.5175815081218453
% es.EZ (V/m) @ t=0.6
6.4207017987097945
% es.tEX (V/m) @ t=0.6
-4.795192528145054
% es.tEY (V/m) @ t=0.6
0
% es.tEZ (V/m) @ t=0.6
6.420701798709784
% es.Ex (V/m) @ t=0.6
-4.795192528145041
% es.Ey (V/m) @ t=0.6
-0.5175815081218453
% es.Ez (V/m) @ t=0.6
6.4207017987097945
% es.tEx (V/m) @ t=0.6
-4.795192528145054
% es.tEy (V/m) @ t=0.6
0
% es.tEz (V/m) @ t=0.6
6.420701798709784
% V (V) @ t=0.6
0.007087481240028032
% es.normE (V/m) @ t=0.62
8.712133064999467
% es.EX (V/m) @ t=0.62
-4.840830712758981
% es.EY (V/m) @ t=0.62
-0.5225089087548211
% es.EZ (V/m) @ t=0.62
6.481812762988968
% es.tEX (V/m) @ t=0.62
-4.840830712758987
% es.tEY (V/m) @ t=0.62
0
% es.tEZ (V/m) @ t=0.62
6.481812762988959
% es.Ex (V/m) @ t=0.62
-4.840830712758981
% es.Ey (V/m) @ t=0.62
-0.5225089087548211
% es.Ez (V/m) @ t=0.62
6.481812762988968
% es.tEx (V/m) @ t=0.62
-4.840830712758987
% es.tEy (V/m) @ t=0.62
0
% es.tEz (V/m) @ t=0.62
6.481812762988959
% V (V) @ t=0.62
0.007154940578551256
% es.normE (V/m) @ t=0.64
8.794271271487073
% es.EX (V/m) @ t=0.64
-4.88646889737294
% es.EY (V/m) @ t=0.64
-0.5274363093877705
% es.EZ (V/m) @ t=0.64
6.54292372726813
% es.tEX (V/m) @ t=0.64
-4.886468897372946
% es.tEY (V/m) @ t=0.64
0
% es.tEZ (V/m) @ t=0.64
6.542923727268118
% es.Ex (V/m) @ t=0.64
-4.88646889737294
% es.Ey (V/m) @ t=0.64
-0.5274363093877705
% es.Ez (V/m) @ t=0.64
6.54292372726813
% es.tEx (V/m) @ t=0.64
-4.886468897372946
% es.tEy (V/m) @ t=0.64
0
% es.tEz (V/m) @ t=0.64
6.542923727268118
% V (V) @ t=0.64
0.007222399917074481
% es.normE (V/m) @ t=0.66
8.876409477975148
% es.EX (V/m) @ t=0.66
-4.932107081986889
% es.EY (V/m) @ t=0.66
-0.5323637100207397
% es.EZ (V/m) @ t=0.66
6.604034691547272
% es.tEX (V/m) @ t=0.66
-4.932107081986905
% es.tEY (V/m) @ t=0.66
0
% es.tEZ (V/m) @ t=0.66
6.604034691547268
% es.Ex (V/m) @ t=0.66
-4.932107081986889
% es.Ey (V/m) @ t=0.66
-0.5323637100207397
% es.Ez (V/m) @ t=0.66
6.604034691547272
% es.tEx (V/m) @ t=0.66
-4.932107081986905
% es.tEy (V/m) @ t=0.66
0
% es.tEz (V/m) @ t=0.66
6.604034691547268
% V (V) @ t=0.66
0.007289859255597704
% es.normE (V/m) @ t=0.68
8.958547684463735
% es.EX (V/m) @ t=0.68
-4.9777452666008415
% es.EY (V/m) @ t=0.68
-0.5372911106537281
% es.EZ (V/m) @ t=0.68
6.665145655826455
% es.tEX (V/m) @ t=0.68
-4.977745266600851
% es.tEY (V/m) @ t=0.68
0
% es.tEZ (V/m) @ t=0.68
6.665145655826449
% es.Ex (V/m) @ t=0.68
-4.9777452666008415
% es.Ey (V/m) @ t=0.68
-0.5372911106537281
% es.Ez (V/m) @ t=0.68
6.665145655826455
% es.tEx (V/m) @ t=0.68
-4.977745266600851
% es.tEy (V/m) @ t=0.68
0
% es.tEz (V/m) @ t=0.68
6.665145655826449
% V (V) @ t=0.68
0.007357318594120931
% es.normE (V/m) @ t=0.7
9.040685890952737
% es.EX (V/m) @ t=0.7
-5.02338345121479
% es.EY (V/m) @ t=0.7
-0.5422185112867075
% es.EZ (V/m) @ t=0.7
6.726256620105604
% es.tEX (V/m) @ t=0.7
-5.023383451214803
% es.tEY (V/m) @ t=0.7
0
% es.tEZ (V/m) @ t=0.7
6.726256620105592
% es.Ex (V/m) @ t=0.7
-5.02338345121479
% es.Ey (V/m) @ t=0.7
-0.5422185112867075
% es.Ez (V/m) @ t=0.7
6.726256620105604
% es.tEx (V/m) @ t=0.7
-5.023383451214803
% es.tEy (V/m) @ t=0.7
0
% es.tEz (V/m) @ t=0.7
6.726256620105592
% V (V) @ t=0.7
0.0074247779326441525
% es.normE (V/m) @ t=0.72
9.122824097442201
% es.EX (V/m) @ t=0.72
-5.0690216358287286
% es.EY (V/m) @ t=0.72
-0.547145911919682
% es.EZ (V/m) @ t=0.72
6.787367584384778
% es.tEX (V/m) @ t=0.72
-5.069021635828735
% es.tEY (V/m) @ t=0.72
0
% es.tEZ (V/m) @ t=0.72
6.787367584384765
% es.Ex (V/m) @ t=0.72
-5.0690216358287286
% es.Ey (V/m) @ t=0.72
-0.547145911919682
% es.Ez (V/m) @ t=0.72
6.787367584384778
% es.tEx (V/m) @ t=0.72
-5.069021635828735
% es.tEy (V/m) @ t=0.72
0
% es.tEz (V/m) @ t=0.72
6.787367584384765
% V (V) @ t=0.72
0.007492237271167378
% es.normE (V/m) @ t=0.74
9.204962303932103
% es.EX (V/m) @ t=0.74
-5.114659820442695
% es.EY (V/m) @ t=0.74
-0.5520733125526345
% es.EZ (V/m) @ t=0.74
6.848478548663941
% es.tEX (V/m) @ t=0.74
-5.114659820442701
% es.tEY (V/m) @ t=0.74
0
% es.tEZ (V/m) @ t=0.74
6.8484785486639295
% es.Ex (V/m) @ t=0.74
-5.114659820442695
% es.Ey (V/m) @ t=0.74
-0.5520733125526345
% es.Ez (V/m) @ t=0.74
6.848478548663941
% es.tEx (V/m) @ t=0.74
-5.114659820442701
% es.tEy (V/m) @ t=0.74
0
% es.tEz (V/m) @ t=0.74
6.8484785486639295
% V (V) @ t=0.74
0.007559696609690601
% es.normE (V/m) @ t=0.76
9.287100510422423
% es.EX (V/m) @ t=0.76
-5.160298005056651
% es.EY (V/m) @ t=0.76
-0.5570007131856001
% es.EZ (V/m) @ t=0.76
6.909589512943112
% es.tEX (V/m) @ t=0.76
-5.160298005056657
% es.tEY (V/m) @ t=0.76
0
% es.tEZ (V/m) @ t=0.76
6.909589512943105
% es.Ex (V/m) @ t=0.76
-5.160298005056651
% es.Ey (V/m) @ t=0.76
-0.5570007131856001
% es.Ez (V/m) @ t=0.76
6.909589512943112
% es.tEx (V/m) @ t=0.76
-5.160298005056657
% es.tEy (V/m) @ t=0.76
0
% es.tEz (V/m) @ t=0.76
6.909589512943105
% V (V) @ t=0.76
0.007627155948213825
% es.normE (V/m) @ t=0.78
9.369238716913134
% es.EX (V/m) @ t=0.78
-5.205936189670604
% es.EY (V/m) @ t=0.78
-0.5619281138185708
% es.EZ (V/m) @ t=0.78
6.9707004772222705
% es.tEX (V/m) @ t=0.78
-5.20593618967061
% es.tEY (V/m) @ t=0.78
0
% es.tEZ (V/m) @ t=0.78
6.970700477222272
% es.Ex (V/m) @ t=0.78
-5.205936189670604
% es.Ey (V/m) @ t=0.78
-0.5619281138185708
% es.Ez (V/m) @ t=0.78
6.9707004772222705
% es.tEx (V/m) @ t=0.78
-5.20593618967061
% es.tEy (V/m) @ t=0.78
0
% es.tEz (V/m) @ t=0.78
6.970700477222272
% V (V) @ t=0.78
0.007694615286737052
% es.normE (V/m) @ t=0.8
9.451376923404268
% es.EX (V/m) @ t=0.8
-5.251574374284549
% es.EY (V/m) @ t=0.8
-0.5668555144515572
% es.EZ (V/m) @ t=0.8
7.0318114415014445
% es.tEX (V/m) @ t=0.8
-5.251574374284555
% es.tEY (V/m) @ t=0.8
0
% es.tEZ (V/m) @ t=0.8
7.031811441501444
% es.Ex (V/m) @ t=0.8
-5.251574374284549
% es.Ey (V/m) @ t=0.8
-0.5668555144515572
% es.Ez (V/m) @ t=0.8
7.0318114415014445
% es.tEx (V/m) @ t=0.8
-5.251574374284555
% es.tEy (V/m) @ t=0.8
0
% es.tEz (V/m) @ t=0.8
7.031811441501444
% V (V) @ t=0.8
0.007762074625260275
% es.normE (V/m) @ t=0.82
9.53576828985743
% es.EX (V/m) @ t=0.82
-5.298464743976441
% es.EY (V/m) @ t=0.82
-0.5719178349691416
% es.EZ (V/m) @ t=0.82
7.094598703475269
% es.tEX (V/m) @ t=0.82
-5.298464743976444
% es.tEY (V/m) @ t=0.82
0
% es.tEZ (V/m) @ t=0.82
7.094598703475259
% es.Ex (V/m) @ t=0.82
-5.298464743976441
% es.Ey (V/m) @ t=0.82
-0.5719178349691416
% es.Ez (V/m) @ t=0.82
7.094598703475269
% es.tEx (V/m) @ t=0.82
-5.298464743976444
% es.tEy (V/m) @ t=0.82
0
% es.tEz (V/m) @ t=0.82
7.094598703475259
% V (V) @ t=0.82
0.00783138396516488
% es.normE (V/m) @ t=0.84
9.627585300528432
% es.EX (V/m) @ t=0.84
-5.349481887196038
% es.EY (V/m) @ t=0.84
-0.577424805257756
% es.EZ (V/m) @ t=0.84
7.162910469033129
% es.tEX (V/m) @ t=0.84
-5.3494818871960375
% es.tEY (V/m) @ t=0.84
0
% es.tEZ (V/m) @ t=0.84
7.162910469033124
% es.Ex (V/m) @ t=0.84
-5.349481887196038
% es.Ey (V/m) @ t=0.84
-0.577424805257756
% es.Ez (V/m) @ t=0.84
7.162910469033129
% es.tEx (V/m) @ t=0.84
-5.3494818871960375
% es.tEy (V/m) @ t=0.84
0
% es.tEz (V/m) @ t=0.84
7.162910469033124
% V (V) @ t=0.84
0.007906790276564678
% es.normE (V/m) @ t=0.86
9.719402311199442
% es.EX (V/m) @ t=0.86
-5.400499030415625
% es.EY (V/m) @ t=0.86
-0.5829317755464165
% es.EZ (V/m) @ t=0.86
7.231222234590989
% es.tEX (V/m) @ t=0.86
-5.400499030415631
% es.tEY (V/m) @ t=0.86
0
% es.tEZ (V/m) @ t=0.86
7.231222234590987
% es.Ex (V/m) @ t=0.86
-5.400499030415625
% es.Ey (V/m) @ t=0.86
-0.5829317755464165
% es.Ez (V/m) @ t=0.86
7.231222234590989
% es.tEx (V/m) @ t=0.86
-5.400499030415631
% es.tEy (V/m) @ t=0.86
0
% es.tEz (V/m) @ t=0.86
7.231222234590987
% V (V) @ t=0.86
0.007982196587964474
% es.normE (V/m) @ t=0.88
9.811219321870452
% es.EX (V/m) @ t=0.88
-5.451516173635211
% es.EY (V/m) @ t=0.88
-0.5884387458350522
% es.EZ (V/m) @ t=0.88
7.299534000148834
% es.tEX (V/m) @ t=0.88
-5.451516173635228
% es.tEY (V/m) @ t=0.88
0
% es.tEZ (V/m) @ t=0.88
7.299534000148829
% es.Ex (V/m) @ t=0.88
-5.451516173635211
% es.Ey (V/m) @ t=0.88
-0.5884387458350522
% es.Ez (V/m) @ t=0.88
7.299534000148834
% es.tEx (V/m) @ t=0.88
-5.451516173635228
% es.tEy (V/m) @ t=0.88
0
% es.tEz (V/m) @ t=0.88
7.299534000148829
% V (V) @ t=0.88
0.008057602899364273
% es.normE (V/m) @ t=0.9
9.903036332541477
% es.EX (V/m) @ t=0.9
-5.502533316854824
% es.EY (V/m) @ t=0.9
-0.5939457161236805
% es.EZ (V/m) @ t=0.9
7.367845765706693
% es.tEX (V/m) @ t=0.9
-5.50253331685483
% es.tEY (V/m) @ t=0.9
0
% es.tEZ (V/m) @ t=0.9
7.367845765706684
% es.Ex (V/m) @ t=0.9
-5.502533316854824
% es.Ey (V/m) @ t=0.9
-0.5939457161236805
% es.Ez (V/m) @ t=0.9
7.367845765706693
% es.tEx (V/m) @ t=0.9
-5.50253331685483
% es.tEy (V/m) @ t=0.9
0
% es.tEz (V/m) @ t=0.9
7.367845765706684
% V (V) @ t=0.9
0.008133009210764073
% es.normE (V/m) @ t=0.92
9.994853343212522
% es.EX (V/m) @ t=0.92
-5.55355046007441
% es.EY (V/m) @ t=0.92
-0.5994526864123215
% es.EZ (V/m) @ t=0.92
7.436157531264562
% es.tEX (V/m) @ t=0.92
-5.553550460074416
% es.tEY (V/m) @ t=0.92
0
% es.tEZ (V/m) @ t=0.92
7.436157531264554
% es.Ex (V/m) @ t=0.92
-5.55355046007441
% es.Ey (V/m) @ t=0.92
-0.5994526864123215
% es.Ez (V/m) @ t=0.92
7.436157531264562
% es.tEx (V/m) @ t=0.92
-5.553550460074416
% es.tEy (V/m) @ t=0.92
0
% es.tEz (V/m) @ t=0.92
7.436157531264554
% V (V) @ t=0.92
0.00820841552216387
% es.normE (V/m) @ t=0.94
10.086670353883544
% es.EX (V/m) @ t=0.94
-5.604567603293995
% es.EY (V/m) @ t=0.94
-0.6049596567009674
% es.EZ (V/m) @ t=0.94
7.504469296822412
% es.tEX (V/m) @ t=0.94
-5.604567603294004
% es.tEY (V/m) @ t=0.94
0
% es.tEZ (V/m) @ t=0.94
7.5044692968224025
% es.Ex (V/m) @ t=0.94
-5.604567603293995
% es.Ey (V/m) @ t=0.94
-0.6049596567009674
% es.Ez (V/m) @ t=0.94
7.504469296822412
% es.tEx (V/m) @ t=0.94
-5.604567603294004
% es.tEy (V/m) @ t=0.94
0
% es.tEz (V/m) @ t=0.94
7.5044692968224025
% V (V) @ t=0.94
0.008283821833563668
% es.normE (V/m) @ t=0.96
10.178487364554572
% es.EX (V/m) @ t=0.96
-5.655584746513595
% es.EY (V/m) @ t=0.96
-0.6104666269895942
% es.EZ (V/m) @ t=0.96
7.572781062380254
% es.tEX (V/m) @ t=0.96
-5.6555847465136075
% es.tEY (V/m) @ t=0.96
0
% es.tEZ (V/m) @ t=0.96
7.572781062380237
% es.Ex (V/m) @ t=0.96
-5.655584746513595
% es.Ey (V/m) @ t=0.96
-0.6104666269895942
% es.Ez (V/m) @ t=0.96
7.572781062380254
% es.tEx (V/m) @ t=0.96
-5.6555847465136075
% es.tEy (V/m) @ t=0.96
0
% es.tEz (V/m) @ t=0.96
7.572781062380237
% V (V) @ t=0.96
0.008359228144963466
% es.normE (V/m) @ t=0.98
10.270304375225631
% es.EX (V/m) @ t=0.98
-5.706601889733197
% es.EY (V/m) @ t=0.98
-0.6159735972782387
% es.EZ (V/m) @ t=0.98
7.6410928279381105
% es.tEX (V/m) @ t=0.98
-5.706601889733207
% es.tEY (V/m) @ t=0.98
0
% es.tEZ (V/m) @ t=0.98
7.641092827938097
% es.Ex (V/m) @ t=0.98
-5.706601889733197
% es.Ey (V/m) @ t=0.98
-0.6159735972782387
% es.Ez (V/m) @ t=0.98
7.6410928279381105
% es.tEx (V/m) @ t=0.98
-5.706601889733207
% es.tEy (V/m) @ t=0.98
0
% es.tEz (V/m) @ t=0.98
7.641092827938097
% V (V) @ t=0.98
0.008434634456363265
% es.normE (V/m) @ t=1
10.362121385896677
% es.EX (V/m) @ t=1
-5.757619032952784
% es.EY (V/m) @ t=1
-0.6214805675668762
% es.EZ (V/m) @ t=1
7.709404593495966
% es.tEX (V/m) @ t=1
-5.757619032952793
% es.tEY (V/m) @ t=1
0
% es.tEZ (V/m) @ t=1
7.709404593495958
% es.Ex (V/m) @ t=1
-5.757619032952784
% es.Ey (V/m) @ t=1
-0.6214805675668762
% es.Ez (V/m) @ t=1
7.709404593495966
% es.tEx (V/m) @ t=1
-5.757619032952793
% es.tEy (V/m) @ t=1
0
% es.tEz (V/m) @ t=1
7.709404593495958
% V (V) @ t=1
0.008510040767763063
% es.normE (V/m) @ t=1.02
10.453938396567738
% es.EX (V/m) @ t=1.02
-5.808636176172391
% es.EY (V/m) @ t=1.02
-0.6269875378555112
% es.EZ (V/m) @ t=1.02
7.777716359053815
% es.tEX (V/m) @ t=1.02
-5.808636176172401
% es.tEY (V/m) @ t=1.02
0
% es.tEZ (V/m) @ t=1.02
7.7777163590538
% es.Ex (V/m) @ t=1.02
-5.808636176172391
% es.Ey (V/m) @ t=1.02
-0.6269875378555112
% es.Ez (V/m) @ t=1.02
7.777716359053815
% es.tEx (V/m) @ t=1.02
-5.808636176172401
% es.tEy (V/m) @ t=1.02
0
% es.tEz (V/m) @ t=1.02
7.7777163590538
% V (V) @ t=1.02
0.008585447079162862
% es.normE (V/m) @ t=1.04
10.545755407238817
% es.EX (V/m) @ t=1.04
-5.859653319391979
% es.EY (V/m) @ t=1.04
-0.632494508144156
% es.EZ (V/m) @ t=1.04
7.84602812461169
% es.tEX (V/m) @ t=1.04
-5.859653319391981
% es.tEY (V/m) @ t=1.04
0
% es.tEZ (V/m) @ t=1.04
7.846028124611679
% es.Ex (V/m) @ t=1.04
-5.859653319391979
% es.Ey (V/m) @ t=1.04
-0.632494508144156
% es.Ez (V/m) @ t=1.04
7.84602812461169
% es.tEx (V/m) @ t=1.04
-5.859653319391981
% es.tEy (V/m) @ t=1.04
0
% es.tEz (V/m) @ t=1.04
7.846028124611679