% Model:              1 neuron.mph
% Version:            COMSOL 6.0.0.405
% Date:               Mar 16 2023, 09:58
% Dimension:          0
% Nodes:              14017
% Expressions:        14017
% Description:        Electric field norm, Electric field, X component, Electric field, Y component, Electric field, Z component, Tangential electric field, X component, Tangential electric field, Y component, Tangential electric field, Z component, Electric field, x component, Electric field, y component, Electric field, z component, Tangential electric field, x component, Tangential electric field, y component, Tangential electric field, z component, Electric potential
% Length unit:        mm
% x
2
% y
12.2
% z
1.33
% es.normE (V/m) @ t=0
1.3134588223061137
% es.EX (V/m) @ t=0
-1.208090063228374
% es.EY (V/m) @ t=0
0.09423901753042413
% es.EZ (V/m) @ t=0
0.5052448724842036
% es.tEX (V/m) @ t=0
-1.2080900632283686
% es.tEY (V/m) @ t=0
0
% es.tEZ (V/m) @ t=0
0.5052448724842051
% es.Ex (V/m) @ t=0
-1.208090063228374
% es.Ey (V/m) @ t=0
0.09423901753042413
% es.Ez (V/m) @ t=0
0.5052448724842036
% es.tEx (V/m) @ t=0
-1.2080900632283686
% es.tEy (V/m) @ t=0
0
% es.tEz (V/m) @ t=0
0.5052448724842051
% V (V) @ t=0
0.007333309327177636
% es.normE (V/m) @ t=0.02
1.134459987225617
% es.EX (V/m) @ t=0.02
-1.0434509360962827
% es.EY (V/m) @ t=0.02
0.08139607642758923
% es.EZ (V/m) @ t=0.02
0.4363898448389418
% es.tEX (V/m) @ t=0.02
-1.0434509360962752
% es.tEY (V/m) @ t=0.02
0
% es.tEZ (V/m) @ t=0.02
0.43638984483894383
% es.Ex (V/m) @ t=0.02
-1.0434509360962827
% es.Ey (V/m) @ t=0.02
0.08139607642758923
% es.Ez (V/m) @ t=0.02
0.4363898448389418
% es.tEx (V/m) @ t=0.02
-1.0434509360962752
% es.tEy (V/m) @ t=0.02
0
% es.tEz (V/m) @ t=0.02
0.43638984483894383
% V (V) @ t=0.02
0.006333922206652231
% es.normE (V/m) @ t=0.04
1.1448952982412055
% es.EX (V/m) @ t=0.04
-1.053049101835415
% es.EY (V/m) @ t=0.04
0.08214479696059629
% es.EZ (V/m) @ t=0.04
0.4404039695770858
% es.tEX (V/m) @ t=0.04
-1.0530491018354082
% es.tEY (V/m) @ t=0.04
0
% es.tEZ (V/m) @ t=0.04
0.4404039695770834
% es.Ex (V/m) @ t=0.04
-1.053049101835415
% es.Ey (V/m) @ t=0.04
0.08214479696059629
% es.Ez (V/m) @ t=0.04
0.4404039695770858
% es.tEx (V/m) @ t=0.04
-1.0530491018354082
% es.tEy (V/m) @ t=0.04
0
% es.tEz (V/m) @ t=0.04
0.4404039695770834
% V (V) @ t=0.04
0.0063921846775633635
% es.normE (V/m) @ t=0.06
1.1554244649367358
% es.EX (V/m) @ t=0.06
-1.0627335940938245
% es.EY (V/m) @ t=0.06
0.08290025127607797
% es.EZ (V/m) @ t=0.06
0.44445419718017515
% es.tEX (V/m) @ t=0.06
-1.0627335940938192
% es.tEY (V/m) @ t=0.06
0
% es.tEZ (V/m) @ t=0.06
0.44445419718017476
% es.Ex (V/m) @ t=0.06
-1.0627335940938245
% es.Ey (V/m) @ t=0.06
0.08290025127607797
% es.Ez (V/m) @ t=0.06
0.44445419718017515
% es.tEx (V/m) @ t=0.06
-1.0627335940938192
% es.tEy (V/m) @ t=0.06
0
% es.tEz (V/m) @ t=0.06
0.44445419718017476
% V (V) @ t=0.06
0.006450971178590986
% es.normE (V/m) @ t=0.08
1.1661148830750174
% es.EX (V/m) @ t=0.08
-1.0725664012817024
% es.EY (V/m) @ t=0.08
0.08366727597414475
% es.EZ (V/m) @ t=0.08
0.4485664541728213
% es.tEX (V/m) @ t=0.08
-1.072566401281696
% es.tEY (V/m) @ t=0.08
0
% es.tEZ (V/m) @ t=0.08
0.44856645417282337
% es.Ex (V/m) @ t=0.08
-1.0725664012817024
% es.Ey (V/m) @ t=0.08
0.08366727597414475
% es.Ez (V/m) @ t=0.08
0.4485664541728213
% es.tEx (V/m) @ t=0.08
-1.072566401281696
% es.tEy (V/m) @ t=0.08
0
% es.tEz (V/m) @ t=0.08
0.44856645417282337
% V (V) @ t=0.08
0.006510657930807236
% es.normE (V/m) @ t=0.1
1.1769162744933288
% es.EX (V/m) @ t=0.1
-1.0825012788381896
% es.EY (V/m) @ t=0.1
0.08444226341216965
% es.EZ (V/m) @ t=0.1
0.45272139980564347
% es.tEX (V/m) @ t=0.1
-1.0825012788381834
% es.tEY (V/m) @ t=0.1
0
% es.tEZ (V/m) @ t=0.1
0.45272139980564674
% es.Ex (V/m) @ t=0.1
-1.0825012788381896
% es.Ey (V/m) @ t=0.1
0.08444226341216965
% es.Ez (V/m) @ t=0.1
0.45272139980564347
% es.tEx (V/m) @ t=0.1
-1.0825012788381834
% es.tEy (V/m) @ t=0.1
0
% es.tEz (V/m) @ t=0.1
0.45272139980564674
% V (V) @ t=0.1
0.006570964236098741
% es.normE (V/m) @ t=0.12
1.1877176659116433
% es.EX (V/m) @ t=0.12
-1.0924361563946774
% es.EY (V/m) @ t=0.12
0.08521725085020171
% es.EZ (V/m) @ t=0.12
0.45687634543847094
% es.tEX (V/m) @ t=0.12
-1.0924361563946734
% es.tEY (V/m) @ t=0.12
0
% es.tEZ (V/m) @ t=0.12
0.4568763454384701
% es.Ex (V/m) @ t=0.12
-1.0924361563946774
% es.Ey (V/m) @ t=0.12
0.08521725085020171
% es.Ez (V/m) @ t=0.12
0.45687634543847094
% es.tEx (V/m) @ t=0.12
-1.0924361563946734
% es.tEy (V/m) @ t=0.12
0
% es.tEz (V/m) @ t=0.12
0.4568763454384701
% V (V) @ t=0.12
0.006631270541390244
% es.normE (V/m) @ t=0.14
1.1986311656355049
% es.EX (V/m) @ t=0.14
-1.1024741489119707
% es.EY (V/m) @ t=0.14
0.08600028155965678
% es.EZ (V/m) @ t=0.14
0.4610744149384273
% es.tEX (V/m) @ t=0.14
-1.102474148911968
% es.tEY (V/m) @ t=0.14
0
% es.tEZ (V/m) @ t=0.14
0.4610744149384267
% es.Ex (V/m) @ t=0.14
-1.1024741489119707
% es.Ey (V/m) @ t=0.14
0.08600028155965678
% es.Ez (V/m) @ t=0.14
0.4610744149384273
% es.tEx (V/m) @ t=0.14
-1.102474148911968
% es.tEy (V/m) @ t=0.14
0
% es.tEz (V/m) @ t=0.14
0.4610744149384267
% V (V) @ t=0.14
0.00669220279238561
% es.normE (V/m) @ t=0.16
1.2100085117293506
% es.EX (V/m) @ t=0.16
-1.1129387779752817
% es.EY (V/m) @ t=0.16
0.08681659117942053
% es.EZ (V/m) @ t=0.16
0.46545090876775663
% es.tEX (V/m) @ t=0.16
-1.1129387779752777
% es.tEY (V/m) @ t=0.16
0
% es.tEZ (V/m) @ t=0.16
0.46545090876775674
% es.Ex (V/m) @ t=0.16
-1.1129387779752817
% es.Ey (V/m) @ t=0.16
0.08681659117942053
% es.Ez (V/m) @ t=0.16
0.46545090876775663
% es.tEx (V/m) @ t=0.16
-1.1129387779752777
% es.tEy (V/m) @ t=0.16
0
% es.tEz (V/m) @ t=0.16
0.46545090876775674
% V (V) @ t=0.16
0.006755724883991891
% es.normE (V/m) @ t=0.18
1.2213858578232013
% es.EX (V/m) @ t=0.18
-1.1234034070386003
% es.EY (V/m) @ t=0.18
0.08763290079918507
% es.EZ (V/m) @ t=0.18
0.46982740259707895
% es.tEX (V/m) @ t=0.18
-1.1234034070385963
% es.tEY (V/m) @ t=0.18
0
% es.tEZ (V/m) @ t=0.18
0.46982740259707967
% es.Ex (V/m) @ t=0.18
-1.1234034070386003
% es.Ey (V/m) @ t=0.18
0.08763290079918507
% es.Ez (V/m) @ t=0.18
0.46982740259707895
% es.tEx (V/m) @ t=0.18
-1.1234034070385963
% es.tEy (V/m) @ t=0.18
0
% es.tEz (V/m) @ t=0.18
0.46982740259707967
% V (V) @ t=0.18
0.006819246975598174
% es.normE (V/m) @ t=0.2
1.2327632039170546
% es.EX (V/m) @ t=0.2
-1.1338680361019167
% es.EY (V/m) @ t=0.2
0.08844921041896558
% es.EZ (V/m) @ t=0.2
0.47420389642641275
% es.tEX (V/m) @ t=0.2
-1.1338680361019096
% es.tEY (V/m) @ t=0.2
0
% es.tEZ (V/m) @ t=0.2
0.4742038964264097
% es.Ex (V/m) @ t=0.2
-1.1338680361019167
% es.Ey (V/m) @ t=0.2
0.08844921041896558
% es.Ez (V/m) @ t=0.2
0.47420389642641275
% es.tEx (V/m) @ t=0.2
-1.1338680361019096
% es.tEy (V/m) @ t=0.2
0
% es.tEz (V/m) @ t=0.2
0.4742038964264097
% V (V) @ t=0.2
0.006882769067204456
% es.normE (V/m) @ t=0.22
1.2441405500108917
% es.EX (V/m) @ t=0.22
-1.1443326651652233
% es.EY (V/m) @ t=0.22
0.0892655200387284
% es.EZ (V/m) @ t=0.22
0.4785803902557288
% es.tEX (V/m) @ t=0.22
-1.1443326651652201
% es.tEY (V/m) @ t=0.22
0
% es.tEZ (V/m) @ t=0.22
0.4785803902557255
% es.Ex (V/m) @ t=0.22
-1.1443326651652233
% es.Ey (V/m) @ t=0.22
0.0892655200387284
% es.Ez (V/m) @ t=0.22
0.4785803902557288
% es.tEx (V/m) @ t=0.22
-1.1443326651652201
% es.tEy (V/m) @ t=0.22
0
% es.tEz (V/m) @ t=0.22
0.4785803902557255
% V (V) @ t=0.22
0.006946291158810738
% es.normE (V/m) @ t=0.24
1.255517896104744
% es.EX (V/m) @ t=0.24
-1.1547972942285414
% es.EY (V/m) @ t=0.24
0.09008182965850714
% es.EZ (V/m) @ t=0.24
0.4829568840850556
% es.tEX (V/m) @ t=0.24
-1.1547972942285352
% es.tEY (V/m) @ t=0.24
0
% es.tEZ (V/m) @ t=0.24
0.482956884085052
% es.Ex (V/m) @ t=0.24
-1.1547972942285414
% es.Ey (V/m) @ t=0.24
0.09008182965850714
% es.Ez (V/m) @ t=0.24
0.4829568840850556
% es.tEx (V/m) @ t=0.24
-1.1547972942285352
% es.tEy (V/m) @ t=0.24
0
% es.tEz (V/m) @ t=0.24
0.482956884085052
% V (V) @ t=0.24
0.00700981325041702
% es.normE (V/m) @ t=0.26
1.2668952421985868
% es.EX (V/m) @ t=0.26
-1.165261923291851
% es.EY (V/m) @ t=0.26
0.09089813927828067
% es.EZ (V/m) @ t=0.26
0.48733337791437875
% es.tEX (V/m) @ t=0.26
-1.1652619232918484
% es.tEY (V/m) @ t=0.26
0
% es.tEZ (V/m) @ t=0.26
0.4873333779143785
% es.Ex (V/m) @ t=0.26
-1.165261923291851
% es.Ey (V/m) @ t=0.26
0.09089813927828067
% es.Ez (V/m) @ t=0.26
0.48733337791437875
% es.tEx (V/m) @ t=0.26
-1.1652619232918484
% es.tEy (V/m) @ t=0.26
0
% es.tEz (V/m) @ t=0.26
0.4873333779143785
% V (V) @ t=0.26
0.007073335342023302
% es.normE (V/m) @ t=0.28
1.2787897779568413
% es.EX (V/m) @ t=0.28
-1.1762022495527926
% es.EY (V/m) @ t=0.28
0.09175155886459041
% es.EZ (V/m) @ t=0.28
0.49190882301585687
% es.tEX (V/m) @ t=0.28
-1.1762022495527837
% es.tEY (V/m) @ t=0.28
0
% es.tEZ (V/m) @ t=0.28
0.49190882301585503
% es.Ex (V/m) @ t=0.28
-1.1762022495527926
% es.Ey (V/m) @ t=0.28
0.09175155886459041
% es.Ez (V/m) @ t=0.28
0.49190882301585687
% es.tEx (V/m) @ t=0.28
-1.1762022495527837
% es.tEy (V/m) @ t=0.28
0
% es.tEz (V/m) @ t=0.28
0.49190882301585503
% V (V) @ t=0.28
0.007139744824562458
% es.normE (V/m) @ t=0.3
1.291462527808966
% es.EX (V/m) @ t=0.3
-1.1878583562886376
% es.EY (V/m) @ t=0.3
0.09266081773188978
% es.EZ (V/m) @ t=0.3
0.49678362963718964
% es.tEX (V/m) @ t=0.3
-1.18785835628863
% es.tEY (V/m) @ t=0.3
0
% es.tEZ (V/m) @ t=0.3
0.4967836296371857
% es.Ex (V/m) @ t=0.3
-1.1878583562886376
% es.Ey (V/m) @ t=0.3
0.09266081773188978
% es.Ez (V/m) @ t=0.3
0.49678362963718964
% es.tEx (V/m) @ t=0.3
-1.18785835628863
% es.tEy (V/m) @ t=0.3
0
% es.tEz (V/m) @ t=0.3
0.4967836296371857
% V (V) @ t=0.3
0.007210498957571469
% es.normE (V/m) @ t=0.32
1.30413527766108
% es.EX (V/m) @ t=0.32
-1.199514463024478
% es.EY (V/m) @ t=0.32
0.0935700765991741
% es.EZ (V/m) @ t=0.32
0.5016584362585081
% es.tEX (V/m) @ t=0.32
-1.19951446302447
% es.tEY (V/m) @ t=0.32
0
% es.tEZ (V/m) @ t=0.32
0.5016584362585057
% es.Ex (V/m) @ t=0.32
-1.199514463024478
% es.Ey (V/m) @ t=0.32
0.0935700765991741
% es.Ez (V/m) @ t=0.32
0.5016584362585081
% es.tEx (V/m) @ t=0.32
-1.19951446302447
% es.tEy (V/m) @ t=0.32
0
% es.tEz (V/m) @ t=0.32
0.5016584362585057
% V (V) @ t=0.32
0.00728125309058048
% es.normE (V/m) @ t=0.34
1.316808027513197
% es.EX (V/m) @ t=0.34
-1.211170569760319
% es.EY (V/m) @ t=0.34
0.09447933546647347
% es.EZ (V/m) @ t=0.34
0.5065332428798321
% es.tEX (V/m) @ t=0.34
-1.2111705697603137
% es.tEY (V/m) @ t=0.34
0
% es.tEZ (V/m) @ t=0.34
0.5065332428798328
% es.Ex (V/m) @ t=0.34
-1.211170569760319
% es.Ey (V/m) @ t=0.34
0.09447933546647347
% es.Ez (V/m) @ t=0.34
0.5065332428798321
% es.tEx (V/m) @ t=0.34
-1.2111705697603137
% es.tEy (V/m) @ t=0.34
0
% es.tEz (V/m) @ t=0.34
0.5065332428798328
% V (V) @ t=0.34
0.007352007223589491
% es.normE (V/m) @ t=0.36
1.329480777365322
% es.EX (V/m) @ t=0.36
-1.222826676496167
% es.EY (V/m) @ t=0.36
0.09538859433376035
% es.EZ (V/m) @ t=0.36
0.5114080495011597
% es.tEX (V/m) @ t=0.36
-1.2228266764961608
% es.tEY (V/m) @ t=0.36
0
% es.tEZ (V/m) @ t=0.36
0.5114080495011599
% es.Ex (V/m) @ t=0.36
-1.222826676496167
% es.Ey (V/m) @ t=0.36
0.09538859433376035
% es.Ez (V/m) @ t=0.36
0.5114080495011597
% es.tEx (V/m) @ t=0.36
-1.2228266764961608
% es.tEy (V/m) @ t=0.36
0
% es.tEz (V/m) @ t=0.36
0.5114080495011599
% V (V) @ t=0.36
0.007422761356598502
% es.normE (V/m) @ t=0.38
1.3421535272174352
% es.EX (V/m) @ t=0.38
-1.234482783232004
% es.EY (V/m) @ t=0.38
0.0962978532010465
% es.EZ (V/m) @ t=0.38
0.5162828561224835
% es.tEX (V/m) @ t=0.38
-1.2344827832319965
% es.tEY (V/m) @ t=0.38
0
% es.tEZ (V/m) @ t=0.38
0.5162828561224799
% es.Ex (V/m) @ t=0.38
-1.234482783232004
% es.Ey (V/m) @ t=0.38
0.0962978532010465
% es.Ez (V/m) @ t=0.38
0.5162828561224835
% es.tEx (V/m) @ t=0.38
-1.2344827832319965
% es.tEy (V/m) @ t=0.38
0
% es.tEz (V/m) @ t=0.38
0.5162828561224799
% V (V) @ t=0.38
0.007493515489607513
% es.normE (V/m) @ t=0.4
1.354826277069566
% es.EX (V/m) @ t=0.4
-1.2461388899678556
% es.EY (V/m) @ t=0.4
0.0972071120683432
% es.EZ (V/m) @ t=0.4
0.5211576627438144
% es.tEX (V/m) @ t=0.4
-1.2461388899678507
% es.tEY (V/m) @ t=0.4
0
% es.tEZ (V/m) @ t=0.4
0.5211576627438141
% es.Ex (V/m) @ t=0.4
-1.2461388899678556
% es.Ey (V/m) @ t=0.4
0.0972071120683432
% es.Ez (V/m) @ t=0.4
0.5211576627438144
% es.tEx (V/m) @ t=0.4
-1.2461388899678507
% es.tEy (V/m) @ t=0.4
0
% es.tEz (V/m) @ t=0.4
0.5211576627438141
% V (V) @ t=0.4
0.0075642696226165245
% es.normE (V/m) @ t=0.42
1.367499026921676
% es.EX (V/m) @ t=0.42
-1.2577949967036925
% es.EY (V/m) @ t=0.42
0.09811637093563197
% es.EZ (V/m) @ t=0.42
0.5260324693651286
% es.tEX (V/m) @ t=0.42
-1.257794996703688
% es.tEY (V/m) @ t=0.42
0
% es.tEZ (V/m) @ t=0.42
0.5260324693651306
% es.Ex (V/m) @ t=0.42
-1.2577949967036925
% es.Ey (V/m) @ t=0.42
0.09811637093563197
% es.Ez (V/m) @ t=0.42
0.5260324693651286
% es.tEx (V/m) @ t=0.42
-1.257794996703688
% es.tEy (V/m) @ t=0.42
0
% es.tEz (V/m) @ t=0.42
0.5260324693651306
% V (V) @ t=0.42
0.007635023755625534
% es.normE (V/m) @ t=0.44
1.380171776773794
% es.EX (V/m) @ t=0.44
-1.2694511034395353
% es.EY (V/m) @ t=0.44
0.09902562980292517
% es.EZ (V/m) @ t=0.44
0.5309072759864488
% es.tEX (V/m) @ t=0.44
-1.2694511034395308
% es.tEY (V/m) @ t=0.44
0
% es.tEZ (V/m) @ t=0.44
0.5309072759864506
% es.Ex (V/m) @ t=0.44
-1.2694511034395353
% es.Ey (V/m) @ t=0.44
0.09902562980292517
% es.Ez (V/m) @ t=0.44
0.5309072759864488
% es.tEx (V/m) @ t=0.44
-1.2694511034395308
% es.tEy (V/m) @ t=0.44
0
% es.tEz (V/m) @ t=0.44
0.5309072759864506
% V (V) @ t=0.44
0.0077057778886345475
% es.normE (V/m) @ t=0.46
1.392844526625924
% es.EX (V/m) @ t=0.46
-1.2811072101753873
% es.EY (V/m) @ t=0.46
0.0999348886702236
% es.EZ (V/m) @ t=0.46
0.5357820826077764
% es.tEX (V/m) @ t=0.46
-1.2811072101753753
% es.tEY (V/m) @ t=0.46
0
% es.tEZ (V/m) @ t=0.46
0.5357820826077742
% es.Ex (V/m) @ t=0.46
-1.2811072101753873
% es.Ey (V/m) @ t=0.46
0.0999348886702236
% es.Ez (V/m) @ t=0.46
0.5357820826077764
% es.tEx (V/m) @ t=0.46
-1.2811072101753753
% es.tEy (V/m) @ t=0.46
0
% es.tEz (V/m) @ t=0.46
0.5357820826077742
% V (V) @ t=0.46
0.007776532021643558
% es.normE (V/m) @ t=0.48
1.4055172764780461
% es.EX (V/m) @ t=0.48
-1.2927633169112296
% es.EY (V/m) @ t=0.48
0.10084414753751236
% es.EZ (V/m) @ t=0.48
0.5406568892291075
% es.tEX (V/m) @ t=0.48
-1.2927633169112251
% es.tEY (V/m) @ t=0.48
0
% es.tEZ (V/m) @ t=0.48
0.5406568892291048
% es.Ex (V/m) @ t=0.48
-1.2927633169112296
% es.Ey (V/m) @ t=0.48
0.10084414753751236
% es.Ez (V/m) @ t=0.48
0.5406568892291075
% es.tEx (V/m) @ t=0.48
-1.2927633169112251
% es.tEy (V/m) @ t=0.48
0
% es.tEz (V/m) @ t=0.48
0.5406568892291048
% V (V) @ t=0.48
0.007847286154652569
% es.normE (V/m) @ t=0.5
1.418190026330168
% es.EX (V/m) @ t=0.5
-1.3044194236470754
% es.EY (V/m) @ t=0.5
0.10175340640479574
% es.EZ (V/m) @ t=0.5
0.5455316958504304
% es.tEX (V/m) @ t=0.5
-1.3044194236470688
% es.tEY (V/m) @ t=0.5
0
% es.tEZ (V/m) @ t=0.5
0.5455316958504319
% es.Ex (V/m) @ t=0.5
-1.3044194236470754
% es.Ey (V/m) @ t=0.5
0.10175340640479574
% es.Ez (V/m) @ t=0.5
0.5455316958504304
% es.tEx (V/m) @ t=0.5
-1.3044194236470688
% es.tEy (V/m) @ t=0.5
0
% es.tEz (V/m) @ t=0.5
0.5455316958504319
% V (V) @ t=0.5
0.00791804028766158
% es.normE (V/m) @ t=0.52
1.4308627761822779
% es.EX (V/m) @ t=0.52
-1.3160755303829106
% es.EY (V/m) @ t=0.52
0.10266266527208628
% es.EZ (V/m) @ t=0.52
0.5504065024717453
% es.tEX (V/m) @ t=0.52
-1.3160755303829061
% es.tEY (V/m) @ t=0.52
0
% es.tEZ (V/m) @ t=0.52
0.5504065024717448
% es.Ex (V/m) @ t=0.52
-1.3160755303829106
% es.Ey (V/m) @ t=0.52
0.10266266527208628
% es.Ez (V/m) @ t=0.52
0.5504065024717453
% es.tEx (V/m) @ t=0.52
-1.3160755303829061
% es.tEy (V/m) @ t=0.52
0
% es.tEz (V/m) @ t=0.52
0.5504065024717448
% V (V) @ t=0.52
0.007988794420670589
% es.normE (V/m) @ t=0.54
1.4435355260344034
% es.EX (V/m) @ t=0.54
-1.3277316371187573
% es.EY (V/m) @ t=0.54
0.10357192413938204
% es.EZ (V/m) @ t=0.54
0.5552813090930747
% es.tEX (V/m) @ t=0.54
-1.3277316371187533
% es.tEY (V/m) @ t=0.54
0
% es.tEZ (V/m) @ t=0.54
0.5552813090930755
% es.Ex (V/m) @ t=0.54
-1.3277316371187573
% es.Ey (V/m) @ t=0.54
0.10357192413938204
% es.Ez (V/m) @ t=0.54
0.5552813090930747
% es.tEx (V/m) @ t=0.54
-1.3277316371187533
% es.tEy (V/m) @ t=0.54
0
% es.tEz (V/m) @ t=0.54
0.5552813090930755
% V (V) @ t=0.54
0.008059548553679602
% es.normE (V/m) @ t=0.56
1.4573953491853657
% es.EX (V/m) @ t=0.56
-1.3404795910055882
% es.EY (V/m) @ t=0.56
0.1045663505322883
% es.EZ (V/m) @ t=0.56
0.5606127358037252
% es.tEX (V/m) @ t=0.56
-1.3404795910055816
% es.tEY (V/m) @ t=0.56
0
% es.tEZ (V/m) @ t=0.56
0.5606127358037192
% es.Ex (V/m) @ t=0.56
-1.3404795910055882
% es.Ey (V/m) @ t=0.56
0.1045663505322883
% es.Ez (V/m) @ t=0.56
0.5606127358037252
% es.tEx (V/m) @ t=0.56
-1.3404795910055816
% es.tEy (V/m) @ t=0.56
0
% es.tEz (V/m) @ t=0.56
0.5606127358037192
% V (V) @ t=0.56
0.008136930652853602
% es.normE (V/m) @ t=0.58
1.4715364245812101
% es.EX (V/m) @ t=0.58
-1.35348623528887
% es.EY (V/m) @ t=0.58
0.10558095559300379
% es.EZ (V/m) @ t=0.58
0.5660523491152245
% es.tEX (V/m) @ t=0.58
-1.3534862352888641
% es.tEY (V/m) @ t=0.58
0
% es.tEZ (V/m) @ t=0.58
0.5660523491152212
% es.Ex (V/m) @ t=0.58
-1.35348623528887
% es.Ey (V/m) @ t=0.58
0.10558095559300379
% es.Ez (V/m) @ t=0.58
0.5660523491152245
% es.tEx (V/m) @ t=0.58
-1.3534862352888641
% es.tEy (V/m) @ t=0.58
0
% es.tEz (V/m) @ t=0.58
0.5660523491152212
% V (V) @ t=0.58
0.008215883110290133
% es.normE (V/m) @ t=0.6
1.4856774999770765
% es.EX (V/m) @ t=0.6
-1.3664928795721625
% es.EY (V/m) @ t=0.6
0.10659556065373704
% es.EZ (V/m) @ t=0.6
0.5714919624267514
% es.tEX (V/m) @ t=0.6
-1.366492879572153
% es.tEY (V/m) @ t=0.6
0
% es.tEZ (V/m) @ t=0.6
0.571491962426748
% es.Ex (V/m) @ t=0.6
-1.3664928795721625
% es.Ey (V/m) @ t=0.6
0.10659556065373704
% es.Ez (V/m) @ t=0.6
0.5714919624267514
% es.tEx (V/m) @ t=0.6
-1.366492879572153
% es.tEy (V/m) @ t=0.6
0
% es.tEz (V/m) @ t=0.6
0.571491962426748
% V (V) @ t=0.6
0.008294835567726666
% es.normE (V/m) @ t=0.62
1.4998185753729394
% es.EX (V/m) @ t=0.62
-1.3794995238554537
% es.EY (V/m) @ t=0.62
0.10761016571445436
% es.EZ (V/m) @ t=0.62
0.5769315757382765
% es.tEX (V/m) @ t=0.62
-1.3794995238554506
% es.tEY (V/m) @ t=0.62
0
% es.tEZ (V/m) @ t=0.62
0.5769315757382785
% es.Ex (V/m) @ t=0.62
-1.3794995238554537
% es.Ey (V/m) @ t=0.62
0.10761016571445436
% es.Ez (V/m) @ t=0.62
0.5769315757382765
% es.tEx (V/m) @ t=0.62
-1.3794995238554506
% es.tEy (V/m) @ t=0.62
0
% es.tEz (V/m) @ t=0.62
0.5769315757382785
% V (V) @ t=0.62
0.008373788025163201
% es.normE (V/m) @ t=0.64
1.5139596507688016
% es.EX (V/m) @ t=0.64
-1.392506168138747
% es.EY (V/m) @ t=0.64
0.10862477077517518
% es.EZ (V/m) @ t=0.64
0.5823711890497936
% es.tEX (V/m) @ t=0.64
-1.392506168138743
% es.tEY (V/m) @ t=0.64
0
% es.tEZ (V/m) @ t=0.64
0.5823711890497947
% es.Ex (V/m) @ t=0.64
-1.392506168138747
% es.Ey (V/m) @ t=0.64
0.10862477077517518
% es.Ez (V/m) @ t=0.64
0.5823711890497936
% es.tEx (V/m) @ t=0.64
-1.392506168138743
% es.tEy (V/m) @ t=0.64
0
% es.tEz (V/m) @ t=0.64
0.5823711890497947
% V (V) @ t=0.64
0.008452740482599733
% es.normE (V/m) @ t=0.66
1.5281007261646606
% es.EX (V/m) @ t=0.66
-1.4055128124220369
% es.EY (V/m) @ t=0.66
0.10963937583589956
% es.EZ (V/m) @ t=0.66
0.5878108023613107
% es.tEX (V/m) @ t=0.66
-1.40551281242203
% es.tEY (V/m) @ t=0.66
0
% es.tEZ (V/m) @ t=0.66
0.5878108023613144
% es.Ex (V/m) @ t=0.66
-1.4055128124220369
% es.Ey (V/m) @ t=0.66
0.10963937583589956
% es.Ez (V/m) @ t=0.66
0.5878108023613107
% es.tEx (V/m) @ t=0.66
-1.40551281242203
% es.tEy (V/m) @ t=0.66
0
% es.tEz (V/m) @ t=0.66
0.5878108023613144
% V (V) @ t=0.66
0.008531692940036268
% es.normE (V/m) @ t=0.68
1.5422418015605182
% es.EX (V/m) @ t=0.68
-1.4185194567053283
% es.EY (V/m) @ t=0.68
0.11065398089660794
% es.EZ (V/m) @ t=0.68
0.5932504156728224
% es.tEX (V/m) @ t=0.68
-1.4185194567053205
% es.tEY (V/m) @ t=0.68
0
% es.tEZ (V/m) @ t=0.68
0.5932504156728236
% es.Ex (V/m) @ t=0.68
-1.4185194567053283
% es.Ey (V/m) @ t=0.68
0.11065398089660794
% es.Ez (V/m) @ t=0.68
0.5932504156728224
% es.tEx (V/m) @ t=0.68
-1.4185194567053205
% es.tEy (V/m) @ t=0.68
0
% es.tEz (V/m) @ t=0.68
0.5932504156728236
% V (V) @ t=0.68
0.0086106453974728
% es.normE (V/m) @ t=0.7
1.556382876956381
% es.EX (V/m) @ t=0.7
-1.4315261009886182
% es.EY (V/m) @ t=0.7
0.1116685859573413
% es.EZ (V/m) @ t=0.7
0.5986900289843464
% es.tEX (V/m) @ t=0.7
-1.4315261009886129
% es.tEY (V/m) @ t=0.7
0
% es.tEZ (V/m) @ t=0.7
0.5986900289843504
% es.Ex (V/m) @ t=0.7
-1.4315261009886182
% es.Ey (V/m) @ t=0.7
0.1116685859573413
% es.Ez (V/m) @ t=0.7
0.5986900289843464
% es.tEx (V/m) @ t=0.7
-1.4315261009886129
% es.tEy (V/m) @ t=0.7
0
% es.tEz (V/m) @ t=0.7
0.5986900289843504
% V (V) @ t=0.7
0.008689597854909335
% es.normE (V/m) @ t=0.72
1.5705239523522403
% es.EX (V/m) @ t=0.72
-1.444532745271907
% es.EY (V/m) @ t=0.72
0.11268319101806912
% es.EZ (V/m) @ t=0.72
0.6041296422958654
% es.tEX (V/m) @ t=0.72
-1.4445327452719
% es.tEY (V/m) @ t=0.72
0
% es.tEZ (V/m) @ t=0.72
0.6041296422958666
% es.Ex (V/m) @ t=0.72
-1.444532745271907
% es.Ey (V/m) @ t=0.72
0.11268319101806912
% es.Ez (V/m) @ t=0.72
0.6041296422958654
% es.tEx (V/m) @ t=0.72
-1.4445327452719
% es.tEy (V/m) @ t=0.72
0
% es.tEz (V/m) @ t=0.72
0.6041296422958666
% V (V) @ t=0.72
0.008768550312345864
% es.normE (V/m) @ t=0.74
1.5846650277481005
% es.EX (V/m) @ t=0.74
-1.4575393895551951
% es.EY (V/m) @ t=0.74
0.11369779607878117
% es.EZ (V/m) @ t=0.74
0.6095692556073913
% es.tEX (V/m) @ t=0.74
-1.4575393895551958
% es.tEY (V/m) @ t=0.74
0
% es.tEZ (V/m) @ t=0.74
0.60956925560739
% es.Ex (V/m) @ t=0.74
-1.4575393895551951
% es.Ey (V/m) @ t=0.74
0.11369779607878117
% es.Ez (V/m) @ t=0.74
0.6095692556073913
% es.tEx (V/m) @ t=0.74
-1.4575393895551958
% es.tEy (V/m) @ t=0.74
0
% es.tEz (V/m) @ t=0.74
0.60956925560739
% V (V) @ t=0.74
0.008847502769782398
% es.normE (V/m) @ t=0.76
1.5988061031439584
% es.EX (V/m) @ t=0.76
-1.4705460338384861
% es.EY (V/m) @ t=0.76
0.11471240113950554
% es.EZ (V/m) @ t=0.76
0.6150088689189013
% es.tEX (V/m) @ t=0.76
-1.4705460338384757
% es.tEY (V/m) @ t=0.76
0
% es.tEZ (V/m) @ t=0.76
0.615008868918899
% es.Ex (V/m) @ t=0.76
-1.4705460338384861
% es.Ey (V/m) @ t=0.76
0.11471240113950554
% es.Ez (V/m) @ t=0.76
0.6150088689189013
% es.tEx (V/m) @ t=0.76
-1.4705460338384757
% es.tEy (V/m) @ t=0.76
0
% es.tEz (V/m) @ t=0.76
0.615008868918899
% V (V) @ t=0.76
0.008926455227218931
% es.normE (V/m) @ t=0.78
1.612947178539817
% es.EX (V/m) @ t=0.78
-1.483552678121777
% es.EY (V/m) @ t=0.78
0.11572700620021759
% es.EZ (V/m) @ t=0.78
0.6204484822304182
% es.tEX (V/m) @ t=0.78
-1.4835526781217716
% es.tEY (V/m) @ t=0.78
0
% es.tEZ (V/m) @ t=0.78
0.6204484822304153
% es.Ex (V/m) @ t=0.78
-1.483552678121777
% es.Ey (V/m) @ t=0.78
0.11572700620021759
% es.Ez (V/m) @ t=0.78
0.6204484822304182
% es.tEx (V/m) @ t=0.78
-1.4835526781217716
% es.tEy (V/m) @ t=0.78
0
% es.tEz (V/m) @ t=0.78
0.6204484822304153
% V (V) @ t=0.78
0.009005407684655466
% es.normE (V/m) @ t=0.8
1.6270882539356875
% es.EX (V/m) @ t=0.8
-1.4965593224050724
% es.EY (V/m) @ t=0.8
0.11674161126094906
% es.EZ (V/m) @ t=0.8
0.6258880955419495
% es.tEX (V/m) @ t=0.8
-1.4965593224050622
% es.tEY (V/m) @ t=0.8
0
% es.tEZ (V/m) @ t=0.8
0.6258880955419492
% es.Ex (V/m) @ t=0.8
-1.4965593224050724
% es.Ey (V/m) @ t=0.8
0.11674161126094906
% es.Ez (V/m) @ t=0.8
0.6258880955419495
% es.tEx (V/m) @ t=0.8
-1.4965593224050622
% es.tEy (V/m) @ t=0.8
0
% es.tEz (V/m) @ t=0.8
0.6258880955419492
% V (V) @ t=0.8
0.009084360142092001
% es.normE (V/m) @ t=0.82
1.641592205000419
% es.EX (V/m) @ t=0.82
-1.509899731741198
% es.EY (V/m) @ t=0.82
0.11778225207463444
% es.EZ (V/m) @ t=0.82
0.6314672950318414
% es.tEX (V/m) @ t=0.82
-1.5098997317411893
% es.tEY (V/m) @ t=0.82
0
% es.tEZ (V/m) @ t=0.82
0.6314672950318432
% es.Ex (V/m) @ t=0.82
-1.509899731741198
% es.Ey (V/m) @ t=0.82
0.11778225207463444
% es.Ez (V/m) @ t=0.82
0.6314672950318414
% es.tEx (V/m) @ t=0.82
-1.5098997317411893
% es.tEy (V/m) @ t=0.82
0
% es.tEz (V/m) @ t=0.82
0.6314672950318432
% V (V) @ t=0.82
0.009165338618578822
% es.normE (V/m) @ t=0.84
1.6574004652407863
% es.EX (V/m) @ t=0.84
-1.524439815947432
% es.EY (V/m) @ t=0.84
0.1189164750003035
% es.EZ (V/m) @ t=0.84
0.6375482188005024
% es.tEX (V/m) @ t=0.84
-1.5244398159474244
% es.tEY (V/m) @ t=0.84
0
% es.tEZ (V/m) @ t=0.84
0.6375482188005002
% es.Ex (V/m) @ t=0.84
-1.524439815947432
% es.Ey (V/m) @ t=0.84
0.1189164750003035
% es.Ez (V/m) @ t=0.84
0.6375482188005024
% es.tEx (V/m) @ t=0.84
-1.5244398159474244
% es.tEy (V/m) @ t=0.84
0
% es.tEz (V/m) @ t=0.84
0.6375482188005002
% V (V) @ t=0.84
0.009253599355806611
% es.normE (V/m) @ t=0.86
1.6732087254811598
% es.EX (V/m) @ t=0.86
-1.5389799001536701
% es.EY (V/m) @ t=0.86
0.12005069792597078
% es.EZ (V/m) @ t=0.86
0.6436291425691703
% es.tEX (V/m) @ t=0.86
-1.538979900153663
% es.tEY (V/m) @ t=0.86
0
% es.tEZ (V/m) @ t=0.86
0.6436291425691749
% es.Ex (V/m) @ t=0.86
-1.5389799001536701
% es.Ey (V/m) @ t=0.86
0.12005069792597078
% es.Ez (V/m) @ t=0.86
0.6436291425691703
% es.tEx (V/m) @ t=0.86
-1.538979900153663
% es.tEy (V/m) @ t=0.86
0
% es.tEz (V/m) @ t=0.86
0.6436291425691749
% V (V) @ t=0.86
0.009341860093034404
% es.normE (V/m) @ t=0.88
1.6890169857215473
% es.EX (V/m) @ t=0.88
-1.5535199843599188
% es.EY (V/m) @ t=0.88
0.12118492085164173
% es.EZ (V/m) @ t=0.88
0.6497100663378488
% es.tEX (V/m) @ t=0.88
-1.5535199843599141
% es.tEY (V/m) @ t=0.88
0
% es.tEZ (V/m) @ t=0.88
0.6497100663378497
% es.Ex (V/m) @ t=0.88
-1.5535199843599188
% es.Ey (V/m) @ t=0.88
0.12118492085164173
% es.Ez (V/m) @ t=0.88
0.6497100663378488
% es.tEx (V/m) @ t=0.88
-1.5535199843599141
% es.tEy (V/m) @ t=0.88
0
% es.tEz (V/m) @ t=0.88
0.6497100663378497
% V (V) @ t=0.88
0.009430120830262194
% es.normE (V/m) @ t=0.9
1.7048252459619182
% es.EX (V/m) @ t=0.9
-1.5680600685661552
% es.EY (V/m) @ t=0.9
0.12231914377731967
% es.EZ (V/m) @ t=0.9
0.6557909901065114
% es.tEX (V/m) @ t=0.9
-1.568060068566151
% es.tEY (V/m) @ t=0.9
0
% es.tEZ (V/m) @ t=0.9
0.6557909901065102
% es.Ex (V/m) @ t=0.9
-1.5680600685661552
% es.Ey (V/m) @ t=0.9
0.12231914377731967
% es.Ez (V/m) @ t=0.9
0.6557909901065114
% es.tEx (V/m) @ t=0.9
-1.568060068566151
% es.tEy (V/m) @ t=0.9
0
% es.tEz (V/m) @ t=0.9
0.6557909901065102
% V (V) @ t=0.9
0.009518381567489985
% es.normE (V/m) @ t=0.92
1.7206335062022953
% es.EX (V/m) @ t=0.92
-1.5826001527723952
% es.EY (V/m) @ t=0.92
0.12345336670299939
% es.EZ (V/m) @ t=0.92
0.661871913875183
% es.tEX (V/m) @ t=0.92
-1.5826001527723914
% es.tEY (V/m) @ t=0.92
0
% es.tEZ (V/m) @ t=0.92
0.661871913875185
% es.Ex (V/m) @ t=0.92
-1.5826001527723952
% es.Ey (V/m) @ t=0.92
0.12345336670299939
% es.Ez (V/m) @ t=0.92
0.661871913875183
% es.tEx (V/m) @ t=0.92
-1.5826001527723914
% es.tEy (V/m) @ t=0.92
0
% es.tEz (V/m) @ t=0.92
0.661871913875185
% V (V) @ t=0.92
0.009606642304717777
% es.normE (V/m) @ t=0.94
1.736441766442684
% es.EX (V/m) @ t=0.94
-1.5971402369786474
% es.EY (V/m) @ t=0.94
0.12458758962866318
% es.EZ (V/m) @ t=0.94
0.6679528376438562
% es.tEX (V/m) @ t=0.94
-1.5971402369786354
% es.tEY (V/m) @ t=0.94
0
% es.tEZ (V/m) @ t=0.94
0.6679528376438526
% es.Ex (V/m) @ t=0.94
-1.5971402369786474
% es.Ey (V/m) @ t=0.94
0.12458758962866318
% es.Ez (V/m) @ t=0.94
0.6679528376438562
% es.tEx (V/m) @ t=0.94
-1.5971402369786354
% es.tEy (V/m) @ t=0.94
0
% es.tEz (V/m) @ t=0.94
0.6679528376438526
% V (V) @ t=0.94
0.009694903041945568
% es.normE (V/m) @ t=0.96
1.7522500266830412
% es.EX (V/m) @ t=0.96
-1.6116803211848705
% es.EY (V/m) @ t=0.96
0.12572181255432696
% es.EZ (V/m) @ t=0.96
0.6740337614125169
% es.tEX (V/m) @ t=0.96
-1.6116803211848616
% es.tEY (V/m) @ t=0.96
0
% es.tEZ (V/m) @ t=0.96
0.6740337614125238
% es.Ex (V/m) @ t=0.96
-1.6116803211848705
% es.Ey (V/m) @ t=0.96
0.12572181255432696
% es.Ez (V/m) @ t=0.96
0.6740337614125169
% es.tEx (V/m) @ t=0.96
-1.6116803211848616
% es.tEy (V/m) @ t=0.96
0
% es.tEz (V/m) @ t=0.96
0.6740337614125238
% V (V) @ t=0.96
0.009783163779173357
% es.normE (V/m) @ t=0.98
1.768058286923433
% es.EX (V/m) @ t=0.98
-1.6262204053911244
% es.EY (V/m) @ t=0.98
0.12685603548001034
% es.EZ (V/m) @ t=0.98
0.6801146851811919
% es.tEX (V/m) @ t=0.98
-1.6262204053911091
% es.tEY (V/m) @ t=0.98
0
% es.tEZ (V/m) @ t=0.98
0.6801146851811914
% es.Ex (V/m) @ t=0.98
-1.6262204053911244
% es.Ey (V/m) @ t=0.98
0.12685603548001034
% es.Ez (V/m) @ t=0.98
0.6801146851811919
% es.tEx (V/m) @ t=0.98
-1.6262204053911091
% es.tEy (V/m) @ t=0.98
0
% es.tEz (V/m) @ t=0.98
0.6801146851811914
% V (V) @ t=0.98
0.009871424516401148
% es.normE (V/m) @ t=1
1.7838665471637958
% es.EX (V/m) @ t=1
-1.6407604895973529
% es.EY (V/m) @ t=1
0.12799025840568112
% es.EZ (V/m) @ t=1
0.6861956089498564
% es.tEX (V/m) @ t=1
-1.6407604895973371
% es.tEY (V/m) @ t=1
0
% es.tEZ (V/m) @ t=1
0.6861956089498626
% es.Ex (V/m) @ t=1
-1.6407604895973529
% es.Ey (V/m) @ t=1
0.12799025840568112
% es.Ez (V/m) @ t=1
0.6861956089498564
% es.tEx (V/m) @ t=1
-1.6407604895973371
% es.tEy (V/m) @ t=1
0
% es.tEz (V/m) @ t=1
0.6861956089498626
% V (V) @ t=1
0.00995968525362894
% es.normE (V/m) @ t=1.02
1.7996748074041786
% es.EX (V/m) @ t=1.02
-1.6553005738035986
% es.EY (V/m) @ t=1.02
0.1291244813313468
% es.EZ (V/m) @ t=1.02
0.6922765327185296
% es.tEX (V/m) @ t=1.02
-1.6553005738035917
% es.tEY (V/m) @ t=1.02
0
% es.tEZ (V/m) @ t=1.02
0.6922765327185303
% es.Ex (V/m) @ t=1.02
-1.6553005738035986
% es.Ey (V/m) @ t=1.02
0.1291244813313468
% es.Ez (V/m) @ t=1.02
0.6922765327185296
% es.tEx (V/m) @ t=1.02
-1.6553005738035917
% es.tEy (V/m) @ t=1.02
0
% es.tEz (V/m) @ t=1.02
0.6922765327185303
% V (V) @ t=1.02
0.010047945990856729
% es.normE (V/m) @ t=1.04
1.8154830676445584
% es.EX (V/m) @ t=1.04
-1.6698406580098397
% es.EY (V/m) @ t=1.04
0.13025870425702113
% es.EZ (V/m) @ t=1.04
0.6983574564872046