% Model:              1 neuron.mph
% Version:            COMSOL 6.0.0.405
% Date:               Mar 16 2023, 09:48
% Dimension:          0
% Nodes:              14017
% Expressions:        14017
% Description:        Electric field norm, Electric field, X component, Electric field, Y component, Electric field, Z component, Tangential electric field, X component, Tangential electric field, Y component, Tangential electric field, Z component, Electric field, x component, Electric field, y component, Electric field, z component, Tangential electric field, x component, Tangential electric field, y component, Tangential electric field, z component, Electric potential
% Length unit:        mm
% x
2
% y
12.2
% z
1.6599999999999997
% es.normE (V/m) @ t=0
1.2772255788787743
% es.EX (V/m) @ t=0
-1.2341377391363135
% es.EY (V/m) @ t=0
0.09507355218349522
% es.EZ (V/m) @ t=0
-0.3145480988039697
% es.tEX (V/m) @ t=0
-1.2341377391363135
% es.tEY (V/m) @ t=0
0
% es.tEZ (V/m) @ t=0
-0.3145480988039644
% es.Ex (V/m) @ t=0
-1.2341377391363135
% es.Ey (V/m) @ t=0
0.09507355218349522
% es.Ez (V/m) @ t=0
-0.3145480988039697
% es.tEx (V/m) @ t=0
-1.2341377391363135
% es.tEy (V/m) @ t=0
0
% es.tEz (V/m) @ t=0
-0.3145480988039644
% V (V) @ t=0
0.0074017889569449324
% es.normE (V/m) @ t=0.02
1.1031623971979996
% es.EX (V/m) @ t=0.02
-1.065946665405646
% es.EY (V/m) @ t=0.02
0.08211671414745048
% es.EZ (V/m) @ t=0.02
-0.2716807746791796
% es.tEX (V/m) @ t=0.02
-1.0659466654056473
% es.tEY (V/m) @ t=0.02
0
% es.tEZ (V/m) @ t=0.02
-0.27168077467918206
% es.Ex (V/m) @ t=0.02
-1.065946665405646
% es.Ey (V/m) @ t=0.02
0.08211671414745048
% es.Ez (V/m) @ t=0.02
-0.2716807746791796
% es.tEx (V/m) @ t=0.02
-1.0659466654056473
% es.tEy (V/m) @ t=0.02
0
% es.tEz (V/m) @ t=0.02
-0.27168077467918206
% V (V) @ t=0.02
0.006393056468520133
% es.normE (V/m) @ t=0.04
1.1133077271447342
% es.EX (V/m) @ t=0.04
-1.0757497376770742
% es.EY (V/m) @ t=0.04
0.08287190646244591
% es.EZ (V/m) @ t=0.04
-0.2741793108471495
% es.tEX (V/m) @ t=0.04
-1.0757497376770786
% es.tEY (V/m) @ t=0.04
0
% es.tEZ (V/m) @ t=0.04
-0.27417931084714464
% es.Ex (V/m) @ t=0.04
-1.0757497376770742
% es.Ey (V/m) @ t=0.04
0.08287190646244591
% es.Ez (V/m) @ t=0.04
-0.2741793108471495
% es.tEx (V/m) @ t=0.04
-1.0757497376770786
% es.tEy (V/m) @ t=0.04
0
% es.tEz (V/m) @ t=0.04
-0.27417931084714464
% V (V) @ t=0.04
0.006451850798927656
% es.normE (V/m) @ t=0.06
1.1235420212389626
% es.EX (V/m) @ t=0.06
-1.085638772881175
% es.EY (V/m) @ t=0.06
0.08363372046777806
% es.EZ (V/m) @ t=0.06
-0.2766997566328311
% es.tEX (V/m) @ t=0.06
-1.085638772881163
% es.tEY (V/m) @ t=0.06
0
% es.tEZ (V/m) @ t=0.06
-0.2766997566328273
% es.Ex (V/m) @ t=0.06
-1.085638772881175
% es.Ey (V/m) @ t=0.06
0.08363372046777806
% es.Ez (V/m) @ t=0.06
-0.2766997566328311
% es.tEx (V/m) @ t=0.06
-1.085638772881163
% es.tEy (V/m) @ t=0.06
0
% es.tEz (V/m) @ t=0.06
-0.2766997566328273
% V (V) @ t=0.06
0.00651116070655067
% es.normE (V/m) @ t=0.08
1.1339383806684926
% es.EX (V/m) @ t=0.08
-1.0956844061478335
% es.EY (V/m) @ t=0.08
0.08440759679863591
% es.EZ (V/m) @ t=0.08
-0.27926011503059756
% es.tEX (V/m) @ t=0.08
-1.0956844061478375
% es.tEY (V/m) @ t=0.08
0
% es.tEZ (V/m) @ t=0.08
-0.2792601150306009
% es.Ex (V/m) @ t=0.08
-1.0956844061478335
% es.Ey (V/m) @ t=0.08
0.08440759679863591
% es.Ez (V/m) @ t=0.08
-0.27926011503059756
% es.tEx (V/m) @ t=0.08
-1.0956844061478375
% es.tEy (V/m) @ t=0.08
0
% es.tEz (V/m) @ t=0.08
-0.2792601150306009
% V (V) @ t=0.08
0.0065714098443752835
% es.normE (V/m) @ t=0.1
1.144435274570446
% es.EX (V/m) @ t=0.1
-1.1058271823573245
% es.EY (V/m) @ t=0.1
0.08518895578785429
% es.EZ (V/m) @ t=0.1
-0.28184523253794524
% es.tEX (V/m) @ t=0.1
-1.1058271823573183
% es.tEY (V/m) @ t=0.1
0
% es.tEZ (V/m) @ t=0.1
-0.28184523253793614
% es.Ex (V/m) @ t=0.1
-1.1058271823573245
% es.Ey (V/m) @ t=0.1
0.08518895578785429
% es.Ez (V/m) @ t=0.1
-0.28184523253794524
% es.tEx (V/m) @ t=0.1
-1.1058271823573183
% es.tEy (V/m) @ t=0.1
0
% es.tEz (V/m) @ t=0.1
-0.28184523253793614
% V (V) @ t=0.1
0.006632241617669832
% es.normE (V/m) @ t=0.12
1.1549321684723766
% es.EX (V/m) @ t=0.12
-1.1159699585667933
% es.EY (V/m) @ t=0.12
0.0859703147770407
% es.EZ (V/m) @ t=0.12
-0.2844303500452947
% es.tEX (V/m) @ t=0.12
-1.115969958566792
% es.tEY (V/m) @ t=0.12
0
% es.tEZ (V/m) @ t=0.12
-0.28443035004529804
% es.Ex (V/m) @ t=0.12
-1.1159699585667933
% es.Ey (V/m) @ t=0.12
0.0859703147770407
% es.Ez (V/m) @ t=0.12
-0.2844303500452947
% es.tEx (V/m) @ t=0.12
-1.115969958566792
% es.tEy (V/m) @ t=0.12
0
% es.tEz (V/m) @ t=0.12
-0.28443035004529804
% V (V) @ t=0.12
0.006693073390964378
% es.normE (V/m) @ t=0.14
1.1655646779495523
% es.EX (V/m) @ t=0.14
-1.1262437752960404
% es.EY (V/m) @ t=0.14
0.08676176860251428
% es.EZ (V/m) @ t=0.14
-0.2870488662129391
% es.tEX (V/m) @ t=0.14
-1.1262437752960412
% es.tEY (V/m) @ t=0.14
0
% es.tEZ (V/m) @ t=0.14
-0.28704886621294357
% es.Ex (V/m) @ t=0.14
-1.1262437752960404
% es.Ey (V/m) @ t=0.14
0.08676176860251428
% es.Ez (V/m) @ t=0.14
-0.2870488662129391
% es.tEx (V/m) @ t=0.14
-1.1262437752960412
% es.tEy (V/m) @ t=0.14
0
% es.tEz (V/m) @ t=0.14
-0.28704886621294357
% V (V) @ t=0.14
0.00675469108594063
% es.normE (V/m) @ t=0.16
1.176616927469576
% es.EX (V/m) @ t=0.16
-1.1369231719395927
% es.EY (V/m) @ t=0.16
0.08758446667852954
% es.EZ (V/m) @ t=0.16
-0.2897707536569212
% es.tEX (V/m) @ t=0.16
-1.136923171939591
% es.tEY (V/m) @ t=0.16
0
% es.tEZ (V/m) @ t=0.16
-0.28977075365692073
% es.Ex (V/m) @ t=0.16
-1.1369231719395927
% es.Ey (V/m) @ t=0.16
0.08758446667852954
% es.Ez (V/m) @ t=0.16
-0.2897707536569212
% es.tEx (V/m) @ t=0.16
-1.136923171939591
% es.tEy (V/m) @ t=0.16
0
% es.tEz (V/m) @ t=0.16
-0.28977075365692073
% V (V) @ t=0.16
0.006818741265531977
% es.normE (V/m) @ t=0.18
1.1876691769895922
% es.EX (V/m) @ t=0.18
-1.1476025685831344
% es.EY (V/m) @ t=0.18
0.08840716475454746
% es.EZ (V/m) @ t=0.18
-0.292492641100913
% es.tEX (V/m) @ t=0.18
-1.147602568583137
% es.tEY (V/m) @ t=0.18
0
% es.tEZ (V/m) @ t=0.18
-0.29249264110090323
% es.Ex (V/m) @ t=0.18
-1.1476025685831344
% es.Ey (V/m) @ t=0.18
0.08840716475454746
% es.Ez (V/m) @ t=0.18
-0.292492641100913
% es.tEx (V/m) @ t=0.18
-1.147602568583137
% es.tEy (V/m) @ t=0.18
0
% es.tEz (V/m) @ t=0.18
-0.29249264110090323
% V (V) @ t=0.18
0.006882791445123323
% es.normE (V/m) @ t=0.2
1.198721426509608
% es.EX (V/m) @ t=0.2
-1.1582819652266778
% es.EY (V/m) @ t=0.2
0.08922986283056195
% es.EZ (V/m) @ t=0.2
-0.29521452854489905
% es.tEX (V/m) @ t=0.2
-1.1582819652266672
% es.tEY (V/m) @ t=0.2
0
% es.tEZ (V/m) @ t=0.2
-0.2952145285448946
% es.Ex (V/m) @ t=0.2
-1.1582819652266778
% es.Ey (V/m) @ t=0.2
0.08922986283056195
% es.Ez (V/m) @ t=0.2
-0.29521452854489905
% es.tEx (V/m) @ t=0.2
-1.1582819652266672
% es.tEy (V/m) @ t=0.2
0
% es.tEz (V/m) @ t=0.2
-0.2952145285448946
% V (V) @ t=0.2
0.006946841624714671
% es.normE (V/m) @ t=0.22
1.2097736760296078
% es.EX (V/m) @ t=0.22
-1.168961361870207
% es.EY (V/m) @ t=0.22
0.09005256090657188
% es.EZ (V/m) @ t=0.22
-0.29793641598887666
% es.tEX (V/m) @ t=0.22
-1.1689613618702097
% es.tEY (V/m) @ t=0.22
0
% es.tEZ (V/m) @ t=0.22
-0.2979364159888842
% es.Ex (V/m) @ t=0.22
-1.168961361870207
% es.Ey (V/m) @ t=0.22
0.09005256090657188
% es.Ez (V/m) @ t=0.22
-0.29793641598887666
% es.tEx (V/m) @ t=0.22
-1.1689613618702097
% es.tEy (V/m) @ t=0.22
0
% es.tEz (V/m) @ t=0.22
-0.2979364159888842
% V (V) @ t=0.22
0.007010891804306017
% es.normE (V/m) @ t=0.24
1.2208259255496325
% es.EX (V/m) @ t=0.24
-1.1796407585137594
% es.EY (V/m) @ t=0.24
0.09087525898259341
% es.EZ (V/m) @ t=0.24
-0.30065830343286115
% es.tEX (V/m) @ t=0.24
-1.17964075851377
% es.tEY (V/m) @ t=0.24
0
% es.tEZ (V/m) @ t=0.24
-0.30065830343286315
% es.Ex (V/m) @ t=0.24
-1.1796407585137594
% es.Ey (V/m) @ t=0.24
0.09087525898259341
% es.Ez (V/m) @ t=0.24
-0.30065830343286115
% es.tEx (V/m) @ t=0.24
-1.17964075851377
% es.tEy (V/m) @ t=0.24
0
% es.tEz (V/m) @ t=0.24
-0.30065830343286315
% V (V) @ t=0.24
0.007074941983897363
% es.normE (V/m) @ t=0.26
1.2318781750696361
% es.EX (V/m) @ t=0.26
-1.1903201551572895
% es.EY (V/m) @ t=0.26
0.09169795705861222
% es.EZ (V/m) @ t=0.26
-0.30338019087684764
% es.tEX (V/m) @ t=0.26
-1.190320155157286
% es.tEY (V/m) @ t=0.26
0
% es.tEZ (V/m) @ t=0.26
-0.30338019087683676
% es.Ex (V/m) @ t=0.26
-1.1903201551572895
% es.Ey (V/m) @ t=0.26
0.09169795705861222
% es.Ez (V/m) @ t=0.26
-0.30338019087684764
% es.tEx (V/m) @ t=0.26
-1.190320155157286
% es.tEy (V/m) @ t=0.26
0
% es.tEz (V/m) @ t=0.26
-0.30338019087683676
% V (V) @ t=0.26
0.007138992163488711
% es.normE (V/m) @ t=0.28
1.2435525993620007
% es.EX (V/m) @ t=0.28
-1.2016007588905229
% es.EY (V/m) @ t=0.28
0.0925665960563456
% es.EZ (V/m) @ t=0.28
-0.306255316664785
% es.tEX (V/m) @ t=0.28
-1.2016007588905246
% es.tEY (V/m) @ t=0.28
0
% es.tEZ (V/m) @ t=0.28
-0.3062553166647852
% es.Ex (V/m) @ t=0.28
-1.2016007588905229
% es.Ey (V/m) @ t=0.28
0.0925665960563456
% es.Ez (V/m) @ t=0.28
-0.306255316664785
% es.tEx (V/m) @ t=0.28
-1.2016007588905246
% es.tEy (V/m) @ t=0.28
0
% es.tEz (V/m) @ t=0.28
-0.3062553166647852
% V (V) @ t=0.28
0.0072066552494771344
% es.normE (V/m) @ t=0.3
1.2558535099059691
% es.EX (V/m) @ t=0.3
-1.2134867358925732
% es.EY (V/m) @ t=0.3
0.09348149433222225
% es.EZ (V/m) @ t=0.3
-0.3092847426910099
% es.tEX (V/m) @ t=0.3
-1.2134867358925856
% es.tEY (V/m) @ t=0.3
0
% es.tEZ (V/m) @ t=0.3
-0.30928474269100903
% es.Ex (V/m) @ t=0.3
-1.2134867358925732
% es.Ey (V/m) @ t=0.3
0.09348149433222225
% es.Ez (V/m) @ t=0.3
-0.3092847426910099
% es.tEx (V/m) @ t=0.3
-1.2134867358925856
% es.tEy (V/m) @ t=0.3
0
% es.tEz (V/m) @ t=0.3
-0.30928474269100903
% V (V) @ t=0.3
0.007277956278186499
% es.normE (V/m) @ t=0.32
1.2681544204507087
% es.EX (V/m) @ t=0.32
-1.225372712894658
% es.EY (V/m) @ t=0.32
0.09439639260807142
% es.EZ (V/m) @ t=0.32
-0.31231416871724504
% es.tEX (V/m) @ t=0.32
-1.225372712894659
% es.tEY (V/m) @ t=0.32
0
% es.tEZ (V/m) @ t=0.32
-0.31231416871724527
% es.Ex (V/m) @ t=0.32
-1.225372712894658
% es.Ey (V/m) @ t=0.32
0.09439639260807142
% es.Ez (V/m) @ t=0.32
-0.31231416871724504
% es.tEx (V/m) @ t=0.32
-1.225372712894659
% es.tEy (V/m) @ t=0.32
0
% es.tEz (V/m) @ t=0.32
-0.31231416871724527
% V (V) @ t=0.32
0.007349257306895864
% es.normE (V/m) @ t=0.34
1.2804553309961395
% es.EX (V/m) @ t=0.34
-1.2372586898967208
% es.EY (V/m) @ t=0.34
0.09531129088393481
% es.EZ (V/m) @ t=0.34
-0.3153435947434624
% es.tEX (V/m) @ t=0.34
-1.2372586898967182
% es.tEY (V/m) @ t=0.34
0
% es.tEZ (V/m) @ t=0.34
-0.31534359474347085
% es.Ex (V/m) @ t=0.34
-1.2372586898967208
% es.Ey (V/m) @ t=0.34
0.09531129088393481
% es.Ez (V/m) @ t=0.34
-0.3153435947434624
% es.tEx (V/m) @ t=0.34
-1.2372586898967182
% es.tEy (V/m) @ t=0.34
0
% es.tEz (V/m) @ t=0.34
-0.31534359474347085
% V (V) @ t=0.34
0.007420558335605229
% es.normE (V/m) @ t=0.36
1.2927562415422775
% es.EX (V/m) @ t=0.36
-1.2491446668987942
% es.EY (V/m) @ t=0.36
0.09622618915978481
% es.EZ (V/m) @ t=0.36
-0.31837302076968954
% es.tEX (V/m) @ t=0.36
-1.2491446668987969
% es.tEY (V/m) @ t=0.36
0
% es.tEZ (V/m) @ t=0.36
-0.31837302076969287
% es.Ex (V/m) @ t=0.36
-1.2491446668987942
% es.Ey (V/m) @ t=0.36
0.09622618915978481
% es.Ez (V/m) @ t=0.36
-0.31837302076968954
% es.tEx (V/m) @ t=0.36
-1.2491446668987969
% es.tEy (V/m) @ t=0.36
0
% es.tEz (V/m) @ t=0.36
-0.31837302076969287
% V (V) @ t=0.36
0.007491859364314596
% es.normE (V/m) @ t=0.38
1.3050571520890744
% es.EX (V/m) @ t=0.38
-1.261030643900848
% es.EY (V/m) @ t=0.38
0.09714108743564281
% es.EZ (V/m) @ t=0.38
-0.3214024467959231
% es.tEX (V/m) @ t=0.38
-1.2610306439008507
% es.tEY (V/m) @ t=0.38
0
% es.tEZ (V/m) @ t=0.38
-0.3214024467959202
% es.Ex (V/m) @ t=0.38
-1.261030643900848
% es.Ey (V/m) @ t=0.38
0.09714108743564281
% es.Ez (V/m) @ t=0.38
-0.3214024467959231
% es.tEx (V/m) @ t=0.38
-1.2610306439008507
% es.tEy (V/m) @ t=0.38
0
% es.tEz (V/m) @ t=0.38
-0.3214024467959202
% V (V) @ t=0.38
0.00756316039302396
% es.normE (V/m) @ t=0.4
1.3173580626365482
% es.EX (V/m) @ t=0.4
-1.2729166209029241
% es.EY (V/m) @ t=0.4
0.0980559857115062
% es.EZ (V/m) @ t=0.4
-0.3244318728221476
% es.tEX (V/m) @ t=0.4
-1.2729166209029241
% es.tEY (V/m) @ t=0.4
0
% es.tEZ (V/m) @ t=0.4
-0.32443187282214936
% es.Ex (V/m) @ t=0.4
-1.2729166209029241
% es.Ey (V/m) @ t=0.4
0.0980559857115062
% es.Ez (V/m) @ t=0.4
-0.3244318728221476
% es.tEx (V/m) @ t=0.4
-1.2729166209029241
% es.tEy (V/m) @ t=0.4
0
% es.tEz (V/m) @ t=0.4
-0.32443187282214936
% V (V) @ t=0.4
0.007634461421733323
% es.normE (V/m) @ t=0.42
1.3296589731846478
% es.EX (V/m) @ t=0.42
-1.2848025979049833
% es.EY (V/m) @ t=0.42
0.09897088398738912
% es.EZ (V/m) @ t=0.42
-0.32746129884838004
% es.tEX (V/m) @ t=0.42
-1.2848025979049815
% es.tEY (V/m) @ t=0.42
0
% es.tEZ (V/m) @ t=0.42
-0.3274612988483785
% es.Ex (V/m) @ t=0.42
-1.2848025979049833
% es.Ey (V/m) @ t=0.42
0.09897088398738912
% es.Ez (V/m) @ t=0.42
-0.32746129884838004
% es.tEx (V/m) @ t=0.42
-1.2848025979049815
% es.tEy (V/m) @ t=0.42
0
% es.tEz (V/m) @ t=0.42
-0.3274612988483785
% V (V) @ t=0.42
0.007705762450442688
% es.normE (V/m) @ t=0.44
1.3419598837333868
% es.EX (V/m) @ t=0.44
-1.29668857490707
% es.EY (V/m) @ t=0.44
0.09988578226321687
% es.EZ (V/m) @ t=0.44
-0.33049072487459763
% es.tEX (V/m) @ t=0.44
-1.2966885749070638
% es.tEY (V/m) @ t=0.44
0
% es.tEZ (V/m) @ t=0.44
-0.33049072487459874
% es.Ex (V/m) @ t=0.44
-1.29668857490707
% es.Ey (V/m) @ t=0.44
0.09988578226321687
% es.Ez (V/m) @ t=0.44
-0.33049072487459763
% es.tEx (V/m) @ t=0.44
-1.2966885749070638
% es.tEy (V/m) @ t=0.44
0
% es.tEz (V/m) @ t=0.44
-0.33049072487459874
% V (V) @ t=0.44
0.007777063479152053
% es.normE (V/m) @ t=0.46
1.3542607942827198
% es.EX (V/m) @ t=0.46
-1.3085745519091363
% es.EY (V/m) @ t=0.46
0.10080068053908381
% es.EZ (V/m) @ t=0.46
-0.33352015090084075
% es.tEX (V/m) @ t=0.46
-1.3085745519091372
% es.tEY (V/m) @ t=0.46
0
% es.tEZ (V/m) @ t=0.46
-0.33352015090084386
% es.Ex (V/m) @ t=0.46
-1.3085745519091363
% es.Ey (V/m) @ t=0.46
0.10080068053908381
% es.Ez (V/m) @ t=0.46
-0.33352015090084075
% es.tEx (V/m) @ t=0.46
-1.3085745519091372
% es.tEy (V/m) @ t=0.46
0
% es.tEz (V/m) @ t=0.46
-0.33352015090084386
% V (V) @ t=0.46
0.00784836450786142
% es.normE (V/m) @ t=0.48
1.3665617048326277
% es.EX (V/m) @ t=0.48
-1.3204605289111981
% es.EY (V/m) @ t=0.48
0.10171557881494986
% es.EZ (V/m) @ t=0.48
-0.33654957692704923
% es.tEX (V/m) @ t=0.48
-1.3204605289112017
% es.tEY (V/m) @ t=0.48
0
% es.tEZ (V/m) @ t=0.48
-0.3365495769270517
% es.Ex (V/m) @ t=0.48
-1.3204605289111981
% es.Ey (V/m) @ t=0.48
0.10171557881494986
% es.Ez (V/m) @ t=0.48
-0.33654957692704923
% es.tEx (V/m) @ t=0.48
-1.3204605289112017
% es.tEy (V/m) @ t=0.48
0
% es.tEz (V/m) @ t=0.48
-0.3365495769270517
% V (V) @ t=0.48
0.007919665536570784
% es.normE (V/m) @ t=0.5
1.3788626153831154
% es.EX (V/m) @ t=0.5
-1.3323465059132635
% es.EY (V/m) @ t=0.5
0.10263047709080608
% es.EZ (V/m) @ t=0.5
-0.33957900295327836
% es.tEX (V/m) @ t=0.5
-1.3323465059132626
% es.tEY (V/m) @ t=0.5
0
% es.tEZ (V/m) @ t=0.5
-0.33957900295327903
% es.Ex (V/m) @ t=0.5
-1.3323465059132635
% es.Ey (V/m) @ t=0.5
0.10263047709080608
% es.Ez (V/m) @ t=0.5
-0.33957900295327836
% es.tEx (V/m) @ t=0.5
-1.3323465059132626
% es.tEy (V/m) @ t=0.5
0
% es.tEz (V/m) @ t=0.5
-0.33957900295327903
% V (V) @ t=0.5
0.007990966565280148
% es.normE (V/m) @ t=0.52
1.3911635259341693
% es.EX (V/m) @ t=0.52
-1.3442324829153334
% es.EY (V/m) @ t=0.52
0.10354537536668368
% es.EZ (V/m) @ t=0.52
-0.3426084289795188
% es.tEX (V/m) @ t=0.52
-1.344232482915336
% es.tEY (V/m) @ t=0.52
0
% es.tEZ (V/m) @ t=0.52
-0.34260842897951704
% es.Ex (V/m) @ t=0.52
-1.3442324829153334
% es.Ey (V/m) @ t=0.52
0.10354537536668368
% es.Ez (V/m) @ t=0.52
-0.3426084289795188
% es.tEx (V/m) @ t=0.52
-1.344232482915336
% es.tEy (V/m) @ t=0.52
0
% es.tEz (V/m) @ t=0.52
-0.34260842897951704
% V (V) @ t=0.52
0.008062267593989512
% es.normE (V/m) @ t=0.54
1.4034735289818578
% es.EX (V/m) @ t=0.54
-1.3561272460446245
% es.EY (V/m) @ t=0.54
0.10446094402425649
% es.EZ (V/m) @ t=0.54
-0.34564009448912025
% es.tEX (V/m) @ t=0.54
-1.356127246044629
% es.tEY (V/m) @ t=0.54
0
% es.tEZ (V/m) @ t=0.54
-0.3456400944891236
% es.Ex (V/m) @ t=0.54
-1.3561272460446245
% es.Ey (V/m) @ t=0.54
0.10446094402425649
% es.Ez (V/m) @ t=0.54
-0.34564009448912025
% es.tEx (V/m) @ t=0.54
-1.356127246044629
% es.tEy (V/m) @ t=0.54
0
% es.tEz (V/m) @ t=0.54
-0.3456400944891236
% V (V) @ t=0.54
0.008133621441169485
% es.normE (V/m) @ t=0.56
1.4171887686075282
% es.EX (V/m) @ t=0.56
-1.369379896732271
% es.EY (V/m) @ t=0.56
0.10548011953924952
% es.EZ (V/m) @ t=0.56
-0.3490178700144957
% es.tEX (V/m) @ t=0.56
-1.3693798967322657
% es.tEY (V/m) @ t=0.56
0
% es.tEZ (V/m) @ t=0.56
-0.34901787001449414
% es.Ex (V/m) @ t=0.56
-1.369379896732271
% es.Ey (V/m) @ t=0.56
0.10548011953924952
% es.Ez (V/m) @ t=0.56
-0.3490178700144957
% es.tEx (V/m) @ t=0.56
-1.3693798967322657
% es.tEy (V/m) @ t=0.56
0
% es.tEz (V/m) @ t=0.56
-0.34901787001449414
% V (V) @ t=0.56
0.008213138332466348
% es.normE (V/m) @ t=0.58
1.430904008236423
% es.EX (V/m) @ t=0.58
-1.3826325474199423
% es.EY (V/m) @ t=0.58
0.10649929505421935
% es.EZ (V/m) @ t=0.58
-0.35239564553986114
% es.tEX (V/m) @ t=0.58
-1.382632547419945
% es.tEY (V/m) @ t=0.58
0
% es.tEZ (V/m) @ t=0.58
-0.35239564553985936
% es.Ex (V/m) @ t=0.58
-1.3826325474199423
% es.Ey (V/m) @ t=0.58
0.10649929505421935
% es.Ez (V/m) @ t=0.58
-0.35239564553986114
% es.tEx (V/m) @ t=0.58
-1.382632547419945
% es.tEy (V/m) @ t=0.58
0
% es.tEz (V/m) @ t=0.58
-0.35239564553985936
% V (V) @ t=0.58
0.008292655223763209
% es.normE (V/m) @ t=0.6
1.4446192478684066
% es.EX (V/m) @ t=0.6
-1.3958851981075853
% es.EY (V/m) @ t=0.6
0.10751847056918751
% es.EZ (V/m) @ t=0.6
-0.3557734210652366
% es.tEX (V/m) @ t=0.6
-1.3958851981075817
% es.tEY (V/m) @ t=0.6
0
% es.tEZ (V/m) @ t=0.6
-0.3557734210652388
% es.Ex (V/m) @ t=0.6
-1.3958851981075853
% es.Ey (V/m) @ t=0.6
0.10751847056918751
% es.Ez (V/m) @ t=0.6
-0.3557734210652366
% es.tEx (V/m) @ t=0.6
-1.3958851981075817
% es.tEy (V/m) @ t=0.6
0
% es.tEz (V/m) @ t=0.6
-0.3557734210652388
% V (V) @ t=0.6
0.008372172115060068
% es.normE (V/m) @ t=0.62
1.4583344875034367
% es.EX (V/m) @ t=0.62
-1.409137848795254
% es.EY (V/m) @ t=0.62
0.10853764608416805
% es.EZ (V/m) @ t=0.62
-0.35915119659058936
% es.tEX (V/m) @ t=0.62
-1.4091378487952682
% es.tEY (V/m) @ t=0.62
0
% es.tEZ (V/m) @ t=0.62
-0.35915119659059336
% es.Ex (V/m) @ t=0.62
-1.409137848795254
% es.Ey (V/m) @ t=0.62
0.10853764608416805
% es.Ez (V/m) @ t=0.62
-0.35915119659058936
% es.tEx (V/m) @ t=0.62
-1.4091378487952682
% es.tEy (V/m) @ t=0.62
0
% es.tEz (V/m) @ t=0.62
-0.35915119659059336
% V (V) @ t=0.62
0.008451689006356927
% es.normE (V/m) @ t=0.64
1.4720497271414072
% es.EX (V/m) @ t=0.64
-1.4223904994829173
% es.EY (V/m) @ t=0.64
0.10955682159915031
% es.EZ (V/m) @ t=0.64
-0.3625289721159608
% es.tEX (V/m) @ t=0.64
-1.4223904994829137
% es.tEY (V/m) @ t=0.64
0
% es.tEZ (V/m) @ t=0.64
-0.3625289721159657
% es.Ex (V/m) @ t=0.64
-1.4223904994829173
% es.Ey (V/m) @ t=0.64
0.10955682159915031
% es.Ez (V/m) @ t=0.64
-0.3625289721159608
% es.tEx (V/m) @ t=0.64
-1.4223904994829137
% es.tEy (V/m) @ t=0.64
0
% es.tEz (V/m) @ t=0.64
-0.3625289721159657
% V (V) @ t=0.64
0.008531205897653786
% es.normE (V/m) @ t=0.66
1.4857649667822306
% es.EX (V/m) @ t=0.66
-1.4356431501705735
% es.EY (V/m) @ t=0.66
0.11057599711410782
% es.EZ (V/m) @ t=0.66
-0.3659067476413391
% es.tEX (V/m) @ t=0.66
-1.4356431501705789
% es.tEY (V/m) @ t=0.66
0
% es.tEZ (V/m) @ t=0.66
-0.365906747641338
% es.Ex (V/m) @ t=0.66
-1.4356431501705735
% es.Ey (V/m) @ t=0.66
0.11057599711410782
% es.Ez (V/m) @ t=0.66
-0.3659067476413391
% es.tEx (V/m) @ t=0.66
-1.4356431501705789
% es.tEy (V/m) @ t=0.66
0
% es.tEz (V/m) @ t=0.66
-0.365906747641338
% V (V) @ t=0.66
0.008610722788950647
% es.normE (V/m) @ t=0.68
1.4994802064258166
% es.EX (V/m) @ t=0.68
-1.448895800858212
% es.EY (V/m) @ t=0.68
0.1115951726290822
% es.EZ (V/m) @ t=0.68
-0.3692845231667057
% es.tEX (V/m) @ t=0.68
-1.4488958008582227
% es.tEY (V/m) @ t=0.68
0
% es.tEZ (V/m) @ t=0.68
-0.36928452316670324
% es.Ex (V/m) @ t=0.68
-1.448895800858212
% es.Ey (V/m) @ t=0.68
0.1115951726290822
% es.Ez (V/m) @ t=0.68
-0.3692845231667057
% es.tEx (V/m) @ t=0.68
-1.4488958008582227
% es.tEy (V/m) @ t=0.68
0
% es.tEz (V/m) @ t=0.68
-0.36928452316670324
% V (V) @ t=0.68
0.008690239680247507
% es.normE (V/m) @ t=0.7
1.513195446072154
% es.EX (V/m) @ t=0.7
-1.4621484515458976
% es.EY (V/m) @ t=0.7
0.11261434814406629
% es.EZ (V/m) @ t=0.7
-0.37266229869206846
% es.tEX (V/m) @ t=0.7
-1.462148451545902
% es.tEY (V/m) @ t=0.7
0
% es.tEZ (V/m) @ t=0.7
-0.37266229869206846
% es.Ex (V/m) @ t=0.7
-1.4621484515458976
% es.Ey (V/m) @ t=0.7
0.11261434814406629
% es.Ez (V/m) @ t=0.7
-0.37266229869206846
% es.tEx (V/m) @ t=0.7
-1.462148451545902
% es.tEy (V/m) @ t=0.7
0
% es.tEz (V/m) @ t=0.7
-0.37266229869206846
% V (V) @ t=0.7
0.008769756571544367
% es.normE (V/m) @ t=0.72
1.5269106857210875
% es.EX (V/m) @ t=0.72
-1.475401102233544
% es.EY (V/m) @ t=0.72
0.11363352365903268
% es.EZ (V/m) @ t=0.72
-0.376040074217443
% es.tEX (V/m) @ t=0.72
-1.4754011022335458
% es.tEY (V/m) @ t=0.72
0
% es.tEZ (V/m) @ t=0.72
-0.3760400742174408
% es.Ex (V/m) @ t=0.72
-1.475401102233544
% es.Ey (V/m) @ t=0.72
0.11363352365903268
% es.Ez (V/m) @ t=0.72
-0.376040074217443
% es.tEx (V/m) @ t=0.72
-1.4754011022335458
% es.tEy (V/m) @ t=0.72
0
% es.tEz (V/m) @ t=0.72
-0.3760400742174408
% V (V) @ t=0.72
0.008849273462841225
% es.normE (V/m) @ t=0.74
1.540625925372592
% es.EX (V/m) @ t=0.74
-1.488653752921202
% es.EY (V/m) @ t=0.74
0.11465269917400961
% es.EZ (V/m) @ t=0.74
-0.3794178497428029
% es.tEX (V/m) @ t=0.74
-1.4886537529212038
% es.tEY (V/m) @ t=0.74
0
% es.tEZ (V/m) @ t=0.74
-0.37941784974280424
% es.Ex (V/m) @ t=0.74
-1.488653752921202
% es.Ey (V/m) @ t=0.74
0.11465269917400961
% es.Ez (V/m) @ t=0.74
-0.3794178497428029
% es.tEx (V/m) @ t=0.74
-1.4886537529212038
% es.tEy (V/m) @ t=0.74
0
% es.tEz (V/m) @ t=0.74
-0.37941784974280424
% V (V) @ t=0.74
0.008928790354138086
% es.normE (V/m) @ t=0.76
1.5543411650265857
% es.EX (V/m) @ t=0.76
-1.5019064036088512
% es.EY (V/m) @ t=0.76
0.11567187468898044
% es.EZ (V/m) @ t=0.76
-0.38279562526817745
% es.tEX (V/m) @ t=0.76
-1.5019064036088547
% es.tEY (V/m) @ t=0.76
0
% es.tEZ (V/m) @ t=0.76
-0.38279562526817656
% es.Ex (V/m) @ t=0.76
-1.5019064036088512
% es.Ey (V/m) @ t=0.76
0.11567187468898044
% es.Ez (V/m) @ t=0.76
-0.38279562526817745
% es.tEx (V/m) @ t=0.76
-1.5019064036088547
% es.tEy (V/m) @ t=0.76
0
% es.tEz (V/m) @ t=0.76
-0.38279562526817656
% V (V) @ t=0.76
0.009008307245434947
% es.normE (V/m) @ t=0.78
1.568056404683043
% es.EX (V/m) @ t=0.78
-1.5151590542965376
% es.EY (V/m) @ t=0.78
0.1166910502039547
% es.EZ (V/m) @ t=0.78
-0.38617340079354356
% es.tEX (V/m) @ t=0.78
-1.515159054296534
% es.tEY (V/m) @ t=0.78
0
% es.tEZ (V/m) @ t=0.78
-0.3861734007935418
% es.Ex (V/m) @ t=0.78
-1.5151590542965376
% es.Ey (V/m) @ t=0.78
0.1166910502039547
% es.Ez (V/m) @ t=0.78
-0.38617340079354356
% es.tEx (V/m) @ t=0.78
-1.515159054296534
% es.tEy (V/m) @ t=0.78
0
% es.tEz (V/m) @ t=0.78
-0.3861734007935418
% V (V) @ t=0.78
0.009087824136731804
% es.normE (V/m) @ t=0.8
1.581771644341825
% es.EX (V/m) @ t=0.8
-1.528411704984184
% es.EY (V/m) @ t=0.8
0.11771022571892642
% es.EZ (V/m) @ t=0.8
-0.3895511763188999
% es.tEX (V/m) @ t=0.8
-1.528411704984185
% es.tEY (V/m) @ t=0.8
0
% es.tEZ (V/m) @ t=0.8
-0.3895511763188999
% es.Ex (V/m) @ t=0.8
-1.528411704984184
% es.Ey (V/m) @ t=0.8
0.11771022571892642
% es.Ez (V/m) @ t=0.8
-0.3895511763188999
% es.tEx (V/m) @ t=0.8
-1.528411704984185
% es.tEy (V/m) @ t=0.8
0
% es.tEz (V/m) @ t=0.8
-0.3895511763188999
% V (V) @ t=0.8
0.009167341028028665
% es.normE (V/m) @ t=0.82
1.59630903756002
% es.EX (V/m) @ t=0.82
-1.5424586308164265
% es.EY (V/m) @ t=0.82
0.11879306276810586
% es.EZ (V/m) @ t=0.82
-0.3931313414121673
% es.tEX (V/m) @ t=0.82
-1.5424586308164283
% es.tEY (V/m) @ t=0.82
0
% es.tEZ (V/m) @ t=0.82
-0.3931313414121611
% es.Ex (V/m) @ t=0.82
-1.5424586308164265
% es.Ey (V/m) @ t=0.82
0.11879306276810586
% es.Ez (V/m) @ t=0.82
-0.3931313414121673
% es.tEx (V/m) @ t=0.82
-1.5424586308164283
% es.tEy (V/m) @ t=0.82
0
% es.tEz (V/m) @ t=0.82
-0.3931313414121611
% V (V) @ t=0.82
0.009251574410226822
% es.normE (V/m) @ t=0.84
1.6116219820995559
% es.EX (V/m) @ t=0.84
-1.557254809783994
% es.EY (V/m) @ t=0.84
0.11993595281581687
% es.EZ (V/m) @ t=0.84
-0.3969024239970813
% es.tEX (V/m) @ t=0.84
-1.5572548097839984
% es.tEY (V/m) @ t=0.84
0
% es.tEZ (V/m) @ t=0.84
-0.39690242399708175
% es.Ex (V/m) @ t=0.84
-1.557254809783994
% es.Ey (V/m) @ t=0.84
0.11993595281581687
% es.Ez (V/m) @ t=0.84
-0.3969024239970813
% es.tEx (V/m) @ t=0.84
-1.5572548097839984
% es.tEy (V/m) @ t=0.84
0
% es.tEz (V/m) @ t=0.84
-0.39690242399708175
% V (V) @ t=0.84
0.00934025693781175
% es.normE (V/m) @ t=0.86
1.6269349266505981
% es.EX (V/m) @ t=0.86
-1.5720509887515686
% es.EY (V/m) @ t=0.86
0.12107884286352444
% es.EZ (V/m) @ t=0.86
-0.4006735065819784
% es.tEX (V/m) @ t=0.86
-1.5720509887515686
% es.tEY (V/m) @ t=0.86
0
% es.tEZ (V/m) @ t=0.86
-0.40067350658197753
% es.Ex (V/m) @ t=0.86
-1.5720509887515686
% es.Ey (V/m) @ t=0.86
0.12107884286352444
% es.Ez (V/m) @ t=0.86
-0.4006735065819784
% es.tEx (V/m) @ t=0.86
-1.5720509887515686
% es.tEy (V/m) @ t=0.86
0
% es.tEz (V/m) @ t=0.86
-0.40067350658197753
% V (V) @ t=0.86
0.009428939465396677
% es.normE (V/m) @ t=0.88
1.6422478712128261
% es.EX (V/m) @ t=0.88
-1.5868471677191405
% es.EY (V/m) @ t=0.88
0.12222173291123561
% es.EZ (V/m) @ t=0.88
-0.40444458916689774
% es.tEX (V/m) @ t=0.88
-1.5868471677191458
% es.tEY (V/m) @ t=0.88
0
% es.tEZ (V/m) @ t=0.88
-0.40444458916689996
% es.Ex (V/m) @ t=0.88
-1.5868471677191405
% es.Ey (V/m) @ t=0.88
0.12222173291123561
% es.Ez (V/m) @ t=0.88
-0.40444458916689774
% es.tEx (V/m) @ t=0.88
-1.5868471677191458
% es.tEy (V/m) @ t=0.88
0
% es.tEz (V/m) @ t=0.88
-0.40444458916689996
% V (V) @ t=0.88
0.009517621992981607
% es.normE (V/m) @ t=0.9
1.6575608157859092
% es.EX (V/m) @ t=0.9
-1.6016433466866982
% es.EY (V/m) @ t=0.9
0.12336462295895012
% es.EZ (V/m) @ t=0.9
-0.4082156717518015
% es.tEX (V/m) @ t=0.9
-1.6016433466866857
% es.tEY (V/m) @ t=0.9
0
% es.tEZ (V/m) @ t=0.9
-0.40821567175180107
% es.Ex (V/m) @ t=0.9
-1.6016433466866982
% es.Ey (V/m) @ t=0.9
0.12336462295895012
% es.Ez (V/m) @ t=0.9
-0.4082156717518015
% es.tEx (V/m) @ t=0.9
-1.6016433466866857
% es.tEy (V/m) @ t=0.9
0
% es.tEz (V/m) @ t=0.9
-0.40821567175180107
% V (V) @ t=0.9
0.009606304520566534
% es.normE (V/m) @ t=0.92
1.672873760369562
% es.EX (V/m) @ t=0.92
-1.6164395256542488
% es.EY (V/m) @ t=0.92
0.12450751300666485
% es.EZ (V/m) @ t=0.92
-0.4119867543367155
% es.tEX (V/m) @ t=0.92
-1.6164395256542488
% es.tEY (V/m) @ t=0.92
0
% es.tEZ (V/m) @ t=0.92
-0.41198675433671816
% es.Ex (V/m) @ t=0.92
-1.6164395256542488
% es.Ey (V/m) @ t=0.92
0.12450751300666485
% es.Ez (V/m) @ t=0.92
-0.4119867543367155
% es.tEx (V/m) @ t=0.92
-1.6164395256542488
% es.tEy (V/m) @ t=0.92
0
% es.tEz (V/m) @ t=0.92
-0.41198675433671816
% V (V) @ t=0.92
0.009694987048151464
% es.normE (V/m) @ t=0.94
1.6881867049635106
% es.EX (V/m) @ t=0.94
-1.631235704621811
% es.EY (V/m) @ t=0.94
0.1256504030543848
% es.EZ (V/m) @ t=0.94
-0.4157578369216228
% es.tEX (V/m) @ t=0.94
-1.631235704621826
% es.tEY (V/m) @ t=0.94
0
% es.tEZ (V/m) @ t=0.94
-0.4157578369216246
% es.Ex (V/m) @ t=0.94
-1.631235704621811
% es.Ey (V/m) @ t=0.94
0.1256504030543848
% es.Ez (V/m) @ t=0.94
-0.4157578369216228
% es.tEx (V/m) @ t=0.94
-1.631235704621826
% es.tEy (V/m) @ t=0.94
0
% es.tEz (V/m) @ t=0.94
-0.4157578369216246
% V (V) @ t=0.94
0.009783669575736391
% es.normE (V/m) @ t=0.96
1.703499649567488
% es.EX (V/m) @ t=0.96
-1.6460318835893935
% es.EY (V/m) @ t=0.96
0.12679329310210397
% es.EZ (V/m) @ t=0.96
-0.4195289195065288
% es.tEX (V/m) @ t=0.96
-1.646031883589389
% es.tEY (V/m) @ t=0.96
0
% es.tEZ (V/m) @ t=0.96
-0.4195289195065186
% es.Ex (V/m) @ t=0.96
-1.6460318835893935
% es.Ey (V/m) @ t=0.96
0.12679329310210397
% es.Ez (V/m) @ t=0.96
-0.4195289195065288
% es.tEx (V/m) @ t=0.96
-1.646031883589389
% es.tEy (V/m) @ t=0.96
0
% es.tEz (V/m) @ t=0.96
-0.4195289195065186
% V (V) @ t=0.96
0.00987235210332132
% es.normE (V/m) @ t=0.98
1.7188125941811605
% es.EX (V/m) @ t=0.98
-1.6608280625569272
% es.EY (V/m) @ t=0.98
0.12793618314981237
% es.EZ (V/m) @ t=0.98
-0.4233000020914459
% es.tEX (V/m) @ t=0.98
-1.660828062556929
% es.tEY (V/m) @ t=0.98
0
% es.tEZ (V/m) @ t=0.98
-0.4233000020914499
% es.Ex (V/m) @ t=0.98
-1.6608280625569272
% es.Ey (V/m) @ t=0.98
0.12793618314981237
% es.Ez (V/m) @ t=0.98
-0.4233000020914459
% es.tEx (V/m) @ t=0.98
-1.660828062556929
% es.tEy (V/m) @ t=0.98
0
% es.tEz (V/m) @ t=0.98
-0.4233000020914499
% V (V) @ t=0.98
0.009961034630906246
% es.normE (V/m) @ t=1
1.73412553880435
% es.EX (V/m) @ t=1
-1.6756242415244982
% es.EY (V/m) @ t=1
0.1290790731975262
% es.EZ (V/m) @ t=1
-0.4270710846763488
% es.tEX (V/m) @ t=1
-1.675624241524508
% es.tEY (V/m) @ t=1
0
% es.tEZ (V/m) @ t=1
-0.42707108467633503
% es.Ex (V/m) @ t=1
-1.6756242415244982
% es.Ey (V/m) @ t=1
0.1290790731975262
% es.Ez (V/m) @ t=1
-0.4270710846763488
% es.tEx (V/m) @ t=1
-1.675624241524508
% es.tEy (V/m) @ t=1
0
% es.tEz (V/m) @ t=1
-0.42707108467633503
% V (V) @ t=1
0.010049717158491176
% es.normE (V/m) @ t=1.02
1.7494384834367744
% es.EX (V/m) @ t=1.02
-1.6904204204920683
% es.EY (V/m) @ t=1.02
0.13022196324523816
% es.EZ (V/m) @ t=1.02
-0.4308421672612619
% es.tEX (V/m) @ t=1.02
-1.6904204204920497
% es.tEY (V/m) @ t=1.02
0
% es.tEZ (V/m) @ t=1.02
-0.43084216726127345
% es.Ex (V/m) @ t=1.02
-1.6904204204920683
% es.Ey (V/m) @ t=1.02
0.13022196324523816
% es.Ez (V/m) @ t=1.02
-0.4308421672612619
% es.tEx (V/m) @ t=1.02