% Model:              1 neuron.mph
% Version:            COMSOL 6.0.0.405
% Date:               Mar 16 2023, 09:47
% Dimension:          0
% Nodes:              14017
% Expressions:        14017
% Description:        Electric field norm, Electric field, X component, Electric field, Y component, Electric field, Z component, Tangential electric field, X component, Tangential electric field, Y component, Tangential electric field, Z component, Electric field, x component, Electric field, y component, Electric field, z component, Tangential electric field, x component, Tangential electric field, y component, Tangential electric field, z component, Electric potential
% Length unit:        mm
% x
1.66
% y
12.2
% z
2
% es.normE (V/m) @ t=0
1.4458790151645813
% es.EX (V/m) @ t=0
-0.4313355470285405
% es.EY (V/m) @ t=0
0.03221863243837519
% es.EZ (V/m) @ t=0
-1.3773442722445628
% es.tEX (V/m) @ t=0
-0.43133554702854937
% es.tEY (V/m) @ t=0
0
% es.tEZ (V/m) @ t=0
-1.3773442722445735
% es.Ex (V/m) @ t=0
-0.4313355470285405
% es.Ey (V/m) @ t=0
0.03221863243837519
% es.Ez (V/m) @ t=0
-1.3773442722445628
% es.tEx (V/m) @ t=0
-0.43133554702854937
% es.tEy (V/m) @ t=0
0
% es.tEz (V/m) @ t=0
-1.3773442722445735
% V (V) @ t=0
0.007267594671170066
% es.normE (V/m) @ t=0.02
1.2488324348225908
% es.EX (V/m) @ t=0.02
-0.37255248602597074
% es.EY (V/m) @ t=0.02
0.027827828626285467
% es.EZ (V/m) @ t=0.02
-1.18963771034344
% es.tEX (V/m) @ t=0.02
-0.37255248602597213
% es.tEY (V/m) @ t=0.02
0
% es.tEZ (V/m) @ t=0.02
-1.1896377103434475
% es.Ex (V/m) @ t=0.02
-0.37255248602597074
% es.Ey (V/m) @ t=0.02
0.027827828626285467
% es.Ez (V/m) @ t=0.02
-1.18963771034344
% es.tEx (V/m) @ t=0.02
-0.37255248602597213
% es.tEy (V/m) @ t=0.02
0
% es.tEz (V/m) @ t=0.02
-1.1896377103434475
% V (V) @ t=0.02
0.006277155861236873
% es.normE (V/m) @ t=0.04
1.2603184520958792
% es.EX (V/m) @ t=0.04
-0.37597900196153866
% es.EY (V/m) @ t=0.04
0.028083772380093575
% es.EZ (V/m) @ t=0.04
-1.200579289795317
% es.tEX (V/m) @ t=0.04
-0.37597900196153944
% es.tEY (V/m) @ t=0.04
0
% es.tEZ (V/m) @ t=0.04
-1.2005792897953231
% es.Ex (V/m) @ t=0.04
-0.37597900196153866
% es.Ey (V/m) @ t=0.04
0.028083772380093575
% es.Ez (V/m) @ t=0.04
-1.200579289795317
% es.tEx (V/m) @ t=0.04
-0.37597900196153944
% es.tEy (V/m) @ t=0.04
0
% es.tEz (V/m) @ t=0.04
-1.2005792897953231
% V (V) @ t=0.04
0.006334889406826054
% es.normE (V/m) @ t=0.06
1.2719057052294125
% es.EX (V/m) @ t=0.06
-0.3794357185836838
% es.EY (V/m) @ t=0.06
0.0283419718821704
% es.EZ (V/m) @ t=0.06
-1.2116173065443174
% es.tEX (V/m) @ t=0.06
-0.3794357185836894
% es.tEY (V/m) @ t=0.06
0
% es.tEZ (V/m) @ t=0.06
-1.2116173065443379
% es.Ex (V/m) @ t=0.06
-0.3794357185836838
% es.Ey (V/m) @ t=0.06
0.0283419718821704
% es.Ez (V/m) @ t=0.06
-1.2116173065443174
% es.tEx (V/m) @ t=0.06
-0.3794357185836894
% es.tEy (V/m) @ t=0.06
0
% es.tEz (V/m) @ t=0.06
-1.2116173065443379
% V (V) @ t=0.06
0.006393131811396893
% es.normE (V/m) @ t=0.08
1.2836752463496923
% es.EX (V/m) @ t=0.08
-0.38294681555191856
% es.EY (V/m) @ t=0.08
0.028604233423900914
% es.EZ (V/m) @ t=0.08
-1.2228289707920013
% es.tEX (V/m) @ t=0.08
-0.38294681555192156
% es.tEY (V/m) @ t=0.08
0
% es.tEZ (V/m) @ t=0.08
-1.222828970792008
% es.Ex (V/m) @ t=0.08
-0.38294681555191856
% es.Ey (V/m) @ t=0.08
0.028604233423900914
% es.Ez (V/m) @ t=0.08
-1.2228289707920013
% es.tEx (V/m) @ t=0.08
-0.38294681555192156
% es.tEy (V/m) @ t=0.08
0
% es.tEz (V/m) @ t=0.08
-1.222828970792008
% V (V) @ t=0.08
0.006452290465970547
% es.normE (V/m) @ t=0.1
1.2955602653448226
% es.EX (V/m) @ t=0.1
-0.38649236200260706
% es.EY (V/m) @ t=0.1
0.02886906823290964
% es.EZ (V/m) @ t=0.1
-1.2341506392395138
% es.tEX (V/m) @ t=0.1
-0.3864923620026133
% es.tEY (V/m) @ t=0.1
0
% es.tEZ (V/m) @ t=0.1
-1.234150639239524
% es.Ex (V/m) @ t=0.1
-0.38649236200260706
% es.Ey (V/m) @ t=0.1
0.02886906823290964
% es.Ez (V/m) @ t=0.1
-1.2341506392395138
% es.tEx (V/m) @ t=0.1
-0.3864923620026133
% es.tEy (V/m) @ t=0.1
0
% es.tEz (V/m) @ t=0.1
-1.234150639239524
% V (V) @ t=0.1
0.006512029557055962
% es.normE (V/m) @ t=0.12
1.30744528433994
% es.EX (V/m) @ t=0.12
-0.39003790845330233
% es.EY (V/m) @ t=0.12
0.029133903041902436
% es.EZ (V/m) @ t=0.12
-1.2454723076870113
% es.tEX (V/m) @ t=0.12
-0.39003790845330855
% es.tEY (V/m) @ t=0.12
0
% es.tEZ (V/m) @ t=0.12
-1.2454723076870255
% es.Ex (V/m) @ t=0.12
-0.39003790845330233
% es.Ey (V/m) @ t=0.12
0.029133903041902436
% es.Ez (V/m) @ t=0.12
-1.2454723076870113
% es.tEx (V/m) @ t=0.12
-0.39003790845330855
% es.tEy (V/m) @ t=0.12
0
% es.tEz (V/m) @ t=0.12
-1.2454723076870255
% V (V) @ t=0.12
0.006571768648141377
% es.normE (V/m) @ t=0.14
1.3194778447499476
% es.EX (V/m) @ t=0.14
-0.3936274695380469
% es.EY (V/m) @ t=0.14
0.029402025514218763
% es.EZ (V/m) @ t=0.14
-1.256934524083329
% es.tEX (V/m) @ t=0.14
-0.3936274695380497
% es.tEY (V/m) @ t=0.14
0
% es.tEZ (V/m) @ t=0.14
-1.2569345240833405
% es.Ex (V/m) @ t=0.14
-0.3936274695380469
% es.Ey (V/m) @ t=0.14
0.029402025514218763
% es.Ez (V/m) @ t=0.14
-1.256934524083329
% es.tEx (V/m) @ t=0.14
-0.3936274695380497
% es.tEy (V/m) @ t=0.14
0
% es.tEz (V/m) @ t=0.14
-1.2569345240833405
% V (V) @ t=0.14
0.006632249345238642
% es.normE (V/m) @ t=0.16
1.3319926625443768
% es.EX (V/m) @ t=0.16
-0.3973608979044901
% es.EY (V/m) @ t=0.16
0.02968089412121075
% es.EZ (V/m) @ t=0.16
-1.268856138854217
% es.tEX (V/m) @ t=0.16
-0.3973608979044947
% es.tEY (V/m) @ t=0.16
0
% es.tEZ (V/m) @ t=0.16
-1.2688561388542228
% es.Ex (V/m) @ t=0.16
-0.3973608979044901
% es.Ey (V/m) @ t=0.16
0.02968089412121075
% es.Ez (V/m) @ t=0.16
-1.268856138854217
% es.tEx (V/m) @ t=0.16
-0.3973608979044947
% es.tEy (V/m) @ t=0.16
0
% es.tEz (V/m) @ t=0.16
-1.2688561388542228
% V (V) @ t=0.16
0.006695154073417758
% es.normE (V/m) @ t=0.18
1.3445074803388009
% es.EX (V/m) @ t=0.18
-0.4010943262709312
% es.EY (V/m) @ t=0.18
0.029959762728200806
% es.EZ (V/m) @ t=0.18
-1.280777753625101
% es.tEX (V/m) @ t=0.18
-0.40109432627093256
% es.tEY (V/m) @ t=0.18
0
% es.tEZ (V/m) @ t=0.18
-1.2807777536251184
% es.Ex (V/m) @ t=0.18
-0.4010943262709312
% es.Ey (V/m) @ t=0.18
0.029959762728200806
% es.Ez (V/m) @ t=0.18
-1.280777753625101
% es.tEx (V/m) @ t=0.18
-0.40109432627093256
% es.tEy (V/m) @ t=0.18
0
% es.tEz (V/m) @ t=0.18
-1.2807777536251184
% V (V) @ t=0.18
0.006758058801596876
% es.normE (V/m) @ t=0.2
1.3570222981332258
% es.EX (V/m) @ t=0.2
-0.40482775463737225
% es.EY (V/m) @ t=0.2
0.030238631335198225
% es.EZ (V/m) @ t=0.2
-1.292699368395985
% es.tEX (V/m) @ t=0.2
-0.4048277546373775
% es.tEY (V/m) @ t=0.2
0
% es.tEZ (V/m) @ t=0.2
-1.2926993683959935
% es.Ex (V/m) @ t=0.2
-0.40482775463737225
% es.Ey (V/m) @ t=0.2
0.030238631335198225
% es.Ez (V/m) @ t=0.2
-1.292699368395985
% es.tEx (V/m) @ t=0.2
-0.4048277546373775
% es.tEy (V/m) @ t=0.2
0
% es.tEz (V/m) @ t=0.2
-1.2926993683959935
% V (V) @ t=0.2
0.0068209635297759915
% es.normE (V/m) @ t=0.22
1.369537115927647
% es.EX (V/m) @ t=0.22
-0.4085611830038133
% es.EY (V/m) @ t=0.22
0.030517499942182086
% es.EZ (V/m) @ t=0.22
-1.304620983166866
% es.tEX (V/m) @ t=0.22
-0.40856118300381894
% es.tEY (V/m) @ t=0.22
0
% es.tEZ (V/m) @ t=0.22
-1.3046209831668811
% es.Ex (V/m) @ t=0.22
-0.4085611830038133
% es.Ey (V/m) @ t=0.22
0.030517499942182086
% es.Ez (V/m) @ t=0.22
-1.304620983166866
% es.tEx (V/m) @ t=0.22
-0.40856118300381894
% es.tEy (V/m) @ t=0.22
0
% es.tEz (V/m) @ t=0.22
-1.3046209831668811
% V (V) @ t=0.22
0.006883868257955108
% es.normE (V/m) @ t=0.24
1.3820519337220643
% es.EX (V/m) @ t=0.24
-0.4122946113702509
% es.EY (V/m) @ t=0.24
0.030796368549174044
% es.EZ (V/m) @ t=0.24
-1.316542597937743
% es.tEX (V/m) @ t=0.24
-0.4122946113702568
% es.tEY (V/m) @ t=0.24
0
% es.tEZ (V/m) @ t=0.24
-1.3165425979377554
% es.Ex (V/m) @ t=0.24
-0.4122946113702509
% es.Ey (V/m) @ t=0.24
0.030796368549174044
% es.Ez (V/m) @ t=0.24
-1.316542597937743
% es.tEx (V/m) @ t=0.24
-0.4122946113702568
% es.tEy (V/m) @ t=0.24
0
% es.tEz (V/m) @ t=0.24
-1.3165425979377554
% V (V) @ t=0.24
0.006946772986134225
% es.normE (V/m) @ t=0.26
1.3945667515164866
% es.EX (V/m) @ t=0.26
-0.41602803973669367
% es.EY (V/m) @ t=0.26
0.031075237156170693
% es.EZ (V/m) @ t=0.26
-1.328464212708624
% es.tEX (V/m) @ t=0.26
-0.4160280397366982
% es.tEY (V/m) @ t=0.26
0
% es.tEZ (V/m) @ t=0.26
-1.3284642127086377
% es.Ex (V/m) @ t=0.26
-0.41602803973669367
% es.Ey (V/m) @ t=0.26
0.031075237156170693
% es.Ez (V/m) @ t=0.26
-1.328464212708624
% es.tEx (V/m) @ t=0.26
-0.4160280397366982
% es.tEy (V/m) @ t=0.26
0
% es.tEz (V/m) @ t=0.26
-1.3284642127086377
% V (V) @ t=0.26
0.007009677714313341
% es.normE (V/m) @ t=0.28
1.407758684858781
% es.EX (V/m) @ t=0.28
-0.41996346403036133
% es.EY (V/m) @ t=0.28
0.03136919243906109
% es.EZ (V/m) @ t=0.28
-1.3410308482572146
% es.tEX (V/m) @ t=0.28
-0.4199634640303671
% es.tEY (V/m) @ t=0.28
0
% es.tEZ (V/m) @ t=0.28
-1.3410308482572217
% es.Ex (V/m) @ t=0.28
-0.41996346403036133
% es.Ey (V/m) @ t=0.28
0.03136919243906109
% es.Ez (V/m) @ t=0.28
-1.3410308482572146
% es.tEx (V/m) @ t=0.28
-0.4199634640303671
% es.tEy (V/m) @ t=0.28
0
% es.tEz (V/m) @ t=0.28
-1.3410308482572217
% V (V) @ t=0.28
0.007075986012504251
% es.normE (V/m) @ t=0.3
1.4216887852979365
% es.EX (V/m) @ t=0.3
-0.4241190970426809
% es.EY (V/m) @ t=0.3
0.031679594675191984
% es.EZ (V/m) @ t=0.3
-1.3543006623347762
% es.tEX (V/m) @ t=0.3
-0.4241190970426878
% es.tEY (V/m) @ t=0.3
0
% es.tEZ (V/m) @ t=0.3
-1.3543006623347873
% es.Ex (V/m) @ t=0.3
-0.4241190970426809
% es.Ey (V/m) @ t=0.3
0.031679594675191984
% es.Ez (V/m) @ t=0.3
-1.3543006623347762
% es.tEx (V/m) @ t=0.3
-0.4241190970426878
% es.tEy (V/m) @ t=0.3
0
% es.tEz (V/m) @ t=0.3
-1.3543006623347873
% V (V) @ t=0.3
0.00714600476071005
% es.normE (V/m) @ t=0.32
1.4356188857371084
% es.EX (V/m) @ t=0.32
-0.42827473005500416
% es.EY (V/m) @ t=0.32
0.031989996911320186
% es.EZ (V/m) @ t=0.32
-1.367570476412355
% es.tEX (V/m) @ t=0.32
-0.4282747300550085
% es.tEY (V/m) @ t=0.32
0
% es.tEZ (V/m) @ t=0.32
-1.367570476412367
% es.Ex (V/m) @ t=0.32
-0.42827473005500416
% es.Ey (V/m) @ t=0.32
0.031989996911320186
% es.Ez (V/m) @ t=0.32
-1.367570476412355
% es.tEx (V/m) @ t=0.32
-0.4282747300550085
% es.tEy (V/m) @ t=0.32
0
% es.tEz (V/m) @ t=0.32
-1.367570476412367
% V (V) @ t=0.32
0.007216023508915846
% es.normE (V/m) @ t=0.34
1.4495489861762816
% es.EX (V/m) @ t=0.34
-0.4324303630673274
% es.EY (V/m) @ t=0.34
0.03230039914744905
% es.EZ (V/m) @ t=0.34
-1.380840290489934
% es.tEX (V/m) @ t=0.34
-0.4324303630673292
% es.tEY (V/m) @ t=0.34
0
% es.tEZ (V/m) @ t=0.34
-1.3808402904899468
% es.Ex (V/m) @ t=0.34
-0.4324303630673274
% es.Ey (V/m) @ t=0.34
0.03230039914744905
% es.Ez (V/m) @ t=0.34
-1.380840290489934
% es.tEx (V/m) @ t=0.34
-0.4324303630673292
% es.tEy (V/m) @ t=0.34
0
% es.tEz (V/m) @ t=0.34
-1.3808402904899468
% V (V) @ t=0.34
0.007286042257121644
% es.normE (V/m) @ t=0.36
1.4634790866154397
% es.EX (V/m) @ t=0.36
-0.43658599607964965
% es.EY (V/m) @ t=0.36
0.032610801383577956
% es.EZ (V/m) @ t=0.36
-1.394110104567499
% es.tEX (V/m) @ t=0.36
-0.436585996079657
% es.tEY (V/m) @ t=0.36
0
% es.tEZ (V/m) @ t=0.36
-1.3941101045675124
% es.Ex (V/m) @ t=0.36
-0.43658599607964965
% es.Ey (V/m) @ t=0.36
0.032610801383577956
% es.Ez (V/m) @ t=0.36
-1.394110104567499
% es.tEx (V/m) @ t=0.36
-0.436585996079657
% es.tEy (V/m) @ t=0.36
0
% es.tEz (V/m) @ t=0.36
-1.3941101045675124
% V (V) @ t=0.36
0.0073560610053274396
% es.normE (V/m) @ t=0.38
1.4774091870546204
% es.EX (V/m) @ t=0.38
-0.44074162909197645
% es.EY (V/m) @ t=0.38
0.032921203619710404
% es.EZ (V/m) @ t=0.38
-1.407379918645085
% es.tEX (V/m) @ t=0.38
-0.4407416290919812
% es.tEY (V/m) @ t=0.38
0
% es.tEZ (V/m) @ t=0.38
-1.4073799186450922
% es.Ex (V/m) @ t=0.38
-0.44074162909197645
% es.Ey (V/m) @ t=0.38
0.032921203619710404
% es.Ez (V/m) @ t=0.38
-1.407379918645085
% es.tEx (V/m) @ t=0.38
-0.4407416290919812
% es.tEy (V/m) @ t=0.38
0
% es.tEz (V/m) @ t=0.38
-1.4073799186450922
% V (V) @ t=0.38
0.007426079753533238
% es.normE (V/m) @ t=0.4
1.4913392874937785
% es.EX (V/m) @ t=0.4
-0.4448972621042988
% es.EY (V/m) @ t=0.4
0.033231605855840375
% es.EZ (V/m) @ t=0.4
-1.4206497327226497
% es.tEX (V/m) @ t=0.4
-0.4448972621043019
% es.tEY (V/m) @ t=0.4
0
% es.tEZ (V/m) @ t=0.4
-1.4206497327226657
% es.Ex (V/m) @ t=0.4
-0.4448972621042988
% es.Ey (V/m) @ t=0.4
0.033231605855840375
% es.Ez (V/m) @ t=0.4
-1.4206497327226497
% es.tEx (V/m) @ t=0.4
-0.4448972621043019
% es.tEy (V/m) @ t=0.4
0
% es.tEz (V/m) @ t=0.4
-1.4206497327226657
% V (V) @ t=0.4
0.007496098501739035
% es.normE (V/m) @ t=0.42
1.5052693879329575
% es.EX (V/m) @ t=0.42
-0.44905289511662116
% es.EY (V/m) @ t=0.42
0.03354200809196547
% es.EZ (V/m) @ t=0.42
-1.4339195468002357
% es.tEX (V/m) @ t=0.42
-0.44905289511662616
% es.tEY (V/m) @ t=0.42
0
% es.tEZ (V/m) @ t=0.42
-1.4339195468002455
% es.Ex (V/m) @ t=0.42
-0.44905289511662116
% es.Ey (V/m) @ t=0.42
0.03354200809196547
% es.Ez (V/m) @ t=0.42
-1.4339195468002357
% es.tEx (V/m) @ t=0.42
-0.44905289511662616
% es.tEy (V/m) @ t=0.42
0
% es.tEz (V/m) @ t=0.42
-1.4339195468002455
% V (V) @ t=0.42
0.007566117249944832
% es.normE (V/m) @ t=0.44
1.519199488372117
% es.EX (V/m) @ t=0.44
-0.4532085281289435
% es.EY (V/m) @ t=0.44
0.033852410328098145
% es.EZ (V/m) @ t=0.44
-1.4471893608778008
% es.tEX (V/m) @ t=0.44
-0.45320852812894685
% es.tEY (V/m) @ t=0.44
0
% es.tEZ (V/m) @ t=0.44
-1.447189360877811
% es.Ex (V/m) @ t=0.44
-0.4532085281289435
% es.Ey (V/m) @ t=0.44
0.033852410328098145
% es.Ez (V/m) @ t=0.44
-1.4471893608778008
% es.tEx (V/m) @ t=0.44
-0.45320852812894685
% es.tEy (V/m) @ t=0.44
0
% es.tEz (V/m) @ t=0.44
-1.447189360877811
% V (V) @ t=0.44
0.0076361359981506295
% es.normE (V/m) @ t=0.46
1.5331295888112901
% es.EX (V/m) @ t=0.46
-0.45736416114126943
% es.EY (V/m) @ t=0.46
0.03416281256423589
% es.EZ (V/m) @ t=0.46
-1.4604591749553797
% es.tEX (V/m) @ t=0.46
-0.4573641611412711
% es.tEY (V/m) @ t=0.46
0
% es.tEZ (V/m) @ t=0.46
-1.460459174955398
% es.Ex (V/m) @ t=0.46
-0.45736416114126943
% es.Ey (V/m) @ t=0.46
0.03416281256423589
% es.Ez (V/m) @ t=0.46
-1.4604591749553797
% es.tEx (V/m) @ t=0.46
-0.4573641611412711
% es.tEy (V/m) @ t=0.46
0
% es.tEz (V/m) @ t=0.46
-1.460459174955398
% V (V) @ t=0.46
0.007706154746356427
% es.normE (V/m) @ t=0.48
1.5470596892504551
% es.EX (V/m) @ t=0.48
-0.4615197941535918
% es.EY (V/m) @ t=0.48
0.03447321480035254
% es.EZ (V/m) @ t=0.48
-1.4737289890329515
% es.tEX (V/m) @ t=0.48
-0.4615197941535918
% es.tEY (V/m) @ t=0.48
0
% es.tEZ (V/m) @ t=0.48
-1.4737289890329643
% es.Ex (V/m) @ t=0.48
-0.4615197941535918
% es.Ey (V/m) @ t=0.48
0.03447321480035254
% es.Ez (V/m) @ t=0.48
-1.4737289890329515
% es.tEx (V/m) @ t=0.48
-0.4615197941535918
% es.tEy (V/m) @ t=0.48
0
% es.tEz (V/m) @ t=0.48
-1.4737289890329643
% V (V) @ t=0.48
0.007776173494562224
% es.normE (V/m) @ t=0.5
1.560989789689621
% es.EX (V/m) @ t=0.5
-0.4656754271659122
% es.EY (V/m) @ t=0.5
0.034783617036485005
% es.EZ (V/m) @ t=0.5
-1.4869988031105237
% es.tEX (V/m) @ t=0.5
-0.46567542716591603
% es.tEY (V/m) @ t=0.5
0
% es.tEZ (V/m) @ t=0.5
-1.486998803110545
% es.Ex (V/m) @ t=0.5
-0.4656754271659122
% es.Ey (V/m) @ t=0.5
0.034783617036485005
% es.Ez (V/m) @ t=0.5
-1.4869988031105237
% es.tEx (V/m) @ t=0.5
-0.46567542716591603
% es.tEy (V/m) @ t=0.5
0
% es.tEz (V/m) @ t=0.5
-1.486998803110545
% V (V) @ t=0.5
0.007846192242768023
% es.normE (V/m) @ t=0.52
1.5749198901287933
% es.EX (V/m) @ t=0.52
-0.46983106017823373
% es.EY (V/m) @ t=0.52
0.035094019272621
% es.EZ (V/m) @ t=0.52
-1.5002686171881026
% es.tEX (V/m) @ t=0.52
-0.4698310601782367
% es.tEY (V/m) @ t=0.52
0
% es.tEZ (V/m) @ t=0.52
-1.5002686171881097
% es.Ex (V/m) @ t=0.52
-0.46983106017823373
% es.Ey (V/m) @ t=0.52
0.035094019272621
% es.Ez (V/m) @ t=0.52
-1.5002686171881026
% es.tEx (V/m) @ t=0.52
-0.4698310601782367
% es.tEy (V/m) @ t=0.52
0
% es.tEz (V/m) @ t=0.52
-1.5002686171881097
% V (V) @ t=0.52
0.007916210990973819
% es.normE (V/m) @ t=0.54
1.588849990567966
% es.EX (V/m) @ t=0.54
-0.47398669319055964
% es.EY (V/m) @ t=0.54
0.03540442150873921
% es.EZ (V/m) @ t=0.54
-1.5135384312656814
% es.tEX (V/m) @ t=0.54
-0.4739866931905681
% es.tEY (V/m) @ t=0.54
0
% es.tEZ (V/m) @ t=0.54
-1.5135384312656974
% es.Ex (V/m) @ t=0.54
-0.47398669319055964
% es.Ey (V/m) @ t=0.54
0.03540442150873921
% es.Ez (V/m) @ t=0.54
-1.5135384312656814
% es.tEx (V/m) @ t=0.54
-0.4739866931905681
% es.tEy (V/m) @ t=0.54
0
% es.tEz (V/m) @ t=0.54
-1.5135384312656974
% V (V) @ t=0.54
0.007986229739179616
% es.normE (V/m) @ t=0.56
1.6043297627274833
% es.EX (V/m) @ t=0.56
-0.47860462829275807
% es.EY (V/m) @ t=0.56
0.03574935801484993
% es.EZ (V/m) @ t=0.56
-1.528284461521785
% es.tEX (V/m) @ t=0.56
-0.4786046282927572
% es.tEY (V/m) @ t=0.56
0
% es.tEZ (V/m) @ t=0.56
-1.5282844615217908
% es.Ex (V/m) @ t=0.56
-0.47860462829275807
% es.Ey (V/m) @ t=0.56
0.03574935801484993
% es.Ez (V/m) @ t=0.56
-1.528284461521785
% es.tEx (V/m) @ t=0.56
-0.4786046282927572
% es.tEy (V/m) @ t=0.56
0
% es.tEz (V/m) @ t=0.56
-1.5282844615217908
% V (V) @ t=0.56
0.008064037595795397
% es.normE (V/m) @ t=0.58
1.6198628189152768
% es.EX (V/m) @ t=0.58
-0.48323845922457476
% es.EY (V/m) @ t=0.58
0.036095481949888646
% es.EZ (V/m) @ t=0.58
-1.543081250105324
% es.tEX (V/m) @ t=0.58
-0.4832384592245802
% es.tEY (V/m) @ t=0.58
0
% es.tEZ (V/m) @ t=0.58
-1.54308125010534
% es.Ex (V/m) @ t=0.58
-0.48323845922457476
% es.Ey (V/m) @ t=0.58
0.036095481949888646
% es.Ez (V/m) @ t=0.58
-1.543081250105324
% es.tEx (V/m) @ t=0.58
-0.4832384592245802
% es.tEy (V/m) @ t=0.58
0
% es.tEz (V/m) @ t=0.58
-1.54308125010534
% V (V) @ t=0.58
0.008142113273696986
% es.normE (V/m) @ t=0.6
1.635395875103077
% es.EX (V/m) @ t=0.6
-0.48787229015639144
% es.EY (V/m) @ t=0.6
0.0364416058849238
% es.EZ (V/m) @ t=0.6
-1.55787803868887
% es.tEX (V/m) @ t=0.6
-0.4878722901563961
% es.tEY (V/m) @ t=0.6
0
% es.tEZ (V/m) @ t=0.6
-1.557878038688881
% es.Ex (V/m) @ t=0.6
-0.48787229015639144
% es.Ey (V/m) @ t=0.6
0.0364416058849238
% es.Ez (V/m) @ t=0.6
-1.55787803868887
% es.tEx (V/m) @ t=0.6
-0.4878722901563961
% es.tEy (V/m) @ t=0.6
0
% es.tEz (V/m) @ t=0.6
-1.557878038688881
% V (V) @ t=0.6
0.008220188951598576
% es.normE (V/m) @ t=0.62
1.6509289312908606
% es.EX (V/m) @ t=0.62
-0.492506121088217
% es.EY (V/m) @ t=0.62
0.03678772981995164
% es.EZ (V/m) @ t=0.62
-1.5726748272723947
% es.tEX (V/m) @ t=0.62
-0.49250612108822267
% es.tEY (V/m) @ t=0.62
0
% es.tEZ (V/m) @ t=0.62
-1.572674827272409
% es.Ex (V/m) @ t=0.62
-0.492506121088217
% es.Ey (V/m) @ t=0.62
0.03678772981995164
% es.Ez (V/m) @ t=0.62
-1.5726748272723947
% es.tEx (V/m) @ t=0.62
-0.49250612108822267
% es.tEy (V/m) @ t=0.62
0
% es.tEz (V/m) @ t=0.62
-1.572674827272409
% V (V) @ t=0.62
0.008298264629500163
% es.normE (V/m) @ t=0.64
1.6664619874786673
% es.EX (V/m) @ t=0.64
-0.49713995202003547
% es.EY (V/m) @ t=0.64
0.03713385375498483
% es.EZ (V/m) @ t=0.64
-1.5874716158559479
% es.tEX (V/m) @ t=0.64
-0.4971399520200386
% es.tEY (V/m) @ t=0.64
0
% es.tEZ (V/m) @ t=0.64
-1.587471615855958
% es.Ex (V/m) @ t=0.64
-0.49713995202003547
% es.Ey (V/m) @ t=0.64
0.03713385375498483
% es.Ez (V/m) @ t=0.64
-1.5874716158559479
% es.tEx (V/m) @ t=0.64
-0.4971399520200386
% es.tEy (V/m) @ t=0.64
0
% es.tEz (V/m) @ t=0.64
-1.587471615855958
% V (V) @ t=0.64
0.008376340307401756
% es.normE (V/m) @ t=0.66
1.6819950436664524
% es.EX (V/m) @ t=0.66
-0.5017737829518488
% es.EY (V/m) @ t=0.66
0.037479977690014626
% es.EZ (V/m) @ t=0.66
-1.6022684044394788
% es.tEX (V/m) @ t=0.66
-0.5017737829518509
% es.tEY (V/m) @ t=0.66
0
% es.tEZ (V/m) @ t=0.66
-1.6022684044395001
% es.Ex (V/m) @ t=0.66
-0.5017737829518488
% es.Ey (V/m) @ t=0.66
0.037479977690014626
% es.Ez (V/m) @ t=0.66
-1.6022684044394788
% es.tEx (V/m) @ t=0.66
-0.5017737829518509
% es.tEy (V/m) @ t=0.66
0
% es.tEz (V/m) @ t=0.66
-1.6022684044395001
% V (V) @ t=0.66
0.008454415985303344
% es.normE (V/m) @ t=0.68
1.6975280998542466
% es.EX (V/m) @ t=0.68
-0.5064076138836655
% es.EY (V/m) @ t=0.68
0.03782610162504601
% es.EZ (V/m) @ t=0.68
-1.6170651930230178
% es.tEX (V/m) @ t=0.68
-0.5064076138836704
% es.tEY (V/m) @ t=0.68
0
% es.tEZ (V/m) @ t=0.68
-1.6170651930230342
% es.Ex (V/m) @ t=0.68
-0.5064076138836655
% es.Ey (V/m) @ t=0.68
0.03782610162504601
% es.Ez (V/m) @ t=0.68
-1.6170651930230178
% es.tEx (V/m) @ t=0.68
-0.5064076138836704
% es.tEy (V/m) @ t=0.68
0
% es.tEz (V/m) @ t=0.68
-1.6170651930230342
% V (V) @ t=0.68
0.008532491663204935
% es.normE (V/m) @ t=0.7
1.7130611560420466
% es.EX (V/m) @ t=0.7
-0.5110414448154813
% es.EY (V/m) @ t=0.7
0.038172225560073846
% es.EZ (V/m) @ t=0.7
-1.6318619816065638
% es.tEX (V/m) @ t=0.7
-0.5110414448154863
% es.tEY (V/m) @ t=0.7
0
% es.tEZ (V/m) @ t=0.7
-1.6318619816065763
% es.Ex (V/m) @ t=0.7
-0.5110414448154813
% es.Ey (V/m) @ t=0.7
0.038172225560073846
% es.Ez (V/m) @ t=0.7
-1.6318619816065638
% es.tEx (V/m) @ t=0.7
-0.5110414448154863
% es.tEy (V/m) @ t=0.7
0
% es.tEz (V/m) @ t=0.7
-1.6318619816065763
% V (V) @ t=0.7
0.008610567341106524
% es.normE (V/m) @ t=0.72
1.7285942122298286
% es.EX (V/m) @ t=0.72
-0.5156752757473033
% es.EY (V/m) @ t=0.72
0.03851834949511433
% es.EZ (V/m) @ t=0.72
-1.6466587701900885
% es.tEX (V/m) @ t=0.72
-0.5156752757473058
% es.tEY (V/m) @ t=0.72
0
% es.tEZ (V/m) @ t=0.72
-1.646658770190104
% es.Ex (V/m) @ t=0.72
-0.5156752757473033
% es.Ey (V/m) @ t=0.72
0.03851834949511433
% es.Ez (V/m) @ t=0.72
-1.6466587701900885
% es.tEx (V/m) @ t=0.72
-0.5156752757473058
% es.tEy (V/m) @ t=0.72
0
% es.tEz (V/m) @ t=0.72
-1.646658770190104
% V (V) @ t=0.72
0.008688643019008114
% es.normE (V/m) @ t=0.74
1.7441272684176428
% es.EX (V/m) @ t=0.74
-0.5203091066791227
% es.EY (V/m) @ t=0.74
0.03886447343014375
% es.EZ (V/m) @ t=0.74
-1.6614555587736488
% es.tEX (V/m) @ t=0.74
-0.5203091066791288
% es.tEY (V/m) @ t=0.74
0
% es.tEZ (V/m) @ t=0.74
-1.6614555587736604
% es.Ex (V/m) @ t=0.74
-0.5203091066791227
% es.Ey (V/m) @ t=0.74
0.03886447343014375
% es.Ez (V/m) @ t=0.74
-1.6614555587736488
% es.tEx (V/m) @ t=0.74
-0.5203091066791288
% es.tEy (V/m) @ t=0.74
0
% es.tEz (V/m) @ t=0.74
-1.6614555587736604
% V (V) @ t=0.74
0.008766718696909705
% es.normE (V/m) @ t=0.76
1.759660324605436
% es.EX (V/m) @ t=0.76
-0.5249429376109376
% es.EY (V/m) @ t=0.76
0.039210597365178915
% es.EZ (V/m) @ t=0.76
-1.6762523473571878
% es.tEX (V/m) @ t=0.76
-0.5249429376109447
% es.tEY (V/m) @ t=0.76
0
% es.tEZ (V/m) @ t=0.76
-1.6762523473572015
% es.Ex (V/m) @ t=0.76
-0.5249429376109376
% es.Ey (V/m) @ t=0.76
0.039210597365178915
% es.Ez (V/m) @ t=0.76
-1.6762523473571878
% es.tEx (V/m) @ t=0.76
-0.5249429376109447
% es.tEy (V/m) @ t=0.76
0
% es.tEz (V/m) @ t=0.76
-1.6762523473572015
% V (V) @ t=0.76
0.008844794374811296
% es.normE (V/m) @ t=0.78
1.7751933807932292
% es.EX (V/m) @ t=0.78
-0.5295767685427554
% es.EY (V/m) @ t=0.78
0.039556721300208486
% es.EZ (V/m) @ t=0.78
-1.6910491359407258
% es.tEX (V/m) @ t=0.78
-0.529576768542757
% es.tEY (V/m) @ t=0.78
0
% es.tEZ (V/m) @ t=0.78
-1.6910491359407365
% es.Ex (V/m) @ t=0.78
-0.5295767685427554
% es.Ey (V/m) @ t=0.78
0.039556721300208486
% es.Ez (V/m) @ t=0.78
-1.6910491359407258
% es.tEx (V/m) @ t=0.78
-0.529576768542757
% es.tEy (V/m) @ t=0.78
0
% es.tEz (V/m) @ t=0.78
-1.6910491359407365
% V (V) @ t=0.78
0.008922870052712884
% es.normE (V/m) @ t=0.8
1.7907264369810143
% es.EX (V/m) @ t=0.8
-0.5342105994745694
% es.EY (V/m) @ t=0.8
0.039902845235241874
% es.EZ (V/m) @ t=0.8
-1.7058459245242577
% es.tEX (V/m) @ t=0.8
-0.534210599474573
% es.tEY (V/m) @ t=0.8
0
% es.tEZ (V/m) @ t=0.8
-1.7058459245242705
% es.Ex (V/m) @ t=0.8
-0.5342105994745694
% es.Ey (V/m) @ t=0.8
0.039902845235241874
% es.Ez (V/m) @ t=0.8
-1.7058459245242577
% es.tEx (V/m) @ t=0.8
-0.534210599474573
% es.tEy (V/m) @ t=0.8
0
% es.tEz (V/m) @ t=0.8
-1.7058459245242705
% V (V) @ t=0.8
0.009000945730614471
% es.normE (V/m) @ t=0.82
1.8070871169662763
% es.EX (V/m) @ t=0.82
-0.5390913277104292
% es.EY (V/m) @ t=0.82
0.04026741121903474
% es.EZ (V/m) @ t=0.82
-1.7214311074772657
% es.tEX (V/m) @ t=0.82
-0.5390913277104339
% es.tEY (V/m) @ t=0.82
0
% es.tEZ (V/m) @ t=0.82
-1.7214311074772786
% es.Ex (V/m) @ t=0.82
-0.5390913277104292
% es.Ey (V/m) @ t=0.82
0.04026741121903474
% es.Ez (V/m) @ t=0.82
-1.7214311074772657
% es.tEx (V/m) @ t=0.82
-0.5390913277104339
% es.tEy (V/m) @ t=0.82
0
% es.tEz (V/m) @ t=0.82
-1.7214311074772786
% V (V) @ t=0.82
0.009083181389963614
% es.normE (V/m) @ t=0.84
1.8244387809903213
% es.EX (V/m) @ t=0.84
-0.5442676869905776
% es.EY (V/m) @ t=0.84
0.040654059429128
% es.EZ (V/m) @ t=0.84
-1.7379603017537777
% es.tEX (V/m) @ t=0.84
-0.5442676869905831
% es.tEY (V/m) @ t=0.84
0
% es.tEZ (V/m) @ t=0.84
-1.7379603017537884
% es.Ex (V/m) @ t=0.84
-0.5442676869905776
% es.Ey (V/m) @ t=0.84
0.040654059429128
% es.Ez (V/m) @ t=0.84
-1.7379603017537777
% es.tEx (V/m) @ t=0.84
-0.5442676869905831
% es.tEy (V/m) @ t=0.84
0
% es.tEz (V/m) @ t=0.84
-1.7379603017537884
% V (V) @ t=0.84
0.009170398147281371
% es.normE (V/m) @ t=0.86
1.8417904450143756
% es.EX (V/m) @ t=0.86
-0.5494440462707311
% es.EY (V/m) @ t=0.86
0.041040707639206475
% es.EZ (V/m) @ t=0.86
-1.7544894960302972
% es.tEX (V/m) @ t=0.86
-0.549444046270736
% es.tEY (V/m) @ t=0.86
0
% es.tEZ (V/m) @ t=0.86
-1.7544894960303203
% es.Ex (V/m) @ t=0.86
-0.5494440462707311
% es.Ey (V/m) @ t=0.86
0.041040707639206475
% es.Ez (V/m) @ t=0.86
-1.7544894960302972
% es.tEx (V/m) @ t=0.86
-0.549444046270736
% es.tEy (V/m) @ t=0.86
0
% es.tEz (V/m) @ t=0.86
-1.7544894960303203
% V (V) @ t=0.86
0.00925761490459913
% es.normE (V/m) @ t=0.88
1.8591421090384492
% es.EX (V/m) @ t=0.88
-0.5546204055508867
% es.EY (V/m) @ t=0.88
0.04142735584928664
% es.EZ (V/m) @ t=0.88
-1.7710186903068372
% es.tEX (V/m) @ t=0.88
-0.5546204055508923
% es.tEY (V/m) @ t=0.88
0
% es.tEZ (V/m) @ t=0.88
-1.7710186903068506
% es.Ex (V/m) @ t=0.88
-0.5546204055508867
% es.Ey (V/m) @ t=0.88
0.04142735584928664
% es.Ez (V/m) @ t=0.88
-1.7710186903068372
% es.tEx (V/m) @ t=0.88
-0.5546204055508923
% es.tEy (V/m) @ t=0.88
0
% es.tEz (V/m) @ t=0.88
-1.7710186903068506
% V (V) @ t=0.88
0.009344831661916889
% es.normE (V/m) @ t=0.9
1.8764937730625018
% es.EX (V/m) @ t=0.9
-0.5597967648310395
% es.EY (V/m) @ t=0.9
0.0418140040593815
% es.EZ (V/m) @ t=0.9
-1.787547884583356
% es.tEX (V/m) @ t=0.9
-0.5597967648310416
% es.tEY (V/m) @ t=0.9
0
% es.tEZ (V/m) @ t=0.9
-1.7875478845833754
% es.Ex (V/m) @ t=0.9
-0.5597967648310395
% es.Ey (V/m) @ t=0.9
0.0418140040593815
% es.Ez (V/m) @ t=0.9
-1.787547884583356
% es.tEx (V/m) @ t=0.9
-0.5597967648310416
% es.tEy (V/m) @ t=0.9
0
% es.tEz (V/m) @ t=0.9
-1.7875478845833754
% V (V) @ t=0.9
0.009432048419234645
% es.normE (V/m) @ t=0.92
1.8938454370865623
% es.EX (V/m) @ t=0.92
-0.564973124111193
% es.EY (V/m) @ t=0.92
0.04220065226945993
% es.EZ (V/m) @ t=0.92
-1.804077078859882
% es.tEX (V/m) @ t=0.92
-0.5649731241112015
% es.tEY (V/m) @ t=0.92
0
% es.tEZ (V/m) @ t=0.92
-1.8040770788598994
% es.Ex (V/m) @ t=0.92
-0.564973124111193
% es.Ey (V/m) @ t=0.92
0.04220065226945993
% es.Ez (V/m) @ t=0.92
-1.804077078859882
% es.tEx (V/m) @ t=0.92
-0.5649731241112015
% es.tEy (V/m) @ t=0.92
0
% es.tEz (V/m) @ t=0.92
-1.8040770788598994
% V (V) @ t=0.92
0.009519265176552405
% es.normE (V/m) @ t=0.94
1.9111971011106212
% es.EX (V/m) @ t=0.94
-0.5701494833913441
% es.EY (V/m) @ t=0.94
0.04258730047954898
% es.EZ (V/m) @ t=0.94
-1.8206062731364083
% es.tEX (V/m) @ t=0.94
-0.5701494833913507
% es.tEY (V/m) @ t=0.94
0
% es.tEZ (V/m) @ t=0.94
-1.8206062731364234
% es.Ex (V/m) @ t=0.94
-0.5701494833913441
% es.Ey (V/m) @ t=0.94
0.04258730047954898
% es.Ez (V/m) @ t=0.94
-1.8206062731364083
% es.tEx (V/m) @ t=0.94
-0.5701494833913507
% es.tEy (V/m) @ t=0.94
0
% es.tEz (V/m) @ t=0.94
-1.8206062731364234
% V (V) @ t=0.94
0.009606481933870164
% es.normE (V/m) @ t=0.96
1.9285487651346744
% es.EX (V/m) @ t=0.96
-0.5753258426714949
% es.EY (V/m) @ t=0.96
0.042973948689624564
% es.EZ (V/m) @ t=0.96
-1.8371354674129279
% es.tEX (V/m) @ t=0.96
-0.5753258426714964
% es.tEY (V/m) @ t=0.96
0
% es.tEZ (V/m) @ t=0.96
-1.8371354674129412
% es.Ex (V/m) @ t=0.96
-0.5753258426714949
% es.Ey (V/m) @ t=0.96
0.042973948689624564
% es.Ez (V/m) @ t=0.96
-1.8371354674129279
% es.tEx (V/m) @ t=0.96
-0.5753258426714964
% es.tEy (V/m) @ t=0.96
0
% es.tEz (V/m) @ t=0.96
-1.8371354674129412
% V (V) @ t=0.96
0.00969369869118792
% es.normE (V/m) @ t=0.98
1.9459004291587276
% es.EX (V/m) @ t=0.98
-0.5805022019516486
% es.EY (V/m) @ t=0.98
0.04336059689970122
% es.EZ (V/m) @ t=0.98
-1.853664661689447
% es.tEX (V/m) @ t=0.98
-0.5805022019516564
% es.tEY (V/m) @ t=0.98
0
% es.tEZ (V/m) @ t=0.98
-1.8536646616894643
% es.Ex (V/m) @ t=0.98
-0.5805022019516486
% es.Ey (V/m) @ t=0.98
0.04336059689970122
% es.Ez (V/m) @ t=0.98
-1.853664661689447
% es.tEx (V/m) @ t=0.98
-0.5805022019516564
% es.tEy (V/m) @ t=0.98
0
% es.tEz (V/m) @ t=0.98
-1.8536646616894643
% V (V) @ t=0.98
0.00978091544850568
% es.normE (V/m) @ t=1
1.9632520931827953
% es.EX (V/m) @ t=1
-0.5856785612318078
% es.EY (V/m) @ t=1
0.04374724510978138
% es.EZ (V/m) @ t=1
-1.8701938559659799
% es.tEX (V/m) @ t=1
-0.5856785612318198
% es.tEY (V/m) @ t=1
0
% es.tEZ (V/m) @ t=1
-1.8701938559660034
% es.Ex (V/m) @ t=1
-0.5856785612318078
% es.Ey (V/m) @ t=1
0.04374724510978138
% es.Ez (V/m) @ t=1
-1.8701938559659799
% es.tEx (V/m) @ t=1
-0.5856785612318198
% es.tEy (V/m) @ t=1
0
% es.tEz (V/m) @ t=1
-1.8701938559660034
% V (V) @ t=1
0.009868132205823436
% es.normE (V/m) @ t=1.02
1.9806037572068542
% es.EX (V/m) @ t=1.02
-0.5908549205119569
% es.EY (V/m) @ t=1.02
0.04413389331987272
% es.EZ (V/m) @ t=1.02
-1.8867230502425065
% es.tEX (V/m) @ t=1.02
-0.5908549205119655
% es.tEY (V/m) @ t=1.02
0
% es.tEZ (V/m) @ t=1.02
-1.8867230502425283
% es.Ex (V/m) @ t=1.02
-0.5908549205119569
% es.Ey (V/m) @ t=1.02
0.04413389331987272
% es.Ez (V/m) @ t=1.02
-1.8867230502425065
% es.tEx (V/m) @ t=1.02
-0.5908549205119655