% Model:              1 neuron.mph
% Version:            COMSOL 6.0.0.405
% Date:               Mar 16 2023, 10:01
% Dimension:          0
% Nodes:              14017
% Expressions:        14017
% Description:        Electric field norm, Electric field, X component, Electric field, Y component, Electric field, Z component, Tangential electric field, X component, Tangential electric field, Y component, Tangential electric field, Z component, Electric field, x component, Electric field, y component, Electric field, z component, Tangential electric field, x component, Tangential electric field, y component, Tangential electric field, z component, Electric potential
% Length unit:        mm
% x
1
% y
12.2
% z
1
% es.normE (V/m) @ t=0
0.7986084320717506
% es.EX (V/m) @ t=0
0.5422658856684262
% es.EY (V/m) @ t=0
0.15401023276334058
% es.EZ (V/m) @ t=0
0.5509656605195996
% es.tEX (V/m) @ t=0
0.5422658856684279
% es.tEY (V/m) @ t=0
0
% es.tEZ (V/m) @ t=0
0.5509656605195907
% es.Ex (V/m) @ t=0
0.5422658856684262
% es.Ey (V/m) @ t=0
0.15401023276334058
% es.Ez (V/m) @ t=0
0.5509656605195996
% es.tEx (V/m) @ t=0
0.5422658856684279
% es.tEy (V/m) @ t=0
0
% es.tEz (V/m) @ t=0
0.5509656605195907
% V (V) @ t=0
0.007488783129197013
% es.normE (V/m) @ t=0.02
0.6897740238750054
% es.EX (V/m) @ t=0.02
0.4683658548004157
% es.EY (V/m) @ t=0.02
0.133021710774349
% es.EZ (V/m) @ t=0.02
0.475880025110059
% es.tEX (V/m) @ t=0.02
0.46836585480040327
% es.tEY (V/m) @ t=0.02
0
% es.tEZ (V/m) @ t=0.02
0.475880025110051
% es.Ex (V/m) @ t=0.02
0.4683658548004157
% es.Ey (V/m) @ t=0.02
0.133021710774349
% es.Ez (V/m) @ t=0.02
0.475880025110059
% es.tEx (V/m) @ t=0.02
0.46836585480040327
% es.tEy (V/m) @ t=0.02
0
% es.tEz (V/m) @ t=0.02
0.475880025110051
% V (V) @ t=0.02
0.006468211187027876
% es.normE (V/m) @ t=0.04
0.6961192714424163
% es.EX (V/m) @ t=0.04
0.4726743601884493
% es.EY (V/m) @ t=0.04
0.1342453865674651
% es.EZ (V/m) @ t=0.04
0.4802576568121717
% es.tEX (V/m) @ t=0.04
0.4726743601884493
% es.tEY (V/m) @ t=0.04
0
% es.tEZ (V/m) @ t=0.04
0.48025765681216726
% es.Ex (V/m) @ t=0.04
0.4726743601884493
% es.Ey (V/m) @ t=0.04
0.1342453865674651
% es.Ez (V/m) @ t=0.04
0.4802576568121717
% es.tEx (V/m) @ t=0.04
0.4726743601884493
% es.tEy (V/m) @ t=0.04
0
% es.tEz (V/m) @ t=0.04
0.48025765681216726
% V (V) @ t=0.04
0.006527712168264312
% es.normE (V/m) @ t=0.06
0.7025215173679825
% es.EX (V/m) @ t=0.06
0.47702156912249727
% es.EY (V/m) @ t=0.06
0.13548005274759767
% es.EZ (V/m) @ t=0.06
0.4846746120569412
% es.tEX (V/m) @ t=0.06
0.47702156912249194
% es.tEY (V/m) @ t=0.06
0
% es.tEZ (V/m) @ t=0.06
0.48467461205693496
% es.Ex (V/m) @ t=0.06
0.47702156912249727
% es.Ey (V/m) @ t=0.06
0.13548005274759767
% es.Ez (V/m) @ t=0.06
0.4846746120569412
% es.tEx (V/m) @ t=0.06
0.47702156912249194
% es.tEy (V/m) @ t=0.06
0
% es.tEz (V/m) @ t=0.06
0.48467461205693496
% V (V) @ t=0.06
0.0065877477082843545
% es.normE (V/m) @ t=0.08
0.7090219312793855
% es.EX (V/m) @ t=0.08
0.4814354293867602
% es.EY (V/m) @ t=0.08
0.13673366164338852
% es.EZ (V/m) @ t=0.08
0.48915929429353167
% es.tEX (V/m) @ t=0.08
0.48143542938676376
% es.tEY (V/m) @ t=0.08
0
% es.tEZ (V/m) @ t=0.08
0.48915929429352545
% es.Ex (V/m) @ t=0.08
0.4814354293867602
% es.Ey (V/m) @ t=0.08
0.13673366164338852
% es.Ez (V/m) @ t=0.08
0.48915929429353167
% es.tEx (V/m) @ t=0.08
0.48143542938676376
% es.tEy (V/m) @ t=0.08
0
% es.tEz (V/m) @ t=0.08
0.48915929429352545
% V (V) @ t=0.08
0.006648703334477903
% es.normE (V/m) @ t=0.1
0.7155895513428115
% es.EX (V/m) @ t=0.1
0.48589491938858664
% es.EY (V/m) @ t=0.1
0.13800023878966883
% es.EZ (V/m) @ t=0.1
0.49369034266943324
% es.tEX (V/m) @ t=0.1
0.48589491938858487
% es.tEY (V/m) @ t=0.1
0
% es.tEZ (V/m) @ t=0.1
0.4936903426694279
% es.Ex (V/m) @ t=0.1
0.48589491938858664
% es.Ey (V/m) @ t=0.1
0.13800023878966883
% es.Ez (V/m) @ t=0.1
0.49369034266943324
% es.tEx (V/m) @ t=0.1
0.48589491938858487
% es.tEy (V/m) @ t=0.1
0
% es.tEz (V/m) @ t=0.1
0.4936903426694279
% V (V) @ t=0.1
0.006710288854936211
% es.normE (V/m) @ t=0.12
0.7221571714062691
% es.EX (V/m) @ t=0.12
0.4903544093904486
% es.EY (V/m) @ t=0.12
0.13926681593595092
% es.EZ (V/m) @ t=0.12
0.49822139104534635
% es.tEX (V/m) @ t=0.12
0.4903544093904557
% es.tEY (V/m) @ t=0.12
0
% es.tEZ (V/m) @ t=0.12
0.49822139104533747
% es.Ex (V/m) @ t=0.12
0.4903544093904486
% es.Ey (V/m) @ t=0.12
0.13926681593595092
% es.Ez (V/m) @ t=0.12
0.49822139104534635
% es.tEx (V/m) @ t=0.12
0.4903544093904557
% es.tEy (V/m) @ t=0.12
0
% es.tEz (V/m) @ t=0.12
0.49822139104533747
% V (V) @ t=0.12
0.00677187437539452
% es.normE (V/m) @ t=0.14
0.7287938505964567
% es.EX (V/m) @ t=0.14
0.49486079583465603
% es.EY (V/m) @ t=0.14
0.14054670294050098
% es.EZ (V/m) @ t=0.14
0.5028000836661013
% es.tEX (V/m) @ t=0.14
0.49486079583464715
% es.tEY (V/m) @ t=0.14
0
% es.tEZ (V/m) @ t=0.14
0.5028000836660951
% es.Ex (V/m) @ t=0.14
0.49486079583465603
% es.Ey (V/m) @ t=0.14
0.14054670294050098
% es.Ez (V/m) @ t=0.14
0.5028000836661013
% es.tEx (V/m) @ t=0.14
0.49486079583464715
% es.tEy (V/m) @ t=0.14
0
% es.tEz (V/m) @ t=0.14
0.5028000836660951
% V (V) @ t=0.14
0.006834107817687934
% es.normE (V/m) @ t=0.16
0.7357117162245562
% es.EX (V/m) @ t=0.16
0.4995581294309357
% es.EY (V/m) @ t=0.16
0.14188078338498222
% es.EZ (V/m) @ t=0.16
0.5075727682489672
% es.tEX (V/m) @ t=0.16
0.49955812943092326
% es.tEY (V/m) @ t=0.16
0
% es.tEZ (V/m) @ t=0.16
0.5075727682489592
% es.Ex (V/m) @ t=0.16
0.4995581294309357
% es.Ey (V/m) @ t=0.16
0.14188078338498222
% es.Ez (V/m) @ t=0.16
0.5075727682489672
% es.tEx (V/m) @ t=0.16
0.49955812943092326
% es.tEy (V/m) @ t=0.16
0
% es.tEz (V/m) @ t=0.16
0.5075727682489592
% V (V) @ t=0.16
0.006898979388227153
% es.normE (V/m) @ t=0.18
0.742629581852684
% es.EX (V/m) @ t=0.18
0.5042554630272313
% es.EY (V/m) @ t=0.18
0.1432148638294759
% es.EZ (V/m) @ t=0.18
0.512345452831843
% es.tEX (V/m) @ t=0.18
0.5042554630272278
% es.tEY (V/m) @ t=0.18
0
% es.tEZ (V/m) @ t=0.18
0.5123454528318341
% es.Ex (V/m) @ t=0.18
0.5042554630272313
% es.Ey (V/m) @ t=0.18
0.1432148638294759
% es.Ez (V/m) @ t=0.18
0.512345452831843
% es.tEx (V/m) @ t=0.18
0.5042554630272278
% es.tEy (V/m) @ t=0.18
0
% es.tEz (V/m) @ t=0.18
0.5123454528318341
% V (V) @ t=0.18
0.006963850958766373
% es.normE (V/m) @ t=0.2
0.7495474474807995
% es.EX (V/m) @ t=0.2
0.5089527966235465
% es.EY (V/m) @ t=0.2
0.14454894427392162
% es.EZ (V/m) @ t=0.2
0.5171181374147054
% es.tEX (V/m) @ t=0.2
0.5089527966235394
% es.tEY (V/m) @ t=0.2
0
% es.tEZ (V/m) @ t=0.2
0.5171181374146983
% es.Ex (V/m) @ t=0.2
0.5089527966235465
% es.Ey (V/m) @ t=0.2
0.14454894427392162
% es.Ez (V/m) @ t=0.2
0.5171181374147054
% es.tEx (V/m) @ t=0.2
0.5089527966235394
% es.tEy (V/m) @ t=0.2
0
% es.tEz (V/m) @ t=0.2
0.5171181374146983
% V (V) @ t=0.2
0.007028722529305594
% es.normE (V/m) @ t=0.22
0.7564653131089037
% es.EX (V/m) @ t=0.22
0.5136501302198138
% es.EY (V/m) @ t=0.22
0.1458830247184384
% es.EZ (V/m) @ t=0.22
0.5218908219975678
% es.tEX (V/m) @ t=0.22
0.5136501302198084
% es.tEY (V/m) @ t=0.22
0
% es.tEZ (V/m) @ t=0.22
0.521890821997566
% es.Ex (V/m) @ t=0.22
0.5136501302198138
% es.Ey (V/m) @ t=0.22
0.1458830247184384
% es.Ez (V/m) @ t=0.22
0.5218908219975678
% es.tEx (V/m) @ t=0.22
0.5136501302198084
% es.tEy (V/m) @ t=0.22
0
% es.tEz (V/m) @ t=0.22
0.521890821997566
% V (V) @ t=0.22
0.007093594099844814
% es.normE (V/m) @ t=0.24
0.7633831787370308
% es.EX (V/m) @ t=0.24
0.5183474638161272
% es.EY (V/m) @ t=0.24
0.14721710516289122
% es.EZ (V/m) @ t=0.24
0.5266635065804399
% es.tEX (V/m) @ t=0.24
0.5183474638161201
% es.tEY (V/m) @ t=0.24
0
% es.tEZ (V/m) @ t=0.24
0.5266635065804266
% es.Ex (V/m) @ t=0.24
0.5183474638161272
% es.Ey (V/m) @ t=0.24
0.14721710516289122
% es.Ez (V/m) @ t=0.24
0.5266635065804399
% es.tEx (V/m) @ t=0.24
0.5183474638161201
% es.tEy (V/m) @ t=0.24
0
% es.tEz (V/m) @ t=0.24
0.5266635065804266
% V (V) @ t=0.24
0.007158465670384034
% es.normE (V/m) @ t=0.26
0.7703010443651559
% es.EX (V/m) @ t=0.26
0.5230447974124246
% es.EY (V/m) @ t=0.26
0.14855118560737068
% es.EZ (V/m) @ t=0.26
0.5314361911633148
% es.tEX (V/m) @ t=0.26
0.5230447974124175
% es.tEY (V/m) @ t=0.26
0
% es.tEZ (V/m) @ t=0.26
0.5314361911633085
% es.Ex (V/m) @ t=0.26
0.5230447974124246
% es.Ey (V/m) @ t=0.26
0.14855118560737068
% es.Ez (V/m) @ t=0.26
0.5314361911633148
% es.tEx (V/m) @ t=0.26
0.5230447974124175
% es.tEy (V/m) @ t=0.26
0
% es.tEz (V/m) @ t=0.26
0.5314361911633085
% V (V) @ t=0.26
0.007223337240923255
% es.normE (V/m) @ t=0.28
0.7775371603536101
% es.EX (V/m) @ t=0.28
0.527958210080909
% es.EY (V/m) @ t=0.28
0.14994667165980857
% es.EZ (V/m) @ t=0.28
0.5364284396333412
% es.tEX (V/m) @ t=0.28
0.5279582100809179
% es.tEY (V/m) @ t=0.28
0
% es.tEZ (V/m) @ t=0.28
0.5364284396333368
% es.Ex (V/m) @ t=0.28
0.527958210080909
% es.Ey (V/m) @ t=0.28
0.14994667165980857
% es.Ez (V/m) @ t=0.28
0.5364284396333412
% es.tEx (V/m) @ t=0.28
0.5279582100809179
% es.tEy (V/m) @ t=0.28
0
% es.tEz (V/m) @ t=0.28
0.5364284396333368
% V (V) @ t=0.28
0.00729119183695863
% es.normE (V/m) @ t=0.3
0.7852421949245426
% es.EX (V/m) @ t=0.3
0.5331899994265914
% es.EY (V/m) @ t=0.3
0.15143263437532362
% es.EZ (V/m) @ t=0.3
0.5417441994000018
% es.tEX (V/m) @ t=0.3
0.5331899994265683
% es.tEY (V/m) @ t=0.3
0
% es.tEZ (V/m) @ t=0.3
0.541744199399993
% es.Ex (V/m) @ t=0.3
0.5331899994265914
% es.Ey (V/m) @ t=0.3
0.15143263437532362
% es.Ez (V/m) @ t=0.3
0.5417441994000018
% es.tEx (V/m) @ t=0.3
0.5331899994265683
% es.tEy (V/m) @ t=0.3
0
% es.tEz (V/m) @ t=0.3
0.541744199399993
% V (V) @ t=0.3
0.0073634417024467606
% es.normE (V/m) @ t=0.32
0.7929472294954889
% es.EX (V/m) @ t=0.32
0.5384217887722649
% es.EY (V/m) @ t=0.32
0.15291859709086175
% es.EZ (V/m) @ t=0.32
0.5470599591666696
% es.tEX (V/m) @ t=0.32
0.5384217887722684
% es.tEY (V/m) @ t=0.32
0
% es.tEZ (V/m) @ t=0.32
0.5470599591666634
% es.Ex (V/m) @ t=0.32
0.5384217887722649
% es.Ey (V/m) @ t=0.32
0.15291859709086175
% es.Ez (V/m) @ t=0.32
0.5470599591666696
% es.tEx (V/m) @ t=0.32
0.5384217887722684
% es.tEy (V/m) @ t=0.32
0
% es.tEz (V/m) @ t=0.32
0.5470599591666634
% V (V) @ t=0.32
0.007435691567934892
% es.normE (V/m) @ t=0.34
0.8006522640664369
% es.EX (V/m) @ t=0.34
0.5436535781179241
% es.EY (V/m) @ t=0.34
0.15440455980638212
% es.EZ (V/m) @ t=0.34
0.5523757189333391
% es.tEX (V/m) @ t=0.34
0.5436535781179259
% es.tEY (V/m) @ t=0.34
0
% es.tEZ (V/m) @ t=0.34
0.5523757189333374
% es.Ex (V/m) @ t=0.34
0.5436535781179241
% es.Ey (V/m) @ t=0.34
0.15440455980638212
% es.Ez (V/m) @ t=0.34
0.5523757189333391
% es.tEx (V/m) @ t=0.34
0.5436535781179259
% es.tEy (V/m) @ t=0.34
0
% es.tEz (V/m) @ t=0.34
0.5523757189333374
% V (V) @ t=0.34
0.007507941433423024
% es.normE (V/m) @ t=0.36
0.8083572986373995
% es.EX (V/m) @ t=0.36
0.5488853674636154
% es.EY (V/m) @ t=0.36
0.15589052252191316
% es.EZ (V/m) @ t=0.36
0.5576914786999909
% es.tEX (V/m) @ t=0.36
0.5488853674635976
% es.tEY (V/m) @ t=0.36
0
% es.tEZ (V/m) @ t=0.36
0.5576914786999829
% es.Ex (V/m) @ t=0.36
0.5488853674636154
% es.Ey (V/m) @ t=0.36
0.15589052252191316
% es.Ez (V/m) @ t=0.36
0.5576914786999909
% es.tEx (V/m) @ t=0.36
0.5488853674635976
% es.tEy (V/m) @ t=0.36
0
% es.tEz (V/m) @ t=0.36
0.5576914786999829
% V (V) @ t=0.36
0.0075801912989111545
% es.normE (V/m) @ t=0.38
0.8160623332083898
% es.EX (V/m) @ t=0.38
0.5541171568092977
% es.EY (V/m) @ t=0.38
0.15737648523745484
% es.EZ (V/m) @ t=0.38
0.5630072384666649
% es.tEX (V/m) @ t=0.38
0.5541171568092977
% es.tEY (V/m) @ t=0.38
0
% es.tEZ (V/m) @ t=0.38
0.5630072384666569
% es.Ex (V/m) @ t=0.38
0.5541171568092977
% es.Ey (V/m) @ t=0.38
0.15737648523745484
% es.Ez (V/m) @ t=0.38
0.5630072384666649
% es.tEx (V/m) @ t=0.38
0.5541171568092977
% es.tEy (V/m) @ t=0.38
0
% es.tEz (V/m) @ t=0.38
0.5630072384666569
% V (V) @ t=0.38
0.007652441164399286
% es.normE (V/m) @ t=0.4
0.8237673677793648
% es.EX (V/m) @ t=0.4
0.5593489461549694
% es.EY (V/m) @ t=0.4
0.15886244795296633
% es.EZ (V/m) @ t=0.4
0.5683229982333344
% es.tEX (V/m) @ t=0.4
0.5593489461549694
% es.tEY (V/m) @ t=0.4
0
% es.tEZ (V/m) @ t=0.4
0.5683229982333238
% es.Ex (V/m) @ t=0.4
0.5593489461549694
% es.Ey (V/m) @ t=0.4
0.15886244795296633
% es.Ez (V/m) @ t=0.4
0.5683229982333344
% es.tEx (V/m) @ t=0.4
0.5593489461549694
% es.tEy (V/m) @ t=0.4
0
% es.tEz (V/m) @ t=0.4
0.5683229982333238
% V (V) @ t=0.4
0.007724691029887418
% es.normE (V/m) @ t=0.42
0.8314724023503579
% es.EX (V/m) @ t=0.42
0.5645807355006411
% es.EY (V/m) @ t=0.42
0.1603484106684956
% es.EZ (V/m) @ t=0.42
0.5736387580000049
% es.tEX (V/m) @ t=0.42
0.5645807355006269
% es.tEY (V/m) @ t=0.42
0
% es.tEZ (V/m) @ t=0.42
0.5736387579999942
% es.Ex (V/m) @ t=0.42
0.5645807355006411
% es.Ey (V/m) @ t=0.42
0.1603484106684956
% es.Ez (V/m) @ t=0.42
0.5736387580000049
% es.tEx (V/m) @ t=0.42
0.5645807355006269
% es.tEy (V/m) @ t=0.42
0
% es.tEz (V/m) @ t=0.42
0.5736387579999942
% V (V) @ t=0.42
0.00779694089537555
% es.normE (V/m) @ t=0.44
0.8391774369213444
% es.EX (V/m) @ t=0.44
0.5698125248463057
% es.EY (V/m) @ t=0.44
0.1618343733840426
% es.EZ (V/m) @ t=0.44
0.5789545177666513
% es.tEX (V/m) @ t=0.44
0.5698125248462986
% es.tEY (V/m) @ t=0.44
0
% es.tEZ (V/m) @ t=0.44
0.5789545177666433
% es.Ex (V/m) @ t=0.44
0.5698125248463057
% es.Ey (V/m) @ t=0.44
0.1618343733840426
% es.Ez (V/m) @ t=0.44
0.5789545177666513
% es.tEx (V/m) @ t=0.44
0.5698125248462986
% es.tEy (V/m) @ t=0.44
0
% es.tEz (V/m) @ t=0.44
0.5789545177666433
% V (V) @ t=0.44
0.00786919076086368
% es.normE (V/m) @ t=0.46
0.8468824714923389
% es.EX (V/m) @ t=0.46
0.5750443141919703
% es.EY (V/m) @ t=0.46
0.16332033609954522
% es.EZ (V/m) @ t=0.46
0.58427027753332
% es.tEX (V/m) @ t=0.46
0.5750443141919703
% es.tEY (V/m) @ t=0.46
0
% es.tEZ (V/m) @ t=0.46
0.5842702775333137
% es.Ex (V/m) @ t=0.46
0.5750443141919703
% es.Ey (V/m) @ t=0.46
0.16332033609954522
% es.Ez (V/m) @ t=0.46
0.58427027753332
% es.tEx (V/m) @ t=0.46
0.5750443141919703
% es.tEy (V/m) @ t=0.46
0
% es.tEz (V/m) @ t=0.46
0.5842702775333137
% V (V) @ t=0.46
0.007941440626351812
% es.normE (V/m) @ t=0.48
0.8545875060633832
% es.EX (V/m) @ t=0.48
0.5802761035376776
% es.EY (V/m) @ t=0.48
0.16480629881509756
% es.EZ (V/m) @ t=0.48
0.5895860372999868
% es.tEX (V/m) @ t=0.48
0.5802761035376847
% es.tEY (V/m) @ t=0.48
0
% es.tEZ (V/m) @ t=0.48
0.589586037299977
% es.Ex (V/m) @ t=0.48
0.5802761035376776
% es.Ey (V/m) @ t=0.48
0.16480629881509756
% es.Ez (V/m) @ t=0.48
0.5895860372999868
% es.tEx (V/m) @ t=0.48
0.5802761035376847
% es.tEy (V/m) @ t=0.48
0
% es.tEz (V/m) @ t=0.48
0.589586037299977
% V (V) @ t=0.48
0.008013690491839944
% es.normE (V/m) @ t=0.5
0.862292540634422
% es.EX (V/m) @ t=0.5
0.5855078928833741
% es.EY (V/m) @ t=0.5
0.16629226153060372
% es.EZ (V/m) @ t=0.5
0.594901797066659
% es.tEX (V/m) @ t=0.5
0.5855078928833706
% es.tEY (V/m) @ t=0.5
0
% es.tEZ (V/m) @ t=0.5
0.5949017970666475
% es.Ex (V/m) @ t=0.5
0.5855078928833741
% es.Ey (V/m) @ t=0.5
0.16629226153060372
% es.Ez (V/m) @ t=0.5
0.594901797066659
% es.tEx (V/m) @ t=0.5
0.5855078928833706
% es.tEy (V/m) @ t=0.5
0
% es.tEz (V/m) @ t=0.5
0.5949017970666475
% V (V) @ t=0.5
0.008085940357328075
% es.normE (V/m) @ t=0.52
0.8699975752054454
% es.EX (V/m) @ t=0.52
0.5907396822290387
% es.EY (V/m) @ t=0.52
0.16777822424611344
% es.EZ (V/m) @ t=0.52
0.6002175568333339
% es.tEX (V/m) @ t=0.52
0.5907396822290281
% es.tEY (V/m) @ t=0.52
0
% es.tEZ (V/m) @ t=0.52
0.600217556833325
% es.Ex (V/m) @ t=0.52
0.5907396822290387
% es.Ey (V/m) @ t=0.52
0.16777822424611344
% es.Ez (V/m) @ t=0.52
0.6002175568333339
% es.tEx (V/m) @ t=0.52
0.5907396822290281
% es.tEy (V/m) @ t=0.52
0
% es.tEz (V/m) @ t=0.52
0.600217556833325
% V (V) @ t=0.52
0.008158190222816206
% es.normE (V/m) @ t=0.54
0.8777026097764873
% es.EX (V/m) @ t=0.54
0.5959714715747175
% es.EY (V/m) @ t=0.54
0.16926418696166756
% es.EZ (V/m) @ t=0.54
0.605533316599991
% es.tEX (V/m) @ t=0.54
0.595971471574714
% es.tEY (V/m) @ t=0.54
0
% es.tEZ (V/m) @ t=0.54
0.6055333165999848
% es.Ex (V/m) @ t=0.54
0.5959714715747175
% es.Ey (V/m) @ t=0.54
0.16926418696166756
% es.Ez (V/m) @ t=0.54
0.605533316599991
% es.tEx (V/m) @ t=0.54
0.595971471574714
% es.tEy (V/m) @ t=0.54
0
% es.tEz (V/m) @ t=0.54
0.6055333165999848
% V (V) @ t=0.54
0.008230440088304338
% es.normE (V/m) @ t=0.56
0.8861383638951725
% es.EX (V/m) @ t=0.56
0.6016994754314204
% es.EY (V/m) @ t=0.56
0.17089098316753493
% es.EZ (V/m) @ t=0.56
0.6113532030953577
% es.tEX (V/m) @ t=0.56
0.6016994754314169
% es.tEY (V/m) @ t=0.56
0
% es.tEZ (V/m) @ t=0.56
0.6113532030953515
% es.Ex (V/m) @ t=0.56
0.6016994754314204
% es.Ey (V/m) @ t=0.56
0.17089098316753493
% es.Ez (V/m) @ t=0.56
0.6113532030953577
% es.tEx (V/m) @ t=0.56
0.6016994754314169
% es.tEy (V/m) @ t=0.56
0
% es.tEz (V/m) @ t=0.56
0.6113532030953515
% V (V) @ t=0.56
0.008309545599325846
% es.normE (V/m) @ t=0.58
0.8947361035347647
% es.EX (V/m) @ t=0.58
0.6075374798571715
% es.EY (V/m) @ t=0.58
0.17254899926664358
% es.EZ (V/m) @ t=0.58
0.6172848441359724
% es.tEX (V/m) @ t=0.58
0.6075374798571715
% es.tEY (V/m) @ t=0.58
0
% es.tEZ (V/m) @ t=0.58
0.6172848441359662
% es.Ex (V/m) @ t=0.58
0.6075374798571715
% es.Ey (V/m) @ t=0.58
0.17254899926664358
% es.Ez (V/m) @ t=0.58
0.6172848441359724
% es.tEx (V/m) @ t=0.58
0.6075374798571715
% es.tEy (V/m) @ t=0.58
0
% es.tEz (V/m) @ t=0.58
0.6172848441359662
% V (V) @ t=0.58
0.008390170866204808
% es.normE (V/m) @ t=0.6
0.9033338431743323
% es.EX (V/m) @ t=0.6
0.6133754842828978
% es.EY (V/m) @ t=0.6
0.17420701536578953
% es.EZ (V/m) @ t=0.6
0.6232164851765534
% es.tEX (V/m) @ t=0.6
0.6133754842828978
% es.tEY (V/m) @ t=0.6
0
% es.tEZ (V/m) @ t=0.6
0.6232164851765489
% es.Ex (V/m) @ t=0.6
0.6133754842828978
% es.Ey (V/m) @ t=0.6
0.17420701536578953
% es.Ez (V/m) @ t=0.6
0.6232164851765534
% es.tEx (V/m) @ t=0.6
0.6133754842828978
% es.tEy (V/m) @ t=0.6
0
% es.tEz (V/m) @ t=0.6
0.6232164851765489
% V (V) @ t=0.6
0.00847079613308377
% es.normE (V/m) @ t=0.62
0.91193158281394
% es.EX (V/m) @ t=0.62
0.6192134887086418
% es.EY (V/m) @ t=0.62
0.17586503146492305
% es.EZ (V/m) @ t=0.62
0.6291481262171716
% es.tEX (V/m) @ t=0.62
0.6192134887086382
% es.tEY (V/m) @ t=0.62
0
% es.tEZ (V/m) @ t=0.62
0.6291481262171565
% es.Ex (V/m) @ t=0.62
0.6192134887086418
% es.Ey (V/m) @ t=0.62
0.17586503146492305
% es.Ez (V/m) @ t=0.62
0.6291481262171716
% es.tEx (V/m) @ t=0.62
0.6192134887086382
% es.tEy (V/m) @ t=0.62
0
% es.tEz (V/m) @ t=0.62
0.6291481262171565
% V (V) @ t=0.62
0.008551421399962733
% es.normE (V/m) @ t=0.64
0.9205293224535398
% es.EX (V/m) @ t=0.64
0.6250514931343645
% es.EY (V/m) @ t=0.64
0.17752304756405124
% es.EZ (V/m) @ t=0.64
0.6350797672577926
% es.tEX (V/m) @ t=0.64
0.6250514931343645
% es.tEY (V/m) @ t=0.64
0
% es.tEZ (V/m) @ t=0.64
0.6350797672577855
% es.Ex (V/m) @ t=0.64
0.6250514931343645
% es.Ey (V/m) @ t=0.64
0.17752304756405124
% es.Ez (V/m) @ t=0.64
0.6350797672577926
% es.tEx (V/m) @ t=0.64
0.6250514931343645
% es.tEy (V/m) @ t=0.64
0
% es.tEz (V/m) @ t=0.64
0.6350797672577855
% V (V) @ t=0.64
0.008632046666841696
% es.normE (V/m) @ t=0.66
0.9291270620931391
% es.EX (V/m) @ t=0.66
0.6308894975601262
% es.EY (V/m) @ t=0.66
0.17918106366318476
% es.EZ (V/m) @ t=0.66
0.6410114082983664
% es.tEX (V/m) @ t=0.66
0.6308894975601191
% es.tEY (V/m) @ t=0.66
0
% es.tEZ (V/m) @ t=0.66
0.6410114082983682
% es.Ex (V/m) @ t=0.66
0.6308894975601262
% es.Ey (V/m) @ t=0.66
0.17918106366318476
% es.Ez (V/m) @ t=0.66
0.6410114082983664
% es.tEx (V/m) @ t=0.66
0.6308894975601191
% es.tEy (V/m) @ t=0.66
0
% es.tEz (V/m) @ t=0.66
0.6410114082983682
% V (V) @ t=0.66
0.008712671933720658
% es.normE (V/m) @ t=0.68
0.9377248017327512
% es.EX (V/m) @ t=0.68
0.6367275019858596
% es.EY (V/m) @ t=0.68
0.1808390797623094
% es.EZ (V/m) @ t=0.68
0.6469430493389794
% es.tEX (V/m) @ t=0.68
0.6367275019858454
% es.tEY (V/m) @ t=0.68
0
% es.tEZ (V/m) @ t=0.68
0.6469430493389652
% es.Ex (V/m) @ t=0.68
0.6367275019858596
% es.Ey (V/m) @ t=0.68
0.1808390797623094
% es.Ez (V/m) @ t=0.68
0.6469430493389794
% es.tEx (V/m) @ t=0.68
0.6367275019858454
% es.tEy (V/m) @ t=0.68
0
% es.tEz (V/m) @ t=0.68
0.6469430493389652
% V (V) @ t=0.68
0.00879329720059962
% es.normE (V/m) @ t=0.7
0.9463225413723755
% es.EX (V/m) @ t=0.7
0.6425655064116071
% es.EY (V/m) @ t=0.7
0.18249709586144824
% es.EZ (V/m) @ t=0.7
0.652874690379587
% es.tEX (V/m) @ t=0.7
0.6425655064115858
% es.tEY (V/m) @ t=0.7
0
% es.tEZ (V/m) @ t=0.7
0.6528746903795764
% es.Ex (V/m) @ t=0.7
0.6425655064116071
% es.Ey (V/m) @ t=0.7
0.18249709586144824
% es.Ez (V/m) @ t=0.7
0.652874690379587
% es.tEx (V/m) @ t=0.7
0.6425655064115858
% es.tEy (V/m) @ t=0.7
0
% es.tEz (V/m) @ t=0.7
0.6528746903795764
% V (V) @ t=0.7
0.008873922467478583
% es.normE (V/m) @ t=0.72
0.9549202810120045
% es.EX (V/m) @ t=0.72
0.6484035108373547
% es.EY (V/m) @ t=0.72
0.18415511196057288
% es.EZ (V/m) @ t=0.72
0.6588063314202
% es.tEX (V/m) @ t=0.72
0.6484035108373547
% es.tEY (V/m) @ t=0.72
0
% es.tEZ (V/m) @ t=0.72
0.6588063314201946
% es.Ex (V/m) @ t=0.72
0.6484035108373547
% es.Ey (V/m) @ t=0.72
0.18415511196057288
% es.Ez (V/m) @ t=0.72
0.6588063314202
% es.tEx (V/m) @ t=0.72
0.6484035108373547
% es.tEy (V/m) @ t=0.72
0
% es.tEz (V/m) @ t=0.72
0.6588063314201946
% V (V) @ t=0.72
0.008954547734357545
% es.normE (V/m) @ t=0.74
0.9635180206516354
% es.EX (V/m) @ t=0.74
0.6542415152630916
% es.EY (V/m) @ t=0.74
0.18581312805970285
% es.EZ (V/m) @ t=0.74
0.6647379724608129
% es.tEX (V/m) @ t=0.74
0.6542415152630952
% es.tEY (V/m) @ t=0.74
0
% es.tEZ (V/m) @ t=0.74
0.6647379724607987
% es.Ex (V/m) @ t=0.74
0.6542415152630916
% es.Ey (V/m) @ t=0.74
0.18581312805970285
% es.Ez (V/m) @ t=0.74
0.6647379724608129
% es.tEx (V/m) @ t=0.74
0.6542415152630952
% es.tEy (V/m) @ t=0.74
0
% es.tEz (V/m) @ t=0.74
0.6647379724607987
% V (V) @ t=0.74
0.009035173001236508
% es.normE (V/m) @ t=0.76
0.9721157602912702
% es.EX (V/m) @ t=0.76
0.6600795196888392
% es.EY (V/m) @ t=0.76
0.18747114415883281
% es.EZ (V/m) @ t=0.76
0.6706696135014152
% es.tEX (V/m) @ t=0.76
0.6600795196888214
% es.tEY (V/m) @ t=0.76
0
% es.tEZ (V/m) @ t=0.76
0.6706696135014028
% es.Ex (V/m) @ t=0.76
0.6600795196888392
% es.Ey (V/m) @ t=0.76
0.18747114415883281
% es.Ez (V/m) @ t=0.76
0.6706696135014152
% es.tEx (V/m) @ t=0.76
0.6600795196888214
% es.tEy (V/m) @ t=0.76
0
% es.tEz (V/m) @ t=0.76
0.6706696135014028
% V (V) @ t=0.76
0.009115798268115472
% es.normE (V/m) @ t=0.78
0.9807134999308921
% es.EX (V/m) @ t=0.78
0.6659175241145725
% es.EY (V/m) @ t=0.78
0.18912916025796278
% es.EZ (V/m) @ t=0.78
0.6766012545420041
% es.tEX (V/m) @ t=0.78
0.6659175241145618
% es.tEY (V/m) @ t=0.78
0
% es.tEZ (V/m) @ t=0.78
0.6766012545419997
% es.Ex (V/m) @ t=0.78
0.6659175241145725
% es.Ey (V/m) @ t=0.78
0.18912916025796278
% es.Ez (V/m) @ t=0.78
0.6766012545420041
% es.tEx (V/m) @ t=0.78
0.6659175241145618
% es.tEy (V/m) @ t=0.78
0
% es.tEz (V/m) @ t=0.78
0.6766012545419997
% V (V) @ t=0.78
0.009196423534994433
% es.normE (V/m) @ t=0.8
0.989311239570545
% es.EX (V/m) @ t=0.8
0.6717555285403201
% es.EY (V/m) @ t=0.8
0.19078717635710518
% es.EZ (V/m) @ t=0.8
0.68253289558261
% es.tEX (V/m) @ t=0.8
0.6717555285402881
% es.tEY (V/m) @ t=0.8
0
% es.tEZ (V/m) @ t=0.8
0.6825328955825967
% es.Ex (V/m) @ t=0.8
0.6717555285403201
% es.Ey (V/m) @ t=0.8
0.19078717635710518
% es.Ez (V/m) @ t=0.8
0.68253289558261
% es.tEx (V/m) @ t=0.8
0.6717555285402881
% es.tEy (V/m) @ t=0.8
0
% es.tEz (V/m) @ t=0.8
0.6825328955825967
% V (V) @ t=0.8
0.009277048801873395
% es.normE (V/m) @ t=0.82
0.998144821210742
% es.EX (V/m) @ t=0.82
0.6777536679513929
% es.EY (V/m) @ t=0.82
0.1924906831943165
% es.EZ (V/m) @ t=0.82
0.6886272458946987
% es.tEX (V/m) @ t=0.82
0.6777536679513929
% es.tEY (V/m) @ t=0.82
0
% es.tEZ (V/m) @ t=0.82
0.6886272458946934
% es.Ex (V/m) @ t=0.82
0.6777536679513929
% es.Ey (V/m) @ t=0.82
0.1924906831943165
% es.Ez (V/m) @ t=0.82
0.6886272458946987
% es.tEx (V/m) @ t=0.82
0.6777536679513929
% es.tEy (V/m) @ t=0.82
0
% es.tEz (V/m) @ t=0.82
0.6886272458946934
% V (V) @ t=0.82
0.009359885255659537
% es.normE (V/m) @ t=0.84
1.0077556573813256
% es.EX (V/m) @ t=0.84
0.6842795574771507
% es.EY (V/m) @ t=0.84
0.19434411193757128
% es.EZ (V/m) @ t=0.84
0.6952578302875958
% es.tEX (V/m) @ t=0.84
0.6842795574771543
% es.tEY (V/m) @ t=0.84
0
% es.tEZ (V/m) @ t=0.84
0.6952578302875949
% es.Ex (V/m) @ t=0.84
0.6842795574771507
% es.Ey (V/m) @ t=0.84
0.19434411193757128
% es.Ez (V/m) @ t=0.84
0.6952578302875958
% es.tEx (V/m) @ t=0.84
0.6842795574771543
% es.tEy (V/m) @ t=0.84
0
% es.tEz (V/m) @ t=0.84
0.6952578302875949
% V (V) @ t=0.84
0.009450009024838684
% es.normE (V/m) @ t=0.86
1.0173664935519309
% es.EX (V/m) @ t=0.86
0.6908054470029477
% es.EY (V/m) @ t=0.86
0.19619754068084028
% es.EZ (V/m) @ t=0.86
0.7018884146804814
% es.tEX (V/m) @ t=0.86
0.6908054470029299
% es.tEY (V/m) @ t=0.86
0
% es.tEZ (V/m) @ t=0.86
0.7018884146804751
% es.Ex (V/m) @ t=0.86
0.6908054470029477
% es.Ey (V/m) @ t=0.86
0.19619754068084028
% es.Ez (V/m) @ t=0.86
0.7018884146804814
% es.tEx (V/m) @ t=0.86
0.6908054470029299
% es.tEy (V/m) @ t=0.86
0
% es.tEz (V/m) @ t=0.86
0.7018884146804751
% V (V) @ t=0.86
0.009540132794017834
% es.normE (V/m) @ t=0.88
1.026977329722524
% es.EX (V/m) @ t=0.88
0.6973313365286984
% es.EY (V/m) @ t=0.88
0.19805096942414124
% es.EZ (V/m) @ t=0.88
0.7085189990733856
% es.tEX (V/m) @ t=0.88
0.6973313365287197
% es.tEY (V/m) @ t=0.88
0
% es.tEZ (V/m) @ t=0.88
0.7085189990733696
% es.Ex (V/m) @ t=0.88
0.6973313365286984
% es.Ey (V/m) @ t=0.88
0.19805096942414124
% es.Ez (V/m) @ t=0.88
0.7085189990733856
% es.tEx (V/m) @ t=0.88
0.6973313365287197
% es.tEy (V/m) @ t=0.88
0
% es.tEz (V/m) @ t=0.88
0.7085189990733696
% V (V) @ t=0.88
0.009630256563196982
% es.normE (V/m) @ t=0.9
1.0365881658931486
% es.EX (V/m) @ t=0.9
0.7038572260545024
% es.EY (V/m) @ t=0.9
0.19990439816740846
% es.EZ (V/m) @ t=0.9
0.7151495834662907
% es.tEX (V/m) @ t=0.9
0.7038572260544811
% es.tEY (V/m) @ t=0.9
0
% es.tEZ (V/m) @ t=0.9
0.7151495834662853
% es.Ex (V/m) @ t=0.9
0.7038572260545024
% es.Ey (V/m) @ t=0.9
0.19990439816740846
% es.Ez (V/m) @ t=0.9
0.7151495834662907
% es.tEx (V/m) @ t=0.9
0.7038572260544811
% es.tEy (V/m) @ t=0.9
0
% es.tEz (V/m) @ t=0.9
0.7151495834662853
% V (V) @ t=0.9
0.00972038033237613
% es.normE (V/m) @ t=0.92
1.0461990020637089
% es.EX (V/m) @ t=0.92
0.7103831155802283
% es.EY (V/m) @ t=0.92
0.20175782691068278
% es.EZ (V/m) @ t=0.92
0.7217801678591842
% es.tEX (V/m) @ t=0.92
0.7103831155801998
% es.tEY (V/m) @ t=0.92
0
% es.tEZ (V/m) @ t=0.92
0.7217801678591726
% es.Ex (V/m) @ t=0.92
0.7103831155802283
% es.Ey (V/m) @ t=0.92
0.20175782691068278
% es.Ez (V/m) @ t=0.92
0.7217801678591842
% es.tEx (V/m) @ t=0.92
0.7103831155801998
% es.tEy (V/m) @ t=0.92
0
% es.tEz (V/m) @ t=0.92
0.7217801678591726
% V (V) @ t=0.92
0.00981050410155528
% es.normE (V/m) @ t=0.94
1.0558098382342869
% es.EX (V/m) @ t=0.94
0.7169090051059719
% es.EY (V/m) @ t=0.94
0.20361125565397842
% es.EZ (V/m) @ t=0.94
0.7284107522520733
% es.tEX (V/m) @ t=0.94
0.7169090051059754
% es.tEY (V/m) @ t=0.94
0
% es.tEZ (V/m) @ t=0.94
0.7284107522520671
% es.Ex (V/m) @ t=0.94
0.7169090051059719
% es.Ey (V/m) @ t=0.94
0.20361125565397842
% es.Ez (V/m) @ t=0.94
0.7284107522520733
% es.tEx (V/m) @ t=0.94
0.7169090051059754
% es.tEy (V/m) @ t=0.94
0
% es.tEz (V/m) @ t=0.94
0.7284107522520671
% V (V) @ t=0.94
0.009900627870734428
% es.normE (V/m) @ t=0.96
1.0654206744049062
% es.EX (V/m) @ t=0.96
0.7234348946317652
% es.EY (V/m) @ t=0.96
0.20546468439722254
% es.EZ (V/m) @ t=0.96
0.735041336644989
% es.tEX (V/m) @ t=0.96
0.7234348946317795
% es.tEY (V/m) @ t=0.96
0
% es.tEZ (V/m) @ t=0.96
0.7350413366449757
% es.Ex (V/m) @ t=0.96
0.7234348946317652
% es.Ey (V/m) @ t=0.96
0.20546468439722254
% es.Ez (V/m) @ t=0.96
0.735041336644989
% es.tEx (V/m) @ t=0.96
0.7234348946317795
% es.tEy (V/m) @ t=0.96
0
% es.tEz (V/m) @ t=0.96
0.7350413366449757
% V (V) @ t=0.96
0.009990751639913576
% es.normE (V/m) @ t=0.98
1.075031510575489
% es.EX (V/m) @ t=0.98
0.7299607841575337
% es.EY (V/m) @ t=0.98
0.2073181131405324
% es.EZ (V/m) @ t=0.98
0.7416719210378595
% es.tEX (V/m) @ t=0.98
0.7299607841575266
% es.tEY (V/m) @ t=0.98
0
% es.tEZ (V/m) @ t=0.98
0.741671921037856
% es.Ex (V/m) @ t=0.98
0.7299607841575337
% es.Ey (V/m) @ t=0.98
0.2073181131405324
% es.Ez (V/m) @ t=0.98
0.7416719210378595
% es.tEx (V/m) @ t=0.98
0.7299607841575266
% es.tEy (V/m) @ t=0.98
0
% es.tEz (V/m) @ t=0.98
0.741671921037856
% V (V) @ t=0.98
0.010080875409092723
% es.normE (V/m) @ t=1
1.0846423467460755
% es.EX (V/m) @ t=1
0.7364866736832845
% es.EY (V/m) @ t=1
0.20917154188379428
% es.EZ (V/m) @ t=1
0.7483025054307682
% es.tEX (V/m) @ t=1
0.7364866736833022
% es.tEY (V/m) @ t=1
0
% es.tEZ (V/m) @ t=1
0.7483025054307504
% es.Ex (V/m) @ t=1
0.7364866736832845
% es.Ey (V/m) @ t=1
0.20917154188379428
% es.Ez (V/m) @ t=1
0.7483025054307682
% es.tEx (V/m) @ t=1
0.7364866736833022
% es.tEy (V/m) @ t=1
0
% es.tEz (V/m) @ t=1
0.7483025054307504
% V (V) @ t=1
0.010170999178271873
% es.normE (V/m) @ t=1.02
1.0942531829166664
% es.EX (V/m) @ t=1.02
0.7430125632090565
% es.EY (V/m) @ t=1.02
0.21102497062707748
% es.EZ (V/m) @ t=1.02
0.7549330898236475
% es.tEX (V/m) @ t=1.02
0.7430125632090352
% es.tEY (V/m) @ t=1.02
0
% es.tEZ (V/m) @ t=1.02
0.7549330898236377
% es.Ex (V/m) @ t=1.02
0.7430125632090565
% es.Ey (V/m) @ t=1.02
0.21102497062707748
% es.Ez (V/m) @ t=1.02
0.7549330898236475
% es.tEx (V/m) @ t=1.02
0.7430125632090352
% es.tEy (V/m) @ t=1.02
0
% es.tEz (V/m) @ t=1.02
0.7549330898236377
% V (V) @ t=1.02
0.010261122947451021
% es.normE (V/m) @ t=1.04
1.103864019087276
% es.EX (V/m) @ t=1.04
0.7495384527348357
% es.EY (V/m) @ t=1.04
0.21287839937036246
% es.EZ (V/m) @ t=1.04
0.7615636742165597
% es.tEX (V/m) @ t=1.04
0.749538452734825
% es.tEY (V/m) @ t=1.04
0
% es.tEZ (V/m) @ t=1.04
0.7615636742165464
% es.Ex (V/m) @ t=1.04
0.7495384527348357
% es.Ey (V/m) @ t=1.04