% Model:              1 neuron.mph
% Version:            COMSOL 6.0.0.405
% Date:               Mar 16 2023, 09:55
% Dimension:          0
% Nodes:              14017
% Expressions:        14017
% Description:        Electric field norm, Electric field, X component, Electric field, Y component, Electric field, Z component, Tangential electric field, X component, Tangential electric field, Y component, Tangential electric field, Z component, Electric field, x component, Electric field, y component, Electric field, z component, Tangential electric field, x component, Tangential electric field, y component, Tangential electric field, z component, Electric potential
% Length unit:        mm
% x
1
% y
12.2
% z
1.6599999999999997
% es.normE (V/m) @ t=0
1.631260341290219
% es.EX (V/m) @ t=0
1.460319722497
% es.EY (V/m) @ t=0
0.056186493804340265
% es.EZ (V/m) @ t=0
-0.7247893840205557
% es.tEX (V/m) @ t=0
1.4603197224969993
% es.tEY (V/m) @ t=0
0
% es.tEZ (V/m) @ t=0
-0.7247893840205499
% es.Ex (V/m) @ t=0
1.460319722497
% es.Ey (V/m) @ t=0
0.056186493804340265
% es.Ez (V/m) @ t=0
-0.7247893840205557
% es.tEx (V/m) @ t=0
1.4603197224969993
% es.tEy (V/m) @ t=0
0
% es.tEz (V/m) @ t=0
-0.7247893840205499
% V (V) @ t=0
0.007401012727073893
% es.normE (V/m) @ t=0.02
1.4089479162383949
% es.EX (V/m) @ t=0.02
1.261303535338684
% es.EY (V/m) @ t=0.02
0.04852925456005042
% es.EZ (V/m) @ t=0.02
-0.6260131844468914
% es.tEX (V/m) @ t=0.02
1.2613035353386803
% es.tEY (V/m) @ t=0.02
0
% es.tEZ (V/m) @ t=0.02
-0.6260131844468795
% es.Ex (V/m) @ t=0.02
1.261303535338684
% es.Ey (V/m) @ t=0.02
0.04852925456005042
% es.Ez (V/m) @ t=0.02
-0.6260131844468914
% es.tEx (V/m) @ t=0.02
1.2613035353386803
% es.tEy (V/m) @ t=0.02
0
% es.tEz (V/m) @ t=0.02
-0.6260131844468795
% V (V) @ t=0.02
0.006392383190037244
% es.normE (V/m) @ t=0.04
1.4219046429591686
% es.EX (V/m) @ t=0.04
1.2729025240035545
% es.EY (V/m) @ t=0.04
0.0489755349142495
% es.EZ (V/m) @ t=0.04
-0.6317700117717941
% es.tEX (V/m) @ t=0.04
1.2729025240035536
% es.tEY (V/m) @ t=0.04
0
% es.tEZ (V/m) @ t=0.04
-0.6317700117717955
% es.Ex (V/m) @ t=0.04
1.2729025240035545
% es.Ey (V/m) @ t=0.04
0.0489755349142495
% es.Ez (V/m) @ t=0.04
-0.6317700117717941
% es.tEx (V/m) @ t=0.04
1.2729025240035536
% es.tEy (V/m) @ t=0.04
0
% es.tEz (V/m) @ t=0.04
-0.6317700117717955
% V (V) @ t=0.04
0.006451167529565155
% es.normE (V/m) @ t=0.06
1.4349778798508805
% es.EX (V/m) @ t=0.06
1.2846058074772788
% es.EY (V/m) @ t=0.06
0.049425822342840015
% es.EZ (V/m) @ t=0.06
-0.6375786189791227
% es.tEX (V/m) @ t=0.06
1.2846058074772766
% es.tEY (V/m) @ t=0.06
0
% es.tEZ (V/m) @ t=0.06
-0.6375786189791199
% es.Ex (V/m) @ t=0.06
1.2846058074772788
% es.Ey (V/m) @ t=0.06
0.049425822342840015
% es.Ez (V/m) @ t=0.06
-0.6375786189791227
% es.tEx (V/m) @ t=0.06
1.2846058074772766
% es.tEy (V/m) @ t=0.06
0
% es.tEz (V/m) @ t=0.06
-0.6375786189791199
% V (V) @ t=0.06
0.006510480789982015
% es.normE (V/m) @ t=0.08
1.4482513786440636
% es.EX (V/m) @ t=0.08
1.29648837308478
% es.EY (V/m) @ t=0.08
0.04988301300904624
% es.EZ (V/m) @ t=0.08
-0.6434761929814894
% es.tEX (V/m) @ t=0.08
1.2964883730847827
% es.tEY (V/m) @ t=0.08
0
% es.tEZ (V/m) @ t=0.08
-0.6434761929814776
% es.Ex (V/m) @ t=0.08
1.29648837308478
% es.Ey (V/m) @ t=0.08
0.04988301300904624
% es.Ez (V/m) @ t=0.08
-0.6434761929814894
% es.tEx (V/m) @ t=0.08
1.2964883730847827
% es.tEy (V/m) @ t=0.08
0
% es.tEz (V/m) @ t=0.08
-0.6434761929814776
% V (V) @ t=0.08
0.006570702343168388
% es.normE (V/m) @ t=0.1
1.4616625013673277
% es.EX (V/m) @ t=0.1
1.308494144912053
% es.EY (V/m) @ t=0.1
0.05034494771633116
% es.EZ (V/m) @ t=0.1
-0.6494349067208123
% es.tEX (V/m) @ t=0.1
1.3084941449120557
% es.tEY (V/m) @ t=0.1
0
% es.tEZ (V/m) @ t=0.1
-0.6494349067208027
% es.Ex (V/m) @ t=0.1
1.308494144912053
% es.Ey (V/m) @ t=0.1
0.05034494771633116
% es.Ez (V/m) @ t=0.1
-0.6494349067208123
% es.tEx (V/m) @ t=0.1
1.3084941449120557
% es.tEy (V/m) @ t=0.1
0
% es.tEz (V/m) @ t=0.1
-0.6494349067208027
% V (V) @ t=0.1
0.006631548093067645
% es.normE (V/m) @ t=0.12
1.4750736240905975
% es.EX (V/m) @ t=0.12
1.32049991673933
% es.EY (V/m) @ t=0.12
0.05080688242361606
% es.EZ (V/m) @ t=0.12
-0.6553936204601403
% es.tEX (V/m) @ t=0.12
1.3204999167393332
% es.tEY (V/m) @ t=0.12
0
% es.tEZ (V/m) @ t=0.12
-0.6553936204601456
% es.Ex (V/m) @ t=0.12
1.32049991673933
% es.Ey (V/m) @ t=0.12
0.05080688242361606
% es.Ez (V/m) @ t=0.12
-0.6553936204601403
% es.tEx (V/m) @ t=0.12
1.3204999167393332
% es.tEy (V/m) @ t=0.12
0
% es.tEz (V/m) @ t=0.12
-0.6553936204601456
% V (V) @ t=0.12
0.0066923938429669025
% es.normE (V/m) @ t=0.14
1.4886244172662755
% es.EX (V/m) @ t=0.14
1.3326307222786689
% es.EY (V/m) @ t=0.14
0.05127362730282639
% es.EZ (V/m) @ t=0.14
-0.6614143927856027
% es.tEX (V/m) @ t=0.14
1.332630722278668
% es.tEY (V/m) @ t=0.14
0
% es.tEZ (V/m) @ t=0.14
-0.6614143927855984
% es.Ex (V/m) @ t=0.14
1.3326307222786689
% es.Ey (V/m) @ t=0.14
0.05127362730282639
% es.Ez (V/m) @ t=0.14
-0.6614143927856027
% es.tEx (V/m) @ t=0.14
1.332630722278668
% es.tEy (V/m) @ t=0.14
0
% es.tEz (V/m) @ t=0.14
-0.6614143927855984
% V (V) @ t=0.14
0.006753873307049052
% es.normE (V/m) @ t=0.16
1.502750569417751
% es.EX (V/m) @ t=0.16
1.3452765921517527
% es.EY (V/m) @ t=0.16
0.05176018722195441
% es.EZ (V/m) @ t=0.16
-0.6676908094792189
% es.tEX (V/m) @ t=0.16
1.345276592151745
% es.tEY (V/m) @ t=0.16
0
% es.tEZ (V/m) @ t=0.16
-0.6676908094792147
% es.Ex (V/m) @ t=0.16
1.3452765921517527
% es.Ey (V/m) @ t=0.16
0.05176018722195441
% es.Ez (V/m) @ t=0.16
-0.6676908094792189
% es.tEx (V/m) @ t=0.16
1.345276592151745
% es.tEy (V/m) @ t=0.16
0
% es.tEz (V/m) @ t=0.16
-0.6676908094792147
% V (V) @ t=0.16
0.0068179632956690914
% es.normE (V/m) @ t=0.18
1.5168767215692194
% es.EX (V/m) @ t=0.18
1.3579224620248307
% es.EY (V/m) @ t=0.18
0.05224674714109534
% es.EZ (V/m) @ t=0.18
-0.6739672261728298
% es.tEX (V/m) @ t=0.18
1.3579224620248245
% es.tEY (V/m) @ t=0.18
0
% es.tEZ (V/m) @ t=0.18
-0.6739672261728344
% es.Ex (V/m) @ t=0.18
1.3579224620248307
% es.Ey (V/m) @ t=0.18
0.05224674714109534
% es.Ez (V/m) @ t=0.18
-0.6739672261728298
% es.tEx (V/m) @ t=0.18
1.3579224620248245
% es.tEy (V/m) @ t=0.18
0
% es.tEz (V/m) @ t=0.18
-0.6739672261728344
% V (V) @ t=0.18
0.006882053284289132
% es.normE (V/m) @ t=0.2
1.5310028737206944
% es.EX (V/m) @ t=0.2
1.3705683318979087
% es.EY (V/m) @ t=0.2
0.05273330706022339
% es.EZ (V/m) @ t=0.2
-0.6802436428664567
% es.tEX (V/m) @ t=0.2
1.3705683318979078
% es.tEY (V/m) @ t=0.2
0
% es.tEZ (V/m) @ t=0.2
-0.6802436428664507
% es.Ex (V/m) @ t=0.2
1.3705683318979087
% es.Ey (V/m) @ t=0.2
0.05273330706022339
% es.Ez (V/m) @ t=0.2
-0.6802436428664567
% es.tEx (V/m) @ t=0.2
1.3705683318979078
% es.tEy (V/m) @ t=0.2
0
% es.tEz (V/m) @ t=0.2
-0.6802436428664507
% V (V) @ t=0.2
0.006946143272909173
% es.normE (V/m) @ t=0.22
1.5451290258721588
% es.EX (V/m) @ t=0.22
1.383214201770984
% es.EY (V/m) @ t=0.22
0.05321986697934833
% es.EZ (V/m) @ t=0.22
-0.6865200595600659
% es.tEX (V/m) @ t=0.22
1.3832142017709845
% es.tEY (V/m) @ t=0.22
0
% es.tEZ (V/m) @ t=0.22
-0.6865200595600562
% es.Ex (V/m) @ t=0.22
1.383214201770984
% es.Ey (V/m) @ t=0.22
0.05321986697934833
% es.Ez (V/m) @ t=0.22
-0.6865200595600659
% es.tEx (V/m) @ t=0.22
1.3832142017709845
% es.tEy (V/m) @ t=0.22
0
% es.tEz (V/m) @ t=0.22
-0.6865200595600562
% V (V) @ t=0.22
0.007010233261529212
% es.normE (V/m) @ t=0.24
1.5592551780236263
% es.EX (V/m) @ t=0.24
1.3958600716440603
% es.EY (V/m) @ t=0.24
0.05370642689847102
% es.EZ (V/m) @ t=0.24
-0.6927964762536786
% es.tEX (V/m) @ t=0.24
1.3958600716440612
% es.tEY (V/m) @ t=0.24
0
% es.tEZ (V/m) @ t=0.24
-0.692796476253676
% es.Ex (V/m) @ t=0.24
1.3958600716440603
% es.Ey (V/m) @ t=0.24
0.05370642689847102
% es.Ez (V/m) @ t=0.24
-0.6927964762536786
% es.tEx (V/m) @ t=0.24
1.3958600716440612
% es.tEy (V/m) @ t=0.24
0
% es.tEz (V/m) @ t=0.24
-0.692796476253676
% V (V) @ t=0.24
0.007074323250149253
% es.normE (V/m) @ t=0.26
1.5733813301750923
% es.EX (V/m) @ t=0.26
1.4085059415171386
% es.EY (V/m) @ t=0.26
0.05419298681759907
% es.EZ (V/m) @ t=0.26
-0.6990728929472843
% es.tEX (V/m) @ t=0.26
1.408505941517137
% es.tEY (V/m) @ t=0.26
0
% es.tEZ (V/m) @ t=0.26
-0.6990728929472816
% es.Ex (V/m) @ t=0.26
1.4085059415171386
% es.Ey (V/m) @ t=0.26
0.05419298681759907
% es.Ez (V/m) @ t=0.26
-0.6990728929472843
% es.tEx (V/m) @ t=0.26
1.408505941517137
% es.tEy (V/m) @ t=0.26
0
% es.tEz (V/m) @ t=0.26
-0.6990728929472816
% V (V) @ t=0.26
0.007138413238769293
% es.normE (V/m) @ t=0.28
1.5881509630938273
% es.EX (V/m) @ t=0.28
1.4217280127788008
% es.EY (V/m) @ t=0.28
0.054701854648779386
% es.EZ (V/m) @ t=0.28
-0.7056349001666262
% es.tEX (V/m) @ t=0.28
1.4217280127788028
% es.tEY (V/m) @ t=0.28
0
% es.tEZ (V/m) @ t=0.28
-0.705634900166622
% es.Ex (V/m) @ t=0.28
1.4217280127788008
% es.Ey (V/m) @ t=0.28
0.054701854648779386
% es.Ez (V/m) @ t=0.28
-0.7056349001666262
% es.tEx (V/m) @ t=0.28
1.4217280127788028
% es.tEy (V/m) @ t=0.28
0
% es.tEz (V/m) @ t=0.28
-0.705634900166622
% V (V) @ t=0.28
0.007205415010353789
% es.normE (V/m) @ t=0.3
1.6038833127342824
% es.EX (V/m) @ t=0.3
1.4358121435453675
% es.EY (V/m) @ t=0.3
0.05524409752555404
% es.EZ (V/m) @ t=0.3
-0.7126241816551365
% es.tEX (V/m) @ t=0.3
1.435812143545367
% es.tEY (V/m) @ t=0.3
0
% es.tEZ (V/m) @ t=0.3
-0.71262418165513
% es.Ex (V/m) @ t=0.3
1.4358121435453675
% es.Ey (V/m) @ t=0.3
0.05524409752555404
% es.Ez (V/m) @ t=0.3
-0.7126241816551365
% es.tEx (V/m) @ t=0.3
1.435812143545367
% es.tEy (V/m) @ t=0.3
0
% es.tEz (V/m) @ t=0.3
-0.71262418165513
% V (V) @ t=0.3
0.007276773123714714
% es.normE (V/m) @ t=0.32
1.6196156623752862
% es.EX (V/m) @ t=0.32
1.4498962743119232
% es.EY (V/m) @ t=0.32
0.0557863404023434
% es.EZ (V/m) @ t=0.32
-0.7196134631436504
% es.tEX (V/m) @ t=0.32
1.4498962743119241
% es.tEY (V/m) @ t=0.32
0
% es.tEZ (V/m) @ t=0.32
-0.7196134631436379
% es.Ex (V/m) @ t=0.32
1.4498962743119232
% es.Ey (V/m) @ t=0.32
0.0557863404023434
% es.Ez (V/m) @ t=0.32
-0.7196134631436504
% es.tEx (V/m) @ t=0.32
1.4498962743119241
% es.tEy (V/m) @ t=0.32
0
% es.tEz (V/m) @ t=0.32
-0.7196134631436379
% V (V) @ t=0.32
0.007348131237075639
% es.normE (V/m) @ t=0.34
1.6353480120168387
% es.EX (V/m) @ t=0.34
1.4639804050784864
% es.EY (V/m) @ t=0.34
0.05632858327910742
% es.EZ (V/m) @ t=0.34
-0.7266027446321679
% es.tEX (V/m) @ t=0.34
1.4639804050784875
% es.tEY (V/m) @ t=0.34
0
% es.tEZ (V/m) @ t=0.34
-0.7266027446321637
% es.Ex (V/m) @ t=0.34
1.4639804050784864
% es.Ey (V/m) @ t=0.34
0.05632858327910742
% es.Ez (V/m) @ t=0.34
-0.7266027446321679
% es.tEx (V/m) @ t=0.34
1.4639804050784875
% es.tEy (V/m) @ t=0.34
0
% es.tEz (V/m) @ t=0.34
-0.7266027446321637
% V (V) @ t=0.34
0.007419489350436561
% es.normE (V/m) @ t=0.36
1.651080361658919
% es.EX (V/m) @ t=0.36
1.4780645358450566
% es.EY (V/m) @ t=0.36
0.05687082615588565
% es.EZ (V/m) @ t=0.36
-0.7335920261206764
% es.tEX (V/m) @ t=0.36
1.4780645358450482
% es.tEY (V/m) @ t=0.36
0
% es.tEZ (V/m) @ t=0.36
-0.7335920261206681
% es.Ex (V/m) @ t=0.36
1.4780645358450566
% es.Ey (V/m) @ t=0.36
0.05687082615588565
% es.Ez (V/m) @ t=0.36
-0.7335920261206764
% es.tEx (V/m) @ t=0.36
1.4780645358450482
% es.tEy (V/m) @ t=0.36
0
% es.tEz (V/m) @ t=0.36
-0.7335920261206681
% V (V) @ t=0.36
0.007490847463797487
% es.normE (V/m) @ t=0.38
1.6668127113014934
% es.EX (V/m) @ t=0.38
1.4921486666116126
% es.EY (V/m) @ t=0.38
0.05741306903266033
% es.EZ (V/m) @ t=0.38
-0.7405813076091778
% es.tEX (V/m) @ t=0.38
1.4921486666116088
% es.tEY (V/m) @ t=0.38
0
% es.tEZ (V/m) @ t=0.38
-0.7405813076091725
% es.Ex (V/m) @ t=0.38
1.4921486666116126
% es.Ey (V/m) @ t=0.38
0.05741306903266033
% es.Ez (V/m) @ t=0.38
-0.7405813076091778
% es.tEx (V/m) @ t=0.38
1.4921486666116088
% es.tEy (V/m) @ t=0.38
0
% es.tEz (V/m) @ t=0.38
-0.7405813076091725
% V (V) @ t=0.38
0.007562205577158412
% es.normE (V/m) @ t=0.4
1.6825450609445776
% es.EX (V/m) @ t=0.4
1.5062327973781757
% es.EY (V/m) @ t=0.4
0.05795531190943856
% es.EZ (V/m) @ t=0.4
-0.7475705890976952
% es.tEX (V/m) @ t=0.4
1.5062327973781766
% es.tEY (V/m) @ t=0.4
0
% es.tEZ (V/m) @ t=0.4
-0.7475705890976911
% es.Ex (V/m) @ t=0.4
1.5062327973781757
% es.Ey (V/m) @ t=0.4
0.05795531190943856
% es.Ez (V/m) @ t=0.4
-0.7475705890976952
% es.tEx (V/m) @ t=0.4
1.5062327973781766
% es.tEy (V/m) @ t=0.4
0
% es.tEz (V/m) @ t=0.4
-0.7475705890976911
% V (V) @ t=0.4
0.0076335636905193365
% es.normE (V/m) @ t=0.42
1.6982774105881342
% es.EX (V/m) @ t=0.42
1.5203169281447315
% es.EY (V/m) @ t=0.42
0.05849755478620841
% es.EZ (V/m) @ t=0.42
-0.7545598705862055
% es.tEX (V/m) @ t=0.42
1.5203169281447293
% es.tEY (V/m) @ t=0.42
0
% es.tEZ (V/m) @ t=0.42
-0.7545598705862027
% es.Ex (V/m) @ t=0.42
1.5203169281447315
% es.Ey (V/m) @ t=0.42
0.05849755478620841
% es.Ez (V/m) @ t=0.42
-0.7545598705862055
% es.tEx (V/m) @ t=0.42
1.5203169281447293
% es.tEy (V/m) @ t=0.42
0
% es.tEz (V/m) @ t=0.42
-0.7545598705862027
% V (V) @ t=0.42
0.007704921803880259
% es.normE (V/m) @ t=0.44
1.714009760232169
% es.EX (V/m) @ t=0.44
1.5344010589112977
% es.EY (V/m) @ t=0.44
0.05903979766299372
% es.EZ (V/m) @ t=0.44
-0.761549152074716
% es.tEX (V/m) @ t=0.44
1.5344010589112962
% es.tEY (V/m) @ t=0.44
0
% es.tEZ (V/m) @ t=0.44
-0.7615491520747071
% es.Ex (V/m) @ t=0.44
1.5344010589112977
% es.Ey (V/m) @ t=0.44
0.05903979766299372
% es.Ez (V/m) @ t=0.44
-0.761549152074716
% es.tEx (V/m) @ t=0.44
1.5344010589112962
% es.tEy (V/m) @ t=0.44
0
% es.tEz (V/m) @ t=0.44
-0.7615491520747071
% V (V) @ t=0.44
0.0077762799172411854
% es.normE (V/m) @ t=0.46
1.7297421098766597
% es.EX (V/m) @ t=0.46
1.5484851896778626
% es.EY (V/m) @ t=0.46
0.059582040539759074
% es.EZ (V/m) @ t=0.46
-0.768538433563228
% es.tEX (V/m) @ t=0.46
1.5484851896778604
% es.tEY (V/m) @ t=0.46
0
% es.tEZ (V/m) @ t=0.46
-0.7685384335632328
% es.Ex (V/m) @ t=0.46
1.5484851896778626
% es.Ey (V/m) @ t=0.46
0.059582040539759074
% es.Ez (V/m) @ t=0.46
-0.768538433563228
% es.tEx (V/m) @ t=0.46
1.5484851896778604
% es.tEy (V/m) @ t=0.46
0
% es.tEz (V/m) @ t=0.46
-0.7685384335632328
% V (V) @ t=0.46
0.007847638030602112
% es.normE (V/m) @ t=0.48
1.7454744595215934
% es.EX (V/m) @ t=0.48
1.5625693204444242
% es.EY (V/m) @ t=0.48
0.06012428341654086
% es.EZ (V/m) @ t=0.48
-0.7755277150517454
% es.tEX (V/m) @ t=0.48
1.5625693204444246
% es.tEY (V/m) @ t=0.48
0
% es.tEZ (V/m) @ t=0.48
-0.7755277150517408
% es.Ex (V/m) @ t=0.48
1.5625693204444242
% es.Ey (V/m) @ t=0.48
0.06012428341654086
% es.Ez (V/m) @ t=0.48
-0.7755277150517454
% es.tEx (V/m) @ t=0.48
1.5625693204444246
% es.tEy (V/m) @ t=0.48
0
% es.tEz (V/m) @ t=0.48
-0.7755277150517408
% V (V) @ t=0.48
0.007918996143963035
% es.normE (V/m) @ t=0.5
1.7612068091669482
% es.EX (V/m) @ t=0.5
1.5766534512109784
% es.EY (V/m) @ t=0.5
0.060666526293316425
% es.EZ (V/m) @ t=0.5
-0.7825169965402523
% es.tEX (V/m) @ t=0.5
1.5766534512109818
% es.tEY (V/m) @ t=0.5
0
% es.tEZ (V/m) @ t=0.5
-0.7825169965402488
% es.Ex (V/m) @ t=0.5
1.5766534512109784
% es.Ey (V/m) @ t=0.5
0.060666526293316425
% es.Ez (V/m) @ t=0.5
-0.7825169965402523
% es.tEx (V/m) @ t=0.5
1.5766534512109818
% es.tEy (V/m) @ t=0.5
0
% es.tEz (V/m) @ t=0.5
-0.7825169965402488
% V (V) @ t=0.5
0.007990354257323959
% es.normE (V/m) @ t=0.52
1.776939158812743
% es.EX (V/m) @ t=0.52
1.5907375819775484
% es.EY (V/m) @ t=0.52
0.06120876917009249
% es.EZ (V/m) @ t=0.52
-0.7895062780287715
% es.tEX (V/m) @ t=0.52
1.5907375819775487
% es.tEY (V/m) @ t=0.52
0
% es.tEZ (V/m) @ t=0.52
-0.7895062780287674
% es.Ex (V/m) @ t=0.52
1.5907375819775484
% es.Ey (V/m) @ t=0.52
0.06120876917009249
% es.Ez (V/m) @ t=0.52
-0.7895062780287715
% es.tEx (V/m) @ t=0.52
1.5907375819775487
% es.tEy (V/m) @ t=0.52
0
% es.tEz (V/m) @ t=0.52
-0.7895062780287674
% V (V) @ t=0.52
0.008061712370684884
% es.normE (V/m) @ t=0.54
1.7926715084589286
% es.EX (V/m) @ t=0.54
1.6048217127441062
% es.EY (V/m) @ t=0.54
0.06175101204685471
% es.EZ (V/m) @ t=0.54
-0.7964955595172747
% es.tEX (V/m) @ t=0.54
1.6048217127441058
% es.tEY (V/m) @ t=0.54
0
% es.tEZ (V/m) @ t=0.54
-0.7964955595172647
% es.Ex (V/m) @ t=0.54
1.6048217127441062
% es.Ey (V/m) @ t=0.54
0.06175101204685471
% es.Ez (V/m) @ t=0.54
-0.7964955595172747
% es.tEx (V/m) @ t=0.54
1.6048217127441058
% es.tEy (V/m) @ t=0.54
0
% es.tEz (V/m) @ t=0.54
-0.7964955595172647
% V (V) @ t=0.54
0.008133070484045808
% es.normE (V/m) @ t=0.56
1.8098858041623385
% es.EX (V/m) @ t=0.56
1.620231895268431
% es.EY (V/m) @ t=0.56
0.06234372677950359
% es.EZ (V/m) @ t=0.56
-0.8041445422593458
% es.tEX (V/m) @ t=0.56
1.6202318952684278
% es.tEY (V/m) @ t=0.56
0
% es.tEZ (V/m) @ t=0.56
-0.8041445422593441
% es.Ex (V/m) @ t=0.56
1.620231895268431
% es.Ey (V/m) @ t=0.56
0.06234372677950359
% es.Ez (V/m) @ t=0.56
-0.8041445422593458
% es.tEx (V/m) @ t=0.56
1.6202318952684278
% es.tEy (V/m) @ t=0.56
0
% es.tEz (V/m) @ t=0.56
-0.8041445422593441
% V (V) @ t=0.56
0.008211182659500313
% es.normE (V/m) @ t=0.58
1.8274450090959546
% es.EX (V/m) @ t=0.58
1.635950704067071
% es.EY (V/m) @ t=0.58
0.06294818836947075
% es.EZ (V/m) @ t=0.58
-0.8119470643627915
% es.tEX (V/m) @ t=0.58
1.6359507040670698
% es.tEY (V/m) @ t=0.58
0
% es.tEZ (V/m) @ t=0.58
-0.8119470643627871
% es.Ex (V/m) @ t=0.58
1.635950704067071
% es.Ey (V/m) @ t=0.58
0.06294818836947075
% es.Ez (V/m) @ t=0.58
-0.8119470643627915
% es.tEx (V/m) @ t=0.58
1.6359507040670698
% es.tEy (V/m) @ t=0.58
0
% es.tEz (V/m) @ t=0.58
-0.8119470643627871
% V (V) @ t=0.58
0.008290866780399881
% es.normE (V/m) @ t=0.6
1.8450042140301322
% es.EX (V/m) @ t=0.6
1.651669512865714
% es.EY (V/m) @ t=0.6
0.06355264995944016
% es.EZ (V/m) @ t=0.6
-0.8197495864662387
% es.tEX (V/m) @ t=0.6
1.651669512865717
% es.tEY (V/m) @ t=0.6
0
% es.tEZ (V/m) @ t=0.6
-0.8197495864662407
% es.Ex (V/m) @ t=0.6
1.651669512865714
% es.Ey (V/m) @ t=0.6
0.06355264995944016
% es.Ez (V/m) @ t=0.6
-0.8197495864662387
% es.tEx (V/m) @ t=0.6
1.651669512865717
% es.tEy (V/m) @ t=0.6
0
% es.tEz (V/m) @ t=0.6
-0.8197495864662407
% V (V) @ t=0.6
0.008370550901299453
% es.normE (V/m) @ t=0.62
1.8625634189648506
% es.EX (V/m) @ t=0.62
1.6673883216643572
% es.EY (V/m) @ t=0.62
0.06415711154942152
% es.EZ (V/m) @ t=0.62
-0.8275521085696826
% es.tEX (V/m) @ t=0.62
1.6673883216643652
% es.tEY (V/m) @ t=0.62
0
% es.tEZ (V/m) @ t=0.62
-0.8275521085696802
% es.Ex (V/m) @ t=0.62
1.6673883216643572
% es.Ey (V/m) @ t=0.62
0.06415711154942152
% es.Ez (V/m) @ t=0.62
-0.8275521085696826
% es.tEx (V/m) @ t=0.62
1.6673883216643652
% es.tEy (V/m) @ t=0.62
0
% es.tEz (V/m) @ t=0.62
-0.8275521085696802
% V (V) @ t=0.62
0.008450235022199023
% es.normE (V/m) @ t=0.64
1.880122623900118
% es.EX (V/m) @ t=0.64
1.6831071304630107
% es.EY (V/m) @ t=0.64
0.06476157313938652
% es.EZ (V/m) @ t=0.64
-0.8353546306731547
% es.tEX (V/m) @ t=0.64
1.6831071304630054
% es.tEY (V/m) @ t=0.64
0
% es.tEZ (V/m) @ t=0.64
-0.835354630673141
% es.Ex (V/m) @ t=0.64
1.6831071304630107
% es.Ey (V/m) @ t=0.64
0.06476157313938652
% es.Ez (V/m) @ t=0.64
-0.8353546306731547
% es.tEx (V/m) @ t=0.64
1.6831071304630054
% es.tEy (V/m) @ t=0.64
0
% es.tEz (V/m) @ t=0.64
-0.835354630673141
% V (V) @ t=0.64
0.008529919143098592
% es.normE (V/m) @ t=0.66
1.8976818288358768
% es.EX (V/m) @ t=0.66
1.6988259392616536
% es.EY (V/m) @ t=0.66
0.06536603472935809
% es.EZ (V/m) @ t=0.66
-0.8431571527766021
% es.tEX (V/m) @ t=0.66
1.6988259392616527
% es.tEY (V/m) @ t=0.66
0
% es.tEZ (V/m) @ t=0.66
-0.8431571527765946
% es.Ex (V/m) @ t=0.66
1.6988259392616536
% es.Ey (V/m) @ t=0.66
0.06536603472935809
% es.Ez (V/m) @ t=0.66
-0.8431571527766021
% es.tEx (V/m) @ t=0.66
1.6988259392616527
% es.tEy (V/m) @ t=0.66
0
% es.tEz (V/m) @ t=0.66
-0.8431571527765946
% V (V) @ t=0.66
0.008609603263998162
% es.normE (V/m) @ t=0.68
1.9152410337721317
% es.EX (V/m) @ t=0.68
1.7145447480603004
% es.EY (V/m) @ t=0.68
0.06597049631933019
% es.EZ (V/m) @ t=0.68
-0.8509596748800352
% es.tEX (V/m) @ t=0.68
1.7145447480603009
% es.tEY (V/m) @ t=0.68
0
% es.tEZ (V/m) @ t=0.68
-0.8509596748800377
% es.Ex (V/m) @ t=0.68
1.7145447480603004
% es.Ey (V/m) @ t=0.68
0.06597049631933019
% es.Ez (V/m) @ t=0.68
-0.8509596748800352
% es.tEx (V/m) @ t=0.68
1.7145447480603009
% es.tEy (V/m) @ t=0.68
0
% es.tEz (V/m) @ t=0.68
-0.8509596748800377
% V (V) @ t=0.68
0.008689287384897732
% es.normE (V/m) @ t=0.7
1.9328002387088987
% es.EX (V/m) @ t=0.7
1.730263556858958
% es.EY (V/m) @ t=0.7
0.06657495790930534
% es.EZ (V/m) @ t=0.7
-0.8587621969835092
% es.tEX (V/m) @ t=0.7
1.7302635568589562
% es.tEY (V/m) @ t=0.7
0
% es.tEZ (V/m) @ t=0.7
-0.8587621969834984
% es.Ex (V/m) @ t=0.7
1.730263556858958
% es.Ey (V/m) @ t=0.7
0.06657495790930534
% es.Ez (V/m) @ t=0.7
-0.8587621969835092
% es.tEx (V/m) @ t=0.7
1.7302635568589562
% es.tEy (V/m) @ t=0.7
0
% es.tEz (V/m) @ t=0.7
-0.8587621969834984
% V (V) @ t=0.7
0.008768971505797302
% es.normE (V/m) @ t=0.72
1.950359443646101
% es.EX (V/m) @ t=0.72
1.7459823656575901
% es.EY (V/m) @ t=0.72
0.06717941949926937
% es.EZ (V/m) @ t=0.72
-0.866564719086953
% es.tEX (V/m) @ t=0.72
1.7459823656575892
% es.tEY (V/m) @ t=0.72
0
% es.tEZ (V/m) @ t=0.72
-0.866564719086945
% es.Ex (V/m) @ t=0.72
1.7459823656575901
% es.Ey (V/m) @ t=0.72
0.06717941949926937
% es.Ez (V/m) @ t=0.72
-0.866564719086953
% es.tEx (V/m) @ t=0.72
1.7459823656575892
% es.tEy (V/m) @ t=0.72
0
% es.tEz (V/m) @ t=0.72
-0.866564719086945
% V (V) @ t=0.72
0.00884865562669687
% es.normE (V/m) @ t=0.74
1.967918648583777
% es.EX (V/m) @ t=0.74
1.7617011744562407
% es.EY (V/m) @ t=0.74
0.06778388108923392
% es.EZ (V/m) @ t=0.74
-0.8743672411903932
% es.tEX (V/m) @ t=0.74
1.7617011744562374
% es.tEY (V/m) @ t=0.74
0
% es.tEZ (V/m) @ t=0.74
-0.8743672411903987
% es.Ex (V/m) @ t=0.74
1.7617011744562407
% es.Ey (V/m) @ t=0.74
0.06778388108923392
% es.Ez (V/m) @ t=0.74
-0.8743672411903932
% es.tEx (V/m) @ t=0.74
1.7617011744562374
% es.tEy (V/m) @ t=0.74
0
% es.tEz (V/m) @ t=0.74
-0.8743672411903987
% V (V) @ t=0.74
0.00892833974759644
% es.normE (V/m) @ t=0.76
1.9854778535219029
% es.EX (V/m) @ t=0.76
1.7774199832548834
% es.EY (V/m) @ t=0.76
0.06838834267923258
% es.EZ (V/m) @ t=0.76
-0.882169763293853
% es.tEX (V/m) @ t=0.76
1.7774199832548847
% es.tEY (V/m) @ t=0.76
0
% es.tEZ (V/m) @ t=0.76
-0.8821697632938452
% es.Ex (V/m) @ t=0.76
1.7774199832548834
% es.Ey (V/m) @ t=0.76
0.06838834267923258
% es.Ez (V/m) @ t=0.76
-0.882169763293853
% es.tEx (V/m) @ t=0.76
1.7774199832548847
% es.tEy (V/m) @ t=0.76
0
% es.tEz (V/m) @ t=0.76
-0.8821697632938452
% V (V) @ t=0.76
0.00900802386849601
% es.normE (V/m) @ t=0.78
2.003037058460471
% es.EX (V/m) @ t=0.78
1.793138792053541
% es.EY (V/m) @ t=0.78
0.06899280426921311
% es.EZ (V/m) @ t=0.78
-0.8899722853973002
% es.tEX (V/m) @ t=0.78
1.7931387920535329
% es.tEY (V/m) @ t=0.78
0
% es.tEZ (V/m) @ t=0.78
-0.8899722853972989
% es.Ex (V/m) @ t=0.78
1.793138792053541
% es.Ey (V/m) @ t=0.78
0.06899280426921311
% es.Ez (V/m) @ t=0.78
-0.8899722853973002
% es.tEx (V/m) @ t=0.78
1.7931387920535329
% es.tEy (V/m) @ t=0.78
0
% es.tEz (V/m) @ t=0.78
-0.8899722853972989
% V (V) @ t=0.78
0.00908770798939558
% es.normE (V/m) @ t=0.8
2.0205962633994496
% es.EX (V/m) @ t=0.8
1.808857600852184
% es.EY (V/m) @ t=0.8
0.06959726585917272
% es.EZ (V/m) @ t=0.8
-0.8977748075007494
% es.tEX (V/m) @ t=0.8
1.8088576008521802
% es.tEY (V/m) @ t=0.8
0
% es.tEZ (V/m) @ t=0.8
-0.8977748075007383
% es.Ex (V/m) @ t=0.8
1.808857600852184
% es.Ey (V/m) @ t=0.8
0.06959726585917272
% es.Ez (V/m) @ t=0.8
-0.8977748075007494
% es.tEx (V/m) @ t=0.8
1.8088576008521802
% es.tEy (V/m) @ t=0.8
0
% es.tEz (V/m) @ t=0.8
-0.8977748075007383
% V (V) @ t=0.8
0.00916739211029515
% es.normE (V/m) @ t=0.82
2.038614858638892
% es.EX (V/m) @ t=0.82
1.8249875876199875
% es.EY (V/m) @ t=0.82
0.07021748138904019
% es.EZ (V/m) @ t=0.82
-0.905781594066351
% es.tEX (V/m) @ t=0.82
1.8249875876199946
% es.tEY (V/m) @ t=0.82
0
% es.tEZ (V/m) @ t=0.82
-0.9057815940663403
% es.Ex (V/m) @ t=0.82
1.8249875876199875
% es.Ey (V/m) @ t=0.82
0.07021748138904019
% es.Ez (V/m) @ t=0.82
-0.905781594066351
% es.tEx (V/m) @ t=0.82
1.8249875876199946
% es.tEy (V/m) @ t=0.82
0
% es.tEz (V/m) @ t=0.82
-0.9057815940663403
% V (V) @ t=0.82
0.009249164166178584
% es.normE (V/m) @ t=0.84
2.0582454657312725
% es.EX (V/m) @ t=0.84
1.842560407985839
% es.EY (V/m) @ t=0.84
0.07089297788109983
% es.EZ (V/m) @ t=0.84
-0.9145051496491963
% es.tEX (V/m) @ t=0.84
1.842560407985835
% es.tEY (V/m) @ t=0.84
0
% es.tEZ (V/m) @ t=0.84
-0.9145051496491945
% es.Ex (V/m) @ t=0.84
1.842560407985839
% es.Ey (V/m) @ t=0.84
0.07089297788109983
% es.Ez (V/m) @ t=0.84
-0.9145051496491963
% es.tEx (V/m) @ t=0.84
1.842560407985835
% es.tEy (V/m) @ t=0.84
0
% es.tEz (V/m) @ t=0.84
-0.9145051496491945
% V (V) @ t=0.84
0.009338262837228857
% es.normE (V/m) @ t=0.86
2.077876072825055
% es.EX (V/m) @ t=0.86
1.8601332283516685
% es.EY (V/m) @ t=0.86
0.07156847437315153
% es.EZ (V/m) @ t=0.86
-0.9232287052320469
% es.tEX (V/m) @ t=0.86
1.8601332283516685
% es.tEY (V/m) @ t=0.86
0
% es.tEZ (V/m) @ t=0.86
-0.9232287052320487
% es.Ex (V/m) @ t=0.86
1.8601332283516685
% es.Ey (V/m) @ t=0.86
0.07156847437315153
% es.Ez (V/m) @ t=0.86
-0.9232287052320469
% es.tEx (V/m) @ t=0.86
1.8601332283516685
% es.tEy (V/m) @ t=0.86
0
% es.tEz (V/m) @ t=0.86
-0.9232287052320487
% V (V) @ t=0.86
0.00942736150827913
% es.normE (V/m) @ t=0.88
2.097506679920218
% es.EX (V/m) @ t=0.88
1.877706048717502
% es.EY (V/m) @ t=0.88
0.07224397086519566
% es.EZ (V/m) @ t=0.88
-0.9319522608148905
% es.tEX (V/m) @ t=0.88
1.877706048717502
% es.tEY (V/m) @ t=0.88
0
% es.tEZ (V/m) @ t=0.88
-0.9319522608148958
% es.Ex (V/m) @ t=0.88
1.877706048717502
% es.Ey (V/m) @ t=0.88
0.07224397086519566
% es.Ez (V/m) @ t=0.88
-0.9319522608148905
% es.tEx (V/m) @ t=0.88
1.877706048717502
% es.tEy (V/m) @ t=0.88
0
% es.tEz (V/m) @ t=0.88
-0.9319522608148958
% V (V) @ t=0.88
0.009516460179329405
% es.normE (V/m) @ t=0.9
2.1171372870167358
% es.EX (V/m) @ t=0.9
1.8952788690833422
% es.EY (V/m) @ t=0.9
0.07291946735724375
% es.EZ (V/m) @ t=0.9
-0.9406758163977482
% es.tEX (V/m) @ t=0.9
1.8952788690833344
% es.tEY (V/m) @ t=0.9
0
% es.tEZ (V/m) @ t=0.9
-0.9406758163977287
% es.Ex (V/m) @ t=0.9
1.8952788690833422
% es.Ey (V/m) @ t=0.9
0.07291946735724375
% es.Ez (V/m) @ t=0.9
-0.9406758163977482
% es.tEx (V/m) @ t=0.9
1.8952788690833344
% es.tEy (V/m) @ t=0.9
0
% es.tEz (V/m) @ t=0.9
-0.9406758163977287
% V (V) @ t=0.9
0.009605558850379678
% es.normE (V/m) @ t=0.92
2.136767894114554
% es.EX (V/m) @ t=0.92
1.912851689449182
% es.EY (V/m) @ t=0.92
0.07359496384930878
% es.EZ (V/m) @ t=0.92
-0.9493993719805953
% es.tEX (V/m) @ t=0.92
1.912851689449174
% es.tEY (V/m) @ t=0.92
0
% es.tEZ (V/m) @ t=0.92
-0.9493993719805971
% es.Ex (V/m) @ t=0.92
1.912851689449182
% es.Ey (V/m) @ t=0.92
0.07359496384930878
% es.Ez (V/m) @ t=0.92
-0.9493993719805953
% es.tEx (V/m) @ t=0.92
1.912851689449174
% es.tEy (V/m) @ t=0.92
0
% es.tEz (V/m) @ t=0.92
-0.9493993719805971
% V (V) @ t=0.92
0.009694657521429952
% es.normE (V/m) @ t=0.94
2.1563985012136184
% es.EX (V/m) @ t=0.94
1.9304245098150048
% es.EY (V/m) @ t=0.94
0.07427046034136042
% es.EZ (V/m) @ t=0.94
-0.9581229275634282
% es.tEX (V/m) @ t=0.94
1.9304245098149995
% es.tEY (V/m) @ t=0.94
0
% es.tEZ (V/m) @ t=0.94
-0.9581229275634229
% es.Ex (V/m) @ t=0.94
1.9304245098150048
% es.Ey (V/m) @ t=0.94
0.07427046034136042
% es.Ez (V/m) @ t=0.94
-0.9581229275634282
% es.tEx (V/m) @ t=0.94
1.9304245098149995
% es.tEy (V/m) @ t=0.94
0
% es.tEz (V/m) @ t=0.94
-0.9581229275634229
% V (V) @ t=0.94
0.009783756192480226
% es.normE (V/m) @ t=0.96
2.1760291083139416
% es.EX (V/m) @ t=0.96
1.9479973301808418
% es.EY (V/m) @ t=0.96
0.07494595683343341
% es.EZ (V/m) @ t=0.96
-0.9668464831462824
% es.tEX (V/m) @ t=0.96
1.947997330180847
% es.tEY (V/m) @ t=0.96
0
% es.tEZ (V/m) @ t=0.96
-0.9668464831462771
% es.Ex (V/m) @ t=0.96
1.9479973301808418
% es.Ey (V/m) @ t=0.96
0.07494595683343341
% es.Ez (V/m) @ t=0.96
-0.9668464831462824
% es.tEx (V/m) @ t=0.96
1.947997330180847
% es.tEy (V/m) @ t=0.96
0
% es.tEz (V/m) @ t=0.96
-0.9668464831462771
% V (V) @ t=0.96
0.009872854863530501
% es.normE (V/m) @ t=0.98
2.195659715415457
% es.EX (V/m) @ t=0.98
1.9655701505466823
% es.EY (V/m) @ t=0.98
0.07562145332547535
% es.EZ (V/m) @ t=0.98
-0.9755700387291117
% es.tEX (V/m) @ t=0.98
1.9655701505466814
% es.tEY (V/m) @ t=0.98
0
% es.tEZ (V/m) @ t=0.98
-0.97557003872911
% es.Ex (V/m) @ t=0.98
1.9655701505466823
% es.Ey (V/m) @ t=0.98
0.07562145332547535
% es.Ez (V/m) @ t=0.98
-0.9755700387291117
% es.tEx (V/m) @ t=0.98
1.9655701505466814
% es.tEy (V/m) @ t=0.98
0
% es.tEz (V/m) @ t=0.98
-0.97557003872911
% V (V) @ t=0.98
0.009961953534580775
% es.normE (V/m) @ t=1
2.215290322518153
% es.EX (V/m) @ t=1
1.9831429709125155
% es.EY (V/m) @ t=1
0.07629694981753765
% es.EZ (V/m) @ t=1
-0.9842935943119766
% es.tEX (V/m) @ t=1
1.983142970912514
% es.tEY (V/m) @ t=1
0
% es.tEZ (V/m) @ t=1
-0.9842935943119642
% es.Ex (V/m) @ t=1
1.9831429709125155
% es.Ey (V/m) @ t=1
0.07629694981753765
% es.Ez (V/m) @ t=1
-0.9842935943119766
% es.tEx (V/m) @ t=1
1.983142970912514
% es.tEy (V/m) @ t=1
0
% es.tEz (V/m) @ t=1
-0.9842935943119642
% V (V) @ t=1
0.010051052205631046
% es.normE (V/m) @ t=1.02
2.23492092962199
% es.EX (V/m) @ t=1.02
2.0007157912783597
% es.EY (V/m) @ t=1.02
0.07697244630960179
% es.EZ (V/m) @ t=1.02
-0.9930171498948237
% es.tEX (V/m) @ t=1.02
2.0007157912783615
% es.tEY (V/m) @ t=1.02
0
% es.tEZ (V/m) @ t=1.02
-0.9930171498948184
% es.Ex (V/m) @ t=1.02
2.0007157912783597
% es.Ey (V/m) @ t=1.02
0.07697244630960179
% es.Ez (V/m) @ t=1.02
-0.9930171498948237
% es.tEx (V/m) @ t=1.02
2.0007157912783615
% es.tEy (V/m) @ t=1.02
0
% es.tEz (V/m) @ t=1.02
-0.9930171498948184
% V (V) @ t=1.02
0.010140150876681322
% es.normE (V/m) @ t=1.04
2.2545515367269218
% es.EX (V/m) @ t=1.04
2.0182886116441887
% es.EY (V/m) @ t=1.04
0.07764794280163212
% es.EZ (V/m) @ t=1.04
-1.0017407054776744