% Model:              1 neuron.mph
% Version:            COMSOL 6.0.0.405
% Date:               Mar 16 2023, 09:48
% Dimension:          0
% Nodes:              14017
% Expressions:        14017
% Description:        Electric field norm, Electric field, X component, Electric field, Y component, Electric field, Z component, Tangential electric field, X component, Tangential electric field, Y component, Tangential electric field, Z component, Electric field, x component, Electric field, y component, Electric field, z component, Tangential electric field, x component, Tangential electric field, y component, Tangential electric field, z component, Electric potential
% Length unit:        mm
% x
1
% y
12.2
% z
1.33
% es.normE (V/m) @ t=0
1.4848361120709783
% es.EX (V/m) @ t=0
1.3721827331778513
% es.EY (V/m) @ t=0
0.08640104477535537
% es.EZ (V/m) @ t=0
0.5547227905030727
% es.tEX (V/m) @ t=0
1.3721827331778504
% es.tEY (V/m) @ t=0
0
% es.tEZ (V/m) @ t=0
0.5547227905030745
% es.Ex (V/m) @ t=0
1.3721827331778513
% es.Ey (V/m) @ t=0
0.08640104477535537
% es.Ez (V/m) @ t=0
0.5547227905030727
% es.tEx (V/m) @ t=0
1.3721827331778504
% es.tEy (V/m) @ t=0
0
% es.tEz (V/m) @ t=0
0.5547227905030745
% V (V) @ t=0
0.007406603281776337
% es.normE (V/m) @ t=0.02
1.2824792988251432
% es.EX (V/m) @ t=0.02
1.1851785764063427
% es.EY (V/m) @ t=0.02
0.07462611558900328
% es.EZ (V/m) @ t=0.02
0.47912391787508324
% es.tEX (V/m) @ t=0.02
1.1851785764063454
% es.tEY (V/m) @ t=0.02
0
% es.tEZ (V/m) @ t=0.02
0.4791239178750879
% es.Ex (V/m) @ t=0.02
1.1851785764063427
% es.Ey (V/m) @ t=0.02
0.07462611558900328
% es.Ez (V/m) @ t=0.02
0.47912391787508324
% es.tEx (V/m) @ t=0.02
1.1851785764063454
% es.tEy (V/m) @ t=0.02
0
% es.tEz (V/m) @ t=0.02
0.4791239178750879
% V (V) @ t=0.02
0.006397214686305088
% es.normE (V/m) @ t=0.04
1.2942737321552016
% es.EX (V/m) @ t=0.04
1.1960781752870675
% es.EY (V/m) @ t=0.04
0.07531242077012457
% es.EZ (V/m) @ t=0.04
0.48353022260178324
% es.tEX (V/m) @ t=0.04
1.1960781752870657
% es.tEY (V/m) @ t=0.04
0
% es.tEZ (V/m) @ t=0.04
0.48353022260178546
% es.Ex (V/m) @ t=0.04
1.1960781752870675
% es.Ey (V/m) @ t=0.04
0.07531242077012457
% es.Ez (V/m) @ t=0.04
0.48353022260178324
% es.tEx (V/m) @ t=0.04
1.1960781752870657
% es.tEy (V/m) @ t=0.04
0
% es.tEz (V/m) @ t=0.04
0.48353022260178546
% V (V) @ t=0.04
0.006456047258283159
% es.normE (V/m) @ t=0.06
1.3061715904551467
% es.EX (V/m) @ t=0.06
1.2070733524448496
% es.EY (V/m) @ t=0.06
0.07600474393730233
% es.EZ (V/m) @ t=0.06
0.48797516588176015
% es.tEX (V/m) @ t=0.06
1.2070733524448514
% es.tEY (V/m) @ t=0.06
0
% es.tEZ (V/m) @ t=0.06
0.48797516588176126
% es.Ex (V/m) @ t=0.06
1.2070733524448496
% es.Ey (V/m) @ t=0.06
0.07600474393730233
% es.Ez (V/m) @ t=0.06
0.48797516588176015
% es.tEx (V/m) @ t=0.06
1.2070733524448514
% es.tEy (V/m) @ t=0.06
0
% es.tEz (V/m) @ t=0.06
0.48797516588176126
% V (V) @ t=0.06
0.006515395742883229
% es.normE (V/m) @ t=0.08
1.318257857204047
% es.EX (V/m) @ t=0.08
1.2182426438467289
% es.EY (V/m) @ t=0.08
0.07670802990761905
% es.EZ (V/m) @ t=0.08
0.49249049658745503
% es.tEX (V/m) @ t=0.08
1.2182426438467289
% es.tEY (V/m) @ t=0.08
0
% es.tEZ (V/m) @ t=0.08
0.4924904965874548
% es.Ex (V/m) @ t=0.08
1.2182426438467289
% es.Ey (V/m) @ t=0.08
0.07670802990761905
% es.Ez (V/m) @ t=0.08
0.49249049658745503
% es.tEx (V/m) @ t=0.08
1.2182426438467289
% es.tEy (V/m) @ t=0.08
0
% es.tEz (V/m) @ t=0.08
0.4924904965874548
% V (V) @ t=0.08
0.006575684068745598
% es.normE (V/m) @ t=0.1
1.3304609999275447
% es.EX (V/m) @ t=0.1
1.2295199440565159
% es.EY (V/m) @ t=0.1
0.07741811646625019
% es.EZ (V/m) @ t=0.1
0.49704949093468853
% es.tEX (V/m) @ t=0.1
1.229519944056518
% es.tEY (V/m) @ t=0.1
0
% es.tEZ (V/m) @ t=0.1
0.4970494909346872
% es.Ex (V/m) @ t=0.1
1.2295199440565159
% es.Ey (V/m) @ t=0.1
0.07741811646625019
% es.Ez (V/m) @ t=0.1
0.49704949093468853
% es.tEx (V/m) @ t=0.1
1.229519944056518
% es.tEy (V/m) @ t=0.1
0
% es.tEz (V/m) @ t=0.1
0.4970494909346872
% V (V) @ t=0.1
0.006636555409139003
% es.normE (V/m) @ t=0.12
1.34266414265105
% es.EX (V/m) @ t=0.12
1.2407972442663047
% es.EY (V/m) @ t=0.12
0.07812820302488765
% es.EZ (V/m) @ t=0.12
0.5016084852819356
% es.tEX (V/m) @ t=0.12
1.2407972442663073
% es.tEY (V/m) @ t=0.12
0
% es.tEZ (V/m) @ t=0.12
0.5016084852819329
% es.Ex (V/m) @ t=0.12
1.2407972442663047
% es.Ey (V/m) @ t=0.12
0.07812820302488765
% es.Ez (V/m) @ t=0.12
0.5016084852819356
% es.tEx (V/m) @ t=0.12
1.2407972442663073
% es.tEy (V/m) @ t=0.12
0
% es.tEz (V/m) @ t=0.12
0.5016084852819329
% V (V) @ t=0.12
0.006697426749532406
% es.normE (V/m) @ t=0.14
1.3550249449844096
% es.EX (V/m) @ t=0.14
1.252220242579389
% es.EY (V/m) @ t=0.14
0.07884746360903644
% es.EZ (V/m) @ t=0.14
0.5062263799709186
% es.tEX (V/m) @ t=0.14
1.2522202425793916
% es.tEY (V/m) @ t=0.14
0
% es.tEZ (V/m) @ t=0.14
0.5062263799709181
% es.Ex (V/m) @ t=0.14
1.252220242579389
% es.Ey (V/m) @ t=0.14
0.07884746360903644
% es.Ez (V/m) @ t=0.14
0.5062263799709186
% es.tEx (V/m) @ t=0.14
1.2522202425793916
% es.tEy (V/m) @ t=0.14
0
% es.tEz (V/m) @ t=0.14
0.5062263799709181
% V (V) @ t=0.14
0.006759084522797243
% es.normE (V/m) @ t=0.16
1.367873715246804
% es.EX (V/m) @ t=0.16
1.2640941870910232
% es.EY (V/m) @ t=0.16
0.07959511846757217
% es.EZ (V/m) @ t=0.16
0.5110265754901808
% es.tEX (V/m) @ t=0.16
1.2640941870910254
% es.tEY (V/m) @ t=0.16
0
% es.tEZ (V/m) @ t=0.16
0.5110265754901828
% es.Ex (V/m) @ t=0.16
1.2640941870910232
% es.Ey (V/m) @ t=0.16
0.07959511846757217
% es.Ez (V/m) @ t=0.16
0.5110265754901808
% es.tEx (V/m) @ t=0.16
1.2640941870910254
% es.tEy (V/m) @ t=0.16
0
% es.tEz (V/m) @ t=0.16
0.5110265754901828
% V (V) @ t=0.16
0.00682317636284647
% es.normE (V/m) @ t=0.18
1.3807224855092046
% es.EX (V/m) @ t=0.18
1.2759681316026636
% es.EY (V/m) @ t=0.18
0.08034277332611683
% es.EZ (V/m) @ t=0.18
0.5158267710094433
% es.tEX (V/m) @ t=0.18
1.2759681316026645
% es.tEY (V/m) @ t=0.18
0
% es.tEZ (V/m) @ t=0.18
0.5158267710094435
% es.Ex (V/m) @ t=0.18
1.2759681316026636
% es.Ey (V/m) @ t=0.18
0.08034277332611683
% es.Ez (V/m) @ t=0.18
0.5158267710094433
% es.tEx (V/m) @ t=0.18
1.2759681316026645
% es.tEy (V/m) @ t=0.18
0
% es.tEz (V/m) @ t=0.18
0.5158267710094435
% V (V) @ t=0.18
0.006887268202895696
% es.normE (V/m) @ t=0.2
1.393571255771605
% es.EX (V/m) @ t=0.2
1.2878420761143006
% es.EY (V/m) @ t=0.2
0.08109042818465162
% es.EZ (V/m) @ t=0.2
0.5206269665287149
% es.tEX (V/m) @ t=0.2
1.2878420761143028
% es.tEY (V/m) @ t=0.2
0
% es.tEZ (V/m) @ t=0.2
0.5206269665287131
% es.Ex (V/m) @ t=0.2
1.2878420761143006
% es.Ey (V/m) @ t=0.2
0.08109042818465162
% es.Ez (V/m) @ t=0.2
0.5206269665287149
% es.tEx (V/m) @ t=0.2
1.2878420761143028
% es.tEy (V/m) @ t=0.2
0
% es.tEz (V/m) @ t=0.2
0.5206269665287131
% V (V) @ t=0.2
0.006951360042944922
% es.normE (V/m) @ t=0.22
1.406420026033992
% es.EX (V/m) @ t=0.22
1.2997160206259282
% es.EY (V/m) @ t=0.22
0.08183808304319462
% es.EZ (V/m) @ t=0.22
0.5254271620479738
% es.tEX (V/m) @ t=0.22
1.2997160206259268
% es.tEY (V/m) @ t=0.22
0
% es.tEZ (V/m) @ t=0.22
0.5254271620479738
% es.Ex (V/m) @ t=0.22
1.2997160206259282
% es.Ey (V/m) @ t=0.22
0.08183808304319462
% es.Ez (V/m) @ t=0.22
0.5254271620479738
% es.tEx (V/m) @ t=0.22
1.2997160206259268
% es.tEy (V/m) @ t=0.22
0
% es.tEz (V/m) @ t=0.22
0.5254271620479738
% V (V) @ t=0.22
0.007015451882994151
% es.normE (V/m) @ t=0.24
1.4192687962963833
% es.EX (V/m) @ t=0.24
1.3115899651375615
% es.EY (V/m) @ t=0.24
0.08258573790173829
% es.EZ (V/m) @ t=0.24
0.53022735756723
% es.tEX (V/m) @ t=0.24
1.3115899651375615
% es.tEY (V/m) @ t=0.24
0
% es.tEZ (V/m) @ t=0.24
0.5302273575672305
% es.Ex (V/m) @ t=0.24
1.3115899651375615
% es.Ey (V/m) @ t=0.24
0.08258573790173829
% es.Ez (V/m) @ t=0.24
0.53022735756723
% es.tEx (V/m) @ t=0.24
1.3115899651375615
% es.tEy (V/m) @ t=0.24
0
% es.tEz (V/m) @ t=0.24
0.5302273575672305
% V (V) @ t=0.24
0.007079543723043374
% es.normE (V/m) @ t=0.26
1.4321175665587833
% es.EX (V/m) @ t=0.26
1.3234639096491998
% es.EY (V/m) @ t=0.26
0.08333339276027402
% es.EZ (V/m) @ t=0.26
0.5350275530864979
% es.tEX (V/m) @ t=0.26
1.3234639096492016
% es.tEY (V/m) @ t=0.26
0
% es.tEZ (V/m) @ t=0.26
0.5350275530864987
% es.Ex (V/m) @ t=0.26
1.3234639096491998
% es.Ey (V/m) @ t=0.26
0.08333339276027402
% es.Ez (V/m) @ t=0.26
0.5350275530864979
% es.tEx (V/m) @ t=0.26
1.3234639096492016
% es.tEy (V/m) @ t=0.26
0
% es.tEz (V/m) @ t=0.26
0.5350275530864987
% V (V) @ t=0.26
0.007143635563092602
% es.normE (V/m) @ t=0.28
1.4456895663697038
% es.EX (V/m) @ t=0.28
1.3360062646155848
% es.EY (V/m) @ t=0.28
0.08412300301269426
% es.EZ (V/m) @ t=0.28
0.5400978247551582
% es.tEX (V/m) @ t=0.28
1.336006264615584
% es.tEY (V/m) @ t=0.28
0
% es.tEZ (V/m) @ t=0.28
0.5400978247551556
% es.Ex (V/m) @ t=0.28
1.3360062646155848
% es.Ey (V/m) @ t=0.28
0.08412300301269426
% es.Ez (V/m) @ t=0.28
0.5400978247551582
% es.tEx (V/m) @ t=0.28
1.336006264615584
% es.tEy (V/m) @ t=0.28
0
% es.tEz (V/m) @ t=0.28
0.5400978247551556
% V (V) @ t=0.28
0.007211342699864467
% es.normE (V/m) @ t=0.3
1.4599898074862874
% es.EX (V/m) @ t=0.3
1.349221661914429
% es.EY (V/m) @ t=0.3
0.08495485939686137
% es.EZ (V/m) @ t=0.3
0.5454400441173712
% es.tEX (V/m) @ t=0.3
1.3492216619144282
% es.tEY (V/m) @ t=0.3
0
% es.tEZ (V/m) @ t=0.3
0.5454400441173703
% es.Ex (V/m) @ t=0.3
1.349221661914429
% es.Ey (V/m) @ t=0.3
0.08495485939686137
% es.Ez (V/m) @ t=0.3
0.5454400441173712
% es.tEx (V/m) @ t=0.3
1.3492216619144282
% es.tEy (V/m) @ t=0.3
0
% es.tEz (V/m) @ t=0.3
0.5454400441173703
% V (V) @ t=0.3
0.0072826901862470496
% es.normE (V/m) @ t=0.32
1.47429004860299
% es.EX (V/m) @ t=0.32
1.3624370592132875
% es.EY (V/m) @ t=0.32
0.08578671578104613
% es.EZ (V/m) @ t=0.32
0.5507822634796042
% es.tEX (V/m) @ t=0.32
1.3624370592132893
% es.tEY (V/m) @ t=0.32
0
% es.tEZ (V/m) @ t=0.32
0.5507822634796042
% es.Ex (V/m) @ t=0.32
1.3624370592132875
% es.Ey (V/m) @ t=0.32
0.08578671578104613
% es.Ez (V/m) @ t=0.32
0.5507822634796042
% es.tEx (V/m) @ t=0.32
1.3624370592132893
% es.tEy (V/m) @ t=0.32
0
% es.tEz (V/m) @ t=0.32
0.5507822634796042
% V (V) @ t=0.32
0.007354037672629634
% es.normE (V/m) @ t=0.34
1.4885902897197705
% es.EX (V/m) @ t=0.34
1.37565245651213
% es.EY (V/m) @ t=0.34
0.08661857216522217
% es.EZ (V/m) @ t=0.34
0.556124482841831
% es.tEX (V/m) @ t=0.34
1.3756524565121317
% es.tEY (V/m) @ t=0.34
0
% es.tEZ (V/m) @ t=0.34
0.5561244828418284
% es.Ex (V/m) @ t=0.34
1.37565245651213
% es.Ey (V/m) @ t=0.34
0.08661857216522217
% es.Ez (V/m) @ t=0.34
0.556124482841831
% es.tEx (V/m) @ t=0.34
1.3756524565121317
% es.tEy (V/m) @ t=0.34
0
% es.tEz (V/m) @ t=0.34
0.5561244828418284
% V (V) @ t=0.34
0.007425385159012219
% es.normE (V/m) @ t=0.36
1.5028905308366416
% es.EX (V/m) @ t=0.36
1.3888678538109724
% es.EY (V/m) @ t=0.36
0.08745042854939189
% es.EZ (V/m) @ t=0.36
0.5614667022040551
% es.tEX (V/m) @ t=0.36
1.3888678538109716
% es.tEY (V/m) @ t=0.36
0
% es.tEZ (V/m) @ t=0.36
0.5614667022040516
% es.Ex (V/m) @ t=0.36
1.3888678538109724
% es.Ey (V/m) @ t=0.36
0.08745042854939189
% es.Ez (V/m) @ t=0.36
0.5614667022040551
% es.tEx (V/m) @ t=0.36
1.3888678538109716
% es.tEy (V/m) @ t=0.36
0
% es.tEz (V/m) @ t=0.36
0.5614667022040516
% V (V) @ t=0.36
0.007496732645394802
% es.normE (V/m) @ t=0.38
1.5171907719536066
% es.EX (V/m) @ t=0.38
1.4020832511098167
% es.EY (V/m) @ t=0.38
0.08828228493357321
% es.EZ (V/m) @ t=0.38
0.566808921566285
% es.tEX (V/m) @ t=0.38
1.4020832511098087
% es.tEY (V/m) @ t=0.38
0
% es.tEZ (V/m) @ t=0.38
0.5668089215662859
% es.Ex (V/m) @ t=0.38
1.4020832511098167
% es.Ey (V/m) @ t=0.38
0.08828228493357321
% es.Ez (V/m) @ t=0.38
0.566808921566285
% es.tEx (V/m) @ t=0.38
1.4020832511098087
% es.tEy (V/m) @ t=0.38
0
% es.tEz (V/m) @ t=0.38
0.5668089215662859
% V (V) @ t=0.38
0.007568080131777385
% es.normE (V/m) @ t=0.4
1.5314910130706614
% es.EX (V/m) @ t=0.4
1.4152986484086671
% es.EY (V/m) @ t=0.4
0.08911414131775014
% es.EZ (V/m) @ t=0.4
0.5721511409285065
% es.tEX (V/m) @ t=0.4
1.4152986484086654
% es.tEY (V/m) @ t=0.4
0
% es.tEZ (V/m) @ t=0.4
0.5721511409285074
% es.Ex (V/m) @ t=0.4
1.4152986484086671
% es.Ey (V/m) @ t=0.4
0.08911414131775014
% es.Ez (V/m) @ t=0.4
0.5721511409285065
% es.tEx (V/m) @ t=0.4
1.4152986484086654
% es.tEy (V/m) @ t=0.4
0
% es.tEz (V/m) @ t=0.4
0.5721511409285074
% V (V) @ t=0.4
0.007639427618159971
% es.normE (V/m) @ t=0.42
1.5457912541878023
% es.EX (V/m) @ t=0.42
1.4285140457075185
% es.EY (V/m) @ t=0.42
0.08994599770193679
% es.EZ (V/m) @ t=0.42
0.5774933602907293
% es.tEX (V/m) @ t=0.42
1.4285140457075167
% es.tEY (V/m) @ t=0.42
0
% es.tEZ (V/m) @ t=0.42
0.5774933602907311
% es.Ex (V/m) @ t=0.42
1.4285140457075185
% es.Ey (V/m) @ t=0.42
0.08994599770193679
% es.Ez (V/m) @ t=0.42
0.5774933602907293
% es.tEx (V/m) @ t=0.42
1.4285140457075167
% es.tEy (V/m) @ t=0.42
0
% es.tEz (V/m) @ t=0.42
0.5774933602907311
% V (V) @ t=0.42
0.007710775104542554
% es.normE (V/m) @ t=0.44
1.5600914953050276
% es.EX (V/m) @ t=0.44
1.441729443006369
% es.EY (V/m) @ t=0.44
0.09077785408611272
% es.EZ (V/m) @ t=0.44
0.5828355796529574
% es.tEX (V/m) @ t=0.44
1.4417294430063716
% es.tEY (V/m) @ t=0.44
0
% es.tEZ (V/m) @ t=0.44
0.5828355796529583
% es.Ex (V/m) @ t=0.44
1.441729443006369
% es.Ey (V/m) @ t=0.44
0.09077785408611272
% es.Ez (V/m) @ t=0.44
0.5828355796529574
% es.tEx (V/m) @ t=0.44
1.4417294430063716
% es.tEy (V/m) @ t=0.44
0
% es.tEz (V/m) @ t=0.44
0.5828355796529583
% V (V) @ t=0.44
0.0077821225909251385
% es.normE (V/m) @ t=0.46
1.5743917364223263
% es.EX (V/m) @ t=0.46
1.4549448403052172
% es.EY (V/m) @ t=0.46
0.09160971047028421
% es.EZ (V/m) @ t=0.46
0.5881777990151753
% es.tEX (V/m) @ t=0.46
1.4549448403052176
% es.tEY (V/m) @ t=0.46
0
% es.tEZ (V/m) @ t=0.46
0.5881777990151762
% es.Ex (V/m) @ t=0.46
1.4549448403052172
% es.Ey (V/m) @ t=0.46
0.09160971047028421
% es.Ez (V/m) @ t=0.46
0.5881777990151753
% es.tEx (V/m) @ t=0.46
1.4549448403052176
% es.tEy (V/m) @ t=0.46
0
% es.tEz (V/m) @ t=0.46
0.5881777990151762
% V (V) @ t=0.46
0.007853470077307722
% es.normE (V/m) @ t=0.48
1.5886919775396955
% es.EX (V/m) @ t=0.48
1.4681602376040521
% es.EY (V/m) @ t=0.48
0.09244156685447008
% es.EZ (V/m) @ t=0.48
0.5935200183774039
% es.tEX (V/m) @ t=0.48
1.4681602376040557
% es.tEY (V/m) @ t=0.48
0
% es.tEZ (V/m) @ t=0.48
0.5935200183774039
% es.Ex (V/m) @ t=0.48
1.4681602376040521
% es.Ey (V/m) @ t=0.48
0.09244156685447008
% es.Ez (V/m) @ t=0.48
0.5935200183774039
% es.tEx (V/m) @ t=0.48
1.4681602376040557
% es.tEy (V/m) @ t=0.48
0
% es.tEz (V/m) @ t=0.48
0.5935200183774039
% V (V) @ t=0.48
0.007924817563690305
% es.normE (V/m) @ t=0.5
1.6029922186571524
% es.EX (V/m) @ t=0.5
1.4813756349029017
% es.EY (V/m) @ t=0.5
0.09327342323864857
% es.EZ (V/m) @ t=0.5
0.5988622377396298
% es.tEX (V/m) @ t=0.5
1.4813756349029052
% es.tEY (V/m) @ t=0.5
0
% es.tEZ (V/m) @ t=0.5
0.5988622377396307
% es.Ex (V/m) @ t=0.5
1.4813756349029017
% es.Ey (V/m) @ t=0.5
0.09327342323864857
% es.Ez (V/m) @ t=0.5
0.5988622377396298
% es.tEx (V/m) @ t=0.5
1.4813756349029052
% es.tEy (V/m) @ t=0.5
0
% es.tEz (V/m) @ t=0.5
0.5988622377396307
% V (V) @ t=0.5
0.00799616505007289
% es.normE (V/m) @ t=0.52
1.6172924597746885
% es.EX (V/m) @ t=0.52
1.494591032201754
% es.EY (V/m) @ t=0.52
0.09410527962282994
% es.EZ (V/m) @ t=0.52
0.6042044571018637
% es.tEX (V/m) @ t=0.52
1.4945910322017513
% es.tEY (V/m) @ t=0.52
0
% es.tEZ (V/m) @ t=0.52
0.6042044571018628
% es.Ex (V/m) @ t=0.52
1.494591032201754
% es.Ey (V/m) @ t=0.52
0.09410527962282994
% es.Ez (V/m) @ t=0.52
0.6042044571018637
% es.tEx (V/m) @ t=0.52
1.4945910322017513
% es.tEy (V/m) @ t=0.52
0
% es.tEz (V/m) @ t=0.52
0.6042044571018628
% V (V) @ t=0.52
0.008067512536455476
% es.normE (V/m) @ t=0.54
1.631603270041849
% es.EX (V/m) @ t=0.54
1.507816197682697
% es.EY (V/m) @ t=0.54
0.09493774881509415
% es.EZ (V/m) @ t=0.54
0.6095506229713223
% es.tEX (V/m) @ t=0.54
1.5078161976827005
% es.tEY (V/m) @ t=0.54
0
% es.tEZ (V/m) @ t=0.54
0.6095506229713226
% es.Ex (V/m) @ t=0.54
1.507816197682697
% es.Ey (V/m) @ t=0.54
0.09493774881509415
% es.Ez (V/m) @ t=0.54
0.6095506229713223
% es.tEx (V/m) @ t=0.54
1.5078161976827005
% es.tEy (V/m) @ t=0.54
0
% es.tEz (V/m) @ t=0.54
0.6095506229713226
% V (V) @ t=0.54
0.00813891287638792
% es.normE (V/m) @ t=0.56
1.6475475322669433
% es.EX (V/m) @ t=0.56
1.5225510263651998
% es.EY (V/m) @ t=0.56
0.09586492691229631
% es.EZ (V/m) @ t=0.56
0.6155067177608378
% es.tEX (V/m) @ t=0.56
1.5225510263652016
% es.tEY (V/m) @ t=0.56
0
% es.tEZ (V/m) @ t=0.56
0.6155067177608369
% es.Ex (V/m) @ t=0.56
1.5225510263651998
% es.Ey (V/m) @ t=0.56
0.09586492691229631
% es.Ez (V/m) @ t=0.56
0.6155067177608378
% es.tEx (V/m) @ t=0.56
1.5225510263652016
% es.tEy (V/m) @ t=0.56
0
% es.tEz (V/m) @ t=0.56
0.6155067177608369
% V (V) @ t=0.56
0.008218481681901937
% es.normE (V/m) @ t=0.58
1.6634917944924594
% es.EX (V/m) @ t=0.58
1.5372858550476964
% es.EY (V/m) @ t=0.58
0.0967921050094862
% es.EZ (V/m) @ t=0.58
0.6214628125503672
% es.tEX (V/m) @ t=0.58
1.5372858550476955
% es.tEY (V/m) @ t=0.58
0
% es.tEZ (V/m) @ t=0.58
0.6214628125503645
% es.Ex (V/m) @ t=0.58
1.5372858550476964
% es.Ey (V/m) @ t=0.58
0.0967921050094862
% es.Ez (V/m) @ t=0.58
0.6214628125503672
% es.tEx (V/m) @ t=0.58
1.5372858550476955
% es.tEy (V/m) @ t=0.58
0
% es.tEz (V/m) @ t=0.58
0.6214628125503645
% V (V) @ t=0.58
0.008298050487415958
% es.normE (V/m) @ t=0.6
1.6794360567183841
% es.EX (V/m) @ t=0.6
1.552020683730194
% es.EY (V/m) @ t=0.6
0.0977192831066761
% es.EZ (V/m) @ t=0.6
0.6274189073398864
% es.tEX (V/m) @ t=0.6
1.552020683730193
% es.tEY (V/m) @ t=0.6
0
% es.tEZ (V/m) @ t=0.6
0.627418907339889
% es.Ex (V/m) @ t=0.6
1.552020683730194
% es.Ey (V/m) @ t=0.6
0.0977192831066761
% es.Ez (V/m) @ t=0.6
0.6274189073398864
% es.tEx (V/m) @ t=0.6
1.552020683730193
% es.tEy (V/m) @ t=0.6
0
% es.tEz (V/m) @ t=0.6
0.627418907339889
% V (V) @ t=0.6
0.008377619292929978
% es.normE (V/m) @ t=0.62
1.6953803189447132
% es.EX (V/m) @ t=0.62
1.5667555124126924
% es.EY (V/m) @ t=0.62
0.098646461203865
% es.EZ (V/m) @ t=0.62
0.6333750021294118
% es.tEX (V/m) @ t=0.62
1.5667555124126942
% es.tEY (V/m) @ t=0.62
0
% es.tEZ (V/m) @ t=0.62
0.6333750021294091
% es.Ex (V/m) @ t=0.62
1.5667555124126924
% es.Ey (V/m) @ t=0.62
0.098646461203865
% es.Ez (V/m) @ t=0.62
0.6333750021294118
% es.tEx (V/m) @ t=0.62
1.5667555124126942
% es.tEy (V/m) @ t=0.62
0
% es.tEz (V/m) @ t=0.62
0.6333750021294091
% V (V) @ t=0.62
0.008457188098443999
% es.normE (V/m) @ t=0.64
1.7113245811714286
% es.EX (V/m) @ t=0.64
1.5814903410951882
% es.EY (V/m) @ t=0.64
0.09957363930105756
% es.EZ (V/m) @ t=0.64
0.6393310969189385
% es.tEX (V/m) @ t=0.64
1.58149034109519
% es.tEY (V/m) @ t=0.64
0
% es.tEZ (V/m) @ t=0.64
0.6393310969189385
% es.Ex (V/m) @ t=0.64
1.5814903410951882
% es.Ey (V/m) @ t=0.64
0.09957363930105756
% es.Ez (V/m) @ t=0.64
0.6393310969189385
% es.tEx (V/m) @ t=0.64
1.58149034109519
% es.tEy (V/m) @ t=0.64
0
% es.tEz (V/m) @ t=0.64
0.6393310969189385
% V (V) @ t=0.64
0.008536756903958019
% es.normE (V/m) @ t=0.66
1.7272688433985306
% es.EX (V/m) @ t=0.66
1.5962251697776915
% es.EY (V/m) @ t=0.66
0.10050081739825023
% es.EZ (V/m) @ t=0.66
0.6452871917084719
% es.tEX (V/m) @ t=0.66
1.596225169777691
% es.tEY (V/m) @ t=0.66
0
% es.tEZ (V/m) @ t=0.66
0.6452871917084702
% es.Ex (V/m) @ t=0.66
1.5962251697776915
% es.Ey (V/m) @ t=0.66
0.10050081739825023
% es.Ez (V/m) @ t=0.66
0.6452871917084719
% es.tEx (V/m) @ t=0.66
1.596225169777691
% es.tEy (V/m) @ t=0.66
0
% es.tEz (V/m) @ t=0.66
0.6452871917084702
% V (V) @ t=0.66
0.00861632570947204
% es.normE (V/m) @ t=0.68
1.7432131056259887
% es.EX (V/m) @ t=0.68
1.610959998460185
% es.EY (V/m) @ t=0.68
0.10142799549544435
% es.EZ (V/m) @ t=0.68
0.651243286497998
% es.tEX (V/m) @ t=0.68
1.6109599984601886
% es.tEY (V/m) @ t=0.68
0
% es.tEZ (V/m) @ t=0.68
0.6512432864979956
% es.Ex (V/m) @ t=0.68
1.610959998460185
% es.Ey (V/m) @ t=0.68
0.10142799549544435
% es.Ez (V/m) @ t=0.68
0.651243286497998
% es.tEx (V/m) @ t=0.68
1.6109599984601886
% es.tEy (V/m) @ t=0.68
0
% es.tEz (V/m) @ t=0.68
0.6512432864979956
% V (V) @ t=0.68
0.008695894514986058
% es.normE (V/m) @ t=0.7
1.7591573678538037
% es.EX (V/m) @ t=0.7
1.6256948271426794
% es.EY (V/m) @ t=0.7
0.10235517359264323
% es.EZ (V/m) @ t=0.7
0.6571993812875165
% es.tEX (V/m) @ t=0.7
1.625694827142679
% es.tEY (V/m) @ t=0.7
0
% es.tEZ (V/m) @ t=0.7
0.6571993812875183
% es.Ex (V/m) @ t=0.7
1.6256948271426794
% es.Ey (V/m) @ t=0.7
0.10235517359264323
% es.Ez (V/m) @ t=0.7
0.6571993812875165
% es.tEx (V/m) @ t=0.7
1.625694827142679
% es.tEy (V/m) @ t=0.7
0
% es.tEz (V/m) @ t=0.7
0.6571993812875183
% V (V) @ t=0.7
0.008775463320500079
% es.normE (V/m) @ t=0.72
1.7751016300819646
% es.EX (V/m) @ t=0.72
1.6404296558251716
% es.EY (V/m) @ t=0.72
0.10328235168982602
% es.EZ (V/m) @ t=0.72
0.6631554760770377
% es.tEX (V/m) @ t=0.72
1.6404296558251756
% es.tEY (V/m) @ t=0.72
0
% es.tEZ (V/m) @ t=0.72
0.6631554760770371
% es.Ex (V/m) @ t=0.72
1.6404296558251716
% es.Ey (V/m) @ t=0.72
0.10328235168982602
% es.Ez (V/m) @ t=0.72
0.6631554760770377
% es.tEx (V/m) @ t=0.72
1.6404296558251756
% es.tEy (V/m) @ t=0.72
0
% es.tEz (V/m) @ t=0.72
0.6631554760770371
% V (V) @ t=0.72
0.008855032126014099
% es.normE (V/m) @ t=0.74
1.791045892310474
% es.EX (V/m) @ t=0.74
1.6551644845076692
% es.EY (V/m) @ t=0.74
0.10420952978702647
% es.EZ (V/m) @ t=0.74
0.6691115708665734
% es.tEX (V/m) @ t=0.74
1.655164484507675
% es.tEY (V/m) @ t=0.74
0
% es.tEZ (V/m) @ t=0.74
0.6691115708665771
% es.Ex (V/m) @ t=0.74
1.6551644845076692
% es.Ey (V/m) @ t=0.74
0.10420952978702647
% es.Ez (V/m) @ t=0.74
0.6691115708665734
% es.tEx (V/m) @ t=0.74
1.655164484507675
% es.tEy (V/m) @ t=0.74
0
% es.tEz (V/m) @ t=0.74
0.6691115708665771
% V (V) @ t=0.74
0.00893460093152812
% es.normE (V/m) @ t=0.76
1.806990154539318
% es.EX (V/m) @ t=0.76
1.669899313190181
% es.EY (V/m) @ t=0.76
0.1051367078842137
% es.EZ (V/m) @ t=0.76
0.675067665656085
% es.tEX (V/m) @ t=0.76
1.6698993131901778
% es.tEY (V/m) @ t=0.76
0
% es.tEZ (V/m) @ t=0.76
0.6750676656560901
% es.Ex (V/m) @ t=0.76
1.669899313190181
% es.Ey (V/m) @ t=0.76
0.1051367078842137
% es.Ez (V/m) @ t=0.76
0.675067665656085
% es.tEx (V/m) @ t=0.76
1.6698993131901778
% es.tEy (V/m) @ t=0.76
0
% es.tEz (V/m) @ t=0.76
0.6750676656560901
% V (V) @ t=0.76
0.00901416973704214
% es.normE (V/m) @ t=0.78
1.8229344167684722
% es.EX (V/m) @ t=0.78
1.6846341418726731
% es.EY (V/m) @ t=0.78
0.1060638859814036
% es.EZ (V/m) @ t=0.78
0.6810237604456162
% es.tEX (V/m) @ t=0.78
1.6846341418726736
% es.tEY (V/m) @ t=0.78
0
% es.tEZ (V/m) @ t=0.78
0.6810237604456177
% es.Ex (V/m) @ t=0.78
1.6846341418726731
% es.Ey (V/m) @ t=0.78
0.1060638859814036
% es.Ez (V/m) @ t=0.78
0.6810237604456162
% es.tEx (V/m) @ t=0.78
1.6846341418726736
% es.tEy (V/m) @ t=0.78
0
% es.tEz (V/m) @ t=0.78
0.6810237604456177
% V (V) @ t=0.78
0.00909373854255616
% es.normE (V/m) @ t=0.8
1.838878678997952
% es.EX (V/m) @ t=0.8
1.699368970555183
% es.EY (V/m) @ t=0.8
0.10699106407859871
% es.EZ (V/m) @ t=0.8
0.6869798552351365
% es.tEX (V/m) @ t=0.8
1.6993689705551835
% es.tEY (V/m) @ t=0.8
0
% es.tEZ (V/m) @ t=0.8
0.6869798552351383
% es.Ex (V/m) @ t=0.8
1.699368970555183
% es.Ey (V/m) @ t=0.8
0.10699106407859871
% es.Ez (V/m) @ t=0.8
0.6869798552351365
% es.tEx (V/m) @ t=0.8
1.6993689705551835
% es.tEy (V/m) @ t=0.8
0
% es.tEz (V/m) @ t=0.8
0.6869798552351383
% V (V) @ t=0.8
0.009173307348070179
% es.normE (V/m) @ t=0.82
1.8557792458713498
% es.EX (V/m) @ t=0.82
1.7149872055398019
% es.EY (V/m) @ t=0.82
0.10797473456687368
% es.EZ (V/m) @ t=0.82
0.6932939931952511
% es.tEX (V/m) @ t=0.82
1.7149872055398028
% es.tEY (V/m) @ t=0.82
0
% es.tEZ (V/m) @ t=0.82
0.6932939931952458
% es.Ex (V/m) @ t=0.82
1.7149872055398019
% es.Ey (V/m) @ t=0.82
0.10797473456687368
% es.Ez (V/m) @ t=0.82
0.6932939931952511
% es.tEx (V/m) @ t=0.82
1.7149872055398028
% es.tEy (V/m) @ t=0.82
0
% es.tEz (V/m) @ t=0.82
0.6932939931952458
% V (V) @ t=0.82
0.009257595440483388
% es.normE (V/m) @ t=0.84
1.8735819110395568
% es.EX (V/m) @ t=0.84
1.731438772583382
% es.EY (V/m) @ t=0.84
0.10901169528014376
% es.EZ (V/m) @ t=0.84
0.6999458793147508
% es.tEX (V/m) @ t=0.84
1.7314387725833829
% es.tEY (V/m) @ t=0.84
0
% es.tEZ (V/m) @ t=0.84
0.6999458793147588
% es.Ex (V/m) @ t=0.84
1.731438772583382
% es.Ey (V/m) @ t=0.84
0.10901169528014376
% es.Ez (V/m) @ t=0.84
0.6999458793147508
% es.tEx (V/m) @ t=0.84
1.7314387725833829
% es.tEy (V/m) @ t=0.84
0
% es.tEz (V/m) @ t=0.84
0.6999458793147588
% V (V) @ t=0.84
0.009346335315795326
% es.normE (V/m) @ t=0.86
1.891384576209271
% es.EX (V/m) @ t=0.86
1.7478903396269496
% es.EY (V/m) @ t=0.86
0.11004865599340374
% es.EZ (V/m) @ t=0.86
0.7065977654342381
% es.tEX (V/m) @ t=0.86
1.7478903396269523
% es.tEY (V/m) @ t=0.86
0
% es.tEZ (V/m) @ t=0.86
0.706597765434239
% es.Ex (V/m) @ t=0.86
1.7478903396269496
% es.Ey (V/m) @ t=0.86
0.11004865599340374
% es.Ez (V/m) @ t=0.86
0.7065977654342381
% es.tEx (V/m) @ t=0.86
1.7478903396269523
% es.tEy (V/m) @ t=0.86
0
% es.tEz (V/m) @ t=0.86
0.706597765434239
% V (V) @ t=0.86
0.00943507519110726
% es.normE (V/m) @ t=0.88
1.90918724138049
% es.EX (V/m) @ t=0.88
1.7643419066705404
% es.EY (V/m) @ t=0.88
0.11108561670665174
% es.EZ (V/m) @ t=0.88
0.7132496515537359
% es.tEX (V/m) @ t=0.88
1.7643419066705448
% es.tEY (V/m) @ t=0.88
0
% es.tEZ (V/m) @ t=0.88
0.7132496515537339
% es.Ex (V/m) @ t=0.88
1.7643419066705404
% es.Ey (V/m) @ t=0.88
0.11108561670665174
% es.Ez (V/m) @ t=0.88
0.7132496515537359
% es.tEx (V/m) @ t=0.88
1.7643419066705448
% es.tEy (V/m) @ t=0.88
0
% es.tEz (V/m) @ t=0.88
0.7132496515537339
% V (V) @ t=0.88
0.009523815066419195
% es.normE (V/m) @ t=0.9
1.9269899065531395
% es.EX (V/m) @ t=0.9
1.7807934737141213
% es.EY (V/m) @ t=0.9
0.11212257741990705
% es.EZ (V/m) @ t=0.9
0.7199015376732365
% es.tEX (V/m) @ t=0.9
1.7807934737141249
% es.tEY (V/m) @ t=0.9
0
% es.tEZ (V/m) @ t=0.9
0.7199015376732376
% es.Ex (V/m) @ t=0.9
1.7807934737141213
% es.Ey (V/m) @ t=0.9
0.11212257741990705
% es.Ez (V/m) @ t=0.9
0.7199015376732365
% es.tEx (V/m) @ t=0.9
1.7807934737141249
% es.tEy (V/m) @ t=0.9
0
% es.tEz (V/m) @ t=0.9
0.7199015376732376
% V (V) @ t=0.9
0.009612554941731133
% es.normE (V/m) @ t=0.92
1.9447925717271772
% es.EX (V/m) @ t=0.92
1.7972450407576934
% es.EY (V/m) @ t=0.92
0.11315953813315627
% es.EZ (V/m) @ t=0.92
0.7265534237927278
% es.tEX (V/m) @ t=0.92
1.7972450407576925
% es.tEY (V/m) @ t=0.92
0
% es.tEZ (V/m) @ t=0.92
0.7265534237927329
% es.Ex (V/m) @ t=0.92
1.7972450407576934
% es.Ey (V/m) @ t=0.92
0.11315953813315627
% es.Ez (V/m) @ t=0.92
0.7265534237927278
% es.tEx (V/m) @ t=0.92
1.7972450407576925
% es.tEy (V/m) @ t=0.92
0
% es.tEz (V/m) @ t=0.92
0.7265534237927329
% V (V) @ t=0.92
0.009701294817043068
% es.normE (V/m) @ t=0.94
1.962595236902593
% es.EX (V/m) @ t=0.94
1.8136966078012762
% es.EY (V/m) @ t=0.94
0.11419649884641325
% es.EZ (V/m) @ t=0.94
0.7332053099122351
% es.tEX (V/m) @ t=0.94
1.8136966078012797
% es.tEY (V/m) @ t=0.94
0
% es.tEZ (V/m) @ t=0.94
0.7332053099122322
% es.Ex (V/m) @ t=0.94
1.8136966078012762
% es.Ey (V/m) @ t=0.94
0.11419649884641325
% es.Ez (V/m) @ t=0.94
0.7332053099122351
% es.tEx (V/m) @ t=0.94
1.8136966078012797
% es.tEy (V/m) @ t=0.94
0
% es.tEz (V/m) @ t=0.94
0.7332053099122322
% V (V) @ t=0.94
0.009790034692355003
% es.normE (V/m) @ t=0.96
1.980397902079328
% es.EX (V/m) @ t=0.96
1.8301481748448563
% es.EY (V/m) @ t=0.96
0.11523345955968278
% es.EZ (V/m) @ t=0.96
0.7398571960317346
% es.tEX (V/m) @ t=0.96
1.8301481748448634
% es.tEY (V/m) @ t=0.96
0
% es.tEZ (V/m) @ t=0.96
0.7398571960317382
% es.Ex (V/m) @ t=0.96
1.8301481748448563
% es.Ey (V/m) @ t=0.96
0.11523345955968278
% es.Ez (V/m) @ t=0.96
0.7398571960317346
% es.tEx (V/m) @ t=0.96
1.8301481748448634
% es.tEy (V/m) @ t=0.96
0
% es.tEz (V/m) @ t=0.96
0.7398571960317382
% V (V) @ t=0.96
0.009878774567666941
% es.normE (V/m) @ t=0.98
1.9982005672573537
% es.EX (V/m) @ t=0.98
1.8465997418884426
% es.EY (V/m) @ t=0.98
0.11627042027292989
% es.EZ (V/m) @ t=0.98
0.7465090821512239
% es.tEX (V/m) @ t=0.98
1.8465997418884452
% es.tEY (V/m) @ t=0.98
0
% es.tEZ (V/m) @ t=0.98
0.7465090821512232
% es.Ex (V/m) @ t=0.98
1.8465997418884426
% es.Ey (V/m) @ t=0.98
0.11627042027292989
% es.Ez (V/m) @ t=0.98
0.7465090821512239
% es.tEx (V/m) @ t=0.98
1.8465997418884452
% es.tEy (V/m) @ t=0.98
0
% es.tEz (V/m) @ t=0.98
0.7465090821512232
% V (V) @ t=0.98
0.009967514442978874
% es.normE (V/m) @ t=1
2.016003232436632
% es.EX (V/m) @ t=1
1.8630513089320235
% es.EY (V/m) @ t=1
0.1173073809861852
% es.EZ (V/m) @ t=1
0.7531609682707192
% es.tEX (V/m) @ t=1
1.863051308932027
% es.tEY (V/m) @ t=1
0
% es.tEZ (V/m) @ t=1
0.7531609682707159
% es.Ex (V/m) @ t=1
1.8630513089320235
% es.Ey (V/m) @ t=1
0.1173073809861852
% es.Ez (V/m) @ t=1
0.7531609682707192
% es.tEx (V/m) @ t=1
1.863051308932027
% es.tEy (V/m) @ t=1
0
% es.tEz (V/m) @ t=1
0.7531609682707159
% V (V) @ t=1
0.010056254318290811
% es.normE (V/m) @ t=1.02
2.0338058976171327
% es.EX (V/m) @ t=1.02
1.8795028759756027
% es.EY (V/m) @ t=1.02
0.11834434169943797
% es.EZ (V/m) @ t=1.02
0.7598128543902176
% es.tEX (V/m) @ t=1.02
1.8795028759755983
% es.tEY (V/m) @ t=1.02
0
% es.tEZ (V/m) @ t=1.02
0.7598128543902152
% es.Ex (V/m) @ t=1.02
1.8795028759756027
% es.Ey (V/m) @ t=1.02
0.11834434169943797
% es.Ez (V/m) @ t=1.02
0.7598128543902176
% es.tEx (V/m) @ t=1.02
1.8795028759755983
% es.tEy (V/m) @ t=1.02
0
% es.tEz (V/m) @ t=1.02
0.7598128543902152
% V (V) @ t=1.02
0.01014499419360275
% es.normE (V/m) @ t=1.04
2.0516085627988296
% es.EX (V/m) @ t=1.04
1.89595444301919
% es.EY (V/m) @ t=1.04
0.11938130241269751
% es.EZ (V/m) @ t=1.04
0.7664647405097111
% es.tEX (V/m) @ t=1.04
1.8959544430191766
% es.tEY (V/m) @ t=1.04
0
% es.tEZ (V/m) @ t=1.04
0.7664647405097118
% es.Ex (V/m) @ t=1.04
1.89595444301919
% es.Ey (V/m) @ t=1.04
0.11938130241269751
% es.Ez (V/m) @ t=1.04