% Model:              1 neuron.mph
% Version:            COMSOL 6.0.0.405
% Date:               Mar 16 2023, 09:59
% Dimension:          0
% Nodes:              14017
% Expressions:        14017
% Description:        Electric field norm, Electric field, X component, Electric field, Y component, Electric field, Z component, Tangential electric field, X component, Tangential electric field, Y component, Tangential electric field, Z component, Electric field, x component, Electric field, y component, Electric field, z component, Tangential electric field, x component, Tangential electric field, y component, Tangential electric field, z component, Electric potential
% Length unit:        mm
% x
2
% y
12.2
% z
1.6599999999999997
% es.normE (V/m) @ t=0
1.2655562136190113
% es.EX (V/m) @ t=0
-1.222861584477756
% es.EY (V/m) @ t=0
0.09420504241418254
% es.EZ (V/m) @ t=0
-0.31167600936397744
% es.tEX (V/m) @ t=0
-1.2228615844777568
% es.tEY (V/m) @ t=0
0
% es.tEZ (V/m) @ t=0
-0.3116760093639819
% es.Ex (V/m) @ t=0
-1.222861584477756
% es.Ey (V/m) @ t=0
0.09420504241418254
% es.Ez (V/m) @ t=0
-0.31167600936397744
% es.tEx (V/m) @ t=0
-1.2228615844777568
% es.tEy (V/m) @ t=0
0
% es.tEz (V/m) @ t=0
-0.3116760093639819
% V (V) @ t=0
0.007334159907283469
% es.normE (V/m) @ t=0.02
1.0930855704965299
% es.EX (V/m) @ t=0.02
-1.0562093870292775
% es.EY (V/m) @ t=0.02
0.08136673154052132
% es.EZ (V/m) @ t=0.02
-0.2692006447945434
% es.tEX (V/m) @ t=0.02
-1.056209387029277
% es.tEY (V/m) @ t=0.02
0
% es.tEZ (V/m) @ t=0.02
-0.26920064479454986
% es.Ex (V/m) @ t=0.02
-1.0562093870292775
% es.Ey (V/m) @ t=0.02
0.08136673154052132
% es.Ez (V/m) @ t=0.02
-0.2692006447945434
% es.tEx (V/m) @ t=0.02
-1.056209387029277
% es.tEy (V/m) @ t=0.02
0
% es.tEz (V/m) @ t=0.02
-0.26920064479454986
% V (V) @ t=0.02
0.006334656869234515
% es.normE (V/m) @ t=0.04
1.1031402998932403
% es.EX (V/m) @ t=0.04
-1.065924911356002
% es.EY (V/m) @ t=0.04
0.08211518230864367
% es.EZ (V/m) @ t=0.04
-0.2716768827959597
% es.tEX (V/m) @ t=0.04
-1.0659249113559994
% es.tEY (V/m) @ t=0.04
0
% es.tEZ (V/m) @ t=0.04
-0.27167688279595303
% es.Ex (V/m) @ t=0.04
-1.065924911356002
% es.Ey (V/m) @ t=0.04
0.08211518230864367
% es.Ez (V/m) @ t=0.04
-0.2716768827959597
% es.tEx (V/m) @ t=0.04
-1.0659249113559994
% es.tEy (V/m) @ t=0.04
0
% es.tEz (V/m) @ t=0.04
-0.27167688279595303
% V (V) @ t=0.04
0.0063929260978565355
% es.normE (V/m) @ t=0.06
1.1132854612726635
% es.EX (V/m) @ t=0.06
-1.075727817168203
% es.EY (V/m) @ t=0.06
0.08287036395941794
% es.EZ (V/m) @ t=0.06
-0.27417539103714916
% es.tEX (V/m) @ t=0.06
-1.075727817168202
% es.tEY (V/m) @ t=0.06
0
% es.tEZ (V/m) @ t=0.06
-0.2741753910371525
% es.Ex (V/m) @ t=0.06
-1.075727817168203
% es.Ey (V/m) @ t=0.06
0.08287036395941794
% es.Ez (V/m) @ t=0.06
-0.27417539103714916
% es.tEx (V/m) @ t=0.06
-1.075727817168202
% es.tEy (V/m) @ t=0.06
0
% es.tEz (V/m) @ t=0.06
-0.2741753910371525
% V (V) @ t=0.06
0.0064517194175683235
% es.normE (V/m) @ t=0.08
1.1235859955815055
% es.EX (V/m) @ t=0.08
-1.085680853266934
% es.EY (V/m) @ t=0.08
0.08363711340055874
% es.EZ (V/m) @ t=0.08
-0.27671216712170543
% es.tEX (V/m) @ t=0.08
-1.085680853266938
% es.tEY (V/m) @ t=0.08
0
% es.tEZ (V/m) @ t=0.08
-0.2767121671217012
% es.Ex (V/m) @ t=0.08
-1.085680853266934
% es.Ey (V/m) @ t=0.08
0.08363711340055874
% es.Ez (V/m) @ t=0.08
-0.27671216712170543
% es.tEx (V/m) @ t=0.08
-1.085680853266938
% es.tEy (V/m) @ t=0.08
0
% es.tEz (V/m) @ t=0.08
-0.2767121671217012
% V (V) @ t=0.08
0.006511413092251044
% es.normE (V/m) @ t=0.1
1.1339934575761208
% es.EX (V/m) @ t=0.1
-1.0957372090633895
% es.EY (V/m) @ t=0.1
0.0844118237977246
% es.EZ (V/m) @ t=0.1
-0.2792752791448847
% es.tEX (V/m) @ t=0.1
-1.0957372090633886
% es.tEY (V/m) @ t=0.1
0
% es.tEZ (V/m) @ t=0.1
-0.27927527914488337
% es.Ex (V/m) @ t=0.1
-1.0957372090633895
% es.Ey (V/m) @ t=0.1
0.0844118237977246
% es.Ez (V/m) @ t=0.1
-0.2792752791448847
% es.tEx (V/m) @ t=0.1
-1.0957372090633886
% es.tEy (V/m) @ t=0.1
0
% es.tEz (V/m) @ t=0.1
-0.27927527914488337
% V (V) @ t=0.1
0.006571726391432029
% es.normE (V/m) @ t=0.12
1.1444009195707312
% es.EX (V/m) @ t=0.12
-1.1057935648598454
% es.EY (V/m) @ t=0.12
0.08518653419486999
% es.EZ (V/m) @ t=0.12
-0.2818383911680513
% es.tEX (V/m) @ t=0.12
-1.1057935648598534
% es.tEY (V/m) @ t=0.12
0
% es.tEZ (V/m) @ t=0.12
-0.2818383911680442
% es.Ex (V/m) @ t=0.12
-1.1057935648598454
% es.Ey (V/m) @ t=0.12
0.08518653419486999
% es.Ez (V/m) @ t=0.12
-0.2818383911680513
% es.tEx (V/m) @ t=0.12
-1.1057935648598534
% es.tEy (V/m) @ t=0.12
0
% es.tEz (V/m) @ t=0.12
-0.2818383911680442
% V (V) @ t=0.12
0.006632039690613012
% es.normE (V/m) @ t=0.14
1.1549164001114651
% es.EX (V/m) @ t=0.14
-1.1159542955599804
% es.EY (V/m) @ t=0.14
0.08596928424302319
% es.EZ (V/m) @ t=0.14
-0.28442810408638697
% es.tEX (V/m) @ t=0.14
-1.1159542955599804
% es.tEY (V/m) @ t=0.14
0
% es.tEZ (V/m) @ t=0.14
-0.2844281040863894
% es.Ex (V/m) @ t=0.14
-1.1159542955599804
% es.Ey (V/m) @ t=0.14
0.08596928424302319
% es.Ez (V/m) @ t=0.14
-0.28442810408638697
% es.tEx (V/m) @ t=0.14
-1.1159542955599804
% es.tEy (V/m) @ t=0.14
0
% es.tEz (V/m) @ t=0.14
-0.2844281040863894
% V (V) @ t=0.14
0.006692979008390164
% es.normE (V/m) @ t=0.16
1.1658788057060967
% es.EX (V/m) @ t=0.16
-1.1265468758001065
% es.EY (V/m) @ t=0.16
0.08678529822208952
% es.EZ (V/m) @ t=0.16
-0.2871278777945574
% es.tEX (V/m) @ t=0.16
-1.1265468758001091
% es.tEY (V/m) @ t=0.16
0
% es.tEZ (V/m) @ t=0.16
-0.28712787779455695
% es.Ex (V/m) @ t=0.16
-1.1265468758001065
% es.Ey (V/m) @ t=0.16
0.08678529822208952
% es.Ez (V/m) @ t=0.16
-0.2871278777945574
% es.tEx (V/m) @ t=0.16
-1.1265468758001091
% es.tEy (V/m) @ t=0.16
0
% es.tEz (V/m) @ t=0.16
-0.28712787779455695
% V (V) @ t=0.16
0.006756508468369012
% es.normE (V/m) @ t=0.18
1.1768412113007192
% es.EX (V/m) @ t=0.18
-1.1371394560402255
% es.EY (V/m) @ t=0.18
0.08760131220115674
% es.EZ (V/m) @ t=0.18
-0.2898276515027174
% es.tEX (V/m) @ t=0.18
-1.1371394560402184
% es.tEY (V/m) @ t=0.18
0
% es.tEZ (V/m) @ t=0.18
-0.2898276515027227
% es.Ex (V/m) @ t=0.18
-1.1371394560402255
% es.Ey (V/m) @ t=0.18
0.08760131220115674
% es.Ez (V/m) @ t=0.18
-0.2898276515027174
% es.tEx (V/m) @ t=0.18
-1.1371394560402184
% es.tEy (V/m) @ t=0.18
0
% es.tEz (V/m) @ t=0.18
-0.2898276515027227
% V (V) @ t=0.18
0.00682003792834786
% es.normE (V/m) @ t=0.2
1.187803616895352
% es.EX (V/m) @ t=0.2
-1.147732036280353
% es.EY (V/m) @ t=0.2
0.08841732618022485
% es.EZ (V/m) @ t=0.2
-0.29252742521088826
% es.tEX (V/m) @ t=0.2
-1.1477320362803543
% es.tEY (V/m) @ t=0.2
0
% es.tEZ (V/m) @ t=0.2
-0.2925274252108938
% es.Ex (V/m) @ t=0.2
-1.147732036280353
% es.Ey (V/m) @ t=0.2
0.08841732618022485
% es.Ez (V/m) @ t=0.2
-0.29252742521088826
% es.tEx (V/m) @ t=0.2
-1.1477320362803543
% es.tEy (V/m) @ t=0.2
0
% es.tEz (V/m) @ t=0.2
-0.2925274252108938
% V (V) @ t=0.2
0.006883567388326707
% es.normE (V/m) @ t=0.22
1.1987660224899817
% es.EX (V/m) @ t=0.22
-1.1583246165204746
% es.EY (V/m) @ t=0.22
0.08923334015928419
% es.EZ (V/m) @ t=0.22
-0.2952271989190709
% es.tEX (V/m) @ t=0.22
-1.158324616520483
% es.tEY (V/m) @ t=0.22
0
% es.tEZ (V/m) @ t=0.22
-0.295227198919072
% es.Ex (V/m) @ t=0.22
-1.1583246165204746
% es.Ey (V/m) @ t=0.22
0.08923334015928419
% es.Ez (V/m) @ t=0.22
-0.2952271989190709
% es.tEx (V/m) @ t=0.22
-1.158324616520483
% es.tEy (V/m) @ t=0.22
0
% es.tEz (V/m) @ t=0.22
-0.295227198919072
% V (V) @ t=0.22
0.006947096848305555
% es.normE (V/m) @ t=0.24
1.2097284280846041
% es.EX (V/m) @ t=0.24
-1.1689171967605918
% es.EY (V/m) @ t=0.24
0.0900493541383674
% es.EZ (V/m) @ t=0.24
-0.29792697262723267
% es.tEX (V/m) @ t=0.24
-1.1689171967605905
% es.tEY (V/m) @ t=0.24
0
% es.tEZ (V/m) @ t=0.24
-0.2979269726272289
% es.Ex (V/m) @ t=0.24
-1.1689171967605918
% es.Ey (V/m) @ t=0.24
0.0900493541383674
% es.Ez (V/m) @ t=0.24
-0.29792697262723267
% es.tEx (V/m) @ t=0.24
-1.1689171967605905
% es.tEy (V/m) @ t=0.24
0
% es.tEz (V/m) @ t=0.24
-0.2979269726272289
% V (V) @ t=0.24
0.007010626308284402
% es.normE (V/m) @ t=0.26
1.22069083367924
% es.EX (V/m) @ t=0.26
-1.1795097770007232
% es.EY (V/m) @ t=0.26
0.09086536811743734
% es.EZ (V/m) @ t=0.26
-0.30062674633539777
% es.tEX (V/m) @ t=0.26
-1.1795097770007263
% es.tEY (V/m) @ t=0.26
0
% es.tEZ (V/m) @ t=0.26
-0.3006267463353929
% es.Ex (V/m) @ t=0.26
-1.1795097770007232
% es.Ey (V/m) @ t=0.26
0.09086536811743734
% es.Ez (V/m) @ t=0.26
-0.30062674633539777
% es.tEx (V/m) @ t=0.26
-1.1795097770007263
% es.tEy (V/m) @ t=0.26
0
% es.tEz (V/m) @ t=0.26
-0.3006267463353929
% V (V) @ t=0.26
0.007074155768263249
% es.normE (V/m) @ t=0.28
1.2321515773550598
% es.EX (V/m) @ t=0.28
-1.1905838794738006
% es.EY (V/m) @ t=0.28
0.09171848573582692
% es.EZ (V/m) @ t=0.28
-0.30344926156874363
% es.tEX (V/m) @ t=0.28
-1.190583879473797
% es.tEY (V/m) @ t=0.28
0
% es.tEZ (V/m) @ t=0.28
-0.3034492615687441
% es.Ex (V/m) @ t=0.28
-1.1905838794738006
% es.Ey (V/m) @ t=0.28
0.09171848573582692
% es.Ez (V/m) @ t=0.28
-0.30344926156874363
% es.tEx (V/m) @ t=0.28
-1.190583879473797
% es.tEy (V/m) @ t=0.28
0
% es.tEz (V/m) @ t=0.28
-0.3034492615687441
% V (V) @ t=0.28
0.007140572951526498
% es.normE (V/m) @ t=0.3
1.244362169191021
% es.EX (V/m) @ t=0.3
-1.2023825273390019
% es.EY (V/m) @ t=0.3
0.09262743311464045
% es.EZ (V/m) @ t=0.3
-0.30645646569162155
% es.tEX (V/m) @ t=0.3
-1.2023825273390116
% es.tEY (V/m) @ t=0.3
0
% es.tEZ (V/m) @ t=0.3
-0.30645646569162466
% es.Ex (V/m) @ t=0.3
-1.2023825273390019
% es.Ey (V/m) @ t=0.3
0.09262743311464045
% es.Ez (V/m) @ t=0.3
-0.30645646569162155
% es.tEx (V/m) @ t=0.3
-1.2023825273390116
% es.tEy (V/m) @ t=0.3
0
% es.tEz (V/m) @ t=0.3
-0.30645646569162466
% V (V) @ t=0.3
0.007211335285348176
% es.normE (V/m) @ t=0.32
1.2565727610270017
% es.EX (V/m) @ t=0.32
-1.2141811752042235
% es.EY (V/m) @ t=0.32
0.09353638049344526
% es.EZ (V/m) @ t=0.32
-0.30946366981449636
% es.tEX (V/m) @ t=0.32
-1.2141811752042244
% es.tEY (V/m) @ t=0.32
0
% es.tEZ (V/m) @ t=0.32
-0.3094636698144946
% es.Ex (V/m) @ t=0.32
-1.2141811752042235
% es.Ey (V/m) @ t=0.32
0.09353638049344526
% es.Ez (V/m) @ t=0.32
-0.30946366981449636
% es.tEx (V/m) @ t=0.32
-1.2141811752042244
% es.tEy (V/m) @ t=0.32
0
% es.tEz (V/m) @ t=0.32
-0.3094636698144946
% V (V) @ t=0.32
0.007282097619169852
% es.normE (V/m) @ t=0.34
1.2687833528629777
% es.EX (V/m) @ t=0.34
-1.2259798230694408
% es.EY (V/m) @ t=0.34
0.0944453278722624
% es.EZ (V/m) @ t=0.34
-0.3124708739373625
% es.tEX (V/m) @ t=0.34
-1.2259798230694425
% es.tEY (V/m) @ t=0.34
0
% es.tEZ (V/m) @ t=0.34
-0.3124708739373627
% es.Ex (V/m) @ t=0.34
-1.2259798230694408
% es.Ey (V/m) @ t=0.34
0.0944453278722624
% es.Ez (V/m) @ t=0.34
-0.3124708739373625
% es.tEx (V/m) @ t=0.34
-1.2259798230694425
% es.tEy (V/m) @ t=0.34
0
% es.tEz (V/m) @ t=0.34
-0.3124708739373627
% V (V) @ t=0.34
0.007352859952991532
% es.normE (V/m) @ t=0.36
1.2809939446989245
% es.EX (V/m) @ t=0.36
-1.2377784709346278
% es.EY (V/m) @ t=0.36
0.09535427525107959
% es.EZ (V/m) @ t=0.36
-0.3154780780602231
% es.tEX (V/m) @ t=0.36
-1.2377784709346304
% es.tEY (V/m) @ t=0.36
0
% es.tEZ (V/m) @ t=0.36
-0.315478078060222
% es.Ex (V/m) @ t=0.36
-1.2377784709346278
% es.Ey (V/m) @ t=0.36
0.09535427525107959
% es.Ez (V/m) @ t=0.36
-0.3154780780602231
% es.tEx (V/m) @ t=0.36
-1.2377784709346304
% es.tEy (V/m) @ t=0.36
0
% es.tEz (V/m) @ t=0.36
-0.315478078060222
% V (V) @ t=0.36
0.007423622286813208
% es.normE (V/m) @ t=0.38
1.293204536534915
% es.EX (V/m) @ t=0.38
-1.249577118799853
% es.EY (V/m) @ t=0.38
0.09626322262989856
% es.EZ (V/m) @ t=0.38
-0.31848528218310546
% es.tEX (V/m) @ t=0.38
-1.2495771187998574
% es.tEY (V/m) @ t=0.38
0
% es.tEZ (V/m) @ t=0.38
-0.3184852821831079
% es.Ex (V/m) @ t=0.38
-1.249577118799853
% es.Ey (V/m) @ t=0.38
0.09626322262989856
% es.Ez (V/m) @ t=0.38
-0.31848528218310546
% es.tEx (V/m) @ t=0.38
-1.2495771187998574
% es.tEy (V/m) @ t=0.38
0
% es.tEz (V/m) @ t=0.38
-0.3184852821831079
% V (V) @ t=0.38
0.007494384620634886
% es.normE (V/m) @ t=0.4
1.3054151283708704
% es.EX (V/m) @ t=0.4
-1.2613757666650462
% es.EY (V/m) @ t=0.4
0.09717217000870415
% es.EZ (V/m) @ t=0.4
-0.3214924863059734
% es.tEX (V/m) @ t=0.4
-1.2613757666650631
% es.tEY (V/m) @ t=0.4
0
% es.tEZ (V/m) @ t=0.4
-0.32149248630596716
% es.Ex (V/m) @ t=0.4
-1.2613757666650462
% es.Ey (V/m) @ t=0.4
0.09717217000870415
% es.Ez (V/m) @ t=0.4
-0.3214924863059734
% es.tEx (V/m) @ t=0.4
-1.2613757666650631
% es.tEy (V/m) @ t=0.4
0
% es.tEz (V/m) @ t=0.4
-0.32149248630596716
% V (V) @ t=0.4
0.007565146954456563
% es.normE (V/m) @ t=0.42
1.3176257202068629
% es.EX (V/m) @ t=0.42
-1.2731744145302724
% es.EY (V/m) @ t=0.42
0.09808111738753461
% es.EZ (V/m) @ t=0.42
-0.3244996904288511
% es.tEX (V/m) @ t=0.42
-1.273174414530276
% es.tEY (V/m) @ t=0.42
0
% es.tEZ (V/m) @ t=0.42
-0.32449969042885485
% es.Ex (V/m) @ t=0.42
-1.2731744145302724
% es.Ey (V/m) @ t=0.42
0.09808111738753461
% es.Ez (V/m) @ t=0.42
-0.3244996904288511
% es.tEx (V/m) @ t=0.42
-1.273174414530276
% es.tEy (V/m) @ t=0.42
0
% es.tEz (V/m) @ t=0.42
-0.32449969042885485
% V (V) @ t=0.42
0.0076359092882782404
% es.normE (V/m) @ t=0.44
1.3298363120428331
% es.EX (V/m) @ t=0.44
-1.2849730623954763
% es.EY (V/m) @ t=0.44
0.09899006476635092
% es.EZ (V/m) @ t=0.44
-0.3275068945517252
% es.tEX (V/m) @ t=0.44
-1.2849730623954834
% es.tEY (V/m) @ t=0.44
0
% es.tEZ (V/m) @ t=0.44
-0.32750689455172655
% es.Ex (V/m) @ t=0.44
-1.2849730623954763
% es.Ey (V/m) @ t=0.44
0.09899006476635092
% es.Ez (V/m) @ t=0.44
-0.3275068945517252
% es.tEx (V/m) @ t=0.44
-1.2849730623954834
% es.tEy (V/m) @ t=0.44
0
% es.tEz (V/m) @ t=0.44
-0.32750689455172655
% V (V) @ t=0.44
0.007706671622099918
% es.normE (V/m) @ t=0.46
1.342046903878808
% es.EX (V/m) @ t=0.46
-1.2967717102606873
% es.EY (V/m) @ t=0.46
0.09989901214516278
% es.EZ (V/m) @ t=0.46
-0.3305140986745876
% es.tEX (V/m) @ t=0.46
-1.296771710260682
% es.tEY (V/m) @ t=0.46
0
% es.tEZ (V/m) @ t=0.46
-0.3305140986745876
% es.Ex (V/m) @ t=0.46
-1.2967717102606873
% es.Ey (V/m) @ t=0.46
0.09989901214516278
% es.Ez (V/m) @ t=0.46
-0.3305140986745876
% es.tEx (V/m) @ t=0.46
-1.296771710260682
% es.tEy (V/m) @ t=0.46
0
% es.tEz (V/m) @ t=0.46
-0.3305140986745876
% V (V) @ t=0.46
0.007777433955921595
% es.normE (V/m) @ t=0.48
1.3542574957147877
% es.EX (V/m) @ t=0.48
-1.308570358125901
% es.EY (V/m) @ t=0.48
0.10080795952397736
% es.EZ (V/m) @ t=0.48
-0.3335213027974553
% es.tEX (V/m) @ t=0.48
-1.3085703581259018
% es.tEY (V/m) @ t=0.48
0
% es.tEZ (V/m) @ t=0.48
-0.3335213027974575
% es.Ex (V/m) @ t=0.48
-1.308570358125901
% es.Ey (V/m) @ t=0.48
0.10080795952397736
% es.Ez (V/m) @ t=0.48
-0.3335213027974553
% es.tEx (V/m) @ t=0.48
-1.3085703581259018
% es.tEy (V/m) @ t=0.48
0
% es.tEz (V/m) @ t=0.48
-0.3335213027974575
% V (V) @ t=0.48
0.007848196289743273
% es.normE (V/m) @ t=0.5
1.3664680875507609
% es.EX (V/m) @ t=0.5
-1.3203690059911057
% es.EY (V/m) @ t=0.5
0.10171690690277846
% es.EZ (V/m) @ t=0.5
-0.3365285069203323
% es.tEX (V/m) @ t=0.5
-1.3203690059911004
% es.tEY (V/m) @ t=0.5
0
% es.tEZ (V/m) @ t=0.5
-0.33652850692033454
% es.Ex (V/m) @ t=0.5
-1.3203690059911057
% es.Ey (V/m) @ t=0.5
0.10171690690277846
% es.Ez (V/m) @ t=0.5
-0.3365285069203323
% es.tEx (V/m) @ t=0.5
-1.3203690059911004
% es.tEy (V/m) @ t=0.5
0
% es.tEz (V/m) @ t=0.5
-0.33652850692033454
% V (V) @ t=0.5
0.00791895862356495
% es.normE (V/m) @ t=0.52
1.3786786793867367
% es.EX (V/m) @ t=0.52
-1.3321676538563123
% es.EY (V/m) @ t=0.52
0.10262585428160453
% es.EZ (V/m) @ t=0.52
-0.3395357110432009
% es.tEX (V/m) @ t=0.52
-1.3321676538563132
% es.tEY (V/m) @ t=0.52
0
% es.tEZ (V/m) @ t=0.52
-0.3395357110432009
% es.Ex (V/m) @ t=0.52
-1.3321676538563123
% es.Ey (V/m) @ t=0.52
0.10262585428160453
% es.Ez (V/m) @ t=0.52
-0.3395357110432009
% es.tEx (V/m) @ t=0.52
-1.3321676538563132
% es.tEy (V/m) @ t=0.52
0
% es.tEz (V/m) @ t=0.52
-0.3395357110432009
% V (V) @ t=0.52
0.007989720957386627
% es.normE (V/m) @ t=0.54
1.3908892712227061
% es.EX (V/m) @ t=0.54
-1.34396630172151
% es.EY (V/m) @ t=0.54
0.10353480166042889
% es.EZ (V/m) @ t=0.54
-0.3425429151660766
% es.tEX (V/m) @ t=0.54
-1.3439663017215064
% es.tEY (V/m) @ t=0.54
0
% es.tEZ (V/m) @ t=0.54
-0.3425429151660815
% es.Ex (V/m) @ t=0.54
-1.34396630172151
% es.Ey (V/m) @ t=0.54
0.10353480166042889
% es.Ez (V/m) @ t=0.54
-0.3425429151660766
% es.tEx (V/m) @ t=0.54
-1.3439663017215064
% es.tEy (V/m) @ t=0.54
0
% es.tEz (V/m) @ t=0.54
-0.3425429151660815
% V (V) @ t=0.54
0.008060483291208304
% es.normE (V/m) @ t=0.56
1.4042436260800066
% es.EX (V/m) @ t=0.56
-1.3568701331168773
% es.EY (V/m) @ t=0.56
0.10452887454982296
% es.EZ (V/m) @ t=0.56
-0.3458317800999764
% es.tEX (V/m) @ t=0.56
-1.3568701331168747
% es.tEY (V/m) @ t=0.56
0
% es.tEZ (V/m) @ t=0.56
-0.34583178009997795
% es.Ex (V/m) @ t=0.56
-1.3568701331168773
% es.Ey (V/m) @ t=0.56
0.10452887454982296
% es.Ez (V/m) @ t=0.56
-0.3458317800999764
% es.tEx (V/m) @ t=0.56
-1.3568701331168747
% es.tEy (V/m) @ t=0.56
0
% es.tEz (V/m) @ t=0.56
-0.34583178009997795
% V (V) @ t=0.56
0.008137874364028701
% es.normE (V/m) @ t=0.58
1.4178689717157877
% es.EX (V/m) @ t=0.58
-1.370035814685413
% es.EY (V/m) @ t=0.58
0.10554311615246958
% es.EZ (V/m) @ t=0.58
-0.3491873786850219
% es.tEX (V/m) @ t=0.58
-1.370035814685414
% es.tEY (V/m) @ t=0.58
0
% es.tEZ (V/m) @ t=0.58
-0.3491873786850217
% es.Ex (V/m) @ t=0.58
-1.370035814685413
% es.Ey (V/m) @ t=0.58
0.10554311615246958
% es.Ez (V/m) @ t=0.58
-0.3491873786850219
% es.tEx (V/m) @ t=0.58
-1.370035814685414
% es.tEy (V/m) @ t=0.58
0
% es.tEz (V/m) @ t=0.58
-0.3491873786850217
% V (V) @ t=0.58
0.008216835978218451
% es.normE (V/m) @ t=0.6
1.4314943173515569
% es.EX (V/m) @ t=0.6
-1.3832014962539425
% es.EY (V/m) @ t=0.6
0.10655735775509773
% es.EZ (V/m) @ t=0.6
-0.352542977270049
% es.tEX (V/m) @ t=0.6
-1.3832014962539514
% es.tEY (V/m) @ t=0.6
0
% es.tEZ (V/m) @ t=0.6
-0.35254297727004413
% es.Ex (V/m) @ t=0.6
-1.3832014962539425
% es.Ey (V/m) @ t=0.6
0.10655735775509773
% es.Ez (V/m) @ t=0.6
-0.352542977270049
% es.tEx (V/m) @ t=0.6
-1.3832014962539514
% es.tEy (V/m) @ t=0.6
0
% es.tEz (V/m) @ t=0.6
-0.35254297727004413
% V (V) @ t=0.6
0.008295797592408203
% es.normE (V/m) @ t=0.62
1.445119662987362
% es.EX (V/m) @ t=0.62
-1.396367177822503
% es.EY (V/m) @ t=0.62
0.10757159935773825
% es.EZ (V/m) @ t=0.62
-0.35589857585509765
% es.tEX (V/m) @ t=0.62
-1.396367177822512
% es.tEY (V/m) @ t=0.62
0
% es.tEZ (V/m) @ t=0.62
-0.35589857585509677
% es.Ex (V/m) @ t=0.62
-1.396367177822503
% es.Ey (V/m) @ t=0.62
0.10757159935773825
% es.Ez (V/m) @ t=0.62
-0.35589857585509765
% es.tEx (V/m) @ t=0.62
-1.396367177822512
% es.tEy (V/m) @ t=0.62
0
% es.tEz (V/m) @ t=0.62
-0.35589857585509677
% V (V) @ t=0.62
0.008374759206597955
% es.normE (V/m) @ t=0.64
1.4587450086231373
% es.EX (V/m) @ t=0.64
-1.4095328593910388
% es.EY (V/m) @ t=0.64
0.1085858409603751
% es.EZ (V/m) @ t=0.64
-0.35925417444012275
% es.tEX (V/m) @ t=0.64
-1.4095328593910423
% es.tEY (V/m) @ t=0.64
0
% es.tEZ (V/m) @ t=0.64
-0.3592541744401334
% es.Ex (V/m) @ t=0.64
-1.4095328593910388
% es.Ey (V/m) @ t=0.64
0.1085858409603751
% es.Ez (V/m) @ t=0.64
-0.35925417444012275
% es.tEx (V/m) @ t=0.64
-1.4095328593910423
% es.tEy (V/m) @ t=0.64
0
% es.tEz (V/m) @ t=0.64
-0.3592541744401334
% V (V) @ t=0.64
0.008453720820787708
% es.normE (V/m) @ t=0.66
1.4723703542589406
% es.EX (V/m) @ t=0.66
-1.422698540959595
% es.EY (V/m) @ t=0.66
0.10960008256302184
% es.EZ (V/m) @ t=0.66
-0.36260977302517783
% es.tEX (V/m) @ t=0.66
-1.4226985409595816
% es.tEY (V/m) @ t=0.66
0
% es.tEZ (V/m) @ t=0.66
-0.3626097730251807
% es.Ex (V/m) @ t=0.66
-1.422698540959595
% es.Ey (V/m) @ t=0.66
0.10960008256302184
% es.Ez (V/m) @ t=0.66
-0.36260977302517783
% es.tEx (V/m) @ t=0.66
-1.4226985409595816
% es.tEy (V/m) @ t=0.66
0
% es.tEz (V/m) @ t=0.66
-0.3626097730251807
% V (V) @ t=0.66
0.00853268243497746
% es.normE (V/m) @ t=0.68
1.485995699894716
% es.EX (V/m) @ t=0.68
-1.435864222528128
% es.EY (V/m) @ t=0.68
0.11061432416564276
% es.EZ (V/m) @ t=0.68
-0.36596537161022025
% es.tEX (V/m) @ t=0.68
-1.4358642225281315
% es.tEY (V/m) @ t=0.68
0
% es.tEZ (V/m) @ t=0.68
-0.3659653716102227
% es.Ex (V/m) @ t=0.68
-1.435864222528128
% es.Ey (V/m) @ t=0.68
0.11061432416564276
% es.Ez (V/m) @ t=0.68
-0.36596537161022025
% es.tEx (V/m) @ t=0.68
-1.4358642225281315
% es.tEy (V/m) @ t=0.68
0
% es.tEz (V/m) @ t=0.68
-0.3659653716102227
% V (V) @ t=0.68
0.00861164404916721
% es.normE (V/m) @ t=0.7
1.4996210455305024
% es.EX (V/m) @ t=0.7
-1.4490299040966743
% es.EY (V/m) @ t=0.7
0.11162856576827618
% es.EZ (V/m) @ t=0.7
-0.36932097019525023
% es.tEX (V/m) @ t=0.7
-1.4490299040966566
% es.tEY (V/m) @ t=0.7
0
% es.tEZ (V/m) @ t=0.7
-0.3693209701952487
% es.Ex (V/m) @ t=0.7
-1.4490299040966743
% es.Ey (V/m) @ t=0.7
0.11162856576827618
% es.Ez (V/m) @ t=0.7
-0.36932097019525023
% es.tEx (V/m) @ t=0.7
-1.4490299040966566
% es.tEy (V/m) @ t=0.7
0
% es.tEz (V/m) @ t=0.7
-0.3693209701952487
% V (V) @ t=0.7
0.008690605663356964
% es.normE (V/m) @ t=0.72
1.5132463911662772
% es.EX (V/m) @ t=0.72
-1.4621955856652047
% es.EY (V/m) @ t=0.72
0.11264280737091487
% es.EZ (V/m) @ t=0.72
-0.37267656878029465
% es.tEX (V/m) @ t=0.72
-1.4621955856652153
% es.tEY (V/m) @ t=0.72
0
% es.tEZ (V/m) @ t=0.72
-0.37267656878029776
% es.Ex (V/m) @ t=0.72
-1.4621955856652047
% es.Ey (V/m) @ t=0.72
0.11264280737091487
% es.Ez (V/m) @ t=0.72
-0.37267656878029465
% es.tEx (V/m) @ t=0.72
-1.4621955856652153
% es.tEy (V/m) @ t=0.72
0
% es.tEz (V/m) @ t=0.72
-0.37267656878029776
% V (V) @ t=0.72
0.008769567277546715
% es.normE (V/m) @ t=0.74
1.5268717368020661
% es.EX (V/m) @ t=0.74
-1.4753612672337528
% es.EY (V/m) @ t=0.74
0.11365704897353851
% es.EZ (V/m) @ t=0.74
-0.37603216736533085
% es.tEX (V/m) @ t=0.74
-1.4753612672337386
% es.tEY (V/m) @ t=0.74
0
% es.tEZ (V/m) @ t=0.74
-0.3760321673653255
% es.Ex (V/m) @ t=0.74
-1.4753612672337528
% es.Ey (V/m) @ t=0.74
0.11365704897353851
% es.Ez (V/m) @ t=0.74
-0.37603216736533085
% es.tEx (V/m) @ t=0.74
-1.4753612672337386
% es.tEy (V/m) @ t=0.74
0
% es.tEz (V/m) @ t=0.74
-0.3760321673653255
% V (V) @ t=0.74
0.008848528891736467
% es.normE (V/m) @ t=0.76
1.5404970824378537
% es.EX (V/m) @ t=0.76
-1.4885269488022965
% es.EY (V/m) @ t=0.76
0.11467129057618869
% es.EZ (V/m) @ t=0.76
-0.37938776595037016
% es.tEX (V/m) @ t=0.76
-1.4885269488022992
% es.tEY (V/m) @ t=0.76
0
% es.tEZ (V/m) @ t=0.76
-0.3793877659503657
% es.Ex (V/m) @ t=0.76
-1.4885269488022965
% es.Ey (V/m) @ t=0.76
0.11467129057618869
% es.Ez (V/m) @ t=0.76
-0.37938776595037016
% es.tEx (V/m) @ t=0.76
-1.4885269488022992
% es.tEy (V/m) @ t=0.76
0
% es.tEz (V/m) @ t=0.76
-0.3793877659503657
% V (V) @ t=0.76
0.008927490505926217
% es.normE (V/m) @ t=0.78
1.55412242807363
% es.EX (V/m) @ t=0.78
-1.5016926303708305
% es.EY (V/m) @ t=0.78
0.11568553217882122
% es.EZ (V/m) @ t=0.78
-0.382743364535409
% es.tEX (V/m) @ t=0.78
-1.5016926303708278
% es.tEY (V/m) @ t=0.78
0
% es.tEZ (V/m) @ t=0.78
-0.3827433645354077
% es.Ex (V/m) @ t=0.78
-1.5016926303708305
% es.Ey (V/m) @ t=0.78
0.11568553217882122
% es.Ez (V/m) @ t=0.78
-0.382743364535409
% es.tEx (V/m) @ t=0.78
-1.5016926303708278
% es.tEy (V/m) @ t=0.78
0
% es.tEz (V/m) @ t=0.78
-0.3827433645354077
% V (V) @ t=0.78
0.009006452120115973
% es.normE (V/m) @ t=0.8
1.5677477737094165
% es.EX (V/m) @ t=0.8
-1.514858311939375
% es.EY (V/m) @ t=0.8
0.11669977378145469
% es.EZ (V/m) @ t=0.8
-0.3860989631204461
% es.tEX (V/m) @ t=0.8
-1.5148583119393741
% es.tEY (V/m) @ t=0.8
0
% es.tEZ (V/m) @ t=0.8
-0.386098963120455
% es.Ex (V/m) @ t=0.8
-1.514858311939375
% es.Ey (V/m) @ t=0.8
0.11669977378145469
% es.Ez (V/m) @ t=0.8
-0.3860989631204461
% es.tEx (V/m) @ t=0.8
-1.5148583119393741
% es.tEy (V/m) @ t=0.8
0
% es.tEz (V/m) @ t=0.8
-0.386098963120455
% V (V) @ t=0.8
0.009085413734305723
% es.normE (V/m) @ t=0.82
1.5817227601487387
% es.EX (V/m) @ t=0.82
-1.5283618390929625
% es.EY (V/m) @ t=0.82
0.11774004136628136
% es.EZ (V/m) @ t=0.82
-0.38954066911834406
% es.tEX (V/m) @ t=0.82
-1.528361839092966
% es.tEY (V/m) @ t=0.82
0
% es.tEZ (V/m) @ t=0.82
-0.38954066911833785
% es.Ex (V/m) @ t=0.82
-1.5283618390929625
% es.Ey (V/m) @ t=0.82
0.11774004136628136
% es.Ez (V/m) @ t=0.82
-0.38954066911834406
% es.tEx (V/m) @ t=0.82
-1.528361839092966
% es.tEy (V/m) @ t=0.82
0
% es.tEz (V/m) @ t=0.82
-0.38954066911833785
% V (V) @ t=0.82
0.009166401602678766
% es.normE (V/m) @ t=0.84
1.5969544847696557
% es.EX (V/m) @ t=0.84
-1.543079708056533
% es.EY (V/m) @ t=0.84
0.11887385594325628
% es.EZ (V/m) @ t=0.84
-0.39329187696032575
% es.tEX (V/m) @ t=0.84
-1.543079708056542
% es.tEY (V/m) @ t=0.84
0
% es.tEZ (V/m) @ t=0.84
-0.3932918769603262
% es.Ex (V/m) @ t=0.84
-1.543079708056533
% es.Ey (V/m) @ t=0.84
0.11887385594325628
% es.Ez (V/m) @ t=0.84
-0.39329187696032575
% es.tEx (V/m) @ t=0.84
-1.543079708056542
% es.tEy (V/m) @ t=0.84
0
% es.tEz (V/m) @ t=0.84
-0.3932918769603262
% V (V) @ t=0.84
0.00925467257694762
% es.normE (V/m) @ t=0.86
1.6121862093905701
% es.EX (V/m) @ t=0.86
-1.5577975770201107
% es.EY (V/m) @ t=0.86
0.12000767052023037
% es.EZ (V/m) @ t=0.86
-0.3970430848022697
% es.tEX (V/m) @ t=0.86
-1.5577975770201284
% es.tEY (V/m) @ t=0.86
0
% es.tEZ (V/m) @ t=0.86
-0.39704308480227013
% es.Ex (V/m) @ t=0.86
-1.5577975770201107
% es.Ey (V/m) @ t=0.86
0.12000767052023037
% es.Ez (V/m) @ t=0.86
-0.3970430848022697
% es.tEx (V/m) @ t=0.86
-1.5577975770201284
% es.tEy (V/m) @ t=0.86
0
% es.tEz (V/m) @ t=0.86
-0.39704308480227013
% V (V) @ t=0.86
0.009342943551216475
% es.normE (V/m) @ t=0.88
1.6274179340114783
% es.EX (V/m) @ t=0.88
-1.5725154459836723
% es.EY (V/m) @ t=0.88
0.12114148509720979
% es.EZ (V/m) @ t=0.88
-0.40079429264424915
% es.tEX (V/m) @ t=0.88
-1.5725154459836759
% es.tEY (V/m) @ t=0.88
0
% es.tEZ (V/m) @ t=0.88
-0.40079429264425137
% es.Ex (V/m) @ t=0.88
-1.5725154459836723
% es.Ey (V/m) @ t=0.88
0.12114148509720979
% es.Ez (V/m) @ t=0.88
-0.40079429264424915
% es.tEx (V/m) @ t=0.88
-1.5725154459836759
% es.tEy (V/m) @ t=0.88
0
% es.tEz (V/m) @ t=0.88
-0.40079429264425137
% V (V) @ t=0.88
0.00943121452548533
% es.normE (V/m) @ t=0.9
1.6426496586324069
% es.EX (V/m) @ t=0.9
-1.5872333149472562
% es.EY (V/m) @ t=0.9
0.12227529967421591
% es.EZ (V/m) @ t=0.9
-0.4045455004862153
% es.tEX (V/m) @ t=0.9
-1.5872333149472677
% es.tEY (V/m) @ t=0.9
0
% es.tEZ (V/m) @ t=0.9
-0.4045455004862166
% es.Ex (V/m) @ t=0.9
-1.5872333149472562
% es.Ey (V/m) @ t=0.9
0.12227529967421591
% es.Ez (V/m) @ t=0.9
-0.4045455004862153
% es.tEx (V/m) @ t=0.9
-1.5872333149472677
% es.tEy (V/m) @ t=0.9
0
% es.tEz (V/m) @ t=0.9
-0.4045455004862166
% V (V) @ t=0.9
0.009519485499754187
% es.normE (V/m) @ t=0.92
1.657881383253328
% es.EX (V/m) @ t=0.92
-1.6019511839108338
% es.EY (V/m) @ t=0.92
0.12340911425118384
% es.EZ (V/m) @ t=0.92
-0.40829670832818765
% es.tEX (V/m) @ t=0.92
-1.6019511839108382
% es.tEY (V/m) @ t=0.92
0
% es.tEZ (V/m) @ t=0.92
-0.4082967083281819
% es.Ex (V/m) @ t=0.92
-1.6019511839108338
% es.Ey (V/m) @ t=0.92
0.12340911425118384
% es.Ez (V/m) @ t=0.92
-0.40829670832818765
% es.tEx (V/m) @ t=0.92
-1.6019511839108382
% es.tEy (V/m) @ t=0.92
0
% es.tEz (V/m) @ t=0.92
-0.4082967083281819
% V (V) @ t=0.92
0.009607756474023042
% es.normE (V/m) @ t=0.94
1.673113107874223
% es.EX (V/m) @ t=0.94
-1.6166690528743848
% es.EY (V/m) @ t=0.94
0.12454292882817208
% es.EZ (V/m) @ t=0.94
-0.4120479161701529
% es.tEX (V/m) @ t=0.94
-1.6166690528743786
% es.tEY (V/m) @ t=0.94
0
% es.tEZ (V/m) @ t=0.94
-0.4120479161701489
% es.Ex (V/m) @ t=0.94
-1.6166690528743848
% es.Ey (V/m) @ t=0.94
0.12454292882817208
% es.Ez (V/m) @ t=0.94
-0.4120479161701529
% es.tEx (V/m) @ t=0.94
-1.6166690528743786
% es.tEy (V/m) @ t=0.94
0
% es.tEz (V/m) @ t=0.94
-0.4120479161701489
% V (V) @ t=0.94
0.0096960274482919
% es.normE (V/m) @ t=0.96
1.6883448324951371
% es.EX (V/m) @ t=0.96
-1.631386921837957
% es.EY (V/m) @ t=0.96
0.12567674340515766
% es.EZ (V/m) @ t=0.96
-0.4157991240121124
% es.tEX (V/m) @ t=0.96
-1.6313869218379704
% es.tEY (V/m) @ t=0.96
0
% es.tEZ (V/m) @ t=0.96
-0.4157991240121053
% es.Ex (V/m) @ t=0.96
-1.631386921837957
% es.Ey (V/m) @ t=0.96
0.12567674340515766
% es.Ez (V/m) @ t=0.96
-0.4157991240121124
% es.tEx (V/m) @ t=0.96
-1.6313869218379704
% es.tEy (V/m) @ t=0.96
0
% es.tEz (V/m) @ t=0.96
-0.4157991240121053
% V (V) @ t=0.96
0.009784298422560754
% es.normE (V/m) @ t=0.98
1.7035765571160488
% es.EX (V/m) @ t=0.98
-1.646104790801525
% es.EY (V/m) @ t=0.98
0.12681055798215934
% es.EZ (V/m) @ t=0.98
-0.41955033185407453
% es.tEX (V/m) @ t=0.98
-1.6461047908015267
% es.tEY (V/m) @ t=0.98
0
% es.tEZ (V/m) @ t=0.98
-0.4195503318540723
% es.Ex (V/m) @ t=0.98
-1.646104790801525
% es.Ey (V/m) @ t=0.98
0.12681055798215934
% es.Ez (V/m) @ t=0.98
-0.41955033185407453
% es.tEx (V/m) @ t=0.98
-1.6461047908015267
% es.tEy (V/m) @ t=0.98
0
% es.tEz (V/m) @ t=0.98
-0.4195503318540723
% V (V) @ t=0.98
0.009872569396829609
% es.normE (V/m) @ t=1
1.7188082817369508
% es.EX (V/m) @ t=1
-1.6608226597650848
% es.EY (V/m) @ t=1
0.12794437255912716
% es.EZ (V/m) @ t=1
-0.42330153969603934
% es.tEX (V/m) @ t=1
-1.6608226597651043
% es.tEY (V/m) @ t=1
0
% es.tEZ (V/m) @ t=1
-0.42330153969603046
% es.Ex (V/m) @ t=1
-1.6608226597650848
% es.Ey (V/m) @ t=1
0.12794437255912716
% es.Ez (V/m) @ t=1
-0.42330153969603934
% es.tEx (V/m) @ t=1
-1.6608226597651043
% es.tEy (V/m) @ t=1
0
% es.tEz (V/m) @ t=1
-0.42330153969603046
% V (V) @ t=1
0.009960840371098465
% es.normE (V/m) @ t=1.02
1.7340400063578858
% es.EX (V/m) @ t=1.02
-1.6755405287286749
% es.EY (V/m) @ t=1.02
0.12907818713611108
% es.EZ (V/m) @ t=1.02
-0.4270527475380139
% es.tEX (V/m) @ t=1.02
-1.675540528728666
% es.tEY (V/m) @ t=1.02
0
% es.tEZ (V/m) @ t=1.02
-0.4270527475380117
% es.Ex (V/m) @ t=1.02
-1.6755405287286749
% es.Ey (V/m) @ t=1.02
0.12907818713611108
% es.Ez (V/m) @ t=1.02
-0.4270527475380139
% es.tEx (V/m) @ t=1.02
-1.675540528728666