% Model:              1 neuron.mph
% Version:            COMSOL 6.0.0.405
% Date:               Mar 16 2023, 09:55
% Dimension:          0
% Nodes:              14017
% Expressions:        14017
% Description:        Electric field norm, Electric field, X component, Electric field, Y component, Electric field, Z component, Tangential electric field, X component, Tangential electric field, Y component, Tangential electric field, Z component, Electric field, x component, Electric field, y component, Electric field, z component, Tangential electric field, x component, Tangential electric field, y component, Tangential electric field, z component, Electric potential
% Length unit:        mm
% x
1.66
% y
12.2
% z
2
% es.normE (V/m) @ t=0
1.474487638821254
% es.EX (V/m) @ t=0
-0.43986967878372396
% es.EY (V/m) @ t=0
0.032856460993988125
% es.EZ (V/m) @ t=0
-1.4045969509507121
% es.tEX (V/m) @ t=0
-0.4398696787837295
% es.tEY (V/m) @ t=0
0
% es.tEZ (V/m) @ t=0
-1.4045969509507295
% es.Ex (V/m) @ t=0
-0.43986967878372396
% es.Ey (V/m) @ t=0
0.032856460993988125
% es.Ez (V/m) @ t=0
-1.4045969509507121
% es.tEx (V/m) @ t=0
-0.4398696787837295
% es.tEy (V/m) @ t=0
0
% es.tEz (V/m) @ t=0
-1.4045969509507295
% V (V) @ t=0
0.007411387400795111
% es.normE (V/m) @ t=0.02
1.2735406124270807
% es.EX (V/m) @ t=0.02
-0.3799230926967938
% es.EY (V/m) @ t=0.02
0.028378700503425336
% es.EZ (V/m) @ t=0.02
-1.2131748089920764
% es.tEX (V/m) @ t=0.02
-0.3799230926967958
% es.tEY (V/m) @ t=0.02
0
% es.tEZ (V/m) @ t=0.02
-1.2131748089920822
% es.Ex (V/m) @ t=0.02
-0.3799230926967938
% es.Ey (V/m) @ t=0.02
0.028378700503425336
% es.Ez (V/m) @ t=0.02
-1.2131748089920764
% es.tEx (V/m) @ t=0.02
-0.3799230926967958
% es.tEy (V/m) @ t=0.02
0
% es.tEz (V/m) @ t=0.02
-1.2131748089920822
% V (V) @ t=0.02
0.006401343975258736
% es.normE (V/m) @ t=0.04
1.2852521353430812
% es.EX (V/m) @ t=0.04
-0.38341688147215874
% es.EY (V/m) @ t=0.04
0.028639676791546345
% es.EZ (V/m) @ t=0.04
-1.2243312046610866
% es.tEX (V/m) @ t=0.04
-0.38341688147216146
% es.tEY (V/m) @ t=0.04
0
% es.tEZ (V/m) @ t=0.04
-1.224331204661096
% es.Ex (V/m) @ t=0.04
-0.38341688147215874
% es.Ey (V/m) @ t=0.04
0.028639676791546345
% es.Ez (V/m) @ t=0.04
-1.2243312046610866
% es.tEx (V/m) @ t=0.04
-0.38341688147216146
% es.tEy (V/m) @ t=0.04
0
% es.tEz (V/m) @ t=0.04
-1.224331204661096
% V (V) @ t=0.04
0.006460210717401824
% es.normE (V/m) @ t=0.06
1.2970689623430194
% es.EX (V/m) @ t=0.06
-0.38694207990555834
% es.EY (V/m) @ t=0.06
0.02890299227234535
% es.EZ (V/m) @ t=0.06
-1.2355879149355595
% es.tEX (V/m) @ t=0.06
-0.3869420799055625
% es.tEY (V/m) @ t=0.06
0
% es.tEZ (V/m) @ t=0.06
-1.2355879149355733
% es.Ex (V/m) @ t=0.06
-0.38694207990555834
% es.Ey (V/m) @ t=0.06
0.02890299227234535
% es.Ez (V/m) @ t=0.06
-1.2355879149355595
% es.tEx (V/m) @ t=0.06
-0.3869420799055625
% es.tEy (V/m) @ t=0.06
0
% es.tEz (V/m) @ t=0.06
-1.2355879149355733
% V (V) @ t=0.06
0.006519607123009331
% es.normE (V/m) @ t=0.08
1.3090668132659962
% es.EX (V/m) @ t=0.08
-0.39052128584602724
% es.EY (V/m) @ t=0.08
0.029170348344768393
% es.EZ (V/m) @ t=0.08
-1.247017066800447
% es.tEX (V/m) @ t=0.08
-0.39052128584603096
% es.tEY (V/m) @ t=0.08
0
% es.tEZ (V/m) @ t=0.08
-1.2470170668004519
% es.Ex (V/m) @ t=0.08
-0.39052128584602724
% es.Ey (V/m) @ t=0.08
0.029170348344768393
% es.Ez (V/m) @ t=0.08
-1.247017066800447
% es.tEx (V/m) @ t=0.08
-0.39052128584603096
% es.tEy (V/m) @ t=0.08
0
% es.tEz (V/m) @ t=0.08
-1.2470170668004519
% V (V) @ t=0.08
0.006579913093567791
% es.normE (V/m) @ t=0.1
1.3211890674006772
% es.EX (V/m) @ t=0.1
-0.3941376068109873
% es.EY (V/m) @ t=0.1
0.029440481191488233
% es.EZ (V/m) @ t=0.1
-1.2585647239287185
% es.tEX (V/m) @ t=0.1
-0.39413760681098964
% es.tEY (V/m) @ t=0.1
0
% es.tEZ (V/m) @ t=0.1
-1.2585647239287292
% es.Ex (V/m) @ t=0.1
-0.3941376068109873
% es.Ey (V/m) @ t=0.1
0.029440481191488233
% es.Ez (V/m) @ t=0.1
-1.2585647239287185
% es.tEx (V/m) @ t=0.1
-0.39413760681098964
% es.tEy (V/m) @ t=0.1
0
% es.tEz (V/m) @ t=0.1
-1.2585647239287292
% V (V) @ t=0.1
0.006640844135107321
% es.normE (V/m) @ t=0.12
1.3333113215353543
% es.EX (V/m) @ t=0.12
-0.397753927775942
% es.EY (V/m) @ t=0.12
0.029710614038202965
% es.EZ (V/m) @ t=0.12
-1.270112381056987
% es.tEX (V/m) @ t=0.12
-0.39775392777594476
% es.tEY (V/m) @ t=0.12
0
% es.tEZ (V/m) @ t=0.12
-1.2701123810570012
% es.Ex (V/m) @ t=0.12
-0.397753927775942
% es.Ey (V/m) @ t=0.12
0.029710614038202965
% es.Ez (V/m) @ t=0.12
-1.270112381056987
% es.tEx (V/m) @ t=0.12
-0.39775392777594476
% es.tEy (V/m) @ t=0.12
0
% es.tEz (V/m) @ t=0.12
-1.2701123810570012
% V (V) @ t=0.12
0.006701775176646852
% es.normE (V/m) @ t=0.14
1.345559822203457
% es.EX (V/m) @ t=0.14
-0.4014079101967526
% es.EY (V/m) @ t=0.14
0.02998355936154993
% es.EZ (V/m) @ t=0.14
-1.2817803008229194
% es.tEX (V/m) @ t=0.14
-0.4014079101967525
% es.tEY (V/m) @ t=0.14
0
% es.tEZ (V/m) @ t=0.14
-1.281780300822927
% es.Ex (V/m) @ t=0.14
-0.4014079101967526
% es.Ey (V/m) @ t=0.14
0.02998355936154993
% es.Ez (V/m) @ t=0.14
-1.2817803008229194
% es.tEx (V/m) @ t=0.14
-0.4014079101967525
% es.tEy (V/m) @ t=0.14
0
% es.tEz (V/m) @ t=0.14
-1.281780300822927
% V (V) @ t=0.14
0.006763340820814993
% es.normE (V/m) @ t=0.16
1.3583283833060076
% es.EX (V/m) @ t=0.16
-0.4052170353574487
% es.EY (V/m) @ t=0.16
0.03026809041146364
% es.EZ (V/m) @ t=0.16
-1.2939436309410648
% es.tEX (V/m) @ t=0.16
-0.40521703535745246
% es.tEY (V/m) @ t=0.16
0
% es.tEZ (V/m) @ t=0.16
-1.2939436309410661
% es.Ex (V/m) @ t=0.16
-0.4052170353574487
% es.Ey (V/m) @ t=0.16
0.03026809041146364
% es.Ez (V/m) @ t=0.16
-1.2939436309410648
% es.tEx (V/m) @ t=0.16
-0.40521703535745246
% es.tEy (V/m) @ t=0.16
0
% es.tEz (V/m) @ t=0.16
-1.2939436309410661
% V (V) @ t=0.16
0.006827520649387599
% es.normE (V/m) @ t=0.18
1.3710969444085617
% es.EX (V/m) @ t=0.18
-0.4090261605181479
% es.EY (V/m) @ t=0.18
0.030552621461380235
% es.EZ (V/m) @ t=0.18
-1.3061069610592142
% es.tEX (V/m) @ t=0.18
-0.40902616051815244
% es.tEY (V/m) @ t=0.18
0
% es.tEZ (V/m) @ t=0.18
-1.3061069610592204
% es.Ex (V/m) @ t=0.18
-0.4090261605181479
% es.Ey (V/m) @ t=0.18
0.030552621461380235
% es.Ez (V/m) @ t=0.18
-1.3061069610592142
% es.tEx (V/m) @ t=0.18
-0.40902616051815244
% es.tEy (V/m) @ t=0.18
0
% es.tEz (V/m) @ t=0.18
-1.3061069610592204
% V (V) @ t=0.18
0.006891700477960203
% es.normE (V/m) @ t=0.2
1.3838655055111189
% es.EX (V/m) @ t=0.2
-0.4128352856788463
% es.EY (V/m) @ t=0.2
0.030837152511297365
% es.EZ (V/m) @ t=0.2
-1.3182702911773663
% es.tEX (V/m) @ t=0.2
-0.4128352856788524
% es.tEY (V/m) @ t=0.2
0
% es.tEZ (V/m) @ t=0.2
-1.318270291177373
% es.Ex (V/m) @ t=0.2
-0.4128352856788463
% es.Ey (V/m) @ t=0.2
0.030837152511297365
% es.Ez (V/m) @ t=0.2
-1.3182702911773663
% es.tEx (V/m) @ t=0.2
-0.4128352856788524
% es.tEy (V/m) @ t=0.2
0
% es.tEz (V/m) @ t=0.2
-1.318270291177373
% V (V) @ t=0.2
0.006955880306532808
% es.normE (V/m) @ t=0.22
1.3966340666136714
% es.EX (V/m) @ t=0.22
-0.41664441083954906
% es.EY (V/m) @ t=0.22
0.03112168356121474
% es.EZ (V/m) @ t=0.22
-1.3304336212955121
% es.tEX (V/m) @ t=0.22
-0.41664441083954884
% es.tEY (V/m) @ t=0.22
0
% es.tEZ (V/m) @ t=0.22
-1.3304336212955263
% es.Ex (V/m) @ t=0.22
-0.41664441083954906
% es.Ey (V/m) @ t=0.22
0.03112168356121474
% es.Ez (V/m) @ t=0.22
-1.3304336212955121
% es.tEx (V/m) @ t=0.22
-0.41664441083954884
% es.tEy (V/m) @ t=0.22
0
% es.tEz (V/m) @ t=0.22
-1.3304336212955263
% V (V) @ t=0.22
0.007020060135105413
% es.normE (V/m) @ t=0.24
1.4094026277162237
% es.EX (V/m) @ t=0.24
-0.4204535360002447
% es.EY (V/m) @ t=0.24
0.03140621461113653
% es.EZ (V/m) @ t=0.24
-1.3425969514136606
% es.tEX (V/m) @ t=0.24
-0.4204535360002488
% es.tEY (V/m) @ t=0.24
0
% es.tEZ (V/m) @ t=0.24
-1.3425969514136664
% es.Ex (V/m) @ t=0.24
-0.4204535360002447
% es.Ey (V/m) @ t=0.24
0.03140621461113653
% es.Ez (V/m) @ t=0.24
-1.3425969514136606
% es.tEx (V/m) @ t=0.24
-0.4204535360002488
% es.tEy (V/m) @ t=0.24
0
% es.tEz (V/m) @ t=0.24
-1.3425969514136664
% V (V) @ t=0.24
0.007084239963678018
% es.normE (V/m) @ t=0.26
1.422171188818771
% es.EX (V/m) @ t=0.26
-0.4242626611609423
% es.EY (V/m) @ t=0.26
0.03169074566104853
% es.EZ (V/m) @ t=0.26
-1.354760281531802
% es.tEX (V/m) @ t=0.26
-0.42426266116094524
% es.tEY (V/m) @ t=0.26
0
% es.tEZ (V/m) @ t=0.26
-1.354760281531819
% es.Ex (V/m) @ t=0.26
-0.4242626611609423
% es.Ey (V/m) @ t=0.26
0.03169074566104853
% es.Ez (V/m) @ t=0.26
-1.354760281531802
% es.tEx (V/m) @ t=0.26
-0.42426266116094524
% es.tEy (V/m) @ t=0.26
0
% es.tEz (V/m) @ t=0.26
-1.354760281531819
% V (V) @ t=0.26
0.007148419792250621
% es.normE (V/m) @ t=0.28
1.435521604559575
% es.EX (V/m) @ t=0.28
-0.4282454801730521
% es.EY (V/m) @ t=0.28
0.03198842010180662
% es.EZ (V/m) @ t=0.28
-1.3674778392120506
% es.tEX (V/m) @ t=0.28
-0.4282454801730502
% es.tEY (V/m) @ t=0.28
0
% es.tEZ (V/m) @ t=0.28
-1.3674778392120563
% es.Ex (V/m) @ t=0.28
-0.4282454801730521
% es.Ey (V/m) @ t=0.28
0.03198842010180662
% es.Ez (V/m) @ t=0.28
-1.3674778392120506
% es.tEx (V/m) @ t=0.28
-0.4282454801730502
% es.tEy (V/m) @ t=0.28
0
% es.tEz (V/m) @ t=0.28
-1.3674778392120563
% V (V) @ t=0.28
0.007215515457880486
% es.normE (V/m) @ t=0.3
1.4497425376774489
% es.EX (V/m) @ t=0.3
-0.43248816394514755
% es.EY (V/m) @ t=0.3
0.032305758474697216
% es.EZ (V/m) @ t=0.3
-1.3810245811796387
% es.tEX (V/m) @ t=0.3
-0.43248816394515543
% es.tEY (V/m) @ t=0.3
0
% es.tEZ (V/m) @ t=0.3
-1.3810245811796493
% es.Ex (V/m) @ t=0.3
-0.43248816394514755
% es.Ey (V/m) @ t=0.3
0.032305758474697216
% es.Ez (V/m) @ t=0.3
-1.3810245811796387
% es.tEx (V/m) @ t=0.3
-0.43248816394515543
% es.tEy (V/m) @ t=0.3
0
% es.tEz (V/m) @ t=0.3
-1.3810245811796493
% V (V) @ t=0.3
0.007286973530647438
% es.normE (V/m) @ t=0.32
1.463963470795612
% es.EX (V/m) @ t=0.32
-0.4367308477172368
% es.EY (V/m) @ t=0.32
0.032623096847586734
% es.EZ (V/m) @ t=0.32
-1.3945713231472552
% es.tEX (V/m) @ t=0.32
-0.4367308477172429
% es.tEY (V/m) @ t=0.32
0
% es.tEZ (V/m) @ t=0.32
-1.3945713231472698
% es.Ex (V/m) @ t=0.32
-0.4367308477172368
% es.Ey (V/m) @ t=0.32
0.032623096847586734
% es.Ez (V/m) @ t=0.32
-1.3945713231472552
% es.tEx (V/m) @ t=0.32
-0.4367308477172429
% es.tEy (V/m) @ t=0.32
0
% es.tEz (V/m) @ t=0.32
-1.3945713231472698
% V (V) @ t=0.32
0.007358431603414389
% es.normE (V/m) @ t=0.34
1.4781844039140175
% es.EX (V/m) @ t=0.34
-0.4409735314893315
% es.EY (V/m) @ t=0.34
0.032940435220479077
% es.EZ (V/m) @ t=0.34
-1.4081180651148566
% es.tEX (V/m) @ t=0.34
-0.44097353148933394
% es.tEY (V/m) @ t=0.34
0
% es.tEZ (V/m) @ t=0.34
-1.40811806511487
% es.Ex (V/m) @ t=0.34
-0.4409735314893315
% es.Ey (V/m) @ t=0.34
0.032940435220479077
% es.Ez (V/m) @ t=0.34
-1.4081180651148566
% es.tEx (V/m) @ t=0.34
-0.44097353148933394
% es.tEy (V/m) @ t=0.34
0
% es.tEz (V/m) @ t=0.34
-1.40811806511487
% V (V) @ t=0.34
0.007429889676181341
% es.normE (V/m) @ t=0.36
1.4924053370326862
% es.EX (V/m) @ t=0.36
-0.44521621526142796
% es.EY (V/m) @ t=0.36
0.033257773593368754
% es.EZ (V/m) @ t=0.36
-1.4216648070824731
% es.tEX (V/m) @ t=0.36
-0.44521621526143207
% es.tEY (V/m) @ t=0.36
0
% es.tEZ (V/m) @ t=0.36
-1.4216648070824771
% es.Ex (V/m) @ t=0.36
-0.44521621526142796
% es.Ey (V/m) @ t=0.36
0.033257773593368754
% es.Ez (V/m) @ t=0.36
-1.4216648070824731
% es.tEx (V/m) @ t=0.36
-0.44521621526143207
% es.tEy (V/m) @ t=0.36
0
% es.tEz (V/m) @ t=0.36
-1.4216648070824771
% V (V) @ t=0.36
0.0075013477489482925
% es.normE (V/m) @ t=0.38
1.506626270151573
% es.EX (V/m) @ t=0.38
-0.44945889903351544
% es.EY (V/m) @ t=0.38
0.03357511196626268
% es.EZ (V/m) @ t=0.38
-1.4352115490500679
% es.tEX (V/m) @ t=0.38
-0.44945889903351954
% es.tEY (V/m) @ t=0.38
0
% es.tEZ (V/m) @ t=0.38
-1.4352115490500834
% es.Ex (V/m) @ t=0.38
-0.44945889903351544
% es.Ey (V/m) @ t=0.38
0.03357511196626268
% es.Ez (V/m) @ t=0.38
-1.4352115490500679
% es.tEx (V/m) @ t=0.38
-0.44945889903351954
% es.tEy (V/m) @ t=0.38
0
% es.tEz (V/m) @ t=0.38
-1.4352115490500834
% V (V) @ t=0.38
0.0075728058217152455
% es.normE (V/m) @ t=0.4
1.5208472032706977
% es.EX (V/m) @ t=0.4
-0.4537015828056127
% es.EY (V/m) @ t=0.4
0.03389245033914973
% es.EZ (V/m) @ t=0.4
-1.448758291017663
% es.tEX (V/m) @ t=0.4
-0.4537015828056141
% es.tEY (V/m) @ t=0.4
0
% es.tEZ (V/m) @ t=0.4
-1.4487582910176764
% es.Ex (V/m) @ t=0.4
-0.4537015828056127
% es.Ey (V/m) @ t=0.4
0.03389245033914973
% es.Ez (V/m) @ t=0.4
-1.448758291017663
% es.tEx (V/m) @ t=0.4
-0.4537015828056141
% es.tEy (V/m) @ t=0.4
0
% es.tEz (V/m) @ t=0.4
-1.4487582910176764
% V (V) @ t=0.4
0.0076442638944821985
% es.normE (V/m) @ t=0.42
1.5350681363900696
% es.EX (V/m) @ t=0.42
-0.45794426657770904
% es.EY (V/m) @ t=0.42
0.03420978871204477
% es.EZ (V/m) @ t=0.42
-1.4623050329852791
% es.tEX (V/m) @ t=0.42
-0.45794426657771226
% es.tEY (V/m) @ t=0.42
0
% es.tEZ (V/m) @ t=0.42
-1.4623050329852916
% es.Ex (V/m) @ t=0.42
-0.45794426657770904
% es.Ey (V/m) @ t=0.42
0.03420978871204477
% es.Ez (V/m) @ t=0.42
-1.4623050329852791
% es.tEx (V/m) @ t=0.42
-0.45794426657771226
% es.tEy (V/m) @ t=0.42
0
% es.tEz (V/m) @ t=0.42
-1.4623050329852916
% V (V) @ t=0.42
0.007715721967249148
% es.normE (V/m) @ t=0.44
1.549289069509641
% es.EX (V/m) @ t=0.44
-0.4621869503497976
% es.EY (V/m) @ t=0.44
0.034527127084937104
% es.EZ (V/m) @ t=0.44
-1.475851774952874
% es.tEX (V/m) @ t=0.44
-0.46218695034979973
% es.tEY (V/m) @ t=0.44
0
% es.tEZ (V/m) @ t=0.44
-1.4758517749528899
% es.Ex (V/m) @ t=0.44
-0.4621869503497976
% es.Ey (V/m) @ t=0.44
0.034527127084937104
% es.Ez (V/m) @ t=0.44
-1.475851774952874
% es.tEx (V/m) @ t=0.44
-0.46218695034979973
% es.tEy (V/m) @ t=0.44
0
% es.tEz (V/m) @ t=0.44
-1.4758517749528899
% V (V) @ t=0.44
0.007787180040016102
% es.normE (V/m) @ t=0.46
1.5635100026294513
% es.EX (V/m) @ t=0.46
-0.4664296341218957
% es.EY (V/m) @ t=0.46
0.034844465457815076
% es.EZ (V/m) @ t=0.46
-1.4893985169204904
% es.tEX (V/m) @ t=0.46
-0.4664296341219014
% es.tEY (V/m) @ t=0.46
0
% es.tEZ (V/m) @ t=0.46
-1.489398516920498
% es.Ex (V/m) @ t=0.46
-0.4664296341218957
% es.Ey (V/m) @ t=0.46
0.034844465457815076
% es.Ez (V/m) @ t=0.46
-1.4893985169204904
% es.tEx (V/m) @ t=0.46
-0.4664296341219014
% es.tEy (V/m) @ t=0.46
0
% es.tEz (V/m) @ t=0.46
-1.489398516920498
% V (V) @ t=0.46
0.007858638112783053
% es.normE (V/m) @ t=0.48
1.5777309357494498
% es.EX (V/m) @ t=0.48
-0.47067231789398756
% es.EY (V/m) @ t=0.48
0.035161803830711005
% es.EZ (V/m) @ t=0.48
-1.5029452588880856
% es.tEX (V/m) @ t=0.48
-0.470672317893996
% es.tEY (V/m) @ t=0.48
0
% es.tEZ (V/m) @ t=0.48
-1.502945258888098
% es.Ex (V/m) @ t=0.48
-0.47067231789398756
% es.Ey (V/m) @ t=0.48
0.035161803830711005
% es.Ez (V/m) @ t=0.48
-1.5029452588880856
% es.tEx (V/m) @ t=0.48
-0.470672317893996
% es.tEy (V/m) @ t=0.48
0
% es.tEz (V/m) @ t=0.48
-1.502945258888098
% V (V) @ t=0.48
0.007930096185550005
% es.normE (V/m) @ t=0.5
1.5919518688696588
% es.EX (V/m) @ t=0.5
-0.4749150016660795
% es.EY (V/m) @ t=0.5
0.035479142203608705
% es.EZ (V/m) @ t=0.5
-1.5164920008556875
% es.tEX (V/m) @ t=0.5
-0.474915001666087
% es.tEY (V/m) @ t=0.5
0
% es.tEZ (V/m) @ t=0.5
-1.5164920008557043
% es.Ex (V/m) @ t=0.5
-0.4749150016660795
% es.Ey (V/m) @ t=0.5
0.035479142203608705
% es.Ez (V/m) @ t=0.5
-1.5164920008556875
% es.tEx (V/m) @ t=0.5
-0.474915001666087
% es.tEy (V/m) @ t=0.5
0
% es.tEz (V/m) @ t=0.5
-1.5164920008557043
% V (V) @ t=0.5
0.008001554258316957
% es.normE (V/m) @ t=0.52
1.6061728019900743
% es.EX (V/m) @ t=0.52
-0.4791576854381725
% es.EY (V/m) @ t=0.52
0.03579648057648484
% es.EZ (V/m) @ t=0.52
-1.5300387428232964
% es.tEX (V/m) @ t=0.52
-0.47915768543817805
% es.tEY (V/m) @ t=0.52
0
% es.tEZ (V/m) @ t=0.52
-1.5300387428233115
% es.Ex (V/m) @ t=0.52
-0.4791576854381725
% es.Ey (V/m) @ t=0.52
0.03579648057648484
% es.Ez (V/m) @ t=0.52
-1.5300387428232964
% es.tEx (V/m) @ t=0.52
-0.47915768543817805
% es.tEy (V/m) @ t=0.52
0
% es.tEz (V/m) @ t=0.52
-1.5300387428233115
% V (V) @ t=0.52
0.008073012331083911
% es.normE (V/m) @ t=0.54
1.620393735110682
% es.EX (V/m) @ t=0.54
-0.4834003692102663
% es.EY (V/m) @ t=0.54
0.03611381894938783
% es.EZ (V/m) @ t=0.54
-1.543585484790905
% es.tEX (V/m) @ t=0.54
-0.48340036921027263
% es.tEY (V/m) @ t=0.54
0
% es.tEZ (V/m) @ t=0.54
-1.5435854847909116
% es.Ex (V/m) @ t=0.54
-0.4834003692102663
% es.Ey (V/m) @ t=0.54
0.03611381894938783
% es.Ez (V/m) @ t=0.54
-1.543585484790905
% es.tEx (V/m) @ t=0.54
-0.48340036921027263
% es.tEy (V/m) @ t=0.54
0
% es.tEz (V/m) @ t=0.54
-1.5435854847909116
% V (V) @ t=0.54
0.00814447040385086
% es.normE (V/m) @ t=0.56
1.6359533352596571
% es.EX (V/m) @ t=0.56
-0.4880419491721999
% es.EY (V/m) @ t=0.56
0.03646028204072016
% es.EZ (V/m) @ t=0.56
-1.5584076282008046
% es.tEX (V/m) @ t=0.56
-0.48804194917220656
% es.tEY (V/m) @ t=0.56
0
% es.tEZ (V/m) @ t=0.56
-1.5584076282008192
% es.Ex (V/m) @ t=0.56
-0.4880419491721999
% es.Ey (V/m) @ t=0.56
0.03646028204072016
% es.Ez (V/m) @ t=0.56
-1.5584076282008046
% es.tEx (V/m) @ t=0.56
-0.48804194917220656
% es.tEy (V/m) @ t=0.56
0
% es.tEz (V/m) @ t=0.56
-1.5584076282008192
% V (V) @ t=0.56
0.008222692116078567
% es.normE (V/m) @ t=0.58
1.6518244977706371
% es.EX (V/m) @ t=0.58
-0.492776368530607
% es.EY (V/m) @ t=0.58
0.036813523640729554
% es.EZ (V/m) @ t=0.58
-1.573526609492844
% es.tEX (V/m) @ t=0.58
-0.49277636853061324
% es.tEY (V/m) @ t=0.58
0
% es.tEZ (V/m) @ t=0.58
-1.5735266094928555
% es.Ex (V/m) @ t=0.58
-0.492776368530607
% es.Ey (V/m) @ t=0.58
0.036813523640729554
% es.Ez (V/m) @ t=0.58
-1.573526609492844
% es.tEx (V/m) @ t=0.58
-0.49277636853061324
% es.tEy (V/m) @ t=0.58
0
% es.tEz (V/m) @ t=0.58
-1.5735266094928555
% V (V) @ t=0.58
0.008302488002794912
% es.normE (V/m) @ t=0.6
1.6676956602818849
% es.EX (V/m) @ t=0.6
-0.4975107878890273
% es.EY (V/m) @ t=0.6
0.037166765240744325
% es.EZ (V/m) @ t=0.6
-1.5886455907848838
% es.tEX (V/m) @ t=0.6
-0.4975107878890306
% es.tEY (V/m) @ t=0.6
0
% es.tEZ (V/m) @ t=0.6
-1.5886455907849077
% es.Ex (V/m) @ t=0.6
-0.4975107878890273
% es.Ey (V/m) @ t=0.6
0.037166765240744325
% es.Ez (V/m) @ t=0.6
-1.5886455907848838
% es.tEx (V/m) @ t=0.6
-0.4975107878890306
% es.tEy (V/m) @ t=0.6
0
% es.tEz (V/m) @ t=0.6
-1.5886455907849077
% V (V) @ t=0.6
0.008382283889511255
% es.normE (V/m) @ t=0.62
1.6835668227934169
% es.EX (V/m) @ t=0.62
-0.5022452072474485
% es.EY (V/m) @ t=0.62
0.03752000684075709
% es.EZ (V/m) @ t=0.62
-1.6037645720769524
% es.tEX (V/m) @ t=0.62
-0.5022452072474515
% es.tEY (V/m) @ t=0.62
0
% es.tEZ (V/m) @ t=0.62
-1.603764572076959
% es.Ex (V/m) @ t=0.62
-0.5022452072474485
% es.Ey (V/m) @ t=0.62
0.03752000684075709
% es.Ez (V/m) @ t=0.62
-1.6037645720769524
% es.tEx (V/m) @ t=0.62
-0.5022452072474515
% es.tEy (V/m) @ t=0.62
0
% es.tEz (V/m) @ t=0.62
-1.603764572076959
% V (V) @ t=0.62
0.008462079776227599
% es.normE (V/m) @ t=0.64
1.6994379853051729
% es.EX (V/m) @ t=0.64
-0.5069796266058592
% es.EY (V/m) @ t=0.64
0.03787324844076851
% es.EZ (V/m) @ t=0.64
-1.6188835533689985
% es.tEX (V/m) @ t=0.64
-0.5069796266058653
% es.tEY (V/m) @ t=0.64
0
% es.tEZ (V/m) @ t=0.64
-1.6188835533690105
% es.Ex (V/m) @ t=0.64
-0.5069796266058592
% es.Ey (V/m) @ t=0.64
0.03787324844076851
% es.Ez (V/m) @ t=0.64
-1.6188835533689985
% es.tEx (V/m) @ t=0.64
-0.5069796266058653
% es.tEy (V/m) @ t=0.64
0
% es.tEz (V/m) @ t=0.64
-1.6188835533690105
% V (V) @ t=0.64
0.008541875662943942
% es.normE (V/m) @ t=0.66
1.7153091478171776
% es.EX (V/m) @ t=0.66
-0.5117140459642866
% es.EY (V/m) @ t=0.66
0.038226490040756185
% es.EZ (V/m) @ t=0.66
-1.6340025346610458
% es.tEX (V/m) @ t=0.66
-0.5117140459642897
% es.tEY (V/m) @ t=0.66
0
% es.tEZ (V/m) @ t=0.66
-1.634002534661069
% es.Ex (V/m) @ t=0.66
-0.5117140459642866
% es.Ey (V/m) @ t=0.66
0.038226490040756185
% es.Ez (V/m) @ t=0.66
-1.6340025346610458
% es.tEx (V/m) @ t=0.66
-0.5117140459642897
% es.tEy (V/m) @ t=0.66
0
% es.tEz (V/m) @ t=0.66
-1.634002534661069
% V (V) @ t=0.66
0.008621671549660285
% es.normE (V/m) @ t=0.68
1.7311803103294268
% es.EX (V/m) @ t=0.68
-0.5164484653227
% es.EY (V/m) @ t=0.68
0.03857973164077801
% es.EZ (V/m) @ t=0.68
-1.649121515953106
% es.tEX (V/m) @ t=0.68
-0.5164484653227
% es.tEY (V/m) @ t=0.68
0
% es.tEZ (V/m) @ t=0.68
-1.6491215159531203
% es.Ex (V/m) @ t=0.68
-0.5164484653227
% es.Ey (V/m) @ t=0.68
0.03857973164077801
% es.Ez (V/m) @ t=0.68
-1.649121515953106
% es.tEx (V/m) @ t=0.68
-0.5164484653227
% es.tEy (V/m) @ t=0.68
0
% es.tEz (V/m) @ t=0.68
-1.6491215159531203
% V (V) @ t=0.68
0.008701467436376628
% es.normE (V/m) @ t=0.7
1.747051472841894
% es.EX (V/m) @ t=0.7
-0.5211828846811203
% es.EY (V/m) @ t=0.7
0.03893297324080188
% es.EZ (V/m) @ t=0.7
-1.6642404972451534
% es.tEX (V/m) @ t=0.7
-0.5211828846811244
% es.tEY (V/m) @ t=0.7
0
% es.tEZ (V/m) @ t=0.7
-1.6642404972451592
% es.Ex (V/m) @ t=0.7
-0.5211828846811203
% es.Ey (V/m) @ t=0.7
0.03893297324080188
% es.Ez (V/m) @ t=0.7
-1.6642404972451534
% es.tEx (V/m) @ t=0.7
-0.5211828846811244
% es.tEy (V/m) @ t=0.7
0
% es.tEz (V/m) @ t=0.7
-1.6642404972451592
% V (V) @ t=0.7
0.008781263323092972
% es.normE (V/m) @ t=0.72
1.7629226353545993
% es.EX (V/m) @ t=0.72
-0.525917304039546
% es.EY (V/m) @ t=0.72
0.03928621484079847
% es.EZ (V/m) @ t=0.72
-1.6793594785372146
% es.tEX (V/m) @ t=0.72
-0.5259173040395524
% es.tEY (V/m) @ t=0.72
0
% es.tEZ (V/m) @ t=0.72
-1.6793594785372248
% es.Ex (V/m) @ t=0.72
-0.525917304039546
% es.Ey (V/m) @ t=0.72
0.03928621484079847
% es.Ez (V/m) @ t=0.72
-1.6793594785372146
% es.tEx (V/m) @ t=0.72
-0.5259173040395524
% es.tEy (V/m) @ t=0.72
0
% es.tEz (V/m) @ t=0.72
-1.6793594785372248
% V (V) @ t=0.72
0.008861059209809315
% es.normE (V/m) @ t=0.74
1.7787937978674964
% es.EX (V/m) @ t=0.74
-0.530651723397954
% es.EY (V/m) @ t=0.74
0.03963945644082052
% es.EZ (V/m) @ t=0.74
-1.694478459829254
% es.tEX (V/m) @ t=0.74
-0.5306517233979591
% es.tEY (V/m) @ t=0.74
0
% es.tEZ (V/m) @ t=0.74
-1.694478459829261
% es.Ex (V/m) @ t=0.74
-0.530651723397954
% es.Ey (V/m) @ t=0.74
0.03963945644082052
% es.Ez (V/m) @ t=0.74
-1.694478459829254
% es.tEx (V/m) @ t=0.74
-0.5306517233979591
% es.tEy (V/m) @ t=0.74
0
% es.tEz (V/m) @ t=0.74
-1.694478459829261
% V (V) @ t=0.74
0.008940855096525658
% es.normE (V/m) @ t=0.76
1.7946649603806213
% es.EX (V/m) @ t=0.76
-0.5353861427563776
% es.EY (V/m) @ t=0.76
0.039992698040826224
% es.EZ (V/m) @ t=0.76
-1.7095974411213084
% es.tEX (V/m) @ t=0.76
-0.5353861427563835
% es.tEY (V/m) @ t=0.76
0
% es.tEZ (V/m) @ t=0.76
-1.7095974411213266
% es.Ex (V/m) @ t=0.76
-0.5353861427563776
% es.Ey (V/m) @ t=0.76
0.039992698040826224
% es.Ez (V/m) @ t=0.76
-1.7095974411213084
% es.tEx (V/m) @ t=0.76
-0.5353861427563835
% es.tEy (V/m) @ t=0.76
0
% es.tEz (V/m) @ t=0.76
-1.7095974411213266
% V (V) @ t=0.76
0.009020650983242003
% es.normE (V/m) @ t=0.78
1.8105361228939385
% es.EX (V/m) @ t=0.78
-0.5401205621147972
% es.EY (V/m) @ t=0.78
0.04034593964083742
% es.EZ (V/m) @ t=0.78
-1.7247164224133478
% es.tEX (V/m) @ t=0.78
-0.5401205621148009
% es.tEY (V/m) @ t=0.78
0
% es.tEZ (V/m) @ t=0.78
-1.7247164224133655
% es.Ex (V/m) @ t=0.78
-0.5401205621147972
% es.Ey (V/m) @ t=0.78
0.04034593964083742
% es.Ez (V/m) @ t=0.78
-1.7247164224133478
% es.tEx (V/m) @ t=0.78
-0.5401205621148009
% es.tEy (V/m) @ t=0.78
0
% es.tEz (V/m) @ t=0.78
-1.7247164224133655
% V (V) @ t=0.78
0.009100446869958347
% es.normE (V/m) @ t=0.8
1.826407285407476
% es.EX (V/m) @ t=0.8
-0.5448549814732158
% es.EY (V/m) @ t=0.8
0.04069918124084508
% es.EZ (V/m) @ t=0.8
-1.739835403705409
% es.tEX (V/m) @ t=0.8
-0.5448549814732182
% es.tEY (V/m) @ t=0.8
0
% es.tEZ (V/m) @ t=0.8
-1.739835403705424
% es.Ex (V/m) @ t=0.8
-0.5448549814732158
% es.Ey (V/m) @ t=0.8
0.04069918124084508
% es.Ez (V/m) @ t=0.8
-1.739835403705409
% es.tEx (V/m) @ t=0.8
-0.5448549814732182
% es.tEy (V/m) @ t=0.8
0
% es.tEz (V/m) @ t=0.8
-1.739835403705424
% V (V) @ t=0.8
0.00918024275667469
% es.normE (V/m) @ t=0.82
1.842693584886847
% es.EX (V/m) @ t=0.82
-0.5497131895866952
% es.EY (V/m) @ t=0.82
0.041061588205717425
% es.EZ (V/m) @ t=0.82
-1.7553498671080874
% es.tEX (V/m) @ t=0.82
-0.5497131895866971
% es.tEY (V/m) @ t=0.82
0
% es.tEZ (V/m) @ t=0.82
-1.7553498671080998
% es.Ex (V/m) @ t=0.82
-0.5497131895866952
% es.Ey (V/m) @ t=0.82
0.041061588205717425
% es.Ez (V/m) @ t=0.82
-1.7553498671080874
% es.tEx (V/m) @ t=0.82
-0.5497131895866971
% es.tEy (V/m) @ t=0.82
0
% es.tEz (V/m) @ t=0.82
-1.7553498671080998
% V (V) @ t=0.82
0.009262129518469279
% es.normE (V/m) @ t=0.84
1.8604366101806669
% es.EX (V/m) @ t=0.84
-0.5550057754836475
% es.EY (V/m) @ t=0.84
0.041456156661098725
% es.EZ (V/m) @ t=0.84
-1.7722520869554614
% es.tEX (V/m) @ t=0.84
-0.5550057754836537
% es.tEY (V/m) @ t=0.84
0
% es.tEZ (V/m) @ t=0.84
-1.7722520869554739
% es.Ex (V/m) @ t=0.84
-0.5550057754836475
% es.Ey (V/m) @ t=0.84
0.041456156661098725
% es.Ez (V/m) @ t=0.84
-1.7722520869554614
% es.tEx (V/m) @ t=0.84
-0.5550057754836537
% es.tEy (V/m) @ t=0.84
0
% es.tEz (V/m) @ t=0.84
-1.7722520869554739
% V (V) @ t=0.84
0.00935135321229413
% es.normE (V/m) @ t=0.86
1.8781796354751594
% es.EX (V/m) @ t=0.86
-0.5602983613806015
% es.EY (V/m) @ t=0.86
0.04185072511649754
% es.EZ (V/m) @ t=0.86
-1.7891543068028346
% es.tEX (V/m) @ t=0.86
-0.5602983613806103
% es.tEY (V/m) @ t=0.86
0
% es.tEZ (V/m) @ t=0.86
-1.7891543068028488
% es.Ex (V/m) @ t=0.86
-0.5602983613806015
% es.Ey (V/m) @ t=0.86
0.04185072511649754
% es.Ez (V/m) @ t=0.86
-1.7891543068028346
% es.tEx (V/m) @ t=0.86
-0.5602983613806103
% es.tEy (V/m) @ t=0.86
0
% es.tEz (V/m) @ t=0.86
-1.7891543068028488
% V (V) @ t=0.86
0.009440576906118985
% es.normE (V/m) @ t=0.88
1.8959226607703035
% es.EX (V/m) @ t=0.88
-0.5655909472775538
% es.EY (V/m) @ t=0.88
0.04224529357187838
% es.EZ (V/m) @ t=0.88
-1.8060565266502078
% es.tEX (V/m) @ t=0.88
-0.5655909472775598
% es.tEY (V/m) @ t=0.88
0
% es.tEZ (V/m) @ t=0.88
-1.8060565266502238
% es.Ex (V/m) @ t=0.88
-0.5655909472775538
% es.Ey (V/m) @ t=0.88
0.04224529357187838
% es.Ez (V/m) @ t=0.88
-1.8060565266502078
% es.tEx (V/m) @ t=0.88
-0.5655909472775598
% es.tEy (V/m) @ t=0.88
0
% es.tEz (V/m) @ t=0.88
-1.8060565266502238
% V (V) @ t=0.88
0.009529800599943843
% es.normE (V/m) @ t=0.9
1.9136656860660834
% es.EX (V/m) @ t=0.9
-0.5708835331745068
% es.EY (V/m) @ t=0.9
0.04263986202726325
% es.EZ (V/m) @ t=0.9
-1.8229587464975818
% es.tEX (V/m) @ t=0.9
-0.5708835331745128
% es.tEY (V/m) @ t=0.9
0
% es.tEZ (V/m) @ t=0.9
-1.822958746497605
% es.Ex (V/m) @ t=0.9
-0.5708835331745068
% es.Ey (V/m) @ t=0.9
0.04263986202726325
% es.Ez (V/m) @ t=0.9
-1.8229587464975818
% es.tEx (V/m) @ t=0.9
-0.5708835331745128
% es.tEy (V/m) @ t=0.9
0
% es.tEz (V/m) @ t=0.9
-1.822958746497605
% V (V) @ t=0.9
0.009619024293768695
% es.normE (V/m) @ t=0.92
1.9314087113624874
% es.EX (V/m) @ t=0.92
-0.5761761190714608
% es.EY (V/m) @ t=0.92
0.04303443048264767
% es.EZ (V/m) @ t=0.92
-1.8398609663449625
% es.tEX (V/m) @ t=0.92
-0.5761761190714623
% es.tEY (V/m) @ t=0.92
0
% es.tEZ (V/m) @ t=0.92
-1.8398609663449728
% es.Ex (V/m) @ t=0.92
-0.5761761190714608
% es.Ey (V/m) @ t=0.92
0.04303443048264767
% es.Ez (V/m) @ t=0.92
-1.8398609663449625
% es.tEx (V/m) @ t=0.92
-0.5761761190714623
% es.tEy (V/m) @ t=0.92
0
% es.tEz (V/m) @ t=0.92
-1.8398609663449728
% V (V) @ t=0.92
0.00970824798759355
% es.normE (V/m) @ t=0.94
1.9491517366594806
% es.EX (V/m) @ t=0.94
-0.581468704968406
% es.EY (V/m) @ t=0.94
0.04342899893804647
% es.EZ (V/m) @ t=0.94
-1.8567631861923357
% es.tEX (V/m) @ t=0.94
-0.5814687049684117
% es.tEY (V/m) @ t=0.94
0
% es.tEZ (V/m) @ t=0.94
-1.8567631861923548
% es.Ex (V/m) @ t=0.94
-0.581468704968406
% es.Ey (V/m) @ t=0.94
0.04342899893804647
% es.Ez (V/m) @ t=0.94
-1.8567631861923357
% es.tEx (V/m) @ t=0.94
-0.5814687049684117
% es.tEy (V/m) @ t=0.94
0
% es.tEz (V/m) @ t=0.94
-1.8567631861923548
% V (V) @ t=0.94
0.009797471681418406
% es.normE (V/m) @ t=0.96
1.9668947619570631
% es.EX (V/m) @ t=0.96
-0.5867612908653661
% es.EY (V/m) @ t=0.96
0.04382356739342068
% es.EZ (V/m) @ t=0.96
-1.8736654060397098
% es.tEX (V/m) @ t=0.96
-0.5867612908653683
% es.tEY (V/m) @ t=0.96
0
% es.tEZ (V/m) @ t=0.96
-1.8736654060397289
% es.Ex (V/m) @ t=0.96
-0.5867612908653661
% es.Ey (V/m) @ t=0.96
0.04382356739342068
% es.Ez (V/m) @ t=0.96
-1.8736654060397098
% es.tEx (V/m) @ t=0.96
-0.5867612908653683
% es.tEy (V/m) @ t=0.96
0
% es.tEz (V/m) @ t=0.96
-1.8736654060397289
% V (V) @ t=0.96
0.009886695375243261
% es.normE (V/m) @ t=0.98
1.9846377872552041
% es.EX (V/m) @ t=0.98
-0.5920538767623167
% es.EY (V/m) @ t=0.98
0.04421813584880352
% es.EZ (V/m) @ t=0.98
-1.8905676258870758
% es.tEX (V/m) @ t=0.98
-0.5920538767623214
% es.tEY (V/m) @ t=0.98
0
% es.tEZ (V/m) @ t=0.98
-1.8905676258870896
% es.Ex (V/m) @ t=0.98
-0.5920538767623167
% es.Ey (V/m) @ t=0.98
0.04421813584880352
% es.Ez (V/m) @ t=0.98
-1.8905676258870758
% es.tEx (V/m) @ t=0.98
-0.5920538767623214
% es.tEy (V/m) @ t=0.98
0
% es.tEz (V/m) @ t=0.98
-1.8905676258870896
% V (V) @ t=0.98
0.009975919069068116
% es.normE (V/m) @ t=1
2.002380812553913
% es.EX (V/m) @ t=1
-0.5973464626592688
% es.EY (V/m) @ t=1
0.04461270430420215
% es.EZ (V/m) @ t=1
-1.907469845734457
% es.tEX (V/m) @ t=1
-0.5973464626592744
% es.tEY (V/m) @ t=1
0
% es.tEZ (V/m) @ t=1
-1.9074698457344859
% es.Ex (V/m) @ t=1
-0.5973464626592688
% es.Ey (V/m) @ t=1
0.04461270430420215
% es.Ez (V/m) @ t=1
-1.907469845734457
% es.tEx (V/m) @ t=1
-0.5973464626592744
% es.tEy (V/m) @ t=1
0
% es.tEz (V/m) @ t=1
-1.9074698457344859
% V (V) @ t=1
0.01006514276289297
% es.normE (V/m) @ t=1.02
2.020123837853161
% es.EX (V/m) @ t=1.02
-0.6026390485562272
% es.EY (V/m) @ t=1.02
0.045007272759585215
% es.EZ (V/m) @ t=1.02
-1.9243720655818377
% es.tEX (V/m) @ t=1.02
-0.602639048556231
% es.tEY (V/m) @ t=1.02
0
% es.tEZ (V/m) @ t=1.02
-1.9243720655818528
% es.Ex (V/m) @ t=1.02
-0.6026390485562272
% es.Ey (V/m) @ t=1.02
0.045007272759585215
% es.Ez (V/m) @ t=1.02
-1.9243720655818377
% es.tEx (V/m) @ t=1.02