% Model:              1 neuron.mph
% Version:            COMSOL 6.0.0.405
% Date:               Mar 16 2023, 09:55
% Dimension:          0
% Nodes:              14017
% Expressions:        14017
% Description:        Electric field norm, Electric field, X component, Electric field, Y component, Electric field, Z component, Tangential electric field, X component, Tangential electric field, Y component, Tangential electric field, Z component, Electric field, x component, Electric field, y component, Electric field, z component, Tangential electric field, x component, Tangential electric field, y component, Tangential electric field, z component, Electric potential
% Length unit:        mm
% x
1
% y
12.2
% z
1.33
% es.normE (V/m) @ t=0
1.4855079038769063
% es.EX (V/m) @ t=0
1.3728040037129858
% es.EY (V/m) @ t=0
0.08644005643639396
% es.EZ (V/m) @ t=0
0.5549726497790473
% es.tEX (V/m) @ t=0
1.372804003712985
% es.tEY (V/m) @ t=0
0
% es.tEZ (V/m) @ t=0
0.554972649779049
% es.Ex (V/m) @ t=0
1.3728040037129858
% es.Ey (V/m) @ t=0
0.08644005643639396
% es.Ez (V/m) @ t=0
0.5549726497790473
% es.tEx (V/m) @ t=0
1.372804003712985
% es.tEy (V/m) @ t=0
0
% es.tEz (V/m) @ t=0
0.554972649779049
% V (V) @ t=0
0.007409956507318735
% es.normE (V/m) @ t=0.02
1.2830589958917675
% es.EX (V/m) @ t=0.02
1.1857146771279292
% es.EY (V/m) @ t=0.02
0.07465977987660122
% es.EZ (V/m) @ t=0.02
0.47933952700485305
% es.tEX (V/m) @ t=0.02
1.1857146771279279
% es.tEY (V/m) @ t=0.02
0
% es.tEZ (V/m) @ t=0.02
0.4793395270048575
% es.Ex (V/m) @ t=0.02
1.1857146771279292
% es.Ey (V/m) @ t=0.02
0.07465977987660122
% es.Ez (V/m) @ t=0.02
0.47933952700485305
% es.tEx (V/m) @ t=0.02
1.1857146771279279
% es.tEy (V/m) @ t=0.02
0
% es.tEz (V/m) @ t=0.02
0.4793395270048575
% V (V) @ t=0.02
0.006400108090772308
% es.normE (V/m) @ t=0.04
1.294858036943195
% es.EX (V/m) @ t=0.04
1.1966185359704387
% es.EY (V/m) @ t=0.04
0.07534635404067891
% es.EZ (V/m) @ t=0.04
0.4837475488352614
% es.tEX (V/m) @ t=0.04
1.1966185359704395
% es.tEY (V/m) @ t=0.04
0
% es.tEZ (V/m) @ t=0.04
0.48374754883526094
% es.Ex (V/m) @ t=0.04
1.1966185359704387
% es.Ey (V/m) @ t=0.04
0.07534635404067891
% es.Ez (V/m) @ t=0.04
0.4837475488352614
% es.tEx (V/m) @ t=0.04
1.1966185359704395
% es.tEy (V/m) @ t=0.04
0
% es.tEz (V/m) @ t=0.04
0.48374754883526094
% V (V) @ t=0.04
0.006458963471386257
% es.normE (V/m) @ t=0.06
1.3067631894527194
% es.EX (V/m) @ t=0.06
1.2076204580740129
% es.EY (V/m) @ t=0.06
0.0760391011162968
% es.EZ (V/m) @ t=0.06
0.4881952066056856
% es.tEX (V/m) @ t=0.06
1.2076204580740102
% es.tEY (V/m) @ t=0.06
0
% es.tEZ (V/m) @ t=0.06
0.4881952066056834
% es.Ex (V/m) @ t=0.06
1.2076204580740129
% es.Ey (V/m) @ t=0.06
0.0760391011162968
% es.Ez (V/m) @ t=0.06
0.4881952066056856
% es.tEx (V/m) @ t=0.06
1.2076204580740102
% es.tEy (V/m) @ t=0.06
0
% es.tEz (V/m) @ t=0.06
0.4881952066056834
% V (V) @ t=0.06
0.006518348407581595
% es.normE (V/m) @ t=0.08
1.3188506998685794
% es.EX (V/m) @ t=0.08
1.2187909005653
% es.EY (V/m) @ t=0.08
0.0767424608369906
% es.EZ (V/m) @ t=0.08
0.49271099765065207
% es.tEX (V/m) @ t=0.08
1.2187909005653026
% es.tEY (V/m) @ t=0.08
0
% es.tEZ (V/m) @ t=0.08
0.49271099765065385
% es.Ex (V/m) @ t=0.08
1.2187909005653
% es.Ey (V/m) @ t=0.08
0.0767424608369906
% es.Ez (V/m) @ t=0.08
0.49271099765065207
% es.tEx (V/m) @ t=0.08
1.2187909005653026
% es.tEy (V/m) @ t=0.08
0
% es.tEz (V/m) @ t=0.08
0.49271099765065385
% V (V) @ t=0.08
0.006578642738367118
% es.normE (V/m) @ t=0.1
1.3310635302358267
% es.EX (V/m) @ t=0.1
1.2300771535921435
% es.EY (V/m) @ t=0.1
0.07745311377677988
% es.EZ (V/m) @ t=0.1
0.49727361122624636
% es.tEX (V/m) @ t=0.1
1.2300771535921449
% es.tEY (V/m) @ t=0.1
0
% es.tEZ (V/m) @ t=0.1
0.4972736112262468
% es.Ex (V/m) @ t=0.1
1.2300771535921435
% es.Ey (V/m) @ t=0.1
0.07745311377677988
% es.Ez (V/m) @ t=0.1
0.49727361122624636
% es.tEx (V/m) @ t=0.1
1.2300771535921449
% es.tEy (V/m) @ t=0.1
0
% es.tEz (V/m) @ t=0.1
0.4972736112262468
% V (V) @ t=0.1
0.006639562023058433
% es.normE (V/m) @ t=0.12
1.343276360603063
% es.EX (V/m) @ t=0.12
1.241363406618973
% es.EY (V/m) @ t=0.12
0.07816376671656011
% es.EZ (V/m) @ t=0.12
0.5018362248018491
% es.tEX (V/m) @ t=0.12
1.241363406618973
% es.tEY (V/m) @ t=0.12
0
% es.tEZ (V/m) @ t=0.12
0.501836224801846
% es.Ex (V/m) @ t=0.12
1.241363406618973
% es.Ey (V/m) @ t=0.12
0.07816376671656011
% es.Ez (V/m) @ t=0.12
0.5018362248018491
% es.tEx (V/m) @ t=0.12
1.241363406618973
% es.tEy (V/m) @ t=0.12
0
% es.tEz (V/m) @ t=0.12
0.501836224801846
% V (V) @ t=0.12
0.006700481307749746
% es.normE (V/m) @ t=0.14
1.355616383032387
% es.EX (V/m) @ t=0.14
1.252767202011145
% es.EY (V/m) @ t=0.14
0.07888182066289823
% es.EZ (V/m) @ t=0.14
0.5064463555931935
% es.tEX (V/m) @ t=0.14
1.252767202011145
% es.tEY (V/m) @ t=0.14
0
% es.tEZ (V/m) @ t=0.14
0.5064463555931944
% es.Ex (V/m) @ t=0.14
1.252767202011145
% es.Ey (V/m) @ t=0.14
0.07888182066289823
% es.Ez (V/m) @ t=0.14
0.5064463555931935
% es.tEx (V/m) @ t=0.14
1.252767202011145
% es.tEy (V/m) @ t=0.14
0
% es.tEz (V/m) @ t=0.14
0.5064463555931944
% V (V) @ t=0.14
0.0067620350720041245
% es.normE (V/m) @ t=0.16
1.3684803609104672
% es.EX (V/m) @ t=0.16
1.2646552018557506
% es.EY (V/m) @ t=0.16
0.07963036234291476
% es.EZ (V/m) @ t=0.16
0.5112522289780614
% es.tEX (V/m) @ t=0.16
1.264655201855751
% es.tEY (V/m) @ t=0.16
0
% es.tEZ (V/m) @ t=0.16
0.5112522289780612
% es.Ex (V/m) @ t=0.16
1.2646552018557506
% es.Ey (V/m) @ t=0.16
0.07963036234291476
% es.Ez (V/m) @ t=0.16
0.5112522289780614
% es.tEx (V/m) @ t=0.16
1.264655201855751
% es.tEy (V/m) @ t=0.16
0
% es.tEz (V/m) @ t=0.16
0.5112522289780612
% V (V) @ t=0.16
0.006826202513706298
% es.normE (V/m) @ t=0.18
1.3813443387885478
% es.EX (V/m) @ t=0.18
1.2765432017003562
% es.EY (V/m) @ t=0.18
0.08037890402291703
% es.EZ (V/m) @ t=0.18
0.5160581023629343
% es.tEX (V/m) @ t=0.18
1.2765432017003508
% es.tEY (V/m) @ t=0.18
0
% es.tEZ (V/m) @ t=0.18
0.5160581023629383
% es.Ex (V/m) @ t=0.18
1.2765432017003562
% es.Ey (V/m) @ t=0.18
0.08037890402291703
% es.Ez (V/m) @ t=0.18
0.5160581023629343
% es.tEx (V/m) @ t=0.18
1.2765432017003508
% es.tEy (V/m) @ t=0.18
0
% es.tEz (V/m) @ t=0.18
0.5160581023629383
% V (V) @ t=0.18
0.0068903699554084714
% es.normE (V/m) @ t=0.2
1.394208316666631
% es.EX (V/m) @ t=0.2
1.2884312015449613
% es.EY (V/m) @ t=0.2
0.08112744570293806
% es.EZ (V/m) @ t=0.2
0.5208639757478104
% es.tEX (V/m) @ t=0.2
1.2884312015449613
% es.tEY (V/m) @ t=0.2
0
% es.tEZ (V/m) @ t=0.2
0.5208639757478073
% es.Ex (V/m) @ t=0.2
1.2884312015449613
% es.Ey (V/m) @ t=0.2
0.08112744570293806
% es.Ez (V/m) @ t=0.2
0.5208639757478104
% es.tEx (V/m) @ t=0.2
1.2884312015449613
% es.tEy (V/m) @ t=0.2
0
% es.tEz (V/m) @ t=0.2
0.5208639757478073
% V (V) @ t=0.2
0.006954537397110646
% es.normE (V/m) @ t=0.22
1.4070722945447076
% es.EX (V/m) @ t=0.22
1.3003192013895628
% es.EY (V/m) @ t=0.22
0.08187598738294927
% es.EZ (V/m) @ t=0.22
0.525669849132679
% es.tEX (V/m) @ t=0.22
1.30031920138957
% es.tEY (V/m) @ t=0.22
0
% es.tEZ (V/m) @ t=0.22
0.525669849132679
% es.Ex (V/m) @ t=0.22
1.3003192013895628
% es.Ey (V/m) @ t=0.22
0.08187598738294927
% es.Ez (V/m) @ t=0.22
0.525669849132679
% es.tEx (V/m) @ t=0.22
1.30031920138957
% es.tEy (V/m) @ t=0.22
0
% es.tEz (V/m) @ t=0.22
0.525669849132679
% V (V) @ t=0.22
0.007018704838812819
% es.normE (V/m) @ t=0.24
1.419936272422786
% es.EX (V/m) @ t=0.24
1.3122072012341643
% es.EY (V/m) @ t=0.24
0.0826245290629577
% es.EZ (V/m) @ t=0.24
0.5304757225175543
% es.tEX (V/m) @ t=0.24
1.3122072012341635
% es.tEY (V/m) @ t=0.24
0
% es.tEZ (V/m) @ t=0.24
0.5304757225175538
% es.Ex (V/m) @ t=0.24
1.3122072012341643
% es.Ey (V/m) @ t=0.24
0.0826245290629577
% es.Ez (V/m) @ t=0.24
0.5304757225175543
% es.tEx (V/m) @ t=0.24
1.3122072012341635
% es.tEy (V/m) @ t=0.24
0
% es.tEz (V/m) @ t=0.24
0.5304757225175538
% V (V) @ t=0.24
0.00708287228051499
% es.normE (V/m) @ t=0.26
1.4328002503008688
% es.EX (V/m) @ t=0.26
1.3240952010787739
% es.EY (V/m) @ t=0.26
0.0833730707429689
% es.EZ (V/m) @ t=0.26
0.5352815959024189
% es.tEX (V/m) @ t=0.26
1.324095201078773
% es.tEY (V/m) @ t=0.26
0
% es.tEZ (V/m) @ t=0.26
0.5352815959024175
% es.Ex (V/m) @ t=0.26
1.3240952010787739
% es.Ey (V/m) @ t=0.26
0.0833730707429689
% es.Ez (V/m) @ t=0.26
0.5352815959024189
% es.tEx (V/m) @ t=0.26
1.324095201078773
% es.tEy (V/m) @ t=0.26
0
% es.tEz (V/m) @ t=0.26
0.5352815959024175
% V (V) @ t=0.26
0.0071470397222171645
% es.normE (V/m) @ t=0.28
1.446249934750755
% es.EX (V/m) @ t=0.28
1.3365244124853506
% es.EY (V/m) @ t=0.28
0.0841557320413781
% es.EZ (V/m) @ t=0.28
0.540306440336666
% es.tEX (V/m) @ t=0.28
1.3365244124853497
% es.tEY (V/m) @ t=0.28
0
% es.tEZ (V/m) @ t=0.28
0.540306440336666
% es.Ex (V/m) @ t=0.28
1.3365244124853506
% es.Ey (V/m) @ t=0.28
0.0841557320413781
% es.Ez (V/m) @ t=0.28
0.540306440336666
% es.tEx (V/m) @ t=0.28
1.3365244124853497
% es.tEy (V/m) @ t=0.28
0
% es.tEz (V/m) @ t=0.28
0.540306440336666
% V (V) @ t=0.28
0.007214122575327008
% es.normE (V/m) @ t=0.3
1.4605758994862983
% es.EX (V/m) @ t=0.3
1.3497633348374496
% es.EY (V/m) @ t=0.3
0.08498943997369723
% es.EZ (V/m) @ t=0.3
0.5456588891088066
% es.tEX (V/m) @ t=0.3
1.3497633348374487
% es.tEY (V/m) @ t=0.3
0
% es.tEZ (V/m) @ t=0.3
0.5456588891088048
% es.Ex (V/m) @ t=0.3
1.3497633348374496
% es.Ey (V/m) @ t=0.3
0.08498943997369723
% es.Ez (V/m) @ t=0.3
0.5456588891088066
% es.tEx (V/m) @ t=0.3
1.3497633348374487
% es.tEy (V/m) @ t=0.3
0
% es.tEz (V/m) @ t=0.3
0.5456588891088048
% V (V) @ t=0.3
0.007285567198756187
% es.normE (V/m) @ t=0.32
1.4749018642220215
% es.EX (V/m) @ t=0.32
1.3630022571895406
% es.EY (V/m) @ t=0.32
0.0858231479060173
% es.EZ (V/m) @ t=0.32
0.5510113378809383
% es.tEX (V/m) @ t=0.32
1.3630022571895397
% es.tEY (V/m) @ t=0.32
0
% es.tEZ (V/m) @ t=0.32
0.55101133788094
% es.Ex (V/m) @ t=0.32
1.3630022571895406
% es.Ey (V/m) @ t=0.32
0.0858231479060173
% es.Ez (V/m) @ t=0.32
0.5510113378809383
% es.tEx (V/m) @ t=0.32
1.3630022571895397
% es.tEy (V/m) @ t=0.32
0
% es.tEz (V/m) @ t=0.32
0.55101133788094
% V (V) @ t=0.32
0.007357011822185364
% es.normE (V/m) @ t=0.34
1.4892278289579401
% es.EX (V/m) @ t=0.34
1.3762411795416343
% es.EY (V/m) @ t=0.34
0.08665685583833915
% es.EZ (V/m) @ t=0.34
0.5563637866530895
% es.tEX (V/m) @ t=0.34
1.3762411795416325
% es.tEY (V/m) @ t=0.34
0
% es.tEZ (V/m) @ t=0.34
0.5563637866530895
% es.Ex (V/m) @ t=0.34
1.3762411795416343
% es.Ey (V/m) @ t=0.34
0.08665685583833915
% es.Ez (V/m) @ t=0.34
0.5563637866530895
% es.tEx (V/m) @ t=0.34
1.3762411795416325
% es.tEy (V/m) @ t=0.34
0
% es.tEz (V/m) @ t=0.34
0.5563637866530895
% V (V) @ t=0.34
0.007428456445614542
% es.normE (V/m) @ t=0.36
1.5035537936940306
% es.EX (V/m) @ t=0.36
1.3894801018937253
% es.EY (V/m) @ t=0.36
0.08749056377066289
% es.EZ (V/m) @ t=0.36
0.5617162354252248
% es.tEX (V/m) @ t=0.36
1.389480101893727
% es.tEY (V/m) @ t=0.36
0
% es.tEZ (V/m) @ t=0.36
0.5617162354252248
% es.Ex (V/m) @ t=0.36
1.3894801018937253
% es.Ey (V/m) @ t=0.36
0.08749056377066289
% es.Ez (V/m) @ t=0.36
0.5617162354252248
% es.tEx (V/m) @ t=0.36
1.389480101893727
% es.tEy (V/m) @ t=0.36
0
% es.tEz (V/m) @ t=0.36
0.5617162354252248
% V (V) @ t=0.36
0.007499901069043719
% es.normE (V/m) @ t=0.38
1.5178797584303134
% es.EX (V/m) @ t=0.38
1.4027190242458278
% es.EY (V/m) @ t=0.38
0.0883242717029864
% es.EZ (V/m) @ t=0.38
0.5670686841973787
% es.tEX (V/m) @ t=0.38
1.402719024245826
% es.tEY (V/m) @ t=0.38
0
% es.tEZ (V/m) @ t=0.38
0.5670686841973795
% es.Ex (V/m) @ t=0.38
1.4027190242458278
% es.Ey (V/m) @ t=0.38
0.0883242717029864
% es.Ez (V/m) @ t=0.38
0.5670686841973787
% es.tEx (V/m) @ t=0.38
1.402719024245826
% es.tEy (V/m) @ t=0.38
0
% es.tEz (V/m) @ t=0.38
0.5670686841973795
% V (V) @ t=0.38
0.007571345692472897
% es.normE (V/m) @ t=0.4
1.5322057231667512
% es.EX (V/m) @ t=0.4
1.4159579465979233
% es.EY (V/m) @ t=0.4
0.08915797963529937
% es.EZ (V/m) @ t=0.4
0.5724211329695104
% es.tEX (V/m) @ t=0.4
1.4159579465979215
% es.tEY (V/m) @ t=0.4
0
% es.tEZ (V/m) @ t=0.4
0.5724211329695112
% es.Ex (V/m) @ t=0.4
1.4159579465979233
% es.Ey (V/m) @ t=0.4
0.08915797963529937
% es.Ez (V/m) @ t=0.4
0.5724211329695104
% es.tEx (V/m) @ t=0.4
1.4159579465979215
% es.tEy (V/m) @ t=0.4
0
% es.tEz (V/m) @ t=0.4
0.5724211329695112
% V (V) @ t=0.4
0.0076427903159020745
% es.normE (V/m) @ t=0.42
1.546531687903352
% es.EX (V/m) @ t=0.42
1.4291968689500107
% es.EY (V/m) @ t=0.42
0.08999168756761866
% es.EZ (V/m) @ t=0.42
0.5777735817416567
% es.tEX (V/m) @ t=0.42
1.4291968689500107
% es.tEY (V/m) @ t=0.42
0
% es.tEZ (V/m) @ t=0.42
0.5777735817416576
% es.Ex (V/m) @ t=0.42
1.4291968689500107
% es.Ey (V/m) @ t=0.42
0.08999168756761866
% es.Ez (V/m) @ t=0.42
0.5777735817416567
% es.tEx (V/m) @ t=0.42
1.4291968689500107
% es.tEy (V/m) @ t=0.42
0
% es.tEz (V/m) @ t=0.42
0.5777735817416576
% V (V) @ t=0.42
0.007714234939331252
% es.normE (V/m) @ t=0.44
1.5608576526401272
% es.EX (V/m) @ t=0.44
1.4424357913021169
% es.EY (V/m) @ t=0.44
0.09082539549993873
% es.EZ (V/m) @ t=0.44
0.5831260305137942
% es.tEX (V/m) @ t=0.44
1.4424357913021195
% es.tEY (V/m) @ t=0.44
0
% es.tEZ (V/m) @ t=0.44
0.5831260305137942
% es.Ex (V/m) @ t=0.44
1.4424357913021169
% es.Ey (V/m) @ t=0.44
0.09082539549993873
% es.Ez (V/m) @ t=0.44
0.5831260305137942
% es.tEx (V/m) @ t=0.44
1.4424357913021195
% es.tEy (V/m) @ t=0.44
0
% es.tEz (V/m) @ t=0.44
0.5831260305137942
% V (V) @ t=0.44
0.007785679562760431
% es.normE (V/m) @ t=0.46
1.5751836173770597
% es.EX (V/m) @ t=0.46
1.4556747136542154
% es.EY (V/m) @ t=0.46
0.09165910343226408
% es.EZ (V/m) @ t=0.46
0.5884784792859499
% es.tEX (V/m) @ t=0.46
1.455674713654215
% es.tEY (V/m) @ t=0.46
0
% es.tEZ (V/m) @ t=0.46
0.588478479285949
% es.Ex (V/m) @ t=0.46
1.4556747136542154
% es.Ey (V/m) @ t=0.46
0.09165910343226408
% es.Ez (V/m) @ t=0.46
0.5884784792859499
% es.tEx (V/m) @ t=0.46
1.455674713654215
% es.tEy (V/m) @ t=0.46
0
% es.tEz (V/m) @ t=0.46
0.588478479285949
% V (V) @ t=0.46
0.007857124186189609
% es.normE (V/m) @ t=0.48
1.5895095821141247
% es.EX (V/m) @ t=0.48
1.4689136360063006
% es.EY (V/m) @ t=0.48
0.09249281136458593
% es.EZ (V/m) @ t=0.48
0.5938309280580851
% es.tEX (V/m) @ t=0.48
1.4689136360063006
% es.tEY (V/m) @ t=0.48
0
% es.tEZ (V/m) @ t=0.48
0.5938309280580842
% es.Ex (V/m) @ t=0.48
1.4689136360063006
% es.Ey (V/m) @ t=0.48
0.09249281136458593
% es.Ez (V/m) @ t=0.48
0.5938309280580851
% es.tEx (V/m) @ t=0.48
1.4689136360063006
% es.tEy (V/m) @ t=0.48
0
% es.tEz (V/m) @ t=0.48
0.5938309280580842
% V (V) @ t=0.48
0.007928568809618786
% es.normE (V/m) @ t=0.5
1.6038355468513452
% es.EX (V/m) @ t=0.5
1.4821525583583952
% es.EY (V/m) @ t=0.5
0.09332651929689989
% es.EZ (V/m) @ t=0.5
0.5991833768302222
% es.tEX (V/m) @ t=0.5
1.4821525583583952
% es.tEY (V/m) @ t=0.5
0
% es.tEZ (V/m) @ t=0.5
0.599183376830223
% es.Ex (V/m) @ t=0.5
1.4821525583583952
% es.Ey (V/m) @ t=0.5
0.09332651929689989
% es.Ez (V/m) @ t=0.5
0.5991833768302222
% es.tEx (V/m) @ t=0.5
1.4821525583583952
% es.tEy (V/m) @ t=0.5
0
% es.tEz (V/m) @ t=0.5
0.599183376830223
% V (V) @ t=0.5
0.008000013433047966
% es.normE (V/m) @ t=0.52
1.6181615115887178
% es.EX (V/m) @ t=0.52
1.4953914807104915
% es.EY (V/m) @ t=0.52
0.09416022722921474
% es.EZ (V/m) @ t=0.52
0.6045358256023738
% es.tEX (V/m) @ t=0.52
1.4953914807104924
% es.tEY (V/m) @ t=0.52
0
% es.tEZ (V/m) @ t=0.52
0.604535825602373
% es.Ex (V/m) @ t=0.52
1.4953914807104915
% es.Ey (V/m) @ t=0.52
0.09416022722921474
% es.Ez (V/m) @ t=0.52
0.6045358256023738
% es.tEx (V/m) @ t=0.52
1.4953914807104924
% es.tEy (V/m) @ t=0.52
0
% es.tEz (V/m) @ t=0.52
0.604535825602373
% V (V) @ t=0.52
0.008071458056477143
% es.normE (V/m) @ t=0.54
1.632487476326229
% es.EX (V/m) @ t=0.54
1.5086304030625879
% es.EY (V/m) @ t=0.54
0.09499393516154175
% es.EZ (V/m) @ t=0.54
0.6098882743745184
% es.tEX (V/m) @ t=0.54
1.5086304030625906
% es.tEY (V/m) @ t=0.54
0
% es.tEZ (V/m) @ t=0.54
0.6098882743745166
% es.Ex (V/m) @ t=0.54
1.5086304030625879
% es.Ey (V/m) @ t=0.54
0.09499393516154175
% es.Ez (V/m) @ t=0.54
0.6098882743745184
% es.tEx (V/m) @ t=0.54
1.5086304030625906
% es.tEy (V/m) @ t=0.54
0
% es.tEz (V/m) @ t=0.54
0.6098882743745166
% V (V) @ t=0.54
0.008142902679906321
% es.normE (V/m) @ t=0.56
1.648164084836531
% es.EX (V/m) @ t=0.56
1.5231177277649404
% es.EY (V/m) @ t=0.56
0.09590608487267693
% es.EZ (V/m) @ t=0.56
0.6157446917090141
% es.tEX (V/m) @ t=0.56
1.5231177277649435
% es.tEY (V/m) @ t=0.56
0
% es.tEZ (V/m) @ t=0.56
0.6157446917090108
% es.Ex (V/m) @ t=0.56
1.5231177277649404
% es.Ey (V/m) @ t=0.56
0.09590608487267693
% es.Ez (V/m) @ t=0.56
0.6157446917090141
% es.tEx (V/m) @ t=0.56
1.5231177277649435
% es.tEy (V/m) @ t=0.56
0
% es.tEz (V/m) @ t=0.56
0.6157446917090108
% V (V) @ t=0.56
0.008221109092109657
% es.normE (V/m) @ t=0.58
1.6641550431852281
% es.EX (V/m) @ t=0.58
1.537895606560649
% es.EY (V/m) @ t=0.58
0.09683649118187065
% es.EZ (V/m) @ t=0.58
0.6217184030622995
% es.tEX (V/m) @ t=0.58
1.5378956065606486
% es.tEY (V/m) @ t=0.58
0
% es.tEZ (V/m) @ t=0.58
0.6217184030622986
% es.Ex (V/m) @ t=0.58
1.537895606560649
% es.Ey (V/m) @ t=0.58
0.09683649118187065
% es.Ez (V/m) @ t=0.58
0.6217184030622995
% es.tEx (V/m) @ t=0.58
1.5378956065606486
% es.tEy (V/m) @ t=0.58
0
% es.tEz (V/m) @ t=0.58
0.6217184030622986
% V (V) @ t=0.58
0.008300889248071451
% es.normE (V/m) @ t=0.6
1.6801460015341179
% es.EX (V/m) @ t=0.6
1.552673485356363
% es.EY (V/m) @ t=0.6
0.0977668974910626
% es.EZ (V/m) @ t=0.6
0.6276921144155758
% es.tEX (V/m) @ t=0.6
1.5526734853563608
% es.tEY (V/m) @ t=0.6
0
% es.tEZ (V/m) @ t=0.6
0.6276921144155794
% es.Ex (V/m) @ t=0.6
1.552673485356363
% es.Ey (V/m) @ t=0.6
0.0977668974910626
% es.Ez (V/m) @ t=0.6
0.6276921144155758
% es.tEx (V/m) @ t=0.6
1.5526734853563608
% es.tEy (V/m) @ t=0.6
0
% es.tEz (V/m) @ t=0.6
0.6276921144155794
% V (V) @ t=0.6
0.008380669404033245
% es.normE (V/m) @ t=0.62
1.6961369598831921
% es.EX (V/m) @ t=0.62
1.5674513641520735
% es.EY (V/m) @ t=0.62
0.09869730380025543
% es.EZ (V/m) @ t=0.62
0.6336658257688585
% es.tEX (V/m) @ t=0.62
1.5674513641520713
% es.tEY (V/m) @ t=0.62
0
% es.tEZ (V/m) @ t=0.62
0.6336658257688623
% es.Ex (V/m) @ t=0.62
1.5674513641520735
% es.Ey (V/m) @ t=0.62
0.09869730380025543
% es.Ez (V/m) @ t=0.62
0.6336658257688585
% es.tEx (V/m) @ t=0.62
1.5674513641520713
% es.tEy (V/m) @ t=0.62
0
% es.tEz (V/m) @ t=0.62
0.6336658257688623
% V (V) @ t=0.62
0.008460449559995042
% es.normE (V/m) @ t=0.64
1.7121279182324547
% es.EX (V/m) @ t=0.64
1.582229242947788
% es.EY (V/m) @ t=0.64
0.09962771010944405
% es.EZ (V/m) @ t=0.64
0.6396395371221515
% es.tEX (V/m) @ t=0.64
1.5822292429477862
% es.tEY (V/m) @ t=0.64
0
% es.tEZ (V/m) @ t=0.64
0.639639537122147
% es.Ex (V/m) @ t=0.64
1.582229242947788
% es.Ey (V/m) @ t=0.64
0.09962771010944405
% es.Ez (V/m) @ t=0.64
0.6396395371221515
% es.tEx (V/m) @ t=0.64
1.5822292429477862
% es.tEy (V/m) @ t=0.64
0
% es.tEz (V/m) @ t=0.64
0.639639537122147
% V (V) @ t=0.64
0.008540229715956839
% es.normE (V/m) @ t=0.66
1.7281188765818805
% es.EX (V/m) @ t=0.66
1.597007121743498
% es.EY (V/m) @ t=0.66
0.10055811641863499
% es.EZ (V/m) @ t=0.66
0.6456132484754229
% es.tEX (V/m) @ t=0.66
1.597007121743503
% es.tEY (V/m) @ t=0.66
0
% es.tEZ (V/m) @ t=0.66
0.6456132484754256
% es.Ex (V/m) @ t=0.66
1.597007121743498
% es.Ey (V/m) @ t=0.66
0.10055811641863499
% es.Ez (V/m) @ t=0.66
0.6456132484754229
% es.tEx (V/m) @ t=0.66
1.597007121743503
% es.tEy (V/m) @ t=0.66
0
% es.tEz (V/m) @ t=0.66
0.6456132484754256
% V (V) @ t=0.66
0.008620009871918634
% es.normE (V/m) @ t=0.68
1.744109834931483
% es.EX (V/m) @ t=0.68
1.6117850005392107
% es.EY (V/m) @ t=0.68
0.10148852272783149
% es.EZ (V/m) @ t=0.68
0.6515869598286992
% es.tEX (V/m) @ t=0.68
1.6117850005392036
% es.tEY (V/m) @ t=0.68
0
% es.tEZ (V/m) @ t=0.68
0.6515869598287019
% es.Ex (V/m) @ t=0.68
1.6117850005392107
% es.Ey (V/m) @ t=0.68
0.10148852272783149
% es.Ez (V/m) @ t=0.68
0.6515869598286992
% es.tEx (V/m) @ t=0.68
1.6117850005392036
% es.tEy (V/m) @ t=0.68
0
% es.tEz (V/m) @ t=0.68
0.6515869598287019
% V (V) @ t=0.68
0.00869979002788043
% es.normE (V/m) @ t=0.7
1.7601007932812451
% es.EX (V/m) @ t=0.7
1.6265628793349123
% es.EY (V/m) @ t=0.7
0.1024189290370271
% es.EZ (V/m) @ t=0.7
0.6575606711819879
% es.tEX (V/m) @ t=0.7
1.6265628793349087
% es.tEY (V/m) @ t=0.7
0
% es.tEZ (V/m) @ t=0.7
0.6575606711819897
% es.Ex (V/m) @ t=0.7
1.6265628793349123
% es.Ey (V/m) @ t=0.7
0.1024189290370271
% es.Ez (V/m) @ t=0.7
0.6575606711819879
% es.tEx (V/m) @ t=0.7
1.6265628793349087
% es.tEy (V/m) @ t=0.7
0
% es.tEz (V/m) @ t=0.7
0.6575606711819897
% V (V) @ t=0.7
0.008779570183842223
% es.normE (V/m) @ t=0.72
1.7760917516311754
% es.EX (V/m) @ t=0.72
1.6413407581306223
% es.EY (V/m) @ t=0.72
0.1033493353462136
% es.EZ (V/m) @ t=0.72
0.6635343825352753
% es.tEX (V/m) @ t=0.72
1.6413407581306192
% es.tEY (V/m) @ t=0.72
0
% es.tEZ (V/m) @ t=0.72
0.6635343825352753
% es.Ex (V/m) @ t=0.72
1.6413407581306223
% es.Ey (V/m) @ t=0.72
0.1033493353462136
% es.Ez (V/m) @ t=0.72
0.6635343825352753
% es.tEx (V/m) @ t=0.72
1.6413407581306192
% es.tEy (V/m) @ t=0.72
0
% es.tEz (V/m) @ t=0.72
0.6635343825352753
% V (V) @ t=0.72
0.008859350339804018
% es.normE (V/m) @ t=0.74
1.7920827099812655
% es.EX (V/m) @ t=0.74
1.6561186369263332
% es.EY (V/m) @ t=0.74
0.10427974165541631
% es.EZ (V/m) @ t=0.74
0.6695080938885658
% es.tEX (V/m) @ t=0.74
1.6561186369263403
% es.tEY (V/m) @ t=0.74
0
% es.tEZ (V/m) @ t=0.74
0.6695080938885658
% es.Ex (V/m) @ t=0.74
1.6561186369263332
% es.Ey (V/m) @ t=0.74
0.10427974165541631
% es.Ez (V/m) @ t=0.74
0.6695080938885658
% es.tEx (V/m) @ t=0.74
1.6561186369263403
% es.tEy (V/m) @ t=0.74
0
% es.tEz (V/m) @ t=0.74
0.6695080938885658
% V (V) @ t=0.74
0.008939130495765817
% es.normE (V/m) @ t=0.76
1.8080736683315135
% es.EX (V/m) @ t=0.76
1.6708965157220574
% es.EY (V/m) @ t=0.76
0.1052101479645966
% es.EZ (V/m) @ t=0.76
0.6754818052418381
% es.tEX (V/m) @ t=0.76
1.6708965157220579
% es.tEY (V/m) @ t=0.76
0
% es.tEZ (V/m) @ t=0.76
0.6754818052418425
% es.Ex (V/m) @ t=0.76
1.6708965157220574
% es.Ey (V/m) @ t=0.76
0.1052101479645966
% es.Ez (V/m) @ t=0.76
0.6754818052418381
% es.tEx (V/m) @ t=0.76
1.6708965157220579
% es.tEy (V/m) @ t=0.76
0
% es.tEz (V/m) @ t=0.76
0.6754818052418425
% V (V) @ t=0.76
0.009018910651727611
% es.normE (V/m) @ t=0.78
1.8240646266818974
% es.EX (V/m) @ t=0.78
1.6856743945177612
% es.EY (V/m) @ t=0.78
0.10614055427379665
% es.EZ (V/m) @ t=0.78
0.6814555165951213
% es.tEX (V/m) @ t=0.78
1.6856743945177577
% es.tEY (V/m) @ t=0.78
0
% es.tEZ (V/m) @ t=0.78
0.6814555165951219
% es.Ex (V/m) @ t=0.78
1.6856743945177612
% es.Ey (V/m) @ t=0.78
0.10614055427379665
% es.Ez (V/m) @ t=0.78
0.6814555165951213
% es.tEx (V/m) @ t=0.78
1.6856743945177577
% es.tEy (V/m) @ t=0.78
0
% es.tEz (V/m) @ t=0.78
0.6814555165951219
% V (V) @ t=0.78
0.009098690807689406
% es.normE (V/m) @ t=0.8
1.8400555850324318
% es.EX (V/m) @ t=0.8
1.70045227331347
% es.EY (V/m) @ t=0.8
0.10707096058299659
% es.EZ (V/m) @ t=0.8
0.6874292279484084
% es.tEX (V/m) @ t=0.8
1.7004522733134628
% es.tEY (V/m) @ t=0.8
0
% es.tEZ (V/m) @ t=0.8
0.6874292279484067
% es.Ex (V/m) @ t=0.8
1.70045227331347
% es.Ey (V/m) @ t=0.8
0.10707096058299659
% es.Ez (V/m) @ t=0.8
0.6874292279484084
% es.tEx (V/m) @ t=0.8
1.7004522733134628
% es.tEy (V/m) @ t=0.8
0
% es.tEz (V/m) @ t=0.8
0.6874292279484067
% V (V) @ t=0.8
0.009178470963651202
% es.normE (V/m) @ t=0.82
1.8564650214045848
% es.EX (V/m) @ t=0.82
1.7156169085161954
% es.EY (V/m) @ t=0.82
0.10802569943680451
% es.EZ (V/m) @ t=0.82
0.6935592040325991
% es.tEX (V/m) @ t=0.82
1.7156169085161892
% es.tEY (V/m) @ t=0.82
0
% es.tEZ (V/m) @ t=0.82
0.6935592040325997
% es.Ex (V/m) @ t=0.82
1.7156169085161954
% es.Ey (V/m) @ t=0.82
0.10802569943680451
% es.Ez (V/m) @ t=0.82
0.6935592040325991
% es.tEx (V/m) @ t=0.82
1.7156169085161892
% es.tEy (V/m) @ t=0.82
0
% es.tEz (V/m) @ t=0.82
0.6935592040325997
% V (V) @ t=0.82
0.009260341525147707
% es.normE (V/m) @ t=0.84
1.87434290743801
% es.EX (V/m) @ t=0.84
1.7321386814551483
% es.EY (V/m) @ t=0.84
0.10906582178763535
% es.EZ (V/m) @ t=0.84
0.7002375168975998
% es.tEX (V/m) @ t=0.84
1.7321386814551527
% es.tEY (V/m) @ t=0.84
0
% es.tEZ (V/m) @ t=0.84
0.7002375168976016
% es.Ex (V/m) @ t=0.84
1.7321386814551483
% es.Ey (V/m) @ t=0.84
0.10906582178763535
% es.Ez (V/m) @ t=0.84
0.7002375168975998
% es.tEx (V/m) @ t=0.84
1.7321386814551527
% es.tEy (V/m) @ t=0.84
0
% es.tEz (V/m) @ t=0.84
0.7002375168976016
% V (V) @ t=0.84
0.009349547371034682
% es.normE (V/m) @ t=0.86
1.8922207934719384
% es.EX (V/m) @ t=0.86
1.748660454394118
% es.EY (V/m) @ t=0.86
0.11010594413848307
% es.EZ (V/m) @ t=0.86
0.7069158297625993
% es.tEX (V/m) @ t=0.86
1.748660454394125
% es.tEY (V/m) @ t=0.86
0
% es.tEZ (V/m) @ t=0.86
0.7069158297625968
% es.Ex (V/m) @ t=0.86
1.748660454394118
% es.Ey (V/m) @ t=0.86
0.11010594413848307
% es.Ez (V/m) @ t=0.86
0.7069158297625993
% es.tEx (V/m) @ t=0.86
1.748660454394125
% es.tEy (V/m) @ t=0.86
0
% es.tEz (V/m) @ t=0.86
0.7069158297625968
% V (V) @ t=0.86
0.009438753216921657
% es.normE (V/m) @ t=0.88
1.9100986795063353
% es.EX (V/m) @ t=0.88
1.7651822273330877
% es.EY (V/m) @ t=0.88
0.11114606648932646
% es.EZ (V/m) @ t=0.88
0.7135941426275874
% es.tEX (V/m) @ t=0.88
1.7651822273330797
% es.tEY (V/m) @ t=0.88
0
% es.tEZ (V/m) @ t=0.88
0.7135941426275831
% es.Ex (V/m) @ t=0.88
1.7651822273330877
% es.Ey (V/m) @ t=0.88
0.11114606648932646
% es.Ez (V/m) @ t=0.88
0.7135941426275874
% es.tEx (V/m) @ t=0.88
1.7651822273330797
% es.tEy (V/m) @ t=0.88
0
% es.tEz (V/m) @ t=0.88
0.7135941426275831
% V (V) @ t=0.88
0.009527959062808632
% es.normE (V/m) @ t=0.9
1.9279765655412042
% es.EX (V/m) @ t=0.9
1.7817040002720654
% es.EY (V/m) @ t=0.9
0.11218618884016884
% es.EZ (V/m) @ t=0.9
0.7202724554925881
% es.tEX (V/m) @ t=0.9
1.781704000272054
% es.tEY (V/m) @ t=0.9
0
% es.tEZ (V/m) @ t=0.9
0.7202724554925917
% es.Ex (V/m) @ t=0.9
1.7817040002720654
% es.Ey (V/m) @ t=0.9
0.11218618884016884
% es.Ez (V/m) @ t=0.9
0.7202724554925881
% es.tEx (V/m) @ t=0.9
1.781704000272054
% es.tEy (V/m) @ t=0.9
0
% es.tEz (V/m) @ t=0.9
0.7202724554925917
% V (V) @ t=0.9
0.00961716490869561
% es.normE (V/m) @ t=0.92
1.9458544515764884
% es.EX (V/m) @ t=0.92
1.7982257732110147
% es.EY (V/m) @ t=0.92
0.11322631119099802
% es.EZ (V/m) @ t=0.92
0.726950768357574
% es.tEX (V/m) @ t=0.92
1.7982257732110227
% es.tEY (V/m) @ t=0.92
0
% es.tEZ (V/m) @ t=0.92
0.7269507683575767
% es.Ex (V/m) @ t=0.92
1.7982257732110147
% es.Ey (V/m) @ t=0.92
0.11322631119099802
% es.Ez (V/m) @ t=0.92
0.726950768357574
% es.tEx (V/m) @ t=0.92
1.7982257732110227
% es.tEy (V/m) @ t=0.92
0
% es.tEz (V/m) @ t=0.92
0.7269507683575767
% V (V) @ t=0.92
0.009706370754582585
% es.normE (V/m) @ t=0.94
1.9637323376122389
% es.EX (V/m) @ t=0.94
1.8147475461499925
% es.EY (V/m) @ t=0.94
0.11426643354184485
% es.EZ (V/m) @ t=0.94
0.733629081222573
% es.tEX (V/m) @ t=0.94
1.814747546149997
% es.tEY (V/m) @ t=0.94
0
% es.tEZ (V/m) @ t=0.94
0.733629081222575
% es.Ex (V/m) @ t=0.94
1.8147475461499925
% es.Ey (V/m) @ t=0.94
0.11426643354184485
% es.Ez (V/m) @ t=0.94
0.733629081222573
% es.tEx (V/m) @ t=0.94
1.814747546149997
% es.tEy (V/m) @ t=0.94
0
% es.tEz (V/m) @ t=0.94
0.733629081222575
% V (V) @ t=0.94
0.00979557660046956
% es.normE (V/m) @ t=0.96
1.9816102236484168
% es.EX (V/m) @ t=0.96
1.831269319088972
% es.EY (V/m) @ t=0.96
0.11530655589269156
% es.EZ (V/m) @ t=0.96
0.7403073940875762
% es.tEX (V/m) @ t=0.96
1.8312693190889622
% es.tEY (V/m) @ t=0.96
0
% es.tEZ (V/m) @ t=0.96
0.7403073940875768
% es.Ex (V/m) @ t=0.96
1.831269319088972
% es.Ey (V/m) @ t=0.96
0.11530655589269156
% es.Ez (V/m) @ t=0.96
0.7403073940875762
% es.tEx (V/m) @ t=0.96
1.8312693190889622
% es.tEy (V/m) @ t=0.96
0
% es.tEz (V/m) @ t=0.96
0.7403073940875768
% V (V) @ t=0.96
0.009884782446356533
% es.normE (V/m) @ t=0.98
1.9994881096849828
% es.EX (V/m) @ t=0.98
1.8477910920279275
% es.EY (V/m) @ t=0.98
0.11634667824352507
% es.EZ (V/m) @ t=0.98
0.7469857069525776
% es.tEX (V/m) @ t=0.98
1.8477910920279346
% es.tEY (V/m) @ t=0.98
0
% es.tEZ (V/m) @ t=0.98
0.7469857069525792
% es.Ex (V/m) @ t=0.98
1.8477910920279275
% es.Ey (V/m) @ t=0.98
0.11634667824352507
% es.Ez (V/m) @ t=0.98
0.7469857069525776
% es.tEx (V/m) @ t=0.98
1.8477910920279346
% es.tEy (V/m) @ t=0.98
0
% es.tEz (V/m) @ t=0.98
0.7469857069525792
% V (V) @ t=0.98
0.00997398829224351
% es.normE (V/m) @ t=1
2.0173659957219545
% es.EX (V/m) @ t=1
1.8643128649668874
% es.EY (V/m) @ t=1
0.11738680059436479
% es.EZ (V/m) @ t=1
0.7536640198175799
% es.tEX (V/m) @ t=1
1.8643128649668874
% es.tEY (V/m) @ t=1
0
% es.tEZ (V/m) @ t=1
0.753664019817581
% es.Ex (V/m) @ t=1
1.8643128649668874
% es.Ey (V/m) @ t=1
0.11738680059436479
% es.Ez (V/m) @ t=1
0.7536640198175799
% es.tEx (V/m) @ t=1
1.8643128649668874
% es.tEy (V/m) @ t=1
0
% es.tEz (V/m) @ t=1
0.753664019817581
% V (V) @ t=1
0.010063194138130485
% es.normE (V/m) @ t=1.02
2.0352438817593246
% es.EX (V/m) @ t=1.02
1.880834637905866
% es.EY (V/m) @ t=1.02
0.11842692294519852
% es.EZ (V/m) @ t=1.02
0.7603423326825587
% es.tEX (V/m) @ t=1.02
1.880834637905858
% es.tEY (V/m) @ t=1.02
0
% es.tEZ (V/m) @ t=1.02
0.7603423326825589
% es.Ex (V/m) @ t=1.02
1.880834637905866
% es.Ey (V/m) @ t=1.02
0.11842692294519852
% es.Ez (V/m) @ t=1.02
0.7603423326825587
% es.tEx (V/m) @ t=1.02
1.880834637905858
% es.tEy (V/m) @ t=1.02
0
% es.tEz (V/m) @ t=1.02
0.7603423326825589
% V (V) @ t=1.02
0.01015239998401746
% es.normE (V/m) @ t=1.04
2.0531217677970623
% es.EX (V/m) @ t=1.04
1.8973564108448189
% es.EY (V/m) @ t=1.04
0.11946704529603902
% es.EZ (V/m) @ t=1.04
0.7670206455475668
% es.tEX (V/m) @ t=1.04
1.897356410844825
% es.tEY (V/m) @ t=1.04
0
% es.tEZ (V/m) @ t=1.04
0.7670206455475639
% es.Ex (V/m) @ t=1.04
1.8973564108448189
% es.Ey (V/m) @ t=1.04
0.11946704529603902
% es.Ez (V/m) @ t=1.04
0.7670206455475668
% es.tEx (V/m) @ t=1.04