% Model:              1 neuron.mph
% Version:            COMSOL 6.0.0.405
% Date:               Mar 16 2023, 09:57
% Dimension:          0
% Nodes:              14017
% Expressions:        14017
% Description:        Electric field norm, Electric field, X component, Electric field, Y component, Electric field, Z component, Tangential electric field, X component, Tangential electric field, Y component, Tangential electric field, Z component, Electric field, x component, Electric field, y component, Electric field, z component, Tangential electric field, x component, Tangential electric field, y component, Tangential electric field, z component, Electric potential
% Length unit:        mm
% x
1.66
% y
12.200000000000001
% z
1.66
% es.normE (V/m) @ t=0
20.47443029099407
% es.EX (V/m) @ t=0
-9.669205307327871
% es.EY (V/m) @ t=0
7.757695321600902
% es.EZ (V/m) @ t=0
9.299572491641943
% es.tEX (V/m) @ t=0
-9.66920530732789
% es.tEY (V/m) @ t=0
0
% es.tEZ (V/m) @ t=0
9.299572491641925
% es.Ex (V/m) @ t=0
-9.669205307327871
% es.Ey (V/m) @ t=0
7.757695321600902
% es.Ez (V/m) @ t=0
9.299572491641943
% es.tEx (V/m) @ t=0
-9.66920530732789
% es.tEy (V/m) @ t=0
0
% es.tEz (V/m) @ t=0
9.299572491641925
% V (V) @ t=0
0.006425811757159698
% es.normE (V/m) @ t=0.02
17.6841183432624
% es.EX (V/m) @ t=0.02
-8.351459298398652
% es.EY (V/m) @ t=0.02
6.700455166196615
% es.EZ (V/m) @ t=0.02
8.032201034945988
% es.tEX (V/m) @ t=0.02
-8.351459298398645
% es.tEY (V/m) @ t=0.02
0
% es.tEZ (V/m) @ t=0.02
8.032201034945984
% es.Ex (V/m) @ t=0.02
-8.351459298398652
% es.Ey (V/m) @ t=0.02
6.700455166196615
% es.Ez (V/m) @ t=0.02
8.032201034945988
% es.tEx (V/m) @ t=0.02
-8.351459298398645
% es.tEy (V/m) @ t=0.02
0
% es.tEz (V/m) @ t=0.02
8.032201034945984
% V (V) @ t=0.02
0.0055500843694961015
% es.normE (V/m) @ t=0.04
17.846740896969877
% es.EX (V/m) @ t=0.04
-8.428259078199744
% es.EY (V/m) @ t=0.04
6.7620723367820155
% es.EZ (V/m) @ t=0.04
8.106064838433863
% es.tEX (V/m) @ t=0.04
-8.428259078199758
% es.tEY (V/m) @ t=0.04
0
% es.tEZ (V/m) @ t=0.04
8.106064838433895
% es.Ex (V/m) @ t=0.04
-8.428259078199744
% es.Ey (V/m) @ t=0.04
6.7620723367820155
% es.Ez (V/m) @ t=0.04
8.106064838433863
% es.tEx (V/m) @ t=0.04
-8.428259078199758
% es.tEy (V/m) @ t=0.04
0
% es.tEz (V/m) @ t=0.04
8.106064838433895
% V (V) @ t=0.04
0.005601122752729399
% es.normE (V/m) @ t=0.06
18.010811533258156
% es.EX (V/m) @ t=0.06
-8.505742820836794
% es.EY (V/m) @ t=0.06
6.824238207077229
% es.EZ (V/m) @ t=0.06
8.18058626660195
% es.tEX (V/m) @ t=0.06
-8.505742820836787
% es.tEY (V/m) @ t=0.06
0
% es.tEZ (V/m) @ t=0.06
8.18058626660195
% es.Ex (V/m) @ t=0.06
-8.505742820836794
% es.Ey (V/m) @ t=0.06
6.824238207077229
% es.Ez (V/m) @ t=0.06
8.18058626660195
% es.tEx (V/m) @ t=0.06
-8.505742820836787
% es.tEy (V/m) @ t=0.06
0
% es.tEz (V/m) @ t=0.06
8.18058626660195
% V (V) @ t=0.06
0.0056526155998342575
% es.normE (V/m) @ t=0.08
18.177428124485893
% es.EX (V/m) @ t=0.08
-8.584428709852197
% es.EY (V/m) @ t=0.08
6.887368676720001
% es.EZ (V/m) @ t=0.08
8.25626429042747
% es.tEX (V/m) @ t=0.08
-8.58442870985219
% es.tEY (V/m) @ t=0.08
0
% es.tEZ (V/m) @ t=0.08
8.256264290427481
% es.Ex (V/m) @ t=0.08
-8.584428709852197
% es.Ey (V/m) @ t=0.08
6.887368676720001
% es.Ez (V/m) @ t=0.08
8.25626429042747
% es.tEx (V/m) @ t=0.08
-8.58442870985219
% es.tEy (V/m) @ t=0.08
0
% es.tEz (V/m) @ t=0.08
8.256264290427481
% V (V) @ t=0.08
0.005704907506376414
% es.normE (V/m) @ t=0.1
18.34573111257821
% es.EX (V/m) @ t=0.1
-8.66391088000038
% es.EY (V/m) @ t=0.1
6.951138080418559
% es.EZ (V/m) @ t=0.1
8.332708423369958
% es.tEX (V/m) @ t=0.1
-8.663910880000376
% es.tEY (V/m) @ t=0.1
0
% es.tEZ (V/m) @ t=0.1
8.33270842336995
% es.Ex (V/m) @ t=0.1
-8.66391088000038
% es.Ey (V/m) @ t=0.1
6.951138080418559
% es.Ez (V/m) @ t=0.1
8.332708423369958
% es.tEx (V/m) @ t=0.1
-8.663910880000376
% es.tEy (V/m) @ t=0.1
0
% es.tEz (V/m) @ t=0.1
8.33270842336995
% V (V) @ t=0.1
0.005757728696178346
% es.normE (V/m) @ t=0.12
18.514034100670585
% es.EX (V/m) @ t=0.12
-8.743393050148597
% es.EY (V/m) @ t=0.12
7.014907484117128
% es.EZ (V/m) @ t=0.12
8.40915255631245
% es.tEX (V/m) @ t=0.12
-8.743393050148608
% es.tEY (V/m) @ t=0.12
0
% es.tEZ (V/m) @ t=0.12
8.409152556312478
% es.Ex (V/m) @ t=0.12
-8.743393050148597
% es.Ey (V/m) @ t=0.12
7.014907484117128
% es.Ez (V/m) @ t=0.12
8.40915255631245
% es.tEx (V/m) @ t=0.12
-8.743393050148608
% es.tEy (V/m) @ t=0.12
0
% es.tEz (V/m) @ t=0.12
8.409152556312478
% V (V) @ t=0.12
0.00581054988598028
% es.normE (V/m) @ t=0.14
18.684241272797713
% es.EX (V/m) @ t=0.14
-8.823774762883687
% es.EY (V/m) @ t=0.14
7.079398452897813
% es.EZ (V/m) @ t=0.14
8.486461283904013
% es.tEX (V/m) @ t=0.14
-8.823774762883676
% es.tEY (V/m) @ t=0.14
0
% es.tEZ (V/m) @ t=0.14
8.486461283904049
% es.Ex (V/m) @ t=0.14
-8.823774762883687
% es.Ey (V/m) @ t=0.14
7.079398452897813
% es.Ez (V/m) @ t=0.14
8.486461283904013
% es.tEx (V/m) @ t=0.14
-8.823774762883676
% es.tEy (V/m) @ t=0.14
0
% es.tEz (V/m) @ t=0.14
8.486461283904049
% V (V) @ t=0.14
0.005863968664472351
% es.normE (V/m) @ t=0.16
18.8614832683579
% es.EX (V/m) @ t=0.16
-8.907479748555396
% es.EY (V/m) @ t=0.16
7.146555173966952
% es.EZ (V/m) @ t=0.16
8.566964172661777
% es.tEX (V/m) @ t=0.16
-8.907479748555389
% es.tEY (V/m) @ t=0.16
0
% es.tEZ (V/m) @ t=0.16
8.566964172661756
% es.Ex (V/m) @ t=0.16
-8.907479748555396
% es.Ey (V/m) @ t=0.16
7.146555173966952
% es.Ez (V/m) @ t=0.16
8.566964172661777
% es.tEx (V/m) @ t=0.16
-8.907479748555389
% es.tEy (V/m) @ t=0.16
0
% es.tEz (V/m) @ t=0.16
8.566964172661756
% V (V) @ t=0.16
0.005919595176483824
% es.normE (V/m) @ t=0.18
19.038725263918252
% es.EX (V/m) @ t=0.18
-8.991184734227126
% es.EY (V/m) @ t=0.18
7.213711895036049
% es.EZ (V/m) @ t=0.18
8.647467061419562
% es.tEX (V/m) @ t=0.18
-8.991184734227119
% es.tEY (V/m) @ t=0.18
0
% es.tEZ (V/m) @ t=0.18
8.647467061419547
% es.Ex (V/m) @ t=0.18
-8.991184734227126
% es.Ey (V/m) @ t=0.18
7.213711895036049
% es.Ez (V/m) @ t=0.18
8.647467061419562
% es.tEx (V/m) @ t=0.18
-8.991184734227119
% es.tEy (V/m) @ t=0.18
0
% es.tEz (V/m) @ t=0.18
8.647467061419547
% V (V) @ t=0.18
0.005975221688495298
% es.normE (V/m) @ t=0.2
19.215967259478752
% es.EX (V/m) @ t=0.2
-9.074889719898835
% es.EY (V/m) @ t=0.2
7.280868616105209
% es.EZ (V/m) @ t=0.2
8.72796995017735
% es.tEX (V/m) @ t=0.2
-9.074889719898842
% es.tEY (V/m) @ t=0.2
0
% es.tEZ (V/m) @ t=0.2
8.727969950177368
% es.Ex (V/m) @ t=0.2
-9.074889719898835
% es.Ey (V/m) @ t=0.2
7.280868616105209
% es.Ez (V/m) @ t=0.2
8.72796995017735
% es.tEx (V/m) @ t=0.2
-9.074889719898842
% es.tEy (V/m) @ t=0.2
0
% es.tEz (V/m) @ t=0.2
8.727969950177368
% V (V) @ t=0.2
0.00603084820050677
% es.normE (V/m) @ t=0.22
19.393209255039366
% es.EX (V/m) @ t=0.22
-9.158594705570557
% es.EY (V/m) @ t=0.22
7.3480253371743345
% es.EZ (V/m) @ t=0.22
8.808472838935106
% es.tEX (V/m) @ t=0.22
-9.158594705570557
% es.tEY (V/m) @ t=0.22
0
% es.tEZ (V/m) @ t=0.22
8.808472838935131
% es.Ex (V/m) @ t=0.22
-9.158594705570557
% es.Ey (V/m) @ t=0.22
7.3480253371743345
% es.Ez (V/m) @ t=0.22
8.808472838935106
% es.tEx (V/m) @ t=0.22
-9.158594705570557
% es.tEy (V/m) @ t=0.22
0
% es.tEz (V/m) @ t=0.22
8.808472838935131
% V (V) @ t=0.22
0.006086474712518244
% es.normE (V/m) @ t=0.24
19.57045125060014
% es.EX (V/m) @ t=0.24
-9.242299691242252
% es.EY (V/m) @ t=0.24
7.41518205824347
% es.EZ (V/m) @ t=0.24
8.88897572769288
% es.tEX (V/m) @ t=0.24
-9.242299691242263
% es.tEY (V/m) @ t=0.24
0
% es.tEZ (V/m) @ t=0.24
8.888975727692866
% es.Ex (V/m) @ t=0.24
-9.242299691242252
% es.Ey (V/m) @ t=0.24
7.41518205824347
% es.Ez (V/m) @ t=0.24
8.88897572769288
% es.tEx (V/m) @ t=0.24
-9.242299691242263
% es.tEy (V/m) @ t=0.24
0
% es.tEz (V/m) @ t=0.24
8.888975727692866
% V (V) @ t=0.24
0.006142101224529716
% es.normE (V/m) @ t=0.26
19.747693246161113
% es.EX (V/m) @ t=0.26
-9.32600467691401
% es.EY (V/m) @ t=0.26
7.482338779312599
% es.EZ (V/m) @ t=0.26
8.969478616450711
% es.tEX (V/m) @ t=0.26
-9.32600467691401
% es.tEY (V/m) @ t=0.26
0
% es.tEZ (V/m) @ t=0.26
8.969478616450687
% es.Ex (V/m) @ t=0.26
-9.32600467691401
% es.Ey (V/m) @ t=0.26
7.482338779312599
% es.Ez (V/m) @ t=0.26
8.969478616450711
% es.tEx (V/m) @ t=0.26
-9.32600467691401
% es.tEy (V/m) @ t=0.26
0
% es.tEz (V/m) @ t=0.26
8.969478616450687
% V (V) @ t=0.26
0.00619772773654119
% es.normE (V/m) @ t=0.28
19.933696315429266
% es.EX (V/m) @ t=0.28
-9.413848423276335
% es.EY (V/m) @ t=0.28
7.552815392788176
% es.EZ (V/m) @ t=0.28
9.053959468535016
% es.tEX (V/m) @ t=0.28
-9.413848423276313
% es.tEY (V/m) @ t=0.28
0
% es.tEZ (V/m) @ t=0.28
9.053959468534998
% es.Ex (V/m) @ t=0.28
-9.413848423276335
% es.Ey (V/m) @ t=0.28
7.552815392788176
% es.Ez (V/m) @ t=0.28
9.053959468535016
% es.tEx (V/m) @ t=0.28
-9.413848423276313
% es.tEy (V/m) @ t=0.28
0
% es.tEz (V/m) @ t=0.28
9.053959468534998
% V (V) @ t=0.28
0.006256103729503679
% es.normE (V/m) @ t=0.3
20.13103405722797
% es.EX (V/m) @ t=0.3
-9.507046707070138
% es.EY (V/m) @ t=0.3
7.627587129728845
% es.EZ (V/m) @ t=0.3
9.143586825847684
% es.tEX (V/m) @ t=0.3
-9.507046707070131
% es.tEY (V/m) @ t=0.3
0
% es.tEZ (V/m) @ t=0.3
9.143586825847677
% es.Ex (V/m) @ t=0.3
-9.507046707070138
% es.Ey (V/m) @ t=0.3
7.627587129728845
% es.Ez (V/m) @ t=0.3
9.143586825847684
% es.tEx (V/m) @ t=0.3
-9.507046707070131
% es.tEy (V/m) @ t=0.3
0
% es.tEz (V/m) @ t=0.3
9.143586825847677
% V (V) @ t=0.3
0.006318036873934904
% es.normE (V/m) @ t=0.32
20.328371799028467
% es.EX (V/m) @ t=0.32
-9.600244990863935
% es.EY (V/m) @ t=0.32
7.702358866669513
% es.EZ (V/m) @ t=0.32
9.23321418316037
% es.tEX (V/m) @ t=0.32
-9.60024499086395
% es.tEY (V/m) @ t=0.32
0
% es.tEZ (V/m) @ t=0.32
9.233214183160356
% es.Ex (V/m) @ t=0.32
-9.600244990863935
% es.Ey (V/m) @ t=0.32
7.702358866669513
% es.Ez (V/m) @ t=0.32
9.23321418316037
% es.tEx (V/m) @ t=0.32
-9.60024499086395
% es.tEy (V/m) @ t=0.32
0
% es.tEz (V/m) @ t=0.32
9.233214183160356
% V (V) @ t=0.32
0.0063799700183661285
% es.normE (V/m) @ t=0.34
20.52570954083075
% es.EX (V/m) @ t=0.34
-9.693443274657774
% es.EY (V/m) @ t=0.34
7.777130603610193
% es.EZ (V/m) @ t=0.34
9.322841540473053
% es.tEX (V/m) @ t=0.34
-9.693443274657767
% es.tEY (V/m) @ t=0.34
0
% es.tEZ (V/m) @ t=0.34
9.322841540473064
% es.Ex (V/m) @ t=0.34
-9.693443274657774
% es.Ey (V/m) @ t=0.34
7.777130603610193
% es.Ez (V/m) @ t=0.34
9.322841540473053
% es.tEx (V/m) @ t=0.34
-9.693443274657767
% es.tEy (V/m) @ t=0.34
0
% es.tEz (V/m) @ t=0.34
9.322841540473064
% V (V) @ t=0.34
0.0064419031627973525
% es.normE (V/m) @ t=0.36
20.723047282634674
% es.EX (V/m) @ t=0.36
-9.786641558451585
% es.EY (V/m) @ t=0.36
7.851902340550847
% es.EZ (V/m) @ t=0.36
9.412468897785736
% es.tEX (V/m) @ t=0.36
-9.786641558451578
% es.tEY (V/m) @ t=0.36
0
% es.tEZ (V/m) @ t=0.36
9.412468897785743
% es.Ex (V/m) @ t=0.36
-9.786641558451585
% es.Ey (V/m) @ t=0.36
7.851902340550847
% es.Ez (V/m) @ t=0.36
9.412468897785736
% es.tEx (V/m) @ t=0.36
-9.786641558451578
% es.tEy (V/m) @ t=0.36
0
% es.tEz (V/m) @ t=0.36
9.412468897785743
% V (V) @ t=0.36
0.006503836307228577
% es.normE (V/m) @ t=0.38
20.92038502444025
% es.EX (V/m) @ t=0.38
-9.879839842245389
% es.EY (V/m) @ t=0.38
7.926674077491526
% es.EZ (V/m) @ t=0.38
9.502096255098394
% es.tEX (V/m) @ t=0.38
-9.879839842245374
% es.tEY (V/m) @ t=0.38
0
% es.tEZ (V/m) @ t=0.38
9.502096255098394
% es.Ex (V/m) @ t=0.38
-9.879839842245389
% es.Ey (V/m) @ t=0.38
7.926674077491526
% es.Ez (V/m) @ t=0.38
9.502096255098394
% es.tEx (V/m) @ t=0.38
-9.879839842245374
% es.tEy (V/m) @ t=0.38
0
% es.tEz (V/m) @ t=0.38
9.502096255098394
% V (V) @ t=0.38
0.006565769451659801
% es.normE (V/m) @ t=0.4
21.117722766247418
% es.EX (V/m) @ t=0.4
-9.97303812603922
% es.EY (V/m) @ t=0.4
8.001445814432202
% es.EZ (V/m) @ t=0.4
9.591723612411077
% es.tEX (V/m) @ t=0.4
-9.973038126039228
% es.tEY (V/m) @ t=0.4
0
% es.tEZ (V/m) @ t=0.4
9.591723612411073
% es.Ex (V/m) @ t=0.4
-9.97303812603922
% es.Ey (V/m) @ t=0.4
8.001445814432202
% es.Ez (V/m) @ t=0.4
9.591723612411077
% es.tEx (V/m) @ t=0.4
-9.973038126039228
% es.tEy (V/m) @ t=0.4
0
% es.tEz (V/m) @ t=0.4
9.591723612411073
% V (V) @ t=0.4
0.006627702596091026
% es.normE (V/m) @ t=0.42
21.31506050805612
% es.EX (V/m) @ t=0.42
-10.066236409833031
% es.EY (V/m) @ t=0.42
8.076217551372842
% es.EZ (V/m) @ t=0.42
9.68135096972373
% es.tEX (V/m) @ t=0.42
-10.066236409833031
% es.tEY (V/m) @ t=0.42
0
% es.tEZ (V/m) @ t=0.42
9.681350969723724
% es.Ex (V/m) @ t=0.42
-10.066236409833031
% es.Ey (V/m) @ t=0.42
8.076217551372842
% es.Ez (V/m) @ t=0.42
9.68135096972373
% es.tEx (V/m) @ t=0.42
-10.066236409833031
% es.tEy (V/m) @ t=0.42
0
% es.tEz (V/m) @ t=0.42
9.681350969723724
% V (V) @ t=0.42
0.0066896357405222505
% es.normE (V/m) @ t=0.44
21.51239824986636
% es.EX (V/m) @ t=0.44
-10.15943469362685
% es.EY (V/m) @ t=0.44
8.150989288313514
% es.EZ (V/m) @ t=0.44
9.77097832703646
% es.tEX (V/m) @ t=0.44
-10.159434693626832
% es.tEY (V/m) @ t=0.44
0
% es.tEZ (V/m) @ t=0.44
9.77097832703646
% es.Ex (V/m) @ t=0.44
-10.15943469362685
% es.Ey (V/m) @ t=0.44
8.150989288313514
% es.Ez (V/m) @ t=0.44
9.77097832703646
% es.tEx (V/m) @ t=0.44
-10.159434693626832
% es.tEy (V/m) @ t=0.44
0
% es.tEz (V/m) @ t=0.44
9.77097832703646
% V (V) @ t=0.44
0.0067515688849534745
% es.normE (V/m) @ t=0.46
21.709735991678055
% es.EX (V/m) @ t=0.46
-10.252632977420667
% es.EY (V/m) @ t=0.46
8.225761025254197
% es.EZ (V/m) @ t=0.46
9.860605684349114
% es.tEX (V/m) @ t=0.46
-10.252632977420681
% es.tEY (V/m) @ t=0.46
0
% es.tEZ (V/m) @ t=0.46
9.86060568434911
% es.Ex (V/m) @ t=0.46
-10.252632977420667
% es.Ey (V/m) @ t=0.46
8.225761025254197
% es.Ez (V/m) @ t=0.46
9.860605684349114
% es.tEx (V/m) @ t=0.46
-10.252632977420681
% es.tEy (V/m) @ t=0.46
0
% es.tEz (V/m) @ t=0.46
9.86060568434911
% V (V) @ t=0.46
0.0068135020293846995
% es.normE (V/m) @ t=0.48
21.90707373349113
% es.EX (V/m) @ t=0.48
-10.345831261214457
% es.EY (V/m) @ t=0.48
8.300532762194887
% es.EZ (V/m) @ t=0.48
9.95023304166179
% es.tEX (V/m) @ t=0.48
-10.345831261214457
% es.tEY (V/m) @ t=0.48
0
% es.tEZ (V/m) @ t=0.48
9.95023304166179
% es.Ex (V/m) @ t=0.48
-10.345831261214457
% es.Ey (V/m) @ t=0.48
8.300532762194887
% es.Ez (V/m) @ t=0.48
9.95023304166179
% es.tEx (V/m) @ t=0.48
-10.345831261214457
% es.tEy (V/m) @ t=0.48
0
% es.tEz (V/m) @ t=0.48
9.95023304166179
% V (V) @ t=0.48
0.0068754351738159235
% es.normE (V/m) @ t=0.5
22.104411475305653
% es.EX (V/m) @ t=0.5
-10.439029545008296
% es.EY (V/m) @ t=0.5
8.375304499135567
% es.EZ (V/m) @ t=0.5
10.039860398974486
% es.tEX (V/m) @ t=0.5
-10.43902954500826
% es.tEY (V/m) @ t=0.5
0
% es.tEZ (V/m) @ t=0.5
10.039860398974497
% es.Ex (V/m) @ t=0.5
-10.439029545008296
% es.Ey (V/m) @ t=0.5
8.375304499135567
% es.Ez (V/m) @ t=0.5
10.039860398974486
% es.tEx (V/m) @ t=0.5
-10.43902954500826
% es.tEy (V/m) @ t=0.5
0
% es.tEz (V/m) @ t=0.5
10.039860398974497
% V (V) @ t=0.5
0.006937368318247147
% es.normE (V/m) @ t=0.52
22.301749217121483
% es.EX (V/m) @ t=0.52
-10.532227828802078
% es.EY (V/m) @ t=0.52
8.450076236076235
% es.EZ (V/m) @ t=0.52
10.129487756287144
% es.tEX (V/m) @ t=0.52
-10.532227828802078
% es.tEY (V/m) @ t=0.52
0
% es.tEZ (V/m) @ t=0.52
10.129487756287148
% es.Ex (V/m) @ t=0.52
-10.532227828802078
% es.Ey (V/m) @ t=0.52
8.450076236076235
% es.Ez (V/m) @ t=0.52
10.129487756287144
% es.tEx (V/m) @ t=0.52
-10.532227828802078
% es.tEy (V/m) @ t=0.52
0
% es.tEz (V/m) @ t=0.52
10.129487756287148
% V (V) @ t=0.52
0.006999301462678371
% es.normE (V/m) @ t=0.54
22.4990869589387
% es.EX (V/m) @ t=0.54
-10.625426112595903
% es.EY (V/m) @ t=0.54
8.524847973016914
% es.EZ (V/m) @ t=0.54
10.219115113599859
% es.tEX (V/m) @ t=0.54
-10.625426112595932
% es.tEY (V/m) @ t=0.54
0
% es.tEZ (V/m) @ t=0.54
10.219115113599855
% es.Ex (V/m) @ t=0.54
-10.625426112595903
% es.Ey (V/m) @ t=0.54
8.524847973016914
% es.Ez (V/m) @ t=0.54
10.219115113599859
% es.tEx (V/m) @ t=0.54
-10.625426112595932
% es.tEy (V/m) @ t=0.54
0
% es.tEz (V/m) @ t=0.54
10.219115113599855
% V (V) @ t=0.54
0.0070612346071095965
% es.normE (V/m) @ t=0.56
22.716594859192888
% es.EX (V/m) @ t=0.56
-10.728140009976087
% es.EY (V/m) @ t=0.56
8.607259406935139
% es.EZ (V/m) @ t=0.56
10.317914330048314
% es.tEX (V/m) @ t=0.56
-10.728140009976087
% es.tEY (V/m) @ t=0.56
0
% es.tEZ (V/m) @ t=0.56
10.317914330048296
% es.Ex (V/m) @ t=0.56
-10.728140009976087
% es.Ey (V/m) @ t=0.56
8.607259406935139
% es.Ez (V/m) @ t=0.56
10.317914330048314
% es.tEx (V/m) @ t=0.56
-10.728140009976087
% es.tEy (V/m) @ t=0.56
0
% es.tEz (V/m) @ t=0.56
10.317914330048296
% V (V) @ t=0.56
0.007129499185524427
% es.normE (V/m) @ t=0.58
22.936804879483827
% es.EX (V/m) @ t=0.58
-10.832128678209422
% es.EY (V/m) @ t=0.58
8.690694302235585
% es.EZ (V/m) @ t=0.58
10.417942265863061
% es.tEX (V/m) @ t=0.58
-10.832128678209422
% es.tEY (V/m) @ t=0.58
0
% es.tEZ (V/m) @ t=0.58
10.417942265863047
% es.Ex (V/m) @ t=0.58
-10.832128678209422
% es.Ey (V/m) @ t=0.58
8.690694302235585
% es.Ez (V/m) @ t=0.58
10.417942265863061
% es.tEx (V/m) @ t=0.58
-10.832128678209422
% es.tEy (V/m) @ t=0.58
0
% es.tEz (V/m) @ t=0.58
10.417942265863047
% V (V) @ t=0.58
0.007198611962263823
% es.normE (V/m) @ t=0.6
23.15701489978086
% es.EX (V/m) @ t=0.6
-10.936117346442792
% es.EY (V/m) @ t=0.6
8.774129197536109
% es.EZ (V/m) @ t=0.6
10.517970201677894
% es.tEX (V/m) @ t=0.6
-10.936117346442792
% es.tEY (V/m) @ t=0.6
0
% es.tEZ (V/m) @ t=0.6
10.517970201677912
% es.Ex (V/m) @ t=0.6
-10.936117346442792
% es.Ey (V/m) @ t=0.6
8.774129197536109
% es.Ez (V/m) @ t=0.6
10.517970201677894
% es.tEx (V/m) @ t=0.6
-10.936117346442792
% es.tEy (V/m) @ t=0.6
0
% es.tEz (V/m) @ t=0.6
10.517970201677912
% V (V) @ t=0.6
0.007267724739003218
% es.normE (V/m) @ t=0.62
23.3772249200836
% es.EX (V/m) @ t=0.62
-11.04010601467607
% es.EY (V/m) @ t=0.62
8.857564092836604
% es.EZ (V/m) @ t=0.62
10.617998137492581
% es.tEX (V/m) @ t=0.62
-11.040106014676077
% es.tEY (V/m) @ t=0.62
0
% es.tEZ (V/m) @ t=0.62
10.617998137492577
% es.Ex (V/m) @ t=0.62
-11.04010601467607
% es.Ey (V/m) @ t=0.62
8.857564092836604
% es.Ez (V/m) @ t=0.62
10.617998137492581
% es.tEx (V/m) @ t=0.62
-11.040106014676077
% es.tEy (V/m) @ t=0.62
0
% es.tEz (V/m) @ t=0.62
10.617998137492577
% V (V) @ t=0.62
0.007336837515742613
% es.normE (V/m) @ t=0.64
23.597434940392198
% es.EX (V/m) @ t=0.64
-11.144094682909454
% es.EY (V/m) @ t=0.64
8.940998988137107
% es.EZ (V/m) @ t=0.64
10.718026073307414
% es.tEX (V/m) @ t=0.64
-11.14409468290943
% es.tEY (V/m) @ t=0.64
0
% es.tEZ (V/m) @ t=0.64
10.718026073307414
% es.Ex (V/m) @ t=0.64
-11.144094682909454
% es.Ey (V/m) @ t=0.64
8.940998988137107
% es.Ez (V/m) @ t=0.64
10.718026073307414
% es.tEx (V/m) @ t=0.64
-11.14409468290943
% es.tEy (V/m) @ t=0.64
0
% es.tEz (V/m) @ t=0.64
10.718026073307414
% V (V) @ t=0.64
0.007405950292482009
% es.normE (V/m) @ t=0.66
23.8176449607062
% es.EX (V/m) @ t=0.66
-11.248083351142789
% es.EY (V/m) @ t=0.66
9.024433883437592
% es.EZ (V/m) @ t=0.66
10.818054009122186
% es.tEX (V/m) @ t=0.66
-11.248083351142782
% es.tEY (V/m) @ t=0.66
0
% es.tEZ (V/m) @ t=0.66
10.818054009122164
% es.Ex (V/m) @ t=0.66
-11.248083351142789
% es.Ey (V/m) @ t=0.66
9.024433883437592
% es.Ez (V/m) @ t=0.66
10.818054009122186
% es.tEx (V/m) @ t=0.66
-11.248083351142782
% es.tEy (V/m) @ t=0.66
0
% es.tEz (V/m) @ t=0.66
10.818054009122164
% V (V) @ t=0.66
0.007475063069221405
% es.normE (V/m) @ t=0.68
24.03785498102556
% es.EX (V/m) @ t=0.68
-11.352072019376124
% es.EY (V/m) @ t=0.68
9.107868778738112
% es.EZ (V/m) @ t=0.68
10.918081944936919
% es.tEX (V/m) @ t=0.68
-11.352072019376124
% es.tEY (V/m) @ t=0.68
0
% es.tEZ (V/m) @ t=0.68
10.918081944936915
% es.Ex (V/m) @ t=0.68
-11.352072019376124
% es.Ey (V/m) @ t=0.68
9.107868778738112
% es.Ez (V/m) @ t=0.68
10.918081944936919
% es.tEx (V/m) @ t=0.68
-11.352072019376124
% es.tEy (V/m) @ t=0.68
0
% es.tEz (V/m) @ t=0.68
10.918081944936915
% V (V) @ t=0.68
0.0075441758459608
% es.normE (V/m) @ t=0.7
24.25806500135021
% es.EX (V/m) @ t=0.7
-11.456060687609465
% es.EY (V/m) @ t=0.7
9.19130367403858
% es.EZ (V/m) @ t=0.7
11.018109880751737
% es.tEX (V/m) @ t=0.7
-11.456060687609494
% es.tEY (V/m) @ t=0.7
0
% es.tEZ (V/m) @ t=0.7
11.018109880751751
% es.Ex (V/m) @ t=0.7
-11.456060687609465
% es.Ey (V/m) @ t=0.7
9.19130367403858
% es.Ez (V/m) @ t=0.7
11.018109880751737
% es.tEx (V/m) @ t=0.7
-11.456060687609494
% es.tEy (V/m) @ t=0.7
0
% es.tEz (V/m) @ t=0.7
11.018109880751751
% V (V) @ t=0.7
0.007613288622700195
% es.normE (V/m) @ t=0.72
24.47827502167987
% es.EX (V/m) @ t=0.72
-11.560049355842807
% es.EY (V/m) @ t=0.72
9.274738569339064
% es.EZ (V/m) @ t=0.72
11.118137816566467
% es.tEX (V/m) @ t=0.72
-11.560049355842807
% es.tEY (V/m) @ t=0.72
0
% es.tEZ (V/m) @ t=0.72
11.118137816566474
% es.Ex (V/m) @ t=0.72
-11.560049355842807
% es.Ey (V/m) @ t=0.72
9.274738569339064
% es.Ez (V/m) @ t=0.72
11.118137816566467
% es.tEx (V/m) @ t=0.72
-11.560049355842807
% es.tEy (V/m) @ t=0.72
0
% es.tEz (V/m) @ t=0.72
11.118137816566474
% V (V) @ t=0.72
0.007682401399439592
% es.normE (V/m) @ t=0.74
24.69848504201449
% es.EX (V/m) @ t=0.74
-11.66403802407617
% es.EY (V/m) @ t=0.74
9.358173464639549
% es.EZ (V/m) @ t=0.74
11.218165752381228
% es.tEX (V/m) @ t=0.74
-11.664038024076156
% es.tEY (V/m) @ t=0.74
0
% es.tEZ (V/m) @ t=0.74
11.218165752381196
% es.Ex (V/m) @ t=0.74
-11.66403802407617
% es.Ey (V/m) @ t=0.74
9.358173464639549
% es.Ez (V/m) @ t=0.74
11.218165752381228
% es.tEx (V/m) @ t=0.74
-11.664038024076156
% es.tEy (V/m) @ t=0.74
0
% es.tEz (V/m) @ t=0.74
11.218165752381196
% V (V) @ t=0.74
0.007751514176178986
% es.normE (V/m) @ t=0.76
24.91869506235391
% es.EX (V/m) @ t=0.76
-11.768026692309462
% es.EY (V/m) @ t=0.76
9.44160835994004
% es.EZ (V/m) @ t=0.76
11.318193688195972
% es.tEX (V/m) @ t=0.76
-11.76802669230947
% es.tEY (V/m) @ t=0.76
0
% es.tEZ (V/m) @ t=0.76
11.318193688195947
% es.Ex (V/m) @ t=0.76
-11.768026692309462
% es.Ey (V/m) @ t=0.76
9.44160835994004
% es.Ez (V/m) @ t=0.76
11.318193688195972
% es.tEx (V/m) @ t=0.76
-11.76802669230947
% es.tEy (V/m) @ t=0.76
0
% es.tEz (V/m) @ t=0.76
11.318193688195947
% V (V) @ t=0.76
0.007820626952918382
% es.normE (V/m) @ t=0.78
25.138905082698066
% es.EX (V/m) @ t=0.78
-11.872015360542846
% es.EY (V/m) @ t=0.78
9.525043255240508
% es.EZ (V/m) @ t=0.78
11.418221624010773
% es.tEX (V/m) @ t=0.78
-11.87201536054284
% es.tEY (V/m) @ t=0.78
0
% es.tEZ (V/m) @ t=0.78
11.418221624010783
% es.Ex (V/m) @ t=0.78
-11.872015360542846
% es.Ey (V/m) @ t=0.78
9.525043255240508
% es.Ez (V/m) @ t=0.78
11.418221624010773
% es.tEx (V/m) @ t=0.78
-11.87201536054284
% es.tEy (V/m) @ t=0.78
0
% es.tEz (V/m) @ t=0.78
11.418221624010783
% V (V) @ t=0.78
0.007889739729657778
% es.normE (V/m) @ t=0.8
25.359115103046786
% es.EX (V/m) @ t=0.8
-11.976004028776188
% es.EY (V/m) @ t=0.8
9.608478150541014
% es.EZ (V/m) @ t=0.8
11.518249559825563
% es.tEX (V/m) @ t=0.8
-11.97600402877617
% es.tEY (V/m) @ t=0.8
0
% es.tEZ (V/m) @ t=0.8
11.518249559825534
% es.Ex (V/m) @ t=0.8
-11.976004028776188
% es.Ey (V/m) @ t=0.8
9.608478150541014
% es.Ez (V/m) @ t=0.8
11.518249559825563
% es.tEx (V/m) @ t=0.8
-11.97600402877617
% es.tEy (V/m) @ t=0.8
0
% es.tEz (V/m) @ t=0.8
11.518249559825534
% V (V) @ t=0.8
0.007958852506397175
% es.normE (V/m) @ t=0.82
25.587815700360224
% es.EX (V/m) @ t=0.82
-12.084000837832342
% es.EY (V/m) @ t=0.82
9.695129659656235
% es.EZ (V/m) @ t=0.82
11.622135645402366
% es.tEX (V/m) @ t=0.82
-12.084000837832324
% es.tEY (V/m) @ t=0.82
0
% es.tEZ (V/m) @ t=0.82
11.62213564540238
% es.Ex (V/m) @ t=0.82
-12.084000837832342
% es.Ey (V/m) @ t=0.82
9.695129659656235
% es.Ez (V/m) @ t=0.82
11.622135645402366
% es.tEx (V/m) @ t=0.82
-12.084000837832324
% es.tEy (V/m) @ t=0.82
0
% es.tEz (V/m) @ t=0.82
11.62213564540238
% V (V) @ t=0.82
0.008030630195058487
% es.normE (V/m) @ t=0.84
25.83393102506937
% es.EX (V/m) @ t=0.84
-12.200218605261512
% es.EY (V/m) @ t=0.84
9.788378653600851
% es.EZ (V/m) @ t=0.84
11.733935047899294
% es.tEX (V/m) @ t=0.84
-12.200218605261512
% es.tEY (V/m) @ t=0.84
0
% es.tEZ (V/m) @ t=0.84
11.733935047899308
% es.Ex (V/m) @ t=0.84
-12.200218605261512
% es.Ey (V/m) @ t=0.84
9.788378653600851
% es.Ez (V/m) @ t=0.84
11.733935047899294
% es.tEx (V/m) @ t=0.84
-12.200218605261512
% es.tEy (V/m) @ t=0.84
0
% es.tEz (V/m) @ t=0.84
11.733935047899308
% V (V) @ t=0.84
0.00810787379196656
% es.normE (V/m) @ t=0.86
26.080046349790692
% es.EX (V/m) @ t=0.86
-12.316436372690667
% es.EY (V/m) @ t=0.86
9.881627647545496
% es.EZ (V/m) @ t=0.86
11.8457344503962
% es.tEX (V/m) @ t=0.86
-12.316436372690656
% es.tEY (V/m) @ t=0.86
0
% es.tEZ (V/m) @ t=0.86
11.845734450396208
% es.Ex (V/m) @ t=0.86
-12.316436372690667
% es.Ey (V/m) @ t=0.86
9.881627647545496
% es.Ez (V/m) @ t=0.86
11.8457344503962
% es.tEx (V/m) @ t=0.86
-12.316436372690656
% es.tEy (V/m) @ t=0.86
0
% es.tEz (V/m) @ t=0.86
11.845734450396208
% V (V) @ t=0.86
0.008185117388874633
% es.normE (V/m) @ t=0.88
26.32616167452387
% es.EX (V/m) @ t=0.88
-12.432654140119809
% es.EY (V/m) @ t=0.88
9.974876641490127
% es.EZ (V/m) @ t=0.88
11.957533852893075
% es.tEX (V/m) @ t=0.88
-12.432654140119801
% es.tEY (V/m) @ t=0.88
0
% es.tEZ (V/m) @ t=0.88
11.957533852893079
% es.Ex (V/m) @ t=0.88
-12.432654140119809
% es.Ey (V/m) @ t=0.88
9.974876641490127
% es.Ez (V/m) @ t=0.88
11.957533852893075
% es.tEx (V/m) @ t=0.88
-12.432654140119801
% es.tEy (V/m) @ t=0.88
0
% es.tEz (V/m) @ t=0.88
11.957533852893079
% V (V) @ t=0.88
0.008262360985782704
% es.normE (V/m) @ t=0.9
26.572276999268567
% es.EX (V/m) @ t=0.9
-12.548871907548957
% es.EY (V/m) @ t=0.9
10.068125635434747
% es.EZ (V/m) @ t=0.9
12.069333255389946
% es.tEX (V/m) @ t=0.9
-12.548871907548957
% es.tEY (V/m) @ t=0.9
0
% es.tEZ (V/m) @ t=0.9
12.06933325538995
% es.Ex (V/m) @ t=0.9
-12.548871907548957
% es.Ey (V/m) @ t=0.9
10.068125635434747
% es.Ez (V/m) @ t=0.9
12.069333255389946
% es.tEx (V/m) @ t=0.9
-12.548871907548957
% es.tEy (V/m) @ t=0.9
0
% es.tEz (V/m) @ t=0.9
12.06933325538995
% V (V) @ t=0.9
0.008339604582690778
% es.normE (V/m) @ t=0.92
26.81839232402441
% es.EX (V/m) @ t=0.92
-12.665089674978063
% es.EY (V/m) @ t=0.92
10.161374629379338
% es.EZ (V/m) @ t=0.92
12.181132657886764
% es.tEX (V/m) @ t=0.92
-12.665089674978063
% es.tEY (V/m) @ t=0.92
0
% es.tEZ (V/m) @ t=0.92
12.181132657886764
% es.Ex (V/m) @ t=0.92
-12.665089674978063
% es.Ey (V/m) @ t=0.92
10.161374629379338
% es.Ez (V/m) @ t=0.92
12.181132657886764
% es.tEx (V/m) @ t=0.92
-12.665089674978063
% es.tEy (V/m) @ t=0.92
0
% es.tEz (V/m) @ t=0.92
12.181132657886764
% V (V) @ t=0.92
0.00841684817959885
% es.normE (V/m) @ t=0.94
27.064507648791338
% es.EX (V/m) @ t=0.94
-12.781307442407254
% es.EY (V/m) @ t=0.94
10.254623623323951
% es.EZ (V/m) @ t=0.94
12.29293206038372
% es.tEX (V/m) @ t=0.94
-12.781307442407247
% es.tEY (V/m) @ t=0.94
0
% es.tEZ (V/m) @ t=0.94
12.29293206038372
% es.Ex (V/m) @ t=0.94
-12.781307442407254
% es.Ey (V/m) @ t=0.94
10.254623623323951
% es.Ez (V/m) @ t=0.94
12.29293206038372
% es.tEx (V/m) @ t=0.94
-12.781307442407247
% es.tEy (V/m) @ t=0.94
0
% es.tEz (V/m) @ t=0.94
12.29293206038372
% V (V) @ t=0.94
0.008494091776506923
% es.normE (V/m) @ t=0.96
27.310622973568805
% es.EX (V/m) @ t=0.96
-12.897525209836395
% es.EY (V/m) @ t=0.96
10.347872617268617
% es.EZ (V/m) @ t=0.96
12.404731462880626
% es.tEX (V/m) @ t=0.96
-12.897525209836388
% es.tEY (V/m) @ t=0.96
0
% es.tEZ (V/m) @ t=0.96
12.40473146288062
% es.Ex (V/m) @ t=0.96
-12.897525209836395
% es.Ey (V/m) @ t=0.96
10.347872617268617
% es.Ez (V/m) @ t=0.96
12.404731462880626
% es.tEx (V/m) @ t=0.96
-12.897525209836388
% es.tEy (V/m) @ t=0.96
0
% es.tEz (V/m) @ t=0.96
12.40473146288062
% V (V) @ t=0.96
0.008571335373414996
% es.normE (V/m) @ t=0.98
27.556738298356542
% es.EX (V/m) @ t=0.98
-13.013742977265544
% es.EY (V/m) @ t=0.98
10.441121611213209
% es.EZ (V/m) @ t=0.98
12.516530865377469
% es.tEX (V/m) @ t=0.98
-13.013742977265515
% es.tEY (V/m) @ t=0.98
0
% es.tEZ (V/m) @ t=0.98
12.516530865377462
% es.Ex (V/m) @ t=0.98
-13.013742977265544
% es.Ey (V/m) @ t=0.98
10.441121611213209
% es.Ez (V/m) @ t=0.98
12.516530865377469
% es.tEx (V/m) @ t=0.98
-13.013742977265515
% es.tEy (V/m) @ t=0.98
0
% es.tEz (V/m) @ t=0.98
12.516530865377462
% V (V) @ t=0.98
0.008648578970323069
% es.normE (V/m) @ t=1
27.80285362315441
% es.EX (V/m) @ t=1
-13.129960744694685
% es.EY (V/m) @ t=1
10.534370605157854
% es.EZ (V/m) @ t=1
12.628330267874372
% es.tEX (V/m) @ t=1
-13.129960744694692
% es.tEY (V/m) @ t=1
0
% es.tEZ (V/m) @ t=1
12.628330267874361
% es.Ex (V/m) @ t=1
-13.129960744694685
% es.Ey (V/m) @ t=1
10.534370605157854
% es.Ez (V/m) @ t=1
12.628330267874372
% es.tEx (V/m) @ t=1
-13.129960744694692
% es.tEy (V/m) @ t=1
0
% es.tEz (V/m) @ t=1
12.628330267874361
% V (V) @ t=1
0.008725822567231142
% es.normE (V/m) @ t=1.02
28.048968947962074
% es.EX (V/m) @ t=1.02
-13.246178512123869
% es.EY (V/m) @ t=1.02
10.627619599102449
% es.EZ (V/m) @ t=1.02
12.740129670371228
% es.tEX (V/m) @ t=1.02
-13.24617851212382
% es.tEY (V/m) @ t=1.02
0
% es.tEZ (V/m) @ t=1.02
12.740129670371232
% es.Ex (V/m) @ t=1.02
-13.246178512123869
% es.Ey (V/m) @ t=1.02
10.627619599102449
% es.Ez (V/m) @ t=1.02
12.740129670371228
% es.tEx (V/m) @ t=1.02
-13.24617851212382
% es.tEy (V/m) @ t=1.02
0
% es.tEz (V/m) @ t=1.02
12.740129670371232
% V (V) @ t=1.02
0.008803066164139216
% es.normE (V/m) @ t=1.04
28.295084272779206
% es.EX (V/m) @ t=1.04
-13.362396279552996
% es.EY (V/m) @ t=1.04
10.720868593047086
% es.EZ (V/m) @ t=1.04
12.851929072868131
% es.tEX (V/m) @ t=1.04
-13.362396279552996
% es.tEY (V/m) @ t=1.04
0
% es.tEZ (V/m) @ t=1.04
12.851929072868131
% es.Ex (V/m) @ t=1.04
-13.362396279552996
% es.Ey (V/m) @ t=1.04
10.720868593047086
% es.Ez (V/m) @ t=1.04
12.851929072868131
% es.tEx (V/m) @ t=1.04
-13.362396279552996
% es.tEy (V/m) @ t=1.04
0
% es.tEz (V/m) @ t=1.04
12.851929072868131
% V (V) @ t=1.04
0.008880309761047287