% Model:              1 neuron.mph
% Version:            COMSOL 6.1.0.252
% Date:               Mar 18 2023, 11:49
% Dimension:          0
% Nodes:              14017
% Expressions:        14017
% Description:        Electric field norm, Electric field, X component, Electric field, Y component, Electric field, Z component, Tangential electric field, X component, Tangential electric field, Y component, Tangential electric field, Z component, Electric field, x component, Electric field, y component, Electric field, z component, Tangential electric field, x component, Tangential electric field, y component, Tangential electric field, z component, Electric potential
% Length unit:        mm
% x
1
% y
12.2
% z
1.6599999999999997
% es.normE (V/m) @ t=0
1.5701560085834845
% es.EX (V/m) @ t=0
1.4056177328979218
% es.EY (V/m) @ t=0
0.054082225598141215
% es.EZ (V/m) @ t=0
-0.6976415696893801
% es.tEX (V/m) @ t=0
1.4056177328979214
% es.tEY (V/m) @ t=0
0
% es.tEZ (V/m) @ t=0
-0.6976415696893739
% es.Ex (V/m) @ t=0
1.4056177328979218
% es.Ey (V/m) @ t=0
0.054082225598141215
% es.Ez (V/m) @ t=0
-0.6976415696893801
% es.tEx (V/m) @ t=0
1.4056177328979214
% es.tEy (V/m) @ t=0
0
% es.tEz (V/m) @ t=0
-0.6976415696893739
% V (V) @ t=0
0.007123777839011719
% es.normE (V/m) @ t=0.02
1.3561558648160092
% es.EX (V/m) @ t=0.02
1.2140428867834419
% es.EY (V/m) @ t=0.02
0.04671123680929801
% es.EZ (V/m) @ t=0.02
-0.6025584072834107
% es.tEX (V/m) @ t=0.02
1.2140428867834436
% es.tEY (V/m) @ t=0.02
0
% es.tEZ (V/m) @ t=0.02
-0.6025584072834036
% es.Ex (V/m) @ t=0.02
1.2140428867834419
% es.Ey (V/m) @ t=0.02
0.04671123680929801
% es.Ez (V/m) @ t=0.02
-0.6025584072834107
% es.tEx (V/m) @ t=0.02
1.2140428867834436
% es.tEy (V/m) @ t=0.02
0
% es.tEz (V/m) @ t=0.02
-0.6025584072834036
% V (V) @ t=0.02
0.006152861862461032
% es.normE (V/m) @ t=0.04
1.3686247756409227
% es.EX (V/m) @ t=0.04
1.2252051687599423
% es.EY (V/m) @ t=0.04
0.04714071618147056
% es.EZ (V/m) @ t=0.04
-0.6080985104956056
% es.tEX (V/m) @ t=0.04
1.2252051687599383
% es.tEY (V/m) @ t=0.04
0
% es.tEZ (V/m) @ t=0.04
-0.6080985104956014
% es.Ex (V/m) @ t=0.04
1.2252051687599423
% es.Ey (V/m) @ t=0.04
0.04714071618147056
% es.Ez (V/m) @ t=0.04
-0.6080985104956056
% es.tEx (V/m) @ t=0.04
1.2252051687599383
% es.tEy (V/m) @ t=0.04
0
% es.tEz (V/m) @ t=0.04
-0.6080985104956014
% V (V) @ t=0.04
0.0062094330717097765
% es.normE (V/m) @ t=0.06
1.3812101082281083
% es.EX (V/m) @ t=0.06
1.2364716714833663
% es.EY (V/m) @ t=0.06
0.047574203733757675
% es.EZ (V/m) @ t=0.06
-0.6136903437470228
% es.tEX (V/m) @ t=0.06
1.2364716714833581
% es.tEY (V/m) @ t=0.06
0
% es.tEZ (V/m) @ t=0.06
-0.6136903437470203
% es.Ex (V/m) @ t=0.06
1.2364716714833663
% es.Ey (V/m) @ t=0.06
0.047574203733757675
% es.Ez (V/m) @ t=0.06
-0.6136903437470228
% es.tEx (V/m) @ t=0.06
1.2364716714833581
% es.tEy (V/m) @ t=0.06
0
% es.tEz (V/m) @ t=0.06
-0.6136903437470203
% V (V) @ t=0.06
0.0062665325561104875
% es.normE (V/m) @ t=0.08
1.3939779889821433
% es.EX (V/m) @ t=0.08
1.2479015936259088
% es.EY (V/m) @ t=0.08
0.04801398016670705
% es.EZ (V/m) @ t=0.08
-0.6193632841880587
% es.tEX (V/m) @ t=0.08
1.2479015936259072
% es.tEY (V/m) @ t=0.08
0
% es.tEZ (V/m) @ t=0.08
-0.6193632841880437
% es.Ex (V/m) @ t=0.08
1.2479015936259088
% es.Ey (V/m) @ t=0.08
0.04801398016670705
% es.Ez (V/m) @ t=0.08
-0.6193632841880587
% es.tEx (V/m) @ t=0.08
1.2479015936259072
% es.tEy (V/m) @ t=0.08
0
% es.tEz (V/m) @ t=0.08
-0.6193632841880437
% V (V) @ t=0.08
0.006324460213291563
% es.normE (V/m) @ t=0.1
1.4068923591122808
% es.EX (V/m) @ t=0.1
1.2594626549037549
% es.EY (V/m) @ t=0.1
0.04845880323597712
% es.EZ (V/m) @ t=0.1
-0.625101310692707
% es.tEX (V/m) @ t=0.1
1.2594626549037549
% es.tEY (V/m) @ t=0.1
0
% es.tEZ (V/m) @ t=0.1
-0.6251013106927061
% es.Ex (V/m) @ t=0.1
1.2594626549037549
% es.Ey (V/m) @ t=0.1
0.04845880323597712
% es.Ez (V/m) @ t=0.1
-0.625101310692707
% es.tEx (V/m) @ t=0.1
1.2594626549037549
% es.tEy (V/m) @ t=0.1
0
% es.tEz (V/m) @ t=0.1
-0.6251013106927061
% V (V) @ t=0.1
0.006383052454050832
% es.normE (V/m) @ t=0.12
1.419806729242425
% es.EX (V/m) @ t=0.12
1.2710237161816056
% es.EY (V/m) @ t=0.12
0.04890362630524148
% es.EZ (V/m) @ t=0.12
-0.6308393371973608
% es.tEX (V/m) @ t=0.12
1.2710237161816056
% es.tEY (V/m) @ t=0.12
0
% es.tEZ (V/m) @ t=0.12
-0.6308393371973651
% es.Ex (V/m) @ t=0.12
1.2710237161816056
% es.Ey (V/m) @ t=0.12
0.04890362630524148
% es.Ez (V/m) @ t=0.12
-0.6308393371973608
% es.tEx (V/m) @ t=0.12
1.2710237161816056
% es.tEy (V/m) @ t=0.12
0
% es.tEz (V/m) @ t=0.12
-0.6308393371973651
% V (V) @ t=0.12
0.006441644694810102
% es.normE (V/m) @ t=0.14
1.4328044600447256
% es.EX (V/m) @ t=0.14
1.2826594017443158
% es.EY (V/m) @ t=0.14
0.0493513190591828
% es.EZ (V/m) @ t=0.14
-0.6366144039853956
% es.tEX (V/m) @ t=0.14
1.2826594017443185
% es.tEY (V/m) @ t=0.14
0
% es.tEZ (V/m) @ t=0.14
-0.63661440398538
% es.Ex (V/m) @ t=0.14
1.2826594017443158
% es.Ey (V/m) @ t=0.14
0.0493513190591828
% es.Ez (V/m) @ t=0.14
-0.6366144039853956
% es.tEx (V/m) @ t=0.14
1.2826594017443185
% es.tEy (V/m) @ t=0.14
0
% es.tEz (V/m) @ t=0.14
-0.63661440398538
% V (V) @ t=0.14
0.00650061520368527
% es.normE (V/m) @ t=0.16
1.4464155195088124
% es.EX (V/m) @ t=0.16
1.2948441377356306
% es.EY (V/m) @ t=0.16
0.0498201256046992
% es.EZ (V/m) @ t=0.16
-0.6426619957763768
% es.tEX (V/m) @ t=0.16
1.2948441377356277
% es.tEY (V/m) @ t=0.16
0
% es.tEZ (V/m) @ t=0.16
-0.642661995776372
% es.Ex (V/m) @ t=0.16
1.2948441377356306
% es.Ey (V/m) @ t=0.16
0.0498201256046992
% es.Ez (V/m) @ t=0.16
-0.6426619957763768
% es.tEx (V/m) @ t=0.16
1.2948441377356277
% es.tEy (V/m) @ t=0.16
0
% es.tEz (V/m) @ t=0.16
-0.642661995776372
% V (V) @ t=0.16
0.006562368831642241
% es.normE (V/m) @ t=0.18
1.460026578972911
% es.EX (V/m) @ t=0.18
1.3070288737269502
% es.EY (V/m) @ t=0.18
0.050288932150232446
% es.EZ (V/m) @ t=0.18
-0.6487095875673723
% es.tEX (V/m) @ t=0.18
1.3070288737269506
% es.tEY (V/m) @ t=0.18
0
% es.tEZ (V/m) @ t=0.18
-0.6487095875673816
% es.Ex (V/m) @ t=0.18
1.3070288737269502
% es.Ey (V/m) @ t=0.18
0.050288932150232446
% es.Ez (V/m) @ t=0.18
-0.6487095875673723
% es.tEx (V/m) @ t=0.18
1.3070288737269506
% es.tEy (V/m) @ t=0.18
0
% es.tEz (V/m) @ t=0.18
-0.6487095875673816
% V (V) @ t=0.18
0.006624122459599213
% es.normE (V/m) @ t=0.2
1.4736376384370078
% es.EX (V/m) @ t=0.2
1.3192136097182647
% es.EY (V/m) @ t=0.2
0.05075773869575373
% es.EZ (V/m) @ t=0.2
-0.6547571793583749
% es.tEX (V/m) @ t=0.2
1.3192136097182674
% es.tEY (V/m) @ t=0.2
0
% es.tEZ (V/m) @ t=0.2
-0.6547571793583664
% es.Ex (V/m) @ t=0.2
1.3192136097182647
% es.Ey (V/m) @ t=0.2
0.05075773869575373
% es.Ez (V/m) @ t=0.2
-0.6547571793583749
% es.tEx (V/m) @ t=0.2
1.3192136097182674
% es.tEy (V/m) @ t=0.2
0
% es.tEz (V/m) @ t=0.2
-0.6547571793583664
% V (V) @ t=0.2
0.006685876087556183
% es.normE (V/m) @ t=0.22
1.4872486979010933
% es.EX (V/m) @ t=0.22
1.3313983457095737
% es.EY (V/m) @ t=0.22
0.05122654524128609
% es.EZ (V/m) @ t=0.22
-0.6608047711493614
% es.tEX (V/m) @ t=0.22
1.3313983457095726
% es.tEY (V/m) @ t=0.22
0
% es.tEZ (V/m) @ t=0.22
-0.6608047711493583
% es.Ex (V/m) @ t=0.22
1.3313983457095737
% es.Ey (V/m) @ t=0.22
0.05122654524128609
% es.Ez (V/m) @ t=0.22
-0.6608047711493614
% es.tEx (V/m) @ t=0.22
1.3313983457095726
% es.tEy (V/m) @ t=0.22
0
% es.tEz (V/m) @ t=0.22
-0.6608047711493583
% V (V) @ t=0.22
0.006747629715513154
% es.normE (V/m) @ t=0.24
1.500859757365193
% es.EX (V/m) @ t=0.24
1.3435830817008936
% es.EY (V/m) @ t=0.24
0.05169535178680382
% es.EZ (V/m) @ t=0.24
-0.6668523629403587
% es.tEX (V/m) @ t=0.24
1.3435830817008996
% es.tEY (V/m) @ t=0.24
0
% es.tEZ (V/m) @ t=0.24
-0.6668523629403573
% es.Ex (V/m) @ t=0.24
1.3435830817008936
% es.Ey (V/m) @ t=0.24
0.05169535178680382
% es.Ez (V/m) @ t=0.24
-0.6668523629403587
% es.tEx (V/m) @ t=0.24
1.3435830817008996
% es.tEy (V/m) @ t=0.24
0
% es.tEz (V/m) @ t=0.24
-0.6668523629403573
% V (V) @ t=0.24
0.006809383343470124
% es.normE (V/m) @ t=0.26
1.5144708168292929
% es.EX (V/m) @ t=0.26
1.3557678176922152
% es.EY (V/m) @ t=0.26
0.052164158332328625
% es.EZ (V/m) @ t=0.26
-0.6728999547313523
% es.tEX (V/m) @ t=0.26
1.3557678176922048
% es.tEY (V/m) @ t=0.26
0
% es.tEZ (V/m) @ t=0.26
-0.6728999547313599
% es.Ex (V/m) @ t=0.26
1.3557678176922152
% es.Ey (V/m) @ t=0.26
0.052164158332328625
% es.Ez (V/m) @ t=0.26
-0.6728999547313523
% es.tEx (V/m) @ t=0.26
1.3557678176922048
% es.tEy (V/m) @ t=0.26
0
% es.tEz (V/m) @ t=0.26
-0.6728999547313599
% V (V) @ t=0.26
0.006871136971427095
% es.normE (V/m) @ t=0.28
1.5284734590404205
% es.EX (V/m) @ t=0.28
1.3683030634594484
% es.EY (V/m) @ t=0.28
0.052646386732397715
% es.EZ (V/m) @ t=0.28
-0.6791216149251834
% es.tEX (V/m) @ t=0.28
1.3683030634594515
% es.tEY (V/m) @ t=0.28
0
% es.tEZ (V/m) @ t=0.28
-0.6791216149251795
% es.Ex (V/m) @ t=0.28
1.3683030634594484
% es.Ey (V/m) @ t=0.28
0.052646386732397715
% es.Ez (V/m) @ t=0.28
-0.6791216149251834
% es.tEx (V/m) @ t=0.28
1.3683030634594515
% es.tEy (V/m) @ t=0.28
0
% es.tEz (V/m) @ t=0.28
-0.6791216149251795
% V (V) @ t=0.28
0.006934669769285088
% es.normE (V/m) @ t=0.3
1.5436548126634921
% es.EX (V/m) @ t=0.3
1.3818933860296743
% es.EY (V/m) @ t=0.3
0.05316901653736619
% es.EZ (V/m) @ t=0.3
-0.6858672420568147
% es.tEX (V/m) @ t=0.3
1.3818933860296716
% es.tEY (V/m) @ t=0.3
0
% es.tEZ (V/m) @ t=0.3
-0.6858672420568119
% es.Ex (V/m) @ t=0.3
1.3818933860296743
% es.Ey (V/m) @ t=0.3
0.05316901653736619
% es.Ez (V/m) @ t=0.3
-0.6858672420568147
% es.tEx (V/m) @ t=0.3
1.3818933860296716
% es.tEy (V/m) @ t=0.3
0
% es.tEz (V/m) @ t=0.3
-0.6858672420568119
% V (V) @ t=0.3
0.007003558083650948
% es.normE (V/m) @ t=0.32
1.558836166286706
% es.EX (V/m) @ t=0.32
1.3954837085998966
% es.EY (V/m) @ t=0.32
0.05369164634233686
% es.EZ (V/m) @ t=0.32
-0.6926128691884585
% es.tEX (V/m) @ t=0.32
1.3954837085998992
% es.tEY (V/m) @ t=0.32
0
% es.tEZ (V/m) @ t=0.32
-0.692612869188455
% es.Ex (V/m) @ t=0.32
1.3954837085998966
% es.Ey (V/m) @ t=0.32
0.05369164634233686
% es.Ez (V/m) @ t=0.32
-0.6926128691884585
% es.tEx (V/m) @ t=0.32
1.3954837085998992
% es.tEy (V/m) @ t=0.32
0
% es.tEz (V/m) @ t=0.32
-0.692612869188455
% V (V) @ t=0.32
0.0070724463980168075
% es.normE (V/m) @ t=0.34
1.5740175199100546
% es.EX (V/m) @ t=0.34
1.4090740311701246
% es.EY (V/m) @ t=0.34
0.05421427614728755
% es.EZ (V/m) @ t=0.34
-0.6993584963200916
% es.tEX (V/m) @ t=0.34
1.4090740311701229
% es.tEY (V/m) @ t=0.34
0
% es.tEZ (V/m) @ t=0.34
-0.6993584963200874
% es.Ex (V/m) @ t=0.34
1.4090740311701246
% es.Ey (V/m) @ t=0.34
0.05421427614728755
% es.Ez (V/m) @ t=0.34
-0.6993584963200916
% es.tEx (V/m) @ t=0.34
1.4090740311701229
% es.tEy (V/m) @ t=0.34
0
% es.tEz (V/m) @ t=0.34
-0.6993584963200874
% V (V) @ t=0.34
0.007141334712382668
% es.normE (V/m) @ t=0.36
1.589198873533526
% es.EX (V/m) @ t=0.36
1.4226643537403454
% es.EY (V/m) @ t=0.36
0.054736905952245785
% es.EZ (V/m) @ t=0.36
-0.7061041234517194
% es.tEX (V/m) @ t=0.36
1.4226643537403438
% es.tEY (V/m) @ t=0.36
0
% es.tEZ (V/m) @ t=0.36
-0.7061041234517091
% es.Ex (V/m) @ t=0.36
1.4226643537403454
% es.Ey (V/m) @ t=0.36
0.054736905952245785
% es.Ez (V/m) @ t=0.36
-0.7061041234517194
% es.tEx (V/m) @ t=0.36
1.4226643537403438
% es.tEy (V/m) @ t=0.36
0
% es.tEz (V/m) @ t=0.36
-0.7061041234517091
% V (V) @ t=0.36
0.007210223026748528
% es.normE (V/m) @ t=0.38
1.604380227157146
% es.EX (V/m) @ t=0.38
1.4362546763105801
% es.EY (V/m) @ t=0.38
0.05525953575721426
% es.EZ (V/m) @ t=0.38
-0.7128497505833649
% es.tEX (V/m) @ t=0.38
1.4362546763105746
% es.tEY (V/m) @ t=0.38
0
% es.tEZ (V/m) @ t=0.38
-0.7128497505833629
% es.Ex (V/m) @ t=0.38
1.4362546763105801
% es.Ey (V/m) @ t=0.38
0.05525953575721426
% es.Ez (V/m) @ t=0.38
-0.7128497505833649
% es.tEx (V/m) @ t=0.38
1.4362546763105746
% es.tEy (V/m) @ t=0.38
0
% es.tEz (V/m) @ t=0.38
-0.7128497505833629
% V (V) @ t=0.38
0.007279111341114388
% es.normE (V/m) @ t=0.4
1.6195615807808557
% es.EX (V/m) @ t=0.4
1.4498449988807878
% es.EY (V/m) @ t=0.4
0.055782165562163616
% es.EZ (V/m) @ t=0.4
-0.719595377714989
% es.tEX (V/m) @ t=0.4
1.449844998880791
% es.tEY (V/m) @ t=0.4
0
% es.tEZ (V/m) @ t=0.4
-0.7195953777149846
% es.Ex (V/m) @ t=0.4
1.4498449988807878
% es.Ey (V/m) @ t=0.4
0.055782165562163616
% es.Ez (V/m) @ t=0.4
-0.719595377714989
% es.tEx (V/m) @ t=0.4
1.449844998880791
% es.tEy (V/m) @ t=0.4
0
% es.tEz (V/m) @ t=0.4
-0.7195953777149846
% V (V) @ t=0.4
0.007347999655480248
% es.normE (V/m) @ t=0.42
1.6347429344047069
% es.EX (V/m) @ t=0.42
1.463435321451014
% es.EY (V/m) @ t=0.42
0.05630479536711655
% es.EZ (V/m) @ t=0.42
-0.7263410048466221
% es.tEX (V/m) @ t=0.42
1.4634353214510156
% es.tEY (V/m) @ t=0.42
0
% es.tEZ (V/m) @ t=0.42
-0.726341004846617
% es.Ex (V/m) @ t=0.42
1.463435321451014
% es.Ey (V/m) @ t=0.42
0.05630479536711655
% es.Ez (V/m) @ t=0.42
-0.7263410048466221
% es.tEx (V/m) @ t=0.42
1.4634353214510156
% es.tEy (V/m) @ t=0.42
0
% es.tEz (V/m) @ t=0.42
-0.726341004846617
% V (V) @ t=0.42
0.0074168879698461075
% es.normE (V/m) @ t=0.44
1.6499242880286715
% es.EX (V/m) @ t=0.44
1.4770256440212364
% es.EY (V/m) @ t=0.44
0.056827425172086776
% es.EZ (V/m) @ t=0.44
-0.7330866319782534
% es.tEX (V/m) @ t=0.44
1.4770256440212348
% es.tEY (V/m) @ t=0.44
0
% es.tEZ (V/m) @ t=0.44
-0.7330866319782494
% es.Ex (V/m) @ t=0.44
1.4770256440212364
% es.Ey (V/m) @ t=0.44
0.056827425172086776
% es.Ez (V/m) @ t=0.44
-0.7330866319782534
% es.tEx (V/m) @ t=0.44
1.4770256440212348
% es.tEy (V/m) @ t=0.44
0
% es.tEz (V/m) @ t=0.44
-0.7330866319782494
% V (V) @ t=0.44
0.007485776284211968
% es.normE (V/m) @ t=0.46
1.6651056416527579
% es.EX (V/m) @ t=0.46
1.4906159665914624
% es.EY (V/m) @ t=0.46
0.057350054977043236
% es.EZ (V/m) @ t=0.46
-0.7398322591098954
% es.tEX (V/m) @ t=0.46
1.4906159665914593
% es.tEY (V/m) @ t=0.46
0
% es.tEZ (V/m) @ t=0.46
-0.7398322591098854
% es.Ex (V/m) @ t=0.46
1.4906159665914624
% es.Ey (V/m) @ t=0.46
0.057350054977043236
% es.Ez (V/m) @ t=0.46
-0.7398322591098954
% es.tEx (V/m) @ t=0.46
1.4906159665914593
% es.tEy (V/m) @ t=0.46
0
% es.tEz (V/m) @ t=0.46
-0.7398322591098854
% V (V) @ t=0.46
0.007554664598577829
% es.normE (V/m) @ t=0.48
1.6802869952769546
% es.EX (V/m) @ t=0.48
1.5042062891616903
% es.EY (V/m) @ t=0.48
0.05787268478200819
% es.EZ (V/m) @ t=0.48
-0.746577886241532
% es.tEX (V/m) @ t=0.48
1.5042062891616865
% es.tEY (V/m) @ t=0.48
0
% es.tEZ (V/m) @ t=0.48
-0.7465778862415249
% es.Ex (V/m) @ t=0.48
1.5042062891616903
% es.Ey (V/m) @ t=0.48
0.05787268478200819
% es.Ez (V/m) @ t=0.48
-0.746577886241532
% es.tEx (V/m) @ t=0.48
1.5042062891616865
% es.tEy (V/m) @ t=0.48
0
% es.tEz (V/m) @ t=0.48
-0.7465778862415249
% V (V) @ t=0.48
0.00762355291294369
% es.normE (V/m) @ t=0.5
1.695468348901242
% es.EX (V/m) @ t=0.5
1.517796611731904
% es.EY (V/m) @ t=0.5
0.05839531458697575
% es.EZ (V/m) @ t=0.5
-0.753323513373158
% es.tEX (V/m) @ t=0.5
1.5177966117319004
% es.tEY (V/m) @ t=0.5
0
% es.tEZ (V/m) @ t=0.5
-0.7533235133731537
% es.Ex (V/m) @ t=0.5
1.517796611731904
% es.Ey (V/m) @ t=0.5
0.05839531458697575
% es.Ez (V/m) @ t=0.5
-0.753323513373158
% es.tEx (V/m) @ t=0.5
1.5177966117319004
% es.tEy (V/m) @ t=0.5
0
% es.tEz (V/m) @ t=0.5
-0.7533235133731537
% V (V) @ t=0.5
0.007692441227309549
% es.normE (V/m) @ t=0.52
1.7106497025256546
% es.EX (V/m) @ t=0.52
1.5313869343021351
% es.EY (V/m) @ t=0.52
0.05891794439192599
% es.EZ (V/m) @ t=0.52
-0.7600691405047946
% es.tEX (V/m) @ t=0.52
1.5313869343021347
% es.tEY (V/m) @ t=0.52
0
% es.tEZ (V/m) @ t=0.52
-0.7600691405047932
% es.Ex (V/m) @ t=0.52
1.5313869343021351
% es.Ey (V/m) @ t=0.52
0.05891794439192599
% es.Ez (V/m) @ t=0.52
-0.7600691405047946
% es.tEx (V/m) @ t=0.52
1.5313869343021347
% es.tEy (V/m) @ t=0.52
0
% es.tEz (V/m) @ t=0.52
-0.7600691405047932
% V (V) @ t=0.52
0.007761329541675409
% es.normE (V/m) @ t=0.54
1.7258310561501682
% es.EX (V/m) @ t=0.54
1.544977256872361
% es.EY (V/m) @ t=0.54
0.05944057419688245
% es.EZ (V/m) @ t=0.54
-0.7668147676364383
% es.tEX (V/m) @ t=0.54
1.5449772568723583
% es.tEY (V/m) @ t=0.54
0
% es.tEZ (V/m) @ t=0.54
-0.7668147676364327
% es.Ex (V/m) @ t=0.54
1.544977256872361
% es.Ey (V/m) @ t=0.54
0.05944057419688245
% es.Ez (V/m) @ t=0.54
-0.7668147676364383
% es.tEx (V/m) @ t=0.54
1.5449772568723583
% es.tEy (V/m) @ t=0.54
0
% es.tEz (V/m) @ t=0.54
-0.7668147676364327
% V (V) @ t=0.54
0.00783021785604127
% es.normE (V/m) @ t=0.56
1.741918577806684
% es.EX (V/m) @ t=0.56
1.5593788044760826
% es.EY (V/m) @ t=0.56
0.05999444237648088
% es.EZ (V/m) @ t=0.56
-0.7739629846368876
% es.tEX (V/m) @ t=0.56
1.559378804476081
% es.tEY (V/m) @ t=0.56
0
% es.tEZ (V/m) @ t=0.56
-0.773962984636885
% es.Ex (V/m) @ t=0.56
1.5593788044760826
% es.Ey (V/m) @ t=0.56
0.05999444237648088
% es.Ez (V/m) @ t=0.56
-0.7739629846368876
% es.tEx (V/m) @ t=0.56
1.559378804476081
% es.tEy (V/m) @ t=0.56
0
% es.tEz (V/m) @ t=0.56
-0.773962984636885
% V (V) @ t=0.56
0.007903216416020981
% es.normE (V/m) @ t=0.58
1.758880915157215
% es.EX (V/m) @ t=0.58
1.5745635096903485
% es.EY (V/m) @ t=0.58
0.060578468120066814
% es.EZ (V/m) @ t=0.58
-0.7814998623747207
% es.tEX (V/m) @ t=0.58
1.5745635096903454
% es.tEY (V/m) @ t=0.58
0
% es.tEZ (V/m) @ t=0.58
-0.7814998623747123
% es.Ex (V/m) @ t=0.58
1.5745635096903485
% es.Ey (V/m) @ t=0.58
0.060578468120066814
% es.Ez (V/m) @ t=0.58
-0.7814998623747207
% es.tEx (V/m) @ t=0.58
1.5745635096903454
% es.tEy (V/m) @ t=0.58
0
% es.tEz (V/m) @ t=0.58
-0.7814998623747123
% V (V) @ t=0.58
0.007980183011996728
% es.normE (V/m) @ t=0.6
1.7758432525078307
% es.EX (V/m) @ t=0.6
1.5897482149046396
% es.EY (V/m) @ t=0.6
0.061162493863623435
% es.EZ (V/m) @ t=0.6
-0.7890367401125697
% es.tEX (V/m) @ t=0.6
1.5897482149046391
% es.tEY (V/m) @ t=0.6
0
% es.tEZ (V/m) @ t=0.6
-0.7890367401125644
% es.Ex (V/m) @ t=0.6
1.5897482149046396
% es.Ey (V/m) @ t=0.6
0.061162493863623435
% es.Ez (V/m) @ t=0.6
-0.7890367401125697
% es.tEx (V/m) @ t=0.6
1.5897482149046391
% es.tEy (V/m) @ t=0.6
0
% es.tEz (V/m) @ t=0.6
-0.7890367401125644
% V (V) @ t=0.6
0.008057149607972476
% es.normE (V/m) @ t=0.62
1.792805589858496
% es.EX (V/m) @ t=0.62
1.6049329201189273
% es.EY (V/m) @ t=0.62
0.06174651960720981
% es.EZ (V/m) @ t=0.62
-0.7965736178504135
% es.tEX (V/m) @ t=0.62
1.6049329201189293
% es.tEY (V/m) @ t=0.62
0
% es.tEZ (V/m) @ t=0.62
-0.7965736178504095
% es.Ex (V/m) @ t=0.62
1.6049329201189273
% es.Ey (V/m) @ t=0.62
0.06174651960720981
% es.Ez (V/m) @ t=0.62
-0.7965736178504135
% es.tEx (V/m) @ t=0.62
1.6049329201189293
% es.tEy (V/m) @ t=0.62
0
% es.tEz (V/m) @ t=0.62
-0.7965736178504095
% V (V) @ t=0.62
0.008134116203948225
% es.normE (V/m) @ t=0.64
1.8097679272091947
% es.EX (V/m) @ t=0.64
1.6201176253332008
% es.EY (V/m) @ t=0.64
0.06233054535077712
% es.EZ (V/m) @ t=0.64
-0.804110495588243
% es.tEX (V/m) @ t=0.64
1.6201176253331973
% es.tEY (V/m) @ t=0.64
0
% es.tEZ (V/m) @ t=0.64
-0.8041104955882439
% es.Ex (V/m) @ t=0.64
1.6201176253332008
% es.Ey (V/m) @ t=0.64
0.06233054535077712
% es.Ez (V/m) @ t=0.64
-0.804110495588243
% es.tEx (V/m) @ t=0.64
1.6201176253331973
% es.tEy (V/m) @ t=0.64
0
% es.tEz (V/m) @ t=0.64
-0.8041104955882439
% V (V) @ t=0.64
0.008211082799923972
% es.normE (V/m) @ t=0.66
1.8267302645599612
% es.EX (V/m) @ t=0.66
1.6353023305474839
% es.EY (V/m) @ t=0.66
0.06291457109435505
% es.EZ (V/m) @ t=0.66
-0.8116473733260903
% es.tEX (V/m) @ t=0.66
1.6353023305474794
% es.tEY (V/m) @ t=0.66
0
% es.tEZ (V/m) @ t=0.66
-0.8116473733260925
% es.Ex (V/m) @ t=0.66
1.6353023305474839
% es.Ey (V/m) @ t=0.66
0.06291457109435505
% es.Ez (V/m) @ t=0.66
-0.8116473733260903
% es.tEx (V/m) @ t=0.66
1.6353023305474794
% es.tEy (V/m) @ t=0.66
0
% es.tEz (V/m) @ t=0.66
-0.8116473733260925
% V (V) @ t=0.66
0.008288049395899721
% es.normE (V/m) @ t=0.68
1.8436926019107656
% es.EX (V/m) @ t=0.68
1.6504870357617576
% es.EY (V/m) @ t=0.68
0.06349859683792633
% es.EZ (V/m) @ t=0.68
-0.8191842510639304
% es.tEX (V/m) @ t=0.68
1.6504870357617625
% es.tEY (V/m) @ t=0.68
0
% es.tEZ (V/m) @ t=0.68
-0.8191842510639269
% es.Ex (V/m) @ t=0.68
1.6504870357617576
% es.Ey (V/m) @ t=0.68
0.06349859683792633
% es.Ez (V/m) @ t=0.68
-0.8191842510639304
% es.tEx (V/m) @ t=0.68
1.6504870357617625
% es.tEy (V/m) @ t=0.68
0
% es.tEz (V/m) @ t=0.68
-0.8191842510639269
% V (V) @ t=0.68
0.00836501599187547
% es.normE (V/m) @ t=0.7
1.8606549392616298
% es.EX (V/m) @ t=0.7
1.6656717409760415
% es.EY (V/m) @ t=0.7
0.06408262258151673
% es.EZ (V/m) @ t=0.7
-0.8267211288017724
% es.tEX (V/m) @ t=0.7
1.6656717409760384
% es.tEY (V/m) @ t=0.7
0
% es.tEZ (V/m) @ t=0.7
-0.8267211288017684
% es.Ex (V/m) @ t=0.7
1.6656717409760415
% es.Ey (V/m) @ t=0.7
0.06408262258151673
% es.Ez (V/m) @ t=0.7
-0.8267211288017724
% es.tEx (V/m) @ t=0.7
1.6656717409760384
% es.tEy (V/m) @ t=0.7
0
% es.tEz (V/m) @ t=0.7
-0.8267211288017684
% V (V) @ t=0.7
0.008441982587851218
% es.normE (V/m) @ t=0.72
1.8776172766125552
% es.EX (V/m) @ t=0.72
1.6808564461903364
% es.EY (V/m) @ t=0.72
0.06466664832507998
% es.EZ (V/m) @ t=0.72
-0.8342580065396268
% es.tEX (V/m) @ t=0.72
1.6808564461903348
% es.tEY (V/m) @ t=0.72
0
% es.tEZ (V/m) @ t=0.72
-0.8342580065396135
% es.Ex (V/m) @ t=0.72
1.6808564461903364
% es.Ey (V/m) @ t=0.72
0.06466664832507998
% es.Ez (V/m) @ t=0.72
-0.8342580065396268
% es.tEx (V/m) @ t=0.72
1.6808564461903348
% es.tEy (V/m) @ t=0.72
0
% es.tEz (V/m) @ t=0.72
-0.8342580065396135
% V (V) @ t=0.72
0.008518949183826965
% es.normE (V/m) @ t=0.74
1.8945796139635043
% es.EX (V/m) @ t=0.74
1.69604115140462
% es.EY (V/m) @ t=0.74
0.06525067406865795
% es.EZ (V/m) @ t=0.74
-0.8417948842774527
% es.tEX (V/m) @ t=0.74
1.6960411514046179
% es.tEY (V/m) @ t=0.74
0
% es.tEZ (V/m) @ t=0.74
-0.8417948842774585
% es.Ex (V/m) @ t=0.74
1.69604115140462
% es.Ey (V/m) @ t=0.74
0.06525067406865795
% es.Ez (V/m) @ t=0.74
-0.8417948842774527
% es.tEx (V/m) @ t=0.74
1.6960411514046179
% es.tEy (V/m) @ t=0.74
0
% es.tEz (V/m) @ t=0.74
-0.8417948842774585
% V (V) @ t=0.74
0.008595915779802715
% es.normE (V/m) @ t=0.76
1.9115419513145073
% es.EX (V/m) @ t=0.76
1.7112258566189043
% es.EY (V/m) @ t=0.76
0.06583469981223991
% es.EZ (V/m) @ t=0.76
-0.8493317620152983
% es.tEX (V/m) @ t=0.76
1.7112258566188938
% es.tEY (V/m) @ t=0.76
0
% es.tEZ (V/m) @ t=0.76
-0.8493317620152965
% es.Ex (V/m) @ t=0.76
1.7112258566189043
% es.Ey (V/m) @ t=0.76
0.06583469981223991
% es.Ez (V/m) @ t=0.76
-0.8493317620152983
% es.tEx (V/m) @ t=0.76
1.7112258566188938
% es.tEy (V/m) @ t=0.76
0
% es.tEz (V/m) @ t=0.76
-0.8493317620152965
% V (V) @ t=0.76
0.008672882375778462
% es.normE (V/m) @ t=0.78
1.9285042886655503
% es.EX (V/m) @ t=0.78
1.7264105618331849
% es.EY (V/m) @ t=0.78
0.06641872555580894
% es.EZ (V/m) @ t=0.78
-0.8568686397531436
% es.tEX (V/m) @ t=0.78
1.7264105618331769
% es.tEY (V/m) @ t=0.78
0
% es.tEZ (V/m) @ t=0.78
-0.8568686397531309
% es.Ex (V/m) @ t=0.78
1.7264105618331849
% es.Ey (V/m) @ t=0.78
0.06641872555580894
% es.Ez (V/m) @ t=0.78
-0.8568686397531436
% es.tEx (V/m) @ t=0.78
1.7264105618331769
% es.tEy (V/m) @ t=0.78
0
% es.tEz (V/m) @ t=0.78
-0.8568686397531309
% V (V) @ t=0.78
0.00874984897175421
% es.normE (V/m) @ t=0.8
1.9454666260166278
% es.EX (V/m) @ t=0.8
1.7415952670474608
% es.EY (V/m) @ t=0.8
0.06700275129935848
% es.EZ (V/m) @ t=0.8
-0.864405517490982
% es.tEX (V/m) @ t=0.8
1.7415952670474582
% es.tEY (V/m) @ t=0.8
0
% es.tEZ (V/m) @ t=0.8
-0.8644055174909724
% es.Ex (V/m) @ t=0.8
1.7415952670474608
% es.Ey (V/m) @ t=0.8
0.06700275129935848
% es.Ez (V/m) @ t=0.8
-0.864405517490982
% es.tEx (V/m) @ t=0.8
1.7415952670474582
% es.tEy (V/m) @ t=0.8
0
% es.tEz (V/m) @ t=0.8
-0.8644055174909724
% V (V) @ t=0.8
0.008826815567729959
% es.normE (V/m) @ t=0.82
1.962428963367748
% es.EX (V/m) @ t=0.82
1.7567799722617417
% es.EY (V/m) @ t=0.82
0.06758677704294755
% es.EZ (V/m) @ t=0.82
-0.8719423952288116
% es.tEX (V/m) @ t=0.82
1.7567799722617412
% es.tEY (V/m) @ t=0.82
0
% es.tEZ (V/m) @ t=0.82
-0.8719423952288139
% es.Ex (V/m) @ t=0.82
1.7567799722617417
% es.Ey (V/m) @ t=0.82
0.06758677704294755
% es.Ez (V/m) @ t=0.82
-0.8719423952288116
% es.tEx (V/m) @ t=0.82
1.7567799722617412
% es.tEy (V/m) @ t=0.82
0
% es.tEz (V/m) @ t=0.82
-0.8719423952288139
% V (V) @ t=0.82
0.008903782163705706
% es.normE (V/m) @ t=0.84
1.980947289504808
% es.EX (V/m) @ t=0.84
1.773357622793617
% es.EY (V/m) @ t=0.84
0.06822441406696186
% es.EZ (V/m) @ t=0.84
-0.8801705979581209
% es.tEX (V/m) @ t=0.84
1.7733576227936156
% es.tEY (V/m) @ t=0.84
0
% es.tEZ (V/m) @ t=0.84
-0.8801705979581271
% es.Ex (V/m) @ t=0.84
1.773357622793617
% es.Ey (V/m) @ t=0.84
0.06822441406696186
% es.Ez (V/m) @ t=0.84
-0.8801705979581209
% es.tEx (V/m) @ t=0.84
1.7733576227936156
% es.tEy (V/m) @ t=0.84
0
% es.tEz (V/m) @ t=0.84
-0.8801705979581271
% V (V) @ t=0.84
0.008987807593556225
% es.normE (V/m) @ t=0.86
1.9999350344204658
% es.EX (V/m) @ t=0.86
1.790355504303724
% es.EY (V/m) @ t=0.86
0.06887822482052672
% es.EZ (V/m) @ t=0.86
-0.8886073632015067
% es.tEX (V/m) @ t=0.86
1.7903555043037285
% es.tEY (V/m) @ t=0.86
0
% es.tEZ (V/m) @ t=0.86
-0.8886073632015012
% es.Ex (V/m) @ t=0.86
1.790355504303724
% es.Ey (V/m) @ t=0.86
0.06887822482052672
% es.Ez (V/m) @ t=0.86
-0.8886073632015067
% es.tEx (V/m) @ t=0.86
1.7903555043037285
% es.tEy (V/m) @ t=0.86
0
% es.tEz (V/m) @ t=0.86
-0.8886073632015012
% V (V) @ t=0.86
0.009073962569073004
% es.normE (V/m) @ t=0.88
2.018922779336174
% es.EX (V/m) @ t=0.88
1.8073533858138409
% es.EY (V/m) @ t=0.88
0.06953203557411866
% es.EZ (V/m) @ t=0.88
-0.8970441284449262
% es.tEX (V/m) @ t=0.88
1.8073533858138466
% es.tEY (V/m) @ t=0.88
0
% es.tEZ (V/m) @ t=0.88
-0.8970441284449322
% es.Ex (V/m) @ t=0.88
1.8073533858138409
% es.Ey (V/m) @ t=0.88
0.06953203557411866
% es.Ez (V/m) @ t=0.88
-0.8970441284449262
% es.tEx (V/m) @ t=0.88
1.8073533858138466
% es.tEy (V/m) @ t=0.88
0
% es.tEz (V/m) @ t=0.88
-0.8970441284449322
% V (V) @ t=0.88
0.009160117544589784
% es.normE (V/m) @ t=0.9
2.0379105242518865
% es.EX (V/m) @ t=0.9
1.824351267323947
% es.EY (V/m) @ t=0.9
0.0701858463276693
% es.EZ (V/m) @ t=0.9
-0.9054808936883243
% es.tEX (V/m) @ t=0.9
1.8243512673239497
% es.tEY (V/m) @ t=0.9
0
% es.tEZ (V/m) @ t=0.9
-0.9054808936883134
% es.Ex (V/m) @ t=0.9
1.824351267323947
% es.Ey (V/m) @ t=0.9
0.0701858463276693
% es.Ez (V/m) @ t=0.9
-0.9054808936883243
% es.tEx (V/m) @ t=0.9
1.8243512673239497
% es.tEy (V/m) @ t=0.9
0
% es.tEz (V/m) @ t=0.9
-0.9054808936883134
% V (V) @ t=0.9
0.009246272520106564
% es.normE (V/m) @ t=0.92
2.056898269167646
% es.EX (V/m) @ t=0.92
1.841349148834071
% es.EY (V/m) @ t=0.92
0.070839657081251
% es.EZ (V/m) @ t=0.92
-0.9139176589317349
% es.tEX (V/m) @ t=0.92
1.8413491488340759
% es.tEY (V/m) @ t=0.92
0
% es.tEZ (V/m) @ t=0.92
-0.913917658931723
% es.Ex (V/m) @ t=0.92
1.841349148834071
% es.Ey (V/m) @ t=0.92
0.070839657081251
% es.Ez (V/m) @ t=0.92
-0.9139176589317349
% es.tEx (V/m) @ t=0.92
1.8413491488340759
% es.tEy (V/m) @ t=0.92
0
% es.tEz (V/m) @ t=0.92
-0.913917658931723
% V (V) @ t=0.92
0.009332427495623345
% es.normE (V/m) @ t=0.94
2.075886014083407
% es.EX (V/m) @ t=0.94
1.8583470303441807
% es.EY (V/m) @ t=0.94
0.07149346783481941
% es.EZ (V/m) @ t=0.94
-0.9223544241751278
% es.tEX (V/m) @ t=0.94
1.8583470303441878
% es.tEY (V/m) @ t=0.94
0
% es.tEZ (V/m) @ t=0.94
-0.9223544241751327
% es.Ex (V/m) @ t=0.94
1.8583470303441807
% es.Ey (V/m) @ t=0.94
0.07149346783481941
% es.Ez (V/m) @ t=0.94
-0.9223544241751278
% es.tEx (V/m) @ t=0.94
1.8583470303441878
% es.tEy (V/m) @ t=0.94
0
% es.tEz (V/m) @ t=0.94
-0.9223544241751327
% V (V) @ t=0.94
0.009418582471140123
% es.normE (V/m) @ t=0.96
2.094873758999188
% es.EX (V/m) @ t=0.96
1.8753449118542873
% es.EY (V/m) @ t=0.96
0.07214727858837272
% es.EZ (V/m) @ t=0.96
-0.9307911894185206
% es.tEX (V/m) @ t=0.96
1.8753449118542926
% es.tEY (V/m) @ t=0.96
0
% es.tEZ (V/m) @ t=0.96
-0.9307911894185139
% es.Ex (V/m) @ t=0.96
1.8753449118542873
% es.Ey (V/m) @ t=0.96
0.07214727858837272
% es.Ez (V/m) @ t=0.96
-0.9307911894185206
% es.tEx (V/m) @ t=0.96
1.8753449118542926
% es.tEy (V/m) @ t=0.96
0
% es.tEz (V/m) @ t=0.96
-0.9307911894185139
% V (V) @ t=0.96
0.009504737446656903
% es.normE (V/m) @ t=0.98
2.1138615039150097
% es.EX (V/m) @ t=0.98
1.8923427933644041
% es.EY (V/m) @ t=0.98
0.07280108934192597
% es.EZ (V/m) @ t=0.98
-0.9392279546619348
% es.tEX (V/m) @ t=0.98
1.8923427933644108
% es.tEY (V/m) @ t=0.98
0
% es.tEZ (V/m) @ t=0.98
-0.9392279546619307
% es.Ex (V/m) @ t=0.98
1.8923427933644041
% es.Ey (V/m) @ t=0.98
0.07280108934192597
% es.Ez (V/m) @ t=0.98
-0.9392279546619348
% es.tEx (V/m) @ t=0.98
1.8923427933644108
% es.tEy (V/m) @ t=0.98
0
% es.tEz (V/m) @ t=0.98
-0.9392279546619307
% V (V) @ t=0.98
0.009590892422173683
% es.normE (V/m) @ t=1
2.1328492488308433
% es.EX (V/m) @ t=1
1.9093406748745179
% es.EY (V/m) @ t=1
0.07345490009550149
% es.EZ (V/m) @ t=1
-0.9476647199053312
% es.tEX (V/m) @ t=1
1.9093406748745156
% es.tEY (V/m) @ t=1
0
% es.tEZ (V/m) @ t=1
-0.9476647199053332
% es.Ex (V/m) @ t=1
1.9093406748745179
% es.Ey (V/m) @ t=1
0.07345490009550149
% es.Ez (V/m) @ t=1
-0.9476647199053312
% es.tEx (V/m) @ t=1
1.9093406748745156
% es.tEy (V/m) @ t=1
0
% es.tEz (V/m) @ t=1
-0.9476647199053332
% V (V) @ t=1
0.009677047397690462
% es.normE (V/m) @ t=1.02
2.1518369937466955
% es.EX (V/m) @ t=1.02
1.9263385563846276
% es.EY (V/m) @ t=1.02
0.07410871084907344
% es.EZ (V/m) @ t=1.02
-0.9561014851487311
% es.tEX (V/m) @ t=1.02
1.9263385563846258
% es.tEY (V/m) @ t=1.02
0
% es.tEZ (V/m) @ t=1.02
-0.9561014851487286
% es.Ex (V/m) @ t=1.02
1.9263385563846276
% es.Ey (V/m) @ t=1.02
0.07410871084907344
% es.Ez (V/m) @ t=1.02
-0.9561014851487311
% es.tEx (V/m) @ t=1.02
1.9263385563846258
% es.tEy (V/m) @ t=1.02
0
% es.tEz (V/m) @ t=1.02
-0.9561014851487286
% V (V) @ t=1.02
0.009763202373207243
% es.normE (V/m) @ t=1.04
2.17082473866257
% es.EX (V/m) @ t=1.04
1.943336437894741
% es.EY (V/m) @ t=1.04
0.07476252160263827