% Model:              1 neuron.mph
% Version:            COMSOL 6.1.0.252
% Date:               Mar 18 2023, 11:45
% Dimension:          0
% Nodes:              14017
% Expressions:        14017
% Description:        Electric field norm, Electric field, X component, Electric field, Y component, Electric field, Z component, Tangential electric field, X component, Tangential electric field, Y component, Tangential electric field, Z component, Electric field, x component, Electric field, y component, Electric field, z component, Tangential electric field, x component, Tangential electric field, y component, Tangential electric field, z component, Electric potential
% Length unit:        mm
% x
1.33
% y
12.2
% z
1.33
% es.normE (V/m) @ t=0
7.803400103688222
% es.EX (V/m) @ t=0
6.046732290740671
% es.EY (V/m) @ t=0
-0.9265385832550388
% es.EZ (V/m) @ t=0
4.830680220428286
% es.tEX (V/m) @ t=0
6.046732290740679
% es.tEY (V/m) @ t=0
0
% es.tEZ (V/m) @ t=0
4.830680220428279
% es.Ex (V/m) @ t=0
6.046732290740671
% es.Ey (V/m) @ t=0
-0.9265385832550388
% es.Ez (V/m) @ t=0
4.830680220428286
% es.tEx (V/m) @ t=0
6.046732290740679
% es.tEy (V/m) @ t=0
0
% es.tEz (V/m) @ t=0
4.830680220428279
% V (V) @ t=0
0.006444304333848019
% es.normE (V/m) @ t=0.02
6.739876836311239
% es.EX (V/m) @ t=0.02
5.222624800662077
% es.EY (V/m) @ t=0.02
-0.8002608853488118
% es.EZ (V/m) @ t=0.02
4.172308133751244
% es.tEX (V/m) @ t=0.02
5.2226248006621
% es.tEY (V/m) @ t=0.02
0
% es.tEZ (V/m) @ t=0.02
4.172308133751249
% es.Ex (V/m) @ t=0.02
5.222624800662077
% es.Ey (V/m) @ t=0.02
-0.8002608853488118
% es.Ez (V/m) @ t=0.02
4.172308133751244
% es.tEx (V/m) @ t=0.02
5.2226248006621
% es.tEy (V/m) @ t=0.02
0
% es.tEz (V/m) @ t=0.02
4.172308133751249
% V (V) @ t=0.02
0.005566011842770233
% es.normE (V/m) @ t=0.04
6.801866530448474
% es.EX (V/m) @ t=0.04
5.2706596529691225
% es.EY (V/m) @ t=0.04
-0.8076211774211979
% es.EZ (V/m) @ t=0.04
4.210682740099902
% es.tEX (V/m) @ t=0.04
5.270659652969143
% es.tEY (V/m) @ t=0.04
0
% es.tEZ (V/m) @ t=0.04
4.210682740099904
% es.Ex (V/m) @ t=0.04
5.2706596529691225
% es.Ey (V/m) @ t=0.04
-0.8076211774211979
% es.Ez (V/m) @ t=0.04
4.210682740099902
% es.tEx (V/m) @ t=0.04
5.270659652969143
% es.tEy (V/m) @ t=0.04
0
% es.tEz (V/m) @ t=0.04
4.210682740099904
% V (V) @ t=0.04
0.005617204836719309
% es.normE (V/m) @ t=0.06
6.864430507007816
% es.EX (V/m) @ t=0.06
5.319139516977701
% es.EY (V/m) @ t=0.06
-0.8150496008377344
% es.EZ (V/m) @ t=0.06
4.249412856455442
% es.tEX (V/m) @ t=0.06
5.31913951697771
% es.tEY (V/m) @ t=0.06
0
% es.tEZ (V/m) @ t=0.06
4.249412856455436
% es.Ex (V/m) @ t=0.06
5.319139516977701
% es.Ey (V/m) @ t=0.06
-0.8150496008377344
% es.Ez (V/m) @ t=0.06
4.249412856455442
% es.tEx (V/m) @ t=0.06
5.31913951697771
% es.tEy (V/m) @ t=0.06
0
% es.tEz (V/m) @ t=0.06
4.249412856455436
% V (V) @ t=0.06
0.005668871983508913
% es.normE (V/m) @ t=0.08
6.9279128819727145
% es.EX (V/m) @ t=0.08
5.368331008290718
% es.EY (V/m) @ t=0.08
-0.8225872264987082
% es.EZ (V/m) @ t=0.08
4.288711500745887
% es.tEX (V/m) @ t=0.08
5.368331008290726
% es.tEY (V/m) @ t=0.08
0
% es.tEZ (V/m) @ t=0.08
4.288711500745883
% es.Ex (V/m) @ t=0.08
5.368331008290718
% es.Ey (V/m) @ t=0.08
-0.8225872264987082
% es.Ez (V/m) @ t=0.08
4.288711500745887
% es.tEx (V/m) @ t=0.08
5.368331008290726
% es.tEy (V/m) @ t=0.08
0
% es.tEz (V/m) @ t=0.08
4.288711500745883
% V (V) @ t=0.08
0.005721297874360399
% es.normE (V/m) @ t=0.1
6.992109167933956
% es.EX (V/m) @ t=0.1
5.418075678436436
% es.EY (V/m) @ t=0.1
-0.8302097398104911
% es.EZ (V/m) @ t=0.1
4.32845208650965
% es.tEX (V/m) @ t=0.1
5.418075678436456
% es.tEY (V/m) @ t=0.1
0
% es.tEZ (V/m) @ t=0.1
4.328452086509656
% es.Ex (V/m) @ t=0.1
5.418075678436436
% es.Ey (V/m) @ t=0.1
-0.8302097398104911
% es.Ez (V/m) @ t=0.1
4.32845208650965
% es.tEx (V/m) @ t=0.1
5.418075678436456
% es.tEy (V/m) @ t=0.1
0
% es.tEz (V/m) @ t=0.1
4.328452086509656
% V (V) @ t=0.1
0.005774313569947936
% es.normE (V/m) @ t=0.12
7.05630545389525
% es.EX (V/m) @ t=0.12
5.4678203485821975
% es.EY (V/m) @ t=0.12
-0.8378322531222597
% es.EZ (V/m) @ t=0.12
4.368192672273441
% es.tEX (V/m) @ t=0.12
5.467820348582201
% es.tEY (V/m) @ t=0.12
0
% es.tEZ (V/m) @ t=0.12
4.368192672273443
% es.Ex (V/m) @ t=0.12
5.4678203485821975
% es.Ey (V/m) @ t=0.12
-0.8378322531222597
% es.Ez (V/m) @ t=0.12
4.368192672273441
% es.tEx (V/m) @ t=0.12
5.467820348582201
% es.tEy (V/m) @ t=0.12
0
% es.tEz (V/m) @ t=0.12
4.368192672273443
% V (V) @ t=0.12
0.005827329265535471
% es.normE (V/m) @ t=0.14
7.120969018361384
% es.EX (V/m) @ t=0.14
5.517927131318077
% es.EY (V/m) @ t=0.14
-0.8455100887858071
% es.EZ (V/m) @ t=0.14
4.408222531020023
% es.tEX (V/m) @ t=0.14
5.517927131318116
% es.tEY (V/m) @ t=0.14
0
% es.tEZ (V/m) @ t=0.14
4.408222531020021
% es.Ex (V/m) @ t=0.14
5.517927131318077
% es.Ey (V/m) @ t=0.14
-0.8455100887858071
% es.Ez (V/m) @ t=0.14
4.408222531020023
% es.tEx (V/m) @ t=0.14
5.517927131318116
% es.tEy (V/m) @ t=0.14
0
% es.tEz (V/m) @ t=0.14
4.408222531020021
% V (V) @ t=0.14
0.005880730547205145
% es.normE (V/m) @ t=0.16
7.188618546286783
% es.EX (V/m) @ t=0.16
5.570347855206945
% es.EY (V/m) @ t=0.16
-0.8535414406483524
% es.EZ (V/m) @ t=0.16
4.450100877440108
% es.tEX (V/m) @ t=0.16
5.5703478552069665
% es.tEY (V/m) @ t=0.16
0
% es.tEZ (V/m) @ t=0.16
4.450100877440108
% es.Ex (V/m) @ t=0.16
5.570347855206945
% es.Ey (V/m) @ t=0.16
-0.8535414406483524
% es.Ez (V/m) @ t=0.16
4.450100877440108
% es.tEx (V/m) @ t=0.16
5.5703478552069665
% es.tEy (V/m) @ t=0.16
0
% es.tEz (V/m) @ t=0.16
4.450100877440108
% V (V) @ t=0.16
0.005936595768344876
% es.normE (V/m) @ t=0.18
7.256268074212429
% es.EX (V/m) @ t=0.18
5.622768579095867
% es.EY (V/m) @ t=0.18
-0.8615727925109242
% es.EZ (V/m) @ t=0.18
4.491979223860206
% es.tEX (V/m) @ t=0.18
5.622768579095887
% es.tEY (V/m) @ t=0.18
0
% es.tEZ (V/m) @ t=0.18
4.491979223860204
% es.Ex (V/m) @ t=0.18
5.622768579095867
% es.Ey (V/m) @ t=0.18
-0.8615727925109242
% es.Ez (V/m) @ t=0.18
4.491979223860206
% es.tEx (V/m) @ t=0.18
5.622768579095887
% es.tEy (V/m) @ t=0.18
0
% es.tEz (V/m) @ t=0.18
4.491979223860204
% V (V) @ t=0.18
0.005992460989484608
% es.normE (V/m) @ t=0.2
7.323917602138221
% es.EX (V/m) @ t=0.2
5.675189302984743
% es.EY (V/m) @ t=0.2
-0.8696041443734597
% es.EZ (V/m) @ t=0.2
4.533857570280306
% es.tEX (V/m) @ t=0.2
5.6751893029847515
% es.tEY (V/m) @ t=0.2
0
% es.tEZ (V/m) @ t=0.2
4.533857570280308
% es.Ex (V/m) @ t=0.2
5.675189302984743
% es.Ey (V/m) @ t=0.2
-0.8696041443734597
% es.Ez (V/m) @ t=0.2
4.533857570280306
% es.tEx (V/m) @ t=0.2
5.6751893029847515
% es.tEy (V/m) @ t=0.2
0
% es.tEz (V/m) @ t=0.2
4.533857570280308
% V (V) @ t=0.2
0.006048326210624339
% es.normE (V/m) @ t=0.22
7.39156713006421
% es.EX (V/m) @ t=0.22
5.727610026873636
% es.EY (V/m) @ t=0.22
-0.8776354962359916
% es.EZ (V/m) @ t=0.22
4.575735916700411
% es.tEX (V/m) @ t=0.22
5.727610026873659
% es.tEY (V/m) @ t=0.22
0
% es.tEZ (V/m) @ t=0.22
4.57573591670041
% es.Ex (V/m) @ t=0.22
5.727610026873636
% es.Ey (V/m) @ t=0.22
-0.8776354962359916
% es.Ez (V/m) @ t=0.22
4.575735916700411
% es.tEx (V/m) @ t=0.22
5.727610026873659
% es.tEy (V/m) @ t=0.22
0
% es.tEz (V/m) @ t=0.22
4.57573591670041
% V (V) @ t=0.22
0.006104191431764071
% es.normE (V/m) @ t=0.24
7.459216657990373
% es.EX (V/m) @ t=0.24
5.780030750762537
% es.EY (V/m) @ t=0.24
-0.8856668480985572
% es.EZ (V/m) @ t=0.24
4.617614263120493
% es.tEX (V/m) @ t=0.24
5.780030750762553
% es.tEY (V/m) @ t=0.24
0
% es.tEZ (V/m) @ t=0.24
4.61761426312049
% es.Ex (V/m) @ t=0.24
5.780030750762537
% es.Ey (V/m) @ t=0.24
-0.8856668480985572
% es.Ez (V/m) @ t=0.24
4.617614263120493
% es.tEx (V/m) @ t=0.24
5.780030750762553
% es.tEy (V/m) @ t=0.24
0
% es.tEz (V/m) @ t=0.24
4.61761426312049
% V (V) @ t=0.24
0.006160056652903802
% es.normE (V/m) @ t=0.26
7.5268661859167025
% es.EX (V/m) @ t=0.26
5.832451474651418
% es.EY (V/m) @ t=0.26
-0.893698199961098
% es.EZ (V/m) @ t=0.26
4.659492609540598
% es.tEX (V/m) @ t=0.26
5.832451474651444
% es.tEY (V/m) @ t=0.26
0
% es.tEZ (V/m) @ t=0.26
4.659492609540594
% es.Ex (V/m) @ t=0.26
5.832451474651418
% es.Ey (V/m) @ t=0.26
-0.893698199961098
% es.Ez (V/m) @ t=0.26
4.659492609540598
% es.tEx (V/m) @ t=0.26
5.832451474651444
% es.tEy (V/m) @ t=0.26
0
% es.tEz (V/m) @ t=0.26
4.659492609540594
% V (V) @ t=0.26
0.006215921874043534
% es.normE (V/m) @ t=0.28
7.596697890210065
% es.EX (V/m) @ t=0.28
5.886563309589621
% es.EY (V/m) @ t=0.28
-0.9019875562988036
% es.EZ (V/m) @ t=0.28
4.702721863139027
% es.tEX (V/m) @ t=0.28
5.886563309589639
% es.tEY (V/m) @ t=0.28
0
% es.tEZ (V/m) @ t=0.28
4.702721863139027
% es.Ex (V/m) @ t=0.28
5.886563309589621
% es.Ey (V/m) @ t=0.28
-0.9019875562988036
% es.Ez (V/m) @ t=0.28
4.702721863139027
% es.tEx (V/m) @ t=0.28
5.886563309589639
% es.tEy (V/m) @ t=0.28
0
% es.tEz (V/m) @ t=0.28
4.702721863139027
% V (V) @ t=0.28
0.006273587099693875
% es.normE (V/m) @ t=0.3
7.67212222457204
% es.EX (V/m) @ t=0.3
5.945009238986412
% es.EY (V/m) @ t=0.3
-0.9109381440597168
% es.EZ (V/m) @ t=0.3
4.749413313568375
% es.tEX (V/m) @ t=0.3
5.9450092389864215
% es.tEY (V/m) @ t=0.3
0
% es.tEZ (V/m) @ t=0.3
4.749413313568374
% es.Ex (V/m) @ t=0.3
5.945009238986412
% es.Ey (V/m) @ t=0.3
-0.9109381440597168
% es.Ez (V/m) @ t=0.3
4.749413313568375
% es.tEx (V/m) @ t=0.3
5.9450092389864215
% es.tEy (V/m) @ t=0.3
0
% es.tEz (V/m) @ t=0.3
4.749413313568374
% V (V) @ t=0.3
0.006335865499374401
% es.normE (V/m) @ t=0.32
7.747546558937964
% es.EX (V/m) @ t=0.32
6.0034551683831685
% es.EY (V/m) @ t=0.32
-0.9198887318206825
% es.EZ (V/m) @ t=0.32
4.796104763997709
% es.tEX (V/m) @ t=0.32
6.003455168383204
% es.tEY (V/m) @ t=0.32
0
% es.tEZ (V/m) @ t=0.32
4.796104763997713
% es.Ex (V/m) @ t=0.32
6.0034551683831685
% es.Ey (V/m) @ t=0.32
-0.9198887318206825
% es.Ez (V/m) @ t=0.32
4.796104763997709
% es.tEx (V/m) @ t=0.32
6.003455168383204
% es.tEy (V/m) @ t=0.32
0
% es.tEz (V/m) @ t=0.32
4.796104763997713
% V (V) @ t=0.32
0.006398143899054926
% es.normE (V/m) @ t=0.34
7.822970893307788
% es.EX (V/m) @ t=0.34
6.061901097779966
% es.EY (V/m) @ t=0.34
-0.9288393195816296
% es.EZ (V/m) @ t=0.34
4.842796214427054
% es.tEX (V/m) @ t=0.34
6.061901097779973
% es.tEY (V/m) @ t=0.34
0
% es.tEZ (V/m) @ t=0.34
4.842796214427045
% es.Ex (V/m) @ t=0.34
6.061901097779966
% es.Ey (V/m) @ t=0.34
-0.9288393195816296
% es.Ez (V/m) @ t=0.34
4.842796214427054
% es.tEx (V/m) @ t=0.34
6.061901097779973
% es.tEy (V/m) @ t=0.34
0
% es.tEz (V/m) @ t=0.34
4.842796214427045
% V (V) @ t=0.34
0.006460422298735452
% es.normE (V/m) @ t=0.36
7.898395227681364
% es.EX (V/m) @ t=0.36
6.120347027176766
% es.EY (V/m) @ t=0.36
-0.9377899073425482
% es.EZ (V/m) @ t=0.36
4.889487664856394
% es.tEX (V/m) @ t=0.36
6.12034702717677
% es.tEY (V/m) @ t=0.36
0
% es.tEZ (V/m) @ t=0.36
4.8894876648564045
% es.Ex (V/m) @ t=0.36
6.120347027176766
% es.Ey (V/m) @ t=0.36
-0.9377899073425482
% es.Ez (V/m) @ t=0.36
4.889487664856394
% es.tEx (V/m) @ t=0.36
6.12034702717677
% es.tEy (V/m) @ t=0.36
0
% es.tEz (V/m) @ t=0.36
4.8894876648564045
% V (V) @ t=0.36
0.006522700698415975
% es.normE (V/m) @ t=0.38
7.973819562058559
% es.EX (V/m) @ t=0.38
6.178792956573528
% es.EY (V/m) @ t=0.38
-0.9467404951034775
% es.EZ (V/m) @ t=0.38
4.9361791152857375
% es.tEX (V/m) @ t=0.38
6.178792956573552
% es.tEY (V/m) @ t=0.38
0
% es.tEZ (V/m) @ t=0.38
4.936179115285743
% es.Ex (V/m) @ t=0.38
6.178792956573528
% es.Ey (V/m) @ t=0.38
-0.9467404951034775
% es.Ez (V/m) @ t=0.38
4.9361791152857375
% es.tEx (V/m) @ t=0.38
6.178792956573552
% es.tEy (V/m) @ t=0.38
0
% es.tEz (V/m) @ t=0.38
4.936179115285743
% V (V) @ t=0.38
0.006584979098096501
% es.normE (V/m) @ t=0.4
8.04924389643931
% es.EX (V/m) @ t=0.4
6.2372388859703065
% es.EY (V/m) @ t=0.4
-0.9556910828644343
% es.EZ (V/m) @ t=0.4
4.9828705657150785
% es.tEX (V/m) @ t=0.4
6.237238885970335
% es.tEY (V/m) @ t=0.4
0
% es.tEZ (V/m) @ t=0.4
4.982870565715081
% es.Ex (V/m) @ t=0.4
6.2372388859703065
% es.Ey (V/m) @ t=0.4
-0.9556910828644343
% es.Ez (V/m) @ t=0.4
4.9828705657150785
% es.tEx (V/m) @ t=0.4
6.237238885970335
% es.tEy (V/m) @ t=0.4
0
% es.tEz (V/m) @ t=0.4
4.982870565715081
% V (V) @ t=0.4
0.006647257497777026
% es.normE (V/m) @ t=0.42
8.124668230823506
% es.EX (V/m) @ t=0.42
6.295684815367078
% es.EY (V/m) @ t=0.42
-0.9646416706253973
% es.EZ (V/m) @ t=0.42
5.0295620161444266
% es.tEX (V/m) @ t=0.42
6.295684815367089
% es.tEY (V/m) @ t=0.42
0
% es.tEZ (V/m) @ t=0.42
5.029562016144427
% es.Ex (V/m) @ t=0.42
6.295684815367078
% es.Ey (V/m) @ t=0.42
-0.9646416706253973
% es.Ez (V/m) @ t=0.42
5.0295620161444266
% es.tEx (V/m) @ t=0.42
6.295684815367089
% es.tEy (V/m) @ t=0.42
0
% es.tEz (V/m) @ t=0.42
5.029562016144427
% V (V) @ t=0.42
0.006709535897457552
% es.normE (V/m) @ t=0.44
8.200092565211051
% es.EX (V/m) @ t=0.44
6.354130744763857
% es.EY (V/m) @ t=0.44
-0.9735922583863266
% es.EZ (V/m) @ t=0.44
5.0762534665737675
% es.tEX (V/m) @ t=0.44
6.354130744763887
% es.tEY (V/m) @ t=0.44
0
% es.tEZ (V/m) @ t=0.44
5.0762534665737595
% es.Ex (V/m) @ t=0.44
6.354130744763857
% es.Ey (V/m) @ t=0.44
-0.9735922583863266
% es.Ez (V/m) @ t=0.44
5.0762534665737675
% es.tEx (V/m) @ t=0.44
6.354130744763887
% es.tEy (V/m) @ t=0.44
0
% es.tEz (V/m) @ t=0.44
5.0762534665737595
% V (V) @ t=0.44
0.006771814297138076
% es.normE (V/m) @ t=0.46
8.275516899601854
% es.EX (V/m) @ t=0.46
6.412576674160629
% es.EY (V/m) @ t=0.46
-0.9825428461472434
% es.EZ (V/m) @ t=0.46
5.122944917003119
% es.tEX (V/m) @ t=0.46
6.412576674160641
% es.tEY (V/m) @ t=0.46
0
% es.tEZ (V/m) @ t=0.46
5.122944917003113
% es.Ex (V/m) @ t=0.46
6.412576674160629
% es.Ey (V/m) @ t=0.46
-0.9825428461472434
% es.Ez (V/m) @ t=0.46
5.122944917003119
% es.tEx (V/m) @ t=0.46
6.412576674160641
% es.tEy (V/m) @ t=0.46
0
% es.tEz (V/m) @ t=0.46
5.122944917003113
% V (V) @ t=0.46
0.006834092696818602
% es.normE (V/m) @ t=0.48
8.350941233995812
% es.EX (V/m) @ t=0.48
6.4710226035573974
% es.EY (V/m) @ t=0.48
-0.991493433908194
% es.EZ (V/m) @ t=0.48
5.169636367432446
% es.tEX (V/m) @ t=0.48
6.471022603557423
% es.tEY (V/m) @ t=0.48
0
% es.tEZ (V/m) @ t=0.48
5.169636367432445
% es.Ex (V/m) @ t=0.48
6.4710226035573974
% es.Ey (V/m) @ t=0.48
-0.991493433908194
% es.Ez (V/m) @ t=0.48
5.169636367432446
% es.tEx (V/m) @ t=0.48
6.471022603557423
% es.tEy (V/m) @ t=0.48
0
% es.tEz (V/m) @ t=0.48
5.169636367432445
% V (V) @ t=0.48
0.006896371096499127
% es.normE (V/m) @ t=0.5
8.4263655683929
% es.EX (V/m) @ t=0.5
6.529468532954205
% es.EY (V/m) @ t=0.5
-1.0004440216691366
% es.EZ (V/m) @ t=0.5
5.2163278178617976
% es.tEX (V/m) @ t=0.5
6.529468532954221
% es.tEY (V/m) @ t=0.5
0
% es.tEZ (V/m) @ t=0.5
5.2163278178617905
% es.Ex (V/m) @ t=0.5
6.529468532954205
% es.Ey (V/m) @ t=0.5
-1.0004440216691366
% es.Ez (V/m) @ t=0.5
5.2163278178617976
% es.tEx (V/m) @ t=0.5
6.529468532954221
% es.tEy (V/m) @ t=0.5
0
% es.tEz (V/m) @ t=0.5
5.2163278178617905
% V (V) @ t=0.5
0.006958649496179652
% es.normE (V/m) @ t=0.52
8.501789902792936
% es.EX (V/m) @ t=0.52
6.587914462350948
% es.EY (V/m) @ t=0.52
-1.0093946094300925
% es.EZ (V/m) @ t=0.52
5.2630192682911385
% es.tEX (V/m) @ t=0.52
6.587914462350989
% es.tEY (V/m) @ t=0.52
0
% es.tEZ (V/m) @ t=0.52
5.263019268291137
% es.Ex (V/m) @ t=0.52
6.587914462350948
% es.Ey (V/m) @ t=0.52
-1.0093946094300925
% es.Ez (V/m) @ t=0.52
5.2630192682911385
% es.tEx (V/m) @ t=0.52
6.587914462350989
% es.tEy (V/m) @ t=0.52
0
% es.tEz (V/m) @ t=0.52
5.263019268291137
% V (V) @ t=0.52
0.007020927895860177
% es.normE (V/m) @ t=0.54
8.577214237195939
% es.EX (V/m) @ t=0.54
6.646360391747756
% es.EY (V/m) @ t=0.54
-1.0183451971910031
% es.EZ (V/m) @ t=0.54
5.309710718720476
% es.tEX (V/m) @ t=0.54
6.646360391747786
% es.tEY (V/m) @ t=0.54
0
% es.tEZ (V/m) @ t=0.54
5.309710718720476
% es.Ex (V/m) @ t=0.54
6.646360391747756
% es.Ey (V/m) @ t=0.54
-1.0183451971910031
% es.Ez (V/m) @ t=0.54
5.309710718720476
% es.tEx (V/m) @ t=0.54
6.646360391747786
% es.tEy (V/m) @ t=0.54
0
% es.tEz (V/m) @ t=0.54
5.309710718720476
% V (V) @ t=0.54
0.007083206295540702
% es.normE (V/m) @ t=0.56
8.657697394873093
% es.EX (V/m) @ t=0.56
6.708724416702952
% es.EY (V/m) @ t=0.56
-1.027908257599817
% es.EZ (V/m) @ t=0.56
5.359533448357378
% es.tEX (V/m) @ t=0.56
6.708724416702962
% es.tEY (V/m) @ t=0.56
0
% es.tEZ (V/m) @ t=0.56
5.3595334483573716
% es.Ex (V/m) @ t=0.56
6.708724416702952
% es.Ey (V/m) @ t=0.56
-1.027908257599817
% es.Ez (V/m) @ t=0.56
5.359533448357378
% es.tEx (V/m) @ t=0.56
6.708724416702962
% es.tEy (V/m) @ t=0.56
0
% es.tEz (V/m) @ t=0.56
5.3595334483573716
% V (V) @ t=0.56
0.007149685108682936
% es.normE (V/m) @ t=0.58
8.741975321916641
% es.EX (V/m) @ t=0.58
6.774027518212999
% es.EY (V/m) @ t=0.58
-1.0379307514177505
% es.EZ (V/m) @ t=0.58
5.411705040896713
% es.tEX (V/m) @ t=0.58
6.774027518213009
% es.tEY (V/m) @ t=0.58
0
% es.tEZ (V/m) @ t=0.58
5.411705040896703
% es.Ex (V/m) @ t=0.58
6.774027518212999
% es.Ey (V/m) @ t=0.58
-1.0379307514177505
% es.Ez (V/m) @ t=0.58
5.411705040896713
% es.tEx (V/m) @ t=0.58
6.774027518213009
% es.tEy (V/m) @ t=0.58
0
% es.tEz (V/m) @ t=0.58
5.411705040896703
% V (V) @ t=0.58
0.0072193147731869165
% es.normE (V/m) @ t=0.6
8.826253248999983
% es.EX (V/m) @ t=0.6
6.839330619723014
% es.EY (V/m) @ t=0.6
-1.0479532452357034
% es.EZ (V/m) @ t=0.6
5.463876633436051
% es.tEX (V/m) @ t=0.6
6.839330619723041
% es.tEY (V/m) @ t=0.6
0
% es.tEZ (V/m) @ t=0.6
5.46387663343605
% es.Ex (V/m) @ t=0.6
6.839330619723014
% es.Ey (V/m) @ t=0.6
-1.0479532452357034
% es.Ez (V/m) @ t=0.6
5.463876633436051
% es.tEx (V/m) @ t=0.6
6.839330619723041
% es.tEy (V/m) @ t=0.6
0
% es.tEz (V/m) @ t=0.6
5.46387663343605
% V (V) @ t=0.6
0.007288944437690898
% es.normE (V/m) @ t=0.62
8.910531176121992
% es.EX (V/m) @ t=0.62
6.904633721233021
% es.EY (V/m) @ t=0.62
-1.0579757390536333
% es.EZ (V/m) @ t=0.62
5.516048225975375
% es.tEX (V/m) @ t=0.62
6.90463372123306
% es.tEY (V/m) @ t=0.62
0
% es.tEZ (V/m) @ t=0.62
5.51604822597536
% es.Ex (V/m) @ t=0.62
6.904633721233021
% es.Ey (V/m) @ t=0.62
-1.0579757390536333
% es.Ez (V/m) @ t=0.62
5.516048225975375
% es.tEx (V/m) @ t=0.62
6.90463372123306
% es.tEy (V/m) @ t=0.62
0
% es.tEz (V/m) @ t=0.62
5.51604822597536
% V (V) @ t=0.62
0.007358574102194879
% es.normE (V/m) @ t=0.64
8.994809103281638
% es.EX (V/m) @ t=0.64
6.9699368227430645
% es.EY (V/m) @ t=0.64
-1.0679982328715685
% es.EZ (V/m) @ t=0.64
5.568219818514714
% es.tEX (V/m) @ t=0.64
6.969936822743093
% es.tEY (V/m) @ t=0.64
0
% es.tEZ (V/m) @ t=0.64
5.568219818514699
% es.Ex (V/m) @ t=0.64
6.9699368227430645
% es.Ey (V/m) @ t=0.64
-1.0679982328715685
% es.Ez (V/m) @ t=0.64
5.568219818514714
% es.tEx (V/m) @ t=0.64
6.969936822743093
% es.tEy (V/m) @ t=0.64
0
% es.tEz (V/m) @ t=0.64
5.568219818514699
% V (V) @ t=0.64
0.007428203766698859
% es.normE (V/m) @ t=0.66
9.079087030477808
% es.EX (V/m) @ t=0.66
7.035239924253072
% es.EY (V/m) @ t=0.66
-1.0780207266895268
% es.EZ (V/m) @ t=0.66
5.620391411054053
% es.tEX (V/m) @ t=0.66
7.035239924253097
% es.tEY (V/m) @ t=0.66
0
% es.tEZ (V/m) @ t=0.66
5.620391411054053
% es.Ex (V/m) @ t=0.66
7.035239924253072
% es.Ey (V/m) @ t=0.66
-1.0780207266895268
% es.Ez (V/m) @ t=0.66
5.620391411054053
% es.tEx (V/m) @ t=0.66
7.035239924253097
% es.tEy (V/m) @ t=0.66
0
% es.tEz (V/m) @ t=0.66
5.620391411054053
% V (V) @ t=0.66
0.007497833431202839
% es.normE (V/m) @ t=0.68
9.163364957709536
% es.EX (V/m) @ t=0.68
7.100543025763116
% es.EY (V/m) @ t=0.68
-1.088043220507462
% es.EZ (V/m) @ t=0.68
5.672563003593384
% es.tEX (V/m) @ t=0.68
7.10054302576313
% es.tEY (V/m) @ t=0.68
0
% es.tEZ (V/m) @ t=0.68
5.672563003593391
% es.Ex (V/m) @ t=0.68
7.100543025763116
% es.Ey (V/m) @ t=0.68
-1.088043220507462
% es.Ez (V/m) @ t=0.68
5.672563003593384
% es.tEx (V/m) @ t=0.68
7.10054302576313
% es.tEy (V/m) @ t=0.68
0
% es.tEz (V/m) @ t=0.68
5.672563003593391
% V (V) @ t=0.68
0.007567463095706819
% es.normE (V/m) @ t=0.7
9.24764288497584
% es.EX (V/m) @ t=0.7
7.165846127273152
% es.EY (V/m) @ t=0.7
-1.0980657143253776
% es.EZ (V/m) @ t=0.7
5.724734596132726
% es.tEX (V/m) @ t=0.7
7.165846127273177
% es.tEY (V/m) @ t=0.7
0
% es.tEZ (V/m) @ t=0.7
5.724734596132716
% es.Ex (V/m) @ t=0.7
7.165846127273152
% es.Ey (V/m) @ t=0.7
-1.0980657143253776
% es.Ez (V/m) @ t=0.7
5.724734596132726
% es.tEx (V/m) @ t=0.7
7.165846127273177
% es.tEy (V/m) @ t=0.7
0
% es.tEz (V/m) @ t=0.7
5.724734596132716
% V (V) @ t=0.7
0.0076370927602108
% es.normE (V/m) @ t=0.72
9.331920812275738
% es.EX (V/m) @ t=0.72
7.231149228783153
% es.EY (V/m) @ t=0.72
-1.1080882081433217
% es.EZ (V/m) @ t=0.72
5.776906188672054
% es.tEX (V/m) @ t=0.72
7.231149228783167
% es.tEY (V/m) @ t=0.72
0
% es.tEZ (V/m) @ t=0.72
5.776906188672055
% es.Ex (V/m) @ t=0.72
7.231149228783153
% es.Ey (V/m) @ t=0.72
-1.1080882081433217
% es.Ez (V/m) @ t=0.72
5.776906188672054
% es.tEx (V/m) @ t=0.72
7.231149228783167
% es.tEy (V/m) @ t=0.72
0
% es.tEz (V/m) @ t=0.72
5.776906188672055
% V (V) @ t=0.72
0.007706722424714782
% es.normE (V/m) @ t=0.74
9.416198739608387
% es.EX (V/m) @ t=0.74
7.296452330293167
% es.EY (V/m) @ t=0.74
-1.1181107019612693
% es.EZ (V/m) @ t=0.74
5.829077781211389
% es.tEX (V/m) @ t=0.74
7.296452330293199
% es.tEY (V/m) @ t=0.74
0
% es.tEZ (V/m) @ t=0.74
5.829077781211388
% es.Ex (V/m) @ t=0.74
7.296452330293167
% es.Ey (V/m) @ t=0.74
-1.1181107019612693
% es.Ez (V/m) @ t=0.74
5.829077781211389
% es.tEx (V/m) @ t=0.74
7.296452330293199
% es.tEy (V/m) @ t=0.74
0
% es.tEz (V/m) @ t=0.74
5.829077781211388
% V (V) @ t=0.74
0.007776352089218761
% es.normE (V/m) @ t=0.76
9.500476666972915
% es.EX (V/m) @ t=0.76
7.3617554318032035
% es.EY (V/m) @ t=0.76
-1.1281331957791938
% es.EZ (V/m) @ t=0.76
5.881249373750741
% es.tEX (V/m) @ t=0.76
7.361755431803233
% es.tEY (V/m) @ t=0.76
0
% es.tEZ (V/m) @ t=0.76
5.881249373750726
% es.Ex (V/m) @ t=0.76
7.3617554318032035
% es.Ey (V/m) @ t=0.76
-1.1281331957791938
% es.Ez (V/m) @ t=0.76
5.881249373750741
% es.tEx (V/m) @ t=0.76
7.361755431803233
% es.tEy (V/m) @ t=0.76
0
% es.tEz (V/m) @ t=0.76
5.881249373750726
% V (V) @ t=0.76
0.007845981753722742
% es.normE (V/m) @ t=0.78
9.584754594368448
% es.EX (V/m) @ t=0.78
7.427058533313232
% es.EY (V/m) @ t=0.78
-1.1381556895971432
% es.EZ (V/m) @ t=0.78
5.933420966290073
% es.tEX (V/m) @ t=0.78
7.427058533313265
% es.tEY (V/m) @ t=0.78
0
% es.tEZ (V/m) @ t=0.78
5.933420966290066
% es.Ex (V/m) @ t=0.78
7.427058533313232
% es.Ey (V/m) @ t=0.78
-1.1381556895971432
% es.Ez (V/m) @ t=0.78
5.933420966290073
% es.tEx (V/m) @ t=0.78
7.427058533313265
% es.tEy (V/m) @ t=0.78
0
% es.tEz (V/m) @ t=0.78
5.933420966290066
% V (V) @ t=0.78
0.007915611418226724
% es.normE (V/m) @ t=0.8
9.66903252179418
% es.EX (V/m) @ t=0.8
7.492361634823254
% es.EY (V/m) @ t=0.8
-1.1481781834150624
% es.EZ (V/m) @ t=0.8
5.9855925588294046
% es.tEX (V/m) @ t=0.8
7.4923616348232835
% es.tEY (V/m) @ t=0.8
0
% es.tEZ (V/m) @ t=0.8
5.985592558829397
% es.Ex (V/m) @ t=0.8
7.492361634823254
% es.Ey (V/m) @ t=0.8
-1.1481781834150624
% es.Ez (V/m) @ t=0.8
5.9855925588294046
% es.tEx (V/m) @ t=0.8
7.4923616348232835
% es.tEy (V/m) @ t=0.8
0
% es.tEz (V/m) @ t=0.8
5.985592558829397
% V (V) @ t=0.8
0.007985241082730703
% es.normE (V/m) @ t=0.82
9.753310449249337
% es.EX (V/m) @ t=0.82
7.557664736333269
% es.EY (V/m) @ t=0.82
-1.1582006772330438
% es.EZ (V/m) @ t=0.82
6.0377641513687355
% es.tEX (V/m) @ t=0.82
7.557664736333303
% es.tEY (V/m) @ t=0.82
0
% es.tEZ (V/m) @ t=0.82
6.037764151368721
% es.Ex (V/m) @ t=0.82
7.557664736333269
% es.Ey (V/m) @ t=0.82
-1.1582006772330438
% es.Ez (V/m) @ t=0.82
6.0377641513687355
% es.tEx (V/m) @ t=0.82
7.557664736333303
% es.tEy (V/m) @ t=0.82
0
% es.tEz (V/m) @ t=0.82
6.037764151368721
% V (V) @ t=0.82
0.008054870747234684
% es.normE (V/m) @ t=0.84
9.846235881383322
% es.EX (V/m) @ t=0.84
7.629669295111125
% es.EY (V/m) @ t=0.84
-1.1692459751251985
% es.EZ (V/m) @ t=0.84
6.095289091000666
% es.tEX (V/m) @ t=0.84
7.629669295111151
% es.tEY (V/m) @ t=0.84
0
% es.tEZ (V/m) @ t=0.84
6.095289091000679
% es.Ex (V/m) @ t=0.84
7.629669295111125
% es.Ey (V/m) @ t=0.84
-1.1692459751251985
% es.Ez (V/m) @ t=0.84
6.095289091000666
% es.tEx (V/m) @ t=0.84
7.629669295111151
% es.tEy (V/m) @ t=0.84
0
% es.tEz (V/m) @ t=0.84
6.095289091000679
% V (V) @ t=0.84
0.008131634236521511
% es.normE (V/m) @ t=0.86
9.940544550407942
% es.EX (V/m) @ t=0.86
7.7027458050699495
% es.EY (V/m) @ t=0.86
-1.1804548786320535
% es.EZ (V/m) @ t=0.86
6.153670340910896
% es.tEX (V/m) @ t=0.86
7.702745805069975
% es.tEY (V/m) @ t=0.86
0
% es.tEZ (V/m) @ t=0.86
6.153670340910898
% es.Ex (V/m) @ t=0.86
7.7027458050699495
% es.Ey (V/m) @ t=0.86
-1.1804548786320535
% es.Ez (V/m) @ t=0.86
6.153670340910896
% es.tEx (V/m) @ t=0.86
7.702745805069975
% es.tEy (V/m) @ t=0.86
0
% es.tEz (V/m) @ t=0.86
6.153670340910898
% V (V) @ t=0.86
0.008209538837598623
% es.normE (V/m) @ t=0.88
10.03485321944473
% es.EX (V/m) @ t=0.88
7.775822315028688
% es.EY (V/m) @ t=0.88
-1.1916637821388534
% es.EZ (V/m) @ t=0.88
6.212051590821101
% es.tEX (V/m) @ t=0.88
7.775822315028715
% es.tEY (V/m) @ t=0.88
0
% es.tEZ (V/m) @ t=0.88
6.212051590821088
% es.Ex (V/m) @ t=0.88
7.775822315028688
% es.Ey (V/m) @ t=0.88
-1.1916637821388534
% es.Ez (V/m) @ t=0.88
6.212051590821101
% es.tEx (V/m) @ t=0.88
7.775822315028715
% es.tEy (V/m) @ t=0.88
0
% es.tEz (V/m) @ t=0.88
6.212051590821088
% V (V) @ t=0.88
0.008287443438675738
% es.normE (V/m) @ t=0.9
10.129161888493497
% es.EX (V/m) @ t=0.9
7.848898824987506
% es.EY (V/m) @ t=0.9
-1.2028726856457244
% es.EZ (V/m) @ t=0.9
6.270432840731302
% es.tEX (V/m) @ t=0.9
7.848898824987554
% es.tEY (V/m) @ t=0.9
0
% es.tEZ (V/m) @ t=0.9
6.270432840731299
% es.Ex (V/m) @ t=0.9
7.848898824987506
% es.Ey (V/m) @ t=0.9
-1.2028726856457244
% es.Ez (V/m) @ t=0.9
6.270432840731302
% es.tEx (V/m) @ t=0.9
7.848898824987554
% es.tEy (V/m) @ t=0.9
0
% es.tEz (V/m) @ t=0.9
6.270432840731299
% V (V) @ t=0.9
0.008365348039752852
% es.normE (V/m) @ t=0.92
10.223470557553817
% es.EX (V/m) @ t=0.92
7.921975334946287
% es.EY (V/m) @ t=0.92
-1.2140815891525314
% es.EZ (V/m) @ t=0.92
6.328814090641513
% es.tEX (V/m) @ t=0.92
7.921975334946308
% es.tEY (V/m) @ t=0.92
0
% es.tEZ (V/m) @ t=0.92
6.328814090641496
% es.Ex (V/m) @ t=0.92
7.921975334946287
% es.Ey (V/m) @ t=0.92
-1.2140815891525314
% es.Ez (V/m) @ t=0.92
6.328814090641513
% es.tEx (V/m) @ t=0.92
7.921975334946308
% es.tEy (V/m) @ t=0.92
0
% es.tEz (V/m) @ t=0.92
6.328814090641496
% V (V) @ t=0.92
0.008443252640829967
% es.normE (V/m) @ t=0.94
10.317779226625383
% es.EX (V/m) @ t=0.94
7.995051844905048
% es.EY (V/m) @ t=0.94
-1.2252904926593722
% es.EZ (V/m) @ t=0.94
6.387195340551714
% es.tEX (V/m) @ t=0.94
7.99505184490509
% es.tEY (V/m) @ t=0.94
0
% es.tEZ (V/m) @ t=0.94
6.38719534055172
% es.Ex (V/m) @ t=0.94
7.995051844905048
% es.Ey (V/m) @ t=0.94
-1.2252904926593722
% es.Ez (V/m) @ t=0.94
6.387195340551714
% es.tEx (V/m) @ t=0.94
7.99505184490509
% es.tEy (V/m) @ t=0.94
0
% es.tEz (V/m) @ t=0.94
6.38719534055172
% V (V) @ t=0.94
0.00852115724190708
% es.normE (V/m) @ t=0.96
10.412087895707945
% es.EX (V/m) @ t=0.96
8.068128354863845
% es.EY (V/m) @ t=0.96
-1.2364993961662076
% es.EZ (V/m) @ t=0.96
6.44557659046193
% es.tEX (V/m) @ t=0.96
8.068128354863871
% es.tEY (V/m) @ t=0.96
0
% es.tEZ (V/m) @ t=0.96
6.445576590461933
% es.Ex (V/m) @ t=0.96
8.068128354863845
% es.Ey (V/m) @ t=0.96
-1.2364993961662076
% es.Ez (V/m) @ t=0.96
6.44557659046193
% es.tEx (V/m) @ t=0.96
8.068128354863871
% es.tEy (V/m) @ t=0.96
0
% es.tEz (V/m) @ t=0.96
6.445576590461933
% V (V) @ t=0.96
0.008599061842984194
% es.normE (V/m) @ t=0.98
10.506396564801175
% es.EX (V/m) @ t=0.98
8.141204864822654
% es.EY (V/m) @ t=0.98
-1.2477082996730449
% es.EZ (V/m) @ t=0.98
6.503957840372138
% es.tEX (V/m) @ t=0.98
8.141204864822681
% es.tEY (V/m) @ t=0.98
0
% es.tEZ (V/m) @ t=0.98
6.503957840372144
% es.Ex (V/m) @ t=0.98
8.141204864822654
% es.Ey (V/m) @ t=0.98
-1.2477082996730449
% es.Ez (V/m) @ t=0.98
6.503957840372138
% es.tEx (V/m) @ t=0.98
8.141204864822681
% es.tEy (V/m) @ t=0.98
0
% es.tEz (V/m) @ t=0.98
6.503957840372144
% V (V) @ t=0.98
0.00867696644406131
% es.normE (V/m) @ t=1
10.600705233904726
% es.EX (V/m) @ t=1
8.214281374781393
% es.EY (V/m) @ t=1
-1.2589172031798608
% es.EZ (V/m) @ t=1
6.5623390902823395
% es.tEX (V/m) @ t=1
8.214281374781407
% es.tEY (V/m) @ t=1
0
% es.tEZ (V/m) @ t=1
6.562339090282327
% es.Ex (V/m) @ t=1
8.214281374781393
% es.Ey (V/m) @ t=1
-1.2589172031798608
% es.Ez (V/m) @ t=1
6.5623390902823395
% es.tEx (V/m) @ t=1
8.214281374781407
% es.tEy (V/m) @ t=1
0
% es.tEz (V/m) @ t=1
6.562339090282327
% V (V) @ t=1
0.008754871045138422
% es.normE (V/m) @ t=1.02
10.69501390301844
% es.EX (V/m) @ t=1.02
8.287357884740196
% es.EY (V/m) @ t=1.02
-1.2701261066867158
% es.EZ (V/m) @ t=1.02
6.620720340192551
% es.tEX (V/m) @ t=1.02
8.287357884740246
% es.tEY (V/m) @ t=1.02
0
% es.tEZ (V/m) @ t=1.02
6.620720340192545
% es.Ex (V/m) @ t=1.02
8.287357884740196
% es.Ey (V/m) @ t=1.02
-1.2701261066867158
% es.Ez (V/m) @ t=1.02
6.620720340192551
% es.tEx (V/m) @ t=1.02
8.287357884740246
% es.tEy (V/m) @ t=1.02
0
% es.tEz (V/m) @ t=1.02
6.620720340192545
% V (V) @ t=1.02
0.008832775646215535
% es.normE (V/m) @ t=1.04
10.78932257214197
% es.EX (V/m) @ t=1.04
8.360434394698984
% es.EY (V/m) @ t=1.04
-1.2813350101935335
% es.EZ (V/m) @ t=1.04
6.679101590102749
% es.tEX (V/m) @ t=1.04
8.360434394698999
% es.tEY (V/m) @ t=1.04
0
% es.tEZ (V/m) @ t=1.04
6.67910159010277
% es.Ex (V/m) @ t=1.04
8.360434394698984
% es.Ey (V/m) @ t=1.04
-1.2813350101935335
% es.Ez (V/m) @ t=1.04
6.679101590102749
% es.tEx (V/m) @ t=1.04
8.360434394698999
% es.tEy (V/m) @ t=1.04
0
% es.tEz (V/m) @ t=1.04
6.67910159010277
% V (V) @ t=1.04
0.008910680247292649
% es.normE (V/m) @ t=1.06
10.883631241275099
% es.EX (V/m) @ t=1.06
8.433510904657773
% es.EY (V/m) @ t=1.06
-1.2925439137003494
% es.EZ (V/m) @ t=1.06
6.737482840012971
% es.tEX (V/m) @ t=1.06
8.433510904657796