% Model:              1 neuron.mph
% Version:            COMSOL 6.0.0.405
% Date:               Mar 16 2023, 10:01
% Dimension:          0
% Nodes:              14017
% Expressions:        14017
% Description:        Electric field norm, Electric field, X component, Electric field, Y component, Electric field, Z component, Tangential electric field, X component, Tangential electric field, Y component, Tangential electric field, Z component, Electric field, x component, Electric field, y component, Electric field, z component, Tangential electric field, x component, Tangential electric field, y component, Tangential electric field, z component, Electric potential
% Length unit:        mm
% x
1.33
% y
12.2
% z
1.33
% es.normE (V/m) @ t=0
7.7345237731669965
% es.EX (V/m) @ t=0
5.993360951203065
% es.EY (V/m) @ t=0
-0.9183604154380403
% es.EZ (V/m) @ t=0
4.788042676047423
% es.tEX (V/m) @ t=0
5.993360951203085
% es.tEY (V/m) @ t=0
0
% es.tEZ (V/m) @ t=0
4.788042676047429
% es.Ex (V/m) @ t=0
5.993360951203065
% es.Ey (V/m) @ t=0
-0.9183604154380403
% es.Ez (V/m) @ t=0
4.788042676047423
% es.tEx (V/m) @ t=0
5.993360951203085
% es.tEy (V/m) @ t=0
0
% es.tEz (V/m) @ t=0
4.788042676047429
% V (V) @ t=0
0.006387423795242075
% es.normE (V/m) @ t=0.02
6.680462395176986
% es.EX (V/m) @ t=0.02
5.176585353175242
% es.EY (V/m) @ t=0.02
-0.7932061200494873
% es.EZ (V/m) @ t=0.02
4.135527941711944
% es.tEX (V/m) @ t=0.02
5.176585353175265
% es.tEY (V/m) @ t=0.02
0
% es.tEZ (V/m) @ t=0.02
4.13552794171194
% es.Ex (V/m) @ t=0.02
5.176585353175242
% es.Ey (V/m) @ t=0.02
-0.7932061200494873
% es.Ez (V/m) @ t=0.02
4.135527941711944
% es.tEx (V/m) @ t=0.02
5.176585353175265
% es.tEy (V/m) @ t=0.02
0
% es.tEz (V/m) @ t=0.02
4.13552794171194
% V (V) @ t=0.02
0.005516945167977346
% es.normE (V/m) @ t=0.04
6.741916166474468
% es.EX (V/m) @ t=0.04
5.224204922443835
% es.EY (V/m) @ t=0.04
-0.8005026442785157
% es.EZ (V/m) @ t=0.04
4.173570829362537
% es.tEX (V/m) @ t=0.04
5.224204922443854
% es.tEY (V/m) @ t=0.04
0
% es.tEZ (V/m) @ t=0.04
4.1735708293625295
% es.Ex (V/m) @ t=0.04
5.224204922443835
% es.Ey (V/m) @ t=0.04
-0.8005026442785157
% es.Ez (V/m) @ t=0.04
4.173570829362537
% es.tEx (V/m) @ t=0.04
5.224204922443854
% es.tEy (V/m) @ t=0.04
0
% es.tEz (V/m) @ t=0.04
4.1735708293625295
% V (V) @ t=0.04
0.005567695416857032
% es.normE (V/m) @ t=0.06
6.803921955653696
% es.EX (V/m) @ t=0.06
5.272252239648931
% es.EY (V/m) @ t=0.06
-0.8078647690044249
% es.EZ (V/m) @ t=0.06
4.211955430433882
% es.tEX (V/m) @ t=0.06
5.272252239648941
% es.tEY (V/m) @ t=0.06
0
% es.tEZ (V/m) @ t=0.06
4.211955430433873
% es.Ex (V/m) @ t=0.06
5.272252239648931
% es.Ey (V/m) @ t=0.06
-0.8078647690044249
% es.Ez (V/m) @ t=0.06
4.211955430433882
% es.tEx (V/m) @ t=0.06
5.272252239648941
% es.tEy (V/m) @ t=0.06
0
% es.tEz (V/m) @ t=0.06
4.211955430433873
% V (V) @ t=0.06
0.005618901622042525
% es.normE (V/m) @ t=0.08
6.8668785788792635
% es.EX (V/m) @ t=0.08
5.321036357101336
% es.EY (V/m) @ t=0.08
-0.8153394090261106
% es.EZ (V/m) @ t=0.08
4.25092872622258
% es.tEX (V/m) @ t=0.08
5.3210363571013595
% es.tEY (V/m) @ t=0.08
0
% es.tEZ (V/m) @ t=0.08
4.2509287262225754
% es.Ex (V/m) @ t=0.08
5.321036357101336
% es.Ey (V/m) @ t=0.08
-0.8153394090261106
% es.Ez (V/m) @ t=0.08
4.25092872622258
% es.tEx (V/m) @ t=0.08
5.3210363571013595
% es.tEy (V/m) @ t=0.08
0
% es.tEz (V/m) @ t=0.08
4.2509287262225754
% V (V) @ t=0.08
0.005670892504015624
% es.normE (V/m) @ t=0.1
6.93048614647277
% es.EX (V/m) @ t=0.1
5.370324890621966
% es.EY (V/m) @ t=0.1
-0.822891077419202
% es.EZ (V/m) @ t=0.1
4.290305044507263
% es.tEX (V/m) @ t=0.1
5.37032489062198
% es.tEY (V/m) @ t=0.1
0
% es.tEZ (V/m) @ t=0.1
4.290305044507261
% es.Ex (V/m) @ t=0.1
5.370324890621966
% es.Ey (V/m) @ t=0.1
-0.822891077419202
% es.Ez (V/m) @ t=0.1
4.290305044507263
% es.tEx (V/m) @ t=0.1
5.37032489062198
% es.tEy (V/m) @ t=0.1
0
% es.tEz (V/m) @ t=0.1
4.290305044507261
% V (V) @ t=0.1
0.005723420578506595
% es.normE (V/m) @ t=0.12
6.99409371406643
% es.EX (V/m) @ t=0.12
5.41961342414257
% es.EY (V/m) @ t=0.12
-0.8304427458123049
% es.EZ (V/m) @ t=0.12
4.329681362791958
% es.tEX (V/m) @ t=0.12
5.419613424142572
% es.tEY (V/m) @ t=0.12
0
% es.tEZ (V/m) @ t=0.12
4.329681362791953
% es.Ex (V/m) @ t=0.12
5.41961342414257
% es.Ey (V/m) @ t=0.12
-0.8304427458123049
% es.Ez (V/m) @ t=0.12
4.329681362791958
% es.tEx (V/m) @ t=0.12
5.419613424142572
% es.tEy (V/m) @ t=0.12
0
% es.tEz (V/m) @ t=0.12
4.329681362791953
% V (V) @ t=0.12
0.005775948652997566
% es.normE (V/m) @ t=0.14
7.0583700640413465
% es.EX (V/m) @ t=0.14
5.469420176601103
% es.EY (V/m) @ t=0.14
-0.8380740978106305
% es.EZ (V/m) @ t=0.14
4.369471629991226
% es.tEX (V/m) @ t=0.14
5.4694201766011155
% es.tEY (V/m) @ t=0.14
0
% es.tEZ (V/m) @ t=0.14
4.3694716299912235
% es.Ex (V/m) @ t=0.14
5.469420176601103
% es.Ey (V/m) @ t=0.14
-0.8380740978106305
% es.Ez (V/m) @ t=0.14
4.369471629991226
% es.tEx (V/m) @ t=0.14
5.4694201766011155
% es.tEy (V/m) @ t=0.14
0
% es.tEz (V/m) @ t=0.14
4.3694716299912235
% V (V) @ t=0.14
0.005829029428832137
% es.normE (V/m) @ t=0.16
7.12536947966135
% es.EX (V/m) @ t=0.16
5.521336949039546
% es.EY (V/m) @ t=0.16
-0.8460298956887407
% es.EZ (V/m) @ t=0.16
4.41094736334511
% es.tEX (V/m) @ t=0.16
5.521336949039556
% es.tEY (V/m) @ t=0.16
0
% es.tEZ (V/m) @ t=0.16
4.410947363345116
% es.Ex (V/m) @ t=0.16
5.521336949039546
% es.Ey (V/m) @ t=0.16
-0.8460298956887407
% es.Ez (V/m) @ t=0.16
4.41094736334511
% es.tEx (V/m) @ t=0.16
5.521336949039556
% es.tEy (V/m) @ t=0.16
0
% es.tEz (V/m) @ t=0.16
4.410947363345116
% V (V) @ t=0.16
0.005884360625854962
% es.normE (V/m) @ t=0.18
7.192368895281499
% es.EX (V/m) @ t=0.18
5.573253721478036
% es.EY (V/m) @ t=0.18
-0.8539856935668197
% es.EZ (V/m) @ t=0.18
4.452423096699004
% es.tEX (V/m) @ t=0.18
5.573253721478068
% es.tEY (V/m) @ t=0.18
0
% es.tEZ (V/m) @ t=0.18
4.452423096699007
% es.Ex (V/m) @ t=0.18
5.573253721478036
% es.Ey (V/m) @ t=0.18
-0.8539856935668197
% es.Ez (V/m) @ t=0.18
4.452423096699004
% es.tEx (V/m) @ t=0.18
5.573253721478068
% es.tEy (V/m) @ t=0.18
0
% es.tEz (V/m) @ t=0.18
4.452423096699007
% V (V) @ t=0.18
0.005939691822877786
% es.normE (V/m) @ t=0.2
7.259368310901754
% es.EX (V/m) @ t=0.2
5.6251704939165394
% es.EY (V/m) @ t=0.2
-0.8619414914449237
% es.EZ (V/m) @ t=0.2
4.493898830052886
% es.tEX (V/m) @ t=0.2
5.625170493916551
% es.tEY (V/m) @ t=0.2
0
% es.tEZ (V/m) @ t=0.2
4.493898830052878
% es.Ex (V/m) @ t=0.2
5.6251704939165394
% es.Ey (V/m) @ t=0.2
-0.8619414914449237
% es.Ez (V/m) @ t=0.2
4.493898830052886
% es.tEx (V/m) @ t=0.2
5.625170493916551
% es.tEy (V/m) @ t=0.2
0
% es.tEz (V/m) @ t=0.2
4.493898830052878
% V (V) @ t=0.2
0.005995023019900612
% es.normE (V/m) @ t=0.22
7.326367726522069
% es.EX (V/m) @ t=0.22
5.6770872663550005
% es.EY (V/m) @ t=0.22
-0.8698972893230144
% es.EZ (V/m) @ t=0.22
4.53537456340676
% es.tEX (V/m) @ t=0.22
5.67708726635502
% es.tEY (V/m) @ t=0.22
0
% es.tEZ (V/m) @ t=0.22
4.535374563406765
% es.Ex (V/m) @ t=0.22
5.6770872663550005
% es.Ey (V/m) @ t=0.22
-0.8698972893230144
% es.Ez (V/m) @ t=0.22
4.53537456340676
% es.tEx (V/m) @ t=0.22
5.67708726635502
% es.tEy (V/m) @ t=0.22
0
% es.tEz (V/m) @ t=0.22
4.535374563406765
% V (V) @ t=0.22
0.006050354216923437
% es.normE (V/m) @ t=0.24
7.393367142142513
% es.EX (V/m) @ t=0.24
5.72900403879349
% es.EY (V/m) @ t=0.24
-0.8778530872011343
% es.EZ (V/m) @ t=0.24
4.576850296760646
% es.tEX (V/m) @ t=0.24
5.7290040387935175
% es.tEY (V/m) @ t=0.24
0
% es.tEZ (V/m) @ t=0.24
4.576850296760644
% es.Ex (V/m) @ t=0.24
5.72900403879349
% es.Ey (V/m) @ t=0.24
-0.8778530872011343
% es.Ez (V/m) @ t=0.24
4.576850296760646
% es.tEx (V/m) @ t=0.24
5.7290040387935175
% es.tEy (V/m) @ t=0.24
0
% es.tEz (V/m) @ t=0.24
4.576850296760644
% V (V) @ t=0.24
0.006105685413946261
% es.normE (V/m) @ t=0.26
7.460366557763031
% es.EX (V/m) @ t=0.26
5.780920811231962
% es.EY (V/m) @ t=0.26
-0.8858088850792125
% es.EZ (V/m) @ t=0.26
4.618326030114531
% es.tEX (V/m) @ t=0.26
5.7809208112319865
% es.tEY (V/m) @ t=0.26
0
% es.tEZ (V/m) @ t=0.26
4.618326030114531
% es.Ex (V/m) @ t=0.26
5.780920811231962
% es.Ey (V/m) @ t=0.26
-0.8858088850792125
% es.Ez (V/m) @ t=0.26
4.618326030114531
% es.tEx (V/m) @ t=0.26
5.7809208112319865
% es.tEy (V/m) @ t=0.26
0
% es.tEz (V/m) @ t=0.26
4.618326030114531
% V (V) @ t=0.26
0.006161016610969087
% es.normE (V/m) @ t=0.28
7.530448454789465
% es.EX (V/m) @ t=0.28
5.835226189142316
% es.EY (V/m) @ t=0.28
-0.8941296017903468
% es.EZ (V/m) @ t=0.28
4.661710201707566
% es.tEX (V/m) @ t=0.28
5.835226189142341
% es.tEY (V/m) @ t=0.28
0
% es.tEZ (V/m) @ t=0.28
4.661710201707566
% es.Ex (V/m) @ t=0.28
5.835226189142316
% es.Ey (V/m) @ t=0.28
-0.8941296017903468
% es.Ez (V/m) @ t=0.28
4.661710201707566
% es.tEx (V/m) @ t=0.28
5.835226189142341
% es.tEy (V/m) @ t=0.28
0
% es.tEz (V/m) @ t=0.28
4.661710201707566
% V (V) @ t=0.28
0.006218891860638982
% es.normE (V/m) @ t=0.3
7.605072162263506
% es.EX (V/m) @ t=0.3
5.893051002162655
% es.EY (V/m) @ t=0.3
-0.9029879996582482
% es.EZ (V/m) @ t=0.3
4.707906317183024
% es.tEX (V/m) @ t=0.3
5.893051002162667
% es.tEY (V/m) @ t=0.3
0
% es.tEZ (V/m) @ t=0.3
4.707906317183016
% es.Ex (V/m) @ t=0.3
5.893051002162655
% es.Ey (V/m) @ t=0.3
-0.9029879996582482
% es.Ez (V/m) @ t=0.3
4.707906317183024
% es.tEx (V/m) @ t=0.3
5.893051002162667
% es.tEy (V/m) @ t=0.3
0
% es.tEz (V/m) @ t=0.3
4.707906317183016
% V (V) @ t=0.3
0.006280515585439343
% es.normE (V/m) @ t=0.32
7.679695869738574
% es.EX (V/m) @ t=0.32
5.950875815182998
% es.EY (V/m) @ t=0.32
-0.9118463975261344
% es.EZ (V/m) @ t=0.32
4.75410243265848
% es.tEX (V/m) @ t=0.32
5.9508758151830214
% es.tEY (V/m) @ t=0.32
0
% es.tEZ (V/m) @ t=0.32
4.754102432658481
% es.Ex (V/m) @ t=0.32
5.950875815182998
% es.Ey (V/m) @ t=0.32
-0.9118463975261344
% es.Ez (V/m) @ t=0.32
4.75410243265848
% es.tEx (V/m) @ t=0.32
5.9508758151830214
% es.tEy (V/m) @ t=0.32
0
% es.tEz (V/m) @ t=0.32
4.754102432658481
% V (V) @ t=0.32
0.006342139310239704
% es.normE (V/m) @ t=0.34
7.7543195772146305
% es.EX (V/m) @ t=0.34
6.008700628203323
% es.EY (V/m) @ t=0.34
-0.9207047953940437
% es.EZ (V/m) @ t=0.34
4.800298548133933
% es.tEX (V/m) @ t=0.34
6.008700628203361
% es.tEY (V/m) @ t=0.34
0
% es.tEZ (V/m) @ t=0.34
4.8002985481339255
% es.Ex (V/m) @ t=0.34
6.008700628203323
% es.Ey (V/m) @ t=0.34
-0.9207047953940437
% es.Ez (V/m) @ t=0.34
4.800298548133933
% es.tEx (V/m) @ t=0.34
6.008700628203361
% es.tEy (V/m) @ t=0.34
0
% es.tEz (V/m) @ t=0.34
4.8002985481339255
% V (V) @ t=0.34
0.006403763035040064
% es.normE (V/m) @ t=0.36
7.828943284691661
% es.EX (V/m) @ t=0.36
6.066525441223638
% es.EY (V/m) @ t=0.36
-0.9295631932619672
% es.EZ (V/m) @ t=0.36
4.846494663609399
% es.tEX (V/m) @ t=0.36
6.066525441223644
% es.tEY (V/m) @ t=0.36
0
% es.tEZ (V/m) @ t=0.36
4.846494663609391
% es.Ex (V/m) @ t=0.36
6.066525441223638
% es.Ey (V/m) @ t=0.36
-0.9295631932619672
% es.Ez (V/m) @ t=0.36
4.846494663609399
% es.tEx (V/m) @ t=0.36
6.066525441223644
% es.tEy (V/m) @ t=0.36
0
% es.tEz (V/m) @ t=0.36
4.846494663609391
% V (V) @ t=0.36
0.006465386759840426
% es.normE (V/m) @ t=0.38
7.90356699216964
% es.EX (V/m) @ t=0.38
6.124350254243977
% es.EY (V/m) @ t=0.38
-0.9384215911298668
% es.EZ (V/m) @ t=0.38
4.892690779084845
% es.tEX (V/m) @ t=0.38
6.124350254244012
% es.tEY (V/m) @ t=0.38
0
% es.tEZ (V/m) @ t=0.38
4.89269077908485
% es.Ex (V/m) @ t=0.38
6.124350254243977
% es.Ey (V/m) @ t=0.38
-0.9384215911298668
% es.Ez (V/m) @ t=0.38
4.892690779084845
% es.tEx (V/m) @ t=0.38
6.124350254244012
% es.tEy (V/m) @ t=0.38
0
% es.tEz (V/m) @ t=0.38
4.89269077908485
% V (V) @ t=0.38
0.006527010484640787
% es.normE (V/m) @ t=0.4
7.978190699648552
% es.EX (V/m) @ t=0.4
6.182175067264324
% es.EY (V/m) @ t=0.4
-0.9472799889978027
% es.EZ (V/m) @ t=0.4
4.9388868945603
% es.tEX (V/m) @ t=0.4
6.182175067264351
% es.tEY (V/m) @ t=0.4
0
% es.tEZ (V/m) @ t=0.4
4.938886894560301
% es.Ex (V/m) @ t=0.4
6.182175067264324
% es.Ey (V/m) @ t=0.4
-0.9472799889978027
% es.Ez (V/m) @ t=0.4
4.9388868945603
% es.tEx (V/m) @ t=0.4
6.182175067264351
% es.tEy (V/m) @ t=0.4
0
% es.tEz (V/m) @ t=0.4
4.938886894560301
% V (V) @ t=0.4
0.006588634209441148
% es.normE (V/m) @ t=0.42
8.052814407128345
% es.EX (V/m) @ t=0.42
6.2399998802846675
% es.EY (V/m) @ t=0.42
-0.9561383868656907
% es.EZ (V/m) @ t=0.42
4.985083010035749
% es.tEX (V/m) @ t=0.42
6.239999880284692
% es.tEY (V/m) @ t=0.42
0
% es.tEZ (V/m) @ t=0.42
4.985083010035744
% es.Ex (V/m) @ t=0.42
6.2399998802846675
% es.Ey (V/m) @ t=0.42
-0.9561383868656907
% es.Ez (V/m) @ t=0.42
4.985083010035749
% es.tEx (V/m) @ t=0.42
6.239999880284692
% es.tEy (V/m) @ t=0.42
0
% es.tEz (V/m) @ t=0.42
4.985083010035744
% V (V) @ t=0.42
0.00665025793424151
% es.normE (V/m) @ t=0.44
8.127438114609042
% es.EX (V/m) @ t=0.44
6.297824693305046
% es.EY (V/m) @ t=0.44
-0.9649967847336196
% es.EZ (V/m) @ t=0.44
5.031279125511205
% es.tEX (V/m) @ t=0.44
6.297824693305046
% es.tEY (V/m) @ t=0.44
0
% es.tEZ (V/m) @ t=0.44
5.031279125511203
% es.Ex (V/m) @ t=0.44
6.297824693305046
% es.Ey (V/m) @ t=0.44
-0.9649967847336196
% es.Ez (V/m) @ t=0.44
5.031279125511205
% es.tEx (V/m) @ t=0.44
6.297824693305046
% es.tEy (V/m) @ t=0.44
0
% es.tEz (V/m) @ t=0.44
5.031279125511203
% V (V) @ t=0.44
0.006711881659041871
% es.normE (V/m) @ t=0.46
8.202061822090542
% es.EX (V/m) @ t=0.46
6.355649506325367
% es.EY (V/m) @ t=0.46
-0.9738551826015058
% es.EZ (V/m) @ t=0.46
5.07747524098667
% es.tEX (V/m) @ t=0.46
6.355649506325386
% es.tEY (V/m) @ t=0.46
0
% es.tEZ (V/m) @ t=0.46
5.077475240986675
% es.Ex (V/m) @ t=0.46
6.355649506325367
% es.Ey (V/m) @ t=0.46
-0.9738551826015058
% es.Ez (V/m) @ t=0.46
5.07747524098667
% es.tEx (V/m) @ t=0.46
6.355649506325386
% es.tEy (V/m) @ t=0.46
0
% es.tEz (V/m) @ t=0.46
5.077475240986675
% V (V) @ t=0.46
0.006773505383842231
% es.normE (V/m) @ t=0.48
8.276685529572866
% es.EX (V/m) @ t=0.48
6.4134743193456965
% es.EY (V/m) @ t=0.48
-0.9827135804694427
% es.EZ (V/m) @ t=0.48
5.123671356462126
% es.tEX (V/m) @ t=0.48
6.413474319345697
% es.tEY (V/m) @ t=0.48
0
% es.tEZ (V/m) @ t=0.48
5.123671356462118
% es.Ex (V/m) @ t=0.48
6.4134743193456965
% es.Ey (V/m) @ t=0.48
-0.9827135804694427
% es.Ez (V/m) @ t=0.48
5.123671356462126
% es.tEx (V/m) @ t=0.48
6.413474319345697
% es.tEy (V/m) @ t=0.48
0
% es.tEz (V/m) @ t=0.48
5.123671356462118
% V (V) @ t=0.48
0.006835129108642592
% es.normE (V/m) @ t=0.5
8.351309237056011
% es.EX (V/m) @ t=0.5
6.471299132366053
% es.EY (V/m) @ t=0.5
-0.991571978337336
% es.EZ (V/m) @ t=0.5
5.169867471937586
% es.tEX (V/m) @ t=0.5
6.471299132366093
% es.tEY (V/m) @ t=0.5
0
% es.tEZ (V/m) @ t=0.5
5.169867471937577
% es.Ex (V/m) @ t=0.5
6.471299132366053
% es.Ey (V/m) @ t=0.5
-0.991571978337336
% es.Ez (V/m) @ t=0.5
5.169867471937586
% es.tEx (V/m) @ t=0.5
6.471299132366093
% es.tEy (V/m) @ t=0.5
0
% es.tEz (V/m) @ t=0.5
5.169867471937577
% V (V) @ t=0.5
0.006896752833442954
% es.normE (V/m) @ t=0.52
8.425932944539888
% es.EX (V/m) @ t=0.52
6.529123945386368
% es.EY (V/m) @ t=0.52
-1.0004303762052418
% es.EZ (V/m) @ t=0.52
5.216063587413024
% es.tEX (V/m) @ t=0.52
6.529123945386391
% es.tEY (V/m) @ t=0.52
0
% es.tEZ (V/m) @ t=0.52
5.2160635874130215
% es.Ex (V/m) @ t=0.52
6.529123945386368
% es.Ey (V/m) @ t=0.52
-1.0004303762052418
% es.Ez (V/m) @ t=0.52
5.216063587413024
% es.tEx (V/m) @ t=0.52
6.529123945386391
% es.tEy (V/m) @ t=0.52
0
% es.tEz (V/m) @ t=0.52
5.2160635874130215
% V (V) @ t=0.52
0.006958376558243317
% es.normE (V/m) @ t=0.54
8.50055665202456
% es.EX (V/m) @ t=0.54
6.586948758406711
% es.EY (V/m) @ t=0.54
-1.0092887740731609
% es.EZ (V/m) @ t=0.54
5.262259702888484
% es.tEX (V/m) @ t=0.54
6.586948758406731
% es.tEY (V/m) @ t=0.54
0
% es.tEZ (V/m) @ t=0.54
5.262259702888486
% es.Ex (V/m) @ t=0.54
6.586948758406711
% es.Ey (V/m) @ t=0.54
-1.0092887740731609
% es.Ez (V/m) @ t=0.54
5.262259702888484
% es.tEx (V/m) @ t=0.54
6.586948758406731
% es.tEy (V/m) @ t=0.54
0
% es.tEz (V/m) @ t=0.54
5.262259702888486
% V (V) @ t=0.54
0.007020000283043677
% es.normE (V/m) @ t=0.56
8.582256770553807
% es.EX (V/m) @ t=0.56
6.650256866784718
% es.EY (V/m) @ t=0.56
-1.0189902817920196
% es.EZ (V/m) @ t=0.56
5.312835831820216
% es.tEX (V/m) @ t=0.56
6.650256866784743
% es.tEY (V/m) @ t=0.56
0
% es.tEZ (V/m) @ t=0.56
5.312835831820213
% es.Ex (V/m) @ t=0.56
6.650256866784718
% es.Ey (V/m) @ t=0.56
-1.0189902817920196
% es.Ez (V/m) @ t=0.56
5.312835831820216
% es.tEx (V/m) @ t=0.56
6.650256866784743
% es.tEy (V/m) @ t=0.56
0
% es.tEz (V/m) @ t=0.56
5.312835831820213
% V (V) @ t=0.56
0.007087472118797973
% es.normE (V/m) @ t=0.58
8.665525584122163
% es.EX (V/m) @ t=0.58
6.714780509162752
% es.EY (V/m) @ t=0.58
-1.028878689654416
% es.EZ (V/m) @ t=0.58
5.364382919806577
% es.tEX (V/m) @ t=0.58
6.714780509162775
% es.tEY (V/m) @ t=0.58
0
% es.tEZ (V/m) @ t=0.58
5.364382919806571
% es.Ex (V/m) @ t=0.58
6.714780509162752
% es.Ey (V/m) @ t=0.58
-1.028878689654416
% es.Ez (V/m) @ t=0.58
5.364382919806577
% es.tEx (V/m) @ t=0.58
6.714780509162775
% es.tEy (V/m) @ t=0.58
0
% es.tEz (V/m) @ t=0.58
5.364382919806571
% V (V) @ t=0.58
0.007156240360679748
% es.normE (V/m) @ t=0.6
8.74879439769116
% es.EX (V/m) @ t=0.6
6.779304151540817
% es.EY (V/m) @ t=0.6
-1.0387670975168053
% es.EZ (V/m) @ t=0.6
5.415930007792924
% es.tEX (V/m) @ t=0.6
6.779304151540849
% es.tEY (V/m) @ t=0.6
0
% es.tEZ (V/m) @ t=0.6
5.415930007792924
% es.Ex (V/m) @ t=0.6
6.779304151540817
% es.Ey (V/m) @ t=0.6
-1.0387670975168053
% es.Ez (V/m) @ t=0.6
5.415930007792924
% es.tEx (V/m) @ t=0.6
6.779304151540849
% es.tEy (V/m) @ t=0.6
0
% es.tEz (V/m) @ t=0.6
5.415930007792924
% V (V) @ t=0.6
0.007225008602561525
% es.normE (V/m) @ t=0.62
8.832063211260756
% es.EX (V/m) @ t=0.62
6.843827793918871
% es.EY (V/m) @ t=0.62
-1.0486555053792035
% es.EZ (V/m) @ t=0.62
5.467477095779271
% es.tEX (V/m) @ t=0.62
6.84382779391888
% es.tEY (V/m) @ t=0.62
0
% es.tEZ (V/m) @ t=0.62
5.467477095779268
% es.Ex (V/m) @ t=0.62
6.843827793918871
% es.Ey (V/m) @ t=0.62
-1.0486555053792035
% es.Ez (V/m) @ t=0.62
5.467477095779271
% es.tEx (V/m) @ t=0.62
6.84382779391888
% es.tEy (V/m) @ t=0.62
0
% es.tEz (V/m) @ t=0.62
5.467477095779268
% V (V) @ t=0.62
0.007293776844443299
% es.normE (V/m) @ t=0.64
8.915332024830919
% es.EX (V/m) @ t=0.64
6.90835143629689
% es.EY (V/m) @ t=0.64
-1.0585439132416123
% es.EZ (V/m) @ t=0.64
5.519024183765619
% es.tEX (V/m) @ t=0.64
6.908351436296925
% es.tEY (V/m) @ t=0.64
0
% es.tEZ (V/m) @ t=0.64
5.519024183765605
% es.Ex (V/m) @ t=0.64
6.90835143629689
% es.Ey (V/m) @ t=0.64
-1.0585439132416123
% es.Ez (V/m) @ t=0.64
5.519024183765619
% es.tEx (V/m) @ t=0.64
6.908351436296925
% es.tEy (V/m) @ t=0.64
0
% es.tEz (V/m) @ t=0.64
5.519024183765605
% V (V) @ t=0.64
0.007362545086325074
% es.normE (V/m) @ t=0.66
8.998600838401682
% es.EX (V/m) @ t=0.66
6.97287507867493
% es.EY (V/m) @ t=0.66
-1.0684323211040336
% es.EZ (V/m) @ t=0.66
5.570571271751977
% es.tEX (V/m) @ t=0.66
6.9728750786749565
% es.tEY (V/m) @ t=0.66
0
% es.tEZ (V/m) @ t=0.66
5.57057127175197
% es.Ex (V/m) @ t=0.66
6.97287507867493
% es.Ey (V/m) @ t=0.66
-1.0684323211040336
% es.Ez (V/m) @ t=0.66
5.570571271751977
% es.tEx (V/m) @ t=0.66
6.9728750786749565
% es.tEy (V/m) @ t=0.66
0
% es.tEz (V/m) @ t=0.66
5.57057127175197
% V (V) @ t=0.66
0.007431313328206851
% es.normE (V/m) @ t=0.68
9.081869651973001
% es.EX (V/m) @ t=0.68
7.037398721052984
% es.EY (V/m) @ t=0.68
-1.0783207289664336
% es.EZ (V/m) @ t=0.68
5.622118359738323
% es.tEX (V/m) @ t=0.68
7.037398721053016
% es.tEY (V/m) @ t=0.68
0
% es.tEZ (V/m) @ t=0.68
5.622118359738329
% es.Ex (V/m) @ t=0.68
7.037398721052984
% es.Ey (V/m) @ t=0.68
-1.0783207289664336
% es.Ez (V/m) @ t=0.68
5.622118359738323
% es.tEx (V/m) @ t=0.68
7.037398721053016
% es.tEy (V/m) @ t=0.68
0
% es.tEz (V/m) @ t=0.68
5.622118359738329
% V (V) @ t=0.68
0.007500081570088625
% es.normE (V/m) @ t=0.7
9.165138465544864
% es.EX (V/m) @ t=0.7
7.101922363431038
% es.EY (V/m) @ t=0.7
-1.0882091368288425
% es.EZ (V/m) @ t=0.7
5.673665447724667
% es.tEX (V/m) @ t=0.7
7.101922363431061
% es.tEY (V/m) @ t=0.7
0
% es.tEZ (V/m) @ t=0.7
5.673665447724666
% es.Ex (V/m) @ t=0.7
7.101922363431038
% es.Ey (V/m) @ t=0.7
-1.0882091368288425
% es.Ez (V/m) @ t=0.7
5.673665447724667
% es.tEx (V/m) @ t=0.7
7.101922363431061
% es.tEy (V/m) @ t=0.7
0
% es.tEz (V/m) @ t=0.7
5.673665447724666
% V (V) @ t=0.7
0.0075688498119704
% es.normE (V/m) @ t=0.72
9.248407279117288
% es.EX (V/m) @ t=0.72
7.166446005809121
% es.EY (V/m) @ t=0.72
-1.0980975446912389
% es.EZ (V/m) @ t=0.72
5.725212535711025
% es.tEX (V/m) @ t=0.72
7.166446005809121
% es.tEY (V/m) @ t=0.72
0
% es.tEZ (V/m) @ t=0.72
5.725212535711019
% es.Ex (V/m) @ t=0.72
7.166446005809121
% es.Ey (V/m) @ t=0.72
-1.0980975446912389
% es.Ez (V/m) @ t=0.72
5.725212535711025
% es.tEx (V/m) @ t=0.72
7.166446005809121
% es.tEy (V/m) @ t=0.72
0
% es.tEz (V/m) @ t=0.72
5.725212535711019
% V (V) @ t=0.72
0.007637618053852177
% es.normE (V/m) @ t=0.74
9.33167609269019
% es.EX (V/m) @ t=0.74
7.230969648187161
% es.EY (V/m) @ t=0.74
-1.107985952553653
% es.EZ (V/m) @ t=0.74
5.776759623697376
% es.tEX (V/m) @ t=0.74
7.23096964818718
% es.tEY (V/m) @ t=0.74
0
% es.tEZ (V/m) @ t=0.74
5.776759623697377
% es.Ex (V/m) @ t=0.74
7.230969648187161
% es.Ey (V/m) @ t=0.74
-1.107985952553653
% es.Ez (V/m) @ t=0.74
5.776759623697376
% es.tEx (V/m) @ t=0.74
7.23096964818718
% es.tEy (V/m) @ t=0.74
0
% es.tEz (V/m) @ t=0.74
5.776759623697377
% V (V) @ t=0.74
0.007706386295733951
% es.normE (V/m) @ t=0.76
9.4149449062636
% es.EX (V/m) @ t=0.76
7.295493290565215
% es.EY (V/m) @ t=0.76
-1.1178743604160495
% es.EZ (V/m) @ t=0.76
5.828306711683723
% es.tEX (V/m) @ t=0.76
7.295493290565241
% es.tEY (V/m) @ t=0.76
0
% es.tEZ (V/m) @ t=0.76
5.8283067116837355
% es.Ex (V/m) @ t=0.76
7.295493290565215
% es.Ey (V/m) @ t=0.76
-1.1178743604160495
% es.Ez (V/m) @ t=0.76
5.828306711683723
% es.tEx (V/m) @ t=0.76
7.295493290565241
% es.tEy (V/m) @ t=0.76
0
% es.tEz (V/m) @ t=0.76
5.8283067116837355
% V (V) @ t=0.76
0.007775154537615726
% es.normE (V/m) @ t=0.78
9.49821371983747
% es.EX (V/m) @ t=0.78
7.360016932943241
% es.EY (V/m) @ t=0.78
-1.127762768278462
% es.EZ (V/m) @ t=0.78
5.879853799670062
% es.tEX (V/m) @ t=0.78
7.360016932943258
% es.tEY (V/m) @ t=0.78
0
% es.tEZ (V/m) @ t=0.78
5.879853799670072
% es.Ex (V/m) @ t=0.78
7.360016932943241
% es.Ey (V/m) @ t=0.78
-1.127762768278462
% es.Ez (V/m) @ t=0.78
5.879853799670062
% es.tEx (V/m) @ t=0.78
7.360016932943258
% es.tEy (V/m) @ t=0.78
0
% es.tEz (V/m) @ t=0.78
5.879853799670072
% V (V) @ t=0.78
0.007843922779497503
% es.normE (V/m) @ t=0.8
9.58148253341186
% es.EX (V/m) @ t=0.8
7.424540575321302
% es.EY (V/m) @ t=0.8
-1.137651176140837
% es.EZ (V/m) @ t=0.8
5.931400887656432
% es.tEX (V/m) @ t=0.8
7.424540575321332
% es.tEY (V/m) @ t=0.8
0
% es.tEZ (V/m) @ t=0.8
5.931400887656417
% es.Ex (V/m) @ t=0.8
7.424540575321302
% es.Ey (V/m) @ t=0.8
-1.137651176140837
% es.Ez (V/m) @ t=0.8
5.931400887656432
% es.tEx (V/m) @ t=0.8
7.424540575321332
% es.tEy (V/m) @ t=0.8
0
% es.tEz (V/m) @ t=0.8
5.931400887656417
% V (V) @ t=0.8
0.007912691021379276
% es.normE (V/m) @ t=0.82
9.667035541171606
% es.EX (V/m) @ t=0.82
7.490834215037183
% es.EY (V/m) @ t=0.82
-1.1478104898034722
% es.EZ (V/m) @ t=0.82
5.984362068617999
% es.tEX (V/m) @ t=0.82
7.490834215037199
% es.tEY (V/m) @ t=0.82
0
% es.tEZ (V/m) @ t=0.82
5.984362068617985
% es.Ex (V/m) @ t=0.82
7.490834215037183
% es.Ey (V/m) @ t=0.82
-1.1478104898034722
% es.Ez (V/m) @ t=0.82
5.984362068617999
% es.tEx (V/m) @ t=0.82
7.490834215037199
% es.tEy (V/m) @ t=0.82
0
% es.tEz (V/m) @ t=0.82
5.984362068617985
% V (V) @ t=0.82
0.007983345179707134
% es.normE (V/m) @ t=0.84
9.760116471329525
% es.EX (V/m) @ t=0.84
7.5629611602977675
% es.EY (V/m) @ t=0.84
-1.1588626162814197
% es.EZ (V/m) @ t=0.84
6.041983616132963
% es.tEX (V/m) @ t=0.84
7.562961160297803
% es.tEY (V/m) @ t=0.84
0
% es.tEZ (V/m) @ t=0.84
6.041983616132964
% es.Ex (V/m) @ t=0.84
7.5629611602977675
% es.Ey (V/m) @ t=0.84
-1.1588626162814197
% es.Ez (V/m) @ t=0.84
6.041983616132963
% es.tEx (V/m) @ t=0.84
7.562961160297803
% es.tEy (V/m) @ t=0.84
0
% es.tEz (V/m) @ t=0.84
6.041983616132964
% V (V) @ t=0.84
0.00806021467329355
% es.normE (V/m) @ t=0.86
9.853197401487385
% es.EX (V/m) @ t=0.86
7.635088105558245
% es.EY (V/m) @ t=0.86
-1.1699147427594276
% es.EZ (V/m) @ t=0.86
6.099605163647944
% es.tEX (V/m) @ t=0.86
7.635088105558266
% es.tEY (V/m) @ t=0.86
0
% es.tEZ (V/m) @ t=0.86
6.09960516364795
% es.Ex (V/m) @ t=0.86
7.635088105558245
% es.Ey (V/m) @ t=0.86
-1.1699147427594276
% es.Ez (V/m) @ t=0.86
6.099605163647944
% es.tEx (V/m) @ t=0.86
7.635088105558266
% es.tEy (V/m) @ t=0.86
0
% es.tEz (V/m) @ t=0.86
6.09960516364795
% V (V) @ t=0.86
0.008137084166879967
% es.normE (V/m) @ t=0.88
9.946278331645349
% es.EX (V/m) @ t=0.88
7.707215050818851
% es.EY (V/m) @ t=0.88
-1.180966869237409
% es.EZ (V/m) @ t=0.88
6.15722671116292
% es.tEX (V/m) @ t=0.88
7.707215050818885
% es.tEY (V/m) @ t=0.88
0
% es.tEZ (V/m) @ t=0.88
6.157226711162919
% es.Ex (V/m) @ t=0.88
7.707215050818851
% es.Ey (V/m) @ t=0.88
-1.180966869237409
% es.Ez (V/m) @ t=0.88
6.15722671116292
% es.tEx (V/m) @ t=0.88
7.707215050818885
% es.tEy (V/m) @ t=0.88
0
% es.tEz (V/m) @ t=0.88
6.157226711162919
% V (V) @ t=0.88
0.008213953660466383
% es.normE (V/m) @ t=0.9
10.039359261803238
% es.EX (V/m) @ t=0.9
7.779341996079364
% es.EY (V/m) @ t=0.9
-1.192018995715399
% es.EZ (V/m) @ t=0.9
6.214848258677877
% es.tEX (V/m) @ t=0.9
7.77934199607939
% es.tEY (V/m) @ t=0.9
0
% es.tEZ (V/m) @ t=0.9
6.214848258677884
% es.Ex (V/m) @ t=0.9
7.779341996079364
% es.Ey (V/m) @ t=0.9
-1.192018995715399
% es.Ez (V/m) @ t=0.9
6.214848258677877
% es.tEx (V/m) @ t=0.9
7.77934199607939
% es.tEy (V/m) @ t=0.9
0
% es.tEz (V/m) @ t=0.9
6.214848258677884
% V (V) @ t=0.9
0.008290823154052803
% es.normE (V/m) @ t=0.92
10.132440191961193
% es.EX (V/m) @ t=0.92
7.851468941339949
% es.EY (V/m) @ t=0.92
-1.2030711221933537
% es.EZ (V/m) @ t=0.92
6.272469806192844
% es.tEX (V/m) @ t=0.92
7.851468941339981
% es.tEY (V/m) @ t=0.92
0
% es.tEZ (V/m) @ t=0.92
6.272469806192856
% es.Ex (V/m) @ t=0.92
7.851468941339949
% es.Ey (V/m) @ t=0.92
-1.2030711221933537
% es.Ez (V/m) @ t=0.92
6.272469806192844
% es.tEx (V/m) @ t=0.92
7.851468941339981
% es.tEy (V/m) @ t=0.92
0
% es.tEz (V/m) @ t=0.92
6.272469806192856
% V (V) @ t=0.92
0.00836769264763922
% es.normE (V/m) @ t=0.94
10.225521122119126
% es.EX (V/m) @ t=0.94
7.92359588660049
% es.EY (V/m) @ t=0.94
-1.2141232486713562
% es.EZ (V/m) @ t=0.94
6.3300913537078145
% es.tEX (V/m) @ t=0.94
7.923595886600529
% es.tEY (V/m) @ t=0.94
0
% es.tEZ (V/m) @ t=0.94
6.330091353707834
% es.Ex (V/m) @ t=0.94
7.92359588660049
% es.Ey (V/m) @ t=0.94
-1.2141232486713562
% es.Ez (V/m) @ t=0.94
6.3300913537078145
% es.tEx (V/m) @ t=0.94
7.923595886600529
% es.tEy (V/m) @ t=0.94
0
% es.tEz (V/m) @ t=0.94
6.330091353707834
% V (V) @ t=0.94
0.008444562141225636
% es.normE (V/m) @ t=0.96
10.318602052277074
% es.EX (V/m) @ t=0.96
7.995722831861025
% es.EY (V/m) @ t=0.96
-1.225175375149334
% es.EZ (V/m) @ t=0.96
6.387712901222806
% es.tEX (V/m) @ t=0.96
7.995722831861034
% es.tEY (V/m) @ t=0.96
0
% es.tEZ (V/m) @ t=0.96
6.387712901222798
% es.Ex (V/m) @ t=0.96
7.995722831861025
% es.Ey (V/m) @ t=0.96
-1.225175375149334
% es.Ez (V/m) @ t=0.96
6.387712901222806
% es.tEx (V/m) @ t=0.96
7.995722831861034
% es.tEy (V/m) @ t=0.96
0
% es.tEz (V/m) @ t=0.96
6.387712901222798
% V (V) @ t=0.96
0.00852143163481205
% es.normE (V/m) @ t=0.98
10.411682982435023
% es.EX (V/m) @ t=0.98
8.067849777121566
% es.EY (V/m) @ t=0.98
-1.2362275016273117
% es.EZ (V/m) @ t=0.98
6.44533444873778
% es.tEX (V/m) @ t=0.98
8.06784977712158
% es.tEY (V/m) @ t=0.98
0
% es.tEZ (V/m) @ t=0.98
6.4453344487377695
% es.Ex (V/m) @ t=0.98
8.067849777121566
% es.Ey (V/m) @ t=0.98
-1.2362275016273117
% es.Ez (V/m) @ t=0.98
6.44533444873778
% es.tEx (V/m) @ t=0.98
8.06784977712158
% es.tEy (V/m) @ t=0.98
0
% es.tEz (V/m) @ t=0.98
6.4453344487377695
% V (V) @ t=0.98
0.00859830112839847
% es.normE (V/m) @ t=1
10.50476391259297
% es.EX (V/m) @ t=1
8.139976722382109
% es.EY (V/m) @ t=1
-1.2472796281052911
% es.EZ (V/m) @ t=1
6.502955996252739
% es.tEX (V/m) @ t=1
8.13997672238213
% es.tEY (V/m) @ t=1
0
% es.tEZ (V/m) @ t=1
6.502955996252726
% es.Ex (V/m) @ t=1
8.139976722382109
% es.Ey (V/m) @ t=1
-1.2472796281052911
% es.Ez (V/m) @ t=1
6.502955996252739
% es.tEx (V/m) @ t=1
8.13997672238213
% es.tEy (V/m) @ t=1
0
% es.tEz (V/m) @ t=1
6.502955996252726
% V (V) @ t=1
0.008675170621984885
% es.normE (V/m) @ t=1.02
10.597844842750966
% es.EX (V/m) @ t=1.02
8.2121036676427
% es.EY (V/m) @ t=1.02
-1.2583317545832813
% es.EZ (V/m) @ t=1.02
6.560577543767707
% es.tEX (V/m) @ t=1.02
8.212103667642735
% es.tEY (V/m) @ t=1.02
0
% es.tEZ (V/m) @ t=1.02
6.560577543767697
% es.Ex (V/m) @ t=1.02
8.2121036676427
% es.Ey (V/m) @ t=1.02
-1.2583317545832813
% es.Ez (V/m) @ t=1.02
6.560577543767707
% es.tEx (V/m) @ t=1.02
8.212103667642735
% es.tEy (V/m) @ t=1.02
0
% es.tEz (V/m) @ t=1.02
6.560577543767697
% V (V) @ t=1.02
0.008752040115571303
% es.normE (V/m) @ t=1.04
10.690925772908912
% es.EX (V/m) @ t=1.04
8.284230612903205
% es.EY (V/m) @ t=1.04
-1.2693838810612625
% es.EZ (V/m) @ t=1.04
6.618199091282683
% es.tEX (V/m) @ t=1.04
8.284230612903226
% es.tEY (V/m) @ t=1.04
0
% es.tEZ (V/m) @ t=1.04
6.618199091282675
% es.Ex (V/m) @ t=1.04
8.284230612903205
% es.Ey (V/m) @ t=1.04
-1.2693838810612625
% es.Ez (V/m) @ t=1.04
6.618199091282683
% es.tEx (V/m) @ t=1.04
8.284230612903226
% es.tEy (V/m) @ t=1.04
0
% es.tEz (V/m) @ t=1.04
6.618199091282675
% V (V) @ t=1.04
0.00882890960915772
% es.normE (V/m) @ t=1.06
10.784006703066902
% es.EX (V/m) @ t=1.06
8.356357558163761
% es.EY (V/m) @ t=1.06
-1.2804360075392633
% es.EZ (V/m) @ t=1.06
6.675820638797662
% es.tEX (V/m) @ t=1.06
8.356357558163786
% es.tEY (V/m) @ t=1.06
0
% es.tEZ (V/m) @ t=1.06