% Model:              1 neuron.mph
% Version:            COMSOL 6.1.0.252
% Date:               Mar 18 2023, 11:47
% Dimension:          0
% Nodes:              14017
% Expressions:        14017
% Description:        Electric field norm, Electric field, X component, Electric field, Y component, Electric field, Z component, Tangential electric field, X component, Tangential electric field, Y component, Tangential electric field, Z component, Electric field, x component, Electric field, y component, Electric field, z component, Tangential electric field, x component, Tangential electric field, y component, Tangential electric field, z component, Electric potential
% Length unit:        mm
% x
1.0000000000000002
% y
12.2
% z
2
% es.normE (V/m) @ t=0
0.6987715181398566
% es.EX (V/m) @ t=0
0.48537106784113193
% es.EY (V/m) @ t=0
0.0726793641919164
% es.EZ (V/m) @ t=0
-0.4846649514966186
% es.tEX (V/m) @ t=0
0.4853710678411338
% es.tEY (V/m) @ t=0
0
% es.tEZ (V/m) @ t=0
-0.4846649514966095
% es.Ex (V/m) @ t=0
0.48537106784113193
% es.Ey (V/m) @ t=0
0.0726793641919164
% es.Ez (V/m) @ t=0
-0.4846649514966186
% es.tEx (V/m) @ t=0
0.4853710678411338
% es.tEy (V/m) @ t=0
0
% es.tEz (V/m) @ t=0
-0.4846649514966095
% V (V) @ t=0
0.0074829101224907464
% es.normE (V/m) @ t=0.02
0.6035359801522779
% es.EX (V/m) @ t=0.02
0.4192198673509876
% es.EY (V/m) @ t=0.02
0.0627738981793872
% es.EZ (V/m) @ t=0.02
-0.41860998719190623
% es.tEX (V/m) @ t=0.02
0.41921986735099126
% es.tEY (V/m) @ t=0.02
0
% es.tEZ (V/m) @ t=0.02
-0.4186099871918971
% es.Ex (V/m) @ t=0.02
0.4192198673509876
% es.Ey (V/m) @ t=0.02
0.0627738981793872
% es.Ez (V/m) @ t=0.02
-0.41860998719190623
% es.tEx (V/m) @ t=0.02
0.41921986735099126
% es.tEy (V/m) @ t=0.02
0
% es.tEz (V/m) @ t=0.02
-0.4186099871918971
% V (V) @ t=0.02
0.0064630645949286785
% es.normE (V/m) @ t=0.04
0.6090867724560429
% es.EX (V/m) @ t=0.04
0.423075482369237
% es.EY (V/m) @ t=0.04
0.06335123840063037
% es.EZ (V/m) @ t=0.04
-0.42245999270001966
% es.tEX (V/m) @ t=0.04
0.423075482369238
% es.tEY (V/m) @ t=0.04
0
% es.tEZ (V/m) @ t=0.04
-0.42245999270001233
% es.Ex (V/m) @ t=0.04
0.423075482369237
% es.Ey (V/m) @ t=0.04
0.06335123840063037
% es.Ez (V/m) @ t=0.04
-0.42245999270001966
% es.tEx (V/m) @ t=0.04
0.423075482369238
% es.tEy (V/m) @ t=0.04
0
% es.tEz (V/m) @ t=0.04
-0.42245999270001233
% V (V) @ t=0.04
0.006522506122057725
% es.normE (V/m) @ t=0.06
0.6146895381318356
% es.EX (V/m) @ t=0.06
0.42696719855036236
% es.EY (V/m) @ t=0.06
0.06393398061366495
% es.EZ (V/m) @ t=0.06
-0.42634604799406417
% es.tEX (V/m) @ t=0.06
0.42696719855036425
% es.tEY (V/m) @ t=0.06
0
% es.tEZ (V/m) @ t=0.06
-0.42634604799405684
% es.Ex (V/m) @ t=0.06
0.42696719855036236
% es.Ey (V/m) @ t=0.06
0.06393398061366495
% es.Ez (V/m) @ t=0.06
-0.42634604799406417
% es.tEx (V/m) @ t=0.06
0.42696719855036425
% es.tEy (V/m) @ t=0.06
0
% es.tEz (V/m) @ t=0.06
-0.42634604799405684
% V (V) @ t=0.06
0.006582504363011309
% es.normE (V/m) @ t=0.08
0.6203732309545069
% es.EX (V/m) @ t=0.08
0.43091512747344496
% es.EY (V/m) @ t=0.08
0.06452513213239464
% es.EZ (V/m) @ t=0.08
-0.43028823677151773
% es.tEX (V/m) @ t=0.08
0.4309151274734466
% es.tEY (V/m) @ t=0.08
0
% es.tEZ (V/m) @ t=0.08
-0.4302882367715122
% es.Ex (V/m) @ t=0.08
0.43091512747344496
% es.Ey (V/m) @ t=0.08
0.06452513213239464
% es.Ez (V/m) @ t=0.08
-0.43028823677151773
% es.tEx (V/m) @ t=0.08
0.4309151274734466
% es.tEy (V/m) @ t=0.08
0
% es.tEz (V/m) @ t=0.08
-0.4302882367715122
% V (V) @ t=0.08
0.006643369570655098
% es.normE (V/m) @ t=0.1
0.6261226002911799
% es.EX (V/m) @ t=0.1
0.43490867590835347
% es.EY (V/m) @ t=0.1
0.06512310823229739
% es.EZ (V/m) @ t=0.1
-0.4342759807384431
% es.tEX (V/m) @ t=0.1
0.4349086759083549
% es.tEY (V/m) @ t=0.1
0
% es.tEZ (V/m) @ t=0.1
-0.434275980738434
% es.Ex (V/m) @ t=0.1
0.43490867590835347
% es.Ey (V/m) @ t=0.1
0.06512310823229739
% es.Ez (V/m) @ t=0.1
-0.4342759807384431
% es.tEx (V/m) @ t=0.1
0.4349086759083549
% es.tEy (V/m) @ t=0.1
0
% es.tEz (V/m) @ t=0.1
-0.434275980738434
% V (V) @ t=0.1
0.006704938366058469
% es.normE (V/m) @ t=0.12
0.6318719696278645
% es.EX (V/m) @ t=0.12
0.4389022243432642
% es.EY (V/m) @ t=0.12
0.06572108433220378
% es.EZ (V/m) @ t=0.12
-0.43826372470537933
% es.tEX (V/m) @ t=0.12
0.43890222434326676
% es.tEY (V/m) @ t=0.12
0
% es.tEZ (V/m) @ t=0.12
-0.43826372470537045
% es.Ex (V/m) @ t=0.12
0.4389022243432642
% es.Ey (V/m) @ t=0.12
0.06572108433220378
% es.Ez (V/m) @ t=0.12
-0.43826372470537933
% es.tEx (V/m) @ t=0.12
0.43890222434326676
% es.tEy (V/m) @ t=0.12
0
% es.tEz (V/m) @ t=0.12
-0.43826372470537045
% V (V) @ t=0.12
0.006766507161461838
% es.normE (V/m) @ t=0.14
0.6376567607218393
% es.EX (V/m) @ t=0.14
0.4429203769835641
% es.EY (V/m) @ t=0.14
0.06632274413300723
% es.EZ (V/m) @ t=0.14
-0.4422760372099608
% es.tEX (V/m) @ t=0.14
0.4429203769835639
% es.tEY (V/m) @ t=0.14
0
% es.tEZ (V/m) @ t=0.14
-0.44227603720995523
% es.Ex (V/m) @ t=0.14
0.4429203769835641
% es.Ey (V/m) @ t=0.14
0.06632274413300723
% es.Ez (V/m) @ t=0.14
-0.4422760372099608
% es.tEx (V/m) @ t=0.14
0.4429203769835639
% es.tEy (V/m) @ t=0.14
0
% es.tEz (V/m) @ t=0.14
-0.44227603720995523
% V (V) @ t=0.14
0.006828455288503268
% es.normE (V/m) @ t=0.16
0.6437165795547357
% es.EX (V/m) @ t=0.16
0.4471295658538649
% es.EY (V/m) @ t=0.16
0.06695300556187389
% es.EZ (V/m) @ t=0.16
-0.44647910900703747
% es.tEX (V/m) @ t=0.16
0.4471295658538643
% es.tEY (V/m) @ t=0.16
0
% es.tEZ (V/m) @ t=0.16
-0.44647910900702836
% es.Ex (V/m) @ t=0.16
0.4471295658538649
% es.Ey (V/m) @ t=0.16
0.06695300556187389
% es.Ez (V/m) @ t=0.16
-0.44647910900703747
% es.tEx (V/m) @ t=0.16
0.4471295658538643
% es.tEy (V/m) @ t=0.16
0
% es.tEz (V/m) @ t=0.16
-0.44647910900702836
% V (V) @ t=0.16
0.006893348687903762
% es.normE (V/m) @ t=0.18
0.6497763983876279
% es.EX (V/m) @ t=0.18
0.45133875472416507
% es.EY (V/m) @ t=0.18
0.06758326699073541
% es.EZ (V/m) @ t=0.18
-0.4506821808041066
% es.tEX (V/m) @ t=0.18
0.4513387547241654
% es.tEY (V/m) @ t=0.18
0
% es.tEZ (V/m) @ t=0.18
-0.45068218080410105
% es.Ex (V/m) @ t=0.18
0.45133875472416507
% es.Ey (V/m) @ t=0.18
0.06758326699073541
% es.Ez (V/m) @ t=0.18
-0.4506821808041066
% es.tEx (V/m) @ t=0.18
0.4513387547241654
% es.tEy (V/m) @ t=0.18
0
% es.tEz (V/m) @ t=0.18
-0.45068218080410105
% V (V) @ t=0.18
0.006958242087304258
% es.normE (V/m) @ t=0.2
0.655836217220523
% es.EX (V/m) @ t=0.2
0.4555479435944626
% es.EY (V/m) @ t=0.2
0.06821352841959291
% es.EZ (V/m) @ t=0.2
-0.4548852526011842
% es.tEX (V/m) @ t=0.2
0.45554794359446316
% es.tEY (V/m) @ t=0.2
0
% es.tEZ (V/m) @ t=0.2
-0.4548852526011804
% es.Ex (V/m) @ t=0.2
0.4555479435944626
% es.Ey (V/m) @ t=0.2
0.06821352841959291
% es.Ez (V/m) @ t=0.2
-0.4548852526011842
% es.tEx (V/m) @ t=0.2
0.45554794359446316
% es.tEy (V/m) @ t=0.2
0
% es.tEz (V/m) @ t=0.2
-0.4548852526011804
% V (V) @ t=0.2
0.007023135486704752
% es.normE (V/m) @ t=0.22
0.6618960360534101
% es.EX (V/m) @ t=0.22
0.45975713246475725
% es.EY (V/m) @ t=0.22
0.06884378984844991
% es.EZ (V/m) @ t=0.22
-0.4590883243982484
% es.tEX (V/m) @ t=0.22
0.45975713246476047
% es.tEY (V/m) @ t=0.22
0
% es.tEZ (V/m) @ t=0.22
-0.4590883243982393
% es.Ex (V/m) @ t=0.22
0.45975713246475725
% es.Ey (V/m) @ t=0.22
0.06884378984844991
% es.Ez (V/m) @ t=0.22
-0.4590883243982484
% es.tEx (V/m) @ t=0.22
0.45975713246476047
% es.tEy (V/m) @ t=0.22
0
% es.tEz (V/m) @ t=0.22
-0.4590883243982393
% V (V) @ t=0.22
0.007088028886105245
% es.normE (V/m) @ t=0.24
0.6679558548863136
% es.EX (V/m) @ t=0.24
0.4639663213350581
% es.EY (V/m) @ t=0.24
0.06947405127730913
% es.EZ (V/m) @ t=0.24
-0.4632913961953282
% es.tEX (V/m) @ t=0.24
0.46396632133505955
% es.tEY (V/m) @ t=0.24
0
% es.tEZ (V/m) @ t=0.24
-0.4632913961953191
% es.Ex (V/m) @ t=0.24
0.4639663213350581
% es.Ey (V/m) @ t=0.24
0.06947405127730913
% es.Ez (V/m) @ t=0.24
-0.4632913961953282
% es.tEx (V/m) @ t=0.24
0.46396632133505955
% es.tEy (V/m) @ t=0.24
0
% es.tEz (V/m) @ t=0.24
-0.4632913961953191
% V (V) @ t=0.24
0.007152922285505741
% es.normE (V/m) @ t=0.26
0.674015673719205
% es.EX (V/m) @ t=0.26
0.4681755102053534
% es.EY (V/m) @ t=0.26
0.07010431270617465
% es.EZ (V/m) @ t=0.26
-0.4674944679923938
% es.tEX (V/m) @ t=0.26
0.46817551020535486
% es.tEY (V/m) @ t=0.26
0
% es.tEZ (V/m) @ t=0.26
-0.4674944679923847
% es.Ex (V/m) @ t=0.26
0.4681755102053534
% es.Ey (V/m) @ t=0.26
0.07010431270617465
% es.Ez (V/m) @ t=0.26
-0.4674944679923938
% es.tEx (V/m) @ t=0.26
0.46817551020535486
% es.tEy (V/m) @ t=0.26
0
% es.tEz (V/m) @ t=0.26
-0.4674944679923847
% V (V) @ t=0.26
0.007217815684906237
% es.normE (V/m) @ t=0.28
0.6802421726554728
% es.EX (V/m) @ t=0.28
0.4725004795553397
% es.EY (V/m) @ t=0.28
0.07075181425789243
% es.EZ (V/m) @ t=0.28
-0.47181318102769976
% es.tEX (V/m) @ t=0.28
0.47250047955534114
% es.tEY (V/m) @ t=0.28
0
% es.tEZ (V/m) @ t=0.28
-0.47181318102769065
% es.Ex (V/m) @ t=0.28
0.4725004795553397
% es.Ey (V/m) @ t=0.28
0.07075181425789243
% es.Ez (V/m) @ t=0.28
-0.47181318102769976
% es.tEx (V/m) @ t=0.28
0.47250047955534114
% es.tEy (V/m) @ t=0.28
0
% es.tEz (V/m) @ t=0.28
-0.47181318102769065
% V (V) @ t=0.28
0.007284497829499031
% es.normE (V/m) @ t=0.3
0.6870015385674832
% es.EX (V/m) @ t=0.3
0.4771955926283945
% es.EY (V/m) @ t=0.3
0.0714544315189557
% es.EZ (V/m) @ t=0.3
-0.47650159263893754
% es.tEX (V/m) @ t=0.3
0.4771955926283957
% es.tEY (V/m) @ t=0.3
0
% es.tEZ (V/m) @ t=0.3
-0.476501592638932
% es.Ex (V/m) @ t=0.3
0.4771955926283945
% es.Ey (V/m) @ t=0.3
0.0714544315189557
% es.Ez (V/m) @ t=0.3
-0.47650159263893754
% es.tEx (V/m) @ t=0.3
0.4771955926283957
% es.tEy (V/m) @ t=0.3
0
% es.tEz (V/m) @ t=0.3
-0.476501592638932
% V (V) @ t=0.3
0.007356898492505868
% es.normE (V/m) @ t=0.32
0.6937609044799913
% es.EX (V/m) @ t=0.32
0.4818907057014413
% es.EY (V/m) @ t=0.32
0.07215704877999579
% es.EZ (V/m) @ t=0.32
-0.4811900042501669
% es.tEX (V/m) @ t=0.32
0.4818907057014432
% es.tEY (V/m) @ t=0.32
0
% es.tEZ (V/m) @ t=0.32
-0.48119000425015956
% es.Ex (V/m) @ t=0.32
0.4818907057014413
% es.Ey (V/m) @ t=0.32
0.07215704877999579
% es.Ez (V/m) @ t=0.32
-0.4811900042501669
% es.tEx (V/m) @ t=0.32
0.4818907057014432
% es.tEy (V/m) @ t=0.32
0
% es.tEz (V/m) @ t=0.32
-0.48119000425015956
% V (V) @ t=0.32
0.007429299155512701
% es.normE (V/m) @ t=0.34
0.7005202703929985
% es.EX (V/m) @ t=0.34
0.48658581877449325
% es.EY (V/m) @ t=0.34
0.07285966604104974
% es.EZ (V/m) @ t=0.34
-0.48587841586139047
% es.tEX (V/m) @ t=0.34
0.486585818774496
% es.tEY (V/m) @ t=0.34
0
% es.tEZ (V/m) @ t=0.34
-0.48587841586138314
% es.Ex (V/m) @ t=0.34
0.48658581877449325
% es.Ey (V/m) @ t=0.34
0.07285966604104974
% es.Ez (V/m) @ t=0.34
-0.48587841586139047
% es.tEx (V/m) @ t=0.34
0.486585818774496
% es.tEy (V/m) @ t=0.34
0
% es.tEz (V/m) @ t=0.34
-0.48587841586138314
% V (V) @ t=0.34
0.007501699818519538
% es.normE (V/m) @ t=0.36
0.7072796363064838
% es.EX (V/m) @ t=0.36
0.4912809318475396
% es.EY (V/m) @ t=0.36
0.07356228330209641
% es.EZ (V/m) @ t=0.36
-0.49056682747262026
% es.tEX (V/m) @ t=0.36
0.4912809318475415
% es.tEY (V/m) @ t=0.36
0
% es.tEZ (V/m) @ t=0.36
-0.49056682747261116
% es.Ex (V/m) @ t=0.36
0.4912809318475396
% es.Ey (V/m) @ t=0.36
0.07356228330209641
% es.Ez (V/m) @ t=0.36
-0.49056682747262026
% es.tEx (V/m) @ t=0.36
0.4912809318475415
% es.tEy (V/m) @ t=0.36
0
% es.tEz (V/m) @ t=0.36
-0.49056682747261116
% V (V) @ t=0.36
0.007574100481526374
% es.normE (V/m) @ t=0.38
0.7140390022204486
% es.EX (V/m) @ t=0.38
0.4959760449205953
% es.EY (V/m) @ t=0.38
0.0742649005631516
% es.EZ (V/m) @ t=0.38
-0.4952552390838545
% es.tEX (V/m) @ t=0.38
0.4959760449205983
% es.tEY (V/m) @ t=0.38
0
% es.tEZ (V/m) @ t=0.38
-0.4952552390838454
% es.Ex (V/m) @ t=0.38
0.4959760449205953
% es.Ey (V/m) @ t=0.38
0.0742649005631516
% es.Ez (V/m) @ t=0.38
-0.4952552390838545
% es.tEx (V/m) @ t=0.38
0.4959760449205983
% es.tEy (V/m) @ t=0.38
0
% es.tEz (V/m) @ t=0.38
-0.4952552390838454
% V (V) @ t=0.38
0.007646501144533209
% es.normE (V/m) @ t=0.4
0.7207983681348583
% es.EX (V/m) @ t=0.4
0.5006711579936428
% es.EY (V/m) @ t=0.4
0.07496751782420055
% es.EZ (V/m) @ t=0.4
-0.49994365069508206
% es.tEX (V/m) @ t=0.4
0.5006711579936438
% es.tEY (V/m) @ t=0.4
0
% es.tEZ (V/m) @ t=0.4
-0.49994365069507296
% es.Ex (V/m) @ t=0.4
0.5006711579936428
% es.Ey (V/m) @ t=0.4
0.07496751782420055
% es.Ez (V/m) @ t=0.4
-0.49994365069508206
% es.tEx (V/m) @ t=0.4
0.5006711579936438
% es.tEy (V/m) @ t=0.4
0
% es.tEz (V/m) @ t=0.4
-0.49994365069507296
% V (V) @ t=0.4
0.007718901807540045
% es.normE (V/m) @ t=0.42
0.7275577340497159
% es.EX (V/m) @ t=0.42
0.5053662710666956
% es.EY (V/m) @ t=0.42
0.07567013508526019
% es.EZ (V/m) @ t=0.42
-0.5046320623063132
% es.tEX (V/m) @ t=0.42
0.5053662710666984
% es.tEY (V/m) @ t=0.42
0
% es.tEZ (V/m) @ t=0.42
-0.5046320623063041
% es.Ex (V/m) @ t=0.42
0.5053662710666956
% es.Ey (V/m) @ t=0.42
0.07567013508526019
% es.Ez (V/m) @ t=0.42
-0.5046320623063132
% es.tEx (V/m) @ t=0.42
0.5053662710666984
% es.tEy (V/m) @ t=0.42
0
% es.tEz (V/m) @ t=0.42
-0.5046320623063041
% V (V) @ t=0.42
0.00779130247054688
% es.normE (V/m) @ t=0.44
0.7343170999650004
% es.EX (V/m) @ t=0.44
0.5100613841397447
% es.EY (V/m) @ t=0.44
0.07637275234630508
% es.EZ (V/m) @ t=0.44
-0.5093204739175425
% es.tEX (V/m) @ t=0.44
0.5100613841397457
% es.tEY (V/m) @ t=0.44
0
% es.tEZ (V/m) @ t=0.44
-0.5093204739175317
% es.Ex (V/m) @ t=0.44
0.5100613841397447
% es.Ey (V/m) @ t=0.44
0.07637275234630508
% es.Ez (V/m) @ t=0.44
-0.5093204739175425
% es.tEx (V/m) @ t=0.44
0.5100613841397457
% es.tEy (V/m) @ t=0.44
0
% es.tEz (V/m) @ t=0.44
-0.5093204739175317
% V (V) @ t=0.44
0.007863703133553716
% es.normE (V/m) @ t=0.46
0.7410764658807133
% es.EX (V/m) @ t=0.46
0.5147564972127959
% es.EY (V/m) @ t=0.46
0.07707536960736036
% es.EZ (V/m) @ t=0.46
-0.5140088855287839
% es.tEX (V/m) @ t=0.46
0.5147564972127983
% es.tEY (V/m) @ t=0.46
0
% es.tEZ (V/m) @ t=0.46
-0.514008885528773
% es.Ex (V/m) @ t=0.46
0.5147564972127959
% es.Ey (V/m) @ t=0.46
0.07707536960736036
% es.Ez (V/m) @ t=0.46
-0.5140088855287839
% es.tEx (V/m) @ t=0.46
0.5147564972127983
% es.tEy (V/m) @ t=0.46
0
% es.tEz (V/m) @ t=0.46
-0.514008885528773
% V (V) @ t=0.46
0.007936103796560554
% es.normE (V/m) @ t=0.48
0.7478358317968106
% es.EX (V/m) @ t=0.48
0.5194516102858454
% es.EY (V/m) @ t=0.48
0.07777798686841156
% es.EZ (V/m) @ t=0.48
-0.5186972971399977
% es.tEX (V/m) @ t=0.48
0.5194516102858464
% es.tEY (V/m) @ t=0.48
0
% es.tEZ (V/m) @ t=0.48
-0.5186972971399904
% es.Ex (V/m) @ t=0.48
0.5194516102858454
% es.Ey (V/m) @ t=0.48
0.07777798686841156
% es.Ez (V/m) @ t=0.48
-0.5186972971399977
% es.tEx (V/m) @ t=0.48
0.5194516102858464
% es.tEy (V/m) @ t=0.48
0
% es.tEz (V/m) @ t=0.48
-0.5186972971399904
% V (V) @ t=0.48
0.008008504459567387
% es.normE (V/m) @ t=0.5
0.7545951977133256
% es.EX (V/m) @ t=0.5
0.5241467233589
% es.EY (V/m) @ t=0.5
0.0784806041294574
% es.EZ (V/m) @ t=0.5
-0.5233857087512355
% es.tEX (V/m) @ t=0.5
0.5241467233589023
% es.tEY (V/m) @ t=0.5
0
% es.tEZ (V/m) @ t=0.5
-0.5233857087512246
% es.Ex (V/m) @ t=0.5
0.5241467233589
% es.Ey (V/m) @ t=0.5
0.0784806041294574
% es.Ez (V/m) @ t=0.5
-0.5233857087512355
% es.tEx (V/m) @ t=0.5
0.5241467233589023
% es.tEy (V/m) @ t=0.5
0
% es.tEz (V/m) @ t=0.5
-0.5233857087512246
% V (V) @ t=0.5
0.008080905122574223
% es.normE (V/m) @ t=0.52
0.7613545636302083
% es.EX (V/m) @ t=0.52
0.5288418364319477
% es.EY (V/m) @ t=0.52
0.07918322139050862
% es.EZ (V/m) @ t=0.52
-0.5280741203624559
% es.tEX (V/m) @ t=0.52
0.5288418364319483
% es.tEY (V/m) @ t=0.52
0
% es.tEZ (V/m) @ t=0.52
-0.528074120362445
% es.Ex (V/m) @ t=0.52
0.5288418364319477
% es.Ey (V/m) @ t=0.52
0.07918322139050862
% es.Ez (V/m) @ t=0.52
-0.5280741203624559
% es.tEx (V/m) @ t=0.52
0.5288418364319483
% es.tEy (V/m) @ t=0.52
0
% es.tEz (V/m) @ t=0.52
-0.528074120362445
% V (V) @ t=0.52
0.008153305785581058
% es.normE (V/m) @ t=0.54
0.7681139295474824
% es.EX (V/m) @ t=0.54
0.5335369495049941
% es.EY (V/m) @ t=0.54
0.07988583865156271
% es.EZ (V/m) @ t=0.54
-0.5327625319736982
% es.tEX (V/m) @ t=0.54
0.5335369495049982
% es.tEY (V/m) @ t=0.54
0
% es.tEZ (V/m) @ t=0.54
-0.5327625319736873
% es.Ex (V/m) @ t=0.54
0.5335369495049941
% es.Ey (V/m) @ t=0.54
0.07988583865156271
% es.Ez (V/m) @ t=0.54
-0.5327625319736982
% es.tEx (V/m) @ t=0.54
0.5335369495049982
% es.tEy (V/m) @ t=0.54
0
% es.tEz (V/m) @ t=0.54
-0.5327625319736873
% V (V) @ t=0.54
0.008225706448587895
% es.normE (V/m) @ t=0.56
0.7752594755512057
% es.EX (V/m) @ t=0.56
0.5385002955866202
% es.EY (V/m) @ t=0.56
0.08062890482656734
% es.EZ (V/m) @ t=0.56
-0.5377187008710742
% es.tEX (V/m) @ t=0.56
0.5385002955866225
% es.tEY (V/m) @ t=0.56
0
% es.tEZ (V/m) @ t=0.56
-0.5377187008710633
% es.Ex (V/m) @ t=0.56
0.5385002955866202
% es.Ey (V/m) @ t=0.56
0.08062890482656734
% es.Ez (V/m) @ t=0.56
-0.5377187008710742
% es.tEx (V/m) @ t=0.56
0.5385002955866225
% es.tEy (V/m) @ t=0.56
0
% es.tEz (V/m) @ t=0.56
-0.5377187008710633
% V (V) @ t=0.56
0.008302231396975437
% es.normE (V/m) @ t=0.58
0.7828124558779592
% es.EX (V/m) @ t=0.58
0.5437466374470225
% es.EY (V/m) @ t=0.58
0.08141464610694524
% es.EZ (V/m) @ t=0.58
-0.5429573636424292
% es.tEX (V/m) @ t=0.58
0.5437466374470232
% es.tEY (V/m) @ t=0.58
0
% es.tEZ (V/m) @ t=0.58
-0.5429573636424183
% es.Ex (V/m) @ t=0.58
0.5437466374470225
% es.Ey (V/m) @ t=0.58
0.08141464610694524
% es.Ez (V/m) @ t=0.58
-0.5429573636424292
% es.tEx (V/m) @ t=0.58
0.5437466374470232
% es.tEy (V/m) @ t=0.58
0
% es.tEz (V/m) @ t=0.58
-0.5429573636424183
% V (V) @ t=0.58
0.008383107619501257
% es.normE (V/m) @ t=0.6
0.7903654362048372
% es.EX (V/m) @ t=0.6
0.548992979307431
% es.EY (V/m) @ t=0.6
0.08220038738733446
% es.EZ (V/m) @ t=0.6
-0.5481960264137953
% es.tEX (V/m) @ t=0.6
0.5489929793074351
% es.tEY (V/m) @ t=0.6
0
% es.tEZ (V/m) @ t=0.6
-0.5481960264137844
% es.Ex (V/m) @ t=0.6
0.548992979307431
% es.Ey (V/m) @ t=0.6
0.08220038738733446
% es.Ez (V/m) @ t=0.6
-0.5481960264137953
% es.tEx (V/m) @ t=0.6
0.5489929793074351
% es.tEy (V/m) @ t=0.6
0
% es.tEz (V/m) @ t=0.6
-0.5481960264137844
% V (V) @ t=0.6
0.008463983842027073
% es.normE (V/m) @ t=0.62
0.7979184165318187
% es.EX (V/m) @ t=0.62
0.5542393211678385
% es.EY (V/m) @ t=0.62
0.08298612866771346
% es.EZ (V/m) @ t=0.62
-0.5534346891851507
% es.tEX (V/m) @ t=0.62
0.5542393211678411
% es.tEY (V/m) @ t=0.62
0
% es.tEZ (V/m) @ t=0.62
-0.5534346891851363
% es.Ex (V/m) @ t=0.62
0.5542393211678385
% es.Ey (V/m) @ t=0.62
0.08298612866771346
% es.Ez (V/m) @ t=0.62
-0.5534346891851507
% es.tEx (V/m) @ t=0.62
0.5542393211678411
% es.tEy (V/m) @ t=0.62
0
% es.tEz (V/m) @ t=0.62
-0.5534346891851363
% V (V) @ t=0.62
0.008544860064552892
% es.normE (V/m) @ t=0.64
0.8054713968589121
% es.EX (V/m) @ t=0.64
0.5594856630282395
% es.EY (V/m) @ t=0.64
0.08377186994809019
% es.EZ (V/m) @ t=0.64
-0.5586733519565195
% es.tEX (V/m) @ t=0.64
0.5594856630282417
% es.tEY (V/m) @ t=0.64
0
% es.tEZ (V/m) @ t=0.64
-0.5586733519565086
% es.Ex (V/m) @ t=0.64
0.5594856630282395
% es.Ey (V/m) @ t=0.64
0.08377186994809019
% es.Ez (V/m) @ t=0.64
-0.5586733519565195
% es.tEx (V/m) @ t=0.64
0.5594856630282417
% es.tEy (V/m) @ t=0.64
0
% es.tEz (V/m) @ t=0.64
-0.5586733519565086
% V (V) @ t=0.64
0.008625736287078712
% es.normE (V/m) @ t=0.66
0.813024377186107
% es.EX (V/m) @ t=0.66
0.5647320048886492
% es.EY (V/m) @ t=0.66
0.08455761122848163
% es.EZ (V/m) @ t=0.66
-0.5639120147278744
% es.tEX (V/m) @ t=0.66
0.564732004888653
% es.tEY (V/m) @ t=0.66
0
% es.tEZ (V/m) @ t=0.66
-0.5639120147278565
% es.Ex (V/m) @ t=0.66
0.5647320048886492
% es.Ey (V/m) @ t=0.66
0.08455761122848163
% es.Ez (V/m) @ t=0.66
-0.5639120147278744
% es.tEx (V/m) @ t=0.66
0.564732004888653
% es.tEy (V/m) @ t=0.66
0
% es.tEz (V/m) @ t=0.66
-0.5639120147278565
% V (V) @ t=0.66
0.008706612509604528
% es.normE (V/m) @ t=0.68
0.8205773575134048
% es.EX (V/m) @ t=0.68
0.5699783467490568
% es.EY (V/m) @ t=0.68
0.08534335250885552
% es.EZ (V/m) @ t=0.68
-0.569150677499237
% es.tEX (V/m) @ t=0.68
0.5699783467490609
% es.tEY (V/m) @ t=0.68
0
% es.tEZ (V/m) @ t=0.68
-0.5691506774992297
% es.Ex (V/m) @ t=0.68
0.5699783467490568
% es.Ey (V/m) @ t=0.68
0.08534335250885552
% es.Ez (V/m) @ t=0.68
-0.569150677499237
% es.tEx (V/m) @ t=0.68
0.5699783467490609
% es.tEy (V/m) @ t=0.68
0
% es.tEz (V/m) @ t=0.68
-0.5691506774992297
% V (V) @ t=0.68
0.008787488732130349
% es.normE (V/m) @ t=0.7
0.8281303378407927
% es.EX (V/m) @ t=0.7
0.5752246886094635
% es.EY (V/m) @ t=0.7
0.08612909378924208
% es.EZ (V/m) @ t=0.7
-0.5743893402705884
% es.tEX (V/m) @ t=0.7
0.5752246886094621
% es.tEY (V/m) @ t=0.7
0
% es.tEZ (V/m) @ t=0.7
-0.574389340270574
% es.Ex (V/m) @ t=0.7
0.5752246886094635
% es.Ey (V/m) @ t=0.7
0.08612909378924208
% es.Ez (V/m) @ t=0.7
-0.5743893402705884
% es.tEx (V/m) @ t=0.7
0.5752246886094621
% es.tEy (V/m) @ t=0.7
0
% es.tEz (V/m) @ t=0.7
-0.574389340270574
% V (V) @ t=0.7
0.008868364954656165
% es.normE (V/m) @ t=0.72
0.8356833181682817
% es.EX (V/m) @ t=0.72
0.580471030469866
% es.EY (V/m) @ t=0.72
0.08691483506962641
% es.EZ (V/m) @ t=0.72
-0.5796280030419474
% es.tEX (V/m) @ t=0.72
0.5804710304698699
% es.tEY (V/m) @ t=0.72
0
% es.tEZ (V/m) @ t=0.72
-0.579628003041933
% es.Ex (V/m) @ t=0.72
0.580471030469866
% es.Ey (V/m) @ t=0.72
0.08691483506962641
% es.Ez (V/m) @ t=0.72
-0.5796280030419474
% es.tEx (V/m) @ t=0.72
0.5804710304698699
% es.tEy (V/m) @ t=0.72
0
% es.tEz (V/m) @ t=0.72
-0.579628003041933
% V (V) @ t=0.72
0.008949241177181981
% es.normE (V/m) @ t=0.74
0.8432362984958652
% es.EX (V/m) @ t=0.74
0.5857173723302708
% es.EY (V/m) @ t=0.74
0.08770057635000386
% es.EZ (V/m) @ t=0.74
-0.5848666658133097
% es.tEX (V/m) @ t=0.74
0.5857173723302747
% es.tEY (V/m) @ t=0.74
0
% es.tEZ (V/m) @ t=0.74
-0.5848666658132986
% es.Ex (V/m) @ t=0.74
0.5857173723302708
% es.Ey (V/m) @ t=0.74
0.08770057635000386
% es.Ez (V/m) @ t=0.74
-0.5848666658133097
% es.tEx (V/m) @ t=0.74
0.5857173723302747
% es.tEy (V/m) @ t=0.74
0
% es.tEz (V/m) @ t=0.74
-0.5848666658132986
% V (V) @ t=0.74
0.0090301173997078
% es.normE (V/m) @ t=0.76
0.8507892788235389
% es.EX (V/m) @ t=0.76
0.5909637141906803
% es.EY (V/m) @ t=0.76
0.08848631763038464
% es.EZ (V/m) @ t=0.76
-0.5901053285846649
% es.tEX (V/m) @ t=0.76
0.590963714190679
% es.tEY (V/m) @ t=0.76
0
% es.tEZ (V/m) @ t=0.76
-0.5901053285846576
% es.Ex (V/m) @ t=0.76
0.5909637141906803
% es.Ey (V/m) @ t=0.76
0.08848631763038464
% es.Ez (V/m) @ t=0.76
-0.5901053285846649
% es.tEx (V/m) @ t=0.76
0.590963714190679
% es.tEy (V/m) @ t=0.76
0
% es.tEz (V/m) @ t=0.76
-0.5901053285846576
% V (V) @ t=0.76
0.009110993622233618
% es.normE (V/m) @ t=0.78
0.8583422591512999
% es.EX (V/m) @ t=0.78
0.5962100560510846
% es.EY (V/m) @ t=0.78
0.08927205891077208
% es.EZ (V/m) @ t=0.78
-0.5953439913560239
% es.tEX (V/m) @ t=0.78
0.5962100560510901
% es.tEY (V/m) @ t=0.78
0
% es.tEZ (V/m) @ t=0.78
-0.5953439913560166
% es.Ex (V/m) @ t=0.78
0.5962100560510846
% es.Ey (V/m) @ t=0.78
0.08927205891077208
% es.Ez (V/m) @ t=0.78
-0.5953439913560239
% es.tEx (V/m) @ t=0.78
0.5962100560510901
% es.tEy (V/m) @ t=0.78
0
% es.tEz (V/m) @ t=0.78
-0.5953439913560166
% V (V) @ t=0.78
0.009191869844759438
% es.normE (V/m) @ t=0.8
0.8658952394791402
% es.EX (V/m) @ t=0.8
0.6014563979114875
% es.EY (V/m) @ t=0.8
0.09005780019115575
% es.EZ (V/m) @ t=0.8
-0.6005826541273753
% es.tEX (V/m) @ t=0.8
0.6014563979114915
% es.tEY (V/m) @ t=0.8
0
% es.tEZ (V/m) @ t=0.8
-0.600582654127368
% es.Ex (V/m) @ t=0.8
0.6014563979114875
% es.Ey (V/m) @ t=0.8
0.09005780019115575
% es.Ez (V/m) @ t=0.8
-0.6005826541273753
% es.tEx (V/m) @ t=0.8
0.6014563979114915
% es.tEy (V/m) @ t=0.8
0
% es.tEz (V/m) @ t=0.8
-0.600582654127368
% V (V) @ t=0.8
0.009272746067285256
% es.normE (V/m) @ t=0.82
0.8734482198070785
% es.EX (V/m) @ t=0.82
0.6067027397719007
% es.EY (V/m) @ t=0.82
0.09084354147153875
% es.EZ (V/m) @ t=0.82
-0.6058213168987343
% es.tEX (V/m) @ t=0.82
0.6067027397719027
% es.tEY (V/m) @ t=0.82
0
% es.tEZ (V/m) @ t=0.82
-0.6058213168987199
% es.Ex (V/m) @ t=0.82
0.6067027397719007
% es.Ey (V/m) @ t=0.82
0.09084354147153875
% es.Ez (V/m) @ t=0.82
-0.6058213168987343
% es.tEx (V/m) @ t=0.82
0.6067027397719027
% es.tEy (V/m) @ t=0.82
0
% es.tEz (V/m) @ t=0.82
-0.6058213168987199
% V (V) @ t=0.82
0.009353622289811073
% es.normE (V/m) @ t=0.84
0.8816654460078261
% es.EX (V/m) @ t=0.84
0.6124105271229972
% es.EY (V/m) @ t=0.84
0.09169679840876
% es.EZ (V/m) @ t=0.84
-0.6115212303811706
% es.tEX (V/m) @ t=0.84
0.6124105271230023
% es.tEY (V/m) @ t=0.84
0
% es.tEZ (V/m) @ t=0.84
-0.6115212303811632
% es.Ex (V/m) @ t=0.84
0.6124105271229972
% es.Ey (V/m) @ t=0.84
0.09169679840876
% es.Ez (V/m) @ t=0.84
-0.6115212303811706
% es.tEx (V/m) @ t=0.84
0.6124105271230023
% es.tEy (V/m) @ t=0.84
0
% es.tEz (V/m) @ t=0.84
-0.6115212303811632
% V (V) @ t=0.84
0.00944167400195
% es.normE (V/m) @ t=0.86
0.8901222239120319
% es.EX (V/m) @ t=0.86
0.6182847288313307
% es.EY (V/m) @ t=0.86
0.09257440399571204
% es.EZ (V/m) @ t=0.86
-0.6173874879760732
% es.tEX (V/m) @ t=0.86
0.6182847288313358
% es.tEY (V/m) @ t=0.86
0
% es.tEZ (V/m) @ t=0.86
-0.6173874879760621
% es.Ex (V/m) @ t=0.86
0.6182847288313307
% es.Ey (V/m) @ t=0.86
0.09257440399571204
% es.Ez (V/m) @ t=0.86
-0.6173874879760732
% es.tEx (V/m) @ t=0.86
0.6182847288313358
% es.tEy (V/m) @ t=0.86
0
% es.tEz (V/m) @ t=0.86
-0.6173874879760621
% V (V) @ t=0.86
0.009532313461755568
% es.normE (V/m) @ t=0.88
0.8985790018244972
% es.EX (V/m) @ t=0.88
0.6241589305396713
% es.EY (V/m) @ t=0.88
0.0934520095826773
% es.EZ (V/m) @ t=0.88
-0.6232537455709697
% es.tEX (V/m) @ t=0.88
0.6241589305396711
% es.tEY (V/m) @ t=0.88
0
% es.tEZ (V/m) @ t=0.88
-0.6232537455709553
% es.Ex (V/m) @ t=0.88
0.6241589305396713
% es.Ey (V/m) @ t=0.88
0.0934520095826773
% es.Ez (V/m) @ t=0.88
-0.6232537455709697
% es.tEx (V/m) @ t=0.88
0.6241589305396711
% es.tEy (V/m) @ t=0.88
0
% es.tEz (V/m) @ t=0.88
-0.6232537455709553
% V (V) @ t=0.88
0.00962295292156114
% es.normE (V/m) @ t=0.9
0.9070357797449913
% es.EX (V/m) @ t=0.9
0.6300331322480042
% es.EY (V/m) @ t=0.9
0.09432961516963911
% es.EZ (V/m) @ t=0.9
-0.6291200031658797
% es.tEX (V/m) @ t=0.9
0.6300331322480077
% es.tEY (V/m) @ t=0.9
0
% es.tEZ (V/m) @ t=0.9
-0.6291200031658688
% es.Ex (V/m) @ t=0.9
0.6300331322480042
% es.Ey (V/m) @ t=0.9
0.09432961516963911
% es.Ez (V/m) @ t=0.9
-0.6291200031658797
% es.tEx (V/m) @ t=0.9
0.6300331322480077
% es.tEy (V/m) @ t=0.9
0
% es.tEz (V/m) @ t=0.9
-0.6291200031658688
% V (V) @ t=0.9
0.009713592381366707
% es.normE (V/m) @ t=0.92
0.9154925576732836
% es.EX (V/m) @ t=0.92
0.635907333956345
% es.EY (V/m) @ t=0.92
0.09520722075660609
% es.EZ (V/m) @ t=0.92
-0.6349862607607795
% es.tEX (V/m) @ t=0.92
0.6359073339563506
% es.tEY (V/m) @ t=0.92
0
% es.tEZ (V/m) @ t=0.92
-0.6349862607607686
% es.Ex (V/m) @ t=0.92
0.635907333956345
% es.Ey (V/m) @ t=0.92
0.09520722075660609
% es.Ez (V/m) @ t=0.92
-0.6349862607607795
% es.tEx (V/m) @ t=0.92
0.6359073339563506
% es.tEy (V/m) @ t=0.92
0
% es.tEz (V/m) @ t=0.92
-0.6349862607607686
% V (V) @ t=0.92
0.009804231841172278
% es.normE (V/m) @ t=0.94
0.9239493356091644
% es.EX (V/m) @ t=0.94
0.6417815356646759
% es.EY (V/m) @ t=0.94
0.09608482634355997
% es.EZ (V/m) @ t=0.94
-0.6408525183556859
% es.tEX (V/m) @ t=0.94
0.6417815356646792
% es.tEY (V/m) @ t=0.94
0
% es.tEZ (V/m) @ t=0.94
-0.640852518355675
% es.Ex (V/m) @ t=0.94
0.6417815356646759
% es.Ey (V/m) @ t=0.94
0.09608482634355997
% es.Ez (V/m) @ t=0.94
-0.6408525183556859
% es.tEx (V/m) @ t=0.94
0.6417815356646792
% es.tEy (V/m) @ t=0.94
0
% es.tEz (V/m) @ t=0.94
-0.640852518355675
% V (V) @ t=0.94
0.009894871300977846
% es.normE (V/m) @ t=0.96
0.932406113552429
% es.EX (V/m) @ t=0.96
0.647655737373015
% es.EY (V/m) @ t=0.96
0.09696243193052517
% es.EZ (V/m) @ t=0.96
-0.6467187759505928
% es.tEX (V/m) @ t=0.96
0.6476557373730145
% es.tEY (V/m) @ t=0.96
0
% es.tEZ (V/m) @ t=0.96
-0.6467187759505819
% es.Ex (V/m) @ t=0.96
0.647655737373015
% es.Ey (V/m) @ t=0.96
0.09696243193052517
% es.Ez (V/m) @ t=0.96
-0.6467187759505928
% es.tEx (V/m) @ t=0.96
0.6476557373730145
% es.tEy (V/m) @ t=0.96
0
% es.tEz (V/m) @ t=0.96
-0.6467187759505819
% V (V) @ t=0.96
0.009985510760783417
% es.normE (V/m) @ t=0.98
0.9408628915028774
% es.EX (V/m) @ t=0.98
0.6535299390813509
% es.EY (V/m) @ t=0.98
0.09784003751749748
% es.EZ (V/m) @ t=0.98
-0.6525850335455001
% es.tEX (V/m) @ t=0.98
0.6535299390813583
% es.tEY (V/m) @ t=0.98
0
% es.tEZ (V/m) @ t=0.98
-0.6525850335454892
% es.Ex (V/m) @ t=0.98
0.6535299390813509
% es.Ey (V/m) @ t=0.98
0.09784003751749748
% es.Ez (V/m) @ t=0.98
-0.6525850335455001
% es.tEx (V/m) @ t=0.98
0.6535299390813583
% es.tEy (V/m) @ t=0.98
0
% es.tEz (V/m) @ t=0.98
-0.6525850335454892
% V (V) @ t=0.98
0.010076150220588987
% es.normE (V/m) @ t=1
0.9493196694603159
% es.EX (V/m) @ t=1
0.6594041407896878
% es.EY (V/m) @ t=1
0.09871764310446463
% es.EZ (V/m) @ t=1
-0.6584512911404063
% es.tEX (V/m) @ t=1
0.6594041407896913
% es.tEY (V/m) @ t=1
0
% es.tEZ (V/m) @ t=1
-0.6584512911403952
% es.Ex (V/m) @ t=1
0.6594041407896878
% es.Ey (V/m) @ t=1
0.09871764310446463
% es.Ez (V/m) @ t=1
-0.6584512911404063
% es.tEx (V/m) @ t=1
0.6594041407896913
% es.tEy (V/m) @ t=1
0
% es.tEz (V/m) @ t=1
-0.6584512911403952
% V (V) @ t=1
0.010166789680394557
% es.normE (V/m) @ t=1.02
0.9577764474245514
% es.EX (V/m) @ t=1.02
0.6652783424980195
% es.EY (V/m) @ t=1.02
0.09959524869141673
% es.EZ (V/m) @ t=1.02
-0.6643175487353057
% es.tEX (V/m) @ t=1.02
0.6652783424980262
% es.tEY (V/m) @ t=1.02
0
% es.tEZ (V/m) @ t=1.02
-0.6643175487352946
% es.Ex (V/m) @ t=1.02
0.6652783424980195
% es.Ey (V/m) @ t=1.02
0.09959524869141673
% es.Ez (V/m) @ t=1.02
-0.6643175487353057
% es.tEx (V/m) @ t=1.02
0.6652783424980262
% es.tEy (V/m) @ t=1.02
0
% es.tEz (V/m) @ t=1.02
-0.6643175487352946
% V (V) @ t=1.02
0.010257429140200128
% es.normE (V/m) @ t=1.04
0.9662332253954306
% es.EX (V/m) @ t=1.04
0.6711525442063648