% Model:              1 neuron.mph
% Version:            COMSOL 6.0.0.405
% Date:               Mar 16 2023, 09:57
% Dimension:          0
% Nodes:              14017
% Expressions:        14017
% Description:        Electric field norm, Electric field, X component, Electric field, Y component, Electric field, Z component, Tangential electric field, X component, Tangential electric field, Y component, Tangential electric field, Z component, Electric field, x component, Electric field, y component, Electric field, z component, Tangential electric field, x component, Tangential electric field, y component, Tangential electric field, z component, Electric potential
% Length unit:        mm
% x
1
% y
12.2
% z
1.33
% es.normE (V/m) @ t=0
1.4530696896537005
% es.EX (V/m) @ t=0
1.3428269476942871
% es.EY (V/m) @ t=0
0.0845524939307431
% es.EZ (V/m) @ t=0
0.542853755549392
% es.tEX (V/m) @ t=0
1.3428269476942853
% es.tEY (V/m) @ t=0
0
% es.tEZ (V/m) @ t=0
0.5428537555493937
% es.Ex (V/m) @ t=0
1.3428269476942871
% es.Ey (V/m) @ t=0
0.0845524939307431
% es.Ez (V/m) @ t=0
0.542853755549392
% es.tEx (V/m) @ t=0
1.3428269476942853
% es.tEy (V/m) @ t=0
0
% es.tEz (V/m) @ t=0
0.5428537555493937
% V (V) @ t=0
0.007248149913129846
% es.normE (V/m) @ t=0.02
1.255041340038486
% es.EX (V/m) @ t=0.02
1.1598227832202674
% es.EY (V/m) @ t=0.02
0.07302944727035332
% es.EZ (V/m) @ t=0.02
0.46887214716009074
% es.tEX (V/m) @ t=0.02
1.1598227832202692
% es.tEY (V/m) @ t=0.02
0
% es.tEZ (V/m) @ t=0.02
0.46887214716008874
% es.Ex (V/m) @ t=0.02
1.1598227832202674
% es.Ey (V/m) @ t=0.02
0.07302944727035332
% es.Ez (V/m) @ t=0.02
0.46887214716009074
% es.tEx (V/m) @ t=0.02
1.1598227832202692
% es.tEy (V/m) @ t=0.02
0
% es.tEz (V/m) @ t=0.02
0.46887214716008874
% V (V) @ t=0.02
0.006260352012485926
% es.normE (V/m) @ t=0.04
1.266582668849606
% es.EX (V/m) @ t=0.04
1.1704884841377
% es.EY (V/m) @ t=0.04
0.07370102629322928
% es.EZ (V/m) @ t=0.04
0.4731838848422085
% es.tEX (V/m) @ t=0.04
1.1704884841376968
% es.tEY (V/m) @ t=0.04
0
% es.tEZ (V/m) @ t=0.04
0.47318388484220586
% es.Ex (V/m) @ t=0.04
1.1704884841377
% es.Ey (V/m) @ t=0.04
0.07370102629322928
% es.Ez (V/m) @ t=0.04
0.4731838848422085
% es.tEx (V/m) @ t=0.04
1.1704884841376968
% es.tEy (V/m) @ t=0.04
0
% es.tEz (V/m) @ t=0.04
0.47318388484220586
% V (V) @ t=0.04
0.0063179220040152795
% es.normE (V/m) @ t=0.06
1.2782267926345177
% es.EX (V/m) @ t=0.06
1.181249180146728
% es.EY (V/m) @ t=0.06
0.07437859136835429
% es.EZ (V/m) @ t=0.06
0.47753402832021496
% es.tEX (V/m) @ t=0.06
1.1812491801467297
% es.tEY (V/m) @ t=0.06
0
% es.tEZ (V/m) @ t=0.06
0.4775340283202145
% es.Ex (V/m) @ t=0.06
1.181249180146728
% es.Ey (V/m) @ t=0.06
0.07437859136835429
% es.Ez (V/m) @ t=0.06
0.47753402832021496
% es.tEx (V/m) @ t=0.06
1.1812491801467297
% es.tEy (V/m) @ t=0.06
0
% es.tEz (V/m) @ t=0.06
0.4775340283202145
% V (V) @ t=0.06
0.006376004645014035
% es.normE (V/m) @ t=0.08
1.2900515509376334
% es.EX (V/m) @ t=0.08
1.1921768081401707
% es.EY (V/m) @ t=0.08
0.07506665782348104
% es.EZ (V/m) @ t=0.08
0.48195164988972694
% es.tEX (V/m) @ t=0.08
1.1921768081401698
% es.tEY (V/m) @ t=0.08
0
% es.tEZ (V/m) @ t=0.08
0.48195164988972383
% es.Ex (V/m) @ t=0.08
1.1921768081401707
% es.Ey (V/m) @ t=0.08
0.07506665782348104
% es.Ez (V/m) @ t=0.08
0.48195164988972694
% es.tEx (V/m) @ t=0.08
1.1921768081401698
% es.tEy (V/m) @ t=0.08
0
% es.tEz (V/m) @ t=0.08
0.48195164988972383
% V (V) @ t=0.08
0.006434988549677671
% es.normE (V/m) @ t=0.1
1.3019959584459984
% es.EX (V/m) @ t=0.1
1.2032150090156053
% es.EY (V/m) @ t=0.1
0.07576168021253038
% es.EZ (V/m) @ t=0.1
0.486413967789169
% es.tEX (V/m) @ t=0.1
1.2032150090156035
% es.tEY (V/m) @ t=0.1
0
% es.tEZ (V/m) @ t=0.1
0.48641396778917034
% es.Ex (V/m) @ t=0.1
1.2032150090156053
% es.Ey (V/m) @ t=0.1
0.07576168021253038
% es.Ez (V/m) @ t=0.1
0.486413967789169
% es.tEx (V/m) @ t=0.1
1.2032150090156035
% es.tEy (V/m) @ t=0.1
0
% es.tEz (V/m) @ t=0.1
0.48641396778917034
% V (V) @ t=0.1
0.006494569435927656
% es.normE (V/m) @ t=0.12
1.3139403659543583
% es.EX (V/m) @ t=0.12
1.2142532098910355
% es.EY (V/m) @ t=0.12
0.07645670260157078
% es.EZ (V/m) @ t=0.12
0.49087628568861197
% es.tEX (V/m) @ t=0.12
1.2142532098910381
% es.tEY (V/m) @ t=0.12
0
% es.tEZ (V/m) @ t=0.12
0.49087628568861197
% es.Ex (V/m) @ t=0.12
1.2142532098910355
% es.Ey (V/m) @ t=0.12
0.07645670260157078
% es.Ez (V/m) @ t=0.12
0.49087628568861197
% es.tEx (V/m) @ t=0.12
1.2142532098910381
% es.tEy (V/m) @ t=0.12
0
% es.tEz (V/m) @ t=0.12
0.49087628568861197
% V (V) @ t=0.12
0.006554150322177642
% es.normE (V/m) @ t=0.14
1.3260199847395584
% es.EX (V/m) @ t=0.14
1.2254163609200117
% es.EY (V/m) @ t=0.14
0.0771596059164868
% es.EZ (V/m) @ t=0.14
0.4953891247727209
% es.tEX (V/m) @ t=0.14
1.2254163609200148
% es.tEY (V/m) @ t=0.14
0
% es.tEZ (V/m) @ t=0.14
0.4953891247727227
% es.Ex (V/m) @ t=0.14
1.2254163609200117
% es.Ey (V/m) @ t=0.14
0.0771596059164868
% es.Ez (V/m) @ t=0.14
0.4953891247727209
% es.tEx (V/m) @ t=0.14
1.2254163609200148
% es.tEy (V/m) @ t=0.14
0
% es.tEz (V/m) @ t=0.14
0.4953891247727227
% V (V) @ t=0.14
0.006614405348894594
% es.normE (V/m) @ t=0.16
1.3385991284873175
% es.EX (V/m) @ t=0.16
1.2370411281856617
% es.EY (V/m) @ t=0.16
0.07789162454853588
% es.EZ (V/m) @ t=0.16
0.5000886094789279
% es.tEX (V/m) @ t=0.16
1.2370411281856653
% es.tEY (V/m) @ t=0.16
0
% es.tEZ (V/m) @ t=0.16
0.500088609478929
% es.Ex (V/m) @ t=0.16
1.2370411281856617
% es.Ey (V/m) @ t=0.16
0.07789162454853588
% es.Ez (V/m) @ t=0.16
0.5000886094789279
% es.tEx (V/m) @ t=0.16
1.2370411281856653
% es.tEy (V/m) @ t=0.16
0
% es.tEz (V/m) @ t=0.16
0.500088609478929
% V (V) @ t=0.16
0.006677150922253846
% es.normE (V/m) @ t=0.18
1.3511782722350896
% es.EX (V/m) @ t=0.18
1.2486658954513166
% es.EY (V/m) @ t=0.18
0.07862364318057707
% es.EZ (V/m) @ t=0.18
0.504788094185141
% es.tEX (V/m) @ t=0.18
1.248665895451314
% es.tEY (V/m) @ t=0.18
0
% es.tEZ (V/m) @ t=0.18
0.5047880941851401
% es.Ex (V/m) @ t=0.18
1.2486658954513166
% es.Ey (V/m) @ t=0.18
0.07862364318057707
% es.Ez (V/m) @ t=0.18
0.504788094185141
% es.tEx (V/m) @ t=0.18
1.248665895451314
% es.tEy (V/m) @ t=0.18
0
% es.tEz (V/m) @ t=0.18
0.5047880941851401
% V (V) @ t=0.18
0.006739896495613098
% es.normE (V/m) @ t=0.2
1.3637574159828691
% es.EX (V/m) @ t=0.2
1.2602906627169723
% es.EY (V/m) @ t=0.2
0.07935566181261827
% es.EZ (V/m) @ t=0.2
0.509487578891356
% es.tEX (V/m) @ t=0.2
1.2602906627169723
% es.tEY (V/m) @ t=0.2
0
% es.tEZ (V/m) @ t=0.2
0.5094875788913544
% es.Ex (V/m) @ t=0.2
1.2602906627169723
% es.Ey (V/m) @ t=0.2
0.07935566181261827
% es.Ez (V/m) @ t=0.2
0.509487578891356
% es.tEx (V/m) @ t=0.2
1.2602906627169723
% es.tEy (V/m) @ t=0.2
0
% es.tEz (V/m) @ t=0.2
0.5094875788913544
% V (V) @ t=0.2
0.006802642068972349
% es.normE (V/m) @ t=0.22
1.3763365597306536
% es.EX (V/m) @ t=0.22
1.271915429982628
% es.EY (V/m) @ t=0.22
0.08008768044466474
% es.EZ (V/m) @ t=0.22
0.5141870635975683
% es.tEX (V/m) @ t=0.22
1.271915429982628
% es.tEY (V/m) @ t=0.22
0
% es.tEZ (V/m) @ t=0.22
0.5141870635975714
% es.Ex (V/m) @ t=0.22
1.271915429982628
% es.Ey (V/m) @ t=0.22
0.08008768044466474
% es.Ez (V/m) @ t=0.22
0.5141870635975683
% es.tEx (V/m) @ t=0.22
1.271915429982628
% es.tEy (V/m) @ t=0.22
0
% es.tEz (V/m) @ t=0.22
0.5141870635975714
% V (V) @ t=0.22
0.006865387642331602
% es.normE (V/m) @ t=0.24
1.3889157034784363
% es.EX (V/m) @ t=0.24
1.283540197248279
% es.EY (V/m) @ t=0.24
0.08081969907670233
% es.EZ (V/m) @ t=0.24
0.5188865483037697
% es.tEX (V/m) @ t=0.24
1.2835401972482794
% es.tEY (V/m) @ t=0.24
0
% es.tEZ (V/m) @ t=0.24
0.5188865483037697
% es.Ex (V/m) @ t=0.24
1.283540197248279
% es.Ey (V/m) @ t=0.24
0.08081969907670233
% es.Ez (V/m) @ t=0.24
0.5188865483037697
% es.tEx (V/m) @ t=0.24
1.2835401972482794
% es.tEy (V/m) @ t=0.24
0
% es.tEz (V/m) @ t=0.24
0.5188865483037697
% V (V) @ t=0.24
0.006928133215690853
% es.normE (V/m) @ t=0.26
1.4014948472262307
% es.EX (V/m) @ t=0.26
1.2951649645139334
% es.EY (V/m) @ t=0.26
0.08155171770874264
% es.EZ (V/m) @ t=0.26
0.5235860330099809
% es.tEX (V/m) @ t=0.26
1.2951649645139343
% es.tEY (V/m) @ t=0.26
0
% es.tEZ (V/m) @ t=0.26
0.5235860330099809
% es.Ex (V/m) @ t=0.26
1.2951649645139334
% es.Ey (V/m) @ t=0.26
0.08155171770874264
% es.Ez (V/m) @ t=0.26
0.5235860330099809
% es.tEx (V/m) @ t=0.26
1.2951649645139343
% es.tEy (V/m) @ t=0.26
0
% es.tEz (V/m) @ t=0.26
0.5235860330099809
% V (V) @ t=0.26
0.006990878789050105
% es.normE (V/m) @ t=0.28
1.414696092487322
% es.EX (V/m) @ t=0.28
1.3073646222387199
% es.EY (V/m) @ t=0.28
0.0823199961600205
% es.EZ (V/m) @ t=0.28
0.5285179637420601
% es.tEX (V/m) @ t=0.28
1.307364622238719
% es.tEY (V/m) @ t=0.28
0
% es.tEZ (V/m) @ t=0.28
0.5285179637420652
% es.Ex (V/m) @ t=0.28
1.3073646222387199
% es.Ey (V/m) @ t=0.28
0.0823199961600205
% es.Ez (V/m) @ t=0.28
0.5285179637420601
% es.tEx (V/m) @ t=0.28
1.307364622238719
% es.tEy (V/m) @ t=0.28
0
% es.tEz (V/m) @ t=0.28
0.5285179637420652
% V (V) @ t=0.28
0.007056726055365209
% es.normE (V/m) @ t=0.3
1.4287021839544127
% es.EX (V/m) @ t=0.3
1.3203080466880444
% es.EY (V/m) @ t=0.3
0.0831351858907412
% es.EZ (V/m) @ t=0.3
0.5337506224067909
% es.tEX (V/m) @ t=0.3
1.3203080466880488
% es.tEY (V/m) @ t=0.3
0
% es.tEZ (V/m) @ t=0.3
0.5337506224067923
% es.Ex (V/m) @ t=0.3
1.3203080466880444
% es.Ey (V/m) @ t=0.3
0.0831351858907412
% es.Ez (V/m) @ t=0.3
0.5337506224067909
% es.tEx (V/m) @ t=0.3
1.3203080466880488
% es.tEy (V/m) @ t=0.3
0
% es.tEz (V/m) @ t=0.3
0.5337506224067923
% V (V) @ t=0.3
0.00712658614877388
% es.normE (V/m) @ t=0.32
1.4427082754215763
% es.EX (V/m) @ t=0.32
1.333251471137367
% es.EY (V/m) @ t=0.32
0.0839503756214594
% es.EZ (V/m) @ t=0.32
0.5389832810715185
% es.tEX (V/m) @ t=0.32
1.3332514711373662
% es.tEY (V/m) @ t=0.32
0
% es.tEZ (V/m) @ t=0.32
0.5389832810715194
% es.Ex (V/m) @ t=0.32
1.333251471137367
% es.Ey (V/m) @ t=0.32
0.0839503756214594
% es.Ez (V/m) @ t=0.32
0.5389832810715185
% es.tEx (V/m) @ t=0.32
1.3332514711373662
% es.tEy (V/m) @ t=0.32
0
% es.tEz (V/m) @ t=0.32
0.5389832810715194
% V (V) @ t=0.32
0.007196446242182552
% es.normE (V/m) @ t=0.34
1.4567143668888096
% es.EX (V/m) @ t=0.34
1.3461948955866827
% es.EY (V/m) @ t=0.34
0.08476556535217927
% es.EZ (V/m) @ t=0.34
0.54421593973625
% es.tEX (V/m) @ t=0.34
1.3461948955866827
% es.tEY (V/m) @ t=0.34
0
% es.tEZ (V/m) @ t=0.34
0.5442159397362509
% es.Ex (V/m) @ t=0.34
1.3461948955866827
% es.Ey (V/m) @ t=0.34
0.08476556535217927
% es.Ez (V/m) @ t=0.34
0.54421593973625
% es.tEx (V/m) @ t=0.34
1.3461948955866827
% es.tEy (V/m) @ t=0.34
0
% es.tEz (V/m) @ t=0.34
0.5442159397362509
% V (V) @ t=0.34
0.007266306335591223
% es.normE (V/m) @ t=0.36
1.4707204583561189
% es.EX (V/m) @ t=0.36
1.3591383200360045
% es.EY (V/m) @ t=0.36
0.08558075508289475
% es.EZ (V/m) @ t=0.36
0.5494485984009807
% es.tEX (V/m) @ t=0.36
1.3591383200360037
% es.tEY (V/m) @ t=0.36
0
% es.tEZ (V/m) @ t=0.36
0.5494485984009807
% es.Ex (V/m) @ t=0.36
1.3591383200360045
% es.Ey (V/m) @ t=0.36
0.08558075508289475
% es.Ez (V/m) @ t=0.36
0.5494485984009807
% es.tEx (V/m) @ t=0.36
1.3591383200360037
% es.tEy (V/m) @ t=0.36
0
% es.tEz (V/m) @ t=0.36
0.5494485984009807
% V (V) @ t=0.36
0.0073361664289998945
% es.normE (V/m) @ t=0.38
1.4847265498234945
% es.EX (V/m) @ t=0.38
1.372081744485322
% es.EY (V/m) @ t=0.38
0.08639594481361285
% es.EZ (V/m) @ t=0.38
0.5546812570657096
% es.tEX (V/m) @ t=0.38
1.372081744485321
% es.tEY (V/m) @ t=0.38
0
% es.tEZ (V/m) @ t=0.38
0.554681257065714
% es.Ex (V/m) @ t=0.38
1.372081744485322
% es.Ey (V/m) @ t=0.38
0.08639594481361285
% es.Ez (V/m) @ t=0.38
0.5546812570657096
% es.tEx (V/m) @ t=0.38
1.372081744485321
% es.tEy (V/m) @ t=0.38
0
% es.tEz (V/m) @ t=0.38
0.554681257065714
% V (V) @ t=0.38
0.007406026522408566
% es.normE (V/m) @ t=0.4
1.4987326412909527
% es.EX (V/m) @ t=0.4
1.385025168934649
% es.EY (V/m) @ t=0.4
0.08721113454433815
% es.EZ (V/m) @ t=0.4
0.5599139157304545
% es.tEX (V/m) @ t=0.4
1.38502516893465
% es.tEY (V/m) @ t=0.4
0
% es.tEZ (V/m) @ t=0.4
0.5599139157304545
% es.Ex (V/m) @ t=0.4
1.385025168934649
% es.Ey (V/m) @ t=0.4
0.08721113454433815
% es.Ez (V/m) @ t=0.4
0.5599139157304545
% es.tEx (V/m) @ t=0.4
1.38502516893465
% es.tEy (V/m) @ t=0.4
0
% es.tEz (V/m) @ t=0.4
0.5599139157304545
% V (V) @ t=0.4
0.007475886615817238
% es.normE (V/m) @ t=0.42
1.5127387327584527
% es.EX (V/m) @ t=0.42
1.3979685933839576
% es.EY (V/m) @ t=0.42
0.08802632427505097
% es.EZ (V/m) @ t=0.42
0.5651465743951811
% es.tEX (V/m) @ t=0.42
1.3979685933839603
% es.tEY (V/m) @ t=0.42
0
% es.tEZ (V/m) @ t=0.42
0.5651465743951829
% es.Ex (V/m) @ t=0.42
1.3979685933839576
% es.Ey (V/m) @ t=0.42
0.08802632427505097
% es.Ez (V/m) @ t=0.42
0.5651465743951811
% es.tEx (V/m) @ t=0.42
1.3979685933839603
% es.tEy (V/m) @ t=0.42
0
% es.tEz (V/m) @ t=0.42
0.5651465743951829
% V (V) @ t=0.42
0.0075457467092259105
% es.normE (V/m) @ t=0.44
1.5267448242260304
% es.EX (V/m) @ t=0.44
1.4109120178332786
% es.EY (V/m) @ t=0.44
0.08884151400576912
% es.EZ (V/m) @ t=0.44
0.570379233059914
% es.tEX (V/m) @ t=0.44
1.4109120178332768
% es.tEY (V/m) @ t=0.44
0
% es.tEZ (V/m) @ t=0.44
0.570379233059914
% es.Ex (V/m) @ t=0.44
1.4109120178332786
% es.Ey (V/m) @ t=0.44
0.08884151400576912
% es.Ez (V/m) @ t=0.44
0.570379233059914
% es.tEx (V/m) @ t=0.44
1.4109120178332768
% es.tEy (V/m) @ t=0.44
0
% es.tEz (V/m) @ t=0.44
0.570379233059914
% V (V) @ t=0.44
0.007615606802634582
% es.normE (V/m) @ t=0.46
1.5407509156936747
% es.EX (V/m) @ t=0.46
1.4238554422826057
% es.EY (V/m) @ t=0.46
0.08965670373648887
% es.EZ (V/m) @ t=0.46
0.5756118917246411
% es.tEX (V/m) @ t=0.46
1.4238554422826049
% es.tEY (V/m) @ t=0.46
0
% es.tEZ (V/m) @ t=0.46
0.5756118917246402
% es.Ex (V/m) @ t=0.46
1.4238554422826057
% es.Ey (V/m) @ t=0.46
0.08965670373648887
% es.Ez (V/m) @ t=0.46
0.5756118917246411
% es.tEx (V/m) @ t=0.46
1.4238554422826049
% es.tEy (V/m) @ t=0.46
0
% es.tEz (V/m) @ t=0.46
0.5756118917246402
% V (V) @ t=0.46
0.007685466896043254
% es.normE (V/m) @ t=0.48
1.5547570071613679
% es.EX (V/m) @ t=0.48
1.4367988667319187
% es.EY (V/m) @ t=0.48
0.09047189346720347
% es.EZ (V/m) @ t=0.48
0.5808445503893731
% es.tEX (V/m) @ t=0.48
1.4367988667319205
% es.tEY (V/m) @ t=0.48
0
% es.tEZ (V/m) @ t=0.48
0.5808445503893722
% es.Ex (V/m) @ t=0.48
1.4367988667319187
% es.Ey (V/m) @ t=0.48
0.09047189346720347
% es.Ez (V/m) @ t=0.48
0.5808445503893731
% es.tEx (V/m) @ t=0.48
1.4367988667319205
% es.tEy (V/m) @ t=0.48
0
% es.tEz (V/m) @ t=0.48
0.5808445503893722
% V (V) @ t=0.48
0.007755326989451925
% es.normE (V/m) @ t=0.5
1.5687630986291359
% es.EX (V/m) @ t=0.5
1.449742291181249
% es.EY (V/m) @ t=0.5
0.09128708319791717
% es.EZ (V/m) @ t=0.5
0.5860772090541024
% es.tEX (V/m) @ t=0.5
1.4497422911812494
% es.tEY (V/m) @ t=0.5
0
% es.tEZ (V/m) @ t=0.5
0.5860772090541033
% es.Ex (V/m) @ t=0.5
1.449742291181249
% es.Ey (V/m) @ t=0.5
0.09128708319791717
% es.Ez (V/m) @ t=0.5
0.5860772090541024
% es.tEx (V/m) @ t=0.5
1.4497422911812494
% es.tEy (V/m) @ t=0.5
0
% es.tEz (V/m) @ t=0.5
0.5860772090541033
% V (V) @ t=0.5
0.007825187082860596
% es.normE (V/m) @ t=0.52
1.582769190096951
% es.EX (V/m) @ t=0.52
1.4626857156305677
% es.EY (V/m) @ t=0.52
0.09210227292863266
% es.EZ (V/m) @ t=0.52
0.591309867718834
% es.tEX (V/m) @ t=0.52
1.4626857156305668
% es.tEY (V/m) @ t=0.52
0
% es.tEZ (V/m) @ t=0.52
0.5913098677188349
% es.Ex (V/m) @ t=0.52
1.4626857156305677
% es.Ey (V/m) @ t=0.52
0.09210227292863266
% es.Ez (V/m) @ t=0.52
0.591309867718834
% es.tEx (V/m) @ t=0.52
1.4626857156305668
% es.tEy (V/m) @ t=0.52
0
% es.tEz (V/m) @ t=0.52
0.5913098677188349
% V (V) @ t=0.52
0.007895047176269267
% es.normE (V/m) @ t=0.54
1.5967752815648206
% es.EX (V/m) @ t=0.54
1.4756291400798807
% es.EY (V/m) @ t=0.54
0.09291746265936146
% es.EZ (V/m) @ t=0.54
0.5965425263835746
% es.tEX (V/m) @ t=0.54
1.4756291400798789
% es.tEY (V/m) @ t=0.54
0
% es.tEZ (V/m) @ t=0.54
0.596542526383574
% es.Ex (V/m) @ t=0.54
1.4756291400798807
% es.Ey (V/m) @ t=0.54
0.09291746265936146
% es.Ez (V/m) @ t=0.54
0.5965425263835746
% es.tEx (V/m) @ t=0.54
1.4756291400798789
% es.tEy (V/m) @ t=0.54
0
% es.tEz (V/m) @ t=0.54
0.596542526383574
% V (V) @ t=0.54
0.007964907269677938
% es.normE (V/m) @ t=0.56
1.6122102999224177
% es.EX (V/m) @ t=0.56
1.4898931802612974
% es.EY (V/m) @ t=0.56
0.0938153311984023
% es.EZ (V/m) @ t=0.56
0.6023087525914868
% es.tEX (V/m) @ t=0.56
1.4898931802612978
% es.tEY (V/m) @ t=0.56
0
% es.tEZ (V/m) @ t=0.56
0.602308752591485
% es.Ex (V/m) @ t=0.56
1.4898931802612974
% es.Ey (V/m) @ t=0.56
0.0938153311984023
% es.Ez (V/m) @ t=0.56
0.6023087525914868
% es.tEx (V/m) @ t=0.56
1.4898931802612978
% es.tEy (V/m) @ t=0.56
0
% es.tEz (V/m) @ t=0.56
0.602308752591485
% V (V) @ t=0.56
0.008041906349584044
% es.normE (V/m) @ t=0.58
1.6278367462248415
% es.EX (V/m) @ t=0.58
1.5043341383501234
% es.EY (V/m) @ t=0.58
0.09472427590550253
% es.EZ (V/m) @ t=0.58
0.6081464588302117
% es.tEX (V/m) @ t=0.58
1.5043341383501296
% es.tEY (V/m) @ t=0.58
0
% es.tEZ (V/m) @ t=0.58
0.6081464588302108
% es.Ex (V/m) @ t=0.58
1.5043341383501234
% es.Ey (V/m) @ t=0.58
0.09472427590550253
% es.Ez (V/m) @ t=0.58
0.6081464588302117
% es.tEx (V/m) @ t=0.58
1.5043341383501296
% es.tEy (V/m) @ t=0.58
0
% es.tEz (V/m) @ t=0.58
0.6081464588302108
% V (V) @ t=0.58
0.008119861812578384
% es.normE (V/m) @ t=0.6
1.6434631925275236
% es.EX (V/m) @ t=0.6
1.5187750964389535
% es.EY (V/m) @ t=0.6
0.09563322061259394
% es.EZ (V/m) @ t=0.6
0.6139841650689322
% es.tEX (V/m) @ t=0.6
1.5187750964389526
% es.tEY (V/m) @ t=0.6
0
% es.tEZ (V/m) @ t=0.6
0.6139841650689313
% es.Ex (V/m) @ t=0.6
1.5187750964389535
% es.Ey (V/m) @ t=0.6
0.09563322061259394
% es.Ez (V/m) @ t=0.6
0.6139841650689322
% es.tEx (V/m) @ t=0.6
1.5187750964389526
% es.tEy (V/m) @ t=0.6
0
% es.tEz (V/m) @ t=0.6
0.6139841650689313
% V (V) @ t=0.6
0.008197817275572726
% es.normE (V/m) @ t=0.62
1.6590896388304486
% es.EX (V/m) @ t=0.62
1.5332160545277755
% es.EY (V/m) @ t=0.62
0.0965421653196854
% es.EZ (V/m) @ t=0.62
0.619821871307656
% es.tEX (V/m) @ t=0.62
1.5332160545277755
% es.tEY (V/m) @ t=0.62
0
% es.tEZ (V/m) @ t=0.62
0.6198218713076615
% es.Ex (V/m) @ t=0.62
1.5332160545277755
% es.Ey (V/m) @ t=0.62
0.0965421653196854
% es.Ez (V/m) @ t=0.62
0.619821871307656
% es.tEx (V/m) @ t=0.62
1.5332160545277755
% es.tEy (V/m) @ t=0.62
0
% es.tEz (V/m) @ t=0.62
0.6198218713076615
% V (V) @ t=0.62
0.008275772738567068
% es.normE (V/m) @ t=0.64
1.6747160851336358
% es.EX (V/m) @ t=0.64
1.5476570126166185
% es.EY (V/m) @ t=0.64
0.09745111002676266
% es.EZ (V/m) @ t=0.64
0.6256595775463838
% es.tEX (V/m) @ t=0.64
1.5476570126166118
% es.tEY (V/m) @ t=0.64
0
% es.tEZ (V/m) @ t=0.64
0.625659577546382
% es.Ex (V/m) @ t=0.64
1.5476570126166185
% es.Ey (V/m) @ t=0.64
0.09745111002676266
% es.Ez (V/m) @ t=0.64
0.6256595775463838
% es.tEx (V/m) @ t=0.64
1.5476570126166118
% es.tEy (V/m) @ t=0.64
0
% es.tEz (V/m) @ t=0.64
0.625659577546382
% V (V) @ t=0.64
0.008353728201561408
% es.normE (V/m) @ t=0.66
1.6903425314370455
% es.EX (V/m) @ t=0.66
1.562097970705449
% es.EY (V/m) @ t=0.66
0.098360054733855
% es.EZ (V/m) @ t=0.66
0.6314972837851074
% es.tEX (V/m) @ t=0.66
1.5620979707054472
% es.tEY (V/m) @ t=0.66
0
% es.tEZ (V/m) @ t=0.66
0.6314972837851083
% es.Ex (V/m) @ t=0.66
1.562097970705449
% es.Ey (V/m) @ t=0.66
0.098360054733855
% es.Ez (V/m) @ t=0.66
0.6314972837851074
% es.tEx (V/m) @ t=0.66
1.5620979707054472
% es.tEy (V/m) @ t=0.66
0
% es.tEz (V/m) @ t=0.66
0.6314972837851083
% V (V) @ t=0.66
0.008431683664555748
% es.normE (V/m) @ t=0.68
1.7059689777406821
% es.EX (V/m) @ t=0.68
1.57653892879428
% es.EY (V/m) @ t=0.68
0.09926899944094292
% es.EZ (V/m) @ t=0.68
0.6373349900238257
% es.tEX (V/m) @ t=0.68
1.57653892879428
% es.tEY (V/m) @ t=0.68
0
% es.tEZ (V/m) @ t=0.68
0.6373349900238274
% es.Ex (V/m) @ t=0.68
1.57653892879428
% es.Ey (V/m) @ t=0.68
0.09926899944094292
% es.Ez (V/m) @ t=0.68
0.6373349900238257
% es.tEx (V/m) @ t=0.68
1.57653892879428
% es.tEy (V/m) @ t=0.68
0
% es.tEz (V/m) @ t=0.68
0.6373349900238274
% V (V) @ t=0.68
0.00850963912755009
% es.normE (V/m) @ t=0.7
1.721595424044539
% es.EX (V/m) @ t=0.7
1.5909798868831082
% es.EY (V/m) @ t=0.7
0.1001779441480255
% es.EZ (V/m) @ t=0.7
0.6431726962625453
% es.tEX (V/m) @ t=0.7
1.5909798868831082
% es.tEY (V/m) @ t=0.7
0
% es.tEZ (V/m) @ t=0.7
0.6431726962625488
% es.Ex (V/m) @ t=0.7
1.5909798868831082
% es.Ey (V/m) @ t=0.7
0.1001779441480255
% es.Ez (V/m) @ t=0.7
0.6431726962625453
% es.tEx (V/m) @ t=0.7
1.5909798868831082
% es.tEy (V/m) @ t=0.7
0
% es.tEz (V/m) @ t=0.7
0.6431726962625488
% V (V) @ t=0.7
0.008587594590544432
% es.normE (V/m) @ t=0.72
1.7372218703486215
% es.EX (V/m) @ t=0.72
1.6054208449719423
% es.EY (V/m) @ t=0.72
0.10108688885512218
% es.EZ (V/m) @ t=0.72
0.649010402501272
% es.tEX (V/m) @ t=0.72
1.605420844971949
% es.tEY (V/m) @ t=0.72
0
% es.tEZ (V/m) @ t=0.72
0.6490104025012746
% es.Ex (V/m) @ t=0.72
1.6054208449719423
% es.Ey (V/m) @ t=0.72
0.10108688885512218
% es.Ez (V/m) @ t=0.72
0.649010402501272
% es.tEx (V/m) @ t=0.72
1.605420844971949
% es.tEy (V/m) @ t=0.72
0
% es.tEz (V/m) @ t=0.72
0.6490104025012746
% V (V) @ t=0.72
0.008665550053538773
% es.normE (V/m) @ t=0.74
1.7528483166529132
% es.EX (V/m) @ t=0.74
1.6198618030607745
% es.EY (V/m) @ t=0.74
0.10199583356220743
% es.EZ (V/m) @ t=0.74
0.6548481087400027
% es.tEX (V/m) @ t=0.74
1.6198618030607674
% es.tEY (V/m) @ t=0.74
0
% es.tEZ (V/m) @ t=0.74
0.6548481087400009
% es.Ex (V/m) @ t=0.74
1.6198618030607745
% es.Ey (V/m) @ t=0.74
0.10199583356220743
% es.Ez (V/m) @ t=0.74
0.6548481087400027
% es.tEx (V/m) @ t=0.74
1.6198618030607674
% es.tEy (V/m) @ t=0.74
0
% es.tEz (V/m) @ t=0.74
0.6548481087400009
% V (V) @ t=0.74
0.008743505516533114
% es.normE (V/m) @ t=0.76
1.7684747629574042
% es.EX (V/m) @ t=0.76
1.6343027611496046
% es.EY (V/m) @ t=0.76
0.102904778269297
% es.EZ (V/m) @ t=0.76
0.6606858149787205
% es.tEX (V/m) @ t=0.76
1.6343027611496046
% es.tEY (V/m) @ t=0.76
0
% es.tEZ (V/m) @ t=0.76
0.6606858149787196
% es.Ex (V/m) @ t=0.76
1.6343027611496046
% es.Ey (V/m) @ t=0.76
0.102904778269297
% es.Ez (V/m) @ t=0.76
0.6606858149787205
% es.tEx (V/m) @ t=0.76
1.6343027611496046
% es.tEy (V/m) @ t=0.76
0
% es.tEz (V/m) @ t=0.76
0.6606858149787196
% V (V) @ t=0.76
0.008821460979527454
% es.normE (V/m) @ t=0.78
1.7841012092620998
% es.EX (V/m) @ t=0.78
1.6487437192384369
% es.EY (V/m) @ t=0.78
0.1038137229763938
% es.EZ (V/m) @ t=0.78
0.6665235212174461
% es.tEX (V/m) @ t=0.78
1.6487437192384409
% es.tEY (V/m) @ t=0.78
0
% es.tEZ (V/m) @ t=0.78
0.6665235212174458
% es.Ex (V/m) @ t=0.78
1.6487437192384369
% es.Ey (V/m) @ t=0.78
0.1038137229763938
% es.Ez (V/m) @ t=0.78
0.6665235212174461
% es.tEx (V/m) @ t=0.78
1.6487437192384409
% es.tEy (V/m) @ t=0.78
0
% es.tEz (V/m) @ t=0.78
0.6665235212174458
% V (V) @ t=0.78
0.008899416442521796
% es.normE (V/m) @ t=0.8
1.7997276555669943
% es.EX (V/m) @ t=0.8
1.6631846773272745
% es.EY (V/m) @ t=0.8
0.10472266768347827
% es.EZ (V/m) @ t=0.8
0.6723612274561701
% es.tEX (V/m) @ t=0.8
1.663184677327278
% es.tEY (V/m) @ t=0.8
0
% es.tEZ (V/m) @ t=0.8
0.6723612274561668
% es.Ex (V/m) @ t=0.8
1.6631846773272745
% es.Ey (V/m) @ t=0.8
0.10472266768347827
% es.Ez (V/m) @ t=0.8
0.6723612274561701
% es.tEx (V/m) @ t=0.8
1.663184677327278
% es.tEy (V/m) @ t=0.8
0
% es.tEz (V/m) @ t=0.8
0.6723612274561668
% V (V) @ t=0.8
0.008977371905516136
% es.normE (V/m) @ t=0.82
1.815956267418806
% es.EX (V/m) @ t=0.82
1.6781821315752952
% es.EY (V/m) @ t=0.82
0.10566657624569353
% es.EZ (V/m) @ t=0.82
0.6784238539850937
% es.tEX (V/m) @ t=0.82
1.678182131575288
% es.tEY (V/m) @ t=0.82
0
% es.tEZ (V/m) @ t=0.82
0.6784238539850902
% es.Ex (V/m) @ t=0.82
1.6781821315752952
% es.Ey (V/m) @ t=0.82
0.10566657624569353
% es.Ez (V/m) @ t=0.82
0.6784238539850937
% es.tEx (V/m) @ t=0.82
1.678182131575288
% es.tEy (V/m) @ t=0.82
0
% es.tEz (V/m) @ t=0.82
0.6784238539850902
% V (V) @ t=0.82
0.00905833288309861
% es.normE (V/m) @ t=0.84
1.8334199601008356
% es.EX (V/m) @ t=0.84
1.6943209957591816
% es.EY (V/m) @ t=0.84
0.1066821979562903
% es.EZ (V/m) @ t=0.84
0.6849478067060508
% es.tEX (V/m) @ t=0.84
1.6943209957591776
% es.tEY (V/m) @ t=0.84
0
% es.tEZ (V/m) @ t=0.84
0.684947806706051
% es.Ex (V/m) @ t=0.84
1.6943209957591816
% es.Ey (V/m) @ t=0.84
0.1066821979562903
% es.Ez (V/m) @ t=0.84
0.6849478067060508
% es.tEx (V/m) @ t=0.84
1.6943209957591776
% es.tEy (V/m) @ t=0.84
0
% es.tEz (V/m) @ t=0.84
0.684947806706051
% V (V) @ t=0.84
0.00914545836722178
% es.normE (V/m) @ t=0.86
1.8508836527833756
% es.EX (V/m) @ t=0.86
1.7104598599430565
% es.EY (V/m) @ t=0.86
0.10769781966688363
% es.EZ (V/m) @ t=0.86
0.6914717594270108
% es.tEX (V/m) @ t=0.86
1.7104598599430645
% es.tEY (V/m) @ t=0.86
0
% es.tEZ (V/m) @ t=0.86
0.6914717594270101
% es.Ex (V/m) @ t=0.86
1.7104598599430565
% es.Ey (V/m) @ t=0.86
0.10769781966688363
% es.Ez (V/m) @ t=0.86
0.6914717594270108
% es.tEx (V/m) @ t=0.86
1.7104598599430645
% es.tEy (V/m) @ t=0.86
0
% es.tEz (V/m) @ t=0.86
0.6914717594270101
% V (V) @ t=0.86
0.009232583851344947
% es.normE (V/m) @ t=0.88
1.8683473454664357
% es.EX (V/m) @ t=0.88
1.7265987241269505
% es.EY (V/m) @ t=0.88
0.10871344137747962
% es.EZ (V/m) @ t=0.88
0.6979957121479592
% es.tEX (V/m) @ t=0.88
1.726598724126955
% es.tEY (V/m) @ t=0.88
0
% es.tEZ (V/m) @ t=0.88
0.6979957121479599
% es.Ex (V/m) @ t=0.88
1.7265987241269505
% es.Ey (V/m) @ t=0.88
0.10871344137747962
% es.Ez (V/m) @ t=0.88
0.6979957121479592
% es.tEx (V/m) @ t=0.88
1.726598724126955
% es.tEy (V/m) @ t=0.88
0
% es.tEz (V/m) @ t=0.88
0.6979957121479599
% V (V) @ t=0.88
0.009319709335468114
% es.normE (V/m) @ t=0.9
1.885811038149983
% es.EX (V/m) @ t=0.9
1.7427375883108374
% es.EY (V/m) @ t=0.9
0.1097290630880744
% es.EZ (V/m) @ t=0.9
0.7045196648689163
% es.tEX (V/m) @ t=0.9
1.7427375883108294
% es.tEY (V/m) @ t=0.9
0
% es.tEZ (V/m) @ t=0.9
0.7045196648689172
% es.Ex (V/m) @ t=0.9
1.7427375883108374
% es.Ey (V/m) @ t=0.9
0.1097290630880744
% es.Ez (V/m) @ t=0.9
0.7045196648689163
% es.tEx (V/m) @ t=0.9
1.7427375883108294
% es.tEy (V/m) @ t=0.9
0
% es.tEz (V/m) @ t=0.9
0.7045196648689172
% V (V) @ t=0.9
0.009406834819591281
% es.normE (V/m) @ t=0.92
1.9032747308340117
% es.EX (V/m) @ t=0.92
1.758876452494727
% es.EY (V/m) @ t=0.92
0.11074468479866773
% es.EZ (V/m) @ t=0.92
0.711043617589878
% es.tEX (V/m) @ t=0.92
1.7588764524947234
% es.tEY (V/m) @ t=0.92
0
% es.tEZ (V/m) @ t=0.92
0.7110436175898798
% es.Ex (V/m) @ t=0.92
1.758876452494727
% es.Ey (V/m) @ t=0.92
0.11074468479866773
% es.Ez (V/m) @ t=0.92
0.711043617589878
% es.tEx (V/m) @ t=0.92
1.7588764524947234
% es.tEy (V/m) @ t=0.92
0
% es.tEz (V/m) @ t=0.92
0.7110436175898798
% V (V) @ t=0.92
0.009493960303714452
% es.normE (V/m) @ t=0.94
1.9207384235184974
% es.EX (V/m) @ t=0.94
1.7750153166786076
% es.EY (V/m) @ t=0.94
0.1117603065092655
% es.EZ (V/m) @ t=0.94
0.7175675703108362
% es.tEX (V/m) @ t=0.94
1.7750153166786067
% es.tEY (V/m) @ t=0.94
0
% es.tEZ (V/m) @ t=0.94
0.7175675703108353
% es.Ex (V/m) @ t=0.94
1.7750153166786076
% es.Ey (V/m) @ t=0.94
0.1117603065092655
% es.Ez (V/m) @ t=0.94
0.7175675703108362
% es.tEx (V/m) @ t=0.94
1.7750153166786067
% es.tEy (V/m) @ t=0.94
0
% es.tEz (V/m) @ t=0.94
0.7175675703108353
% V (V) @ t=0.94
0.009581085787837621
% es.normE (V/m) @ t=0.96
1.9382021162034362
% es.EX (V/m) @ t=0.96
1.79115418086249
% es.EY (V/m) @ t=0.96
0.11277592821985416
% es.EZ (V/m) @ t=0.96
0.7240915230317919
% es.tEX (V/m) @ t=0.96
1.7911541808624971
% es.tEY (V/m) @ t=0.96
0
% es.tEZ (V/m) @ t=0.96
0.7240915230317904
% es.Ex (V/m) @ t=0.96
1.79115418086249
% es.Ey (V/m) @ t=0.96
0.11277592821985416
% es.Ez (V/m) @ t=0.96
0.7240915230317919
% es.tEx (V/m) @ t=0.96
1.7911541808624971
% es.tEy (V/m) @ t=0.96
0
% es.tEz (V/m) @ t=0.96
0.7240915230317904
% V (V) @ t=0.96
0.009668211271960787
% es.normE (V/m) @ t=0.98
1.9556658088888212
% es.EX (V/m) @ t=0.98
1.8072930450463787
% es.EY (V/m) @ t=0.98
0.11379154993045826
% es.EZ (V/m) @ t=0.98
0.7306154757527488
% es.tEX (V/m) @ t=0.98
1.8072930450463716
% es.tEY (V/m) @ t=0.98
0
% es.tEZ (V/m) @ t=0.98
0.7306154757527534
% es.Ex (V/m) @ t=0.98
1.8072930450463787
% es.Ey (V/m) @ t=0.98
0.11379154993045826
% es.Ez (V/m) @ t=0.98
0.7306154757527488
% es.tEx (V/m) @ t=0.98
1.8072930450463716
% es.tEy (V/m) @ t=0.98
0
% es.tEz (V/m) @ t=0.98
0.7306154757527534
% V (V) @ t=0.98
0.009755336756083956
% es.normE (V/m) @ t=1
1.9731295015746402
% es.EX (V/m) @ t=1
1.8234319092302718
% es.EY (V/m) @ t=1
0.11480717164104981
% es.EZ (V/m) @ t=1
0.7371394284737096
% es.tEX (V/m) @ t=1
1.823431909230269
% es.tEY (V/m) @ t=1
0
% es.tEZ (V/m) @ t=1
0.7371394284737072
% es.Ex (V/m) @ t=1
1.8234319092302718
% es.Ey (V/m) @ t=1
0.11480717164104981
% es.Ez (V/m) @ t=1
0.7371394284737096
% es.tEx (V/m) @ t=1
1.823431909230269
% es.tEy (V/m) @ t=1
0
% es.tEz (V/m) @ t=1
0.7371394284737072
% V (V) @ t=1
0.009842462240207121
% es.normE (V/m) @ t=1.02
1.9905931942608601
% es.EX (V/m) @ t=1.02
1.8395707734141515
% es.EY (V/m) @ t=1.02
0.11582279335164225
% es.EZ (V/m) @ t=1.02
0.7436633811946607
% es.tEX (V/m) @ t=1.02
1.8395707734141613
% es.tEY (V/m) @ t=1.02
0
% es.tEZ (V/m) @ t=1.02
0.7436633811946622
% es.Ex (V/m) @ t=1.02
1.8395707734141515
% es.Ey (V/m) @ t=1.02
0.11582279335164225
% es.Ez (V/m) @ t=1.02
0.7436633811946607
% es.tEx (V/m) @ t=1.02
1.8395707734141613
% es.tEy (V/m) @ t=1.02
0
% es.tEz (V/m) @ t=1.02
0.7436633811946622
% V (V) @ t=1.02
0.00992958772433029
% es.normE (V/m) @ t=1.04
2.0080568869474957
% es.EX (V/m) @ t=1.04
1.8557096375980375
% es.EY (V/m) @ t=1.04
0.11683841506222659
% es.EZ (V/m) @ t=1.04
0.7501873339156215
% es.tEX (V/m) @ t=1.04
1.8557096375980375
% es.tEY (V/m) @ t=1.04
0
% es.tEZ (V/m) @ t=1.04
0.7501873339156195
% es.Ex (V/m) @ t=1.04
1.8557096375980375
% es.Ey (V/m) @ t=1.04
0.11683841506222659
% es.Ez (V/m) @ t=1.04
0.7501873339156215
% es.tEx (V/m) @ t=1.04