% Model:              1 neuron.mph
% Version:            COMSOL 6.0.0.405
% Date:               Mar 16 2023, 09:45
% Dimension:          0
% Nodes:              14017
% Expressions:        14017
% Description:        Electric field norm, Electric field, X component, Electric field, Y component, Electric field, Z component, Tangential electric field, X component, Tangential electric field, Y component, Tangential electric field, Z component, Electric field, x component, Electric field, y component, Electric field, z component, Tangential electric field, x component, Tangential electric field, y component, Tangential electric field, z component, Electric potential
% Length unit:        mm
% x
1.66
% y
12.2
% z
1.33
% es.normE (V/m) @ t=0
7.71303415376006
% es.EX (V/m) @ t=0
-4.285673194254951
% es.EY (V/m) @ t=0
-0.4626011382817379
% es.EZ (V/m) @ t=0
5.738489220320177
% es.tEX (V/m) @ t=0
-4.285673194254957
% es.tEY (V/m) @ t=0
0
% es.tEZ (V/m) @ t=0
5.7384892203201705
% es.Ex (V/m) @ t=0
-4.285673194254951
% es.Ey (V/m) @ t=0
-0.4626011382817379
% es.Ez (V/m) @ t=0
5.738489220320177
% es.tEx (V/m) @ t=0
-4.285673194254957
% es.tEy (V/m) @ t=0
0
% es.tEz (V/m) @ t=0
5.7384892203201705
% V (V) @ t=0
0.006334444890398893
% es.normE (V/m) @ t=0.02
6.661894676492221
% es.EX (V/m) @ t=0.02
-3.7016177153929855
% es.EY (V/m) @ t=0.02
-0.3995573777411785
% es.EZ (V/m) @ t=0.02
4.956442554565941
% es.tEX (V/m) @ t=0.02
-3.7016177153929952
% es.tEY (V/m) @ t=0.02
0
% es.tEZ (V/m) @ t=0.02
4.956442554565937
% es.Ex (V/m) @ t=0.02
-3.7016177153929855
% es.Ey (V/m) @ t=0.02
-0.3995573777411785
% es.Ez (V/m) @ t=0.02
4.956442554565941
% es.tEx (V/m) @ t=0.02
-3.7016177153929952
% es.tEy (V/m) @ t=0.02
0
% es.tEz (V/m) @ t=0.02
4.956442554565937
% V (V) @ t=0.02
0.005471180748681588
% es.normE (V/m) @ t=0.04
6.7231705238909
% es.EX (V/m) @ t=0.04
-3.7356651101276697
% es.EY (V/m) @ t=0.04
-0.4032324408986798
% es.EZ (V/m) @ t=0.04
5.002031707897788
% es.tEX (V/m) @ t=0.04
-3.7356651101276794
% es.tEY (V/m) @ t=0.04
0
% es.tEZ (V/m) @ t=0.04
5.0020317078977765
% es.Ex (V/m) @ t=0.04
-3.7356651101276697
% es.Ey (V/m) @ t=0.04
-0.4032324408986798
% es.Ez (V/m) @ t=0.04
5.002031707897788
% es.tEx (V/m) @ t=0.04
-3.7356651101276794
% es.tEy (V/m) @ t=0.04
0
% es.tEz (V/m) @ t=0.04
5.0020317078977765
% V (V) @ t=0.04
0.005521504355828384
% es.normE (V/m) @ t=0.06
6.784991326443015
% es.EX (V/m) @ t=0.06
-3.770015220446755
% es.EY (V/m) @ t=0.06
-0.4069402588999178
% es.EZ (V/m) @ t=0.06
5.048026324136807
% es.tEX (V/m) @ t=0.06
-3.7700152204467683
% es.tEY (V/m) @ t=0.06
0
% es.tEZ (V/m) @ t=0.06
5.048026324136799
% es.Ex (V/m) @ t=0.06
-3.770015220446755
% es.Ey (V/m) @ t=0.06
-0.4069402588999178
% es.Ez (V/m) @ t=0.06
5.048026324136807
% es.tEx (V/m) @ t=0.06
-3.7700152204467683
% es.tEy (V/m) @ t=0.06
0
% es.tEz (V/m) @ t=0.06
5.048026324136799
% V (V) @ t=0.06
0.005572275656166225
% es.normE (V/m) @ t=0.08
6.847773427477633
% es.EX (V/m) @ t=0.08
-3.804899477426269
% es.EY (V/m) @ t=0.08
-0.41070572354390444
% es.EZ (V/m) @ t=0.08
5.094736143284532
% es.tEX (V/m) @ t=0.08
-3.8048994774262788
% es.tEY (V/m) @ t=0.08
0
% es.tEZ (V/m) @ t=0.08
5.094736143284522
% es.Ex (V/m) @ t=0.08
-3.804899477426269
% es.Ey (V/m) @ t=0.08
-0.41070572354390444
% es.Ez (V/m) @ t=0.08
5.094736143284532
% es.tEx (V/m) @ t=0.08
-3.8048994774262788
% es.tEy (V/m) @ t=0.08
0
% es.tEz (V/m) @ t=0.08
5.094736143284522
% V (V) @ t=0.08
0.005623836419812037
% es.normE (V/m) @ t=0.1
6.911187137576066
% es.EX (V/m) @ t=0.1
-3.8401346887433636
% es.EY (V/m) @ t=0.1
-0.4145090641886797
% es.EZ (V/m) @ t=0.1
5.141915877498
% es.tEX (V/m) @ t=0.1
-3.84013468874337
% es.tEY (V/m) @ t=0.1
0
% es.tEZ (V/m) @ t=0.1
5.1419158774979925
% es.Ex (V/m) @ t=0.1
-3.8401346887433636
% es.Ey (V/m) @ t=0.1
-0.4145090641886797
% es.Ez (V/m) @ t=0.1
5.141915877498
% es.tEx (V/m) @ t=0.1
-3.84013468874337
% es.tEy (V/m) @ t=0.1
0
% es.tEz (V/m) @ t=0.1
5.1419158774979925
% V (V) @ t=0.1
0.005675915890383892
% es.normE (V/m) @ t=0.12
6.974600847674481
% es.EX (V/m) @ t=0.12
-3.8753699000604467
% es.EY (V/m) @ t=0.12
-0.41831240483344767
% es.EZ (V/m) @ t=0.12
5.189095611711453
% es.tEX (V/m) @ t=0.12
-3.8753699000604493
% es.tEY (V/m) @ t=0.12
0
% es.tEZ (V/m) @ t=0.12
5.189095611711447
% es.Ex (V/m) @ t=0.12
-3.8753699000604467
% es.Ey (V/m) @ t=0.12
-0.41831240483344767
% es.Ez (V/m) @ t=0.12
5.189095611711453
% es.tEx (V/m) @ t=0.12
-3.8753699000604493
% es.tEy (V/m) @ t=0.12
0
% es.tEz (V/m) @ t=0.12
5.189095611711447
% V (V) @ t=0.12
0.005727995360955745
% es.normE (V/m) @ t=0.14
7.0387454313546165
% es.EX (V/m) @ t=0.14
-3.9110112068649174
% es.EY (V/m) @ t=0.14
-0.4221595869489052
% es.EZ (V/m) @ t=0.14
5.236819116601706
% es.tEX (V/m) @ t=0.14
-3.91101120686492
% es.tEY (V/m) @ t=0.14
0
% es.tEZ (V/m) @ t=0.14
5.2368191166016995
% es.Ex (V/m) @ t=0.14
-3.9110112068649174
% es.Ey (V/m) @ t=0.14
-0.4221595869489052
% es.Ez (V/m) @ t=0.14
5.236819116601706
% es.tEx (V/m) @ t=0.14
-3.91101120686492
% es.tEy (V/m) @ t=0.14
0
% es.tEz (V/m) @ t=0.14
5.2368191166016995
% V (V) @ t=0.14
0.00578067508480821
% es.normE (V/m) @ t=0.16
7.105528852824263
% es.EX (V/m) @ t=0.16
-3.94811873182954
% es.EY (V/m) @ t=0.16
-0.4261650598172837
% es.EZ (V/m) @ t=0.16
5.286505919450257
% es.tEX (V/m) @ t=0.16
-3.9481187318295428
% es.tEY (V/m) @ t=0.16
0
% es.tEZ (V/m) @ t=0.16
5.286505919450251
% es.Ex (V/m) @ t=0.16
-3.94811873182954
% es.Ey (V/m) @ t=0.16
-0.4261650598172837
% es.Ez (V/m) @ t=0.16
5.286505919450257
% es.tEx (V/m) @ t=0.16
-3.9481187318295428
% es.tEy (V/m) @ t=0.16
0
% es.tEz (V/m) @ t=0.16
5.286505919450251
% V (V) @ t=0.16
0.005835522038507104
% es.normE (V/m) @ t=0.18
7.172312274293931
% es.EX (V/m) @ t=0.18
-3.985226256794159
% es.EY (V/m) @ t=0.18
-0.4301705326856813
% es.EZ (V/m) @ t=0.18
5.336192722298826
% es.tEX (V/m) @ t=0.18
-3.9852262567941654
% es.tEY (V/m) @ t=0.18
0
% es.tEZ (V/m) @ t=0.18
5.336192722298817
% es.Ex (V/m) @ t=0.18
-3.985226256794159
% es.Ey (V/m) @ t=0.18
-0.4301705326856813
% es.Ez (V/m) @ t=0.18
5.336192722298826
% es.tEx (V/m) @ t=0.18
-3.9852262567941654
% es.tEy (V/m) @ t=0.18
0
% es.tEz (V/m) @ t=0.18
5.336192722298817
% V (V) @ t=0.18
0.005890368992205997
% es.normE (V/m) @ t=0.2
7.239095695763583
% es.EX (V/m) @ t=0.2
-4.022333781758777
% es.EY (V/m) @ t=0.2
-0.4341760055540742
% es.EZ (V/m) @ t=0.2
5.385879525147378
% es.tEX (V/m) @ t=0.2
-4.0223337817587845
% es.tEY (V/m) @ t=0.2
0
% es.tEZ (V/m) @ t=0.2
5.38587952514737
% es.Ex (V/m) @ t=0.2
-4.022333781758777
% es.Ey (V/m) @ t=0.2
-0.4341760055540742
% es.Ez (V/m) @ t=0.2
5.385879525147378
% es.tEx (V/m) @ t=0.2
-4.0223337817587845
% es.tEy (V/m) @ t=0.2
0
% es.tEz (V/m) @ t=0.2
5.38587952514737
% V (V) @ t=0.2
0.00594521594590489
% es.normE (V/m) @ t=0.22
7.305879117233241
% es.EX (V/m) @ t=0.22
-4.059441306723408
% es.EY (V/m) @ t=0.22
-0.43818147842245425
% es.EZ (V/m) @ t=0.22
5.4355663279959385
% es.tEX (V/m) @ t=0.22
-4.059441306723411
% es.tEY (V/m) @ t=0.22
0
% es.tEZ (V/m) @ t=0.22
5.435566327995929
% es.Ex (V/m) @ t=0.22
-4.059441306723408
% es.Ey (V/m) @ t=0.22
-0.43818147842245425
% es.Ez (V/m) @ t=0.22
5.4355663279959385
% es.tEx (V/m) @ t=0.22
-4.059441306723411
% es.tEy (V/m) @ t=0.22
0
% es.tEz (V/m) @ t=0.22
5.435566327995929
% V (V) @ t=0.22
0.006000062899603784
% es.normE (V/m) @ t=0.24
7.372662538702899
% es.EX (V/m) @ t=0.24
-4.096548831688028
% es.EY (V/m) @ t=0.24
-0.44218695129083785
% es.EZ (V/m) @ t=0.24
5.4852531308445025
% es.tEX (V/m) @ t=0.24
-4.096548831688038
% es.tEY (V/m) @ t=0.24
0
% es.tEZ (V/m) @ t=0.24
5.485253130844491
% es.Ex (V/m) @ t=0.24
-4.096548831688028
% es.Ey (V/m) @ t=0.24
-0.44218695129083785
% es.Ez (V/m) @ t=0.24
5.4852531308445025
% es.tEx (V/m) @ t=0.24
-4.096548831688038
% es.tEy (V/m) @ t=0.24
0
% es.tEz (V/m) @ t=0.24
5.485253130844491
% V (V) @ t=0.24
0.006054909853302678
% es.normE (V/m) @ t=0.26
7.439445960172559
% es.EX (V/m) @ t=0.26
-4.133656356652653
% es.EY (V/m) @ t=0.26
-0.4461924241592199
% es.EZ (V/m) @ t=0.26
5.534939933693061
% es.tEX (V/m) @ t=0.26
-4.1336563566526525
% es.tEY (V/m) @ t=0.26
0
% es.tEZ (V/m) @ t=0.26
5.534939933693055
% es.Ex (V/m) @ t=0.26
-4.133656356652653
% es.Ey (V/m) @ t=0.26
-0.4461924241592199
% es.Ez (V/m) @ t=0.26
5.534939933693061
% es.tEx (V/m) @ t=0.26
-4.1336563566526525
% es.tEy (V/m) @ t=0.26
0
% es.tEz (V/m) @ t=0.26
5.534939933693055
% V (V) @ t=0.26
0.0061097568070015715
% es.normE (V/m) @ t=0.28
7.509595208164509
% es.EX (V/m) @ t=0.28
-4.1726294446121095
% es.EY (V/m) @ t=0.28
-0.45040366238016705
% es.EZ (V/m) @ t=0.28
5.587131840620034
% es.tEX (V/m) @ t=0.28
-4.172629444612116
% es.tEY (V/m) @ t=0.28
0
% es.tEZ (V/m) @ t=0.28
5.587131840620026
% es.Ex (V/m) @ t=0.28
-4.1726294446121095
% es.Ey (V/m) @ t=0.28
-0.45040366238016705
% es.Ez (V/m) @ t=0.28
5.587131840620034
% es.tEx (V/m) @ t=0.28
-4.172629444612116
% es.tEy (V/m) @ t=0.28
0
% es.tEz (V/m) @ t=0.28
5.587131840620026
% V (V) @ t=0.28
0.0061673757824638464
% es.normE (V/m) @ t=0.3
7.583964245972616
% es.EX (V/m) @ t=0.3
-4.213941418317843
% es.EY (V/m) @ t=0.3
-0.4548728718684467
% es.EZ (V/m) @ t=0.3
5.64246443603528
% es.tEX (V/m) @ t=0.3
-4.213941418317845
% es.tEY (V/m) @ t=0.3
0
% es.tEZ (V/m) @ t=0.3
5.642464436035272
% es.Ex (V/m) @ t=0.3
-4.213941418317843
% es.Ey (V/m) @ t=0.3
-0.4548728718684467
% es.Ez (V/m) @ t=0.3
5.64246443603528
% es.tEx (V/m) @ t=0.3
-4.213941418317845
% es.tEy (V/m) @ t=0.3
0
% es.tEz (V/m) @ t=0.3
5.642464436035272
% V (V) @ t=0.3
0.006228470085325278
% es.normE (V/m) @ t=0.32
7.658333283816626
% es.EX (V/m) @ t=0.32
-4.255253392023587
% es.EY (V/m) @ t=0.32
-0.4593420813567266
% es.EZ (V/m) @ t=0.32
5.697797031450508
% es.tEX (V/m) @ t=0.32
-4.255253392023593
% es.tEY (V/m) @ t=0.32
0
% es.tEZ (V/m) @ t=0.32
5.697797031450504
% es.Ex (V/m) @ t=0.32
-4.255253392023587
% es.Ey (V/m) @ t=0.32
-0.4593420813567266
% es.Ez (V/m) @ t=0.32
5.697797031450508
% es.tEx (V/m) @ t=0.32
-4.255253392023593
% es.tEy (V/m) @ t=0.32
0
% es.tEz (V/m) @ t=0.32
5.697797031450504
% V (V) @ t=0.32
0.006289564388186711
% es.normE (V/m) @ t=0.34
7.732702321695491
% es.EX (V/m) @ t=0.34
-4.296565365729323
% es.EY (V/m) @ t=0.34
-0.4638112908450167
% es.EZ (V/m) @ t=0.34
5.753129626865732
% es.tEX (V/m) @ t=0.34
-4.296565365729332
% es.tEY (V/m) @ t=0.34
0
% es.tEZ (V/m) @ t=0.34
5.753129626865724
% es.Ex (V/m) @ t=0.34
-4.296565365729323
% es.Ey (V/m) @ t=0.34
-0.4638112908450167
% es.Ez (V/m) @ t=0.34
5.753129626865732
% es.tEx (V/m) @ t=0.34
-4.296565365729332
% es.tEy (V/m) @ t=0.34
0
% es.tEz (V/m) @ t=0.34
5.753129626865724
% V (V) @ t=0.34
0.0063506586910481435
% es.normE (V/m) @ t=0.36
7.807071359608239
% es.EX (V/m) @ t=0.36
-4.337877339435071
% es.EY (V/m) @ t=0.36
-0.46828050033330504
% es.EZ (V/m) @ t=0.36
5.808462222280961
% es.tEX (V/m) @ t=0.36
-4.337877339435077
% es.tEY (V/m) @ t=0.36
0
% es.tEZ (V/m) @ t=0.36
5.8084622222809505
% es.Ex (V/m) @ t=0.36
-4.337877339435071
% es.Ey (V/m) @ t=0.36
-0.46828050033330504
% es.Ez (V/m) @ t=0.36
5.808462222280961
% es.tEx (V/m) @ t=0.36
-4.337877339435077
% es.tEy (V/m) @ t=0.36
0
% es.tEz (V/m) @ t=0.36
5.8084622222809505
% V (V) @ t=0.36
0.006411752993909576
% es.normE (V/m) @ t=0.38
7.881440397553913
% es.EX (V/m) @ t=0.38
-4.37918931314081
% es.EY (V/m) @ t=0.38
-0.4727497098215956
% es.EZ (V/m) @ t=0.38
5.863794817696202
% es.tEX (V/m) @ t=0.38
-4.379189313140824
% es.tEY (V/m) @ t=0.38
0
% es.tEZ (V/m) @ t=0.38
5.863794817696194
% es.Ex (V/m) @ t=0.38
-4.37918931314081
% es.Ey (V/m) @ t=0.38
-0.4727497098215956
% es.Ez (V/m) @ t=0.38
5.863794817696202
% es.tEx (V/m) @ t=0.38
-4.379189313140824
% es.tEy (V/m) @ t=0.38
0
% es.tEz (V/m) @ t=0.38
5.863794817696194
% V (V) @ t=0.38
0.006472847296771008
% es.normE (V/m) @ t=0.4
7.955809435531567
% es.EX (V/m) @ t=0.4
-4.42050128684655
% es.EY (V/m) @ t=0.4
-0.4772189193098948
% es.EZ (V/m) @ t=0.4
5.9191274131114255
% es.tEX (V/m) @ t=0.4
-4.420501286846556
% es.tEY (V/m) @ t=0.4
0
% es.tEZ (V/m) @ t=0.4
5.91912741311142
% es.Ex (V/m) @ t=0.4
-4.42050128684655
% es.Ey (V/m) @ t=0.4
-0.4772189193098948
% es.Ez (V/m) @ t=0.4
5.9191274131114255
% es.tEx (V/m) @ t=0.4
-4.420501286846556
% es.tEy (V/m) @ t=0.4
0
% es.tEz (V/m) @ t=0.4
5.91912741311142
% V (V) @ t=0.4
0.006533941599632441
% es.normE (V/m) @ t=0.42
8.030178473540328
% es.EX (V/m) @ t=0.42
-4.4618132605522876
% es.EY (V/m) @ t=0.42
-0.48168812879817446
% es.EZ (V/m) @ t=0.42
5.974460008526662
% es.tEX (V/m) @ t=0.42
-4.461813260552297
% es.tEY (V/m) @ t=0.42
0
% es.tEZ (V/m) @ t=0.42
5.974460008526657
% es.Ex (V/m) @ t=0.42
-4.4618132605522876
% es.Ey (V/m) @ t=0.42
-0.48168812879817446
% es.Ez (V/m) @ t=0.42
5.974460008526662
% es.tEx (V/m) @ t=0.42
-4.461813260552297
% es.tEy (V/m) @ t=0.42
0
% es.tEz (V/m) @ t=0.42
5.974460008526657
% V (V) @ t=0.42
0.006595035902493872
% es.normE (V/m) @ t=0.44
8.104547511579334
% es.EX (V/m) @ t=0.44
-4.503125234258034
% es.EY (V/m) @ t=0.44
-0.4861573382864526
% es.EZ (V/m) @ t=0.44
6.029792603941894
% es.tEX (V/m) @ t=0.44
-4.503125234258037
% es.tEY (V/m) @ t=0.44
0
% es.tEZ (V/m) @ t=0.44
6.029792603941884
% es.Ex (V/m) @ t=0.44
-4.503125234258034
% es.Ey (V/m) @ t=0.44
-0.4861573382864526
% es.Ez (V/m) @ t=0.44
6.029792603941894
% es.tEx (V/m) @ t=0.44
-4.503125234258037
% es.tEy (V/m) @ t=0.44
0
% es.tEz (V/m) @ t=0.44
6.029792603941884
% V (V) @ t=0.44
0.0066561302053553045
% es.normE (V/m) @ t=0.46
8.178916549647766
% es.EX (V/m) @ t=0.46
-4.544437207963779
% es.EY (V/m) @ t=0.46
-0.49062654777474246
% es.EZ (V/m) @ t=0.46
6.085125199357129
% es.tEX (V/m) @ t=0.46
-4.544437207963789
% es.tEY (V/m) @ t=0.46
0
% es.tEZ (V/m) @ t=0.46
6.085125199357128
% es.Ex (V/m) @ t=0.46
-4.544437207963779
% es.Ey (V/m) @ t=0.46
-0.49062654777474246
% es.Ez (V/m) @ t=0.46
6.085125199357129
% es.tEx (V/m) @ t=0.46
-4.544437207963789
% es.tEy (V/m) @ t=0.46
0
% es.tEz (V/m) @ t=0.46
6.085125199357128
% V (V) @ t=0.46
0.006717224508216737
% es.normE (V/m) @ t=0.48
8.25328558774481
% es.EX (V/m) @ t=0.48
-4.585749181669518
% es.EY (V/m) @ t=0.48
-0.49509575726304167
% es.EZ (V/m) @ t=0.48
6.140457794772353
% es.tEX (V/m) @ t=0.48
-4.585749181669532
% es.tEY (V/m) @ t=0.48
0
% es.tEZ (V/m) @ t=0.48
6.140457794772346
% es.Ex (V/m) @ t=0.48
-4.585749181669518
% es.Ey (V/m) @ t=0.48
-0.49509575726304167
% es.Ez (V/m) @ t=0.48
6.140457794772353
% es.tEx (V/m) @ t=0.48
-4.585749181669532
% es.tEy (V/m) @ t=0.48
0
% es.tEz (V/m) @ t=0.48
6.140457794772346
% V (V) @ t=0.48
0.00677831881107817
% es.normE (V/m) @ t=0.5
8.327654625869732
% es.EX (V/m) @ t=0.5
-4.627061155375258
% es.EY (V/m) @ t=0.5
-0.4995649667513249
% es.EZ (V/m) @ t=0.5
6.195790390187596
% es.tEX (V/m) @ t=0.5
-4.627061155375264
% es.tEY (V/m) @ t=0.5
0
% es.tEZ (V/m) @ t=0.5
6.195790390187586
% es.Ex (V/m) @ t=0.5
-4.627061155375258
% es.Ey (V/m) @ t=0.5
-0.4995649667513249
% es.Ez (V/m) @ t=0.5
6.195790390187596
% es.tEx (V/m) @ t=0.5
-4.627061155375264
% es.tEy (V/m) @ t=0.5
0
% es.tEz (V/m) @ t=0.5
6.195790390187586
% V (V) @ t=0.5
0.0068394131139396025
% es.normE (V/m) @ t=0.52
8.402023664021762
% es.EX (V/m) @ t=0.52
-4.668373129080996
% es.EY (V/m) @ t=0.52
-0.5040341762396172
% es.EZ (V/m) @ t=0.52
6.251122985602824
% es.tEX (V/m) @ t=0.52
-4.668373129080999
% es.tEY (V/m) @ t=0.52
0
% es.tEZ (V/m) @ t=0.52
6.251122985602817
% es.Ex (V/m) @ t=0.52
-4.668373129080996
% es.Ey (V/m) @ t=0.52
-0.5040341762396172
% es.Ez (V/m) @ t=0.52
6.251122985602824
% es.tEx (V/m) @ t=0.52
-4.668373129080999
% es.tEy (V/m) @ t=0.52
0
% es.tEz (V/m) @ t=0.52
6.251122985602817
% V (V) @ t=0.52
0.006900507416801035
% es.normE (V/m) @ t=0.54
8.47639270220019
% es.EX (V/m) @ t=0.54
-4.709685102786749
% es.EY (V/m) @ t=0.54
-0.5085033857278898
% es.EZ (V/m) @ t=0.54
6.3064555810180485
% es.tEX (V/m) @ t=0.54
-4.7096851027867555
% es.tEY (V/m) @ t=0.54
0
% es.tEZ (V/m) @ t=0.54
6.306455581018042
% es.Ex (V/m) @ t=0.54
-4.709685102786749
% es.Ey (V/m) @ t=0.54
-0.5085033857278898
% es.Ez (V/m) @ t=0.54
6.3064555810180485
% es.tEx (V/m) @ t=0.54
-4.7096851027867555
% es.tEy (V/m) @ t=0.54
0
% es.tEz (V/m) @ t=0.54
6.306455581018042
% V (V) @ t=0.54
0.006961601719662465
% es.normE (V/m) @ t=0.56
8.558465489872862
% es.EX (V/m) @ t=0.56
-4.755275753530125
% es.EY (V/m) @ t=0.56
-0.5134361886359349
% es.EZ (V/m) @ t=0.56
6.367520126505459
% es.tEX (V/m) @ t=0.56
-4.755275753530127
% es.tEY (V/m) @ t=0.56
0
% es.tEZ (V/m) @ t=0.56
6.367520126505456
% es.Ex (V/m) @ t=0.56
-4.755275753530125
% es.Ey (V/m) @ t=0.56
-0.5134361886359349
% es.Ez (V/m) @ t=0.56
6.367520126505459
% es.tEx (V/m) @ t=0.56
-4.755275753530127
% es.tEy (V/m) @ t=0.56
0
% es.tEz (V/m) @ t=0.56
6.367520126505456
% V (V) @ t=0.56
0.007029025933898599
% es.normE (V/m) @ t=0.58
8.641419575577595
% es.EX (V/m) @ t=0.58
-4.801355878848885
% es.EY (V/m) @ t=0.58
-0.5184220259726868
% es.EZ (V/m) @ t=0.58
6.429240398939089
% es.tEX (V/m) @ t=0.58
-4.801355878848902
% es.tEY (V/m) @ t=0.58
0
% es.tEZ (V/m) @ t=0.58
6.429240398939086
% es.Ex (V/m) @ t=0.58
-4.801355878848885
% es.Ey (V/m) @ t=0.58
-0.5184220259726868
% es.Ez (V/m) @ t=0.58
6.429240398939089
% es.tEx (V/m) @ t=0.58
-4.801355878848902
% es.tEy (V/m) @ t=0.58
0
% es.tEz (V/m) @ t=0.58
6.429240398939086
% V (V) @ t=0.58
0.007097174281004558
% es.normE (V/m) @ t=0.6
8.724373661317674
% es.EX (V/m) @ t=0.6
-4.847436004167669
% es.EY (V/m) @ t=0.6
-0.5234078633094283
% es.EZ (V/m) @ t=0.6
6.490960671372706
% es.tEX (V/m) @ t=0.6
-4.847436004167675
% es.tEY (V/m) @ t=0.6
0
% es.tEZ (V/m) @ t=0.6
6.490960671372695
% es.Ex (V/m) @ t=0.6
-4.847436004167669
% es.Ey (V/m) @ t=0.6
-0.5234078633094283
% es.Ez (V/m) @ t=0.6
6.490960671372706
% es.tEx (V/m) @ t=0.6
-4.847436004167675
% es.tEy (V/m) @ t=0.6
0
% es.tEz (V/m) @ t=0.6
6.490960671372695
% V (V) @ t=0.6
0.0071653226281105185
% es.normE (V/m) @ t=0.62
8.807327747092078
% es.EX (V/m) @ t=0.62
-4.893516129486436
% es.EY (V/m) @ t=0.62
-0.5283937006461574
% es.EZ (V/m) @ t=0.62
6.552680943806338
% es.tEX (V/m) @ t=0.62
-4.893516129486441
% es.tEY (V/m) @ t=0.62
0
% es.tEZ (V/m) @ t=0.62
6.55268094380633
% es.Ex (V/m) @ t=0.62
-4.893516129486436
% es.Ey (V/m) @ t=0.62
-0.5283937006461574
% es.Ez (V/m) @ t=0.62
6.552680943806338
% es.tEx (V/m) @ t=0.62
-4.893516129486441
% es.tEy (V/m) @ t=0.62
0
% es.tEz (V/m) @ t=0.62
6.55268094380633
% V (V) @ t=0.62
0.0072334709752164775
% es.normE (V/m) @ t=0.64
8.890281832899856
% es.EX (V/m) @ t=0.64
-4.939596254805195
% es.EY (V/m) @ t=0.64
-0.5333795379829147
% es.EZ (V/m) @ t=0.64
6.614401216239952
% es.tEX (V/m) @ t=0.64
-4.939596254805197
% es.tEY (V/m) @ t=0.64
0
% es.tEZ (V/m) @ t=0.64
6.614401216239945
% es.Ex (V/m) @ t=0.64
-4.939596254805195
% es.Ey (V/m) @ t=0.64
-0.5333795379829147
% es.Ez (V/m) @ t=0.64
6.614401216239952
% es.tEx (V/m) @ t=0.64
-4.939596254805197
% es.tEy (V/m) @ t=0.64
0
% es.tEz (V/m) @ t=0.64
6.614401216239945
% V (V) @ t=0.64
0.0073016193223224375
% es.normE (V/m) @ t=0.66
8.973235918740079
% es.EX (V/m) @ t=0.66
-4.985676380123964
% es.EY (V/m) @ t=0.66
-0.53836537531966
% es.EZ (V/m) @ t=0.66
6.6761214886735525
% es.tEX (V/m) @ t=0.66
-4.985676380123974
% es.tEY (V/m) @ t=0.66
0
% es.tEZ (V/m) @ t=0.66
6.6761214886735365
% es.Ex (V/m) @ t=0.66
-4.985676380123964
% es.Ey (V/m) @ t=0.66
-0.53836537531966
% es.Ez (V/m) @ t=0.66
6.6761214886735525
% es.tEx (V/m) @ t=0.66
-4.985676380123974
% es.tEy (V/m) @ t=0.66
0
% es.tEz (V/m) @ t=0.66
6.6761214886735365
% V (V) @ t=0.66
0.007369767669428397
% es.normE (V/m) @ t=0.68
9.056190004611892
% es.EX (V/m) @ t=0.68
-5.031756505442737
% es.EY (V/m) @ t=0.68
-0.5433512126564173
% es.EZ (V/m) @ t=0.68
6.737841761107189
% es.tEX (V/m) @ t=0.68
-5.031756505442743
% es.tEY (V/m) @ t=0.68
0
% es.tEZ (V/m) @ t=0.68
6.7378417611071795
% es.Ex (V/m) @ t=0.68
-5.031756505442737
% es.Ey (V/m) @ t=0.68
-0.5433512126564173
% es.Ez (V/m) @ t=0.68
6.737841761107189
% es.tEx (V/m) @ t=0.68
-5.031756505442743
% es.tEy (V/m) @ t=0.68
0
% es.tEz (V/m) @ t=0.68
6.7378417611071795
% V (V) @ t=0.68
0.007437916016534359
% es.normE (V/m) @ t=0.7
9.139144090514385
% es.EX (V/m) @ t=0.7
-5.0778366307615
% es.EY (V/m) @ t=0.7
-0.5483370499931428
% es.EZ (V/m) @ t=0.7
6.799562033540803
% es.tEX (V/m) @ t=0.7
-5.077836630761507
% es.tEY (V/m) @ t=0.7
0
% es.tEZ (V/m) @ t=0.7
6.799562033540793
% es.Ex (V/m) @ t=0.7
-5.0778366307615
% es.Ey (V/m) @ t=0.7
-0.5483370499931428
% es.Ez (V/m) @ t=0.7
6.799562033540803
% es.tEx (V/m) @ t=0.7
-5.077836630761507
% es.tEy (V/m) @ t=0.7
0
% es.tEz (V/m) @ t=0.7
6.799562033540793
% V (V) @ t=0.7
0.007506064363640318
% es.normE (V/m) @ t=0.72
9.22209817644676
% es.EX (V/m) @ t=0.72
-5.123916756080264
% es.EY (V/m) @ t=0.72
-0.5533228873299094
% es.EZ (V/m) @ t=0.72
6.861282305974425
% es.tEX (V/m) @ t=0.72
-5.12391675608027
% es.tEY (V/m) @ t=0.72
0
% es.tEZ (V/m) @ t=0.72
6.861282305974412
% es.Ex (V/m) @ t=0.72
-5.123916756080264
% es.Ey (V/m) @ t=0.72
-0.5533228873299094
% es.Ez (V/m) @ t=0.72
6.861282305974425
% es.tEx (V/m) @ t=0.72
-5.12391675608027
% es.tEy (V/m) @ t=0.72
0
% es.tEz (V/m) @ t=0.72
6.861282305974412
% V (V) @ t=0.72
0.007574212710746277
% es.normE (V/m) @ t=0.74
9.305052262408203
% es.EX (V/m) @ t=0.74
-5.169996881399034
% es.EY (V/m) @ t=0.74
-0.558308724666633
% es.EZ (V/m) @ t=0.74
6.92300257840804
% es.tEX (V/m) @ t=0.74
-5.16999688139904
% es.tEY (V/m) @ t=0.74
0
% es.tEZ (V/m) @ t=0.74
6.923002578408029
% es.Ex (V/m) @ t=0.74
-5.169996881399034
% es.Ey (V/m) @ t=0.74
-0.558308724666633
% es.Ez (V/m) @ t=0.74
6.92300257840804
% es.tEx (V/m) @ t=0.74
-5.16999688139904
% es.tEy (V/m) @ t=0.74
0
% es.tEz (V/m) @ t=0.74
6.923002578408029
% V (V) @ t=0.74
0.007642361057852238
% es.normE (V/m) @ t=0.76
9.388006348397962
% es.EX (V/m) @ t=0.76
-5.216077006717806
% es.EY (V/m) @ t=0.76
-0.5632945620033765
% es.EZ (V/m) @ t=0.76
6.9847228508416705
% es.tEX (V/m) @ t=0.76
-5.216077006717812
% es.tEY (V/m) @ t=0.76
0
% es.tEZ (V/m) @ t=0.76
6.98472285084166
% es.Ex (V/m) @ t=0.76
-5.216077006717806
% es.Ey (V/m) @ t=0.76
-0.5632945620033765
% es.Ez (V/m) @ t=0.76
6.9847228508416705
% es.tEx (V/m) @ t=0.76
-5.216077006717812
% es.tEy (V/m) @ t=0.76
0
% es.tEz (V/m) @ t=0.76
6.98472285084166
% V (V) @ t=0.76
0.007710509404958195
% es.normE (V/m) @ t=0.78
9.47096043441526
% es.EX (V/m) @ t=0.78
-5.262157132036569
% es.EY (V/m) @ t=0.78
-0.5682803993401235
% es.EZ (V/m) @ t=0.78
7.046443123275281
% es.tEX (V/m) @ t=0.78
-5.262157132036576
% es.tEY (V/m) @ t=0.78
0
% es.tEZ (V/m) @ t=0.78
7.046443123275267
% es.Ex (V/m) @ t=0.78
-5.262157132036569
% es.Ey (V/m) @ t=0.78
-0.5682803993401235
% es.Ez (V/m) @ t=0.78
7.046443123275281
% es.tEx (V/m) @ t=0.78
-5.262157132036576
% es.tEy (V/m) @ t=0.78
0
% es.tEz (V/m) @ t=0.78
7.046443123275267
% V (V) @ t=0.78
0.007778657752064157
% es.normE (V/m) @ t=0.8
9.553914520459424
% es.EX (V/m) @ t=0.8
-5.308237257355343
% es.EY (V/m) @ t=0.8
-0.5732662366768935
% es.EZ (V/m) @ t=0.8
7.108163395708903
% es.tEX (V/m) @ t=0.8
-5.308237257355353
% es.tEY (V/m) @ t=0.8
0
% es.tEZ (V/m) @ t=0.8
7.108163395708892
% es.Ex (V/m) @ t=0.8
-5.308237257355343
% es.Ey (V/m) @ t=0.8
-0.5732662366768935
% es.Ez (V/m) @ t=0.8
7.108163395708903
% es.tEx (V/m) @ t=0.8
-5.308237257355353
% es.tEy (V/m) @ t=0.8
0
% es.tEz (V/m) @ t=0.8
7.108163395708892
% V (V) @ t=0.8
0.007846806099170116
% es.normE (V/m) @ t=0.82
9.640280446200231
% es.EX (V/m) @ t=0.82
-5.356220843114436
% es.EY (V/m) @ t=0.82
-0.57845021697701
% es.EZ (V/m) @ t=0.82
7.172420521234873
% es.tEX (V/m) @ t=0.82
-5.356220843114442
% es.tEY (V/m) @ t=0.82
0
% es.tEZ (V/m) @ t=0.82
7.172420521234863
% es.Ex (V/m) @ t=0.82
-5.356220843114436
% es.Ey (V/m) @ t=0.82
-0.57845021697701
% es.Ez (V/m) @ t=0.82
7.172420521234873
% es.tEx (V/m) @ t=0.82
-5.356220843114442
% es.tEy (V/m) @ t=0.82
0
% es.tEz (V/m) @ t=0.82
7.172420521234863
% V (V) @ t=0.82
0.007917743504521613
% es.normE (V/m) @ t=0.84
9.732955473215865
% es.EX (V/m) @ t=0.84
-5.407724267371918
% es.EY (V/m) @ t=0.84
-0.5840005990241359
% es.EZ (V/m) @ t=0.84
7.2413687414586745
% es.tEX (V/m) @ t=0.84
-5.407724267371928
% es.tEY (V/m) @ t=0.84
0
% es.tEZ (V/m) @ t=0.84
7.241368741458661
% es.Ex (V/m) @ t=0.84
-5.407724267371918
% es.Ey (V/m) @ t=0.84
-0.5840005990241359
% es.Ez (V/m) @ t=0.84
7.2413687414586745
% es.tEx (V/m) @ t=0.84
-5.407724267371928
% es.tEy (V/m) @ t=0.84
0
% es.tEz (V/m) @ t=0.84
7.241368741458661
% V (V) @ t=0.84
0.007993838376967693
% es.normE (V/m) @ t=0.86
9.825630500271131
% es.EX (V/m) @ t=0.86
-5.4592276916293985
% es.EY (V/m) @ t=0.86
-0.5895509810712516
% es.EZ (V/m) @ t=0.86
7.310316961682467
% es.tEX (V/m) @ t=0.86
-5.459227691629408
% es.tEY (V/m) @ t=0.86
0
% es.tEZ (V/m) @ t=0.86
7.310316961682457
% es.Ex (V/m) @ t=0.86
-5.4592276916293985
% es.Ey (V/m) @ t=0.86
-0.5895509810712516
% es.Ez (V/m) @ t=0.86
7.310316961682467
% es.tEx (V/m) @ t=0.86
-5.459227691629408
% es.tEy (V/m) @ t=0.86
0
% es.tEz (V/m) @ t=0.86
7.310316961682457
% V (V) @ t=0.86
0.00806993324941377
% es.normE (V/m) @ t=0.88
9.918305527364994
% es.EX (V/m) @ t=0.88
-5.510731115886882
% es.EY (V/m) @ t=0.88
-0.5951013631183637
% es.EZ (V/m) @ t=0.88
7.379265181906287
% es.tEX (V/m) @ t=0.88
-5.510731115886884
% es.tEY (V/m) @ t=0.88
0
% es.tEZ (V/m) @ t=0.88
7.379265181906276
% es.Ex (V/m) @ t=0.88
-5.510731115886882
% es.Ey (V/m) @ t=0.88
-0.5951013631183637
% es.Ez (V/m) @ t=0.88
7.379265181906287
% es.tEx (V/m) @ t=0.88
-5.510731115886884
% es.tEy (V/m) @ t=0.88
0
% es.tEz (V/m) @ t=0.88
7.379265181906276
% V (V) @ t=0.88
0.00814602812185985
% es.normE (V/m) @ t=0.9
10.010980554496292
% es.EX (V/m) @ t=0.9
-5.562234540144368
% es.EY (V/m) @ t=0.9
-0.6006517451654723
% es.EZ (V/m) @ t=0.9
7.448213402130068
% es.tEX (V/m) @ t=0.9
-5.56223454014437
% es.tEY (V/m) @ t=0.9
0
% es.tEZ (V/m) @ t=0.9
7.4482134021300554
% es.Ex (V/m) @ t=0.9
-5.562234540144368
% es.Ey (V/m) @ t=0.9
-0.6006517451654723
% es.Ez (V/m) @ t=0.9
7.448213402130068
% es.tEx (V/m) @ t=0.9
-5.56223454014437
% es.tEy (V/m) @ t=0.9
0
% es.tEz (V/m) @ t=0.9
7.4482134021300554
% V (V) @ t=0.9
0.008222122994305928
% es.normE (V/m) @ t=0.92
10.10365558166406
% es.EX (V/m) @ t=0.92
-5.613737964401843
% es.EY (V/m) @ t=0.92
-0.606202127212623
% es.EZ (V/m) @ t=0.92
7.517161622353883
% es.tEX (V/m) @ t=0.92
-5.61373796440186
% es.tEY (V/m) @ t=0.92
0
% es.tEZ (V/m) @ t=0.92
7.517161622353876
% es.Ex (V/m) @ t=0.92
-5.613737964401843
% es.Ey (V/m) @ t=0.92
-0.606202127212623
% es.Ez (V/m) @ t=0.92
7.517161622353883
% es.tEx (V/m) @ t=0.92
-5.61373796440186
% es.tEy (V/m) @ t=0.92
0
% es.tEz (V/m) @ t=0.92
7.517161622353876
% V (V) @ t=0.92
0.008298217866752007
% es.normE (V/m) @ t=0.94
10.196330608867282
% es.EX (V/m) @ t=0.94
-5.665241388659334
% es.EY (V/m) @ t=0.94
-0.6117525092597316
% es.EZ (V/m) @ t=0.94
7.586109842577684
% es.tEX (V/m) @ t=0.94
-5.665241388659333
% es.tEY (V/m) @ t=0.94
0
% es.tEZ (V/m) @ t=0.94
7.58610984257767
% es.Ex (V/m) @ t=0.94
-5.665241388659334
% es.Ey (V/m) @ t=0.94
-0.6117525092597316
% es.Ez (V/m) @ t=0.94
7.586109842577684
% es.tEx (V/m) @ t=0.94
-5.665241388659333
% es.tEy (V/m) @ t=0.94
0
% es.tEz (V/m) @ t=0.94
7.58610984257767
% V (V) @ t=0.94
0.008374312739198088
% es.normE (V/m) @ t=0.96
10.28900563610497
% es.EX (V/m) @ t=0.96
-5.716744812916806
% es.EY (V/m) @ t=0.96
-0.6173028913068475
% es.EZ (V/m) @ t=0.96
7.655058062801478
% es.tEX (V/m) @ t=0.96
-5.716744812916812
% es.tEY (V/m) @ t=0.96
0
% es.tEZ (V/m) @ t=0.96
7.655058062801468
% es.Ex (V/m) @ t=0.96
-5.716744812916806
% es.Ey (V/m) @ t=0.96
-0.6173028913068475
% es.Ez (V/m) @ t=0.96
7.655058062801478
% es.tEx (V/m) @ t=0.96
-5.716744812916812
% es.tEy (V/m) @ t=0.96
0
% es.tEz (V/m) @ t=0.96
7.655058062801468
% V (V) @ t=0.96
0.008450407611644166
% es.normE (V/m) @ t=0.98
10.381680663376262
% es.EX (V/m) @ t=0.98
-5.768248237174276
% es.EY (V/m) @ t=0.98
-0.622853273353956
% es.EZ (V/m) @ t=0.98
7.72400628302529
% es.tEX (V/m) @ t=0.98
-5.7682482371742925
% es.tEY (V/m) @ t=0.98
0
% es.tEZ (V/m) @ t=0.98
7.72400628302528
% es.Ex (V/m) @ t=0.98
-5.768248237174276
% es.Ey (V/m) @ t=0.98
-0.622853273353956
% es.Ez (V/m) @ t=0.98
7.72400628302529
% es.tEx (V/m) @ t=0.98
-5.7682482371742925
% es.tEy (V/m) @ t=0.98
0
% es.tEz (V/m) @ t=0.98
7.72400628302528
% V (V) @ t=0.98
0.008526502484090244
% es.normE (V/m) @ t=1
10.47435569068022
% es.EX (V/m) @ t=1
-5.8197516614317735
% es.EY (V/m) @ t=1
-0.6284036554010854
% es.EZ (V/m) @ t=1
7.7929545032490894
% es.tEX (V/m) @ t=1
-5.819751661431782
% es.tEY (V/m) @ t=1
0
% es.tEZ (V/m) @ t=1
7.792954503249083
% es.Ex (V/m) @ t=1
-5.8197516614317735
% es.Ey (V/m) @ t=1
-0.6284036554010854
% es.Ez (V/m) @ t=1
7.7929545032490894
% es.tEx (V/m) @ t=1
-5.819751661431782
% es.tEy (V/m) @ t=1
0
% es.tEz (V/m) @ t=1
7.792954503249083
% V (V) @ t=1
0.008602597356536323
% es.normE (V/m) @ t=1.02
10.567030718016003
% es.EX (V/m) @ t=1.02
-5.871255085689259
% es.EY (V/m) @ t=1.02
-0.6339540374481998
% es.EZ (V/m) @ t=1.02
7.861902723472896
% es.tEX (V/m) @ t=1.02
-5.871255085689269
% es.tEY (V/m) @ t=1.02
0
% es.tEZ (V/m) @ t=1.02
7.861902723472884
% es.Ex (V/m) @ t=1.02
-5.871255085689259
% es.Ey (V/m) @ t=1.02
-0.6339540374481998
% es.Ez (V/m) @ t=1.02
7.861902723472896
% es.tEx (V/m) @ t=1.02
-5.871255085689269
% es.tEy (V/m) @ t=1.02
0
% es.tEz (V/m) @ t=1.02
7.861902723472884
% V (V) @ t=1.02
0.008678692228982404
% es.normE (V/m) @ t=1.04
10.65970574538278
% es.EX (V/m) @ t=1.04
-5.922758509946735
% es.EY (V/m) @ t=1.04
-0.6395044194953132
% es.EZ (V/m) @ t=1.04
7.930850943696704
% es.tEX (V/m) @ t=1.04
-5.922758509946741
% es.tEY (V/m) @ t=1.04
0
% es.tEZ (V/m) @ t=1.04
7.930850943696697
% es.Ex (V/m) @ t=1.04
-5.922758509946735
% es.Ey (V/m) @ t=1.04
-0.6395044194953132
% es.Ez (V/m) @ t=1.04
7.930850943696704
% es.tEx (V/m) @ t=1.04
-5.922758509946741
% es.tEy (V/m) @ t=1.04
0
% es.tEz (V/m) @ t=1.04
7.930850943696697
% V (V) @ t=1.04