% Model:              1 neuron.mph
% Version:            COMSOL 6.0.0.405
% Date:               Mar 16 2023, 09:45
% Dimension:          0
% Nodes:              14017
% Expressions:        14017
% Description:        Electric field norm, Electric field, X component, Electric field, Y component, Electric field, Z component, Tangential electric field, X component, Tangential electric field, Y component, Tangential electric field, Z component, Electric field, x component, Electric field, y component, Electric field, z component, Tangential electric field, x component, Tangential electric field, y component, Tangential electric field, z component, Electric potential
% Length unit:        mm
% x
2
% y
12.2
% z
1.33
% es.normE (V/m) @ t=0
1.3216569773231295
% es.EX (V/m) @ t=0
-1.215629630549293
% es.EY (V/m) @ t=0
0.09482740306461551
% es.EZ (V/m) @ t=0
0.5084006021921788
% es.tEX (V/m) @ t=0
-1.2156296305492882
% es.tEY (V/m) @ t=0
0
% es.tEZ (V/m) @ t=0
0.5084006021921788
% es.Ex (V/m) @ t=0
-1.215629630549293
% es.Ey (V/m) @ t=0
0.09482740306461551
% es.Ez (V/m) @ t=0
0.5084006021921788
% es.tEx (V/m) @ t=0
-1.2156296305492882
% es.tEy (V/m) @ t=0
0
% es.tEz (V/m) @ t=0
0.5084006021921788
% V (V) @ t=0
0.007379076245780385
% es.normE (V/m) @ t=0.02
1.1415403391102454
% es.EX (V/m) @ t=0.02
-1.0499624969296257
% es.EY (V/m) @ t=0.02
0.0819042378559855
% es.EZ (V/m) @ t=0.02
0.43911529783634345
% es.tEX (V/m) @ t=0.02
-1.0499624969296217
% es.tEY (V/m) @ t=0.02
0
% es.tEZ (V/m) @ t=0.02
0.43911529783634506
% es.Ex (V/m) @ t=0.02
-1.0499624969296257
% es.Ey (V/m) @ t=0.02
0.0819042378559855
% es.Ez (V/m) @ t=0.02
0.43911529783634345
% es.tEx (V/m) @ t=0.02
-1.0499624969296217
% es.tEy (V/m) @ t=0.02
0
% es.tEz (V/m) @ t=0.02
0.43911529783634506
% V (V) @ t=0.02
0.006373448773972473
% es.normE (V/m) @ t=0.04
1.1520401885726168
% es.EX (V/m) @ t=0.04
-1.0596200159544917
% es.EY (V/m) @ t=0.04
0.0826575916401655
% es.EZ (V/m) @ t=0.04
0.44315426657793333
% es.tEX (V/m) @ t=0.04
-1.059620015954489
% es.tEY (V/m) @ t=0.04
0
% es.tEZ (V/m) @ t=0.04
0.4431542665779311
% es.Ex (V/m) @ t=0.04
-1.0596200159544917
% es.Ey (V/m) @ t=0.04
0.0826575916401655
% es.Ez (V/m) @ t=0.04
0.44315426657793333
% es.tEx (V/m) @ t=0.04
-1.059620015954489
% es.tEy (V/m) @ t=0.04
0
% es.tEz (V/m) @ t=0.04
0.4431542665779311
% V (V) @ t=0.04
0.006432071411384861
% es.normE (V/m) @ t=0.06
1.162633409743566
% es.EX (V/m) @ t=0.06
-1.0693634168839297
% es.EY (V/m) @ t=0.06
0.08341764279853092
% es.EZ (V/m) @ t=0.06
0.44722915102668986
% es.tEX (V/m) @ t=0.06
-1.0693634168839248
% es.tEY (V/m) @ t=0.06
0
% es.tEZ (V/m) @ t=0.06
0.4472291510266899
% es.Ex (V/m) @ t=0.06
-1.0693634168839297
% es.Ey (V/m) @ t=0.06
0.08341764279853092
% es.Ez (V/m) @ t=0.06
0.44722915102668986
% es.tEx (V/m) @ t=0.06
-1.0693634168839248
% es.tEy (V/m) @ t=0.06
0
% es.tEz (V/m) @ t=0.06
0.4472291510266899
% V (V) @ t=0.06
0.006491215543307101
% es.normE (V/m) @ t=0.08
1.173391354029704
% es.EX (V/m) @ t=0.08
-1.0792583262467241
% es.EY (V/m) @ t=0.08
0.08418951291314614
% es.EZ (V/m) @ t=0.08
0.4513673995475493
% es.tEX (V/m) @ t=0.08
-1.0792583262467224
% es.tEY (V/m) @ t=0.08
0
% es.tEZ (V/m) @ t=0.08
0.45136739954755356
% es.Ex (V/m) @ t=0.08
-1.0792583262467241
% es.Ey (V/m) @ t=0.08
0.08418951291314614
% es.Ez (V/m) @ t=0.08
0.4513673995475493
% es.tEx (V/m) @ t=0.08
-1.0792583262467224
% es.tEy (V/m) @ t=0.08
0
% es.tEz (V/m) @ t=0.08
0.45136739954755356
% V (V) @ t=0.08
0.006551279334795955
% es.normE (V/m) @ t=0.1
1.1842575275645983
% es.EX (V/m) @ t=0.1
-1.089252782317966
% es.EY (V/m) @ t=0.1
0.08496914852414938
% es.EZ (V/m) @ t=0.1
0.45554728063414757
% es.tEX (V/m) @ t=0.1
-1.0892527823179616
% es.tEY (V/m) @ t=0.1
0
% es.tEZ (V/m) @ t=0.1
0.45554728063414984
% es.Ex (V/m) @ t=0.1
-1.089252782317966
% es.Ey (V/m) @ t=0.1
0.08496914852414938
% es.Ez (V/m) @ t=0.1
0.45554728063414757
% es.tEx (V/m) @ t=0.1
-1.0892527823179616
% es.tEy (V/m) @ t=0.1
0
% es.tEz (V/m) @ t=0.1
0.45554728063414984
% V (V) @ t=0.1
0.006611947377023232
% es.normE (V/m) @ t=0.12
1.1951237010994893
% es.EX (V/m) @ t=0.12
-1.099247238389204
% es.EY (V/m) @ t=0.12
0.08574878413514997
% es.EZ (V/m) @ t=0.12
0.4597271617207476
% es.tEX (V/m) @ t=0.12
-1.0992472383891974
% es.tEY (V/m) @ t=0.12
0
% es.tEZ (V/m) @ t=0.12
0.4597271617207461
% es.Ex (V/m) @ t=0.12
-1.099247238389204
% es.Ey (V/m) @ t=0.12
0.08574878413514997
% es.Ez (V/m) @ t=0.12
0.4597271617207476
% es.tEx (V/m) @ t=0.12
-1.0992472383891974
% es.tEy (V/m) @ t=0.12
0
% es.tEz (V/m) @ t=0.12
0.4597271617207461
% V (V) @ t=0.12
0.00667261541925051
% es.normE (V/m) @ t=0.14
1.206115111785615
% es.EX (V/m) @ t=0.14
-1.1093568847714899
% es.EY (V/m) @ t=0.14
0.08653740518906405
% es.EZ (V/m) @ t=0.14
0.46395521754212593
% es.tEX (V/m) @ t=0.14
-1.109356884771488
% es.tEY (V/m) @ t=0.14
0
% es.tEZ (V/m) @ t=0.14
0.4639552175421322
% es.Ex (V/m) @ t=0.14
-1.1093568847714899
% es.Ey (V/m) @ t=0.14
0.08653740518906405
% es.Ez (V/m) @ t=0.14
0.46395521754212593
% es.tEx (V/m) @ t=0.14
-1.109356884771488
% es.tEy (V/m) @ t=0.14
0
% es.tEz (V/m) @ t=0.14
0.4639552175421322
% V (V) @ t=0.14
0.006733982701673463
% es.normE (V/m) @ t=0.16
1.2175586944144807
% es.EX (V/m) @ t=0.16
-1.1198824287226472
% es.EY (V/m) @ t=0.16
0.0873584684147452
% es.EZ (V/m) @ t=0.16
0.4683572094775288
% es.tEX (V/m) @ t=0.16
-1.1198824287226419
% es.tEY (V/m) @ t=0.16
0
% es.tEZ (V/m) @ t=0.16
0.46835720947752435
% es.Ex (V/m) @ t=0.16
-1.1198824287226472
% es.Ey (V/m) @ t=0.16
0.0873584684147452
% es.Ez (V/m) @ t=0.16
0.4683572094775288
% es.tEx (V/m) @ t=0.16
-1.1198824287226419
% es.tEy (V/m) @ t=0.16
0
% es.tEz (V/m) @ t=0.16
0.46835720947752435
% V (V) @ t=0.16
0.006797874608735441
% es.normE (V/m) @ t=0.18
1.2290022770433575
% es.EX (V/m) @ t=0.18
-1.130407972673816
% es.EY (V/m) @ t=0.18
0.08817953164041842
% es.EZ (V/m) @ t=0.18
0.4727592014129342
% es.tEX (V/m) @ t=0.18
-1.1304079726738117
% es.tEY (V/m) @ t=0.18
0
% es.tEZ (V/m) @ t=0.18
0.47275920141293426
% es.Ex (V/m) @ t=0.18
-1.130407972673816
% es.Ey (V/m) @ t=0.18
0.08817953164041842
% es.Ez (V/m) @ t=0.18
0.4727592014129342
% es.tEx (V/m) @ t=0.18
-1.1304079726738117
% es.tEy (V/m) @ t=0.18
0
% es.tEz (V/m) @ t=0.18
0.47275920141293426
% V (V) @ t=0.18
0.006861766515797418
% es.normE (V/m) @ t=0.2
1.2404458596722288
% es.EX (V/m) @ t=0.2
-1.1409335166249788
% es.EY (V/m) @ t=0.2
0.08900059486609518
% es.EZ (V/m) @ t=0.2
0.4771611933483397
% es.tEX (V/m) @ t=0.2
-1.1409335166249752
% es.tEY (V/m) @ t=0.2
0
% es.tEZ (V/m) @ t=0.2
0.4771611933483406
% es.Ex (V/m) @ t=0.2
-1.1409335166249788
% es.Ey (V/m) @ t=0.2
0.08900059486609518
% es.Ez (V/m) @ t=0.2
0.4771611933483397
% es.tEx (V/m) @ t=0.2
-1.1409335166249752
% es.tEy (V/m) @ t=0.2
0
% es.tEz (V/m) @ t=0.2
0.4771611933483406
% V (V) @ t=0.2
0.006925658422859394
% es.normE (V/m) @ t=0.22
1.251889442301089
% es.EX (V/m) @ t=0.22
-1.1514590605761352
% es.EY (V/m) @ t=0.22
0.08982165809176751
% es.EZ (V/m) @ t=0.22
0.4815631852837318
% es.tEX (V/m) @ t=0.22
-1.1514590605761281
% es.tEY (V/m) @ t=0.22
0
% es.tEZ (V/m) @ t=0.22
0.48156318528373276
% es.Ex (V/m) @ t=0.22
-1.1514590605761352
% es.Ey (V/m) @ t=0.22
0.08982165809176751
% es.Ez (V/m) @ t=0.22
0.4815631852837318
% es.tEx (V/m) @ t=0.22
-1.1514590605761281
% es.tEy (V/m) @ t=0.22
0
% es.tEz (V/m) @ t=0.22
0.48156318528373276
% V (V) @ t=0.22
0.006989550329921372
% es.normE (V/m) @ t=0.24
1.2633330249299681
% es.EX (V/m) @ t=0.24
-1.161984604527305
% es.EY (V/m) @ t=0.24
0.09064272131744694
% es.EZ (V/m) @ t=0.24
0.48596517721913984
% es.tEX (V/m) @ t=0.24
-1.1619846045272997
% es.tEY (V/m) @ t=0.24
0
% es.tEZ (V/m) @ t=0.24
0.48596517721913557
% es.Ex (V/m) @ t=0.24
-1.161984604527305
% es.Ey (V/m) @ t=0.24
0.09064272131744694
% es.Ez (V/m) @ t=0.24
0.48596517721913984
% es.tEx (V/m) @ t=0.24
-1.1619846045272997
% es.tEy (V/m) @ t=0.24
0
% es.tEz (V/m) @ t=0.24
0.48596517721913557
% V (V) @ t=0.24
0.00705344223698335
% es.normE (V/m) @ t=0.26
1.274776607558837
% es.EX (V/m) @ t=0.26
-1.1725101484784646
% es.EY (V/m) @ t=0.26
0.09146378454311838
% es.EZ (V/m) @ t=0.26
0.4903671691545471
% es.tEX (V/m) @ t=0.26
-1.1725101484784588
% es.tEY (V/m) @ t=0.26
0
% es.tEZ (V/m) @ t=0.26
0.49036716915454903
% es.Ex (V/m) @ t=0.26
-1.1725101484784646
% es.Ey (V/m) @ t=0.26
0.09146378454311838
% es.Ez (V/m) @ t=0.26
0.4903671691545471
% es.tEx (V/m) @ t=0.26
-1.1725101484784588
% es.tEy (V/m) @ t=0.26
0
% es.tEz (V/m) @ t=0.26
0.49036716915454903
% V (V) @ t=0.26
0.007117334144045326
% es.normE (V/m) @ t=0.28
1.2867964736627722
% es.EX (V/m) @ t=0.28
-1.1835657867567582
% es.EY (V/m) @ t=0.28
0.09232608714111867
% es.EZ (V/m) @ t=0.28
0.4949907562368648
% es.tEX (V/m) @ t=0.28
-1.1835657867567546
% es.tEY (V/m) @ t=0.28
0
% es.tEZ (V/m) @ t=0.28
0.49499075623686295
% es.Ex (V/m) @ t=0.28
-1.1835657867567582
% es.Ey (V/m) @ t=0.28
0.09232608714111867
% es.Ez (V/m) @ t=0.28
0.4949907562368648
% es.tEx (V/m) @ t=0.28
-1.1835657867567546
% es.tEy (V/m) @ t=0.28
0
% es.tEz (V/m) @ t=0.28
0.49499075623686295
% V (V) @ t=0.28
0.007184453606674162
% es.normE (V/m) @ t=0.3
1.2995388354473816
% es.EX (V/m) @ t=0.3
-1.1952860126524962
% es.EY (V/m) @ t=0.3
0.09324009219055729
% es.EZ (V/m) @ t=0.3
0.4998921606494076
% es.tEX (V/m) @ t=0.3
-1.1952860126524918
% es.tEY (V/m) @ t=0.3
0
% es.tEZ (V/m) @ t=0.3
0.49989216064940933
% es.Ex (V/m) @ t=0.3
-1.1952860126524962
% es.Ey (V/m) @ t=0.3
0.09324009219055729
% es.Ez (V/m) @ t=0.3
0.4998921606494076
% es.tEx (V/m) @ t=0.3
-1.1952860126524918
% es.tEy (V/m) @ t=0.3
0
% es.tEz (V/m) @ t=0.3
0.49989216064940933
% V (V) @ t=0.3
0.00725561950661528
% es.normE (V/m) @ t=0.32
1.312281197232076
% es.EX (V/m) @ t=0.32
-1.2070062385482374
% es.EY (V/m) @ t=0.32
0.09415409723998436
% es.EZ (V/m) @ t=0.32
0.5047935650619495
% es.tEX (V/m) @ t=0.32
-1.2070062385482316
% es.tEY (V/m) @ t=0.32
0
% es.tEZ (V/m) @ t=0.32
0.5047935650619522
% es.Ex (V/m) @ t=0.32
-1.2070062385482374
% es.Ey (V/m) @ t=0.32
0.09415409723998436
% es.Ez (V/m) @ t=0.32
0.5047935650619495
% es.tEx (V/m) @ t=0.32
-1.2070062385482316
% es.tEy (V/m) @ t=0.32
0
% es.tEz (V/m) @ t=0.32
0.5047935650619522
% V (V) @ t=0.32
0.007326785406556397
% es.normE (V/m) @ t=0.34
1.3250235590168478
% es.EX (V/m) @ t=0.34
-1.2187264644439733
% es.EY (V/m) @ t=0.34
0.09506810228941498
% es.EZ (V/m) @ t=0.34
0.5096949694744932
% es.tEX (V/m) @ t=0.34
-1.218726464443968
% es.tEY (V/m) @ t=0.34
0
% es.tEZ (V/m) @ t=0.34
0.5096949694744914
% es.Ex (V/m) @ t=0.34
-1.2187264644439733
% es.Ey (V/m) @ t=0.34
0.09506810228941498
% es.Ez (V/m) @ t=0.34
0.5096949694744932
% es.tEx (V/m) @ t=0.34
-1.218726464443968
% es.tEy (V/m) @ t=0.34
0
% es.tEz (V/m) @ t=0.34
0.5096949694744914
% V (V) @ t=0.34
0.007397951306497514
% es.normE (V/m) @ t=0.36
1.3377659208017034
% es.EX (V/m) @ t=0.36
-1.2304466903397158
% es.EY (V/m) @ t=0.36
0.09598210733884915
% es.EZ (V/m) @ t=0.36
0.5145963738870334
% es.tEX (V/m) @ t=0.36
-1.2304466903397087
% es.tEY (V/m) @ t=0.36
0
% es.tEZ (V/m) @ t=0.36
0.5145963738870378
% es.Ex (V/m) @ t=0.36
-1.2304466903397158
% es.Ey (V/m) @ t=0.36
0.09598210733884915
% es.Ez (V/m) @ t=0.36
0.5145963738870334
% es.tEx (V/m) @ t=0.36
-1.2304466903397087
% es.tEy (V/m) @ t=0.36
0
% es.tEz (V/m) @ t=0.36
0.5145963738870378
% V (V) @ t=0.36
0.007469117206438632
% es.normE (V/m) @ t=0.38
1.3505082825866355
% es.EX (V/m) @ t=0.38
-1.242166916235453
% es.EY (V/m) @ t=0.38
0.09689611238828061
% es.EZ (V/m) @ t=0.38
0.5194977782995851
% es.tEX (V/m) @ t=0.38
-1.2421669162354485
% es.tEY (V/m) @ t=0.38
0
% es.tEZ (V/m) @ t=0.38
0.5194977782995842
% es.Ex (V/m) @ t=0.38
-1.242166916235453
% es.Ey (V/m) @ t=0.38
0.09689611238828061
% es.Ez (V/m) @ t=0.38
0.5194977782995851
% es.tEx (V/m) @ t=0.38
-1.2421669162354485
% es.tEy (V/m) @ t=0.38
0
% es.tEz (V/m) @ t=0.38
0.5194977782995842
% V (V) @ t=0.38
0.007540283106379748
% es.normE (V/m) @ t=0.4
1.363250644371636
% es.EX (V/m) @ t=0.4
-1.2538871421311888
% es.EY (V/m) @ t=0.4
0.09781011743771745
% es.EZ (V/m) @ t=0.4
0.5243991827121235
% es.tEX (V/m) @ t=0.4
-1.253887142131184
% es.tEY (V/m) @ t=0.4
0
% es.tEZ (V/m) @ t=0.4
0.524399182712127
% es.Ex (V/m) @ t=0.4
-1.2538871421311888
% es.Ey (V/m) @ t=0.4
0.09781011743771745
% es.Ez (V/m) @ t=0.4
0.5243991827121235
% es.tEx (V/m) @ t=0.4
-1.253887142131184
% es.tEy (V/m) @ t=0.4
0
% es.tEz (V/m) @ t=0.4
0.524399182712127
% V (V) @ t=0.4
0.007611449006320866
% es.normE (V/m) @ t=0.42
1.3759930061567163
% es.EX (V/m) @ t=0.42
-1.26560736802693
% es.EY (V/m) @ t=0.42
0.09872412248714546
% es.EZ (V/m) @ t=0.42
0.5293005871246698
% es.tEX (V/m) @ t=0.42
-1.265607368026922
% es.tEY (V/m) @ t=0.42
0
% es.tEZ (V/m) @ t=0.42
0.5293005871246699
% es.Ex (V/m) @ t=0.42
-1.26560736802693
% es.Ey (V/m) @ t=0.42
0.09872412248714546
% es.Ez (V/m) @ t=0.42
0.5293005871246698
% es.tEx (V/m) @ t=0.42
-1.265607368026922
% es.tEy (V/m) @ t=0.42
0
% es.tEz (V/m) @ t=0.42
0.5293005871246699
% V (V) @ t=0.42
0.007682614906261983
% es.normE (V/m) @ t=0.44
1.3887353679418568
% es.EX (V/m) @ t=0.44
-1.2773275939226623
% es.EY (V/m) @ t=0.44
0.09963812753657247
% es.EZ (V/m) @ t=0.44
0.5342019915372116
% es.tEX (V/m) @ t=0.44
-1.2773275939226574
% es.tEY (V/m) @ t=0.44
0
% es.tEZ (V/m) @ t=0.44
0.5342019915372092
% es.Ex (V/m) @ t=0.44
-1.2773275939226623
% es.Ey (V/m) @ t=0.44
0.09963812753657247
% es.Ez (V/m) @ t=0.44
0.5342019915372116
% es.tEx (V/m) @ t=0.44
-1.2773275939226574
% es.tEy (V/m) @ t=0.44
0
% es.tEz (V/m) @ t=0.44
0.5342019915372092
% V (V) @ t=0.44
0.007753780806203099
% es.normE (V/m) @ t=0.46
1.40147772972707
% es.EX (V/m) @ t=0.46
-1.2890478198184003
% es.EY (V/m) @ t=0.46
0.10055213258600487
% es.EZ (V/m) @ t=0.46
0.5391033959497491
% es.tEX (V/m) @ t=0.46
-1.2890478198183954
% es.tEY (V/m) @ t=0.46
0
% es.tEZ (V/m) @ t=0.46
0.5391033959497484
% es.Ex (V/m) @ t=0.46
-1.2890478198184003
% es.Ey (V/m) @ t=0.46
0.10055213258600487
% es.Ez (V/m) @ t=0.46
0.5391033959497491
% es.tEx (V/m) @ t=0.46
-1.2890478198183954
% es.tEy (V/m) @ t=0.46
0
% es.tEz (V/m) @ t=0.46
0.5391033959497484
% V (V) @ t=0.46
0.007824946706144217
% es.normE (V/m) @ t=0.48
1.4142200915123566
% es.EX (V/m) @ t=0.48
-1.3007680457141406
% es.EY (V/m) @ t=0.48
0.1014661376354381
% es.EZ (V/m) @ t=0.48
0.544004800362299
% es.tEX (V/m) @ t=0.48
-1.3007680457141344
% es.tEY (V/m) @ t=0.48
0
% es.tEZ (V/m) @ t=0.48
0.5440048003622984
% es.Ex (V/m) @ t=0.48
-1.3007680457141406
% es.Ey (V/m) @ t=0.48
0.1014661376354381
% es.Ez (V/m) @ t=0.48
0.544004800362299
% es.tEx (V/m) @ t=0.48
-1.3007680457141344
% es.tEy (V/m) @ t=0.48
0
% es.tEz (V/m) @ t=0.48
0.5440048003622984
% V (V) @ t=0.48
0.007896112606085335
% es.normE (V/m) @ t=0.5
1.4269624532977017
% es.EX (V/m) @ t=0.5
-1.312488271609877
% es.EY (V/m) @ t=0.5
0.10238014268488382
% es.EZ (V/m) @ t=0.5
0.5489062047748383
% es.tEX (V/m) @ t=0.5
-1.3124882716098707
% es.tEY (V/m) @ t=0.5
0
% es.tEZ (V/m) @ t=0.5
0.5489062047748376
% es.Ex (V/m) @ t=0.5
-1.312488271609877
% es.Ey (V/m) @ t=0.5
0.10238014268488382
% es.Ez (V/m) @ t=0.5
0.5489062047748383
% es.tEx (V/m) @ t=0.5
-1.3124882716098707
% es.tEy (V/m) @ t=0.5
0
% es.tEz (V/m) @ t=0.5
0.5489062047748376
% V (V) @ t=0.5
0.007967278506026451
% es.normE (V/m) @ t=0.52
1.439704815083114
% es.EX (V/m) @ t=0.52
-1.3242084975056199
% es.EY (V/m) @ t=0.52
0.10329414773430468
% es.EZ (V/m) @ t=0.52
0.5538076091873776
% es.tEX (V/m) @ t=0.52
-1.3242084975056123
% es.tEY (V/m) @ t=0.52
0
% es.tEZ (V/m) @ t=0.52
0.5538076091873805
% es.Ex (V/m) @ t=0.52
-1.3242084975056199
% es.Ey (V/m) @ t=0.52
0.10329414773430468
% es.Ez (V/m) @ t=0.52
0.5538076091873776
% es.tEx (V/m) @ t=0.52
-1.3242084975056123
% es.tEy (V/m) @ t=0.52
0
% es.tEz (V/m) @ t=0.52
0.5538076091873805
% V (V) @ t=0.52
0.008038444405967569
% es.normE (V/m) @ t=0.54
1.4524471768685845
% es.EX (V/m) @ t=0.54
-1.3359287234013557
% es.EY (V/m) @ t=0.54
0.10420815278373613
% es.EZ (V/m) @ t=0.54
0.5587090135999231
% es.tEX (V/m) @ t=0.54
-1.3359287234013468
% es.tEY (V/m) @ t=0.54
0
% es.tEZ (V/m) @ t=0.54
0.5587090135999233
% es.Ex (V/m) @ t=0.54
-1.3359287234013557
% es.Ey (V/m) @ t=0.54
0.10420815278373613
% es.Ez (V/m) @ t=0.54
0.5587090135999231
% es.tEx (V/m) @ t=0.54
-1.3359287234013468
% es.tEy (V/m) @ t=0.54
0
% es.tEz (V/m) @ t=0.54
0.5587090135999233
% V (V) @ t=0.54
0.008109610305908685
% es.normE (V/m) @ t=0.56
1.4665094213530359
% es.EX (V/m) @ t=0.56
-1.3488629637265737
% es.EY (V/m) @ t=0.56
0.10521681437803698
% es.EZ (V/m) @ t=0.56
0.5641181030043823
% es.tEX (V/m) @ t=0.56
-1.3488629637265657
% es.tEY (V/m) @ t=0.56
0
% es.tEZ (V/m) @ t=0.56
0.5641181030043789
% es.Ex (V/m) @ t=0.56
-1.3488629637265737
% es.Ey (V/m) @ t=0.56
0.10521681437803698
% es.Ez (V/m) @ t=0.56
0.5641181030043823
% es.tEx (V/m) @ t=0.56
-1.3488629637265657
% es.tEy (V/m) @ t=0.56
0
% es.tEz (V/m) @ t=0.56
0.5641181030043789
% V (V) @ t=0.56
0.008188149362457245
% es.normE (V/m) @ t=0.58
1.4807226585434807
% es.EX (V/m) @ t=0.58
-1.3619360855780598
% es.EY (V/m) @ t=0.58
0.10623630454660127
% es.EZ (V/m) @ t=0.58
0.5695852708507712
% es.tEX (V/m) @ t=0.58
-1.3619360855780513
% es.tEY (V/m) @ t=0.58
0
% es.tEZ (V/m) @ t=0.58
0.5695852708507658
% es.Ex (V/m) @ t=0.58
-1.3619360855780598
% es.Ey (V/m) @ t=0.58
0.10623630454660127
% es.Ez (V/m) @ t=0.58
0.5695852708507712
% es.tEx (V/m) @ t=0.58
-1.3619360855780513
% es.tEy (V/m) @ t=0.58
0
% es.tEz (V/m) @ t=0.58
0.5695852708507658
% V (V) @ t=0.58
0.00826753189764836
% es.normE (V/m) @ t=0.6
1.4949358957339995
% es.EX (V/m) @ t=0.6
-1.375009207429537
% es.EY (V/m) @ t=0.6
0.1072557947151922
% es.EZ (V/m) @ t=0.6
0.5750524386971543
% es.tEX (V/m) @ t=0.6
-1.37500920742953
% es.tEY (V/m) @ t=0.6
0
% es.tEZ (V/m) @ t=0.6
0.5750524386971527
% es.Ex (V/m) @ t=0.6
-1.375009207429537
% es.Ey (V/m) @ t=0.6
0.1072557947151922
% es.Ez (V/m) @ t=0.6
0.5750524386971543
% es.tEx (V/m) @ t=0.6
-1.37500920742953
% es.tEy (V/m) @ t=0.6
0
% es.tEz (V/m) @ t=0.6
0.5750524386971527
% V (V) @ t=0.6
0.008346914432839475
% es.normE (V/m) @ t=0.62
1.5091491329246152
% es.EX (V/m) @ t=0.62
-1.3880823292810327
% es.EY (V/m) @ t=0.62
0.1082752848837672
% es.EZ (V/m) @ t=0.62
0.5805196065435396
% es.tEX (V/m) @ t=0.62
-1.388082329281028
% es.tEY (V/m) @ t=0.62
0
% es.tEZ (V/m) @ t=0.62
0.5805196065435396
% es.Ex (V/m) @ t=0.62
-1.3880823292810327
% es.Ey (V/m) @ t=0.62
0.1082752848837672
% es.Ez (V/m) @ t=0.62
0.5805196065435396
% es.tEx (V/m) @ t=0.62
-1.388082329281028
% es.tEy (V/m) @ t=0.62
0
% es.tEz (V/m) @ t=0.62
0.5805196065435396
% V (V) @ t=0.62
0.00842629696803059
% es.normE (V/m) @ t=0.64
1.5233623701152994
% es.EX (V/m) @ t=0.64
-1.4011554511325173
% es.EY (V/m) @ t=0.64
0.10929477505234031
% es.EZ (V/m) @ t=0.64
0.5859867743899271
% es.tEX (V/m) @ t=0.64
-1.401155451132512
% es.tEY (V/m) @ t=0.64
0
% es.tEZ (V/m) @ t=0.64
0.585986774389923
% es.Ex (V/m) @ t=0.64
-1.4011554511325173
% es.Ey (V/m) @ t=0.64
0.10929477505234031
% es.Ez (V/m) @ t=0.64
0.5859867743899271
% es.tEx (V/m) @ t=0.64
-1.401155451132512
% es.tEy (V/m) @ t=0.64
0
% es.tEz (V/m) @ t=0.64
0.585986774389923
% V (V) @ t=0.64
0.008505679503221706
% es.normE (V/m) @ t=0.66
1.537575607306069
% es.EX (V/m) @ t=0.66
-1.4142285729840098
% es.EY (V/m) @ t=0.66
0.11031426522092064
% es.EZ (V/m) @ t=0.66
0.5914539422363179
% es.tEX (V/m) @ t=0.66
-1.4142285729840012
% es.tEY (V/m) @ t=0.66
0
% es.tEZ (V/m) @ t=0.66
0.591453942236317
% es.Ex (V/m) @ t=0.66
-1.4142285729840098
% es.Ey (V/m) @ t=0.66
0.11031426522092064
% es.Ez (V/m) @ t=0.66
0.5914539422363179
% es.tEx (V/m) @ t=0.66
-1.4142285729840012
% es.tEy (V/m) @ t=0.66
0
% es.tEz (V/m) @ t=0.66
0.591453942236317
% V (V) @ t=0.66
0.008585062038412822
% es.normE (V/m) @ t=0.68
1.551788844496896
% es.EX (V/m) @ t=0.68
-1.4273016948354915
% es.EY (V/m) @ t=0.68
0.11133375538949558
% es.EZ (V/m) @ t=0.68
0.5969211100826946
% es.tEX (V/m) @ t=0.68
-1.4273016948354815
% es.tEY (V/m) @ t=0.68
0
% es.tEZ (V/m) @ t=0.68
0.5969211100826968
% es.Ex (V/m) @ t=0.68
-1.4273016948354915
% es.Ey (V/m) @ t=0.68
0.11133375538949558
% es.Ez (V/m) @ t=0.68
0.5969211100826946
% es.tEx (V/m) @ t=0.68
-1.4273016948354815
% es.tEy (V/m) @ t=0.68
0
% es.tEz (V/m) @ t=0.68
0.5969211100826968
% V (V) @ t=0.68
0.008664444573603937
% es.normE (V/m) @ t=0.7
1.5660020816878002
% es.EX (V/m) @ t=0.7
-1.4403748166869752
% es.EY (V/m) @ t=0.7
0.11235324555807236
% es.EZ (V/m) @ t=0.7
0.6023882779290781
% es.tEX (V/m) @ t=0.7
-1.4403748166869654
% es.tEY (V/m) @ t=0.7
0
% es.tEZ (V/m) @ t=0.7
0.6023882779290801
% es.Ex (V/m) @ t=0.7
-1.4403748166869752
% es.Ey (V/m) @ t=0.7
0.11235324555807236
% es.Ez (V/m) @ t=0.7
0.6023882779290781
% es.tEx (V/m) @ t=0.7
-1.4403748166869654
% es.tEy (V/m) @ t=0.7
0
% es.tEz (V/m) @ t=0.7
0.6023882779290801
% V (V) @ t=0.7
0.00874382710879505
% es.normE (V/m) @ t=0.72
1.5802153188787726
% es.EX (V/m) @ t=0.72
-1.4534479385384567
% es.EY (V/m) @ t=0.72
0.11337273572664552
% es.EZ (V/m) @ t=0.72
0.6078554457754657
% es.tEX (V/m) @ t=0.72
-1.4534479385384458
% es.tEY (V/m) @ t=0.72
0
% es.tEZ (V/m) @ t=0.72
0.6078554457754635
% es.Ex (V/m) @ t=0.72
-1.4534479385384567
% es.Ey (V/m) @ t=0.72
0.11337273572664552
% es.Ez (V/m) @ t=0.72
0.6078554457754657
% es.tEx (V/m) @ t=0.72
-1.4534479385384458
% es.tEy (V/m) @ t=0.72
0
% es.tEz (V/m) @ t=0.72
0.6078554457754635
% V (V) @ t=0.72
0.008823209643986165
% es.normE (V/m) @ t=0.74
1.5944285560698161
% es.EX (V/m) @ t=0.74
-1.4665210603899421
% es.EY (V/m) @ t=0.74
0.11439222589522224
% es.EZ (V/m) @ t=0.74
0.6133226136218493
% es.tEX (V/m) @ t=0.74
-1.4665210603899332
% es.tEY (V/m) @ t=0.74
0
% es.tEZ (V/m) @ t=0.74
0.6133226136218433
% es.Ex (V/m) @ t=0.74
-1.4665210603899421
% es.Ey (V/m) @ t=0.74
0.11439222589522224
% es.Ez (V/m) @ t=0.74
0.6133226136218493
% es.tEx (V/m) @ t=0.74
-1.4665210603899332
% es.tEy (V/m) @ t=0.74
0
% es.tEz (V/m) @ t=0.74
0.6133226136218433
% V (V) @ t=0.74
0.008902592179177281
% es.normE (V/m) @ t=0.76
1.6086417932609272
% es.EX (V/m) @ t=0.76
-1.4795941822414262
% es.EY (V/m) @ t=0.76
0.11541171606380074
% es.EZ (V/m) @ t=0.76
0.6187897814682403
% es.tEX (V/m) @ t=0.76
-1.479594182241426
% es.tEY (V/m) @ t=0.76
0
% es.tEZ (V/m) @ t=0.76
0.6187897814682373
% es.Ex (V/m) @ t=0.76
-1.4795941822414262
% es.Ey (V/m) @ t=0.76
0.11541171606380074
% es.Ez (V/m) @ t=0.76
0.6187897814682403
% es.tEx (V/m) @ t=0.76
-1.479594182241426
% es.tEy (V/m) @ t=0.76
0
% es.tEz (V/m) @ t=0.76
0.6187897814682373
% V (V) @ t=0.76
0.008981974714368398
% es.normE (V/m) @ t=0.78
1.622855030452107
% es.EX (V/m) @ t=0.78
-1.4926673040929173
% es.EY (V/m) @ t=0.78
0.11643120623238462
% es.EZ (V/m) @ t=0.78
0.6242569493146257
% es.tEX (V/m) @ t=0.78
-1.49266730409291
% es.tEY (V/m) @ t=0.78
0
% es.tEZ (V/m) @ t=0.78
0.6242569493146206
% es.Ex (V/m) @ t=0.78
-1.4926673040929173
% es.Ey (V/m) @ t=0.78
0.11643120623238462
% es.Ez (V/m) @ t=0.78
0.6242569493146257
% es.tEx (V/m) @ t=0.78
-1.49266730409291
% es.tEy (V/m) @ t=0.78
0
% es.tEz (V/m) @ t=0.78
0.6242569493146206
% V (V) @ t=0.78
0.009061357249559511
% es.normE (V/m) @ t=0.8
1.6370682676433397
% es.EX (V/m) @ t=0.8
-1.505740425944401
% es.EY (V/m) @ t=0.8
0.11745069640095779
% es.EZ (V/m) @ t=0.8
0.6297241171610042
% es.tEX (V/m) @ t=0.8
-1.5057404259443938
% es.tEY (V/m) @ t=0.8
0
% es.tEZ (V/m) @ t=0.8
0.629724117161004
% es.Ex (V/m) @ t=0.8
-1.505740425944401
% es.Ey (V/m) @ t=0.8
0.11745069640095779
% es.Ez (V/m) @ t=0.8
0.6297241171610042
% es.tEx (V/m) @ t=0.8
-1.5057404259443938
% es.tEy (V/m) @ t=0.8
0
% es.tEz (V/m) @ t=0.8
0.629724117161004
% V (V) @ t=0.8
0.009140739784750626
% es.normE (V/m) @ t=0.82
1.651866907608957
% es.EX (V/m) @ t=0.82
-1.519351917709823
% es.EY (V/m) @ t=0.82
0.1185123692766809
% es.EZ (V/m) @ t=0.82
0.6354166100833448
% es.tEX (V/m) @ t=0.82
-1.519351917709816
% es.tEY (V/m) @ t=0.82
0
% es.tEZ (V/m) @ t=0.82
0.6354166100833467
% es.Ex (V/m) @ t=0.82
-1.519351917709823
% es.Ey (V/m) @ t=0.82
0.1185123692766809
% es.Ez (V/m) @ t=0.82
0.6354166100833448
% es.tEx (V/m) @ t=0.82
-1.519351917709816
% es.tEy (V/m) @ t=0.82
0
% es.tEz (V/m) @ t=0.82
0.6354166100833467
% V (V) @ t=0.82
0.009223374007879766
% es.normE (V/m) @ t=0.84
1.6677480619145135
% es.EX (V/m) @ t=0.84
-1.5339589516515972
% es.EY (V/m) @ t=0.84
0.11965204551585162
% es.EZ (V/m) @ t=0.84
0.6415257693361842
% es.tEX (V/m) @ t=0.84
-1.5339589516515897
% es.tEY (V/m) @ t=0.84
0
% es.tEZ (V/m) @ t=0.84
0.6415257693361909
% es.Ex (V/m) @ t=0.84
-1.5339589516515972
% es.Ey (V/m) @ t=0.84
0.11965204551585162
% es.Ez (V/m) @ t=0.84
0.6415257693361842
% es.tEx (V/m) @ t=0.84
-1.5339589516515897
% es.tEy (V/m) @ t=0.84
0
% es.tEz (V/m) @ t=0.84
0.6415257693361909
% V (V) @ t=0.84
0.009312021183075801
% es.normE (V/m) @ t=0.86
1.683629216220166
% es.EX (V/m) @ t=0.86
-1.5485659855933767
% es.EY (V/m) @ t=0.86
0.12079172175504199
% es.EZ (V/m) @ t=0.86
0.6476349285890162
% es.tEX (V/m) @ t=0.86
-1.5485659855933704
% es.tEY (V/m) @ t=0.86
0
% es.tEZ (V/m) @ t=0.86
0.6476349285890208
% es.Ex (V/m) @ t=0.86
-1.5485659855933767
% es.Ey (V/m) @ t=0.86
0.12079172175504199
% es.Ez (V/m) @ t=0.86
0.6476349285890162
% es.tEx (V/m) @ t=0.86
-1.5485659855933704
% es.tEy (V/m) @ t=0.86
0
% es.tEz (V/m) @ t=0.86
0.6476349285890208
% V (V) @ t=0.86
0.00940066835827184
% es.normE (V/m) @ t=0.88
1.699510370525914
% es.EX (V/m) @ t=0.88
-1.5631730195351607
% es.EY (V/m) @ t=0.88
0.12193139799421804
% es.EZ (V/m) @ t=0.88
0.6537440878418554
% es.tEX (V/m) @ t=0.88
-1.5631730195351476
% es.tEY (V/m) @ t=0.88
0
% es.tEZ (V/m) @ t=0.88
0.6537440878418543
% es.Ex (V/m) @ t=0.88
-1.5631730195351607
% es.Ey (V/m) @ t=0.88
0.12193139799421804
% es.Ez (V/m) @ t=0.88
0.6537440878418554
% es.tEx (V/m) @ t=0.88
-1.5631730195351476
% es.tEy (V/m) @ t=0.88
0
% es.tEz (V/m) @ t=0.88
0.6537440878418543
% V (V) @ t=0.88
0.00948931553346788
% es.normE (V/m) @ t=0.9
1.7153915248317466
% es.EX (V/m) @ t=0.9
-1.5777800534769335
% es.EY (V/m) @ t=0.9
0.12307107423341895
% es.EZ (V/m) @ t=0.9
0.6598532470947072
% es.tEX (V/m) @ t=0.9
-1.577780053476932
% es.tEY (V/m) @ t=0.9
0
% es.tEZ (V/m) @ t=0.9
0.6598532470947056
% es.Ex (V/m) @ t=0.9
-1.5777800534769335
% es.Ey (V/m) @ t=0.9
0.12307107423341895
% es.Ez (V/m) @ t=0.9
0.6598532470947072
% es.tEx (V/m) @ t=0.9
-1.577780053476932
% es.tEy (V/m) @ t=0.9
0
% es.tEz (V/m) @ t=0.9
0.6598532470947056
% V (V) @ t=0.9
0.009577962708663918
% es.normE (V/m) @ t=0.92
1.7312726791376574
% es.EX (V/m) @ t=0.92
-1.5923870874187132
% es.EY (V/m) @ t=0.92
0.124210750472595
% es.EZ (V/m) @ t=0.92
0.6659624063475323
% es.tEX (V/m) @ t=0.92
-1.5923870874187056
% es.tEY (V/m) @ t=0.92
0
% es.tEZ (V/m) @ t=0.92
0.6659624063475356
% es.Ex (V/m) @ t=0.92
-1.5923870874187132
% es.Ey (V/m) @ t=0.92
0.124210750472595
% es.Ez (V/m) @ t=0.92
0.6659624063475323
% es.tEx (V/m) @ t=0.92
-1.5923870874187056
% es.tEy (V/m) @ t=0.92
0
% es.tEz (V/m) @ t=0.92
0.6659624063475356
% V (V) @ t=0.92
0.009666609883859955
% es.normE (V/m) @ t=0.94
1.7471538334436707
% es.EX (V/m) @ t=0.94
-1.6069941213605023
% es.EY (V/m) @ t=0.94
0.1253504267117871
% es.EZ (V/m) @ t=0.94
0.6720715656003804
% es.tEX (V/m) @ t=0.94
-1.6069941213604935
% es.tEY (V/m) @ t=0.94
0
% es.tEZ (V/m) @ t=0.94
0.6720715656003797
% es.Ex (V/m) @ t=0.94
-1.6069941213605023
% es.Ey (V/m) @ t=0.94
0.1253504267117871
% es.Ez (V/m) @ t=0.94
0.6720715656003804
% es.tEx (V/m) @ t=0.94
-1.6069941213604935
% es.tEy (V/m) @ t=0.94
0
% es.tEz (V/m) @ t=0.94
0.6720715656003797
% V (V) @ t=0.94
0.00975525705905599
% es.normE (V/m) @ t=0.96
1.763034987749759
% es.EX (V/m) @ t=0.96
-1.6216011553022855
% es.EY (V/m) @ t=0.96
0.1264901029509774
% es.EZ (V/m) @ t=0.96
0.6781807248532303
% es.tEX (V/m) @ t=0.96
-1.6216011553022707
% es.tEY (V/m) @ t=0.96
0
% es.tEZ (V/m) @ t=0.96
0.6781807248532274
% es.Ex (V/m) @ t=0.96
-1.6216011553022855
% es.Ey (V/m) @ t=0.96
0.1264901029509774
% es.Ez (V/m) @ t=0.96
0.6781807248532303
% es.tEx (V/m) @ t=0.96
-1.6216011553022707
% es.tEy (V/m) @ t=0.96
0
% es.tEz (V/m) @ t=0.96
0.6781807248532274
% V (V) @ t=0.96
0.009843904234252028
% es.normE (V/m) @ t=0.98
1.778916142055913
% es.EX (V/m) @ t=0.98
-1.6362081892440636
% es.EY (V/m) @ t=0.98
0.12762977919014806
% es.EZ (V/m) @ t=0.98
0.6842898841060625
% es.tEX (V/m) @ t=0.98
-1.636208189244055
% es.tEY (V/m) @ t=0.98
0
% es.tEZ (V/m) @ t=0.98
0.6842898841060574
% es.Ex (V/m) @ t=0.98
-1.6362081892440636
% es.Ey (V/m) @ t=0.98
0.12762977919014806
% es.Ez (V/m) @ t=0.98
0.6842898841060625
% es.tEx (V/m) @ t=0.98
-1.636208189244055
% es.tEy (V/m) @ t=0.98
0
% es.tEz (V/m) @ t=0.98
0.6842898841060574
% V (V) @ t=0.98
0.009932551409448065
% es.normE (V/m) @ t=1
1.7947972963621417
% es.EX (V/m) @ t=1
-1.650815223185836
% es.EY (V/m) @ t=1
0.12876945542934015
% es.EZ (V/m) @ t=1
0.6903990433589018
% es.tEX (V/m) @ t=1
-1.6508152231858375
% es.tEY (V/m) @ t=1
0
% es.tEZ (V/m) @ t=1
0.6903990433589051
% es.Ex (V/m) @ t=1
-1.650815223185836
% es.Ey (V/m) @ t=1
0.12876945542934015
% es.Ez (V/m) @ t=1
0.6903990433589018
% es.tEx (V/m) @ t=1
-1.6508152231858375
% es.tEy (V/m) @ t=1
0
% es.tEz (V/m) @ t=1
0.6903990433589051
% V (V) @ t=1
0.010021198584644104
% es.normE (V/m) @ t=1.02
1.810678450668453
% es.EX (V/m) @ t=1.02
-1.6654222571276174
% es.EY (V/m) @ t=1.02
0.1299091316685287
% es.EZ (V/m) @ t=1.02
0.6965082026117411
% es.tEX (V/m) @ t=1.02
-1.6654222571276094
% es.tEY (V/m) @ t=1.02
0
% es.tEZ (V/m) @ t=1.02
0.6965082026117457
% es.Ex (V/m) @ t=1.02
-1.6654222571276174
% es.Ey (V/m) @ t=1.02
0.1299091316685287
% es.Ez (V/m) @ t=1.02
0.6965082026117411
% es.tEx (V/m) @ t=1.02
-1.6654222571276094
% es.tEy (V/m) @ t=1.02
0
% es.tEz (V/m) @ t=1.02
0.6965082026117457
% V (V) @ t=1.02
0.010109845759840141
% es.normE (V/m) @ t=1.04
1.8265596049748343
% es.EX (V/m) @ t=1.04
-1.6800292910693984
% es.EY (V/m) @ t=1.04
0.1310488079077048
% es.EZ (V/m) @ t=1.04
0.7026173618645766
% es.tEX (V/m) @ t=1.04