% Model:              1 neuron.mph
% Version:            COMSOL 6.1.0.252
% Date:               Mar 18 2023, 11:49
% Dimension:          0
% Nodes:              14017
% Expressions:        14017
% Description:        Electric field norm, Electric field, X component, Electric field, Y component, Electric field, Z component, Tangential electric field, X component, Tangential electric field, Y component, Tangential electric field, Z component, Electric field, x component, Electric field, y component, Electric field, z component, Tangential electric field, x component, Tangential electric field, y component, Tangential electric field, z component, Electric potential
% Length unit:        mm
% x
1.3300000000000003
% y
12.200000000000001
% z
1.66
% es.normE (V/m) @ t=0
7.135224308024101
% es.EX (V/m) @ t=0
4.528008824033112
% es.EY (V/m) @ t=0
1.3540328917294315
% es.EZ (V/m) @ t=0
-4.959838202802578
% es.tEX (V/m) @ t=0
4.528008824033101
% es.tEY (V/m) @ t=0
0
% es.tEZ (V/m) @ t=0
-4.959838202802563
% es.Ex (V/m) @ t=0
4.528008824033112
% es.Ey (V/m) @ t=0
1.3540328917294315
% es.Ez (V/m) @ t=0
-4.959838202802578
% es.tEx (V/m) @ t=0
4.528008824033101
% es.tEy (V/m) @ t=0
0
% es.tEz (V/m) @ t=0
-4.959838202802563
% V (V) @ t=0
0.006111878449910815
% es.normE (V/m) @ t=0.02
6.1627483046919
% es.EX (V/m) @ t=0.02
3.9108761817657474
% es.EY (V/m) @ t=0.02
1.169488665248919
% es.EZ (V/m) @ t=0.02
-4.28385052434714
% es.tEX (V/m) @ t=0.02
3.910876181765729
% es.tEY (V/m) @ t=0.02
0
% es.tEZ (V/m) @ t=0.02
-4.283850524347133
% es.Ex (V/m) @ t=0.02
3.9108761817657474
% es.Ey (V/m) @ t=0.02
1.169488665248919
% es.Ez (V/m) @ t=0.02
-4.28385052434714
% es.tEx (V/m) @ t=0.02
3.910876181765729
% es.tEy (V/m) @ t=0.02
0
% es.tEz (V/m) @ t=0.02
-4.283850524347133
% V (V) @ t=0.02
0.005278876548486985
% es.normE (V/m) @ t=0.04
6.219410478688869
% es.EX (V/m) @ t=0.04
3.94683398389189
% es.EY (V/m) @ t=0.04
1.180241308493265
% es.EZ (V/m) @ t=0.04
-4.323237523677818
% es.tEX (V/m) @ t=0.04
3.946833983891886
% es.tEY (V/m) @ t=0.04
0
% es.tEZ (V/m) @ t=0.04
-4.32323752367781
% es.Ex (V/m) @ t=0.04
3.94683398389189
% es.Ey (V/m) @ t=0.04
1.180241308493265
% es.Ez (V/m) @ t=0.04
-4.323237523677818
% es.tEx (V/m) @ t=0.04
3.946833983891886
% es.tEy (V/m) @ t=0.04
0
% es.tEz (V/m) @ t=0.04
-4.32323752367781
% V (V) @ t=0.04
0.00532741206911144
% es.normE (V/m) @ t=0.06
6.276601718595792
% es.EX (V/m) @ t=0.06
3.983127511317707
% es.EY (V/m) @ t=0.06
1.191094342200732
% es.EZ (V/m) @ t=0.06
-4.362992304530609
% es.tEX (V/m) @ t=0.06
3.9831275113177065
% es.tEY (V/m) @ t=0.06
0
% es.tEZ (V/m) @ t=0.06
-4.362992304530598
% es.Ex (V/m) @ t=0.06
3.983127511317707
% es.Ey (V/m) @ t=0.06
1.191094342200732
% es.Ez (V/m) @ t=0.06
-4.362992304530609
% es.tEx (V/m) @ t=0.06
3.9831275113177065
% es.tEy (V/m) @ t=0.06
0
% es.tEz (V/m) @ t=0.06
-4.362992304530598
% V (V) @ t=0.06
0.005376400836765322
% es.normE (V/m) @ t=0.08
6.334622499308736
% es.EX (V/m) @ t=0.08
4.019947477377123
% es.EY (V/m) @ t=0.08
1.2021048014132152
% es.EZ (V/m) @ t=0.08
-4.4033237049265255
% es.tEX (V/m) @ t=0.08
4.019947477377109
% es.tEY (V/m) @ t=0.08
0
% es.tEZ (V/m) @ t=0.08
-4.403323704926518
% es.Ex (V/m) @ t=0.08
4.019947477377123
% es.Ey (V/m) @ t=0.08
1.2021048014132152
% es.Ez (V/m) @ t=0.08
-4.4033237049265255
% es.tEx (V/m) @ t=0.08
4.019947477377109
% es.tEy (V/m) @ t=0.08
0
% es.tEz (V/m) @ t=0.08
-4.403323704926518
% V (V) @ t=0.08
0.005426100132113025
% es.normE (V/m) @ t=0.1
6.393308961399057
% es.EX (V/m) @ t=0.1
4.057189894498821
% es.EY (V/m) @ t=0.1
1.2132415898264353
% es.EZ (V/m) @ t=0.1
-4.4441178250451046
% es.tEX (V/m) @ t=0.1
4.057189894498812
% es.tEY (V/m) @ t=0.1
0
% es.tEZ (V/m) @ t=0.1
-4.444117825045094
% es.Ex (V/m) @ t=0.1
4.057189894498821
% es.Ey (V/m) @ t=0.1
1.2132415898264353
% es.Ez (V/m) @ t=0.1
-4.4441178250451046
% es.tEx (V/m) @ t=0.1
4.057189894498812
% es.tEy (V/m) @ t=0.1
0
% es.tEz (V/m) @ t=0.1
-4.444117825045094
% V (V) @ t=0.1
0.005476369604419409
% es.normE (V/m) @ t=0.12
6.45199542348935
% es.EX (V/m) @ t=0.12
4.094432311620512
% es.EY (V/m) @ t=0.12
1.224378378239654
% es.EZ (V/m) @ t=0.12
-4.484911945163658
% es.tEX (V/m) @ t=0.12
4.094432311620501
% es.tEY (V/m) @ t=0.12
0
% es.tEZ (V/m) @ t=0.12
-4.484911945163654
% es.Ex (V/m) @ t=0.12
4.094432311620512
% es.Ey (V/m) @ t=0.12
1.224378378239654
% es.Ez (V/m) @ t=0.12
-4.484911945163658
% es.tEx (V/m) @ t=0.12
4.094432311620501
% es.tEy (V/m) @ t=0.12
0
% es.tEz (V/m) @ t=0.12
-4.484911945163654
% V (V) @ t=0.12
0.0055266390767257905
% es.normE (V/m) @ t=0.14
6.511060710817011
% es.EX (V/m) @ t=0.14
4.131915113875176
% es.EY (V/m) @ t=0.14
1.2355870474408295
% es.EZ (V/m) @ t=0.14
-4.525969409342115
% es.tEX (V/m) @ t=0.14
4.131915113875159
% es.tEY (V/m) @ t=0.14
0
% es.tEZ (V/m) @ t=0.14
-4.525969409342101
% es.Ex (V/m) @ t=0.14
4.131915113875176
% es.Ey (V/m) @ t=0.14
1.2355870474408295
% es.Ez (V/m) @ t=0.14
-4.525969409342115
% es.tEx (V/m) @ t=0.14
4.131915113875159
% es.tEy (V/m) @ t=0.14
0
% es.tEz (V/m) @ t=0.14
-4.525969409342101
% V (V) @ t=0.14
0.00557723309542972
% es.normE (V/m) @ t=0.16
6.572913216264343
% es.EX (V/m) @ t=0.16
4.171166557002152
% es.EY (V/m) @ t=0.16
1.2473245817093508
% es.EZ (V/m) @ t=0.16
-4.568964435390998
% es.tEX (V/m) @ t=0.16
4.171166557002138
% es.tEY (V/m) @ t=0.16
0
% es.tEZ (V/m) @ t=0.16
-4.5689644353909875
% es.Ex (V/m) @ t=0.16
4.171166557002152
% es.Ey (V/m) @ t=0.16
1.2473245817093508
% es.Ez (V/m) @ t=0.16
-4.568964435390998
% es.tEx (V/m) @ t=0.16
4.171166557002138
% es.tEy (V/m) @ t=0.16
0
% es.tEz (V/m) @ t=0.16
-4.5689644353909875
% V (V) @ t=0.16
0.005630214974050933
% es.normE (V/m) @ t=0.18
6.634765721711679
% es.EX (V/m) @ t=0.18
4.210418000129124
% es.EY (V/m) @ t=0.18
1.2590621159778723
% es.EZ (V/m) @ t=0.18
-4.611959461439885
% es.tEX (V/m) @ t=0.18
4.210418000129119
% es.tEY (V/m) @ t=0.18
0
% es.tEZ (V/m) @ t=0.18
-4.611959461439874
% es.Ex (V/m) @ t=0.18
4.210418000129124
% es.Ey (V/m) @ t=0.18
1.2590621159778723
% es.Ez (V/m) @ t=0.18
-4.611959461439885
% es.tEx (V/m) @ t=0.18
4.210418000129119
% es.tEy (V/m) @ t=0.18
0
% es.tEz (V/m) @ t=0.18
-4.611959461439874
% V (V) @ t=0.18
0.005683196852672146
% es.normE (V/m) @ t=0.2
6.696618227159018
% es.EX (V/m) @ t=0.2
4.249669443256111
% es.EY (V/m) @ t=0.2
1.270799650246417
% es.EZ (V/m) @ t=0.2
-4.654954487488758
% es.tEX (V/m) @ t=0.2
4.249669443256099
% es.tEY (V/m) @ t=0.2
0
% es.tEZ (V/m) @ t=0.2
-4.654954487488743
% es.Ex (V/m) @ t=0.2
4.249669443256111
% es.Ey (V/m) @ t=0.2
1.270799650246417
% es.Ez (V/m) @ t=0.2
-4.654954487488758
% es.tEx (V/m) @ t=0.2
4.249669443256099
% es.tEy (V/m) @ t=0.2
0
% es.tEz (V/m) @ t=0.2
-4.654954487488743
% V (V) @ t=0.2
0.00573617873129336
% es.normE (V/m) @ t=0.22
6.758470732606366
% es.EX (V/m) @ t=0.22
4.288920886383103
% es.EY (V/m) @ t=0.22
1.2825371845149367
% es.EZ (V/m) @ t=0.22
-4.697949513537638
% es.tEX (V/m) @ t=0.22
4.288920886383091
% es.tEY (V/m) @ t=0.22
0
% es.tEZ (V/m) @ t=0.22
-4.697949513537626
% es.Ex (V/m) @ t=0.22
4.288920886383103
% es.Ey (V/m) @ t=0.22
1.2825371845149367
% es.Ez (V/m) @ t=0.22
-4.697949513537638
% es.tEx (V/m) @ t=0.22
4.288920886383091
% es.tEy (V/m) @ t=0.22
0
% es.tEz (V/m) @ t=0.22
-4.697949513537626
% V (V) @ t=0.22
0.005789160609914573
% es.normE (V/m) @ t=0.24
6.820323238053718
% es.EX (V/m) @ t=0.24
4.328172329510082
% es.EY (V/m) @ t=0.24
1.2942747187834633
% es.EZ (V/m) @ t=0.24
-4.740944539586525
% es.tEX (V/m) @ t=0.24
4.328172329510073
% es.tEY (V/m) @ t=0.24
0
% es.tEZ (V/m) @ t=0.24
-4.740944539586513
% es.Ex (V/m) @ t=0.24
4.328172329510082
% es.Ey (V/m) @ t=0.24
1.2942747187834633
% es.Ez (V/m) @ t=0.24
-4.740944539586525
% es.tEx (V/m) @ t=0.24
4.328172329510073
% es.tEy (V/m) @ t=0.24
0
% es.tEz (V/m) @ t=0.24
-4.740944539586513
% V (V) @ t=0.24
0.005842142488535785
% es.normE (V/m) @ t=0.26
6.882175743501062
% es.EX (V/m) @ t=0.26
4.367423772637061
% es.EY (V/m) @ t=0.26
1.3060122530519884
% es.EZ (V/m) @ t=0.26
-4.7839395656353965
% es.tEX (V/m) @ t=0.26
4.3674237726370535
% es.tEY (V/m) @ t=0.26
0
% es.tEZ (V/m) @ t=0.26
-4.783939565635382
% es.Ex (V/m) @ t=0.26
4.367423772637061
% es.Ey (V/m) @ t=0.26
1.3060122530519884
% es.Ez (V/m) @ t=0.26
-4.7839395656353965
% es.tEx (V/m) @ t=0.26
4.3674237726370535
% es.tEy (V/m) @ t=0.26
0
% es.tEz (V/m) @ t=0.26
-4.783939565635382
% V (V) @ t=0.26
0.005895124367156999
% es.normE (V/m) @ t=0.28
6.945808177704003
% es.EX (V/m) @ t=0.28
4.407804048221756
% es.EY (V/m) @ t=0.28
1.318087233686057
% es.EZ (V/m) @ t=0.28
-4.828172477311609
% es.tEX (V/m) @ t=0.28
4.407804048221739
% es.tEY (V/m) @ t=0.28
0
% es.tEZ (V/m) @ t=0.28
-4.828172477311599
% es.Ex (V/m) @ t=0.28
4.407804048221756
% es.Ey (V/m) @ t=0.28
1.318087233686057
% es.Ez (V/m) @ t=0.28
-4.828172477311609
% es.tEx (V/m) @ t=0.28
4.407804048221739
% es.tEy (V/m) @ t=0.28
0
% es.tEz (V/m) @ t=0.28
-4.828172477311599
% V (V) @ t=0.28
0.00594963308670309
% es.normE (V/m) @ t=0.3
7.014798412660374
% es.EX (V/m) @ t=0.3
4.45158224598266
% es.EY (V/m) @ t=0.3
1.3311779686783753
% es.EZ (V/m) @ t=0.3
-4.876131574389259
% es.tEX (V/m) @ t=0.3
4.45158224598265
% es.tEY (V/m) @ t=0.3
0
% es.tEZ (V/m) @ t=0.3
-4.876131574389248
% es.Ex (V/m) @ t=0.3
4.45158224598266
% es.Ey (V/m) @ t=0.3
1.3311779686783753
% es.Ez (V/m) @ t=0.3
-4.876131574389259
% es.tEx (V/m) @ t=0.3
4.45158224598265
% es.tEy (V/m) @ t=0.3
0
% es.tEz (V/m) @ t=0.3
-4.876131574389248
% V (V) @ t=0.3
0.006008737782031701
% es.normE (V/m) @ t=0.32
7.083788647619366
% es.EX (V/m) @ t=0.32
4.495360443743575
% es.EY (V/m) @ t=0.32
1.3442687036707508
% es.EZ (V/m) @ t=0.32
-4.924090671466894
% es.tEX (V/m) @ t=0.32
4.495360443743573
% es.tEY (V/m) @ t=0.32
0
% es.tEZ (V/m) @ t=0.32
-4.9240906714668835
% es.Ex (V/m) @ t=0.32
4.495360443743575
% es.Ey (V/m) @ t=0.32
1.3442687036707508
% es.Ez (V/m) @ t=0.32
-4.924090671466894
% es.tEx (V/m) @ t=0.32
4.495360443743573
% es.tEy (V/m) @ t=0.32
0
% es.tEz (V/m) @ t=0.32
-4.9240906714668835
% V (V) @ t=0.32
0.006067842477360311
% es.normE (V/m) @ t=0.34
7.1527788825809
% es.EX (V/m) @ t=0.34
4.53913864150449
% es.EY (V/m) @ t=0.34
1.3573594386630834
% es.EZ (V/m) @ t=0.34
-4.972049768544547
% es.tEX (V/m) @ t=0.34
4.539138641504474
% es.tEY (V/m) @ t=0.34
0
% es.tEZ (V/m) @ t=0.34
-4.972049768544533
% es.Ex (V/m) @ t=0.34
4.53913864150449
% es.Ey (V/m) @ t=0.34
1.3573594386630834
% es.Ez (V/m) @ t=0.34
-4.972049768544547
% es.tEx (V/m) @ t=0.34
4.539138641504474
% es.tEy (V/m) @ t=0.34
0
% es.tEz (V/m) @ t=0.34
-4.972049768544533
% V (V) @ t=0.34
0.006126947172688921
% es.normE (V/m) @ t=0.36
7.221769117544888
% es.EX (V/m) @ t=0.36
4.582916839265387
% es.EY (V/m) @ t=0.36
1.3704501736554426
% es.EZ (V/m) @ t=0.36
-5.020008865622204
% es.tEX (V/m) @ t=0.36
4.582916839265378
% es.tEY (V/m) @ t=0.36
0
% es.tEZ (V/m) @ t=0.36
-5.020008865622197
% es.Ex (V/m) @ t=0.36
4.582916839265387
% es.Ey (V/m) @ t=0.36
1.3704501736554426
% es.Ez (V/m) @ t=0.36
-5.020008865622204
% es.tEx (V/m) @ t=0.36
4.582916839265378
% es.tEy (V/m) @ t=0.36
0
% es.tEz (V/m) @ t=0.36
-5.020008865622197
% V (V) @ t=0.36
0.006186051868017531
% es.normE (V/m) @ t=0.38
7.2907593525112775
% es.EX (V/m) @ t=0.38
4.626695037026291
% es.EY (V/m) @ t=0.38
1.383540908647811
% es.EZ (V/m) @ t=0.38
-5.067967962699864
% es.tEX (V/m) @ t=0.38
4.626695037026282
% es.tEY (V/m) @ t=0.38
0
% es.tEZ (V/m) @ t=0.38
-5.0679679626998535
% es.Ex (V/m) @ t=0.38
4.626695037026291
% es.Ey (V/m) @ t=0.38
1.383540908647811
% es.Ez (V/m) @ t=0.38
-5.067967962699864
% es.tEx (V/m) @ t=0.38
4.626695037026282
% es.tEy (V/m) @ t=0.38
0
% es.tEz (V/m) @ t=0.38
-5.0679679626998535
% V (V) @ t=0.38
0.006245156563346141
% es.normE (V/m) @ t=0.4
7.359749587479982
% es.EX (V/m) @ t=0.4
4.670473234787199
% es.EY (V/m) @ t=0.4
1.396631643640167
% es.EZ (V/m) @ t=0.4
-5.115927059777514
% es.tEX (V/m) @ t=0.4
4.670473234787194
% es.tEY (V/m) @ t=0.4
0
% es.tEZ (V/m) @ t=0.4
-5.1159270597774995
% es.Ex (V/m) @ t=0.4
4.670473234787199
% es.Ey (V/m) @ t=0.4
1.396631643640167
% es.Ez (V/m) @ t=0.4
-5.115927059777514
% es.tEx (V/m) @ t=0.4
4.670473234787194
% es.tEy (V/m) @ t=0.4
0
% es.tEz (V/m) @ t=0.4
-5.1159270597774995
% V (V) @ t=0.4
0.00630426125867475
% es.normE (V/m) @ t=0.42
7.428739822450945
% es.EX (V/m) @ t=0.42
4.714251432548108
% es.EY (V/m) @ t=0.42
1.4097223786325028
% es.EZ (V/m) @ t=0.42
-5.163886156855163
% es.tEX (V/m) @ t=0.42
4.714251432548095
% es.tEY (V/m) @ t=0.42
0
% es.tEZ (V/m) @ t=0.42
-5.163886156855149
% es.Ex (V/m) @ t=0.42
4.714251432548108
% es.Ey (V/m) @ t=0.42
1.4097223786325028
% es.Ez (V/m) @ t=0.42
-5.163886156855163
% es.tEx (V/m) @ t=0.42
4.714251432548095
% es.tEy (V/m) @ t=0.42
0
% es.tEz (V/m) @ t=0.42
-5.163886156855149
% V (V) @ t=0.42
0.006363365954003362
% es.normE (V/m) @ t=0.44
7.497730057424107
% es.EX (V/m) @ t=0.44
4.758029630309009
% es.EY (V/m) @ t=0.44
1.4228131136248499
% es.EZ (V/m) @ t=0.44
-5.211845253932813
% es.tEX (V/m) @ t=0.44
4.758029630309006
% es.tEY (V/m) @ t=0.44
0
% es.tEZ (V/m) @ t=0.44
-5.211845253932802
% es.Ex (V/m) @ t=0.44
4.758029630309009
% es.Ey (V/m) @ t=0.44
1.4228131136248499
% es.Ez (V/m) @ t=0.44
-5.211845253932813
% es.tEx (V/m) @ t=0.44
4.758029630309006
% es.tEy (V/m) @ t=0.44
0
% es.tEz (V/m) @ t=0.44
-5.211845253932802
% V (V) @ t=0.44
0.006422470649331972
% es.normE (V/m) @ t=0.46
7.566720292399422
% es.EX (V/m) @ t=0.46
4.801807828069924
% es.EY (V/m) @ t=0.46
1.4359038486171913
% es.EZ (V/m) @ t=0.46
-5.2598043510104695
% es.tEX (V/m) @ t=0.46
4.801807828069915
% es.tEY (V/m) @ t=0.46
0
% es.tEZ (V/m) @ t=0.46
-5.259804351010466
% es.Ex (V/m) @ t=0.46
4.801807828069924
% es.Ey (V/m) @ t=0.46
1.4359038486171913
% es.Ez (V/m) @ t=0.46
-5.2598043510104695
% es.tEx (V/m) @ t=0.46
4.801807828069915
% es.tEy (V/m) @ t=0.46
0
% es.tEz (V/m) @ t=0.46
-5.259804351010466
% V (V) @ t=0.46
0.006481575344660583
% es.normE (V/m) @ t=0.48
7.635710527376819
% es.EX (V/m) @ t=0.48
4.845586025830839
% es.EY (V/m) @ t=0.48
1.4489945836095668
% es.EZ (V/m) @ t=0.48
-5.30776344808813
% es.tEX (V/m) @ t=0.48
4.84558602583083
% es.tEY (V/m) @ t=0.48
0
% es.tEZ (V/m) @ t=0.48
-5.3077634480881155
% es.Ex (V/m) @ t=0.48
4.845586025830839
% es.Ey (V/m) @ t=0.48
1.4489945836095668
% es.Ez (V/m) @ t=0.48
-5.30776344808813
% es.tEx (V/m) @ t=0.48
4.84558602583083
% es.tEy (V/m) @ t=0.48
0
% es.tEz (V/m) @ t=0.48
-5.3077634480881155
% V (V) @ t=0.48
0.006540680039989192
% es.normE (V/m) @ t=0.5
7.704700762356222
% es.EX (V/m) @ t=0.5
4.88936422359174
% es.EY (V/m) @ t=0.5
1.462085318601903
% es.EZ (V/m) @ t=0.5
-5.355722545165787
% es.tEX (V/m) @ t=0.5
4.889364223591727
% es.tEY (V/m) @ t=0.5
0
% es.tEZ (V/m) @ t=0.5
-5.355722545165776
% es.Ex (V/m) @ t=0.5
4.88936422359174
% es.Ey (V/m) @ t=0.5
1.462085318601903
% es.Ez (V/m) @ t=0.5
-5.355722545165787
% es.tEx (V/m) @ t=0.5
4.889364223591727
% es.tEy (V/m) @ t=0.5
0
% es.tEz (V/m) @ t=0.5
-5.355722545165776
% V (V) @ t=0.5
0.006599784735317803
% es.normE (V/m) @ t=0.52
7.77369099733761
% es.EX (V/m) @ t=0.52
4.9331424213526445
% es.EY (V/m) @ t=0.52
1.4751760535942569
% es.EZ (V/m) @ t=0.52
-5.4036816422434475
% es.tEX (V/m) @ t=0.52
4.933142421352631
% es.tEY (V/m) @ t=0.52
0
% es.tEZ (V/m) @ t=0.52
-5.403681642243432
% es.Ex (V/m) @ t=0.52
4.9331424213526445
% es.Ey (V/m) @ t=0.52
1.4751760535942569
% es.Ez (V/m) @ t=0.52
-5.4036816422434475
% es.tEx (V/m) @ t=0.52
4.933142421352631
% es.tEy (V/m) @ t=0.52
0
% es.tEz (V/m) @ t=0.52
-5.403681642243432
% V (V) @ t=0.52
0.006658889430646412
% es.normE (V/m) @ t=0.54
7.842681232320902
% es.EX (V/m) @ t=0.54
4.976920619113559
% es.EY (V/m) @ t=0.54
1.4882667885865897
% es.EZ (V/m) @ t=0.54
-5.451640739321096
% es.tEX (V/m) @ t=0.54
4.976920619113542
% es.tEY (V/m) @ t=0.54
0
% es.tEZ (V/m) @ t=0.54
-5.451640739321082
% es.Ex (V/m) @ t=0.54
4.976920619113559
% es.Ey (V/m) @ t=0.54
1.4882667885865897
% es.Ez (V/m) @ t=0.54
-5.451640739321096
% es.tEx (V/m) @ t=0.54
4.976920619113542
% es.tEy (V/m) @ t=0.54
0
% es.tEz (V/m) @ t=0.54
-5.451640739321082
% V (V) @ t=0.54
0.006717994125975023
% es.normE (V/m) @ t=0.56
7.91578915637735
% es.EX (V/m) @ t=0.56
5.023312182934971
% es.EY (V/m) @ t=0.56
1.50213905597627
% es.EZ (V/m) @ t=0.56
-5.502461877078071
% es.tEX (V/m) @ t=0.56
5.023312182934962
% es.tEY (V/m) @ t=0.56
0
% es.tEZ (V/m) @ t=0.56
-5.502461877078066
% es.Ex (V/m) @ t=0.56
5.023312182934971
% es.Ey (V/m) @ t=0.56
1.50213905597627
% es.Ez (V/m) @ t=0.56
-5.502461877078071
% es.tEx (V/m) @ t=0.56
5.023312182934962
% es.tEy (V/m) @ t=0.56
0
% es.tEz (V/m) @ t=0.56
-5.502461877078066
% V (V) @ t=0.56
0.006780625068252702
% es.normE (V/m) @ t=0.58
7.99287230235373
% es.EX (V/m) @ t=0.58
5.072226693454265
% es.EY (V/m) @ t=0.58
1.51676581567029
% es.EZ (V/m) @ t=0.58
-5.5560460323051934
% es.tEX (V/m) @ t=0.58
5.072226693454256
% es.tEY (V/m) @ t=0.58
0
% es.tEZ (V/m) @ t=0.58
-5.556046032305186
% es.Ex (V/m) @ t=0.58
5.072226693454265
% es.Ey (V/m) @ t=0.58
1.51676581567029
% es.Ez (V/m) @ t=0.58
-5.5560460323051934
% es.tEx (V/m) @ t=0.58
5.072226693454256
% es.tEy (V/m) @ t=0.58
0
% es.tEz (V/m) @ t=0.58
-5.556046032305186
% V (V) @ t=0.58
0.006846660253522009
% es.normE (V/m) @ t=0.6
8.069955448331168
% es.EX (V/m) @ t=0.6
5.121141203973556
% es.EY (V/m) @ t=0.6
1.5313925753643114
% es.EZ (V/m) @ t=0.6
-5.609630187532338
% es.tEX (V/m) @ t=0.6
5.1211412039735436
% es.tEY (V/m) @ t=0.6
0
% es.tEZ (V/m) @ t=0.6
-5.609630187532328
% es.Ex (V/m) @ t=0.6
5.121141203973556
% es.Ey (V/m) @ t=0.6
1.5313925753643114
% es.Ez (V/m) @ t=0.6
-5.609630187532338
% es.tEx (V/m) @ t=0.6
5.1211412039735436
% es.tEy (V/m) @ t=0.6
0
% es.tEz (V/m) @ t=0.6
-5.609630187532328
% V (V) @ t=0.6
0.006912695438791316
% es.normE (V/m) @ t=0.62
8.14703859430962
% es.EX (V/m) @ t=0.62
5.17005571449285
% es.EY (V/m) @ t=0.62
1.5460193350583489
% es.EZ (V/m) @ t=0.62
-5.663214342759465
% es.tEX (V/m) @ t=0.62
5.170055714492845
% es.tEY (V/m) @ t=0.62
0
% es.tEZ (V/m) @ t=0.62
-5.663214342759451
% es.Ex (V/m) @ t=0.62
5.17005571449285
% es.Ey (V/m) @ t=0.62
1.5460193350583489
% es.Ez (V/m) @ t=0.62
-5.663214342759465
% es.tEx (V/m) @ t=0.62
5.170055714492845
% es.tEy (V/m) @ t=0.62
0
% es.tEz (V/m) @ t=0.62
-5.663214342759451
% V (V) @ t=0.62
0.006978730624060622
% es.normE (V/m) @ t=0.64
8.224121740289055
% es.EX (V/m) @ t=0.64
5.218970225012148
% es.EY (V/m) @ t=0.64
1.5606460947523633
% es.EZ (V/m) @ t=0.64
-5.7167984979865984
% es.tEX (V/m) @ t=0.64
5.218970225012136
% es.tEY (V/m) @ t=0.64
0
% es.tEZ (V/m) @ t=0.64
-5.716798497986584
% es.Ex (V/m) @ t=0.64
5.218970225012148
% es.Ey (V/m) @ t=0.64
1.5606460947523633
% es.Ez (V/m) @ t=0.64
-5.7167984979865984
% es.tEx (V/m) @ t=0.64
5.218970225012136
% es.tEy (V/m) @ t=0.64
0
% es.tEz (V/m) @ t=0.64
-5.716798497986584
% V (V) @ t=0.64
0.0070447658093299274
% es.normE (V/m) @ t=0.66
8.30120488626945
% es.EX (V/m) @ t=0.66
5.267884735531442
% es.EY (V/m) @ t=0.66
1.5752728544463956
% es.EZ (V/m) @ t=0.66
-5.7703826532137255
% es.tEX (V/m) @ t=0.66
5.2678847355314256
% es.tEY (V/m) @ t=0.66
0
% es.tEZ (V/m) @ t=0.66
-5.77038265321371
% es.Ex (V/m) @ t=0.66
5.267884735531442
% es.Ey (V/m) @ t=0.66
1.5752728544463956
% es.Ez (V/m) @ t=0.66
-5.7703826532137255
% es.tEx (V/m) @ t=0.66
5.2678847355314256
% es.tEy (V/m) @ t=0.66
0
% es.tEz (V/m) @ t=0.66
-5.77038265321371
% V (V) @ t=0.66
0.007110800994599234
% es.normE (V/m) @ t=0.68
8.37828803225078
% es.EX (V/m) @ t=0.68
5.31679924605073
% es.EY (V/m) @ t=0.68
1.589899614140435
% es.EZ (V/m) @ t=0.68
-5.823966808440863
% es.tEX (V/m) @ t=0.68
5.316799246050727
% es.tEY (V/m) @ t=0.68
0
% es.tEZ (V/m) @ t=0.68
-5.823966808440852
% es.Ex (V/m) @ t=0.68
5.31679924605073
% es.Ey (V/m) @ t=0.68
1.589899614140435
% es.Ez (V/m) @ t=0.68
-5.823966808440863
% es.tEx (V/m) @ t=0.68
5.316799246050727
% es.tEy (V/m) @ t=0.68
0
% es.tEz (V/m) @ t=0.68
-5.823966808440852
% V (V) @ t=0.68
0.007176836179868542
% es.normE (V/m) @ t=0.7
8.455371178233014
% es.EX (V/m) @ t=0.7
5.3657137565700275
% es.EY (V/m) @ t=0.7
1.6045263738344318
% es.EZ (V/m) @ t=0.7
-5.877550963667982
% es.tEX (V/m) @ t=0.7
5.365713756570018
% es.tEY (V/m) @ t=0.7
0
% es.tEZ (V/m) @ t=0.7
-5.8775509636679715
% es.Ex (V/m) @ t=0.7
5.3657137565700275
% es.Ey (V/m) @ t=0.7
1.6045263738344318
% es.Ez (V/m) @ t=0.7
-5.877550963667982
% es.tEx (V/m) @ t=0.7
5.365713756570018
% es.tEy (V/m) @ t=0.7
0
% es.tEz (V/m) @ t=0.7
-5.8775509636679715
% V (V) @ t=0.7
0.00724287136513785
% es.normE (V/m) @ t=0.72
8.532454324216122
% es.EX (V/m) @ t=0.72
5.414628267089322
% es.EY (V/m) @ t=0.72
1.6191531335284743
% es.EZ (V/m) @ t=0.72
-5.9311351188951065
% es.tEX (V/m) @ t=0.72
5.414628267089299
% es.tEY (V/m) @ t=0.72
0
% es.tEZ (V/m) @ t=0.72
-5.9311351188950985
% es.Ex (V/m) @ t=0.72
5.414628267089322
% es.Ey (V/m) @ t=0.72
1.6191531335284743
% es.Ez (V/m) @ t=0.72
-5.9311351188951065
% es.tEx (V/m) @ t=0.72
5.414628267089299
% es.tEy (V/m) @ t=0.72
0
% es.tEz (V/m) @ t=0.72
-5.9311351188950985
% V (V) @ t=0.72
0.007308906550407156
% es.normE (V/m) @ t=0.74
8.609537470200111
% es.EX (V/m) @ t=0.74
5.463542777608609
% es.EY (V/m) @ t=0.74
1.6337798932224779
% es.EZ (V/m) @ t=0.74
-5.9847192741222575
% es.tEX (V/m) @ t=0.74
5.463542777608593
% es.tEY (V/m) @ t=0.74
0
% es.tEZ (V/m) @ t=0.74
-5.984719274122236
% es.Ex (V/m) @ t=0.74
5.463542777608609
% es.Ey (V/m) @ t=0.74
1.6337798932224779
% es.Ez (V/m) @ t=0.74
-5.9847192741222575
% es.tEx (V/m) @ t=0.74
5.463542777608593
% es.tEy (V/m) @ t=0.74
0
% es.tEz (V/m) @ t=0.74
-5.984719274122236
% V (V) @ t=0.74
0.007374941735676464
% es.normE (V/m) @ t=0.76
8.686620616184921
% es.EX (V/m) @ t=0.76
5.512457288127903
% es.EY (V/m) @ t=0.76
1.6484066529165209
% es.EZ (V/m) @ t=0.76
-6.038303429349374
% es.tEX (V/m) @ t=0.76
5.512457288127887
% es.tEY (V/m) @ t=0.76
0
% es.tEZ (V/m) @ t=0.76
-6.038303429349366
% es.Ex (V/m) @ t=0.76
5.512457288127903
% es.Ey (V/m) @ t=0.76
1.6484066529165209
% es.Ez (V/m) @ t=0.76
-6.038303429349374
% es.tEx (V/m) @ t=0.76
5.512457288127887
% es.tEy (V/m) @ t=0.76
0
% es.tEz (V/m) @ t=0.76
-6.038303429349366
% V (V) @ t=0.76
0.007440976920945769
% es.normE (V/m) @ t=0.78
8.763703762170554
% es.EX (V/m) @ t=0.78
5.561371798647194
% es.EY (V/m) @ t=0.78
1.6630334126105284
% es.EZ (V/m) @ t=0.78
-6.091887584576508
% es.tEX (V/m) @ t=0.78
5.561371798647182
% es.tEY (V/m) @ t=0.78
0
% es.tEZ (V/m) @ t=0.78
-6.091887584576493
% es.Ex (V/m) @ t=0.78
5.561371798647194
% es.Ey (V/m) @ t=0.78
1.6630334126105284
% es.Ez (V/m) @ t=0.78
-6.091887584576508
% es.tEx (V/m) @ t=0.78
5.561371798647182
% es.tEy (V/m) @ t=0.78
0
% es.tEz (V/m) @ t=0.78
-6.091887584576493
% V (V) @ t=0.78
0.0075070121062150745
% es.normE (V/m) @ t=0.8
8.840786908156971
% es.EX (V/m) @ t=0.8
5.610286309166492
% es.EY (V/m) @ t=0.8
1.6776601723045745
% es.EZ (V/m) @ t=0.8
-6.145471739803627
% es.tEX (V/m) @ t=0.8
5.6102863091664785
% es.tEY (V/m) @ t=0.8
0
% es.tEZ (V/m) @ t=0.8
-6.14547173980362
% es.Ex (V/m) @ t=0.8
5.610286309166492
% es.Ey (V/m) @ t=0.8
1.6776601723045745
% es.Ez (V/m) @ t=0.8
-6.145471739803627
% es.tEx (V/m) @ t=0.8
5.6102863091664785
% es.tEy (V/m) @ t=0.8
0
% es.tEz (V/m) @ t=0.8
-6.14547173980362
% V (V) @ t=0.8
0.007573047291484381
% es.normE (V/m) @ t=0.82
8.91787005414418
% es.EX (V/m) @ t=0.82
5.659200819685793
% es.EY (V/m) @ t=0.82
1.692286931998575
% es.EZ (V/m) @ t=0.82
-6.199055895030767
% es.tEX (V/m) @ t=0.82
5.659200819685776
% es.tEY (V/m) @ t=0.82
0
% es.tEZ (V/m) @ t=0.82
-6.199055895030746
% es.Ex (V/m) @ t=0.82
5.659200819685793
% es.Ey (V/m) @ t=0.82
1.692286931998575
% es.Ez (V/m) @ t=0.82
-6.199055895030767
% es.tEx (V/m) @ t=0.82
5.659200819685776
% es.tEy (V/m) @ t=0.82
0
% es.tEz (V/m) @ t=0.82
-6.199055895030746
% V (V) @ t=0.82
0.007639082476753689
% es.normE (V/m) @ t=0.84
9.002023924711269
% es.EX (V/m) @ t=0.84
5.712602593008787
% es.EY (V/m) @ t=0.84
1.7082555707229714
% es.EZ (V/m) @ t=0.84
-6.257554890841233
% es.tEX (V/m) @ t=0.84
5.7126025930087705
% es.tEY (V/m) @ t=0.84
0
% es.tEZ (V/m) @ t=0.84
-6.257554890841218
% es.Ex (V/m) @ t=0.84
5.712602593008787
% es.Ey (V/m) @ t=0.84
1.7082555707229714
% es.Ez (V/m) @ t=0.84
-6.257554890841233
% es.tEx (V/m) @ t=0.84
5.7126025930087705
% es.tEy (V/m) @ t=0.84
0
% es.tEz (V/m) @ t=0.84
-6.257554890841218
% V (V) @ t=0.84
0.007711173718702354
% es.normE (V/m) @ t=0.86
9.088310928194609
% es.EX (V/m) @ t=0.86
5.767358107080837
% es.EY (V/m) @ t=0.86
1.724629034482824
% es.EZ (V/m) @ t=0.86
-6.3175366212861075
% es.tEX (V/m) @ t=0.86
5.76735810708082
% es.tEY (V/m) @ t=0.86
0
% es.tEZ (V/m) @ t=0.86
-6.317536621286092
% es.Ex (V/m) @ t=0.86
5.767358107080837
% es.Ey (V/m) @ t=0.86
1.724629034482824
% es.Ez (V/m) @ t=0.86
-6.3175366212861075
% es.tEx (V/m) @ t=0.86
5.76735810708082
% es.tEy (V/m) @ t=0.86
0
% es.tEz (V/m) @ t=0.86
-6.317536621286092
% V (V) @ t=0.86
0.0077850919832846395
% es.normE (V/m) @ t=0.88
9.174597931678433
% es.EX (V/m) @ t=0.88
5.822113621152881
% es.EY (V/m) @ t=0.88
1.7410024982426844
% es.EZ (V/m) @ t=0.88
-6.377518351730995
% es.tEX (V/m) @ t=0.88
5.8221136211528695
% es.tEY (V/m) @ t=0.88
0
% es.tEZ (V/m) @ t=0.88
-6.377518351730981
% es.Ex (V/m) @ t=0.88
5.822113621152881
% es.Ey (V/m) @ t=0.88
1.7410024982426844
% es.Ez (V/m) @ t=0.88
-6.377518351730995
% es.tEx (V/m) @ t=0.88
5.8221136211528695
% es.tEy (V/m) @ t=0.88
0
% es.tEz (V/m) @ t=0.88
-6.377518351730981
% V (V) @ t=0.88
0.007859010247866925
% es.normE (V/m) @ t=0.9
9.260884935162716
% es.EX (V/m) @ t=0.9
5.876869135224939
% es.EY (V/m) @ t=0.9
1.7573759620025622
% es.EZ (V/m) @ t=0.9
-6.437500082175868
% es.tEX (V/m) @ t=0.9
5.876869135224922
% es.tEY (V/m) @ t=0.9
0
% es.tEZ (V/m) @ t=0.9
-6.437500082175861
% es.Ex (V/m) @ t=0.9
5.876869135224939
% es.Ey (V/m) @ t=0.9
1.7573759620025622
% es.Ez (V/m) @ t=0.9
-6.437500082175868
% es.tEx (V/m) @ t=0.9
5.876869135224922
% es.tEy (V/m) @ t=0.9
0
% es.tEz (V/m) @ t=0.9
-6.437500082175861
% V (V) @ t=0.9
0.007932928512449209
% es.normE (V/m) @ t=0.92
9.347171938647456
% es.EX (V/m) @ t=0.92
5.931624649296989
% es.EY (V/m) @ t=0.92
1.773749425762401
% es.EZ (V/m) @ t=0.92
-6.497481812620749
% es.tEX (V/m) @ t=0.92
5.931624649296972
% es.tEY (V/m) @ t=0.92
0
% es.tEZ (V/m) @ t=0.92
-6.497481812620728
% es.Ex (V/m) @ t=0.92
5.931624649296989
% es.Ey (V/m) @ t=0.92
1.773749425762401
% es.Ez (V/m) @ t=0.92
-6.497481812620749
% es.tEx (V/m) @ t=0.92
5.931624649296972
% es.tEy (V/m) @ t=0.92
0
% es.tEz (V/m) @ t=0.92
-6.497481812620728
% V (V) @ t=0.92
0.008006846777031496
% es.normE (V/m) @ t=0.94
9.433458942132635
% es.EX (V/m) @ t=0.94
5.9863801633690485
% es.EY (V/m) @ t=0.94
1.7901228895222503
% es.EZ (V/m) @ t=0.94
-6.557463543065619
% es.tEX (V/m) @ t=0.94
5.986380163369033
% es.tEY (V/m) @ t=0.94
0
% es.tEZ (V/m) @ t=0.94
-6.557463543065604
% es.Ex (V/m) @ t=0.94
5.9863801633690485
% es.Ey (V/m) @ t=0.94
1.7901228895222503
% es.Ez (V/m) @ t=0.94
-6.557463543065619
% es.tEx (V/m) @ t=0.94
5.986380163369033
% es.tEy (V/m) @ t=0.94
0
% es.tEz (V/m) @ t=0.94
-6.557463543065604
% V (V) @ t=0.94
0.008080765041613782
% es.normE (V/m) @ t=0.96
9.519745945618219
% es.EX (V/m) @ t=0.96
6.041135677441095
% es.EY (V/m) @ t=0.96
1.8064963532820713
% es.EZ (V/m) @ t=0.96
-6.617445273510496
% es.tEX (V/m) @ t=0.96
6.041135677441082
% es.tEY (V/m) @ t=0.96
0
% es.tEZ (V/m) @ t=0.96
-6.617445273510482
% es.Ex (V/m) @ t=0.96
6.041135677441095
% es.Ey (V/m) @ t=0.96
1.8064963532820713
% es.Ez (V/m) @ t=0.96
-6.617445273510496
% es.tEx (V/m) @ t=0.96
6.041135677441082
% es.tEy (V/m) @ t=0.96
0
% es.tEz (V/m) @ t=0.96
-6.617445273510482
% V (V) @ t=0.96
0.008154683306196066
% es.normE (V/m) @ t=0.98
9.606032949104234
% es.EX (V/m) @ t=0.98
6.095891191513144
% es.EY (V/m) @ t=0.98
1.8228698170419353
% es.EZ (V/m) @ t=0.98
-6.6774270039553665
% es.tEX (V/m) @ t=0.98
6.095891191513127
% es.tEY (V/m) @ t=0.98
0
% es.tEZ (V/m) @ t=0.98
-6.677427003955351
% es.Ex (V/m) @ t=0.98
6.095891191513144
% es.Ey (V/m) @ t=0.98
1.8228698170419353
% es.Ez (V/m) @ t=0.98
-6.6774270039553665
% es.tEx (V/m) @ t=0.98
6.095891191513127
% es.tEy (V/m) @ t=0.98
0
% es.tEz (V/m) @ t=0.98
-6.677427003955351
% V (V) @ t=0.98
0.008228601570778352
% es.normE (V/m) @ t=1
9.692319952590669
% es.EX (V/m) @ t=1
6.150646705585196
% es.EY (V/m) @ t=1
1.8392432808018375
% es.EZ (V/m) @ t=1
-6.737408734400272
% es.tEX (V/m) @ t=1
6.150646705585184
% es.tEY (V/m) @ t=1
0
% es.tEZ (V/m) @ t=1
-6.73740873440025
% es.Ex (V/m) @ t=1
6.150646705585196
% es.Ey (V/m) @ t=1
1.8392432808018375
% es.Ez (V/m) @ t=1
-6.737408734400272
% es.tEx (V/m) @ t=1
6.150646705585184
% es.tEy (V/m) @ t=1
0
% es.tEz (V/m) @ t=1
-6.73740873440025
% V (V) @ t=1
0.008302519835360638
% es.normE (V/m) @ t=1.02
9.77860695607747
% es.EX (V/m) @ t=1.02
6.205402219657237
% es.EY (V/m) @ t=1.02
1.8556167445616838
% es.EZ (V/m) @ t=1.02
-6.797390464845135
% es.tEX (V/m) @ t=1.02
6.205402219657222
% es.tEY (V/m) @ t=1.02
0
% es.tEZ (V/m) @ t=1.02
-6.7973904648451136
% es.Ex (V/m) @ t=1.02
6.205402219657237
% es.Ey (V/m) @ t=1.02
1.8556167445616838
% es.Ez (V/m) @ t=1.02
-6.797390464845135
% es.tEx (V/m) @ t=1.02
6.205402219657222
% es.tEy (V/m) @ t=1.02
0
% es.tEz (V/m) @ t=1.02
-6.7973904648451136
% V (V) @ t=1.02
0.00837643809994292
% es.normE (V/m) @ t=1.04
9.864893959564675
% es.EX (V/m) @ t=1.04
6.260157733729301
% es.EY (V/m) @ t=1.04
1.8719902083215194
% es.EZ (V/m) @ t=1.04
-6.857372195290004
% es.tEX (V/m) @ t=1.04
6.260157733729297
% es.tEY (V/m) @ t=1.04
0
% es.tEZ (V/m) @ t=1.04
-6.85737219528999
% es.Ex (V/m) @ t=1.04
6.260157733729301
% es.Ey (V/m) @ t=1.04
1.8719902083215194
% es.Ez (V/m) @ t=1.04
-6.857372195290004
% es.tEx (V/m) @ t=1.04
6.260157733729297
% es.tEy (V/m) @ t=1.04
0
% es.tEz (V/m) @ t=1.04
-6.85737219528999
% V (V) @ t=1.04
0.008450356364525206
% es.normE (V/m) @ t=1.06
9.951180963052256
% es.EX (V/m) @ t=1.06
6.314913247801347
% es.EY (V/m) @ t=1.06