% Model:              1 neuron.mph
% Version:            COMSOL 6.0.0.405
% Date:               Mar 16 2023, 09:47
% Dimension:          0
% Nodes:              14017
% Expressions:        14017
% Description:        Electric field norm, Electric field, X component, Electric field, Y component, Electric field, Z component, Tangential electric field, X component, Tangential electric field, Y component, Tangential electric field, Z component, Electric field, x component, Electric field, y component, Electric field, z component, Tangential electric field, x component, Tangential electric field, y component, Tangential electric field, z component, Electric potential
% Length unit:        mm
% x
1
% y
12.2
% z
1.6599999999999997
% es.normE (V/m) @ t=0
1.5996107397265398
% es.EX (V/m) @ t=0
1.4319873360211492
% es.EY (V/m) @ t=0
0.05509626103911461
% es.EZ (V/m) @ t=0
-0.7107257950045445
% es.tEX (V/m) @ t=0
1.4319873360211455
% es.tEY (V/m) @ t=0
0
% es.tEZ (V/m) @ t=0
-0.7107257950045529
% es.Ex (V/m) @ t=0
1.4319873360211492
% es.Ey (V/m) @ t=0
0.05509626103911461
% es.Ez (V/m) @ t=0
-0.7107257950045445
% es.tEx (V/m) @ t=0
1.4319873360211455
% es.tEy (V/m) @ t=0
0
% es.tEz (V/m) @ t=0
-0.7107257950045529
% V (V) @ t=0
0.007257421800022606
% es.normE (V/m) @ t=0.02
1.3816133670834858
% es.EX (V/m) @ t=0.02
1.236833934638658
% es.EY (V/m) @ t=0.02
0.047587659257822934
% es.EZ (V/m) @ t=0.02
-0.6138670077550941
% es.tEX (V/m) @ t=0.02
1.236833934638657
% es.tEY (V/m) @ t=0.02
0
% es.tEZ (V/m) @ t=0.02
-0.6138670077550863
% es.Ex (V/m) @ t=0.02
1.236833934638658
% es.Ey (V/m) @ t=0.02
0.047587659257822934
% es.Ez (V/m) @ t=0.02
-0.6138670077550941
% es.tEx (V/m) @ t=0.02
1.236833934638657
% es.tEy (V/m) @ t=0.02
0
% es.tEz (V/m) @ t=0.02
-0.6138670077550863
% V (V) @ t=0.02
0.006268369364376059
% es.normE (V/m) @ t=0.04
1.3943206243955466
% es.EX (V/m) @ t=0.04
1.2482095968767584
% es.EY (V/m) @ t=0.04
0.0480253422121118
% es.EZ (V/m) @ t=0.04
-0.619512991150096
% es.tEX (V/m) @ t=0.04
1.248209596876757
% es.tEY (V/m) @ t=0.04
0
% es.tEZ (V/m) @ t=0.04
-0.6195129911500921
% es.Ex (V/m) @ t=0.04
1.2482095968767584
% es.Ey (V/m) @ t=0.04
0.0480253422121118
% es.Ez (V/m) @ t=0.04
-0.619512991150096
% es.tEx (V/m) @ t=0.04
1.248209596876757
% es.tEy (V/m) @ t=0.04
0
% es.tEz (V/m) @ t=0.04
-0.6195129911500921
% V (V) @ t=0.04
0.006326022096994189
% es.normE (V/m) @ t=0.06
1.4071398814904348
% es.EX (V/m) @ t=0.06
1.259685522377114
% es.EY (V/m) @ t=0.06
0.04846688279425565
% es.EZ (V/m) @ t=0.06
-0.6252087374643797
% es.tEX (V/m) @ t=0.06
1.2596855223771168
% es.tEY (V/m) @ t=0.06
0
% es.tEZ (V/m) @ t=0.06
-0.6252087374643658
% es.Ex (V/m) @ t=0.06
1.259685522377114
% es.Ey (V/m) @ t=0.06
0.04846688279425565
% es.Ez (V/m) @ t=0.06
-0.6252087374643797
% es.tEx (V/m) @ t=0.06
1.2596855223771168
% es.tEy (V/m) @ t=0.06
0
% es.tEz (V/m) @ t=0.06
-0.6252087374643658
% V (V) @ t=0.06
0.006384182976315861
% es.normE (V/m) @ t=0.08
1.4201608080312367
% es.EX (V/m) @ t=0.08
1.2713419844268432
% es.EY (V/m) @ t=0.08
0.04891536961437626
% es.EZ (V/m) @ t=0.08
-0.6309940877349546
% es.tEX (V/m) @ t=0.08
1.2713419844268414
% es.tEY (V/m) @ t=0.08
0
% es.tEZ (V/m) @ t=0.08
-0.6309940877349511
% es.Ex (V/m) @ t=0.08
1.2713419844268432
% es.Ey (V/m) @ t=0.08
0.04891536961437626
% es.Ez (V/m) @ t=0.08
-0.6309940877349546
% es.tEx (V/m) @ t=0.08
1.2713419844268414
% es.tEy (V/m) @ t=0.08
0
% es.tEz (V/m) @ t=0.08
-0.6309940877349511
% V (V) @ t=0.08
0.006443258823111804
% es.normE (V/m) @ t=0.1
1.4333094904349255
% es.EX (V/m) @ t=0.1
1.2831128148308912
% es.EY (V/m) @ t=0.1
0.049368256816621575
% es.EZ (V/m) @ t=0.1
-0.6368362013427158
% es.tEX (V/m) @ t=0.1
1.2831128148308917
% es.tEY (V/m) @ t=0.1
0
% es.tEZ (V/m) @ t=0.1
-0.6368362013427102
% es.Ex (V/m) @ t=0.1
1.2831128148308912
% es.Ey (V/m) @ t=0.1
0.049368256816621575
% es.Ez (V/m) @ t=0.1
-0.6368362013427158
% es.tEx (V/m) @ t=0.1
1.2831128148308917
% es.tEy (V/m) @ t=0.1
0
% es.tEz (V/m) @ t=0.1
-0.6368362013427102
% V (V) @ t=0.1
0.006502914293948678
% es.normE (V/m) @ t=0.12
1.4464581728385983
% es.EX (V/m) @ t=0.12
1.2948836452349293
% es.EY (V/m) @ t=0.12
0.04982114401885354
% es.EZ (V/m) @ t=0.12
-0.6426783149504629
% es.tEX (V/m) @ t=0.12
1.2948836452349282
% es.tEY (V/m) @ t=0.12
0
% es.tEZ (V/m) @ t=0.12
-0.6426783149504551
% es.Ex (V/m) @ t=0.12
1.2948836452349293
% es.Ey (V/m) @ t=0.12
0.04982114401885354
% es.Ez (V/m) @ t=0.12
-0.6426783149504629
% es.tEx (V/m) @ t=0.12
1.2948836452349282
% es.tEy (V/m) @ t=0.12
0
% es.tEz (V/m) @ t=0.12
-0.6426783149504551
% V (V) @ t=0.12
0.006562569764785553
% es.normE (V/m) @ t=0.14
1.4597700838823537
% es.EX (V/m) @ t=0.14
1.3068005995163103
% es.EY (V/m) @ t=0.14
0.05027965339456994
% es.EZ (V/m) @ t=0.14
-0.6485929529831994
% es.tEX (V/m) @ t=0.14
1.306800599516306
% es.tEY (V/m) @ t=0.14
0
% es.tEZ (V/m) @ t=0.14
-0.6485929529831971
% es.Ex (V/m) @ t=0.14
1.3068005995163103
% es.Ey (V/m) @ t=0.14
0.05027965339456994
% es.Ez (V/m) @ t=0.14
-0.6485929529831994
% es.tEx (V/m) @ t=0.14
1.306800599516306
% es.tEy (V/m) @ t=0.14
0
% es.tEz (V/m) @ t=0.14
-0.6485929529831971
% V (V) @ t=0.14
0.0066229658035653755
% es.normE (V/m) @ t=0.16
1.4736155279486032
% es.EX (V/m) @ t=0.16
1.3191951777850857
% es.EY (V/m) @ t=0.16
0.050756539540519424
% es.EZ (V/m) @ t=0.16
-0.6547446460796691
% es.tEX (V/m) @ t=0.16
1.319195177785085
% es.tEY (V/m) @ t=0.16
0
% es.tEZ (V/m) @ t=0.16
-0.6547446460796706
% es.Ex (V/m) @ t=0.16
1.3191951777850857
% es.Ey (V/m) @ t=0.16
0.050756539540519424
% es.Ez (V/m) @ t=0.16
-0.6547446460796691
% es.tEx (V/m) @ t=0.16
1.319195177785085
% es.tEy (V/m) @ t=0.16
0
% es.tEz (V/m) @ t=0.16
-0.6547446460796706
% V (V) @ t=0.16
0.006685782480370292
% es.normE (V/m) @ t=0.18
1.4874609720148386
% es.EX (V/m) @ t=0.18
1.3315897560538499
% es.EY (V/m) @ t=0.18
0.05123342568645689
% es.EZ (V/m) @ t=0.18
-0.6608963391761299
% es.tEX (V/m) @ t=0.18
1.3315897560538503
% es.tEY (V/m) @ t=0.18
0
% es.tEZ (V/m) @ t=0.18
-0.6608963391761336
% es.Ex (V/m) @ t=0.18
1.3315897560538499
% es.Ey (V/m) @ t=0.18
0.05123342568645689
% es.Ez (V/m) @ t=0.18
-0.6608963391761299
% es.tEx (V/m) @ t=0.18
1.3315897560538503
% es.tEy (V/m) @ t=0.18
0
% es.tEz (V/m) @ t=0.18
-0.6608963391761336
% V (V) @ t=0.18
0.006748599157175207
% es.normE (V/m) @ t=0.2
1.5013064160811025
% es.EX (V/m) @ t=0.2
1.343984334322634
% es.EY (V/m) @ t=0.2
0.05171031183240818
% es.EZ (V/m) @ t=0.2
-0.6670480322726138
% es.tEX (V/m) @ t=0.2
1.3439843343226294
% es.tEY (V/m) @ t=0.2
0
% es.tEZ (V/m) @ t=0.2
-0.6670480322726107
% es.Ex (V/m) @ t=0.2
1.343984334322634
% es.Ey (V/m) @ t=0.2
0.05171031183240818
% es.Ez (V/m) @ t=0.2
-0.6670480322726138
% es.tEx (V/m) @ t=0.2
1.3439843343226294
% es.tEy (V/m) @ t=0.2
0
% es.tEz (V/m) @ t=0.2
-0.6670480322726107
% V (V) @ t=0.2
0.006811415833980125
% es.normE (V/m) @ t=0.22
1.5151518601473508
% es.EX (V/m) @ t=0.22
1.3563789125914092
% es.EY (V/m) @ t=0.22
0.05218719797835236
% es.EZ (V/m) @ t=0.22
-0.6731997253690817
% es.tEX (V/m) @ t=0.22
1.3563789125914094
% es.tEY (V/m) @ t=0.22
0
% es.tEZ (V/m) @ t=0.22
-0.6731997253690771
% es.Ex (V/m) @ t=0.22
1.3563789125914092
% es.Ey (V/m) @ t=0.22
0.05218719797835236
% es.Ez (V/m) @ t=0.22
-0.6731997253690817
% es.tEx (V/m) @ t=0.22
1.3563789125914094
% es.tEy (V/m) @ t=0.22
0
% es.tEz (V/m) @ t=0.22
-0.6731997253690771
% V (V) @ t=0.22
0.006874232510785041
% es.normE (V/m) @ t=0.24
1.5289973042135996
% es.EX (V/m) @ t=0.24
1.3687734908601805
% es.EY (V/m) @ t=0.24
0.052664084124289856
% es.EZ (V/m) @ t=0.24
-0.6793514184655585
% es.tEX (V/m) @ t=0.24
1.3687734908601814
% es.tEY (V/m) @ t=0.24
0
% es.tEZ (V/m) @ t=0.24
-0.6793514184655507
% es.Ex (V/m) @ t=0.24
1.3687734908601805
% es.Ey (V/m) @ t=0.24
0.052664084124289856
% es.Ez (V/m) @ t=0.24
-0.6793514184655585
% es.tEx (V/m) @ t=0.24
1.3687734908601814
% es.tEy (V/m) @ t=0.24
0
% es.tEz (V/m) @ t=0.24
-0.6793514184655507
% V (V) @ t=0.24
0.006937049187589955
% es.normE (V/m) @ t=0.26
1.5428427482798464
% es.EX (V/m) @ t=0.26
1.3811680691289578
% es.EY (V/m) @ t=0.26
0.05314097027022116
% es.EZ (V/m) @ t=0.26
-0.6855031115620192
% es.tEX (V/m) @ t=0.26
1.3811680691289498
% es.tEY (V/m) @ t=0.26
0
% es.tEZ (V/m) @ t=0.26
-0.68550311156201
% es.Ex (V/m) @ t=0.26
1.3811680691289578
% es.Ey (V/m) @ t=0.26
0.05314097027022116
% es.Ez (V/m) @ t=0.26
-0.6855031115620192
% es.tEx (V/m) @ t=0.26
1.3811680691289498
% es.tEy (V/m) @ t=0.26
0
% es.tEz (V/m) @ t=0.26
-0.68550311156201
% V (V) @ t=0.26
0.006999865864394873
% es.normE (V/m) @ t=0.28
1.5574373038766716
% es.EX (V/m) @ t=0.28
1.3942332579984114
% es.EY (V/m) @ t=0.28
0.05364365849407238
% es.EZ (V/m) @ t=0.28
-0.6919876465921686
% es.tEX (V/m) @ t=0.28
1.3942332579984127
% es.tEY (V/m) @ t=0.28
0
% es.tEZ (V/m) @ t=0.28
-0.6919876465921639
% es.Ex (V/m) @ t=0.28
1.3942332579984114
% es.Ey (V/m) @ t=0.28
0.05364365849407238
% es.Ez (V/m) @ t=0.28
-0.6919876465921686
% es.tEx (V/m) @ t=0.28
1.3942332579984127
% es.tEy (V/m) @ t=0.28
0
% es.tEz (V/m) @ t=0.28
-0.6919876465921639
% V (V) @ t=0.28
0.007066081346988798
% es.normE (V/m) @ t=0.3
1.5728485140097876
% es.EX (V/m) @ t=0.3
1.4080295225045072
% es.EY (V/m) @ t=0.3
0.05417447521827112
% es.EZ (V/m) @ t=0.3
-0.6988350339666047
% es.tEX (V/m) @ t=0.3
1.408029522504509
% es.tEY (V/m) @ t=0.3
0
% es.tEZ (V/m) @ t=0.3
-0.6988350339666027
% es.Ex (V/m) @ t=0.3
1.4080295225045072
% es.Ey (V/m) @ t=0.3
0.05417447521827112
% es.Ez (V/m) @ t=0.3
-0.6988350339666047
% es.tEx (V/m) @ t=0.3
1.408029522504509
% es.tEy (V/m) @ t=0.3
0
% es.tEz (V/m) @ t=0.3
-0.6988350339666027
% V (V) @ t=0.3
0.007136002085812718
% es.normE (V/m) @ t=0.32
1.5882597241429237
% es.EX (V/m) @ t=0.32
1.4218257870106212
% es.EY (V/m) @ t=0.32
0.05470529194247967
% es.EZ (V/m) @ t=0.32
-0.7056824213410496
% es.tEX (V/m) @ t=0.32
1.4218257870106168
% es.tEY (V/m) @ t=0.32
0
% es.tEZ (V/m) @ t=0.32
-0.7056824213410451
% es.Ex (V/m) @ t=0.32
1.4218257870106212
% es.Ey (V/m) @ t=0.32
0.05470529194247967
% es.Ez (V/m) @ t=0.32
-0.7056824213410496
% es.tEx (V/m) @ t=0.32
1.4218257870106168
% es.tEy (V/m) @ t=0.32
0
% es.tEz (V/m) @ t=0.32
-0.7056824213410451
% V (V) @ t=0.32
0.00720592282463664
% es.normE (V/m) @ t=0.34
1.6036709342760613
% es.EX (V/m) @ t=0.34
1.4356220515167308
% es.EY (V/m) @ t=0.34
0.05523610866669751
% es.EZ (V/m) @ t=0.34
-0.7125298087155052
% es.tEX (V/m) @ t=0.34
1.4356220515167273
% es.tEY (V/m) @ t=0.34
0
% es.tEZ (V/m) @ t=0.34
-0.7125298087154874
% es.Ex (V/m) @ t=0.34
1.4356220515167308
% es.Ey (V/m) @ t=0.34
0.05523610866669751
% es.Ez (V/m) @ t=0.34
-0.7125298087155052
% es.tEx (V/m) @ t=0.34
1.4356220515167273
% es.tEy (V/m) @ t=0.34
0
% es.tEz (V/m) @ t=0.34
-0.7125298087154874
% V (V) @ t=0.34
0.007275843563460561
% es.normE (V/m) @ t=0.36
1.6190821444091816
% es.EX (V/m) @ t=0.36
1.4494183160228302
% es.EY (V/m) @ t=0.36
0.055766925390890926
% es.EZ (V/m) @ t=0.36
-0.7193771960899449
% es.tEX (V/m) @ t=0.36
1.4494183160228307
% es.tEY (V/m) @ t=0.36
0
% es.tEZ (V/m) @ t=0.36
-0.7193771960899404
% es.Ex (V/m) @ t=0.36
1.4494183160228302
% es.Ey (V/m) @ t=0.36
0.055766925390890926
% es.Ez (V/m) @ t=0.36
-0.7193771960899449
% es.tEx (V/m) @ t=0.36
1.4494183160228307
% es.tEy (V/m) @ t=0.36
0
% es.tEz (V/m) @ t=0.36
-0.7193771960899404
% V (V) @ t=0.36
0.007345764302284481
% es.normE (V/m) @ t=0.38
1.6344933545423086
% es.EX (V/m) @ t=0.38
1.4632145805289365
% es.EY (V/m) @ t=0.38
0.056297742115092364
% es.EZ (V/m) @ t=0.38
-0.7262245834643845
% es.tEX (V/m) @ t=0.38
1.463214580528934
% es.tEY (V/m) @ t=0.38
0
% es.tEZ (V/m) @ t=0.38
-0.7262245834643863
% es.Ex (V/m) @ t=0.38
1.4632145805289365
% es.Ey (V/m) @ t=0.38
0.056297742115092364
% es.Ez (V/m) @ t=0.38
-0.7262245834643845
% es.tEx (V/m) @ t=0.38
1.463214580528934
% es.tEy (V/m) @ t=0.38
0
% es.tEz (V/m) @ t=0.38
-0.7262245834643863
% V (V) @ t=0.38
0.007415685041108403
% es.normE (V/m) @ t=0.4
1.6499045646754444
% es.EX (V/m) @ t=0.4
1.4770108450350468
% es.EY (V/m) @ t=0.4
0.05682855883928714
% es.EZ (V/m) @ t=0.4
-0.7330719708388365
% es.tEX (V/m) @ t=0.4
1.4770108450350419
% es.tEY (V/m) @ t=0.4
0
% es.tEZ (V/m) @ t=0.4
-0.7330719708388322
% es.Ex (V/m) @ t=0.4
1.4770108450350468
% es.Ey (V/m) @ t=0.4
0.05682855883928714
% es.Ez (V/m) @ t=0.4
-0.7330719708388365
% es.tEx (V/m) @ t=0.4
1.4770108450350419
% es.tEy (V/m) @ t=0.4
0
% es.tEz (V/m) @ t=0.4
-0.7330719708388322
% V (V) @ t=0.4
0.007485605779932323
% es.normE (V/m) @ t=0.42
1.6653157748085667
% es.EX (V/m) @ t=0.42
1.4908071095411495
% es.EY (V/m) @ t=0.42
0.05735937556351031
% es.EZ (V/m) @ t=0.42
-0.7399193582132708
% es.tEX (V/m) @ t=0.42
1.4908071095411488
% es.tEY (V/m) @ t=0.42
0
% es.tEZ (V/m) @ t=0.42
-0.7399193582132675
% es.Ex (V/m) @ t=0.42
1.4908071095411495
% es.Ey (V/m) @ t=0.42
0.05735937556351031
% es.Ez (V/m) @ t=0.42
-0.7399193582132708
% es.tEx (V/m) @ t=0.42
1.4908071095411488
% es.tEy (V/m) @ t=0.42
0
% es.tEz (V/m) @ t=0.42
-0.7399193582132675
% V (V) @ t=0.42
0.0075555265187562445
% es.normE (V/m) @ t=0.44
1.6807269849416884
% es.EX (V/m) @ t=0.44
1.504603374047247
% es.EY (V/m) @ t=0.44
0.057890192287697984
% es.EZ (V/m) @ t=0.44
-0.7467667455877175
% es.tEX (V/m) @ t=0.44
1.5046033740472486
% es.tEY (V/m) @ t=0.44
0
% es.tEZ (V/m) @ t=0.44
-0.7467667455877134
% es.Ex (V/m) @ t=0.44
1.504603374047247
% es.Ey (V/m) @ t=0.44
0.057890192287697984
% es.Ez (V/m) @ t=0.44
-0.7467667455877175
% es.tEx (V/m) @ t=0.44
1.5046033740472486
% es.tEy (V/m) @ t=0.44
0
% es.tEz (V/m) @ t=0.44
-0.7467667455877134
% V (V) @ t=0.44
0.007625447257580166
% es.normE (V/m) @ t=0.46
1.6961381950748047
% es.EX (V/m) @ t=0.46
1.5183996385533463
% es.EY (V/m) @ t=0.46
0.05842100901189273
% es.EZ (V/m) @ t=0.46
-0.7536141329621482
% es.tEX (V/m) @ t=0.46
1.5183996385533485
% es.tEY (V/m) @ t=0.46
0
% es.tEZ (V/m) @ t=0.46
-0.7536141329621451
% es.Ex (V/m) @ t=0.46
1.5183996385533463
% es.Ey (V/m) @ t=0.46
0.05842100901189273
% es.Ez (V/m) @ t=0.46
-0.7536141329621482
% es.tEx (V/m) @ t=0.46
1.5183996385533485
% es.tEy (V/m) @ t=0.46
0
% es.tEz (V/m) @ t=0.46
-0.7536141329621451
% V (V) @ t=0.46
0.0076953679964040875
% es.normE (V/m) @ t=0.48
1.711549405207947
% es.EX (V/m) @ t=0.48
1.5321959030594619
% es.EY (V/m) @ t=0.48
0.058951825736105246
% es.EZ (V/m) @ t=0.48
-0.760461520336602
% es.tEX (V/m) @ t=0.48
1.5321959030594634
% es.tEY (V/m) @ t=0.48
0
% es.tEZ (V/m) @ t=0.48
-0.7604615203365981
% es.Ex (V/m) @ t=0.48
1.5321959030594619
% es.Ey (V/m) @ t=0.48
0.058951825736105246
% es.Ez (V/m) @ t=0.48
-0.760461520336602
% es.tEx (V/m) @ t=0.48
1.5321959030594634
% es.tEy (V/m) @ t=0.48
0
% es.tEz (V/m) @ t=0.48
-0.7604615203365981
% V (V) @ t=0.48
0.0077652887352280065
% es.normE (V/m) @ t=0.5
1.7269606153410701
% es.EX (V/m) @ t=0.5
1.5459921675655628
% es.EY (V/m) @ t=0.5
0.05948264246030893
% es.EZ (V/m) @ t=0.5
-0.7673089077110433
% es.tEX (V/m) @ t=0.5
1.5459921675655597
% es.tEY (V/m) @ t=0.5
0
% es.tEZ (V/m) @ t=0.5
-0.7673089077110404
% es.Ex (V/m) @ t=0.5
1.5459921675655628
% es.Ey (V/m) @ t=0.5
0.05948264246030893
% es.Ez (V/m) @ t=0.5
-0.7673089077110433
% es.tEx (V/m) @ t=0.5
1.5459921675655597
% es.tEy (V/m) @ t=0.5
0
% es.tEz (V/m) @ t=0.5
-0.7673089077110404
% V (V) @ t=0.5
0.007835209474051929
% es.normE (V/m) @ t=0.52
1.7423718254742135
% es.EX (V/m) @ t=0.52
1.5597884320716777
% es.EY (V/m) @ t=0.52
0.0600134591845316
% es.EZ (V/m) @ t=0.52
-0.7741562950855008
% es.tEX (V/m) @ t=0.52
1.5597884320716737
% es.tEY (V/m) @ t=0.52
0
% es.tEZ (V/m) @ t=0.52
-0.774156295085497
% es.Ex (V/m) @ t=0.52
1.5597884320716777
% es.Ey (V/m) @ t=0.52
0.0600134591845316
% es.Ez (V/m) @ t=0.52
-0.7741562950855008
% es.tEx (V/m) @ t=0.52
1.5597884320716737
% es.tEy (V/m) @ t=0.52
0
% es.tEz (V/m) @ t=0.52
-0.774156295085497
% V (V) @ t=0.52
0.00790513021287585
% es.normE (V/m) @ t=0.54
1.75778303560733
% es.EX (V/m) @ t=0.54
1.5735846965777753
% es.EY (V/m) @ t=0.54
0.06054427590872108
% es.EZ (V/m) @ t=0.54
-0.781003682459935
% es.tEX (V/m) @ t=0.54
1.573584696577777
% es.tEY (V/m) @ t=0.54
0
% es.tEZ (V/m) @ t=0.54
-0.7810036824599322
% es.Ex (V/m) @ t=0.54
1.5735846965777753
% es.Ey (V/m) @ t=0.54
0.06054427590872108
% es.Ez (V/m) @ t=0.54
-0.781003682459935
% es.tEx (V/m) @ t=0.54
1.573584696577777
% es.tEy (V/m) @ t=0.54
0
% es.tEz (V/m) @ t=0.54
-0.7810036824599322
% V (V) @ t=0.54
0.007975050951699772
% es.normE (V/m) @ t=0.56
1.774908680507333
% es.EX (V/m) @ t=0.56
1.5889157427583838
% es.EY (V/m) @ t=0.56
0.06113414371158693
% es.EZ (V/m) @ t=0.56
-0.7886128077891308
% es.tEX (V/m) @ t=0.56
1.5889157427583793
% es.tEY (V/m) @ t=0.56
0
% es.tEZ (V/m) @ t=0.56
-0.788612807789125
% es.Ex (V/m) @ t=0.56
1.5889157427583838
% es.Ey (V/m) @ t=0.56
0.06113414371158693
% es.Ez (V/m) @ t=0.56
-0.7886128077891308
% es.tEx (V/m) @ t=0.56
1.5889157427583793
% es.tEy (V/m) @ t=0.56
0
% es.tEz (V/m) @ t=0.56
-0.788612807789125
% V (V) @ t=0.56
0.008052749896160553
% es.normE (V/m) @ t=0.58
1.7920932746605005
% es.EX (V/m) @ t=0.58
1.6042995609868052
% es.EY (V/m) @ t=0.58
0.061726041931117526
% es.EZ (V/m) @ t=0.58
-0.7962481247730904
% es.tEX (V/m) @ t=0.58
1.6042995609868047
% es.tEY (V/m) @ t=0.58
0
% es.tEZ (V/m) @ t=0.58
-0.7962481247730864
% es.Ex (V/m) @ t=0.58
1.6042995609868052
% es.Ey (V/m) @ t=0.58
0.061726041931117526
% es.Ez (V/m) @ t=0.58
-0.7962481247730904
% es.tEx (V/m) @ t=0.58
1.6042995609868047
% es.tEy (V/m) @ t=0.58
0
% es.tEz (V/m) @ t=0.58
-0.7962481247730864
% V (V) @ t=0.58
0.008130716287025379
% es.normE (V/m) @ t=0.6
1.8092778688136844
% es.EX (V/m) @ t=0.6
1.6196833792152374
% es.EY (V/m) @ t=0.6
0.062317940150676626
% es.EZ (V/m) @ t=0.6
-0.8038834417570624
% es.tEX (V/m) @ t=0.6
1.6196833792152372
% es.tEY (V/m) @ t=0.6
0
% es.tEZ (V/m) @ t=0.6
-0.8038834417570513
% es.Ex (V/m) @ t=0.6
1.6196833792152374
% es.Ey (V/m) @ t=0.6
0.062317940150676626
% es.Ez (V/m) @ t=0.6
-0.8038834417570624
% es.tEx (V/m) @ t=0.6
1.6196833792152372
% es.tEy (V/m) @ t=0.6
0
% es.tEz (V/m) @ t=0.6
-0.8038834417570513
% V (V) @ t=0.6
0.008208682677890206
% es.normE (V/m) @ t=0.62
1.8264624629668411
% es.EX (V/m) @ t=0.62
1.6350671974436555
% es.EY (V/m) @ t=0.62
0.06290983837021705
% es.EZ (V/m) @ t=0.62
-0.8115187587410042
% es.tEX (V/m) @ t=0.62
1.6350671974436555
% es.tEY (V/m) @ t=0.62
0
% es.tEZ (V/m) @ t=0.62
-0.811518758741002
% es.Ex (V/m) @ t=0.62
1.6350671974436555
% es.Ey (V/m) @ t=0.62
0.06290983837021705
% es.Ez (V/m) @ t=0.62
-0.8115187587410042
% es.tEx (V/m) @ t=0.62
1.6350671974436555
% es.tEy (V/m) @ t=0.62
0
% es.tEz (V/m) @ t=0.62
-0.811518758741002
% V (V) @ t=0.62
0.008286649068755031
% es.normE (V/m) @ t=0.64
1.843647057120028
% es.EX (V/m) @ t=0.64
1.650451015672088
% es.EY (V/m) @ t=0.64
0.06350173658977257
% es.EZ (V/m) @ t=0.64
-0.8191540757249833
% es.tEX (V/m) @ t=0.64
1.650451015672088
% es.tEY (V/m) @ t=0.64
0
% es.tEZ (V/m) @ t=0.64
-0.8191540757249705
% es.Ex (V/m) @ t=0.64
1.650451015672088
% es.Ey (V/m) @ t=0.64
0.06350173658977257
% es.Ez (V/m) @ t=0.64
-0.8191540757249833
% es.tEx (V/m) @ t=0.64
1.650451015672088
% es.tEy (V/m) @ t=0.64
0
% es.tEz (V/m) @ t=0.64
-0.8191540757249705
% V (V) @ t=0.64
0.008364615459619857
% es.normE (V/m) @ t=0.66
1.8608316512731997
% es.EX (V/m) @ t=0.66
1.665834833900513
% es.EY (V/m) @ t=0.66
0.06409363480931254
% es.EZ (V/m) @ t=0.66
-0.8267893927089447
% es.tEX (V/m) @ t=0.66
1.6658348339005133
% es.tEY (V/m) @ t=0.66
0
% es.tEZ (V/m) @ t=0.66
-0.8267893927089389
% es.Ex (V/m) @ t=0.66
1.665834833900513
% es.Ey (V/m) @ t=0.66
0.06409363480931254
% es.Ez (V/m) @ t=0.66
-0.8267893927089447
% es.tEx (V/m) @ t=0.66
1.6658348339005133
% es.tEy (V/m) @ t=0.66
0
% es.tEz (V/m) @ t=0.66
-0.8267893927089389
% V (V) @ t=0.66
0.008442581850484684
% es.normE (V/m) @ t=0.68
1.8780162454263696
% es.EX (V/m) @ t=0.68
1.6812186521289343
% es.EY (V/m) @ t=0.68
0.06468553302887248
% es.EZ (V/m) @ t=0.68
-0.8344247096929078
% es.tEX (V/m) @ t=0.68
1.6812186521289458
% es.tEY (V/m) @ t=0.68
0
% es.tEZ (V/m) @ t=0.68
-0.8344247096929003
% es.Ex (V/m) @ t=0.68
1.6812186521289343
% es.Ey (V/m) @ t=0.68
0.06468553302887248
% es.Ez (V/m) @ t=0.68
-0.8344247096929078
% es.tEx (V/m) @ t=0.68
1.6812186521289458
% es.tEy (V/m) @ t=0.68
0
% es.tEz (V/m) @ t=0.68
-0.8344247096929003
% V (V) @ t=0.68
0.008520548241349507
% es.normE (V/m) @ t=0.7
1.8952008395795423
% es.EX (V/m) @ t=0.7
1.6966024703573594
% es.EY (V/m) @ t=0.7
0.0652774312484351
% es.EZ (V/m) @ t=0.7
-0.8420600266768692
% es.tEX (V/m) @ t=0.7
1.6966024703573641
% es.tEY (V/m) @ t=0.7
0
% es.tEZ (V/m) @ t=0.7
-0.8420600266768652
% es.Ex (V/m) @ t=0.7
1.6966024703573594
% es.Ey (V/m) @ t=0.7
0.0652774312484351
% es.Ez (V/m) @ t=0.7
-0.8420600266768692
% es.tEx (V/m) @ t=0.7
1.6966024703573641
% es.tEy (V/m) @ t=0.7
0
% es.tEz (V/m) @ t=0.7
-0.8420600266768652
% V (V) @ t=0.7
0.008598514632214335
% es.normE (V/m) @ t=0.72
1.9123854337327308
% es.EX (V/m) @ t=0.72
1.7119862885857988
% es.EY (V/m) @ t=0.72
0.06586932946797286
% es.EZ (V/m) @ t=0.72
-0.8496953436608394
% es.tEX (V/m) @ t=0.72
1.7119862885857966
% es.tEY (V/m) @ t=0.72
0
% es.tEZ (V/m) @ t=0.72
-0.8496953436608337
% es.Ex (V/m) @ t=0.72
1.7119862885857988
% es.Ey (V/m) @ t=0.72
0.06586932946797286
% es.Ez (V/m) @ t=0.72
-0.8496953436608394
% es.tEx (V/m) @ t=0.72
1.7119862885857966
% es.tEy (V/m) @ t=0.72
0
% es.tEz (V/m) @ t=0.72
-0.8496953436608337
% V (V) @ t=0.72
0.008676481023079162
% es.normE (V/m) @ t=0.74
1.9295700278858963
% es.EX (V/m) @ t=0.74
1.727370106814224
% es.EY (V/m) @ t=0.74
0.06646122768752752
% es.EZ (V/m) @ t=0.74
-0.8573306606447848
% es.tEX (V/m) @ t=0.74
1.7273701068142078
% es.tEY (V/m) @ t=0.74
0
% es.tEZ (V/m) @ t=0.74
-0.8573306606447844
% es.Ex (V/m) @ t=0.74
1.727370106814224
% es.Ey (V/m) @ t=0.74
0.06646122768752752
% es.Ez (V/m) @ t=0.74
-0.8573306606447848
% es.tEx (V/m) @ t=0.74
1.7273701068142078
% es.tEy (V/m) @ t=0.74
0
% es.tEz (V/m) @ t=0.74
-0.8573306606447844
% V (V) @ t=0.74
0.008754447413943985
% es.normE (V/m) @ t=0.76
1.946754622039061
% es.EX (V/m) @ t=0.76
1.742753925042642
% es.EY (V/m) @ t=0.76
0.06705312590706883
% es.EZ (V/m) @ t=0.76
-0.8649659776287444
% es.tEX (V/m) @ t=0.76
1.7427539250426332
% es.tEY (V/m) @ t=0.76
0
% es.tEZ (V/m) @ t=0.76
-0.8649659776287493
% es.Ex (V/m) @ t=0.76
1.742753925042642
% es.Ey (V/m) @ t=0.76
0.06705312590706883
% es.Ez (V/m) @ t=0.76
-0.8649659776287444
% es.tEx (V/m) @ t=0.76
1.7427539250426332
% es.tEy (V/m) @ t=0.76
0
% es.tEz (V/m) @ t=0.76
-0.8649659776287493
% V (V) @ t=0.76
0.008832413804808812
% es.normE (V/m) @ t=0.78
1.963939216192247
% es.EX (V/m) @ t=0.78
1.758137743271078
% es.EY (V/m) @ t=0.78
0.06764502412662612
% es.EZ (V/m) @ t=0.78
-0.8726012946127146
% es.tEX (V/m) @ t=0.78
1.7581377432710728
% es.tEY (V/m) @ t=0.78
0
% es.tEZ (V/m) @ t=0.78
-0.8726012946127213
% es.Ex (V/m) @ t=0.78
1.758137743271078
% es.Ey (V/m) @ t=0.78
0.06764502412662612
% es.Ez (V/m) @ t=0.78
-0.8726012946127146
% es.tEx (V/m) @ t=0.78
1.7581377432710728
% es.tEy (V/m) @ t=0.78
0
% es.tEz (V/m) @ t=0.78
-0.8726012946127213
% V (V) @ t=0.78
0.008910380195673638
% es.normE (V/m) @ t=0.8
1.9811238103454243
% es.EX (V/m) @ t=0.8
1.7735215614995066
% es.EY (V/m) @ t=0.8
0.06823692234615725
% es.EZ (V/m) @ t=0.8
-0.8802366115966813
% es.tEX (V/m) @ t=0.8
1.7735215614994901
% es.tEY (V/m) @ t=0.8
0
% es.tEZ (V/m) @ t=0.8
-0.8802366115966791
% es.Ex (V/m) @ t=0.8
1.7735215614995066
% es.Ey (V/m) @ t=0.8
0.06823692234615725
% es.Ez (V/m) @ t=0.8
-0.8802366115966813
% es.tEx (V/m) @ t=0.8
1.7735215614994901
% es.tEy (V/m) @ t=0.8
0
% es.tEz (V/m) @ t=0.8
-0.8802366115966791
% V (V) @ t=0.8
0.008988346586538463
% es.normE (V/m) @ t=0.82
1.9992240245485142
% es.EX (V/m) @ t=0.82
1.7897250518827965
% es.EY (V/m) @ t=0.82
0.06886035776354887
% es.EZ (V/m) @ t=0.82
-0.8882787492145956
% es.tEX (V/m) @ t=0.82
1.7897250518828018
% es.tEY (V/m) @ t=0.82
0
% es.tEZ (V/m) @ t=0.82
-0.8882787492145852
% es.Ex (V/m) @ t=0.82
1.7897250518827965
% es.Ey (V/m) @ t=0.82
0.06886035776354887
% es.Ez (V/m) @ t=0.82
-0.8882787492145956
% es.tEx (V/m) @ t=0.82
1.7897250518828018
% es.tEy (V/m) @ t=0.82
0
% es.tEz (V/m) @ t=0.82
-0.8882787492145852
% V (V) @ t=0.82
0.009070467135886951
% es.normE (V/m) @ t=0.84
2.01842058815319
% es.EX (V/m) @ t=0.84
1.806910005130057
% es.EY (V/m) @ t=0.84
0.06952155533781296
% es.EZ (V/m) @ t=0.84
-0.8968080076186813
% es.tEX (V/m) @ t=0.84
1.8069100051300557
% es.tEY (V/m) @ t=0.84
0
% es.tEZ (V/m) @ t=0.84
-0.896808007618688
% es.Ex (V/m) @ t=0.84
1.806910005130057
% es.Ey (V/m) @ t=0.84
0.06952155533781296
% es.Ez (V/m) @ t=0.84
-0.8968080076186813
% es.tEx (V/m) @ t=0.84
1.8069100051300557
% es.tEy (V/m) @ t=0.84
0
% es.tEz (V/m) @ t=0.84
-0.896808007618688
% V (V) @ t=0.84
0.009157561810876423
% es.normE (V/m) @ t=0.86
2.037617151757875
% es.EX (V/m) @ t=0.86
1.8240949583773176
% es.EY (V/m) @ t=0.86
0.07018275291208326
% es.EZ (V/m) @ t=0.86
-0.9053372660227899
% es.tEX (V/m) @ t=0.86
1.8240949583773158
% es.tEY (V/m) @ t=0.86
0
% es.tEZ (V/m) @ t=0.86
-0.9053372660227765
% es.Ex (V/m) @ t=0.86
1.8240949583773176
% es.Ey (V/m) @ t=0.86
0.07018275291208326
% es.Ez (V/m) @ t=0.86
-0.9053372660227899
% es.tEx (V/m) @ t=0.86
1.8240949583773158
% es.tEy (V/m) @ t=0.86
0
% es.tEz (V/m) @ t=0.86
-0.9053372660227765
% V (V) @ t=0.86
0.009244656485865891
% es.normE (V/m) @ t=0.88
2.0568137153625745
% es.EX (V/m) @ t=0.88
1.8412799116245844
% es.EY (V/m) @ t=0.88
0.07084395048636596
% es.EZ (V/m) @ t=0.88
-0.9138665244269146
% es.tEX (V/m) @ t=0.88
1.8412799116245964
% es.tEY (V/m) @ t=0.88
0
% es.tEZ (V/m) @ t=0.88
-0.9138665244269077
% es.Ex (V/m) @ t=0.88
1.8412799116245844
% es.Ey (V/m) @ t=0.88
0.07084395048636596
% es.Ez (V/m) @ t=0.88
-0.9138665244269146
% es.tEx (V/m) @ t=0.88
1.8412799116245964
% es.tEy (V/m) @ t=0.88
0
% es.tEz (V/m) @ t=0.88
-0.9138665244269077
% V (V) @ t=0.88
0.009331751160855363
% es.normE (V/m) @ t=0.9
2.0760102789672765
% es.EX (V/m) @ t=0.9
1.8584648648718667
% es.EY (V/m) @ t=0.9
0.0715051480606447
% es.EZ (V/m) @ t=0.9
-0.9223957828310162
% es.tEX (V/m) @ t=0.9
1.8584648648718574
% es.tEY (V/m) @ t=0.9
0
% es.tEZ (V/m) @ t=0.9
-0.9223957828309963
% es.Ex (V/m) @ t=0.9
1.8584648648718667
% es.Ey (V/m) @ t=0.9
0.0715051480606447
% es.Ez (V/m) @ t=0.9
-0.9223957828310162
% es.tEx (V/m) @ t=0.9
1.8584648648718574
% es.tEy (V/m) @ t=0.9
0
% es.tEz (V/m) @ t=0.9
-0.9223957828309963
% V (V) @ t=0.9
0.009418845835844835
% es.normE (V/m) @ t=0.92
2.0952068425719563
% es.EX (V/m) @ t=0.92
1.8756498181191275
% es.EY (V/m) @ t=0.92
0.07216634563491409
% es.EZ (V/m) @ t=0.92
-0.9309250412351107
% es.tEX (V/m) @ t=0.92
1.8756498181191175
% es.tEY (V/m) @ t=0.92
0
% es.tEZ (V/m) @ t=0.92
-0.930925041235092
% es.Ex (V/m) @ t=0.92
1.8756498181191275
% es.Ey (V/m) @ t=0.92
0.07216634563491409
% es.Ez (V/m) @ t=0.92
-0.9309250412351107
% es.tEx (V/m) @ t=0.92
1.8756498181191175
% es.tEy (V/m) @ t=0.92
0
% es.tEz (V/m) @ t=0.92
-0.930925041235092
% V (V) @ t=0.92
0.009505940510834306
% es.normE (V/m) @ t=0.94
2.1144034061766357
% es.EX (V/m) @ t=0.94
1.8928347713663842
% es.EY (V/m) @ t=0.94
0.07282754320919146
% es.EZ (V/m) @ t=0.94
-0.9394542996392123
% es.tEX (V/m) @ t=0.94
1.8928347713663847
% es.tEY (V/m) @ t=0.94
0
% es.tEZ (V/m) @ t=0.94
-0.9394542996391948
% es.Ex (V/m) @ t=0.94
1.8928347713663842
% es.Ey (V/m) @ t=0.94
0.07282754320919146
% es.Ez (V/m) @ t=0.94
-0.9394542996392123
% es.tEx (V/m) @ t=0.94
1.8928347713663847
% es.tEy (V/m) @ t=0.94
0
% es.tEz (V/m) @ t=0.94
-0.9394542996391948
% V (V) @ t=0.94
0.009593035185823776
% es.normE (V/m) @ t=0.96
2.133599969781331
% es.EX (V/m) @ t=0.96
1.9100197246136552
% es.EY (V/m) @ t=0.96
0.07348874078345555
% es.EZ (V/m) @ t=0.96
-0.947983558043321
% es.tEX (V/m) @ t=0.96
1.9100197246136519
% es.tEY (V/m) @ t=0.96
0
% es.tEZ (V/m) @ t=0.96
-0.9479835580433047
% es.Ex (V/m) @ t=0.96
1.9100197246136552
% es.Ey (V/m) @ t=0.96
0.07348874078345555
% es.Ez (V/m) @ t=0.96
-0.947983558043321
% es.tEx (V/m) @ t=0.96
1.9100197246136519
% es.tEy (V/m) @ t=0.96
0
% es.tEz (V/m) @ t=0.96
-0.9479835580433047
% V (V) @ t=0.96
0.009680129860813246
% es.normE (V/m) @ t=0.98
2.1527965333860184
% es.EX (V/m) @ t=0.98
1.9272046778609226
% es.EY (V/m) @ t=0.98
0.07414993835772496
% es.EZ (V/m) @ t=0.98
-0.956512816447419
% es.tEX (V/m) @ t=0.98
1.927204677860912
% es.tEY (V/m) @ t=0.98
0
% es.tEZ (V/m) @ t=0.98
-0.9565128164474075
% es.Ex (V/m) @ t=0.98
1.9272046778609226
% es.Ey (V/m) @ t=0.98
0.07414993835772496
% es.Ez (V/m) @ t=0.98
-0.956512816447419
% es.tEx (V/m) @ t=0.98
1.927204677860912
% es.tEy (V/m) @ t=0.98
0
% es.tEz (V/m) @ t=0.98
-0.9565128164474075
% V (V) @ t=0.98
0.00976722453580272
% es.normE (V/m) @ t=1
2.171993096990704
% es.EX (V/m) @ t=1
1.9443896311081832
% es.EY (V/m) @ t=1
0.07481113593200503
% es.EZ (V/m) @ t=1
-0.9650420748515278
% es.tEX (V/m) @ t=1
1.94438963110818
% es.tEY (V/m) @ t=1
0
% es.tEZ (V/m) @ t=1
-0.9650420748515245
% es.Ex (V/m) @ t=1
1.9443896311081832
% es.Ey (V/m) @ t=1
0.07481113593200503
% es.Ez (V/m) @ t=1
-0.9650420748515278
% es.tEx (V/m) @ t=1
1.94438963110818
% es.tEy (V/m) @ t=1
0
% es.tEz (V/m) @ t=1
-0.9650420748515245
% V (V) @ t=1
0.009854319210792186
% es.normE (V/m) @ t=1.02
2.191189660595378
% es.EX (V/m) @ t=1.02
1.9615745843554397
% es.EY (V/m) @ t=1.02
0.07547233350626995
% es.EZ (V/m) @ t=1.02
-0.9735713332556186
% es.tEX (V/m) @ t=1.02
1.9615745843554473
% es.tEY (V/m) @ t=1.02
0
% es.tEZ (V/m) @ t=1.02
-0.9735713332556202
% es.Ex (V/m) @ t=1.02
1.9615745843554397
% es.Ey (V/m) @ t=1.02
0.07547233350626995
% es.Ez (V/m) @ t=1.02
-0.9735713332556186
% es.tEx (V/m) @ t=1.02
1.9615745843554473
% es.tEy (V/m) @ t=1.02
0
% es.tEz (V/m) @ t=1.02
-0.9735713332556202
% V (V) @ t=1.02
0.00994141388578166
% es.normE (V/m) @ t=1.04
2.2103862242000747
% es.EX (V/m) @ t=1.04
1.9787595376027107
% es.EY (V/m) @ t=1.04
0.07613353108052867
% es.EZ (V/m) @ t=1.04