% Model:              1 neuron.mph
% Version:            COMSOL 6.0.0.405
% Date:               Mar 16 2023, 09:54
% Dimension:          0
% Nodes:              14017
% Expressions:        14017
% Description:        Electric field norm, Electric field, X component, Electric field, Y component, Electric field, Z component, Tangential electric field, X component, Tangential electric field, Y component, Tangential electric field, Z component, Electric field, x component, Electric field, y component, Electric field, z component, Tangential electric field, x component, Tangential electric field, y component, Tangential electric field, z component, Electric potential
% Length unit:        mm
% x
1.66
% y
12.200000000000001
% z
1.66
% es.normE (V/m) @ t=0
20.43583729776038
% es.EX (V/m) @ t=0
-9.650979350845205
% es.EY (V/m) @ t=0
7.743072424611299
% es.EZ (V/m) @ t=0
9.28204387462307
% es.tEX (V/m) @ t=0
-9.650979350845201
% es.tEY (V/m) @ t=0
0
% es.tEZ (V/m) @ t=0
9.28204387462307
% es.Ex (V/m) @ t=0
-9.650979350845205
% es.Ey (V/m) @ t=0
7.743072424611299
% es.Ez (V/m) @ t=0
9.28204387462307
% es.tEx (V/m) @ t=0
-9.650979350845201
% es.tEy (V/m) @ t=0
0
% es.tEz (V/m) @ t=0
9.28204387462307
% V (V) @ t=0
0.006413699360044154
% es.normE (V/m) @ t=0.02
17.650814645390298
% es.EX (V/m) @ t=0.02
-8.335731347682135
% es.EY (V/m) @ t=0.02
6.687836396042609
% es.EZ (V/m) @ t=0.02
8.017074705531243
% es.tEX (V/m) @ t=0.02
-8.335731347682135
% es.tEY (V/m) @ t=0.02
0
% es.tEZ (V/m) @ t=0.02
8.017074705531229
% es.Ex (V/m) @ t=0.02
-8.335731347682135
% es.Ey (V/m) @ t=0.02
6.687836396042609
% es.Ez (V/m) @ t=0.02
8.017074705531243
% es.tEx (V/m) @ t=0.02
-8.335731347682135
% es.tEy (V/m) @ t=0.02
0
% es.tEz (V/m) @ t=0.02
8.017074705531229
% V (V) @ t=0.02
0.0055396320059717535
% es.normE (V/m) @ t=0.04
17.81315538895749
% es.EX (V/m) @ t=0.04
-8.412398731623554
% es.EY (V/m) @ t=0.04
6.749346896460565
% es.EZ (V/m) @ t=0.04
8.090809914307414
% es.tEX (V/m) @ t=0.04
-8.41239873162355
% es.tEY (V/m) @ t=0.04
0
% es.tEZ (V/m) @ t=0.04
8.090809914307385
% es.Ex (V/m) @ t=0.04
-8.412398731623554
% es.Ey (V/m) @ t=0.04
6.749346896460565
% es.Ez (V/m) @ t=0.04
8.090809914307414
% es.tEx (V/m) @ t=0.04
-8.41239873162355
% es.tEy (V/m) @ t=0.04
0
% es.tEz (V/m) @ t=0.04
8.090809914307385
% V (V) @ t=0.04
0.00559058185892853
% es.normE (V/m) @ t=0.06
17.97694754786608
% es.EX (V/m) @ t=0.06
-8.489751824278663
% es.EY (V/m) @ t=0.06
6.811407376947674
% es.EZ (V/m) @ t=0.06
8.165204128608963
% es.tEX (V/m) @ t=0.06
-8.489751824278663
% es.tEY (V/m) @ t=0.06
0
% es.tEZ (V/m) @ t=0.06
8.165204128608963
% es.Ex (V/m) @ t=0.06
-8.489751824278663
% es.Ey (V/m) @ t=0.06
6.811407376947674
% es.Ez (V/m) @ t=0.06
8.165204128608963
% es.tEx (V/m) @ t=0.06
-8.489751824278663
% es.tEy (V/m) @ t=0.06
0
% es.tEz (V/m) @ t=0.06
8.165204128608963
% V (V) @ t=0.06
0.005641987199554156
% es.normE (V/m) @ t=0.08
18.143270733586142
% es.EX (V/m) @ t=0.08
-8.568299177419242
% es.EY (V/m) @ t=0.08
6.874426686668503
% es.EZ (V/m) @ t=0.08
8.24074885482181
% es.tEX (V/m) @ t=0.08
-8.568299177419252
% es.tEY (V/m) @ t=0.08
0
% es.tEZ (V/m) @ t=0.08
8.240748854821817
% es.Ex (V/m) @ t=0.08
-8.568299177419242
% es.Ey (V/m) @ t=0.08
6.874426686668503
% es.Ez (V/m) @ t=0.08
8.24074885482181
% es.tEx (V/m) @ t=0.08
-8.568299177419252
% es.tEy (V/m) @ t=0.08
0
% es.tEz (V/m) @ t=0.08
8.240748854821817
% V (V) @ t=0.08
0.005694187017474198
% es.normE (V/m) @ t=0.1
18.31130230215817
% es.EX (V/m) @ t=0.1
-8.647652627960639
% es.EY (V/m) @ t=0.1
6.938093183299131
% es.EZ (V/m) @ t=0.1
8.317070149189249
% es.tEX (V/m) @ t=0.1
-8.647652627960639
% es.tEY (V/m) @ t=0.1
0
% es.tEZ (V/m) @ t=0.1
8.317070149189249
% es.Ex (V/m) @ t=0.1
-8.647652627960639
% es.Ey (V/m) @ t=0.1
6.938093183299131
% es.Ez (V/m) @ t=0.1
8.317070149189249
% es.tEx (V/m) @ t=0.1
-8.647652627960639
% es.tEy (V/m) @ t=0.1
0
% es.tEz (V/m) @ t=0.1
8.317070149189249
% V (V) @ t=0.1
0.005746923088657109
% es.normE (V/m) @ t=0.12
18.47933387073028
% es.EX (V/m) @ t=0.12
-8.727006078502065
% es.EY (V/m) @ t=0.12
7.00175967992978
% es.EZ (V/m) @ t=0.12
8.393391443556688
% es.tEX (V/m) @ t=0.12
-8.727006078502054
% es.tEY (V/m) @ t=0.12
0
% es.tEZ (V/m) @ t=0.12
8.393391443556709
% es.Ex (V/m) @ t=0.12
-8.727006078502065
% es.Ey (V/m) @ t=0.12
7.00175967992978
% es.Ez (V/m) @ t=0.12
8.393391443556688
% es.tEx (V/m) @ t=0.12
-8.727006078502054
% es.tEy (V/m) @ t=0.12
0
% es.tEz (V/m) @ t=0.12
8.393391443556709
% V (V) @ t=0.12
0.005799659159840019
% es.normE (V/m) @ t=0.14
18.649163500843475
% es.EX (V/m) @ t=0.14
-8.807213000514338
% es.EY (V/m) @ t=0.14
7.066108159133343
% es.EZ (V/m) @ t=0.14
8.470525628476704
% es.tEX (V/m) @ t=0.14
-8.807213000514341
% es.tEY (V/m) @ t=0.14
0
% es.tEZ (V/m) @ t=0.14
8.470525628476707
% es.Ex (V/m) @ t=0.14
-8.807213000514338
% es.Ey (V/m) @ t=0.14
7.066108159133343
% es.Ez (V/m) @ t=0.14
8.470525628476704
% es.tEx (V/m) @ t=0.14
-8.807213000514341
% es.tEy (V/m) @ t=0.14
0
% es.tEz (V/m) @ t=0.14
8.470525628476707
% V (V) @ t=0.14
0.005852959025339951
% es.normE (V/m) @ t=0.16
18.82600964300864
% es.EX (V/m) @ t=0.16
-8.890750394093935
% es.EY (V/m) @ t=0.16
7.133117914836703
% es.EZ (V/m) @ t=0.16
8.550831927480164
% es.tEX (V/m) @ t=0.16
-8.890750394093939
% es.tEY (V/m) @ t=0.16
0
% es.tEZ (V/m) @ t=0.16
8.550831927480175
% es.Ex (V/m) @ t=0.16
-8.890750394093935
% es.Ey (V/m) @ t=0.16
7.133117914836703
% es.Ez (V/m) @ t=0.16
8.550831927480164
% es.tEx (V/m) @ t=0.16
-8.890750394093939
% es.tEy (V/m) @ t=0.16
0
% es.tEz (V/m) @ t=0.16
8.550831927480175
% V (V) @ t=0.16
0.005908458965484174
% es.normE (V/m) @ t=0.18
19.00285578521687
% es.EX (V/m) @ t=0.18
-8.974287787673482
% es.EY (V/m) @ t=0.18
7.200127670540034
% es.EZ (V/m) @ t=0.18
8.631138226483603
% es.tEX (V/m) @ t=0.18
-8.974287787673497
% es.tEY (V/m) @ t=0.18
0
% es.tEZ (V/m) @ t=0.18
8.631138226483614
% es.Ex (V/m) @ t=0.18
-8.974287787673482
% es.Ey (V/m) @ t=0.18
7.200127670540034
% es.Ez (V/m) @ t=0.18
8.631138226483603
% es.tEx (V/m) @ t=0.18
-8.974287787673497
% es.tEy (V/m) @ t=0.18
0
% es.tEz (V/m) @ t=0.18
8.631138226483614
% V (V) @ t=0.18
0.005963958905628396
% es.normE (V/m) @ t=0.2
19.179701927466997
% es.EX (V/m) @ t=0.2
-9.057825181253072
% es.EY (V/m) @ t=0.2
7.267137426243384
% es.EZ (V/m) @ t=0.2
8.711444525487053
% es.tEX (V/m) @ t=0.2
-9.057825181253076
% es.tEY (V/m) @ t=0.2
0
% es.tEZ (V/m) @ t=0.2
8.711444525487053
% es.Ex (V/m) @ t=0.2
-9.057825181253072
% es.Ey (V/m) @ t=0.2
7.267137426243384
% es.Ez (V/m) @ t=0.2
8.711444525487053
% es.tEx (V/m) @ t=0.2
-9.057825181253076
% es.tEy (V/m) @ t=0.2
0
% es.tEz (V/m) @ t=0.2
8.711444525487053
% V (V) @ t=0.2
0.00601945884577262
% es.normE (V/m) @ t=0.22
19.35654806975785
% es.EX (V/m) @ t=0.22
-9.141362574832648
% es.EY (V/m) @ t=0.22
7.33414718194669
% es.EZ (V/m) @ t=0.22
8.791750824490475
% es.tEX (V/m) @ t=0.22
-9.141362574832648
% es.tEY (V/m) @ t=0.22
0
% es.tEZ (V/m) @ t=0.22
8.791750824490464
% es.Ex (V/m) @ t=0.22
-9.141362574832648
% es.Ey (V/m) @ t=0.22
7.33414718194669
% es.Ez (V/m) @ t=0.22
8.791750824490475
% es.tEx (V/m) @ t=0.22
-9.141362574832648
% es.tEy (V/m) @ t=0.22
0
% es.tEz (V/m) @ t=0.22
8.791750824490464
% V (V) @ t=0.22
0.006074958785916843
% es.normE (V/m) @ t=0.24
19.53339421208839
% es.EX (V/m) @ t=0.24
-9.224899968412203
% es.EY (V/m) @ t=0.24
7.401156937650047
% es.EZ (V/m) @ t=0.24
8.872057123493924
% es.tEX (V/m) @ t=0.24
-9.22489996841221
% es.tEY (V/m) @ t=0.24
0
% es.tEZ (V/m) @ t=0.24
8.872057123493931
% es.Ex (V/m) @ t=0.24
-9.224899968412203
% es.Ey (V/m) @ t=0.24
7.401156937650047
% es.Ez (V/m) @ t=0.24
8.872057123493924
% es.tEx (V/m) @ t=0.24
-9.22489996841221
% es.tEy (V/m) @ t=0.24
0
% es.tEz (V/m) @ t=0.24
8.872057123493931
% V (V) @ t=0.24
0.006130458726061067
% es.normE (V/m) @ t=0.26
19.710240354457493
% es.EX (V/m) @ t=0.26
-9.308437361991778
% es.EY (V/m) @ t=0.26
7.468166693353371
% es.EZ (V/m) @ t=0.26
8.95236342249736
% es.tEX (V/m) @ t=0.26
-9.308437361991793
% es.tEY (V/m) @ t=0.26
0
% es.tEZ (V/m) @ t=0.26
8.952363422497342
% es.Ex (V/m) @ t=0.26
-9.308437361991778
% es.Ey (V/m) @ t=0.26
7.468166693353371
% es.Ez (V/m) @ t=0.26
8.95236342249736
% es.tEx (V/m) @ t=0.26
-9.308437361991793
% es.tEy (V/m) @ t=0.26
0
% es.tEz (V/m) @ t=0.26
8.952363422497342
% V (V) @ t=0.26
0.006185958666205291
% es.normE (V/m) @ t=0.28
19.895662299395397
% es.EX (V/m) @ t=0.28
-9.395997890857515
% es.EY (V/m) @ t=0.28
7.538421428068116
% es.EZ (V/m) @ t=0.28
9.036588475190932
% es.tEX (V/m) @ t=0.28
-9.395997890857501
% es.tEY (V/m) @ t=0.28
0
% es.tEZ (V/m) @ t=0.28
9.03658847519091
% es.Ex (V/m) @ t=0.28
-9.395997890857515
% es.Ey (V/m) @ t=0.28
7.538421428068116
% es.Ez (V/m) @ t=0.28
9.036588475190932
% es.tEx (V/m) @ t=0.28
-9.395997890857501
% es.tEy (V/m) @ t=0.28
0
% es.tEz (V/m) @ t=0.28
9.03658847519091
% V (V) @ t=0.28
0.00624415330681966
% es.normE (V/m) @ t=0.3
20.093028876795383
% es.EX (V/m) @ t=0.3
-9.489161961962829
% es.EY (V/m) @ t=0.3
7.613195865866224
% es.EZ (V/m) @ t=0.3
9.126271684338956
% es.tEX (V/m) @ t=0.3
-9.48916196196285
% es.tEY (V/m) @ t=0.3
0
% es.tEZ (V/m) @ t=0.3
9.126271684338974
% es.Ex (V/m) @ t=0.3
-9.489161961962829
% es.Ey (V/m) @ t=0.3
7.613195865866224
% es.Ez (V/m) @ t=0.3
9.126271684338956
% es.tEx (V/m) @ t=0.3
-9.48916196196285
% es.tEy (V/m) @ t=0.3
0
% es.tEz (V/m) @ t=0.3
9.126271684338974
% V (V) @ t=0.3
0.0063061012062319306
% es.normE (V/m) @ t=0.32
20.29039545439124
% es.EX (V/m) @ t=0.32
-9.582326033068234
% es.EY (V/m) @ t=0.32
7.687970303664379
% es.EZ (V/m) @ t=0.32
9.215954893487073
% es.tEX (V/m) @ t=0.32
-9.582326033068206
% es.tEY (V/m) @ t=0.32
0
% es.tEZ (V/m) @ t=0.32
9.215954893487066
% es.Ex (V/m) @ t=0.32
-9.582326033068234
% es.Ey (V/m) @ t=0.32
7.687970303664379
% es.Ez (V/m) @ t=0.32
9.215954893487073
% es.tEx (V/m) @ t=0.32
-9.582326033068206
% es.tEy (V/m) @ t=0.32
0
% es.tEz (V/m) @ t=0.32
9.215954893487066
% V (V) @ t=0.32
0.006368049105644201
% es.normE (V/m) @ t=0.34
20.48776203217716
% es.EX (V/m) @ t=0.34
-9.675490104173576
% es.EY (V/m) @ t=0.34
7.762744741462491
% es.EZ (V/m) @ t=0.34
9.305638102635115
% es.tEX (V/m) @ t=0.34
-9.67549010417357
% es.tEY (V/m) @ t=0.34
0
% es.tEZ (V/m) @ t=0.34
9.305638102635129
% es.Ex (V/m) @ t=0.34
-9.675490104173576
% es.Ey (V/m) @ t=0.34
7.762744741462491
% es.Ez (V/m) @ t=0.34
9.305638102635115
% es.tEx (V/m) @ t=0.34
-9.67549010417357
% es.tEy (V/m) @ t=0.34
0
% es.tEz (V/m) @ t=0.34
9.305638102635129
% V (V) @ t=0.34
0.0064299970050564715
% es.normE (V/m) @ t=0.36
20.685128610147775
% es.EX (V/m) @ t=0.36
-9.768654175278947
% es.EY (V/m) @ t=0.36
7.837519179260596
% es.EZ (V/m) @ t=0.36
9.395321311783217
% es.tEX (V/m) @ t=0.36
-9.76865417527894
% es.tEY (V/m) @ t=0.36
0
% es.tEZ (V/m) @ t=0.36
9.39532131178322
% es.Ex (V/m) @ t=0.36
-9.768654175278947
% es.Ey (V/m) @ t=0.36
7.837519179260596
% es.Ez (V/m) @ t=0.36
9.395321311783217
% es.tEx (V/m) @ t=0.36
-9.76865417527894
% es.tEy (V/m) @ t=0.36
0
% es.tEz (V/m) @ t=0.36
9.39532131178322
% V (V) @ t=0.36
0.006491944904468742
% es.normE (V/m) @ t=0.38
20.88249518829789
% es.EX (V/m) @ t=0.38
-9.861818246384345
% es.EY (V/m) @ t=0.38
7.912293617058751
% es.EZ (V/m) @ t=0.38
9.485004520931316
% es.tEX (V/m) @ t=0.38
-9.861818246384338
% es.tEY (V/m) @ t=0.38
0
% es.tEZ (V/m) @ t=0.38
9.485004520931312
% es.Ex (V/m) @ t=0.38
-9.861818246384345
% es.Ey (V/m) @ t=0.38
7.912293617058751
% es.Ez (V/m) @ t=0.38
9.485004520931316
% es.tEx (V/m) @ t=0.38
-9.861818246384338
% es.tEy (V/m) @ t=0.38
0
% es.tEz (V/m) @ t=0.38
9.485004520931312
% V (V) @ t=0.38
0.006553892803881012
% es.normE (V/m) @ t=0.4
21.079861766622294
% es.EX (V/m) @ t=0.4
-9.954982317489723
% es.EY (V/m) @ t=0.4
7.987068054856863
% es.EZ (V/m) @ t=0.4
9.574687730079358
% es.tEX (V/m) @ t=0.4
-9.954982317489716
% es.tEY (V/m) @ t=0.4
0
% es.tEZ (V/m) @ t=0.4
9.574687730079376
% es.Ex (V/m) @ t=0.4
-9.954982317489723
% es.Ey (V/m) @ t=0.4
7.987068054856863
% es.Ez (V/m) @ t=0.4
9.574687730079358
% es.tEx (V/m) @ t=0.4
-9.954982317489716
% es.tEy (V/m) @ t=0.4
0
% es.tEz (V/m) @ t=0.4
9.574687730079376
% V (V) @ t=0.4
0.006615840703293284
% es.normE (V/m) @ t=0.42
21.277228345116313
% es.EX (V/m) @ t=0.42
-10.048146388595093
% es.EY (V/m) @ t=0.42
8.061842492655003
% es.EZ (V/m) @ t=0.42
9.664370939227442
% es.tEX (V/m) @ t=0.42
-10.048146388595079
% es.tEY (V/m) @ t=0.42
0
% es.tEZ (V/m) @ t=0.42
9.664370939227467
% es.Ex (V/m) @ t=0.42
-10.048146388595093
% es.Ey (V/m) @ t=0.42
8.061842492655003
% es.Ez (V/m) @ t=0.42
9.664370939227442
% es.tEx (V/m) @ t=0.42
-10.048146388595079
% es.tEy (V/m) @ t=0.42
0
% es.tEz (V/m) @ t=0.42
9.664370939227467
% V (V) @ t=0.42
0.006677788602705554
% es.normE (V/m) @ t=0.44
21.474594923775214
% es.EX (V/m) @ t=0.44
-10.14131045970047
% es.EY (V/m) @ t=0.44
8.136616930453116
% es.EZ (V/m) @ t=0.44
9.754054148375545
% es.tEX (V/m) @ t=0.44
-10.141310459700463
% es.tEY (V/m) @ t=0.44
0
% es.tEZ (V/m) @ t=0.44
9.754054148375559
% es.Ex (V/m) @ t=0.44
-10.14131045970047
% es.Ey (V/m) @ t=0.44
8.136616930453116
% es.Ez (V/m) @ t=0.44
9.754054148375545
% es.tEx (V/m) @ t=0.44
-10.141310459700463
% es.tEy (V/m) @ t=0.44
0
% es.tEz (V/m) @ t=0.44
9.754054148375559
% V (V) @ t=0.44
0.006739736502117824
% es.normE (V/m) @ t=0.46
21.67196150259443
% es.EX (V/m) @ t=0.46
-10.234474530805834
% es.EY (V/m) @ t=0.46
8.211391368251238
% es.EZ (V/m) @ t=0.46
9.843737357523587
% es.tEX (V/m) @ t=0.46
-10.23447453080582
% es.tEY (V/m) @ t=0.46
0
% es.tEZ (V/m) @ t=0.46
9.843737357523594
% es.Ex (V/m) @ t=0.46
-10.234474530805834
% es.Ey (V/m) @ t=0.46
8.211391368251238
% es.Ez (V/m) @ t=0.46
9.843737357523587
% es.tEx (V/m) @ t=0.46
-10.23447453080582
% es.tEy (V/m) @ t=0.46
0
% es.tEz (V/m) @ t=0.46
9.843737357523594
% V (V) @ t=0.46
0.006801684401530095
% es.normE (V/m) @ t=0.48
21.86932808156969
% es.EX (V/m) @ t=0.48
-10.32763860191119
% es.EY (V/m) @ t=0.48
8.286165806049393
% es.EZ (V/m) @ t=0.48
9.933420566671707
% es.tEX (V/m) @ t=0.48
-10.327638601911175
% es.tEY (V/m) @ t=0.48
0
% es.tEZ (V/m) @ t=0.48
9.933420566671685
% es.Ex (V/m) @ t=0.48
-10.32763860191119
% es.Ey (V/m) @ t=0.48
8.286165806049393
% es.Ez (V/m) @ t=0.48
9.933420566671707
% es.tEx (V/m) @ t=0.48
-10.327638601911175
% es.tEy (V/m) @ t=0.48
0
% es.tEz (V/m) @ t=0.48
9.933420566671685
% V (V) @ t=0.48
0.006863632300942366
% es.normE (V/m) @ t=0.5
22.06669466069681
% es.EX (V/m) @ t=0.5
-10.420802673016574
% es.EY (V/m) @ t=0.5
8.360940243847487
% es.EZ (V/m) @ t=0.5
10.023103775819774
% es.tEX (V/m) @ t=0.5
-10.420802673016567
% es.tEY (V/m) @ t=0.5
0
% es.tEZ (V/m) @ t=0.5
10.023103775819777
% es.Ex (V/m) @ t=0.5
-10.420802673016574
% es.Ey (V/m) @ t=0.5
8.360940243847487
% es.Ez (V/m) @ t=0.5
10.023103775819774
% es.tEx (V/m) @ t=0.5
-10.420802673016567
% es.tEy (V/m) @ t=0.5
0
% es.tEz (V/m) @ t=0.5
10.023103775819777
% V (V) @ t=0.5
0.006925580200354636
% es.normE (V/m) @ t=0.52
22.264061239971703
% es.EX (V/m) @ t=0.52
-10.513966744121944
% es.EY (V/m) @ t=0.52
8.435714681645628
% es.EZ (V/m) @ t=0.52
10.11278698496783
% es.tEX (V/m) @ t=0.52
-10.51396674412193
% es.tEY (V/m) @ t=0.52
0
% es.tEZ (V/m) @ t=0.52
10.11278698496784
% es.Ex (V/m) @ t=0.52
-10.513966744121944
% es.Ey (V/m) @ t=0.52
8.435714681645628
% es.Ez (V/m) @ t=0.52
10.11278698496783
% es.tEx (V/m) @ t=0.52
-10.51396674412193
% es.tEy (V/m) @ t=0.52
0
% es.tEz (V/m) @ t=0.52
10.11278698496784
% V (V) @ t=0.52
0.006987528099766908
% es.normE (V/m) @ t=0.54
22.46142781939055
% es.EX (V/m) @ t=0.54
-10.607130815227336
% es.EY (V/m) @ t=0.54
8.510489119443726
% es.EZ (V/m) @ t=0.54
10.202470194115946
% es.tEX (V/m) @ t=0.54
-10.607130815227325
% es.tEY (V/m) @ t=0.54
0
% es.tEZ (V/m) @ t=0.54
10.202470194115989
% es.Ex (V/m) @ t=0.54
-10.607130815227336
% es.Ey (V/m) @ t=0.54
8.510489119443726
% es.Ez (V/m) @ t=0.54
10.202470194115946
% es.tEx (V/m) @ t=0.54
-10.607130815227325
% es.tEy (V/m) @ t=0.54
0
% es.tEz (V/m) @ t=0.54
10.202470194115989
% V (V) @ t=0.54
0.007049475999179178
% es.normE (V/m) @ t=0.56
22.677543072178164
% es.EX (V/m) @ t=0.56
-10.709235062566627
% es.EY (V/m) @ t=0.56
8.59238134074726
% es.EZ (V/m) @ t=0.56
10.300593584259033
% es.tEX (V/m) @ t=0.56
-10.70923506256662
% es.tEY (V/m) @ t=0.56
0
% es.tEZ (V/m) @ t=0.56
10.30059358425899
% es.Ex (V/m) @ t=0.56
-10.709235062566627
% es.Ey (V/m) @ t=0.56
8.59238134074726
% es.Ez (V/m) @ t=0.56
10.300593584259033
% es.tEx (V/m) @ t=0.56
-10.70923506256662
% es.tEy (V/m) @ t=0.56
0
% es.tEz (V/m) @ t=0.56
10.30059358425899
% V (V) @ t=0.56
0.0071172977997143935
% es.normE (V/m) @ t=0.58
22.89707720416629
% es.EX (V/m) @ t=0.58
-10.812969578851174
% es.EY (V/m) @ t=0.58
8.67557151201325
% es.EZ (V/m) @ t=0.58
10.400256067660262
% es.tEX (V/m) @ t=0.58
-10.812969578851174
% es.tEY (V/m) @ t=0.58
0
% es.tEZ (V/m) @ t=0.58
10.40025606766028
% es.Ex (V/m) @ t=0.58
-10.812969578851174
% es.Ey (V/m) @ t=0.58
8.67557151201325
% es.Ez (V/m) @ t=0.58
10.400256067660262
% es.tEx (V/m) @ t=0.58
-10.812969578851174
% es.tEy (V/m) @ t=0.58
0
% es.tEz (V/m) @ t=0.58
10.40025606766028
% V (V) @ t=0.58
0.007186190724390505
% es.normE (V/m) @ t=0.6
23.11661133647874
% es.EX (V/m) @ t=0.6
-10.91670409513565
% es.EY (V/m) @ t=0.6
8.758761683279232
% es.EZ (V/m) @ t=0.6
10.499918551061416
% es.tEX (V/m) @ t=0.6
-10.91670409513565
% es.tEY (V/m) @ t=0.6
0
% es.tEZ (V/m) @ t=0.6
10.499918551061427
% es.Ex (V/m) @ t=0.6
-10.91670409513565
% es.Ey (V/m) @ t=0.6
8.758761683279232
% es.Ez (V/m) @ t=0.6
10.499918551061416
% es.tEx (V/m) @ t=0.6
-10.91670409513565
% es.tEy (V/m) @ t=0.6
0
% es.tEz (V/m) @ t=0.6
10.499918551061427
% V (V) @ t=0.6
0.007255083649066618
% es.normE (V/m) @ t=0.62
23.33614546910649
% es.EX (V/m) @ t=0.62
-11.020438611420182
% es.EY (V/m) @ t=0.62
8.841951854545258
% es.EZ (V/m) @ t=0.62
10.59958103446263
% es.tEX (V/m) @ t=0.62
-11.020438611420182
% es.tEY (V/m) @ t=0.62
0
% es.tEZ (V/m) @ t=0.62
10.59958103446263
% es.Ex (V/m) @ t=0.62
-11.020438611420182
% es.Ey (V/m) @ t=0.62
8.841951854545258
% es.Ez (V/m) @ t=0.62
10.59958103446263
% es.tEx (V/m) @ t=0.62
-11.020438611420182
% es.tEy (V/m) @ t=0.62
0
% es.tEz (V/m) @ t=0.62
10.59958103446263
% V (V) @ t=0.62
0.0073239765737427315
% es.normE (V/m) @ t=0.64
23.55567960204066
% es.EX (V/m) @ t=0.64
-11.12417312770473
% es.EY (V/m) @ t=0.64
8.925142025811269
% es.EZ (V/m) @ t=0.64
10.699243517863856
% es.tEX (V/m) @ t=0.64
-11.124173127704736
% es.tEY (V/m) @ t=0.64
0
% es.tEZ (V/m) @ t=0.64
10.699243517863835
% es.Ex (V/m) @ t=0.64
-11.12417312770473
% es.Ey (V/m) @ t=0.64
8.925142025811269
% es.Ez (V/m) @ t=0.64
10.699243517863856
% es.tEx (V/m) @ t=0.64
-11.124173127704736
% es.tEy (V/m) @ t=0.64
0
% es.tEz (V/m) @ t=0.64
10.699243517863835
% V (V) @ t=0.64
0.0073928694984188425
% es.normE (V/m) @ t=0.66
23.775213735272793
% es.EX (V/m) @ t=0.66
-11.227907643989276
% es.EY (V/m) @ t=0.66
9.008332197077284
% es.EZ (V/m) @ t=0.66
10.798906001265095
% es.tEX (V/m) @ t=0.66
-11.227907643989276
% es.tEY (V/m) @ t=0.66
0
% es.tEZ (V/m) @ t=0.66
10.798906001265067
% es.Ex (V/m) @ t=0.66
-11.227907643989276
% es.Ey (V/m) @ t=0.66
9.008332197077284
% es.Ez (V/m) @ t=0.66
10.798906001265095
% es.tEx (V/m) @ t=0.66
-11.227907643989276
% es.tEy (V/m) @ t=0.66
0
% es.tEz (V/m) @ t=0.66
10.798906001265067
% V (V) @ t=0.66
0.007461762423094956
% es.normE (V/m) @ t=0.68
23.9947478687946
% es.EX (V/m) @ t=0.68
-11.331642160273802
% es.EY (V/m) @ t=0.68
9.091522368343298
% es.EZ (V/m) @ t=0.68
10.898568484666296
% es.tEX (V/m) @ t=0.68
-11.331642160273802
% es.tEY (V/m) @ t=0.68
0
% es.tEZ (V/m) @ t=0.68
10.8985684846663
% es.Ex (V/m) @ t=0.68
-11.331642160273802
% es.Ey (V/m) @ t=0.68
9.091522368343298
% es.Ez (V/m) @ t=0.68
10.898568484666296
% es.tEx (V/m) @ t=0.68
-11.331642160273802
% es.tEy (V/m) @ t=0.68
0
% es.tEz (V/m) @ t=0.68
10.8985684846663
% V (V) @ t=0.68
0.007530655347771067
% es.normE (V/m) @ t=0.7
24.214282002598353
% es.EX (V/m) @ t=0.7
-11.435376676558334
% es.EY (V/m) @ t=0.7
9.174712539609292
% es.EZ (V/m) @ t=0.7
10.998230968067535
% es.tEX (V/m) @ t=0.7
-11.435376676558327
% es.tEY (V/m) @ t=0.7
0
% es.tEZ (V/m) @ t=0.7
10.998230968067531
% es.Ex (V/m) @ t=0.7
-11.435376676558334
% es.Ey (V/m) @ t=0.7
9.174712539609292
% es.Ez (V/m) @ t=0.7
10.998230968067535
% es.tEx (V/m) @ t=0.7
-11.435376676558327
% es.tEy (V/m) @ t=0.7
0
% es.tEz (V/m) @ t=0.7
10.998230968067531
% V (V) @ t=0.7
0.00759954827244718
% es.normE (V/m) @ t=0.72
24.433816136676338
% es.EX (V/m) @ t=0.72
-11.539111192842881
% es.EY (V/m) @ t=0.72
9.257902710875324
% es.EZ (V/m) @ t=0.72
11.097893451468735
% es.tEX (V/m) @ t=0.72
-11.539111192842867
% es.tEY (V/m) @ t=0.72
0
% es.tEZ (V/m) @ t=0.72
11.097893451468735
% es.Ex (V/m) @ t=0.72
-11.539111192842881
% es.Ey (V/m) @ t=0.72
9.257902710875324
% es.Ez (V/m) @ t=0.72
11.097893451468735
% es.tEx (V/m) @ t=0.72
-11.539111192842867
% es.tEy (V/m) @ t=0.72
0
% es.tEz (V/m) @ t=0.72
11.097893451468735
% V (V) @ t=0.72
0.007668441197123293
% es.normE (V/m) @ t=0.74
24.653350271021267
% es.EX (V/m) @ t=0.74
-11.642845709127414
% es.EY (V/m) @ t=0.74
9.341092882141325
% es.EZ (V/m) @ t=0.74
11.197555934869975
% es.tEX (V/m) @ t=0.74
-11.642845709127414
% es.tEY (V/m) @ t=0.74
0
% es.tEZ (V/m) @ t=0.74
11.19755593486994
% es.Ex (V/m) @ t=0.74
-11.642845709127414
% es.Ey (V/m) @ t=0.74
9.341092882141325
% es.Ez (V/m) @ t=0.74
11.197555934869975
% es.tEx (V/m) @ t=0.74
-11.642845709127414
% es.tEy (V/m) @ t=0.74
0
% es.tEz (V/m) @ t=0.74
11.19755593486994
% V (V) @ t=0.74
0.007737334121799406
% es.normE (V/m) @ t=0.76
24.87288440562604
% es.EX (V/m) @ t=0.76
-11.746580225411925
% es.EY (V/m) @ t=0.76
9.424283053407326
% es.EZ (V/m) @ t=0.76
11.297218418271143
% es.tEX (V/m) @ t=0.76
-11.746580225411947
% es.tEY (V/m) @ t=0.76
0
% es.tEZ (V/m) @ t=0.76
11.297218418271115
% es.Ex (V/m) @ t=0.76
-11.746580225411925
% es.Ey (V/m) @ t=0.76
9.424283053407326
% es.Ez (V/m) @ t=0.76
11.297218418271143
% es.tEx (V/m) @ t=0.76
-11.746580225411947
% es.tEy (V/m) @ t=0.76
0
% es.tEz (V/m) @ t=0.76
11.297218418271115
% V (V) @ t=0.76
0.0078062270464755185
% es.normE (V/m) @ t=0.78
25.09241854048391
% es.EX (V/m) @ t=0.78
-11.850314741696458
% es.EY (V/m) @ t=0.78
9.507473224673323
% es.EZ (V/m) @ t=0.78
11.396880901672386
% es.tEX (V/m) @ t=0.78
-11.850314741696465
% es.tEY (V/m) @ t=0.78
0
% es.tEZ (V/m) @ t=0.78
11.396880901672404
% es.Ex (V/m) @ t=0.78
-11.850314741696458
% es.Ey (V/m) @ t=0.78
9.507473224673323
% es.Ez (V/m) @ t=0.78
11.396880901672386
% es.tEx (V/m) @ t=0.78
-11.850314741696465
% es.tEy (V/m) @ t=0.78
0
% es.tEz (V/m) @ t=0.78
11.396880901672404
% V (V) @ t=0.78
0.007875119971151631
% es.normE (V/m) @ t=0.8
25.311952675588195
% es.EX (V/m) @ t=0.8
-11.954049257980977
% es.EY (V/m) @ t=0.8
9.590663395939323
% es.EZ (V/m) @ t=0.8
11.496543385073586
% es.tEX (V/m) @ t=0.8
-11.954049257980977
% es.tEY (V/m) @ t=0.8
0
% es.tEZ (V/m) @ t=0.8
11.49654338507358
% es.Ex (V/m) @ t=0.8
-11.954049257980977
% es.Ey (V/m) @ t=0.8
9.590663395939323
% es.Ez (V/m) @ t=0.8
11.496543385073586
% es.tEx (V/m) @ t=0.8
-11.954049257980977
% es.tEy (V/m) @ t=0.8
0
% es.tEz (V/m) @ t=0.8
11.49654338507358
% V (V) @ t=0.8
0.007944012895827742
% es.normE (V/m) @ t=0.82
25.538679496030248
% es.EX (V/m) @ t=0.82
-12.061162746484072
% es.EY (V/m) @ t=0.82
9.676575956047508
% es.EZ (V/m) @ t=0.82
11.59948849098356
% es.tEX (V/m) @ t=0.82
-12.06116274648408
% es.tEY (V/m) @ t=0.82
0
% es.tEZ (V/m) @ t=0.82
11.59948849098356
% es.Ex (V/m) @ t=0.82
-12.061162746484072
% es.Ey (V/m) @ t=0.82
9.676575956047508
% es.Ez (V/m) @ t=0.82
11.59948849098356
% es.tEx (V/m) @ t=0.82
-12.06116274648408
% es.tEy (V/m) @ t=0.82
0
% es.tEz (V/m) @ t=0.82
11.59948849098356
% V (V) @ t=0.82
0.00801516534148944
% es.normE (V/m) @ t=0.84
25.784500110116376
% es.EX (V/m) @ t=0.84
-12.177246097713883
% es.EY (V/m) @ t=0.84
9.769715404281435
% es.EZ (V/m) @ t=0.84
11.711147688452304
% es.tEX (V/m) @ t=0.84
-12.177246097713912
% es.tEY (V/m) @ t=0.84
0
% es.tEZ (V/m) @ t=0.84
11.711147688452286
% es.Ex (V/m) @ t=0.84
-12.177246097713883
% es.Ey (V/m) @ t=0.84
9.769715404281435
% es.Ez (V/m) @ t=0.84
11.711147688452304
% es.tEx (V/m) @ t=0.84
-12.177246097713912
% es.tEy (V/m) @ t=0.84
0
% es.tEz (V/m) @ t=0.84
11.711147688452286
% V (V) @ t=0.84
0.008092315940363987
% es.normE (V/m) @ t=0.86
26.030320724210682
% es.EX (V/m) @ t=0.86
-12.293329448943673
% es.EY (V/m) @ t=0.86
9.862854852515355
% es.EZ (V/m) @ t=0.86
11.822806885920972
% es.tEX (V/m) @ t=0.86
-12.293329448943666
% es.tEY (V/m) @ t=0.86
0
% es.tEZ (V/m) @ t=0.86
11.822806885920983
% es.Ex (V/m) @ t=0.86
-12.293329448943673
% es.Ey (V/m) @ t=0.86
9.862854852515355
% es.Ez (V/m) @ t=0.86
11.822806885920972
% es.tEx (V/m) @ t=0.86
-12.293329448943666
% es.tEy (V/m) @ t=0.86
0
% es.tEz (V/m) @ t=0.86
11.822806885920983
% V (V) @ t=0.86
0.008169466539238536
% es.normE (V/m) @ t=0.88
26.276141338313067
% es.EX (V/m) @ t=0.88
-12.409412800173477
% es.EY (V/m) @ t=0.88
9.955994300749182
% es.EZ (V/m) @ t=0.88
11.934466083389712
% es.tEX (V/m) @ t=0.88
-12.409412800173484
% es.tEY (V/m) @ t=0.88
0
% es.tEZ (V/m) @ t=0.88
11.934466083389708
% es.Ex (V/m) @ t=0.88
-12.409412800173477
% es.Ey (V/m) @ t=0.88
9.955994300749182
% es.Ez (V/m) @ t=0.88
11.934466083389712
% es.tEx (V/m) @ t=0.88
-12.409412800173484
% es.tEy (V/m) @ t=0.88
0
% es.tEz (V/m) @ t=0.88
11.934466083389708
% V (V) @ t=0.88
0.008246617138113083
% es.normE (V/m) @ t=0.9
26.521961952423233
% es.EX (V/m) @ t=0.9
-12.525496151403246
% es.EY (V/m) @ t=0.9
10.049133748983152
% es.EZ (V/m) @ t=0.9
12.046125280858398
% es.tEX (V/m) @ t=0.9
-12.525496151403225
% es.tEY (V/m) @ t=0.9
0
% es.tEZ (V/m) @ t=0.9
12.046125280858405
% es.Ex (V/m) @ t=0.9
-12.525496151403246
% es.Ey (V/m) @ t=0.9
10.049133748983152
% es.Ez (V/m) @ t=0.9
12.046125280858398
% es.tEx (V/m) @ t=0.9
-12.525496151403225
% es.tEy (V/m) @ t=0.9
0
% es.tEz (V/m) @ t=0.9
12.046125280858405
% V (V) @ t=0.9
0.00832376773698763
% es.normE (V/m) @ t=0.92
26.767782566541037
% es.EX (V/m) @ t=0.92
-12.64157950263305
% es.EY (V/m) @ t=0.92
10.142273197217019
% es.EZ (V/m) @ t=0.92
12.157784478327198
% es.tEX (V/m) @ t=0.92
-12.641579502633043
% es.tEY (V/m) @ t=0.92
0
% es.tEZ (V/m) @ t=0.92
12.157784478327187
% es.Ex (V/m) @ t=0.92
-12.64157950263305
% es.Ey (V/m) @ t=0.92
10.142273197217019
% es.Ez (V/m) @ t=0.92
12.157784478327198
% es.tEx (V/m) @ t=0.92
-12.641579502633043
% es.tEy (V/m) @ t=0.92
0
% es.tEz (V/m) @ t=0.92
12.157784478327187
% V (V) @ t=0.92
0.008400918335862177
% es.normE (V/m) @ t=0.94
27.01360318066619
% es.EX (V/m) @ t=0.94
-12.757662853862854
% es.EY (V/m) @ t=0.94
10.23541264545096
% es.EZ (V/m) @ t=0.94
12.269443675795923
% es.tEX (V/m) @ t=0.94
-12.757662853862854
% es.tEY (V/m) @ t=0.94
0
% es.tEZ (V/m) @ t=0.94
12.269443675795912
% es.Ex (V/m) @ t=0.94
-12.757662853862854
% es.Ey (V/m) @ t=0.94
10.23541264545096
% es.Ez (V/m) @ t=0.94
12.269443675795923
% es.tEx (V/m) @ t=0.94
-12.757662853862854
% es.tEy (V/m) @ t=0.94
0
% es.tEz (V/m) @ t=0.94
12.269443675795912
% V (V) @ t=0.94
0.008478068934736724
% es.normE (V/m) @ t=0.96
27.259423794798483
% es.EX (V/m) @ t=0.96
-12.87374620509263
% es.EY (V/m) @ t=0.96
10.328552093684852
% es.EZ (V/m) @ t=0.96
12.381102873264624
% es.tEX (V/m) @ t=0.96
-12.87374620509263
% es.tEY (V/m) @ t=0.96
0
% es.tEZ (V/m) @ t=0.96
12.381102873264638
% es.Ex (V/m) @ t=0.96
-12.87374620509263
% es.Ey (V/m) @ t=0.96
10.328552093684852
% es.Ez (V/m) @ t=0.96
12.381102873264624
% es.tEx (V/m) @ t=0.96
-12.87374620509263
% es.tEy (V/m) @ t=0.96
0
% es.tEz (V/m) @ t=0.96
12.381102873264638
% V (V) @ t=0.96
0.008555219533611273
% es.normE (V/m) @ t=0.98
27.505244408937777
% es.EX (V/m) @ t=0.98
-12.989829556322412
% es.EY (V/m) @ t=0.98
10.42169154191875
% es.EZ (V/m) @ t=0.98
12.492762070733367
% es.tEX (V/m) @ t=0.98
-12.98982955632242
% es.tEY (V/m) @ t=0.98
0
% es.tEZ (V/m) @ t=0.98
12.492762070733335
% es.Ex (V/m) @ t=0.98
-12.989829556322412
% es.Ey (V/m) @ t=0.98
10.42169154191875
% es.Ez (V/m) @ t=0.98
12.492762070733367
% es.tEx (V/m) @ t=0.98
-12.98982955632242
% es.tEy (V/m) @ t=0.98
0
% es.tEz (V/m) @ t=0.98
12.492762070733335
% V (V) @ t=0.98
0.008632370132485818
% es.normE (V/m) @ t=1
27.751065023083846
% es.EX (V/m) @ t=1
-13.105912907552238
% es.EY (V/m) @ t=1
10.514830990152646
% es.EZ (V/m) @ t=1
12.604421268202064
% es.tEX (V/m) @ t=1
-13.105912907552224
% es.tEY (V/m) @ t=1
0
% es.tEZ (V/m) @ t=1
12.604421268202088
% es.Ex (V/m) @ t=1
-13.105912907552238
% es.Ey (V/m) @ t=1
10.514830990152646
% es.Ez (V/m) @ t=1
12.604421268202064
% es.tEx (V/m) @ t=1
-13.105912907552224
% es.tEy (V/m) @ t=1
0
% es.tEz (V/m) @ t=1
12.604421268202088
% V (V) @ t=1
0.008709520731360366
% es.normE (V/m) @ t=1.02
27.996885637236545
% es.EX (V/m) @ t=1.02
-13.221996258781992
% es.EY (V/m) @ t=1.02
10.607970438386573
% es.EZ (V/m) @ t=1.02
12.716080465670792
% es.tEX (V/m) @ t=1.02
-13.221996258781992
% es.tEY (V/m) @ t=1.02
0
% es.tEZ (V/m) @ t=1.02
12.716080465670785
% es.Ex (V/m) @ t=1.02
-13.221996258781992
% es.Ey (V/m) @ t=1.02
10.607970438386573
% es.Ez (V/m) @ t=1.02
12.716080465670792
% es.tEx (V/m) @ t=1.02
-13.221996258781992
% es.tEy (V/m) @ t=1.02
0
% es.tEz (V/m) @ t=1.02
12.716080465670785
% V (V) @ t=1.02
0.008786671330234912
% es.normE (V/m) @ t=1.04
28.24270625139573
% es.EX (V/m) @ t=1.04
-13.33807961001181
% es.EY (V/m) @ t=1.04
10.701109886620458
% es.EZ (V/m) @ t=1.04
12.827739663139518
% es.tEX (V/m) @ t=1.04
-13.33807961001181
% es.tEY (V/m) @ t=1.04
0
% es.tEZ (V/m) @ t=1.04
12.827739663139482
% es.Ex (V/m) @ t=1.04
-13.33807961001181
% es.Ey (V/m) @ t=1.04
10.701109886620458
% es.Ez (V/m) @ t=1.04
12.827739663139518
% es.tEx (V/m) @ t=1.04
-13.33807961001181
% es.tEy (V/m) @ t=1.04
0
% es.tEz (V/m) @ t=1.04
12.827739663139482
% V (V) @ t=1.04
0.008863821929109459