% Model:              1 neuron.mph
% Version:            COMSOL 6.0.0.405
% Date:               Mar 16 2023, 10:02
% Dimension:          0
% Nodes:              14017
% Expressions:        14017
% Description:        Electric field norm, Electric field, X component, Electric field, Y component, Electric field, Z component, Tangential electric field, X component, Tangential electric field, Y component, Tangential electric field, Z component, Electric field, x component, Electric field, y component, Electric field, z component, Tangential electric field, x component, Tangential electric field, y component, Tangential electric field, z component, Electric potential
% Length unit:        mm
% x
1.66
% y
12.2
% z
2
% es.normE (V/m) @ t=0
1.45355423086558
% es.EX (V/m) @ t=0
-0.4336245878505792
% es.EY (V/m) @ t=0
0.03239018504861655
% es.EZ (V/m) @ t=0
-1.384655844915045
% es.tEX (V/m) @ t=0
-0.4336245878505842
% es.tEY (V/m) @ t=0
0
% es.tEZ (V/m) @ t=0
-1.3846558449150592
% es.Ex (V/m) @ t=0
-0.4336245878505792
% es.Ey (V/m) @ t=0
0.03239018504861655
% es.Ez (V/m) @ t=0
-1.384655844915045
% es.tEx (V/m) @ t=0
-0.4336245878505842
% es.tEy (V/m) @ t=0
0
% es.tEz (V/m) @ t=0
-1.3846558449150592
% V (V) @ t=0
0.00730616393290746
% es.normE (V/m) @ t=0.02
1.255463781266354
% es.EX (V/m) @ t=0.02
-0.37453020792085395
% es.EY (V/m) @ t=0.02
0.02797605140873942
% es.EZ (V/m) @ t=0.02
-1.1959548702429608
% es.tEX (V/m) @ t=0.02
-0.374530207920861
% es.tEY (V/m) @ t=0.02
0
% es.tEZ (V/m) @ t=0.02
-1.1959548702429736
% es.Ex (V/m) @ t=0.02
-0.37453020792085395
% es.Ey (V/m) @ t=0.02
0.02797605140873942
% es.Ez (V/m) @ t=0.02
-1.1959548702429608
% es.tEx (V/m) @ t=0.02
-0.374530207920861
% es.tEy (V/m) @ t=0.02
0
% es.tEz (V/m) @ t=0.02
-1.1959548702429736
% V (V) @ t=0.02
0.006310479344169505
% es.normE (V/m) @ t=0.04
1.2670128568553531
% es.EX (V/m) @ t=0.04
-0.377975536623002
% es.EY (V/m) @ t=0.04
0.028233410872455546
% es.EZ (V/m) @ t=0.04
-1.2069565181872974
% es.tEX (V/m) @ t=0.04
-0.3779755366230013
% es.tEY (V/m) @ t=0.04
0
% es.tEZ (V/m) @ t=0.04
-1.2069565181873134
% es.Ex (V/m) @ t=0.04
-0.377975536623002
% es.Ey (V/m) @ t=0.04
0.028233410872455546
% es.Ez (V/m) @ t=0.04
-1.2069565181872974
% es.tEx (V/m) @ t=0.04
-0.3779755366230013
% es.tEy (V/m) @ t=0.04
0
% es.tEz (V/m) @ t=0.04
-1.2069565181873134
% V (V) @ t=0.04
0.006368529340712839
% es.normE (V/m) @ t=0.06
1.2786656659761348
% es.EX (V/m) @ t=0.06
-0.3814518094112452
% es.EY (V/m) @ t=0.06
0.028493080125488922
% es.EZ (V/m) @ t=0.06
-1.2180569832933759
% es.tEX (V/m) @ t=0.06
-0.3814518094112458
% es.tEY (V/m) @ t=0.06
0
% es.tEZ (V/m) @ t=0.06
-1.2180569832933839
% es.Ex (V/m) @ t=0.06
-0.3814518094112452
% es.Ey (V/m) @ t=0.06
0.028493080125488922
% es.Ez (V/m) @ t=0.06
-1.2180569832933759
% es.tEx (V/m) @ t=0.06
-0.3814518094112458
% es.tEy (V/m) @ t=0.06
0
% es.tEz (V/m) @ t=0.06
-1.2180569832933839
% V (V) @ t=0.06
0.006427100863739588
% es.normE (V/m) @ t=0.08
1.2904972170224287
% es.EX (V/m) @ t=0.08
-0.3849814161690324
% es.EY (V/m) @ t=0.08
0.02875674429696088
% es.EZ (V/m) @ t=0.08
-1.229327713945104
% es.tEX (V/m) @ t=0.08
-0.38498141616903325
% es.tEY (V/m) @ t=0.08
0
% es.tEZ (V/m) @ t=0.08
-1.2293277139451186
% es.Ex (V/m) @ t=0.08
-0.3849814161690324
% es.Ey (V/m) @ t=0.08
0.02875674429696088
% es.Ez (V/m) @ t=0.08
-1.229327713945104
% es.tEx (V/m) @ t=0.08
-0.38498141616903325
% es.tEy (V/m) @ t=0.08
0
% es.tEz (V/m) @ t=0.08
-1.2293277139451186
% V (V) @ t=0.08
0.006486570013797454
% es.normE (V/m) @ t=0.1
1.3024511354262733
% es.EX (V/m) @ t=0.1
-0.3885475355519433
% es.EY (V/m) @ t=0.1
0.02902314340380363
% es.EZ (V/m) @ t=0.1
-1.2407150089945986
% es.tEX (V/m) @ t=0.1
-0.3885475355519503
% es.tEY (V/m) @ t=0.1
0
% es.tEZ (V/m) @ t=0.1
-1.2407150089945969
% es.Ex (V/m) @ t=0.1
-0.3885475355519433
% es.Ey (V/m) @ t=0.1
0.02902314340380363
% es.Ez (V/m) @ t=0.1
-1.2407150089945986
% es.tEx (V/m) @ t=0.1
-0.3885475355519503
% es.tEy (V/m) @ t=0.1
0
% es.tEz (V/m) @ t=0.1
-1.2407150089945969
% V (V) @ t=0.1
0.006546653682511374
% es.normE (V/m) @ t=0.12
1.3144050538300898
% es.EX (V/m) @ t=0.12
-0.39211365493484895
% es.EY (V/m) @ t=0.12
0.029289542510648366
% es.EZ (V/m) @ t=0.12
-1.2521023040440649
% es.tEX (V/m) @ t=0.12
-0.3921136549348567
% es.tEY (V/m) @ t=0.12
0
% es.tEZ (V/m) @ t=0.12
-1.252102304044075
% es.Ex (V/m) @ t=0.12
-0.39211365493484895
% es.Ey (V/m) @ t=0.12
0.029289542510648366
% es.Ez (V/m) @ t=0.12
-1.2521023040440649
% es.tEx (V/m) @ t=0.12
-0.3921136549348567
% es.tEy (V/m) @ t=0.12
0
% es.tEz (V/m) @ t=0.12
-1.252102304044075
% V (V) @ t=0.12
0.006606737351225294
% es.normE (V/m) @ t=0.14
1.3264846201411118
% es.EX (V/m) @ t=0.14
-0.3957172492333403
% es.EY (V/m) @ t=0.14
0.02955873287156182
% es.EZ (V/m) @ t=0.14
-1.2636092941982358
% es.tEX (V/m) @ t=0.14
-0.3957172492333463
% es.tEY (V/m) @ t=0.14
0
% es.tEZ (V/m) @ t=0.14
-1.263609294198245
% es.Ex (V/m) @ t=0.14
-0.3957172492333403
% es.Ey (V/m) @ t=0.14
0.02955873287156182
% es.Ez (V/m) @ t=0.14
-1.2636092941982358
% es.tEx (V/m) @ t=0.14
-0.3957172492333463
% es.tEy (V/m) @ t=0.14
0
% es.tEz (V/m) @ t=0.14
-1.263609294198245
% V (V) @ t=0.14
0.006667453157752535
% es.normE (V/m) @ t=0.16
1.3390757841094643
% es.EX (V/m) @ t=0.16
-0.39947342927282914
% es.EY (V/m) @ t=0.16
0.029839288316677343
% es.EZ (V/m) @ t=0.16
-1.2756036441224348
% es.tEX (V/m) @ t=0.16
-0.399473429272831
% es.tEY (V/m) @ t=0.16
0
% es.tEZ (V/m) @ t=0.16
-1.2756036441224463
% es.Ex (V/m) @ t=0.16
-0.39947342927282914
% es.Ey (V/m) @ t=0.16
0.029839288316677343
% es.Ez (V/m) @ t=0.16
-1.2756036441224348
% es.tEx (V/m) @ t=0.16
-0.399473429272831
% es.tEy (V/m) @ t=0.16
0
% es.tEz (V/m) @ t=0.16
-1.2756036441224463
% V (V) @ t=0.16
0.00673074282509171
% es.normE (V/m) @ t=0.18
1.351666948077817
% es.EX (V/m) @ t=0.18
-0.4032296093123169
% es.EY (V/m) @ t=0.18
0.030119843761781173
% es.EZ (V/m) @ t=0.18
-1.2875979940466342
% es.tEX (V/m) @ t=0.18
-0.4032296093123158
% es.tEY (V/m) @ t=0.18
0
% es.tEZ (V/m) @ t=0.18
-1.2875979940466475
% es.Ex (V/m) @ t=0.18
-0.4032296093123169
% es.Ey (V/m) @ t=0.18
0.030119843761781173
% es.Ez (V/m) @ t=0.18
-1.2875979940466342
% es.tEx (V/m) @ t=0.18
-0.4032296093123158
% es.tEy (V/m) @ t=0.18
0
% es.tEz (V/m) @ t=0.18
-1.2875979940466475
% V (V) @ t=0.18
0.0067940324924308845
% es.normE (V/m) @ t=0.2
1.364258112046175
% es.EX (V/m) @ t=0.2
-0.40698578935181107
% es.EY (V/m) @ t=0.2
0.030400399206895808
% es.EZ (V/m) @ t=0.2
-1.2995923439708363
% es.tEX (V/m) @ t=0.2
-0.40698578935181473
% es.tEY (V/m) @ t=0.2
0
% es.tEZ (V/m) @ t=0.2
-1.2995923439708417
% es.Ex (V/m) @ t=0.2
-0.40698578935181107
% es.Ey (V/m) @ t=0.2
0.030400399206895808
% es.Ez (V/m) @ t=0.2
-1.2995923439708363
% es.tEx (V/m) @ t=0.2
-0.40698578935181473
% es.tEy (V/m) @ t=0.2
0
% es.tEz (V/m) @ t=0.2
-1.2995923439708417
% V (V) @ t=0.2
0.006857322159770057
% es.normE (V/m) @ t=0.22
1.3768492760145246
% es.EX (V/m) @ t=0.22
-0.4107419693912979
% es.EY (V/m) @ t=0.22
0.03068095465200337
% es.EZ (V/m) @ t=0.22
-1.3115866938950318
% es.tEX (V/m) @ t=0.22
-0.4107419693912995
% es.tEY (V/m) @ t=0.22
0
% es.tEZ (V/m) @ t=0.22
-1.311586693895051
% es.Ex (V/m) @ t=0.22
-0.4107419693912979
% es.Ey (V/m) @ t=0.22
0.03068095465200337
% es.Ez (V/m) @ t=0.22
-1.3115866938950318
% es.tEx (V/m) @ t=0.22
-0.4107419693912995
% es.tEy (V/m) @ t=0.22
0
% es.tEz (V/m) @ t=0.22
-1.311586693895051
% V (V) @ t=0.22
0.006920611827109233
% es.normE (V/m) @ t=0.24
1.389440439982872
% es.EX (V/m) @ t=0.24
-0.4144981494307841
% es.EY (V/m) @ t=0.24
0.030961510097124355
% es.EZ (V/m) @ t=0.24
-1.3235810438192237
% es.tEX (V/m) @ t=0.24
-0.4144981494307878
% es.tEY (V/m) @ t=0.24
0
% es.tEZ (V/m) @ t=0.24
-1.3235810438192388
% es.Ex (V/m) @ t=0.24
-0.4144981494307841
% es.Ey (V/m) @ t=0.24
0.030961510097124355
% es.Ez (V/m) @ t=0.24
-1.3235810438192237
% es.tEx (V/m) @ t=0.24
-0.4144981494307878
% es.tEy (V/m) @ t=0.24
0
% es.tEz (V/m) @ t=0.24
-1.3235810438192388
% V (V) @ t=0.24
0.006983901494448407
% es.normE (V/m) @ t=0.26
1.4020316039512306
% es.EX (V/m) @ t=0.26
-0.41825432947027097
% es.EY (V/m) @ t=0.26
0.031242065542230038
% es.EZ (V/m) @ t=0.26
-1.3355753937434267
% es.tEX (V/m) @ t=0.26
-0.4182543294702725
% es.tEY (V/m) @ t=0.26
0
% es.tEZ (V/m) @ t=0.26
-1.3355753937434391
% es.Ex (V/m) @ t=0.26
-0.41825432947027097
% es.Ey (V/m) @ t=0.26
0.031242065542230038
% es.Ez (V/m) @ t=0.26
-1.3355753937434267
% es.tEx (V/m) @ t=0.26
-0.4182543294702725
% es.tEy (V/m) @ t=0.26
0
% es.tEz (V/m) @ t=0.26
-1.3355753937434391
% V (V) @ t=0.26
0.007047191161787581
% es.normE (V/m) @ t=0.28
1.415202204191512
% es.EX (V/m) @ t=0.28
-0.42218340011442546
% es.EY (V/m) @ t=0.28
0.03153556645456552
% es.EZ (V/m) @ t=0.28
-1.3481217032815396
% es.tEX (V/m) @ t=0.28
-0.42218340011442734
% es.tEY (V/m) @ t=0.28
0
% es.tEZ (V/m) @ t=0.28
-1.348121703281553
% es.Ex (V/m) @ t=0.28
-0.42218340011442546
% es.Ey (V/m) @ t=0.28
0.03153556645456552
% es.Ez (V/m) @ t=0.28
-1.3481217032815396
% es.tEx (V/m) @ t=0.28
-0.42218340011442734
% es.tEy (V/m) @ t=0.28
0
% es.tEz (V/m) @ t=0.28
-1.348121703281553
% V (V) @ t=0.28
0.0071133910487470075
% es.normE (V/m) @ t=0.3
1.4292265613135458
% es.EX (V/m) @ t=0.3
-0.42636721239397457
% es.EY (V/m) @ t=0.3
0.0318481415641203
% es.EZ (V/m) @ t=0.3
-1.3614812848594946
% es.tEX (V/m) @ t=0.3
-0.42636721239398057
% es.tEY (V/m) @ t=0.3
0
% es.tEZ (V/m) @ t=0.3
-1.3614812848595053
% es.Ex (V/m) @ t=0.3
-0.42636721239397457
% es.Ey (V/m) @ t=0.3
0.0318481415641203
% es.Ez (V/m) @ t=0.3
-1.3614812848594946
% es.tEx (V/m) @ t=0.3
-0.42636721239398057
% es.tEy (V/m) @ t=0.3
0
% es.tEz (V/m) @ t=0.3
-1.3614812848595053
% V (V) @ t=0.3
0.007183878931036743
% es.normE (V/m) @ t=0.32
1.4432509184355888
% es.EX (V/m) @ t=0.32
-0.4305510246735237
% es.EY (V/m) @ t=0.32
0.032160716673665976
% es.EZ (V/m) @ t=0.32
-1.3748408664374532
% es.tEX (V/m) @ t=0.32
-0.43055102467352313
% es.tEY (V/m) @ t=0.32
0
% es.tEZ (V/m) @ t=0.32
-1.3748408664374567
% es.Ex (V/m) @ t=0.32
-0.4305510246735237
% es.Ey (V/m) @ t=0.32
0.032160716673665976
% es.Ez (V/m) @ t=0.32
-1.3748408664374532
% es.tEx (V/m) @ t=0.32
-0.43055102467352313
% es.tEy (V/m) @ t=0.32
0
% es.tEz (V/m) @ t=0.32
-1.3748408664374567
% V (V) @ t=0.32
0.007254366813326479
% es.normE (V/m) @ t=0.34
1.4572752755576392
% es.EX (V/m) @ t=0.34
-0.43473483695308
% es.EY (V/m) @ t=0.34
0.03247329178321762
% es.EZ (V/m) @ t=0.34
-1.3882004480154113
% es.tEX (V/m) @ t=0.34
-0.434734836953087
% es.tEY (V/m) @ t=0.34
0
% es.tEZ (V/m) @ t=0.34
-1.3882004480154242
% es.Ex (V/m) @ t=0.34
-0.43473483695308
% es.Ey (V/m) @ t=0.34
0.03247329178321762
% es.Ez (V/m) @ t=0.34
-1.3882004480154113
% es.tEx (V/m) @ t=0.34
-0.434734836953087
% es.tEy (V/m) @ t=0.34
0
% es.tEz (V/m) @ t=0.34
-1.3882004480154242
% V (V) @ t=0.34
0.007324854695616216
% es.normE (V/m) @ t=0.36
1.4712996326796948
% es.EX (V/m) @ t=0.36
-0.4389186492326309
% es.EY (V/m) @ t=0.36
0.03278586689276507
% es.EZ (V/m) @ t=0.36
-1.4015600295933694
% es.tEX (V/m) @ t=0.36
-0.43891864923263313
% es.tEY (V/m) @ t=0.36
0
% es.tEZ (V/m) @ t=0.36
-1.4015600295933766
% es.Ex (V/m) @ t=0.36
-0.4389186492326309
% es.Ey (V/m) @ t=0.36
0.03278586689276507
% es.Ez (V/m) @ t=0.36
-1.4015600295933694
% es.tEx (V/m) @ t=0.36
-0.43891864923263313
% es.tEy (V/m) @ t=0.36
0
% es.tEz (V/m) @ t=0.36
-1.4015600295933766
% V (V) @ t=0.36
0.0073953425779059515
% es.normE (V/m) @ t=0.38
1.4853239898017554
% es.EX (V/m) @ t=0.38
-0.4431024615121819
% es.EY (V/m) @ t=0.38
0.03309844200231338
% es.EZ (V/m) @ t=0.38
-1.414919611171328
% es.tEX (V/m) @ t=0.38
-0.44310246151218635
% es.tEY (V/m) @ t=0.38
0
% es.tEZ (V/m) @ t=0.38
-1.414919611171336
% es.Ex (V/m) @ t=0.38
-0.4431024615121819
% es.Ey (V/m) @ t=0.38
0.03309844200231338
% es.Ez (V/m) @ t=0.38
-1.414919611171328
% es.tEx (V/m) @ t=0.38
-0.44310246151218635
% es.tEy (V/m) @ t=0.38
0
% es.tEz (V/m) @ t=0.38
-1.414919611171336
% V (V) @ t=0.38
0.007465830460195687
% es.normE (V/m) @ t=0.4
1.499348346923816
% es.EX (V/m) @ t=0.4
-0.447286273791739
% es.EY (V/m) @ t=0.4
0.03341101711187393
% es.EZ (V/m) @ t=0.4
-1.428279192749279
% es.tEX (V/m) @ t=0.4
-0.4472862737917431
% es.tEY (V/m) @ t=0.4
0
% es.tEZ (V/m) @ t=0.4
-1.4282791927492955
% es.Ex (V/m) @ t=0.4
-0.447286273791739
% es.Ey (V/m) @ t=0.4
0.03341101711187393
% es.Ez (V/m) @ t=0.4
-1.428279192749279
% es.tEx (V/m) @ t=0.4
-0.4472862737917431
% es.tEy (V/m) @ t=0.4
0
% es.tEz (V/m) @ t=0.4
-1.4282791927492955
% V (V) @ t=0.4
0.007536318342485424
% es.normE (V/m) @ t=0.42
1.5133727040458866
% es.EX (V/m) @ t=0.42
-0.45147008607129013
% es.EY (V/m) @ t=0.42
0.0337235922214169
% es.EZ (V/m) @ t=0.42
-1.4416387743272372
% es.tEX (V/m) @ t=0.42
-0.4514700860712928
% es.tEY (V/m) @ t=0.42
0
% es.tEZ (V/m) @ t=0.42
-1.4416387743272479
% es.Ex (V/m) @ t=0.42
-0.45147008607129013
% es.Ey (V/m) @ t=0.42
0.0337235922214169
% es.Ez (V/m) @ t=0.42
-1.4416387743272372
% es.tEx (V/m) @ t=0.42
-0.4514700860712928
% es.tEy (V/m) @ t=0.42
0
% es.tEz (V/m) @ t=0.42
-1.4416387743272479
% V (V) @ t=0.42
0.007606806224775159
% es.normE (V/m) @ t=0.44
1.5273970611679621
% es.EX (V/m) @ t=0.44
-0.45565389835083925
% es.EY (V/m) @ t=0.44
0.03403616733096255
% es.EZ (V/m) @ t=0.44
-1.4549983559051953
% es.tEX (V/m) @ t=0.44
-0.455653898350846
% es.tEY (V/m) @ t=0.44
0
% es.tEZ (V/m) @ t=0.44
-1.4549983559052144
% es.Ex (V/m) @ t=0.44
-0.45565389835083925
% es.Ey (V/m) @ t=0.44
0.03403616733096255
% es.Ez (V/m) @ t=0.44
-1.4549983559051953
% es.tEx (V/m) @ t=0.44
-0.455653898350846
% es.tEy (V/m) @ t=0.44
0
% es.tEz (V/m) @ t=0.44
-1.4549983559052144
% V (V) @ t=0.44
0.007677294107064896
% es.normE (V/m) @ t=0.46
1.5414214182900485
% es.EX (V/m) @ t=0.46
-0.45983771063038936
% es.EY (V/m) @ t=0.46
0.034348742440512656
% es.EZ (V/m) @ t=0.46
-1.4683579374831606
% es.tEX (V/m) @ t=0.46
-0.4598377106303957
% es.tEY (V/m) @ t=0.46
0
% es.tEZ (V/m) @ t=0.46
-1.4683579374831668
% es.Ex (V/m) @ t=0.46
-0.45983771063038936
% es.Ey (V/m) @ t=0.46
0.034348742440512656
% es.Ez (V/m) @ t=0.46
-1.4683579374831606
% es.tEx (V/m) @ t=0.46
-0.4598377106303957
% es.tEy (V/m) @ t=0.46
0
% es.tEz (V/m) @ t=0.46
-1.4683579374831668
% V (V) @ t=0.46
0.0077477819893546325
% es.normE (V/m) @ t=0.48
1.5554457754121431
% es.EX (V/m) @ t=0.48
-0.4640215229099437
% es.EY (V/m) @ t=0.48
0.034661317550059925
% es.EZ (V/m) @ t=0.48
-1.4817175190611267
% es.tEX (V/m) @ t=0.48
-0.46402152290994536
% es.tEY (V/m) @ t=0.48
0
% es.tEZ (V/m) @ t=0.48
-1.4817175190611334
% es.Ex (V/m) @ t=0.48
-0.4640215229099437
% es.Ey (V/m) @ t=0.48
0.034661317550059925
% es.Ez (V/m) @ t=0.48
-1.4817175190611267
% es.tEx (V/m) @ t=0.48
-0.46402152290994536
% es.tEy (V/m) @ t=0.48
0
% es.tEz (V/m) @ t=0.48
-1.4817175190611334
% V (V) @ t=0.48
0.007818269871644369
% es.normE (V/m) @ t=0.5
1.5694701325342404
% es.EX (V/m) @ t=0.5
-0.4682053351894964
% es.EY (V/m) @ t=0.5
0.034973892659609124
% es.EZ (V/m) @ t=0.5
-1.495077100639092
% es.tEX (V/m) @ t=0.5
-0.46820533518950214
% es.tEY (V/m) @ t=0.5
0
% es.tEZ (V/m) @ t=0.5
-1.4950771006391
% es.Ex (V/m) @ t=0.5
-0.4682053351894964
% es.Ey (V/m) @ t=0.5
0.034973892659609124
% es.Ez (V/m) @ t=0.5
-1.495077100639092
% es.tEx (V/m) @ t=0.5
-0.46820533518950214
% es.tEy (V/m) @ t=0.5
0
% es.tEz (V/m) @ t=0.5
-1.4950771006391
% V (V) @ t=0.5
0.007888757753934104
% es.normE (V/m) @ t=0.52
1.583494489656317
% es.EX (V/m) @ t=0.52
-0.4723891474690527
% es.EY (V/m) @ t=0.52
0.035286467769165455
% es.EZ (V/m) @ t=0.52
-1.5084366822170292
% es.tEX (V/m) @ t=0.52
-0.4723891474690589
% es.tEY (V/m) @ t=0.52
0
% es.tEZ (V/m) @ t=0.52
-1.508436682217046
% es.Ex (V/m) @ t=0.52
-0.4723891474690527
% es.Ey (V/m) @ t=0.52
0.035286467769165455
% es.Ez (V/m) @ t=0.52
-1.5084366822170292
% es.tEx (V/m) @ t=0.52
-0.4723891474690589
% es.tEy (V/m) @ t=0.52
0
% es.tEz (V/m) @ t=0.52
-1.508436682217046
% V (V) @ t=0.52
0.007959245636223841
% es.normE (V/m) @ t=0.54
1.5975188467784216
% es.EX (V/m) @ t=0.54
-0.47657295974860014
% es.EY (V/m) @ t=0.54
0.0355990428787111
% es.EZ (V/m) @ t=0.54
-1.5217962637949944
% es.tEX (V/m) @ t=0.54
-0.47657295974860503
% es.tEY (V/m) @ t=0.54
0
% es.tEZ (V/m) @ t=0.54
-1.5217962637950109
% es.Ex (V/m) @ t=0.54
-0.47657295974860014
% es.Ey (V/m) @ t=0.54
0.0355990428787111
% es.Ez (V/m) @ t=0.54
-1.5217962637949944
% es.tEx (V/m) @ t=0.54
-0.47657295974860503
% es.tEy (V/m) @ t=0.54
0
% es.tEz (V/m) @ t=0.54
-1.5217962637950109
% V (V) @ t=0.54
0.008029733518513578
% es.normE (V/m) @ t=0.56
1.6128726949093486
% es.EX (V/m) @ t=0.56
-0.4811532975284463
% es.EY (V/m) @ t=0.56
0.03594115367741411
% es.EZ (V/m) @ t=0.56
-1.5364223491365032
% es.tEX (V/m) @ t=0.56
-0.4811532975284507
% es.tEY (V/m) @ t=0.56
0
% es.tEZ (V/m) @ t=0.56
-1.5364223491365152
% es.Ex (V/m) @ t=0.56
-0.4811532975284463
% es.Ey (V/m) @ t=0.56
0.03594115367741411
% es.Ez (V/m) @ t=0.56
-1.5364223491365032
% es.tEx (V/m) @ t=0.56
-0.4811532975284507
% es.tEy (V/m) @ t=0.56
0
% es.tEz (V/m) @ t=0.56
-1.5364223491365152
% V (V) @ t=0.56
0.00810691003447483
% es.normE (V/m) @ t=0.58
1.6285212639003963
% es.EX (V/m) @ t=0.58
-0.48582153687041046
% es.EY (V/m) @ t=0.58
0.036289811931981844
% es.EZ (V/m) @ t=0.58
-1.5513291923590802
% es.tEX (V/m) @ t=0.58
-0.48582153687041796
% es.tEY (V/m) @ t=0.58
0
% es.tEZ (V/m) @ t=0.58
-1.551329192359085
% es.Ex (V/m) @ t=0.58
-0.48582153687041046
% es.Ey (V/m) @ t=0.58
0.036289811931981844
% es.Ez (V/m) @ t=0.58
-1.5513291923590802
% es.tEx (V/m) @ t=0.58
-0.48582153687041796
% es.tEy (V/m) @ t=0.58
0
% es.tEz (V/m) @ t=0.58
-1.551329192359085
% V (V) @ t=0.58
0.00818556928319278
% es.normE (V/m) @ t=0.6
1.6441698328914143
% es.EX (V/m) @ t=0.6
-0.49048977621237816
% es.EY (V/m) @ t=0.6
0.03663847018653537
% es.EZ (V/m) @ t=0.6
-1.5662360355816216
% es.tEX (V/m) @ t=0.6
-0.4904897762123852
% es.tEY (V/m) @ t=0.6
0
% es.tEZ (V/m) @ t=0.6
-1.5662360355816345
% es.Ex (V/m) @ t=0.6
-0.49048977621237816
% es.Ey (V/m) @ t=0.6
0.03663847018653537
% es.Ez (V/m) @ t=0.6
-1.5662360355816216
% es.tEx (V/m) @ t=0.6
-0.4904897762123852
% es.tEy (V/m) @ t=0.6
0
% es.tEz (V/m) @ t=0.6
-1.5662360355816345
% V (V) @ t=0.6
0.008264228531910731
% es.normE (V/m) @ t=0.62
1.6598184018824633
% es.EX (V/m) @ t=0.62
-0.495158015554346
% es.EY (V/m) @ t=0.62
0.036987128441109976
% es.EZ (V/m) @ t=0.62
-1.5811428788041906
% es.tEX (V/m) @ t=0.62
-0.4951580155543489
% es.tEY (V/m) @ t=0.62
0
% es.tEZ (V/m) @ t=0.62
-1.5811428788041972
% es.Ex (V/m) @ t=0.62
-0.495158015554346
% es.Ey (V/m) @ t=0.62
0.036987128441109976
% es.Ez (V/m) @ t=0.62
-1.5811428788041906
% es.tEx (V/m) @ t=0.62
-0.4951580155543489
% es.tEy (V/m) @ t=0.62
0
% es.tEz (V/m) @ t=0.62
-1.5811428788041972
% V (V) @ t=0.62
0.008342887780628683
% es.normE (V/m) @ t=0.64
1.6754669708734997
% es.EX (V/m) @ t=0.64
-0.4998262548963075
% es.EY (V/m) @ t=0.64
0.03733578669567771
% es.EZ (V/m) @ t=0.64
-1.5960497220267462
% es.tEX (V/m) @ t=0.64
-0.4998262548963126
% es.tEY (V/m) @ t=0.64
0
% es.tEZ (V/m) @ t=0.64
-1.596049722026768
% es.Ex (V/m) @ t=0.64
-0.4998262548963075
% es.Ey (V/m) @ t=0.64
0.03733578669567771
% es.Ez (V/m) @ t=0.64
-1.5960497220267462
% es.tEx (V/m) @ t=0.64
-0.4998262548963126
% es.tEy (V/m) @ t=0.64
0
% es.tEz (V/m) @ t=0.64
-1.596049722026768
% V (V) @ t=0.64
0.008421547029346636
% es.normE (V/m) @ t=0.66
1.6911155398645479
% es.EX (V/m) @ t=0.66
-0.5044944942382716
% es.EY (V/m) @ t=0.66
0.037684444950247226
% es.EZ (V/m) @ t=0.66
-1.610956565249309
% es.tEX (V/m) @ t=0.66
-0.5044944942382728
% es.tEY (V/m) @ t=0.66
0
% es.tEZ (V/m) @ t=0.66
-1.6109565652493165
% es.Ex (V/m) @ t=0.66
-0.5044944942382716
% es.Ey (V/m) @ t=0.66
0.037684444950247226
% es.Ez (V/m) @ t=0.66
-1.610956565249309
% es.tEx (V/m) @ t=0.66
-0.5044944942382728
% es.tEy (V/m) @ t=0.66
0
% es.tEz (V/m) @ t=0.66
-1.6109565652493165
% V (V) @ t=0.66
0.008500206278064585
% es.normE (V/m) @ t=0.68
1.7067641088555998
% es.EX (V/m) @ t=0.68
-0.5091627335802402
% es.EY (V/m) @ t=0.68
0.038033103204812964
% es.EZ (V/m) @ t=0.68
-1.6258634084718713
% es.tEX (V/m) @ t=0.68
-0.5091627335802436
% es.tEY (V/m) @ t=0.68
0
% es.tEZ (V/m) @ t=0.68
-1.6258634084718793
% es.Ex (V/m) @ t=0.68
-0.5091627335802402
% es.Ey (V/m) @ t=0.68
0.038033103204812964
% es.Ez (V/m) @ t=0.68
-1.6258634084718713
% es.tEx (V/m) @ t=0.68
-0.5091627335802436
% es.tEy (V/m) @ t=0.68
0
% es.tEz (V/m) @ t=0.68
-1.6258634084718793
% V (V) @ t=0.68
0.008578865526782536
% es.normE (V/m) @ t=0.7
1.7224126778466466
% es.EX (V/m) @ t=0.7
-0.5138309729222071
% es.EY (V/m) @ t=0.7
0.038381761459377356
% es.EZ (V/m) @ t=0.7
-1.6407702516944265
% es.tEX (V/m) @ t=0.7
-0.5138309729222144
% es.tEY (V/m) @ t=0.7
0
% es.tEZ (V/m) @ t=0.7
-1.640770251694443
% es.Ex (V/m) @ t=0.7
-0.5138309729222071
% es.Ey (V/m) @ t=0.7
0.038381761459377356
% es.Ez (V/m) @ t=0.7
-1.6407702516944265
% es.tEx (V/m) @ t=0.7
-0.5138309729222144
% es.tEy (V/m) @ t=0.7
0
% es.tEz (V/m) @ t=0.7
-1.640770251694443
% V (V) @ t=0.7
0.008657524775500485
% es.normE (V/m) @ t=0.72
1.7380612468376957
% es.EX (V/m) @ t=0.72
-0.5184992122641633
% es.EY (V/m) @ t=0.72
0.03873041971394487
% es.EZ (V/m) @ t=0.72
-1.6556770949169821
% es.tEX (V/m) @ t=0.72
-0.5184992122641638
% es.tEY (V/m) @ t=0.72
0
% es.tEZ (V/m) @ t=0.72
-1.6556770949170048
% es.Ex (V/m) @ t=0.72
-0.5184992122641633
% es.Ey (V/m) @ t=0.72
0.03873041971394487
% es.Ez (V/m) @ t=0.72
-1.6556770949169821
% es.tEx (V/m) @ t=0.72
-0.5184992122641638
% es.tEy (V/m) @ t=0.72
0
% es.tEz (V/m) @ t=0.72
-1.6556770949170048
% V (V) @ t=0.72
0.008736184024218437
% es.normE (V/m) @ t=0.74
1.753709815828762
% es.EX (V/m) @ t=0.74
-0.5231674516061274
% es.EY (V/m) @ t=0.74
0.0390790779685055
% es.EZ (V/m) @ t=0.74
-1.6705839381395515
% es.tEX (V/m) @ t=0.74
-0.5231674516061311
% es.tEY (V/m) @ t=0.74
0
% es.tEZ (V/m) @ t=0.74
-1.6705839381395675
% es.Ex (V/m) @ t=0.74
-0.5231674516061274
% es.Ey (V/m) @ t=0.74
0.0390790779685055
% es.Ez (V/m) @ t=0.74
-1.6705839381395515
% es.tEx (V/m) @ t=0.74
-0.5231674516061311
% es.tEy (V/m) @ t=0.74
0
% es.tEz (V/m) @ t=0.74
-1.6705839381395675
% V (V) @ t=0.74
0.008814843272936386
% es.normE (V/m) @ t=0.76
1.7693583848198196
% es.EX (V/m) @ t=0.76
-0.5278356909480951
% es.EY (V/m) @ t=0.76
0.03942773622307349
% es.EZ (V/m) @ t=0.76
-1.6854907813621072
% es.tEX (V/m) @ t=0.76
-0.5278356909480948
% es.tEY (V/m) @ t=0.76
0
% es.tEZ (V/m) @ t=0.76
-1.6854907813621178
% es.Ex (V/m) @ t=0.76
-0.5278356909480951
% es.Ey (V/m) @ t=0.76
0.03942773622307349
% es.Ez (V/m) @ t=0.76
-1.6854907813621072
% es.tEx (V/m) @ t=0.76
-0.5278356909480948
% es.tEy (V/m) @ t=0.76
0
% es.tEz (V/m) @ t=0.76
-1.6854907813621178
% V (V) @ t=0.76
0.008893502521654339
% es.normE (V/m) @ t=0.78
1.785006953810893
% es.EX (V/m) @ t=0.78
-0.5325039302900637
% es.EY (V/m) @ t=0.78
0.039776394477644555
% es.EZ (V/m) @ t=0.78
-1.700397624584677
% es.tEX (V/m) @ t=0.78
-0.5325039302900656
% es.tEY (V/m) @ t=0.78
0
% es.tEZ (V/m) @ t=0.78
-1.7003976245846877
% es.Ex (V/m) @ t=0.78
-0.5325039302900637
% es.Ey (V/m) @ t=0.78
0.039776394477644555
% es.Ez (V/m) @ t=0.78
-1.700397624584677
% es.tEx (V/m) @ t=0.78
-0.5325039302900656
% es.tEy (V/m) @ t=0.78
0
% es.tEz (V/m) @ t=0.78
-1.7003976245846877
% V (V) @ t=0.78
0.008972161770372291
% es.normE (V/m) @ t=0.8
1.8006555228019474
% es.EX (V/m) @ t=0.8
-0.5371721696320271
% es.EY (V/m) @ t=0.8
0.040125052732214256
% es.EZ (V/m) @ t=0.8
-1.7153044678072247
% es.tEX (V/m) @ t=0.8
-0.5371721696320364
% es.tEY (V/m) @ t=0.8
0
% es.tEZ (V/m) @ t=0.8
-1.715304467807237
% es.Ex (V/m) @ t=0.8
-0.5371721696320271
% es.Ey (V/m) @ t=0.8
0.040125052732214256
% es.Ez (V/m) @ t=0.8
-1.7153044678072247
% es.tEx (V/m) @ t=0.8
-0.5371721696320364
% es.tEy (V/m) @ t=0.8
0
% es.tEz (V/m) @ t=0.8
-1.715304467807237
% V (V) @ t=0.8
0.00905082101909024
% es.normE (V/m) @ t=0.82
1.816733402979354
% es.EX (V/m) @ t=0.82
-0.5419684906055997
% es.EY (V/m) @ t=0.82
0.040483287124850637
% es.EZ (V/m) @ t=0.82
-1.7306202696343091
% es.tEX (V/m) @ t=0.82
-0.5419684906056084
% es.tEY (V/m) @ t=0.82
0
% es.tEZ (V/m) @ t=0.82
-1.7306202696343247
% es.Ex (V/m) @ t=0.82
-0.5419684906055997
% es.Ey (V/m) @ t=0.82
0.040483287124850637
% es.Ez (V/m) @ t=0.82
-1.7306202696343091
% es.tEx (V/m) @ t=0.82
-0.5419684906056084
% es.tEy (V/m) @ t=0.82
0
% es.tEz (V/m) @ t=0.82
-1.7306202696343247
% V (V) @ t=0.82
0.009131637515463444
% es.normE (V/m) @ t=0.84
1.834226145919602
% es.EX (V/m) @ t=0.84
-0.5471869248083365
% es.EY (V/m) @ t=0.84
0.04087308119172102
% es.EZ (V/m) @ t=0.84
-1.747283859079079
% es.tEX (V/m) @ t=0.84
-0.5471869248083472
% es.tEY (V/m) @ t=0.84
0
% es.tEZ (V/m) @ t=0.84
-1.7472838590790962
% es.Ex (V/m) @ t=0.84
-0.5471869248083365
% es.Ey (V/m) @ t=0.84
0.04087308119172102
% es.Ez (V/m) @ t=0.84
-1.747283859079079
% es.tEx (V/m) @ t=0.84
-0.5471869248083472
% es.tEy (V/m) @ t=0.84
0
% es.tEz (V/m) @ t=0.84
-1.7472838590790962
% V (V) @ t=0.84
0.009219563561912947
% es.normE (V/m) @ t=0.86
1.8517188888598346
% es.EX (V/m) @ t=0.86
-0.5524053590110636
% es.EY (V/m) @ t=0.86
0.04126287525859673
% es.EZ (V/m) @ t=0.86
-1.763947448523834
% es.tEX (V/m) @ t=0.86
-0.5524053590110682
% es.tEY (V/m) @ t=0.86
0
% es.tEZ (V/m) @ t=0.86
-1.7639474485238456
% es.Ex (V/m) @ t=0.86
-0.5524053590110636
% es.Ey (V/m) @ t=0.86
0.04126287525859673
% es.Ez (V/m) @ t=0.86
-1.763947448523834
% es.tEx (V/m) @ t=0.86
-0.5524053590110682
% es.tEy (V/m) @ t=0.86
0
% es.tEz (V/m) @ t=0.86
-1.7639474485238456
% V (V) @ t=0.86
0.009307489608362453
% es.normE (V/m) @ t=0.88
1.8692116318000829
% es.EX (V/m) @ t=0.88
-0.5576237932137995
% es.EY (V/m) @ t=0.88
0.04165266932547804
% es.EZ (V/m) @ t=0.88
-1.7806110379686042
% es.tEX (V/m) @ t=0.88
-0.5576237932138071
% es.tEY (V/m) @ t=0.88
0
% es.tEZ (V/m) @ t=0.88
-1.78061103796861
% es.Ex (V/m) @ t=0.88
-0.5576237932137995
% es.Ey (V/m) @ t=0.88
0.04165266932547804
% es.Ez (V/m) @ t=0.88
-1.7806110379686042
% es.tEx (V/m) @ t=0.88
-0.5576237932138071
% es.tEy (V/m) @ t=0.88
0
% es.tEz (V/m) @ t=0.88
-1.78061103796861
% V (V) @ t=0.88
0.009395415654811957
% es.normE (V/m) @ t=0.9
1.8867043747403014
% es.EX (V/m) @ t=0.9
-0.5628422274165239
% es.EY (V/m) @ t=0.9
0.04204246339235372
% es.EZ (V/m) @ t=0.9
-1.7972746274133455
% es.tEX (V/m) @ t=0.9
-0.5628422274165281
% es.tEY (V/m) @ t=0.9
0
% es.tEZ (V/m) @ t=0.9
-1.7972746274133735
% es.Ex (V/m) @ t=0.9
-0.5628422274165239
% es.Ey (V/m) @ t=0.9
0.04204246339235372
% es.Ez (V/m) @ t=0.9
-1.7972746274133455
% es.tEx (V/m) @ t=0.9
-0.5628422274165281
% es.tEy (V/m) @ t=0.9
0
% es.tEz (V/m) @ t=0.9
-1.7972746274133735
% V (V) @ t=0.9
0.009483341701261461
% es.normE (V/m) @ t=0.92
1.9041971176805403
% es.EX (V/m) @ t=0.92
-0.5680606616192546
% es.EY (V/m) @ t=0.92
0.042432257459210115
% es.EZ (V/m) @ t=0.92
-1.8139382168581077
% es.tEX (V/m) @ t=0.92
-0.5680606616192563
% es.tEY (V/m) @ t=0.92
0
% es.tEZ (V/m) @ t=0.92
-1.813938216858122
% es.Ex (V/m) @ t=0.92
-0.5680606616192546
% es.Ey (V/m) @ t=0.92
0.042432257459210115
% es.Ez (V/m) @ t=0.92
-1.8139382168581077
% es.tEx (V/m) @ t=0.92
-0.5680606616192563
% es.tEy (V/m) @ t=0.92
0
% es.tEz (V/m) @ t=0.92
-1.813938216858122
% V (V) @ t=0.92
0.009571267747710962
% es.normE (V/m) @ t=0.94
1.9216898606207873
% es.EX (V/m) @ t=0.94
-0.5732790958219853
% es.EY (V/m) @ t=0.94
0.04282205152608605
% es.EZ (V/m) @ t=0.94
-1.8306018063028775
% es.tEX (V/m) @ t=0.94
-0.5732790958219844
% es.tEY (V/m) @ t=0.94
0
% es.tEZ (V/m) @ t=0.94
-1.8306018063028784
% es.Ex (V/m) @ t=0.94
-0.5732790958219853
% es.Ey (V/m) @ t=0.94
0.04282205152608605
% es.Ez (V/m) @ t=0.94
-1.8306018063028775
% es.tEx (V/m) @ t=0.94
-0.5732790958219844
% es.tEy (V/m) @ t=0.94
0
% es.tEz (V/m) @ t=0.94
-1.8306018063028784
% V (V) @ t=0.94
0.009659193794160467
% es.normE (V/m) @ t=0.96
1.9391826035610227
% es.EX (V/m) @ t=0.96
-0.5784975300247212
% es.EY (V/m) @ t=0.96
0.043211845592970685
% es.EZ (V/m) @ t=0.96
-1.8472653957476335
% es.tEX (V/m) @ t=0.96
-0.5784975300247268
% es.tEY (V/m) @ t=0.96
0
% es.tEZ (V/m) @ t=0.96
-1.8472653957476561
% es.Ex (V/m) @ t=0.96
-0.5784975300247212
% es.Ey (V/m) @ t=0.96
0.043211845592970685
% es.Ez (V/m) @ t=0.96
-1.8472653957476335
% es.tEx (V/m) @ t=0.96
-0.5784975300247268
% es.tEy (V/m) @ t=0.96
0
% es.tEz (V/m) @ t=0.96
-1.8472653957476561
% V (V) @ t=0.96
0.00974711984060997
% es.normE (V/m) @ t=0.98
1.9566753465012703
% es.EX (V/m) @ t=0.98
-0.5837159642274554
% es.EY (V/m) @ t=0.98
0.04360163965983749
% es.EZ (V/m) @ t=0.98
-1.8639289851924028
% es.tEX (V/m) @ t=0.98
-0.5837159642274585
% es.tEY (V/m) @ t=0.98
0
% es.tEZ (V/m) @ t=0.98
-1.8639289851924135
% es.Ex (V/m) @ t=0.98
-0.5837159642274554
% es.Ey (V/m) @ t=0.98
0.04360163965983749
% es.Ez (V/m) @ t=0.98
-1.8639289851924028
% es.tEx (V/m) @ t=0.98
-0.5837159642274585
% es.tEy (V/m) @ t=0.98
0
% es.tEz (V/m) @ t=0.98
-1.8639289851924135
% V (V) @ t=0.98
0.009835045887059473
% es.normE (V/m) @ t=1
1.9741680894415046
% es.EX (V/m) @ t=1
-0.5889343984301867
% es.EY (V/m) @ t=1
0.04399143372670991
% es.EZ (V/m) @ t=1
-1.8805925746371588
% es.tEX (V/m) @ t=1
-0.5889343984301902
% es.tEY (V/m) @ t=1
0
% es.tEZ (V/m) @ t=1
-1.8805925746371637
% es.Ex (V/m) @ t=1
-0.5889343984301867
% es.Ey (V/m) @ t=1
0.04399143372670991
% es.Ez (V/m) @ t=1
-1.8805925746371588
% es.tEx (V/m) @ t=1
-0.5889343984301902
% es.tEy (V/m) @ t=1
0
% es.tEz (V/m) @ t=1
-1.8805925746371637
% V (V) @ t=1
0.00992297193350898
% es.normE (V/m) @ t=1.02
1.9916608323817377
% es.EX (V/m) @ t=1.02
-0.5941528326329184
% es.EY (V/m) @ t=1.02
0.04438122779359095
% es.EZ (V/m) @ t=1.02
-1.8972561640819143
% es.tEX (V/m) @ t=1.02
-0.5941528326329184
% es.tEY (V/m) @ t=1.02
0
% es.tEZ (V/m) @ t=1.02
-1.8972561640819414
% es.Ex (V/m) @ t=1.02
-0.5941528326329184
% es.Ey (V/m) @ t=1.02
0.04438122779359095
% es.Ez (V/m) @ t=1.02
-1.8972561640819143
% es.tEx (V/m) @ t=1.02
-0.5941528326329184