% Model:              1 neuron.mph
% Version:            COMSOL 6.1.0.252
% Date:               Mar 18 2023, 11:45
% Dimension:          0
% Nodes:              14017
% Expressions:        14017
% Description:        Electric field norm, Electric field, X component, Electric field, Y component, Electric field, Z component, Tangential electric field, X component, Tangential electric field, Y component, Tangential electric field, Z component, Electric field, x component, Electric field, y component, Electric field, z component, Tangential electric field, x component, Tangential electric field, y component, Tangential electric field, z component, Electric potential
% Length unit:        mm
% x
1.33
% y
12.2
% z
1
% es.normE (V/m) @ t=0
1.5760992014617692
% es.EX (V/m) @ t=0
0.4864845853641405
% es.EY (V/m) @ t=0
0.11785716442250771
% es.EZ (V/m) @ t=0
1.4944894949833532
% es.tEX (V/m) @ t=0
0.4864845853641384
% es.tEY (V/m) @ t=0
0
% es.tEZ (V/m) @ t=0
1.4944894949833536
% es.Ex (V/m) @ t=0
0.4864845853641405
% es.Ey (V/m) @ t=0
0.11785716442250771
% es.Ez (V/m) @ t=0
1.4944894949833532
% es.tEx (V/m) @ t=0
0.4864845853641384
% es.tEy (V/m) @ t=0
0
% es.tEz (V/m) @ t=0
1.4944894949833536
% V (V) @ t=0
0.007371461718333542
% es.normE (V/m) @ t=0.02
1.3612930725742711
% es.EX (V/m) @ t=0.02
0.42018173484062116
% es.EY (V/m) @ t=0.02
0.10179444357563022
% es.EZ (V/m) @ t=0.02
1.2908059305109219
% es.tEX (V/m) @ t=0.02
0.4201817348406287
% es.tEY (V/m) @ t=0.02
0
% es.tEZ (V/m) @ t=0.02
1.2908059305109232
% es.Ex (V/m) @ t=0.02
0.42018173484062116
% es.Ey (V/m) @ t=0.02
0.10179444357563022
% es.Ez (V/m) @ t=0.02
1.2908059305109219
% es.tEx (V/m) @ t=0.02
0.4201817348406287
% es.tEy (V/m) @ t=0.02
0
% es.tEz (V/m) @ t=0.02
1.2908059305109232
% V (V) @ t=0.02
0.006366807200995527
% es.normE (V/m) @ t=0.04
1.3738135060369712
% es.EX (V/m) @ t=0.04
0.42404634162719834
% es.EY (V/m) @ t=0.04
0.10273069308020977
% es.EZ (V/m) @ t=0.04
1.3026780604075623
% es.tEX (V/m) @ t=0.04
0.42404634162719645
% es.tEY (V/m) @ t=0.04
0
% es.tEZ (V/m) @ t=0.04
1.3026780604075716
% es.Ex (V/m) @ t=0.04
0.42404634162719834
% es.Ey (V/m) @ t=0.04
0.10273069308020977
% es.Ez (V/m) @ t=0.04
1.3026780604075623
% es.tEx (V/m) @ t=0.04
0.42404634162719645
% es.tEy (V/m) @ t=0.04
0
% es.tEz (V/m) @ t=0.04
1.3026780604075716
% V (V) @ t=0.04
0.0064253654746565785
% es.normE (V/m) @ t=0.06
1.3864499367159349
% es.EX (V/m) @ t=0.06
0.42794675451422814
% es.EY (V/m) @ t=0.06
0.10367561746204235
% es.EZ (V/m) @ t=0.06
1.3146601805295473
% es.tEX (V/m) @ t=0.06
0.42794675451423103
% es.tEY (V/m) @ t=0.06
0
% es.tEZ (V/m) @ t=0.06
1.3146601805295575
% es.Ex (V/m) @ t=0.06
0.42794675451422814
% es.Ey (V/m) @ t=0.06
0.10367561746204235
% es.Ez (V/m) @ t=0.06
1.3146601805295473
% es.tEx (V/m) @ t=0.06
0.42794675451423103
% es.tEy (V/m) @ t=0.06
0
% es.tEz (V/m) @ t=0.06
1.3146601805295575
% V (V) @ t=0.06
0.006484466137009578
% es.normE (V/m) @ t=0.08
1.39927184697345
% es.EX (V/m) @ t=0.08
0.43190441138064783
% es.EY (V/m) @ t=0.08
0.10463441075231594
% es.EZ (V/m) @ t=0.08
1.3268181784681117
% es.tEX (V/m) @ t=0.08
0.43190441138064983
% es.tEY (V/m) @ t=0.08
0
% es.tEZ (V/m) @ t=0.08
1.3268181784681161
% es.Ex (V/m) @ t=0.08
0.43190441138064783
% es.Ey (V/m) @ t=0.08
0.10463441075231594
% es.Ez (V/m) @ t=0.08
1.3268181784681117
% es.tEx (V/m) @ t=0.08
0.43190441138064983
% es.tEy (V/m) @ t=0.08
0
% es.tEz (V/m) @ t=0.08
1.3268181784681161
% V (V) @ t=0.08
0.006544434655496806
% es.normE (V/m) @ t=0.1
1.4122379385687236
% es.EX (V/m) @ t=0.1
0.43590656648020176
% es.EY (V/m) @ t=0.1
0.10560398494789491
% es.EZ (V/m) @ t=0.1
1.3391128938775383
% es.tEX (V/m) @ t=0.1
0.43590656648020243
% es.tEY (V/m) @ t=0.1
0
% es.tEZ (V/m) @ t=0.1
1.3391128938775374
% es.Ex (V/m) @ t=0.1
0.43590656648020176
% es.Ey (V/m) @ t=0.1
0.10560398494789491
% es.Ez (V/m) @ t=0.1
1.3391128938775383
% es.tEx (V/m) @ t=0.1
0.43590656648020243
% es.tEy (V/m) @ t=0.1
0
% es.tEz (V/m) @ t=0.1
1.3391128938775374
% V (V) @ t=0.1
0.006605077796276177
% es.normE (V/m) @ t=0.12
1.4252040301640103
% es.EX (V/m) @ t=0.12
0.439908721579759
% es.EY (V/m) @ t=0.12
0.106573559143476
% es.EZ (V/m) @ t=0.12
1.3514076092869773
% es.tEX (V/m) @ t=0.12
0.43990872157976213
% es.tEY (V/m) @ t=0.12
0
% es.tEZ (V/m) @ t=0.12
1.3514076092869747
% es.Ex (V/m) @ t=0.12
0.439908721579759
% es.Ey (V/m) @ t=0.12
0.106573559143476
% es.Ez (V/m) @ t=0.12
1.3514076092869773
% es.tEx (V/m) @ t=0.12
0.43990872157976213
% es.tEy (V/m) @ t=0.12
0
% es.tEz (V/m) @ t=0.12
1.3514076092869747
% V (V) @ t=0.12
0.0066657209370555495
% es.normE (V/m) @ t=0.14
1.4382645163818533
% es.EX (V/m) @ t=0.14
0.44394001960389895
% es.EY (V/m) @ t=0.14
0.10755019321439796
% es.EZ (V/m) @ t=0.14
1.3637918293213507
% es.tEX (V/m) @ t=0.14
0.44394001960390383
% es.tEY (V/m) @ t=0.14
0
% es.tEZ (V/m) @ t=0.14
1.3637918293213538
% es.Ex (V/m) @ t=0.14
0.44394001960389895
% es.Ey (V/m) @ t=0.14
0.10755019321439796
% es.Ez (V/m) @ t=0.14
1.3637918293213507
% es.tEx (V/m) @ t=0.14
0.44394001960390383
% es.tEy (V/m) @ t=0.14
0
% es.tEz (V/m) @ t=0.14
1.3637918293213538
% V (V) @ t=0.14
0.006726805190735369
% es.normE (V/m) @ t=0.16
1.4519281951086311
% es.EX (V/m) @ t=0.16
0.44815754427228516
% es.EY (V/m) @ t=0.16
0.10857194070180787
% es.EZ (V/m) @ t=0.16
1.376747994216712
% es.tEX (V/m) @ t=0.16
0.4481575442722807
% es.tEY (V/m) @ t=0.16
0
% es.tEZ (V/m) @ t=0.16
1.3767479942167107
% es.Ex (V/m) @ t=0.16
0.44815754427228516
% es.Ey (V/m) @ t=0.16
0.10857194070180787
% es.Ez (V/m) @ t=0.16
1.376747994216712
% es.tEx (V/m) @ t=0.16
0.4481575442722807
% es.tEy (V/m) @ t=0.16
0
% es.tEz (V/m) @ t=0.16
1.3767479942167107
% V (V) @ t=0.16
0.00679070820664889
% es.normE (V/m) @ t=0.18
1.4655918738354214
% es.EX (V/m) @ t=0.18
0.45237506894068014
% es.EY (V/m) @ t=0.18
0.10959368818922843
% es.EZ (V/m) @ t=0.18
1.3897041591120813
% es.tEX (V/m) @ t=0.18
0.45237506894068247
% es.tEY (V/m) @ t=0.18
0
% es.tEZ (V/m) @ t=0.18
1.3897041591120871
% es.Ex (V/m) @ t=0.18
0.45237506894068014
% es.Ey (V/m) @ t=0.18
0.10959368818922843
% es.Ez (V/m) @ t=0.18
1.3897041591120813
% es.tEx (V/m) @ t=0.18
0.45237506894068247
% es.tEy (V/m) @ t=0.18
0
% es.tEz (V/m) @ t=0.18
1.3897041591120871
% V (V) @ t=0.18
0.0068546112225624095
% es.normE (V/m) @ t=0.2
1.479255552562207
% es.EX (V/m) @ t=0.2
0.45659259360906757
% es.EY (V/m) @ t=0.2
0.11061543567664511
% es.EZ (V/m) @ t=0.2
1.4026603240074471
% es.tEX (V/m) @ t=0.2
0.45659259360906645
% es.tEY (V/m) @ t=0.2
0
% es.tEZ (V/m) @ t=0.2
1.4026603240074458
% es.Ex (V/m) @ t=0.2
0.45659259360906757
% es.Ey (V/m) @ t=0.2
0.11061543567664511
% es.Ez (V/m) @ t=0.2
1.4026603240074471
% es.tEx (V/m) @ t=0.2
0.45659259360906645
% es.tEy (V/m) @ t=0.2
0
% es.tEz (V/m) @ t=0.2
1.4026603240074458
% V (V) @ t=0.2
0.006918514238475929
% es.normE (V/m) @ t=0.22
1.4929192312890027
% es.EX (V/m) @ t=0.22
0.46081011827746166
% es.EY (V/m) @ t=0.22
0.11163718316404614
% es.EZ (V/m) @ t=0.22
1.4156164889028209
% es.tEX (V/m) @ t=0.22
0.46081011827745755
% es.tEY (V/m) @ t=0.22
0
% es.tEZ (V/m) @ t=0.22
1.415616488902824
% es.Ex (V/m) @ t=0.22
0.46081011827746166
% es.Ey (V/m) @ t=0.22
0.11163718316404614
% es.Ez (V/m) @ t=0.22
1.4156164889028209
% es.tEx (V/m) @ t=0.22
0.46081011827745755
% es.tEy (V/m) @ t=0.22
0
% es.tEz (V/m) @ t=0.22
1.415616488902824
% V (V) @ t=0.22
0.00698241725438945
% es.normE (V/m) @ t=0.24
1.5065829100158
% es.EX (V/m) @ t=0.24
0.46502764294585586
% es.EY (V/m) @ t=0.24
0.11265893065146348
% es.EZ (V/m) @ t=0.24
1.4285726537981933
% es.tEX (V/m) @ t=0.24
0.46502764294586285
% es.tEY (V/m) @ t=0.24
0
% es.tEZ (V/m) @ t=0.24
1.4285726537981898
% es.Ex (V/m) @ t=0.24
0.46502764294585586
% es.Ey (V/m) @ t=0.24
0.11265893065146348
% es.Ez (V/m) @ t=0.24
1.4285726537981933
% es.tEx (V/m) @ t=0.24
0.46502764294586285
% es.tEy (V/m) @ t=0.24
0
% es.tEz (V/m) @ t=0.24
1.4285726537981898
% V (V) @ t=0.24
0.00704632027030297
% es.normE (V/m) @ t=0.26
1.5202465887425745
% es.EX (V/m) @ t=0.26
0.4692451676142335
% es.EY (V/m) @ t=0.26
0.11368067813888738
% es.EZ (V/m) @ t=0.26
1.4415288186935453
% es.tEX (V/m) @ t=0.26
0.46924516761423263
% es.tEY (V/m) @ t=0.26
0
% es.tEZ (V/m) @ t=0.26
1.4415288186935467
% es.Ex (V/m) @ t=0.26
0.4692451676142335
% es.Ey (V/m) @ t=0.26
0.11368067813888738
% es.Ez (V/m) @ t=0.26
1.4415288186935453
% es.tEx (V/m) @ t=0.26
0.46924516761423263
% es.tEy (V/m) @ t=0.26
0
% es.tEz (V/m) @ t=0.26
1.4415288186935467
% V (V) @ t=0.26
0.007110223286216489
% es.normE (V/m) @ t=0.28
1.5343511224689417
% es.EX (V/m) @ t=0.28
0.4735988136240675
% es.EY (V/m) @ t=0.28
0.11473540146034666
% es.EZ (V/m) @ t=0.28
1.4549029958009916
% es.tEX (V/m) @ t=0.28
0.4735988136240721
% es.tEY (V/m) @ t=0.28
0
% es.tEZ (V/m) @ t=0.28
1.454902995801005
% es.Ex (V/m) @ t=0.28
0.4735988136240675
% es.Ey (V/m) @ t=0.28
0.11473540146034666
% es.Ez (V/m) @ t=0.28
1.4549029958009916
% es.tEx (V/m) @ t=0.28
0.4735988136240721
% es.tEy (V/m) @ t=0.28
0
% es.tEz (V/m) @ t=0.28
1.454902995801005
% V (V) @ t=0.28
0.007176185631531566
% es.normE (V/m) @ t=0.3
1.549585509383555
% es.EX (V/m) @ t=0.3
0.4783013206692953
% es.EY (V/m) @ t=0.3
0.1158746374929096
% es.EZ (V/m) @ t=0.3
1.4693484830466779
% es.tEX (V/m) @ t=0.3
0.47830132066928854
% es.tEY (V/m) @ t=0.3
0
% es.tEZ (V/m) @ t=0.3
1.46934848304668
% es.Ex (V/m) @ t=0.3
0.4783013206692953
% es.Ey (V/m) @ t=0.3
0.1158746374929096
% es.Ez (V/m) @ t=0.3
1.4693484830466779
% es.tEx (V/m) @ t=0.3
0.47830132066928854
% es.tEy (V/m) @ t=0.3
0
% es.tEz (V/m) @ t=0.3
1.46934848304668
% V (V) @ t=0.3
0.007247425766351529
% es.normE (V/m) @ t=0.32
1.564819896298188
% es.EX (V/m) @ t=0.32
0.4830038277145262
% es.EY (V/m) @ t=0.32
0.11701387352548454
% es.EZ (V/m) @ t=0.32
1.4837939702923508
% es.tEX (V/m) @ t=0.32
0.4830038277145263
% es.tEY (V/m) @ t=0.32
0
% es.tEZ (V/m) @ t=0.32
1.4837939702923553
% es.Ex (V/m) @ t=0.32
0.4830038277145262
% es.Ey (V/m) @ t=0.32
0.11701387352548454
% es.Ez (V/m) @ t=0.32
1.4837939702923508
% es.tEx (V/m) @ t=0.32
0.4830038277145263
% es.tEy (V/m) @ t=0.32
0
% es.tEz (V/m) @ t=0.32
1.4837939702923553
% V (V) @ t=0.32
0.007318665901171493
% es.normE (V/m) @ t=0.34
1.5800542832128464
% es.EX (V/m) @ t=0.34
0.48770633475973557
% es.EY (V/m) @ t=0.34
0.11815310955804026
% es.EZ (V/m) @ t=0.34
1.498239457538027
% es.tEX (V/m) @ t=0.34
0.4877063347597357
% es.tEY (V/m) @ t=0.34
0
% es.tEZ (V/m) @ t=0.34
1.4982394575380287
% es.Ex (V/m) @ t=0.34
0.48770633475973557
% es.Ey (V/m) @ t=0.34
0.11815310955804026
% es.Ez (V/m) @ t=0.34
1.498239457538027
% es.tEx (V/m) @ t=0.34
0.4877063347597357
% es.tEy (V/m) @ t=0.34
0
% es.tEz (V/m) @ t=0.34
1.4982394575380287
% V (V) @ t=0.34
0.007389906035991456
% es.normE (V/m) @ t=0.36
1.5952886701275295
% es.EX (V/m) @ t=0.36
0.4924088418049617
% es.EY (V/m) @ t=0.36
0.11929234559061697
% es.EZ (V/m) @ t=0.36
1.5126849447836919
% es.tEX (V/m) @ t=0.36
0.49240884180496636
% es.tEY (V/m) @ t=0.36
0
% es.tEZ (V/m) @ t=0.36
1.5126849447836967
% es.Ex (V/m) @ t=0.36
0.4924088418049617
% es.Ey (V/m) @ t=0.36
0.11929234559061697
% es.Ez (V/m) @ t=0.36
1.5126849447836919
% es.tEx (V/m) @ t=0.36
0.49240884180496636
% es.tEy (V/m) @ t=0.36
0
% es.tEz (V/m) @ t=0.36
1.5126849447836967
% V (V) @ t=0.36
0.007461146170811421
% es.normE (V/m) @ t=0.38
1.6105230570422522
% es.EX (V/m) @ t=0.38
0.4971113488501824
% es.EY (V/m) @ t=0.38
0.12043158162317824
% es.EZ (V/m) @ t=0.38
1.527130432029372
% es.tEX (V/m) @ t=0.38
0.4971113488501828
% es.tEY (V/m) @ t=0.38
0
% es.tEZ (V/m) @ t=0.38
1.5271304320293773
% es.Ex (V/m) @ t=0.38
0.4971113488501824
% es.Ey (V/m) @ t=0.38
0.12043158162317824
% es.Ez (V/m) @ t=0.38
1.527130432029372
% es.tEx (V/m) @ t=0.38
0.4971113488501828
% es.tEy (V/m) @ t=0.38
0
% es.tEz (V/m) @ t=0.38
1.5271304320293773
% V (V) @ t=0.38
0.007532386305631384
% es.normE (V/m) @ t=0.4
1.6257574439570053
% es.EX (V/m) @ t=0.4
0.5018138558954087
% es.EY (V/m) @ t=0.4
0.12157081765575484
% es.EZ (V/m) @ t=0.4
1.541575919275052
% es.tEX (V/m) @ t=0.4
0.5018138558954064
% es.tEY (V/m) @ t=0.4
0
% es.tEZ (V/m) @ t=0.4
1.5415759192750524
% es.Ex (V/m) @ t=0.4
0.5018138558954087
% es.Ey (V/m) @ t=0.4
0.12157081765575484
% es.Ez (V/m) @ t=0.4
1.541575919275052
% es.tEx (V/m) @ t=0.4
0.5018138558954064
% es.tEy (V/m) @ t=0.4
0
% es.tEz (V/m) @ t=0.4
1.5415759192750524
% V (V) @ t=0.4
0.007603626440451348
% es.normE (V/m) @ t=0.42
1.6409918308717848
% es.EX (V/m) @ t=0.42
0.5065163629406382
% es.EY (V/m) @ t=0.42
0.12271005368832988
% es.EZ (V/m) @ t=0.42
1.5560214065207312
% es.tEX (V/m) @ t=0.42
0.5065163629406442
% es.tEY (V/m) @ t=0.42
0
% es.tEZ (V/m) @ t=0.42
1.5560214065207365
% es.Ex (V/m) @ t=0.42
0.5065163629406382
% es.Ey (V/m) @ t=0.42
0.12271005368832988
% es.Ez (V/m) @ t=0.42
1.5560214065207312
% es.tEx (V/m) @ t=0.42
0.5065163629406442
% es.tEy (V/m) @ t=0.42
0
% es.tEz (V/m) @ t=0.42
1.5560214065207365
% V (V) @ t=0.42
0.007674866575271311
% es.normE (V/m) @ t=0.44
1.6562262177865728
% es.EX (V/m) @ t=0.44
0.5112188699858584
% es.EY (V/m) @ t=0.44
0.12384928972088716
% es.EZ (V/m) @ t=0.44
1.5704668937663961
% es.tEX (V/m) @ t=0.44
0.5112188699858535
% es.tEY (V/m) @ t=0.44
0
% es.tEZ (V/m) @ t=0.44
1.5704668937664028
% es.Ex (V/m) @ t=0.44
0.5112188699858584
% es.Ey (V/m) @ t=0.44
0.12384928972088716
% es.Ez (V/m) @ t=0.44
1.5704668937663961
% es.tEx (V/m) @ t=0.44
0.5112188699858535
% es.tEy (V/m) @ t=0.44
0
% es.tEz (V/m) @ t=0.44
1.5704668937664028
% V (V) @ t=0.44
0.007746106710091276
% es.normE (V/m) @ t=0.46
1.6714606047014096
% es.EX (V/m) @ t=0.46
0.5159213770310827
% es.EY (V/m) @ t=0.46
0.12498852575346786
% es.EZ (V/m) @ t=0.46
1.5849123810120833
% es.tEX (V/m) @ t=0.46
0.5159213770310771
% es.tEY (V/m) @ t=0.46
0
% es.tEZ (V/m) @ t=0.46
1.584912381012085
% es.Ex (V/m) @ t=0.46
0.5159213770310827
% es.Ey (V/m) @ t=0.46
0.12498852575346786
% es.Ez (V/m) @ t=0.46
1.5849123810120833
% es.tEx (V/m) @ t=0.46
0.5159213770310771
% es.tEy (V/m) @ t=0.46
0
% es.tEz (V/m) @ t=0.46
1.584912381012085
% V (V) @ t=0.46
0.007817346844911241
% es.normE (V/m) @ t=0.48
1.6866949916162544
% es.EX (V/m) @ t=0.48
0.5206238840762963
% es.EY (V/m) @ t=0.48
0.1261277617860198
% es.EZ (V/m) @ t=0.48
1.5993578682577585
% es.tEX (V/m) @ t=0.48
0.5206238840762936
% es.tEY (V/m) @ t=0.48
0
% es.tEZ (V/m) @ t=0.48
1.5993578682577603
% es.Ex (V/m) @ t=0.48
0.5206238840762963
% es.Ey (V/m) @ t=0.48
0.1261277617860198
% es.Ez (V/m) @ t=0.48
1.5993578682577585
% es.tEx (V/m) @ t=0.48
0.5206238840762936
% es.tEy (V/m) @ t=0.48
0
% es.tEz (V/m) @ t=0.48
1.5993578682577603
% V (V) @ t=0.48
0.007888586979731204
% es.normE (V/m) @ t=0.5
1.7019293785311147
% es.EX (V/m) @ t=0.5
0.5253263911215155
% es.EY (V/m) @ t=0.5
0.1272669978185983
% es.EZ (V/m) @ t=0.5
1.6138033555034212
% es.tEX (V/m) @ t=0.5
0.5253263911215171
% es.tEY (V/m) @ t=0.5
0
% es.tEZ (V/m) @ t=0.5
1.6138033555034266
% es.Ex (V/m) @ t=0.5
0.5253263911215155
% es.Ey (V/m) @ t=0.5
0.1272669978185983
% es.Ez (V/m) @ t=0.5
1.6138033555034212
% es.tEx (V/m) @ t=0.5
0.5253263911215171
% es.tEy (V/m) @ t=0.5
0
% es.tEz (V/m) @ t=0.5
1.6138033555034266
% V (V) @ t=0.5
0.007959827114551166
% es.normE (V/m) @ t=0.52
1.7171637654460365
% es.EX (V/m) @ t=0.52
0.530028898166754
% es.EY (V/m) @ t=0.52
0.12840623385117544
% es.EZ (V/m) @ t=0.52
1.6282488427491177
% es.tEX (V/m) @ t=0.52
0.5300288981667549
% es.tEY (V/m) @ t=0.52
0
% es.tEZ (V/m) @ t=0.52
1.6282488427491177
% es.Ex (V/m) @ t=0.52
0.530028898166754
% es.Ey (V/m) @ t=0.52
0.12840623385117544
% es.Ez (V/m) @ t=0.52
1.6282488427491177
% es.tEx (V/m) @ t=0.52
0.5300288981667549
% es.tEy (V/m) @ t=0.52
0
% es.tEz (V/m) @ t=0.52
1.6282488427491177
% V (V) @ t=0.52
0.00803106724937113
% es.normE (V/m) @ t=0.54
1.7323981523609393
% es.EX (V/m) @ t=0.54
0.5347314052119587
% es.EY (V/m) @ t=0.54
0.1295454698837345
% es.EZ (V/m) @ t=0.54
1.6426943299947832
% es.tEX (V/m) @ t=0.54
0.5347314052119643
% es.tEY (V/m) @ t=0.54
0
% es.tEZ (V/m) @ t=0.54
1.642694329994784
% es.Ex (V/m) @ t=0.54
0.5347314052119587
% es.Ey (V/m) @ t=0.54
0.1295454698837345
% es.Ez (V/m) @ t=0.54
1.6426943299947832
% es.tEx (V/m) @ t=0.54
0.5347314052119643
% es.tEy (V/m) @ t=0.54
0
% es.tEz (V/m) @ t=0.54
1.642694329994784
% V (V) @ t=0.54
0.008102307384191095
% es.normE (V/m) @ t=0.56
1.748653061072437
% es.EX (V/m) @ t=0.56
0.5397484774889579
% es.EY (V/m) @ t=0.56
0.1307608403907612
% es.EZ (V/m) @ t=0.56
1.6581076511617363
% es.tEX (V/m) @ t=0.56
0.5397484774889563
% es.tEY (V/m) @ t=0.56
0
% es.tEZ (V/m) @ t=0.56
1.6581076511617372
% es.Ex (V/m) @ t=0.56
0.5397484774889579
% es.Ey (V/m) @ t=0.56
0.1307608403907612
% es.Ez (V/m) @ t=0.56
1.6581076511617363
% es.tEx (V/m) @ t=0.56
0.5397484774889563
% es.tEy (V/m) @ t=0.56
0
% es.tEz (V/m) @ t=0.56
1.6581076511617372
% V (V) @ t=0.56
0.00817834842119461
% es.normE (V/m) @ t=0.58
1.7656734926360702
% es.EX (V/m) @ t=0.58
0.5450015142246439
% es.EY (V/m) @ t=0.58
0.13203332156435232
% es.EZ (V/m) @ t=0.58
1.674246972484776
% es.tEX (V/m) @ t=0.58
0.5450015142246443
% es.tEY (V/m) @ t=0.58
0
% es.tEZ (V/m) @ t=0.58
1.6742469724847862
% es.Ex (V/m) @ t=0.58
0.5450015142246439
% es.Ey (V/m) @ t=0.58
0.13203332156435232
% es.Ez (V/m) @ t=0.58
1.674246972484776
% es.tEx (V/m) @ t=0.58
0.5450015142246443
% es.tEy (V/m) @ t=0.58
0
% es.tEz (V/m) @ t=0.58
1.6742469724847862
% V (V) @ t=0.58
0.008257990753480257
% es.normE (V/m) @ t=0.6
1.782693924199986
% es.EX (V/m) @ t=0.6
0.5502545509603289
% es.EY (V/m) @ t=0.6
0.13330580273793358
% es.EZ (V/m) @ t=0.6
1.6903862938078111
% es.tEX (V/m) @ t=0.6
0.5502545509603323
% es.tEY (V/m) @ t=0.6
0
% es.tEZ (V/m) @ t=0.6
1.6903862938078191
% es.Ex (V/m) @ t=0.6
0.5502545509603289
% es.Ey (V/m) @ t=0.6
0.13330580273793358
% es.Ez (V/m) @ t=0.6
1.6903862938078111
% es.tEx (V/m) @ t=0.6
0.5502545509603323
% es.tEy (V/m) @ t=0.6
0
% es.tEz (V/m) @ t=0.6
1.6903862938078191
% V (V) @ t=0.6
0.008337633085765905
% es.normE (V/m) @ t=0.62
1.799714355764182
% es.EX (V/m) @ t=0.62
0.5555075876960255
% es.EY (V/m) @ t=0.62
0.1345782839115034
% es.EZ (V/m) @ t=0.62
1.7065256151308432
% es.tEX (V/m) @ t=0.62
0.5555075876960274
% es.tEY (V/m) @ t=0.62
0
% es.tEZ (V/m) @ t=0.62
1.7065256151308468
% es.Ex (V/m) @ t=0.62
0.5555075876960255
% es.Ey (V/m) @ t=0.62
0.1345782839115034
% es.Ez (V/m) @ t=0.62
1.7065256151308432
% es.tEx (V/m) @ t=0.62
0.5555075876960274
% es.tEy (V/m) @ t=0.62
0
% es.tEz (V/m) @ t=0.62
1.7065256151308468
% V (V) @ t=0.62
0.00841727541805155
% es.normE (V/m) @ t=0.64
1.816734787328649
% es.EX (V/m) @ t=0.64
0.5607606244317156
% es.EY (V/m) @ t=0.64
0.13585076508509486
% es.EZ (V/m) @ t=0.64
1.7226649364538753
% es.tEX (V/m) @ t=0.64
0.5607606244317154
% es.tEY (V/m) @ t=0.64
0
% es.tEZ (V/m) @ t=0.64
1.7226649364538762
% es.Ex (V/m) @ t=0.64
0.5607606244317156
% es.Ey (V/m) @ t=0.64
0.13585076508509486
% es.Ez (V/m) @ t=0.64
1.7226649364538753
% es.tEx (V/m) @ t=0.64
0.5607606244317154
% es.tEy (V/m) @ t=0.64
0
% es.tEz (V/m) @ t=0.64
1.7226649364538762
% V (V) @ t=0.64
0.008496917750337197
% es.normE (V/m) @ t=0.66
1.833755218893379
% es.EX (V/m) @ t=0.66
0.5660136611673965
% es.EY (V/m) @ t=0.66
0.13712324625866124
% es.EZ (V/m) @ t=0.66
1.7388042577769105
% es.tEX (V/m) @ t=0.66
0.5660136611673963
% es.tEY (V/m) @ t=0.66
0
% es.tEZ (V/m) @ t=0.66
1.7388042577769145
% es.Ex (V/m) @ t=0.66
0.5660136611673965
% es.Ey (V/m) @ t=0.66
0.13712324625866124
% es.Ez (V/m) @ t=0.66
1.7388042577769105
% es.tEx (V/m) @ t=0.66
0.5660136611673963
% es.tEy (V/m) @ t=0.66
0
% es.tEz (V/m) @ t=0.66
1.7388042577769145
% V (V) @ t=0.66
0.008576560082622843
% es.normE (V/m) @ t=0.68
1.850775650458358
% es.EX (V/m) @ t=0.68
0.5712666979030848
% es.EY (V/m) @ t=0.68
0.1383957274322456
% es.EZ (V/m) @ t=0.68
1.7549435790999337
% es.tEX (V/m) @ t=0.68
0.5712666979030843
% es.tEY (V/m) @ t=0.68
0
% es.tEZ (V/m) @ t=0.68
1.754943579099944
% es.Ex (V/m) @ t=0.68
0.5712666979030848
% es.Ey (V/m) @ t=0.68
0.1383957274322456
% es.Ez (V/m) @ t=0.68
1.7549435790999337
% es.tEx (V/m) @ t=0.68
0.5712666979030843
% es.tEy (V/m) @ t=0.68
0
% es.tEz (V/m) @ t=0.68
1.754943579099944
% V (V) @ t=0.68
0.008656202414908491
% es.normE (V/m) @ t=0.7
1.8677960820236175
% es.EX (V/m) @ t=0.7
0.5765197346387794
% es.EY (V/m) @ t=0.7
0.13966820860583407
% es.EZ (V/m) @ t=0.7
1.7710829004229862
% es.tEX (V/m) @ t=0.7
0.5765197346387794
% es.tEY (V/m) @ t=0.7
0
% es.tEZ (V/m) @ t=0.7
1.7710829004229858
% es.Ex (V/m) @ t=0.7
0.5765197346387794
% es.Ey (V/m) @ t=0.7
0.13966820860583407
% es.Ez (V/m) @ t=0.7
1.7710829004229862
% es.tEx (V/m) @ t=0.7
0.5765197346387794
% es.tEy (V/m) @ t=0.7
0
% es.tEz (V/m) @ t=0.7
1.7710829004229858
% V (V) @ t=0.7
0.008735844747194138
% es.normE (V/m) @ t=0.72
1.8848165135891053
% es.EX (V/m) @ t=0.72
0.5817727713744681
% es.EY (V/m) @ t=0.72
0.14094068977941132
% es.EZ (V/m) @ t=0.72
1.7872222217460259
% es.tEX (V/m) @ t=0.72
0.5817727713744674
% es.tEY (V/m) @ t=0.72
0
% es.tEZ (V/m) @ t=0.72
1.7872222217460259
% es.Ex (V/m) @ t=0.72
0.5817727713744681
% es.Ey (V/m) @ t=0.72
0.14094068977941132
% es.Ez (V/m) @ t=0.72
1.7872222217460259
% es.tEx (V/m) @ t=0.72
0.5817727713744674
% es.tEy (V/m) @ t=0.72
0
% es.tEz (V/m) @ t=0.72
1.7872222217460259
% V (V) @ t=0.72
0.008815487079479784
% es.normE (V/m) @ t=0.74
1.9018369451548107
% es.EX (V/m) @ t=0.74
0.587025808110152
% es.EY (V/m) @ t=0.74
0.1422131709529919
% es.EZ (V/m) @ t=0.74
1.8033615430690464
% es.tEX (V/m) @ t=0.74
0.5870258081101554
% es.tEY (V/m) @ t=0.74
0
% es.tEZ (V/m) @ t=0.74
1.8033615430690393
% es.Ex (V/m) @ t=0.74
0.587025808110152
% es.Ey (V/m) @ t=0.74
0.1422131709529919
% es.Ez (V/m) @ t=0.74
1.8033615430690464
% es.tEx (V/m) @ t=0.74
0.5870258081101554
% es.tEy (V/m) @ t=0.74
0
% es.tEz (V/m) @ t=0.74
1.8033615430690393
% V (V) @ t=0.74
0.00889512941176543
% es.normE (V/m) @ t=0.76
1.9188573767207477
% es.EX (V/m) @ t=0.76
0.5922788448458354
% es.EY (V/m) @ t=0.76
0.14348565212656916
% es.EZ (V/m) @ t=0.76
1.8195008643920687
% es.tEX (V/m) @ t=0.76
0.5922788448458434
% es.tEY (V/m) @ t=0.76
0
% es.tEZ (V/m) @ t=0.76
1.8195008643920723
% es.Ex (V/m) @ t=0.76
0.5922788448458354
% es.Ey (V/m) @ t=0.76
0.14348565212656916
% es.Ez (V/m) @ t=0.76
1.8195008643920687
% es.tEx (V/m) @ t=0.76
0.5922788448458434
% es.tEy (V/m) @ t=0.76
0
% es.tEz (V/m) @ t=0.76
1.8195008643920723
% V (V) @ t=0.76
0.008974771744051077
% es.normE (V/m) @ t=0.78
1.9358778082869303
% es.EX (V/m) @ t=0.78
0.5975318815815301
% es.EY (V/m) @ t=0.78
0.14475813330016918
% es.EZ (V/m) @ t=0.78
1.835640185715108
% es.tEX (V/m) @ t=0.78
0.5975318815815243
% es.tEY (V/m) @ t=0.78
0
% es.tEZ (V/m) @ t=0.78
1.8356401857151141
% es.Ex (V/m) @ t=0.78
0.5975318815815301
% es.Ey (V/m) @ t=0.78
0.14475813330016918
% es.Ez (V/m) @ t=0.78
1.835640185715108
% es.tEx (V/m) @ t=0.78
0.5975318815815243
% es.tEy (V/m) @ t=0.78
0
% es.tEz (V/m) @ t=0.78
1.8356401857151141
% V (V) @ t=0.78
0.009054414076336725
% es.normE (V/m) @ t=0.8
1.9528982398533299
% es.EX (V/m) @ t=0.8
0.6027849183172168
% es.EY (V/m) @ t=0.8
0.14603061447369892
% es.EZ (V/m) @ t=0.8
1.8517795070381533
% es.tEX (V/m) @ t=0.8
0.6027849183172194
% es.tEY (V/m) @ t=0.8
0
% es.tEZ (V/m) @ t=0.8
1.8517795070381489
% es.Ex (V/m) @ t=0.8
0.6027849183172168
% es.Ey (V/m) @ t=0.8
0.14603061447369892
% es.Ez (V/m) @ t=0.8
1.8517795070381533
% es.tEx (V/m) @ t=0.8
0.6027849183172194
% es.tEy (V/m) @ t=0.8
0
% es.tEz (V/m) @ t=0.8
1.8517795070381489
% V (V) @ t=0.8
0.009134056408622372
% es.normE (V/m) @ t=0.82
1.969918671419923
% es.EX (V/m) @ t=0.82
0.6080379550529156
% es.EY (V/m) @ t=0.82
0.1473030956473148
% es.EZ (V/m) @ t=0.82
1.867918828361168
% es.tEX (V/m) @ t=0.82
0.6080379550529216
% es.tEY (V/m) @ t=0.82
0
% es.tEZ (V/m) @ t=0.82
1.8679188283611765
% es.Ex (V/m) @ t=0.82
0.6080379550529156
% es.Ey (V/m) @ t=0.82
0.1473030956473148
% es.Ez (V/m) @ t=0.82
1.867918828361168
% es.tEx (V/m) @ t=0.82
0.6080379550529216
% es.tEy (V/m) @ t=0.82
0
% es.tEz (V/m) @ t=0.82
1.8679188283611765
% V (V) @ t=0.82
0.009213698740908017
% es.normE (V/m) @ t=0.84
1.9886861681111918
% es.EX (V/m) @ t=0.84
0.6138303474883586
% es.EY (V/m) @ t=0.84
0.14870633703496716
% es.EZ (V/m) @ t=0.84
1.8857147110415546
% es.tEX (V/m) @ t=0.84
0.61383034748836
% es.tEY (V/m) @ t=0.84
0
% es.tEZ (V/m) @ t=0.84
1.8857147110415564
% es.Ex (V/m) @ t=0.84
0.6138303474883586
% es.Ey (V/m) @ t=0.84
0.14870633703496716
% es.Ez (V/m) @ t=0.84
1.8857147110415546
% es.tEx (V/m) @ t=0.84
0.61383034748836
% es.tEy (V/m) @ t=0.84
0
% es.tEz (V/m) @ t=0.84
1.8857147110415564
% V (V) @ t=0.84
0.009301502561630516
% es.normE (V/m) @ t=0.86
2.0077331217099754
% es.EX (V/m) @ t=0.86
0.6197090141409274
% es.EY (V/m) @ t=0.86
0.1501304945547689
% es.EZ (V/m) @ t=0.86
1.9037755738348041
% es.tEX (V/m) @ t=0.86
0.6197090141409305
% es.tEY (V/m) @ t=0.86
0
% es.tEZ (V/m) @ t=0.86
1.9037755738348157
% es.Ex (V/m) @ t=0.86
0.6197090141409274
% es.Ey (V/m) @ t=0.86
0.1501304945547689
% es.Ez (V/m) @ t=0.86
1.9037755738348041
% es.tEx (V/m) @ t=0.86
0.6197090141409305
% es.tEy (V/m) @ t=0.86
0
% es.tEz (V/m) @ t=0.86
1.9037755738348157
% V (V) @ t=0.86
0.009390611877086213
% es.normE (V/m) @ t=0.88
2.026780075308855
% es.EX (V/m) @ t=0.88
0.6255876807934848
% es.EY (V/m) @ t=0.88
0.15155465207462493
% es.EZ (V/m) @ t=0.88
1.9218364366280567
% es.tEX (V/m) @ t=0.88
0.6255876807934868
% es.tEY (V/m) @ t=0.88
0
% es.tEZ (V/m) @ t=0.88
1.921836436628066
% es.Ex (V/m) @ t=0.88
0.6255876807934848
% es.Ey (V/m) @ t=0.88
0.15155465207462493
% es.Ez (V/m) @ t=0.88
1.9218364366280567
% es.tEx (V/m) @ t=0.88
0.6255876807934868
% es.tEy (V/m) @ t=0.88
0
% es.tEz (V/m) @ t=0.88
1.921836436628066
% V (V) @ t=0.88
0.009479721192541915
% es.normE (V/m) @ t=0.9
2.045827028907838
% es.EX (V/m) @ t=0.9
0.6314663474460475
% es.EY (V/m) @ t=0.9
0.1529788095944219
% es.EZ (V/m) @ t=0.9
1.939897299421327
% es.tEX (V/m) @ t=0.9
0.6314663474460573
% es.tEY (V/m) @ t=0.9
0
% es.tEZ (V/m) @ t=0.9
1.9398972994213288
% es.Ex (V/m) @ t=0.9
0.6314663474460475
% es.Ey (V/m) @ t=0.9
0.1529788095944219
% es.Ez (V/m) @ t=0.9
1.939897299421327
% es.tEx (V/m) @ t=0.9
0.6314663474460573
% es.tEy (V/m) @ t=0.9
0
% es.tEz (V/m) @ t=0.9
1.9398972994213288
% V (V) @ t=0.9
0.009568830507997613
% es.normE (V/m) @ t=0.92
2.0648739825068803
% es.EX (V/m) @ t=0.92
0.6373450140986054
% es.EY (V/m) @ t=0.92
0.1544029671142645
% es.EZ (V/m) @ t=0.92
1.9579581622145663
% es.tEX (V/m) @ t=0.92
0.6373450140986066
% es.tEY (V/m) @ t=0.92
0
% es.tEZ (V/m) @ t=0.92
1.9579581622145632
% es.Ex (V/m) @ t=0.92
0.6373450140986054
% es.Ey (V/m) @ t=0.92
0.1544029671142645
% es.Ez (V/m) @ t=0.92
1.9579581622145663
% es.tEx (V/m) @ t=0.92
0.6373450140986066
% es.tEy (V/m) @ t=0.92
0
% es.tEz (V/m) @ t=0.92
1.9579581622145632
% V (V) @ t=0.92
0.009657939823453313
% es.normE (V/m) @ t=0.94
2.083920936106016
% es.EX (V/m) @ t=0.94
0.6432236807511593
% es.EY (V/m) @ t=0.94
0.155827124634073
% es.EZ (V/m) @ t=0.94
1.9760190250078185
% es.tEX (V/m) @ t=0.94
0.6432236807511629
% es.tEY (V/m) @ t=0.94
0
% es.tEZ (V/m) @ t=0.94
1.9760190250078136
% es.Ex (V/m) @ t=0.94
0.6432236807511593
% es.Ey (V/m) @ t=0.94
0.155827124634073
% es.Ez (V/m) @ t=0.94
1.9760190250078185
% es.tEx (V/m) @ t=0.94
0.6432236807511629
% es.tEy (V/m) @ t=0.94
0
% es.tEz (V/m) @ t=0.94
1.9760190250078136
% V (V) @ t=0.94
0.009747049138909012
% es.normE (V/m) @ t=0.96
2.1029678897052593
% es.EX (V/m) @ t=0.96
0.6491023474037347
% es.EY (V/m) @ t=0.96
0.15725128215389794
% es.EZ (V/m) @ t=0.96
1.9940798878010897
% es.tEX (V/m) @ t=0.96
0.6491023474037405
% es.tEY (V/m) @ t=0.96
0
% es.tEZ (V/m) @ t=0.96
1.9940798878010977
% es.Ex (V/m) @ t=0.96
0.6491023474037347
% es.Ey (V/m) @ t=0.96
0.15725128215389794
% es.Ez (V/m) @ t=0.96
1.9940798878010897
% es.tEx (V/m) @ t=0.96
0.6491023474037405
% es.tEy (V/m) @ t=0.96
0
% es.tEz (V/m) @ t=0.96
1.9940798878010977
% V (V) @ t=0.96
0.00983615845436471
% es.normE (V/m) @ t=0.98
2.1220148433045516
% es.EX (V/m) @ t=0.98
0.6549810140562908
% es.EY (V/m) @ t=0.98
0.15867543967371434
% es.EZ (V/m) @ t=0.98
2.012140750594335
% es.tEX (V/m) @ t=0.98
0.6549810140562826
% es.tEY (V/m) @ t=0.98
0
% es.tEZ (V/m) @ t=0.98
2.012140750594341
% es.Ex (V/m) @ t=0.98
0.6549810140562908
% es.Ey (V/m) @ t=0.98
0.15867543967371434
% es.Ez (V/m) @ t=0.98
2.012140750594335
% es.tEx (V/m) @ t=0.98
0.6549810140562826
% es.tEy (V/m) @ t=0.98
0
% es.tEz (V/m) @ t=0.98
2.012140750594341
% V (V) @ t=0.98
0.00992526776982041
% es.normE (V/m) @ t=1
2.1410617969039203
% es.EX (V/m) @ t=1
0.6608596807088574
% es.EY (V/m) @ t=1
0.1600995971935557
% es.EZ (V/m) @ t=1
2.0302016133875735
% es.tEX (V/m) @ t=1
0.6608596807088531
% es.tEY (V/m) @ t=1
0
% es.tEZ (V/m) @ t=1
2.030201613387584
% es.Ex (V/m) @ t=1
0.6608596807088574
% es.Ey (V/m) @ t=1
0.1600995971935557
% es.Ez (V/m) @ t=1
2.0302016133875735
% es.tEx (V/m) @ t=1
0.6608596807088531
% es.tEy (V/m) @ t=1
0
% es.tEz (V/m) @ t=1
2.030201613387584
% V (V) @ t=1
0.010014377085276107
% es.normE (V/m) @ t=1.02
2.160108750503375
% es.EX (V/m) @ t=1.02
0.6667383473614147
% es.EY (V/m) @ t=1.02
0.16152375471335845
% es.EZ (V/m) @ t=1.02
2.0482624761808284
% es.tEX (V/m) @ t=1.02
0.6667383473614166
% es.tEY (V/m) @ t=1.02
0
% es.tEZ (V/m) @ t=1.02
2.0482624761808346
% es.Ex (V/m) @ t=1.02
0.6667383473614147
% es.Ey (V/m) @ t=1.02
0.16152375471335845
% es.Ez (V/m) @ t=1.02
2.0482624761808284
% es.tEx (V/m) @ t=1.02
0.6667383473614166
% es.tEy (V/m) @ t=1.02
0
% es.tEz (V/m) @ t=1.02
2.0482624761808346
% V (V) @ t=1.02
0.010103486400731807
% es.normE (V/m) @ t=1.04
2.1791557041029037
% es.EX (V/m) @ t=1.04
0.6726170140139782
% es.EY (V/m) @ t=1.04
0.1629479122331926
% es.EZ (V/m) @ t=1.04
2.0663233389740787
% es.tEX (V/m) @ t=1.04
0.6726170140139871
% es.tEY (V/m) @ t=1.04
0
% es.tEZ (V/m) @ t=1.04
2.0663233389740903
% es.Ex (V/m) @ t=1.04
0.6726170140139782
% es.Ey (V/m) @ t=1.04
0.1629479122331926