% Model:              1 neuron.mph
% Version:            COMSOL 6.0.0.405
% Date:               Mar 16 2023, 09:45
% Dimension:          0
% Nodes:              14017
% Expressions:        14017
% Description:        Electric field norm, Electric field, X component, Electric field, Y component, Electric field, Z component, Tangential electric field, X component, Tangential electric field, Y component, Tangential electric field, Z component, Electric field, x component, Electric field, y component, Electric field, z component, Tangential electric field, x component, Tangential electric field, y component, Tangential electric field, z component, Electric potential
% Length unit:        mm
% x
1.0000000000000002
% y
12.2
% z
2
% es.normE (V/m) @ t=0
0.7073727018466491
% es.EX (V/m) @ t=0
0.4913473301477025
% es.EY (V/m) @ t=0
0.0735731366896066
% es.EZ (V/m) @ t=0
-0.4906291262250184
% es.tEX (V/m) @ t=0
0.4913473301477047
% es.tEY (V/m) @ t=0
0
% es.tEZ (V/m) @ t=0
-0.4906291262250093
% es.Ex (V/m) @ t=0
0.4913473301477025
% es.Ey (V/m) @ t=0
0.0735731366896066
% es.Ez (V/m) @ t=0
-0.4906291262250184
% es.tEx (V/m) @ t=0
0.4913473301477047
% es.tEy (V/m) @ t=0
0
% es.tEz (V/m) @ t=0
-0.4906291262250093
% V (V) @ t=0
0.007575047760371961
% es.normE (V/m) @ t=0.02
0.610971293865896
% es.EX (V/m) @ t=0.02
0.42438605992786627
% es.EY (V/m) @ t=0.02
0.06354652322327492
% es.EZ (V/m) @ t=0.02
-0.42376573330239853
% es.tEX (V/m) @ t=0.02
0.42438605992786704
% es.tEY (V/m) @ t=0.02
0
% es.tEZ (V/m) @ t=0.02
-0.4237657333023894
% es.Ex (V/m) @ t=0.02
0.42438605992786627
% es.Ey (V/m) @ t=0.02
0.06354652322327492
% es.Ez (V/m) @ t=0.02
-0.42376573330239853
% es.tEx (V/m) @ t=0.02
0.42438605992786704
% es.tEy (V/m) @ t=0.02
0
% es.tEz (V/m) @ t=0.02
-0.4237657333023894
% V (V) @ t=0.02
0.0065427131082105485
% es.normE (V/m) @ t=0.04
0.6165909868455397
% es.EX (V/m) @ t=0.04
0.42828954803070196
% es.EY (V/m) @ t=0.04
0.06413102407628099
% es.EZ (V/m) @ t=0.04
-0.42766351539481007
% es.tEX (V/m) @ t=0.04
0.42828954803070296
% es.tEY (V/m) @ t=0.04
0
% es.tEZ (V/m) @ t=0.04
-0.42766351539480096
% es.Ex (V/m) @ t=0.04
0.42828954803070196
% es.Ey (V/m) @ t=0.04
0.06413102407628099
% es.Ez (V/m) @ t=0.04
-0.42766351539481007
% es.tEx (V/m) @ t=0.04
0.42828954803070296
% es.tEy (V/m) @ t=0.04
0
% es.tEz (V/m) @ t=0.04
-0.42766351539480096
% V (V) @ t=0.04
0.006602892632626085
% es.normE (V/m) @ t=0.06
0.622260654365645
% es.EX (V/m) @ t=0.06
0.43222774931886143
% es.EY (V/m) @ t=0.06
0.06472071973788654
% es.EZ (V/m) @ t=0.06
-0.43159596031097447
% es.tEX (V/m) @ t=0.06
0.432227749318862
% es.tEY (V/m) @ t=0.06
0
% es.tEZ (V/m) @ t=0.06
-0.4315959603109656
% es.Ex (V/m) @ t=0.06
0.43222774931886143
% es.Ey (V/m) @ t=0.06
0.06472071973788654
% es.Ez (V/m) @ t=0.06
-0.43159596031097447
% es.tEx (V/m) @ t=0.06
0.432227749318862
% es.tEy (V/m) @ t=0.06
0
% es.tEz (V/m) @ t=0.06
-0.4315959603109656
% V (V) @ t=0.06
0.006663607497307112
% es.normE (V/m) @ t=0.08
0.6280184843831238
% es.EX (V/m) @ t=0.08
0.4362271890016597
% es.EY (V/m) @ t=0.08
0.06531958549362693
% es.EZ (V/m) @ t=0.08
-0.43558955405646604
% es.tEX (V/m) @ t=0.08
0.43622718900165935
% es.tEY (V/m) @ t=0.08
0
% es.tEZ (V/m) @ t=0.08
-0.4355895540564605
% es.Ex (V/m) @ t=0.08
0.4362271890016597
% es.Ey (V/m) @ t=0.08
0.06531958549362693
% es.Ez (V/m) @ t=0.08
-0.43558955405646604
% es.tEx (V/m) @ t=0.08
0.43622718900165935
% es.tEy (V/m) @ t=0.08
0
% es.tEz (V/m) @ t=0.08
-0.4355895540564605
% V (V) @ t=0.08
0.0067252664461341285
% es.normE (V/m) @ t=0.1
0.6338342404594208
% es.EX (V/m) @ t=0.1
0.44026686460058284
% es.EY (V/m) @ t=0.1
0.06592447634426207
% es.EZ (V/m) @ t=0.1
-0.4396233248703252
% es.tEX (V/m) @ t=0.1
0.4402668646005843
% es.tEY (V/m) @ t=0.1
0
% es.tEZ (V/m) @ t=0.1
-0.43962332487031786
% es.Ex (V/m) @ t=0.1
0.44026686460058284
% es.Ey (V/m) @ t=0.1
0.06592447634426207
% es.Ez (V/m) @ t=0.1
-0.4396233248703252
% es.tEx (V/m) @ t=0.1
0.4402668646005843
% es.tEy (V/m) @ t=0.1
0
% es.tEz (V/m) @ t=0.1
-0.43962332487031786
% V (V) @ t=0.1
0.006787545693561911
% es.normE (V/m) @ t=0.12
0.6396499965357169
% es.EX (V/m) @ t=0.12
0.4443065401995002
% es.EY (V/m) @ t=0.12
0.06652936719489722
% es.EZ (V/m) @ t=0.12
-0.44365709568418743
% es.tEX (V/m) @ t=0.12
0.4443065401995019
% es.tEY (V/m) @ t=0.12
0
% es.tEZ (V/m) @ t=0.12
-0.4436570956841783
% es.Ex (V/m) @ t=0.12
0.4443065401995002
% es.Ey (V/m) @ t=0.12
0.06652936719489722
% es.Ez (V/m) @ t=0.12
-0.44365709568418743
% es.tEx (V/m) @ t=0.12
0.4443065401995019
% es.tEy (V/m) @ t=0.12
0
% es.tEz (V/m) @ t=0.12
-0.4436570956841783
% V (V) @ t=0.12
0.0068498249409896916
% es.normE (V/m) @ t=0.14
0.6455327816417766
% es.EX (V/m) @ t=0.14
0.4483927747943993
% es.EY (V/m) @ t=0.14
0.06714122938870357
% es.EZ (V/m) @ t=0.14
-0.4477373574741723
% es.tEX (V/m) @ t=0.14
0.44839277479440165
% es.tEY (V/m) @ t=0.14
0
% es.tEZ (V/m) @ t=0.14
-0.4477373574741632
% es.Ex (V/m) @ t=0.14
0.4483927747943993
% es.Ey (V/m) @ t=0.14
0.06714122938870357
% es.Ez (V/m) @ t=0.14
-0.4477373574741723
% es.tEx (V/m) @ t=0.14
0.44839277479440165
% es.tEy (V/m) @ t=0.14
0
% es.tEz (V/m) @ t=0.14
-0.4477373574741632
% V (V) @ t=0.14
0.006912821998488058
% es.normE (V/m) @ t=0.16
0.6516575767769068
% es.EX (V/m) @ t=0.16
0.45264711183697115
% es.EY (V/m) @ t=0.16
0.06777826179559618
% es.EZ (V/m) @ t=0.16
-0.4519854761244675
% es.tEX (V/m) @ t=0.16
0.4526471118369728
% es.tEY (V/m) @ t=0.16
0
% es.tEZ (V/m) @ t=0.16
-0.4519854761244586
% es.Ex (V/m) @ t=0.16
0.45264711183697115
% es.Ey (V/m) @ t=0.16
0.06777826179559618
% es.Ez (V/m) @ t=0.16
-0.4519854761244675
% es.tEx (V/m) @ t=0.16
0.4526471118369728
% es.tEy (V/m) @ t=0.16
0
% es.tEz (V/m) @ t=0.16
-0.4519854761244586
% V (V) @ t=0.16
0.006978410727634525
% es.normE (V/m) @ t=0.18
0.6577823719120413
% es.EX (V/m) @ t=0.18
0.4569014488795443
% es.EY (V/m) @ t=0.18
0.06841529420248302
% es.EZ (V/m) @ t=0.18
-0.456233594774768
% es.tEX (V/m) @ t=0.18
0.45690144887954487
% es.tEY (V/m) @ t=0.18
0
% es.tEZ (V/m) @ t=0.18
-0.45623359477476066
% es.Ex (V/m) @ t=0.18
0.4569014488795443
% es.Ey (V/m) @ t=0.18
0.06841529420248302
% es.Ez (V/m) @ t=0.18
-0.456233594774768
% es.tEx (V/m) @ t=0.18
0.45690144887954487
% es.tEy (V/m) @ t=0.18
0
% es.tEz (V/m) @ t=0.18
-0.45623359477476066
% V (V) @ t=0.18
0.0070439994567809885
% es.normE (V/m) @ t=0.2
0.6639071670471739
% es.EX (V/m) @ t=0.2
0.4611557859221148
% es.EY (V/m) @ t=0.2
0.06905232660936805
% es.EZ (V/m) @ t=0.2
-0.46048171342506694
% es.tEX (V/m) @ t=0.2
0.4611557859221169
% es.tEY (V/m) @ t=0.2
0
% es.tEZ (V/m) @ t=0.2
-0.4604817134250596
% es.Ex (V/m) @ t=0.2
0.4611557859221148
% es.Ey (V/m) @ t=0.2
0.06905232660936805
% es.Ez (V/m) @ t=0.2
-0.46048171342506694
% es.tEx (V/m) @ t=0.2
0.4611557859221169
% es.tEy (V/m) @ t=0.2
0
% es.tEz (V/m) @ t=0.2
-0.4604817134250596
% V (V) @ t=0.2
0.007109588185927454
% es.normE (V/m) @ t=0.22
0.6700319621823092
% es.EX (V/m) @ t=0.22
0.46541012296468776
% es.EY (V/m) @ t=0.22
0.06968935901625622
% es.EZ (V/m) @ t=0.22
-0.46472983207536767
% es.tEX (V/m) @ t=0.22
0.4654101229646901
% es.tEY (V/m) @ t=0.22
0
% es.tEZ (V/m) @ t=0.22
-0.46472983207535856
% es.Ex (V/m) @ t=0.22
0.46541012296468776
% es.Ey (V/m) @ t=0.22
0.06968935901625622
% es.Ez (V/m) @ t=0.22
-0.46472983207536767
% es.tEx (V/m) @ t=0.22
0.4654101229646901
% es.tEy (V/m) @ t=0.22
0
% es.tEz (V/m) @ t=0.22
-0.46472983207535856
% V (V) @ t=0.22
0.007175176915073918
% es.normE (V/m) @ t=0.24
0.6761567573174398
% es.EX (V/m) @ t=0.24
0.4696644600072587
% es.EY (V/m) @ t=0.24
0.0703263914231497
% es.EZ (V/m) @ t=0.24
-0.4689779507256626
% es.tEX (V/m) @ t=0.24
0.46966446000726103
% es.tEY (V/m) @ t=0.24
0
% es.tEZ (V/m) @ t=0.24
-0.4689779507256535
% es.Ex (V/m) @ t=0.24
0.4696644600072587
% es.Ey (V/m) @ t=0.24
0.0703263914231497
% es.Ez (V/m) @ t=0.24
-0.4689779507256626
% es.tEx (V/m) @ t=0.24
0.46966446000726103
% es.tEy (V/m) @ t=0.24
0
% es.tEz (V/m) @ t=0.24
-0.4689779507256535
% V (V) @ t=0.24
0.007240765644220384
% es.normE (V/m) @ t=0.26
0.682281552452569
% es.EX (V/m) @ t=0.26
0.4739187970498323
% es.EY (V/m) @ t=0.26
0.07096342383002455
% es.EZ (V/m) @ t=0.26
-0.473226069375958
% es.tEX (V/m) @ t=0.26
0.4739187970498353
% es.tEY (V/m) @ t=0.26
0
% es.tEZ (V/m) @ t=0.26
-0.47322606937595246
% es.Ex (V/m) @ t=0.26
0.4739187970498323
% es.Ey (V/m) @ t=0.26
0.07096342383002455
% es.Ez (V/m) @ t=0.26
-0.473226069375958
% es.tEx (V/m) @ t=0.26
0.4739187970498353
% es.tEy (V/m) @ t=0.26
0
% es.tEz (V/m) @ t=0.26
-0.47322606937595246
% V (V) @ t=0.26
0.007306354373366848
% es.normE (V/m) @ t=0.28
0.6887148084792165
% es.EX (V/m) @ t=0.28
0.47838741787354333
% es.EY (V/m) @ t=0.28
0.07163237198510353
% es.EZ (V/m) @ t=0.28
-0.4776881790919132
% es.tEX (V/m) @ t=0.28
0.47838741787354566
% es.tEY (V/m) @ t=0.28
0
% es.tEZ (V/m) @ t=0.28
-0.47768817909190586
% es.Ex (V/m) @ t=0.28
0.47838741787354333
% es.Ey (V/m) @ t=0.28
0.07163237198510353
% es.Ez (V/m) @ t=0.28
-0.4776881790919132
% es.tEx (V/m) @ t=0.28
0.47838741787354566
% es.tEy (V/m) @ t=0.28
0
% es.tEz (V/m) @ t=0.28
-0.47768817909190586
% V (V) @ t=0.28
0.007375256155371112
% es.normE (V/m) @ t=0.3
0.6955347867902703
% es.EX (V/m) @ t=0.3
0.48312468965289435
% es.EY (V/m) @ t=0.3
0.07234133341698343
% es.EZ (V/m) @ t=0.3
-0.4824185727814789
% es.tEX (V/m) @ t=0.3
0.48312468965289534
% es.tEY (V/m) @ t=0.3
0
% es.tEZ (V/m) @ t=0.3
-0.4824185727814734
% es.Ex (V/m) @ t=0.3
0.48312468965289435
% es.Ey (V/m) @ t=0.3
0.07234133341698343
% es.Ez (V/m) @ t=0.3
-0.4824185727814789
% es.tEx (V/m) @ t=0.3
0.48312468965289534
% es.tEy (V/m) @ t=0.3
0
% es.tEz (V/m) @ t=0.3
-0.4824185727814734
% V (V) @ t=0.3
0.007448311563989589
% es.normE (V/m) @ t=0.32
0.7023547651017821
% es.EX (V/m) @ t=0.32
0.4878619614322425
% es.EY (V/m) @ t=0.32
0.07305029484886785
% es.EZ (V/m) @ t=0.32
-0.4871489664710429
% es.tEX (V/m) @ t=0.32
0.4878619614322435
% es.tEY (V/m) @ t=0.32
0
% es.tEZ (V/m) @ t=0.32
-0.48714896647103734
% es.Ex (V/m) @ t=0.32
0.4878619614322425
% es.Ey (V/m) @ t=0.32
0.07305029484886785
% es.Ez (V/m) @ t=0.32
-0.4871489664710429
% es.tEx (V/m) @ t=0.32
0.4878619614322435
% es.tEy (V/m) @ t=0.32
0
% es.tEz (V/m) @ t=0.32
-0.48714896647103734
% V (V) @ t=0.32
0.007521366972608064
% es.normE (V/m) @ t=0.34
0.7091747434137482
% es.EX (V/m) @ t=0.34
0.4925992332115948
% es.EY (V/m) @ t=0.34
0.07375925628074775
% es.EZ (V/m) @ t=0.34
-0.49187936016061395
% es.tEX (V/m) @ t=0.34
0.49259923321159715
% es.tEY (V/m) @ t=0.34
0
% es.tEZ (V/m) @ t=0.34
-0.4918793601606084
% es.Ex (V/m) @ t=0.34
0.4925992332115948
% es.Ey (V/m) @ t=0.34
0.07375925628074775
% es.Ez (V/m) @ t=0.34
-0.49187936016061395
% es.tEx (V/m) @ t=0.34
0.49259923321159715
% es.tEy (V/m) @ t=0.34
0
% es.tEz (V/m) @ t=0.34
-0.4918793601606084
% V (V) @ t=0.34
0.007594422381226542
% es.normE (V/m) @ t=0.36
0.7159947217261455
% es.EX (V/m) @ t=0.36
0.4973365049909487
% es.EY (V/m) @ t=0.36
0.0744682177126289
% es.EZ (V/m) @ t=0.36
-0.4966097538501748
% es.tEX (V/m) @ t=0.36
0.4973365049909506
% es.tEY (V/m) @ t=0.36
0
% es.tEZ (V/m) @ t=0.36
-0.49660975385016926
% es.Ex (V/m) @ t=0.36
0.4973365049909487
% es.Ey (V/m) @ t=0.36
0.0744682177126289
% es.Ez (V/m) @ t=0.36
-0.4966097538501748
% es.tEx (V/m) @ t=0.36
0.4973365049909506
% es.tEy (V/m) @ t=0.36
0
% es.tEz (V/m) @ t=0.36
-0.49660975385016926
% V (V) @ t=0.36
0.0076674777898450164
% es.normE (V/m) @ t=0.38
0.722814700038964
% es.EX (V/m) @ t=0.38
0.502073776770296
% es.EY (V/m) @ t=0.38
0.07517717914452579
% es.EZ (V/m) @ t=0.38
-0.5013401475397388
% es.tEX (V/m) @ t=0.38
0.5020737767702987
% es.tEY (V/m) @ t=0.38
0
% es.tEZ (V/m) @ t=0.38
-0.5013401475397332
% es.Ex (V/m) @ t=0.38
0.502073776770296
% es.Ey (V/m) @ t=0.38
0.07517717914452579
% es.Ez (V/m) @ t=0.38
-0.5013401475397388
% es.tEx (V/m) @ t=0.38
0.5020737767702987
% es.tEy (V/m) @ t=0.38
0
% es.tEz (V/m) @ t=0.38
-0.5013401475397332
% V (V) @ t=0.38
0.007740533198463492
% es.normE (V/m) @ t=0.4
0.7296346783522056
% es.EX (V/m) @ t=0.4
0.506811048549651
% es.EY (V/m) @ t=0.4
0.07588614057639492
% es.EZ (V/m) @ t=0.4
-0.5060705412293138
% es.tEX (V/m) @ t=0.4
0.506811048549652
% es.tEY (V/m) @ t=0.4
0
% es.tEZ (V/m) @ t=0.4
-0.5060705412293083
% es.Ex (V/m) @ t=0.4
0.506811048549651
% es.Ey (V/m) @ t=0.4
0.07588614057639492
% es.Ez (V/m) @ t=0.4
-0.5060705412293138
% es.tEx (V/m) @ t=0.4
0.506811048549652
% es.tEy (V/m) @ t=0.4
0
% es.tEz (V/m) @ t=0.4
-0.5060705412293083
% V (V) @ t=0.4
0.00781358860708197
% es.normE (V/m) @ t=0.42
0.7364546566658312
% es.EX (V/m) @ t=0.42
0.511548320329
% es.EY (V/m) @ t=0.42
0.07659510200828604
% es.EZ (V/m) @ t=0.42
-0.5108009349188725
% es.tEX (V/m) @ t=0.42
0.511548320329001
% es.tEY (V/m) @ t=0.42
0
% es.tEZ (V/m) @ t=0.42
-0.5108009349188616
% es.Ex (V/m) @ t=0.42
0.511548320329
% es.Ey (V/m) @ t=0.42
0.07659510200828604
% es.Ez (V/m) @ t=0.42
-0.5108009349188725
% es.tEx (V/m) @ t=0.42
0.511548320329001
% es.tEy (V/m) @ t=0.42
0
% es.tEz (V/m) @ t=0.42
-0.5108009349188616
% V (V) @ t=0.42
0.007886644015700446
% es.normE (V/m) @ t=0.44
0.743274634979858
% es.EX (V/m) @ t=0.44
0.5162855921083517
% es.EY (V/m) @ t=0.44
0.07730406344016336
% es.EZ (V/m) @ t=0.44
-0.5155313286084466
% es.tEX (V/m) @ t=0.44
0.5162855921083522
% es.tEY (V/m) @ t=0.44
0
% es.tEZ (V/m) @ t=0.44
-0.5155313286084358
% es.Ex (V/m) @ t=0.44
0.5162855921083517
% es.Ey (V/m) @ t=0.44
0.07730406344016336
% es.Ez (V/m) @ t=0.44
-0.5155313286084466
% es.tEx (V/m) @ t=0.44
0.5162855921083522
% es.tEy (V/m) @ t=0.44
0
% es.tEz (V/m) @ t=0.44
-0.5155313286084358
% V (V) @ t=0.44
0.007959699424318923
% es.normE (V/m) @ t=0.46
0.7500946132942541
% es.EX (V/m) @ t=0.46
0.5210228638876976
% es.EY (V/m) @ t=0.46
0.0780130248720429
% es.EZ (V/m) @ t=0.46
-0.5202617222980106
% es.tEX (V/m) @ t=0.46
0.5210228638876986
% es.tEY (V/m) @ t=0.46
0
% es.tEZ (V/m) @ t=0.46
-0.5202617222979997
% es.Ex (V/m) @ t=0.46
0.5210228638876976
% es.Ey (V/m) @ t=0.46
0.0780130248720429
% es.Ez (V/m) @ t=0.46
-0.5202617222980106
% es.tEx (V/m) @ t=0.46
0.5210228638876986
% es.tEy (V/m) @ t=0.46
0
% es.tEz (V/m) @ t=0.46
-0.5202617222979997
% V (V) @ t=0.46
0.0080327548329374
% es.normE (V/m) @ t=0.48
0.7569145916090225
% es.EX (V/m) @ t=0.48
0.5257601356670533
% es.EY (V/m) @ t=0.48
0.07872198630392982
% es.EZ (V/m) @ t=0.48
-0.5249921159875786
% es.tEX (V/m) @ t=0.48
0.5257601356670556
% es.tEY (V/m) @ t=0.48
0
% es.tEZ (V/m) @ t=0.48
-0.5249921159875677
% es.Ex (V/m) @ t=0.48
0.5257601356670533
% es.Ey (V/m) @ t=0.48
0.07872198630392982
% es.Ez (V/m) @ t=0.48
-0.5249921159875786
% es.tEx (V/m) @ t=0.48
0.5257601356670556
% es.tEy (V/m) @ t=0.48
0
% es.tEz (V/m) @ t=0.48
-0.5249921159875677
% V (V) @ t=0.48
0.008105810241555872
% es.normE (V/m) @ t=0.5
0.7637345699241512
% es.EX (V/m) @ t=0.5
0.530497407446405
% es.EY (V/m) @ t=0.5
0.07943094773581025
% es.EZ (V/m) @ t=0.5
-0.5297225096771496
% es.tEX (V/m) @ t=0.5
0.5304974074464073
% es.tEY (V/m) @ t=0.5
0
% es.tEZ (V/m) @ t=0.5
-0.5297225096771387
% es.Ex (V/m) @ t=0.5
0.530497407446405
% es.Ey (V/m) @ t=0.5
0.07943094773581025
% es.Ez (V/m) @ t=0.5
-0.5297225096771496
% es.tEx (V/m) @ t=0.5
0.5304974074464073
% es.tEy (V/m) @ t=0.5
0
% es.tEz (V/m) @ t=0.5
-0.5297225096771387
% V (V) @ t=0.5
0.00817886565017435
% es.normE (V/m) @ t=0.52
0.7705545482396305
% es.EX (V/m) @ t=0.52
0.5352346792257546
% es.EY (V/m) @ t=0.52
0.08013990916770358
% es.EZ (V/m) @ t=0.52
-0.5344529033667276
% es.tEX (V/m) @ t=0.52
0.5352346792257572
% es.tEY (V/m) @ t=0.52
0
% es.tEZ (V/m) @ t=0.52
-0.53445290336672
% es.Ex (V/m) @ t=0.52
0.5352346792257546
% es.Ey (V/m) @ t=0.52
0.08013990916770358
% es.Ez (V/m) @ t=0.52
-0.5344529033667276
% es.tEx (V/m) @ t=0.52
0.5352346792257572
% es.tEy (V/m) @ t=0.52
0
% es.tEz (V/m) @ t=0.52
-0.53445290336672
% V (V) @ t=0.52
0.008251921058792827
% es.normE (V/m) @ t=0.54
0.7773745265554375
% es.EX (V/m) @ t=0.54
0.5399719510051085
% es.EY (V/m) @ t=0.54
0.08084887059957852
% es.EZ (V/m) @ t=0.54
-0.5391832970562815
% es.tEX (V/m) @ t=0.54
0.5399719510051109
% es.tEY (V/m) @ t=0.54
0
% es.tEZ (V/m) @ t=0.54
-0.5391832970562707
% es.Ex (V/m) @ t=0.54
0.5399719510051085
% es.Ey (V/m) @ t=0.54
0.08084887059957852
% es.Ez (V/m) @ t=0.54
-0.5391832970562815
% es.tEx (V/m) @ t=0.54
0.5399719510051109
% es.tEy (V/m) @ t=0.54
0
% es.tEz (V/m) @ t=0.54
-0.5391832970562707
% V (V) @ t=0.54
0.008324976467411302
% es.normE (V/m) @ t=0.56
0.7849009376861354
% es.EX (V/m) @ t=0.56
0.5451999270876916
% es.EY (V/m) @ t=0.56
0.08163124067363256
% es.EZ (V/m) @ t=0.56
-0.5444036855956191
% es.tEX (V/m) @ t=0.56
0.5451999270876939
% es.tEY (V/m) @ t=0.56
0
% es.tEZ (V/m) @ t=0.56
-0.5444036855956083
% es.Ex (V/m) @ t=0.56
0.5451999270876916
% es.Ey (V/m) @ t=0.56
0.08163124067363256
% es.Ez (V/m) @ t=0.56
-0.5444036855956191
% es.tEx (V/m) @ t=0.56
0.5451999270876939
% es.tEy (V/m) @ t=0.56
0
% es.tEz (V/m) @ t=0.56
-0.5444036855956083
% V (V) @ t=0.56
0.008405600760155956
% es.normE (V/m) @ t=0.58
0.7925081637278165
% es.EX (V/m) @ t=0.58
0.5504840390455471
% es.EY (V/m) @ t=0.58
0.082422008592097
% es.EZ (V/m) @ t=0.58
-0.5496801288497422
% es.tEX (V/m) @ t=0.58
0.5504840390455512
% es.tEY (V/m) @ t=0.58
0
% es.tEZ (V/m) @ t=0.58
-0.5496801288497313
% es.Ex (V/m) @ t=0.58
0.5504840390455471
% es.Ey (V/m) @ t=0.58
0.082422008592097
% es.Ez (V/m) @ t=0.58
-0.5496801288497422
% es.tEx (V/m) @ t=0.58
0.5504840390455512
% es.tEy (V/m) @ t=0.58
0
% es.tEz (V/m) @ t=0.58
-0.5496801288497313
% V (V) @ t=0.58
0.008487090922493279
% es.normE (V/m) @ t=0.6
0.8001153897699529
% es.EX (V/m) @ t=0.6
0.5557681510034002
% es.EY (V/m) @ t=0.6
0.08321277651055056
% es.EZ (V/m) @ t=0.6
-0.5549565721038687
% es.tEX (V/m) @ t=0.6
0.555768151003404
% es.tEY (V/m) @ t=0.6
0
% es.tEZ (V/m) @ t=0.6
-0.5549565721038578
% es.Ex (V/m) @ t=0.6
0.5557681510034002
% es.Ey (V/m) @ t=0.6
0.08321277651055056
% es.Ez (V/m) @ t=0.6
-0.5549565721038687
% es.tEx (V/m) @ t=0.6
0.555768151003404
% es.tEy (V/m) @ t=0.6
0
% es.tEz (V/m) @ t=0.6
-0.5549565721038578
% V (V) @ t=0.6
0.008568581084830603
% es.normE (V/m) @ t=0.62
0.8077226158125244
% es.EX (V/m) @ t=0.62
0.5610522629612481
% es.EY (V/m) @ t=0.62
0.08400354442899505
% es.EZ (V/m) @ t=0.62
-0.5602330153579917
% es.tEX (V/m) @ t=0.62
0.5610522629612522
% es.tEY (V/m) @ t=0.62
0
% es.tEZ (V/m) @ t=0.62
-0.5602330153579809
% es.Ex (V/m) @ t=0.62
0.5610522629612481
% es.Ey (V/m) @ t=0.62
0.08400354442899505
% es.Ez (V/m) @ t=0.62
-0.5602330153579917
% es.tEx (V/m) @ t=0.62
0.5610522629612522
% es.tEy (V/m) @ t=0.62
0
% es.tEz (V/m) @ t=0.62
-0.5602330153579809
% V (V) @ t=0.62
0.008650071247167929
% es.normE (V/m) @ t=0.64
0.8153298418555266
% es.EX (V/m) @ t=0.64
0.5663363749190958
% es.EY (V/m) @ t=0.64
0.0847943123474588
% es.EZ (V/m) @ t=0.64
-0.5655094586121108
% es.tEX (V/m) @ t=0.64
0.5663363749190982
% es.tEY (V/m) @ t=0.64
0
% es.tEZ (V/m) @ t=0.64
-0.5655094586120999
% es.Ex (V/m) @ t=0.64
0.5663363749190958
% es.Ey (V/m) @ t=0.64
0.0847943123474588
% es.Ez (V/m) @ t=0.64
-0.5655094586121108
% es.tEx (V/m) @ t=0.64
0.5663363749190982
% es.tEy (V/m) @ t=0.64
0
% es.tEz (V/m) @ t=0.64
-0.5655094586120999
% V (V) @ t=0.64
0.008731561409505255
% es.normE (V/m) @ t=0.66
0.8229370678989616
% es.EX (V/m) @ t=0.66
0.5716204868769508
% es.EY (V/m) @ t=0.66
0.08558508026590192
% es.EZ (V/m) @ t=0.66
-0.570785901866248
% es.tEX (V/m) @ t=0.66
0.5716204868769548
% es.tEY (V/m) @ t=0.66
0
% es.tEZ (V/m) @ t=0.66
-0.57078590186623
% es.Ex (V/m) @ t=0.66
0.5716204868769508
% es.Ey (V/m) @ t=0.66
0.08558508026590192
% es.Ez (V/m) @ t=0.66
-0.570785901866248
% es.tEx (V/m) @ t=0.66
0.5716204868769548
% es.tEy (V/m) @ t=0.66
0
% es.tEz (V/m) @ t=0.66
-0.57078590186623
% V (V) @ t=0.66
0.008813051571842579
% es.normE (V/m) @ t=0.68
0.8305442939427834
% es.EX (V/m) @ t=0.68
0.5769045988348002
% es.EY (V/m) @ t=0.68
0.08637584818436217
% es.EZ (V/m) @ t=0.68
-0.5760623451203675
% es.tEX (V/m) @ t=0.68
0.5769045988348005
% es.tEY (V/m) @ t=0.68
0
% es.tEZ (V/m) @ t=0.68
-0.576062345120353
% es.Ex (V/m) @ t=0.68
0.5769045988348002
% es.Ey (V/m) @ t=0.68
0.08637584818436217
% es.Ez (V/m) @ t=0.68
-0.5760623451203675
% es.tEx (V/m) @ t=0.68
0.5769045988348005
% es.tEy (V/m) @ t=0.68
0
% es.tEz (V/m) @ t=0.68
-0.576062345120353
% V (V) @ t=0.68
0.008894541734179903
% es.normE (V/m) @ t=0.7
0.8381515199870193
% es.EX (V/m) @ t=0.7
0.582188710792649
% es.EY (V/m) @ t=0.7
0.08716661610281773
% es.EZ (V/m) @ t=0.7
-0.5813387883745083
% es.tEX (V/m) @ t=0.7
0.5821887107926564
% es.tEY (V/m) @ t=0.7
0
% es.tEZ (V/m) @ t=0.7
-0.5813387883744974
% es.Ex (V/m) @ t=0.7
0.582188710792649
% es.Ey (V/m) @ t=0.7
0.08716661610281773
% es.Ez (V/m) @ t=0.7
-0.5813387883745083
% es.tEx (V/m) @ t=0.7
0.5821887107926564
% es.tEy (V/m) @ t=0.7
0
% es.tEz (V/m) @ t=0.7
-0.5813387883744974
% V (V) @ t=0.7
0.008976031896517231
% es.normE (V/m) @ t=0.72
0.8457587460316236
% es.EX (V/m) @ t=0.72
0.5874728227505046
% es.EY (V/m) @ t=0.72
0.08795738402125908
% es.EZ (V/m) @ t=0.72
-0.5866152316286206
% es.tEX (V/m) @ t=0.72
0.5874728227505068
% es.tEY (V/m) @ t=0.72
0
% es.tEZ (V/m) @ t=0.72
-0.5866152316286062
% es.Ex (V/m) @ t=0.72
0.5874728227505046
% es.Ey (V/m) @ t=0.72
0.08795738402125908
% es.Ez (V/m) @ t=0.72
-0.5866152316286206
% es.tEx (V/m) @ t=0.72
0.5874728227505068
% es.tEy (V/m) @ t=0.72
0
% es.tEz (V/m) @ t=0.72
-0.5866152316286062
% V (V) @ t=0.72
0.009057522058854555
% es.normE (V/m) @ t=0.74
0.8533659720766038
% es.EX (V/m) @ t=0.74
0.5927569347083503
% es.EY (V/m) @ t=0.74
0.08874815193971844
% es.EZ (V/m) @ t=0.74
-0.5918916748827436
% es.tEX (V/m) @ t=0.74
0.5927569347083526
% es.tEY (V/m) @ t=0.74
0
% es.tEZ (V/m) @ t=0.74
-0.5918916748827292
% es.Ex (V/m) @ t=0.74
0.5927569347083503
% es.Ey (V/m) @ t=0.74
0.08874815193971844
% es.Ez (V/m) @ t=0.74
-0.5918916748827436
% es.tEx (V/m) @ t=0.74
0.5927569347083526
% es.tEy (V/m) @ t=0.74
0
% es.tEz (V/m) @ t=0.74
-0.5918916748827292
% V (V) @ t=0.74
0.009139012221191881
% es.normE (V/m) @ t=0.76
0.8609731981219595
% es.EX (V/m) @ t=0.76
0.598041046666205
% es.EY (V/m) @ t=0.76
0.08953891985817311
% es.EZ (V/m) @ t=0.76
-0.5971681181368738
% es.tEX (V/m) @ t=0.76
0.5980410466662054
% es.tEY (V/m) @ t=0.76
0
% es.tEZ (V/m) @ t=0.76
-0.5971681181368593
% es.Ex (V/m) @ t=0.76
0.598041046666205
% es.Ey (V/m) @ t=0.76
0.08953891985817311
% es.Ez (V/m) @ t=0.76
-0.5971681181368738
% es.tEx (V/m) @ t=0.76
0.5980410466662054
% es.tEy (V/m) @ t=0.76
0
% es.tEz (V/m) @ t=0.76
-0.5971681181368593
% V (V) @ t=0.76
0.009220502383529205
% es.normE (V/m) @ t=0.78
0.8685804241676534
% es.EX (V/m) @ t=0.78
0.6033251586240549
% es.EY (V/m) @ t=0.78
0.09032968777661732
% es.EZ (V/m) @ t=0.78
-0.6024445613909892
% es.tEX (V/m) @ t=0.78
0.6033251586240587
% es.tEY (V/m) @ t=0.78
0
% es.tEZ (V/m) @ t=0.78
-0.6024445613909819
% es.Ex (V/m) @ t=0.78
0.6033251586240549
% es.Ey (V/m) @ t=0.78
0.09032968777661732
% es.Ez (V/m) @ t=0.78
-0.6024445613909892
% es.tEx (V/m) @ t=0.78
0.6033251586240587
% es.tEy (V/m) @ t=0.78
0
% es.tEz (V/m) @ t=0.78
-0.6024445613909819
% V (V) @ t=0.78
0.009301992545866531
% es.normE (V/m) @ t=0.8
0.8761876502137071
% es.EX (V/m) @ t=0.8
0.608609270581908
% es.EY (V/m) @ t=0.8
0.09112045569508823
% es.EZ (V/m) @ t=0.8
-0.6077210046451194
% es.tEX (V/m) @ t=0.8
0.608609270581908
% es.tEY (V/m) @ t=0.8
0
% es.tEZ (V/m) @ t=0.8
-0.607721004645112
% es.Ex (V/m) @ t=0.8
0.608609270581908
% es.Ey (V/m) @ t=0.8
0.09112045569508823
% es.Ez (V/m) @ t=0.8
-0.6077210046451194
% es.tEx (V/m) @ t=0.8
0.608609270581908
% es.tEy (V/m) @ t=0.8
0
% es.tEz (V/m) @ t=0.8
-0.607721004645112
% V (V) @ t=0.8
0.009383482708203855
% es.normE (V/m) @ t=0.82
0.8841081528202297
% es.EX (V/m) @ t=0.82
0.6141109469049764
% es.EY (V/m) @ t=0.82
0.09194408553245584
% es.EZ (V/m) @ t=0.82
-0.6132146602770832
% es.tEX (V/m) @ t=0.82
0.6141109469049764
% es.tEY (V/m) @ t=0.82
0
% es.tEZ (V/m) @ t=0.82
-0.6132146602770723
% es.Ex (V/m) @ t=0.82
0.6141109469049764
% es.Ey (V/m) @ t=0.82
0.09194408553245584
% es.Ez (V/m) @ t=0.82
-0.6132146602770832
% es.tEx (V/m) @ t=0.82
0.6141109469049764
% es.tEy (V/m) @ t=0.82
0
% es.tEz (V/m) @ t=0.82
-0.6132146602770723
% V (V) @ t=0.82
0.009468311280935886
% es.normE (V/m) @ t=0.84
0.8926079597687473
% es.EX (V/m) @ t=0.84
0.620014938617611
% es.EY (V/m) @ t=0.84
0.09282848293028778
% es.EZ (V/m) @ t=0.84
-0.6191099804110489
% es.tEX (V/m) @ t=0.84
0.6200149386176146
% es.tEY (V/m) @ t=0.84
0
% es.tEZ (V/m) @ t=0.84
-0.6191099804110416
% es.Ex (V/m) @ t=0.84
0.620014938617611
% es.Ey (V/m) @ t=0.84
0.09282848293028778
% es.Ez (V/m) @ t=0.84
-0.6191099804110489
% es.tEx (V/m) @ t=0.84
0.6200149386176146
% es.tEy (V/m) @ t=0.84
0
% es.tEz (V/m) @ t=0.84
-0.6191099804110416
% V (V) @ t=0.84
0.009559313171054327
% es.normE (V/m) @ t=0.86
0.9011077667177698
% es.EX (V/m) @ t=0.86
0.6259189303302379
% es.EY (V/m) @ t=0.86
0.09371288032810865
% es.EZ (V/m) @ t=0.86
-0.6250053005450149
% es.tEX (V/m) @ t=0.86
0.6259189303302417
% es.tEY (V/m) @ t=0.86
0
% es.tEZ (V/m) @ t=0.86
-0.6250053005450109
% es.Ex (V/m) @ t=0.86
0.6259189303302379
% es.Ey (V/m) @ t=0.86
0.09371288032810865
% es.Ez (V/m) @ t=0.86
-0.6250053005450149
% es.tEx (V/m) @ t=0.86
0.6259189303302417
% es.tEy (V/m) @ t=0.86
0
% es.tEz (V/m) @ t=0.86
-0.6250053005450109
% V (V) @ t=0.86
0.00965031506117277
% es.normE (V/m) @ t=0.88
0.9096075736672855
% es.EX (V/m) @ t=0.88
0.6318229220428684
% es.EY (V/m) @ t=0.88
0.09459727772591903
% es.EZ (V/m) @ t=0.88
-0.6309006206789773
% es.tEX (V/m) @ t=0.88
0.6318229220428755
% es.tEY (V/m) @ t=0.88
0
% es.tEZ (V/m) @ t=0.88
-0.6309006206789736
% es.Ex (V/m) @ t=0.88
0.6318229220428684
% es.Ey (V/m) @ t=0.88
0.09459727772591903
% es.Ez (V/m) @ t=0.88
-0.6309006206789773
% es.tEx (V/m) @ t=0.88
0.6318229220428755
% es.tEy (V/m) @ t=0.88
0
% es.tEz (V/m) @ t=0.88
-0.6309006206789736
% V (V) @ t=0.88
0.009741316951291212
% es.normE (V/m) @ t=0.9
0.9181073806172915
% es.EX (V/m) @ t=0.9
0.6377269137555033
% es.EY (V/m) @ t=0.9
0.09548167512376055
% es.EZ (V/m) @ t=0.9
-0.6367959408129393
% es.tEX (V/m) @ t=0.9
0.6377269137555066
% es.tEY (V/m) @ t=0.9
0
% es.tEZ (V/m) @ t=0.9
-0.6367959408129353
% es.Ex (V/m) @ t=0.9
0.6377269137555033
% es.Ey (V/m) @ t=0.9
0.09548167512376055
% es.Ez (V/m) @ t=0.9
-0.6367959408129393
% es.tEx (V/m) @ t=0.9
0.6377269137555066
% es.tEy (V/m) @ t=0.9
0
% es.tEz (V/m) @ t=0.9
-0.6367959408129353
% V (V) @ t=0.9
0.009832318841409653
% es.normE (V/m) @ t=0.92
0.9266071875677587
% es.EX (V/m) @ t=0.92
0.643630905468134
% es.EY (V/m) @ t=0.92
0.09636607252158069
% es.EZ (V/m) @ t=0.92
-0.6426912609469013
% es.tEX (V/m) @ t=0.92
0.6436309054681373
% es.tEY (V/m) @ t=0.92
0
% es.tEZ (V/m) @ t=0.92
-0.6426912609468975
% es.Ex (V/m) @ t=0.92
0.643630905468134
% es.Ey (V/m) @ t=0.92
0.09636607252158069
% es.Ez (V/m) @ t=0.92
-0.6426912609469013
% es.tEx (V/m) @ t=0.92
0.6436309054681373
% es.tEy (V/m) @ t=0.92
0
% es.tEz (V/m) @ t=0.92
-0.6426912609468975
% V (V) @ t=0.92
0.009923320731528096
% es.normE (V/m) @ t=0.94
0.9351069945186941
% es.EX (V/m) @ t=0.94
0.6495348971807684
% es.EY (V/m) @ t=0.94
0.09725046991939484
% es.EZ (V/m) @ t=0.94
-0.6485865810808775
% es.tEX (V/m) @ t=0.94
0.649534897180768
% es.tEY (V/m) @ t=0.94
0
% es.tEZ (V/m) @ t=0.94
-0.6485865810808735
% es.Ex (V/m) @ t=0.94
0.6495348971807684
% es.Ey (V/m) @ t=0.94
0.09725046991939484
% es.Ez (V/m) @ t=0.94
-0.6485865810808775
% es.tEx (V/m) @ t=0.94
0.649534897180768
% es.tEy (V/m) @ t=0.94
0
% es.tEz (V/m) @ t=0.94
-0.6485865810808735
% V (V) @ t=0.94
0.010014322621646537
% es.normE (V/m) @ t=0.96
0.9436068014700622
% es.EX (V/m) @ t=0.96
0.6554388888933957
% es.EY (V/m) @ t=0.96
0.09813486731721927
% es.EZ (V/m) @ t=0.96
-0.65448190121484
% es.tEX (V/m) @ t=0.96
0.6554388888933986
% es.tEY (V/m) @ t=0.96
0
% es.tEZ (V/m) @ t=0.96
-0.6544819012148291
% es.Ex (V/m) @ t=0.96
0.6554388888933957
% es.Ey (V/m) @ t=0.96
0.09813486731721927
% es.Ez (V/m) @ t=0.96
-0.65448190121484
% es.tEx (V/m) @ t=0.96
0.6554388888933986
% es.tEy (V/m) @ t=0.96
0
% es.tEz (V/m) @ t=0.96
-0.6544819012148291
% V (V) @ t=0.96
0.01010532451176498
% es.normE (V/m) @ t=0.98
0.9521066084218681
% es.EX (V/m) @ t=0.98
0.6613428806060333
% es.EY (V/m) @ t=0.98
0.09901926471503297
% es.EZ (V/m) @ t=0.98
-0.6603772213488026
% es.tEX (V/m) @ t=0.98
0.6613428806060369
% es.tEY (V/m) @ t=0.98
0
% es.tEZ (V/m) @ t=0.98
-0.6603772213487917
% es.Ex (V/m) @ t=0.98
0.6613428806060333
% es.Ey (V/m) @ t=0.98
0.09901926471503297
% es.Ez (V/m) @ t=0.98
-0.6603772213488026
% es.tEx (V/m) @ t=0.98
0.6613428806060369
% es.tEy (V/m) @ t=0.98
0
% es.tEz (V/m) @ t=0.98
-0.6603772213487917
% V (V) @ t=0.98
0.010196326401883423
% es.normE (V/m) @ t=1
0.9606064153740912
% es.EX (V/m) @ t=1
0.6672468723186646
% es.EY (V/m) @ t=1
0.09990366211286761
% es.EZ (V/m) @ t=1
-0.6662725414827682
% es.tEX (V/m) @ t=1
0.6672468723186644
% es.tEY (V/m) @ t=1
0
% es.tEZ (V/m) @ t=1
-0.6662725414827606
% es.Ex (V/m) @ t=1
0.6672468723186646
% es.Ey (V/m) @ t=1
0.09990366211286761
% es.Ez (V/m) @ t=1
-0.6662725414827682
% es.tEx (V/m) @ t=1
0.6672468723186644
% es.tEy (V/m) @ t=1
0
% es.tEz (V/m) @ t=1
-0.6662725414827606
% V (V) @ t=1
0.010287328292001864
% es.normE (V/m) @ t=1.02
0.9691062223267264
% es.EX (V/m) @ t=1.02
0.6731508640312918
% es.EY (V/m) @ t=1.02
0.10078805951069664
% es.EZ (V/m) @ t=1.02
-0.6721678616167408
% es.tEX (V/m) @ t=1.02
0.6731508640312986
% es.tEY (V/m) @ t=1.02
0
% es.tEZ (V/m) @ t=1.02
-0.6721678616167299
% es.Ex (V/m) @ t=1.02
0.6731508640312918
% es.Ey (V/m) @ t=1.02
0.10078805951069664
% es.Ez (V/m) @ t=1.02
-0.6721678616167408
% es.tEx (V/m) @ t=1.02
0.6731508640312986
% es.tEy (V/m) @ t=1.02
0
% es.tEz (V/m) @ t=1.02
-0.6721678616167299
% V (V) @ t=1.02
0.010378330182120307
% es.normE (V/m) @ t=1.04
0.9776060292797615
% es.EX (V/m) @ t=1.04
0.6790548557439264