% Model:              1 neuron.mph
% Version:            COMSOL 6.1.0.252
% Date:               Mar 18 2023, 11:42
% Dimension:          0
% Nodes:              14017
% Expressions:        14017
% Description:        Electric field norm, Electric field, X component, Electric field, Y component, Electric field, Z component, Tangential electric field, X component, Tangential electric field, Y component, Tangential electric field, Z component, Electric field, x component, Electric field, y component, Electric field, z component, Tangential electric field, x component, Tangential electric field, y component, Tangential electric field, z component, Electric potential
% Length unit:        mm
% x
1
% y
12.2
% z
1
% es.normE (V/m) @ t=0
0.8006269498815728
% es.EX (V/m) @ t=0
0.5436364892100247
% es.EY (V/m) @ t=0
0.15439953603439882
% es.EZ (V/m) @ t=0
0.5523582210339892
% es.tEX (V/m) @ t=0
0.5436364892100158
% es.tEY (V/m) @ t=0
0
% es.tEZ (V/m) @ t=0
0.5523582210339804
% es.Ex (V/m) @ t=0
0.5436364892100247
% es.Ey (V/m) @ t=0
0.15439953603439882
% es.Ez (V/m) @ t=0
0.5523582210339892
% es.tEx (V/m) @ t=0
0.5436364892100158
% es.tEy (V/m) @ t=0
0
% es.tEz (V/m) @ t=0
0.5523582210339804
% V (V) @ t=0
0.007507709078045497
% es.normE (V/m) @ t=0.02
0.6915102071668627
% es.EX (V/m) @ t=0.02
0.4695447468133711
% es.EY (V/m) @ t=0.02
0.13335656313618394
% es.EZ (V/m) @ t=0.02
0.47707780625923757
% es.tEX (V/m) @ t=0.02
0.46954474681336933
% es.tEY (V/m) @ t=0.02
0
% es.tEZ (V/m) @ t=0.02
0.4770778062592278
% es.Ex (V/m) @ t=0.02
0.4695447468133711
% es.Ey (V/m) @ t=0.02
0.13335656313618394
% es.Ez (V/m) @ t=0.02
0.47707780625923757
% es.tEx (V/m) @ t=0.02
0.46954474681336933
% es.tEy (V/m) @ t=0.02
0
% es.tEz (V/m) @ t=0.02
0.4770778062592278
% V (V) @ t=0.02
0.006484489836944218
% es.normE (V/m) @ t=0.04
0.6978708225209365
% es.EX (V/m) @ t=0.04
0.4738636799715472
% es.EY (V/m) @ t=0.04
0.1345832091521011
% es.EZ (V/m) @ t=0.04
0.4814660436806948
% es.tEX (V/m) @ t=0.04
0.47386367997154366
% es.tEY (V/m) @ t=0.04
0
% es.tEZ (V/m) @ t=0.04
0.4814660436806868
% es.Ex (V/m) @ t=0.04
0.4738636799715472
% es.Ey (V/m) @ t=0.04
0.1345832091521011
% es.Ez (V/m) @ t=0.04
0.4814660436806948
% es.tEx (V/m) @ t=0.04
0.47386367997154366
% es.tEy (V/m) @ t=0.04
0
% es.tEz (V/m) @ t=0.04
0.4814660436806868
% V (V) @ t=0.04
0.006544134626199273
% es.normE (V/m) @ t=0.06
0.7042895458812011
% es.EX (V/m) @ t=0.06
0.47822207839890396
% es.EY (V/m) @ t=0.06
0.135821049385501
% es.EZ (V/m) @ t=0.06
0.4858943674491023
% es.tEX (V/m) @ t=0.06
0.4782220783988933
% es.tEY (V/m) @ t=0.06
0
% es.tEZ (V/m) @ t=0.06
0.4858943674490952
% es.Ex (V/m) @ t=0.06
0.47822207839890396
% es.Ey (V/m) @ t=0.06
0.135821049385501
% es.Ez (V/m) @ t=0.06
0.4858943674491023
% es.tEx (V/m) @ t=0.06
0.4782220783988933
% es.tEy (V/m) @ t=0.06
0
% es.tEz (V/m) @ t=0.06
0.4858943674490952
% V (V) @ t=0.06
0.006604324825698921
% es.normE (V/m) @ t=0.08
0.7108038145341549
% es.EX (V/m) @ t=0.08
0.482645295366817
% es.EY (V/m) @ t=0.08
0.13707738521515012
% es.EZ (V/m) @ t=0.08
0.490388628517751
% es.tEX (V/m) @ t=0.08
0.48264529536682943
% es.tEY (V/m) @ t=0.08
0
% es.tEZ (V/m) @ t=0.08
0.4903886285177421
% es.Ex (V/m) @ t=0.08
0.482645295366817
% es.Ey (V/m) @ t=0.08
0.13707738521515012
% es.Ez (V/m) @ t=0.08
0.490388628517751
% es.tEx (V/m) @ t=0.08
0.48264529536682943
% es.tEy (V/m) @ t=0.08
0
% es.tEz (V/m) @ t=0.08
0.4903886285177421
% V (V) @ t=0.08
0.0066654079518286505
% es.normE (V/m) @ t=0.1
0.7173874701734941
% es.EX (V/m) @ t=0.1
0.48711558491217666
% es.EY (V/m) @ t=0.1
0.13834715293293964
% es.EZ (V/m) @ t=0.1
0.494930774630455
% es.tEX (V/m) @ t=0.1
0.487115584912182
% es.tEY (V/m) @ t=0.1
0
% es.tEZ (V/m) @ t=0.1
0.49493077463045054
% es.Ex (V/m) @ t=0.1
0.48711558491217666
% es.Ey (V/m) @ t=0.1
0.13834715293293964
% es.Ez (V/m) @ t=0.1
0.494930774630455
% es.tEx (V/m) @ t=0.1
0.487115584912182
% es.tEy (V/m) @ t=0.1
0
% es.tEz (V/m) @ t=0.1
0.49493077463045054
% V (V) @ t=0.1
0.006727139539919489
% es.normE (V/m) @ t=0.12
0.7239711258128742
% es.EX (V/m) @ t=0.12
0.491585874457515
% es.EY (V/m) @ t=0.12
0.13961692065072917
% es.EZ (V/m) @ t=0.12
0.49947292074316074
% es.tEX (V/m) @ t=0.12
0.49158587445752744
% es.tEY (V/m) @ t=0.12
0
% es.tEZ (V/m) @ t=0.12
0.49947292074314475
% es.Ex (V/m) @ t=0.12
0.491585874457515
% es.Ey (V/m) @ t=0.12
0.13961692065072917
% es.Ez (V/m) @ t=0.12
0.49947292074316074
% es.tEx (V/m) @ t=0.12
0.49158587445752744
% es.tEy (V/m) @ t=0.12
0
% es.tEz (V/m) @ t=0.12
0.49947292074314475
% V (V) @ t=0.12
0.006788871128010328
% es.normE (V/m) @ t=0.14
0.730614653475028
% es.EX (V/m) @ t=0.14
0.4960968436376536
% es.EY (V/m) @ t=0.14
0.14089820399323383
% es.EZ (V/m) @ t=0.14
0.5040563639745086
% es.tEX (V/m) @ t=0.14
0.49609684363765894
% es.tEY (V/m) @ t=0.14
0
% es.tEZ (V/m) @ t=0.14
0.5040563639745059
% es.Ex (V/m) @ t=0.14
0.4960968436376536
% es.Ey (V/m) @ t=0.14
0.14089820399323383
% es.Ez (V/m) @ t=0.14
0.5040563639745086
% es.tEx (V/m) @ t=0.14
0.49609684363765894
% es.tEy (V/m) @ t=0.14
0
% es.tEz (V/m) @ t=0.14
0.5040563639745059
% V (V) @ t=0.14
0.00685116547854105
% es.normE (V/m) @ t=0.16
0.7375534375462662
% es.EX (V/m) @ t=0.16
0.5008084227578014
% es.EY (V/m) @ t=0.16
0.1422362761638727
% es.EZ (V/m) @ t=0.16
0.5088434622421447
% es.tEX (V/m) @ t=0.16
0.5008084227578138
% es.tEY (V/m) @ t=0.16
0
% es.tEZ (V/m) @ t=0.16
0.5088434622421367
% es.Ex (V/m) @ t=0.16
0.5008084227578014
% es.Ey (V/m) @ t=0.16
0.1422362761638727
% es.Ez (V/m) @ t=0.16
0.5088434622421447
% es.tEx (V/m) @ t=0.16
0.5008084227578138
% es.tEy (V/m) @ t=0.16
0
% es.tEz (V/m) @ t=0.16
0.5088434622421367
% V (V) @ t=0.16
0.0069162350688192886
% es.normE (V/m) @ t=0.18
0.7444922216175209
% es.EX (V/m) @ t=0.18
0.5055200018779438
% es.EY (V/m) @ t=0.18
0.14357434833455862
% es.EZ (V/m) @ t=0.18
0.5136305605097649
% es.tEX (V/m) @ t=0.18
0.5055200018779473
% es.tEY (V/m) @ t=0.18
0
% es.tEZ (V/m) @ t=0.18
0.5136305605097569
% es.Ex (V/m) @ t=0.18
0.5055200018779438
% es.Ey (V/m) @ t=0.18
0.14357434833455862
% es.Ez (V/m) @ t=0.18
0.5136305605097649
% es.tEx (V/m) @ t=0.18
0.5055200018779473
% es.tEy (V/m) @ t=0.18
0
% es.tEz (V/m) @ t=0.18
0.5136305605097569
% V (V) @ t=0.18
0.006981304659097527
% es.normE (V/m) @ t=0.2
0.7514310056888023
% es.EX (V/m) @ t=0.2
0.5102315809981146
% es.EY (V/m) @ t=0.2
0.14491242050519837
% es.EZ (V/m) @ t=0.2
0.518417658777401
% es.tEX (V/m) @ t=0.2
0.5102315809981093
% es.tEY (V/m) @ t=0.2
0
% es.tEZ (V/m) @ t=0.2
0.5184176587773948
% es.Ex (V/m) @ t=0.2
0.5102315809981146
% es.Ey (V/m) @ t=0.2
0.14491242050519837
% es.Ez (V/m) @ t=0.2
0.518417658777401
% es.tEx (V/m) @ t=0.2
0.5102315809981093
% es.tEy (V/m) @ t=0.2
0
% es.tEz (V/m) @ t=0.2
0.5184176587773948
% V (V) @ t=0.2
0.007046374249375766
% es.normE (V/m) @ t=0.22
0.7583697897601129
% es.EX (V/m) @ t=0.22
0.5149431601182766
% es.EY (V/m) @ t=0.22
0.14625049267586476
% es.EZ (V/m) @ t=0.22
0.5232047570450451
% es.tEX (V/m) @ t=0.22
0.5149431601182712
% es.tEY (V/m) @ t=0.22
0
% es.tEZ (V/m) @ t=0.22
0.5232047570450433
% es.Ex (V/m) @ t=0.22
0.5149431601182766
% es.Ey (V/m) @ t=0.22
0.14625049267586476
% es.Ez (V/m) @ t=0.22
0.5232047570450451
% es.tEx (V/m) @ t=0.22
0.5149431601182712
% es.tEy (V/m) @ t=0.22
0
% es.tEz (V/m) @ t=0.22
0.5232047570450433
% V (V) @ t=0.22
0.007111443839654005
% es.normE (V/m) @ t=0.24
0.7653085738314123
% es.EX (V/m) @ t=0.24
0.5196547392384439
% es.EY (V/m) @ t=0.24
0.14758856484651517
% es.EZ (V/m) @ t=0.24
0.5279918553126564
% es.tEX (V/m) @ t=0.24
0.5196547392384332
% es.tEY (V/m) @ t=0.24
0
% es.tEZ (V/m) @ t=0.24
0.5279918553126492
% es.Ex (V/m) @ t=0.24
0.5196547392384439
% es.Ey (V/m) @ t=0.24
0.14758856484651517
% es.Ez (V/m) @ t=0.24
0.5279918553126564
% es.tEx (V/m) @ t=0.24
0.5196547392384332
% es.tEy (V/m) @ t=0.24
0
% es.tEz (V/m) @ t=0.24
0.5279918553126492
% V (V) @ t=0.24
0.0071765134299322415
% es.normE (V/m) @ t=0.26
0.7722473579027358
% es.EX (V/m) @ t=0.26
0.5243663183585898
% es.EY (V/m) @ t=0.26
0.1489266370171709
% es.EZ (V/m) @ t=0.26
0.5327789535803023
% es.tEX (V/m) @ t=0.26
0.5243663183585738
% es.tEY (V/m) @ t=0.26
0
% es.tEZ (V/m) @ t=0.26
0.5327789535802907
% es.Ex (V/m) @ t=0.26
0.5243663183585898
% es.Ey (V/m) @ t=0.26
0.1489266370171709
% es.Ez (V/m) @ t=0.26
0.5327789535803023
% es.tEx (V/m) @ t=0.26
0.5243663183585738
% es.tEy (V/m) @ t=0.26
0
% es.tEz (V/m) @ t=0.26
0.5327789535802907
% V (V) @ t=0.26
0.00724158302021048
% es.normE (V/m) @ t=0.28
0.7794607040605313
% es.EX (V/m) @ t=0.28
0.5292642884218264
% es.EY (V/m) @ t=0.28
0.1503176565886477
% es.EZ (V/m) @ t=0.28
0.5377555111582177
% es.tEX (V/m) @ t=0.28
0.5292642884218282
% es.tEY (V/m) @ t=0.28
0
% es.tEZ (V/m) @ t=0.28
0.5377555111582097
% es.Ex (V/m) @ t=0.28
0.5292642884218264
% es.Ey (V/m) @ t=0.28
0.1503176565886477
% es.Ez (V/m) @ t=0.28
0.5377555111582177
% es.tEx (V/m) @ t=0.28
0.5292642884218282
% es.tEy (V/m) @ t=0.28
0
% es.tEz (V/m) @ t=0.28
0.5377555111582097
% V (V) @ t=0.28
0.007309227519217636
% es.normE (V/m) @ t=0.3
0.787190328822356
% es.EX (V/m) @ t=0.3
0.5345127426219012
% es.EY (V/m) @ t=0.3
0.15180823692089263
% es.EZ (V/m) @ t=0.3
0.5430883225419576
% es.tEX (V/m) @ t=0.3
0.5345127426218994
% es.tEY (V/m) @ t=0.3
0
% es.tEZ (V/m) @ t=0.3
0.5430883225419514
% es.Ex (V/m) @ t=0.3
0.5345127426219012
% es.Ey (V/m) @ t=0.3
0.15180823692089263
% es.Ez (V/m) @ t=0.3
0.5430883225419576
% es.tEx (V/m) @ t=0.3
0.5345127426218994
% es.tEy (V/m) @ t=0.3
0
% es.tEz (V/m) @ t=0.3
0.5430883225419514
% V (V) @ t=0.3
0.007381713802104196
% es.normE (V/m) @ t=0.32
0.7949199535842149
% es.EX (V/m) @ t=0.32
0.5397611968219742
% es.EY (V/m) @ t=0.32
0.15329881725317662
% es.EZ (V/m) @ t=0.32
0.5484211339256984
% es.tEX (V/m) @ t=0.32
0.5397611968219707
% es.tEY (V/m) @ t=0.32
0
% es.tEZ (V/m) @ t=0.32
0.5484211339256895
% es.Ex (V/m) @ t=0.32
0.5397611968219742
% es.Ey (V/m) @ t=0.32
0.15329881725317662
% es.Ez (V/m) @ t=0.32
0.5484211339256984
% es.tEx (V/m) @ t=0.32
0.5397611968219707
% es.tEy (V/m) @ t=0.32
0
% es.tEz (V/m) @ t=0.32
0.5484211339256895
% V (V) @ t=0.32
0.007454200084990758
% es.normE (V/m) @ t=0.34
0.802649578346111
% es.EX (V/m) @ t=0.34
0.5450096510220988
% es.EY (V/m) @ t=0.34
0.15478939758540555
% es.EZ (V/m) @ t=0.34
0.5537539453094356
% es.tEX (V/m) @ t=0.34
0.5450096510220845
% es.tEY (V/m) @ t=0.34
0
% es.tEZ (V/m) @ t=0.34
0.5537539453094276
% es.Ex (V/m) @ t=0.34
0.5450096510220988
% es.Ey (V/m) @ t=0.34
0.15478939758540555
% es.Ez (V/m) @ t=0.34
0.5537539453094356
% es.tEx (V/m) @ t=0.34
0.5450096510220845
% es.tEy (V/m) @ t=0.34
0
% es.tEz (V/m) @ t=0.34
0.5537539453094276
% V (V) @ t=0.34
0.007526686367877319
% es.normE (V/m) @ t=0.36
0.8103792031079962
% es.EX (V/m) @ t=0.36
0.5502581052221629
% es.EY (V/m) @ t=0.36
0.15627997791765935
% es.EZ (V/m) @ t=0.36
0.5590867566931808
% es.tEX (V/m) @ t=0.36
0.5502581052221558
% es.tEY (V/m) @ t=0.36
0
% es.tEZ (V/m) @ t=0.36
0.5590867566931728
% es.Ex (V/m) @ t=0.36
0.5502581052221629
% es.Ey (V/m) @ t=0.36
0.15627997791765935
% es.Ez (V/m) @ t=0.36
0.5590867566931808
% es.tEx (V/m) @ t=0.36
0.5502581052221558
% es.tEy (V/m) @ t=0.36
0
% es.tEz (V/m) @ t=0.36
0.5590867566931728
% V (V) @ t=0.36
0.007599172650763881
% es.normE (V/m) @ t=0.38
0.8181088278699178
% es.EX (V/m) @ t=0.38
0.5555065594222732
% es.EY (V/m) @ t=0.38
0.1577705582498794
% es.EZ (V/m) @ t=0.38
0.5644195680769197
% es.tEX (V/m) @ t=0.38
0.5555065594222555
% es.tEY (V/m) @ t=0.38
0
% es.tEZ (V/m) @ t=0.38
0.5644195680769108
% es.Ex (V/m) @ t=0.38
0.5555065594222732
% es.Ey (V/m) @ t=0.38
0.1577705582498794
% es.Ez (V/m) @ t=0.38
0.5644195680769197
% es.tEx (V/m) @ t=0.38
0.5555065594222555
% es.tEy (V/m) @ t=0.38
0
% es.tEz (V/m) @ t=0.38
0.5644195680769108
% V (V) @ t=0.38
0.007671658933650441
% es.normE (V/m) @ t=0.4
0.825838452631872
% es.EX (V/m) @ t=0.4
0.5607550136223693
% es.EY (V/m) @ t=0.4
0.15926113858215807
% es.EZ (V/m) @ t=0.4
0.569752379460664
% es.tEX (V/m) @ t=0.4
0.5607550136223551
% es.tEY (V/m) @ t=0.4
0
% es.tEZ (V/m) @ t=0.4
0.569752379460656
% es.Ex (V/m) @ t=0.4
0.5607550136223693
% es.Ey (V/m) @ t=0.4
0.15926113858215807
% es.Ez (V/m) @ t=0.4
0.569752379460664
% es.tEx (V/m) @ t=0.4
0.5607550136223551
% es.tEy (V/m) @ t=0.4
0
% es.tEz (V/m) @ t=0.4
0.569752379460656
% V (V) @ t=0.4
0.007744145216537002
% es.normE (V/m) @ t=0.42
0.8335680773937956
% es.EX (V/m) @ t=0.42
0.5660034678224157
% es.EY (V/m) @ t=0.42
0.16075171891438522
% es.EZ (V/m) @ t=0.42
0.575085190844403
% es.tEX (V/m) @ t=0.42
0.5660034678224122
% es.tEY (V/m) @ t=0.42
0
% es.tEZ (V/m) @ t=0.42
0.5750851908443977
% es.Ex (V/m) @ t=0.42
0.5660034678224157
% es.Ey (V/m) @ t=0.42
0.16075171891438522
% es.Ez (V/m) @ t=0.42
0.575085190844403
% es.tEx (V/m) @ t=0.42
0.5660034678224122
% es.tEy (V/m) @ t=0.42
0
% es.tEz (V/m) @ t=0.42
0.5750851908443977
% V (V) @ t=0.42
0.007816631499423563
% es.normE (V/m) @ t=0.44
0.8412977021557941
% es.EX (V/m) @ t=0.44
0.5712519220225474
% es.EY (V/m) @ t=0.44
0.16224229924663192
% es.EZ (V/m) @ t=0.44
0.5804180022281482
% es.tEX (V/m) @ t=0.44
0.5712519220225403
% es.tEY (V/m) @ t=0.44
0
% es.tEZ (V/m) @ t=0.44
0.5804180022281393
% es.Ex (V/m) @ t=0.44
0.5712519220225474
% es.Ey (V/m) @ t=0.44
0.16224229924663192
% es.Ez (V/m) @ t=0.44
0.5804180022281482
% es.tEx (V/m) @ t=0.44
0.5712519220225403
% es.tEy (V/m) @ t=0.44
0
% es.tEz (V/m) @ t=0.44
0.5804180022281393
% V (V) @ t=0.44
0.007889117782310124
% es.normE (V/m) @ t=0.46
0.8490273269177506
% es.EX (V/m) @ t=0.46
0.5765003762226009
% es.EY (V/m) @ t=0.46
0.16373287957889282
% es.EZ (V/m) @ t=0.46
0.5857508136118756
% es.tEX (V/m) @ t=0.46
0.5765003762225973
% es.tEY (V/m) @ t=0.46
0
% es.tEZ (V/m) @ t=0.46
0.5857508136118668
% es.Ex (V/m) @ t=0.46
0.5765003762226009
% es.Ey (V/m) @ t=0.46
0.16373287957889282
% es.Ez (V/m) @ t=0.46
0.5857508136118756
% es.tEx (V/m) @ t=0.46
0.5765003762225973
% es.tEy (V/m) @ t=0.46
0
% es.tEz (V/m) @ t=0.46
0.5857508136118668
% V (V) @ t=0.46
0.007961604065196684
% es.normE (V/m) @ t=0.48
0.8567569516797751
% es.EX (V/m) @ t=0.48
0.5817488304227041
% es.EY (V/m) @ t=0.48
0.16522345991111997
% es.EZ (V/m) @ t=0.48
0.5910836249956368
% es.tEX (V/m) @ t=0.48
0.581748830422697
% es.tEY (V/m) @ t=0.48
0
% es.tEZ (V/m) @ t=0.48
0.5910836249956297
% es.Ex (V/m) @ t=0.48
0.5817488304227041
% es.Ey (V/m) @ t=0.48
0.16522345991111997
% es.Ez (V/m) @ t=0.48
0.5910836249956368
% es.tEx (V/m) @ t=0.48
0.581748830422697
% es.tEy (V/m) @ t=0.48
0
% es.tEz (V/m) @ t=0.48
0.5910836249956297
% V (V) @ t=0.48
0.008034090348083247
% es.normE (V/m) @ t=0.5
0.8644865764418064
% es.EX (V/m) @ t=0.5
0.5869972846228251
% es.EY (V/m) @ t=0.5
0.1667140402433578
% es.EZ (V/m) @ t=0.5
0.5964164363793678
% es.tEX (V/m) @ t=0.5
0.5869972846228109
% es.tEY (V/m) @ t=0.5
0
% es.tEZ (V/m) @ t=0.5
0.5964164363793607
% es.Ex (V/m) @ t=0.5
0.5869972846228251
% es.Ey (V/m) @ t=0.5
0.1667140402433578
% es.Ez (V/m) @ t=0.5
0.5964164363793678
% es.tEx (V/m) @ t=0.5
0.5869972846228109
% es.tEy (V/m) @ t=0.5
0
% es.tEz (V/m) @ t=0.5
0.5964164363793607
% V (V) @ t=0.5
0.008106576630969807
% es.normE (V/m) @ t=0.52
0.8722162012038159
% es.EX (V/m) @ t=0.52
0.5922457388228857
% es.EY (V/m) @ t=0.52
0.16820462057560626
% es.EZ (V/m) @ t=0.52
0.601749247763097
% es.tEX (V/m) @ t=0.52
0.5922457388228821
% es.tEY (V/m) @ t=0.52
0
% es.tEZ (V/m) @ t=0.52
0.6017492477630881
% es.Ex (V/m) @ t=0.52
0.5922457388228857
% es.Ey (V/m) @ t=0.52
0.16820462057560626
% es.Ez (V/m) @ t=0.52
0.601749247763097
% es.tEx (V/m) @ t=0.52
0.5922457388228821
% es.tEy (V/m) @ t=0.52
0
% es.tEz (V/m) @ t=0.52
0.6017492477630881
% V (V) @ t=0.52
0.008179062913856366
% es.normE (V/m) @ t=0.54
0.8799458259658939
% es.EX (V/m) @ t=0.54
0.5974941930229996
% es.EY (V/m) @ t=0.54
0.16969520090784762
% es.EZ (V/m) @ t=0.54
0.6070820591468511
% es.tEX (V/m) @ t=0.54
0.5974941930229818
% es.tEY (V/m) @ t=0.54
0
% es.tEZ (V/m) @ t=0.54
0.607082059146844
% es.Ex (V/m) @ t=0.54
0.5974941930229996
% es.Ey (V/m) @ t=0.54
0.16969520090784762
% es.Ez (V/m) @ t=0.54
0.6070820591468511
% es.tEx (V/m) @ t=0.54
0.5974941930229818
% es.tEy (V/m) @ t=0.54
0
% es.tEz (V/m) @ t=0.54
0.607082059146844
% V (V) @ t=0.54
0.00825154919674293
% es.normE (V/m) @ t=0.56
0.8883120935372344
% es.EX (V/m) @ t=0.56
0.6031750485625444
% es.EY (V/m) @ t=0.56
0.1713086179501282
% es.EZ (V/m) @ t=0.56
0.6128539657889629
% es.tEX (V/m) @ t=0.56
0.603175048562548
% es.tEY (V/m) @ t=0.56
0
% es.tEZ (V/m) @ t=0.56
0.612853965788954
% es.Ex (V/m) @ t=0.56
0.6031750485625444
% es.Ey (V/m) @ t=0.56
0.1713086179501282
% es.Ez (V/m) @ t=0.56
0.6128539657889629
% es.tEx (V/m) @ t=0.56
0.603175048562548
% es.tEy (V/m) @ t=0.56
0
% es.tEz (V/m) @ t=0.56
0.612853965788954
% V (V) @ t=0.56
0.00833000202211469
% es.normE (V/m) @ t=0.58
0.8969455945824731
% es.EX (V/m) @ t=0.58
0.6090374063673956
% es.EY (V/m) @ t=0.58
0.17297359621355213
% es.EZ (V/m) @ t=0.58
0.61881018449672
% es.tEX (V/m) @ t=0.58
0.609037406367392
% es.tEY (V/m) @ t=0.58
0
% es.tEZ (V/m) @ t=0.58
0.6188101844967058
% es.Ex (V/m) @ t=0.58
0.6090374063673956
% es.Ey (V/m) @ t=0.58
0.17297359621355213
% es.Ez (V/m) @ t=0.58
0.61881018449672
% es.tEx (V/m) @ t=0.58
0.609037406367392
% es.tEy (V/m) @ t=0.58
0
% es.tEz (V/m) @ t=0.58
0.6188101844967058
% V (V) @ t=0.58
0.008410959328573601
% es.normE (V/m) @ t=0.6
0.9055790956277004
% es.EX (V/m) @ t=0.6
0.6148997641721969
% es.EY (V/m) @ t=0.6
0.1746385744770631
% es.EZ (V/m) @ t=0.6
0.6247664032044442
% es.tEX (V/m) @ t=0.6
0.6148997641721792
% es.tEY (V/m) @ t=0.6
0
% es.tEZ (V/m) @ t=0.6
0.6247664032044362
% es.Ex (V/m) @ t=0.6
0.6148997641721969
% es.Ey (V/m) @ t=0.6
0.1746385744770631
% es.Ez (V/m) @ t=0.6
0.6247664032044442
% es.tEx (V/m) @ t=0.6
0.6148997641721792
% es.tEy (V/m) @ t=0.6
0
% es.tEz (V/m) @ t=0.6
0.6247664032044362
% V (V) @ t=0.6
0.008491916635032513
% es.normE (V/m) @ t=0.62
0.9142125966729829
% es.EX (V/m) @ t=0.62
0.6207621219770232
% es.EY (V/m) @ t=0.62
0.1763035527405563
% es.EZ (V/m) @ t=0.62
0.6307226219121933
% es.tEX (V/m) @ t=0.62
0.6207621219770232
% es.tEY (V/m) @ t=0.62
0
% es.tEZ (V/m) @ t=0.62
0.6307226219121844
% es.Ex (V/m) @ t=0.62
0.6207621219770232
% es.Ey (V/m) @ t=0.62
0.1763035527405563
% es.Ez (V/m) @ t=0.62
0.6307226219121933
% es.tEx (V/m) @ t=0.62
0.6207621219770232
% es.tEy (V/m) @ t=0.62
0
% es.tEz (V/m) @ t=0.62
0.6307226219121844
% V (V) @ t=0.62
0.008572873941491423
% es.normE (V/m) @ t=0.64
0.9228460977182711
% es.EX (V/m) @ t=0.64
0.6266244797818494
% es.EY (V/m) @ t=0.64
0.17796853100400334
% es.EZ (V/m) @ t=0.64
0.6366788406199344
% es.tEX (V/m) @ t=0.64
0.626624479781853
% es.tEY (V/m) @ t=0.64
0
% es.tEZ (V/m) @ t=0.64
0.636678840619922
% es.Ex (V/m) @ t=0.64
0.6266244797818494
% es.Ey (V/m) @ t=0.64
0.17796853100400334
% es.Ez (V/m) @ t=0.64
0.6366788406199344
% es.tEx (V/m) @ t=0.64
0.626624479781853
% es.tEy (V/m) @ t=0.64
0
% es.tEz (V/m) @ t=0.64
0.636678840619922
% V (V) @ t=0.64
0.008653831247950335
% es.normE (V/m) @ t=0.66
0.9314795987635922
% es.EX (V/m) @ t=0.66
0.6324868375866615
% es.EY (V/m) @ t=0.66
0.17963350926749122
% es.EZ (V/m) @ t=0.66
0.6426350593276817
% es.tEX (V/m) @ t=0.66
0.6324868375866544
% es.tEY (V/m) @ t=0.66
0
% es.tEZ (V/m) @ t=0.66
0.6426350593276737
% es.Ex (V/m) @ t=0.66
0.6324868375866615
% es.Ey (V/m) @ t=0.66
0.17963350926749122
% es.Ez (V/m) @ t=0.66
0.6426350593276817
% es.tEx (V/m) @ t=0.66
0.6324868375866544
% es.tEy (V/m) @ t=0.66
0
% es.tEz (V/m) @ t=0.66
0.6426350593276737
% V (V) @ t=0.66
0.008734788554409248
% es.normE (V/m) @ t=0.68
0.9401130998089477
% es.EX (V/m) @ t=0.68
0.6383491953915268
% es.EY (V/m) @ t=0.68
0.1812984875309418
% es.EZ (V/m) @ t=0.68
0.6485912780354175
% es.tEX (V/m) @ t=0.68
0.6383491953915126
% es.tEY (V/m) @ t=0.68
0
% es.tEZ (V/m) @ t=0.68
0.6485912780354042
% es.Ex (V/m) @ t=0.68
0.6383491953915268
% es.Ey (V/m) @ t=0.68
0.1812984875309418
% es.Ez (V/m) @ t=0.68
0.6485912780354175
% es.tEx (V/m) @ t=0.68
0.6383491953915126
% es.tEy (V/m) @ t=0.68
0
% es.tEz (V/m) @ t=0.68
0.6485912780354042
% V (V) @ t=0.68
0.00881574586086816
% es.normE (V/m) @ t=0.7
0.9487466008543015
% es.EX (V/m) @ t=0.7
0.6442115531963388
% es.EY (V/m) @ t=0.7
0.1829634657944439
% es.EZ (V/m) @ t=0.7
0.654547496743147
% es.tEX (V/m) @ t=0.7
0.6442115531963282
% es.tEY (V/m) @ t=0.7
0
% es.tEZ (V/m) @ t=0.7
0.6545474967431346
% es.Ex (V/m) @ t=0.7
0.6442115531963388
% es.Ey (V/m) @ t=0.7
0.1829634657944439
% es.Ez (V/m) @ t=0.7
0.654547496743147
% es.tEx (V/m) @ t=0.7
0.6442115531963282
% es.tEy (V/m) @ t=0.7
0
% es.tEz (V/m) @ t=0.7
0.6545474967431346
% V (V) @ t=0.7
0.008896703167327071
% es.normE (V/m) @ t=0.72
0.9573801018996636
% es.EX (V/m) @ t=0.72
0.6500739110011331
% es.EY (V/m) @ t=0.72
0.18462844405793355
% es.EZ (V/m) @ t=0.72
0.6605037154508819
% es.tEX (V/m) @ t=0.72
0.6500739110011295
% es.tEY (V/m) @ t=0.72
0
% es.tEZ (V/m) @ t=0.72
0.6605037154508793
% es.Ex (V/m) @ t=0.72
0.6500739110011331
% es.Ey (V/m) @ t=0.72
0.18462844405793355
% es.Ez (V/m) @ t=0.72
0.6605037154508819
% es.tEx (V/m) @ t=0.72
0.6500739110011295
% es.tEy (V/m) @ t=0.72
0
% es.tEz (V/m) @ t=0.72
0.6605037154508793
% V (V) @ t=0.72
0.008977660473785981
% es.normE (V/m) @ t=0.74
0.9660136029450891
% es.EX (V/m) @ t=0.74
0.6559362688059807
% es.EY (V/m) @ t=0.74
0.18629342232140367
% es.EZ (V/m) @ t=0.74
0.6664599341586355
% es.tEX (V/m) @ t=0.74
0.6559362688059736
% es.tEY (V/m) @ t=0.74
0
% es.tEZ (V/m) @ t=0.74
0.666459934158631
% es.Ex (V/m) @ t=0.74
0.6559362688059807
% es.Ey (V/m) @ t=0.74
0.18629342232140367
% es.Ez (V/m) @ t=0.74
0.6664599341586355
% es.tEx (V/m) @ t=0.74
0.6559362688059736
% es.tEy (V/m) @ t=0.74
0
% es.tEz (V/m) @ t=0.74
0.666459934158631
% V (V) @ t=0.74
0.009058617780244893
% es.normE (V/m) @ t=0.76
0.9746471039905367
% es.EX (V/m) @ t=0.76
0.6617986266108353
% es.EY (V/m) @ t=0.76
0.18795840058486668
% es.EZ (V/m) @ t=0.76
0.6724161528663872
% es.tEX (V/m) @ t=0.76
0.6617986266108034
% es.tEY (V/m) @ t=0.76
0
% es.tEZ (V/m) @ t=0.76
0.6724161528663828
% es.Ex (V/m) @ t=0.76
0.6617986266108353
% es.Ey (V/m) @ t=0.76
0.18795840058486668
% es.Ez (V/m) @ t=0.76
0.6724161528663872
% es.tEx (V/m) @ t=0.76
0.6617986266108034
% es.tEy (V/m) @ t=0.76
0
% es.tEz (V/m) @ t=0.76
0.6724161528663828
% V (V) @ t=0.76
0.009139575086703806
% es.normE (V/m) @ t=0.78
0.9832806050359774
% es.EX (V/m) @ t=0.78
0.6676609844156651
% es.EY (V/m) @ t=0.78
0.189623378848351
% es.EZ (V/m) @ t=0.78
0.678372371574115
% es.tEX (V/m) @ t=0.78
0.6676609844156332
% es.tEY (V/m) @ t=0.78
0
% es.tEZ (V/m) @ t=0.78
0.678372371574099
% es.Ex (V/m) @ t=0.78
0.6676609844156651
% es.Ey (V/m) @ t=0.78
0.189623378848351
% es.Ez (V/m) @ t=0.78
0.678372371574115
% es.tEx (V/m) @ t=0.78
0.6676609844156332
% es.tEy (V/m) @ t=0.78
0
% es.tEz (V/m) @ t=0.78
0.678372371574099
% V (V) @ t=0.78
0.009220532393162718
% es.normE (V/m) @ t=0.8
0.9919141060814087
% es.EX (V/m) @ t=0.8
0.6735233422204416
% es.EY (V/m) @ t=0.8
0.19128835711184067
% es.EZ (V/m) @ t=0.8
0.6843285902818481
% es.tEX (V/m) @ t=0.8
0.6735233422204487
% es.tEY (V/m) @ t=0.8
0
% es.tEZ (V/m) @ t=0.8
0.6843285902818295
% es.Ex (V/m) @ t=0.8
0.6735233422204416
% es.Ey (V/m) @ t=0.8
0.19128835711184067
% es.Ez (V/m) @ t=0.8
0.6843285902818481
% es.tEx (V/m) @ t=0.8
0.6735233422204487
% es.tEy (V/m) @ t=0.8
0
% es.tEz (V/m) @ t=0.8
0.6843285902818295
% V (V) @ t=0.8
0.009301489699621628
% es.normE (V/m) @ t=0.82
1.0006103230436802
% es.EX (V/m) @ t=0.82
0.6794282778181859
% es.EY (V/m) @ t=0.82
0.19296542940586647
% es.EZ (V/m) @ t=0.82
0.6903280838693098
% es.tEX (V/m) @ t=0.82
0.6794282778181611
% es.tEY (V/m) @ t=0.82
0
% es.tEZ (V/m) @ t=0.82
0.6903280838692964
% es.Ex (V/m) @ t=0.82
0.6794282778181859
% es.Ey (V/m) @ t=0.82
0.19296542940586647
% es.Ez (V/m) @ t=0.82
0.6903280838693098
% es.tEx (V/m) @ t=0.82
0.6794282778181611
% es.tEy (V/m) @ t=0.82
0
% es.tEz (V/m) @ t=0.82
0.6903280838692964
% V (V) @ t=0.82
0.009383035175600142
% es.normE (V/m) @ t=0.84
1.010263311848452
% es.EX (V/m) @ t=0.84
0.6859827651638817
% es.EY (V/m) @ t=0.84
0.19482700395240649
% es.EZ (V/m) @ t=0.84
0.6969877637143389
% es.tEX (V/m) @ t=0.84
0.6859827651638568
% es.tEY (V/m) @ t=0.84
0
% es.tEZ (V/m) @ t=0.84
0.6969877637143327
% es.Ex (V/m) @ t=0.84
0.6859827651638817
% es.Ey (V/m) @ t=0.84
0.19482700395240649
% es.Ez (V/m) @ t=0.84
0.6969877637143389
% es.tEx (V/m) @ t=0.84
0.6859827651638568
% es.tEy (V/m) @ t=0.84
0
% es.tEz (V/m) @ t=0.84
0.6969877637143327
% V (V) @ t=0.84
0.009473553557722865
% es.normE (V/m) @ t=0.86
1.0199163006532335
% es.EX (V/m) @ t=0.86
0.6925372525095419
% es.EY (V/m) @ t=0.86
0.19668857849895716
% es.EZ (V/m) @ t=0.86
0.703647443559416
% es.tEX (V/m) @ t=0.86
0.6925372525095526
% es.tEY (V/m) @ t=0.86
0
% es.tEZ (V/m) @ t=0.86
0.7036474435594045
% es.Ex (V/m) @ t=0.86
0.6925372525095419
% es.Ey (V/m) @ t=0.86
0.19668857849895716
% es.Ez (V/m) @ t=0.86
0.703647443559416
% es.tEx (V/m) @ t=0.86
0.6925372525095526
% es.tEy (V/m) @ t=0.86
0
% es.tEz (V/m) @ t=0.86
0.7036474435594045
% V (V) @ t=0.86
0.00956407193984559
% es.normE (V/m) @ t=0.88
1.0295692894579938
% es.EX (V/m) @ t=0.88
0.699091739855227
% es.EY (V/m) @ t=0.88
0.19855015304549184
% es.EZ (V/m) @ t=0.88
0.7103071234044354
% es.tEX (V/m) @ t=0.88
0.6990917398552057
% es.tEY (V/m) @ t=0.88
0
% es.tEZ (V/m) @ t=0.88
0.7103071234044265
% es.Ex (V/m) @ t=0.88
0.699091739855227
% es.Ey (V/m) @ t=0.88
0.19855015304549184
% es.Ez (V/m) @ t=0.88
0.7103071234044354
% es.tEx (V/m) @ t=0.88
0.6990917398552057
% es.tEy (V/m) @ t=0.88
0
% es.tEz (V/m) @ t=0.88
0.7103071234044265
% V (V) @ t=0.88
0.009654590321968314
% es.normE (V/m) @ t=0.9
1.0392222782628113
% es.EX (V/m) @ t=0.9
0.7056462272009334
% es.EY (V/m) @ t=0.9
0.2004117275920283
% es.EZ (V/m) @ t=0.9
0.716966803249516
% es.tEX (V/m) @ t=0.9
0.7056462272009156
% es.tEY (V/m) @ t=0.9
0
% es.tEZ (V/m) @ t=0.9
0.7169668032495053
% es.Ex (V/m) @ t=0.9
0.7056462272009334
% es.Ey (V/m) @ t=0.9
0.2004117275920283
% es.Ez (V/m) @ t=0.9
0.716966803249516
% es.tEx (V/m) @ t=0.9
0.7056462272009156
% es.tEy (V/m) @ t=0.9
0
% es.tEz (V/m) @ t=0.9
0.7169668032495053
% V (V) @ t=0.9
0.009745108704091041
% es.normE (V/m) @ t=0.92
1.0488752670675852
% es.EX (V/m) @ t=0.92
0.7122007145466256
% es.EY (V/m) @ t=0.92
0.20227330213855588
% es.EZ (V/m) @ t=0.92
0.7236264830945451
% es.tEX (V/m) @ t=0.92
0.7122007145465972
% es.tEY (V/m) @ t=0.92
0
% es.tEZ (V/m) @ t=0.92
0.7236264830945345
% es.Ex (V/m) @ t=0.92
0.7122007145466256
% es.Ey (V/m) @ t=0.92
0.20227330213855588
% es.Ez (V/m) @ t=0.92
0.7236264830945451
% es.tEx (V/m) @ t=0.92
0.7122007145465972
% es.tEy (V/m) @ t=0.92
0
% es.tEz (V/m) @ t=0.92
0.7236264830945345
% V (V) @ t=0.92
0.009835627086213765
% es.normE (V/m) @ t=0.94
1.0585282558723403
% es.EX (V/m) @ t=0.94
0.7187552018922716
% es.EY (V/m) @ t=0.94
0.204134876685103
% es.EZ (V/m) @ t=0.94
0.7302861629395885
% es.tEX (V/m) @ t=0.94
0.7187552018922787
% es.tEY (V/m) @ t=0.94
0
% es.tEZ (V/m) @ t=0.94
0.7302861629395778
% es.Ex (V/m) @ t=0.94
0.7187552018922716
% es.Ey (V/m) @ t=0.94
0.204134876685103
% es.Ez (V/m) @ t=0.94
0.7302861629395885
% es.tEx (V/m) @ t=0.94
0.7187552018922787
% es.tEy (V/m) @ t=0.94
0
% es.tEz (V/m) @ t=0.94
0.7302861629395778
% V (V) @ t=0.94
0.009926145468336488
% es.normE (V/m) @ t=0.96
1.0681812446771342
% es.EX (V/m) @ t=0.96
0.7253096892379745
% es.EY (V/m) @ t=0.96
0.20599645123164478
% es.EZ (V/m) @ t=0.96
0.7369458427846309
% es.tEX (V/m) @ t=0.96
0.7253096892379887
% es.tEY (V/m) @ t=0.96
0
% es.tEZ (V/m) @ t=0.96
0.7369458427846283
% es.Ex (V/m) @ t=0.96
0.7253096892379745
% es.Ey (V/m) @ t=0.96
0.20599645123164478
% es.Ez (V/m) @ t=0.96
0.7369458427846309
% es.tEx (V/m) @ t=0.96
0.7253096892379887
% es.tEy (V/m) @ t=0.96
0
% es.tEz (V/m) @ t=0.96
0.7369458427846283
% V (V) @ t=0.96
0.010016663850459216
% es.normE (V/m) @ t=0.98
1.077834233481929
% es.EX (V/m) @ t=0.98
0.7318641765836666
% es.EY (V/m) @ t=0.98
0.2078580257781617
% es.EZ (V/m) @ t=0.98
0.7436055226296894
% es.tEX (V/m) @ t=0.98
0.7318641765836418
% es.tEY (V/m) @ t=0.98
0
% es.tEZ (V/m) @ t=0.98
0.7436055226296787
% es.Ex (V/m) @ t=0.98
0.7318641765836666
% es.Ey (V/m) @ t=0.98
0.2078580257781617
% es.Ez (V/m) @ t=0.98
0.7436055226296894
% es.tEx (V/m) @ t=0.98
0.7318641765836418
% es.tEy (V/m) @ t=0.98
0
% es.tEz (V/m) @ t=0.98
0.7436055226296787
% V (V) @ t=0.98
0.010107182232581939
% es.normE (V/m) @ t=1
1.0874872222867138
% es.EX (V/m) @ t=1
0.7384186639293624
% es.EY (V/m) @ t=1
0.2097196003246875
% es.EZ (V/m) @ t=1
0.7502652024747274
% es.tEX (V/m) @ t=1
0.7384186639293517
% es.tEY (V/m) @ t=1
0
% es.tEZ (V/m) @ t=1
0.7502652024747078
% es.Ex (V/m) @ t=1
0.7384186639293624
% es.Ey (V/m) @ t=1
0.2097196003246875
% es.Ez (V/m) @ t=1
0.7502652024747274
% es.tEx (V/m) @ t=1
0.7384186639293517
% es.tEy (V/m) @ t=1
0
% es.tEz (V/m) @ t=1
0.7502652024747078
% V (V) @ t=1
0.010197700614704663
% es.normE (V/m) @ t=1.02
1.0971402110914927
% es.EX (V/m) @ t=1.02
0.7449731512750226
% es.EY (V/m) @ t=1.02
0.21158117487124173
% es.EZ (V/m) @ t=1.02
0.7569248823197787
% es.tEX (V/m) @ t=1.02
0.7449731512750191
% es.tEY (V/m) @ t=1.02
0
% es.tEZ (V/m) @ t=1.02
0.7569248823197654
% es.Ex (V/m) @ t=1.02
0.7449731512750226
% es.Ey (V/m) @ t=1.02
0.21158117487124173
% es.Ez (V/m) @ t=1.02
0.7569248823197787
% es.tEx (V/m) @ t=1.02
0.7449731512750191
% es.tEy (V/m) @ t=1.02
0
% es.tEz (V/m) @ t=1.02
0.7569248823197654
% V (V) @ t=1.02
0.010288218996827386
% es.normE (V/m) @ t=1.04
1.1067931998962623
% es.EX (V/m) @ t=1.04
0.7515276386206793
% es.EY (V/m) @ t=1.04
0.21344274941778885
% es.EZ (V/m) @ t=1.04
0.7635845621648221
% es.tEX (V/m) @ t=1.04
0.7515276386207006
% es.tEY (V/m) @ t=1.04
0
% es.tEZ (V/m) @ t=1.04
0.7635845621648087
% es.Ex (V/m) @ t=1.04
0.7515276386206793
% es.Ey (V/m) @ t=1.04
0.21344274941778885
% es.Ez (V/m) @ t=1.04