% Model:              1x1--2 - Copy1.mph
% Version:            COMSOL 6.0.0.405
% Date:               Mar 2 2023, 12:02
% Dimension:          0
% Nodes:              14017
% Expressions:        14017
% Description:        Electric field norm, Electric field, X component, Electric field, Y component, Electric field, Z component, Tangential electric field, X component, Tangential electric field, Y component, Tangential electric field, Z component, Electric field, x component, Electric field, y component, Electric field, z component, Tangential electric field, x component, Tangential electric field, y component, Tangential electric field, z component, Electric potential
% Length unit:        mm
% x
2
% y
14.200000000000001
% z
1.3300000000000003
% es.normE (V/m) @ t=0
0.08691273915818044
% es.EX (V/m) @ t=0
-0.08332207411207904
% es.EY (V/m) @ t=0
-0.017031641905560946
% es.EZ (V/m) @ t=0
0.017921477830800114
% es.tEX (V/m) @ t=0
-0.08332207411210035
% es.tEY (V/m) @ t=0
0
% es.tEZ (V/m) @ t=0
0.017921477830769916
% es.Ex (V/m) @ t=0
-0.08332207411207904
% es.Ey (V/m) @ t=0
-0.017031641905560946
% es.Ez (V/m) @ t=0
0.017921477830800114
% es.tEx (V/m) @ t=0
-0.08332207411210035
% es.tEy (V/m) @ t=0
0
% es.tEz (V/m) @ t=0
0.017921477830769916
% V (V) @ t=0
0.019771146844969275
% es.normE (V/m) @ t=0.1
0.09191456019480213
% es.EX (V/m) @ t=0.1
-0.08811725594001452
% es.EY (V/m) @ t=0.1
-0.018011805120448088
% es.EZ (V/m) @ t=0.1
0.018952848274306433
% es.tEX (V/m) @ t=0.1
-0.08811725594003583
% es.tEY (V/m) @ t=0.1
0
% es.tEZ (V/m) @ t=0.1
0.018952848274300216
% es.Ex (V/m) @ t=0.1
-0.08811725594001452
% es.Ey (V/m) @ t=0.1
-0.018011805120448088
% es.Ez (V/m) @ t=0.1
0.018952848274306433
% es.tEx (V/m) @ t=0.1
-0.08811725594003583
% es.tEy (V/m) @ t=0.1
0
% es.tEz (V/m) @ t=0.1
0.018952848274300216
% V (V) @ t=0.1
0.02090896750559186
% es.normE (V/m) @ t=0.2
0.0982072358883509
% es.EX (V/m) @ t=0.2
-0.09414980781147975
% es.EY (V/m) @ t=0.2
-0.01924512705704018
% es.EZ (V/m) @ t=0.2
0.02025092478011814
% es.tEX (V/m) @ t=0.2
-0.09414980781149929
% es.tEY (V/m) @ t=0.2
0
% es.tEZ (V/m) @ t=0.2
0.02025092478010393
% es.Ex (V/m) @ t=0.2
-0.09414980781147975
% es.Ey (V/m) @ t=0.2
-0.01924512705704018
% es.Ez (V/m) @ t=0.2
0.02025092478011814
% es.tEx (V/m) @ t=0.2
-0.09414980781149929
% es.tEy (V/m) @ t=0.2
0
% es.tEz (V/m) @ t=0.2
0.02025092478010393
% V (V) @ t=0.2
0.022340675573935383
% es.normE (V/m) @ t=0.3
0.10475767409291269
% es.EX (V/m) @ t=0.3
-0.10042928085769631
% es.EY (V/m) @ t=0.3
-0.020529208056750292
% es.EZ (V/m) @ t=0.3
0.021602811028325064
% es.tEX (V/m) @ t=0.3
-0.10042928085772118
% es.tEY (V/m) @ t=0.3
0
% es.tEZ (V/m) @ t=0.3
0.021602811028316182
% es.Ex (V/m) @ t=0.3
-0.10042928085769631
% es.Ey (V/m) @ t=0.3
-0.020529208056750292
% es.Ez (V/m) @ t=0.3
0.021602811028325064
% es.tEx (V/m) @ t=0.3
-0.10042928085772118
% es.tEy (V/m) @ t=0.3
0
% es.tEz (V/m) @ t=0.3
0.021602811028316182
% V (V) @ t=0.3
0.023831317946199547
% es.normE (V/m) @ t=0.4
0.11174861852124865
% es.EX (V/m) @ t=0.4
-0.10713125716516281
% es.EY (V/m) @ t=0.4
-0.021899362468342787
% es.EZ (V/m) @ t=0.4
0.023044856326292162
% es.tEX (V/m) @ t=0.4
-0.10713125716518945
% es.tEY (V/m) @ t=0.4
0
% es.tEZ (V/m) @ t=0.4
0.023044856326260188
% es.Ex (V/m) @ t=0.4
-0.10713125716516281
% es.Ey (V/m) @ t=0.4
-0.021899362468342787
% es.Ez (V/m) @ t=0.4
0.023044856326292162
% es.tEx (V/m) @ t=0.4
-0.10713125716518945
% es.tEy (V/m) @ t=0.4
0
% es.tEz (V/m) @ t=0.4
0.023044856326260188
% V (V) @ t=0.4
0.02542186653097271
% es.normE (V/m) @ t=0.5
0.1189520627402359
% es.EX (V/m) @ t=0.5
-0.11403732114811405
% es.EY (V/m) @ t=0.5
-0.02331068244248158
% es.EZ (V/m) @ t=0.5
0.024529465945770212
% es.tEX (V/m) @ t=0.5
-0.11403732114813536
% es.tEY (V/m) @ t=0.5
0
% es.tEZ (V/m) @ t=0.5
0.024529465945738238
% es.Ex (V/m) @ t=0.5
-0.11403732114811405
% es.Ey (V/m) @ t=0.5
-0.02331068244248158
% es.Ez (V/m) @ t=0.5
0.024529465945770212
% es.tEx (V/m) @ t=0.5
-0.11403732114813536
% es.tEy (V/m) @ t=0.5
0
% es.tEz (V/m) @ t=0.5
0.024529465945738238
% V (V) @ t=0.5
0.02706018323907429
% es.normE (V/m) @ t=0.6
0.1264328901213313
% es.EX (V/m) @ t=0.6
-0.12120985796394201
% es.EY (V/m) @ t=0.6
-0.024775645271475355
% es.EZ (V/m) @ t=0.6
0.02606939658249985
% es.tEX (V/m) @ t=0.6
-0.1212098579639651
% es.tEY (V/m) @ t=0.6
0
% es.tEZ (V/m) @ t=0.6
0.026069396582473203
% es.Ex (V/m) @ t=0.6
-0.12120985796394201
% es.Ey (V/m) @ t=0.6
-0.024775645271475355
% es.Ez (V/m) @ t=0.6
0.02606939658249985
% es.tEx (V/m) @ t=0.6
-0.1212098579639651
% es.tEy (V/m) @ t=0.6
0
% es.tEz (V/m) @ t=0.6
0.026069396582473203
% V (V) @ t=0.6
0.028760743182549744
% es.normE (V/m) @ t=0.7
0.13409976960097816
% es.EX (V/m) @ t=0.7
-0.1285602431056443
% es.EY (V/m) @ t=0.7
-0.02627773864410443
% es.EZ (V/m) @ t=0.7
0.027649458428786744
% es.tEX (V/m) @ t=0.7
-0.12856024310566028
% es.tEY (V/m) @ t=0.7
0
% es.tEZ (V/m) @ t=0.7
0.027649458428770757
% es.Ex (V/m) @ t=0.7
-0.1285602431056443
% es.Ey (V/m) @ t=0.7
-0.02627773864410443
% es.Ez (V/m) @ t=0.7
0.027649458428786744
% es.tEx (V/m) @ t=0.7
-0.12856024310566028
% es.tEy (V/m) @ t=0.7
0
% es.tEz (V/m) @ t=0.7
0.027649458428770757
% V (V) @ t=0.7
0.030504432645487616
% es.normE (V/m) @ t=0.8
0.14196746317321285
% es.EX (V/m) @ t=0.8
-0.13610258769519135
% es.EY (V/m) @ t=0.8
-0.027819908630423384
% es.EZ (V/m) @ t=0.8
0.029272835638270323
% es.tEX (V/m) @ t=0.8
-0.136102587695202
% es.tEY (V/m) @ t=0.8
0
% es.tEZ (V/m) @ t=0.8
0.029272835638254335
% es.Ex (V/m) @ t=0.8
-0.13610258769519135
% es.Ey (V/m) @ t=0.8
-0.027819908630423384
% es.Ez (V/m) @ t=0.8
0.029272835638270323
% es.tEx (V/m) @ t=0.8
-0.136102587695202
% es.tEy (V/m) @ t=0.8
0
% es.tEz (V/m) @ t=0.8
0.029272835638254335
% V (V) @ t=0.8
0.03229467367813581
% es.normE (V/m) @ t=0.9
0.15001746614067502
% es.EX (V/m) @ t=0.9
-0.14381920293028827
% es.EY (V/m) @ t=0.9
-0.02939846222496101
% es.EZ (V/m) @ t=0.9
0.03093553675908467
% es.tEX (V/m) @ t=0.9
-0.14381920293032735
% es.tEY (V/m) @ t=0.9
0
% es.tEZ (V/m) @ t=0.9
0.030935536759049143
% es.Ex (V/m) @ t=0.9
-0.14381920293028827
% es.Ey (V/m) @ t=0.9
-0.02939846222496101
% es.Ez (V/m) @ t=0.9
0.03093553675908467
% es.tEx (V/m) @ t=0.9
-0.14381920293032735
% es.tEy (V/m) @ t=0.9
0
% es.tEz (V/m) @ t=0.9
0.030935536759049143
% V (V) @ t=0.9
0.034127176616607614
% es.normE (V/m) @ t=1
0.15821598326532949
% es.EX (V/m) @ t=1
-0.1516787386050673
% es.EY (V/m) @ t=1
-0.031005416090380322
% es.EZ (V/m) @ t=1
0.032627010112069144
% es.tEX (V/m) @ t=1
-0.15167873860509573
% es.tEY (V/m) @ t=1
0
% es.tEZ (V/m) @ t=1
0.032627010112033616
% es.Ex (V/m) @ t=1
-0.1516787386050673
% es.Ey (V/m) @ t=1
-0.031005416090380322
% es.Ez (V/m) @ t=1
0.032627010112069144
% es.tEx (V/m) @ t=1
-0.15167873860509573
% es.tEy (V/m) @ t=1
0
% es.tEz (V/m) @ t=1
0.032627010112033616
% V (V) @ t=1
0.03599261997956085
% es.normE (V/m) @ t=1.1
0.16656738500183174
% es.EX (V/m) @ t=1.1
-0.1596852490106393
% es.EY (V/m) @ t=1.1
-0.03264180265295025
% es.EZ (V/m) @ t=1.1
0.034348620268133345
% es.tEX (V/m) @ t=1.1
-0.15968524901067838
% es.tEY (V/m) @ t=1.1
0
% es.tEZ (V/m) @ t=1.1
0.03434862026810137
% es.Ex (V/m) @ t=1.1
-0.1596852490106393
% es.Ey (V/m) @ t=1.1
-0.03264180265295025
% es.Ez (V/m) @ t=1.1
0.034348620268133345
% es.tEx (V/m) @ t=1.1
-0.15968524901067838
% es.tEy (V/m) @ t=1.1
0
% es.tEz (V/m) @ t=1.1
0.03434862026810137
% V (V) @ t=1.1
0.037892209245493455
% es.normE (V/m) @ t=1.2
0.17507866042179554
% es.EX (V/m) @ t=1.2
-0.167845217553932
% es.EY (V/m) @ t=1.2
-0.0343092729138057
% es.EZ (V/m) @ t=1.2
0.03610254937659718
% es.tEX (V/m) @ t=1.2
-0.1678452175539462
% es.tEY (V/m) @ t=1.2
0
% es.tEZ (V/m) @ t=1.2
0.03610254937654389
% es.Ex (V/m) @ t=1.2
-0.167845217553932
% es.Ey (V/m) @ t=1.2
-0.0343092729138057
% es.Ez (V/m) @ t=1.2
0.03610254937659718
% es.tEx (V/m) @ t=1.2
-0.1678452175539462
% es.tEy (V/m) @ t=1.2
0
% es.tEz (V/m) @ t=1.2
0.03610254937654389
% V (V) @ t=1.2
0.0398278721515545
% es.normE (V/m) @ t=1.3
0.18359184524738953
% es.EX (V/m) @ t=1.3
-0.17600734379700356
% es.EY (V/m) @ t=1.3
-0.03597669432928541
% es.EZ (V/m) @ t=1.3
0.03785575301063204
% es.tEX (V/m) @ t=1.3
-0.17600734379701422
% es.tEY (V/m) @ t=1.3
0
% es.tEZ (V/m) @ t=1.3
0.037855753010610727
% es.Ex (V/m) @ t=1.3
-0.17600734379700356
% es.Ey (V/m) @ t=1.3
-0.03597669432928541
% es.Ez (V/m) @ t=1.3
0.03785575301063204
% es.tEx (V/m) @ t=1.3
-0.17600734379701422
% es.tEy (V/m) @ t=1.3
0
% es.tEz (V/m) @ t=1.3
0.037855753010610727
% V (V) @ t=1.3
0.04176346082945204
% es.normE (V/m) @ t=1.4
0.19209955397359463
% es.EX (V/m) @ t=1.4
-0.1841645537539378
% es.EY (V/m) @ t=1.4
-0.03764261131099289
% es.EZ (V/m) @ t=1.4
0.0396066861925668
% es.tEX (V/m) @ t=1.4
-0.18416455375395557
% es.tEY (V/m) @ t=1.4
0
% es.tEZ (V/m) @ t=1.4
0.03960668619252594
% es.Ex (V/m) @ t=1.4
-0.1841645537539378
% es.Ey (V/m) @ t=1.4
-0.03764261131099289
% es.Ez (V/m) @ t=1.4
0.0396066861925668
% es.tEx (V/m) @ t=1.4
-0.18416455375395557
% es.tEy (V/m) @ t=1.4
0
% es.tEz (V/m) @ t=1.4
0.03960668619252594
% V (V) @ t=1.4
0.04369728520137485
% es.normE (V/m) @ t=1.5
0.20064937771796326
% es.EX (V/m) @ t=1.5
-0.19236243081788018
% es.EY (V/m) @ t=1.5
-0.03931640338877429
% es.EZ (V/m) @ t=1.5
0.041365304459333174
% es.tEX (V/m) @ t=1.5
-0.19236243081793347
% es.tEY (V/m) @ t=1.5
0
% es.tEZ (V/m) @ t=1.5
0.04136530445929232
% es.Ex (V/m) @ t=1.5
-0.19236243081788018
% es.Ey (V/m) @ t=1.5
-0.03931640338877429
% es.Ez (V/m) @ t=1.5
0.041365304459333174
% es.tEx (V/m) @ t=1.5
-0.19236243081793347
% es.tEy (V/m) @ t=1.5
0
% es.tEz (V/m) @ t=1.5
0.04136530445929232
% V (V) @ t=1.5
0.04564023580088312
% es.normE (V/m) @ t=1.6
0.20907040667210477
% es.EX (V/m) @ t=1.6
-0.20043620394778472
% es.EY (V/m) @ t=1.6
-0.0409657723124397
% es.EZ (V/m) @ t=1.6
0.04309951962477854
% es.tEX (V/m) @ t=1.6
-0.2004362039478309
% es.tEY (V/m) @ t=1.6
0
% es.tEZ (V/m) @ t=1.6
0.04309951962471459
% es.Ex (V/m) @ t=1.6
-0.20043620394778472
% es.Ey (V/m) @ t=1.6
-0.0409657723124397
% es.Ez (V/m) @ t=1.6
0.04309951962477854
% es.tEx (V/m) @ t=1.6
-0.2004362039478309
% es.tEy (V/m) @ t=1.6
0
% es.tEz (V/m) @ t=1.6
0.04309951962471459
% V (V) @ t=1.6
0.04755486822542762
% es.normE (V/m) @ t=1.7
0.21731783756449372
% es.EX (V/m) @ t=1.7
-0.20834267919991944
% es.EY (V/m) @ t=1.7
-0.04258225124969783
% es.EZ (V/m) @ t=1.7
0.044800919923755345
% es.tEX (V/m) @ t=1.7
-0.20834267919996563
% es.tEY (V/m) @ t=1.7
0
% es.tEZ (V/m) @ t=1.7
0.04480091992369495
% es.Ex (V/m) @ t=1.7
-0.20834267919991944
% es.Ey (V/m) @ t=1.7
-0.04258225124969783
% es.Ez (V/m) @ t=1.7
0.044800919923755345
% es.tEx (V/m) @ t=1.7
-0.20834267919996563
% es.tEy (V/m) @ t=1.7
0
% es.tEz (V/m) @ t=1.7
0.04480091992369495
% V (V) @ t=1.7
0.049431366603225356
% es.normE (V/m) @ t=1.8
0.22546275936704196
% es.EX (V/m) @ t=1.8
-0.2161503921245398
% es.EY (V/m) @ t=1.8
-0.04417927446844061
% es.EZ (V/m) @ t=1.8
0.0464828522495182
% es.tEX (V/m) @ t=1.8
-0.21615039212458242
% es.tEY (V/m) @ t=1.8
0
% es.tEZ (V/m) @ t=1.8
0.046482852249493334
% es.Ex (V/m) @ t=1.8
-0.2161503921245398
% es.Ey (V/m) @ t=1.8
-0.04417927446844061
% es.Ez (V/m) @ t=1.8
0.0464828522495182
% es.tEx (V/m) @ t=1.8
-0.21615039212458242
% es.tEy (V/m) @ t=1.8
0
% es.tEz (V/m) @ t=1.8
0.046482852249493334
% V (V) @ t=1.8
0.051285305714362656
% es.normE (V/m) @ t=1.9
0.23343791052392188
% es.EX (V/m) @ t=1.9
-0.22379512860821293
% es.EY (V/m) @ t=1.9
-0.04574331366776363
% es.EZ (V/m) @ t=1.9
0.04813052810535723
% es.tEX (V/m) @ t=1.9
-0.22379512860827333
% es.tEY (V/m) @ t=1.9
0
% es.tEZ (V/m) @ t=1.9
0.04813052810529683
% es.Ex (V/m) @ t=1.9
-0.22379512860821293
% es.Ey (V/m) @ t=1.9
-0.04574331366776363
% es.Ez (V/m) @ t=1.9
0.04813052810535723
% es.tEx (V/m) @ t=1.9
-0.22379512860827333
% es.tEy (V/m) @ t=1.9
0
% es.tEz (V/m) @ t=1.9
0.04813052810529683
% V (V) @ t=1.9
0.053100966970342646
% es.normE (V/m) @ t=2
0.24117210785857635
% es.EX (V/m) @ t=2
-0.23120893064946557
% es.EY (V/m) @ t=2
-0.047260051803419856
% es.EZ (V/m) @ t=2
0.049728296777765024
% es.tEX (V/m) @ t=2
-0.23120893064947268
% es.tEY (V/m) @ t=2
0
% es.tEZ (V/m) @ t=2
0.049728296777715286
% es.Ex (V/m) @ t=2
-0.23120893064946557
% es.Ey (V/m) @ t=2
-0.047260051803419856
% es.Ez (V/m) @ t=2
0.049728296777765024
% es.tEx (V/m) @ t=2
-0.23120893064947268
% es.tEy (V/m) @ t=2
0
% es.tEz (V/m) @ t=2
0.049728296777715286
% V (V) @ t=2
0.054861715338608
% es.normE (V/m) @ t=2.1
0.24866804109408888
% es.EX (V/m) @ t=2.1
-0.2383943661184169
% es.EY (V/m) @ t=2.1
-0.048730029860756474
% es.EZ (V/m) @ t=2.1
0.051276749646788744
% es.tEX (V/m) @ t=2.1
-0.2383943661184773
% es.tEY (V/m) @ t=2.1
0
% es.tEZ (V/m) @ t=2.1
0.05127674964673545
% es.Ex (V/m) @ t=2.1
-0.2383943661184169
% es.Ey (V/m) @ t=2.1
-0.048730029860756474
% es.Ez (V/m) @ t=2.1
0.051276749646788744
% es.tEx (V/m) @ t=2.1
-0.2383943661184773
% es.tEy (V/m) @ t=2.1
0
% es.tEz (V/m) @ t=2.1
0.05127674964673545
% V (V) @ t=2.1
0.05656817939276928
% es.normE (V/m) @ t=2.2
0.25589643473149243
% es.EX (V/m) @ t=2.2
-0.24532348596658693
% es.EY (V/m) @ t=2.2
-0.05014735967778705
% es.EZ (V/m) @ t=2.2
0.05276945005244471
% es.tEX (V/m) @ t=2.2
-0.24532348596665088
% es.tEY (V/m) @ t=2.2
0
% es.tEZ (V/m) @ t=2.2
0.052769450052409184
% es.Ex (V/m) @ t=2.2
-0.24532348596658693
% es.Ey (V/m) @ t=2.2
-0.05014735967778705
% es.Ez (V/m) @ t=2.2
0.05276945005244471
% es.tEx (V/m) @ t=2.2
-0.24532348596665088
% es.tEy (V/m) @ t=2.2
0
% es.tEz (V/m) @ t=2.2
0.052769450052409184
% V (V) @ t=2.2
0.05821351765250381
% es.normE (V/m) @ t=2.3
0.2628280132606495
% es.EX (V/m) @ t=2.3
-0.25196834114540323
% es.EY (V/m) @ t=2.3
-0.05150615309152329
% es.EZ (V/m) @ t=2.3
0.054199961334731483
% es.tEX (V/m) @ t=2.3
-0.2519683411454636
% es.tEY (V/m) @ t=2.3
0
% es.tEZ (V/m) @ t=2.3
0.054199961334695956
% es.Ex (V/m) @ t=2.3
-0.25196834114540323
% es.Ey (V/m) @ t=2.3
-0.05150615309152329
% es.Ez (V/m) @ t=2.3
0.054199961334731483
% es.tEx (V/m) @ t=2.3
-0.2519683411454636
% es.tEy (V/m) @ t=2.3
0
% es.tEz (V/m) @ t=2.3
0.054199961334695956
% V (V) @ t=2.3
0.059790888637488965
% es.normE (V/m) @ t=2.4
0.26943350117640047
% es.EX (V/m) @ t=2.4
-0.25830098260657763
% es.EY (V/m) @ t=2.4
-0.052800521939317946
% es.EZ (V/m) @ t=2.4
0.05556184683382526
% es.tEX (V/m) @ t=2.4
-0.2583009826066416
% es.tEY (V/m) @ t=2.4
0
% es.tEZ (V/m) @ t=2.4
0.05556184683377907
% es.Ex (V/m) @ t=2.4
-0.25830098260657763
% es.Ey (V/m) @ t=2.4
-0.052800521939317946
% es.Ez (V/m) @ t=2.4
0.05556184683382526
% es.tEx (V/m) @ t=2.4
-0.2583009826066416
% es.tEy (V/m) @ t=2.4
0
% es.tEz (V/m) @ t=2.4
0.05556184683377907
% V (V) @ t=2.4
0.06129345086740207
% es.normE (V/m) @ t=2.5
0.2757613449241244
% es.EX (V/m) @ t=2.5
-0.2643676154565071
% es.EY (V/m) @ t=2.5
-0.054040269892006165
% es.EZ (V/m) @ t=2.5
0.056865916700616026
% es.tEX (V/m) @ t=2.5
-0.26436761545654264
% es.tEY (V/m) @ t=2.5
0
% es.tEZ (V/m) @ t=2.5
0.05686591670056629
% es.Ex (V/m) @ t=2.5
-0.2643676154565071
% es.Ey (V/m) @ t=2.5
-0.054040269892006165
% es.Ez (V/m) @ t=2.5
0.056865916700616026
% es.tEx (V/m) @ t=2.5
-0.26436761545654264
% es.tEy (V/m) @ t=2.5
0
% es.tEz (V/m) @ t=2.5
0.05686591670056629
% V (V) @ t=2.5
0.06273259767176263
% es.normE (V/m) @ t=2.6
0.28188312422977646
% es.EX (V/m) @ t=2.6
-0.2702365161653475
% es.EY (V/m) @ t=2.6
-0.05523987116423257
% es.EZ (V/m) @ t=2.6
0.058128114455179514
% es.tEX (V/m) @ t=2.6
-0.2702365161653688
% es.tEY (V/m) @ t=2.6
0
% es.tEZ (V/m) @ t=2.6
0.05812811445512622
% es.Ex (V/m) @ t=2.6
-0.2702365161653475
% es.Ey (V/m) @ t=2.6
-0.05523987116423257
% es.Ez (V/m) @ t=2.6
0.058128114455179514
% es.tEx (V/m) @ t=2.6
-0.2702365161653688
% es.tEy (V/m) @ t=2.6
0
% es.tEz (V/m) @ t=2.6
0.05812811445512622
% V (V) @ t=2.6
0.0641251498186248
% es.normE (V/m) @ t=2.7
0.28770567757957094
% es.EX (V/m) @ t=2.7
-0.2758187823034888
% es.EY (V/m) @ t=2.7
-0.056380539187919965
% es.EZ (V/m) @ t=2.7
0.05932782686918614
% es.tEX (V/m) @ t=2.7
-0.275818782303503
% es.tEY (V/m) @ t=2.7
0
% es.tEZ (V/m) @ t=2.7
0.059327826869139955
% es.Ex (V/m) @ t=2.7
-0.2758187823034888
% es.Ey (V/m) @ t=2.7
-0.056380539187919965
% es.Ez (V/m) @ t=2.7
0.05932782686918614
% es.tEx (V/m) @ t=2.7
-0.275818782303503
% es.tEy (V/m) @ t=2.7
0
% es.tEz (V/m) @ t=2.7
0.059327826869139955
% V (V) @ t=2.7
0.06544927714206987
% es.normE (V/m) @ t=2.8
0.29321726420810873
% es.EX (V/m) @ t=2.8
-0.2811031946138911
% es.EY (V/m) @ t=2.8
-0.057459926008256446
% es.EZ (V/m) @ t=2.8
0.06046250830620892
% es.tEX (V/m) @ t=2.8
-0.28110319461393374
% es.tEY (V/m) @ t=2.8
0
% es.tEZ (V/m) @ t=2.8
0.060462508306180496
% es.Ex (V/m) @ t=2.8
-0.2811031946138911
% es.Ey (V/m) @ t=2.8
-0.057459926008256446
% es.Ez (V/m) @ t=2.8
0.06046250830620892
% es.tEx (V/m) @ t=2.8
-0.28110319461393374
% es.tEy (V/m) @ t=2.8
0
% es.tEz (V/m) @ t=2.8
0.060462508306180496
% V (V) @ t=2.8
0.0667022520859123
% es.normE (V/m) @ t=2.9
0.29840614336251764
% es.EX (V/m) @ t=2.9
-0.28607853383977755
% es.EY (V/m) @ t=2.9
-0.058475683670266676
% es.EZ (V/m) @ t=2.9
0.06152961312952954
% es.tEX (V/m) @ t=2.9
-0.28607853383979887
% es.tEY (V/m) @ t=2.9
0
% es.tEZ (V/m) @ t=2.9
0.06152961312948335
% es.Ex (V/m) @ t=2.9
-0.28607853383977755
% es.Ey (V/m) @ t=2.9
-0.058475683670266676
% es.Ez (V/m) @ t=2.9
0.06152961312952954
% es.tEx (V/m) @ t=2.9
-0.28607853383979887
% es.tEy (V/m) @ t=2.9
0
% es.tEz (V/m) @ t=2.9
0.06152961312948335
% V (V) @ t=2.9
0.06788134709396654
% es.normE (V/m) @ t=3
0.30326057430599246
% es.EX (V/m) @ t=3
-0.29073358072398037
% es.EY (V/m) @ t=3
-0.059425464218968216
% es.EZ (V/m) @ t=3
0.06252659570273522
% es.tEX (V/m) @ t=3
-0.2907335807240443
% es.tEY (V/m) @ t=3
0
% es.tEZ (V/m) @ t=3
0.06252659570265351
% es.Ex (V/m) @ t=3
-0.29073358072398037
% es.Ey (V/m) @ t=3
-0.059425464218968216
% es.Ez (V/m) @ t=3
0.06252659570273522
% es.tEx (V/m) @ t=3
-0.2907335807240443
% es.tEy (V/m) @ t=3
0
% es.tEz (V/m) @ t=3
0.06252659570265351
% V (V) @ t=3
0.06898383461004717
% es.normE (V/m) @ t=3.1
0.30785588275212145
% es.EX (V/m) @ t=3.1
-0.2951401028765517
% es.EY (V/m) @ t=3.1
-0.06032460608683721
% es.EZ (V/m) @ t=3.1
0.06347051378060797
% es.tEX (V/m) @ t=3.1
-0.29514010287663694
% es.tEY (V/m) @ t=3.1
0
% es.tEZ (V/m) @ t=3.1
0.06347051378054402
% es.Ex (V/m) @ t=3.1
-0.2951401028765517
% es.Ey (V/m) @ t=3.1
-0.06032460608683721
% es.Ez (V/m) @ t=3.1
0.06347051378060797
% es.tEx (V/m) @ t=3.1
-0.29514010287663694
% es.tEy (V/m) @ t=3.1
0
% es.tEz (V/m) @ t=3.1
0.06347051378054402
% V (V) @ t=3.1
0.07002754389715558
% es.normE (V/m) @ t=3.2
0.31242162661445666
% es.EX (V/m) @ t=3.2
-0.29951687351162803
% es.EY (V/m) @ t=3.2
-0.06121977794133926
% es.EZ (V/m) @ t=3.2
0.06441315119644031
% es.tEX (V/m) @ t=3.2
-0.29951687351167067
% es.tEY (V/m) @ t=3.2
0
% es.tEZ (V/m) @ t=3.2
0.06441315119636926
% es.Ex (V/m) @ t=3.2
-0.29951687351162803
% es.Ey (V/m) @ t=3.2
-0.06121977794133926
% es.Ez (V/m) @ t=3.2
0.06441315119644031
% es.tEx (V/m) @ t=3.2
-0.29951687351167067
% es.tEy (V/m) @ t=3.2
0
% es.tEz (V/m) @ t=3.2
0.06441315119636926
% V (V) @ t=3.2
0.0710667192288338
% es.normE (V/m) @ t=3.3
0.3167919123151864
% es.EX (V/m) @ t=3.3
-0.3037057435152093
% es.EY (V/m) @ t=3.3
-0.06207731773591263
% es.EZ (V/m) @ t=3.3
0.06531725412860823
% es.tEX (V/m) @ t=3.3
-0.30370574351526614
% es.tEY (V/m) @ t=3.3
0
% es.tEZ (V/m) @ t=3.3
0.06531725412855849
% es.Ex (V/m) @ t=3.3
-0.3037057435152093
% es.Ey (V/m) @ t=3.3
-0.06207731773591263
% es.Ez (V/m) @ t=3.3
0.06531725412860823
% es.tEx (V/m) @ t=3.3
-0.30370574351526614
% es.tEy (V/m) @ t=3.3
0
% es.tEz (V/m) @ t=3.3
0.06531725412855849
% V (V) @ t=3.3
0.07206223680188414
% es.normE (V/m) @ t=3.4
0.3209784767769192
% es.EX (V/m) @ t=3.4
-0.307717871186874
% es.EY (V/m) @ t=3.4
-0.06289964668121684
% es.EZ (V/m) @ t=3.4
0.06618556303022416
% es.tEX (V/m) @ t=3.4
-0.3077178711869166
% es.tEY (V/m) @ t=3.4
0
% es.tEZ (V/m) @ t=3.4
0.06618556303010337
% es.Ex (V/m) @ t=3.4
-0.307717871186874
% es.Ey (V/m) @ t=3.4
-0.06289964668121684
% es.Ez (V/m) @ t=3.4
0.06618556303022416
% es.tEx (V/m) @ t=3.4
-0.3077178711869166
% es.tEy (V/m) @ t=3.4
0
% es.tEz (V/m) @ t=3.4
0.06618556303010337
% V (V) @ t=3.4
0.07301691224300648
% es.normE (V/m) @ t=3.5
0.32499305698819914
% es.EX (V/m) @ t=3.5
-0.3115644148260017
% es.EY (V/m) @ t=3.5
-0.06368918598818141
% es.EZ (V/m) @ t=3.5
0.06702081835391738
% es.tEX (V/m) @ t=3.5
-0.31156441482604436
% es.tEY (V/m) @ t=3.5
0
% es.tEZ (V/m) @ t=3.5
0.067020818353825
% es.Ex (V/m) @ t=3.5
-0.3115644148260017
% es.Ey (V/m) @ t=3.5
-0.06368918598818141
% es.Ez (V/m) @ t=3.5
0.06702081835391738
% es.tEx (V/m) @ t=3.5
-0.31156441482604436
% es.tEy (V/m) @ t=3.5
0
% es.tEz (V/m) @ t=3.5
0.067020818353825
% V (V) @ t=3.5
0.07393356117890072
% es.normE (V/m) @ t=3.6
0.32884739002726554
% es.EX (V/m) @ t=3.6
-0.3152565327319934
% es.EY (V/m) @ t=3.6
-0.06444835686811246
% es.EZ (V/m) @ t=3.6
0.06782576055265821
% es.tEX (V/m) @ t=3.6
-0.315256532732036
% es.tEY (V/m) @ t=3.6
0
% es.tEZ (V/m) @ t=3.6
0.06782576055262268
% es.Ex (V/m) @ t=3.6
-0.3152565327319934
% es.Ey (V/m) @ t=3.6
-0.06444835686811246
% es.Ez (V/m) @ t=3.6
0.06782576055265821
% es.tEx (V/m) @ t=3.6
-0.315256532732036
% es.tEy (V/m) @ t=3.6
0
% es.tEz (V/m) @ t=3.6
0.06782576055262268
% V (V) @ t=3.6
0.0748149992362667
% es.normE (V/m) @ t=3.7
0.3325646897213607
% es.EX (V/m) @ t=3.7
-0.3188167827923465
% es.EY (V/m) @ t=3.7
-0.06518131578377506
% es.EZ (V/m) @ t=3.7
0.06860413932189857
% es.tEX (V/m) @ t=3.7
-0.31881678279240333
% es.tEY (V/m) @ t=3.7
0
% es.tEZ (V/m) @ t=3.7
0.06860413932184883
% es.Ex (V/m) @ t=3.7
-0.3188167827923465
% es.Ey (V/m) @ t=3.7
-0.06518131578377506
% es.Ez (V/m) @ t=3.7
0.06860413932189857
% es.tEx (V/m) @ t=3.7
-0.31881678279240333
% es.tEy (V/m) @ t=3.7
0
% es.tEz (V/m) @ t=3.7
0.06860413932184883
% V (V) @ t=3.7
0.075666035369446
% es.normE (V/m) @ t=3.8
0.33624614449950607
% es.EX (V/m) @ t=3.8
-0.3223451744019954
% es.EY (V/m) @ t=3.8
-0.06590400891841597
% es.EZ (V/m) @ t=3.8
0.06936656138955755
% es.tEX (V/m) @ t=3.8
-0.322345174402038
% es.tEY (V/m) @ t=3.8
0
% es.tEZ (V/m) @ t=3.8
0.06936656138950781
% es.Ex (V/m) @ t=3.8
-0.3223451744019954
% es.Ey (V/m) @ t=3.8
-0.06590400891841597
% es.Ez (V/m) @ t=3.8
0.06936656138955755
% es.tEx (V/m) @ t=3.8
-0.322345174402038
% es.tEy (V/m) @ t=3.8
0
% es.tEz (V/m) @ t=3.8
0.06936656138950781
% V (V) @ t=3.8
0.07650502167410146
% es.normE (V/m) @ t=3.9
0.33985152040300254
% es.EX (V/m) @ t=3.9
-0.3258012441838076
% es.EY (V/m) @ t=3.9
-0.06661099959712402
% es.EZ (V/m) @ t=3.9
0.07011119697443036
% es.tEX (V/m) @ t=3.9
-0.32580124418385736
% es.tEY (V/m) @ t=3.9
0
% es.tEZ (V/m) @ t=3.9
0.07011119697437707
% es.Ex (V/m) @ t=3.9
-0.3258012441838076
% es.Ey (V/m) @ t=3.9
-0.06661099959712402
% es.Ez (V/m) @ t=3.9
0.07011119697443036
% es.tEx (V/m) @ t=3.9
-0.32580124418385736
% es.tEy (V/m) @ t=3.9
0
% es.tEz (V/m) @ t=3.9
0.07011119697437707
% V (V) @ t=3.9
0.07732574723011396
% es.normE (V/m) @ t=4
0.34339928312241225
% es.EX (V/m) @ t=4
-0.32920283408128626
% es.EY (V/m) @ t=4
-0.06730572641999544
% es.EZ (V/m) @ t=4
0.07084137825390258
% es.tEX (V/m) @ t=4
-0.3292028340813289
% es.tEY (V/m) @ t=4
0
% es.tEZ (V/m) @ t=4
0.0708413782538706
% es.Ex (V/m) @ t=4
-0.32920283408128626
% es.Ey (V/m) @ t=4
-0.06730572641999544
% es.Ez (V/m) @ t=4
0.07084137825390258
% es.tEx (V/m) @ t=4
-0.3292028340813289
% es.tEy (V/m) @ t=4
0
% es.tEz (V/m) @ t=4
0.0708413782538706
% V (V) @ t=4
0.07813219636361671
% es.normE (V/m) @ t=4.1
0.3469078984223258
% es.EX (V/m) @ t=4.1
-0.33256778603752934
% es.EY (V/m) @ t=4.1
-0.06799162798610325
% es.EZ (V/m) @ t=4.1
0.07156043740566531
% es.tEX (V/m) @ t=4.1
-0.33256778603755777
% es.tEY (V/m) @ t=4.1
0
% es.tEZ (V/m) @ t=4.1
0.07156043740562268
% es.Ex (V/m) @ t=4.1
-0.33256778603752934
% es.Ey (V/m) @ t=4.1
-0.06799162798610325
% es.Ez (V/m) @ t=4.1
0.07156043740566531
% es.tEx (V/m) @ t=4.1
-0.33256778603755777
% es.tEy (V/m) @ t=4.1
0
% es.tEz (V/m) @ t=4.1
0.07156043740562268
% V (V) @ t=4.1
0.07892835340074304
% es.normE (V/m) @ t=4.2
0.35039583218524606
% es.EX (V/m) @ t=4.2
-0.33591394199576285
% es.EY (V/m) @ t=4.2
-0.06867214289483314
% es.EZ (V/m) @ t=4.2
0.07227170660701177
% es.tEX (V/m) @ t=4.2
-0.3359139419957984
% es.tEY (V/m) @ t=4.2
0
% es.tEZ (V/m) @ t=4.2
0.0722717066069265
% es.Ex (V/m) @ t=4.2
-0.33591394199576285
% es.Ey (V/m) @ t=4.2
-0.06867214289483314
% es.Ez (V/m) @ t=4.2
0.07227170660701177
% es.tEx (V/m) @ t=4.2
-0.3359139419957984
% es.tEy (V/m) @ t=4.2
0
% es.tEz (V/m) @ t=4.2
0.0722717066069265
% V (V) @ t=4.2
0.07971820266762619
% es.normE (V/m) @ t=4.3
0.3538815504602936
% es.EX (V/m) @ t=4.3
-0.3392591438992909
% es.EY (V/m) @ t=4.3
-0.06935070974577684
% es.EZ (V/m) @ t=4.3
0.07297851803550515
% es.tEX (V/m) @ t=4.3
-0.33925914389932643
% es.tEY (V/m) @ t=4.3
0
% es.tEZ (V/m) @ t=4.3
0.07297851803543765
% es.Ex (V/m) @ t=4.3
-0.3392591438992909
% es.Ey (V/m) @ t=4.3
-0.06935070974577684
% es.Ez (V/m) @ t=4.3
0.07297851803550515
% es.tEx (V/m) @ t=4.3
-0.33925914389932643
% es.tEy (V/m) @ t=4.3
0
% es.tEz (V/m) @ t=4.3
0.07297851803543765
% V (V) @ t=4.3
0.08050572849039947
% es.normE (V/m) @ t=4.4
0.35718710722291475
% es.EX (V/m) @ t=4.4
-0.3424293864493819
% es.EY (V/m) @ t=4.4
-0.06999687141031075
% es.EZ (V/m) @ t=4.4
0.07365584060305252
% es.tEX (V/m) @ t=4.4
-0.34242938644941745
% es.tEY (V/m) @ t=4.4
0
% es.tEZ (V/m) @ t=4.4
0.0736558406030241
% es.Ex (V/m) @ t=4.4
-0.3424293864493819
% es.Ey (V/m) @ t=4.4
-0.06999687141031075
% es.Ez (V/m) @ t=4.4
0.07365584060305252
% es.tEx (V/m) @ t=4.4
-0.34242938644941745
% es.tEy (V/m) @ t=4.4
0
% es.tEz (V/m) @ t=4.4
0.0736558406030241
% V (V) @ t=4.4
0.08125575546541465
% es.normE (V/m) @ t=4.5
0.3604353233212138
% es.EX (V/m) @ t=4.5
-0.3455444417072471
% es.EY (V/m) @ t=4.5
-0.07063207558472584
% es.EZ (V/m) @ t=4.5
0.07432207613817354
% es.tEX (V/m) @ t=4.5
-0.34554444170731813
% es.tEY (V/m) @ t=4.5
0
% es.tEZ (V/m) @ t=4.5
0.07432207613812025
% es.Ex (V/m) @ t=4.5
-0.3455444417072471
% es.Ey (V/m) @ t=4.5
-0.07063207558472584
% es.Ez (V/m) @ t=4.5
0.07432207613817354
% es.tEx (V/m) @ t=4.5
-0.34554444170731813
% es.tEy (V/m) @ t=4.5
0
% es.tEz (V/m) @ t=4.5
0.07432207613812025
% V (V) @ t=4.5
0.08199307382583713
% es.normE (V/m) @ t=4.6
0.3636341461198415
% es.EX (V/m) @ t=4.6
-0.34861187770965074
% es.EY (V/m) @ t=4.6
-0.07125794566636046
% es.EZ (V/m) @ t=4.6
0.07497903789371918
% es.tEX (V/m) @ t=4.6
-0.3486118777097218
% es.tEY (V/m) @ t=4.6
0
% es.tEZ (V/m) @ t=4.6
0.0749790378936055
% es.Ex (V/m) @ t=4.6
-0.34861187770965074
% es.Ey (V/m) @ t=4.6
-0.07125794566636046
% es.Ez (V/m) @ t=4.6
0.07497903789371918
% es.tEx (V/m) @ t=4.6
-0.3486118777097218
% es.tEy (V/m) @ t=4.6
0
% es.tEz (V/m) @ t=4.6
0.0749790378936055
% V (V) @ t=4.6
0.08271957079487634
% es.normE (V/m) @ t=4.7
0.3667894264950739
% es.EX (V/m) @ t=4.7
-0.3516372147304949
% es.EY (V/m) @ t=4.7
-0.07187574325185153
% es.EZ (V/m) @ t=4.7
0.07562823637477578
% es.tEX (V/m) @ t=4.7
-0.35163721473055887
% es.tEY (V/m) @ t=4.7
0
% es.tEZ (V/m) @ t=4.7
0.07562823637471183
% es.Ex (V/m) @ t=4.7
-0.3516372147304949
% es.Ey (V/m) @ t=4.7
-0.07187574325185153
% es.Ez (V/m) @ t=4.7
0.07562823637477578
% es.tEx (V/m) @ t=4.7
-0.35163721473055887
% es.tEy (V/m) @ t=4.7
0
% es.tEz (V/m) @ t=4.7
0.07562823637471183
% V (V) @ t=4.7
0.08343671560785462
% es.normE (V/m) @ t=4.8
0.36990701533138204
% es.EX (V/m) @ t=4.8
-0.3546259730438379
% es.EY (V/m) @ t=4.8
-0.07248672993819127
% es.EZ (V/m) @ t=4.8
0.07627118208701233
% es.tEX (V/m) @ t=4.8
-0.35462597304390187
% es.tEY (V/m) @ t=4.8
0
% es.tEZ (V/m) @ t=4.8
0.07627118208696615
% es.Ex (V/m) @ t=4.8
-0.3546259730438379
% es.Ey (V/m) @ t=4.8
-0.07248672993819127
% es.Ez (V/m) @ t=4.8
0.07627118208701233
% es.tEx (V/m) @ t=4.8
-0.35462597304390187
% es.tEy (V/m) @ t=4.8
0
% es.tEz (V/m) @ t=4.8
0.07627118208696615
% V (V) @ t=4.8
0.08414597750009452
% es.normE (V/m) @ t=4.9
0.37299276353439353
% es.EX (V/m) @ t=4.9
-0.35758367292385884
% es.EY (V/m) @ t=4.9
-0.0730921673221161
% es.EZ (V/m) @ t=4.9
0.07690938553559334
% es.tEX (V/m) @ t=4.9
-0.3575836729239299
% es.tEY (V/m) @ t=4.9
0
% es.tEZ (V/m) @ t=4.9
0.07690938553552229
% es.Ex (V/m) @ t=4.9
-0.35758367292385884
% es.Ey (V/m) @ t=4.9
-0.0730921673221161
% es.Ez (V/m) @ t=4.9
0.07690938553559334
% es.tEx (V/m) @ t=4.9
-0.3575836729239299
% es.tEy (V/m) @ t=4.9
0
% es.tEz (V/m) @ t=4.9
0.07690938553552229
% V (V) @ t=4.9
0.08484882570691843
% es.normE (V/m) @ t=5
0.3758558724156557
% es.EX (V/m) @ t=5
-0.36032862812097477
% es.EY (V/m) @ t=5
-0.0736530737422072
% es.EZ (V/m) @ t=5
0.07749929879756934
% es.tEX (V/m) @ t=5
-0.3603286281210032
% es.tEY (V/m) @ t=5
0
% es.tEZ (V/m) @ t=5
0.07749929879750184
% es.Ex (V/m) @ t=5
-0.36032862812097477
% es.Ey (V/m) @ t=5
-0.0736530737422072
% es.Ez (V/m) @ t=5
0.07749929879756934
% es.tEx (V/m) @ t=5
-0.3603286281210032
% es.tEy (V/m) @ t=5
0
% es.tEz (V/m) @ t=5
0.07749929879750184
% V (V) @ t=5
0.08549994341595715
% es.normE (V/m) @ t=5.1
0.37856299101288504
% es.EX (V/m) @ t=5.1
-0.3629242375303221
% es.EY (V/m) @ t=5.1
-0.07418315279873866
% es.EZ (V/m) @ t=5.1
0.0780563630878035
% es.tEX (V/m) @ t=5.1
-0.36292423753040026
% es.tEY (V/m) @ t=5.1
0
% es.tEZ (V/m) @ t=5.1
0.07805636308773245
% es.Ex (V/m) @ t=5.1
-0.3629242375303221
% es.Ey (V/m) @ t=5.1
-0.07418315279873866
% es.Ez (V/m) @ t=5.1
0.0780563630878035
% es.tEx (V/m) @ t=5.1
-0.36292423753040026
% es.tEy (V/m) @ t=5.1
0
% es.tEz (V/m) @ t=5.1
0.07805636308773245
% V (V) @ t=5.1
0.08611526469992173
% es.normE (V/m) @ t=5.2
0.38113386426775986
% es.EX (V/m) @ t=5.2
-0.3653892482733099
% es.EY (V/m) @ t=5.2
-0.07468650942695376
% es.EZ (V/m) @ t=5.2
0.07858527245965519
% es.tEX (V/m) @ t=5.2
-0.36538924827339514
% es.tEY (V/m) @ t=5.2
0
% es.tEZ (V/m) @ t=5.2
0.078585272459609