% Model:              1x1--2 - Copy1.mph
% Version:            COMSOL 6.0.0.405
% Date:               Mar 2 2023, 11:59
% Dimension:          0
% Nodes:              14017
% Expressions:        14017
% Description:        Electric field norm, Electric field, X component, Electric field, Y component, Electric field, Z component, Tangential electric field, X component, Tangential electric field, Y component, Tangential electric field, Z component, Electric field, x component, Electric field, y component, Electric field, z component, Tangential electric field, x component, Tangential electric field, y component, Tangential electric field, z component, Electric potential
% Length unit:        mm
% x
1.33
% y
14.200000000000001
% z
1.66
% es.normE (V/m) @ t=0
0.04262874314764369
% es.EX (V/m) @ t=0
0.026006673545329484
% es.EY (V/m) @ t=0
0.020036019781978
% es.EZ (V/m) @ t=0
-0.027192289067870412
% es.tEX (V/m) @ t=0
0.026006673545337478
% es.tEY (V/m) @ t=0
0
% es.tEZ (V/m) @ t=0
-0.027192289067856645
% es.Ex (V/m) @ t=0
0.026006673545329484
% es.Ey (V/m) @ t=0
0.020036019781978
% es.Ez (V/m) @ t=0
-0.027192289067870412
% es.tEx (V/m) @ t=0
0.026006673545337478
% es.tEy (V/m) @ t=0
0
% es.tEz (V/m) @ t=0
-0.027192289067856645
% V (V) @ t=0
0.0198837499816788
% es.normE (V/m) @ t=0.1
0.045091349433428345
% es.EX (V/m) @ t=0.1
0.0275089628755385
% es.EY (V/m) @ t=0.1
0.021193491642272022
% es.EZ (V/m) @ t=0.1
-0.028763217261786433
% es.tEX (V/m) @ t=0.1
0.027508962875546494
% es.tEY (V/m) @ t=0.1
0
% es.tEZ (V/m) @ t=0.1
-0.02876321726177622
% es.Ex (V/m) @ t=0.1
0.0275089628755385
% es.Ey (V/m) @ t=0.1
0.021193491642272022
% es.Ez (V/m) @ t=0.1
-0.028763217261786433
% es.tEx (V/m) @ t=0.1
0.027508962875546494
% es.tEy (V/m) @ t=0.1
0
% es.tEz (V/m) @ t=0.1
-0.02876321726177622
% V (V) @ t=0.1
0.02103241268542597
% es.normE (V/m) @ t=0.2
0.04818711988602029
% es.EX (V/m) @ t=0.2
0.02939926024582462
% es.EY (V/m) @ t=0.2
0.022648337250219974
% es.EZ (V/m) @ t=0.2
-0.030736539162831367
% es.tEX (V/m) @ t=0.2
0.029399260245836167
% es.tEY (V/m) @ t=0.2
0
% es.tEZ (V/m) @ t=0.2
-0.03073653916282515
% es.Ex (V/m) @ t=0.2
0.02939926024582462
% es.Ey (V/m) @ t=0.2
0.022648337250219974
% es.Ez (V/m) @ t=0.2
-0.030736539162831367
% es.tEx (V/m) @ t=0.2
0.029399260245836167
% es.tEy (V/m) @ t=0.2
0
% es.tEz (V/m) @ t=0.2
-0.03073653916282515
% V (V) @ t=0.2
0.022476591874879902
% es.normE (V/m) @ t=0.3
0.05140789160994625
% es.EX (V/m) @ t=0.3
0.031367542419294736
% es.EY (V/m) @ t=0.3
0.02416171570079495
% es.EZ (V/m) @ t=0.3
-0.03278810907551222
% es.tEX (V/m) @ t=0.3
0.03136754241930628
% es.tEY (V/m) @ t=0.3
0
% es.tEZ (V/m) @ t=0.3
-0.03278810907550689
% es.Ex (V/m) @ t=0.3
0.031367542419294736
% es.Ey (V/m) @ t=0.3
0.02416171570079495
% es.Ez (V/m) @ t=0.3
-0.03278810907551222
% es.tEx (V/m) @ t=0.3
0.03136754241930628
% es.tEy (V/m) @ t=0.3
0
% es.tEz (V/m) @ t=0.3
-0.03278810907550689
% V (V) @ t=0.3
0.02397926155202286
% es.normE (V/m) @ t=0.4
0.05484614947376979
% es.EX (V/m) @ t=0.4
0.03346429953375374
% es.EY (V/m) @ t=0.4
0.025777851376282968
% es.EZ (V/m) @ t=0.4
-0.0349820403526806
% es.tEX (V/m) @ t=0.4
0.03346429953376262
% es.tEY (V/m) @ t=0.4
0
% es.tEZ (V/m) @ t=0.4
-0.03498204035267616
% es.Ex (V/m) @ t=0.4
0.03346429953375374
% es.Ey (V/m) @ t=0.4
0.025777851376282968
% es.Ez (V/m) @ t=0.4
-0.0349820403526806
% es.tEx (V/m) @ t=0.4
0.03346429953376262
% es.tEy (V/m) @ t=0.4
0
% es.tEz (V/m) @ t=0.4
-0.03498204035267616
% V (V) @ t=0.4
0.02558292715986519
% es.normE (V/m) @ t=0.5
0.05838913672310061
% es.EX (V/m) @ t=0.5
0.035623308143391874
% es.EY (V/m) @ t=0.5
0.0274434201771534
% es.EZ (V/m) @ t=0.5
-0.03724419274423996
% es.tEX (V/m) @ t=0.5
0.035623308143400756
% es.tEY (V/m) @ t=0.5
0
% es.tEZ (V/m) @ t=0.5
-0.037244192744221305
% es.Ex (V/m) @ t=0.5
0.035623308143391874
% es.Ey (V/m) @ t=0.5
0.0274434201771534
% es.Ez (V/m) @ t=0.5
-0.03724419274423996
% es.tEx (V/m) @ t=0.5
0.035623308143400756
% es.tEy (V/m) @ t=0.5
0
% es.tEz (V/m) @ t=0.5
-0.037244192744221305
% V (V) @ t=0.5
0.027235267854032602
% es.normE (V/m) @ t=0.6
0.062060174562605375
% es.EX (V/m) @ t=0.6
0.03785849489679727
% es.EY (V/m) @ t=0.6
0.029169421476721524
% es.EZ (V/m) @ t=0.6
-0.03958970171147547
% es.tEX (V/m) @ t=0.6
0.03785849489681237
% es.tEY (V/m) @ t=0.6
0
% es.tEZ (V/m) @ t=0.6
-0.0395897017114657
% es.Ex (V/m) @ t=0.6
0.03785849489679727
% es.Ey (V/m) @ t=0.6
0.029169421476721524
% es.Ez (V/m) @ t=0.6
-0.03958970171147547
% es.tEx (V/m) @ t=0.6
0.03785849489681237
% es.tEy (V/m) @ t=0.6
0
% es.tEz (V/m) @ t=0.6
-0.0395897017114657
% V (V) @ t=0.6
0.028947129344172602
% es.normE (V/m) @ t=0.7
0.06583059524589009
% es.EX (V/m) @ t=0.7
0.04015773295726355
% es.EY (V/m) @ t=0.7
0.030941698848769406
% es.EZ (V/m) @ t=0.7
-0.04199565485277468
% es.tEX (V/m) @ t=0.7
0.04015773295728664
% es.tEY (V/m) @ t=0.7
0
% es.tEZ (V/m) @ t=0.7
-0.041995654852756914
% es.Ex (V/m) @ t=0.7
0.04015773295726355
% es.Ey (V/m) @ t=0.7
0.030941698848769406
% es.Ez (V/m) @ t=0.7
-0.04199565485277468
% es.tEx (V/m) @ t=0.7
0.04015773295728664
% es.tEy (V/m) @ t=0.7
0
% es.tEz (V/m) @ t=0.7
-0.041995654852756914
% V (V) @ t=0.7
0.030705712634413514
% es.normE (V/m) @ t=0.8
0.06970029435548274
% es.EX (V/m) @ t=0.8
0.042520955196254206
% es.EY (V/m) @ t=0.8
0.03276020379385791
% es.EZ (V/m) @ t=0.8
-0.04446198881993446
% es.tEX (V/m) @ t=0.8
0.04252095519626309
% es.tEY (V/m) @ t=0.8
0
% es.tEZ (V/m) @ t=0.8
-0.04446198881992469
% es.Ex (V/m) @ t=0.8
0.042520955196254206
% es.Ey (V/m) @ t=0.8
0.03276020379385791
% es.Ez (V/m) @ t=0.8
-0.04446198881993446
% es.tEx (V/m) @ t=0.8
0.04252095519626309
% es.tEy (V/m) @ t=0.8
0
% es.tEz (V/m) @ t=0.8
-0.04446198881992469
% V (V) @ t=0.8
0.03251096875824121
% es.normE (V/m) @ t=0.9
0.0736621831689051
% es.EX (V/m) @ t=0.9
0.04494359260662151
% es.EY (V/m) @ t=0.9
0.034621635275559726
% es.EZ (V/m) @ t=0.9
-0.046984391915459334
% es.tEX (V/m) @ t=0.9
0.04494359260663039
% es.tEY (V/m) @ t=0.9
0
% es.tEZ (V/m) @ t=0.9
-0.04698439191545756
% es.Ex (V/m) @ t=0.9
0.04494359260662151
% es.Ey (V/m) @ t=0.9
0.034621635275559726
% es.Ez (V/m) @ t=0.9
-0.046984391915459334
% es.tEx (V/m) @ t=0.9
0.04494359260663039
% es.tEy (V/m) @ t=0.9
0
% es.tEz (V/m) @ t=0.9
-0.04698439191545756
% V (V) @ t=0.9
0.03435956488380452
% es.normE (V/m) @ t=1
0.07769326925362569
% es.EX (V/m) @ t=1
0.04740321748935017
% es.EY (V/m) @ t=1
0.0365162551466689
% es.EZ (V/m) @ t=1
-0.04955544540246937
% es.tEX (V/m) @ t=1
0.04740321748937326
% es.tEY (V/m) @ t=1
0
% es.tEZ (V/m) @ t=1
-0.04955544540245427
% es.Ex (V/m) @ t=1
0.04740321748935017
% es.Ey (V/m) @ t=1
0.0365162551466689
% es.Ez (V/m) @ t=1
-0.04955544540246937
% es.tEx (V/m) @ t=1
0.04740321748937326
% es.tEy (V/m) @ t=1
0
% es.tEz (V/m) @ t=1
-0.04955544540245427
% V (V) @ t=1
0.036239878168117606
% es.normE (V/m) @ t=1.1
0.08179914483107083
% es.EX (V/m) @ t=1.1
0.04990528489994084
% es.EY (V/m) @ t=1.1
0.038446432002148256
% es.EZ (V/m) @ t=1.1
-0.05217695372915543
% es.tEX (V/m) @ t=1.1
0.049905284899956825
% es.tEY (V/m) @ t=1.1
0
% es.tEZ (V/m) @ t=1.1
-0.05217695372913411
% es.Ex (V/m) @ t=1.1
0.04990528489994084
% es.Ey (V/m) @ t=1.1
0.038446432002148256
% es.Ez (V/m) @ t=1.1
-0.05217695372915543
% es.tEx (V/m) @ t=1.1
0.049905284899956825
% es.tEy (V/m) @ t=1.1
0
% es.tEz (V/m) @ t=1.1
-0.05217695372913411
% V (V) @ t=1.1
0.03815473561776066
% es.normE (V/m) @ t=1.2
0.0859831108841942
% es.EX (V/m) @ t=1.2
0.05245301433352978
% es.EY (V/m) @ t=1.2
0.04041356375245542
% es.EZ (V/m) @ t=1.2
-0.05484998185484091
% es.tEX (V/m) @ t=1.2
0.05245301433354577
% es.tEY (V/m) @ t=1.2
0
% es.tEZ (V/m) @ t=1.2
-0.054849981854834695
% es.Ex (V/m) @ t=1.2
0.05245301433352978
% es.Ey (V/m) @ t=1.2
0.04041356375245542
% es.Ez (V/m) @ t=1.2
-0.05484998185484091
% es.tEx (V/m) @ t=1.2
0.05245301433354577
% es.tEy (V/m) @ t=1.2
0
% es.tEz (V/m) @ t=1.2
-0.054849981854834695
% V (V) @ t=1.2
0.04010580569134674
% es.normE (V/m) @ t=1.3
0.09016270831332043
% es.EX (V/m) @ t=1.3
0.05500428709748206
% es.EY (V/m) @ t=1.3
0.04237785160563945
% es.EZ (V/m) @ t=1.3
-0.05751486820450058
% es.tEX (V/m) @ t=1.3
0.055004287097490945
% es.tEY (V/m) @ t=1.3
0
% es.tEZ (V/m) @ t=1.3
-0.05751486820448726
% es.Ex (V/m) @ t=1.3
0.05500428709748206
% es.Ey (V/m) @ t=1.3
0.04237785160563945
% es.Ez (V/m) @ t=1.3
-0.05751486820450058
% es.tEx (V/m) @ t=1.3
0.055004287097490945
% es.tEy (V/m) @ t=1.3
0
% es.tEz (V/m) @ t=1.3
-0.05751486820448726
% V (V) @ t=1.3
0.04205549995354479
% es.normE (V/m) @ t=1.4
0.09434889364106504
% es.EX (V/m) @ t=1.4
0.057564699419680565
% es.EY (V/m) @ t=1.4
0.04434458354878501
% es.EZ (V/m) @ t=1.4
-0.06017953989438318
% es.tEX (V/m) @ t=1.4
0.05756469941968234
% es.tEY (V/m) @ t=1.4
0
% es.tEZ (V/m) @ t=1.4
-0.06017953989437874
% es.Ex (V/m) @ t=1.4
0.057564699419680565
% es.Ey (V/m) @ t=1.4
0.04434458354878501
% es.Ez (V/m) @ t=1.4
-0.06017953989438318
% es.tEx (V/m) @ t=1.4
0.05756469941968234
% es.tEy (V/m) @ t=1.4
0
% es.tEz (V/m) @ t=1.4
-0.06017953989437874
% V (V) @ t=1.4
0.04400881270589656
% es.normE (V/m) @ t=1.5
0.09855840654094615
% es.EX (V/m) @ t=1.5
0.06014280101960168
% es.EY (V/m) @ t=1.5
0.04632183838234383
% es.EZ (V/m) @ t=1.5
-0.06285610769278538
% es.tEX (V/m) @ t=1.5
0.060142801019617664
% es.tEY (V/m) @ t=1.5
0
% es.tEZ (V/m) @ t=1.5
-0.06285610769278094
% es.Ex (V/m) @ t=1.5
0.06014280101960168
% es.Ey (V/m) @ t=1.5
0.04632183838234383
% es.Ez (V/m) @ t=1.5
-0.06285610769278538
% es.tEx (V/m) @ t=1.5
0.060142801019617664
% es.tEy (V/m) @ t=1.5
0
% es.tEz (V/m) @ t=1.5
-0.06285610769278094
% V (V) @ t=1.5
0.045973374065949105
% es.normE (V/m) @ t=1.6
0.10268664565586647
% es.EX (V/m) @ t=1.6
0.06266258145175208
% es.EY (V/m) @ t=1.6
0.04826200459753949
% es.EZ (V/m) @ t=1.6
-0.06548837296866594
% es.tEX (V/m) @ t=1.6
0.06266258145177517
% es.tEY (V/m) @ t=1.6
0
% es.tEZ (V/m) @ t=1.6
-0.06548837296864818
% es.Ex (V/m) @ t=1.6
0.06266258145175208
% es.Ey (V/m) @ t=1.6
0.04826200459753949
% es.Ez (V/m) @ t=1.6
-0.06548837296866594
% es.tEx (V/m) @ t=1.6
0.06266258145177517
% es.tEy (V/m) @ t=1.6
0
% es.tEz (V/m) @ t=1.6
-0.06548837296864818
% V (V) @ t=1.6
0.04789909021593901
% es.normE (V/m) @ t=1.7
0.10673430606082383
% es.EX (V/m) @ t=1.7
0.06512454607659102
% es.EY (V/m) @ t=1.7
0.05016539874258896
% es.EZ (V/m) @ t=1.7
-0.06807670936231158
% es.tEX (V/m) @ t=1.7
0.06512454607660878
% es.tEY (V/m) @ t=1.7
0
% es.tEZ (V/m) @ t=1.7
-0.06807670936228849
% es.Ex (V/m) @ t=1.7
0.06512454607659102
% es.Ey (V/m) @ t=1.7
0.05016539874258896
% es.Ez (V/m) @ t=1.7
-0.06807670936231158
% es.tEx (V/m) @ t=1.7
0.06512454607660878
% es.tEy (V/m) @ t=1.7
0
% es.tEz (V/m) @ t=1.7
-0.06807670936228849
% V (V) @ t=1.7
0.049786294207926386
% es.normE (V/m) @ t=1.8
0.11072969147907513
% es.EX (V/m) @ t=1.8
0.06754926074983736
% es.EY (V/m) @ t=1.8
0.05204490288150865
% es.EZ (V/m) @ t=1.8
-0.07063632232255568
% es.tEX (V/m) @ t=1.8
0.06754926074985335
% es.tEY (V/m) @ t=1.8
0
% es.tEZ (V/m) @ t=1.8
-0.07063632232252548
% es.Ex (V/m) @ t=1.8
0.06754926074983736
% es.Ey (V/m) @ t=1.8
0.05204490288150865
% es.Ez (V/m) @ t=1.8
-0.07063632232255568
% es.tEx (V/m) @ t=1.8
0.06754926074985335
% es.tEy (V/m) @ t=1.8
0
% es.tEz (V/m) @ t=1.8
-0.07063632232252548
% V (V) @ t=1.8
0.05164853973470828
% es.normE (V/m) @ t=1.9
0.11463284158710733
% es.EX (V/m) @ t=1.9
0.06991749314654783
% es.EY (V/m) @ t=1.9
0.0538810793079918
% es.EZ (V/m) @ t=1.9
-0.07313728061011826
% es.tEX (V/m) @ t=1.9
0.06991749314656559
% es.tEY (V/m) @ t=1.9
0
% es.tEZ (V/m) @ t=1.9
-0.07313728061010227
% es.Ex (V/m) @ t=1.9
0.06991749314654783
% es.Ey (V/m) @ t=1.9
0.0538810793079918
% es.Ez (V/m) @ t=1.9
-0.07313728061011826
% es.tEx (V/m) @ t=1.9
0.06991749314656559
% es.tEy (V/m) @ t=1.9
0
% es.tEz (V/m) @ t=1.9
-0.07313728061010227
% V (V) @ t=1.9
0.05346773637452644
% es.normE (V/m) @ t=2
0.11841970348827206
% es.EX (V/m) @ t=2
0.07221766808338437
% es.EY (V/m) @ t=2
0.05566222922771047
% es.EZ (V/m) @ t=2
-0.07556156978418471
% es.tEX (V/m) @ t=2
0.07221766808340213
% es.tEY (V/m) @ t=2
0
% es.tEZ (V/m) @ t=2
-0.07556156978416162
% es.Ex (V/m) @ t=2
0.07221766808338437
% es.Ey (V/m) @ t=2
0.05566222922771047
% es.Ez (V/m) @ t=2
-0.07556156978418471
% es.tEx (V/m) @ t=2
0.07221766808340213
% es.tEy (V/m) @ t=2
0
% es.tEz (V/m) @ t=2
-0.07556156978416162
% V (V) @ t=2
0.05523299621084182
% es.normE (V/m) @ t=2.1
0.12208816155185842
% es.EX (V/m) @ t=2.1
0.07444876809359968
% es.EY (V/m) @ t=2.1
0.057387324308475485
% es.EZ (V/m) @ t=2.1
-0.07790760636274197
% es.tEX (V/m) @ t=2.1
0.07444876809361745
% es.tEY (V/m) @ t=2.1
0
% es.tEZ (V/m) @ t=2.1
-0.07790760636271354
% es.Ex (V/m) @ t=2.1
0.07444876809359968
% es.Ey (V/m) @ t=2.1
0.057387324308475485
% es.Ez (V/m) @ t=2.1
-0.07790760636274197
% es.tEx (V/m) @ t=2.1
0.07444876809361745
% es.tEy (V/m) @ t=2.1
0
% es.tEz (V/m) @ t=2.1
-0.07790760636271354
% V (V) @ t=2.1
0.05694336218820066
% es.normE (V/m) @ t=2.2
0.12562423690592753
% es.EX (V/m) @ t=2.2
0.07660406647097062
% es.EY (V/m) @ t=2.2
0.05904956600983269
% es.EZ (V/m) @ t=2.2
-0.08016492158268562
% es.tEX (V/m) @ t=2.2
0.07660406647101681
% es.tEY (V/m) @ t=2.2
0
% es.tEZ (V/m) @ t=2.2
-0.08016492158267052
% es.Ex (V/m) @ t=2.2
0.07660406647097062
% es.Ey (V/m) @ t=2.2
0.05904956600983269
% es.Ez (V/m) @ t=2.2
-0.08016492158268562
% es.tEx (V/m) @ t=2.2
0.07660406647101681
% es.tEy (V/m) @ t=2.2
0
% es.tEz (V/m) @ t=2.2
-0.08016492158267052
% V (V) @ t=2.2
0.058592506992953514
% es.normE (V/m) @ t=2.3
0.129013951482068
% es.EX (V/m) @ t=2.3
0.0786768365094197
% es.EY (V/m) @ t=2.3
0.06064215579131016
% es.EZ (V/m) @ t=2.3
-0.08232304668116885
% es.tEX (V/m) @ t=2.3
0.07867683650943746
% es.tEY (V/m) @ t=2.3
0
% es.tEZ (V/m) @ t=2.3
-0.08232304668116353
% es.Ex (V/m) @ t=2.3
0.0786768365094197
% es.Ey (V/m) @ t=2.3
0.06064215579131016
% es.Ez (V/m) @ t=2.3
-0.08232304668116885
% es.tEx (V/m) @ t=2.3
0.07867683650943746
% es.tEy (V/m) @ t=2.3
0
% es.tEz (V/m) @ t=2.3
-0.08232304668116353
% V (V) @ t=2.3
0.060174103311451066
% es.normE (V/m) @ t=2.4
0.13224332929886434
% es.EX (V/m) @ t=2.4
0.08066035150268291
% es.EY (V/m) @ t=2.4
0.06215829511258519
% es.EZ (V/m) @ t=2.4
-0.08437151289510147
% es.tEX (V/m) @ t=2.4
0.0806603515027291
% es.tEY (V/m) @ t=2.4
0
% es.tEZ (V/m) @ t=2.4
-0.08437151289506772
% es.Ex (V/m) @ t=2.4
0.08066035150268291
% es.Ey (V/m) @ t=2.4
0.06215829511258519
% es.Ez (V/m) @ t=2.4
-0.08437151289510147
% es.tEx (V/m) @ t=2.4
0.0806603515027291
% es.tEy (V/m) @ t=2.4
0
% es.tEz (V/m) @ t=2.4
-0.08437151289506772
% V (V) @ t=2.4
0.061681823830043885
% es.normE (V/m) @ t=2.5
0.13534566033580955
% es.EX (V/m) @ t=2.5
0.08256460755068318
% es.EY (V/m) @ t=2.5
0.06361494022406688
% es.EZ (V/m) @ t=2.5
-0.0863404466749298
% es.tEX (V/m) @ t=2.5
0.08256460755067252
% es.tEY (V/m) @ t=2.5
0
% es.tEZ (V/m) @ t=2.5
-0.08634044667491203
% es.Ex (V/m) @ t=2.5
0.08256460755068318
% es.Ey (V/m) @ t=2.5
0.06361494022406688
% es.Ez (V/m) @ t=2.5
-0.0863404466749298
% es.tEx (V/m) @ t=2.5
0.08256460755067252
% es.tEy (V/m) @ t=2.5
0
% es.tEz (V/m) @ t=2.5
-0.08634044667491203
% V (V) @ t=2.5
0.06313009263979193
% es.normE (V/m) @ t=2.6
0.13833010193810683
% es.EX (V/m) @ t=2.6
0.0843910639551666
% es.EY (V/m) @ t=2.6
0.0650169208314253
% es.EZ (V/m) @ t=2.6
-0.08823925108658948
% es.tEX (V/m) @ t=2.6
0.08439106395518436
% es.tEY (V/m) @ t=2.6
0
% es.tEZ (V/m) @ t=2.6
-0.08823925108657171
% es.Ex (V/m) @ t=2.6
0.0843910639551666
% es.Ey (V/m) @ t=2.6
0.0650169208314253
% es.Ez (V/m) @ t=2.6
-0.08823925108658948
% es.tEx (V/m) @ t=2.6
0.08439106395518436
% es.tEy (V/m) @ t=2.6
0
% es.tEz (V/m) @ t=2.6
-0.08823925108657171
% V (V) @ t=2.6
0.06452274048087991
% es.normE (V/m) @ t=2.7
0.1411632021258266
% es.EX (V/m) @ t=2.7
0.08612610360497541
% es.EY (V/m) @ t=2.7
0.06634765055560976
% es.EZ (V/m) @ t=2.7
-0.09004073066114415
% es.tEX (V/m) @ t=2.7
0.08612610360499318
% es.tEY (V/m) @ t=2.7
0
% es.tEZ (V/m) @ t=2.7
-0.09004073066111218
% es.Ex (V/m) @ t=2.7
0.08612610360497541
% es.Ey (V/m) @ t=2.7
0.06634765055560976
% es.Ez (V/m) @ t=2.7
-0.09004073066114415
% es.tEx (V/m) @ t=2.7
0.08612610360499318
% es.tEy (V/m) @ t=2.7
0
% es.tEz (V/m) @ t=2.7
-0.09004073066111218
% V (V) @ t=2.7
0.0658448897054825
% es.normE (V/m) @ t=2.8
0.1438386304314642
% es.EX (V/m) @ t=2.8
0.0877657053263583
% es.EY (V/m) @ t=2.8
0.06760417407216757
% es.EZ (V/m) @ t=2.8
-0.09174098441256362
% es.tEX (V/m) @ t=2.8
0.08776570532637606
% es.tEY (V/m) @ t=2.8
0
% es.tEZ (V/m) @ t=2.8
-0.09174098441256007
% es.Ex (V/m) @ t=2.8
0.0877657053263583
% es.Ey (V/m) @ t=2.8
0.06760417407216757
% es.Ez (V/m) @ t=2.8
-0.09174098441256362
% es.tEx (V/m) @ t=2.8
0.08776570532637606
% es.tEy (V/m) @ t=2.8
0
% es.tEz (V/m) @ t=2.8
-0.09174098441256007
% V (V) @ t=2.8
0.06709357030699353
% es.normE (V/m) @ t=2.9
0.14635005634592674
% es.EX (V/m) @ t=2.9
0.08930584794520868
% es.EY (V/m) @ t=2.9
0.06878353605640797
% es.EZ (V/m) @ t=2.9
-0.09333611135471642
% es.tEX (V/m) @ t=2.9
0.08930584794524066
% es.tEY (V/m) @ t=2.9
0
% es.tEZ (V/m) @ t=2.9
-0.09333611135471287
% es.Ex (V/m) @ t=2.9
0.08930584794520868
% es.Ey (V/m) @ t=2.9
0.06878353605640797
% es.Ez (V/m) @ t=2.9
-0.09333611135471642
% es.tEx (V/m) @ t=2.9
0.08930584794524066
% es.tEy (V/m) @ t=2.9
0
% es.tEz (V/m) @ t=2.9
-0.09333611135471287
% V (V) @ t=2.9
0.06826581227880693
% es.normE (V/m) @ t=3
0.14869114931156613
% es.EX (V/m) @ t=3
0.0907425102875763
% es.EY (V/m) @ t=3
0.06988278118343416
% es.EZ (V/m) @ t=3
-0.09482221050140005
% es.tEX (V/m) @ t=3
0.09074251028759406
% es.tEY (V/m) @ t=3
0
% es.tEZ (V/m) @ t=3
-0.09482221050141071
% es.Ex (V/m) @ t=3
0.0907425102875763
% es.Ey (V/m) @ t=3
0.06988278118343416
% es.Ez (V/m) @ t=3
-0.09482221050140005
% es.tEx (V/m) @ t=3
0.09074251028759406
% es.tEy (V/m) @ t=3
0
% es.tEz (V/m) @ t=3
-0.09482221050141071
% V (V) @ t=3
0.0693586456143166
% es.normE (V/m) @ t=3.1
0.150930926175084
% es.EX (V/m) @ t=3.1
0.09211534630601648
% es.EY (V/m) @ t=3.1
0.07093466072436883
% es.EZ (V/m) @ t=3.1
-0.09624542253484059
% es.tEX (V/m) @ t=3.1
0.09211534630599161
% es.tEY (V/m) @ t=3.1
0
% es.tEZ (V/m) @ t=3.1
-0.0962454225348246
% es.Ex (V/m) @ t=3.1
0.09211534630601648
% es.Ey (V/m) @ t=3.1
0.07093466072436883
% es.Ez (V/m) @ t=3.1
-0.09624542253484059
% es.tEx (V/m) @ t=3.1
0.09211534630599161
% es.tEy (V/m) @ t=3.1
0
% es.tEz (V/m) @ t=3.1
-0.0962454225348246
% V (V) @ t=3.1
0.07040400131919122
% es.normE (V/m) @ t=3.2
0.15313263606834443
% es.EX (V/m) @ t=3.2
0.09346066703001554
% es.EY (V/m) @ t=3.2
0.07196919294366566
% es.EZ (V/m) @ t=3.2
-0.09764805791505538
% es.tEX (V/m) @ t=3.2
0.09346066703000488
% es.tEY (V/m) @ t=3.2
0
% es.tEZ (V/m) @ t=3.2
-0.09764805791503939
% es.Ex (V/m) @ t=3.2
0.09346066703001554
% es.Ey (V/m) @ t=3.2
0.07196919294366566
% es.Ez (V/m) @ t=3.2
-0.09764805791505538
% es.tEx (V/m) @ t=3.2
0.09346066703000488
% es.tEy (V/m) @ t=3.2
0
% es.tEz (V/m) @ t=3.2
-0.09764805791503939
% V (V) @ t=3.2
0.07143113905270256
% es.normE (V/m) @ t=3.3
0.15523361442580375
% es.EX (V/m) @ t=3.3
0.0947417975379814
% es.EY (V/m) @ t=3.3
0.07295672644792361
% es.EZ (V/m) @ t=3.3
-0.09898880195746429
% es.tEX (V/m) @ t=3.3
0.09474179753802758
% es.tEY (V/m) @ t=3.3
0
% es.tEZ (V/m) @ t=3.3
-0.09898880195741988
% es.Ex (V/m) @ t=3.3
0.0947417975379814
% es.Ey (V/m) @ t=3.3
0.07295672644792361
% es.Ez (V/m) @ t=3.3
-0.09898880195746429
% es.tEx (V/m) @ t=3.3
0.09474179753802758
% es.tEy (V/m) @ t=3.3
0
% es.tEz (V/m) @ t=3.3
-0.09898880195741988
% V (V) @ t=3.3
0.07241099503493542
% es.normE (V/m) @ t=3.4
0.1572392328955548
% es.EX (V/m) @ t=3.4
0.09596149984362157
% es.EY (V/m) @ t=3.4
0.0738998515075977
% es.EZ (V/m) @ t=3.4
-0.10027152565160335
% es.tEX (V/m) @ t=3.4
0.09596149984363933
% es.tEY (V/m) @ t=3.4
0
% es.tEZ (V/m) @ t=3.4
-0.10027152565158914
% es.Ex (V/m) @ t=3.4
0.09596149984362157
% es.Ey (V/m) @ t=3.4
0.0738998515075977
% es.Ez (V/m) @ t=3.4
-0.10027152565160335
% es.tEx (V/m) @ t=3.4
0.09596149984363933
% es.tEy (V/m) @ t=3.4
0
% es.tEz (V/m) @ t=3.4
-0.10027152565158914
% V (V) @ t=3.4
0.07334601973848898
% es.normE (V/m) @ t=3.5
0.15915486353127842
% es.EX (V/m) @ t=3.5
0.09712253596067555
% es.EY (V/m) @ t=3.5
0.0748011583920416
% es.EZ (V/m) @ t=3.5
-0.10150009998731946
% es.tEX (V/m) @ t=3.5
0.09712253596069331
% es.tEY (V/m) @ t=3.5
0
% es.tEZ (V/m) @ t=3.5
-0.10150009998727683
% es.Ex (V/m) @ t=3.5
0.09712253596067555
% es.Ey (V/m) @ t=3.5
0.0748011583920416
% es.Ez (V/m) @ t=3.5
-0.10150009998731946
% es.tEx (V/m) @ t=3.5
0.09712253596069331
% es.tEy (V/m) @ t=3.5
0
% es.tEz (V/m) @ t=3.5
-0.10150009998727683
% V (V) @ t=3.5
0.07423866363596232
% es.normE (V/m) @ t=3.6
0.1609858789670577
% es.EX (V/m) @ t=3.6
0.09822766790274073
% es.EY (V/m) @ t=3.6
0.07566323737106373
% es.EZ (V/m) @ t=3.6
-0.10267839595413975
% es.tEX (V/m) @ t=3.6
0.0982276679027585
% es.tEY (V/m) @ t=3.6
0
% es.tEZ (V/m) @ t=3.6
-0.1026783959541131
% es.Ex (V/m) @ t=3.6
0.09822766790274073
% es.Ey (V/m) @ t=3.6
0.07566323737106373
% es.Ez (V/m) @ t=3.6
-0.10267839595413975
% es.tEx (V/m) @ t=3.6
0.0982276679027585
% es.tEy (V/m) @ t=3.6
0
% es.tEz (V/m) @ t=3.6
-0.1026783959541131
% V (V) @ t=3.6
0.0750913771999547
% es.normE (V/m) @ t=3.7
0.1627571507751782
% es.EX (V/m) @ t=3.7
0.09929589859339316
% es.EY (V/m) @ t=3.7
0.07649729166563901
% es.EZ (V/m) @ t=3.7
-0.10381897234516835
% es.tEX (V/m) @ t=3.7
0.09929589859341448
% es.tEY (V/m) @ t=3.7
0
% es.tEZ (V/m) @ t=3.7
-0.10381897234513993
% es.Ex (V/m) @ t=3.7
0.09929589859339316
% es.Ey (V/m) @ t=3.7
0.07649729166563901
% es.Ez (V/m) @ t=3.7
-0.10381897234516835
% es.tEx (V/m) @ t=3.7
0.09929589859341448
% es.tEy (V/m) @ t=3.7
0
% es.tEz (V/m) @ t=3.7
-0.10381897234513993
% V (V) @ t=3.7
0.07591617238186138
% es.normE (V/m) @ t=3.8
0.1645079794830864
% es.EX (V/m) @ t=3.8
0.10035825122357522
% es.EY (V/m) @ t=3.8
0.07732089913829654
% es.EZ (V/m) @ t=3.8
-0.10494081799470933
% es.tEX (V/m) @ t=3.8
0.10035825122362141
% es.tEY (V/m) @ t=3.8
0
% es.tEZ (V/m) @ t=3.8
-0.10494081799468091
% es.Ex (V/m) @ t=3.8
0.10035825122357522
% es.Ey (V/m) @ t=3.8
0.07732089913829654
% es.Ez (V/m) @ t=3.8
-0.10494081799470933
% es.tEx (V/m) @ t=3.8
0.10035825122362141
% es.tEy (V/m) @ t=3.8
0
% es.tEz (V/m) @ t=3.8
-0.10494081799468091
% V (V) @ t=3.8
0.07673213780138714
% es.normE (V/m) @ t=3.9
0.16622042545109536
% es.EX (V/m) @ t=3.9
0.10139807144894064
% es.EY (V/m) @ t=3.9
0.07812635308961902
% es.EZ (V/m) @ t=3.9
-0.10603741743599215
% es.tEX (V/m) @ t=3.9
0.10139807144897262
% es.tEY (V/m) @ t=3.9
0
% es.tEZ (V/m) @ t=3.9
-0.10603741743594775
% es.Ex (V/m) @ t=3.9
0.10139807144894064
% es.Ey (V/m) @ t=3.9
0.07812635308961902
% es.Ez (V/m) @ t=3.9
-0.10603741743599215
% es.tEx (V/m) @ t=3.9
0.10139807144897262
% es.tEy (V/m) @ t=3.9
0
% es.tEz (V/m) @ t=3.9
-0.10603741743594775
% V (V) @ t=3.9
0.07753029297692286
% es.normE (V/m) @ t=4
0.16790389530523384
% es.EX (V/m) @ t=4
0.10242148228417136
% es.EY (V/m) @ t=4
0.07891802621056598
% es.EZ (V/m) @ t=4
-0.10711443957008093
% es.tEX (V/m) @ t=4
0.10242148228419268
% es.tEY (V/m) @ t=4
0
% es.tEZ (V/m) @ t=4
-0.10711443957005429
% es.Ex (V/m) @ t=4
0.10242148228417136
% es.Ey (V/m) @ t=4
0.07891802621056598
% es.Ez (V/m) @ t=4
-0.10711443957008093
% es.tEx (V/m) @ t=4
0.10242148228419268
% es.tEy (V/m) @ t=4
0
% es.tEz (V/m) @ t=4
-0.10711443957005429
% V (V) @ t=4
0.07831506709663684
% es.normE (V/m) @ t=4.1
0.16956779566276758
% es.EX (V/m) @ t=4.1
0.10343460674417315
% es.EY (V/m) @ t=4.1
0.07970029119171329
% es.EZ (V/m) @ t=4.1
-0.10817755329810552
% es.tEX (V/m) @ t=4.1
0.10343460674421934
% es.tEY (V/m) @ t=4.1
0
% es.tEZ (V/m) @ t=4.1
-0.10817755329807888
% es.Ex (V/m) @ t=4.1
0.10343460674417315
% es.Ey (V/m) @ t=4.1
0.07970029119171329
% es.Ez (V/m) @ t=4.1
-0.10817755329810552
% es.tEx (V/m) @ t=4.1
0.10343460674421934
% es.tEy (V/m) @ t=4.1
0
% es.tEz (V/m) @ t=4.1
-0.10817755329807888
% V (V) @ t=4.1
0.07909088934869743
% es.normE (V/m) @ t=4.2
0.1712215331900158
% es.EX (V/m) @ t=4.2
0.10444356784366704
% es.EY (V/m) @ t=4.2
0.0804775207239743
% es.EZ (V/m) @ t=4.2
-0.10923242752107676
% es.tEX (V/m) @ t=4.2
0.1044435678436848
% es.tEY (V/m) @ t=4.2
0
% es.tEZ (V/m) @ t=4.2
-0.10923242752106077
% es.Ex (V/m) @ t=4.2
0.10444356784366704
% es.Ey (V/m) @ t=4.2
0.0804775207239743
% es.Ez (V/m) @ t=4.2
-0.10923242752107676
% es.tEx (V/m) @ t=4.2
0.1044435678436848
% es.tEy (V/m) @ t=4.2
0
% es.tEz (V/m) @ t=4.2
-0.10923242752106077
% V (V) @ t=4.2
0.07986218892127299
% es.normE (V/m) @ t=4.3
0.17285500873874535
% es.EX (V/m) @ t=4.3
0.10544158415298455
% es.EY (V/m) @ t=4.3
0.08124504629220652
% es.EZ (V/m) @ t=4.3
-0.11027315552915873
% es.tEX (V/m) @ t=4.3
0.10544158415300231
% es.tEY (V/m) @ t=4.3
0
% es.tEZ (V/m) @ t=4.3
-0.1102731555291463
% es.Ex (V/m) @ t=4.3
0.10544158415298455
% es.Ey (V/m) @ t=4.3
0.08124504629220652
% es.Ez (V/m) @ t=4.3
-0.11027315552915873
% es.tEx (V/m) @ t=4.3
0.10544158415300231
% es.tEy (V/m) @ t=4.3
0
% es.tEz (V/m) @ t=4.3
-0.1102731555291463
% V (V) @ t=4.3
0.08062418788182461
% es.normE (V/m) @ t=4.4
0.17441416794550046
% es.EX (V/m) @ t=4.4
0.10639279498908394
% es.EY (V/m) @ t=4.4
0.08197782566535494
% es.EZ (V/m) @ t=4.4
-0.11126774579235743
% es.tEX (V/m) @ t=4.4
0.10639279498907328
% es.tEY (V/m) @ t=4.4
0
% es.tEZ (V/m) @ t=4.4
-0.11126774579233079
% es.Ex (V/m) @ t=4.4
0.10639279498908394
% es.Ey (V/m) @ t=4.4
0.08197782566535494
% es.Ez (V/m) @ t=4.4
-0.11126774579235743
% es.tEx (V/m) @ t=4.4
0.10639279498907328
% es.tEy (V/m) @ t=4.4
0
% es.tEz (V/m) @ t=4.4
-0.11126774579233079
% V (V) @ t=4.4
0.08135136070265366
% es.normE (V/m) @ t=4.5
0.17594789312965023
% es.EX (V/m) @ t=4.5
0.10732943902316805
% es.EY (V/m) @ t=4.5
0.08269852887359619
% es.EZ (V/m) @ t=4.5
-0.11224529361125946
% es.tEX (V/m) @ t=4.5
0.10732943902318937
% es.tEY (V/m) @ t=4.5
0
% es.tEZ (V/m) @ t=4.5
-0.11224529361122038
% es.Ex (V/m) @ t=4.5
0.10732943902316805
% es.Ey (V/m) @ t=4.5
0.08269852887359619
% es.Ez (V/m) @ t=4.5
-0.11224529361125946
% es.tEx (V/m) @ t=4.5
0.10732943902318937
% es.tEy (V/m) @ t=4.5
0
% es.tEz (V/m) @ t=4.5
-0.11224529361122038
% V (V) @ t=4.5
0.0820667696868699
% es.normE (V/m) @ t=4.6
0.17745967936378634
% es.EX (V/m) @ t=4.6
0.10825372827431679
% es.EY (V/m) @ t=4.6
0.08340878845809385
% es.EZ (V/m) @ t=4.6
-0.11320795962546626
% es.tEX (V/m) @ t=4.6
0.1082537282743381
% es.tEY (V/m) @ t=4.6
0
% es.tEZ (V/m) @ t=4.6
-0.11320795962545382
% es.Ex (V/m) @ t=4.6
0.10825372827431679
% es.Ey (V/m) @ t=4.6
0.08340878845809385
% es.Ez (V/m) @ t=4.6
-0.11320795962546626
% es.tEx (V/m) @ t=4.6
0.1082537282743381
% es.tEy (V/m) @ t=4.6
0
% es.tEz (V/m) @ t=4.6
-0.11320795962545382
% V (V) @ t=4.6
0.08277205358791195
% es.normE (V/m) @ t=4.7
0.17895302175526454
% es.EX (V/m) @ t=4.7
0.10916787476152834
% es.EY (V/m) @ t=4.7
0.0841102369591944
% es.EZ (V/m) @ t=4.7
-0.1141579044747214
% es.tEX (V/m) @ t=4.7
0.10916787476153189
% es.tEY (V/m) @ t=4.7
0
% es.tEZ (V/m) @ t=4.7
-0.11415790447468233
% es.Ex (V/m) @ t=4.7
0.10916787476152834
% es.Ey (V/m) @ t=4.7
0.0841102369591944
% es.Ez (V/m) @ t=4.7
-0.1141579044747214
% es.tEx (V/m) @ t=4.7
0.10916787476153189
% es.tEy (V/m) @ t=4.7
0
% es.tEz (V/m) @ t=4.7
-0.11415790447468233
% V (V) @ t=4.7
0.08346885115921832
% es.normE (V/m) @ t=4.8
0.18043141545351743
% es.EX (V/m) @ t=4.8
0.11007409050383288
% es.EY (V/m) @ t=4.8
0.084804506917731
% es.EZ (V/m) @ t=4.8
-0.11509728879845227
% es.tEX (V/m) @ t=4.8
0.11007409050385064
% es.tEY (V/m) @ t=4.8
0
% es.tEZ (V/m) @ t=4.8
-0.11509728879842562
% es.Ex (V/m) @ t=4.8
0.11007409050383288
% es.Ey (V/m) @ t=4.8
0.084804506917731
% es.Ez (V/m) @ t=4.8
-0.11509728879845227
% es.tEx (V/m) @ t=4.8
0.11007409050385064
% es.tEy (V/m) @ t=4.8
0
% es.tEz (V/m) @ t=4.8
-0.11509728879842562
% V (V) @ t=4.8
0.08415880115422751
% es.normE (V/m) @ t=4.9
0.18188396839086313
% es.EX (V/m) @ t=4.9
0.1109650950931993
% es.EY (V/m) @ t=4.9
0.08548656013904576
% es.EZ (V/m) @ t=4.9
-0.11601971239474373
% es.tEX (V/m) @ t=4.9
0.11096509509322061
% es.tEY (V/m) @ t=4.9
0
% es.tEZ (V/m) @ t=4.9
-0.11601971239474906
% es.Ex (V/m) @ t=4.9
0.1109650950931993
% es.Ey (V/m) @ t=4.9
0.08548656013904576
% es.Ez (V/m) @ t=4.9
-0.11601971239474373
% es.tEx (V/m) @ t=4.9
0.11096509509322061
% es.tEy (V/m) @ t=4.9
0
% es.tEz (V/m) @ t=4.9
-0.11601971239474906
% V (V) @ t=4.9
0.08483675588914745
% es.normE (V/m) @ t=5
0.18321307516458457
% es.EX (V/m) @ t=5
0.11177639654612648
% es.EY (V/m) @ t=5
0.08611115340704245
% es.EZ (V/m) @ t=5
-0.11686717822098558
% es.tEX (V/m) @ t=5
0.11177639654617622
% es.tEY (V/m) @ t=5
0
% es.tEZ (V/m) @ t=5
-0.11686717822097847
% es.Ex (V/m) @ t=5
0.11177639654612648
% es.Ey (V/m) @ t=5
0.08611115340704245
% es.Ez (V/m) @ t=5
-0.11686717822098558
% es.tEx (V/m) @ t=5
0.11177639654617622
% es.tEy (V/m) @ t=5
0
% es.tEz (V/m) @ t=5
-0.11686717822097847
% V (V) @ t=5
0.08545666530919849
% es.normE (V/m) @ t=5.1
0.1844810182047387
% es.EX (V/m) @ t=5.1
0.11254899368546134
% es.EY (V/m) @ t=5.1
0.08670717640882941
% es.EZ (V/m) @ t=5.1
-0.11767682718978811
% es.tEX (V/m) @ t=5.1
0.11254899368548266
% es.tEY (V/m) @ t=5.1
0
% es.tEZ (V/m) @ t=5.1
-0.11767682718976147
% es.Ex (V/m) @ t=5.1
0.11254899368546134
% es.Ey (V/m) @ t=5.1
0.08670717640882941
% es.Ez (V/m) @ t=5.1
-0.11767682718978811
% es.tEx (V/m) @ t=5.1
0.11254899368548266
% es.tEy (V/m) @ t=5.1
0
% es.tEz (V/m) @ t=5.1
-0.11767682718976147
% V (V) @ t=5.1
0.086047898084731
% es.normE (V/m) @ t=5.2
0.18568347175869826
% es.EX (V/m) @ t=5.2
0.11327993848928486
% es.EY (V/m) @ t=5.2
0.08727263550372655
% es.EZ (V/m) @ t=5.2
-0.11844616630546057
% es.tEX (V/m) @ t=5.2
0.11327993848928841
% es.tEY (V/m) @ t=5.2
0
% es.tEZ (V/m) @ t=5.2
-0.11844616630541971
% es.Ex (V/m) @ t=5.2
0.11327993848928486
% es.Ey (V/m) @ t=5.2
0.08727263550372655