% Model:              1x1--2 - Copy1.mph
% Version:            COMSOL 6.0.0.405
% Date:               Mar 2 2023, 12:07
% Dimension:          0
% Nodes:              14017
% Expressions:        14017
% Description:        Electric field norm, Electric field, X component, Electric field, Y component, Electric field, Z component, Tangential electric field, X component, Tangential electric field, Y component, Tangential electric field, Z component, Electric field, x component, Electric field, y component, Electric field, z component, Tangential electric field, x component, Tangential electric field, y component, Tangential electric field, z component, Electric potential
% Length unit:        mm
% x
1
% y
14.200000000000001
% z
1.66
% es.normE (V/m) @ t=0
0.07625125747781533
% es.EX (V/m) @ t=0
0.0722528141314287
% es.EY (V/m) @ t=0
-0.005207645030349539
% es.EZ (V/m) @ t=0
-0.02380473797955318
% es.tEX (V/m) @ t=0
0.07225281413142515
% es.tEY (V/m) @ t=0
0
% es.tEZ (V/m) @ t=0
-0.0238047379795594
% es.Ex (V/m) @ t=0
0.0722528141314287
% es.Ey (V/m) @ t=0
-0.005207645030349539
% es.Ez (V/m) @ t=0
-0.02380473797955318
% es.tEx (V/m) @ t=0
0.07225281413142515
% es.tEy (V/m) @ t=0
0
% es.tEz (V/m) @ t=0
-0.0238047379795594
% V (V) @ t=0
0.016256689533433673
% es.normE (V/m) @ t=0.1
0.08062609029688049
% es.EX (V/m) @ t=0.1
0.07639823970817261
% es.EY (V/m) @ t=0.1
-0.005506410326983513
% es.EZ (V/m) @ t=0.1
-0.025170515516457215
% es.tEX (V/m) @ t=0.1
0.07639823970816817
% es.tEY (V/m) @ t=0.1
0
% es.tEZ (V/m) @ t=0.1
-0.02517051551645988
% es.Ex (V/m) @ t=0.1
0.07639823970817261
% es.Ey (V/m) @ t=0.1
-0.005506410326983513
% es.Ez (V/m) @ t=0.1
-0.025170515516457215
% es.tEx (V/m) @ t=0.1
0.07639823970816817
% es.tEy (V/m) @ t=0.1
0
% es.tEz (V/m) @ t=0.1
-0.02517051551645988
% V (V) @ t=0.1
0.017189381654988425
% es.normE (V/m) @ t=0.2
0.08565943029242047
% es.EX (V/m) @ t=0.2
0.0811675692214342
% es.EY (V/m) @ t=0.2
-0.005850096161090335
% es.EZ (V/m) @ t=0.2
-0.026742103126188965
% es.tEX (V/m) @ t=0.2
0.0811675692214262
% es.tEY (V/m) @ t=0.2
0
% es.tEZ (V/m) @ t=0.2
-0.02674210312619696
% es.Ex (V/m) @ t=0.2
0.0811675692214342
% es.Ey (V/m) @ t=0.2
-0.005850096161090335
% es.Ez (V/m) @ t=0.2
-0.026742103126188965
% es.tEx (V/m) @ t=0.2
0.0811675692214262
% es.tEy (V/m) @ t=0.2
0
% es.tEz (V/m) @ t=0.2
-0.02674210312619696
% V (V) @ t=0.2
0.01826251778451962
% es.normE (V/m) @ t=0.3
0.09112845341035973
% es.EX (V/m) @ t=0.3
0.0863499513546726
% es.EY (V/m) @ t=0.3
-0.006223739515483828
% es.EZ (V/m) @ t=0.3
-0.028449006809609045
% es.tEX (V/m) @ t=0.3
0.08634995135466728
% es.tEY (V/m) @ t=0.3
0
% es.tEZ (V/m) @ t=0.3
-0.02844900680961082
% es.Ex (V/m) @ t=0.3
0.0863499513546726
% es.Ey (V/m) @ t=0.3
-0.006223739515483828
% es.Ez (V/m) @ t=0.3
-0.028449006809609045
% es.tEx (V/m) @ t=0.3
0.08634995135466728
% es.tEy (V/m) @ t=0.3
0
% es.tEz (V/m) @ t=0.3
-0.02844900680961082
% V (V) @ t=0.3
0.019428439485531822
% es.normE (V/m) @ t=0.4
0.09683062487892001
% es.EX (V/m) @ t=0.4
0.09175313661184337
% es.EY (V/m) @ t=0.4
-0.006613194222765628
% es.EZ (V/m) @ t=0.4
-0.030229083653040334
% es.tEX (V/m) @ t=0.4
0.09175313661183981
% es.tEY (V/m) @ t=0.4
0
% es.tEZ (V/m) @ t=0.4
-0.030229083653044775
% es.Ex (V/m) @ t=0.4
0.09175313661184337
% es.Ey (V/m) @ t=0.4
-0.006613194222765628
% es.Ez (V/m) @ t=0.4
-0.030229083653040334
% es.tEx (V/m) @ t=0.4
0.09175313661183981
% es.tEy (V/m) @ t=0.4
0
% es.tEz (V/m) @ t=0.4
-0.030229083653044775
% V (V) @ t=0.4
0.020644124512928453
% es.normE (V/m) @ t=0.5
0.10275442810142392
% es.EX (V/m) @ t=0.5
0.09736623367165986
% es.EY (V/m) @ t=0.5
-0.007017693726275809
% es.EZ (V/m) @ t=0.5
-0.032078669077918676
% es.tEX (V/m) @ t=0.5
0.09736623367166874
% es.tEY (V/m) @ t=0.5
0
% es.tEZ (V/m) @ t=0.5
-0.03207866907792134
% es.Ex (V/m) @ t=0.5
0.09736623367165986
% es.Ey (V/m) @ t=0.5
-0.007017693726275809
% es.Ez (V/m) @ t=0.5
-0.032078669077918676
% es.tEx (V/m) @ t=0.5
0.09736623367166874
% es.tEy (V/m) @ t=0.5
0
% es.tEz (V/m) @ t=0.5
-0.03207866907792134
% V (V) @ t=0.5
0.02190710745431551
% es.normE (V/m) @ t=0.6
0.10911024017673855
% es.EX (V/m) @ t=0.6
0.10338875941686787
% es.EY (V/m) @ t=0.6
-0.007451766168792062
% es.EZ (V/m) @ t=0.6
-0.03406288476674035
% es.tEX (V/m) @ t=0.6
0.10338875941686254
% es.tEY (V/m) @ t=0.6
0
% es.tEZ (V/m) @ t=0.6
-0.03406288476674302
% es.Ex (V/m) @ t=0.6
0.10338875941686787
% es.Ey (V/m) @ t=0.6
-0.007451766168792062
% es.Ez (V/m) @ t=0.6
-0.03406288476674035
% es.tEx (V/m) @ t=0.6
0.10338875941686254
% es.tEy (V/m) @ t=0.6
0
% es.tEz (V/m) @ t=0.6
-0.03406288476674302
% V (V) @ t=0.6
0.023262159482140252
% es.normE (V/m) @ t=0.7
0.115608585098076
% es.EX (V/m) @ t=0.7
0.10954629158341334
% es.EY (V/m) @ t=0.7
-0.007895524056785064
% es.EZ (V/m) @ t=0.7
-0.03609176704692629
% es.tEX (V/m) @ t=0.7
0.10954629158340712
% es.tEY (V/m) @ t=0.7
0
% es.tEZ (V/m) @ t=0.7
-0.036091767046929846
% es.Ex (V/m) @ t=0.7
0.10954629158341334
% es.Ey (V/m) @ t=0.7
-0.007895524056785064
% es.Ez (V/m) @ t=0.7
-0.03609176704692629
% es.tEx (V/m) @ t=0.7
0.10954629158340712
% es.tEy (V/m) @ t=0.7
0
% es.tEz (V/m) @ t=0.7
-0.036091767046929846
% V (V) @ t=0.7
0.024647624038361914
% es.normE (V/m) @ t=0.8
0.12241250132779374
% es.EX (V/m) @ t=0.8
0.11599325941133642
% es.EY (V/m) @ t=0.8
-0.00836004624125053
% es.EZ (V/m) @ t=0.8
-0.03821640850872399
% es.tEX (V/m) @ t=0.8
0.11599325941133198
% es.tEY (V/m) @ t=0.8
0
% es.tEZ (V/m) @ t=0.8
-0.03821640850873642
% es.Ex (V/m) @ t=0.8
0.11599325941133642
% es.Ey (V/m) @ t=0.8
-0.00836004624125053
% es.Ez (V/m) @ t=0.8
-0.03821640850872399
% es.tEx (V/m) @ t=0.8
0.11599325941133198
% es.tEy (V/m) @ t=0.8
0
% es.tEz (V/m) @ t=0.8
-0.03821640850873642
% V (V) @ t=0.8
0.026098288976795947
% es.normE (V/m) @ t=0.9
0.1294646718872437
% es.EX (V/m) @ t=0.9
0.12267537253223004
% es.EY (V/m) @ t=0.9
-0.008841437896954574
% es.EZ (V/m) @ t=0.9
-0.04041884729757328
% es.tEX (V/m) @ t=0.9
0.12267537253222915
% es.tEY (V/m) @ t=0.9
0
% es.tEZ (V/m) @ t=0.9
-0.04041884729759104
% es.Ex (V/m) @ t=0.9
0.12267537253223004
% es.Ey (V/m) @ t=0.9
-0.008841437896954574
% es.Ez (V/m) @ t=0.9
-0.04041884729757328
% es.tEx (V/m) @ t=0.9
0.12267537253222915
% es.tEy (V/m) @ t=0.9
0
% es.tEz (V/m) @ t=0.9
-0.04041884729759104
% V (V) @ t=0.9
0.027601924454187982
% es.normE (V/m) @ t=1
0.1368221660105647
% es.EX (V/m) @ t=1
0.12964694222765516
% es.EY (V/m) @ t=1
-0.009343815986355253
% es.EZ (V/m) @ t=1
-0.04271613963895504
% es.tEX (V/m) @ t=1
0.1296469422276374
% es.tEY (V/m) @ t=1
0
% es.tEZ (V/m) @ t=1
-0.042716139638967476
% es.Ex (V/m) @ t=1
0.12964694222765516
% es.Ey (V/m) @ t=1
-0.009343815986355253
% es.Ez (V/m) @ t=1
-0.04271613963895504
% es.tEx (V/m) @ t=1
0.1296469422276374
% es.tEy (V/m) @ t=1
0
% es.tEz (V/m) @ t=1
-0.042716139638967476
% V (V) @ t=1
0.029170586790162933
% es.normE (V/m) @ t=1.1
0.1445127381506148
% es.EX (V/m) @ t=1.1
0.13693438168051664
% es.EY (V/m) @ t=1.1
-0.009869182710204427
% es.EZ (V/m) @ t=1.1
-0.04511658047985634
% es.tEX (V/m) @ t=1.1
0.13693438168051486
% es.tEY (V/m) @ t=1.1
0
% es.tEZ (V/m) @ t=1.1
-0.045116580479863444
% es.Ex (V/m) @ t=1.1
0.13693438168051664
% es.Ey (V/m) @ t=1.1
-0.009869182710204427
% es.Ez (V/m) @ t=1.1
-0.04511658047985634
% es.tEx (V/m) @ t=1.1
0.13693438168051486
% es.tEy (V/m) @ t=1.1
0
% es.tEz (V/m) @ t=1.1
-0.045116580479863444
% V (V) @ t=1.1
0.030810139329620147
% es.normE (V/m) @ t=1.2
0.15250676560729368
% es.EX (V/m) @ t=1.2
0.14450949974360228
% es.EY (V/m) @ t=1.2
-0.010415401092679133
% es.EZ (V/m) @ t=1.2
-0.0476113165112082
% es.tEX (V/m) @ t=1.2
0.14450949974360583
% es.tEY (V/m) @ t=1.2
0
% es.tEZ (V/m) @ t=1.2
-0.047611316511231294
% es.Ex (V/m) @ t=1.2
0.14450949974360228
% es.Ey (V/m) @ t=1.2
-0.010415401092679133
% es.Ez (V/m) @ t=1.2
-0.0476113165112082
% es.tEx (V/m) @ t=1.2
0.14450949974360583
% es.tEy (V/m) @ t=1.2
0
% es.tEz (V/m) @ t=1.2
-0.047611316511231294
% V (V) @ t=1.2
0.032514324045285606
% es.normE (V/m) @ t=1.3
0.16080600027533587
% es.EX (V/m) @ t=1.3
0.15237374073961973
% es.EY (V/m) @ t=1.3
-0.010982389090102629
% es.EZ (V/m) @ t=1.3
-0.05020159347510855
% es.tEX (V/m) @ t=1.3
0.15237374073960908
% es.tEY (V/m) @ t=1.3
0
% es.tEZ (V/m) @ t=1.3
-0.05020159347512454
% es.Ex (V/m) @ t=1.3
0.15237374073961973
% es.Ey (V/m) @ t=1.3
-0.010982389090102629
% es.Ez (V/m) @ t=1.3
-0.05020159347510855
% es.tEx (V/m) @ t=1.3
0.15237374073960908
% es.tEy (V/m) @ t=1.3
0
% es.tEz (V/m) @ t=1.3
-0.05020159347512454
% V (V) @ t=1.3
0.03428361627340629
% es.normE (V/m) @ t=1.4
0.16941115419120914
% es.EX (V/m) @ t=1.4
0.1605276917024696
% es.EY (V/m) @ t=1.4
-0.01157011335652669
% es.EZ (V/m) @ t=1.4
-0.052887917693851705
% es.tEX (V/m) @ t=1.4
0.16052769170247672
% es.tEY (V/m) @ t=1.4
0
% es.tEZ (V/m) @ t=1.4
-0.05288791769386947
% es.Ex (V/m) @ t=1.4
0.1605276917024696
% es.Ey (V/m) @ t=1.4
-0.01157011335652669
% es.Ez (V/m) @ t=1.4
-0.052887917693851705
% es.tEx (V/m) @ t=1.4
0.16052769170247672
% es.tEy (V/m) @ t=1.4
0
% es.tEz (V/m) @ t=1.4
-0.05288791769386947
% V (V) @ t=1.4
0.036118209210780045
% es.normE (V/m) @ t=1.5
0.17832139046899337
% es.EX (V/m) @ t=1.5
0.16897066267299898
% es.EY (V/m) @ t=1.5
-0.012178613084628864
% es.EZ (V/m) @ t=1.5
-0.055669694071170284
% es.tEX (V/m) @ t=1.5
0.16897066267299543
% es.tEY (V/m) @ t=1.5
0
% es.tEZ (V/m) @ t=1.5
-0.055669694071184495
% es.Ex (V/m) @ t=1.5
0.16897066267299898
% es.Ey (V/m) @ t=1.5
-0.012178613084628864
% es.Ez (V/m) @ t=1.5
-0.055669694071170284
% es.tEx (V/m) @ t=1.5
0.16897066267299543
% es.tEy (V/m) @ t=1.5
0
% es.tEz (V/m) @ t=1.5
-0.055669694071184495
% V (V) @ t=1.5
0.038017875787223473
% es.normE (V/m) @ t=1.6
0.18741446054482513
% es.EX (V/m) @ t=1.6
0.1775869327357391
% es.EY (V/m) @ t=1.6
-0.012799648831631316
% es.EZ (V/m) @ t=1.6
-0.05850837831120259
% es.tEX (V/m) @ t=1.6
0.17758693273572668
% es.tEY (V/m) @ t=1.6
0
% es.tEZ (V/m) @ t=1.6
-0.058508378311215026
% es.Ex (V/m) @ t=1.6
0.1775869327357391
% es.Ey (V/m) @ t=1.6
-0.012799648831631316
% es.Ez (V/m) @ t=1.6
-0.05850837831120259
% es.tEx (V/m) @ t=1.6
0.17758693273572668
% es.tEy (V/m) @ t=1.6
0
% es.tEz (V/m) @ t=1.6
-0.058508378311215026
% V (V) @ t=1.6
0.039956497425315894
% es.normE (V/m) @ t=1.7
0.19664980351277556
% es.EX (V/m) @ t=1.7
0.1863381067957537
% es.EY (V/m) @ t=1.7
-0.013430486829122401
% es.EZ (V/m) @ t=1.7
-0.0613911817846855
% es.tEX (V/m) @ t=1.7
0.18633810679576968
% es.tEY (V/m) @ t=1.7
0
% es.tEZ (V/m) @ t=1.7
-0.06139118178469438
% es.Ex (V/m) @ t=1.7
0.1863381067957537
% es.Ey (V/m) @ t=1.7
-0.013430486829122401
% es.Ez (V/m) @ t=1.7
-0.0613911817846855
% es.tEx (V/m) @ t=1.7
0.18633810679576968
% es.tEy (V/m) @ t=1.7
0
% es.tEz (V/m) @ t=1.7
-0.06139118178469438
% V (V) @ t=1.7
0.04192540823043761
% es.normE (V/m) @ t=1.8
0.2060810822387084
% es.EX (V/m) @ t=1.8
0.195274982307577
% es.EY (V/m) @ t=1.8
-0.014074743905837295
% es.EZ (V/m) @ t=1.8
-0.06433502409603875
% es.tEX (V/m) @ t=1.8
0.19527498230759477
% es.tEY (V/m) @ t=1.8
0
% es.tEZ (V/m) @ t=1.8
-0.06433502409604408
% es.Ex (V/m) @ t=1.8
0.195274982307577
% es.Ey (V/m) @ t=1.8
-0.014074743905837295
% es.Ez (V/m) @ t=1.8
-0.06433502409603875
% es.tEx (V/m) @ t=1.8
0.19527498230759477
% es.tEy (V/m) @ t=1.8
0
% es.tEz (V/m) @ t=1.8
-0.06433502409604408
% V (V) @ t=1.8
0.043936073349081006
% es.normE (V/m) @ t=1.9
0.21570829672344524
% es.EX (V/m) @ t=1.9
0.20439755927120018
% es.EY (V/m) @ t=1.9
-0.0147324200616481
% es.EZ (V/m) @ t=1.9
-0.0673399052452055
% es.tEX (V/m) @ t=1.9
0.20439755927120018
% es.tEY (V/m) @ t=1.9
0
% es.tEZ (V/m) @ t=1.9
-0.06733990524523037
% es.Ex (V/m) @ t=1.9
0.20439755927120018
% es.Ey (V/m) @ t=1.9
-0.0147324200616481
% es.Ez (V/m) @ t=1.9
-0.0673399052452055
% es.tEx (V/m) @ t=1.9
0.20439755927120018
% es.tEy (V/m) @ t=1.9
0
% es.tEz (V/m) @ t=1.9
-0.06733990524523037
% V (V) @ t=1.9
0.045988492781246074
% es.normE (V/m) @ t=2
0.22553144696794095
% es.EX (V/m) @ t=2
0.21370583768661788
% es.EY (V/m) @ t=2
-0.01540351529648376
% es.EZ (V/m) @ t=2
-0.07040582523218575
% es.tEX (V/m) @ t=2
0.21370583768661788
% es.tEY (V/m) @ t=2
0
% es.tEZ (V/m) @ t=2
-0.07040582523219108
% es.Ex (V/m) @ t=2
0.21370583768661788
% es.Ey (V/m) @ t=2
-0.01540351529648376
% es.Ez (V/m) @ t=2
-0.07040582523218575
% es.tEx (V/m) @ t=2
0.21370583768661788
% es.tEy (V/m) @ t=2
0
% es.tEz (V/m) @ t=2
-0.07040582523219108
% V (V) @ t=2
0.04808266652693283
% es.normE (V/m) @ t=2.1
0.23555053297325623
% es.EX (V/m) @ t=2.1
0.223199817553823
% es.EY (V/m) @ t=2.1
-0.016088029610571652
% es.EZ (V/m) @ t=2.1
-0.07353278405700792
% es.tEX (V/m) @ t=2.1
0.22319981755381946
% es.tEY (V/m) @ t=2.1
0
% es.tEZ (V/m) @ t=2.1
-0.07353278405703456
% es.Ex (V/m) @ t=2.1
0.223199817553823
% es.Ey (V/m) @ t=2.1
-0.016088029610571652
% es.Ez (V/m) @ t=2.1
-0.07353278405700792
% es.tEx (V/m) @ t=2.1
0.22319981755381946
% es.tEy (V/m) @ t=2.1
0
% es.tEz (V/m) @ t=2.1
-0.07353278405703456
% V (V) @ t=2.1
0.05021859458614126
% es.normE (V/m) @ t=2.2
0.2453805872909488
% es.EX (V/m) @ t=2.2
0.2325142141329941
% es.EY (V/m) @ t=2.2
-0.016759199983695794
% es.EZ (V/m) @ t=2.2
-0.07660223274339728
% es.tEX (V/m) @ t=2.2
0.2325142141329799
% es.tEY (V/m) @ t=2.2
0
% es.tEZ (V/m) @ t=2.2
-0.07660223274341682
% es.Ex (V/m) @ t=2.2
0.2325142141329941
% es.Ey (V/m) @ t=2.2
-0.016759199983695794
% es.Ez (V/m) @ t=2.2
-0.07660223274339728
% es.tEx (V/m) @ t=2.2
0.2325142141329799
% es.tEy (V/m) @ t=2.2
0
% es.tEz (V/m) @ t=2.2
-0.07660223274341682
% V (V) @ t=2.2
0.052314440396670873
% es.normE (V/m) @ t=2.3
0.2550653071850815
% es.EX (V/m) @ t=2.3
0.24169049051151603
% es.EY (V/m) @ t=2.3
-0.01742006425837417
% es.EZ (V/m) @ t=2.3
-0.07962762766123888
% es.tEX (V/m) @ t=2.3
0.2416904905115338
% es.tEY (V/m) @ t=2.3
0
% es.tEZ (V/m) @ t=2.3
-0.07962762766125664
% es.Ex (V/m) @ t=2.3
0.24169049051151603
% es.Ey (V/m) @ t=2.3
-0.01742006425837417
% es.Ez (V/m) @ t=2.3
-0.07962762766123888
% es.tEx (V/m) @ t=2.3
0.2416904905115338
% es.tEy (V/m) @ t=2.3
0
% es.tEz (V/m) @ t=2.3
-0.07962762766125664
% V (V) @ t=2.3
0.0543794931408101
% es.normE (V/m) @ t=2.4
0.2647706538337439
% es.EX (V/m) @ t=2.4
0.2508861225485113
% es.EY (V/m) @ t=2.4
-0.01808216009008845
% es.EZ (V/m) @ t=2.4
-0.08266007579598522
% es.tEX (V/m) @ t=2.4
0.25088612254850773
% es.tEY (V/m) @ t=2.4
0
% es.tEZ (V/m) @ t=2.4
-0.08266007579598167
% es.Ex (V/m) @ t=2.4
0.2508861225485113
% es.Ey (V/m) @ t=2.4
-0.01808216009008845
% es.Ez (V/m) @ t=2.4
-0.08266007579598522
% es.tEx (V/m) @ t=2.4
0.25088612254850773
% es.tEy (V/m) @ t=2.4
0
% es.tEz (V/m) @ t=2.4
-0.08266007579598167
% V (V) @ t=2.4
0.056449032920708506
% es.normE (V/m) @ t=2.5
0.27449662725481905
% es.EX (V/m) @ t=2.5
0.26010111024400473
% es.EY (V/m) @ t=2.5
-0.018745487479080225
% es.EZ (V/m) @ t=2.5
-0.0856995771476079
% es.tEX (V/m) @ t=2.5
0.26010111024401183
% es.tEY (V/m) @ t=2.5
0
% es.tEZ (V/m) @ t=2.5
-0.08569957714762921
% es.Ex (V/m) @ t=2.5
0.26010111024400473
% es.Ey (V/m) @ t=2.5
-0.018745487479080225
% es.Ez (V/m) @ t=2.5
-0.0856995771476079
% es.tEx (V/m) @ t=2.5
0.26010111024401183
% es.tEy (V/m) @ t=2.5
0
% es.tEz (V/m) @ t=2.5
-0.08569957714762921
% V (V) @ t=2.5
0.05852305973636607
% es.normE (V/m) @ t=2.6
0.28424322746829256
% es.EX (V/m) @ t=2.6
0.2693354535979182
% es.EY (V/m) @ t=2.6
-0.01941004642517896
% es.EZ (V/m) @ t=2.6
-0.08874613171607848
% es.tEX (V/m) @ t=2.6
0.2693354535979182
% es.tEY (V/m) @ t=2.6
0
% es.tEZ (V/m) @ t=2.6
-0.0887461317160998
% es.Ex (V/m) @ t=2.6
0.2693354535979182
% es.Ey (V/m) @ t=2.6
-0.01941004642517896
% es.Ez (V/m) @ t=2.6
-0.08874613171607848
% es.tEx (V/m) @ t=2.6
0.2693354535979182
% es.tEy (V/m) @ t=2.6
0
% es.tEz (V/m) @ t=2.6
-0.0887461317160998
% V (V) @ t=2.6
0.06060157358778282
% es.normE (V/m) @ t=2.7
0.2937753559662966
% es.EX (V/m) @ t=2.7
0.27836678469616416
% es.EY (V/m) @ t=2.7
-0.020060156721314115
% es.EZ (V/m) @ t=2.7
-0.0917250405470611
% es.tEX (V/m) @ t=2.7
0.2783667846961553
% es.tEY (V/m) @ t=2.7
0
% es.tEZ (V/m) @ t=2.7
-0.09172504054710018
% es.Ex (V/m) @ t=2.7
0.27836678469616416
% es.Ey (V/m) @ t=2.7
-0.020060156721314115
% es.Ez (V/m) @ t=2.7
-0.0917250405470611
% es.tEx (V/m) @ t=2.7
0.2783667846961553
% es.tEy (V/m) @ t=2.7
0
% es.tEz (V/m) @ t=2.7
-0.09172504054710018
% V (V) @ t=2.7
0.06263426163542685
% es.normE (V/m) @ t=2.8
0.3026006474308892
% es.EX (V/m) @ t=2.8
0.2867293998912821
% es.EY (V/m) @ t=2.8
-0.020662979412989557
% es.EZ (V/m) @ t=2.8
-0.09447986211546322
% es.tEX (V/m) @ t=2.8
0.28672939989130874
% es.tEY (V/m) @ t=2.8
0
% es.tEZ (V/m) @ t=2.8
-0.09447986211548809
% es.Ex (V/m) @ t=2.8
0.2867293998912821
% es.Ey (V/m) @ t=2.8
-0.020662979412989557
% es.Ez (V/m) @ t=2.8
-0.09447986211546322
% es.tEx (V/m) @ t=2.8
0.28672939989130874
% es.tEy (V/m) @ t=2.8
0
% es.tEz (V/m) @ t=2.8
-0.09447986211548809
% V (V) @ t=2.8
0.06451575403318126
% es.normE (V/m) @ t=2.9
0.3111701081630036
% es.EX (V/m) @ t=2.9
0.2948498834483786
% es.EY (V/m) @ t=2.9
-0.021248594963225287
% es.EZ (V/m) @ t=2.9
-0.09715389676560449
% es.tEX (V/m) @ t=2.9
0.2948498834483928
% es.tEY (V/m) @ t=2.9
0
% es.tEZ (V/m) @ t=2.9
-0.09715389676561514
% es.Ex (V/m) @ t=2.9
0.2948498834483786
% es.Ey (V/m) @ t=2.9
-0.021248594963225287
% es.Ez (V/m) @ t=2.9
-0.09715389676560449
% es.tEx (V/m) @ t=2.9
0.2948498834483928
% es.tEy (V/m) @ t=2.9
0
% es.tEz (V/m) @ t=2.9
-0.09715389676561514
% V (V) @ t=2.9
0.06634256949765162
% es.normE (V/m) @ t=3
0.3194837381780318
% es.EX (V/m) @ t=3
0.3027282353675105
% es.EY (V/m) @ t=3
-0.021817003371680244
% es.EZ (V/m) @ t=3
-0.09974714449728594
% es.tEX (V/m) @ t=3
0.30272823536751403
% es.tEY (V/m) @ t=3
0
% es.tEZ (V/m) @ t=3
-0.09974714449731792
% es.Ex (V/m) @ t=3
0.3027282353675105
% es.Ey (V/m) @ t=3
-0.021817003371680244
% es.Ez (V/m) @ t=3
-0.09974714449728594
% es.tEx (V/m) @ t=3
0.30272823536751403
% es.tEy (V/m) @ t=3
0
% es.tEz (V/m) @ t=3
-0.09974714449731792
% V (V) @ t=3
0.0681147080288379
% es.normE (V/m) @ t=3.1
0.32754153749886067
% es.EX (V/m) @ t=3.1
0.3103644556486671
% es.EY (V/m) @ t=3.1
-0.02236820463841127
% es.EZ (V/m) @ t=3.1
-0.10225960531059286
% es.tEX (V/m) @ t=3.1
0.31036445564866355
% es.tEY (V/m) @ t=3.1
0
% es.tEZ (V/m) @ t=3.1
-0.10225960531061062
% es.Ex (V/m) @ t=3.1
0.3103644556486671
% es.Ey (V/m) @ t=3.1
-0.02236820463841127
% es.Ez (V/m) @ t=3.1
-0.10225960531059286
% es.tEx (V/m) @ t=3.1
0.31036445564866355
% es.tEy (V/m) @ t=3.1
0
% es.tEz (V/m) @ t=3.1
-0.10225960531061062
% V (V) @ t=3.1
0.06983216962674009
% es.normE (V/m) @ t=3.2
0.3353435061550944
% es.EX (V/m) @ t=3.2
0.31775854429188755
% es.EY (V/m) @ t=3.2
-0.022902198763375736
% es.EZ (V/m) @ t=3.2
-0.10469127920555366
% es.tEX (V/m) @ t=3.2
0.31775854429187333
% es.tEY (V/m) @ t=3.2
0
% es.tEZ (V/m) @ t=3.2
-0.10469127920560695
% es.Ex (V/m) @ t=3.2
0.31775854429188755
% es.Ey (V/m) @ t=3.2
-0.022902198763375736
% es.Ez (V/m) @ t=3.2
-0.10469127920555366
% es.tEx (V/m) @ t=3.2
0.31775854429187333
% es.tEy (V/m) @ t=3.2
0
% es.tEz (V/m) @ t=3.2
-0.10469127920560695
% V (V) @ t=3.2
0.07149495429135824
% es.normE (V/m) @ t=3.3
0.34237725745232017
% es.EX (V/m) @ t=3.3
0.3244240231927975
% es.EY (V/m) @ t=3.3
-0.02338309894247459
% es.EZ (V/m) @ t=3.3
-0.10688531367694054
% es.tEX (V/m) @ t=3.3
0.32442402319283303
% es.tEY (V/m) @ t=3.3
0
% es.tEZ (V/m) @ t=3.3
-0.10688531367695475
% es.Ex (V/m) @ t=3.3
0.3244240231927975
% es.Ey (V/m) @ t=3.3
-0.02338309894247459
% es.Ez (V/m) @ t=3.3
-0.10688531367694054
% es.tEx (V/m) @ t=3.3
0.32442402319283303
% es.tEy (V/m) @ t=3.3
0
% es.tEz (V/m) @ t=3.3
-0.10688531367695475
% V (V) @ t=3.3
0.07299427619893745
% es.normE (V/m) @ t=3.4
0.3489528895120635
% es.EX (V/m) @ t=3.4
0.33065531053507513
% es.EY (V/m) @ t=3.4
-0.023832623990102775
% es.EZ (V/m) @ t=3.4
-0.10893663638793782
% es.tEX (V/m) @ t=3.4
0.3306553105351
% es.tEY (V/m) @ t=3.4
0
% es.tEZ (V/m) @ t=3.4
-0.1089366363879698
% es.Ex (V/m) @ t=3.4
0.33065531053507513
% es.Ey (V/m) @ t=3.4
-0.023832623990102775
% es.Ez (V/m) @ t=3.4
-0.10893663638793782
% es.tEx (V/m) @ t=3.4
0.3306553105351
% es.tEy (V/m) @ t=3.4
0
% es.tEz (V/m) @ t=3.4
-0.1089366363879698
% V (V) @ t=3.4
0.07439597289561305
% es.normE (V/m) @ t=3.5
0.3550991784914883
% es.EX (V/m) @ t=3.5
0.33647972742540944
% es.EY (V/m) @ t=3.5
-0.02425278934569519
% es.EZ (V/m) @ t=3.5
-0.11085405633536993
% es.tEX (V/m) @ t=3.5
0.3364797274253881
% es.tEY (V/m) @ t=3.5
0
% es.tEZ (V/m) @ t=3.5
-0.11085405633539125
% es.Ex (V/m) @ t=3.5
0.33647972742540944
% es.Ey (V/m) @ t=3.5
-0.02425278934569519
% es.Ez (V/m) @ t=3.5
-0.11085405633536993
% es.tEx (V/m) @ t=3.5
0.3364797274253881
% es.tEy (V/m) @ t=3.5
0
% es.tEz (V/m) @ t=3.5
-0.11085405633539125
% V (V) @ t=3.5
0.07570615390422224
% es.normE (V/m) @ t=3.6
0.36081612438837035
% es.EX (V/m) @ t=3.6
0.34189727386361923
% es.EY (V/m) @ t=3.6
-0.024643595009393948
% es.EZ (V/m) @ t=3.6
-0.1126375735191516
% es.tEX (V/m) @ t=3.6
0.3418972738636441
% es.tEY (V/m) @ t=3.6
0
% es.tEZ (V/m) @ t=3.6
-0.11263757351919068
% es.Ex (V/m) @ t=3.6
0.34189727386361923
% es.Ey (V/m) @ t=3.6
-0.024643595009393948
% es.Ez (V/m) @ t=3.6
-0.1126375735191516
% es.tEx (V/m) @ t=3.6
0.3418972738636441
% es.tEy (V/m) @ t=3.6
0
% es.tEz (V/m) @ t=3.6
-0.11263757351919068
% V (V) @ t=3.6
0.07692481922476506
% es.normE (V/m) @ t=3.7
0.3660887428561462
% es.EX (V/m) @ t=3.7
0.3468937001705079
% es.EY (V/m) @ t=3.7
-0.02500396940246219
% es.EZ (V/m) @ t=3.7
-0.11428267559927008
% es.tEX (V/m) @ t=3.7
0.34689370017050436
% es.tEY (V/m) @ t=3.7
0
% es.tEZ (V/m) @ t=3.7
-0.11428267559931626
% es.Ex (V/m) @ t=3.7
0.3468937001705079
% es.Ey (V/m) @ t=3.7
-0.02500396940246219
% es.Ez (V/m) @ t=3.7
-0.11428267559927008
% es.tEx (V/m) @ t=3.7
0.34689370017050436
% es.tEy (V/m) @ t=3.7
0
% es.tEz (V/m) @ t=3.7
-0.11428267559931626
% V (V) @ t=3.7
0.078048798206766
% es.normE (V/m) @ t=3.8
0.3707813532624699
% es.EX (V/m) @ t=3.8
0.3513399779845727
% es.EY (V/m) @ t=3.8
-0.025324209566463196
% es.EZ (V/m) @ t=3.8
-0.11574850412330306
% es.tEX (V/m) @ t=3.8
0.3513399779845905
% es.tEY (V/m) @ t=3.8
0
% es.tEZ (V/m) @ t=3.8
-0.11574850412329596
% es.Ex (V/m) @ t=3.8
0.3513399779845727
% es.Ey (V/m) @ t=3.8
-0.025324209566463196
% es.Ez (V/m) @ t=3.8
-0.11574850412330306
% es.tEx (V/m) @ t=3.8
0.3513399779845905
% es.tEy (V/m) @ t=3.8
0
% es.tEz (V/m) @ t=3.8
-0.11574850412329596
% V (V) @ t=3.8
0.07904938116310836
% es.normE (V/m) @ t=3.9
0.3749898444577003
% es.EX (V/m) @ t=3.9
0.35532729482849845
% es.EY (V/m) @ t=3.9
-0.025611172821214723
% es.EZ (V/m) @ t=3.9
-0.11706393476640642
% es.tEX (V/m) @ t=3.9
0.35532729482848424
% es.tEY (V/m) @ t=3.9
0
% es.tEZ (V/m) @ t=3.9
-0.11706393476644195
% es.Ex (V/m) @ t=3.9
0.35532729482849845
% es.Ey (V/m) @ t=3.9
-0.025611172821214723
% es.Ez (V/m) @ t=3.9
-0.11706393476640642
% es.tEx (V/m) @ t=3.9
0.35532729482848424
% es.tEy (V/m) @ t=3.9
0
% es.tEz (V/m) @ t=3.9
-0.11706393476644195
% V (V) @ t=3.9
0.07994685793715864
% es.normE (V/m) @ t=4
0.37871421645282555
% es.EX (V/m) @ t=4
0.35885565070218206
% es.EY (V/m) @ t=4
-0.025864859166773613
% es.EZ (V/m) @ t=4
-0.11822896752858014
% es.tEX (V/m) @ t=4
0.35885565070220693
% es.tEY (V/m) @ t=4
0
% es.tEZ (V/m) @ t=4
-0.11822896752860501
% es.Ex (V/m) @ t=4
0.35885565070218206
% es.Ey (V/m) @ t=4
-0.025864859166773613
% es.Ez (V/m) @ t=4
-0.11822896752858014
% es.tEx (V/m) @ t=4
0.35885565070220693
% es.tEy (V/m) @ t=4
0
% es.tEz (V/m) @ t=4
-0.11822896752860501
% V (V) @ t=4
0.08074122852891676
% es.normE (V/m) @ t=4.1
0.3819544692635869
% es.EX (V/m) @ t=4.1
0.3619250456056804
% es.EY (V/m) @ t=4.1
-0.026085268602969336
% es.EZ (V/m) @ t=4.1
-0.11924360240979581
% es.tEX (V/m) @ t=4.1
0.3619250456056484
% es.tEY (V/m) @ t=4.1
0
% es.tEZ (V/m) @ t=4.1
-0.11924360240982068
% es.Ex (V/m) @ t=4.1
0.3619250456056804
% es.Ey (V/m) @ t=4.1
-0.026085268602969336
% es.Ez (V/m) @ t=4.1
-0.11924360240979581
% es.tEx (V/m) @ t=4.1
0.3619250456056484
% es.tEy (V/m) @ t=4.1
0
% es.tEz (V/m) @ t=4.1
-0.11924360240982068
% V (V) @ t=4.1
0.08143249293838277
% es.normE (V/m) @ t=4.2
0.38475199547893607
% es.EX (V/m) @ t=4.2
0.36457505916695965
% es.EY (V/m) @ t=4.2
-0.02627556293148814
% es.EZ (V/m) @ t=4.2
-0.12011960310900349
% es.tEX (V/m) @ t=4.2
0.36457505916691346
% es.tEY (V/m) @ t=4.2
0
% es.tEZ (V/m) @ t=4.2
-0.12011960310902836
% es.Ex (V/m) @ t=4.2
0.36457505916695965
% es.Ey (V/m) @ t=4.2
-0.02627556293148814
% es.Ez (V/m) @ t=4.2
-0.12011960310900349
% es.tEx (V/m) @ t=4.2
0.36457505916691346
% es.tEy (V/m) @ t=4.2
0
% es.tEz (V/m) @ t=4.2
-0.12011960310902836
% V (V) @ t=4.2
0.08202930727663366
% es.normE (V/m) @ t=4.3
0.3872062538353314
% es.EX (V/m) @ t=4.3
0.3669007939711584
% es.EY (V/m) @ t=4.3
-0.02644333938135901
% es.EZ (V/m) @ t=4.3
-0.12088523563647868
% es.tEX (V/m) @ t=4.3
0.36690079397110154
% es.tEY (V/m) @ t=4.3
0
% es.tEZ (V/m) @ t=4.3
-0.12088523563651066
% es.Ex (V/m) @ t=4.3
0.3669007939711584
% es.Ey (V/m) @ t=4.3
-0.02644333938135901
% es.Ez (V/m) @ t=4.3
-0.12088523563647868
% es.tEx (V/m) @ t=4.3
0.36690079397110154
% es.tEy (V/m) @ t=4.3
0
% es.tEz (V/m) @ t=4.3
-0.12088523563651066
% V (V) @ t=4.3
0.0825524705905866
% es.normE (V/m) @ t=4.4
0.38923338868363155
% es.EX (V/m) @ t=4.4
0.3688220671470255
% es.EY (V/m) @ t=4.4
-0.02658219257853034
% es.EZ (V/m) @ t=4.4
-0.12151666835976016
% es.tEX (V/m) @ t=4.4
0.3688220671470148
% es.tEY (V/m) @ t=4.4
0
% es.tEZ (V/m) @ t=4.4
-0.12151666835980279
% es.Ex (V/m) @ t=4.4
0.3688220671470255
% es.Ey (V/m) @ t=4.4
-0.02658219257853034
% es.Ez (V/m) @ t=4.4
-0.12151666835976016
% es.tEx (V/m) @ t=4.4
0.3688220671470148
% es.tEy (V/m) @ t=4.4
0
% es.tEz (V/m) @ t=4.4
-0.12151666835980279
% V (V) @ t=4.4
0.08298444679228861
% es.normE (V/m) @ t=4.5
0.39083340003506484
% es.EX (V/m) @ t=4.5
0.3703388786948132
% es.EY (V/m) @ t=4.5
-0.026692122522831596
% es.EZ (V/m) @ t=4.5
-0.12201390127876266
% es.tEX (V/m) @ t=4.5
0.3703388786948132
% es.tEY (V/m) @ t=4.5
0
% es.tEZ (V/m) @ t=4.5
-0.12201390127878753
% es.Ex (V/m) @ t=4.5
0.3703388786948132
% es.Ey (V/m) @ t=4.5
-0.026692122522831596
% es.Ez (V/m) @ t=4.5
-0.12201390127876266
% es.tEx (V/m) @ t=4.5
0.3703388786948132
% es.tEy (V/m) @ t=4.5
0
% es.tEz (V/m) @ t=4.5
-0.12201390127878753
% V (V) @ t=4.5
0.08332523588173968
% es.normE (V/m) @ t=4.6
0.3920062879070429
% es.EX (V/m) @ t=4.6
0.37145122861442204
% es.EY (V/m) @ t=4.6
-0.026773129214461733
% es.EZ (V/m) @ t=4.6
-0.12237693439354302
% es.tEX (V/m) @ t=4.6
0.37145122861445756
% es.tEY (V/m) @ t=4.6
0
% es.tEZ (V/m) @ t=4.6
-0.122376934393575
% es.Ex (V/m) @ t=4.6
0.37145122861442204
% es.Ey (V/m) @ t=4.6
-0.026773129214461733
% es.Ez (V/m) @ t=4.6
-0.12237693439354302
% es.tEx (V/m) @ t=4.6
0.37145122861445756
% es.tEy (V/m) @ t=4.6
0
% es.tEz (V/m) @ t=4.6
-0.122376934393575
% V (V) @ t=4.6
0.08357483785893981
% es.normE (V/m) @ t=4.7
0.3928763693549462
% es.EX (V/m) @ t=4.7
0.3722762374029429
% es.EY (V/m) @ t=4.7
-0.02683306887161052
% es.EZ (V/m) @ t=4.7
-0.12264677361253007
% es.tEX (V/m) @ t=4.7
0.3722762374029642
% es.tEY (V/m) @ t=4.7
0
% es.tEZ (V/m) @ t=4.7
-0.12264677361258336
% es.Ex (V/m) @ t=4.7
0.3722762374029429
% es.Ey (V/m) @ t=4.7
-0.02683306887161052
% es.Ez (V/m) @ t=4.7
-0.12264677361253007
% es.tEx (V/m) @ t=4.7
0.3722762374029642
% es.tEy (V/m) @ t=4.7
0
% es.tEz (V/m) @ t=4.7
-0.12264677361258336
% V (V) @ t=4.7
0.08376007708301106
% es.normE (V/m) @ t=4.8
0.39354163008089454
% es.EX (V/m) @ t=4.8
0.3729062185237808
% es.EY (V/m) @ t=4.8
-0.026878133704741458
% es.EZ (V/m) @ t=4.8
-0.12285573947346506
% es.tEX (V/m) @ t=4.8
0.3729062185238199
% es.tEY (V/m) @ t=4.8
0
% es.tEZ (V/m) @ t=4.8
-0.12285573947353257
% es.Ex (V/m) @ t=4.8
0.3729062185237808
% es.Ey (V/m) @ t=4.8
-0.026878133704741458
% es.Ez (V/m) @ t=4.8
-0.12285573947346506
% es.tEx (V/m) @ t=4.8
0.3729062185238199
% es.tEy (V/m) @ t=4.8
0
% es.tEz (V/m) @ t=4.8
-0.12285573947353257
% V (V) @ t=4.8
0.08390209630485294
% es.normE (V/m) @ t=4.9
0.39388259465069375
% es.EX (V/m) @ t=4.9
0.3732286128045139
% es.EY (V/m) @ t=4.9
-0.02690077346002795
% es.EZ (V/m) @ t=4.9
-0.12296442306632116
% es.tEX (V/m) @ t=4.9
0.37322861280448194
% es.tEY (V/m) @ t=4.9
0
% es.tEZ (V/m) @ t=4.9
-0.12296442306634958
% es.Ex (V/m) @ t=4.9
0.3732286128045139
% es.Ey (V/m) @ t=4.9
-0.02690077346002795
% es.Ez (V/m) @ t=4.9
-0.12296442306632116
% es.tEx (V/m) @ t=4.9
0.37322861280448194
% es.tEy (V/m) @ t=4.9
0
% es.tEz (V/m) @ t=4.9
-0.12296442306634958
% V (V) @ t=4.9
0.08397511585533261
% es.normE (V/m) @ t=5
0.39389926308359513
% es.EX (V/m) @ t=5
0.3732434202450996
% es.EY (V/m) @ t=5
-0.026900988138010007
% es.EZ (V/m) @ t=5
-0.1229728243911552
% es.tEX (V/m) @ t=5
0.37324342024515644
% es.tEY (V/m) @ t=5
0
% es.tEZ (V/m) @ t=5
-0.12297282439118007
% es.Ex (V/m) @ t=5
0.3732434202450996
% es.Ey (V/m) @ t=5
-0.026900988138010007
% es.Ez (V/m) @ t=5
-0.1229728243911552
% es.tEx (V/m) @ t=5
0.37324342024515644
% es.tEy (V/m) @ t=5
0
% es.tEz (V/m) @ t=5
-0.12297282439118007
% V (V) @ t=5
0.08397913573445008
% es.normE (V/m) @ t=5.1
0.3935916354072933
% es.EX (V/m) @ t=5.1
0.37295064084572616
% es.EY (V/m) @ t=5.1
-0.026878777738232884
% es.EZ (V/m) @ t=5.1
-0.12288094344791034
% es.tEX (V/m) @ t=5.1
0.37295064084571905
% es.tEY (V/m) @ t=5.1
0
% es.tEZ (V/m) @ t=5.1
-0.12288094344792455
% es.Ex (V/m) @ t=5.1
0.37295064084572616
% es.Ey (V/m) @ t=5.1
-0.026878777738232884
% es.Ez (V/m) @ t=5.1
-0.12288094344791034
% es.tEx (V/m) @ t=5.1
0.37295064084571905
% es.tEy (V/m) @ t=5.1
0
% es.tEz (V/m) @ t=5.1
-0.12288094344792455
% V (V) @ t=5.1
0.08391415594220535
% es.normE (V/m) @ t=5.2
0.3930558784546136
% es.EX (V/m) @ t=5.2
0.3724421433878966
% es.EY (V/m) @ t=5.2
-0.026841406917981203
% es.EZ (V/m) @ t=5.2
-0.12271638965933107
% es.tEX (V/m) @ t=5.2
0.37244214338787884
% es.tEY (V/m) @ t=5.2
0
% es.tEZ (V/m) @ t=5.2
-0.12271638965935594