% Model:              1x1--2 - Copy1.mph
% Version:            COMSOL 6.0.0.405
% Date:               Mar 2 2023, 11:58
% Dimension:          0
% Nodes:              14017
% Expressions:        14017
% Description:        Electric field norm, Electric field, X component, Electric field, Y component, Electric field, Z component, Tangential electric field, X component, Tangential electric field, Y component, Tangential electric field, Z component, Electric field, x component, Electric field, y component, Electric field, z component, Tangential electric field, x component, Tangential electric field, y component, Tangential electric field, z component, Electric potential
% Length unit:        mm
% x
1.333
% y
14.200000000000001
% z
1.33
% es.normE (V/m) @ t=0
0.04508172301527892
% es.EX (V/m) @ t=0
0.02829685959339656
% es.EY (V/m) @ t=0
0.019509864923354492
% es.EZ (V/m) @ t=0
0.029172155522867893
% es.tEX (V/m) @ t=0
0.028296859593388124
% es.tEY (V/m) @ t=0
0
% es.tEZ (V/m) @ t=0
0.029172155522882548
% es.Ex (V/m) @ t=0
0.02829685959339656
% es.Ey (V/m) @ t=0
0.019509864923354492
% es.Ez (V/m) @ t=0
0.029172155522867893
% es.tEx (V/m) @ t=0
0.028296859593388124
% es.tEy (V/m) @ t=0
0
% es.tEz (V/m) @ t=0
0.029172155522882548
% V (V) @ t=0
0.019882604070099164
% es.normE (V/m) @ t=0.1
0.0476859978114123
% es.EX (V/m) @ t=0.1
0.029931460930993303
% es.EY (V/m) @ t=0.1
0.020636933882080655
% es.EZ (V/m) @ t=0.1
0.030857397715184476
% es.tEX (V/m) @ t=0.1
0.029931460930983977
% es.tEY (V/m) @ t=0.1
0
% es.tEZ (V/m) @ t=0.1
0.030857397715184476
% es.Ex (V/m) @ t=0.1
0.029931460930993303
% es.Ey (V/m) @ t=0.1
0.020636933882080655
% es.Ez (V/m) @ t=0.1
0.030857397715184476
% es.tEx (V/m) @ t=0.1
0.029931460930983977
% es.tEy (V/m) @ t=0.1
0
% es.tEz (V/m) @ t=0.1
0.030857397715184476
% V (V) @ t=0.1
0.021031200563448302
% es.normE (V/m) @ t=0.2
0.050960989818364555
% es.EX (V/m) @ t=0.2
0.031987808112141636
% es.EY (V/m) @ t=0.2
0.02205378631891719
% es.EZ (V/m) @ t=0.2
0.03297625091558776
% es.tEX (V/m) @ t=0.2
0.031987808112132754
% es.tEY (V/m) @ t=0.2
0
% es.tEZ (V/m) @ t=0.2
0.03297625091559908
% es.Ex (V/m) @ t=0.2
0.031987808112141636
% es.Ey (V/m) @ t=0.2
0.02205378631891719
% es.Ez (V/m) @ t=0.2
0.03297625091558776
% es.tEx (V/m) @ t=0.2
0.031987808112132754
% es.tEy (V/m) @ t=0.2
0
% es.tEz (V/m) @ t=0.2
0.03297625091559908
% V (V) @ t=0.2
0.022475296879028505
% es.normE (V/m) @ t=0.3
0.05436929311648351
% es.EX (V/m) @ t=0.3
0.03412857779497536
% es.EY (V/m) @ t=0.3
0.023527853317482972
% es.EZ (V/m) @ t=0.3
0.03518096544936511
% es.tEX (V/m) @ t=0.3
0.034128577794966475
% es.tEY (V/m) @ t=0.3
0
% es.tEZ (V/m) @ t=0.3
0.035180965449377766
% es.Ex (V/m) @ t=0.3
0.03412857779497536
% es.Ey (V/m) @ t=0.3
0.023527853317482972
% es.Ez (V/m) @ t=0.3
0.03518096544936511
% es.tEx (V/m) @ t=0.3
0.034128577794966475
% es.tEy (V/m) @ t=0.3
0
% es.tEz (V/m) @ t=0.3
0.035180965449377766
% V (V) @ t=0.3
0.023977880678237827
% es.normE (V/m) @ t=0.4
0.05800487529304177
% es.EX (V/m) @ t=0.4
0.03641018380813765
% es.EY (V/m) @ t=0.4
0.025101446130607385
% es.EZ (V/m) @ t=0.4
0.0375337378230729
% es.tEX (V/m) @ t=0.4
0.036410183808131436
% es.tEY (V/m) @ t=0.4
0
% es.tEZ (V/m) @ t=0.4
0.03753373782307179
% es.Ex (V/m) @ t=0.4
0.03641018380813765
% es.Ey (V/m) @ t=0.4
0.025101446130607385
% es.Ez (V/m) @ t=0.4
0.0375337378230729
% es.tEx (V/m) @ t=0.4
0.036410183808131436
% es.tEy (V/m) @ t=0.4
0
% es.tEz (V/m) @ t=0.4
0.03753373782307179
% V (V) @ t=0.4
0.025581453694032398
% es.normE (V/m) @ t=0.5
0.0617501515381283
% es.EX (V/m) @ t=0.5
0.03875993188931126
% es.EY (V/m) @ t=0.5
0.026722966071317522
% es.EZ (V/m) @ t=0.5
0.039957877562114996
% es.tEX (V/m) @ t=0.5
0.03875993188930149
% es.tEY (V/m) @ t=0.5
0
% es.tEZ (V/m) @ t=0.5
0.03995787756211655
% es.Ex (V/m) @ t=0.5
0.03875993188931126
% es.Ey (V/m) @ t=0.5
0.026722966071317522
% es.Ez (V/m) @ t=0.5
0.039957877562114996
% es.tEx (V/m) @ t=0.5
0.03875993188930149
% es.tEy (V/m) @ t=0.5
0
% es.tEz (V/m) @ t=0.5
0.03995787756211655
% V (V) @ t=0.5
0.02723369864243761
% es.normE (V/m) @ t=0.6
0.06562959009742467
% es.EX (V/m) @ t=0.6
0.04119304996970463
% es.EY (V/m) @ t=0.6
0.028403085572158204
% es.EZ (V/m) @ t=0.6
0.04246928843917752
% es.tEX (V/m) @ t=0.6
0.041193049969697526
% es.tEY (V/m) @ t=0.6
0
% es.tEZ (V/m) @ t=0.6
0.04246928843919662
% es.Ex (V/m) @ t=0.6
0.04119304996970463
% es.Ey (V/m) @ t=0.6
0.028403085572158204
% es.Ez (V/m) @ t=0.6
0.04246928843917752
% es.tEx (V/m) @ t=0.6
0.041193049969697526
% es.tEy (V/m) @ t=0.6
0
% es.tEz (V/m) @ t=0.6
0.04246928843919662
% V (V) @ t=0.6
0.028945460544183274
% es.normE (V/m) @ t=0.7
0.0696163445596929
% es.EX (V/m) @ t=0.7
0.043695008044766226
% es.EY (V/m) @ t=0.7
0.030128699383135782
% es.EZ (V/m) @ t=0.7
0.04504934156347162
% es.tEX (V/m) @ t=0.7
0.0436950080447529
% es.tEY (V/m) @ t=0.7
0
% es.tEZ (V/m) @ t=0.7
0.04504934156348028
% es.Ex (V/m) @ t=0.7
0.043695008044766226
% es.Ey (V/m) @ t=0.7
0.030128699383135782
% es.Ez (V/m) @ t=0.7
0.04504934156347162
% es.tEx (V/m) @ t=0.7
0.0436950080447529
% es.tEy (V/m) @ t=0.7
0
% es.tEz (V/m) @ t=0.7
0.04504934156348028
% V (V) @ t=0.7
0.030703942280249114
% es.normE (V/m) @ t=0.8
0.07371030240743837
% es.EX (V/m) @ t=0.8
0.046265733967112865
% es.EY (V/m) @ t=0.8
0.03189975982415927
% es.EZ (V/m) @ t=0.8
0.047697964994759534
% es.tEX (V/m) @ t=0.8
0.046265733967103095
% es.tEY (V/m) @ t=0.8
0
% es.tEZ (V/m) @ t=0.8
0.04769796499476797
% es.Ex (V/m) @ t=0.8
0.046265733967112865
% es.Ey (V/m) @ t=0.8
0.03189975982415927
% es.Ez (V/m) @ t=0.8
0.047697964994759534
% es.tEx (V/m) @ t=0.8
0.046265733967103095
% es.tEy (V/m) @ t=0.8
0
% es.tEz (V/m) @ t=0.8
0.04769796499476797
% V (V) @ t=0.8
0.032509094886181235
% es.normE (V/m) @ t=0.9
0.07790380852008355
% es.EX (V/m) @ t=0.9
0.0489003171355904
% es.EY (V/m) @ t=0.9
0.033713021624684814
% es.EZ (V/m) @ t=0.9
0.05041026223802114
% es.tEX (V/m) @ t=0.9
0.0489003171355753
% es.tEY (V/m) @ t=0.9
0
% es.tEZ (V/m) @ t=0.9
0.05041026223803868
% es.Ex (V/m) @ t=0.9
0.0489003171355904
% es.Ey (V/m) @ t=0.9
0.033713021624684814
% es.Ez (V/m) @ t=0.9
0.05041026223802114
% es.tEx (V/m) @ t=0.9
0.0489003171355753
% es.tEy (V/m) @ t=0.9
0
% es.tEz (V/m) @ t=0.9
0.05041026223803868
% V (V) @ t=0.9
0.03435758567035459
% es.normE (V/m) @ t=1
0.08216710893733573
% es.EX (V/m) @ t=1
0.05157644689614749
% es.EY (V/m) @ t=1
0.035557937644014714
% es.EZ (V/m) @ t=1
0.053168947584029125
% es.tEX (V/m) @ t=1
0.05157644689614216
% es.tEY (V/m) @ t=1
0
% es.tEZ (V/m) @ t=1
0.05316894758403379
% es.Ex (V/m) @ t=1
0.05157644689614749
% es.Ey (V/m) @ t=1
0.035557937644014714
% es.Ez (V/m) @ t=1
0.053168947584029125
% es.tEx (V/m) @ t=1
0.05157644689614216
% es.tEy (V/m) @ t=1
0
% es.tEz (V/m) @ t=1
0.05316894758403379
% V (V) @ t=1
0.03623779067433575
% es.normE (V/m) @ t=1.1
0.08650744063795798
% es.EX (V/m) @ t=1.1
0.05429954983559604
% es.EY (V/m) @ t=1.1
0.03743707324751533
% es.EZ (V/m) @ t=1.1
0.055978225409900384
% es.tEX (V/m) @ t=1.1
0.05429954983559693
% es.tEY (V/m) @ t=1.1
0
% es.tEZ (V/m) @ t=1.1
0.055978225409909044
% es.Ex (V/m) @ t=1.1
0.05429954983559604
% es.Ey (V/m) @ t=1.1
0.03743707324751533
% es.Ez (V/m) @ t=1.1
0.055978225409900384
% es.tEx (V/m) @ t=1.1
0.05429954983559693
% es.tEy (V/m) @ t=1.1
0
% es.tEz (V/m) @ t=1.1
0.055978225409909044
% V (V) @ t=1.1
0.038152537176013565
% es.normE (V/m) @ t=1.2
0.09092907487372986
% es.EX (V/m) @ t=1.2
0.05707282864731056
% es.EY (V/m) @ t=1.2
0.03935194247651275
% es.EZ (V/m) @ t=1.2
0.05884057707834223
% es.tEX (V/m) @ t=1.2
0.057072828647302565
% es.tEY (V/m) @ t=1.2
0
% es.tEZ (V/m) @ t=1.2
0.058840577078349554
% es.Ex (V/m) @ t=1.2
0.05707282864731056
% es.Ey (V/m) @ t=1.2
0.03935194247651275
% es.Ez (V/m) @ t=1.2
0.05884057707834223
% es.tEx (V/m) @ t=1.2
0.057072828647302565
% es.tEy (V/m) @ t=1.2
0
% es.tEz (V/m) @ t=1.2
0.058840577078349554
% V (V) @ t=1.2
0.04010349379412354
% es.normE (V/m) @ t=1.3
0.0953501060579196
% es.EX (V/m) @ t=1.3
0.059848417095063056
% es.EY (V/m) @ t=1.3
0.041264828827021205
% es.EZ (V/m) @ t=1.3
0.06170108263514118
% es.tEX (V/m) @ t=1.3
0.0598484170950595
% es.tEY (V/m) @ t=1.3
0
% es.tEZ (V/m) @ t=1.3
0.06170108263517449
% es.Ex (V/m) @ t=1.3
0.059848417095063056
% es.Ey (V/m) @ t=1.3
0.041264828827021205
% es.Ez (V/m) @ t=1.3
0.06170108263514118
% es.tEx (V/m) @ t=1.3
0.0598484170950595
% es.tEy (V/m) @ t=1.3
0
% es.tEz (V/m) @ t=1.3
0.06170108263517449
% V (V) @ t=1.3
0.0420530759986603
% es.normE (V/m) @ t=1.4
0.0997814168833227
% es.EX (V/m) @ t=1.4
0.06263267507158865
% es.EY (V/m) @ t=1.4
0.04318074361671442
% es.EZ (V/m) @ t=1.4
0.06456703918662998
% es.tEX (V/m) @ t=1.4
0.06263267507158599
% es.tEY (V/m) @ t=1.4
0
% es.tEZ (V/m) @ t=1.4
0.06456703918664175
% es.Ex (V/m) @ t=1.4
0.06263267507158865
% es.Ey (V/m) @ t=1.4
0.04318074361671442
% es.Ez (V/m) @ t=1.4
0.06456703918662998
% es.tEx (V/m) @ t=1.4
0.06263267507158599
% es.tEy (V/m) @ t=1.4
0
% es.tEz (V/m) @ t=1.4
0.06456703918664175
% V (V) @ t=1.4
0.04400627757227266
% es.normE (V/m) @ t=1.5
0.10423963366200317
% es.EX (V/m) @ t=1.5
0.06543531899649402
% es.EY (V/m) @ t=1.5
0.0451073429600779
% es.EZ (V/m) @ t=1.5
0.06744959499431857
% es.tEX (V/m) @ t=1.5
0.06543531899647625
% es.tEY (V/m) @ t=1.5
0
% es.tEZ (V/m) @ t=1.5
0.06744959499436476
% es.Ex (V/m) @ t=1.5
0.06543531899649402
% es.Ey (V/m) @ t=1.5
0.0451073429600779
% es.Ez (V/m) @ t=1.5
0.06744959499431857
% es.tEx (V/m) @ t=1.5
0.06543531899647625
% es.tEy (V/m) @ t=1.5
0
% es.tEz (V/m) @ t=1.5
0.06744959499436476
% V (V) @ t=1.5
0.04597072783976136
% es.normE (V/m) @ t=1.6
0.10860624108959617
% es.EX (V/m) @ t=1.6
0.06817668250410946
% es.EY (V/m) @ t=1.6
0.04699671962118579
% es.EZ (V/m) @ t=1.6
0.070274916657318
% es.tEX (V/m) @ t=1.6
0.06817668250410236
% es.tEY (V/m) @ t=1.6
0
% es.tEZ (V/m) @ t=1.6
0.07027491665731844
% es.Ex (V/m) @ t=1.6
0.06817668250410946
% es.Ey (V/m) @ t=1.6
0.04699671962118579
% es.Ez (V/m) @ t=1.6
0.070274916657318
% es.tEx (V/m) @ t=1.6
0.06817668250410236
% es.tEy (V/m) @ t=1.6
0
% es.tEz (V/m) @ t=1.6
0.07027491665731844
% V (V) @ t=1.6
0.04789633327799207
% es.normE (V/m) @ t=1.7
0.11288202705854394
% es.EX (V/m) @ t=1.7
0.07085729526154871
% es.EY (V/m) @ t=1.7
0.04884919211437122
% es.EZ (V/m) @ t=1.7
0.07304349506175623
% es.tEX (V/m) @ t=1.7
0.07085729526151496
% es.tEY (V/m) @ t=1.7
0
% es.tEZ (V/m) @ t=1.7
0.07304349506177488
% es.Ex (V/m) @ t=1.7
0.07085729526154871
% es.Ey (V/m) @ t=1.7
0.04884919211437122
% es.Ez (V/m) @ t=1.7
0.07304349506175623
% es.tEx (V/m) @ t=1.7
0.07085729526151496
% es.tEy (V/m) @ t=1.7
0
% es.tEz (V/m) @ t=1.7
0.07304349506177488
% V (V) @ t=1.7
0.04978342693706607
% es.normE (V/m) @ t=1.8
0.11709905816689133
% es.EX (V/m) @ t=1.8
0.07349871229281035
% es.EY (V/m) @ t=1.8
0.05067772251749325
% es.EZ (V/m) @ t=1.8
0.07577530702881807
% es.tEX (V/m) @ t=1.8
0.07349871229279437
% es.tEY (V/m) @ t=1.8
0
% es.tEZ (V/m) @ t=1.8
0.0757753070288274
% es.Ex (V/m) @ t=1.8
0.07349871229281035
% es.Ey (V/m) @ t=1.8
0.05067772251749325
% es.Ez (V/m) @ t=1.8
0.07577530702881807
% es.tEx (V/m) @ t=1.8
0.07349871229279437
% es.tEy (V/m) @ t=1.8
0
% es.tEz (V/m) @ t=1.8
0.0757753070288274
% V (V) @ t=1.8
0.05164556243006371
% es.normE (V/m) @ t=1.9
0.1212184044359435
% es.EX (V/m) @ t=1.9
0.0760787259915876
% es.EY (V/m) @ t=1.9
0.052464035662127984
% es.EZ (V/m) @ t=1.9
0.07844395443586372
% es.tEX (V/m) @ t=1.9
0.0760787259915876
% es.tEY (V/m) @ t=1.9
0
% es.tEZ (V/m) @ t=1.9
0.07844395443589036
% es.Ex (V/m) @ t=1.9
0.0760787259915876
% es.Ey (V/m) @ t=1.9
0.052464035662127984
% es.Ez (V/m) @ t=1.9
0.07844395443586372
% es.tEx (V/m) @ t=1.9
0.0760787259915876
% es.tEy (V/m) @ t=1.9
0
% es.tEz (V/m) @ t=1.9
0.07844395443589036
% V (V) @ t=1.9
0.05346465147120783
% es.normE (V/m) @ t=2
0.12521663503454109
% es.EX (V/m) @ t=2
0.07858397046909182
% es.EY (V/m) @ t=2
0.05419713244019775
% es.EZ (V/m) @ t=2
0.08103354928636675
% es.tEX (V/m) @ t=2
0.07858397046906518
% es.tEY (V/m) @ t=2
0
% es.tEZ (V/m) @ t=2
0.08103354928639561
% es.Ex (V/m) @ t=2
0.07858397046909182
% es.Ey (V/m) @ t=2
0.05419713244019775
% es.Ez (V/m) @ t=2
0.08103354928636675
% es.tEx (V/m) @ t=2
0.07858397046906518
% es.tEy (V/m) @ t=2
0
% es.tEz (V/m) @ t=2
0.08103354928639561
% V (V) @ t=2
0.05522980742952273
% es.normE (V/m) @ t=2.1
0.12909169014269978
% es.EX (V/m) @ t=2.1
0.08101327085436338
% es.EY (V/m) @ t=2.1
0.05587604602239438
% es.EZ (V/m) @ t=2.1
0.08354269501446332
% es.tEX (V/m) @ t=2.1
0.08101327085433496
% es.tEY (V/m) @ t=2.1
0
% es.tEZ (V/m) @ t=2.1
0.08354269501451483
% es.Ex (V/m) @ t=2.1
0.08101327085436338
% es.Ey (V/m) @ t=2.1
0.05587604602239438
% es.Ez (V/m) @ t=2.1
0.08354269501446332
% es.tEx (V/m) @ t=2.1
0.08101327085433496
% es.tEy (V/m) @ t=2.1
0
% es.tEz (V/m) @ t=2.1
0.08354269501451483
% V (V) @ t=2.1
0.056940073362556534
% es.normE (V/m) @ t=2.2
0.13282995319565333
% es.EX (V/m) @ t=2.2
0.08335885980544333
% es.EY (V/m) @ t=2.2
0.057494384477907445
% es.EZ (V/m) @ t=2.2
0.08596215860134304
% es.tEX (V/m) @ t=2.2
0.08335885980542024
% es.tEY (V/m) @ t=2.2
0
% es.tEZ (V/m) @ t=2.2
0.0859621586013688
% es.Ex (V/m) @ t=2.2
0.08335885980544333
% es.Ey (V/m) @ t=2.2
0.057494384477907445
% es.Ez (V/m) @ t=2.2
0.08596215860134304
% es.tEx (V/m) @ t=2.2
0.08335885980542024
% es.tEy (V/m) @ t=2.2
0
% es.tEz (V/m) @ t=2.2
0.0859621586013688
% V (V) @ t=2.2
0.05858912270374156
% es.normE (V/m) @ t=2.3
0.1364178077676494
% es.EX (V/m) @ t=2.3
0.08561296998048107
% es.EY (V/m) @ t=2.3
0.059045755876173445
% es.EZ (V/m) @ t=2.3
0.08828270702840912
% es.tEX (V/m) @ t=2.3
0.08561296998046508
% es.tEY (V/m) @ t=2.3
0
% es.tEZ (V/m) @ t=2.3
0.08828270702844065
% es.Ex (V/m) @ t=2.3
0.08561296998048107
% es.Ey (V/m) @ t=2.3
0.059045755876173445
% es.Ez (V/m) @ t=2.3
0.08828270702840912
% es.tEx (V/m) @ t=2.3
0.08561296998046508
% es.tEy (V/m) @ t=2.3
0
% es.tEz (V/m) @ t=2.3
0.08828270702844065
% V (V) @ t=2.3
0.06017062888651002
% es.normE (V/m) @ t=2.4
0.1398416377920996
% es.EX (V/m) @ t=2.4
0.08776783403765087
% es.EY (V/m) @ t=2.4
0.060523768286648405
% es.EZ (V/m) @ t=2.4
0.09049510727713539
% es.tEX (V/m) @ t=2.4
0.087767834037626
% es.tEY (V/m) @ t=2.4
0
% es.tEZ (V/m) @ t=2.4
0.09049510727718513
% es.Ex (V/m) @ t=2.4
0.08776783403765087
% es.Ey (V/m) @ t=2.4
0.060523768286648405
% es.Ez (V/m) @ t=2.4
0.09049510727713539
% es.tEx (V/m) @ t=2.4
0.087767834037626
% es.tEy (V/m) @ t=2.4
0
% es.tEz (V/m) @ t=2.4
0.09049510727718513
% V (V) @ t=2.4
0.06167826534429416
% es.normE (V/m) @ t=2.5
0.14312997100137323
% es.EX (V/m) @ t=2.5
0.08983689574146148
% es.EY (V/m) @ t=2.5
0.06194362624887617
% es.EZ (V/m) @ t=2.5
0.09262023498961369
% es.tEX (V/m) @ t=2.5
0.08983689574143128
% es.tEY (V/m) @ t=2.5
0
% es.tEZ (V/m) @ t=2.5
0.09262023498962435
% es.Ex (V/m) @ t=2.5
0.08983689574146148
% es.Ey (V/m) @ t=2.5
0.06194362624887617
% es.Ez (V/m) @ t=2.5
0.09262023498961369
% es.tEx (V/m) @ t=2.5
0.08983689574143128
% es.tEy (V/m) @ t=2.5
0
% es.tEz (V/m) @ t=2.5
0.09262023498962435
% V (V) @ t=2.5
0.06312645314630425
% es.normE (V/m) @ t=2.6
0.1462898205346264
% es.EX (V/m) @ t=2.6
0.09182277083331059
% es.EY (V/m) @ t=2.6
0.0633095095555305
% es.EZ (V/m) @ t=2.6
0.09466359568696259
% es.tEX (V/m) @ t=2.6
0.09182277083329993
% es.tEY (V/m) @ t=2.6
0
% es.tEZ (V/m) @ t=2.6
0.09466359568695282
% es.Ex (V/m) @ t=2.6
0.09182277083331059
% es.Ey (V/m) @ t=2.6
0.0633095095555305
% es.Ez (V/m) @ t=2.6
0.09466359568696259
% es.tEx (V/m) @ t=2.6
0.09182277083329993
% es.tEy (V/m) @ t=2.6
0
% es.tEz (V/m) @ t=2.6
0.09466359568695282
% V (V) @ t=2.6
0.06451902193487091
% es.normE (V/m) @ t=2.7
0.14929020542308216
% es.EX (V/m) @ t=2.7
0.09370895222318154
% es.EY (V/m) @ t=2.7
0.06460612774370489
% es.EZ (V/m) @ t=2.7
0.09660355048580582
% es.tEX (V/m) @ t=2.7
0.09370895222317266
% es.tEY (V/m) @ t=2.7
0
% es.tEZ (V/m) @ t=2.7
0.09660355048582403
% es.Ex (V/m) @ t=2.7
0.09370895222318154
% es.Ey (V/m) @ t=2.7
0.06460612774370489
% es.Ez (V/m) @ t=2.7
0.09660355048580582
% es.tEx (V/m) @ t=2.7
0.09370895222317266
% es.tEy (V/m) @ t=2.7
0
% es.tEz (V/m) @ t=2.7
0.09660355048582403
% V (V) @ t=2.7
0.06584109636218739
% es.normE (V/m) @ t=2.8
0.15212432765886955
% es.EX (V/m) @ t=2.8
0.09549110425009744
% es.EY (V/m) @ t=2.8
0.06583058291075616
% es.EZ (V/m) @ t=2.8
0.09843573755699797
% es.tEX (V/m) @ t=2.8
0.09549110425007257
% es.tEY (V/m) @ t=2.8
0
% es.tEZ (V/m) @ t=2.8
0.09843573755703972
% es.Ex (V/m) @ t=2.8
0.09549110425009744
% es.Ey (V/m) @ t=2.8
0.06583058291075616
% es.Ez (V/m) @ t=2.8
0.09843573755699797
% es.tEx (V/m) @ t=2.8
0.09549110425007257
% es.tEy (V/m) @ t=2.8
0
% es.tEz (V/m) @ t=2.8
0.09843573755703972
% V (V) @ t=2.8
0.06708970655896518
% es.normE (V/m) @ t=2.9
0.1547853892265196
% es.EX (V/m) @ t=2.9
0.09716489125287531
% es.EY (V/m) @ t=2.9
0.06697997715361304
% es.EZ (V/m) @ t=2.9
0.10015579507109695
% es.tEX (V/m) @ t=2.9
0.09716489125285221
% es.tEY (V/m) @ t=2.9
0
% es.tEZ (V/m) @ t=2.9
0.1001557950711458
% es.Ex (V/m) @ t=2.9
0.09716489125287531
% es.Ey (V/m) @ t=2.9
0.06697997715361304
% es.Ez (V/m) @ t=2.9
0.10015579507109695
% es.tEx (V/m) @ t=2.9
0.09716489125285221
% es.tEy (V/m) @ t=2.9
0
% es.tEz (V/m) @ t=2.9
0.1001557950711458
% V (V) @ t=2.9
0.06826188265591579
% es.normE (V/m) @ t=3
0.15726659210201074
% es.EX (V/m) @ t=3
0.09872597757038903
% es.EY (V/m) @ t=3
0.0680514125689502
% es.EZ (V/m) @ t=3
0.1017593611984755
% es.tEX (V/m) @ t=3
0.09872597757036061
% es.tEY (V/m) @ t=3
0
% es.tEZ (V/m) @ t=3
0.10175936119847506
% es.Ex (V/m) @ t=3
0.09872597757038903
% es.Ey (V/m) @ t=3
0.0680514125689502
% es.Ez (V/m) @ t=3
0.1017593611984755
% es.tEx (V/m) @ t=3
0.09872597757036061
% es.tEy (V/m) @ t=3
0
% es.tEz (V/m) @ t=3
0.10175936119847506
% V (V) @ t=3
0.06935465478375082
% es.normE (V/m) @ t=3.1
0.15963933871222524
% es.EX (V/m) @ t=3.1
0.10021811894635846
% es.EY (V/m) @ t=3.1
0.06907646984128313
% es.EZ (V/m) @ t=3.1
0.10329321571911887
% es.tEX (V/m) @ t=3.1
0.10021811894633537
% es.tEY (V/m) @ t=3.1
0
% es.tEZ (V/m) @ t=3.1
0.10329321571911976
% es.Ex (V/m) @ t=3.1
0.10021811894635846
% es.Ey (V/m) @ t=3.1
0.06907646984128313
% es.Ez (V/m) @ t=3.1
0.10329321571911887
% es.tEx (V/m) @ t=3.1
0.10021811894633537
% es.tEy (V/m) @ t=3.1
0
% es.tEz (V/m) @ t=3.1
0.10329321571911976
% V (V) @ t=3.1
0.07039995158715501
% es.normE (V/m) @ t=3.2
0.16196904586916225
% es.EX (V/m) @ t=3.2
0.10168139017673461
% es.EY (V/m) @ t=3.2
0.07008409064089705
% es.EZ (V/m) @ t=3.2
0.10480022400039024
% es.tEX (V/m) @ t=3.2
0.10168139017673816
% es.tEY (V/m) @ t=3.2
0
% es.tEZ (V/m) @ t=3.2
0.1048002240004422
% es.Ex (V/m) @ t=3.2
0.10168139017673461
% es.Ey (V/m) @ t=3.2
0.07008409064089705
% es.Ez (V/m) @ t=3.2
0.10480022400039024
% es.tEx (V/m) @ t=3.2
0.10168139017673816
% es.tEy (V/m) @ t=3.2
0
% es.tEz (V/m) @ t=3.2
0.1048002240004422
% V (V) @ t=3.2
0.07142703055563784
% es.normE (V/m) @ t=3.3
0.16419044883136363
% es.EX (V/m) @ t=3.3
0.10307550001831878
% es.EY (V/m) @ t=3.3
0.07104559911771702
% es.EZ (V/m) @ t=3.3
0.10623778814255713
% es.tEX (V/m) @ t=3.3
0.10307550001830812
% es.tEY (V/m) @ t=3.3
0
% es.tEZ (V/m) @ t=3.3
0.10623778814262153
% es.Ex (V/m) @ t=3.3
0.10307550001831878
% es.Ey (V/m) @ t=3.3
0.07104559911771702
% es.Ez (V/m) @ t=3.3
0.10623778814255713
% es.tEx (V/m) @ t=3.3
0.10307550001830812
% es.tEy (V/m) @ t=3.3
0
% es.tEz (V/m) @ t=3.3
0.10623778814262153
% V (V) @ t=3.3
0.0724068299144592
% es.normE (V/m) @ t=3.4
0.1663088948899392
% es.EX (V/m) @ t=3.4
0.10440358189014631
% es.EY (V/m) @ t=3.4
0.07196345224144807
% es.EZ (V/m) @ t=3.4
0.10760948912392987
% es.tEX (V/m) @ t=3.4
0.10440358189014454
% es.tEY (V/m) @ t=3.4
0
% es.tEZ (V/m) @ t=3.4
0.10760948912393076
% es.Ex (V/m) @ t=3.4
0.10440358189014631
% es.Ey (V/m) @ t=3.4
0.07196345224144807
% es.Ez (V/m) @ t=3.4
0.10760948912392987
% es.tEx (V/m) @ t=3.4
0.10440358189014454
% es.tEy (V/m) @ t=3.4
0
% es.tEz (V/m) @ t=3.4
0.10760948912393076
% V (V) @ t=3.4
0.07334179988552438
% es.normE (V/m) @ t=3.5
0.1683297314047782
% es.EX (V/m) @ t=3.5
0.10566876921137336
% es.EY (V/m) @ t=3.5
0.0728401069812108
% es.EZ (V/m) @ t=3.5
0.10891890792293157
% es.tEX (V/m) @ t=3.5
0.10566876921135737
% es.tEY (V/m) @ t=3.5
0
% es.tEZ (V/m) @ t=3.5
0.1089189079230124
% es.Ex (V/m) @ t=3.5
0.10566876921137336
% es.Ey (V/m) @ t=3.5
0.0728401069812108
% es.Ez (V/m) @ t=3.5
0.10891890792293157
% es.tEx (V/m) @ t=3.5
0.10566876921135737
% es.tEy (V/m) @ t=3.5
0
% es.tEz (V/m) @ t=3.5
0.1089189079230124
% V (V) @ t=3.5
0.07423439069073881
% es.normE (V/m) @ t=3.6
0.17025830583453536
% es.EX (V/m) @ t=3.6
0.10687419540112408
% es.EY (V/m) @ t=3.6
0.0736780203065237
% es.EZ (V/m) @ t=3.6
0.11016962551774423
% es.tEX (V/m) @ t=3.6
0.10687419540108145
% es.tEY (V/m) @ t=3.6
0
% es.tEZ (V/m) @ t=3.6
0.1101696255177842
% es.Ex (V/m) @ t=3.6
0.10687419540112408
% es.Ey (V/m) @ t=3.6
0.0736780203065237
% es.Ez (V/m) @ t=3.6
0.11016962551774423
% es.tEx (V/m) @ t=3.6
0.10687419540108145
% es.tEy (V/m) @ t=3.6
0
% es.tEz (V/m) @ t=3.6
0.1101696255177842
% V (V) @ t=3.6
0.07508705255200782
% es.normE (V/m) @ t=3.7
0.172123401533292
% es.EX (V/m) @ t=3.7
0.10803958463773711
% es.EY (V/m) @ t=3.7
0.0744885868790881
% es.EZ (V/m) @ t=3.7
0.11137936941576143
% es.tEX (V/m) @ t=3.7
0.10803958463773711
% es.tEY (V/m) @ t=3.7
0
% es.tEZ (V/m) @ t=3.7
0.11137936941577209
% es.Ex (V/m) @ t=3.7
0.10803958463773711
% es.Ey (V/m) @ t=3.7
0.0744885868790881
% es.Ez (V/m) @ t=3.7
0.11137936941576143
% es.tEx (V/m) @ t=3.7
0.10803958463773711
% es.tEy (V/m) @ t=3.7
0
% es.tEz (V/m) @ t=3.7
0.11137936941577209
% V (V) @ t=3.7
0.0759117975430096
% es.normE (V/m) @ t=3.8
0.1739711468467677
% es.EX (V/m) @ t=3.8
0.10919694029882265
% es.EY (V/m) @ t=3.8
0.07528981635154963
% es.EZ (V/m) @ t=3.8
0.11257633729298933
% es.tEX (V/m) @ t=3.8
0.10919694029883509
% es.tEY (V/m) @ t=3.8
0
% es.tEZ (V/m) @ t=3.8
0.11257633729306349
% es.Ex (V/m) @ t=3.8
0.10919694029882265
% es.Ey (V/m) @ t=3.8
0.07528981635154963
% es.Ez (V/m) @ t=3.8
0.11257633729298933
% es.tEx (V/m) @ t=3.8
0.10919694029883509
% es.tEy (V/m) @ t=3.8
0
% es.tEz (V/m) @ t=3.8
0.11257633729306349
% V (V) @ t=3.8
0.07672771468178027
% es.normE (V/m) @ t=3.9
0.1757788709687827
% es.EX (V/m) @ t=3.9
0.11032956119264625
% es.EY (V/m) @ t=3.9
0.07607348048826168
% es.EZ (V/m) @ t=3.9
0.11374719764679986
% es.tEX (V/m) @ t=3.9
0.1103295611926054
% es.tEY (V/m) @ t=3.9
0
% es.tEZ (V/m) @ t=3.9
0.11374719764685892
% es.Ex (V/m) @ t=3.9
0.11032956119264625
% es.Ey (V/m) @ t=3.9
0.07607348048826168
% es.Ez (V/m) @ t=3.9
0.11374719764679986
% es.tEx (V/m) @ t=3.9
0.1103295611926054
% es.tEy (V/m) @ t=3.9
0
% es.tEz (V/m) @ t=3.9
0.11374719764685892
% V (V) @ t=3.9
0.07752582279011525
% es.normE (V/m) @ t=4
0.17755677112725593
% es.EX (V/m) @ t=4
0.11144401413953986
% es.EY (V/m) @ t=4
0.07684388588390334
% es.EZ (V/m) @ t=4
0.11489845903172258
% es.tEX (V/m) @ t=4
0.11144401413953808
% es.tEY (V/m) @ t=4
0
% es.tEZ (V/m) @ t=4
0.11489845903173546
% es.Ex (V/m) @ t=4
0.11144401413953986
% es.Ey (V/m) @ t=4
0.07684388588390334
% es.Ez (V/m) @ t=4
0.11489845903172258
% es.tEx (V/m) @ t=4
0.11144401413953808
% es.tEy (V/m) @ t=4
0
% es.tEz (V/m) @ t=4
0.11489845903173546
% V (V) @ t=4
0.07831055088267536
% es.normE (V/m) @ t=4.1
0.17931504454916325
% es.EX (V/m) @ t=4.1
0.11254686596010544
% es.EY (V/m) @ t=4.1
0.07760533913290857
% es.EZ (V/m) @ t=4.1
0.1160366300023088
% es.tEX (V/m) @ t=4.1
0.11254686596007346
% es.tEY (V/m) @ t=4.1
0
% es.tEZ (V/m) @ t=4.1
0.11603663000235542
% es.Ex (V/m) @ t=4.1
0.11254686596010544
% es.Ey (V/m) @ t=4.1
0.07760533913290857
% es.Ez (V/m) @ t=4.1
0.1160366300023088
% es.tEx (V/m) @ t=4.1
0.11254686596007346
% es.tEy (V/m) @ t=4.1
0
% es.tEz (V/m) @ t=4.1
0.11603663000235542
% V (V) @ t=4.1
0.07908632797412134
% es.normE (V/m) @ t=4.2
0.1810638884701069
% es.EX (V/m) @ t=4.2
0.11364468347451506
% es.EY (V/m) @ t=4.2
0.07836214683004528
% es.EZ (V/m) @ t=4.2
0.11716821911285935
% es.tEX (V/m) @ t=4.2
0.1136446834745044
% es.tEY (V/m) @ t=4.2
0
% es.tEZ (V/m) @ t=4.2
0.11716821911286956
% es.Ex (V/m) @ t=4.2
0.11364468347451506
% es.Ey (V/m) @ t=4.2
0.07836214683004528
% es.Ez (V/m) @ t=4.2
0.11716821911285935
% es.tEx (V/m) @ t=4.2
0.1136446834745044
% es.tEy (V/m) @ t=4.2
0
% es.tEz (V/m) @ t=4.2
0.11716821911286956
% V (V) @ t=4.2
0.07985758307911403
% es.normE (V/m) @ t=4.3
0.18279222011572904
% es.EX (V/m) @ t=4.3
0.11473024078569338
% es.EY (V/m) @ t=4.3
0.07910968449820999
% es.EZ (V/m) @ t=4.3
0.11828620123534117
% es.tEX (V/m) @ t=4.3
0.1147302407856845
% es.tEY (V/m) @ t=4.3
0
% es.tEZ (V/m) @ t=4.3
0.1182862012353354
% es.Ex (V/m) @ t=4.3
0.11473024078569338
% es.Ey (V/m) @ t=4.3
0.07910968449820999
% es.Ez (V/m) @ t=4.3
0.11828620123534117
% es.tEx (V/m) @ t=4.3
0.1147302407856845
% es.tEy (V/m) @ t=4.3
0
% es.tEz (V/m) @ t=4.3
0.1182862012353354
% V (V) @ t=4.3
0.0806195384085271
% es.normE (V/m) @ t=4.4
0.1844410036715948
% es.EX (V/m) @ t=4.4
0.11576523108297465
% es.EY (V/m) @ t=4.4
0.07982320212567373
% es.EZ (V/m) @ t=4.4
0.1193530540459462
% es.tEX (V/m) @ t=4.4
0.11576523108292847
% es.tEY (V/m) @ t=4.4
0
% es.tEZ (V/m) @ t=4.4
0.1193530540459875
% es.Ex (V/m) @ t=4.4
0.11576523108297465
% es.Ey (V/m) @ t=4.4
0.07982320212567373
% es.Ez (V/m) @ t=4.4
0.1193530540459462
% es.tEx (V/m) @ t=4.4
0.11576523108292847
% es.tEy (V/m) @ t=4.4
0
% es.tEz (V/m) @ t=4.4
0.1193530540459875
% V (V) @ t=4.4
0.08134666929223137
% es.normE (V/m) @ t=4.5
0.18606350232159885
% es.EX (V/m) @ t=4.5
0.11678413450524161
% es.EY (V/m) @ t=4.5
0.08052508075905962
% es.EZ (V/m) @ t=4.5
0.12040267518949976
% es.tEX (V/m) @ t=4.5
0.11678413450519898
% es.tEY (V/m) @ t=4.5
0
% es.tEZ (V/m) @ t=4.5
0.12040267518956682
% es.Ex (V/m) @ t=4.5
0.11678413450524161
% es.Ey (V/m) @ t=4.5
0.08052508075905962
% es.Ez (V/m) @ t=4.5
0.12040267518949976
% es.tEx (V/m) @ t=4.5
0.11678413450519898
% es.tEy (V/m) @ t=4.5
0
% es.tEz (V/m) @ t=4.5
0.12040267518956682
% V (V) @ t=4.5
0.08206203721845505
% es.normE (V/m) @ t=4.6
0.18766346391047542
% es.EX (V/m) @ t=4.6
0.11778933766508004
% es.EY (V/m) @ t=4.6
0.08121692022199767
% es.EZ (V/m) @ t=4.6
0.12143747151910622
% es.tEX (V/m) @ t=4.6
0.11778933766507471
% es.tEY (V/m) @ t=4.6
0
% es.tEZ (V/m) @ t=4.6
0.12143747151912976
% es.Ex (V/m) @ t=4.6
0.11778933766508004
% es.Ey (V/m) @ t=4.6
0.08121692022199767
% es.Ez (V/m) @ t=4.6
0.12143747151910622
% es.tEx (V/m) @ t=4.6
0.11778933766507471
% es.tEy (V/m) @ t=4.6
0
% es.tEz (V/m) @ t=4.6
0.12143747151912976
% V (V) @ t=4.6
0.08276728086317928
% es.normE (V/m) @ t=4.7
0.18924463628914
% es.EX (V/m) @ t=4.7
0.11878322717509349
% es.EY (V/m) @ t=4.7
0.0819003203375992
% es.EZ (V/m) @ t=4.7
0.12245984988835179
% es.tEX (V/m) @ t=4.7
0.11878322717508816
% es.tEY (V/m) @ t=4.7
0
% es.tEZ (V/m) @ t=4.7
0.12245984988842906
% es.Ex (V/m) @ t=4.7
0.11878322717509349
% es.Ey (V/m) @ t=4.7
0.0819003203375992
% es.Ez (V/m) @ t=4.7
0.12245984988835179
% es.tEx (V/m) @ t=4.7
0.11878322717508816
% es.tEy (V/m) @ t=4.7
0
% es.tEz (V/m) @ t=4.7
0.12245984988842906
% V (V) @ t=4.7
0.08346403890238509
% es.normE (V/m) @ t=4.8
0.1908107673152847
% es.EX (V/m) @ t=4.8
0.11976818964781444
% es.EY (V/m) @ t=4.8
0.08257688092882631
% es.EZ (V/m) @ t=4.8
0.12347221715025336
% es.tEX (V/m) @ t=4.8
0.1197681896477647
% es.tEY (V/m) @ t=4.8
0
% es.tEZ (V/m) @ t=4.8
0.12347221715029377
% es.Ex (V/m) @ t=4.8
0.11976818964781444
% es.Ey (V/m) @ t=4.8
0.08257688092882631
% es.Ez (V/m) @ t=4.8
0.12347221715025336
% es.tEx (V/m) @ t=4.8
0.1197681896477647
% es.tEy (V/m) @ t=4.8
0
% es.tEz (V/m) @ t=4.8
0.12347221715029377
% V (V) @ t=4.8
0.08415395001205361
% es.normE (V/m) @ t=4.9
0.1923499276441654
% es.EX (V/m) @ t=4.9
0.12073646213532996
% es.EY (V/m) @ t=4.9
0.08324161570914512
% es.EZ (V/m) @ t=4.9
0.12446700281556833
% es.tEX (V/m) @ t=4.9
0.12073646213530864
% es.tEY (V/m) @ t=4.9
0
% es.tEZ (V/m) @ t=4.9
0.12446700281564915
% es.Ex (V/m) @ t=4.9
0.12073646213532996
% es.Ey (V/m) @ t=4.9
0.08324161570914512
% es.Ez (V/m) @ t=4.9
0.12446700281556833
% es.tEx (V/m) @ t=4.9
0.12073646213530864
% es.tEy (V/m) @ t=4.9
0
% es.tEz (V/m) @ t=4.9
0.12446700281564915
% V (V) @ t=4.9
0.08483186667029947
% es.normE (V/m) @ t=5
0.1937557001562263
% es.EX (V/m) @ t=5
0.12161910952090338
% es.EY (V/m) @ t=5
0.08384984340958823
% es.EZ (V/m) @ t=5
0.12537650219462781
% es.tEX (V/m) @ t=5
0.12161910952086608
% es.tEY (V/m) @ t=5
0
% es.tEZ (V/m) @ t=5
0.12537650219475438
% es.Ex (V/m) @ t=5
0.12161910952090338
% es.Ey (V/m) @ t=5
0.08384984340958823
% es.Ez (V/m) @ t=5
0.12537650219462781
% es.tEx (V/m) @ t=5
0.12161910952086608
% es.tEy (V/m) @ t=5
0
% es.tEz (V/m) @ t=5
0.12537650219475438
% V (V) @ t=5
0.08545174042691611
% es.normE (V/m) @ t=5.1
0.1950958909886838
% es.EX (V/m) @ t=5.1
0.12245999031999943
% es.EY (V/m) @ t=5.1
0.08443007521652746
% es.EZ (V/m) @ t=5.1
0.12624389034890182
% es.tEX (V/m) @ t=5.1
0.12245999031998345
% es.tEY (V/m) @ t=5.1
0
% es.tEZ (V/m) @ t=5.1
0.12624389034891692
% es.Ex (V/m) @ t=5.1
0.12245999031999943
% es.Ey (V/m) @ t=5.1
0.08443007521652746
% es.Ez (V/m) @ t=5.1
0.12624389034890182
% es.tEx (V/m) @ t=5.1
0.12245999031998345
% es.tEy (V/m) @ t=5.1
0
% es.tEz (V/m) @ t=5.1
0.12624389034891692
% V (V) @ t=5.1
0.0860429388967354
% es.normE (V/m) @ t=5.2
0.19636572592701623
% es.EX (V/m) @ t=5.2
0.12325597388957021
% es.EY (V/m) @ t=5.2
0.08498033077325218
% es.EZ (V/m) @ t=5.2
0.12706615049275038
% es.tEX (V/m) @ t=5.2
0.12325597388956133
% es.tEY (V/m) @ t=5.2
0
% es.tEZ (V/m) @ t=5.2
0.12706615049279435
% es.Ex (V/m) @ t=5.2
0.12325597388957021
% es.Ey (V/m) @ t=5.2
0.08498033077325218
% es.Ez (V/m) @ t=5.2
0.12706615049275038
% es.tEx (V/m) @ t=5.2
0.12325597388956133
% es.tEy (V/m) @ t=5.2
0
% es.tEz (V/m) @ t=5.2
0.12706615049279435
% V (V) @ t=5.2
0.08660341180886777