% Model:              1x1--2 - Copy1.mph
% Version:            COMSOL 6.0.0.405
% Date:               Mar 2 2023, 12:02
% Dimension:          0
% Nodes:              14017
% Expressions:        14017
% Description:        Electric field norm, Electric field, X component, Electric field, Y component, Electric field, Z component, Tangential electric field, X component, Tangential electric field, Y component, Tangential electric field, Z component, Electric field, x component, Electric field, y component, Electric field, z component, Tangential electric field, x component, Tangential electric field, y component, Tangential electric field, z component, Electric potential
% Length unit:        mm
% x
1
% y
14.2
% z
1.33
% es.normE (V/m) @ t=0
0.10857287840727338
% es.EX (V/m) @ t=0
0.1028424585024954
% es.EY (V/m) @ t=0
-0.021544442558948163
% es.EZ (V/m) @ t=0
0.027337440436647764
% es.tEX (V/m) @ t=0
0.10284245850249718
% es.tEY (V/m) @ t=0
0
% es.tEZ (V/m) @ t=0
0.027337440436645544
% es.Ex (V/m) @ t=0
0.1028424585024954
% es.Ey (V/m) @ t=0
-0.021544442558948163
% es.Ez (V/m) @ t=0
0.027337440436647764
% es.tEx (V/m) @ t=0
0.10284245850249718
% es.tEy (V/m) @ t=0
0
% es.tEz (V/m) @ t=0
0.027337440436645544
% V (V) @ t=0
0.01976971957150879
% es.normE (V/m) @ t=0.1
0.11482117810344739
% es.EX (V/m) @ t=0.1
0.10876097380243266
% es.EY (V/m) @ t=0.1
-0.022784314080258383
% es.EZ (V/m) @ t=0.1
0.028910699585141142
% es.tEX (V/m) @ t=0.1
0.10876097380245042
% es.tEY (V/m) @ t=0.1
0
% es.tEZ (V/m) @ t=0.1
0.028910699585142474
% es.Ex (V/m) @ t=0.1
0.10876097380243266
% es.Ey (V/m) @ t=0.1
-0.022784314080258383
% es.Ez (V/m) @ t=0.1
0.028910699585141142
% es.tEx (V/m) @ t=0.1
0.10876097380245042
% es.tEy (V/m) @ t=0.1
0
% es.tEz (V/m) @ t=0.1
0.028910699585142474
% V (V) @ t=0.1
0.020907458063960792
% es.normE (V/m) @ t=0.2
0.1226831694810518
% es.EX (V/m) @ t=0.2
0.11620802197230162
% es.EY (V/m) @ t=0.2
-0.024344521176040246
% es.EZ (V/m) @ t=0.2
0.030890127741899587
% es.tEX (V/m) @ t=0.2
0.11620802197233715
% es.tEY (V/m) @ t=0.2
0
% es.tEZ (V/m) @ t=0.2
0.030890127741884932
% es.Ex (V/m) @ t=0.2
0.11620802197230162
% es.Ey (V/m) @ t=0.2
-0.024344521176040246
% es.Ez (V/m) @ t=0.2
0.030890127741899587
% es.tEx (V/m) @ t=0.2
0.11620802197233715
% es.tEy (V/m) @ t=0.2
0
% es.tEz (V/m) @ t=0.2
0.030890127741884932
% V (V) @ t=0.2
0.022339063293746766
% es.normE (V/m) @ t=0.3
0.13086856261384017
% es.EX (V/m) @ t=0.3
0.12396141613932343
% es.EY (V/m) @ t=0.3
-0.025969059054652632
% es.EZ (V/m) @ t=0.3
0.03295081123678223
% es.tEX (V/m) @ t=0.3
0.1239614161393412
% es.tEY (V/m) @ t=0.3
0
% es.tEZ (V/m) @ t=0.3
0.03295081123676935
% es.Ex (V/m) @ t=0.3
0.12396141613932343
% es.Ey (V/m) @ t=0.3
-0.025969059054652632
% es.Ez (V/m) @ t=0.3
0.03295081123678223
% es.tEx (V/m) @ t=0.3
0.1239614161393412
% es.tEy (V/m) @ t=0.3
0
% es.tEz (V/m) @ t=0.3
0.03295081123676935
% V (V) @ t=0.3
0.02382959924636911
% es.normE (V/m) @ t=0.4
0.1396028270861803
% es.EX (V/m) @ t=0.4
0.13223469898364826
% es.EY (V/m) @ t=0.4
-0.027702350704132073
% es.EZ (V/m) @ t=0.4
0.03514987170137562
% es.tEX (V/m) @ t=0.4
0.1322346989836518
% es.tEY (V/m) @ t=0.4
0
% es.tEZ (V/m) @ t=0.4
0.035149871701359636
% es.Ex (V/m) @ t=0.4
0.13223469898364826
% es.Ey (V/m) @ t=0.4
-0.027702350704132073
% es.Ez (V/m) @ t=0.4
0.03514987170137562
% es.tEx (V/m) @ t=0.4
0.1322346989836518
% es.tEy (V/m) @ t=0.4
0
% es.tEz (V/m) @ t=0.4
0.035149871701359636
% V (V) @ t=0.4
0.02542003351893453
% es.normE (V/m) @ t=0.5
0.14859984996940104
% es.EX (V/m) @ t=0.5
0.1407568460886317
% es.EY (V/m) @ t=0.5
-0.029487484546940834
% es.EZ (V/m) @ t=0.5
0.037415423894480604
% es.tEX (V/m) @ t=0.5
0.1407568460886388
% es.tEY (V/m) @ t=0.5
0
% es.tEZ (V/m) @ t=0.5
0.03741542389446462
% es.Ex (V/m) @ t=0.5
0.1407568460886317
% es.Ey (V/m) @ t=0.5
-0.029487484546940834
% es.Ez (V/m) @ t=0.5
0.037415423894480604
% es.tEx (V/m) @ t=0.5
0.1407568460886388
% es.tEy (V/m) @ t=0.5
0
% es.tEz (V/m) @ t=0.5
0.03741542389446462
% V (V) @ t=0.5
0.027058231167213835
% es.normE (V/m) @ t=0.6
0.15793933969922205
% es.EX (V/m) @ t=0.6
0.1496033460071402
% es.EY (V/m) @ t=0.6
-0.03134012957387888
% es.EZ (V/m) @ t=0.6
0.039767702553537454
% es.tEX (V/m) @ t=0.6
0.14960334600716152
% es.tEY (V/m) @ t=0.6
0
% es.tEZ (V/m) @ t=0.6
0.03976770255352324
% es.Ex (V/m) @ t=0.6
0.1496033460071402
% es.Ey (V/m) @ t=0.6
-0.03134012957387888
% es.Ez (V/m) @ t=0.6
0.039767702553537454
% es.tEx (V/m) @ t=0.6
0.14960334600716152
% es.tEy (V/m) @ t=0.6
0
% es.tEz (V/m) @ t=0.6
0.03976770255352324
% V (V) @ t=0.6
0.02875866561094674
% es.normE (V/m) @ t=0.7
0.16751505173560913
% es.EX (V/m) @ t=0.7
0.1586736369093451
% es.EY (V/m) @ t=0.7
-0.033240069019779384
% es.EZ (V/m) @ t=0.7
0.04217899144722903
% es.tEX (V/m) @ t=0.7
0.15867363690936287
% es.tEY (V/m) @ t=0.7
0
% es.tEZ (V/m) @ t=0.7
0.04217899144719883
% es.Ex (V/m) @ t=0.7
0.1586736369093451
% es.Ey (V/m) @ t=0.7
-0.033240069019779384
% es.Ez (V/m) @ t=0.7
0.04217899144722903
% es.tEx (V/m) @ t=0.7
0.15867363690936287
% es.tEy (V/m) @ t=0.7
0
% es.tEz (V/m) @ t=0.7
0.04217899144719883
% V (V) @ t=0.7
0.03050222829051897
% es.normE (V/m) @ t=0.8
0.1773457287971415
% es.EX (V/m) @ t=0.8
0.16798547517192475
% es.EY (V/m) @ t=0.8
-0.03519105539294998
% es.EZ (V/m) @ t=0.8
0.044653972658457164
% es.tEX (V/m) @ t=0.8
0.16798547517194606
% es.tEY (V/m) @ t=0.8
0
% es.tEZ (V/m) @ t=0.8
0.044653972658426966
% es.Ex (V/m) @ t=0.8
0.16798547517192475
% es.Ey (V/m) @ t=0.8
-0.03519105539294998
% es.Ez (V/m) @ t=0.8
0.044653972658457164
% es.tEx (V/m) @ t=0.8
0.16798547517194606
% es.tEy (V/m) @ t=0.8
0
% es.tEz (V/m) @ t=0.8
0.044653972658426966
% V (V) @ t=0.8
0.03229234115433122
% es.normE (V/m) @ t=0.9
0.18740787620720878
% es.EX (V/m) @ t=0.9
0.17751660253384927
% es.EY (V/m) @ t=0.9
-0.037188384788304774
% es.EZ (V/m) @ t=0.9
0.047186777026756666
% es.tEX (V/m) @ t=0.9
0.17751660253386703
% es.tEY (V/m) @ t=0.9
0
% es.tEZ (V/m) @ t=0.9
0.04718677702672913
% es.Ex (V/m) @ t=0.9
0.17751660253384927
% es.Ey (V/m) @ t=0.9
-0.037188384788304774
% es.Ez (V/m) @ t=0.9
0.047186777026756666
% es.tEx (V/m) @ t=0.9
0.17751660253386703
% es.tEy (V/m) @ t=0.9
0
% es.tEz (V/m) @ t=0.9
0.04718677702672913
% V (V) @ t=0.9
0.03412471466616599
% es.normE (V/m) @ t=1
0.19765156873850515
% es.EX (V/m) @ t=1
0.18721965514454553
% es.EY (V/m) @ t=1
-0.039221298310152974
% es.EZ (V/m) @ t=1
0.049765782533940595
% es.tEX (V/m) @ t=1
0.1872196551445633
% es.tEY (V/m) @ t=1
0
% es.tEZ (V/m) @ t=1
0.049765782533896186
% es.Ex (V/m) @ t=1
0.18721965514454553
% es.Ey (V/m) @ t=1
-0.039221298310152974
% es.Ez (V/m) @ t=1
0.049765782533940595
% es.tEx (V/m) @ t=1
0.1872196551445633
% es.tEy (V/m) @ t=1
0
% es.tEz (V/m) @ t=1
0.049765782533896186
% V (V) @ t=1
0.03599002430876748
% es.normE (V/m) @ t=1.1
0.20808326284983406
% es.EX (V/m) @ t=1.1
0.1971007582216764
% es.EY (V/m) @ t=1.1
-0.041291187327257006
% es.EZ (V/m) @ t=1.1
0.052392492169954785
% es.tEX (V/m) @ t=1.1
0.19710075822172257
% es.tEY (V/m) @ t=1.1
0
% es.tEZ (V/m) @ t=1.1
0.05239249216995212
% es.Ex (V/m) @ t=1.1
0.1971007582216764
% es.Ey (V/m) @ t=1.1
-0.041291187327257006
% es.Ez (V/m) @ t=1.1
0.052392492169954785
% es.tEx (V/m) @ t=1.1
0.19710075822172257
% es.tEy (V/m) @ t=1.1
0
% es.tEz (V/m) @ t=1.1
0.05239249216995212
% V (V) @ t=1.1
0.037889475953245974
% es.normE (V/m) @ t=1.2
0.2187132833734075
% es.EX (V/m) @ t=1.2
0.20716970688822656
% es.EY (V/m) @ t=1.2
-0.043400276842458396
% es.EZ (V/m) @ t=1.2
0.05506930943657018
% es.tEX (V/m) @ t=1.2
0.20716970688823366
% es.tEY (V/m) @ t=1.2
0
% es.tEZ (V/m) @ t=1.2
0.05506930943656663
% es.Ex (V/m) @ t=1.2
0.20716970688822656
% es.Ey (V/m) @ t=1.2
-0.043400276842458396
% es.Ez (V/m) @ t=1.2
0.05506930943657018
% es.tEx (V/m) @ t=1.2
0.20716970688823366
% es.tEy (V/m) @ t=1.2
0
% es.tEz (V/m) @ t=1.2
0.05506930943656663
% V (V) @ t=1.2
0.039824997964595335
% es.normE (V/m) @ t=1.3
0.22934329568804157
% es.EX (V/m) @ t=1.3
0.21723862511770164
% es.EY (V/m) @ t=1.3
-0.04550909773060141
% es.EZ (V/m) @ t=1.3
0.057746420302644985
% es.tEX (V/m) @ t=1.3
0.21723862511770875
% es.tEY (V/m) @ t=1.3
0
% es.tEZ (V/m) @ t=1.3
0.05774642030264765
% es.Ex (V/m) @ t=1.3
0.21723862511770164
% es.Ey (V/m) @ t=1.3
-0.04550909773060141
% es.Ez (V/m) @ t=1.3
0.057746420302644985
% es.tEx (V/m) @ t=1.3
0.21723862511770875
% es.tEy (V/m) @ t=1.3
0
% es.tEz (V/m) @ t=1.3
0.05774642030264765
% V (V) @ t=1.3
0.04176044460148802
% es.normE (V/m) @ t=1.4
0.23996402674888132
% es.EX (V/m) @ t=1.4
0.22729872884848845
% es.EY (V/m) @ t=1.4
-0.04761580462990267
% es.EZ (V/m) @ t=1.4
0.06042149573492939
% es.tEX (V/m) @ t=1.4
0.22729872884852398
% es.tEY (V/m) @ t=1.4
0
% es.tEZ (V/m) @ t=1.4
0.06042149573488942
% es.Ex (V/m) @ t=1.4
0.22729872884848845
% es.Ey (V/m) @ t=1.4
-0.04761580462990267
% es.Ez (V/m) @ t=1.4
0.06042149573492939
% es.tEx (V/m) @ t=1.4
0.22729872884852398
% es.tEy (V/m) @ t=1.4
0
% es.tEz (V/m) @ t=1.4
0.06042149573488942
% V (V) @ t=1.4
0.043694125885558086
% es.normE (V/m) @ t=1.5
0.25063523028786083
% es.EX (V/m) @ t=1.5
0.23740662086990483
% es.EY (V/m) @ t=1.5
-0.04973228869360824
% es.EZ (V/m) @ t=1.5
0.06310954357209297
% es.tEX (V/m) @ t=1.5
0.23740662086991193
% es.tEY (V/m) @ t=1.5
0
% es.tEZ (V/m) @ t=1.5
0.06310954357206722
% es.Ex (V/m) @ t=1.5
0.23740662086990483
% es.Ey (V/m) @ t=1.5
-0.04973228869360824
% es.Ez (V/m) @ t=1.5
0.06310954357209297
% es.tEx (V/m) @ t=1.5
0.23740662086991193
% es.tEy (V/m) @ t=1.5
0
% es.tEz (V/m) @ t=1.5
0.06310954357206722
% V (V) @ t=1.5
0.045636931709559556
% es.normE (V/m) @ t=1.6
0.2611501677539808
% es.EX (V/m) @ t=1.6
0.24736653900430383
% es.EY (V/m) @ t=1.6
-0.05181827624220858
% es.EZ (V/m) @ t=1.6
0.06575767442854641
% es.tEX (V/m) @ t=1.6
0.24736653900437489
% es.tEY (V/m) @ t=1.6
0
% es.tEZ (V/m) @ t=1.6
0.0657576744285171
% es.Ex (V/m) @ t=1.6
0.24736653900430383
% es.Ey (V/m) @ t=1.6
-0.05181827624220858
% es.Ez (V/m) @ t=1.6
0.06575767442854641
% es.tEx (V/m) @ t=1.6
0.24736653900437489
% es.tEy (V/m) @ t=1.6
0
% es.tEz (V/m) @ t=1.6
0.0657576744285171
% V (V) @ t=1.6
0.047551423628890456
% es.normE (V/m) @ t=1.7
0.2714546436144264
% es.EX (V/m) @ t=1.7
0.2571271651293685
% es.EY (V/m) @ t=1.7
-0.0538632097227989
% es.EZ (V/m) @ t=1.7
0.06835202360374915
% es.tEX (V/m) @ t=1.7
0.25712716512941114
% es.tEY (V/m) @ t=1.7
0
% es.tEZ (V/m) @ t=1.7
0.06835202360374737
% es.Ex (V/m) @ t=1.7
0.2571271651293685
% es.Ey (V/m) @ t=1.7
-0.0538632097227989
% es.Ez (V/m) @ t=1.7
0.06835202360374915
% es.tEx (V/m) @ t=1.7
0.25712716512941114
% es.tEy (V/m) @ t=1.7
0
% es.tEz (V/m) @ t=1.7
0.06835202360374737
% V (V) @ t=1.7
0.049427787333615227
% es.normE (V/m) @ t=1.8
0.2816346495624531
% es.EX (V/m) @ t=1.8
0.2667699253770124
% es.EY (V/m) @ t=1.8
-0.05588384073642416
% es.EZ (V/m) @ t=1.8
0.07091459012823087
% es.tEX (V/m) @ t=1.8
0.2667699253770479
% es.tEY (V/m) @ t=1.8
0
% es.tEZ (V/m) @ t=1.8
0.07091459012822732
% es.Ex (V/m) @ t=1.8
0.2667699253770124
% es.Ey (V/m) @ t=1.8
-0.05588384073642416
% es.Ez (V/m) @ t=1.8
0.07091459012823087
% es.tEx (V/m) @ t=1.8
0.2667699253770479
% es.tEy (V/m) @ t=1.8
0
% es.tEz (V/m) @ t=1.8
0.07091459012822732
% V (V) @ t=1.8
0.05128159512564694
% es.normE (V/m) @ t=1.9
0.2916041928816672
% es.EX (V/m) @ t=1.9
0.27621334695417943
% es.EY (V/m) @ t=1.9
-0.057862886604716834
% es.EZ (V/m) @ t=1.9
0.07342396491819514
% es.tEX (V/m) @ t=1.9
0.27621334695421496
% es.tEY (V/m) @ t=1.9
0
% es.tEZ (V/m) @ t=1.9
0.07342396491816672
% es.Ex (V/m) @ t=1.9
0.27621334695417943
% es.Ey (V/m) @ t=1.9
-0.057862886604716834
% es.Ez (V/m) @ t=1.9
0.07342396491819514
% es.tEx (V/m) @ t=1.9
0.27621334695421496
% es.tEy (V/m) @ t=1.9
0
% es.tEz (V/m) @ t=1.9
0.07342396491816672
% V (V) @ t=1.9
0.05309712860425855
% es.normE (V/m) @ t=2
0.30127226719995764
% es.EX (V/m) @ t=2
0.28537120694272033
% es.EY (V/m) @ t=2
-0.059782057013986645
% es.EZ (V/m) @ t=2
0.07585749067187919
% es.tEX (V/m) @ t=2
0.2853712069427914
% es.tEY (V/m) @ t=2
0
% es.tEZ (V/m) @ t=2
0.07585749067184722
% es.Ex (V/m) @ t=2
0.28537120694272033
% es.Ey (V/m) @ t=2
-0.059782057013986645
% es.Ez (V/m) @ t=2
0.07585749067187919
% es.tEx (V/m) @ t=2
0.2853712069427914
% es.tEy (V/m) @ t=2
0
% es.tEz (V/m) @ t=2
0.07585749067184722
% V (V) @ t=2
0.05485775293561017
% es.normE (V/m) @ t=2.1
0.31064231129559833
% es.EX (V/m) @ t=2.1
0.2942467633738204
% es.EY (V/m) @ t=2.1
-0.06164204308453236
% es.EZ (V/m) @ t=2.1
0.07821602352118795
% es.tEX (V/m) @ t=2.1
0.2942467633738559
% es.tEY (V/m) @ t=2.1
0
% es.tEZ (V/m) @ t=2.1
0.07821602352112755
% es.Ex (V/m) @ t=2.1
0.2942467633738204
% es.Ey (V/m) @ t=2.1
-0.06164204308453236
% es.Ez (V/m) @ t=2.1
0.07821602352118795
% es.tEx (V/m) @ t=2.1
0.2942467633738559
% es.tEy (V/m) @ t=2.1
0
% es.tEz (V/m) @ t=2.1
0.07821602352112755
% V (V) @ t=2.1
0.056564096685803575
% es.normE (V/m) @ t=2.2
0.3196768970270677
% es.EX (V/m) @ t=2.2
0.30280455539713813
% es.EY (V/m) @ t=2.2
-0.06343532256977369
% es.EZ (V/m) @ t=2.2
0.08049024521061376
% es.tEX (V/m) @ t=2.2
0.30280455539718076
% es.tEY (V/m) @ t=2.2
0
% es.tEZ (V/m) @ t=2.2
0.08049024521058179
% es.Ex (V/m) @ t=2.2
0.30280455539713813
% es.Ey (V/m) @ t=2.2
-0.06343532256977369
% es.Ez (V/m) @ t=2.2
0.08049024521061376
% es.tEx (V/m) @ t=2.2
0.30280455539718076
% es.tEy (V/m) @ t=2.2
0
% es.tEz (V/m) @ t=2.2
0.08049024521058179
% V (V) @ t=2.2
0.05820931845624251
% es.normE (V/m) @ t=2.3
0.3283385962520634
% es.EX (V/m) @ t=2.3
0.3110091221626732
% es.EY (V/m) @ t=2.3
-0.06515437322218887
% es.EZ (V/m) @ t=2.3
0.08267083748458504
% es.tEX (V/m) @ t=2.3
0.3110091221627087
% es.tEY (V/m) @ t=2.3
0
% es.tEZ (V/m) @ t=2.3
0.08267083748452464
% es.Ex (V/m) @ t=2.3
0.3110091221626732
% es.Ey (V/m) @ t=2.3
-0.06515437322218887
% es.Ez (V/m) @ t=2.3
0.08267083748458504
% es.tEx (V/m) @ t=2.3
0.3110091221627087
% es.tEy (V/m) @ t=2.3
0
% es.tEz (V/m) @ t=2.3
0.08267083748452464
% V (V) @ t=2.3
0.05978657684833072
% es.normE (V/m) @ t=2.4
0.336589980828639
% es.EX (V/m) @ t=2.4
0.31882500282019777
% es.EY (V/m) @ t=2.4
-0.0667916727953326
% es.EZ (V/m) @ t=2.4
0.08474848208744312
% es.tEX (V/m) @ t=2.4
0.3188250028202404
% es.tEY (V/m) @ t=2.4
0
% es.tEZ (V/m) @ t=2.4
0.08474848208738273
% es.Ex (V/m) @ t=2.4
0.31882500282019777
% es.Ey (V/m) @ t=2.4
-0.0667916727953326
% es.Ez (V/m) @ t=2.4
0.08474848208744312
% es.tEx (V/m) @ t=2.4
0.3188250028202404
% es.tEy (V/m) @ t=2.4
0
% es.tEz (V/m) @ t=2.4
0.08474848208738273
% V (V) @ t=2.4
0.06128903046347192
% es.normE (V/m) @ t=2.5
0.3444933277679511
% es.EX (V/m) @ t=2.5
0.3263112041630194
% es.EY (V/m) @ t=2.5
-0.06835977430148432
% es.EZ (V/m) @ t=2.5
0.08673864289788824
% es.tEX (V/m) @ t=2.5
0.3263112041630549
% es.tEY (V/m) @ t=2.5
0
% es.tEZ (V/m) @ t=2.5
0.08673864289782784
% es.Ex (V/m) @ t=2.5
0.3263112041630194
% es.Ey (V/m) @ t=2.5
-0.06835977430148432
% es.Ez (V/m) @ t=2.5
0.08673864289788824
% es.tEx (V/m) @ t=2.5
0.3263112041630549
% es.tEy (V/m) @ t=2.5
0
% es.tEz (V/m) @ t=2.5
0.08673864289782784
% V (V) @ t=2.5
0.06272807265374858
% es.normE (V/m) @ t=2.6
0.3521405904848602
% es.EX (V/m) @ t=2.6
0.33355485048817
% es.EY (V/m) @ t=2.6
-0.0698772059853141
% es.EZ (V/m) @ t=2.6
0.08866415998883959
% es.tEX (V/m) @ t=2.6
0.33355485048821265
% es.tEY (V/m) @ t=2.6
0
% es.tEZ (V/m) @ t=2.6
0.08866415998877564
% es.Ex (V/m) @ t=2.6
0.33355485048817
% es.Ey (V/m) @ t=2.6
-0.0698772059853141
% es.Ez (V/m) @ t=2.6
0.08866415998883959
% es.tEx (V/m) @ t=2.6
0.33355485048821265
% es.tEy (V/m) @ t=2.6
0
% es.tEz (V/m) @ t=2.6
0.08866415998877564
% V (V) @ t=2.6
0.06412052419216821
% es.normE (V/m) @ t=2.7
0.35941238499861167
% es.EX (V/m) @ t=2.7
0.34044283024205413
% es.EY (V/m) @ t=2.7
-0.0713199440986898
% es.EZ (V/m) @ t=2.7
0.090495344636782
% es.tEX (V/m) @ t=2.7
0.34044283024208966
% es.tEY (V/m) @ t=2.7
0
% es.tEZ (V/m) @ t=2.7
0.09049534463671804
% es.Ex (V/m) @ t=2.7
0.34044283024205413
% es.Ey (V/m) @ t=2.7
-0.0713199440986898
% es.Ez (V/m) @ t=2.7
0.090495344636782
% es.tEx (V/m) @ t=2.7
0.34044283024208966
% es.tEy (V/m) @ t=2.7
0
% es.tEz (V/m) @ t=2.7
0.09049534463671804
% V (V) @ t=2.7
0.06544455504316984
% es.normE (V/m) @ t=2.8
0.36629377747759645
% es.EX (V/m) @ t=2.8
0.3469609952574402
% es.EY (V/m) @ t=2.8
-0.0726849955389568
% es.EZ (V/m) @ t=2.8
0.09222846964075337
% es.tEX (V/m) @ t=2.8
0.3469609952574757
% es.tEY (V/m) @ t=2.8
0
% es.tEZ (V/m) @ t=2.8
0.09222846964068943
% es.Ex (V/m) @ t=2.8
0.3469609952574402
% es.Ey (V/m) @ t=2.8
-0.0726849955389568
% es.Ez (V/m) @ t=2.8
0.09222846964075337
% es.tEx (V/m) @ t=2.8
0.3469609952574757
% es.tEy (V/m) @ t=2.8
0
% es.tEz (V/m) @ t=2.8
0.09222846964068943
% V (V) @ t=2.8
0.06669743771894655
% es.normE (V/m) @ t=2.9
0.3727698340913212
% es.EX (V/m) @ t=2.9
0.3530951973669687
% es.EY (V/m) @ t=2.9
-0.07396936720447655
% es.EZ (V/m) @ t=2.9
0.09385980779983427
% es.tEX (V/m) @ t=2.9
0.35309519736703976
% es.tEY (V/m) @ t=2.9
0
% es.tEZ (V/m) @ t=2.9
0.09385980779977388
% es.Ex (V/m) @ t=2.9
0.3530951973669687
% es.Ey (V/m) @ t=2.9
-0.07396936720447655
% es.Ez (V/m) @ t=2.9
0.09385980779983427
% es.tEx (V/m) @ t=2.9
0.35309519736703976
% es.tEy (V/m) @ t=2.9
0
% es.tEz (V/m) @ t=2.9
0.09385980779977388
% V (V) @ t=2.9
0.06787644473169144
% es.normE (V/m) @ t=3
0.37882562101064116
% es.EX (V/m) @ t=3
0.35883128840340817
% es.EY (V/m) @ t=3
-0.07517006599269394
% es.EZ (V/m) @ t=3
0.09538563191331306
% es.tEX (V/m) @ t=3
0.3588312884034792
% es.tEY (V/m) @ t=3
0
% es.tEZ (V/m) @ t=3
0.09538563191325267
% es.Ex (V/m) @ t=3
0.35883128840340817
% es.Ey (V/m) @ t=3
-0.07517006599269394
% es.Ez (V/m) @ t=3
0.09538563191331306
% es.tEx (V/m) @ t=3
0.3588312884034792
% es.tEy (V/m) @ t=3
0
% es.tEz (V/m) @ t=3
0.09538563191325267
% V (V) @ t=3
0.0689788485935976
% es.normE (V/m) @ t=3.1
0.3845585067301912
% es.EX (V/m) @ t=3.1
0.36426152900421727
% es.EY (V/m) @ t=3.1
-0.07630677626546856
% es.EZ (V/m) @ t=3.1
0.09683005464232686
% es.tEX (V/m) @ t=3.1
0.3642615290042528
% es.tEY (V/m) @ t=3.1
0
% es.tEZ (V/m) @ t=3.1
0.09683005464229488
% es.Ex (V/m) @ t=3.1
0.36426152900421727
% es.Ey (V/m) @ t=3.1
-0.07630677626546856
% es.Ez (V/m) @ t=3.1
0.09683005464232686
% es.tEx (V/m) @ t=3.1
0.3642615290042528
% es.tEy (V/m) @ t=3.1
0
% es.tEz (V/m) @ t=3.1
0.09683005464229488
% V (V) @ t=3.1
0.07002247885417626
% es.normE (V/m) @ t=3.2
0.3902647956835021
% es.EX (V/m) @ t=3.2
0.3696666757853819
% es.EY (V/m) @ t=3.2
-0.07743935397439117
% es.EZ (V/m) @ t=3.2
0.0982665050752285
% es.tEX (V/m) @ t=3.2
0.36966667578542456
% es.tEY (V/m) @ t=3.2
0
% es.tEZ (V/m) @ t=3.2
0.09826650507519652
% es.Ex (V/m) @ t=3.2
0.3696666757853819
% es.Ey (V/m) @ t=3.2
-0.07743935397439117
% es.Ez (V/m) @ t=3.2
0.0982665050752285
% es.tEx (V/m) @ t=3.2
0.36966667578542456
% es.tEy (V/m) @ t=3.2
0
% es.tEz (V/m) @ t=3.2
0.09826650507519652
% V (V) @ t=3.2
0.07106158045988349
% es.normE (V/m) @ t=3.3
0.3957307205987803
% es.EX (V/m) @ t=3.3
0.3748441817271555
% es.EY (V/m) @ t=3.3
-0.07852465512688411
% es.EZ (V/m) @ t=3.3
0.09964196499534239
% es.tEX (V/m) @ t=3.3
0.37484418172721945
% es.tEY (V/m) @ t=3.3
0
% es.tEZ (V/m) @ t=3.3
0.09964196499530331
% es.Ex (V/m) @ t=3.3
0.3748441817271555
% es.Ey (V/m) @ t=3.3
-0.07852465512688411
% es.Ez (V/m) @ t=3.3
0.09964196499534239
% es.tEx (V/m) @ t=3.3
0.37484418172721945
% es.tEy (V/m) @ t=3.3
0
% es.tEz (V/m) @ t=3.3
0.09964196499530331
% V (V) @ t=3.3
0.07205702928969494
% es.normE (V/m) @ t=3.4
0.4009716301714252
% es.EX (V/m) @ t=3.4
0.3798085919859062
% es.EY (V/m) @ t=3.4
-0.07956580163962457
% es.EZ (V/m) @ t=3.4
0.10096021427006541
% es.tEX (V/m) @ t=3.4
0.37980859198594175
% es.tEY (V/m) @ t=3.4
0
% es.tEZ (V/m) @ t=3.4
0.10096021427006541
% es.Ex (V/m) @ t=3.4
0.3798085919859062
% es.Ey (V/m) @ t=3.4
-0.07956580163962457
% es.Ez (V/m) @ t=3.4
0.10096021427006541
% es.tEx (V/m) @ t=3.4
0.37980859198594175
% es.tEy (V/m) @ t=3.4
0
% es.tEz (V/m) @ t=3.4
0.10096021427006541
% V (V) @ t=3.4
0.07301164109750853
% es.normE (V/m) @ t=3.5
0.4060028731023598
% es.EX (V/m) @ t=3.5
0.38457445171805205
% es.EY (V/m) @ t=3.5
-0.080565915428771
% es.EZ (V/m) @ t=3.5
0.10222503276719763
% es.tEX (V/m) @ t=3.5
0.38457445171806626
% es.tEY (V/m) @ t=3.5
0
% es.tEZ (V/m) @ t=3.5
0.10222503276708395
% es.Ex (V/m) @ t=3.5
0.38457445171805205
% es.Ey (V/m) @ t=3.5
-0.080565915428771
% es.Ez (V/m) @ t=3.5
0.10222503276719763
% es.tEx (V/m) @ t=3.5
0.38457445171806626
% es.tEy (V/m) @ t=3.5
0
% es.tEz (V/m) @ t=3.5
0.10222503276708395
% V (V) @ t=3.5
0.0739282316372222
% es.normE (V/m) @ t=3.6
0.41083979809955823
% es.EX (V/m) @ t=3.6
0.3891563060796486
% es.EY (V/m) @ t=3.6
-0.0815281184109935
% es.EZ (V/m) @ t=3.6
0.1034402003540773
% es.tEX (V/m) @ t=3.6
0.3891563060796841
% es.tEY (V/m) @ t=3.6
0
% es.tEZ (V/m) @ t=3.6
0.10344020035401691
% es.Ex (V/m) @ t=3.6
0.3891563060796486
% es.Ey (V/m) @ t=3.6
-0.0815281184109935
% es.Ez (V/m) @ t=3.6
0.1034402003540773
% es.tEx (V/m) @ t=3.6
0.3891563060796841
% es.tEy (V/m) @ t=3.6
0
% es.tEz (V/m) @ t=3.6
0.10344020035401691
% V (V) @ t=3.6
0.07480961666273395
% es.normE (V/m) @ t=3.7
0.41550917957379485
% es.EX (V/m) @ t=3.7
0.3935794950206457
% es.EY (V/m) @ t=3.7
-0.08245747681414883
% es.EZ (V/m) @ t=3.7
0.10461273310083108
% es.tEX (V/m) @ t=3.7
0.39357949502071676
% es.tEY (V/m) @ t=3.7
0
% es.tEZ (V/m) @ t=3.7
0.10461273310071029
% es.Ex (V/m) @ t=3.7
0.3935794950206457
% es.Ey (V/m) @ t=3.7
-0.08245747681414883
% es.Ez (V/m) @ t=3.7
0.10461273310083108
% es.tEx (V/m) @ t=3.7
0.39357949502071676
% es.tEy (V/m) @ t=3.7
0
% es.tEz (V/m) @ t=3.7
0.10461273310071029
% V (V) @ t=3.7
0.07566060371087559
% es.normE (V/m) @ t=3.8
0.4201154207751239
% es.EX (V/m) @ t=3.8
0.3979427008811598
% es.EY (V/m) @ t=3.8
-0.08337226698111522
% es.EZ (V/m) @ t=3.8
0.10577163460444794
% es.tEX (V/m) @ t=3.8
0.397942700881174
% es.tEY (V/m) @ t=3.8
0
% es.tEZ (V/m) @ t=3.8
0.10577163460444616
% es.Ex (V/m) @ t=3.8
0.3979427008811598
% es.Ey (V/m) @ t=3.8
-0.08337226698111522
% es.Ez (V/m) @ t=3.8
0.10577163460444794
% es.tEx (V/m) @ t=3.8
0.397942700881174
% es.tEy (V/m) @ t=3.8
0
% es.tEz (V/m) @ t=3.8
0.10577163460444616
% V (V) @ t=3.8
0.07649953296468943
% es.normE (V/m) @ t=3.9
0.4246221304838801
% es.EX (V/m) @ t=3.9
0.40221158588086325
% es.EY (V/m) @ t=3.9
-0.08426680624465632
% es.EZ (V/m) @ t=3.9
0.10690602997584264
% es.tEX (V/m) @ t=3.9
0.40221158588087036
% es.tEY (V/m) @ t=3.9
0
% es.tEZ (V/m) @ t=3.9
0.10690602997578225
% es.Ex (V/m) @ t=3.9
0.40221158588086325
% es.Ey (V/m) @ t=3.9
-0.08426680624465632
% es.Ez (V/m) @ t=3.9
0.10690602997584264
% es.tEx (V/m) @ t=3.9
0.40221158588087036
% es.tEy (V/m) @ t=3.9
0
% es.tEz (V/m) @ t=3.9
0.10690602997578225
% V (V) @ t=3.9
0.07732020062627921
% es.normE (V/m) @ t=4
0.4290513563404168
% es.EX (V/m) @ t=4
0.4064070242252029
% es.EY (V/m) @ t=4
-0.08514535648222932
% es.EZ (V/m) @ t=4
0.10802159648644682
% es.tEX (V/m) @ t=4
0.40640702422527397
% es.tEY (V/m) @ t=4
0
% es.tEZ (V/m) @ t=4
0.10802159648638643
% es.Ex (V/m) @ t=4
0.4064070242252029
% es.Ey (V/m) @ t=4
-0.08514535648222932
% es.Ez (V/m) @ t=4
0.10802159648644682
% es.tEx (V/m) @ t=4
0.40640702422527397
% es.tEy (V/m) @ t=4
0
% es.tEz (V/m) @ t=4
0.10802159648638643
% V (V) @ t=4
0.0781265902433053
% es.normE (V/m) @ t=4.1
0.4334251459916567
% es.EX (V/m) @ t=4.1
0.41054989012008747
% es.EY (V/m) @ t=4.1
-0.08601217957125584
% es.EZ (V/m) @ t=4.1
0.10912401140755001
% es.tEX (V/m) @ t=4.1
0.41054989012021537
% es.tEY (V/m) @ t=4.1
0
% es.tEZ (V/m) @ t=4.1
0.10912401140755179
% es.Ex (V/m) @ t=4.1
0.41054989012008747
% es.Ey (V/m) @ t=4.1
-0.08601217957125584
% es.Ez (V/m) @ t=4.1
0.10912401140755001
% es.tEx (V/m) @ t=4.1
0.41054989012021537
% es.tEy (V/m) @ t=4.1
0
% es.tEz (V/m) @ t=4.1
0.10912401140755179
% V (V) @ t=4.1
0.07892268536342803
% es.normE (V/m) @ t=4.2
0.4377655470943271
% es.EX (V/m) @ t=4.2
0.4146610577711982
% es.EY (V/m) @ t=4.2
-0.08687153738957676
% es.EZ (V/m) @ t=4.2
0.11021895201115761
% es.tEX (V/m) @ t=4.2
0.4146610577712124
% es.tEY (V/m) @ t=4.2
0
% es.tEZ (V/m) @ t=4.2
0.11021895201109011
% es.Ex (V/m) @ t=4.2
0.4146610577711982
% es.Ey (V/m) @ t=4.2
-0.08687153738957676
% es.Ez (V/m) @ t=4.2
0.11021895201115761
% es.tEx (V/m) @ t=4.2
0.4146610577712124
% es.tEy (V/m) @ t=4.2
0
% es.tEz (V/m) @ t=4.2
0.11021895201109011
% V (V) @ t=4.2
0.07971246953430776
% es.normE (V/m) @ t=4.3
0.4420946073183486
% es.EX (V/m) @ t=4.3
0.41876140138405304
% es.EY (V/m) @ t=4.3
-0.08772769181396001
% es.EZ (V/m) @ t=4.3
0.11131209556837796
% es.tEX (V/m) @ t=4.3
0.4187614013841241
% es.tEY (V/m) @ t=4.3
0
% es.tEZ (V/m) @ t=4.3
0.11131209556825361
% es.Ex (V/m) @ t=4.3
0.41876140138405304
% es.Ey (V/m) @ t=4.3
-0.08772769181396001
% es.Ez (V/m) @ t=4.3
0.11131209556837796
% es.tEx (V/m) @ t=4.3
0.4187614013841241
% es.tEy (V/m) @ t=4.3
0
% es.tEz (V/m) @ t=4.3
0.11131209556825361
% V (V) @ t=4.3
0.08049992630360482
% es.normE (V/m) @ t=4.4
0.4462150354781039
% es.EX (V/m) @ t=4.4
0.42266428162338343
% es.EY (V/m) @ t=4.4
-0.08854426995075926
% es.EZ (V/m) @ t=4.4
0.11235067950574162
% es.tEX (V/m) @ t=4.4
0.42266428162351133
% es.tEY (V/m) @ t=4.4
0
% es.tEZ (V/m) @ t=4.4
0.1123506795056759
% es.Ex (V/m) @ t=4.4
0.42266428162338343
% es.Ey (V/m) @ t=4.4
-0.08854426995075926
% es.Ez (V/m) @ t=4.4
0.11235067950574162
% es.tEx (V/m) @ t=4.4
0.42266428162351133
% es.tEy (V/m) @ t=4.4
0
% es.tEz (V/m) @ t=4.4
0.1123506795056759
% V (V) @ t=4.4
0.08124989483778991
% es.normE (V/m) @ t=4.5
0.45026541584295376
% es.EX (V/m) @ t=4.5
0.4265008264548271
% es.EY (V/m) @ t=4.5
-0.08934712328647976
% es.EZ (V/m) @ t=4.5
0.11337143069578026
% es.tEX (V/m) @ t=4.5
0.42650082645484133
% es.tEY (V/m) @ t=4.5
0
% es.tEZ (V/m) @ t=4.5
0.11337143069566302
% es.Ex (V/m) @ t=4.5
0.4265008264548271
% es.Ey (V/m) @ t=4.5
-0.08934712328647976
% es.Ez (V/m) @ t=4.5
0.11337143069578026
% es.tEx (V/m) @ t=4.5
0.42650082645484133
% es.tEy (V/m) @ t=4.5
0
% es.tEz (V/m) @ t=4.5
0.11337143069566302
% V (V) @ t=4.5
0.08198715643671432
% es.normE (V/m) @ t=4.6
0.45425604990428303
% es.EX (V/m) @ t=4.6
0.4302807972071321
% es.EY (V/m) @ t=4.6
-0.09013833760398171
% es.EZ (V/m) @ t=4.6
0.11437689680800034
% es.tEX (V/m) @ t=4.6
0.4302807972071889
% es.tEY (V/m) @ t=4.6
0
% es.tEZ (V/m) @ t=4.6
0.11437689680793994
% es.Ex (V/m) @ t=4.6
0.4302807972071321
% es.Ey (V/m) @ t=4.6
-0.09013833760398171
% es.Ez (V/m) @ t=4.6
0.11437689680800034
% es.tEx (V/m) @ t=4.6
0.4302807972071889
% es.tEy (V/m) @ t=4.6
0
% es.tEz (V/m) @ t=4.6
0.11437689680793994
% V (V) @ t=4.6
0.08271359836707064
% es.normE (V/m) @ t=4.7
0.45819489794752183
% es.EX (V/m) @ t=4.7
0.43401174022585565
% es.EY (V/m) @ t=4.7
-0.09091956495277032
% es.EZ (V/m) @ t=4.7
0.11536900172950837
% es.tEX (V/m) @ t=4.7
0.4340117402259409
% es.tEY (V/m) @ t=4.7
0
% es.tEZ (V/m) @ t=4.7
0.11536900172944264
% es.Ex (V/m) @ t=4.7
0.43401174022585565
% es.Ey (V/m) @ t=4.7
-0.09091956495277032
% es.Ez (V/m) @ t=4.7
0.11536900172950837
% es.tEx (V/m) @ t=4.7
0.4340117402259409
% es.tEy (V/m) @ t=4.7
0
% es.tEz (V/m) @ t=4.7
0.11536900172944264
% V (V) @ t=4.7
0.08343069007149402
% es.normE (V/m) @ t=4.8
0.46208992025907636
% es.EX (V/m) @ t=4.8
0.4377012018567541
% es.EY (V/m) @ t=4.8
-0.09169245738281973
% es.EZ (V/m) @ t=4.8
0.11634966934758495
% es.tEX (V/m) @ t=4.8
0.4377012018567683
% es.tEY (V/m) @ t=4.8
0
% es.tEZ (V/m) @ t=4.8
0.116349669347521
% es.Ex (V/m) @ t=4.8
0.4377012018567541
% es.Ey (V/m) @ t=4.8
-0.09169245738281973
% es.Ez (V/m) @ t=4.8
0.11634966934758495
% es.tEx (V/m) @ t=4.8
0.4377012018567683
% es.tEy (V/m) @ t=4.8
0
% es.tEz (V/m) @ t=4.8
0.116349669347521
% V (V) @ t=4.8
0.08413990099261968
% es.normE (V/m) @ t=4.9
0.46594907712668493
% es.EX (V/m) @ t=4.9
0.4413567284450579
% es.EY (V/m) @ t=4.9
-0.09245866694455174
% es.EZ (V/m) @ t=4.9
0.11732082354945028
% es.tEX (V/m) @ t=4.9
0.44135672844512897
% es.tEY (V/m) @ t=4.9
0
% es.tEZ (V/m) @ t=4.9
0.11732082354938989
% es.Ex (V/m) @ t=4.9
0.4413567284450579
% es.Ey (V/m) @ t=4.9
-0.09245866694455174
% es.Ez (V/m) @ t=4.9
0.11732082354945028
% es.tEx (V/m) @ t=4.9
0.44135672844512897
% es.tEy (V/m) @ t=4.9
0
% es.tEz (V/m) @ t=4.9
0.11732082354938989
% V (V) @ t=4.9
0.08484270057308291
% es.normE (V/m) @ t=5
0.4695249971370547
% es.EX (V/m) @ t=5
0.44474391817504966
% es.EY (V/m) @ t=5
-0.09316810644840245
% es.EZ (V/m) @ t=5
0.11822129302149875
% es.tEX (V/m) @ t=5
0.44474391817506387
% es.tEY (V/m) @ t=5
0
% es.tEZ (V/m) @ t=5
0.11822129302144013
% es.Ex (V/m) @ t=5
0.44474391817504966
% es.Ey (V/m) @ t=5
-0.09316810644840245
% es.Ez (V/m) @ t=5
0.11822129302149875
% es.tEx (V/m) @ t=5
0.44474391817506387
% es.tEy (V/m) @ t=5
0
% es.tEz (V/m) @ t=5
0.11822129302144013
% V (V) @ t=5
0.08549377093021897
% es.normE (V/m) @ t=5.1
0.47290458145272124
% es.EX (V/m) @ t=5.1
0.44794512047928947
% es.EY (V/m) @ t=5.1
-0.09383842415967791
% es.EZ (V/m) @ t=5.1
0.11907250878769915
% es.tEX (V/m) @ t=5.1
0.4479451204793605
% es.tEY (V/m) @ t=5.1
0
% es.tEZ (V/m) @ t=5.1
0.11907250878758369
% es.Ex (V/m) @ t=5.1
0.44794512047928947
% es.Ey (V/m) @ t=5.1
-0.09383842415967791
% es.Ez (V/m) @ t=5.1
0.11907250878769915
% es.tEx (V/m) @ t=5.1
0.4479451204793605
% es.tEy (V/m) @ t=5.1
0
% es.tEz (V/m) @ t=5.1
0.11907250878758369
% V (V) @ t=5.1
0.08610904673904975
% es.normE (V/m) @ t=5.2
0.4761138305098992
% es.EX (V/m) @ t=5.2
0.45098497625419043
% es.EY (V/m) @ t=5.2
-0.09447492770049593
% es.EZ (V/m) @ t=5.2
0.11988085264879622
% es.tEX (V/m) @ t=5.2
0.4509849762543183
% es.tEY (V/m) @ t=5.2
0
% es.tEZ (V/m) @ t=5.2
0.1198808526487447
% es.Ex (V/m) @ t=5.2
0.45098497625419043
% es.Ey (V/m) @ t=5.2
-0.09447492770049593
% es.Ez (V/m) @ t=5.2
0.11988085264879622
% es.tEx (V/m) @ t=5.2
0.4509849762543183
% es.tEy (V/m) @ t=5.2
0
% es.tEz (V/m) @ t=5.2
0.1198808526487447
% V (V) @ t=5.2
0.08669330314330574