% Model:              1x1--2 - Copy1.mph
% Version:            COMSOL 6.0.0.405
% Date:               Mar 2 2023, 12:07
% Dimension:          0
% Nodes:              14017
% Expressions:        14017
% Description:        Electric field norm, Electric field, X component, Electric field, Y component, Electric field, Z component, Tangential electric field, X component, Tangential electric field, Y component, Tangential electric field, Z component, Electric field, x component, Electric field, y component, Electric field, z component, Tangential electric field, x component, Tangential electric field, y component, Tangential electric field, z component, Electric potential
% Length unit:        mm
% x
1
% y
14.200000000000003
% z
2
% es.normE (V/m) @ t=0
0.08592320897819164
% es.EX (V/m) @ t=0
0.060917682782693494
% es.EY (V/m) @ t=0
-0.008835181140177895
% es.EZ (V/m) @ t=0
-0.05994808870779256
% es.tEX (V/m) @ t=0
0.06091768278269072
% es.tEY (V/m) @ t=0
0
% es.tEZ (V/m) @ t=0
-0.05994808870780233
% es.Ex (V/m) @ t=0
0.060917682782693494
% es.Ey (V/m) @ t=0
-0.008835181140177895
% es.Ez (V/m) @ t=0
-0.05994808870779256
% es.tEx (V/m) @ t=0
0.06091768278269072
% es.tEy (V/m) @ t=0
0
% es.tEz (V/m) @ t=0
-0.05994808870780233
% V (V) @ t=0
0.016270927513970527
% es.normE (V/m) @ t=0.1
0.0908529351103446
% es.EX (V/m) @ t=0.1
0.06441279742591477
% es.EY (V/m) @ t=0.1
-0.009342086097668734
% es.EZ (V/m) @ t=0.1
-0.06338748120312321
% es.tEX (V/m) @ t=0.1
0.06441279742591277
% es.tEY (V/m) @ t=0.1
0
% es.tEZ (V/m) @ t=0.1
-0.0633874812031312
% es.Ex (V/m) @ t=0.1
0.06441279742591477
% es.Ey (V/m) @ t=0.1
-0.009342086097668734
% es.Ez (V/m) @ t=0.1
-0.06338748120312321
% es.tEx (V/m) @ t=0.1
0.06441279742591277
% es.tEy (V/m) @ t=0.1
0
% es.tEz (V/m) @ t=0.1
-0.0633874812031312
% V (V) @ t=0.1
0.017204436514430755
% es.normE (V/m) @ t=0.2
0.09652482985495717
% es.EX (V/m) @ t=0.2
0.0684339763216747
% es.EY (V/m) @ t=0.2
-0.00992532917115696
% es.EZ (V/m) @ t=0.2
-0.06734479567254681
% es.tEX (V/m) @ t=0.2
0.06843397632167125
% es.tEY (V/m) @ t=0.2
0
% es.tEZ (V/m) @ t=0.2
-0.06734479567255924
% es.Ex (V/m) @ t=0.2
0.0684339763216747
% es.Ey (V/m) @ t=0.2
-0.00992532917115696
% es.Ez (V/m) @ t=0.2
-0.06734479567254681
% es.tEx (V/m) @ t=0.2
0.06843397632167125
% es.tEy (V/m) @ t=0.2
0
% es.tEz (V/m) @ t=0.2
-0.06734479567255924
% V (V) @ t=0.2
0.018278512557315402
% es.normE (V/m) @ t=0.3
0.10268734357898332
% es.EX (V/m) @ t=0.3
0.0728032100944409
% es.EY (V/m) @ t=0.3
-0.01055895345454605
% es.EZ (V/m) @ t=0.3
-0.07164420167185614
% es.tEX (V/m) @ t=0.3
0.07280321009443469
% es.tEY (V/m) @ t=0.3
0
% es.tEZ (V/m) @ t=0.3
-0.07164420167186059
% es.Ex (V/m) @ t=0.3
0.0728032100944409
% es.Ey (V/m) @ t=0.3
-0.01055895345454605
% es.Ez (V/m) @ t=0.3
-0.07164420167185614
% es.tEx (V/m) @ t=0.3
0.07280321009443469
% es.tEy (V/m) @ t=0.3
0
% es.tEz (V/m) @ t=0.3
-0.07164420167186059
% V (V) @ t=0.3
0.019445455330973672
% es.normE (V/m) @ t=0.4
0.10911276020683809
% es.EX (V/m) @ t=0.4
0.07735871662346394
% es.EY (V/m) @ t=0.4
-0.011219649012015331
% es.EZ (V/m) @ t=0.4
-0.0761271494170952
% es.tEX (V/m) @ t=0.4
0.0773587166234595
% es.tEY (V/m) @ t=0.4
0
% es.tEZ (V/m) @ t=0.4
-0.0761271494171023
% es.Ex (V/m) @ t=0.4
0.07735871662346394
% es.Ey (V/m) @ t=0.4
-0.011219649012015331
% es.Ez (V/m) @ t=0.4
-0.0761271494170952
% es.tEx (V/m) @ t=0.4
0.0773587166234595
% es.tEy (V/m) @ t=0.4
0
% es.tEz (V/m) @ t=0.4
-0.0761271494171023
% V (V) @ t=0.4
0.020662205072550382
% es.normE (V/m) @ t=0.5
0.11578806990118122
% es.EX (V/m) @ t=0.5
0.08209129364434364
% es.EY (V/m) @ t=0.5
-0.011906071307025812
% es.EZ (V/m) @ t=0.5
-0.08078454125184464
% es.tEX (V/m) @ t=0.5
0.0820912936443392
% es.tEY (V/m) @ t=0.5
0
% es.tEZ (V/m) @ t=0.5
-0.08078454125186063
% es.Ex (V/m) @ t=0.5
0.08209129364434364
% es.Ey (V/m) @ t=0.5
-0.011906071307025812
% es.Ez (V/m) @ t=0.5
-0.08078454125184464
% es.tEx (V/m) @ t=0.5
0.0820912936443392
% es.tEy (V/m) @ t=0.5
0
% es.tEz (V/m) @ t=0.5
-0.08078454125186063
% V (V) @ t=0.5
0.02192629420007157
% es.normE (V/m) @ t=0.6
0.12295007424490909
% es.EX (V/m) @ t=0.6
0.08716900043032583
% es.EY (V/m) @ t=0.6
-0.012642515383666897
% es.EZ (V/m) @ t=0.6
-0.08578142529464206
% es.tEX (V/m) @ t=0.6
0.08716900043032183
% es.tEY (V/m) @ t=0.6
0
% es.tEZ (V/m) @ t=0.6
-0.08578142529466071
% es.Ex (V/m) @ t=0.6
0.08716900043032583
% es.Ey (V/m) @ t=0.6
-0.012642515383666897
% es.Ez (V/m) @ t=0.6
-0.08578142529464206
% es.tEx (V/m) @ t=0.6
0.08716900043032183
% es.tEy (V/m) @ t=0.6
0
% es.tEz (V/m) @ t=0.6
-0.08578142529466071
% V (V) @ t=0.6
0.02328253301485069
% es.normE (V/m) @ t=0.7
0.13027277015302327
% es.EX (V/m) @ t=0.7
0.0923605816359716
% es.EY (V/m) @ t=0.7
-0.013395499413206835
% es.EZ (V/m) @ t=0.7
-0.09089047364096103
% es.tEX (V/m) @ t=0.7
0.09236058163596894
% es.tEY (V/m) @ t=0.7
0
% es.tEZ (V/m) @ t=0.7
-0.09089047364097169
% es.Ex (V/m) @ t=0.7
0.0923605816359716
% es.Ey (V/m) @ t=0.7
-0.013395499413206835
% es.Ez (V/m) @ t=0.7
-0.09089047364096103
% es.tEx (V/m) @ t=0.7
0.09236058163596894
% es.tEy (V/m) @ t=0.7
0
% es.tEz (V/m) @ t=0.7
-0.09089047364097169
% V (V) @ t=0.7
0.024669211019278863
% es.normE (V/m) @ t=0.8
0.13793996722481525
% es.EX (V/m) @ t=0.8
0.09779629432546977
% es.EY (V/m) @ t=0.8
-0.014183942883646772
% es.EZ (V/m) @ t=0.8
-0.09623998721146343
% es.tEX (V/m) @ t=0.8
0.09779629432546777
% es.tEY (V/m) @ t=0.8
0
% es.tEZ (V/m) @ t=0.8
-0.09623998721146876
% es.Ex (V/m) @ t=0.8
0.09779629432546977
% es.Ey (V/m) @ t=0.8
-0.014183942883646772
% es.Ez (V/m) @ t=0.8
-0.09623998721146343
% es.tEx (V/m) @ t=0.8
0.09779629432546777
% es.tEy (V/m) @ t=0.8
0
% es.tEz (V/m) @ t=0.8
-0.09623998721146876
% V (V) @ t=0.8
0.026121146564068384
% es.normE (V/m) @ t=0.9
0.145887046280961
% es.EX (V/m) @ t=0.9
0.1034303459792072
% es.EY (V/m) @ t=0.9
-0.015001194554744579
% es.EZ (V/m) @ t=0.9
-0.1017848611785439
% es.tEX (V/m) @ t=0.9
0.10343034597920564
% es.tEY (V/m) @ t=0.9
0
% es.tEZ (V/m) @ t=0.9
-0.10178486117855812
% es.Ex (V/m) @ t=0.9
0.1034303459792072
% es.Ey (V/m) @ t=0.9
-0.015001194554744579
% es.Ez (V/m) @ t=0.9
-0.1017848611785439
% es.tEx (V/m) @ t=0.9
0.10343034597920564
% es.tEy (V/m) @ t=0.9
0
% es.tEz (V/m) @ t=0.9
-0.10178486117855812
% V (V) @ t=0.9
0.027626099084628923
% es.normE (V/m) @ t=1
0.15417795916353197
% es.EX (V/m) @ t=1
0.1093083124153873
% es.EY (V/m) @ t=1
-0.015853755895331112
% es.EZ (V/m) @ t=1
-0.10756948616007733
% es.tEX (V/m) @ t=1
0.10930831241538108
% es.tEY (V/m) @ t=1
0
% es.tEZ (V/m) @ t=1
-0.10756948616008444
% es.Ex (V/m) @ t=1
0.1093083124153873
% es.Ey (V/m) @ t=1
-0.015853755895331112
% es.Ez (V/m) @ t=1
-0.10756948616007733
% es.tEx (V/m) @ t=1
0.10930831241538108
% es.tEy (V/m) @ t=1
0
% es.tEz (V/m) @ t=1
-0.10756948616008444
% V (V) @ t=1
0.029196135346548774
% es.normE (V/m) @ t=1.1
0.16284380754463149
% es.EX (V/m) @ t=1.1
0.11545235850267144
% es.EY (V/m) @ t=1.1
-0.016744788762055762
% es.EZ (V/m) @ t=1.1
-0.11361545062674239
% es.tEX (V/m) @ t=1.1
0.11545235850266522
% es.tEY (V/m) @ t=1.1
0
% es.tEZ (V/m) @ t=1.1
-0.11361545062674949
% es.Ex (V/m) @ t=1.1
0.11545235850267144
% es.Ey (V/m) @ t=1.1
-0.016744788762055762
% es.Ez (V/m) @ t=1.1
-0.11361545062674239
% es.tEx (V/m) @ t=1.1
0.11545235850266522
% es.tEy (V/m) @ t=1.1
0
% es.tEz (V/m) @ t=1.1
-0.11361545062674949
% V (V) @ t=1.1
0.030837123774908284
% es.normE (V/m) @ t=1.2
0.17185139618955433
% es.EX (V/m) @ t=1.2
0.12183882737709295
% es.EY (V/m) @ t=1.2
-0.017670918462664886
% es.EZ (V/m) @ t=1.2
-0.11989971291191637
% es.tEX (V/m) @ t=1.2
0.12183882737708274
% es.tEY (V/m) @ t=1.2
0
% es.tEZ (V/m) @ t=1.2
-0.11989971291193768
% es.Ex (V/m) @ t=1.2
0.12183882737709295
% es.Ey (V/m) @ t=1.2
-0.017670918462664886
% es.Ez (V/m) @ t=1.2
-0.11989971291191637
% es.tEx (V/m) @ t=1.2
0.12183882737708274
% es.tEy (V/m) @ t=1.2
0
% es.tEz (V/m) @ t=1.2
-0.11989971291193768
% V (V) @ t=1.2
0.032542800920287544
% es.normE (V/m) @ t=1.3
0.1812030267006615
% es.EX (V/m) @ t=1.3
0.12846913448128272
% es.EY (V/m) @ t=1.3
-0.018632450127595845
% es.EZ (V/m) @ t=1.3
-0.12642408858027565
% es.tEX (V/m) @ t=1.3
0.12846913448127317
% es.tEY (V/m) @ t=1.3
0
% es.tEZ (V/m) @ t=1.3
-0.12642408858029697
% es.Ex (V/m) @ t=1.3
0.12846913448128272
% es.Ey (V/m) @ t=1.3
-0.018632450127595845
% es.Ez (V/m) @ t=1.3
-0.12642408858027565
% es.tEx (V/m) @ t=1.3
0.12846913448127317
% es.tEy (V/m) @ t=1.3
0
% es.tEz (V/m) @ t=1.3
-0.12642408858029697
% V (V) @ t=1.3
0.0343136426393557
% es.normE (V/m) @ t=1.4
0.19089963454554382
% es.EX (V/m) @ t=1.4
0.13534385511108926
% es.EY (V/m) @ t=1.4
-0.01962950777482142
% es.EZ (V/m) @ t=1.4
-0.1331893155542474
% es.tEX (V/m) @ t=1.4
0.13534385511108482
% es.tEY (V/m) @ t=1.4
0
% es.tEZ (V/m) @ t=1.4
-0.1331893155542474
% es.Ex (V/m) @ t=1.4
0.13534385511108926
% es.Ey (V/m) @ t=1.4
-0.01962950777482142
% es.Ez (V/m) @ t=1.4
-0.1331893155542474
% es.tEx (V/m) @ t=1.4
0.13534385511108482
% es.tEy (V/m) @ t=1.4
0
% es.tEz (V/m) @ t=1.4
-0.1331893155542474
% V (V) @ t=1.4
0.036149842340432226
% es.normE (V/m) @ t=1.5
0.20094012023906055
% es.EX (V/m) @ t=1.5
0.1424623131034739
% es.EY (V/m) @ t=1.5
-0.020661945642302726
% es.EZ (V/m) @ t=1.5
-0.14019452653071163
% es.tEX (V/m) @ t=1.5
0.14246231310346857
% es.tEY (V/m) @ t=1.5
0
% es.tEZ (V/m) @ t=1.5
-0.14019452653073827
% es.Ex (V/m) @ t=1.5
0.1424623131034739
% es.Ey (V/m) @ t=1.5
-0.020661945642302726
% es.Ez (V/m) @ t=1.5
-0.14019452653071163
% es.tEx (V/m) @ t=1.5
0.14246231310346857
% es.tEy (V/m) @ t=1.5
0
% es.tEz (V/m) @ t=1.5
-0.14019452653073827
% V (V) @ t=1.5
0.03805117270472581
% es.normE (V/m) @ t=1.6
0.21118655089739102
% es.EX (V/m) @ t=1.6
0.14972683453842528
% es.EY (V/m) @ t=1.6
-0.021715543379317026
% es.EZ (V/m) @ t=1.6
-0.1473433726870006
% es.tEX (V/m) @ t=1.6
0.1497268345384235
% es.tEY (V/m) @ t=1.6
0
% es.tEZ (V/m) @ t=1.6
-0.14734337268701125
% es.Ex (V/m) @ t=1.6
0.14972683453842528
% es.Ey (V/m) @ t=1.6
-0.021715543379317026
% es.Ez (V/m) @ t=1.6
-0.1473433726870006
% es.tEx (V/m) @ t=1.6
0.1497268345384235
% es.tEy (V/m) @ t=1.6
0
% es.tEz (V/m) @ t=1.6
-0.14734337268701125
% V (V) @ t=1.6
0.03999149222298559
% es.normE (V/m) @ t=1.7
0.22159316170664792
% es.EX (V/m) @ t=1.7
0.1571050121418196
% es.EY (V/m) @ t=1.7
-0.022785582809357052
% es.EZ (V/m) @ t=1.7
-0.15460388640362588
% es.tEX (V/m) @ t=1.7
0.1571050121418125
% es.tEY (V/m) @ t=1.7
0
% es.tEZ (V/m) @ t=1.7
-0.15460388640362765
% es.Ex (V/m) @ t=1.7
0.1571050121418196
% es.Ey (V/m) @ t=1.7
-0.022785582809357052
% es.Ez (V/m) @ t=1.7
-0.15460388640362588
% es.tEx (V/m) @ t=1.7
0.1571050121418125
% es.tEy (V/m) @ t=1.7
0
% es.tEz (V/m) @ t=1.7
-0.15460388640362765
% V (V) @ t=1.7
0.04196212739202962
% es.normE (V/m) @ t=1.8
0.23222050040251413
% es.EX (V/m) @ t=1.8
0.16463972136525307
% es.EY (V/m) @ t=1.8
-0.023878306171416952
% es.EZ (V/m) @ t=1.8
-0.16201836146051463
% es.tEX (V/m) @ t=1.8
0.16463972136524063
% es.tEY (V/m) @ t=1.8
0
% es.tEZ (V/m) @ t=1.8
-0.16201836146052884
% es.Ex (V/m) @ t=1.8
0.16463972136525307
% es.Ey (V/m) @ t=1.8
-0.023878306171416952
% es.Ez (V/m) @ t=1.8
-0.16201836146051463
% es.tEx (V/m) @ t=1.8
0.16463972136524063
% es.tEy (V/m) @ t=1.8
0
% es.tEz (V/m) @ t=1.8
-0.16201836146052884
% V (V) @ t=1.8
0.043974553424625626
% es.normE (V/m) @ t=1.9
0.24306856698515628
% es.EX (V/m) @ t=1.9
0.17233096220870392
% es.EY (V/m) @ t=1.9
-0.024993713465521594
% es.EZ (V/m) @ t=1.9
-0.16958679785774322
% es.tEX (V/m) @ t=1.9
0.17233096220869726
% es.tEY (V/m) @ t=1.9
0
% es.tEZ (V/m) @ t=1.9
-0.16958679785775388
% es.Ex (V/m) @ t=1.9
0.17233096220870392
% es.Ey (V/m) @ t=1.9
-0.024993713465521594
% es.Ez (V/m) @ t=1.9
-0.16958679785774322
% es.tEx (V/m) @ t=1.9
0.17233096220869726
% es.tEy (V/m) @ t=1.9
0
% es.tEz (V/m) @ t=1.9
-0.16958679785775388
% V (V) @ t=1.9
0.046028770320773585
% es.normE (V/m) @ t=2
0.25413736145467153
% es.EX (V/m) @ t=2
0.18017873467219392
% es.EY (V/m) @ t=2
-0.026131804691603477
% es.EZ (V/m) @ t=2
-0.17730919559523528
% es.tEX (V/m) @ t=2
0.18017873467217882
% es.tEY (V/m) @ t=2
0
% es.tEZ (V/m) @ t=2
-0.17730919559526015
% es.Ex (V/m) @ t=2
0.18017873467219392
% es.Ey (V/m) @ t=2
-0.026131804691603477
% es.Ez (V/m) @ t=2
-0.17730919559523528
% es.tEx (V/m) @ t=2
0.18017873467217882
% es.tEy (V/m) @ t=2
0
% es.tEz (V/m) @ t=2
-0.17730919559526015
% V (V) @ t=2
0.0481247780804735
% es.normE (V/m) @ t=2.1
0.2654268838112705
% es.EX (V/m) @ t=2.1
0.18818303875569464
% es.EY (V/m) @ t=2.1
-0.027292579849762078
% es.EZ (V/m) @ t=2.1
-0.18518555467308673
% es.tEX (V/m) @ t=2.1
0.18818303875569242
% es.tEY (V/m) @ t=2.1
0
% es.tEZ (V/m) @ t=2.1
-0.18518555467307962
% es.Ex (V/m) @ t=2.1
0.18818303875569464
% es.Ey (V/m) @ t=2.1
-0.027292579849762078
% es.Ez (V/m) @ t=2.1
-0.18518555467308673
% es.tEx (V/m) @ t=2.1
0.18818303875569242
% es.tEy (V/m) @ t=2.1
0
% es.tEz (V/m) @ t=2.1
-0.18518555467307962
% V (V) @ t=2.1
0.05026257670372539
% es.normE (V/m) @ t=2.2
0.2765041017100086
% es.EX (V/m) @ t=2.2
0.19603635808888242
% es.EY (V/m) @ t=2.2
-0.028431671772194633
% es.EZ (V/m) @ t=2.2
-0.19291424159440496
% es.tEX (V/m) @ t=2.2
0.19603635808886466
% es.tEY (V/m) @ t=2.2
0
% es.tEZ (V/m) @ t=2.2
-0.19291424159442627
% es.Ex (V/m) @ t=2.2
0.19603635808888242
% es.Ey (V/m) @ t=2.2
-0.028431671772194633
% es.Ez (V/m) @ t=2.2
-0.19291424159440496
% es.tEx (V/m) @ t=2.2
0.19603635808886466
% es.tEy (V/m) @ t=2.2
0
% es.tEz (V/m) @ t=2.2
-0.19291424159442627
% V (V) @ t=2.2
0.0523602581973083
% es.normE (V/m) @ t=2.3
0.28741816819983834
% es.EX (V/m) @ t=2.3
0.20377359853217492
% es.EY (V/m) @ t=2.3
-0.029554116529526553
% es.EZ (V/m) @ t=2.3
-0.20052949446093393
% es.tEX (V/m) @ t=2.3
0.20377359853216248
% es.tEY (V/m) @ t=2.3
0
% es.tEZ (V/m) @ t=2.3
-0.2005294944609446
% es.Ex (V/m) @ t=2.3
0.20377359853217492
% es.Ey (V/m) @ t=2.3
-0.029554116529526553
% es.Ez (V/m) @ t=2.3
-0.20052949446093393
% es.tEx (V/m) @ t=2.3
0.20377359853216248
% es.tEy (V/m) @ t=2.3
0
% es.tEz (V/m) @ t=2.3
-0.2005294944609446
% V (V) @ t=2.3
0.05442711985157088
% es.normE (V/m) @ t=2.4
0.29835576543297154
% es.EX (V/m) @ t=2.4
0.21152733174630933
% es.EY (V/m) @ t=2.4
-0.030679041003059737
% es.EZ (V/m) @ t=2.4
-0.20816134880066883
% es.tEX (V/m) @ t=2.4
0.21152733174630356
% es.tEY (V/m) @ t=2.4
0
% es.tEZ (V/m) @ t=2.4
-0.20816134880067594
% es.Ex (V/m) @ t=2.4
0.21152733174630933
% es.Ey (V/m) @ t=2.4
-0.030679041003059737
% es.Ez (V/m) @ t=2.4
-0.20816134880066883
% es.tEx (V/m) @ t=2.4
0.21152733174630356
% es.tEy (V/m) @ t=2.4
0
% es.tEz (V/m) @ t=2.4
-0.20816134880067594
% V (V) @ t=2.4
0.05649847256288994
% es.normE (V/m) @ t=2.5
0.30931689341208524
% es.EX (V/m) @ t=2.5
0.2192975577313283
% es.EY (V/m) @ t=2.5
-0.031806445192925636
% es.EZ (V/m) @ t=2.5
-0.21580980461361676
% es.tEX (V/m) @ t=2.5
0.2192975577313092
% es.tEY (V/m) @ t=2.5
0
% es.tEZ (V/m) @ t=2.5
-0.21580980461363453
% es.Ex (V/m) @ t=2.5
0.2192975577313283
% es.Ey (V/m) @ t=2.5
-0.031806445192925636
% es.Ez (V/m) @ t=2.5
-0.21580980461361676
% es.tEx (V/m) @ t=2.5
0.2192975577313092
% es.tEy (V/m) @ t=2.5
0
% es.tEz (V/m) @ t=2.5
-0.21580980461363453
% V (V) @ t=2.5
0.05857431633126548
% es.normE (V/m) @ t=2.6
0.3203015521400917
% es.EX (V/m) @ t=2.6
0.22708427648717455
% es.EY (V/m) @ t=2.6
-0.03293632909899458
% es.EZ (V/m) @ t=2.6
-0.22347486189979193
% es.tEX (V/m) @ t=2.6
0.22708427648716523
% es.tEY (V/m) @ t=2.6
0
% es.tEZ (V/m) @ t=2.6
-0.2234748618998239
% es.Ex (V/m) @ t=2.6
0.22708427648717455
% es.Ey (V/m) @ t=2.6
-0.03293632909899458
% es.Ez (V/m) @ t=2.6
-0.22347486189979193
% es.tEx (V/m) @ t=2.6
0.22708427648716523
% es.tEy (V/m) @ t=2.6
0
% es.tEz (V/m) @ t=2.6
-0.2234748618998239
% V (V) @ t=2.6
0.06065465115669751
% es.normE (V/m) @ t=2.7
0.331044211447756
% es.EX (V/m) @ t=2.7
0.23469963638451796
% es.EY (V/m) @ t=2.7
-0.03404126094973137
% es.EZ (V/m) @ t=2.7
-0.23097087081923107
% es.tEX (V/m) @ t=2.7
0.23469963638450508
% es.tEY (V/m) @ t=2.7
0
% es.tEZ (V/m) @ t=2.7
-0.23097087081924883
% es.Ex (V/m) @ t=2.7
0.23469963638451796
% es.Ey (V/m) @ t=2.7
-0.03404126094973137
% es.Ez (V/m) @ t=2.7
-0.23097087081923107
% es.tEx (V/m) @ t=2.7
0.23469963638450508
% es.tEy (V/m) @ t=2.7
0
% es.tEz (V/m) @ t=2.7
-0.23097087081924883
% V (V) @ t=2.7
0.06268911994035913
% es.normE (V/m) @ t=2.8
0.3409887732521974
% es.EX (V/m) @ t=2.8
0.24175022100207855
% es.EY (V/m) @ t=2.8
-0.0350637905677047
% es.EZ (V/m) @ t=2.8
-0.23790902614341647
% es.tEX (V/m) @ t=2.8
0.2417502210020679
% es.tEY (V/m) @ t=2.8
0
% es.tEZ (V/m) @ t=2.8
-0.23790902614344844
% es.Ex (V/m) @ t=2.8
0.24175022100207855
% es.Ey (V/m) @ t=2.8
-0.0350637905677047
% es.Ez (V/m) @ t=2.8
-0.23790902614341647
% es.tEx (V/m) @ t=2.8
0.2417502210020679
% es.tEy (V/m) @ t=2.8
0
% es.tEz (V/m) @ t=2.8
-0.23790902614344844
% V (V) @ t=2.8
0.06457226014418528
% es.normE (V/m) @ t=2.9
0.3506446230621724
% es.EX (V/m) @ t=2.9
0.2485963995485898
% es.EY (V/m) @ t=2.9
-0.036056542281617254
% es.EZ (V/m) @ t=2.9
-0.244645473231337
% es.tEX (V/m) @ t=2.9
0.2485963995485747
% es.tEY (V/m) @ t=2.9
0
% es.tEZ (V/m) @ t=2.9
-0.24464547323135122
% es.Ex (V/m) @ t=2.9
0.2485963995485898
% es.Ey (V/m) @ t=2.9
-0.036056542281617254
% es.Ez (V/m) @ t=2.9
-0.244645473231337
% es.tEx (V/m) @ t=2.9
0.2485963995485747
% es.tEy (V/m) @ t=2.9
0
% es.tEz (V/m) @ t=2.9
-0.24464547323135122
% V (V) @ t=2.9
0.0664006753905511
% es.normE (V/m) @ t=3
0.3600117608799001
% es.EX (V/m) @ t=3
0.25523817202412813
% es.EY (V/m) @ t=3
-0.03701951609100007
% es.EZ (V/m) @ t=3
-0.25118021208291097
% es.tEX (V/m) @ t=3
0.2552381720241108
% es.tEY (V/m) @ t=3
0
% es.tEZ (V/m) @ t=3
-0.25118021208295715
% es.Ex (V/m) @ t=3
0.25523817202412813
% es.Ey (V/m) @ t=3
-0.03701951609100007
% es.Ez (V/m) @ t=3
-0.25118021208291097
% es.tEx (V/m) @ t=3
0.2552381720241108
% es.tEy (V/m) @ t=3
0
% es.tEz (V/m) @ t=3
-0.25118021208295715
% V (V) @ t=3
0.06817436567945653
% es.normE (V/m) @ t=3.1
0.36909018670877697
% es.EX (V/m) @ t=3.1
0.2616755384286513
% es.EY (V/m) @ t=3.1
-0.037952711996226185
% es.EZ (V/m) @ t=3.1
-0.25751324269817033
% es.tEX (V/m) @ t=3.1
0.26167553842864777
% es.tEY (V/m) @ t=3.1
0
% es.tEZ (V/m) @ t=3.1
-0.2575132426982023
% es.Ex (V/m) @ t=3.1
0.2616755384286513
% es.Ey (V/m) @ t=3.1
-0.037952711996226185
% es.Ez (V/m) @ t=3.1
-0.25751324269817033
% es.tEx (V/m) @ t=3.1
0.26167553842864777
% es.tEy (V/m) @ t=3.1
0
% es.tEz (V/m) @ t=3.1
-0.2575132426982023
% V (V) @ t=3.1
0.0698933310109016
% es.normE (V/m) @ t=3.2
0.37787990055312815
% es.EX (V/m) @ t=3.2
0.26790849876218825
% es.EY (V/m) @ t=3.2
-0.038856129997082434
% es.EZ (V/m) @ t=3.2
-0.26364456507707956
% es.tEX (V/m) @ t=3.2
0.26790849876217493
% es.tEY (V/m) @ t=3.2
0
% es.tEZ (V/m) @ t=3.2
-0.263644565077108
% es.Ex (V/m) @ t=3.2
0.26790849876218825
% es.Ey (V/m) @ t=3.2
-0.038856129997082434
% es.Ez (V/m) @ t=3.2
-0.26364456507707956
% es.tEx (V/m) @ t=3.2
0.26790849876217493
% es.tEy (V/m) @ t=3.2
0
% es.tEz (V/m) @ t=3.2
-0.263644565077108
% V (V) @ t=3.2
0.07155757138488629
% es.normE (V/m) @ t=3.3
0.3858049802113194
% es.EX (V/m) @ t=3.3
0.2735277751034899
% es.EY (V/m) @ t=3.3
-0.03967086013285126
% es.EZ (V/m) @ t=3.3
-0.2691732933615647
% es.tEX (V/m) @ t=3.3
0.27352777510347437
% es.tEY (V/m) @ t=3.3
0
% es.tEZ (V/m) @ t=3.3
-0.26917329336158957
% es.Ex (V/m) @ t=3.3
0.2735277751034899
% es.Ey (V/m) @ t=3.3
-0.03967086013285126
% es.Ez (V/m) @ t=3.3
-0.2691732933615647
% es.tEx (V/m) @ t=3.3
0.27352777510347437
% es.tEy (V/m) @ t=3.3
0
% es.tEz (V/m) @ t=3.3
-0.26917329336158957
% V (V) @ t=3.3
0.07305820616213402
% es.normE (V/m) @ t=3.4
0.39321397573120886
% es.EX (V/m) @ t=3.4
0.27878106382595336
% es.EY (V/m) @ t=3.4
-0.040432554909841656
% es.EZ (V/m) @ t=3.4
-0.2743420450202194
% es.tEX (V/m) @ t=3.4
0.2787810638259458
% es.tEY (V/m) @ t=3.4
0
% es.tEZ (V/m) @ t=3.4
-0.2743420450202052
% es.Ex (V/m) @ t=3.4
0.27878106382595336
% es.Ey (V/m) @ t=3.4
-0.040432554909841656
% es.Ez (V/m) @ t=3.4
-0.2743420450202194
% es.tEx (V/m) @ t=3.4
0.2787810638259458
% es.tEy (V/m) @ t=3.4
0
% es.tEz (V/m) @ t=3.4
-0.2743420450202052
% V (V) @ t=3.4
0.07446113027145244
% es.normE (V/m) @ t=3.5
0.4001392314908147
% es.EX (V/m) @ t=3.5
0.2836913503951717
% es.EY (V/m) @ t=3.5
-0.04114452277143954
% es.EZ (V/m) @ t=3.5
-0.27917333421180146
% es.tEX (V/m) @ t=3.5
0.28369135039515214
% es.tEY (V/m) @ t=3.5
0
% es.tEZ (V/m) @ t=3.5
-0.2791733342118121
% es.Ex (V/m) @ t=3.5
0.2836913503951717
% es.Ey (V/m) @ t=3.5
-0.04114452277143954
% es.Ez (V/m) @ t=3.5
-0.27917333421180146
% es.tEx (V/m) @ t=3.5
0.28369135039515214
% es.tEy (V/m) @ t=3.5
0
% es.tEz (V/m) @ t=3.5
-0.2791733342118121
% V (V) @ t=3.5
0.07577245856061528
% es.normE (V/m) @ t=3.6
0.4065807474897911
% es.EX (V/m) @ t=3.6
0.28825863481109515
% es.EY (V/m) @ t=3.6
-0.04180676371765912
% es.EZ (V/m) @ t=3.6
-0.2836671609362931
% es.tEX (V/m) @ t=3.6
0.28825863481108627
% es.tEY (V/m) @ t=3.6
0
% es.tEZ (V/m) @ t=3.6
-0.2836671609362895
% es.Ex (V/m) @ t=3.6
0.28825863481109515
% es.Ey (V/m) @ t=3.6
-0.04180676371765912
% es.Ez (V/m) @ t=3.6
-0.2836671609362931
% es.tEx (V/m) @ t=3.6
0.28825863481108627
% es.tEy (V/m) @ t=3.6
0
% es.tEz (V/m) @ t=3.6
-0.2836671609362895
% V (V) @ t=3.6
0.07699219102962249
% es.normE (V/m) @ t=3.7
0.4125217163086096
% es.EX (V/m) @ t=3.7
0.2924709496007285
% es.EY (V/m) @ t=3.7
-0.04241756517376061
% es.EZ (V/m) @ t=3.7
-0.28781184866259224
% es.tEX (V/m) @ t=3.7
0.2924709496007125
% es.tEY (V/m) @ t=3.7
0
% es.tEZ (V/m) @ t=3.7
-0.28781184866261356
% es.Ex (V/m) @ t=3.7
0.2924709496007285
% es.Ey (V/m) @ t=3.7
-0.04241756517376061
% es.Ez (V/m) @ t=3.7
-0.28781184866259224
% es.tEx (V/m) @ t=3.7
0.2924709496007125
% es.tEy (V/m) @ t=3.7
0
% es.tEz (V/m) @ t=3.7
-0.28781184866261356
% V (V) @ t=3.7
0.07811715427589051
% es.normE (V/m) @ t=3.8
0.4178099496967706
% es.EX (V/m) @ t=3.8
0.29621993138273517
% es.EY (V/m) @ t=3.8
-0.04296142007529369
% es.EZ (V/m) @ t=3.8
-0.2915016684383467
% es.tEX (V/m) @ t=3.8
0.2962199313827085
% es.tEY (V/m) @ t=3.8
0
% es.tEZ (V/m) @ t=3.8
-0.2915016684384071
% es.Ex (V/m) @ t=3.8
0.29621993138273517
% es.Ey (V/m) @ t=3.8
-0.04296142007529369
% es.Ez (V/m) @ t=3.8
-0.2915016684383467
% es.tEx (V/m) @ t=3.8
0.2962199313827085
% es.tEy (V/m) @ t=3.8
0
% es.tEz (V/m) @ t=3.8
-0.2915016684384071
% V (V) @ t=3.8
0.07911861369244384
% es.normE (V/m) @ t=3.9
0.42255300284184033
% es.EX (V/m) @ t=3.9
0.29958216322907383
% es.EY (V/m) @ t=3.9
-0.04344928764672318
% es.EZ (V/m) @ t=3.9
-0.29481134151968647
% es.tEX (V/m) @ t=3.9
0.2995821632290685
% es.tEY (V/m) @ t=3.9
0
% es.tEZ (V/m) @ t=3.9
-0.29481134151971844
% es.Ex (V/m) @ t=3.9
0.29958216322907383
% es.Ey (V/m) @ t=3.9
-0.04344928764672318
% es.Ez (V/m) @ t=3.9
-0.29481134151968647
% es.tEx (V/m) @ t=3.9
0.2995821632290685
% es.tEy (V/m) @ t=3.9
0
% es.tEz (V/m) @ t=3.9
-0.29481134151971844
% V (V) @ t=3.9
0.08001687673412727
% es.normE (V/m) @ t=4
0.426750875745386
% es.EX (V/m) @ t=4
0.3025576451396992
% es.EY (V/m) @ t=4
-0.043881167888191186
% es.EZ (V/m) @ t=4
-0.2977408679065441
% es.tEX (V/m) @ t=4
0.30255764513969297
% es.tEY (V/m) @ t=4
0
% es.tEZ (V/m) @ t=4
-0.29774086790656185
% es.Ex (V/m) @ t=4
0.3025576451396992
% es.Ey (V/m) @ t=4
-0.043881167888191186
% es.Ez (V/m) @ t=4
-0.2977408679065441
% es.tEx (V/m) @ t=4
0.30255764513969297
% es.tEy (V/m) @ t=4
0
% es.tEz (V/m) @ t=4
-0.29774086790656185
% V (V) @ t=4
0.08081194340094074
% es.normE (V/m) @ t=4.1
0.43040356840972804
% es.EX (V/m) @ t=4.1
0.3051463771146521
% es.EY (V/m) @ t=4.1
-0.04425706079970482
% es.EZ (V/m) @ t=4.1
-0.30029024759888756
% es.tEX (V/m) @ t=4.1
0.30514637711461035
% es.tEY (V/m) @ t=4.1
0
% es.tEZ (V/m) @ t=4.1
-0.300290247598916
% es.Ex (V/m) @ t=4.1
0.3051463771146521
% es.Ey (V/m) @ t=4.1
-0.04425706079970482
% es.Ez (V/m) @ t=4.1
-0.30029024759888756
% es.tEx (V/m) @ t=4.1
0.30514637711461035
% es.tEy (V/m) @ t=4.1
0
% es.tEz (V/m) @ t=4.1
-0.300290247598916
% V (V) @ t=4.1
0.08150381369288424
% es.normE (V/m) @ t=4.2
0.43355718081852707
% es.EX (V/m) @ t=4.2
0.30738140184153195
% es.EY (V/m) @ t=4.2
-0.04458159371898773
% es.EZ (V/m) @ t=4.2
-0.30249129630903226
% es.tEX (V/m) @ t=4.2
0.30738140184152485
% es.tEY (V/m) @ t=4.2
0
% es.tEZ (V/m) @ t=4.2
-0.3024912963090429
% es.Ex (V/m) @ t=4.2
0.30738140184153195
% es.Ey (V/m) @ t=4.2
-0.04458159371898773
% es.Ez (V/m) @ t=4.2
-0.30249129630903226
% es.tEx (V/m) @ t=4.2
0.30738140184152485
% es.tEy (V/m) @ t=4.2
0
% es.tEz (V/m) @ t=4.2
-0.3024912963090429
% V (V) @ t=4.2
0.08210115112953473
% es.normE (V/m) @ t=4.3
0.4363224827661061
% es.EX (V/m) @ t=4.3
0.309342114837035
% es.EY (V/m) @ t=4.3
-0.04486588529000102
% es.EZ (V/m) @ t=4.3
-0.3044204613564503
% es.tEX (V/m) @ t=4.3
0.30934211483701546
% es.tEY (V/m) @ t=4.3
0
% es.tEZ (V/m) @ t=4.3
-0.3044204613564787
% es.Ex (V/m) @ t=4.3
0.309342114837035
% es.Ey (V/m) @ t=4.3
-0.04486588529000102
% es.Ez (V/m) @ t=4.3
-0.3044204613564503
% es.tEx (V/m) @ t=4.3
0.30934211483701546
% es.tEy (V/m) @ t=4.3
0
% es.tEz (V/m) @ t=4.3
-0.3044204613564787
% V (V) @ t=4.3
0.08262477255907542
% es.normE (V/m) @ t=4.4
0.4386060820442976
% es.EX (V/m) @ t=4.4
0.31096157617020737
% es.EY (V/m) @ t=4.4
-0.04510056116411931
% es.EZ (V/m) @ t=4.4
-0.306013288493606
% es.tEX (V/m) @ t=4.4
0.31096157617019315
% es.tEY (V/m) @ t=4.4
0
% es.tEZ (V/m) @ t=4.4
-0.30601328849364506
% es.Ex (V/m) @ t=4.4
0.31096157617020737
% es.Ey (V/m) @ t=4.4
-0.04510056116411931
% es.Ez (V/m) @ t=4.4
-0.306013288493606
% es.tEx (V/m) @ t=4.4
0.31096157617019315
% es.tEy (V/m) @ t=4.4
0
% es.tEz (V/m) @ t=4.4
-0.30601328849364506
% V (V) @ t=4.4
0.0830571268849537
% es.normE (V/m) @ t=4.5
0.44040797865470094
% es.EX (V/m) @ t=4.5
0.31223978584113254
% es.EY (V/m) @ t=4.5
-0.045285621341207616
% es.EZ (V/m) @ t=4.5
-0.3072697777203999
% es.tEX (V/m) @ t=4.5
0.3122397858411077
% es.tEY (V/m) @ t=4.5
0
% es.tEZ (V/m) @ t=4.5
-0.3072697777204567
% es.Ex (V/m) @ t=4.5
0.31223978584113254
% es.Ey (V/m) @ t=4.5
-0.045285621341207616
% es.Ez (V/m) @ t=4.5
-0.3072697777203999
% es.tEx (V/m) @ t=4.5
0.3122397858411077
% es.tEy (V/m) @ t=4.5
0
% es.tEz (V/m) @ t=4.5
-0.3072697777204567
% V (V) @ t=4.5
0.08339821410716956
% es.normE (V/m) @ t=4.6
0.4417281725999496
% es.EX (V/m) @ t=4.6
0.31317674384975636
% es.EY (V/m) @ t=4.6
-0.04542106582141159
% es.EZ (V/m) @ t=4.6
-0.30818992903695275
% es.tEX (V/m) @ t=4.6
0.3131767438497448
% es.tEY (V/m) @ t=4.6
0
% es.tEZ (V/m) @ t=4.6
-0.3081899290369705
% es.Ex (V/m) @ t=4.6
0.31317674384975636
% es.Ey (V/m) @ t=4.6
-0.04542106582141159
% es.Ez (V/m) @ t=4.6
-0.30818992903695275
% es.tEx (V/m) @ t=4.6
0.3131767438497448
% es.tEy (V/m) @ t=4.6
0
% es.tEz (V/m) @ t=4.6
-0.3081899290369705
% V (V) @ t=4.6
0.08364803422572302
% es.normE (V/m) @ t=4.7
0.4427077787124479
% es.EX (V/m) @ t=4.7
0.31387181787325336
% es.EY (V/m) @ t=4.7
-0.045521619888386766
% es.EZ (V/m) @ t=4.7
-0.3088728563668006
% es.tEX (V/m) @ t=4.7
0.3138718178732418
% es.tEY (V/m) @ t=4.7
0
% es.tEZ (V/m) @ t=4.7
-0.3088728563668468
% es.Ex (V/m) @ t=4.7
0.31387181787325336
% es.Ey (V/m) @ t=4.7
-0.045521619888386766
% es.Ez (V/m) @ t=4.7
-0.3088728563668006
% es.tEx (V/m) @ t=4.7
0.3138718178732418
% es.tEy (V/m) @ t=4.7
0
% es.tEz (V/m) @ t=4.7
-0.3088728563668468
% V (V) @ t=4.7
0.08383343542010754
% es.normE (V/m) @ t=4.8
0.44345802259894246
% es.EX (V/m) @ t=4.8
0.31440332874056676
% es.EY (V/m) @ t=4.8
-0.045598889895842376
% es.EZ (V/m) @ t=4.8
-0.30939668053242286
% es.tEX (V/m) @ t=4.8
0.31440332874055343
% es.tEY (V/m) @ t=4.8
0
% es.tEZ (V/m) @ t=4.8
-0.3093966805324513
% es.Ex (V/m) @ t=4.8
0.31440332874056676
% es.Ey (V/m) @ t=4.8
-0.045598889895842376
% es.Ez (V/m) @ t=4.8
-0.30939668053242286
% es.tEx (V/m) @ t=4.8
0.31440332874055343
% es.tEy (V/m) @ t=4.8
0
% es.tEz (V/m) @ t=4.8
-0.3093966805324513
% V (V) @ t=4.8
0.08397557921625395
% es.normE (V/m) @ t=4.9
0.4438432852281578
% es.EX (V/m) @ t=4.9
0.31467577870556696
% es.EY (V/m) @ t=4.9
-0.04563872404485281
% es.EZ (V/m) @ t=4.9
-0.3096661476586142
% es.tEX (V/m) @ t=4.9
0.3146757787055563
% es.tEY (V/m) @ t=4.9
0
% es.tEZ (V/m) @ t=4.9
-0.3096661476586675
% es.Ex (V/m) @ t=4.9
0.31467577870556696
% es.Ey (V/m) @ t=4.9
-0.04563872404485281
% es.Ez (V/m) @ t=4.9
-0.3096661476586142
% es.tEx (V/m) @ t=4.9
0.3146757787055563
% es.tEy (V/m) @ t=4.9
0
% es.tEz (V/m) @ t=4.9
-0.3096661476586675
% V (V) @ t=4.9
0.08404866305235585
% es.normE (V/m) @ t=5
0.44386356660296544
% es.EX (V/m) @ t=5
0.3146891677682566
% es.EY (V/m) @ t=5
-0.0456411223356632
% es.EZ (V/m) @ t=5
-0.30968125774539246
% es.tEX (V/m) @ t=5
0.314689167768222
% es.tEY (V/m) @ t=5
0
% es.tEZ (V/m) @ t=5
-0.3096812577454102
% es.Ex (V/m) @ t=5
0.3146891677682566
% es.Ey (V/m) @ t=5
-0.0456411223356632
% es.Ez (V/m) @ t=5
-0.30968125774539246
% es.tEx (V/m) @ t=5
0.314689167768222
% es.tEy (V/m) @ t=5
0
% es.tEz (V/m) @ t=5
-0.3096812577454102
% V (V) @ t=5
0.0840526869284133
% es.normE (V/m) @ t=5.1
0.44351886672731244
% es.EX (V/m) @ t=5.1
0.3144434959286482
% es.EY (V/m) @ t=5.1
-0.04560608476778327
% es.EZ (V/m) @ t=5.1
-0.3094420107926581
% es.tEX (V/m) @ t=5.1
0.31444349592863574
% es.tEY (V/m) @ t=5.1
0
% es.tEZ (V/m) @ t=5.1
-0.3094420107926794
% es.Ex (V/m) @ t=5.1
0.3144434959286482
% es.Ey (V/m) @ t=5.1
-0.04560608476778327
% es.Ez (V/m) @ t=5.1
-0.3094420107926581
% es.tEx (V/m) @ t=5.1
0.31444349592863574
% es.tEy (V/m) @ t=5.1
0
% es.tEz (V/m) @ t=5.1
-0.3094420107926794
% V (V) @ t=5.1
0.08398765084442625
% es.normE (V/m) @ t=5.2
0.44291641975207585
% es.EX (V/m) @ t=5.2
0.3140155369172346
% es.EY (V/m) @ t=5.2
-0.04554440176913843
% es.EZ (V/m) @ t=5.2
-0.3090224990645005
% es.tEX (V/m) @ t=5.2
0.31401553691721773
% es.tEY (V/m) @ t=5.2
0
% es.tEZ (V/m) @ t=5.2
-0.3090224990645538
% es.Ex (V/m) @ t=5.2
0.3140155369172346
% es.Ey (V/m) @ t=5.2
-0.04554440176913843