% Model:              1x1--2 - Copy1.mph
% Version:            COMSOL 6.0.0.405
% Date:               Mar 2 2023, 12:07
% Dimension:          0
% Nodes:              14017
% Expressions:        14017
% Description:        Electric field norm, Electric field, X component, Electric field, Y component, Electric field, Z component, Tangential electric field, X component, Tangential electric field, Y component, Tangential electric field, Z component, Electric field, x component, Electric field, y component, Electric field, z component, Tangential electric field, x component, Tangential electric field, y component, Tangential electric field, z component, Electric potential
% Length unit:        mm
% x
1.6600000000000001
% y
14.200000000000001
% z
1
% es.normE (V/m) @ t=0
0.07583035525375174
% es.EX (V/m) @ t=0
-0.02781787270195668
% es.EY (V/m) @ t=0
0.00853960840685819
% es.EZ (V/m) @ t=0
0.07002488003920782
% es.tEX (V/m) @ t=0
-0.02781787270195668
% es.tEY (V/m) @ t=0
0
% es.tEZ (V/m) @ t=0
0.07002488003920782
% es.Ex (V/m) @ t=0
-0.02781787270195668
% es.Ey (V/m) @ t=0
0.00853960840685819
% es.Ez (V/m) @ t=0
0.07002488003920782
% es.tEx (V/m) @ t=0
-0.02781787270195668
% es.tEy (V/m) @ t=0
0
% es.tEz (V/m) @ t=0
0.07002488003920782
% V (V) @ t=0
0.016255935937561965
% es.normE (V/m) @ t=0.1
0.08018078210918658
% es.EX (V/m) @ t=0.1
-0.029413675518978444
% es.EY (V/m) @ t=0.1
0.009029542002985558
% es.EZ (V/m) @ t=0.1
0.07404229118092864
% es.tEX (V/m) @ t=0.1
-0.02941367551898555
% es.tEY (V/m) @ t=0.1
0
% es.tEZ (V/m) @ t=0.1
0.07404229118092864
% es.Ex (V/m) @ t=0.1
-0.029413675518978444
% es.Ey (V/m) @ t=0.1
0.009029542002985558
% es.Ez (V/m) @ t=0.1
0.07404229118092864
% es.tEx (V/m) @ t=0.1
-0.02941367551898555
% es.tEy (V/m) @ t=0.1
0
% es.tEz (V/m) @ t=0.1
0.07404229118092864
% V (V) @ t=0.1
0.017188584674934115
% es.normE (V/m) @ t=0.2
0.08518577766823116
% es.EX (V/m) @ t=0.2
-0.031249648088335746
% es.EY (V/m) @ t=0.2
0.009593216114995418
% es.EZ (V/m) @ t=0.2
0.0786641367833365
% es.tEX (V/m) @ t=0.2
-0.031249648088332194
% es.tEY (V/m) @ t=0.2
0
% es.tEZ (V/m) @ t=0.2
0.0786641367833365
% es.Ex (V/m) @ t=0.2
-0.031249648088335746
% es.Ey (V/m) @ t=0.2
0.009593216114995418
% es.Ez (V/m) @ t=0.2
0.0786641367833365
% es.tEx (V/m) @ t=0.2
-0.031249648088332194
% es.tEy (V/m) @ t=0.2
0
% es.tEz (V/m) @ t=0.2
0.0786641367833365
% V (V) @ t=0.2
0.018261670689185536
% es.normE (V/m) @ t=0.3
0.09062565110422319
% es.EX (V/m) @ t=0.3
-0.033245358550448856
% es.EY (V/m) @ t=0.3
0.010205753130893003
% es.EZ (V/m) @ t=0.3
0.08368749832530398
% es.tEX (V/m) @ t=0.3
-0.033245358550448856
% es.tEY (V/m) @ t=0.3
0
% es.tEZ (V/m) @ t=0.3
0.08368749832530398
% es.Ex (V/m) @ t=0.3
-0.033245358550448856
% es.Ey (V/m) @ t=0.3
0.010205753130893003
% es.Ez (V/m) @ t=0.3
0.08368749832530398
% es.tEx (V/m) @ t=0.3
-0.033245358550448856
% es.tEy (V/m) @ t=0.3
0
% es.tEz (V/m) @ t=0.3
0.08368749832530398
% V (V) @ t=0.3
0.019427539030523064
% es.normE (V/m) @ t=0.4
0.09629649823069432
% es.EX (V/m) @ t=0.4
-0.03532568517583812
% es.EY (V/m) @ t=0.4
0.010844362648534611
% es.EZ (V/m) @ t=0.4
0.08892418870644114
% es.tEX (V/m) @ t=0.4
-0.03532568517583812
% es.tEY (V/m) @ t=0.4
0
% es.tEZ (V/m) @ t=0.4
0.08892418870644114
% es.Ex (V/m) @ t=0.4
-0.03532568517583812
% es.Ey (V/m) @ t=0.4
0.010844362648534611
% es.Ez (V/m) @ t=0.4
0.08892418870644114
% es.tEx (V/m) @ t=0.4
-0.03532568517583812
% es.tEy (V/m) @ t=0.4
0
% es.tEz (V/m) @ t=0.4
0.08892418870644114
% V (V) @ t=0.4
0.02064316780504307
% es.normE (V/m) @ t=0.5
0.10218702473732275
% es.EX (V/m) @ t=0.5
-0.037486505255284186
% es.EY (V/m) @ t=0.5
0.011507761768084768
% es.EZ (V/m) @ t=0.5
0.09436377147772745
% es.tEX (V/m) @ t=0.5
-0.037486505255284186
% es.tEY (V/m) @ t=0.5
0
% es.tEZ (V/m) @ t=0.5
0.09436377147772745
% es.Ex (V/m) @ t=0.5
-0.037486505255284186
% es.Ey (V/m) @ t=0.5
0.011507761768084768
% es.Ez (V/m) @ t=0.5
0.09436377147772745
% es.tEx (V/m) @ t=0.5
-0.037486505255284186
% es.tEy (V/m) @ t=0.5
0
% es.tEz (V/m) @ t=0.5
0.09436377147772745
% V (V) @ t=0.5
0.02190609181948637
% es.normE (V/m) @ t=0.6
0.1085077191264949
% es.EX (V/m) @ t=0.6
-0.03980519946681049
% es.EY (V/m) @ t=0.6
0.012219566386444614
% es.EZ (V/m) @ t=0.6
0.10020056588048298
% es.tEX (V/m) @ t=0.6
-0.0398051994668176
% es.tEY (V/m) @ t=0.6
0
% es.tEZ (V/m) @ t=0.6
0.10020056588048298
% es.Ex (V/m) @ t=0.6
-0.03980519946681049
% es.Ey (V/m) @ t=0.6
0.012219566386444614
% es.Ez (V/m) @ t=0.6
0.10020056588048298
% es.tEx (V/m) @ t=0.6
-0.0398051994668176
% es.tEy (V/m) @ t=0.6
0
% es.tEz (V/m) @ t=0.6
0.10020056588048298
% V (V) @ t=0.6
0.0232610810117087
% es.normE (V/m) @ t=0.7
0.11496977065480875
% es.EX (V/m) @ t=0.7
-0.04217569916911046
% es.EY (V/m) @ t=0.7
0.012947316832168765
% es.EZ (V/m) @ t=0.7
0.10616791205850973
% es.tEX (V/m) @ t=0.7
-0.04217569916911046
% es.tEY (V/m) @ t=0.7
0
% es.tEZ (V/m) @ t=0.7
0.10616791205850973
% es.Ex (V/m) @ t=0.7
-0.04217569916911046
% es.Ey (V/m) @ t=0.7
0.012947316832168765
% es.Ez (V/m) @ t=0.7
0.10616791205850973
% es.tEx (V/m) @ t=0.7
-0.04217569916911046
% es.tEy (V/m) @ t=0.7
0
% es.tEz (V/m) @ t=0.7
0.10616791205850973
% V (V) @ t=0.7
0.02464648106560576
% es.normE (V/m) @ t=0.8
0.12173487293197177
% es.EX (V/m) @ t=0.8
-0.044657262895883676
% es.EY (V/m) @ t=0.8
0.013709252993128196
% es.EZ (V/m) @ t=0.8
0.11241514373420358
% es.tEX (V/m) @ t=0.8
-0.04465726289589078
% es.tEY (V/m) @ t=0.8
0
% es.tEZ (V/m) @ t=0.8
0.11241514373420358
% es.Ex (V/m) @ t=0.8
-0.044657262895883676
% es.Ey (V/m) @ t=0.8
0.013709252993128196
% es.Ez (V/m) @ t=0.8
0.11241514373420358
% es.tEx (V/m) @ t=0.8
-0.04465726289589078
% es.tEy (V/m) @ t=0.8
0
% es.tEz (V/m) @ t=0.8
0.11241514373420358
% V (V) @ t=0.8
0.0260970779284863
% es.normE (V/m) @ t=0.9
0.12874618176474742
% es.EX (V/m) @ t=0.9
-0.047229058014499614
% es.EY (V/m) @ t=0.9
0.014498962545869798
% es.EZ (V/m) @ t=0.9
0.11888976189377232
% es.tEX (V/m) @ t=0.9
-0.047229058014513825
% es.tEY (V/m) @ t=0.9
0
% es.tEZ (V/m) @ t=0.9
0.11888976189377232
% es.Ex (V/m) @ t=0.9
-0.047229058014499614
% es.Ey (V/m) @ t=0.9
0.014498962545869798
% es.Ez (V/m) @ t=0.9
0.11888976189377232
% es.tEx (V/m) @ t=0.9
-0.047229058014513825
% es.tEy (V/m) @ t=0.9
0
% es.tEz (V/m) @ t=0.9
0.11888976189377232
% V (V) @ t=0.9
0.02760064242733788
% es.normE (V/m) @ t=1
0.13606219316134124
% es.EX (V/m) @ t=1
-0.04991276859052718
% es.EY (V/m) @ t=1
0.01532291228319016
% es.EZ (V/m) @ t=1
0.12564570943197495
% es.tEX (V/m) @ t=1
-0.04991276859054139
% es.tEY (V/m) @ t=1
0
% es.tEZ (V/m) @ t=1
0.12564570943197495
% es.Ex (V/m) @ t=1
-0.04991276859052718
% es.Ey (V/m) @ t=1
0.01532291228319016
% es.Ez (V/m) @ t=1
0.12564570943197495
% es.tEx (V/m) @ t=1
-0.04991276859054139
% es.tEy (V/m) @ t=1
0
% es.tEz (V/m) @ t=1
0.12564570943197495
% V (V) @ t=1
0.02916923147365459
% es.normE (V/m) @ t=1.1
0.14371135546053948
% es.EX (V/m) @ t=1.1
-0.05271894022649981
% es.EY (V/m) @ t=1.1
0.016184247197561952
% es.EZ (V/m) @ t=1.1
0.13270922037427724
% es.tEX (V/m) @ t=1.1
-0.052718940226492705
% es.tEY (V/m) @ t=1.1
0
% es.tEZ (V/m) @ t=1.1
0.13270922037427724
% es.Ex (V/m) @ t=1.1
-0.05271894022649981
% es.Ey (V/m) @ t=1.1
0.016184247197561952
% es.Ez (V/m) @ t=1.1
0.13270922037427724
% es.tEx (V/m) @ t=1.1
-0.052718940226492705
% es.tEy (V/m) @ t=1.1
0
% es.tEz (V/m) @ t=1.1
0.13270922037427724
% V (V) @ t=1.1
0.030808708700179252
% es.normE (V/m) @ t=1.2
0.15166330536602649
% es.EX (V/m) @ t=1.2
-0.055636317458226614
% es.EY (V/m) @ t=1.2
0.01707961059594254
% es.EZ (V/m) @ t=1.2
0.1400522947906495
% es.tEX (V/m) @ t=1.2
-0.05563631745823372
% es.tEY (V/m) @ t=1.2
0
% es.tEZ (V/m) @ t=1.2
0.1400522947906495
% es.Ex (V/m) @ t=1.2
-0.055636317458226614
% es.Ey (V/m) @ t=1.2
0.01707961059594254
% es.Ez (V/m) @ t=1.2
0.1400522947906495
% es.tEx (V/m) @ t=1.2
-0.05563631745823372
% es.tEy (V/m) @ t=1.2
0
% es.tEz (V/m) @ t=1.2
0.1400522947906495
% V (V) @ t=1.2
0.032512815772418595
% es.normE (V/m) @ t=1.3
0.15991818358830168
% es.EX (V/m) @ t=1.3
-0.058664744794732826
% es.EY (V/m) @ t=1.3
0.018009129311469252
% es.EZ (V/m) @ t=1.3
0.14767513135864618
% es.tEX (V/m) @ t=1.3
-0.05866474479472572
% es.tEY (V/m) @ t=1.3
0
% es.tEZ (V/m) @ t=1.3
0.14767513135864618
% es.Ex (V/m) @ t=1.3
-0.058664744794732826
% es.Ey (V/m) @ t=1.3
0.018009129311469252
% es.Ez (V/m) @ t=1.3
0.14767513135864618
% es.tEx (V/m) @ t=1.3
-0.05866474479472572
% es.tEy (V/m) @ t=1.3
0
% es.tEz (V/m) @ t=1.3
0.14767513135864618
% V (V) @ t=1.3
0.03428202694652703
% es.normE (V/m) @ t=1.4
0.16847604731727636
% es.EX (V/m) @ t=1.4
-0.06180415903783398
% es.EY (V/m) @ t=1.4
0.01897285489454914
% es.EZ (V/m) @ t=1.4
0.1555778108292749
% es.tEX (V/m) @ t=1.4
-0.06180415903783398
% es.tEY (V/m) @ t=1.4
0
% es.tEZ (V/m) @ t=1.4
0.1555778108292749
% es.Ex (V/m) @ t=1.4
-0.06180415903783398
% es.Ey (V/m) @ t=1.4
0.01897285489454914
% es.Ez (V/m) @ t=1.4
0.1555778108292749
% es.tEx (V/m) @ t=1.4
-0.06180415903783398
% es.tEy (V/m) @ t=1.4
0
% es.tEz (V/m) @ t=1.4
0.1555778108292749
% V (V) @ t=1.4
0.03611653498030706
% es.normE (V/m) @ t=1.5
0.17733682933510136
% es.EX (V/m) @ t=1.5
-0.06505463446630344
% es.EY (V/m) @ t=1.5
0.019970726756395774
% es.EZ (V/m) @ t=1.5
0.16376023829337782
% es.tEX (V/m) @ t=1.5
-0.06505463446631765
% es.tEY (V/m) @ t=1.5
0
% es.tEZ (V/m) @ t=1.5
0.16376023829337782
% es.Ex (V/m) @ t=1.5
-0.06505463446630344
% es.Ey (V/m) @ t=1.5
0.019970726756395774
% es.Ez (V/m) @ t=1.5
0.16376023829337782
% es.tEx (V/m) @ t=1.5
-0.06505463446631765
% es.tEy (V/m) @ t=1.5
0
% es.tEz (V/m) @ t=1.5
0.16376023829337782
% V (V) @ t=1.5
0.03801611331954009
% es.normE (V/m) @ t=1.6
0.18637982650550064
% es.EX (V/m) @ t=1.6
-0.06837200464633852
% es.EY (V/m) @ t=1.6
0.020989091629469936
% es.EZ (V/m) @ t=1.6
0.17211091406831613
% es.tEX (V/m) @ t=1.6
-0.06837200464634563
% es.tEY (V/m) @ t=1.6
0
% es.tEZ (V/m) @ t=1.6
0.17211091406831613
% es.Ex (V/m) @ t=1.6
-0.06837200464633852
% es.Ey (V/m) @ t=1.6
0.020989091629469936
% es.Ez (V/m) @ t=1.6
0.17211091406831613
% es.tEx (V/m) @ t=1.6
-0.06837200464634563
% es.tEy (V/m) @ t=1.6
0
% es.tEz (V/m) @ t=1.6
0.17211091406831613
% V (V) @ t=1.6
0.039954645172717115
% es.normE (V/m) @ t=1.7
0.19556499068022237
% es.EX (V/m) @ t=1.7
-0.07174161557685466
% es.EY (V/m) @ t=1.7
0.022023419489863194
% es.EZ (V/m) @ t=1.7
0.18059284362385952
% es.tEX (V/m) @ t=1.7
-0.07174161557685466
% es.tEY (V/m) @ t=1.7
0
% es.tEZ (V/m) @ t=1.7
0.18059284362385952
% es.Ex (V/m) @ t=1.7
-0.07174161557685466
% es.Ey (V/m) @ t=1.7
0.022023419489863194
% es.Ez (V/m) @ t=1.7
0.18059284362385952
% es.tEx (V/m) @ t=1.7
-0.07174161557685466
% es.tEy (V/m) @ t=1.7
0
% es.tEz (V/m) @ t=1.7
0.18059284362385952
% V (V) @ t=1.7
0.04192346523776684
% es.normE (V/m) @ t=1.8
0.2049453063354802
% es.EX (V/m) @ t=1.8
-0.0751828547851936
% es.EY (V/m) @ t=1.8
0.023079703646942118
% es.EZ (V/m) @ t=1.8
0.18925497144028114
% es.tEX (V/m) @ t=1.8
-0.07518285478520781
% es.tEY (V/m) @ t=1.8
0
% es.tEZ (V/m) @ t=1.8
0.18925497144028114
% es.Ex (V/m) @ t=1.8
-0.0751828547851936
% es.Ey (V/m) @ t=1.8
0.023079703646942118
% es.Ez (V/m) @ t=1.8
0.18925497144028114
% es.tEx (V/m) @ t=1.8
-0.07518285478520781
% es.tEy (V/m) @ t=1.8
0
% es.tEz (V/m) @ t=1.8
0.18925497144028114
% V (V) @ t=1.8
0.043934037877228584
% es.normE (V/m) @ t=1.9
0.21452077347132897
% es.EX (V/m) @ t=1.9
-0.07869572227140509
% es.EY (V/m) @ t=1.9
0.024157944100672957
% es.EZ (V/m) @ t=1.9
0.1980972975175277
% es.tEX (V/m) @ t=1.9
-0.07869572227139088
% es.tEY (V/m) @ t=1.9
0
% es.tEZ (V/m) @ t=1.9
0.1980972975175277
% es.Ex (V/m) @ t=1.9
-0.07869572227140509
% es.Ey (V/m) @ t=1.9
0.024157944100672957
% es.Ez (V/m) @ t=1.9
0.1980972975175277
% es.tEx (V/m) @ t=1.9
-0.07869572227139088
% es.tEy (V/m) @ t=1.9
0
% es.tEz (V/m) @ t=1.9
0.1980972975175277
% V (V) @ t=1.9
0.04598636309110237
% es.normE (V/m) @ t=2
0.2242913920878811
% es.EX (V/m) @ t=2
-0.08228021803540386
% es.EY (V/m) @ t=2
0.025258140851025956
% es.EZ (V/m) @ t=2
0.20711982185564892
% es.tEX (V/m) @ t=2
-0.08228021803538965
% es.tEY (V/m) @ t=2
0
% es.tEZ (V/m) @ t=2
0.20711982185564892
% es.Ex (V/m) @ t=2
-0.08228021803540386
% es.Ey (V/m) @ t=2
0.025258140851025956
% es.Ez (V/m) @ t=2
0.20711982185564892
% es.tEx (V/m) @ t=2
-0.08228021803538965
% es.tEy (V/m) @ t=2
0
% es.tEz (V/m) @ t=2
0.20711982185564892
% V (V) @ t=2
0.04808044087938818
% es.normE (V/m) @ t=2.1
0.2342571621852148
% es.EX (V/m) @ t=2.1
-0.08593634207722545
% es.EY (V/m) @ t=2.1
0.02638029389804819
% es.EZ (V/m) @ t=2.1
0.21632254445459154
% es.tEX (V/m) @ t=2.1
-0.08593634207722545
% es.tEY (V/m) @ t=2.1
0
% es.tEZ (V/m) @ t=2.1
0.21632254445459154
% es.Ex (V/m) @ t=2.1
-0.08593634207722545
% es.Ey (V/m) @ t=2.1
0.02638029389804819
% es.Ez (V/m) @ t=2.1
0.21632254445459154
% es.tEx (V/m) @ t=2.1
-0.08593634207722545
% es.tEy (V/m) @ t=2.1
0
% es.tEz (V/m) @ t=2.1
0.21632254445459154
% V (V) @ t=2.1
0.050216271242086045
% es.normE (V/m) @ t=2.2
0.24403149960310955
% es.EX (V/m) @ t=2.2
-0.08952179505746471
% es.EY (V/m) @ t=2.2
0.027481127560220475
% es.EZ (V/m) @ t=2.2
0.22534863797292104
% es.tEX (V/m) @ t=2.2
-0.0895217950574505
% es.tEY (V/m) @ t=2.2
0
% es.tEZ (V/m) @ t=2.2
0.22534863797292104
% es.Ex (V/m) @ t=2.2
-0.08952179505746471
% es.Ey (V/m) @ t=2.2
0.027481127560220475
% es.Ez (V/m) @ t=2.2
0.22534863797292104
% es.tEx (V/m) @ t=2.2
-0.0895217950574505
% es.tEy (V/m) @ t=2.2
0
% es.tEz (V/m) @ t=2.2
0.22534863797292104
% V (V) @ t=2.2
0.05231201893846528
% es.normE (V/m) @ t=2.3
0.25365828510519073
% es.EX (V/m) @ t=2.3
-0.0930527292247838
% es.EY (V/m) @ t=2.3
0.028565554014593708
% es.EZ (V/m) @ t=2.3
0.23423860550764175
% es.tEX (V/m) @ t=2.3
-0.0930527292247838
% es.tEY (V/m) @ t=2.3
0
% es.tEZ (V/m) @ t=2.3
0.23423860550764175
% es.Ex (V/m) @ t=2.3
-0.0930527292247838
% es.Ey (V/m) @ t=2.3
0.028565554014593708
% es.Ez (V/m) @ t=2.3
0.23423860550764175
% es.tEx (V/m) @ t=2.3
-0.0930527292247838
% es.tEy (V/m) @ t=2.3
0
% es.tEz (V/m) @ t=2.3
0.23423860550764175
% V (V) @ t=2.3
0.05437697300081571
% es.normE (V/m) @ t=2.4
0.26330417682621216
% es.EX (V/m) @ t=2.4
-0.09659049045069779
% es.EY (V/m) @ t=2.4
0.029652229598132518
% es.EZ (V/m) @ t=2.4
0.24314627689619783
% es.tEX (V/m) @ t=2.4
-0.09659049045069779
% es.tEY (V/m) @ t=2.4
0
% es.tEZ (V/m) @ t=2.4
0.24314627689619783
% es.Ex (V/m) @ t=2.4
-0.09659049045069779
% es.Ey (V/m) @ t=2.4
0.029652229598132518
% es.Ez (V/m) @ t=2.4
0.24314627689619783
% es.tEx (V/m) @ t=2.4
-0.09659049045069779
% es.tEy (V/m) @ t=2.4
0
% es.tEz (V/m) @ t=2.4
0.24314627689619783
% V (V) @ t=2.4
0.05644641296159539
% es.normE (V/m) @ t=2.5
0.27296917476797267
% es.EX (V/m) @ t=2.5
-0.10013507873522087
% es.EY (V/m) @ t=2.5
0.03074115431062774
% es.EZ (V/m) @ t=2.5
0.25207165213853244
% es.tEX (V/m) @ t=2.5
-0.10013507873523508
% es.tEY (V/m) @ t=2.5
0
% es.tEZ (V/m) @ t=2.5
0.25207165213853244
% es.Ex (V/m) @ t=2.5
-0.10013507873522087
% es.Ey (V/m) @ t=2.5
0.03074115431062774
% es.Ez (V/m) @ t=2.5
0.25207165213853244
% es.tEx (V/m) @ t=2.5
-0.10013507873523508
% es.tEy (V/m) @ t=2.5
0
% es.tEz (V/m) @ t=2.5
0.25207165213853244
% V (V) @ t=2.5
0.05852033882080432
% es.normE (V/m) @ t=2.6
0.2826532789326959
% es.EX (V/m) @ t=2.6
-0.10368649407837438
% es.EY (V/m) @ t=2.6
0.03183232815232229
% es.EZ (V/m) @ t=2.6
0.26101473123473795
% es.tEX (V/m) @ t=2.6
-0.10368649407838859
% es.tEY (V/m) @ t=2.6
0
% es.tEZ (V/m) @ t=2.6
0.26101473123473795
% es.Ex (V/m) @ t=2.6
-0.10368649407837438
% es.Ey (V/m) @ t=2.6
0.03183232815232229
% es.Ez (V/m) @ t=2.6
0.26101473123473795
% es.tEx (V/m) @ t=2.6
-0.10368649407838859
% es.tEy (V/m) @ t=2.6
0
% es.tEz (V/m) @ t=2.6
0.26101473123473795
% V (V) @ t=2.6
0.0605987505784425
% es.normE (V/m) @ t=2.7
0.29212567872447204
% es.EX (V/m) @ t=2.7
-0.10716045234934413
% es.EY (V/m) @ t=2.7
0.032899551198796395
% es.EZ (V/m) @ t=2.7
0.2697622456042268
% es.tEX (V/m) @ t=2.7
-0.10716045234935834
% es.tEY (V/m) @ t=2.7
0
% es.tEZ (V/m) @ t=2.7
0.2697622456042268
% es.Ex (V/m) @ t=2.7
-0.10716045234934413
% es.Ey (V/m) @ t=2.7
0.032899551198796395
% es.Ez (V/m) @ t=2.7
0.2697622456042268
% es.tEx (V/m) @ t=2.7
-0.10716045234935834
% es.tEy (V/m) @ t=2.7
0
% es.tEz (V/m) @ t=2.7
0.2697622456042268
% V (V) @ t=2.7
0.06263133970261056
% es.normE (V/m) @ t=2.8
0.30090298903563606
% es.EX (V/m) @ t=2.8
-0.11038043785207563
% es.EY (V/m) @ t=2.8
0.0338879531225591
% es.EZ (V/m) @ t=2.8
0.277867548273143
% es.tEX (V/m) @ t=2.8
-0.11038043785207563
% es.tEY (V/m) @ t=2.8
0
% es.tEZ (V/m) @ t=2.8
0.277867548273143
% es.Ex (V/m) @ t=2.8
-0.11038043785207563
% es.Ey (V/m) @ t=2.8
0.0338879531225591
% es.Ez (V/m) @ t=2.8
0.277867548273143
% es.tEx (V/m) @ t=2.8
-0.11038043785207563
% es.tEy (V/m) @ t=2.8
0
% es.tEz (V/m) @ t=2.8
0.277867548273143
% V (V) @ t=2.8
0.06451274536863776
% es.normE (V/m) @ t=2.9
0.30942799033444457
% es.EX (V/m) @ t=2.9
-0.1135081388595971
% es.EY (V/m) @ t=2.9
0.03484779511113656
% es.EZ (V/m) @ t=2.9
0.28573976760495867
% es.tEX (V/m) @ t=2.9
-0.1135081388595971
% es.tEY (V/m) @ t=2.9
0
% es.tEZ (V/m) @ t=2.9
0.28573976760495867
% es.Ex (V/m) @ t=2.9
-0.1135081388595971
% es.Ey (V/m) @ t=2.9
0.03484779511113656
% es.Ez (V/m) @ t=2.9
0.28573976760495867
% es.tEx (V/m) @ t=2.9
-0.1135081388595971
% es.tEy (V/m) @ t=2.9
0
% es.tEz (V/m) @ t=2.9
0.28573976760495867
% V (V) @ t=2.9
0.06633947802949028
% es.normE (V/m) @ t=3
0.3177006826223485
% es.EX (V/m) @ t=3
-0.11654355537188366
% es.EY (V/m) @ t=3
0.03577907716451634
% es.EZ (V/m) @ t=3
0.29337890359949625
% es.tEX (V/m) @ t=3
-0.11654355537189787
% es.tEY (V/m) @ t=3
0
% es.tEZ (V/m) @ t=3
0.29337890359949625
% es.Ex (V/m) @ t=3
-0.11654355537188366
% es.Ey (V/m) @ t=3
0.03577907716451634
% es.Ez (V/m) @ t=3
0.29337890359949625
% es.tEx (V/m) @ t=3
-0.11654355537189787
% es.tEy (V/m) @ t=3
0
% es.tEz (V/m) @ t=3
0.29337890359949625
% V (V) @ t=3
0.0681115376851681
% es.normE (V/m) @ t=3.1
0.32572106590191796
% es.EX (V/m) @ t=3.1
-0.11948668738895307
% es.EY (V/m) @ t=3.1
0.03668179928280102
% es.EZ (V/m) @ t=3.1
0.30078495625691204
% es.tEX (V/m) @ t=3.1
-0.11948668738893886
% es.tEY (V/m) @ t=3.1
0
% es.tEZ (V/m) @ t=3.1
0.30078495625691204
% es.Ex (V/m) @ t=3.1
-0.11948668738895307
% es.Ey (V/m) @ t=3.1
0.03668179928280102
% es.Ez (V/m) @ t=3.1
0.30078495625691204
% es.tEx (V/m) @ t=3.1
-0.11948668738893886
% es.tEy (V/m) @ t=3.1
0
% es.tEz (V/m) @ t=3.1
0.30078495625691204
% V (V) @ t=3.1
0.06982892433567128
% es.normE (V/m) @ t=3.2
0.3334891401761038
% es.EX (V/m) @ t=3.2
-0.12233753491076982
% es.EY (V/m) @ t=3.2
0.037555961465796095
% es.EZ (V/m) @ t=3.2
0.307957925577071
% es.tEX (V/m) @ t=3.2
-0.12233753491075561
% es.tEY (V/m) @ t=3.2
0
% es.tEZ (V/m) @ t=3.2
0.307957925577071
% es.Ex (V/m) @ t=3.2
-0.12233753491076982
% es.Ey (V/m) @ t=3.2
0.037555961465796095
% es.Ez (V/m) @ t=3.2
0.307957925577071
% es.tEx (V/m) @ t=3.2
-0.12233753491075561
% es.tEy (V/m) @ t=3.2
0
% es.tEz (V/m) @ t=3.2
0.307957925577071
% V (V) @ t=3.2
0.0714916379809998
% es.normE (V/m) @ t=3.3
0.34048821212505104
% es.EX (V/m) @ t=3.3
-0.12490562699748864
% es.EY (V/m) @ t=3.3
0.03834387160203878
% es.EZ (V/m) @ t=3.3
0.31442098284154696
% es.tEX (V/m) @ t=3.3
-0.12490562699748864
% es.tEY (V/m) @ t=3.3
0
% es.tEZ (V/m) @ t=3.3
0.31442098284154696
% es.Ex (V/m) @ t=3.3
-0.12490562699748864
% es.Ey (V/m) @ t=3.3
0.03834387160203878
% es.Ez (V/m) @ t=3.3
0.31442098284154696
% es.tEx (V/m) @ t=3.3
-0.12490562699748864
% es.tEy (V/m) @ t=3.3
0
% es.tEz (V/m) @ t=3.3
0.31442098284154696
% V (V) @ t=3.3
0.07299089312744914
% es.normE (V/m) @ t=3.4
0.34703098627946954
% es.EX (V/m) @ t=3.4
-0.1273062373020366
% es.EY (V/m) @ t=3.4
0.03908044515121034
% es.EZ (V/m) @ t=3.4
0.3204627063932435
% es.tEX (V/m) @ t=3.4
-0.1273062373020224
% es.tEY (V/m) @ t=3.4
0
% es.tEZ (V/m) @ t=3.4
0.3204627063932435
% es.Ex (V/m) @ t=3.4
-0.1273062373020366
% es.Ey (V/m) @ t=3.4
0.03908044515121034
% es.Ez (V/m) @ t=3.4
0.3204627063932435
% es.tEx (V/m) @ t=3.4
-0.1273062373020224
% es.tEy (V/m) @ t=3.4
0
% es.tEz (V/m) @ t=3.4
0.3204627063932435
% V (V) @ t=3.4
0.07439252712140702
% es.normE (V/m) @ t=3.5
0.353146480663001
% es.EX (V/m) @ t=3.5
-0.12955006286663462
% es.EY (V/m) @ t=3.5
0.039768922161317555
% es.EZ (V/m) @ t=3.5
0.32610987541937675
% es.tEX (V/m) @ t=3.5
-0.12955006286663462
% es.tEY (V/m) @ t=3.5
0
% es.tEZ (V/m) @ t=3.5
0.32610987541937675
% es.Ex (V/m) @ t=3.5
-0.12955006286663462
% es.Ey (V/m) @ t=3.5
0.039768922161317555
% es.Ez (V/m) @ t=3.5
0.32610987541937675
% es.tEx (V/m) @ t=3.5
-0.12955006286663462
% es.tEy (V/m) @ t=3.5
0
% es.tEz (V/m) @ t=3.5
0.32610987541937675
% V (V) @ t=3.5
0.07570264946717475
% es.normE (V/m) @ t=3.6
0.3588346952755275
% es.EX (V/m) @ t=3.6
-0.13163710369141768
% es.EY (V/m) @ t=3.6
0.040409302632270716
% es.EZ (V/m) @ t=3.6
0.3313624899200107
% es.tEX (V/m) @ t=3.6
-0.1316371036914461
% es.tEY (V/m) @ t=3.6
0
% es.tEZ (V/m) @ t=3.6
0.3313624899200107
% es.Ex (V/m) @ t=3.6
-0.13163710369141768
% es.Ey (V/m) @ t=3.6
0.040409302632270716
% es.Ez (V/m) @ t=3.6
0.3313624899200107
% es.tEx (V/m) @ t=3.6
-0.1316371036914461
% es.tEy (V/m) @ t=3.6
0
% es.tEz (V/m) @ t=3.6
0.3313624899200107
% V (V) @ t=3.6
0.07692126016475229
% es.normE (V/m) @ t=3.7
0.36408035033401487
% es.EX (V/m) @ t=3.7
-0.13356170592301453
% es.EY (V/m) @ t=3.7
0.04099989198841225
% es.EZ (V/m) @ t=3.7
0.33620645601655497
% es.tEX (V/m) @ t=3.7
-0.13356170592300032
% es.tEY (V/m) @ t=3.7
0
% es.tEZ (V/m) @ t=3.7
0.33620645601655497
% es.Ex (V/m) @ t=3.7
-0.13356170592301453
% es.Ey (V/m) @ t=3.7
0.04099989198841225
% es.Ez (V/m) @ t=3.7
0.33620645601655497
% es.tEx (V/m) @ t=3.7
-0.13356170592300032
% es.tEy (V/m) @ t=3.7
0
% es.tEz (V/m) @ t=3.7
0.33620645601655497
% V (V) @ t=3.7
0.07804518846069002
% es.normE (V/m) @ t=3.8
0.3687450900693448
% es.EX (V/m) @ t=3.8
-0.13527267490587747
% es.EY (V/m) @ t=3.8
0.04152534614249159
% es.EZ (V/m) @ t=3.8
0.34051415609604874
% es.tEX (V/m) @ t=3.8
-0.1352726749059059
% es.tEY (V/m) @ t=3.8
0
% es.tEZ (V/m) @ t=3.8
0.34051415609604874
% es.Ex (V/m) @ t=3.8
-0.13527267490587747
% es.Ey (V/m) @ t=3.8
0.04152534614249159
% es.Ez (V/m) @ t=3.8
0.34051415609604874
% es.tEx (V/m) @ t=3.8
-0.1352726749059059
% es.tEy (V/m) @ t=3.8
0
% es.tEz (V/m) @ t=3.8
0.34051415609604874
% V (V) @ t=3.8
0.07904572373545853
% es.normE (V/m) @ t=3.9
0.3729266939134522
% es.EX (V/m) @ t=3.9
-0.13680619116473736
% es.EY (V/m) @ t=3.9
0.041996509138972016
% es.EZ (V/m) @ t=3.9
0.3443757806704113
% es.tEX (V/m) @ t=3.9
-0.13680619116475157
% es.tEY (V/m) @ t=3.9
0
% es.tEZ (V/m) @ t=3.9
0.3443757806704113
% es.Ex (V/m) @ t=3.9
-0.13680619116473736
% es.Ey (V/m) @ t=3.9
0.041996509138972016
% es.Ez (V/m) @ t=3.9
0.3443757806704113
% es.tEx (V/m) @ t=3.9
-0.13680619116475157
% es.tEy (V/m) @ t=3.9
0
% es.tEz (V/m) @ t=3.9
0.3443757806704113
% V (V) @ t=3.9
0.07994315649138328
% es.normE (V/m) @ t=4
0.376625161867348
% es.EX (V/m) @ t=4
-0.1381622546994592
% es.EY (V/m) @ t=4
0.04241338097797698
% es.EZ (V/m) @ t=4
0.34779132973952187
% es.tEX (V/m) @ t=4
-0.138162254699445
% es.tEY (V/m) @ t=4
0
% es.tEZ (V/m) @ t=4
0.34779132973952187
% es.Ex (V/m) @ t=4
-0.1381622546994592
% es.Ey (V/m) @ t=4
0.04241338097797698
% es.Ez (V/m) @ t=4
0.34779132973952187
% es.tEx (V/m) @ t=4
-0.138162254699445
% es.tEy (V/m) @ t=4
0
% es.tEz (V/m) @ t=4
0.34779132973952187
% V (V) @ t=4
0.08073748672846429
% es.normE (V/m) @ t=4.1
0.379840493932765
% es.EX (V/m) @ t=4.1
-0.13934086551007852
% es.EY (V/m) @ t=4.1
0.042775961659400785
% es.EZ (V/m) @ t=4.1
0.3507608033034799
% es.tEX (V/m) @ t=4.1
-0.13934086551007852
% es.tEY (V/m) @ t=4.1
0
% es.tEZ (V/m) @ t=4.1
0.3507608033034799
% es.Ex (V/m) @ t=4.1
-0.13934086551007852
% es.Ey (V/m) @ t=4.1
0.042775961659400785
% es.Ez (V/m) @ t=4.1
0.3507608033034799
% es.tEx (V/m) @ t=4.1
-0.13934086551007852
% es.tEy (V/m) @ t=4.1
0
% es.tEz (V/m) @ t=4.1
0.3507608033034799
% V (V) @ t=4.1
0.08142871444670156
% es.normE (V/m) @ t=4.2
0.3826165078684468
% es.EX (V/m) @ t=4.2
-0.140358440727411
% es.EY (V/m) @ t=4.2
0.04308900185143649
% es.EZ (V/m) @ t=4.2
0.35332455070297897
% es.tEX (V/m) @ t=4.2
-0.14035844072738257
% es.tEY (V/m) @ t=4.2
0
% es.tEZ (V/m) @ t=4.2
0.35332455070297897
% es.Ex (V/m) @ t=4.2
-0.140358440727411
% es.Ey (V/m) @ t=4.2
0.04308900185143649
% es.Ez (V/m) @ t=4.2
0.35332455070297897
% es.tEx (V/m) @ t=4.2
-0.14035844072738257
% es.tEy (V/m) @ t=4.2
0
% es.tEz (V/m) @ t=4.2
0.35332455070297897
% V (V) @ t=4.2
0.08202549710926253
% es.normE (V/m) @ t=4.3
0.3850584897035786
% es.EX (V/m) @ t=4.3
-0.1412544277048866
% es.EY (V/m) @ t=4.3
0.04336391653770555
% es.EZ (V/m) @ t=4.3
0.35557952400142057
% es.tEX (V/m) @ t=4.3
-0.1412544277048724
% es.tEY (V/m) @ t=4.3
0
% es.tEZ (V/m) @ t=4.3
0.35557952400142057
% es.Ex (V/m) @ t=4.3
-0.1412544277048866
% es.Ey (V/m) @ t=4.3
0.04336391653770555
% es.Ez (V/m) @ t=4.3
0.35557952400142057
% es.tEx (V/m) @ t=4.3
-0.1412544277048724
% es.tEy (V/m) @ t=4.3
0
% es.tEz (V/m) @ t=4.3
0.35557952400142057
% V (V) @ t=4.3
0.08254863701188947
% es.normE (V/m) @ t=4.4
0.38707767070177057
% es.EX (V/m) @ t=4.4
-0.1419955675983644
% es.EY (V/m) @ t=4.4
0.04359108151962854
% es.EZ (V/m) @ t=4.4
0.3574439809960097
% es.tEX (V/m) @ t=4.4
-0.1419955675983644
% es.tEY (V/m) @ t=4.4
0
% es.tEZ (V/m) @ t=4.4
0.3574439809960097
% es.Ex (V/m) @ t=4.4
-0.1419955675983644
% es.Ey (V/m) @ t=4.4
0.04359108151962854
% es.Ez (V/m) @ t=4.4
0.3574439809960097
% es.tEx (V/m) @ t=4.4
-0.1419955675983644
% es.tEy (V/m) @ t=4.4
0
% es.tEz (V/m) @ t=4.4
0.3574439809960097
% V (V) @ t=4.4
0.08298059532748063
% es.normE (V/m) @ t=4.5
0.3886740508641487
% es.EX (V/m) @ t=4.5
-0.14258186040785148
% es.EY (V/m) @ t=4.5
0.043770496797154834
% es.EZ (V/m) @ t=4.5
0.358917921686718
% es.tEX (V/m) @ t=4.5
-0.1425818604078799
% es.tEY (V/m) @ t=4.5
0
% es.tEZ (V/m) @ t=4.5
0.358917921686718
% es.Ex (V/m) @ t=4.5
-0.14258186040785148
% es.Ey (V/m) @ t=4.5
0.043770496797154834
% es.Ez (V/m) @ t=4.5
0.358917921686718
% es.tEx (V/m) @ t=4.5
-0.1425818604078799
% es.tEy (V/m) @ t=4.5
0
% es.tEz (V/m) @ t=4.5
0.358917921686718
% V (V) @ t=4.5
0.08332137205603603
% es.normE (V/m) @ t=4.6
0.3898476301925496
% es.EX (V/m) @ t=4.6
-0.14301330613335494
% es.EY (V/m) @ t=4.6
0.04390216237025779
% es.EZ (V/m) @ t=4.6
0.3600013460735525
% es.tEX (V/m) @ t=4.6
-0.14301330613335494
% es.tEY (V/m) @ t=4.6
0
% es.tEZ (V/m) @ t=4.6
0.3600013460735525
% es.Ex (V/m) @ t=4.6
-0.14301330613335494
% es.Ey (V/m) @ t=4.6
0.04390216237025779
% es.Ez (V/m) @ t=4.6
0.3600013460735525
% es.tEx (V/m) @ t=4.6
-0.14301330613335494
% es.tEy (V/m) @ t=4.6
0
% es.tEz (V/m) @ t=4.6
0.3600013460735525
% V (V) @ t=4.6
0.08357096719755566
% es.normE (V/m) @ t=4.7
0.3907170079689039
% es.EX (V/m) @ t=4.7
-0.14333276112447635
% es.EY (V/m) @ t=4.7
0.043999782911838814
% es.EZ (V/m) @ t=4.7
0.36080398973447814
% es.tEX (V/m) @ t=4.7
-0.14333276112447635
% es.tEY (V/m) @ t=4.7
0
% es.tEZ (V/m) @ t=4.7
0.36080398973447814
% es.Ex (V/m) @ t=4.7
-0.14333276112447635
% es.Ey (V/m) @ t=4.7
0.043999782911838814
% es.Ez (V/m) @ t=4.7
0.36080398973447814
% es.tEx (V/m) @ t=4.7
-0.14333276112447635
% es.tEy (V/m) @ t=4.7
0
% es.tEz (V/m) @ t=4.7
0.36080398973447814
% V (V) @ t=4.7
0.08375620054328778
% es.normE (V/m) @ t=4.8
0.3913756632198394
% es.EX (V/m) @ t=4.8
-0.14357400442214185
% es.EY (V/m) @ t=4.8
0.044074160338029245
% es.EZ (V/m) @ t=4.8
0.3614123453971345
% es.tEX (V/m) @ t=4.8
-0.14357400442211343
% es.tEY (V/m) @ t=4.8
0
% es.tEZ (V/m) @ t=4.8
0.3614123453971345
% es.Ex (V/m) @ t=4.8
-0.14357400442214185
% es.Ey (V/m) @ t=4.8
0.044074160338029245
% es.Ez (V/m) @ t=4.8
0.3614123453971345
% es.tEx (V/m) @ t=4.8
-0.14357400442211343
% es.tEy (V/m) @ t=4.8
0
% es.tEz (V/m) @ t=4.8
0.3614123453971345
% V (V) @ t=4.8
0.08389821124376945
% es.normE (V/m) @ t=4.9
0.39170961558265627
% es.EX (V/m) @ t=4.9
-0.14369584874170016
% es.EY (V/m) @ t=4.9
0.04411212371246709
% es.EZ (V/m) @ t=4.9
0.3617209511984214
% es.tEX (V/m) @ t=4.9
-0.14369584874170016
% es.tEY (V/m) @ t=4.9
0
% es.tEZ (V/m) @ t=4.9
0.3617209511984214
% es.Ex (V/m) @ t=4.9
-0.14369584874170016
% es.Ey (V/m) @ t=4.9
0.04411212371246709
% es.Ez (V/m) @ t=4.9
0.3617209511984214
% es.tEx (V/m) @ t=4.9
-0.14369584874170016
% es.tEy (V/m) @ t=4.9
0
% es.tEz (V/m) @ t=4.9
0.3617209511984214
% V (V) @ t=4.9
0.08397122401984311
% es.normE (V/m) @ t=5
0.3917188650593431
% es.EX (V/m) @ t=5
-0.14369829408315837
% es.EY (V/m) @ t=5
0.0441136730351932
% es.EZ (V/m) @ t=5
0.36172980713830327
% es.tEX (V/m) @ t=5
-0.14369829408315837
% es.tEY (V/m) @ t=5
0
% es.tEZ (V/m) @ t=5
0.36172980713830327
% es.Ex (V/m) @ t=5
-0.14369829408315837
% es.Ey (V/m) @ t=5
0.0441136730351932
% es.Ez (V/m) @ t=5
0.36172980713830327
% es.tEx (V/m) @ t=5
-0.14369829408315837
% es.tEy (V/m) @ t=5
0
% es.tEz (V/m) @ t=5
0.36172980713830327
% V (V) @ t=5
0.08397523887150879
% es.normE (V/m) @ t=5.1
0.3914034116526988
% es.EX (V/m) @ t=5.1
-0.14358134044655912
% es.EY (V/m) @ t=5.1
0.04407880830616051
% es.EZ (V/m) @ t=5.1
0.36143891321667354
% es.tEX (V/m) @ t=5.1
-0.14358134044658755
% es.tEY (V/m) @ t=5.1
0
% es.tEZ (V/m) @ t=5.1
0.36143891321667354
% es.Ex (V/m) @ t=5.1
-0.14358134044655912
% es.Ey (V/m) @ t=5.1
0.04407880830616051
% es.Ez (V/m) @ t=5.1
0.36143891321667354
% es.tEx (V/m) @ t=5.1
-0.14358134044658755
% es.tEy (V/m) @ t=5.1
0
% es.tEz (V/m) @ t=5.1
0.36143891321667354
% V (V) @ t=5.1
0.08391025579876646
% es.normE (V/m) @ t=5.2
0.3908644195583335
% es.EX (V/m) @ t=5.2
-0.14338281417740717
% es.EY (V/m) @ t=5.2
0.044018539018566116
% es.EZ (V/m) @ t=5.2
0.360941451343443
% es.tEX (V/m) @ t=5.2
-0.14338281417740717
% es.tEY (V/m) @ t=5.2
0
% es.tEZ (V/m) @ t=5.2
0.360941451343443
% es.Ex (V/m) @ t=5.2
-0.14338281417740717
% es.Ey (V/m) @ t=5.2
0.044018539018566116
% es.Ez (V/m) @ t=5.2