% Model:              1 neuron.mph
% Version:            COMSOL 6.1.0.252
% Date:               Mar 18 2023, 14:14
% Dimension:          0
% Nodes:              14017
% Expressions:        14017
% Description:        Electric field norm, Electric field, X component, Electric field, Y component, Electric field, Z component, Tangential electric field, X component, Tangential electric field, Y component, Tangential electric field, Z component, Electric field, x component, Electric field, y component, Electric field, z component, Tangential electric field, x component, Tangential electric field, y component, Tangential electric field, z component, Electric potential
% Length unit:        mm
% x
1.0000000000000002
% y
12.2
% z
2
% es.normE (V/m) @ t=0
1.2437091620467635
% es.EX (V/m) @ t=0
0.8638905958930712
% es.EY (V/m) @ t=0
0.12935762362637243
% es.EZ (V/m) @ t=0
-0.8626291944302431
% es.tEX (V/m) @ t=0
0.8638905958930758
% es.tEY (V/m) @ t=0
0
% es.tEZ (V/m) @ t=0
-0.8626291944302285
% es.Ex (V/m) @ t=0
0.8638905958930712
% es.Ey (V/m) @ t=0
0.12935762362637243
% es.Ez (V/m) @ t=0
-0.8626291944302431
% es.tEx (V/m) @ t=0
0.8638905958930758
% es.tEy (V/m) @ t=0
0
% es.tEz (V/m) @ t=0
-0.8626291944302285
% V (V) @ t=0
0.013318499507615681
% es.normE (V/m) @ t=0.02
1.0742044479264317
% es.EX (V/m) @ t=0.02
0.746151229564292
% es.EY (V/m) @ t=0.02
0.11172751603874104
% es.EZ (V/m) @ t=0.02
-0.7450617441804206
% es.tEX (V/m) @ t=0.02
0.7461512295642945
% es.tEY (V/m) @ t=0.02
0
% es.tEZ (V/m) @ t=0.02
-0.7450617441804166
% es.Ex (V/m) @ t=0.02
0.746151229564292
% es.Ey (V/m) @ t=0.02
0.11172751603874104
% es.Ez (V/m) @ t=0.02
-0.7450617441804206
% es.tEx (V/m) @ t=0.02
0.7461512295642945
% es.tEy (V/m) @ t=0.02
0
% es.tEz (V/m) @ t=0.02
-0.7450617441804166
% V (V) @ t=0.02
0.011503325547058029
% es.normE (V/m) @ t=0.04
1.0840863990430623
% es.EX (V/m) @ t=0.04
0.7530153138676463
% es.EY (V/m) @ t=0.04
0.11275533357104178
% es.EZ (V/m) @ t=0.04
-0.7519158060479421
% es.tEX (V/m) @ t=0.04
0.753015313867647
% es.tEY (V/m) @ t=0.04
0
% es.tEZ (V/m) @ t=0.04
-0.7519158060479239
% es.Ex (V/m) @ t=0.04
0.7530153138676463
% es.Ey (V/m) @ t=0.04
0.11275533357104178
% es.Ez (V/m) @ t=0.04
-0.7519158060479421
% es.tEx (V/m) @ t=0.04
0.753015313867647
% es.tEy (V/m) @ t=0.04
0
% es.tEz (V/m) @ t=0.04
-0.7519158060479239
% V (V) @ t=0.04
0.011609148308808909
% es.normE (V/m) @ t=0.06
1.094042040366783
% es.EX (V/m) @ t=0.06
0.7599305845428586
% es.EY (V/m) @ t=0.06
0.11379081295320326
% es.EZ (V/m) @ t=0.06
-0.7588209792036573
% es.tEX (V/m) @ t=0.06
0.7599305845428646
% es.tEY (V/m) @ t=0.06
0
% es.tEZ (V/m) @ t=0.06
-0.7588209792036498
% es.Ex (V/m) @ t=0.06
0.7599305845428586
% es.Ey (V/m) @ t=0.06
0.11379081295320326
% es.Ez (V/m) @ t=0.06
-0.7588209792036573
% es.tEx (V/m) @ t=0.06
0.7599305845428646
% es.tEy (V/m) @ t=0.06
0
% es.tEz (V/m) @ t=0.06
-0.7588209792036498
% V (V) @ t=0.06
0.011715760321896236
% es.normE (V/m) @ t=0.08
1.104184862683168
% es.EX (V/m) @ t=0.08
0.7669758688179997
% es.EY (V/m) @ t=0.08
0.1148457794559336
% es.EZ (V/m) @ t=0.08
-0.765855978506583
% es.tEX (V/m) @ t=0.08
0.7669758688179984
% es.tEY (V/m) @ t=0.08
0
% es.tEZ (V/m) @ t=0.08
-0.7658559785065684
% es.Ex (V/m) @ t=0.08
0.7669758688179997
% es.Ey (V/m) @ t=0.08
0.1148457794559336
% es.Ez (V/m) @ t=0.08
-0.765855978506583
% es.tEx (V/m) @ t=0.08
0.7669758688179984
% es.tEy (V/m) @ t=0.08
0
% es.tEz (V/m) @ t=0.08
-0.7658559785065684
% V (V) @ t=0.08
0.011824375932522566
% es.normE (V/m) @ t=0.1
1.114384251224985
% es.EX (V/m) @ t=0.1
0.7740604432929581
% es.EY (V/m) @ t=0.1
0.11590663497997317
% es.EZ (V/m) @ t=0.1
-0.7729302113609635
% es.tEX (V/m) @ t=0.1
0.7740604432929641
% es.tEY (V/m) @ t=0.1
0
% es.tEZ (V/m) @ t=0.1
-0.7729302113609489
% es.Ex (V/m) @ t=0.1
0.7740604432929581
% es.Ey (V/m) @ t=0.1
0.11590663497997317
% es.Ez (V/m) @ t=0.1
-0.7729302113609635
% es.tEx (V/m) @ t=0.1
0.7740604432929641
% es.tEy (V/m) @ t=0.1
0
% es.tEz (V/m) @ t=0.1
-0.7729302113609489
% V (V) @ t=0.1
0.011933597031711074
% es.normE (V/m) @ t=0.12
1.1245836397668172
% es.EX (V/m) @ t=0.12
0.7811450177679335
% es.EY (V/m) @ t=0.12
0.11696749050402294
% es.EZ (V/m) @ t=0.12
-0.7800044442153506
% es.tEX (V/m) @ t=0.12
0.781145017767936
% es.tEY (V/m) @ t=0.12
0
% es.tEZ (V/m) @ t=0.12
-0.7800044442153364
% es.Ex (V/m) @ t=0.12
0.7811450177679335
% es.Ey (V/m) @ t=0.12
0.11696749050402294
% es.Ez (V/m) @ t=0.12
-0.7800044442153506
% es.tEx (V/m) @ t=0.12
0.781145017767936
% es.tEy (V/m) @ t=0.12
0
% es.tEz (V/m) @ t=0.12
-0.7800044442153364
% V (V) @ t=0.12
0.012042818130899581
% es.normE (V/m) @ t=0.14
1.1350634067808552
% es.EX (V/m) @ t=0.14
0.7884243482147693
% es.EY (V/m) @ t=0.14
0.11805749475922772
% es.EZ (V/m) @ t=0.14
-0.7872731469268319
% es.tEX (V/m) @ t=0.14
0.7884243482147717
% es.tEY (V/m) @ t=0.14
0
% es.tEZ (V/m) @ t=0.14
-0.7872731469268244
% es.Ex (V/m) @ t=0.14
0.7884243482147693
% es.Ey (V/m) @ t=0.14
0.11805749475922772
% es.Ez (V/m) @ t=0.14
-0.7872731469268319
% es.tEx (V/m) @ t=0.14
0.7884243482147717
% es.tEy (V/m) @ t=0.14
0
% es.tEz (V/m) @ t=0.14
-0.7872731469268244
% V (V) @ t=0.14
0.012155042341127582
% es.normE (V/m) @ t=0.16
1.145776965503877
% es.EX (V/m) @ t=0.16
0.7958660746228261
% es.EY (V/m) @ t=0.16
0.11917180448842585
% es.EZ (V/m) @ t=0.16
-0.794704007024623
% es.tEX (V/m) @ t=0.16
0.7958660746228348
% es.tEY (V/m) @ t=0.16
0
% es.tEZ (V/m) @ t=0.16
-0.7947040070246123
% es.Ex (V/m) @ t=0.16
0.7958660746228261
% es.Ey (V/m) @ t=0.16
0.11917180448842585
% es.Ez (V/m) @ t=0.16
-0.794704007024623
% es.tEx (V/m) @ t=0.16
0.7958660746228348
% es.tEy (V/m) @ t=0.16
0
% es.tEz (V/m) @ t=0.16
-0.7947040070246123
% V (V) @ t=0.16
0.012269770675358586
% es.normE (V/m) @ t=0.18
1.1564905242268977
% es.EX (V/m) @ t=0.18
0.8033078010308845
% es.EY (V/m) @ t=0.18
0.12028611421761937
% es.EZ (V/m) @ t=0.18
-0.8021348671224149
% es.tEX (V/m) @ t=0.18
0.803307801030885
% es.tEY (V/m) @ t=0.18
0
% es.tEZ (V/m) @ t=0.18
-0.8021348671224073
% es.Ex (V/m) @ t=0.18
0.8033078010308845
% es.Ey (V/m) @ t=0.18
0.12028611421761937
% es.Ez (V/m) @ t=0.18
-0.8021348671224149
% es.tEx (V/m) @ t=0.18
0.803307801030885
% es.tEy (V/m) @ t=0.18
0
% es.tEz (V/m) @ t=0.18
-0.8021348671224073
% V (V) @ t=0.18
0.012384499009589588
% es.normE (V/m) @ t=0.2
1.1672040829499117
% es.EX (V/m) @ t=0.2
0.8107495274389382
% es.EY (V/m) @ t=0.2
0.12140042394682926
% es.EZ (V/m) @ t=0.2
-0.8095657272202024
% es.tEX (V/m) @ t=0.2
0.8107495274389382
% es.tEY (V/m) @ t=0.2
0
% es.tEZ (V/m) @ t=0.2
-0.8095657272201882
% es.Ex (V/m) @ t=0.2
0.8107495274389382
% es.Ey (V/m) @ t=0.2
0.12140042394682926
% es.Ez (V/m) @ t=0.2
-0.8095657272202024
% es.tEx (V/m) @ t=0.2
0.8107495274389382
% es.tEy (V/m) @ t=0.2
0
% es.tEz (V/m) @ t=0.2
-0.8095657272201882
% V (V) @ t=0.2
0.01249922734382059
% es.normE (V/m) @ t=0.22
1.177917641672944
% es.EX (V/m) @ t=0.22
0.8181912538470024
% es.EY (V/m) @ t=0.22
0.12251473367603521
% es.EZ (V/m) @ t=0.22
-0.8169965873180014
% es.tEX (V/m) @ t=0.22
0.8181912538470058
% es.tEY (V/m) @ t=0.22
0
% es.tEZ (V/m) @ t=0.22
-0.8169965873179832
% es.Ex (V/m) @ t=0.22
0.8181912538470024
% es.Ey (V/m) @ t=0.22
0.12251473367603521
% es.Ez (V/m) @ t=0.22
-0.8169965873180014
% es.tEx (V/m) @ t=0.22
0.8181912538470058
% es.tEy (V/m) @ t=0.22
0
% es.tEz (V/m) @ t=0.22
-0.8169965873179832
% V (V) @ t=0.22
0.012613955678051595
% es.normE (V/m) @ t=0.24
1.1886312003959594
% es.EX (V/m) @ t=0.24
0.8256329802550628
% es.EY (V/m) @ t=0.24
0.12362904340524139
% es.EZ (V/m) @ t=0.24
-0.8244274474157822
% es.tEX (V/m) @ t=0.24
0.8256329802550635
% es.tEY (V/m) @ t=0.24
0
% es.tEZ (V/m) @ t=0.24
-0.8244274474157711
% es.Ex (V/m) @ t=0.24
0.8256329802550628
% es.Ey (V/m) @ t=0.24
0.12362904340524139
% es.Ez (V/m) @ t=0.24
-0.8244274474157822
% es.tEx (V/m) @ t=0.24
0.8256329802550635
% es.tEy (V/m) @ t=0.24
0
% es.tEz (V/m) @ t=0.24
-0.8244274474157711
% V (V) @ t=0.24
0.012728684012282597
% es.normE (V/m) @ t=0.26
1.19945975103906
% es.EX (V/m) @ t=0.26
0.8331545887259095
% es.EY (V/m) @ t=0.26
0.12475527654308088
% es.EZ (V/m) @ t=0.26
-0.8319380680464779
% es.tEX (V/m) @ t=0.26
0.8331545887259111
% es.tEY (V/m) @ t=0.26
0
% es.tEZ (V/m) @ t=0.26
-0.8319380680464672
% es.Ex (V/m) @ t=0.26
0.8331545887259095
% es.Ey (V/m) @ t=0.26
0.12475527654308088
% es.Ez (V/m) @ t=0.26
-0.8319380680464779
% es.tEx (V/m) @ t=0.26
0.8331545887259111
% es.tEy (V/m) @ t=0.26
0
% es.tEz (V/m) @ t=0.26
-0.8319380680464672
% V (V) @ t=0.26
0.012844645492622021
% es.normE (V/m) @ t=0.28
1.2113226885245414
% es.EX (V/m) @ t=0.28
0.8413947603325671
% es.EY (V/m) @ t=0.28
0.12598876432106915
% es.EZ (V/m) @ t=0.28
-0.8401661586151641
% es.tEX (V/m) @ t=0.28
0.8413947603325727
% es.tEY (V/m) @ t=0.28
0
% es.tEZ (V/m) @ t=0.28
-0.840166158615153
% es.Ex (V/m) @ t=0.28
0.8413947603325671
% es.Ey (V/m) @ t=0.28
0.12598876432106915
% es.Ez (V/m) @ t=0.28
-0.8401661586151641
% es.tEx (V/m) @ t=0.28
0.8413947603325727
% es.tEy (V/m) @ t=0.28
0
% es.tEz (V/m) @ t=0.28
-0.840166158615153
% V (V) @ t=0.28
0.01297169949240316
% es.normE (V/m) @ t=0.3
1.2231856260101668
% es.EX (V/m) @ t=0.3
0.849634931939226
% es.EY (V/m) @ t=0.3
0.12722225209905808
% es.EZ (V/m) @ t=0.3
-0.8483942491838357
% es.tEX (V/m) @ t=0.3
0.8496349319392311
% es.tEY (V/m) @ t=0.3
0
% es.tEZ (V/m) @ t=0.3
-0.8483942491838246
% es.Ex (V/m) @ t=0.3
0.849634931939226
% es.Ey (V/m) @ t=0.3
0.12722225209905808
% es.Ez (V/m) @ t=0.3
-0.8483942491838357
% es.tEx (V/m) @ t=0.3
0.8496349319392311
% es.tEy (V/m) @ t=0.3
0
% es.tEz (V/m) @ t=0.3
-0.8483942491838246
% V (V) @ t=0.3
0.013098753492184298
% es.normE (V/m) @ t=0.32
1.235048563495936
% es.EX (V/m) @ t=0.32
0.8578751035458796
% es.EY (V/m) @ t=0.32
0.12845573987702963
% es.EZ (V/m) @ t=0.32
-0.8566223397525143
% es.tEX (V/m) @ t=0.32
0.8578751035458883
% es.tEY (V/m) @ t=0.32
0
% es.tEZ (V/m) @ t=0.32
-0.8566223397525032
% es.Ex (V/m) @ t=0.32
0.8578751035458796
% es.Ey (V/m) @ t=0.32
0.12845573987702963
% es.Ez (V/m) @ t=0.32
-0.8566223397525143
% es.tEx (V/m) @ t=0.32
0.8578751035458883
% es.tEy (V/m) @ t=0.32
0
% es.tEz (V/m) @ t=0.32
-0.8566223397525032
% V (V) @ t=0.32
0.013225807491965433
% es.normE (V/m) @ t=0.34
1.2469115009818523
% es.EX (V/m) @ t=0.34
0.866115275152548
% es.EY (V/m) @ t=0.34
0.12968922765501806
% es.EZ (V/m) @ t=0.34
-0.8648504303211824
% es.tEX (V/m) @ t=0.34
0.8661152751525507
% es.tEY (V/m) @ t=0.34
0
% es.tEZ (V/m) @ t=0.34
-0.8648504303211748
% es.Ex (V/m) @ t=0.34
0.866115275152548
% es.Ey (V/m) @ t=0.34
0.12968922765501806
% es.Ez (V/m) @ t=0.34
-0.8648504303211824
% es.tEx (V/m) @ t=0.34
0.8661152751525507
% es.tEy (V/m) @ t=0.34
0
% es.tEz (V/m) @ t=0.34
-0.8648504303211748
% V (V) @ t=0.34
0.013352861491746571
% es.normE (V/m) @ t=0.36
1.2587744384679065
% es.EX (V/m) @ t=0.36
0.8743554467592018
% es.EY (V/m) @ t=0.36
0.13092271543299455
% es.EZ (V/m) @ t=0.36
-0.8730785208898655
% es.tEX (V/m) @ t=0.36
0.8743554467592056
% es.tEY (V/m) @ t=0.36
0
% es.tEZ (V/m) @ t=0.36
-0.8730785208898473
% es.Ex (V/m) @ t=0.36
0.8743554467592018
% es.Ey (V/m) @ t=0.36
0.13092271543299455
% es.Ez (V/m) @ t=0.36
-0.8730785208898655
% es.tEx (V/m) @ t=0.36
0.8743554467592056
% es.tEy (V/m) @ t=0.36
0
% es.tEz (V/m) @ t=0.36
-0.8730785208898473
% V (V) @ t=0.36
0.013479915491527708
% es.normE (V/m) @ t=0.38
1.270637375954104
% es.EX (V/m) @ t=0.38
0.8825956183658612
% es.EY (V/m) @ t=0.38
0.13215620321098276
% es.EZ (V/m) @ t=0.38
-0.8813066114585513
% es.tEX (V/m) @ t=0.38
0.8825956183658663
% es.tEY (V/m) @ t=0.38
0
% es.tEZ (V/m) @ t=0.38
-0.8813066114585331
% es.Ex (V/m) @ t=0.38
0.8825956183658612
% es.Ey (V/m) @ t=0.38
0.13215620321098276
% es.Ez (V/m) @ t=0.38
-0.8813066114585513
% es.tEx (V/m) @ t=0.38
0.8825956183658663
% es.tEy (V/m) @ t=0.38
0
% es.tEz (V/m) @ t=0.38
-0.8813066114585331
% V (V) @ t=0.38
0.013606969491308846
% es.normE (V/m) @ t=0.4
1.2825003134404307
% es.EX (V/m) @ t=0.4
0.8908357899725188
% es.EY (V/m) @ t=0.4
0.13338969098896036
% es.EZ (V/m) @ t=0.4
-0.8895347020272371
% es.tEX (V/m) @ t=0.4
0.8908357899725234
% es.tEY (V/m) @ t=0.4
0
% es.tEZ (V/m) @ t=0.4
-0.8895347020272188
% es.Ex (V/m) @ t=0.4
0.8908357899725188
% es.Ey (V/m) @ t=0.4
0.13338969098896036
% es.Ez (V/m) @ t=0.4
-0.8895347020272371
% es.tEx (V/m) @ t=0.4
0.8908357899725234
% es.tEy (V/m) @ t=0.4
0
% es.tEz (V/m) @ t=0.4
-0.8895347020272188
% V (V) @ t=0.4
0.013734023491089984
% es.normE (V/m) @ t=0.42
1.2943632509268808
% es.EX (V/m) @ t=0.42
0.8990759615791812
% es.EY (V/m) @ t=0.42
0.13462317876694418
% es.EZ (V/m) @ t=0.42
-0.8977627925959166
% es.tEX (V/m) @ t=0.42
0.8990759615791855
% es.tEY (V/m) @ t=0.42
0
% es.tEZ (V/m) @ t=0.42
-0.8977627925958984
% es.Ex (V/m) @ t=0.42
0.8990759615791812
% es.Ey (V/m) @ t=0.42
0.13462317876694418
% es.Ez (V/m) @ t=0.42
-0.8977627925959166
% es.tEx (V/m) @ t=0.42
0.8990759615791855
% es.tEy (V/m) @ t=0.42
0
% es.tEz (V/m) @ t=0.42
-0.8977627925958984
% V (V) @ t=0.42
0.01386107749087112
% es.normE (V/m) @ t=0.44
1.3062261884134516
% es.EX (V/m) @ t=0.44
0.9073161331858393
% es.EY (V/m) @ t=0.44
0.1358566665449315
% es.EZ (V/m) @ t=0.44
-0.9059908831645944
% es.tEX (V/m) @ t=0.44
0.9073161331858444
% es.tEY (V/m) @ t=0.44
0
% es.tEZ (V/m) @ t=0.44
-0.9059908831645762
% es.Ex (V/m) @ t=0.44
0.9073161331858393
% es.Ey (V/m) @ t=0.44
0.1358566665449315
% es.Ez (V/m) @ t=0.44
-0.9059908831645944
% es.tEx (V/m) @ t=0.44
0.9073161331858444
% es.tEy (V/m) @ t=0.44
0
% es.tEz (V/m) @ t=0.44
-0.9059908831645762
% V (V) @ t=0.44
0.013988131490652258
% es.normE (V/m) @ t=0.46
1.3180891259001348
% es.EX (V/m) @ t=0.46
0.9155563047924926
% es.EY (V/m) @ t=0.46
0.13709015432291372
% es.EZ (V/m) @ t=0.46
-0.914218973733266
% es.tEX (V/m) @ t=0.46
0.9155563047924953
% es.tEY (V/m) @ t=0.46
0
% es.tEZ (V/m) @ t=0.46
-0.9142189737332478
% es.Ex (V/m) @ t=0.46
0.9155563047924926
% es.Ey (V/m) @ t=0.46
0.13709015432291372
% es.Ez (V/m) @ t=0.46
-0.914218973733266
% es.tEx (V/m) @ t=0.46
0.9155563047924953
% es.tEy (V/m) @ t=0.46
0
% es.tEz (V/m) @ t=0.46
-0.9142189737332478
% V (V) @ t=0.46
0.014115185490433396
% es.normE (V/m) @ t=0.48
1.3299520633869466
% es.EX (V/m) @ t=0.48
0.9237964763991517
% es.EY (V/m) @ t=0.48
0.1383236421008805
% es.EZ (V/m) @ t=0.48
-0.922447064301942
% es.tEX (V/m) @ t=0.48
0.9237964763991529
% es.tEY (V/m) @ t=0.48
0
% es.tEZ (V/m) @ t=0.48
-0.9224470643019274
% es.Ex (V/m) @ t=0.48
0.9237964763991517
% es.Ey (V/m) @ t=0.48
0.1383236421008805
% es.Ez (V/m) @ t=0.48
-0.922447064301942
% es.tEx (V/m) @ t=0.48
0.9237964763991529
% es.tEy (V/m) @ t=0.48
0
% es.tEz (V/m) @ t=0.48
-0.9224470643019274
% V (V) @ t=0.48
0.01424223949021453
% es.normE (V/m) @ t=0.5
1.341815000873874
% es.EX (V/m) @ t=0.5
0.9320366480058111
% es.EY (V/m) @ t=0.5
0.13955712987887764
% es.EZ (V/m) @ t=0.5
-0.9306751548706251
% es.tEX (V/m) @ t=0.5
0.932036648005814
% es.tEY (V/m) @ t=0.5
0
% es.tEZ (V/m) @ t=0.5
-0.9306751548706069
% es.Ex (V/m) @ t=0.5
0.9320366480058111
% es.Ey (V/m) @ t=0.5
0.13955712987887764
% es.Ez (V/m) @ t=0.5
-0.9306751548706251
% es.tEx (V/m) @ t=0.5
0.932036648005814
% es.tEy (V/m) @ t=0.5
0
% es.tEz (V/m) @ t=0.5
-0.9306751548706069
% V (V) @ t=0.5
0.01436929348999567
% es.normE (V/m) @ t=0.52
1.353948918177565
% es.EX (V/m) @ t=0.52
0.9404650559034058
% es.EY (V/m) @ t=0.52
0.14081874741026307
% es.EZ (V/m) @ t=0.52
-0.9390911996078946
% es.tEX (V/m) @ t=0.52
0.9404650559034153
% es.tEY (V/m) @ t=0.52
0
% es.tEZ (V/m) @ t=0.52
-0.939091199607887
% es.Ex (V/m) @ t=0.52
0.9404650559034058
% es.Ey (V/m) @ t=0.52
0.14081874741026307
% es.Ez (V/m) @ t=0.52
-0.9390911996078946
% es.tEx (V/m) @ t=0.52
0.9404650559034153
% es.tEy (V/m) @ t=0.52
0
% es.tEz (V/m) @ t=0.52
-0.939091199607887
% V (V) @ t=0.52
0.014499251904289325
% es.normE (V/m) @ t=0.54
1.3671050973008838
% es.EX (V/m) @ t=0.54
0.94960357858233
% es.EY (V/m) @ t=0.54
0.1421864834461743
% es.EZ (V/m) @ t=0.54
-0.9482162948298343
% es.tEX (V/m) @ t=0.54
0.9496035785823338
% es.tEY (V/m) @ t=0.54
0
% es.tEZ (V/m) @ t=0.54
-0.9482162948298232
% es.Ex (V/m) @ t=0.54
0.94960357858233
% es.Ey (V/m) @ t=0.54
0.1421864834461743
% es.Ez (V/m) @ t=0.54
-0.9482162948298343
% es.tEx (V/m) @ t=0.54
0.9496035785823338
% es.tEy (V/m) @ t=0.54
0
% es.tEz (V/m) @ t=0.54
-0.9482162948298232
% V (V) @ t=0.54
0.014640167120091462
% es.normE (V/m) @ t=0.56
1.380261276424529
% es.EX (V/m) @ t=0.56
0.9587421012612547
% es.EY (V/m) @ t=0.56
0.14355421948209884
% es.EZ (V/m) @ t=0.56
-0.9573413900517633
% es.tEX (V/m) @ t=0.56
0.9587421012612558
% es.tEY (V/m) @ t=0.56
0
% es.tEZ (V/m) @ t=0.56
-0.9573413900517593
% es.Ex (V/m) @ t=0.56
0.9587421012612547
% es.Ey (V/m) @ t=0.56
0.14355421948209884
% es.Ez (V/m) @ t=0.56
-0.9573413900517633
% es.tEx (V/m) @ t=0.56
0.9587421012612558
% es.tEy (V/m) @ t=0.56
0
% es.tEz (V/m) @ t=0.56
-0.9573413900517593
% V (V) @ t=0.56
0.014781082335893597
% es.normE (V/m) @ t=0.58
1.3934174555485093
% es.EX (V/m) @ t=0.58
0.9678806239401863
% es.EY (V/m) @ t=0.58
0.14492195551804027
% es.EZ (V/m) @ t=0.58
-0.9664664852736986
% es.tEX (V/m) @ t=0.58
0.9678806239401925
% es.tEY (V/m) @ t=0.58
0
% es.tEZ (V/m) @ t=0.58
-0.9664664852736804
% es.Ex (V/m) @ t=0.58
0.9678806239401863
% es.Ey (V/m) @ t=0.58
0.14492195551804027
% es.Ez (V/m) @ t=0.58
-0.9664664852736986
% es.tEx (V/m) @ t=0.58
0.9678806239401925
% es.tEy (V/m) @ t=0.58
0
% es.tEz (V/m) @ t=0.58
-0.9664664852736804
% V (V) @ t=0.58
0.014921997551695734
% es.normE (V/m) @ t=0.6
1.4065736346727975
% es.EX (V/m) @ t=0.6
0.9770191466191112
% es.EY (V/m) @ t=0.6
0.1462896915539426
% es.EZ (V/m) @ t=0.6
-0.9755915804956419
% es.tEX (V/m) @ t=0.6
0.9770191466191149
% es.tEY (V/m) @ t=0.6
0
% es.tEZ (V/m) @ t=0.6
-0.9755915804956237
% es.Ex (V/m) @ t=0.6
0.9770191466191112
% es.Ey (V/m) @ t=0.6
0.1462896915539426
% es.Ez (V/m) @ t=0.6
-0.9755915804956419
% es.tEx (V/m) @ t=0.6
0.9770191466191149
% es.tEy (V/m) @ t=0.6
0
% es.tEz (V/m) @ t=0.6
-0.9755915804956237
% V (V) @ t=0.6
0.015062912767497869
% es.normE (V/m) @ t=0.62
1.4197298137973804
% es.EX (V/m) @ t=0.62
0.9861576692980327
% es.EY (V/m) @ t=0.62
0.14765742758987443
% es.EZ (V/m) @ t=0.62
-0.9847166757175629
% es.tEX (V/m) @ t=0.62
0.9861576692980365
% es.tEY (V/m) @ t=0.62
0
% es.tEZ (V/m) @ t=0.62
-0.9847166757175447
% es.Ex (V/m) @ t=0.62
0.9861576692980327
% es.Ey (V/m) @ t=0.62
0.14765742758987443
% es.Ez (V/m) @ t=0.62
-0.9847166757175629
% es.tEx (V/m) @ t=0.62
0.9861576692980365
% es.tEy (V/m) @ t=0.62
0
% es.tEz (V/m) @ t=0.62
-0.9847166757175447
% V (V) @ t=0.62
0.015203827983300002
% es.normE (V/m) @ t=0.64
1.4328859929222868
% es.EX (V/m) @ t=0.64
0.9952961919769645
% es.EY (V/m) @ t=0.64
0.14902516362578566
% es.EZ (V/m) @ t=0.64
-0.9938417709395204
% es.tEX (V/m) @ t=0.64
0.9952961919769683
% es.tEY (V/m) @ t=0.64
0
% es.tEZ (V/m) @ t=0.64
-0.9938417709395022
% es.Ex (V/m) @ t=0.64
0.9952961919769645
% es.Ey (V/m) @ t=0.64
0.14902516362578566
% es.Ez (V/m) @ t=0.64
-0.9938417709395204
% es.tEx (V/m) @ t=0.64
0.9952961919769683
% es.tEy (V/m) @ t=0.64
0
% es.tEz (V/m) @ t=0.64
-0.9938417709395022
% V (V) @ t=0.64
0.01534474319910214
% es.normE (V/m) @ t=0.66
1.4460421720474648
% es.EX (V/m) @ t=0.66
1.0044347146558883
% es.EY (V/m) @ t=0.66
0.15039289966172537
% es.EZ (V/m) @ t=0.66
-1.0029668661614495
% es.tEX (V/m) @ t=0.66
1.0044347146558903
% es.tEY (V/m) @ t=0.66
0
% es.tEZ (V/m) @ t=0.66
-1.0029668661614384
% es.Ex (V/m) @ t=0.66
1.0044347146558883
% es.Ey (V/m) @ t=0.66
0.15039289966172537
% es.Ez (V/m) @ t=0.66
-1.0029668661614495
% es.tEx (V/m) @ t=0.66
1.0044347146558903
% es.tEy (V/m) @ t=0.66
0
% es.tEz (V/m) @ t=0.66
-1.0029668661614384
% V (V) @ t=0.66
0.015485658414904273
% es.normE (V/m) @ t=0.68
1.4591983511729305
% es.EX (V/m) @ t=0.68
1.0135732373348143
% es.EY (V/m) @ t=0.68
0.15176063569765452
% es.EZ (V/m) @ t=0.68
-1.0120919613833919
% es.tEX (V/m) @ t=0.68
1.0135732373348199
% es.tEY (V/m) @ t=0.68
0
% es.tEZ (V/m) @ t=0.68
-1.0120919613833737
% es.Ex (V/m) @ t=0.68
1.0135732373348143
% es.Ey (V/m) @ t=0.68
0.15176063569765452
% es.Ez (V/m) @ t=0.68
-1.0120919613833919
% es.tEx (V/m) @ t=0.68
1.0135732373348199
% es.tEy (V/m) @ t=0.68
0
% es.tEz (V/m) @ t=0.68
-1.0120919613833737
% V (V) @ t=0.68
0.015626573630706412
% es.normE (V/m) @ t=0.7
1.4723545302986683
% es.EX (V/m) @ t=0.7
1.0227117600137434
% es.EY (V/m) @ t=0.7
0.15312837173357657
% es.EZ (V/m) @ t=0.7
-1.0212170566053307
% es.tEX (V/m) @ t=0.7
1.022711760013748
% es.tEY (V/m) @ t=0.7
0
% es.tEZ (V/m) @ t=0.7
-1.021217056605309
% es.Ex (V/m) @ t=0.7
1.0227117600137434
% es.Ey (V/m) @ t=0.7
0.15312837173357657
% es.Ez (V/m) @ t=0.7
-1.0212170566053307
% es.tEx (V/m) @ t=0.7
1.022711760013748
% es.tEy (V/m) @ t=0.7
0
% es.tEz (V/m) @ t=0.7
-1.021217056605309
% V (V) @ t=0.7
0.01576748884650855
% es.normE (V/m) @ t=0.72
1.4855107094246658
% es.EX (V/m) @ t=0.72
1.031850282692665
% es.EY (V/m) @ t=0.72
0.154496107769511
% es.EZ (V/m) @ t=0.72
-1.0303421518272606
% es.tEX (V/m) @ t=0.72
1.031850282692667
% es.tEY (V/m) @ t=0.72
0
% es.tEZ (V/m) @ t=0.72
-1.0303421518272389
% es.Ex (V/m) @ t=0.72
1.031850282692665
% es.Ey (V/m) @ t=0.72
0.154496107769511
% es.Ez (V/m) @ t=0.72
-1.0303421518272606
% es.tEx (V/m) @ t=0.72
1.031850282692667
% es.tEy (V/m) @ t=0.72
0
% es.tEz (V/m) @ t=0.72
-1.0303421518272389
% V (V) @ t=0.72
0.015908404062310682
% es.normE (V/m) @ t=0.74
1.4986668885509347
% es.EX (V/m) @ t=0.74
1.0409888053716017
% es.EY (V/m) @ t=0.74
0.15586384380541507
% es.EZ (V/m) @ t=0.74
-1.0394672470492101
% es.tEX (V/m) @ t=0.74
1.0409888053716072
% es.tEY (V/m) @ t=0.74
0
% es.tEZ (V/m) @ t=0.74
-1.0394672470491955
% es.Ex (V/m) @ t=0.74
1.0409888053716017
% es.Ey (V/m) @ t=0.74
0.15586384380541507
% es.Ez (V/m) @ t=0.74
-1.0394672470492101
% es.tEx (V/m) @ t=0.74
1.0409888053716072
% es.tEy (V/m) @ t=0.74
0
% es.tEz (V/m) @ t=0.74
-1.0394672470491955
% V (V) @ t=0.74
0.016049319278112817
% es.normE (V/m) @ t=0.76
1.511823067677454
% es.EX (V/m) @ t=0.76
1.0501273280505268
% es.EY (V/m) @ t=0.76
0.15723157984134623
% es.EZ (V/m) @ t=0.76
-1.0485923422711454
% es.tEX (V/m) @ t=0.76
1.0501273280505279
% es.tEY (V/m) @ t=0.76
0
% es.tEZ (V/m) @ t=0.76
-1.0485923422711236
% es.Ex (V/m) @ t=0.76
1.0501273280505268
% es.Ey (V/m) @ t=0.76
0.15723157984134623
% es.Ez (V/m) @ t=0.76
-1.0485923422711454
% es.tEx (V/m) @ t=0.76
1.0501273280505279
% es.tEy (V/m) @ t=0.76
0
% es.tEz (V/m) @ t=0.76
-1.0485923422711236
% V (V) @ t=0.76
0.016190234493914955
% es.normE (V/m) @ t=0.78
1.5254437834145522
% es.EX (V/m) @ t=0.78
1.0595884117209693
% es.EY (V/m) @ t=0.78
0.15864815619166506
% es.EZ (V/m) @ t=0.78
-1.0580395970738405
% es.tEX (V/m) @ t=0.78
1.0595884117209748
% es.tEY (V/m) @ t=0.78
0
% es.tEZ (V/m) @ t=0.78
-1.0580395970738188
% es.Ex (V/m) @ t=0.78
1.0595884117209693
% es.Ey (V/m) @ t=0.78
0.15864815619166506
% es.Ez (V/m) @ t=0.78
-1.0580395970738405
% es.tEx (V/m) @ t=0.78
1.0595884117209748
% es.tEy (V/m) @ t=0.78
0
% es.tEz (V/m) @ t=0.78
-1.0580395970738188
% V (V) @ t=0.78
0.016336099640983478
% es.normE (V/m) @ t=0.8
1.5400560822270488
% es.EX (V/m) @ t=0.8
1.0697380224365831
% es.EY (V/m) @ t=0.8
0.16016898531358076
% es.EZ (V/m) @ t=0.8
-1.0681745220848273
% es.tEX (V/m) @ t=0.8
1.0697380224365882
% es.tEY (V/m) @ t=0.8
0
% es.tEZ (V/m) @ t=0.8
-1.0681745220848056
% es.Ex (V/m) @ t=0.8
1.0697380224365831
% es.Ey (V/m) @ t=0.8
0.16016898531358076
% es.Ez (V/m) @ t=0.8
-1.0681745220848273
% es.tEx (V/m) @ t=0.8
1.0697380224365882
% es.tEy (V/m) @ t=0.8
0
% es.tEz (V/m) @ t=0.8
-1.0681745220848056
% V (V) @ t=0.8
0.016492530732596725
% es.normE (V/m) @ t=0.82
1.5546683810406794
% es.EX (V/m) @ t=0.82
1.0798876331522191
% es.EY (V/m) @ t=0.82
0.161689814435507
% es.EZ (V/m) @ t=0.82
-1.0783094470958416
% es.tEX (V/m) @ t=0.82
1.0798876331522238
% es.tEY (V/m) @ t=0.82
0
% es.tEZ (V/m) @ t=0.82
-1.078309447095827
% es.Ex (V/m) @ t=0.82
1.0798876331522191
% es.Ey (V/m) @ t=0.82
0.161689814435507
% es.Ez (V/m) @ t=0.82
-1.0783094470958416
% es.tEx (V/m) @ t=0.82
1.0798876331522238
% es.tEy (V/m) @ t=0.82
0
% es.tEz (V/m) @ t=0.82
-1.078309447095827
% V (V) @ t=0.82
0.016648961824209975
% es.normE (V/m) @ t=0.84
1.569280679855328
% es.EX (V/m) @ t=0.84
1.0900372438678294
% es.EY (V/m) @ t=0.84
0.1632106435574045
% es.EZ (V/m) @ t=0.84
-1.0884443721068
% es.tEX (V/m) @ t=0.84
1.0900372438678305
% es.tEY (V/m) @ t=0.84
0
% es.tEZ (V/m) @ t=0.84
-1.0884443721067854
% es.Ex (V/m) @ t=0.84
1.0900372438678294
% es.Ey (V/m) @ t=0.84
0.1632106435574045
% es.Ez (V/m) @ t=0.84
-1.0884443721068
% es.tEx (V/m) @ t=0.84
1.0900372438678305
% es.tEy (V/m) @ t=0.84
0
% es.tEz (V/m) @ t=0.84
-1.0884443721067854
% V (V) @ t=0.84
0.01680539291582323
% es.normE (V/m) @ t=0.86
1.5838929786710545
% es.EX (V/m) @ t=0.86
1.1001868545834508
% es.EY (V/m) @ t=0.86
0.16473147267931654
% es.EZ (V/m) @ t=0.86
-1.0985792971177921
% es.tEX (V/m) @ t=0.86
1.100186854583459
% es.tEY (V/m) @ t=0.86
0
% es.tEZ (V/m) @ t=0.86
-1.0985792971177704
% es.Ex (V/m) @ t=0.86
1.1001868545834508
% es.Ey (V/m) @ t=0.86
0.16473147267931654
% es.Ez (V/m) @ t=0.86
-1.0985792971177921
% es.tEx (V/m) @ t=0.86
1.100186854583459
% es.tEy (V/m) @ t=0.86
0
% es.tEz (V/m) @ t=0.86
-1.0985792971177704
% V (V) @ t=0.86
0.016961824007436475
% es.normE (V/m) @ t=0.88
1.5985052774878037
% es.EX (V/m) @ t=0.88
1.1103364652990757
% es.EY (V/m) @ t=0.88
0.16625230180122913
% es.EZ (V/m) @ t=0.88
-1.1087142221288078
% es.tEX (V/m) @ t=0.88
1.11033646529908
% es.tEY (V/m) @ t=0.88
0
% es.tEZ (V/m) @ t=0.88
-1.1087142221287856
% es.Ex (V/m) @ t=0.88
1.1103364652990757
% es.Ey (V/m) @ t=0.88
0.16625230180122913
% es.Ez (V/m) @ t=0.88
-1.1087142221288078
% es.tEx (V/m) @ t=0.88
1.11033646529908
% es.tEy (V/m) @ t=0.88
0
% es.tEz (V/m) @ t=0.88
-1.1087142221287856
% V (V) @ t=0.88
0.017118255099049726
% es.normE (V/m) @ t=0.9
1.6131175763055312
% es.EX (V/m) @ t=0.9
1.1204860760146962
% es.EY (V/m) @ t=0.9
0.1677731309231426
% es.EZ (V/m) @ t=0.9
-1.1188491471397946
% es.tEX (V/m) @ t=0.9
1.1204860760147084
% es.tEY (V/m) @ t=0.9
0
% es.tEZ (V/m) @ t=0.9
-1.1188491471397723
% es.Ex (V/m) @ t=0.9
1.1204860760146962
% es.Ey (V/m) @ t=0.9
0.1677731309231426
% es.Ez (V/m) @ t=0.9
-1.1188491471397946
% es.tEx (V/m) @ t=0.9
1.1204860760147084
% es.tEy (V/m) @ t=0.9
0
% es.tEz (V/m) @ t=0.9
-1.1188491471397723
% V (V) @ t=0.9
0.017274686190662976
% es.normE (V/m) @ t=0.92
1.627729875124203
% es.EX (V/m) @ t=0.92
1.1306356867303147
% es.EY (V/m) @ t=0.92
0.16929396004504577
% es.EZ (V/m) @ t=0.92
-1.128984072150773
% es.tEX (V/m) @ t=0.92
1.1306356867303196
% es.tEY (V/m) @ t=0.92
0
% es.tEZ (V/m) @ t=0.92
-1.1289840721507582
% es.Ex (V/m) @ t=0.92
1.1306356867303147
% es.Ey (V/m) @ t=0.92
0.16929396004504577
% es.Ez (V/m) @ t=0.92
-1.128984072150773
% es.tEx (V/m) @ t=0.92
1.1306356867303196
% es.tEy (V/m) @ t=0.92
0
% es.tEz (V/m) @ t=0.92
-1.1289840721507582
% V (V) @ t=0.92
0.01743111728227623
% es.normE (V/m) @ t=0.94
1.642342173943838
% es.EX (V/m) @ t=0.94
1.1407852974459443
% es.EY (V/m) @ t=0.94
0.17081478916695214
% es.EZ (V/m) @ t=0.94
-1.139118997161774
% es.tEX (V/m) @ t=0.94
1.1407852974459454
% es.tEY (V/m) @ t=0.94
0
% es.tEZ (V/m) @ t=0.94
-1.139118997161738
% es.Ex (V/m) @ t=0.94
1.1407852974459443
% es.Ey (V/m) @ t=0.94
0.17081478916695214
% es.Ez (V/m) @ t=0.94
-1.139118997161774
% es.tEx (V/m) @ t=0.94
1.1407852974459454
% es.tEy (V/m) @ t=0.94
0
% es.tEz (V/m) @ t=0.94
-1.139118997161738
% V (V) @ t=0.94
0.017587548373889473
% es.normE (V/m) @ t=0.96
1.6569544727643455
% es.EX (V/m) @ t=0.96
1.1509349081615514
% es.EY (V/m) @ t=0.96
0.17233561828886906
% es.EZ (V/m) @ t=0.96
-1.1492539221727456
% es.tEX (V/m) @ t=0.96
1.150934908161556
% es.tEY (V/m) @ t=0.96
0
% es.tEZ (V/m) @ t=0.96
-1.1492539221727167
% es.Ex (V/m) @ t=0.96
1.1509349081615514
% es.Ey (V/m) @ t=0.96
0.17233561828886906
% es.Ez (V/m) @ t=0.96
-1.1492539221727456
% es.tEx (V/m) @ t=0.96
1.150934908161556
% es.tEy (V/m) @ t=0.96
0
% es.tEz (V/m) @ t=0.96
-1.1492539221727167
% V (V) @ t=0.96
0.017743979465502723
% es.normE (V/m) @ t=0.98
1.6715667715857778
% es.EX (V/m) @ t=0.98
1.161084518877187
% es.EY (V/m) @ t=0.98
0.173856447410779
% es.EZ (V/m) @ t=0.98
-1.1593888471837395
% es.tEX (V/m) @ t=0.98
1.1610845188771948
% es.tEY (V/m) @ t=0.98
0
% es.tEZ (V/m) @ t=0.98
-1.1593888471837248
% es.Ex (V/m) @ t=0.98
1.161084518877187
% es.Ey (V/m) @ t=0.98
0.173856447410779
% es.Ez (V/m) @ t=0.98
-1.1593888471837395
% es.tEx (V/m) @ t=0.98
1.1610845188771948
% es.tEy (V/m) @ t=0.98
0
% es.tEz (V/m) @ t=0.98
-1.1593888471837248
% V (V) @ t=0.98
0.017900410557115977
% es.normE (V/m) @ t=1
1.686179070408064
% es.EX (V/m) @ t=1
1.1712341295927977
% es.EY (V/m) @ t=1
0.17537727653266794
% es.EZ (V/m) @ t=1
-1.1695237721947458
% es.tEX (V/m) @ t=1
1.1712341295928055
% es.tEY (V/m) @ t=1
0
% es.tEZ (V/m) @ t=1
-1.1695237721947311
% es.Ex (V/m) @ t=1
1.1712341295927977
% es.Ey (V/m) @ t=1
0.17537727653266794
% es.Ez (V/m) @ t=1
-1.1695237721947458
% es.tEx (V/m) @ t=1
1.1712341295928055
% es.tEy (V/m) @ t=1
0
% es.tEz (V/m) @ t=1
-1.1695237721947311
% V (V) @ t=1
0.018056841648729224
% es.normE (V/m) @ t=1.02
1.7007913692311805
% es.EX (V/m) @ t=1.02
1.181383740308426
% es.EY (V/m) @ t=1.02
0.17689810565457964
% es.EZ (V/m) @ t=1.02
-1.1796586972057255
% es.tEX (V/m) @ t=1.02
1.18138374030843
% es.tEY (V/m) @ t=1.02
0
% es.tEZ (V/m) @ t=1.02
-1.1796586972056824
% es.Ex (V/m) @ t=1.02
1.181383740308426
% es.Ey (V/m) @ t=1.02
0.17689810565457964
% es.Ez (V/m) @ t=1.02
-1.1796586972057255
% es.tEx (V/m) @ t=1.02
1.18138374030843
% es.tEy (V/m) @ t=1.02
0
% es.tEz (V/m) @ t=1.02
-1.1796586972056824
% V (V) @ t=1.02
0.018213272740342477
% es.normE (V/m) @ t=1.04
1.7157014701726765
% es.EX (V/m) @ t=1.04
1.191740238343975
% es.EY (V/m) @ t=1.04
0.1784497587885971
% es.EZ (V/m) @ t=1.04
-1.1900001875068353
% es.tEX (V/m) @ t=1.04
1.1917402383439795