% Model:              1 neuron.mph
% Version:            COMSOL 6.0.0.405
% Date:               Mar 16 2023, 17:07
% Dimension:          0
% Nodes:              14017
% Expressions:        14017
% Description:        Electric field norm, Electric field, X component, Electric field, Y component, Electric field, Z component, Tangential electric field, X component, Tangential electric field, Y component, Tangential electric field, Z component, Electric field, x component, Electric field, y component, Electric field, z component, Tangential electric field, x component, Tangential electric field, y component, Tangential electric field, z component, Electric potential
% Length unit:        mm
% x
1
% y
12.2
% z
1
% es.normE (V/m) @ t=0
0.8103775653919059
% es.EX (V/m) @ t=0
0.5502568592698331
% es.EY (V/m) @ t=0
0.15627997401607452
% es.EZ (V/m) @ t=0
0.5590856406947955
% es.tEX (V/m) @ t=0
0.5502568592698367
% es.tEY (V/m) @ t=0
0
% es.tEZ (V/m) @ t=0
0.5590856406947893
% es.Ex (V/m) @ t=0
0.5502568592698331
% es.Ey (V/m) @ t=0
0.15627997401607452
% es.Ez (V/m) @ t=0
0.5590856406947955
% es.tEx (V/m) @ t=0
0.5502568592698367
% es.tEy (V/m) @ t=0
0
% es.tEz (V/m) @ t=0
0.5590856406947893
% V (V) @ t=0
0.007599140235375802
% es.normE (V/m) @ t=0.02
0.6999371873455232
% es.EX (V/m) @ t=0.02
0.47526641170675354
% es.EY (V/m) @ t=0.02
0.13498173073482977
% es.EZ (V/m) @ t=0.02
0.4828919848337625
% es.tEX (V/m) @ t=0.02
0.4752664117067482
% es.tEY (V/m) @ t=0.02
0
% es.tEZ (V/m) @ t=0.02
0.4828919848337563
% es.Ex (V/m) @ t=0.02
0.47526641170675354
% es.Ey (V/m) @ t=0.02
0.13498173073482977
% es.Ez (V/m) @ t=0.02
0.4828919848337625
% es.tEx (V/m) @ t=0.02
0.4752664117067482
% es.tEy (V/m) @ t=0.02
0
% es.tEz (V/m) @ t=0.02
0.4828919848337563
% V (V) @ t=0.02
0.0065635093681250724
% es.normE (V/m) @ t=0.04
0.7063738250571654
% es.EX (V/m) @ t=0.04
0.47963697090145097
% es.EY (V/m) @ t=0.04
0.13622302712732903
% es.EZ (V/m) @ t=0.04
0.48733267033122996
% es.tEX (V/m) @ t=0.04
0.47963697090144564
% es.tEY (V/m) @ t=0.04
0
% es.tEZ (V/m) @ t=0.04
0.4873326703312273
% es.Ex (V/m) @ t=0.04
0.47963697090145097
% es.Ey (V/m) @ t=0.04
0.13622302712732903
% es.Ez (V/m) @ t=0.04
0.48733267033122996
% es.tEx (V/m) @ t=0.04
0.47963697090144564
% es.tEy (V/m) @ t=0.04
0
% es.tEz (V/m) @ t=0.04
0.4873326703312273
% V (V) @ t=0.04
0.0066238673935706555
% es.normE (V/m) @ t=0.06
0.7128683511830931
% es.EX (V/m) @ t=0.06
0.4840468388375303
% es.EY (V/m) @ t=0.06
0.13747548500258677
% es.EZ (V/m) @ t=0.06
0.4918132931380015
% es.tEX (V/m) @ t=0.06
0.4840468388375214
% es.tEY (V/m) @ t=0.06
0
% es.tEZ (V/m) @ t=0.06
0.4918132931379944
% es.Ex (V/m) @ t=0.06
0.4840468388375303
% es.Ey (V/m) @ t=0.06
0.13747548500258677
% es.Ez (V/m) @ t=0.06
0.4918132931380015
% es.tEx (V/m) @ t=0.06
0.4840468388375214
% es.tEy (V/m) @ t=0.06
0
% es.tEz (V/m) @ t=0.06
0.4918132931379944
% V (V) @ t=0.06
0.006684768488112171
% es.normE (V/m) @ t=0.08
0.7194623559857246
% es.EX (V/m) @ t=0.08
0.48852425248969844
% es.EY (V/m) @ t=0.08
0.13874712913488985
% es.EZ (V/m) @ t=0.08
0.4963625473659734
% es.tEX (V/m) @ t=0.08
0.48852425248969666
% es.tEY (V/m) @ t=0.08
0
% es.tEZ (V/m) @ t=0.08
0.49636254736596186
% es.Ex (V/m) @ t=0.08
0.48852425248969844
% es.Ey (V/m) @ t=0.08
0.13874712913488985
% es.Ez (V/m) @ t=0.08
0.4963625473659734
% es.tEx (V/m) @ t=0.08
0.48852425248969666
% es.tEy (V/m) @ t=0.08
0
% es.tEz (V/m) @ t=0.08
0.49636254736596186
% V (V) @ t=0.08
0.0067466022104868415
% es.normE (V/m) @ t=0.1
0.7261247244943685
% es.EX (V/m) @ t=0.1
0.4930480848883665
% es.EY (V/m) @ t=0.1
0.1400319584409928
% es.EZ (V/m) @ t=0.1
0.5009589664583727
% es.tEX (V/m) @ t=0.1
0.4930480848883576
% es.tEY (V/m) @ t=0.1
0
% es.tEZ (V/m) @ t=0.1
0.5009589664583665
% es.Ex (V/m) @ t=0.1
0.4930480848883665
% es.Ey (V/m) @ t=0.1
0.1400319584409928
% es.Ez (V/m) @ t=0.1
0.5009589664583727
% es.tEx (V/m) @ t=0.1
0.4930480848883576
% es.tEy (V/m) @ t=0.1
0
% es.tEz (V/m) @ t=0.1
0.5009589664583665
% V (V) @ t=0.1
0.006809076853078042
% es.normE (V/m) @ t=0.12
0.7327870930030038
% es.EX (V/m) @ t=0.12
0.4975719172870292
% es.EY (V/m) @ t=0.12
0.14131678774705492
% es.EZ (V/m) @ t=0.12
0.5055553855507826
% es.tEX (V/m) @ t=0.12
0.49757191728703276
% es.tEY (V/m) @ t=0.12
0
% es.tEZ (V/m) @ t=0.12
0.5055553855507746
% es.Ex (V/m) @ t=0.12
0.4975719172870292
% es.Ey (V/m) @ t=0.12
0.14131678774705492
% es.Ez (V/m) @ t=0.12
0.5055553855507826
% es.tEx (V/m) @ t=0.12
0.49757191728703276
% es.tEy (V/m) @ t=0.12
0
% es.tEz (V/m) @ t=0.12
0.5055553855507746
% V (V) @ t=0.12
0.006871551495669242
% es.normE (V/m) @ t=0.14
0.7395188473969532
% es.EX (V/m) @ t=0.14
0.5021428637383103
% es.EY (V/m) @ t=0.14
0.14261499782953102
% es.EZ (V/m) @ t=0.14
0.5101996744681712
% es.tEX (V/m) @ t=0.14
0.5021428637382996
% es.tEY (V/m) @ t=0.14
0
% es.tEZ (V/m) @ t=0.14
0.5101996744681649
% es.Ex (V/m) @ t=0.14
0.5021428637383103
% es.Ey (V/m) @ t=0.14
0.14261499782953102
% es.Ez (V/m) @ t=0.14
0.5101996744681712
% es.tEx (V/m) @ t=0.14
0.5021428637382996
% es.tEy (V/m) @ t=0.14
0
% es.tEz (V/m) @ t=0.14
0.5101996744681649
% V (V) @ t=0.14
0.006934676808036283
% es.normE (V/m) @ t=0.16
0.7465364302180777
% es.EX (V/m) @ t=0.16
0.5069078919613066
% es.EY (V/m) @ t=0.16
0.14396832872299647
% es.EZ (V/m) @ t=0.16
0.5150411584883781
% es.tEX (V/m) @ t=0.16
0.5069078919612977
% es.tEY (V/m) @ t=0.16
0
% es.tEZ (V/m) @ t=0.16
0.5150411584883692
% es.Ex (V/m) @ t=0.16
0.5069078919613066
% es.Ey (V/m) @ t=0.16
0.14396832872299647
% es.Ez (V/m) @ t=0.16
0.5150411584883781
% es.tEx (V/m) @ t=0.16
0.5069078919612977
% es.tEy (V/m) @ t=0.16
0
% es.tEz (V/m) @ t=0.16
0.5150411584883692
% V (V) @ t=0.16
0.007000482491459542
% es.normE (V/m) @ t=0.18
0.7535540130392013
% es.EX (V/m) @ t=0.18
0.5116729201842993
% es.EY (V/m) @ t=0.18
0.1453216596164708
% es.EZ (V/m) @ t=0.18
0.5198826425085894
% es.tEX (V/m) @ t=0.18
0.5116729201842958
% es.tEY (V/m) @ t=0.18
0
% es.tEZ (V/m) @ t=0.18
0.5198826425085805
% es.Ex (V/m) @ t=0.18
0.5116729201842993
% es.Ey (V/m) @ t=0.18
0.1453216596164708
% es.Ez (V/m) @ t=0.18
0.5198826425085894
% es.tEx (V/m) @ t=0.18
0.5116729201842958
% es.tEy (V/m) @ t=0.18
0
% es.tEz (V/m) @ t=0.18
0.5198826425085805
% V (V) @ t=0.18
0.007066288174882801
% es.normE (V/m) @ t=0.2
0.7605715958603554
% es.EX (V/m) @ t=0.2
0.5164379484073436
% es.EY (V/m) @ t=0.2
0.14667499050992205
% es.EZ (V/m) @ t=0.2
0.5247241265287972
% es.tEX (V/m) @ t=0.2
0.5164379484073365
% es.tEY (V/m) @ t=0.2
0
% es.tEZ (V/m) @ t=0.2
0.5247241265287919
% es.Ex (V/m) @ t=0.2
0.5164379484073436
% es.Ey (V/m) @ t=0.2
0.14667499050992205
% es.Ez (V/m) @ t=0.2
0.5247241265287972
% es.tEx (V/m) @ t=0.2
0.5164379484073365
% es.tEy (V/m) @ t=0.2
0
% es.tEz (V/m) @ t=0.2
0.5247241265287919
% V (V) @ t=0.2
0.007132093858306061
% es.normE (V/m) @ t=0.22
0.7675891786814759
% es.EX (V/m) @ t=0.22
0.5212029766303363
% es.EY (V/m) @ t=0.22
0.14802832140340172
% es.EZ (V/m) @ t=0.22
0.5295656105489979
% es.tEX (V/m) @ t=0.22
0.5212029766303203
% es.tEY (V/m) @ t=0.22
0
% es.tEZ (V/m) @ t=0.22
0.529565610548989
% es.Ex (V/m) @ t=0.22
0.5212029766303363
% es.Ey (V/m) @ t=0.22
0.14802832140340172
% es.Ez (V/m) @ t=0.22
0.5295656105489979
% es.tEx (V/m) @ t=0.22
0.5212029766303203
% es.tEy (V/m) @ t=0.22
0
% es.tEz (V/m) @ t=0.22
0.529565610548989
% V (V) @ t=0.22
0.00719789954172932
% es.normE (V/m) @ t=0.24
0.7746067615026195
% es.EX (V/m) @ t=0.24
0.5259680048533539
% es.EY (V/m) @ t=0.24
0.1493816522968583
% es.EZ (V/m) @ t=0.24
0.5344070945692154
% es.tEX (V/m) @ t=0.24
0.5259680048533397
% es.tEY (V/m) @ t=0.24
0
% es.tEZ (V/m) @ t=0.24
0.5344070945692074
% es.Ex (V/m) @ t=0.24
0.5259680048533539
% es.Ey (V/m) @ t=0.24
0.1493816522968583
% es.Ez (V/m) @ t=0.24
0.5344070945692154
% es.tEx (V/m) @ t=0.24
0.5259680048533397
% es.tEy (V/m) @ t=0.24
0
% es.tEz (V/m) @ t=0.24
0.5344070945692074
% V (V) @ t=0.24
0.007263705225152579
% es.normE (V/m) @ t=0.26
0.7816243443237438
% es.EX (V/m) @ t=0.26
0.5307330330763538
% es.EY (V/m) @ t=0.26
0.15073498319031842
% es.EZ (V/m) @ t=0.26
0.5392485785894277
% es.tEX (V/m) @ t=0.26
0.530733033076352
% es.tEY (V/m) @ t=0.26
0
% es.tEZ (V/m) @ t=0.26
0.5392485785894188
% es.Ex (V/m) @ t=0.26
0.5307330330763538
% es.Ey (V/m) @ t=0.26
0.15073498319031842
% es.Ez (V/m) @ t=0.26
0.5392485785894277
% es.tEx (V/m) @ t=0.26
0.530733033076352
% es.tEy (V/m) @ t=0.26
0
% es.tEz (V/m) @ t=0.26
0.5392485785894188
% V (V) @ t=0.26
0.007329510908575839
% es.normE (V/m) @ t=0.28
0.7889613934183
% es.EX (V/m) @ t=0.28
0.5357149407623503
% es.EY (V/m) @ t=0.28
0.15214997482124204
% es.EZ (V/m) @ t=0.28
0.5443104733650781
% es.tEX (V/m) @ t=0.28
0.5357149407623183
% es.tEY (V/m) @ t=0.28
0
% es.tEZ (V/m) @ t=0.28
0.5443104733650692
% es.Ex (V/m) @ t=0.28
0.5357149407623503
% es.Ey (V/m) @ t=0.28
0.15214997482124204
% es.Ez (V/m) @ t=0.28
0.5443104733650781
% es.tEx (V/m) @ t=0.28
0.5357149407623183
% es.tEy (V/m) @ t=0.28
0
% es.tEz (V/m) @ t=0.28
0.5443104733650692
% V (V) @ t=0.28
0.007398306701567117
% es.normE (V/m) @ t=0.3
0.7967763984626268
% es.EX (V/m) @ t=0.3
0.5410213234816705
% es.EY (V/m) @ t=0.3
0.15365721755581951
% es.EZ (V/m) @ t=0.3
0.5497021263678388
% es.tEX (V/m) @ t=0.3
0.5410213234816581
% es.tEY (V/m) @ t=0.3
0
% es.tEZ (V/m) @ t=0.3
0.5497021263678299
% es.Ex (V/m) @ t=0.3
0.5410213234816705
% es.Ey (V/m) @ t=0.3
0.15365721755581951
% es.Ez (V/m) @ t=0.3
0.5497021263678388
% es.tEx (V/m) @ t=0.3
0.5410213234816581
% es.tEy (V/m) @ t=0.3
0
% es.tEz (V/m) @ t=0.3
0.5497021263678299
% V (V) @ t=0.3
0.007471576020489501
% es.normE (V/m) @ t=0.32
0.8045914035070432
% es.EX (V/m) @ t=0.32
0.5463277062009784
% es.EY (V/m) @ t=0.32
0.1551644602904254
% es.EZ (V/m) @ t=0.32
0.5550937793706145
% es.tEX (V/m) @ t=0.32
0.5463277062009837
% es.tEY (V/m) @ t=0.32
0
% es.tEZ (V/m) @ t=0.32
0.5550937793706048
% es.Ex (V/m) @ t=0.32
0.5463277062009784
% es.Ey (V/m) @ t=0.32
0.1551644602904254
% es.Ez (V/m) @ t=0.32
0.5550937793706145
% es.tEx (V/m) @ t=0.32
0.5463277062009837
% es.tEy (V/m) @ t=0.32
0
% es.tEz (V/m) @ t=0.32
0.5550937793706048
% V (V) @ t=0.32
0.007544845339411885
% es.normE (V/m) @ t=0.34
0.8124064085515087
% es.EX (V/m) @ t=0.34
0.5516340889202631
% es.EY (V/m) @ t=0.34
0.15667170302506683
% es.EZ (V/m) @ t=0.34
0.560485432373361
% es.tEX (V/m) @ t=0.34
0.5516340889202525
% es.tEY (V/m) @ t=0.34
0
% es.tEZ (V/m) @ t=0.34
0.5604854323733548
% es.Ex (V/m) @ t=0.34
0.5516340889202631
% es.Ey (V/m) @ t=0.34
0.15667170302506683
% es.Ez (V/m) @ t=0.34
0.560485432373361
% es.tEx (V/m) @ t=0.34
0.5516340889202525
% es.tEy (V/m) @ t=0.34
0
% es.tEz (V/m) @ t=0.34
0.5604854323733548
% V (V) @ t=0.34
0.0076181146583342695
% es.normE (V/m) @ t=0.36
0.8202214135960906
% es.EX (V/m) @ t=0.36
0.556940471639578
% es.EY (V/m) @ t=0.36
0.1581789457596532
% es.EZ (V/m) @ t=0.36
0.565877085376143
% es.tEX (V/m) @ t=0.36
0.556940471639578
% es.tEY (V/m) @ t=0.36
0
% es.tEZ (V/m) @ t=0.36
0.5658770853761368
% es.Ex (V/m) @ t=0.36
0.556940471639578
% es.Ey (V/m) @ t=0.36
0.1581789457596532
% es.Ez (V/m) @ t=0.36
0.565877085376143
% es.tEx (V/m) @ t=0.36
0.556940471639578
% es.tEy (V/m) @ t=0.36
0
% es.tEz (V/m) @ t=0.36
0.5658770853761368
% V (V) @ t=0.36
0.007691383977256653
% es.normE (V/m) @ t=0.38
0.8280364186407042
% es.EX (V/m) @ t=0.38
0.5622468543588788
% es.EY (V/m) @ t=0.38
0.15968618849427152
% es.EZ (V/m) @ t=0.38
0.5712687383788753
% es.tEX (V/m) @ t=0.38
0.5622468543588752
% es.tEY (V/m) @ t=0.38
0
% es.tEZ (V/m) @ t=0.38
0.571268738378869
% es.Ex (V/m) @ t=0.38
0.5622468543588788
% es.Ey (V/m) @ t=0.38
0.15968618849427152
% es.Ez (V/m) @ t=0.38
0.5712687383788753
% es.tEx (V/m) @ t=0.38
0.5622468543588752
% es.tEy (V/m) @ t=0.38
0
% es.tEz (V/m) @ t=0.38
0.571268738378869
% V (V) @ t=0.38
0.007764653296179037
% es.normE (V/m) @ t=0.4
0.8358514236854313
% es.EX (V/m) @ t=0.4
0.5675532370781973
% es.EY (V/m) @ t=0.4
0.16119343122884722
% es.EZ (V/m) @ t=0.4
0.5766603913816564
% es.tEX (V/m) @ t=0.4
0.5675532370781866
% es.tEY (V/m) @ t=0.4
0
% es.tEZ (V/m) @ t=0.4
0.5766603913816439
% es.Ex (V/m) @ t=0.4
0.5675532370781973
% es.Ey (V/m) @ t=0.4
0.16119343122884722
% es.Ez (V/m) @ t=0.4
0.5766603913816564
% es.tEx (V/m) @ t=0.4
0.5675532370781866
% es.tEy (V/m) @ t=0.4
0
% es.tEz (V/m) @ t=0.4
0.5766603913816439
% V (V) @ t=0.4
0.007837922615101422
% es.normE (V/m) @ t=0.42
0.8436664287302084
% es.EX (V/m) @ t=0.42
0.5728596197975051
% es.EY (V/m) @ t=0.42
0.16270067396346022
% es.EZ (V/m) @ t=0.42
0.582052044384409
% es.tEX (V/m) @ t=0.42
0.572859619797498
% es.tEY (V/m) @ t=0.42
0
% es.tEZ (V/m) @ t=0.42
0.5820520443843975
% es.Ex (V/m) @ t=0.42
0.5728596197975051
% es.Ey (V/m) @ t=0.42
0.16270067396346022
% es.Ez (V/m) @ t=0.42
0.582052044384409
% es.tEx (V/m) @ t=0.42
0.572859619797498
% es.tEy (V/m) @ t=0.42
0
% es.tEz (V/m) @ t=0.42
0.5820520443843975
% V (V) @ t=0.42
0.007911191934023804
% es.normE (V/m) @ t=0.44
0.8514814337750662
% es.EX (V/m) @ t=0.44
0.5781660025168129
% es.EY (V/m) @ t=0.44
0.16420791669806434
% es.EZ (V/m) @ t=0.44
0.5874436973871804
% es.tEX (V/m) @ t=0.44
0.5781660025167952
% es.tEY (V/m) @ t=0.44
0
% es.tEZ (V/m) @ t=0.44
0.5874436973871724
% es.Ex (V/m) @ t=0.44
0.5781660025168129
% es.Ey (V/m) @ t=0.44
0.16420791669806434
% es.Ez (V/m) @ t=0.44
0.5874436973871804
% es.tEx (V/m) @ t=0.44
0.5781660025167952
% es.tEy (V/m) @ t=0.44
0
% es.tEz (V/m) @ t=0.44
0.5874436973871724
% V (V) @ t=0.44
0.007984461252946188
% es.normE (V/m) @ t=0.46
0.85929643881996
% es.EX (V/m) @ t=0.46
0.5834723852360995
% es.EY (V/m) @ t=0.46
0.1657151594326507
% es.EZ (V/m) @ t=0.46
0.5928353503899402
% es.tEX (V/m) @ t=0.46
0.5834723852360924
% es.tEY (V/m) @ t=0.46
0
% es.tEZ (V/m) @ t=0.46
0.5928353503899295
% es.Ex (V/m) @ t=0.46
0.5834723852360995
% es.Ey (V/m) @ t=0.46
0.1657151594326507
% es.Ez (V/m) @ t=0.46
0.5928353503899402
% es.tEx (V/m) @ t=0.46
0.5834723852360924
% es.tEy (V/m) @ t=0.46
0
% es.tEz (V/m) @ t=0.46
0.5928353503899295
% V (V) @ t=0.46
0.008057730571868572
% es.normE (V/m) @ t=0.48
0.867111443864959
% es.EX (V/m) @ t=0.48
0.5887787679554037
% es.EY (V/m) @ t=0.48
0.16722240216726902
% es.EZ (V/m) @ t=0.48
0.5982270033927124
% es.tEX (V/m) @ t=0.48
0.5887787679553895
% es.tEY (V/m) @ t=0.48
0
% es.tEZ (V/m) @ t=0.48
0.5982270033927009
% es.Ex (V/m) @ t=0.48
0.5887787679554037
% es.Ey (V/m) @ t=0.48
0.16722240216726902
% es.Ez (V/m) @ t=0.48
0.5982270033927124
% es.tEx (V/m) @ t=0.48
0.5887787679553895
% es.tEy (V/m) @ t=0.48
0
% es.tEz (V/m) @ t=0.48
0.5982270033927009
% V (V) @ t=0.48
0.008130999890790956
% es.normE (V/m) @ t=0.5
0.8749264489099943
% es.EX (V/m) @ t=0.5
0.5940851506747009
% es.EY (V/m) @ t=0.5
0.16872964490187847
% es.EZ (V/m) @ t=0.5
0.603618656395466
% es.tEX (V/m) @ t=0.5
0.5940851506747009
% es.tEY (V/m) @ t=0.5
0
% es.tEZ (V/m) @ t=0.5
0.6036186563954615
% es.Ex (V/m) @ t=0.5
0.5940851506747009
% es.Ey (V/m) @ t=0.5
0.16872964490187847
% es.Ez (V/m) @ t=0.5
0.603618656395466
% es.tEx (V/m) @ t=0.5
0.5940851506747009
% es.tEy (V/m) @ t=0.5
0
% es.tEz (V/m) @ t=0.5
0.6036186563954615
% V (V) @ t=0.5
0.00820426920971334
% es.normE (V/m) @ t=0.52
0.8827414539550876
% es.EX (V/m) @ t=0.52
0.5993915333940052
% es.EY (V/m) @ t=0.52
0.17023688763648614
% es.EZ (V/m) @ t=0.52
0.6090103093982071
% es.tEX (V/m) @ t=0.52
0.5993915333939981
% es.tEY (V/m) @ t=0.52
0
% es.tEZ (V/m) @ t=0.52
0.6090103093981973
% es.Ex (V/m) @ t=0.52
0.5993915333940052
% es.Ey (V/m) @ t=0.52
0.17023688763648614
% es.Ez (V/m) @ t=0.52
0.6090103093982071
% es.tEx (V/m) @ t=0.52
0.5993915333939981
% es.tEy (V/m) @ t=0.52
0
% es.tEz (V/m) @ t=0.52
0.6090103093981973
% V (V) @ t=0.52
0.008277538528635723
% es.normE (V/m) @ t=0.54
0.8905564590002744
% es.EX (V/m) @ t=0.54
0.6046979161133237
% es.EY (V/m) @ t=0.54
0.17174413037110803
% es.EZ (V/m) @ t=0.54
0.6144019624009758
% es.tEX (V/m) @ t=0.54
0.6046979161133237
% es.tEY (V/m) @ t=0.54
0
% es.tEZ (V/m) @ t=0.54
0.6144019624009687
% es.Ex (V/m) @ t=0.54
0.6046979161133237
% es.Ey (V/m) @ t=0.54
0.17174413037110803
% es.Ez (V/m) @ t=0.54
0.6144019624009758
% es.tEx (V/m) @ t=0.54
0.6046979161133237
% es.tEy (V/m) @ t=0.54
0
% es.tEz (V/m) @ t=0.54
0.6144019624009687
% V (V) @ t=0.54
0.008350807847558109
% es.normE (V/m) @ t=0.56
0.8991088229714936
% es.EX (V/m) @ t=0.56
0.6105051668452859
% es.EY (V/m) @ t=0.56
0.17339333490796882
% es.EZ (V/m) @ t=0.56
0.6203022861103067
% es.tEX (V/m) @ t=0.56
0.6105051668452717
% es.tEY (V/m) @ t=0.56
0
% es.tEZ (V/m) @ t=0.56
0.6203022861102987
% es.Ex (V/m) @ t=0.56
0.6105051668452859
% es.Ey (V/m) @ t=0.56
0.17339333490796882
% es.Ez (V/m) @ t=0.56
0.6203022861103067
% es.tEx (V/m) @ t=0.56
0.6105051668452717
% es.tEy (V/m) @ t=0.56
0
% es.tEz (V/m) @ t=0.56
0.6203022861102987
% V (V) @ t=0.56
0.008431017062482383
% es.normE (V/m) @ t=0.58
0.9078328003001985
% es.EX (V/m) @ t=0.58
0.61642898989804
% es.EY (V/m) @ t=0.58
0.1750755797196124
% es.EZ (V/m) @ t=0.58
0.6263209981440223
% es.tEX (V/m) @ t=0.58
0.61642898989804
% es.tEY (V/m) @ t=0.58
0
% es.tEZ (V/m) @ t=0.58
0.6263209981440134
% es.Ex (V/m) @ t=0.58
0.61642898989804
% es.Ey (V/m) @ t=0.58
0.1750755797196124
% es.Ez (V/m) @ t=0.58
0.6263209981440223
% es.tEx (V/m) @ t=0.58
0.61642898989804
% es.tEy (V/m) @ t=0.58
0
% es.tEz (V/m) @ t=0.58
0.6263209981440134
% V (V) @ t=0.58
0.008512841472951792
% es.normE (V/m) @ t=0.6
0.9165567776290493
% es.EX (V/m) @ t=0.6
0.6223528129508047
% es.EY (V/m) @ t=0.6
0.1767578245312329
% es.EZ (V/m) @ t=0.6
0.6323397101777593
% es.tEX (V/m) @ t=0.6
0.622352812950794
% es.tEY (V/m) @ t=0.6
0
% es.tEZ (V/m) @ t=0.6
0.632339710177753
% es.Ex (V/m) @ t=0.6
0.6223528129508047
% es.Ey (V/m) @ t=0.6
0.1767578245312329
% es.Ez (V/m) @ t=0.6
0.6323397101777593
% es.tEx (V/m) @ t=0.6
0.622352812950794
% es.tEy (V/m) @ t=0.6
0
% es.tEz (V/m) @ t=0.6
0.632339710177753
% V (V) @ t=0.6
0.008594665883421204
% es.normE (V/m) @ t=0.62
0.9252807549579921
% es.EX (V/m) @ t=0.62
0.6282766360035339
% es.EY (V/m) @ t=0.62
0.17844006934286227
% es.EZ (V/m) @ t=0.62
0.6383584222114811
% es.tEX (V/m) @ t=0.62
0.6282766360035197
% es.tEY (V/m) @ t=0.62
0
% es.tEZ (V/m) @ t=0.62
0.6383584222114678
% es.Ex (V/m) @ t=0.62
0.6282766360035339
% es.Ey (V/m) @ t=0.62
0.17844006934286227
% es.Ez (V/m) @ t=0.62
0.6383584222114811
% es.tEx (V/m) @ t=0.62
0.6282766360035197
% es.tEy (V/m) @ t=0.62
0
% es.tEz (V/m) @ t=0.62
0.6383584222114678
% V (V) @ t=0.62
0.008676490293890613
% es.normE (V/m) @ t=0.64
0.9340047322870784
% es.EX (V/m) @ t=0.64
0.634200459056288
% es.EY (V/m) @ t=0.64
0.180122314154481
% es.EZ (V/m) @ t=0.64
0.64437713424521
% es.tEX (V/m) @ t=0.64
0.634200459056288
% es.tEY (V/m) @ t=0.64
0
% es.tEZ (V/m) @ t=0.64
0.6443771342452038
% es.Ex (V/m) @ t=0.64
0.634200459056288
% es.Ey (V/m) @ t=0.64
0.180122314154481
% es.Ez (V/m) @ t=0.64
0.64437713424521
% es.tEx (V/m) @ t=0.64
0.634200459056288
% es.tEy (V/m) @ t=0.64
0
% es.tEz (V/m) @ t=0.64
0.6443771342452038
% V (V) @ t=0.64
0.008758314704360025
% es.normE (V/m) @ t=0.66
0.9427287096162776
% es.EX (V/m) @ t=0.66
0.6401242821090136
% es.EY (V/m) @ t=0.66
0.1818045589661157
% es.EZ (V/m) @ t=0.66
0.6503958462789559
% es.tEX (V/m) @ t=0.66
0.6401242821089994
% es.tEY (V/m) @ t=0.66
0
% es.tEZ (V/m) @ t=0.66
0.6503958462789399
% es.Ex (V/m) @ t=0.66
0.6401242821090136
% es.Ey (V/m) @ t=0.66
0.1818045589661157
% es.Ez (V/m) @ t=0.66
0.6503958462789559
% es.tEx (V/m) @ t=0.66
0.6401242821089994
% es.tEy (V/m) @ t=0.66
0
% es.tEz (V/m) @ t=0.66
0.6503958462789399
% V (V) @ t=0.66
0.008840139114829434
% es.normE (V/m) @ t=0.68
0.9514526869455648
% es.EX (V/m) @ t=0.68
0.6460481051617144
% es.EY (V/m) @ t=0.68
0.18348680377778237
% es.EZ (V/m) @ t=0.68
0.6564145583126653
% es.tEX (V/m) @ t=0.68
0.6460481051617109
% es.tEY (V/m) @ t=0.68
0
% es.tEZ (V/m) @ t=0.68
0.6564145583126546
% es.Ex (V/m) @ t=0.68
0.6460481051617144
% es.Ey (V/m) @ t=0.68
0.18348680377778237
% es.Ez (V/m) @ t=0.68
0.6564145583126653
% es.tEx (V/m) @ t=0.68
0.6460481051617109
% es.tEy (V/m) @ t=0.68
0
% es.tEz (V/m) @ t=0.68
0.6564145583126546
% V (V) @ t=0.68
0.008921963525298844
% es.normE (V/m) @ t=0.7
0.9601766642750034
% es.EX (V/m) @ t=0.7
0.6519719282144685
% es.EY (V/m) @ t=0.7
0.18516904858943484
% es.EZ (V/m) @ t=0.7
0.6624332703463915
% es.tEX (V/m) @ t=0.7
0.6519719282144507
% es.tEY (V/m) @ t=0.7
0
% es.tEZ (V/m) @ t=0.7
0.6624332703463907
% es.Ex (V/m) @ t=0.7
0.6519719282144685
% es.Ey (V/m) @ t=0.7
0.18516904858943484
% es.Ez (V/m) @ t=0.7
0.6624332703463915
% es.tEx (V/m) @ t=0.7
0.6519719282144507
% es.tEy (V/m) @ t=0.7
0
% es.tEz (V/m) @ t=0.7
0.6624332703463907
% V (V) @ t=0.7
0.009003787935768255
% es.normE (V/m) @ t=0.72
0.968900641604539
% es.EX (V/m) @ t=0.72
0.6578957512672012
% es.EY (V/m) @ t=0.72
0.18685129340104645
% es.EZ (V/m) @ t=0.72
0.6684519823801347
% es.tEX (V/m) @ t=0.72
0.6578957512671906
% es.tEY (V/m) @ t=0.72
0
% es.tEZ (V/m) @ t=0.72
0.6684519823801196
% es.Ex (V/m) @ t=0.72
0.6578957512672012
% es.Ey (V/m) @ t=0.72
0.18685129340104645
% es.Ez (V/m) @ t=0.72
0.6684519823801347
% es.tEx (V/m) @ t=0.72
0.6578957512671906
% es.tEy (V/m) @ t=0.72
0
% es.tEz (V/m) @ t=0.72
0.6684519823801196
% V (V) @ t=0.72
0.009085612346237663
% es.normE (V/m) @ t=0.74
0.97762461893417
% es.EX (V/m) @ t=0.74
0.6638195743199411
% es.EY (V/m) @ t=0.74
0.18853353821268115
% es.EZ (V/m) @ t=0.74
0.6744706944138477
% es.tEX (V/m) @ t=0.74
0.6638195743199446
% es.tEY (V/m) @ t=0.74
0
% es.tEZ (V/m) @ t=0.74
0.6744706944138414
% es.Ex (V/m) @ t=0.74
0.6638195743199411
% es.Ey (V/m) @ t=0.74
0.18853353821268115
% es.Ez (V/m) @ t=0.74
0.6744706944138477
% es.tEx (V/m) @ t=0.74
0.6638195743199446
% es.tEy (V/m) @ t=0.74
0
% es.tEz (V/m) @ t=0.74
0.6744706944138414
% V (V) @ t=0.74
0.009167436756707073
% es.normE (V/m) @ t=0.76
0.9863485962639229
% es.EX (V/m) @ t=0.76
0.6697433973726845
% es.EY (V/m) @ t=0.76
0.1902157830243123
% es.EZ (V/m) @ t=0.76
0.6804894064475775
% es.tEX (V/m) @ t=0.76
0.6697433973726987
% es.tEY (V/m) @ t=0.76
0
% es.tEZ (V/m) @ t=0.76
0.6804894064475704
% es.Ex (V/m) @ t=0.76
0.6697433973726845
% es.Ey (V/m) @ t=0.76
0.1902157830243123
% es.Ez (V/m) @ t=0.76
0.6804894064475775
% es.tEx (V/m) @ t=0.76
0.6697433973726987
% es.tEy (V/m) @ t=0.76
0
% es.tEz (V/m) @ t=0.76
0.6804894064475704
% V (V) @ t=0.76
0.009249261167176484
% es.normE (V/m) @ t=0.78
0.9950725735937583
% es.EX (V/m) @ t=0.78
0.6756672204254137
% es.EY (V/m) @ t=0.78
0.19189802783595766
% es.EZ (V/m) @ t=0.78
0.6865081184812913
% es.tEX (V/m) @ t=0.78
0.6756672204254244
% es.tEY (V/m) @ t=0.78
0
% es.tEZ (V/m) @ t=0.78
0.6865081184812709
% es.Ex (V/m) @ t=0.78
0.6756672204254137
% es.Ey (V/m) @ t=0.78
0.19189802783595766
% es.Ez (V/m) @ t=0.78
0.6865081184812913
% es.tEx (V/m) @ t=0.78
0.6756672204254244
% es.tEy (V/m) @ t=0.78
0
% es.tEz (V/m) @ t=0.78
0.6865081184812709
% V (V) @ t=0.78
0.009331085577645894
% es.normE (V/m) @ t=0.8
1.0037965509237312
% es.EX (V/m) @ t=0.8
0.6815910434781962
% es.EY (V/m) @ t=0.8
0.19358027264755684
% es.EZ (V/m) @ t=0.8
0.6925268305150256
% es.tEX (V/m) @ t=0.8
0.6815910434781927
% es.tEY (V/m) @ t=0.8
0
% es.tEZ (V/m) @ t=0.8
0.6925268305150141
% es.Ex (V/m) @ t=0.8
0.6815910434781962
% es.Ey (V/m) @ t=0.8
0.19358027264755684
% es.Ez (V/m) @ t=0.8
0.6925268305150256
% es.tEx (V/m) @ t=0.8
0.6815910434781927
% es.tEy (V/m) @ t=0.8
0
% es.tEz (V/m) @ t=0.8
0.6925268305150141
% V (V) @ t=0.8
0.009412909988115305
% es.normE (V/m) @ t=0.82
1.0127471932844991
% es.EX (V/m) @ t=0.82
0.6876686840197017
% es.EY (V/m) @ t=0.82
0.19530634174692096
% es.EZ (V/m) @ t=0.82
0.6987019388975861
% es.tEX (V/m) @ t=0.82
0.687668684019684
% es.tEY (V/m) @ t=0.82
0
% es.tEZ (V/m) @ t=0.82
0.6987019388975781
% es.Ex (V/m) @ t=0.82
0.6876686840197017
% es.Ey (V/m) @ t=0.82
0.19530634174692096
% es.Ez (V/m) @ t=0.82
0.6987019388975861
% es.tEx (V/m) @ t=0.82
0.687668684019684
% es.tEy (V/m) @ t=0.82
0
% es.tEz (V/m) @ t=0.82
0.6987019388975781
% V (V) @ t=0.82
0.009496847812194363
% es.normE (V/m) @ t=0.84
1.0224932081384988
% es.EX (V/m) @ t=0.84
0.6942860734545526
% es.EY (V/m) @ t=0.84
0.19718619121940684
% es.EZ (V/m) @ t=0.84
0.7054258454491675
% es.tEX (V/m) @ t=0.84
0.6942860734545775
% es.tEY (V/m) @ t=0.84
0
% es.tEZ (V/m) @ t=0.84
0.705425845449156
% es.Ex (V/m) @ t=0.84
0.6942860734545526
% es.Ey (V/m) @ t=0.84
0.19718619121940684
% es.Ez (V/m) @ t=0.84
0.7054258454491675
% es.tEx (V/m) @ t=0.84
0.6942860734545775
% es.tEy (V/m) @ t=0.84
0
% es.tEz (V/m) @ t=0.84
0.705425845449156
% V (V) @ t=0.84
0.00958820165031763
% es.normE (V/m) @ t=0.86
1.0322392229929838
% es.EX (V/m) @ t=0.86
0.7009034628894675
% es.EY (V/m) @ t=0.86
0.1990660406918643
% es.EZ (V/m) @ t=0.86
0.7121497520007418
% es.tEX (V/m) @ t=0.86
0.7009034628894426
% es.tEY (V/m) @ t=0.86
0
% es.tEZ (V/m) @ t=0.86
0.7121497520007267
% es.Ex (V/m) @ t=0.86
0.7009034628894675
% es.Ey (V/m) @ t=0.86
0.1990660406918643
% es.Ez (V/m) @ t=0.86
0.7121497520007418
% es.tEx (V/m) @ t=0.86
0.7009034628894426
% es.tEy (V/m) @ t=0.86
0
% es.tEz (V/m) @ t=0.86
0.7121497520007267
% V (V) @ t=0.86
0.009679555488440898
% es.normE (V/m) @ t=0.88
1.0419852378479133
% es.EX (V/m) @ t=0.88
0.7075208523243646
% es.EY (V/m) @ t=0.88
0.20094589016431286
% es.EZ (V/m) @ t=0.88
0.7188736585523401
% es.tEX (V/m) @ t=0.88
0.7075208523243788
% es.tEY (V/m) @ t=0.88
0
% es.tEZ (V/m) @ t=0.88
0.7188736585523188
% es.Ex (V/m) @ t=0.88
0.7075208523243646
% es.Ey (V/m) @ t=0.88
0.20094589016431286
% es.Ez (V/m) @ t=0.88
0.7188736585523401
% es.tEx (V/m) @ t=0.88
0.7075208523243788
% es.tEy (V/m) @ t=0.88
0
% es.tEz (V/m) @ t=0.88
0.7188736585523188
% V (V) @ t=0.88
0.009770909326564166
% es.normE (V/m) @ t=0.9
1.05173125270326
% es.EX (V/m) @ t=0.9
0.7141382417592546
% es.EY (V/m) @ t=0.9
0.20282573963675254
% es.EZ (V/m) @ t=0.9
0.7255975651039357
% es.tEX (V/m) @ t=0.9
0.7141382417592439
% es.tEY (V/m) @ t=0.9
0
% es.tEZ (V/m) @ t=0.9
0.725597565103925
% es.Ex (V/m) @ t=0.9
0.7141382417592546
% es.Ey (V/m) @ t=0.9
0.20282573963675254
% es.Ez (V/m) @ t=0.9
0.7255975651039357
% es.tEx (V/m) @ t=0.9
0.7141382417592439
% es.tEy (V/m) @ t=0.9
0
% es.tEz (V/m) @ t=0.9
0.725597565103925
% V (V) @ t=0.9
0.009862263164687435
% es.normE (V/m) @ t=0.92
1.0614772675590272
% es.EX (V/m) @ t=0.92
0.7207556311941552
% es.EY (V/m) @ t=0.92
0.2047055891092331
% es.EZ (V/m) @ t=0.92
0.7323214716555109
% es.tEX (V/m) @ t=0.92
0.7207556311941801
% es.tEY (V/m) @ t=0.92
0
% es.tEZ (V/m) @ t=0.92
0.7323214716555029
% es.Ex (V/m) @ t=0.92
0.7207556311941552
% es.Ey (V/m) @ t=0.92
0.2047055891092331
% es.Ez (V/m) @ t=0.92
0.7323214716555109
% es.tEx (V/m) @ t=0.92
0.7207556311941801
% es.tEy (V/m) @ t=0.92
0
% es.tEz (V/m) @ t=0.92
0.7323214716555029
% V (V) @ t=0.92
0.009953617002810704
% es.normE (V/m) @ t=0.94
1.0712232824152097
% es.EX (V/m) @ t=0.94
0.7273730206290843
% es.EY (V/m) @ t=0.94
0.2065854385816266
% es.EZ (V/m) @ t=0.94
0.7390453782071029
% es.tEX (V/m) @ t=0.94
0.7273730206290736
% es.tEY (V/m) @ t=0.94
0
% es.tEZ (V/m) @ t=0.94
0.7390453782070949
% es.Ex (V/m) @ t=0.94
0.7273730206290843
% es.Ey (V/m) @ t=0.94
0.2065854385816266
% es.Ez (V/m) @ t=0.94
0.7390453782071029
% es.tEx (V/m) @ t=0.94
0.7273730206290736
% es.tEy (V/m) @ t=0.94
0
% es.tEz (V/m) @ t=0.94
0.7390453782070949
% V (V) @ t=0.94
0.010044970840933974
% es.normE (V/m) @ t=0.96
1.0809692972717757
% es.EX (V/m) @ t=0.96
0.7339904100639743
% es.EY (V/m) @ t=0.96
0.20846528805408937
% es.EZ (V/m) @ t=0.96
0.7457692847586941
% es.tEX (V/m) @ t=0.96
0.7339904100639387
% es.tEY (V/m) @ t=0.96
0
% es.tEZ (V/m) @ t=0.96
0.7457692847586728
% es.Ex (V/m) @ t=0.96
0.7339904100639743
% es.Ey (V/m) @ t=0.96
0.20846528805408937
% es.Ez (V/m) @ t=0.96
0.7457692847586941
% es.tEx (V/m) @ t=0.96
0.7339904100639387
% es.tEy (V/m) @ t=0.96
0
% es.tEz (V/m) @ t=0.96
0.7457692847586728
% V (V) @ t=0.96
0.01013632467905724
% es.normE (V/m) @ t=0.98
1.0907153121287099
% es.EX (V/m) @ t=0.98
0.7406077994988607
% es.EY (V/m) @ t=0.98
0.2103451375265486
% es.EZ (V/m) @ t=0.98
0.7524931913102675
% es.tEX (V/m) @ t=0.98
0.7406077994988323
% es.tEY (V/m) @ t=0.98
0
% es.tEZ (V/m) @ t=0.98
0.7524931913102435
% es.Ex (V/m) @ t=0.98
0.7406077994988607
% es.Ey (V/m) @ t=0.98
0.2103451375265486
% es.Ez (V/m) @ t=0.98
0.7524931913102675
% es.tEx (V/m) @ t=0.98
0.7406077994988323
% es.tEy (V/m) @ t=0.98
0
% es.tEz (V/m) @ t=0.98
0.7524931913102435
% V (V) @ t=0.98
0.010227678517180507
% es.normE (V/m) @ t=1
1.1004613269860386
% es.EX (V/m) @ t=1
0.7472251889337613
% es.EY (V/m) @ t=1
0.21222498699898118
% es.EZ (V/m) @ t=1
0.7592170978618595
% es.tEX (V/m) @ t=1
0.7472251889337258
% es.tEY (V/m) @ t=1
0
% es.tEZ (V/m) @ t=1
0.7592170978618427
% es.Ex (V/m) @ t=1
0.7472251889337613
% es.Ey (V/m) @ t=1
0.21222498699898118
% es.Ez (V/m) @ t=1
0.7592170978618595
% es.tEx (V/m) @ t=1
0.7472251889337258
% es.tEy (V/m) @ t=1
0
% es.tEz (V/m) @ t=1
0.7592170978618427
% V (V) @ t=1
0.010319032355303778
% es.normE (V/m) @ t=1.02
1.1102073418436882
% es.EX (V/m) @ t=1.02
0.7538425783686158
% es.EY (V/m) @ t=1.02
0.21410483647144218
% es.EZ (V/m) @ t=1.02
0.7659410044134392
% es.tEX (V/m) @ t=1.02
0.7538425783686336
% es.tEY (V/m) @ t=1.02
0
% es.tEZ (V/m) @ t=1.02
0.7659410044134276
% es.Ex (V/m) @ t=1.02
0.7538425783686158
% es.Ey (V/m) @ t=1.02
0.21410483647144218
% es.Ez (V/m) @ t=1.02
0.7659410044134392
% es.tEx (V/m) @ t=1.02
0.7538425783686336
% es.tEy (V/m) @ t=1.02
0
% es.tEz (V/m) @ t=1.02
0.7659410044134276
% V (V) @ t=1.02
0.010410386193427046
% es.normE (V/m) @ t=1.04
1.1199533567017341
% es.EX (V/m) @ t=1.04
0.7604599678035164
% es.EY (V/m) @ t=1.04
0.21598468594389253
% es.EZ (V/m) @ t=1.04
0.7726649109650285
% es.tEX (V/m) @ t=1.04
0.7604599678034987
% es.tEY (V/m) @ t=1.04
0
% es.tEZ (V/m) @ t=1.04
0.7726649109650197
% es.Ex (V/m) @ t=1.04
0.7604599678035164
% es.Ey (V/m) @ t=1.04
0.21598468594389253
% es.Ez (V/m) @ t=1.04