% Model:              1 neuron.mph
% Version:            COMSOL 6.0.0.405
% Date:               Mar 16 2023, 17:12
% Dimension:          0
% Nodes:              14017
% Expressions:        14017
% Description:        Electric field norm, Electric field, X component, Electric field, Y component, Electric field, Z component, Tangential electric field, X component, Tangential electric field, Y component, Tangential electric field, Z component, Electric field, x component, Electric field, y component, Electric field, z component, Tangential electric field, x component, Tangential electric field, y component, Tangential electric field, z component, Electric potential
% Length unit:        mm
% x
1.66
% y
12.200000000000001
% z
1.66
% es.normE (V/m) @ t=0
20.62160934011586
% es.EX (V/m) @ t=0
-9.738712355598821
% es.EY (V/m) @ t=0
7.813460769659461
% es.EZ (V/m) @ t=0
9.366421862351324
% es.tEX (V/m) @ t=0
-9.738712355598821
% es.tEY (V/m) @ t=0
0
% es.tEZ (V/m) @ t=0
9.36642186235133
% es.Ex (V/m) @ t=0
-9.738712355598821
% es.Ey (V/m) @ t=0
7.813460769659461
% es.Ez (V/m) @ t=0
9.366421862351324
% es.tEx (V/m) @ t=0
-9.738712355598821
% es.tEy (V/m) @ t=0
0
% es.tEz (V/m) @ t=0
9.36642186235133
% V (V) @ t=0
0.006472003123400058
% es.normE (V/m) @ t=0.02
17.811271917051464
% es.EX (V/m) @ t=0.02
-8.411509065287078
% es.EY (V/m) @ t=0.02
6.748633052721701
% es.EZ (V/m) @ t=0.02
8.08995476042745
% es.tEX (V/m) @ t=0.02
-8.411509065287081
% es.tEY (V/m) @ t=0.02
0
% es.tEZ (V/m) @ t=0.02
8.089954760427446
% es.Ex (V/m) @ t=0.02
-8.411509065287078
% es.Ey (V/m) @ t=0.02
6.748633052721701
% es.Ez (V/m) @ t=0.02
8.08995476042745
% es.tEx (V/m) @ t=0.02
-8.411509065287081
% es.tEy (V/m) @ t=0.02
0
% es.tEz (V/m) @ t=0.02
8.089954760427446
% V (V) @ t=0.02
0.005589990847844989
% es.normE (V/m) @ t=0.04
17.975094118688258
% es.EX (V/m) @ t=0.04
-8.48887534968253
% es.EY (V/m) @ t=0.04
6.8107047523766155
% es.EZ (V/m) @ t=0.04
8.164363495308702
% es.tEX (V/m) @ t=0.04
-8.48887534968253
% es.tEY (V/m) @ t=0.04
0
% es.tEZ (V/m) @ t=0.04
8.16436349530872
% es.Ex (V/m) @ t=0.04
-8.48887534968253
% es.Ey (V/m) @ t=0.04
6.8107047523766155
% es.Ez (V/m) @ t=0.04
8.164363495308702
% es.tEx (V/m) @ t=0.04
-8.48887534968253
% es.tEy (V/m) @ t=0.04
0
% es.tEz (V/m) @ t=0.04
8.16436349530872
% V (V) @ t=0.04
0.005641405739053983
% es.normE (V/m) @ t=0.06
18.14040189460583
% es.EX (V/m) @ t=0.06
-8.566943206518594
% es.EY (V/m) @ t=0.06
6.873339330433332
% es.EZ (V/m) @ t=0.06
8.239446986681525
% es.tEX (V/m) @ t=0.06
-8.566943206518573
% es.tEY (V/m) @ t=0.06
0
% es.tEZ (V/m) @ t=0.06
8.239446986681514
% es.Ex (V/m) @ t=0.06
-8.566943206518594
% es.Ey (V/m) @ t=0.06
6.873339330433332
% es.Ez (V/m) @ t=0.06
8.239446986681525
% es.tEx (V/m) @ t=0.06
-8.566943206518573
% es.tEy (V/m) @ t=0.06
0
% es.tEz (V/m) @ t=0.06
8.239446986681514
% V (V) @ t=0.06
0.005693286871324005
% es.normE (V/m) @ t=0.08
18.30821272954968
% es.EX (V/m) @ t=0.08
-8.64619315949298
% es.EY (V/m) @ t=0.08
6.936922314254804
% es.EZ (V/m) @ t=0.08
8.315667364759825
% es.tEX (V/m) @ t=0.08
-8.646193159492988
% es.tEY (V/m) @ t=0.08
0
% es.tEZ (V/m) @ t=0.08
8.315667364759804
% es.Ex (V/m) @ t=0.08
-8.64619315949298
% es.Ey (V/m) @ t=0.08
6.936922314254804
% es.Ez (V/m) @ t=0.08
8.315667364759825
% es.tEx (V/m) @ t=0.08
-8.646193159492988
% es.tEy (V/m) @ t=0.08
0
% es.tEz (V/m) @ t=0.08
8.315667364759804
% V (V) @ t=0.08
0.0057459535779517045
% es.normE (V/m) @ t=0.1
18.477805391434448
% es.EX (V/m) @ t=0.1
-8.726284599113924
% es.EY (V/m) @ t=0.1
7.001180429954847
% es.EZ (V/m) @ t=0.1
8.392697046709642
% es.tEX (V/m) @ t=0.1
-8.726284599113917
% es.tEY (V/m) @ t=0.1
0
% es.tEZ (V/m) @ t=0.1
8.392697046709657
% es.Ex (V/m) @ t=0.1
-8.726284599113924
% es.Ey (V/m) @ t=0.1
7.001180429954847
% es.Ez (V/m) @ t=0.1
8.392697046709642
% es.tEx (V/m) @ t=0.1
-8.726284599113917
% es.tEy (V/m) @ t=0.1
0
% es.tEz (V/m) @ t=0.1
8.392697046709657
% V (V) @ t=0.1
0.005799179503335287
% es.normE (V/m) @ t=0.12
18.647398053319264
% es.EX (V/m) @ t=0.12
-8.806376038734882
% es.EY (V/m) @ t=0.12
7.065438545654892
% es.EZ (V/m) @ t=0.12
8.469726728659545
% es.tEX (V/m) @ t=0.12
-8.806376038734864
% es.tEY (V/m) @ t=0.12
0
% es.tEZ (V/m) @ t=0.12
8.46972672865951
% es.Ex (V/m) @ t=0.12
-8.806376038734882
% es.Ey (V/m) @ t=0.12
7.065438545654892
% es.Ez (V/m) @ t=0.12
8.469726728659545
% es.tEx (V/m) @ t=0.12
-8.806376038734864
% es.tEy (V/m) @ t=0.12
0
% es.tEz (V/m) @ t=0.12
8.46972672865951
% V (V) @ t=0.12
0.005852405428718869
% es.normE (V/m) @ t=0.14
18.818607111029177
% es.EX (V/m) @ t=0.14
-8.887230830767159
% es.EY (V/m) @ t=0.14
7.130309106620761
% es.EZ (V/m) @ t=0.14
8.547490589507174
% es.tEX (V/m) @ t=0.14
-8.887230830767148
% es.tEY (V/m) @ t=0.14
0
% es.tEZ (V/m) @ t=0.14
8.547490589507134
% es.Ex (V/m) @ t=0.14
-8.887230830767159
% es.Ey (V/m) @ t=0.14
7.130309106620761
% es.Ez (V/m) @ t=0.14
8.547490589507174
% es.tEx (V/m) @ t=0.14
-8.887230830767148
% es.tEy (V/m) @ t=0.14
0
% es.tEz (V/m) @ t=0.14
8.547490589507134
% V (V) @ t=0.14
0.005906138652925504
% es.normE (V/m) @ t=0.16
18.99726546434679
% es.EX (V/m) @ t=0.16
-8.971603596352963
% es.EY (V/m) @ t=0.16
7.19800217291467
% es.EZ (V/m) @ t=0.16
8.628637975326637
% es.tEX (V/m) @ t=0.16
-8.97160359635297
% es.tEY (V/m) @ t=0.16
0
% es.tEZ (V/m) @ t=0.16
8.628637975326626
% es.Ex (V/m) @ t=0.16
-8.971603596352963
% es.Ey (V/m) @ t=0.16
7.19800217291467
% es.Ez (V/m) @ t=0.16
8.628637975326637
% es.tEx (V/m) @ t=0.16
-8.97160359635297
% es.tEy (V/m) @ t=0.16
0
% es.tEz (V/m) @ t=0.16
8.628637975326626
% V (V) @ t=0.16
0.0059622098062677605
% es.normE (V/m) @ t=0.18
19.175923817664405
% es.EX (V/m) @ t=0.18
-9.055976361938761
% es.EY (V/m) @ t=0.18
7.265695239208579
% es.EZ (V/m) @ t=0.18
8.709785361146118
% es.tEX (V/m) @ t=0.18
-9.055976361938761
% es.tEY (V/m) @ t=0.18
0
% es.tEZ (V/m) @ t=0.18
8.70978536114606
% es.Ex (V/m) @ t=0.18
-9.055976361938761
% es.Ey (V/m) @ t=0.18
7.265695239208579
% es.Ez (V/m) @ t=0.18
8.709785361146118
% es.tEx (V/m) @ t=0.18
-9.055976361938761
% es.tEy (V/m) @ t=0.18
0
% es.tEz (V/m) @ t=0.18
8.70978536114606
% V (V) @ t=0.18
0.006018280959610015
% es.normE (V/m) @ t=0.2
19.354582170982074
% es.EX (V/m) @ t=0.2
-9.140349127524615
% es.EY (V/m) @ t=0.2
7.33338830550252
% es.EZ (V/m) @ t=0.2
8.790932746965616
% es.tEX (V/m) @ t=0.2
-9.140349127524615
% es.tEY (V/m) @ t=0.2
0
% es.tEZ (V/m) @ t=0.2
8.790932746965638
% es.Ex (V/m) @ t=0.2
-9.140349127524615
% es.Ey (V/m) @ t=0.2
7.33338830550252
% es.Ez (V/m) @ t=0.2
8.790932746965616
% es.tEx (V/m) @ t=0.2
-9.140349127524615
% es.tEy (V/m) @ t=0.2
0
% es.tEz (V/m) @ t=0.2
8.790932746965638
% V (V) @ t=0.2
0.006074352112952271
% es.normE (V/m) @ t=0.22
19.533240524299682
% es.EX (V/m) @ t=0.22
-9.224721893110413
% es.EY (V/m) @ t=0.22
7.401081371796451
% es.EZ (V/m) @ t=0.22
8.872080132785044
% es.tEX (V/m) @ t=0.22
-9.22472189311041
% es.tEY (V/m) @ t=0.22
0
% es.tEZ (V/m) @ t=0.22
8.872080132785044
% es.Ex (V/m) @ t=0.22
-9.224721893110413
% es.Ey (V/m) @ t=0.22
7.401081371796451
% es.Ez (V/m) @ t=0.22
8.872080132785044
% es.tEx (V/m) @ t=0.22
-9.22472189311041
% es.tEy (V/m) @ t=0.22
0
% es.tEz (V/m) @ t=0.22
8.872080132785044
% V (V) @ t=0.22
0.006130423266294526
% es.normE (V/m) @ t=0.24
19.711898877617326
% es.EX (V/m) @ t=0.24
-9.309094658696225
% es.EY (V/m) @ t=0.24
7.468774438090357
% es.EZ (V/m) @ t=0.24
8.953227518604546
% es.tEX (V/m) @ t=0.24
-9.309094658696246
% es.tEY (V/m) @ t=0.24
0
% es.tEZ (V/m) @ t=0.24
8.953227518604535
% es.Ex (V/m) @ t=0.24
-9.309094658696225
% es.Ey (V/m) @ t=0.24
7.468774438090357
% es.Ez (V/m) @ t=0.24
8.953227518604546
% es.tEx (V/m) @ t=0.24
-9.309094658696246
% es.tEy (V/m) @ t=0.24
0
% es.tEz (V/m) @ t=0.24
8.953227518604535
% V (V) @ t=0.24
0.00618649441963678
% es.normE (V/m) @ t=0.26
19.890557230934924
% es.EX (V/m) @ t=0.26
-9.39346742428205
% es.EY (V/m) @ t=0.26
7.53646750438423
% es.EZ (V/m) @ t=0.26
9.034374904424016
% es.tEX (V/m) @ t=0.26
-9.393467424282044
% es.tEY (V/m) @ t=0.26
0
% es.tEZ (V/m) @ t=0.26
9.034374904424027
% es.Ex (V/m) @ t=0.26
-9.39346742428205
% es.Ey (V/m) @ t=0.26
7.53646750438423
% es.Ez (V/m) @ t=0.26
9.034374904424016
% es.tEx (V/m) @ t=0.26
-9.393467424282044
% es.tEy (V/m) @ t=0.26
0
% es.tEz (V/m) @ t=0.26
9.034374904424027
% V (V) @ t=0.26
0.006242565572979035
% es.normE (V/m) @ t=0.28
20.076692692105357
% es.EX (V/m) @ t=0.28
-9.481371274729142
% es.EY (V/m) @ t=0.28
7.606993598115398
% es.EZ (V/m) @ t=0.28
9.11891848901087
% es.tEX (V/m) @ t=0.28
-9.481371274729128
% es.tEY (V/m) @ t=0.28
0
% es.tEZ (V/m) @ t=0.28
9.118918489010866
% es.Ex (V/m) @ t=0.28
-9.481371274729142
% es.Ey (V/m) @ t=0.28
7.606993598115398
% es.Ez (V/m) @ t=0.28
9.11891848901087
% es.tEx (V/m) @ t=0.28
-9.481371274729128
% es.tEy (V/m) @ t=0.28
0
% es.tEz (V/m) @ t=0.28
9.118918489010866
% V (V) @ t=0.28
0.006300983384623663
% es.normE (V/m) @ t=0.3
20.275748292107163
% es.EX (V/m) @ t=0.3
-9.575376696469654
% es.EY (V/m) @ t=0.3
7.682415048249389
% es.EZ (V/m) @ t=0.3
9.209330567196805
% es.tEX (V/m) @ t=0.3
-9.575376696469668
% es.tEY (V/m) @ t=0.3
0
% es.tEZ (V/m) @ t=0.3
9.209330567196844
% es.Ex (V/m) @ t=0.3
-9.575376696469654
% es.Ey (V/m) @ t=0.3
7.682415048249389
% es.Ez (V/m) @ t=0.3
9.209330567196805
% es.tEx (V/m) @ t=0.3
-9.575376696469668
% es.tEy (V/m) @ t=0.3
0
% es.tEz (V/m) @ t=0.3
9.209330567196844
% V (V) @ t=0.3
0.0063634561265506285
% es.normE (V/m) @ t=0.32
20.474803892108945
% es.EX (V/m) @ t=0.32
-9.669382118210208
% es.EY (V/m) @ t=0.32
7.757836498383398
% es.EZ (V/m) @ t=0.32
9.299742645382722
% es.tEX (V/m) @ t=0.32
-9.669382118210194
% es.tEY (V/m) @ t=0.32
0
% es.tEZ (V/m) @ t=0.32
9.299742645382679
% es.Ex (V/m) @ t=0.32
-9.669382118210208
% es.Ey (V/m) @ t=0.32
7.757836498383398
% es.Ez (V/m) @ t=0.32
9.299742645382722
% es.tEx (V/m) @ t=0.32
-9.669382118210194
% es.tEy (V/m) @ t=0.32
0
% es.tEz (V/m) @ t=0.32
9.299742645382679
% V (V) @ t=0.32
0.006425928868477592
% es.normE (V/m) @ t=0.34
20.67385949211074
% es.EX (V/m) @ t=0.34
-9.763387539950749
% es.EY (V/m) @ t=0.34
7.833257948517392
% es.EZ (V/m) @ t=0.34
9.390154723568614
% es.tEX (V/m) @ t=0.34
-9.763387539950735
% es.tEY (V/m) @ t=0.34
0
% es.tEZ (V/m) @ t=0.34
9.390154723568628
% es.Ex (V/m) @ t=0.34
-9.763387539950749
% es.Ey (V/m) @ t=0.34
7.833257948517392
% es.Ez (V/m) @ t=0.34
9.390154723568614
% es.tEx (V/m) @ t=0.34
-9.763387539950735
% es.tEy (V/m) @ t=0.34
0
% es.tEz (V/m) @ t=0.34
9.390154723568628
% V (V) @ t=0.34
0.006488401610404558
% es.normE (V/m) @ t=0.36
20.8729150921125
% es.EX (V/m) @ t=0.36
-9.857392961691268
% es.EY (V/m) @ t=0.36
7.908679398651426
% es.EZ (V/m) @ t=0.36
9.480566801754506
% es.tEX (V/m) @ t=0.36
-9.857392961691268
% es.tEY (V/m) @ t=0.36
0
% es.tEZ (V/m) @ t=0.36
9.480566801754492
% es.Ex (V/m) @ t=0.36
-9.857392961691268
% es.Ey (V/m) @ t=0.36
7.908679398651426
% es.Ez (V/m) @ t=0.36
9.480566801754506
% es.tEx (V/m) @ t=0.36
-9.857392961691268
% es.tEy (V/m) @ t=0.36
0
% es.tEz (V/m) @ t=0.36
9.480566801754492
% V (V) @ t=0.36
0.006550874352331523
% es.normE (V/m) @ t=0.38
21.071970692114313
% es.EX (V/m) @ t=0.38
-9.951398383431801
% es.EY (V/m) @ t=0.38
7.984100848785452
% es.EZ (V/m) @ t=0.38
9.570978879940409
% es.tEX (V/m) @ t=0.38
-9.95139838343179
% es.tEY (V/m) @ t=0.38
0
% es.tEZ (V/m) @ t=0.38
9.570978879940412
% es.Ex (V/m) @ t=0.38
-9.951398383431801
% es.Ey (V/m) @ t=0.38
7.984100848785452
% es.Ez (V/m) @ t=0.38
9.570978879940409
% es.tEx (V/m) @ t=0.38
-9.95139838343179
% es.tEy (V/m) @ t=0.38
0
% es.tEz (V/m) @ t=0.38
9.570978879940412
% V (V) @ t=0.38
0.0066133470942584885
% es.normE (V/m) @ t=0.4
21.271026292116098
% es.EX (V/m) @ t=0.4
-10.045403805172342
% es.EY (V/m) @ t=0.4
8.059522298919411
% es.EZ (V/m) @ t=0.4
9.661390958126333
% es.tEX (V/m) @ t=0.4
-10.045403805172327
% es.tEY (V/m) @ t=0.4
0
% es.tEZ (V/m) @ t=0.4
9.661390958126333
% es.Ex (V/m) @ t=0.4
-10.045403805172342
% es.Ey (V/m) @ t=0.4
8.059522298919411
% es.Ez (V/m) @ t=0.4
9.661390958126333
% es.tEx (V/m) @ t=0.4
-10.045403805172327
% es.tEy (V/m) @ t=0.4
0
% es.tEz (V/m) @ t=0.4
9.661390958126333
% V (V) @ t=0.4
0.006675819836185453
% es.normE (V/m) @ t=0.42
21.470081892117914
% es.EX (V/m) @ t=0.42
-10.13940922691286
% es.EY (V/m) @ t=0.42
8.134943749053438
% es.EZ (V/m) @ t=0.42
9.75180303631224
% es.tEX (V/m) @ t=0.42
-10.139409226912889
% es.tEY (V/m) @ t=0.42
0
% es.tEZ (V/m) @ t=0.42
9.751803036312253
% es.Ex (V/m) @ t=0.42
-10.13940922691286
% es.Ey (V/m) @ t=0.42
8.134943749053438
% es.Ez (V/m) @ t=0.42
9.75180303631224
% es.tEx (V/m) @ t=0.42
-10.139409226912889
% es.tEy (V/m) @ t=0.42
0
% es.tEz (V/m) @ t=0.42
9.751803036312253
% V (V) @ t=0.42
0.006738292578112417
% es.normE (V/m) @ t=0.44
21.6691374921197
% es.EX (V/m) @ t=0.44
-10.233414648653387
% es.EY (V/m) @ t=0.44
8.2103651991874
% es.EZ (V/m) @ t=0.44
9.842215114498156
% es.tEX (V/m) @ t=0.44
-10.233414648653408
% es.tEY (V/m) @ t=0.44
0
% es.tEZ (V/m) @ t=0.44
9.842215114498146
% es.Ex (V/m) @ t=0.44
-10.233414648653387
% es.Ey (V/m) @ t=0.44
8.2103651991874
% es.Ez (V/m) @ t=0.44
9.842215114498156
% es.tEx (V/m) @ t=0.44
-10.233414648653408
% es.tEy (V/m) @ t=0.44
0
% es.tEz (V/m) @ t=0.44
9.842215114498146
% V (V) @ t=0.44
0.006800765320039383
% es.normE (V/m) @ t=0.46
21.868193092121462
% es.EX (V/m) @ t=0.46
-10.32742007039392
% es.EY (V/m) @ t=0.46
8.285786649321441
% es.EZ (V/m) @ t=0.46
9.932627192684023
% es.tEX (V/m) @ t=0.46
-10.327420070393917
% es.tEY (V/m) @ t=0.46
0
% es.tEZ (V/m) @ t=0.46
9.932627192684066
% es.Ex (V/m) @ t=0.46
-10.32742007039392
% es.Ey (V/m) @ t=0.46
8.285786649321441
% es.Ez (V/m) @ t=0.46
9.932627192684023
% es.tEx (V/m) @ t=0.46
-10.327420070393917
% es.tEy (V/m) @ t=0.46
0
% es.tEz (V/m) @ t=0.46
9.932627192684066
% V (V) @ t=0.46
0.006863238061966348
% es.normE (V/m) @ t=0.48
22.067248692123258
% es.EX (V/m) @ t=0.48
-10.42142549213446
% es.EY (V/m) @ t=0.48
8.361208099455443
% es.EZ (V/m) @ t=0.48
10.02303927086994
% es.tEX (V/m) @ t=0.48
-10.42142549213445
% es.tEY (V/m) @ t=0.48
0
% es.tEZ (V/m) @ t=0.48
10.023039270869901
% es.Ex (V/m) @ t=0.48
-10.42142549213446
% es.Ey (V/m) @ t=0.48
8.361208099455443
% es.Ez (V/m) @ t=0.48
10.02303927086994
% es.tEx (V/m) @ t=0.48
-10.42142549213445
% es.tEy (V/m) @ t=0.48
0
% es.tEz (V/m) @ t=0.48
10.023039270869901
% V (V) @ t=0.48
0.006925710803893312
% es.normE (V/m) @ t=0.5
22.266304292125135
% es.EX (V/m) @ t=0.5
-10.515430913875008
% es.EY (V/m) @ t=0.5
8.43662954958944
% es.EZ (V/m) @ t=0.5
10.11345134905589
% es.tEX (V/m) @ t=0.5
-10.515430913875036
% es.tEY (V/m) @ t=0.5
0
% es.tEZ (V/m) @ t=0.5
10.11345134905585
% es.Ex (V/m) @ t=0.5
-10.515430913875008
% es.Ey (V/m) @ t=0.5
8.43662954958944
% es.Ez (V/m) @ t=0.5
10.11345134905589
% es.tEx (V/m) @ t=0.5
-10.515430913875036
% es.tEy (V/m) @ t=0.5
0
% es.tEz (V/m) @ t=0.5
10.11345134905585
% V (V) @ t=0.5
0.006988183545820278
% es.normE (V/m) @ t=0.52
22.465359892126894
% es.EX (V/m) @ t=0.52
-10.609436335615513
% es.EY (V/m) @ t=0.52
8.512050999723446
% es.EZ (V/m) @ t=0.52
10.203863427241767
% es.tEX (V/m) @ t=0.52
-10.609436335615506
% es.tEY (V/m) @ t=0.52
0
% es.tEZ (V/m) @ t=0.52
10.203863427241771
% es.Ex (V/m) @ t=0.52
-10.609436335615513
% es.Ey (V/m) @ t=0.52
8.512050999723446
% es.Ez (V/m) @ t=0.52
10.203863427241767
% es.tEx (V/m) @ t=0.52
-10.609436335615506
% es.tEy (V/m) @ t=0.52
0
% es.tEz (V/m) @ t=0.52
10.203863427241771
% V (V) @ t=0.52
0.007050656287747243
% es.normE (V/m) @ t=0.54
22.664415492128697
% es.EX (V/m) @ t=0.54
-10.703441757356075
% es.EY (V/m) @ t=0.54
8.587472449857433
% es.EZ (V/m) @ t=0.54
10.294275505427656
% es.tEX (V/m) @ t=0.54
-10.703441757356067
% es.tEY (V/m) @ t=0.54
0
% es.tEZ (V/m) @ t=0.54
10.294275505427663
% es.Ex (V/m) @ t=0.54
-10.703441757356075
% es.Ey (V/m) @ t=0.54
8.587472449857433
% es.Ez (V/m) @ t=0.54
10.294275505427656
% es.tEx (V/m) @ t=0.54
-10.703441757356067
% es.tEy (V/m) @ t=0.54
0
% es.tEz (V/m) @ t=0.54
10.294275505427663
% V (V) @ t=0.54
0.0071131290296742086
% es.normE (V/m) @ t=0.56
22.88065564806287
% es.EX (V/m) @ t=0.56
-10.805562777402159
% es.EY (V/m) @ t=0.56
8.669405112981469
% es.EZ (V/m) @ t=0.56
10.392492773195336
% es.tEX (V/m) @ t=0.56
-10.805562777402187
% es.tEY (V/m) @ t=0.56
0
% es.tEZ (V/m) @ t=0.56
10.392492773195329
% es.Ex (V/m) @ t=0.56
-10.805562777402159
% es.Ey (V/m) @ t=0.56
8.669405112981469
% es.Ez (V/m) @ t=0.56
10.392492773195336
% es.tEx (V/m) @ t=0.56
-10.805562777402187
% es.tEy (V/m) @ t=0.56
0
% es.tEz (V/m) @ t=0.56
10.392492773195329
% V (V) @ t=0.56
0.007180995069989127
% es.normE (V/m) @ t=0.58
23.102835908289777
% es.EX (V/m) @ t=0.58
-10.910489077987528
% es.EY (V/m) @ t=0.58
8.753588476349638
% es.EZ (V/m) @ t=0.58
10.49340802398467
% es.tEX (V/m) @ t=0.58
-10.910489077987549
% es.tEY (V/m) @ t=0.58
0
% es.tEZ (V/m) @ t=0.58
10.49340802398467
% es.Ex (V/m) @ t=0.58
-10.910489077987528
% es.Ey (V/m) @ t=0.58
8.753588476349638
% es.Ez (V/m) @ t=0.58
10.49340802398467
% es.tEx (V/m) @ t=0.58
-10.910489077987549
% es.tEy (V/m) @ t=0.58
0
% es.tEz (V/m) @ t=0.58
10.49340802398467
% V (V) @ t=0.58
0.007250725386287177
% es.normE (V/m) @ t=0.6
23.325016168516584
% es.EX (V/m) @ t=0.6
-11.015415378572861
% es.EY (V/m) @ t=0.6
8.83777183971781
% es.EZ (V/m) @ t=0.6
10.594323274773963
% es.tEX (V/m) @ t=0.6
-11.015415378572861
% es.tEY (V/m) @ t=0.6
0
% es.tEZ (V/m) @ t=0.6
10.594323274773927
% es.Ex (V/m) @ t=0.6
-11.015415378572861
% es.Ey (V/m) @ t=0.6
8.83777183971781
% es.Ez (V/m) @ t=0.6
10.594323274773963
% es.tEx (V/m) @ t=0.6
-11.015415378572861
% es.tEy (V/m) @ t=0.6
0
% es.tEz (V/m) @ t=0.6
10.594323274773927
% V (V) @ t=0.6
0.007320455702585227
% es.normE (V/m) @ t=0.62
23.547196428743447
% es.EX (V/m) @ t=0.62
-11.120341679158244
% es.EY (V/m) @ t=0.62
8.921955203085968
% es.EZ (V/m) @ t=0.62
10.695238525563251
% es.tEX (V/m) @ t=0.62
-11.120341679158237
% es.tEY (V/m) @ t=0.62
0
% es.tEZ (V/m) @ t=0.62
10.69523852556324
% es.Ex (V/m) @ t=0.62
-11.120341679158244
% es.Ey (V/m) @ t=0.62
8.921955203085968
% es.Ez (V/m) @ t=0.62
10.695238525563251
% es.tEx (V/m) @ t=0.62
-11.120341679158237
% es.tEy (V/m) @ t=0.62
0
% es.tEz (V/m) @ t=0.62
10.69523852556324
% V (V) @ t=0.62
0.007390186018883277
% es.normE (V/m) @ t=0.64
23.76937668897029
% es.EX (V/m) @ t=0.64
-11.225267979743556
% es.EY (V/m) @ t=0.64
9.006138566454116
% es.EZ (V/m) @ t=0.64
10.796153776352543
% es.tEX (V/m) @ t=0.64
-11.225267979743556
% es.tEY (V/m) @ t=0.64
0
% es.tEZ (V/m) @ t=0.64
10.796153776352583
% es.Ex (V/m) @ t=0.64
-11.225267979743556
% es.Ey (V/m) @ t=0.64
9.006138566454116
% es.Ez (V/m) @ t=0.64
10.796153776352543
% es.tEx (V/m) @ t=0.64
-11.225267979743556
% es.tEy (V/m) @ t=0.64
0
% es.tEz (V/m) @ t=0.64
10.796153776352583
% V (V) @ t=0.64
0.007459916335181327
% es.normE (V/m) @ t=0.66
23.991556949197083
% es.EX (V/m) @ t=0.66
-11.330194280328897
% es.EY (V/m) @ t=0.66
9.09032192982227
% es.EZ (V/m) @ t=0.66
10.897069027141775
% es.tEX (V/m) @ t=0.66
-11.33019428032889
% es.tEY (V/m) @ t=0.66
0
% es.tEZ (V/m) @ t=0.66
10.897069027141782
% es.Ex (V/m) @ t=0.66
-11.330194280328897
% es.Ey (V/m) @ t=0.66
9.09032192982227
% es.Ez (V/m) @ t=0.66
10.897069027141775
% es.tEx (V/m) @ t=0.66
-11.33019428032889
% es.tEy (V/m) @ t=0.66
0
% es.tEz (V/m) @ t=0.66
10.897069027141782
% V (V) @ t=0.66
0.007529646651479377
% es.normE (V/m) @ t=0.68
24.213737209423897
% es.EX (V/m) @ t=0.68
-11.435120580914209
% es.EY (V/m) @ t=0.68
9.174505293190371
% es.EZ (V/m) @ t=0.68
10.997984277931067
% es.tEX (V/m) @ t=0.68
-11.435120580914194
% es.tEY (V/m) @ t=0.68
0
% es.tEZ (V/m) @ t=0.68
10.997984277931067
% es.Ex (V/m) @ t=0.68
-11.435120580914209
% es.Ey (V/m) @ t=0.68
9.174505293190371
% es.Ez (V/m) @ t=0.68
10.997984277931067
% es.tEx (V/m) @ t=0.68
-11.435120580914194
% es.tEy (V/m) @ t=0.68
0
% es.tEz (V/m) @ t=0.68
10.997984277931067
% V (V) @ t=0.68
0.007599376967777426
% es.normE (V/m) @ t=0.7
24.43591746965074
% es.EX (V/m) @ t=0.7
-11.540046881499578
% es.EY (V/m) @ t=0.7
9.258688656558572
% es.EZ (V/m) @ t=0.7
11.098899528720374
% es.tEX (V/m) @ t=0.7
-11.540046881499578
% es.tEY (V/m) @ t=0.7
0
% es.tEZ (V/m) @ t=0.7
11.098899528720352
% es.Ex (V/m) @ t=0.7
-11.540046881499578
% es.Ey (V/m) @ t=0.7
9.258688656558572
% es.Ez (V/m) @ t=0.7
11.098899528720374
% es.tEx (V/m) @ t=0.7
-11.540046881499578
% es.tEy (V/m) @ t=0.7
0
% es.tEz (V/m) @ t=0.7
11.098899528720352
% V (V) @ t=0.7
0.007669107284075475
% es.normE (V/m) @ t=0.72
24.658097729877586
% es.EX (V/m) @ t=0.72
-11.64497318208494
% es.EY (V/m) @ t=0.72
9.34287201992668
% es.EZ (V/m) @ t=0.72
11.199814779509651
% es.tEX (V/m) @ t=0.72
-11.644973182084932
% es.tEY (V/m) @ t=0.72
0
% es.tEZ (V/m) @ t=0.72
11.199814779509666
% es.Ex (V/m) @ t=0.72
-11.64497318208494
% es.Ey (V/m) @ t=0.72
9.34287201992668
% es.Ez (V/m) @ t=0.72
11.199814779509651
% es.tEx (V/m) @ t=0.72
-11.644973182084932
% es.tEy (V/m) @ t=0.72
0
% es.tEz (V/m) @ t=0.72
11.199814779509666
% V (V) @ t=0.72
0.007738837600373524
% es.normE (V/m) @ t=0.74
24.880277990104418
% es.EX (V/m) @ t=0.74
-11.749899482670273
% es.EY (V/m) @ t=0.74
9.427055383294821
% es.EZ (V/m) @ t=0.74
11.300730030298972
% es.tEX (V/m) @ t=0.74
-11.749899482670273
% es.tEY (V/m) @ t=0.74
0
% es.tEZ (V/m) @ t=0.74
11.300730030298979
% es.Ex (V/m) @ t=0.74
-11.749899482670273
% es.Ey (V/m) @ t=0.74
9.427055383294821
% es.Ez (V/m) @ t=0.74
11.300730030298972
% es.tEx (V/m) @ t=0.74
-11.749899482670273
% es.tEy (V/m) @ t=0.74
0
% es.tEz (V/m) @ t=0.74
11.300730030298979
% V (V) @ t=0.74
0.007808567916671574
% es.normE (V/m) @ t=0.76
25.102458250331253
% es.EX (V/m) @ t=0.76
-11.854825783255627
% es.EY (V/m) @ t=0.76
9.511238746662972
% es.EZ (V/m) @ t=0.76
11.401645281088232
% es.tEX (V/m) @ t=0.76
-11.854825783255613
% es.tEY (V/m) @ t=0.76
0
% es.tEZ (V/m) @ t=0.76
11.401645281088236
% es.Ex (V/m) @ t=0.76
-11.854825783255627
% es.Ey (V/m) @ t=0.76
9.511238746662972
% es.Ez (V/m) @ t=0.76
11.401645281088232
% es.tEx (V/m) @ t=0.76
-11.854825783255613
% es.tEy (V/m) @ t=0.76
0
% es.tEz (V/m) @ t=0.76
11.401645281088236
% V (V) @ t=0.76
0.007878298232969623
% es.normE (V/m) @ t=0.78
25.324638510558056
% es.EX (V/m) @ t=0.78
-11.95975208384094
% es.EY (V/m) @ t=0.78
9.59542211003113
% es.EZ (V/m) @ t=0.78
11.502560531877524
% es.tEX (V/m) @ t=0.78
-11.95975208384094
% es.tEY (V/m) @ t=0.78
0
% es.tEZ (V/m) @ t=0.78
11.50256053187752
% es.Ex (V/m) @ t=0.78
-11.95975208384094
% es.Ey (V/m) @ t=0.78
9.59542211003113
% es.Ez (V/m) @ t=0.78
11.502560531877524
% es.tEx (V/m) @ t=0.78
-11.95975208384094
% es.tEy (V/m) @ t=0.78
0
% es.tEz (V/m) @ t=0.78
11.50256053187752
% V (V) @ t=0.78
0.007948028549267672
% es.normE (V/m) @ t=0.8
25.54681877078491
% es.EX (V/m) @ t=0.8
-12.064678384426259
% es.EY (V/m) @ t=0.8
9.679605473399295
% es.EZ (V/m) @ t=0.8
11.603475782666802
% es.tEX (V/m) @ t=0.8
-12.064678384426259
% es.tEY (V/m) @ t=0.8
0
% es.tEZ (V/m) @ t=0.8
11.603475782666806
% es.Ex (V/m) @ t=0.8
-12.064678384426259
% es.Ey (V/m) @ t=0.8
9.679605473399295
% es.Ez (V/m) @ t=0.8
11.603475782666802
% es.tEx (V/m) @ t=0.8
-12.064678384426259
% es.tEy (V/m) @ t=0.8
0
% es.tEz (V/m) @ t=0.8
11.603475782666806
% V (V) @ t=0.8
0.008017758865565721
% es.normE (V/m) @ t=0.82
25.772142651791192
% es.EX (V/m) @ t=0.82
-12.171089285166325
% es.EY (V/m) @ t=0.82
9.764979945309467
% es.EZ (V/m) @ t=0.82
11.705818877026577
% es.tEX (V/m) @ t=0.82
-12.171089285166353
% es.tEY (V/m) @ t=0.82
0
% es.tEZ (V/m) @ t=0.82
11.705818877026587
% es.Ex (V/m) @ t=0.82
-12.171089285166325
% es.Ey (V/m) @ t=0.82
9.764979945309467
% es.Ez (V/m) @ t=0.82
11.705818877026577
% es.tEx (V/m) @ t=0.82
-12.171089285166353
% es.tEy (V/m) @ t=0.82
0
% es.tEz (V/m) @ t=0.82
11.705818877026587
% V (V) @ t=0.82
0.008088475793672617
% es.normE (V/m) @ t=0.84
26.020589943501548
% es.EX (V/m) @ t=0.84
-12.288420402279911
% es.EY (V/m) @ t=0.84
9.859115808603317
% es.EZ (V/m) @ t=0.84
11.818664705531841
% es.tEX (V/m) @ t=0.84
-12.288420402279897
% es.tEY (V/m) @ t=0.84
0
% es.tEZ (V/m) @ t=0.84
11.81866470553183
% es.Ex (V/m) @ t=0.84
-12.288420402279911
% es.Ey (V/m) @ t=0.84
9.859115808603317
% es.Ez (V/m) @ t=0.84
11.818664705531841
% es.tEx (V/m) @ t=0.84
-12.288420402279897
% es.tEy (V/m) @ t=0.84
0
% es.tEz (V/m) @ t=0.84
11.81866470553183
% V (V) @ t=0.84
0.008166449904392085
% es.normE (V/m) @ t=0.86
26.269037235211876
% es.EX (V/m) @ t=0.86
-12.405751519393519
% es.EY (V/m) @ t=0.86
9.95325167189715
% es.EZ (V/m) @ t=0.86
11.931510534037074
% es.tEX (V/m) @ t=0.86
-12.405751519393498
% es.tEY (V/m) @ t=0.86
0
% es.tEZ (V/m) @ t=0.86
11.931510534037074
% es.Ex (V/m) @ t=0.86
-12.405751519393519
% es.Ey (V/m) @ t=0.86
9.95325167189715
% es.Ez (V/m) @ t=0.86
11.931510534037074
% es.tEx (V/m) @ t=0.86
-12.405751519393498
% es.tEy (V/m) @ t=0.86
0
% es.tEz (V/m) @ t=0.86
11.931510534037074
% V (V) @ t=0.86
0.008244424015111555
% es.normE (V/m) @ t=0.88
26.517484526922225
% es.EX (V/m) @ t=0.88
-12.523082636507105
% es.EY (V/m) @ t=0.88
10.047387535191
% es.EZ (V/m) @ t=0.88
12.044356362542334
% es.tEX (V/m) @ t=0.88
-12.523082636507112
% es.tEY (V/m) @ t=0.88
0
% es.tEZ (V/m) @ t=0.88
12.044356362542345
% es.Ex (V/m) @ t=0.88
-12.523082636507105
% es.Ey (V/m) @ t=0.88
10.047387535191
% es.Ez (V/m) @ t=0.88
12.044356362542334
% es.tEx (V/m) @ t=0.88
-12.523082636507112
% es.tEy (V/m) @ t=0.88
0
% es.tEz (V/m) @ t=0.88
12.044356362542345
% V (V) @ t=0.88
0.008322398125831024
% es.normE (V/m) @ t=0.9
26.765931818632563
% es.EX (V/m) @ t=0.9
-12.64041375362072
% es.EY (V/m) @ t=0.9
10.14152339848481
% es.EZ (V/m) @ t=0.9
12.157202191047599
% es.tEX (V/m) @ t=0.9
-12.640413753620706
% es.tEY (V/m) @ t=0.9
0
% es.tEZ (V/m) @ t=0.9
12.157202191047588
% es.Ex (V/m) @ t=0.9
-12.64041375362072
% es.Ey (V/m) @ t=0.9
10.14152339848481
% es.Ez (V/m) @ t=0.9
12.157202191047599
% es.tEx (V/m) @ t=0.9
-12.640413753620706
% es.tEy (V/m) @ t=0.9
0
% es.tEz (V/m) @ t=0.9
12.157202191047588
% V (V) @ t=0.9
0.008400372236550492
% es.normE (V/m) @ t=0.92
27.01437911034283
% es.EX (V/m) @ t=0.92
-12.757744870734278
% es.EY (V/m) @ t=0.92
10.235659261778629
% es.EZ (V/m) @ t=0.92
12.270048019552803
% es.tEX (V/m) @ t=0.92
-12.757744870734278
% es.tEY (V/m) @ t=0.92
0
% es.tEZ (V/m) @ t=0.92
12.270048019552831
% es.Ex (V/m) @ t=0.92
-12.757744870734278
% es.Ey (V/m) @ t=0.92
10.235659261778629
% es.Ez (V/m) @ t=0.92
12.270048019552803
% es.tEx (V/m) @ t=0.92
-12.757744870734278
% es.tEy (V/m) @ t=0.92
0
% es.tEz (V/m) @ t=0.92
12.270048019552831
% V (V) @ t=0.92
0.00847834634726996
% es.normE (V/m) @ t=0.94
27.2628264020531
% es.EX (V/m) @ t=0.94
-12.875075987847879
% es.EY (V/m) @ t=0.94
10.329795125072401
% es.EZ (V/m) @ t=0.94
12.382893848058004
% es.tEX (V/m) @ t=0.94
-12.875075987847886
% es.tEY (V/m) @ t=0.94
0
% es.tEZ (V/m) @ t=0.94
12.382893848058018
% es.Ex (V/m) @ t=0.94
-12.875075987847879
% es.Ey (V/m) @ t=0.94
10.329795125072401
% es.Ez (V/m) @ t=0.94
12.382893848058004
% es.tEx (V/m) @ t=0.94
-12.875075987847886
% es.tEy (V/m) @ t=0.94
0
% es.tEz (V/m) @ t=0.94
12.382893848058018
% V (V) @ t=0.94
0.008556320457989432
% es.normE (V/m) @ t=0.96
27.51127369376346
% es.EX (V/m) @ t=0.96
-12.992407104961494
% es.EY (V/m) @ t=0.96
10.423930988366319
% es.EZ (V/m) @ t=0.96
12.495739676563264
% es.tEX (V/m) @ t=0.96
-12.992407104961487
% es.tEY (V/m) @ t=0.96
0
% es.tEZ (V/m) @ t=0.96
12.495739676563261
% es.Ex (V/m) @ t=0.96
-12.992407104961494
% es.Ey (V/m) @ t=0.96
10.423930988366319
% es.Ez (V/m) @ t=0.96
12.495739676563264
% es.tEx (V/m) @ t=0.96
-12.992407104961487
% es.tEy (V/m) @ t=0.96
0
% es.tEz (V/m) @ t=0.96
12.495739676563261
% V (V) @ t=0.96
0.008634294568708902
% es.normE (V/m) @ t=0.98
27.759720985473795
% es.EX (V/m) @ t=0.98
-13.109738222075066
% es.EY (V/m) @ t=0.98
10.518066851660109
% es.EZ (V/m) @ t=0.98
12.608585505068497
% es.tEX (V/m) @ t=0.98
-13.109738222075066
% es.tEY (V/m) @ t=0.98
0
% es.tEZ (V/m) @ t=0.98
12.608585505068504
% es.Ex (V/m) @ t=0.98
-13.109738222075066
% es.Ey (V/m) @ t=0.98
10.518066851660109
% es.Ez (V/m) @ t=0.98
12.608585505068497
% es.tEx (V/m) @ t=0.98
-13.109738222075066
% es.tEy (V/m) @ t=0.98
0
% es.tEz (V/m) @ t=0.98
12.608585505068504
% V (V) @ t=0.98
0.00871226867942837
% es.normE (V/m) @ t=1
28.008168277184144
% es.EX (V/m) @ t=1
-13.227069339188688
% es.EY (V/m) @ t=1
10.612202714953927
% es.EZ (V/m) @ t=1
12.721431333573758
% es.tEX (V/m) @ t=1
-13.227069339188702
% es.tEY (V/m) @ t=1
0
% es.tEZ (V/m) @ t=1
12.721431333573747
% es.Ex (V/m) @ t=1
-13.227069339188688
% es.Ey (V/m) @ t=1
10.612202714953927
% es.Ez (V/m) @ t=1
12.721431333573758
% es.tEx (V/m) @ t=1
-13.227069339188702
% es.tEy (V/m) @ t=1
0
% es.tEz (V/m) @ t=1
12.721431333573747
% V (V) @ t=1
0.00879024279014784
% es.normE (V/m) @ t=1.02
28.25661556889444
% es.EX (V/m) @ t=1.02
-13.344400456302267
% es.EY (V/m) @ t=1.02
10.706338578247763
% es.EZ (V/m) @ t=1.02
12.834277162079008
% es.tEX (V/m) @ t=1.02
-13.344400456302246
% es.tEY (V/m) @ t=1.02
0
% es.tEZ (V/m) @ t=1.02
12.834277162079019
% es.Ex (V/m) @ t=1.02
-13.344400456302267
% es.Ey (V/m) @ t=1.02
10.706338578247763
% es.Ez (V/m) @ t=1.02
12.834277162079008
% es.tEx (V/m) @ t=1.02
-13.344400456302246
% es.tEy (V/m) @ t=1.02
0
% es.tEz (V/m) @ t=1.02
12.834277162079019
% V (V) @ t=1.02
0.00886821690086731
% es.normE (V/m) @ t=1.04
28.505062860604763
% es.EX (V/m) @ t=1.04
-13.461731573415825
% es.EY (V/m) @ t=1.04
10.800474441541624
% es.EZ (V/m) @ t=1.04
12.947122990584266
% es.tEX (V/m) @ t=1.04
-13.461731573415832
% es.tEY (V/m) @ t=1.04
0
% es.tEZ (V/m) @ t=1.04
12.947122990584262
% es.Ex (V/m) @ t=1.04
-13.461731573415825
% es.Ey (V/m) @ t=1.04
10.800474441541624
% es.Ez (V/m) @ t=1.04
12.947122990584266
% es.tEx (V/m) @ t=1.04
-13.461731573415832
% es.tEy (V/m) @ t=1.04
0
% es.tEz (V/m) @ t=1.04
12.947122990584262
% V (V) @ t=1.04
0.00894619101158678