% Model:              1 neuron.mph
% Version:            COMSOL 6.1.0.252
% Date:               Mar 18 2023, 12:49
% Dimension:          0
% Nodes:              14017
% Expressions:        14017
% Description:        Electric field norm, Electric field, X component, Electric field, Y component, Electric field, Z component, Tangential electric field, X component, Tangential electric field, Y component, Tangential electric field, Z component, Electric field, x component, Electric field, y component, Electric field, z component, Tangential electric field, x component, Tangential electric field, y component, Tangential electric field, z component, Electric potential
% Length unit:        mm
% x
1
% y
12.2
% z
1
% es.normE (V/m) @ t=0
0.7879475335408845
% es.EX (V/m) @ t=0
0.5350252858662294
% es.EY (V/m) @ t=0
0.15195415971925819
% es.EZ (V/m) @ t=0
0.5436123749134296
% es.tEX (V/m) @ t=0
0.5350252858662117
% es.tEY (V/m) @ t=0
0
% es.tEZ (V/m) @ t=0
0.5436123749134225
% es.Ex (V/m) @ t=0
0.5350252858662294
% es.Ey (V/m) @ t=0
0.15195415971925819
% es.Ez (V/m) @ t=0
0.5436123749134296
% es.tEx (V/m) @ t=0
0.5350252858662117
% es.tEy (V/m) @ t=0
0
% es.tEz (V/m) @ t=0
0.5436123749134225
% V (V) @ t=0
0.007388819950057308
% es.normE (V/m) @ t=0.02
0.6805604042067421
% es.EX (V/m) @ t=0.02
0.46210820717489476
% es.EY (V/m) @ t=0.02
0.13124477087251663
% es.EZ (V/m) @ t=0.02
0.46952498778596485
% es.tEX (V/m) @ t=0.02
0.46210820717487877
% es.tEY (V/m) @ t=0.02
0
% es.tEZ (V/m) @ t=0.02
0.46952498778595597
% es.Ex (V/m) @ t=0.02
0.46210820717489476
% es.Ey (V/m) @ t=0.02
0.13124477087251663
% es.Ez (V/m) @ t=0.02
0.46952498778596485
% es.tEx (V/m) @ t=0.02
0.46210820717487877
% es.tEy (V/m) @ t=0.02
0
% es.tEz (V/m) @ t=0.02
0.46952498778595597
% V (V) @ t=0.02
0.006381818398552373
% es.normE (V/m) @ t=0.04
0.6868219975348386
% es.EX (V/m) @ t=0.04
0.46635989839598935
% es.EY (V/m) @ t=0.04
0.13245231188267148
% es.EZ (V/m) @ t=0.04
0.4738449187877656
% es.tEX (V/m) @ t=0.04
0.4663598983959858
% es.tEY (V/m) @ t=0.04
0
% es.tEZ (V/m) @ t=0.04
0.4738449187877549
% es.Ex (V/m) @ t=0.04
0.46635989839598935
% es.Ey (V/m) @ t=0.04
0.13245231188267148
% es.Ez (V/m) @ t=0.04
0.4738449187877656
% es.tEx (V/m) @ t=0.04
0.4663598983959858
% es.tEy (V/m) @ t=0.04
0
% es.tEz (V/m) @ t=0.04
0.4738449187877549
% V (V) @ t=0.04
0.006440535114661774
% es.normE (V/m) @ t=0.06
0.69314119978108
% es.EX (V/m) @ t=0.06
0.4706507105952671
% es.EY (V/m) @ t=0.06
0.13367094979403582
% es.EZ (V/m) @ t=0.06
0.47820459689905714
% es.tEX (V/m) @ t=0.06
0.4706507105952653
% es.tEY (V/m) @ t=0.06
0
% es.tEZ (V/m) @ t=0.06
0.4782045968990545
% es.Ex (V/m) @ t=0.06
0.4706507105952671
% es.Ey (V/m) @ t=0.06
0.13367094979403582
% es.Ez (V/m) @ t=0.06
0.47820459689905714
% es.tEx (V/m) @ t=0.06
0.4706507105952653
% es.tEy (V/m) @ t=0.06
0
% es.tEz (V/m) @ t=0.06
0.4782045968990545
% V (V) @ t=0.06
0.0064997923645538185
% es.normE (V/m) @ t=0.08
0.6995542012352649
% es.EX (V/m) @ t=0.08
0.4750052118227792
% es.EY (V/m) @ t=0.08
0.13490768234196793
% es.EZ (V/m) @ t=0.08
0.482628987001787
% es.tEX (V/m) @ t=0.08
0.47500521182277566
% es.tEY (V/m) @ t=0.08
0
% es.tEZ (V/m) @ t=0.08
0.48262898700177814
% es.Ex (V/m) @ t=0.08
0.4750052118227792
% es.Ey (V/m) @ t=0.08
0.13490768234196793
% es.Ez (V/m) @ t=0.08
0.482628987001787
% es.tEx (V/m) @ t=0.08
0.47500521182277566
% es.tEy (V/m) @ t=0.08
0
% es.tEz (V/m) @ t=0.08
0.48262898700177814
% V (V) @ t=0.08
0.006559929058323178
% es.normE (V/m) @ t=0.1
0.706037871499393
% es.EX (V/m) @ t=0.1
0.47940769669459726
% es.EY (V/m) @ t=0.1
0.13615804748293492
% es.EZ (V/m) @ t=0.1
0.4871021314546482
% es.tEX (V/m) @ t=0.1
0.4794076966945937
% es.tEY (V/m) @ t=0.1
0
% es.tEZ (V/m) @ t=0.1
0.4871021314546411
% es.Ex (V/m) @ t=0.1
0.47940769669459726
% es.Ey (V/m) @ t=0.1
0.13615804748293492
% es.Ez (V/m) @ t=0.1
0.4871021314546482
% es.tEx (V/m) @ t=0.1
0.4794076966945937
% es.tEy (V/m) @ t=0.1
0
% es.tEz (V/m) @ t=0.1
0.4871021314546411
% V (V) @ t=0.1
0.0066207283296727815
% es.normE (V/m) @ t=0.12
0.7125215417635311
% es.EX (V/m) @ t=0.12
0.4838101815664295
% es.EY (V/m) @ t=0.12
0.13740841262391257
% es.EZ (V/m) @ t=0.12
0.4915752759075094
% es.tEX (V/m) @ t=0.12
0.48381018156641886
% es.tEY (V/m) @ t=0.12
0
% es.tEZ (V/m) @ t=0.12
0.49157527590750405
% es.Ex (V/m) @ t=0.12
0.4838101815664295
% es.Ey (V/m) @ t=0.12
0.13740841262391257
% es.Ez (V/m) @ t=0.12
0.4915752759075094
% es.tEx (V/m) @ t=0.12
0.48381018156641886
% es.tEy (V/m) @ t=0.12
0
% es.tEz (V/m) @ t=0.12
0.49157527590750405
% V (V) @ t=0.12
0.006681527601022385
% es.normE (V/m) @ t=0.14
0.71905767397712
% es.EX (V/m) @ t=0.14
0.48824829020758465
% es.EY (V/m) @ t=0.14
0.13866888991347892
% es.EZ (V/m) @ t=0.14
0.4960846152029452
% es.tEX (V/m) @ t=0.14
0.4882482902075864
% es.tEY (V/m) @ t=0.14
0
% es.tEZ (V/m) @ t=0.14
0.49608461520294256
% es.Ex (V/m) @ t=0.14
0.48824829020758465
% es.Ey (V/m) @ t=0.14
0.13866888991347892
% es.Ez (V/m) @ t=0.14
0.4960846152029452
% es.tEx (V/m) @ t=0.14
0.4882482902075864
% es.tEy (V/m) @ t=0.14
0
% es.tEz (V/m) @ t=0.14
0.49608461520294256
% V (V) @ t=0.14
0.006742818948005769
% es.normE (V/m) @ t=0.16
0.7258895671936942
% es.EX (V/m) @ t=0.16
0.49288723244061927
% es.EY (V/m) @ t=0.16
0.13998637574444572
% es.EZ (V/m) @ t=0.16
0.5007980075892497
% es.tEX (V/m) @ t=0.16
0.4928872324406086
% es.tEY (V/m) @ t=0.16
0
% es.tEZ (V/m) @ t=0.16
0.5007980075892426
% es.Ex (V/m) @ t=0.16
0.49288723244061927
% es.Ey (V/m) @ t=0.16
0.13998637574444572
% es.Ez (V/m) @ t=0.16
0.5007980075892497
% es.tEx (V/m) @ t=0.16
0.4928872324406086
% es.tEy (V/m) @ t=0.16
0
% es.tEz (V/m) @ t=0.16
0.5007980075892426
% V (V) @ t=0.16
0.006806884434807276
% es.normE (V/m) @ t=0.18
0.7327214604102346
% es.EX (V/m) @ t=0.18
0.49752617467360416
% es.EY (V/m) @ t=0.18
0.14130386157543562
% es.EZ (V/m) @ t=0.18
0.505511399975541
% es.tEX (V/m) @ t=0.18
0.4975261746735953
% es.tEY (V/m) @ t=0.18
0
% es.tEZ (V/m) @ t=0.18
0.5055113999755356
% es.Ex (V/m) @ t=0.18
0.49752617467360416
% es.Ey (V/m) @ t=0.18
0.14130386157543562
% es.Ez (V/m) @ t=0.18
0.505511399975541
% es.tEx (V/m) @ t=0.18
0.4975261746735953
% es.tEy (V/m) @ t=0.18
0
% es.tEz (V/m) @ t=0.18
0.5055113999755356
% V (V) @ t=0.18
0.006870949921608785
% es.normE (V/m) @ t=0.2
0.7395533536267829
% es.EX (V/m) @ t=0.2
0.5021651169066121
% es.EY (V/m) @ t=0.2
0.14262134740638466
% es.EZ (V/m) @ t=0.2
0.5102247923618366
% es.tEX (V/m) @ t=0.2
0.5021651169066033
% es.tEY (V/m) @ t=0.2
0
% es.tEZ (V/m) @ t=0.2
0.5102247923618286
% es.Ex (V/m) @ t=0.2
0.5021651169066121
% es.Ey (V/m) @ t=0.2
0.14262134740638466
% es.Ez (V/m) @ t=0.2
0.5102247923618366
% es.tEx (V/m) @ t=0.2
0.5021651169066033
% es.tEy (V/m) @ t=0.2
0
% es.tEz (V/m) @ t=0.2
0.5102247923618286
% V (V) @ t=0.2
0.006935015408410293
% es.normE (V/m) @ t=0.22
0.746385246843341
% es.EX (V/m) @ t=0.22
0.506804059139613
% es.EY (V/m) @ t=0.22
0.1439388332373781
% es.EZ (V/m) @ t=0.22
0.5149381847481305
% es.tEX (V/m) @ t=0.22
0.5068040591396112
% es.tEY (V/m) @ t=0.22
0
% es.tEZ (V/m) @ t=0.22
0.5149381847481216
% es.Ex (V/m) @ t=0.22
0.506804059139613
% es.Ey (V/m) @ t=0.22
0.1439388332373781
% es.Ez (V/m) @ t=0.22
0.5149381847481305
% es.tEx (V/m) @ t=0.22
0.5068040591396112
% es.tEy (V/m) @ t=0.22
0
% es.tEz (V/m) @ t=0.22
0.5149381847481216
% V (V) @ t=0.22
0.006999080895211802
% es.normE (V/m) @ t=0.24
0.7532171400599207
% es.EX (V/m) @ t=0.24
0.5114430013726281
% es.EY (V/m) @ t=0.24
0.1452563190683538
% es.EZ (V/m) @ t=0.24
0.5196515771344465
% es.tEX (V/m) @ t=0.24
0.5114430013726192
% es.tEY (V/m) @ t=0.24
0
% es.tEZ (V/m) @ t=0.24
0.519651577134443
% es.Ex (V/m) @ t=0.24
0.5114430013726281
% es.Ey (V/m) @ t=0.24
0.1452563190683538
% es.Ez (V/m) @ t=0.24
0.5196515771344465
% es.tEx (V/m) @ t=0.24
0.5114430013726192
% es.tEy (V/m) @ t=0.24
0
% es.tEz (V/m) @ t=0.24
0.519651577134443
% V (V) @ t=0.24
0.007063146382013312
% es.normE (V/m) @ t=0.26
0.7600490332764899
% es.EX (V/m) @ t=0.26
0.5160819436056592
% es.EY (V/m) @ t=0.26
0.1465738048993046
% es.EZ (V/m) @ t=0.26
0.5243649695207395
% es.tEX (V/m) @ t=0.26
0.5160819436056485
% es.tEY (V/m) @ t=0.26
0
% es.tEZ (V/m) @ t=0.26
0.5243649695207324
% es.Ex (V/m) @ t=0.26
0.5160819436056592
% es.Ey (V/m) @ t=0.26
0.1465738048993046
% es.Ez (V/m) @ t=0.26
0.5243649695207395
% es.tEx (V/m) @ t=0.26
0.5160819436056485
% es.tEy (V/m) @ t=0.26
0
% es.tEz (V/m) @ t=0.26
0.5243649695207324
% V (V) @ t=0.26
0.00712721186881482
% es.normE (V/m) @ t=0.28
0.767124363931164
% es.EX (V/m) @ t=0.28
0.5208861146523898
% es.EY (V/m) @ t=0.28
0.14793846347385298
% es.EZ (V/m) @ t=0.28
0.5292462732995844
% es.tEX (V/m) @ t=0.28
0.5208861146523844
% es.tEY (V/m) @ t=0.28
0
% es.tEZ (V/m) @ t=0.28
0.5292462732995737
% es.Ex (V/m) @ t=0.28
0.5208861146523898
% es.Ey (V/m) @ t=0.28
0.14793846347385298
% es.Ez (V/m) @ t=0.28
0.5292462732995844
% es.tEx (V/m) @ t=0.28
0.5208861146523844
% es.tEy (V/m) @ t=0.28
0
% es.tEz (V/m) @ t=0.28
0.5292462732995737
% V (V) @ t=0.28
0.007193554557031866
% es.normE (V/m) @ t=0.3
0.774738182079278
% es.EX (V/m) @ t=0.3
0.5260557744684142
% es.EY (V/m) @ t=0.3
0.14940746890885492
% es.EZ (V/m) @ t=0.3
0.5344989997547147
% es.tEX (V/m) @ t=0.3
0.5260557744684107
% es.tEY (V/m) @ t=0.3
0
% es.tEZ (V/m) @ t=0.3
0.5344989997547067
% es.Ex (V/m) @ t=0.3
0.5260557744684142
% es.Ey (V/m) @ t=0.3
0.14940746890885492
% es.Ez (V/m) @ t=0.3
0.5344989997547147
% es.tEx (V/m) @ t=0.3
0.5260557744684107
% es.tEy (V/m) @ t=0.3
0
% es.tEz (V/m) @ t=0.3
0.5344989997547067
% V (V) @ t=0.3
0.007264934451071197
% es.normE (V/m) @ t=0.32
0.7823520002284212
% es.EX (V/m) @ t=0.32
0.531225434284444
% es.EY (V/m) @ t=0.32
0.15087647434385154
% es.EZ (V/m) @ t=0.32
0.539751726209845
% es.tEX (V/m) @ t=0.32
0.5312254342844369
% es.tEY (V/m) @ t=0.32
0
% es.tEZ (V/m) @ t=0.32
0.5397517262098397
% es.Ex (V/m) @ t=0.32
0.531225434284444
% es.Ey (V/m) @ t=0.32
0.15087647434385154
% es.Ez (V/m) @ t=0.32
0.539751726209845
% es.tEx (V/m) @ t=0.32
0.5312254342844369
% es.tEy (V/m) @ t=0.32
0
% es.tEz (V/m) @ t=0.32
0.5397517262098397
% V (V) @ t=0.32
0.007336314345110529
% es.normE (V/m) @ t=0.34
0.789965818378556
% es.EX (V/m) @ t=0.34
0.5363950941004472
% es.EY (V/m) @ t=0.34
0.1523454797788677
% es.EZ (V/m) @ t=0.34
0.5450044526649886
% es.tEX (V/m) @ t=0.34
0.536395094100456
% es.tEY (V/m) @ t=0.34
0
% es.tEZ (V/m) @ t=0.34
0.5450044526649869
% es.Ex (V/m) @ t=0.34
0.5363950941004472
% es.Ey (V/m) @ t=0.34
0.1523454797788677
% es.Ez (V/m) @ t=0.34
0.5450044526649886
% es.tEx (V/m) @ t=0.34
0.536395094100456
% es.tEy (V/m) @ t=0.34
0
% es.tEz (V/m) @ t=0.34
0.5450044526649869
% V (V) @ t=0.34
0.00740769423914986
% es.normE (V/m) @ t=0.36
0.7975796365296502
% es.EX (V/m) @ t=0.36
0.5415647539164592
% es.EY (V/m) @ t=0.36
0.1538144852138732
% es.EZ (V/m) @ t=0.36
0.5502571791201136
% es.tEX (V/m) @ t=0.36
0.541564753916461
% es.tEY (V/m) @ t=0.36
0
% es.tEZ (V/m) @ t=0.36
0.5502571791201056
% es.Ex (V/m) @ t=0.36
0.5415647539164592
% es.Ey (V/m) @ t=0.36
0.1538144852138732
% es.Ez (V/m) @ t=0.36
0.5502571791201136
% es.tEx (V/m) @ t=0.36
0.541564753916461
% es.tEy (V/m) @ t=0.36
0
% es.tEz (V/m) @ t=0.36
0.5502571791201056
% V (V) @ t=0.36
0.007479074133189191
% es.normE (V/m) @ t=0.38
0.8051934546817203
% es.EX (V/m) @ t=0.38
0.5467344137324943
% es.EY (V/m) @ t=0.38
0.15528349064888758
% es.EZ (V/m) @ t=0.38
0.5555099055752679
% es.tEX (V/m) @ t=0.38
0.5467344137324943
% es.tEY (V/m) @ t=0.38
0
% es.tEZ (V/m) @ t=0.38
0.5555099055752564
% es.Ex (V/m) @ t=0.38
0.5467344137324943
% es.Ey (V/m) @ t=0.38
0.15528349064888758
% es.Ez (V/m) @ t=0.38
0.5555099055752679
% es.tEx (V/m) @ t=0.38
0.5467344137324943
% es.tEy (V/m) @ t=0.38
0
% es.tEz (V/m) @ t=0.38
0.5555099055752564
% V (V) @ t=0.38
0.007550454027228523
% es.normE (V/m) @ t=0.4
0.8128072728346534
% es.EX (V/m) @ t=0.4
0.5519040735485206
% es.EY (V/m) @ t=0.4
0.15675249608385577
% es.EZ (V/m) @ t=0.4
0.5607626320303813
% es.tEX (V/m) @ t=0.4
0.5519040735485135
% es.tEY (V/m) @ t=0.4
0
% es.tEZ (V/m) @ t=0.4
0.5607626320303716
% es.Ex (V/m) @ t=0.4
0.5519040735485206
% es.Ey (V/m) @ t=0.4
0.15675249608385577
% es.Ez (V/m) @ t=0.4
0.5607626320303813
% es.tEx (V/m) @ t=0.4
0.5519040735485135
% es.tEy (V/m) @ t=0.4
0
% es.tEz (V/m) @ t=0.4
0.5607626320303716
% V (V) @ t=0.4
0.007621833921267853
% es.normE (V/m) @ t=0.42
0.8204210909884972
% es.EX (V/m) @ t=0.42
0.5570737333645184
% es.EY (V/m) @ t=0.42
0.15822150151888792
% es.EZ (V/m) @ t=0.42
0.5660153584855259
% es.tEX (V/m) @ t=0.42
0.5570737333645042
% es.tEY (V/m) @ t=0.42
0
% es.tEZ (V/m) @ t=0.42
0.5660153584855117
% es.Ex (V/m) @ t=0.42
0.5570737333645184
% es.Ey (V/m) @ t=0.42
0.15822150151888792
% es.Ez (V/m) @ t=0.42
0.5660153584855259
% es.tEx (V/m) @ t=0.42
0.5570737333645042
% es.tEy (V/m) @ t=0.42
0
% es.tEz (V/m) @ t=0.42
0.5660153584855117
% V (V) @ t=0.42
0.007693213815307186
% es.normE (V/m) @ t=0.44
0.8280349091432049
% es.EX (V/m) @ t=0.44
0.5622433931805375
% es.EY (V/m) @ t=0.44
0.15969050695388098
% es.EZ (V/m) @ t=0.44
0.5712680849406597
% es.tEX (V/m) @ t=0.44
0.5622433931805375
% es.tEY (V/m) @ t=0.44
0
% es.tEZ (V/m) @ t=0.44
0.5712680849406517
% es.Ex (V/m) @ t=0.44
0.5622433931805375
% es.Ey (V/m) @ t=0.44
0.15969050695388098
% es.Ez (V/m) @ t=0.44
0.5712680849406597
% es.tEx (V/m) @ t=0.44
0.5622433931805375
% es.tEy (V/m) @ t=0.44
0
% es.tEz (V/m) @ t=0.44
0.5712680849406517
% V (V) @ t=0.44
0.0077645937093465175
% es.normE (V/m) @ t=0.46
0.8356487272987534
% es.EX (V/m) @ t=0.46
0.5674130529965566
% es.EY (V/m) @ t=0.46
0.16115951238888293
% es.EZ (V/m) @ t=0.46
0.5765208113958007
% es.tEX (V/m) @ t=0.46
0.5674130529965709
% es.tEY (V/m) @ t=0.46
0
% es.tEZ (V/m) @ t=0.46
0.5765208113957883
% es.Ex (V/m) @ t=0.46
0.5674130529965566
% es.Ey (V/m) @ t=0.46
0.16115951238888293
% es.Ez (V/m) @ t=0.46
0.5765208113958007
% es.tEx (V/m) @ t=0.46
0.5674130529965709
% es.tEy (V/m) @ t=0.46
0
% es.tEz (V/m) @ t=0.46
0.5765208113957883
% V (V) @ t=0.46
0.00783597360338585
% es.normE (V/m) @ t=0.48
0.8432625454551128
% es.EX (V/m) @ t=0.48
0.5725827128125722
% es.EY (V/m) @ t=0.48
0.1626285178238973
% es.EZ (V/m) @ t=0.48
0.581773537850931
% es.tEX (V/m) @ t=0.48
0.5725827128125758
% es.tEY (V/m) @ t=0.48
0
% es.tEZ (V/m) @ t=0.48
0.5817735378509212
% es.Ex (V/m) @ t=0.48
0.5725827128125722
% es.Ey (V/m) @ t=0.48
0.1626285178238973
% es.Ez (V/m) @ t=0.48
0.581773537850931
% es.tEx (V/m) @ t=0.48
0.5725827128125758
% es.tEy (V/m) @ t=0.48
0
% es.tEz (V/m) @ t=0.48
0.5817735378509212
% V (V) @ t=0.48
0.007907353497425182
% es.normE (V/m) @ t=0.5
0.8508763636122714
% es.EX (V/m) @ t=0.5
0.5777523726285771
% es.EY (V/m) @ t=0.5
0.16409752325892413
% es.EZ (V/m) @ t=0.5
0.5870262643060764
% es.tEX (V/m) @ t=0.5
0.5777523726285807
% es.tEY (V/m) @ t=0.5
0
% es.tEZ (V/m) @ t=0.5
0.5870262643060684
% es.Ex (V/m) @ t=0.5
0.5777523726285771
% es.Ey (V/m) @ t=0.5
0.16409752325892413
% es.Ez (V/m) @ t=0.5
0.5870262643060764
% es.tEx (V/m) @ t=0.5
0.5777523726285807
% es.tEy (V/m) @ t=0.5
0
% es.tEz (V/m) @ t=0.5
0.5870262643060684
% V (V) @ t=0.5
0.007978733391464512
% es.normE (V/m) @ t=0.52
0.8584901817702086
% es.EX (V/m) @ t=0.52
0.5829220324446212
% es.EY (V/m) @ t=0.52
0.16556652869390653
% es.EZ (V/m) @ t=0.52
0.5922789907612067
% es.tEX (V/m) @ t=0.52
0.582922032444614
% es.tEY (V/m) @ t=0.52
0
% es.tEZ (V/m) @ t=0.52
0.5922789907611978
% es.Ex (V/m) @ t=0.52
0.5829220324446212
% es.Ey (V/m) @ t=0.52
0.16556652869390653
% es.Ez (V/m) @ t=0.52
0.5922789907612067
% es.tEx (V/m) @ t=0.52
0.582922032444614
% es.tEy (V/m) @ t=0.52
0
% es.tEz (V/m) @ t=0.52
0.5922789907611978
% V (V) @ t=0.52
0.008050113285503844
% es.normE (V/m) @ t=0.54
0.866103999928876
% es.EX (V/m) @ t=0.54
0.5880916922606296
% es.EY (V/m) @ t=0.54
0.1670355341289067
% es.EZ (V/m) @ t=0.54
0.5975317172163246
% es.tEX (V/m) @ t=0.54
0.588091692260619
% es.tEY (V/m) @ t=0.54
0
% es.tEZ (V/m) @ t=0.54
0.5975317172163166
% es.Ex (V/m) @ t=0.54
0.5880916922606296
% es.Ey (V/m) @ t=0.54
0.1670355341289067
% es.Ez (V/m) @ t=0.54
0.5975317172163246
% es.tEx (V/m) @ t=0.54
0.588091692260619
% es.tEy (V/m) @ t=0.54
0
% es.tEz (V/m) @ t=0.54
0.5975317172163166
% V (V) @ t=0.54
0.008121493179543176
% es.normE (V/m) @ t=0.56
0.8742815333340788
% es.EX (V/m) @ t=0.56
0.5936442677516425
% es.EY (V/m) @ t=0.56
0.16861276265247405
% es.EZ (V/m) @ t=0.56
0.6031734389108188
% es.tEX (V/m) @ t=0.56
0.5936442677516425
% es.tEY (V/m) @ t=0.56
0
% es.tEZ (V/m) @ t=0.56
0.6031734389108081
% es.Ex (V/m) @ t=0.56
0.5936442677516425
% es.Ey (V/m) @ t=0.56
0.16861276265247405
% es.Ez (V/m) @ t=0.56
0.6031734389108188
% es.tEx (V/m) @ t=0.56
0.5936442677516425
% es.tEy (V/m) @ t=0.56
0
% es.tEz (V/m) @ t=0.56
0.6031734389108081
% V (V) @ t=0.56
0.008198171250517614
% es.normE (V/m) @ t=0.58
0.8827863466826847
% es.EX (V/m) @ t=0.58
0.5994191551657657
% es.EY (V/m) @ t=0.58
0.17025282298083866
% es.EZ (V/m) @ t=0.58
0.6090410021818862
% es.tEX (V/m) @ t=0.58
0.5994191551657622
% es.tEY (V/m) @ t=0.58
0
% es.tEZ (V/m) @ t=0.58
0.6090410021818755
% es.Ex (V/m) @ t=0.58
0.5994191551657657
% es.Ey (V/m) @ t=0.58
0.17025282298083866
% es.Ez (V/m) @ t=0.58
0.6090410021818862
% es.tEx (V/m) @ t=0.58
0.5994191551657622
% es.tEy (V/m) @ t=0.58
0
% es.tEz (V/m) @ t=0.58
0.6090410021818755
% V (V) @ t=0.58
0.008277925319630949
% es.normE (V/m) @ t=0.6
0.8912911600313622
% es.EX (V/m) @ t=0.6
0.6051940425799209
% es.EY (V/m) @ t=0.6
0.17189288330916064
% es.EZ (V/m) @ t=0.6
0.6149085654529696
% es.tEX (V/m) @ t=0.6
0.6051940425799245
% es.tEY (V/m) @ t=0.6
0
% es.tEZ (V/m) @ t=0.6
0.6149085654529642
% es.Ex (V/m) @ t=0.6
0.6051940425799209
% es.Ey (V/m) @ t=0.6
0.17189288330916064
% es.Ez (V/m) @ t=0.6
0.6149085654529696
% es.tEx (V/m) @ t=0.6
0.6051940425799245
% es.tEy (V/m) @ t=0.6
0
% es.tEz (V/m) @ t=0.6
0.6149085654529642
% V (V) @ t=0.6
0.008357679388744283
% es.normE (V/m) @ t=0.62
0.8997959733800958
% es.EX (V/m) @ t=0.62
0.6109689299940868
% es.EY (V/m) @ t=0.62
0.17353294363748084
% es.EZ (V/m) @ t=0.62
0.6207761287240494
% es.tEX (V/m) @ t=0.62
0.6109689299940726
% es.tEY (V/m) @ t=0.62
0
% es.tEZ (V/m) @ t=0.62
0.6207761287240423
% es.Ex (V/m) @ t=0.62
0.6109689299940868
% es.Ey (V/m) @ t=0.62
0.17353294363748084
% es.Ez (V/m) @ t=0.62
0.6207761287240494
% es.tEx (V/m) @ t=0.62
0.6109689299940726
% es.tEy (V/m) @ t=0.62
0
% es.tEz (V/m) @ t=0.62
0.6207761287240423
% V (V) @ t=0.62
0.008437433457857618
% es.normE (V/m) @ t=0.64
0.9083007867288719
% es.EX (V/m) @ t=0.64
0.6167438174082172
% es.EY (V/m) @ t=0.64
0.17517300396580993
% es.EZ (V/m) @ t=0.64
0.6266436919951488
% es.tEX (V/m) @ t=0.64
0.6167438174082207
% es.tEY (V/m) @ t=0.64
0
% es.tEZ (V/m) @ t=0.64
0.6266436919951452
% es.Ex (V/m) @ t=0.64
0.6167438174082172
% es.Ey (V/m) @ t=0.64
0.17517300396580993
% es.Ez (V/m) @ t=0.64
0.6266436919951488
% es.tEx (V/m) @ t=0.64
0.6167438174082207
% es.tEy (V/m) @ t=0.64
0
% es.tEz (V/m) @ t=0.64
0.6266436919951452
% V (V) @ t=0.64
0.008517187526970954
% es.normE (V/m) @ t=0.66
0.9168056000776729
% es.EX (V/m) @ t=0.66
0.6225187048223333
% es.EY (V/m) @ t=0.66
0.17681306429419408
% es.EZ (V/m) @ t=0.66
0.6325112552662144
% es.tEX (V/m) @ t=0.66
0.6225187048223262
% es.tEY (V/m) @ t=0.66
0
% es.tEZ (V/m) @ t=0.66
0.6325112552662056
% es.Ex (V/m) @ t=0.66
0.6225187048223333
% es.Ey (V/m) @ t=0.66
0.17681306429419408
% es.Ez (V/m) @ t=0.66
0.6325112552662144
% es.tEx (V/m) @ t=0.66
0.6225187048223262
% es.tEy (V/m) @ t=0.66
0
% es.tEz (V/m) @ t=0.66
0.6325112552662056
% V (V) @ t=0.66
0.008596941596084288
% es.normE (V/m) @ t=0.68
0.9253104134265544
% es.EX (V/m) @ t=0.68
0.6282935922365027
% es.EY (V/m) @ t=0.68
0.1784531246225196
% es.EZ (V/m) @ t=0.68
0.6383788185372996
% es.tEX (V/m) @ t=0.68
0.6282935922365027
% es.tEY (V/m) @ t=0.68
0
% es.tEZ (V/m) @ t=0.68
0.6383788185372907
% es.Ex (V/m) @ t=0.68
0.6282935922365027
% es.Ey (V/m) @ t=0.68
0.1784531246225196
% es.Ez (V/m) @ t=0.68
0.6383788185372996
% es.tEx (V/m) @ t=0.68
0.6282935922365027
% es.tEy (V/m) @ t=0.68
0
% es.tEz (V/m) @ t=0.68
0.6383788185372907
% V (V) @ t=0.68
0.008676695665197624
% es.normE (V/m) @ t=0.7
0.9338152267754714
% es.EX (V/m) @ t=0.7
0.6340684796506508
% es.EY (V/m) @ t=0.7
0.18009318495086113
% es.EZ (V/m) @ t=0.7
0.6442463818083777
% es.tEX (V/m) @ t=0.7
0.6340684796506366
% es.tEY (V/m) @ t=0.7
0
% es.tEZ (V/m) @ t=0.7
0.6442463818083723
% es.Ex (V/m) @ t=0.7
0.6340684796506508
% es.Ey (V/m) @ t=0.7
0.18009318495086113
% es.Ez (V/m) @ t=0.7
0.6442463818083777
% es.tEx (V/m) @ t=0.7
0.6340684796506366
% es.tEy (V/m) @ t=0.7
0
% es.tEz (V/m) @ t=0.7
0.6442463818083723
% V (V) @ t=0.7
0.008756449734310959
% es.normE (V/m) @ t=0.72
0.9423200401244083
% es.EX (V/m) @ t=0.72
0.639843367064767
% es.EY (V/m) @ t=0.72
0.1817332452792204
% es.EZ (V/m) @ t=0.72
0.6501139450794575
% es.tEX (V/m) @ t=0.72
0.6398433670647705
% es.tEY (V/m) @ t=0.72
0
% es.tEZ (V/m) @ t=0.72
0.6501139450794469
% es.Ex (V/m) @ t=0.72
0.639843367064767
% es.Ey (V/m) @ t=0.72
0.1817332452792204
% es.Ez (V/m) @ t=0.72
0.6501139450794575
% es.tEx (V/m) @ t=0.72
0.6398433670647705
% es.tEy (V/m) @ t=0.72
0
% es.tEz (V/m) @ t=0.72
0.6501139450794469
% V (V) @ t=0.72
0.008836203803424293
% es.normE (V/m) @ t=0.74
0.950824853473426
% es.EX (V/m) @ t=0.74
0.6456182544789435
% es.EY (V/m) @ t=0.74
0.1833733056075264
% es.EZ (V/m) @ t=0.74
0.6559815083505454
% es.tEX (V/m) @ t=0.74
0.6456182544789328
% es.tEY (V/m) @ t=0.74
0
% es.tEZ (V/m) @ t=0.74
0.6559815083505427
% es.Ex (V/m) @ t=0.74
0.6456182544789435
% es.Ey (V/m) @ t=0.74
0.1833733056075264
% es.Ez (V/m) @ t=0.74
0.6559815083505454
% es.tEx (V/m) @ t=0.74
0.6456182544789328
% es.tEy (V/m) @ t=0.74
0
% es.tEz (V/m) @ t=0.74
0.6559815083505427
% V (V) @ t=0.74
0.008915957872537628
% es.normE (V/m) @ t=0.76
0.9593296668224736
% es.EX (V/m) @ t=0.76
0.6513931418930952
% es.EY (V/m) @ t=0.76
0.18501336593590345
% es.EZ (V/m) @ t=0.76
0.6618490716216163
% es.tEX (V/m) @ t=0.76
0.6513931418930952
% es.tEY (V/m) @ t=0.76
0
% es.tEZ (V/m) @ t=0.76
0.6618490716216101
% es.Ex (V/m) @ t=0.76
0.6513931418930952
% es.Ey (V/m) @ t=0.76
0.18501336593590345
% es.Ez (V/m) @ t=0.76
0.6618490716216163
% es.tEx (V/m) @ t=0.76
0.6513931418930952
% es.tEy (V/m) @ t=0.76
0
% es.tEz (V/m) @ t=0.76
0.6618490716216101
% V (V) @ t=0.76
0.008995711941650964
% es.normE (V/m) @ t=0.78
0.9678344801715414
% es.EX (V/m) @ t=0.78
0.6571680293072291
% es.EY (V/m) @ t=0.78
0.18665342626421833
% es.EZ (V/m) @ t=0.78
0.6677166348927042
% es.tEX (V/m) @ t=0.78
0.6571680293072149
% es.tEY (V/m) @ t=0.78
0
% es.tEZ (V/m) @ t=0.78
0.6677166348926988
% es.Ex (V/m) @ t=0.78
0.6571680293072291
% es.Ey (V/m) @ t=0.78
0.18665342626421833
% es.Ez (V/m) @ t=0.78
0.6677166348927042
% es.tEx (V/m) @ t=0.78
0.6571680293072149
% es.tEy (V/m) @ t=0.78
0
% es.tEz (V/m) @ t=0.78
0.6677166348926988
% V (V) @ t=0.78
0.009075466010764296
% es.normE (V/m) @ t=0.8
0.9763392935206738
% es.EX (V/m) @ t=0.8
0.6629429167213949
% es.EY (V/m) @ t=0.8
0.1882934865925563
% es.EZ (V/m) @ t=0.8
0.6735841981637849
% es.tEX (V/m) @ t=0.8
0.6629429167213772
% es.tEY (V/m) @ t=0.8
0
% es.tEZ (V/m) @ t=0.8
0.6735841981637805
% es.Ex (V/m) @ t=0.8
0.6629429167213949
% es.Ey (V/m) @ t=0.8
0.1882934865925563
% es.Ez (V/m) @ t=0.8
0.6735841981637849
% es.tEx (V/m) @ t=0.8
0.6629429167213772
% es.tEy (V/m) @ t=0.8
0
% es.tEz (V/m) @ t=0.8
0.6735841981637805
% V (V) @ t=0.8
0.009155220079877633
% es.normE (V/m) @ t=0.82
0.9848441068698349
% es.EX (V/m) @ t=0.82
0.6687178041355359
% es.EY (V/m) @ t=0.82
0.1899335469208765
% es.EZ (V/m) @ t=0.82
0.6794517614348772
% es.tEX (V/m) @ t=0.82
0.6687178041355253
% es.tEY (V/m) @ t=0.82
0
% es.tEZ (V/m) @ t=0.82
0.6794517614348763
% es.Ex (V/m) @ t=0.82
0.6687178041355359
% es.Ey (V/m) @ t=0.82
0.1899335469208765
% es.Ez (V/m) @ t=0.82
0.6794517614348772
% es.tEx (V/m) @ t=0.82
0.6687178041355253
% es.tEy (V/m) @ t=0.82
0
% es.tEz (V/m) @ t=0.82
0.6794517614348763
% V (V) @ t=0.82
0.009234974148990969
% es.normE (V/m) @ t=0.84
0.9943126499074035
% es.EX (V/m) @ t=0.84
0.6751470580872798
% es.EY (V/m) @ t=0.84
0.19175951690159465
% es.EZ (V/m) @ t=0.84
0.6859842012904345
% es.tEX (V/m) @ t=0.84
0.6751470580872478
% es.tEY (V/m) @ t=0.84
0
% es.tEZ (V/m) @ t=0.84
0.6859842012904238
% es.Ex (V/m) @ t=0.84
0.6751470580872798
% es.Ey (V/m) @ t=0.84
0.19175951690159465
% es.Ez (V/m) @ t=0.84
0.6859842012904345
% es.tEx (V/m) @ t=0.84
0.6751470580872478
% es.tEy (V/m) @ t=0.84
0
% es.tEz (V/m) @ t=0.84
0.6859842012904238
% V (V) @ t=0.84
0.009323764021044453
% es.normE (V/m) @ t=0.86
1.0038276303665041
% es.EX (V/m) @ t=0.86
0.6816078427629222
% es.EY (V/m) @ t=0.86
0.19359444495942846
% es.EZ (V/m) @ t=0.86
0.6925486782976948
% es.tEX (V/m) @ t=0.86
0.6816078427629009
% es.tEY (V/m) @ t=0.86
0
% es.tEZ (V/m) @ t=0.86
0.6925486782976904
% es.Ex (V/m) @ t=0.86
0.6816078427629222
% es.Ey (V/m) @ t=0.86
0.19359444495942846
% es.Ez (V/m) @ t=0.86
0.6925486782976948
% es.tEx (V/m) @ t=0.86
0.6816078427629009
% es.tEy (V/m) @ t=0.86
0
% es.tEz (V/m) @ t=0.86
0.6925486782976904
% V (V) @ t=0.86
0.009412989284261045
% es.normE (V/m) @ t=0.88
1.0133426108256112
% es.EX (V/m) @ t=0.88
0.6880686274385575
% es.EY (V/m) @ t=0.88
0.19542937301727115
% es.EZ (V/m) @ t=0.88
0.6991131553049543
% es.tEX (V/m) @ t=0.88
0.6880686274385539
% es.tEY (V/m) @ t=0.88
0
% es.tEZ (V/m) @ t=0.88
0.6991131553049428
% es.Ex (V/m) @ t=0.88
0.6880686274385575
% es.Ey (V/m) @ t=0.88
0.19542937301727115
% es.Ez (V/m) @ t=0.88
0.6991131553049543
% es.tEx (V/m) @ t=0.88
0.6880686274385539
% es.tEy (V/m) @ t=0.88
0
% es.tEz (V/m) @ t=0.88
0.6991131553049428
% V (V) @ t=0.88
0.009502214547477638
% es.normE (V/m) @ t=0.9
1.0228575912847417
% es.EX (V/m) @ t=0.9
0.6945294121142034
% es.EY (V/m) @ t=0.9
0.19726430107510318
% es.EZ (V/m) @ t=0.9
0.705677632312212
% es.tEX (V/m) @ t=0.9
0.6945294121142069
% es.tEY (V/m) @ t=0.9
0
% es.tEZ (V/m) @ t=0.9
0.7056776323121952
% es.Ex (V/m) @ t=0.9
0.6945294121142034
% es.Ey (V/m) @ t=0.9
0.19726430107510318
% es.Ez (V/m) @ t=0.9
0.705677632312212
% es.tEx (V/m) @ t=0.9
0.6945294121142069
% es.tEy (V/m) @ t=0.9
0
% es.tEz (V/m) @ t=0.9
0.7056776323121952
% V (V) @ t=0.9
0.009591439810694229
% es.normE (V/m) @ t=0.92
1.032372571743903
% es.EX (V/m) @ t=0.92
0.7009901967898635
% es.EY (V/m) @ t=0.92
0.19909922913299027
% es.EZ (V/m) @ t=0.92
0.7122421093194617
% es.tEX (V/m) @ t=0.92
0.7009901967898458
% es.tEY (V/m) @ t=0.92
0
% es.tEZ (V/m) @ t=0.92
0.7122421093194475
% es.Ex (V/m) @ t=0.92
0.7009901967898635
% es.Ey (V/m) @ t=0.92
0.19909922913299027
% es.Ez (V/m) @ t=0.92
0.7122421093194617
% es.tEx (V/m) @ t=0.92
0.7009901967898458
% es.tEy (V/m) @ t=0.92
0
% es.tEz (V/m) @ t=0.92
0.7122421093194475
% V (V) @ t=0.92
0.00968066507391082
% es.normE (V/m) @ t=0.94
1.0418875522030482
% es.EX (V/m) @ t=0.94
0.707450981465513
% es.EY (V/m) @ t=0.94
0.200934157190785
% es.EZ (V/m) @ t=0.94
0.7188065863267097
% es.tEX (V/m) @ t=0.94
0.7074509814654846
% es.tEY (V/m) @ t=0.94
0
% es.tEZ (V/m) @ t=0.94
0.7188065863266999
% es.Ex (V/m) @ t=0.94
0.707450981465513
% es.Ey (V/m) @ t=0.94
0.200934157190785
% es.Ez (V/m) @ t=0.94
0.7188065863267097
% es.tEx (V/m) @ t=0.94
0.7074509814654846
% es.tEy (V/m) @ t=0.94
0
% es.tEz (V/m) @ t=0.94
0.7188065863266999
% V (V) @ t=0.94
0.009769890337127413
% es.normE (V/m) @ t=0.96
1.0514025326622347
% es.EX (V/m) @ t=0.96
0.7139117661411625
% es.EY (V/m) @ t=0.96
0.20276908524864545
% es.EZ (V/m) @ t=0.96
0.7253710633339745
% es.tEX (V/m) @ t=0.96
0.713911766141166
% es.tEY (V/m) @ t=0.96
0
% es.tEZ (V/m) @ t=0.96
0.7253710633339665
% es.Ex (V/m) @ t=0.96
0.7139117661411625
% es.Ey (V/m) @ t=0.96
0.20276908524864545
% es.Ez (V/m) @ t=0.96
0.7253710633339745
% es.tEx (V/m) @ t=0.96
0.713911766141166
% es.tEy (V/m) @ t=0.96
0
% es.tEz (V/m) @ t=0.96
0.7253710633339665
% V (V) @ t=0.96
0.009859115600344004
% es.normE (V/m) @ t=0.98
1.0609175131214226
% es.EX (V/m) @ t=0.98
0.7203725508168084
% es.EY (V/m) @ t=0.98
0.20460401330650058
% es.EZ (V/m) @ t=0.98
0.7319355403412322
% es.tEX (V/m) @ t=0.98
0.7203725508168191
% es.tEY (V/m) @ t=0.98
0
% es.tEZ (V/m) @ t=0.98
0.7319355403412189
% es.Ex (V/m) @ t=0.98
0.7203725508168084
% es.Ey (V/m) @ t=0.98
0.20460401330650058
% es.Ez (V/m) @ t=0.98
0.7319355403412322
% es.tEx (V/m) @ t=0.98
0.7203725508168191
% es.tEy (V/m) @ t=0.98
0
% es.tEz (V/m) @ t=0.98
0.7319355403412189
% V (V) @ t=0.98
0.009948340863560595
% es.normE (V/m) @ t=1
1.0704324935806406
% es.EX (V/m) @ t=1
0.7268333354924827
% es.EY (V/m) @ t=1
0.20643894136430063
% es.EZ (V/m) @ t=1
0.7385000173485032
% es.tEX (V/m) @ t=1
0.7268333354924863
% es.tEY (V/m) @ t=1
0
% es.tEZ (V/m) @ t=1
0.7385000173484926
% es.Ex (V/m) @ t=1
0.7268333354924827
% es.Ey (V/m) @ t=1
0.20643894136430063
% es.Ez (V/m) @ t=1
0.7385000173485032
% es.tEx (V/m) @ t=1
0.7268333354924863
% es.tEy (V/m) @ t=1
0
% es.tEz (V/m) @ t=1
0.7385000173484926
% V (V) @ t=1
0.010037566126777187
% es.normE (V/m) @ t=1.02
1.0799474740398392
% es.EX (V/m) @ t=1.02
0.733294120168118
% es.EY (V/m) @ t=1.02
0.20827386942216286
% es.EZ (V/m) @ t=1.02
0.7450644943557512
% es.tEX (V/m) @ t=1.02
0.7332941201680967
% es.tEY (V/m) @ t=1.02
0
% es.tEZ (V/m) @ t=1.02
0.7450644943557236
% es.Ex (V/m) @ t=1.02
0.733294120168118
% es.Ey (V/m) @ t=1.02
0.20827386942216286
% es.Ez (V/m) @ t=1.02
0.7450644943557512
% es.tEx (V/m) @ t=1.02
0.7332941201680967
% es.tEy (V/m) @ t=1.02
0
% es.tEz (V/m) @ t=1.02
0.7450644943557236
% V (V) @ t=1.02
0.01012679138999378
% es.normE (V/m) @ t=1.04
1.0894624544990645
% es.EX (V/m) @ t=1.04
0.7397549048437533
% es.EY (V/m) @ t=1.04
0.21010879748002687
% es.EZ (V/m) @ t=1.04
0.7516289713630044
% es.tEX (V/m) @ t=1.04
0.7397549048437497
% es.tEY (V/m) @ t=1.04
0
% es.tEZ (V/m) @ t=1.04
0.7516289713629973
% es.Ex (V/m) @ t=1.04
0.7397549048437533
% es.Ey (V/m) @ t=1.04