% Model:              1 neuron.mph
% Version:            COMSOL 6.0.0.405
% Date:               Mar 16 2023, 17:04
% Dimension:          0
% Nodes:              14017
% Expressions:        14017
% Description:        Electric field norm, Electric field, X component, Electric field, Y component, Electric field, Z component, Tangential electric field, X component, Tangential electric field, Y component, Tangential electric field, Z component, Electric field, x component, Electric field, y component, Electric field, z component, Tangential electric field, x component, Tangential electric field, y component, Tangential electric field, z component, Electric potential
% Length unit:        mm
% x
1.33
% y
12.2
% z
1
% es.normE (V/m) @ t=0
1.5582751582533627
% es.EX (V/m) @ t=0
0.48098349013061603
% es.EY (V/m) @ t=0
0.11652454390931333
% es.EZ (V/m) @ t=0
1.4775881806785267
% es.tEX (V/m) @ t=0
0.4809834901306189
% es.tEY (V/m) @ t=0
0
% es.tEZ (V/m) @ t=0
1.4775881806785307
% es.Ex (V/m) @ t=0
0.48098349013061603
% es.Ey (V/m) @ t=0
0.11652454390931333
% es.Ez (V/m) @ t=0
1.4775881806785267
% es.tEx (V/m) @ t=0
0.4809834901306189
% es.tEy (V/m) @ t=0
0
% es.tEz (V/m) @ t=0
1.4775881806785307
% V (V) @ t=0
0.007288093381636403
% es.normE (V/m) @ t=0.02
1.345910854834798
% es.EX (V/m) @ t=0.02
0.4154342687563506
% es.EY (V/m) @ t=0.02
0.10064438628339956
% es.EZ (V/m) @ t=0.02
1.276220031336038
% es.tEX (V/m) @ t=0.02
0.4154342687563535
% es.tEY (V/m) @ t=0.02
0
% es.tEZ (V/m) @ t=0.02
1.2762200313360372
% es.Ex (V/m) @ t=0.02
0.4154342687563506
% es.Ey (V/m) @ t=0.02
0.10064438628339956
% es.Ez (V/m) @ t=0.02
1.276220031336038
% es.tEx (V/m) @ t=0.02
0.4154342687563535
% es.tEy (V/m) @ t=0.02
0
% es.tEz (V/m) @ t=0.02
1.2762200313360372
% V (V) @ t=0.02
0.0062948599499864245
% es.normE (V/m) @ t=0.04
1.358289145535036
% es.EX (V/m) @ t=0.04
0.41925500464048115
% es.EY (V/m) @ t=0.04
0.10157000054709325
% es.EZ (V/m) @ t=0.04
1.2879573779192366
% es.tEX (V/m) @ t=0.04
0.41925500464048326
% es.tEY (V/m) @ t=0.04
0
% es.tEZ (V/m) @ t=0.04
1.2879573779192457
% es.Ex (V/m) @ t=0.04
0.41925500464048115
% es.Ey (V/m) @ t=0.04
0.10157000054709325
% es.Ez (V/m) @ t=0.04
1.2879573779192366
% es.tEx (V/m) @ t=0.04
0.41925500464048326
% es.tEy (V/m) @ t=0.04
0
% es.tEz (V/m) @ t=0.04
1.2879573779192457
% V (V) @ t=0.04
0.006352752928396826
% es.normE (V/m) @ t=0.06
1.3707796912980759
% es.EX (V/m) @ t=0.06
0.4231103923740227
% es.EY (V/m) @ t=0.06
0.10250400062593096
% es.EZ (V/m) @ t=0.06
1.299801166776621
% es.tEX (V/m) @ t=0.06
0.42311039237402426
% es.tEY (V/m) @ t=0.06
0
% es.tEZ (V/m) @ t=0.06
1.2998011667766303
% es.Ex (V/m) @ t=0.06
0.4231103923740227
% es.Ey (V/m) @ t=0.06
0.10250400062593096
% es.Ez (V/m) @ t=0.06
1.299801166776621
% es.tEx (V/m) @ t=0.06
0.42311039237402426
% es.tEy (V/m) @ t=0.06
0
% es.tEz (V/m) @ t=0.06
1.2998011667766303
% V (V) @ t=0.06
0.006411170283678834
% es.normE (V/m) @ t=0.08
1.38345927080795
% es.EX (V/m) @ t=0.08
0.4270241229816262
% es.EY (V/m) @ t=0.08
0.10345215147826126
% es.EZ (V/m) @ t=0.08
1.311824201760368
% es.tEX (V/m) @ t=0.08
0.4270241229816314
% es.tEY (V/m) @ t=0.08
0
% es.tEZ (V/m) @ t=0.08
1.311824201760368
% es.Ex (V/m) @ t=0.08
0.4270241229816262
% es.Ey (V/m) @ t=0.08
0.10345215147826126
% es.Ez (V/m) @ t=0.08
1.311824201760368
% es.tEx (V/m) @ t=0.08
0.4270241229816314
% es.tEy (V/m) @ t=0.08
0
% es.tEz (V/m) @ t=0.08
1.311824201760368
% V (V) @ t=0.08
0.0064704728979287415
% es.normE (V/m) @ t=0.1
1.3962738730300437
% es.EX (V/m) @ t=0.1
0.43097952664088257
% es.EY (V/m) @ t=0.1
0.10441040992173867
% es.EZ (V/m) @ t=0.1
1.3239752683709565
% es.tEX (V/m) @ t=0.1
0.43097952664088623
% es.tEY (V/m) @ t=0.1
0
% es.tEZ (V/m) @ t=0.1
1.3239752683709671
% es.Ex (V/m) @ t=0.1
0.43097952664088257
% es.Ey (V/m) @ t=0.1
0.10441040992173867
% es.Ez (V/m) @ t=0.1
1.3239752683709565
% es.tEx (V/m) @ t=0.1
0.43097952664088623
% es.tEy (V/m) @ t=0.1
0
% es.tEz (V/m) @ t=0.1
1.3239752683709671
% V (V) @ t=0.1
0.006530407833490954
% es.normE (V/m) @ t=0.12
1.409088475252131
% es.EX (V/m) @ t=0.12
0.43493493030013275
% es.EY (V/m) @ t=0.12
0.1053686683651961
% es.EZ (V/m) @ t=0.12
1.3361263349815418
% es.tEX (V/m) @ t=0.12
0.43493493030013397
% es.tEY (V/m) @ t=0.12
0
% es.tEZ (V/m) @ t=0.12
1.3361263349815449
% es.Ex (V/m) @ t=0.12
0.43493493030013275
% es.Ey (V/m) @ t=0.12
0.1053686683651961
% es.Ez (V/m) @ t=0.12
1.3361263349815418
% es.tEx (V/m) @ t=0.12
0.43493493030013397
% es.tEy (V/m) @ t=0.12
0
% es.tEz (V/m) @ t=0.12
1.3361263349815449
% V (V) @ t=0.12
0.006590342769053166
% es.normE (V/m) @ t=0.14
1.4220240842335001
% es.EX (V/m) @ t=0.14
0.43892768553810757
% es.EY (V/m) @ t=0.14
0.10633597194681155
% es.EZ (V/m) @ t=0.14
1.3483921425537417
% es.tEX (V/m) @ t=0.14
0.4389276855381077
% es.tEY (V/m) @ t=0.14
0
% es.tEZ (V/m) @ t=0.14
1.3483921425537506
% es.Ex (V/m) @ t=0.14
0.43892768553810757
% es.Ey (V/m) @ t=0.14
0.10633597194681155
% es.Ez (V/m) @ t=0.14
1.3483921425537417
% es.tEx (V/m) @ t=0.14
0.4389276855381077
% es.tEy (V/m) @ t=0.14
0
% es.tEz (V/m) @ t=0.14
1.3483921425537506
% V (V) @ t=0.14
0.006650843390726747
% es.normE (V/m) @ t=0.16
1.435523686472343
% es.EX (V/m) @ t=0.16
0.4430945305432641
% es.EY (V/m) @ t=0.16
0.10734543347853387
% es.EZ (V/m) @ t=0.16
1.3611927394971621
% es.tEX (V/m) @ t=0.16
0.443094530543263
% es.tEY (V/m) @ t=0.16
0
% es.tEZ (V/m) @ t=0.16
1.3611927394971666
% es.Ex (V/m) @ t=0.16
0.4430945305432641
% es.Ey (V/m) @ t=0.16
0.10734543347853387
% es.Ez (V/m) @ t=0.16
1.3611927394971621
% es.tEx (V/m) @ t=0.16
0.443094530543263
% es.tEy (V/m) @ t=0.16
0
% es.tEz (V/m) @ t=0.16
1.3611927394971666
% V (V) @ t=0.16
0.006713980585386979
% es.normE (V/m) @ t=0.18
1.4490232887111771
% es.EX (V/m) @ t=0.18
0.44726137554841494
% es.EY (V/m) @ t=0.18
0.10835489501026396
% es.EZ (V/m) @ t=0.18
1.3739933364405745
% es.tEX (V/m) @ t=0.18
0.44726137554841827
% es.tEY (V/m) @ t=0.18
0
% es.tEZ (V/m) @ t=0.18
1.3739933364405754
% es.Ex (V/m) @ t=0.18
0.44726137554841494
% es.Ey (V/m) @ t=0.18
0.10835489501026396
% es.Ez (V/m) @ t=0.18
1.3739933364405745
% es.tEx (V/m) @ t=0.18
0.44726137554841827
% es.tEy (V/m) @ t=0.18
0
% es.tEz (V/m) @ t=0.18
1.3739933364405754
% V (V) @ t=0.18
0.006777117780047213
% es.normE (V/m) @ t=0.2
1.4625228909500212
% es.EX (V/m) @ t=0.2
0.45142822055357834
% es.EY (V/m) @ t=0.2
0.10936435654196874
% es.EZ (V/m) @ t=0.2
1.386793933383995
% es.tEX (V/m) @ t=0.2
0.4514282205535807
% es.tEY (V/m) @ t=0.2
0
% es.tEZ (V/m) @ t=0.2
1.3867939333839985
% es.Ex (V/m) @ t=0.2
0.45142822055357834
% es.Ey (V/m) @ t=0.2
0.10936435654196874
% es.Ez (V/m) @ t=0.2
1.386793933383995
% es.tEx (V/m) @ t=0.2
0.4514282205535807
% es.tEy (V/m) @ t=0.2
0
% es.tEz (V/m) @ t=0.2
1.3867939333839985
% V (V) @ t=0.2
0.006840254974707446
% es.normE (V/m) @ t=0.22
1.4760224931888795
% es.EX (V/m) @ t=0.22
0.4555950655587371
% es.EY (V/m) @ t=0.22
0.1103738180737106
% es.EZ (V/m) @ t=0.22
1.399594530327429
% es.tEX (V/m) @ t=0.22
0.4555950655587466
% es.tEY (V/m) @ t=0.22
0
% es.tEZ (V/m) @ t=0.22
1.3995945303274286
% es.Ex (V/m) @ t=0.22
0.4555950655587371
% es.Ey (V/m) @ t=0.22
0.1103738180737106
% es.Ez (V/m) @ t=0.22
1.399594530327429
% es.tEx (V/m) @ t=0.22
0.4555950655587466
% es.tEy (V/m) @ t=0.22
0
% es.tEz (V/m) @ t=0.22
1.3995945303274286
% V (V) @ t=0.22
0.00690339216936768
% es.normE (V/m) @ t=0.24
1.4895220954277066
% es.EX (V/m) @ t=0.24
0.4597619105638877
% es.EY (V/m) @ t=0.24
0.11138327960542416
% es.EZ (V/m) @ t=0.24
1.4123951272708348
% es.tEX (V/m) @ t=0.24
0.45976191056389126
% es.tEY (V/m) @ t=0.24
0
% es.tEZ (V/m) @ t=0.24
1.4123951272708446
% es.Ex (V/m) @ t=0.24
0.4597619105638877
% es.Ey (V/m) @ t=0.24
0.11138327960542416
% es.Ez (V/m) @ t=0.24
1.4123951272708348
% es.tEx (V/m) @ t=0.24
0.45976191056389126
% es.tEy (V/m) @ t=0.24
0
% es.tEz (V/m) @ t=0.24
1.4123951272708446
% V (V) @ t=0.24
0.006966529364027913
% es.normE (V/m) @ t=0.26
1.5030216976665653
% es.EX (V/m) @ t=0.26
0.4639287555690599
% es.EY (V/m) @ t=0.26
0.11239274113714459
% es.EZ (V/m) @ t=0.26
1.4251957242142663
% es.tEX (V/m) @ t=0.26
0.4639287555690643
% es.tEY (V/m) @ t=0.26
0
% es.tEZ (V/m) @ t=0.26
1.4251957242142677
% es.Ex (V/m) @ t=0.26
0.4639287555690599
% es.Ey (V/m) @ t=0.26
0.11239274113714459
% es.Ez (V/m) @ t=0.26
1.4251957242142663
% es.tEx (V/m) @ t=0.26
0.4639287555690643
% es.tEy (V/m) @ t=0.26
0
% es.tEz (V/m) @ t=0.26
1.4251957242142677
% V (V) @ t=0.26
0.007029666558688145
% es.normE (V/m) @ t=0.28
1.5170811659500458
% es.EX (V/m) @ t=0.28
0.46826841901533056
% es.EY (V/m) @ t=0.28
0.11344404381200268
% es.EZ (V/m) @ t=0.28
1.4385271967979687
% es.tEX (V/m) @ t=0.28
0.468268419015331
% es.tEY (V/m) @ t=0.28
0
% es.tEZ (V/m) @ t=0.28
1.438527196797967
% es.Ex (V/m) @ t=0.28
0.46826841901533056
% es.Ey (V/m) @ t=0.28
0.11344404381200268
% es.Ez (V/m) @ t=0.28
1.4385271967979687
% es.tEx (V/m) @ t=0.28
0.468268419015331
% es.tEy (V/m) @ t=0.28
0
% es.tEz (V/m) @ t=0.28
1.438527196797967
% V (V) @ t=0.28
0.007095420366305169
% es.normE (V/m) @ t=0.3
1.5321218892739958
% es.EX (V/m) @ t=0.3
0.4729109744981279
% es.EY (V/m) @ t=0.3
0.11456867980114471
% es.EZ (V/m) @ t=0.3
1.452789114088707
% es.tEX (V/m) @ t=0.3
0.47291097449813435
% es.tEY (V/m) @ t=0.3
0
% es.tEZ (V/m) @ t=0.3
1.4527891140887004
% es.Ex (V/m) @ t=0.3
0.4729109744981279
% es.Ey (V/m) @ t=0.3
0.11456867980114471
% es.Ez (V/m) @ t=0.3
1.452789114088707
% es.tEx (V/m) @ t=0.3
0.47291097449813435
% es.tEy (V/m) @ t=0.3
0
% es.tEz (V/m) @ t=0.3
1.4527891140887004
% V (V) @ t=0.3
0.007165760207809195
% es.normE (V/m) @ t=0.32
1.5471626125979392
% es.EX (V/m) @ t=0.32
0.4775535299809137
% es.EY (V/m) @ t=0.32
0.11569331579025321
% es.EZ (V/m) @ t=0.32
1.4670510313794378
% es.tEX (V/m) @ t=0.32
0.4775535299809164
% es.tEY (V/m) @ t=0.32
0
% es.tEZ (V/m) @ t=0.32
1.467051031379441
% es.Ex (V/m) @ t=0.32
0.4775535299809137
% es.Ey (V/m) @ t=0.32
0.11569331579025321
% es.Ez (V/m) @ t=0.32
1.4670510313794378
% es.tEx (V/m) @ t=0.32
0.4775535299809164
% es.tEy (V/m) @ t=0.32
0
% es.tEz (V/m) @ t=0.32
1.467051031379441
% V (V) @ t=0.32
0.007236100049313221
% es.normE (V/m) @ t=0.34
1.5622033359219158
% es.EX (V/m) @ t=0.34
0.48219608546371295
% es.EY (V/m) @ t=0.34
0.11681795177939347
% es.EZ (V/m) @ t=0.34
1.4813129486701904
% es.tEX (V/m) @ t=0.34
0.4821960854637126
% es.tEY (V/m) @ t=0.34
0
% es.tEZ (V/m) @ t=0.34
1.4813129486701904
% es.Ex (V/m) @ t=0.34
0.48219608546371295
% es.Ey (V/m) @ t=0.34
0.11681795177939347
% es.Ez (V/m) @ t=0.34
1.4813129486701904
% es.tEx (V/m) @ t=0.34
0.4821960854637126
% es.tEy (V/m) @ t=0.34
0
% es.tEz (V/m) @ t=0.34
1.4813129486701904
% V (V) @ t=0.34
0.007306439890817246
% es.normE (V/m) @ t=0.36
1.5772440592458943
% es.EX (V/m) @ t=0.36
0.4868386409465095
% es.EY (V/m) @ t=0.36
0.11794258776853372
% es.EZ (V/m) @ t=0.36
1.4955748659609394
% es.tEX (V/m) @ t=0.36
0.48683864094650886
% es.tEY (V/m) @ t=0.36
0
% es.tEZ (V/m) @ t=0.36
1.495574865960931
% es.Ex (V/m) @ t=0.36
0.4868386409465095
% es.Ey (V/m) @ t=0.36
0.11794258776853372
% es.Ez (V/m) @ t=0.36
1.4955748659609394
% es.tEx (V/m) @ t=0.36
0.48683864094650886
% es.tEy (V/m) @ t=0.36
0
% es.tEz (V/m) @ t=0.36
1.495574865960931
% V (V) @ t=0.36
0.00737677973232127
% es.normE (V/m) @ t=0.38
1.5922847825698574
% es.EX (V/m) @ t=0.38
0.4914811964292993
% es.EY (V/m) @ t=0.38
0.119067223757653
% es.EZ (V/m) @ t=0.38
1.5098367832516701
% es.tEX (V/m) @ t=0.38
0.4914811964293051
% es.tEY (V/m) @ t=0.38
0
% es.tEZ (V/m) @ t=0.38
1.5098367832516786
% es.Ex (V/m) @ t=0.38
0.4914811964292993
% es.Ey (V/m) @ t=0.38
0.119067223757653
% es.Ez (V/m) @ t=0.38
1.5098367832516701
% es.tEx (V/m) @ t=0.38
0.4914811964293051
% es.tEy (V/m) @ t=0.38
0
% es.tEz (V/m) @ t=0.38
1.5098367832516786
% V (V) @ t=0.38
0.007447119573825297
% es.normE (V/m) @ t=0.4
1.607325505893844
% es.EX (V/m) @ t=0.4
0.49612375191209823
% es.EY (V/m) @ t=0.4
0.1201918597467847
% es.EZ (V/m) @ t=0.4
1.5240987005424156
% es.tEX (V/m) @ t=0.4
0.49612375191210134
% es.tEY (V/m) @ t=0.4
0
% es.tEZ (V/m) @ t=0.4
1.5240987005424262
% es.Ex (V/m) @ t=0.4
0.49612375191209823
% es.Ey (V/m) @ t=0.4
0.1201918597467847
% es.Ez (V/m) @ t=0.4
1.5240987005424156
% es.tEx (V/m) @ t=0.4
0.49612375191210134
% es.tEy (V/m) @ t=0.4
0
% es.tEz (V/m) @ t=0.4
1.5240987005424262
% V (V) @ t=0.4
0.007517459415329321
% es.normE (V/m) @ t=0.42
1.622366229217835
% es.EX (V/m) @ t=0.42
0.5007663073948849
% es.EY (V/m) @ t=0.42
0.12131649573589987
% es.EZ (V/m) @ t=0.42
1.538360617833165
% es.tEX (V/m) @ t=0.42
0.5007663073948905
% es.tEY (V/m) @ t=0.42
0
% es.tEZ (V/m) @ t=0.42
1.5383606178331597
% es.Ex (V/m) @ t=0.42
0.5007663073948849
% es.Ey (V/m) @ t=0.42
0.12131649573589987
% es.Ez (V/m) @ t=0.42
1.538360617833165
% es.tEx (V/m) @ t=0.42
0.5007663073948905
% es.tEy (V/m) @ t=0.42
0
% es.tEz (V/m) @ t=0.42
1.5383606178331597
% V (V) @ t=0.42
0.007587799256833346
% es.normE (V/m) @ t=0.44
1.6374069525418289
% es.EX (V/m) @ t=0.44
0.5054088628776852
% es.EY (V/m) @ t=0.44
0.12244113172502802
% es.EZ (V/m) @ t=0.44
1.5526225351239065
% es.tEX (V/m) @ t=0.44
0.5054088628776867
% es.tEY (V/m) @ t=0.44
0
% es.tEZ (V/m) @ t=0.44
1.5526225351239091
% es.Ex (V/m) @ t=0.44
0.5054088628776852
% es.Ey (V/m) @ t=0.44
0.12244113172502802
% es.Ez (V/m) @ t=0.44
1.5526225351239065
% es.tEx (V/m) @ t=0.44
0.5054088628776867
% es.tEy (V/m) @ t=0.44
0
% es.tEz (V/m) @ t=0.44
1.5526225351239091
% V (V) @ t=0.44
0.007658139098337372
% es.normE (V/m) @ t=0.46
1.6524476758658206
% es.EX (V/m) @ t=0.46
0.5100514183604788
% es.EY (V/m) @ t=0.46
0.12356576771416272
% es.EZ (V/m) @ t=0.46
1.5668844524146417
% es.tEX (V/m) @ t=0.46
0.5100514183604759
% es.tEY (V/m) @ t=0.46
0
% es.tEZ (V/m) @ t=0.46
1.5668844524146426
% es.Ex (V/m) @ t=0.46
0.5100514183604788
% es.Ey (V/m) @ t=0.46
0.12356576771416272
% es.Ez (V/m) @ t=0.46
1.5668844524146417
% es.tEx (V/m) @ t=0.46
0.5100514183604759
% es.tEy (V/m) @ t=0.46
0
% es.tEz (V/m) @ t=0.46
1.5668844524146426
% V (V) @ t=0.46
0.007728478939841396
% es.normE (V/m) @ t=0.48
1.66748839918984
% es.EX (V/m) @ t=0.48
0.5146939738432795
% es.EY (V/m) @ t=0.48
0.12469040370330142
% es.EZ (V/m) @ t=0.48
1.5811463697053982
% es.tEX (V/m) @ t=0.48
0.5146939738432863
% es.tEY (V/m) @ t=0.48
0
% es.tEZ (V/m) @ t=0.48
1.5811463697053991
% es.Ex (V/m) @ t=0.48
0.5146939738432795
% es.Ey (V/m) @ t=0.48
0.12469040370330142
% es.Ez (V/m) @ t=0.48
1.5811463697053982
% es.tEx (V/m) @ t=0.48
0.5146939738432863
% es.tEy (V/m) @ t=0.48
0
% es.tEz (V/m) @ t=0.48
1.5811463697053991
% V (V) @ t=0.48
0.007798818781345421
% es.normE (V/m) @ t=0.5
1.6825291225138421
% es.EX (V/m) @ t=0.5
0.5193365293260707
% es.EY (V/m) @ t=0.5
0.12581503969241858
% es.EZ (V/m) @ t=0.5
1.5954082869961361
% es.tEX (V/m) @ t=0.5
0.5193365293260754
% es.tEY (V/m) @ t=0.5
0
% es.tEZ (V/m) @ t=0.5
1.5954082869961415
% es.Ex (V/m) @ t=0.5
0.5193365293260707
% es.Ey (V/m) @ t=0.5
0.12581503969241858
% es.Ez (V/m) @ t=0.5
1.5954082869961361
% es.tEx (V/m) @ t=0.5
0.5193365293260754
% es.tEy (V/m) @ t=0.5
0
% es.tEz (V/m) @ t=0.5
1.5954082869961415
% V (V) @ t=0.5
0.007869158622849447
% es.normE (V/m) @ t=0.52
1.6975698458378636
% es.EX (V/m) @ t=0.52
0.5239790848088628
% es.EY (V/m) @ t=0.52
0.12693967568154663
% es.EZ (V/m) @ t=0.52
1.6096702042868882
% es.tEX (V/m) @ t=0.52
0.5239790848088646
% es.tEY (V/m) @ t=0.52
0
% es.tEZ (V/m) @ t=0.52
1.6096702042868944
% es.Ex (V/m) @ t=0.52
0.5239790848088628
% es.Ey (V/m) @ t=0.52
0.12693967568154663
% es.Ez (V/m) @ t=0.52
1.6096702042868882
% es.tEx (V/m) @ t=0.52
0.5239790848088646
% es.tEy (V/m) @ t=0.52
0
% es.tEz (V/m) @ t=0.52
1.6096702042868944
% V (V) @ t=0.52
0.007939498464353472
% es.normE (V/m) @ t=0.54
1.7126105691618627
% es.EX (V/m) @ t=0.54
0.5286216402916406
% es.EY (V/m) @ t=0.54
0.12806431167067867
% es.EZ (V/m) @ t=0.54
1.623932121577616
% es.tEX (V/m) @ t=0.54
0.5286216402916466
% es.tEY (V/m) @ t=0.54
0
% es.tEZ (V/m) @ t=0.54
1.6239321215776208
% es.Ex (V/m) @ t=0.54
0.5286216402916406
% es.Ey (V/m) @ t=0.54
0.12806431167067867
% es.Ez (V/m) @ t=0.54
1.623932121577616
% es.tEx (V/m) @ t=0.54
0.5286216402916466
% es.tEy (V/m) @ t=0.54
0
% es.tEz (V/m) @ t=0.54
1.6239321215776208
% V (V) @ t=0.54
0.008009838305857497
% es.normE (V/m) @ t=0.56
1.7289399903029792
% es.EX (V/m) @ t=0.56
0.5336619320003056
% es.EY (V/m) @ t=0.56
0.12928543159588335
% es.EZ (V/m) @ t=0.56
1.6394160118968268
% es.tEX (V/m) @ t=0.56
0.5336619320003066
% es.tEY (V/m) @ t=0.56
0
% es.tEZ (V/m) @ t=0.56
1.6394160118968362
% es.Ex (V/m) @ t=0.56
0.5336619320003056
% es.Ey (V/m) @ t=0.56
0.12928543159588335
% es.Ez (V/m) @ t=0.56
1.6394160118968268
% es.tEx (V/m) @ t=0.56
0.5336619320003066
% es.tEy (V/m) @ t=0.56
0
% es.tEz (V/m) @ t=0.56
1.6394160118968362
% V (V) @ t=0.56
0.008086214465219125
% es.normE (V/m) @ t=0.58
1.7457303534373878
% es.EX (V/m) @ t=0.58
0.5388444861744672
% es.EY (V/m) @ t=0.58
0.13054106193711412
% es.EZ (V/m) @ t=0.58
1.655336978058036
% es.tEX (V/m) @ t=0.58
0.5388444861744688
% es.tEY (V/m) @ t=0.58
0
% es.tEZ (V/m) @ t=0.58
1.6553369780580383
% es.Ex (V/m) @ t=0.58
0.5388444861744672
% es.Ey (V/m) @ t=0.58
0.13054106193711412
% es.Ez (V/m) @ t=0.58
1.655336978058036
% es.tEx (V/m) @ t=0.58
0.5388444861744688
% es.tEy (V/m) @ t=0.58
0
% es.tEz (V/m) @ t=0.58
1.6553369780580383
% V (V) @ t=0.58
0.008164749697366108
% es.normE (V/m) @ t=0.6
1.762520716571784
% es.EX (V/m) @ t=0.6
0.5440270403486251
% es.EY (V/m) @ t=0.6
0.13179669227836266
% es.EZ (V/m) @ t=0.6
1.6712579442192235
% es.tEX (V/m) @ t=0.6
0.5440270403486309
% es.tEY (V/m) @ t=0.6
0
% es.tEZ (V/m) @ t=0.6
1.671257944219228
% es.Ex (V/m) @ t=0.6
0.5440270403486251
% es.Ey (V/m) @ t=0.6
0.13179669227836266
% es.Ez (V/m) @ t=0.6
1.6712579442192235
% es.tEx (V/m) @ t=0.6
0.5440270403486309
% es.tEy (V/m) @ t=0.6
0
% es.tEz (V/m) @ t=0.6
1.671257944219228
% V (V) @ t=0.6
0.008243284929513097
% es.normE (V/m) @ t=0.62
1.7793110797062144
% es.EX (V/m) @ t=0.62
0.5492095945227925
% es.EY (V/m) @ t=0.62
0.13305232261957445
% es.EZ (V/m) @ t=0.62
1.6871789103804384
% es.tEX (V/m) @ t=0.62
0.549209594522793
% es.tEY (V/m) @ t=0.62
0
% es.tEZ (V/m) @ t=0.62
1.6871789103804442
% es.Ex (V/m) @ t=0.62
0.5492095945227925
% es.Ey (V/m) @ t=0.62
0.13305232261957445
% es.Ez (V/m) @ t=0.62
1.6871789103804384
% es.tEx (V/m) @ t=0.62
0.549209594522793
% es.tEy (V/m) @ t=0.62
0
% es.tEz (V/m) @ t=0.62
1.6871789103804442
% V (V) @ t=0.62
0.008321820161660083
% es.normE (V/m) @ t=0.64
1.7961014428406328
% es.EX (V/m) @ t=0.64
0.5543921486969456
% es.EY (V/m) @ t=0.64
0.13430795296083042
% es.EZ (V/m) @ t=0.64
1.7030998765416334
% es.tEX (V/m) @ t=0.64
0.5543921486969481
% es.tEY (V/m) @ t=0.64
0
% es.tEZ (V/m) @ t=0.64
1.703099876541632
% es.Ex (V/m) @ t=0.64
0.5543921486969456
% es.Ey (V/m) @ t=0.64
0.13430795296083042
% es.Ez (V/m) @ t=0.64
1.7030998765416334
% es.tEx (V/m) @ t=0.64
0.5543921486969481
% es.tEy (V/m) @ t=0.64
0
% es.tEz (V/m) @ t=0.64
1.703099876541632
% V (V) @ t=0.64
0.00840035539380707
% es.normE (V/m) @ t=0.66
1.8128918059750747
% es.EX (V/m) @ t=0.66
0.5595747028711041
% es.EY (V/m) @ t=0.66
0.1355635833020673
% es.EZ (V/m) @ t=0.66
1.7190208427028453
% es.tEX (V/m) @ t=0.66
0.5595747028711102
% es.tEY (V/m) @ t=0.66
0
% es.tEZ (V/m) @ t=0.66
1.7190208427028555
% es.Ex (V/m) @ t=0.66
0.5595747028711041
% es.Ey (V/m) @ t=0.66
0.1355635833020673
% es.Ez (V/m) @ t=0.66
1.7190208427028453
% es.tEx (V/m) @ t=0.66
0.5595747028711102
% es.tEy (V/m) @ t=0.66
0
% es.tEz (V/m) @ t=0.66
1.7190208427028555
% V (V) @ t=0.66
0.008478890625954055
% es.normE (V/m) @ t=0.68
1.8296821691095109
% es.EX (V/m) @ t=0.68
0.5647572570452678
% es.EY (V/m) @ t=0.68
0.13681921364329463
% es.EZ (V/m) @ t=0.68
1.7349418088640425
% es.tEX (V/m) @ t=0.68
0.5647572570452652
% es.tEY (V/m) @ t=0.68
0
% es.tEZ (V/m) @ t=0.68
1.7349418088640505
% es.Ex (V/m) @ t=0.68
0.5647572570452678
% es.Ey (V/m) @ t=0.68
0.13681921364329463
% es.Ez (V/m) @ t=0.68
1.7349418088640425
% es.tEx (V/m) @ t=0.68
0.5647572570452652
% es.tEy (V/m) @ t=0.68
0
% es.tEz (V/m) @ t=0.68
1.7349418088640505
% V (V) @ t=0.68
0.008557425858101042
% es.normE (V/m) @ t=0.7
1.8464725322439626
% es.EX (V/m) @ t=0.7
0.5699398112194174
% es.EY (V/m) @ t=0.7
0.13807484398454484
% es.EZ (V/m) @ t=0.7
1.7508627750252517
% es.tEX (V/m) @ t=0.7
0.5699398112194203
% es.tEY (V/m) @ t=0.7
0
% es.tEZ (V/m) @ t=0.7
1.7508627750252526
% es.Ex (V/m) @ t=0.7
0.5699398112194174
% es.Ey (V/m) @ t=0.7
0.13807484398454484
% es.Ez (V/m) @ t=0.7
1.7508627750252517
% es.tEx (V/m) @ t=0.7
0.5699398112194203
% es.tEy (V/m) @ t=0.7
0
% es.tEz (V/m) @ t=0.7
1.7508627750252526
% V (V) @ t=0.7
0.008635961090248029
% es.normE (V/m) @ t=0.72
1.8632628953784138
% es.EX (V/m) @ t=0.72
0.5751223653935851
% es.EY (V/m) @ t=0.72
0.13933047432576917
% es.EZ (V/m) @ t=0.72
1.7667837411864489
% es.tEX (V/m) @ t=0.72
0.5751223653935753
% es.tEY (V/m) @ t=0.72
0
% es.tEZ (V/m) @ t=0.72
1.7667837411864546
% es.Ex (V/m) @ t=0.72
0.5751223653935851
% es.Ey (V/m) @ t=0.72
0.13933047432576917
% es.Ez (V/m) @ t=0.72
1.7667837411864489
% es.tEx (V/m) @ t=0.72
0.5751223653935753
% es.tEy (V/m) @ t=0.72
0
% es.tEz (V/m) @ t=0.72
1.7667837411864546
% V (V) @ t=0.72
0.008714496322395014
% es.normE (V/m) @ t=0.74
1.8800532585128775
% es.EX (V/m) @ t=0.74
0.5803049195677332
% es.EY (V/m) @ t=0.74
0.14058610466700916
% es.EZ (V/m) @ t=0.74
1.7827047073476576
% es.tEX (V/m) @ t=0.74
0.5803049195677374
% es.tEY (V/m) @ t=0.74
0
% es.tEZ (V/m) @ t=0.74
1.7827047073476567
% es.Ex (V/m) @ t=0.74
0.5803049195677332
% es.Ey (V/m) @ t=0.74
0.14058610466700916
% es.Ez (V/m) @ t=0.74
1.7827047073476576
% es.tEx (V/m) @ t=0.74
0.5803049195677374
% es.tEy (V/m) @ t=0.74
0
% es.tEz (V/m) @ t=0.74
1.7827047073476567
% V (V) @ t=0.74
0.008793031554542002
% es.normE (V/m) @ t=0.76
1.8968436216473417
% es.EX (V/m) @ t=0.76
0.585487473741892
% es.EY (V/m) @ t=0.76
0.1418417350082456
% es.EZ (V/m) @ t=0.76
1.7986256735088562
% es.tEX (V/m) @ t=0.76
0.5854874737418996
% es.tEY (V/m) @ t=0.76
0
% es.tEZ (V/m) @ t=0.76
1.798625673508866
% es.Ex (V/m) @ t=0.76
0.585487473741892
% es.Ey (V/m) @ t=0.76
0.1418417350082456
% es.Ez (V/m) @ t=0.76
1.7986256735088562
% es.tEx (V/m) @ t=0.76
0.5854874737418996
% es.tEy (V/m) @ t=0.76
0
% es.tEz (V/m) @ t=0.76
1.798625673508866
% V (V) @ t=0.76
0.008871566786688987
% es.normE (V/m) @ t=0.78
1.9136339847818298
% es.EX (V/m) @ t=0.78
0.5906700279160588
% es.EY (V/m) @ t=0.78
0.14309736534948214
% es.EZ (V/m) @ t=0.78
1.8145466396700711
% es.tEX (V/m) @ t=0.78
0.5906700279160546
% es.tEY (V/m) @ t=0.78
0
% es.tEZ (V/m) @ t=0.78
1.814546639670068
% es.Ex (V/m) @ t=0.78
0.5906700279160588
% es.Ey (V/m) @ t=0.78
0.14309736534948214
% es.Ez (V/m) @ t=0.78
1.8145466396700711
% es.tEx (V/m) @ t=0.78
0.5906700279160546
% es.tEy (V/m) @ t=0.78
0
% es.tEz (V/m) @ t=0.78
1.814546639670068
% V (V) @ t=0.78
0.008950102018835974
% es.normE (V/m) @ t=0.8
1.9304243479163063
% es.EX (V/m) @ t=0.8
0.5958525820902193
% es.EY (V/m) @ t=0.8
0.14435299569072535
% es.EZ (V/m) @ t=0.8
1.8304676058312688
% es.tEX (V/m) @ t=0.8
0.5958525820902167
% es.tEY (V/m) @ t=0.8
0
% es.tEZ (V/m) @ t=0.8
1.8304676058312719
% es.Ex (V/m) @ t=0.8
0.5958525820902193
% es.Ey (V/m) @ t=0.8
0.14435299569072535
% es.Ez (V/m) @ t=0.8
1.8304676058312688
% es.tEx (V/m) @ t=0.8
0.5958525820902167
% es.tEy (V/m) @ t=0.8
0
% es.tEz (V/m) @ t=0.8
1.8304676058312719
% V (V) @ t=0.8
0.00902863725098296
% es.normE (V/m) @ t=0.82
1.947432557474205
% es.EX (V/m) @ t=0.82
0.6011023839374303
% es.EY (V/m) @ t=0.82
0.14562489684314617
% es.EZ (V/m) @ t=0.82
1.8465951378078023
% es.tEX (V/m) @ t=0.82
0.6011023839374232
% es.tEY (V/m) @ t=0.82
0
% es.tEZ (V/m) @ t=0.82
1.8465951378078067
% es.Ex (V/m) @ t=0.82
0.6011023839374303
% es.Ey (V/m) @ t=0.82
0.14562489684314617
% es.Ez (V/m) @ t=0.82
1.8465951378078023
% es.tEx (V/m) @ t=0.82
0.6011023839374232
% es.tEy (V/m) @ t=0.82
0
% es.tEz (V/m) @ t=0.82
1.8465951378078067
% V (V) @ t=0.82
0.009108189883832043
% es.normE (V/m) @ t=0.84
1.9662066647569398
% es.EX (V/m) @ t=0.84
0.6068973061083186
% es.EY (V/m) @ t=0.84
0.1470286917765059
% es.EZ (V/m) @ t=0.84
1.8643971251075224
% es.tEX (V/m) @ t=0.84
0.6068973061083156
% es.tEY (V/m) @ t=0.84
0
% es.tEZ (V/m) @ t=0.84
1.8643971251075264
% es.Ex (V/m) @ t=0.84
0.6068973061083186
% es.Ey (V/m) @ t=0.84
0.1470286917765059
% es.Ez (V/m) @ t=0.84
1.8643971251075224
% es.tEx (V/m) @ t=0.84
0.6068973061083156
% es.tEy (V/m) @ t=0.84
0
% es.tEz (V/m) @ t=0.84
1.8643971251075264
% V (V) @ t=0.84
0.00919598972844111
% es.normE (V/m) @ t=0.86
1.9849807720396808
% es.EX (V/m) @ t=0.86
0.6126922282792067
% es.EY (V/m) @ t=0.86
0.14843248670989861
% es.EZ (V/m) @ t=0.86
1.882199112407239
% es.tEX (V/m) @ t=0.86
0.612692228279208
% es.tEY (V/m) @ t=0.86
0
% es.tEZ (V/m) @ t=0.86
1.882199112407248
% es.Ex (V/m) @ t=0.86
0.6126922282792067
% es.Ey (V/m) @ t=0.86
0.14843248670989861
% es.Ez (V/m) @ t=0.86
1.882199112407239
% es.tEx (V/m) @ t=0.86
0.612692228279208
% es.tEy (V/m) @ t=0.86
0
% es.tEz (V/m) @ t=0.86
1.882199112407248
% V (V) @ t=0.86
0.00928378957305018
% es.normE (V/m) @ t=0.88
2.0037548793224476
% es.EX (V/m) @ t=0.88
0.6184871504500942
% es.EY (V/m) @ t=0.88
0.14983628164326235
% es.EZ (V/m) @ t=0.88
1.9000010997069774
% es.tEX (V/m) @ t=0.88
0.6184871504500933
% es.tEY (V/m) @ t=0.88
0
% es.tEZ (V/m) @ t=0.88
1.9000010997069818
% es.Ex (V/m) @ t=0.88
0.6184871504500942
% es.Ey (V/m) @ t=0.88
0.14983628164326235
% es.Ez (V/m) @ t=0.88
1.9000010997069774
% es.tEx (V/m) @ t=0.88
0.6184871504500933
% es.tEy (V/m) @ t=0.88
0
% es.tEz (V/m) @ t=0.88
1.9000010997069818
% V (V) @ t=0.88
0.00937158941765925
% es.normE (V/m) @ t=0.9
2.0225289866052076
% es.EX (V/m) @ t=0.9
0.624282072620989
% es.EY (V/m) @ t=0.9
0.15124007657662142
% es.EZ (V/m) @ t=0.9
1.9178030870066998
% es.tEX (V/m) @ t=0.9
0.6242820726209928
% es.tEY (V/m) @ t=0.9
0
% es.tEZ (V/m) @ t=0.9
1.9178030870067104
% es.Ex (V/m) @ t=0.9
0.624282072620989
% es.Ey (V/m) @ t=0.9
0.15124007657662142
% es.Ez (V/m) @ t=0.9
1.9178030870066998
% es.tEx (V/m) @ t=0.9
0.6242820726209928
% es.tEy (V/m) @ t=0.9
0
% es.tEz (V/m) @ t=0.9
1.9178030870067104
% V (V) @ t=0.9
0.009459389262268319
% es.normE (V/m) @ t=0.92
2.0413030938879615
% es.EX (V/m) @ t=0.92
0.6300769947918626
% es.EY (V/m) @ t=0.92
0.15264387151001224
% es.EZ (V/m) @ t=0.92
1.9356050743064133
% es.tEX (V/m) @ t=0.92
0.6300769947918639
% es.tEY (V/m) @ t=0.92
0
% es.tEZ (V/m) @ t=0.92
1.935605074306423
% es.Ex (V/m) @ t=0.92
0.6300769947918626
% es.Ey (V/m) @ t=0.92
0.15264387151001224
% es.Ez (V/m) @ t=0.92
1.9356050743064133
% es.tEx (V/m) @ t=0.92
0.6300769947918639
% es.tEy (V/m) @ t=0.92
0
% es.tEz (V/m) @ t=0.92
1.935605074306423
% V (V) @ t=0.92
0.009547189106877388
% es.normE (V/m) @ t=0.94
2.06007720117075
% es.EX (V/m) @ t=0.94
0.6358719169627579
% es.EY (V/m) @ t=0.94
0.15404766644336942
% es.EZ (V/m) @ t=0.94
1.9534070616061507
% es.tEX (V/m) @ t=0.94
0.6358719169627634
% es.tEY (V/m) @ t=0.94
0
% es.tEZ (V/m) @ t=0.94
1.9534070616061516
% es.Ex (V/m) @ t=0.94
0.6358719169627579
% es.Ey (V/m) @ t=0.94
0.15404766644336942
% es.Ez (V/m) @ t=0.94
1.9534070616061507
% es.tEx (V/m) @ t=0.94
0.6358719169627634
% es.tEy (V/m) @ t=0.94
0
% es.tEz (V/m) @ t=0.94
1.9534070616061516
% V (V) @ t=0.94
0.009634988951486458
% es.normE (V/m) @ t=0.96
2.078851308453534
% es.EX (V/m) @ t=0.96
0.6416668391336474
% es.EY (V/m) @ t=0.96
0.15545146137675403
% es.EZ (V/m) @ t=0.96
1.971209048905878
% es.tEX (V/m) @ t=0.96
0.6416668391336486
% es.tEY (V/m) @ t=0.96
0
% es.tEZ (V/m) @ t=0.96
1.9712090489058767
% es.Ex (V/m) @ t=0.96
0.6416668391336474
% es.Ey (V/m) @ t=0.96
0.15545146137675403
% es.Ez (V/m) @ t=0.96
1.971209048905878
% es.tEx (V/m) @ t=0.96
0.6416668391336486
% es.tEy (V/m) @ t=0.96
0
% es.tEz (V/m) @ t=0.96
1.9712090489058767
% V (V) @ t=0.96
0.009722788796095526
% es.normE (V/m) @ t=0.98
2.0976254157363163
% es.EX (V/m) @ t=0.98
0.6474617613045335
% es.EY (V/m) @ t=0.98
0.15685525631012176
% es.EZ (V/m) @ t=0.98
1.9890110362055986
% es.tEX (V/m) @ t=0.98
0.6474617613045339
% es.tEY (V/m) @ t=0.98
0
% es.tEZ (V/m) @ t=0.98
1.989011036205591
% es.Ex (V/m) @ t=0.98
0.6474617613045335
% es.Ey (V/m) @ t=0.98
0.15685525631012176
% es.Ez (V/m) @ t=0.98
1.9890110362055986
% es.tEx (V/m) @ t=0.98
0.6474617613045339
% es.tEy (V/m) @ t=0.98
0
% es.tEz (V/m) @ t=0.98
1.989011036205591
% V (V) @ t=0.98
0.009810588640704596
% es.normE (V/m) @ t=1
2.116399523019087
% es.EX (V/m) @ t=1
0.6532566834754198
% es.EY (V/m) @ t=1
0.15825905124349493
% es.EZ (V/m) @ t=1
2.0068130235053
% es.tEX (V/m) @ t=1
0.6532566834754192
% es.tEY (V/m) @ t=1
0
% es.tEZ (V/m) @ t=1
2.0068130235053125
% es.Ex (V/m) @ t=1
0.6532566834754198
% es.Ey (V/m) @ t=1
0.15825905124349493
% es.Ez (V/m) @ t=1
2.0068130235053
% es.tEx (V/m) @ t=1
0.6532566834754192
% es.tEy (V/m) @ t=1
0
% es.tEz (V/m) @ t=1
2.0068130235053125
% V (V) @ t=1
0.009898388485313665
% es.normE (V/m) @ t=1.02
2.1351736303018987
% es.EX (V/m) @ t=1.02
0.6590516056463059
% es.EY (V/m) @ t=1.02
0.15966284617686222
% es.EZ (V/m) @ t=1.02
2.024615010805039
% es.tEX (V/m) @ t=1.02
0.6590516056463116
% es.tEY (V/m) @ t=1.02
0
% es.tEZ (V/m) @ t=1.02
2.0246150108050394
% es.Ex (V/m) @ t=1.02
0.6590516056463059
% es.Ey (V/m) @ t=1.02
0.15966284617686222
% es.Ez (V/m) @ t=1.02
2.024615010805039
% es.tEx (V/m) @ t=1.02
0.6590516056463116
% es.tEy (V/m) @ t=1.02
0
% es.tEz (V/m) @ t=1.02
2.0246150108050394
% V (V) @ t=1.02
0.009986188329922733
% es.normE (V/m) @ t=1.04
2.153947737584695
% es.EX (V/m) @ t=1.04
0.6648465278171961
% es.EY (V/m) @ t=1.04
0.16106664111023317
% es.EZ (V/m) @ t=1.04
2.0424169981047546
% es.tEX (V/m) @ t=1.04
0.6648465278171969
% es.tEY (V/m) @ t=1.04
0
% es.tEZ (V/m) @ t=1.04
2.042416998104768
% es.Ex (V/m) @ t=1.04
0.6648465278171961
% es.Ey (V/m) @ t=1.04
0.16106664111023317