% Model:              1 neuron.mph
% Version:            COMSOL 6.1.0.252
% Date:               Mar 18 2023, 12:48
% Dimension:          0
% Nodes:              14017
% Expressions:        14017
% Description:        Electric field norm, Electric field, X component, Electric field, Y component, Electric field, Z component, Tangential electric field, X component, Tangential electric field, Y component, Tangential electric field, Z component, Electric field, x component, Electric field, y component, Electric field, z component, Tangential electric field, x component, Tangential electric field, y component, Tangential electric field, z component, Electric potential
% Length unit:        mm
% x
1.0000000000000002
% y
12.2
% z
2
% es.normE (V/m) @ t=0
0.7182255632346208
% es.EX (V/m) @ t=0
0.49888374968504035
% es.EY (V/m) @ t=0
0.07470203807508796
% es.EZ (V/m) @ t=0
-0.498158630957936
% es.tEX (V/m) @ t=0
0.49888374968503957
% es.tEY (V/m) @ t=0
0
% es.tEZ (V/m) @ t=0
-0.4981586309579269
% es.Ex (V/m) @ t=0
0.49888374968504035
% es.Ey (V/m) @ t=0
0.07470203807508796
% es.Ez (V/m) @ t=0
-0.498158630957936
% es.tEx (V/m) @ t=0
0.49888374968503957
% es.tEy (V/m) @ t=0
0
% es.tEz (V/m) @ t=0
-0.4981586309579269
% V (V) @ t=0
0.007691267623167163
% es.normE (V/m) @ t=0.02
0.6203410375091586
% es.EX (V/m) @ t=0.02
0.43089257521193114
% es.EY (V/m) @ t=0.02
0.06452115306999587
% es.EZ (V/m) @ t=0.02
-0.43026628081599294
% es.tEX (V/m) @ t=0.02
0.43089257521193103
% es.tEY (V/m) @ t=0.02
0
% es.tEZ (V/m) @ t=0.02
-0.43026628081598384
% es.Ex (V/m) @ t=0.02
0.43089257521193114
% es.Ey (V/m) @ t=0.02
0.06452115306999587
% es.Ez (V/m) @ t=0.02
-0.43026628081599294
% es.tEx (V/m) @ t=0.02
0.43089257521193103
% es.tEy (V/m) @ t=0.02
0
% es.tEz (V/m) @ t=0.02
-0.43026628081598384
% V (V) @ t=0.02
0.006643050721664088
% es.normE (V/m) @ t=0.04
0.6260489533734626
% es.EX (V/m) @ t=0.04
0.4348573271899009
% es.EY (V/m) @ t=0.04
0.06511483029318094
% es.EZ (V/m) @ t=0.04
-0.4342252703433658
% es.tEX (V/m) @ t=0.04
0.4348573271898999
% es.tEY (V/m) @ t=0.04
0
% es.tEZ (V/m) @ t=0.04
-0.43422527034335845
% es.Ex (V/m) @ t=0.04
0.4348573271899009
% es.Ey (V/m) @ t=0.04
0.06511483029318094
% es.Ez (V/m) @ t=0.04
-0.4342252703433658
% es.tEx (V/m) @ t=0.04
0.4348573271898999
% es.tEy (V/m) @ t=0.04
0
% es.tEz (V/m) @ t=0.04
-0.43422527034335845
% V (V) @ t=0.04
0.006704175035069221
% es.normE (V/m) @ t=0.06
0.6318091003466124
% es.EX (V/m) @ t=0.06
0.4388583597861405
% es.EY (V/m) @ t=0.06
0.06571393730661448
% es.EZ (V/m) @ t=0.06
-0.4382204873062181
% es.tEX (V/m) @ t=0.06
0.4388583597861395
% es.tEY (V/m) @ t=0.06
0
% es.tEZ (V/m) @ t=0.06
-0.43822048730621255
% es.Ex (V/m) @ t=0.06
0.4388583597861405
% es.Ey (V/m) @ t=0.06
0.06571393730661448
% es.Ez (V/m) @ t=0.06
-0.4382204873062181
% es.tEx (V/m) @ t=0.06
0.4388583597861395
% es.tEy (V/m) @ t=0.06
0
% es.tEz (V/m) @ t=0.06
-0.43822048730621255
% V (V) @ t=0.06
0.006765858822827406
% es.normE (V/m) @ t=0.08
0.6376553720798226
% es.EX (V/m) @ t=0.08
0.4429192147250042
% es.EY (V/m) @ t=0.08
0.06632200402380126
% es.EZ (V/m) @ t=0.08
-0.44227544001468
% es.tEX (V/m) @ t=0.08
0.44291921472501006
% es.tEY (V/m) @ t=0.08
0
% es.tEZ (V/m) @ t=0.08
-0.44227544001467445
% es.Ex (V/m) @ t=0.08
0.4429192147250042
% es.Ey (V/m) @ t=0.08
0.06632200402380126
% es.Ez (V/m) @ t=0.08
-0.44227544001468
% es.tEx (V/m) @ t=0.08
0.44291921472501006
% es.tEy (V/m) @ t=0.08
0
% es.tEz (V/m) @ t=0.08
-0.44227544001467445
% V (V) @ t=0.08
0.006828464789383976
% es.normE (V/m) @ t=0.1
0.6435652172743959
% es.EX (V/m) @ t=0.1
0.4470242278523445
% es.EY (V/m) @ t=0.1
0.06693668439519307
% es.EZ (V/m) @ t=0.1
-0.44637448698956406
% es.tEX (V/m) @ t=0.1
0.44702422785234686
% es.tEY (V/m) @ t=0.1
0
% es.tEZ (V/m) @ t=0.1
-0.44637448698955495
% es.Ex (V/m) @ t=0.1
0.4470242278523445
% es.Ey (V/m) @ t=0.1
0.06693668439519307
% es.Ez (V/m) @ t=0.1
-0.44637448698956406
% es.tEx (V/m) @ t=0.1
0.44702422785234686
% es.tEy (V/m) @ t=0.1
0
% es.tEz (V/m) @ t=0.1
-0.44637448698955495
% V (V) @ t=0.1
0.006891751467250085
% es.normE (V/m) @ t=0.12
0.6494750624689631
% es.EX (V/m) @ t=0.12
0.4511292409796842
% es.EY (V/m) @ t=0.12
0.0675513647665888
% es.EZ (V/m) @ t=0.12
-0.4504735339644379
% es.tEX (V/m) @ t=0.12
0.45112924097968743
% es.tEY (V/m) @ t=0.12
0
% es.tEZ (V/m) @ t=0.12
-0.45047353396443235
% es.Ex (V/m) @ t=0.12
0.4511292409796842
% es.Ey (V/m) @ t=0.12
0.0675513647665888
% es.Ez (V/m) @ t=0.12
-0.4504735339644379
% es.tEx (V/m) @ t=0.12
0.45112924097968743
% es.tEy (V/m) @ t=0.12
0
% es.tEz (V/m) @ t=0.12
-0.45047353396443235
% V (V) @ t=0.12
0.006955038145116193
% es.normE (V/m) @ t=0.14
0.6554358100002857
% es.EX (V/m) @ t=0.14
0.4552696113210809
% es.EY (V/m) @ t=0.14
0.06817133878102688
% es.EZ (V/m) @ t=0.14
-0.4546078866386871
% es.tEX (V/m) @ t=0.14
0.455269611321083
% es.tEY (V/m) @ t=0.14
0
% es.tEZ (V/m) @ t=0.14
-0.4546078866386818
% es.Ex (V/m) @ t=0.14
0.4552696113210809
% es.Ey (V/m) @ t=0.14
0.06817133878102688
% es.Ez (V/m) @ t=0.14
-0.4546078866386871
% es.tEx (V/m) @ t=0.14
0.455269611321083
% es.tEy (V/m) @ t=0.14
0
% es.tEz (V/m) @ t=0.14
-0.4546078866386818
% V (V) @ t=0.14
0.007018869957744679
% es.normE (V/m) @ t=0.16
0.6616625095706884
% es.EX (V/m) @ t=0.16
0.4595947143049247
% es.EY (V/m) @ t=0.16
0.06881897076279056
% es.EZ (V/m) @ t=0.16
-0.45892670280395476
% es.tEX (V/m) @ t=0.16
0.45959471430492704
% es.tEY (V/m) @ t=0.16
0
% es.tEZ (V/m) @ t=0.16
-0.45892670280394565
% es.Ex (V/m) @ t=0.16
0.4595947143049247
% es.Ey (V/m) @ t=0.16
0.06881897076279056
% es.Ez (V/m) @ t=0.16
-0.45892670280395476
% es.tEx (V/m) @ t=0.16
0.45959471430492704
% es.tEy (V/m) @ t=0.16
0
% es.tEz (V/m) @ t=0.16
-0.45892670280394565
% V (V) @ t=0.16
0.007085549963813189
% es.normE (V/m) @ t=0.18
0.6678892091410933
% es.EX (V/m) @ t=0.18
0.46391981728876985
% es.EY (V/m) @ t=0.18
0.06946660274454025
% es.EZ (V/m) @ t=0.18
-0.4632455189692217
% es.tEX (V/m) @ t=0.18
0.4639198172887722
% es.tEY (V/m) @ t=0.18
0
% es.tEZ (V/m) @ t=0.18
-0.4632455189692126
% es.Ex (V/m) @ t=0.18
0.46391981728876985
% es.Ey (V/m) @ t=0.18
0.06946660274454025
% es.Ez (V/m) @ t=0.18
-0.4632455189692217
% es.tEx (V/m) @ t=0.18
0.4639198172887722
% es.tEy (V/m) @ t=0.18
0
% es.tEz (V/m) @ t=0.18
-0.4632455189692126
% V (V) @ t=0.18
0.007152229969881701
% es.normE (V/m) @ t=0.2
0.6741159087114905
% es.EX (V/m) @ t=0.2
0.46824492027261033
% es.EY (V/m) @ t=0.2
0.0701142347263023
% es.EZ (V/m) @ t=0.2
-0.4675643351344856
% es.tEX (V/m) @ t=0.2
0.4682449202726162
% es.tEY (V/m) @ t=0.2
0
% es.tEZ (V/m) @ t=0.2
-0.4675643351344765
% es.Ex (V/m) @ t=0.2
0.46824492027261033
% es.Ey (V/m) @ t=0.2
0.0701142347263023
% es.Ez (V/m) @ t=0.2
-0.4675643351344856
% es.tEx (V/m) @ t=0.2
0.4682449202726162
% es.tEy (V/m) @ t=0.2
0
% es.tEz (V/m) @ t=0.2
-0.4675643351344765
% V (V) @ t=0.2
0.007218909975950212
% es.normE (V/m) @ t=0.22
0.6803426082818956
% es.EX (V/m) @ t=0.22
0.4725700232564539
% es.EY (V/m) @ t=0.22
0.07076186670805043
% es.EZ (V/m) @ t=0.22
-0.47188315129975655
% es.tEX (V/m) @ t=0.22
0.4725700232564558
% es.tEY (V/m) @ t=0.22
0
% es.tEZ (V/m) @ t=0.22
-0.47188315129974745
% es.Ex (V/m) @ t=0.22
0.4725700232564539
% es.Ey (V/m) @ t=0.22
0.07076186670805043
% es.Ez (V/m) @ t=0.22
-0.47188315129975655
% es.tEx (V/m) @ t=0.22
0.4725700232564558
% es.tEy (V/m) @ t=0.22
0
% es.tEz (V/m) @ t=0.22
-0.47188315129974745
% V (V) @ t=0.22
0.0072855899820187245
% es.normE (V/m) @ t=0.24
0.6865693078523056
% es.EX (V/m) @ t=0.24
0.47689512624029906
% es.EY (V/m) @ t=0.24
0.07140949868981422
% es.EZ (V/m) @ t=0.24
-0.4762019674650311
% es.tEX (V/m) @ t=0.24
0.47689512624030095
% es.tEY (V/m) @ t=0.24
0
% es.tEZ (V/m) @ t=0.24
-0.4762019674650255
% es.Ex (V/m) @ t=0.24
0.47689512624029906
% es.Ey (V/m) @ t=0.24
0.07140949868981422
% es.Ez (V/m) @ t=0.24
-0.4762019674650311
% es.tEx (V/m) @ t=0.24
0.47689512624030095
% es.tEy (V/m) @ t=0.24
0
% es.tEz (V/m) @ t=0.24
-0.4762019674650255
% V (V) @ t=0.24
0.007352269988087237
% es.normE (V/m) @ t=0.26
0.6927960074227042
% es.EX (V/m) @ t=0.26
0.48122022922414576
% es.EY (V/m) @ t=0.26
0.07205713067156638
% es.EZ (V/m) @ t=0.26
-0.4805207836302896
% es.tEX (V/m) @ t=0.26
0.48122022922414875
% es.tEY (V/m) @ t=0.26
0
% es.tEZ (V/m) @ t=0.26
-0.4805207836302823
% es.Ex (V/m) @ t=0.26
0.48122022922414576
% es.Ey (V/m) @ t=0.26
0.07205713067156638
% es.Ez (V/m) @ t=0.26
-0.4805207836302896
% es.tEx (V/m) @ t=0.26
0.48122022922414875
% es.tEy (V/m) @ t=0.26
0
% es.tEz (V/m) @ t=0.26
-0.4805207836302823
% V (V) @ t=0.26
0.0074189499941557475
% es.normE (V/m) @ t=0.28
0.6992594266510538
% es.EX (V/m) @ t=0.28
0.4857097982782034
% es.EY (V/m) @ t=0.28
0.07272920305974523
% es.EZ (V/m) @ t=0.28
-0.4850037953676296
% es.tEX (V/m) @ t=0.28
0.4857097982782055
% es.tEY (V/m) @ t=0.28
0
% es.tEZ (V/m) @ t=0.28
-0.4850037953676205
% es.Ex (V/m) @ t=0.28
0.4857097982782034
% es.Ey (V/m) @ t=0.28
0.07272920305974523
% es.Ez (V/m) @ t=0.28
-0.4850037953676296
% es.tEx (V/m) @ t=0.28
0.4857097982782055
% es.tEy (V/m) @ t=0.28
0
% es.tEz (V/m) @ t=0.28
-0.4850037953676205
% V (V) @ t=0.28
0.007488174766243482
% es.normE (V/m) @ t=0.3
0.7062006396233973
% es.EX (V/m) @ t=0.3
0.49053132480496464
% es.EY (V/m) @ t=0.3
0.07345060583889004
% es.EZ (V/m) @ t=0.3
-0.4898182186056055
% es.tEX (V/m) @ t=0.3
0.49053132480496564
% es.tEY (V/m) @ t=0.3
0
% es.tEZ (V/m) @ t=0.3
-0.48981821860559815
% es.Ex (V/m) @ t=0.3
0.49053132480496464
% es.Ey (V/m) @ t=0.3
0.07345060583889004
% es.Ez (V/m) @ t=0.3
-0.4898182186056055
% es.tEx (V/m) @ t=0.3
0.49053132480496564
% es.tEy (V/m) @ t=0.3
0
% es.tEz (V/m) @ t=0.3
-0.48981821860559815
% V (V) @ t=0.3
0.007562535881014172
% es.normE (V/m) @ t=0.32
0.7131418525962614
% es.EX (V/m) @ t=0.32
0.4953528513317219
% es.EY (V/m) @ t=0.32
0.07417200861804246
% es.EZ (V/m) @ t=0.32
-0.4946326418436018
% es.tEX (V/m) @ t=0.32
0.4953528513317238
% es.tEY (V/m) @ t=0.32
0
% es.tEZ (V/m) @ t=0.32
-0.4946326418435927
% es.Ex (V/m) @ t=0.32
0.4953528513317219
% es.Ey (V/m) @ t=0.32
0.07417200861804246
% es.Ez (V/m) @ t=0.32
-0.4946326418436018
% es.tEx (V/m) @ t=0.32
0.4953528513317238
% es.tEy (V/m) @ t=0.32
0
% es.tEz (V/m) @ t=0.32
-0.4946326418435927
% V (V) @ t=0.32
0.0076368969957848615
% es.normE (V/m) @ t=0.34
0.7200830655695984
% es.EX (V/m) @ t=0.34
0.500174377858483
% es.EY (V/m) @ t=0.34
0.07489341139719172
% es.EZ (V/m) @ t=0.34
-0.4994470650815612
% es.tEX (V/m) @ t=0.34
0.500174377858484
% es.tEY (V/m) @ t=0.34
0
% es.tEZ (V/m) @ t=0.34
-0.4994470650815557
% es.Ex (V/m) @ t=0.34
0.500174377858483
% es.Ey (V/m) @ t=0.34
0.07489341139719172
% es.Ez (V/m) @ t=0.34
-0.4994470650815612
% es.tEx (V/m) @ t=0.34
0.500174377858484
% es.tEy (V/m) @ t=0.34
0
% es.tEz (V/m) @ t=0.34
-0.4994470650815557
% V (V) @ t=0.34
0.007711258110555553
% es.normE (V/m) @ t=0.36
0.7270242785434329
% es.EX (V/m) @ t=0.36
0.5049959043852427
% es.EY (V/m) @ t=0.36
0.07561481417634086
% es.EZ (V/m) @ t=0.36
-0.5042614883195495
% es.tEX (V/m) @ t=0.36
0.5049959043852454
% es.tEY (V/m) @ t=0.36
0
% es.tEZ (V/m) @ t=0.36
-0.5042614883195404
% es.Ex (V/m) @ t=0.36
0.5049959043852427
% es.Ey (V/m) @ t=0.36
0.07561481417634086
% es.Ez (V/m) @ t=0.36
-0.5042614883195495
% es.tEx (V/m) @ t=0.36
0.5049959043852454
% es.tEy (V/m) @ t=0.36
0
% es.tEz (V/m) @ t=0.36
-0.5042614883195404
% V (V) @ t=0.36
0.0077856192253262435
% es.normE (V/m) @ t=0.38
0.7339654915177313
% es.EX (V/m) @ t=0.38
0.5098174309120013
% es.EY (V/m) @ t=0.38
0.07633621695548931
% es.EZ (V/m) @ t=0.38
-0.5090759115575352
% es.tEX (V/m) @ t=0.38
0.5098174309120023
% es.tEY (V/m) @ t=0.38
0
% es.tEZ (V/m) @ t=0.38
-0.5090759115575243
% es.Ex (V/m) @ t=0.38
0.5098174309120013
% es.Ey (V/m) @ t=0.38
0.07633621695548931
% es.Ez (V/m) @ t=0.38
-0.5090759115575352
% es.tEx (V/m) @ t=0.38
0.5098174309120023
% es.tEy (V/m) @ t=0.38
0
% es.tEz (V/m) @ t=0.38
-0.5090759115575243
% V (V) @ t=0.38
0.007859980340096934
% es.normE (V/m) @ t=0.4
0.7409067044924706
% es.EX (V/m) @ t=0.4
0.5146389574387541
% es.EY (V/m) @ t=0.4
0.07705761973465178
% es.EZ (V/m) @ t=0.4
-0.5138903347955093
% es.tEX (V/m) @ t=0.4
0.5146389574387569
% es.tEY (V/m) @ t=0.4
0
% es.tEZ (V/m) @ t=0.4
-0.513890334795502
% es.Ex (V/m) @ t=0.4
0.5146389574387541
% es.Ey (V/m) @ t=0.4
0.07705761973465178
% es.Ez (V/m) @ t=0.4
-0.5138903347955093
% es.tEx (V/m) @ t=0.4
0.5146389574387569
% es.tEy (V/m) @ t=0.4
0
% es.tEz (V/m) @ t=0.4
-0.513890334795502
% V (V) @ t=0.4
0.007934341454867625
% es.normE (V/m) @ t=0.42
0.7478479174676619
% es.EX (V/m) @ t=0.42
0.519460483965516
% es.EY (V/m) @ t=0.42
0.07777902251379237
% es.EZ (V/m) @ t=0.42
-0.5187047580334905
% es.tEX (V/m) @ t=0.42
0.5194604839655188
% es.tEY (V/m) @ t=0.42
0
% es.tEZ (V/m) @ t=0.42
-0.5187047580334796
% es.Ex (V/m) @ t=0.42
0.519460483965516
% es.Ey (V/m) @ t=0.42
0.07777902251379237
% es.Ez (V/m) @ t=0.42
-0.5187047580334905
% es.tEx (V/m) @ t=0.42
0.5194604839655188
% es.tEy (V/m) @ t=0.42
0
% es.tEz (V/m) @ t=0.42
-0.5187047580334796
% V (V) @ t=0.42
0.008008702569638315
% es.normE (V/m) @ t=0.44
0.7547891304432732
% es.EX (V/m) @ t=0.44
0.5242820104922764
% es.EY (V/m) @ t=0.44
0.07850042529294715
% es.EZ (V/m) @ t=0.44
-0.5235191812714606
% es.tEX (V/m) @ t=0.44
0.5242820104922774
% es.tEY (V/m) @ t=0.44
0
% es.tEZ (V/m) @ t=0.44
-0.5235191812714532
% es.Ex (V/m) @ t=0.44
0.5242820104922764
% es.Ey (V/m) @ t=0.44
0.07850042529294715
% es.Ez (V/m) @ t=0.44
-0.5235191812714606
% es.tEx (V/m) @ t=0.44
0.5242820104922774
% es.tEy (V/m) @ t=0.44
0
% es.tEz (V/m) @ t=0.44
-0.5235191812714532
% V (V) @ t=0.44
0.008083063684409005
% es.normE (V/m) @ t=0.46
0.7617303434193081
% es.EX (V/m) @ t=0.46
0.5291035370190332
% es.EY (V/m) @ t=0.46
0.0792218280720999
% es.EZ (V/m) @ t=0.46
-0.5283336045094444
% es.tEX (V/m) @ t=0.46
0.5291035370190356
% es.tEY (V/m) @ t=0.46
0
% es.tEZ (V/m) @ t=0.46
-0.52833360450943
% es.Ex (V/m) @ t=0.46
0.5291035370190332
% es.Ey (V/m) @ t=0.46
0.0792218280720999
% es.Ez (V/m) @ t=0.46
-0.5283336045094444
% es.tEx (V/m) @ t=0.46
0.5291035370190356
% es.tEy (V/m) @ t=0.46
0
% es.tEz (V/m) @ t=0.46
-0.52833360450943
% V (V) @ t=0.46
0.008157424799179695
% es.normE (V/m) @ t=0.48
0.7686715563957471
% es.EX (V/m) @ t=0.48
0.5339250635457952
% es.EY (V/m) @ t=0.48
0.07994323085124783
% es.EZ (V/m) @ t=0.48
-0.5331480277474256
% es.tEX (V/m) @ t=0.48
0.5339250635457993
% es.tEY (V/m) @ t=0.48
0
% es.tEZ (V/m) @ t=0.48
-0.5331480277474148
% es.Ex (V/m) @ t=0.48
0.5339250635457952
% es.Ey (V/m) @ t=0.48
0.07994323085124783
% es.Ez (V/m) @ t=0.48
-0.5331480277474256
% es.tEx (V/m) @ t=0.48
0.5339250635457993
% es.tEy (V/m) @ t=0.48
0
% es.tEz (V/m) @ t=0.48
-0.5331480277474148
% V (V) @ t=0.48
0.008231785913950386
% es.normE (V/m) @ t=0.5
0.7756127693725814
% es.EX (V/m) @ t=0.5
0.5387465900725524
% es.EY (V/m) @ t=0.5
0.08066463363039422
% es.EZ (V/m) @ t=0.5
-0.5379624509854068
% es.tEX (V/m) @ t=0.5
0.538746590072553
% es.tEY (V/m) @ t=0.5
0
% es.tEZ (V/m) @ t=0.5
-0.537962450985396
% es.Ex (V/m) @ t=0.5
0.5387465900725524
% es.Ey (V/m) @ t=0.5
0.08066463363039422
% es.Ez (V/m) @ t=0.5
-0.5379624509854068
% es.tEx (V/m) @ t=0.5
0.538746590072553
% es.tEy (V/m) @ t=0.5
0
% es.tEz (V/m) @ t=0.5
-0.537962450985396
% V (V) @ t=0.5
0.00830614702872108
% es.normE (V/m) @ t=0.52
0.7825539823497998
% es.EX (V/m) @ t=0.52
0.5435681165993093
% es.EY (V/m) @ t=0.52
0.08138603640954542
% es.EZ (V/m) @ t=0.52
-0.5427768742233907
% es.tEX (V/m) @ t=0.52
0.5435681165993116
% es.tEY (V/m) @ t=0.52
0
% es.tEZ (V/m) @ t=0.52
-0.5427768742233798
% es.Ex (V/m) @ t=0.52
0.5435681165993093
% es.Ey (V/m) @ t=0.52
0.08138603640954542
% es.Ez (V/m) @ t=0.52
-0.5427768742233907
% es.tEx (V/m) @ t=0.52
0.5435681165993116
% es.tEy (V/m) @ t=0.52
0
% es.tEz (V/m) @ t=0.52
-0.5427768742233798
% V (V) @ t=0.52
0.008380508143491767
% es.normE (V/m) @ t=0.54
0.7894951953273873
% es.EX (V/m) @ t=0.54
0.5483896431260719
% es.EY (V/m) @ t=0.54
0.0821074391886896
% es.EZ (V/m) @ t=0.54
-0.5475912974613613
% es.tEX (V/m) @ t=0.54
0.5483896431260744
% es.tEY (V/m) @ t=0.54
0
% es.tEZ (V/m) @ t=0.54
-0.5475912974613504
% es.Ex (V/m) @ t=0.54
0.5483896431260719
% es.Ey (V/m) @ t=0.54
0.0821074391886896
% es.Ez (V/m) @ t=0.54
-0.5475912974613613
% es.tEx (V/m) @ t=0.54
0.5483896431260744
% es.tEy (V/m) @ t=0.54
0
% es.tEz (V/m) @ t=0.54
-0.5475912974613504
% V (V) @ t=0.54
0.008454869258262459
% es.normE (V/m) @ t=0.56
0.7969781334055235
% es.EX (V/m) @ t=0.56
0.553587257390001
% es.EY (V/m) @ t=0.56
0.08288609757889948
% es.EZ (V/m) @ t=0.56
-0.552781420540766
% es.tEX (V/m) @ t=0.56
0.5535872573900034
% es.tEY (V/m) @ t=0.56
0
% es.tEZ (V/m) @ t=0.56
-0.5527814205407551
% es.Ex (V/m) @ t=0.56
0.553587257390001
% es.Ey (V/m) @ t=0.56
0.08288609757889948
% es.Ez (V/m) @ t=0.56
-0.552781420540766
% es.tEx (V/m) @ t=0.56
0.5535872573900034
% es.tEy (V/m) @ t=0.56
0
% es.tEz (V/m) @ t=0.56
-0.5527814205407551
% V (V) @ t=0.56
0.008534982079652219
% es.normE (V/m) @ t=0.58
0.8047247565150064
% es.EX (V/m) @ t=0.58
0.558967932594515
% es.EY (V/m) @ t=0.58
0.08369262517348744
% es.EZ (V/m) @ t=0.58
-0.55815441575224
% es.tEX (V/m) @ t=0.58
0.5589679325945174
% es.tEY (V/m) @ t=0.58
0
% es.tEZ (V/m) @ t=0.58
-0.5581544157522256
% es.Ex (V/m) @ t=0.58
0.558967932594515
% es.Ey (V/m) @ t=0.58
0.08369262517348744
% es.Ez (V/m) @ t=0.58
-0.55815441575224
% es.tEx (V/m) @ t=0.58
0.5589679325945174
% es.tEy (V/m) @ t=0.58
0
% es.tEz (V/m) @ t=0.58
-0.5581544157522256
% V (V) @ t=0.58
0.008617894547825298
% es.normE (V/m) @ t=0.6
0.81247137962564
% es.EX (V/m) @ t=0.6
0.5643486077990273
% es.EY (V/m) @ t=0.6
0.08449915276809006
% es.EZ (V/m) @ t=0.6
-0.5635274109637209
% es.tEX (V/m) @ t=0.6
0.5643486077990314
% es.tEY (V/m) @ t=0.6
0
% es.tEZ (V/m) @ t=0.6
-0.5635274109637063
% es.Ex (V/m) @ t=0.6
0.5643486077990273
% es.Ey (V/m) @ t=0.6
0.08449915276809006
% es.Ez (V/m) @ t=0.6
-0.5635274109637209
% es.tEx (V/m) @ t=0.6
0.5643486077990314
% es.tEy (V/m) @ t=0.6
0
% es.tEz (V/m) @ t=0.6
-0.5635274109637063
% V (V) @ t=0.6
0.008700807015998376
% es.normE (V/m) @ t=0.62
0.8202180027373914
% es.EX (V/m) @ t=0.62
0.5697292830035372
% es.EY (V/m) @ t=0.62
0.08530568036267086
% es.EZ (V/m) @ t=0.62
-0.5689004061751943
% es.tEX (V/m) @ t=0.62
0.5697292830035379
% es.tEY (V/m) @ t=0.62
0
% es.tEZ (V/m) @ t=0.62
-0.568900406175187
% es.Ex (V/m) @ t=0.62
0.5697292830035372
% es.Ey (V/m) @ t=0.62
0.08530568036267086
% es.Ez (V/m) @ t=0.62
-0.5689004061751943
% es.tEx (V/m) @ t=0.62
0.5697292830035379
% es.tEy (V/m) @ t=0.62
0
% es.tEz (V/m) @ t=0.62
-0.568900406175187
% V (V) @ t=0.62
0.008783719484171459
% es.normE (V/m) @ t=0.64
0.8279646258502441
% es.EX (V/m) @ t=0.64
0.5751099582080513
% es.EY (V/m) @ t=0.64
0.08611220795724728
% es.EZ (V/m) @ t=0.64
-0.5742734013866895
% es.tEX (V/m) @ t=0.64
0.5751099582080534
% es.tEY (V/m) @ t=0.64
0
% es.tEZ (V/m) @ t=0.64
-0.5742734013866819
% es.Ex (V/m) @ t=0.64
0.5751099582080513
% es.Ey (V/m) @ t=0.64
0.08611220795724728
% es.Ez (V/m) @ t=0.64
-0.5742734013866895
% es.tEx (V/m) @ t=0.64
0.5751099582080534
% es.tEy (V/m) @ t=0.64
0
% es.tEz (V/m) @ t=0.64
-0.5742734013866819
% V (V) @ t=0.64
0.00886663195234454
% es.normE (V/m) @ t=0.66
0.8357112489641381
% es.EX (V/m) @ t=0.66
0.580490633412564
% es.EY (V/m) @ t=0.66
0.08691873555184962
% es.EZ (V/m) @ t=0.66
-0.5796463965981593
% es.tEX (V/m) @ t=0.66
0.5804906334125626
% es.tEY (V/m) @ t=0.66
0
% es.tEZ (V/m) @ t=0.66
-0.5796463965981484
% es.Ex (V/m) @ t=0.66
0.580490633412564
% es.Ey (V/m) @ t=0.66
0.08691873555184962
% es.Ez (V/m) @ t=0.66
-0.5796463965981593
% es.tEx (V/m) @ t=0.66
0.5804906334125626
% es.tEy (V/m) @ t=0.66
0
% es.tEz (V/m) @ t=0.66
-0.5796463965981484
% V (V) @ t=0.66
0.008949544420517621
% es.normE (V/m) @ t=0.68
0.8434578720790653
% es.EX (V/m) @ t=0.68
0.5858713086170717
% es.EY (V/m) @ t=0.68
0.08772526314643025
% es.EZ (V/m) @ t=0.68
-0.5850193918096436
% es.tEX (V/m) @ t=0.68
0.5858713086170737
% es.tEY (V/m) @ t=0.68
0
% es.tEZ (V/m) @ t=0.68
-0.5850193918096291
% es.Ex (V/m) @ t=0.68
0.5858713086170717
% es.Ey (V/m) @ t=0.68
0.08772526314643025
% es.Ez (V/m) @ t=0.68
-0.5850193918096436
% es.tEx (V/m) @ t=0.68
0.5858713086170737
% es.tEy (V/m) @ t=0.68
0
% es.tEz (V/m) @ t=0.68
-0.5850193918096291
% V (V) @ t=0.68
0.0090324568886907
% es.normE (V/m) @ t=0.7
0.8512044951950005
% es.EX (V/m) @ t=0.7
0.5912519838215902
% es.EY (V/m) @ t=0.7
0.08853179074102088
% es.EZ (V/m) @ t=0.7
-0.5903923870211318
% es.tEX (V/m) @ t=0.7
0.5912519838215924
% es.tEY (V/m) @ t=0.7
0
% es.tEZ (V/m) @ t=0.7
-0.5903923870211174
% es.Ex (V/m) @ t=0.7
0.5912519838215902
% es.Ey (V/m) @ t=0.7
0.08853179074102088
% es.Ez (V/m) @ t=0.7
-0.5903923870211318
% es.tEx (V/m) @ t=0.7
0.5912519838215924
% es.tEy (V/m) @ t=0.7
0
% es.tEz (V/m) @ t=0.7
-0.5903923870211174
% V (V) @ t=0.7
0.009115369356863783
% es.normE (V/m) @ t=0.72
0.8589511183118959
% es.EX (V/m) @ t=0.72
0.5966326590260929
% es.EY (V/m) @ t=0.72
0.0893383183356195
% es.EZ (V/m) @ t=0.72
-0.595765382232613
% es.tEX (V/m) @ t=0.72
0.5966326590261
% es.tEY (V/m) @ t=0.72
0
% es.tEZ (V/m) @ t=0.72
-0.5957653822325986
% es.Ex (V/m) @ t=0.72
0.5966326590260929
% es.Ey (V/m) @ t=0.72
0.0893383183356195
% es.Ez (V/m) @ t=0.72
-0.595765382232613
% es.tEx (V/m) @ t=0.72
0.5966326590261
% es.tEy (V/m) @ t=0.72
0
% es.tEz (V/m) @ t=0.72
-0.5957653822325986
% V (V) @ t=0.72
0.009198281825036861
% es.normE (V/m) @ t=0.74
0.866697741429737
% es.EX (V/m) @ t=0.74
0.6020133342306089
% es.EY (V/m) @ t=0.74
0.0901448459301992
% es.EZ (V/m) @ t=0.74
-0.6011383774440826
% es.tEX (V/m) @ t=0.74
0.6020133342306129
% es.tEY (V/m) @ t=0.74
0
% es.tEZ (V/m) @ t=0.74
-0.6011383774440646
% es.Ex (V/m) @ t=0.74
0.6020133342306089
% es.Ey (V/m) @ t=0.74
0.0901448459301992
% es.Ez (V/m) @ t=0.74
-0.6011383774440826
% es.tEx (V/m) @ t=0.74
0.6020133342306129
% es.tEy (V/m) @ t=0.74
0
% es.tEz (V/m) @ t=0.74
-0.6011383774440646
% V (V) @ t=0.74
0.009281194293209942
% es.normE (V/m) @ t=0.76
0.874444364548508
% es.EX (V/m) @ t=0.76
0.607394009435122
% es.EY (V/m) @ t=0.76
0.09095137352479449
% es.EZ (V/m) @ t=0.76
-0.6065113726555671
% es.tEX (V/m) @ t=0.76
0.607394009435124
% es.tEY (V/m) @ t=0.76
0
% es.tEZ (V/m) @ t=0.76
-0.6065113726555524
% es.Ex (V/m) @ t=0.76
0.607394009435122
% es.Ey (V/m) @ t=0.76
0.09095137352479449
% es.Ez (V/m) @ t=0.76
-0.6065113726555671
% es.tEx (V/m) @ t=0.76
0.607394009435124
% es.tEy (V/m) @ t=0.76
0
% es.tEz (V/m) @ t=0.76
-0.6065113726555524
% V (V) @ t=0.76
0.009364106761383023
% es.normE (V/m) @ t=0.78
0.8821909876681675
% es.EX (V/m) @ t=0.78
0.6127746846396305
% es.EY (V/m) @ t=0.78
0.09175790111939194
% es.EZ (V/m) @ t=0.78
-0.6118843678670405
% es.tEX (V/m) @ t=0.78
0.612774684639632
% es.tEY (V/m) @ t=0.78
0
% es.tEZ (V/m) @ t=0.78
-0.611884367867026
% es.Ex (V/m) @ t=0.78
0.6127746846396305
% es.Ey (V/m) @ t=0.78
0.09175790111939194
% es.Ez (V/m) @ t=0.78
-0.6118843678670405
% es.tEx (V/m) @ t=0.78
0.612774684639632
% es.tEy (V/m) @ t=0.78
0
% es.tEz (V/m) @ t=0.78
-0.611884367867026
% V (V) @ t=0.78
0.009447019229556104
% es.normE (V/m) @ t=0.8
0.8899376107887114
% es.EX (V/m) @ t=0.8
0.6181553598441469
% es.EY (V/m) @ t=0.8
0.09256442871397946
% es.EZ (V/m) @ t=0.8
-0.6172573630785214
% es.tEX (V/m) @ t=0.8
0.6181553598441512
% es.tEY (V/m) @ t=0.8
0
% es.tEZ (V/m) @ t=0.8
-0.6172573630785139
% es.Ex (V/m) @ t=0.8
0.6181553598441469
% es.Ey (V/m) @ t=0.8
0.09256442871397946
% es.Ez (V/m) @ t=0.8
-0.6172573630785214
% es.tEx (V/m) @ t=0.8
0.6181553598441512
% es.tEy (V/m) @ t=0.8
0
% es.tEz (V/m) @ t=0.8
-0.6172573630785139
% V (V) @ t=0.8
0.009529931697729187
% es.normE (V/m) @ t=0.82
0.8976970583877522
% es.EX (V/m) @ t=0.82
0.6235449462206659
% es.EY (V/m) @ t=0.82
0.09337227536281473
% es.EZ (V/m) @ t=0.82
-0.6226392539305226
% es.tEX (V/m) @ t=0.82
0.6235449462206697
% es.tEY (V/m) @ t=0.82
0
% es.tEZ (V/m) @ t=0.82
-0.6226392539305117
% es.Ex (V/m) @ t=0.82
0.6235449462206659
% es.Ey (V/m) @ t=0.82
0.09337227536281473
% es.Ez (V/m) @ t=0.82
-0.6226392539305226
% es.tEx (V/m) @ t=0.82
0.6235449462206697
% es.tEy (V/m) @ t=0.82
0
% es.tEz (V/m) @ t=0.82
-0.6226392539305117
% V (V) @ t=0.82
0.009612982303383795
% es.normE (V/m) @ t=0.84
0.9063654042015944
% es.EX (V/m) @ t=0.84
0.6295660864539208
% es.EY (V/m) @ t=0.84
0.09427360621395825
% es.EZ (V/m) @ t=0.84
-0.6286515978901444
% es.tEX (V/m) @ t=0.84
0.6295660864539281
% es.tEY (V/m) @ t=0.84
0
% es.tEZ (V/m) @ t=0.84
-0.6286515978901299
% es.Ex (V/m) @ t=0.84
0.6295660864539208
% es.Ey (V/m) @ t=0.84
0.09427360621395825
% es.Ez (V/m) @ t=0.84
-0.6286515978901444
% es.tEx (V/m) @ t=0.84
0.6295660864539281
% es.tEy (V/m) @ t=0.84
0
% es.tEz (V/m) @ t=0.84
-0.6286515978901299
% V (V) @ t=0.84
0.009705823008375455
% es.normE (V/m) @ t=0.86
0.9150337500155471
% es.EX (V/m) @ t=0.86
0.6355872266871827
% es.EY (V/m) @ t=0.86
0.09517493706510699
% es.EZ (V/m) @ t=0.86
-0.6346639418497511
% es.tEX (V/m) @ t=0.86
0.6355872266871865
% es.tEY (V/m) @ t=0.86
0
% es.tEZ (V/m) @ t=0.86
-0.6346639418497402
% es.Ex (V/m) @ t=0.86
0.6355872266871827
% es.Ey (V/m) @ t=0.86
0.09517493706510699
% es.Ez (V/m) @ t=0.86
-0.6346639418497511
% es.tEx (V/m) @ t=0.86
0.6355872266871865
% es.tEy (V/m) @ t=0.86
0
% es.tEz (V/m) @ t=0.86
-0.6346639418497402
% V (V) @ t=0.86
0.009798663713367121
% es.normE (V/m) @ t=0.88
0.9237020958296082
% es.EX (V/m) @ t=0.88
0.6416083669204398
% es.EY (V/m) @ t=0.88
0.09607626791626023
% es.EZ (V/m) @ t=0.88
-0.6406762858093615
% es.tEX (V/m) @ t=0.88
0.6416083669204489
% es.tEY (V/m) @ t=0.88
0
% es.tEZ (V/m) @ t=0.88
-0.6406762858093504
% es.Ex (V/m) @ t=0.88
0.6416083669204398
% es.Ey (V/m) @ t=0.88
0.09607626791626023
% es.Ez (V/m) @ t=0.88
-0.6406762858093615
% es.tEx (V/m) @ t=0.88
0.6416083669204489
% es.tEy (V/m) @ t=0.88
0
% es.tEz (V/m) @ t=0.88
-0.6406762858093504
% V (V) @ t=0.88
0.009891504418358787
% es.normE (V/m) @ t=0.9
0.9323704416437821
% es.EX (V/m) @ t=0.9
0.6476295071537013
% es.EY (V/m) @ t=0.9
0.09697759876740464
% es.EZ (V/m) @ t=0.9
-0.6466886297689798
% es.tEX (V/m) @ t=0.9
0.6476295071537104
% es.tEY (V/m) @ t=0.9
0
% es.tEZ (V/m) @ t=0.9
-0.6466886297689687
% es.Ex (V/m) @ t=0.9
0.6476295071537013
% es.Ey (V/m) @ t=0.9
0.09697759876740464
% es.Ez (V/m) @ t=0.9
-0.6466886297689798
% es.tEx (V/m) @ t=0.9
0.6476295071537104
% es.tEy (V/m) @ t=0.9
0
% es.tEz (V/m) @ t=0.9
-0.6466886297689687
% V (V) @ t=0.9
0.009984345123350453
% es.normE (V/m) @ t=0.92
0.9410387874580484
% es.EX (V/m) @ t=0.92
0.6536506473869605
% es.EY (V/m) @ t=0.92
0.09787892961854028
% es.EZ (V/m) @ t=0.92
-0.6527009737285823
% es.tEX (V/m) @ t=0.92
0.6536506473869625
% es.tEY (V/m) @ t=0.92
0
% es.tEZ (V/m) @ t=0.92
-0.6527009737285785
% es.Ex (V/m) @ t=0.92
0.6536506473869605
% es.Ey (V/m) @ t=0.92
0.09787892961854028
% es.Ez (V/m) @ t=0.92
-0.6527009737285823
% es.tEx (V/m) @ t=0.92
0.6536506473869625
% es.tEy (V/m) @ t=0.92
0
% es.tEz (V/m) @ t=0.92
-0.6527009737285785
% V (V) @ t=0.92
0.010077185828342118
% es.normE (V/m) @ t=0.94
0.9497071332724261
% es.EX (V/m) @ t=0.94
0.6596717876202169
% es.EY (V/m) @ t=0.94
0.09878026046966937
% es.EZ (V/m) @ t=0.94
-0.6587133176882041
% es.tEX (V/m) @ t=0.94
0.65967178762022
% es.tEY (V/m) @ t=0.94
0
% es.tEZ (V/m) @ t=0.94
-0.6587133176881896
% es.Ex (V/m) @ t=0.94
0.6596717876202169
% es.Ey (V/m) @ t=0.94
0.09878026046966937
% es.Ez (V/m) @ t=0.94
-0.6587133176882041
% es.tEx (V/m) @ t=0.94
0.65967178762022
% es.tEy (V/m) @ t=0.94
0
% es.tEz (V/m) @ t=0.94
-0.6587133176881896
% V (V) @ t=0.94
0.010170026533333782
% es.normE (V/m) @ t=0.96
0.9583754790869053
% es.EX (V/m) @ t=0.96
0.6656929278534747
% es.EY (V/m) @ t=0.96
0.09968159132083326
% es.EZ (V/m) @ t=0.96
-0.6647256616478259
% es.tEX (V/m) @ t=0.96
0.6656929278534744
% es.tEY (V/m) @ t=0.96
0
% es.tEZ (V/m) @ t=0.96
-0.664725661647815
% es.Ex (V/m) @ t=0.96
0.6656929278534747
% es.Ey (V/m) @ t=0.96
0.09968159132083326
% es.Ez (V/m) @ t=0.96
-0.6647256616478259
% es.tEx (V/m) @ t=0.96
0.6656929278534744
% es.tEy (V/m) @ t=0.96
0
% es.tEz (V/m) @ t=0.96
-0.664725661647815
% V (V) @ t=0.96
0.010262867238325446
% es.normE (V/m) @ t=0.98
0.9670438249014608
% es.EX (V/m) @ t=0.98
0.6717140680867342
% es.EY (V/m) @ t=0.98
0.10058292217197068
% es.EZ (V/m) @ t=0.98
-0.6707380056074179
% es.tEX (V/m) @ t=0.98
0.6717140680867373
% es.tEY (V/m) @ t=0.98
0
% es.tEZ (V/m) @ t=0.98
-0.6707380056074035
% es.Ex (V/m) @ t=0.98
0.6717140680867342
% es.Ey (V/m) @ t=0.98
0.10058292217197068
% es.Ez (V/m) @ t=0.98
-0.6707380056074179
% es.tEx (V/m) @ t=0.98
0.6717140680867373
% es.tEy (V/m) @ t=0.98
0
% es.tEz (V/m) @ t=0.98
-0.6707380056074035
% V (V) @ t=0.98
0.010355707943317114
% es.normE (V/m) @ t=1
0.9757121707161294
% es.EX (V/m) @ t=1
0.6777352083199955
% es.EY (V/m) @ t=1
0.10148425302311931
% es.EZ (V/m) @ t=1
-0.6767503495670395
% es.tEX (V/m) @ t=1
0.6777352083199952
% es.tEY (V/m) @ t=1
0
% es.tEZ (V/m) @ t=1
-0.6767503495670284
% es.Ex (V/m) @ t=1
0.6777352083199955
% es.Ey (V/m) @ t=1
0.10148425302311931
% es.Ez (V/m) @ t=1
-0.6767503495670395
% es.tEx (V/m) @ t=1
0.6777352083199952
% es.tEy (V/m) @ t=1
0
% es.tEz (V/m) @ t=1
-0.6767503495670284
% V (V) @ t=1
0.010448548648308778
% es.normE (V/m) @ t=1.02
0.9843805165308747
% es.EX (V/m) @ t=1.02
0.6837563485532543
% es.EY (V/m) @ t=1.02
0.10238558387425678
% es.EZ (V/m) @ t=1.02
-0.6827626935266464
% es.tEX (V/m) @ t=1.02
0.6837563485532541
% es.tEY (V/m) @ t=1.02
0
% es.tEZ (V/m) @ t=1.02
-0.682762693526632
% es.Ex (V/m) @ t=1.02
0.6837563485532543
% es.Ey (V/m) @ t=1.02
0.10238558387425678
% es.Ez (V/m) @ t=1.02
-0.6827626935266464
% es.tEx (V/m) @ t=1.02
0.6837563485532541
% es.tEy (V/m) @ t=1.02
0
% es.tEz (V/m) @ t=1.02
-0.682762693526632
% V (V) @ t=1.02
0.010541389353300441
% es.normE (V/m) @ t=1.04
0.9930488623457144
% es.EX (V/m) @ t=1.04
0.6897774887865127
% es.EY (V/m) @ t=1.04