% Model:              1 neuron.mph
% Version:            COMSOL 6.1.0.252
% Date:               Mar 18 2023, 12:48
% Dimension:          0
% Nodes:              14017
% Expressions:        14017
% Description:        Electric field norm, Electric field, X component, Electric field, Y component, Electric field, Z component, Tangential electric field, X component, Tangential electric field, Y component, Tangential electric field, Z component, Electric field, x component, Electric field, y component, Electric field, z component, Tangential electric field, x component, Tangential electric field, y component, Tangential electric field, z component, Electric potential
% Length unit:        mm
% x
1.33
% y
12.2
% z
2
% es.normE (V/m) @ t=0
1.4985355490899948
% es.EX (V/m) @ t=0
0.5972218528411408
% es.EY (V/m) @ t=0
0.157895021923665
% es.EZ (V/m) @ t=0
-1.3640734283773286
% es.tEX (V/m) @ t=0
0.5972218528411375
% es.tEY (V/m) @ t=0
0
% es.tEZ (V/m) @ t=0
-1.3640734283773313
% es.Ex (V/m) @ t=0
0.5972218528411408
% es.Ey (V/m) @ t=0
0.157895021923665
% es.Ez (V/m) @ t=0
-1.3640734283773286
% es.tEx (V/m) @ t=0
0.5972218528411375
% es.tEy (V/m) @ t=0
0
% es.tEz (V/m) @ t=0
-1.3640734283773313
% V (V) @ t=0
0.007492813170943613
% es.normE (V/m) @ t=0.02
1.2943052259053445
% es.EX (V/m) @ t=0.02
0.5158285150360473
% es.EY (V/m) @ t=0.02
0.1363760501860476
% es.EZ (V/m) @ t=0.02
-1.1781684902282734
% es.tEX (V/m) @ t=0.02
0.5158285150360475
% es.tEY (V/m) @ t=0.02
0
% es.tEZ (V/m) @ t=0.02
-1.1781684902282734
% es.Ex (V/m) @ t=0.02
0.5158285150360473
% es.Ey (V/m) @ t=0.02
0.1363760501860476
% es.Ez (V/m) @ t=0.02
-1.1781684902282734
% es.tEx (V/m) @ t=0.02
0.5158285150360475
% es.tEy (V/m) @ t=0.02
0
% es.tEz (V/m) @ t=0.02
-1.1781684902282734
% V (V) @ t=0.02
0.006471642953388904
% es.normE (V/m) @ t=0.04
1.3062144604235666
% es.EX (V/m) @ t=0.04
0.5205747864392765
% es.EY (V/m) @ t=0.04
0.13763088460623596
% es.EZ (V/m) @ t=0.04
-1.189009120164184
% es.tEX (V/m) @ t=0.04
0.5205747864392731
% es.tEY (V/m) @ t=0.04
0
% es.tEZ (V/m) @ t=0.04
-1.1890091201641848
% es.Ex (V/m) @ t=0.04
0.5205747864392765
% es.Ey (V/m) @ t=0.04
0.13763088460623596
% es.Ez (V/m) @ t=0.04
-1.189009120164184
% es.tEx (V/m) @ t=0.04
0.5205747864392731
% es.tEy (V/m) @ t=0.04
0
% es.tEz (V/m) @ t=0.04
-1.1890091201641848
% V (V) @ t=0.04
0.006531190100149504
% es.normE (V/m) @ t=0.06
1.31823266778863
% es.EX (V/m) @ t=0.06
0.5253644860969662
% es.EY (V/m) @ t=0.06
0.1388971954583047
% es.EZ (V/m) @ t=0.06
-1.199948946047983
% es.tEX (V/m) @ t=0.06
0.5253644860969664
% es.tEY (V/m) @ t=0.06
0
% es.tEZ (V/m) @ t=0.06
-1.199948946047984
% es.Ex (V/m) @ t=0.06
0.5253644860969662
% es.Ey (V/m) @ t=0.06
0.1388971954583047
% es.Ez (V/m) @ t=0.06
-1.199948946047983
% es.tEx (V/m) @ t=0.06
0.5253644860969664
% es.tEy (V/m) @ t=0.06
0
% es.tEz (V/m) @ t=0.06
-1.199948946047984
% V (V) @ t=0.06
0.006591282289372097
% es.normE (V/m) @ t=0.08
1.3304305725898509
% es.EX (V/m) @ t=0.08
0.5302258028884095
% es.EY (V/m) @ t=0.08
0.14018244440201233
% es.EZ (V/m) @ t=0.08
-1.211052344477971
% es.tEX (V/m) @ t=0.08
0.5302258028884133
% es.tEY (V/m) @ t=0.08
0
% es.tEZ (V/m) @ t=0.08
-1.211052344477972
% es.Ex (V/m) @ t=0.08
0.5302258028884095
% es.Ey (V/m) @ t=0.08
0.14018244440201233
% es.Ez (V/m) @ t=0.08
-1.211052344477971
% es.tEx (V/m) @ t=0.08
0.5302258028884133
% es.tEy (V/m) @ t=0.08
0
% es.tEz (V/m) @ t=0.08
-1.211052344477972
% V (V) @ t=0.08
0.006652272859928874
% es.normE (V/m) @ t=0.1
1.3427611220336375
% es.EX (V/m) @ t=0.1
0.5351399842577396
% es.EY (V/m) @ t=0.1
0.1414816726013397
% es.EZ (V/m) @ t=0.1
-1.2222764848750467
% es.tEX (V/m) @ t=0.1
0.5351399842577398
% es.tEY (V/m) @ t=0.1
0
% es.tEZ (V/m) @ t=0.1
-1.2222764848750547
% es.Ex (V/m) @ t=0.1
0.5351399842577396
% es.Ey (V/m) @ t=0.1
0.1414816726013397
% es.Ez (V/m) @ t=0.1
-1.2222764848750467
% es.tEx (V/m) @ t=0.1
0.5351399842577398
% es.tEy (V/m) @ t=0.1
0
% es.tEz (V/m) @ t=0.1
-1.2222764848750547
% V (V) @ t=0.1
0.0067139265755671975
% es.normE (V/m) @ t=0.12
1.3550916714774246
% es.EX (V/m) @ t=0.12
0.5400541656270657
% es.EY (V/m) @ t=0.12
0.14278090080066885
% es.EZ (V/m) @ t=0.12
-1.233500625272125
% es.tEX (V/m) @ t=0.12
0.5400541656270659
% es.tEY (V/m) @ t=0.12
0
% es.tEZ (V/m) @ t=0.12
-1.2335006252721286
% es.Ex (V/m) @ t=0.12
0.5400541656270657
% es.Ey (V/m) @ t=0.12
0.14278090080066885
% es.Ez (V/m) @ t=0.12
-1.233500625272125
% es.tEx (V/m) @ t=0.12
0.5400541656270659
% es.tEy (V/m) @ t=0.12
0
% es.tEz (V/m) @ t=0.12
-1.2335006252721286
% V (V) @ t=0.12
0.006775580291205519
% es.normE (V/m) @ t=0.14
1.3675284245693495
% es.EX (V/m) @ t=0.14
0.5450106727142818
% es.EY (V/m) @ t=0.14
0.14409131788198515
% es.EZ (V/m) @ t=0.14
-1.2448214400495106
% es.tEX (V/m) @ t=0.14
0.5450106727142856
% es.tEY (V/m) @ t=0.14
0
% es.tEZ (V/m) @ t=0.14
-1.2448214400495097
% es.Ex (V/m) @ t=0.14
0.5450106727142818
% es.Ey (V/m) @ t=0.14
0.14409131788198515
% es.Ez (V/m) @ t=0.14
-1.2448214400495106
% es.tEx (V/m) @ t=0.14
0.5450106727142856
% es.tEy (V/m) @ t=0.14
0
% es.tEz (V/m) @ t=0.14
-1.2448214400495097
% V (V) @ t=0.14
0.006837765076722328
% es.normE (V/m) @ t=0.16
1.3805200652868672
% es.EX (V/m) @ t=0.16
0.5501883211418954
% es.EY (V/m) @ t=0.16
0.14546019408655742
% es.EZ (V/m) @ t=0.16
-1.2566473544000685
% es.tEX (V/m) @ t=0.16
0.5501883211418956
% es.tEY (V/m) @ t=0.16
0
% es.tEZ (V/m) @ t=0.16
-1.2566473544000711
% es.Ex (V/m) @ t=0.16
0.5501883211418954
% es.Ey (V/m) @ t=0.16
0.14546019408655742
% es.Ez (V/m) @ t=0.16
-1.2566473544000685
% es.tEx (V/m) @ t=0.16
0.5501883211418956
% es.tEy (V/m) @ t=0.16
0
% es.tEz (V/m) @ t=0.16
-1.2566473544000711
% V (V) @ t=0.16
0.006902724570161825
% es.normE (V/m) @ t=0.18
1.3935117060043836
% es.EX (V/m) @ t=0.18
0.5553659695695128
% es.EY (V/m) @ t=0.18
0.14682907029111147
% es.EZ (V/m) @ t=0.18
-1.2684732687506264
% es.tEX (V/m) @ t=0.18
0.5553659695695128
% es.tEY (V/m) @ t=0.18
0
% es.tEZ (V/m) @ t=0.18
-1.268473268750629
% es.Ex (V/m) @ t=0.18
0.5553659695695128
% es.Ey (V/m) @ t=0.18
0.14682907029111147
% es.Ez (V/m) @ t=0.18
-1.2684732687506264
% es.tEx (V/m) @ t=0.18
0.5553659695695128
% es.tEy (V/m) @ t=0.18
0
% es.tEz (V/m) @ t=0.18
-1.268473268750629
% V (V) @ t=0.18
0.006967684063601321
% es.normE (V/m) @ t=0.2
1.4065033467218928
% es.EX (V/m) @ t=0.2
0.5605436179971195
% es.EY (V/m) @ t=0.2
0.14819794649569218
% es.EZ (V/m) @ t=0.2
-1.2802991831011772
% es.tEX (V/m) @ t=0.2
0.5605436179971162
% es.tEY (V/m) @ t=0.2
0
% es.tEZ (V/m) @ t=0.2
-1.2802991831011763
% es.Ex (V/m) @ t=0.2
0.5605436179971195
% es.Ey (V/m) @ t=0.2
0.14819794649569218
% es.Ez (V/m) @ t=0.2
-1.2802991831011772
% es.tEx (V/m) @ t=0.2
0.5605436179971162
% es.tEy (V/m) @ t=0.2
0
% es.tEz (V/m) @ t=0.2
-1.2802991831011763
% V (V) @ t=0.2
0.007032643557040817
% es.normE (V/m) @ t=0.22
1.419494987439406
% es.EX (V/m) @ t=0.22
0.5657212664247295
% es.EY (V/m) @ t=0.22
0.14956682270025734
% es.EZ (V/m) @ t=0.22
-1.2921250974517333
% es.tEX (V/m) @ t=0.22
0.5657212664247333
% es.tEY (V/m) @ t=0.22
0
% es.tEZ (V/m) @ t=0.22
-1.292125097451736
% es.Ex (V/m) @ t=0.22
0.5657212664247295
% es.Ey (V/m) @ t=0.22
0.14956682270025734
% es.Ez (V/m) @ t=0.22
-1.2921250974517333
% es.tEx (V/m) @ t=0.22
0.5657212664247333
% es.tEy (V/m) @ t=0.22
0
% es.tEz (V/m) @ t=0.22
-1.292125097451736
% V (V) @ t=0.22
0.0070976030504803144
% es.normE (V/m) @ t=0.24
1.432486628156922
% es.EX (V/m) @ t=0.24
0.5708989148523436
% es.EY (V/m) @ t=0.24
0.15093569890483094
% es.EZ (V/m) @ t=0.24
-1.3039510118022895
% es.tEX (V/m) @ t=0.24
0.5708989148523438
% es.tEY (V/m) @ t=0.24
0
% es.tEZ (V/m) @ t=0.24
-1.303951011802294
% es.Ex (V/m) @ t=0.24
0.5708989148523436
% es.Ey (V/m) @ t=0.24
0.15093569890483094
% es.Ez (V/m) @ t=0.24
-1.3039510118022895
% es.tEx (V/m) @ t=0.24
0.5708989148523438
% es.tEy (V/m) @ t=0.24
0
% es.tEz (V/m) @ t=0.24
-1.303951011802294
% V (V) @ t=0.24
0.00716256254391981
% es.normE (V/m) @ t=0.26
1.4454782688744345
% es.EX (V/m) @ t=0.26
0.5760765632799569
% es.EY (V/m) @ t=0.26
0.15230457510939965
% es.EZ (V/m) @ t=0.26
-1.315776926152842
% es.tEX (V/m) @ t=0.26
0.5760765632799605
% es.tEY (V/m) @ t=0.26
0
% es.tEZ (V/m) @ t=0.26
-1.3157769261528447
% es.Ex (V/m) @ t=0.26
0.5760765632799569
% es.Ey (V/m) @ t=0.26
0.15230457510939965
% es.Ez (V/m) @ t=0.26
-1.315776926152842
% es.tEx (V/m) @ t=0.26
0.5760765632799605
% es.tEy (V/m) @ t=0.26
0
% es.tEz (V/m) @ t=0.26
-1.3157769261528447
% V (V) @ t=0.26
0.007227522037359305
% es.normE (V/m) @ t=0.28
1.4589635213626182
% es.EX (V/m) @ t=0.28
0.5814508368126836
% es.EY (V/m) @ t=0.28
0.15372508657871942
% es.EZ (V/m) @ t=0.28
-1.3280522362461804
% es.tEX (V/m) @ t=0.28
0.5814508368126803
% es.tEY (V/m) @ t=0.28
0
% es.tEZ (V/m) @ t=0.28
-1.328052236246183
% es.Ex (V/m) @ t=0.28
0.5814508368126836
% es.Ey (V/m) @ t=0.28
0.15372508657871942
% es.Ez (V/m) @ t=0.28
-1.3280522362461804
% es.tEx (V/m) @ t=0.28
0.5814508368126803
% es.tEy (V/m) @ t=0.28
0
% es.tEz (V/m) @ t=0.28
-1.328052236246183
% V (V) @ t=0.28
0.007294960901692946
% es.normE (V/m) @ t=0.3
1.4734450773182686
% es.EX (V/m) @ t=0.3
0.587221977449256
% es.EY (V/m) @ t=0.3
0.15524981840161
% es.EZ (V/m) @ t=0.3
-1.341234604402124
% es.tEX (V/m) @ t=0.3
0.5872219774492562
% es.tEY (V/m) @ t=0.3
0
% es.tEZ (V/m) @ t=0.3
-1.3412346044021248
% es.Ex (V/m) @ t=0.3
0.587221977449256
% es.Ey (V/m) @ t=0.3
0.15524981840161
% es.Ez (V/m) @ t=0.3
-1.341234604402124
% es.tEx (V/m) @ t=0.3
0.5872219774492562
% es.tEy (V/m) @ t=0.3
0
% es.tEz (V/m) @ t=0.3
-1.3412346044021248
% V (V) @ t=0.3
0.0073674041155244435
% es.normE (V/m) @ t=0.32
1.487926633275256
% es.EX (V/m) @ t=0.32
0.5929931180858177
% es.EY (V/m) @ t=0.32
0.15677455022450593
% es.EZ (V/m) @ t=0.32
-1.3544169725580657
% es.tEX (V/m) @ t=0.32
0.5929931180858179
% es.tEY (V/m) @ t=0.32
0
% es.tEZ (V/m) @ t=0.32
-1.3544169725580701
% es.Ex (V/m) @ t=0.32
0.5929931180858177
% es.Ey (V/m) @ t=0.32
0.15677455022450593
% es.Ez (V/m) @ t=0.32
-1.3544169725580657
% es.tEx (V/m) @ t=0.32
0.5929931180858179
% es.tEy (V/m) @ t=0.32
0
% es.tEz (V/m) @ t=0.32
-1.3544169725580701
% V (V) @ t=0.32
0.007439847329355944
% es.normE (V/m) @ t=0.34
1.5024081892335452
% es.EX (V/m) @ t=0.34
0.5987642587223718
% es.EY (V/m) @ t=0.34
0.15829928204740895
% es.EZ (V/m) @ t=0.34
-1.3675993407140075
% es.tEX (V/m) @ t=0.34
0.598764258722372
% es.tEY (V/m) @ t=0.34
0
% es.tEZ (V/m) @ t=0.34
-1.367599340714012
% es.Ex (V/m) @ t=0.34
0.5987642587223718
% es.Ey (V/m) @ t=0.34
0.15829928204740895
% es.Ez (V/m) @ t=0.34
-1.3675993407140075
% es.tEx (V/m) @ t=0.34
0.598764258722372
% es.tEy (V/m) @ t=0.34
0
% es.tEz (V/m) @ t=0.34
-1.367599340714012
% V (V) @ t=0.34
0.0075122905431874425
% es.normE (V/m) @ t=0.36
1.5168897451931078
% es.EX (V/m) @ t=0.36
0.6045353993589402
% es.EY (V/m) @ t=0.36
0.15982401387029999
% es.EZ (V/m) @ t=0.36
-1.3807817088699528
% es.tEX (V/m) @ t=0.36
0.6045353993589404
% es.tEY (V/m) @ t=0.36
0
% es.tEZ (V/m) @ t=0.36
-1.3807817088699572
% es.Ex (V/m) @ t=0.36
0.6045353993589402
% es.Ey (V/m) @ t=0.36
0.15982401387029999
% es.Ez (V/m) @ t=0.36
-1.3807817088699528
% es.tEx (V/m) @ t=0.36
0.6045353993589404
% es.tEy (V/m) @ t=0.36
0
% es.tEz (V/m) @ t=0.36
-1.3807817088699572
% V (V) @ t=0.36
0.00758473375701894
% es.normE (V/m) @ t=0.38
1.531371301153906
% es.EX (V/m) @ t=0.38
0.610306539995509
% es.EY (V/m) @ t=0.38
0.1613487456931888
% es.EZ (V/m) @ t=0.38
-1.3939640770259034
% es.tEX (V/m) @ t=0.38
0.6103065399955092
% es.tEY (V/m) @ t=0.38
0
% es.tEZ (V/m) @ t=0.38
-1.3939640770259079
% es.Ex (V/m) @ t=0.38
0.610306539995509
% es.Ey (V/m) @ t=0.38
0.1613487456931888
% es.Ez (V/m) @ t=0.38
-1.3939640770259034
% es.tEx (V/m) @ t=0.38
0.6103065399955092
% es.tEy (V/m) @ t=0.38
0
% es.tEz (V/m) @ t=0.38
-1.3939640770259079
% V (V) @ t=0.38
0.007657176970850441
% es.normE (V/m) @ t=0.4
1.5458528571158947
% es.EX (V/m) @ t=0.4
0.6160776806320774
% es.EY (V/m) @ t=0.4
0.16287347751608694
% es.EZ (V/m) @ t=0.4
-1.407146445181847
% es.tEX (V/m) @ t=0.4
0.6160776806320776
% es.tEY (V/m) @ t=0.4
0
% es.tEZ (V/m) @ t=0.4
-1.4071464451818478
% es.Ex (V/m) @ t=0.4
0.6160776806320774
% es.Ey (V/m) @ t=0.4
0.16287347751608694
% es.Ez (V/m) @ t=0.4
-1.407146445181847
% es.tEx (V/m) @ t=0.4
0.6160776806320776
% es.tEy (V/m) @ t=0.4
0
% es.tEz (V/m) @ t=0.4
-1.4071464451818478
% V (V) @ t=0.4
0.00772962018468194
% es.normE (V/m) @ t=0.42
1.5603344130790353
% es.EX (V/m) @ t=0.42
0.6218488212686315
% es.EY (V/m) @ t=0.42
0.16439820933898153
% es.EZ (V/m) @ t=0.42
-1.4203288133377852
% es.tEX (V/m) @ t=0.42
0.6218488212686317
% es.tEY (V/m) @ t=0.42
0
% es.tEZ (V/m) @ t=0.42
-1.4203288133377878
% es.Ex (V/m) @ t=0.42
0.6218488212686315
% es.Ey (V/m) @ t=0.42
0.16439820933898153
% es.Ez (V/m) @ t=0.42
-1.4203288133377852
% es.tEx (V/m) @ t=0.42
0.6218488212686317
% es.tEy (V/m) @ t=0.42
0
% es.tEz (V/m) @ t=0.42
-1.4203288133377878
% V (V) @ t=0.42
0.007802063398513439
% es.normE (V/m) @ t=0.44
1.5748159690433168
% es.EX (V/m) @ t=0.44
0.6276199619051932
% es.EY (V/m) @ t=0.44
0.16592294116187345
% es.EZ (V/m) @ t=0.44
-1.4335111814937322
% es.tEX (V/m) @ t=0.44
0.6276199619051934
% es.tEY (V/m) @ t=0.44
0
% es.tEZ (V/m) @ t=0.44
-1.433511181493735
% es.Ex (V/m) @ t=0.44
0.6276199619051932
% es.Ey (V/m) @ t=0.44
0.16592294116187345
% es.Ez (V/m) @ t=0.44
-1.4335111814937322
% es.tEx (V/m) @ t=0.44
0.6276199619051934
% es.tEy (V/m) @ t=0.44
0
% es.tEz (V/m) @ t=0.44
-1.433511181493735
% V (V) @ t=0.44
0.007874506612344937
% es.normE (V/m) @ t=0.46
1.5892975250086994
% es.EX (V/m) @ t=0.46
0.6333911025417549
% es.EY (V/m) @ t=0.46
0.1674476729847747
% es.EZ (V/m) @ t=0.46
-1.4466935496496793
% es.tEX (V/m) @ t=0.46
0.6333911025417551
% es.tEY (V/m) @ t=0.46
0
% es.tEZ (V/m) @ t=0.46
-1.446693549649682
% es.Ex (V/m) @ t=0.46
0.6333911025417549
% es.Ey (V/m) @ t=0.46
0.1674476729847747
% es.Ez (V/m) @ t=0.46
-1.4466935496496793
% es.tEx (V/m) @ t=0.46
0.6333911025417551
% es.tEy (V/m) @ t=0.46
0
% es.tEz (V/m) @ t=0.46
-1.446693549649682
% V (V) @ t=0.46
0.007946949826176436
% es.normE (V/m) @ t=0.48
1.6037790809751438
% es.EX (V/m) @ t=0.48
0.6391622431783162
% es.EY (V/m) @ t=0.48
0.16897240480766929
% es.EZ (V/m) @ t=0.48
-1.4598759178056193
% es.tEX (V/m) @ t=0.48
0.6391622431783164
% es.tEY (V/m) @ t=0.48
0
% es.tEZ (V/m) @ t=0.48
-1.459875917805622
% es.Ex (V/m) @ t=0.48
0.6391622431783162
% es.Ey (V/m) @ t=0.48
0.16897240480766929
% es.Ez (V/m) @ t=0.48
-1.4598759178056193
% es.tEx (V/m) @ t=0.48
0.6391622431783164
% es.tEy (V/m) @ t=0.48
0
% es.tEz (V/m) @ t=0.48
-1.459875917805622
% V (V) @ t=0.48
0.008019393040007936
% es.normE (V/m) @ t=0.5
1.6182606369426273
% es.EX (V/m) @ t=0.5
0.6449333838148774
% es.EY (V/m) @ t=0.5
0.17049713663055854
% es.EZ (V/m) @ t=0.5
-1.4730582859615575
% es.tEX (V/m) @ t=0.5
0.6449333838148776
% es.tEY (V/m) @ t=0.5
0
% es.tEZ (V/m) @ t=0.5
-1.473058285961562
% es.Ex (V/m) @ t=0.5
0.6449333838148774
% es.Ey (V/m) @ t=0.5
0.17049713663055854
% es.Ez (V/m) @ t=0.5
-1.4730582859615575
% es.tEx (V/m) @ t=0.5
0.6449333838148776
% es.tEy (V/m) @ t=0.5
0
% es.tEz (V/m) @ t=0.5
-1.473058285961562
% V (V) @ t=0.5
0.008091836253839435
% es.normE (V/m) @ t=0.52
1.6327421929111479
% es.EX (V/m) @ t=0.52
0.6507045244514533
% es.EY (V/m) @ t=0.52
0.17202186845344913
% es.EZ (V/m) @ t=0.52
-1.4862406541175153
% es.tEX (V/m) @ t=0.52
0.6507045244514535
% es.tEY (V/m) @ t=0.52
0
% es.tEZ (V/m) @ t=0.52
-1.4862406541175162
% es.Ex (V/m) @ t=0.52
0.6507045244514533
% es.Ey (V/m) @ t=0.52
0.17202186845344913
% es.Ez (V/m) @ t=0.52
-1.4862406541175153
% es.tEx (V/m) @ t=0.52
0.6507045244514535
% es.tEy (V/m) @ t=0.52
0
% es.tEz (V/m) @ t=0.52
-1.4862406541175162
% V (V) @ t=0.52
0.008164279467670933
% es.normE (V/m) @ t=0.54
1.6472237488806272
% es.EX (V/m) @ t=0.54
0.6564756650880004
% es.EY (V/m) @ t=0.54
0.17354660027634905
% es.EZ (V/m) @ t=0.54
-1.4994230222734535
% es.tEX (V/m) @ t=0.54
0.6564756650880006
% es.tEY (V/m) @ t=0.54
0
% es.tEZ (V/m) @ t=0.54
-1.4994230222734597
% es.Ex (V/m) @ t=0.54
0.6564756650880004
% es.Ey (V/m) @ t=0.54
0.17354660027634905
% es.Ez (V/m) @ t=0.54
-1.4994230222734535
% es.tEx (V/m) @ t=0.54
0.6564756650880006
% es.tEy (V/m) @ t=0.54
0
% es.tEz (V/m) @ t=0.54
-1.4994230222734597
% V (V) @ t=0.54
0.008236722681502434
% es.normE (V/m) @ t=0.56
1.6628370455044266
% es.EX (V/m) @ t=0.56
0.6626983379526659
% es.EY (V/m) @ t=0.56
0.17519247015068862
% es.EZ (V/m) @ t=0.56
-1.5136352013327654
% es.tEX (V/m) @ t=0.56
0.6626983379526661
% es.tEY (V/m) @ t=0.56
0
% es.tEZ (V/m) @ t=0.56
-1.5136352013327699
% es.Ex (V/m) @ t=0.56
0.6626983379526659
% es.Ey (V/m) @ t=0.56
0.17519247015068862
% es.Ez (V/m) @ t=0.56
-1.5136352013327654
% es.tEx (V/m) @ t=0.56
0.6626983379526661
% es.tEy (V/m) @ t=0.56
0
% es.tEz (V/m) @ t=0.56
-1.5136352013327699
% V (V) @ t=0.56
0.008314767849138002
% es.normE (V/m) @ t=0.58
1.6790012175996907
% es.EX (V/m) @ t=0.58
0.6691407944108907
% es.EY (V/m) @ t=0.58
0.1768973040471047
% es.EZ (V/m) @ t=0.58
-1.5283486414914274
% es.tEX (V/m) @ t=0.58
0.6691407944108874
% es.tEY (V/m) @ t=0.58
0
% es.tEZ (V/m) @ t=0.58
-1.5283486414914336
% es.Ex (V/m) @ t=0.58
0.6691407944108907
% es.Ey (V/m) @ t=0.58
0.1768973040471047
% es.Ez (V/m) @ t=0.58
-1.5283486414914274
% es.tEx (V/m) @ t=0.58
0.6691407944108874
% es.tEy (V/m) @ t=0.58
0
% es.tEz (V/m) @ t=0.58
-1.5283486414914336
% V (V) @ t=0.58
0.00839553977128081
% es.normE (V/m) @ t=0.6
1.6951653896980097
% es.EX (V/m) @ t=0.6
0.6755832508691297
% es.EY (V/m) @ t=0.6
0.17860213794354918
% es.EZ (V/m) @ t=0.6
-1.5430620816500982
% es.tEX (V/m) @ t=0.6
0.67558325086913
% es.tEY (V/m) @ t=0.6
0
% es.tEZ (V/m) @ t=0.6
-1.5430620816501008
% es.Ex (V/m) @ t=0.6
0.6755832508691297
% es.Ey (V/m) @ t=0.6
0.17860213794354918
% es.Ez (V/m) @ t=0.6
-1.5430620816500982
% es.tEx (V/m) @ t=0.6
0.67558325086913
% es.tEy (V/m) @ t=0.6
0
% es.tEz (V/m) @ t=0.6
-1.5430620816501008
% V (V) @ t=0.6
0.008476311693423621
% es.normE (V/m) @ t=0.62
1.7113295617992752
% es.EX (V/m) @ t=0.62
0.6820257073273586
% es.EY (V/m) @ t=0.62
0.18030697183996125
% es.EZ (V/m) @ t=0.62
-1.5577755218087708
% es.tEX (V/m) @ t=0.62
0.6820257073273588
% es.tEY (V/m) @ t=0.62
0
% es.tEZ (V/m) @ t=0.62
-1.557775521808768
% es.Ex (V/m) @ t=0.62
0.6820257073273586
% es.Ey (V/m) @ t=0.62
0.18030697183996125
% es.Ez (V/m) @ t=0.62
-1.5577755218087708
% es.tEx (V/m) @ t=0.62
0.6820257073273588
% es.tEy (V/m) @ t=0.62
0
% es.tEz (V/m) @ t=0.62
-1.557775521808768
% V (V) @ t=0.62
0.008557083615566431
% es.normE (V/m) @ t=0.64
1.7274937339033989
% es.EX (V/m) @ t=0.64
0.6884681637855872
% es.EY (V/m) @ t=0.64
0.18201180573636888
% es.EZ (V/m) @ t=0.64
-1.5724889619674327
% es.tEX (V/m) @ t=0.64
0.6884681637855876
% es.tEY (V/m) @ t=0.64
0
% es.tEZ (V/m) @ t=0.64
-1.5724889619674318
% es.Ex (V/m) @ t=0.64
0.6884681637855872
% es.Ey (V/m) @ t=0.64
0.18201180573636888
% es.Ez (V/m) @ t=0.64
-1.5724889619674327
% es.tEx (V/m) @ t=0.64
0.6884681637855876
% es.tEy (V/m) @ t=0.64
0
% es.tEz (V/m) @ t=0.64
-1.5724889619674318
% V (V) @ t=0.64
0.00863785553770924
% es.normE (V/m) @ t=0.66
1.7436579060103263
% es.EX (V/m) @ t=0.66
0.6949106202438304
% es.EY (V/m) @ t=0.66
0.1837166396327965
% es.EZ (V/m) @ t=0.66
-1.5872024021261018
% es.tEX (V/m) @ t=0.66
0.6949106202438307
% es.tEY (V/m) @ t=0.66
0
% es.tEZ (V/m) @ t=0.66
-1.5872024021261044
% es.Ex (V/m) @ t=0.66
0.6949106202438304
% es.Ey (V/m) @ t=0.66
0.1837166396327965
% es.Ez (V/m) @ t=0.66
-1.5872024021261018
% es.tEx (V/m) @ t=0.66
0.6949106202438307
% es.tEy (V/m) @ t=0.66
0
% es.tEz (V/m) @ t=0.66
-1.5872024021261044
% V (V) @ t=0.66
0.008718627459852052
% es.normE (V/m) @ t=0.68
1.759822078119953
% es.EX (V/m) @ t=0.68
0.7013530767020588
% es.EY (V/m) @ t=0.68
0.18542147352922012
% es.EZ (V/m) @ t=0.68
-1.6019158422847637
% es.tEX (V/m) @ t=0.68
0.701353076702059
% es.tEY (V/m) @ t=0.68
0
% es.tEZ (V/m) @ t=0.68
-1.6019158422847646
% es.Ex (V/m) @ t=0.68
0.7013530767020588
% es.Ey (V/m) @ t=0.68
0.18542147352922012
% es.Ez (V/m) @ t=0.68
-1.6019158422847637
% es.tEx (V/m) @ t=0.68
0.701353076702059
% es.tEy (V/m) @ t=0.68
0
% es.tEz (V/m) @ t=0.68
-1.6019158422847646
% V (V) @ t=0.68
0.00879939938199486
% es.normE (V/m) @ t=0.7
1.7759862502322252
% es.EX (V/m) @ t=0.7
0.7077955331602908
% es.EY (V/m) @ t=0.7
0.1871263074256433
% es.EZ (V/m) @ t=0.7
-1.6166292824434318
% es.tEX (V/m) @ t=0.7
0.7077955331602874
% es.tEY (V/m) @ t=0.7
0
% es.tEZ (V/m) @ t=0.7
-1.6166292824434372
% es.Ex (V/m) @ t=0.7
0.7077955331602908
% es.Ey (V/m) @ t=0.7
0.1871263074256433
% es.Ez (V/m) @ t=0.7
-1.6166292824434318
% es.tEx (V/m) @ t=0.7
0.7077955331602874
% es.tEy (V/m) @ t=0.7
0
% es.tEz (V/m) @ t=0.7
-1.6166292824434372
% V (V) @ t=0.7
0.008880171304137669
% es.normE (V/m) @ t=0.72
1.7921504223470661
% es.EX (V/m) @ t=0.72
0.7142379896185191
% es.EY (V/m) @ t=0.72
0.18883114132206513
% es.EZ (V/m) @ t=0.72
-1.6313427226021044
% es.tEX (V/m) @ t=0.72
0.7142379896185158
% es.tEY (V/m) @ t=0.72
0
% es.tEZ (V/m) @ t=0.72
-1.6313427226021044
% es.Ex (V/m) @ t=0.72
0.7142379896185191
% es.Ey (V/m) @ t=0.72
0.18883114132206513
% es.Ez (V/m) @ t=0.72
-1.6313427226021044
% es.tEx (V/m) @ t=0.72
0.7142379896185158
% es.tEy (V/m) @ t=0.72
0
% es.tEz (V/m) @ t=0.72
-1.6313427226021044
% V (V) @ t=0.72
0.008960943226280481
% es.normE (V/m) @ t=0.74
1.8083145944643975
% es.EX (V/m) @ t=0.74
0.7206804460767449
% es.EY (V/m) @ t=0.74
0.19053597521848076
% es.EZ (V/m) @ t=0.74
-1.646056162760769
% es.tEX (V/m) @ t=0.74
0.7206804460767451
% es.tEY (V/m) @ t=0.74
0
% es.tEZ (V/m) @ t=0.74
-1.6460561627607664
% es.Ex (V/m) @ t=0.74
0.7206804460767449
% es.Ey (V/m) @ t=0.74
0.19053597521848076
% es.Ez (V/m) @ t=0.74
-1.646056162760769
% es.tEx (V/m) @ t=0.74
0.7206804460767451
% es.tEy (V/m) @ t=0.74
0
% es.tEz (V/m) @ t=0.74
-1.6460561627607664
% V (V) @ t=0.74
0.00904171514842329
% es.normE (V/m) @ t=0.76
1.8244787665841562
% es.EX (V/m) @ t=0.76
0.7271229025349661
% es.EY (V/m) @ t=0.76
0.19224080911490216
% es.EZ (V/m) @ t=0.76
-1.660769602919431
% es.tEX (V/m) @ t=0.76
0.7271229025349664
% es.tEY (V/m) @ t=0.76
0
% es.tEZ (V/m) @ t=0.76
-1.66076960291943
% es.Ex (V/m) @ t=0.76
0.7271229025349661
% es.Ey (V/m) @ t=0.76
0.19224080911490216
% es.Ez (V/m) @ t=0.76
-1.660769602919431
% es.tEx (V/m) @ t=0.76
0.7271229025349664
% es.tEy (V/m) @ t=0.76
0
% es.tEz (V/m) @ t=0.76
-1.66076960291943
% V (V) @ t=0.76
0.0091224870705661
% es.normE (V/m) @ t=0.78
1.8406429387063064
% es.EX (V/m) @ t=0.78
0.7335653589932163
% es.EY (V/m) @ t=0.78
0.19394564301132133
% es.EZ (V/m) @ t=0.78
-1.6754830430781071
% es.tEX (V/m) @ t=0.78
0.7335653589932165
% es.tEY (V/m) @ t=0.78
0
% es.tEZ (V/m) @ t=0.78
-1.6754830430781134
% es.Ex (V/m) @ t=0.78
0.7335653589932163
% es.Ey (V/m) @ t=0.78
0.19394564301132133
% es.Ez (V/m) @ t=0.78
-1.6754830430781071
% es.tEx (V/m) @ t=0.78
0.7335653589932165
% es.tEy (V/m) @ t=0.78
0
% es.tEz (V/m) @ t=0.78
-1.6754830430781134
% V (V) @ t=0.78
0.00920325899270891
% es.normE (V/m) @ t=0.8
1.8568071108307338
% es.EX (V/m) @ t=0.8
0.7400078154514378
% es.EY (V/m) @ t=0.8
0.19565047690775383
% es.EZ (V/m) @ t=0.8
-1.6901964832367629
% es.tEX (V/m) @ t=0.8
0.7400078154514382
% es.tEY (V/m) @ t=0.8
0
% es.tEZ (V/m) @ t=0.8
-1.6901964832367682
% es.Ex (V/m) @ t=0.8
0.7400078154514378
% es.Ey (V/m) @ t=0.8
0.19565047690775383
% es.Ez (V/m) @ t=0.8
-1.6901964832367629
% es.tEx (V/m) @ t=0.8
0.7400078154514382
% es.tEy (V/m) @ t=0.8
0
% es.tEz (V/m) @ t=0.8
-1.6901964832367682
% V (V) @ t=0.8
0.009284030914851719
% es.normE (V/m) @ t=0.82
1.8729980167048903
% es.EX (V/m) @ t=0.82
0.7464609183067117
% es.EY (V/m) @ t=0.82
0.19735809691056172
% es.EZ (V/m) @ t=0.82
-1.7049342645222145
% es.tEX (V/m) @ t=0.82
0.7464609183067119
% es.tEY (V/m) @ t=0.82
0
% es.tEZ (V/m) @ t=0.82
-1.7049342645222225
% es.Ex (V/m) @ t=0.82
0.7464609183067117
% es.Ey (V/m) @ t=0.82
0.19735809691056172
% es.Ez (V/m) @ t=0.82
-1.7049342645222145
% es.tEx (V/m) @ t=0.82
0.7464609183067119
% es.tEy (V/m) @ t=0.82
0
% es.tEz (V/m) @ t=0.82
-1.7049342645222225
% V (V) @ t=0.82
0.009364937432015235
% es.normE (V/m) @ t=0.84
1.8910836005519496
% es.EX (V/m) @ t=0.84
0.7536685541348138
% es.EY (V/m) @ t=0.84
0.199263174243149
% es.EZ (V/m) @ t=0.84
-1.721397153624178
% es.tEX (V/m) @ t=0.84
0.7536685541348143
% es.tEY (V/m) @ t=0.84
0
% es.tEZ (V/m) @ t=0.84
-1.7213971536241814
% es.Ex (V/m) @ t=0.84
0.7536685541348138
% es.Ey (V/m) @ t=0.84
0.199263174243149
% es.Ez (V/m) @ t=0.84
-1.721397153624178
% es.tEx (V/m) @ t=0.84
0.7536685541348143
% es.tEy (V/m) @ t=0.84
0
% es.tEz (V/m) @ t=0.84
-1.7213971536241814
% V (V) @ t=0.84
0.00945538298672599
% es.normE (V/m) @ t=0.86
1.9091691843993066
% es.EX (V/m) @ t=0.86
0.7608761899629022
% es.EY (V/m) @ t=0.86
0.2011682515757709
% es.EZ (V/m) @ t=0.86
-1.7378600427261448
% es.tEX (V/m) @ t=0.86
0.7608761899629024
% es.tEY (V/m) @ t=0.86
0
% es.tEZ (V/m) @ t=0.86
-1.737860042726151
% es.Ex (V/m) @ t=0.86
0.7608761899629022
% es.Ey (V/m) @ t=0.86
0.2011682515757709
% es.Ez (V/m) @ t=0.86
-1.7378600427261448
% es.tEx (V/m) @ t=0.86
0.7608761899629024
% es.tEy (V/m) @ t=0.86
0
% es.tEz (V/m) @ t=0.86
-1.737860042726151
% V (V) @ t=0.86
0.009545828541436747
% es.normE (V/m) @ t=0.88
1.9272547682469554
% es.EX (V/m) @ t=0.88
0.7680838257909977
% es.EY (V/m) @ t=0.88
0.2030733289083777
% es.EZ (V/m) @ t=0.88
-1.7543229318281108
% es.tEX (V/m) @ t=0.88
0.7680838257909981
% es.tEY (V/m) @ t=0.88
0
% es.tEZ (V/m) @ t=0.88
-1.7543229318281117
% es.Ex (V/m) @ t=0.88
0.7680838257909977
% es.Ey (V/m) @ t=0.88
0.2030733289083777
% es.Ez (V/m) @ t=0.88
-1.7543229318281108
% es.tEx (V/m) @ t=0.88
0.7680838257909981
% es.tEy (V/m) @ t=0.88
0
% es.tEz (V/m) @ t=0.88
-1.7543229318281117
% V (V) @ t=0.88
0.009636274096147503
% es.normE (V/m) @ t=0.9
1.94534035209488
% es.EX (V/m) @ t=0.9
0.775291461619082
% es.EY (V/m) @ t=0.9
0.2049784062410005
% es.EZ (V/m) @ t=0.9
-1.770785820930075
% es.tEX (V/m) @ t=0.9
0.7752914616190787
% es.tEY (V/m) @ t=0.9
0
% es.tEZ (V/m) @ t=0.9
-1.7707858209300795
% es.Ex (V/m) @ t=0.9
0.775291461619082
% es.Ey (V/m) @ t=0.9
0.2049784062410005
% es.Ez (V/m) @ t=0.9
-1.770785820930075
% es.tEx (V/m) @ t=0.9
0.7752914616190787
% es.tEy (V/m) @ t=0.9
0
% es.tEz (V/m) @ t=0.9
-1.7707858209300795
% V (V) @ t=0.9
0.009726719650858263
% es.normE (V/m) @ t=0.92
1.9634259359430817
% es.EX (V/m) @ t=0.92
0.7824990974471886
% es.EY (V/m) @ t=0.92
0.2068834835735931
% es.EZ (V/m) @ t=0.92
-1.7872487100320358
% es.tEX (V/m) @ t=0.92
0.782499097447189
% es.tEY (V/m) @ t=0.92
0
% es.tEZ (V/m) @ t=0.92
-1.787248710032035
% es.Ex (V/m) @ t=0.92
0.7824990974471886
% es.Ey (V/m) @ t=0.92
0.2068834835735931
% es.Ez (V/m) @ t=0.92
-1.7872487100320358
% es.tEx (V/m) @ t=0.92
0.782499097447189
% es.tEy (V/m) @ t=0.92
0
% es.tEz (V/m) @ t=0.92
-1.787248710032035
% V (V) @ t=0.92
0.009817165205569018
% es.normE (V/m) @ t=0.94
1.9815115197915418
% es.EX (V/m) @ t=0.94
0.7897067332752623
% es.EY (V/m) @ t=0.94
0.20878856090621944
% es.EZ (V/m) @ t=0.94
-1.8037115991339991
% es.tEX (V/m) @ t=0.94
0.7897067332752625
% es.tEY (V/m) @ t=0.94
0
% es.tEZ (V/m) @ t=0.94
-1.8037115991339974
% es.Ex (V/m) @ t=0.94
0.7897067332752623
% es.Ey (V/m) @ t=0.94
0.20878856090621944
% es.Ez (V/m) @ t=0.94
-1.8037115991339991
% es.tEx (V/m) @ t=0.94
0.7897067332752625
% es.tEy (V/m) @ t=0.94
0
% es.tEz (V/m) @ t=0.94
-1.8037115991339974
% V (V) @ t=0.94
0.009907610760279776
% es.normE (V/m) @ t=0.96
1.9995971036402698
% es.EX (V/m) @ t=0.96
0.7969143691033642
% es.EY (V/m) @ t=0.96
0.2106936382388067
% es.EZ (V/m) @ t=0.96
-1.8201744882359643
% es.tEX (V/m) @ t=0.96
0.7969143691033644
% es.tEY (V/m) @ t=0.96
0
% es.tEZ (V/m) @ t=0.96
-1.8201744882359652
% es.Ex (V/m) @ t=0.96
0.7969143691033642
% es.Ey (V/m) @ t=0.96
0.2106936382388067
% es.Ez (V/m) @ t=0.96
-1.8201744882359643
% es.tEx (V/m) @ t=0.96
0.7969143691033644
% es.tEy (V/m) @ t=0.96
0
% es.tEz (V/m) @ t=0.96
-1.8201744882359652
% V (V) @ t=0.96
0.009998056314990532
% es.normE (V/m) @ t=0.98
2.017682687489255
% es.EX (V/m) @ t=0.98
0.8041220049314639
% es.EY (V/m) @ t=0.98
0.21259871557141974
% es.EZ (V/m) @ t=0.98
-1.8366373773379339
% es.tEX (V/m) @ t=0.98
0.8041220049314677
% es.tEY (V/m) @ t=0.98
0
% es.tEZ (V/m) @ t=0.98
-1.8366373773379383
% es.Ex (V/m) @ t=0.98
0.8041220049314639
% es.Ey (V/m) @ t=0.98
0.21259871557141974
% es.Ez (V/m) @ t=0.98
-1.8366373773379339
% es.tEx (V/m) @ t=0.98
0.8041220049314677
% es.tEy (V/m) @ t=0.98
0
% es.tEz (V/m) @ t=0.98
-1.8366373773379383
% V (V) @ t=0.98
0.01008850186970129
% es.normE (V/m) @ t=1
2.0357682713384726
% es.EX (V/m) @ t=1
0.8113296407595623
% es.EY (V/m) @ t=1
0.21450379290402477
% es.EZ (V/m) @ t=1
-1.8531002664398901
% es.tEX (V/m) @ t=1
0.8113296407595625
% es.tEY (V/m) @ t=1
0
% es.tEZ (V/m) @ t=1
-1.8531002664399008
% es.Ex (V/m) @ t=1
0.8113296407595623
% es.Ey (V/m) @ t=1
0.21450379290402477
% es.Ez (V/m) @ t=1
-1.8531002664398901
% es.tEx (V/m) @ t=1
0.8113296407595625
% es.tEy (V/m) @ t=1
0
% es.tEz (V/m) @ t=1
-1.8531002664399008
% V (V) @ t=1
0.010178947424412048
% es.normE (V/m) @ t=1.02
2.0538538551879286
% es.EX (V/m) @ t=1.02
0.8185372765876364
% es.EY (V/m) @ t=1.02
0.21640887023665378
% es.EZ (V/m) @ t=1.02
-1.8695631555418535
% es.tEX (V/m) @ t=1.02
0.8185372765876369
% es.tEY (V/m) @ t=1.02
0
% es.tEZ (V/m) @ t=1.02
-1.8695631555418597
% es.Ex (V/m) @ t=1.02
0.8185372765876364
% es.Ey (V/m) @ t=1.02
0.21640887023665378
% es.Ez (V/m) @ t=1.02
-1.8695631555418535
% es.tEx (V/m) @ t=1.02
0.8185372765876369
% es.tEy (V/m) @ t=1.02
0
% es.tEz (V/m) @ t=1.02
-1.8695631555418597
% V (V) @ t=1.02
0.010269392979122804
% es.normE (V/m) @ t=1.04
2.0719394390376253
% es.EX (V/m) @ t=1.04
0.8257449124157319
% es.EY (V/m) @ t=1.04
0.21831394756925793
% es.EZ (V/m) @ t=1.04
-1.8860260446438195
% es.tEX (V/m) @ t=1.04
0.8257449124157321