% Model:              1 neuron.mph
% Version:            COMSOL 6.0.0.405
% Date:               Mar 16 2023, 17:04
% Dimension:          0
% Nodes:              14017
% Expressions:        14017
% Description:        Electric field norm, Electric field, X component, Electric field, Y component, Electric field, Z component, Tangential electric field, X component, Tangential electric field, Y component, Tangential electric field, Z component, Electric field, x component, Electric field, y component, Electric field, z component, Tangential electric field, x component, Tangential electric field, y component, Tangential electric field, z component, Electric potential
% Length unit:        mm
% x
2
% y
12.2
% z
1.6599999999999997
% es.normE (V/m) @ t=0
1.2565060391418839
% es.EX (V/m) @ t=0
-1.2141168455141989
% es.EY (V/m) @ t=0
0.09353122406204517
% es.EZ (V/m) @ t=0
-0.30944673268734046
% es.tEX (V/m) @ t=0
-1.2141168455141873
% es.tEY (V/m) @ t=0
0
% es.tEZ (V/m) @ t=0
-0.30944673268734313
% es.Ex (V/m) @ t=0
-1.2141168455141989
% es.Ey (V/m) @ t=0
0.09353122406204517
% es.Ez (V/m) @ t=0
-0.30944673268734046
% es.tEx (V/m) @ t=0
-1.2141168455141873
% es.tEy (V/m) @ t=0
0
% es.tEz (V/m) @ t=0
-0.30944673268734313
% V (V) @ t=0
0.007281716053377631
% es.normE (V/m) @ t=0.02
1.0852673323228512
% es.EX (V/m) @ t=0.02
-1.0486550065003382
% es.EY (V/m) @ t=0.02
0.08078463817707848
% es.EZ (V/m) @ t=0.02
-0.26727482713688144
% es.tEX (V/m) @ t=0.02
-1.0486550065003417
% es.tEY (V/m) @ t=0.02
0
% es.tEZ (V/m) @ t=0.02
-0.26727482713688566
% es.Ex (V/m) @ t=0.02
-1.0486550065003382
% es.Ey (V/m) @ t=0.02
0.08078463817707848
% es.Ez (V/m) @ t=0.02
-0.26727482713688144
% es.tEx (V/m) @ t=0.02
-1.0486550065003417
% es.tEy (V/m) @ t=0.02
0
% es.tEz (V/m) @ t=0.02
-0.26727482713688566
% V (V) @ t=0.02
0.006289351732945748
% es.normE (V/m) @ t=0.04
1.095248531565519
% es.EX (V/m) @ t=0.04
-1.0582994724918096
% es.EY (V/m) @ t=0.04
0.08152763968074572
% es.EZ (V/m) @ t=0.04
-0.2697329828270021
% es.tEX (V/m) @ t=0.04
-1.0582994724918056
% es.tEY (V/m) @ t=0.04
0
% es.tEZ (V/m) @ t=0.04
-0.26973298282699076
% es.Ex (V/m) @ t=0.04
-1.0582994724918096
% es.Ey (V/m) @ t=0.04
0.08152763968074572
% es.Ez (V/m) @ t=0.04
-0.2697329828270021
% es.tEx (V/m) @ t=0.04
-1.0582994724918056
% es.tEy (V/m) @ t=0.04
0
% es.tEz (V/m) @ t=0.04
-0.26973298282699076
% V (V) @ t=0.04
0.006347194038996424
% es.normE (V/m) @ t=0.06
1.1053202850706498
% es.EX (V/m) @ t=0.06
-1.0680314274050948
% es.EY (V/m) @ t=0.06
0.08227740846109127
% es.EZ (V/m) @ t=0.06
-0.27221347193464407
% es.tEX (V/m) @ t=0.06
-1.0680314274050886
% es.tEY (V/m) @ t=0.06
0
% es.tEZ (V/m) @ t=0.06
-0.2722134719346432
% es.Ex (V/m) @ t=0.06
-1.0680314274050948
% es.Ey (V/m) @ t=0.06
0.08227740846109127
% es.Ez (V/m) @ t=0.06
-0.27221347193464407
% es.tEx (V/m) @ t=0.06
-1.0680314274050886
% es.tEy (V/m) @ t=0.06
0
% es.tEz (V/m) @ t=0.06
-0.2722134719346432
% V (V) @ t=0.06
0.006405560248534762
% es.normE (V/m) @ t=0.08
1.115544396268005
% es.EX (V/m) @ t=0.08
-1.0779106186251437
% es.EY (V/m) @ t=0.08
0.08303847073399995
% es.EZ (V/m) @ t=0.08
-0.27473142606870815
% es.tEX (V/m) @ t=0.08
-1.0779106186251486
% es.tEY (V/m) @ t=0.08
0
% es.tEZ (V/m) @ t=0.08
-0.27473142606870926
% es.Ex (V/m) @ t=0.08
-1.0779106186251437
% es.Ey (V/m) @ t=0.08
0.08303847073399995
% es.Ez (V/m) @ t=0.08
-0.27473142606870815
% es.tEx (V/m) @ t=0.08
-1.0779106186251486
% es.tEy (V/m) @ t=0.08
0
% es.tEz (V/m) @ t=0.08
-0.27473142606870926
% V (V) @ t=0.08
0.006464810968492278
% es.normE (V/m) @ t=0.1
1.125877333265949
% es.EX (V/m) @ t=0.1
-1.0878949775510494
% es.EY (V/m) @ t=0.1
0.08380759970410734
% es.EZ (V/m) @ t=0.1
-0.27727614065989403
% es.tEX (V/m) @ t=0.1
-1.0878949775510378
% es.tEY (V/m) @ t=0.1
0
% es.tEZ (V/m) @ t=0.1
-0.27727614065988604
% es.Ex (V/m) @ t=0.1
-1.0878949775510494
% es.Ey (V/m) @ t=0.1
0.08380759970410734
% es.Ez (V/m) @ t=0.1
-0.27727614065989403
% es.tEx (V/m) @ t=0.1
-1.0878949775510378
% es.tEy (V/m) @ t=0.1
0
% es.tEz (V/m) @ t=0.1
-0.27727614065988604
% V (V) @ t=0.1
0.006524693475089962
% es.normE (V/m) @ t=0.12
1.1362102702638768
% es.EX (V/m) @ t=0.12
-1.0978793364769328
% es.EY (V/m) @ t=0.12
0.08457672867422888
% es.EZ (V/m) @ t=0.12
-0.2798208552510868
% es.tEX (V/m) @ t=0.12
-1.0978793364769341
% es.tEY (V/m) @ t=0.12
0
% es.tEZ (V/m) @ t=0.12
-0.2798208552510921
% es.Ex (V/m) @ t=0.12
-1.0978793364769328
% es.Ey (V/m) @ t=0.12
0.08457672867422888
% es.Ez (V/m) @ t=0.12
-0.2798208552510868
% es.tEx (V/m) @ t=0.12
-1.0978793364769341
% es.tEy (V/m) @ t=0.12
0
% es.tEz (V/m) @ t=0.12
-0.2798208552510921
% V (V) @ t=0.12
0.006584575981687645
% es.normE (V/m) @ t=0.14
1.1466407961637044
% es.EX (V/m) @ t=0.14
-1.1079579877626164
% es.EY (V/m) @ t=0.14
0.08535313295965491
% es.EZ (V/m) @ t=0.14
-0.282389616859398
% es.tEX (V/m) @ t=0.14
-1.1079579877626156
% es.tEY (V/m) @ t=0.14
0
% es.tEZ (V/m) @ t=0.14
-0.28238961685939756
% es.Ex (V/m) @ t=0.14
-1.1079579877626164
% es.Ey (V/m) @ t=0.14
0.08535313295965491
% es.Ez (V/m) @ t=0.14
-0.282389616859398
% es.tEx (V/m) @ t=0.14
-1.1079579877626156
% es.tEy (V/m) @ t=0.14
0
% es.tEz (V/m) @ t=0.14
-0.28238961685939756
% V (V) @ t=0.14
0.006645023673375893
% es.normE (V/m) @ t=0.16
1.1575261684126028
% es.EX (V/m) @ t=0.16
-1.1184761207389875
% es.EY (V/m) @ t=0.16
0.08616344633256967
% es.EZ (V/m) @ t=0.16
-0.28507045778958684
% es.tEX (V/m) @ t=0.16
-1.118476120738988
% es.tEY (V/m) @ t=0.16
0
% es.tEZ (V/m) @ t=0.16
-0.2850704577895904
% es.Ex (V/m) @ t=0.16
-1.1184761207389875
% es.Ey (V/m) @ t=0.16
0.08616344633256967
% es.Ez (V/m) @ t=0.16
-0.28507045778958684
% es.tEx (V/m) @ t=0.16
-1.118476120738988
% es.tEy (V/m) @ t=0.16
0
% es.tEz (V/m) @ t=0.16
-0.2850704577895904
% V (V) @ t=0.16
0.006708105602872523
% es.normE (V/m) @ t=0.18
1.1684115406615165
% es.EX (V/m) @ t=0.18
-1.1289942537153674
% es.EY (V/m) @ t=0.18
0.08697375970551119
% es.EZ (V/m) @ t=0.18
-0.2877512987197828
% es.tEX (V/m) @ t=0.18
-1.1289942537153745
% es.tEY (V/m) @ t=0.18
0
% es.tEZ (V/m) @ t=0.18
-0.287751298719785
% es.Ex (V/m) @ t=0.18
-1.1289942537153674
% es.Ey (V/m) @ t=0.18
0.08697375970551119
% es.Ez (V/m) @ t=0.18
-0.2877512987197828
% es.tEx (V/m) @ t=0.18
-1.1289942537153745
% es.tEy (V/m) @ t=0.18
0
% es.tEz (V/m) @ t=0.18
-0.287751298719785
% V (V) @ t=0.18
0.006771187532369152
% es.normE (V/m) @ t=0.2
1.179296912910436
% es.EX (V/m) @ t=0.2
-1.1395123866917531
% es.EY (V/m) @ t=0.2
0.08778407307841973
% es.EZ (V/m) @ t=0.2
-0.29043213964997894
% es.tEX (V/m) @ t=0.2
-1.139512386691754
% es.tEY (V/m) @ t=0.2
0
% es.tEZ (V/m) @ t=0.2
-0.2904321396499707
% es.Ex (V/m) @ t=0.2
-1.1395123866917531
% es.Ey (V/m) @ t=0.2
0.08778407307841973
% es.Ez (V/m) @ t=0.2
-0.29043213964997894
% es.tEx (V/m) @ t=0.2
-1.139512386691754
% es.tEy (V/m) @ t=0.2
0
% es.tEz (V/m) @ t=0.2
-0.2904321396499707
% V (V) @ t=0.2
0.006834269461865784
% es.normE (V/m) @ t=0.22
1.190182285159355
% es.EX (V/m) @ t=0.22
-1.150030519668137
% es.EY (V/m) @ t=0.22
0.08859438645134787
% es.EZ (V/m) @ t=0.22
-0.2931129805801642
% es.tEX (V/m) @ t=0.22
-1.1500305196681335
% es.tEY (V/m) @ t=0.22
0
% es.tEZ (V/m) @ t=0.22
-0.2931129805801653
% es.Ex (V/m) @ t=0.22
-1.150030519668137
% es.Ey (V/m) @ t=0.22
0.08859438645134787
% es.Ez (V/m) @ t=0.22
-0.2931129805801642
% es.tEx (V/m) @ t=0.22
-1.1500305196681335
% es.tEy (V/m) @ t=0.22
0
% es.tEz (V/m) @ t=0.22
-0.2931129805801653
% V (V) @ t=0.22
0.0068973513913624124
% es.normE (V/m) @ t=0.24
1.201067657408271
% es.EX (V/m) @ t=0.24
-1.160548652644514
% es.EY (V/m) @ t=0.24
0.08940469982426535
% es.EZ (V/m) @ t=0.24
-0.2957938215103595
% es.tEX (V/m) @ t=0.24
-1.1605486526445112
% es.tEY (V/m) @ t=0.24
0
% es.tEZ (V/m) @ t=0.24
-0.29579382151035993
% es.Ex (V/m) @ t=0.24
-1.160548652644514
% es.Ey (V/m) @ t=0.24
0.08940469982426535
% es.Ez (V/m) @ t=0.24
-0.2957938215103595
% es.tEx (V/m) @ t=0.24
-1.1605486526445112
% es.tEy (V/m) @ t=0.24
0
% es.tEz (V/m) @ t=0.24
-0.29579382151035993
% V (V) @ t=0.24
0.0069604333208590444
% es.normE (V/m) @ t=0.26
1.2119530296571879
% es.EX (V/m) @ t=0.26
-1.1710667856208912
% es.EY (V/m) @ t=0.26
0.0902150131971935
% es.EZ (V/m) @ t=0.26
-0.2984746624405419
% es.tEX (V/m) @ t=0.26
-1.1710667856208907
% es.tEY (V/m) @ t=0.26
0
% es.tEZ (V/m) @ t=0.26
-0.29847466244054743
% es.Ex (V/m) @ t=0.26
-1.1710667856208912
% es.Ey (V/m) @ t=0.26
0.0902150131971935
% es.Ez (V/m) @ t=0.26
-0.2984746624405419
% es.tEx (V/m) @ t=0.26
-1.1710667856208907
% es.tEy (V/m) @ t=0.26
0
% es.tEz (V/m) @ t=0.26
-0.29847466244054743
% V (V) @ t=0.26
0.007023515250355676
% es.normE (V/m) @ t=0.28
1.223289958214366
% es.EX (V/m) @ t=0.28
-1.18202121057542
% es.EY (V/m) @ t=0.28
0.0910590177384687
% es.EZ (V/m) @ t=0.28
-0.3012668053853935
% es.tEX (V/m) @ t=0.28
-1.182021210575412
% es.tEY (V/m) @ t=0.28
0
% es.tEZ (V/m) @ t=0.28
-0.30126680538539574
% es.Ex (V/m) @ t=0.28
-1.18202121057542
% es.Ey (V/m) @ t=0.28
0.0910590177384687
% es.Ez (V/m) @ t=0.28
-0.3012668053853935
% es.tEx (V/m) @ t=0.28
-1.182021210575412
% es.tEy (V/m) @ t=0.28
0
% es.tEz (V/m) @ t=0.28
-0.30126680538539574
% V (V) @ t=0.28
0.007089211460521209
% es.normE (V/m) @ t=0.3
1.235418311627242
% es.EX (V/m) @ t=0.3
-1.1937403071987784
% es.EY (V/m) @ t=0.3
0.09196207145602503
% es.EZ (V/m) @ t=0.3
-0.3042540229627506
% es.tEX (V/m) @ t=0.3
-1.1937403071987802
% es.tEY (V/m) @ t=0.3
0
% es.tEZ (V/m) @ t=0.3
-0.3042540229627537
% es.Ex (V/m) @ t=0.3
-1.1937403071987784
% es.Ey (V/m) @ t=0.3
0.09196207145602503
% es.Ez (V/m) @ t=0.3
-0.3042540229627506
% es.tEx (V/m) @ t=0.3
-1.1937403071987802
% es.tEy (V/m) @ t=0.3
0
% es.tEz (V/m) @ t=0.3
-0.3042540229627537
% V (V) @ t=0.3
0.0071594896168651456
% es.normE (V/m) @ t=0.32
1.2475466650402636
% es.EX (V/m) @ t=0.32
-1.205459403822145
% es.EY (V/m) @ t=0.32
0.0928651251735938
% es.EZ (V/m) @ t=0.32
-0.3072412405400933
% es.tEX (V/m) @ t=0.32
-1.2054594038221538
% es.tEY (V/m) @ t=0.32
0
% es.tEZ (V/m) @ t=0.32
-0.30724124054009216
% es.Ex (V/m) @ t=0.32
-1.205459403822145
% es.Ey (V/m) @ t=0.32
0.0928651251735938
% es.Ez (V/m) @ t=0.32
-0.3072412405400933
% es.tEx (V/m) @ t=0.32
-1.2054594038221538
% es.tEy (V/m) @ t=0.32
0
% es.tEz (V/m) @ t=0.32
-0.30724124054009216
% V (V) @ t=0.32
0.007229767773209083
% es.normE (V/m) @ t=0.34
1.2596750184534424
% es.EX (V/m) @ t=0.34
-1.217178500445529
% es.EY (V/m) @ t=0.34
0.0937681788911573
% es.EZ (V/m) @ t=0.34
-0.3102284581174519
% es.tEX (V/m) @ t=0.34
-1.2171785004455238
% es.tEY (V/m) @ t=0.34
0
% es.tEZ (V/m) @ t=0.34
-0.31022845811744304
% es.Ex (V/m) @ t=0.34
-1.217178500445529
% es.Ey (V/m) @ t=0.34
0.0937681788911573
% es.Ez (V/m) @ t=0.34
-0.3102284581174519
% es.tEx (V/m) @ t=0.34
-1.2171785004455238
% es.tEy (V/m) @ t=0.34
0
% es.tEz (V/m) @ t=0.34
-0.31022845811744304
% V (V) @ t=0.34
0.0073000459295530186
% es.normE (V/m) @ t=0.36
1.271803371866721
% es.EX (V/m) @ t=0.36
-1.2288975970688822
% es.EY (V/m) @ t=0.36
0.09467123260872612
% es.EZ (V/m) @ t=0.36
-0.3132156756947979
% es.tEX (V/m) @ t=0.36
-1.228897597068876
% es.tEY (V/m) @ t=0.36
0
% es.tEZ (V/m) @ t=0.36
-0.313215675694801
% es.Ex (V/m) @ t=0.36
-1.2288975970688822
% es.Ey (V/m) @ t=0.36
0.09467123260872612
% es.Ez (V/m) @ t=0.36
-0.3132156756947979
% es.tEx (V/m) @ t=0.36
-1.228897597068876
% es.tEy (V/m) @ t=0.36
0
% es.tEz (V/m) @ t=0.36
-0.313215675694801
% V (V) @ t=0.36
0.007370324085896954
% es.normE (V/m) @ t=0.38
1.2839317252801479
% es.EX (V/m) @ t=0.38
-1.2406166936922558
% es.EY (V/m) @ t=0.38
0.09557428632627529
% es.EZ (V/m) @ t=0.38
-0.316202893272149
% es.tEX (V/m) @ t=0.38
-1.2406166936922585
% es.tEY (V/m) @ t=0.38
0
% es.tEZ (V/m) @ t=0.38
-0.31620289327214834
% es.Ex (V/m) @ t=0.38
-1.2406166936922558
% es.Ey (V/m) @ t=0.38
0.09557428632627529
% es.Ez (V/m) @ t=0.38
-0.316202893272149
% es.tEx (V/m) @ t=0.38
-1.2406166936922585
% es.tEy (V/m) @ t=0.38
0
% es.tEz (V/m) @ t=0.38
-0.31620289327214834
% V (V) @ t=0.38
0.007440602242240893
% es.normE (V/m) @ t=0.4
1.2960600786937095
% es.EX (V/m) @ t=0.4
-1.2523357903156374
% es.EY (V/m) @ t=0.4
0.09647734004385122
% es.EZ (V/m) @ t=0.4
-0.3191901108494988
% es.tEX (V/m) @ t=0.4
-1.2523357903156338
% es.tEY (V/m) @ t=0.4
0
% es.tEZ (V/m) @ t=0.4
-0.31919011084949744
% es.Ex (V/m) @ t=0.4
-1.2523357903156374
% es.Ey (V/m) @ t=0.4
0.09647734004385122
% es.Ez (V/m) @ t=0.4
-0.3191901108494988
% es.tEx (V/m) @ t=0.4
-1.2523357903156338
% es.tEy (V/m) @ t=0.4
0
% es.tEz (V/m) @ t=0.4
-0.31919011084949744
% V (V) @ t=0.4
0.00751088039858483
% es.normE (V/m) @ t=0.42
1.308188432107381
% es.EX (V/m) @ t=0.42
-1.2640548869390056
% es.EY (V/m) @ t=0.42
0.0973803937614165
% es.EZ (V/m) @ t=0.42
-0.32217732842685565
% es.tEX (V/m) @ t=0.42
-1.264054886938995
% es.tEY (V/m) @ t=0.42
0
% es.tEZ (V/m) @ t=0.42
-0.32217732842685187
% es.Ex (V/m) @ t=0.42
-1.2640548869390056
% es.Ey (V/m) @ t=0.42
0.0973803937614165
% es.Ez (V/m) @ t=0.42
-0.32217732842685565
% es.tEx (V/m) @ t=0.42
-1.264054886938995
% es.tEy (V/m) @ t=0.42
0
% es.tEz (V/m) @ t=0.42
-0.32217732842685187
% V (V) @ t=0.42
0.007581158554928766
% es.normE (V/m) @ t=0.44
1.320316785521159
% es.EX (V/m) @ t=0.44
-1.275773983562364
% es.EY (V/m) @ t=0.44
0.09828344747898082
% es.EZ (V/m) @ t=0.44
-0.3251645460042045
% es.tEX (V/m) @ t=0.44
-1.2757739835623632
% es.tEY (V/m) @ t=0.44
0
% es.tEZ (V/m) @ t=0.44
-0.3251645460041992
% es.Ex (V/m) @ t=0.44
-1.275773983562364
% es.Ey (V/m) @ t=0.44
0.09828344747898082
% es.Ez (V/m) @ t=0.44
-0.3251645460042045
% es.tEx (V/m) @ t=0.44
-1.2757739835623632
% es.tEy (V/m) @ t=0.44
0
% es.tEz (V/m) @ t=0.44
-0.3251645460041992
% V (V) @ t=0.44
0.007651436711272703
% es.normE (V/m) @ t=0.46
1.3324451389350844
% es.EX (V/m) @ t=0.46
-1.2874930801857571
% es.EY (V/m) @ t=0.46
0.09918650119655043
% es.EZ (V/m) @ t=0.46
-0.32815176358154563
% es.tEX (V/m) @ t=0.46
-1.287493080185751
% es.tEY (V/m) @ t=0.46
0
% es.tEZ (V/m) @ t=0.46
-0.32815176358155185
% es.Ex (V/m) @ t=0.46
-1.2874930801857571
% es.Ey (V/m) @ t=0.46
0.09918650119655043
% es.Ez (V/m) @ t=0.46
-0.32815176358154563
% es.tEx (V/m) @ t=0.46
-1.287493080185751
% es.tEy (V/m) @ t=0.46
0
% es.tEz (V/m) @ t=0.46
-0.32815176358155185
% V (V) @ t=0.46
0.007721714867616643
% es.normE (V/m) @ t=0.48
1.3445734923490895
% es.EX (V/m) @ t=0.48
-1.2992121768091147
% es.EY (V/m) @ t=0.48
0.10008955491410149
% es.EZ (V/m) @ t=0.48
-0.3311389811589007
% es.tEX (V/m) @ t=0.48
-1.2992121768091192
% es.tEY (V/m) @ t=0.48
0
% es.tEZ (V/m) @ t=0.48
-0.33113898115890095
% es.Ex (V/m) @ t=0.48
-1.2992121768091147
% es.Ey (V/m) @ t=0.48
0.10008955491410149
% es.Ez (V/m) @ t=0.48
-0.3311389811589007
% es.tEx (V/m) @ t=0.48
-1.2992121768091192
% es.tEy (V/m) @ t=0.48
0
% es.tEz (V/m) @ t=0.48
-0.33113898115890095
% V (V) @ t=0.48
0.007791993023960578
% es.normE (V/m) @ t=0.5
1.3567018457632196
% es.EX (V/m) @ t=0.5
-1.3109312734324865
% es.EY (V/m) @ t=0.5
0.10099260863168452
% es.EZ (V/m) @ t=0.5
-0.3341261987362558
% es.tEX (V/m) @ t=0.5
-1.3109312734324874
% es.tEY (V/m) @ t=0.5
0
% es.tEZ (V/m) @ t=0.5
-0.3341261987362554
% es.Ex (V/m) @ t=0.5
-1.3109312734324865
% es.Ey (V/m) @ t=0.5
0.10099260863168452
% es.Ez (V/m) @ t=0.5
-0.3341261987362558
% es.tEx (V/m) @ t=0.5
-1.3109312734324874
% es.tEy (V/m) @ t=0.5
0
% es.tEz (V/m) @ t=0.5
-0.3341261987362554
% V (V) @ t=0.5
0.007862271180304515
% es.normE (V/m) @ t=0.52
1.3688301991774399
% es.EX (V/m) @ t=0.52
-1.3226503700558485
% es.EY (V/m) @ t=0.52
0.1018956623492267
% es.EZ (V/m) @ t=0.52
-0.3371134163135967
% es.tEX (V/m) @ t=0.52
-1.3226503700558432
% es.tEY (V/m) @ t=0.52
0
% es.tEZ (V/m) @ t=0.52
-0.33711341631359915
% es.Ex (V/m) @ t=0.52
-1.3226503700558485
% es.Ey (V/m) @ t=0.52
0.1018956623492267
% es.Ez (V/m) @ t=0.52
-0.3371134163135967
% es.tEx (V/m) @ t=0.52
-1.3226503700558432
% es.tEy (V/m) @ t=0.52
0
% es.tEz (V/m) @ t=0.52
-0.33711341631359915
% V (V) @ t=0.52
0.007932549336648453
% es.normE (V/m) @ t=0.54
1.3809585525917845
% es.EX (V/m) @ t=0.54
-1.3343694666792238
% es.EY (V/m) @ t=0.54
0.10279871606680435
% es.EZ (V/m) @ t=0.54
-0.3401006338909598
% es.tEX (V/m) @ t=0.54
-1.3343694666792185
% es.tEY (V/m) @ t=0.54
0
% es.tEZ (V/m) @ t=0.54
-0.3401006338909607
% es.Ex (V/m) @ t=0.54
-1.3343694666792238
% es.Ey (V/m) @ t=0.54
0.10279871606680435
% es.Ez (V/m) @ t=0.54
-0.3401006338909598
% es.tEx (V/m) @ t=0.54
-1.3343694666792185
% es.tEy (V/m) @ t=0.54
0
% es.tEz (V/m) @ t=0.54
-0.3401006338909607
% V (V) @ t=0.54
0.00800282749299239
% es.normE (V/m) @ t=0.56
1.3941255044355145
% es.EX (V/m) @ t=0.56
-1.3470922704390285
% es.EY (V/m) @ t=0.56
0.10377870536169181
% es.EZ (V/m) @ t=0.56
-0.34334318126968033
% es.tEX (V/m) @ t=0.56
-1.347092270439033
% es.tEY (V/m) @ t=0.56
0
% es.tEZ (V/m) @ t=0.56
-0.343343181269681
% es.Ex (V/m) @ t=0.56
-1.3470922704390285
% es.Ey (V/m) @ t=0.56
0.10377870536169181
% es.Ez (V/m) @ t=0.56
-0.34334318126968033
% es.tEx (V/m) @ t=0.56
-1.347092270439033
% es.tEy (V/m) @ t=0.56
0
% es.tEz (V/m) @ t=0.56
-0.343343181269681
% V (V) @ t=0.56
0.00807913688961758
% es.normE (V/m) @ t=0.58
1.4076639426153998
% es.EX (V/m) @ t=0.58
-1.3601740806020848
% es.EY (V/m) @ t=0.58
0.10478621300716395
% es.EZ (V/m) @ t=0.58
-0.3466770551223177
% es.tEX (V/m) @ t=0.58
-1.360174080602084
% es.tEY (V/m) @ t=0.58
0
% es.tEZ (V/m) @ t=0.58
-0.34667705512231706
% es.Ex (V/m) @ t=0.58
-1.3601740806020848
% es.Ey (V/m) @ t=0.58
0.10478621300716395
% es.Ez (V/m) @ t=0.58
-0.3466770551223177
% es.tEx (V/m) @ t=0.58
-1.360174080602084
% es.tEy (V/m) @ t=0.58
0
% es.tEz (V/m) @ t=0.58
-0.34667705512231706
% V (V) @ t=0.58
0.008157603542878427
% es.normE (V/m) @ t=0.6
1.421202380795449
% es.EX (V/m) @ t=0.6
-1.373255890765125
% es.EY (V/m) @ t=0.6
0.10579372065265219
% es.EZ (V/m) @ t=0.6
-0.35001092897496533
% es.tEX (V/m) @ t=0.6
-1.3732558907651278
% es.tEY (V/m) @ t=0.6
0
% es.tEZ (V/m) @ t=0.6
-0.35001092897496555
% es.Ex (V/m) @ t=0.6
-1.373255890765125
% es.Ey (V/m) @ t=0.6
0.10579372065265219
% es.Ez (V/m) @ t=0.6
-0.35001092897496533
% es.tEx (V/m) @ t=0.6
-1.3732558907651278
% es.tEy (V/m) @ t=0.6
0
% es.tEz (V/m) @ t=0.6
-0.35001092897496555
% V (V) @ t=0.6
0.008236070196139273
% es.normE (V/m) @ t=0.62
1.4347408189756676
% es.EX (V/m) @ t=0.62
-1.3863377009281628
% es.EY (V/m) @ t=0.62
0.10680122829814848
% es.EZ (V/m) @ t=0.62
-0.35334480282761715
% es.tEX (V/m) @ t=0.62
-1.3863377009281521
% es.tEY (V/m) @ t=0.62
0
% es.tEZ (V/m) @ t=0.62
-0.35334480282762115
% es.Ex (V/m) @ t=0.62
-1.3863377009281628
% es.Ey (V/m) @ t=0.62
0.10680122829814848
% es.Ez (V/m) @ t=0.62
-0.35334480282761715
% es.tEx (V/m) @ t=0.62
-1.3863377009281521
% es.tEy (V/m) @ t=0.62
0
% es.tEz (V/m) @ t=0.62
-0.35334480282762115
% V (V) @ t=0.62
0.008314536849400119
% es.normE (V/m) @ t=0.64
1.4482792571560614
% es.EX (V/m) @ t=0.64
-1.3994195110912155
% es.EY (V/m) @ t=0.64
0.1078087359436154
% es.EZ (V/m) @ t=0.64
-0.35667867668025854
% es.tEX (V/m) @ t=0.64
-1.399419511091219
% es.tEY (V/m) @ t=0.64
0
% es.tEZ (V/m) @ t=0.64
-0.35667867668024833
% es.Ex (V/m) @ t=0.64
-1.3994195110912155
% es.Ey (V/m) @ t=0.64
0.1078087359436154
% es.Ez (V/m) @ t=0.64
-0.35667867668025854
% es.tEx (V/m) @ t=0.64
-1.399419511091219
% es.tEy (V/m) @ t=0.64
0
% es.tEz (V/m) @ t=0.64
-0.35667867668024833
% V (V) @ t=0.64
0.008393003502660965
% es.normE (V/m) @ t=0.66
1.4618176953366153
% es.EX (V/m) @ t=0.66
-1.412501321254263
% es.EY (V/m) @ t=0.66
0.10881624358910619
% es.EZ (V/m) @ t=0.66
-0.36001255053290926
% es.tEX (V/m) @ t=0.66
-1.412501321254263
% es.tEY (V/m) @ t=0.66
0
% es.tEZ (V/m) @ t=0.66
-0.36001255053290215
% es.Ex (V/m) @ t=0.66
-1.412501321254263
% es.Ey (V/m) @ t=0.66
0.10881624358910619
% es.Ez (V/m) @ t=0.66
-0.36001255053290926
% es.tEx (V/m) @ t=0.66
-1.412501321254263
% es.tEy (V/m) @ t=0.66
0
% es.tEz (V/m) @ t=0.66
-0.36001255053290215
% V (V) @ t=0.66
0.00847147015592181
% es.normE (V/m) @ t=0.68
1.4753561335173242
% es.EX (V/m) @ t=0.68
-1.4255831314173113
% es.EY (V/m) @ t=0.68
0.1098237512345775
% es.EZ (V/m) @ t=0.68
-0.36334642438555687
% es.tEX (V/m) @ t=0.68
-1.4255831314173104
% es.tEY (V/m) @ t=0.68
0
% es.tEZ (V/m) @ t=0.68
-0.363346424385556
% es.Ex (V/m) @ t=0.68
-1.4255831314173113
% es.Ey (V/m) @ t=0.68
0.1098237512345775
% es.Ez (V/m) @ t=0.68
-0.36334642438555687
% es.tEx (V/m) @ t=0.68
-1.4255831314173104
% es.tEy (V/m) @ t=0.68
0
% es.tEz (V/m) @ t=0.68
-0.363346424385556
% V (V) @ t=0.68
0.008549936809182656
% es.normE (V/m) @ t=0.7
1.488894571698182
% es.EX (V/m) @ t=0.7
-1.4386649415803525
% es.EY (V/m) @ t=0.7
0.11083125888007372
% es.EZ (V/m) @ t=0.7
-0.36668029823821
% es.tEX (V/m) @ t=0.7
-1.4386649415803543
% es.tEY (V/m) @ t=0.7
0
% es.tEZ (V/m) @ t=0.7
-0.36668029823821335
% es.Ex (V/m) @ t=0.7
-1.4386649415803525
% es.Ey (V/m) @ t=0.7
0.11083125888007372
% es.Ez (V/m) @ t=0.7
-0.36668029823821
% es.tEx (V/m) @ t=0.7
-1.4386649415803543
% es.tEy (V/m) @ t=0.7
0
% es.tEz (V/m) @ t=0.7
-0.36668029823821335
% V (V) @ t=0.7
0.008628403462443503
% es.normE (V/m) @ t=0.72
1.502433009879182
% es.EX (V/m) @ t=0.72
-1.4517467517433937
% es.EY (V/m) @ t=0.72
0.11183876652554509
% es.EZ (V/m) @ t=0.72
-0.37001417209084786
% es.tEX (V/m) @ t=0.72
-1.4517467517433928
% es.tEY (V/m) @ t=0.72
0
% es.tEZ (V/m) @ t=0.72
-0.3700141720908512
% es.Ex (V/m) @ t=0.72
-1.4517467517433937
% es.Ey (V/m) @ t=0.72
0.11183876652554509
% es.Ez (V/m) @ t=0.72
-0.37001417209084786
% es.tEx (V/m) @ t=0.72
-1.4517467517433928
% es.tEy (V/m) @ t=0.72
0
% es.tEz (V/m) @ t=0.72
-0.3700141720908512
% V (V) @ t=0.72
0.008706870115704349
% es.normE (V/m) @ t=0.74
1.5159714480603408
% es.EX (V/m) @ t=0.74
-1.4648285619064465
% es.EY (V/m) @ t=0.74
0.1128462741710235
% es.EZ (V/m) @ t=0.74
-0.37334804594349813
% es.tEX (V/m) @ t=0.74
-1.4648285619064367
% es.tEY (V/m) @ t=0.74
0
% es.tEZ (V/m) @ t=0.74
-0.37334804594349613
% es.Ex (V/m) @ t=0.74
-1.4648285619064465
% es.Ey (V/m) @ t=0.74
0.1128462741710235
% es.Ez (V/m) @ t=0.74
-0.37334804594349813
% es.tEx (V/m) @ t=0.74
-1.4648285619064367
% es.tEy (V/m) @ t=0.74
0
% es.tEz (V/m) @ t=0.74
-0.37334804594349613
% V (V) @ t=0.74
0.008785336768965195
% es.normE (V/m) @ t=0.76
1.5295098862416356
% es.EX (V/m) @ t=0.76
-1.4779103720694957
% es.EY (V/m) @ t=0.76
0.11385378181651173
% es.EZ (V/m) @ t=0.76
-0.3766819197961395
% es.tEX (V/m) @ t=0.76
-1.4779103720695055
% es.tEY (V/m) @ t=0.76
0
% es.tEZ (V/m) @ t=0.76
-0.3766819197961446
% es.Ex (V/m) @ t=0.76
-1.4779103720694957
% es.Ey (V/m) @ t=0.76
0.11385378181651173
% es.Ez (V/m) @ t=0.76
-0.3766819197961395
% es.tEx (V/m) @ t=0.76
-1.4779103720695055
% es.tEy (V/m) @ t=0.76
0
% es.tEz (V/m) @ t=0.76
-0.3766819197961446
% V (V) @ t=0.76
0.008863803422226042
% es.normE (V/m) @ t=0.78
1.5430483244230782
% es.EX (V/m) @ t=0.78
-1.4909921822325547
% es.EY (V/m) @ t=0.78
0.11486128946200169
% es.EZ (V/m) @ t=0.78
-0.38001579364878824
% es.tEX (V/m) @ t=0.78
-1.4909921822325352
% es.tEY (V/m) @ t=0.78
0
% es.tEZ (V/m) @ t=0.78
-0.38001579364878957
% es.Ex (V/m) @ t=0.78
-1.4909921822325547
% es.Ey (V/m) @ t=0.78
0.11486128946200169
% es.Ez (V/m) @ t=0.78
-0.38001579364878824
% es.tEx (V/m) @ t=0.78
-1.4909921822325352
% es.tEy (V/m) @ t=0.78
0
% es.tEz (V/m) @ t=0.78
-0.38001579364878957
% V (V) @ t=0.78
0.008942270075486885
% es.normE (V/m) @ t=0.8
1.556586762604618
% es.EX (V/m) @ t=0.8
-1.5040739923955782
% es.EY (V/m) @ t=0.8
0.11586879710746328
% es.EZ (V/m) @ t=0.8
-0.3833496675014394
% es.tEX (V/m) @ t=0.8
-1.5040739923955933
% es.tEY (V/m) @ t=0.8
0
% es.tEZ (V/m) @ t=0.8
-0.38334966750143273
% es.Ex (V/m) @ t=0.8
-1.5040739923955782
% es.Ey (V/m) @ t=0.8
0.11586879710746328
% es.Ez (V/m) @ t=0.8
-0.3833496675014394
% es.tEx (V/m) @ t=0.8
-1.5040739923955933
% es.tEy (V/m) @ t=0.8
0
% es.tEz (V/m) @ t=0.8
-0.38334966750143273
% V (V) @ t=0.8
0.009020736728747732
% es.normE (V/m) @ t=0.82
1.5703009474421006
% es.EX (V/m) @ t=0.82
-1.5173255964012204
% es.EY (V/m) @ t=0.82
0.11688944806693408
% es.EZ (V/m) @ t=0.82
-0.3867268969359525
% es.tEX (V/m) @ t=0.82
-1.5173255964012107
% es.tEY (V/m) @ t=0.82
0
% es.tEZ (V/m) @ t=0.82
-0.3867268969359454
% es.Ex (V/m) @ t=0.82
-1.5173255964012204
% es.Ey (V/m) @ t=0.82
0.11688944806693408
% es.Ez (V/m) @ t=0.82
-0.3867268969359525
% es.tEx (V/m) @ t=0.82
-1.5173255964012107
% es.tEy (V/m) @ t=0.82
0
% es.tEz (V/m) @ t=0.82
-0.3867268969359454
% V (V) @ t=0.82
0.009100219859091015
% es.normE (V/m) @ t=0.84
1.5854397625982697
% es.EX (V/m) @ t=0.84
-1.5319535762757068
% es.EY (V/m) @ t=0.84
0.11801664081807528
% es.EZ (V/m) @ t=0.84
-0.3904555736065052
% es.tEX (V/m) @ t=0.84
-1.5319535762757042
% es.tEY (V/m) @ t=0.84
0
% es.tEZ (V/m) @ t=0.84
-0.39045557360651273
% es.Ex (V/m) @ t=0.84
-1.5319535762757068
% es.Ey (V/m) @ t=0.84
0.11801664081807528
% es.Ez (V/m) @ t=0.84
-0.3904555736065052
% es.tEx (V/m) @ t=0.84
-1.5319535762757042
% es.tEy (V/m) @ t=0.84
0
% es.tEz (V/m) @ t=0.84
-0.39045557360651273
% V (V) @ t=0.84
0.009187942714186569
% es.normE (V/m) @ t=0.86
1.6005785777546064
% es.EX (V/m) @ t=0.86
-1.5465815561502074
% es.EY (V/m) @ t=0.86
0.11914383356920666
% es.EZ (V/m) @ t=0.86
-0.39418425027704584
% es.tEX (V/m) @ t=0.86
-1.546581556150203
% es.tEY (V/m) @ t=0.86
0
% es.tEZ (V/m) @ t=0.86
-0.3941842502770445
% es.Ex (V/m) @ t=0.86
-1.5465815561502074
% es.Ey (V/m) @ t=0.86
0.11914383356920666
% es.Ez (V/m) @ t=0.86
-0.39418425027704584
% es.tEx (V/m) @ t=0.86
-1.546581556150203
% es.tEy (V/m) @ t=0.86
0
% es.tEz (V/m) @ t=0.86
-0.3941842502770445
% V (V) @ t=0.86
0.00927566556928212
% es.normE (V/m) @ t=0.88
1.6157173929110908
% es.EX (V/m) @ t=0.88
-1.5612095360247
% es.EY (V/m) @ t=0.88
0.12027102632032738
% es.EZ (V/m) @ t=0.88
-0.39791292694759983
% es.tEX (V/m) @ t=0.88
-1.5612095360246965
% es.tEY (V/m) @ t=0.88
0
% es.tEZ (V/m) @ t=0.88
-0.3979129269475834
% es.Ex (V/m) @ t=0.88
-1.5612095360247
% es.Ey (V/m) @ t=0.88
0.12027102632032738
% es.Ez (V/m) @ t=0.88
-0.39791292694759983
% es.tEx (V/m) @ t=0.88
-1.5612095360246965
% es.tEy (V/m) @ t=0.88
0
% es.tEz (V/m) @ t=0.88
-0.3979129269475834
% V (V) @ t=0.88
0.009363388424377674
% es.normE (V/m) @ t=0.9
1.6308562080677298
% es.EX (V/m) @ t=0.9
-1.5758375158992006
% es.EY (V/m) @ t=0.9
0.12139821907145965
% es.EZ (V/m) @ t=0.9
-0.40164160361814005
% es.tEX (V/m) @ t=0.9
-1.5758375158992042
% es.tEY (V/m) @ t=0.9
0
% es.tEZ (V/m) @ t=0.9
-0.4016416036181383
% es.Ex (V/m) @ t=0.9
-1.5758375158992006
% es.Ey (V/m) @ t=0.9
0.12139821907145965
% es.Ez (V/m) @ t=0.9
-0.40164160361814005
% es.tEx (V/m) @ t=0.9
-1.5758375158992042
% es.tEy (V/m) @ t=0.9
0
% es.tEz (V/m) @ t=0.9
-0.4016416036181383
% V (V) @ t=0.9
0.009451111279473227
% es.normE (V/m) @ t=0.92
1.6459950232244975
% es.EX (V/m) @ t=0.92
-1.5904654957736835
% es.EY (V/m) @ t=0.92
0.12252541182258658
% es.EZ (V/m) @ t=0.92
-0.4053702802886874
% es.tEX (V/m) @ t=0.92
-1.5904654957736977
% es.tEY (V/m) @ t=0.92
0
% es.tEZ (V/m) @ t=0.92
-0.4053702802886914
% es.Ex (V/m) @ t=0.92
-1.5904654957736835
% es.Ey (V/m) @ t=0.92
0.12252541182258658
% es.Ez (V/m) @ t=0.92
-0.4053702802886874
% es.tEx (V/m) @ t=0.92
-1.5904654957736977
% es.tEy (V/m) @ t=0.92
0
% es.tEz (V/m) @ t=0.92
-0.4053702802886914
% V (V) @ t=0.92
0.009538834134568781
% es.normE (V/m) @ t=0.94
1.6611338383814187
% es.EX (V/m) @ t=0.94
-1.605093475648176
% es.EY (V/m) @ t=0.94
0.12365260457372518
% es.EZ (V/m) @ t=0.94
-0.40909895695924403
% es.tEX (V/m) @ t=0.94
-1.605093475648184
% es.tEY (V/m) @ t=0.94
0
% es.tEZ (V/m) @ t=0.94
-0.4090989569592445
% es.Ex (V/m) @ t=0.94
-1.605093475648176
% es.Ey (V/m) @ t=0.94
0.12365260457372518
% es.Ez (V/m) @ t=0.94
-0.40909895695924403
% es.tEx (V/m) @ t=0.94
-1.605093475648184
% es.tEy (V/m) @ t=0.94
0
% es.tEz (V/m) @ t=0.94
-0.4090989569592445
% V (V) @ t=0.94
0.009626556989664331
% es.normE (V/m) @ t=0.96
1.6762726535384822
% es.EX (V/m) @ t=0.96
-1.619721455522681
% es.EY (V/m) @ t=0.96
0.1247797973248449
% es.EZ (V/m) @ t=0.96
-0.41282763362977937
% es.tEX (V/m) @ t=0.96
-1.6197214555226846
% es.tEY (V/m) @ t=0.96
0
% es.tEZ (V/m) @ t=0.96
-0.41282763362977093
% es.Ex (V/m) @ t=0.96
-1.619721455522681
% es.Ey (V/m) @ t=0.96
0.1247797973248449
% es.Ez (V/m) @ t=0.96
-0.41282763362977937
% es.tEx (V/m) @ t=0.96
-1.6197214555226846
% es.tEy (V/m) @ t=0.96
0
% es.tEz (V/m) @ t=0.96
-0.41282763362977093
% V (V) @ t=0.96
0.009714279844759886
% es.normE (V/m) @ t=0.98
1.6914114686956645
% es.EX (V/m) @ t=0.98
-1.634349435397163
% es.EY (V/m) @ t=0.98
0.12590699007597994
% es.EZ (V/m) @ t=0.98
-0.41655631030034046
% es.tEX (V/m) @ t=0.98
-1.6343494353971781
% es.tEY (V/m) @ t=0.98
0
% es.tEZ (V/m) @ t=0.98
-0.41655631030033824
% es.Ex (V/m) @ t=0.98
-1.634349435397163
% es.Ey (V/m) @ t=0.98
0.12590699007597994
% es.Ez (V/m) @ t=0.98
-0.41655631030034046
% es.tEx (V/m) @ t=0.98
-1.6343494353971781
% es.tEy (V/m) @ t=0.98
0
% es.tEz (V/m) @ t=0.98
-0.41655631030033824
% V (V) @ t=0.98
0.009802002699855438
% es.normE (V/m) @ t=1
1.706550283852986
% es.EX (V/m) @ t=1
-1.64897741527166
% es.EY (V/m) @ t=1
0.12703418282710333
% es.EZ (V/m) @ t=1
-0.4202849869708847
% es.tEX (V/m) @ t=1
-1.6489774152716805
% es.tEY (V/m) @ t=1
0
% es.tEZ (V/m) @ t=1
-0.42028498697088246
% es.Ex (V/m) @ t=1
-1.64897741527166
% es.Ey (V/m) @ t=1
0.12703418282710333
% es.Ez (V/m) @ t=1
-0.4202849869708847
% es.tEx (V/m) @ t=1
-1.6489774152716805
% es.tEy (V/m) @ t=1
0
% es.tEz (V/m) @ t=1
-0.42028498697088246
% V (V) @ t=1
0.009889725554950993
% es.normE (V/m) @ t=1.02
1.7216890990104403
% es.EX (V/m) @ t=1.02
-1.6636053951461633
% es.EY (V/m) @ t=1.02
0.12816137557824803
% es.EZ (V/m) @ t=1.02
-0.42401366364142357
% es.tEX (V/m) @ t=1.02
-1.663605395146167
% es.tEY (V/m) @ t=1.02
0
% es.tEZ (V/m) @ t=1.02
-0.42401366364142135
% es.Ex (V/m) @ t=1.02
-1.6636053951461633
% es.Ey (V/m) @ t=1.02
0.12816137557824803
% es.Ez (V/m) @ t=1.02
-0.42401366364142357
% es.tEx (V/m) @ t=1.02