% Model:              1 neuron.mph
% Version:            COMSOL 6.0.0.405
% Date:               Mar 16 2023, 16:59
% Dimension:          0
% Nodes:              14017
% Expressions:        14017
% Description:        Electric field norm, Electric field, X component, Electric field, Y component, Electric field, Z component, Tangential electric field, X component, Tangential electric field, Y component, Tangential electric field, Z component, Electric field, x component, Electric field, y component, Electric field, z component, Tangential electric field, x component, Tangential electric field, y component, Tangential electric field, z component, Electric potential
% Length unit:        mm
% x
1.66
% y
12.2
% z
2
% es.normE (V/m) @ t=0
1.4632484830776453
% es.EX (V/m) @ t=0
-0.43651568557614373
% es.EY (V/m) @ t=0
0.0326059292893685
% es.EZ (V/m) @ t=0
-1.3938908885160881
% es.tEX (V/m) @ t=0
-0.43651568557614695
% es.tEY (V/m) @ t=0
0
% es.tEZ (V/m) @ t=0
-1.3938908885161014
% es.Ex (V/m) @ t=0
-0.43651568557614373
% es.Ey (V/m) @ t=0
0.0326059292893685
% es.Ez (V/m) @ t=0
-1.3938908885160881
% es.tEx (V/m) @ t=0
-0.43651568557614695
% es.tEy (V/m) @ t=0
0
% es.tEz (V/m) @ t=0
-1.3938908885161014
% V (V) @ t=0
0.007354896497089353
% es.normE (V/m) @ t=0.02
1.263835287718284
% es.EX (V/m) @ t=0.02
-0.3770268233412092
% es.EY (V/m) @ t=0.02
0.02816235588703439
% es.EZ (V/m) @ t=0.02
-1.2039298262729528
% es.tEX (V/m) @ t=0.02
-0.37702682334121107
% es.tEY (V/m) @ t=0.02
0
% es.tEZ (V/m) @ t=0.02
-1.2039298262729714
% es.Ex (V/m) @ t=0.02
-0.3770268233412092
% es.Ey (V/m) @ t=0.02
0.02816235588703439
% es.Ez (V/m) @ t=0.02
-1.2039298262729528
% es.tEx (V/m) @ t=0.02
-0.37702682334121107
% es.tEy (V/m) @ t=0.02
0
% es.tEz (V/m) @ t=0.02
-1.2039298262729714
% V (V) @ t=0.02
0.006352562689015877
% es.normE (V/m) @ t=0.04
1.275459470927125
% es.EX (V/m) @ t=0.04
-0.38049454791936577
% es.EY (V/m) @ t=0.04
0.02842138676054689
% es.EZ (V/m) @ t=0.04
-1.2150030249361743
% es.tEX (V/m) @ t=0.04
-0.38049454791936554
% es.tEY (V/m) @ t=0.04
0
% es.tEZ (V/m) @ t=0.04
-1.215003024936189
% es.Ex (V/m) @ t=0.04
-0.38049454791936577
% es.Ey (V/m) @ t=0.04
0.02842138676054689
% es.Ez (V/m) @ t=0.04
-1.2150030249361743
% es.tEx (V/m) @ t=0.04
-0.38049454791936554
% es.tEy (V/m) @ t=0.04
0
% es.tEz (V/m) @ t=0.04
-1.215003024936189
% V (V) @ t=0.04
0.006410990532645826
% es.normE (V/m) @ t=0.06
1.287189116398145
% es.EX (V/m) @ t=0.06
-0.3839937403612382
% es.EY (V/m) @ t=0.06
0.028682781150280667
% es.EZ (V/m) @ t=0.06
-1.2261766841994328
% es.tEX (V/m) @ t=0.06
-0.383993740361241
% es.tEY (V/m) @ t=0.06
0
% es.tEZ (V/m) @ t=0.06
-1.22617668419944
% es.Ex (V/m) @ t=0.06
-0.3839937403612382
% es.Ey (V/m) @ t=0.06
0.028682781150280667
% es.Ez (V/m) @ t=0.06
-1.2261766841994328
% es.tEx (V/m) @ t=0.06
-0.383993740361241
% es.tEy (V/m) @ t=0.06
0
% es.tEz (V/m) @ t=0.06
-1.22617668419944
% V (V) @ t=0.06
0.006469948168119219
% es.normE (V/m) @ t=0.08
1.2990962158579302
% es.EX (V/m) @ t=0.08
-0.38754586204125147
% es.EY (V/m) @ t=0.08
0.028948111427104406
% es.EZ (V/m) @ t=0.08
-1.2375193899750823
% es.tEX (V/m) @ t=0.08
-0.3875458620412573
% es.tEY (V/m) @ t=0.08
0
% es.tEZ (V/m) @ t=0.08
-1.237519389975092
% es.Ex (V/m) @ t=0.08
-0.38754586204125147
% es.Ey (V/m) @ t=0.08
0.028948111427104406
% es.Ez (V/m) @ t=0.08
-1.2375193899750823
% es.tEx (V/m) @ t=0.08
-0.3875458620412573
% es.tEy (V/m) @ t=0.08
0
% es.tEz (V/m) @ t=0.08
-1.237519389975092
% V (V) @ t=0.08
0.006529798178729982
% es.normE (V/m) @ t=0.1
1.3111299085341197
% es.EX (V/m) @ t=0.1
-0.39113574270624685
% es.EY (V/m) @ t=0.1
0.029216249511234235
% es.EZ (V/m) @ t=0.1
-1.2489826911900042
% es.tEX (V/m) @ t=0.1
-0.3911357427062505
% es.tEY (V/m) @ t=0.1
0
% es.tEZ (V/m) @ t=0.1
-1.2489826911900055
% es.Ex (V/m) @ t=0.1
-0.39113574270624685
% es.Ey (V/m) @ t=0.1
0.029216249511234235
% es.Ez (V/m) @ t=0.1
-1.2489826911900042
% es.tEx (V/m) @ t=0.1
-0.3911357427062505
% es.tEy (V/m) @ t=0.1
0
% es.tEz (V/m) @ t=0.1
-1.2489826911900055
% V (V) @ t=0.1
0.006590284797397013
% es.normE (V/m) @ t=0.12
1.3231636012102856
% es.EX (V/m) @ t=0.12
-0.39472562337124517
% es.EY (V/m) @ t=0.12
0.029484387595357875
% es.EZ (V/m) @ t=0.12
-1.2604459924049003
% es.tEX (V/m) @ t=0.12
-0.3947256233712473
% es.tEY (V/m) @ t=0.12
0
% es.tEZ (V/m) @ t=0.12
-1.2604459924049118
% es.Ex (V/m) @ t=0.12
-0.39472562337124517
% es.Ey (V/m) @ t=0.12
0.029484387595357875
% es.Ez (V/m) @ t=0.12
-1.2604459924049003
% es.tEx (V/m) @ t=0.12
-0.3947256233712473
% es.tEy (V/m) @ t=0.12
0
% es.tEz (V/m) @ t=0.12
-1.2604459924049118
% V (V) @ t=0.12
0.006650771416064042
% es.normE (V/m) @ t=0.14
1.3353113446329843
% es.EX (V/m) @ t=0.14
-0.3983495277967809
% es.EY (V/m) @ t=0.14
0.029755067512265275
% es.EZ (V/m) @ t=0.14
-1.272017938308002
% es.tEX (V/m) @ t=0.14
-0.3983495277967819
% es.tEY (V/m) @ t=0.14
0
% es.tEZ (V/m) @ t=0.14
-1.27201793830801
% es.Ex (V/m) @ t=0.14
-0.3983495277967809
% es.Ey (V/m) @ t=0.14
0.029755067512265275
% es.Ez (V/m) @ t=0.14
-1.272017938308002
% es.tEx (V/m) @ t=0.14
-0.3983495277967819
% es.tEy (V/m) @ t=0.14
0
% es.tEz (V/m) @ t=0.14
-1.27201793830801
% V (V) @ t=0.14
0.006711831292032463
% es.normE (V/m) @ t=0.16
1.3479884509410096
% es.EX (V/m) @ t=0.16
-0.4021313524165739
% es.EY (V/m) @ t=0.16
0.030037545264642175
% es.EZ (V/m) @ t=0.16
-1.2840941550499387
% es.tEX (V/m) @ t=0.16
-0.40213135241658193
% es.tEY (V/m) @ t=0.16
0
% es.tEZ (V/m) @ t=0.16
-1.2840941550499423
% es.Ex (V/m) @ t=0.16
-0.4021313524165739
% es.Ey (V/m) @ t=0.16
0.030037545264642175
% es.Ez (V/m) @ t=0.16
-1.2840941550499387
% es.tEx (V/m) @ t=0.16
-0.40213135241658193
% es.tEy (V/m) @ t=0.16
0
% es.tEz (V/m) @ t=0.16
-1.2840941550499423
% V (V) @ t=0.16
0.006775551923396093
% es.normE (V/m) @ t=0.18
1.360665557249038
% es.EX (V/m) @ t=0.18
-0.4059131770363784
% es.EY (V/m) @ t=0.18
0.030320023017002297
% es.EZ (V/m) @ t=0.18
-1.2961703717918756
% es.tEX (V/m) @ t=0.18
-0.4059131770363784
% es.tEY (V/m) @ t=0.18
0
% es.tEZ (V/m) @ t=0.18
-1.2961703717918898
% es.Ex (V/m) @ t=0.18
-0.4059131770363784
% es.Ey (V/m) @ t=0.18
0.030320023017002297
% es.Ez (V/m) @ t=0.18
-1.2961703717918756
% es.tEx (V/m) @ t=0.18
-0.4059131770363784
% es.tEy (V/m) @ t=0.18
0
% es.tEz (V/m) @ t=0.18
-1.2961703717918898
% V (V) @ t=0.18
0.006839272554759724
% es.normE (V/m) @ t=0.2
1.3733426635570543
% es.EX (V/m) @ t=0.2
-0.4096950016561728
% es.EY (V/m) @ t=0.2
0.030602500769371203
% es.EZ (V/m) @ t=0.2
-1.3082465885338022
% es.tEX (V/m) @ t=0.2
-0.40969500165617845
% es.tEY (V/m) @ t=0.2
0
% es.tEZ (V/m) @ t=0.2
-1.308246588533823
% es.Ex (V/m) @ t=0.2
-0.4096950016561728
% es.Ey (V/m) @ t=0.2
0.030602500769371203
% es.Ez (V/m) @ t=0.2
-1.3082465885338022
% es.tEx (V/m) @ t=0.2
-0.40969500165617845
% es.tEy (V/m) @ t=0.2
0
% es.tEz (V/m) @ t=0.2
-1.308246588533823
% V (V) @ t=0.2
0.006902993186123353
% es.normE (V/m) @ t=0.22
1.386019769865083
% es.EX (V/m) @ t=0.22
-0.413476826275976
% es.EY (V/m) @ t=0.22
0.03088497852173134
% es.EZ (V/m) @ t=0.22
-1.320322805275739
% es.tEX (V/m) @ t=0.22
-0.41347682627597493
% es.tEY (V/m) @ t=0.22
0
% es.tEZ (V/m) @ t=0.22
-1.3203228052757563
% es.Ex (V/m) @ t=0.22
-0.413476826275976
% es.Ey (V/m) @ t=0.22
0.03088497852173134
% es.Ez (V/m) @ t=0.22
-1.320322805275739
% es.tEx (V/m) @ t=0.22
-0.41347682627597493
% es.tEy (V/m) @ t=0.22
0
% es.tEz (V/m) @ t=0.22
-1.3203228052757563
% V (V) @ t=0.22
0.006966713817486983
% es.normE (V/m) @ t=0.24
1.398696876173124
% es.EX (V/m) @ t=0.24
-0.4172586508957765
% es.EY (V/m) @ t=0.24
0.031167456274116136
% es.EZ (V/m) @ t=0.24
-1.33239902201769
% es.tEX (V/m) @ t=0.24
-0.41725865089578207
% es.tEY (V/m) @ t=0.24
0
% es.tEZ (V/m) @ t=0.24
-1.3323990220176958
% es.Ex (V/m) @ t=0.24
-0.4172586508957765
% es.Ey (V/m) @ t=0.24
0.031167456274116136
% es.Ez (V/m) @ t=0.24
-1.33239902201769
% es.tEx (V/m) @ t=0.24
-0.41725865089578207
% es.tEy (V/m) @ t=0.24
0
% es.tEz (V/m) @ t=0.24
-1.3323990220176958
% V (V) @ t=0.24
0.007030434448850614
% es.normE (V/m) @ t=0.26
1.4113739824811407
% es.EX (V/m) @ t=0.26
-0.4210404755155718
% es.EY (V/m) @ t=0.26
0.03144993402647536
% es.EZ (V/m) @ t=0.26
-1.3444752387596166
% es.tEX (V/m) @ t=0.26
-0.421040475515575
% es.tEY (V/m) @ t=0.26
0
% es.tEZ (V/m) @ t=0.26
-1.344475238759629
% es.Ex (V/m) @ t=0.26
-0.4210404755155718
% es.Ey (V/m) @ t=0.26
0.03144993402647536
% es.Ez (V/m) @ t=0.26
-1.3444752387596166
% es.tEx (V/m) @ t=0.26
-0.421040475515575
% es.tEy (V/m) @ t=0.26
0
% es.tEz (V/m) @ t=0.26
-1.344475238759629
% V (V) @ t=0.26
0.0070941550802142445
% es.normE (V/m) @ t=0.28
1.424578819253264
% es.EX (V/m) @ t=0.28
-0.42497928119189843
% es.EY (V/m) @ t=0.28
0.03174324681432161
% es.EZ (V/m) @ t=0.28
-1.3570543657018783
% es.tEX (V/m) @ t=0.28
-0.4249792811919022
% es.tEY (V/m) @ t=0.28
0
% es.tEZ (V/m) @ t=0.28
-1.3570543657018819
% es.Ex (V/m) @ t=0.28
-0.42497928119189843
% es.Ey (V/m) @ t=0.28
0.03174324681432161
% es.Ez (V/m) @ t=0.28
-1.3570543657018783
% es.tEx (V/m) @ t=0.28
-0.4249792811919022
% es.tEy (V/m) @ t=0.28
0
% es.tEz (V/m) @ t=0.28
-1.3570543657018819
% V (V) @ t=0.28
0.007160549536418472
% es.normE (V/m) @ t=0.3
1.4387037565425826
% es.EX (V/m) @ t=0.3
-0.4291917840685203
% es.EY (V/m) @ t=0.3
0.032055450536798986
% es.EZ (V/m) @ t=0.3
-1.3705103189113728
% es.tEX (V/m) @ t=0.3
-0.42919178406852154
% es.tEY (V/m) @ t=0.3
0
% es.tEZ (V/m) @ t=0.3
-1.3705103189113892
% es.Ex (V/m) @ t=0.3
-0.4291917840685203
% es.Ey (V/m) @ t=0.3
0.032055450536798986
% es.Ez (V/m) @ t=0.3
-1.3705103189113728
% es.tEx (V/m) @ t=0.3
-0.42919178406852154
% es.tEy (V/m) @ t=0.3
0
% es.tEz (V/m) @ t=0.3
-1.3705103189113892
% V (V) @ t=0.3
0.0072316058186359874
% es.normE (V/m) @ t=0.32
1.4528286938389696
% es.EX (V/m) @ t=0.32
-0.4334042869451369
% es.EY (V/m) @ t=0.32
0.032367654259279025
% es.EZ (V/m) @ t=0.32
-1.3839662721208672
% es.tEX (V/m) @ t=0.32
-0.4334042869451409
% es.tEY (V/m) @ t=0.32
0
% es.tEZ (V/m) @ t=0.32
-1.3839662721208814
% es.Ex (V/m) @ t=0.32
-0.4334042869451369
% es.Ey (V/m) @ t=0.32
0.032367654259279025
% es.Ez (V/m) @ t=0.32
-1.3839662721208672
% es.tEx (V/m) @ t=0.32
-0.4334042869451409
% es.tEy (V/m) @ t=0.32
0
% es.tEz (V/m) @ t=0.32
-1.3839662721208814
% V (V) @ t=0.32
0.007302662100853503
% es.normE (V/m) @ t=0.34
1.466953631142224
% es.EX (V/m) @ t=0.34
-0.4376167898217489
% es.EY (V/m) @ t=0.34
0.032679857981757286
% es.EZ (V/m) @ t=0.34
-1.3974222253303688
% es.tEX (V/m) @ t=0.34
-0.43761678982174956
% es.tEY (V/m) @ t=0.34
0
% es.tEZ (V/m) @ t=0.34
-1.3974222253303807
% es.Ex (V/m) @ t=0.34
-0.4376167898217489
% es.Ey (V/m) @ t=0.34
0.032679857981757286
% es.Ez (V/m) @ t=0.34
-1.3974222253303688
% es.tEx (V/m) @ t=0.34
-0.43761678982174956
% es.tEy (V/m) @ t=0.34
0
% es.tEz (V/m) @ t=0.34
-1.3974222253303807
% V (V) @ t=0.34
0.007373718383071019
% es.normE (V/m) @ t=0.36
1.4810785684521353
% es.EX (V/m) @ t=0.36
-0.44182929269836724
% es.EY (V/m) @ t=0.36
0.032992061704238906
% es.EZ (V/m) @ t=0.36
-1.410878178539856
% es.tEX (V/m) @ t=0.36
-0.44182929269837246
% es.tEY (V/m) @ t=0.36
0
% es.tEZ (V/m) @ t=0.36
-1.410878178539873
% es.Ex (V/m) @ t=0.36
-0.44182929269836724
% es.Ey (V/m) @ t=0.36
0.032992061704238906
% es.Ez (V/m) @ t=0.36
-1.410878178539856
% es.tEx (V/m) @ t=0.36
-0.44182929269837246
% es.tEy (V/m) @ t=0.36
0
% es.tEz (V/m) @ t=0.36
-1.410878178539873
% V (V) @ t=0.36
0.007444774665288535
% es.normE (V/m) @ t=0.38
1.4952035057685351
% es.EX (V/m) @ t=0.38
-0.44604179557497947
% es.EY (V/m) @ t=0.38
0.03330426542671979
% es.EZ (V/m) @ t=0.38
-1.4243341317493567
% es.tEX (V/m) @ t=0.38
-0.44604179557498114
% es.tEY (V/m) @ t=0.38
0
% es.tEZ (V/m) @ t=0.38
-1.4243341317493714
% es.Ex (V/m) @ t=0.38
-0.44604179557497947
% es.Ey (V/m) @ t=0.38
0.03330426542671979
% es.Ez (V/m) @ t=0.38
-1.4243341317493567
% es.tEx (V/m) @ t=0.38
-0.44604179557498114
% es.tEy (V/m) @ t=0.38
0
% es.tEz (V/m) @ t=0.38
-1.4243341317493714
% V (V) @ t=0.38
0.0075158309475060504
% es.normE (V/m) @ t=0.4
1.509328443091221
% es.EX (V/m) @ t=0.4
-0.4502542984515994
% es.EY (V/m) @ t=0.4
0.033616469149198976
% es.EZ (V/m) @ t=0.4
-1.4377900849588445
% es.tEX (V/m) @ t=0.4
-0.4502542984516076
% es.tEY (V/m) @ t=0.4
0
% es.tEZ (V/m) @ t=0.4
-1.4377900849588574
% es.Ex (V/m) @ t=0.4
-0.4502542984515994
% es.Ey (V/m) @ t=0.4
0.033616469149198976
% es.Ez (V/m) @ t=0.4
-1.4377900849588445
% es.tEx (V/m) @ t=0.4
-0.4502542984516076
% es.tEy (V/m) @ t=0.4
0
% es.tEz (V/m) @ t=0.4
-1.4377900849588574
% V (V) @ t=0.4
0.007586887229723565
% es.normE (V/m) @ t=0.42
1.5234533804200414
% es.EX (V/m) @ t=0.42
-0.4544668013282197
% es.EY (V/m) @ t=0.42
0.03392867287167453
% es.EZ (V/m) @ t=0.42
-1.4512460381683452
% es.tEX (V/m) @ t=0.42
-0.45446680132822337
% es.tEY (V/m) @ t=0.42
0
% es.tEZ (V/m) @ t=0.42
-1.4512460381683567
% es.Ex (V/m) @ t=0.42
-0.4544668013282197
% es.Ey (V/m) @ t=0.42
0.03392867287167453
% es.Ez (V/m) @ t=0.42
-1.4512460381683452
% es.tEx (V/m) @ t=0.42
-0.45446680132822337
% es.tEy (V/m) @ t=0.42
0
% es.tEz (V/m) @ t=0.42
-1.4512460381683567
% V (V) @ t=0.42
0.00765794351194108
% es.normE (V/m) @ t=0.44
1.5375783177547988
% es.EX (V/m) @ t=0.44
-0.45867930420482905
% es.EY (V/m) @ t=0.44
0.03424087659415105
% es.EZ (V/m) @ t=0.44
-1.4647019913778325
% es.tEX (V/m) @ t=0.44
-0.45867930420483205
% es.tEY (V/m) @ t=0.44
0
% es.tEZ (V/m) @ t=0.44
-1.4647019913778418
% es.Ex (V/m) @ t=0.44
-0.45867930420482905
% es.Ey (V/m) @ t=0.44
0.03424087659415105
% es.Ez (V/m) @ t=0.44
-1.4647019913778325
% es.tEx (V/m) @ t=0.44
-0.45867930420483205
% es.tEy (V/m) @ t=0.44
0
% es.tEz (V/m) @ t=0.44
-1.4647019913778418
% V (V) @ t=0.44
0.007728999794158596
% es.normE (V/m) @ t=0.46
1.5517032550953611
% es.EX (V/m) @ t=0.46
-0.46289180708144473
% es.EY (V/m) @ t=0.46
0.03455308031664085
% es.EZ (V/m) @ t=0.46
-1.478157944587334
% es.tEX (V/m) @ t=0.46
-0.46289180708144784
% es.tEY (V/m) @ t=0.46
0
% es.tEZ (V/m) @ t=0.46
-1.4781579445873412
% es.Ex (V/m) @ t=0.46
-0.46289180708144473
% es.Ey (V/m) @ t=0.46
0.03455308031664085
% es.Ez (V/m) @ t=0.46
-1.478157944587334
% es.tEx (V/m) @ t=0.46
-0.46289180708144784
% es.tEy (V/m) @ t=0.46
0
% es.tEz (V/m) @ t=0.46
-1.4781579445873412
% V (V) @ t=0.46
0.0078000560763761126
% es.normE (V/m) @ t=0.48
1.565828192441543
% es.EX (V/m) @ t=0.48
-0.4671043099580613
% es.EY (V/m) @ t=0.48
0.03486528403911289
% es.EZ (V/m) @ t=0.48
-1.491613897796821
% es.tEX (V/m) @ t=0.48
-0.4671043099580636
% es.tEY (V/m) @ t=0.48
0
% es.tEZ (V/m) @ t=0.48
-1.4916138977968343
% es.Ex (V/m) @ t=0.48
-0.4671043099580613
% es.Ey (V/m) @ t=0.48
0.03486528403911289
% es.Ez (V/m) @ t=0.48
-1.491613897796821
% es.tEx (V/m) @ t=0.48
-0.4671043099580636
% es.tEy (V/m) @ t=0.48
0
% es.tEz (V/m) @ t=0.48
-1.4916138977968343
% V (V) @ t=0.48
0.007871112358593627
% es.normE (V/m) @ t=0.5
1.5799531297932141
% es.EX (V/m) @ t=0.5
-0.47131681283467697
% es.EY (V/m) @ t=0.5
0.03517748776159356
% es.EZ (V/m) @ t=0.5
-1.505069851006315
% es.tEX (V/m) @ t=0.5
-0.47131681283468296
% es.tEY (V/m) @ t=0.5
0
% es.tEZ (V/m) @ t=0.5
-1.5050698510063327
% es.Ex (V/m) @ t=0.5
-0.47131681283467697
% es.Ey (V/m) @ t=0.5
0.03517748776159356
% es.Ez (V/m) @ t=0.5
-1.505069851006315
% es.tEx (V/m) @ t=0.5
-0.47131681283468296
% es.tEy (V/m) @ t=0.5
0
% es.tEz (V/m) @ t=0.5
-1.5050698510063327
% V (V) @ t=0.5
0.007942168640811145
% es.normE (V/m) @ t=0.52
1.59407806715023
% es.EX (V/m) @ t=0.52
-0.4755293157112963
% es.EY (V/m) @ t=0.52
0.03548969148406738
% es.EZ (V/m) @ t=0.52
-1.5185258042158165
% es.tEX (V/m) @ t=0.52
-0.47552931571129875
% es.tEY (V/m) @ t=0.52
0
% es.tEZ (V/m) @ t=0.52
-1.5185258042158258
% es.Ex (V/m) @ t=0.52
-0.4755293157112963
% es.Ey (V/m) @ t=0.52
0.03548969148406738
% es.Ez (V/m) @ t=0.52
-1.5185258042158165
% es.tEx (V/m) @ t=0.52
-0.47552931571129875
% es.tEy (V/m) @ t=0.52
0
% es.tEz (V/m) @ t=0.52
-1.5185258042158258
% V (V) @ t=0.52
0.00801322492302866
% es.normE (V/m) @ t=0.54
1.6082030045124478
% es.EX (V/m) @ t=0.54
-0.47974181858791354
% es.EY (V/m) @ t=0.54
0.035801895206541014
% es.EZ (V/m) @ t=0.54
-1.5319817574253252
% es.tEX (V/m) @ t=0.54
-0.47974181858792164
% es.tEY (V/m) @ t=0.54
0
% es.tEZ (V/m) @ t=0.54
-1.5319817574253332
% es.Ex (V/m) @ t=0.54
-0.47974181858791354
% es.Ey (V/m) @ t=0.54
0.035801895206541014
% es.Ez (V/m) @ t=0.54
-1.5319817574253252
% es.tEx (V/m) @ t=0.54
-0.47974181858792164
% es.tEy (V/m) @ t=0.54
0
% es.tEz (V/m) @ t=0.54
-1.5319817574253332
% V (V) @ t=0.54
0.008084281205246175
% es.normE (V/m) @ t=0.56
1.623540677479134
% es.EX (V/m) @ t=0.56
-0.4843180039444446
% es.EY (V/m) @ t=0.56
0.036145014293968006
% es.EZ (V/m) @ t=0.56
-1.5465921462794467
% es.tEX (V/m) @ t=0.56
-0.4843180039444448
% es.tEY (V/m) @ t=0.56
0
% es.tEZ (V/m) @ t=0.56
-1.546592146279461
% es.Ex (V/m) @ t=0.56
-0.4843180039444446
% es.Ey (V/m) @ t=0.56
0.036145014293968006
% es.Ez (V/m) @ t=0.56
-1.5465921462794467
% es.tEx (V/m) @ t=0.56
-0.4843180039444448
% es.tEy (V/m) @ t=0.56
0
% es.tEz (V/m) @ t=0.56
-1.546592146279461
% V (V) @ t=0.56
0.008161343829983613
% es.normE (V/m) @ t=0.58
1.639306721659941
% es.EX (V/m) @ t=0.58
-0.4890226518466667
% es.EY (V/m) @ t=0.58
0.03649905352933251
% es.EZ (V/m) @ t=0.58
-1.561610313209028
% es.tEX (V/m) @ t=0.58
-0.48902265184667115
% es.tEY (V/m) @ t=0.58
0
% es.tEZ (V/m) @ t=0.58
-1.5616103132090347
% es.Ex (V/m) @ t=0.58
-0.4890226518466667
% es.Ey (V/m) @ t=0.58
0.03649905352933251
% es.Ez (V/m) @ t=0.58
-1.561610313209028
% es.tEx (V/m) @ t=0.58
-0.48902265184667115
% es.tEy (V/m) @ t=0.58
0
% es.tEz (V/m) @ t=0.58
-1.5616103132090347
% V (V) @ t=0.58
0.008240528058298184
% es.normE (V/m) @ t=0.6
1.6550727658496434
% es.EX (V/m) @ t=0.6
-0.4937272997488863
% es.EY (V/m) @ t=0.6
0.036853092764693896
% es.EZ (V/m) @ t=0.6
-1.5766284801385946
% es.tEX (V/m) @ t=0.6
-0.4937272997488904
% es.tEY (V/m) @ t=0.6
0
% es.tEZ (V/m) @ t=0.6
-1.5766284801386146
% es.Ex (V/m) @ t=0.6
-0.4937272997488863
% es.Ey (V/m) @ t=0.6
0.036853092764693896
% es.Ez (V/m) @ t=0.6
-1.5766284801385946
% es.tEx (V/m) @ t=0.6
-0.4937272997488904
% es.tEy (V/m) @ t=0.6
0
% es.tEz (V/m) @ t=0.6
-1.5766284801386146
% V (V) @ t=0.6
0.008319712286612756
% es.normE (V/m) @ t=0.62
1.6708388100480212
% es.EX (V/m) @ t=0.62
-0.49843194765109977
% es.EY (V/m) @ t=0.62
0.03720713200005484
% es.EZ (V/m) @ t=0.62
-1.5916466470681825
% es.tEX (V/m) @ t=0.62
-0.49843194765110255
% es.tEY (V/m) @ t=0.62
0
% es.tEZ (V/m) @ t=0.62
-1.5916466470681945
% es.Ex (V/m) @ t=0.62
-0.49843194765109977
% es.Ey (V/m) @ t=0.62
0.03720713200005484
% es.Ez (V/m) @ t=0.62
-1.5916466470681825
% es.tEx (V/m) @ t=0.62
-0.49843194765110255
% es.tEy (V/m) @ t=0.62
0
% es.tEz (V/m) @ t=0.62
-1.5916466470681945
% V (V) @ t=0.62
0.008398896514927328
% es.normE (V/m) @ t=0.64
1.68660485425481
% es.EX (V/m) @ t=0.64
-0.5031365955533228
% es.EY (V/m) @ t=0.64
0.03756117123540894
% es.EZ (V/m) @ t=0.64
-1.6066648139977642
% es.tEX (V/m) @ t=0.64
-0.5031365955533289
% es.tEY (V/m) @ t=0.64
0
% es.tEZ (V/m) @ t=0.64
-1.6066648139977753
% es.Ex (V/m) @ t=0.64
-0.5031365955533228
% es.Ey (V/m) @ t=0.64
0.03756117123540894
% es.Ez (V/m) @ t=0.64
-1.6066648139977642
% es.tEx (V/m) @ t=0.64
-0.5031365955533289
% es.tEy (V/m) @ t=0.64
0
% es.tEz (V/m) @ t=0.64
-1.6066648139977753
% V (V) @ t=0.64
0.0084780807432419
% es.normE (V/m) @ t=0.66
1.7023708984697632
% es.EX (V/m) @ t=0.66
-0.507841243455537
% es.EY (V/m) @ t=0.66
0.037915210470770296
% es.EZ (V/m) @ t=0.66
-1.6216829809273308
% es.tEX (V/m) @ t=0.66
-0.507841243455541
% es.tEY (V/m) @ t=0.66
0
% es.tEZ (V/m) @ t=0.66
-1.6216829809273552
% es.Ex (V/m) @ t=0.66
-0.507841243455537
% es.Ey (V/m) @ t=0.66
0.037915210470770296
% es.Ez (V/m) @ t=0.66
-1.6216829809273308
% es.tEx (V/m) @ t=0.66
-0.507841243455541
% es.tEy (V/m) @ t=0.66
0
% es.tEz (V/m) @ t=0.66
-1.6216829809273552
% V (V) @ t=0.66
0.008557264971556471
% es.normE (V/m) @ t=0.68
1.7181369426926865
% es.EX (V/m) @ t=0.68
-0.5125458913577559
% es.EY (V/m) @ t=0.68
0.03826924970612946
% es.EZ (V/m) @ t=0.68
-1.6367011478569116
% es.tEX (V/m) @ t=0.68
-0.5125458913577603
% es.tEY (V/m) @ t=0.68
0
% es.tEZ (V/m) @ t=0.68
-1.6367011478569289
% es.Ex (V/m) @ t=0.68
-0.5125458913577559
% es.Ey (V/m) @ t=0.68
0.03826924970612946
% es.Ez (V/m) @ t=0.68
-1.6367011478569116
% es.tEx (V/m) @ t=0.68
-0.5125458913577603
% es.tEy (V/m) @ t=0.68
0
% es.tEz (V/m) @ t=0.68
-1.6367011478569289
% V (V) @ t=0.68
0.008636449199871044
% es.normE (V/m) @ t=0.7
1.7339029869233489
% es.EX (V/m) @ t=0.7
-0.5172505392599763
% es.EY (V/m) @ t=0.7
0.03862328894148707
% es.EZ (V/m) @ t=0.7
-1.6517193147864924
% es.tEX (V/m) @ t=0.7
-0.5172505392599795
% es.tEY (V/m) @ t=0.7
0
% es.tEZ (V/m) @ t=0.7
-1.651719314786516
% es.Ex (V/m) @ t=0.7
-0.5172505392599763
% es.Ey (V/m) @ t=0.7
0.03862328894148707
% es.Ez (V/m) @ t=0.7
-1.6517193147864924
% es.tEx (V/m) @ t=0.7
-0.5172505392599795
% es.tEy (V/m) @ t=0.7
0
% es.tEz (V/m) @ t=0.7
-1.651719314786516
% V (V) @ t=0.7
0.008715633428185616
% es.normE (V/m) @ t=0.72
1.7496690311615466
% es.EX (V/m) @ t=0.72
-0.5219551871621914
% es.EY (V/m) @ t=0.72
0.03897732817684627
% es.EZ (V/m) @ t=0.72
-1.6667374817160812
% es.tEX (V/m) @ t=0.72
-0.5219551871621917
% es.tEY (V/m) @ t=0.72
0
% es.tEZ (V/m) @ t=0.72
-1.666737481716095
% es.Ex (V/m) @ t=0.72
-0.5219551871621914
% es.Ey (V/m) @ t=0.72
0.03897732817684627
% es.Ez (V/m) @ t=0.72
-1.6667374817160812
% es.tEx (V/m) @ t=0.72
-0.5219551871621917
% es.tEy (V/m) @ t=0.72
0
% es.tEz (V/m) @ t=0.72
-1.666737481716095
% V (V) @ t=0.72
0.00879481765650019
% es.normE (V/m) @ t=0.74
1.7654350754070545
% es.EX (V/m) @ t=0.74
-0.5266598350644155
% es.EY (V/m) @ t=0.74
0.039331367412207635
% es.EZ (V/m) @ t=0.74
-1.6817556486456477
% es.tEX (V/m) @ t=0.74
-0.5266598350644252
% es.tEY (V/m) @ t=0.74
0
% es.tEZ (V/m) @ t=0.74
-1.6817556486456615
% es.Ex (V/m) @ t=0.74
-0.5266598350644155
% es.Ey (V/m) @ t=0.74
0.039331367412207635
% es.Ez (V/m) @ t=0.74
-1.6817556486456477
% es.tEx (V/m) @ t=0.74
-0.5266598350644252
% es.tEy (V/m) @ t=0.74
0
% es.tEz (V/m) @ t=0.74
-1.6817556486456615
% V (V) @ t=0.74
0.008874001884814759
% es.normE (V/m) @ t=0.76
1.7812011196597204
% es.EX (V/m) @ t=0.76
-0.5313644829666341
% es.EY (V/m) @ t=0.76
0.03968540664757039
% es.EZ (V/m) @ t=0.76
-1.6967738155752436
% es.tEX (V/m) @ t=0.76
-0.5313644829666373
% es.tEY (V/m) @ t=0.76
0
% es.tEZ (V/m) @ t=0.76
-1.6967738155752556
% es.Ex (V/m) @ t=0.76
-0.5313644829666341
% es.Ey (V/m) @ t=0.76
0.03968540664757039
% es.Ez (V/m) @ t=0.76
-1.6967738155752436
% es.tEx (V/m) @ t=0.76
-0.5313644829666373
% es.tEy (V/m) @ t=0.76
0
% es.tEz (V/m) @ t=0.76
-1.6967738155752556
% V (V) @ t=0.76
0.008953186113129329
% es.normE (V/m) @ t=0.78
1.7969671639193112
% es.EX (V/m) @ t=0.78
-0.5360691308688519
% es.EY (V/m) @ t=0.78
0.04003944588293511
% es.EZ (V/m) @ t=0.78
-1.7117919825048173
% es.tEX (V/m) @ t=0.78
-0.5360691308688601
% es.tEY (V/m) @ t=0.78
0
% es.tEZ (V/m) @ t=0.78
-1.7117919825048293
% es.Ex (V/m) @ t=0.78
-0.5360691308688519
% es.Ey (V/m) @ t=0.78
0.04003944588293511
% es.Ez (V/m) @ t=0.78
-1.7117919825048173
% es.tEx (V/m) @ t=0.78
-0.5360691308688601
% es.tEy (V/m) @ t=0.78
0
% es.tEz (V/m) @ t=0.78
-1.7117919825048293
% V (V) @ t=0.78
0.009032370341443902
% es.normE (V/m) @ t=0.8
1.8127332081856586
% es.EX (V/m) @ t=0.8
-0.540773778771068
% es.EY (V/m) @ t=0.8
0.04039348511829091
% es.EZ (V/m) @ t=0.8
-1.726810149434384
% es.tEX (V/m) @ t=0.8
-0.5407737787710722
% es.tEY (V/m) @ t=0.8
0
% es.tEZ (V/m) @ t=0.8
-1.7268101494344092
% es.Ex (V/m) @ t=0.8
-0.540773778771068
% es.Ey (V/m) @ t=0.8
0.04039348511829091
% es.Ez (V/m) @ t=0.8
-1.726810149434384
% es.tEx (V/m) @ t=0.8
-0.5407737787710722
% es.tEy (V/m) @ t=0.8
0
% es.tEz (V/m) @ t=0.8
-1.7268101494344092
% V (V) @ t=0.8
0.009111554569758474
% es.normE (V/m) @ t=0.82
1.8287107824966968
% es.EX (V/m) @ t=0.82
-0.5455414111912245
% es.EY (V/m) @ t=0.82
0.04075199396301907
% es.EZ (V/m) @ t=0.82
-1.74202987111962
% es.tEX (V/m) @ t=0.82
-0.5455414111912305
% es.tEY (V/m) @ t=0.82
0
% es.tEZ (V/m) @ t=0.82
-1.7420298711196391
% es.Ex (V/m) @ t=0.82
-0.5455414111912245
% es.Ey (V/m) @ t=0.82
0.04075199396301907
% es.Ez (V/m) @ t=0.82
-1.74202987111962
% es.tEx (V/m) @ t=0.82
-0.5455414111912305
% es.tEy (V/m) @ t=0.82
0
% es.tEz (V/m) @ t=0.82
-1.7420298711196391
% V (V) @ t=0.82
0.009191807638058888
% es.normE (V/m) @ t=0.84
1.8463413304225789
% es.EX (V/m) @ t=0.84
-0.550801227828065
% es.EY (V/m) @ t=0.84
0.04114542998121991
% es.EZ (V/m) @ t=0.84
-1.7588246158864433
% es.tEX (V/m) @ t=0.84
-0.550801227828071
% es.tEY (V/m) @ t=0.84
0
% es.tEZ (V/m) @ t=0.84
-1.7588246158864607
% es.Ex (V/m) @ t=0.84
-0.550801227828065
% es.Ey (V/m) @ t=0.84
0.04114542998121991
% es.Ez (V/m) @ t=0.84
-1.7588246158864433
% es.tEx (V/m) @ t=0.84
-0.550801227828071
% es.tEy (V/m) @ t=0.84
0
% es.tEz (V/m) @ t=0.84
-1.7588246158864607
% V (V) @ t=0.84
0.009280413015600387
% es.normE (V/m) @ t=0.86
1.8639718783487194
% es.EX (V/m) @ t=0.86
-0.5560610444649109
% es.EY (V/m) @ t=0.86
0.04153886599942912
% es.EZ (V/m) @ t=0.86
-1.7756193606532658
% es.tEX (V/m) @ t=0.86
-0.556061044464915
% es.tEY (V/m) @ t=0.86
0
% es.tEZ (V/m) @ t=0.86
-1.7756193606532893
% es.Ex (V/m) @ t=0.86
-0.5560610444649109
% es.Ey (V/m) @ t=0.86
0.04153886599942912
% es.Ez (V/m) @ t=0.86
-1.7756193606532658
% es.tEx (V/m) @ t=0.86
-0.556061044464915
% es.tEy (V/m) @ t=0.86
0
% es.tEz (V/m) @ t=0.86
-1.7756193606532893
% V (V) @ t=0.86
0.009369018393141889
% es.normE (V/m) @ t=0.88
1.881602426275101
% es.EX (V/m) @ t=0.88
-0.5613208611017542
% es.EY (V/m) @ t=0.88
0.04193230201763147
% es.EZ (V/m) @ t=0.88
-1.792414105420081
% es.tEX (V/m) @ t=0.88
-0.561320861101759
% es.tEY (V/m) @ t=0.88
0
% es.tEZ (V/m) @ t=0.88
-1.7924141054200975
% es.Ex (V/m) @ t=0.88
-0.5613208611017542
% es.Ey (V/m) @ t=0.88
0.04193230201763147
% es.Ez (V/m) @ t=0.88
-1.792414105420081
% es.tEx (V/m) @ t=0.88
-0.561320861101759
% es.tEy (V/m) @ t=0.88
0
% es.tEz (V/m) @ t=0.88
-1.7924141054200975
% V (V) @ t=0.88
0.009457623770683385
% es.normE (V/m) @ t=0.9
1.899232974201733
% es.EX (V/m) @ t=0.9
-0.5665806777386
% es.EY (V/m) @ t=0.9
0.0423257380358321
% es.EZ (V/m) @ t=0.9
-1.8092088501869044
% es.tEX (V/m) @ t=0.9
-0.5665806777386067
% es.tEY (V/m) @ t=0.9
0
% es.tEZ (V/m) @ t=0.9
-1.8092088501869208
% es.Ex (V/m) @ t=0.9
-0.5665806777386
% es.Ey (V/m) @ t=0.9
0.0423257380358321
% es.Ez (V/m) @ t=0.9
-1.8092088501869044
% es.tEx (V/m) @ t=0.9
-0.5665806777386067
% es.tEy (V/m) @ t=0.9
0
% es.tEz (V/m) @ t=0.9
-1.8092088501869208
% V (V) @ t=0.9
0.009546229148224887
% es.normE (V/m) @ t=0.92
1.916863522128599
% es.EX (V/m) @ t=0.92
-0.5718404943754397
% es.EY (V/m) @ t=0.92
0.04271917405403798
% es.EZ (V/m) @ t=0.92
-1.8260035949537268
% es.tEX (V/m) @ t=0.92
-0.57184049437544
% es.tEY (V/m) @ t=0.92
0
% es.tEZ (V/m) @ t=0.92
-1.8260035949537423
% es.Ex (V/m) @ t=0.92
-0.5718404943754397
% es.Ey (V/m) @ t=0.92
0.04271917405403798
% es.Ez (V/m) @ t=0.92
-1.8260035949537268
% es.tEx (V/m) @ t=0.92
-0.57184049437544
% es.tEy (V/m) @ t=0.92
0
% es.tEz (V/m) @ t=0.92
-1.8260035949537423
% V (V) @ t=0.92
0.009634834525766389
% es.normE (V/m) @ t=0.94
1.9344940700557034
% es.EX (V/m) @ t=0.94
-0.5771003110122874
% es.EY (V/m) @ t=0.94
0.04311261007223323
% es.EZ (V/m) @ t=0.94
-1.8427983397205563
% es.tEX (V/m) @ t=0.94
-0.5771003110122948
% es.tEY (V/m) @ t=0.94
0
% es.tEZ (V/m) @ t=0.94
-1.8427983397205576
% es.Ex (V/m) @ t=0.94
-0.5771003110122874
% es.Ey (V/m) @ t=0.94
0.04311261007223323
% es.Ez (V/m) @ t=0.94
-1.8427983397205563
% es.tEx (V/m) @ t=0.94
-0.5771003110122948
% es.tEy (V/m) @ t=0.94
0
% es.tEz (V/m) @ t=0.94
-1.8427983397205576
% V (V) @ t=0.94
0.009723439903307887
% es.normE (V/m) @ t=0.96
1.9521246179830178
% es.EX (V/m) @ t=0.96
-0.5823601276491306
% es.EY (V/m) @ t=0.96
0.04350604609044606
% es.EZ (V/m) @ t=0.96
-1.8595930844873725
% es.tEX (V/m) @ t=0.96
-0.5823601276491353
% es.tEY (V/m) @ t=0.96
0
% es.tEZ (V/m) @ t=0.96
-1.85959308448738
% es.Ex (V/m) @ t=0.96
-0.5823601276491306
% es.Ey (V/m) @ t=0.96
0.04350604609044606
% es.Ez (V/m) @ t=0.96
-1.8595930844873725
% es.tEx (V/m) @ t=0.96
-0.5823601276491353
% es.tEy (V/m) @ t=0.96
0
% es.tEz (V/m) @ t=0.96
-1.85959308448738
% V (V) @ t=0.96
0.009812045280849387
% es.normE (V/m) @ t=0.98
1.969755165910548
% es.EX (V/m) @ t=0.98
-0.5876199442859775
% es.EY (V/m) @ t=0.98
0.04389948210864883
% es.EZ (V/m) @ t=0.98
-1.8763878292541878
% es.tEX (V/m) @ t=0.98
-0.58761994428599
% es.tEY (V/m) @ t=0.98
0
% es.tEZ (V/m) @ t=0.98
-1.8763878292542033
% es.Ex (V/m) @ t=0.98
-0.5876199442859775
% es.Ey (V/m) @ t=0.98
0.04389948210864883
% es.Ez (V/m) @ t=0.98
-1.8763878292541878
% es.tEx (V/m) @ t=0.98
-0.58761994428599
% es.tEy (V/m) @ t=0.98
0
% es.tEz (V/m) @ t=0.98
-1.8763878292542033
% V (V) @ t=0.98
0.009900650658390886
% es.normE (V/m) @ t=1
1.9873857138382969
% es.EX (V/m) @ t=1
-0.5928797609228215
% es.EY (V/m) @ t=1
0.04429291812685278
% es.EZ (V/m) @ t=1
-1.893182574021011
% es.tEX (V/m) @ t=1
-0.5928797609228269
% es.tEY (V/m) @ t=1
0
% es.tEZ (V/m) @ t=1
-1.893182574021032
% es.Ex (V/m) @ t=1
-0.5928797609228215
% es.Ey (V/m) @ t=1
0.04429291812685278
% es.Ez (V/m) @ t=1
-1.893182574021011
% es.tEx (V/m) @ t=1
-0.5928797609228269
% es.tEy (V/m) @ t=1
0
% es.tEz (V/m) @ t=1
-1.893182574021032
% V (V) @ t=1
0.009989256035932387
% es.normE (V/m) @ t=1.02
2.0050162617662455
% es.EX (V/m) @ t=1.02
-0.5981395775596656
% es.EY (V/m) @ t=1.02
0.04468635414506046
% es.EZ (V/m) @ t=1.02
-1.9099773187878264
% es.tEX (V/m) @ t=1.02
-0.5981395775596674
% es.tEY (V/m) @ t=1.02
0
% es.tEZ (V/m) @ t=1.02
-1.9099773187878402
% es.Ex (V/m) @ t=1.02
-0.5981395775596656
% es.Ey (V/m) @ t=1.02
0.04468635414506046
% es.Ez (V/m) @ t=1.02
-1.9099773187878264
% es.tEx (V/m) @ t=1.02
-0.5981395775596674
% es.tEy (V/m) @ t=1.02