% Model:              1 neuron.mph
% Version:            COMSOL 6.0.0.405
% Date:               Mar 16 2023, 17:08
% Dimension:          0
% Nodes:              14017
% Expressions:        14017
% Description:        Electric field norm, Electric field, X component, Electric field, Y component, Electric field, Z component, Tangential electric field, X component, Tangential electric field, Y component, Tangential electric field, Z component, Electric field, x component, Electric field, y component, Electric field, z component, Tangential electric field, x component, Tangential electric field, y component, Tangential electric field, z component, Electric potential
% Length unit:        mm
% x
1
% y
12.2
% z
1
% es.normE (V/m) @ t=0
0.7961607666974302
% es.EX (V/m) @ t=0
0.5406033319814547
% es.EY (V/m) @ t=0
0.15353825554008083
% es.EZ (V/m) @ t=0
0.5492775156930412
% es.tEX (V/m) @ t=0
0.5406033319814441
% es.tEY (V/m) @ t=0
0
% es.tEZ (V/m) @ t=0
0.5492775156930314
% es.Ex (V/m) @ t=0
0.5406033319814547
% es.Ey (V/m) @ t=0
0.15353825554008083
% es.Ez (V/m) @ t=0
0.5492775156930412
% es.tEx (V/m) @ t=0
0.5406033319814441
% es.tEy (V/m) @ t=0
0
% es.tEz (V/m) @ t=0
0.5492775156930314
% V (V) @ t=0
0.0074658271711759575
% es.normE (V/m) @ t=0.02
0.6876589443693939
% es.EX (V/m) @ t=0.02
0.4669292084213357
% es.EY (V/m) @ t=0.02
0.13261386302205747
% es.EZ (V/m) @ t=0.02
0.47442126310101873
% es.tEX (V/m) @ t=0.02
0.4669292084213339
% es.tEY (V/m) @ t=0.02
0
% es.tEZ (V/m) @ t=0.02
0.47442126310101074
% es.Ex (V/m) @ t=0.02
0.4669292084213357
% es.Ey (V/m) @ t=0.02
0.13261386302205747
% es.Ez (V/m) @ t=0.02
0.47442126310101873
% es.tEx (V/m) @ t=0.02
0.4669292084213339
% es.tEy (V/m) @ t=0.02
0
% es.tEz (V/m) @ t=0.02
0.47442126310101074
% V (V) @ t=0.02
0.006448374532705683
% es.normE (V/m) @ t=0.04
0.6939836894548759
% es.EX (V/m) @ t=0.04
0.4712237911077626
% es.EY (V/m) @ t=0.04
0.1338335795836576
% es.EZ (V/m) @ t=0.04
0.47878475395388254
% es.tEX (V/m) @ t=0.04
0.4712237911077608
% es.tEY (V/m) @ t=0.04
0
% es.tEZ (V/m) @ t=0.04
0.47878475395387454
% es.Ex (V/m) @ t=0.04
0.4712237911077626
% es.Ey (V/m) @ t=0.04
0.1338335795836576
% es.Ez (V/m) @ t=0.04
0.47878475395388254
% es.tEx (V/m) @ t=0.04
0.4712237911077608
% es.tEy (V/m) @ t=0.04
0
% es.tEz (V/m) @ t=0.04
0.47878475395387454
% V (V) @ t=0.04
0.006507683450618468
% es.normE (V/m) @ t=0.06
0.7003658002656848
% es.EX (V/m) @ t=0.06
0.47555732596148736
% es.EY (V/m) @ t=0.06
0.13506435841214692
% es.EZ (V/m) @ t=0.06
0.4831878220467596
% es.tEX (V/m) @ t=0.06
0.47555732596148204
% es.tEY (V/m) @ t=0.06
0
% es.tEZ (V/m) @ t=0.06
0.48318782204675514
% es.Ex (V/m) @ t=0.06
0.47555732596148736
% es.Ey (V/m) @ t=0.06
0.13506435841214692
% es.Ez (V/m) @ t=0.06
0.4831878220467596
% es.tEx (V/m) @ t=0.06
0.47555732596148204
% es.tEy (V/m) @ t=0.06
0
% es.tEz (V/m) @ t=0.06
0.48318782204675514
% V (V) @ t=0.06
0.006567530394449739
% es.normE (V/m) @ t=0.08
0.7068444780235846
% es.EX (V/m) @ t=0.08
0.47995643102222907
% es.EY (V/m) @ t=0.08
0.1363137599268187
% es.EZ (V/m) @ t=0.08
0.48765751245723177
% es.tEX (V/m) @ t=0.08
0.47995643102222374
% es.tEY (V/m) @ t=0.08
0
% es.tEZ (V/m) @ t=0.08
0.487657512457222
% es.Ex (V/m) @ t=0.08
0.47995643102222907
% es.Ey (V/m) @ t=0.08
0.1363137599268187
% es.Ez (V/m) @ t=0.08
0.48765751245723177
% es.tEx (V/m) @ t=0.08
0.47995643102222374
% es.tEy (V/m) @ t=0.08
0
% es.tEz (V/m) @ t=0.08
0.487657512457222
% V (V) @ t=0.08
0.006628282880547731
% es.normE (V/m) @ t=0.1
0.7133919674979715
% es.EX (V/m) @ t=0.1
0.4844022601291549
% es.EY (V/m) @ t=0.1
0.13757643160320487
% es.EZ (V/m) @ t=0.1
0.492174676627279
% es.tEX (V/m) @ t=0.1
0.48440226012915133
% es.tEY (V/m) @ t=0.1
0
% es.tEZ (V/m) @ t=0.1
0.4921746766272719
% es.Ex (V/m) @ t=0.1
0.4844022601291549
% es.Ey (V/m) @ t=0.1
0.13757643160320487
% es.Ez (V/m) @ t=0.1
0.492174676627279
% es.tEx (V/m) @ t=0.1
0.48440226012915133
% es.tEy (V/m) @ t=0.1
0
% es.tEz (V/m) @ t=0.1
0.4921746766272719
% V (V) @ t=0.1
0.006689680638341832
% es.normE (V/m) @ t=0.12
0.7199394569723643
% es.EX (V/m) @ t=0.12
0.4888480892360825
% es.EY (V/m) @ t=0.12
0.1388391032795493
% es.EZ (V/m) @ t=0.12
0.4966918407973475
% es.tEX (V/m) @ t=0.12
0.4888480892360789
% es.tEY (V/m) @ t=0.12
0
% es.tEZ (V/m) @ t=0.12
0.4966918407973395
% es.Ex (V/m) @ t=0.12
0.4888480892360825
% es.Ey (V/m) @ t=0.12
0.1388391032795493
% es.Ez (V/m) @ t=0.12
0.4966918407973475
% es.tEx (V/m) @ t=0.12
0.4888480892360789
% es.tEy (V/m) @ t=0.12
0
% es.tEz (V/m) @ t=0.12
0.4966918407973395
% V (V) @ t=0.12
0.006751078396135933
% es.normE (V/m) @ t=0.14
0.726549195830294
% es.EX (V/m) @ t=0.14
0.4933361865341759
% es.EY (V/m) @ t=0.14
0.1401137792796483
% es.EZ (V/m) @ t=0.14
0.5012519514048037
% es.tEX (V/m) @ t=0.14
0.49333618653418654
% es.tEY (V/m) @ t=0.14
0
% es.tEZ (V/m) @ t=0.14
0.5012519514047966
% es.Ex (V/m) @ t=0.14
0.4933361865341759
% es.Ey (V/m) @ t=0.14
0.1401137792796483
% es.Ez (V/m) @ t=0.14
0.5012519514048037
% es.tEx (V/m) @ t=0.14
0.49333618653418654
% es.tEy (V/m) @ t=0.14
0
% es.tEz (V/m) @ t=0.14
0.5012519514047966
% V (V) @ t=0.14
0.006813059942103945
% es.normE (V/m) @ t=0.16
0.7334467801596054
% es.EX (V/m) @ t=0.16
0.4980197348828739
% es.EY (V/m) @ t=0.16
0.14144396410616977
% es.EZ (V/m) @ t=0.16
0.5060106493204737
% es.tEX (V/m) @ t=0.16
0.49801973488286677
% es.tEY (V/m) @ t=0.16
0
% es.tEZ (V/m) @ t=0.16
0.5060106493204728
% es.Ex (V/m) @ t=0.16
0.4980197348828739
% es.Ey (V/m) @ t=0.16
0.14144396410616977
% es.Ez (V/m) @ t=0.16
0.5060106493204737
% es.tEx (V/m) @ t=0.16
0.49801973488286677
% es.tEy (V/m) @ t=0.16
0
% es.tEz (V/m) @ t=0.16
0.5060106493204728
% V (V) @ t=0.16
0.006877740965119587
% es.normE (V/m) @ t=0.18
0.7403443644889276
% es.EX (V/m) @ t=0.18
0.502703283231579
% es.EY (V/m) @ t=0.18
0.14277414893264684
% es.EZ (V/m) @ t=0.18
0.5107693472361676
% es.tEX (V/m) @ t=0.18
0.5027032832315612
% es.tEY (V/m) @ t=0.18
0
% es.tEZ (V/m) @ t=0.18
0.5107693472361561
% es.Ex (V/m) @ t=0.18
0.502703283231579
% es.Ey (V/m) @ t=0.18
0.14277414893264684
% es.Ez (V/m) @ t=0.18
0.5107693472361676
% es.tEx (V/m) @ t=0.18
0.5027032832315612
% es.tEy (V/m) @ t=0.18
0
% es.tEz (V/m) @ t=0.18
0.5107693472361561
% V (V) @ t=0.18
0.006942421988135229
% es.normE (V/m) @ t=0.2
0.747241948818248
% es.EX (V/m) @ t=0.2
0.5073868315802734
% es.EY (V/m) @ t=0.2
0.1441043337591399
% es.EZ (V/m) @ t=0.2
0.5155280451518705
% es.tEX (V/m) @ t=0.2
0.5073868315802628
% es.tEY (V/m) @ t=0.2
0
% es.tEZ (V/m) @ t=0.2
0.5155280451518607
% es.Ex (V/m) @ t=0.2
0.5073868315802734
% es.Ey (V/m) @ t=0.2
0.1441043337591399
% es.Ez (V/m) @ t=0.2
0.5155280451518705
% es.tEx (V/m) @ t=0.2
0.5073868315802628
% es.tEy (V/m) @ t=0.2
0
% es.tEz (V/m) @ t=0.2
0.5155280451518607
% V (V) @ t=0.2
0.007007103011150872
% es.normE (V/m) @ t=0.22
0.7541395331475294
% es.EX (V/m) @ t=0.22
0.5120703799289501
% es.EY (V/m) @ t=0.22
0.14543451858560985
% es.EZ (V/m) @ t=0.22
0.520286743067544
% es.tEX (V/m) @ t=0.22
0.5120703799289359
% es.tEY (V/m) @ t=0.22
0
% es.tEZ (V/m) @ t=0.22
0.5202867430675369
% es.Ex (V/m) @ t=0.22
0.5120703799289501
% es.Ey (V/m) @ t=0.22
0.14543451858560985
% es.Ez (V/m) @ t=0.22
0.520286743067544
% es.tEx (V/m) @ t=0.22
0.5120703799289359
% es.tEy (V/m) @ t=0.22
0
% es.tEz (V/m) @ t=0.22
0.5202867430675369
% V (V) @ t=0.22
0.007071784034166513
% es.normE (V/m) @ t=0.24
0.7610371174768459
% es.EX (V/m) @ t=0.24
0.5167539282776392
% es.EY (V/m) @ t=0.24
0.1467647034121189
% es.EZ (V/m) @ t=0.24
0.5250454409832326
% es.tEX (V/m) @ t=0.24
0.5167539282776374
% es.tEY (V/m) @ t=0.24
0
% es.tEZ (V/m) @ t=0.24
0.5250454409832237
% es.Ex (V/m) @ t=0.24
0.5167539282776392
% es.Ey (V/m) @ t=0.24
0.1467647034121189
% es.Ez (V/m) @ t=0.24
0.5250454409832326
% es.tEx (V/m) @ t=0.24
0.5167539282776374
% es.tEy (V/m) @ t=0.24
0
% es.tEz (V/m) @ t=0.24
0.5250454409832237
% V (V) @ t=0.24
0.007136465057182155
% es.normE (V/m) @ t=0.26
0.767934701806172
% es.EX (V/m) @ t=0.26
0.521437476626355
% es.EY (V/m) @ t=0.26
0.1480948882385995
% es.EZ (V/m) @ t=0.26
0.5298041388989239
% es.tEX (V/m) @ t=0.26
0.5214374766263461
% es.tEY (V/m) @ t=0.26
0
% es.tEZ (V/m) @ t=0.26
0.5298041388989141
% es.Ex (V/m) @ t=0.26
0.521437476626355
% es.Ey (V/m) @ t=0.26
0.1480948882385995
% es.Ez (V/m) @ t=0.26
0.5298041388989239
% es.tEx (V/m) @ t=0.26
0.5214374766263461
% es.tEy (V/m) @ t=0.26
0
% es.tEz (V/m) @ t=0.26
0.5298041388989141
% V (V) @ t=0.26
0.007201146080197797
% es.normE (V/m) @ t=0.28
0.7751204369956106
% es.EX (V/m) @ t=0.28
0.5263167008341814
% es.EY (V/m) @ t=0.28
0.14948054731233285
% es.EZ (V/m) @ t=0.28
0.5347616608040369
% es.tEX (V/m) @ t=0.28
0.5263167008341725
% es.tEY (V/m) @ t=0.28
0
% es.tEZ (V/m) @ t=0.28
0.5347616608040262
% es.Ex (V/m) @ t=0.28
0.5263167008341814
% es.Ey (V/m) @ t=0.28
0.14948054731233285
% es.Ez (V/m) @ t=0.28
0.5347616608040369
% es.tEx (V/m) @ t=0.28
0.5263167008341725
% es.tEy (V/m) @ t=0.28
0
% es.tEz (V/m) @ t=0.28
0.5347616608040262
% V (V) @ t=0.28
0.007268543868384447
% es.normE (V/m) @ t=0.3
0.7828061947587737
% es.EX (V/m) @ t=0.3
0.5315354775480738
% es.EY (V/m) @ t=0.3
0.15096246976653482
% es.EZ (V/m) @ t=0.3
0.5400641981043526
% es.tEX (V/m) @ t=0.3
0.5315354775480614
% es.tEY (V/m) @ t=0.3
0
% es.tEZ (V/m) @ t=0.3
0.5400641981043393
% es.Ex (V/m) @ t=0.3
0.5315354775480738
% es.Ey (V/m) @ t=0.3
0.15096246976653482
% es.Ez (V/m) @ t=0.3
0.5400641981043526
% es.tEx (V/m) @ t=0.3
0.5315354775480614
% es.tEy (V/m) @ t=0.3
0
% es.tEz (V/m) @ t=0.3
0.5400641981043393
% V (V) @ t=0.3
0.007340656006241732
% es.normE (V/m) @ t=0.32
0.7904919525220703
% es.EX (V/m) @ t=0.32
0.5367542542619841
% es.EY (V/m) @ t=0.32
0.15244439222067996
% es.EZ (V/m) @ t=0.32
0.5453667354046638
% es.tEX (V/m) @ t=0.32
0.5367542542619788
% es.tEY (V/m) @ t=0.32
0
% es.tEZ (V/m) @ t=0.32
0.5453667354046559
% es.Ex (V/m) @ t=0.32
0.5367542542619841
% es.Ey (V/m) @ t=0.32
0.15244439222067996
% es.Ez (V/m) @ t=0.32
0.5453667354046638
% es.tEx (V/m) @ t=0.32
0.5367542542619788
% es.tEy (V/m) @ t=0.32
0
% es.tEz (V/m) @ t=0.32
0.5453667354046559
% V (V) @ t=0.32
0.007412768144099018
% es.normE (V/m) @ t=0.34
0.7981777102855095
% es.EX (V/m) @ t=0.34
0.5419730309758855
% es.EY (V/m) @ t=0.34
0.15392631467483753
% es.EZ (V/m) @ t=0.34
0.5506692727049902
% es.tEX (V/m) @ t=0.34
0.5419730309758819
% es.tEY (V/m) @ t=0.34
0
% es.tEZ (V/m) @ t=0.34
0.5506692727049831
% es.Ex (V/m) @ t=0.34
0.5419730309758855
% es.Ey (V/m) @ t=0.34
0.15392631467483753
% es.Ez (V/m) @ t=0.34
0.5506692727049902
% es.tEx (V/m) @ t=0.34
0.5419730309758819
% es.tEy (V/m) @ t=0.34
0
% es.tEz (V/m) @ t=0.34
0.5506692727049831
% V (V) @ t=0.34
0.007484880281956302
% es.normE (V/m) @ t=0.36
0.8058634680490457
% es.EX (V/m) @ t=0.36
0.5471918076897602
% es.EY (V/m) @ t=0.36
0.15540823712902174
% es.EZ (V/m) @ t=0.36
0.5559718100052811
% es.tEX (V/m) @ t=0.36
0.5471918076897566
% es.tEY (V/m) @ t=0.36
0
% es.tEZ (V/m) @ t=0.36
0.5559718100052748
% es.Ex (V/m) @ t=0.36
0.5471918076897602
% es.Ey (V/m) @ t=0.36
0.15540823712902174
% es.Ez (V/m) @ t=0.36
0.5559718100052811
% es.tEx (V/m) @ t=0.36
0.5471918076897566
% es.tEy (V/m) @ t=0.36
0
% es.tEz (V/m) @ t=0.36
0.5559718100052748
% V (V) @ t=0.36
0.007556992419813585
% es.normE (V/m) @ t=0.38
0.8135492258127437
% es.EX (V/m) @ t=0.38
0.5524105844036669
% es.EY (V/m) @ t=0.38
0.15689015958319708
% es.EZ (V/m) @ t=0.38
0.5612743473055888
% es.tEX (V/m) @ t=0.38
0.5524105844036598
% es.tEY (V/m) @ t=0.38
0
% es.tEZ (V/m) @ t=0.38
0.5612743473055808
% es.Ex (V/m) @ t=0.38
0.5524105844036669
% es.Ey (V/m) @ t=0.38
0.15689015958319708
% es.Ez (V/m) @ t=0.38
0.5612743473055888
% es.tEx (V/m) @ t=0.38
0.5524105844036598
% es.tEy (V/m) @ t=0.38
0
% es.tEz (V/m) @ t=0.38
0.5612743473055808
% V (V) @ t=0.38
0.007629104557670871
% es.normE (V/m) @ t=0.4
0.82123498357659
% es.EX (V/m) @ t=0.4
0.5576293611175878
% es.EY (V/m) @ t=0.4
0.15837208203734932
% es.EZ (V/m) @ t=0.4
0.5665768846059223
% es.tEX (V/m) @ t=0.4
0.5576293611175771
% es.tEY (V/m) @ t=0.4
0
% es.tEZ (V/m) @ t=0.4
0.5665768846059152
% es.Ex (V/m) @ t=0.4
0.5576293611175878
% es.Ey (V/m) @ t=0.4
0.15837208203734932
% es.Ez (V/m) @ t=0.4
0.5665768846059223
% es.tEx (V/m) @ t=0.4
0.5576293611175771
% es.tEy (V/m) @ t=0.4
0
% es.tEz (V/m) @ t=0.4
0.5665768846059152
% V (V) @ t=0.4
0.0077012166955281545
% es.normE (V/m) @ t=0.42
0.8289207413405014
% es.EX (V/m) @ t=0.42
0.5628481378314554
% es.EY (V/m) @ t=0.42
0.15985400449152642
% es.EZ (V/m) @ t=0.42
0.5718794219062167
% es.tEX (V/m) @ t=0.42
0.5628481378314376
% es.tEY (V/m) @ t=0.42
0
% es.tEZ (V/m) @ t=0.42
0.5718794219062069
% es.Ex (V/m) @ t=0.42
0.5628481378314554
% es.Ey (V/m) @ t=0.42
0.15985400449152642
% es.Ez (V/m) @ t=0.42
0.5718794219062167
% es.tEx (V/m) @ t=0.42
0.5628481378314376
% es.tEy (V/m) @ t=0.42
0
% es.tEz (V/m) @ t=0.42
0.5718794219062069
% V (V) @ t=0.42
0.007773328833385438
% es.normE (V/m) @ t=0.44
0.8366064991045827
% es.EX (V/m) @ t=0.44
0.5680669145453692
% es.EY (V/m) @ t=0.44
0.16133592694570176
% es.EZ (V/m) @ t=0.44
0.5771819592065413
% es.tEX (V/m) @ t=0.44
0.568066914545355
% es.tEY (V/m) @ t=0.44
0
% es.tEZ (V/m) @ t=0.44
0.5771819592065306
% es.Ex (V/m) @ t=0.44
0.5680669145453692
% es.Ey (V/m) @ t=0.44
0.16133592694570176
% es.Ez (V/m) @ t=0.44
0.5771819592065413
% es.tEx (V/m) @ t=0.44
0.568066914545355
% es.tEy (V/m) @ t=0.44
0
% es.tEz (V/m) @ t=0.44
0.5771819592065306
% V (V) @ t=0.44
0.007845440971242724
% es.normE (V/m) @ t=0.46
0.8442922568687582
% es.EX (V/m) @ t=0.46
0.5732856912592759
% es.EY (V/m) @ t=0.46
0.162817849399854
% es.EZ (V/m) @ t=0.46
0.582484496506849
% es.tEX (V/m) @ t=0.46
0.5732856912592723
% es.tEY (V/m) @ t=0.46
0
% es.tEZ (V/m) @ t=0.46
0.5824844965068436
% es.Ex (V/m) @ t=0.46
0.5732856912592759
% es.Ey (V/m) @ t=0.46
0.162817849399854
% es.Ez (V/m) @ t=0.46
0.582484496506849
% es.tEx (V/m) @ t=0.46
0.5732856912592723
% es.tEy (V/m) @ t=0.46
0
% es.tEz (V/m) @ t=0.46
0.5824844965068436
% V (V) @ t=0.46
0.007917553109100008
% es.normE (V/m) @ t=0.48
0.8519780146330357
% es.EX (V/m) @ t=0.48
0.5785044679731506
% es.EY (V/m) @ t=0.48
0.16429977185403644
% es.EZ (V/m) @ t=0.48
0.5877870338071585
% es.tEX (V/m) @ t=0.48
0.5785044679731328
% es.tEY (V/m) @ t=0.48
0
% es.tEZ (V/m) @ t=0.48
0.5877870338071496
% es.Ex (V/m) @ t=0.48
0.5785044679731506
% es.Ey (V/m) @ t=0.48
0.16429977185403644
% es.Ez (V/m) @ t=0.48
0.5877870338071585
% es.tEx (V/m) @ t=0.48
0.5785044679731328
% es.tEy (V/m) @ t=0.48
0
% es.tEz (V/m) @ t=0.48
0.5877870338071496
% V (V) @ t=0.48
0.007989665246957293
% es.normE (V/m) @ t=0.5
0.8596637723974311
% es.EX (V/m) @ t=0.5
0.5837232446870289
% es.EY (V/m) @ t=0.5
0.16578169430821177
% es.EZ (V/m) @ t=0.5
0.5930895711074822
% es.tEX (V/m) @ t=0.5
0.5837232446870217
% es.tEY (V/m) @ t=0.5
0
% es.tEZ (V/m) @ t=0.5
0.5930895711074733
% es.Ex (V/m) @ t=0.5
0.5837232446870289
% es.Ey (V/m) @ t=0.5
0.16578169430821177
% es.Ez (V/m) @ t=0.5
0.5930895711074822
% es.tEx (V/m) @ t=0.5
0.5837232446870217
% es.tEy (V/m) @ t=0.5
0
% es.tEz (V/m) @ t=0.5
0.5930895711074733
% V (V) @ t=0.5
0.008061777384814579
% es.normE (V/m) @ t=0.52
0.8673495301619462
% es.EX (V/m) @ t=0.52
0.5889420214009427
% es.EY (V/m) @ t=0.52
0.16726361676239954
% es.EZ (V/m) @ t=0.52
0.5983921084077828
% es.tEX (V/m) @ t=0.52
0.5889420214009391
% es.tEY (V/m) @ t=0.52
0
% es.tEZ (V/m) @ t=0.52
0.5983921084077721
% es.Ex (V/m) @ t=0.52
0.5889420214009427
% es.Ey (V/m) @ t=0.52
0.16726361676239954
% es.Ez (V/m) @ t=0.52
0.5983921084077828
% es.tEx (V/m) @ t=0.52
0.5889420214009391
% es.tEy (V/m) @ t=0.52
0
% es.tEz (V/m) @ t=0.52
0.5983921084077721
% V (V) @ t=0.52
0.008133889522671862
% es.normE (V/m) @ t=0.54
0.8750352879265475
% es.EX (V/m) @ t=0.54
0.5941607981148458
% es.EY (V/m) @ t=0.54
0.168745539216534
% es.EZ (V/m) @ t=0.54
0.6036946457080923
% es.tEX (V/m) @ t=0.54
0.594160798114828
% es.tEY (V/m) @ t=0.54
0
% es.tEZ (V/m) @ t=0.54
0.6036946457080781
% es.Ex (V/m) @ t=0.54
0.5941607981148458
% es.Ey (V/m) @ t=0.54
0.168745539216534
% es.Ez (V/m) @ t=0.54
0.6036946457080923
% es.tEx (V/m) @ t=0.54
0.594160798114828
% es.tEy (V/m) @ t=0.54
0
% es.tEz (V/m) @ t=0.54
0.6036946457080781
% V (V) @ t=0.54
0.008206001660529148
% es.normE (V/m) @ t=0.56
0.8833821017466374
% es.EX (V/m) @ t=0.56
0.5998283662777695
% es.EY (V/m) @ t=0.56
0.17035534258642748
% es.EZ (V/m) @ t=0.56
0.6094531401818104
% es.tEX (V/m) @ t=0.56
0.5998283662777624
% es.tEY (V/m) @ t=0.56
0
% es.tEZ (V/m) @ t=0.56
0.6094531401817989
% es.Ex (V/m) @ t=0.56
0.5998283662777695
% es.Ey (V/m) @ t=0.56
0.17035534258642748
% es.Ez (V/m) @ t=0.56
0.6094531401818104
% es.tEx (V/m) @ t=0.56
0.5998283662777624
% es.tEy (V/m) @ t=0.56
0
% es.tEz (V/m) @ t=0.56
0.6094531401817989
% V (V) @ t=0.56
0.008284251364153963
% es.normE (V/m) @ t=0.58
0.8919597740286571
% es.EX (V/m) @ t=0.58
0.6056526644225997
% es.EY (V/m) @ t=0.58
0.172009805393607
% es.EZ (V/m) @ t=0.58
0.6153708671000748
% es.tEX (V/m) @ t=0.58
0.6056526644225926
% es.tEY (V/m) @ t=0.58
0
% es.tEZ (V/m) @ t=0.58
0.6153708671000615
% es.Ex (V/m) @ t=0.58
0.6056526644225997
% es.Ey (V/m) @ t=0.58
0.172009805393607
% es.Ez (V/m) @ t=0.58
0.6153708671000748
% es.tEx (V/m) @ t=0.58
0.6056526644225926
% es.tEy (V/m) @ t=0.58
0
% es.tEz (V/m) @ t=0.58
0.6153708671000615
% V (V) @ t=0.58
0.008364644469961711
% es.normE (V/m) @ t=0.6
0.900537446310843
% es.EX (V/m) @ t=0.6
0.6114769625674228
% es.EY (V/m) @ t=0.6
0.17366426820081848
% es.EZ (V/m) @ t=0.6
0.621288594018333
% es.tEX (V/m) @ t=0.6
0.6114769625674228
% es.tEY (V/m) @ t=0.6
0
% es.tEZ (V/m) @ t=0.6
0.6212885940183241
% es.Ex (V/m) @ t=0.6
0.6114769625674228
% es.Ey (V/m) @ t=0.6
0.17366426820081848
% es.Ez (V/m) @ t=0.6
0.621288594018333
% es.tEx (V/m) @ t=0.6
0.6114769625674228
% es.tEy (V/m) @ t=0.6
0
% es.tEz (V/m) @ t=0.6
0.6212885940183241
% V (V) @ t=0.6
0.008445037575769459
% es.normE (V/m) @ t=0.62
0.9091151185932094
% es.EX (V/m) @ t=0.62
0.6173012607122352
% es.EY (V/m) @ t=0.62
0.17531873100804596
% es.EZ (V/m) @ t=0.62
0.6272063209366099
% es.tEX (V/m) @ t=0.62
0.6173012607122246
% es.tEY (V/m) @ t=0.62
0
% es.tEZ (V/m) @ t=0.62
0.6272063209365975
% es.Ex (V/m) @ t=0.62
0.6173012607122352
% es.Ey (V/m) @ t=0.62
0.17531873100804596
% es.Ez (V/m) @ t=0.62
0.6272063209366099
% es.tEx (V/m) @ t=0.62
0.6173012607122246
% es.tEy (V/m) @ t=0.62
0
% es.tEz (V/m) @ t=0.62
0.6272063209365975
% V (V) @ t=0.62
0.008525430681577208
% es.normE (V/m) @ t=0.64
0.9176927908757094
% es.EX (V/m) @ t=0.64
0.6231255588570619
% es.EY (V/m) @ t=0.64
0.17697319381523968
% es.EZ (V/m) @ t=0.64
0.6331240478548565
% es.tEX (V/m) @ t=0.64
0.6231255588570406
% es.tEY (V/m) @ t=0.64
0
% es.tEZ (V/m) @ t=0.64
0.6331240478548459
% es.Ex (V/m) @ t=0.64
0.6231255588570619
% es.Ey (V/m) @ t=0.64
0.17697319381523968
% es.Ez (V/m) @ t=0.64
0.6331240478548565
% es.tEx (V/m) @ t=0.64
0.6231255588570406
% es.tEy (V/m) @ t=0.64
0
% es.tEz (V/m) @ t=0.64
0.6331240478548459
% V (V) @ t=0.64
0.008605823787384956
% es.normE (V/m) @ t=0.66
0.9262704631584074
% es.EX (V/m) @ t=0.66
0.6289498570019028
% es.EY (V/m) @ t=0.66
0.1786276566224565
% es.EZ (V/m) @ t=0.66
0.639041774773129
% es.tEX (V/m) @ t=0.66
0.6289498570018992
% es.tEY (V/m) @ t=0.66
0
% es.tEZ (V/m) @ t=0.66
0.6390417747731192
% es.Ex (V/m) @ t=0.66
0.6289498570019028
% es.Ey (V/m) @ t=0.66
0.1786276566224565
% es.Ez (V/m) @ t=0.66
0.639041774773129
% es.tEx (V/m) @ t=0.66
0.6289498570018992
% es.tEy (V/m) @ t=0.66
0
% es.tEz (V/m) @ t=0.66
0.6390417747731192
% V (V) @ t=0.66
0.008686216893192704
% es.normE (V/m) @ t=0.68
0.9348481354412386
% es.EX (V/m) @ t=0.68
0.6347741551467152
% es.EY (V/m) @ t=0.68
0.1802821194296893
% es.EZ (V/m) @ t=0.68
0.6449595016914014
% es.tEX (V/m) @ t=0.68
0.6347741551467152
% es.tEY (V/m) @ t=0.68
0
% es.tEZ (V/m) @ t=0.68
0.644959501691396
% es.Ex (V/m) @ t=0.68
0.6347741551467152
% es.Ey (V/m) @ t=0.68
0.1802821194296893
% es.Ez (V/m) @ t=0.68
0.6449595016914014
% es.tEx (V/m) @ t=0.68
0.6347741551467152
% es.tEy (V/m) @ t=0.68
0
% es.tEz (V/m) @ t=0.68
0.644959501691396
% V (V) @ t=0.68
0.008766609999000453
% es.normE (V/m) @ t=0.7
0.9434258077242116
% es.EX (V/m) @ t=0.7
0.6405984532915348
% es.EY (V/m) @ t=0.7
0.18193658223689546
% es.EZ (V/m) @ t=0.7
0.6508772286096685
% es.tEX (V/m) @ t=0.7
0.6405984532915312
% es.tEY (V/m) @ t=0.7
0
% es.tEZ (V/m) @ t=0.7
0.6508772286096658
% es.Ex (V/m) @ t=0.7
0.6405984532915348
% es.Ey (V/m) @ t=0.7
0.18193658223689546
% es.Ez (V/m) @ t=0.7
0.6508772286096685
% es.tEx (V/m) @ t=0.7
0.6405984532915312
% es.tEy (V/m) @ t=0.7
0
% es.tEz (V/m) @ t=0.7
0.6508772286096658
% V (V) @ t=0.7
0.008847003104808203
% es.normE (V/m) @ t=0.72
0.952003480007318
% es.EX (V/m) @ t=0.72
0.6464227514363508
% es.EY (V/m) @ t=0.72
0.18359104504412294
% es.EZ (V/m) @ t=0.72
0.6567949555279258
% es.tEX (V/m) @ t=0.72
0.6464227514363472
% es.tEY (V/m) @ t=0.72
0
% es.tEZ (V/m) @ t=0.72
0.6567949555279213
% es.Ex (V/m) @ t=0.72
0.6464227514363508
% es.Ey (V/m) @ t=0.72
0.18359104504412294
% es.Ez (V/m) @ t=0.72
0.6567949555279258
% es.tEx (V/m) @ t=0.72
0.6464227514363472
% es.tEy (V/m) @ t=0.72
0
% es.tEz (V/m) @ t=0.72
0.6567949555279213
% V (V) @ t=0.72
0.008927396210615947
% es.normE (V/m) @ t=0.74
0.9605811522905895
% es.EX (V/m) @ t=0.74
0.6522470495811952
% es.EY (V/m) @ t=0.74
0.18524550785132554
% es.EZ (V/m) @ t=0.74
0.6627126824461911
% es.tEX (V/m) @ t=0.74
0.6522470495811916
% es.tEY (V/m) @ t=0.74
0
% es.tEZ (V/m) @ t=0.74
0.662712682446184
% es.Ex (V/m) @ t=0.74
0.6522470495811952
% es.Ey (V/m) @ t=0.74
0.18524550785132554
% es.Ez (V/m) @ t=0.74
0.6627126824461911
% es.tEx (V/m) @ t=0.74
0.6522470495811916
% es.tEy (V/m) @ t=0.74
0
% es.tEz (V/m) @ t=0.74
0.662712682446184
% V (V) @ t=0.74
0.009007789316423697
% es.normE (V/m) @ t=0.76
0.9691588245739574
% es.EX (V/m) @ t=0.76
0.6580713477259863
% es.EY (V/m) @ t=0.76
0.18689997065855657
% es.EZ (V/m) @ t=0.76
0.6686304093644413
% es.tEX (V/m) @ t=0.76
0.658071347725965
% es.tEY (V/m) @ t=0.76
0
% es.tEZ (V/m) @ t=0.76
0.6686304093644324
% es.Ex (V/m) @ t=0.76
0.6580713477259863
% es.Ey (V/m) @ t=0.76
0.18689997065855657
% es.Ez (V/m) @ t=0.76
0.6686304093644413
% es.tEx (V/m) @ t=0.76
0.658071347725965
% es.tEy (V/m) @ t=0.76
0
% es.tEz (V/m) @ t=0.76
0.6686304093644324
% V (V) @ t=0.76
0.009088182422231444
% es.normE (V/m) @ t=0.78
0.9777364968574762
% es.EX (V/m) @ t=0.78
0.6638956458707916
% es.EY (V/m) @ t=0.78
0.18855443346575207
% es.EZ (V/m) @ t=0.78
0.6745481362827199
% es.tEX (V/m) @ t=0.78
0.6638956458707952
% es.tEY (V/m) @ t=0.78
0
% es.tEZ (V/m) @ t=0.78
0.6745481362827093
% es.Ex (V/m) @ t=0.78
0.6638956458707916
% es.Ey (V/m) @ t=0.78
0.18855443346575207
% es.Ez (V/m) @ t=0.78
0.6745481362827199
% es.tEx (V/m) @ t=0.78
0.6638956458707952
% es.tEy (V/m) @ t=0.78
0
% es.tEz (V/m) @ t=0.78
0.6745481362827093
% V (V) @ t=0.78
0.009168575528039192
% es.normE (V/m) @ t=0.8
0.9863141691411874
% es.EX (V/m) @ t=0.8
0.6697199440156894
% es.EY (V/m) @ t=0.8
0.19020889627294224
% es.EZ (V/m) @ t=0.8
0.6804658632010003
% es.tEX (V/m) @ t=0.8
0.669719944015668
% es.tEY (V/m) @ t=0.8
0
% es.tEZ (V/m) @ t=0.8
0.6804658632009861
% es.Ex (V/m) @ t=0.8
0.6697199440156894
% es.Ey (V/m) @ t=0.8
0.19020889627294224
% es.Ez (V/m) @ t=0.8
0.6804658632010003
% es.tEx (V/m) @ t=0.8
0.669719944015668
% es.tEy (V/m) @ t=0.8
0
% es.tEz (V/m) @ t=0.8
0.6804658632009861
% V (V) @ t=0.8
0.009248968633846943
% es.normE (V/m) @ t=0.82
0.9950103330130251
% es.EX (V/m) @ t=0.82
0.6756247077961852
% es.EY (V/m) @ t=0.82
0.19188616526574087
% es.EZ (V/m) @ t=0.82
0.6864653508298098
% es.tEX (V/m) @ t=0.82
0.6756247077961746
% es.tEY (V/m) @ t=0.82
0
% es.tEZ (V/m) @ t=0.82
0.6864653508298062
% es.Ex (V/m) @ t=0.82
0.6756247077961852
% es.Ey (V/m) @ t=0.82
0.19188616526574087
% es.Ez (V/m) @ t=0.82
0.6864653508298098
% es.tEx (V/m) @ t=0.82
0.6756247077961746
% es.tEy (V/m) @ t=0.82
0
% es.tEz (V/m) @ t=0.82
0.6864653508298062
% V (V) @ t=0.82
0.009330479772416838
% es.normE (V/m) @ t=0.84
1.004603032908925
% es.EX (V/m) @ t=0.84
0.6821382940448792
% es.EY (V/m) @ t=0.84
0.19373599137636432
% es.EZ (V/m) @ t=0.84
0.6930834597762674
% es.tEX (V/m) @ t=0.84
0.6821382940448473
% es.tEY (V/m) @ t=0.84
0
% es.tEZ (V/m) @ t=0.84
0.6930834597762612
% es.Ex (V/m) @ t=0.84
0.6821382940448792
% es.Ey (V/m) @ t=0.84
0.19373599137636432
% es.Ez (V/m) @ t=0.84
0.6930834597762674
% es.tEx (V/m) @ t=0.84
0.6821382940448473
% es.tEy (V/m) @ t=0.84
0
% es.tEz (V/m) @ t=0.84
0.6930834597762612
% V (V) @ t=0.84
0.00942045021736719
% es.normE (V/m) @ t=0.86
1.0141957328048037
% es.EX (V/m) @ t=0.86
0.6886518802934987
% es.EY (V/m) @ t=0.86
0.19558581748702686
% es.EZ (V/m) @ t=0.86
0.6997015687227179
% es.tEX (V/m) @ t=0.86
0.6886518802935058
% es.tEY (V/m) @ t=0.86
0
% es.tEZ (V/m) @ t=0.86
0.699701568722709
% es.Ex (V/m) @ t=0.86
0.6886518802934987
% es.Ey (V/m) @ t=0.86
0.19558581748702686
% es.Ez (V/m) @ t=0.86
0.6997015687227179
% es.tEx (V/m) @ t=0.86
0.6886518802935058
% es.tEy (V/m) @ t=0.86
0
% es.tEz (V/m) @ t=0.86
0.699701568722709
% V (V) @ t=0.86
0.00951042066231754
% es.normE (V/m) @ t=0.88
1.023788432700738
% es.EX (V/m) @ t=0.88
0.6951654665421678
% es.EY (V/m) @ t=0.88
0.19743564359765564
% es.EZ (V/m) @ t=0.88
0.7063196776691854
% es.tEX (V/m) @ t=0.88
0.6951654665421501
% es.tEY (V/m) @ t=0.88
0
% es.tEZ (V/m) @ t=0.88
0.7063196776691711
% es.Ex (V/m) @ t=0.88
0.6951654665421678
% es.Ey (V/m) @ t=0.88
0.19743564359765564
% es.Ez (V/m) @ t=0.88
0.7063196776691854
% es.tEx (V/m) @ t=0.88
0.6951654665421501
% es.tEy (V/m) @ t=0.88
0
% es.tEz (V/m) @ t=0.88
0.7063196776691711
% V (V) @ t=0.88
0.009600391107267892
% es.normE (V/m) @ t=0.9
1.0333811325966673
% es.EX (V/m) @ t=0.9
0.7016790527908157
% es.EY (V/m) @ t=0.9
0.199285469708272
% es.EZ (V/m) @ t=0.9
0.7129377866156466
% es.tEX (V/m) @ t=0.9
0.7016790527908086
% es.tEY (V/m) @ t=0.9
0
% es.tEZ (V/m) @ t=0.9
0.7129377866156332
% es.Ex (V/m) @ t=0.9
0.7016790527908157
% es.Ey (V/m) @ t=0.9
0.199285469708272
% es.Ez (V/m) @ t=0.9
0.7129377866156466
% es.tEx (V/m) @ t=0.9
0.7016790527908086
% es.tEy (V/m) @ t=0.9
0
% es.tEz (V/m) @ t=0.9
0.7129377866156332
% V (V) @ t=0.9
0.009690361552218245
% es.normE (V/m) @ t=0.92
1.042973832492619
% es.EX (V/m) @ t=0.92
0.708192639039467
% es.EY (V/m) @ t=0.92
0.20113529581892386
% es.EZ (V/m) @ t=0.92
0.7195558955621033
% es.tEX (V/m) @ t=0.92
0.7081926390394813
% es.tEY (V/m) @ t=0.92
0
% es.tEZ (V/m) @ t=0.92
0.7195558955620882
% es.Ex (V/m) @ t=0.92
0.708192639039467
% es.Ey (V/m) @ t=0.92
0.20113529581892386
% es.Ez (V/m) @ t=0.92
0.7195558955621033
% es.tEx (V/m) @ t=0.92
0.7081926390394813
% es.tEy (V/m) @ t=0.92
0
% es.tEz (V/m) @ t=0.92
0.7195558955620882
% V (V) @ t=0.92
0.009780331997168597
% es.normE (V/m) @ t=0.94
1.0525665323886337
% es.EX (V/m) @ t=0.94
0.7147062252881753
% es.EY (V/m) @ t=0.94
0.20298512192953666
% es.EZ (V/m) @ t=0.94
0.7261740045085716
% es.tEX (V/m) @ t=0.94
0.714706225288154
% es.tEY (V/m) @ t=0.94
0
% es.tEZ (V/m) @ t=0.94
0.7261740045085645
% es.Ex (V/m) @ t=0.94
0.7147062252881753
% es.Ey (V/m) @ t=0.94
0.20298512192953666
% es.Ez (V/m) @ t=0.94
0.7261740045085716
% es.tEx (V/m) @ t=0.94
0.714706225288154
% es.tEy (V/m) @ t=0.94
0
% es.tEz (V/m) @ t=0.94
0.7261740045085645
% V (V) @ t=0.94
0.00987030244211895
% es.normE (V/m) @ t=0.96
1.0621592322845954
% es.EX (V/m) @ t=0.96
0.7212198115367947
% es.EY (V/m) @ t=0.96
0.20483494804015479
% es.EZ (V/m) @ t=0.96
0.7327921134550319
% es.tEX (V/m) @ t=0.96
0.721219811536784
% es.tEY (V/m) @ t=0.96
0
% es.tEZ (V/m) @ t=0.96
0.7327921134550124
% es.Ex (V/m) @ t=0.96
0.7212198115367947
% es.Ey (V/m) @ t=0.96
0.20483494804015479
% es.Ez (V/m) @ t=0.96
0.7327921134550319
% es.tEx (V/m) @ t=0.96
0.721219811536784
% es.tEy (V/m) @ t=0.96
0
% es.tEz (V/m) @ t=0.96
0.7327921134550124
% V (V) @ t=0.96
0.009960272887069303
% es.normE (V/m) @ t=0.98
1.071751932180601
% es.EX (V/m) @ t=0.98
0.7277333977854674
% es.EY (V/m) @ t=0.98
0.2066847741507658
% es.EZ (V/m) @ t=0.98
0.7394102224014789
% es.tEX (V/m) @ t=0.98
0.7277333977854425
% es.tEY (V/m) @ t=0.98
0
% es.tEZ (V/m) @ t=0.98
0.7394102224014745
% es.Ex (V/m) @ t=0.98
0.7277333977854674
% es.Ey (V/m) @ t=0.98
0.2066847741507658
% es.Ez (V/m) @ t=0.98
0.7394102224014789
% es.tEx (V/m) @ t=0.98
0.7277333977854425
% es.tEy (V/m) @ t=0.98
0
% es.tEz (V/m) @ t=0.98
0.7394102224014745
% V (V) @ t=0.98
0.010050243332019653
% es.normE (V/m) @ t=1
1.0813446320766182
% es.EX (V/m) @ t=1
0.734246984034101
% es.EY (V/m) @ t=1
0.20853460026143722
% es.EZ (V/m) @ t=1
0.7460283313479357
% es.tEX (V/m) @ t=1
0.734246984034101
% es.tEY (V/m) @ t=1
0
% es.tEZ (V/m) @ t=1
0.7460283313479223
% es.Ex (V/m) @ t=1
0.734246984034101
% es.Ey (V/m) @ t=1
0.20853460026143722
% es.Ez (V/m) @ t=1
0.7460283313479357
% es.tEx (V/m) @ t=1
0.734246984034101
% es.tEy (V/m) @ t=1
0
% es.tEz (V/m) @ t=1
0.7460283313479223
% V (V) @ t=1
0.010140213776970004
% es.normE (V/m) @ t=1.02
1.090937331972674
% es.EX (V/m) @ t=1.02
0.7407605702827809
% es.EY (V/m) @ t=1.02
0.210384426372066
% es.EZ (V/m) @ t=1.02
0.7526464402944013
% es.tEX (V/m) @ t=1.02
0.7407605702827595
% es.tEY (V/m) @ t=1.02
0
% es.tEZ (V/m) @ t=1.02
0.7526464402943986
% es.Ex (V/m) @ t=1.02
0.7407605702827809
% es.Ey (V/m) @ t=1.02
0.210384426372066
% es.Ez (V/m) @ t=1.02
0.7526464402944013
% es.tEx (V/m) @ t=1.02
0.7407605702827595
% es.tEy (V/m) @ t=1.02
0
% es.tEz (V/m) @ t=1.02
0.7526464402943986
% V (V) @ t=1.02
0.010230184221920359
% es.normE (V/m) @ t=1.04
1.1005300318687223
% es.EX (V/m) @ t=1.04
0.7472741565314251
% es.EY (V/m) @ t=1.04
0.2122342524827321
% es.EZ (V/m) @ t=1.04
0.7592645492408474
% es.tEX (V/m) @ t=1.04
0.747274156531418
% es.tEY (V/m) @ t=1.04
0
% es.tEZ (V/m) @ t=1.04
0.7592645492408323
% es.Ex (V/m) @ t=1.04
0.7472741565314251
% es.Ey (V/m) @ t=1.04
0.2122342524827321