% Model:              1 neuron.mph
% Version:            COMSOL 6.0.0.405
% Date:               Mar 16 2023, 17:09
% Dimension:          0
% Nodes:              14017
% Expressions:        14017
% Description:        Electric field norm, Electric field, X component, Electric field, Y component, Electric field, Z component, Tangential electric field, X component, Tangential electric field, Y component, Tangential electric field, Z component, Electric field, x component, Electric field, y component, Electric field, z component, Tangential electric field, x component, Tangential electric field, y component, Tangential electric field, z component, Electric potential
% Length unit:        mm
% x
1.33
% y
12.2
% z
1.33
% es.normE (V/m) @ t=0
7.710814546430269
% es.EX (V/m) @ t=0
5.974988495087208
% es.EY (V/m) @ t=0
-0.9155452104190456
% es.EZ (V/m) @ t=0
4.773366230541612
% es.tEX (V/m) @ t=0
5.97498849508723
% es.tEY (V/m) @ t=0
0
% es.tEZ (V/m) @ t=0
4.773366230541612
% es.Ex (V/m) @ t=0
5.974988495087208
% es.Ey (V/m) @ t=0
-0.9155452104190456
% es.Ez (V/m) @ t=0
4.773366230541612
% es.tEx (V/m) @ t=0
5.97498849508723
% es.tEy (V/m) @ t=0
0
% es.tEz (V/m) @ t=0
4.773366230541612
% V (V) @ t=0
0.006367843779390104
% es.normE (V/m) @ t=0.02
6.659974726958255
% es.EX (V/m) @ t=0.02
5.160709301377879
% es.EY (V/m) @ t=0.02
-0.7907735198574253
% es.EZ (V/m) @ t=0.02
4.122845685675914
% es.tEX (V/m) @ t=0.02
5.160709301377894
% es.tEY (V/m) @ t=0.02
0
% es.tEZ (V/m) @ t=0.02
4.122845685675916
% es.Ex (V/m) @ t=0.02
5.160709301377879
% es.Ey (V/m) @ t=0.02
-0.7907735198574253
% es.Ez (V/m) @ t=0.02
4.122845685675914
% es.tEx (V/m) @ t=0.02
5.160709301377894
% es.tEy (V/m) @ t=0.02
0
% es.tEz (V/m) @ t=0.02
4.122845685675916
% V (V) @ t=0.02
0.005500025742256881
% es.normE (V/m) @ t=0.04
6.72122985502668
% es.EX (V/m) @ t=0.04
5.208174930659056
% es.EY (V/m) @ t=0.04
-0.7980466601667686
% es.EZ (V/m) @ t=0.04
4.160765569065061
% es.tEX (V/m) @ t=0.04
5.208174930659058
% es.tEY (V/m) @ t=0.04
0
% es.tEZ (V/m) @ t=0.04
4.160765569065058
% es.Ex (V/m) @ t=0.04
5.208174930659056
% es.Ey (V/m) @ t=0.04
-0.7980466601667686
% es.Ez (V/m) @ t=0.04
4.160765569065061
% es.tEx (V/m) @ t=0.04
5.208174930659058
% es.tEy (V/m) @ t=0.04
0
% es.tEz (V/m) @ t=0.04
4.160765569065058
% V (V) @ t=0.04
0.005550612219527147
% es.normE (V/m) @ t=0.06
6.783040600052951
% es.EX (V/m) @ t=0.06
5.256071108517945
% es.EY (V/m) @ t=0.06
-0.8053857731927581
% es.EZ (V/m) @ t=0.06
4.199029392671125
% es.tEX (V/m) @ t=0.06
5.256071108517955
% es.tEY (V/m) @ t=0.06
0
% es.tEZ (V/m) @ t=0.06
4.199029392671121
% es.Ex (V/m) @ t=0.06
5.256071108517945
% es.Ey (V/m) @ t=0.06
-0.8053857731927581
% es.Ez (V/m) @ t=0.06
4.199029392671125
% es.tEx (V/m) @ t=0.06
5.256071108517955
% es.tEy (V/m) @ t=0.06
0
% es.tEz (V/m) @ t=0.06
4.199029392671121
% V (V) @ t=0.06
0.005601657609633146
% es.normE (V/m) @ t=0.08
6.845786597644646
% es.EX (V/m) @ t=0.08
5.304691999462462
% es.EY (V/m) @ t=0.08
-0.8128359337097404
% es.EZ (V/m) @ t=0.08
4.237872181865139
% es.tEX (V/m) @ t=0.08
5.3046919994624835
% es.tEY (V/m) @ t=0.08
0
% es.tEZ (V/m) @ t=0.08
4.237872181865127
% es.Ex (V/m) @ t=0.08
5.304691999462462
% es.Ey (V/m) @ t=0.08
-0.8128359337097404
% es.Ez (V/m) @ t=0.08
4.237872181865139
% es.tEx (V/m) @ t=0.08
5.3046919994624835
% es.tEy (V/m) @ t=0.08
0
% es.tEz (V/m) @ t=0.08
4.237872181865127
% V (V) @ t=0.08
0.005653475366809801
% es.normE (V/m) @ t=0.1
6.909199037909817
% es.EX (V/m) @ t=0.1
5.353829306767807
% es.EY (V/m) @ t=0.1
-0.8203652244954336
% es.EZ (V/m) @ t=0.1
4.277127530605682
% es.tEX (V/m) @ t=0.1
5.353829306767823
% es.tEY (V/m) @ t=0.1
0
% es.tEZ (V/m) @ t=0.1
4.277127530605677
% es.Ex (V/m) @ t=0.1
5.353829306767807
% es.Ey (V/m) @ t=0.1
-0.8203652244954336
% es.Ez (V/m) @ t=0.1
4.277127530605682
% es.tEx (V/m) @ t=0.1
5.353829306767823
% es.tEy (V/m) @ t=0.1
0
% es.tEz (V/m) @ t=0.1
4.277127530605677
% V (V) @ t=0.1
0.005705843497644335
% es.normE (V/m) @ t=0.12
6.972611478175008
% es.EX (V/m) @ t=0.12
5.402966614073181
% es.EY (V/m) @ t=0.12
-0.8278945152811357
% es.EZ (V/m) @ t=0.12
4.316382879346218
% es.tEX (V/m) @ t=0.12
5.402966614073204
% es.tEY (V/m) @ t=0.12
0
% es.tEZ (V/m) @ t=0.12
4.316382879346227
% es.Ex (V/m) @ t=0.12
5.402966614073181
% es.Ey (V/m) @ t=0.12
-0.8278945152811357
% es.Ez (V/m) @ t=0.12
4.316382879346218
% es.tEx (V/m) @ t=0.12
5.402966614073204
% es.tEy (V/m) @ t=0.12
0
% es.tEz (V/m) @ t=0.12
4.316382879346227
% V (V) @ t=0.12
0.005758211628478871
% es.normE (V/m) @ t=0.14
7.0366268226718365
% es.EX (V/m) @ t=0.14
5.452571108603351
% es.EY (V/m) @ t=0.14
-0.8354953929384488
% es.EZ (V/m) @ t=0.14
4.35601144626261
% es.tEX (V/m) @ t=0.14
5.452571108603366
% es.tEY (V/m) @ t=0.14
0
% es.tEZ (V/m) @ t=0.14
4.3560114462626025
% es.Ex (V/m) @ t=0.14
5.452571108603351
% es.Ey (V/m) @ t=0.14
-0.8354953929384488
% es.Ez (V/m) @ t=0.14
4.35601144626261
% es.tEx (V/m) @ t=0.14
5.452571108603366
% es.tEy (V/m) @ t=0.14
0
% es.tEz (V/m) @ t=0.14
4.3560114462626025
% V (V) @ t=0.14
0.005811077699393775
% es.normE (V/m) @ t=0.16
7.103430038194485
% es.EX (V/m) @ t=0.16
5.504335909297156
% es.EY (V/m) @ t=0.16
-0.843427293260306
% es.EZ (V/m) @ t=0.16
4.397365799936041
% es.tEX (V/m) @ t=0.16
5.504335909297165
% es.tEY (V/m) @ t=0.16
0
% es.tEZ (V/m) @ t=0.16
4.397365799936041
% es.Ex (V/m) @ t=0.16
5.504335909297156
% es.Ey (V/m) @ t=0.16
-0.843427293260306
% es.Ez (V/m) @ t=0.16
4.397365799936041
% es.tEx (V/m) @ t=0.16
5.504335909297165
% es.tEy (V/m) @ t=0.16
0
% es.tEz (V/m) @ t=0.16
4.397365799936041
% V (V) @ t=0.16
0.005866246279811474
% es.normE (V/m) @ t=0.18
7.17023325371712
% es.EX (V/m) @ t=0.18
5.556100709990935
% es.EY (V/m) @ t=0.18
-0.8513591935821774
% es.EZ (V/m) @ t=0.18
4.438720153609477
% es.tEX (V/m) @ t=0.18
5.5561007099909485
% es.tEY (V/m) @ t=0.18
0
% es.tEZ (V/m) @ t=0.18
4.438720153609479
% es.Ex (V/m) @ t=0.18
5.556100709990935
% es.Ey (V/m) @ t=0.18
-0.8513591935821774
% es.Ez (V/m) @ t=0.18
4.438720153609477
% es.tEx (V/m) @ t=0.18
5.5561007099909485
% es.tEy (V/m) @ t=0.18
0
% es.tEz (V/m) @ t=0.18
4.438720153609479
% V (V) @ t=0.18
0.005921414860229174
% es.normE (V/m) @ t=0.2
7.237036469239779
% es.EX (V/m) @ t=0.2
5.60786551068475
% es.EY (V/m) @ t=0.2
-0.8592910939040417
% es.EZ (V/m) @ t=0.2
4.480074507282909
% es.tEX (V/m) @ t=0.2
5.607865510684775
% es.tEY (V/m) @ t=0.2
0
% es.tEZ (V/m) @ t=0.2
4.480074507282909
% es.Ex (V/m) @ t=0.2
5.60786551068475
% es.Ey (V/m) @ t=0.2
-0.8592910939040417
% es.Ez (V/m) @ t=0.2
4.480074507282909
% es.tEx (V/m) @ t=0.2
5.607865510684775
% es.tEy (V/m) @ t=0.2
0
% es.tEz (V/m) @ t=0.2
4.480074507282909
% V (V) @ t=0.2
0.005976583440646875
% es.normE (V/m) @ t=0.22
7.303839684762416
% es.EX (V/m) @ t=0.22
5.659630311378536
% es.EY (V/m) @ t=0.22
-0.8672229942259264
% es.EZ (V/m) @ t=0.22
4.521428860956334
% es.tEX (V/m) @ t=0.22
5.659630311378544
% es.tEY (V/m) @ t=0.22
0
% es.tEZ (V/m) @ t=0.22
4.521428860956333
% es.Ex (V/m) @ t=0.22
5.659630311378536
% es.Ey (V/m) @ t=0.22
-0.8672229942259264
% es.Ez (V/m) @ t=0.22
4.521428860956334
% es.tEx (V/m) @ t=0.22
5.659630311378544
% es.tEy (V/m) @ t=0.22
0
% es.tEz (V/m) @ t=0.22
4.521428860956333
% V (V) @ t=0.22
0.006031752021064575
% es.normE (V/m) @ t=0.24
7.370642900285057
% es.EX (V/m) @ t=0.24
5.71139511207233
% es.EY (V/m) @ t=0.24
-0.8751548945477641
% es.EZ (V/m) @ t=0.24
4.562783214629762
% es.tEX (V/m) @ t=0.24
5.711395112072357
% es.tEY (V/m) @ t=0.24
0
% es.tEZ (V/m) @ t=0.24
4.562783214629764
% es.Ex (V/m) @ t=0.24
5.71139511207233
% es.Ey (V/m) @ t=0.24
-0.8751548945477641
% es.Ez (V/m) @ t=0.24
4.562783214629762
% es.tEx (V/m) @ t=0.24
5.711395112072357
% es.tEy (V/m) @ t=0.24
0
% es.tEz (V/m) @ t=0.24
4.562783214629764
% V (V) @ t=0.24
0.006086920601482274
% es.normE (V/m) @ t=0.26
7.437446115807698
% es.EX (V/m) @ t=0.26
5.763159912766113
% es.EY (V/m) @ t=0.26
-0.8830867948696746
% es.EZ (V/m) @ t=0.26
4.604137568303192
% es.tEX (V/m) @ t=0.26
5.7631599127661275
% es.tEY (V/m) @ t=0.26
0
% es.tEZ (V/m) @ t=0.26
4.604137568303194
% es.Ex (V/m) @ t=0.26
5.763159912766113
% es.Ey (V/m) @ t=0.26
-0.8830867948696746
% es.Ez (V/m) @ t=0.26
4.604137568303192
% es.tEx (V/m) @ t=0.26
5.7631599127661275
% es.tEy (V/m) @ t=0.26
0
% es.tEz (V/m) @ t=0.26
4.604137568303194
% V (V) @ t=0.26
0.006142089181899974
% es.normE (V/m) @ t=0.28
7.50704490194966
% es.EX (V/m) @ t=0.28
5.817092541987668
% es.EY (V/m) @ t=0.28
-0.891350856350348
% es.EZ (V/m) @ t=0.28
4.647220326687845
% es.tEX (V/m) @ t=0.28
5.817092541987666
% es.tEY (V/m) @ t=0.28
0
% es.tEZ (V/m) @ t=0.28
4.647220326687837
% es.Ex (V/m) @ t=0.28
5.817092541987668
% es.Ey (V/m) @ t=0.28
-0.891350856350348
% es.Ez (V/m) @ t=0.28
4.647220326687845
% es.tEx (V/m) @ t=0.28
5.817092541987666
% es.tEy (V/m) @ t=0.28
0
% es.tEz (V/m) @ t=0.28
4.647220326687837
% V (V) @ t=0.28
0.006199577117053925
% es.normE (V/m) @ t=0.3
7.581494787329314
% es.EX (V/m) @ t=0.3
5.874786961817632
% es.EY (V/m) @ t=0.3
-0.900191310618399
% es.EZ (V/m) @ t=0.3
4.693302352093469
% es.tEX (V/m) @ t=0.3
5.874786961817652
% es.tEY (V/m) @ t=0.3
0
% es.tEZ (V/m) @ t=0.3
4.693302352093461
% es.Ex (V/m) @ t=0.3
5.874786961817632
% es.Ey (V/m) @ t=0.3
-0.900191310618399
% es.Ez (V/m) @ t=0.3
4.693302352093469
% es.tEx (V/m) @ t=0.3
5.874786961817652
% es.tEy (V/m) @ t=0.3
0
% es.tEz (V/m) @ t=0.3
4.693302352093461
% V (V) @ t=0.3
0.006261089783293799
% es.normE (V/m) @ t=0.32
7.655944672720507
% es.EX (V/m) @ t=0.32
5.932481381647607
% es.EY (V/m) @ t=0.32
-0.9090317648864703
% es.EZ (V/m) @ t=0.32
4.739384377499111
% es.tEX (V/m) @ t=0.32
5.932481381647637
% es.tEY (V/m) @ t=0.32
0
% es.tEZ (V/m) @ t=0.32
4.739384377499114
% es.Ex (V/m) @ t=0.32
5.932481381647607
% es.Ey (V/m) @ t=0.32
-0.9090317648864703
% es.Ez (V/m) @ t=0.32
4.739384377499111
% es.tEx (V/m) @ t=0.32
5.932481381647637
% es.tEy (V/m) @ t=0.32
0
% es.tEz (V/m) @ t=0.32
4.739384377499114
% V (V) @ t=0.32
0.0063226024495336725
% es.normE (V/m) @ t=0.34
7.730394558122871
% es.EX (V/m) @ t=0.34
5.990175801477582
% es.EY (V/m) @ t=0.34
-0.9178722191544981
% es.EZ (V/m) @ t=0.34
4.785466402904743
% es.tEX (V/m) @ t=0.34
5.990175801477594
% es.tEY (V/m) @ t=0.34
0
% es.tEZ (V/m) @ t=0.34
4.785466402904731
% es.Ex (V/m) @ t=0.34
5.990175801477582
% es.Ey (V/m) @ t=0.34
-0.9178722191544981
% es.Ez (V/m) @ t=0.34
4.785466402904743
% es.tEx (V/m) @ t=0.34
5.990175801477594
% es.tEy (V/m) @ t=0.34
0
% es.tEz (V/m) @ t=0.34
4.785466402904731
% V (V) @ t=0.34
0.006384115115773546
% es.normE (V/m) @ t=0.36
7.8048444435361155
% es.EX (V/m) @ t=0.36
6.047870221307578
% es.EY (V/m) @ t=0.36
-0.9267126734225561
% es.EZ (V/m) @ t=0.36
4.8315484283103745
% es.tEX (V/m) @ t=0.36
6.047870221307594
% es.tEY (V/m) @ t=0.36
0
% es.tEZ (V/m) @ t=0.36
4.83154842831037
% es.Ex (V/m) @ t=0.36
6.047870221307578
% es.Ey (V/m) @ t=0.36
-0.9267126734225561
% es.Ez (V/m) @ t=0.36
4.8315484283103745
% es.tEx (V/m) @ t=0.36
6.047870221307594
% es.tEy (V/m) @ t=0.36
0
% es.tEz (V/m) @ t=0.36
4.83154842831037
% V (V) @ t=0.36
0.006445627782013422
% es.normE (V/m) @ t=0.38
7.879294328959909
% es.EX (V/m) @ t=0.38
6.105564641137574
% es.EY (V/m) @ t=0.38
-0.9355531276906097
% es.EZ (V/m) @ t=0.38
4.877630453715995
% es.tEX (V/m) @ t=0.38
6.10556464113758
% es.tEY (V/m) @ t=0.38
0
% es.tEZ (V/m) @ t=0.38
4.877630453715987
% es.Ex (V/m) @ t=0.38
6.105564641137574
% es.Ey (V/m) @ t=0.38
-0.9355531276906097
% es.Ez (V/m) @ t=0.38
4.877630453715995
% es.tEx (V/m) @ t=0.38
6.10556464113758
% es.tEy (V/m) @ t=0.38
0
% es.tEz (V/m) @ t=0.38
4.877630453715987
% V (V) @ t=0.38
0.006507140448253296
% es.normE (V/m) @ t=0.4
7.953744214393947
% es.EX (V/m) @ t=0.4
6.163259060967546
% es.EY (V/m) @ t=0.4
-0.9443935819586793
% es.EZ (V/m) @ t=0.4
4.923712479121626
% es.tEX (V/m) @ t=0.4
6.1632590609675795
% es.tEY (V/m) @ t=0.4
0
% es.tEZ (V/m) @ t=0.4
4.923712479121625
% es.Ex (V/m) @ t=0.4
6.163259060967546
% es.Ey (V/m) @ t=0.4
-0.9443935819586793
% es.Ez (V/m) @ t=0.4
4.923712479121626
% es.tEx (V/m) @ t=0.4
6.1632590609675795
% es.tEy (V/m) @ t=0.4
0
% es.tEz (V/m) @ t=0.4
4.923712479121625
% V (V) @ t=0.4
0.006568653114493171
% es.normE (V/m) @ t=0.42
8.028194099837973
% es.EX (V/m) @ t=0.42
6.220953480797535
% es.EY (V/m) @ t=0.42
-0.9532340362267213
% es.EZ (V/m) @ t=0.42
4.969794504527261
% es.tEX (V/m) @ t=0.42
6.220953480797537
% es.tEY (V/m) @ t=0.42
0
% es.tEZ (V/m) @ t=0.42
4.969794504527257
% es.Ex (V/m) @ t=0.42
6.220953480797535
% es.Ey (V/m) @ t=0.42
-0.9532340362267213
% es.Ez (V/m) @ t=0.42
4.969794504527261
% es.tEx (V/m) @ t=0.42
6.220953480797537
% es.tEy (V/m) @ t=0.42
0
% es.tEz (V/m) @ t=0.42
4.969794504527257
% V (V) @ t=0.42
0.006630165780733045
% es.normE (V/m) @ t=0.44
8.102643985291682
% es.EX (V/m) @ t=0.44
6.278647900627503
% es.EY (V/m) @ t=0.44
-0.962074490494806
% es.EZ (V/m) @ t=0.44
5.015876529932889
% es.tEX (V/m) @ t=0.44
6.278647900627536
% es.tEY (V/m) @ t=0.44
0
% es.tEZ (V/m) @ t=0.44
5.015876529932887
% es.Ex (V/m) @ t=0.44
6.278647900627503
% es.Ey (V/m) @ t=0.44
-0.962074490494806
% es.Ez (V/m) @ t=0.44
5.015876529932889
% es.tEx (V/m) @ t=0.44
6.278647900627536
% es.tEy (V/m) @ t=0.44
0
% es.tEz (V/m) @ t=0.44
5.015876529932887
% V (V) @ t=0.44
0.006691678446972919
% es.normE (V/m) @ t=0.46
8.177093870754847
% es.EX (V/m) @ t=0.46
6.336342320457506
% es.EY (V/m) @ t=0.46
-0.9709149447628258
% es.EZ (V/m) @ t=0.46
5.061958555338524
% es.tEX (V/m) @ t=0.46
6.336342320457536
% es.tEY (V/m) @ t=0.46
0
% es.tEZ (V/m) @ t=0.46
5.061958555338526
% es.Ex (V/m) @ t=0.46
6.336342320457506
% es.Ey (V/m) @ t=0.46
-0.9709149447628258
% es.Ez (V/m) @ t=0.46
5.061958555338524
% es.tEx (V/m) @ t=0.46
6.336342320457536
% es.tEy (V/m) @ t=0.46
0
% es.tEz (V/m) @ t=0.46
5.061958555338526
% V (V) @ t=0.46
0.006753191113212793
% es.normE (V/m) @ t=0.48
8.2515437562272
% es.EX (V/m) @ t=0.48
6.39403674028752
% es.EY (V/m) @ t=0.48
-0.9797553990308749
% es.EZ (V/m) @ t=0.48
5.108040580744152
% es.tEX (V/m) @ t=0.48
6.394036740287522
% es.tEY (V/m) @ t=0.48
0
% es.tEZ (V/m) @ t=0.48
5.108040580744158
% es.Ex (V/m) @ t=0.48
6.39403674028752
% es.Ey (V/m) @ t=0.48
-0.9797553990308749
% es.Ez (V/m) @ t=0.48
5.108040580744152
% es.tEx (V/m) @ t=0.48
6.394036740287522
% es.tEy (V/m) @ t=0.48
0
% es.tEz (V/m) @ t=0.48
5.108040580744158
% V (V) @ t=0.48
0.006814703779452667
% es.normE (V/m) @ t=0.5
8.325993641708429
% es.EX (V/m) @ t=0.5
6.451731160117463
% es.EY (V/m) @ t=0.5
-0.9885958532989632
% es.EZ (V/m) @ t=0.5
5.154122606149784
% es.tEX (V/m) @ t=0.5
6.4517311601175065
% es.tEY (V/m) @ t=0.5
0
% es.tEZ (V/m) @ t=0.5
5.154122606149789
% es.Ex (V/m) @ t=0.5
6.451731160117463
% es.Ey (V/m) @ t=0.5
-0.9885958532989632
% es.Ez (V/m) @ t=0.5
5.154122606149784
% es.tEx (V/m) @ t=0.5
6.4517311601175065
% es.tEy (V/m) @ t=0.5
0
% es.tEz (V/m) @ t=0.5
5.154122606149789
% V (V) @ t=0.5
0.006876216445692543
% es.normE (V/m) @ t=0.52
8.400443527198398
% es.EX (V/m) @ t=0.52
6.509425579947463
% es.EY (V/m) @ t=0.52
-0.9974363075669972
% es.EZ (V/m) @ t=0.52
5.200204631555419
% es.tEX (V/m) @ t=0.52
6.509425579947493
% es.tEY (V/m) @ t=0.52
0
% es.tEZ (V/m) @ t=0.52
5.20020463155542
% es.Ex (V/m) @ t=0.52
6.509425579947463
% es.Ey (V/m) @ t=0.52
-0.9974363075669972
% es.Ez (V/m) @ t=0.52
5.200204631555419
% es.tEx (V/m) @ t=0.52
6.509425579947493
% es.tEy (V/m) @ t=0.52
0
% es.tEz (V/m) @ t=0.52
5.20020463155542
% V (V) @ t=0.52
0.006937729111932417
% es.normE (V/m) @ t=0.54
8.47489341269683
% es.EX (V/m) @ t=0.54
6.567119999777452
% es.EY (V/m) @ t=0.54
-1.0062767618350748
% es.EZ (V/m) @ t=0.54
5.246286656961054
% es.tEX (V/m) @ t=0.54
6.5671199997774785
% es.tEY (V/m) @ t=0.54
0
% es.tEZ (V/m) @ t=0.54
5.246286656961051
% es.Ex (V/m) @ t=0.54
6.567119999777452
% es.Ey (V/m) @ t=0.54
-1.0062767618350748
% es.Ez (V/m) @ t=0.54
5.246286656961054
% es.tEx (V/m) @ t=0.54
6.5671199997774785
% es.tEy (V/m) @ t=0.54
0
% es.tEz (V/m) @ t=0.54
5.246286656961051
% V (V) @ t=0.54
0.006999241778172291
% es.normE (V/m) @ t=0.56
8.55572545396588
% es.EX (V/m) @ t=0.56
6.629753233783891
% es.EY (V/m) @ t=0.56
-1.015874048704756
% es.EZ (V/m) @ t=0.56
5.296328682011364
% es.tEX (V/m) @ t=0.56
6.629753233783923
% es.tEY (V/m) @ t=0.56
0
% es.tEZ (V/m) @ t=0.56
5.296328682011354
% es.Ex (V/m) @ t=0.56
6.629753233783891
% es.Ey (V/m) @ t=0.56
-1.015874048704756
% es.Ez (V/m) @ t=0.56
5.296328682011364
% es.tEx (V/m) @ t=0.56
6.629753233783923
% es.tEy (V/m) @ t=0.56
0
% es.tEz (V/m) @ t=0.56
5.296328682011354
% V (V) @ t=0.56
0.007065980442531151
% es.normE (V/m) @ t=0.58
8.638786314801735
% es.EX (V/m) @ t=0.58
6.69411123384379
% es.EY (V/m) @ t=0.58
-1.0257356417687884
% es.EZ (V/m) @ t=0.58
5.347753644891487
% es.tEX (V/m) @ t=0.58
6.694111233843795
% es.tEY (V/m) @ t=0.58
0
% es.tEZ (V/m) @ t=0.58
5.34775364489149
% es.Ex (V/m) @ t=0.58
6.69411123384379
% es.Ey (V/m) @ t=0.58
-1.0257356417687884
% es.Ez (V/m) @ t=0.58
5.347753644891487
% es.tEx (V/m) @ t=0.58
6.694111233843795
% es.tEy (V/m) @ t=0.58
0
% es.tEz (V/m) @ t=0.58
5.34775364489149
% V (V) @ t=0.58
0.0071345441652601385
% es.normE (V/m) @ t=0.6
8.721847175651464
% es.EX (V/m) @ t=0.6
6.758469233903738
% es.EY (V/m) @ t=0.6
-1.0355972348328581
% es.EZ (V/m) @ t=0.6
5.399178607771605
% es.tEX (V/m) @ t=0.6
6.758469233903752
% es.tEY (V/m) @ t=0.6
0
% es.tEZ (V/m) @ t=0.6
5.399178607771598
% es.Ex (V/m) @ t=0.6
6.758469233903738
% es.Ey (V/m) @ t=0.6
-1.0355972348328581
% es.Ez (V/m) @ t=0.6
5.399178607771605
% es.tEx (V/m) @ t=0.6
6.758469233903752
% es.tEy (V/m) @ t=0.6
0
% es.tEz (V/m) @ t=0.6
5.399178607771598
% V (V) @ t=0.6
0.0072031078879891235
% es.normE (V/m) @ t=0.62
8.804908036514586
% es.EX (V/m) @ t=0.62
6.822827233963616
% es.EY (V/m) @ t=0.62
-1.0454588278968924
% es.EZ (V/m) @ t=0.62
5.45060357065174
% es.tEX (V/m) @ t=0.62
6.822827233963638
% es.tEY (V/m) @ t=0.62
0
% es.tEZ (V/m) @ t=0.62
5.450603570651728
% es.Ex (V/m) @ t=0.62
6.822827233963616
% es.Ey (V/m) @ t=0.62
-1.0454588278968924
% es.Ez (V/m) @ t=0.62
5.45060357065174
% es.tEx (V/m) @ t=0.62
6.822827233963638
% es.tEy (V/m) @ t=0.62
0
% es.tEz (V/m) @ t=0.62
5.450603570651728
% V (V) @ t=0.62
0.007271671610718111
% es.normE (V/m) @ t=0.64
8.887968897390788
% es.EX (V/m) @ t=0.64
6.887185234023521
% es.EY (V/m) @ t=0.64
-1.0553204209609053
% es.EZ (V/m) @ t=0.64
5.5020285335318615
% es.tEX (V/m) @ t=0.64
6.887185234023553
% es.tEY (V/m) @ t=0.64
0
% es.tEZ (V/m) @ t=0.64
5.502028533531857
% es.Ex (V/m) @ t=0.64
6.887185234023521
% es.Ey (V/m) @ t=0.64
-1.0553204209609053
% es.Ez (V/m) @ t=0.64
5.5020285335318615
% es.tEx (V/m) @ t=0.64
6.887185234023553
% es.tEy (V/m) @ t=0.64
0
% es.tEz (V/m) @ t=0.64
5.502028533531857
% V (V) @ t=0.64
0.007340235333447097
% es.normE (V/m) @ t=0.66
8.971029758279727
% es.EX (V/m) @ t=0.66
6.95154323408347
% es.EY (V/m) @ t=0.66
-1.0651820140249377
% es.EZ (V/m) @ t=0.66
5.5534534964119775
% es.tEX (V/m) @ t=0.66
6.951543234083497
% es.tEY (V/m) @ t=0.66
0
% es.tEZ (V/m) @ t=0.66
5.553453496411978
% es.Ex (V/m) @ t=0.66
6.95154323408347
% es.Ey (V/m) @ t=0.66
-1.0651820140249377
% es.Ez (V/m) @ t=0.66
5.5534534964119775
% es.tEx (V/m) @ t=0.66
6.951543234083497
% es.tEy (V/m) @ t=0.66
0
% es.tEz (V/m) @ t=0.66
5.553453496411978
% V (V) @ t=0.66
0.007408799056176083
% es.normE (V/m) @ t=0.68
9.054090619180993
% es.EX (V/m) @ t=0.68
7.015901234143369
% es.EY (V/m) @ t=0.68
-1.0750436070890128
% es.EZ (V/m) @ t=0.68
5.604878459292113
% es.tEX (V/m) @ t=0.68
7.015901234143397
% es.tEY (V/m) @ t=0.68
0
% es.tEZ (V/m) @ t=0.68
5.604878459292108
% es.Ex (V/m) @ t=0.68
7.015901234143369
% es.Ey (V/m) @ t=0.68
-1.0750436070890128
% es.Ez (V/m) @ t=0.68
5.604878459292113
% es.tEx (V/m) @ t=0.68
7.015901234143397
% es.tEy (V/m) @ t=0.68
0
% es.tEz (V/m) @ t=0.68
5.604878459292108
% V (V) @ t=0.68
0.00747736277890507
% es.normE (V/m) @ t=0.7
9.137151480094282
% es.EX (V/m) @ t=0.7
7.080259234203297
% es.EY (V/m) @ t=0.7
-1.0849052001530257
% es.EZ (V/m) @ t=0.7
5.656303422172224
% es.tEX (V/m) @ t=0.7
7.080259234203297
% es.tEY (V/m) @ t=0.7
0
% es.tEZ (V/m) @ t=0.7
5.656303422172223
% es.Ex (V/m) @ t=0.7
7.080259234203297
% es.Ey (V/m) @ t=0.7
-1.0849052001530257
% es.Ez (V/m) @ t=0.7
5.656303422172224
% es.tEx (V/m) @ t=0.7
7.080259234203297
% es.tEy (V/m) @ t=0.7
0
% es.tEz (V/m) @ t=0.7
5.656303422172223
% V (V) @ t=0.7
0.007545926501634057
% es.normE (V/m) @ t=0.72
9.220212341019256
% es.EX (V/m) @ t=0.72
7.14461723426321
% es.EY (V/m) @ t=0.72
-1.0947667932170635
% es.EZ (V/m) @ t=0.72
5.707728385052344
% es.tEX (V/m) @ t=0.72
7.144617234263212
% es.tEY (V/m) @ t=0.72
0
% es.tEZ (V/m) @ t=0.72
5.707728385052345
% es.Ex (V/m) @ t=0.72
7.14461723426321
% es.Ey (V/m) @ t=0.72
-1.0947667932170635
% es.Ez (V/m) @ t=0.72
5.707728385052344
% es.tEx (V/m) @ t=0.72
7.144617234263212
% es.tEy (V/m) @ t=0.72
0
% es.tEz (V/m) @ t=0.72
5.707728385052345
% V (V) @ t=0.72
0.007614490224363043
% es.normE (V/m) @ t=0.74
9.303273201955642
% es.EX (V/m) @ t=0.74
7.208975234323151
% es.EY (V/m) @ t=0.74
-1.1046283862811102
% es.EZ (V/m) @ t=0.74
5.759153347932475
% es.tEX (V/m) @ t=0.74
7.208975234323168
% es.tEY (V/m) @ t=0.74
0
% es.tEZ (V/m) @ t=0.74
5.759153347932482
% es.Ex (V/m) @ t=0.74
7.208975234323151
% es.Ey (V/m) @ t=0.74
-1.1046283862811102
% es.Ez (V/m) @ t=0.74
5.759153347932475
% es.tEx (V/m) @ t=0.74
7.208975234323168
% es.tEy (V/m) @ t=0.74
0
% es.tEz (V/m) @ t=0.74
5.759153347932482
% V (V) @ t=0.74
0.00768305394709203
% es.normE (V/m) @ t=0.76
9.386334062903066
% es.EX (V/m) @ t=0.76
7.273333234383057
% es.EY (V/m) @ t=0.76
-1.1144899793451426
% es.EZ (V/m) @ t=0.76
5.810578310812593
% es.tEX (V/m) @ t=0.76
7.273333234383083
% es.tEY (V/m) @ t=0.76
0
% es.tEZ (V/m) @ t=0.76
5.810578310812611
% es.Ex (V/m) @ t=0.76
7.273333234383057
% es.Ey (V/m) @ t=0.76
-1.1144899793451426
% es.Ez (V/m) @ t=0.76
5.810578310812593
% es.tEx (V/m) @ t=0.76
7.273333234383083
% es.tEy (V/m) @ t=0.76
0
% es.tEz (V/m) @ t=0.76
5.810578310812611
% V (V) @ t=0.76
0.007751617669821017
% es.normE (V/m) @ t=0.78
9.46939492386129
% es.EX (V/m) @ t=0.78
7.3376912344429766
% es.EY (V/m) @ t=0.78
-1.1243515724091768
% es.EZ (V/m) @ t=0.78
5.862003273692717
% es.tEX (V/m) @ t=0.78
7.337691234443012
% es.tEY (V/m) @ t=0.78
0
% es.tEZ (V/m) @ t=0.78
5.862003273692705
% es.Ex (V/m) @ t=0.78
7.3376912344429766
% es.Ey (V/m) @ t=0.78
-1.1243515724091768
% es.Ez (V/m) @ t=0.78
5.862003273692717
% es.tEx (V/m) @ t=0.78
7.337691234443012
% es.tEy (V/m) @ t=0.78
0
% es.tEz (V/m) @ t=0.78
5.862003273692705
% V (V) @ t=0.78
0.007820181392550002
% es.normE (V/m) @ t=0.8
9.552455784830038
% es.EX (V/m) @ t=0.8
7.402049234502911
% es.EY (V/m) @ t=0.8
-1.13421316547322
% es.EZ (V/m) @ t=0.8
5.9134282365728525
% es.tEX (V/m) @ t=0.8
7.4020492345029405
% es.tEY (V/m) @ t=0.8
0
% es.tEZ (V/m) @ t=0.8
5.913428236572834
% es.Ex (V/m) @ t=0.8
7.402049234502911
% es.Ey (V/m) @ t=0.8
-1.13421316547322
% es.Ez (V/m) @ t=0.8
5.9134282365728525
% es.tEx (V/m) @ t=0.8
7.4020492345029405
% es.tEy (V/m) @ t=0.8
0
% es.tEz (V/m) @ t=0.8
5.913428236572834
% V (V) @ t=0.8
0.00788874511527899
% es.normE (V/m) @ t=0.82
9.636666506190767
% es.EX (V/m) @ t=0.82
7.46729898792341
% es.EY (V/m) @ t=0.82
-1.1442113948111015
% es.EZ (V/m) @ t=0.82
5.965563990301094
% es.tEX (V/m) @ t=0.82
7.467298987923421
% es.tEY (V/m) @ t=0.82
0
% es.tEZ (V/m) @ t=0.82
5.96556399030108
% es.Ex (V/m) @ t=0.82
7.46729898792341
% es.Ey (V/m) @ t=0.82
-1.1442113948111015
% es.Ez (V/m) @ t=0.82
5.965563990301094
% es.tEx (V/m) @ t=0.82
7.467298987923421
% es.tEy (V/m) @ t=0.82
0
% es.tEz (V/m) @ t=0.82
5.96556399030108
% V (V) @ t=0.82
0.007958263448823163
% es.normE (V/m) @ t=0.84
9.729577349407894
% es.EX (V/m) @ t=0.84
7.539295963025035
% es.EY (V/m) @ t=0.84
-1.1552434472554154
% es.EZ (V/m) @ t=0.84
6.023077759558209
% es.tEX (V/m) @ t=0.84
7.539295963025058
% es.tEY (V/m) @ t=0.84
0
% es.tEZ (V/m) @ t=0.84
6.0230777595581895
% es.Ex (V/m) @ t=0.84
7.539295963025035
% es.Ey (V/m) @ t=0.84
-1.1552434472554154
% es.Ez (V/m) @ t=0.84
6.023077759558209
% es.tEx (V/m) @ t=0.84
7.539295963025058
% es.tEy (V/m) @ t=0.84
0
% es.tEz (V/m) @ t=0.84
6.0230777595581895
% V (V) @ t=0.84
0.008035004598758031
% es.normE (V/m) @ t=0.86
9.82248819262663
% es.EX (V/m) @ t=0.86
7.6112929381266525
% es.EY (V/m) @ t=0.86
-1.1662754996997151
% es.EZ (V/m) @ t=0.86
6.080591528815338
% es.tEX (V/m) @ t=0.86
7.611292938126681
% es.tEY (V/m) @ t=0.86
0
% es.tEZ (V/m) @ t=0.86
6.080591528815321
% es.Ex (V/m) @ t=0.86
7.6112929381266525
% es.Ey (V/m) @ t=0.86
-1.1662754996997151
% es.Ez (V/m) @ t=0.86
6.080591528815338
% es.tEx (V/m) @ t=0.86
7.611292938126681
% es.tEy (V/m) @ t=0.86
0
% es.tEz (V/m) @ t=0.86
6.080591528815321
% V (V) @ t=0.86
0.0081117457486929
% es.normE (V/m) @ t=0.88
9.915399035846924
% es.EX (V/m) @ t=0.88
7.68328991322827
% es.EY (V/m) @ t=0.88
-1.1773075521440202
% es.EZ (V/m) @ t=0.88
6.13810529807245
% es.tEX (V/m) @ t=0.88
7.68328991322829
% es.tEY (V/m) @ t=0.88
0
% es.tEZ (V/m) @ t=0.88
6.138105298072452
% es.Ex (V/m) @ t=0.88
7.68328991322827
% es.Ey (V/m) @ t=0.88
-1.1773075521440202
% es.Ez (V/m) @ t=0.88
6.13810529807245
% es.tEx (V/m) @ t=0.88
7.68328991322829
% es.tEy (V/m) @ t=0.88
0
% es.tEz (V/m) @ t=0.88
6.138105298072452
% V (V) @ t=0.88
0.00818848689862777
% es.normE (V/m) @ t=0.9
10.008309879068763
% es.EX (V/m) @ t=0.9
7.755286888329902
% es.EY (V/m) @ t=0.9
-1.1883396045883785
% es.EZ (V/m) @ t=0.9
6.1956190673295755
% es.tEX (V/m) @ t=0.9
7.755286888329929
% es.tEY (V/m) @ t=0.9
0
% es.tEZ (V/m) @ t=0.9
6.195619067329576
% es.Ex (V/m) @ t=0.9
7.755286888329902
% es.Ey (V/m) @ t=0.9
-1.1883396045883785
% es.Ez (V/m) @ t=0.9
6.1956190673295755
% es.tEx (V/m) @ t=0.9
7.755286888329929
% es.tEy (V/m) @ t=0.9
0
% es.tEz (V/m) @ t=0.9
6.195619067329576
% V (V) @ t=0.9
0.008265228048562638
% es.normE (V/m) @ t=0.92
10.101220722292073
% es.EX (V/m) @ t=0.92
7.827283863431535
% es.EY (V/m) @ t=0.92
-1.1993716570326924
% es.EZ (V/m) @ t=0.92
6.2531328365866905
% es.tEX (V/m) @ t=0.92
7.827283863431552
% es.tEY (V/m) @ t=0.92
0
% es.tEZ (V/m) @ t=0.92
6.2531328365867
% es.Ex (V/m) @ t=0.92
7.827283863431535
% es.Ey (V/m) @ t=0.92
-1.1993716570326924
% es.Ez (V/m) @ t=0.92
6.2531328365866905
% es.tEx (V/m) @ t=0.92
7.827283863431552
% es.tEy (V/m) @ t=0.92
0
% es.tEz (V/m) @ t=0.92
6.2531328365867
% V (V) @ t=0.92
0.008341969198497504
% es.normE (V/m) @ t=0.94
10.194131565516852
% es.EX (V/m) @ t=0.94
7.899280838533209
% es.EY (V/m) @ t=0.94
-1.2104037094769602
% es.EZ (V/m) @ t=0.94
6.310646605843813
% es.tEX (V/m) @ t=0.94
7.899280838533217
% es.tEY (V/m) @ t=0.94
0
% es.tEZ (V/m) @ t=0.94
6.310646605843831
% es.Ex (V/m) @ t=0.94
7.899280838533209
% es.Ey (V/m) @ t=0.94
-1.2104037094769602
% es.Ez (V/m) @ t=0.94
6.310646605843813
% es.tEx (V/m) @ t=0.94
7.899280838533217
% es.tEy (V/m) @ t=0.94
0
% es.tEz (V/m) @ t=0.94
6.310646605843831
% V (V) @ t=0.94
0.008418710348432373
% es.normE (V/m) @ t=0.96
10.287042408743
% es.EX (V/m) @ t=0.96
7.971277813634827
% es.EY (V/m) @ t=0.96
-1.2214357619212315
% es.EZ (V/m) @ t=0.96
6.3681603751009535
% es.tEX (V/m) @ t=0.96
7.971277813634841
% es.tEY (V/m) @ t=0.96
0
% es.tEZ (V/m) @ t=0.96
6.368160375100949
% es.Ex (V/m) @ t=0.96
7.971277813634827
% es.Ey (V/m) @ t=0.96
-1.2214357619212315
% es.Ez (V/m) @ t=0.96
6.3681603751009535
% es.tEx (V/m) @ t=0.96
7.971277813634841
% es.tEy (V/m) @ t=0.96
0
% es.tEz (V/m) @ t=0.96
6.368160375100949
% V (V) @ t=0.96
0.008495451498367241
% es.normE (V/m) @ t=0.98
10.379953251970491
% es.EX (V/m) @ t=0.98
8.043274788736422
% es.EY (V/m) @ t=0.98
-1.2324678143655525
% es.EZ (V/m) @ t=0.98
6.425674144358079
% es.tEX (V/m) @ t=0.98
8.04327478873645
% es.tEY (V/m) @ t=0.98
0
% es.tEZ (V/m) @ t=0.98
6.425674144358073
% es.Ex (V/m) @ t=0.98
8.043274788736422
% es.Ey (V/m) @ t=0.98
-1.2324678143655525
% es.Ez (V/m) @ t=0.98
6.425674144358079
% es.tEx (V/m) @ t=0.98
8.04327478873645
% es.tEy (V/m) @ t=0.98
0
% es.tEz (V/m) @ t=0.98
6.425674144358073
% V (V) @ t=0.98
0.00857219264830211
% es.normE (V/m) @ t=1
10.472864095199334
% es.EX (V/m) @ t=1
8.115271763838056
% es.EY (V/m) @ t=1
-1.24349986680987
% es.EZ (V/m) @ t=1
6.483187913615206
% es.tEX (V/m) @ t=1
8.115271763838088
% es.tEY (V/m) @ t=1
0
% es.tEZ (V/m) @ t=1
6.483187913615198
% es.Ex (V/m) @ t=1
8.115271763838056
% es.Ey (V/m) @ t=1
-1.24349986680987
% es.Ez (V/m) @ t=1
6.483187913615206
% es.tEx (V/m) @ t=1
8.115271763838088
% es.tEy (V/m) @ t=1
0
% es.tEz (V/m) @ t=1
6.483187913615198
% V (V) @ t=1
0.00864893379823698
% es.normE (V/m) @ t=1.02
10.565774938429442
% es.EX (V/m) @ t=1.02
8.187268738939673
% es.EY (V/m) @ t=1.02
-1.2545319192541768
% es.EZ (V/m) @ t=1.02
6.54070168287231
% es.tEX (V/m) @ t=1.02
8.187268738939697
% es.tEY (V/m) @ t=1.02
0
% es.tEZ (V/m) @ t=1.02
6.540701682872293
% es.Ex (V/m) @ t=1.02
8.187268738939673
% es.Ey (V/m) @ t=1.02
-1.2545319192541768
% es.Ez (V/m) @ t=1.02
6.54070168287231
% es.tEx (V/m) @ t=1.02
8.187268738939697
% es.tEy (V/m) @ t=1.02
0
% es.tEz (V/m) @ t=1.02
6.540701682872293
% V (V) @ t=1.02
0.008725674948171848
% es.normE (V/m) @ t=1.04
10.658685781660875
% es.EX (V/m) @ t=1.04
8.259265714041362
% es.EY (V/m) @ t=1.04
-1.2655639716984801
% es.EZ (V/m) @ t=1.04
6.598215452129436
% es.tEX (V/m) @ t=1.04
8.259265714041376
% es.tEY (V/m) @ t=1.04
0
% es.tEZ (V/m) @ t=1.04
6.598215452129417
% es.Ex (V/m) @ t=1.04
8.259265714041362
% es.Ey (V/m) @ t=1.04
-1.2655639716984801
% es.Ez (V/m) @ t=1.04
6.598215452129436
% es.tEx (V/m) @ t=1.04
8.259265714041376
% es.tEy (V/m) @ t=1.04
0
% es.tEz (V/m) @ t=1.04
6.598215452129417
% V (V) @ t=1.04
0.008802416098106716
% es.normE (V/m) @ t=1.06
10.751596624893441
% es.EX (V/m) @ t=1.06
8.331262689142937
% es.EY (V/m) @ t=1.06
-1.2765960241428083
% es.EZ (V/m) @ t=1.06
6.655729221386551
% es.tEX (V/m) @ t=1.06
8.331262689142985
% es.tEY (V/m) @ t=1.06
0
% es.tEZ (V/m) @ t=1.06