% Model:              1 neuron.mph
% Version:            COMSOL 6.0.0.405
% Date:               Mar 16 2023, 16:58
% Dimension:          0
% Nodes:              14017
% Expressions:        14017
% Description:        Electric field norm, Electric field, X component, Electric field, Y component, Electric field, Z component, Tangential electric field, X component, Tangential electric field, Y component, Tangential electric field, Z component, Electric field, x component, Electric field, y component, Electric field, z component, Tangential electric field, x component, Tangential electric field, y component, Tangential electric field, z component, Electric potential
% Length unit:        mm
% x
2
% y
12.199999999999998
% z
2
% es.normE (V/m) @ t=0
0.7397043929265755
% es.EX (V/m) @ t=0
-0.5295595525697895
% es.EY (V/m) @ t=0
0.2016748434108162
% es.EZ (V/m) @ t=0
-0.472552258838574
% es.tEX (V/m) @ t=0
-0.5295595525697885
% es.tEY (V/m) @ t=0
0
% es.tEZ (V/m) @ t=0
-0.47255225883857577
% es.Ex (V/m) @ t=0
-0.5295595525697895
% es.Ey (V/m) @ t=0
0.2016748434108162
% es.Ez (V/m) @ t=0
-0.472552258838574
% es.tEx (V/m) @ t=0
-0.5295595525697885
% es.tEy (V/m) @ t=0
0
% es.tEz (V/m) @ t=0
-0.47255225883857577
% V (V) @ t=0
0.0075278344170329236
% es.normE (V/m) @ t=0.02
0.6388966226817876
% es.EX (V/m) @ t=0.02
-0.4573905641511936
% es.EY (V/m) @ t=0.02
0.17419036277966393
% es.EZ (V/m) @ t=0.02
-0.40815229035574063
% es.tEX (V/m) @ t=0.02
-0.4573905641511926
% es.tEY (V/m) @ t=0.02
0
% es.tEZ (V/m) @ t=0.02
-0.40815229035574774
% es.Ex (V/m) @ t=0.02
-0.4573905641511936
% es.Ey (V/m) @ t=0.02
0.17419036277966393
% es.Ez (V/m) @ t=0.02
-0.40815229035574063
% es.tEx (V/m) @ t=0.02
-0.4573905641511926
% es.tEy (V/m) @ t=0.02
0
% es.tEz (V/m) @ t=0.02
-0.40815229035574774
% V (V) @ t=0.02
0.006501932429239374
% es.normE (V/m) @ t=0.04
0.6447729005970583
% es.EX (V/m) @ t=0.04
-0.4615974311546497
% es.EY (V/m) @ t=0.04
0.17579249116849538
% es.EZ (V/m) @ t=0.04
-0.4119062865077221
% es.tEX (V/m) @ t=0.04
-0.4615974311546496
% es.tEY (V/m) @ t=0.04
0
% es.tEZ (V/m) @ t=0.04
-0.41190628650773053
% es.Ex (V/m) @ t=0.04
-0.4615974311546497
% es.Ey (V/m) @ t=0.04
0.17579249116849538
% es.Ez (V/m) @ t=0.04
-0.4119062865077221
% es.tEx (V/m) @ t=0.04
-0.4615974311546496
% es.tEy (V/m) @ t=0.04
0
% es.tEz (V/m) @ t=0.04
-0.41190628650773053
% V (V) @ t=0.04
0.0065617341078041186
% es.normE (V/m) @ t=0.06
0.6507024853206174
% es.EX (V/m) @ t=0.06
-0.46584245769879984
% es.EY (V/m) @ t=0.06
0.1774091647385474
% es.EZ (V/m) @ t=0.06
-0.41569433438404957
% es.tEX (V/m) @ t=0.06
-0.46584245769879495
% es.tEY (V/m) @ t=0.06
0
% es.tEZ (V/m) @ t=0.06
-0.4156943343840549
% es.Ex (V/m) @ t=0.06
-0.46584245769879984
% es.Ey (V/m) @ t=0.06
0.1774091647385474
% es.Ez (V/m) @ t=0.06
-0.41569433438404957
% es.tEx (V/m) @ t=0.06
-0.46584245769879495
% es.tEy (V/m) @ t=0.06
0
% es.tEz (V/m) @ t=0.06
-0.4156943343840549
% V (V) @ t=0.06
0.006622078042286532
% es.normE (V/m) @ t=0.08
0.6567217861178345
% es.EX (V/m) @ t=0.08
-0.470151716935891
% es.EY (V/m) @ t=0.08
0.17905028307330517
% es.EZ (V/m) @ t=0.08
-0.4195397001835621
% es.tEX (V/m) @ t=0.08
-0.4701517169358891
% es.tEY (V/m) @ t=0.08
0
% es.tEZ (V/m) @ t=0.08
-0.41953970018356745
% es.Ex (V/m) @ t=0.08
-0.470151716935891
% es.Ey (V/m) @ t=0.08
0.17905028307330517
% es.Ez (V/m) @ t=0.08
-0.4195397001835621
% es.tEx (V/m) @ t=0.08
-0.4701517169358891
% es.tEy (V/m) @ t=0.08
0
% es.tEz (V/m) @ t=0.08
-0.41953970018356745
% V (V) @ t=0.08
0.006683335325137985
% es.normE (V/m) @ t=0.1
0.6628050891186916
% es.EX (V/m) @ t=0.1
-0.4745067988859565
% es.EY (V/m) @ t=0.1
0.18070883996445075
% es.EZ (V/m) @ t=0.1
-0.42342595579516384
% es.tEX (V/m) @ t=0.1
-0.47450679888595504
% es.tEY (V/m) @ t=0.1
0
% es.tEZ (V/m) @ t=0.1
-0.4234259557951665
% es.Ex (V/m) @ t=0.1
-0.4745067988859565
% es.Ey (V/m) @ t=0.1
0.18070883996445075
% es.Ez (V/m) @ t=0.1
-0.42342595579516384
% es.tEx (V/m) @ t=0.1
-0.47450679888595504
% es.tEy (V/m) @ t=0.1
0
% es.tEz (V/m) @ t=0.1
-0.4234259557951665
% V (V) @ t=0.1
0.006745244178058521
% es.normE (V/m) @ t=0.12
0.6688883921195484
% es.EX (V/m) @ t=0.12
-0.4788618808360311
% es.EY (V/m) @ t=0.12
0.18236739685559766
% es.EZ (V/m) @ t=0.12
-0.427312211406754
% es.tEX (V/m) @ t=0.12
-0.47886188083603054
% es.tEY (V/m) @ t=0.12
0
% es.tEZ (V/m) @ t=0.12
-0.4273122114067549
% es.Ex (V/m) @ t=0.12
-0.4788618808360311
% es.Ey (V/m) @ t=0.12
0.18236739685559766
% es.Ez (V/m) @ t=0.12
-0.427312211406754
% es.tEx (V/m) @ t=0.12
-0.47886188083603054
% es.tEy (V/m) @ t=0.12
0
% es.tEz (V/m) @ t=0.12
-0.4273122114067549
% V (V) @ t=0.12
0.006807153030979056
% es.normE (V/m) @ t=0.14
0.6750293500927484
% es.EX (V/m) @ t=0.14
-0.4832582382857752
% es.EY (V/m) @ t=0.14
0.18404167329088317
% es.EZ (V/m) @ t=0.14
-0.43123529920050885
% es.tEX (V/m) @ t=0.14
-0.48325823828577286
% es.tEY (V/m) @ t=0.14
0
% es.tEZ (V/m) @ t=0.14
-0.43123529920050974
% es.Ex (V/m) @ t=0.14
-0.4832582382857752
% es.Ey (V/m) @ t=0.14
0.18404167329088317
% es.Ez (V/m) @ t=0.14
-0.43123529920050885
% es.tEx (V/m) @ t=0.14
-0.48325823828577286
% es.tEy (V/m) @ t=0.14
0
% es.tEz (V/m) @ t=0.14
-0.43123529920050974
% V (V) @ t=0.14
0.006869648620583477
% es.normE (V/m) @ t=0.16
0.6814379117726004
% es.EX (V/m) @ t=0.16
-0.48784617464466073
% es.EY (V/m) @ t=0.16
0.18578891148662335
% es.EZ (V/m) @ t=0.16
-0.43532934238747734
% es.tEX (V/m) @ t=0.16
-0.48784617464465985
% es.tEY (V/m) @ t=0.16
0
% es.tEZ (V/m) @ t=0.16
-0.43532934238747956
% es.Ex (V/m) @ t=0.16
-0.48784617464466073
% es.Ey (V/m) @ t=0.16
0.18578891148662335
% es.Ez (V/m) @ t=0.16
-0.43532934238747734
% es.tEx (V/m) @ t=0.16
-0.48784617464465985
% es.tEy (V/m) @ t=0.16
0
% es.tEz (V/m) @ t=0.16
-0.43532934238747956
% V (V) @ t=0.16
0.006934867529705032
% es.normE (V/m) @ t=0.18
0.6878464734524519
% es.EX (V/m) @ t=0.18
-0.49243411100353784
% es.EY (V/m) @ t=0.18
0.18753614968236065
% es.EZ (V/m) @ t=0.18
-0.43942338557445737
% es.tEX (V/m) @ t=0.18
-0.49243411100353773
% es.tEY (V/m) @ t=0.18
0
% es.tEZ (V/m) @ t=0.18
-0.43942338557445915
% es.Ex (V/m) @ t=0.18
-0.49243411100353784
% es.Ey (V/m) @ t=0.18
0.18753614968236065
% es.Ez (V/m) @ t=0.18
-0.43942338557445737
% es.tEx (V/m) @ t=0.18
-0.49243411100353773
% es.tEy (V/m) @ t=0.18
0
% es.tEz (V/m) @ t=0.18
-0.43942338557445915
% V (V) @ t=0.18
0.007000086438826588
% es.normE (V/m) @ t=0.2
0.6942550351323034
% es.EX (V/m) @ t=0.2
-0.4970220473624225
% es.EY (V/m) @ t=0.2
0.18928338787810572
% es.EZ (V/m) @ t=0.2
-0.44351742876142275
% es.tEX (V/m) @ t=0.2
-0.4970220473624234
% es.tEY (V/m) @ t=0.2
0
% es.tEZ (V/m) @ t=0.2
-0.4435174287614254
% es.Ex (V/m) @ t=0.2
-0.4970220473624225
% es.Ey (V/m) @ t=0.2
0.18928338787810572
% es.Ez (V/m) @ t=0.2
-0.44351742876142275
% es.tEx (V/m) @ t=0.2
-0.4970220473624234
% es.tEy (V/m) @ t=0.2
0
% es.tEz (V/m) @ t=0.2
-0.4435174287614254
% V (V) @ t=0.2
0.0070653053479481425
% es.normE (V/m) @ t=0.22
0.7006635968121488
% es.EX (V/m) @ t=0.22
-0.5016099837212934
% es.EY (V/m) @ t=0.22
0.19103062607384014
% es.EZ (V/m) @ t=0.22
-0.4476114719483997
% es.tEX (V/m) @ t=0.22
-0.5016099837212964
% es.tEY (V/m) @ t=0.22
0
% es.tEZ (V/m) @ t=0.22
-0.44761147194840056
% es.Ex (V/m) @ t=0.22
-0.5016099837212934
% es.Ey (V/m) @ t=0.22
0.19103062607384014
% es.Ez (V/m) @ t=0.22
-0.4476114719483997
% es.tEx (V/m) @ t=0.22
-0.5016099837212964
% es.tEy (V/m) @ t=0.22
0
% es.tEz (V/m) @ t=0.22
-0.44761147194840056
% V (V) @ t=0.22
0.007130524257069696
% es.normE (V/m) @ t=0.24
0.7070721584920041
% es.EX (V/m) @ t=0.24
-0.5061979200801815
% es.EY (V/m) @ t=0.24
0.192777864269575
% es.EZ (V/m) @ t=0.24
-0.45170551513537305
% es.tEX (V/m) @ t=0.24
-0.5061979200801816
% es.tEY (V/m) @ t=0.24
0
% es.tEZ (V/m) @ t=0.24
-0.45170551513537127
% es.Ex (V/m) @ t=0.24
-0.5061979200801815
% es.Ey (V/m) @ t=0.24
0.192777864269575
% es.Ez (V/m) @ t=0.24
-0.45170551513537305
% es.tEx (V/m) @ t=0.24
-0.5061979200801816
% es.tEy (V/m) @ t=0.24
0
% es.tEz (V/m) @ t=0.24
-0.45170551513537127
% V (V) @ t=0.24
0.007195743166191253
% es.normE (V/m) @ t=0.26
0.7134807201718595
% es.EX (V/m) @ t=0.26
-0.5107858564390627
% es.EY (V/m) @ t=0.26
0.19452510246531562
% es.EZ (V/m) @ t=0.26
-0.45579955832235
% es.tEX (V/m) @ t=0.26
-0.5107858564390595
% es.tEY (V/m) @ t=0.26
0
% es.tEZ (V/m) @ t=0.26
-0.4557995583223491
% es.Ex (V/m) @ t=0.26
-0.5107858564390627
% es.Ey (V/m) @ t=0.26
0.19452510246531562
% es.Ez (V/m) @ t=0.26
-0.45579955832235
% es.tEx (V/m) @ t=0.26
-0.5107858564390595
% es.tEy (V/m) @ t=0.26
0
% es.tEz (V/m) @ t=0.26
-0.4557995583223491
% V (V) @ t=0.26
0.007260962075312808
% es.normE (V/m) @ t=0.28
0.7201565354748882
% es.EX (V/m) @ t=0.28
-0.5155653377079877
% es.EY (V/m) @ t=0.28
0.19634441636359745
% es.EZ (V/m) @ t=0.28
-0.4600645259774918
% es.tEX (V/m) @ t=0.28
-0.5155653377079854
% es.tEY (V/m) @ t=0.28
0
% es.tEZ (V/m) @ t=0.28
-0.4600645259774909
% es.Ex (V/m) @ t=0.28
-0.5155653377079877
% es.Ey (V/m) @ t=0.28
0.19634441636359745
% es.Ez (V/m) @ t=0.28
-0.4600645259774918
% es.tEx (V/m) @ t=0.28
-0.5155653377079854
% es.tEy (V/m) @ t=0.28
0
% es.tEz (V/m) @ t=0.28
-0.4600645259774909
% V (V) @ t=0.28
0.007328917197875354
% es.normE (V/m) @ t=0.3
0.7272983087199538
% es.EX (V/m) @ t=0.3
-0.5206787784161188
% es.EY (V/m) @ t=0.3
0.19828939458362727
% es.EZ (V/m) @ t=0.3
-0.46462750123577923
% es.tEX (V/m) @ t=0.3
-0.5206787784161169
% es.tEY (V/m) @ t=0.3
0
% es.tEZ (V/m) @ t=0.3
-0.46462750123578367
% es.Ex (V/m) @ t=0.3
-0.5206787784161188
% es.Ey (V/m) @ t=0.3
0.19828939458362727
% es.Ez (V/m) @ t=0.3
-0.46462750123577923
% es.tEx (V/m) @ t=0.3
-0.5206787784161169
% es.tEy (V/m) @ t=0.3
0
% es.tEz (V/m) @ t=0.3
-0.46462750123578367
% V (V) @ t=0.3
0.007401642921265393
% es.normE (V/m) @ t=0.32
0.7344400819797473
% es.EX (V/m) @ t=0.32
-0.5257922191242538
% es.EY (V/m) @ t=0.32
0.20023437280364598
% es.EZ (V/m) @ t=0.32
-0.4691904764940791
% es.tEX (V/m) @ t=0.32
-0.5257922191242541
% es.tEY (V/m) @ t=0.32
0
% es.tEZ (V/m) @ t=0.32
-0.46919047649407997
% es.Ex (V/m) @ t=0.32
-0.5257922191242538
% es.Ey (V/m) @ t=0.32
0.20023437280364598
% es.Ez (V/m) @ t=0.32
-0.4691904764940791
% es.tEx (V/m) @ t=0.32
-0.5257922191242541
% es.tEy (V/m) @ t=0.32
0
% es.tEz (V/m) @ t=0.32
-0.46919047649407997
% V (V) @ t=0.32
0.007474368644655431
% es.normE (V/m) @ t=0.34
0.7415818552538326
% es.EX (V/m) @ t=0.34
-0.5309056598323939
% es.EY (V/m) @ t=0.34
0.20217935102366824
% es.EZ (V/m) @ t=0.34
-0.47375345175236827
% es.tEX (V/m) @ t=0.34
-0.5309056598323982
% es.tEY (V/m) @ t=0.34
0
% es.tEZ (V/m) @ t=0.34
-0.4737534517523736
% es.Ex (V/m) @ t=0.34
-0.5309056598323939
% es.Ey (V/m) @ t=0.34
0.20217935102366824
% es.Ez (V/m) @ t=0.34
-0.47375345175236827
% es.tEx (V/m) @ t=0.34
-0.5309056598323982
% es.tEy (V/m) @ t=0.34
0
% es.tEz (V/m) @ t=0.34
-0.4737534517523736
% V (V) @ t=0.34
0.007547094368045468
% es.normE (V/m) @ t=0.36
0.7487236285418042
% es.EX (V/m) @ t=0.36
-0.5360191005405385
% es.EY (V/m) @ t=0.36
0.20412432924368562
% es.EZ (V/m) @ t=0.36
-0.47831642701065746
% es.tEX (V/m) @ t=0.36
-0.5360191005405388
% es.tEY (V/m) @ t=0.36
0
% es.tEZ (V/m) @ t=0.36
-0.4783164270106628
% es.Ex (V/m) @ t=0.36
-0.5360191005405385
% es.Ey (V/m) @ t=0.36
0.20412432924368562
% es.Ez (V/m) @ t=0.36
-0.47831642701065746
% es.tEx (V/m) @ t=0.36
-0.5360191005405388
% es.tEy (V/m) @ t=0.36
0
% es.tEz (V/m) @ t=0.36
-0.4783164270106628
% V (V) @ t=0.36
0.007619820091435508
% es.normE (V/m) @ t=0.38
0.7558654018432771
% es.EX (V/m) @ t=0.38
-0.5411325412486822
% es.EY (V/m) @ t=0.38
0.2060693074637132
% es.EZ (V/m) @ t=0.38
-0.4828794022689573
% es.tEX (V/m) @ t=0.38
-0.5411325412486812
% es.tEY (V/m) @ t=0.38
0
% es.tEZ (V/m) @ t=0.38
-0.4828794022689591
% es.Ex (V/m) @ t=0.38
-0.5411325412486822
% es.Ey (V/m) @ t=0.38
0.2060693074637132
% es.Ez (V/m) @ t=0.38
-0.4828794022689573
% es.tEx (V/m) @ t=0.38
-0.5411325412486812
% es.tEy (V/m) @ t=0.38
0
% es.tEz (V/m) @ t=0.38
-0.4828794022689591
% V (V) @ t=0.38
0.007692545814825545
% es.normE (V/m) @ t=0.4
0.7630071751578488
% es.EX (V/m) @ t=0.4
-0.5462459819568132
% es.EY (V/m) @ t=0.4
0.20801428568372415
% es.EZ (V/m) @ t=0.4
-0.48744237752725716
% es.tEX (V/m) @ t=0.4
-0.5462459819568122
% es.tEY (V/m) @ t=0.4
0
% es.tEZ (V/m) @ t=0.4
-0.4874423775272625
% es.Ex (V/m) @ t=0.4
-0.5462459819568132
% es.Ey (V/m) @ t=0.4
0.20801428568372415
% es.Ez (V/m) @ t=0.4
-0.48744237752725716
% es.tEx (V/m) @ t=0.4
-0.5462459819568122
% es.tEy (V/m) @ t=0.4
0
% es.tEz (V/m) @ t=0.4
-0.4874423775272625
% V (V) @ t=0.4
0.007765271538215583
% es.normE (V/m) @ t=0.42
0.770148948485172
% es.EX (V/m) @ t=0.42
-0.5513594226649506
% es.EY (V/m) @ t=0.42
0.2099592639037442
% es.EZ (V/m) @ t=0.42
-0.4920053527855526
% es.tEX (V/m) @ t=0.42
-0.5513594226649496
% es.tEY (V/m) @ t=0.42
0
% es.tEZ (V/m) @ t=0.42
-0.4920053527855561
% es.Ex (V/m) @ t=0.42
-0.5513594226649506
% es.Ey (V/m) @ t=0.42
0.2099592639037442
% es.Ez (V/m) @ t=0.42
-0.4920053527855526
% es.tEx (V/m) @ t=0.42
-0.5513594226649496
% es.tEy (V/m) @ t=0.42
0
% es.tEz (V/m) @ t=0.42
-0.4920053527855561
% V (V) @ t=0.42
0.007837997261605622
% es.normE (V/m) @ t=0.44
0.777290721824893
% es.EX (V/m) @ t=0.44
-0.5564728633730937
% es.EY (V/m) @ t=0.44
0.211904242123772
% es.EZ (V/m) @ t=0.44
-0.4965683280438391
% es.tEX (V/m) @ t=0.44
-0.5564728633730922
% es.tEY (V/m) @ t=0.44
0
% es.tEZ (V/m) @ t=0.44
-0.49656832804384266
% es.Ex (V/m) @ t=0.44
-0.5564728633730937
% es.Ey (V/m) @ t=0.44
0.211904242123772
% es.Ez (V/m) @ t=0.44
-0.4965683280438391
% es.tEx (V/m) @ t=0.44
-0.5564728633730922
% es.tEy (V/m) @ t=0.44
0
% es.tEz (V/m) @ t=0.44
-0.49656832804384266
% V (V) @ t=0.44
0.007910722984995658
% es.normE (V/m) @ t=0.46
0.784432495176675
% es.EX (V/m) @ t=0.46
-0.5615863040812338
% es.EY (V/m) @ t=0.46
0.21384922034380538
% es.EZ (V/m) @ t=0.46
-0.501131303302131
% es.tEX (V/m) @ t=0.46
-0.561586304081231
% es.tEY (V/m) @ t=0.46
0
% es.tEZ (V/m) @ t=0.46
-0.5011313033021283
% es.Ex (V/m) @ t=0.46
-0.5615863040812338
% es.Ey (V/m) @ t=0.46
0.21384922034380538
% es.Ez (V/m) @ t=0.46
-0.501131303302131
% es.tEx (V/m) @ t=0.46
-0.561586304081231
% es.tEy (V/m) @ t=0.46
0
% es.tEz (V/m) @ t=0.46
-0.5011313033021283
% V (V) @ t=0.46
0.007983448708385696
% es.normE (V/m) @ t=0.48
0.791574268540178
% es.EX (V/m) @ t=0.48
-0.566699744789365
% es.EY (V/m) @ t=0.48
0.215794198563805
% es.EZ (V/m) @ t=0.48
-0.5056942785604299
% es.tEX (V/m) @ t=0.48
-0.566699744789362
% es.tEY (V/m) @ t=0.48
0
% es.tEZ (V/m) @ t=0.48
-0.5056942785604353
% es.Ex (V/m) @ t=0.48
-0.566699744789365
% es.Ey (V/m) @ t=0.48
0.215794198563805
% es.Ez (V/m) @ t=0.48
-0.5056942785604299
% es.tEx (V/m) @ t=0.48
-0.566699744789362
% es.tEy (V/m) @ t=0.48
0
% es.tEz (V/m) @ t=0.48
-0.5056942785604353
% V (V) @ t=0.48
0.008056174431775736
% es.normE (V/m) @ t=0.5
0.7987160419151155
% es.EX (V/m) @ t=0.5
-0.571813185497508
% es.EY (V/m) @ t=0.5
0.21773917678383192
% es.EZ (V/m) @ t=0.5
-0.5102572538187315
% es.tEX (V/m) @ t=0.5
-0.5718131854975079
% es.tEY (V/m) @ t=0.5
0
% es.tEZ (V/m) @ t=0.5
-0.5102572538187262
% es.Ex (V/m) @ t=0.5
-0.571813185497508
% es.Ey (V/m) @ t=0.5
0.21773917678383192
% es.Ez (V/m) @ t=0.5
-0.5102572538187315
% es.tEx (V/m) @ t=0.5
-0.5718131854975079
% es.tEy (V/m) @ t=0.5
0
% es.tEz (V/m) @ t=0.5
-0.5102572538187262
% V (V) @ t=0.5
0.008128900155165776
% es.normE (V/m) @ t=0.52
0.8058578153011521
% es.EX (V/m) @ t=0.52
-0.5769266262056445
% es.EY (V/m) @ t=0.52
0.21968415500386373
% es.EZ (V/m) @ t=0.52
-0.5148202290770163
% es.tEX (V/m) @ t=0.52
-0.5769266262056452
% es.tEY (V/m) @ t=0.52
0
% es.tEZ (V/m) @ t=0.52
-0.5148202290770261
% es.Ex (V/m) @ t=0.52
-0.5769266262056445
% es.Ey (V/m) @ t=0.52
0.21968415500386373
% es.Ez (V/m) @ t=0.52
-0.5148202290770163
% es.tEx (V/m) @ t=0.52
-0.5769266262056452
% es.tEy (V/m) @ t=0.52
0
% es.tEz (V/m) @ t=0.52
-0.5148202290770261
% V (V) @ t=0.52
0.008201625878555814
% es.normE (V/m) @ t=0.54
0.8129995886980101
% es.EX (V/m) @ t=0.54
-0.5820400669137781
% es.EY (V/m) @ t=0.54
0.22162913322387334
% es.EZ (V/m) @ t=0.54
-0.5193832043353144
% es.tEX (V/m) @ t=0.54
-0.5820400669137764
% es.tEY (V/m) @ t=0.54
0
% es.tEZ (V/m) @ t=0.54
-0.519383204335317
% es.Ex (V/m) @ t=0.54
-0.5820400669137781
% es.Ey (V/m) @ t=0.54
0.22162913322387334
% es.Ez (V/m) @ t=0.54
-0.5193832043353144
% es.tEx (V/m) @ t=0.54
-0.5820400669137764
% es.tEy (V/m) @ t=0.54
0
% es.tEz (V/m) @ t=0.54
-0.519383204335317
% V (V) @ t=0.54
0.00827435160194585
% es.normE (V/m) @ t=0.56
0.820752430227806
% es.EX (V/m) @ t=0.56
-0.587590065818628
% es.EY (V/m) @ t=0.56
0.2237440358522249
% es.EZ (V/m) @ t=0.56
-0.5243357444533716
% es.tEX (V/m) @ t=0.56
-0.5875900658186235
% es.tEY (V/m) @ t=0.56
0
% es.tEZ (V/m) @ t=0.56
-0.5243357444533672
% es.Ex (V/m) @ t=0.56
-0.587590065818628
% es.Ey (V/m) @ t=0.56
0.2237440358522249
% es.Ez (V/m) @ t=0.56
-0.5243357444533716
% es.tEx (V/m) @ t=0.56
-0.5875900658186235
% es.tEy (V/m) @ t=0.56
0
% es.tEz (V/m) @ t=0.56
-0.5243357444533672
% V (V) @ t=0.56
0.008353226925146803
% es.normE (V/m) @ t=0.58
0.8287211176601085
% es.EX (V/m) @ t=0.58
-0.593294268954848
% es.EY (V/m) @ t=0.58
0.22591896040429105
% es.EZ (V/m) @ t=0.58
-0.5294258894778006
% es.tEX (V/m) @ t=0.58
-0.5932942689548488
% es.tEY (V/m) @ t=0.58
0
% es.tEZ (V/m) @ t=0.58
-0.529425889477797
% es.Ex (V/m) @ t=0.58
-0.593294268954848
% es.Ey (V/m) @ t=0.58
0.22591896040429105
% es.Ez (V/m) @ t=0.58
-0.5294258894778006
% es.tEx (V/m) @ t=0.58
-0.5932942689548488
% es.tEy (V/m) @ t=0.58
0
% es.tEz (V/m) @ t=0.58
-0.529425889477797
% V (V) @ t=0.58
0.0084342744542973
% es.normE (V/m) @ t=0.6
0.8366898051109625
% es.EX (V/m) @ t=0.6
-0.5989984720910796
% es.EY (V/m) @ t=0.6
0.22809388495634364
% es.EZ (V/m) @ t=0.6
-0.5345160345022206
% es.tEX (V/m) @ t=0.6
-0.5989984720910808
% es.tEY (V/m) @ t=0.6
0
% es.tEZ (V/m) @ t=0.6
-0.534516034502218
% es.Ex (V/m) @ t=0.6
-0.5989984720910796
% es.Ey (V/m) @ t=0.6
0.22809388495634364
% es.Ez (V/m) @ t=0.6
-0.5345160345022206
% es.tEx (V/m) @ t=0.6
-0.5989984720910808
% es.tEy (V/m) @ t=0.6
0
% es.tEz (V/m) @ t=0.6
-0.534516034502218
% V (V) @ t=0.6
0.008515321983447798
% es.normE (V/m) @ t=0.62
0.8446584925798488
% es.EX (V/m) @ t=0.62
-0.6047026752273151
% es.EY (V/m) @ t=0.62
0.23026880950840645
% es.EZ (V/m) @ t=0.62
-0.5396061795266354
% es.tEX (V/m) @ t=0.62
-0.6047026752273137
% es.tEY (V/m) @ t=0.62
0
% es.tEZ (V/m) @ t=0.62
-0.5396061795266398
% es.Ex (V/m) @ t=0.62
-0.6047026752273151
% es.Ey (V/m) @ t=0.62
0.23026880950840645
% es.Ez (V/m) @ t=0.62
-0.5396061795266354
% es.tEx (V/m) @ t=0.62
-0.6047026752273137
% es.tEy (V/m) @ t=0.62
0
% es.tEz (V/m) @ t=0.62
-0.5396061795266398
% V (V) @ t=0.62
0.008596369512598295
% es.normE (V/m) @ t=0.64
0.8526271800662546
% es.EX (V/m) @ t=0.64
-0.6104068783635366
% es.EY (V/m) @ t=0.64
0.23244373406047036
% es.EZ (V/m) @ t=0.64
-0.5446963245510581
% es.tEX (V/m) @ t=0.64
-0.610406878363535
% es.tEY (V/m) @ t=0.64
0
% es.tEZ (V/m) @ t=0.64
-0.5446963245510617
% es.Ex (V/m) @ t=0.64
-0.6104068783635366
% es.Ey (V/m) @ t=0.64
0.23244373406047036
% es.Ez (V/m) @ t=0.64
-0.5446963245510581
% es.tEx (V/m) @ t=0.64
-0.610406878363535
% es.tEy (V/m) @ t=0.64
0
% es.tEz (V/m) @ t=0.64
-0.5446963245510617
% V (V) @ t=0.64
0.008677417041748792
% es.normE (V/m) @ t=0.66
0.8605958675696943
% es.EX (V/m) @ t=0.66
-0.616111081499765
% es.EY (V/m) @ t=0.66
0.23461865861252962
% es.EZ (V/m) @ t=0.66
-0.5497864695754715
% es.tEX (V/m) @ t=0.66
-0.6161110814997608
% es.tEY (V/m) @ t=0.66
0
% es.tEZ (V/m) @ t=0.66
-0.5497864695754728
% es.Ex (V/m) @ t=0.66
-0.616111081499765
% es.Ey (V/m) @ t=0.66
0.23461865861252962
% es.Ez (V/m) @ t=0.66
-0.5497864695754715
% es.tEx (V/m) @ t=0.66
-0.6161110814997608
% es.tEy (V/m) @ t=0.66
0
% es.tEz (V/m) @ t=0.66
-0.5497864695754728
% V (V) @ t=0.66
0.008758464570899288
% es.normE (V/m) @ t=0.68
0.8685645550897021
% es.EX (V/m) @ t=0.68
-0.6218152846359872
% es.EY (V/m) @ t=0.68
0.2367935831645871
% es.EZ (V/m) @ t=0.68
-0.5548766145998929
% es.tEX (V/m) @ t=0.68
-0.6218152846359879
% es.tEY (V/m) @ t=0.68
0
% es.tEZ (V/m) @ t=0.68
-0.554876614599892
% es.Ex (V/m) @ t=0.68
-0.6218152846359872
% es.Ey (V/m) @ t=0.68
0.2367935831645871
% es.Ez (V/m) @ t=0.68
-0.5548766145998929
% es.tEx (V/m) @ t=0.68
-0.6218152846359879
% es.tEy (V/m) @ t=0.68
0
% es.tEz (V/m) @ t=0.68
-0.554876614599892
% V (V) @ t=0.68
0.008839512100049787
% es.normE (V/m) @ t=0.7
0.8765332426258382
% es.EX (V/m) @ t=0.7
-0.627519487772222
% es.EY (V/m) @ t=0.7
0.23896850771664746
% es.EZ (V/m) @ t=0.7
-0.5599667596243179
% es.tEX (V/m) @ t=0.7
-0.6275194877722239
% es.tEY (V/m) @ t=0.7
0
% es.tEZ (V/m) @ t=0.7
-0.5599667596243174
% es.Ex (V/m) @ t=0.7
-0.627519487772222
% es.Ey (V/m) @ t=0.7
0.23896850771664746
% es.Ez (V/m) @ t=0.7
-0.5599667596243179
% es.tEx (V/m) @ t=0.7
-0.6275194877722239
% es.tEy (V/m) @ t=0.7
0
% es.tEz (V/m) @ t=0.7
-0.5599667596243174
% V (V) @ t=0.7
0.008920559629200285
% es.normE (V/m) @ t=0.72
0.8845019301776482
% es.EX (V/m) @ t=0.72
-0.6332236909084535
% es.EY (V/m) @ t=0.72
0.24114343226870605
% es.EZ (V/m) @ t=0.72
-0.5650569046487384
% es.tEX (V/m) @ t=0.72
-0.6332236909084561
% es.tEY (V/m) @ t=0.72
0
% es.tEZ (V/m) @ t=0.72
-0.5650569046487375
% es.Ex (V/m) @ t=0.72
-0.6332236909084535
% es.Ey (V/m) @ t=0.72
0.24114343226870605
% es.Ez (V/m) @ t=0.72
-0.5650569046487384
% es.tEx (V/m) @ t=0.72
-0.6332236909084561
% es.tEy (V/m) @ t=0.72
0
% es.tEz (V/m) @ t=0.72
-0.5650569046487375
% V (V) @ t=0.72
0.009001607158350779
% es.normE (V/m) @ t=0.74
0.8924706177447128
% es.EX (V/m) @ t=0.74
-0.6389278940446718
% es.EY (V/m) @ t=0.74
0.24331835682077574
% es.EZ (V/m) @ t=0.74
-0.5701470496731575
% es.tEX (V/m) @ t=0.74
-0.6389278940446745
% es.tEY (V/m) @ t=0.74
0
% es.tEZ (V/m) @ t=0.74
-0.5701470496731611
% es.Ex (V/m) @ t=0.74
-0.6389278940446718
% es.Ey (V/m) @ t=0.74
0.24331835682077574
% es.Ez (V/m) @ t=0.74
-0.5701470496731575
% es.tEx (V/m) @ t=0.74
-0.6389278940446745
% es.tEy (V/m) @ t=0.74
0
% es.tEz (V/m) @ t=0.74
-0.5701470496731611
% V (V) @ t=0.74
0.009082654687501279
% es.normE (V/m) @ t=0.76
0.900439305326636
% es.EX (V/m) @ t=0.76
-0.644632097180906
% es.EY (V/m) @ t=0.76
0.245493281372839
% es.EZ (V/m) @ t=0.76
-0.575237194697571
% es.tEX (V/m) @ t=0.76
-0.6446320971809032
% es.tEY (V/m) @ t=0.76
0
% es.tEZ (V/m) @ t=0.76
-0.575237194697575
% es.Ex (V/m) @ t=0.76
-0.644632097180906
% es.Ey (V/m) @ t=0.76
0.245493281372839
% es.Ez (V/m) @ t=0.76
-0.575237194697571
% es.tEx (V/m) @ t=0.76
-0.6446320971809032
% es.tEy (V/m) @ t=0.76
0
% es.tEz (V/m) @ t=0.76
-0.575237194697575
% V (V) @ t=0.76
0.009163702216651774
% es.normE (V/m) @ t=0.78
0.9084079929230238
% es.EX (V/m) @ t=0.78
-0.6503363003171335
% es.EY (V/m) @ t=0.78
0.2476682059248947
% es.EZ (V/m) @ t=0.78
-0.5803273397219919
% es.tEX (V/m) @ t=0.78
-0.6503363003171285
% es.tEY (V/m) @ t=0.78
0
% es.tEZ (V/m) @ t=0.78
-0.5803273397219968
% es.Ex (V/m) @ t=0.78
-0.6503363003171335
% es.Ey (V/m) @ t=0.78
0.2476682059248947
% es.Ez (V/m) @ t=0.78
-0.5803273397219919
% es.tEx (V/m) @ t=0.78
-0.6503363003171285
% es.tEy (V/m) @ t=0.78
0
% es.tEz (V/m) @ t=0.78
-0.5803273397219968
% V (V) @ t=0.78
0.00924474974580227
% es.normE (V/m) @ t=0.8
0.9163766805334967
% es.EX (V/m) @ t=0.8
-0.6560405034533621
% es.EY (V/m) @ t=0.8
0.24984313047694973
% es.EZ (V/m) @ t=0.8
-0.5854174847464142
% es.tEX (V/m) @ t=0.8
-0.6560405034533612
% es.tEY (V/m) @ t=0.8
0
% es.tEZ (V/m) @ t=0.8
-0.5854174847464115
% es.Ex (V/m) @ t=0.8
-0.6560405034533621
% es.Ey (V/m) @ t=0.8
0.24984313047694973
% es.Ez (V/m) @ t=0.8
-0.5854174847464142
% es.tEx (V/m) @ t=0.8
-0.6560405034533612
% es.tEy (V/m) @ t=0.8
0
% es.tEz (V/m) @ t=0.8
-0.5854174847464115
% V (V) @ t=0.8
0.009325797274952767
% es.normE (V/m) @ t=0.82
0.9244524263367697
% es.EX (V/m) @ t=0.82
-0.6618214073438733
% es.EY (V/m) @ t=0.82
0.25204703543807816
% es.EZ (V/m) @ t=0.82
-0.5905760734904946
% es.tEX (V/m) @ t=0.82
-0.6618214073438731
% es.tEY (V/m) @ t=0.82
0
% es.tEZ (V/m) @ t=0.82
-0.5905760734904906
% es.Ex (V/m) @ t=0.82
-0.6618214073438733
% es.Ey (V/m) @ t=0.82
0.25204703543807816
% es.Ez (V/m) @ t=0.82
-0.5905760734904946
% es.tEx (V/m) @ t=0.82
-0.6618214073438731
% es.tEy (V/m) @ t=0.82
0
% es.tEz (V/m) @ t=0.82
-0.5905760734904906
% V (V) @ t=0.82
0.009407938648917393
% es.normE (V/m) @ t=0.84
0.933364764180965
% es.EX (V/m) @ t=0.84
-0.6682016791727956
% es.EY (V/m) @ t=0.84
0.2544774039874893
% es.EZ (V/m) @ t=0.84
-0.5962695066638681
% es.tEX (V/m) @ t=0.84
-0.6682016791727903
% es.tEY (V/m) @ t=0.84
0
% es.tEZ (V/m) @ t=0.84
-0.5962695066638721
% es.Ex (V/m) @ t=0.84
-0.6682016791727956
% es.Ey (V/m) @ t=0.84
0.2544774039874893
% es.Ez (V/m) @ t=0.84
-0.5962695066638681
% es.tEx (V/m) @ t=0.84
-0.6682016791727903
% es.tEy (V/m) @ t=0.84
0
% es.tEz (V/m) @ t=0.84
-0.5962695066638721
% V (V) @ t=0.84
0.00949862772905915
% es.normE (V/m) @ t=0.86
0.9422771020256852
% es.EX (V/m) @ t=0.86
-0.6745819510017264
% es.EY (V/m) @ t=0.86
0.2569077725368998
% es.EZ (V/m) @ t=0.86
-0.6019629398372173
% es.tEX (V/m) @ t=0.86
-0.6745819510017235
% es.tEY (V/m) @ t=0.86
0
% es.tEZ (V/m) @ t=0.86
-0.6019629398372244
% es.Ex (V/m) @ t=0.86
-0.6745819510017264
% es.Ey (V/m) @ t=0.86
0.2569077725368998
% es.Ez (V/m) @ t=0.86
-0.6019629398372173
% es.tEx (V/m) @ t=0.86
-0.6745819510017235
% es.tEy (V/m) @ t=0.86
0
% es.tEz (V/m) @ t=0.86
-0.6019629398372244
% V (V) @ t=0.86
0.009589316809200908
% es.normE (V/m) @ t=0.88
0.9511894398709205
% es.EX (V/m) @ t=0.88
-0.6809622228306427
% es.EY (V/m) @ t=0.88
0.25933814108629805
% es.EZ (V/m) @ t=0.88
-0.6076563730105824
% es.tEX (V/m) @ t=0.88
-0.6809622228306433
% es.tEY (V/m) @ t=0.88
0
% es.tEZ (V/m) @ t=0.88
-0.6076563730105855
% es.Ex (V/m) @ t=0.88
-0.6809622228306427
% es.Ey (V/m) @ t=0.88
0.25933814108629805
% es.Ez (V/m) @ t=0.88
-0.6076563730105824
% es.tEx (V/m) @ t=0.88
-0.6809622228306433
% es.tEy (V/m) @ t=0.88
0
% es.tEz (V/m) @ t=0.88
-0.6076563730105855
% V (V) @ t=0.88
0.009680005889342667
% es.normE (V/m) @ t=0.9
0.9601017777166738
% es.EX (V/m) @ t=0.9
-0.6873424946595663
% es.EY (V/m) @ t=0.9
0.26176850963572185
% es.EZ (V/m) @ t=0.9
-0.6133498061839462
% es.tEX (V/m) @ t=0.9
-0.6873424946595654
% es.tEY (V/m) @ t=0.9
0
% es.tEZ (V/m) @ t=0.9
-0.613349806183952
% es.Ex (V/m) @ t=0.9
-0.6873424946595663
% es.Ey (V/m) @ t=0.9
0.26176850963572185
% es.Ez (V/m) @ t=0.9
-0.6133498061839462
% es.tEx (V/m) @ t=0.9
-0.6873424946595654
% es.tEy (V/m) @ t=0.9
0
% es.tEz (V/m) @ t=0.9
-0.613349806183952
% V (V) @ t=0.9
0.009770694969484427
% es.normE (V/m) @ t=0.92
0.9690141155629137
% es.EX (V/m) @ t=0.92
-0.6937227664884922
% es.EY (V/m) @ t=0.92
0.26419887818511256
% es.EZ (V/m) @ t=0.92
-0.6190432393573162
% es.tEX (V/m) @ t=0.92
-0.693722766488488
% es.tEY (V/m) @ t=0.92
0
% es.tEZ (V/m) @ t=0.92
-0.6190432393573122
% es.Ex (V/m) @ t=0.92
-0.6937227664884922
% es.Ey (V/m) @ t=0.92
0.26419887818511256
% es.Ez (V/m) @ t=0.92
-0.6190432393573162
% es.tEx (V/m) @ t=0.92
-0.693722766488488
% es.tEy (V/m) @ t=0.92
0
% es.tEz (V/m) @ t=0.92
-0.6190432393573122
% V (V) @ t=0.92
0.009861384049626186
% es.normE (V/m) @ t=0.94
0.9779264534096328
% es.EX (V/m) @ t=0.94
-0.7001030383174149
% es.EY (V/m) @ t=0.94
0.2666292467345266
% es.EZ (V/m) @ t=0.94
-0.6247366725306813
% es.tEX (V/m) @ t=0.94
-0.7001030383174132
% es.tEY (V/m) @ t=0.94
0
% es.tEZ (V/m) @ t=0.94
-0.6247366725306849
% es.Ex (V/m) @ t=0.94
-0.7001030383174149
% es.Ey (V/m) @ t=0.94
0.2666292467345266
% es.Ez (V/m) @ t=0.94
-0.6247366725306813
% es.tEx (V/m) @ t=0.94
-0.7001030383174132
% es.tEy (V/m) @ t=0.94
0
% es.tEz (V/m) @ t=0.94
-0.6247366725306849
% V (V) @ t=0.94
0.009952073129767943
% es.normE (V/m) @ t=0.96
0.9868387912568128
% es.EX (V/m) @ t=0.96
-0.7064833101463361
% es.EY (V/m) @ t=0.96
0.2690596152839404
% es.EZ (V/m) @ t=0.96
-0.6304301057040425
% es.tEX (V/m) @ t=0.96
-0.706483310146333
% es.tEY (V/m) @ t=0.96
0
% es.tEZ (V/m) @ t=0.96
-0.6304301057040451
% es.Ex (V/m) @ t=0.96
-0.7064833101463361
% es.Ey (V/m) @ t=0.96
0.2690596152839404
% es.Ez (V/m) @ t=0.96
-0.6304301057040425
% es.tEx (V/m) @ t=0.96
-0.706483310146333
% es.tEy (V/m) @ t=0.96
0
% es.tEz (V/m) @ t=0.96
-0.6304301057040451
% V (V) @ t=0.96
0.010042762209909703
% es.normE (V/m) @ t=0.98
0.9957511291044389
% es.EX (V/m) @ t=0.98
-0.7128635819752513
% es.EY (V/m) @ t=0.98
0.27148998383334355
% es.EZ (V/m) @ t=0.98
-0.6361235388774062
% es.tEX (V/m) @ t=0.98
-0.7128635819752556
% es.tEY (V/m) @ t=0.98
0
% es.tEZ (V/m) @ t=0.98
-0.6361235388774134
% es.Ex (V/m) @ t=0.98
-0.7128635819752513
% es.Ey (V/m) @ t=0.98
0.27148998383334355
% es.Ez (V/m) @ t=0.98
-0.6361235388774062
% es.tEx (V/m) @ t=0.98
-0.7128635819752556
% es.tEy (V/m) @ t=0.98
0
% es.tEz (V/m) @ t=0.98
-0.6361235388774134
% V (V) @ t=0.98
0.010133451290051462
% es.normE (V/m) @ t=1
1.0046634669525125
% es.EX (V/m) @ t=1
-0.7192438538041865
% es.EY (V/m) @ t=1
0.27392035238273715
% es.EZ (V/m) @ t=1
-0.641816972050762
% es.tEX (V/m) @ t=1
-0.7192438538041848
% es.tEY (V/m) @ t=1
0
% es.tEZ (V/m) @ t=1
-0.6418169720507638
% es.Ex (V/m) @ t=1
-0.7192438538041865
% es.Ey (V/m) @ t=1
0.27392035238273715
% es.Ez (V/m) @ t=1
-0.641816972050762
% es.tEx (V/m) @ t=1
-0.7192438538041848
% es.tEy (V/m) @ t=1
0
% es.tEz (V/m) @ t=1
-0.6418169720507638
% V (V) @ t=1
0.01022414037019322
% es.normE (V/m) @ t=1.02
1.0135758048010126
% es.EX (V/m) @ t=1.02
-0.7256241256331053
% es.EY (V/m) @ t=1.02
0.27635072093214985
% es.EZ (V/m) @ t=1.02
-0.6475104052241258
% es.tEX (V/m) @ t=1.02
-0.7256241256331042
% es.tEY (V/m) @ t=1.02
0
% es.tEZ (V/m) @ t=1.02
-0.6475104052241321
% es.Ex (V/m) @ t=1.02
-0.7256241256331053
% es.Ey (V/m) @ t=1.02
0.27635072093214985
% es.Ez (V/m) @ t=1.02
-0.6475104052241258
% es.tEx (V/m) @ t=1.02
-0.7256241256331042
% es.tEy (V/m) @ t=1.02
0