% Model:              1 neuron.mph
% Version:            COMSOL 6.0.0.405
% Date:               Mar 16 2023, 17:17
% Dimension:          0
% Nodes:              14017
% Expressions:        14017
% Description:        Electric field norm, Electric field, X component, Electric field, Y component, Electric field, Z component, Tangential electric field, X component, Tangential electric field, Y component, Tangential electric field, Z component, Electric field, x component, Electric field, y component, Electric field, z component, Tangential electric field, x component, Tangential electric field, y component, Tangential electric field, z component, Electric potential
% Length unit:        mm
% x
1.66
% y
12.200000000000001
% z
1.66
% es.normE (V/m) @ t=0
20.651799959702682
% es.EX (V/m) @ t=0
-9.752970747847812
% es.EY (V/m) @ t=0
7.82489975947048
% es.EZ (V/m) @ t=0
9.38013436399163
% es.tEX (V/m) @ t=0
-9.752970747847797
% es.tEY (V/m) @ t=0
0
% es.tEZ (V/m) @ t=0
9.38013436399163
% es.Ex (V/m) @ t=0
-9.752970747847812
% es.Ey (V/m) @ t=0
7.82489975947048
% es.Ez (V/m) @ t=0
9.38013436399163
% es.tEx (V/m) @ t=0
-9.752970747847797
% es.tEy (V/m) @ t=0
0
% es.tEz (V/m) @ t=0
9.38013436399163
% V (V) @ t=0
0.006481478256481319
% es.normE (V/m) @ t=0.02
17.837360674651357
% es.EX (V/m) @ t=0.02
-8.423830364943477
% es.EY (V/m) @ t=0.02
6.758517900203266
% es.EZ (V/m) @ t=0.02
8.101804094871554
% es.tEX (V/m) @ t=0.02
-8.423830364943484
% es.tEY (V/m) @ t=0.02
0
% es.tEZ (V/m) @ t=0.02
8.10180409487154
% es.Ex (V/m) @ t=0.02
-8.423830364943477
% es.Ey (V/m) @ t=0.02
6.758517900203266
% es.Ez (V/m) @ t=0.02
8.101804094871554
% es.tEx (V/m) @ t=0.02
-8.423830364943484
% es.tEy (V/m) @ t=0.02
0
% es.tEz (V/m) @ t=0.02
8.10180409487154
% V (V) @ t=0.02
0.005598178620820433
% es.normE (V/m) @ t=0.04
18.00143842627599
% es.EX (V/m) @ t=0.04
-8.501317421715967
% es.EY (V/m) @ t=0.04
6.82068643953005
% es.EZ (V/m) @ t=0.04
8.176328828487271
% es.tEX (V/m) @ t=0.04
-8.501317421715953
% es.tEY (V/m) @ t=0.04
0
% es.tEZ (V/m) @ t=0.04
8.176328828487271
% es.Ex (V/m) @ t=0.04
-8.501317421715967
% es.Ey (V/m) @ t=0.04
6.82068643953005
% es.Ez (V/m) @ t=0.04
8.176328828487271
% es.tEx (V/m) @ t=0.04
-8.501317421715953
% es.tEy (V/m) @ t=0.04
0
% es.tEz (V/m) @ t=0.04
8.176328828487271
% V (V) @ t=0.04
0.005649673704444431
% es.normE (V/m) @ t=0.06
18.166985628384808
% es.EX (V/m) @ t=0.06
-8.579498234164014
% es.EY (V/m) @ t=0.06
6.883411715241451
% es.EZ (V/m) @ t=0.06
8.251521169821967
% es.tEX (V/m) @ t=0.06
-8.57949823416402
% es.tEY (V/m) @ t=0.06
0
% es.tEZ (V/m) @ t=0.06
8.251521169821956
% es.Ex (V/m) @ t=0.06
-8.579498234164014
% es.Ey (V/m) @ t=0.06
6.883411715241451
% es.Ez (V/m) @ t=0.06
8.251521169821967
% es.tEx (V/m) @ t=0.06
-8.57949823416402
% es.tEy (V/m) @ t=0.06
0
% es.tEz (V/m) @ t=0.06
8.251521169821956
% V (V) @ t=0.06
0.005701629994517511
% es.normE (V/m) @ t=0.08
18.335084982879998
% es.EX (V/m) @ t=0.08
-8.65888442149641
% es.EY (V/m) @ t=0.08
6.9471040098985455
% es.EZ (V/m) @ t=0.08
8.327872621272238
% es.tEX (V/m) @ t=0.08
-8.658884421496396
% es.tEY (V/m) @ t=0.08
0
% es.tEZ (V/m) @ t=0.08
8.327872621272235
% es.Ex (V/m) @ t=0.08
-8.65888442149641
% es.Ey (V/m) @ t=0.08
6.9471040098985455
% es.Ez (V/m) @ t=0.08
8.327872621272238
% es.tEx (V/m) @ t=0.08
-8.658884421496396
% es.tEy (V/m) @ t=0.08
0
% es.tEz (V/m) @ t=0.08
8.327872621272235
% V (V) @ t=0.08
0.005754387253822231
% es.normE (V/m) @ t=0.1
18.50490477410723
% es.EX (V/m) @ t=0.1
-8.73908316658909
% es.EY (V/m) @ t=0.1
7.011448183700278
% es.EZ (V/m) @ t=0.1
8.405005442843713
% es.tEX (V/m) @ t=0.1
-8.739083166589065
% es.tEY (V/m) @ t=0.1
0
% es.tEZ (V/m) @ t=0.1
8.40500544284373
% es.Ex (V/m) @ t=0.1
-8.73908316658909
% es.Ey (V/m) @ t=0.1
7.011448183700278
% es.Ez (V/m) @ t=0.1
8.405005442843713
% es.tEx (V/m) @ t=0.1
-8.739083166589065
% es.tEy (V/m) @ t=0.1
0
% es.tEz (V/m) @ t=0.1
8.40500544284373
% V (V) @ t=0.1
0.0058076844561549355
% es.normE (V/m) @ t=0.12
18.67472456533444
% es.EX (V/m) @ t=0.12
-8.819281911681742
% es.EY (V/m) @ t=0.12
7.075792357502042
% es.EZ (V/m) @ t=0.12
8.482138264415152
% es.tEX (V/m) @ t=0.12
-8.819281911681738
% es.tEY (V/m) @ t=0.12
0
% es.tEZ (V/m) @ t=0.12
8.482138264415141
% es.Ex (V/m) @ t=0.12
-8.819281911681742
% es.Ey (V/m) @ t=0.12
7.075792357502042
% es.Ez (V/m) @ t=0.12
8.482138264415152
% es.tEx (V/m) @ t=0.12
-8.819281911681738
% es.tEy (V/m) @ t=0.12
0
% es.tEz (V/m) @ t=0.12
8.482138264415141
% V (V) @ t=0.12
0.005860981658487639
% es.normE (V/m) @ t=0.14
18.84639448778896
% es.EX (V/m) @ t=0.14
-8.900354367449808
% es.EY (V/m) @ t=0.14
7.140837535392837
% es.EZ (V/m) @ t=0.14
8.560111447681845
% es.tEX (V/m) @ t=0.14
-8.900354367449783
% es.tEY (V/m) @ t=0.14
0
% es.tEZ (V/m) @ t=0.14
8.560111447681862
% es.Ex (V/m) @ t=0.14
-8.900354367449808
% es.Ey (V/m) @ t=0.14
7.140837535392837
% es.Ez (V/m) @ t=0.14
8.560111447681845
% es.tEx (V/m) @ t=0.14
-8.900354367449783
% es.tEy (V/m) @ t=0.14
0
% es.tEz (V/m) @ t=0.14
8.560111447681862
% V (V) @ t=0.14
0.005914859520063286
% es.normE (V/m) @ t=0.16
19.02525683056638
% es.EX (V/m) @ t=0.16
-8.98482339008038
% es.EY (V/m) @ t=0.16
7.208607880008135
% es.EZ (V/m) @ t=0.16
8.641351553016676
% es.tEX (V/m) @ t=0.16
-8.984823390080383
% es.tEY (V/m) @ t=0.16
0
% es.tEZ (V/m) @ t=0.16
8.641351553016676
% es.Ex (V/m) @ t=0.16
-8.98482339008038
% es.Ey (V/m) @ t=0.16
7.208607880008135
% es.Ez (V/m) @ t=0.16
8.641351553016676
% es.tEx (V/m) @ t=0.16
-8.984823390080383
% es.tEy (V/m) @ t=0.16
0
% es.tEz (V/m) @ t=0.16
8.641351553016676
% V (V) @ t=0.16
0.005970994705486003
% es.normE (V/m) @ t=0.18
19.204119173343813
% es.EX (V/m) @ t=0.18
-9.069292412710993
% es.EY (V/m) @ t=0.18
7.276378224623404
% es.EZ (V/m) @ t=0.18
8.722591658351558
% es.tEX (V/m) @ t=0.18
-9.069292412711004
% es.tEY (V/m) @ t=0.18
0
% es.tEZ (V/m) @ t=0.18
8.722591658351575
% es.Ex (V/m) @ t=0.18
-9.069292412710993
% es.Ey (V/m) @ t=0.18
7.276378224623404
% es.Ez (V/m) @ t=0.18
8.722591658351558
% es.tEx (V/m) @ t=0.18
-9.069292412711004
% es.tEy (V/m) @ t=0.18
0
% es.tEz (V/m) @ t=0.18
8.722591658351575
% V (V) @ t=0.18
0.0060271298909087235
% es.normE (V/m) @ t=0.2
19.382981516121212
% es.EX (V/m) @ t=0.2
-9.153761435341572
% es.EY (V/m) @ t=0.2
7.344148569238698
% es.EZ (V/m) @ t=0.2
8.803831763686357
% es.tEX (V/m) @ t=0.2
-9.153761435341558
% es.tEY (V/m) @ t=0.2
0
% es.tEZ (V/m) @ t=0.2
8.803831763686361
% es.Ex (V/m) @ t=0.2
-9.153761435341572
% es.Ey (V/m) @ t=0.2
7.344148569238698
% es.Ez (V/m) @ t=0.2
8.803831763686357
% es.tEx (V/m) @ t=0.2
-9.153761435341558
% es.tEy (V/m) @ t=0.2
0
% es.tEz (V/m) @ t=0.2
8.803831763686361
% V (V) @ t=0.2
0.006083265076331442
% es.normE (V/m) @ t=0.22
19.561843858898687
% es.EX (V/m) @ t=0.22
-9.238230457972172
% es.EY (V/m) @ t=0.22
7.411918913853967
% es.EZ (V/m) @ t=0.22
8.885071869021253
% es.tEX (V/m) @ t=0.22
-9.238230457972183
% es.tEY (V/m) @ t=0.22
0
% es.tEZ (V/m) @ t=0.22
8.88507186902126
% es.Ex (V/m) @ t=0.22
-9.238230457972172
% es.Ey (V/m) @ t=0.22
7.411918913853967
% es.Ez (V/m) @ t=0.22
8.885071869021253
% es.tEx (V/m) @ t=0.22
-9.238230457972183
% es.tEy (V/m) @ t=0.22
0
% es.tEz (V/m) @ t=0.22
8.88507186902126
% V (V) @ t=0.22
0.006139400261754161
% es.normE (V/m) @ t=0.24
19.740706201676147
% es.EX (V/m) @ t=0.24
-9.3226994806028
% es.EY (V/m) @ t=0.24
7.479689258469271
% es.EZ (V/m) @ t=0.24
8.966311974356124
% es.tEX (V/m) @ t=0.24
-9.32269948060279
% es.tEY (V/m) @ t=0.24
0
% es.tEZ (V/m) @ t=0.24
8.966311974356131
% es.Ex (V/m) @ t=0.24
-9.3226994806028
% es.Ey (V/m) @ t=0.24
7.479689258469271
% es.Ez (V/m) @ t=0.24
8.966311974356124
% es.tEx (V/m) @ t=0.24
-9.32269948060279
% es.tEy (V/m) @ t=0.24
0
% es.tEz (V/m) @ t=0.24
8.966311974356131
% V (V) @ t=0.24
0.006195535447176879
% es.normE (V/m) @ t=0.26
19.919568544453575
% es.EX (V/m) @ t=0.26
-9.4071685032334
% es.EY (V/m) @ t=0.26
7.547459603084565
% es.EZ (V/m) @ t=0.26
9.047552079690952
% es.tEX (V/m) @ t=0.26
-9.407168503233386
% es.tEY (V/m) @ t=0.26
0
% es.tEZ (V/m) @ t=0.26
9.047552079690945
% es.Ex (V/m) @ t=0.26
-9.4071685032334
% es.Ey (V/m) @ t=0.26
7.547459603084565
% es.Ez (V/m) @ t=0.26
9.047552079690952
% es.tEx (V/m) @ t=0.26
-9.407168503233386
% es.tEy (V/m) @ t=0.26
0
% es.tEz (V/m) @ t=0.26
9.047552079690945
% V (V) @ t=0.26
0.006251670632599599
% es.normE (V/m) @ t=0.28
20.10691515990389
% es.EX (V/m) @ t=0.28
-9.495650748614715
% es.EY (V/m) @ t=0.28
7.618445676231303
% es.EZ (V/m) @ t=0.28
9.132640129755234
% es.tEX (V/m) @ t=0.28
-9.49565074861474
% es.tEY (V/m) @ t=0.28
0
% es.tEZ (V/m) @ t=0.28
9.13264012975523
% es.Ex (V/m) @ t=0.28
-9.495650748614715
% es.Ey (V/m) @ t=0.28
7.618445676231303
% es.Ez (V/m) @ t=0.28
9.132640129755234
% es.tEx (V/m) @ t=0.28
-9.49565074861474
% es.tEy (V/m) @ t=0.28
0
% es.tEz (V/m) @ t=0.28
9.13264012975523
% V (V) @ t=0.28
0.006310467773411284
% es.normE (V/m) @ t=0.3
20.306019348683556
% es.EX (V/m) @ t=0.3
-9.589694550364307
% es.EY (V/m) @ t=0.3
7.693888131842552
% es.EZ (V/m) @ t=0.3
9.223060692576489
% es.tEX (V/m) @ t=0.3
-9.589694550364307
% es.tEY (V/m) @ t=0.3
0
% es.tEZ (V/m) @ t=0.3
9.223060692576468
% es.Ex (V/m) @ t=0.3
-9.589694550364307
% es.Ey (V/m) @ t=0.3
7.693888131842552
% es.Ez (V/m) @ t=0.3
9.223060692576489
% es.tEx (V/m) @ t=0.3
-9.589694550364307
% es.tEy (V/m) @ t=0.3
0
% es.tEz (V/m) @ t=0.3
9.223060692576468
% V (V) @ t=0.3
0.006372953873412378
% es.normE (V/m) @ t=0.32
20.50512353748549
% es.EX (V/m) @ t=0.32
-9.683738352113942
% es.EY (V/m) @ t=0.32
7.769330587453762
% es.EZ (V/m) @ t=0.32
9.31348125539774
% es.tEX (V/m) @ t=0.32
-9.683738352113927
% es.tEY (V/m) @ t=0.32
0
% es.tEZ (V/m) @ t=0.32
9.313481255397733
% es.Ex (V/m) @ t=0.32
-9.683738352113942
% es.Ey (V/m) @ t=0.32
7.769330587453762
% es.Ez (V/m) @ t=0.32
9.31348125539774
% es.tEx (V/m) @ t=0.32
-9.683738352113927
% es.tEy (V/m) @ t=0.32
0
% es.tEz (V/m) @ t=0.32
9.313481255397733
% V (V) @ t=0.32
0.006435439973413471
% es.normE (V/m) @ t=0.34
20.704227726309036
% es.EX (V/m) @ t=0.34
-9.777782153863534
% es.EY (V/m) @ t=0.34
7.844773043065061
% es.EZ (V/m) @ t=0.34
9.403901818219008
% es.tEX (V/m) @ t=0.34
-9.77778215386353
% es.tEY (V/m) @ t=0.34
0
% es.tEZ (V/m) @ t=0.34
9.403901818219026
% es.Ex (V/m) @ t=0.34
-9.777782153863534
% es.Ey (V/m) @ t=0.34
7.844773043065061
% es.Ez (V/m) @ t=0.34
9.403901818219008
% es.tEx (V/m) @ t=0.34
-9.77778215386353
% es.tEy (V/m) @ t=0.34
0
% es.tEz (V/m) @ t=0.34
9.403901818219026
% V (V) @ t=0.34
0.0064979260734145654
% es.normE (V/m) @ t=0.36
20.90333191515359
% es.EX (V/m) @ t=0.36
-9.871825955613176
% es.EY (V/m) @ t=0.36
7.920215498676313
% es.EZ (V/m) @ t=0.36
9.494322381040284
% es.tEX (V/m) @ t=0.36
-9.871825955613154
% es.tEY (V/m) @ t=0.36
0
% es.tEZ (V/m) @ t=0.36
9.494322381040291
% es.Ex (V/m) @ t=0.36
-9.871825955613176
% es.Ey (V/m) @ t=0.36
7.920215498676313
% es.Ez (V/m) @ t=0.36
9.494322381040284
% es.tEx (V/m) @ t=0.36
-9.871825955613154
% es.tEy (V/m) @ t=0.36
0
% es.tEz (V/m) @ t=0.36
9.494322381040291
% V (V) @ t=0.36
0.006560412173415658
% es.normE (V/m) @ t=0.38
21.1024361040185
% es.EX (V/m) @ t=0.38
-9.965869757362746
% es.EY (V/m) @ t=0.38
7.995657954287562
% es.EZ (V/m) @ t=0.38
9.584742943861567
% es.tEX (V/m) @ t=0.38
-9.965869757362768
% es.tEY (V/m) @ t=0.38
0
% es.tEZ (V/m) @ t=0.38
9.584742943861556
% es.Ex (V/m) @ t=0.38
-9.965869757362746
% es.Ey (V/m) @ t=0.38
7.995657954287562
% es.Ez (V/m) @ t=0.38
9.584742943861567
% es.tEx (V/m) @ t=0.38
-9.965869757362768
% es.tEy (V/m) @ t=0.38
0
% es.tEz (V/m) @ t=0.38
9.584742943861556
% V (V) @ t=0.38
0.006622898273416753
% es.normE (V/m) @ t=0.4
21.301540292903198
% es.EX (V/m) @ t=0.4
-10.059913559112367
% es.EY (V/m) @ t=0.4
8.0711004098988
% es.EZ (V/m) @ t=0.4
9.675163506682772
% es.tEX (V/m) @ t=0.4
-10.059913559112363
% es.tEY (V/m) @ t=0.4
0
% es.tEZ (V/m) @ t=0.4
9.675163506682765
% es.Ex (V/m) @ t=0.4
-10.059913559112367
% es.Ey (V/m) @ t=0.4
8.0711004098988
% es.Ez (V/m) @ t=0.4
9.675163506682772
% es.tEx (V/m) @ t=0.4
-10.059913559112363
% es.tEy (V/m) @ t=0.4
0
% es.tEz (V/m) @ t=0.4
9.675163506682765
% V (V) @ t=0.4
0.006685384373417846
% es.normE (V/m) @ t=0.42
21.50064448180722
% es.EX (V/m) @ t=0.42
-10.153957360861945
% es.EY (V/m) @ t=0.42
8.146542865510106
% es.EZ (V/m) @ t=0.42
9.765584069504069
% es.tEX (V/m) @ t=0.42
-10.153957360861973
% es.tEY (V/m) @ t=0.42
0
% es.tEZ (V/m) @ t=0.42
9.765584069504058
% es.Ex (V/m) @ t=0.42
-10.153957360861945
% es.Ey (V/m) @ t=0.42
8.146542865510106
% es.Ez (V/m) @ t=0.42
9.765584069504069
% es.tEx (V/m) @ t=0.42
-10.153957360861973
% es.tEy (V/m) @ t=0.42
0
% es.tEz (V/m) @ t=0.42
9.765584069504058
% V (V) @ t=0.42
0.006747870473418941
% es.normE (V/m) @ t=0.44
21.699748670729974
% es.EX (V/m) @ t=0.44
-10.248001162611573
% es.EY (V/m) @ t=0.44
8.221985321121345
% es.EZ (V/m) @ t=0.44
9.85600463232532
% es.tEX (V/m) @ t=0.44
-10.248001162611573
% es.tEY (V/m) @ t=0.44
0
% es.tEZ (V/m) @ t=0.44
9.856004632325295
% es.Ex (V/m) @ t=0.44
-10.248001162611573
% es.Ey (V/m) @ t=0.44
8.221985321121345
% es.Ez (V/m) @ t=0.44
9.85600463232532
% es.tEx (V/m) @ t=0.44
-10.248001162611573
% es.tEy (V/m) @ t=0.44
0
% es.tEz (V/m) @ t=0.44
9.856004632325295
% V (V) @ t=0.44
0.0068103565734200355
% es.normE (V/m) @ t=0.46
21.898852859670978
% es.EX (V/m) @ t=0.46
-10.342044964361186
% es.EY (V/m) @ t=0.46
8.297427776732633
% es.EZ (V/m) @ t=0.46
9.946425195146599
% es.tEX (V/m) @ t=0.46
-10.342044964361168
% es.tEY (V/m) @ t=0.46
0
% es.tEZ (V/m) @ t=0.46
9.946425195146588
% es.Ex (V/m) @ t=0.46
-10.342044964361186
% es.Ey (V/m) @ t=0.46
8.297427776732633
% es.Ez (V/m) @ t=0.46
9.946425195146599
% es.tEx (V/m) @ t=0.46
-10.342044964361168
% es.tEy (V/m) @ t=0.46
0
% es.tEz (V/m) @ t=0.46
9.946425195146588
% V (V) @ t=0.46
0.006872842673421128
% es.normE (V/m) @ t=0.48
22.097957048629663
% es.EX (V/m) @ t=0.48
-10.4360887661108
% es.EY (V/m) @ t=0.48
8.372870232343864
% es.EZ (V/m) @ t=0.48
10.036845757967836
% es.tEX (V/m) @ t=0.48
-10.436088766110792
% es.tEY (V/m) @ t=0.48
0
% es.tEZ (V/m) @ t=0.48
10.036845757967825
% es.Ex (V/m) @ t=0.48
-10.4360887661108
% es.Ey (V/m) @ t=0.48
8.372870232343864
% es.Ez (V/m) @ t=0.48
10.036845757967836
% es.tEx (V/m) @ t=0.48
-10.436088766110792
% es.tEy (V/m) @ t=0.48
0
% es.tEz (V/m) @ t=0.48
10.036845757967825
% V (V) @ t=0.48
0.006935328773422223
% es.normE (V/m) @ t=0.5
22.29706123760561
% es.EX (V/m) @ t=0.5
-10.530132567860427
% es.EY (V/m) @ t=0.5
8.448312687955099
% es.EZ (V/m) @ t=0.5
10.1272663207891
% es.tEX (V/m) @ t=0.5
-10.53013256786042
% es.tEY (V/m) @ t=0.5
0
% es.tEZ (V/m) @ t=0.5
10.12726632078909
% es.Ex (V/m) @ t=0.5
-10.530132567860427
% es.Ey (V/m) @ t=0.5
8.448312687955099
% es.Ez (V/m) @ t=0.5
10.1272663207891
% es.tEx (V/m) @ t=0.5
-10.53013256786042
% es.tEy (V/m) @ t=0.5
0
% es.tEz (V/m) @ t=0.5
10.12726632078909
% V (V) @ t=0.5
0.006997814873423316
% es.normE (V/m) @ t=0.52
22.496165426598413
% es.EX (V/m) @ t=0.52
-10.624176369610034
% es.EY (V/m) @ t=0.52
8.523755143566387
% es.EZ (V/m) @ t=0.52
10.217686883610394
% es.tEX (V/m) @ t=0.52
-10.62417636961003
% es.tEY (V/m) @ t=0.52
0
% es.tEZ (V/m) @ t=0.52
10.217686883610384
% es.Ex (V/m) @ t=0.52
-10.624176369610034
% es.Ey (V/m) @ t=0.52
8.523755143566387
% es.Ez (V/m) @ t=0.52
10.217686883610394
% es.tEx (V/m) @ t=0.52
-10.62417636961003
% es.tEy (V/m) @ t=0.52
0
% es.tEz (V/m) @ t=0.52
10.217686883610384
% V (V) @ t=0.52
0.007060300973424411
% es.normE (V/m) @ t=0.54
22.69526961560748
% es.EX (V/m) @ t=0.54
-10.718220171359626
% es.EY (V/m) @ t=0.54
8.59919759917761
% es.EZ (V/m) @ t=0.54
10.308107446431602
% es.tEX (V/m) @ t=0.54
-10.718220171359604
% es.tEY (V/m) @ t=0.54
0
% es.tEZ (V/m) @ t=0.54
10.308107446431592
% es.Ex (V/m) @ t=0.54
-10.718220171359626
% es.Ey (V/m) @ t=0.54
8.59919759917761
% es.Ez (V/m) @ t=0.54
10.308107446431602
% es.tEx (V/m) @ t=0.54
-10.718220171359604
% es.tEy (V/m) @ t=0.54
0
% es.tEz (V/m) @ t=0.54
10.308107446431592
% V (V) @ t=0.54
0.007122787073425504
% es.normE (V/m) @ t=0.56
22.914127975133034
% es.EX (V/m) @ t=0.56
-10.821558026191475
% es.EY (V/m) @ t=0.56
8.68211907247705
% es.EZ (V/m) @ t=0.56
10.407530999041345
% es.tEX (V/m) @ t=0.56
-10.821558026191468
% es.tEY (V/m) @ t=0.56
0
% es.tEZ (V/m) @ t=0.56
10.40753099904137
% es.Ex (V/m) @ t=0.56
-10.821558026191475
% es.Ey (V/m) @ t=0.56
8.68211907247705
% es.Ez (V/m) @ t=0.56
10.407530999041345
% es.tEx (V/m) @ t=0.56
-10.821558026191468
% es.tEy (V/m) @ t=0.56
0
% es.tEz (V/m) @ t=0.56
10.40753099904137
% V (V) @ t=0.56
0.007191477282346496
% es.normE (V/m) @ t=0.58
23.13652085888857
% es.EX (V/m) @ t=0.58
-10.926558823804605
% es.EY (V/m) @ t=0.58
8.766378732503632
% es.EZ (V/m) @ t=0.58
10.508565415796784
% es.tEX (V/m) @ t=0.58
-10.926558823804609
% es.tEY (V/m) @ t=0.58
0
% es.tEZ (V/m) @ t=0.58
10.508565415796795
% es.Ex (V/m) @ t=0.58
-10.926558823804605
% es.Ey (V/m) @ t=0.58
8.766378732503632
% es.Ez (V/m) @ t=0.58
10.508565415796784
% es.tEx (V/m) @ t=0.58
-10.926558823804609
% es.tEy (V/m) @ t=0.58
0
% es.tEz (V/m) @ t=0.58
10.508565415796795
% V (V) @ t=0.58
0.007261277564348776
% es.normE (V/m) @ t=0.6
23.358913742708584
% es.EX (V/m) @ t=0.6
-11.03155962141777
% es.EY (V/m) @ t=0.6
8.850638392530211
% es.EZ (V/m) @ t=0.6
10.609599832552245
% es.tEX (V/m) @ t=0.6
-11.031559621417752
% es.tEY (V/m) @ t=0.6
0
% es.tEZ (V/m) @ t=0.6
10.60959983255222
% es.Ex (V/m) @ t=0.6
-11.03155962141777
% es.Ey (V/m) @ t=0.6
8.850638392530211
% es.Ez (V/m) @ t=0.6
10.609599832552245
% es.tEx (V/m) @ t=0.6
-11.031559621417752
% es.tEy (V/m) @ t=0.6
0
% es.tEz (V/m) @ t=0.6
10.60959983255222
% V (V) @ t=0.6
0.007331077846351059
% es.normE (V/m) @ t=0.62
23.581306626591235
% es.EX (V/m) @ t=0.62
-11.136560419030928
% es.EY (V/m) @ t=0.62
8.934898052556779
% es.EZ (V/m) @ t=0.62
10.710634249307724
% es.tEX (V/m) @ t=0.62
-11.136560419030904
% es.tEY (V/m) @ t=0.62
0
% es.tEZ (V/m) @ t=0.62
10.71063424930773
% es.Ex (V/m) @ t=0.62
-11.136560419030928
% es.Ey (V/m) @ t=0.62
8.934898052556779
% es.Ez (V/m) @ t=0.62
10.710634249307724
% es.tEx (V/m) @ t=0.62
-11.136560419030904
% es.tEy (V/m) @ t=0.62
0
% es.tEz (V/m) @ t=0.62
10.71063424930773
% V (V) @ t=0.62
0.007400878128353338
% es.normE (V/m) @ t=0.64
23.803699510534706
% es.EX (V/m) @ t=0.64
-11.24156121664403
% es.EY (V/m) @ t=0.64
9.019157712583333
% es.EZ (V/m) @ t=0.64
10.811668666063206
% es.tEX (V/m) @ t=0.64
-11.241561216644019
% es.tEY (V/m) @ t=0.64
0
% es.tEZ (V/m) @ t=0.64
10.811668666063213
% es.Ex (V/m) @ t=0.64
-11.24156121664403
% es.Ey (V/m) @ t=0.64
9.019157712583333
% es.Ez (V/m) @ t=0.64
10.811668666063206
% es.tEx (V/m) @ t=0.64
-11.241561216644019
% es.tEy (V/m) @ t=0.64
0
% es.tEz (V/m) @ t=0.64
10.811668666063213
% V (V) @ t=0.64
0.007470678410355619
% es.normE (V/m) @ t=0.66
24.026092394537365
% es.EX (V/m) @ t=0.66
-11.346562014257167
% es.EY (V/m) @ t=0.66
9.103417372609922
% es.EZ (V/m) @ t=0.66
10.91270308281861
% es.tEX (V/m) @ t=0.66
-11.34656201425717
% es.tEY (V/m) @ t=0.66
0
% es.tEZ (V/m) @ t=0.66
10.912703082818638
% es.Ex (V/m) @ t=0.66
-11.346562014257167
% es.Ey (V/m) @ t=0.66
9.103417372609922
% es.Ez (V/m) @ t=0.66
10.91270308281861
% es.tEx (V/m) @ t=0.66
-11.34656201425717
% es.tEy (V/m) @ t=0.66
0
% es.tEz (V/m) @ t=0.66
10.912703082818638
% V (V) @ t=0.66
0.007540478692357901
% es.normE (V/m) @ t=0.68
24.248485278597627
% es.EX (V/m) @ t=0.68
-11.45156281187031
% es.EY (V/m) @ t=0.68
9.187677032636447
% es.EZ (V/m) @ t=0.68
11.013737499574145
% es.tEX (V/m) @ t=0.68
-11.45156281187031
% es.tEY (V/m) @ t=0.68
0
% es.tEZ (V/m) @ t=0.68
11.013737499574148
% es.Ex (V/m) @ t=0.68
-11.45156281187031
% es.Ey (V/m) @ t=0.68
9.187677032636447
% es.Ez (V/m) @ t=0.68
11.013737499574145
% es.tEx (V/m) @ t=0.68
-11.45156281187031
% es.tEy (V/m) @ t=0.68
0
% es.tEz (V/m) @ t=0.68
11.013737499574148
% V (V) @ t=0.68
0.007610278974360182
% es.normE (V/m) @ t=0.7
24.470878162713866
% es.EX (V/m) @ t=0.7
-11.556563609483455
% es.EY (V/m) @ t=0.7
9.271936692663044
% es.EZ (V/m) @ t=0.7
11.114771916329584
% es.tEX (V/m) @ t=0.7
-11.556563609483447
% es.tEY (V/m) @ t=0.7
0
% es.tEZ (V/m) @ t=0.7
11.114771916329573
% es.Ex (V/m) @ t=0.7
-11.556563609483455
% es.Ey (V/m) @ t=0.7
9.271936692663044
% es.Ez (V/m) @ t=0.7
11.114771916329584
% es.tEx (V/m) @ t=0.7
-11.556563609483447
% es.tEy (V/m) @ t=0.7
0
% es.tEz (V/m) @ t=0.7
11.114771916329573
% V (V) @ t=0.7
0.007680079256362463
% es.normE (V/m) @ t=0.72
24.693271046884515
% es.EX (V/m) @ t=0.72
-11.661564407096542
% es.EY (V/m) @ t=0.72
9.3561963526896
% es.EZ (V/m) @ t=0.72
11.21580633308502
% es.tEX (V/m) @ t=0.72
-11.661564407096538
% es.tEY (V/m) @ t=0.72
0
% es.tEZ (V/m) @ t=0.72
11.215806333085027
% es.Ex (V/m) @ t=0.72
-11.661564407096542
% es.Ey (V/m) @ t=0.72
9.3561963526896
% es.Ez (V/m) @ t=0.72
11.21580633308502
% es.tEx (V/m) @ t=0.72
-11.661564407096538
% es.tEy (V/m) @ t=0.72
0
% es.tEz (V/m) @ t=0.72
11.215806333085027
% V (V) @ t=0.72
0.007749879538364744
% es.normE (V/m) @ t=0.74
24.915663931108234
% es.EX (V/m) @ t=0.74
-11.766565204709728
% es.EY (V/m) @ t=0.74
9.440456012716176
% es.EZ (V/m) @ t=0.74
11.316840749840495
% es.tEX (V/m) @ t=0.74
-11.766565204709735
% es.tEY (V/m) @ t=0.74
0
% es.tEZ (V/m) @ t=0.74
11.316840749840509
% es.Ex (V/m) @ t=0.74
-11.766565204709728
% es.Ey (V/m) @ t=0.74
9.440456012716176
% es.Ez (V/m) @ t=0.74
11.316840749840495
% es.tEx (V/m) @ t=0.74
-11.766565204709735
% es.tEy (V/m) @ t=0.74
0
% es.tEz (V/m) @ t=0.74
11.316840749840509
% V (V) @ t=0.74
0.007819679820367027
% es.normE (V/m) @ t=0.76
25.13805681538355
% es.EX (V/m) @ t=0.76
-11.87156600232288
% es.EY (V/m) @ t=0.76
9.524715672742744
% es.EZ (V/m) @ t=0.76
11.417875166595945
% es.tEX (V/m) @ t=0.76
-11.871566002322865
% es.tEY (V/m) @ t=0.76
0
% es.tEZ (V/m) @ t=0.76
11.417875166595934
% es.Ex (V/m) @ t=0.76
-11.87156600232288
% es.Ey (V/m) @ t=0.76
9.524715672742744
% es.Ez (V/m) @ t=0.76
11.417875166595945
% es.tEx (V/m) @ t=0.76
-11.871566002322865
% es.tEy (V/m) @ t=0.76
0
% es.tEz (V/m) @ t=0.76
11.417875166595934
% V (V) @ t=0.76
0.007889480102369307
% es.normE (V/m) @ t=0.78
25.360449699709108
% es.EX (V/m) @ t=0.78
-11.976566799936023
% es.EY (V/m) @ t=0.78
9.608975332769287
% es.EZ (V/m) @ t=0.78
11.51890958335142
% es.tEX (V/m) @ t=0.78
-11.97656679993603
% es.tEY (V/m) @ t=0.78
0
% es.tEZ (V/m) @ t=0.78
11.518909583351416
% es.Ex (V/m) @ t=0.78
-11.976566799936023
% es.Ey (V/m) @ t=0.78
9.608975332769287
% es.Ez (V/m) @ t=0.78
11.51890958335142
% es.tEx (V/m) @ t=0.78
-11.97656679993603
% es.tEy (V/m) @ t=0.78
0
% es.tEz (V/m) @ t=0.78
11.518909583351416
% V (V) @ t=0.78
0.00795928038437159
% es.normE (V/m) @ t=0.8
25.582842584083664
% es.EX (V/m) @ t=0.8
-12.081567597549167
% es.EY (V/m) @ t=0.8
9.693234992795897
% es.EZ (V/m) @ t=0.8
11.619944000106901
% es.tEX (V/m) @ t=0.8
-12.08156759754915
% es.tEY (V/m) @ t=0.8
0
% es.tEZ (V/m) @ t=0.8
11.619944000106898
% es.Ex (V/m) @ t=0.8
-12.081567597549167
% es.Ey (V/m) @ t=0.8
9.693234992795897
% es.Ez (V/m) @ t=0.8
11.619944000106901
% es.tEx (V/m) @ t=0.8
-12.08156759754915
% es.tEy (V/m) @ t=0.8
0
% es.tEz (V/m) @ t=0.8
11.619944000106898
% V (V) @ t=0.8
0.008029080666373868
% es.normE (V/m) @ t=0.82
25.81243392664205
% es.EX (V/m) @ t=0.82
-12.189976960980687
% es.EY (V/m) @ t=0.82
9.780223616627463
% es.EZ (V/m) @ t=0.82
11.72424011234747
% es.tEX (V/m) @ t=0.82
-12.189976960980683
% es.tEY (V/m) @ t=0.82
0
% es.tEZ (V/m) @ t=0.82
11.724240112347474
% es.Ex (V/m) @ t=0.82
-12.189976960980687
% es.Ey (V/m) @ t=0.82
9.780223616627463
% es.Ez (V/m) @ t=0.82
11.72424011234747
% es.tEx (V/m) @ t=0.82
-12.189976960980683
% es.tEy (V/m) @ t=0.82
0
% es.tEz (V/m) @ t=0.82
11.724240112347474
% V (V) @ t=0.82
0.008101139018608792
% es.normE (V/m) @ t=0.84
26.06078451680851
% es.EX (V/m) @ t=0.84
-12.307269078037734
% es.EY (V/m) @ t=0.84
9.87432394503639
% es.EZ (V/m) @ t=0.84
11.837036232784737
% es.tEX (V/m) @ t=0.84
-12.307269078037741
% es.tEY (V/m) @ t=0.84
0
% es.tEZ (V/m) @ t=0.84
11.837036232784726
% es.Ex (V/m) @ t=0.84
-12.307269078037734
% es.Ey (V/m) @ t=0.84
9.87432394503639
% es.Ez (V/m) @ t=0.84
11.837036232784737
% es.tEx (V/m) @ t=0.84
-12.307269078037741
% es.tEy (V/m) @ t=0.84
0
% es.tEz (V/m) @ t=0.84
11.837036232784726
% V (V) @ t=0.84
0.008179081922474532
% es.normE (V/m) @ t=0.86
26.30913510697973
% es.EX (V/m) @ t=0.86
-12.424561195094725
% es.EY (V/m) @ t=0.86
9.968424273445269
% es.EZ (V/m) @ t=0.86
11.949832353221993
% es.tEX (V/m) @ t=0.86
-12.424561195094725
% es.tEY (V/m) @ t=0.86
0
% es.tEZ (V/m) @ t=0.86
11.949832353222007
% es.Ex (V/m) @ t=0.86
-12.424561195094725
% es.Ey (V/m) @ t=0.86
9.968424273445269
% es.Ez (V/m) @ t=0.86
11.949832353221993
% es.tEx (V/m) @ t=0.86
-12.424561195094725
% es.tEy (V/m) @ t=0.86
0
% es.tEz (V/m) @ t=0.86
11.949832353222007
% V (V) @ t=0.86
0.008257024826340274
% es.normE (V/m) @ t=0.88
26.55748569715559
% es.EX (V/m) @ t=0.88
-12.541853312151744
% es.EY (V/m) @ t=0.88
10.062524601854157
% es.EZ (V/m) @ t=0.88
12.062628473659242
% es.tEX (V/m) @ t=0.88
-12.541853312151765
% es.tEY (V/m) @ t=0.88
0
% es.tEZ (V/m) @ t=0.88
12.062628473659231
% es.Ex (V/m) @ t=0.88
-12.541853312151744
% es.Ey (V/m) @ t=0.88
10.062524601854157
% es.Ez (V/m) @ t=0.88
12.062628473659242
% es.tEx (V/m) @ t=0.88
-12.541853312151765
% es.tEy (V/m) @ t=0.88
0
% es.tEz (V/m) @ t=0.88
12.062628473659231
% V (V) @ t=0.88
0.008334967730206016
% es.normE (V/m) @ t=0.9
26.805836287335993
% es.EX (V/m) @ t=0.9
-12.659145429208778
% es.EY (V/m) @ t=0.9
10.15662493026312
% es.EZ (V/m) @ t=0.9
12.17542459409653
% es.tEX (V/m) @ t=0.9
-12.659145429208785
% es.tEY (V/m) @ t=0.9
0
% es.tEZ (V/m) @ t=0.9
12.17542459409654
% es.Ex (V/m) @ t=0.9
-12.659145429208778
% es.Ey (V/m) @ t=0.9
10.15662493026312
% es.Ez (V/m) @ t=0.9
12.17542459409653
% es.tEx (V/m) @ t=0.9
-12.659145429208785
% es.tEy (V/m) @ t=0.9
0
% es.tEz (V/m) @ t=0.9
12.17542459409654
% V (V) @ t=0.9
0.008412910634071758
% es.normE (V/m) @ t=0.92
27.054186877520717
% es.EX (V/m) @ t=0.92
-12.776437546265804
% es.EY (V/m) @ t=0.92
10.250725258672002
% es.EZ (V/m) @ t=0.92
12.288220714533779
% es.tEX (V/m) @ t=0.92
-12.776437546265797
% es.tEY (V/m) @ t=0.92
0
% es.tEZ (V/m) @ t=0.92
12.288220714533765
% es.Ex (V/m) @ t=0.92
-12.776437546265804
% es.Ey (V/m) @ t=0.92
10.250725258672002
% es.Ez (V/m) @ t=0.92
12.288220714533779
% es.tEx (V/m) @ t=0.92
-12.776437546265797
% es.tEy (V/m) @ t=0.92
0
% es.tEz (V/m) @ t=0.92
12.288220714533765
% V (V) @ t=0.92
0.0084908535379375
% es.normE (V/m) @ t=0.94
27.30253746770966
% es.EX (V/m) @ t=0.94
-12.893729663322766
% es.EY (V/m) @ t=0.94
10.34482558708088
% es.EZ (V/m) @ t=0.94
12.401016834971035
% es.tEX (V/m) @ t=0.94
-12.89372966332278
% es.tEY (V/m) @ t=0.94
0
% es.tEZ (V/m) @ t=0.94
12.401016834971017
% es.Ex (V/m) @ t=0.94
-12.893729663322766
% es.Ey (V/m) @ t=0.94
10.34482558708088
% es.Ez (V/m) @ t=0.94
12.401016834971035
% es.tEx (V/m) @ t=0.94
-12.89372966332278
% es.tEy (V/m) @ t=0.94
0
% es.tEz (V/m) @ t=0.94
12.401016834971017
% V (V) @ t=0.94
0.008568796441803242
% es.normE (V/m) @ t=0.96
27.55088805790284
% es.EX (V/m) @ t=0.96
-13.011021780379828
% es.EY (V/m) @ t=0.96
10.438925915489833
% es.EZ (V/m) @ t=0.96
12.513812955408316
% es.tEX (V/m) @ t=0.96
-13.011021780379835
% es.tEY (V/m) @ t=0.96
0
% es.tEZ (V/m) @ t=0.96
12.513812955408326
% es.Ex (V/m) @ t=0.96
-13.011021780379828
% es.Ey (V/m) @ t=0.96
10.438925915489833
% es.Ez (V/m) @ t=0.96
12.513812955408316
% es.tEx (V/m) @ t=0.96
-13.011021780379835
% es.tEy (V/m) @ t=0.96
0
% es.tEz (V/m) @ t=0.96
12.513812955408326
% V (V) @ t=0.96
0.008646739345668984
% es.normE (V/m) @ t=0.98
27.799238648099948
% es.EX (V/m) @ t=0.98
-13.128313897436811
% es.EY (V/m) @ t=0.98
10.533026243898735
% es.EZ (V/m) @ t=0.98
12.626609075845543
% es.tEX (V/m) @ t=0.98
-13.128313897436804
% es.tEY (V/m) @ t=0.98
0
% es.tEZ (V/m) @ t=0.98
12.62660907584555
% es.Ex (V/m) @ t=0.98
-13.128313897436811
% es.Ey (V/m) @ t=0.98
10.533026243898735
% es.Ez (V/m) @ t=0.98
12.626609075845543
% es.tEx (V/m) @ t=0.98
-13.128313897436804
% es.tEy (V/m) @ t=0.98
0
% es.tEz (V/m) @ t=0.98
12.62660907584555
% V (V) @ t=0.98
0.008724682249534724
% es.normE (V/m) @ t=1
28.047589238301068
% es.EX (V/m) @ t=1
-13.245606014493838
% es.EY (V/m) @ t=1
10.627126572307684
% es.EZ (V/m) @ t=1
12.739405196282828
% es.tEX (V/m) @ t=1
-13.245606014493816
% es.tEY (V/m) @ t=1
0
% es.tEZ (V/m) @ t=1
12.739405196282831
% es.Ex (V/m) @ t=1
-13.245606014493838
% es.Ey (V/m) @ t=1
10.627126572307684
% es.Ez (V/m) @ t=1
12.739405196282828
% es.tEx (V/m) @ t=1
-13.245606014493816
% es.tEy (V/m) @ t=1
0
% es.tEz (V/m) @ t=1
12.739405196282831
% V (V) @ t=1
0.008802625153400464
% es.normE (V/m) @ t=1.02
28.29593982850595
% es.EX (V/m) @ t=1.02
-13.36289813155085
% es.EY (V/m) @ t=1.02
10.72122690071659
% es.EZ (V/m) @ t=1.02
12.852201316720077
% es.tEX (V/m) @ t=1.02
-13.36289813155085
% es.tEY (V/m) @ t=1.02
0
% es.tEZ (V/m) @ t=1.02
12.852201316720056
% es.Ex (V/m) @ t=1.02
-13.36289813155085
% es.Ey (V/m) @ t=1.02
10.72122690071659
% es.Ez (V/m) @ t=1.02
12.852201316720077
% es.tEx (V/m) @ t=1.02
-13.36289813155085
% es.tEy (V/m) @ t=1.02
0
% es.tEz (V/m) @ t=1.02
12.852201316720056
% V (V) @ t=1.02
0.008880568057266208
% es.normE (V/m) @ t=1.04
28.544290418714645
% es.EX (V/m) @ t=1.04
-13.480190248607883
% es.EY (V/m) @ t=1.04
10.8153272291255
% es.EZ (V/m) @ t=1.04
12.964997437157404
% es.tEX (V/m) @ t=1.04
-13.480190248607876
% es.tEY (V/m) @ t=1.04
0
% es.tEZ (V/m) @ t=1.04
12.964997437157422
% es.Ex (V/m) @ t=1.04
-13.480190248607883
% es.Ey (V/m) @ t=1.04
10.8153272291255
% es.Ez (V/m) @ t=1.04
12.964997437157404
% es.tEx (V/m) @ t=1.04
-13.480190248607876
% es.tEy (V/m) @ t=1.04
0
% es.tEz (V/m) @ t=1.04
12.964997437157422
% V (V) @ t=1.04
0.008958510961131948
% es.normE (V/m) @ t=1.06