% Model:              1 neuron.mph
% Version:            COMSOL 6.1.0.252
% Date:               Mar 18 2023, 12:46
% Dimension:          0
% Nodes:              14017
% Expressions:        14017
% Description:        Electric field norm, Electric field, X component, Electric field, Y component, Electric field, Z component, Tangential electric field, X component, Tangential electric field, Y component, Tangential electric field, Z component, Electric field, x component, Electric field, y component, Electric field, z component, Tangential electric field, x component, Tangential electric field, y component, Tangential electric field, z component, Electric potential
% Length unit:        mm
% x
1.0000000000000002
% y
12.2
% z
2
% es.normE (V/m) @ t=0
0.6969038252327142
% es.EX (V/m) @ t=0
0.48407363649765955
% es.EY (V/m) @ t=0
0.0724844195649029
% es.EZ (V/m) @ t=0
-0.4833698476307944
% es.tEX (V/m) @ t=0
0.48407363649766055
% es.tEY (V/m) @ t=0
0
% es.tEZ (V/m) @ t=0
-0.4833698476307853
% es.Ex (V/m) @ t=0
0.48407363649765955
% es.Ey (V/m) @ t=0
0.0724844195649029
% es.Ez (V/m) @ t=0
-0.4833698476307944
% es.tEx (V/m) @ t=0
0.48407363649766055
% es.tEy (V/m) @ t=0
0
% es.tEz (V/m) @ t=0
-0.4833698476307853
% V (V) @ t=0
0.007462937855984696
% es.normE (V/m) @ t=0.02
0.601923641278746
% es.EX (V/m) @ t=0.02
0.4180998225352621
% es.EY (V/m) @ t=0.02
0.06260560675265223
% es.EZ (V/m) @ t=0.02
-0.4174919525598626
% es.tEX (V/m) @ t=0.02
0.4180998225352628
% es.tEY (V/m) @ t=0.02
0
% es.tEZ (V/m) @ t=0.02
-0.4174919525598555
% es.Ex (V/m) @ t=0.02
0.4180998225352621
% es.Ey (V/m) @ t=0.02
0.06260560675265223
% es.Ez (V/m) @ t=0.02
-0.4174919525598626
% es.tEx (V/m) @ t=0.02
0.4180998225352628
% es.tEy (V/m) @ t=0.02
0
% es.tEz (V/m) @ t=0.02
-0.4174919525598555
% V (V) @ t=0.02
0.006445822971264107
% es.normE (V/m) @ t=0.04
0.6074605805291058
% es.EX (V/m) @ t=0.04
0.42194581362742667
% es.EY (V/m) @ t=0.04
0.0631815017634805
% es.EZ (V/m) @ t=0.04
-0.42133235254720813
% es.tEX (V/m) @ t=0.04
0.42194581362742656
% es.tEY (V/m) @ t=0.04
0
% es.tEZ (V/m) @ t=0.04
-0.42133235254719903
% es.Ex (V/m) @ t=0.04
0.42194581362742667
% es.Ey (V/m) @ t=0.04
0.0631815017634805
% es.Ez (V/m) @ t=0.04
-0.42133235254720813
% es.tEx (V/m) @ t=0.04
0.42194581362742656
% es.tEy (V/m) @ t=0.04
0
% es.tEz (V/m) @ t=0.04
-0.42133235254719903
% V (V) @ t=0.04
0.0065051163292190965
% es.normE (V/m) @ t=0.06
0.6130481835706902
% es.EX (V/m) @ t=0.06
0.4258269963170733
% es.EY (V/m) @ t=0.06
0.063762665404027
% es.EZ (V/m) @ t=0.06
-0.4252078927745282
% es.tEX (V/m) @ t=0.06
0.425826996317074
% es.tEY (V/m) @ t=0.06
0
% es.tEZ (V/m) @ t=0.06
-0.4252078927745262
% es.Ex (V/m) @ t=0.06
0.4258269963170733
% es.Ey (V/m) @ t=0.06
0.063762665404027
% es.Ez (V/m) @ t=0.06
-0.4252078927745282
% es.tEx (V/m) @ t=0.06
0.425826996317074
% es.tEy (V/m) @ t=0.06
0
% es.tEz (V/m) @ t=0.06
-0.4252078927745262
% V (V) @ t=0.06
0.006564952266011477
% es.normE (V/m) @ t=0.08
0.6187193343106231
% es.EX (V/m) @ t=0.08
0.42976621263567283
% es.EY (V/m) @ t=0.08
0.06435251531578745
% es.EZ (V/m) @ t=0.08
-0.429141381456011
% es.tEX (V/m) @ t=0.08
0.4297662126356734
% es.tEY (V/m) @ t=0.08
0
% es.tEZ (V/m) @ t=0.08
-0.42914138145600367
% es.Ex (V/m) @ t=0.08
0.42976621263567283
% es.Ey (V/m) @ t=0.08
0.06435251531578745
% es.Ez (V/m) @ t=0.08
-0.429141381456011
% es.tEx (V/m) @ t=0.08
0.4297662126356734
% es.tEy (V/m) @ t=0.08
0
% es.tEz (V/m) @ t=0.08
-0.42914138145600367
% V (V) @ t=0.08
0.006625683031532657
% es.normE (V/m) @ t=0.1
0.6244521944708179
% es.EX (V/m) @ t=0.1
0.4337482933499289
% es.EY (V/m) @ t=0.1
0.06494878102081136
% es.EZ (V/m) @ t=0.1
-0.43311767162193626
% es.tEX (V/m) @ t=0.1
0.4337482933499317
% es.tEY (V/m) @ t=0.1
0
% es.tEZ (V/m) @ t=0.1
-0.43311767162192716
% es.Ex (V/m) @ t=0.1
0.4337482933499289
% es.Ey (V/m) @ t=0.1
0.06494878102081136
% es.Ez (V/m) @ t=0.1
-0.43311767162193626
% es.tEx (V/m) @ t=0.1
0.4337482933499317
% es.tEy (V/m) @ t=0.1
0
% es.tEz (V/m) @ t=0.1
-0.43311767162192716
% V (V) @ t=0.1
0.006687074729230116
% es.normE (V/m) @ t=0.12
0.6301850546310122
% es.EX (V/m) @ t=0.12
0.4377303740641848
% es.EY (V/m) @ t=0.12
0.0655450467258433
% es.EZ (V/m) @ t=0.12
-0.4370939617878655
% es.tEX (V/m) @ t=0.12
0.4377303740641856
% es.tEY (V/m) @ t=0.12
0
% es.tEZ (V/m) @ t=0.12
-0.43709396178786175
% es.Ex (V/m) @ t=0.12
0.4377303740641848
% es.Ey (V/m) @ t=0.12
0.0655450467258433
% es.Ez (V/m) @ t=0.12
-0.4370939617878655
% es.tEx (V/m) @ t=0.12
0.4377303740641856
% es.tEy (V/m) @ t=0.12
0
% es.tEz (V/m) @ t=0.12
-0.43709396178786175
% V (V) @ t=0.12
0.006748466426927574
% es.normE (V/m) @ t=0.14
0.635967190066428
% es.EX (V/m) @ t=0.14
0.4417466812684093
% es.EY (V/m) @ t=0.14
0.06614643914195467
% es.EZ (V/m) @ t=0.14
-0.44110442905336633
% es.tEX (V/m) @ t=0.14
0.44174668126841454
% es.tEY (V/m) @ t=0.14
0
% es.tEZ (V/m) @ t=0.14
-0.4411044290533592
% es.Ex (V/m) @ t=0.14
0.4417466812684093
% es.Ey (V/m) @ t=0.14
0.06614643914195467
% es.Ez (V/m) @ t=0.14
-0.44110442905336633
% es.tEx (V/m) @ t=0.14
0.44174668126841454
% es.tEy (V/m) @ t=0.14
0
% es.tEz (V/m) @ t=0.14
-0.4411044290533592
% V (V) @ t=0.14
0.006810385732819042
% es.normE (V/m) @ t=0.16
0.6420073550141621
% es.EX (V/m) @ t=0.16
0.4459422151634157
% es.EY (V/m) @ t=0.16
0.06677467753214977
% es.EZ (V/m) @ t=0.16
-0.44529386437728635
% es.tEX (V/m) @ t=0.16
0.4459422151634165
% es.tEY (V/m) @ t=0.16
0
% es.tEZ (V/m) @ t=0.16
-0.44529386437727725
% es.Ex (V/m) @ t=0.16
0.4459422151634157
% es.Ey (V/m) @ t=0.16
0.06677467753214977
% es.Ez (V/m) @ t=0.16
-0.44529386437728635
% es.tEx (V/m) @ t=0.16
0.4459422151634165
% es.tEy (V/m) @ t=0.16
0
% es.tEz (V/m) @ t=0.16
-0.44529386437727725
% V (V) @ t=0.16
0.006875067854024897
% es.normE (V/m) @ t=0.18
0.6480475199618921
% es.EX (V/m) @ t=0.18
0.4501377490584181
% es.EY (V/m) @ t=0.18
0.06740291592234268
% es.EZ (V/m) @ t=0.18
-0.44948329970120793
% es.tEX (V/m) @ t=0.18
0.4501377490584204
% es.tEY (V/m) @ t=0.18
0
% es.tEZ (V/m) @ t=0.18
-0.4494832997012024
% es.Ex (V/m) @ t=0.18
0.4501377490584181
% es.Ey (V/m) @ t=0.18
0.06740291592234268
% es.Ez (V/m) @ t=0.18
-0.44948329970120793
% es.tEx (V/m) @ t=0.18
0.4501377490584204
% es.tEy (V/m) @ t=0.18
0
% es.tEz (V/m) @ t=0.18
-0.4494832997012024
% V (V) @ t=0.18
0.006939749975230752
% es.normE (V/m) @ t=0.2
0.6540876849096152
% es.EX (V/m) @ t=0.2
0.454333282953416
% es.EY (V/m) @ t=0.2
0.06803115431252571
% es.EZ (V/m) @ t=0.2
-0.4536727350251242
% es.tEX (V/m) @ t=0.2
0.4543332829534228
% es.tEY (V/m) @ t=0.2
0
% es.tEZ (V/m) @ t=0.2
-0.45367273502511685
% es.Ex (V/m) @ t=0.2
0.454333282953416
% es.Ey (V/m) @ t=0.2
0.06803115431252571
% es.Ez (V/m) @ t=0.2
-0.4536727350251242
% es.tEx (V/m) @ t=0.2
0.4543332829534228
% es.tEy (V/m) @ t=0.2
0
% es.tEz (V/m) @ t=0.2
-0.45367273502511685
% V (V) @ t=0.2
0.0070044320964366075
% es.normE (V/m) @ t=0.22
0.6601278498573468
% es.EX (V/m) @ t=0.22
0.4585288168484226
% es.EY (V/m) @ t=0.22
0.06865939270270974
% es.EZ (V/m) @ t=0.22
-0.4578621703490404
% es.tEX (V/m) @ t=0.22
0.4585288168484247
% es.tEY (V/m) @ t=0.22
0
% es.tEZ (V/m) @ t=0.22
-0.4578621703490313
% es.Ex (V/m) @ t=0.22
0.4585288168484226
% es.Ey (V/m) @ t=0.22
0.06865939270270974
% es.Ez (V/m) @ t=0.22
-0.4578621703490404
% es.tEx (V/m) @ t=0.22
0.4585288168484247
% es.tEy (V/m) @ t=0.22
0
% es.tEz (V/m) @ t=0.22
-0.4578621703490313
% V (V) @ t=0.22
0.007069114217642462
% es.normE (V/m) @ t=0.24
0.6661680148050775
% es.EX (V/m) @ t=0.24
0.46272435074342644
% es.EY (V/m) @ t=0.24
0.06928763109290051
% es.EZ (V/m) @ t=0.24
-0.462051605672962
% es.tEX (V/m) @ t=0.24
0.4627243507434269
% es.tEY (V/m) @ t=0.24
0
% es.tEZ (V/m) @ t=0.24
-0.46205160567295644
% es.Ex (V/m) @ t=0.24
0.46272435074342644
% es.Ey (V/m) @ t=0.24
0.06928763109290051
% es.Ez (V/m) @ t=0.24
-0.462051605672962
% es.tEx (V/m) @ t=0.24
0.4627243507434269
% es.tEy (V/m) @ t=0.24
0
% es.tEz (V/m) @ t=0.24
-0.46205160567295644
% V (V) @ t=0.24
0.007133796338848319
% es.normE (V/m) @ t=0.26
0.6722081797528114
% es.EX (V/m) @ t=0.26
0.4669198846384285
% es.EY (V/m) @ t=0.26
0.06991586948309608
% es.EZ (V/m) @ t=0.26
-0.4662410409968871
% es.tEX (V/m) @ t=0.26
0.4669198846384308
% es.tEY (V/m) @ t=0.26
0
% es.tEZ (V/m) @ t=0.26
-0.466241040996878
% es.Ex (V/m) @ t=0.26
0.4669198846384285
% es.Ey (V/m) @ t=0.26
0.06991586948309608
% es.Ez (V/m) @ t=0.26
-0.4662410409968871
% es.tEx (V/m) @ t=0.26
0.4669198846384308
% es.tEy (V/m) @ t=0.26
0
% es.tEz (V/m) @ t=0.26
-0.466241040996878
% V (V) @ t=0.26
0.007198478460054171
% es.normE (V/m) @ t=0.28
0.6784771153441678
% es.EX (V/m) @ t=0.28
0.47127432185642026
% es.EY (V/m) @ t=0.28
0.07056791047255376
% es.EZ (V/m) @ t=0.28
-0.4705891505742652
% es.tEX (V/m) @ t=0.28
0.4712743218564224
% es.tEY (V/m) @ t=0.28
0
% es.tEZ (V/m) @ t=0.28
-0.4705891505742561
% es.Ex (V/m) @ t=0.28
0.47127432185642026
% es.Ey (V/m) @ t=0.28
0.07056791047255376
% es.Ez (V/m) @ t=0.28
-0.4705891505742652
% es.tEx (V/m) @ t=0.28
0.4712743218564224
% es.tEy (V/m) @ t=0.28
0
% es.tEz (V/m) @ t=0.28
-0.4705891505742561
% V (V) @ t=0.28
0.007265610077131483
% es.normE (V/m) @ t=0.3
0.6852090623825469
% es.EX (V/m) @ t=0.3
0.475950365275046
% es.EY (V/m) @ t=0.3
0.07126812580708161
% es.EZ (V/m) @ t=0.3
-0.475258402735917
% es.tEX (V/m) @ t=0.3
0.47595036527505163
% es.tEY (V/m) @ t=0.3
0
% es.tEZ (V/m) @ t=0.3
-0.47525840273591147
% es.Ex (V/m) @ t=0.3
0.475950365275046
% es.Ey (V/m) @ t=0.3
0.07126812580708161
% es.Ez (V/m) @ t=0.3
-0.475258402735917
% es.tEx (V/m) @ t=0.3
0.47595036527505163
% es.tEy (V/m) @ t=0.3
0
% es.tEz (V/m) @ t=0.3
-0.47525840273591147
% V (V) @ t=0.3
0.007337699256114056
% es.normE (V/m) @ t=0.32
0.6919410094209216
% es.EX (V/m) @ t=0.32
0.4806264086936721
% es.EY (V/m) @ t=0.32
0.07196834114161887
% es.EZ (V/m) @ t=0.32
-0.47992765489755773
% es.tEX (V/m) @ t=0.32
0.48062640869367423
% es.tEY (V/m) @ t=0.32
0
% es.tEZ (V/m) @ t=0.32
-0.47992765489754863
% es.Ex (V/m) @ t=0.32
0.4806264086936721
% es.Ey (V/m) @ t=0.32
0.07196834114161887
% es.Ez (V/m) @ t=0.32
-0.47992765489755773
% es.tEx (V/m) @ t=0.32
0.48062640869367423
% es.tEy (V/m) @ t=0.32
0
% es.tEz (V/m) @ t=0.32
-0.47992765489754863
% V (V) @ t=0.32
0.0074097884350966285
% es.normE (V/m) @ t=0.34
0.6986729564592962
% es.EX (V/m) @ t=0.34
0.48530245211229606
% es.EY (V/m) @ t=0.34
0.07266855647614104
% es.EZ (V/m) @ t=0.34
-0.48459690705919845
% es.tEX (V/m) @ t=0.34
0.48530245211229617
% es.tEY (V/m) @ t=0.34
0
% es.tEZ (V/m) @ t=0.34
-0.48459690705918934
% es.Ex (V/m) @ t=0.34
0.48530245211229606
% es.Ey (V/m) @ t=0.34
0.07266855647614104
% es.Ez (V/m) @ t=0.34
-0.48459690705919845
% es.tEx (V/m) @ t=0.34
0.48530245211229617
% es.tEy (V/m) @ t=0.34
0
% es.tEz (V/m) @ t=0.34
-0.48459690705918934
% V (V) @ t=0.34
0.007481877614079204
% es.normE (V/m) @ t=0.36
0.7054049034976808
% es.EX (V/m) @ t=0.36
0.48997849553092
% es.EY (V/m) @ t=0.36
0.07336877181067503
% es.EZ (V/m) @ t=0.36
-0.48926615922085026
% es.tEX (V/m) @ t=0.36
0.4899784955309219
% es.tEY (V/m) @ t=0.36
0
% es.tEZ (V/m) @ t=0.36
-0.48926615922084116
% es.Ex (V/m) @ t=0.36
0.48997849553092
% es.Ey (V/m) @ t=0.36
0.07336877181067503
% es.Ez (V/m) @ t=0.36
-0.48926615922085026
% es.tEx (V/m) @ t=0.36
0.4899784955309219
% es.tEy (V/m) @ t=0.36
0
% es.tEz (V/m) @ t=0.36
-0.48926615922084116
% V (V) @ t=0.36
0.0075539667930617765
% es.normE (V/m) @ t=0.38
0.712136850536069
% es.EX (V/m) @ t=0.38
0.49465453894954614
% es.EY (V/m) @ t=0.38
0.07406898714520907
% es.EZ (V/m) @ t=0.38
-0.49393541138250563
% es.tEX (V/m) @ t=0.38
0.4946545389495489
% es.tEY (V/m) @ t=0.38
0
% es.tEZ (V/m) @ t=0.38
-0.4939354113824965
% es.Ex (V/m) @ t=0.38
0.49465453894954614
% es.Ey (V/m) @ t=0.38
0.07406898714520907
% es.Ez (V/m) @ t=0.38
-0.49393541138250563
% es.tEx (V/m) @ t=0.38
0.4946545389495489
% es.tEy (V/m) @ t=0.38
0
% es.tEz (V/m) @ t=0.38
-0.4939354113824965
% V (V) @ t=0.38
0.007626055972044349
% es.normE (V/m) @ t=0.4
0.7188687975744539
% es.EX (V/m) @ t=0.4
0.49933058236817185
% es.EY (V/m) @ t=0.4
0.07476920247973556
% es.EZ (V/m) @ t=0.4
-0.4986046635441499
% es.tEX (V/m) @ t=0.4
0.49933058236817507
% es.tEY (V/m) @ t=0.4
0
% es.tEZ (V/m) @ t=0.4
-0.49860466354414434
% es.Ex (V/m) @ t=0.4
0.49933058236817185
% es.Ey (V/m) @ t=0.4
0.07476920247973556
% es.Ez (V/m) @ t=0.4
-0.4986046635441499
% es.tEx (V/m) @ t=0.4
0.49933058236817507
% es.tEy (V/m) @ t=0.4
0
% es.tEz (V/m) @ t=0.4
-0.49860466354414434
% V (V) @ t=0.4
0.007698145151026923
% es.normE (V/m) @ t=0.42
0.7256007446128474
% es.EX (V/m) @ t=0.42
0.5040066257867998
% es.EY (V/m) @ t=0.42
0.07546941781426697
% es.EZ (V/m) @ t=0.42
-0.5032739157058053
% es.tEX (V/m) @ t=0.42
0.5040066257868008
% es.tEY (V/m) @ t=0.42
0
% es.tEZ (V/m) @ t=0.42
-0.5032739157057997
% es.Ex (V/m) @ t=0.42
0.5040066257867998
% es.Ey (V/m) @ t=0.42
0.07546941781426697
% es.Ez (V/m) @ t=0.42
-0.5032739157058053
% es.tEx (V/m) @ t=0.42
0.5040066257868008
% es.tEy (V/m) @ t=0.42
0
% es.tEz (V/m) @ t=0.42
-0.5032739157057997
% V (V) @ t=0.42
0.007770234330009495
% es.normE (V/m) @ t=0.44
0.7323326916512322
% es.EX (V/m) @ t=0.44
0.5086826692054242
% es.EY (V/m) @ t=0.44
0.07616963314879624
% es.EZ (V/m) @ t=0.44
-0.5079431678674478
% es.tEX (V/m) @ t=0.44
0.5086826692054252
% es.tEY (V/m) @ t=0.44
0
% es.tEZ (V/m) @ t=0.44
-0.5079431678674404
% es.Ex (V/m) @ t=0.44
0.5086826692054242
% es.Ey (V/m) @ t=0.44
0.07616963314879624
% es.Ez (V/m) @ t=0.44
-0.5079431678674478
% es.tEx (V/m) @ t=0.44
0.5086826692054252
% es.tEy (V/m) @ t=0.44
0
% es.tEz (V/m) @ t=0.44
-0.5079431678674404
% V (V) @ t=0.44
0.007842323508992067
% es.normE (V/m) @ t=0.46
0.7390646386896289
% es.EX (V/m) @ t=0.46
0.5133587126240476
% es.EY (V/m) @ t=0.46
0.07686984848333095
% es.EZ (V/m) @ t=0.46
-0.5126124200291062
% es.tEX (V/m) @ t=0.46
0.5133587126240504
% es.tEY (V/m) @ t=0.46
0
% es.tEZ (V/m) @ t=0.46
-0.5126124200290954
% es.Ex (V/m) @ t=0.46
0.5133587126240476
% es.Ey (V/m) @ t=0.46
0.07686984848333095
% es.Ez (V/m) @ t=0.46
-0.5126124200291062
% es.tEx (V/m) @ t=0.46
0.5133587126240504
% es.tEy (V/m) @ t=0.46
0
% es.tEz (V/m) @ t=0.46
-0.5126124200290954
% V (V) @ t=0.46
0.007914412687974642
% es.normE (V/m) @ t=0.48
0.7457965857280173
% es.EX (V/m) @ t=0.48
0.5180347560426691
% es.EY (V/m) @ t=0.48
0.07757006381786183
% es.EZ (V/m) @ t=0.48
-0.5172816721907545
% es.tEX (V/m) @ t=0.48
0.5180347560426719
% es.tEY (V/m) @ t=0.48
0
% es.tEZ (V/m) @ t=0.48
-0.5172816721907436
% es.Ex (V/m) @ t=0.48
0.5180347560426691
% es.Ey (V/m) @ t=0.48
0.07757006381786183
% es.Ez (V/m) @ t=0.48
-0.5172816721907545
% es.tEx (V/m) @ t=0.48
0.5180347560426719
% es.tEy (V/m) @ t=0.48
0
% es.tEz (V/m) @ t=0.48
-0.5172816721907436
% V (V) @ t=0.48
0.007986501866957216
% es.normE (V/m) @ t=0.5
0.752528532766405
% es.EX (V/m) @ t=0.5
0.5227107994612971
% es.EY (V/m) @ t=0.5
0.07827027915238996
% es.EZ (V/m) @ t=0.5
-0.5219509243523917
% es.tEX (V/m) @ t=0.5
0.5227107994612998
% es.tEY (V/m) @ t=0.5
0
% es.tEZ (V/m) @ t=0.5
-0.5219509243523772
% es.Ex (V/m) @ t=0.5
0.5227107994612971
% es.Ey (V/m) @ t=0.5
0.07827027915238996
% es.Ez (V/m) @ t=0.5
-0.5219509243523917
% es.tEx (V/m) @ t=0.5
0.5227107994612998
% es.tEy (V/m) @ t=0.5
0
% es.tEz (V/m) @ t=0.5
-0.5219509243523772
% V (V) @ t=0.5
0.008058591045939787
% es.normE (V/m) @ t=0.52
0.7592604798048008
% es.EX (V/m) @ t=0.52
0.5273868428799212
% es.EY (V/m) @ t=0.52
0.07897049448691568
% es.EZ (V/m) @ t=0.52
-0.526620176514043
% es.tEX (V/m) @ t=0.52
0.5273868428799218
% es.tEY (V/m) @ t=0.52
0
% es.tEZ (V/m) @ t=0.52
-0.5266201765140321
% es.Ex (V/m) @ t=0.52
0.5273868428799212
% es.Ey (V/m) @ t=0.52
0.07897049448691568
% es.Ez (V/m) @ t=0.52
-0.526620176514043
% es.tEx (V/m) @ t=0.52
0.5273868428799218
% es.tEy (V/m) @ t=0.52
0
% es.tEz (V/m) @ t=0.52
-0.5266201765140321
% V (V) @ t=0.52
0.008130680224922361
% es.normE (V/m) @ t=0.54
0.7659924268432025
% es.EX (V/m) @ t=0.54
0.532062886298546
% es.EY (V/m) @ t=0.54
0.07967070982144922
% es.EZ (V/m) @ t=0.54
-0.5312894286756984
% es.tEX (V/m) @ t=0.54
0.5320628862985506
% es.tEY (V/m) @ t=0.54
0
% es.tEZ (V/m) @ t=0.54
-0.5312894286756875
% es.Ex (V/m) @ t=0.54
0.532062886298546
% es.Ey (V/m) @ t=0.54
0.07967070982144922
% es.Ez (V/m) @ t=0.54
-0.5312894286756984
% es.tEx (V/m) @ t=0.54
0.5320628862985506
% es.tEy (V/m) @ t=0.54
0
% es.tEz (V/m) @ t=0.54
-0.5312894286756875
% V (V) @ t=0.54
0.008202769403904936
% es.normE (V/m) @ t=0.56
0.7732511287643982
% es.EX (V/m) @ t=0.56
0.5371048258299292
% es.EY (V/m) @ t=0.56
0.08042567762116906
% es.EZ (V/m) @ t=0.56
-0.5363240369145721
% es.tEX (V/m) @ t=0.56
0.5371048258299318
% es.tEY (V/m) @ t=0.56
0
% es.tEZ (V/m) @ t=0.56
-0.5363240369145612
% es.Ex (V/m) @ t=0.56
0.5371048258299292
% es.Ey (V/m) @ t=0.56
0.08042567762116906
% es.Ez (V/m) @ t=0.56
-0.5363240369145721
% es.tEx (V/m) @ t=0.56
0.5371048258299318
% es.tEy (V/m) @ t=0.56
0
% es.tEz (V/m) @ t=0.56
-0.5363240369145612
% V (V) @ t=0.56
0.008280500868496007
% es.normE (V/m) @ t=0.58
0.7807676383543045
% es.EX (V/m) @ t=0.58
0.5423258445248816
% es.EY (V/m) @ t=0.58
0.08120744271478206
% es.EZ (V/m) @ t=0.58
-0.5415374600094618
% es.tEX (V/m) @ t=0.58
0.5423258445248875
% es.tEY (V/m) @ t=0.58
0
% es.tEZ (V/m) @ t=0.58
-0.5415374600094509
% es.Ex (V/m) @ t=0.58
0.5423258445248816
% es.Ey (V/m) @ t=0.58
0.08120744271478206
% es.Ez (V/m) @ t=0.58
-0.5415374600094618
% es.tEx (V/m) @ t=0.58
0.5423258445248875
% es.tEy (V/m) @ t=0.58
0
% es.tEz (V/m) @ t=0.58
-0.5415374600094509
% V (V) @ t=0.58
0.008360993815792745
% es.normE (V/m) @ t=0.6
0.7882841479442266
% es.EX (V/m) @ t=0.6
0.5475468632198409
% es.EY (V/m) @ t=0.6
0.08198920780842456
% es.EZ (V/m) @ t=0.6
-0.5467508831043573
% es.tEX (V/m) @ t=0.6
0.5475468632198415
% es.tEY (V/m) @ t=0.6
0
% es.tEZ (V/m) @ t=0.6
-0.5467508831043428
% es.Ex (V/m) @ t=0.6
0.5475468632198409
% es.Ey (V/m) @ t=0.6
0.08198920780842456
% es.Ez (V/m) @ t=0.6
-0.5467508831043573
% es.tEx (V/m) @ t=0.6
0.5475468632198415
% es.tEy (V/m) @ t=0.6
0
% es.tEz (V/m) @ t=0.6
-0.5467508831043428
% V (V) @ t=0.6
0.008441486763089482
% es.normE (V/m) @ t=0.62
0.7958006575341441
% es.EX (V/m) @ t=0.62
0.5527678819147964
% es.EY (V/m) @ t=0.62
0.08277097290203483
% es.EZ (V/m) @ t=0.62
-0.5519643061992496
% es.tEX (V/m) @ t=0.62
0.5527678819148005
% es.tEY (V/m) @ t=0.62
0
% es.tEZ (V/m) @ t=0.62
-0.5519643061992388
% es.Ex (V/m) @ t=0.62
0.5527678819147964
% es.Ey (V/m) @ t=0.62
0.08277097290203483
% es.Ez (V/m) @ t=0.62
-0.5519643061992496
% es.tEx (V/m) @ t=0.62
0.5527678819148005
% es.tEy (V/m) @ t=0.62
0
% es.tEz (V/m) @ t=0.62
-0.5519643061992388
% V (V) @ t=0.62
0.00852197971038622
% es.normE (V/m) @ t=0.64
0.8033171671240528
% es.EX (V/m) @ t=0.64
0.557988900609753
% es.EY (V/m) @ t=0.64
0.08355273799565335
% es.EZ (V/m) @ t=0.64
-0.5571777292941278
% es.tEX (V/m) @ t=0.64
0.5579889006097554
% es.tEY (V/m) @ t=0.64
0
% es.tEZ (V/m) @ t=0.64
-0.5571777292941205
% es.Ex (V/m) @ t=0.64
0.557988900609753
% es.Ey (V/m) @ t=0.64
0.08355273799565335
% es.Ez (V/m) @ t=0.64
-0.5571777292941278
% es.tEx (V/m) @ t=0.64
0.5579889006097554
% es.tEy (V/m) @ t=0.64
0
% es.tEz (V/m) @ t=0.64
-0.5571777292941205
% V (V) @ t=0.64
0.008602472657682957
% es.normE (V/m) @ t=0.66
0.8108336767139774
% es.EX (V/m) @ t=0.66
0.563209919304714
% es.EY (V/m) @ t=0.66
0.08433450308926743
% es.EZ (V/m) @ t=0.66
-0.5623911523890273
% es.tEX (V/m) @ t=0.66
0.5632099193047164
% es.tEY (V/m) @ t=0.66
0
% es.tEZ (V/m) @ t=0.66
-0.5623911523890199
% es.Ex (V/m) @ t=0.66
0.563209919304714
% es.Ey (V/m) @ t=0.66
0.08433450308926743
% es.Ez (V/m) @ t=0.66
-0.5623911523890273
% es.tEx (V/m) @ t=0.66
0.5632099193047164
% es.tEy (V/m) @ t=0.66
0
% es.tEz (V/m) @ t=0.66
-0.5623911523890199
% V (V) @ t=0.66
0.008682965604979696
% es.normE (V/m) @ t=0.68
0.8183501863039028
% es.EX (V/m) @ t=0.68
0.5684309379996678
% es.EY (V/m) @ t=0.68
0.08511626818288817
% es.EZ (V/m) @ t=0.68
-0.5676045754839303
% es.tEX (V/m) @ t=0.68
0.5684309379996719
% es.tEY (V/m) @ t=0.68
0
% es.tEZ (V/m) @ t=0.68
-0.567604575483923
% es.Ex (V/m) @ t=0.68
0.5684309379996678
% es.Ey (V/m) @ t=0.68
0.08511626818288817
% es.Ez (V/m) @ t=0.68
-0.5676045754839303
% es.tEx (V/m) @ t=0.68
0.5684309379996719
% es.tEy (V/m) @ t=0.68
0
% es.tEz (V/m) @ t=0.68
-0.567604575483923
% V (V) @ t=0.68
0.008763458552276431
% es.normE (V/m) @ t=0.7
0.8258666958938206
% es.EX (V/m) @ t=0.7
0.5736519566946271
% es.EY (V/m) @ t=0.7
0.08589803327651799
% es.EZ (V/m) @ t=0.7
-0.572817998578812
% es.tEX (V/m) @ t=0.7
0.5736519566946294
% es.tEY (V/m) @ t=0.7
0
% es.tEZ (V/m) @ t=0.7
-0.5728179985788047
% es.Ex (V/m) @ t=0.7
0.5736519566946271
% es.Ey (V/m) @ t=0.7
0.08589803327651799
% es.Ez (V/m) @ t=0.7
-0.572817998578812
% es.tEx (V/m) @ t=0.7
0.5736519566946294
% es.tEy (V/m) @ t=0.7
0
% es.tEz (V/m) @ t=0.7
-0.5728179985788047
% V (V) @ t=0.7
0.00884395149957317
% es.normE (V/m) @ t=0.72
0.8333832054837387
% es.EX (V/m) @ t=0.72
0.578872975389585
% es.EY (V/m) @ t=0.72
0.08667979837013473
% es.EZ (V/m) @ t=0.72
-0.5780314216737008
% es.tEX (V/m) @ t=0.72
0.5788729753895889
% es.tEY (V/m) @ t=0.72
0
% es.tEZ (V/m) @ t=0.72
-0.5780314216736935
% es.Ex (V/m) @ t=0.72
0.578872975389585
% es.Ey (V/m) @ t=0.72
0.08667979837013473
% es.Ez (V/m) @ t=0.72
-0.5780314216737008
% es.tEx (V/m) @ t=0.72
0.5788729753895889
% es.tEy (V/m) @ t=0.72
0
% es.tEz (V/m) @ t=0.72
-0.5780314216736935
% V (V) @ t=0.72
0.008924444446869906
% es.normE (V/m) @ t=0.74
0.8408997150736549
% es.EX (V/m) @ t=0.74
0.5840939940845394
% es.EY (V/m) @ t=0.74
0.08746156346375039
% es.EZ (V/m) @ t=0.74
-0.583244844768583
% es.tEX (V/m) @ t=0.74
0.5840939940845415
% es.tEY (V/m) @ t=0.74
0
% es.tEZ (V/m) @ t=0.74
-0.5832448447685756
% es.Ex (V/m) @ t=0.74
0.5840939940845394
% es.Ey (V/m) @ t=0.74
0.08746156346375039
% es.Ez (V/m) @ t=0.74
-0.583244844768583
% es.tEx (V/m) @ t=0.74
0.5840939940845415
% es.tEy (V/m) @ t=0.74
0
% es.tEz (V/m) @ t=0.74
-0.5832448447685756
% V (V) @ t=0.74
0.009004937394166647
% es.normE (V/m) @ t=0.76
0.84841622466358
% es.EX (V/m) @ t=0.76
0.5893150127795004
% es.EY (V/m) @ t=0.76
0.08824332855736713
% es.EZ (V/m) @ t=0.76
-0.5884582678634753
% es.tEX (V/m) @ t=0.76
0.589315012779497
% es.tEY (V/m) @ t=0.76
0
% es.tEZ (V/m) @ t=0.76
-0.5884582678634644
% es.Ex (V/m) @ t=0.76
0.5893150127795004
% es.Ey (V/m) @ t=0.76
0.08824332855736713
% es.Ez (V/m) @ t=0.76
-0.5884582678634753
% es.tEx (V/m) @ t=0.76
0.589315012779497
% es.tEy (V/m) @ t=0.76
0
% es.tEz (V/m) @ t=0.76
-0.5884582678634644
% V (V) @ t=0.76
0.009085430341463384
% es.normE (V/m) @ t=0.78
0.8559327342535106
% es.EX (V/m) @ t=0.78
0.5945360314744579
% es.EY (V/m) @ t=0.78
0.08902509365100497
% es.EZ (V/m) @ t=0.78
-0.5936716909583748
% es.tEX (V/m) @ t=0.78
0.5945360314744601
% es.tEY (V/m) @ t=0.78
0
% es.tEZ (V/m) @ t=0.78
-0.5936716909583675
% es.Ex (V/m) @ t=0.78
0.5945360314744579
% es.Ey (V/m) @ t=0.78
0.08902509365100497
% es.Ez (V/m) @ t=0.78
-0.5936716909583748
% es.tEx (V/m) @ t=0.78
0.5945360314744601
% es.tEy (V/m) @ t=0.78
0
% es.tEz (V/m) @ t=0.78
-0.5936716909583675
% V (V) @ t=0.78
0.00916592328876012
% es.normE (V/m) @ t=0.8
0.8634492438434417
% es.EX (V/m) @ t=0.8
0.5997570501694178
% es.EY (V/m) @ t=0.8
0.08980685874461417
% es.EZ (V/m) @ t=0.8
-0.598885114053274
% es.tEX (V/m) @ t=0.8
0.5997570501694196
% es.tEY (V/m) @ t=0.8
0
% es.tEZ (V/m) @ t=0.8
-0.5988851140532558
% es.Ex (V/m) @ t=0.8
0.5997570501694178
% es.Ey (V/m) @ t=0.8
0.08980685874461417
% es.Ez (V/m) @ t=0.8
-0.598885114053274
% es.tEx (V/m) @ t=0.8
0.5997570501694196
% es.tEy (V/m) @ t=0.8
0
% es.tEz (V/m) @ t=0.8
-0.5988851140532558
% V (V) @ t=0.8
0.009246416236056857
% es.normE (V/m) @ t=0.82
0.8709765418923721
% es.EX (V/m) @ t=0.82
0.6049855630678258
% es.EY (V/m) @ t=0.82
0.09058974408858478
% es.EZ (V/m) @ t=0.82
-0.6041060200303863
% es.tEX (V/m) @ t=0.82
0.6049855630678258
% es.tEY (V/m) @ t=0.82
0
% es.tEZ (V/m) @ t=0.82
-0.6041060200303754
% es.Ex (V/m) @ t=0.82
0.6049855630678258
% es.Ey (V/m) @ t=0.82
0.09058974408858478
% es.Ez (V/m) @ t=0.82
-0.6041060200303863
% es.tEx (V/m) @ t=0.82
0.6049855630678258
% es.tEy (V/m) @ t=0.82
0
% es.tEz (V/m) @ t=0.82
-0.6041060200303754
% V (V) @ t=0.82
0.00932702478913547
% es.normE (V/m) @ t=0.84
0.8793845570852457
% es.EX (V/m) @ t=0.84
0.6108258661628279
% es.EY (V/m) @ t=0.84
0.09146408120492819
% es.EZ (V/m) @ t=0.84
-0.6099377919947244
% es.tEX (V/m) @ t=0.84
0.6108258661628283
% es.tEY (V/m) @ t=0.84
0
% es.tEZ (V/m) @ t=0.84
-0.6099377919947169
% es.Ex (V/m) @ t=0.84
0.6108258661628279
% es.Ey (V/m) @ t=0.84
0.09146408120492819
% es.Ez (V/m) @ t=0.84
-0.6099377919947244
% es.tEx (V/m) @ t=0.84
0.6108258661628283
% es.tEy (V/m) @ t=0.84
0
% es.tEz (V/m) @ t=0.84
-0.6099377919947169
% V (V) @ t=0.84
0.0094170708340619
% es.normE (V/m) @ t=0.86
0.8877925722781598
% es.EX (V/m) @ t=0.86
0.6166661692578288
% es.EY (V/m) @ t=0.86
0.09233841832126088
% es.EZ (V/m) @ t=0.86
-0.6157695639590581
% es.tEX (V/m) @ t=0.86
0.6166661692578308
% es.tEY (V/m) @ t=0.86
0
% es.tEZ (V/m) @ t=0.86
-0.6157695639590508
% es.Ex (V/m) @ t=0.86
0.6166661692578288
% es.Ey (V/m) @ t=0.86
0.09233841832126088
% es.Ez (V/m) @ t=0.86
-0.6157695639590581
% es.tEx (V/m) @ t=0.86
0.6166661692578308
% es.tEy (V/m) @ t=0.86
0
% es.tEz (V/m) @ t=0.86
-0.6157695639590508
% V (V) @ t=0.86
0.009507116878988328
% es.normE (V/m) @ t=0.88
0.8962005874711181
% es.EX (V/m) @ t=0.88
0.6225064723528295
% es.EY (V/m) @ t=0.88
0.09321275543760965
% es.EZ (V/m) @ t=0.88
-0.6216013359233854
% es.tEX (V/m) @ t=0.88
0.6225064723528333
% es.tEY (V/m) @ t=0.88
0
% es.tEZ (V/m) @ t=0.88
-0.621601335923371
% es.Ex (V/m) @ t=0.88
0.6225064723528295
% es.Ey (V/m) @ t=0.88
0.09321275543760965
% es.Ez (V/m) @ t=0.88
-0.6216013359233854
% es.tEx (V/m) @ t=0.88
0.6225064723528333
% es.tEy (V/m) @ t=0.88
0
% es.tEz (V/m) @ t=0.88
-0.621601335923371
% V (V) @ t=0.88
0.00959716292391476
% es.normE (V/m) @ t=0.9
0.904608602664118
% es.EX (V/m) @ t=0.9
0.6283467754478298
% es.EY (V/m) @ t=0.9
0.0940870925539461
% es.EZ (V/m) @ t=0.9
-0.6274331078877158
% es.tEX (V/m) @ t=0.9
0.6283467754478282
% es.tEY (V/m) @ t=0.9
0
% es.tEZ (V/m) @ t=0.9
-0.6274331078877049
% es.Ex (V/m) @ t=0.9
0.6283467754478298
% es.Ey (V/m) @ t=0.9
0.0940870925539461
% es.Ez (V/m) @ t=0.9
-0.6274331078877158
% es.tEx (V/m) @ t=0.9
0.6283467754478282
% es.tEy (V/m) @ t=0.9
0
% es.tEz (V/m) @ t=0.9
-0.6274331078877049
% V (V) @ t=0.9
0.009687208968841192
% es.normE (V/m) @ t=0.92
0.9130166178571735
% es.EX (V/m) @ t=0.92
0.6341870785428356
% es.EY (V/m) @ t=0.92
0.09496142967028398
% es.EZ (V/m) @ t=0.92
-0.6332648798520573
% es.tEX (V/m) @ t=0.92
0.6341870785428374
% es.tEY (V/m) @ t=0.92
0
% es.tEZ (V/m) @ t=0.92
-0.6332648798520535
% es.Ex (V/m) @ t=0.92
0.6341870785428356
% es.Ey (V/m) @ t=0.92
0.09496142967028398
% es.Ez (V/m) @ t=0.92
-0.6332648798520573
% es.tEx (V/m) @ t=0.92
0.6341870785428374
% es.tEy (V/m) @ t=0.92
0
% es.tEz (V/m) @ t=0.92
-0.6332648798520535
% V (V) @ t=0.92
0.009777255013767623
% es.normE (V/m) @ t=0.94
0.9214246330502573
% es.EX (V/m) @ t=0.94
0.6400273816378366
% es.EY (V/m) @ t=0.94
0.09583576678662847
% es.EZ (V/m) @ t=0.94
-0.6390966518163841
% es.tEX (V/m) @ t=0.94
0.6400273816378395
% es.tEY (V/m) @ t=0.94
0
% es.tEZ (V/m) @ t=0.94
-0.6390966518163732
% es.Ex (V/m) @ t=0.94
0.6400273816378366
% es.Ey (V/m) @ t=0.94
0.09583576678662847
% es.Ez (V/m) @ t=0.94
-0.6390966518163841
% es.tEx (V/m) @ t=0.94
0.6400273816378395
% es.tEy (V/m) @ t=0.94
0
% es.tEz (V/m) @ t=0.94
-0.6390966518163732
% V (V) @ t=0.94
0.009867301058694053
% es.normE (V/m) @ t=0.96
0.929832648243388
% es.EX (V/m) @ t=0.96
0.645867684732842
% es.EY (V/m) @ t=0.96
0.09671010390296386
% es.EZ (V/m) @ t=0.96
-0.6449284237807185
% es.tEX (V/m) @ t=0.96
0.6458676847328451
% es.tEY (V/m) @ t=0.96
0
% es.tEZ (V/m) @ t=0.96
-0.6449284237807076
% es.Ex (V/m) @ t=0.96
0.645867684732842
% es.Ey (V/m) @ t=0.96
0.09671010390296386
% es.Ez (V/m) @ t=0.96
-0.6449284237807185
% es.tEx (V/m) @ t=0.96
0.6458676847328451
% es.tEy (V/m) @ t=0.96
0
% es.tEz (V/m) @ t=0.96
-0.6449284237807076
% V (V) @ t=0.96
0.009957347103620484
% es.normE (V/m) @ t=0.98
0.9382406634365501
% es.EX (V/m) @ t=0.98
0.6517079878278429
% es.EY (V/m) @ t=0.98
0.09758444101930835
% es.EZ (V/m) @ t=0.98
-0.6507601957450417
% es.tEX (V/m) @ t=0.98
0.6517079878278444
% es.tEY (V/m) @ t=0.98
0
% es.tEZ (V/m) @ t=0.98
-0.6507601957450344
% es.Ex (V/m) @ t=0.98
0.6517079878278429
% es.Ey (V/m) @ t=0.98
0.09758444101930835
% es.Ez (V/m) @ t=0.98
-0.6507601957450417
% es.tEx (V/m) @ t=0.98
0.6517079878278444
% es.tEy (V/m) @ t=0.98
0
% es.tEz (V/m) @ t=0.98
-0.6507601957450344
% V (V) @ t=0.98
0.010047393148546914
% es.normE (V/m) @ t=1
0.9466486786297599
% es.EX (V/m) @ t=1
0.6575482909228452
% es.EY (V/m) @ t=1
0.09845877813563197
% es.EZ (V/m) @ t=1
-0.6565919677093832
% es.tEX (V/m) @ t=1
0.657548290922843
% es.tEY (V/m) @ t=1
0
% es.tEZ (V/m) @ t=1
-0.6565919677093759
% es.Ex (V/m) @ t=1
0.6575482909228452
% es.Ey (V/m) @ t=1
0.09845877813563197
% es.Ez (V/m) @ t=1
-0.6565919677093832
% es.tEx (V/m) @ t=1
0.657548290922843
% es.tEy (V/m) @ t=1
0
% es.tEz (V/m) @ t=1
-0.6565919677093759
% V (V) @ t=1
0.010137439193473347
% es.normE (V/m) @ t=1.02
0.9550566938229992
% es.EX (V/m) @ t=1.02
0.6633885940178417
% es.EY (V/m) @ t=1.02
0.09933311525197558
% es.EZ (V/m) @ t=1.02
-0.6624237396737136
% es.tEX (V/m) @ t=1.02
0.663388594017845
% es.tEY (V/m) @ t=1.02
0
% es.tEZ (V/m) @ t=1.02
-0.6624237396736956
% es.Ex (V/m) @ t=1.02
0.6633885940178417
% es.Ey (V/m) @ t=1.02
0.09933311525197558
% es.Ez (V/m) @ t=1.02
-0.6624237396737136
% es.tEx (V/m) @ t=1.02
0.663388594017845
% es.tEy (V/m) @ t=1.02
0
% es.tEz (V/m) @ t=1.02
-0.6624237396736956
% V (V) @ t=1.02
0.010227485238399774
% es.normE (V/m) @ t=1.04
0.9634647090162813
% es.EX (V/m) @ t=1.04
0.6692288971128426