% Model:              1 neuron.mph
% Version:            COMSOL 6.0.0.405
% Date:               Mar 16 2023, 17:04
% Dimension:          0
% Nodes:              14017
% Expressions:        14017
% Description:        Electric field norm, Electric field, X component, Electric field, Y component, Electric field, Z component, Tangential electric field, X component, Tangential electric field, Y component, Tangential electric field, Z component, Electric field, x component, Electric field, y component, Electric field, z component, Tangential electric field, x component, Tangential electric field, y component, Tangential electric field, z component, Electric potential
% Length unit:        mm
% x
1.66
% y
12.2
% z
2
% es.normE (V/m) @ t=0
1.4499116343464387
% es.EX (V/m) @ t=0
-0.43253757950166416
% es.EY (V/m) @ t=0
0.032308782316440514
% es.EZ (V/m) @ t=0
-1.3811860320856288
% es.tEX (V/m) @ t=0
-0.43253757950166616
% es.tEY (V/m) @ t=0
0
% es.tEZ (V/m) @ t=0
-1.381186032085643
% es.Ex (V/m) @ t=0
-0.43253757950166416
% es.Ey (V/m) @ t=0
0.032308782316440514
% es.Ez (V/m) @ t=0
-1.3811860320856288
% es.tEx (V/m) @ t=0
-0.43253757950166616
% es.tEy (V/m) @ t=0
0
% es.tEz (V/m) @ t=0
-1.381186032085643
% V (V) @ t=0
0.007287859093664601
% es.normE (V/m) @ t=0.02
1.2523152960821653
% es.EX (V/m) @ t=0.02
-0.37359064963732014
% es.EY (V/m) @ t=0.02
0.02790569115324841
% es.EZ (V/m) @ t=0.02
-1.1929557310269017
% es.tEX (V/m) @ t=0.02
-0.3735906496373218
% es.tEY (V/m) @ t=0.02
0
% es.tEZ (V/m) @ t=0.02
-1.1929557310269097
% es.Ex (V/m) @ t=0.02
-0.37359064963732014
% es.Ey (V/m) @ t=0.02
0.02790569115324841
% es.Ez (V/m) @ t=0.02
-1.1929557310269017
% es.tEx (V/m) @ t=0.02
-0.3735906496373218
% es.tEy (V/m) @ t=0.02
0
% es.tEz (V/m) @ t=0.02
-1.1929557310269097
% V (V) @ t=0.02
0.006294657589280395
% es.normE (V/m) @ t=0.04
1.26383284142714
% es.EX (V/m) @ t=0.04
-0.37702657770732023
% es.EY (V/m) @ t=0.04
0.028162363647468595
% es.EZ (V/m) @ t=0.04
-1.203927340242371
% es.tEX (V/m) @ t=0.04
-0.37702657770732273
% es.tEY (V/m) @ t=0.04
0
% es.tEZ (V/m) @ t=0.04
-1.2039273402423922
% es.Ex (V/m) @ t=0.04
-0.37702657770732023
% es.Ey (V/m) @ t=0.04
0.028162363647468595
% es.Ez (V/m) @ t=0.04
-1.203927340242371
% es.tEx (V/m) @ t=0.04
-0.37702657770732273
% es.tEy (V/m) @ t=0.04
0
% es.tEz (V/m) @ t=0.04
-1.2039273402423922
% V (V) @ t=0.04
0.0063525486905963826
% es.normE (V/m) @ t=0.06
1.2754548867936168
% es.EX (V/m) @ t=0.06
-0.3804936949861216
% es.EY (V/m) @ t=0.06
0.028421389793639902
% es.EZ (V/m) @ t=0.06
-1.2149984898615211
% es.tEX (V/m) @ t=0.06
-0.38049369498612506
% es.tEY (V/m) @ t=0.06
0
% es.tEZ (V/m) @ t=0.06
-1.2149984898615305
% es.Ex (V/m) @ t=0.06
-0.3804936949861216
% es.Ey (V/m) @ t=0.06
0.028421389793639902
% es.Ez (V/m) @ t=0.06
-1.2149984898615211
% es.tEx (V/m) @ t=0.06
-0.38049369498612506
% es.tEy (V/m) @ t=0.06
0
% es.tEz (V/m) @ t=0.06
-1.2149984898615305
% V (V) @ t=0.06
0.006410964135583583
% es.normE (V/m) @ t=0.08
1.2872527284480924
% es.EX (V/m) @ t=0.08
-0.3840132291834113
% es.EY (V/m) @ t=0.08
0.028684288611458407
% es.EZ (V/m) @ t=0.08
-1.226237114433392
% es.tEX (V/m) @ t=0.08
-0.3840132291834131
% es.tEY (V/m) @ t=0.08
0
% es.tEZ (V/m) @ t=0.08
-1.2262371144334043
% es.Ex (V/m) @ t=0.08
-0.3840132291834113
% es.Ey (V/m) @ t=0.08
0.028684288611458407
% es.Ez (V/m) @ t=0.08
-1.226237114433392
% es.tEx (V/m) @ t=0.08
-0.3840132291834131
% es.tEy (V/m) @ t=0.08
0
% es.tEz (V/m) @ t=0.08
-1.2262371144334043
% V (V) @ t=0.08
0.006470264840606391
% es.normE (V/m) @ t=0.1
1.299176137584582
% es.EX (V/m) @ t=0.1
-0.3875702036505956
% es.EY (V/m) @ t=0.1
0.028949953594791522
% es.EZ (V/m) @ t=0.1
-1.2375953627376721
% es.tEX (V/m) @ t=0.1
-0.387570203650597
% es.tEY (V/m) @ t=0.1
0
% es.tEZ (V/m) @ t=0.1
-1.2375953627376823
% es.Ex (V/m) @ t=0.1
-0.3875702036505956
% es.Ey (V/m) @ t=0.1
0.028949953594791522
% es.Ez (V/m) @ t=0.1
-1.2375953627376721
% es.tEx (V/m) @ t=0.1
-0.387570203650597
% es.tEy (V/m) @ t=0.1
0
% es.tEz (V/m) @ t=0.1
-1.2375953627376823
% V (V) @ t=0.1
0.006530197867704146
% es.normE (V/m) @ t=0.12
1.311099546721079
% es.EX (V/m) @ t=0.12
-0.39112717811777664
% es.EY (V/m) @ t=0.12
0.029215618578111523
% es.EZ (V/m) @ t=0.12
-1.24895361104196
% es.tEX (V/m) @ t=0.12
-0.39112717811777387
% es.tEY (V/m) @ t=0.12
0
% es.tEZ (V/m) @ t=0.12
-1.2489536110419666
% es.Ex (V/m) @ t=0.12
-0.39112717811777664
% es.Ey (V/m) @ t=0.12
0.029215618578111523
% es.Ez (V/m) @ t=0.12
-1.24895361104196
% es.tEx (V/m) @ t=0.12
-0.39112717811777387
% es.tEy (V/m) @ t=0.12
0
% es.tEz (V/m) @ t=0.12
-1.2489536110419666
% V (V) @ t=0.12
0.0065901308948019
% es.normE (V/m) @ t=0.14
1.323135568964676
% es.EX (V/m) @ t=0.14
-0.3947177534604889
% es.EY (V/m) @ t=0.14
0.02948380331127111
% es.EZ (V/m) @ t=0.14
-1.2604191319793236
% es.tEX (V/m) @ t=0.14
-0.394717753460494
% es.tEY (V/m) @ t=0.14
0
% es.tEZ (V/m) @ t=0.14
-1.2604191319793454
% es.Ex (V/m) @ t=0.14
-0.3947177534604889
% es.Ey (V/m) @ t=0.14
0.02948380331127111
% es.Ez (V/m) @ t=0.14
-1.2604191319793236
% es.tEx (V/m) @ t=0.14
-0.394717753460494
% es.tEy (V/m) @ t=0.14
0
% es.tEz (V/m) @ t=0.14
-1.2604191319793454
% V (V) @ t=0.14
0.006650629583029822
% es.normE (V/m) @ t=0.16
1.3356964629882062
% es.EX (V/m) @ t=0.16
-0.39846493713946324
% es.EY (V/m) @ t=0.16
0.029763732197607196
% es.EZ (V/m) @ t=0.16
-1.2723846335966709
% es.tEX (V/m) @ t=0.16
-0.39846493713946884
% es.tEY (V/m) @ t=0.16
0
% es.tEZ (V/m) @ t=0.16
-1.2723846335966797
% es.Ex (V/m) @ t=0.16
-0.39846493713946324
% es.Ey (V/m) @ t=0.16
0.029763732197607196
% es.Ez (V/m) @ t=0.16
-1.2723846335966709
% es.tEx (V/m) @ t=0.16
-0.39846493713946884
% es.tEy (V/m) @ t=0.16
0
% es.tEz (V/m) @ t=0.16
-1.2723846335966797
% V (V) @ t=0.16
0.006713764727810992
% es.normE (V/m) @ t=0.18
1.3482573570117062
% es.EX (V/m) @ t=0.18
-0.40221212081843494
% es.EY (V/m) @ t=0.18
0.030043661083937176
% es.EZ (V/m) @ t=0.18
-1.2843501352139857
% es.tEX (V/m) @ t=0.18
-0.4022121208184366
% es.tEY (V/m) @ t=0.18
0
% es.tEZ (V/m) @ t=0.18
-1.284350135213999
% es.Ex (V/m) @ t=0.18
-0.40221212081843494
% es.Ey (V/m) @ t=0.18
0.030043661083937176
% es.Ez (V/m) @ t=0.18
-1.2843501352139857
% es.tEx (V/m) @ t=0.18
-0.4022121208184366
% es.tEy (V/m) @ t=0.18
0
% es.tEz (V/m) @ t=0.18
-1.284350135213999
% V (V) @ t=0.18
0.006776899872592162
% es.normE (V/m) @ t=0.2
1.3608182510352267
% es.EX (V/m) @ t=0.2
-0.40595930449741013
% es.EY (V/m) @ t=0.2
0.03032358997026862
% es.EZ (V/m) @ t=0.2
-1.2963156368313191
% es.tEX (V/m) @ t=0.2
-0.405959304497415
% es.tEY (V/m) @ t=0.2
0
% es.tEZ (V/m) @ t=0.2
-1.2963156368313333
% es.Ex (V/m) @ t=0.2
-0.40595930449741013
% es.Ey (V/m) @ t=0.2
0.03032358997026862
% es.Ez (V/m) @ t=0.2
-1.2963156368313191
% es.tEx (V/m) @ t=0.2
-0.405959304497415
% es.tEy (V/m) @ t=0.2
0
% es.tEz (V/m) @ t=0.2
-1.2963156368313333
% V (V) @ t=0.2
0.006840035017373334
% es.normE (V/m) @ t=0.22
1.3733791450587574
% es.EX (V/m) @ t=0.22
-0.40970648817638367
% es.EY (V/m) @ t=0.22
0.030603518856595832
% es.EZ (V/m) @ t=0.22
-1.3082811384486623
% es.tEX (V/m) @ t=0.22
-0.4097064881763899
% es.tEY (V/m) @ t=0.22
0
% es.tEZ (V/m) @ t=0.22
-1.3082811384486677
% es.Ex (V/m) @ t=0.22
-0.40970648817638367
% es.Ey (V/m) @ t=0.22
0.030603518856595832
% es.Ez (V/m) @ t=0.22
-1.3082811384486623
% es.tEx (V/m) @ t=0.22
-0.4097064881763899
% es.tEy (V/m) @ t=0.22
0
% es.tEz (V/m) @ t=0.22
-1.3082811384486677
% V (V) @ t=0.22
0.0069031701621545035
% es.normE (V/m) @ t=0.24
1.3859400390822596
% es.EX (V/m) @ t=0.24
-0.4134536718553456
% es.EY (V/m) @ t=0.24
0.030883447742927367
% es.EZ (V/m) @ t=0.24
-1.3202466400659776
% es.tEX (V/m) @ t=0.24
-0.41345367185535054
% es.tEY (V/m) @ t=0.24
0
% es.tEZ (V/m) @ t=0.24
-1.320246640065987
% es.Ex (V/m) @ t=0.24
-0.4134536718553456
% es.Ey (V/m) @ t=0.24
0.030883447742927367
% es.Ez (V/m) @ t=0.24
-1.3202466400659776
% es.tEx (V/m) @ t=0.24
-0.41345367185535054
% es.tEy (V/m) @ t=0.24
0
% es.tEz (V/m) @ t=0.24
-1.320246640065987
% V (V) @ t=0.24
0.0069663053069356756
% es.normE (V/m) @ t=0.26
1.3985009331057752
% es.EX (V/m) @ t=0.26
-0.41720085553431807
% es.EY (V/m) @ t=0.26
0.031163376629252927
% es.EZ (V/m) @ t=0.26
-1.3322121416833035
% es.tEX (V/m) @ t=0.26
-0.4172008555343254
% es.tEY (V/m) @ t=0.26
0
% es.tEZ (V/m) @ t=0.26
-1.3322121416833212
% es.Ex (V/m) @ t=0.26
-0.41720085553431807
% es.Ey (V/m) @ t=0.26
0.031163376629252927
% es.Ez (V/m) @ t=0.26
-1.3322121416833035
% es.tEx (V/m) @ t=0.26
-0.4172008555343254
% es.tEy (V/m) @ t=0.26
0
% es.tEz (V/m) @ t=0.26
-1.3322121416833212
% V (V) @ t=0.26
0.007029440451716845
% es.normE (V/m) @ t=0.28
1.4115829101105546
% es.EX (V/m) @ t=0.28
-0.42110353201065664
% es.EY (V/m) @ t=0.28
0.0314549907458377
% es.EZ (V/m) @ t=0.28
-1.3446740084174547
% es.tEX (V/m) @ t=0.28
-0.4211035320106582
% es.tEY (V/m) @ t=0.28
0
% es.tEZ (V/m) @ t=0.28
-1.3446740084174653
% es.Ex (V/m) @ t=0.28
-0.42110353201065664
% es.Ey (V/m) @ t=0.28
0.0314549907458377
% es.Ez (V/m) @ t=0.28
-1.3446740084174547
% es.tEx (V/m) @ t=0.28
-0.4211035320106582
% es.tEy (V/m) @ t=0.28
0
% es.tEz (V/m) @ t=0.28
-1.3446740084174653
% V (V) @ t=0.28
0.007095192077462534
% es.normE (V/m) @ t=0.3
1.4255781686168691
% es.EX (V/m) @ t=0.3
-0.4252787345539557
% es.EY (V/m) @ t=0.3
0.03176708510267646
% es.EZ (V/m) @ t=0.3
-1.358005834631153
% es.tEX (V/m) @ t=0.3
-0.42527873455395593
% es.tEY (V/m) @ t=0.3
0
% es.tEZ (V/m) @ t=0.3
-1.3580058346311583
% es.Ex (V/m) @ t=0.3
-0.4252787345539557
% es.Ey (V/m) @ t=0.3
0.03176708510267646
% es.Ez (V/m) @ t=0.3
-1.358005834631153
% es.tEx (V/m) @ t=0.3
-0.42527873455395593
% es.tEy (V/m) @ t=0.3
0
% es.tEz (V/m) @ t=0.3
-1.3580058346311583
% V (V) @ t=0.3
0.007165529505757597
% es.normE (V/m) @ t=0.32
1.4395734271232572
% es.EX (V/m) @ t=0.32
-0.4294539370972468
% es.EY (V/m) @ t=0.32
0.03207917945950097
% es.EZ (V/m) @ t=0.32
-1.3713376608448549
% es.tEX (V/m) @ t=0.32
-0.4294539370972501
% es.tEY (V/m) @ t=0.32
0
% es.tEZ (V/m) @ t=0.32
-1.3713376608448646
% es.Ex (V/m) @ t=0.32
-0.4294539370972468
% es.Ey (V/m) @ t=0.32
0.03207917945950097
% es.Ez (V/m) @ t=0.32
-1.3713376608448549
% es.tEx (V/m) @ t=0.32
-0.4294539370972501
% es.tEy (V/m) @ t=0.32
0
% es.tEz (V/m) @ t=0.32
-1.3713376608448646
% V (V) @ t=0.32
0.007235866934052659
% es.normE (V/m) @ t=0.34
1.4535686856297052
% es.EX (V/m) @ t=0.34
-0.4336291396405413
% es.EY (V/m) @ t=0.34
0.03239127381633906
% es.EZ (V/m) @ t=0.34
-1.384669487058543
% es.tEX (V/m) @ t=0.34
-0.4336291396405443
% es.tEY (V/m) @ t=0.34
0
% es.tEZ (V/m) @ t=0.34
-1.3846694870585514
% es.Ex (V/m) @ t=0.34
-0.4336291396405413
% es.Ey (V/m) @ t=0.34
0.03239127381633906
% es.Ez (V/m) @ t=0.34
-1.384669487058543
% es.tEx (V/m) @ t=0.34
-0.4336291396405443
% es.tEy (V/m) @ t=0.34
0
% es.tEz (V/m) @ t=0.34
-1.3846694870585514
% V (V) @ t=0.34
0.0073062043623477214
% es.normE (V/m) @ t=0.36
1.4675639441362354
% es.EX (V/m) @ t=0.36
-0.4378043421838378
% es.EY (V/m) @ t=0.36
0.03270336817317156
% es.EZ (V/m) @ t=0.36
-1.3980013132722444
% es.tEX (V/m) @ t=0.36
-0.437804342183842
% es.tEY (V/m) @ t=0.36
0
% es.tEZ (V/m) @ t=0.36
-1.3980013132722515
% es.Ex (V/m) @ t=0.36
-0.4378043421838378
% es.Ey (V/m) @ t=0.36
0.03270336817317156
% es.Ez (V/m) @ t=0.36
-1.3980013132722444
% es.tEx (V/m) @ t=0.36
-0.437804342183842
% es.tEy (V/m) @ t=0.36
0
% es.tEz (V/m) @ t=0.36
-1.3980013132722515
% V (V) @ t=0.36
0.007376541790642783
% es.normE (V/m) @ t=0.38
1.4815592026428206
% es.EX (V/m) @ t=0.38
-0.4419795447271323
% es.EY (V/m) @ t=0.38
0.03301546253000343
% es.EZ (V/m) @ t=0.38
-1.4113331394859325
% es.tEX (V/m) @ t=0.38
-0.4419795447271362
% es.tEY (V/m) @ t=0.38
0
% es.tEZ (V/m) @ t=0.38
-1.4113331394859454
% es.Ex (V/m) @ t=0.38
-0.4419795447271323
% es.Ey (V/m) @ t=0.38
0.03301546253000343
% es.Ez (V/m) @ t=0.38
-1.4113331394859325
% es.tEx (V/m) @ t=0.38
-0.4419795447271362
% es.tEy (V/m) @ t=0.38
0
% es.tEz (V/m) @ t=0.38
-1.4113331394859454
% V (V) @ t=0.38
0.007446879218937847
% es.normE (V/m) @ t=0.4
1.4955544611494902
% es.EX (V/m) @ t=0.4
-0.4461547472704269
% es.EY (V/m) @ t=0.4
0.033327556886835745
% es.EZ (V/m) @ t=0.4
-1.4246649656996415
% es.tEX (V/m) @ t=0.4
-0.44615474727043036
% es.tEY (V/m) @ t=0.4
0
% es.tEZ (V/m) @ t=0.4
-1.4246649656996526
% es.Ex (V/m) @ t=0.4
-0.4461547472704269
% es.Ey (V/m) @ t=0.4
0.033327556886835745
% es.Ez (V/m) @ t=0.4
-1.4246649656996415
% es.tEx (V/m) @ t=0.4
-0.44615474727043036
% es.tEy (V/m) @ t=0.4
0
% es.tEz (V/m) @ t=0.4
-1.4246649656996526
% V (V) @ t=0.4
0.00751721664723291
% es.normE (V/m) @ t=0.42
1.5095497196562104
% es.EX (V/m) @ t=0.42
-0.4503299498137233
% es.EY (V/m) @ t=0.42
0.033639651243662284
% es.EZ (V/m) @ t=0.42
-1.4379967919133363
% es.tEX (V/m) @ t=0.42
-0.45032994981373164
% es.tEY (V/m) @ t=0.42
0
% es.tEZ (V/m) @ t=0.42
-1.4379967919133456
% es.Ex (V/m) @ t=0.42
-0.4503299498137233
% es.Ey (V/m) @ t=0.42
0.033639651243662284
% es.Ez (V/m) @ t=0.42
-1.4379967919133363
% es.tEx (V/m) @ t=0.42
-0.45032994981373164
% es.tEy (V/m) @ t=0.42
0
% es.tEz (V/m) @ t=0.42
-1.4379967919133456
% V (V) @ t=0.42
0.007587554075527972
% es.normE (V/m) @ t=0.44
1.5235449781629935
% es.EX (V/m) @ t=0.44
-0.4545051523570187
% es.EY (V/m) @ t=0.44
0.033951745600505706
% es.EZ (V/m) @ t=0.44
-1.4513286181270315
% es.tEX (V/m) @ t=0.44
-0.45450515235702227
% es.tEY (V/m) @ t=0.44
0
% es.tEZ (V/m) @ t=0.44
-1.4513286181270466
% es.Ex (V/m) @ t=0.44
-0.4545051523570187
% es.Ey (V/m) @ t=0.44
0.033951745600505706
% es.Ez (V/m) @ t=0.44
-1.4513286181270315
% es.tEx (V/m) @ t=0.44
-0.45450515235702227
% es.tEy (V/m) @ t=0.44
0
% es.tEz (V/m) @ t=0.44
-1.4513286181270466
% V (V) @ t=0.44
0.0076578915038230345
% es.normE (V/m) @ t=0.46
1.5375402366698354
% es.EX (V/m) @ t=0.46
-0.45868035490031156
% es.EY (V/m) @ t=0.46
0.034263839957331135
% es.EZ (V/m) @ t=0.46
-1.4646604443407263
% es.tEX (V/m) @ t=0.46
-0.4586803549003129
% es.tEY (V/m) @ t=0.46
0
% es.tEZ (V/m) @ t=0.46
-1.4646604443407387
% es.Ex (V/m) @ t=0.46
-0.45868035490031156
% es.Ey (V/m) @ t=0.46
0.034263839957331135
% es.Ez (V/m) @ t=0.46
-1.4646604443407263
% es.tEx (V/m) @ t=0.46
-0.4586803549003129
% es.tEy (V/m) @ t=0.46
0
% es.tEz (V/m) @ t=0.46
-1.4646604443407387
% V (V) @ t=0.46
0.007728228932118096
% es.normE (V/m) @ t=0.48
1.5515354951767346
% es.EX (V/m) @ t=0.48
-0.4628555574436035
% es.EY (V/m) @ t=0.48
0.03457593431416386
% es.EZ (V/m) @ t=0.48
-1.4779922705544206
% es.tEX (V/m) @ t=0.48
-0.46285555744360707
% es.tEY (V/m) @ t=0.48
0
% es.tEZ (V/m) @ t=0.48
-1.4779922705544397
% es.Ex (V/m) @ t=0.48
-0.4628555574436035
% es.Ey (V/m) @ t=0.48
0.03457593431416386
% es.Ez (V/m) @ t=0.48
-1.4779922705544206
% es.tEx (V/m) @ t=0.48
-0.46285555744360707
% es.tEy (V/m) @ t=0.48
0
% es.tEz (V/m) @ t=0.48
-1.4779922705544397
% V (V) @ t=0.48
0.007798566360413159
% es.normE (V/m) @ t=0.5
1.5655307536836873
% es.EX (V/m) @ t=0.5
-0.4670307599869026
% es.EY (V/m) @ t=0.5
0.0348880286709964
% es.EZ (V/m) @ t=0.5
-1.4913240967681087
% es.tEX (V/m) @ t=0.5
-0.4670307599869048
% es.tEY (V/m) @ t=0.5
0
% es.tEZ (V/m) @ t=0.5
-1.4913240967681256
% es.Ex (V/m) @ t=0.5
-0.4670307599869026
% es.Ey (V/m) @ t=0.5
0.0348880286709964
% es.Ez (V/m) @ t=0.5
-1.4913240967681087
% es.tEx (V/m) @ t=0.5
-0.4670307599869048
% es.tEy (V/m) @ t=0.5
0
% es.tEz (V/m) @ t=0.5
-1.4913240967681256
% V (V) @ t=0.5
0.00786890378870822
% es.normE (V/m) @ t=0.52
1.5795260121907213
% es.EX (V/m) @ t=0.52
-0.47120596253019886
% es.EY (V/m) @ t=0.52
0.03520012302783071
% es.EZ (V/m) @ t=0.52
-1.5046559229818248
% es.tEX (V/m) @ t=0.52
-0.4712059625302061
% es.tEY (V/m) @ t=0.52
0
% es.tEZ (V/m) @ t=0.52
-1.5046559229818337
% es.Ex (V/m) @ t=0.52
-0.47120596253019886
% es.Ey (V/m) @ t=0.52
0.03520012302783071
% es.Ez (V/m) @ t=0.52
-1.5046559229818248
% es.tEx (V/m) @ t=0.52
-0.4712059625302061
% es.tEy (V/m) @ t=0.52
0
% es.tEz (V/m) @ t=0.52
-1.5046559229818337
% V (V) @ t=0.52
0.007939241217003283
% es.normE (V/m) @ t=0.54
1.5935212706977748
% es.EX (V/m) @ t=0.54
-0.47538116507349343
% es.EY (V/m) @ t=0.54
0.0355122173846617
% es.EZ (V/m) @ t=0.54
-1.5179877491955058
% es.tEX (V/m) @ t=0.54
-0.4753811650734967
% es.tEY (V/m) @ t=0.54
0
% es.tEZ (V/m) @ t=0.54
-1.5179877491955196
% es.Ex (V/m) @ t=0.54
-0.47538116507349343
% es.Ey (V/m) @ t=0.54
0.0355122173846617
% es.Ez (V/m) @ t=0.54
-1.5179877491955058
% es.tEx (V/m) @ t=0.54
-0.4753811650734967
% es.tEy (V/m) @ t=0.54
0
% es.tEz (V/m) @ t=0.54
-1.5179877491955196
% V (V) @ t=0.54
0.008009578645298346
% es.normE (V/m) @ t=0.56
1.6087148895642875
% es.EX (V/m) @ t=0.56
-0.47991365444416634
% es.EY (V/m) @ t=0.56
0.03585066258072355
% es.EZ (V/m) @ t=0.56
-1.532461222844557
% es.tEX (V/m) @ t=0.56
-0.4799136544441751
% es.tEY (V/m) @ t=0.56
0
% es.tEZ (V/m) @ t=0.56
-1.532461222844577
% es.Ex (V/m) @ t=0.56
-0.47991365444416634
% es.Ey (V/m) @ t=0.56
0.03585066258072355
% es.Ez (V/m) @ t=0.56
-1.532461222844557
% es.tEx (V/m) @ t=0.56
-0.4799136544441751
% es.tEy (V/m) @ t=0.56
0
% es.tEz (V/m) @ t=0.56
-1.532461222844577
% V (V) @ t=0.56
0.008085952427405405
% es.normE (V/m) @ t=0.58
1.624337138483206
% es.EX (V/m) @ t=0.58
-0.4845739383219818
% es.EY (V/m) @ t=0.58
0.03619853295635872
% es.EZ (V/m) @ t=0.58
-1.5473430414426974
% es.tEX (V/m) @ t=0.58
-0.4845739383219829
% es.tEY (V/m) @ t=0.58
0
% es.tEZ (V/m) @ t=0.58
-1.5473430414427192
% es.Ex (V/m) @ t=0.58
-0.4845739383219818
% es.Ey (V/m) @ t=0.58
0.03619853295635872
% es.Ez (V/m) @ t=0.58
-1.5473430414426974
% es.tEx (V/m) @ t=0.58
-0.4845739383219829
% es.tEy (V/m) @ t=0.58
0
% es.tEz (V/m) @ t=0.58
-1.5473430414427192
% V (V) @ t=0.58
0.008164485295158008
% es.normE (V/m) @ t=0.6
1.6399593874022123
% es.EX (V/m) @ t=0.6
-0.4892342221997896
% es.EY (V/m) @ t=0.6
0.03654640333199756
% es.EZ (V/m) @ t=0.6
-1.5622248600408364
% es.tEX (V/m) @ t=0.6
-0.4892342221997943
% es.tEY (V/m) @ t=0.6
0
% es.tEZ (V/m) @ t=0.6
-1.5622248600408533
% es.Ex (V/m) @ t=0.6
-0.4892342221997896
% es.Ey (V/m) @ t=0.6
0.03654640333199756
% es.Ez (V/m) @ t=0.6
-1.5622248600408364
% es.tEx (V/m) @ t=0.6
-0.4892342221997943
% es.tEy (V/m) @ t=0.6
0
% es.tEz (V/m) @ t=0.6
-1.5622248600408533
% V (V) @ t=0.6
0.008243018162910612
% es.normE (V/m) @ t=0.62
1.6555816363213056
% es.EX (V/m) @ t=0.62
-0.49389450607760804
% es.EY (V/m) @ t=0.62
0.036894273707650416
% es.EZ (V/m) @ t=0.62
-1.5771066786389683
% es.tEX (V/m) @ t=0.62
-0.49389450607761276
% es.tEY (V/m) @ t=0.62
0
% es.tEZ (V/m) @ t=0.62
-1.5771066786389811
% es.Ex (V/m) @ t=0.62
-0.49389450607760804
% es.Ey (V/m) @ t=0.62
0.036894273707650416
% es.Ez (V/m) @ t=0.62
-1.5771066786389683
% es.tEx (V/m) @ t=0.62
-0.49389450607761276
% es.tEy (V/m) @ t=0.62
0
% es.tEz (V/m) @ t=0.62
-1.5771066786389811
% V (V) @ t=0.62
0.008321551030663212
% es.normE (V/m) @ t=0.64
1.6712038852404991
% es.EX (V/m) @ t=0.64
-0.49855478995542546
% es.EY (V/m) @ t=0.64
0.03724214408329284
% es.EZ (V/m) @ t=0.64
-1.5919884972371152
% es.tEX (V/m) @ t=0.64
-0.4985547899554277
% es.tEY (V/m) @ t=0.64
0
% es.tEZ (V/m) @ t=0.64
-1.591988497237124
% es.Ex (V/m) @ t=0.64
-0.49855478995542546
% es.Ey (V/m) @ t=0.64
0.03724214408329284
% es.Ez (V/m) @ t=0.64
-1.5919884972371152
% es.tEx (V/m) @ t=0.64
-0.4985547899554277
% es.tEy (V/m) @ t=0.64
0
% es.tEz (V/m) @ t=0.64
-1.591988497237124
% V (V) @ t=0.64
0.008400083898415815
% es.normE (V/m) @ t=0.66
1.6868261341597692
% es.EX (V/m) @ t=0.66
-0.5032150738332386
% es.EY (V/m) @ t=0.66
0.037590014458942146
% es.EZ (V/m) @ t=0.66
-1.6068703158352542
% es.tEX (V/m) @ t=0.66
-0.5032150738332426
% es.tEY (V/m) @ t=0.66
0
% es.tEZ (V/m) @ t=0.66
-1.6068703158352662
% es.Ex (V/m) @ t=0.66
-0.5032150738332386
% es.Ey (V/m) @ t=0.66
0.037590014458942146
% es.Ez (V/m) @ t=0.66
-1.6068703158352542
% es.tEx (V/m) @ t=0.66
-0.5032150738332426
% es.tEy (V/m) @ t=0.66
0
% es.tEz (V/m) @ t=0.66
-1.6068703158352662
% V (V) @ t=0.66
0.008478616766168418
% es.normE (V/m) @ t=0.68
1.7024483830791008
% es.EX (V/m) @ t=0.68
-0.5078753577110526
% es.EY (V/m) @ t=0.68
0.03793788483458276
% es.EZ (V/m) @ t=0.68
-1.6217521344333719
% es.tEX (V/m) @ t=0.68
-0.5078753577110575
% es.tEY (V/m) @ t=0.68
0
% es.tEZ (V/m) @ t=0.68
-1.6217521344333878
% es.Ex (V/m) @ t=0.68
-0.5078753577110526
% es.Ey (V/m) @ t=0.68
0.03793788483458276
% es.Ez (V/m) @ t=0.68
-1.6217521344333719
% es.tEx (V/m) @ t=0.68
-0.5078753577110575
% es.tEy (V/m) @ t=0.68
0
% es.tEz (V/m) @ t=0.68
-1.6217521344333878
% V (V) @ t=0.68
0.00855714963392102
% es.normE (V/m) @ t=0.7
1.718070631998542
% es.EX (V/m) @ t=0.7
-0.5125356415888727
% es.EY (V/m) @ t=0.7
0.03828575521022652
% es.EZ (V/m) @ t=0.7
-1.6366339530315188
% es.tEX (V/m) @ t=0.7
-0.5125356415888795
% es.tEY (V/m) @ t=0.7
0
% es.tEZ (V/m) @ t=0.7
-1.6366339530315361
% es.Ex (V/m) @ t=0.7
-0.5125356415888727
% es.Ey (V/m) @ t=0.7
0.03828575521022652
% es.Ez (V/m) @ t=0.7
-1.6366339530315188
% es.tEx (V/m) @ t=0.7
-0.5125356415888795
% es.tEy (V/m) @ t=0.7
0
% es.tEz (V/m) @ t=0.7
-1.6366339530315361
% V (V) @ t=0.7
0.008635682501673621
% es.normE (V/m) @ t=0.72
1.733692880918038
% es.EX (V/m) @ t=0.72
-0.5171959254666811
% es.EY (V/m) @ t=0.72
0.038633625585869205
% es.EZ (V/m) @ t=0.72
-1.6515157716296445
% es.tEX (V/m) @ t=0.72
-0.5171959254666874
% es.tEY (V/m) @ t=0.72
0
% es.tEZ (V/m) @ t=0.72
-1.651515771629657
% es.Ex (V/m) @ t=0.72
-0.5171959254666811
% es.Ey (V/m) @ t=0.72
0.038633625585869205
% es.Ez (V/m) @ t=0.72
-1.6515157716296445
% es.tEx (V/m) @ t=0.72
-0.5171959254666874
% es.tEy (V/m) @ t=0.72
0
% es.tEz (V/m) @ t=0.72
-1.651515771629657
% V (V) @ t=0.72
0.008714215369426223
% es.normE (V/m) @ t=0.74
1.749315129837623
% es.EX (V/m) @ t=0.74
-0.5218562093444943
% es.EY (V/m) @ t=0.74
0.03898149596150959
% es.EZ (V/m) @ t=0.74
-1.6663975902277834
% es.tEX (V/m) @ t=0.74
-0.5218562093444987
% es.tEY (V/m) @ t=0.74
0
% es.tEZ (V/m) @ t=0.74
-1.6663975902277919
% es.Ex (V/m) @ t=0.74
-0.5218562093444943
% es.Ey (V/m) @ t=0.74
0.03898149596150959
% es.Ez (V/m) @ t=0.74
-1.6663975902277834
% es.tEx (V/m) @ t=0.74
-0.5218562093444987
% es.tEy (V/m) @ t=0.74
0
% es.tEz (V/m) @ t=0.74
-1.6663975902277919
% V (V) @ t=0.74
0.008792748237178825
% es.normE (V/m) @ t=0.76
1.764937378757263
% es.EX (V/m) @ t=0.76
-0.5265164932223092
% es.EY (V/m) @ t=0.76
0.039329366337160894
% es.EZ (V/m) @ t=0.76
-1.681279408825901
% es.tEX (V/m) @ t=0.76
-0.5265164932223101
% es.tEY (V/m) @ t=0.76
0
% es.tEZ (V/m) @ t=0.76
-1.6812794088259206
% es.Ex (V/m) @ t=0.76
-0.5265164932223092
% es.Ey (V/m) @ t=0.76
0.039329366337160894
% es.Ez (V/m) @ t=0.76
-1.681279408825901
% es.tEx (V/m) @ t=0.76
-0.5265164932223101
% es.tEy (V/m) @ t=0.76
0
% es.tEz (V/m) @ t=0.76
-1.6812794088259206
% V (V) @ t=0.76
0.008871281104931428
% es.normE (V/m) @ t=0.78
1.780559627676996
% es.EX (V/m) @ t=0.78
-0.5311767771001249
% es.EY (V/m) @ t=0.78
0.03967723671280843
% es.EZ (V/m) @ t=0.78
-1.696161227424041
% es.tEX (V/m) @ t=0.78
-0.5311767771001286
% es.tEY (V/m) @ t=0.78
0
% es.tEZ (V/m) @ t=0.78
-1.6961612274240547
% es.Ex (V/m) @ t=0.78
-0.5311767771001249
% es.Ey (V/m) @ t=0.78
0.03967723671280843
% es.Ez (V/m) @ t=0.78
-1.696161227424041
% es.tEx (V/m) @ t=0.78
-0.5311767771001286
% es.tEy (V/m) @ t=0.78
0
% es.tEz (V/m) @ t=0.78
-1.6961612274240547
% V (V) @ t=0.78
0.008949813972684031
% es.normE (V/m) @ t=0.8
1.7961818765967958
% es.EX (V/m) @ t=0.8
-0.5358370609779362
% es.EY (V/m) @ t=0.8
0.040025107088447295
% es.EZ (V/m) @ t=0.8
-1.71104304602218
% es.tEX (V/m) @ t=0.8
-0.5358370609779435
% es.tEY (V/m) @ t=0.8
0
% es.tEZ (V/m) @ t=0.8
-1.7110430460221968
% es.Ex (V/m) @ t=0.8
-0.5358370609779362
% es.Ey (V/m) @ t=0.8
0.040025107088447295
% es.Ez (V/m) @ t=0.8
-1.71104304602218
% es.tEx (V/m) @ t=0.8
-0.5358370609779435
% es.tEy (V/m) @ t=0.8
0
% es.tEz (V/m) @ t=0.8
-1.7110430460221968
% V (V) @ t=0.8
0.009028346840436633
% es.normE (V/m) @ t=0.82
1.8120069403327088
% es.EX (V/m) @ t=0.82
-0.5405578825410716
% es.EY (V/m) @ t=0.82
0.04037755428231396
% es.EZ (V/m) @ t=0.82
-1.7261180514841175
% es.tEX (V/m) @ t=0.82
-0.5405578825410764
% es.tEY (V/m) @ t=0.82
0
% es.tEZ (V/m) @ t=0.82
-1.726118051484126
% es.Ex (V/m) @ t=0.82
-0.5405578825410716
% es.Ey (V/m) @ t=0.82
0.04037755428231396
% es.Ez (V/m) @ t=0.82
-1.7261180514841175
% es.tEx (V/m) @ t=0.82
-0.5405578825410764
% es.tEy (V/m) @ t=0.82
0
% es.tEz (V/m) @ t=0.82
-1.726118051484126
% V (V) @ t=0.82
0.009107897038585801
% es.normE (V/m) @ t=0.84
1.829476053195534
% es.EX (V/m) @ t=0.84
-0.5457694322010852
% es.EY (V/m) @ t=0.84
0.04076710189193422
% es.EZ (V/m) @ t=0.84
-1.742759060362074
% es.tEX (V/m) @ t=0.84
-0.5457694322010909
% es.tEY (V/m) @ t=0.84
0
% es.tEZ (V/m) @ t=0.84
-1.7427590603620873
% es.Ex (V/m) @ t=0.84
-0.5457694322010852
% es.Ey (V/m) @ t=0.84
0.04076710189193422
% es.Ez (V/m) @ t=0.84
-1.742759060362074
% es.tEx (V/m) @ t=0.84
-0.5457694322010909
% es.tEy (V/m) @ t=0.84
0
% es.tEz (V/m) @ t=0.84
-1.7427590603620873
% V (V) @ t=0.84
0.00919569387858715
% es.normE (V/m) @ t=0.86
1.8469451660584482
% es.EX (V/m) @ t=0.86
-0.5509809818611016
% es.EY (V/m) @ t=0.86
0.0411566495015578
% es.EZ (V/m) @ t=0.86
-1.7594000692400367
% es.tEX (V/m) @ t=0.86
-0.5509809818611053
% es.tEY (V/m) @ t=0.86
0
% es.tEZ (V/m) @ t=0.86
-1.7594000692400478
% es.Ex (V/m) @ t=0.86
-0.5509809818611016
% es.Ey (V/m) @ t=0.86
0.0411566495015578
% es.Ez (V/m) @ t=0.86
-1.7594000692400367
% es.tEx (V/m) @ t=0.86
-0.5509809818611053
% es.tEy (V/m) @ t=0.86
0
% es.tEz (V/m) @ t=0.86
-1.7594000692400478
% V (V) @ t=0.86
0.0092834907185885
% es.normE (V/m) @ t=0.88
1.8644142789214484
% es.EX (V/m) @ t=0.88
-0.5561925315211127
% es.EY (V/m) @ t=0.88
0.04154619711116515
% es.EZ (V/m) @ t=0.88
-1.776041078118007
% es.tEX (V/m) @ t=0.88
-0.5561925315211198
% es.tEY (V/m) @ t=0.88
0
% es.tEZ (V/m) @ t=0.88
-1.7760410781180163
% es.Ex (V/m) @ t=0.88
-0.5561925315211127
% es.Ey (V/m) @ t=0.88
0.04154619711116515
% es.Ez (V/m) @ t=0.88
-1.776041078118007
% es.tEx (V/m) @ t=0.88
-0.5561925315211198
% es.tEy (V/m) @ t=0.88
0
% es.tEz (V/m) @ t=0.88
-1.7760410781180163
% V (V) @ t=0.88
0.009371287558589849
% es.normE (V/m) @ t=0.9
1.8818833917845152
% es.EX (V/m) @ t=0.9
-0.5614040811811289
% es.EY (V/m) @ t=0.9
0.04193574472079409
% es.EZ (V/m) @ t=0.9
-1.7926820869959634
% es.tEX (V/m) @ t=0.9
-0.5614040811811343
% es.tEY (V/m) @ t=0.9
0
% es.tEZ (V/m) @ t=0.9
-1.7926820869959839
% es.Ex (V/m) @ t=0.9
-0.5614040811811289
% es.Ey (V/m) @ t=0.9
0.04193574472079409
% es.Ez (V/m) @ t=0.9
-1.7926820869959634
% es.tEx (V/m) @ t=0.9
-0.5614040811811343
% es.tEy (V/m) @ t=0.9
0
% es.tEz (V/m) @ t=0.9
-1.7926820869959839
% V (V) @ t=0.9
0.009459084398591198
% es.normE (V/m) @ t=0.92
1.8993525046476716
% es.EX (V/m) @ t=0.92
-0.5666156308411463
% es.EY (V/m) @ t=0.92
0.04232529233040902
% es.EZ (V/m) @ t=0.92
-1.8093230958739337
% es.tEX (V/m) @ t=0.92
-0.5666156308411487
% es.tEY (V/m) @ t=0.92
0
% es.tEZ (V/m) @ t=0.92
-1.8093230958739515
% es.Ex (V/m) @ t=0.92
-0.5666156308411463
% es.Ey (V/m) @ t=0.92
0.04232529233040902
% es.Ez (V/m) @ t=0.92
-1.8093230958739337
% es.tEx (V/m) @ t=0.92
-0.5666156308411487
% es.tEy (V/m) @ t=0.92
0
% es.tEz (V/m) @ t=0.92
-1.8093230958739515
% V (V) @ t=0.92
0.009546881238592545
% es.normE (V/m) @ t=0.94
1.916821617510902
% es.EX (V/m) @ t=0.94
-0.5718271805011617
% es.EY (V/m) @ t=0.94
0.04271483994003061
% es.EZ (V/m) @ t=0.94
-1.8259641047519044
% es.tEX (V/m) @ t=0.94
-0.5718271805011668
% es.tEY (V/m) @ t=0.94
0
% es.tEZ (V/m) @ t=0.94
-1.825964104751927
% es.Ex (V/m) @ t=0.94
-0.5718271805011617
% es.Ey (V/m) @ t=0.94
0.04271483994003061
% es.Ez (V/m) @ t=0.94
-1.8259641047519044
% es.tEx (V/m) @ t=0.94
-0.5718271805011668
% es.tEy (V/m) @ t=0.94
0
% es.tEz (V/m) @ t=0.94
-1.825964104751927
% V (V) @ t=0.94
0.009634678078593896
% es.normE (V/m) @ t=0.96
1.9342907303741887
% es.EX (V/m) @ t=0.96
-0.577038730161171
% es.EY (V/m) @ t=0.96
0.04310438754964531
% es.EZ (V/m) @ t=0.96
-1.8426051136298605
% es.tEX (V/m) @ t=0.96
-0.5770387301611741
% es.tEY (V/m) @ t=0.96
0
% es.tEZ (V/m) @ t=0.96
-1.8426051136298804
% es.Ex (V/m) @ t=0.96
-0.577038730161171
% es.Ey (V/m) @ t=0.96
0.04310438754964531
% es.Ez (V/m) @ t=0.96
-1.8426051136298605
% es.tEx (V/m) @ t=0.96
-0.5770387301611741
% es.tEy (V/m) @ t=0.96
0
% es.tEz (V/m) @ t=0.96
-1.8426051136298804
% V (V) @ t=0.96
0.009722474918595245
% es.normE (V/m) @ t=0.98
1.9517598432375554
% es.EX (V/m) @ t=0.98
-0.5822502798211873
% es.EY (V/m) @ t=0.98
0.04349393515926912
% es.EZ (V/m) @ t=0.98
-1.859246122507824
% es.tEX (V/m) @ t=0.98
-0.5822502798211922
% es.tEY (V/m) @ t=0.98
0
% es.tEZ (V/m) @ t=0.98
-1.8592461225078418
% es.Ex (V/m) @ t=0.98
-0.5822502798211873
% es.Ey (V/m) @ t=0.98
0.04349393515926912
% es.Ez (V/m) @ t=0.98
-1.859246122507824
% es.tEx (V/m) @ t=0.98
-0.5822502798211922
% es.tEy (V/m) @ t=0.98
0
% es.tEz (V/m) @ t=0.98
-1.8592461225078418
% V (V) @ t=0.98
0.009810271758596594
% es.normE (V/m) @ t=1
1.9692289561009972
% es.EX (V/m) @ t=1
-0.5874618294812091
% es.EY (V/m) @ t=1
0.04388348276888182
% es.EZ (V/m) @ t=1
-1.8758871313857943
% es.tEX (V/m) @ t=1
-0.5874618294812102
% es.tEY (V/m) @ t=1
0
% es.tEZ (V/m) @ t=1
-1.8758871313858103
% es.Ex (V/m) @ t=1
-0.5874618294812091
% es.Ey (V/m) @ t=1
0.04388348276888182
% es.Ez (V/m) @ t=1
-1.8758871313857943
% es.tEx (V/m) @ t=1
-0.5874618294812102
% es.tEy (V/m) @ t=1
0
% es.tEz (V/m) @ t=1
-1.8758871313858103
% V (V) @ t=1
0.009898068598597945
% es.normE (V/m) @ t=1.02
1.9866980689644906
% es.EX (V/m) @ t=1.02
-0.5926733791412226
% es.EY (V/m) @ t=1.02
0.04427303037850722
% es.EZ (V/m) @ t=1.02
-1.8925281402637508
% es.tEX (V/m) @ t=1.02
-0.5926733791412246
% es.tEY (V/m) @ t=1.02
0
% es.tEZ (V/m) @ t=1.02
-1.8925281402637788
% es.Ex (V/m) @ t=1.02
-0.5926733791412226
% es.Ey (V/m) @ t=1.02
0.04427303037850722
% es.Ez (V/m) @ t=1.02
-1.8925281402637508
% es.tEx (V/m) @ t=1.02