% Model:              1 neuron.mph
% Version:            COMSOL 6.1.0.252
% Date:               Mar 18 2023, 12:45
% Dimension:          0
% Nodes:              14017
% Expressions:        14017
% Description:        Electric field norm, Electric field, X component, Electric field, Y component, Electric field, Z component, Tangential electric field, X component, Tangential electric field, Y component, Tangential electric field, Z component, Electric field, x component, Electric field, y component, Electric field, z component, Tangential electric field, x component, Tangential electric field, y component, Tangential electric field, z component, Electric potential
% Length unit:        mm
% x
1.66
% y
12.2
% z
1
% es.normE (V/m) @ t=0
1.4975745365010262
% es.EX (V/m) @ t=0
-0.5337933609889014
% es.EY (V/m) @ t=0
0.16958320535733995
% es.EZ (V/m) @ t=0
1.3845954832534448
% es.tEX (V/m) @ t=0
-0.5337933609889032
% es.tEY (V/m) @ t=0
0
% es.tEZ (V/m) @ t=0
1.3845954832534453
% es.Ex (V/m) @ t=0
-0.5337933609889014
% es.Ey (V/m) @ t=0
0.16958320535733995
% es.Ez (V/m) @ t=0
1.3845954832534448
% es.tEx (V/m) @ t=0
-0.5337933609889032
% es.tEy (V/m) @ t=0
0
% es.tEz (V/m) @ t=0
1.3845954832534453
% V (V) @ t=0
0.007291373286720754
% es.normE (V/m) @ t=0.02
1.2934717769109578
% es.EX (V/m) @ t=0.02
-0.4610432592854583
% es.EY (V/m) @ t=0.02
0.14647090342220803
% es.EZ (V/m) @ t=0.02
1.1958905127674808
% es.tEX (V/m) @ t=0.02
-0.4610432592854672
% es.tEY (V/m) @ t=0.02
0
% es.tEZ (V/m) @ t=0.02
1.195890512767483
% es.Ex (V/m) @ t=0.02
-0.4610432592854583
% es.Ey (V/m) @ t=0.02
0.14647090342220803
% es.Ez (V/m) @ t=0.02
1.1958905127674808
% es.tEx (V/m) @ t=0.02
-0.4610432592854672
% es.tEy (V/m) @ t=0.02
0
% es.tEz (V/m) @ t=0.02
1.195890512767483
% V (V) @ t=0.02
0.006297640037441506
% es.normE (V/m) @ t=0.04
1.3053698735070056
% es.EX (V/m) @ t=0.04
-0.4652841985038124
% es.EY (V/m) @ t=0.04
0.1478182316637745
% es.EZ (V/m) @ t=0.04
1.2068910011203893
% es.tEX (V/m) @ t=0.04
-0.46528419850381775
% es.tEY (V/m) @ t=0.04
0
% es.tEZ (V/m) @ t=0.04
1.2068910011203862
% es.Ex (V/m) @ t=0.04
-0.4652841985038124
% es.Ey (V/m) @ t=0.04
0.1478182316637745
% es.Ez (V/m) @ t=0.04
1.2068910011203893
% es.tEx (V/m) @ t=0.04
-0.46528419850381775
% es.tEy (V/m) @ t=0.04
0
% es.tEz (V/m) @ t=0.04
1.2068910011203862
% V (V) @ t=0.04
0.006355569171363798
% es.normE (V/m) @ t=0.06
1.3173772659443963
% es.EX (V/m) @ t=0.06
-0.46956409674076804
% es.EY (V/m) @ t=0.06
0.14917793117429223
% es.EZ (V/m) @ t=0.06
1.2179925395624935
% es.tEX (V/m) @ t=0.06
-0.46956409674077515
% es.tEY (V/m) @ t=0.06
0
% es.tEZ (V/m) @ t=0.06
1.2179925395624922
% es.Ex (V/m) @ t=0.06
-0.46956409674076804
% es.Ey (V/m) @ t=0.06
0.14917793117429223
% es.Ez (V/m) @ t=0.06
1.2179925395624935
% es.tEx (V/m) @ t=0.06
-0.46956409674077515
% es.tEy (V/m) @ t=0.06
0
% es.tEz (V/m) @ t=0.06
1.2179925395624922
% V (V) @ t=0.06
0.006414030641170133
% es.normE (V/m) @ t=0.08
1.3295631574986793
% es.EX (V/m) @ t=0.08
-0.473907618431888
% es.EY (V/m) @ t=0.08
0.15055784520416404
% es.EZ (V/m) @ t=0.08
1.2292591110027522
% es.tEX (V/m) @ t=0.08
-0.4739076184318951
% es.tEY (V/m) @ t=0.08
0
% es.tEZ (V/m) @ t=0.08
1.2292591110027526
% es.Ex (V/m) @ t=0.08
-0.473907618431888
% es.Ey (V/m) @ t=0.08
0.15055784520416404
% es.Ez (V/m) @ t=0.08
1.2292591110027522
% es.tEx (V/m) @ t=0.08
-0.4739076184318951
% es.tEy (V/m) @ t=0.08
0
% es.tEz (V/m) @ t=0.08
1.2292591110027526
% V (V) @ t=0.08
0.0064733611273084255
% es.normE (V/m) @ t=0.1
1.3418829643331809
% es.EX (V/m) @ t=0.1
-0.4782988723069973
% es.EY (V/m) @ t=0.1
0.15195292476019173
% es.EZ (V/m) @ t=0.1
1.2406494950454423
% es.tEX (V/m) @ t=0.1
-0.4782988723070062
% es.tEY (V/m) @ t=0.1
0
% es.tEZ (V/m) @ t=0.1
1.2406494950454423
% es.Ex (V/m) @ t=0.1
-0.4782988723069973
% es.Ey (V/m) @ t=0.1
0.15195292476019173
% es.Ez (V/m) @ t=0.1
1.2406494950454423
% es.tEx (V/m) @ t=0.1
-0.4782988723070062
% es.tEy (V/m) @ t=0.1
0
% es.tEz (V/m) @ t=0.1
1.2406494950454423
% V (V) @ t=0.1
0.006533343575022942
% es.normE (V/m) @ t=0.12
1.3542027711676843
% es.EX (V/m) @ t=0.12
-0.4826901261821136
% es.EY (V/m) @ t=0.12
0.15334800431620565
% es.EZ (V/m) @ t=0.12
1.2520398790881337
% es.tEX (V/m) @ t=0.12
-0.4826901261821207
% es.tEY (V/m) @ t=0.12
0
% es.tEZ (V/m) @ t=0.12
1.252039879088132
% es.Ex (V/m) @ t=0.12
-0.4826901261821136
% es.Ey (V/m) @ t=0.12
0.15334800431620565
% es.Ez (V/m) @ t=0.12
1.2520398790881337
% es.tEx (V/m) @ t=0.12
-0.4826901261821207
% es.tEy (V/m) @ t=0.12
0
% es.tEz (V/m) @ t=0.12
1.252039879088132
% V (V) @ t=0.12
0.006593326022737457
% es.normE (V/m) @ t=0.14
1.366623573300597
% es.EX (V/m) @ t=0.14
-0.4871173799273927
% es.EY (V/m) @ t=0.14
0.15475451675143748
% es.EZ (V/m) @ t=0.14
1.2635236389749949
% es.tEX (V/m) @ t=0.14
-0.4871173799273998
% es.tEY (V/m) @ t=0.14
0
% es.tEZ (V/m) @ t=0.14
1.2635236389749949
% es.Ex (V/m) @ t=0.14
-0.4871173799273927
% es.Ey (V/m) @ t=0.14
0.15475451675143748
% es.Ez (V/m) @ t=0.14
1.2635236389749949
% es.tEx (V/m) @ t=0.14
-0.4871173799273998
% es.tEy (V/m) @ t=0.14
0
% es.tEz (V/m) @ t=0.14
1.2635236389749949
% V (V) @ t=0.14
0.006653800334182291
% es.normE (V/m) @ t=0.16
1.3796046778559012
% es.EX (V/m) @ t=0.16
-0.49174435400388594
% es.EY (V/m) @ t=0.16
0.15622445659388406
% es.EZ (V/m) @ t=0.16
1.2755254300227983
% es.tEX (V/m) @ t=0.16
-0.4917443540038895
% es.tEY (V/m) @ t=0.16
0
% es.tEZ (V/m) @ t=0.16
1.2755254300228005
% es.Ex (V/m) @ t=0.16
-0.49174435400388594
% es.Ey (V/m) @ t=0.16
0.15622445659388406
% es.Ez (V/m) @ t=0.16
1.2755254300227983
% es.tEx (V/m) @ t=0.16
-0.4917443540038895
% es.tEy (V/m) @ t=0.16
0
% es.tEz (V/m) @ t=0.16
1.2755254300228005
% V (V) @ t=0.16
0.006717003410667785
% es.normE (V/m) @ t=0.18
1.3925857824112198
% es.EX (V/m) @ t=0.18
-0.49637132808039164
% es.EY (V/m) @ t=0.18
0.15769439643631866
% es.EZ (V/m) @ t=0.18
1.2875272210706132
% es.tEX (V/m) @ t=0.18
-0.4963713280804005
% es.tEY (V/m) @ t=0.18
0
% es.tEZ (V/m) @ t=0.18
1.287527221070615
% es.Ex (V/m) @ t=0.18
-0.49637132808039164
% es.Ey (V/m) @ t=0.18
0.15769439643631866
% es.Ez (V/m) @ t=0.18
1.2875272210706132
% es.tEx (V/m) @ t=0.18
-0.4963713280804005
% es.tEy (V/m) @ t=0.18
0
% es.tEz (V/m) @ t=0.18
1.287527221070615
% V (V) @ t=0.18
0.00678020648715328
% es.normE (V/m) @ t=0.2
1.4055668869665325
% es.EX (V/m) @ t=0.2
-0.5009983021568868
% es.EY (V/m) @ t=0.2
0.15916433627876503
% es.EZ (V/m) @ t=0.2
1.2995290121184246
% es.tEX (V/m) @ t=0.2
-0.5009983021568939
% es.tEY (V/m) @ t=0.2
0
% es.tEZ (V/m) @ t=0.2
1.299529012118426
% es.Ex (V/m) @ t=0.2
-0.5009983021568868
% es.Ey (V/m) @ t=0.2
0.15916433627876503
% es.Ez (V/m) @ t=0.2
1.2995290121184246
% es.tEx (V/m) @ t=0.2
-0.5009983021568939
% es.tEy (V/m) @ t=0.2
0
% es.tEz (V/m) @ t=0.2
1.299529012118426
% V (V) @ t=0.2
0.006843409563638776
% es.normE (V/m) @ t=0.22
1.4185479915218486
% es.EX (V/m) @ t=0.22
-0.5056252762333837
% es.EY (V/m) @ t=0.22
0.1606342761211984
% es.EZ (V/m) @ t=0.22
1.3115308031662387
% es.tEX (V/m) @ t=0.22
-0.5056252762333908
% es.tEY (V/m) @ t=0.22
0
% es.tEZ (V/m) @ t=0.22
1.3115308031662396
% es.Ex (V/m) @ t=0.22
-0.5056252762333837
% es.Ey (V/m) @ t=0.22
0.1606342761211984
% es.Ez (V/m) @ t=0.22
1.3115308031662387
% es.tEx (V/m) @ t=0.22
-0.5056252762333908
% es.tEy (V/m) @ t=0.22
0
% es.tEz (V/m) @ t=0.22
1.3115308031662396
% V (V) @ t=0.22
0.006906612640124271
% es.normE (V/m) @ t=0.24
1.4315290960771558
% es.EX (V/m) @ t=0.24
-0.5102522503098876
% es.EY (V/m) @ t=0.24
0.162104215963641
% es.EZ (V/m) @ t=0.24
1.32353259421404
% es.tEX (V/m) @ t=0.24
-0.5102522503098947
% es.tEY (V/m) @ t=0.24
0
% es.tEZ (V/m) @ t=0.24
1.3235325942140417
% es.Ex (V/m) @ t=0.24
-0.5102522503098876
% es.Ey (V/m) @ t=0.24
0.162104215963641
% es.Ez (V/m) @ t=0.24
1.32353259421404
% es.tEx (V/m) @ t=0.24
-0.5102522503098947
% es.tEy (V/m) @ t=0.24
0
% es.tEz (V/m) @ t=0.24
1.3235325942140417
% V (V) @ t=0.24
0.006969815716609765
% es.normE (V/m) @ t=0.26
1.4445102006324775
% es.EX (V/m) @ t=0.26
-0.5148792243863951
% es.EY (V/m) @ t=0.26
0.1635741558060827
% es.EZ (V/m) @ t=0.26
1.335534385261854
% es.tEX (V/m) @ t=0.26
-0.5148792243864022
% es.tEY (V/m) @ t=0.26
0
% es.tEZ (V/m) @ t=0.26
1.3355343852618562
% es.Ex (V/m) @ t=0.26
-0.5148792243863951
% es.Ey (V/m) @ t=0.26
0.1635741558060827
% es.Ez (V/m) @ t=0.26
1.335534385261854
% es.tEx (V/m) @ t=0.26
-0.5148792243864022
% es.tEy (V/m) @ t=0.26
0
% es.tEz (V/m) @ t=0.26
1.3355343852618562
% V (V) @ t=0.26
0.007033018793095259
% es.normE (V/m) @ t=0.28
1.4579618825115612
% es.EX (V/m) @ t=0.28
-0.519674093771702
% es.EY (V/m) @ t=0.28
0.16509690100672647
% es.EZ (V/m) @ t=0.28
1.347971222256334
% es.tEX (V/m) @ t=0.28
-0.5196740937717038
% es.tEY (V/m) @ t=0.28
0
% es.tEZ (V/m) @ t=0.28
1.3479712222563327
% es.Ex (V/m) @ t=0.28
-0.519674093771702
% es.Ey (V/m) @ t=0.28
0.16509690100672647
% es.Ez (V/m) @ t=0.28
1.347971222256334
% es.tEx (V/m) @ t=0.28
-0.5196740937717038
% es.tEy (V/m) @ t=0.28
0
% es.tEz (V/m) @ t=0.28
1.3479712222563327
% V (V) @ t=0.28
0.0070985312017595534
% es.normE (V/m) @ t=0.3
1.472434698815376
% es.EX (V/m) @ t=0.3
-0.5248332894231136
% es.EY (V/m) @ t=0.3
0.16673423177338587
% es.EZ (V/m) @ t=0.3
1.3613520919725302
% es.tEX (V/m) @ t=0.3
-0.5248332894231154
% es.tEY (V/m) @ t=0.3
0
% es.tEZ (V/m) @ t=0.3
1.361352091972532
% es.Ex (V/m) @ t=0.3
-0.5248332894231136
% es.Ey (V/m) @ t=0.3
0.16673423177338587
% es.Ez (V/m) @ t=0.3
1.3613520919725302
% es.tEx (V/m) @ t=0.3
-0.5248332894231154
% es.tEy (V/m) @ t=0.3
0
% es.tEz (V/m) @ t=0.3
1.361352091972532
% V (V) @ t=0.3
0.007169054771104304
% es.normE (V/m) @ t=0.32
1.4869075151217577
% es.EX (V/m) @ t=0.32
-0.529992485074527
% es.EY (V/m) @ t=0.32
0.16837156254003927
% es.EZ (V/m) @ t=0.32
1.37473296168874
% es.tEX (V/m) @ t=0.32
-0.5299924850745341
% es.tEY (V/m) @ t=0.32
0
% es.tEZ (V/m) @ t=0.32
1.3747329616887427
% es.Ex (V/m) @ t=0.32
-0.529992485074527
% es.Ey (V/m) @ t=0.32
0.16837156254003927
% es.Ez (V/m) @ t=0.32
1.37473296168874
% es.tEx (V/m) @ t=0.32
-0.5299924850745341
% es.tEy (V/m) @ t=0.32
0
% es.tEz (V/m) @ t=0.32
1.3747329616887427
% V (V) @ t=0.32
0.007239578340449054
% es.normE (V/m) @ t=0.34
1.501380331430614
% es.EX (V/m) @ t=0.34
-0.535151680725951
% es.EY (V/m) @ t=0.34
0.17000889330670443
% es.EZ (V/m) @ t=0.34
1.3881138314049388
% es.tEX (V/m) @ t=0.34
-0.5351516807259528
% es.tEY (V/m) @ t=0.34
0
% es.tEZ (V/m) @ t=0.34
1.3881138314049437
% es.Ex (V/m) @ t=0.34
-0.535151680725951
% es.Ey (V/m) @ t=0.34
0.17000889330670443
% es.Ez (V/m) @ t=0.34
1.3881138314049388
% es.tEx (V/m) @ t=0.34
-0.5351516807259528
% es.tEy (V/m) @ t=0.34
0
% es.tEz (V/m) @ t=0.34
1.3881138314049437
% V (V) @ t=0.34
0.007310101909793804
% es.normE (V/m) @ t=0.36
1.515853147741883
% es.EX (V/m) @ t=0.36
-0.5403108763773644
% es.EY (V/m) @ t=0.36
0.17164622407335428
% es.EZ (V/m) @ t=0.36
1.4014947011211483
% es.tEX (V/m) @ t=0.36
-0.5403108763773715
% es.tEY (V/m) @ t=0.36
0
% es.tEZ (V/m) @ t=0.36
1.4014947011211474
% es.Ex (V/m) @ t=0.36
-0.5403108763773644
% es.Ey (V/m) @ t=0.36
0.17164622407335428
% es.Ez (V/m) @ t=0.36
1.4014947011211483
% es.tEx (V/m) @ t=0.36
-0.5403108763773715
% es.tEy (V/m) @ t=0.36
0
% es.tEz (V/m) @ t=0.36
1.4014947011211474
% V (V) @ t=0.36
0.007380625479138554
% es.normE (V/m) @ t=0.38
1.530325964055495
% es.EX (V/m) @ t=0.38
-0.5454700720287902
% es.EY (V/m) @ t=0.38
0.17328355484000924
% es.EZ (V/m) @ t=0.38
1.4148755708373537
% es.tEX (V/m) @ t=0.38
-0.5454700720287973
% es.tEY (V/m) @ t=0.38
0
% es.tEZ (V/m) @ t=0.38
1.4148755708373537
% es.Ex (V/m) @ t=0.38
-0.5454700720287902
% es.Ey (V/m) @ t=0.38
0.17328355484000924
% es.Ez (V/m) @ t=0.38
1.4148755708373537
% es.tEx (V/m) @ t=0.38
-0.5454700720287973
% es.tEy (V/m) @ t=0.38
0
% es.tEz (V/m) @ t=0.38
1.4148755708373537
% V (V) @ t=0.38
0.007451149048483305
% es.normE (V/m) @ t=0.4
1.544798780371372
% es.EX (V/m) @ t=0.4
-0.5506292676802018
% es.EY (V/m) @ t=0.4
0.17492088560666974
% es.EZ (V/m) @ t=0.4
1.4282564405535543
% es.tEX (V/m) @ t=0.4
-0.5506292676802089
% es.tEY (V/m) @ t=0.4
0
% es.tEZ (V/m) @ t=0.4
1.4282564405535565
% es.Ex (V/m) @ t=0.4
-0.5506292676802018
% es.Ey (V/m) @ t=0.4
0.17492088560666974
% es.Ez (V/m) @ t=0.4
1.4282564405535543
% es.tEx (V/m) @ t=0.4
-0.5506292676802089
% es.tEy (V/m) @ t=0.4
0
% es.tEz (V/m) @ t=0.4
1.4282564405535565
% V (V) @ t=0.4
0.007521672617828054
% es.normE (V/m) @ t=0.42
1.5592715966894688
% es.EX (V/m) @ t=0.42
-0.5557884633316276
% es.EY (V/m) @ t=0.42
0.17655821637331892
% es.EZ (V/m) @ t=0.42
1.4416373102697593
% es.tEX (V/m) @ t=0.42
-0.5557884633316347
% es.tEY (V/m) @ t=0.42
0
% es.tEZ (V/m) @ t=0.42
1.4416373102697575
% es.Ex (V/m) @ t=0.42
-0.5557884633316276
% es.Ey (V/m) @ t=0.42
0.17655821637331892
% es.Ez (V/m) @ t=0.42
1.4416373102697593
% es.tEx (V/m) @ t=0.42
-0.5557884633316347
% es.tEy (V/m) @ t=0.42
0
% es.tEz (V/m) @ t=0.42
1.4416373102697575
% V (V) @ t=0.42
0.007592196187172805
% es.normE (V/m) @ t=0.44
1.573744413009707
% es.EX (V/m) @ t=0.44
-0.5609476589830392
% es.EY (V/m) @ t=0.44
0.1781955471399722
% es.EZ (V/m) @ t=0.44
1.4550181799859594
% es.tEX (V/m) @ t=0.44
-0.5609476589830463
% es.tEY (V/m) @ t=0.44
0
% es.tEZ (V/m) @ t=0.44
1.4550181799859603
% es.Ex (V/m) @ t=0.44
-0.5609476589830392
% es.Ey (V/m) @ t=0.44
0.1781955471399722
% es.Ez (V/m) @ t=0.44
1.4550181799859594
% es.tEx (V/m) @ t=0.44
-0.5609476589830463
% es.tEy (V/m) @ t=0.44
0
% es.tEz (V/m) @ t=0.44
1.4550181799859603
% V (V) @ t=0.44
0.007662719756517557
% es.normE (V/m) @ t=0.46
1.5882172293320493
% es.EX (V/m) @ t=0.46
-0.5661068546344615
% es.EY (V/m) @ t=0.46
0.17983287790662916
% es.EZ (V/m) @ t=0.46
1.4683990497021684
% es.tEX (V/m) @ t=0.46
-0.5661068546344651
% es.tEY (V/m) @ t=0.46
0
% es.tEZ (V/m) @ t=0.46
1.4683990497021684
% es.Ex (V/m) @ t=0.46
-0.5661068546344615
% es.Ey (V/m) @ t=0.46
0.17983287790662916
% es.Ez (V/m) @ t=0.46
1.4683990497021684
% es.tEx (V/m) @ t=0.46
-0.5661068546344651
% es.tEy (V/m) @ t=0.46
0
% es.tEz (V/m) @ t=0.46
1.4683990497021684
% V (V) @ t=0.46
0.007733243325862307
% es.normE (V/m) @ t=0.48
1.6026900456564173
% es.EX (V/m) @ t=0.48
-0.5712660502858766
% es.EY (V/m) @ t=0.48
0.18147020867327712
% es.EZ (V/m) @ t=0.48
1.4817799194183703
% es.tEX (V/m) @ t=0.48
-0.5712660502858908
% es.tEY (V/m) @ t=0.48
0
% es.tEZ (V/m) @ t=0.48
1.4817799194183712
% es.Ex (V/m) @ t=0.48
-0.5712660502858766
% es.Ey (V/m) @ t=0.48
0.18147020867327712
% es.Ez (V/m) @ t=0.48
1.4817799194183703
% es.tEx (V/m) @ t=0.48
-0.5712660502858908
% es.tEy (V/m) @ t=0.48
0
% es.tEz (V/m) @ t=0.48
1.4817799194183712
% V (V) @ t=0.48
0.007803766895207057
% es.normE (V/m) @ t=0.5
1.6171628619827734
% es.EX (V/m) @ t=0.5
-0.5764252459373062
% es.EY (V/m) @ t=0.5
0.18310753943993896
% es.EZ (V/m) @ t=0.5
1.4951607891345753
% es.tEX (V/m) @ t=0.5
-0.5764252459373168
% es.tEY (V/m) @ t=0.5
0
% es.tEZ (V/m) @ t=0.5
1.495160789134573
% es.Ex (V/m) @ t=0.5
-0.5764252459373062
% es.Ey (V/m) @ t=0.5
0.18310753943993896
% es.Ez (V/m) @ t=0.5
1.4951607891345753
% es.tEx (V/m) @ t=0.5
-0.5764252459373168
% es.tEy (V/m) @ t=0.5
0
% es.tEz (V/m) @ t=0.5
1.495160789134573
% V (V) @ t=0.5
0.00787429046455181
% es.normE (V/m) @ t=0.52
1.6316356783110508
% es.EX (V/m) @ t=0.52
-0.5815844415887212
% es.EY (V/m) @ t=0.52
0.18474487020659225
% es.EZ (V/m) @ t=0.52
1.508541658850778
% es.tEX (V/m) @ t=0.52
-0.5815844415887355
% es.tEY (V/m) @ t=0.52
0
% es.tEZ (V/m) @ t=0.52
1.5085416588507794
% es.Ex (V/m) @ t=0.52
-0.5815844415887212
% es.Ey (V/m) @ t=0.52
0.18474487020659225
% es.Ez (V/m) @ t=0.52
1.508541658850778
% es.tEx (V/m) @ t=0.52
-0.5815844415887355
% es.tEy (V/m) @ t=0.52
0
% es.tEz (V/m) @ t=0.52
1.5085416588507794
% V (V) @ t=0.52
0.007944814033896559
% es.normE (V/m) @ t=0.54
1.6461084946412057
% es.EX (V/m) @ t=0.54
-0.5867436372401328
% es.EY (V/m) @ t=0.54
0.1863822009732592
% es.EZ (V/m) @ t=0.54
1.5219225285669826
% es.tEX (V/m) @ t=0.54
-0.5867436372401399
% es.tEY (V/m) @ t=0.54
0
% es.tEZ (V/m) @ t=0.54
1.5219225285669804
% es.Ex (V/m) @ t=0.54
-0.5867436372401328
% es.Ey (V/m) @ t=0.54
0.1863822009732592
% es.Ez (V/m) @ t=0.54
1.5219225285669826
% es.tEx (V/m) @ t=0.54
-0.5867436372401399
% es.tEy (V/m) @ t=0.54
0
% es.tEz (V/m) @ t=0.54
1.5219225285669804
% V (V) @ t=0.54
0.00801533760324131
% es.normE (V/m) @ t=0.56
1.6616605749876432
% es.EX (V/m) @ t=0.56
-0.5922870264729263
% es.EY (V/m) @ t=0.56
0.18814321497430542
% es.EZ (V/m) @ t=0.56
1.5363013337562674
% es.tEX (V/m) @ t=0.56
-0.5922870264729405
% es.tEY (V/m) @ t=0.56
0
% es.tEZ (V/m) @ t=0.56
1.5363013337562705
% es.Ex (V/m) @ t=0.56
-0.5922870264729263
% es.Ey (V/m) @ t=0.56
0.18814321497430542
% es.Ez (V/m) @ t=0.56
1.5363013337562674
% es.tEx (V/m) @ t=0.56
-0.5922870264729405
% es.tEy (V/m) @ t=0.56
0
% es.tEz (V/m) @ t=0.56
1.5363013337562705
% V (V) @ t=0.56
0.00809106046063487
% es.normE (V/m) @ t=0.58
1.6778172730994547
% es.EX (V/m) @ t=0.58
-0.5980456459562732
% es.EY (V/m) @ t=0.58
0.18997351793494088
% es.EZ (V/m) @ t=0.58
1.5512391954012585
% es.tEX (V/m) @ t=0.58
-0.5980456459562803
% es.tEY (V/m) @ t=0.58
0
% es.tEZ (V/m) @ t=0.58
1.5512391954012594
% es.Ex (V/m) @ t=0.58
-0.5980456459562732
% es.Ey (V/m) @ t=0.58
0.18997351793494088
% es.Ez (V/m) @ t=0.58
1.5512391954012585
% es.tEx (V/m) @ t=0.58
-0.5980456459562803
% es.tEy (V/m) @ t=0.58
0
% es.tEz (V/m) @ t=0.58
1.5512391954012594
% V (V) @ t=0.58
0.008169696026943207
% es.normE (V/m) @ t=0.6
1.6939739712121085
% es.EX (V/m) @ t=0.6
-0.6038042654396272
% es.EY (V/m) @ t=0.6
0.19180382089557424
% es.EZ (V/m) @ t=0.6
1.5661770570462514
% es.tEX (V/m) @ t=0.6
-0.6038042654396343
% es.tEY (V/m) @ t=0.6
0
% es.tEZ (V/m) @ t=0.6
1.566177057046251
% es.Ex (V/m) @ t=0.6
-0.6038042654396272
% es.Ey (V/m) @ t=0.6
0.19180382089557424
% es.Ez (V/m) @ t=0.6
1.5661770570462514
% es.tEx (V/m) @ t=0.6
-0.6038042654396343
% es.tEy (V/m) @ t=0.6
0
% es.tEz (V/m) @ t=0.6
1.566177057046251
% V (V) @ t=0.6
0.008248331593251543
% es.normE (V/m) @ t=0.62
1.7101306693255713
% es.EX (V/m) @ t=0.62
-0.6095628849229597
% es.EY (V/m) @ t=0.62
0.1936341238562186
% es.EZ (V/m) @ t=0.62
1.5811149186912448
% es.tEX (V/m) @ t=0.62
-0.6095628849229668
% es.tEY (V/m) @ t=0.62
0
% es.tEZ (V/m) @ t=0.62
1.581114918691247
% es.Ex (V/m) @ t=0.62
-0.6095628849229597
% es.Ey (V/m) @ t=0.62
0.1936341238562186
% es.Ez (V/m) @ t=0.62
1.5811149186912448
% es.tEx (V/m) @ t=0.62
-0.6095628849229668
% es.tEy (V/m) @ t=0.62
0
% es.tEz (V/m) @ t=0.62
1.581114918691247
% V (V) @ t=0.62
0.008326967159559882
% es.normE (V/m) @ t=0.64
1.7262873674398371
% es.EX (V/m) @ t=0.64
-0.6153215044063207
% es.EY (V/m) @ t=0.64
0.19546442681685006
% es.EZ (V/m) @ t=0.64
1.5960527803362399
% es.tEX (V/m) @ t=0.64
-0.6153215044063278
% es.tEY (V/m) @ t=0.64
0
% es.tEZ (V/m) @ t=0.64
1.5960527803362412
% es.Ex (V/m) @ t=0.64
-0.6153215044063207
% es.Ey (V/m) @ t=0.64
0.19546442681685006
% es.Ez (V/m) @ t=0.64
1.5960527803362399
% es.tEx (V/m) @ t=0.64
-0.6153215044063278
% es.tEy (V/m) @ t=0.64
0
% es.tEz (V/m) @ t=0.64
1.5960527803362412
% V (V) @ t=0.64
0.008405602725868221
% es.normE (V/m) @ t=0.66
1.742444065554865
% es.EX (V/m) @ t=0.66
-0.6210801238896674
% es.EY (V/m) @ t=0.66
0.19729472977748608
% es.EZ (V/m) @ t=0.66
1.6109906419812332
% es.tEX (V/m) @ t=0.66
-0.6210801238896745
% es.tEY (V/m) @ t=0.66
0
% es.tEZ (V/m) @ t=0.66
1.6109906419812337
% es.Ex (V/m) @ t=0.66
-0.6210801238896674
% es.Ey (V/m) @ t=0.66
0.19729472977748608
% es.Ez (V/m) @ t=0.66
1.6109906419812332
% es.tEx (V/m) @ t=0.66
-0.6210801238896745
% es.tEy (V/m) @ t=0.66
0
% es.tEz (V/m) @ t=0.66
1.6109906419812337
% V (V) @ t=0.66
0.008484238292176559
% es.normE (V/m) @ t=0.68
1.7586007636706402
% es.EX (V/m) @ t=0.68
-0.626838743373
% es.EY (V/m) @ t=0.68
0.1991250327381262
% es.EZ (V/m) @ t=0.68
1.6259285036262292
% es.tEX (V/m) @ t=0.68
-0.6268387433730143
% es.tEY (V/m) @ t=0.68
0
% es.tEZ (V/m) @ t=0.68
1.6259285036262323
% es.Ex (V/m) @ t=0.68
-0.626838743373
% es.Ey (V/m) @ t=0.68
0.1991250327381262
% es.Ez (V/m) @ t=0.68
1.6259285036262292
% es.tEx (V/m) @ t=0.68
-0.6268387433730143
% es.tEy (V/m) @ t=0.68
0
% es.tEz (V/m) @ t=0.68
1.6259285036262323
% V (V) @ t=0.68
0.008562873858484896
% es.normE (V/m) @ t=0.7
1.774757461787142
% es.EX (V/m) @ t=0.7
-0.6325973628563467
% es.EY (V/m) @ t=0.7
0.200955335698769
% es.EZ (V/m) @ t=0.7
1.6408663652712168
% es.tEX (V/m) @ t=0.7
-0.6325973628563538
% es.tEY (V/m) @ t=0.7
0
% es.tEZ (V/m) @ t=0.7
1.6408663652712168
% es.Ex (V/m) @ t=0.7
-0.6325973628563467
% es.Ey (V/m) @ t=0.7
0.200955335698769
% es.Ez (V/m) @ t=0.7
1.6408663652712168
% es.tEx (V/m) @ t=0.7
-0.6325973628563538
% es.tEy (V/m) @ t=0.7
0
% es.tEz (V/m) @ t=0.7
1.6408663652712168
% V (V) @ t=0.7
0.008641509424793234
% es.normE (V/m) @ t=0.72
1.7909141599043519
% es.EX (V/m) @ t=0.72
-0.6383559823396935
% es.EY (V/m) @ t=0.72
0.20278563865938581
% es.EZ (V/m) @ t=0.72
1.6558042269162088
% es.tEX (V/m) @ t=0.72
-0.6383559823397077
% es.tEY (V/m) @ t=0.72
0
% es.tEZ (V/m) @ t=0.72
1.6558042269162065
% es.Ex (V/m) @ t=0.72
-0.6383559823396935
% es.Ey (V/m) @ t=0.72
0.20278563865938581
% es.Ez (V/m) @ t=0.72
1.6558042269162088
% es.tEx (V/m) @ t=0.72
-0.6383559823397077
% es.tEy (V/m) @ t=0.72
0
% es.tEz (V/m) @ t=0.72
1.6558042269162065
% V (V) @ t=0.72
0.008720144991101573
% es.normE (V/m) @ t=0.74
1.807070858022258
% es.EX (V/m) @ t=0.74
-0.6441146018230403
% es.EY (V/m) @ t=0.74
0.20461594162003527
% es.EZ (V/m) @ t=0.74
1.670742088561202
% es.tEX (V/m) @ t=0.74
-0.6441146018230474
% es.tEY (V/m) @ t=0.74
0
% es.tEZ (V/m) @ t=0.74
1.6707420885612025
% es.Ex (V/m) @ t=0.74
-0.6441146018230403
% es.Ey (V/m) @ t=0.74
0.20461594162003527
% es.Ez (V/m) @ t=0.74
1.670742088561202
% es.tEx (V/m) @ t=0.74
-0.6441146018230474
% es.tEy (V/m) @ t=0.74
0
% es.tEz (V/m) @ t=0.74
1.6707420885612025
% V (V) @ t=0.74
0.00879878055740991
% es.normE (V/m) @ t=0.76
1.8232275561408304
% es.EX (V/m) @ t=0.76
-0.64987322130638
% es.EY (V/m) @ t=0.76
0.20644624458066496
% es.EZ (V/m) @ t=0.76
1.6856799502061963
% es.tEX (V/m) @ t=0.76
-0.6498732213063942
% es.tEY (V/m) @ t=0.76
0
% es.tEZ (V/m) @ t=0.76
1.6856799502061968
% es.Ex (V/m) @ t=0.76
-0.64987322130638
% es.Ey (V/m) @ t=0.76
0.20644624458066496
% es.Ez (V/m) @ t=0.76
1.6856799502061963
% es.tEx (V/m) @ t=0.76
-0.6498732213063942
% es.tEy (V/m) @ t=0.76
0
% es.tEz (V/m) @ t=0.76
1.6856799502061968
% V (V) @ t=0.76
0.008877416123718248
% es.normE (V/m) @ t=0.78
1.8393842542600662
% es.EX (V/m) @ t=0.78
-0.6556318407897339
% es.EY (V/m) @ t=0.78
0.20827654754130354
% es.EZ (V/m) @ t=0.78
1.700617811851195
% es.tEX (V/m) @ t=0.78
-0.655631840789741
% es.tEY (V/m) @ t=0.78
0
% es.tEZ (V/m) @ t=0.78
1.7006178118511963
% es.Ex (V/m) @ t=0.78
-0.6556318407897339
% es.Ey (V/m) @ t=0.78
0.20827654754130354
% es.Ez (V/m) @ t=0.78
1.700617811851195
% es.tEx (V/m) @ t=0.78
-0.655631840789741
% es.tEy (V/m) @ t=0.78
0
% es.tEz (V/m) @ t=0.78
1.7006178118511963
% V (V) @ t=0.78
0.008956051690026588
% es.normE (V/m) @ t=0.8
1.8555409523799307
% es.EX (V/m) @ t=0.8
-0.6613904602730771
% es.EY (V/m) @ t=0.8
0.2101068505019421
% es.EZ (V/m) @ t=0.8
1.7155556734961892
% es.tEX (V/m) @ t=0.8
-0.6613904602730949
% es.tEY (V/m) @ t=0.8
0
% es.tEZ (V/m) @ t=0.8
1.715555673496187
% es.Ex (V/m) @ t=0.8
-0.6613904602730771
% es.Ey (V/m) @ t=0.8
0.2101068505019421
% es.Ez (V/m) @ t=0.8
1.7155556734961892
% es.tEx (V/m) @ t=0.8
-0.6613904602730949
% es.tEy (V/m) @ t=0.8
0
% es.tEz (V/m) @ t=0.8
1.715555673496187
% V (V) @ t=0.8
0.009034687256334925
% es.normE (V/m) @ t=0.82
1.8716976505004088
% es.EX (V/m) @ t=0.82
-0.6671490797564203
% es.EY (V/m) @ t=0.82
0.21193715346257003
% es.EZ (V/m) @ t=0.82
1.7304935351411777
% es.tEX (V/m) @ t=0.82
-0.6671490797564275
% es.tEY (V/m) @ t=0.82
0
% es.tEZ (V/m) @ t=0.82
1.7304935351411794
% es.Ex (V/m) @ t=0.82
-0.6671490797564203
% es.Ey (V/m) @ t=0.82
0.21193715346257003
% es.Ez (V/m) @ t=0.82
1.7304935351411777
% es.tEx (V/m) @ t=0.82
-0.6671490797564275
% es.tEy (V/m) @ t=0.82
0
% es.tEz (V/m) @ t=0.82
1.7304935351411794
% V (V) @ t=0.82
0.009113322822643263
% es.normE (V/m) @ t=0.84
1.889713550127333
% es.EX (V/m) @ t=0.84
-0.6735711905497712
% es.EY (V/m) @ t=0.84
0.21397562852947116
% es.EZ (V/m) @ t=0.84
1.7471501887874958
% es.tEX (V/m) @ t=0.84
-0.6735711905497819
% es.tEY (V/m) @ t=0.84
0
% es.tEZ (V/m) @ t=0.84
1.7471501887874972
% es.Ex (V/m) @ t=0.84
-0.6735711905497712
% es.Ey (V/m) @ t=0.84
0.21397562852947116
% es.Ez (V/m) @ t=0.84
1.7471501887874958
% es.tEx (V/m) @ t=0.84
-0.6735711905497819
% es.tEy (V/m) @ t=0.84
0
% es.tEz (V/m) @ t=0.84
1.7471501887874972
% V (V) @ t=0.84
0.009201099532486517
% es.normE (V/m) @ t=0.86
1.9077940611400293
% es.EX (V/m) @ t=0.86
-0.6800163591404939
% es.EY (V/m) @ t=0.86
0.21602133803964985
% es.EZ (V/m) @ t=0.86
1.7638665742752035
% es.tEX (V/m) @ t=0.86
-0.6800163591405081
% es.tEY (V/m) @ t=0.86
0
% es.tEZ (V/m) @ t=0.86
1.7638665742752018
% es.Ex (V/m) @ t=0.86
-0.6800163591404939
% es.Ey (V/m) @ t=0.86
0.21602133803964985
% es.Ez (V/m) @ t=0.86
1.7638665742752035
% es.tEx (V/m) @ t=0.86
-0.6800163591405081
% es.tEy (V/m) @ t=0.86
0
% es.tEz (V/m) @ t=0.86
1.7638665742752018
% V (V) @ t=0.86
0.009289193917380228
% es.normE (V/m) @ t=0.88
1.9258745721547808
% es.EX (V/m) @ t=0.88
-0.686461527731213
% es.EY (V/m) @ t=0.88
0.2180670475498252
% es.EZ (V/m) @ t=0.88
1.7805829597629064
% es.tEX (V/m) @ t=0.88
-0.6864615277312202
% es.tEY (V/m) @ t=0.88
0
% es.tEZ (V/m) @ t=0.88
1.7805829597629064
% es.Ex (V/m) @ t=0.88
-0.686461527731213
% es.Ey (V/m) @ t=0.88
0.2180670475498252
% es.Ez (V/m) @ t=0.88
1.7805829597629064
% es.tEx (V/m) @ t=0.88
-0.6864615277312202
% es.tEy (V/m) @ t=0.88
0
% es.tEz (V/m) @ t=0.88
1.7805829597629064
% V (V) @ t=0.88
0.00937728830227394
% es.normE (V/m) @ t=0.9
1.9439550831715389
% es.EX (V/m) @ t=0.9
-0.692906696321932
% es.EY (V/m) @ t=0.9
0.22011275705999922
% es.EZ (V/m) @ t=0.9
1.7972993452506092
% es.tEX (V/m) @ t=0.9
-0.6929066963219391
% es.tEY (V/m) @ t=0.9
0
% es.tEZ (V/m) @ t=0.9
1.7972993452506074
% es.Ex (V/m) @ t=0.9
-0.692906696321932
% es.Ey (V/m) @ t=0.9
0.22011275705999922
% es.Ez (V/m) @ t=0.9
1.7972993452506092
% es.tEx (V/m) @ t=0.9
-0.6929066963219391
% es.tEy (V/m) @ t=0.9
0
% es.tEz (V/m) @ t=0.9
1.7972993452506074
% V (V) @ t=0.9
0.009465382687167654
% es.normE (V/m) @ t=0.92
1.9620355941902428
% es.EX (V/m) @ t=0.92
-0.699351864912637
% es.EY (V/m) @ t=0.92
0.22215846657016836
% es.EZ (V/m) @ t=0.92
1.8140157307383147
% es.tEX (V/m) @ t=0.92
-0.6993518649126512
% es.tEY (V/m) @ t=0.92
0
% es.tEZ (V/m) @ t=0.92
1.8140157307383138
% es.Ex (V/m) @ t=0.92
-0.699351864912637
% es.Ey (V/m) @ t=0.92
0.22215846657016836
% es.Ez (V/m) @ t=0.92
1.8140157307383147
% es.tEx (V/m) @ t=0.92
-0.6993518649126512
% es.tEy (V/m) @ t=0.92
0
% es.tEz (V/m) @ t=0.92
1.8140157307383138
% V (V) @ t=0.92
0.009553477072061365
% es.normE (V/m) @ t=0.94
1.98011610521085
% es.EX (V/m) @ t=0.94
-0.7057970335033632
% es.EY (V/m) @ t=0.94
0.22420417608034526
% es.EZ (V/m) @ t=0.94
1.8307321162260202
% es.tEX (V/m) @ t=0.94
-0.7057970335033703
% es.tEY (V/m) @ t=0.94
0
% es.tEZ (V/m) @ t=0.94
1.8307321162260237
% es.Ex (V/m) @ t=0.94
-0.7057970335033632
% es.Ey (V/m) @ t=0.94
0.22420417608034526
% es.Ez (V/m) @ t=0.94
1.8307321162260202
% es.tEx (V/m) @ t=0.94
-0.7057970335033703
% es.tEy (V/m) @ t=0.94
0
% es.tEz (V/m) @ t=0.94
1.8307321162260237
% V (V) @ t=0.94
0.009641571456955076
% es.normE (V/m) @ t=0.96
1.9981966162333022
% es.EX (V/m) @ t=0.96
-0.7122422020940787
% es.EY (V/m) @ t=0.96
0.2262498855905284
% es.EZ (V/m) @ t=0.96
1.8474485017137274
% es.tEX (V/m) @ t=0.96
-0.7122422020940894
% es.tEY (V/m) @ t=0.96
0
% es.tEZ (V/m) @ t=0.96
1.84744850171373
% es.Ex (V/m) @ t=0.96
-0.7122422020940787
% es.Ey (V/m) @ t=0.96
0.2262498855905284
% es.Ez (V/m) @ t=0.96
1.8474485017137274
% es.tEx (V/m) @ t=0.96
-0.7122422020940894
% es.tEy (V/m) @ t=0.96
0
% es.tEz (V/m) @ t=0.96
1.84744850171373
% V (V) @ t=0.96
0.009729665841848787
% es.normE (V/m) @ t=0.98
2.016277127257537
% es.EX (V/m) @ t=0.98
-0.718687370684787
% es.EY (V/m) @ t=0.98
0.22829559510069708
% es.EZ (V/m) @ t=0.98
1.8641648872014276
% es.tEX (V/m) @ t=0.98
-0.7186873706848013
% es.tEY (V/m) @ t=0.98
0
% es.tEZ (V/m) @ t=0.98
1.8641648872014311
% es.Ex (V/m) @ t=0.98
-0.718687370684787
% es.Ey (V/m) @ t=0.98
0.22829559510069708
% es.Ez (V/m) @ t=0.98
1.8641648872014276
% es.tEx (V/m) @ t=0.98
-0.7186873706848013
% es.tEy (V/m) @ t=0.98
0
% es.tEz (V/m) @ t=0.98
1.8641648872014311
% V (V) @ t=0.98
0.009817760226742498
% es.normE (V/m) @ t=1
2.0343576382835336
% es.EX (V/m) @ t=1
-0.7251325392755027
% es.EY (V/m) @ t=1
0.2303413046108831
% es.EZ (V/m) @ t=1
1.8808812726891384
% es.tEX (V/m) @ t=1
-0.7251325392755134
% es.tEY (V/m) @ t=1
0
% es.tEZ (V/m) @ t=1
1.880881272689141
% es.Ex (V/m) @ t=1
-0.7251325392755027
% es.Ey (V/m) @ t=1
0.2303413046108831
% es.Ez (V/m) @ t=1
1.8808812726891384
% es.tEx (V/m) @ t=1
-0.7251325392755134
% es.tEy (V/m) @ t=1
0
% es.tEz (V/m) @ t=1
1.880881272689141
% V (V) @ t=1
0.009905854611636207
% es.normE (V/m) @ t=1.02
2.052438149311227
% es.EX (V/m) @ t=1.02
-0.7315777078662395
% es.EY (V/m) @ t=1.02
0.23238701412104046
% es.EZ (V/m) @ t=1.02
1.8975976581768412
% es.tEX (V/m) @ t=1.02
-0.7315777078662467
% es.tEY (V/m) @ t=1.02
0
% es.tEZ (V/m) @ t=1.02
1.8975976581768421
% es.Ex (V/m) @ t=1.02
-0.7315777078662395
% es.Ey (V/m) @ t=1.02
0.23238701412104046
% es.Ez (V/m) @ t=1.02
1.8975976581768412
% es.tEx (V/m) @ t=1.02
-0.7315777078662467
% es.tEy (V/m) @ t=1.02
0
% es.tEz (V/m) @ t=1.02
1.8975976581768421
% V (V) @ t=1.02
0.009993948996529922
% es.normE (V/m) @ t=1.04
2.070518660340576
% es.EX (V/m) @ t=1.04
-0.7380228764569515
% es.EY (V/m) @ t=1.04
0.23443272363122358
% es.EZ (V/m) @ t=1.04
1.9143140436645476
% es.tEX (V/m) @ t=1.04
-0.7380228764569657