% Model:              1 neuron.mph
% Version:            COMSOL 6.0.0.405
% Date:               Mar 16 2023, 17:15
% Dimension:          0
% Nodes:              14017
% Expressions:        14017
% Description:        Electric field norm, Electric field, X component, Electric field, Y component, Electric field, Z component, Tangential electric field, X component, Tangential electric field, Y component, Tangential electric field, Z component, Electric field, x component, Electric field, y component, Electric field, z component, Tangential electric field, x component, Tangential electric field, y component, Tangential electric field, z component, Electric potential
% Length unit:        mm
% x
2
% y
12.2
% z
1.33
% es.normE (V/m) @ t=0
1.3007739423371263
% es.EX (V/m) @ t=0
-1.196422779901288
% es.EY (V/m) @ t=0
0.09332919128528433
% es.EZ (V/m) @ t=0
0.5003654242203688
% es.tEX (V/m) @ t=0
-1.196422779901285
% es.tEY (V/m) @ t=0
0
% es.tEZ (V/m) @ t=0
0.5003654242203659
% es.Ex (V/m) @ t=0
-1.196422779901288
% es.Ey (V/m) @ t=0
0.09332919128528433
% es.Ez (V/m) @ t=0
0.5003654242203688
% es.tEx (V/m) @ t=0
-1.196422779901285
% es.tEy (V/m) @ t=0
0
% es.tEz (V/m) @ t=0
0.5003654242203659
% V (V) @ t=0
0.00726247933000525
% es.normE (V/m) @ t=0.02
1.1235042362682626
% es.EX (V/m) @ t=0.02
-1.0333740671281118
% es.EY (V/m) @ t=0.02
0.08061027413270017
% es.EZ (V/m) @ t=0.02
0.43217553868143627
% es.tEX (V/m) @ t=0.02
-1.033374067128106
% es.tEY (V/m) @ t=0.02
0
% es.tEZ (V/m) @ t=0.02
0.4321755386814363
% es.Ex (V/m) @ t=0.02
-1.0333740671281118
% es.Ey (V/m) @ t=0.02
0.08061027413270017
% es.Ez (V/m) @ t=0.02
0.43217553868143627
% es.tEx (V/m) @ t=0.02
-1.033374067128106
% es.tEy (V/m) @ t=0.02
0
% es.tEz (V/m) @ t=0.02
0.4321755386814363
% V (V) @ t=0.02
0.0062727471940915
% es.normE (V/m) @ t=0.04
1.1338391542560537
% es.EX (V/m) @ t=0.04
-1.0428798763036644
% es.EY (V/m) @ t=0.04
0.08135181059721808
% es.EZ (V/m) @ t=0.04
0.4361510848638723
% es.tEX (V/m) @ t=0.04
-1.042879876303659
% es.tEY (V/m) @ t=0.04
0
% es.tEZ (V/m) @ t=0.04
0.43615108486387655
% es.Ex (V/m) @ t=0.04
-1.0428798763036644
% es.Ey (V/m) @ t=0.04
0.08135181059721808
% es.Ez (V/m) @ t=0.04
0.4361510848638723
% es.tEx (V/m) @ t=0.04
-1.042879876303659
% es.tEy (V/m) @ t=0.04
0
% es.tEz (V/m) @ t=0.04
0.43615108486387655
% V (V) @ t=0.04
0.0063304476713953095
% es.normE (V/m) @ t=0.06
1.1442666897438039
% es.EX (V/m) @ t=0.06
-1.0524708543048025
% es.EY (V/m) @ t=0.06
0.08210001050182175
% es.EZ (V/m) @ t=0.06
0.4401623006569389
% es.tEX (V/m) @ t=0.06
-1.0524708543047963
% es.tEY (V/m) @ t=0.06
0
% es.tEZ (V/m) @ t=0.06
0.4401623006569402
% es.Ex (V/m) @ t=0.06
-1.0524708543048025
% es.Ey (V/m) @ t=0.06
0.08210001050182175
% es.Ez (V/m) @ t=0.06
0.4401623006569389
% es.tEx (V/m) @ t=0.06
-1.0524708543047963
% es.tEy (V/m) @ t=0.06
0
% es.tEz (V/m) @ t=0.06
0.4401623006569402
% V (V) @ t=0.06
0.0063886637068110465
% es.normE (V/m) @ t=0.08
1.1548546033530356
% es.EX (V/m) @ t=0.08
-1.0622093768099443
% es.EY (V/m) @ t=0.08
0.08285968595002208
% es.EZ (V/m) @ t=0.08
0.44423513491240224
% es.tEX (V/m) @ t=0.08
-1.0622093768099372
% es.tEY (V/m) @ t=0.08
0
% es.tEZ (V/m) @ t=0.08
0.4442351349124021
% es.Ex (V/m) @ t=0.08
-1.0622093768099443
% es.Ey (V/m) @ t=0.08
0.08285968595002208
% es.Ez (V/m) @ t=0.08
0.44423513491240224
% es.tEx (V/m) @ t=0.08
-1.0622093768099372
% es.tEy (V/m) @ t=0.08
0
% es.tEz (V/m) @ t=0.08
0.4442351349124021
% V (V) @ t=0.08
0.006447777831499646
% es.normE (V/m) @ t=0.1
1.1655521328696787
% es.EX (V/m) @ t=0.1
-1.0720487436480972
% es.EY (V/m) @ t=0.1
0.0836272047506117
% es.EZ (V/m) @ t=0.1
0.4483500844115574
% es.tEX (V/m) @ t=0.1
-1.072048743648092
% es.tEY (V/m) @ t=0.1
0
% es.tEZ (V/m) @ t=0.1
0.4483500844115582
% es.Ex (V/m) @ t=0.1
-1.0720487436480972
% es.Ey (V/m) @ t=0.1
0.0836272047506117
% es.Ez (V/m) @ t=0.1
0.4483500844115574
% es.tEx (V/m) @ t=0.1
-1.072048743648092
% es.tEy (V/m) @ t=0.1
0
% es.tEz (V/m) @ t=0.1
0.4483500844115582
% V (V) @ t=0.1
0.006507505785990453
% es.normE (V/m) @ t=0.12
1.1762496623863319
% es.EX (V/m) @ t=0.12
-1.0818881104862554
% es.EY (V/m) @ t=0.12
0.08439472355121636
% es.EZ (V/m) @ t=0.12
0.4524650339107171
% es.tEX (V/m) @ t=0.12
-1.0818881104862506
% es.tEY (V/m) @ t=0.12
0
% es.tEZ (V/m) @ t=0.12
0.45246503391071613
% es.Ex (V/m) @ t=0.12
-1.0818881104862554
% es.Ey (V/m) @ t=0.12
0.08439472355121636
% es.Ez (V/m) @ t=0.12
0.4524650339107171
% es.tEx (V/m) @ t=0.12
-1.0818881104862506
% es.tEy (V/m) @ t=0.12
0
% es.tEz (V/m) @ t=0.12
0.45246503391071613
% V (V) @ t=0.12
0.0065672337404812575
% es.normE (V/m) @ t=0.14
1.1870596752210556
% es.EX (V/m) @ t=0.14
-1.0918308984944214
% es.EY (V/m) @ t=0.14
0.08517035026753045
% es.EZ (V/m) @ t=0.14
0.4566233399870639
% es.tEX (V/m) @ t=0.14
-1.091830898494421
% es.tEY (V/m) @ t=0.14
0
% es.tEZ (V/m) @ t=0.14
0.45662333998706117
% es.Ex (V/m) @ t=0.14
-1.0918308984944214
% es.Ey (V/m) @ t=0.14
0.08517035026753045
% es.Ez (V/m) @ t=0.14
0.4566233399870639
% es.tEx (V/m) @ t=0.14
-1.091830898494421
% es.tEy (V/m) @ t=0.14
0
% es.tEz (V/m) @ t=0.14
0.45662333998706117
% V (V) @ t=0.14
0.006627586538094993
% es.normE (V/m) @ t=0.16
1.1983254121940314
% es.EX (V/m) @ t=0.16
-1.102192695510991
% es.EY (V/m) @ t=0.16
0.08597882605844298
% es.EZ (V/m) @ t=0.16
0.46095730445532895
% es.tEX (V/m) @ t=0.16
-1.1021926955109889
% es.tEY (V/m) @ t=0.16
0
% es.tEZ (V/m) @ t=0.16
0.46095730445533434
% es.Ex (V/m) @ t=0.16
-1.102192695510991
% es.Ey (V/m) @ t=0.16
0.08597882605844298
% es.Ez (V/m) @ t=0.16
0.46095730445532895
% es.tEx (V/m) @ t=0.16
-1.1021926955109889
% es.tEy (V/m) @ t=0.16
0
% es.tEz (V/m) @ t=0.16
0.46095730445533434
% V (V) @ t=0.16
0.0066904708763721316
% es.normE (V/m) @ t=0.18
1.209591149167205
% es.EX (V/m) @ t=0.18
-1.112554492527556
% es.EY (V/m) @ t=0.18
0.08678730184935196
% es.EZ (V/m) @ t=0.18
0.4652912689235896
% es.tEX (V/m) @ t=0.18
-1.1125544925275497
% es.tEY (V/m) @ t=0.18
0
% es.tEZ (V/m) @ t=0.18
0.46529126892358974
% es.Ex (V/m) @ t=0.18
-1.112554492527556
% es.Ey (V/m) @ t=0.18
0.08678730184935196
% es.Ez (V/m) @ t=0.18
0.4652912689235896
% es.tEx (V/m) @ t=0.18
-1.1125544925275497
% es.tEy (V/m) @ t=0.18
0
% es.tEz (V/m) @ t=0.18
0.46529126892358974
% V (V) @ t=0.18
0.006753355214649272
% es.normE (V/m) @ t=0.2
1.2208568861405804
% es.EX (V/m) @ t=0.2
-1.1229162895441247
% es.EY (V/m) @ t=0.2
0.08759577764026355
% es.EZ (V/m) @ t=0.2
0.4696252333918494
% es.tEX (V/m) @ t=0.2
-1.1229162895441185
% es.tEY (V/m) @ t=0.2
0
% es.tEZ (V/m) @ t=0.2
0.4696252333918487
% es.Ex (V/m) @ t=0.2
-1.1229162895441247
% es.Ey (V/m) @ t=0.2
0.08759577764026355
% es.Ez (V/m) @ t=0.2
0.4696252333918494
% es.tEx (V/m) @ t=0.2
-1.1229162895441185
% es.tEy (V/m) @ t=0.2
0
% es.tEz (V/m) @ t=0.2
0.4696252333918487
% V (V) @ t=0.2
0.006816239552926411
% es.normE (V/m) @ t=0.22
1.2321226231141595
% es.EX (V/m) @ t=0.22
-1.1332780865606997
% es.EY (V/m) @ t=0.22
0.08840425343117164
% es.EZ (V/m) @ t=0.22
0.4739591978601216
% es.tEX (V/m) @ t=0.22
-1.1332780865606962
% es.tEY (V/m) @ t=0.22
0
% es.tEZ (V/m) @ t=0.22
0.47395919786012186
% es.Ex (V/m) @ t=0.22
-1.1332780865606997
% es.Ey (V/m) @ t=0.22
0.08840425343117164
% es.Ez (V/m) @ t=0.22
0.4739591978601216
% es.tEx (V/m) @ t=0.22
-1.1332780865606962
% es.tEy (V/m) @ t=0.22
0
% es.tEz (V/m) @ t=0.22
0.47395919786012186
% V (V) @ t=0.22
0.00687912389120355
% es.normE (V/m) @ t=0.24
1.2433883600879123
% es.EX (V/m) @ t=0.24
-1.143639883577265
% es.EY (V/m) @ t=0.24
0.08921272922208684
% es.EZ (V/m) @ t=0.24
0.47829316232837954
% es.tEX (V/m) @ t=0.24
-1.1436398835772579
% es.tEY (V/m) @ t=0.24
0
% es.tEZ (V/m) @ t=0.24
0.47829316232837726
% es.Ex (V/m) @ t=0.24
-1.143639883577265
% es.Ey (V/m) @ t=0.24
0.08921272922208684
% es.Ez (V/m) @ t=0.24
0.47829316232837954
% es.tEx (V/m) @ t=0.24
-1.1436398835772579
% es.tEy (V/m) @ t=0.24
0
% es.tEz (V/m) @ t=0.24
0.47829316232837726
% V (V) @ t=0.24
0.00694200822948069
% es.normE (V/m) @ t=0.26
1.254654097061854
% es.EX (V/m) @ t=0.26
-1.1540016805938351
% es.EY (V/m) @ t=0.26
0.09002120501299143
% es.EZ (V/m) @ t=0.26
0.48262712679664194
% es.tEX (V/m) @ t=0.26
-1.1540016805938302
% es.tEY (V/m) @ t=0.26
0
% es.tEZ (V/m) @ t=0.26
0.4826271267966433
% es.Ex (V/m) @ t=0.26
-1.1540016805938351
% es.Ey (V/m) @ t=0.26
0.09002120501299143
% es.Ez (V/m) @ t=0.26
0.48262712679664194
% es.tEx (V/m) @ t=0.26
-1.1540016805938302
% es.tEy (V/m) @ t=0.26
0
% es.tEz (V/m) @ t=0.26
0.4826271267966433
% V (V) @ t=0.26
0.007004892567757829
% es.normE (V/m) @ t=0.28
1.2664434041922599
% es.EX (V/m) @ t=0.28
-1.1648453546827056
% es.EY (V/m) @ t=0.28
0.09086694652264793
% es.EZ (V/m) @ t=0.28
0.48716178571913776
% es.tEX (V/m) @ t=0.28
-1.1648453546826971
% es.tEY (V/m) @ t=0.28
0
% es.tEZ (V/m) @ t=0.28
0.48716178571913815
% es.Ex (V/m) @ t=0.28
-1.1648453546827056
% es.Ey (V/m) @ t=0.28
0.09086694652264793
% es.Ez (V/m) @ t=0.28
0.48716178571913776
% es.tEx (V/m) @ t=0.28
-1.1648453546826971
% es.tEy (V/m) @ t=0.28
0
% es.tEz (V/m) @ t=0.28
0.48716178571913815
% V (V) @ t=0.28
0.007070725587567464
% es.normE (V/m) @ t=0.3
1.2789991271030936
% es.EX (V/m) @ t=0.3
-1.176394413116387
% es.EY (V/m) @ t=0.3
0.09176723857250746
% es.EZ (V/m) @ t=0.3
0.49199022646740215
% es.tEX (V/m) @ t=0.3
-1.1763944131163857
% es.tEY (V/m) @ t=0.3
0
% es.tEZ (V/m) @ t=0.3
0.4919902264674043
% es.Ex (V/m) @ t=0.3
-1.176394413116387
% es.Ey (V/m) @ t=0.3
0.09176723857250746
% es.Ez (V/m) @ t=0.3
0.49199022646740215
% es.tEx (V/m) @ t=0.3
-1.1763944131163857
% es.tEy (V/m) @ t=0.3
0
% es.tEz (V/m) @ t=0.3
0.4919902264674043
% V (V) @ t=0.3
0.007140874965034397
% es.normE (V/m) @ t=0.32
1.2915548500161371
% es.EX (V/m) @ t=0.32
-1.1879434715500787
% es.EY (V/m) @ t=0.32
0.09266753062236427
% es.EZ (V/m) @ t=0.32
0.49681866721567275
% es.tEX (V/m) @ t=0.32
-1.1879434715500743
% es.tEY (V/m) @ t=0.32
0
% es.tEZ (V/m) @ t=0.32
0.4968186672156705
% es.Ex (V/m) @ t=0.32
-1.1879434715500787
% es.Ey (V/m) @ t=0.32
0.09266753062236427
% es.Ez (V/m) @ t=0.32
0.49681866721567275
% es.tEx (V/m) @ t=0.32
-1.1879434715500743
% es.tEy (V/m) @ t=0.32
0
% es.tEz (V/m) @ t=0.32
0.4968186672156705
% V (V) @ t=0.32
0.007211024342501329
% es.normE (V/m) @ t=0.34
1.3041105729313074
% es.EX (V/m) @ t=0.34
-1.1994925299837638
% es.EY (V/m) @ t=0.34
0.09356782267222469
% es.EZ (V/m) @ t=0.34
0.5016471079639424
% es.tEX (V/m) @ t=0.34
-1.1994925299837593
% es.tEY (V/m) @ t=0.34
0
% es.tEZ (V/m) @ t=0.34
0.5016471079639437
% es.Ex (V/m) @ t=0.34
-1.1994925299837638
% es.Ey (V/m) @ t=0.34
0.09356782267222469
% es.Ez (V/m) @ t=0.34
0.5016471079639424
% es.tEx (V/m) @ t=0.34
-1.1994925299837593
% es.tEy (V/m) @ t=0.34
0
% es.tEz (V/m) @ t=0.34
0.5016471079639437
% V (V) @ t=0.34
0.007281173719968262
% es.normE (V/m) @ t=0.36
1.3166662958485627
% es.EX (V/m) @ t=0.36
-1.2110415884174572
% es.EY (V/m) @ t=0.36
0.094468114722078
% es.EZ (V/m) @ t=0.36
0.5064755487122237
% es.tEX (V/m) @ t=0.36
-1.2110415884174506
% es.tEY (V/m) @ t=0.36
0
% es.tEZ (V/m) @ t=0.36
0.5064755487122241
% es.Ex (V/m) @ t=0.36
-1.2110415884174572
% es.Ey (V/m) @ t=0.36
0.094468114722078
% es.Ez (V/m) @ t=0.36
0.5064755487122237
% es.tEx (V/m) @ t=0.36
-1.2110415884174506
% es.tEy (V/m) @ t=0.36
0
% es.tEz (V/m) @ t=0.36
0.5064755487122241
% V (V) @ t=0.36
0.007351323097435195
% es.normE (V/m) @ t=0.38
1.3292220187678216
% es.EX (V/m) @ t=0.38
-1.2225906468511463
% es.EY (V/m) @ t=0.38
0.09536840677193748
% es.EZ (V/m) @ t=0.38
0.511303989460488
% es.tEX (V/m) @ t=0.38
-1.22259064685114
% es.tEY (V/m) @ t=0.38
0
% es.tEZ (V/m) @ t=0.38
0.5113039894604867
% es.Ex (V/m) @ t=0.38
-1.2225906468511463
% es.Ey (V/m) @ t=0.38
0.09536840677193748
% es.Ez (V/m) @ t=0.38
0.511303989460488
% es.tEx (V/m) @ t=0.38
-1.22259064685114
% es.tEy (V/m) @ t=0.38
0
% es.tEz (V/m) @ t=0.38
0.5113039894604867
% V (V) @ t=0.38
0.007421472474902129
% es.normE (V/m) @ t=0.4
1.3417777416890433
% es.EX (V/m) @ t=0.4
-1.2341397052848375
% es.EY (V/m) @ t=0.4
0.09626869882179878
% es.EZ (V/m) @ t=0.4
0.5161324302087604
% es.tEX (V/m) @ t=0.4
-1.2341397052848313
% es.tEY (V/m) @ t=0.4
0
% es.tEZ (V/m) @ t=0.4
0.5161324302087564
% es.Ex (V/m) @ t=0.4
-1.2341397052848375
% es.Ey (V/m) @ t=0.4
0.09626869882179878
% es.Ez (V/m) @ t=0.4
0.5161324302087604
% es.tEx (V/m) @ t=0.4
-1.2341397052848313
% es.tEy (V/m) @ t=0.4
0
% es.tEz (V/m) @ t=0.4
0.5161324302087564
% V (V) @ t=0.4
0.007491621852369063
% es.normE (V/m) @ t=0.42
1.3543334646121656
% es.EX (V/m) @ t=0.42
-1.2456887637185257
% es.EY (V/m) @ t=0.42
0.09716899087165476
% es.EZ (V/m) @ t=0.42
0.5209608709570355
% es.tEX (V/m) @ t=0.42
-1.2456887637185199
% es.tEY (V/m) @ t=0.42
0
% es.tEZ (V/m) @ t=0.42
0.5209608709570368
% es.Ex (V/m) @ t=0.42
-1.2456887637185257
% es.Ey (V/m) @ t=0.42
0.09716899087165476
% es.Ez (V/m) @ t=0.42
0.5209608709570355
% es.tEx (V/m) @ t=0.42
-1.2456887637185199
% es.tEy (V/m) @ t=0.42
0
% es.tEz (V/m) @ t=0.42
0.5209608709570368
% V (V) @ t=0.42
0.007561771229835995
% es.normE (V/m) @ t=0.44
1.36688918753714
% es.EX (V/m) @ t=0.44
-1.257237822152216
% es.EY (V/m) @ t=0.44
0.09806928292151601
% es.EZ (V/m) @ t=0.44
0.5257893117053078
% es.tEX (V/m) @ t=0.44
-1.2572378221522094
% es.tEY (V/m) @ t=0.44
0
% es.tEZ (V/m) @ t=0.44
0.5257893117053065
% es.Ex (V/m) @ t=0.44
-1.257237822152216
% es.Ey (V/m) @ t=0.44
0.09806928292151601
% es.Ez (V/m) @ t=0.44
0.5257893117053078
% es.tEx (V/m) @ t=0.44
-1.2572378221522094
% es.tEy (V/m) @ t=0.44
0
% es.tEz (V/m) @ t=0.44
0.5257893117053065
% V (V) @ t=0.44
0.007631920607302928
% es.normE (V/m) @ t=0.46
1.3794449104639026
% es.EX (V/m) @ t=0.46
-1.268786880585897
% es.EY (V/m) @ t=0.46
0.0989695749713676
% es.EZ (V/m) @ t=0.46
0.530617752453574
% es.tEX (V/m) @ t=0.46
-1.26878688058589
% es.tEY (V/m) @ t=0.46
0
% es.tEZ (V/m) @ t=0.46
0.5306177524535691
% es.Ex (V/m) @ t=0.46
-1.268786880585897
% es.Ey (V/m) @ t=0.46
0.0989695749713676
% es.Ez (V/m) @ t=0.46
0.530617752453574
% es.tEx (V/m) @ t=0.46
-1.26878688058589
% es.tEy (V/m) @ t=0.46
0
% es.tEz (V/m) @ t=0.46
0.5306177524535691
% V (V) @ t=0.46
0.007702069984769862
% es.normE (V/m) @ t=0.48
1.3920006333924393
% es.EX (V/m) @ t=0.48
-1.2803359390195959
% es.EY (V/m) @ t=0.48
0.09986986702123152
% es.EZ (V/m) @ t=0.48
0.5354461932018535
% es.tEX (V/m) @ t=0.48
-1.2803359390195892
% es.tEY (V/m) @ t=0.48
0
% es.tEZ (V/m) @ t=0.48
0.5354461932018566
% es.Ex (V/m) @ t=0.48
-1.2803359390195959
% es.Ey (V/m) @ t=0.48
0.09986986702123152
% es.Ez (V/m) @ t=0.48
0.5354461932018535
% es.tEx (V/m) @ t=0.48
-1.2803359390195892
% es.tEy (V/m) @ t=0.48
0
% es.tEz (V/m) @ t=0.48
0.5354461932018566
% V (V) @ t=0.48
0.007772219362236794
% es.normE (V/m) @ t=0.5
1.4045563563226602
% es.EX (V/m) @ t=0.5
-1.2918849974532791
% es.EY (V/m) @ t=0.5
0.10077015907109366
% es.EZ (V/m) @ t=0.5
0.5402746339501188
% es.tEX (V/m) @ t=0.5
-1.2918849974532742
% es.tEY (V/m) @ t=0.5
0
% es.tEZ (V/m) @ t=0.5
0.5402746339501228
% es.Ex (V/m) @ t=0.5
-1.2918849974532791
% es.Ey (V/m) @ t=0.5
0.10077015907109366
% es.Ez (V/m) @ t=0.5
0.5402746339501188
% es.tEx (V/m) @ t=0.5
-1.2918849974532742
% es.tEy (V/m) @ t=0.5
0
% es.tEz (V/m) @ t=0.5
0.5402746339501228
% V (V) @ t=0.5
0.007842368739703728
% es.normE (V/m) @ t=0.52
1.4171120792545415
% es.EX (V/m) @ t=0.52
-1.3034340558869633
% es.EY (V/m) @ t=0.52
0.1016704511209488
% es.EZ (V/m) @ t=0.52
0.5451030746983876
% es.tEX (V/m) @ t=0.52
-1.3034340558869584
% es.tEY (V/m) @ t=0.52
0
% es.tEZ (V/m) @ t=0.52
0.5451030746983889
% es.Ex (V/m) @ t=0.52
-1.3034340558869633
% es.Ey (V/m) @ t=0.52
0.1016704511209488
% es.Ez (V/m) @ t=0.52
0.5451030746983876
% es.tEx (V/m) @ t=0.52
-1.3034340558869584
% es.tEy (V/m) @ t=0.52
0
% es.tEz (V/m) @ t=0.52
0.5451030746983889
% V (V) @ t=0.52
0.00791251811717066
% es.normE (V/m) @ t=0.54
1.429667802188047
% es.EX (V/m) @ t=0.54
-1.3149831143206536
% es.EY (V/m) @ t=0.54
0.10257074317080384
% es.EZ (V/m) @ t=0.54
0.5499315154466635
% es.tEX (V/m) @ t=0.54
-1.314983114320647
% es.tEY (V/m) @ t=0.54
0
% es.tEZ (V/m) @ t=0.54
0.5499315154466657
% es.Ex (V/m) @ t=0.54
-1.3149831143206536
% es.Ey (V/m) @ t=0.54
0.10257074317080384
% es.Ez (V/m) @ t=0.54
0.5499315154466635
% es.tEx (V/m) @ t=0.54
-1.314983114320647
% es.tEy (V/m) @ t=0.54
0
% es.tEz (V/m) @ t=0.54
0.5499315154466657
% V (V) @ t=0.54
0.007982667494637595
% es.normE (V/m) @ t=0.56
1.4434096330722184
% es.EX (V/m) @ t=0.56
-1.3276223178624686
% es.EY (V/m) @ t=0.56
0.10355692395231836
% es.EZ (V/m) @ t=0.56
0.555218065325084
% es.tEX (V/m) @ t=0.56
-1.3276223178624678
% es.tEY (V/m) @ t=0.56
0
% es.tEZ (V/m) @ t=0.56
0.5552180653250822
% es.Ex (V/m) @ t=0.56
-1.3276223178624686
% es.Ey (V/m) @ t=0.56
0.10355692395231836
% es.Ez (V/m) @ t=0.56
0.555218065325084
% es.tEx (V/m) @ t=0.56
-1.3276223178624678
% es.tEy (V/m) @ t=0.56
0
% es.tEz (V/m) @ t=0.56
0.5552180653250822
% V (V) @ t=0.56
0.008059372292082916
% es.normE (V/m) @ t=0.58
1.4574088455371221
% es.EX (V/m) @ t=0.58
-1.3404980793584076
% es.EY (V/m) @ t=0.58
0.10456174231015941
% es.EZ (V/m) @ t=0.58
0.5606040233995269
% es.tEX (V/m) @ t=0.58
-1.3404980793584036
% es.tEY (V/m) @ t=0.58
0
% es.tEZ (V/m) @ t=0.58
0.5606040233995273
% es.Ex (V/m) @ t=0.58
-1.3404980793584076
% es.Ey (V/m) @ t=0.58
0.10456174231015941
% es.Ez (V/m) @ t=0.58
0.5606040233995269
% es.tEx (V/m) @ t=0.58
-1.3404980793584036
% es.tEy (V/m) @ t=0.58
0
% es.tEz (V/m) @ t=0.58
0.5606040233995273
% V (V) @ t=0.58
0.008137499594410319
% es.normE (V/m) @ t=0.6
1.4714080580031759
% es.EX (V/m) @ t=0.6
-1.3533738408543319
% es.EY (V/m) @ t=0.6
0.10556656066796494
% es.EZ (V/m) @ t=0.6
0.56598998147396
% es.tEX (V/m) @ t=0.6
-1.3533738408543243
% es.tEY (V/m) @ t=0.6
0
% es.tEZ (V/m) @ t=0.6
0.5659899814739617
% es.Ex (V/m) @ t=0.6
-1.3533738408543319
% es.Ey (V/m) @ t=0.6
0.10556656066796494
% es.Ez (V/m) @ t=0.6
0.56598998147396
% es.tEx (V/m) @ t=0.6
-1.3533738408543243
% es.tEy (V/m) @ t=0.6
0
% es.tEz (V/m) @ t=0.6
0.5659899814739617
% V (V) @ t=0.6
0.008215626896737724
% es.normE (V/m) @ t=0.62
1.4854072704703851
% es.EX (V/m) @ t=0.62
-1.3662496023502706
% es.EY (V/m) @ t=0.62
0.10657137902579888
% es.EZ (V/m) @ t=0.62
0.571375939548401
% es.tEX (V/m) @ t=0.62
-1.3662496023502637
% es.tEY (V/m) @ t=0.62
0
% es.tEZ (V/m) @ t=0.62
0.5713759395484033
% es.Ex (V/m) @ t=0.62
-1.3662496023502706
% es.Ey (V/m) @ t=0.62
0.10657137902579888
% es.Ez (V/m) @ t=0.62
0.571375939548401
% es.tEx (V/m) @ t=0.62
-1.3662496023502637
% es.tEy (V/m) @ t=0.62
0
% es.tEz (V/m) @ t=0.62
0.5713759395484033
% V (V) @ t=0.62
0.00829375419906513
% es.normE (V/m) @ t=0.64
1.4994064829386908
% es.EX (V/m) @ t=0.64
-1.3791253638462015
% es.EY (V/m) @ t=0.64
0.107576197383624
% es.EZ (V/m) @ t=0.64
0.5767618976228375
% es.tEX (V/m) @ t=0.64
-1.3791253638461978
% es.tEY (V/m) @ t=0.64
0
% es.tEZ (V/m) @ t=0.64
0.5767618976228412
% es.Ex (V/m) @ t=0.64
-1.3791253638462015
% es.Ey (V/m) @ t=0.64
0.107576197383624
% es.Ez (V/m) @ t=0.64
0.5767618976228375
% es.tEx (V/m) @ t=0.64
-1.3791253638461978
% es.tEy (V/m) @ t=0.64
0
% es.tEz (V/m) @ t=0.64
0.5767618976228412
% V (V) @ t=0.64
0.008371881501392533
% es.normE (V/m) @ t=0.66
1.5134056954080655
% es.EX (V/m) @ t=0.66
-1.3920011253421292
% es.EY (V/m) @ t=0.66
0.10858101574144197
% es.EZ (V/m) @ t=0.66
0.5821478556972706
% es.tEX (V/m) @ t=0.66
-1.3920011253421212
% es.tEY (V/m) @ t=0.66
0
% es.tEZ (V/m) @ t=0.66
0.5821478556972721
% es.Ex (V/m) @ t=0.66
-1.3920011253421292
% es.Ey (V/m) @ t=0.66
0.10858101574144197
% es.Ez (V/m) @ t=0.66
0.5821478556972706
% es.tEx (V/m) @ t=0.66
-1.3920011253421212
% es.tEy (V/m) @ t=0.66
0
% es.tEz (V/m) @ t=0.66
0.5821478556972721
% V (V) @ t=0.66
0.008450008803719936
% es.normE (V/m) @ t=0.68
1.527404907878489
% es.EX (V/m) @ t=0.68
-1.4048768868380581
% es.EY (V/m) @ t=0.68
0.10958583409927236
% es.EZ (V/m) @ t=0.68
0.5875338137717072
% es.tEX (V/m) @ t=0.68
-1.4048768868380588
% es.tEY (V/m) @ t=0.68
0
% es.tEZ (V/m) @ t=0.68
0.5875338137717101
% es.Ex (V/m) @ t=0.68
-1.4048768868380581
% es.Ey (V/m) @ t=0.68
0.10958583409927236
% es.Ez (V/m) @ t=0.68
0.5875338137717072
% es.tEx (V/m) @ t=0.68
-1.4048768868380588
% es.tEy (V/m) @ t=0.68
0
% es.tEz (V/m) @ t=0.68
0.5875338137717101
% V (V) @ t=0.68
0.008528136106047343
% es.normE (V/m) @ t=0.7
1.5414041203499407
% es.EX (V/m) @ t=0.7
-1.417752648333998
% es.EY (V/m) @ t=0.7
0.1105906524570956
% es.EZ (V/m) @ t=0.7
0.5929197718461492
% es.tEX (V/m) @ t=0.7
-1.4177526483339946
% es.tEY (V/m) @ t=0.7
0
% es.tEZ (V/m) @ t=0.7
0.5929197718461516
% es.Ex (V/m) @ t=0.7
-1.417752648333998
% es.Ey (V/m) @ t=0.7
0.1105906524570956
% es.Ez (V/m) @ t=0.7
0.5929197718461492
% es.tEx (V/m) @ t=0.7
-1.4177526483339946
% es.tEy (V/m) @ t=0.7
0
% es.tEz (V/m) @ t=0.7
0.5929197718461516
% V (V) @ t=0.7
0.008606263408374748
% es.normE (V/m) @ t=0.72
1.5554033328223764
% es.EX (V/m) @ t=0.72
-1.4306284098299331
% es.EY (V/m) @ t=0.72
0.11159547081492599
% es.EZ (V/m) @ t=0.72
0.5983057299205876
% es.tEX (V/m) @ t=0.72
-1.4306284098299233
% es.tEY (V/m) @ t=0.72
0
% es.tEZ (V/m) @ t=0.72
0.5983057299205825
% es.Ex (V/m) @ t=0.72
-1.4306284098299331
% es.Ey (V/m) @ t=0.72
0.11159547081492599
% es.Ez (V/m) @ t=0.72
0.5983057299205876
% es.tEx (V/m) @ t=0.72
-1.4306284098299233
% es.tEy (V/m) @ t=0.72
0
% es.tEz (V/m) @ t=0.72
0.5983057299205825
% V (V) @ t=0.72
0.008684390710702152
% es.normE (V/m) @ t=0.74
1.5694025452957674
% es.EX (V/m) @ t=0.74
-1.4435041713258603
% es.EY (V/m) @ t=0.74
0.11260028917275106
% es.EZ (V/m) @ t=0.74
0.6036916879950296
% es.tEX (V/m) @ t=0.74
-1.4435041713258538
% es.tEY (V/m) @ t=0.74
0
% es.tEZ (V/m) @ t=0.74
0.6036916879950276
% es.Ex (V/m) @ t=0.74
-1.4435041713258603
% es.Ey (V/m) @ t=0.74
0.11260028917275106
% es.Ez (V/m) @ t=0.74
0.6036916879950296
% es.tEx (V/m) @ t=0.74
-1.4435041713258538
% es.tEy (V/m) @ t=0.74
0
% es.tEz (V/m) @ t=0.74
0.6036916879950276
% V (V) @ t=0.74
0.008762518013029555
% es.normE (V/m) @ t=0.76
1.5834017577700956
% es.EX (V/m) @ t=0.76
-1.4563799328217957
% es.EY (V/m) @ t=0.76
0.11360510753058145
% es.EZ (V/m) @ t=0.76
0.6090776460694485
% es.tEX (V/m) @ t=0.76
-1.4563799328217844
% es.tEY (V/m) @ t=0.76
0
% es.tEZ (V/m) @ t=0.76
0.6090776460694549
% es.Ex (V/m) @ t=0.76
-1.4563799328217957
% es.Ey (V/m) @ t=0.76
0.11360510753058145
% es.Ez (V/m) @ t=0.76
0.6090776460694485
% es.tEx (V/m) @ t=0.76
-1.4563799328217844
% es.tEy (V/m) @ t=0.76
0
% es.tEz (V/m) @ t=0.76
0.6090776460694549
% V (V) @ t=0.76
0.00884064531535696
% es.normE (V/m) @ t=0.78
1.597400970245347
% es.EX (V/m) @ t=0.78
-1.4692556943177344
% es.EY (V/m) @ t=0.78
0.11460992588839763
% es.EZ (V/m) @ t=0.78
0.6144636041438922
% es.tEX (V/m) @ t=0.78
-1.4692556943177166
% es.tEY (V/m) @ t=0.78
0
% es.tEZ (V/m) @ t=0.78
0.6144636041438929
% es.Ex (V/m) @ t=0.78
-1.4692556943177344
% es.Ey (V/m) @ t=0.78
0.11460992588839763
% es.Ez (V/m) @ t=0.78
0.6144636041438922
% es.tEx (V/m) @ t=0.78
-1.4692556943177166
% es.tEy (V/m) @ t=0.78
0
% es.tEz (V/m) @ t=0.78
0.6144636041438929
% V (V) @ t=0.78
0.008918772617684366
% es.normE (V/m) @ t=0.8
1.6114001827214786
% es.EX (V/m) @ t=0.8
-1.4821314558136616
% es.EY (V/m) @ t=0.8
0.11561474424622448
% es.EZ (V/m) @ t=0.8
0.6198495622183378
% es.tEX (V/m) @ t=0.8
-1.4821314558136596
% es.tEY (V/m) @ t=0.8
0
% es.tEZ (V/m) @ t=0.8
0.6198495622183344
% es.Ex (V/m) @ t=0.8
-1.4821314558136616
% es.Ey (V/m) @ t=0.8
0.11561474424622448
% es.Ez (V/m) @ t=0.8
0.6198495622183378
% es.tEx (V/m) @ t=0.8
-1.4821314558136596
% es.tEy (V/m) @ t=0.8
0
% es.tEz (V/m) @ t=0.8
0.6198495622183344
% V (V) @ t=0.8
0.00899689992001177
% es.normE (V/m) @ t=0.82
1.6257942841885726
% es.EX (V/m) @ t=0.82
-1.4953707279436612
% es.EY (V/m) @ t=0.82
0.11664760373396837
% es.EZ (V/m) @ t=0.82
0.6253867344219568
% es.tEX (V/m) @ t=0.82
-1.4953707279436568
% es.tEY (V/m) @ t=0.82
0
% es.tEZ (V/m) @ t=0.82
0.625386734421955
% es.Ex (V/m) @ t=0.82
-1.4953707279436612
% es.Ey (V/m) @ t=0.82
0.11664760373396837
% es.Ez (V/m) @ t=0.82
0.6253867344219568
% es.tEx (V/m) @ t=0.82
-1.4953707279436568
% es.tEy (V/m) @ t=0.82
0
% es.tEz (V/m) @ t=0.82
0.625386734421955
% V (V) @ t=0.82
0.009077256760147376
% es.normE (V/m) @ t=0.84
1.641456068228746
% es.EX (V/m) @ t=0.84
-1.5097769510562666
% es.EY (V/m) @ t=0.84
0.11777048156241643
% es.EZ (V/m) @ t=0.84
0.6314093380273089
% es.tEX (V/m) @ t=0.84
-1.5097769510562618
% es.tEY (V/m) @ t=0.84
0
% es.tEZ (V/m) @ t=0.84
0.6314093380273107
% es.Ex (V/m) @ t=0.84
-1.5097769510562666
% es.Ey (V/m) @ t=0.84
0.11777048156241643
% es.Ez (V/m) @ t=0.84
0.6314093380273089
% es.tEx (V/m) @ t=0.84
-1.5097769510562618
% es.tEy (V/m) @ t=0.84
0
% es.tEz (V/m) @ t=0.84
0.6314093380273107
% V (V) @ t=0.84
0.009164770918644994
% es.normE (V/m) @ t=0.86
1.6571178522724117
% es.EX (V/m) @ t=0.86
-1.5241831741688698
% es.EY (V/m) @ t=0.86
0.11889335939085571
% es.EZ (V/m) @ t=0.86
0.6374319416326555
% es.tEX (V/m) @ t=0.86
-1.5241831741688596
% es.tEY (V/m) @ t=0.86
0
% es.tEZ (V/m) @ t=0.86
0.6374319416326522
% es.Ex (V/m) @ t=0.86
-1.5241831741688698
% es.Ey (V/m) @ t=0.86
0.11889335939085571
% es.Ez (V/m) @ t=0.86
0.6374319416326555
% es.tEx (V/m) @ t=0.86
-1.5241831741688596
% es.tEy (V/m) @ t=0.86
0
% es.tEz (V/m) @ t=0.86
0.6374319416326522
% V (V) @ t=0.86
0.009252285077142614
% es.normE (V/m) @ t=0.88
1.6727796363194711
% es.EX (V/m) @ t=0.88
-1.5385893972814673
% es.EY (V/m) @ t=0.88
0.1200162372193056
% es.EZ (V/m) @ t=0.88
0.6434545452380023
% es.tEX (V/m) @ t=0.88
-1.5385893972814575
% es.tEY (V/m) @ t=0.88
0
% es.tEZ (V/m) @ t=0.88
0.6434545452380007
% es.Ex (V/m) @ t=0.88
-1.5385893972814673
% es.Ey (V/m) @ t=0.88
0.1200162372193056
% es.Ez (V/m) @ t=0.88
0.6434545452380023
% es.tEx (V/m) @ t=0.88
-1.5385893972814575
% es.tEy (V/m) @ t=0.88
0
% es.tEz (V/m) @ t=0.88
0.6434545452380007
% V (V) @ t=0.88
0.009339799235640236
% es.normE (V/m) @ t=0.9
1.6884414203698457
% es.EX (V/m) @ t=0.9
-1.5529956203940771
% es.EY (V/m) @ t=0.9
0.12113911504775898
% es.EZ (V/m) @ t=0.9
0.6494771488433473
% es.tEX (V/m) @ t=0.9
-1.5529956203940642
% es.tEY (V/m) @ t=0.9
0
% es.tEZ (V/m) @ t=0.9
0.6494771488433422
% es.Ex (V/m) @ t=0.9
-1.5529956203940771
% es.Ey (V/m) @ t=0.9
0.12113911504775898
% es.Ez (V/m) @ t=0.9
0.6494771488433473
% es.tEx (V/m) @ t=0.9
-1.5529956203940642
% es.tEy (V/m) @ t=0.9
0
% es.tEz (V/m) @ t=0.9
0.6494771488433422
% V (V) @ t=0.9
0.009427313394137856
% es.normE (V/m) @ t=0.92
1.7041032044234097
% es.EX (V/m) @ t=0.92
-1.5674018435066643
% es.EY (V/m) @ t=0.92
0.12226199287618583
% es.EZ (V/m) @ t=0.92
0.6554997524486903
% es.tEX (V/m) @ t=0.92
-1.567401843506664
% es.tEY (V/m) @ t=0.92
0
% es.tEZ (V/m) @ t=0.92
0.6554997524486907
% es.Ex (V/m) @ t=0.92
-1.5674018435066643
% es.Ey (V/m) @ t=0.92
0.12226199287618583
% es.Ez (V/m) @ t=0.92
0.6554997524486903
% es.tEx (V/m) @ t=0.92
-1.567401843506664
% es.tEy (V/m) @ t=0.92
0
% es.tEz (V/m) @ t=0.92
0.6554997524486907
% V (V) @ t=0.92
0.009514827552635476
% es.normE (V/m) @ t=0.94
1.71976498848013
% es.EX (V/m) @ t=0.94
-1.5818080666192778
% es.EY (V/m) @ t=0.94
0.1233848707046375
% es.EZ (V/m) @ t=0.94
0.6615223560540477
% es.tEX (V/m) @ t=0.94
-1.5818080666192689
% es.tEY (V/m) @ t=0.94
0
% es.tEZ (V/m) @ t=0.94
0.6615223560540571
% es.Ex (V/m) @ t=0.94
-1.5818080666192778
% es.Ey (V/m) @ t=0.94
0.1233848707046375
% es.Ez (V/m) @ t=0.94
0.6615223560540477
% es.tEx (V/m) @ t=0.94
-1.5818080666192689
% es.tEy (V/m) @ t=0.94
0
% es.tEz (V/m) @ t=0.94
0.6615223560540571
% V (V) @ t=0.94
0.009602341711133097
% es.normE (V/m) @ t=0.96
1.7354267725398729
% es.EX (V/m) @ t=0.96
-1.5962142897318778
% es.EY (V/m) @ t=0.96
0.12450774853308022
% es.EZ (V/m) @ t=0.96
0.667544959659391
% es.tEX (V/m) @ t=0.96
-1.5962142897318738
% es.tEY (V/m) @ t=0.96
0
% es.tEZ (V/m) @ t=0.96
0.6675449596593914
% es.Ex (V/m) @ t=0.96
-1.5962142897318778
% es.Ey (V/m) @ t=0.96
0.12450774853308022
% es.Ez (V/m) @ t=0.96
0.667544959659391
% es.tEx (V/m) @ t=0.96
-1.5962142897318738
% es.tEy (V/m) @ t=0.96
0
% es.tEz (V/m) @ t=0.96
0.6675449596593914
% V (V) @ t=0.96
0.009689855869630717
% es.normE (V/m) @ t=0.98
1.7510885566025762
% es.EX (V/m) @ t=0.98
-1.610620512844474
% es.EY (V/m) @ t=0.98
0.1256306263615355
% es.EZ (V/m) @ t=0.98
0.6735675632647464
% es.tEX (V/m) @ t=0.98
-1.6106205128444753
% es.tEY (V/m) @ t=0.98
0
% es.tEZ (V/m) @ t=0.98
0.6735675632647435
% es.Ex (V/m) @ t=0.98
-1.610620512844474
% es.Ey (V/m) @ t=0.98
0.1256306263615355
% es.Ez (V/m) @ t=0.98
0.6735675632647464
% es.tEx (V/m) @ t=0.98
-1.6106205128444753
% es.tEy (V/m) @ t=0.98
0
% es.tEz (V/m) @ t=0.98
0.6735675632647435
% V (V) @ t=0.98
0.009777370028128335
% es.normE (V/m) @ t=1
1.7667503406681648
% es.EX (V/m) @ t=1
-1.6250267359570802
% es.EY (V/m) @ t=1
0.12675350418997644
% es.EZ (V/m) @ t=1
0.6795901668700932
% es.tEX (V/m) @ t=1
-1.6250267359570731
% es.tEY (V/m) @ t=1
0
% es.tEZ (V/m) @ t=1
0.6795901668700921
% es.Ex (V/m) @ t=1
-1.6250267359570802
% es.Ey (V/m) @ t=1
0.12675350418997644
% es.Ez (V/m) @ t=1
0.6795901668700932
% es.tEx (V/m) @ t=1
-1.6250267359570731
% es.tEy (V/m) @ t=1
0
% es.tEz (V/m) @ t=1
0.6795901668700921
% V (V) @ t=1
0.009864884186625955
% es.normE (V/m) @ t=1.02
1.782412124736545
% es.EX (V/m) @ t=1.02
-1.6394329590696728
% es.EY (V/m) @ t=1.02
0.12787638201842466
% es.EZ (V/m) @ t=1.02
0.6856127704754381
% es.tEX (V/m) @ t=1.02
-1.6394329590696728
% es.tEY (V/m) @ t=1.02
0
% es.tEZ (V/m) @ t=1.02
0.6856127704754371
% es.Ex (V/m) @ t=1.02
-1.6394329590696728
% es.Ey (V/m) @ t=1.02
0.12787638201842466
% es.Ez (V/m) @ t=1.02
0.6856127704754381
% es.tEx (V/m) @ t=1.02
-1.6394329590696728
% es.tEy (V/m) @ t=1.02
0
% es.tEz (V/m) @ t=1.02
0.6856127704754371
% V (V) @ t=1.02
0.009952398345123578
% es.normE (V/m) @ t=1.04
1.7980739088076696
% es.EX (V/m) @ t=1.04
-1.6538391821822818
% es.EY (V/m) @ t=1.04
0.12899925984685323
% es.EZ (V/m) @ t=1.04