% Model:              1 neuron.mph
% Version:            COMSOL 6.1.0.252
% Date:               Mar 18 2023, 12:50
% Dimension:          0
% Nodes:              14017
% Expressions:        14017
% Description:        Electric field norm, Electric field, X component, Electric field, Y component, Electric field, Z component, Tangential electric field, X component, Tangential electric field, Y component, Tangential electric field, Z component, Electric field, x component, Electric field, y component, Electric field, z component, Tangential electric field, x component, Tangential electric field, y component, Tangential electric field, z component, Electric potential
% Length unit:        mm
% x
1.33
% y
12.2
% z
2
% es.normE (V/m) @ t=0
1.440420104769721
% es.EX (V/m) @ t=0
0.5740605312646732
% es.EY (V/m) @ t=0
0.15177161293192754
% es.EZ (V/m) @ t=0
-1.311172698653798
% es.tEX (V/m) @ t=0
0.5740605312646734
% es.tEY (V/m) @ t=0
0
% es.tEZ (V/m) @ t=0
-1.3111726986538006
% es.Ex (V/m) @ t=0
0.5740605312646732
% es.Ey (V/m) @ t=0
0.15177161293192754
% es.Ez (V/m) @ t=0
-1.311172698653798
% es.tEx (V/m) @ t=0
0.5740605312646734
% es.tEy (V/m) @ t=0
0
% es.tEz (V/m) @ t=0
-1.3111726986538006
% V (V) @ t=0
0.007202231049225145
% es.normE (V/m) @ t=0.02
1.2441093790052673
% es.EX (V/m) @ t=0.02
0.49582347073222555
% es.EY (V/m) @ t=0.02
0.13108711538514672
% es.EZ (V/m) @ t=0.02
-1.1324767281343595
% es.tEX (V/m) @ t=0.02
0.49582347073222577
% es.tEY (V/m) @ t=0.02
0
% es.tEZ (V/m) @ t=0.02
-1.132476728134364
% es.Ex (V/m) @ t=0.02
0.49582347073222555
% es.Ey (V/m) @ t=0.02
0.13108711538514672
% es.Ez (V/m) @ t=0.02
-1.1324767281343595
% es.tEx (V/m) @ t=0.02
0.49582347073222577
% es.tEy (V/m) @ t=0.02
0
% es.tEz (V/m) @ t=0.02
-1.132476728134364
% V (V) @ t=0.02
0.006220659159242072
% es.normE (V/m) @ t=0.04
1.2555559987696787
% es.EX (V/m) @ t=0.04
0.5003853720624969
% es.EY (V/m) @ t=0.04
0.13229321084074597
% es.EZ (V/m) @ t=0.04
-1.1428962532907718
% es.tEX (V/m) @ t=0.04
0.5003853720624933
% es.tEY (V/m) @ t=0.04
0
% es.tEZ (V/m) @ t=0.04
-1.1428962532907754
% es.Ex (V/m) @ t=0.04
0.5003853720624969
% es.Ey (V/m) @ t=0.04
0.13229321084074597
% es.Ez (V/m) @ t=0.04
-1.1428962532907718
% es.tEx (V/m) @ t=0.04
0.5003853720624933
% es.tEy (V/m) @ t=0.04
0
% es.tEz (V/m) @ t=0.04
-1.1428962532907754
% V (V) @ t=0.04
0.006277893103125197
% es.normE (V/m) @ t=0.06
1.2671078940696625
% es.EX (V/m) @ t=0.06
0.5049892262446833
% es.EY (V/m) @ t=0.06
0.13351037622225714
% es.EZ (V/m) @ t=0.06
-1.15341161109008
% es.tEX (V/m) @ t=0.06
0.50498922624468
% es.tEY (V/m) @ t=0.06
0
% es.tEZ (V/m) @ t=0.06
-1.1534116110900818
% es.Ex (V/m) @ t=0.06
0.5049892262446833
% es.Ey (V/m) @ t=0.06
0.13351037622225714
% es.Ez (V/m) @ t=0.06
-1.15341161109008
% es.tEx (V/m) @ t=0.06
0.50498922624468
% es.tEy (V/m) @ t=0.06
0
% es.tEz (V/m) @ t=0.06
-1.1534116110900818
% V (V) @ t=0.06
0.006335653948714403
% es.normE (V/m) @ t=0.08
1.2788312768380434
% es.EX (V/m) @ t=0.08
0.5096614259612644
% es.EY (V/m) @ t=0.08
0.13474562047535876
% es.EZ (V/m) @ t=0.08
-1.1640830674893126
% es.tEX (V/m) @ t=0.08
0.5096614259612608
% es.tEY (V/m) @ t=0.08
0
% es.tEZ (V/m) @ t=0.08
-1.1640830674893117
% es.Ex (V/m) @ t=0.08
0.5096614259612644
% es.Ey (V/m) @ t=0.08
0.13474562047535876
% es.Ez (V/m) @ t=0.08
-1.1640830674893126
% es.tEx (V/m) @ t=0.08
0.5096614259612608
% es.tEy (V/m) @ t=0.08
0
% es.tEz (V/m) @ t=0.08
-1.1640830674893117
% V (V) @ t=0.08
0.0063942720218401325
% es.normE (V/m) @ t=0.1
1.290683859154874
% es.EX (V/m) @ t=0.1
0.5143851175580494
% es.EY (V/m) @ t=0.1
0.13599448544413573
% es.EZ (V/m) @ t=0.1
-1.1748721293836502
% es.tEX (V/m) @ t=0.1
0.5143851175580494
% es.tEY (V/m) @ t=0.1
0
% es.tEZ (V/m) @ t=0.1
-1.1748721293836528
% es.Ex (V/m) @ t=0.1
0.5143851175580494
% es.Ey (V/m) @ t=0.1
0.13599448544413573
% es.Ez (V/m) @ t=0.1
-1.1748721293836502
% es.tEx (V/m) @ t=0.1
0.5143851175580494
% es.tEy (V/m) @ t=0.1
0
% es.tEz (V/m) @ t=0.1
-1.1748721293836528
% V (V) @ t=0.1
0.006453535934639682
% es.normE (V/m) @ t=0.12
1.302536441471711
% es.EX (V/m) @ t=0.12
0.519108809154845
% es.EY (V/m) @ t=0.12
0.13724335041290914
% es.EZ (V/m) @ t=0.12
-1.1856611912779895
% es.tEX (V/m) @ t=0.12
0.519108809154845
% es.tEY (V/m) @ t=0.12
0
% es.tEZ (V/m) @ t=0.12
-1.1856611912779904
% es.Ex (V/m) @ t=0.12
0.519108809154845
% es.Ey (V/m) @ t=0.12
0.13724335041290914
% es.Ez (V/m) @ t=0.12
-1.1856611912779895
% es.tEx (V/m) @ t=0.12
0.519108809154845
% es.tEy (V/m) @ t=0.12
0
% es.tEz (V/m) @ t=0.12
-1.1856611912779904
% V (V) @ t=0.12
0.006512799847439231
% es.normE (V/m) @ t=0.14
1.3144849128427758
% es.EX (V/m) @ t=0.14
0.5238707147467816
% es.EY (V/m) @ t=0.14
0.13850231001459123
% es.EZ (V/m) @ t=0.14
-1.1965375395320565
% es.tEX (V/m) @ t=0.14
0.5238707147467818
% es.tEY (V/m) @ t=0.14
0
% es.tEZ (V/m) @ t=0.14
-1.1965375395320592
% es.Ex (V/m) @ t=0.14
0.5238707147467816
% es.Ey (V/m) @ t=0.14
0.13850231001459123
% es.Ez (V/m) @ t=0.14
-1.1965375395320565
% es.tEx (V/m) @ t=0.14
0.5238707147467818
% es.tEy (V/m) @ t=0.14
0
% es.tEz (V/m) @ t=0.14
-1.1965375395320592
% V (V) @ t=0.14
0.006572543416623202
% es.normE (V/m) @ t=0.16
1.3269739711179906
% es.EX (V/m) @ t=0.16
0.5288480566625113
% es.EY (V/m) @ t=0.16
0.1398181794105513
% es.EZ (V/m) @ t=0.16
-1.2079059758910367
% es.tEX (V/m) @ t=0.16
0.5288480566625116
% es.tEY (V/m) @ t=0.16
0
% es.tEZ (V/m) @ t=0.16
-1.2079059758910393
% es.Ex (V/m) @ t=0.16
0.5288480566625113
% es.Ey (V/m) @ t=0.16
0.1398181794105513
% es.Ez (V/m) @ t=0.16
-1.2079059758910367
% es.tEx (V/m) @ t=0.16
0.5288480566625116
% es.tEy (V/m) @ t=0.16
0
% es.tEz (V/m) @ t=0.16
-1.2079059758910393
% V (V) @ t=0.16
0.006634991110506091
% es.normE (V/m) @ t=0.18
1.3394630293932206
% es.EX (V/m) @ t=0.18
0.5338253985782486
% es.EY (V/m) @ t=0.18
0.14113404880651625
% es.EZ (V/m) @ t=0.18
-1.2192744122500256
% es.tEX (V/m) @ t=0.18
0.5338253985782488
% es.tEY (V/m) @ t=0.18
0
% es.tEZ (V/m) @ t=0.18
-1.21927441225003
% es.Ex (V/m) @ t=0.18
0.5338253985782486
% es.Ey (V/m) @ t=0.18
0.14113404880651625
% es.Ez (V/m) @ t=0.18
-1.2192744122500256
% es.tEx (V/m) @ t=0.18
0.5338253985782488
% es.tEy (V/m) @ t=0.18
0
% es.tEz (V/m) @ t=0.18
-1.21927441225003
% V (V) @ t=0.18
0.00669743880438898
% es.normE (V/m) @ t=0.2
1.3519520876684417
% es.EX (V/m) @ t=0.2
0.5388027404939753
% es.EY (V/m) @ t=0.2
0.1424499182024812
% es.EZ (V/m) @ t=0.2
-1.2306428486090057
% es.tEX (V/m) @ t=0.2
0.5388027404939719
% es.tEY (V/m) @ t=0.2
0
% es.tEZ (V/m) @ t=0.2
-1.2306428486090102
% es.Ex (V/m) @ t=0.2
0.5388027404939753
% es.Ey (V/m) @ t=0.2
0.1424499182024812
% es.Ez (V/m) @ t=0.2
-1.2306428486090057
% es.tEx (V/m) @ t=0.2
0.5388027404939719
% es.tEy (V/m) @ t=0.2
0
% es.tEz (V/m) @ t=0.2
-1.2306428486090102
% V (V) @ t=0.2
0.006759886498271871
% es.normE (V/m) @ t=0.22
1.3644411459436756
% es.EX (V/m) @ t=0.22
0.543780082409709
% es.EY (V/m) @ t=0.22
0.1437657875984497
% es.EZ (V/m) @ t=0.22
-1.242011284967993
% es.tEX (V/m) @ t=0.22
0.5437800824097092
% es.tEY (V/m) @ t=0.22
0
% es.tEZ (V/m) @ t=0.22
-1.2420112849679956
% es.Ex (V/m) @ t=0.22
0.543780082409709
% es.Ey (V/m) @ t=0.22
0.1437657875984497
% es.Ez (V/m) @ t=0.22
-1.242011284967993
% es.tEx (V/m) @ t=0.22
0.5437800824097092
% es.tEy (V/m) @ t=0.22
0
% es.tEz (V/m) @ t=0.22
-1.2420112849679956
% V (V) @ t=0.22
0.00682233419215476
% es.normE (V/m) @ t=0.24
1.3769302042189029
% es.EX (V/m) @ t=0.24
0.5487574243254387
% es.EY (V/m) @ t=0.24
0.14508165699442754
% es.EZ (V/m) @ t=0.24
-1.2533797213269695
% es.tEX (V/m) @ t=0.24
0.548757424325439
% es.tEY (V/m) @ t=0.24
0
% es.tEZ (V/m) @ t=0.24
-1.2533797213269704
% es.Ex (V/m) @ t=0.24
0.5487574243254387
% es.Ey (V/m) @ t=0.24
0.14508165699442754
% es.Ez (V/m) @ t=0.24
-1.2533797213269695
% es.tEx (V/m) @ t=0.24
0.548757424325439
% es.tEy (V/m) @ t=0.24
0
% es.tEz (V/m) @ t=0.24
-1.2533797213269704
% V (V) @ t=0.24
0.006884781886037649
% es.normE (V/m) @ t=0.26
1.3894192624941468
% es.EX (V/m) @ t=0.26
0.5537347662411725
% es.EY (V/m) @ t=0.26
0.14639752639037873
% es.EZ (V/m) @ t=0.26
-1.264748157685962
% es.tEX (V/m) @ t=0.26
0.5537347662411691
% es.tEY (V/m) @ t=0.26
0
% es.tEZ (V/m) @ t=0.26
-1.264748157685963
% es.Ex (V/m) @ t=0.26
0.5537347662411725
% es.Ey (V/m) @ t=0.26
0.14639752639037873
% es.Ez (V/m) @ t=0.26
-1.264748157685962
% es.tEx (V/m) @ t=0.26
0.5537347662411691
% es.tEy (V/m) @ t=0.26
0
% es.tEz (V/m) @ t=0.26
-1.264748157685963
% V (V) @ t=0.26
0.00694722957992054
% es.normE (V/m) @ t=0.28
1.4023540045341716
% es.EX (V/m) @ t=0.28
0.5588897889033981
% es.EY (V/m) @ t=0.28
0.1477607526461049
% es.EZ (V/m) @ t=0.28
-1.27652222742966
% es.tEX (V/m) @ t=0.28
0.5588897889033984
% es.tEY (V/m) @ t=0.28
0
% es.tEZ (V/m) @ t=0.28
-1.2765222274296608
% es.Ex (V/m) @ t=0.28
0.5588897889033981
% es.Ey (V/m) @ t=0.28
0.1477607526461049
% es.Ez (V/m) @ t=0.28
-1.27652222742966
% es.tEx (V/m) @ t=0.28
0.5588897889033984
% es.tEy (V/m) @ t=0.28
0
% es.tEz (V/m) @ t=0.28
-1.2765222274296608
% V (V) @ t=0.28
0.007011896652201091
% es.normE (V/m) @ t=0.3
1.416274606165751
% es.EX (V/m) @ t=0.3
0.5644378442085294
% es.EY (V/m) @ t=0.3
0.14922873303033857
% es.EZ (V/m) @ t=0.3
-1.2891935646848234
% es.tEX (V/m) @ t=0.3
0.5644378442085296
% es.tEY (V/m) @ t=0.3
0
% es.tEZ (V/m) @ t=0.3
-1.289193564684826
% es.Ex (V/m) @ t=0.3
0.5644378442085294
% es.Ey (V/m) @ t=0.3
0.14922873303033857
% es.Ez (V/m) @ t=0.3
-1.2891935646848234
% es.tEx (V/m) @ t=0.3
0.5644378442085296
% es.tEy (V/m) @ t=0.3
0
% es.tEz (V/m) @ t=0.3
-1.289193564684826
% V (V) @ t=0.3
0.007081473024866887
% es.normE (V/m) @ t=0.32
1.4301952077989684
% es.EX (V/m) @ t=0.32
0.5699858995136575
% es.EY (V/m) @ t=0.32
0.15069671341456425
% es.EZ (V/m) @ t=0.32
-1.301864901939994
% es.tEX (V/m) @ t=0.32
0.5699858995136542
% es.tEY (V/m) @ t=0.32
0
% es.tEZ (V/m) @ t=0.32
-1.3018649019399984
% es.Ex (V/m) @ t=0.32
0.5699858995136575
% es.Ey (V/m) @ t=0.32
0.15069671341456425
% es.Ez (V/m) @ t=0.32
-1.301864901939994
% es.tEx (V/m) @ t=0.32
0.5699858995136542
% es.tEy (V/m) @ t=0.32
0
% es.tEz (V/m) @ t=0.32
-1.3018649019399984
% V (V) @ t=0.32
0.007151049397532683
% es.normE (V/m) @ t=0.34
1.4441158094337643
% es.EX (V/m) @ t=0.34
0.5755339548187923
% es.EY (V/m) @ t=0.34
0.1521646937987855
% es.EZ (V/m) @ t=0.34
-1.3145362391951538
% es.tEX (V/m) @ t=0.34
0.5755339548187925
% es.tEY (V/m) @ t=0.34
0
% es.tEZ (V/m) @ t=0.34
-1.3145362391951565
% es.Ex (V/m) @ t=0.34
0.5755339548187923
% es.Ey (V/m) @ t=0.34
0.1521646937987855
% es.Ez (V/m) @ t=0.34
-1.3145362391951538
% es.tEx (V/m) @ t=0.34
0.5755339548187925
% es.tEy (V/m) @ t=0.34
0
% es.tEz (V/m) @ t=0.34
-1.3145362391951565
% V (V) @ t=0.34
0.0072206257701984775
% es.normE (V/m) @ t=0.36
1.4580364110701032
% es.EX (V/m) @ t=0.36
0.5810820101239098
% es.EY (V/m) @ t=0.36
0.1536326741830254
% es.EZ (V/m) @ t=0.36
-1.3272075764503208
% es.tEX (V/m) @ t=0.36
0.58108201012391
% es.tEY (V/m) @ t=0.36
0
% es.tEZ (V/m) @ t=0.36
-1.3272075764503235
% es.Ex (V/m) @ t=0.36
0.5810820101239098
% es.Ey (V/m) @ t=0.36
0.1536326741830254
% es.Ez (V/m) @ t=0.36
-1.3272075764503208
% es.tEx (V/m) @ t=0.36
0.58108201012391
% es.tEy (V/m) @ t=0.36
0
% es.tEz (V/m) @ t=0.36
-1.3272075764503235
% V (V) @ t=0.36
0.0072902021428642725
% es.normE (V/m) @ t=0.38
1.4719570127079473
% es.EX (V/m) @ t=0.38
0.5866300654290482
% es.EY (V/m) @ t=0.38
0.1551006545672502
% es.EZ (V/m) @ t=0.38
-1.3398789137054896
% es.tEX (V/m) @ t=0.38
0.5866300654290484
% es.tEY (V/m) @ t=0.38
0
% es.tEZ (V/m) @ t=0.38
-1.3398789137054887
% es.Ex (V/m) @ t=0.38
0.5866300654290482
% es.Ey (V/m) @ t=0.38
0.1551006545672502
% es.Ez (V/m) @ t=0.38
-1.3398789137054896
% es.tEx (V/m) @ t=0.38
0.5866300654290484
% es.tEy (V/m) @ t=0.38
0
% es.tEz (V/m) @ t=0.38
-1.3398789137054887
% V (V) @ t=0.38
0.007359778515530067
% es.normE (V/m) @ t=0.4
1.4858776143472379
% es.EX (V/m) @ t=0.4
0.5921781207341799
% es.EY (V/m) @ t=0.4
0.15656863495147988
% es.EZ (V/m) @ t=0.4
-1.3525502509606513
% es.tEX (V/m) @ t=0.4
0.5921781207341801
% es.tEY (V/m) @ t=0.4
0
% es.tEZ (V/m) @ t=0.4
-1.3525502509606557
% es.Ex (V/m) @ t=0.4
0.5921781207341799
% es.Ey (V/m) @ t=0.4
0.15656863495147988
% es.Ez (V/m) @ t=0.4
-1.3525502509606513
% es.tEx (V/m) @ t=0.4
0.5921781207341801
% es.tEy (V/m) @ t=0.4
0
% es.tEz (V/m) @ t=0.4
-1.3525502509606557
% V (V) @ t=0.4
0.007429354888195863
% es.normE (V/m) @ t=0.42
1.4997982159879484
% es.EX (V/m) @ t=0.42
0.597726176039304
% es.EY (V/m) @ t=0.42
0.15803661533571667
% es.EZ (V/m) @ t=0.42
-1.3652215882158218
% es.tEX (V/m) @ t=0.42
0.5977261760393042
% es.tEY (V/m) @ t=0.42
0
% es.tEZ (V/m) @ t=0.42
-1.3652215882158227
% es.Ex (V/m) @ t=0.42
0.597726176039304
% es.Ey (V/m) @ t=0.42
0.15803661533571667
% es.Ez (V/m) @ t=0.42
-1.3652215882158218
% es.tEx (V/m) @ t=0.42
0.5977261760393042
% es.tEy (V/m) @ t=0.42
0
% es.tEz (V/m) @ t=0.42
-1.3652215882158227
% V (V) @ t=0.42
0.007498931260861659
% es.normE (V/m) @ t=0.44
1.5137188176300254
% es.EX (V/m) @ t=0.44
0.6032742313444219
% es.EY (V/m) @ t=0.44
0.15950459571994413
% es.EZ (V/m) @ t=0.44
-1.3778929254709853
% es.tEX (V/m) @ t=0.44
0.6032742313444222
% es.tEY (V/m) @ t=0.44
0
% es.tEZ (V/m) @ t=0.44
-1.377892925470988
% es.Ex (V/m) @ t=0.44
0.6032742313444219
% es.Ey (V/m) @ t=0.44
0.15950459571994413
% es.Ez (V/m) @ t=0.44
-1.3778929254709853
% es.tEx (V/m) @ t=0.44
0.6032742313444222
% es.tEy (V/m) @ t=0.44
0
% es.tEz (V/m) @ t=0.44
-1.377892925470988
% V (V) @ t=0.44
0.007568507633527453
% es.normE (V/m) @ t=0.46
1.5276394192734477
% es.EX (V/m) @ t=0.46
0.6088222866495598
% es.EY (V/m) @ t=0.46
0.1609725761041747
% es.EZ (V/m) @ t=0.46
-1.3905642627261487
% es.tEX (V/m) @ t=0.46
0.6088222866495601
% es.tEY (V/m) @ t=0.46
0
% es.tEZ (V/m) @ t=0.46
-1.390564262726155
% es.Ex (V/m) @ t=0.46
0.6088222866495598
% es.Ey (V/m) @ t=0.46
0.1609725761041747
% es.Ez (V/m) @ t=0.46
-1.3905642627261487
% es.tEx (V/m) @ t=0.46
0.6088222866495601
% es.tEy (V/m) @ t=0.46
0
% es.tEz (V/m) @ t=0.46
-1.390564262726155
% V (V) @ t=0.46
0.00763808400619325
% es.normE (V/m) @ t=0.48
1.5415600209181743
% es.EX (V/m) @ t=0.48
0.6143703419546915
% es.EY (V/m) @ t=0.48
0.16244055648839684
% es.EZ (V/m) @ t=0.48
-1.4032355999813175
% es.tEX (V/m) @ t=0.48
0.6143703419546918
% es.tEY (V/m) @ t=0.48
0
% es.tEZ (V/m) @ t=0.48
-1.403235599981322
% es.Ex (V/m) @ t=0.48
0.6143703419546915
% es.Ey (V/m) @ t=0.48
0.16244055648839684
% es.Ez (V/m) @ t=0.48
-1.4032355999813175
% es.tEx (V/m) @ t=0.48
0.6143703419546918
% es.tEy (V/m) @ t=0.48
0
% es.tEz (V/m) @ t=0.48
-1.403235599981322
% V (V) @ t=0.48
0.007707660378859045
% es.normE (V/m) @ t=0.5
1.5554806225641729
% es.EX (V/m) @ t=0.5
0.6199183972598299
% es.EY (V/m) @ t=0.5
0.16390853687262164
% es.EZ (V/m) @ t=0.5
-1.4159069372364899
% es.tEX (V/m) @ t=0.5
0.6199183972598301
% es.tEY (V/m) @ t=0.5
0
% es.tEZ (V/m) @ t=0.5
-1.4159069372364925
% es.Ex (V/m) @ t=0.5
0.6199183972598299
% es.Ey (V/m) @ t=0.5
0.16390853687262164
% es.Ez (V/m) @ t=0.5
-1.4159069372364899
% es.tEx (V/m) @ t=0.5
0.6199183972598301
% es.tEy (V/m) @ t=0.5
0
% es.tEz (V/m) @ t=0.5
-1.4159069372364925
% V (V) @ t=0.5
0.00777723675152484
% es.normE (V/m) @ t=0.52
1.569401224211394
% es.EX (V/m) @ t=0.52
0.6254664525649585
% es.EY (V/m) @ t=0.52
0.16537651725684377
% es.EZ (V/m) @ t=0.52
-1.428578274491655
% es.tEX (V/m) @ t=0.52
0.6254664525649551
% es.tEY (V/m) @ t=0.52
0
% es.tEZ (V/m) @ t=0.52
-1.428578274491656
% es.Ex (V/m) @ t=0.52
0.6254664525649585
% es.Ey (V/m) @ t=0.52
0.16537651725684377
% es.Ez (V/m) @ t=0.52
-1.428578274491655
% es.tEx (V/m) @ t=0.52
0.6254664525649551
% es.tEy (V/m) @ t=0.52
0
% es.tEz (V/m) @ t=0.52
-1.428578274491656
% V (V) @ t=0.52
0.007846813124190636
% es.normE (V/m) @ t=0.54
1.5833218258598087
% es.EX (V/m) @ t=0.54
0.6310145078700791
% es.EY (V/m) @ t=0.54
0.16684449764109122
% es.EZ (V/m) @ t=0.54
-1.4412496117468132
% es.tEX (V/m) @ t=0.54
0.6310145078700793
% es.tEY (V/m) @ t=0.54
0
% es.tEZ (V/m) @ t=0.54
-1.4412496117468159
% es.Ex (V/m) @ t=0.54
0.6310145078700791
% es.Ey (V/m) @ t=0.54
0.16684449764109122
% es.Ez (V/m) @ t=0.54
-1.4412496117468132
% es.tEx (V/m) @ t=0.54
0.6310145078700793
% es.tEy (V/m) @ t=0.54
0
% es.tEz (V/m) @ t=0.54
-1.4412496117468159
% V (V) @ t=0.54
0.00791638949685643
% es.normE (V/m) @ t=0.56
1.598271503915289
% es.EX (V/m) @ t=0.56
0.6369725601265193
% es.EY (V/m) @ t=0.56
0.16842005161522344
% es.EZ (V/m) @ t=0.56
-1.454857816111173
% es.tEX (V/m) @ t=0.56
0.6369725601265195
% es.tEY (V/m) @ t=0.56
0
% es.tEZ (V/m) @ t=0.56
-1.4548578161111756
% es.Ex (V/m) @ t=0.56
0.6369725601265193
% es.Ey (V/m) @ t=0.56
0.16842005161522344
% es.Ez (V/m) @ t=0.56
-1.454857816111173
% es.tEx (V/m) @ t=0.56
0.6369725601265195
% es.tEy (V/m) @ t=0.56
0
% es.tEz (V/m) @ t=0.56
-1.4548578161111756
% V (V) @ t=0.56
0.00799113093650996
% es.normE (V/m) @ t=0.58
1.6138186397660639
% es.EX (V/m) @ t=0.58
0.643168647064426
% es.EY (V/m) @ t=0.58
0.17005806031038695
% es.EZ (V/m) @ t=0.58
-1.4690099437003576
% es.tEX (V/m) @ t=0.58
0.6431686470644262
% es.tEY (V/m) @ t=0.58
0
% es.tEZ (V/m) @ t=0.58
-1.469009943700362
% es.Ex (V/m) @ t=0.58
0.643168647064426
% es.Ey (V/m) @ t=0.58
0.17005806031038695
% es.Ez (V/m) @ t=0.58
-1.4690099437003576
% es.tEx (V/m) @ t=0.58
0.6431686470644262
% es.tEy (V/m) @ t=0.58
0
% es.tEz (V/m) @ t=0.58
-1.469009943700362
% V (V) @ t=0.58
0.008068871093766947
% es.normE (V/m) @ t=0.6
1.6293657756169202
% es.EX (V/m) @ t=0.6
0.6493647340023401
% es.EY (V/m) @ t=0.6
0.1716960690055318
% es.EZ (V/m) @ t=0.6
-1.4831620712895406
% es.tEX (V/m) @ t=0.6
0.6493647340023405
% es.tEY (V/m) @ t=0.6
0
% es.tEZ (V/m) @ t=0.6
-1.4831620712895415
% es.Ex (V/m) @ t=0.6
0.6493647340023401
% es.Ey (V/m) @ t=0.6
0.1716960690055318
% es.Ez (V/m) @ t=0.6
-1.4831620712895406
% es.tEx (V/m) @ t=0.6
0.6493647340023405
% es.tEy (V/m) @ t=0.6
0
% es.tEz (V/m) @ t=0.6
-1.4831620712895415
% V (V) @ t=0.6
0.008146611251023934
% es.normE (V/m) @ t=0.62
1.6449129114678596
% es.EX (V/m) @ t=0.62
0.6555608209402395
% es.EY (V/m) @ t=0.62
0.17333407770069664
% es.EZ (V/m) @ t=0.62
-1.4973141988787306
% es.tEX (V/m) @ t=0.62
0.6555608209402397
% es.tEY (V/m) @ t=0.62
0
% es.tEZ (V/m) @ t=0.62
-1.497314198878735
% es.Ex (V/m) @ t=0.62
0.6555608209402395
% es.Ey (V/m) @ t=0.62
0.17333407770069664
% es.Ez (V/m) @ t=0.62
-1.4973141988787306
% es.tEx (V/m) @ t=0.62
0.6555608209402397
% es.tEy (V/m) @ t=0.62
0
% es.tEz (V/m) @ t=0.62
-1.497314198878735
% V (V) @ t=0.62
0.00822435140828092
% es.normE (V/m) @ t=0.64
1.6604600473188753
% es.EX (V/m) @ t=0.64
0.66175690787816
% es.EY (V/m) @ t=0.64
0.17497208639585127
% es.EZ (V/m) @ t=0.64
-1.5114663264679118
% es.tEX (V/m) @ t=0.64
0.6617569078781602
% es.tEY (V/m) @ t=0.64
0
% es.tEZ (V/m) @ t=0.64
-1.5114663264679145
% es.Ex (V/m) @ t=0.64
0.66175690787816
% es.Ey (V/m) @ t=0.64
0.17497208639585127
% es.Ez (V/m) @ t=0.64
-1.5114663264679118
% es.tEx (V/m) @ t=0.64
0.6617569078781602
% es.tEy (V/m) @ t=0.64
0
% es.tEz (V/m) @ t=0.64
-1.5114663264679145
% V (V) @ t=0.64
0.00830209156553791
% es.normE (V/m) @ t=0.66
1.6760071831699734
% es.EX (V/m) @ t=0.66
0.6679529948160743
% es.EY (V/m) @ t=0.66
0.17661009509098724
% es.EZ (V/m) @ t=0.66
-1.5256184540571054
% es.tEX (V/m) @ t=0.66
0.6679529948160745
% es.tEY (V/m) @ t=0.66
0
% es.tEZ (V/m) @ t=0.66
-1.525618454057108
% es.Ex (V/m) @ t=0.66
0.6679529948160743
% es.Ey (V/m) @ t=0.66
0.17661009509098724
% es.Ez (V/m) @ t=0.66
-1.5256184540571054
% es.tEx (V/m) @ t=0.66
0.6679529948160745
% es.tEy (V/m) @ t=0.66
0
% es.tEz (V/m) @ t=0.66
-1.525618454057108
% V (V) @ t=0.66
0.008379831722794894
% es.normE (V/m) @ t=0.68
1.6915543190211393
% es.EX (V/m) @ t=0.68
0.6741490817539879
% es.EY (V/m) @ t=0.68
0.1782481037861543
% es.EZ (V/m) @ t=0.68
-1.5397705816462883
% es.tEX (V/m) @ t=0.68
0.6741490817539884
% es.tEY (V/m) @ t=0.68
0
% es.tEZ (V/m) @ t=0.68
-1.539770581646291
% es.Ex (V/m) @ t=0.68
0.6741490817539879
% es.Ey (V/m) @ t=0.68
0.1782481037861543
% es.Ez (V/m) @ t=0.68
-1.5397705816462883
% es.tEx (V/m) @ t=0.68
0.6741490817539884
% es.tEy (V/m) @ t=0.68
0
% es.tEz (V/m) @ t=0.68
-1.539770581646291
% V (V) @ t=0.68
0.00845757188005188
% es.normE (V/m) @ t=0.7
1.7071014548723822
% es.EX (V/m) @ t=0.7
0.680345168691902
% es.EY (V/m) @ t=0.7
0.17988611248130093
% es.EZ (V/m) @ t=0.7
-1.5539227092354801
% es.tEX (V/m) @ t=0.7
0.6803451686919022
% es.tEY (V/m) @ t=0.7
0
% es.tEZ (V/m) @ t=0.7
-1.553922709235481
% es.Ex (V/m) @ t=0.7
0.680345168691902
% es.Ey (V/m) @ t=0.7
0.17988611248130093
% es.Ez (V/m) @ t=0.7
-1.5539227092354801
% es.tEx (V/m) @ t=0.7
0.6803451686919022
% es.tEy (V/m) @ t=0.7
0
% es.tEz (V/m) @ t=0.7
-1.553922709235481
% V (V) @ t=0.7
0.00853531203730887
% es.normE (V/m) @ t=0.72
1.7226485907236895
% es.EX (V/m) @ t=0.72
0.6865412556298229
% es.EY (V/m) @ t=0.72
0.18152412117645333
% es.EZ (V/m) @ t=0.72
-1.568074836824663
% es.tEX (V/m) @ t=0.72
0.6865412556298232
% es.tEY (V/m) @ t=0.72
0
% es.tEZ (V/m) @ t=0.72
-1.568074836824664
% es.Ex (V/m) @ t=0.72
0.6865412556298229
% es.Ey (V/m) @ t=0.72
0.18152412117645333
% es.Ez (V/m) @ t=0.72
-1.568074836824663
% es.tEx (V/m) @ t=0.72
0.6865412556298232
% es.tEy (V/m) @ t=0.72
0
% es.tEz (V/m) @ t=0.72
-1.568074836824664
% V (V) @ t=0.72
0.008613052194565858
% es.normE (V/m) @ t=0.74
1.7381957265750678
% es.EX (V/m) @ t=0.74
0.6927373425677292
% es.EY (V/m) @ t=0.74
0.1831621298716204
% es.EZ (V/m) @ t=0.74
-1.582226964413854
% es.tEX (V/m) @ t=0.74
0.6927373425677295
% es.tEY (V/m) @ t=0.74
0
% es.tEZ (V/m) @ t=0.74
-1.5822269644138558
% es.Ex (V/m) @ t=0.74
0.6927373425677292
% es.Ey (V/m) @ t=0.74
0.1831621298716204
% es.Ez (V/m) @ t=0.74
-1.582226964413854
% es.tEx (V/m) @ t=0.74
0.6927373425677295
% es.tEy (V/m) @ t=0.74
0
% es.tEz (V/m) @ t=0.74
-1.5822269644138558
% V (V) @ t=0.74
0.008690792351822843
% es.normE (V/m) @ t=0.76
1.7537428624265021
% es.EX (V/m) @ t=0.76
0.6989334295056393
% es.EY (V/m) @ t=0.76
0.1848001385667697
% es.EZ (V/m) @ t=0.76
-1.5963790920030343
% es.tEX (V/m) @ t=0.76
0.6989334295056433
% es.tEY (V/m) @ t=0.76
0
% es.tEZ (V/m) @ t=0.76
-1.5963790920030352
% es.Ex (V/m) @ t=0.76
0.6989334295056393
% es.Ey (V/m) @ t=0.76
0.1848001385667697
% es.Ez (V/m) @ t=0.76
-1.5963790920030343
% es.tEx (V/m) @ t=0.76
0.6989334295056433
% es.tEy (V/m) @ t=0.76
0
% es.tEz (V/m) @ t=0.76
-1.5963790920030352
% V (V) @ t=0.76
0.008768532509079831
% es.normE (V/m) @ t=0.78
1.7692899982780126
% es.EX (V/m) @ t=0.78
0.7051295164435569
% es.EY (V/m) @ t=0.78
0.18643814726192698
% es.EZ (V/m) @ t=0.78
-1.6105312195922235
% es.tEX (V/m) @ t=0.78
0.7051295164435571
% es.tEY (V/m) @ t=0.78
0
% es.tEZ (V/m) @ t=0.78
-1.6105312195922252
% es.Ex (V/m) @ t=0.78
0.7051295164435569
% es.Ey (V/m) @ t=0.78
0.18643814726192698
% es.Ez (V/m) @ t=0.78
-1.6105312195922235
% es.tEx (V/m) @ t=0.78
0.7051295164435571
% es.tEy (V/m) @ t=0.78
0
% es.tEz (V/m) @ t=0.78
-1.6105312195922252
% V (V) @ t=0.78
0.008846272666336818
% es.normE (V/m) @ t=0.8
1.7848371341295692
% es.EX (V/m) @ t=0.8
0.7113256033814495
% es.EY (V/m) @ t=0.8
0.18807615595709049
% es.EZ (V/m) @ t=0.8
-1.6246833471814055
% es.tEX (V/m) @ t=0.8
0.7113256033814497
% es.tEY (V/m) @ t=0.8
0
% es.tEZ (V/m) @ t=0.8
-1.6246833471814117
% es.Ex (V/m) @ t=0.8
0.7113256033814495
% es.Ey (V/m) @ t=0.8
0.18807615595709049
% es.Ez (V/m) @ t=0.8
-1.6246833471814055
% es.tEx (V/m) @ t=0.8
0.7113256033814497
% es.tEy (V/m) @ t=0.8
0
% es.tEz (V/m) @ t=0.8
-1.6246833471814117
% V (V) @ t=0.8
0.008924012823593805
% es.normE (V/m) @ t=0.82
1.8003842699812012
% es.EX (V/m) @ t=0.82
0.717521690319374
% es.EY (V/m) @ t=0.82
0.1897141646522318
% es.EZ (V/m) @ t=0.82
-1.638835474770592
% es.tEX (V/m) @ t=0.82
0.7175216903193706
% es.tEY (V/m) @ t=0.82
0
% es.tEZ (V/m) @ t=0.82
-1.6388354747705929
% es.Ex (V/m) @ t=0.82
0.717521690319374
% es.Ey (V/m) @ t=0.82
0.1897141646522318
% es.Ez (V/m) @ t=0.82
-1.638835474770592
% es.tEx (V/m) @ t=0.82
0.7175216903193706
% es.tEy (V/m) @ t=0.82
0
% es.tEz (V/m) @ t=0.82
-1.6388354747705929
% V (V) @ t=0.82
0.009001752980850791
% es.normE (V/m) @ t=0.84
1.8176933356858185
% es.EX (V/m) @ t=0.84
0.7244199864534118
% es.EY (V/m) @ t=0.84
0.19153791984997204
% es.EZ (V/m) @ t=0.84
-1.6545914210654713
% es.tEX (V/m) @ t=0.84
0.724419986453412
% es.tEY (V/m) @ t=0.84
0
% es.tEZ (V/m) @ t=0.84
-1.6545914210654722
% es.Ex (V/m) @ t=0.84
0.7244199864534118
% es.Ey (V/m) @ t=0.84
0.19153791984997204
% es.Ez (V/m) @ t=0.84
-1.6545914210654713
% es.tEx (V/m) @ t=0.84
0.724419986453412
% es.tEy (V/m) @ t=0.84
0
% es.tEz (V/m) @ t=0.84
-1.6545914210654722
% V (V) @ t=0.84
0.009088300681760184
% es.normE (V/m) @ t=0.86
1.8350873001751142
% es.EX (V/m) @ t=0.86
0.7313521186151621
% es.EY (V/m) @ t=0.86
0.19337062526347015
% es.EZ (V/m) @ t=0.86
-1.6704246475419007
% es.tEX (V/m) @ t=0.86
0.7313521186151624
% es.tEY (V/m) @ t=0.86
0
% es.tEZ (V/m) @ t=0.86
-1.6704246475419051
% es.Ex (V/m) @ t=0.86
0.7313521186151621
% es.Ey (V/m) @ t=0.86
0.19337062526347015
% es.Ez (V/m) @ t=0.86
-1.6704246475419007
% es.tEx (V/m) @ t=0.86
0.7313521186151624
% es.tEy (V/m) @ t=0.86
0
% es.tEz (V/m) @ t=0.86
-1.6704246475419051
% V (V) @ t=0.86
0.00917527277513368
% es.normE (V/m) @ t=0.88
1.8524812646644155
% es.EX (V/m) @ t=0.88
0.7382842507768905
% es.EY (V/m) @ t=0.88
0.19520333067699003
% es.EZ (V/m) @ t=0.88
-1.6862578740183158
% es.tEX (V/m) @ t=0.88
0.738284250776891
% es.tEY (V/m) @ t=0.88
0
% es.tEZ (V/m) @ t=0.88
-1.6862578740183238
% es.Ex (V/m) @ t=0.88
0.7382842507768905
% es.Ey (V/m) @ t=0.88
0.19520333067699003
% es.Ez (V/m) @ t=0.88
-1.6862578740183158
% es.tEx (V/m) @ t=0.88
0.738284250776891
% es.tEy (V/m) @ t=0.88
0
% es.tEz (V/m) @ t=0.88
-1.6862578740183238
% V (V) @ t=0.88
0.009262244868507175
% es.normE (V/m) @ t=0.9
1.8698752291537675
% es.EX (V/m) @ t=0.9
0.7452163829386445
% es.EY (V/m) @ t=0.9
0.19703603609047438
% es.EZ (V/m) @ t=0.9
-1.702091100494754
% es.tEX (V/m) @ t=0.9
0.7452163829386413
% es.tEY (V/m) @ t=0.9
0
% es.tEZ (V/m) @ t=0.9
-1.7020911004947639
% es.Ex (V/m) @ t=0.9
0.7452163829386445
% es.Ey (V/m) @ t=0.9
0.19703603609047438
% es.Ez (V/m) @ t=0.9
-1.702091100494754
% es.tEx (V/m) @ t=0.9
0.7452163829386413
% es.tEy (V/m) @ t=0.9
0
% es.tEz (V/m) @ t=0.9
-1.7020911004947639
% V (V) @ t=0.9
0.009349216961880671
% es.normE (V/m) @ t=0.92
1.887269193643112
% es.EX (V/m) @ t=0.92
0.7521485151003622
% es.EY (V/m) @ t=0.92
0.19886874150397116
% es.EZ (V/m) @ t=0.92
-1.7179243269711737
% es.tEX (V/m) @ t=0.92
0.7521485151003624
% es.tEY (V/m) @ t=0.92
0
% es.tEZ (V/m) @ t=0.92
-1.7179243269711844
% es.Ex (V/m) @ t=0.92
0.7521485151003622
% es.Ey (V/m) @ t=0.92
0.19886874150397116
% es.Ez (V/m) @ t=0.92
-1.7179243269711737
% es.tEx (V/m) @ t=0.92
0.7521485151003624
% es.tEy (V/m) @ t=0.92
0
% es.tEz (V/m) @ t=0.92
-1.7179243269711844
% V (V) @ t=0.92
0.009436189055254167
% es.normE (V/m) @ t=0.94
1.9046631581325015
% es.EX (V/m) @ t=0.94
0.7590806472621097
% es.EY (V/m) @ t=0.94
0.20070144691746705
% es.EZ (V/m) @ t=0.94
-1.7337575534476048
% es.tEX (V/m) @ t=0.94
0.7590806472621066
% es.tEY (V/m) @ t=0.94
0
% es.tEZ (V/m) @ t=0.94
-1.733757553447612
% es.Ex (V/m) @ t=0.94
0.7590806472621097
% es.Ey (V/m) @ t=0.94
0.20070144691746705
% es.Ez (V/m) @ t=0.94
-1.7337575534476048
% es.tEx (V/m) @ t=0.94
0.7590806472621066
% es.tEy (V/m) @ t=0.94
0
% es.tEz (V/m) @ t=0.94
-1.733757553447612
% V (V) @ t=0.94
0.00952316114862766
% es.normE (V/m) @ t=0.96
1.922057122621908
% es.EX (V/m) @ t=0.96
0.7660127794238558
% es.EY (V/m) @ t=0.96
0.20253415233098426
% es.EZ (V/m) @ t=0.96
-1.7495907799240298
% es.tEX (V/m) @ t=0.96
0.766012779423856
% es.tEY (V/m) @ t=0.96
0
% es.tEZ (V/m) @ t=0.96
-1.7495907799240342
% es.Ex (V/m) @ t=0.96
0.7660127794238558
% es.Ey (V/m) @ t=0.96
0.20253415233098426
% es.Ez (V/m) @ t=0.96
-1.7495907799240298
% es.tEx (V/m) @ t=0.96
0.766012779423856
% es.tEy (V/m) @ t=0.96
0
% es.tEz (V/m) @ t=0.96
-1.7495907799240342
% V (V) @ t=0.96
0.009610133242001157
% es.normE (V/m) @ t=0.98
1.9394510871113446
% es.EX (V/m) @ t=0.98
0.7729449115856062
% es.EY (V/m) @ t=0.98
0.20436685774446595
% es.EZ (V/m) @ t=0.98
-1.7654240064004663
% es.tEX (V/m) @ t=0.98
0.7729449115856064
% es.tEY (V/m) @ t=0.98
0
% es.tEZ (V/m) @ t=0.98
-1.76542400640046
% es.Ex (V/m) @ t=0.98
0.7729449115856062
% es.Ey (V/m) @ t=0.98
0.20436685774446595
% es.Ez (V/m) @ t=0.98
-1.7654240064004663
% es.tEx (V/m) @ t=0.98
0.7729449115856064
% es.tEy (V/m) @ t=0.98
0
% es.tEz (V/m) @ t=0.98
-1.76542400640046
% V (V) @ t=0.98
0.009697105335374651
% es.normE (V/m) @ t=1
1.9568450516007774
% es.EX (V/m) @ t=1
0.7798770437473383
% es.EY (V/m) @ t=1
0.2061995631579654
% es.EZ (V/m) @ t=1
-1.7812572328768814
% es.tEX (V/m) @ t=1
0.779877043747335
% es.tEY (V/m) @ t=1
0
% es.tEZ (V/m) @ t=1
-1.7812572328768823
% es.Ex (V/m) @ t=1
0.7798770437473383
% es.Ey (V/m) @ t=1
0.2061995631579654
% es.Ez (V/m) @ t=1
-1.7812572328768814
% es.tEx (V/m) @ t=1
0.779877043747335
% es.tEy (V/m) @ t=1
0
% es.tEz (V/m) @ t=1
-1.7812572328768823
% V (V) @ t=1
0.009784077428748148
% es.normE (V/m) @ t=1.02
1.9742390160902503
% es.EX (V/m) @ t=1.02
0.7868091759090852
% es.EY (V/m) @ t=1.02
0.20803226857145596
% es.EZ (V/m) @ t=1.02
-1.7970904593533144
% es.tEX (V/m) @ t=1.02
0.7868091759090854
% es.tEY (V/m) @ t=1.02
0
% es.tEZ (V/m) @ t=1.02
-1.7970904593533188
% es.Ex (V/m) @ t=1.02
0.7868091759090852
% es.Ey (V/m) @ t=1.02
0.20803226857145596
% es.Ez (V/m) @ t=1.02
-1.7970904593533144
% es.tEx (V/m) @ t=1.02
0.7868091759090854
% es.tEy (V/m) @ t=1.02
0
% es.tEz (V/m) @ t=1.02
-1.7970904593533188
% V (V) @ t=1.02
0.009871049522121643
% es.normE (V/m) @ t=1.04
1.9916329805797435
% es.EX (V/m) @ t=1.04
0.7937413080708355
% es.EY (V/m) @ t=1.04
0.20986497398495807
% es.EZ (V/m) @ t=1.04
-1.8129236858297446
% es.tEX (V/m) @ t=1.04
0.7937413080708358
% es.tEY (V/m) @ t=1.04
0