% Model:              1 neuron.mph
% Version:            COMSOL 6.0.0.405
% Date:               Mar 16 2023, 17:17
% Dimension:          0
% Nodes:              14017
% Expressions:        14017
% Description:        Electric field norm, Electric field, X component, Electric field, Y component, Electric field, Z component, Tangential electric field, X component, Tangential electric field, Y component, Tangential electric field, Z component, Electric field, x component, Electric field, y component, Electric field, z component, Tangential electric field, x component, Tangential electric field, y component, Tangential electric field, z component, Electric potential
% Length unit:        mm
% x
1.66
% y
12.2
% z
2
% es.normE (V/m) @ t=0
1.454785209667767
% es.EX (V/m) @ t=0
-0.4339937531154253
% es.EY (V/m) @ t=0
0.03241755606551826
% es.EZ (V/m) @ t=0
-1.3858278728224267
% es.tEX (V/m) @ t=0
-0.43399375311543054
% es.tEY (V/m) @ t=0
0
% es.tEZ (V/m) @ t=0
-1.385827872822441
% es.Ex (V/m) @ t=0
-0.4339937531154253
% es.Ey (V/m) @ t=0
0.03241755606551826
% es.Ez (V/m) @ t=0
-1.3858278728224267
% es.tEx (V/m) @ t=0
-0.43399375311543054
% es.tEy (V/m) @ t=0
0
% es.tEz (V/m) @ t=0
-1.385827872822441
% V (V) @ t=0
0.007312352139506331
% es.normE (V/m) @ t=0.02
1.25652628878357
% es.EX (V/m) @ t=0.02
-0.37484885103150306
% es.EY (V/m) @ t=0.02
0.027999678407056423
% es.EZ (V/m) @ t=0.02
-1.1969664941219604
% es.tEX (V/m) @ t=0.02
-0.3748488510315049
% es.tEY (V/m) @ t=0.02
0
% es.tEZ (V/m) @ t=0.02
-1.1969664941219689
% es.Ex (V/m) @ t=0.02
-0.37484885103150306
% es.Ey (V/m) @ t=0.02
0.027999678407056423
% es.Ez (V/m) @ t=0.02
-1.1969664941219604
% es.tEx (V/m) @ t=0.02
-0.3748488510315049
% es.tEy (V/m) @ t=0.02
0
% es.tEz (V/m) @ t=0.02
-1.1969664941219689
% V (V) @ t=0.02
0.006315820559430107
% es.normE (V/m) @ t=0.04
1.2680845334254074
% es.EX (V/m) @ t=0.04
-0.37829692609249843
% es.EY (V/m) @ t=0.04
0.028257238239121733
% es.EZ (V/m) @ t=0.04
-1.2079768730969818
% es.tEX (V/m) @ t=0.04
-0.37829692609250287
% es.tEY (V/m) @ t=0.04
0
% es.tEZ (V/m) @ t=0.04
-1.207976873096988
% es.Ex (V/m) @ t=0.04
-0.37829692609249843
% es.Ey (V/m) @ t=0.04
0.028257238239121733
% es.Ez (V/m) @ t=0.04
-1.2079768730969818
% es.tEx (V/m) @ t=0.04
-0.37829692609250287
% es.tEy (V/m) @ t=0.04
0
% es.tEz (V/m) @ t=0.04
-1.207976873096988
% V (V) @ t=0.04
0.006373916923042871
% es.normE (V/m) @ t=0.06
1.2797462103225699
% es.EX (V/m) @ t=0.06
-0.3817758527074606
% es.EY (V/m) @ t=0.06
0.028517095720537386
% es.EZ (V/m) @ t=0.06
-1.2190857834896902
% es.tEX (V/m) @ t=0.06
-0.38177585270746306
% es.tEY (V/m) @ t=0.06
0
% es.tEZ (V/m) @ t=0.06
-1.219085783489704
% es.Ex (V/m) @ t=0.06
-0.3817758527074606
% es.Ey (V/m) @ t=0.06
0.028517095720537386
% es.Ez (V/m) @ t=0.06
-1.2190857834896902
% es.tEx (V/m) @ t=0.06
-0.38177585270746306
% es.tEy (V/m) @ t=0.06
0
% es.tEz (V/m) @ t=0.06
-1.219085783489704
% V (V) @ t=0.06
0.006432533565024855
% es.normE (V/m) @ t=0.08
1.2915877101434088
% es.EX (V/m) @ t=0.08
-0.38530842661411424
% es.EY (V/m) @ t=0.08
0.028780963838985478
% es.EZ (V/m) @ t=0.08
-1.2303659921972678
% es.tEX (V/m) @ t=0.08
-0.38530842661411313
% es.tEY (V/m) @ t=0.08
0
% es.tEZ (V/m) @ t=0.08
-1.2303659921972798
% es.Ex (V/m) @ t=0.08
-0.38530842661411424
% es.Ey (V/m) @ t=0.08
0.028780963838985478
% es.Ez (V/m) @ t=0.08
-1.2303659921972678
% es.tEx (V/m) @ t=0.08
-0.38530842661411313
% es.tEy (V/m) @ t=0.08
0
% es.tEz (V/m) @ t=0.08
-1.2303659921972798
% V (V) @ t=0.08
0.006492053879553251
% es.normE (V/m) @ t=0.1
1.3035504307678323
% es.EX (V/m) @ t=0.1
-0.38887716480769574
% es.EY (V/m) @ t=0.1
0.029047535576272987
% es.EZ (V/m) @ t=0.1
-1.2417616751667282
% es.tEX (V/m) @ t=0.1
-0.3888771648076954
% es.tEY (V/m) @ t=0.1
0
% es.tEZ (V/m) @ t=0.1
-1.2417616751667406
% es.Ex (V/m) @ t=0.1
-0.38887716480769574
% es.Ey (V/m) @ t=0.1
0.029047535576272987
% es.Ez (V/m) @ t=0.1
-1.2417616751667282
% es.tEx (V/m) @ t=0.1
-0.3888771648076954
% es.tEy (V/m) @ t=0.1
0
% es.tEz (V/m) @ t=0.1
-1.2417616751667406
% V (V) @ t=0.1
0.006552183370653905
% es.normE (V/m) @ t=0.12
1.3155131513922445
% es.EX (V/m) @ t=0.12
-0.39244590300127635
% es.EY (V/m) @ t=0.12
0.029314107313552842
% es.EZ (V/m) @ t=0.12
-1.2531573581361775
% es.tEX (V/m) @ t=0.12
-0.39244590300128124
% es.tEY (V/m) @ t=0.12
0
% es.tEZ (V/m) @ t=0.12
-1.2531573581361943
% es.Ex (V/m) @ t=0.12
-0.39244590300127635
% es.Ey (V/m) @ t=0.12
0.029314107313552842
% es.Ez (V/m) @ t=0.12
-1.2531573581361775
% es.tEx (V/m) @ t=0.12
-0.39244590300128124
% es.tEy (V/m) @ t=0.12
0
% es.tEz (V/m) @ t=0.12
-1.2531573581361943
% V (V) @ t=0.12
0.006612312861754558
% es.normE (V/m) @ t=0.14
1.3276061906226655
% es.EX (V/m) @ t=0.14
-0.3960535174200925
% es.EY (V/m) @ t=0.14
0.029583582010278886
% es.EZ (V/m) @ t=0.14
-1.264677182822827
% es.tEX (V/m) @ t=0.14
-0.39605351742009276
% es.tEY (V/m) @ t=0.14
0
% es.tEZ (V/m) @ t=0.14
-1.2646771828228331
% es.Ex (V/m) @ t=0.14
-0.3960535174200925
% es.Ey (V/m) @ t=0.14
0.029583582010278886
% es.Ez (V/m) @ t=0.14
-1.264677182822827
% es.tEx (V/m) @ t=0.14
-0.39605351742009276
% es.tEy (V/m) @ t=0.14
0
% es.tEz (V/m) @ t=0.14
-1.2646771828228331
% V (V) @ t=0.14
0.006673097440971014
% es.normE (V/m) @ t=0.16
1.3402058459116524
% es.EX (V/m) @ t=0.16
-0.399812263903649
% es.EY (V/m) @ t=0.16
0.02986434201701483
% es.EZ (V/m) @ t=0.16
-1.2766796107953629
% es.tEX (V/m) @ t=0.16
-0.3998122639036552
% es.tEY (V/m) @ t=0.16
0
% es.tEZ (V/m) @ t=0.16
-1.2766796107953677
% es.Ex (V/m) @ t=0.16
-0.399812263903649
% es.Ey (V/m) @ t=0.16
0.02986434201701483
% es.Ez (V/m) @ t=0.16
-1.2766796107953629
% es.tEx (V/m) @ t=0.16
-0.3998122639036552
% es.tEy (V/m) @ t=0.16
0
% es.tEz (V/m) @ t=0.16
-1.2766796107953677
% V (V) @ t=0.16
0.006736428687692911
% es.normE (V/m) @ t=0.18
1.3528055012006257
% es.EX (V/m) @ t=0.18
-0.4035710103872028
% es.EY (V/m) @ t=0.18
0.030145102023756025
% es.EZ (V/m) @ t=0.18
-1.2886820387678841
% es.tEX (V/m) @ t=0.18
-0.40357101038721055
% es.tEY (V/m) @ t=0.18
0
% es.tEZ (V/m) @ t=0.18
-1.2886820387679023
% es.Ex (V/m) @ t=0.18
-0.4035710103872028
% es.Ey (V/m) @ t=0.18
0.030145102023756025
% es.Ez (V/m) @ t=0.18
-1.2886820387678841
% es.tEx (V/m) @ t=0.18
-0.40357101038721055
% es.tEy (V/m) @ t=0.18
0
% es.tEz (V/m) @ t=0.18
-1.2886820387679023
% V (V) @ t=0.18
0.006799759934414813
% es.normE (V/m) @ t=0.2
1.3654051564896184
% es.EX (V/m) @ t=0.2
-0.4073297568707549
% es.EY (V/m) @ t=0.2
0.03042586203050416
% es.EZ (V/m) @ t=0.2
-1.3006844667404267
% es.tEX (V/m) @ t=0.2
-0.4073297568707588
% es.tEY (V/m) @ t=0.2
0
% es.tEZ (V/m) @ t=0.2
-1.3006844667404378
% es.Ex (V/m) @ t=0.2
-0.4073297568707549
% es.Ey (V/m) @ t=0.2
0.03042586203050416
% es.Ez (V/m) @ t=0.2
-1.3006844667404267
% es.tEx (V/m) @ t=0.2
-0.4073297568707588
% es.tEy (V/m) @ t=0.2
0
% es.tEz (V/m) @ t=0.2
-1.3006844667404378
% V (V) @ t=0.2
0.0068630911811367115
% es.normE (V/m) @ t=0.22
1.3780048117786046
% es.EX (V/m) @ t=0.22
-0.41108850335430613
% es.EY (V/m) @ t=0.22
0.030706622037234788
% es.EZ (V/m) @ t=0.22
-1.3126868947129622
% es.tEX (V/m) @ t=0.22
-0.4110885033543106
% es.tEY (V/m) @ t=0.22
0
% es.tEZ (V/m) @ t=0.22
-1.3126868947129724
% es.Ex (V/m) @ t=0.22
-0.41108850335430613
% es.Ey (V/m) @ t=0.22
0.030706622037234788
% es.Ez (V/m) @ t=0.22
-1.3126868947129622
% es.tEx (V/m) @ t=0.22
-0.4110885033543106
% es.tEy (V/m) @ t=0.22
0
% es.tEz (V/m) @ t=0.22
-1.3126868947129724
% V (V) @ t=0.22
0.006926422427858611
% es.normE (V/m) @ t=0.24
1.3906044670675843
% es.EX (V/m) @ t=0.24
-0.41484724983786075
% es.EY (V/m) @ t=0.24
0.030987382043974193
% es.EZ (V/m) @ t=0.24
-1.324689322685491
% es.tEX (V/m) @ t=0.24
-0.4148472498378659
% es.tEY (V/m) @ t=0.24
0
% es.tEZ (V/m) @ t=0.24
-1.3246893226854999
% es.Ex (V/m) @ t=0.24
-0.41484724983786075
% es.Ey (V/m) @ t=0.24
0.030987382043974193
% es.Ez (V/m) @ t=0.24
-1.324689322685491
% es.tEx (V/m) @ t=0.24
-0.4148472498378659
% es.tEy (V/m) @ t=0.24
0
% es.tEz (V/m) @ t=0.24
-1.3246893226854999
% V (V) @ t=0.24
0.00698975367458051
% es.normE (V/m) @ t=0.26
1.403204122356557
% es.EX (V/m) @ t=0.26
-0.41860599632141293
% es.EY (V/m) @ t=0.26
0.03126814205071979
% es.EZ (V/m) @ t=0.26
-1.3366917506580118
% es.tEX (V/m) @ t=0.26
-0.41860599632141415
% es.tEY (V/m) @ t=0.26
0
% es.tEZ (V/m) @ t=0.26
-1.3366917506580283
% es.Ex (V/m) @ t=0.26
-0.41860599632141293
% es.Ey (V/m) @ t=0.26
0.03126814205071979
% es.Ez (V/m) @ t=0.26
-1.3366917506580118
% es.tEx (V/m) @ t=0.26
-0.41860599632141415
% es.tEy (V/m) @ t=0.26
0
% es.tEz (V/m) @ t=0.26
-1.3366917506580283
% V (V) @ t=0.26
0.00705308492130241
% es.normE (V/m) @ t=0.28
1.4164040276508425
% es.EX (V/m) @ t=0.28
-0.42254394903080017
% es.EY (V/m) @ t=0.28
0.031562508315813316
% es.EZ (V/m) @ t=0.28
-1.349265917952903
% es.tEX (V/m) @ t=0.28
-0.42254394903079984
% es.tEY (V/m) @ t=0.28
0
% es.tEZ (V/m) @ t=0.28
-1.3492659179529145
% es.Ex (V/m) @ t=0.28
-0.42254394903080017
% es.Ey (V/m) @ t=0.28
0.031562508315813316
% es.Ez (V/m) @ t=0.28
-1.349265917952903
% es.tEx (V/m) @ t=0.28
-0.42254394903079984
% es.tEy (V/m) @ t=0.28
0
% es.tEz (V/m) @ t=0.28
-1.3492659179529145
% V (V) @ t=0.28
0.007119420992310759
% es.normE (V/m) @ t=0.3
1.430435764230835
% es.EX (V/m) @ t=0.3
-0.426730247169384
% es.EY (V/m) @ t=0.3
0.03187573024317818
% es.EZ (V/m) @ t=0.3
-1.362632406199464
% es.tEX (V/m) @ t=0.3
-0.4267302471693881
% es.tEY (V/m) @ t=0.3
0
% es.tEZ (V/m) @ t=0.3
-1.36263240619948
% es.Ex (V/m) @ t=0.3
-0.426730247169384
% es.Ey (V/m) @ t=0.3
0.03187573024317818
% es.Ez (V/m) @ t=0.3
-1.362632406199464
% es.tEx (V/m) @ t=0.3
-0.4267302471693881
% es.tEy (V/m) @ t=0.3
0
% es.tEz (V/m) @ t=0.3
-1.36263240619948
% V (V) @ t=0.3
0.007189921172984506
% es.normE (V/m) @ t=0.32
1.4444675008112409
% es.EX (V/m) @ t=0.32
-0.43091654530797785
% es.EY (V/m) @ t=0.32
0.03218895217053907
% es.EZ (V/m) @ t=0.32
-1.3759988944460386
% es.tEX (V/m) @ t=0.32
-0.43091654530797996
% es.tEY (V/m) @ t=0.32
0
% es.tEZ (V/m) @ t=0.32
-1.3759988944460462
% es.Ex (V/m) @ t=0.32
-0.43091654530797785
% es.Ey (V/m) @ t=0.32
0.03218895217053907
% es.Ez (V/m) @ t=0.32
-1.3759988944460386
% es.tEx (V/m) @ t=0.32
-0.43091654530797996
% es.tEy (V/m) @ t=0.32
0
% es.tEz (V/m) @ t=0.32
-1.3759988944460462
% V (V) @ t=0.32
0.007260421353658252
% es.normE (V/m) @ t=0.34
1.4584992373920174
% es.EX (V/m) @ t=0.34
-0.4351028434465609
% es.EY (V/m) @ t=0.34
0.03250217409789927
% es.EZ (V/m) @ t=0.34
-1.3893653826925991
% es.tEX (V/m) @ t=0.34
-0.43510284344656114
% es.tEY (V/m) @ t=0.34
0
% es.tEZ (V/m) @ t=0.34
-1.3893653826926045
% es.Ex (V/m) @ t=0.34
-0.4351028434465609
% es.Ey (V/m) @ t=0.34
0.03250217409789927
% es.Ez (V/m) @ t=0.34
-1.3893653826925991
% es.tEx (V/m) @ t=0.34
-0.43510284344656114
% es.tEy (V/m) @ t=0.34
0
% es.tEz (V/m) @ t=0.34
-1.3893653826926045
% V (V) @ t=0.34
0.0073309215343319994
% es.normE (V/m) @ t=0.36
1.4725309739731633
% es.EX (V/m) @ t=0.36
-0.43928914158514665
% es.EY (V/m) @ t=0.36
0.032815396025272156
% es.EZ (V/m) @ t=0.36
-1.402731870939153
% es.tEX (V/m) @ t=0.36
-0.4392891415851494
% es.tEY (V/m) @ t=0.36
0
% es.tEZ (V/m) @ t=0.36
-1.4027318709391778
% es.Ex (V/m) @ t=0.36
-0.43928914158514665
% es.Ey (V/m) @ t=0.36
0.032815396025272156
% es.Ez (V/m) @ t=0.36
-1.402731870939153
% es.tEx (V/m) @ t=0.36
-0.4392891415851494
% es.tEy (V/m) @ t=0.36
0
% es.tEz (V/m) @ t=0.36
-1.4027318709391778
% V (V) @ t=0.36
0.007401421715005745
% es.normE (V/m) @ t=0.38
1.486562710554687
% es.EX (V/m) @ t=0.38
-0.4434754397237324
% es.EY (V/m) @ t=0.38
0.033128617952633936
% es.EZ (V/m) @ t=0.38
-1.4160983591857206
% es.tEX (V/m) @ t=0.38
-0.4434754397237377
% es.tEY (V/m) @ t=0.38
0
% es.tEZ (V/m) @ t=0.38
-1.4160983591857361
% es.Ex (V/m) @ t=0.38
-0.4434754397237324
% es.Ey (V/m) @ t=0.38
0.033128617952633936
% es.Ez (V/m) @ t=0.38
-1.4160983591857206
% es.tEx (V/m) @ t=0.38
-0.4434754397237377
% es.tEy (V/m) @ t=0.38
0
% es.tEz (V/m) @ t=0.38
-1.4160983591857361
% V (V) @ t=0.38
0.007471921895679491
% es.normE (V/m) @ t=0.4
1.5005944471365602
% es.EX (V/m) @ t=0.4
-0.4476617378623199
% es.EY (V/m) @ t=0.4
0.03344183988000949
% es.EZ (V/m) @ t=0.4
-1.4294648474322815
% es.tEX (V/m) @ t=0.4
-0.44766173786232244
% es.tEY (V/m) @ t=0.4
0
% es.tEZ (V/m) @ t=0.4
-1.4294648474323024
% es.Ex (V/m) @ t=0.4
-0.4476617378623199
% es.Ey (V/m) @ t=0.4
0.03344183988000949
% es.Ez (V/m) @ t=0.4
-1.4294648474322815
% es.tEx (V/m) @ t=0.4
-0.44766173786232244
% es.tEy (V/m) @ t=0.4
0
% es.tEz (V/m) @ t=0.4
-1.4294648474323024
% V (V) @ t=0.4
0.007542422076353238
% es.normE (V/m) @ t=0.42
1.5146261837187962
% es.EX (V/m) @ t=0.42
-0.45184803600090384
% es.EY (V/m) @ t=0.42
0.03375506180737683
% es.EZ (V/m) @ t=0.42
-1.4428313356788638
% es.tEX (V/m) @ t=0.42
-0.45184803600090717
% es.tEY (V/m) @ t=0.42
0
% es.tEZ (V/m) @ t=0.42
-1.442831335678875
% es.Ex (V/m) @ t=0.42
-0.45184803600090384
% es.Ey (V/m) @ t=0.42
0.03375506180737683
% es.Ez (V/m) @ t=0.42
-1.4428313356788638
% es.tEx (V/m) @ t=0.42
-0.45184803600090717
% es.tEy (V/m) @ t=0.42
0
% es.tEz (V/m) @ t=0.42
-1.442831335678875
% V (V) @ t=0.42
0.007612922257026985
% es.normE (V/m) @ t=0.44
1.5286579203013477
% es.EX (V/m) @ t=0.44
-0.45603433413949235
% es.EY (V/m) @ t=0.44
0.0340682837347361
% es.EZ (V/m) @ t=0.44
-1.4561978239254239
% es.tEX (V/m) @ t=0.44
-0.456034334139499
% es.tEY (V/m) @ t=0.44
0
% es.tEZ (V/m) @ t=0.44
-1.456197823925434
% es.Ex (V/m) @ t=0.44
-0.45603433413949235
% es.Ey (V/m) @ t=0.44
0.0340682837347361
% es.Ez (V/m) @ t=0.44
-1.4561978239254239
% es.tEx (V/m) @ t=0.44
-0.456034334139499
% es.tEy (V/m) @ t=0.44
0
% es.tEz (V/m) @ t=0.44
-1.456197823925434
% V (V) @ t=0.44
0.007683422437700732
% es.normE (V/m) @ t=0.46
1.5426896568842259
% es.EX (V/m) @ t=0.46
-0.4602206322780763
% es.EY (V/m) @ t=0.46
0.03438150566210166
% es.EZ (V/m) @ t=0.46
-1.4695643121719848
% es.tEX (V/m) @ t=0.46
-0.4602206322780802
% es.tEY (V/m) @ t=0.46
0
% es.tEZ (V/m) @ t=0.46
-1.4695643121719995
% es.Ex (V/m) @ t=0.46
-0.4602206322780763
% es.Ey (V/m) @ t=0.46
0.03438150566210166
% es.Ez (V/m) @ t=0.46
-1.4695643121719848
% es.tEx (V/m) @ t=0.46
-0.4602206322780802
% es.tEy (V/m) @ t=0.46
0
% es.tEz (V/m) @ t=0.46
-1.4695643121719995
% V (V) @ t=0.46
0.00775392261837448
% es.normE (V/m) @ t=0.48
1.5567213934674289
% es.EX (V/m) @ t=0.48
-0.4644069304166665
% es.EY (V/m) @ t=0.48
0.03469472758945634
% es.EZ (V/m) @ t=0.48
-1.4829308004185529
% es.tEX (V/m) @ t=0.48
-0.4644069304166685
% es.tEY (V/m) @ t=0.48
0
% es.tEZ (V/m) @ t=0.48
-1.4829308004185657
% es.Ex (V/m) @ t=0.48
-0.4644069304166665
% es.Ey (V/m) @ t=0.48
0.03469472758945634
% es.Ez (V/m) @ t=0.48
-1.4829308004185529
% es.tEx (V/m) @ t=0.48
-0.4644069304166685
% es.tEy (V/m) @ t=0.48
0
% es.tEz (V/m) @ t=0.48
-1.4829308004185657
% V (V) @ t=0.48
0.007824422799048224
% es.normE (V/m) @ t=0.5
1.570753130050938
% es.EX (V/m) @ t=0.5
-0.4685932285552523
% es.EY (V/m) @ t=0.5
0.035007949516825634
% es.EZ (V/m) @ t=0.5
-1.49629728866512
% es.tEX (V/m) @ t=0.5
-0.46859322855525676
% es.tEY (V/m) @ t=0.5
0
% es.tEZ (V/m) @ t=0.5
-1.496297288665132
% es.Ex (V/m) @ t=0.5
-0.4685932285552523
% es.Ey (V/m) @ t=0.5
0.035007949516825634
% es.Ez (V/m) @ t=0.5
-1.49629728866512
% es.tEx (V/m) @ t=0.5
-0.46859322855525676
% es.tEy (V/m) @ t=0.5
0
% es.tEz (V/m) @ t=0.5
-1.496297288665132
% V (V) @ t=0.5
0.00789492297972197
% es.normE (V/m) @ t=0.52
1.5847848666347426
% es.EX (V/m) @ t=0.52
-0.4727795266938362
% es.EY (V/m) @ t=0.52
0.03532117144419475
% es.EZ (V/m) @ t=0.52
-1.509663776911681
% es.tEX (V/m) @ t=0.52
-0.4727795266938415
% es.tEY (V/m) @ t=0.52
0
% es.tEZ (V/m) @ t=0.52
-1.5096637769116974
% es.Ex (V/m) @ t=0.52
-0.4727795266938362
% es.Ey (V/m) @ t=0.52
0.03532117144419475
% es.Ez (V/m) @ t=0.52
-1.509663776911681
% es.tEx (V/m) @ t=0.52
-0.4727795266938415
% es.tEy (V/m) @ t=0.52
0
% es.tEz (V/m) @ t=0.52
-1.5096637769116974
% V (V) @ t=0.52
0.007965423160395717
% es.normE (V/m) @ t=0.54
1.5988166032188458
% es.EX (V/m) @ t=0.54
-0.476965824832423
% es.EY (V/m) @ t=0.54
0.03563439337156027
% es.EZ (V/m) @ t=0.54
-1.5230302651582481
% es.tEX (V/m) @ t=0.54
-0.4769658248324298
% es.tEY (V/m) @ t=0.54
0
% es.tEZ (V/m) @ t=0.54
-1.5230302651582628
% es.Ex (V/m) @ t=0.54
-0.476965824832423
% es.Ey (V/m) @ t=0.54
0.03563439337156027
% es.Ez (V/m) @ t=0.54
-1.5230302651582481
% es.tEx (V/m) @ t=0.54
-0.4769658248324298
% es.tEy (V/m) @ t=0.54
0
% es.tEz (V/m) @ t=0.54
-1.5230302651582628
% V (V) @ t=0.54
0.008035923341069465
% es.normE (V/m) @ t=0.56
1.6142258950314567
% es.EX (V/m) @ t=0.56
-0.48156231880058087
% es.EY (V/m) @ t=0.56
0.03597706662397147
% es.EZ (V/m) @ t=0.56
-1.537709331663156
% es.tEX (V/m) @ t=0.56
-0.481562318800588
% es.tEY (V/m) @ t=0.56
0
% es.tEZ (V/m) @ t=0.56
-1.5377093316631676
% es.Ex (V/m) @ t=0.56
-0.48156231880058087
% es.Ey (V/m) @ t=0.56
0.03597706662397147
% es.Ez (V/m) @ t=0.56
-1.537709331663156
% es.tEx (V/m) @ t=0.56
-0.481562318800588
% es.tEy (V/m) @ t=0.56
0
% es.tEz (V/m) @ t=0.56
-1.5377093316631676
% V (V) @ t=0.56
0.008113414139589468
% es.normE (V/m) @ t=0.58
1.629881666556718
% es.EX (V/m) @ t=0.58
-0.4862322072488059
% es.EY (V/m) @ t=0.58
0.03632500946845161
% es.EZ (V/m) @ t=0.58
-1.552623251844964
% es.tEX (V/m) @ t=0.58
-0.4862322072488112
% es.tEY (V/m) @ t=0.58
0
% es.tEZ (V/m) @ t=0.58
-1.552623251844989
% es.Ex (V/m) @ t=0.58
-0.4862322072488059
% es.Ey (V/m) @ t=0.58
0.03632500946845161
% es.Ez (V/m) @ t=0.58
-1.552623251844964
% es.tEx (V/m) @ t=0.58
-0.4862322072488112
% es.tEy (V/m) @ t=0.58
0
% es.tEz (V/m) @ t=0.58
-1.552623251844989
% V (V) @ t=0.58
0.008192155737667135
% es.normE (V/m) @ t=0.6
1.645537438083148
% es.EX (V/m) @ t=0.6
-0.4909020956970389
% es.EY (V/m) @ t=0.6
0.03667295231293352
% es.EZ (V/m) @ t=0.6
-1.5675371720267859
% es.tEX (V/m) @ t=0.6
-0.4909020956970416
% es.tEY (V/m) @ t=0.6
0
% es.tEZ (V/m) @ t=0.6
-1.567537172026788
% es.Ex (V/m) @ t=0.6
-0.4909020956970389
% es.Ey (V/m) @ t=0.6
0.03667295231293352
% es.Ez (V/m) @ t=0.6
-1.5675371720267859
% es.tEx (V/m) @ t=0.6
-0.4909020956970416
% es.tEy (V/m) @ t=0.6
0
% es.tEz (V/m) @ t=0.6
-1.567537172026788
% V (V) @ t=0.6
0.008270897335744806
% es.normE (V/m) @ t=0.62
1.6611932096106763
% es.EX (V/m) @ t=0.62
-0.49557198414526477
% es.EY (V/m) @ t=0.62
0.037020895157401
% es.EZ (V/m) @ t=0.62
-1.5824510922085864
% es.tEX (V/m) @ t=0.62
-0.4955719841452719
% es.tEY (V/m) @ t=0.62
0
% es.tEZ (V/m) @ t=0.62
-1.5824510922086024
% es.Ex (V/m) @ t=0.62
-0.49557198414526477
% es.Ey (V/m) @ t=0.62
0.037020895157401
% es.Ez (V/m) @ t=0.62
-1.5824510922085864
% es.tEx (V/m) @ t=0.62
-0.4955719841452719
% es.tEy (V/m) @ t=0.62
0
% es.tEz (V/m) @ t=0.62
-1.5824510922086024
% V (V) @ t=0.62
0.008349638933822475
% es.normE (V/m) @ t=0.64
1.676848981139301
% es.EX (V/m) @ t=0.64
-0.5002418725934906
% es.EY (V/m) @ t=0.64
0.03736883800188159
% es.EZ (V/m) @ t=0.64
-1.5973650123903944
% es.tEX (V/m) @ t=0.64
-0.5002418725934952
% es.tEY (V/m) @ t=0.64
0
% es.tEZ (V/m) @ t=0.64
-1.5973650123904095
% es.Ex (V/m) @ t=0.64
-0.5002418725934906
% es.Ey (V/m) @ t=0.64
0.03736883800188159
% es.Ez (V/m) @ t=0.64
-1.5973650123903944
% es.tEx (V/m) @ t=0.64
-0.5002418725934952
% es.tEy (V/m) @ t=0.64
0
% es.tEz (V/m) @ t=0.64
-1.5973650123904095
% V (V) @ t=0.64
0.008428380531900143
% es.normE (V/m) @ t=0.66
1.6925047526689934
% es.EX (V/m) @ t=0.66
-0.504911761041721
% es.EY (V/m) @ t=0.66
0.03771678084635287
% es.EZ (V/m) @ t=0.66
-1.6122789325722091
% es.tEX (V/m) @ t=0.66
-0.5049117610417255
% es.tEY (V/m) @ t=0.66
0
% es.tEZ (V/m) @ t=0.66
-1.6122789325722238
% es.Ex (V/m) @ t=0.66
-0.504911761041721
% es.Ey (V/m) @ t=0.66
0.03771678084635287
% es.Ez (V/m) @ t=0.66
-1.6122789325722091
% es.tEx (V/m) @ t=0.66
-0.5049117610417255
% es.tEy (V/m) @ t=0.66
0
% es.tEz (V/m) @ t=0.66
-1.6122789325722238
% V (V) @ t=0.66
0.008507122129977812
% es.normE (V/m) @ t=0.68
1.7081605241997087
% es.EX (V/m) @ t=0.68
-0.5095816494899496
% es.EY (V/m) @ t=0.68
0.03806472369083989
% es.EZ (V/m) @ t=0.68
-1.6271928527540167
% es.tEX (V/m) @ t=0.68
-0.5095816494899523
% es.tEY (V/m) @ t=0.68
0
% es.tEZ (V/m) @ t=0.68
-1.627192852754038
% es.Ex (V/m) @ t=0.68
-0.5095816494899496
% es.Ey (V/m) @ t=0.68
0.03806472369083989
% es.Ez (V/m) @ t=0.68
-1.6271928527540167
% es.tEx (V/m) @ t=0.68
-0.5095816494899523
% es.tEy (V/m) @ t=0.68
0
% es.tEz (V/m) @ t=0.68
-1.627192852754038
% V (V) @ t=0.68
0.008585863728055481
% es.normE (V/m) @ t=0.7
1.7238162957314325
% es.EX (V/m) @ t=0.7
-0.5142515379381771
% es.EY (V/m) @ t=0.7
0.03841266653530782
% es.EZ (V/m) @ t=0.7
-1.6421067729358314
% es.tEX (V/m) @ t=0.7
-0.5142515379381827
% es.tEY (V/m) @ t=0.7
0
% es.tEZ (V/m) @ t=0.7
-1.642106772935838
% es.Ex (V/m) @ t=0.7
-0.5142515379381771
% es.Ey (V/m) @ t=0.7
0.03841266653530782
% es.Ez (V/m) @ t=0.7
-1.6421067729358314
% es.tEx (V/m) @ t=0.7
-0.5142515379381827
% es.tEy (V/m) @ t=0.7
0
% es.tEz (V/m) @ t=0.7
-1.642106772935838
% V (V) @ t=0.7
0.008664605326133147
% es.normE (V/m) @ t=0.72
1.7394720672641304
% es.EX (V/m) @ t=0.72
-0.5189214263864022
% es.EY (V/m) @ t=0.72
0.03876060937979173
% es.EZ (V/m) @ t=0.72
-1.6570206931176465
% es.tEX (V/m) @ t=0.72
-0.5189214263864095
% es.tEY (V/m) @ t=0.72
0
% es.tEZ (V/m) @ t=0.72
-1.6570206931176443
% es.Ex (V/m) @ t=0.72
-0.5189214263864022
% es.Ey (V/m) @ t=0.72
0.03876060937979173
% es.Ez (V/m) @ t=0.72
-1.6570206931176465
% es.tEx (V/m) @ t=0.72
-0.5189214263864095
% es.tEy (V/m) @ t=0.72
0
% es.tEz (V/m) @ t=0.72
-1.6570206931176443
% V (V) @ t=0.72
0.008743346924210816
% es.normE (V/m) @ t=0.74
1.7551278387977582
% es.EX (V/m) @ t=0.74
-0.5235913148346344
% es.EY (V/m) @ t=0.74
0.03910855222426472
% es.EZ (V/m) @ t=0.74
-1.6719346132994395
% es.tEX (V/m) @ t=0.74
-0.5235913148346434
% es.tEY (V/m) @ t=0.74
0
% es.tEZ (V/m) @ t=0.74
-1.6719346132994515
% es.Ex (V/m) @ t=0.74
-0.5235913148346344
% es.Ey (V/m) @ t=0.74
0.03910855222426472
% es.Ez (V/m) @ t=0.74
-1.6719346132994395
% es.tEx (V/m) @ t=0.74
-0.5235913148346434
% es.tEy (V/m) @ t=0.74
0
% es.tEz (V/m) @ t=0.74
-1.6719346132994515
% V (V) @ t=0.74
0.008822088522288486
% es.normE (V/m) @ t=0.76
1.7707836103323231
% es.EX (V/m) @ t=0.76
-0.528261203282863
% es.EY (V/m) @ t=0.76
0.03945649506872887
% es.EZ (V/m) @ t=0.76
-1.686848533481247
% es.tEX (V/m) @ t=0.76
-0.5282612032828666
% es.tEY (V/m) @ t=0.76
0
% es.tEZ (V/m) @ t=0.76
-1.6868485334812728
% es.Ex (V/m) @ t=0.76
-0.528261203282863
% es.Ey (V/m) @ t=0.76
0.03945649506872887
% es.Ez (V/m) @ t=0.76
-1.686848533481247
% es.tEx (V/m) @ t=0.76
-0.5282612032828666
% es.tEy (V/m) @ t=0.76
0
% es.tEz (V/m) @ t=0.76
-1.6868485334812728
% V (V) @ t=0.76
0.008900830120366155
% es.normE (V/m) @ t=0.78
1.7864393818677997
% es.EX (V/m) @ t=0.78
-0.5329310917310898
% es.EY (V/m) @ t=0.78
0.039804437913223245
% es.EZ (V/m) @ t=0.78
-1.7017624536630689
% es.tEX (V/m) @ t=0.78
-0.532931091731097
% es.tEY (V/m) @ t=0.78
0
% es.tEZ (V/m) @ t=0.78
-1.70176245366308
% es.Ex (V/m) @ t=0.78
-0.5329310917310898
% es.Ey (V/m) @ t=0.78
0.039804437913223245
% es.Ez (V/m) @ t=0.78
-1.7017624536630689
% es.tEx (V/m) @ t=0.78
-0.532931091731097
% es.tEy (V/m) @ t=0.78
0
% es.tEz (V/m) @ t=0.78
-1.70176245366308
% V (V) @ t=0.78
0.008979571718443824
% es.normE (V/m) @ t=0.8
1.8020951534041276
% es.EX (V/m) @ t=0.8
-0.53760098017932
% es.EY (V/m) @ t=0.8
0.040152380757691175
% es.EZ (V/m) @ t=0.8
-1.7166763738448627
% es.tEX (V/m) @ t=0.8
-0.5376009801793238
% es.tEY (V/m) @ t=0.8
0
% es.tEZ (V/m) @ t=0.8
-1.7166763738448871
% es.Ex (V/m) @ t=0.8
-0.53760098017932
% es.Ey (V/m) @ t=0.8
0.040152380757691175
% es.Ez (V/m) @ t=0.8
-1.7166763738448627
% es.tEx (V/m) @ t=0.8
-0.5376009801793238
% es.tEy (V/m) @ t=0.8
0
% es.tEz (V/m) @ t=0.8
-1.7166763738448871
% V (V) @ t=0.8
0.009058313316521491
% es.normE (V/m) @ t=0.82
1.8182616126748876
% es.EX (V/m) @ t=0.82
-0.542423416549587
% es.EY (V/m) @ t=0.82
0.04051202310732287
% es.EZ (V/m) @ t=0.82
-1.7320766916055872
% es.tEX (V/m) @ t=0.82
-0.5424234165495854
% es.tEY (V/m) @ t=0.82
0
% es.tEZ (V/m) @ t=0.82
-1.7320766916056094
% es.Ex (V/m) @ t=0.82
-0.542423416549587
% es.Ey (V/m) @ t=0.82
0.04051202310732287
% es.Ez (V/m) @ t=0.82
-1.7320766916055872
% es.tEx (V/m) @ t=0.82
-0.5424234165495854
% es.tEy (V/m) @ t=0.82
0
% es.tEz (V/m) @ t=0.82
-1.7320766916056094
% V (V) @ t=0.82
0.009139604721477554
% es.normE (V/m) @ t=0.84
1.835758928839591
% es.EX (V/m) @ t=0.84
-0.5476433941966479
% es.EY (V/m) @ t=0.84
0.04090215447413753
% es.EZ (V/m) @ t=0.84
-1.7487445658952367
% es.tEX (V/m) @ t=0.84
-0.5476433941966512
% es.tEY (V/m) @ t=0.84
0
% es.tEZ (V/m) @ t=0.84
-1.7487445658952483
% es.Ex (V/m) @ t=0.84
-0.5476433941966479
% es.Ey (V/m) @ t=0.84
0.04090215447413753
% es.Ez (V/m) @ t=0.84
-1.7487445658952367
% es.tEx (V/m) @ t=0.84
-0.5476433941966512
% es.tEy (V/m) @ t=0.84
0
% es.tEz (V/m) @ t=0.84
-1.7487445658952483
% V (V) @ t=0.84
0.009227540946425325
% es.normE (V/m) @ t=0.86
1.8532562450043828
% es.EX (V/m) @ t=0.86
-0.5528633718437194
% es.EY (V/m) @ t=0.86
0.041292285840945325
% es.EZ (V/m) @ t=0.86
-1.7654124401848863
% es.tEX (V/m) @ t=0.86
-0.5528633718437206
% es.tEY (V/m) @ t=0.86
0
% es.tEZ (V/m) @ t=0.86
-1.7654124401849032
% es.Ex (V/m) @ t=0.86
-0.5528633718437194
% es.Ey (V/m) @ t=0.86
0.041292285840945325
% es.Ez (V/m) @ t=0.86
-1.7654124401848863
% es.tEx (V/m) @ t=0.86
-0.5528633718437206
% es.tEy (V/m) @ t=0.86
0
% es.tEz (V/m) @ t=0.86
-1.7654124401849032
% V (V) @ t=0.86
0.009315477171373092
% es.normE (V/m) @ t=0.88
1.8707535611692334
% es.EX (V/m) @ t=0.88
-0.5580833494907795
% es.EY (V/m) @ t=0.88
0.041682417207751066
% es.EZ (V/m) @ t=0.88
-1.782080314474514
% es.tEX (V/m) @ t=0.88
-0.5580833494907864
% es.tEY (V/m) @ t=0.88
0
% es.tEZ (V/m) @ t=0.88
-1.782080314474543
% es.Ex (V/m) @ t=0.88
-0.5580833494907795
% es.Ey (V/m) @ t=0.88
0.041682417207751066
% es.Ez (V/m) @ t=0.88
-1.782080314474514
% es.tEx (V/m) @ t=0.88
-0.5580833494907864
% es.tEy (V/m) @ t=0.88
0
% es.tEz (V/m) @ t=0.88
-1.782080314474543
% V (V) @ t=0.88
0.00940341339632086
% es.normE (V/m) @ t=0.9
1.8882508773342042
% es.EX (V/m) @ t=0.9
-0.5633033271378555
% es.EY (V/m) @ t=0.9
0.04207254857455331
% es.EZ (V/m) @ t=0.9
-1.7987481887641779
% es.tEX (V/m) @ t=0.9
-0.5633033271378558
% es.tEY (V/m) @ t=0.9
0
% es.tEZ (V/m) @ t=0.9
-1.7987481887641907
% es.Ex (V/m) @ t=0.9
-0.5633033271378555
% es.Ey (V/m) @ t=0.9
0.04207254857455331
% es.Ez (V/m) @ t=0.9
-1.7987481887641779
% es.tEx (V/m) @ t=0.9
-0.5633033271378558
% es.tEy (V/m) @ t=0.9
0
% es.tEz (V/m) @ t=0.9
-1.7987481887641907
% V (V) @ t=0.9
0.00949134962126863
% es.normE (V/m) @ t=0.92
1.9057481934992364
% es.EX (V/m) @ t=0.92
-0.5685233047849216
% es.EY (V/m) @ t=0.92
0.042462679941353776
% es.EZ (V/m) @ t=0.92
-1.8154160630538274
% es.tEX (V/m) @ t=0.92
-0.5685233047849287
% es.tEY (V/m) @ t=0.92
0
% es.tEZ (V/m) @ t=0.92
-1.8154160630538367
% es.Ex (V/m) @ t=0.92
-0.5685233047849216
% es.Ey (V/m) @ t=0.92
0.042462679941353776
% es.Ez (V/m) @ t=0.92
-1.8154160630538274
% es.tEx (V/m) @ t=0.92
-0.5685233047849287
% es.tEy (V/m) @ t=0.92
0
% es.tEz (V/m) @ t=0.92
-1.8154160630538367
% V (V) @ t=0.92
0.009579285846216395
% es.normE (V/m) @ t=0.94
1.9232455096643442
% es.EX (V/m) @ t=0.94
-0.5737432824319835
% es.EY (V/m) @ t=0.94
0.04285281130816462
% es.EZ (V/m) @ t=0.94
-1.832083937343476
% es.tEX (V/m) @ t=0.94
-0.573743282431991
% es.tEY (V/m) @ t=0.94
0
% es.tEZ (V/m) @ t=0.94
-1.8320839373434907
% es.Ex (V/m) @ t=0.94
-0.5737432824319835
% es.Ey (V/m) @ t=0.94
0.04285281130816462
% es.Ez (V/m) @ t=0.94
-1.832083937343476
% es.tEx (V/m) @ t=0.94
-0.573743282431991
% es.tEy (V/m) @ t=0.94
0
% es.tEz (V/m) @ t=0.94
-1.8320839373434907
% V (V) @ t=0.94
0.009667222071164166
% es.normE (V/m) @ t=0.96
1.9407428258295205
% es.EX (V/m) @ t=0.96
-0.578963260079048
% es.EY (V/m) @ t=0.96
0.04324294267497242
% es.EZ (V/m) @ t=0.96
-1.8487518116331185
% es.tEX (V/m) @ t=0.96
-0.5789632600790497
% es.tEY (V/m) @ t=0.96
0
% es.tEZ (V/m) @ t=0.96
-1.8487518116331296
% es.Ex (V/m) @ t=0.96
-0.578963260079048
% es.Ey (V/m) @ t=0.96
0.04324294267497242
% es.Ez (V/m) @ t=0.96
-1.8487518116331185
% es.tEx (V/m) @ t=0.96
-0.5789632600790497
% es.tEy (V/m) @ t=0.96
0
% es.tEz (V/m) @ t=0.96
-1.8487518116331296
% V (V) @ t=0.96
0.009755158296111933
% es.normE (V/m) @ t=0.98
1.958240141994758
% es.EX (V/m) @ t=0.98
-0.5841832377261177
% es.EY (V/m) @ t=0.98
0.04363307404177842
% es.EZ (V/m) @ t=0.98
-1.8654196859227468
% es.tEX (V/m) @ t=0.98
-0.5841832377261191
% es.tEY (V/m) @ t=0.98
0
% es.tEZ (V/m) @ t=0.98
-1.8654196859227712
% es.Ex (V/m) @ t=0.98
-0.5841832377261177
% es.Ey (V/m) @ t=0.98
0.04363307404177842
% es.Ez (V/m) @ t=0.98
-1.8654196859227468
% es.tEx (V/m) @ t=0.98
-0.5841832377261191
% es.tEy (V/m) @ t=0.98
0
% es.tEz (V/m) @ t=0.98
-1.8654196859227712
% V (V) @ t=0.98
0.009843094521059702
% es.normE (V/m) @ t=1
1.9757374581601042
% es.EX (V/m) @ t=1
-0.5894032153731821
% es.EY (V/m) @ t=1
0.04402320540858422
% es.EZ (V/m) @ t=1
-1.8820875602124176
% es.tEX (V/m) @ t=1
-0.5894032153731885
% es.tEY (V/m) @ t=1
0
% es.tEZ (V/m) @ t=1
-1.8820875602124172
% es.Ex (V/m) @ t=1
-0.5894032153731821
% es.Ey (V/m) @ t=1
0.04402320540858422
% es.Ez (V/m) @ t=1
-1.8820875602124176
% es.tEx (V/m) @ t=1
-0.5894032153731885
% es.tEy (V/m) @ t=1
0
% es.tEz (V/m) @ t=1
-1.8820875602124172
% V (V) @ t=1
0.009931030746007471
% es.normE (V/m) @ t=1.02
1.9932347743254941
% es.EX (V/m) @ t=1.02
-0.5946231930202538
% es.EY (V/m) @ t=1.02
0.0444133367753862
% es.EZ (V/m) @ t=1.02
-1.8987554345020596
% es.tEX (V/m) @ t=1.02
-0.5946231930202543
% es.tEY (V/m) @ t=1.02
0
% es.tEZ (V/m) @ t=1.02
-1.8987554345020783
% es.Ex (V/m) @ t=1.02
-0.5946231930202538
% es.Ey (V/m) @ t=1.02
0.0444133367753862
% es.Ez (V/m) @ t=1.02
-1.8987554345020596
% es.tEx (V/m) @ t=1.02
-0.5946231930202543