% Model:              1 neuron.mph
% Version:            COMSOL 6.0.0.405
% Date:               Mar 16 2023, 17:11
% Dimension:          0
% Nodes:              14017
% Expressions:        14017
% Description:        Electric field norm, Electric field, X component, Electric field, Y component, Electric field, Z component, Tangential electric field, X component, Tangential electric field, Y component, Tangential electric field, Z component, Electric field, x component, Electric field, y component, Electric field, z component, Tangential electric field, x component, Tangential electric field, y component, Tangential electric field, z component, Electric potential
% Length unit:        mm
% x
2
% y
12.199999999999998
% z
2
% es.normE (V/m) @ t=0
0.7343520045457979
% es.EX (V/m) @ t=0
-0.525728558620605
% es.EY (V/m) @ t=0
0.20021564429561378
% es.EZ (V/m) @ t=0
-0.4691319510113332
% es.tEX (V/m) @ t=0
-0.5257285586206022
% es.tEY (V/m) @ t=0
0
% es.tEZ (V/m) @ t=0
-0.46913195101133454
% es.Ex (V/m) @ t=0
-0.525728558620605
% es.Ey (V/m) @ t=0
0.20021564429561378
% es.Ez (V/m) @ t=0
-0.4691319510113332
% es.tEx (V/m) @ t=0
-0.5257285586206022
% es.tEy (V/m) @ t=0
0
% es.tEz (V/m) @ t=0
-0.46913195101133454
% V (V) @ t=0
0.007473349301768782
% es.normE (V/m) @ t=0.02
0.6342736411302181
% es.EX (V/m) @ t=0.02
-0.45408164620539615
% es.EY (V/m) @ t=0.02
0.17293001855367351
% es.EZ (V/m) @ t=0.02
-0.4051980914793467
% es.tEX (V/m) @ t=0.02
-0.4540816462053956
% es.tEY (V/m) @ t=0.02
0
% es.tEZ (V/m) @ t=0.02
-0.40519809147934893
% es.Ex (V/m) @ t=0.02
-0.45408164620539615
% es.Ey (V/m) @ t=0.02
0.17293001855367351
% es.Ez (V/m) @ t=0.02
-0.4051980914793467
% es.tEx (V/m) @ t=0.02
-0.4540816462053956
% es.tEy (V/m) @ t=0.02
0
% es.tEz (V/m) @ t=0.02
-0.40519809147934893
% V (V) @ t=0.02
0.0064548723796792945
% es.normE (V/m) @ t=0.04
0.640107480683827
% es.EX (V/m) @ t=0.04
-0.45825813927380843
% es.EY (V/m) @ t=0.04
0.17452057175097035
% es.EZ (V/m) @ t=0.04
-0.4089249697693962
% es.tEX (V/m) @ t=0.04
-0.458258139273807
% es.tEY (V/m) @ t=0.04
0
% es.tEZ (V/m) @ t=0.04
-0.4089249697693962
% es.Ex (V/m) @ t=0.04
-0.45825813927380843
% es.Ey (V/m) @ t=0.04
0.17452057175097035
% es.Ez (V/m) @ t=0.04
-0.4089249697693962
% es.tEx (V/m) @ t=0.04
-0.458258139273807
% es.tEy (V/m) @ t=0.04
0
% es.tEz (V/m) @ t=0.04
-0.4089249697693962
% V (V) @ t=0.04
0.006514242165665834
% es.normE (V/m) @ t=0.06
0.6459942222426704
% es.EX (V/m) @ t=0.06
-0.46247250532670814
% es.EY (V/m) @ t=0.06
0.17612554817558035
% es.EZ (V/m) @ t=0.06
-0.4126856439172042
% es.tEX (V/m) @ t=0.06
-0.4624725053267098
% es.tEY (V/m) @ t=0.06
0
% es.tEZ (V/m) @ t=0.06
-0.41268564391720997
% es.Ex (V/m) @ t=0.06
-0.46247250532670814
% es.Ey (V/m) @ t=0.06
0.17612554817558035
% es.Ez (V/m) @ t=0.06
-0.4126856439172042
% es.tEx (V/m) @ t=0.06
-0.4624725053267098
% es.tEy (V/m) @ t=0.06
0
% es.tEz (V/m) @ t=0.06
-0.41268564391720997
% V (V) @ t=0.06
0.006574150328697379
% es.normE (V/m) @ t=0.08
0.651970102415715
% es.EX (V/m) @ t=0.08
-0.4667506863739367
% es.EY (V/m) @ t=0.08
0.17775482822611677
% es.EZ (V/m) @ t=0.08
-0.4165032629353136
% es.tEX (V/m) @ t=0.08
-0.46675068637393635
% es.tEY (V/m) @ t=0.08
0
% es.tEZ (V/m) @ t=0.08
-0.41650326293532025
% es.Ex (V/m) @ t=0.08
-0.4667506863739367
% es.Ey (V/m) @ t=0.08
0.17775482822611677
% es.Ez (V/m) @ t=0.08
-0.4165032629353136
% es.tEx (V/m) @ t=0.08
-0.46675068637393635
% es.tEy (V/m) @ t=0.08
0
% es.tEz (V/m) @ t=0.08
-0.41650326293532025
% V (V) @ t=0.08
0.006634965613614679
% es.normE (V/m) @ t=0.1
0.6580094367792402
% es.EX (V/m) @ t=0.1
-0.4710742947462574
% es.EY (V/m) @ t=0.1
0.1794014090494096
% es.EZ (V/m) @ t=0.1
-0.42036141871384025
% es.tEX (V/m) @ t=0.1
-0.47107429474625784
% es.tEY (V/m) @ t=0.1
0
% es.tEZ (V/m) @ t=0.1
-0.420361418713842
% es.Ex (V/m) @ t=0.1
-0.4710742947462574
% es.Ey (V/m) @ t=0.1
0.1794014090494096
% es.Ez (V/m) @ t=0.1
-0.42036141871384025
% es.tEx (V/m) @ t=0.1
-0.47107429474625784
% es.tEy (V/m) @ t=0.1
0
% es.tEz (V/m) @ t=0.1
-0.420361418713842
% V (V) @ t=0.1
0.006696426642079266
% es.normE (V/m) @ t=0.12
0.6640487711427692
% es.EX (V/m) @ t=0.12
-0.475397903118585
% es.EY (V/m) @ t=0.12
0.18104798987271975
% es.EZ (V/m) @ t=0.12
-0.4242195744923576
% es.tEX (V/m) @ t=0.12
-0.475397903118584
% es.tEY (V/m) @ t=0.12
0
% es.tEZ (V/m) @ t=0.12
-0.4242195744923558
% es.Ex (V/m) @ t=0.12
-0.475397903118585
% es.Ey (V/m) @ t=0.12
0.18104798987271975
% es.Ez (V/m) @ t=0.12
-0.4242195744923576
% es.tEx (V/m) @ t=0.12
-0.475397903118584
% es.tEy (V/m) @ t=0.12
0
% es.tEz (V/m) @ t=0.12
-0.4242195744923558
% V (V) @ t=0.12
0.006757887670543853
% es.normE (V/m) @ t=0.14
0.6701456656155276
% es.EX (V/m) @ t=0.14
-0.47976271926761294
% es.EY (V/m) @ t=0.14
0.18271026378437005
% es.EZ (V/m) @ t=0.14
-0.4281145019536359
% es.tEX (V/m) @ t=0.14
-0.47976271926761527
% es.tEY (V/m) @ t=0.14
0
% es.tEZ (V/m) @ t=0.14
-0.428114501953635
% es.Ex (V/m) @ t=0.14
-0.47976271926761294
% es.Ey (V/m) @ t=0.14
0.18271026378437005
% es.Ez (V/m) @ t=0.14
-0.4281145019536359
% es.tEx (V/m) @ t=0.14
-0.47976271926761527
% es.tEy (V/m) @ t=0.14
0
% es.tEz (V/m) @ t=0.14
-0.428114501953635
% V (V) @ t=0.14
0.006819934485504054
% es.normE (V/m) @ t=0.16
0.6765078306749732
% es.EX (V/m) @ t=0.16
-0.4843174449086243
% es.EY (V/m) @ t=0.16
0.1844448606087581
% es.EZ (V/m) @ t=0.16
-0.43217889479617355
% es.tEX (V/m) @ t=0.16
-0.4843174449086243
% es.tEY (V/m) @ t=0.16
0
% es.tEZ (V/m) @ t=0.16
-0.43217889479617444
% es.Ex (V/m) @ t=0.16
-0.4843174449086243
% es.Ey (V/m) @ t=0.16
0.1844448606087581
% es.Ez (V/m) @ t=0.16
-0.43217889479617355
% es.tEx (V/m) @ t=0.16
-0.4843174449086243
% es.tEy (V/m) @ t=0.16
0
% es.tEz (V/m) @ t=0.16
-0.43217889479617444
% V (V) @ t=0.16
0.00688468094661583
% es.normE (V/m) @ t=0.18
0.6828699957344213
% es.EX (V/m) @ t=0.18
-0.4888721705496285
% es.EY (V/m) @ t=0.18
0.18617945743315567
% es.EZ (V/m) @ t=0.18
-0.4362432876387188
% es.tEX (V/m) @ t=0.18
-0.48887217054963283
% es.tEY (V/m) @ t=0.18
0
% es.tEZ (V/m) @ t=0.18
-0.43624328763871834
% es.Ex (V/m) @ t=0.18
-0.4888721705496285
% es.Ey (V/m) @ t=0.18
0.18617945743315567
% es.Ez (V/m) @ t=0.18
-0.4362432876387188
% es.tEx (V/m) @ t=0.18
-0.48887217054963283
% es.tEy (V/m) @ t=0.18
0
% es.tEz (V/m) @ t=0.18
-0.43624328763871834
% V (V) @ t=0.18
0.006949427407727604
% es.normE (V/m) @ t=0.2
0.6892321607938701
% es.EX (V/m) @ t=0.2
-0.4934268961906424
% es.EY (V/m) @ t=0.2
0.18791405425754837
% es.EZ (V/m) @ t=0.2
-0.44030768048125735
% es.tEX (V/m) @ t=0.2
-0.49342689619064006
% es.tEY (V/m) @ t=0.2
0
% es.tEZ (V/m) @ t=0.2
-0.44030768048126134
% es.Ex (V/m) @ t=0.2
-0.4934268961906424
% es.Ey (V/m) @ t=0.2
0.18791405425754837
% es.Ez (V/m) @ t=0.2
-0.44030768048125735
% es.tEx (V/m) @ t=0.2
-0.49342689619064006
% es.tEy (V/m) @ t=0.2
0
% es.tEz (V/m) @ t=0.2
-0.44030768048126134
% V (V) @ t=0.2
0.007014173868839379
% es.normE (V/m) @ t=0.22
0.6955943258533193
% es.EX (V/m) @ t=0.22
-0.49798162183166006
% es.EY (V/m) @ t=0.22
0.18964865108193507
% es.EZ (V/m) @ t=0.22
-0.4443720733237959
% es.tEX (V/m) @ t=0.22
-0.49798162183165995
% es.tEY (V/m) @ t=0.22
0
% es.tEZ (V/m) @ t=0.22
-0.4443720733237946
% es.Ex (V/m) @ t=0.22
-0.49798162183166006
% es.Ey (V/m) @ t=0.22
0.18964865108193507
% es.Ez (V/m) @ t=0.22
-0.4443720733237959
% es.tEx (V/m) @ t=0.22
-0.49798162183165995
% es.tEy (V/m) @ t=0.22
0
% es.tEz (V/m) @ t=0.22
-0.4443720733237946
% V (V) @ t=0.22
0.007078920329951155
% es.normE (V/m) @ t=0.24
0.7019564909127665
% es.EX (V/m) @ t=0.24
-0.5025363474726713
% es.EY (V/m) @ t=0.24
0.19138324790632666
% es.EZ (V/m) @ t=0.24
-0.44843646616633404
% es.tEX (V/m) @ t=0.24
-0.5025363474726703
% es.tEY (V/m) @ t=0.24
0
% es.tEZ (V/m) @ t=0.24
-0.4484364661663349
% es.Ex (V/m) @ t=0.24
-0.5025363474726713
% es.Ey (V/m) @ t=0.24
0.19138324790632666
% es.Ez (V/m) @ t=0.24
-0.44843646616633404
% es.tEx (V/m) @ t=0.24
-0.5025363474726703
% es.tEy (V/m) @ t=0.24
0
% es.tEz (V/m) @ t=0.24
-0.4484364661663349
% V (V) @ t=0.24
0.0071436667910629295
% es.normE (V/m) @ t=0.26
0.7083186559722143
% es.EX (V/m) @ t=0.26
-0.507091073113679
% es.EY (V/m) @ t=0.26
0.19311784473072247
% es.EZ (V/m) @ t=0.26
-0.4525008590088784
% es.tEX (V/m) @ t=0.26
-0.5070910731136828
% es.tEY (V/m) @ t=0.26
0
% es.tEZ (V/m) @ t=0.26
-0.45250085900887704
% es.Ex (V/m) @ t=0.26
-0.507091073113679
% es.Ey (V/m) @ t=0.26
0.19311784473072247
% es.Ez (V/m) @ t=0.26
-0.4525008590088784
% es.tEx (V/m) @ t=0.26
-0.5070910731136828
% es.tEy (V/m) @ t=0.26
0
% es.tEz (V/m) @ t=0.26
-0.45250085900887704
% V (V) @ t=0.26
0.007208413252174706
% es.normE (V/m) @ t=0.28
0.7149470749978715
% es.EX (V/m) @ t=0.28
-0.5118364118801647
% es.EY (V/m) @ t=0.28
0.19492503104564984
% es.EZ (V/m) @ t=0.28
-0.45673534662192505
% es.tEX (V/m) @ t=0.28
-0.5118364118801646
% es.tEY (V/m) @ t=0.28
0
% es.tEZ (V/m) @ t=0.28
-0.4567353466219277
% es.Ex (V/m) @ t=0.28
-0.5118364118801647
% es.Ey (V/m) @ t=0.28
0.19492503104564984
% es.Ez (V/m) @ t=0.28
-0.45673534662192505
% es.tEx (V/m) @ t=0.28
-0.5118364118801646
% es.tEy (V/m) @ t=0.28
0
% es.tEz (V/m) @ t=0.28
-0.4567353466219277
% V (V) @ t=0.28
0.007275869427631221
% es.normE (V/m) @ t=0.3
0.7220355700683814
% es.EX (V/m) @ t=0.3
-0.5169111223893941
% es.EY (V/m) @ t=0.3
0.1968576490534073
% es.EZ (V/m) @ t=0.3
-0.4612637510933073
% es.tEX (V/m) @ t=0.3
-0.5169111223893914
% es.tEY (V/m) @ t=0.3
0
% es.tEZ (V/m) @ t=0.3
-0.46126375109330464
% es.Ex (V/m) @ t=0.3
-0.5169111223893941
% es.Ey (V/m) @ t=0.3
0.1968576490534073
% es.Ez (V/m) @ t=0.3
-0.4612637510933073
% es.tEx (V/m) @ t=0.3
-0.5169111223893914
% es.tEy (V/m) @ t=0.3
0
% es.tEz (V/m) @ t=0.3
-0.46126375109330464
% V (V) @ t=0.3
0.0073480078794727855
% es.normE (V/m) @ t=0.32
0.7291240651388851
% es.EX (V/m) @ t=0.32
-0.521985832898617
% es.EY (V/m) @ t=0.32
0.1987902670611632
% es.EZ (V/m) @ t=0.32
-0.4657921555646878
% es.tEX (V/m) @ t=0.32
-0.5219858328986151
% es.tEY (V/m) @ t=0.32
0
% es.tEZ (V/m) @ t=0.32
-0.46579215556469133
% es.Ex (V/m) @ t=0.32
-0.521985832898617
% es.Ey (V/m) @ t=0.32
0.1987902670611632
% es.Ez (V/m) @ t=0.32
-0.4657921555646878
% es.tEx (V/m) @ t=0.32
-0.5219858328986151
% es.tEy (V/m) @ t=0.32
0
% es.tEz (V/m) @ t=0.32
-0.46579215556469133
% V (V) @ t=0.32
0.007420146331314348
% es.normE (V/m) @ t=0.34
0.7362125602093894
% es.EX (V/m) @ t=0.34
-0.5270605434078465
% es.EY (V/m) @ t=0.34
0.20072288506891978
% es.EZ (V/m) @ t=0.34
-0.47032056003606204
% es.tEX (V/m) @ t=0.34
-0.527060543407845
% es.tEY (V/m) @ t=0.34
0
% es.tEZ (V/m) @ t=0.34
-0.4703205600360647
% es.Ex (V/m) @ t=0.34
-0.5270605434078465
% es.Ey (V/m) @ t=0.34
0.20072288506891978
% es.Ez (V/m) @ t=0.34
-0.47032056003606204
% es.tEx (V/m) @ t=0.34
-0.527060543407845
% es.tEy (V/m) @ t=0.34
0
% es.tEz (V/m) @ t=0.34
-0.4703205600360647
% V (V) @ t=0.34
0.0074922847831559135
% es.normE (V/m) @ t=0.36
0.7433010552798958
% es.EX (V/m) @ t=0.36
-0.5321352539170757
% es.EY (V/m) @ t=0.36
0.20265550307666902
% es.EZ (V/m) @ t=0.36
-0.4748489645074425
% es.tEX (V/m) @ t=0.36
-0.532135253917077
% es.tEY (V/m) @ t=0.36
0
% es.tEZ (V/m) @ t=0.36
-0.4748489645074443
% es.Ex (V/m) @ t=0.36
-0.5321352539170757
% es.Ey (V/m) @ t=0.36
0.20265550307666902
% es.Ez (V/m) @ t=0.36
-0.4748489645074425
% es.tEx (V/m) @ t=0.36
-0.532135253917077
% es.tEy (V/m) @ t=0.36
0
% es.tEz (V/m) @ t=0.36
-0.4748489645074443
% V (V) @ t=0.36
0.007564423234997476
% es.normE (V/m) @ t=0.38
0.7503895503504072
% es.EX (V/m) @ t=0.38
-0.5372099644263096
% es.EY (V/m) @ t=0.38
0.20458812108442892
% es.EZ (V/m) @ t=0.38
-0.4793773689788212
% es.tEX (V/m) @ t=0.38
-0.5372099644263069
% es.tEY (V/m) @ t=0.38
0
% es.tEZ (V/m) @ t=0.38
-0.4793773689788212
% es.Ex (V/m) @ t=0.38
-0.5372099644263096
% es.Ey (V/m) @ t=0.38
0.20458812108442892
% es.Ez (V/m) @ t=0.38
-0.4793773689788212
% es.tEx (V/m) @ t=0.38
-0.5372099644263069
% es.tEy (V/m) @ t=0.38
0
% es.tEz (V/m) @ t=0.38
-0.4793773689788212
% V (V) @ t=0.38
0.007636561686839039
% es.normE (V/m) @ t=0.4
0.7574780454209087
% es.EX (V/m) @ t=0.4
-0.5422846749355316
% es.EY (V/m) @ t=0.4
0.20652073909218416
% es.EZ (V/m) @ t=0.4
-0.48390577345019814
% es.tEX (V/m) @ t=0.4
-0.542284674935531
% es.tEY (V/m) @ t=0.4
0
% es.tEZ (V/m) @ t=0.4
-0.4839057734502008
% es.Ex (V/m) @ t=0.4
-0.5422846749355316
% es.Ey (V/m) @ t=0.4
0.20652073909218416
% es.Ez (V/m) @ t=0.4
-0.48390577345019814
% es.tEx (V/m) @ t=0.4
-0.542284674935531
% es.tEy (V/m) @ t=0.4
0
% es.tEz (V/m) @ t=0.4
-0.4839057734502008
% V (V) @ t=0.4
0.007708700138680605
% es.normE (V/m) @ t=0.42
0.7645665404914141
% es.EX (V/m) @ t=0.42
-0.5473593854447635
% es.EY (V/m) @ t=0.42
0.20845335709994606
% es.EZ (V/m) @ t=0.42
-0.48843417792156796
% es.tEX (V/m) @ t=0.42
-0.5473593854447643
% es.tEY (V/m) @ t=0.42
0
% es.tEZ (V/m) @ t=0.42
-0.48843417792156973
% es.Ex (V/m) @ t=0.42
-0.5473593854447635
% es.Ey (V/m) @ t=0.42
0.20845335709994606
% es.Ez (V/m) @ t=0.42
-0.48843417792156796
% es.tEx (V/m) @ t=0.42
-0.5473593854447643
% es.tEy (V/m) @ t=0.42
0
% es.tEz (V/m) @ t=0.42
-0.48843417792156973
% V (V) @ t=0.42
0.007780838590522168
% es.normE (V/m) @ t=0.44
0.7716550355619252
% es.EX (V/m) @ t=0.44
-0.5524340959539921
% es.EY (V/m) @ t=0.44
0.21038597510770285
% es.EZ (V/m) @ t=0.44
-0.4929625823929529
% es.tEX (V/m) @ t=0.44
-0.5524340959539888
% es.tEY (V/m) @ t=0.44
0
% es.tEZ (V/m) @ t=0.44
-0.4929625823929573
% es.Ex (V/m) @ t=0.44
-0.5524340959539921
% es.Ey (V/m) @ t=0.44
0.21038597510770285
% es.Ez (V/m) @ t=0.44
-0.4929625823929529
% es.tEx (V/m) @ t=0.44
-0.5524340959539888
% es.tEy (V/m) @ t=0.44
0
% es.tEz (V/m) @ t=0.44
-0.4929625823929573
% V (V) @ t=0.44
0.007852977042363731
% es.normE (V/m) @ t=0.46
0.778743530632441
% es.EX (V/m) @ t=0.46
-0.5575088064632213
% es.EY (V/m) @ t=0.46
0.21231859311545231
% es.EZ (V/m) @ t=0.46
-0.4974909868643458
% es.tEX (V/m) @ t=0.46
-0.5575088064632199
% es.tEY (V/m) @ t=0.46
0
% es.tEZ (V/m) @ t=0.46
-0.49749098686434046
% es.Ex (V/m) @ t=0.46
-0.5575088064632213
% es.Ey (V/m) @ t=0.46
0.21231859311545231
% es.Ez (V/m) @ t=0.46
-0.4974909868643458
% es.tEx (V/m) @ t=0.46
-0.5575088064632199
% es.tEy (V/m) @ t=0.46
0
% es.tEz (V/m) @ t=0.46
-0.49749098686434046
% V (V) @ t=0.46
0.007925115494205296
% es.normE (V/m) @ t=0.48
0.7858320257029434
% es.EX (V/m) @ t=0.48
-0.5625835169724499
% es.EY (V/m) @ t=0.48
0.2142512111232142
% es.EZ (V/m) @ t=0.48
-0.502019391335712
% es.tEX (V/m) @ t=0.48
-0.5625835169724482
% es.tEY (V/m) @ t=0.48
0
% es.tEZ (V/m) @ t=0.48
-0.5020193913357138
% es.Ex (V/m) @ t=0.48
-0.5625835169724499
% es.Ey (V/m) @ t=0.48
0.2142512111232142
% es.Ez (V/m) @ t=0.48
-0.502019391335712
% es.tEx (V/m) @ t=0.48
-0.5625835169724482
% es.tEy (V/m) @ t=0.48
0
% es.tEz (V/m) @ t=0.48
-0.5020193913357138
% V (V) @ t=0.48
0.00799725394604686
% es.normE (V/m) @ t=0.5
0.792920520773444
% es.EX (V/m) @ t=0.5
-0.5676582274816756
% es.EY (V/m) @ t=0.5
0.21618382913096634
% es.EZ (V/m) @ t=0.5
-0.5065477958070868
% es.tEX (V/m) @ t=0.5
-0.5676582274816786
% es.tEY (V/m) @ t=0.5
0
% es.tEZ (V/m) @ t=0.5
-0.5065477958070908
% es.Ex (V/m) @ t=0.5
-0.5676582274816756
% es.Ey (V/m) @ t=0.5
0.21618382913096634
% es.Ez (V/m) @ t=0.5
-0.5065477958070868
% es.tEx (V/m) @ t=0.5
-0.5676582274816786
% es.tEy (V/m) @ t=0.5
0
% es.tEz (V/m) @ t=0.5
-0.5065477958070908
% V (V) @ t=0.5
0.008069392397888422
% es.normE (V/m) @ t=0.52
0.800009015843958
% es.EX (V/m) @ t=0.52
-0.5727329379909002
% es.EY (V/m) @ t=0.52
0.2181164471387269
% es.EZ (V/m) @ t=0.52
-0.511076200278477
% es.tEX (V/m) @ t=0.52
-0.5727329379908987
% es.tEY (V/m) @ t=0.52
0
% es.tEZ (V/m) @ t=0.52
-0.511076200278473
% es.Ex (V/m) @ t=0.52
-0.5727329379909002
% es.Ey (V/m) @ t=0.52
0.2181164471387269
% es.Ez (V/m) @ t=0.52
-0.511076200278477
% es.tEx (V/m) @ t=0.52
-0.5727329379908987
% es.tEy (V/m) @ t=0.52
0
% es.tEz (V/m) @ t=0.52
-0.511076200278473
% V (V) @ t=0.52
0.008141530849729987
% es.normE (V/m) @ t=0.54
0.8070975109144707
% es.EX (V/m) @ t=0.54
-0.5778076485001419
% es.EY (V/m) @ t=0.54
0.22004906514648792
% es.EZ (V/m) @ t=0.54
-0.5156046047498477
% es.tEX (V/m) @ t=0.54
-0.5778076485001409
% es.tEY (V/m) @ t=0.54
0
% es.tEZ (V/m) @ t=0.54
-0.5156046047498428
% es.Ex (V/m) @ t=0.54
-0.5778076485001419
% es.Ey (V/m) @ t=0.54
0.22004906514648792
% es.Ez (V/m) @ t=0.54
-0.5156046047498477
% es.tEx (V/m) @ t=0.54
-0.5778076485001409
% es.tEy (V/m) @ t=0.54
0
% es.tEz (V/m) @ t=0.54
-0.5156046047498428
% V (V) @ t=0.54
0.008213669301571552
% es.normE (V/m) @ t=0.56
0.8147979816826878
% es.EX (V/m) @ t=0.56
-0.5833204777249077
% es.EY (V/m) @ t=0.56
0.22214853830236092
% es.EZ (V/m) @ t=0.56
-0.5205239598892564
% es.tEX (V/m) @ t=0.56
-0.5833204777249101
% es.tEY (V/m) @ t=0.56
0
% es.tEZ (V/m) @ t=0.56
-0.5205239598892621
% es.Ex (V/m) @ t=0.56
-0.5833204777249077
% es.Ey (V/m) @ t=0.56
0.22214853830236092
% es.Ez (V/m) @ t=0.56
-0.5205239598892564
% es.tEx (V/m) @ t=0.56
-0.5833204777249101
% es.tEy (V/m) @ t=0.56
0
% es.tEz (V/m) @ t=0.56
-0.5205239598892621
% V (V) @ t=0.56
0.008292035531445127
% es.normE (V/m) @ t=0.58
0.8227099912001986
% es.EX (V/m) @ t=0.58
-0.5889847493770034
% es.EY (V/m) @ t=0.58
0.22430568748931345
% es.EZ (V/m) @ t=0.58
-0.5255784530997563
% es.tEX (V/m) @ t=0.58
-0.5889847493770042
% es.tEY (V/m) @ t=0.58
0
% es.tEZ (V/m) @ t=0.58
-0.5255784530997527
% es.Ex (V/m) @ t=0.58
-0.5889847493770034
% es.Ey (V/m) @ t=0.58
0.22430568748931345
% es.Ez (V/m) @ t=0.58
-0.5255784530997563
% es.tEx (V/m) @ t=0.58
-0.5889847493770042
% es.tEy (V/m) @ t=0.58
0
% es.tEz (V/m) @ t=0.58
-0.5255784530997527
% V (V) @ t=0.58
0.008372554487939445
% es.normE (V/m) @ t=0.6
0.8306220007176964
% es.EX (V/m) @ t=0.6
-0.5946490210290899
% es.EY (V/m) @ t=0.6
0.22646283667626443
% es.EZ (V/m) @ t=0.6
-0.5306329463102464
% es.tEX (V/m) @ t=0.6
-0.5946490210290865
% es.tEY (V/m) @ t=0.6
0
% es.tEZ (V/m) @ t=0.6
-0.5306329463102557
% es.Ex (V/m) @ t=0.6
-0.5946490210290899
% es.Ey (V/m) @ t=0.6
0.22646283667626443
% es.Ez (V/m) @ t=0.6
-0.5306329463102464
% es.tEx (V/m) @ t=0.6
-0.5946490210290865
% es.tEy (V/m) @ t=0.6
0
% es.tEz (V/m) @ t=0.6
-0.5306329463102557
% V (V) @ t=0.6
0.008453073444433759
% es.normE (V/m) @ t=0.62
0.8385340102352052
% es.EX (V/m) @ t=0.62
-0.6003132926811819
% es.EY (V/m) @ t=0.62
0.22861998586320365
% es.EZ (V/m) @ t=0.62
-0.5356874395207525
% es.tEX (V/m) @ t=0.62
-0.6003132926811814
% es.tEY (V/m) @ t=0.62
0
% es.tEZ (V/m) @ t=0.62
-0.5356874395207569
% es.Ex (V/m) @ t=0.62
-0.6003132926811819
% es.Ey (V/m) @ t=0.62
0.22861998586320365
% es.Ez (V/m) @ t=0.62
-0.5356874395207525
% es.tEx (V/m) @ t=0.62
-0.6003132926811814
% es.tEy (V/m) @ t=0.62
0
% es.tEz (V/m) @ t=0.62
-0.5356874395207569
% V (V) @ t=0.62
0.008533592400928078
% es.normE (V/m) @ t=0.64
0.8464460197527153
% es.EX (V/m) @ t=0.64
-0.6059775643332755
% es.EY (V/m) @ t=0.64
0.23077713505015107
% es.EZ (V/m) @ t=0.64
-0.5407419327312577
% es.tEX (V/m) @ t=0.64
-0.605977564333275
% es.tEY (V/m) @ t=0.64
0
% es.tEZ (V/m) @ t=0.64
-0.5407419327312537
% es.Ex (V/m) @ t=0.64
-0.6059775643332755
% es.Ey (V/m) @ t=0.64
0.23077713505015107
% es.Ez (V/m) @ t=0.64
-0.5407419327312577
% es.tEx (V/m) @ t=0.64
-0.605977564333275
% es.tEy (V/m) @ t=0.64
0
% es.tEz (V/m) @ t=0.64
-0.5407419327312537
% V (V) @ t=0.64
0.008614111357422394
% es.normE (V/m) @ t=0.66
0.8543580292702169
% es.EX (V/m) @ t=0.66
-0.6116418359853694
% es.EY (V/m) @ t=0.66
0.2329342842370905
% es.EZ (V/m) @ t=0.66
-0.54579642594175
% es.tEX (V/m) @ t=0.66
-0.6116418359853684
% es.tEY (V/m) @ t=0.66
0
% es.tEZ (V/m) @ t=0.66
-0.5457964259417478
% es.Ex (V/m) @ t=0.66
-0.6116418359853694
% es.Ey (V/m) @ t=0.66
0.2329342842370905
% es.Ez (V/m) @ t=0.66
-0.54579642594175
% es.tEx (V/m) @ t=0.66
-0.6116418359853684
% es.tEy (V/m) @ t=0.66
0
% es.tEz (V/m) @ t=0.66
-0.5457964259417478
% V (V) @ t=0.66
0.00869463031391671
% es.normE (V/m) @ t=0.68
0.8622700387877282
% es.EX (V/m) @ t=0.68
-0.6173061076374554
% es.EY (V/m) @ t=0.68
0.23509143342403593
% es.EZ (V/m) @ t=0.68
-0.5508509191522641
% es.tEX (V/m) @ t=0.68
-0.6173061076374542
% es.tEY (V/m) @ t=0.68
0
% es.tEZ (V/m) @ t=0.68
-0.5508509191522668
% es.Ex (V/m) @ t=0.68
-0.6173061076374554
% es.Ey (V/m) @ t=0.68
0.23509143342403593
% es.Ez (V/m) @ t=0.68
-0.5508509191522641
% es.tEx (V/m) @ t=0.68
-0.6173061076374542
% es.tEy (V/m) @ t=0.68
0
% es.tEz (V/m) @ t=0.68
-0.5508509191522668
% V (V) @ t=0.68
0.008775149270411028
% es.normE (V/m) @ t=0.7
0.8701820483052325
% es.EX (V/m) @ t=0.7
-0.6229703792895525
% es.EY (V/m) @ t=0.7
0.23724858261098514
% es.EZ (V/m) @ t=0.7
-0.5559054123627543
% es.tEX (V/m) @ t=0.7
-0.6229703792895491
% es.tEY (V/m) @ t=0.7
0
% es.tEZ (V/m) @ t=0.7
-0.55590541236276
% es.Ex (V/m) @ t=0.7
-0.6229703792895525
% es.Ey (V/m) @ t=0.7
0.23724858261098514
% es.Ez (V/m) @ t=0.7
-0.5559054123627543
% es.tEx (V/m) @ t=0.7
-0.6229703792895491
% es.tEy (V/m) @ t=0.7
0
% es.tEz (V/m) @ t=0.7
-0.55590541236276
% V (V) @ t=0.7
0.008855668226905344
% es.normE (V/m) @ t=0.72
0.8780940578227361
% es.EX (V/m) @ t=0.72
-0.628634650941642
% es.EY (V/m) @ t=0.72
0.23940573179792346
% es.EZ (V/m) @ t=0.72
-0.5609599055732564
% es.tEX (V/m) @ t=0.72
-0.628634650941643
% es.tEY (V/m) @ t=0.72
0
% es.tEZ (V/m) @ t=0.72
-0.5609599055732577
% es.Ex (V/m) @ t=0.72
-0.628634650941642
% es.Ey (V/m) @ t=0.72
0.23940573179792346
% es.Ez (V/m) @ t=0.72
-0.5609599055732564
% es.tEx (V/m) @ t=0.72
-0.628634650941643
% es.tEy (V/m) @ t=0.72
0
% es.tEz (V/m) @ t=0.72
-0.5609599055732577
% V (V) @ t=0.72
0.008936187183399658
% es.normE (V/m) @ t=0.74
0.8860060673402462
% es.EX (V/m) @ t=0.74
-0.6342989225937358
% es.EY (V/m) @ t=0.74
0.2415628809848751
% es.EZ (V/m) @ t=0.74
-0.5660143987837567
% es.tEX (V/m) @ t=0.74
-0.6342989225937383
% es.tEY (V/m) @ t=0.74
0
% es.tEZ (V/m) @ t=0.74
-0.5660143987837554
% es.Ex (V/m) @ t=0.74
-0.6342989225937358
% es.Ey (V/m) @ t=0.74
0.2415628809848751
% es.Ez (V/m) @ t=0.74
-0.5660143987837567
% es.tEx (V/m) @ t=0.74
-0.6342989225937383
% es.tEy (V/m) @ t=0.74
0
% es.tEz (V/m) @ t=0.74
-0.5660143987837554
% V (V) @ t=0.74
0.009016706139893976
% es.normE (V/m) @ t=0.76
0.8939180768577493
% es.EX (V/m) @ t=0.76
-0.6399631942458254
% es.EY (V/m) @ t=0.76
0.24372003017181165
% es.EZ (V/m) @ t=0.76
-0.5710688919942588
% es.tEX (V/m) @ t=0.76
-0.6399631942458206
% es.tEY (V/m) @ t=0.76
0
% es.tEZ (V/m) @ t=0.76
-0.5710688919942566
% es.Ex (V/m) @ t=0.76
-0.6399631942458254
% es.Ey (V/m) @ t=0.76
0.24372003017181165
% es.Ez (V/m) @ t=0.76
-0.5710688919942588
% es.tEx (V/m) @ t=0.76
-0.6399631942458206
% es.tEy (V/m) @ t=0.76
0
% es.tEz (V/m) @ t=0.76
-0.5710688919942566
% V (V) @ t=0.76
0.009097225096388292
% es.normE (V/m) @ t=0.78
0.9018300863752521
% es.EX (V/m) @ t=0.78
-0.6456274658979156
% es.EY (V/m) @ t=0.78
0.24587717935875264
% es.EZ (V/m) @ t=0.78
-0.5761233852047574
% es.tEX (V/m) @ t=0.78
-0.6456274658979164
% es.tEY (V/m) @ t=0.78
0
% es.tEZ (V/m) @ t=0.78
-0.5761233852047614
% es.Ex (V/m) @ t=0.78
-0.6456274658979156
% es.Ey (V/m) @ t=0.78
0.24587717935875264
% es.Ez (V/m) @ t=0.78
-0.5761233852047574
% es.tEx (V/m) @ t=0.78
-0.6456274658979164
% es.tEy (V/m) @ t=0.78
0
% es.tEz (V/m) @ t=0.78
-0.5761233852047614
% V (V) @ t=0.78
0.009177744052882608
% es.normE (V/m) @ t=0.8
0.9097420958927666
% es.EX (V/m) @ t=0.8
-0.6512917375500084
% es.EY (V/m) @ t=0.8
0.24803432854571006
% es.EZ (V/m) @ t=0.8
-0.5811778784152635
% es.tEX (V/m) @ t=0.8
-0.6512917375500089
% es.tEY (V/m) @ t=0.8
0
% es.tEZ (V/m) @ t=0.8
-0.5811778784152688
% es.Ex (V/m) @ t=0.8
-0.6512917375500084
% es.Ey (V/m) @ t=0.8
0.24803432854571006
% es.Ez (V/m) @ t=0.8
-0.5811778784152635
% es.tEx (V/m) @ t=0.8
-0.6512917375500089
% es.tEy (V/m) @ t=0.8
0
% es.tEz (V/m) @ t=0.8
-0.5811778784152688
% V (V) @ t=0.8
0.009258263009376924
% es.normE (V/m) @ t=0.82
0.9177660526620821
% es.EX (V/m) @ t=0.82
-0.6570361531588655
% es.EY (V/m) @ t=0.82
0.25022199941402734
% es.EZ (V/m) @ t=0.82
-0.586303887724442
% es.tEX (V/m) @ t=0.82
-0.6570361531588684
% es.tEY (V/m) @ t=0.82
0
% es.tEZ (V/m) @ t=0.82
-0.5863038877244469
% es.Ex (V/m) @ t=0.82
-0.6570361531588655
% es.Ey (V/m) @ t=0.82
0.25022199941402734
% es.Ez (V/m) @ t=0.82
-0.586303887724442
% es.tEx (V/m) @ t=0.82
-0.6570361531588684
% es.tEy (V/m) @ t=0.82
0
% es.tEz (V/m) @ t=0.82
-0.5863038877244469
% V (V) @ t=0.82
0.009339921226555704
% es.normE (V/m) @ t=0.84
0.9266134555345784
% es.EX (V/m) @ t=0.84
-0.6633700805942173
% es.EY (V/m) @ t=0.84
0.25263417744256844
% es.EZ (V/m) @ t=0.84
-0.5919559452556244
% es.tEX (V/m) @ t=0.84
-0.663370080594218
% es.tEY (V/m) @ t=0.84
0
% es.tEZ (V/m) @ t=0.84
-0.5919559452556307
% es.Ex (V/m) @ t=0.84
-0.6633700805942173
% es.Ey (V/m) @ t=0.84
0.25263417744256844
% es.Ez (V/m) @ t=0.84
-0.5919559452556244
% es.tEx (V/m) @ t=0.84
-0.663370080594218
% es.tEy (V/m) @ t=0.84
0
% es.tEz (V/m) @ t=0.84
-0.5919559452556307
% V (V) @ t=0.84
0.009429959459822232
% es.normE (V/m) @ t=0.86
0.9354608584070714
% es.EX (V/m) @ t=0.86
-0.6697040080295735
% es.EY (V/m) @ t=0.86
0.25504635547108756
% es.EZ (V/m) @ t=0.86
-0.5976080027868096
% es.tEX (V/m) @ t=0.86
-0.669704008029576
% es.tEY (V/m) @ t=0.86
0
% es.tEZ (V/m) @ t=0.86
-0.5976080027868065
% es.Ex (V/m) @ t=0.86
-0.6697040080295735
% es.Ey (V/m) @ t=0.86
0.25504635547108756
% es.Ez (V/m) @ t=0.86
-0.5976080027868096
% es.tEx (V/m) @ t=0.86
-0.669704008029576
% es.tEy (V/m) @ t=0.86
0
% es.tEz (V/m) @ t=0.86
-0.5976080027868065
% V (V) @ t=0.86
0.009519997693088766
% es.normE (V/m) @ t=0.88
0.9443082612795728
% es.EX (V/m) @ t=0.88
-0.6760379354649426
% es.EY (V/m) @ t=0.88
0.257458533499618
% es.EZ (V/m) @ t=0.88
-0.6032600603179881
% es.tEX (V/m) @ t=0.88
-0.6760379354649437
% es.tEY (V/m) @ t=0.88
0
% es.tEZ (V/m) @ t=0.88
-0.6032600603179841
% es.Ex (V/m) @ t=0.88
-0.6760379354649426
% es.Ey (V/m) @ t=0.88
0.257458533499618
% es.Ez (V/m) @ t=0.88
-0.6032600603179881
% es.tEx (V/m) @ t=0.88
-0.6760379354649437
% es.tEy (V/m) @ t=0.88
0
% es.tEz (V/m) @ t=0.88
-0.6032600603179841
% V (V) @ t=0.88
0.009610035926355296
% es.normE (V/m) @ t=0.9
0.9531556641520662
% es.EX (V/m) @ t=0.9
-0.6823718629002997
% es.EY (V/m) @ t=0.9
0.25987071152813956
% es.EZ (V/m) @ t=0.9
-0.6089121178491701
% es.tEX (V/m) @ t=0.9
-0.6823718629002986
% es.tEY (V/m) @ t=0.9
0
% es.tEZ (V/m) @ t=0.9
-0.6089121178491741
% es.Ex (V/m) @ t=0.9
-0.6823718629002997
% es.Ey (V/m) @ t=0.9
0.25987071152813956
% es.Ez (V/m) @ t=0.9
-0.6089121178491701
% es.tEx (V/m) @ t=0.9
-0.6823718629002986
% es.tEy (V/m) @ t=0.9
0
% es.tEz (V/m) @ t=0.9
-0.6089121178491741
% V (V) @ t=0.9
0.009700074159621826
% es.normE (V/m) @ t=0.92
0.9620030670245594
% es.EX (V/m) @ t=0.92
-0.6887057903356573
% es.EY (V/m) @ t=0.92
0.2622828895566718
% es.EZ (V/m) @ t=0.92
-0.6145641753803477
% es.tEX (V/m) @ t=0.92
-0.6887057903356522
% es.tEY (V/m) @ t=0.92
0
% es.tEZ (V/m) @ t=0.92
-0.6145641753803588
% es.Ex (V/m) @ t=0.92
-0.6887057903356573
% es.Ey (V/m) @ t=0.92
0.2622828895566718
% es.Ez (V/m) @ t=0.92
-0.6145641753803477
% es.tEx (V/m) @ t=0.92
-0.6887057903356522
% es.tEy (V/m) @ t=0.92
0
% es.tEz (V/m) @ t=0.92
-0.6145641753803588
% V (V) @ t=0.92
0.009790112392888357
% es.normE (V/m) @ t=0.94
0.970850469897071
% es.EX (V/m) @ t=0.94
-0.695039717771025
% es.EY (V/m) @ t=0.94
0.26469506758521044
% es.EZ (V/m) @ t=0.94
-0.6202162329115395
% es.tEX (V/m) @ t=0.94
-0.6950397177710257
% es.tEY (V/m) @ t=0.94
0
% es.tEZ (V/m) @ t=0.94
-0.6202162329115346
% es.Ex (V/m) @ t=0.94
-0.695039717771025
% es.Ey (V/m) @ t=0.94
0.26469506758521044
% es.Ez (V/m) @ t=0.94
-0.6202162329115395
% es.tEx (V/m) @ t=0.94
-0.6950397177710257
% es.tEy (V/m) @ t=0.94
0
% es.tEz (V/m) @ t=0.94
-0.6202162329115346
% V (V) @ t=0.94
0.009880150626154887
% es.normE (V/m) @ t=0.96
0.9796978727695653
% es.EX (V/m) @ t=0.96
-0.7013736452063879
% es.EY (V/m) @ t=0.96
0.2671072456137318
% es.EZ (V/m) @ t=0.96
-0.6258682904427162
% es.tEX (V/m) @ t=0.96
-0.7013736452063828
% es.tEY (V/m) @ t=0.96
0
% es.tEZ (V/m) @ t=0.96
-0.6258682904427193
% es.Ex (V/m) @ t=0.96
-0.7013736452063879
% es.Ey (V/m) @ t=0.96
0.2671072456137318
% es.Ez (V/m) @ t=0.96
-0.6258682904427162
% es.tEx (V/m) @ t=0.96
-0.7013736452063828
% es.tEy (V/m) @ t=0.96
0
% es.tEz (V/m) @ t=0.96
-0.6258682904427193
% V (V) @ t=0.96
0.009970188859421419
% es.normE (V/m) @ t=0.98
0.9885452756420614
% es.EX (V/m) @ t=0.98
-0.707707572641745
% es.EY (V/m) @ t=0.98
0.26951942364227754
% es.EZ (V/m) @ t=0.98
-0.6315203479738911
% es.tEX (V/m) @ t=0.98
-0.7077075726417466
% es.tEY (V/m) @ t=0.98
0
% es.tEZ (V/m) @ t=0.98
-0.6315203479738951
% es.Ex (V/m) @ t=0.98
-0.707707572641745
% es.Ey (V/m) @ t=0.98
0.26951942364227754
% es.Ez (V/m) @ t=0.98
-0.6315203479738911
% es.tEx (V/m) @ t=0.98
-0.7077075726417466
% es.tEy (V/m) @ t=0.98
0
% es.tEz (V/m) @ t=0.98
-0.6315203479738951
% V (V) @ t=0.98
0.01006022709268795
% es.normE (V/m) @ t=1
0.9973926785145681
% es.EX (V/m) @ t=1
-0.7140415000771096
% es.EY (V/m) @ t=1
0.271931601670798
% es.EZ (V/m) @ t=1
-0.6371724055050878
% es.tEX (V/m) @ t=1
-0.7140415000771139
% es.tEY (V/m) @ t=1
0
% es.tEZ (V/m) @ t=1
-0.637172405505094
% es.Ex (V/m) @ t=1
-0.7140415000771096
% es.Ey (V/m) @ t=1
0.271931601670798
% es.Ez (V/m) @ t=1
-0.6371724055050878
% es.tEx (V/m) @ t=1
-0.7140415000771139
% es.tEy (V/m) @ t=1
0
% es.tEz (V/m) @ t=1
-0.637172405505094
% V (V) @ t=1
0.01015026532595448
% es.normE (V/m) @ t=1.02
1.0062400813870542
% es.EX (V/m) @ t=1.02
-0.7203754275124596
% es.EY (V/m) @ t=1.02
0.2743437796993251
% es.EZ (V/m) @ t=1.02
-0.6428244630362645
% es.tEX (V/m) @ t=1.02
-0.7203754275124639
% es.tEY (V/m) @ t=1.02
0
% es.tEZ (V/m) @ t=1.02
-0.6428244630362627
% es.Ex (V/m) @ t=1.02
-0.7203754275124596
% es.Ey (V/m) @ t=1.02
0.2743437796993251
% es.Ez (V/m) @ t=1.02
-0.6428244630362645
% es.tEx (V/m) @ t=1.02
-0.7203754275124639
% es.tEy (V/m) @ t=1.02
0