% Model:              1 neuron.mph
% Version:            COMSOL 6.0.0.405
% Date:               Mar 16 2023, 17:14
% Dimension:          0
% Nodes:              14017
% Expressions:        14017
% Description:        Electric field norm, Electric field, X component, Electric field, Y component, Electric field, Z component, Tangential electric field, X component, Tangential electric field, Y component, Tangential electric field, Z component, Electric field, x component, Electric field, y component, Electric field, z component, Tangential electric field, x component, Tangential electric field, y component, Tangential electric field, z component, Electric potential
% Length unit:        mm
% x
1.66
% y
12.200000000000001
% z
1.66
% es.normE (V/m) @ t=0
20.565330234293977
% es.EX (V/m) @ t=0
-9.712134340892405
% es.EY (V/m) @ t=0
7.792136751994921
% es.EZ (V/m) @ t=0
9.340859583072724
% es.tEX (V/m) @ t=0
-9.71213434089243
% es.tEY (V/m) @ t=0
0
% es.tEZ (V/m) @ t=0
9.340859583072728
% es.Ex (V/m) @ t=0
-9.712134340892405
% es.Ey (V/m) @ t=0
7.792136751994921
% es.Ez (V/m) @ t=0
9.340859583072724
% es.tEx (V/m) @ t=0
-9.71213434089243
% es.tEy (V/m) @ t=0
0
% es.tEz (V/m) @ t=0
9.340859583072728
% V (V) @ t=0
0.006454340147603464
% es.normE (V/m) @ t=0.02
17.76265489895907
% es.EX (V/m) @ t=0.02
-8.38854956024872
% es.EY (V/m) @ t=0.02
6.7302122054717834
% es.EZ (V/m) @ t=0.02
8.067872573740487
% es.tEX (V/m) @ t=0.02
-8.388549560248713
% es.tEY (V/m) @ t=0.02
0
% es.tEZ (V/m) @ t=0.02
8.067872573740487
% es.Ex (V/m) @ t=0.02
-8.38854956024872
% es.Ey (V/m) @ t=0.02
6.7302122054717834
% es.Ez (V/m) @ t=0.02
8.067872573740487
% es.tEx (V/m) @ t=0.02
-8.388549560248713
% es.tEy (V/m) @ t=0.02
0
% es.tEz (V/m) @ t=0.02
8.067872573740487
% V (V) @ t=0.02
0.00557473259346598
% es.normE (V/m) @ t=0.04
17.926025358318828
% es.EX (V/m) @ t=0.04
-8.465702503970235
% es.EY (V/m) @ t=0.04
6.792112739894829
% es.EZ (V/m) @ t=0.04
8.14207612869841
% es.tEX (V/m) @ t=0.04
-8.465702503970242
% es.tEY (V/m) @ t=0.04
0
% es.tEZ (V/m) @ t=0.04
8.142076128698392
% es.Ex (V/m) @ t=0.04
-8.465702503970235
% es.Ey (V/m) @ t=0.04
6.792112739894829
% es.Ez (V/m) @ t=0.04
8.14207612869841
% es.tEx (V/m) @ t=0.04
-8.465702503970242
% es.tEy (V/m) @ t=0.04
0
% es.tEz (V/m) @ t=0.04
8.142076128698392
% V (V) @ t=0.04
0.005626005706830003
% es.normE (V/m) @ t=0.06
18.0908536002727
% es.EX (V/m) @ t=0.06
-8.543543863711683
% es.EY (V/m) @ t=0.06
6.854565609978472
% es.EZ (V/m) @ t=0.06
8.216941853231017
% es.tEX (V/m) @ t=0.06
-8.543543863711683
% es.tEY (V/m) @ t=0.06
0
% es.tEZ (V/m) @ t=0.06
8.21694185323102
% es.Ex (V/m) @ t=0.06
-8.543543863711683
% es.Ey (V/m) @ t=0.06
6.854565609978472
% es.Ez (V/m) @ t=0.06
8.216941853231017
% es.tEx (V/m) @ t=0.06
-8.543543863711683
% es.tEy (V/m) @ t=0.06
0
% es.tEz (V/m) @ t=0.06
8.21694185323102
% V (V) @ t=0.06
0.005677736336035601
% es.normE (V/m) @ t=0.08
18.258233353530194
% es.EX (V/m) @ t=0.08
-8.622590189993211
% es.EY (V/m) @ t=0.08
6.917985237743924
% es.EZ (V/m) @ t=0.08
8.292966489772244
% es.tEX (V/m) @ t=0.08
-8.622590189993215
% es.tEY (V/m) @ t=0.08
0
% es.tEZ (V/m) @ t=0.08
8.292966489772226
% es.Ex (V/m) @ t=0.08
-8.622590189993211
% es.Ey (V/m) @ t=0.08
6.917985237743924
% es.Ez (V/m) @ t=0.08
8.292966489772244
% es.tEx (V/m) @ t=0.08
-8.622590189993215
% es.tEy (V/m) @ t=0.08
0
% es.tEz (V/m) @ t=0.08
8.292966489772226
% V (V) @ t=0.08
0.005730267745694545
% es.normE (V/m) @ t=0.1
18.427312926589767
% es.EX (V/m) @ t=0.1
-8.702439266387067
% es.EY (V/m) @ t=0.1
6.9820489206029706
% es.EZ (V/m) @ t=0.1
8.369763194843369
% es.tEX (V/m) @ t=0.1
-8.702439266387067
% es.tEY (V/m) @ t=0.1
0
% es.tEZ (V/m) @ t=0.1
8.369763194843387
% es.Ex (V/m) @ t=0.1
-8.702439266387067
% es.Ey (V/m) @ t=0.1
6.9820489206029706
% es.Ez (V/m) @ t=0.1
8.369763194843369
% es.tEx (V/m) @ t=0.1
-8.702439266387067
% es.tEy (V/m) @ t=0.1
0
% es.tEz (V/m) @ t=0.1
8.369763194843387
% V (V) @ t=0.1
0.00578333263622411
% es.normE (V/m) @ t=0.12
18.596392499649312
% es.EX (V/m) @ t=0.12
-8.782288342780966
% es.EY (V/m) @ t=0.12
7.046112603461982
% es.EZ (V/m) @ t=0.12
8.446559899914448
% es.tEX (V/m) @ t=0.12
-8.782288342780976
% es.tEY (V/m) @ t=0.12
0
% es.tEZ (V/m) @ t=0.12
8.446559899914433
% es.Ex (V/m) @ t=0.12
-8.782288342780966
% es.Ey (V/m) @ t=0.12
7.046112603461982
% es.Ez (V/m) @ t=0.12
8.446559899914448
% es.tEx (V/m) @ t=0.12
-8.782288342780976
% es.tEy (V/m) @ t=0.12
0
% es.tEz (V/m) @ t=0.12
8.446559899914433
% V (V) @ t=0.12
0.005836397526753675
% es.normE (V/m) @ t=0.14
18.76736317206918
% es.EX (V/m) @ t=0.14
-8.863030503405689
% es.EY (V/m) @ t=0.14
7.110892816970477
% es.EZ (V/m) @ t=0.14
8.524215552457036
% es.tEX (V/m) @ t=0.14
-8.863030503405692
% es.tEY (V/m) @ t=0.14
0
% es.tEZ (V/m) @ t=0.14
8.524215552457036
% es.Ex (V/m) @ t=0.14
-8.863030503405689
% es.Ey (V/m) @ t=0.14
7.110892816970477
% es.Ez (V/m) @ t=0.14
8.524215552457036
% es.tEx (V/m) @ t=0.14
-8.863030503405692
% es.tEy (V/m) @ t=0.14
0
% es.tEz (V/m) @ t=0.14
8.524215552457036
% V (V) @ t=0.14
0.005890055930497842
% es.normE (V/m) @ t=0.16
18.94543656206613
% es.EX (V/m) @ t=0.16
-8.947126969572047
% es.EY (V/m) @ t=0.16
7.178364224260282
% es.EZ (V/m) @ t=0.16
8.605097297415107
% es.tEX (V/m) @ t=0.16
-8.947126969572025
% es.tEY (V/m) @ t=0.16
0
% es.tEZ (V/m) @ t=0.16
8.605097297415114
% es.Ex (V/m) @ t=0.16
-8.947126969572047
% es.Ey (V/m) @ t=0.16
7.178364224260282
% es.Ez (V/m) @ t=0.16
8.605097297415107
% es.tEx (V/m) @ t=0.16
-8.947126969572025
% es.tEy (V/m) @ t=0.16
0
% es.tEz (V/m) @ t=0.16
8.605097297415114
% V (V) @ t=0.16
0.005945943490906214
% es.normE (V/m) @ t=0.18
19.12350995206312
% es.EX (V/m) @ t=0.18
-9.031223435738411
% es.EY (V/m) @ t=0.18
7.24583563155009
% es.EZ (V/m) @ t=0.18
8.68597904237324
% es.tEX (V/m) @ t=0.18
-9.031223435738404
% es.tEY (V/m) @ t=0.18
0
% es.tEZ (V/m) @ t=0.18
8.68597904237322
% es.Ex (V/m) @ t=0.18
-9.031223435738411
% es.Ey (V/m) @ t=0.18
7.24583563155009
% es.Ez (V/m) @ t=0.18
8.68597904237324
% es.tEx (V/m) @ t=0.18
-9.031223435738404
% es.tEy (V/m) @ t=0.18
0
% es.tEz (V/m) @ t=0.18
8.68597904237322
% V (V) @ t=0.18
0.006001831051314586
% es.normE (V/m) @ t=0.2
19.301583342060063
% es.EX (V/m) @ t=0.2
-9.115319901904783
% es.EY (V/m) @ t=0.2
7.313307038839891
% es.EZ (V/m) @ t=0.2
8.766860787331346
% es.tEX (V/m) @ t=0.2
-9.115319901904776
% es.tEY (V/m) @ t=0.2
0
% es.tEZ (V/m) @ t=0.2
8.766860787331325
% es.Ex (V/m) @ t=0.2
-9.115319901904783
% es.Ey (V/m) @ t=0.2
7.313307038839891
% es.Ez (V/m) @ t=0.2
8.766860787331346
% es.tEx (V/m) @ t=0.2
-9.115319901904776
% es.tEy (V/m) @ t=0.2
0
% es.tEz (V/m) @ t=0.2
8.766860787331325
% V (V) @ t=0.2
0.006057718611722958
% es.normE (V/m) @ t=0.22
19.479656732056995
% es.EX (V/m) @ t=0.22
-9.199416368071134
% es.EY (V/m) @ t=0.22
7.380778446129693
% es.EZ (V/m) @ t=0.22
8.847742532289399
% es.tEX (V/m) @ t=0.22
-9.199416368071148
% es.tEY (V/m) @ t=0.22
0
% es.tEZ (V/m) @ t=0.22
8.84774253228943
% es.Ex (V/m) @ t=0.22
-9.199416368071134
% es.Ey (V/m) @ t=0.22
7.380778446129693
% es.Ez (V/m) @ t=0.22
8.847742532289399
% es.tEx (V/m) @ t=0.22
-9.199416368071148
% es.tEy (V/m) @ t=0.22
0
% es.tEz (V/m) @ t=0.22
8.84774253228943
% V (V) @ t=0.22
0.006113606172131331
% es.normE (V/m) @ t=0.24
19.657730122054005
% es.EX (V/m) @ t=0.24
-9.283512834237513
% es.EY (V/m) @ t=0.24
7.448249853419526
% es.EZ (V/m) @ t=0.24
8.928624277247543
% es.tEX (V/m) @ t=0.24
-9.283512834237516
% es.tEY (V/m) @ t=0.24
0
% es.tEZ (V/m) @ t=0.24
8.928624277247536
% es.Ex (V/m) @ t=0.24
-9.283512834237513
% es.Ey (V/m) @ t=0.24
7.448249853419526
% es.Ez (V/m) @ t=0.24
8.928624277247543
% es.tEx (V/m) @ t=0.24
-9.283512834237516
% es.tEy (V/m) @ t=0.24
0
% es.tEz (V/m) @ t=0.24
8.928624277247536
% V (V) @ t=0.24
0.006169493732539702
% es.normE (V/m) @ t=0.26
19.835803512050944
% es.EX (V/m) @ t=0.26
-9.36760930040387
% es.EY (V/m) @ t=0.26
7.515721260709345
% es.EZ (V/m) @ t=0.26
9.009506022205635
% es.tEX (V/m) @ t=0.26
-9.367609300403892
% es.tEY (V/m) @ t=0.26
0
% es.tEZ (V/m) @ t=0.26
9.009506022205642
% es.Ex (V/m) @ t=0.26
-9.36760930040387
% es.Ey (V/m) @ t=0.26
7.515721260709345
% es.Ez (V/m) @ t=0.26
9.009506022205635
% es.tEx (V/m) @ t=0.26
-9.367609300403892
% es.tEy (V/m) @ t=0.26
0
% es.tEz (V/m) @ t=0.26
9.009506022205642
% V (V) @ t=0.26
0.006225381292948073
% es.normE (V/m) @ t=0.28
20.022648308537686
% es.EX (V/m) @ t=0.28
-9.455835993856056
% es.EY (V/m) @ t=0.28
7.586511268944985
% es.EZ (V/m) @ t=0.28
9.094385890167526
% es.tEX (V/m) @ t=0.28
-9.455835993856056
% es.tEY (V/m) @ t=0.28
0
% es.tEZ (V/m) @ t=0.28
9.094385890167501
% es.Ex (V/m) @ t=0.28
-9.455835993856056
% es.Ey (V/m) @ t=0.28
7.586511268944985
% es.Ez (V/m) @ t=0.28
9.094385890167526
% es.tEx (V/m) @ t=0.28
-9.455835993856056
% es.tEy (V/m) @ t=0.28
0
% es.tEz (V/m) @ t=0.28
9.094385890167501
% V (V) @ t=0.28
0.006284020662631616
% es.normE (V/m) @ t=0.3
20.221098303933765
% es.EX (V/m) @ t=0.3
-9.549527273739486
% es.EY (V/m) @ t=0.3
7.661692023850133
% es.EZ (V/m) @ t=0.3
9.184555561136673
% es.tEX (V/m) @ t=0.3
-9.549527273739479
% es.tEY (V/m) @ t=0.3
0
% es.tEZ (V/m) @ t=0.3
9.184555561136676
% es.Ex (V/m) @ t=0.3
-9.549527273739486
% es.Ey (V/m) @ t=0.3
7.661692023850133
% es.Ez (V/m) @ t=0.3
9.184555561136673
% es.tEx (V/m) @ t=0.3
-9.549527273739479
% es.tEy (V/m) @ t=0.3
0
% es.tEz (V/m) @ t=0.3
9.184555561136676
% V (V) @ t=0.3
0.006346300873020924
% es.normE (V/m) @ t=0.32
20.419548299430872
% es.EX (V/m) @ t=0.32
-9.643218553622887
% es.EY (V/m) @ t=0.32
7.7368727787552345
% es.EZ (V/m) @ t=0.32
9.274725232105784
% es.tEX (V/m) @ t=0.32
-9.643218553622912
% es.tEY (V/m) @ t=0.32
0
% es.tEZ (V/m) @ t=0.32
9.274725232105794
% es.Ex (V/m) @ t=0.32
-9.643218553622887
% es.Ey (V/m) @ t=0.32
7.7368727787552345
% es.Ez (V/m) @ t=0.32
9.274725232105784
% es.tEx (V/m) @ t=0.32
-9.643218553622912
% es.tEy (V/m) @ t=0.32
0
% es.tEz (V/m) @ t=0.32
9.274725232105794
% V (V) @ t=0.32
0.006408581083410234
% es.normE (V/m) @ t=0.34
20.61799829502619
% es.EX (V/m) @ t=0.34
-9.736909833506331
% es.EY (V/m) @ t=0.34
7.812053533660343
% es.EZ (V/m) @ t=0.34
9.364894903074887
% es.tEX (V/m) @ t=0.34
-9.736909833506353
% es.tEY (V/m) @ t=0.34
0
% es.tEZ (V/m) @ t=0.34
9.364894903074884
% es.Ex (V/m) @ t=0.34
-9.736909833506331
% es.Ey (V/m) @ t=0.34
7.812053533660343
% es.Ez (V/m) @ t=0.34
9.364894903074887
% es.tEx (V/m) @ t=0.34
-9.736909833506353
% es.tEy (V/m) @ t=0.34
0
% es.tEz (V/m) @ t=0.34
9.364894903074884
% V (V) @ t=0.34
0.006470861293799542
% es.normE (V/m) @ t=0.36
20.816448290716885
% es.EX (V/m) @ t=0.36
-9.830601113389726
% es.EY (V/m) @ t=0.36
7.887234288565455
% es.EZ (V/m) @ t=0.36
9.455064574043963
% es.tEX (V/m) @ t=0.36
-9.8306011133897
% es.tEY (V/m) @ t=0.36
0
% es.tEZ (V/m) @ t=0.36
9.455064574044002
% es.Ex (V/m) @ t=0.36
-9.830601113389726
% es.Ey (V/m) @ t=0.36
7.887234288565455
% es.Ez (V/m) @ t=0.36
9.455064574043963
% es.tEx (V/m) @ t=0.36
-9.8306011133897
% es.tEy (V/m) @ t=0.36
0
% es.tEz (V/m) @ t=0.36
9.455064574044002
% V (V) @ t=0.36
0.00653314150418885
% es.normE (V/m) @ t=0.38
21.014898286500333
% es.EX (V/m) @ t=0.38
-9.924292393273177
% es.EY (V/m) @ t=0.38
7.962415043470617
% es.EZ (V/m) @ t=0.38
9.545234245013148
% es.tEX (V/m) @ t=0.38
-9.924292393273156
% es.tEY (V/m) @ t=0.38
0
% es.tEZ (V/m) @ t=0.38
9.545234245013148
% es.Ex (V/m) @ t=0.38
-9.924292393273177
% es.Ey (V/m) @ t=0.38
7.962415043470617
% es.Ez (V/m) @ t=0.38
9.545234245013148
% es.tEx (V/m) @ t=0.38
-9.924292393273156
% es.tEy (V/m) @ t=0.38
0
% es.tEz (V/m) @ t=0.38
9.545234245013148
% V (V) @ t=0.38
0.006595421714578158
% es.normE (V/m) @ t=0.4
21.213348282373737
% es.EX (V/m) @ t=0.4
-10.017983673156579
% es.EY (V/m) @ t=0.4
8.037595798375698
% es.EZ (V/m) @ t=0.4
9.635403915982224
% es.tEX (V/m) @ t=0.4
-10.017983673156571
% es.tEY (V/m) @ t=0.4
0
% es.tEZ (V/m) @ t=0.4
9.635403915982238
% es.Ex (V/m) @ t=0.4
-10.017983673156579
% es.Ey (V/m) @ t=0.4
8.037595798375698
% es.Ez (V/m) @ t=0.4
9.635403915982224
% es.tEx (V/m) @ t=0.4
-10.017983673156571
% es.tEy (V/m) @ t=0.4
0
% es.tEz (V/m) @ t=0.4
9.635403915982238
% V (V) @ t=0.4
0.006657701924967467
% es.normE (V/m) @ t=0.42
21.411798278334757
% es.EX (V/m) @ t=0.42
-10.111674953040001
% es.EY (V/m) @ t=0.42
8.112776553280863
% es.EZ (V/m) @ t=0.42
9.725573586951338
% es.tEX (V/m) @ t=0.42
-10.111674953039987
% es.tEY (V/m) @ t=0.42
0
% es.tEZ (V/m) @ t=0.42
9.725573586951356
% es.Ex (V/m) @ t=0.42
-10.111674953040001
% es.Ey (V/m) @ t=0.42
8.112776553280863
% es.Ez (V/m) @ t=0.42
9.725573586951338
% es.tEx (V/m) @ t=0.42
-10.111674953039987
% es.tEy (V/m) @ t=0.42
0
% es.tEz (V/m) @ t=0.42
9.725573586951356
% V (V) @ t=0.42
0.0067199821353567755
% es.normE (V/m) @ t=0.44
21.61024827438094
% es.EX (V/m) @ t=0.44
-10.20536623292341
% es.EY (V/m) @ t=0.44
8.187957308185961
% es.EZ (V/m) @ t=0.44
9.815743257920484
% es.tEX (V/m) @ t=0.44
-10.20536623292341
% es.tEY (V/m) @ t=0.44
0
% es.tEZ (V/m) @ t=0.44
9.815743257920445
% es.Ex (V/m) @ t=0.44
-10.20536623292341
% es.Ey (V/m) @ t=0.44
8.187957308185961
% es.Ez (V/m) @ t=0.44
9.815743257920484
% es.tEx (V/m) @ t=0.44
-10.20536623292341
% es.tEy (V/m) @ t=0.44
0
% es.tEz (V/m) @ t=0.44
9.815743257920445
% V (V) @ t=0.44
0.0067822623457460835
% es.normE (V/m) @ t=0.46
21.80869827050993
% es.EX (V/m) @ t=0.46
-10.299057512806854
% es.EY (V/m) @ t=0.46
8.263138063091077
% es.EZ (V/m) @ t=0.46
9.905912928889585
% es.tEX (V/m) @ t=0.46
-10.299057512806861
% es.tEY (V/m) @ t=0.46
0
% es.tEZ (V/m) @ t=0.46
9.905912928889563
% es.Ex (V/m) @ t=0.46
-10.299057512806854
% es.Ey (V/m) @ t=0.46
8.263138063091077
% es.Ez (V/m) @ t=0.46
9.905912928889585
% es.tEx (V/m) @ t=0.46
-10.299057512806861
% es.tEy (V/m) @ t=0.46
0
% es.tEz (V/m) @ t=0.46
9.905912928889563
% V (V) @ t=0.46
0.006844542556135392
% es.normE (V/m) @ t=0.48
22.007148266719504
% es.EX (V/m) @ t=0.48
-10.392748792690263
% es.EY (V/m) @ t=0.48
8.338318817996175
% es.EZ (V/m) @ t=0.48
9.996082599858685
% es.tEX (V/m) @ t=0.48
-10.392748792690256
% es.tEY (V/m) @ t=0.48
0
% es.tEZ (V/m) @ t=0.48
9.996082599858681
% es.Ex (V/m) @ t=0.48
-10.392748792690263
% es.Ey (V/m) @ t=0.48
8.338318817996175
% es.Ez (V/m) @ t=0.48
9.996082599858685
% es.tEx (V/m) @ t=0.48
-10.392748792690256
% es.tEy (V/m) @ t=0.48
0
% es.tEz (V/m) @ t=0.48
9.996082599858681
% V (V) @ t=0.48
0.006906822766524701
% es.normE (V/m) @ t=0.5
22.205598263007577
% es.EX (V/m) @ t=0.5
-10.486440072573693
% es.EY (V/m) @ t=0.5
8.413499572901333
% es.EZ (V/m) @ t=0.5
10.086252270827817
% es.tEX (V/m) @ t=0.5
-10.486440072573686
% es.tEY (V/m) @ t=0.5
0
% es.tEZ (V/m) @ t=0.5
10.086252270827828
% es.Ex (V/m) @ t=0.5
-10.486440072573693
% es.Ey (V/m) @ t=0.5
8.413499572901333
% es.Ez (V/m) @ t=0.5
10.086252270827817
% es.tEx (V/m) @ t=0.5
-10.486440072573686
% es.tEy (V/m) @ t=0.5
0
% es.tEz (V/m) @ t=0.5
10.086252270827828
% V (V) @ t=0.5
0.00696910297691401
% es.normE (V/m) @ t=0.52
22.404048259371866
% es.EX (V/m) @ t=0.52
-10.580131352457094
% es.EY (V/m) @ t=0.52
8.488680327806424
% es.EZ (V/m) @ t=0.52
10.176421941796907
% es.tEX (V/m) @ t=0.52
-10.58013135245708
% es.tEY (V/m) @ t=0.52
0
% es.tEZ (V/m) @ t=0.52
10.176421941796917
% es.Ex (V/m) @ t=0.52
-10.580131352457094
% es.Ey (V/m) @ t=0.52
8.488680327806424
% es.Ez (V/m) @ t=0.52
10.176421941796907
% es.tEx (V/m) @ t=0.52
-10.58013135245708
% es.tEy (V/m) @ t=0.52
0
% es.tEz (V/m) @ t=0.52
10.176421941796917
% V (V) @ t=0.52
0.007031383187303317
% es.normE (V/m) @ t=0.54
22.60249825581056
% es.EX (V/m) @ t=0.54
-10.673822632340503
% es.EY (V/m) @ t=0.54
8.56386108271155
% es.EZ (V/m) @ t=0.54
10.266591612765993
% es.tEX (V/m) @ t=0.54
-10.673822632340496
% es.tEY (V/m) @ t=0.54
0
% es.tEZ (V/m) @ t=0.54
10.266591612765978
% es.Ex (V/m) @ t=0.54
-10.673822632340503
% es.Ey (V/m) @ t=0.54
8.56386108271155
% es.Ez (V/m) @ t=0.54
10.266591612765993
% es.tEx (V/m) @ t=0.54
-10.673822632340496
% es.tEy (V/m) @ t=0.54
0
% es.tEz (V/m) @ t=0.54
10.266591612765978
% V (V) @ t=0.54
0.007093663397692627
% es.normE (V/m) @ t=0.56
22.820489220593743
% es.EX (V/m) @ t=0.56
-10.776818385801157
% es.EY (V/m) @ t=0.56
8.646476300543458
% es.EZ (V/m) @ t=0.56
10.36554837841918
% es.tEX (V/m) @ t=0.56
-10.776818385801164
% es.tEY (V/m) @ t=0.56
0
% es.tEZ (V/m) @ t=0.56
10.365548378419192
% es.Ex (V/m) @ t=0.56
-10.776818385801157
% es.Ey (V/m) @ t=0.56
8.646476300543458
% es.Ez (V/m) @ t=0.56
10.36554837841918
% es.tEx (V/m) @ t=0.56
-10.776818385801164
% es.tEy (V/m) @ t=0.56
0
% es.tEz (V/m) @ t=0.56
10.365548378419192
% V (V) @ t=0.56
0.007162083096610768
% es.normE (V/m) @ t=0.58
23.04137790757546
% es.EX (V/m) @ t=0.58
-10.881193895643783
% es.EY (V/m) @ t=0.58
8.730193971682812
% es.EZ (V/m) @ t=0.58
10.465808178560874
% es.tEX (V/m) @ t=0.58
-10.881193895643769
% es.tEY (V/m) @ t=0.58
0
% es.tEZ (V/m) @ t=0.58
10.465808178560906
% es.Ex (V/m) @ t=0.58
-10.881193895643783
% es.Ey (V/m) @ t=0.58
8.730193971682812
% es.Ez (V/m) @ t=0.58
10.465808178560874
% es.tEx (V/m) @ t=0.58
-10.881193895643769
% es.tEy (V/m) @ t=0.58
0
% es.tEz (V/m) @ t=0.58
10.465808178560906
% V (V) @ t=0.58
0.007231413217640308
% es.normE (V/m) @ t=0.6
23.26226659499359
% es.EX (V/m) @ t=0.6
-10.98556940548638
% es.EY (V/m) @ t=0.6
8.813911642822141
% es.EZ (V/m) @ t=0.6
10.566067978702613
% es.tEX (V/m) @ t=0.6
-10.98556940548638
% es.tEY (V/m) @ t=0.6
0
% es.tEZ (V/m) @ t=0.6
10.56606797870262
% es.Ex (V/m) @ t=0.6
-10.98556940548638
% es.Ey (V/m) @ t=0.6
8.813911642822141
% es.Ez (V/m) @ t=0.6
10.566067978702613
% es.tEx (V/m) @ t=0.6
-10.98556940548638
% es.tEy (V/m) @ t=0.6
0
% es.tEz (V/m) @ t=0.6
10.56606797870262
% V (V) @ t=0.6
0.007300743338669845
% es.normE (V/m) @ t=0.62
23.483155282835742
% es.EX (V/m) @ t=0.62
-11.089944915328942
% es.EY (V/m) @ t=0.62
8.897629313961467
% es.EZ (V/m) @ t=0.62
10.66632777884428
% es.tEX (V/m) @ t=0.62
-11.089944915328935
% es.tEY (V/m) @ t=0.62
0
% es.tEZ (V/m) @ t=0.62
10.666327778844277
% es.Ex (V/m) @ t=0.62
-11.089944915328942
% es.Ey (V/m) @ t=0.62
8.897629313961467
% es.Ez (V/m) @ t=0.62
10.66632777884428
% es.tEx (V/m) @ t=0.62
-11.089944915328935
% es.tEy (V/m) @ t=0.62
0
% es.tEz (V/m) @ t=0.62
10.666327778844277
% V (V) @ t=0.62
0.007370073459699384
% es.normE (V/m) @ t=0.64
23.704043971090258
% es.EX (V/m) @ t=0.64
-11.19432042517154
% es.EY (V/m) @ t=0.64
8.981346985100831
% es.EZ (V/m) @ t=0.64
10.766587578986016
% es.tEX (V/m) @ t=0.64
-11.194320425171561
% es.tEY (V/m) @ t=0.64
0
% es.tEZ (V/m) @ t=0.64
10.766587578985991
% es.Ex (V/m) @ t=0.64
-11.19432042517154
% es.Ey (V/m) @ t=0.64
8.981346985100831
% es.Ez (V/m) @ t=0.64
10.766587578986016
% es.tEx (V/m) @ t=0.64
-11.194320425171561
% es.tEy (V/m) @ t=0.64
0
% es.tEz (V/m) @ t=0.64
10.766587578985991
% V (V) @ t=0.64
0.007439403580728924
% es.normE (V/m) @ t=0.66
23.924932659745572
% es.EX (V/m) @ t=0.66
-11.29869593501418
% es.EY (V/m) @ t=0.66
9.065064656240182
% es.EZ (V/m) @ t=0.66
10.86684737912774
% es.tEX (V/m) @ t=0.66
-11.298695935014152
% es.tEY (V/m) @ t=0.66
0
% es.tEZ (V/m) @ t=0.66
10.866847379127734
% es.Ex (V/m) @ t=0.66
-11.29869593501418
% es.Ey (V/m) @ t=0.66
9.065064656240182
% es.Ez (V/m) @ t=0.66
10.86684737912774
% es.tEx (V/m) @ t=0.66
-11.298695935014152
% es.tEy (V/m) @ t=0.66
0
% es.tEz (V/m) @ t=0.66
10.866847379127734
% V (V) @ t=0.66
0.007508733701758462
% es.normE (V/m) @ t=0.68
24.145821348790683
% es.EX (V/m) @ t=0.68
-11.403071444856757
% es.EY (V/m) @ t=0.68
9.148782327379521
% es.EZ (V/m) @ t=0.68
10.967107179269451
% es.tEX (V/m) @ t=0.68
-11.40307144485675
% es.tEY (V/m) @ t=0.68
0
% es.tEZ (V/m) @ t=0.68
10.967107179269448
% es.Ex (V/m) @ t=0.68
-11.403071444856757
% es.Ey (V/m) @ t=0.68
9.148782327379521
% es.Ez (V/m) @ t=0.68
10.967107179269451
% es.tEx (V/m) @ t=0.68
-11.40307144485675
% es.tEy (V/m) @ t=0.68
0
% es.tEz (V/m) @ t=0.68
10.967107179269448
% V (V) @ t=0.68
0.007578063822788
% es.normE (V/m) @ t=0.7
24.366710038215064
% es.EX (V/m) @ t=0.7
-11.507446954699361
% es.EY (V/m) @ t=0.7
9.232499998518875
% es.EZ (V/m) @ t=0.7
11.067366979411169
% es.tEX (V/m) @ t=0.7
-11.507446954699383
% es.tEY (V/m) @ t=0.7
0
% es.tEZ (V/m) @ t=0.7
11.06736697941119
% es.Ex (V/m) @ t=0.7
-11.507446954699361
% es.Ey (V/m) @ t=0.7
9.232499998518875
% es.Ez (V/m) @ t=0.7
11.067366979411169
% es.tEx (V/m) @ t=0.7
-11.507446954699383
% es.tEy (V/m) @ t=0.7
0
% es.tEz (V/m) @ t=0.7
11.06736697941119
% V (V) @ t=0.7
0.00764739394381754
% es.normE (V/m) @ t=0.72
24.587598728008416
% es.EX (V/m) @ t=0.72
-11.611822464541959
% es.EY (V/m) @ t=0.72
9.316217669658254
% es.EZ (V/m) @ t=0.72
11.167626779552883
% es.tEX (V/m) @ t=0.72
-11.611822464541955
% es.tEY (V/m) @ t=0.72
0
% es.tEZ (V/m) @ t=0.72
11.167626779552904
% es.Ex (V/m) @ t=0.72
-11.611822464541959
% es.Ey (V/m) @ t=0.72
9.316217669658254
% es.Ez (V/m) @ t=0.72
11.167626779552883
% es.tEx (V/m) @ t=0.72
-11.611822464541955
% es.tEy (V/m) @ t=0.72
0
% es.tEz (V/m) @ t=0.72
11.167626779552904
% V (V) @ t=0.72
0.0077167240648470786
% es.normE (V/m) @ t=0.74
24.808487418160965
% es.EX (V/m) @ t=0.74
-11.716197974384563
% es.EY (V/m) @ t=0.74
9.399935340797622
% es.EZ (V/m) @ t=0.74
11.26788657969459
% es.tEX (V/m) @ t=0.74
-11.716197974384556
% es.tEY (V/m) @ t=0.74
0
% es.tEZ (V/m) @ t=0.74
11.26788657969459
% es.Ex (V/m) @ t=0.74
-11.716197974384563
% es.Ey (V/m) @ t=0.74
9.399935340797622
% es.Ez (V/m) @ t=0.74
11.26788657969459
% es.tEx (V/m) @ t=0.74
-11.716197974384556
% es.tEy (V/m) @ t=0.74
0
% es.tEz (V/m) @ t=0.74
11.26788657969459
% V (V) @ t=0.74
0.007786054185876617
% es.normE (V/m) @ t=0.76
25.02937610866308
% es.EX (V/m) @ t=0.76
-11.820573484227182
% es.EY (V/m) @ t=0.76
9.483653011936958
% es.EZ (V/m) @ t=0.76
11.368146379836254
% es.tEX (V/m) @ t=0.76
-11.820573484227172
% es.tEY (V/m) @ t=0.76
0
% es.tEZ (V/m) @ t=0.76
11.368146379836247
% es.Ex (V/m) @ t=0.76
-11.820573484227182
% es.Ey (V/m) @ t=0.76
9.483653011936958
% es.Ez (V/m) @ t=0.76
11.368146379836254
% es.tEx (V/m) @ t=0.76
-11.820573484227172
% es.tEy (V/m) @ t=0.76
0
% es.tEz (V/m) @ t=0.76
11.368146379836247
% V (V) @ t=0.76
0.007855384306906157
% es.normE (V/m) @ t=0.78
25.250264799505764
% es.EX (V/m) @ t=0.78
-11.924948994069823
% es.EY (V/m) @ t=0.78
9.56737068307632
% es.EZ (V/m) @ t=0.78
11.468406179978018
% es.tEX (V/m) @ t=0.78
-11.924948994069823
% es.tEY (V/m) @ t=0.78
0
% es.tEZ (V/m) @ t=0.78
11.468406179978018
% es.Ex (V/m) @ t=0.78
-11.924948994069823
% es.Ey (V/m) @ t=0.78
9.56737068307632
% es.Ez (V/m) @ t=0.78
11.468406179978018
% es.tEx (V/m) @ t=0.78
-11.924948994069823
% es.tEy (V/m) @ t=0.78
0
% es.tEz (V/m) @ t=0.78
11.468406179978018
% V (V) @ t=0.78
0.007924714427935697
% es.normE (V/m) @ t=0.8
25.471153490679914
% es.EX (V/m) @ t=0.8
-12.029324503912363
% es.EY (V/m) @ t=0.8
9.651088354215613
% es.EZ (V/m) @ t=0.8
11.568665980119686
% es.tEX (V/m) @ t=0.8
-12.029324503912349
% es.tEY (V/m) @ t=0.8
0
% es.tEZ (V/m) @ t=0.8
11.568665980119704
% es.Ex (V/m) @ t=0.8
-12.029324503912363
% es.Ey (V/m) @ t=0.8
9.651088354215613
% es.Ez (V/m) @ t=0.8
11.568665980119686
% es.tEx (V/m) @ t=0.8
-12.029324503912349
% es.tEy (V/m) @ t=0.8
0
% es.tEz (V/m) @ t=0.8
11.568665980119704
% V (V) @ t=0.8
0.007994044548965233
% es.normE (V/m) @ t=0.82
25.700289705445222
% es.EX (V/m) @ t=0.82
-12.137567044972343
% es.EY (V/m) @ t=0.82
9.73791981079616
% es.EZ (V/m) @ t=0.82
11.672704315177779
% es.tEX (V/m) @ t=0.82
-12.137567044972336
% es.tEY (V/m) @ t=0.82
0
% es.tEZ (V/m) @ t=0.82
11.672704315177782
% es.Ex (V/m) @ t=0.82
-12.137567044972343
% es.Ey (V/m) @ t=0.82
9.73791981079616
% es.Ez (V/m) @ t=0.82
11.672704315177779
% es.tEx (V/m) @ t=0.82
-12.137567044972336
% es.tEy (V/m) @ t=0.82
0
% es.tEz (V/m) @ t=0.82
11.672704315177782
% V (V) @ t=0.82
0.008065960683818022
% es.normE (V/m) @ t=0.84
25.947675920044468
% es.EX (V/m) @ t=0.84
-12.254366496519268
% es.EY (V/m) @ t=0.84
9.831641406555175
% es.EZ (V/m) @ t=0.84
11.785103737393893
% es.tEX (V/m) @ t=0.84
-12.254366496519264
% es.tEY (V/m) @ t=0.84
0
% es.tEZ (V/m) @ t=0.84
11.785103737393882
% es.Ex (V/m) @ t=0.84
-12.254366496519268
% es.Ey (V/m) @ t=0.84
9.831641406555175
% es.Ez (V/m) @ t=0.84
11.785103737393893
% es.tEx (V/m) @ t=0.84
-12.254366496519264
% es.tEy (V/m) @ t=0.84
0
% es.tEz (V/m) @ t=0.84
11.785103737393882
% V (V) @ t=0.84
0.008143599112482183
% es.normE (V/m) @ t=0.86
26.195062134762473
% es.EX (V/m) @ t=0.86
-12.371165948066142
% es.EY (V/m) @ t=0.86
9.92536300231421
% es.EZ (V/m) @ t=0.86
11.897503159609986
% es.tEX (V/m) @ t=0.86
-12.371165948066118
% es.tEY (V/m) @ t=0.86
0
% es.tEZ (V/m) @ t=0.86
11.897503159609983
% es.Ex (V/m) @ t=0.86
-12.371165948066142
% es.Ey (V/m) @ t=0.86
9.92536300231421
% es.Ez (V/m) @ t=0.86
11.897503159609986
% es.tEx (V/m) @ t=0.86
-12.371165948066118
% es.tEy (V/m) @ t=0.86
0
% es.tEz (V/m) @ t=0.86
11.897503159609983
% V (V) @ t=0.86
0.008221237541146348
% es.normE (V/m) @ t=0.88
26.442448349595935
% es.EX (V/m) @ t=0.88
-12.487965399613067
% es.EY (V/m) @ t=0.88
10.019084598073263
% es.EZ (V/m) @ t=0.88
12.009902581826118
% es.tEX (V/m) @ t=0.88
-12.487965399613067
% es.tEY (V/m) @ t=0.88
0
% es.tEZ (V/m) @ t=0.88
12.009902581826111
% es.Ex (V/m) @ t=0.88
-12.487965399613067
% es.Ey (V/m) @ t=0.88
10.019084598073263
% es.Ez (V/m) @ t=0.88
12.009902581826118
% es.tEx (V/m) @ t=0.88
-12.487965399613067
% es.tEy (V/m) @ t=0.88
0
% es.tEz (V/m) @ t=0.88
12.009902581826111
% V (V) @ t=0.88
0.00829887596981051
% es.normE (V/m) @ t=0.9
26.689834564541577
% es.EX (V/m) @ t=0.9
-12.604764851159956
% es.EY (V/m) @ t=0.9
10.112806193832295
% es.EZ (V/m) @ t=0.9
12.122302004042204
% es.tEX (V/m) @ t=0.9
-12.604764851159942
% es.tEY (V/m) @ t=0.9
0
% es.tEZ (V/m) @ t=0.9
12.122302004042183
% es.Ex (V/m) @ t=0.9
-12.604764851159956
% es.Ey (V/m) @ t=0.9
10.112806193832295
% es.Ez (V/m) @ t=0.9
12.122302004042204
% es.tEx (V/m) @ t=0.9
-12.604764851159942
% es.tEy (V/m) @ t=0.9
0
% es.tEz (V/m) @ t=0.9
12.122302004042183
% V (V) @ t=0.9
0.008376514398474673
% es.normE (V/m) @ t=0.92
26.93722077959633
% es.EX (V/m) @ t=0.92
-12.721564302706838
% es.EY (V/m) @ t=0.92
10.20652778959138
% es.EZ (V/m) @ t=0.92
12.234701426258255
% es.tEX (V/m) @ t=0.92
-12.721564302706824
% es.tEY (V/m) @ t=0.92
0
% es.tEZ (V/m) @ t=0.92
12.234701426258255
% es.Ex (V/m) @ t=0.92
-12.721564302706838
% es.Ey (V/m) @ t=0.92
10.20652778959138
% es.Ez (V/m) @ t=0.92
12.234701426258255
% es.tEx (V/m) @ t=0.92
-12.721564302706824
% es.tEy (V/m) @ t=0.92
0
% es.tEz (V/m) @ t=0.92
12.234701426258255
% V (V) @ t=0.92
0.008454152827138838
% es.normE (V/m) @ t=0.94
27.184606994757246
% es.EX (V/m) @ t=0.94
-12.838363754253713
% es.EY (V/m) @ t=0.94
10.300249385350398
% es.EZ (V/m) @ t=0.94
12.347100848474373
% es.tEX (V/m) @ t=0.94
-12.83836375425372
% es.tEY (V/m) @ t=0.94
0
% es.tEZ (V/m) @ t=0.94
12.347100848474383
% es.Ex (V/m) @ t=0.94
-12.838363754253713
% es.Ey (V/m) @ t=0.94
10.300249385350398
% es.Ez (V/m) @ t=0.94
12.347100848474373
% es.tEx (V/m) @ t=0.94
-12.83836375425372
% es.tEy (V/m) @ t=0.94
0
% es.tEz (V/m) @ t=0.94
12.347100848474383
% V (V) @ t=0.94
0.008531791255803
% es.normE (V/m) @ t=0.96
27.43199321002148
% es.EX (V/m) @ t=0.96
-12.955163205800673
% es.EY (V/m) @ t=0.96
10.393970981109419
% es.EZ (V/m) @ t=0.96
12.459500270690487
% es.tEX (V/m) @ t=0.96
-12.955163205800666
% es.tEY (V/m) @ t=0.96
0
% es.tEZ (V/m) @ t=0.96
12.459500270690512
% es.Ex (V/m) @ t=0.96
-12.955163205800673
% es.Ey (V/m) @ t=0.96
10.393970981109419
% es.Ez (V/m) @ t=0.96
12.459500270690487
% es.tEx (V/m) @ t=0.96
-12.955163205800666
% es.tEy (V/m) @ t=0.96
0
% es.tEz (V/m) @ t=0.96
12.459500270690512
% V (V) @ t=0.96
0.008609429684467164
% es.normE (V/m) @ t=0.98
27.679379425386188
% es.EX (V/m) @ t=0.98
-13.071962657347527
% es.EY (V/m) @ t=0.98
10.48769257686845
% es.EZ (V/m) @ t=0.98
12.571899692906609
% es.tEX (V/m) @ t=0.98
-13.071962657347541
% es.tEY (V/m) @ t=0.98
0
% es.tEZ (V/m) @ t=0.98
12.571899692906612
% es.Ex (V/m) @ t=0.98
-13.071962657347527
% es.Ey (V/m) @ t=0.98
10.48769257686845
% es.Ez (V/m) @ t=0.98
12.571899692906609
% es.tEx (V/m) @ t=0.98
-13.071962657347541
% es.tEy (V/m) @ t=0.98
0
% es.tEz (V/m) @ t=0.98
12.571899692906612
% V (V) @ t=0.98
0.008687068113131326
% es.normE (V/m) @ t=1
27.92676564084872
% es.EX (V/m) @ t=1
-13.188762108894409
% es.EY (V/m) @ t=1
10.581414172627507
% es.EZ (V/m) @ t=1
12.684299115122712
% es.tEX (V/m) @ t=1
-13.188762108894423
% es.tEY (V/m) @ t=1
0
% es.tEZ (V/m) @ t=1
12.684299115122712
% es.Ex (V/m) @ t=1
-13.188762108894409
% es.Ey (V/m) @ t=1
10.581414172627507
% es.Ez (V/m) @ t=1
12.684299115122712
% es.tEx (V/m) @ t=1
-13.188762108894423
% es.tEy (V/m) @ t=1
0
% es.tEz (V/m) @ t=1
12.684299115122712
% V (V) @ t=1
0.008764706541795491
% es.normE (V/m) @ t=1.02
28.174151856406535
% es.EX (V/m) @ t=1.02
-13.30556156044134
% es.EY (V/m) @ t=1.02
10.67513576838655
% es.EZ (V/m) @ t=1.02
12.796698537338784
% es.tEX (V/m) @ t=1.02
-13.305561560441348
% es.tEY (V/m) @ t=1.02
0
% es.tEZ (V/m) @ t=1.02
12.796698537338784
% es.Ex (V/m) @ t=1.02
-13.30556156044134
% es.Ey (V/m) @ t=1.02
10.67513576838655
% es.Ez (V/m) @ t=1.02
12.796698537338784
% es.tEx (V/m) @ t=1.02
-13.305561560441348
% es.tEy (V/m) @ t=1.02
0
% es.tEz (V/m) @ t=1.02
12.796698537338784
% V (V) @ t=1.02
0.008842344970459654
% es.normE (V/m) @ t=1.04
28.42153807205711
% es.EX (V/m) @ t=1.04
-13.42236101198823
% es.EY (V/m) @ t=1.04
10.768857364145596
% es.EZ (V/m) @ t=1.04
12.909097959554934
% es.tEX (V/m) @ t=1.04
-13.42236101198825
% es.tEY (V/m) @ t=1.04
0
% es.tEZ (V/m) @ t=1.04
12.909097959554913
% es.Ex (V/m) @ t=1.04
-13.42236101198823
% es.Ey (V/m) @ t=1.04
10.768857364145596
% es.Ez (V/m) @ t=1.04
12.909097959554934
% es.tEx (V/m) @ t=1.04
-13.42236101198825
% es.tEy (V/m) @ t=1.04
0
% es.tEz (V/m) @ t=1.04
12.909097959554913
% V (V) @ t=1.04