% Model:              1 neuron.mph
% Version:            COMSOL 6.0.0.405
% Date:               Mar 16 2023, 17:09
% Dimension:          0
% Nodes:              14017
% Expressions:        14017
% Description:        Electric field norm, Electric field, X component, Electric field, Y component, Electric field, Z component, Tangential electric field, X component, Tangential electric field, Y component, Tangential electric field, Z component, Electric field, x component, Electric field, y component, Electric field, z component, Tangential electric field, x component, Tangential electric field, y component, Tangential electric field, z component, Electric potential
% Length unit:        mm
% x
1.66
% y
12.2
% z
1.33
% es.normE (V/m) @ t=0
7.606111405147571
% es.EX (V/m) @ t=0
-4.226263572963337
% es.EY (V/m) @ t=0
-0.4561884719498084
% es.EZ (V/m) @ t=0
5.658937806079135
% es.tEX (V/m) @ t=0
-4.226263572963346
% es.tEY (V/m) @ t=0
0
% es.tEZ (V/m) @ t=0
5.658937806079124
% es.Ex (V/m) @ t=0
-4.226263572963337
% es.Ey (V/m) @ t=0
-0.4561884719498084
% es.Ez (V/m) @ t=0
5.658937806079135
% es.tEx (V/m) @ t=0
-4.226263572963346
% es.tEy (V/m) @ t=0
0
% es.tEz (V/m) @ t=0
5.658937806079124
% V (V) @ t=0
0.006246633701481955
% es.normE (V/m) @ t=0.02
6.569540667756007
% es.EX (V/m) @ t=0.02
-3.6503028943779094
% es.EY (V/m) @ t=0.02
-0.39401850752527157
% es.EZ (V/m) @ t=0.02
4.887730411462158
% es.tEX (V/m) @ t=0.02
-3.6503028943779086
% es.tEY (V/m) @ t=0.02
0
% es.tEZ (V/m) @ t=0.02
4.88773041146215
% es.Ex (V/m) @ t=0.02
-3.6503028943779094
% es.Ey (V/m) @ t=0.02
-0.39401850752527157
% es.Ez (V/m) @ t=0.02
4.887730411462158
% es.tEx (V/m) @ t=0.02
-3.6503028943779086
% es.tEy (V/m) @ t=0.02
0
% es.tEz (V/m) @ t=0.02
4.88773041146215
% V (V) @ t=0.02
0.005395334331432605
% es.normE (V/m) @ t=0.04
6.629964030531016
% es.EX (V/m) @ t=0.04
-3.683876570581786
% es.EY (V/m) @ t=0.04
-0.39764248612387343
% es.EZ (V/m) @ t=0.04
4.93268531773602
% es.tEX (V/m) @ t=0.04
-3.6838765705817886
% es.tEY (V/m) @ t=0.04
0
% es.tEZ (V/m) @ t=0.04
4.932685317736016
% es.Ex (V/m) @ t=0.04
-3.683876570581786
% es.Ey (V/m) @ t=0.04
-0.39764248612387343
% es.Ez (V/m) @ t=0.04
4.93268531773602
% es.tEx (V/m) @ t=0.04
-3.6838765705817886
% es.tEy (V/m) @ t=0.04
0
% es.tEz (V/m) @ t=0.04
4.932685317736016
% V (V) @ t=0.04
0.005444957909552979
% es.normE (V/m) @ t=0.06
6.690935458187187
% es.EX (V/m) @ t=0.06
-3.7177547435377933
% es.EY (V/m) @ t=0.06
-0.4012993625804935
% es.EZ (V/m) @ t=0.06
4.978047996041356
% es.tEX (V/m) @ t=0.06
-3.717754743537796
% es.tEY (V/m) @ t=0.06
0
% es.tEZ (V/m) @ t=0.06
4.9780479960413455
% es.Ex (V/m) @ t=0.06
-3.7177547435377933
% es.Ey (V/m) @ t=0.06
-0.4012993625804935
% es.Ez (V/m) @ t=0.06
4.978047996041356
% es.tEx (V/m) @ t=0.06
-3.717754743537796
% es.tEy (V/m) @ t=0.06
0
% es.tEz (V/m) @ t=0.06
4.9780479960413455
% V (V) @ t=0.06
0.005495031665494139
% es.normE (V/m) @ t=0.08
6.7528294381447465
% es.EX (V/m) @ t=0.08
-3.7521455215039614
% es.EY (V/m) @ t=0.08
-0.4050115724655916
% es.EZ (V/m) @ t=0.08
5.024097053268696
% es.tEX (V/m) @ t=0.08
-3.752145521503964
% es.tEY (V/m) @ t=0.08
0
% es.tEZ (V/m) @ t=0.08
5.0240970532686875
% es.Ex (V/m) @ t=0.08
-3.7521455215039614
% es.Ey (V/m) @ t=0.08
-0.4050115724655916
% es.Ez (V/m) @ t=0.08
5.024097053268696
% es.tEx (V/m) @ t=0.08
-3.752145521503964
% es.tEy (V/m) @ t=0.08
0
% es.tEz (V/m) @ t=0.08
5.0240970532686875
% V (V) @ t=0.08
0.005545863086797977
% es.normE (V/m) @ t=0.1
6.815380810816175
% es.EX (V/m) @ t=0.1
-3.7869015717677357
% es.EY (V/m) @ t=0.1
-0.40876321186878517
% es.EZ (V/m) @ t=0.1
5.070635210682132
% es.tEX (V/m) @ t=0.1
-3.7869015717677454
% es.tEY (V/m) @ t=0.1
0
% es.tEZ (V/m) @ t=0.1
5.070635210682125
% es.Ex (V/m) @ t=0.1
-3.7869015717677357
% es.Ey (V/m) @ t=0.1
-0.40876321186878517
% es.Ez (V/m) @ t=0.1
5.070635210682132
% es.tEx (V/m) @ t=0.1
-3.7869015717677454
% es.tEy (V/m) @ t=0.1
0
% es.tEz (V/m) @ t=0.1
5.070635210682125
% V (V) @ t=0.1
0.005597234405610326
% es.normE (V/m) @ t=0.12
6.877932183487605
% es.EX (V/m) @ t=0.12
-3.821657622031511
% es.EY (V/m) @ t=0.12
-0.4125148512719896
% es.EZ (V/m) @ t=0.12
5.117173368095568
% es.tEX (V/m) @ t=0.12
-3.8216576220315135
% es.tEY (V/m) @ t=0.12
0
% es.tEZ (V/m) @ t=0.12
5.117173368095557
% es.Ex (V/m) @ t=0.12
-3.821657622031511
% es.Ey (V/m) @ t=0.12
-0.4125148512719896
% es.Ez (V/m) @ t=0.12
5.117173368095568
% es.tEx (V/m) @ t=0.12
-3.8216576220315135
% es.tEy (V/m) @ t=0.12
0
% es.tEz (V/m) @ t=0.12
5.117173368095557
% V (V) @ t=0.12
0.005648605724422677
% es.normE (V/m) @ t=0.14
6.941078269053252
% es.EX (V/m) @ t=0.14
-3.856744099772599
% es.EY (V/m) @ t=0.14
-0.41630217654836144
% es.EZ (V/m) @ t=0.14
5.164153998943341
% es.tEX (V/m) @ t=0.14
-3.8567440997726052
% es.tEY (V/m) @ t=0.14
0
% es.tEZ (V/m) @ t=0.14
5.164153998943336
% es.Ex (V/m) @ t=0.14
-3.856744099772599
% es.Ey (V/m) @ t=0.14
-0.41630217654836144
% es.Ez (V/m) @ t=0.14
5.164153998943341
% es.tEx (V/m) @ t=0.14
-3.8567440997726052
% es.tEy (V/m) @ t=0.14
0
% es.tEz (V/m) @ t=0.14
5.164153998943336
% V (V) @ t=0.14
0.005700465505301377
% es.normE (V/m) @ t=0.16
7.006974348331754
% es.EX (V/m) @ t=0.16
-3.893358497109789
% es.EY (V/m) @ t=0.16
-0.4202545157799422
% es.EZ (V/m) @ t=0.16
5.2131806576718045
% es.tEX (V/m) @ t=0.16
-3.893358497109795
% es.tEY (V/m) @ t=0.16
0
% es.tEZ (V/m) @ t=0.16
5.213180657671796
% es.Ex (V/m) @ t=0.16
-3.893358497109789
% es.Ey (V/m) @ t=0.16
-0.4202545157799422
% es.Ez (V/m) @ t=0.16
5.2131806576718045
% es.tEx (V/m) @ t=0.16
-3.893358497109795
% es.tEy (V/m) @ t=0.16
0
% es.tEz (V/m) @ t=0.16
5.213180657671796
% V (V) @ t=0.16
0.005754583968688002
% es.normE (V/m) @ t=0.18
7.072870427610258
% es.EX (V/m) @ t=0.18
-3.929972894446985
% es.EY (V/m) @ t=0.18
-0.42420685501151767
% es.EZ (V/m) @ t=0.18
5.262207316400263
% es.tEX (V/m) @ t=0.18
-3.9299728944469843
% es.tEY (V/m) @ t=0.18
0
% es.tEZ (V/m) @ t=0.18
5.262207316400256
% es.Ex (V/m) @ t=0.18
-3.929972894446985
% es.Ey (V/m) @ t=0.18
-0.42420685501151767
% es.Ez (V/m) @ t=0.18
5.262207316400263
% es.tEx (V/m) @ t=0.18
-3.9299728944469843
% es.tEy (V/m) @ t=0.18
0
% es.tEz (V/m) @ t=0.18
5.262207316400256
% V (V) @ t=0.18
0.005808702432074625
% es.normE (V/m) @ t=0.2
7.138766506888754
% es.EX (V/m) @ t=0.2
-3.966587291784178
% es.EY (V/m) @ t=0.2
-0.4281591942430911
% es.EZ (V/m) @ t=0.2
5.311233975128709
% es.tEX (V/m) @ t=0.2
-3.966587291784184
% es.tEY (V/m) @ t=0.2
0
% es.tEZ (V/m) @ t=0.2
5.311233975128699
% es.Ex (V/m) @ t=0.2
-3.966587291784178
% es.Ey (V/m) @ t=0.2
-0.4281591942430911
% es.Ez (V/m) @ t=0.2
5.311233975128709
% es.tEx (V/m) @ t=0.2
-3.966587291784184
% es.tEy (V/m) @ t=0.2
0
% es.tEz (V/m) @ t=0.2
5.311233975128699
% V (V) @ t=0.2
0.005862820895461249
% es.normE (V/m) @ t=0.22
7.204662586167252
% es.EX (V/m) @ t=0.22
-4.003201689121361
% es.EY (V/m) @ t=0.22
-0.4321115334746488
% es.EZ (V/m) @ t=0.22
5.360260633857164
% es.tEX (V/m) @ t=0.22
-4.00320168912137
% es.tEY (V/m) @ t=0.22
0
% es.tEZ (V/m) @ t=0.22
5.360260633857161
% es.Ex (V/m) @ t=0.22
-4.003201689121361
% es.Ey (V/m) @ t=0.22
-0.4321115334746488
% es.Ez (V/m) @ t=0.22
5.360260633857164
% es.tEx (V/m) @ t=0.22
-4.00320168912137
% es.tEy (V/m) @ t=0.22
0
% es.tEz (V/m) @ t=0.22
5.360260633857161
% V (V) @ t=0.22
0.005916939358847871
% es.normE (V/m) @ t=0.24
7.270558665445774
% es.EX (V/m) @ t=0.24
-4.039816086458546
% es.EY (V/m) @ t=0.24
-0.4360638727062276
% es.EZ (V/m) @ t=0.24
5.409287292585633
% es.tEX (V/m) @ t=0.24
-4.039816086458557
% es.tEY (V/m) @ t=0.24
0
% es.tEZ (V/m) @ t=0.24
5.409287292585627
% es.Ex (V/m) @ t=0.24
-4.039816086458546
% es.Ey (V/m) @ t=0.24
-0.4360638727062276
% es.Ez (V/m) @ t=0.24
5.409287292585633
% es.tEx (V/m) @ t=0.24
-4.039816086458557
% es.tEy (V/m) @ t=0.24
0
% es.tEz (V/m) @ t=0.24
5.409287292585627
% V (V) @ t=0.24
0.005971057822234495
% es.normE (V/m) @ t=0.26
7.336454744724279
% es.EX (V/m) @ t=0.26
-4.076430483795736
% es.EY (V/m) @ t=0.26
-0.4400162119378066
% es.EZ (V/m) @ t=0.26
5.458313951314073
% es.tEX (V/m) @ t=0.26
-4.076430483795739
% es.tEY (V/m) @ t=0.26
0
% es.tEZ (V/m) @ t=0.26
5.4583139513140715
% es.Ex (V/m) @ t=0.26
-4.076430483795736
% es.Ey (V/m) @ t=0.26
-0.4400162119378066
% es.Ez (V/m) @ t=0.26
5.458313951314073
% es.tEx (V/m) @ t=0.26
-4.076430483795739
% es.tEy (V/m) @ t=0.26
0
% es.tEz (V/m) @ t=0.26
5.4583139513140715
% V (V) @ t=0.26
0.006025176285621119
% es.normE (V/m) @ t=0.28
7.405107237925506
% es.EX (V/m) @ t=0.28
-4.114571584641003
% es.EY (V/m) @ t=0.28
-0.4441381997650271
% es.EZ (V/m) @ t=0.28
5.509393364916941
% es.tEX (V/m) @ t=0.28
-4.1145715846410065
% es.tEY (V/m) @ t=0.28
0
% es.tEZ (V/m) @ t=0.28
5.509393364916938
% es.Ex (V/m) @ t=0.28
-4.114571584641003
% es.Ey (V/m) @ t=0.28
-0.4441381997650271
% es.Ez (V/m) @ t=0.28
5.509393364916941
% es.tEx (V/m) @ t=0.28
-4.1145715846410065
% es.tEy (V/m) @ t=0.28
0
% es.tEz (V/m) @ t=0.28
5.509393364916938
% V (V) @ t=0.28
0.006081569994849703
% es.normE (V/m) @ t=0.3
7.4785428825386235
% es.EX (V/m) @ t=0.3
-4.155361944339108
% es.EY (V/m) @ t=0.3
-0.44855457549497246
% es.EZ (V/m) @ t=0.3
5.564034884059642
% es.tEX (V/m) @ t=0.3
-4.155361944339111
% es.tEY (V/m) @ t=0.3
0
% es.tEZ (V/m) @ t=0.3
5.564034884059634
% es.Ex (V/m) @ t=0.3
-4.155361944339108
% es.Ey (V/m) @ t=0.3
-0.44855457549497246
% es.Ez (V/m) @ t=0.3
5.564034884059642
% es.tEx (V/m) @ t=0.3
-4.155361944339111
% es.tEy (V/m) @ t=0.3
0
% es.tEz (V/m) @ t=0.3
5.564034884059634
% V (V) @ t=0.3
0.006141911893859323
% es.normE (V/m) @ t=0.32
7.551978527201717
% es.EX (V/m) @ t=0.32
-4.196152304037234
% es.EY (V/m) @ t=0.32
-0.4529709512249127
% es.EZ (V/m) @ t=0.32
5.618676403202329
% es.tEX (V/m) @ t=0.32
-4.19615230403724
% es.tEY (V/m) @ t=0.32
0
% es.tEZ (V/m) @ t=0.32
5.61867640320232
% es.Ex (V/m) @ t=0.32
-4.196152304037234
% es.Ey (V/m) @ t=0.32
-0.4529709512249127
% es.Ez (V/m) @ t=0.32
5.618676403202329
% es.tEx (V/m) @ t=0.32
-4.19615230403724
% es.tEy (V/m) @ t=0.32
0
% es.tEz (V/m) @ t=0.32
5.61867640320232
% V (V) @ t=0.32
0.006202253792868945
% es.normE (V/m) @ t=0.34
7.625414171913374
% es.EX (V/m) @ t=0.34
-4.236942663735346
% es.EY (V/m) @ t=0.34
-0.4573873269548674
% es.EZ (V/m) @ t=0.34
5.673317922345035
% es.tEX (V/m) @ t=0.34
-4.236942663735345
% es.tEY (V/m) @ t=0.34
0
% es.tEZ (V/m) @ t=0.34
5.673317922345028
% es.Ex (V/m) @ t=0.34
-4.236942663735346
% es.Ey (V/m) @ t=0.34
-0.4573873269548674
% es.Ez (V/m) @ t=0.34
5.673317922345035
% es.tEx (V/m) @ t=0.34
-4.236942663735345
% es.tEy (V/m) @ t=0.34
0
% es.tEz (V/m) @ t=0.34
5.673317922345028
% V (V) @ t=0.34
0.006262595691878566
% es.normE (V/m) @ t=0.36
7.698849816672164
% es.EX (V/m) @ t=0.36
-4.2777330234334485
% es.EY (V/m) @ t=0.36
-0.4618037026848234
% es.EZ (V/m) @ t=0.36
5.727959441487722
% es.tEX (V/m) @ t=0.36
-4.277733023433451
% es.tEY (V/m) @ t=0.36
0
% es.tEZ (V/m) @ t=0.36
5.727959441487715
% es.Ex (V/m) @ t=0.36
-4.2777330234334485
% es.Ey (V/m) @ t=0.36
-0.4618037026848234
% es.Ez (V/m) @ t=0.36
5.727959441487722
% es.tEx (V/m) @ t=0.36
-4.277733023433451
% es.tEy (V/m) @ t=0.36
0
% es.tEz (V/m) @ t=0.36
5.727959441487715
% V (V) @ t=0.36
0.006322937590888185
% es.normE (V/m) @ t=0.38
7.772285461476788
% es.EX (V/m) @ t=0.38
-4.318523383131567
% es.EY (V/m) @ t=0.38
-0.4662200784147832
% es.EZ (V/m) @ t=0.38
5.782600960630424
% es.tEX (V/m) @ t=0.38
-4.318523383131581
% es.tEY (V/m) @ t=0.38
0
% es.tEZ (V/m) @ t=0.38
5.782600960630413
% es.Ex (V/m) @ t=0.38
-4.318523383131567
% es.Ey (V/m) @ t=0.38
-0.4662200784147832
% es.Ez (V/m) @ t=0.38
5.782600960630424
% es.tEx (V/m) @ t=0.38
-4.318523383131581
% es.tEy (V/m) @ t=0.38
0
% es.tEz (V/m) @ t=0.38
5.782600960630413
% V (V) @ t=0.38
0.006383279489897808
% es.normE (V/m) @ t=0.4
7.845721106325934
% es.EX (V/m) @ t=0.4
-4.359313742829675
% es.EY (V/m) @ t=0.4
-0.47063645414474475
% es.EZ (V/m) @ t=0.4
5.83724247977311
% es.tEX (V/m) @ t=0.4
-4.359313742829678
% es.tEY (V/m) @ t=0.4
0
% es.tEZ (V/m) @ t=0.4
5.837242479773105
% es.Ex (V/m) @ t=0.4
-4.359313742829675
% es.Ey (V/m) @ t=0.4
-0.47063645414474475
% es.Ez (V/m) @ t=0.4
5.83724247977311
% es.tEx (V/m) @ t=0.4
-4.359313742829678
% es.tEy (V/m) @ t=0.4
0
% es.tEz (V/m) @ t=0.4
5.837242479773105
% V (V) @ t=0.4
0.006443621388907429
% es.normE (V/m) @ t=0.42
7.919156751218366
% es.EX (V/m) @ t=0.42
-4.400104102527805
% es.EY (V/m) @ t=0.42
-0.47505282987469744
% es.EZ (V/m) @ t=0.42
5.89188399891579
% es.tEX (V/m) @ t=0.42
-4.4001041025278145
% es.tEY (V/m) @ t=0.42
0
% es.tEZ (V/m) @ t=0.42
5.891883998915782
% es.Ex (V/m) @ t=0.42
-4.400104102527805
% es.Ey (V/m) @ t=0.42
-0.47505282987469744
% es.Ez (V/m) @ t=0.42
5.89188399891579
% es.tEx (V/m) @ t=0.42
-4.4001041025278145
% es.tEy (V/m) @ t=0.42
0
% es.tEz (V/m) @ t=0.42
5.891883998915782
% V (V) @ t=0.42
0.006503963287917049
% es.normE (V/m) @ t=0.44
7.992592396152903
% es.EX (V/m) @ t=0.44
-4.440894462225904
% es.EY (V/m) @ t=0.44
-0.47946920560464834
% es.EZ (V/m) @ t=0.44
5.946525518058489
% es.tEX (V/m) @ t=0.44
-4.440894462225917
% es.tEY (V/m) @ t=0.44
0
% es.tEZ (V/m) @ t=0.44
5.946525518058482
% es.Ex (V/m) @ t=0.44
-4.440894462225904
% es.Ey (V/m) @ t=0.44
-0.47946920560464834
% es.Ez (V/m) @ t=0.44
5.946525518058489
% es.tEx (V/m) @ t=0.44
-4.440894462225917
% es.tEy (V/m) @ t=0.44
0
% es.tEz (V/m) @ t=0.44
5.946525518058482
% V (V) @ t=0.44
0.00656430518692667
% es.normE (V/m) @ t=0.46
8.06602804112839
% es.EX (V/m) @ t=0.46
-4.481684821924031
% es.EY (V/m) @ t=0.46
-0.4838855813345835
% es.EZ (V/m) @ t=0.46
6.001167037201184
% es.tEX (V/m) @ t=0.46
-4.48168482192404
% es.tEY (V/m) @ t=0.46
0
% es.tEZ (V/m) @ t=0.46
6.001167037201174
% es.Ex (V/m) @ t=0.46
-4.481684821924031
% es.Ey (V/m) @ t=0.46
-0.4838855813345835
% es.Ez (V/m) @ t=0.46
6.001167037201184
% es.tEx (V/m) @ t=0.46
-4.48168482192404
% es.tEy (V/m) @ t=0.46
0
% es.tEz (V/m) @ t=0.46
6.001167037201174
% V (V) @ t=0.46
0.006624647085936293
% es.normE (V/m) @ t=0.48
8.139463686143728
% es.EX (V/m) @ t=0.48
-4.522475181622146
% es.EY (V/m) @ t=0.48
-0.4883019570645646
% es.EZ (V/m) @ t=0.48
6.055808556343876
% es.tEX (V/m) @ t=0.48
-4.522475181622152
% es.tEY (V/m) @ t=0.48
0
% es.tEZ (V/m) @ t=0.48
6.055808556343862
% es.Ex (V/m) @ t=0.48
-4.522475181622146
% es.Ey (V/m) @ t=0.48
-0.4883019570645646
% es.Ez (V/m) @ t=0.48
6.055808556343876
% es.tEx (V/m) @ t=0.48
-4.522475181622152
% es.tEy (V/m) @ t=0.48
0
% es.tEz (V/m) @ t=0.48
6.055808556343862
% V (V) @ t=0.48
0.0066849889849459115
% es.normE (V/m) @ t=0.5
8.212899331197825
% es.EX (V/m) @ t=0.5
-4.5632655413202645
% es.EY (V/m) @ t=0.5
-0.49271833279450483
% es.EZ (V/m) @ t=0.5
6.110450075486571
% es.tEX (V/m) @ t=0.5
-4.563265541320274
% es.tEY (V/m) @ t=0.5
0
% es.tEZ (V/m) @ t=0.5
6.110450075486561
% es.Ex (V/m) @ t=0.5
-4.5632655413202645
% es.Ey (V/m) @ t=0.5
-0.49271833279450483
% es.Ez (V/m) @ t=0.5
6.110450075486571
% es.tEx (V/m) @ t=0.5
-4.563265541320274
% es.tEy (V/m) @ t=0.5
0
% es.tEz (V/m) @ t=0.5
6.110450075486561
% V (V) @ t=0.5
0.006745330883955532
% es.normE (V/m) @ t=0.52
8.286334976289648
% es.EX (V/m) @ t=0.52
-4.60405590101837
% es.EY (V/m) @ t=0.52
-0.4971347085244555
% es.EZ (V/m) @ t=0.52
6.165091594629259
% es.tEX (V/m) @ t=0.52
-4.60405590101838
% es.tEY (V/m) @ t=0.52
0
% es.tEZ (V/m) @ t=0.52
6.165091594629247
% es.Ex (V/m) @ t=0.52
-4.60405590101837
% es.Ey (V/m) @ t=0.52
-0.4971347085244555
% es.Ez (V/m) @ t=0.52
6.165091594629259
% es.tEx (V/m) @ t=0.52
-4.60405590101838
% es.tEy (V/m) @ t=0.52
0
% es.tEz (V/m) @ t=0.52
6.165091594629247
% V (V) @ t=0.52
0.006805672782965154
% es.normE (V/m) @ t=0.54
8.359770621418251
% es.EX (V/m) @ t=0.54
-4.644846260716478
% es.EY (V/m) @ t=0.54
-0.5015510842544171
% es.EZ (V/m) @ t=0.54
6.219733113771971
% es.tEX (V/m) @ t=0.54
-4.644846260716484
% es.tEY (V/m) @ t=0.54
0
% es.tEZ (V/m) @ t=0.54
6.21973311377196
% es.Ex (V/m) @ t=0.54
-4.644846260716478
% es.Ey (V/m) @ t=0.54
-0.5015510842544171
% es.Ez (V/m) @ t=0.54
6.219733113771971
% es.tEx (V/m) @ t=0.54
-4.644846260716484
% es.tEy (V/m) @ t=0.54
0
% es.tEz (V/m) @ t=0.54
6.21973311377196
% V (V) @ t=0.54
0.006866014681974775
% es.normE (V/m) @ t=0.56
8.439506755417838
% es.EX (V/m) @ t=0.56
-4.689157769071237
% es.EY (V/m) @ t=0.56
-0.5063272693005667
% es.EZ (V/m) @ t=0.56
6.279053896482864
% es.tEX (V/m) @ t=0.56
-4.689157769071239
% es.tEY (V/m) @ t=0.56
0
% es.tEZ (V/m) @ t=0.56
6.279053896482859
% es.Ex (V/m) @ t=0.56
-4.689157769071237
% es.Ey (V/m) @ t=0.56
-0.5063272693005667
% es.Ez (V/m) @ t=0.56
6.279053896482864
% es.tEx (V/m) @ t=0.56
-4.689157769071239
% es.tEy (V/m) @ t=0.56
0
% es.tEz (V/m) @ t=0.56
6.279053896482859
% V (V) @ t=0.56
0.006931482939424371
% es.normE (V/m) @ t=0.58
8.521443188753015
% es.EX (V/m) @ t=0.58
-4.734698956748812
% es.EY (V/m) @ t=0.58
-0.5112291093870065
% es.EZ (V/m) @ t=0.58
6.340008803230313
% es.tEX (V/m) @ t=0.58
-4.734698956748818
% es.tEY (V/m) @ t=0.58
0
% es.tEZ (V/m) @ t=0.58
6.340008803230303
% es.Ex (V/m) @ t=0.58
-4.734698956748812
% es.Ey (V/m) @ t=0.58
-0.5112291093870065
% es.Ez (V/m) @ t=0.58
6.340008803230313
% es.tEx (V/m) @ t=0.58
-4.734698956748818
% es.tEy (V/m) @ t=0.58
0
% es.tEz (V/m) @ t=0.58
6.340008803230303
% V (V) @ t=0.58
0.00699874145840222
% es.normE (V/m) @ t=0.6
8.603379622148253
% es.EX (V/m) @ t=0.6
-4.780240144426412
% es.EY (V/m) @ t=0.6
-0.5161309494734339
% es.EZ (V/m) @ t=0.6
6.400963709977753
% es.tEX (V/m) @ t=0.6
-4.780240144426418
% es.tEY (V/m) @ t=0.6
0
% es.tEZ (V/m) @ t=0.6
6.400963709977741
% es.Ex (V/m) @ t=0.6
-4.780240144426412
% es.Ey (V/m) @ t=0.6
-0.5161309494734339
% es.Ez (V/m) @ t=0.6
6.400963709977753
% es.tEx (V/m) @ t=0.6
-4.780240144426418
% es.tEy (V/m) @ t=0.6
0
% es.tEz (V/m) @ t=0.6
6.400963709977741
% V (V) @ t=0.6
0.007065999977380072
% es.normE (V/m) @ t=0.62
8.685316055601863
% es.EX (V/m) @ t=0.62
-4.825781332104001
% es.EY (V/m) @ t=0.62
-0.5210327895598734
% es.EZ (V/m) @ t=0.62
6.461918616725208
% es.tEX (V/m) @ t=0.62
-4.8257813321040075
% es.tEY (V/m) @ t=0.62
0
% es.tEZ (V/m) @ t=0.62
6.4619186167252
% es.Ex (V/m) @ t=0.62
-4.825781332104001
% es.Ey (V/m) @ t=0.62
-0.5210327895598734
% es.Ez (V/m) @ t=0.62
6.461918616725208
% es.tEx (V/m) @ t=0.62
-4.8257813321040075
% es.tEy (V/m) @ t=0.62
0
% es.tEz (V/m) @ t=0.62
6.4619186167252
% V (V) @ t=0.62
0.007133258496357921
% es.normE (V/m) @ t=0.64
8.76725248911219
% es.EX (V/m) @ t=0.64
-4.871322519781595
% es.EY (V/m) @ t=0.64
-0.5259346296463203
% es.EZ (V/m) @ t=0.64
6.522873523472651
% es.tEX (V/m) @ t=0.64
-4.871322519781604
% es.tEY (V/m) @ t=0.64
0
% es.tEZ (V/m) @ t=0.64
6.52287352347264
% es.Ex (V/m) @ t=0.64
-4.871322519781595
% es.Ey (V/m) @ t=0.64
-0.5259346296463203
% es.Ez (V/m) @ t=0.64
6.522873523472651
% es.tEx (V/m) @ t=0.64
-4.871322519781604
% es.tEy (V/m) @ t=0.64
0
% es.tEz (V/m) @ t=0.64
6.52287352347264
% V (V) @ t=0.64
0.00720051701533577
% es.normE (V/m) @ t=0.66
8.849188922677673
% es.EX (V/m) @ t=0.66
-4.916863707459198
% es.EY (V/m) @ t=0.66
-0.5308364697327652
% es.EZ (V/m) @ t=0.66
6.5838284302201
% es.tEX (V/m) @ t=0.66
-4.916863707459204
% es.tEY (V/m) @ t=0.66
0
% es.tEZ (V/m) @ t=0.66
6.583828430220099
% es.Ex (V/m) @ t=0.66
-4.916863707459198
% es.Ey (V/m) @ t=0.66
-0.5308364697327652
% es.Ez (V/m) @ t=0.66
6.5838284302201
% es.tEx (V/m) @ t=0.66
-4.916863707459204
% es.tEy (V/m) @ t=0.66
0
% es.tEz (V/m) @ t=0.66
6.583828430220099
% V (V) @ t=0.66
0.007267775534313621
% es.normE (V/m) @ t=0.68
8.931125356296768
% es.EX (V/m) @ t=0.68
-4.962404895136788
% es.EY (V/m) @ t=0.68
-0.5357383098192068
% es.EZ (V/m) @ t=0.68
6.644783336967547
% es.tEX (V/m) @ t=0.68
-4.962404895136794
% es.tEY (V/m) @ t=0.68
0
% es.tEZ (V/m) @ t=0.68
6.644783336967535
% es.Ex (V/m) @ t=0.68
-4.962404895136788
% es.Ey (V/m) @ t=0.68
-0.5357383098192068
% es.Ez (V/m) @ t=0.68
6.644783336967547
% es.tEx (V/m) @ t=0.68
-4.962404895136794
% es.tEy (V/m) @ t=0.68
0
% es.tEz (V/m) @ t=0.68
6.644783336967535
% V (V) @ t=0.68
0.007335034053291471
% es.normE (V/m) @ t=0.7
9.01306178996805
% es.EX (V/m) @ t=0.7
-5.007946082814391
% es.EY (V/m) @ t=0.7
-0.5406401499056537
% es.EZ (V/m) @ t=0.7
6.705738243714991
% es.tEX (V/m) @ t=0.7
-5.007946082814398
% es.tEY (V/m) @ t=0.7
0
% es.tEZ (V/m) @ t=0.7
6.705738243714984
% es.Ex (V/m) @ t=0.7
-5.007946082814391
% es.Ey (V/m) @ t=0.7
-0.5406401499056537
% es.Ez (V/m) @ t=0.7
6.705738243714991
% es.tEx (V/m) @ t=0.7
-5.007946082814398
% es.tEy (V/m) @ t=0.7
0
% es.tEz (V/m) @ t=0.7
6.705738243714984
% V (V) @ t=0.7
0.00740229257226932
% es.normE (V/m) @ t=0.72
9.094998223690073
% es.EX (V/m) @ t=0.72
-5.053487270491973
% es.EY (V/m) @ t=0.72
-0.5455419899920952
% es.EZ (V/m) @ t=0.72
6.766693150462441
% es.tEX (V/m) @ t=0.72
-5.0534872704919795
% es.tEY (V/m) @ t=0.72
0
% es.tEZ (V/m) @ t=0.72
6.7666931504624275
% es.Ex (V/m) @ t=0.72
-5.053487270491973
% es.Ey (V/m) @ t=0.72
-0.5455419899920952
% es.Ez (V/m) @ t=0.72
6.766693150462441
% es.tEx (V/m) @ t=0.72
-5.0534872704919795
% es.tEy (V/m) @ t=0.72
0
% es.tEz (V/m) @ t=0.72
6.7666931504624275
% V (V) @ t=0.72
0.007469551091247169
% es.normE (V/m) @ t=0.74
9.176934657461503
% es.EX (V/m) @ t=0.74
-5.0990284581695775
% es.EY (V/m) @ t=0.74
-0.5504438300785244
% es.EZ (V/m) @ t=0.74
6.827648057209886
% es.tEX (V/m) @ t=0.74
-5.099028458169591
% es.tEY (V/m) @ t=0.74
0
% es.tEZ (V/m) @ t=0.74
6.827648057209878
% es.Ex (V/m) @ t=0.74
-5.0990284581695775
% es.Ey (V/m) @ t=0.74
-0.5504438300785244
% es.Ez (V/m) @ t=0.74
6.827648057209886
% es.tEx (V/m) @ t=0.74
-5.099028458169591
% es.tEy (V/m) @ t=0.74
0
% es.tEz (V/m) @ t=0.74
6.827648057209878
% V (V) @ t=0.74
0.00753680961022502
% es.normE (V/m) @ t=0.76
9.258871091281001
% es.EX (V/m) @ t=0.76
-5.144569645847175
% es.EY (V/m) @ t=0.76
-0.5553456701649622
% es.EZ (V/m) @ t=0.76
6.888602963957329
% es.tEX (V/m) @ t=0.76
-5.1445696458471835
% es.tEY (V/m) @ t=0.76
0
% es.tEZ (V/m) @ t=0.76
6.888602963957324
% es.Ex (V/m) @ t=0.76
-5.144569645847175
% es.Ey (V/m) @ t=0.76
-0.5553456701649622
% es.Ez (V/m) @ t=0.76
6.888602963957329
% es.tEx (V/m) @ t=0.76
-5.1445696458471835
% es.tEy (V/m) @ t=0.76
0
% es.tEz (V/m) @ t=0.76
6.888602963957324
% V (V) @ t=0.76
0.007604068129202869
% es.normE (V/m) @ t=0.78
9.340807525147344
% es.EX (V/m) @ t=0.78
-5.1901108335247566
% es.EY (V/m) @ t=0.78
-0.5602475102513951
% es.EZ (V/m) @ t=0.78
6.949557870704783
% es.tEX (V/m) @ t=0.78
-5.190110833524758
% es.tEY (V/m) @ t=0.78
0
% es.tEZ (V/m) @ t=0.78
6.949557870704774
% es.Ex (V/m) @ t=0.78
-5.1901108335247566
% es.Ey (V/m) @ t=0.78
-0.5602475102513951
% es.Ez (V/m) @ t=0.78
6.949557870704783
% es.tEx (V/m) @ t=0.78
-5.190110833524758
% es.tEy (V/m) @ t=0.78
0
% es.tEz (V/m) @ t=0.78
6.949557870704774
% V (V) @ t=0.78
0.007671326648180719
% es.normE (V/m) @ t=0.8
9.422743959059286
% es.EX (V/m) @ t=0.8
-5.235652021202363
% es.EY (V/m) @ t=0.8
-0.5651493503378489
% es.EZ (V/m) @ t=0.8
7.010512777452238
% es.tEX (V/m) @ t=0.8
-5.235652021202365
% es.tEY (V/m) @ t=0.8
0
% es.tEZ (V/m) @ t=0.8
7.010512777452222
% es.Ex (V/m) @ t=0.8
-5.235652021202363
% es.Ey (V/m) @ t=0.8
-0.5651493503378489
% es.Ez (V/m) @ t=0.8
7.010512777452238
% es.tEx (V/m) @ t=0.8
-5.235652021202365
% es.tEy (V/m) @ t=0.8
0
% es.tEz (V/m) @ t=0.8
7.010512777452222
% V (V) @ t=0.8
0.007738585167158572
% es.normE (V/m) @ t=0.82
9.505814077600121
% es.EX (V/m) @ t=0.82
-5.28182084094264
% es.EY (V/m) @ t=0.82
-0.5701212186289355
% es.EZ (V/m) @ t=0.82
7.0723120774273385
% es.tEX (V/m) @ t=0.82
-5.281820840942646
% es.tEY (V/m) @ t=0.82
0
% es.tEZ (V/m) @ t=0.82
7.072312077427328
% es.Ex (V/m) @ t=0.82
-5.28182084094264
% es.Ey (V/m) @ t=0.82
-0.5701212186289355
% es.Ez (V/m) @ t=0.82
7.0723120774273385
% es.tEx (V/m) @ t=0.82
-5.281820840942646
% es.tEy (V/m) @ t=0.82
0
% es.tEz (V/m) @ t=0.82
7.072312077427328
% V (V) @ t=0.82
0.007806780144698805
% es.normE (V/m) @ t=0.84
9.597461928019417
% es.EX (V/m) @ t=0.84
-5.332738476721467
% es.EY (V/m) @ t=0.84
-0.5756229372593669
% es.EZ (V/m) @ t=0.84
7.1405002608592785
% es.tEX (V/m) @ t=0.84
-5.3327384767214685
% es.tEY (V/m) @ t=0.84
0
% es.tEZ (V/m) @ t=0.84
7.140500260859268
% es.Ex (V/m) @ t=0.84
-5.332738476721467
% es.Ey (V/m) @ t=0.84
-0.5756229372593669
% es.Ez (V/m) @ t=0.84
7.1405002608592785
% es.tEx (V/m) @ t=0.84
-5.3327384767214685
% es.tEy (V/m) @ t=0.84
0
% es.tEz (V/m) @ t=0.84
7.140500260859268
% V (V) @ t=0.84
0.0078820605942932
% es.normE (V/m) @ t=0.86
9.68910977844568
% es.EX (V/m) @ t=0.86
-5.383656112500293
% es.EY (V/m) @ t=0.86
-0.5811246558897913
% es.EZ (V/m) @ t=0.86
7.208688444291197
% es.tEX (V/m) @ t=0.86
-5.383656112500313
% es.tEY (V/m) @ t=0.86
0
% es.tEZ (V/m) @ t=0.86
7.2086884442911865
% es.Ex (V/m) @ t=0.86
-5.383656112500293
% es.Ey (V/m) @ t=0.86
-0.5811246558897913
% es.Ez (V/m) @ t=0.86
7.208688444291197
% es.tEx (V/m) @ t=0.86
-5.383656112500313
% es.tEy (V/m) @ t=0.86
0
% es.tEz (V/m) @ t=0.86
7.2086884442911865
% V (V) @ t=0.86
0.007957341043887595
% es.normE (V/m) @ t=0.88
9.780757628878757
% es.EX (V/m) @ t=0.88
-5.4345737482791305
% es.EY (V/m) @ t=0.88
-0.5866263745202103
% es.EZ (V/m) @ t=0.88
7.276876627723139
% es.tEX (V/m) @ t=0.88
-5.43457374827914
% es.tEY (V/m) @ t=0.88
0
% es.tEZ (V/m) @ t=0.88
7.276876627723129
% es.Ex (V/m) @ t=0.88
-5.4345737482791305
% es.Ey (V/m) @ t=0.88
-0.5866263745202103
% es.Ez (V/m) @ t=0.88
7.276876627723139
% es.tEx (V/m) @ t=0.88
-5.43457374827914
% es.tEy (V/m) @ t=0.88
0
% es.tEz (V/m) @ t=0.88
7.276876627723129
% V (V) @ t=0.88
0.008032621493481988
% es.normE (V/m) @ t=0.9
9.872405479318441
% es.EX (V/m) @ t=0.9
-5.485491384057952
% es.EY (V/m) @ t=0.9
-0.5921280931506487
% es.EZ (V/m) @ t=0.9
7.3450648111550745
% es.tEX (V/m) @ t=0.9
-5.485491384057962
% es.tEY (V/m) @ t=0.9
0
% es.tEZ (V/m) @ t=0.9
7.345064811155068
% es.Ex (V/m) @ t=0.9
-5.485491384057952
% es.Ey (V/m) @ t=0.9
-0.5921280931506487
% es.Ez (V/m) @ t=0.9
7.3450648111550745
% es.tEx (V/m) @ t=0.9
-5.485491384057962
% es.tEy (V/m) @ t=0.9
0
% es.tEz (V/m) @ t=0.9
7.345064811155068
% V (V) @ t=0.9
0.008107901943076378
% es.normE (V/m) @ t=0.92
9.964053329764534
% es.EX (V/m) @ t=0.92
-5.53640901983679
% es.EY (V/m) @ t=0.92
-0.597629811781061
% es.EZ (V/m) @ t=0.92
7.413252994587001
% es.tEX (V/m) @ t=0.92
-5.536409019836799
% es.tEY (V/m) @ t=0.92
0
% es.tEZ (V/m) @ t=0.92
7.41325299458699
% es.Ex (V/m) @ t=0.92
-5.53640901983679
% es.Ey (V/m) @ t=0.92
-0.597629811781061
% es.Ez (V/m) @ t=0.92
7.413252994587001
% es.tEx (V/m) @ t=0.92
-5.536409019836799
% es.tEy (V/m) @ t=0.92
0
% es.tEz (V/m) @ t=0.92
7.41325299458699
% V (V) @ t=0.92
0.008183182392670773
% es.normE (V/m) @ t=0.94
10.055701180216875
% es.EX (V/m) @ t=0.94
-5.587326655615623
% es.EY (V/m) @ t=0.94
-0.6031315304114779
% es.EZ (V/m) @ t=0.94
7.481441178018925
% es.tEX (V/m) @ t=0.94
-5.587326655615626
% es.tEY (V/m) @ t=0.94
0
% es.tEZ (V/m) @ t=0.94
7.481441178018921
% es.Ex (V/m) @ t=0.94
-5.587326655615623
% es.Ey (V/m) @ t=0.94
-0.6031315304114779
% es.Ez (V/m) @ t=0.94
7.481441178018925
% es.tEx (V/m) @ t=0.94
-5.587326655615626
% es.tEy (V/m) @ t=0.94
0
% es.tEz (V/m) @ t=0.94
7.481441178018921
% V (V) @ t=0.94
0.008258462842265168
% es.normE (V/m) @ t=0.96
10.147349030675308
% es.EX (V/m) @ t=0.96
-5.63824429139445
% es.EY (V/m) @ t=0.96
-0.6086332490419004
% es.EZ (V/m) @ t=0.96
7.549629361450875
% es.tEX (V/m) @ t=0.96
-5.638244291394463
% es.tEY (V/m) @ t=0.96
0
% es.tEZ (V/m) @ t=0.96
7.54962936145086
% es.Ex (V/m) @ t=0.96
-5.63824429139445
% es.Ey (V/m) @ t=0.96
-0.6086332490419004
% es.Ez (V/m) @ t=0.96
7.549629361450875
% es.tEx (V/m) @ t=0.96
-5.638244291394463
% es.tEy (V/m) @ t=0.96
0
% es.tEz (V/m) @ t=0.96
7.54962936145086
% V (V) @ t=0.96
0.008333743291859562
% es.normE (V/m) @ t=0.98
10.23899688113966
% es.EX (V/m) @ t=0.98
-5.689161927173294
% es.EY (V/m) @ t=0.98
-0.6141349676723369
% es.EZ (V/m) @ t=0.98
7.6178175448828105
% es.tEX (V/m) @ t=0.98
-5.689161927173304
% es.tEY (V/m) @ t=0.98
0
% es.tEZ (V/m) @ t=0.98
7.617817544882803
% es.Ex (V/m) @ t=0.98
-5.689161927173294
% es.Ey (V/m) @ t=0.98
-0.6141349676723369
% es.Ez (V/m) @ t=0.98
7.6178175448828105
% es.tEx (V/m) @ t=0.98
-5.689161927173304
% es.tEy (V/m) @ t=0.98
0
% es.tEz (V/m) @ t=0.98
7.617817544882803
% V (V) @ t=0.98
0.008409023741453957
% es.normE (V/m) @ t=1
10.330644731609752
% es.EX (V/m) @ t=1
-5.740079562952121
% es.EY (V/m) @ t=1
-0.6196366863027505
% es.EZ (V/m) @ t=1
7.6860057283147425
% es.tEX (V/m) @ t=1
-5.740079562952127
% es.tEY (V/m) @ t=1
0
% es.tEZ (V/m) @ t=1
7.686005728314728
% es.Ex (V/m) @ t=1
-5.740079562952121
% es.Ey (V/m) @ t=1
-0.6196366863027505
% es.Ez (V/m) @ t=1
7.6860057283147425
% es.tEx (V/m) @ t=1
-5.740079562952127
% es.tEy (V/m) @ t=1
0
% es.tEz (V/m) @ t=1
7.686005728314728
% V (V) @ t=1
0.00848430419104835
% es.normE (V/m) @ t=1.02
10.422292582085447
% es.EX (V/m) @ t=1.02
-5.790997198730946
% es.EY (V/m) @ t=1.02
-0.6251384049331752
% es.EZ (V/m) @ t=1.02
7.754193911746676
% es.tEX (V/m) @ t=1.02
-5.790997198730963
% es.tEY (V/m) @ t=1.02
0
% es.tEZ (V/m) @ t=1.02
7.754193911746657
% es.Ex (V/m) @ t=1.02
-5.790997198730946
% es.Ey (V/m) @ t=1.02
-0.6251384049331752
% es.Ez (V/m) @ t=1.02
7.754193911746676
% es.tEx (V/m) @ t=1.02
-5.790997198730963
% es.tEy (V/m) @ t=1.02
0
% es.tEz (V/m) @ t=1.02
7.754193911746657
% V (V) @ t=1.02
0.008559584640642746
% es.normE (V/m) @ t=1.04
10.513940432566594
% es.EX (V/m) @ t=1.04
-5.84191483450977
% es.EY (V/m) @ t=1.04
-0.630640123563603
% es.EZ (V/m) @ t=1.04
7.822382095178602
% es.tEX (V/m) @ t=1.04
-5.841914834509775
% es.tEY (V/m) @ t=1.04
0
% es.tEZ (V/m) @ t=1.04
7.822382095178597
% es.Ex (V/m) @ t=1.04
-5.84191483450977
% es.Ey (V/m) @ t=1.04
-0.630640123563603
% es.Ez (V/m) @ t=1.04
7.822382095178602
% es.tEx (V/m) @ t=1.04
-5.841914834509775
% es.tEy (V/m) @ t=1.04
0
% es.tEz (V/m) @ t=1.04
7.822382095178597
% V (V) @ t=1.04