% Model:              1 neuron.mph
% Version:            COMSOL 6.0.0.405
% Date:               Mar 16 2023, 17:07
% Dimension:          0
% Nodes:              14017
% Expressions:        14017
% Description:        Electric field norm, Electric field, X component, Electric field, Y component, Electric field, Z component, Tangential electric field, X component, Tangential electric field, Y component, Tangential electric field, Z component, Electric field, x component, Electric field, y component, Electric field, z component, Tangential electric field, x component, Tangential electric field, y component, Tangential electric field, z component, Electric potential
% Length unit:        mm
% x
1.33
% y
12.2
% z
1.33
% es.normE (V/m) @ t=0
7.848502309005465
% es.EX (V/m) @ t=0
6.081680704542125
% es.EY (V/m) @ t=0
-0.9318935385504403
% es.EZ (V/m) @ t=0
4.858601443099491
% es.tEX (V/m) @ t=0
6.081680704542148
% es.tEY (V/m) @ t=0
0
% es.tEZ (V/m) @ t=0
4.8586014430994915
% es.Ex (V/m) @ t=0
6.081680704542125
% es.Ey (V/m) @ t=0
-0.9318935385504403
% es.Ez (V/m) @ t=0
4.858601443099491
% es.tEx (V/m) @ t=0
6.081680704542148
% es.tEy (V/m) @ t=0
0
% es.tEz (V/m) @ t=0
4.8586014430994915
% V (V) @ t=0
0.006481550692942877
% es.normE (V/m) @ t=0.02
6.778887800646845
% es.EX (V/m) @ t=0.02
5.252853255304839
% es.EY (V/m) @ t=0.02
-0.8048926249194652
% es.EZ (V/m) @ t=0.02
4.196458519901614
% es.tEX (V/m) @ t=0.02
5.2528532553048635
% es.tEY (V/m) @ t=0.02
0
% es.tEZ (V/m) @ t=0.02
4.196458519901612
% es.Ex (V/m) @ t=0.02
5.252853255304839
% es.Ey (V/m) @ t=0.02
-0.8048926249194652
% es.Ez (V/m) @ t=0.02
4.196458519901614
% es.tEx (V/m) @ t=0.02
5.2528532553048635
% es.tEy (V/m) @ t=0.02
0
% es.tEz (V/m) @ t=0.02
4.196458519901612
% V (V) @ t=0.02
0.005598227853436199
% es.normE (V/m) @ t=0.04
6.841226541445211
% es.EX (V/m) @ t=0.04
5.301158527342079
% es.EY (V/m) @ t=0.04
-0.8122944106475511
% es.EZ (V/m) @ t=0.04
4.235049257562245
% es.tEX (V/m) @ t=0.04
5.301158527342085
% es.tEY (V/m) @ t=0.04
0
% es.tEZ (V/m) @ t=0.04
4.235049257562244
% es.Ex (V/m) @ t=0.04
5.301158527342079
% es.Ey (V/m) @ t=0.04
-0.8122944106475511
% es.Ez (V/m) @ t=0.04
4.235049257562245
% es.tEx (V/m) @ t=0.04
5.301158527342085
% es.tEy (V/m) @ t=0.04
0
% es.tEz (V/m) @ t=0.04
4.235049257562244
% V (V) @ t=0.04
0.005649709124943014
% es.normE (V/m) @ t=0.06
6.904126023968712
% es.EX (V/m) @ t=0.06
5.349898363763879
% es.EY (V/m) @ t=0.06
-0.8197628030794455
% es.EZ (V/m) @ t=0.06
4.273987043480547
% es.tEX (V/m) @ t=0.06
5.349898363763911
% es.tEY (V/m) @ t=0.06
0
% es.tEZ (V/m) @ t=0.06
4.273987043480547
% es.Ex (V/m) @ t=0.06
5.349898363763879
% es.Ey (V/m) @ t=0.06
-0.8197628030794455
% es.Ez (V/m) @ t=0.06
4.273987043480547
% es.tEx (V/m) @ t=0.06
5.349898363763911
% es.tEy (V/m) @ t=0.06
0
% es.tEz (V/m) @ t=0.06
4.273987043480547
% V (V) @ t=0.06
0.0057016536379726444
% es.normE (V/m) @ t=0.08
6.967988872886304
% es.EX (V/m) @ t=0.08
5.399384647877265
% es.EY (V/m) @ t=0.08
-0.827345556422034
% es.EZ (V/m) @ t=0.08
4.313521270811276
% es.tEX (V/m) @ t=0.08
5.399384647877275
% es.tEY (V/m) @ t=0.08
0
% es.tEZ (V/m) @ t=0.08
4.313521270811276
% es.Ex (V/m) @ t=0.08
5.399384647877265
% es.Ey (V/m) @ t=0.08
-0.827345556422034
% es.Ez (V/m) @ t=0.08
4.313521270811276
% es.tEx (V/m) @ t=0.08
5.399384647877275
% es.tEy (V/m) @ t=0.08
0
% es.tEz (V/m) @ t=0.08
4.313521270811276
% V (V) @ t=0.08
0.005754393582354424
% es.normE (V/m) @ t=0.1
7.0325137661649055
% es.EX (V/m) @ t=0.1
5.449383905546715
% es.EY (V/m) @ t=0.1
-0.8350069008349914
% es.EZ (V/m) @ t=0.1
4.353465384428498
% es.tEX (V/m) @ t=0.1
5.4493839055467275
% es.tEY (V/m) @ t=0.1
0
% es.tEZ (V/m) @ t=0.1
4.353465384428498
% es.Ex (V/m) @ t=0.1
5.449383905546715
% es.Ey (V/m) @ t=0.1
-0.8350069008349914
% es.Ez (V/m) @ t=0.1
4.353465384428498
% es.tEx (V/m) @ t=0.1
5.4493839055467275
% es.tEy (V/m) @ t=0.1
0
% es.tEz (V/m) @ t=0.1
4.353465384428498
% V (V) @ t=0.1
0.005807680162828685
% es.normE (V/m) @ t=0.12
7.097038659443485
% es.EX (V/m) @ t=0.12
5.4993831632161445
% es.EY (V/m) @ t=0.12
-0.8426682452479257
% es.EZ (V/m) @ t=0.12
4.393409498045708
% es.tEX (V/m) @ t=0.12
5.499383163216166
% es.tEY (V/m) @ t=0.12
0
% es.tEZ (V/m) @ t=0.12
4.393409498045706
% es.Ex (V/m) @ t=0.12
5.4993831632161445
% es.Ey (V/m) @ t=0.12
-0.8426682452479257
% es.Ez (V/m) @ t=0.12
4.393409498045708
% es.tEx (V/m) @ t=0.12
5.499383163216166
% es.tEy (V/m) @ t=0.12
0
% es.tEz (V/m) @ t=0.12
4.393409498045706
% V (V) @ t=0.12
0.005860966743302946
% es.normE (V/m) @ t=0.14
7.162235562135408
% es.EX (V/m) @ t=0.14
5.5499031547180735
% es.EY (V/m) @ t=0.14
-0.8504093829827024
% es.EZ (V/m) @ t=0.14
4.43376961170015
% es.tEX (V/m) @ t=0.14
5.549903154718109
% es.tEY (V/m) @ t=0.14
0
% es.tEZ (V/m) @ t=0.14
4.433769611700148
% es.Ex (V/m) @ t=0.14
5.5499031547180735
% es.Ey (V/m) @ t=0.14
-0.8504093829827024
% es.Ez (V/m) @ t=0.14
4.43376961170015
% es.tEx (V/m) @ t=0.14
5.549903154718109
% es.tEy (V/m) @ t=0.14
0
% es.tEz (V/m) @ t=0.14
4.433769611700148
% V (V) @ t=0.14
0.00591480830414779
% es.normE (V/m) @ t=0.16
7.230200742451119
% es.EX (V/m) @ t=0.16
5.602568258755346
% es.EY (V/m) @ t=0.16
-0.85847922157037
% es.EZ (V/m) @ t=0.16
4.475843397174863
% es.tEX (V/m) @ t=0.16
5.602568258755359
% es.tEY (V/m) @ t=0.16
0
% es.tEZ (V/m) @ t=0.16
4.475843397174861
% es.Ex (V/m) @ t=0.16
5.602568258755346
% es.Ey (V/m) @ t=0.16
-0.85847922157037
% es.Ez (V/m) @ t=0.16
4.475843397174863
% es.tEx (V/m) @ t=0.16
5.602568258755359
% es.tEy (V/m) @ t=0.16
0
% es.tEz (V/m) @ t=0.16
4.475843397174861
% V (V) @ t=0.16
0.0059709360528214135
% es.normE (V/m) @ t=0.18
7.2981659227668505
% es.EX (V/m) @ t=0.18
5.655233362792639
% es.EY (V/m) @ t=0.18
-0.8665490601580119
% es.EZ (V/m) @ t=0.18
4.517917182649583
% es.tEX (V/m) @ t=0.18
5.655233362792652
% es.tEY (V/m) @ t=0.18
0
% es.tEZ (V/m) @ t=0.18
4.517917182649575
% es.Ex (V/m) @ t=0.18
5.655233362792639
% es.Ey (V/m) @ t=0.18
-0.8665490601580119
% es.Ez (V/m) @ t=0.18
4.517917182649583
% es.tEx (V/m) @ t=0.18
5.655233362792652
% es.tEy (V/m) @ t=0.18
0
% es.tEz (V/m) @ t=0.18
4.517917182649575
% V (V) @ t=0.18
0.006027063801495036
% es.normE (V/m) @ t=0.2
7.366131103082571
% es.EX (V/m) @ t=0.2
5.707898466829912
% es.EY (V/m) @ t=0.2
-0.8746188987456982
% es.EZ (V/m) @ t=0.2
4.559990968124304
% es.tEX (V/m) @ t=0.2
5.707898466829915
% es.tEY (V/m) @ t=0.2
0
% es.tEZ (V/m) @ t=0.2
4.559990968124303
% es.Ex (V/m) @ t=0.2
5.707898466829912
% es.Ey (V/m) @ t=0.2
-0.8746188987456982
% es.Ez (V/m) @ t=0.2
4.559990968124304
% es.tEx (V/m) @ t=0.2
5.707898466829915
% es.tEy (V/m) @ t=0.2
0
% es.tEz (V/m) @ t=0.2
4.559990968124303
% V (V) @ t=0.2
0.00608319155016866
% es.normE (V/m) @ t=0.22
7.434096283398301
% es.EX (V/m) @ t=0.22
5.760563570867196
% es.EY (V/m) @ t=0.22
-0.8826887373333507
% es.EZ (V/m) @ t=0.22
4.6020647535990316
% es.tEX (V/m) @ t=0.22
5.760563570867207
% es.tEY (V/m) @ t=0.22
0
% es.tEZ (V/m) @ t=0.22
4.6020647535990244
% es.Ex (V/m) @ t=0.22
5.760563570867196
% es.Ey (V/m) @ t=0.22
-0.8826887373333507
% es.Ez (V/m) @ t=0.22
4.6020647535990316
% es.tEx (V/m) @ t=0.22
5.760563570867207
% es.tEy (V/m) @ t=0.22
0
% es.tEz (V/m) @ t=0.22
4.6020647535990244
% V (V) @ t=0.22
0.006139319298842283
% es.normE (V/m) @ t=0.24
7.502061463713989
% es.EX (V/m) @ t=0.24
5.813228674904436
% es.EY (V/m) @ t=0.24
-0.8907585759210086
% es.EZ (V/m) @ t=0.24
4.644138539073742
% es.tEX (V/m) @ t=0.24
5.813228674904471
% es.tEY (V/m) @ t=0.24
0
% es.tEZ (V/m) @ t=0.24
4.6441385390737455
% es.Ex (V/m) @ t=0.24
5.813228674904436
% es.Ey (V/m) @ t=0.24
-0.8907585759210086
% es.Ez (V/m) @ t=0.24
4.644138539073742
% es.tEx (V/m) @ t=0.24
5.813228674904471
% es.tEy (V/m) @ t=0.24
0
% es.tEz (V/m) @ t=0.24
4.6441385390737455
% V (V) @ t=0.24
0.006195447047515906
% es.normE (V/m) @ t=0.26
7.5700266440297375
% es.EX (V/m) @ t=0.26
5.865893778941747
% es.EY (V/m) @ t=0.26
-0.898828414508646
% es.EZ (V/m) @ t=0.26
4.686212324548466
% es.tEX (V/m) @ t=0.26
5.865893778941763
% es.tEY (V/m) @ t=0.26
0
% es.tEZ (V/m) @ t=0.26
4.686212324548467
% es.Ex (V/m) @ t=0.26
5.865893778941747
% es.Ey (V/m) @ t=0.26
-0.898828414508646
% es.Ez (V/m) @ t=0.26
4.686212324548466
% es.tEx (V/m) @ t=0.26
5.865893778941763
% es.tEy (V/m) @ t=0.26
0
% es.tEz (V/m) @ t=0.26
4.686212324548467
% V (V) @ t=0.26
0.0062515747961895286
% es.normE (V/m) @ t=0.28
7.6410836254122385
% es.EX (V/m) @ t=0.28
5.920953352867184
% es.EY (V/m) @ t=0.28
-0.9072647065819197
% es.EZ (V/m) @ t=0.28
4.730201969551613
% es.tEX (V/m) @ t=0.28
5.920953352867189
% es.tEY (V/m) @ t=0.28
0
% es.tEZ (V/m) @ t=0.28
4.7302019695516115
% es.Ex (V/m) @ t=0.28
5.920953352867184
% es.Ey (V/m) @ t=0.28
-0.9072647065819197
% es.Ez (V/m) @ t=0.28
4.730201969551613
% es.tEx (V/m) @ t=0.28
5.920953352867189
% es.tEy (V/m) @ t=0.28
0
% es.tEz (V/m) @ t=0.28
4.7302019695516115
% V (V) @ t=0.28
0.006310251928448784
% es.normE (V/m) @ t=0.3
7.716766274164078
% es.EX (V/m) @ t=0.3
5.979595311615742
% es.EY (V/m) @ t=0.3
-0.9162492525345431
% es.EZ (V/m) @ t=0.3
4.7770579467362
% es.tEX (V/m) @ t=0.3
5.979595311615752
% es.tEY (V/m) @ t=0.3
0
% es.tEZ (V/m) @ t=0.3
4.7770579467362
% es.Ex (V/m) @ t=0.3
5.979595311615742
% es.Ey (V/m) @ t=0.3
-0.9162492525345431
% es.Ez (V/m) @ t=0.3
4.7770579467362
% es.tEx (V/m) @ t=0.3
5.979595311615752
% es.tEy (V/m) @ t=0.3
0
% es.tEz (V/m) @ t=0.3
4.7770579467362
% V (V) @ t=0.3
0.006372743213105875
% es.normE (V/m) @ t=0.32
7.792448922922156
% es.EX (V/m) @ t=0.32
6.038237270364257
% es.EY (V/m) @ t=0.32
-0.9252337984871684
% es.EZ (V/m) @ t=0.32
4.823913923920793
% es.tEX (V/m) @ t=0.32
6.038237270364286
% es.tEY (V/m) @ t=0.32
0
% es.tEZ (V/m) @ t=0.32
4.823913923920801
% es.Ex (V/m) @ t=0.32
6.038237270364257
% es.Ey (V/m) @ t=0.32
-0.9252337984871684
% es.Ez (V/m) @ t=0.32
4.823913923920793
% es.tEx (V/m) @ t=0.32
6.038237270364286
% es.tEy (V/m) @ t=0.32
0
% es.tEz (V/m) @ t=0.32
4.823913923920801
% V (V) @ t=0.32
0.006435234497762966
% es.normE (V/m) @ t=0.34
7.868131571686316
% es.EX (V/m) @ t=0.34
6.096879229112767
% es.EY (V/m) @ t=0.34
-0.9342183444397811
% es.EZ (V/m) @ t=0.34
4.870769901105383
% es.tEX (V/m) @ t=0.34
6.096879229112792
% es.tEY (V/m) @ t=0.34
0
% es.tEZ (V/m) @ t=0.34
4.8707699011053815
% es.Ex (V/m) @ t=0.34
6.096879229112767
% es.Ey (V/m) @ t=0.34
-0.9342183444397811
% es.Ez (V/m) @ t=0.34
4.870769901105383
% es.tEx (V/m) @ t=0.34
6.096879229112792
% es.tEy (V/m) @ t=0.34
0
% es.tEz (V/m) @ t=0.34
4.8707699011053815
% V (V) @ t=0.34
0.006497725782420059
% es.normE (V/m) @ t=0.36
7.943814220456446
% es.EX (V/m) @ t=0.36
6.155521187861343
% es.EY (V/m) @ t=0.36
-0.9432028903923806
% es.EZ (V/m) @ t=0.36
4.917625878289977
% es.tEX (V/m) @ t=0.36
6.15552118786134
% es.tEY (V/m) @ t=0.36
0
% es.tEZ (V/m) @ t=0.36
4.917625878289977
% es.Ex (V/m) @ t=0.36
6.155521187861343
% es.Ey (V/m) @ t=0.36
-0.9432028903923806
% es.Ez (V/m) @ t=0.36
4.917625878289977
% es.tEx (V/m) @ t=0.36
6.15552118786134
% es.tEy (V/m) @ t=0.36
0
% es.tEz (V/m) @ t=0.36
4.917625878289977
% V (V) @ t=0.36
0.006560217067077149
% es.normE (V/m) @ t=0.38
8.019496869232317
% es.EX (V/m) @ t=0.38
6.214163146609907
% es.EY (V/m) @ t=0.38
-0.95218743634498
% es.EZ (V/m) @ t=0.38
4.964481855474573
% es.tEX (V/m) @ t=0.38
6.214163146609916
% es.tEY (V/m) @ t=0.38
0
% es.tEZ (V/m) @ t=0.38
4.964481855474564
% es.Ex (V/m) @ t=0.38
6.214163146609907
% es.Ey (V/m) @ t=0.38
-0.95218743634498
% es.Ez (V/m) @ t=0.38
4.964481855474573
% es.tEx (V/m) @ t=0.38
6.214163146609916
% es.tEy (V/m) @ t=0.38
0
% es.tEz (V/m) @ t=0.38
4.964481855474564
% V (V) @ t=0.38
0.006622708351734241
% es.normE (V/m) @ t=0.4
8.095179518013719
% es.EX (V/m) @ t=0.4
6.272805105358422
% es.EY (V/m) @ t=0.4
-0.9611719822976239
% es.EZ (V/m) @ t=0.4
5.011337832659138
% es.tEX (V/m) @ t=0.4
6.272805105358422
% es.tEY (V/m) @ t=0.4
0
% es.tEZ (V/m) @ t=0.4
5.0113378326591445
% es.Ex (V/m) @ t=0.4
6.272805105358422
% es.Ey (V/m) @ t=0.4
-0.9611719822976239
% es.Ez (V/m) @ t=0.4
5.011337832659138
% es.tEx (V/m) @ t=0.4
6.272805105358422
% es.tEy (V/m) @ t=0.4
0
% es.tEz (V/m) @ t=0.4
5.0113378326591445
% V (V) @ t=0.4
0.006685199636391333
% es.normE (V/m) @ t=0.42
8.170862166800594
% es.EX (V/m) @ t=0.42
6.331447064106962
% es.EY (V/m) @ t=0.42
-0.9701565282502482
% es.EZ (V/m) @ t=0.42
5.0581938098437425
% es.tEX (V/m) @ t=0.42
6.331447064106971
% es.tEY (V/m) @ t=0.42
0
% es.tEZ (V/m) @ t=0.42
5.05819380984374
% es.Ex (V/m) @ t=0.42
6.331447064106962
% es.Ey (V/m) @ t=0.42
-0.9701565282502482
% es.Ez (V/m) @ t=0.42
5.0581938098437425
% es.tEx (V/m) @ t=0.42
6.331447064106971
% es.tEy (V/m) @ t=0.42
0
% es.tEz (V/m) @ t=0.42
5.05819380984374
% V (V) @ t=0.42
0.006747690921048424
% es.normE (V/m) @ t=0.44
8.24654481559272
% es.EX (V/m) @ t=0.44
6.390089022855481
% es.EY (V/m) @ t=0.44
-0.9791410742028273
% es.EZ (V/m) @ t=0.44
5.105049787028328
% es.tEX (V/m) @ t=0.44
6.390089022855491
% es.tEY (V/m) @ t=0.44
0
% es.tEZ (V/m) @ t=0.44
5.105049787028321
% es.Ex (V/m) @ t=0.44
6.390089022855481
% es.Ey (V/m) @ t=0.44
-0.9791410742028273
% es.Ez (V/m) @ t=0.44
5.105049787028328
% es.tEx (V/m) @ t=0.44
6.390089022855491
% es.tEy (V/m) @ t=0.44
0
% es.tEz (V/m) @ t=0.44
5.105049787028321
% V (V) @ t=0.44
0.006810182205705515
% es.normE (V/m) @ t=0.46
8.322227464390036
% es.EX (V/m) @ t=0.46
6.448730981604055
% es.EY (V/m) @ t=0.46
-0.9881256201554658
% es.EZ (V/m) @ t=0.46
5.151905764212918
% es.tEX (V/m) @ t=0.46
6.448730981604096
% es.tEY (V/m) @ t=0.46
0
% es.tEZ (V/m) @ t=0.46
5.1519057642129225
% es.Ex (V/m) @ t=0.46
6.448730981604055
% es.Ey (V/m) @ t=0.46
-0.9881256201554658
% es.Ez (V/m) @ t=0.46
5.151905764212918
% es.tEx (V/m) @ t=0.46
6.448730981604096
% es.tEy (V/m) @ t=0.46
0
% es.tEz (V/m) @ t=0.46
5.1519057642129225
% V (V) @ t=0.46
0.0068726734903626074
% es.normE (V/m) @ t=0.48
8.39791011319231
% es.EX (V/m) @ t=0.48
6.507372940352581
% es.EY (V/m) @ t=0.48
-0.9971101661080981
% es.EZ (V/m) @ t=0.48
5.1987617413975045
% es.tEX (V/m) @ t=0.48
6.507372940352588
% es.tEY (V/m) @ t=0.48
0
% es.tEZ (V/m) @ t=0.48
5.198761741397503
% es.Ex (V/m) @ t=0.48
6.507372940352581
% es.Ey (V/m) @ t=0.48
-0.9971101661080981
% es.Ez (V/m) @ t=0.48
5.1987617413975045
% es.tEx (V/m) @ t=0.48
6.507372940352588
% es.tEy (V/m) @ t=0.48
0
% es.tEz (V/m) @ t=0.48
5.198761741397503
% V (V) @ t=0.48
0.006935164775019699
% es.normE (V/m) @ t=0.5
8.473592761999456
% es.EX (V/m) @ t=0.5
6.56601489910111
% es.EY (V/m) @ t=0.5
-1.0060947120606905
% es.EZ (V/m) @ t=0.5
5.245617718582105
% es.tEX (V/m) @ t=0.5
6.566014899101136
% es.tEY (V/m) @ t=0.5
0
% es.tEZ (V/m) @ t=0.5
5.245617718582098
% es.Ex (V/m) @ t=0.5
6.56601489910111
% es.Ey (V/m) @ t=0.5
-1.0060947120606905
% es.Ez (V/m) @ t=0.5
5.245617718582105
% es.tEx (V/m) @ t=0.5
6.566014899101136
% es.tEy (V/m) @ t=0.5
0
% es.tEz (V/m) @ t=0.5
5.245617718582098
% V (V) @ t=0.5
0.00699765605967679
% es.normE (V/m) @ t=0.52
8.549275410811335
% es.EX (V/m) @ t=0.52
6.62465685784965
% es.EY (V/m) @ t=0.52
-1.0150792580133068
% es.EZ (V/m) @ t=0.52
5.292473695766681
% es.tEX (V/m) @ t=0.52
6.62465685784967
% es.tEY (V/m) @ t=0.52
0
% es.tEZ (V/m) @ t=0.52
5.2924736957666925
% es.Ex (V/m) @ t=0.52
6.62465685784965
% es.Ey (V/m) @ t=0.52
-1.0150792580133068
% es.Ez (V/m) @ t=0.52
5.292473695766681
% es.tEx (V/m) @ t=0.52
6.62465685784967
% es.tEy (V/m) @ t=0.52
0
% es.tEz (V/m) @ t=0.52
5.2924736957666925
% V (V) @ t=0.52
0.007060147344333882
% es.normE (V/m) @ t=0.54
8.624958059627833
% es.EX (V/m) @ t=0.54
6.683298816598192
% es.EY (V/m) @ t=0.54
-1.024063803965916
% es.EZ (V/m) @ t=0.54
5.339329672951267
% es.tEX (V/m) @ t=0.54
6.683298816598233
% es.tEY (V/m) @ t=0.54
0
% es.tEZ (V/m) @ t=0.54
5.3393296729512665
% es.Ex (V/m) @ t=0.54
6.683298816598192
% es.Ey (V/m) @ t=0.54
-1.024063803965916
% es.Ez (V/m) @ t=0.54
5.339329672951267
% es.tEx (V/m) @ t=0.54
6.683298816598233
% es.tEy (V/m) @ t=0.54
0
% es.tEz (V/m) @ t=0.54
5.3393296729512665
% V (V) @ t=0.54
0.007122638628990973
% es.normE (V/m) @ t=0.56
8.707792129364467
% es.EX (V/m) @ t=0.56
6.747488277181542
% es.EY (V/m) @ t=0.56
-1.0339004334166244
% es.EZ (V/m) @ t=0.56
5.390604171946125
% es.tEX (V/m) @ t=0.56
6.747488277181552
% es.tEY (V/m) @ t=0.56
0
% es.tEZ (V/m) @ t=0.56
5.3906041719461255
% es.Ex (V/m) @ t=0.56
6.747488277181542
% es.Ey (V/m) @ t=0.56
-1.0339004334166244
% es.Ez (V/m) @ t=0.56
5.390604171946125
% es.tEx (V/m) @ t=0.56
6.747488277181552
% es.tEy (V/m) @ t=0.56
0
% es.tEz (V/m) @ t=0.56
5.3906041719461255
% V (V) @ t=0.56
0.00719105360454865
% es.normE (V/m) @ t=0.58
8.792290625090821
% es.EX (V/m) @ t=0.58
6.8129688666590305
% es.EY (V/m) @ t=0.58
-1.043935377290186
% es.EZ (V/m) @ t=0.58
5.442907040349122
% es.tEX (V/m) @ t=0.58
6.81296886665907
% es.tEY (V/m) @ t=0.58
0
% es.tEZ (V/m) @ t=0.58
5.442907040349123
% es.Ex (V/m) @ t=0.58
6.8129688666590305
% es.Ey (V/m) @ t=0.58
-1.043935377290186
% es.Ez (V/m) @ t=0.58
5.442907040349122
% es.tEx (V/m) @ t=0.58
6.81296886665907
% es.tEy (V/m) @ t=0.58
0
% es.tEz (V/m) @ t=0.58
5.442907040349123
% V (V) @ t=0.58
0.007260847263468555
% es.normE (V/m) @ t=0.6
8.87678912082709
% es.EX (V/m) @ t=0.6
6.878449456136506
% es.EY (V/m) @ t=0.6
-1.053970321163714
% es.EZ (V/m) @ t=0.6
5.495209908752119
% es.tEX (V/m) @ t=0.6
6.878449456136519
% es.tEY (V/m) @ t=0.6
0
% es.tEZ (V/m) @ t=0.6
5.49520990875212
% es.Ex (V/m) @ t=0.6
6.878449456136506
% es.Ey (V/m) @ t=0.6
-1.053970321163714
% es.Ez (V/m) @ t=0.6
5.495209908752119
% es.tEx (V/m) @ t=0.6
6.878449456136519
% es.tEy (V/m) @ t=0.6
0
% es.tEz (V/m) @ t=0.6
5.49520990875212
% V (V) @ t=0.6
0.007330640922388457
% es.normE (V/m) @ t=0.62
8.961287616572989
% es.EX (V/m) @ t=0.62
6.943930045613959
% es.EY (V/m) @ t=0.62
-1.0640052650372986
% es.EZ (V/m) @ t=0.62
5.547512777155106
% es.tEX (V/m) @ t=0.62
6.943930045613993
% es.tEY (V/m) @ t=0.62
0
% es.tEZ (V/m) @ t=0.62
5.547512777155104
% es.Ex (V/m) @ t=0.62
6.943930045613959
% es.Ey (V/m) @ t=0.62
-1.0640052650372986
% es.Ez (V/m) @ t=0.62
5.547512777155106
% es.tEx (V/m) @ t=0.62
6.943930045613993
% es.tEy (V/m) @ t=0.62
0
% es.tEz (V/m) @ t=0.62
5.547512777155104
% V (V) @ t=0.62
0.00740043458130836
% es.normE (V/m) @ t=0.64
9.045786112328301
% es.EX (V/m) @ t=0.64
7.009410635091462
% es.EY (V/m) @ t=0.64
-1.0740402089108354
% es.EZ (V/m) @ t=0.64
5.5998156455581025
% es.tEX (V/m) @ t=0.64
7.009410635091483
% es.tEY (V/m) @ t=0.64
0
% es.tEZ (V/m) @ t=0.64
5.599815645558102
% es.Ex (V/m) @ t=0.64
7.009410635091462
% es.Ey (V/m) @ t=0.64
-1.0740402089108354
% es.Ez (V/m) @ t=0.64
5.5998156455581025
% es.tEx (V/m) @ t=0.64
7.009410635091483
% es.tEy (V/m) @ t=0.64
0
% es.tEz (V/m) @ t=0.64
5.599815645558102
% V (V) @ t=0.64
0.007470228240228265
% es.normE (V/m) @ t=0.66
9.130284608092708
% es.EX (V/m) @ t=0.66
7.07489122456893
% es.EY (V/m) @ t=0.66
-1.0840751527843917
% es.EZ (V/m) @ t=0.66
5.6521185139611
% es.tEX (V/m) @ t=0.66
7.074891224568959
% es.tEY (V/m) @ t=0.66
0
% es.tEZ (V/m) @ t=0.66
5.652118513961086
% es.Ex (V/m) @ t=0.66
7.07489122456893
% es.Ey (V/m) @ t=0.66
-1.0840751527843917
% es.Ez (V/m) @ t=0.66
5.6521185139611
% es.tEx (V/m) @ t=0.66
7.074891224568959
% es.tEy (V/m) @ t=0.66
0
% es.tEz (V/m) @ t=0.66
5.652118513961086
% V (V) @ t=0.66
0.0075400218991481666
% es.normE (V/m) @ t=0.68
9.214783103865972
% es.EX (V/m) @ t=0.68
7.140371814046397
% es.EY (V/m) @ t=0.68
-1.0941100966579338
% es.EZ (V/m) @ t=0.68
5.704421382364087
% es.tEX (V/m) @ t=0.68
7.140371814046434
% es.tEY (V/m) @ t=0.68
0
% es.tEZ (V/m) @ t=0.68
5.7044213823640835
% es.Ex (V/m) @ t=0.68
7.140371814046397
% es.Ey (V/m) @ t=0.68
-1.0941100966579338
% es.Ez (V/m) @ t=0.68
5.704421382364087
% es.tEx (V/m) @ t=0.68
7.140371814046434
% es.tEy (V/m) @ t=0.68
0
% es.tEz (V/m) @ t=0.68
5.7044213823640835
% V (V) @ t=0.68
0.007609815558068071
% es.normE (V/m) @ t=0.7
9.299281599647887
% es.EX (V/m) @ t=0.7
7.2058524035238865
% es.EY (V/m) @ t=0.7
-1.1041450405314848
% es.EZ (V/m) @ t=0.7
5.756724250767087
% es.tEX (V/m) @ t=0.7
7.205852403523911
% es.tEY (V/m) @ t=0.7
0
% es.tEZ (V/m) @ t=0.7
5.756724250767073
% es.Ex (V/m) @ t=0.7
7.2058524035238865
% es.Ey (V/m) @ t=0.7
-1.1041450405314848
% es.Ez (V/m) @ t=0.7
5.756724250767087
% es.tEx (V/m) @ t=0.7
7.205852403523911
% es.tEy (V/m) @ t=0.7
0
% es.tEz (V/m) @ t=0.7
5.756724250767073
% V (V) @ t=0.7
0.007679609216987976
% es.normE (V/m) @ t=0.72
9.383780095438185
% es.EX (V/m) @ t=0.72
7.271332993001368
% es.EY (V/m) @ t=0.72
-1.1141799844050517
% es.EZ (V/m) @ t=0.72
5.809027119170081
% es.tEX (V/m) @ t=0.72
7.271332993001385
% es.tEY (V/m) @ t=0.72
0
% es.tEZ (V/m) @ t=0.72
5.809027119170072
% es.Ex (V/m) @ t=0.72
7.271332993001368
% es.Ey (V/m) @ t=0.72
-1.1141799844050517
% es.Ez (V/m) @ t=0.72
5.809027119170081
% es.tEx (V/m) @ t=0.72
7.271332993001385
% es.tEy (V/m) @ t=0.72
0
% es.tEz (V/m) @ t=0.72
5.809027119170072
% V (V) @ t=0.72
0.007749402875907877
% es.normE (V/m) @ t=0.74
9.468278591236597
% es.EX (V/m) @ t=0.74
7.3368135824787934
% es.EY (V/m) @ t=0.74
-1.1242149282785903
% es.EZ (V/m) @ t=0.74
5.861329987573065
% es.tEX (V/m) @ t=0.74
7.336813582478833
% es.tEY (V/m) @ t=0.74
0
% es.tEZ (V/m) @ t=0.74
5.861329987573069
% es.Ex (V/m) @ t=0.74
7.3368135824787934
% es.Ey (V/m) @ t=0.74
-1.1242149282785903
% es.Ez (V/m) @ t=0.74
5.861329987573065
% es.tEx (V/m) @ t=0.74
7.336813582478833
% es.tEy (V/m) @ t=0.74
0
% es.tEz (V/m) @ t=0.74
5.861329987573069
% V (V) @ t=0.74
0.007819196534827782
% es.normE (V/m) @ t=0.76
9.55277708704299
% es.EX (V/m) @ t=0.76
7.402294171956247
% es.EY (V/m) @ t=0.76
-1.134249872152152
% es.EZ (V/m) @ t=0.76
5.913632855976061
% es.tEX (V/m) @ t=0.76
7.402294171956281
% es.tEY (V/m) @ t=0.76
0
% es.tEZ (V/m) @ t=0.76
5.9136328559760525
% es.Ex (V/m) @ t=0.76
7.402294171956247
% es.Ey (V/m) @ t=0.76
-1.134249872152152
% es.Ez (V/m) @ t=0.76
5.913632855976061
% es.tEx (V/m) @ t=0.76
7.402294171956281
% es.tEy (V/m) @ t=0.76
0
% es.tEz (V/m) @ t=0.76
5.9136328559760525
% V (V) @ t=0.76
0.007888990193747685
% es.normE (V/m) @ t=0.78
9.63727558285716
% es.EX (V/m) @ t=0.78
7.467774761433736
% es.EY (V/m) @ t=0.78
-1.1442848160257064
% es.EZ (V/m) @ t=0.78
5.965935724379073
% es.tEX (V/m) @ t=0.78
7.4677747614337555
% es.tEY (V/m) @ t=0.78
0
% es.tEZ (V/m) @ t=0.78
5.965935724379065
% es.Ex (V/m) @ t=0.78
7.467774761433736
% es.Ey (V/m) @ t=0.78
-1.1442848160257064
% es.Ez (V/m) @ t=0.78
5.965935724379073
% es.tEx (V/m) @ t=0.78
7.4677747614337555
% es.tEy (V/m) @ t=0.78
0
% es.tEz (V/m) @ t=0.78
5.965935724379065
% V (V) @ t=0.78
0.007958783852667588
% es.normE (V/m) @ t=0.8
9.721774078678841
% es.EX (V/m) @ t=0.8
7.533255350911218
% es.EY (V/m) @ t=0.8
-1.1543197598992379
% es.EZ (V/m) @ t=0.8
6.018238592782049
% es.tEX (V/m) @ t=0.8
7.533255350911245
% es.tEY (V/m) @ t=0.8
0
% es.tEZ (V/m) @ t=0.8
6.0182385927820485
% es.Ex (V/m) @ t=0.8
7.533255350911218
% es.Ey (V/m) @ t=0.8
-1.1543197598992379
% es.Ez (V/m) @ t=0.8
6.018238592782049
% es.tEx (V/m) @ t=0.8
7.533255350911245
% es.tEy (V/m) @ t=0.8
0
% es.tEz (V/m) @ t=0.8
6.0182385927820485
% V (V) @ t=0.8
0.008028577511587491
% es.normE (V/m) @ t=0.82
9.808463029025035
% es.EX (V/m) @ t=0.82
7.600430451852665
% es.EY (V/m) @ t=0.82
-1.1646133840027115
% es.EZ (V/m) @ t=0.82
6.0719015171137745
% es.tEX (V/m) @ t=0.82
7.600430451852672
% es.tEY (V/m) @ t=0.82
0
% es.tEZ (V/m) @ t=0.82
6.071901517113781
% es.Ex (V/m) @ t=0.82
7.600430451852665
% es.Ey (V/m) @ t=0.82
-1.1646133840027115
% es.Ez (V/m) @ t=0.82
6.0719015171137745
% es.tEx (V/m) @ t=0.82
7.600430451852672
% es.tEy (V/m) @ t=0.82
0
% es.tEz (V/m) @ t=0.82
6.071901517113781
% V (V) @ t=0.82
0.008100171666058826
% es.normE (V/m) @ t=0.84
9.902838331649683
% es.EX (V/m) @ t=0.84
7.6735516301531685
% es.EY (V/m) @ t=0.84
-1.1758147226250628
% es.EZ (V/m) @ t=0.84
6.13033690710118
% es.tEX (V/m) @ t=0.84
7.673551630153197
% es.tEY (V/m) @ t=0.84
0
% es.tEZ (V/m) @ t=0.84
6.130336907101175
% es.Ex (V/m) @ t=0.84
7.6735516301531685
% es.Ey (V/m) @ t=0.84
-1.1758147226250628
% es.Ez (V/m) @ t=0.84
6.13033690710118
% es.tEx (V/m) @ t=0.84
7.673551630153197
% es.tEy (V/m) @ t=0.84
0
% es.tEz (V/m) @ t=0.84
6.130336907101175
% V (V) @ t=0.84
0.008178083798343392
% es.normE (V/m) @ t=0.86
9.997213634308991
% es.EX (V/m) @ t=0.86
7.746672808453651
% es.EY (V/m) @ t=0.86
-1.1870160612474177
% es.EZ (V/m) @ t=0.86
6.188772297088599
% es.tEX (V/m) @ t=0.86
7.7466728084536784
% es.tEY (V/m) @ t=0.86
0
% es.tEZ (V/m) @ t=0.86
6.188772297088599
% es.Ex (V/m) @ t=0.86
7.746672808453651
% es.Ey (V/m) @ t=0.86
-1.1870160612474177
% es.Ez (V/m) @ t=0.86
6.188772297088599
% es.tEx (V/m) @ t=0.86
7.7466728084536784
% es.tEy (V/m) @ t=0.86
0
% es.tEz (V/m) @ t=0.86
6.188772297088599
% V (V) @ t=0.86
0.008255995930627959
% es.normE (V/m) @ t=0.88
10.091588937002
% es.EX (V/m) @ t=0.88
7.819793986754162
% es.EY (V/m) @ t=0.88
-1.198217399869801
% es.EZ (V/m) @ t=0.88
6.247207687075997
% es.tEX (V/m) @ t=0.88
7.819793986754189
% es.tEY (V/m) @ t=0.88
0
% es.tEZ (V/m) @ t=0.88
6.247207687076015
% es.Ex (V/m) @ t=0.88
7.819793986754162
% es.Ey (V/m) @ t=0.88
-1.198217399869801
% es.Ez (V/m) @ t=0.88
6.247207687075997
% es.tEx (V/m) @ t=0.88
7.819793986754189
% es.tEy (V/m) @ t=0.88
0
% es.tEz (V/m) @ t=0.88
6.247207687076015
% V (V) @ t=0.88
0.008333908062912527
% es.normE (V/m) @ t=0.9
10.185964239727756
% es.EX (V/m) @ t=0.9
7.892915165054637
% es.EY (V/m) @ t=0.9
-1.2094187384921593
% es.EZ (V/m) @ t=0.9
6.305643077063438
% es.tEX (V/m) @ t=0.9
7.8929151650546725
% es.tEY (V/m) @ t=0.9
0
% es.tEZ (V/m) @ t=0.9
6.305643077063423
% es.Ex (V/m) @ t=0.9
7.892915165054637
% es.Ey (V/m) @ t=0.9
-1.2094187384921593
% es.Ez (V/m) @ t=0.9
6.305643077063438
% es.tEx (V/m) @ t=0.9
7.8929151650546725
% es.tEy (V/m) @ t=0.9
0
% es.tEz (V/m) @ t=0.9
6.305643077063423
% V (V) @ t=0.9
0.008411820195197092
% es.normE (V/m) @ t=0.92
10.280339542485386
% es.EX (V/m) @ t=0.92
7.966036343355176
% es.EY (V/m) @ t=0.92
-1.2206200771145301
% es.EZ (V/m) @ t=0.92
6.364078467050826
% es.tEX (V/m) @ t=0.92
7.966036343355183
% es.tEY (V/m) @ t=0.92
0
% es.tEZ (V/m) @ t=0.92
6.36407846705084
% es.Ex (V/m) @ t=0.92
7.966036343355176
% es.Ey (V/m) @ t=0.92
-1.2206200771145301
% es.Ez (V/m) @ t=0.92
6.364078467050826
% es.tEx (V/m) @ t=0.92
7.966036343355183
% es.tEy (V/m) @ t=0.92
0
% es.tEz (V/m) @ t=0.92
6.36407846705084
% V (V) @ t=0.92
0.00848973232748166
% es.normE (V/m) @ t=0.94
10.374714845273981
% es.EX (V/m) @ t=0.94
8.039157521655666
% es.EY (V/m) @ t=0.94
-1.2318214157368956
% es.EZ (V/m) @ t=0.94
6.422513857038252
% es.tEX (V/m) @ t=0.94
8.039157521655694
% es.tEY (V/m) @ t=0.94
0
% es.tEZ (V/m) @ t=0.94
6.422513857038242
% es.Ex (V/m) @ t=0.94
8.039157521655666
% es.Ey (V/m) @ t=0.94
-1.2318214157368956
% es.Ez (V/m) @ t=0.94
6.422513857038252
% es.tEx (V/m) @ t=0.94
8.039157521655694
% es.tEy (V/m) @ t=0.94
0
% es.tEz (V/m) @ t=0.94
6.422513857038242
% V (V) @ t=0.94
0.008567644459766228
% es.normE (V/m) @ t=0.96
10.469090148092722
% es.EX (V/m) @ t=0.96
8.11227869995617
% es.EY (V/m) @ t=0.96
-1.2430227543592505
% es.EZ (V/m) @ t=0.96
6.4809492470256576
% es.tEX (V/m) @ t=0.96
8.11227869995619
% es.tEY (V/m) @ t=0.96
0
% es.tEZ (V/m) @ t=0.96
6.480949247025672
% es.Ex (V/m) @ t=0.96
8.11227869995617
% es.Ey (V/m) @ t=0.96
-1.2430227543592505
% es.Ez (V/m) @ t=0.96
6.4809492470256576
% es.tEx (V/m) @ t=0.96
8.11227869995619
% es.tEy (V/m) @ t=0.96
0
% es.tEz (V/m) @ t=0.96
6.480949247025672
% V (V) @ t=0.96
0.008645556592050794
% es.normE (V/m) @ t=0.98
10.563465450940798
% es.EX (V/m) @ t=0.98
8.185399878256673
% es.EY (V/m) @ t=0.98
-1.2542240929816142
% es.EZ (V/m) @ t=0.98
6.539384637013063
% es.tEX (V/m) @ t=0.98
8.1853998782567
% es.tEY (V/m) @ t=0.98
0
% es.tEZ (V/m) @ t=0.98
6.539384637013052
% es.Ex (V/m) @ t=0.98
8.185399878256673
% es.Ey (V/m) @ t=0.98
-1.2542240929816142
% es.Ez (V/m) @ t=0.98
6.539384637013063
% es.tEx (V/m) @ t=0.98
8.1853998782567
% es.tEy (V/m) @ t=0.98
0
% es.tEz (V/m) @ t=0.98
6.539384637013052
% V (V) @ t=0.98
0.00872346872433536
% es.normE (V/m) @ t=1
10.657840753817442
% es.EX (V/m) @ t=1
8.258521056557177
% es.EY (V/m) @ t=1
-1.2654254316039655
% es.EZ (V/m) @ t=1
6.597820027000482
% es.tEX (V/m) @ t=1
8.258521056557182
% es.tEY (V/m) @ t=1
0
% es.tEZ (V/m) @ t=1
6.597820027000475
% es.Ex (V/m) @ t=1
8.258521056557177
% es.Ey (V/m) @ t=1
-1.2654254316039655
% es.Ez (V/m) @ t=1
6.597820027000482
% es.tEx (V/m) @ t=1
8.258521056557182
% es.tEy (V/m) @ t=1
0
% es.tEz (V/m) @ t=1
6.597820027000475
% V (V) @ t=1
0.008801380856619927
% es.normE (V/m) @ t=1.02
10.752216056721885
% es.EX (V/m) @ t=1.02
8.33164223485768
% es.EY (V/m) @ t=1.02
-1.2766267702263416
% es.EZ (V/m) @ t=1.02
6.656255416987895
% es.tEX (V/m) @ t=1.02
8.331642234857695
% es.tEY (V/m) @ t=1.02
0
% es.tEZ (V/m) @ t=1.02
6.65625541698789
% es.Ex (V/m) @ t=1.02
8.33164223485768
% es.Ey (V/m) @ t=1.02
-1.2766267702263416
% es.Ez (V/m) @ t=1.02
6.656255416987895
% es.tEx (V/m) @ t=1.02
8.331642234857695
% es.tEy (V/m) @ t=1.02
0
% es.tEz (V/m) @ t=1.02
6.65625541698789
% V (V) @ t=1.02
0.008879292988904495
% es.normE (V/m) @ t=1.04
10.846591359653422
% es.EX (V/m) @ t=1.04
8.404763413158184
% es.EY (V/m) @ t=1.04
-1.2878281088486965
% es.EZ (V/m) @ t=1.04
6.714690806975325
% es.tEX (V/m) @ t=1.04
8.404763413158232
% es.tEY (V/m) @ t=1.04
0
% es.tEZ (V/m) @ t=1.04
6.714690806975322
% es.Ex (V/m) @ t=1.04
8.404763413158184
% es.Ey (V/m) @ t=1.04
-1.2878281088486965
% es.Ez (V/m) @ t=1.04
6.714690806975325
% es.tEx (V/m) @ t=1.04
8.404763413158232
% es.tEy (V/m) @ t=1.04
0
% es.tEz (V/m) @ t=1.04
6.714690806975322
% V (V) @ t=1.04
0.00895720512118906
% es.normE (V/m) @ t=1.06
10.940966662611313
% es.EX (V/m) @ t=1.06
8.47788459145868
% es.EY (V/m) @ t=1.06
-1.2990294474710584
% es.EZ (V/m) @ t=1.06
6.7731261969627266
% es.tEX (V/m) @ t=1.06
8.47788459145873
% es.tEY (V/m) @ t=1.06
0