% Model:              1 neuron.mph
% Version:            COMSOL 6.0.0.405
% Date:               Mar 16 2023, 17:14
% Dimension:          0
% Nodes:              14017
% Expressions:        14017
% Description:        Electric field norm, Electric field, X component, Electric field, Y component, Electric field, Z component, Tangential electric field, X component, Tangential electric field, Y component, Tangential electric field, Z component, Electric field, x component, Electric field, y component, Electric field, z component, Tangential electric field, x component, Tangential electric field, y component, Tangential electric field, z component, Electric potential
% Length unit:        mm
% x
1.3300000000000003
% y
12.200000000000001
% z
1.66
% es.normE (V/m) @ t=0
7.283223695923583
% es.EX (V/m) @ t=0
4.621929309224857
% es.EY (V/m) @ t=0
1.3821184412058907
% es.EZ (V/m) @ t=0
-5.0627150208910905
% es.tEX (V/m) @ t=0
4.621929309224848
% es.tEY (V/m) @ t=0
0
% es.tEZ (V/m) @ t=0
-5.062715020891075
% es.Ex (V/m) @ t=0
4.621929309224857
% es.Ey (V/m) @ t=0
1.3821184412058907
% es.Ez (V/m) @ t=0
-5.0627150208910905
% es.tEx (V/m) @ t=0
4.621929309224848
% es.tEy (V/m) @ t=0
0
% es.tEz (V/m) @ t=0
-5.062715020891075
% V (V) @ t=0
0.00623865297831161
% es.normE (V/m) @ t=0.02
6.290654677212437
% es.EX (V/m) @ t=0.02
3.992045621257166
% es.EY (V/m) @ t=0.02
1.1937612097118433
% es.EZ (V/m) @ t=0.02
-4.372760366001588
% es.tEX (V/m) @ t=0.02
3.992045621257148
% es.tEY (V/m) @ t=0.02
0
% es.tEZ (V/m) @ t=0.02
-4.372760366001577
% es.Ex (V/m) @ t=0.02
3.992045621257166
% es.Ey (V/m) @ t=0.02
1.1937612097118433
% es.Ez (V/m) @ t=0.02
-4.372760366001588
% es.tEx (V/m) @ t=0.02
3.992045621257148
% es.tEy (V/m) @ t=0.02
0
% es.tEz (V/m) @ t=0.02
-4.372760366001577
% V (V) @ t=0.02
0.005388439608964773
% es.normE (V/m) @ t=0.04
6.348512415367148
% es.EX (V/m) @ t=0.04
4.028762106286043
% es.EY (V/m) @ t=0.04
1.204740721524288
% es.EZ (V/m) @ t=0.04
-4.41297844150481
% es.tEX (V/m) @ t=0.04
4.028762106286029
% es.tEY (V/m) @ t=0.04
0
% es.tEZ (V/m) @ t=0.04
-4.412978441504799
% es.Ex (V/m) @ t=0.04
4.028762106286043
% es.Ey (V/m) @ t=0.04
1.204740721524288
% es.Ez (V/m) @ t=0.04
-4.41297844150481
% es.tEx (V/m) @ t=0.04
4.028762106286029
% es.tEy (V/m) @ t=0.04
0
% es.tEz (V/m) @ t=0.04
-4.412978441504799
% V (V) @ t=0.04
0.005437999308936756
% es.normE (V/m) @ t=0.06
6.406886381576923
% es.EX (V/m) @ t=0.06
4.0658061864663155
% es.EY (V/m) @ t=0.06
1.2158181897723166
% es.EZ (V/m) @ t=0.06
-4.453555358402145
% es.tEX (V/m) @ t=0.06
4.0658061864663075
% es.tEY (V/m) @ t=0.06
0
% es.tEZ (V/m) @ t=0.06
-4.453555358402138
% es.Ex (V/m) @ t=0.06
4.0658061864663155
% es.Ey (V/m) @ t=0.06
1.2158181897723166
% es.Ez (V/m) @ t=0.06
-4.453555358402145
% es.tEx (V/m) @ t=0.06
4.0658061864663075
% es.tEy (V/m) @ t=0.06
0
% es.tEz (V/m) @ t=0.06
-4.453555358402138
% V (V) @ t=0.06
0.005488001235453504
% es.normE (V/m) @ t=0.08
6.4661639612078385
% es.EX (V/m) @ t=0.08
4.103423698834925
% es.EY (V/m) @ t=0.08
1.2270671335070311
% es.EZ (V/m) @ t=0.08
-4.4947603952280595
% es.tEX (V/m) @ t=0.08
4.1034236988349075
% es.tEY (V/m) @ t=0.08
0
% es.tEZ (V/m) @ t=0.08
-4.494760395228049
% es.Ex (V/m) @ t=0.08
4.103423698834925
% es.Ey (V/m) @ t=0.08
1.2270671335070311
% es.Ez (V/m) @ t=0.08
-4.4947603952280595
% es.tEx (V/m) @ t=0.08
4.1034236988349075
% es.tEy (V/m) @ t=0.08
0
% es.tEz (V/m) @ t=0.08
-4.494760395228049
% V (V) @ t=0.08
0.005538777182397096
% es.normE (V/m) @ t=0.1
6.52604352915229
% es.EX (V/m) @ t=0.1
4.1414232323952405
% es.EY (V/m) @ t=0.1
1.2384303144106859
% es.EZ (V/m) @ t=0.1
-4.536383886281923
% es.tEX (V/m) @ t=0.1
4.141423232395226
% es.tEY (V/m) @ t=0.1
0
% es.tEZ (V/m) @ t=0.1
-4.536383886281913
% es.Ex (V/m) @ t=0.1
4.1414232323952405
% es.Ey (V/m) @ t=0.1
1.2384303144106859
% es.Ez (V/m) @ t=0.1
-4.536383886281923
% es.tEx (V/m) @ t=0.1
4.141423232395226
% es.tEy (V/m) @ t=0.1
0
% es.tEz (V/m) @ t=0.1
-4.536383886281913
% V (V) @ t=0.1
0.005590068782650489
% es.normE (V/m) @ t=0.12
6.585923097096741
% es.EX (V/m) @ t=0.12
4.179422765955556
% es.EY (V/m) @ t=0.12
1.2497934953143153
% es.EZ (V/m) @ t=0.12
-4.578007377335791
% es.tEX (V/m) @ t=0.12
4.179422765955541
% es.tEY (V/m) @ t=0.12
0
% es.tEZ (V/m) @ t=0.12
-4.5780073773357834
% es.Ex (V/m) @ t=0.12
4.179422765955556
% es.Ey (V/m) @ t=0.12
1.2497934953143153
% es.Ez (V/m) @ t=0.12
-4.578007377335791
% es.tEx (V/m) @ t=0.12
4.179422765955541
% es.tEy (V/m) @ t=0.12
0
% es.tEz (V/m) @ t=0.12
-4.5780073773357834
% V (V) @ t=0.12
0.005641360382903881
% es.normE (V/m) @ t=0.14
6.64647239636035
% es.EX (V/m) @ t=0.14
4.217847310444712
% es.EY (V/m) @ t=0.14
1.261283768989238
% es.EZ (V/m) @ t=0.14
-4.62009641212652
% es.tEX (V/m) @ t=0.14
4.217847310444704
% es.tEY (V/m) @ t=0.14
0
% es.tEZ (V/m) @ t=0.14
-4.620096412126516
% es.Ex (V/m) @ t=0.14
4.217847310444712
% es.Ey (V/m) @ t=0.14
1.261283768989238
% es.Ez (V/m) @ t=0.14
-4.62009641212652
% es.tEx (V/m) @ t=0.14
4.217847310444704
% es.tEy (V/m) @ t=0.14
0
% es.tEz (V/m) @ t=0.14
-4.620096412126516
% V (V) @ t=0.14
0.005693225662694919
% es.normE (V/m) @ t=0.16
6.709537117347707
% es.EX (V/m) @ t=0.16
4.257868139432855
% es.EY (V/m) @ t=0.16
1.2732513862027013
% es.EZ (V/m) @ t=0.16
-4.663933967250026
% es.tEX (V/m) @ t=0.16
4.257868139432848
% es.tEY (V/m) @ t=0.16
0
% es.tEZ (V/m) @ t=0.16
-4.663933967250015
% es.Ex (V/m) @ t=0.16
4.257868139432855
% es.Ey (V/m) @ t=0.16
1.2732513862027013
% es.Ez (V/m) @ t=0.16
-4.663933967250026
% es.tEx (V/m) @ t=0.16
4.257868139432848
% es.tEy (V/m) @ t=0.16
0
% es.tEz (V/m) @ t=0.16
-4.663933967250015
% V (V) @ t=0.16
0.005747245606498464
% es.normE (V/m) @ t=0.18
6.772601838335072
% es.EX (V/m) @ t=0.18
4.2978889684210095
% es.EY (V/m) @ t=0.18
1.2852190034161808
% es.EZ (V/m) @ t=0.18
-4.707771522373542
% es.tEX (V/m) @ t=0.18
4.297888968421002
% es.tEY (V/m) @ t=0.18
0
% es.tEZ (V/m) @ t=0.18
-4.707771522373528
% es.Ex (V/m) @ t=0.18
4.2978889684210095
% es.Ey (V/m) @ t=0.18
1.2852190034161808
% es.Ez (V/m) @ t=0.18
-4.707771522373542
% es.tEx (V/m) @ t=0.18
4.297888968421002
% es.tEy (V/m) @ t=0.18
0
% es.tEz (V/m) @ t=0.18
-4.707771522373528
% V (V) @ t=0.18
0.00580126555030201
% es.normE (V/m) @ t=0.2
6.835666559322428
% es.EX (V/m) @ t=0.2
4.337909797409161
% es.EY (V/m) @ t=0.2
1.2971866206296532
% es.EZ (V/m) @ t=0.2
-4.75160907749704
% es.tEX (V/m) @ t=0.2
4.337909797409146
% es.tEY (V/m) @ t=0.2
0
% es.tEZ (V/m) @ t=0.2
-4.751609077497026
% es.Ex (V/m) @ t=0.2
4.337909797409161
% es.Ey (V/m) @ t=0.2
1.2971866206296532
% es.Ez (V/m) @ t=0.2
-4.75160907749704
% es.tEx (V/m) @ t=0.2
4.337909797409146
% es.tEy (V/m) @ t=0.2
0
% es.tEz (V/m) @ t=0.2
-4.751609077497026
% V (V) @ t=0.2
0.005855285494105555
% es.normE (V/m) @ t=0.22
6.898731280309786
% es.EX (V/m) @ t=0.22
4.377930626397314
% es.EY (V/m) @ t=0.22
1.3091542378431114
% es.EZ (V/m) @ t=0.22
-4.795446632620545
% es.tEX (V/m) @ t=0.22
4.3779306263972995
% es.tEY (V/m) @ t=0.22
0
% es.tEZ (V/m) @ t=0.22
-4.795446632620535
% es.Ex (V/m) @ t=0.22
4.377930626397314
% es.Ey (V/m) @ t=0.22
1.3091542378431114
% es.Ez (V/m) @ t=0.22
-4.795446632620545
% es.tEx (V/m) @ t=0.22
4.3779306263972995
% es.tEy (V/m) @ t=0.22
0
% es.tEz (V/m) @ t=0.22
-4.795446632620535
% V (V) @ t=0.22
0.005909305437909101
% es.normE (V/m) @ t=0.24
6.961796001297158
% es.EX (V/m) @ t=0.24
4.417951455385461
% es.EY (V/m) @ t=0.24
1.3211218550566015
% es.EZ (V/m) @ t=0.24
-4.839284187744065
% es.tEX (V/m) @ t=0.24
4.417951455385451
% es.tEY (V/m) @ t=0.24
0
% es.tEZ (V/m) @ t=0.24
-4.839284187744058
% es.Ex (V/m) @ t=0.24
4.417951455385461
% es.Ey (V/m) @ t=0.24
1.3211218550566015
% es.Ez (V/m) @ t=0.24
-4.839284187744065
% es.tEx (V/m) @ t=0.24
4.417951455385451
% es.tEy (V/m) @ t=0.24
0
% es.tEz (V/m) @ t=0.24
-4.839284187744058
% V (V) @ t=0.24
0.005963325381712646
% es.normE (V/m) @ t=0.26
7.024860722284515
% es.EX (V/m) @ t=0.26
4.4579722843736
% es.EY (V/m) @ t=0.26
1.333089472270081
% es.EZ (V/m) @ t=0.26
-4.883121742867578
% es.tEX (V/m) @ t=0.26
4.45797228437359
% es.tEY (V/m) @ t=0.26
0
% es.tEZ (V/m) @ t=0.26
-4.883121742867563
% es.Ex (V/m) @ t=0.26
4.4579722843736
% es.Ey (V/m) @ t=0.26
1.333089472270081
% es.Ez (V/m) @ t=0.26
-4.883121742867578
% es.tEx (V/m) @ t=0.26
4.45797228437359
% es.tEy (V/m) @ t=0.26
0
% es.tEz (V/m) @ t=0.26
-4.883121742867563
% V (V) @ t=0.26
0.0060173453255161925
% es.normE (V/m) @ t=0.28
7.091014855600068
% es.EX (V/m) @ t=0.28
4.499952630714288
% es.EY (V/m) @ t=0.28
1.345640826869725
% es.EZ (V/m) @ t=0.28
-4.92910712827564
% es.tEX (V/m) @ t=0.28
4.499952630714281
% es.tEY (V/m) @ t=0.28
0
% es.tEZ (V/m) @ t=0.28
-4.929107128275633
% es.Ex (V/m) @ t=0.28
4.499952630714288
% es.Ey (V/m) @ t=0.28
1.345640826869725
% es.Ez (V/m) @ t=0.28
-4.92910712827564
% es.tEx (V/m) @ t=0.28
4.499952630714281
% es.tEy (V/m) @ t=0.28
0
% es.tEz (V/m) @ t=0.28
-4.929107128275633
% V (V) @ t=0.28
0.006074025009013574
% es.normE (V/m) @ t=0.3
7.161256502643513
% es.EX (V/m) @ t=0.3
4.544525558817538
% es.EY (V/m) @ t=0.3
1.3589645078279122
% es.EZ (V/m) @ t=0.3
-4.977934246938833
% es.tEX (V/m) @ t=0.3
4.544525558817513
% es.tEY (V/m) @ t=0.3
0
% es.tEZ (V/m) @ t=0.3
-4.977934246938826
% es.Ex (V/m) @ t=0.3
4.544525558817538
% es.Ey (V/m) @ t=0.3
1.3589645078279122
% es.Ez (V/m) @ t=0.3
-4.977934246938833
% es.tEx (V/m) @ t=0.3
4.544525558817513
% es.tEy (V/m) @ t=0.3
0
% es.tEz (V/m) @ t=0.3
-4.977934246938826
% V (V) @ t=0.3
0.006134223718568262
% es.normE (V/m) @ t=0.32
7.231498149700554
% es.EX (V/m) @ t=0.32
4.589098486920772
% es.EY (V/m) @ t=0.32
1.3722881887861296
% es.EZ (V/m) @ t=0.32
-5.0267613656020265
% es.tEX (V/m) @ t=0.32
4.58909848692077
% es.tEY (V/m) @ t=0.32
0
% es.tEZ (V/m) @ t=0.32
-5.026761365602016
% es.Ex (V/m) @ t=0.32
4.589098486920772
% es.Ey (V/m) @ t=0.32
1.3722881887861296
% es.Ez (V/m) @ t=0.32
-5.0267613656020265
% es.tEx (V/m) @ t=0.32
4.58909848692077
% es.tEy (V/m) @ t=0.32
0
% es.tEz (V/m) @ t=0.32
-5.026761365602016
% V (V) @ t=0.32
0.006194422428122948
% es.normE (V/m) @ t=0.34
7.301739796770827
% es.EX (V/m) @ t=0.34
4.633671415024004
% es.EY (V/m) @ t=0.34
1.385611869744349
% es.EZ (V/m) @ t=0.34
-5.075588484265248
% es.tEX (V/m) @ t=0.34
4.633671415023995
% es.tEY (V/m) @ t=0.34
0
% es.tEZ (V/m) @ t=0.34
-5.0755884842652375
% es.Ex (V/m) @ t=0.34
4.633671415024004
% es.Ey (V/m) @ t=0.34
1.385611869744349
% es.Ez (V/m) @ t=0.34
-5.075588484265248
% es.tEx (V/m) @ t=0.34
4.633671415023995
% es.tEy (V/m) @ t=0.34
0
% es.tEz (V/m) @ t=0.34
-5.0755884842652375
% V (V) @ t=0.34
0.006254621137677637
% es.normE (V/m) @ t=0.36
7.371981443853908
% es.EX (V/m) @ t=0.36
4.678244343127246
% es.EY (V/m) @ t=0.36
1.3989355507025358
% es.EZ (V/m) @ t=0.36
-5.124415602928445
% es.tEX (V/m) @ t=0.36
4.6782443431272345
% es.tEY (V/m) @ t=0.36
0
% es.tEZ (V/m) @ t=0.36
-5.124415602928431
% es.Ex (V/m) @ t=0.36
4.678244343127246
% es.Ey (V/m) @ t=0.36
1.3989355507025358
% es.Ez (V/m) @ t=0.36
-5.124415602928445
% es.tEx (V/m) @ t=0.36
4.6782443431272345
% es.tEy (V/m) @ t=0.36
0
% es.tEz (V/m) @ t=0.36
-5.124415602928431
% V (V) @ t=0.36
0.0063148198472323235
% es.normE (V/m) @ t=0.38
7.442223090949463
% es.EX (V/m) @ t=0.38
4.722817271230484
% es.EY (V/m) @ t=0.38
1.4122592316607374
% es.EZ (V/m) @ t=0.38
-5.173242721591645
% es.tEX (V/m) @ t=0.38
4.722817271230467
% es.tEY (V/m) @ t=0.38
0
% es.tEZ (V/m) @ t=0.38
-5.173242721591631
% es.Ex (V/m) @ t=0.38
4.722817271230484
% es.Ey (V/m) @ t=0.38
1.4122592316607374
% es.Ez (V/m) @ t=0.38
-5.173242721591645
% es.tEx (V/m) @ t=0.38
4.722817271230467
% es.tEy (V/m) @ t=0.38
0
% es.tEz (V/m) @ t=0.38
-5.173242721591631
% V (V) @ t=0.38
0.006375018556787012
% es.normE (V/m) @ t=0.4
7.512464738057136
% es.EX (V/m) @ t=0.4
4.767390199333723
% es.EY (V/m) @ t=0.4
1.4255829126189334
% es.EZ (V/m) @ t=0.4
-5.222069840254842
% es.tEX (V/m) @ t=0.4
4.76739019933372
% es.tEY (V/m) @ t=0.4
0
% es.tEZ (V/m) @ t=0.4
-5.222069840254827
% es.Ex (V/m) @ t=0.4
4.767390199333723
% es.Ey (V/m) @ t=0.4
1.4255829126189334
% es.Ez (V/m) @ t=0.4
-5.222069840254842
% es.tEx (V/m) @ t=0.4
4.76739019933372
% es.tEy (V/m) @ t=0.4
0
% es.tEz (V/m) @ t=0.4
-5.222069840254827
% V (V) @ t=0.4
0.006435217266341699
% es.normE (V/m) @ t=0.42
7.582706385176598
% es.EX (V/m) @ t=0.42
4.811963127436959
% es.EY (V/m) @ t=0.42
1.4389065935771508
% es.EZ (V/m) @ t=0.42
-5.270896958918046
% es.tEX (V/m) @ t=0.42
4.811963127436942
% es.tEY (V/m) @ t=0.42
0
% es.tEZ (V/m) @ t=0.42
-5.270896958918032
% es.Ex (V/m) @ t=0.42
4.811963127436959
% es.Ey (V/m) @ t=0.42
1.4389065935771508
% es.Ez (V/m) @ t=0.42
-5.270896958918046
% es.tEx (V/m) @ t=0.42
4.811963127436942
% es.tEy (V/m) @ t=0.42
0
% es.tEz (V/m) @ t=0.42
-5.270896958918032
% V (V) @ t=0.42
0.006495415975896385
% es.normE (V/m) @ t=0.44
7.6529480323075045
% es.EX (V/m) @ t=0.44
4.8565360555401975
% es.EY (V/m) @ t=0.44
1.4522302745353453
% es.EZ (V/m) @ t=0.44
-5.319724077581243
% es.tEX (V/m) @ t=0.44
4.856536055540184
% es.tEY (V/m) @ t=0.44
0
% es.tEZ (V/m) @ t=0.44
-5.319724077581228
% es.Ex (V/m) @ t=0.44
4.8565360555401975
% es.Ey (V/m) @ t=0.44
1.4522302745353453
% es.Ez (V/m) @ t=0.44
-5.319724077581243
% es.tEx (V/m) @ t=0.44
4.856536055540184
% es.tEy (V/m) @ t=0.44
0
% es.tEz (V/m) @ t=0.44
-5.319724077581228
% V (V) @ t=0.44
0.006555614685451072
% es.normE (V/m) @ t=0.46
7.723189679449573
% es.EX (V/m) @ t=0.46
4.901108983643425
% es.EY (V/m) @ t=0.46
1.4655539554935715
% es.EZ (V/m) @ t=0.46
-5.368551196244457
% es.tEX (V/m) @ t=0.46
4.901108983643417
% es.tEY (V/m) @ t=0.46
0
% es.tEZ (V/m) @ t=0.46
-5.3685511962444465
% es.Ex (V/m) @ t=0.46
4.901108983643425
% es.Ey (V/m) @ t=0.46
1.4655539554935715
% es.Ez (V/m) @ t=0.46
-5.368551196244457
% es.tEx (V/m) @ t=0.46
4.901108983643417
% es.tEy (V/m) @ t=0.46
0
% es.tEz (V/m) @ t=0.46
-5.3685511962444465
% V (V) @ t=0.46
0.006615813395005761
% es.normE (V/m) @ t=0.48
7.793431326602482
% es.EX (V/m) @ t=0.48
4.945681911746677
% es.EY (V/m) @ t=0.48
1.4788776364517568
% es.EZ (V/m) @ t=0.48
-5.41737831490765
% es.tEX (V/m) @ t=0.48
4.945681911746661
% es.tEY (V/m) @ t=0.48
0
% es.tEZ (V/m) @ t=0.48
-5.417378314907642
% es.Ex (V/m) @ t=0.48
4.945681911746677
% es.Ey (V/m) @ t=0.48
1.4788776364517568
% es.Ez (V/m) @ t=0.48
-5.41737831490765
% es.tEx (V/m) @ t=0.48
4.945681911746661
% es.tEy (V/m) @ t=0.48
0
% es.tEz (V/m) @ t=0.48
-5.417378314907642
% V (V) @ t=0.48
0.0066760121045604465
% es.normE (V/m) @ t=0.5
7.863672973765934
% es.EX (V/m) @ t=0.5
4.990254839849909
% es.EY (V/m) @ t=0.5
1.492201317409962
% es.EZ (V/m) @ t=0.5
-5.466205433570854
% es.tEX (V/m) @ t=0.5
4.99025483984991
% es.tEY (V/m) @ t=0.5
0
% es.tEZ (V/m) @ t=0.5
-5.466205433570846
% es.Ex (V/m) @ t=0.5
4.990254839849909
% es.Ey (V/m) @ t=0.5
1.492201317409962
% es.Ez (V/m) @ t=0.5
-5.466205433570854
% es.tEx (V/m) @ t=0.5
4.99025483984991
% es.tEy (V/m) @ t=0.5
0
% es.tEz (V/m) @ t=0.5
-5.466205433570846
% V (V) @ t=0.5
0.006736210814115135
% es.normE (V/m) @ t=0.52
7.933914620939654
% es.EX (V/m) @ t=0.52
5.034827767953145
% es.EY (V/m) @ t=0.52
1.505524998368167
% es.EZ (V/m) @ t=0.52
-5.515032552234047
% es.tEX (V/m) @ t=0.52
5.034827767953136
% es.tEY (V/m) @ t=0.52
0
% es.tEZ (V/m) @ t=0.52
-5.5150325522340395
% es.Ex (V/m) @ t=0.52
5.034827767953145
% es.Ey (V/m) @ t=0.52
1.505524998368167
% es.Ez (V/m) @ t=0.52
-5.515032552234047
% es.tEx (V/m) @ t=0.52
5.034827767953136
% es.tEy (V/m) @ t=0.52
0
% es.tEz (V/m) @ t=0.52
-5.5150325522340395
% V (V) @ t=0.52
0.006796409523669822
% es.normE (V/m) @ t=0.54
8.004156268123385
% es.EX (V/m) @ t=0.54
5.079400696056373
% es.EY (V/m) @ t=0.54
1.5188486793263791
% es.EZ (V/m) @ t=0.54
-5.563859670897251
% es.tEX (V/m) @ t=0.54
5.0794006960563705
% es.tEY (V/m) @ t=0.54
0
% es.tEZ (V/m) @ t=0.54
-5.56385967089724
% es.Ex (V/m) @ t=0.54
5.079400696056373
% es.Ey (V/m) @ t=0.54
1.5188486793263791
% es.Ez (V/m) @ t=0.54
-5.563859670897251
% es.tEx (V/m) @ t=0.54
5.0794006960563705
% es.tEy (V/m) @ t=0.54
0
% es.tEz (V/m) @ t=0.54
-5.56385967089724
% V (V) @ t=0.54
0.006856608233224509
% es.normE (V/m) @ t=0.56
8.081424872542522
% es.EX (V/m) @ t=0.56
5.128439333181847
% es.EY (V/m) @ t=0.56
1.5335217280548514
% es.EZ (V/m) @ t=0.56
-5.617569377905523
% es.tEX (V/m) @ t=0.56
5.128439333181838
% es.tEY (V/m) @ t=0.56
0
% es.tEZ (V/m) @ t=0.56
-5.617569377905512
% es.Ex (V/m) @ t=0.56
5.128439333181847
% es.Ey (V/m) @ t=0.56
1.5335217280548514
% es.Ez (V/m) @ t=0.56
-5.617569377905523
% es.tEx (V/m) @ t=0.56
5.128439333181838
% es.tEy (V/m) @ t=0.56
0
% es.tEz (V/m) @ t=0.56
-5.617569377905512
% V (V) @ t=0.56
0.0069227419635853665
% es.normE (V/m) @ t=0.58
8.159735501481219
% es.EX (V/m) @ t=0.58
5.178140188376095
% es.EY (V/m) @ t=0.58
1.5483948739492226
% es.EZ (V/m) @ t=0.58
-5.672003121837929
% es.tEX (V/m) @ t=0.58
5.178140188376085
% es.tEY (V/m) @ t=0.58
0
% es.tEZ (V/m) @ t=0.58
-5.672003121837922
% es.Ex (V/m) @ t=0.58
5.178140188376095
% es.Ey (V/m) @ t=0.58
1.5483948739492226
% es.Ez (V/m) @ t=0.58
-5.672003121837929
% es.tEx (V/m) @ t=0.58
5.178140188376085
% es.tEy (V/m) @ t=0.58
0
% es.tEz (V/m) @ t=0.58
-5.672003121837922
% V (V) @ t=0.58
0.006989755795627032
% es.normE (V/m) @ t=0.6
8.238046130478647
% es.EX (V/m) @ t=0.6
5.227841043570336
% es.EY (V/m) @ t=0.6
1.5632680198435884
% es.EZ (V/m) @ t=0.6
-5.7264368657703395
% es.tEX (V/m) @ t=0.6
5.2278410435703275
% es.tEY (V/m) @ t=0.6
0
% es.tEZ (V/m) @ t=0.6
-5.726436865770328
% es.Ex (V/m) @ t=0.6
5.227841043570336
% es.Ey (V/m) @ t=0.6
1.5632680198435884
% es.Ez (V/m) @ t=0.6
-5.7264368657703395
% es.tEx (V/m) @ t=0.6
5.2278410435703275
% es.tEy (V/m) @ t=0.6
0
% es.tEz (V/m) @ t=0.6
-5.726436865770328
% V (V) @ t=0.6
0.007056769627668698
% es.normE (V/m) @ t=0.62
8.316356759533136
% es.EX (V/m) @ t=0.62
5.277541898764566
% es.EY (V/m) @ t=0.62
1.5781411657379334
% es.EZ (V/m) @ t=0.62
-5.780870609702749
% es.tEX (V/m) @ t=0.62
5.277541898764556
% es.tEY (V/m) @ t=0.62
0
% es.tEZ (V/m) @ t=0.62
-5.780870609702737
% es.Ex (V/m) @ t=0.62
5.277541898764566
% es.Ey (V/m) @ t=0.62
1.5781411657379334
% es.Ez (V/m) @ t=0.62
-5.780870609702749
% es.tEx (V/m) @ t=0.62
5.277541898764556
% es.tEy (V/m) @ t=0.62
0
% es.tEz (V/m) @ t=0.62
-5.780870609702737
% V (V) @ t=0.62
0.007123783459710363
% es.normE (V/m) @ t=0.64
8.394667388643098
% es.EX (V/m) @ t=0.64
5.327242753958825
% es.EY (V/m) @ t=0.64
1.5930143116322921
% es.EZ (V/m) @ t=0.64
-5.835304353635145
% es.tEX (V/m) @ t=0.64
5.3272427539588225
% es.tEY (V/m) @ t=0.64
0
% es.tEZ (V/m) @ t=0.64
-5.8353043536351334
% es.Ex (V/m) @ t=0.64
5.327242753958825
% es.Ey (V/m) @ t=0.64
1.5930143116322921
% es.Ez (V/m) @ t=0.64
-5.835304353635145
% es.tEx (V/m) @ t=0.64
5.3272427539588225
% es.tEy (V/m) @ t=0.64
0
% es.tEz (V/m) @ t=0.64
-5.8353043536351334
% V (V) @ t=0.64
0.007190797291752029
% es.normE (V/m) @ t=0.66
8.472978017806996
% es.EX (V/m) @ t=0.66
5.3769436091530665
% es.EY (V/m) @ t=0.66
1.6078874575266582
% es.EZ (V/m) @ t=0.66
-5.889738097567554
% es.tEX (V/m) @ t=0.66
5.376943609153053
% es.tEY (V/m) @ t=0.66
0
% es.tEZ (V/m) @ t=0.66
-5.889738097567543
% es.Ex (V/m) @ t=0.66
5.3769436091530665
% es.Ey (V/m) @ t=0.66
1.6078874575266582
% es.Ez (V/m) @ t=0.66
-5.889738097567554
% es.tEx (V/m) @ t=0.66
5.376943609153053
% es.tEy (V/m) @ t=0.66
0
% es.tEz (V/m) @ t=0.66
-5.889738097567543
% V (V) @ t=0.66
0.007257811123793695
% es.normE (V/m) @ t=0.68
8.551288647023345
% es.EX (V/m) @ t=0.68
5.4266444643473175
% es.EY (V/m) @ t=0.68
1.6227606034210136
% es.EZ (V/m) @ t=0.68
-5.944171841499953
% es.tEX (V/m) @ t=0.68
5.426644464347301
% es.tEY (V/m) @ t=0.68
0
% es.tEZ (V/m) @ t=0.68
-5.944171841499939
% es.Ex (V/m) @ t=0.68
5.4266444643473175
% es.Ey (V/m) @ t=0.68
1.6227606034210136
% es.Ez (V/m) @ t=0.68
-5.944171841499953
% es.tEx (V/m) @ t=0.68
5.426644464347301
% es.tEy (V/m) @ t=0.68
0
% es.tEz (V/m) @ t=0.68
-5.944171841499939
% V (V) @ t=0.68
0.007324824955835361
% es.normE (V/m) @ t=0.7
8.62959927629073
% es.EX (V/m) @ t=0.7
5.476345319541559
% es.EY (V/m) @ t=0.7
1.6376337493153654
% es.EZ (V/m) @ t=0.7
-5.998605585432367
% es.tEX (V/m) @ t=0.7
5.476345319541542
% es.tEY (V/m) @ t=0.7
0
% es.tEZ (V/m) @ t=0.7
-5.998605585432353
% es.Ex (V/m) @ t=0.7
5.476345319541559
% es.Ey (V/m) @ t=0.7
1.6376337493153654
% es.Ez (V/m) @ t=0.7
-5.998605585432367
% es.tEx (V/m) @ t=0.7
5.476345319541542
% es.tEy (V/m) @ t=0.7
0
% es.tEz (V/m) @ t=0.7
-5.998605585432353
% V (V) @ t=0.7
0.007391838787877027
% es.normE (V/m) @ t=0.72
8.707909905607753
% es.EX (V/m) @ t=0.72
5.526046174735807
% es.EY (V/m) @ t=0.72
1.6525068952097097
% es.EZ (V/m) @ t=0.72
-6.05303932936477
% es.tEX (V/m) @ t=0.72
5.52604617473579
% es.tEY (V/m) @ t=0.72
0
% es.tEZ (V/m) @ t=0.72
-6.053039329364755
% es.Ex (V/m) @ t=0.72
5.526046174735807
% es.Ey (V/m) @ t=0.72
1.6525068952097097
% es.Ez (V/m) @ t=0.72
-6.05303932936477
% es.tEx (V/m) @ t=0.72
5.52604617473579
% es.tEy (V/m) @ t=0.72
0
% es.tEz (V/m) @ t=0.72
-6.053039329364755
% V (V) @ t=0.72
0.007458852619918693
% es.normE (V/m) @ t=0.74
8.786220534973095
% es.EX (V/m) @ t=0.74
5.575747029930055
% es.EY (V/m) @ t=0.74
1.6673800411040798
% es.EZ (V/m) @ t=0.74
-6.107473073297175
% es.tEX (V/m) @ t=0.74
5.575747029930034
% es.tEY (V/m) @ t=0.74
0
% es.tEZ (V/m) @ t=0.74
-6.107473073297161
% es.Ex (V/m) @ t=0.74
5.575747029930055
% es.Ey (V/m) @ t=0.74
1.6673800411040798
% es.Ez (V/m) @ t=0.74
-6.107473073297175
% es.tEx (V/m) @ t=0.74
5.575747029930034
% es.tEy (V/m) @ t=0.74
0
% es.tEz (V/m) @ t=0.74
-6.107473073297161
% V (V) @ t=0.74
0.007525866451960358
% es.normE (V/m) @ t=0.76
8.86453116438549
% es.EX (V/m) @ t=0.76
5.625447885124303
% es.EY (V/m) @ t=0.76
1.6822531869984276
% es.EZ (V/m) @ t=0.76
-6.161906817229585
% es.tEX (V/m) @ t=0.76
5.62544788512429
% es.tEY (V/m) @ t=0.76
0
% es.tEZ (V/m) @ t=0.76
-6.161906817229571
% es.Ex (V/m) @ t=0.76
5.625447885124303
% es.Ey (V/m) @ t=0.76
1.6822531869984276
% es.Ez (V/m) @ t=0.76
-6.161906817229585
% es.tEx (V/m) @ t=0.76
5.62544788512429
% es.tEy (V/m) @ t=0.76
0
% es.tEz (V/m) @ t=0.76
-6.161906817229571
% V (V) @ t=0.76
0.007592880284002027
% es.normE (V/m) @ t=0.78
8.94284179384366
% es.EX (V/m) @ t=0.78
5.675148740318537
% es.EY (V/m) @ t=0.78
1.6971263328927653
% es.EZ (V/m) @ t=0.78
-6.2163405611619815
% es.tEX (V/m) @ t=0.78
5.67514874031852
% es.tEY (V/m) @ t=0.78
0
% es.tEZ (V/m) @ t=0.78
-6.216340561161966
% es.Ex (V/m) @ t=0.78
5.675148740318537
% es.Ey (V/m) @ t=0.78
1.6971263328927653
% es.Ez (V/m) @ t=0.78
-6.2163405611619815
% es.tEx (V/m) @ t=0.78
5.67514874031852
% es.tEy (V/m) @ t=0.78
0
% es.tEz (V/m) @ t=0.78
-6.216340561161966
% V (V) @ t=0.78
0.007659894116043692
% es.normE (V/m) @ t=0.8
9.021152423346493
% es.EX (V/m) @ t=0.8
5.724849595512795
% es.EY (V/m) @ t=0.8
1.711999478787149
% es.EZ (V/m) @ t=0.8
-6.270774305094405
% es.tEX (V/m) @ t=0.8
5.724849595512786
% es.tEY (V/m) @ t=0.8
0
% es.tEZ (V/m) @ t=0.8
-6.270774305094384
% es.Ex (V/m) @ t=0.8
5.724849595512795
% es.Ey (V/m) @ t=0.8
1.711999478787149
% es.Ez (V/m) @ t=0.8
-6.270774305094405
% es.tEx (V/m) @ t=0.8
5.724849595512786
% es.tEy (V/m) @ t=0.8
0
% es.tEz (V/m) @ t=0.8
-6.270774305094384
% V (V) @ t=0.8
0.007726907948085359
% es.normE (V/m) @ t=0.82
9.102344833825658
% es.EX (V/m) @ t=0.82
5.776376876956041
% es.EY (V/m) @ t=0.82
1.7274136650735272
% es.EZ (V/m) @ t=0.82
-6.327211963062263
% es.tEX (V/m) @ t=0.82
5.776376876956024
% es.tEY (V/m) @ t=0.82
0
% es.tEZ (V/m) @ t=0.82
-6.327211963062249
% es.Ex (V/m) @ t=0.82
5.776376876956041
% es.Ey (V/m) @ t=0.82
1.7274136650735272
% es.Ez (V/m) @ t=0.82
-6.327211963062263
% es.tEx (V/m) @ t=0.82
5.776376876956024
% es.tEy (V/m) @ t=0.82
0
% es.tEz (V/m) @ t=0.82
-6.327211963062249
% V (V) @ t=0.82
0.007796421120037518
% es.normE (V/m) @ t=0.84
9.189914007304235
% es.EX (V/m) @ t=0.84
5.831945647863751
% es.EY (V/m) @ t=0.84
1.744025057677665
% es.EZ (V/m) @ t=0.84
-6.388083852889405
% es.tEX (V/m) @ t=0.84
5.831945647863742
% es.tEY (V/m) @ t=0.84
0
% es.tEZ (V/m) @ t=0.84
-6.38808385288939
% es.Ex (V/m) @ t=0.84
5.831945647863751
% es.Ey (V/m) @ t=0.84
1.744025057677665
% es.Ez (V/m) @ t=0.84
-6.388083852889405
% es.tEx (V/m) @ t=0.84
5.831945647863742
% es.tEy (V/m) @ t=0.84
0
% es.tEz (V/m) @ t=0.84
-6.38808385288939
% V (V) @ t=0.84
0.007871464795026348
% es.normE (V/m) @ t=0.86
9.277483180798779
% es.EX (V/m) @ t=0.86
5.8875144187714525
% es.EY (V/m) @ t=0.86
1.7606364502818064
% es.EZ (V/m) @ t=0.86
-6.448955742716562
% es.tEX (V/m) @ t=0.86
5.88751441877144
% es.tEY (V/m) @ t=0.86
0
% es.tEZ (V/m) @ t=0.86
-6.448955742716547
% es.Ex (V/m) @ t=0.86
5.8875144187714525
% es.Ey (V/m) @ t=0.86
1.7606364502818064
% es.Ez (V/m) @ t=0.86
-6.448955742716562
% es.tEx (V/m) @ t=0.86
5.88751441877144
% es.tEy (V/m) @ t=0.86
0
% es.tEz (V/m) @ t=0.86
-6.448955742716547
% V (V) @ t=0.86
0.007946508470015178
% es.normE (V/m) @ t=0.88
9.36505235430888
% es.EX (V/m) @ t=0.88
5.94308318967917
% es.EY (V/m) @ t=0.88
1.7772478428859402
% es.EZ (V/m) @ t=0.88
-6.50982763254371
% es.tEX (V/m) @ t=0.88
5.943083189679158
% es.tEY (V/m) @ t=0.88
0
% es.tEZ (V/m) @ t=0.88
-6.50982763254371
% es.Ex (V/m) @ t=0.88
5.94308318967917
% es.Ey (V/m) @ t=0.88
1.7772478428859402
% es.Ez (V/m) @ t=0.88
-6.50982763254371
% es.tEx (V/m) @ t=0.88
5.943083189679158
% es.tEy (V/m) @ t=0.88
0
% es.tEz (V/m) @ t=0.88
-6.50982763254371
% V (V) @ t=0.88
0.008021552145004008
% es.normE (V/m) @ t=0.9
9.452621527834062
% es.EX (V/m) @ t=0.9
5.998651960586895
% es.EY (V/m) @ t=0.9
1.793859235490074
% es.EZ (V/m) @ t=0.9
-6.570699522370849
% es.tEX (V/m) @ t=0.9
5.99865196058688
% es.tEY (V/m) @ t=0.9
0
% es.tEZ (V/m) @ t=0.9
-6.570699522370834
% es.Ex (V/m) @ t=0.9
5.998651960586895
% es.Ey (V/m) @ t=0.9
1.793859235490074
% es.Ez (V/m) @ t=0.9
-6.570699522370849
% es.tEx (V/m) @ t=0.9
5.99865196058688
% es.tEy (V/m) @ t=0.9
0
% es.tEz (V/m) @ t=0.9
-6.570699522370834
% V (V) @ t=0.9
0.008096595819992837
% es.normE (V/m) @ t=0.92
9.540190701373943
% es.EX (V/m) @ t=0.92
6.054220731494602
% es.EY (V/m) @ t=0.92
1.8104706280942229
% es.EZ (V/m) @ t=0.92
-6.631571412198019
% es.tEX (V/m) @ t=0.92
6.05422073149459
% es.tEY (V/m) @ t=0.92
0
% es.tEZ (V/m) @ t=0.92
-6.631571412198005
% es.Ex (V/m) @ t=0.92
6.054220731494602
% es.Ey (V/m) @ t=0.92
1.8104706280942229
% es.Ez (V/m) @ t=0.92
-6.631571412198019
% es.tEx (V/m) @ t=0.92
6.05422073149459
% es.tEy (V/m) @ t=0.92
0
% es.tEz (V/m) @ t=0.92
-6.631571412198005
% V (V) @ t=0.92
0.008171639494981668
% es.normE (V/m) @ t=0.94
9.62775987492808
% es.EX (V/m) @ t=0.94
6.109789502402311
% es.EY (V/m) @ t=0.94
1.8270820206983283
% es.EZ (V/m) @ t=0.94
-6.692443302025154
% es.tEX (V/m) @ t=0.94
6.109789502402295
% es.tEY (V/m) @ t=0.94
0
% es.tEZ (V/m) @ t=0.94
-6.69244330202514
% es.Ex (V/m) @ t=0.94
6.109789502402311
% es.Ey (V/m) @ t=0.94
1.8270820206983283
% es.Ez (V/m) @ t=0.94
-6.692443302025154
% es.tEx (V/m) @ t=0.94
6.109789502402295
% es.tEy (V/m) @ t=0.94
0
% es.tEz (V/m) @ t=0.94
-6.69244330202514
% V (V) @ t=0.94
0.008246683169970497
% es.normE (V/m) @ t=0.96
9.71532904849614
% es.EX (V/m) @ t=0.96
6.1653582733100185
% es.EY (V/m) @ t=0.96
1.8436934133024732
% es.EZ (V/m) @ t=0.96
-6.753315191852321
% es.tEX (V/m) @ t=0.96
6.16535827331
% es.tEY (V/m) @ t=0.96
0
% es.tEZ (V/m) @ t=0.96
-6.753315191852307
% es.Ex (V/m) @ t=0.96
6.1653582733100185
% es.Ey (V/m) @ t=0.96
1.8436934133024732
% es.Ez (V/m) @ t=0.96
-6.753315191852321
% es.tEx (V/m) @ t=0.96
6.16535827331
% es.tEy (V/m) @ t=0.96
0
% es.tEz (V/m) @ t=0.96
-6.753315191852307
% V (V) @ t=0.96
0.008321726844959326
% es.normE (V/m) @ t=0.98
9.802898222077708
% es.EX (V/m) @ t=0.98
6.220927044217711
% es.EY (V/m) @ t=0.98
1.8603048059066216
% es.EZ (V/m) @ t=0.98
-6.814187081679485
% es.tEX (V/m) @ t=0.98
6.220927044217699
% es.tEY (V/m) @ t=0.98
0
% es.tEZ (V/m) @ t=0.98
-6.81418708167947
% es.Ex (V/m) @ t=0.98
6.220927044217711
% es.Ey (V/m) @ t=0.98
1.8603048059066216
% es.Ez (V/m) @ t=0.98
-6.814187081679485
% es.tEx (V/m) @ t=0.98
6.220927044217699
% es.tEy (V/m) @ t=0.98
0
% es.tEz (V/m) @ t=0.98
-6.81418708167947
% V (V) @ t=0.98
0.008396770519948159
% es.normE (V/m) @ t=1
9.890467395672452
% es.EX (V/m) @ t=1
6.276495815125448
% es.EY (V/m) @ t=1
1.8769161985107483
% es.EZ (V/m) @ t=1
-6.875058971506623
% es.tEX (V/m) @ t=1
6.276495815125436
% es.tEY (V/m) @ t=1
0
% es.tEZ (V/m) @ t=1
-6.875058971506601
% es.Ex (V/m) @ t=1
6.276495815125448
% es.Ey (V/m) @ t=1
1.8769161985107483
% es.Ez (V/m) @ t=1
-6.875058971506623
% es.tEx (V/m) @ t=1
6.276495815125436
% es.tEy (V/m) @ t=1
0
% es.tEz (V/m) @ t=1
-6.875058971506601
% V (V) @ t=1
0.008471814194936986
% es.normE (V/m) @ t=1.02
9.978036569279999
% es.EX (V/m) @ t=1.02
6.33206458603314
% es.EY (V/m) @ t=1.02
1.893527591114851
% es.EZ (V/m) @ t=1.02
-6.9359308613337785
% es.tEX (V/m) @ t=1.02
6.332064586033136
% es.tEY (V/m) @ t=1.02
0
% es.tEZ (V/m) @ t=1.02
-6.935930861333764
% es.Ex (V/m) @ t=1.02
6.33206458603314
% es.Ey (V/m) @ t=1.02
1.893527591114851
% es.Ez (V/m) @ t=1.02
-6.9359308613337785
% es.tEx (V/m) @ t=1.02
6.332064586033136
% es.tEy (V/m) @ t=1.02
0
% es.tEz (V/m) @ t=1.02
-6.935930861333764
% V (V) @ t=1.02
0.008546857869925817
% es.normE (V/m) @ t=1.04
10.06560574290004
% es.EX (V/m) @ t=1.04
6.387633356940869
% es.EY (V/m) @ t=1.04
1.9101389837189955
% es.EZ (V/m) @ t=1.04
-6.996802751160917
% es.tEX (V/m) @ t=1.04
6.387633356940851
% es.tEY (V/m) @ t=1.04
0
% es.tEZ (V/m) @ t=1.04
-6.99680275116091
% es.Ex (V/m) @ t=1.04
6.387633356940869
% es.Ey (V/m) @ t=1.04
1.9101389837189955
% es.Ez (V/m) @ t=1.04
-6.996802751160917
% es.tEx (V/m) @ t=1.04
6.387633356940851
% es.tEy (V/m) @ t=1.04
0
% es.tEz (V/m) @ t=1.04
-6.99680275116091
% V (V) @ t=1.04
0.008621901544914648
% es.normE (V/m) @ t=1.06
10.153174916532233
% es.EX (V/m) @ t=1.06
6.443202127848577
% es.EY (V/m) @ t=1.06
1.9267503763231186