% Model:              1 neuron.mph
% Version:            COMSOL 6.0.0.405
% Date:               Mar 16 2023, 17:00
% Dimension:          0
% Nodes:              14017
% Expressions:        14017
% Description:        Electric field norm, Electric field, X component, Electric field, Y component, Electric field, Z component, Tangential electric field, X component, Tangential electric field, Y component, Tangential electric field, Z component, Electric field, x component, Electric field, y component, Electric field, z component, Tangential electric field, x component, Tangential electric field, y component, Tangential electric field, z component, Electric potential
% Length unit:        mm
% x
1
% y
12.2
% z
1.6599999999999997
% es.normE (V/m) @ t=0
1.5981681220154487
% es.EX (V/m) @ t=0
1.4306954113007007
% es.EY (V/m) @ t=0
0.05504687706244138
% es.EZ (V/m) @ t=0
-0.7100857646234128
% es.tEX (V/m) @ t=0
1.4306954113007029
% es.tEY (V/m) @ t=0
0
% es.tEZ (V/m) @ t=0
-0.7100857646234111
% es.Ex (V/m) @ t=0
1.4306954113007007
% es.Ey (V/m) @ t=0
0.05504687706244138
% es.Ez (V/m) @ t=0
-0.7100857646234128
% es.tEx (V/m) @ t=0
1.4306954113007029
% es.tEy (V/m) @ t=0
0
% es.tEz (V/m) @ t=0
-0.7100857646234111
% V (V) @ t=0
0.007250870717253467
% es.normE (V/m) @ t=0.02
1.3803674792435037
% es.EX (V/m) @ t=0.02
1.2357181910772135
% es.EY (V/m) @ t=0.02
0.047545012414033805
% es.EZ (V/m) @ t=0.02
-0.6133142555331641
% es.tEX (V/m) @ t=0.02
1.2357181910772108
% es.tEY (V/m) @ t=0.02
0
% es.tEZ (V/m) @ t=0.02
-0.6133142555331652
% es.Ex (V/m) @ t=0.02
1.2357181910772135
% es.Ey (V/m) @ t=0.02
0.047545012414033805
% es.Ez (V/m) @ t=0.02
-0.6133142555331641
% es.tEx (V/m) @ t=0.02
1.2357181910772108
% es.tEy (V/m) @ t=0.02
0
% es.tEz (V/m) @ t=0.02
-0.6133142555331652
% V (V) @ t=0.02
0.006262711563736199
% es.normE (V/m) @ t=0.04
1.393063244563471
% es.EX (V/m) @ t=0.04
1.2470835662757986
% es.EY (V/m) @ t=0.04
0.047982310260711675
% es.EZ (V/m) @ t=0.04
-0.6189551306482513
% es.tEX (V/m) @ t=0.04
1.2470835662757973
% es.tEY (V/m) @ t=0.04
0
% es.tEZ (V/m) @ t=0.04
-0.6189551306482421
% es.Ex (V/m) @ t=0.04
1.2470835662757986
% es.Ey (V/m) @ t=0.04
0.047982310260711675
% es.Ez (V/m) @ t=0.04
-0.6189551306482513
% es.tEx (V/m) @ t=0.04
1.2470835662757973
% es.tEy (V/m) @ t=0.04
0
% es.tEz (V/m) @ t=0.04
-0.6189551306482421
% V (V) @ t=0.04
0.006320311805697202
% es.normE (V/m) @ t=0.06
1.4058727900927486
% es.EX (V/m) @ t=0.06
1.2585507981895214
% es.EY (V/m) @ t=0.06
0.04842352638507966
% es.EZ (V/m) @ t=0.06
-0.6246465606102204
% es.tEX (V/m) @ t=0.06
1.2585507981895234
% es.tEY (V/m) @ t=0.06
0
% es.tEZ (V/m) @ t=0.06
-0.6246465606102163
% es.Ex (V/m) @ t=0.06
1.2585507981895214
% es.Ey (V/m) @ t=0.06
0.04842352638507966
% es.Ez (V/m) @ t=0.06
-0.6246465606102204
% es.tEx (V/m) @ t=0.06
1.2585507981895234
% es.tEy (V/m) @ t=0.06
0
% es.tEz (V/m) @ t=0.06
-0.6246465606102163
% V (V) @ t=0.06
0.0063784282947312995
% es.normE (V/m) @ t=0.08
1.418879381419807
% es.EX (V/m) @ t=0.08
1.27019443381986
% es.EY (V/m) @ t=0.08
0.04887154138592467
% es.EZ (V/m) @ t=0.08
-0.6304255265657756
% es.tEX (V/m) @ t=0.08
1.2701944338198592
% es.tEY (V/m) @ t=0.08
0
% es.tEZ (V/m) @ t=0.08
-0.6304255265657766
% es.Ex (V/m) @ t=0.08
1.27019443381986
% es.Ey (V/m) @ t=0.08
0.04887154138592467
% es.Ez (V/m) @ t=0.08
-0.6304255265657756
% es.tEx (V/m) @ t=0.08
1.2701944338198592
% es.tEy (V/m) @ t=0.08
0
% es.tEz (V/m) @ t=0.08
-0.6304255265657766
% V (V) @ t=0.08
0.006437438344899218
% es.normE (V/m) @ t=0.1
1.4320196719332232
% es.EX (V/m) @ t=0.1
1.281957762606044
% es.EY (V/m) @ t=0.1
0.04932416954905325
% es.EZ (V/m) @ t=0.1
-0.6362638872978288
% es.tEX (V/m) @ t=0.1
1.2819577626060412
% es.tEY (V/m) @ t=0.1
0
% es.tEZ (V/m) @ t=0.1
-0.6362638872978295
% es.Ex (V/m) @ t=0.1
1.281957762606044
% es.Ey (V/m) @ t=0.1
0.04932416954905325
% es.Ez (V/m) @ t=0.1
-0.6362638872978288
% es.tEx (V/m) @ t=0.1
1.2819577626060412
% es.tEy (V/m) @ t=0.1
0
% es.tEz (V/m) @ t=0.1
-0.6362638872978295
% V (V) @ t=0.1
0.0064970546926787325
% es.normE (V/m) @ t=0.12
1.445159962446639
% es.EX (V/m) @ t=0.12
1.2937210913922215
% es.EY (V/m) @ t=0.12
0.04977679771220178
% es.EZ (V/m) @ t=0.12
-0.642102248029889
% es.tEX (V/m) @ t=0.12
1.2937210913922215
% es.tEY (V/m) @ t=0.12
0
% es.tEZ (V/m) @ t=0.12
-0.642102248029893
% es.Ex (V/m) @ t=0.12
1.2937210913922215
% es.Ey (V/m) @ t=0.12
0.04977679771220178
% es.Ez (V/m) @ t=0.12
-0.642102248029889
% es.tEx (V/m) @ t=0.12
1.2937210913922215
% es.tEy (V/m) @ t=0.12
0
% es.tEz (V/m) @ t=0.12
-0.642102248029893
% V (V) @ t=0.12
0.006556671040458246
% es.normE (V/m) @ t=0.14
1.4584412903204633
% es.EX (V/m) @ t=0.14
1.305610672609831
% es.EY (V/m) @ t=0.14
0.050234273436931653
% es.EZ (V/m) @ t=0.14
-0.6480032854070137
% es.tEX (V/m) @ t=0.14
1.305610672609832
% es.tEY (V/m) @ t=0.14
0
% es.tEZ (V/m) @ t=0.14
-0.6480032854070075
% es.Ex (V/m) @ t=0.14
1.305610672609831
% es.Ey (V/m) @ t=0.14
0.050234273436931653
% es.Ez (V/m) @ t=0.14
-0.6480032854070137
% es.tEx (V/m) @ t=0.14
1.305610672609832
% es.tEy (V/m) @ t=0.14
0
% es.tEz (V/m) @ t=0.14
-0.6480032854070075
% V (V) @ t=0.14
0.006616927648290906
% es.normE (V/m) @ t=0.16
1.4722816179303662
% es.EX (V/m) @ t=0.16
1.3180006536906028
% es.EY (V/m) @ t=0.16
0.050710962408675175
% es.EZ (V/m) @ t=0.16
-0.6541527408483331
% es.tEX (V/m) @ t=0.16
1.3180006536905982
% es.tEY (V/m) @ t=0.16
0
% es.tEZ (V/m) @ t=0.16
-0.6541527408483319
% es.Ex (V/m) @ t=0.16
1.3180006536906028
% es.Ey (V/m) @ t=0.16
0.050710962408675175
% es.Ez (V/m) @ t=0.16
-0.6541527408483331
% es.tEx (V/m) @ t=0.16
1.3180006536905982
% es.tEy (V/m) @ t=0.16
0
% es.tEz (V/m) @ t=0.16
-0.6541527408483319
% V (V) @ t=0.16
0.006679721918482735
% es.normE (V/m) @ t=0.18
1.486121945540261
% es.EX (V/m) @ t=0.18
1.3303906347713697
% es.EY (V/m) @ t=0.18
0.05118765138040357
% es.EZ (V/m) @ t=0.18
-0.6603021962896436
% es.tEX (V/m) @ t=0.18
1.3303906347713648
% es.tEY (V/m) @ t=0.18
0
% es.tEZ (V/m) @ t=0.18
-0.6603021962896349
% es.Ex (V/m) @ t=0.18
1.3303906347713697
% es.Ey (V/m) @ t=0.18
0.05118765138040357
% es.Ez (V/m) @ t=0.18
-0.6603021962896436
% es.tEx (V/m) @ t=0.18
1.3303906347713648
% es.tEy (V/m) @ t=0.18
0
% es.tEz (V/m) @ t=0.18
-0.6603021962896349
% V (V) @ t=0.18
0.006742516188674566
% es.normE (V/m) @ t=0.2
1.4999622731501479
% es.EX (V/m) @ t=0.2
1.342780615852127
% es.EY (V/m) @ t=0.2
0.05166434035214529
% es.EZ (V/m) @ t=0.2
-0.6664516517309507
% es.tEX (V/m) @ t=0.2
1.342780615852131
% es.tEY (V/m) @ t=0.2
0
% es.tEZ (V/m) @ t=0.2
-0.6664516517309487
% es.Ex (V/m) @ t=0.2
1.342780615852127
% es.Ey (V/m) @ t=0.2
0.05166434035214529
% es.Ez (V/m) @ t=0.2
-0.6664516517309507
% es.tEx (V/m) @ t=0.2
1.342780615852131
% es.tEy (V/m) @ t=0.2
0
% es.tEz (V/m) @ t=0.2
-0.6664516517309487
% V (V) @ t=0.2
0.006805310458866395
% es.normE (V/m) @ t=0.22
1.5138026007600391
% es.EX (V/m) @ t=0.22
1.3551705969328915
% es.EY (V/m) @ t=0.22
0.052141029323875904
% es.EZ (V/m) @ t=0.22
-0.6726011071722522
% es.tEX (V/m) @ t=0.22
1.3551705969328935
% es.tEY (V/m) @ t=0.22
0
% es.tEZ (V/m) @ t=0.22
-0.6726011071722553
% es.Ex (V/m) @ t=0.22
1.3551705969328915
% es.Ey (V/m) @ t=0.22
0.052141029323875904
% es.Ez (V/m) @ t=0.22
-0.6726011071722522
% es.tEx (V/m) @ t=0.22
1.3551705969328935
% es.tEy (V/m) @ t=0.22
0
% es.tEz (V/m) @ t=0.22
-0.6726011071722553
% V (V) @ t=0.22
0.006868104729058225
% es.normE (V/m) @ t=0.24
1.527642928369946
% es.EX (V/m) @ t=0.24
1.3675605780136633
% es.EY (V/m) @ t=0.24
0.052617718295613625
% es.EZ (V/m) @ t=0.24
-0.6787505626135717
% es.tEX (V/m) @ t=0.24
1.3675605780136602
% es.tEY (V/m) @ t=0.24
0
% es.tEZ (V/m) @ t=0.24
-0.6787505626135655
% es.Ex (V/m) @ t=0.24
1.3675605780136633
% es.Ey (V/m) @ t=0.24
0.052617718295613625
% es.Ez (V/m) @ t=0.24
-0.6787505626135717
% es.tEx (V/m) @ t=0.24
1.3675605780136602
% es.tEy (V/m) @ t=0.24
0
% es.tEz (V/m) @ t=0.24
-0.6787505626135655
% V (V) @ t=0.24
0.0069308989992500555
% es.normE (V/m) @ t=0.26
1.5414832559798446
% es.EX (V/m) @ t=0.26
1.3799505590944299
% es.EY (V/m) @ t=0.26
0.05309440726735179
% es.EZ (V/m) @ t=0.26
-0.6849000180548804
% es.tEX (V/m) @ t=0.26
1.3799505590944268
% es.tEY (V/m) @ t=0.26
0
% es.tEZ (V/m) @ t=0.26
-0.6849000180548686
% es.Ex (V/m) @ t=0.26
1.3799505590944299
% es.Ey (V/m) @ t=0.26
0.05309440726735179
% es.Ez (V/m) @ t=0.26
-0.6849000180548804
% es.tEx (V/m) @ t=0.26
1.3799505590944268
% es.tEy (V/m) @ t=0.26
0
% es.tEz (V/m) @ t=0.26
-0.6849000180548686
% V (V) @ t=0.26
0.006993693269441884
% es.normE (V/m) @ t=0.28
1.5559735224503068
% es.EX (V/m) @ t=0.28
1.3929223756823697
% es.EY (V/m) @ t=0.28
0.05359348990360688
% es.EZ (V/m) @ t=0.28
-0.6913382406740409
% es.tEX (V/m) @ t=0.28
1.3929223756823603
% es.tEY (V/m) @ t=0.28
0
% es.tEZ (V/m) @ t=0.28
-0.6913382406740318
% es.Ex (V/m) @ t=0.28
1.3929223756823697
% es.Ey (V/m) @ t=0.28
0.05359348990360688
% es.Ez (V/m) @ t=0.28
-0.6913382406740409
% es.tEx (V/m) @ t=0.28
1.3929223756823603
% es.tEy (V/m) @ t=0.28
0
% es.tEz (V/m) @ t=0.28
-0.6913382406740318
% V (V) @ t=0.28
0.007059436036544461
% es.normE (V/m) @ t=0.3
1.5713879835553404
% es.EX (V/m) @ t=0.3
1.4067215458670197
% es.EY (V/m) @ t=0.3
0.05412441569594606
% es.EZ (V/m) @ t=0.3
-0.698187082033844
% es.tEX (V/m) @ t=0.3
1.4067215458670175
% es.tEY (V/m) @ t=0.3
0
% es.tEZ (V/m) @ t=0.3
-0.6981870820338401
% es.Ex (V/m) @ t=0.3
1.4067215458670197
% es.Ey (V/m) @ t=0.3
0.05412441569594606
% es.Ez (V/m) @ t=0.3
-0.698187082033844
% es.tEx (V/m) @ t=0.3
1.4067215458670175
% es.tEy (V/m) @ t=0.3
0
% es.tEz (V/m) @ t=0.3
-0.6981870820338401
% V (V) @ t=0.3
0.007129371482666948
% es.normE (V/m) @ t=0.32
1.586802444660369
% es.EX (V/m) @ t=0.32
1.420520716051667
% es.EY (V/m) @ t=0.32
0.05465534148830567
% es.EZ (V/m) @ t=0.32
-0.7050359233936399
% es.tEX (V/m) @ t=0.32
1.4205207160516684
% es.tEY (V/m) @ t=0.32
0
% es.tEZ (V/m) @ t=0.32
-0.7050359233936341
% es.Ex (V/m) @ t=0.32
1.420520716051667
% es.Ey (V/m) @ t=0.32
0.05465534148830567
% es.Ez (V/m) @ t=0.32
-0.7050359233936399
% es.tEx (V/m) @ t=0.32
1.4205207160516684
% es.tEy (V/m) @ t=0.32
0
% es.tEz (V/m) @ t=0.32
-0.7050359233936341
% V (V) @ t=0.32
0.007199306928789436
% es.normE (V/m) @ t=0.34
1.6022169057653919
% es.EX (V/m) @ t=0.34
1.4343198862363065
% es.EY (V/m) @ t=0.34
0.05518626728065948
% es.EZ (V/m) @ t=0.34
-0.7118847647534394
% es.tEX (V/m) @ t=0.34
1.4343198862363042
% es.tEY (V/m) @ t=0.34
0
% es.tEZ (V/m) @ t=0.34
-0.7118847647534352
% es.Ex (V/m) @ t=0.34
1.4343198862363065
% es.Ey (V/m) @ t=0.34
0.05518626728065948
% es.Ez (V/m) @ t=0.34
-0.7118847647534394
% es.tEx (V/m) @ t=0.34
1.4343198862363042
% es.tEy (V/m) @ t=0.34
0
% es.tEz (V/m) @ t=0.34
-0.7118847647534352
% V (V) @ t=0.34
0.007269242374911923
% es.normE (V/m) @ t=0.36
1.6176313668704227
% es.EX (V/m) @ t=0.36
1.4481190564209534
% es.EY (V/m) @ t=0.36
0.05571719307301823
% es.EZ (V/m) @ t=0.36
-0.7187336061132407
% es.tEX (V/m) @ t=0.36
1.448119056420948
% es.tEY (V/m) @ t=0.36
0
% es.tEZ (V/m) @ t=0.36
-0.7187336061132363
% es.Ex (V/m) @ t=0.36
1.4481190564209534
% es.Ey (V/m) @ t=0.36
0.05571719307301823
% es.Ez (V/m) @ t=0.36
-0.7187336061132407
% es.tEx (V/m) @ t=0.36
1.448119056420948
% es.tEy (V/m) @ t=0.36
0
% es.tEz (V/m) @ t=0.36
-0.7187336061132363
% V (V) @ t=0.36
0.00733917782103441
% es.normE (V/m) @ t=0.38
1.6330458279754507
% es.EX (V/m) @ t=0.38
1.4619182266056
% es.EY (V/m) @ t=0.38
0.05624811886536049
% es.EZ (V/m) @ t=0.38
-0.7255824474730383
% es.tEX (V/m) @ t=0.38
1.461918226605591
% es.tEY (V/m) @ t=0.38
0
% es.tEZ (V/m) @ t=0.38
-0.7255824474730339
% es.Ex (V/m) @ t=0.38
1.4619182266056
% es.Ey (V/m) @ t=0.38
0.05624811886536049
% es.Ez (V/m) @ t=0.38
-0.7255824474730383
% es.tEx (V/m) @ t=0.38
1.461918226605591
% es.tEy (V/m) @ t=0.38
0
% es.tEz (V/m) @ t=0.38
-0.7255824474730339
% V (V) @ t=0.38
0.007409113267156898
% es.normE (V/m) @ t=0.4
1.648460289080465
% es.EX (V/m) @ t=0.4
1.475717396790234
% es.EY (V/m) @ t=0.4
0.0567790446577108
% es.EZ (V/m) @ t=0.4
-0.7324312888328289
% es.tEX (V/m) @ t=0.4
1.475717396790234
% es.tEY (V/m) @ t=0.4
0
% es.tEZ (V/m) @ t=0.4
-0.7324312888328244
% es.Ex (V/m) @ t=0.4
1.475717396790234
% es.Ey (V/m) @ t=0.4
0.0567790446577108
% es.Ez (V/m) @ t=0.4
-0.7324312888328289
% es.tEx (V/m) @ t=0.4
1.475717396790234
% es.tEy (V/m) @ t=0.4
0
% es.tEz (V/m) @ t=0.4
-0.7324312888328244
% V (V) @ t=0.4
0.0074790487132793855
% es.normE (V/m) @ t=0.42
1.6638747501855051
% es.EX (V/m) @ t=0.42
1.4895165669748918
% es.EY (V/m) @ t=0.42
0.05730997045006195
% es.EZ (V/m) @ t=0.42
-0.7392801301926302
% es.tEX (V/m) @ t=0.42
1.4895165669748884
% es.tEY (V/m) @ t=0.42
0
% es.tEZ (V/m) @ t=0.42
-0.739280130192622
% es.Ex (V/m) @ t=0.42
1.4895165669748918
% es.Ey (V/m) @ t=0.42
0.05730997045006195
% es.Ez (V/m) @ t=0.42
-0.7392801301926302
% es.tEx (V/m) @ t=0.42
1.4895165669748884
% es.tEy (V/m) @ t=0.42
0
% es.tEz (V/m) @ t=0.42
-0.739280130192622
% V (V) @ t=0.42
0.0075489841594018735
% es.normE (V/m) @ t=0.44
1.6792892112905242
% es.EX (V/m) @ t=0.44
1.5033157371595274
% es.EY (V/m) @ t=0.44
0.05784089624241531
% es.EZ (V/m) @ t=0.44
-0.7461289715524279
% es.tEX (V/m) @ t=0.44
1.5033157371595278
% es.tEY (V/m) @ t=0.44
0
% es.tEZ (V/m) @ t=0.44
-0.7461289715524231
% es.Ex (V/m) @ t=0.44
1.5033157371595274
% es.Ey (V/m) @ t=0.44
0.05784089624241531
% es.Ez (V/m) @ t=0.44
-0.7461289715524279
% es.tEx (V/m) @ t=0.44
1.5033157371595278
% es.tEy (V/m) @ t=0.44
0
% es.tEz (V/m) @ t=0.44
-0.7461289715524231
% V (V) @ t=0.44
0.007618919605524362
% es.normE (V/m) @ t=0.46
1.6947036723955544
% es.EX (V/m) @ t=0.46
1.5171149073441783
% es.EY (V/m) @ t=0.46
0.05837182203475452
% es.EZ (V/m) @ t=0.46
-0.752977812912222
% es.tEX (V/m) @ t=0.46
1.5171149073441752
% es.tEY (V/m) @ t=0.46
0
% es.tEZ (V/m) @ t=0.46
-0.7529778129122171
% es.Ex (V/m) @ t=0.46
1.5171149073441783
% es.Ey (V/m) @ t=0.46
0.05837182203475452
% es.Ez (V/m) @ t=0.46
-0.752977812912222
% es.tEx (V/m) @ t=0.46
1.5171149073441752
% es.tEy (V/m) @ t=0.46
0
% es.tEz (V/m) @ t=0.46
-0.7529778129122171
% V (V) @ t=0.46
0.007688855051646848
% es.normE (V/m) @ t=0.48
1.7101181335005902
% es.EX (V/m) @ t=0.48
1.5309140775288266
% es.EY (V/m) @ t=0.48
0.058902747827121654
% es.EZ (V/m) @ t=0.48
-0.7598266542720303
% es.tEX (V/m) @ t=0.48
1.5309140775288252
% es.tEY (V/m) @ t=0.48
0
% es.tEZ (V/m) @ t=0.48
-0.7598266542720218
% es.Ex (V/m) @ t=0.48
1.5309140775288266
% es.Ey (V/m) @ t=0.48
0.058902747827121654
% es.Ez (V/m) @ t=0.48
-0.7598266542720303
% es.tEx (V/m) @ t=0.48
1.5309140775288252
% es.tEy (V/m) @ t=0.48
0
% es.tEz (V/m) @ t=0.48
-0.7598266542720218
% V (V) @ t=0.48
0.007758790497769337
% es.normE (V/m) @ t=0.5
1.7255325946056093
% es.EX (V/m) @ t=0.5
1.5447132477134664
% es.EY (V/m) @ t=0.5
0.05943367361945728
% es.EZ (V/m) @ t=0.5
-0.7666754956318209
% es.tEX (V/m) @ t=0.5
1.5447132477134655
% es.tEY (V/m) @ t=0.5
0
% es.tEZ (V/m) @ t=0.5
-0.7666754956318123
% es.Ex (V/m) @ t=0.5
1.5447132477134664
% es.Ey (V/m) @ t=0.5
0.05943367361945728
% es.Ez (V/m) @ t=0.5
-0.7666754956318209
% es.tEx (V/m) @ t=0.5
1.5447132477134655
% es.tEy (V/m) @ t=0.5
0
% es.tEz (V/m) @ t=0.5
-0.7666754956318123
% V (V) @ t=0.5
0.007828725943891824
% es.normE (V/m) @ t=0.52
1.7409470557106275
% es.EX (V/m) @ t=0.52
1.558512417898104
% es.EY (V/m) @ t=0.52
0.05996459941182489
% es.EZ (V/m) @ t=0.52
-0.7735243369916116
% es.tEX (V/m) @ t=0.52
1.5585124178981014
% es.tEY (V/m) @ t=0.52
0
% es.tEZ (V/m) @ t=0.52
-0.7735243369916098
% es.Ex (V/m) @ t=0.52
1.558512417898104
% es.Ey (V/m) @ t=0.52
0.05996459941182489
% es.Ez (V/m) @ t=0.52
-0.7735243369916116
% es.tEx (V/m) @ t=0.52
1.5585124178981014
% es.tEy (V/m) @ t=0.52
0
% es.tEz (V/m) @ t=0.52
-0.7735243369916098
% V (V) @ t=0.52
0.007898661390014312
% es.normE (V/m) @ t=0.54
1.7563615168156688
% es.EX (V/m) @ t=0.54
1.5723115880827596
% es.EY (V/m) @ t=0.54
0.06049552520417251
% es.EZ (V/m) @ t=0.54
-0.7803731783514198
% es.tEX (V/m) @ t=0.54
1.5723115880827585
% es.tEY (V/m) @ t=0.54
0
% es.tEZ (V/m) @ t=0.54
-0.7803731783514074
% es.Ex (V/m) @ t=0.54
1.5723115880827596
% es.Ey (V/m) @ t=0.54
0.06049552520417251
% es.Ez (V/m) @ t=0.54
-0.7803731783514198
% es.tEx (V/m) @ t=0.54
1.5723115880827585
% es.tEy (V/m) @ t=0.54
0
% es.tEz (V/m) @ t=0.54
-0.7803731783514074
% V (V) @ t=0.54
0.0079685968361368
% es.normE (V/m) @ t=0.56
1.773266759812154
% es.EX (V/m) @ t=0.56
1.5874453107861213
% es.EY (V/m) @ t=0.56
0.06107778145914072
% es.EZ (V/m) @ t=0.56
-0.7878844133846743
% es.tEX (V/m) @ t=0.56
1.587445310786121
% es.tEY (V/m) @ t=0.56
0
% es.tEZ (V/m) @ t=0.56
-0.7878844133846634
% es.Ex (V/m) @ t=0.56
1.5874453107861213
% es.Ey (V/m) @ t=0.56
0.06107778145914072
% es.Ez (V/m) @ t=0.56
-0.7878844133846743
% es.tEx (V/m) @ t=0.56
1.587445310786121
% es.tEy (V/m) @ t=0.56
0
% es.tEz (V/m) @ t=0.56
-0.7878844133846634
% V (V) @ t=0.56
0.008045296589549724
% es.normE (V/m) @ t=0.58
1.7904650551818473
% es.EX (V/m) @ t=0.58
1.6028413748722277
% es.EY (V/m) @ t=0.58
0.06167012806603278
% es.EZ (V/m) @ t=0.58
-0.7955258593086825
% es.tEX (V/m) @ t=0.58
1.6028413748722237
% es.tEY (V/m) @ t=0.58
0
% es.tEZ (V/m) @ t=0.58
-0.7955258593086789
% es.Ex (V/m) @ t=0.58
1.6028413748722277
% es.Ey (V/m) @ t=0.58
0.06167012806603278
% es.Ez (V/m) @ t=0.58
-0.7955258593086825
% es.tEx (V/m) @ t=0.58
1.6028413748722237
% es.tEy (V/m) @ t=0.58
0
% es.tEz (V/m) @ t=0.58
-0.7955258593086789
% V (V) @ t=0.58
0.008123326045393222
% es.normE (V/m) @ t=0.6
1.807663350551514
% es.EX (V/m) @ t=0.6
1.6182374389583205
% es.EY (V/m) @ t=0.6
0.06226247467290261
% es.EZ (V/m) @ t=0.6
-0.8031673052326587
% es.tEX (V/m) @ t=0.6
1.61823743895832
% es.tEY (V/m) @ t=0.6
0
% es.tEZ (V/m) @ t=0.6
-0.8031673052326553
% es.Ex (V/m) @ t=0.6
1.6182374389583205
% es.Ey (V/m) @ t=0.6
0.06226247467290261
% es.Ez (V/m) @ t=0.6
-0.8031673052326587
% es.tEx (V/m) @ t=0.6
1.61823743895832
% es.tEy (V/m) @ t=0.6
0
% es.tEz (V/m) @ t=0.6
-0.8031673052326553
% V (V) @ t=0.6
0.00820135550123672
% es.normE (V/m) @ t=0.62
1.8248616459211964
% es.EX (V/m) @ t=0.62
1.6336335030444198
% es.EY (V/m) @ t=0.62
0.06285482127977693
% es.EZ (V/m) @ t=0.62
-0.8108087511566544
% es.tEX (V/m) @ t=0.62
1.6336335030444156
% es.tEY (V/m) @ t=0.62
0
% es.tEZ (V/m) @ t=0.62
-0.810808751156646
% es.Ex (V/m) @ t=0.62
1.6336335030444198
% es.Ey (V/m) @ t=0.62
0.06285482127977693
% es.Ez (V/m) @ t=0.62
-0.8108087511566544
% es.tEx (V/m) @ t=0.62
1.6336335030444156
% es.tEy (V/m) @ t=0.62
0
% es.tEz (V/m) @ t=0.62
-0.810808751156646
% V (V) @ t=0.62
0.00827938495708022
% es.normE (V/m) @ t=0.64
1.8420599412908998
% es.EX (V/m) @ t=0.64
1.6490295671305337
% es.EY (V/m) @ t=0.64
0.06344716788666366
% es.EZ (V/m) @ t=0.64
-0.8184501970806644
% es.tEX (V/m) @ t=0.64
1.6490295671305333
% es.tEY (V/m) @ t=0.64
0
% es.tEZ (V/m) @ t=0.64
-0.8184501970806615
% es.Ex (V/m) @ t=0.64
1.6490295671305337
% es.Ey (V/m) @ t=0.64
0.06344716788666366
% es.Ez (V/m) @ t=0.64
-0.8184501970806644
% es.tEx (V/m) @ t=0.64
1.6490295671305333
% es.tEy (V/m) @ t=0.64
0
% es.tEz (V/m) @ t=0.64
-0.8184501970806615
% V (V) @ t=0.64
0.008357414412923717
% es.normE (V/m) @ t=0.66
1.8592582366605712
% es.EX (V/m) @ t=0.66
1.6644256312166226
% es.EY (V/m) @ t=0.66
0.06403951449354064
% es.EZ (V/m) @ t=0.66
-0.826091643004653
% es.tEX (V/m) @ t=0.66
1.6644256312166217
% es.tEY (V/m) @ t=0.66
0
% es.tEZ (V/m) @ t=0.66
-0.8260916430046414
% es.Ex (V/m) @ t=0.66
1.6644256312166226
% es.Ey (V/m) @ t=0.66
0.06403951449354064
% es.Ez (V/m) @ t=0.66
-0.826091643004653
% es.tEx (V/m) @ t=0.66
1.6644256312166217
% es.tEy (V/m) @ t=0.66
0
% es.tEz (V/m) @ t=0.66
-0.8260916430046414
% V (V) @ t=0.66
0.008435443868767215
% es.normE (V/m) @ t=0.68
1.876456532030269
% es.EX (V/m) @ t=0.68
1.6798216953027327
% es.EY (V/m) @ t=0.68
0.0646318611004078
% es.EZ (V/m) @ t=0.68
-0.8337330889286558
% es.tEX (V/m) @ t=0.68
1.6798216953027314
% es.tEY (V/m) @ t=0.68
0
% es.tEZ (V/m) @ t=0.68
-0.8337330889286463
% es.Ex (V/m) @ t=0.68
1.6798216953027327
% es.Ey (V/m) @ t=0.68
0.0646318611004078
% es.Ez (V/m) @ t=0.68
-0.8337330889286558
% es.tEx (V/m) @ t=0.68
1.6798216953027314
% es.tEy (V/m) @ t=0.68
0
% es.tEz (V/m) @ t=0.68
-0.8337330889286463
% V (V) @ t=0.68
0.008513473324610716
% es.normE (V/m) @ t=0.7
1.8936548273999478
% es.EX (V/m) @ t=0.7
1.695217759388829
% es.EY (V/m) @ t=0.7
0.06522420770728746
% es.EZ (V/m) @ t=0.7
-0.8413745348526409
% es.tEX (V/m) @ t=0.7
1.695217759388842
% es.tEY (V/m) @ t=0.7
0
% es.tEZ (V/m) @ t=0.7
-0.8413745348526405
% es.Ex (V/m) @ t=0.7
1.695217759388829
% es.Ey (V/m) @ t=0.7
0.06522420770728746
% es.Ez (V/m) @ t=0.7
-0.8413745348526409
% es.tEx (V/m) @ t=0.7
1.695217759388842
% es.tEy (V/m) @ t=0.7
0
% es.tEz (V/m) @ t=0.7
-0.8413745348526405
% V (V) @ t=0.7
0.008591502780454213
% es.normE (V/m) @ t=0.72
1.910853122769654
% es.EX (V/m) @ t=0.72
1.710613823474946
% es.EY (V/m) @ t=0.72
0.06581655431416708
% es.EZ (V/m) @ t=0.72
-0.8490159807766438
% es.tEX (V/m) @ t=0.72
1.7106138234749446
% es.tEY (V/m) @ t=0.72
0
% es.tEZ (V/m) @ t=0.72
-0.8490159807766453
% es.Ex (V/m) @ t=0.72
1.710613823474946
% es.Ey (V/m) @ t=0.72
0.06581655431416708
% es.Ez (V/m) @ t=0.72
-0.8490159807766438
% es.tEx (V/m) @ t=0.72
1.7106138234749446
% es.tEy (V/m) @ t=0.72
0
% es.tEz (V/m) @ t=0.72
-0.8490159807766453
% V (V) @ t=0.72
0.008669532236297711
% es.normE (V/m) @ t=0.74
1.928051418139344
% es.EX (V/m) @ t=0.74
1.726009887561046
% es.EY (V/m) @ t=0.74
0.0664089009210316
% es.EZ (V/m) @ t=0.74
-0.8566574267006448
% es.tEX (V/m) @ t=0.74
1.726009887561041
% es.tEY (V/m) @ t=0.74
0
% es.tEZ (V/m) @ t=0.74
-0.856657426700643
% es.Ex (V/m) @ t=0.74
1.726009887561046
% es.Ey (V/m) @ t=0.74
0.0664089009210316
% es.Ez (V/m) @ t=0.74
-0.8566574267006448
% es.tEx (V/m) @ t=0.74
1.726009887561041
% es.tEy (V/m) @ t=0.74
0
% es.tEz (V/m) @ t=0.74
-0.856657426700643
% V (V) @ t=0.74
0.00874756169214121
% es.normE (V/m) @ t=0.76
1.945249713509035
% es.EX (V/m) @ t=0.76
1.7414059516471454
% es.EY (V/m) @ t=0.76
0.06700124752791303
% es.EZ (V/m) @ t=0.76
-0.8642988726246459
% es.tEX (V/m) @ t=0.76
1.7414059516471436
% es.tEY (V/m) @ t=0.76
0
% es.tEZ (V/m) @ t=0.76
-0.8642988726246301
% es.Ex (V/m) @ t=0.76
1.7414059516471454
% es.Ey (V/m) @ t=0.76
0.06700124752791303
% es.Ez (V/m) @ t=0.76
-0.8642988726246459
% es.tEx (V/m) @ t=0.76
1.7414059516471436
% es.tEy (V/m) @ t=0.76
0
% es.tEz (V/m) @ t=0.76
-0.8642988726246301
% V (V) @ t=0.76
0.008825591147984709
% es.normE (V/m) @ t=0.78
1.962448008878729
% es.EX (V/m) @ t=0.78
1.756802015733248
% es.EY (V/m) @ t=0.78
0.06759359413478908
% es.EZ (V/m) @ t=0.78
-0.8719403185486452
% es.tEX (V/m) @ t=0.78
1.7568020157332462
% es.tEY (V/m) @ t=0.78
0
% es.tEZ (V/m) @ t=0.78
-0.8719403185486314
% es.Ex (V/m) @ t=0.78
1.756802015733248
% es.Ey (V/m) @ t=0.78
0.06759359413478908
% es.Ez (V/m) @ t=0.78
-0.8719403185486452
% es.tEx (V/m) @ t=0.78
1.7568020157332462
% es.tEy (V/m) @ t=0.78
0
% es.tEz (V/m) @ t=0.78
-0.8719403185486314
% V (V) @ t=0.78
0.008903620603828207
% es.normE (V/m) @ t=0.8
1.9796463042484174
% es.EX (V/m) @ t=0.8
1.7721980798193515
% es.EY (V/m) @ t=0.8
0.06818594074167139
% es.EZ (V/m) @ t=0.8
-0.8795817644726285
% es.tEX (V/m) @ t=0.8
1.7721980798193497
% es.tEY (V/m) @ t=0.8
0
% es.tEZ (V/m) @ t=0.8
-0.8795817644726256
% es.Ex (V/m) @ t=0.8
1.7721980798193515
% es.Ey (V/m) @ t=0.8
0.06818594074167139
% es.Ez (V/m) @ t=0.8
-0.8795817644726285
% es.tEx (V/m) @ t=0.8
1.7721980798193497
% es.tEy (V/m) @ t=0.8
0
% es.tEz (V/m) @ t=0.8
-0.8795817644726256
% V (V) @ t=0.8
0.008981650059671704
% es.normE (V/m) @ t=0.82
1.9973682053655306
% es.EX (V/m) @ t=0.82
1.7880628809318622
% es.EY (V/m) @ t=0.82
0.06879632256084617
% es.EZ (V/m) @ t=0.82
-0.887455854558831
% es.tEX (V/m) @ t=0.82
1.7880628809318582
% es.tEY (V/m) @ t=0.82
0
% es.tEZ (V/m) @ t=0.82
-0.8874558545588371
% es.Ex (V/m) @ t=0.82
1.7880628809318622
% es.Ey (V/m) @ t=0.82
0.06879632256084617
% es.Ez (V/m) @ t=0.82
-0.887455854558831
% es.tEx (V/m) @ t=0.82
1.7880628809318582
% es.tEy (V/m) @ t=0.82
0
% es.tEz (V/m) @ t=0.82
-0.8874558545588371
% V (V) @ t=0.82
0.009062055098871823
% es.normE (V/m) @ t=0.84
2.016591673533866
% es.EX (V/m) @ t=0.84
1.8052718996699577
% es.EY (V/m) @ t=0.84
0.06945842474533695
% es.EZ (V/m) @ t=0.84
-0.8959971084612373
% es.tEX (V/m) @ t=0.84
1.8052718996699566
% es.tEY (V/m) @ t=0.84
0
% es.tEZ (V/m) @ t=0.84
-0.8959971084612377
% es.Ex (V/m) @ t=0.84
1.8052718996699577
% es.Ey (V/m) @ t=0.84
0.06945842474533695
% es.Ez (V/m) @ t=0.84
-0.8959971084612373
% es.tEx (V/m) @ t=0.84
1.8052718996699566
% es.tEy (V/m) @ t=0.84
0
% es.tEz (V/m) @ t=0.84
-0.8959971084612377
% V (V) @ t=0.84
0.00914927270213056
% es.normE (V/m) @ t=0.86
2.0358151417021952
% es.EX (V/m) @ t=0.86
1.8224809184080504
% es.EY (V/m) @ t=0.86
0.07012052692983534
% es.EZ (V/m) @ t=0.86
-0.9045383623636347
% es.tEX (V/m) @ t=0.86
1.822480918408048
% es.tEY (V/m) @ t=0.86
0
% es.tEZ (V/m) @ t=0.86
-0.9045383623636241
% es.Ex (V/m) @ t=0.86
1.8224809184080504
% es.Ey (V/m) @ t=0.86
0.07012052692983534
% es.Ez (V/m) @ t=0.86
-0.9045383623636347
% es.tEx (V/m) @ t=0.86
1.822480918408048
% es.tEy (V/m) @ t=0.86
0
% es.tEz (V/m) @ t=0.86
-0.9045383623636241
% V (V) @ t=0.86
0.009236490305389295
% es.normE (V/m) @ t=0.88
2.055038609870516
% es.EX (V/m) @ t=0.88
1.8396899371461362
% es.EY (V/m) @ t=0.88
0.0707826291143279
% es.EZ (V/m) @ t=0.88
-0.9130796162660251
% es.tEX (V/m) @ t=0.88
1.8396899371461402
% es.tEY (V/m) @ t=0.88
0
% es.tEZ (V/m) @ t=0.88
-0.9130796162660246
% es.Ex (V/m) @ t=0.88
1.8396899371461362
% es.Ey (V/m) @ t=0.88
0.0707826291143279
% es.Ez (V/m) @ t=0.88
-0.9130796162660251
% es.tEx (V/m) @ t=0.88
1.8396899371461402
% es.tEy (V/m) @ t=0.88
0
% es.tEz (V/m) @ t=0.88
-0.9130796162660246
% V (V) @ t=0.88
0.009323707908648032
% es.normE (V/m) @ t=0.9
2.0742620780388474
% es.EX (V/m) @ t=0.9
1.8568989558842324
% es.EY (V/m) @ t=0.9
0.07144473129882317
% es.EZ (V/m) @ t=0.9
-0.9216208701684172
% es.tEX (V/m) @ t=0.9
1.8568989558842386
% es.tEY (V/m) @ t=0.9
0
% es.tEZ (V/m) @ t=0.9
-0.921620870168411
% es.Ex (V/m) @ t=0.9
1.8568989558842324
% es.Ey (V/m) @ t=0.9
0.07144473129882317
% es.Ez (V/m) @ t=0.9
-0.9216208701684172
% es.tEx (V/m) @ t=0.9
1.8568989558842386
% es.tEy (V/m) @ t=0.9
0
% es.tEz (V/m) @ t=0.9
-0.921620870168411
% V (V) @ t=0.9
0.00941092551190677
% es.normE (V/m) @ t=0.92
2.0934855462071944
% es.EX (V/m) @ t=0.92
1.8741079746223397
% es.EY (V/m) @ t=0.92
0.07210683348332156
% es.EZ (V/m) @ t=0.92
-0.93016212407082
% es.tEX (V/m) @ t=0.92
1.874107974622337
% es.tEY (V/m) @ t=0.92
0
% es.tEZ (V/m) @ t=0.92
-0.9301621240708116
% es.Ex (V/m) @ t=0.92
1.8741079746223397
% es.Ey (V/m) @ t=0.92
0.07210683348332156
% es.Ez (V/m) @ t=0.92
-0.93016212407082
% es.tEx (V/m) @ t=0.92
1.874107974622337
% es.tEy (V/m) @ t=0.92
0
% es.tEz (V/m) @ t=0.92
-0.9301621240708116
% V (V) @ t=0.92
0.009498143115165504
% es.normE (V/m) @ t=0.94
2.112709014375521
% es.EX (V/m) @ t=0.94
1.8913169933604284
% es.EY (V/m) @ t=0.94
0.07276893566781012
% es.EZ (V/m) @ t=0.94
-0.9387033779732157
% es.tEX (V/m) @ t=0.94
1.8913169933604141
% es.tEY (V/m) @ t=0.94
0
% es.tEZ (V/m) @ t=0.94
-0.938703377973205
% es.Ex (V/m) @ t=0.94
1.8913169933604284
% es.Ey (V/m) @ t=0.94
0.07276893566781012
% es.Ez (V/m) @ t=0.94
-0.9387033779732157
% es.tEx (V/m) @ t=0.94
1.8913169933604141
% es.tEy (V/m) @ t=0.94
0
% es.tEz (V/m) @ t=0.94
-0.938703377973205
% V (V) @ t=0.94
0.00958536071842424
% es.normE (V/m) @ t=0.96
2.131932482543836
% es.EX (V/m) @ t=0.96
1.9085260120985073
% es.EY (V/m) @ t=0.96
0.07343103785228364
% es.EZ (V/m) @ t=0.96
-0.9472446318756043
% es.tEX (V/m) @ t=0.96
1.9085260120985055
% es.tEY (V/m) @ t=0.96
0
% es.tEZ (V/m) @ t=0.96
-0.9472446318755985
% es.Ex (V/m) @ t=0.96
1.9085260120985073
% es.Ey (V/m) @ t=0.96
0.07343103785228364
% es.Ez (V/m) @ t=0.96
-0.9472446318756043
% es.tEx (V/m) @ t=0.96
1.9085260120985055
% es.tEy (V/m) @ t=0.96
0
% es.tEz (V/m) @ t=0.96
-0.9472446318755985
% V (V) @ t=0.96
0.009672578321682975
% es.normE (V/m) @ t=0.98
2.1511559507121745
% es.EX (V/m) @ t=0.98
1.925735030836607
% es.EY (V/m) @ t=0.98
0.07409314003678732
% es.EZ (V/m) @ t=0.98
-0.9557858857779999
% es.tEX (V/m) @ t=0.98
1.925735030836612
% es.tEY (V/m) @ t=0.98
0
% es.tEZ (V/m) @ t=0.98
-0.9557858857779991
% es.Ex (V/m) @ t=0.98
1.925735030836607
% es.Ey (V/m) @ t=0.98
0.07409314003678732
% es.Ez (V/m) @ t=0.98
-0.9557858857779999
% es.tEx (V/m) @ t=0.98
1.925735030836612
% es.tEy (V/m) @ t=0.98
0
% es.tEz (V/m) @ t=0.98
-0.9557858857779991
% V (V) @ t=0.98
0.009759795924941708
% es.normE (V/m) @ t=1
2.1703794188805077
% es.EX (V/m) @ t=1
1.9429440495746955
% es.EY (V/m) @ t=1
0.07475524222127591
% es.EZ (V/m) @ t=1
-0.9643271396804063
% es.tEX (V/m) @ t=1
1.9429440495746881
% es.tEY (V/m) @ t=1
0
% es.tEZ (V/m) @ t=1
-0.9643271396803925
% es.Ex (V/m) @ t=1
1.9429440495746955
% es.Ey (V/m) @ t=1
0.07475524222127591
% es.Ez (V/m) @ t=1
-0.9643271396804063
% es.tEx (V/m) @ t=1
1.9429440495746881
% es.tEy (V/m) @ t=1
0
% es.tEz (V/m) @ t=1
-0.9643271396803925
% V (V) @ t=1
0.009847013528200445
% es.normE (V/m) @ t=1.02
2.189602887048843
% es.EX (V/m) @ t=1.02
1.9601530683127961
% es.EY (V/m) @ t=1.02
0.07541734440578049
% es.EZ (V/m) @ t=1.02
-0.9728683935827912
% es.tEX (V/m) @ t=1.02
1.9601530683127946
% es.tEY (V/m) @ t=1.02
0
% es.tEZ (V/m) @ t=1.02
-0.972868393582786
% es.Ex (V/m) @ t=1.02
1.9601530683127961
% es.Ey (V/m) @ t=1.02
0.07541734440578049
% es.Ez (V/m) @ t=1.02
-0.9728683935827912
% es.tEx (V/m) @ t=1.02
1.9601530683127946
% es.tEy (V/m) @ t=1.02
0
% es.tEz (V/m) @ t=1.02
-0.972868393582786
% V (V) @ t=1.02
0.009934231131459182
% es.normE (V/m) @ t=1.04
2.208826355217181
% es.EX (V/m) @ t=1.04
1.9773620870508883
% es.EY (V/m) @ t=1.04
0.07607944659028065
% es.EZ (V/m) @ t=1.04
-0.9814096474851975
% es.tEX (V/m) @ t=1.04