% Model:              1 neuron.mph
% Version:            COMSOL 6.0.0.405
% Date:               Mar 16 2023, 17:00
% Dimension:          0
% Nodes:              14017
% Expressions:        14017
% Description:        Electric field norm, Electric field, X component, Electric field, Y component, Electric field, Z component, Tangential electric field, X component, Tangential electric field, Y component, Tangential electric field, Z component, Electric field, x component, Electric field, y component, Electric field, z component, Tangential electric field, x component, Tangential electric field, y component, Tangential electric field, z component, Electric potential
% Length unit:        mm
% x
1
% y
12.2
% z
1.33
% es.normE (V/m) @ t=0
1.455372545079953
% es.EX (V/m) @ t=0
1.344955102084337
% es.EY (V/m) @ t=0
0.0846866786063658
% es.EZ (V/m) @ t=0
0.54371406178233
% es.tEX (V/m) @ t=0
1.3449551020843318
% es.tEY (V/m) @ t=0
0
% es.tEZ (V/m) @ t=0
0.5437140617823308
% es.Ex (V/m) @ t=0
1.344955102084337
% es.Ey (V/m) @ t=0
0.0846866786063658
% es.Ez (V/m) @ t=0
0.54371406178233
% es.tEx (V/m) @ t=0
1.3449551020843318
% es.tEy (V/m) @ t=0
0
% es.tEz (V/m) @ t=0
0.5437140617823308
% V (V) @ t=0
0.0072596330580801645
% es.normE (V/m) @ t=0.02
1.257032284716985
% es.EX (V/m) @ t=0.02
1.161662688783343
% es.EY (V/m) @ t=0.02
0.07314545779537796
% es.EZ (V/m) @ t=0.02
0.4696159302546967
% es.tEX (V/m) @ t=0.02
1.1616626887833421
% es.tEY (V/m) @ t=0.02
0
% es.tEZ (V/m) @ t=0.02
0.4696159302546965
% es.Ex (V/m) @ t=0.02
1.161662688783343
% es.Ey (V/m) @ t=0.02
0.07314545779537796
% es.Ez (V/m) @ t=0.02
0.4696159302546967
% es.tEx (V/m) @ t=0.02
1.1616626887833421
% es.tEy (V/m) @ t=0.02
0
% es.tEz (V/m) @ t=0.02
0.4696159302546965
% V (V) @ t=0.02
0.006270279761063865
% es.normE (V/m) @ t=0.04
1.2685936784461356
% es.EX (V/m) @ t=0.04
1.172346930921706
% es.EY (V/m) @ t=0.04
0.07381820800212086
% es.EZ (V/m) @ t=0.04
0.4739351675865511
% es.tEX (V/m) @ t=0.04
1.1723469309217025
% es.tEY (V/m) @ t=0.04
0
% es.tEZ (V/m) @ t=0.04
0.47393516758655396
% es.Ex (V/m) @ t=0.04
1.172346930921706
% es.Ey (V/m) @ t=0.04
0.07381820800212086
% es.Ez (V/m) @ t=0.04
0.4739351675865511
% es.tEx (V/m) @ t=0.04
1.1723469309217025
% es.tEy (V/m) @ t=0.04
0
% es.tEz (V/m) @ t=0.04
0.47393516758655396
% V (V) @ t=0.04
0.006327949613289745
% es.normE (V/m) @ t=0.06
1.2802586871894053
% es.EX (V/m) @ t=0.06
1.1831269271059748
% es.EY (V/m) @ t=0.06
0.07449698709562019
% es.EZ (V/m) @ t=0.06
0.4782931140885247
% es.tEX (V/m) @ t=0.06
1.183126927105974
% es.tEY (V/m) @ t=0.06
0
% es.tEZ (V/m) @ t=0.06
0.47829311408852204
% es.Ex (V/m) @ t=0.06
1.1831269271059748
% es.Ey (V/m) @ t=0.06
0.07449698709562019
% es.Ez (V/m) @ t=0.06
0.4782931140885247
% es.tEx (V/m) @ t=0.06
1.183126927105974
% es.tEy (V/m) @ t=0.06
0
% es.tEz (V/m) @ t=0.06
0.47829311408852204
% V (V) @ t=0.06
0.006386136336160496
% es.normE (V/m) @ t=0.08
1.2921031201364608
% es.EX (V/m) @ t=0.08
1.1940727320030184
% es.EY (V/m) @ t=0.08
0.07518621275082898
% es.EZ (V/m) @ t=0.08
0.48271809887272377
% es.tEX (V/m) @ t=0.08
1.1940727320030122
% es.tEY (V/m) @ t=0.08
0
% es.tEZ (V/m) @ t=0.08
0.48271809887272266
% es.Ex (V/m) @ t=0.08
1.1940727320030184
% es.Ey (V/m) @ t=0.08
0.07518621275082898
% es.Ez (V/m) @ t=0.08
0.48271809887272377
% es.tEx (V/m) @ t=0.08
1.1940727320030122
% es.tEy (V/m) @ t=0.08
0
% es.tEz (V/m) @ t=0.08
0.48271809887272266
% V (V) @ t=0.08
0.006445217704375025
% es.normE (V/m) @ t=0.1
1.3040692956952953
% es.EX (V/m) @ t=0.1
1.2051310411515699
% es.EY (V/m) @ t=0.1
0.07588252658970202
% es.EZ (V/m) @ t=0.1
0.4871885703604608
% es.tEX (V/m) @ t=0.1
1.2051310411515708
% es.tEY (V/m) @ t=0.1
0
% es.tEZ (V/m) @ t=0.1
0.4871885703604555
% es.Ex (V/m) @ t=0.1
1.2051310411515699
% es.Ey (V/m) @ t=0.1
0.07588252658970202
% es.Ez (V/m) @ t=0.1
0.4871885703604608
% es.tEx (V/m) @ t=0.1
1.2051310411515708
% es.tEy (V/m) @ t=0.1
0
% es.tEz (V/m) @ t=0.1
0.4871885703604555
% V (V) @ t=0.1
0.006504906105857482
% es.normE (V/m) @ t=0.12
1.3160354712541216
% es.EX (V/m) @ t=0.12
1.2161893503001098
% es.EY (V/m) @ t=0.12
0.07657884042856794
% es.EZ (V/m) @ t=0.12
0.4916590418482054
% es.tEX (V/m) @ t=0.12
1.2161893503001089
% es.tEY (V/m) @ t=0.12
0
% es.tEZ (V/m) @ t=0.12
0.49165904184820386
% es.Ex (V/m) @ t=0.12
1.2161893503001098
% es.Ey (V/m) @ t=0.12
0.07657884042856794
% es.Ez (V/m) @ t=0.12
0.4916590418482054
% es.tEx (V/m) @ t=0.12
1.2161893503001089
% es.tEy (V/m) @ t=0.12
0
% es.tEz (V/m) @ t=0.12
0.49165904184820386
% V (V) @ t=0.12
0.006564594507339939
% es.normE (V/m) @ t=0.14
1.328130096088816
% es.EX (V/m) @ t=0.14
1.227366365833456
% es.EY (V/m) @ t=0.14
0.07728262336366754
% es.EZ (V/m) @ t=0.14
0.4961774947557649
% es.tEX (V/m) @ t=0.14
1.2273663658334568
% es.tEY (V/m) @ t=0.14
0
% es.tEZ (V/m) @ t=0.14
0.49617749475576156
% es.Ex (V/m) @ t=0.14
1.227366365833456
% es.Ey (V/m) @ t=0.14
0.07728262336366754
% es.Ez (V/m) @ t=0.14
0.4961774947557649
% es.tEx (V/m) @ t=0.14
1.2273663658334568
% es.tEy (V/m) @ t=0.14
0
% es.tEz (V/m) @ t=0.14
0.49617749475576156
% V (V) @ t=0.14
0.006624923938807629
% es.normE (V/m) @ t=0.16
1.3407338279509053
% es.EX (V/m) @ t=0.16
1.2390138725726993
% es.EY (V/m) @ t=0.16
0.07801600996410124
% es.EZ (V/m) @ t=0.16
0.5008861213941747
% es.tEX (V/m) @ t=0.16
1.2390138725727002
% es.tEY (V/m) @ t=0.16
0
% es.tEZ (V/m) @ t=0.16
0.5008861213941729
% es.Ex (V/m) @ t=0.16
1.2390138725726993
% es.Ey (V/m) @ t=0.16
0.07801600996410124
% es.Ez (V/m) @ t=0.16
0.5008861213941747
% es.tEx (V/m) @ t=0.16
1.2390138725727002
% es.tEy (V/m) @ t=0.16
0
% es.tEz (V/m) @ t=0.16
0.5008861213941729
% V (V) @ t=0.16
0.006687794084250269
% es.normE (V/m) @ t=0.18
1.353337559813003
% es.EX (V/m) @ t=0.18
1.250661379311949
% es.EY (V/m) @ t=0.18
0.07874939656453056
% es.EZ (V/m) @ t=0.18
0.5055947480325922
% es.tEX (V/m) @ t=0.18
1.250661379311948
% es.tEY (V/m) @ t=0.18
0
% es.tEZ (V/m) @ t=0.18
0.5055947480325926
% es.Ex (V/m) @ t=0.18
1.250661379311949
% es.Ey (V/m) @ t=0.18
0.07874939656453056
% es.Ez (V/m) @ t=0.18
0.5055947480325922
% es.tEx (V/m) @ t=0.18
1.250661379311948
% es.tEy (V/m) @ t=0.18
0
% es.tEz (V/m) @ t=0.18
0.5055947480325926
% V (V) @ t=0.18
0.006750664229692908
% es.normE (V/m) @ t=0.2
1.3659412916750973
% es.EX (V/m) @ t=0.2
1.262308886051196
% es.EY (V/m) @ t=0.2
0.0794827831649616
% es.EZ (V/m) @ t=0.2
0.5103033746710055
% es.tEX (V/m) @ t=0.2
1.2623088860511986
% es.tEY (V/m) @ t=0.2
0
% es.tEZ (V/m) @ t=0.2
0.5103033746710075
% es.Ex (V/m) @ t=0.2
1.262308886051196
% es.Ey (V/m) @ t=0.2
0.0794827831649616
% es.Ez (V/m) @ t=0.2
0.5103033746710055
% es.tEx (V/m) @ t=0.2
1.2623088860511986
% es.tEy (V/m) @ t=0.2
0
% es.tEz (V/m) @ t=0.2
0.5103033746710075
% V (V) @ t=0.2
0.006813534375135547
% es.normE (V/m) @ t=0.22
1.3785450235371906
% es.EX (V/m) @ t=0.22
1.273956392790442
% es.EY (V/m) @ t=0.22
0.08021616976540058
% es.EZ (V/m) @ t=0.22
0.5150120013094155
% es.tEX (V/m) @ t=0.22
1.273956392790443
% es.tEY (V/m) @ t=0.22
0
% es.tEZ (V/m) @ t=0.22
0.5150120013094188
% es.Ex (V/m) @ t=0.22
1.273956392790442
% es.Ey (V/m) @ t=0.22
0.08021616976540058
% es.Ez (V/m) @ t=0.22
0.5150120013094155
% es.tEx (V/m) @ t=0.22
1.273956392790443
% es.tEy (V/m) @ t=0.22
0
% es.tEz (V/m) @ t=0.22
0.5150120013094188
% V (V) @ t=0.22
0.006876404520578187
% es.normE (V/m) @ t=0.24
1.3911487553992852
% es.EX (V/m) @ t=0.24
1.285603899529689
% es.EY (V/m) @ t=0.24
0.08094955636583157
% es.EZ (V/m) @ t=0.24
0.5197206279478273
% es.tEX (V/m) @ t=0.24
1.2856038995296855
% es.tEY (V/m) @ t=0.24
0
% es.tEZ (V/m) @ t=0.24
0.519720627947827
% es.Ex (V/m) @ t=0.24
1.285603899529689
% es.Ey (V/m) @ t=0.24
0.08094955636583157
% es.Ez (V/m) @ t=0.24
0.5197206279478273
% es.tEx (V/m) @ t=0.24
1.2856038995296855
% es.tEy (V/m) @ t=0.24
0
% es.tEz (V/m) @ t=0.24
0.519720627947827
% V (V) @ t=0.24
0.006939274666020827
% es.normE (V/m) @ t=0.26
1.4037524872613831
% es.EX (V/m) @ t=0.26
1.2972514062689386
% es.EY (V/m) @ t=0.26
0.08168294296626005
% es.EZ (V/m) @ t=0.26
0.524429254586241
% es.tEX (V/m) @ t=0.26
1.2972514062689413
% es.tEY (V/m) @ t=0.26
0
% es.tEZ (V/m) @ t=0.26
0.5244292545862428
% es.Ex (V/m) @ t=0.26
1.2972514062689386
% es.Ey (V/m) @ t=0.26
0.08168294296626005
% es.Ez (V/m) @ t=0.26
0.524429254586241
% es.tEx (V/m) @ t=0.26
1.2972514062689413
% es.tEy (V/m) @ t=0.26
0
% es.tEz (V/m) @ t=0.26
0.5244292545862428
% V (V) @ t=0.26
0.007002144811463466
% es.normE (V/m) @ t=0.28
1.4169480764453426
% es.EX (V/m) @ t=0.28
1.3094458650379126
% es.EY (V/m) @ t=0.28
0.08245077286730013
% es.EZ (V/m) @ t=0.28
0.5293589982195406
% es.tEX (V/m) @ t=0.28
1.3094458650379162
% es.tEY (V/m) @ t=0.28
0
% es.tEZ (V/m) @ t=0.28
0.5293589982195424
% es.Ex (V/m) @ t=0.28
1.3094458650379126
% es.Ey (V/m) @ t=0.28
0.08245077286730013
% es.Ez (V/m) @ t=0.28
0.5293589982195406
% es.tEx (V/m) @ t=0.28
1.3094458650379162
% es.tEy (V/m) @ t=0.28
0
% es.tEz (V/m) @ t=0.28
0.5293589982195424
% V (V) @ t=0.28
0.0070679670197003755
% es.normE (V/m) @ t=0.3
1.4309852699623795
% es.EX (V/m) @ t=0.3
1.3224180740875724
% es.EY (V/m) @ t=0.3
0.08326758016535735
% es.EZ (V/m) @ t=0.3
0.5346031639511013
% es.tEX (V/m) @ t=0.3
1.3224180740875706
% es.tEY (V/m) @ t=0.3
0
% es.tEZ (V/m) @ t=0.3
0.5346031639511013
% es.Ex (V/m) @ t=0.3
1.3224180740875724
% es.Ey (V/m) @ t=0.3
0.08326758016535735
% es.Ez (V/m) @ t=0.3
0.5346031639511013
% es.tEx (V/m) @ t=0.3
1.3224180740875706
% es.tEy (V/m) @ t=0.3
0
% es.tEz (V/m) @ t=0.3
0.5346031639511013
% V (V) @ t=0.3
0.007137986977542481
% es.normE (V/m) @ t=0.32
1.445022463479415
% es.EX (V/m) @ t=0.32
1.3353902831372393
% es.EY (V/m) @ t=0.32
0.08408438746341024
% es.EZ (V/m) @ t=0.32
0.5398473296826394
% es.tEX (V/m) @ t=0.32
1.3353902831372375
% es.tEY (V/m) @ t=0.32
0
% es.tEZ (V/m) @ t=0.32
0.5398473296826394
% es.Ex (V/m) @ t=0.32
1.3353902831372393
% es.Ey (V/m) @ t=0.32
0.08408438746341024
% es.Ez (V/m) @ t=0.32
0.5398473296826394
% es.tEx (V/m) @ t=0.32
1.3353902831372375
% es.tEy (V/m) @ t=0.32
0
% es.tEz (V/m) @ t=0.32
0.5398473296826394
% V (V) @ t=0.32
0.007208006935384582
% es.normE (V/m) @ t=0.34
1.45905965699645
% es.EX (V/m) @ t=0.34
1.3483624921868973
% es.EY (V/m) @ t=0.34
0.0849011947614613
% es.EZ (V/m) @ t=0.34
0.5450914954141992
% es.tEX (V/m) @ t=0.34
1.3483624921868955
% es.tEY (V/m) @ t=0.34
0
% es.tEZ (V/m) @ t=0.34
0.545091495414201
% es.Ex (V/m) @ t=0.34
1.3483624921868973
% es.Ey (V/m) @ t=0.34
0.0849011947614613
% es.Ez (V/m) @ t=0.34
0.5450914954141992
% es.tEx (V/m) @ t=0.34
1.3483624921868955
% es.tEy (V/m) @ t=0.34
0
% es.tEz (V/m) @ t=0.34
0.545091495414201
% V (V) @ t=0.34
0.007278026893226687
% es.normE (V/m) @ t=0.36
1.4730968505134916
% es.EX (V/m) @ t=0.36
1.3613347012365615
% es.EY (V/m) @ t=0.36
0.08571800205952135
% es.EZ (V/m) @ t=0.36
0.5503356611457595
% es.tEX (V/m) @ t=0.36
1.3613347012365633
% es.tEY (V/m) @ t=0.36
0
% es.tEZ (V/m) @ t=0.36
0.5503356611457586
% es.Ex (V/m) @ t=0.36
1.3613347012365615
% es.Ey (V/m) @ t=0.36
0.08571800205952135
% es.Ez (V/m) @ t=0.36
0.5503356611457595
% es.tEx (V/m) @ t=0.36
1.3613347012365633
% es.tEy (V/m) @ t=0.36
0
% es.tEz (V/m) @ t=0.36
0.5503356611457586
% V (V) @ t=0.36
0.00734804685106879
% es.normE (V/m) @ t=0.38
1.487134044030531
% es.EX (V/m) @ t=0.38
1.3743069102862293
% es.EY (V/m) @ t=0.38
0.08653480935757413
% es.EZ (V/m) @ t=0.38
0.555579826877306
% es.tEX (V/m) @ t=0.38
1.374306910286224
% es.tEY (V/m) @ t=0.38
0
% es.tEZ (V/m) @ t=0.38
0.5555798268773069
% es.Ex (V/m) @ t=0.38
1.3743069102862293
% es.Ey (V/m) @ t=0.38
0.08653480935757413
% es.Ez (V/m) @ t=0.38
0.555579826877306
% es.tEx (V/m) @ t=0.38
1.374306910286224
% es.tEy (V/m) @ t=0.38
0
% es.tEz (V/m) @ t=0.38
0.5555798268773069
% V (V) @ t=0.38
0.007418066808910894
% es.normE (V/m) @ t=0.4
1.5011712375475643
% es.EX (V/m) @ t=0.4
1.3872791193358838
% es.EY (V/m) @ t=0.4
0.08735161665563052
% es.EZ (V/m) @ t=0.4
0.5608239926088694
% es.tEX (V/m) @ t=0.4
1.3872791193358829
% es.tEY (V/m) @ t=0.4
0
% es.tEZ (V/m) @ t=0.4
0.5608239926088676
% es.Ex (V/m) @ t=0.4
1.3872791193358838
% es.Ey (V/m) @ t=0.4
0.08735161665563052
% es.Ez (V/m) @ t=0.4
0.5608239926088694
% es.tEx (V/m) @ t=0.4
1.3872791193358829
% es.tEy (V/m) @ t=0.4
0
% es.tEz (V/m) @ t=0.4
0.5608239926088676
% V (V) @ t=0.4
0.007488086766752997
% es.normE (V/m) @ t=0.42
1.5152084310646012
% es.EX (V/m) @ t=0.42
1.4002513283855498
% es.EY (V/m) @ t=0.42
0.08816842395368779
% es.EZ (V/m) @ t=0.42
0.5660681583404137
% es.tEX (V/m) @ t=0.42
1.4002513283855462
% es.tEY (V/m) @ t=0.42
0
% es.tEZ (V/m) @ t=0.42
0.5660681583404119
% es.Ex (V/m) @ t=0.42
1.4002513283855498
% es.Ey (V/m) @ t=0.42
0.08816842395368779
% es.Ez (V/m) @ t=0.42
0.5660681583404137
% es.tEx (V/m) @ t=0.42
1.4002513283855462
% es.tEy (V/m) @ t=0.42
0
% es.tEz (V/m) @ t=0.42
0.5660681583404119
% V (V) @ t=0.42
0.007558106724595102
% es.normE (V/m) @ t=0.44
1.5292456245816424
% es.EX (V/m) @ t=0.44
1.4132235374352158
% es.EY (V/m) @ t=0.44
0.08898523125173796
% es.EZ (V/m) @ t=0.44
0.5713123240719695
% es.tEX (V/m) @ t=0.44
1.4132235374352158
% es.tEY (V/m) @ t=0.44
0
% es.tEZ (V/m) @ t=0.44
0.5713123240719686
% es.Ex (V/m) @ t=0.44
1.4132235374352158
% es.Ey (V/m) @ t=0.44
0.08898523125173796
% es.Ez (V/m) @ t=0.44
0.5713123240719695
% es.tEx (V/m) @ t=0.44
1.4132235374352158
% es.tEy (V/m) @ t=0.44
0
% es.tEz (V/m) @ t=0.44
0.5713123240719686
% V (V) @ t=0.44
0.007628126682437205
% es.normE (V/m) @ t=0.46
1.5432828180986733
% es.EX (V/m) @ t=0.46
1.4261957464848738
% es.EY (V/m) @ t=0.46
0.08980203854979357
% es.EZ (V/m) @ t=0.46
0.5765564898035174
% es.tEX (V/m) @ t=0.46
1.426195746484873
% es.tEY (V/m) @ t=0.46
0
% es.tEZ (V/m) @ t=0.46
0.5765564898035191
% es.Ex (V/m) @ t=0.46
1.4261957464848738
% es.Ey (V/m) @ t=0.46
0.08980203854979357
% es.Ez (V/m) @ t=0.46
0.5765564898035174
% es.tEx (V/m) @ t=0.46
1.426195746484873
% es.tEy (V/m) @ t=0.46
0
% es.tEz (V/m) @ t=0.46
0.5765564898035191
% V (V) @ t=0.46
0.007698146640279309
% es.normE (V/m) @ t=0.48
1.5573200116157115
% es.EX (V/m) @ t=0.48
1.4391679555345362
% es.EY (V/m) @ t=0.48
0.09061884584785429
% es.EZ (V/m) @ t=0.48
0.5818006555350741
% es.tEX (V/m) @ t=0.48
1.4391679555345354
% es.tEY (V/m) @ t=0.48
0
% es.tEZ (V/m) @ t=0.48
0.5818006555350741
% es.Ex (V/m) @ t=0.48
1.4391679555345362
% es.Ey (V/m) @ t=0.48
0.09061884584785429
% es.Ez (V/m) @ t=0.48
0.5818006555350741
% es.tEx (V/m) @ t=0.48
1.4391679555345354
% es.tEy (V/m) @ t=0.48
0
% es.tEz (V/m) @ t=0.48
0.5818006555350741
% V (V) @ t=0.48
0.007768166598121413
% es.normE (V/m) @ t=0.5
1.5713572051327533
% es.EX (V/m) @ t=0.5
1.4521401645842031
% es.EY (V/m) @ t=0.5
0.09143565314590008
% es.EZ (V/m) @ t=0.5
0.5870448212666313
% es.tEX (V/m) @ t=0.5
1.452140164584205
% es.tEY (V/m) @ t=0.5
0
% es.tEZ (V/m) @ t=0.5
0.587044821266633
% es.Ex (V/m) @ t=0.5
1.4521401645842031
% es.Ey (V/m) @ t=0.5
0.09143565314590008
% es.Ez (V/m) @ t=0.5
0.5870448212666313
% es.tEx (V/m) @ t=0.5
1.452140164584205
% es.tEy (V/m) @ t=0.5
0
% es.tEz (V/m) @ t=0.5
0.587044821266633
% V (V) @ t=0.5
0.007838186555963517
% es.normE (V/m) @ t=0.52
1.5853943986497887
% es.EX (V/m) @ t=0.52
1.4651123736338647
% es.EY (V/m) @ t=0.52
0.0922524604439609
% es.EZ (V/m) @ t=0.52
0.5922889869981796
% es.tEX (V/m) @ t=0.52
1.4651123736338674
% es.tEY (V/m) @ t=0.52
0
% es.tEZ (V/m) @ t=0.52
0.5922889869981778
% es.Ex (V/m) @ t=0.52
1.4651123736338647
% es.Ey (V/m) @ t=0.52
0.0922524604439609
% es.Ez (V/m) @ t=0.52
0.5922889869981796
% es.tEx (V/m) @ t=0.52
1.4651123736338674
% es.tEy (V/m) @ t=0.52
0
% es.tEz (V/m) @ t=0.52
0.5922889869981778
% V (V) @ t=0.52
0.007908206513805622
% es.normE (V/m) @ t=0.54
1.5994315921668292
% es.EX (V/m) @ t=0.54
1.478084582683529
% es.EY (V/m) @ t=0.54
0.09306926774201563
% es.EZ (V/m) @ t=0.54
0.5975331527297376
% es.tEX (V/m) @ t=0.54
1.478084582683528
% es.tEY (V/m) @ t=0.54
0
% es.tEZ (V/m) @ t=0.54
0.5975331527297385
% es.Ex (V/m) @ t=0.54
1.478084582683529
% es.Ey (V/m) @ t=0.54
0.09306926774201563
% es.Ez (V/m) @ t=0.54
0.5975331527297376
% es.tEx (V/m) @ t=0.54
1.478084582683528
% es.tEy (V/m) @ t=0.54
0
% es.tEz (V/m) @ t=0.54
0.5975331527297385
% V (V) @ t=0.54
0.007978226471647726
% es.normE (V/m) @ t=0.56
1.6148263906591331
% es.EX (V/m) @ t=0.56
1.4923114010644558
% es.EY (V/m) @ t=0.56
0.09396506382923514
% es.EZ (V/m) @ t=0.56
0.6032844966151685
% es.tEX (V/m) @ t=0.56
1.4923114010644545
% es.tEY (V/m) @ t=0.56
0
% es.tEZ (V/m) @ t=0.56
0.6032844966151676
% es.Ex (V/m) @ t=0.56
1.4923114010644558
% es.Ey (V/m) @ t=0.56
0.09396506382923514
% es.Ez (V/m) @ t=0.56
0.6032844966151685
% es.tEx (V/m) @ t=0.56
1.4923114010644545
% es.tEy (V/m) @ t=0.56
0
% es.tEz (V/m) @ t=0.56
0.6032844966151676
% V (V) @ t=0.56
0.008055018904416993
% es.normE (V/m) @ t=0.58
1.6304880621005502
% es.EX (V/m) @ t=0.58
1.5067848458929243
% es.EY (V/m) @ t=0.58
0.09487638723958541
% es.EZ (V/m) @ t=0.58
0.6091355397003819
% es.tEX (V/m) @ t=0.58
1.506784845892926
% es.tEY (V/m) @ t=0.58
0
% es.tEZ (V/m) @ t=0.58
0.6091355397003837
% es.Ex (V/m) @ t=0.58
1.5067848458929243
% es.Ey (V/m) @ t=0.58
0.09487638723958541
% es.Ez (V/m) @ t=0.58
0.6091355397003819
% es.tEx (V/m) @ t=0.58
1.506784845892926
% es.tEy (V/m) @ t=0.58
0
% es.tEz (V/m) @ t=0.58
0.6091355397003837
% V (V) @ t=0.58
0.008133142645180561
% es.normE (V/m) @ t=0.6
1.6461497335419732
% es.EX (V/m) @ t=0.6
1.521258290721403
% es.EY (V/m) @ t=0.6
0.09578771064991615
% es.EZ (V/m) @ t=0.6
0.6149865827855896
% es.tEX (V/m) @ t=0.6
1.5212582907213994
% es.tEY (V/m) @ t=0.6
0
% es.tEZ (V/m) @ t=0.6
0.6149865827855914
% es.Ex (V/m) @ t=0.6
1.521258290721403
% es.Ey (V/m) @ t=0.6
0.09578771064991615
% es.Ez (V/m) @ t=0.6
0.6149865827855896
% es.tEx (V/m) @ t=0.6
1.5212582907213994
% es.tEy (V/m) @ t=0.6
0
% es.tEz (V/m) @ t=0.6
0.6149865827855914
% V (V) @ t=0.6
0.008211266385944131
% es.normE (V/m) @ t=0.62
1.661811404983398
% es.EX (V/m) @ t=0.62
1.5357317355498745
% es.EY (V/m) @ t=0.62
0.09669903406025149
% es.EZ (V/m) @ t=0.62
0.6208376258708188
% es.tEX (V/m) @ t=0.62
1.5357317355498807
% es.tEY (V/m) @ t=0.62
0
% es.tEZ (V/m) @ t=0.62
0.6208376258708204
% es.Ex (V/m) @ t=0.62
1.5357317355498745
% es.Ey (V/m) @ t=0.62
0.09669903406025149
% es.Ez (V/m) @ t=0.62
0.6208376258708188
% es.tEx (V/m) @ t=0.62
1.5357317355498807
% es.tEy (V/m) @ t=0.62
0
% es.tEz (V/m) @ t=0.62
0.6208376258708204
% V (V) @ t=0.62
0.008289390126707699
% es.normE (V/m) @ t=0.64
1.6774730764248236
% es.EX (V/m) @ t=0.64
1.550205180378351
% es.EY (V/m) @ t=0.64
0.09761035747059554
% es.EZ (V/m) @ t=0.64
0.6266886689560307
% es.tEX (V/m) @ t=0.64
1.5502051803783505
% es.tEY (V/m) @ t=0.64
0
% es.tEZ (V/m) @ t=0.64
0.6266886689560334
% es.Ex (V/m) @ t=0.64
1.550205180378351
% es.Ey (V/m) @ t=0.64
0.09761035747059554
% es.Ez (V/m) @ t=0.64
0.6266886689560307
% es.tEx (V/m) @ t=0.64
1.5502051803783505
% es.tEy (V/m) @ t=0.64
0
% es.tEz (V/m) @ t=0.64
0.6266886689560334
% V (V) @ t=0.64
0.008367513867471267
% es.normE (V/m) @ t=0.66
1.6931347478662475
% es.EX (V/m) @ t=0.66
1.5646786252068257
% es.EY (V/m) @ t=0.66
0.09852168088093438
% es.EZ (V/m) @ t=0.66
0.6325397120412468
% es.tEX (V/m) @ t=0.66
1.5646786252068292
% es.tEY (V/m) @ t=0.66
0
% es.tEZ (V/m) @ t=0.66
0.6325397120412468
% es.Ex (V/m) @ t=0.66
1.5646786252068257
% es.Ey (V/m) @ t=0.66
0.09852168088093438
% es.Ez (V/m) @ t=0.66
0.6325397120412468
% es.tEx (V/m) @ t=0.66
1.5646786252068292
% es.tEy (V/m) @ t=0.66
0
% es.tEz (V/m) @ t=0.66
0.6325397120412468
% V (V) @ t=0.66
0.008445637608234835
% es.normE (V/m) @ t=0.68
1.7087964193076763
% es.EX (V/m) @ t=0.68
1.579152070035306
% es.EY (V/m) @ t=0.68
0.09943300429126423
% es.EZ (V/m) @ t=0.68
0.6383907551264594
% es.tEX (V/m) @ t=0.68
1.5791520700353026
% es.tEY (V/m) @ t=0.68
0
% es.tEZ (V/m) @ t=0.68
0.6383907551264612
% es.Ex (V/m) @ t=0.68
1.579152070035306
% es.Ey (V/m) @ t=0.68
0.09943300429126423
% es.Ez (V/m) @ t=0.68
0.6383907551264594
% es.tEx (V/m) @ t=0.68
1.5791520700353026
% es.tEy (V/m) @ t=0.68
0
% es.tEz (V/m) @ t=0.68
0.6383907551264612
% V (V) @ t=0.68
0.008523761348998403
% es.normE (V/m) @ t=0.7
1.7244580907491025
% es.EX (V/m) @ t=0.7
1.5936255148637795
% es.EY (V/m) @ t=0.7
0.10034432770160662
% es.EZ (V/m) @ t=0.7
0.6442417982116826
% es.tEX (V/m) @ t=0.7
1.5936255148637812
% es.tEY (V/m) @ t=0.7
0
% es.tEZ (V/m) @ t=0.7
0.6442417982116817
% es.Ex (V/m) @ t=0.7
1.5936255148637795
% es.Ey (V/m) @ t=0.7
0.10034432770160662
% es.Ez (V/m) @ t=0.7
0.6442417982116826
% es.tEx (V/m) @ t=0.7
1.5936255148637812
% es.tEy (V/m) @ t=0.7
0
% es.tEz (V/m) @ t=0.7
0.6442417982116817
% V (V) @ t=0.7
0.008601885089761972
% es.normE (V/m) @ t=0.72
1.7401197621905236
% es.EX (V/m) @ t=0.72
1.608098959692251
% es.EY (V/m) @ t=0.72
0.10125565111194734
% es.EZ (V/m) @ t=0.72
0.6500928412968934
% es.tEX (V/m) @ t=0.72
1.6080989596922546
% es.tEY (V/m) @ t=0.72
0
% es.tEZ (V/m) @ t=0.72
0.650092841296896
% es.Ex (V/m) @ t=0.72
1.608098959692251
% es.Ey (V/m) @ t=0.72
0.10125565111194734
% es.Ez (V/m) @ t=0.72
0.6500928412968934
% es.tEx (V/m) @ t=0.72
1.6080989596922546
% es.tEy (V/m) @ t=0.72
0
% es.tEz (V/m) @ t=0.72
0.650092841296896
% V (V) @ t=0.72
0.008680008830525537
% es.normE (V/m) @ t=0.74
1.7557814336319613
% es.EX (V/m) @ t=0.74
1.6225724045207386
% es.EY (V/m) @ t=0.74
0.10216697452227985
% es.EZ (V/m) @ t=0.74
0.6559438843821082
% es.tEX (V/m) @ t=0.74
1.6225724045207315
% es.tEY (V/m) @ t=0.74
0
% es.tEZ (V/m) @ t=0.74
0.6559438843821037
% es.Ex (V/m) @ t=0.74
1.6225724045207386
% es.Ey (V/m) @ t=0.74
0.10216697452227985
% es.Ez (V/m) @ t=0.74
0.6559438843821082
% es.tEx (V/m) @ t=0.74
1.6225724045207315
% es.tEy (V/m) @ t=0.74
0
% es.tEz (V/m) @ t=0.74
0.6559438843821037
% V (V) @ t=0.74
0.008758132571289105
% es.normE (V/m) @ t=0.76
1.7714431050733839
% es.EX (V/m) @ t=0.76
1.6370458493492066
% es.EY (V/m) @ t=0.76
0.1030782979326248
% es.EZ (V/m) @ t=0.76
0.6617949274673312
% es.tEX (V/m) @ t=0.76
1.6370458493492066
% es.tEY (V/m) @ t=0.76
0
% es.tEZ (V/m) @ t=0.76
0.6617949274673345
% es.Ex (V/m) @ t=0.76
1.6370458493492066
% es.Ey (V/m) @ t=0.76
0.1030782979326248
% es.Ez (V/m) @ t=0.76
0.6617949274673312
% es.tEx (V/m) @ t=0.76
1.6370458493492066
% es.tEy (V/m) @ t=0.76
0
% es.tEz (V/m) @ t=0.76
0.6617949274673345
% V (V) @ t=0.76
0.008836256312052674
% es.normE (V/m) @ t=0.78
1.787104776514814
% es.EX (V/m) @ t=0.78
1.651519294177687
% es.EY (V/m) @ t=0.78
0.10398962134295642
% es.EZ (V/m) @ t=0.78
0.6676459705525448
% es.tEX (V/m) @ t=0.78
1.6515192941776764
% es.tEY (V/m) @ t=0.78
0
% es.tEZ (V/m) @ t=0.78
0.6676459705525439
% es.Ex (V/m) @ t=0.78
1.651519294177687
% es.Ey (V/m) @ t=0.78
0.10398962134295642
% es.Ez (V/m) @ t=0.78
0.6676459705525448
% es.tEx (V/m) @ t=0.78
1.6515192941776764
% es.tEy (V/m) @ t=0.78
0
% es.tEz (V/m) @ t=0.78
0.6676459705525439
% V (V) @ t=0.78
0.00891438005281624
% es.normE (V/m) @ t=0.8
1.8027664479562424
% es.EX (V/m) @ t=0.8
1.6659927390061604
% es.EY (V/m) @ t=0.8
0.10490094475329792
% es.EZ (V/m) @ t=0.8
0.673497013637766
% es.tEX (V/m) @ t=0.8
1.6659927390061586
% es.tEY (V/m) @ t=0.8
0
% es.tEZ (V/m) @ t=0.8
0.673497013637768
% es.Ex (V/m) @ t=0.8
1.6659927390061604
% es.Ey (V/m) @ t=0.8
0.10490094475329792
% es.Ez (V/m) @ t=0.8
0.673497013637766
% es.tEx (V/m) @ t=0.8
1.6659927390061586
% es.tEy (V/m) @ t=0.8
0
% es.tEz (V/m) @ t=0.8
0.673497013637768
% V (V) @ t=0.8
0.008992503793579812
% es.normE (V/m) @ t=0.82
1.8189049408640503
% es.EX (V/m) @ t=0.82
1.6809068293424763
% es.EY (V/m) @ t=0.82
0.10584001407214594
% es.EZ (V/m) @ t=0.82
0.6795261930791436
% es.tEX (V/m) @ t=0.82
1.6809068293424687
% es.tEY (V/m) @ t=0.82
0
% es.tEZ (V/m) @ t=0.82
0.6795261930791443
% es.Ex (V/m) @ t=0.82
1.6809068293424763
% es.Ey (V/m) @ t=0.82
0.10584001407214594
% es.Ez (V/m) @ t=0.82
0.6795261930791436
% es.tEx (V/m) @ t=0.82
1.6809068293424687
% es.tEy (V/m) @ t=0.82
0
% es.tEz (V/m) @ t=0.82
0.6795261930791443
% V (V) @ t=0.82
0.009073005988579632
% es.normE (V/m) @ t=0.84
1.836410835498767
% es.EX (V/m) @ t=0.84
1.6970845780307209
% es.EY (V/m) @ t=0.84
0.10685865154359964
% es.EZ (V/m) @ t=0.84
0.686066221922712
% es.tEX (V/m) @ t=0.84
1.6970845780307142
% es.tEY (V/m) @ t=0.84
0
% es.tEZ (V/m) @ t=0.84
0.686066221922712
% es.Ex (V/m) @ t=0.84
1.6970845780307209
% es.Ey (V/m) @ t=0.84
0.10685865154359964
% es.Ez (V/m) @ t=0.84
0.686066221922712
% es.tEx (V/m) @ t=0.84
1.6970845780307142
% es.tEy (V/m) @ t=0.84
0
% es.tEz (V/m) @ t=0.84
0.686066221922712
% V (V) @ t=0.84
0.009160328980584862
% es.normE (V/m) @ t=0.86
1.8539167301334767
% es.EX (V/m) @ t=0.86
1.713262326718957
% es.EY (V/m) @ t=0.86
0.10787728901506333
% es.EZ (V/m) @ t=0.86
0.6926062507662774
% es.tEX (V/m) @ t=0.86
1.7132623267189544
% es.tEY (V/m) @ t=0.86
0
% es.tEZ (V/m) @ t=0.86
0.6926062507662802
% es.Ex (V/m) @ t=0.86
1.713262326718957
% es.Ey (V/m) @ t=0.86
0.10787728901506333
% es.Ez (V/m) @ t=0.86
0.6926062507662774
% es.tEx (V/m) @ t=0.86
1.7132623267189544
% es.tEy (V/m) @ t=0.86
0
% es.tEz (V/m) @ t=0.86
0.6926062507662802
% V (V) @ t=0.86
0.009247651972590096
% es.normE (V/m) @ t=0.88
1.8714226247682033
% es.EX (V/m) @ t=0.88
1.7294400754072123
% es.EY (V/m) @ t=0.88
0.10889592648651236
% es.EZ (V/m) @ t=0.88
0.6991462796098467
% es.tEX (V/m) @ t=0.88
1.7294400754072097
% es.tEY (V/m) @ t=0.88
0
% es.tEZ (V/m) @ t=0.88
0.6991462796098458
% es.Ex (V/m) @ t=0.88
1.7294400754072123
% es.Ey (V/m) @ t=0.88
0.10889592648651236
% es.Ez (V/m) @ t=0.88
0.6991462796098467
% es.tEx (V/m) @ t=0.88
1.7294400754072097
% es.tEy (V/m) @ t=0.88
0
% es.tEz (V/m) @ t=0.88
0.6991462796098458
% V (V) @ t=0.88
0.009334974964595328
% es.normE (V/m) @ t=0.9
1.8889285194029342
% es.EX (V/m) @ t=0.9
1.7456178240954667
% es.EY (V/m) @ t=0.9
0.10991456395797605
% es.EZ (V/m) @ t=0.9
0.7056863084534253
% es.tEX (V/m) @ t=0.9
1.7456178240954596
% es.tEY (V/m) @ t=0.9
0
% es.tEZ (V/m) @ t=0.9
0.7056863084534264
% es.Ex (V/m) @ t=0.9
1.7456178240954667
% es.Ey (V/m) @ t=0.9
0.10991456395797605
% es.Ez (V/m) @ t=0.9
0.7056863084534253
% es.tEx (V/m) @ t=0.9
1.7456178240954596
% es.tEy (V/m) @ t=0.9
0
% es.tEz (V/m) @ t=0.9
0.7056863084534264
% V (V) @ t=0.9
0.009422297956600564
% es.normE (V/m) @ t=0.92
1.9064344140376424
% es.EX (V/m) @ t=0.92
1.7617955727836998
% es.EY (V/m) @ t=0.92
0.1109332014294343
% es.EZ (V/m) @ t=0.92
0.712226337296997
% es.tEX (V/m) @ t=0.92
1.7617955727836918
% es.tEY (V/m) @ t=0.92
0
% es.tEZ (V/m) @ t=0.92
0.7122263372969924
% es.Ex (V/m) @ t=0.92
1.7617955727836998
% es.Ey (V/m) @ t=0.92
0.1109332014294343
% es.Ez (V/m) @ t=0.92
0.712226337296997
% es.tEx (V/m) @ t=0.92
1.7617955727836918
% es.tEy (V/m) @ t=0.92
0
% es.tEz (V/m) @ t=0.92
0.7122263372969924
% V (V) @ t=0.92
0.009509620948605796
% es.normE (V/m) @ t=0.94
1.9239403086723623
% es.EX (V/m) @ t=0.94
1.777973321471948
% es.EY (V/m) @ t=0.94
0.11195183890089411
% es.EZ (V/m) @ t=0.94
0.718766366140561
% es.tEX (V/m) @ t=0.94
1.777973321471947
% es.tEY (V/m) @ t=0.94
0
% es.tEZ (V/m) @ t=0.94
0.7187663661405654
% es.Ex (V/m) @ t=0.94
1.777973321471948
% es.Ey (V/m) @ t=0.94
0.11195183890089411
% es.Ez (V/m) @ t=0.94
0.718766366140561
% es.tEx (V/m) @ t=0.94
1.777973321471947
% es.tEy (V/m) @ t=0.94
0
% es.tEz (V/m) @ t=0.94
0.7187663661405654
% V (V) @ t=0.94
0.009596943940611032
% es.normE (V/m) @ t=0.96
1.9414462033070783
% es.EX (V/m) @ t=0.96
1.7941510701601873
% es.EY (V/m) @ t=0.96
0.11297047637236124
% es.EZ (V/m) @ t=0.96
0.7253063949841334
% es.tEX (V/m) @ t=0.96
1.7941510701601935
% es.tEY (V/m) @ t=0.96
0
% es.tEZ (V/m) @ t=0.96
0.7253063949841336
% es.Ex (V/m) @ t=0.96
1.7941510701601873
% es.Ey (V/m) @ t=0.96
0.11297047637236124
% es.Ez (V/m) @ t=0.96
0.7253063949841334
% es.tEx (V/m) @ t=0.96
1.7941510701601935
% es.tEy (V/m) @ t=0.96
0
% es.tEz (V/m) @ t=0.96
0.7253063949841336
% V (V) @ t=0.96
0.009684266932616262
% es.normE (V/m) @ t=0.98
1.9589520979418027
% es.EX (V/m) @ t=0.98
1.8103288188484408
% es.EY (V/m) @ t=0.98
0.1139891138438105
% es.EZ (V/m) @ t=0.98
0.731846423827698
% es.tEX (V/m) @ t=0.98
1.810328818848438
% es.tEY (V/m) @ t=0.98
0
% es.tEZ (V/m) @ t=0.98
0.731846423827696
% es.Ex (V/m) @ t=0.98
1.8103288188484408
% es.Ey (V/m) @ t=0.98
0.1139891138438105
% es.Ez (V/m) @ t=0.98
0.731846423827698
% es.tEx (V/m) @ t=0.98
1.810328818848438
% es.tEy (V/m) @ t=0.98
0
% es.tEz (V/m) @ t=0.98
0.731846423827696
% V (V) @ t=0.98
0.009771589924621496
% es.normE (V/m) @ t=1
1.9764579925765235
% es.EX (V/m) @ t=1
1.8265065675366854
% es.EY (V/m) @ t=1
0.11500775131527574
% es.EZ (V/m) @ t=1
0.7383864526712707
% es.tEX (V/m) @ t=1
1.8265065675366898
% es.tEY (V/m) @ t=1
0
% es.tEZ (V/m) @ t=1
0.7383864526712727
% es.Ex (V/m) @ t=1
1.8265065675366854
% es.Ey (V/m) @ t=1
0.11500775131527574
% es.Ez (V/m) @ t=1
0.7383864526712707
% es.tEx (V/m) @ t=1
1.8265065675366898
% es.tEy (V/m) @ t=1
0
% es.tEz (V/m) @ t=1
0.7383864526712727
% V (V) @ t=1
0.00985891291662673
% es.normE (V/m) @ t=1.02
1.9939638872112493
% es.EX (V/m) @ t=1.02
1.842684316224938
% es.EY (V/m) @ t=1.02
0.11602638878672522
% es.EZ (V/m) @ t=1.02
0.7449264815148389
% es.tEX (V/m) @ t=1.02
1.8426843162249398
% es.tEY (V/m) @ t=1.02
0
% es.tEZ (V/m) @ t=1.02
0.7449264815148458
% es.Ex (V/m) @ t=1.02
1.842684316224938
% es.Ey (V/m) @ t=1.02
0.11602638878672522
% es.Ez (V/m) @ t=1.02
0.7449264815148389
% es.tEx (V/m) @ t=1.02
1.8426843162249398
% es.tEy (V/m) @ t=1.02
0
% es.tEz (V/m) @ t=1.02
0.7449264815148458
% V (V) @ t=1.02
0.009946235908631963
% es.normE (V/m) @ t=1.04
2.0114697818459613
% es.EX (V/m) @ t=1.04
1.8588620649131729
% es.EY (V/m) @ t=1.04
0.11704502625818947
% es.EZ (V/m) @ t=1.04
0.7514665103584095
% es.tEX (V/m) @ t=1.04
1.8588620649131826
% es.tEY (V/m) @ t=1.04
0
% es.tEZ (V/m) @ t=1.04
0.7514665103584068
% es.Ex (V/m) @ t=1.04
1.8588620649131729
% es.Ey (V/m) @ t=1.04
0.11704502625818947
% es.Ez (V/m) @ t=1.04
0.7514665103584095