% Model:              1 neuron.mph
% Version:            COMSOL 6.0.0.405
% Date:               Mar 16 2023, 16:59
% Dimension:          0
% Nodes:              14017
% Expressions:        14017
% Description:        Electric field norm, Electric field, X component, Electric field, Y component, Electric field, Z component, Tangential electric field, X component, Tangential electric field, Y component, Tangential electric field, Z component, Electric field, x component, Electric field, y component, Electric field, z component, Tangential electric field, x component, Tangential electric field, y component, Tangential electric field, z component, Electric potential
% Length unit:        mm
% x
1
% y
12.2
% z
1.6599999999999997
% es.normE (V/m) @ t=0
1.61882762057712
% es.EX (V/m) @ t=0
1.449190041959132
% es.EY (V/m) @ t=0
0.0557585299370488
% es.EZ (V/m) @ t=0
-0.7192649291685818
% es.tEX (V/m) @ t=0
1.449190041959131
% es.tEY (V/m) @ t=0
0
% es.tEZ (V/m) @ t=0
-0.719264929168574
% es.Ex (V/m) @ t=0
1.449190041959132
% es.Ey (V/m) @ t=0
0.0557585299370488
% es.Ez (V/m) @ t=0
-0.7192649291685818
% es.tEx (V/m) @ t=0
1.449190041959131
% es.tEy (V/m) @ t=0
0
% es.tEz (V/m) @ t=0
-0.719264929168574
% V (V) @ t=0
0.007344601707918585
% es.normE (V/m) @ t=0.02
1.3982119202642793
% es.EX (V/m) @ t=0.02
1.2516927471572132
% es.EY (V/m) @ t=0.02
0.048159693274019644
% es.EZ (V/m) @ t=0.02
-0.6212426725445472
% es.tEX (V/m) @ t=0.02
1.2516927471572097
% es.tEY (V/m) @ t=0.02
0
% es.tEZ (V/m) @ t=0.02
-0.6212426725445326
% es.Ex (V/m) @ t=0.02
1.2516927471572132
% es.Ey (V/m) @ t=0.02
0.048159693274019644
% es.Ez (V/m) @ t=0.02
-0.6212426725445472
% es.tEx (V/m) @ t=0.02
1.2516927471572097
% es.tEy (V/m) @ t=0.02
0
% es.tEz (V/m) @ t=0.02
-0.6212426725445326
% V (V) @ t=0.02
0.006343670885640298
% es.normE (V/m) @ t=0.04
1.4110720355408102
% es.EX (V/m) @ t=0.04
1.2632052477990632
% es.EY (V/m) @ t=0.04
0.04860264936247502
% es.EZ (V/m) @ t=0.04
-0.6269565750247255
% es.tEX (V/m) @ t=0.04
1.2632052477990632
% es.tEY (V/m) @ t=0.04
0
% es.tEZ (V/m) @ t=0.04
-0.6269565750247175
% es.Ex (V/m) @ t=0.04
1.2632052477990632
% es.Ey (V/m) @ t=0.04
0.04860264936247502
% es.Ez (V/m) @ t=0.04
-0.6269565750247255
% es.tEx (V/m) @ t=0.04
1.2632052477990632
% es.tEy (V/m) @ t=0.04
0
% es.tEz (V/m) @ t=0.04
-0.6269565750247175
% V (V) @ t=0.04
0.0064020169468785885
% es.normE (V/m) @ t=0.06
1.4240488195255274
% es.EX (V/m) @ t=0.06
1.2748221953412398
% es.EY (V/m) @ t=0.06
0.04904963508714985
% es.EZ (V/m) @ t=0.06
-0.632722306013711
% es.tEX (V/m) @ t=0.06
1.2748221953412386
% es.tEY (V/m) @ t=0.06
0
% es.tEZ (V/m) @ t=0.06
-0.6327223060137044
% es.Ex (V/m) @ t=0.06
1.2748221953412398
% es.Ey (V/m) @ t=0.06
0.04904963508714985
% es.Ez (V/m) @ t=0.06
-0.632722306013711
% es.tEx (V/m) @ t=0.06
1.2748221953412386
% es.tEy (V/m) @ t=0.06
0
% es.tEz (V/m) @ t=0.06
-0.6327223060137044
% V (V) @ t=0.06
0.006460892058773231
% es.normE (V/m) @ t=0.08
1.4372219344624821
% es.EX (V/m) @ t=0.08
1.2866148948305525
% es.EY (V/m) @ t=0.08
0.049503368036672574
% es.EZ (V/m) @ t=0.08
-0.638575281321899
% es.tEX (V/m) @ t=0.08
1.2866148948305458
% es.tEY (V/m) @ t=0.08
0
% es.tEZ (V/m) @ t=0.08
-0.6385752813218986
% es.Ex (V/m) @ t=0.08
1.2866148948305525
% es.Ey (V/m) @ t=0.08
0.049503368036672574
% es.Ez (V/m) @ t=0.08
-0.638575281321899
% es.tEx (V/m) @ t=0.08
1.2866148948305458
% es.tEy (V/m) @ t=0.08
0
% es.tEz (V/m) @ t=0.08
-0.6385752813218986
% V (V) @ t=0.08
0.006520658296219757
% es.normE (V/m) @ t=0.1
1.450535109179968
% es.EX (V/m) @ t=0.1
1.2985329733233435
% es.EY (V/m) @ t=0.1
0.04996191436287392
% es.EZ (V/m) @ t=0.1
-0.6444904955183632
% es.tEX (V/m) @ t=0.1
1.2985329733233413
% es.tEY (V/m) @ t=0.1
0
% es.tEZ (V/m) @ t=0.1
-0.6444904955183688
% es.Ex (V/m) @ t=0.1
1.2985329733233435
% es.Ey (V/m) @ t=0.1
0.04996191436287392
% es.Ez (V/m) @ t=0.1
-0.6444904955183632
% es.tEx (V/m) @ t=0.1
1.2985329733233413
% es.tEy (V/m) @ t=0.1
0
% es.tEz (V/m) @ t=0.1
-0.6444904955183688
% V (V) @ t=0.1
0.006581060250285578
% es.normE (V/m) @ t=0.12
1.4638482838974523
% es.EX (V/m) @ t=0.12
1.310451051816127
% es.EY (V/m) @ t=0.12
0.05042046068907574
% es.EZ (V/m) @ t=0.12
-0.6504057097148365
% es.tEX (V/m) @ t=0.12
1.3104510518161256
% es.tEY (V/m) @ t=0.12
0
% es.tEZ (V/m) @ t=0.12
-0.6504057097148319
% es.Ex (V/m) @ t=0.12
1.310451051816127
% es.Ey (V/m) @ t=0.12
0.05042046068907574
% es.Ez (V/m) @ t=0.12
-0.6504057097148365
% es.tEx (V/m) @ t=0.12
1.3104510518161256
% es.tEy (V/m) @ t=0.12
0
% es.tEz (V/m) @ t=0.12
-0.6504057097148319
% V (V) @ t=0.12
0.006641462204351398
% es.normE (V/m) @ t=0.14
1.4772876355439182
% es.EX (V/m) @ t=0.14
1.3224820852250452
% es.EY (V/m) @ t=0.14
0.05088335336840977
% es.EZ (V/m) @ t=0.14
-0.6563769856034014
% es.tEX (V/m) @ t=0.14
1.322482085225042
% es.tEY (V/m) @ t=0.14
0
% es.tEZ (V/m) @ t=0.14
-0.6563769856033943
% es.Ex (V/m) @ t=0.14
1.3224820852250452
% es.Ey (V/m) @ t=0.14
0.05088335336840977
% es.Ez (V/m) @ t=0.14
-0.6563769856034014
% es.tEx (V/m) @ t=0.14
1.322482085225042
% es.tEy (V/m) @ t=0.14
0
% es.tEz (V/m) @ t=0.14
-0.6563769856033943
% V (V) @ t=0.14
0.006702436613331332
% es.normE (V/m) @ t=0.16
1.491312633363124
% es.EX (V/m) @ t=0.16
1.3350373952577106
% es.EY (V/m) @ t=0.16
0.0513664195065105
% es.EZ (V/m) @ t=0.16
-0.6626084700394902
% es.tEX (V/m) @ t=0.16
1.3350373952577037
% es.tEY (V/m) @ t=0.16
0
% es.tEZ (V/m) @ t=0.16
-0.6626084700394834
% es.Ex (V/m) @ t=0.16
1.3350373952577106
% es.Ey (V/m) @ t=0.16
0.0513664195065105
% es.Ez (V/m) @ t=0.16
-0.6626084700394902
% es.tEx (V/m) @ t=0.16
1.3350373952577037
% es.tEy (V/m) @ t=0.16
0
% es.tEz (V/m) @ t=0.16
-0.6626084700394834
% V (V) @ t=0.16
0.0067660680534516356
% es.normE (V/m) @ t=0.18
1.505337631182324
% es.EX (V/m) @ t=0.18
1.3475927052903742
% es.EY (V/m) @ t=0.18
0.051849485644619636
% es.EZ (V/m) @ t=0.18
-0.66883995447557
% es.tEX (V/m) @ t=0.18
1.3475927052903653
% es.tEY (V/m) @ t=0.18
0
% es.tEZ (V/m) @ t=0.18
-0.6688399544755654
% es.Ex (V/m) @ t=0.18
1.3475927052903742
% es.Ey (V/m) @ t=0.18
0.051849485644619636
% es.Ez (V/m) @ t=0.18
-0.66883995447557
% es.tEx (V/m) @ t=0.18
1.3475927052903653
% es.tEy (V/m) @ t=0.18
0
% es.tEz (V/m) @ t=0.18
-0.6688399544755654
% V (V) @ t=0.18
0.006829699493571939
% es.normE (V/m) @ t=0.2
1.5193626290015256
% es.EX (V/m) @ t=0.2
1.360148015323038
% es.EY (V/m) @ t=0.2
0.05233255178272567
% es.EZ (V/m) @ t=0.2
-0.6750714389116517
% es.tEX (V/m) @ t=0.2
1.3601480153230314
% es.tEY (V/m) @ t=0.2
0
% es.tEZ (V/m) @ t=0.2
-0.6750714389116474
% es.Ex (V/m) @ t=0.2
1.360148015323038
% es.Ey (V/m) @ t=0.2
0.05233255178272567
% es.Ez (V/m) @ t=0.2
-0.6750714389116517
% es.tEx (V/m) @ t=0.2
1.3601480153230314
% es.tEy (V/m) @ t=0.2
0
% es.tEz (V/m) @ t=0.2
-0.6750714389116474
% V (V) @ t=0.2
0.006893330933692243
% es.normE (V/m) @ t=0.22
1.5333876268207267
% es.EX (V/m) @ t=0.22
1.3727033253556997
% es.EY (V/m) @ t=0.22
0.052815617920817515
% es.EZ (V/m) @ t=0.22
-0.6813029233477368
% es.tEX (V/m) @ t=0.22
1.372703325355693
% es.tEY (V/m) @ t=0.22
0
% es.tEZ (V/m) @ t=0.22
-0.6813029233477295
% es.Ex (V/m) @ t=0.22
1.3727033253556997
% es.Ey (V/m) @ t=0.22
0.052815617920817515
% es.Ez (V/m) @ t=0.22
-0.6813029233477368
% es.tEx (V/m) @ t=0.22
1.372703325355693
% es.tEy (V/m) @ t=0.22
0
% es.tEz (V/m) @ t=0.22
-0.6813029233477295
% V (V) @ t=0.22
0.006956962373812547
% es.normE (V/m) @ t=0.24
1.547412624639926
% es.EX (V/m) @ t=0.24
1.3852586353883618
% es.EY (V/m) @ t=0.24
0.053298684058923546
% es.EZ (V/m) @ t=0.24
-0.6875344077838167
% es.tEX (V/m) @ t=0.24
1.3852586353883587
% es.tEY (V/m) @ t=0.24
0
% es.tEZ (V/m) @ t=0.24
-0.6875344077838186
% es.Ex (V/m) @ t=0.24
1.3852586353883618
% es.Ey (V/m) @ t=0.24
0.053298684058923546
% es.Ez (V/m) @ t=0.24
-0.6875344077838167
% es.tEx (V/m) @ t=0.24
1.3852586353883587
% es.tEy (V/m) @ t=0.24
0
% es.tEz (V/m) @ t=0.24
-0.6875344077838186
% V (V) @ t=0.24
0.007020593813932851
% es.normE (V/m) @ t=0.26
1.5614376224591282
% es.EX (V/m) @ t=0.26
1.3978139454210237
% es.EY (V/m) @ t=0.26
0.05378175019702733
% es.EZ (V/m) @ t=0.26
-0.6937658922199037
% es.tEX (V/m) @ t=0.26
1.3978139454210279
% es.tEY (V/m) @ t=0.26
0
% es.tEZ (V/m) @ t=0.26
-0.693765892219897
% es.Ex (V/m) @ t=0.26
1.3978139454210237
% es.Ey (V/m) @ t=0.26
0.05378175019702733
% es.Ez (V/m) @ t=0.26
-0.6937658922199037
% es.tEx (V/m) @ t=0.26
1.3978139454210279
% es.tEy (V/m) @ t=0.26
0
% es.tEz (V/m) @ t=0.26
-0.693765892219897
% V (V) @ t=0.26
0.007084225254053154
% es.normE (V/m) @ t=0.28
1.5760469344839287
% es.EX (V/m) @ t=0.28
1.4108920606335458
% es.EY (V/m) @ t=0.28
0.05428418436969279
% es.EZ (V/m) @ t=0.28
-0.7002576146638222
% es.tEX (V/m) @ t=0.28
1.4108920606335378
% es.tEY (V/m) @ t=0.28
0
% es.tEZ (V/m) @ t=0.28
-0.7002576146638191
% es.Ex (V/m) @ t=0.28
1.4108920606335458
% es.Ey (V/m) @ t=0.28
0.05428418436969279
% es.Ez (V/m) @ t=0.28
-0.7002576146638222
% es.tEx (V/m) @ t=0.28
1.4108920606335378
% es.tEy (V/m) @ t=0.28
0
% es.tEz (V/m) @ t=0.28
-0.7002576146638191
% V (V) @ t=0.28
0.0071505267510097205
% es.normE (V/m) @ t=0.3
1.5916750010411487
% es.EX (V/m) @ t=0.3
1.4248816891023992
% es.EY (V/m) @ t=0.3
0.054820386800474574
% es.EZ (V/m) @ t=0.3
-0.7072030632816776
% es.tEX (V/m) @ t=0.3
1.4248816891023992
% es.tEY (V/m) @ t=0.3
0
% es.tEZ (V/m) @ t=0.3
-0.7072030632816713
% es.Ex (V/m) @ t=0.3
1.4248816891023992
% es.Ey (V/m) @ t=0.3
0.054820386800474574
% es.Ez (V/m) @ t=0.3
-0.7072030632816776
% es.tEx (V/m) @ t=0.3
1.4248816891023992
% es.tEy (V/m) @ t=0.3
0
% es.tEz (V/m) @ t=0.3
-0.7072030632816713
% V (V) @ t=0.3
0.007221483504446534
% es.normE (V/m) @ t=0.32
1.607303067604597
% es.EX (V/m) @ t=0.32
1.4388713175712546
% es.EY (V/m) @ t=0.32
0.05535658923124881
% es.EZ (V/m) @ t=0.32
-0.7141485118995259
% es.tEX (V/m) @ t=0.32
1.4388713175712544
% es.tEY (V/m) @ t=0.32
0
% es.tEZ (V/m) @ t=0.32
-0.7141485118995234
% es.Ex (V/m) @ t=0.32
1.4388713175712546
% es.Ey (V/m) @ t=0.32
0.05535658923124881
% es.Ez (V/m) @ t=0.32
-0.7141485118995259
% es.tEx (V/m) @ t=0.32
1.4388713175712544
% es.tEy (V/m) @ t=0.32
0
% es.tEz (V/m) @ t=0.32
-0.7141485118995234
% V (V) @ t=0.32
0.00729244025788335
% es.normE (V/m) @ t=0.34
1.6229311341740964
% es.EX (V/m) @ t=0.34
1.452860946040115
% es.EY (V/m) @ t=0.34
0.05589279166203373
% es.EZ (V/m) @ t=0.34
-0.7210939605173652
% es.tEX (V/m) @ t=0.34
1.4528609460401123
% es.tEY (V/m) @ t=0.34
0
% es.tEZ (V/m) @ t=0.34
-0.7210939605173614
% es.Ex (V/m) @ t=0.34
1.452860946040115
% es.Ey (V/m) @ t=0.34
0.05589279166203373
% es.Ez (V/m) @ t=0.34
-0.7210939605173652
% es.tEx (V/m) @ t=0.34
1.4528609460401123
% es.tEy (V/m) @ t=0.34
0
% es.tEz (V/m) @ t=0.34
-0.7210939605173614
% V (V) @ t=0.34
0.007363397011320164
% es.normE (V/m) @ t=0.36
1.6385592007494592
% es.EX (V/m) @ t=0.36
1.4668505745089613
% es.EY (V/m) @ t=0.36
0.05642899409280486
% es.EZ (V/m) @ t=0.36
-0.7280394091352028
% es.tEX (V/m) @ t=0.36
1.466850574508964
% es.tEY (V/m) @ t=0.36
0
% es.tEZ (V/m) @ t=0.36
-0.7280394091351994
% es.Ex (V/m) @ t=0.36
1.4668505745089613
% es.Ey (V/m) @ t=0.36
0.05642899409280486
% es.Ez (V/m) @ t=0.36
-0.7280394091352028
% es.tEx (V/m) @ t=0.36
1.466850574508964
% es.tEy (V/m) @ t=0.36
0
% es.tEz (V/m) @ t=0.36
-0.7280394091351994
% V (V) @ t=0.36
0.007434353764756979
% es.normE (V/m) @ t=0.38
1.6541872673305553
% es.EX (V/m) @ t=0.38
1.4808402029778254
% es.EY (V/m) @ t=0.38
0.05696519652358267
% es.EZ (V/m) @ t=0.38
-0.7349848577530564
% es.tEX (V/m) @ t=0.38
1.4808402029778183
% es.tEY (V/m) @ t=0.38
0
% es.tEZ (V/m) @ t=0.38
-0.734984857753048
% es.Ex (V/m) @ t=0.38
1.4808402029778254
% es.Ey (V/m) @ t=0.38
0.05696519652358267
% es.Ez (V/m) @ t=0.38
-0.7349848577530564
% es.tEx (V/m) @ t=0.38
1.4808402029778183
% es.tEy (V/m) @ t=0.38
0
% es.tEz (V/m) @ t=0.38
-0.734984857753048
% V (V) @ t=0.38
0.007505310518193795
% es.normE (V/m) @ t=0.4
1.669815333917177
% es.EX (V/m) @ t=0.4
1.4948298314466717
% es.EY (V/m) @ t=0.4
0.057501398954348915
% es.EZ (V/m) @ t=0.4
-0.7419303063708905
% es.tEX (V/m) @ t=0.4
1.49482983144667
% es.tEY (V/m) @ t=0.4
0
% es.tEZ (V/m) @ t=0.4
-0.7419303063708895
% es.Ex (V/m) @ t=0.4
1.4948298314466717
% es.Ey (V/m) @ t=0.4
0.057501398954348915
% es.Ez (V/m) @ t=0.4
-0.7419303063708905
% es.tEx (V/m) @ t=0.4
1.49482983144667
% es.tEy (V/m) @ t=0.4
0
% es.tEz (V/m) @ t=0.4
-0.7419303063708895
% V (V) @ t=0.4
0.007576267271630608
% es.normE (V/m) @ t=0.42
1.6854434005092105
% es.EX (V/m) @ t=0.42
1.5088194599155307
% es.EY (V/m) @ t=0.42
0.0580376013851214
% es.EZ (V/m) @ t=0.42
-0.7488757549887353
% es.tEX (V/m) @ t=0.42
1.5088194599155287
% es.tEY (V/m) @ t=0.42
0
% es.tEZ (V/m) @ t=0.42
-0.748875754988731
% es.Ex (V/m) @ t=0.42
1.5088194599155307
% es.Ey (V/m) @ t=0.42
0.0580376013851214
% es.Ez (V/m) @ t=0.42
-0.7488757549887353
% es.tEx (V/m) @ t=0.42
1.5088194599155287
% es.tEy (V/m) @ t=0.42
0
% es.tEz (V/m) @ t=0.42
-0.748875754988731
% V (V) @ t=0.42
0.007647224025067424
% es.normE (V/m) @ t=0.44
1.701071467106483
% es.EX (V/m) @ t=0.44
1.522809088384382
% es.EY (V/m) @ t=0.44
0.058573803815899605
% es.EZ (V/m) @ t=0.44
-0.7558212036065763
% es.tEX (V/m) @ t=0.44
1.5228090883843795
% es.tEY (V/m) @ t=0.44
0
% es.tEZ (V/m) @ t=0.44
-0.755821203606569
% es.Ex (V/m) @ t=0.44
1.522809088384382
% es.Ey (V/m) @ t=0.44
0.058573803815899605
% es.Ez (V/m) @ t=0.44
-0.7558212036065763
% es.tEx (V/m) @ t=0.44
1.5228090883843795
% es.tEy (V/m) @ t=0.44
0
% es.tEz (V/m) @ t=0.44
-0.755821203606569
% V (V) @ t=0.44
0.007718180778504238
% es.normE (V/m) @ t=0.46
1.716699533708871
% es.EX (V/m) @ t=0.46
1.5367987168532427
% es.EY (V/m) @ t=0.46
0.059110006246684554
% es.EZ (V/m) @ t=0.46
-0.7627666522244247
% es.tEX (V/m) @ t=0.46
1.5367987168532418
% es.tEY (V/m) @ t=0.46
0
% es.tEZ (V/m) @ t=0.46
-0.7627666522244212
% es.Ex (V/m) @ t=0.46
1.5367987168532427
% es.Ey (V/m) @ t=0.46
0.059110006246684554
% es.Ez (V/m) @ t=0.46
-0.7627666522244247
% es.tEx (V/m) @ t=0.46
1.5367987168532418
% es.tEy (V/m) @ t=0.46
0
% es.tEz (V/m) @ t=0.46
-0.7627666522244212
% V (V) @ t=0.46
0.0077891375319410535
% es.normE (V/m) @ t=0.48
1.7323276003162174
% es.EX (V/m) @ t=0.48
1.5507883453220959
% es.EY (V/m) @ t=0.48
0.05964620867745521
% es.EZ (V/m) @ t=0.48
-0.7697121008422729
% es.tEX (V/m) @ t=0.48
1.550788345322096
% es.tEY (V/m) @ t=0.48
0
% es.tEZ (V/m) @ t=0.48
-0.7697121008422663
% es.Ex (V/m) @ t=0.48
1.5507883453220959
% es.Ey (V/m) @ t=0.48
0.05964620867745521
% es.Ez (V/m) @ t=0.48
-0.7697121008422729
% es.tEx (V/m) @ t=0.48
1.550788345322096
% es.tEy (V/m) @ t=0.48
0
% es.tEz (V/m) @ t=0.48
-0.7697121008422663
% V (V) @ t=0.48
0.007860094285377869
% es.normE (V/m) @ t=0.5
1.747955666928394
% es.EX (V/m) @ t=0.5
1.5647779737909477
% es.EY (V/m) @ t=0.5
0.06018241110824457
% es.EZ (V/m) @ t=0.5
-0.7766575494601177
% es.tEX (V/m) @ t=0.5
1.5647779737909477
% es.tEY (V/m) @ t=0.5
0
% es.tEZ (V/m) @ t=0.5
-0.7766575494601149
% es.Ex (V/m) @ t=0.5
1.5647779737909477
% es.Ey (V/m) @ t=0.5
0.06018241110824457
% es.Ez (V/m) @ t=0.5
-0.7766575494601177
% es.tEx (V/m) @ t=0.5
1.5647779737909477
% es.tEy (V/m) @ t=0.5
0
% es.tEz (V/m) @ t=0.5
-0.7766575494601149
% V (V) @ t=0.5
0.007931051038814682
% es.normE (V/m) @ t=0.52
1.763583733545273
% es.EX (V/m) @ t=0.52
1.578767602259805
% es.EY (V/m) @ t=0.52
0.06071861353901173
% es.EZ (V/m) @ t=0.52
-0.78360299807795
% es.tEX (V/m) @ t=0.52
1.578767602259803
% es.tEY (V/m) @ t=0.52
0
% es.tEZ (V/m) @ t=0.52
-0.7836029980779422
% es.Ex (V/m) @ t=0.52
1.578767602259805
% es.Ey (V/m) @ t=0.52
0.06071861353901173
% es.Ez (V/m) @ t=0.52
-0.78360299807795
% es.tEx (V/m) @ t=0.52
1.578767602259803
% es.tEy (V/m) @ t=0.52
0
% es.tEz (V/m) @ t=0.52
-0.7836029980779422
% V (V) @ t=0.52
0.008002007792251497
% es.normE (V/m) @ t=0.54
1.7792118001667312
% es.EX (V/m) @ t=0.54
1.5927572307286528
% es.EY (V/m) @ t=0.54
0.06125481596978241
% es.EZ (V/m) @ t=0.54
-0.7905484466957982
% es.tEX (V/m) @ t=0.54
1.5927572307286537
% es.tEY (V/m) @ t=0.54
0
% es.tEZ (V/m) @ t=0.54
-0.7905484466957944
% es.Ex (V/m) @ t=0.54
1.5927572307286528
% es.Ey (V/m) @ t=0.54
0.06125481596978241
% es.Ez (V/m) @ t=0.54
-0.7905484466957982
% es.tEx (V/m) @ t=0.54
1.5927572307286537
% es.tEy (V/m) @ t=0.54
0
% es.tEz (V/m) @ t=0.54
-0.7905484466957944
% V (V) @ t=0.54
0.008072964545688314
% es.normE (V/m) @ t=0.56
1.7961795545739194
% es.EX (V/m) @ t=0.56
1.6079473330602947
% es.EY (V/m) @ t=0.56
0.061840352801977555
% es.EZ (V/m) @ t=0.56
-0.7980865249663781
% es.tEX (V/m) @ t=0.56
1.6079473330602845
% es.tEY (V/m) @ t=0.56
0
% es.tEZ (V/m) @ t=0.56
-0.7980865249663758
% es.Ex (V/m) @ t=0.56
1.6079473330602947
% es.Ey (V/m) @ t=0.56
0.061840352801977555
% es.Ez (V/m) @ t=0.56
-0.7980865249663781
% es.tEx (V/m) @ t=0.56
1.6079473330602845
% es.tEy (V/m) @ t=0.56
0
% es.tEz (V/m) @ t=0.56
-0.7980865249663758
% V (V) @ t=0.56
0.008149919341365223
% es.normE (V/m) @ t=0.58
1.8136205231584324
% es.EX (V/m) @ t=0.58
1.623561475418441
% es.EY (V/m) @ t=0.58
0.062443315886840184
% es.EZ (V/m) @ t=0.58
-0.805833936152431
% es.tEX (V/m) @ t=0.58
1.6235614754184384
% es.tEY (V/m) @ t=0.58
0
% es.tEZ (V/m) @ t=0.58
-0.8058339361524247
% es.Ex (V/m) @ t=0.58
1.623561475418441
% es.Ey (V/m) @ t=0.58
0.062443315886840184
% es.Ez (V/m) @ t=0.58
-0.805833936152431
% es.tEx (V/m) @ t=0.58
1.6235614754184384
% es.tEy (V/m) @ t=0.58
0
% es.tEz (V/m) @ t=0.58
-0.8058339361524247
% V (V) @ t=0.58
0.008228992808734629
% es.normE (V/m) @ t=0.6
1.8310614917508248
% es.EX (V/m) @ t=0.6
1.639175617776609
% es.EY (V/m) @ t=0.6
0.06304627897172013
% es.EZ (V/m) @ t=0.6
-0.8135813473384981
% es.tEX (V/m) @ t=0.6
1.6391756177766066
% es.tEY (V/m) @ t=0.6
0
% es.tEZ (V/m) @ t=0.6
-0.813581347338495
% es.Ex (V/m) @ t=0.6
1.639175617776609
% es.Ey (V/m) @ t=0.6
0.06304627897172013
% es.Ez (V/m) @ t=0.6
-0.8135813473384981
% es.tEx (V/m) @ t=0.6
1.6391756177766066
% es.tEy (V/m) @ t=0.6
0
% es.tEz (V/m) @ t=0.6
-0.813581347338495
% V (V) @ t=0.6
0.008308066276104035
% es.normE (V/m) @ t=0.62
1.8485024603508335
% es.EX (V/m) @ t=0.62
1.6547897601347552
% es.EY (V/m) @ t=0.62
0.06364924205659303
% es.EZ (V/m) @ t=0.62
-0.8213287585245777
% es.tEX (V/m) @ t=0.62
1.6547897601347525
% es.tEY (V/m) @ t=0.62
0
% es.tEZ (V/m) @ t=0.62
-0.8213287585245617
% es.Ex (V/m) @ t=0.62
1.6547897601347552
% es.Ey (V/m) @ t=0.62
0.06364924205659303
% es.Ez (V/m) @ t=0.62
-0.8213287585245777
% es.tEx (V/m) @ t=0.62
1.6547897601347525
% es.tEy (V/m) @ t=0.62
0
% es.tEz (V/m) @ t=0.62
-0.8213287585245617
% V (V) @ t=0.62
0.008387139743473437
% es.normE (V/m) @ t=0.64
1.8659434289582597
% es.EX (V/m) @ t=0.64
1.6704039024929163
% es.EY (V/m) @ t=0.64
0.06425220514146945
% es.EZ (V/m) @ t=0.64
-0.829076169710627
% es.tEX (V/m) @ t=0.64
1.6704039024929145
% es.tEY (V/m) @ t=0.64
0
% es.tEZ (V/m) @ t=0.64
-0.8290761697106284
% es.Ex (V/m) @ t=0.64
1.6704039024929163
% es.Ey (V/m) @ t=0.64
0.06425220514146945
% es.Ez (V/m) @ t=0.64
-0.829076169710627
% es.tEx (V/m) @ t=0.64
1.6704039024929145
% es.tEy (V/m) @ t=0.64
0
% es.tEz (V/m) @ t=0.64
-0.8290761697106284
% V (V) @ t=0.64
0.008466213210842843
% es.normE (V/m) @ t=0.66
1.883384397572925
% es.EX (V/m) @ t=0.66
1.6860180448510875
% es.EY (V/m) @ t=0.66
0.06485516822635651
% es.EZ (V/m) @ t=0.66
-0.836823580896719
% es.tEX (V/m) @ t=0.66
1.686018044851096
% es.tEY (V/m) @ t=0.66
0
% es.tEZ (V/m) @ t=0.66
-0.8368235808967128
% es.Ex (V/m) @ t=0.66
1.6860180448510875
% es.Ey (V/m) @ t=0.66
0.06485516822635651
% es.Ez (V/m) @ t=0.66
-0.836823580896719
% es.tEx (V/m) @ t=0.66
1.686018044851096
% es.tEy (V/m) @ t=0.66
0
% es.tEz (V/m) @ t=0.66
-0.8368235808967128
% V (V) @ t=0.66
0.00854528667821225
% es.normE (V/m) @ t=0.68
1.9008253661945602
% es.EX (V/m) @ t=0.68
1.701632187209234
% es.EY (V/m) @ t=0.68
0.06545813131120581
% es.EZ (V/m) @ t=0.68
-0.8445709920827684
% es.tEX (V/m) @ t=0.68
1.7016321872092357
% es.tEY (V/m) @ t=0.68
0
% es.tEZ (V/m) @ t=0.68
-0.8445709920827689
% es.Ex (V/m) @ t=0.68
1.701632187209234
% es.Ey (V/m) @ t=0.68
0.06545813131120581
% es.Ez (V/m) @ t=0.68
-0.8445709920827684
% es.tEx (V/m) @ t=0.68
1.7016321872092357
% es.tEy (V/m) @ t=0.68
0
% es.tEz (V/m) @ t=0.68
-0.8445709920827689
% V (V) @ t=0.68
0.008624360145581654
% es.normE (V/m) @ t=0.7
1.9182663348230506
% es.EX (V/m) @ t=0.7
1.7172463295674054
% es.EY (V/m) @ t=0.7
0.06606109439608401
% es.EZ (V/m) @ t=0.7
-0.8523184032688427
% es.tEX (V/m) @ t=0.7
1.7172463295674039
% es.tEY (V/m) @ t=0.7
0
% es.tEZ (V/m) @ t=0.7
-0.8523184032688391
% es.Ex (V/m) @ t=0.7
1.7172463295674054
% es.Ey (V/m) @ t=0.7
0.06606109439608401
% es.Ez (V/m) @ t=0.7
-0.8523184032688427
% es.tEx (V/m) @ t=0.7
1.7172463295674039
% es.tEy (V/m) @ t=0.7
0
% es.tEz (V/m) @ t=0.7
-0.8523184032688391
% V (V) @ t=0.7
0.008703433612951058
% es.normE (V/m) @ t=0.72
1.9357073034581513
% es.EX (V/m) @ t=0.72
1.7328604719255551
% es.EY (V/m) @ t=0.72
0.06666405748096665
% es.EZ (V/m) @ t=0.72
-0.8600658144549009
% es.tEX (V/m) @ t=0.72
1.7328604719255507
% es.tEY (V/m) @ t=0.72
0
% es.tEZ (V/m) @ t=0.72
-0.8600658144548987
% es.Ex (V/m) @ t=0.72
1.7328604719255551
% es.Ey (V/m) @ t=0.72
0.06666405748096665
% es.Ez (V/m) @ t=0.72
-0.8600658144549009
% es.tEx (V/m) @ t=0.72
1.7328604719255507
% es.tEy (V/m) @ t=0.72
0
% es.tEz (V/m) @ t=0.72
-0.8600658144548987
% V (V) @ t=0.72
0.008782507080320464
% es.normE (V/m) @ t=0.74
1.9531482720997344
% es.EX (V/m) @ t=0.74
1.7484746142837193
% es.EY (V/m) @ t=0.74
0.06726702056583639
% es.EZ (V/m) @ t=0.74
-0.8678132256409823
% es.tEX (V/m) @ t=0.74
1.7484746142837189
% es.tEY (V/m) @ t=0.74
0
% es.tEZ (V/m) @ t=0.74
-0.8678132256409725
% es.Ex (V/m) @ t=0.74
1.7484746142837193
% es.Ey (V/m) @ t=0.74
0.06726702056583639
% es.Ez (V/m) @ t=0.74
-0.8678132256409823
% es.tEx (V/m) @ t=0.74
1.7484746142837189
% es.tEy (V/m) @ t=0.74
0
% es.tEz (V/m) @ t=0.74
-0.8678132256409725
% V (V) @ t=0.74
0.008861580547689868
% es.normE (V/m) @ t=0.76
1.970589240747587
% es.EX (V/m) @ t=0.76
1.7640887566418764
% es.EY (V/m) @ t=0.76
0.0678699836507084
% es.EZ (V/m) @ t=0.76
-0.8755606368270388
% es.tEX (V/m) @ t=0.76
1.7640887566418657
% es.tEY (V/m) @ t=0.76
0
% es.tEZ (V/m) @ t=0.76
-0.8755606368270321
% es.Ex (V/m) @ t=0.76
1.7640887566418764
% es.Ey (V/m) @ t=0.76
0.0678699836507084
% es.Ez (V/m) @ t=0.76
-0.8755606368270388
% es.tEx (V/m) @ t=0.76
1.7640887566418657
% es.tEy (V/m) @ t=0.76
0
% es.tEz (V/m) @ t=0.76
-0.8755606368270321
% V (V) @ t=0.76
0.008940654015059273
% es.normE (V/m) @ t=0.78
1.9880302094015645
% es.EX (V/m) @ t=0.78
1.7797028990000334
% es.EY (V/m) @ t=0.78
0.06847294673558124
% es.EZ (V/m) @ t=0.78
-0.8833080480131023
% es.tEX (V/m) @ t=0.78
1.7797028990000339
% es.tEY (V/m) @ t=0.78
0
% es.tEZ (V/m) @ t=0.78
-0.8833080480130988
% es.Ex (V/m) @ t=0.78
1.7797028990000334
% es.Ey (V/m) @ t=0.78
0.06847294673558124
% es.Ez (V/m) @ t=0.78
-0.8833080480131023
% es.tEx (V/m) @ t=0.78
1.7797028990000339
% es.tEy (V/m) @ t=0.78
0
% es.tEz (V/m) @ t=0.78
-0.8833080480130988
% V (V) @ t=0.78
0.009019727482428679
% es.normE (V/m) @ t=0.8
2.005471178061516
% es.EX (V/m) @ t=0.8
1.7953170413581978
% es.EY (V/m) @ t=0.8
0.06907590982044257
% es.EZ (V/m) @ t=0.8
-0.8910554591991783
% es.tEX (V/m) @ t=0.8
1.795317041358202
% es.tEY (V/m) @ t=0.8
0
% es.tEZ (V/m) @ t=0.8
-0.8910554591991726
% es.Ex (V/m) @ t=0.8
1.7953170413581978
% es.Ey (V/m) @ t=0.8
0.06907590982044257
% es.Ez (V/m) @ t=0.8
-0.8910554591991783
% es.tEx (V/m) @ t=0.8
1.795317041358202
% es.tEy (V/m) @ t=0.8
0
% es.tEz (V/m) @ t=0.8
-0.8910554591991726
% V (V) @ t=0.8
0.009098800949798085
% es.normE (V/m) @ t=0.82
2.023146292402709
% es.EX (V/m) @ t=0.82
1.8111407197077631
% es.EY (V/m) @ t=0.82
0.06968673771771688
% es.EZ (V/m) @ t=0.82
-0.8989070677459825
% es.tEX (V/m) @ t=0.82
1.8111407197077467
% es.tEY (V/m) @ t=0.82
0
% es.tEZ (V/m) @ t=0.82
-0.8989070677459878
% es.Ex (V/m) @ t=0.82
1.8111407197077631
% es.Ey (V/m) @ t=0.82
0.06968673771771688
% es.Ez (V/m) @ t=0.82
-0.8989070677459825
% es.tEx (V/m) @ t=0.82
1.8111407197077467
% es.tEy (V/m) @ t=0.82
0
% es.tEz (V/m) @ t=0.82
-0.8989070677459878
% V (V) @ t=0.82
0.009178941754370267
% es.normE (V/m) @ t=0.84
2.042651107276714
% es.EX (V/m) @ t=0.84
1.8286017894540545
% es.EY (V/m) @ t=0.84
0.07035902415497611
% es.EZ (V/m) @ t=0.84
-0.9075729128395588
% es.tEX (V/m) @ t=0.84
1.8286017894540514
% es.tEY (V/m) @ t=0.84
0
% es.tEZ (V/m) @ t=0.84
-0.9075729128395551
% es.Ex (V/m) @ t=0.84
1.8286017894540545
% es.Ey (V/m) @ t=0.84
0.07035902415497611
% es.Ez (V/m) @ t=0.84
-0.9075729128395588
% es.tEx (V/m) @ t=0.84
1.8286017894540514
% es.tEy (V/m) @ t=0.84
0
% es.tEz (V/m) @ t=0.84
-0.9075729128395551
% V (V) @ t=0.84
0.009267423124883292
% es.normE (V/m) @ t=0.86
2.062155922150949
% es.EX (V/m) @ t=0.86
1.846062859200353
% es.EY (V/m) @ t=0.86
0.0710313105922771
% es.EZ (V/m) @ t=0.86
-0.9162387579331261
% es.tEX (V/m) @ t=0.86
1.8460628592003507
% es.tEY (V/m) @ t=0.86
0
% es.tEZ (V/m) @ t=0.86
-0.9162387579331153
% es.Ex (V/m) @ t=0.86
1.846062859200353
% es.Ey (V/m) @ t=0.86
0.0710313105922771
% es.Ez (V/m) @ t=0.86
-0.9162387579331261
% es.tEx (V/m) @ t=0.86
1.8460628592003507
% es.tEy (V/m) @ t=0.86
0
% es.tEz (V/m) @ t=0.86
-0.9162387579331153
% V (V) @ t=0.86
0.009355904495396318
% es.normE (V/m) @ t=0.88
2.0816607370253957
% es.EX (V/m) @ t=0.88
1.8635239289466516
% es.EY (V/m) @ t=0.88
0.07170359702954343
% es.EZ (V/m) @ t=0.88
-0.9249046030266775
% es.tEX (V/m) @ t=0.88
1.86352392894665
% es.tEY (V/m) @ t=0.88
0
% es.tEZ (V/m) @ t=0.88
-0.9249046030266825
% es.Ex (V/m) @ t=0.88
1.8635239289466516
% es.Ey (V/m) @ t=0.88
0.07170359702954343
% es.Ez (V/m) @ t=0.88
-0.9249046030266775
% es.tEx (V/m) @ t=0.88
1.86352392894665
% es.tEy (V/m) @ t=0.88
0
% es.tEz (V/m) @ t=0.88
-0.9249046030266825
% V (V) @ t=0.88
0.009444385865909344
% es.normE (V/m) @ t=0.9
2.101165551900057
% es.EX (V/m) @ t=0.9
1.8809849986929428
% es.EY (V/m) @ t=0.9
0.07237588346682575
% es.EZ (V/m) @ t=0.9
-0.9335704481202467
% es.tEX (V/m) @ t=0.9
1.8809849986929406
% es.tEY (V/m) @ t=0.9
0
% es.tEZ (V/m) @ t=0.9
-0.9335704481202356
% es.Ex (V/m) @ t=0.9
1.8809849986929428
% es.Ey (V/m) @ t=0.9
0.07237588346682575
% es.Ez (V/m) @ t=0.9
-0.9335704481202467
% es.tEx (V/m) @ t=0.9
1.8809849986929406
% es.tEy (V/m) @ t=0.9
0
% es.tEz (V/m) @ t=0.9
-0.9335704481202356
% V (V) @ t=0.9
0.009532867236422366
% es.normE (V/m) @ t=0.92
2.1206703667749354
% es.EX (V/m) @ t=0.92
1.8984460684392483
% es.EY (V/m) @ t=0.92
0.07304816990410767
% es.EZ (V/m) @ t=0.92
-0.9422362932138052
% es.tEX (V/m) @ t=0.92
1.89844606843924
% es.tEY (V/m) @ t=0.92
0
% es.tEZ (V/m) @ t=0.92
-0.9422362932138029
% es.Ex (V/m) @ t=0.92
1.8984460684392483
% es.Ey (V/m) @ t=0.92
0.07304816990410767
% es.Ez (V/m) @ t=0.92
-0.9422362932138052
% es.tEx (V/m) @ t=0.92
1.89844606843924
% es.tEy (V/m) @ t=0.92
0
% es.tEz (V/m) @ t=0.92
-0.9422362932138029
% V (V) @ t=0.92
0.009621348606935394
% es.normE (V/m) @ t=0.94
2.140175181650017
% es.EX (V/m) @ t=0.94
1.9159071381855468
% es.EY (V/m) @ t=0.94
0.07372045634138336
% es.EZ (V/m) @ t=0.94
-0.9509021383073815
% es.tEX (V/m) @ t=0.94
1.9159071381855517
% es.tEY (V/m) @ t=0.94
0
% es.tEZ (V/m) @ t=0.94
-0.9509021383073772
% es.Ex (V/m) @ t=0.94
1.9159071381855468
% es.Ey (V/m) @ t=0.94
0.07372045634138336
% es.Ez (V/m) @ t=0.94
-0.9509021383073815
% es.tEx (V/m) @ t=0.94
1.9159071381855517
% es.tEy (V/m) @ t=0.94
0
% es.tEz (V/m) @ t=0.94
-0.9509021383073772
% V (V) @ t=0.94
0.00970982997744842
% es.normE (V/m) @ t=0.96
2.159679996525276
% es.EX (V/m) @ t=0.96
1.9333682079318386
% es.EY (V/m) @ t=0.96
0.07439274277865812
% es.EZ (V/m) @ t=0.96
-0.9595679834009292
% es.tEX (V/m) @ t=0.96
1.9333682079318297
% es.tEY (V/m) @ t=0.96
0
% es.tEZ (V/m) @ t=0.96
-0.9595679834009374
% es.Ex (V/m) @ t=0.96
1.9333682079318386
% es.Ey (V/m) @ t=0.96
0.07439274277865812
% es.Ez (V/m) @ t=0.96
-0.9595679834009292
% es.tEx (V/m) @ t=0.96
1.9333682079318297
% es.tEy (V/m) @ t=0.96
0
% es.tEz (V/m) @ t=0.96
-0.9595679834009374
% V (V) @ t=0.96
0.009798311347961445
% es.normE (V/m) @ t=0.98
2.1791848114007517
% es.EX (V/m) @ t=0.98
1.9508292776781442
% es.EY (V/m) @ t=0.98
0.07506502921594269
% es.EZ (V/m) @ t=0.98
-0.9682338284945056
% es.tEX (V/m) @ t=0.98
1.9508292776781433
% es.tEY (V/m) @ t=0.98
0
% es.tEZ (V/m) @ t=0.98
-0.9682338284944976
% es.Ex (V/m) @ t=0.98
1.9508292776781442
% es.Ey (V/m) @ t=0.98
0.07506502921594269
% es.Ez (V/m) @ t=0.98
-0.9682338284945056
% es.tEx (V/m) @ t=0.98
1.9508292776781433
% es.tEy (V/m) @ t=0.98
0
% es.tEz (V/m) @ t=0.98
-0.9682338284944976
% V (V) @ t=0.98
0.00988679271847447
% es.normE (V/m) @ t=1
2.1986896262763933
% es.EX (V/m) @ t=1
1.9682903474244353
% es.EY (V/m) @ t=1
0.07573731565322189
% es.EZ (V/m) @ t=1
-0.976899673588064
% es.tEX (V/m) @ t=1
1.9682903474244409
% es.tEY (V/m) @ t=1
0
% es.tEZ (V/m) @ t=1
-0.9768996735880648
% es.Ex (V/m) @ t=1
1.9682903474244353
% es.Ey (V/m) @ t=1
0.07573731565322189
% es.Ez (V/m) @ t=1
-0.976899673588064
% es.tEx (V/m) @ t=1
1.9682903474244409
% es.tEy (V/m) @ t=1
0
% es.tEz (V/m) @ t=1
-0.9768996735880648
% V (V) @ t=1
0.009975274088987494
% es.normE (V/m) @ t=1.02
2.218194441152233
% es.EX (V/m) @ t=1.02
1.9857514171707409
% es.EY (V/m) @ t=1.02
0.07640960209049844
% es.EZ (V/m) @ t=1.02
-0.9855655186816331
% es.tEX (V/m) @ t=1.02
1.9857514171707402
% es.tEY (V/m) @ t=1.02
0
% es.tEZ (V/m) @ t=1.02
-0.985565518681625
% es.Ex (V/m) @ t=1.02
1.9857514171707409
% es.Ey (V/m) @ t=1.02
0.07640960209049844
% es.Ez (V/m) @ t=1.02
-0.9855655186816331
% es.tEx (V/m) @ t=1.02
1.9857514171707402
% es.tEy (V/m) @ t=1.02
0
% es.tEz (V/m) @ t=1.02
-0.985565518681625
% V (V) @ t=1.02
0.01006375545950052
% es.normE (V/m) @ t=1.04
2.2376992560282334
% es.EX (V/m) @ t=1.04
2.003212486917032
% es.EY (V/m) @ t=1.04
0.0770818885277679
% es.EZ (V/m) @ t=1.04
-0.9942313637751952