% Model:              1 neuron.mph
% Version:            COMSOL 6.0.0.405
% Date:               Mar 16 2023, 17:03
% Dimension:          0
% Nodes:              14017
% Expressions:        14017
% Description:        Electric field norm, Electric field, X component, Electric field, Y component, Electric field, Z component, Tangential electric field, X component, Tangential electric field, Y component, Tangential electric field, Z component, Electric field, x component, Electric field, y component, Electric field, z component, Tangential electric field, x component, Tangential electric field, y component, Tangential electric field, z component, Electric potential
% Length unit:        mm
% x
2
% y
12.199999999999998
% z
2
% es.normE (V/m) @ t=0
0.7329626490456984
% es.EX (V/m) @ t=0
-0.5247333098690704
% es.EY (V/m) @ t=0
0.19983678170948527
% es.EZ (V/m) @ t=0
-0.4682451022347007
% es.tEX (V/m) @ t=0
-0.5247333098690694
% es.tEY (V/m) @ t=0
0
% es.tEZ (V/m) @ t=0
-0.46824510223470206
% es.Ex (V/m) @ t=0
-0.5247333098690704
% es.Ey (V/m) @ t=0
0.19983678170948527
% es.Ez (V/m) @ t=0
-0.4682451022347007
% es.tEx (V/m) @ t=0
-0.5247333098690694
% es.tEy (V/m) @ t=0
0
% es.tEz (V/m) @ t=0
-0.46824510223470206
% V (V) @ t=0
0.007459220932855455
% es.normE (V/m) @ t=0.02
0.633073294047134
% es.EX (V/m) @ t=0.02
-0.45322179191322076
% es.EY (V/m) @ t=0.02
0.17260269818607066
% es.EZ (V/m) @ t=0.02
-0.40443188860193
% es.tEX (V/m) @ t=0.02
-0.45322179191322043
% es.tEY (V/m) @ t=0.02
0
% es.tEZ (V/m) @ t=0.02
-0.4044318886019269
% es.Ex (V/m) @ t=0.02
-0.45322179191322076
% es.Ey (V/m) @ t=0.02
0.17260269818607066
% es.Ez (V/m) @ t=0.02
-0.40443188860193
% es.tEx (V/m) @ t=0.02
-0.45322179191322043
% es.tEy (V/m) @ t=0.02
0
% es.tEz (V/m) @ t=0.02
-0.4044318886019269
% V (V) @ t=0.02
0.006442665955663131
% es.normE (V/m) @ t=0.04
0.638895655779617
% es.EX (V/m) @ t=0.04
-0.4573900656997296
% es.EY (V/m) @ t=0.04
0.1741901360740845
% es.EZ (V/m) @ t=0.04
-0.408151430131662
% es.tEX (V/m) @ t=0.04
-0.4573900656997265
% es.tEY (V/m) @ t=0.04
0
% es.tEZ (V/m) @ t=0.04
-0.4081514301316611
% es.Ex (V/m) @ t=0.04
-0.4573900656997296
% es.Ey (V/m) @ t=0.04
0.1741901360740845
% es.Ez (V/m) @ t=0.04
-0.408151430131662
% es.tEx (V/m) @ t=0.04
-0.4573900656997265
% es.tEy (V/m) @ t=0.04
0
% es.tEz (V/m) @ t=0.04
-0.4081514301316611
% V (V) @ t=0.04
0.006501918290153101
% es.normE (V/m) @ t=0.06
0.6447708302214559
% es.EX (V/m) @ t=0.06
-0.4615961508695732
% es.EY (V/m) @ t=0.06
0.1757919881901553
% es.EZ (V/m) @ t=0.06
-0.4119047002444134
% es.tEX (V/m) @ t=0.06
-0.4615961508695714
% es.tEY (V/m) @ t=0.06
0
% es.tEZ (V/m) @ t=0.06
-0.4119047002444134
% es.Ex (V/m) @ t=0.06
-0.4615961508695732
% es.Ey (V/m) @ t=0.06
0.1757919881901553
% es.Ez (V/m) @ t=0.06
-0.4119047002444134
% es.tEx (V/m) @ t=0.06
-0.4615961508695714
% es.tEy (V/m) @ t=0.06
0
% es.tEz (V/m) @ t=0.06
-0.4119047002444134
% V (V) @ t=0.06
0.00656170731892078
% es.normE (V/m) @ t=0.08
0.6507348996342943
% es.EX (V/m) @ t=0.08
-0.46586587213415387
% es.EY (V/m) @ t=0.08
0.177418049677462
% es.EZ (V/m) @ t=0.08
-0.4157147784118589
% es.tEX (V/m) @ t=0.08
-0.46586587213415287
% es.tEY (V/m) @ t=0.08
0
% es.tEZ (V/m) @ t=0.08
-0.4157147784118589
% es.Ex (V/m) @ t=0.08
-0.46586587213415387
% es.Ey (V/m) @ t=0.08
0.177418049677462
% es.Ez (V/m) @ t=0.08
-0.4157147784118589
% es.tEx (V/m) @ t=0.08
-0.46586587213415287
% es.tEy (V/m) @ t=0.08
0
% es.tEz (V/m) @ t=0.08
-0.4157147784118589
% V (V) @ t=0.08
0.006622402384678924
% es.normE (V/m) @ t=0.1
0.6567624648000775
% es.EX (V/m) @ t=0.1
-0.47018104728330157
% es.EY (V/m) @ t=0.1
0.179061403394436
% es.EZ (V/m) @ t=0.1
-0.41956543334270346
% es.tEX (V/m) @ t=0.1
-0.47018104728329924
% es.tEY (V/m) @ t=0.1
0
% es.tEZ (V/m) @ t=0.1
-0.41956543334270346
% es.Ex (V/m) @ t=0.1
-0.47018104728330157
% es.Ey (V/m) @ t=0.1
0.179061403394436
% es.Ez (V/m) @ t=0.1
-0.41956543334270346
% es.tEx (V/m) @ t=0.1
-0.47018104728329924
% es.tEy (V/m) @ t=0.1
0
% es.tEz (V/m) @ t=0.1
-0.41956543334270346
% V (V) @ t=0.1
0.00668374461304099
% es.normE (V/m) @ t=0.12
0.6627900299658678
% es.EX (V/m) @ t=0.12
-0.47449622243245504
% es.EY (V/m) @ t=0.12
0.18070475711141576
% es.EZ (V/m) @ t=0.12
-0.42341608827354893
% es.tEX (V/m) @ t=0.12
-0.4744962224324558
% es.tEY (V/m) @ t=0.12
0
% es.tEZ (V/m) @ t=0.12
-0.4234160882735498
% es.Ex (V/m) @ t=0.12
-0.47449622243245504
% es.Ey (V/m) @ t=0.12
0.18070475711141576
% es.Ez (V/m) @ t=0.12
-0.42341608827354893
% es.tEx (V/m) @ t=0.12
-0.4744962224324558
% es.tEy (V/m) @ t=0.12
0
% es.tEz (V/m) @ t=0.12
-0.4234160882735498
% V (V) @ t=0.12
0.006745086841403055
% es.normE (V/m) @ t=0.14
0.66887451758161
% es.EX (V/m) @ t=0.14
-0.4788521497851014
% es.EY (V/m) @ t=0.14
0.18236363661034694
% es.EZ (V/m) @ t=0.14
-0.42730310322820797
% es.tEX (V/m) @ t=0.14
-0.47885214978510326
% es.tEY (V/m) @ t=0.14
0
% es.tEZ (V/m) @ t=0.14
-0.4273031032282102
% es.Ex (V/m) @ t=0.14
-0.4788521497851014
% es.Ey (V/m) @ t=0.14
0.18236363661034694
% es.Ez (V/m) @ t=0.14
-0.42730310322820797
% es.tEx (V/m) @ t=0.14
-0.47885214978510326
% es.tEy (V/m) @ t=0.14
0
% es.tEz (V/m) @ t=0.14
-0.4273031032282102
% V (V) @ t=0.14
0.00680700804038653
% es.normE (V/m) @ t=0.16
0.6752243116824888
% es.EX (V/m) @ t=0.16
-0.4833980166761963
% es.EY (V/m) @ t=0.16
0.1840948793094641
% es.EZ (V/m) @ t=0.16
-0.4313595864704034
% es.tEX (V/m) @ t=0.16
-0.48339801667619664
% es.tEY (V/m) @ t=0.16
0
% es.tEZ (V/m) @ t=0.16
-0.4313595864704114
% es.Ex (V/m) @ t=0.16
-0.4833980166761963
% es.Ey (V/m) @ t=0.16
0.1840948793094641
% es.Ez (V/m) @ t=0.16
-0.4313595864704034
% es.tEx (V/m) @ t=0.16
-0.48339801667619664
% es.tEy (V/m) @ t=0.16
0
% es.tEz (V/m) @ t=0.16
-0.4313595864704114
% V (V) @ t=0.16
0.006871627729344925
% es.normE (V/m) @ t=0.18
0.6815741057833669
% es.EX (V/m) @ t=0.18
-0.48794388356728724
% es.EY (V/m) @ t=0.18
0.18582612200858173
% es.EZ (V/m) @ t=0.18
-0.43541606971260194
% es.tEX (V/m) @ t=0.18
-0.4879438835672869
% es.tEY (V/m) @ t=0.18
0
% es.tEZ (V/m) @ t=0.18
-0.43541606971260016
% es.Ex (V/m) @ t=0.18
-0.48794388356728724
% es.Ey (V/m) @ t=0.18
0.18582612200858173
% es.Ez (V/m) @ t=0.18
-0.43541606971260194
% es.tEx (V/m) @ t=0.18
-0.4879438835672869
% es.tEy (V/m) @ t=0.18
0
% es.tEz (V/m) @ t=0.18
-0.43541606971260016
% V (V) @ t=0.18
0.006936247418303316
% es.normE (V/m) @ t=0.2
0.687923899884249
% es.EX (V/m) @ t=0.2
-0.49248975045838306
% es.EY (V/m) @ t=0.2
0.187557364707704
% es.EZ (V/m) @ t=0.2
-0.43947255295479515
% es.tEX (V/m) @ t=0.2
-0.4924897504583803
% es.tEY (V/m) @ t=0.2
0
% es.tEZ (V/m) @ t=0.2
-0.43947255295479426
% es.Ex (V/m) @ t=0.2
-0.49248975045838306
% es.Ey (V/m) @ t=0.2
0.187557364707704
% es.Ez (V/m) @ t=0.2
-0.43947255295479515
% es.tEx (V/m) @ t=0.2
-0.4924897504583803
% es.tEy (V/m) @ t=0.2
0
% es.tEz (V/m) @ t=0.2
-0.43947255295479426
% V (V) @ t=0.2
0.007000867107261711
% es.normE (V/m) @ t=0.22
0.694273693985129
% es.EX (V/m) @ t=0.22
-0.4970356173494762
% es.EY (V/m) @ t=0.22
0.1892886074068132
% es.EZ (V/m) @ t=0.22
-0.44352903619699324
% es.tEX (V/m) @ t=0.22
-0.4970356173494739
% es.tEY (V/m) @ t=0.22
0
% es.tEZ (V/m) @ t=0.22
-0.44352903619699546
% es.Ex (V/m) @ t=0.22
-0.4970356173494762
% es.Ey (V/m) @ t=0.22
0.1892886074068132
% es.Ez (V/m) @ t=0.22
-0.44352903619699324
% es.tEx (V/m) @ t=0.22
-0.4970356173494739
% es.tEy (V/m) @ t=0.22
0
% es.tEz (V/m) @ t=0.22
-0.44352903619699546
% V (V) @ t=0.22
0.007065486796220106
% es.normE (V/m) @ t=0.24
0.700623488086012
% es.EX (V/m) @ t=0.24
-0.5015814842405718
% es.EY (V/m) @ t=0.24
0.19101985010593525
% es.EZ (V/m) @ t=0.24
-0.44758551943918823
% es.tEX (V/m) @ t=0.24
-0.501581484240573
% es.tEY (V/m) @ t=0.24
0
% es.tEZ (V/m) @ t=0.24
-0.44758551943919134
% es.Ex (V/m) @ t=0.24
-0.5015814842405718
% es.Ey (V/m) @ t=0.24
0.19101985010593525
% es.Ez (V/m) @ t=0.24
-0.44758551943918823
% es.tEx (V/m) @ t=0.24
-0.501581484240573
% es.tEy (V/m) @ t=0.24
0
% es.tEz (V/m) @ t=0.24
-0.44758551943919134
% V (V) @ t=0.24
0.007130106485178499
% es.normE (V/m) @ t=0.26
0.7069732821868956
% es.EX (V/m) @ t=0.26
-0.5061273511316656
% es.EY (V/m) @ t=0.26
0.19275109280504688
% es.EZ (V/m) @ t=0.26
-0.4516420026813872
% es.tEX (V/m) @ t=0.26
-0.5061273511316664
% es.tEY (V/m) @ t=0.26
0
% es.tEZ (V/m) @ t=0.26
-0.45164200268139165
% es.Ex (V/m) @ t=0.26
-0.5061273511316656
% es.Ey (V/m) @ t=0.26
0.19275109280504688
% es.Ez (V/m) @ t=0.26
-0.4516420026813872
% es.tEx (V/m) @ t=0.26
-0.5061273511316664
% es.tEy (V/m) @ t=0.26
0
% es.tEz (V/m) @ t=0.26
-0.45164200268139165
% V (V) @ t=0.26
0.007194726174136891
% es.normE (V/m) @ t=0.28
0.7135864532312919
% es.EX (V/m) @ t=0.28
-0.5108617783823889
% es.EY (V/m) @ t=0.28
0.19455418811000236
% es.EZ (V/m) @ t=0.28
-0.45586671138295287
% es.tEX (V/m) @ t=0.28
-0.5108617783823879
% es.tEY (V/m) @ t=0.28
0
% es.tEZ (V/m) @ t=0.28
-0.45586671138295376
% es.Ex (V/m) @ t=0.28
-0.5108617783823889
% es.Ey (V/m) @ t=0.28
0.19455418811000236
% es.Ez (V/m) @ t=0.28
-0.45586671138295287
% es.tEx (V/m) @ t=0.28
-0.5108617783823879
% es.tEy (V/m) @ t=0.28
0
% es.tEz (V/m) @ t=0.28
-0.45586671138295376
% V (V) @ t=0.28
0.007262023929626243
% es.normE (V/m) @ t=0.3
0.7206612346124195
% es.EX (V/m) @ t=0.3
-0.515926687906671
% es.EY (V/m) @ t=0.3
0.19648321663115942
% es.EZ (V/m) @ t=0.3
-0.46038626218386014
% es.tEX (V/m) @ t=0.3
-0.515926687906672
% es.tEY (V/m) @ t=0.3
0
% es.tEZ (V/m) @ t=0.3
-0.46038626218386014
% es.Ex (V/m) @ t=0.3
-0.515926687906671
% es.Ey (V/m) @ t=0.3
0.19648321663115942
% es.Ez (V/m) @ t=0.3
-0.46038626218386014
% es.tEx (V/m) @ t=0.3
-0.515926687906672
% es.tEy (V/m) @ t=0.3
0
% es.tEz (V/m) @ t=0.3
-0.46038626218386014
% V (V) @ t=0.3
0.0073340154262479
% es.normE (V/m) @ t=0.32
0.7277360159935963
% es.EX (V/m) @ t=0.32
-0.5209915974309677
% es.EY (V/m) @ t=0.32
0.1984122451523198
% es.EZ (V/m) @ t=0.32
-0.4649058129847514
% es.tEX (V/m) @ t=0.32
-0.5209915974309653
% es.tEY (V/m) @ t=0.32
0
% es.tEZ (V/m) @ t=0.32
-0.46490581298474964
% es.Ex (V/m) @ t=0.32
-0.5209915974309677
% es.Ey (V/m) @ t=0.32
0.1984122451523198
% es.Ez (V/m) @ t=0.32
-0.4649058129847514
% es.tEx (V/m) @ t=0.32
-0.5209915974309653
% es.tEy (V/m) @ t=0.32
0
% es.tEz (V/m) @ t=0.32
-0.46490581298474964
% V (V) @ t=0.32
0.007406006922869556
% es.normE (V/m) @ t=0.34
0.7348107973748204
% es.EX (V/m) @ t=0.34
-0.5260565069552573
% es.EY (V/m) @ t=0.34
0.20034127367348065
% es.EZ (V/m) @ t=0.34
-0.4694253637856476
% es.tEX (V/m) @ t=0.34
-0.5260565069552554
% es.tEY (V/m) @ t=0.34
0
% es.tEZ (V/m) @ t=0.34
-0.4694253637856507
% es.Ex (V/m) @ t=0.34
-0.5260565069552573
% es.Ey (V/m) @ t=0.34
0.20034127367348065
% es.Ez (V/m) @ t=0.34
-0.4694253637856476
% es.tEx (V/m) @ t=0.34
-0.5260565069552554
% es.tEy (V/m) @ t=0.34
0
% es.tEz (V/m) @ t=0.34
-0.4694253637856507
% V (V) @ t=0.34
0.007477998419491215
% es.normE (V/m) @ t=0.36
0.7418855787560945
% es.EX (V/m) @ t=0.36
-0.5311214164795456
% es.EY (V/m) @ t=0.36
0.2022703021946486
% es.EZ (V/m) @ t=0.36
-0.4739449145865491
% es.tEX (V/m) @ t=0.36
-0.5311214164795433
% es.tEY (V/m) @ t=0.36
0
% es.tEZ (V/m) @ t=0.36
-0.4739449145865464
% es.Ex (V/m) @ t=0.36
-0.5311214164795456
% es.Ey (V/m) @ t=0.36
0.2022703021946486
% es.Ez (V/m) @ t=0.36
-0.4739449145865491
% es.tEx (V/m) @ t=0.36
-0.5311214164795433
% es.tEy (V/m) @ t=0.36
0
% es.tEz (V/m) @ t=0.36
-0.4739449145865464
% V (V) @ t=0.36
0.007549989916112872
% es.normE (V/m) @ t=0.38
0.7489603601374066
% es.EX (V/m) @ t=0.38
-0.5361863260038303
% es.EY (V/m) @ t=0.38
0.20419933071580032
% es.EZ (V/m) @ t=0.38
-0.47846446538745013
% es.tEX (V/m) @ t=0.38
-0.5361863260038289
% es.tEY (V/m) @ t=0.38
0
% es.tEZ (V/m) @ t=0.38
-0.47846446538744924
% es.Ex (V/m) @ t=0.38
-0.5361863260038303
% es.Ey (V/m) @ t=0.38
0.20419933071580032
% es.Ez (V/m) @ t=0.38
-0.47846446538745013
% es.tEx (V/m) @ t=0.38
-0.5361863260038289
% es.tEy (V/m) @ t=0.38
0
% es.tEz (V/m) @ t=0.38
-0.47846446538744924
% V (V) @ t=0.38
0.007621981412734531
% es.normE (V/m) @ t=0.4
0.7560351415187754
% es.EX (V/m) @ t=0.4
-0.5412512355281266
% es.EY (V/m) @ t=0.4
0.20612835923696404
% es.EZ (V/m) @ t=0.4
-0.48298401618835207
% es.tEX (V/m) @ t=0.4
-0.5412512355281256
% es.tEY (V/m) @ t=0.4
0
% es.tEZ (V/m) @ t=0.4
-0.48298401618835207
% es.Ex (V/m) @ t=0.4
-0.5412512355281266
% es.Ey (V/m) @ t=0.4
0.20612835923696404
% es.Ez (V/m) @ t=0.4
-0.48298401618835207
% es.tEx (V/m) @ t=0.4
-0.5412512355281256
% es.tEy (V/m) @ t=0.4
0
% es.tEz (V/m) @ t=0.4
-0.48298401618835207
% V (V) @ t=0.4
0.007693972909356189
% es.normE (V/m) @ t=0.42
0.7631099229001703
% es.EX (V/m) @ t=0.42
-0.5463161450524087
% es.EY (V/m) @ t=0.42
0.2080573877581251
% es.EZ (V/m) @ t=0.42
-0.48750356698924513
% es.tEX (V/m) @ t=0.42
-0.5463161450524081
% es.tEY (V/m) @ t=0.42
0
% es.tEZ (V/m) @ t=0.42
-0.4875035669892478
% es.Ex (V/m) @ t=0.42
-0.5463161450524087
% es.Ey (V/m) @ t=0.42
0.2080573877581251
% es.Ez (V/m) @ t=0.42
-0.48750356698924513
% es.tEx (V/m) @ t=0.42
-0.5463161450524081
% es.tEy (V/m) @ t=0.42
0
% es.tEz (V/m) @ t=0.42
-0.4875035669892478
% V (V) @ t=0.42
0.007765964405977847
% es.normE (V/m) @ t=0.44
0.7701847042816148
% es.EX (V/m) @ t=0.44
-0.5513810545767003
% es.EY (V/m) @ t=0.44
0.20998641627929393
% es.EZ (V/m) @ t=0.44
-0.4920231177901382
% es.tEX (V/m) @ t=0.44
-0.5513810545766988
% es.tEY (V/m) @ t=0.44
0
% es.tEZ (V/m) @ t=0.44
-0.49202311779014174
% es.Ex (V/m) @ t=0.44
-0.5513810545767003
% es.Ey (V/m) @ t=0.44
0.20998641627929393
% es.Ez (V/m) @ t=0.44
-0.4920231177901382
% es.tEx (V/m) @ t=0.44
-0.5513810545766988
% es.tEy (V/m) @ t=0.44
0
% es.tEz (V/m) @ t=0.44
-0.49202311779014174
% V (V) @ t=0.44
0.007837955902599506
% es.normE (V/m) @ t=0.46
0.7772594856631071
% es.EX (V/m) @ t=0.46
-0.5564459641009966
% es.EY (V/m) @ t=0.46
0.21191544480044833
% es.EZ (V/m) @ t=0.46
-0.4965426685910428
% es.tEX (V/m) @ t=0.46
-0.5564459641009916
% es.tEY (V/m) @ t=0.46
0
% es.tEZ (V/m) @ t=0.46
-0.49654266859103746
% es.Ex (V/m) @ t=0.46
-0.5564459641009966
% es.Ey (V/m) @ t=0.46
0.21191544480044833
% es.Ez (V/m) @ t=0.46
-0.4965426685910428
% es.tEx (V/m) @ t=0.46
-0.5564459641009916
% es.tEy (V/m) @ t=0.46
0
% es.tEz (V/m) @ t=0.46
-0.49654266859103746
% V (V) @ t=0.46
0.007909947399221162
% es.normE (V/m) @ t=0.48
0.7843342670446225
% es.EX (V/m) @ t=0.48
-0.561510873625284
% es.EY (V/m) @ t=0.48
0.21384447332161427
% es.EZ (V/m) @ t=0.48
-0.5010622193919261
% es.tEX (V/m) @ t=0.48
-0.5615108736252847
% es.tEY (V/m) @ t=0.48
0
% es.tEZ (V/m) @ t=0.48
-0.5010622193919296
% es.Ex (V/m) @ t=0.48
-0.561510873625284
% es.Ey (V/m) @ t=0.48
0.21384447332161427
% es.Ez (V/m) @ t=0.48
-0.5010622193919261
% es.tEx (V/m) @ t=0.48
-0.5615108736252847
% es.tEy (V/m) @ t=0.48
0
% es.tEz (V/m) @ t=0.48
-0.5010622193919296
% V (V) @ t=0.48
0.007981938895842821
% es.normE (V/m) @ t=0.5
0.7914090484261864
% es.EX (V/m) @ t=0.5
-0.5665757831495751
% es.EY (V/m) @ t=0.5
0.2157735018427731
% es.EZ (V/m) @ t=0.5
-0.5055817701928245
% es.tEX (V/m) @ t=0.5
-0.5665757831495781
% es.tEY (V/m) @ t=0.5
0
% es.tEZ (V/m) @ t=0.5
-0.5055817701928289
% es.Ex (V/m) @ t=0.5
-0.5665757831495751
% es.Ey (V/m) @ t=0.5
0.2157735018427731
% es.Ez (V/m) @ t=0.5
-0.5055817701928245
% es.tEx (V/m) @ t=0.5
-0.5665757831495781
% es.tEy (V/m) @ t=0.5
0
% es.tEz (V/m) @ t=0.5
-0.5055817701928289
% V (V) @ t=0.5
0.008053930392464478
% es.normE (V/m) @ t=0.52
0.7984838298077881
% es.EX (V/m) @ t=0.52
-0.5716406926738603
% es.EY (V/m) @ t=0.52
0.21770253036392417
% es.EZ (V/m) @ t=0.52
-0.5101013209937353
% es.tEX (V/m) @ t=0.52
-0.5716406926738611
% es.tEY (V/m) @ t=0.52
0
% es.tEZ (V/m) @ t=0.52
-0.510101320993738
% es.Ex (V/m) @ t=0.52
-0.5716406926738603
% es.Ey (V/m) @ t=0.52
0.21770253036392417
% es.Ez (V/m) @ t=0.52
-0.5101013209937353
% es.tEx (V/m) @ t=0.52
-0.5716406926738611
% es.tEy (V/m) @ t=0.52
0
% es.tEz (V/m) @ t=0.52
-0.510101320993738
% V (V) @ t=0.52
0.008125921889086136
% es.normE (V/m) @ t=0.54
0.8055586111894235
% es.EX (V/m) @ t=0.54
-0.5767056021981519
% es.EY (V/m) @ t=0.54
0.21963155888509744
% es.EZ (V/m) @ t=0.54
-0.5146208717946239
% es.tEX (V/m) @ t=0.54
-0.5767056021981509
% es.tEY (V/m) @ t=0.54
0
% es.tEZ (V/m) @ t=0.54
-0.5146208717946283
% es.Ex (V/m) @ t=0.54
-0.5767056021981519
% es.Ey (V/m) @ t=0.54
0.21963155888509744
% es.Ez (V/m) @ t=0.54
-0.5146208717946239
% es.tEx (V/m) @ t=0.54
-0.5767056021981509
% es.tEy (V/m) @ t=0.54
0
% es.tEz (V/m) @ t=0.54
-0.5146208717946283
% V (V) @ t=0.54
0.008197913385707793
% es.normE (V/m) @ t=0.56
0.813239392899055
% es.EX (V/m) @ t=0.56
-0.5822043182037603
% es.EY (V/m) @ t=0.56
0.22172559446920537
% es.EZ (V/m) @ t=0.56
-0.519527703304735
% es.tEX (V/m) @ t=0.56
-0.5822043182037588
% es.tEY (V/m) @ t=0.56
0
% es.tEZ (V/m) @ t=0.56
-0.5195277033047327
% es.Ex (V/m) @ t=0.56
-0.5822043182037603
% es.Ey (V/m) @ t=0.56
0.22172559446920537
% es.Ez (V/m) @ t=0.56
-0.519527703304735
% es.tEx (V/m) @ t=0.56
-0.5822043182037588
% es.tEy (V/m) @ t=0.56
0
% es.tEz (V/m) @ t=0.56
-0.5195277033047327
% V (V) @ t=0.56
0.008276082867898656
% es.normE (V/m) @ t=0.58
0.8211369290684964
% es.EX (V/m) @ t=0.58
-0.5878581982994752
% es.EY (V/m) @ t=0.58
0.2238786498510581
% es.EZ (V/m) @ t=0.58
-0.5245730575466405
% es.tEX (V/m) @ t=0.58
-0.5878581982994742
% es.tEY (V/m) @ t=0.58
0
% es.tEZ (V/m) @ t=0.58
-0.5245730575466432
% es.Ex (V/m) @ t=0.58
-0.5878581982994752
% es.Ey (V/m) @ t=0.58
0.2238786498510581
% es.Ez (V/m) @ t=0.58
-0.5245730575466405
% es.tEx (V/m) @ t=0.58
-0.5878581982994742
% es.tEy (V/m) @ t=0.58
0
% es.tEz (V/m) @ t=0.58
-0.5245730575466432
% V (V) @ t=0.58
0.00835646209464332
% es.normE (V/m) @ t=0.6
0.8290344652380017
% es.EX (V/m) @ t=0.6
-0.5935120783951989
% es.EY (V/m) @ t=0.6
0.22603170523289462
% es.EZ (V/m) @ t=0.6
-0.5296184117885478
% es.tEX (V/m) @ t=0.6
-0.5935120783951962
% es.tEY (V/m) @ t=0.6
0
% es.tEZ (V/m) @ t=0.6
-0.529618411788543
% es.Ex (V/m) @ t=0.6
-0.5935120783951989
% es.Ey (V/m) @ t=0.6
0.22603170523289462
% es.Ez (V/m) @ t=0.6
-0.5296184117885478
% es.tEx (V/m) @ t=0.6
-0.5935120783951962
% es.tEy (V/m) @ t=0.6
0
% es.tEz (V/m) @ t=0.6
-0.529618411788543
% V (V) @ t=0.6
0.008436841321387981
% es.normE (V/m) @ t=0.62
0.8369320014075605
% es.EX (V/m) @ t=0.62
-0.5991659584909085
% es.EY (V/m) @ t=0.62
0.2281847606147589
% es.EZ (V/m) @ t=0.62
-0.5346637660304463
% es.tEX (V/m) @ t=0.62
-0.5991659584909075
% es.tEY (V/m) @ t=0.62
0
% es.tEZ (V/m) @ t=0.62
-0.534663766030449
% es.Ex (V/m) @ t=0.62
-0.5991659584909085
% es.Ey (V/m) @ t=0.62
0.2281847606147589
% es.Ez (V/m) @ t=0.62
-0.5346637660304463
% es.tEx (V/m) @ t=0.62
-0.5991659584909075
% es.tEy (V/m) @ t=0.62
0
% es.tEz (V/m) @ t=0.62
-0.534663766030449
% V (V) @ t=0.62
0.008517220548132642
% es.normE (V/m) @ t=0.64
0.8448295375771768
% es.EX (V/m) @ t=0.64
-0.6048198385866154
% es.EY (V/m) @ t=0.64
0.23033781599659808
% es.EZ (V/m) @ t=0.64
-0.5397091202723585
% es.tEX (V/m) @ t=0.64
-0.6048198385866155
% es.tEY (V/m) @ t=0.64
0
% es.tEZ (V/m) @ t=0.64
-0.5397091202723558
% es.Ex (V/m) @ t=0.64
-0.6048198385866154
% es.Ey (V/m) @ t=0.64
0.23033781599659808
% es.Ez (V/m) @ t=0.64
-0.5397091202723585
% es.tEx (V/m) @ t=0.64
-0.6048198385866155
% es.tEy (V/m) @ t=0.64
0
% es.tEz (V/m) @ t=0.64
-0.5397091202723558
% V (V) @ t=0.64
0.008597599774877304
% es.normE (V/m) @ t=0.66
0.8527270737468537
% es.EX (V/m) @ t=0.66
-0.6104737186823285
% es.EY (V/m) @ t=0.66
0.23249087137845348
% es.EZ (V/m) @ t=0.66
-0.544754474514261
% es.tEX (V/m) @ t=0.66
-0.6104737186823268
% es.tEY (V/m) @ t=0.66
0
% es.tEZ (V/m) @ t=0.66
-0.5447544745142698
% es.Ex (V/m) @ t=0.66
-0.6104737186823285
% es.Ey (V/m) @ t=0.66
0.23249087137845348
% es.Ez (V/m) @ t=0.66
-0.544754474514261
% es.tEx (V/m) @ t=0.66
-0.6104737186823268
% es.tEy (V/m) @ t=0.66
0
% es.tEz (V/m) @ t=0.66
-0.5447544745142698
% V (V) @ t=0.66
0.008677979001621965
% es.normE (V/m) @ t=0.68
0.8606246099165763
% es.EX (V/m) @ t=0.68
-0.6161275987780379
% es.EY (V/m) @ t=0.68
0.23464392676028556
% es.EZ (V/m) @ t=0.68
-0.5497998287561647
% es.tEX (V/m) @ t=0.68
-0.6161275987780346
% es.tEY (V/m) @ t=0.68
0
% es.tEZ (V/m) @ t=0.68
-0.5497998287561625
% es.Ex (V/m) @ t=0.68
-0.6161275987780379
% es.Ey (V/m) @ t=0.68
0.23464392676028556
% es.Ez (V/m) @ t=0.68
-0.5497998287561647
% es.tEx (V/m) @ t=0.68
-0.6161275987780346
% es.tEy (V/m) @ t=0.68
0
% es.tEz (V/m) @ t=0.68
-0.5497998287561625
% V (V) @ t=0.68
0.008758358228366627
% es.normE (V/m) @ t=0.7
0.8685221460863566
% es.EX (V/m) @ t=0.7
-0.6217814788737474
% es.EY (V/m) @ t=0.7
0.23679698214213563
% es.EZ (V/m) @ t=0.7
-0.5548451829980663
% es.tEX (V/m) @ t=0.7
-0.6217814788737464
% es.tEY (V/m) @ t=0.7
0
% es.tEZ (V/m) @ t=0.7
-0.5548451829980756
% es.Ex (V/m) @ t=0.7
-0.6217814788737474
% es.Ey (V/m) @ t=0.7
0.23679698214213563
% es.Ez (V/m) @ t=0.7
-0.5548451829980663
% es.tEx (V/m) @ t=0.7
-0.6217814788737464
% es.tEy (V/m) @ t=0.7
0
% es.tEz (V/m) @ t=0.7
-0.5548451829980756
% V (V) @ t=0.7
0.008838737455111288
% es.normE (V/m) @ t=0.72
0.8764196822561943
% es.EX (V/m) @ t=0.72
-0.6274353589694605
% es.EY (V/m) @ t=0.72
0.23895003752398902
% es.EZ (V/m) @ t=0.72
-0.5598905372399687
% es.tEX (V/m) @ t=0.72
-0.627435358969463
% es.tEY (V/m) @ t=0.72
0
% es.tEZ (V/m) @ t=0.72
-0.5598905372399718
% es.Ex (V/m) @ t=0.72
-0.6274353589694605
% es.Ey (V/m) @ t=0.72
0.23895003752398902
% es.Ez (V/m) @ t=0.72
-0.5598905372399687
% es.tEx (V/m) @ t=0.72
-0.627435358969463
% es.tEy (V/m) @ t=0.72
0
% es.tEz (V/m) @ t=0.72
-0.5598905372399718
% V (V) @ t=0.72
0.00891911668185595
% es.normE (V/m) @ t=0.74
0.8843172184260744
% es.EX (V/m) @ t=0.74
-0.6330892390651744
% es.EY (V/m) @ t=0.74
0.24110309290582488
% es.EZ (V/m) @ t=0.74
-0.5649358914818672
% es.tEX (V/m) @ t=0.74
-0.6330892390651717
% es.tEY (V/m) @ t=0.74
0
% es.tEZ (V/m) @ t=0.74
-0.5649358914818645
% es.Ex (V/m) @ t=0.74
-0.6330892390651744
% es.Ey (V/m) @ t=0.74
0.24110309290582488
% es.Ez (V/m) @ t=0.74
-0.5649358914818672
% es.tEx (V/m) @ t=0.74
-0.6330892390651717
% es.tEy (V/m) @ t=0.74
0
% es.tEz (V/m) @ t=0.74
-0.5649358914818645
% V (V) @ t=0.74
0.00899949590860061
% es.normE (V/m) @ t=0.76
0.8922147545960095
% es.EX (V/m) @ t=0.76
-0.6387431191608778
% es.EY (V/m) @ t=0.76
0.24325614828768627
% es.EZ (V/m) @ t=0.76
-0.5699812457237727
% es.tEX (V/m) @ t=0.76
-0.6387431191608788
% es.tEY (V/m) @ t=0.76
0
% es.tEZ (V/m) @ t=0.76
-0.5699812457237785
% es.Ex (V/m) @ t=0.76
-0.6387431191608778
% es.Ey (V/m) @ t=0.76
0.24325614828768627
% es.Ez (V/m) @ t=0.76
-0.5699812457237727
% es.tEx (V/m) @ t=0.76
-0.6387431191608788
% es.tEy (V/m) @ t=0.76
0
% es.tEz (V/m) @ t=0.76
-0.5699812457237785
% V (V) @ t=0.76
0.009079875135345273
% es.normE (V/m) @ t=0.78
0.9001122907659884
% es.EX (V/m) @ t=0.78
-0.6443969992565936
% es.EY (V/m) @ t=0.78
0.24540920366952568
% es.EZ (V/m) @ t=0.78
-0.5750265999656685
% es.tEX (V/m) @ t=0.78
-0.6443969992565941
% es.tEY (V/m) @ t=0.78
0
% es.tEZ (V/m) @ t=0.78
-0.5750265999656703
% es.Ex (V/m) @ t=0.78
-0.6443969992565936
% es.Ey (V/m) @ t=0.78
0.24540920366952568
% es.Ez (V/m) @ t=0.78
-0.5750265999656685
% es.tEx (V/m) @ t=0.78
-0.6443969992565941
% es.tEy (V/m) @ t=0.78
0
% es.tEz (V/m) @ t=0.78
-0.5750265999656703
% V (V) @ t=0.78
0.009160254362089934
% es.normE (V/m) @ t=0.8
0.9080098269360238
% es.EX (V/m) @ t=0.8
-0.6500508793523102
% es.EY (V/m) @ t=0.8
0.2475622590513764
% es.EZ (V/m) @ t=0.8
-0.5800719542075723
% es.tEX (V/m) @ t=0.8
-0.6500508793523077
% es.tEY (V/m) @ t=0.8
0
% es.tEZ (V/m) @ t=0.8
-0.5800719542075772
% es.Ex (V/m) @ t=0.8
-0.6500508793523102
% es.Ey (V/m) @ t=0.8
0.2475622590513764
% es.Ez (V/m) @ t=0.8
-0.5800719542075723
% es.tEx (V/m) @ t=0.8
-0.6500508793523077
% es.tEy (V/m) @ t=0.8
0
% es.tEz (V/m) @ t=0.8
-0.5800719542075772
% V (V) @ t=0.8
0.009240633588834595
% es.normE (V/m) @ t=0.82
0.9160098574084921
% es.EX (V/m) @ t=0.82
-0.6557781414068502
% es.EY (V/m) @ t=0.82
0.24974329367869963
% es.EZ (V/m) @ t=0.82
-0.5851827622503625
% es.tEX (V/m) @ t=0.82
-0.6557781414068473
% es.tEY (V/m) @ t=0.82
0
% es.tEZ (V/m) @ t=0.82
-0.5851827622503682
% es.Ex (V/m) @ t=0.82
-0.6557781414068502
% es.Ey (V/m) @ t=0.82
0.24974329367869963
% es.Ez (V/m) @ t=0.82
-0.5851827622503625
% es.tEx (V/m) @ t=0.82
-0.6557781414068473
% es.tEy (V/m) @ t=0.82
0
% es.tEz (V/m) @ t=0.82
-0.5851827622503682
% V (V) @ t=0.82
0.009322054116191034
% es.normE (V/m) @ t=0.84
0.9248407229829257
% es.EX (V/m) @ t=0.84
-0.6621002492803227
% es.EY (V/m) @ t=0.84
0.2521511325158634
% es.EZ (V/m) @ t=0.84
-0.5908241492039958
% es.tEX (V/m) @ t=0.84
-0.6621002492803227
% es.tEY (V/m) @ t=0.84
0
% es.tEZ (V/m) @ t=0.84
-0.5908241492039918
% es.Ex (V/m) @ t=0.84
-0.6621002492803227
% es.Ey (V/m) @ t=0.84
0.2521511325158634
% es.Ez (V/m) @ t=0.84
-0.5908241492039958
% es.tEx (V/m) @ t=0.84
-0.6621002492803227
% es.tEy (V/m) @ t=0.84
0
% es.tEz (V/m) @ t=0.84
-0.5908241492039918
% V (V) @ t=0.84
0.009411915591773123
% es.normE (V/m) @ t=0.86
0.9336715885574031
% es.EX (V/m) @ t=0.86
-0.6684223571537855
% es.EY (V/m) @ t=0.86
0.2545589713530174
% es.EZ (V/m) @ t=0.86
-0.5964655361576265
% es.tEX (V/m) @ t=0.86
-0.6684223571537866
% es.tEY (V/m) @ t=0.86
0
% es.tEZ (V/m) @ t=0.86
-0.5964655361576225
% es.Ex (V/m) @ t=0.86
-0.6684223571537855
% es.Ey (V/m) @ t=0.86
0.2545589713530174
% es.Ez (V/m) @ t=0.86
-0.5964655361576265
% es.tEx (V/m) @ t=0.86
-0.6684223571537866
% es.tEy (V/m) @ t=0.86
0
% es.tEz (V/m) @ t=0.86
-0.5964655361576225
% V (V) @ t=0.86
0.009501777067355211
% es.normE (V/m) @ t=0.88
0.9425024541319489
% es.EX (V/m) @ t=0.88
-0.6747444650272632
% es.EY (V/m) @ t=0.88
0.25696681019017786
% es.EZ (V/m) @ t=0.88
-0.6021069231112586
% es.tEX (V/m) @ t=0.88
-0.674744465027262
% es.tEY (V/m) @ t=0.88
0
% es.tEZ (V/m) @ t=0.88
-0.6021069231112612
% es.Ex (V/m) @ t=0.88
-0.6747444650272632
% es.Ey (V/m) @ t=0.88
0.25696681019017786
% es.Ez (V/m) @ t=0.88
-0.6021069231112586
% es.tEx (V/m) @ t=0.88
-0.674744465027262
% es.tEy (V/m) @ t=0.88
0
% es.tEz (V/m) @ t=0.88
-0.6021069231112612
% V (V) @ t=0.88
0.009591638542937302
% es.normE (V/m) @ t=0.9
0.9513333197065386
% es.EX (V/m) @ t=0.9
-0.6810665729007337
% es.EY (V/m) @ t=0.9
0.25937464902734275
% es.EZ (V/m) @ t=0.9
-0.607748310064884
% es.tEX (V/m) @ t=0.9
-0.6810665729007344
% es.tEY (V/m) @ t=0.9
0
% es.tEZ (V/m) @ t=0.9
-0.6077483100648831
% es.Ex (V/m) @ t=0.9
-0.6810665729007337
% es.Ey (V/m) @ t=0.9
0.25937464902734275
% es.Ez (V/m) @ t=0.9
-0.607748310064884
% es.tEx (V/m) @ t=0.9
-0.6810665729007344
% es.tEy (V/m) @ t=0.9
0
% es.tEz (V/m) @ t=0.9
-0.6077483100648831
% V (V) @ t=0.9
0.009681500018519392
% es.normE (V/m) @ t=0.92
0.9601641852811893
% es.EX (V/m) @ t=0.92
-0.6873886807742104
% es.EY (V/m) @ t=0.92
0.26178248786451364
% es.EZ (V/m) @ t=0.92
-0.6133896970185155
% es.tEX (V/m) @ t=0.92
-0.6873886807742098
% es.tEY (V/m) @ t=0.92
0
% es.tEZ (V/m) @ t=0.92
-0.6133896970185146
% es.Ex (V/m) @ t=0.92
-0.6873886807742104
% es.Ey (V/m) @ t=0.92
0.26178248786451364
% es.Ez (V/m) @ t=0.92
-0.6133896970185155
% es.tEx (V/m) @ t=0.92
-0.6873886807742098
% es.tEy (V/m) @ t=0.92
0
% es.tEz (V/m) @ t=0.92
-0.6133896970185146
% V (V) @ t=0.92
0.009771361494101481
% es.normE (V/m) @ t=0.94
0.9689950508558827
% es.EX (V/m) @ t=0.94
-0.693710788647683
% es.EY (V/m) @ t=0.94
0.2641903267016632
% es.EZ (V/m) @ t=0.94
-0.6190310839721493
% es.tEX (V/m) @ t=0.94
-0.6937107886476817
% es.tEY (V/m) @ t=0.94
0
% es.tEZ (V/m) @ t=0.94
-0.6190310839721525
% es.Ex (V/m) @ t=0.94
-0.693710788647683
% es.Ey (V/m) @ t=0.94
0.2641903267016632
% es.Ez (V/m) @ t=0.94
-0.6190310839721493
% es.tEx (V/m) @ t=0.94
-0.6937107886476817
% es.tEy (V/m) @ t=0.94
0
% es.tEz (V/m) @ t=0.94
-0.6190310839721525
% V (V) @ t=0.94
0.009861222969683569
% es.normE (V/m) @ t=0.96
0.9778259164306162
% es.EX (V/m) @ t=0.96
-0.7000328965211555
% es.EY (V/m) @ t=0.96
0.26659816553881543
% es.EZ (V/m) @ t=0.96
-0.6246724709257694
% es.tEX (V/m) @ t=0.96
-0.7000328965211513
% es.tEY (V/m) @ t=0.96
0
% es.tEZ (V/m) @ t=0.96
-0.6246724709257689
% es.Ex (V/m) @ t=0.96
-0.7000328965211555
% es.Ey (V/m) @ t=0.96
0.26659816553881543
% es.Ez (V/m) @ t=0.96
-0.6246724709257694
% es.tEx (V/m) @ t=0.96
-0.7000328965211513
% es.tEy (V/m) @ t=0.96
0
% es.tEz (V/m) @ t=0.96
-0.6246724709257689
% V (V) @ t=0.96
0.00995108444526566
% es.normE (V/m) @ t=0.98
0.9866567820054114
% es.EX (V/m) @ t=0.98
-0.7063550043946314
% es.EY (V/m) @ t=0.98
0.2690060043759819
% es.EZ (V/m) @ t=0.98
-0.6303138578794014
% es.tEX (V/m) @ t=0.98
-0.7063550043946303
% es.tEY (V/m) @ t=0.98
0
% es.tEZ (V/m) @ t=0.98
-0.6303138578793996
% es.Ex (V/m) @ t=0.98
-0.7063550043946314
% es.Ey (V/m) @ t=0.98
0.2690060043759819
% es.Ez (V/m) @ t=0.98
-0.6303138578794014
% es.tEx (V/m) @ t=0.98
-0.7063550043946303
% es.tEy (V/m) @ t=0.98
0
% es.tEz (V/m) @ t=0.98
-0.6303138578793996
% V (V) @ t=0.98
0.010040945920847748
% es.normE (V/m) @ t=1
0.9954876475802413
% es.EX (V/m) @ t=1
-0.7126771122680913
% es.EY (V/m) @ t=1
0.27141384321314876
% es.EZ (V/m) @ t=1
-0.6359552448330339
% es.tEX (V/m) @ t=1
-0.712677112268095
% es.tEY (V/m) @ t=1
0
% es.tEZ (V/m) @ t=1
-0.6359552448330437
% es.Ex (V/m) @ t=1
-0.7126771122680913
% es.Ey (V/m) @ t=1
0.27141384321314876
% es.Ez (V/m) @ t=1
-0.6359552448330339
% es.tEx (V/m) @ t=1
-0.712677112268095
% es.tEy (V/m) @ t=1
0
% es.tEz (V/m) @ t=1
-0.6359552448330437
% V (V) @ t=1
0.010130807396429837
% es.normE (V/m) @ t=1.02
1.004318513155122
% es.EX (V/m) @ t=1.02
-0.7189992201415671
% es.EY (V/m) @ t=1.02
0.27382168205031254
% es.EZ (V/m) @ t=1.02
-0.641596631786661
% es.tEX (V/m) @ t=1.02
-0.7189992201415638
% es.tEY (V/m) @ t=1.02
0
% es.tEZ (V/m) @ t=1.02
-0.6415966317866673
% es.Ex (V/m) @ t=1.02
-0.7189992201415671
% es.Ey (V/m) @ t=1.02
0.27382168205031254
% es.Ez (V/m) @ t=1.02
-0.641596631786661
% es.tEx (V/m) @ t=1.02
-0.7189992201415638