% Model:              1 neuron.mph
% Version:            COMSOL 6.0.0.405
% Date:               Mar 16 2023, 17:10
% Dimension:          0
% Nodes:              14017
% Expressions:        14017
% Description:        Electric field norm, Electric field, X component, Electric field, Y component, Electric field, Z component, Tangential electric field, X component, Tangential electric field, Y component, Tangential electric field, Z component, Electric field, x component, Electric field, y component, Electric field, z component, Tangential electric field, x component, Tangential electric field, y component, Tangential electric field, z component, Electric potential
% Length unit:        mm
% x
1.0000000000000002
% y
12.2
% z
2
% es.normE (V/m) @ t=0
0.7045859008216591
% es.EX (V/m) @ t=0
0.4894104188220577
% es.EY (V/m) @ t=0
0.07328347400531032
% es.EZ (V/m) @ t=0
-0.48869733538066007
% es.tEX (V/m) @ t=0
0.4894104188220578
% es.tEY (V/m) @ t=0
0
% es.tEZ (V/m) @ t=0
-0.48869733538065274
% es.Ex (V/m) @ t=0
0.4894104188220577
% es.Ey (V/m) @ t=0
0.07328347400531032
% es.Ez (V/m) @ t=0
-0.48869733538066007
% es.tEx (V/m) @ t=0
0.4894104188220578
% es.tEy (V/m) @ t=0
0
% es.tEz (V/m) @ t=0
-0.48869733538065274
% V (V) @ t=0
0.007545196335678819
% es.normE (V/m) @ t=0.02
0.6085644137058234
% es.EX (V/m) @ t=0.02
0.4227132033951896
% es.EY (V/m) @ t=0.02
0.06329635221969918
% es.EZ (V/m) @ t=0.02
-0.42209730234868315
% es.tEX (V/m) @ t=0.02
0.4227132033951895
% es.tEY (V/m) @ t=0.02
0
% es.tEZ (V/m) @ t=0.02
-0.4220973023486758
% es.Ex (V/m) @ t=0.02
0.4227132033951896
% es.Ey (V/m) @ t=0.02
0.06329635221969918
% es.Ez (V/m) @ t=0.02
-0.42209730234868315
% es.tEx (V/m) @ t=0.02
0.4227132033951895
% es.tEy (V/m) @ t=0.02
0
% es.tEz (V/m) @ t=0.02
-0.4220973023486758
% V (V) @ t=0.02
0.006516931214111601
% es.normE (V/m) @ t=0.04
0.6141619553250904
% es.EX (V/m) @ t=0.04
0.4266012920248897
% es.EY (V/m) @ t=0.04
0.06387855679645796
% es.EZ (V/m) @ t=0.04
-0.4259797316092089
% es.tEX (V/m) @ t=0.04
0.4266012920248923
% es.tEY (V/m) @ t=0.04
0
% es.tEZ (V/m) @ t=0.04
-0.4259797316092033
% es.Ex (V/m) @ t=0.04
0.4266012920248897
% es.Ey (V/m) @ t=0.04
0.06387855679645796
% es.Ez (V/m) @ t=0.04
-0.4259797316092089
% es.tEx (V/m) @ t=0.04
0.4266012920248923
% es.tEy (V/m) @ t=0.04
0
% es.tEz (V/m) @ t=0.04
-0.4259797316092033
% V (V) @ t=0.04
0.006576873212349606
% es.normE (V/m) @ t=0.06
0.6198113396847598
% es.EX (V/m) @ t=0.06
0.43052539449240235
% es.EY (V/m) @ t=0.06
0.06446614612229379
% es.EZ (V/m) @ t=0.06
-0.42989811715268256
% es.tEX (V/m) @ t=0.06
0.43052539449240634
% es.tEY (V/m) @ t=0.06
0
% es.tEZ (V/m) @ t=0.06
-0.429898117152677
% es.Ex (V/m) @ t=0.06
0.43052539449240235
% es.Ey (V/m) @ t=0.06
0.06446614612229379
% es.Ez (V/m) @ t=0.06
-0.42989811715268256
% es.tEx (V/m) @ t=0.06
0.43052539449240634
% es.tEy (V/m) @ t=0.06
0
% es.tEz (V/m) @ t=0.06
-0.429898117152677
% V (V) @ t=0.06
0.006637370712660013
% es.normE (V/m) @ t=0.08
0.6255437051507449
% es.EX (V/m) @ t=0.08
0.43450713584332
% es.EY (V/m) @ t=0.08
0.06506236703032661
% es.EZ (V/m) @ t=0.08
-0.4338740581770384
% es.tEX (V/m) @ t=0.08
0.43450713584332257
% es.tEY (V/m) @ t=0.08
0
% es.tEZ (V/m) @ t=0.08
-0.4338740581770293
% es.Ex (V/m) @ t=0.08
0.43450713584332
% es.Ey (V/m) @ t=0.08
0.06506236703032661
% es.Ez (V/m) @ t=0.08
-0.4338740581770384
% es.tEx (V/m) @ t=0.08
0.43450713584332257
% es.tEy (V/m) @ t=0.08
0
% es.tEz (V/m) @ t=0.08
-0.4338740581770293
% V (V) @ t=0.08
0.006698756795978008
% es.normE (V/m) @ t=0.1
0.6313404389498836
% es.EX (V/m) @ t=0.1
0.4385335875989863
% es.EY (V/m) @ t=0.1
0.06566528344511974
% es.EZ (V/m) @ t=0.1
-0.437894644910912
% es.tEX (V/m) @ t=0.1
0.43853358759898864
% es.tEY (V/m) @ t=0.1
0
% es.tEZ (V/m) @ t=0.1
-0.43789464491090646
% es.Ex (V/m) @ t=0.1
0.4385335875989863
% es.Ey (V/m) @ t=0.1
0.06566528344511974
% es.Ez (V/m) @ t=0.1
-0.437894644910912
% es.tEx (V/m) @ t=0.1
0.43853358759898864
% es.tEy (V/m) @ t=0.1
0
% es.tEz (V/m) @ t=0.1
-0.43789464491090646
% V (V) @ t=0.1
0.006760832151946281
% es.normE (V/m) @ t=0.12
0.6371371727490293
% es.EX (V/m) @ t=0.12
0.4425600393546544
% es.EY (V/m) @ t=0.12
0.06626819985991367
% es.EZ (V/m) @ t=0.12
-0.4419152316447914
% es.tEX (V/m) @ t=0.12
0.4425600393546558
% es.tEY (V/m) @ t=0.12
0
% es.tEZ (V/m) @ t=0.12
-0.44191523164478763
% es.Ex (V/m) @ t=0.12
0.4425600393546544
% es.Ey (V/m) @ t=0.12
0.06626819985991367
% es.Ez (V/m) @ t=0.12
-0.4419152316447914
% es.tEx (V/m) @ t=0.12
0.4425600393546558
% es.tEy (V/m) @ t=0.12
0
% es.tEz (V/m) @ t=0.12
-0.44191523164478763
% V (V) @ t=0.12
0.0068229075079145555
% es.normE (V/m) @ t=0.14
0.6429764413442342
% es.EX (V/m) @ t=0.14
0.44661603683047535
% es.EY (V/m) @ t=0.14
0.06687553872792326
% es.EZ (V/m) @ t=0.14
-0.4459653199617011
% es.tEX (V/m) @ t=0.14
0.4466160368304759
% es.tEY (V/m) @ t=0.14
0
% es.tEZ (V/m) @ t=0.14
-0.44596531996169375
% es.Ex (V/m) @ t=0.14
0.44661603683047535
% es.Ey (V/m) @ t=0.14
0.06687553872792326
% es.Ez (V/m) @ t=0.14
-0.4459653199617011
% es.tEx (V/m) @ t=0.14
0.4466160368304759
% es.tEy (V/m) @ t=0.14
0
% es.tEz (V/m) @ t=0.14
-0.44596531996169375
% V (V) @ t=0.14
0.006885438427237753
% es.normE (V/m) @ t=0.16
0.6490851128722611
% es.EX (V/m) @ t=0.16
0.450859168238967
% es.EY (V/m) @ t=0.16
0.06751088811855332
% es.EZ (V/m) @ t=0.16
-0.45020226265965024
% es.tEX (V/m) @ t=0.16
0.45085916823896754
% es.tEY (V/m) @ t=0.16
0
% es.tEZ (V/m) @ t=0.16
-0.45020226265964114
% es.Ex (V/m) @ t=0.16
0.450859168238967
% es.Ey (V/m) @ t=0.16
0.06751088811855332
% es.Ez (V/m) @ t=0.16
-0.45020226265965024
% es.tEx (V/m) @ t=0.16
0.45085916823896754
% es.tEy (V/m) @ t=0.16
0
% es.tEz (V/m) @ t=0.16
-0.45020226265964114
% V (V) @ t=0.16
0.00695085475134161
% es.normE (V/m) @ t=0.18
0.6551937844002995
% es.EX (V/m) @ t=0.18
0.4551022996474575
% es.EY (V/m) @ t=0.18
0.06814623750919263
% es.EZ (V/m) @ t=0.18
-0.4544392053576092
% es.tEX (V/m) @ t=0.18
0.45510229964745963
% es.tEY (V/m) @ t=0.18
0
% es.tEZ (V/m) @ t=0.18
-0.4544392053576072
% es.Ex (V/m) @ t=0.18
0.4551022996474575
% es.Ey (V/m) @ t=0.18
0.06814623750919263
% es.Ez (V/m) @ t=0.18
-0.4544392053576092
% es.tEx (V/m) @ t=0.18
0.45510229964745963
% es.tEy (V/m) @ t=0.18
0
% es.tEz (V/m) @ t=0.18
-0.4544392053576072
% V (V) @ t=0.18
0.007016271075445468
% es.normE (V/m) @ t=0.2
0.6613024559283311
% es.EX (V/m) @ t=0.2
0.4593454310559524
% es.EY (V/m) @ t=0.2
0.0687815868998218
% es.EZ (V/m) @ t=0.2
-0.45867614805555657
% es.tEX (V/m) @ t=0.2
0.4593454310559528
% es.tEY (V/m) @ t=0.2
0
% es.tEZ (V/m) @ t=0.2
-0.45867614805554746
% es.Ex (V/m) @ t=0.2
0.4593454310559524
% es.Ey (V/m) @ t=0.2
0.0687815868998218
% es.Ez (V/m) @ t=0.2
-0.45867614805555657
% es.tEx (V/m) @ t=0.2
0.4593454310559528
% es.tEy (V/m) @ t=0.2
0
% es.tEz (V/m) @ t=0.2
-0.45867614805554746
% V (V) @ t=0.2
0.007081687399549325
% es.normE (V/m) @ t=0.22
0.6674111274563621
% es.EX (V/m) @ t=0.22
0.46358856246444347
% es.EY (V/m) @ t=0.22
0.06941693629046325
% es.EZ (V/m) @ t=0.22
-0.4629130907535084
% es.tEX (V/m) @ t=0.22
0.4635885624644456
% es.tEY (V/m) @ t=0.22
0
% es.tEZ (V/m) @ t=0.22
-0.46291309075350284
% es.Ex (V/m) @ t=0.22
0.46358856246444347
% es.Ey (V/m) @ t=0.22
0.06941693629046325
% es.Ez (V/m) @ t=0.22
-0.4629130907535084
% es.tEx (V/m) @ t=0.22
0.4635885624644456
% es.tEy (V/m) @ t=0.22
0
% es.tEz (V/m) @ t=0.22
-0.46291309075350284
% V (V) @ t=0.22
0.007147103723653182
% es.normE (V/m) @ t=0.24
0.6735197989843986
% es.EX (V/m) @ t=0.24
0.4678316938729351
% es.EY (V/m) @ t=0.24
0.07005228568109195
% es.EZ (V/m) @ t=0.24
-0.46715003345146644
% es.tEX (V/m) @ t=0.24
0.46783169387293655
% es.tEY (V/m) @ t=0.24
0
% es.tEZ (V/m) @ t=0.24
-0.46715003345145734
% es.Ex (V/m) @ t=0.24
0.4678316938729351
% es.Ey (V/m) @ t=0.24
0.07005228568109195
% es.Ez (V/m) @ t=0.24
-0.46715003345146644
% es.tEx (V/m) @ t=0.24
0.46783169387293655
% es.tEy (V/m) @ t=0.24
0
% es.tEz (V/m) @ t=0.24
-0.46715003345145734
% V (V) @ t=0.24
0.007212520047757039
% es.normE (V/m) @ t=0.26
0.67962847051243
% es.EX (V/m) @ t=0.26
0.4720748252814285
% es.EY (V/m) @ t=0.26
0.07068763507172657
% es.EZ (V/m) @ t=0.26
-0.4713869761494138
% es.tEX (V/m) @ t=0.26
0.4720748252814295
% es.tEY (V/m) @ t=0.26
0
% es.tEZ (V/m) @ t=0.26
-0.4713869761494047
% es.Ex (V/m) @ t=0.26
0.4720748252814285
% es.Ey (V/m) @ t=0.26
0.07068763507172657
% es.Ez (V/m) @ t=0.26
-0.4713869761494138
% es.tEx (V/m) @ t=0.26
0.4720748252814295
% es.tEy (V/m) @ t=0.26
0
% es.tEz (V/m) @ t=0.26
-0.4713869761494047
% V (V) @ t=0.26
0.007277936371860895
% es.normE (V/m) @ t=0.28
0.6859359883927048
% es.EX (V/m) @ t=0.28
0.47645618520082567
% es.EY (V/m) @ t=0.28
0.07134343882749314
% es.EZ (V/m) @ t=0.28
-0.47576178801539437
% es.tEX (V/m) @ t=0.28
0.4764561852008311
% es.tEY (V/m) @ t=0.28
0
% es.tEZ (V/m) @ t=0.28
-0.47576178801538527
% es.Ex (V/m) @ t=0.28
0.47645618520082567
% es.Ey (V/m) @ t=0.28
0.07134343882749314
% es.Ez (V/m) @ t=0.28
-0.47576178801539437
% es.tEx (V/m) @ t=0.28
0.4764561852008311
% es.tEy (V/m) @ t=0.28
0
% es.tEz (V/m) @ t=0.28
-0.47576178801538527
% V (V) @ t=0.28
0.0073454924367052365
% es.normE (V/m) @ t=0.3
0.6927479114034324
% es.EX (V/m) @ t=0.3
0.4811881835361175
% es.EY (V/m) @ t=0.3
0.07205112830599131
% es.EZ (V/m) @ t=0.3
-0.4804863267673618
% es.tEX (V/m) @ t=0.3
0.4811881835361185
% es.tEY (V/m) @ t=0.3
0
% es.tEZ (V/m) @ t=0.3
-0.4804863267673527
% es.Ex (V/m) @ t=0.3
0.4811881835361175
% es.Ey (V/m) @ t=0.3
0.07205112830599131
% es.Ez (V/m) @ t=0.3
-0.4804863267673618
% es.tEx (V/m) @ t=0.3
0.4811881835361185
% es.tEy (V/m) @ t=0.3
0
% es.tEz (V/m) @ t=0.3
-0.4804863267673527
% V (V) @ t=0.3
0.007418476291364499
% es.normE (V/m) @ t=0.32
0.6995598344155254
% es.EX (V/m) @ t=0.32
0.48592018187141084
% es.EY (V/m) @ t=0.32
0.0727588177844806
% es.EZ (V/m) @ t=0.32
-0.4852108655193399
% es.tEX (V/m) @ t=0.32
0.4859201818714092
% es.tEY (V/m) @ t=0.32
0
% es.tEZ (V/m) @ t=0.32
-0.48521086551933434
% es.Ex (V/m) @ t=0.32
0.48592018187141084
% es.Ey (V/m) @ t=0.32
0.0727588177844806
% es.Ez (V/m) @ t=0.32
-0.4852108655193399
% es.tEx (V/m) @ t=0.32
0.4859201818714092
% es.tEy (V/m) @ t=0.32
0
% es.tEz (V/m) @ t=0.32
-0.48521086551933434
% V (V) @ t=0.32
0.0074914601460237635
% es.normE (V/m) @ t=0.34
0.7063717574289244
% es.EX (V/m) @ t=0.34
0.49065218020669976
% es.EY (V/m) @ t=0.34
0.07346650726297288
% es.EZ (V/m) @ t=0.34
-0.4899354042713109
% es.tEX (V/m) @ t=0.34
0.49065218020670165
% es.tEY (V/m) @ t=0.34
0
% es.tEZ (V/m) @ t=0.34
-0.4899354042713018
% es.Ex (V/m) @ t=0.34
0.49065218020669976
% es.Ey (V/m) @ t=0.34
0.07346650726297288
% es.Ez (V/m) @ t=0.34
-0.4899354042713109
% es.tEx (V/m) @ t=0.34
0.49065218020670165
% es.tEy (V/m) @ t=0.34
0
% es.tEz (V/m) @ t=0.34
-0.4899354042713018
% V (V) @ t=0.34
0.007564444000683028
% es.normE (V/m) @ t=0.36
0.7131836804435987
% es.EX (V/m) @ t=0.36
0.4953841785419876
% es.EY (V/m) @ t=0.36
0.07417419674146974
% es.EZ (V/m) @ t=0.36
-0.4946599430232783
% es.tEX (V/m) @ t=0.36
0.49538417854199035
% es.tEY (V/m) @ t=0.36
0
% es.tEZ (V/m) @ t=0.36
-0.49465994302327276
% es.Ex (V/m) @ t=0.36
0.4953841785419876
% es.Ey (V/m) @ t=0.36
0.07417419674146974
% es.Ez (V/m) @ t=0.36
-0.4946599430232783
% es.tEx (V/m) @ t=0.36
0.49538417854199035
% es.tEy (V/m) @ t=0.36
0
% es.tEz (V/m) @ t=0.36
-0.49465994302327276
% V (V) @ t=0.36
0.007637427855342293
% es.normE (V/m) @ t=0.38
0.7199956034595201
% es.EX (V/m) @ t=0.38
0.5001161768772785
% es.EY (V/m) @ t=0.38
0.07488188621995864
% es.EZ (V/m) @ t=0.38
-0.4993844817752524
% es.tEX (V/m) @ t=0.38
0.5001161768772813
% es.tEY (V/m) @ t=0.38
0
% es.tEZ (V/m) @ t=0.38
-0.4993844817752433
% es.Ex (V/m) @ t=0.38
0.5001161768772785
% es.Ey (V/m) @ t=0.38
0.07488188621995864
% es.Ez (V/m) @ t=0.38
-0.4993844817752524
% es.tEx (V/m) @ t=0.38
0.5001161768772813
% es.tEy (V/m) @ t=0.38
0
% es.tEz (V/m) @ t=0.38
-0.4993844817752433
% V (V) @ t=0.38
0.007710411710001556
% es.normE (V/m) @ t=0.4
0.726807526476648
% es.EX (V/m) @ t=0.4
0.5048481752125676
% es.EY (V/m) @ t=0.4
0.0755895756984554
% es.EZ (V/m) @ t=0.4
-0.5041090205272252
% es.tEX (V/m) @ t=0.4
0.5048481752125704
% es.tEY (V/m) @ t=0.4
0
% es.tEZ (V/m) @ t=0.4
-0.5041090205272178
% es.Ex (V/m) @ t=0.4
0.5048481752125676
% es.Ey (V/m) @ t=0.4
0.0755895756984554
% es.Ez (V/m) @ t=0.4
-0.5041090205272252
% es.tEx (V/m) @ t=0.4
0.5048481752125704
% es.tEy (V/m) @ t=0.4
0
% es.tEz (V/m) @ t=0.4
-0.5041090205272178
% V (V) @ t=0.4
0.00778339556466082
% es.normE (V/m) @ t=0.42
0.7336194494949431
% es.EX (V/m) @ t=0.42
0.5095801735478586
% es.EY (V/m) @ t=0.42
0.07629726517694976
% es.EZ (V/m) @ t=0.42
-0.5088335592791886
% es.tEX (V/m) @ t=0.42
0.5095801735478613
% es.tEY (V/m) @ t=0.42
0
% es.tEZ (V/m) @ t=0.42
-0.5088335592791777
% es.Ex (V/m) @ t=0.42
0.5095801735478586
% es.Ey (V/m) @ t=0.42
0.07629726517694976
% es.Ez (V/m) @ t=0.42
-0.5088335592791886
% es.tEx (V/m) @ t=0.42
0.5095801735478613
% es.tEy (V/m) @ t=0.42
0
% es.tEz (V/m) @ t=0.42
-0.5088335592791777
% V (V) @ t=0.42
0.007856379419320084
% es.normE (V/m) @ t=0.44
0.740431372514387
% es.EX (V/m) @ t=0.44
0.5143121718831513
% es.EY (V/m) @ t=0.44
0.0770049546554426
% es.EZ (V/m) @ t=0.44
-0.5135580980311667
% es.tEX (V/m) @ t=0.44
0.5143121718831518
% es.tEY (V/m) @ t=0.44
0
% es.tEZ (V/m) @ t=0.44
-0.5135580980311558
% es.Ex (V/m) @ t=0.44
0.5143121718831513
% es.Ey (V/m) @ t=0.44
0.0770049546554426
% es.Ez (V/m) @ t=0.44
-0.5135580980311667
% es.tEx (V/m) @ t=0.44
0.5143121718831518
% es.tEy (V/m) @ t=0.44
0
% es.tEz (V/m) @ t=0.44
-0.5135580980311558
% V (V) @ t=0.44
0.007929363273979348
% es.normE (V/m) @ t=0.46
0.7472432955349364
% es.EX (V/m) @ t=0.46
0.5190441702184362
% es.EY (V/m) @ t=0.46
0.07771264413393789
% es.EZ (V/m) @ t=0.46
-0.5182826367831412
% es.tEX (V/m) @ t=0.46
0.5190441702184372
% es.tEY (V/m) @ t=0.46
0
% es.tEZ (V/m) @ t=0.46
-0.5182826367831304
% es.Ex (V/m) @ t=0.46
0.5190441702184362
% es.Ey (V/m) @ t=0.46
0.07771264413393789
% es.Ez (V/m) @ t=0.46
-0.5182826367831412
% es.tEx (V/m) @ t=0.46
0.5190441702184372
% es.tEy (V/m) @ t=0.46
0
% es.tEz (V/m) @ t=0.46
-0.5182826367831304
% V (V) @ t=0.46
0.008002347128638612
% es.normE (V/m) @ t=0.48
0.7540552185565712
% es.EX (V/m) @ t=0.48
0.5237761685537289
% es.EY (V/m) @ t=0.48
0.07842033361242365
% es.EZ (V/m) @ t=0.48
-0.5230071755351193
% es.tEX (V/m) @ t=0.48
0.523776168553733
% es.tEY (V/m) @ t=0.48
0
% es.tEZ (V/m) @ t=0.48
-0.5230071755351084
% es.Ex (V/m) @ t=0.48
0.5237761685537289
% es.Ey (V/m) @ t=0.48
0.07842033361242365
% es.Ez (V/m) @ t=0.48
-0.5230071755351193
% es.tEx (V/m) @ t=0.48
0.523776168553733
% es.tEy (V/m) @ t=0.48
0
% es.tEz (V/m) @ t=0.48
-0.5230071755351084
% V (V) @ t=0.48
0.008075330983297876
% es.normE (V/m) @ t=0.5
0.7608671415792468
% es.EX (V/m) @ t=0.5
0.5285081668890189
% es.EY (V/m) @ t=0.5
0.07912802309091338
% es.EZ (V/m) @ t=0.5
-0.5277317142870868
% es.tEX (V/m) @ t=0.5
0.5285081668890212
% es.tEY (V/m) @ t=0.5
0
% es.tEZ (V/m) @ t=0.5
-0.5277317142870794
% es.Ex (V/m) @ t=0.5
0.5285081668890189
% es.Ey (V/m) @ t=0.5
0.07912802309091338
% es.Ez (V/m) @ t=0.5
-0.5277317142870868
% es.tEx (V/m) @ t=0.5
0.5285081668890212
% es.tEy (V/m) @ t=0.5
0
% es.tEz (V/m) @ t=0.5
-0.5277317142870794
% V (V) @ t=0.5
0.00814831483795714
% es.normE (V/m) @ t=0.52
0.7676790646029488
% es.EX (V/m) @ t=0.52
0.5332401652243045
% es.EY (V/m) @ t=0.52
0.07983571256940955
% es.EZ (V/m) @ t=0.52
-0.5324562530390615
% es.tEX (V/m) @ t=0.52
0.5332401652243068
% es.tEY (V/m) @ t=0.52
0
% es.tEZ (V/m) @ t=0.52
-0.5324562530390469
% es.Ex (V/m) @ t=0.52
0.5332401652243045
% es.Ey (V/m) @ t=0.52
0.07983571256940955
% es.Ez (V/m) @ t=0.52
-0.5324562530390615
% es.tEx (V/m) @ t=0.52
0.5332401652243068
% es.tEy (V/m) @ t=0.52
0
% es.tEz (V/m) @ t=0.52
-0.5324562530390469
% V (V) @ t=0.52
0.008221298692616405
% es.normE (V/m) @ t=0.54
0.7744909876276411
% es.EX (V/m) @ t=0.54
0.5379721635595939
% es.EY (V/m) @ t=0.54
0.08054340204790258
% es.EZ (V/m) @ t=0.54
-0.5371807917910283
% es.tEX (V/m) @ t=0.54
0.5379721635595982
% es.tEY (V/m) @ t=0.54
0
% es.tEZ (V/m) @ t=0.54
-0.5371807917910139
% es.Ex (V/m) @ t=0.54
0.5379721635595939
% es.Ey (V/m) @ t=0.54
0.08054340204790258
% es.Ez (V/m) @ t=0.54
-0.5371807917910283
% es.tEx (V/m) @ t=0.54
0.5379721635595982
% es.tEy (V/m) @ t=0.54
0
% es.tEz (V/m) @ t=0.54
-0.5371807917910139
% V (V) @ t=0.54
0.008294282547275668
% es.normE (V/m) @ t=0.56
0.7817602002990346
% es.EX (V/m) @ t=0.56
0.5430211789841924
% es.EY (V/m) @ t=0.56
0.08129995399631632
% es.EZ (V/m) @ t=0.56
-0.5422227884641118
% es.tEX (V/m) @ t=0.56
0.543021178984195
% es.tEY (V/m) @ t=0.56
0
% es.tEZ (V/m) @ t=0.56
-0.5422227884640991
% es.Ex (V/m) @ t=0.56
0.5430211789841924
% es.Ey (V/m) @ t=0.56
0.08129995399631632
% es.Ez (V/m) @ t=0.56
-0.5422227884641118
% es.tEx (V/m) @ t=0.56
0.543021178984195
% es.tEy (V/m) @ t=0.56
0
% es.tEz (V/m) @ t=0.56
-0.5422227884640991
% V (V) @ t=0.56
0.008372104198235612
% es.normE (V/m) @ t=0.58
0.7893666564036514
% es.EX (V/m) @ t=0.58
0.548303989185064
% es.EY (V/m) @ t=0.58
0.08209254119521645
% es.EZ (V/m) @ t=0.58
-0.5474989050195347
% es.tEX (V/m) @ t=0.58
0.5483039891850647
% es.tEY (V/m) @ t=0.58
0
% es.tEZ (V/m) @ t=0.58
-0.5474989050195238
% es.Ex (V/m) @ t=0.58
0.548303989185064
% es.Ey (V/m) @ t=0.58
0.08209254119521645
% es.Ez (V/m) @ t=0.58
-0.5474989050195347
% es.tEx (V/m) @ t=0.58
0.5483039891850647
% es.tEy (V/m) @ t=0.58
0
% es.tEz (V/m) @ t=0.58
-0.5474989050195238
% V (V) @ t=0.58
0.008453493642674061
% es.normE (V/m) @ t=0.6
0.7969731125125743
% es.EX (V/m) @ t=0.6
0.5535867993859364
% es.EY (V/m) @ t=0.6
0.0828851283941203
% es.EZ (V/m) @ t=0.6
-0.5527750215749341
% es.tEX (V/m) @ t=0.6
0.5535867993859387
% es.tEY (V/m) @ t=0.6
0
% es.tEZ (V/m) @ t=0.6
-0.5527750215749232
% es.Ex (V/m) @ t=0.6
0.5535867993859364
% es.Ey (V/m) @ t=0.6
0.0828851283941203
% es.Ez (V/m) @ t=0.6
-0.5527750215749341
% es.tEx (V/m) @ t=0.6
0.5535867993859387
% es.tEy (V/m) @ t=0.6
0
% es.tEz (V/m) @ t=0.6
-0.5527750215749232
% V (V) @ t=0.6
0.008534883087112513
% es.normE (V/m) @ t=0.62
0.804579568625709
% es.EX (V/m) @ t=0.62
0.5588696095868105
% es.EY (V/m) @ t=0.62
0.08367771559301157
% es.EZ (V/m) @ t=0.62
-0.5580511381303517
% es.tEX (V/m) @ t=0.62
0.5588696095868146
% es.tEY (V/m) @ t=0.62
0
% es.tEZ (V/m) @ t=0.62
-0.5580511381303408
% es.Ex (V/m) @ t=0.62
0.5588696095868105
% es.Ey (V/m) @ t=0.62
0.08367771559301157
% es.Ez (V/m) @ t=0.62
-0.5580511381303517
% es.tEx (V/m) @ t=0.62
0.5588696095868146
% es.tEy (V/m) @ t=0.62
0
% es.tEz (V/m) @ t=0.62
-0.5580511381303408
% V (V) @ t=0.62
0.008616272531550964
% es.normE (V/m) @ t=0.64
0.8121860247429182
% es.EX (V/m) @ t=0.64
0.5641524197876808
% es.EY (V/m) @ t=0.64
0.08447030279190987
% es.EZ (V/m) @ t=0.64
-0.5633272546857613
% es.tEX (V/m) @ t=0.64
0.5641524197876815
% es.tEY (V/m) @ t=0.64
0
% es.tEZ (V/m) @ t=0.64
-0.563327254685754
% es.Ex (V/m) @ t=0.64
0.5641524197876808
% es.Ey (V/m) @ t=0.64
0.08447030279190987
% es.Ez (V/m) @ t=0.64
-0.5633272546857613
% es.tEx (V/m) @ t=0.64
0.5641524197876815
% es.tEy (V/m) @ t=0.64
0
% es.tEz (V/m) @ t=0.64
-0.563327254685754
% V (V) @ t=0.64
0.008697661975989413
% es.normE (V/m) @ t=0.66
0.8197924808641055
% es.EX (V/m) @ t=0.66
0.5694352299885602
% es.EY (V/m) @ t=0.66
0.08526288999081064
% es.EZ (V/m) @ t=0.66
-0.5686033712411784
% es.tEX (V/m) @ t=0.66
0.5694352299885588
% es.tEY (V/m) @ t=0.66
0
% es.tEZ (V/m) @ t=0.66
-0.5686033712411604
% es.Ex (V/m) @ t=0.66
0.5694352299885602
% es.Ey (V/m) @ t=0.66
0.08526288999081064
% es.Ez (V/m) @ t=0.66
-0.5686033712411784
% es.tEx (V/m) @ t=0.66
0.5694352299885588
% es.tEy (V/m) @ t=0.66
0
% es.tEz (V/m) @ t=0.66
-0.5686033712411604
% V (V) @ t=0.66
0.008779051420427866
% es.normE (V/m) @ t=0.68
0.827398936989133
% es.EX (V/m) @ t=0.68
0.5747180401894247
% es.EY (V/m) @ t=0.68
0.08605547718970988
% es.EZ (V/m) @ t=0.68
-0.5738794877965818
% es.tEX (V/m) @ t=0.68
0.5747180401894252
% es.tEY (V/m) @ t=0.68
0
% es.tEZ (V/m) @ t=0.68
-0.5738794877965745
% es.Ex (V/m) @ t=0.68
0.5747180401894247
% es.Ey (V/m) @ t=0.68
0.08605547718970988
% es.Ez (V/m) @ t=0.68
-0.5738794877965818
% es.tEx (V/m) @ t=0.68
0.5747180401894252
% es.tEy (V/m) @ t=0.68
0
% es.tEz (V/m) @ t=0.68
-0.5738794877965745
% V (V) @ t=0.68
0.008860440864866315
% es.normE (V/m) @ t=0.7
0.8350053931179235
% es.EX (V/m) @ t=0.7
0.5800008503903018
% es.EY (V/m) @ t=0.7
0.0868480643886077
% es.EZ (V/m) @ t=0.7
-0.579155604351991
% es.tEX (V/m) @ t=0.7
0.5800008503903002
% es.tEY (V/m) @ t=0.7
0
% es.tEZ (V/m) @ t=0.7
-0.5791556043519801
% es.Ex (V/m) @ t=0.7
0.5800008503903018
% es.Ey (V/m) @ t=0.7
0.0868480643886077
% es.Ez (V/m) @ t=0.7
-0.579155604351991
% es.tEx (V/m) @ t=0.7
0.5800008503903002
% es.tEy (V/m) @ t=0.7
0
% es.tEz (V/m) @ t=0.7
-0.5791556043519801
% V (V) @ t=0.7
0.008941830309304767
% es.normE (V/m) @ t=0.72
0.8426118492503742
% es.EX (V/m) @ t=0.72
0.5852836605911712
% es.EY (V/m) @ t=0.72
0.08764065158750767
% es.EZ (V/m) @ t=0.72
-0.5844317209074232
% es.tEX (V/m) @ t=0.72
0.5852836605911713
% es.tEY (V/m) @ t=0.72
0
% es.tEZ (V/m) @ t=0.72
-0.5844317209074088
% es.Ex (V/m) @ t=0.72
0.5852836605911712
% es.Ey (V/m) @ t=0.72
0.08764065158750767
% es.Ez (V/m) @ t=0.72
-0.5844317209074232
% es.tEx (V/m) @ t=0.72
0.5852836605911713
% es.tEy (V/m) @ t=0.72
0
% es.tEz (V/m) @ t=0.72
-0.5844317209074088
% V (V) @ t=0.72
0.009023219753743218
% es.normE (V/m) @ t=0.74
0.8502183053863558
% es.EX (V/m) @ t=0.74
0.5905664707920455
% es.EY (V/m) @ t=0.74
0.08843323878641238
% es.EZ (V/m) @ t=0.74
-0.5897078374628149
% es.tEX (V/m) @ t=0.74
0.5905664707920475
% es.tEY (V/m) @ t=0.74
0
% es.tEZ (V/m) @ t=0.74
-0.5897078374628073
% es.Ex (V/m) @ t=0.74
0.5905664707920455
% es.Ey (V/m) @ t=0.74
0.08843323878641238
% es.Ez (V/m) @ t=0.74
-0.5897078374628149
% es.tEx (V/m) @ t=0.74
0.5905664707920475
% es.tEy (V/m) @ t=0.74
0
% es.tEz (V/m) @ t=0.74
-0.5897078374628073
% V (V) @ t=0.74
0.009104609198181667
% es.normE (V/m) @ t=0.76
0.857824761525813
% es.EX (V/m) @ t=0.76
0.5958492809929152
% es.EY (V/m) @ t=0.76
0.08922582598530052
% es.EZ (V/m) @ t=0.76
-0.5949839540182396
% es.tEX (V/m) @ t=0.76
0.595849280992919
% es.tEY (V/m) @ t=0.76
0
% es.tEZ (V/m) @ t=0.76
-0.5949839540182214
% es.Ex (V/m) @ t=0.76
0.5958492809929152
% es.Ey (V/m) @ t=0.76
0.08922582598530052
% es.Ez (V/m) @ t=0.76
-0.5949839540182396
% es.tEx (V/m) @ t=0.76
0.595849280992919
% es.tEy (V/m) @ t=0.76
0
% es.tEz (V/m) @ t=0.76
-0.5949839540182214
% V (V) @ t=0.76
0.009185998642620118
% es.normE (V/m) @ t=0.78
0.8654312176686378
% es.EX (V/m) @ t=0.78
0.6011320911937903
% es.EY (V/m) @ t=0.78
0.09001841318419551
% es.EZ (V/m) @ t=0.78
-0.6002600705736565
% es.tEX (V/m) @ t=0.78
0.6011320911937976
% es.tEY (V/m) @ t=0.78
0
% es.tEZ (V/m) @ t=0.78
-0.6002600705736421
% es.Ex (V/m) @ t=0.78
0.6011320911937903
% es.Ey (V/m) @ t=0.78
0.09001841318419551
% es.Ez (V/m) @ t=0.78
-0.6002600705736565
% es.tEx (V/m) @ t=0.78
0.6011320911937976
% es.tEy (V/m) @ t=0.78
0
% es.tEz (V/m) @ t=0.78
-0.6002600705736421
% V (V) @ t=0.78
0.009267388087058567
% es.normE (V/m) @ t=0.8
0.8730376738147275
% es.EX (V/m) @ t=0.8
0.6064149013946605
% es.EY (V/m) @ t=0.8
0.09081100038310783
% es.EZ (V/m) @ t=0.8
-0.6055361871290592
% es.tEX (V/m) @ t=0.8
0.6064149013946625
% es.tEY (V/m) @ t=0.8
0
% es.tEZ (V/m) @ t=0.8
-0.6055361871290481
% es.Ex (V/m) @ t=0.8
0.6064149013946605
% es.Ey (V/m) @ t=0.8
0.09081100038310783
% es.Ez (V/m) @ t=0.8
-0.6055361871290592
% es.tEx (V/m) @ t=0.8
0.6064149013946625
% es.tEy (V/m) @ t=0.8
0
% es.tEz (V/m) @ t=0.8
-0.6055361871290481
% V (V) @ t=0.8
0.009348777531497019
% es.normE (V/m) @ t=0.82
0.8806441299640237
% es.EX (V/m) @ t=0.82
0.611697711595534
% es.EY (V/m) @ t=0.82
0.09160358758201034
% es.EZ (V/m) @ t=0.82
-0.6108123036844761
% es.tEX (V/m) @ t=0.82
0.6116977115955411
% es.tEY (V/m) @ t=0.82
0
% es.tEZ (V/m) @ t=0.82
-0.6108123036844688
% es.Ex (V/m) @ t=0.82
0.611697711595534
% es.Ey (V/m) @ t=0.82
0.09160358758201034
% es.Ez (V/m) @ t=0.82
-0.6108123036844761
% es.tEx (V/m) @ t=0.82
0.6116977115955411
% es.tEy (V/m) @ t=0.82
0
% es.tEz (V/m) @ t=0.82
-0.6108123036844688
% V (V) @ t=0.82
0.009430166975935472
% es.normE (V/m) @ t=0.84
0.8890394002928003
% es.EX (V/m) @ t=0.84
0.6175293279964633
% es.EY (V/m) @ t=0.84
0.09247635112679076
% es.EZ (V/m) @ t=0.84
-0.6166351297463599
% es.tEX (V/m) @ t=0.84
0.6175293279964671
% es.tEY (V/m) @ t=0.84
0
% es.tEZ (V/m) @ t=0.84
-0.6166351297463417
% es.Ex (V/m) @ t=0.84
0.6175293279964633
% es.Ey (V/m) @ t=0.84
0.09247635112679076
% es.Ez (V/m) @ t=0.84
-0.6166351297463599
% es.tEx (V/m) @ t=0.84
0.6175293279964671
% es.tEy (V/m) @ t=0.84
0
% es.tEz (V/m) @ t=0.84
-0.6166351297463417
% V (V) @ t=0.84
0.009520088607986699
% es.normE (V/m) @ t=0.86
0.8975542753949951
% es.EX (V/m) @ t=0.86
0.6234441577099215
% es.EY (V/m) @ t=0.86
0.09336127149366763
% es.EZ (V/m) @ t=0.86
-0.6225408512074111
% es.tEX (V/m) @ t=0.86
0.6234441577099288
% es.tEY (V/m) @ t=0.86
0
% es.tEZ (V/m) @ t=0.86
-0.6225408512074
% es.Ex (V/m) @ t=0.86
0.6234441577099215
% es.Ey (V/m) @ t=0.86
0.09336127149366763
% es.Ez (V/m) @ t=0.86
-0.6225408512074111
% es.tEx (V/m) @ t=0.86
0.6234441577099288
% es.tEy (V/m) @ t=0.86
0
% es.tEz (V/m) @ t=0.86
-0.6225408512074
% V (V) @ t=0.86
0.009611303941884364
% es.normE (V/m) @ t=0.88
0.9060691504981763
% es.EX (V/m) @ t=0.88
0.629358987423384
% es.EY (V/m) @ t=0.88
0.09424619186052391
% es.EZ (V/m) @ t=0.88
-0.6284465726684807
% es.tEX (V/m) @ t=0.88
0.629358987423382
% es.tEY (V/m) @ t=0.88
0
% es.tEZ (V/m) @ t=0.88
-0.6284465726684734
% es.Ex (V/m) @ t=0.88
0.629358987423384
% es.Ey (V/m) @ t=0.88
0.09424619186052391
% es.Ez (V/m) @ t=0.88
-0.6284465726684807
% es.tEx (V/m) @ t=0.88
0.629358987423382
% es.tEy (V/m) @ t=0.88
0
% es.tEz (V/m) @ t=0.88
-0.6284465726684734
% V (V) @ t=0.88
0.009702519275782027
% es.normE (V/m) @ t=0.9
0.914584025602305
% es.EX (V/m) @ t=0.9
0.6352738171368442
% es.EY (V/m) @ t=0.9
0.0951311122273873
% es.EZ (V/m) @ t=0.9
-0.6343522941295541
% es.tEX (V/m) @ t=0.9
0.6352738171368459
% es.tEY (V/m) @ t=0.9
0
% es.tEZ (V/m) @ t=0.9
-0.6343522941295467
% es.Ex (V/m) @ t=0.9
0.6352738171368442
% es.Ey (V/m) @ t=0.9
0.0951311122273873
% es.Ez (V/m) @ t=0.9
-0.6343522941295541
% es.tEx (V/m) @ t=0.9
0.6352738171368459
% es.tEy (V/m) @ t=0.9
0
% es.tEz (V/m) @ t=0.9
-0.6343522941295467
% V (V) @ t=0.9
0.00979373460967969
% es.normE (V/m) @ t=0.92
0.92309890070734
% es.EX (V/m) @ t=0.92
0.6411886468503039
% es.EY (V/m) @ t=0.92
0.09601603259425162
% es.EZ (V/m) @ t=0.92
-0.6402580155906092
% es.tEX (V/m) @ t=0.92
0.6411886468503067
% es.tEY (V/m) @ t=0.92
0
% es.tEZ (V/m) @ t=0.92
-0.6402580155905984
% es.Ex (V/m) @ t=0.92
0.6411886468503039
% es.Ey (V/m) @ t=0.92
0.09601603259425162
% es.Ez (V/m) @ t=0.92
-0.6402580155906092
% es.tEx (V/m) @ t=0.92
0.6411886468503067
% es.tEy (V/m) @ t=0.92
0
% es.tEz (V/m) @ t=0.92
-0.6402580155905984
% V (V) @ t=0.92
0.009884949943577354
% es.normE (V/m) @ t=0.94
0.9316137758132781
% es.EX (V/m) @ t=0.94
0.6471034765637567
% es.EY (V/m) @ t=0.94
0.0969009529611159
% es.EZ (V/m) @ t=0.94
-0.6461637370516755
% es.tEX (V/m) @ t=0.94
0.64710347656376
% es.tEY (V/m) @ t=0.94
0
% es.tEZ (V/m) @ t=0.94
-0.6461637370516575
% es.Ex (V/m) @ t=0.94
0.6471034765637567
% es.Ey (V/m) @ t=0.94
0.0969009529611159
% es.Ez (V/m) @ t=0.94
-0.6461637370516755
% es.tEx (V/m) @ t=0.94
0.64710347656376
% es.tEy (V/m) @ t=0.94
0
% es.tEz (V/m) @ t=0.94
-0.6461637370516575
% V (V) @ t=0.94
0.00997616527747502
% es.normE (V/m) @ t=0.96
0.9401286509200827
% es.EX (V/m) @ t=0.96
0.6530183062772184
% es.EY (V/m) @ t=0.96
0.09778587332798727
% es.EZ (V/m) @ t=0.96
-0.6520694585127345
% es.tEX (V/m) @ t=0.96
0.6530183062772257
% es.tEY (V/m) @ t=0.96
0
% es.tEZ (V/m) @ t=0.96
-0.6520694585127234
% es.Ex (V/m) @ t=0.96
0.6530183062772184
% es.Ey (V/m) @ t=0.96
0.09778587332798727
% es.Ez (V/m) @ t=0.96
-0.6520694585127345
% es.tEx (V/m) @ t=0.96
0.6530183062772257
% es.tEy (V/m) @ t=0.96
0
% es.tEz (V/m) @ t=0.96
-0.6520694585127234
% V (V) @ t=0.96
0.010067380611372679
% es.normE (V/m) @ t=0.98
0.9486435260277326
% es.EX (V/m) @ t=0.98
0.6589331359906785
% es.EY (V/m) @ t=0.98
0.09867079369484444
% es.EZ (V/m) @ t=0.98
-0.6579751799737934
% es.tEX (V/m) @ t=0.98
0.658933135990678
% es.tEY (V/m) @ t=0.98
0
% es.tEZ (V/m) @ t=0.98
-0.6579751799737896
% es.Ex (V/m) @ t=0.98
0.6589331359906785
% es.Ey (V/m) @ t=0.98
0.09867079369484444
% es.Ez (V/m) @ t=0.98
-0.6579751799737934
% es.tEx (V/m) @ t=0.98
0.658933135990678
% es.tEy (V/m) @ t=0.98
0
% es.tEz (V/m) @ t=0.98
-0.6579751799737896
% V (V) @ t=0.98
0.010158595945270344
% es.normE (V/m) @ t=1
0.9571584011362089
% es.EX (V/m) @ t=1
0.6648479657041348
% es.EY (V/m) @ t=1
0.09955571406171243
% es.EZ (V/m) @ t=1
-0.6638809014348552
% es.tEX (V/m) @ t=1
0.6648479657041397
% es.tEY (V/m) @ t=1
0
% es.tEZ (V/m) @ t=1
-0.6638809014348479
% es.Ex (V/m) @ t=1
0.6648479657041348
% es.Ey (V/m) @ t=1
0.09955571406171243
% es.Ez (V/m) @ t=1
-0.6638809014348552
% es.tEx (V/m) @ t=1
0.6648479657041397
% es.tEy (V/m) @ t=1
0
% es.tEz (V/m) @ t=1
-0.6638809014348479
% V (V) @ t=1
0.010249811279168006
% es.normE (V/m) @ t=1.02
0.9656732762454933
% es.EX (V/m) @ t=1.02
0.6707627954175994
% es.EY (V/m) @ t=1.02
0.10044063442858647
% es.EZ (V/m) @ t=1.02
-0.6697866228959177
% es.tEX (V/m) @ t=1.02
0.670762795417597
% es.tEY (V/m) @ t=1.02
0
% es.tEZ (V/m) @ t=1.02
-0.6697866228959066
% es.Ex (V/m) @ t=1.02
0.6707627954175994
% es.Ey (V/m) @ t=1.02
0.10044063442858647
% es.Ez (V/m) @ t=1.02
-0.6697866228959177
% es.tEx (V/m) @ t=1.02
0.670762795417597
% es.tEy (V/m) @ t=1.02
0
% es.tEz (V/m) @ t=1.02
-0.6697866228959066
% V (V) @ t=1.02
0.010341026613065673
% es.normE (V/m) @ t=1.04
0.9741881513555531
% es.EX (V/m) @ t=1.04
0.6766776251310544