% Model:              1 neuron.mph
% Version:            COMSOL 6.0.0.405
% Date:               Mar 16 2023, 17:05
% Dimension:          0
% Nodes:              14017
% Expressions:        14017
% Description:        Electric field norm, Electric field, X component, Electric field, Y component, Electric field, Z component, Tangential electric field, X component, Tangential electric field, Y component, Tangential electric field, Z component, Electric field, x component, Electric field, y component, Electric field, z component, Tangential electric field, x component, Tangential electric field, y component, Tangential electric field, z component, Electric potential
% Length unit:        mm
% x
1
% y
12.2
% z
1.33
% es.normE (V/m) @ t=0
1.456777277388945
% es.EX (V/m) @ t=0
1.3462531796321304
% es.EY (V/m) @ t=0
0.08476830981785333
% es.EZ (V/m) @ t=0
0.5442390453417101
% es.tEX (V/m) @ t=0
1.3462531796321295
% es.tEY (V/m) @ t=0
0
% es.tEZ (V/m) @ t=0
0.5442390453417092
% es.Ex (V/m) @ t=0
1.3462531796321304
% es.Ey (V/m) @ t=0
0.08476830981785333
% es.Ez (V/m) @ t=0
0.5442390453417101
% es.tEx (V/m) @ t=0
1.3462531796321295
% es.tEy (V/m) @ t=0
0
% es.tEz (V/m) @ t=0
0.5442390453417092
% V (V) @ t=0
0.007266642292499906
% es.normE (V/m) @ t=0.02
1.2582456221551155
% es.EX (V/m) @ t=0.02
1.1627839035373984
% es.EY (V/m) @ t=0.02
0.07321596614733589
% es.EZ (V/m) @ t=0.02
0.4700693836485246
% es.tEX (V/m) @ t=0.02
1.1627839035373988
% es.tEY (V/m) @ t=0.02
0
% es.tEZ (V/m) @ t=0.02
0.4700693836485246
% es.Ex (V/m) @ t=0.02
1.1627839035373984
% es.Ey (V/m) @ t=0.02
0.07321596614733589
% es.Ez (V/m) @ t=0.02
0.4700693836485246
% es.tEx (V/m) @ t=0.02
1.1627839035373988
% es.tEy (V/m) @ t=0.02
0
% es.tEz (V/m) @ t=0.02
0.4700693836485246
% V (V) @ t=0.02
0.006276334006113848
% es.normE (V/m) @ t=0.04
1.2698183551621138
% es.EX (V/m) @ t=0.04
1.1734786254732859
% es.EY (V/m) @ t=0.04
0.07388937244842159
% es.EZ (V/m) @ t=0.04
0.4743928546931506
% es.tEX (V/m) @ t=0.04
1.1734786254732859
% es.tEY (V/m) @ t=0.04
0
% es.tEZ (V/m) @ t=0.04
0.4743928546931464
% es.Ex (V/m) @ t=0.04
1.1734786254732859
% es.Ey (V/m) @ t=0.04
0.07388937244842159
% es.Ez (V/m) @ t=0.04
0.4743928546931506
% es.tEx (V/m) @ t=0.04
1.1734786254732859
% es.tEy (V/m) @ t=0.04
0
% es.tEz (V/m) @ t=0.04
0.4743928546931464
% V (V) @ t=0.04
0.0063340605765427336
% es.normE (V/m) @ t=0.06
1.2814939257070597
% es.EX (V/m) @ t=0.06
1.1842683830962755
% es.EY (V/m) @ t=0.06
0.07456876190291495
% es.EZ (V/m) @ t=0.06
0.4787547443692466
% es.tEX (V/m) @ t=0.06
1.1842683830962777
% es.tEY (V/m) @ t=0.06
0
% es.tEZ (V/m) @ t=0.06
0.4787547443692439
% es.Ex (V/m) @ t=0.06
1.1842683830962755
% es.Ey (V/m) @ t=0.06
0.07456876190291495
% es.Ez (V/m) @ t=0.06
0.4787547443692466
% es.tEx (V/m) @ t=0.06
1.1842683830962777
% es.tEy (V/m) @ t=0.06
0
% es.tEz (V/m) @ t=0.06
0.4787547443692439
% V (V) @ t=0.06
0.006392300186245211
% es.normE (V/m) @ t=0.08
1.2933512200637391
% es.EX (V/m) @ t=0.08
1.1952260778384813
% es.EY (V/m) @ t=0.08
0.07525872425118746
% es.EZ (V/m) @ t=0.08
0.483184523597332
% es.tEX (V/m) @ t=0.08
1.1952260778384813
% es.tEY (V/m) @ t=0.08
0
% es.tEZ (V/m) @ t=0.08
0.483184523597334
% es.Ex (V/m) @ t=0.08
1.1952260778384813
% es.Ey (V/m) @ t=0.08
0.07525872425118746
% es.Ez (V/m) @ t=0.08
0.483184523597332
% es.tEx (V/m) @ t=0.08
1.1952260778384813
% es.tEy (V/m) @ t=0.08
0
% es.tEz (V/m) @ t=0.08
0.483184523597334
% V (V) @ t=0.08
0.006451446373828242
% es.normE (V/m) @ t=0.1
1.3053275794460615
% es.EX (V/m) @ t=0.1
1.2062938045969398
% es.EY (V/m) @ t=0.1
0.07595561393525635
% es.EZ (V/m) @ t=0.1
0.48765878390453654
% es.tEX (V/m) @ t=0.1
1.2062938045969416
% es.tEY (V/m) @ t=0.1
0
% es.tEZ (V/m) @ t=0.1
0.48765878390453565
% es.Ex (V/m) @ t=0.1
1.2062938045969398
% es.Ey (V/m) @ t=0.1
0.07595561393525635
% es.Ez (V/m) @ t=0.1
0.48765878390453654
% es.tEx (V/m) @ t=0.1
1.2062938045969416
% es.tEy (V/m) @ t=0.1
0
% es.tEz (V/m) @ t=0.1
0.48765878390453565
% V (V) @ t=0.1
0.006511186549164309
% es.normE (V/m) @ t=0.12
1.31730393882838
% es.EX (V/m) @ t=0.12
1.2173615313553952
% es.EY (V/m) @ t=0.12
0.07665250361932824
% es.EZ (V/m) @ t=0.12
0.49213304421174
% es.tEX (V/m) @ t=0.12
1.217361531355393
% es.tEY (V/m) @ t=0.12
0
% es.tEZ (V/m) @ t=0.12
0.4921330442117391
% es.Ex (V/m) @ t=0.12
1.2173615313553952
% es.Ey (V/m) @ t=0.12
0.07665250361932824
% es.Ez (V/m) @ t=0.12
0.49213304421174
% es.tEx (V/m) @ t=0.12
1.217361531355393
% es.tEy (V/m) @ t=0.12
0
% es.tEz (V/m) @ t=0.12
0.4921330442117391
% V (V) @ t=0.12
0.006570926724500374
% es.normE (V/m) @ t=0.14
1.3294191560815176
% es.EX (V/m) @ t=0.14
1.2285575809714793
% es.EY (V/m) @ t=0.14
0.0773574733843645
% es.EZ (V/m) @ t=0.14
0.496659180613535
% es.tEX (V/m) @ t=0.14
1.2285575809714802
% es.tEY (V/m) @ t=0.14
0
% es.tEZ (V/m) @ t=0.14
0.4966591806135354
% es.Ex (V/m) @ t=0.14
1.2285575809714793
% es.Ey (V/m) @ t=0.14
0.0773574733843645
% es.Ez (V/m) @ t=0.14
0.496659180613535
% es.tEx (V/m) @ t=0.14
1.2285575809714802
% es.tEy (V/m) @ t=0.14
0
% es.tEz (V/m) @ t=0.14
0.4966591806135354
% V (V) @ t=0.14
0.006631359540174753
% es.normE (V/m) @ t=0.16
1.3420317935591786
% es.EX (V/m) @ t=0.16
1.2402133120177723
% es.EY (V/m) @ t=0.16
0.07809138782255726
% es.EZ (V/m) @ t=0.16
0.5013711488912249
% es.tEX (V/m) @ t=0.16
1.2402133120177714
% es.tEY (V/m) @ t=0.16
0
% es.tEZ (V/m) @ t=0.16
0.5013711488912271
% es.Ex (V/m) @ t=0.16
1.2402133120177723
% es.Ey (V/m) @ t=0.16
0.07809138782255726
% es.Ez (V/m) @ t=0.16
0.5013711488912249
% es.tEx (V/m) @ t=0.16
1.2402133120177714
% es.tEy (V/m) @ t=0.16
0
% es.tEz (V/m) @ t=0.16
0.5013711488912271
% V (V) @ t=0.16
0.006694273549825257
% es.normE (V/m) @ t=0.18
1.3546444310368373
% es.EX (V/m) @ t=0.18
1.2518690430640635
% es.EY (V/m) @ t=0.18
0.07882530226075785
% es.EZ (V/m) @ t=0.18
0.506083117168914
% es.tEX (V/m) @ t=0.18
1.2518690430640653
% es.tEY (V/m) @ t=0.18
0
% es.tEZ (V/m) @ t=0.18
0.5060831171689135
% es.Ex (V/m) @ t=0.18
1.2518690430640635
% es.Ey (V/m) @ t=0.18
0.07882530226075785
% es.Ez (V/m) @ t=0.18
0.506083117168914
% es.tEx (V/m) @ t=0.18
1.2518690430640653
% es.tEy (V/m) @ t=0.18
0
% es.tEz (V/m) @ t=0.18
0.5060831171689135
% V (V) @ t=0.18
0.00675718755947576
% es.normE (V/m) @ t=0.2
1.367257068514496
% es.EX (V/m) @ t=0.2
1.2635247741103566
% es.EY (V/m) @ t=0.2
0.07955921669895144
% es.EZ (V/m) @ t=0.2
0.5107950854465977
% es.tEX (V/m) @ t=0.2
1.2635247741103557
% es.tEY (V/m) @ t=0.2
0
% es.tEZ (V/m) @ t=0.2
0.5107950854466003
% es.Ex (V/m) @ t=0.2
1.2635247741103566
% es.Ey (V/m) @ t=0.2
0.07955921669895144
% es.Ez (V/m) @ t=0.2
0.5107950854465977
% es.tEx (V/m) @ t=0.2
1.2635247741103557
% es.tEy (V/m) @ t=0.2
0
% es.tEz (V/m) @ t=0.2
0.5107950854466003
% V (V) @ t=0.2
0.006820101569126265
% es.normE (V/m) @ t=0.22
1.3798697059921579
% es.EX (V/m) @ t=0.22
1.275180505156647
% es.EY (V/m) @ t=0.22
0.0802931311371387
% es.EZ (V/m) @ t=0.22
0.5155070537242987
% es.tEX (V/m) @ t=0.22
1.2751805051566443
% es.tEY (V/m) @ t=0.22
0
% es.tEZ (V/m) @ t=0.22
0.5155070537243001
% es.Ex (V/m) @ t=0.22
1.275180505156647
% es.Ey (V/m) @ t=0.22
0.0802931311371387
% es.Ez (V/m) @ t=0.22
0.5155070537242987
% es.tEx (V/m) @ t=0.22
1.2751805051566443
% es.tEy (V/m) @ t=0.22
0
% es.tEz (V/m) @ t=0.22
0.5155070537243001
% V (V) @ t=0.22
0.006883015578776768
% es.normE (V/m) @ t=0.24
1.3924823434698124
% es.EX (V/m) @ t=0.24
1.2868362362029373
% es.EY (V/m) @ t=0.24
0.08102704557532792
% es.EZ (V/m) @ t=0.24
0.5202190220019793
% es.tEX (V/m) @ t=0.24
1.2868362362029373
% es.tEY (V/m) @ t=0.24
0
% es.tEZ (V/m) @ t=0.24
0.5202190220019807
% es.Ex (V/m) @ t=0.24
1.2868362362029373
% es.Ey (V/m) @ t=0.24
0.08102704557532792
% es.Ez (V/m) @ t=0.24
0.5202190220019793
% es.tEx (V/m) @ t=0.24
1.2868362362029373
% es.tEy (V/m) @ t=0.24
0
% es.tEz (V/m) @ t=0.24
0.5202190220019807
% V (V) @ t=0.24
0.006945929588427271
% es.normE (V/m) @ t=0.26
1.4050949809474766
% es.EX (V/m) @ t=0.26
1.2984919672492286
% es.EY (V/m) @ t=0.26
0.08176096001353123
% es.EZ (V/m) @ t=0.26
0.5249309902796813
% es.tEX (V/m) @ t=0.26
1.2984919672492277
% es.tEY (V/m) @ t=0.26
0
% es.tEZ (V/m) @ t=0.26
0.5249309902796786
% es.Ex (V/m) @ t=0.26
1.2984919672492286
% es.Ey (V/m) @ t=0.26
0.08176096001353123
% es.Ez (V/m) @ t=0.26
0.5249309902796813
% es.tEx (V/m) @ t=0.26
1.2984919672492277
% es.tEy (V/m) @ t=0.26
0
% es.tEz (V/m) @ t=0.26
0.5249309902796786
% V (V) @ t=0.26
0.0070088435980777755
% es.normE (V/m) @ t=0.28
1.4183473040006354
% es.EX (V/m) @ t=0.28
1.31073893022882
% es.EY (V/m) @ t=0.28
0.08253188524994282
% es.EZ (V/m) @ t=0.28
0.5298818027465031
% es.tEX (V/m) @ t=0.28
1.31073893022882
% es.tEY (V/m) @ t=0.28
0
% es.tEZ (V/m) @ t=0.28
0.5298818027465044
% es.Ex (V/m) @ t=0.28
1.31073893022882
% es.Ey (V/m) @ t=0.28
0.08253188524994282
% es.Ez (V/m) @ t=0.28
0.5298818027465031
% es.tEx (V/m) @ t=0.28
1.31073893022882
% es.tEy (V/m) @ t=0.28
0
% es.tEz (V/m) @ t=0.28
0.5298818027465044
% V (V) @ t=0.28
0.007074965453522137
% es.normE (V/m) @ t=0.3
1.432392964775314
% es.EX (V/m) @ t=0.3
1.323719138747574
% es.EY (V/m) @ t=0.3
0.08334871125925392
% es.EZ (V/m) @ t=0.3
0.5351288296536938
% es.tEX (V/m) @ t=0.3
1.323719138747574
% es.tEY (V/m) @ t=0.3
0
% es.tEZ (V/m) @ t=0.3
0.5351288296536949
% es.Ex (V/m) @ t=0.3
1.323719138747574
% es.Ey (V/m) @ t=0.3
0.08334871125925392
% es.Ez (V/m) @ t=0.3
0.5351288296536938
% es.tEx (V/m) @ t=0.3
1.323719138747574
% es.tEy (V/m) @ t=0.3
0
% es.tEz (V/m) @ t=0.3
0.5351288296536949
% V (V) @ t=0.3
0.007145065677667867
% es.normE (V/m) @ t=0.32
1.4464386255503312
% es.EX (V/m) @ t=0.32
1.3366993472663342
% es.EY (V/m) @ t=0.32
0.08416553726856596
% es.EZ (V/m) @ t=0.32
0.5403758565608812
% es.tEX (V/m) @ t=0.32
1.3366993472663333
% es.tEY (V/m) @ t=0.32
0
% es.tEZ (V/m) @ t=0.32
0.5403758565608832
% es.Ex (V/m) @ t=0.32
1.3366993472663342
% es.Ey (V/m) @ t=0.32
0.08416553726856596
% es.Ez (V/m) @ t=0.32
0.5403758565608812
% es.tEx (V/m) @ t=0.32
1.3366993472663333
% es.tEy (V/m) @ t=0.32
0
% es.tEz (V/m) @ t=0.32
0.5403758565608832
% V (V) @ t=0.32
0.007215165901813597
% es.normE (V/m) @ t=0.34
1.4604842863256673
% es.EX (V/m) @ t=0.34
1.3496795557850874
% es.EY (V/m) @ t=0.34
0.0849823632778629
% es.EZ (V/m) @ t=0.34
0.5456228834680701
% es.tEX (V/m) @ t=0.34
1.3496795557850891
% es.tEY (V/m) @ t=0.34
0
% es.tEZ (V/m) @ t=0.34
0.5456228834680701
% es.Ex (V/m) @ t=0.34
1.3496795557850874
% es.Ey (V/m) @ t=0.34
0.0849823632778629
% es.Ez (V/m) @ t=0.34
0.5456228834680701
% es.tEx (V/m) @ t=0.34
1.3496795557850891
% es.tEy (V/m) @ t=0.34
0
% es.tEz (V/m) @ t=0.34
0.5456228834680701
% V (V) @ t=0.34
0.007285266125959329
% es.normE (V/m) @ t=0.36
1.474529947101317
% es.EX (V/m) @ t=0.36
1.3626597643038378
% es.EY (V/m) @ t=0.36
0.08579918928716335
% es.EZ (V/m) @ t=0.36
0.5508699103752588
% es.tEX (V/m) @ t=0.36
1.362659764303836
% es.tEY (V/m) @ t=0.36
0
% es.tEZ (V/m) @ t=0.36
0.550869910375257
% es.Ex (V/m) @ t=0.36
1.3626597643038378
% es.Ey (V/m) @ t=0.36
0.08579918928716335
% es.Ez (V/m) @ t=0.36
0.5508699103752588
% es.tEx (V/m) @ t=0.36
1.362659764303836
% es.tEy (V/m) @ t=0.36
0
% es.tEz (V/m) @ t=0.36
0.550869910375257
% V (V) @ t=0.36
0.007355366350105057
% es.normE (V/m) @ t=0.38
1.4885756078772778
% es.EX (V/m) @ t=0.38
1.3756399728225928
% es.EY (V/m) @ t=0.38
0.08661601529646645
% es.EZ (V/m) @ t=0.38
0.5561169372824488
% es.tEX (V/m) @ t=0.38
1.3756399728225928
% es.tEY (V/m) @ t=0.38
0
% es.tEZ (V/m) @ t=0.38
0.5561169372824497
% es.Ex (V/m) @ t=0.38
1.3756399728225928
% es.Ey (V/m) @ t=0.38
0.08661601529646645
% es.Ez (V/m) @ t=0.38
0.5561169372824488
% es.tEx (V/m) @ t=0.38
1.3756399728225928
% es.tEy (V/m) @ t=0.38
0
% es.tEz (V/m) @ t=0.38
0.5561169372824497
% V (V) @ t=0.38
0.007425466574250789
% es.normE (V/m) @ t=0.4
1.5026212686535405
% es.EX (V/m) @ t=0.4
1.388620181341353
% es.EY (V/m) @ t=0.4
0.08743284130577844
% es.EZ (V/m) @ t=0.4
0.5613639641896357
% es.tEX (V/m) @ t=0.4
1.3886201813413521
% es.tEY (V/m) @ t=0.4
0
% es.tEZ (V/m) @ t=0.4
0.5613639641896366
% es.Ex (V/m) @ t=0.4
1.388620181341353
% es.Ey (V/m) @ t=0.4
0.08743284130577844
% es.Ez (V/m) @ t=0.4
0.5613639641896357
% es.tEx (V/m) @ t=0.4
1.3886201813413521
% es.tEy (V/m) @ t=0.4
0
% es.tEz (V/m) @ t=0.4
0.5613639641896366
% V (V) @ t=0.4
0.007495566798396519
% es.normE (V/m) @ t=0.42
1.5166669294300892
% es.EX (V/m) @ t=0.42
1.4016003898601097
% es.EY (V/m) @ t=0.42
0.0882496673150861
% es.EZ (V/m) @ t=0.42
0.5666109910968204
% es.tEX (V/m) @ t=0.42
1.4016003898601088
% es.tEY (V/m) @ t=0.42
0
% es.tEZ (V/m) @ t=0.42
0.5666109910968187
% es.Ex (V/m) @ t=0.42
1.4016003898601097
% es.Ey (V/m) @ t=0.42
0.0882496673150861
% es.Ez (V/m) @ t=0.42
0.5666109910968204
% es.tEx (V/m) @ t=0.42
1.4016003898601088
% es.tEy (V/m) @ t=0.42
0
% es.tEz (V/m) @ t=0.42
0.5666109910968187
% V (V) @ t=0.42
0.007565667022542249
% es.normE (V/m) @ t=0.44
1.5307125902069092
% es.EX (V/m) @ t=0.44
1.414580598378854
% es.EY (V/m) @ t=0.44
0.08906649332439187
% es.EZ (V/m) @ t=0.44
0.5718580180040083
% es.tEX (V/m) @ t=0.44
1.414580598378854
% es.tEY (V/m) @ t=0.44
0
% es.tEZ (V/m) @ t=0.44
0.5718580180040074
% es.Ex (V/m) @ t=0.44
1.414580598378854
% es.Ey (V/m) @ t=0.44
0.08906649332439187
% es.Ez (V/m) @ t=0.44
0.5718580180040083
% es.tEx (V/m) @ t=0.44
1.414580598378854
% es.tEy (V/m) @ t=0.44
0
% es.tEz (V/m) @ t=0.44
0.5718580180040074
% V (V) @ t=0.44
0.007635767246687977
% es.normE (V/m) @ t=0.46
1.5447582509840196
% es.EX (V/m) @ t=0.46
1.427560806897616
% es.EY (V/m) @ t=0.46
0.08988331933369686
% es.EZ (V/m) @ t=0.46
0.5771050449111965
% es.tEX (V/m) @ t=0.46
1.4275608068976178
% es.tEY (V/m) @ t=0.46
0
% es.tEZ (V/m) @ t=0.46
0.5771050449111965
% es.Ex (V/m) @ t=0.46
1.427560806897616
% es.Ey (V/m) @ t=0.46
0.08988331933369686
% es.Ez (V/m) @ t=0.46
0.5771050449111965
% es.tEx (V/m) @ t=0.46
1.4275608068976178
% es.tEy (V/m) @ t=0.46
0
% es.tEz (V/m) @ t=0.46
0.5771050449111965
% V (V) @ t=0.46
0.007705867470833707
% es.normE (V/m) @ t=0.48
1.5588039117613905
% es.EX (V/m) @ t=0.48
1.440541015416371
% es.EY (V/m) @ t=0.48
0.0907001453429998
% es.EZ (V/m) @ t=0.48
0.5823520718183866
% es.tEX (V/m) @ t=0.48
1.4405410154163691
% es.tEY (V/m) @ t=0.48
0
% es.tEZ (V/m) @ t=0.48
0.5823520718183866
% es.Ex (V/m) @ t=0.48
1.440541015416371
% es.Ey (V/m) @ t=0.48
0.0907001453429998
% es.Ez (V/m) @ t=0.48
0.5823520718183866
% es.tEx (V/m) @ t=0.48
1.4405410154163691
% es.tEy (V/m) @ t=0.48
0
% es.tEz (V/m) @ t=0.48
0.5823520718183866
% V (V) @ t=0.48
0.007775967694979438
% es.normE (V/m) @ t=0.5
1.5728495725390252
% es.EX (V/m) @ t=0.5
1.453521223935129
% es.EY (V/m) @ t=0.5
0.09151697135230386
% es.EZ (V/m) @ t=0.5
0.587599098725577
% es.tEX (V/m) @ t=0.5
1.4535212239351303
% es.tEY (V/m) @ t=0.5
0
% es.tEZ (V/m) @ t=0.5
0.587599098725577
% es.Ex (V/m) @ t=0.5
1.453521223935129
% es.Ey (V/m) @ t=0.5
0.09151697135230386
% es.Ez (V/m) @ t=0.5
0.587599098725577
% es.tEx (V/m) @ t=0.5
1.4535212239351303
% es.tEy (V/m) @ t=0.5
0
% es.tEz (V/m) @ t=0.5
0.587599098725577
% V (V) @ t=0.5
0.007846067919125167
% es.normE (V/m) @ t=0.52
1.5868952333168946
% es.EX (V/m) @ t=0.52
1.4665014324538719
% es.EY (V/m) @ t=0.52
0.09233379736161773
% es.EZ (V/m) @ t=0.52
0.5928461256327573
% es.tEX (V/m) @ t=0.52
1.466501432453871
% es.tEY (V/m) @ t=0.52
0
% es.tEZ (V/m) @ t=0.52
0.5928461256327573
% es.Ex (V/m) @ t=0.52
1.4665014324538719
% es.Ey (V/m) @ t=0.52
0.09233379736161773
% es.Ez (V/m) @ t=0.52
0.5928461256327573
% es.tEx (V/m) @ t=0.52
1.466501432453871
% es.tEy (V/m) @ t=0.52
0
% es.tEz (V/m) @ t=0.52
0.5928461256327573
% V (V) @ t=0.52
0.007916168143270898
% es.normE (V/m) @ t=0.54
1.6009408940950296
% es.EX (V/m) @ t=0.54
1.4794816409726286
% es.EY (V/m) @ t=0.54
0.09315062337091906
% es.EZ (V/m) @ t=0.54
0.5980931525399567
% es.tEX (V/m) @ t=0.54
1.4794816409726304
% es.tEY (V/m) @ t=0.54
0
% es.tEZ (V/m) @ t=0.54
0.5980931525399584
% es.Ex (V/m) @ t=0.54
1.4794816409726286
% es.Ey (V/m) @ t=0.54
0.09315062337091906
% es.Ez (V/m) @ t=0.54
0.5980931525399567
% es.tEx (V/m) @ t=0.54
1.4794816409726304
% es.tEy (V/m) @ t=0.54
0
% es.tEz (V/m) @ t=0.54
0.5980931525399584
% V (V) @ t=0.54
0.007986268367416628
% es.normE (V/m) @ t=0.56
1.6164421422899178
% es.EX (V/m) @ t=0.56
1.493806510496376
% es.EY (V/m) @ t=0.56
0.09405347568389538
% es.EZ (V/m) @ t=0.56
0.603884830430621
% es.tEX (V/m) @ t=0.56
1.4938065104963743
% es.tEY (V/m) @ t=0.56
0
% es.tEZ (V/m) @ t=0.56
0.6038848304306219
% es.Ex (V/m) @ t=0.56
1.493806510496376
% es.Ey (V/m) @ t=0.56
0.09405347568389538
% es.Ez (V/m) @ t=0.56
0.603884830430621
% es.tEx (V/m) @ t=0.56
1.4938065104963743
% es.tEy (V/m) @ t=0.56
0
% es.tEz (V/m) @ t=0.56
0.6038848304306219
% V (V) @ t=0.56
0.00806352283299878
% es.normE (V/m) @ t=0.58
1.6321002897419123
% es.EX (V/m) @ t=0.58
1.508276322404515
% es.EY (V/m) @ t=0.58
0.09496560086010086
% es.EZ (V/m) @ t=0.58
0.6097352168075816
% es.tEX (V/m) @ t=0.58
1.508276322404515
% es.tEY (V/m) @ t=0.58
0
% es.tEZ (V/m) @ t=0.58
0.6097352168075831
% es.Ex (V/m) @ t=0.58
1.508276322404515
% es.Ey (V/m) @ t=0.58
0.09496560086010086
% es.Ez (V/m) @ t=0.58
0.6097352168075816
% es.tEx (V/m) @ t=0.58
1.508276322404515
% es.tEy (V/m) @ t=0.58
0
% es.tEz (V/m) @ t=0.58
0.6097352168075831
% V (V) @ t=0.58
0.008141548461579346
% es.normE (V/m) @ t=0.6
1.6477584371953689
% es.EX (V/m) @ t=0.6
1.5227461343126691
% es.EY (V/m) @ t=0.6
0.09587772603630995
% es.EZ (V/m) @ t=0.6
0.6155856031845717
% es.tEX (V/m) @ t=0.6
1.5227461343126745
% es.tEY (V/m) @ t=0.6
0
% es.tEZ (V/m) @ t=0.6
0.6155856031845692
% es.Ex (V/m) @ t=0.6
1.5227461343126691
% es.Ey (V/m) @ t=0.6
0.09587772603630995
% es.Ez (V/m) @ t=0.6
0.6155856031845717
% es.tEx (V/m) @ t=0.6
1.5227461343126745
% es.tEy (V/m) @ t=0.6
0
% es.tEz (V/m) @ t=0.6
0.6155856031845692
% V (V) @ t=0.6
0.008219574090159913
% es.normE (V/m) @ t=0.62
1.6634165846502205
% es.EX (V/m) @ t=0.62
1.5372159462208241
% es.EY (V/m) @ t=0.62
0.09678985121251094
% es.EZ (V/m) @ t=0.62
0.6214359895615527
% es.tEX (V/m) @ t=0.62
1.5372159462208224
% es.tEY (V/m) @ t=0.62
0
% es.tEZ (V/m) @ t=0.62
0.6214359895615535
% es.Ex (V/m) @ t=0.62
1.5372159462208241
% es.Ey (V/m) @ t=0.62
0.09678985121251094
% es.Ez (V/m) @ t=0.62
0.6214359895615527
% es.tEx (V/m) @ t=0.62
1.5372159462208224
% es.tEy (V/m) @ t=0.62
0
% es.tEz (V/m) @ t=0.62
0.6214359895615535
% V (V) @ t=0.62
0.00829759971874048
% es.normE (V/m) @ t=0.64
1.6790747321064203
% es.EX (V/m) @ t=0.64
1.551685758128969
% es.EY (V/m) @ t=0.64
0.09770197638871214
% es.EZ (V/m) @ t=0.64
0.6272863759385316
% es.tEX (V/m) @ t=0.64
1.5516857581289676
% es.tEY (V/m) @ t=0.64
0
% es.tEZ (V/m) @ t=0.64
0.6272863759385308
% es.Ex (V/m) @ t=0.64
1.551685758128969
% es.Ey (V/m) @ t=0.64
0.09770197638871214
% es.Ez (V/m) @ t=0.64
0.6272863759385316
% es.tEx (V/m) @ t=0.64
1.5516857581289676
% es.tEy (V/m) @ t=0.64
0
% es.tEz (V/m) @ t=0.64
0.6272863759385308
% V (V) @ t=0.64
0.008375625347321046
% es.normE (V/m) @ t=0.66
1.6947328795639391
% es.EX (V/m) @ t=0.66
1.566155570037112
% es.EY (V/m) @ t=0.66
0.09861410156491768
% es.EZ (V/m) @ t=0.66
0.6331367623155082
% es.tEX (V/m) @ t=0.66
1.566155570037112
% es.tEY (V/m) @ t=0.66
0
% es.tEZ (V/m) @ t=0.66
0.6331367623155066
% es.Ex (V/m) @ t=0.66
1.566155570037112
% es.Ey (V/m) @ t=0.66
0.09861410156491768
% es.Ez (V/m) @ t=0.66
0.6331367623155082
% es.tEx (V/m) @ t=0.66
1.566155570037112
% es.tEy (V/m) @ t=0.66
0
% es.tEz (V/m) @ t=0.66
0.6331367623155066
% V (V) @ t=0.66
0.00845365097590161
% es.normE (V/m) @ t=0.68
1.7103910270227538
% es.EX (V/m) @ t=0.68
1.5806253819452643
% es.EY (V/m) @ t=0.68
0.09952622674111877
% es.EZ (V/m) @ t=0.68
0.6389871486924923
% es.tEX (V/m) @ t=0.68
1.5806253819452643
% es.tEY (V/m) @ t=0.68
0
% es.tEZ (V/m) @ t=0.68
0.6389871486924941
% es.Ex (V/m) @ t=0.68
1.5806253819452643
% es.Ey (V/m) @ t=0.68
0.09952622674111877
% es.Ez (V/m) @ t=0.68
0.6389871486924923
% es.tEx (V/m) @ t=0.68
1.5806253819452643
% es.tEy (V/m) @ t=0.68
0
% es.tEz (V/m) @ t=0.68
0.6389871486924941
% V (V) @ t=0.68
0.008531676604482176
% es.normE (V/m) @ t=0.7
1.726049174482816
% es.EX (V/m) @ t=0.7
1.5950951938534104
% es.EY (V/m) @ t=0.7
0.10043835191732509
% es.EZ (V/m) @ t=0.7
0.6448375350694864
% es.tEX (V/m) @ t=0.7
1.5950951938534121
% es.tEY (V/m) @ t=0.7
0
% es.tEZ (V/m) @ t=0.7
0.6448375350694908
% es.Ex (V/m) @ t=0.7
1.5950951938534104
% es.Ey (V/m) @ t=0.7
0.10043835191732509
% es.Ez (V/m) @ t=0.7
0.6448375350694864
% es.tEx (V/m) @ t=0.7
1.5950951938534121
% es.tEy (V/m) @ t=0.7
0
% es.tEz (V/m) @ t=0.7
0.6448375350694908
% V (V) @ t=0.7
0.008609702233062747
% es.normE (V/m) @ t=0.72
1.7417073219440824
% es.EX (V/m) @ t=0.72
1.6095650057615556
% es.EY (V/m) @ t=0.72
0.10135047709352174
% es.EZ (V/m) @ t=0.72
0.6506879214464516
% es.tEX (V/m) @ t=0.72
1.6095650057615538
% es.tEY (V/m) @ t=0.72
0
% es.tEZ (V/m) @ t=0.72
0.6506879214464516
% es.Ex (V/m) @ t=0.72
1.6095650057615556
% es.Ey (V/m) @ t=0.72
0.10135047709352174
% es.Ez (V/m) @ t=0.72
0.6506879214464516
% es.tEx (V/m) @ t=0.72
1.6095650057615538
% es.tEy (V/m) @ t=0.72
0
% es.tEz (V/m) @ t=0.72
0.6506879214464516
% V (V) @ t=0.72
0.008687727861643312
% es.normE (V/m) @ t=0.74
1.7573654694065568
% es.EX (V/m) @ t=0.74
1.624034817669716
% es.EY (V/m) @ t=0.74
0.10226260226972639
% es.EZ (V/m) @ t=0.74
0.6565383078234441
% es.tEX (V/m) @ t=0.74
1.6240348176697088
% es.tEY (V/m) @ t=0.74
0
% es.tEZ (V/m) @ t=0.74
0.6565383078234448
% es.Ex (V/m) @ t=0.74
1.624034817669716
% es.Ey (V/m) @ t=0.74
0.10226260226972639
% es.Ez (V/m) @ t=0.74
0.6565383078234441
% es.tEx (V/m) @ t=0.74
1.6240348176697088
% es.tEy (V/m) @ t=0.74
0
% es.tEz (V/m) @ t=0.74
0.6565383078234448
% V (V) @ t=0.74
0.008765753490223878
% es.normE (V/m) @ t=0.76
1.7730236168701636
% es.EX (V/m) @ t=0.76
1.6385046295778598
% es.EY (V/m) @ t=0.76
0.1031747274459347
% es.EZ (V/m) @ t=0.76
0.6623886942004233
% es.tEX (V/m) @ t=0.76
1.6385046295778665
% es.tEY (V/m) @ t=0.76
0
% es.tEZ (V/m) @ t=0.76
0.6623886942004225
% es.Ex (V/m) @ t=0.76
1.6385046295778598
% es.Ey (V/m) @ t=0.76
0.1031747274459347
% es.Ez (V/m) @ t=0.76
0.6623886942004233
% es.tEx (V/m) @ t=0.76
1.6385046295778665
% es.tEy (V/m) @ t=0.76
0
% es.tEz (V/m) @ t=0.76
0.6623886942004225
% V (V) @ t=0.76
0.008843779118804442
% es.normE (V/m) @ t=0.78
1.7886817643348976
% es.EX (V/m) @ t=0.78
1.6529744414860126
% es.EY (V/m) @ t=0.78
0.10408685262213913
% es.EZ (V/m) @ t=0.78
0.6682390805773966
% es.tEX (V/m) @ t=0.78
1.6529744414860126
% es.tEY (V/m) @ t=0.78
0
% es.tEZ (V/m) @ t=0.78
0.6682390805773992
% es.Ex (V/m) @ t=0.78
1.6529744414860126
% es.Ey (V/m) @ t=0.78
0.10408685262213913
% es.Ez (V/m) @ t=0.78
0.6682390805773966
% es.tEx (V/m) @ t=0.78
1.6529744414860126
% es.tEy (V/m) @ t=0.78
0
% es.tEz (V/m) @ t=0.78
0.6682390805773992
% V (V) @ t=0.78
0.008921804747385012
% es.normE (V/m) @ t=0.8
1.8043399118007244
% es.EX (V/m) @ t=0.8
1.66744425339416
% es.EY (V/m) @ t=0.8
0.10499897779833678
% es.EZ (V/m) @ t=0.8
0.6740894669543835
% es.tEX (V/m) @ t=0.8
1.6674442533941667
% es.tEY (V/m) @ t=0.8
0
% es.tEZ (V/m) @ t=0.8
0.6740894669543853
% es.Ex (V/m) @ t=0.8
1.66744425339416
% es.Ey (V/m) @ t=0.8
0.10499897779833678
% es.Ez (V/m) @ t=0.8
0.6740894669543835
% es.tEx (V/m) @ t=0.8
1.6674442533941667
% es.tEy (V/m) @ t=0.8
0
% es.tEz (V/m) @ t=0.8
0.6740894669543853
% V (V) @ t=0.8
0.008999830375965577
% es.normE (V/m) @ t=0.82
1.8206600794015448
% es.EX (V/m) @ t=0.82
1.6825259772444743
% es.EY (V/m) @ t=0.82
0.10594930579720585
% es.EZ (V/m) @ t=0.82
0.6801869720571596
% es.tEX (V/m) @ t=0.82
1.6825259772444747
% es.tEY (V/m) @ t=0.82
0
% es.tEZ (V/m) @ t=0.82
0.6801869720571587
% es.Ex (V/m) @ t=0.82
1.6825259772444743
% es.Ey (V/m) @ t=0.82
0.10594930579720585
% es.Ez (V/m) @ t=0.82
0.6801869720571596
% es.tEx (V/m) @ t=0.82
1.6825259772444747
% es.tEy (V/m) @ t=0.82
0
% es.tEz (V/m) @ t=0.82
0.6801869720571587
% V (V) @ t=0.82
0.009081183890999033
% es.normE (V/m) @ t=0.84
1.8381622640677726
% es.EX (V/m) @ t=0.84
1.698700251488476
% es.EY (V/m) @ t=0.84
0.10696784378849478
% es.EZ (V/m) @ t=0.84
0.68672570022254
% es.tEX (V/m) @ t=0.84
1.698700251488476
% es.tEY (V/m) @ t=0.84
0
% es.tEZ (V/m) @ t=0.84
0.6867257002225409
% es.Ex (V/m) @ t=0.84
1.698700251488476
% es.Ey (V/m) @ t=0.84
0.10696784378849478
% es.Ez (V/m) @ t=0.84
0.68672570022254
% es.tEx (V/m) @ t=0.84
1.698700251488476
% es.tEy (V/m) @ t=0.84
0
% es.tEz (V/m) @ t=0.84
0.6867257002225409
% V (V) @ t=0.84
0.009168479247339613
% es.normE (V/m) @ t=0.86
1.8556644487339993
% es.EX (V/m) @ t=0.86
1.7148745257324771
% es.EY (V/m) @ t=0.86
0.10798638177978914
% es.EZ (V/m) @ t=0.86
0.693264428387913
% es.tEX (V/m) @ t=0.86
1.714874525732478
% es.tEY (V/m) @ t=0.86
0
% es.tEZ (V/m) @ t=0.86
0.6932644283879124
% es.Ex (V/m) @ t=0.86
1.7148745257324771
% es.Ey (V/m) @ t=0.86
0.10798638177978914
% es.Ez (V/m) @ t=0.86
0.693264428387913
% es.tEx (V/m) @ t=0.86
1.714874525732478
% es.tEy (V/m) @ t=0.86
0
% es.tEz (V/m) @ t=0.86
0.6932644283879124
% V (V) @ t=0.86
0.009255774603680192
% es.normE (V/m) @ t=0.88
1.873166633400229
% es.EX (V/m) @ t=0.88
1.7310487999764836
% es.EY (V/m) @ t=0.88
0.10900491977106297
% es.EZ (V/m) @ t=0.88
0.6998031565532836
% es.tEX (V/m) @ t=0.88
1.7310487999764899
% es.tEY (V/m) @ t=0.88
0
% es.tEZ (V/m) @ t=0.88
0.6998031565532856
% es.Ex (V/m) @ t=0.88
1.7310487999764836
% es.Ey (V/m) @ t=0.88
0.10900491977106297
% es.Ez (V/m) @ t=0.88
0.6998031565532836
% es.tEx (V/m) @ t=0.88
1.7310487999764899
% es.tEy (V/m) @ t=0.88
0
% es.tEz (V/m) @ t=0.88
0.6998031565532856
% V (V) @ t=0.88
0.009343069960020772
% es.normE (V/m) @ t=0.9
1.8906688180664744
% es.EX (V/m) @ t=0.9
1.7472230742205008
% es.EY (V/m) @ t=0.9
0.11002345776235722
% es.EZ (V/m) @ t=0.9
0.7063418847186613
% es.tEX (V/m) @ t=0.9
1.7472230742204982
% es.tEY (V/m) @ t=0.9
0
% es.tEZ (V/m) @ t=0.9
0.7063418847186624
% es.Ex (V/m) @ t=0.9
1.7472230742205008
% es.Ey (V/m) @ t=0.9
0.11002345776235722
% es.Ez (V/m) @ t=0.9
0.7063418847186613
% es.tEx (V/m) @ t=0.9
1.7472230742204982
% es.tEy (V/m) @ t=0.9
0
% es.tEz (V/m) @ t=0.9
0.7063418847186624
% V (V) @ t=0.9
0.00943036531636135
% es.normE (V/m) @ t=0.92
1.9081710027327046
% es.EX (V/m) @ t=0.92
1.7633973484645038
% es.EY (V/m) @ t=0.92
0.11104199575364349
% es.EZ (V/m) @ t=0.92
0.7128806128840293
% es.tEX (V/m) @ t=0.92
1.763397348464494
% es.tEY (V/m) @ t=0.92
0
% es.tEZ (V/m) @ t=0.92
0.7128806128840299
% es.Ex (V/m) @ t=0.92
1.7633973484645038
% es.Ey (V/m) @ t=0.92
0.11104199575364349
% es.Ez (V/m) @ t=0.92
0.7128806128840293
% es.tEx (V/m) @ t=0.92
1.763397348464494
% es.tEy (V/m) @ t=0.92
0
% es.tEz (V/m) @ t=0.92
0.7128806128840299
% V (V) @ t=0.92
0.009517660672701928
% es.normE (V/m) @ t=0.94
1.925673187398937
% es.EX (V/m) @ t=0.94
1.7795716227085059
% es.EY (V/m) @ t=0.94
0.11206053374494107
% es.EZ (V/m) @ t=0.94
0.719419341049399
% es.tEX (V/m) @ t=0.94
1.7795716227085023
% es.tEY (V/m) @ t=0.94
0
% es.tEZ (V/m) @ t=0.94
0.7194193410494014
% es.Ex (V/m) @ t=0.94
1.7795716227085059
% es.Ey (V/m) @ t=0.94
0.11206053374494107
% es.Ez (V/m) @ t=0.94
0.719419341049399
% es.tEx (V/m) @ t=0.94
1.7795716227085023
% es.tEy (V/m) @ t=0.94
0
% es.tEz (V/m) @ t=0.94
0.7194193410494014
% V (V) @ t=0.94
0.009604956029042506
% es.normE (V/m) @ t=0.96
1.9431753720651919
% es.EX (V/m) @ t=0.96
1.7957458969525328
% es.EY (V/m) @ t=0.96
0.11307907173621945
% es.EZ (V/m) @ t=0.96
0.7259580692147694
% es.tEX (V/m) @ t=0.96
1.7957458969525248
% es.tEY (V/m) @ t=0.96
0
% es.tEZ (V/m) @ t=0.96
0.7259580692147676
% es.Ex (V/m) @ t=0.96
1.7957458969525328
% es.Ey (V/m) @ t=0.96
0.11307907173621945
% es.Ez (V/m) @ t=0.96
0.7259580692147694
% es.tEx (V/m) @ t=0.96
1.7957458969525248
% es.tEy (V/m) @ t=0.96
0
% es.tEz (V/m) @ t=0.96
0.7259580692147676
% V (V) @ t=0.96
0.009692251385383086
% es.normE (V/m) @ t=0.98
1.9606775567314183
% es.EX (V/m) @ t=0.98
1.811920171196527
% es.EY (V/m) @ t=0.98
0.11409760972751459
% es.EZ (V/m) @ t=0.98
0.7324967973801373
% es.tEX (V/m) @ t=0.98
1.811920171196535
% es.tEY (V/m) @ t=0.98
0
% es.tEZ (V/m) @ t=0.98
0.7324967973801391
% es.Ex (V/m) @ t=0.98
1.811920171196527
% es.Ey (V/m) @ t=0.98
0.11409760972751459
% es.Ez (V/m) @ t=0.98
0.7324967973801373
% es.tEx (V/m) @ t=0.98
1.811920171196535
% es.tEy (V/m) @ t=0.98
0
% es.tEz (V/m) @ t=0.98
0.7324967973801391
% V (V) @ t=0.98
0.009779546741723665
% es.normE (V/m) @ t=1
1.9781797413976614
% es.EX (V/m) @ t=1
1.8280944454405361
% es.EY (V/m) @ t=1
0.11511614771879641
% es.EZ (V/m) @ t=1
0.7390355255455106
% es.tEX (V/m) @ t=1
1.8280944454405361
% es.tEY (V/m) @ t=1
0
% es.tEZ (V/m) @ t=1
0.7390355255455141
% es.Ex (V/m) @ t=1
1.8280944454405361
% es.Ey (V/m) @ t=1
0.11511614771879641
% es.Ez (V/m) @ t=1
0.7390355255455106
% es.tEx (V/m) @ t=1
1.8280944454405361
% es.tEy (V/m) @ t=1
0
% es.tEz (V/m) @ t=1
0.7390355255455141
% V (V) @ t=1
0.009866842098064245
% es.normE (V/m) @ t=1.02
1.995681926063899
% es.EX (V/m) @ t=1.02
1.8442687196845373
% es.EY (V/m) @ t=1.02
0.11613468571008712
% es.EZ (V/m) @ t=1.02
0.7455742537108847
% es.tEX (V/m) @ t=1.02
1.8442687196845444
% es.tEY (V/m) @ t=1.02
0
% es.tEZ (V/m) @ t=1.02
0.7455742537108909
% es.Ex (V/m) @ t=1.02
1.8442687196845373
% es.Ey (V/m) @ t=1.02
0.11613468571008712
% es.Ez (V/m) @ t=1.02
0.7455742537108847
% es.tEx (V/m) @ t=1.02
1.8442687196845444
% es.tEy (V/m) @ t=1.02
0
% es.tEz (V/m) @ t=1.02
0.7455742537108909
% V (V) @ t=1.02
0.009954137454404823
% es.normE (V/m) @ t=1.04
2.013184110730148
% es.EX (V/m) @ t=1.04
1.86044299392855
% es.EY (V/m) @ t=1.04
0.11715322370138148
% es.EZ (V/m) @ t=1.04
0.7521129818762569
% es.tEX (V/m) @ t=1.04
1.8604429939285492
% es.tEY (V/m) @ t=1.04
0
% es.tEZ (V/m) @ t=1.04
0.7521129818762606
% es.Ex (V/m) @ t=1.04
1.86044299392855
% es.Ey (V/m) @ t=1.04
0.11715322370138148
% es.Ez (V/m) @ t=1.04
0.7521129818762569