% Model:              1 neuron.mph
% Version:            COMSOL 6.0.0.405
% Date:               Mar 16 2023, 17:08
% Dimension:          0
% Nodes:              14017
% Expressions:        14017
% Description:        Electric field norm, Electric field, X component, Electric field, Y component, Electric field, Z component, Tangential electric field, X component, Tangential electric field, Y component, Tangential electric field, Z component, Electric field, x component, Electric field, y component, Electric field, z component, Tangential electric field, x component, Tangential electric field, y component, Tangential electric field, z component, Electric potential
% Length unit:        mm
% x
1.33
% y
12.2
% z
1
% es.normE (V/m) @ t=0
1.557399875838687
% es.EX (V/m) @ t=0
0.4807124546252015
% es.EY (V/m) @ t=0
0.11645902927259877
% es.EZ (V/m) @ t=0
1.4767585070913603
% es.tEX (V/m) @ t=0
0.4807124546252055
% es.tEY (V/m) @ t=0
0
% es.tEZ (V/m) @ t=0
1.4767585070913665
% es.Ex (V/m) @ t=0
0.4807124546252015
% es.Ey (V/m) @ t=0
0.11645902927259877
% es.Ez (V/m) @ t=0
1.4767585070913603
% es.tEx (V/m) @ t=0
0.4807124546252055
% es.tEy (V/m) @ t=0
0
% es.tEz (V/m) @ t=0
1.4767585070913665
% V (V) @ t=0
0.007284000946856847
% es.normE (V/m) @ t=0.02
1.3451553997173518
% es.EX (V/m) @ t=0.02
0.41520033713044935
% es.EY (V/m) @ t=0.02
0.10058784166523393
% es.EZ (V/m) @ t=0.02
1.2755039414643203
% es.tEX (V/m) @ t=0.02
0.4152003371304467
% es.tEY (V/m) @ t=0.02
0
% es.tEZ (V/m) @ t=0.02
1.2755039414643283
% es.Ex (V/m) @ t=0.02
0.41520033713044935
% es.Ey (V/m) @ t=0.02
0.10058784166523393
% es.Ez (V/m) @ t=0.02
1.2755039414643203
% es.tEx (V/m) @ t=0.02
0.4152003371304467
% es.tEy (V/m) @ t=0.02
0
% es.tEz (V/m) @ t=0.02
1.2755039414643283
% V (V) @ t=0.02
0.0062913278222396125
% es.normE (V/m) @ t=0.04
1.3575274700414959
% es.EX (V/m) @ t=0.04
0.41901914296242326
% es.EY (V/m) @ t=0.04
0.10151299863615815
% es.EZ (V/m) @ t=0.04
1.2872353924319895
% es.tEX (V/m) @ t=0.04
0.4190191429624228
% es.tEY (V/m) @ t=0.04
0
% es.tEZ (V/m) @ t=0.04
1.2872353924319846
% es.Ex (V/m) @ t=0.04
0.41901914296242326
% es.Ey (V/m) @ t=0.04
0.10151299863615815
% es.Ez (V/m) @ t=0.04
1.2872353924319895
% es.tEx (V/m) @ t=0.04
0.4190191429624228
% es.tEy (V/m) @ t=0.04
0
% es.tEz (V/m) @ t=0.04
1.2872353924319846
% V (V) @ t=0.04
0.00634919230266616
% es.normE (V/m) @ t=0.06
1.3700117566274135
% es.EX (V/m) @ t=0.06
0.4228725871958574
% es.EY (V/m) @ t=0.06
0.10244654678031362
% es.EZ (V/m) @ t=0.06
1.2990732487365924
% es.tEX (V/m) @ t=0.06
0.4228725871958545
% es.tEY (V/m) @ t=0.06
0
% es.tEZ (V/m) @ t=0.06
1.2990732487365966
% es.Ex (V/m) @ t=0.06
0.4228725871958574
% es.Ey (V/m) @ t=0.06
0.10244654678031362
% es.Ez (V/m) @ t=0.06
1.2990732487365924
% es.tEx (V/m) @ t=0.06
0.4228725871958545
% es.tEy (V/m) @ t=0.06
0
% es.tEz (V/m) @ t=0.06
1.2990732487365966
% V (V) @ t=0.06
0.006407581707602388
% es.normE (V/m) @ t=0.08
1.3826849413881628
% es.EX (V/m) @ t=0.08
0.4267843374080519
% es.EY (V/m) @ t=0.08
0.10339422033054246
% es.EZ (V/m) @ t=0.08
1.3110902221609817
% es.tEX (V/m) @ t=0.08
0.4267843374080549
% es.tEY (V/m) @ t=0.08
0
% es.tEZ (V/m) @ t=0.08
1.3110902221609813
% es.Ex (V/m) @ t=0.08
0.4267843374080519
% es.Ey (V/m) @ t=0.08
0.10339422033054246
% es.Ez (V/m) @ t=0.08
1.3110902221609817
% es.tEx (V/m) @ t=0.08
0.4267843374080549
% es.tEy (V/m) @ t=0.08
0
% es.tEz (V/m) @ t=0.08
1.3110902221609813
% V (V) @ t=0.08
0.006466854600970681
% es.normE (V/m) @ t=0.1
1.3954927312911942
% es.EX (V/m) @ t=0.1
0.43073763531956366
% es.EY (V/m) @ t=0.1
0.1043519593687321
% es.EZ (V/m) @ t=0.1
1.3232348309392536
% es.tEX (V/m) @ t=0.1
0.4307376353195629
% es.tEY (V/m) @ t=0.1
0
% es.tEZ (V/m) @ t=0.1
1.3232348309392457
% es.Ex (V/m) @ t=0.1
0.43073763531956366
% es.Ey (V/m) @ t=0.1
0.1043519593687321
% es.Ez (V/m) @ t=0.1
1.3232348309392536
% es.tEx (V/m) @ t=0.1
0.4307376353195629
% es.tEy (V/m) @ t=0.1
0
% es.tEz (V/m) @ t=0.1
1.3232348309392457
% V (V) @ t=0.1
0.006526757050904141
% es.normE (V/m) @ t=0.12
1.4083005211942243
% es.EX (V/m) @ t=0.12
0.4346909332310749
% es.EY (V/m) @ t=0.12
0.10530969840692306
% es.EZ (V/m) @ t=0.12
1.3353794397175238
% es.tEX (V/m) @ t=0.12
0.434690933231078
% es.tEY (V/m) @ t=0.12
0
% es.tEZ (V/m) @ t=0.12
1.3353794397175296
% es.Ex (V/m) @ t=0.12
0.4346909332310749
% es.Ey (V/m) @ t=0.12
0.10530969840692306
% es.Ez (V/m) @ t=0.12
1.3353794397175238
% es.tEx (V/m) @ t=0.12
0.434690933231078
% es.tEy (V/m) @ t=0.12
0
% es.tEz (V/m) @ t=0.12
1.3353794397175296
% V (V) @ t=0.12
0.006586659500837599
% es.normE (V/m) @ t=0.14
1.4212300801504512
% es.EX (V/m) @ t=0.14
0.43868181769472037
% es.EY (V/m) @ t=0.14
0.10627654299410194
% es.EZ (V/m) @ t=0.14
1.3476395121270617
% es.tEX (V/m) @ t=0.14
0.4386818176947145
% es.tEY (V/m) @ t=0.14
0
% es.tEZ (V/m) @ t=0.14
1.3476395121270617
% es.Ex (V/m) @ t=0.14
0.43868181769472037
% es.Ey (V/m) @ t=0.14
0.10627654299410194
% es.Ez (V/m) @ t=0.14
1.3476395121270617
% es.tEx (V/m) @ t=0.14
0.4386818176947145
% es.tEy (V/m) @ t=0.14
0
% es.tEz (V/m) @ t=0.14
1.3476395121270617
% V (V) @ t=0.14
0.006647131522305618
% es.normE (V/m) @ t=0.16
1.4347227076629467
% es.EX (V/m) @ t=0.16
0.44284650498503353
% es.EY (V/m) @ t=0.16
0.10728549227207695
% es.EZ (V/m) @ t=0.16
1.360433496384081
% es.tEX (V/m) @ t=0.16
0.442846504985031
% es.tEY (V/m) @ t=0.16
0
% es.tEZ (V/m) @ t=0.16
1.3604334963840774
% es.Ex (V/m) @ t=0.16
0.44284650498503353
% es.Ey (V/m) @ t=0.16
0.10728549227207695
% es.Ez (V/m) @ t=0.16
1.360433496384081
% es.tEx (V/m) @ t=0.16
0.442846504985031
% es.tEy (V/m) @ t=0.16
0
% es.tEz (V/m) @ t=0.16
1.3604334963840774
% V (V) @ t=0.16
0.00671023728209386
% es.normE (V/m) @ t=0.18
1.4482153351754306
% es.EX (V/m) @ t=0.18
0.4470111922753578
% es.EY (V/m) @ t=0.18
0.10829444155002299
% es.EZ (V/m) @ t=0.18
1.3732274806410865
% es.tEX (V/m) @ t=0.18
0.4470111922753581
% es.tEY (V/m) @ t=0.18
0
% es.tEZ (V/m) @ t=0.18
1.373227480641102
% es.Ex (V/m) @ t=0.18
0.4470111922753578
% es.Ey (V/m) @ t=0.18
0.10829444155002299
% es.Ez (V/m) @ t=0.18
1.3732274806410865
% es.tEx (V/m) @ t=0.18
0.4470111922753581
% es.tEy (V/m) @ t=0.18
0
% es.tEz (V/m) @ t=0.18
1.373227480641102
% V (V) @ t=0.18
0.006773343041882101
% es.normE (V/m) @ t=0.2
1.4617079626879352
% es.EX (V/m) @ t=0.2
0.4511758795656696
% es.EY (V/m) @ t=0.2
0.10930339082798557
% es.EZ (V/m) @ t=0.2
1.3860214648981164
% es.tEX (V/m) @ t=0.2
0.4511758795656746
% es.tEY (V/m) @ t=0.2
0
% es.tEZ (V/m) @ t=0.2
1.3860214648981195
% es.Ex (V/m) @ t=0.2
0.4511758795656696
% es.Ey (V/m) @ t=0.2
0.10930339082798557
% es.Ez (V/m) @ t=0.2
1.3860214648981164
% es.tEx (V/m) @ t=0.2
0.4511758795656746
% es.tEy (V/m) @ t=0.2
0
% es.tEz (V/m) @ t=0.2
1.3860214648981195
% V (V) @ t=0.2
0.006836448801670344
% es.normE (V/m) @ t=0.22
1.4752005902004242
% es.EX (V/m) @ t=0.22
0.4553405668559849
% es.EY (V/m) @ t=0.22
0.1103123401059446
% es.EZ (V/m) @ t=0.22
1.398815449155129
% es.tEX (V/m) @ t=0.22
0.45534056685598756
% es.tEY (V/m) @ t=0.22
0
% es.tEZ (V/m) @ t=0.22
1.3988154491551263
% es.Ex (V/m) @ t=0.22
0.4553405668559849
% es.Ey (V/m) @ t=0.22
0.1103123401059446
% es.Ez (V/m) @ t=0.22
1.398815449155129
% es.tEx (V/m) @ t=0.22
0.45534056685598756
% es.tEy (V/m) @ t=0.22
0
% es.tEz (V/m) @ t=0.22
1.3988154491551263
% V (V) @ t=0.22
0.006899554561458584
% es.normE (V/m) @ t=0.24
1.4886932177129197
% es.EX (V/m) @ t=0.24
0.4595052541463016
% es.EY (V/m) @ t=0.24
0.11132128938390695
% es.EZ (V/m) @ t=0.24
1.4116094334121478
% es.tEX (V/m) @ t=0.24
0.4595052541463005
% es.tEY (V/m) @ t=0.24
0
% es.tEZ (V/m) @ t=0.24
1.4116094334121438
% es.Ex (V/m) @ t=0.24
0.4595052541463016
% es.Ey (V/m) @ t=0.24
0.11132128938390695
% es.Ez (V/m) @ t=0.24
1.4116094334121478
% es.tEx (V/m) @ t=0.24
0.4595052541463005
% es.tEy (V/m) @ t=0.24
0
% es.tEz (V/m) @ t=0.24
1.4116094334121438
% V (V) @ t=0.24
0.006962660321246827
% es.normE (V/m) @ t=0.26
1.5021858452253862
% es.EX (V/m) @ t=0.26
0.46366994143661
% es.EY (V/m) @ t=0.26
0.11233023866186587
% es.EZ (V/m) @ t=0.26
1.4244034176691391
% es.tEX (V/m) @ t=0.26
0.46366994143661344
% es.tEY (V/m) @ t=0.26
0
% es.tEZ (V/m) @ t=0.26
1.4244034176691454
% es.Ex (V/m) @ t=0.26
0.46366994143661
% es.Ey (V/m) @ t=0.26
0.11233023866186587
% es.Ez (V/m) @ t=0.26
1.4244034176691391
% es.tEx (V/m) @ t=0.26
0.46366994143661344
% es.tEy (V/m) @ t=0.26
0
% es.tEz (V/m) @ t=0.26
1.4244034176691454
% V (V) @ t=0.26
0.007025766081035069
% es.normE (V/m) @ t=0.28
1.5162423009291128
% es.EX (V/m) @ t=0.28
0.4680088798442903
% es.EY (V/m) @ t=0.28
0.11338133171699472
% es.EZ (V/m) @ t=0.28
1.4377319663136174
% es.tEX (V/m) @ t=0.28
0.46800887984429096
% es.tEY (V/m) @ t=0.28
0
% es.tEZ (V/m) @ t=0.28
1.4377319663136223
% es.Ex (V/m) @ t=0.28
0.4680088798442903
% es.Ey (V/m) @ t=0.28
0.11338133171699472
% es.Ez (V/m) @ t=0.28
1.4377319663136174
% es.tEx (V/m) @ t=0.28
0.46800887984429096
% es.tEy (V/m) @ t=0.28
0
% es.tEz (V/m) @ t=0.28
1.4377319663136223
% V (V) @ t=0.28
0.007091522750256874
% es.normE (V/m) @ t=0.3
1.5312771567082542
% es.EX (V/m) @ t=0.3
0.47265019282096554
% es.EY (V/m) @ t=0.3
0.11450555604756318
% es.EZ (V/m) @ t=0.3
1.4519881341247567
% es.tEX (V/m) @ t=0.3
0.4726501928209643
% es.tEY (V/m) @ t=0.3
0
% es.tEZ (V/m) @ t=0.3
1.4519881341247611
% es.Ex (V/m) @ t=0.3
0.47265019282096554
% es.Ey (V/m) @ t=0.3
0.11450555604756318
% es.Ez (V/m) @ t=0.3
1.4519881341247567
% es.tEx (V/m) @ t=0.3
0.4726501928209643
% es.tEy (V/m) @ t=0.3
0
% es.tEz (V/m) @ t=0.3
1.4519881341247611
% V (V) @ t=0.3
0.007161879490971188
% es.normE (V/m) @ t=0.32
1.5463120124877245
% es.EX (V/m) @ t=0.32
0.4772915057976511
% es.EY (V/m) @ t=0.32
0.11562978037814253
% es.EZ (V/m) @ t=0.32
1.4662443019358977
% es.tEX (V/m) @ t=0.32
0.4772915057976519
% es.tEY (V/m) @ t=0.32
0
% es.tEZ (V/m) @ t=0.32
1.4662443019359035
% es.Ex (V/m) @ t=0.32
0.4772915057976511
% es.Ey (V/m) @ t=0.32
0.11562978037814253
% es.Ez (V/m) @ t=0.32
1.4662443019358977
% es.tEx (V/m) @ t=0.32
0.4772915057976519
% es.tEy (V/m) @ t=0.32
0
% es.tEz (V/m) @ t=0.32
1.4662443019359035
% V (V) @ t=0.32
0.007232236231685501
% es.normE (V/m) @ t=0.34
1.561346868267515
% es.EX (V/m) @ t=0.34
0.4819328187743398
% es.EY (V/m) @ t=0.34
0.11675400470871278
% es.EZ (V/m) @ t=0.34
1.480500469747045
% es.tEX (V/m) @ t=0.34
0.48193281877433947
% es.tEY (V/m) @ t=0.34
0
% es.tEZ (V/m) @ t=0.34
1.4805004697470512
% es.Ex (V/m) @ t=0.34
0.4819328187743398
% es.Ey (V/m) @ t=0.34
0.11675400470871278
% es.Ez (V/m) @ t=0.34
1.480500469747045
% es.tEx (V/m) @ t=0.34
0.48193281877433947
% es.tEy (V/m) @ t=0.34
0
% es.tEz (V/m) @ t=0.34
1.4805004697470512
% V (V) @ t=0.34
0.007302592972399815
% es.normE (V/m) @ t=0.36
1.576381724047594
% es.EX (V/m) @ t=0.36
0.4865741317510238
% es.EY (V/m) @ t=0.36
0.11787822903926748
% es.EZ (V/m) @ t=0.36
1.4947566375581776
% es.tEX (V/m) @ t=0.36
0.48657413175101993
% es.tEY (V/m) @ t=0.36
0
% es.tEZ (V/m) @ t=0.36
1.4947566375581847
% es.Ex (V/m) @ t=0.36
0.4865741317510238
% es.Ey (V/m) @ t=0.36
0.11787822903926748
% es.Ez (V/m) @ t=0.36
1.4947566375581776
% es.tEx (V/m) @ t=0.36
0.48657413175101993
% es.tEy (V/m) @ t=0.36
0
% es.tEz (V/m) @ t=0.36
1.4947566375581847
% V (V) @ t=0.36
0.007372949713114129
% es.normE (V/m) @ t=0.38
1.5914165798279738
% es.EX (V/m) @ t=0.38
0.49121544472769607
% es.EY (V/m) @ t=0.38
0.1190024533698395
% es.EZ (V/m) @ t=0.38
1.5090128053693177
% es.tEX (V/m) @ t=0.38
0.4912154447277004
% es.tEY (V/m) @ t=0.38
0
% es.tEZ (V/m) @ t=0.38
1.5090128053693181
% es.Ex (V/m) @ t=0.38
0.49121544472769607
% es.Ey (V/m) @ t=0.38
0.1190024533698395
% es.Ez (V/m) @ t=0.38
1.5090128053693177
% es.tEx (V/m) @ t=0.38
0.4912154447277004
% es.tEy (V/m) @ t=0.38
0
% es.tEz (V/m) @ t=0.38
1.5090128053693181
% V (V) @ t=0.38
0.007443306453828443
% es.normE (V/m) @ t=0.4
1.6064514356086406
% es.EX (V/m) @ t=0.4
0.495856757704386
% es.EY (V/m) @ t=0.4
0.12012667770040808
% es.EZ (V/m) @ t=0.4
1.5232689731804507
% es.tEX (V/m) @ t=0.4
0.4958567577043951
% es.tEY (V/m) @ t=0.4
0
% es.tEZ (V/m) @ t=0.4
1.5232689731804445
% es.Ex (V/m) @ t=0.4
0.495856757704386
% es.Ey (V/m) @ t=0.4
0.12012667770040808
% es.Ez (V/m) @ t=0.4
1.5232689731804507
% es.tEx (V/m) @ t=0.4
0.4958567577043951
% es.tEy (V/m) @ t=0.4
0
% es.tEz (V/m) @ t=0.4
1.5232689731804445
% V (V) @ t=0.4
0.0075136631945427555
% es.normE (V/m) @ t=0.42
1.6214862913895882
% es.EX (V/m) @ t=0.42
0.5004980706810689
% es.EY (V/m) @ t=0.42
0.12125090203098032
% es.EZ (V/m) @ t=0.42
1.5375251409915873
% es.tEX (V/m) @ t=0.42
0.5004980706810755
% es.tEY (V/m) @ t=0.42
0
% es.tEZ (V/m) @ t=0.42
1.5375251409915833
% es.Ex (V/m) @ t=0.42
0.5004980706810689
% es.Ey (V/m) @ t=0.42
0.12125090203098032
% es.Ez (V/m) @ t=0.42
1.5375251409915873
% es.tEx (V/m) @ t=0.42
0.5004980706810755
% es.tEy (V/m) @ t=0.42
0
% es.tEz (V/m) @ t=0.42
1.5375251409915833
% V (V) @ t=0.42
0.007584019935257071
% es.normE (V/m) @ t=0.44
1.6365211471707997
% es.EX (V/m) @ t=0.44
0.5051393836577495
% es.EY (V/m) @ t=0.44
0.12237512636153469
% es.EZ (V/m) @ t=0.44
1.5517813088027168
% es.tEX (V/m) @ t=0.44
0.505139383657756
% es.tEY (V/m) @ t=0.44
0
% es.tEZ (V/m) @ t=0.44
1.5517813088027186
% es.Ex (V/m) @ t=0.44
0.5051393836577495
% es.Ey (V/m) @ t=0.44
0.12237512636153469
% es.Ez (V/m) @ t=0.44
1.5517813088027168
% es.tEx (V/m) @ t=0.44
0.505139383657756
% es.tEy (V/m) @ t=0.44
0
% es.tEz (V/m) @ t=0.44
1.5517813088027186
% V (V) @ t=0.44
0.007654376675971383
% es.normE (V/m) @ t=0.46
1.651556002952299
% es.EX (V/m) @ t=0.46
0.5097806966344411
% es.EY (V/m) @ t=0.46
0.12349935069211393
% es.EZ (V/m) @ t=0.46
1.566037476613865
% es.tEX (V/m) @ t=0.46
0.5097806966344436
% es.tEY (V/m) @ t=0.46
0
% es.tEZ (V/m) @ t=0.46
1.5660374766138734
% es.Ex (V/m) @ t=0.46
0.5097806966344411
% es.Ey (V/m) @ t=0.46
0.12349935069211393
% es.Ez (V/m) @ t=0.46
1.566037476613865
% es.tEx (V/m) @ t=0.46
0.5097806966344436
% es.tEy (V/m) @ t=0.46
0
% es.tEz (V/m) @ t=0.46
1.5660374766138734
% V (V) @ t=0.46
0.0077247334166856965
% es.normE (V/m) @ t=0.48
1.6665908587340375
% es.EX (V/m) @ t=0.48
0.5144220096111164
% es.EY (V/m) @ t=0.48
0.12462357502266697
% es.EZ (V/m) @ t=0.48
1.580293644425001
% es.tEX (V/m) @ t=0.48
0.514422009611124
% es.tEY (V/m) @ t=0.48
0
% es.tEZ (V/m) @ t=0.48
1.5802936444250069
% es.Ex (V/m) @ t=0.48
0.5144220096111164
% es.Ey (V/m) @ t=0.48
0.12462357502266697
% es.Ez (V/m) @ t=0.48
1.580293644425001
% es.tEx (V/m) @ t=0.48
0.514422009611124
% es.tEy (V/m) @ t=0.48
0
% es.tEz (V/m) @ t=0.48
1.5802936444250069
% V (V) @ t=0.48
0.007795090157400011
% es.normE (V/m) @ t=0.5
1.6816257145160347
% es.EX (V/m) @ t=0.5
0.5190633225878012
% es.EY (V/m) @ t=0.5
0.1257477993532391
% es.EZ (V/m) @ t=0.5
1.5945498122361408
% es.tEX (V/m) @ t=0.5
0.5190633225878045
% es.tEY (V/m) @ t=0.5
0
% es.tEZ (V/m) @ t=0.5
1.5945498122361457
% es.Ex (V/m) @ t=0.5
0.5190633225878012
% es.Ey (V/m) @ t=0.5
0.1257477993532391
% es.Ez (V/m) @ t=0.5
1.5945498122361408
% es.tEx (V/m) @ t=0.5
0.5190633225878045
% es.tEy (V/m) @ t=0.5
0
% es.tEz (V/m) @ t=0.5
1.5945498122361457
% V (V) @ t=0.5
0.007865446898114322
% es.normE (V/m) @ t=0.52
1.6966605702982842
% es.EX (V/m) @ t=0.52
0.5237046355644889
% es.EY (V/m) @ t=0.52
0.12687202368381978
% es.EZ (V/m) @ t=0.52
1.608805980047288
% es.tEX (V/m) @ t=0.52
0.5237046355644921
% es.tEY (V/m) @ t=0.52
0
% es.tEZ (V/m) @ t=0.52
1.6088059800472934
% es.Ex (V/m) @ t=0.52
0.5237046355644889
% es.Ey (V/m) @ t=0.52
0.12687202368381978
% es.Ez (V/m) @ t=0.52
1.608805980047288
% es.tEx (V/m) @ t=0.52
0.5237046355644921
% es.tEy (V/m) @ t=0.52
0
% es.tEz (V/m) @ t=0.52
1.6088059800472934
% V (V) @ t=0.52
0.007935803638828638
% es.normE (V/m) @ t=0.54
1.711695426080757
% es.EX (V/m) @ t=0.54
0.5283459485411828
% es.EY (V/m) @ t=0.54
0.12799624801439757
% es.EZ (V/m) @ t=0.54
1.623062147858418
% es.tEX (V/m) @ t=0.54
0.5283459485411868
% es.tEY (V/m) @ t=0.54
0
% es.tEZ (V/m) @ t=0.54
1.6230621478584215
% es.Ex (V/m) @ t=0.54
0.5283459485411828
% es.Ey (V/m) @ t=0.54
0.12799624801439757
% es.Ez (V/m) @ t=0.54
1.623062147858418
% es.tEx (V/m) @ t=0.54
0.5283459485411868
% es.tEy (V/m) @ t=0.54
0
% es.tEz (V/m) @ t=0.54
1.6230621478584215
% V (V) @ t=0.54
0.008006160379542951
% es.normE (V/m) @ t=0.56
1.7280227071380008
% es.EX (V/m) @ t=0.56
0.5333852758856432
% es.EY (V/m) @ t=0.56
0.12921719272097587
% es.EZ (V/m) @ t=0.56
1.6385441082411742
% es.tEX (V/m) @ t=0.56
0.5333852758856423
% es.tEY (V/m) @ t=0.56
0
% es.tEZ (V/m) @ t=0.56
1.6385441082411756
% es.Ex (V/m) @ t=0.56
0.5333852758856432
% es.Ey (V/m) @ t=0.56
0.12921719272097587
% es.Ez (V/m) @ t=0.56
1.6385441082411742
% es.tEx (V/m) @ t=0.56
0.5333852758856423
% es.tEy (V/m) @ t=0.56
0
% es.tEz (V/m) @ t=0.56
1.6385441082411756
% V (V) @ t=0.56
0.00808250391610871
% es.normE (V/m) @ t=0.58
1.744801337681662
% es.EX (V/m) @ t=0.58
0.5385636004966303
% es.EY (V/m) @ t=0.58
0.13047191477070041
% es.EZ (V/m) @ t=0.58
1.6544541481872823
% es.tEX (V/m) @ t=0.58
0.5385636004966372
% es.tEY (V/m) @ t=0.58
0
% es.tEZ (V/m) @ t=0.58
1.6544541481872859
% es.Ex (V/m) @ t=0.58
0.5385636004966303
% es.Ey (V/m) @ t=0.58
0.13047191477070041
% es.Ez (V/m) @ t=0.58
1.6544541481872823
% es.tEx (V/m) @ t=0.58
0.5385636004966372
% es.tEy (V/m) @ t=0.58
0
% es.tEz (V/m) @ t=0.58
1.6544541481872859
% V (V) @ t=0.58
0.0081609382019687
% es.normE (V/m) @ t=0.6
1.7615799682257038
% es.EX (V/m) @ t=0.6
0.5437419251076249
% es.EY (V/m) @ t=0.6
0.13172663682040486
% es.EZ (V/m) @ t=0.6
1.6703641881333806
% es.tEX (V/m) @ t=0.6
0.5437419251076321
% es.tEY (V/m) @ t=0.6
0
% es.tEZ (V/m) @ t=0.6
1.6703641881333837
% es.Ex (V/m) @ t=0.6
0.5437419251076249
% es.Ey (V/m) @ t=0.6
0.13172663682040486
% es.Ez (V/m) @ t=0.6
1.6703641881333806
% es.tEx (V/m) @ t=0.6
0.5437419251076321
% es.tEy (V/m) @ t=0.6
0
% es.tEz (V/m) @ t=0.6
1.6703641881333837
% V (V) @ t=0.6
0.00823937248782869
% es.normE (V/m) @ t=0.62
1.778358598770145
% es.EX (V/m) @ t=0.62
0.5489202497186084
% es.EY (V/m) @ t=0.62
0.13298135887014673
% es.EZ (V/m) @ t=0.62
1.6862742280795033
% es.tEX (V/m) @ t=0.62
0.5489202497186056
% es.tEY (V/m) @ t=0.62
0
% es.tEZ (V/m) @ t=0.62
1.6862742280795064
% es.Ex (V/m) @ t=0.62
0.5489202497186084
% es.Ey (V/m) @ t=0.62
0.13298135887014673
% es.Ez (V/m) @ t=0.62
1.6862742280795033
% es.tEx (V/m) @ t=0.62
0.5489202497186056
% es.tEy (V/m) @ t=0.62
0
% es.tEz (V/m) @ t=0.62
1.6862742280795064
% V (V) @ t=0.62
0.00831780677368868
% es.normE (V/m) @ t=0.64
1.7951372293149392
% es.EX (V/m) @ t=0.64
0.5540985743296077
% es.EY (V/m) @ t=0.64
0.1342360809198726
% es.EZ (V/m) @ t=0.64
1.7021842680256074
% es.tEX (V/m) @ t=0.64
0.5540985743296076
% es.tEY (V/m) @ t=0.64
0
% es.tEZ (V/m) @ t=0.64
1.7021842680256114
% es.Ex (V/m) @ t=0.64
0.5540985743296077
% es.Ey (V/m) @ t=0.64
0.1342360809198726
% es.Ez (V/m) @ t=0.64
1.7021842680256074
% es.tEx (V/m) @ t=0.64
0.5540985743296076
% es.tEy (V/m) @ t=0.64
0
% es.tEz (V/m) @ t=0.64
1.7021842680256114
% V (V) @ t=0.64
0.008396241059548669
% es.normE (V/m) @ t=0.66
1.8119158598601073
% es.EX (V/m) @ t=0.66
0.5592768989405971
% es.EY (V/m) @ t=0.66
0.1354908029695936
% es.EZ (V/m) @ t=0.66
1.7180943079717332
% es.tEX (V/m) @ t=0.66
0.5592768989406025
% es.tEY (V/m) @ t=0.66
0
% es.tEZ (V/m) @ t=0.66
1.7180943079717288
% es.Ex (V/m) @ t=0.66
0.5592768989405971
% es.Ey (V/m) @ t=0.66
0.1354908029695936
% es.Ez (V/m) @ t=0.66
1.7180943079717332
% es.tEx (V/m) @ t=0.66
0.5592768989406025
% es.tEy (V/m) @ t=0.66
0
% es.tEz (V/m) @ t=0.66
1.7180943079717288
% V (V) @ t=0.66
0.00847467534540866
% es.normE (V/m) @ t=0.68
1.8286944904055829
% es.EX (V/m) @ t=0.68
0.5644552235515827
% es.EY (V/m) @ t=0.68
0.13674552501933301
% es.EZ (V/m) @ t=0.68
1.7340043479178173
% es.tEX (V/m) @ t=0.68
0.5644552235515903
% es.tEY (V/m) @ t=0.68
0
% es.tEZ (V/m) @ t=0.68
1.7340043479178338
% es.Ex (V/m) @ t=0.68
0.5644552235515827
% es.Ey (V/m) @ t=0.68
0.13674552501933301
% es.Ez (V/m) @ t=0.68
1.7340043479178173
% es.tEx (V/m) @ t=0.68
0.5644552235515903
% es.tEy (V/m) @ t=0.68
0
% es.tEz (V/m) @ t=0.68
1.7340043479178338
% V (V) @ t=0.68
0.00855310963126865
% es.normE (V/m) @ t=0.7
1.8454731209514175
% es.EX (V/m) @ t=0.7
0.5696335481625668
% es.EY (V/m) @ t=0.7
0.13800024706906644
% es.EZ (V/m) @ t=0.7
1.749914387863925
% es.tEX (V/m) @ t=0.7
0.569633548162571
% es.tEY (V/m) @ t=0.7
0
% es.tEZ (V/m) @ t=0.7
1.7499143878639352
% es.Ex (V/m) @ t=0.7
0.5696335481625668
% es.Ey (V/m) @ t=0.7
0.13800024706906644
% es.Ez (V/m) @ t=0.7
1.749914387863925
% es.tEx (V/m) @ t=0.7
0.569633548162571
% es.tEy (V/m) @ t=0.7
0
% es.tEz (V/m) @ t=0.7
1.7499143878639352
% V (V) @ t=0.7
0.008631543917128639
% es.normE (V/m) @ t=0.72
1.8622517514975891
% es.EX (V/m) @ t=0.72
0.5748118727735572
% es.EY (V/m) @ t=0.72
0.1392549691187972
% es.EZ (V/m) @ t=0.72
1.7658244278100406
% es.tEX (V/m) @ t=0.72
0.5748118727735658
% es.tEY (V/m) @ t=0.72
0
% es.tEZ (V/m) @ t=0.72
1.7658244278100454
% es.Ex (V/m) @ t=0.72
0.5748118727735572
% es.Ey (V/m) @ t=0.72
0.1392549691187972
% es.Ez (V/m) @ t=0.72
1.7658244278100406
% es.tEx (V/m) @ t=0.72
0.5748118727735658
% es.tEy (V/m) @ t=0.72
0
% es.tEz (V/m) @ t=0.72
1.7658244278100454
% V (V) @ t=0.72
0.00870997820298863
% es.normE (V/m) @ t=0.74
1.8790303820440806
% es.EX (V/m) @ t=0.74
0.5799901973845424
% es.EY (V/m) @ t=0.74
0.14050969116850698
% es.EZ (V/m) @ t=0.74
1.7817344677561597
% es.tEX (V/m) @ t=0.74
0.5799901973845394
% es.tEY (V/m) @ t=0.74
0
% es.tEZ (V/m) @ t=0.74
1.781734467756161
% es.Ex (V/m) @ t=0.74
0.5799901973845424
% es.Ey (V/m) @ t=0.74
0.14050969116850698
% es.Ez (V/m) @ t=0.74
1.7817344677561597
% es.tEx (V/m) @ t=0.74
0.5799901973845394
% es.tEy (V/m) @ t=0.74
0
% es.tEz (V/m) @ t=0.74
1.781734467756161
% V (V) @ t=0.74
0.008788412488848618
% es.normE (V/m) @ t=0.76
1.8958090125908738
% es.EX (V/m) @ t=0.76
0.5851685219955424
% es.EY (V/m) @ t=0.76
0.14176441321825417
% es.EZ (V/m) @ t=0.76
1.7976445077022611
% es.tEX (V/m) @ t=0.76
0.5851685219955485
% es.tEY (V/m) @ t=0.76
0
% es.tEZ (V/m) @ t=0.76
1.7976445077022731
% es.Ex (V/m) @ t=0.76
0.5851685219955424
% es.Ey (V/m) @ t=0.76
0.14176441321825417
% es.Ez (V/m) @ t=0.76
1.7976445077022611
% es.tEx (V/m) @ t=0.76
0.5851685219955485
% es.tEy (V/m) @ t=0.76
0
% es.tEz (V/m) @ t=0.76
1.7976445077022731
% V (V) @ t=0.76
0.008866846774708607
% es.normE (V/m) @ t=0.78
1.9125876431379643
% es.EX (V/m) @ t=0.78
0.5903468466065178
% es.EY (V/m) @ t=0.78
0.1430191352679857
% es.EZ (V/m) @ t=0.78
1.813554547648366
% es.tEX (V/m) @ t=0.78
0.5903468466065149
% es.tEY (V/m) @ t=0.78
0
% es.tEZ (V/m) @ t=0.78
1.8135545476483763
% es.Ex (V/m) @ t=0.78
0.5903468466065178
% es.Ey (V/m) @ t=0.78
0.1430191352679857
% es.Ez (V/m) @ t=0.78
1.813554547648366
% es.tEx (V/m) @ t=0.78
0.5903468466065149
% es.tEy (V/m) @ t=0.78
0
% es.tEz (V/m) @ t=0.78
1.8135545476483763
% V (V) @ t=0.78
0.008945281060568598
% es.normE (V/m) @ t=0.8
1.9293662736853534
% es.EX (V/m) @ t=0.8
0.5955251712175067
% es.EY (V/m) @ t=0.8
0.14427385731771325
% es.EZ (V/m) @ t=0.8
1.829464587594471
% es.tEX (V/m) @ t=0.8
0.5955251712175098
% es.tEY (V/m) @ t=0.8
0
% es.tEZ (V/m) @ t=0.8
1.8294645875944742
% es.Ex (V/m) @ t=0.8
0.5955251712175067
% es.Ey (V/m) @ t=0.8
0.14427385731771325
% es.Ez (V/m) @ t=0.8
1.829464587594471
% es.tEx (V/m) @ t=0.8
0.5955251712175098
% es.tEy (V/m) @ t=0.8
0
% es.tEz (V/m) @ t=0.8
1.8294645875944742
% V (V) @ t=0.8
0.009023715346428589
% es.normE (V/m) @ t=0.82
1.9463767678454118
% es.EX (V/m) @ t=0.82
0.600775166070104
% es.EY (V/m) @ t=0.82
0.14554590912720844
% es.EZ (V/m) @ t=0.82
1.8455944529191268
% es.tEX (V/m) @ t=0.82
0.6007751660701004
% es.tEY (V/m) @ t=0.82
0
% es.tEZ (V/m) @ t=0.82
1.8455944529191317
% es.Ex (V/m) @ t=0.82
0.600775166070104
% es.Ey (V/m) @ t=0.82
0.14554590912720844
% es.Ez (V/m) @ t=0.82
1.8455944529191268
% es.tEx (V/m) @ t=0.82
0.6007751660701004
% es.tEy (V/m) @ t=0.82
0
% es.tEz (V/m) @ t=0.82
1.8455944529191317
% V (V) @ t=0.82
0.009103240581439014
% es.normE (V/m) @ t=0.84
1.9651415981949758
% es.EX (V/m) @ t=0.84
0.6065674353109077
% es.EY (V/m) @ t=0.84
0.14694908209233215
% es.EZ (V/m) @ t=0.84
1.863387570243363
% es.tEX (V/m) @ t=0.84
0.6065674353109074
% es.tEY (V/m) @ t=0.84
0
% es.tEZ (V/m) @ t=0.84
1.8633875702433667
% es.Ex (V/m) @ t=0.84
0.6065674353109077
% es.Ey (V/m) @ t=0.84
0.14694908209233215
% es.Ez (V/m) @ t=0.84
1.863387570243363
% es.tEx (V/m) @ t=0.84
0.6065674353109074
% es.tEy (V/m) @ t=0.84
0
% es.tEz (V/m) @ t=0.84
1.8633875702433667
% V (V) @ t=0.84
0.00919102020167095
% es.normE (V/m) @ t=0.86
1.9839064285446122
% es.EX (V/m) @ t=0.86
0.612359704551722
% es.EY (V/m) @ t=0.86
0.14835225505742788
% es.EZ (V/m) @ t=0.86
1.881180687567627
% es.tEX (V/m) @ t=0.86
0.6123597045517286
% es.tEY (V/m) @ t=0.86
0
% es.tEZ (V/m) @ t=0.86
1.8811806875676247
% es.Ex (V/m) @ t=0.86
0.612359704551722
% es.Ey (V/m) @ t=0.86
0.14835225505742788
% es.Ez (V/m) @ t=0.86
1.881180687567627
% es.tEx (V/m) @ t=0.86
0.6123597045517286
% es.tEy (V/m) @ t=0.86
0
% es.tEz (V/m) @ t=0.86
1.8811806875676247
% V (V) @ t=0.86
0.009278799821902889
% es.normE (V/m) @ t=0.88
2.00267125889426
% es.EX (V/m) @ t=0.88
0.6181519737925222
% es.EY (V/m) @ t=0.88
0.14975542802250408
% es.EZ (V/m) @ t=0.88
1.8989738048918623
% es.tEX (V/m) @ t=0.88
0.6181519737925285
% es.tEY (V/m) @ t=0.88
0
% es.tEZ (V/m) @ t=0.88
1.898973804891872
% es.Ex (V/m) @ t=0.88
0.6181519737925222
% es.Ey (V/m) @ t=0.88
0.14975542802250408
% es.Ez (V/m) @ t=0.88
1.8989738048918623
% es.tEx (V/m) @ t=0.88
0.6181519737925285
% es.tEy (V/m) @ t=0.88
0
% es.tEz (V/m) @ t=0.88
1.898973804891872
% V (V) @ t=0.88
0.009366579442134825
% es.normE (V/m) @ t=0.9
2.0214360892439824
% es.EX (V/m) @ t=0.9
0.6239442430333335
% es.EY (V/m) @ t=0.9
0.15115860098758538
% es.EZ (V/m) @ t=0.9
1.9167669222161274
% es.tEX (V/m) @ t=0.9
0.6239442430333426
% es.tEY (V/m) @ t=0.9
0
% es.tEZ (V/m) @ t=0.9
1.9167669222161354
% es.Ex (V/m) @ t=0.9
0.6239442430333335
% es.Ey (V/m) @ t=0.9
0.15115860098758538
% es.Ez (V/m) @ t=0.9
1.9167669222161274
% es.tEx (V/m) @ t=0.9
0.6239442430333426
% es.tEy (V/m) @ t=0.9
0
% es.tEz (V/m) @ t=0.9
1.9167669222161354
% V (V) @ t=0.9
0.009454359062366764
% es.normE (V/m) @ t=0.92
2.0402009195937363
% es.EX (V/m) @ t=0.92
0.6297365122741352
% es.EY (V/m) @ t=0.92
0.15256177395268822
% es.EZ (V/m) @ t=0.92
1.9345600395403837
% es.tEX (V/m) @ t=0.92
0.6297365122741425
% es.tEY (V/m) @ t=0.92
0
% es.tEZ (V/m) @ t=0.92
1.9345600395403846
% es.Ex (V/m) @ t=0.92
0.6297365122741352
% es.Ey (V/m) @ t=0.92
0.15256177395268822
% es.Ez (V/m) @ t=0.92
1.9345600395403837
% es.tEx (V/m) @ t=0.92
0.6297365122741425
% es.tEy (V/m) @ t=0.92
0
% es.tEz (V/m) @ t=0.92
1.9345600395403846
% V (V) @ t=0.92
0.009542138682598702
% es.normE (V/m) @ t=0.94
2.0589657499435168
% es.EX (V/m) @ t=0.94
0.6355287815149475
% es.EY (V/m) @ t=0.94
0.15396494691778406
% es.EZ (V/m) @ t=0.94
1.9523531568646222
% es.tEX (V/m) @ t=0.94
0.6355287815149495
% es.tEY (V/m) @ t=0.94
0
% es.tEZ (V/m) @ t=0.94
1.9523531568646124
% es.Ex (V/m) @ t=0.94
0.6355287815149475
% es.Ey (V/m) @ t=0.94
0.15396494691778406
% es.Ez (V/m) @ t=0.94
1.9523531568646222
% es.tEx (V/m) @ t=0.94
0.6355287815149495
% es.tEy (V/m) @ t=0.94
0
% es.tEz (V/m) @ t=0.94
1.9523531568646124
% V (V) @ t=0.94
0.00962991830283064
% es.normE (V/m) @ t=0.96
2.0777305802933412
% es.EX (V/m) @ t=0.96
0.641321050755751
% es.EY (V/m) @ t=0.96
0.15536811988287447
% es.EZ (V/m) @ t=0.96
1.9701462741888682
% es.tEX (V/m) @ t=0.96
0.6413210507557494
% es.tEY (V/m) @ t=0.96
0
% es.tEZ (V/m) @ t=0.96
1.9701462741888829
% es.Ex (V/m) @ t=0.96
0.641321050755751
% es.Ey (V/m) @ t=0.96
0.15536811988287447
% es.Ez (V/m) @ t=0.96
1.9701462741888682
% es.tEx (V/m) @ t=0.96
0.6413210507557494
% es.tEy (V/m) @ t=0.96
0
% es.tEz (V/m) @ t=0.96
1.9701462741888829
% V (V) @ t=0.96
0.009717697923062579
% es.normE (V/m) @ t=0.98
2.0964954106432034
% es.EX (V/m) @ t=0.98
0.6471133199965564
% es.EY (V/m) @ t=0.98
0.15677129284795555
% es.EZ (V/m) @ t=0.98
1.9879393915131147
% es.tEX (V/m) @ t=0.98
0.6471133199965564
% es.tEY (V/m) @ t=0.98
0
% es.tEZ (V/m) @ t=0.98
1.9879393915131178
% es.Ex (V/m) @ t=0.98
0.6471133199965564
% es.Ey (V/m) @ t=0.98
0.15677129284795555
% es.Ez (V/m) @ t=0.98
1.9879393915131147
% es.tEx (V/m) @ t=0.98
0.6471133199965564
% es.tEy (V/m) @ t=0.98
0
% es.tEz (V/m) @ t=0.98
1.9879393915131178
% V (V) @ t=0.98
0.009805477543294513
% es.normE (V/m) @ t=1
2.115260240993118
% es.EX (V/m) @ t=1
0.6529055892373616
% es.EY (V/m) @ t=1
0.15817446581306016
% es.EZ (V/m) @ t=1
2.0057325088373754
% es.tEX (V/m) @ t=1
0.6529055892373634
% es.tEY (V/m) @ t=1
0
% es.tEZ (V/m) @ t=1
2.0057325088373723
% es.Ex (V/m) @ t=1
0.6529055892373616
% es.Ey (V/m) @ t=1
0.15817446581306016
% es.Ez (V/m) @ t=1
2.0057325088373754
% es.tEx (V/m) @ t=1
0.6529055892373634
% es.tEy (V/m) @ t=1
0
% es.tEz (V/m) @ t=1
2.0057325088373723
% V (V) @ t=1
0.009893257163526452
% es.normE (V/m) @ t=1.02
2.1340250713430455
% es.EX (V/m) @ t=1.02
0.6586978584781725
% es.EY (V/m) @ t=1.02
0.159577638778151
% es.EZ (V/m) @ t=1.02
2.023525626161611
% es.tEX (V/m) @ t=1.02
0.6586978584781704
% es.tEY (V/m) @ t=1.02
0
% es.tEZ (V/m) @ t=1.02
2.023525626161609
% es.Ex (V/m) @ t=1.02
0.6586978584781725
% es.Ey (V/m) @ t=1.02
0.159577638778151
% es.Ez (V/m) @ t=1.02
2.023525626161611
% es.tEx (V/m) @ t=1.02
0.6586978584781704
% es.tEy (V/m) @ t=1.02
0
% es.tEz (V/m) @ t=1.02
2.023525626161609
% V (V) @ t=1.02
0.00998103678375839
% es.normE (V/m) @ t=1.04
2.1527899016930294
% es.EX (V/m) @ t=1.04
0.6644901277189814
% es.EY (V/m) @ t=1.04
0.16098081174325518
% es.EZ (V/m) @ t=1.04
2.0413187434858675
% es.tEX (V/m) @ t=1.04
0.6644901277189916
% es.tEY (V/m) @ t=1.04
0
% es.tEZ (V/m) @ t=1.04
2.0413187434858795
% es.Ex (V/m) @ t=1.04
0.6644901277189814
% es.Ey (V/m) @ t=1.04
0.16098081174325518