% Model:              1 neuron.mph
% Version:            COMSOL 6.0.0.405
% Date:               Mar 16 2023, 17:13
% Dimension:          0
% Nodes:              14017
% Expressions:        14017
% Description:        Electric field norm, Electric field, X component, Electric field, Y component, Electric field, Z component, Tangential electric field, X component, Tangential electric field, Y component, Tangential electric field, Z component, Electric field, x component, Electric field, y component, Electric field, z component, Tangential electric field, x component, Tangential electric field, y component, Tangential electric field, z component, Electric potential
% Length unit:        mm
% x
1.66
% y
12.2
% z
1
% es.normE (V/m) @ t=0
1.4908042581465342
% es.EX (V/m) @ t=0
-0.5313792454800799
% es.EY (V/m) @ t=0
0.16881642813361142
% es.EZ (V/m) @ t=0
1.3783363044671302
% es.tEX (V/m) @ t=0
-0.5313792454800887
% es.tEY (V/m) @ t=0
0
% es.tEZ (V/m) @ t=0
1.3783363044671324
% es.Ex (V/m) @ t=0
-0.5313792454800799
% es.Ey (V/m) @ t=0
0.16881642813361142
% es.Ez (V/m) @ t=0
1.3783363044671302
% es.tEx (V/m) @ t=0
-0.5313792454800887
% es.tEy (V/m) @ t=0
0
% es.tEz (V/m) @ t=0
1.3783363044671324
% V (V) @ t=0
0.007258415160856345
% es.normE (V/m) @ t=0.02
1.2876351462444915
% es.EX (V/m) @ t=0.02
-0.45896205938362544
% es.EY (V/m) @ t=0.02
0.14580986640753668
% es.EZ (V/m) @ t=0.02
1.1904944991969315
% es.tEX (V/m) @ t=0.02
-0.4589620593836272
% es.tEY (V/m) @ t=0.02
0
% es.tEZ (V/m) @ t=0.02
1.1904944991969284
% es.Ex (V/m) @ t=0.02
-0.45896205938362544
% es.Ey (V/m) @ t=0.02
0.14580986640753668
% es.Ez (V/m) @ t=0.02
1.1904944991969315
% es.tEx (V/m) @ t=0.02
-0.4589620593836272
% es.tEy (V/m) @ t=0.02
0
% es.tEz (V/m) @ t=0.02
1.1904944991969284
% V (V) @ t=0.02
0.006269227021840401
% es.normE (V/m) @ t=0.04
1.2994780560418286
% es.EX (V/m) @ t=0.04
-0.4631833221340267
% es.EY (V/m) @ t=0.04
0.14715093954411285
% es.EZ (V/m) @ t=0.04
1.2014439665382137
% es.tEX (V/m) @ t=0.04
-0.463183322134032
% es.tEY (V/m) @ t=0.04
0
% es.tEZ (V/m) @ t=0.04
1.201443966538216
% es.Ex (V/m) @ t=0.04
-0.4631833221340267
% es.Ey (V/m) @ t=0.04
0.14715093954411285
% es.Ez (V/m) @ t=0.04
1.2014439665382137
% es.tEx (V/m) @ t=0.04
-0.463183322134032
% es.tEy (V/m) @ t=0.04
0
% es.tEz (V/m) @ t=0.04
1.201443966538216
% V (V) @ t=0.04
0.006326887685712638
% es.normE (V/m) @ t=0.06
1.3114266303121056
% es.EX (V/m) @ t=0.06
-0.467442247707329
% es.EY (V/m) @ t=0.06
0.14850397663771597
% es.EZ (V/m) @ t=0.06
1.2124911270090042
% es.tEX (V/m) @ t=0.06
-0.4674422477073361
% es.tEY (V/m) @ t=0.06
0
% es.tEZ (V/m) @ t=0.06
1.212491127009005
% es.Ex (V/m) @ t=0.06
-0.467442247707329
% es.Ey (V/m) @ t=0.06
0.14850397663771597
% es.Ez (V/m) @ t=0.06
1.2124911270090042
% es.tEx (V/m) @ t=0.06
-0.4674422477073361
% es.tEy (V/m) @ t=0.06
0
% es.tEz (V/m) @ t=0.06
1.212491127009005
% V (V) @ t=0.06
0.00638506285498029
% es.normE (V/m) @ t=0.08
1.3235601650891677
% es.EX (V/m) @ t=0.08
-0.47176710022861734
% es.EY (V/m) @ t=0.08
0.14987795821243122
% es.EZ (V/m) @ t=0.08
1.2237092943701748
% es.tEX (V/m) @ t=0.08
-0.4717671002286209
% es.tEY (V/m) @ t=0.08
0
% es.tEZ (V/m) @ t=0.08
1.223709294370174
% es.Ex (V/m) @ t=0.08
-0.47176710022861734
% es.Ey (V/m) @ t=0.08
0.14987795821243122
% es.Ez (V/m) @ t=0.08
1.2237092943701748
% es.tEx (V/m) @ t=0.08
-0.4717671002286209
% es.tEy (V/m) @ t=0.08
0
% es.tEz (V/m) @ t=0.08
1.223709294370174
% V (V) @ t=0.08
0.006444138564189026
% es.normE (V/m) @ t=0.1
1.3358169207712556
% es.EX (V/m) @ t=0.1
-0.47613587335941565
% es.EY (V/m) @ t=0.1
0.1512658930248647
% es.EZ (V/m) @ t=0.1
1.2350413867208752
% es.tEX (V/m) @ t=0.1
-0.47613587335942276
% es.tEY (V/m) @ t=0.1
0
% es.tEZ (V/m) @ t=0.1
1.2350413867208783
% es.Ex (V/m) @ t=0.1
-0.47613587335941565
% es.Ey (V/m) @ t=0.1
0.1512658930248647
% es.Ez (V/m) @ t=0.1
1.2350413867208752
% es.tEx (V/m) @ t=0.1
-0.47613587335942276
% es.tEy (V/m) @ t=0.1
0
% es.tEz (V/m) @ t=0.1
1.2350413867208783
% V (V) @ t=0.1
0.006503814214155293
% es.normE (V/m) @ t=0.12
1.3480736764533483
% es.EX (V/m) @ t=0.12
-0.4805046464902173
% es.EY (V/m) @ t=0.12
0.15265382783730386
% es.EZ (V/m) @ t=0.12
1.2463734790715795
% es.tEX (V/m) @ t=0.12
-0.4805046464902244
% es.tEY (V/m) @ t=0.12
0
% es.tEZ (V/m) @ t=0.12
1.2463734790715781
% es.Ex (V/m) @ t=0.12
-0.4805046464902173
% es.Ey (V/m) @ t=0.12
0.15265382783730386
% es.Ez (V/m) @ t=0.12
1.2463734790715795
% es.tEx (V/m) @ t=0.12
-0.4805046464902244
% es.tEy (V/m) @ t=0.12
0
% es.tEz (V/m) @ t=0.12
1.2463734790715781
% V (V) @ t=0.12
0.006563489864121564
% es.normE (V/m) @ t=0.14
1.3604675194352762
% es.EX (V/m) @ t=0.14
-0.48492228274114135
% es.EY (V/m) @ t=0.14
0.15405728614052894
% es.EZ (V/m) @ t=0.14
1.2578323167067804
% es.tEX (V/m) @ t=0.14
-0.48492228274115023
% es.tEY (V/m) @ t=0.14
0
% es.tEZ (V/m) @ t=0.14
1.2578323167067804
% es.Ex (V/m) @ t=0.14
-0.48492228274114135
% es.Ey (V/m) @ t=0.14
0.15405728614052894
% es.Ez (V/m) @ t=0.14
1.2578323167067804
% es.tEx (V/m) @ t=0.14
-0.48492228274115023
% es.tEy (V/m) @ t=0.14
0
% es.tEz (V/m) @ t=0.14
1.2578323167067804
% V (V) @ t=0.14
0.006623832966145374
% es.normE (V/m) @ t=0.16
1.3733762440752568
% es.EX (V/m) @ t=0.16
-0.4895234423697584
% es.EY (V/m) @ t=0.16
0.15551904860964239
% es.EZ (V/m) @ t=0.16
1.2697671927664866
% es.tEX (V/m) @ t=0.16
-0.48952344236976375
% es.tEY (V/m) @ t=0.16
0
% es.tEZ (V/m) @ t=0.16
1.2697671927664862
% es.Ex (V/m) @ t=0.16
-0.4895234423697584
% es.Ey (V/m) @ t=0.16
0.15551904860964239
% es.Ez (V/m) @ t=0.16
1.2697671927664866
% es.tEx (V/m) @ t=0.16
-0.48952344236976375
% es.tEy (V/m) @ t=0.16
0
% es.tEz (V/m) @ t=0.16
1.2697671927664862
% V (V) @ t=0.16
0.006686682929289552
% es.normE (V/m) @ t=0.18
1.3862849687152283
% es.EX (V/m) @ t=0.18
-0.49412460199836283
% es.EY (V/m) @ t=0.18
0.1569808110787615
% es.EZ (V/m) @ t=0.18
1.2817020688261866
% es.tEX (V/m) @ t=0.18
-0.49412460199836994
% es.tEY (V/m) @ t=0.18
0
% es.tEZ (V/m) @ t=0.18
1.2817020688261902
% es.Ex (V/m) @ t=0.18
-0.49412460199836283
% es.Ey (V/m) @ t=0.18
0.1569808110787615
% es.Ez (V/m) @ t=0.18
1.2817020688261866
% es.tEx (V/m) @ t=0.18
-0.49412460199836994
% es.tEy (V/m) @ t=0.18
0
% es.tEz (V/m) @ t=0.18
1.2817020688261902
% V (V) @ t=0.18
0.00674953289243373
% es.normE (V/m) @ t=0.2
1.3991936933552032
% es.EX (V/m) @ t=0.2
-0.4987257616269728
% es.EY (V/m) @ t=0.2
0.1584425735478856
% es.EZ (V/m) @ t=0.2
1.2936369448858884
% es.tEX (V/m) @ t=0.2
-0.4987257616269799
% es.tEY (V/m) @ t=0.2
0
% es.tEZ (V/m) @ t=0.2
1.293636944885887
% es.Ex (V/m) @ t=0.2
-0.4987257616269728
% es.Ey (V/m) @ t=0.2
0.1584425735478856
% es.Ez (V/m) @ t=0.2
1.2936369448858884
% es.tEx (V/m) @ t=0.2
-0.4987257616269799
% es.tEy (V/m) @ t=0.2
0
% es.tEz (V/m) @ t=0.2
1.293636944885887
% V (V) @ t=0.2
0.006812382855577908
% es.normE (V/m) @ t=0.22
1.4121024179951842
% es.EX (V/m) @ t=0.22
-0.5033269212555916
% es.EY (V/m) @ t=0.22
0.1599043360170026
% es.EZ (V/m) @ t=0.22
1.3055718209455938
% es.tEX (V/m) @ t=0.22
-0.503326921255597
% es.tEY (V/m) @ t=0.22
0
% es.tEZ (V/m) @ t=0.22
1.3055718209455964
% es.Ex (V/m) @ t=0.22
-0.5033269212555916
% es.Ey (V/m) @ t=0.22
0.1599043360170026
% es.Ez (V/m) @ t=0.22
1.3055718209455938
% es.tEx (V/m) @ t=0.22
-0.503326921255597
% es.tEy (V/m) @ t=0.22
0
% es.tEz (V/m) @ t=0.22
1.3055718209455964
% V (V) @ t=0.22
0.006875232818722086
% es.normE (V/m) @ t=0.24
1.4250111426351528
% es.EX (V/m) @ t=0.24
-0.5079280808841978
% es.EY (V/m) @ t=0.24
0.16136609848611416
% es.EZ (V/m) @ t=0.24
1.317506697005292
% es.tEX (V/m) @ t=0.24
-0.5079280808842067
% es.tEY (V/m) @ t=0.24
0
% es.tEZ (V/m) @ t=0.24
1.3175066970052942
% es.Ex (V/m) @ t=0.24
-0.5079280808841978
% es.Ey (V/m) @ t=0.24
0.16136609848611416
% es.Ez (V/m) @ t=0.24
1.317506697005292
% es.tEx (V/m) @ t=0.24
-0.5079280808842067
% es.tEy (V/m) @ t=0.24
0
% es.tEz (V/m) @ t=0.24
1.3175066970052942
% V (V) @ t=0.24
0.0069380827818662635
% es.normE (V/m) @ t=0.26
1.4379198672751308
% es.EX (V/m) @ t=0.26
-0.5125292405128042
% es.EY (V/m) @ t=0.26
0.16282786095524937
% es.EZ (V/m) @ t=0.26
1.3294415730649964
% es.tEX (V/m) @ t=0.26
-0.5125292405128131
% es.tEY (V/m) @ t=0.26
0
% es.tEZ (V/m) @ t=0.26
1.3294415730649947
% es.Ex (V/m) @ t=0.26
-0.5125292405128042
% es.Ey (V/m) @ t=0.26
0.16282786095524937
% es.Ez (V/m) @ t=0.26
1.3294415730649964
% es.tEx (V/m) @ t=0.26
-0.5125292405128131
% es.tEy (V/m) @ t=0.26
0
% es.tEz (V/m) @ t=0.26
1.3294415730649947
% V (V) @ t=0.26
0.007000932745010441
% es.normE (V/m) @ t=0.28
1.4514601558141234
% es.EX (V/m) @ t=0.28
-0.5173555140424404
% es.EY (V/m) @ t=0.28
0.1643606645099731
% es.EZ (V/m) @ t=0.28
1.341960403601684
% es.tEX (V/m) @ t=0.28
-0.5173555140424528
% es.tEY (V/m) @ t=0.28
0
% es.tEZ (V/m) @ t=0.28
1.3419604036016857
% es.Ex (V/m) @ t=0.28
-0.5173555140424404
% es.Ey (V/m) @ t=0.28
0.1643606645099731
% es.Ez (V/m) @ t=0.28
1.341960403601684
% es.tEx (V/m) @ t=0.28
-0.5173555140424528
% es.tEy (V/m) @ t=0.28
0
% es.tEz (V/m) @ t=0.28
1.3419604036016857
% V (V) @ t=0.28
0.007066874654677884
% es.normE (V/m) @ t=0.3
1.465836048613474
% es.EX (V/m) @ t=0.3
-0.5224796293817118
% es.EY (V/m) @ t=0.3
0.1659874605076167
% es.EZ (V/m) @ t=0.3
1.3552518477236553
% es.tEX (V/m) @ t=0.3
-0.5224796293817136
% es.tEY (V/m) @ t=0.3
0
% es.tEZ (V/m) @ t=0.3
1.355251847723654
% es.Ex (V/m) @ t=0.3
-0.5224796293817118
% es.Ey (V/m) @ t=0.3
0.1659874605076167
% es.Ez (V/m) @ t=0.3
1.3552518477236553
% es.tEx (V/m) @ t=0.3
-0.5224796293817136
% es.tEy (V/m) @ t=0.3
0
% es.tEz (V/m) @ t=0.3
1.355251847723654
% V (V) @ t=0.3
0.007136907430984787
% es.normE (V/m) @ t=0.32
1.4802119414139203
% es.EX (V/m) @ t=0.32
-0.5276037447209796
% es.EY (V/m) @ t=0.32
0.16761425650527517
% es.EZ (V/m) @ t=0.32
1.3685432918456293
% es.tEX (V/m) @ t=0.32
-0.5276037447209885
% es.tEY (V/m) @ t=0.32
0
% es.tEZ (V/m) @ t=0.32
1.3685432918456302
% es.Ex (V/m) @ t=0.32
-0.5276037447209796
% es.Ey (V/m) @ t=0.32
0.16761425650527517
% es.Ez (V/m) @ t=0.32
1.3685432918456293
% es.tEx (V/m) @ t=0.32
-0.5276037447209885
% es.tEy (V/m) @ t=0.32
0
% es.tEz (V/m) @ t=0.32
1.3685432918456302
% V (V) @ t=0.32
0.007206940207291692
% es.normE (V/m) @ t=0.34
1.4945878342154235
% es.EX (V/m) @ t=0.34
-0.5327278600602438
% es.EY (V/m) @ t=0.34
0.16924105250293875
% es.EZ (V/m) @ t=0.34
1.3818347359675984
% es.tEX (V/m) @ t=0.34
-0.5327278600602562
% es.tEY (V/m) @ t=0.34
0
% es.tEZ (V/m) @ t=0.34
1.3818347359676002
% es.Ex (V/m) @ t=0.34
-0.5327278600602438
% es.Ey (V/m) @ t=0.34
0.16924105250293875
% es.Ez (V/m) @ t=0.34
1.3818347359675984
% es.tEx (V/m) @ t=0.34
-0.5327278600602562
% es.tEy (V/m) @ t=0.34
0
% es.tEz (V/m) @ t=0.34
1.3818347359676002
% V (V) @ t=0.34
0.007276972983598597
% es.normE (V/m) @ t=0.36
1.5089637270179597
% es.EX (V/m) @ t=0.36
-0.5378519753995081
% es.EY (V/m) @ t=0.36
0.17086784850059678
% es.EZ (V/m) @ t=0.36
1.3951261800895707
% es.tEX (V/m) @ t=0.36
-0.537851975399517
% es.tEY (V/m) @ t=0.36
0
% es.tEZ (V/m) @ t=0.36
1.3951261800895747
% es.Ex (V/m) @ t=0.36
-0.5378519753995081
% es.Ey (V/m) @ t=0.36
0.17086784850059678
% es.Ez (V/m) @ t=0.36
1.3951261800895707
% es.tEx (V/m) @ t=0.36
-0.537851975399517
% es.tEy (V/m) @ t=0.36
0
% es.tEz (V/m) @ t=0.36
1.3951261800895747
% V (V) @ t=0.36
0.007347005759905502
% es.normE (V/m) @ t=0.38
1.5233396198215088
% es.EX (V/m) @ t=0.38
-0.542976090738776
% es.EY (V/m) @ t=0.38
0.1724946444982517
% es.EZ (V/m) @ t=0.38
1.4084176242115527
% es.tEX (V/m) @ t=0.38
-0.5429760907387848
% es.tEY (V/m) @ t=0.38
0
% es.tEZ (V/m) @ t=0.38
1.4084176242115536
% es.Ex (V/m) @ t=0.38
-0.542976090738776
% es.Ey (V/m) @ t=0.38
0.1724946444982517
% es.Ez (V/m) @ t=0.38
1.4084176242115527
% es.tEx (V/m) @ t=0.38
-0.5429760907387848
% es.tEy (V/m) @ t=0.38
0
% es.tEz (V/m) @ t=0.38
1.4084176242115536
% V (V) @ t=0.38
0.007417038536212404
% es.normE (V/m) @ t=0.4
1.5377155126260176
% es.EX (V/m) @ t=0.4
-0.5481002060780383
% es.EY (V/m) @ t=0.4
0.17412144049591527
% es.EZ (V/m) @ t=0.4
1.4217090683335214
% es.tEX (V/m) @ t=0.4
-0.5481002060780454
% es.tEY (V/m) @ t=0.4
0
% es.tEZ (V/m) @ t=0.4
1.4217090683335192
% es.Ex (V/m) @ t=0.4
-0.5481002060780383
% es.Ey (V/m) @ t=0.4
0.17412144049591527
% es.Ez (V/m) @ t=0.4
1.4217090683335214
% es.tEx (V/m) @ t=0.4
-0.5481002060780454
% es.tEy (V/m) @ t=0.4
0
% es.tEz (V/m) @ t=0.4
1.4217090683335192
% V (V) @ t=0.4
0.00748707131251931
% es.normE (V/m) @ t=0.42
1.552091405431483
% es.EX (V/m) @ t=0.42
-0.5532243214173062
% es.EY (V/m) @ t=0.42
0.17574823649356297
% es.EZ (V/m) @ t=0.42
1.4350005124554994
% es.tEX (V/m) @ t=0.42
-0.5532243214173133
% es.tEY (V/m) @ t=0.42
0
% es.tEZ (V/m) @ t=0.42
1.4350005124554972
% es.Ex (V/m) @ t=0.42
-0.5532243214173062
% es.Ey (V/m) @ t=0.42
0.17574823649356297
% es.Ez (V/m) @ t=0.42
1.4350005124554994
% es.tEx (V/m) @ t=0.42
-0.5532243214173133
% es.tEy (V/m) @ t=0.42
0
% es.tEz (V/m) @ t=0.42
1.4350005124554972
% V (V) @ t=0.42
0.007557104088826212
% es.normE (V/m) @ t=0.44
1.56646729823786
% es.EX (V/m) @ t=0.44
-0.5583484367565705
% es.EY (V/m) @ t=0.44
0.17737503249122422
% es.EZ (V/m) @ t=0.44
1.4482919565774672
% es.tEX (V/m) @ t=0.44
-0.5583484367565812
% es.tEY (V/m) @ t=0.44
0
% es.tEZ (V/m) @ t=0.44
1.4482919565774646
% es.Ex (V/m) @ t=0.44
-0.5583484367565705
% es.Ey (V/m) @ t=0.44
0.17737503249122422
% es.Ez (V/m) @ t=0.44
1.4482919565774672
% es.tEx (V/m) @ t=0.44
-0.5583484367565812
% es.tEy (V/m) @ t=0.44
0
% es.tEz (V/m) @ t=0.44
1.4482919565774646
% V (V) @ t=0.44
0.0076271368651331176
% es.normE (V/m) @ t=0.46
1.5808431910451384
% es.EX (V/m) @ t=0.46
-0.5634725520958418
% es.EY (V/m) @ t=0.46
0.17900182848888058
% es.EZ (V/m) @ t=0.46
1.4615834006994395
% es.tEX (V/m) @ t=0.46
-0.5634725520958489
% es.tEY (V/m) @ t=0.46
0
% es.tEZ (V/m) @ t=0.46
1.4615834006994417
% es.Ex (V/m) @ t=0.46
-0.5634725520958418
% es.Ey (V/m) @ t=0.46
0.17900182848888058
% es.Ez (V/m) @ t=0.46
1.4615834006994395
% es.tEx (V/m) @ t=0.46
-0.5634725520958489
% es.tEy (V/m) @ t=0.46
0
% es.tEz (V/m) @ t=0.46
1.4615834006994417
% V (V) @ t=0.46
0.00769716964144002
% es.normE (V/m) @ t=0.48
1.5952190838532894
% es.EX (V/m) @ t=0.48
-0.5685966674351097
% es.EY (V/m) @ t=0.48
0.18062862448653427
% es.EZ (V/m) @ t=0.48
1.474874844821414
% es.tEX (V/m) @ t=0.48
-0.5685966674351168
% es.tEY (V/m) @ t=0.48
0
% es.tEZ (V/m) @ t=0.48
1.4748748448214162
% es.Ex (V/m) @ t=0.48
-0.5685966674351097
% es.Ey (V/m) @ t=0.48
0.18062862448653427
% es.Ez (V/m) @ t=0.48
1.474874844821414
% es.tEx (V/m) @ t=0.48
-0.5685966674351168
% es.tEy (V/m) @ t=0.48
0
% es.tEz (V/m) @ t=0.48
1.4748748448214162
% V (V) @ t=0.48
0.007767202417746926
% es.normE (V/m) @ t=0.5
1.609594976662284
% es.EX (V/m) @ t=0.5
-0.5737207827743774
% es.EY (V/m) @ t=0.5
0.18225542048418664
% es.EZ (V/m) @ t=0.5
1.488166288943383
% es.tEX (V/m) @ t=0.5
-0.5737207827743845
% es.tEY (V/m) @ t=0.5
0
% es.tEZ (V/m) @ t=0.5
1.4881662889433844
% es.Ex (V/m) @ t=0.5
-0.5737207827743774
% es.Ey (V/m) @ t=0.5
0.18225542048418664
% es.Ez (V/m) @ t=0.5
1.488166288943383
% es.tEx (V/m) @ t=0.5
-0.5737207827743845
% es.tEy (V/m) @ t=0.5
0
% es.tEz (V/m) @ t=0.5
1.4881662889433844
% V (V) @ t=0.5
0.00783723519405383
% es.normE (V/m) @ t=0.52
1.6239708694721076
% es.EX (V/m) @ t=0.52
-0.5788448981136383
% es.EY (V/m) @ t=0.52
0.18388221648185188
% es.EZ (V/m) @ t=0.52
1.5014577330653585
% es.tEX (V/m) @ t=0.52
-0.5788448981136454
% es.tEY (V/m) @ t=0.52
0
% es.tEZ (V/m) @ t=0.52
1.5014577330653571
% es.Ex (V/m) @ t=0.52
-0.5788448981136383
% es.Ey (V/m) @ t=0.52
0.18388221648185188
% es.Ez (V/m) @ t=0.52
1.5014577330653585
% es.tEx (V/m) @ t=0.52
-0.5788448981136454
% es.tEy (V/m) @ t=0.52
0
% es.tEz (V/m) @ t=0.52
1.5014577330653571
% V (V) @ t=0.52
0.007907267970360735
% es.normE (V/m) @ t=0.54
1.6383467622827375
% es.EX (V/m) @ t=0.54
-0.5839690134529061
% es.EY (V/m) @ t=0.54
0.18550901247949825
% es.EZ (V/m) @ t=0.54
1.5147491771873347
% es.tEX (V/m) @ t=0.54
-0.5839690134529203
% es.tEY (V/m) @ t=0.54
0
% es.tEZ (V/m) @ t=0.54
1.5147491771873307
% es.Ex (V/m) @ t=0.54
-0.5839690134529061
% es.Ey (V/m) @ t=0.54
0.18550901247949825
% es.Ez (V/m) @ t=0.54
1.5147491771873347
% es.tEx (V/m) @ t=0.54
-0.5839690134529203
% es.tEy (V/m) @ t=0.54
0
% es.tEz (V/m) @ t=0.54
1.5147491771873307
% V (V) @ t=0.54
0.007977300746667637
% es.normE (V/m) @ t=0.56
1.6541660740265176
% es.EX (V/m) @ t=0.56
-0.5896076149772075
% es.EY (V/m) @ t=0.56
0.18730224597104772
% es.EZ (V/m) @ t=0.56
1.5293749183020595
% es.tEX (V/m) @ t=0.56
-0.5896076149772181
% es.tEY (V/m) @ t=0.56
0
% es.tEZ (V/m) @ t=0.56
1.529374918302059
% es.Ex (V/m) @ t=0.56
-0.5896076149772075
% es.Ey (V/m) @ t=0.56
0.18730224597104772
% es.Ez (V/m) @ t=0.56
1.5293749183020595
% es.tEx (V/m) @ t=0.56
-0.5896076149772181
% es.tEy (V/m) @ t=0.56
0
% es.tEz (V/m) @ t=0.56
1.529374918302059
% V (V) @ t=0.56
0.00805425466868064
% es.normE (V/m) @ t=0.58
1.6701994297470968
% es.EX (V/m) @ t=0.58
-0.5953225094364434
% es.EY (V/m) @ t=0.58
0.18912016040691015
% es.EZ (V/m) @ t=0.58
1.5441985217435357
% es.tEX (V/m) @ t=0.58
-0.5953225094364505
% es.tEY (V/m) @ t=0.58
0
% es.tEZ (V/m) @ t=0.58
1.5441985217435343
% es.Ex (V/m) @ t=0.58
-0.5953225094364434
% es.Ey (V/m) @ t=0.58
0.18912016040691015
% es.Ez (V/m) @ t=0.58
1.5441985217435357
% es.tEx (V/m) @ t=0.58
-0.5953225094364505
% es.tEy (V/m) @ t=0.58
0
% es.tEz (V/m) @ t=0.58
1.5441985217435343
% V (V) @ t=0.58
0.008132234924411416
% es.normE (V/m) @ t=0.6
1.6862327854723893
% es.EX (V/m) @ t=0.6
-0.6010374038956755
% es.EY (V/m) @ t=0.6
0.19093807484279024
% es.EZ (V/m) @ t=0.6
1.5590221251850012
% es.tEX (V/m) @ t=0.6
-0.6010374038956826
% es.tEY (V/m) @ t=0.6
0
% es.tEZ (V/m) @ t=0.6
1.559022125184998
% es.Ex (V/m) @ t=0.6
-0.6010374038956755
% es.Ey (V/m) @ t=0.6
0.19093807484279024
% es.Ez (V/m) @ t=0.6
1.5590221251850012
% es.tEx (V/m) @ t=0.6
-0.6010374038956826
% es.tEy (V/m) @ t=0.6
0
% es.tEz (V/m) @ t=0.6
1.559022125184998
% V (V) @ t=0.6
0.008210215180142193
% es.normE (V/m) @ t=0.62
1.7022661412022906
% es.EX (V/m) @ t=0.62
-0.6067522983549184
% es.EY (V/m) @ t=0.62
0.19275598927866144
% es.EZ (V/m) @ t=0.62
1.5738457286264835
% es.tEX (V/m) @ t=0.62
-0.6067522983549362
% es.tEY (V/m) @ t=0.62
0
% es.tEZ (V/m) @ t=0.62
1.5738457286264858
% es.Ex (V/m) @ t=0.62
-0.6067522983549184
% es.Ey (V/m) @ t=0.62
0.19275598927866144
% es.Ez (V/m) @ t=0.62
1.5738457286264835
% es.tEx (V/m) @ t=0.62
-0.6067522983549362
% es.tEy (V/m) @ t=0.62
0
% es.tEz (V/m) @ t=0.62
1.5738457286264858
% V (V) @ t=0.62
0.008288195435872966
% es.normE (V/m) @ t=0.64
1.718299496936639
% es.EX (V/m) @ t=0.64
-0.6124671928141647
% es.EY (V/m) @ t=0.64
0.19457390371453975
% es.EZ (V/m) @ t=0.64
1.58866933206795
% es.tEX (V/m) @ t=0.64
-0.6124671928141754
% es.tEY (V/m) @ t=0.64
0
% es.tEZ (V/m) @ t=0.64
1.5886693320679521
% es.Ex (V/m) @ t=0.64
-0.6124671928141647
% es.Ey (V/m) @ t=0.64
0.19457390371453975
% es.Ez (V/m) @ t=0.64
1.58866933206795
% es.tEx (V/m) @ t=0.64
-0.6124671928141754
% es.tEy (V/m) @ t=0.64
0
% es.tEz (V/m) @ t=0.64
1.5886693320679521
% V (V) @ t=0.64
0.008366175691603743
% es.normE (V/m) @ t=0.66
1.7343328526753259
% es.EX (V/m) @ t=0.66
-0.6181820872733864
% es.EY (V/m) @ t=0.66
0.19639181815041074
% es.EZ (V/m) @ t=0.66
1.6034929355094278
% es.tEX (V/m) @ t=0.66
-0.6181820872733935
% es.tEY (V/m) @ t=0.66
0
% es.tEZ (V/m) @ t=0.66
1.60349293550943
% es.Ex (V/m) @ t=0.66
-0.6181820872733864
% es.Ey (V/m) @ t=0.66
0.19639181815041074
% es.Ez (V/m) @ t=0.66
1.6034929355094278
% es.tEx (V/m) @ t=0.66
-0.6181820872733935
% es.tEy (V/m) @ t=0.66
0
% es.tEz (V/m) @ t=0.66
1.60349293550943
% V (V) @ t=0.66
0.008444155947334518
% es.normE (V/m) @ t=0.68
1.750366208418228
% es.EX (V/m) @ t=0.68
-0.6238969817326185
% es.EY (V/m) @ t=0.68
0.19820973258628372
% es.EZ (V/m) @ t=0.68
1.6183165389508978
% es.tEX (V/m) @ t=0.68
-0.6238969817326256
% es.tEY (V/m) @ t=0.68
0
% es.tEZ (V/m) @ t=0.68
1.6183165389509018
% es.Ex (V/m) @ t=0.68
-0.6238969817326185
% es.Ey (V/m) @ t=0.68
0.19820973258628372
% es.Ez (V/m) @ t=0.68
1.6183165389508978
% es.tEx (V/m) @ t=0.68
-0.6238969817326256
% es.tEy (V/m) @ t=0.68
0
% es.tEz (V/m) @ t=0.68
1.6183165389509018
% V (V) @ t=0.68
0.008522136203065295
% es.normE (V/m) @ t=0.7
1.766399564165246
% es.EX (V/m) @ t=0.7
-0.6296118761918651
% es.EY (V/m) @ t=0.7
0.20002764702216935
% es.EZ (V/m) @ t=0.7
1.6331401423923748
% es.tEX (V/m) @ t=0.7
-0.6296118761918722
% es.tEY (V/m) @ t=0.7
0
% es.tEZ (V/m) @ t=0.7
1.6331401423923761
% es.Ex (V/m) @ t=0.7
-0.6296118761918651
% es.Ey (V/m) @ t=0.7
0.20002764702216935
% es.Ez (V/m) @ t=0.7
1.6331401423923748
% es.tEx (V/m) @ t=0.7
-0.6296118761918722
% es.tEy (V/m) @ t=0.7
0
% es.tEz (V/m) @ t=0.7
1.6331401423923761
% V (V) @ t=0.7
0.00860011645879607
% es.normE (V/m) @ t=0.72
1.7824329199162494
% es.EX (V/m) @ t=0.72
-0.6353267706511043
% es.EY (V/m) @ t=0.72
0.20184556145803167
% es.EZ (V/m) @ t=0.72
1.64796374583385
% es.tEX (V/m) @ t=0.72
-0.6353267706511114
% es.tEY (V/m) @ t=0.72
0
% es.tEZ (V/m) @ t=0.72
1.6479637458338496
% es.Ex (V/m) @ t=0.72
-0.6353267706511043
% es.Ey (V/m) @ t=0.72
0.20184556145803167
% es.Ez (V/m) @ t=0.72
1.64796374583385
% es.tEx (V/m) @ t=0.72
-0.6353267706511114
% es.tEy (V/m) @ t=0.72
0
% es.tEz (V/m) @ t=0.72
1.6479637458338496
% V (V) @ t=0.72
0.008678096714526845
% es.normE (V/m) @ t=0.74
1.7984662756711316
% es.EX (V/m) @ t=0.74
-0.6410416651103295
% es.EY (V/m) @ t=0.74
0.20366347589389178
% es.EZ (V/m) @ t=0.74
1.6627873492753227
% es.tEX (V/m) @ t=0.74
-0.6410416651103366
% es.tEY (V/m) @ t=0.74
0
% es.tEZ (V/m) @ t=0.74
1.6627873492753258
% es.Ex (V/m) @ t=0.74
-0.6410416651103295
% es.Ey (V/m) @ t=0.74
0.20366347589389178
% es.Ez (V/m) @ t=0.74
1.6627873492753227
% es.tEx (V/m) @ t=0.74
-0.6410416651103366
% es.tEy (V/m) @ t=0.74
0
% es.tEz (V/m) @ t=0.74
1.6627873492753258
% V (V) @ t=0.74
0.00875607697025762
% es.normE (V/m) @ t=0.76
1.8144996314298072
% es.EX (V/m) @ t=0.76
-0.646756559569576
% es.EY (V/m) @ t=0.76
0.20548139032977053
% es.EZ (V/m) @ t=0.76
1.677610952716797
% es.tEX (V/m) @ t=0.76
-0.6467565595695831
% es.tEY (V/m) @ t=0.76
0
% es.tEZ (V/m) @ t=0.76
1.6776109527167993
% es.Ex (V/m) @ t=0.76
-0.646756559569576
% es.Ey (V/m) @ t=0.76
0.20548139032977053
% es.Ez (V/m) @ t=0.76
1.677610952716797
% es.tEx (V/m) @ t=0.76
-0.6467565595695831
% es.tEy (V/m) @ t=0.76
0
% es.tEz (V/m) @ t=0.76
1.6776109527167993
% V (V) @ t=0.76
0.008834057225988396
% es.normE (V/m) @ t=0.78
1.8305329871921614
% es.EX (V/m) @ t=0.78
-0.6524714540288117
% es.EY (V/m) @ t=0.78
0.20729930476565017
% es.EZ (V/m) @ t=0.78
1.6924345561582705
% es.tEX (V/m) @ t=0.78
-0.6524714540288223
% es.tEY (V/m) @ t=0.78
0
% es.tEZ (V/m) @ t=0.78
1.6924345561582719
% es.Ex (V/m) @ t=0.78
-0.6524714540288117
% es.Ey (V/m) @ t=0.78
0.20729930476565017
% es.Ez (V/m) @ t=0.78
1.6924345561582705
% es.tEx (V/m) @ t=0.78
-0.6524714540288223
% es.tEy (V/m) @ t=0.78
0
% es.tEz (V/m) @ t=0.78
1.6924345561582719
% V (V) @ t=0.78
0.008912037481719173
% es.normE (V/m) @ t=0.8
1.8465663429581005
% es.EX (V/m) @ t=0.8
-0.6581863484880546
% es.EY (V/m) @ t=0.8
0.20911721920152004
% es.EZ (V/m) @ t=0.8
1.7072581595997405
% es.tEX (V/m) @ t=0.8
-0.6581863484880688
% es.tEY (V/m) @ t=0.8
0
% es.tEZ (V/m) @ t=0.8
1.70725815959974
% es.Ex (V/m) @ t=0.8
-0.6581863484880546
% es.Ey (V/m) @ t=0.8
0.20911721920152004
% es.Ez (V/m) @ t=0.8
1.7072581595997405
% es.tEx (V/m) @ t=0.8
-0.6581863484880688
% es.tEy (V/m) @ t=0.8
0
% es.tEz (V/m) @ t=0.8
1.70725815959974
% V (V) @ t=0.8
0.00899001773744995
% es.normE (V/m) @ t=0.82
1.8631877102816294
% es.EX (V/m) @ t=0.82
-0.664110833651533
% es.EY (V/m) @ t=0.82
0.2110006229179846
% es.EZ (V/m) @ t=0.82
1.7226254983679152
% es.tEX (V/m) @ t=0.82
-0.6641108336515401
% es.tEY (V/m) @ t=0.82
0
% es.tEZ (V/m) @ t=0.82
1.7226254983679166
% es.Ex (V/m) @ t=0.82
-0.664110833651533
% es.Ey (V/m) @ t=0.82
0.2110006229179846
% es.Ez (V/m) @ t=0.82
1.7226254983679152
% es.tEx (V/m) @ t=0.82
-0.6641108336515401
% es.tEy (V/m) @ t=0.82
0
% es.tEz (V/m) @ t=0.82
1.7226254983679166
% V (V) @ t=0.82
0.009070900003087894
% es.normE (V/m) @ t=0.84
1.8811102210298378
% es.EX (V/m) @ t=0.84
-0.6704990980798913
% es.EY (V/m) @ t=0.84
0.21302894036294928
% es.EZ (V/m) @ t=0.84
1.7391960067661008
% es.tEX (V/m) @ t=0.84
-0.6704990980798984
% es.tEY (V/m) @ t=0.84
0
% es.tEZ (V/m) @ t=0.84
1.7391960067661012
% es.Ex (V/m) @ t=0.84
-0.6704990980798913
% es.Ey (V/m) @ t=0.84
0.21302894036294928
% es.Ez (V/m) @ t=0.84
1.7391960067661008
% es.tEx (V/m) @ t=0.84
-0.6704990980798984
% es.tEy (V/m) @ t=0.84
0
% es.tEz (V/m) @ t=0.84
1.7391960067661012
% V (V) @ t=0.84
0.009158203794080052
% es.normE (V/m) @ t=0.86
1.8990327317793407
% es.EX (V/m) @ t=0.86
-0.6768873625082354
% es.EY (V/m) @ t=0.86
0.2150572578079224
% es.EZ (V/m) @ t=0.86
1.7557665151642992
% es.tEX (V/m) @ t=0.86
-0.6768873625082426
% es.tEY (V/m) @ t=0.86
0
% es.tEZ (V/m) @ t=0.86
1.7557665151642965
% es.Ex (V/m) @ t=0.86
-0.6768873625082354
% es.Ey (V/m) @ t=0.86
0.2150572578079224
% es.Ez (V/m) @ t=0.86
1.7557665151642992
% es.tEx (V/m) @ t=0.86
-0.6768873625082426
% es.tEy (V/m) @ t=0.86
0
% es.tEz (V/m) @ t=0.86
1.7557665151642965
% V (V) @ t=0.86
0.009245507585072208
% es.normE (V/m) @ t=0.88
1.916955242530087
% es.EX (V/m) @ t=0.88
-0.6832756269365867
% es.EY (V/m) @ t=0.88
0.21708557525288663
% es.EZ (V/m) @ t=0.88
1.77233702356249
% es.tEX (V/m) @ t=0.88
-0.6832756269365938
% es.tEY (V/m) @ t=0.88
0
% es.tEZ (V/m) @ t=0.88
1.7723370235624927
% es.Ex (V/m) @ t=0.88
-0.6832756269365867
% es.Ey (V/m) @ t=0.88
0.21708557525288663
% es.Ez (V/m) @ t=0.88
1.77233702356249
% es.tEx (V/m) @ t=0.88
-0.6832756269365938
% es.tEy (V/m) @ t=0.88
0
% es.tEz (V/m) @ t=0.88
1.7723370235624927
% V (V) @ t=0.88
0.009332811376064367
% es.normE (V/m) @ t=0.9
1.9348777532820476
% es.EX (V/m) @ t=0.9
-0.6896638913649275
% es.EY (V/m) @ t=0.9
0.21911389269785708
% es.EZ (V/m) @ t=0.9
1.7889075319606826
% es.tEX (V/m) @ t=0.9
-0.6896638913649381
% es.tEY (V/m) @ t=0.9
0
% es.tEZ (V/m) @ t=0.9
1.788907531960687
% es.Ex (V/m) @ t=0.9
-0.6896638913649275
% es.Ey (V/m) @ t=0.9
0.21911389269785708
% es.Ez (V/m) @ t=0.9
1.7889075319606826
% es.tEx (V/m) @ t=0.9
-0.6896638913649381
% es.tEy (V/m) @ t=0.9
0
% es.tEz (V/m) @ t=0.9
1.788907531960687
% V (V) @ t=0.9
0.009420115167056526
% es.normE (V/m) @ t=0.92
1.952800264035191
% es.EX (V/m) @ t=0.92
-0.696052155793268
% es.EY (V/m) @ t=0.92
0.22114221014282198
% es.EZ (V/m) @ t=0.92
1.805478040358878
% es.tEX (V/m) @ t=0.92
-0.6960521557932822
% es.tEY (V/m) @ t=0.92
0
% es.tEZ (V/m) @ t=0.92
1.8054780403588744
% es.Ex (V/m) @ t=0.92
-0.696052155793268
% es.Ey (V/m) @ t=0.92
0.22114221014282198
% es.Ez (V/m) @ t=0.92
1.805478040358878
% es.tEx (V/m) @ t=0.92
-0.6960521557932822
% es.tEy (V/m) @ t=0.92
0
% es.tEz (V/m) @ t=0.92
1.8054780403588744
% V (V) @ t=0.92
0.009507418958048684
% es.normE (V/m) @ t=0.94
1.9707227747894915
% es.EX (V/m) @ t=0.94
-0.7024404202216333
% es.EY (V/m) @ t=0.94
0.22317052758778977
% es.EZ (V/m) @ t=0.94
1.8220485487570732
% es.tEX (V/m) @ t=0.94
-0.7024404202216404
% es.tEY (V/m) @ t=0.94
0
% es.tEZ (V/m) @ t=0.94
1.8220485487570741
% es.Ex (V/m) @ t=0.94
-0.7024404202216333
% es.Ey (V/m) @ t=0.94
0.22317052758778977
% es.Ez (V/m) @ t=0.94
1.8220485487570732
% es.tEx (V/m) @ t=0.94
-0.7024404202216404
% es.tEy (V/m) @ t=0.94
0
% es.tEz (V/m) @ t=0.94
1.8220485487570741
% V (V) @ t=0.94
0.009594722749040843
% es.normE (V/m) @ t=0.96
1.9886452855449024
% es.EX (V/m) @ t=0.96
-0.7088286846499775
% es.EY (V/m) @ t=0.96
0.22519884503274135
% es.EZ (V/m) @ t=0.96
1.8386190571552685
% es.tEX (V/m) @ t=0.96
-0.7088286846499917
% es.tEY (V/m) @ t=0.96
0
% es.tEZ (V/m) @ t=0.96
1.8386190571552685
% es.Ex (V/m) @ t=0.96
-0.7088286846499775
% es.Ey (V/m) @ t=0.96
0.22519884503274135
% es.Ez (V/m) @ t=0.96
1.8386190571552685
% es.tEx (V/m) @ t=0.96
-0.7088286846499917
% es.tEy (V/m) @ t=0.96
0
% es.tEz (V/m) @ t=0.96
1.8386190571552685
% V (V) @ t=0.96
0.009682026540033
% es.normE (V/m) @ t=0.98
2.006567796301401
% es.EX (V/m) @ t=0.98
-0.7152169490783253
% es.EY (V/m) @ t=0.98
0.22722716247771801
% es.EZ (V/m) @ t=0.98
1.8551895655534594
% es.tEX (V/m) @ t=0.98
-0.715216949078336
% es.tEY (V/m) @ t=0.98
0
% es.tEZ (V/m) @ t=0.98
1.8551895655534612
% es.Ex (V/m) @ t=0.98
-0.7152169490783253
% es.Ey (V/m) @ t=0.98
0.22722716247771801
% es.Ez (V/m) @ t=0.98
1.8551895655534594
% es.tEx (V/m) @ t=0.98
-0.715216949078336
% es.tEy (V/m) @ t=0.98
0
% es.tEz (V/m) @ t=0.98
1.8551895655534612
% V (V) @ t=0.98
0.009769330331025158
% es.normE (V/m) @ t=1
2.024490307058959
% es.EX (V/m) @ t=1
-0.721605213506673
% es.EY (V/m) @ t=1
0.22925547992267759
% es.EZ (V/m) @ t=1
1.871760073951653
% es.tEX (V/m) @ t=1
-0.7216052135066872
% es.tEY (V/m) @ t=1
0
% es.tEZ (V/m) @ t=1
1.8717600739516502
% es.Ex (V/m) @ t=1
-0.721605213506673
% es.Ey (V/m) @ t=1
0.22925547992267759
% es.Ez (V/m) @ t=1
1.871760073951653
% es.tEx (V/m) @ t=1
-0.7216052135066872
% es.tEy (V/m) @ t=1
0
% es.tEz (V/m) @ t=1
1.8717600739516502
% V (V) @ t=1
0.00985663412201732
% es.normE (V/m) @ t=1.02
2.0424128178175502
% es.EX (V/m) @ t=1.02
-0.7279934779350241
% es.EY (V/m) @ t=1.02
0.23128379736764892
% es.EZ (V/m) @ t=1.02
1.8883305823498455
% es.tEX (V/m) @ t=1.02
-0.7279934779350312
% es.tEY (V/m) @ t=1.02
0
% es.tEZ (V/m) @ t=1.02
1.8883305823498446
% es.Ex (V/m) @ t=1.02
-0.7279934779350241
% es.Ey (V/m) @ t=1.02
0.23128379736764892
% es.Ez (V/m) @ t=1.02
1.8883305823498455
% es.tEx (V/m) @ t=1.02
-0.7279934779350312
% es.tEy (V/m) @ t=1.02
0
% es.tEz (V/m) @ t=1.02
1.8883305823498446
% V (V) @ t=1.02
0.009943937913009477
% es.normE (V/m) @ t=1.04
2.0603353285771395
% es.EX (V/m) @ t=1.04
-0.7343817423633576
% es.EY (V/m) @ t=1.04
0.23331211481262182
% es.EZ (V/m) @ t=1.04
1.9049010907480382
% es.tEX (V/m) @ t=1.04