% Model:              1 neuron.mph
% Version:            COMSOL 6.0.0.405
% Date:               Mar 16 2023, 17:04
% Dimension:          0
% Nodes:              14017
% Expressions:        14017
% Description:        Electric field norm, Electric field, X component, Electric field, Y component, Electric field, Z component, Tangential electric field, X component, Tangential electric field, Y component, Tangential electric field, Z component, Electric field, x component, Electric field, y component, Electric field, z component, Tangential electric field, x component, Tangential electric field, y component, Tangential electric field, z component, Electric potential
% Length unit:        mm
% x
1.66
% y
12.2
% z
1.33
% es.normE (V/m) @ t=0
7.6103841124457
% es.EX (V/m) @ t=0
-4.228636992853187
% es.EY (V/m) @ t=0
-0.4564448380263879
% es.EZ (V/m) @ t=0
5.662117062996029
% es.tEX (V/m) @ t=0
-4.228636992853197
% es.tEY (V/m) @ t=0
0
% es.tEZ (V/m) @ t=0
5.662117062996025
% es.Ex (V/m) @ t=0
-4.228636992853187
% es.Ey (V/m) @ t=0
-0.4564448380263879
% es.Ez (V/m) @ t=0
5.662117062996029
% es.tEx (V/m) @ t=0
-4.228636992853197
% es.tEy (V/m) @ t=0
0
% es.tEz (V/m) @ t=0
5.662117062996025
% V (V) @ t=0
0.006250143008368284
% es.normE (V/m) @ t=0.02
6.573228401165858
% es.EX (V/m) @ t=0.02
-3.652351407789709
% es.EY (V/m) @ t=0.02
-0.3942397594193803
% es.EZ (V/m) @ t=0.02
4.8904743791039404
% es.tEX (V/m) @ t=0.02
-3.6523514077897117
% es.tEY (V/m) @ t=0.02
0
% es.tEZ (V/m) @ t=0.02
4.890474379103932
% es.Ex (V/m) @ t=0.02
-3.652351407789709
% es.Ey (V/m) @ t=0.02
-0.3942397594193803
% es.Ez (V/m) @ t=0.02
4.8904743791039404
% es.tEx (V/m) @ t=0.02
-3.6523514077897117
% es.tEy (V/m) @ t=0.02
0
% es.tEz (V/m) @ t=0.02
4.890474379103932
% V (V) @ t=0.02
0.005398363164758098
% es.normE (V/m) @ t=0.04
6.633681798116868
% es.EX (V/m) @ t=0.04
-3.685942153772036
% es.EY (V/m) @ t=0.04
-0.3978653532697545
% es.EZ (V/m) @ t=0.04
4.93545144081141
% es.tEX (V/m) @ t=0.04
-3.6859421537720385
% es.tEY (V/m) @ t=0.04
0
% es.tEZ (V/m) @ t=0.04
4.935451440811404
% es.Ex (V/m) @ t=0.04
-3.685942153772036
% es.Ey (V/m) @ t=0.04
-0.3978653532697545
% es.Ez (V/m) @ t=0.04
4.93545144081141
% es.tEx (V/m) @ t=0.04
-3.6859421537720385
% es.tEy (V/m) @ t=0.04
0
% es.tEz (V/m) @ t=0.04
4.935451440811404
% V (V) @ t=0.04
0.0054480111206810025
% es.normE (V/m) @ t=0.06
6.694683077665541
% es.EX (V/m) @ t=0.06
-3.7198377391357207
% es.EY (V/m) @ t=0.06
-0.4015236048424784
% es.EZ (V/m) @ t=0.06
4.980835920534662
% es.tEX (V/m) @ t=0.06
-3.71983773913572
% es.tEY (V/m) @ t=0.06
0
% es.tEZ (V/m) @ t=0.06
4.980835920534652
% es.Ex (V/m) @ t=0.06
-3.7198377391357207
% es.Ey (V/m) @ t=0.06
-0.4015236048424784
% es.Ez (V/m) @ t=0.06
4.980835920534662
% es.tEx (V/m) @ t=0.06
-3.71983773913572
% es.tEy (V/m) @ t=0.06
0
% es.tEz (V/m) @ t=0.06
4.980835920534652
% V (V) @ t=0.06
0.005498108707419522
% es.normE (V/m) @ t=0.08
6.756608198679732
% es.EX (V/m) @ t=0.08
-3.7542459094257365
% es.EY (V/m) @ t=0.08
-0.405237627482675
% es.EZ (V/m) @ t=0.08
5.0269081047102295
% es.tEX (V/m) @ t=0.08
-3.754245909425739
% es.tEY (V/m) @ t=0.08
0
% es.tEZ (V/m) @ t=0.08
5.026908104710219
% es.Ex (V/m) @ t=0.08
-3.7542459094257365
% es.Ey (V/m) @ t=0.08
-0.405237627482675
% es.Ez (V/m) @ t=0.08
5.0269081047102295
% es.tEx (V/m) @ t=0.08
-3.754245909425739
% es.tEy (V/m) @ t=0.08
0
% es.tEz (V/m) @ t=0.08
5.026908104710219
% V (V) @ t=0.08
0.00554896559403476
% es.normE (V/m) @ t=0.1
6.819193199648814
% es.EX (V/m) @ t=0.1
-3.789020208029661
% es.EY (V/m) @ t=0.1
-0.40899148618875514
% es.EZ (V/m) @ t=0.1
5.073471501285258
% es.tEX (V/m) @ t=0.1
-3.78902020802966
% es.tEY (V/m) @ t=0.1
0
% es.tEZ (V/m) @ t=0.1
5.073471501285248
% es.Ex (V/m) @ t=0.1
-3.789020208029661
% es.Ey (V/m) @ t=0.1
-0.40899148618875514
% es.Ez (V/m) @ t=0.1
5.073471501285258
% es.tEx (V/m) @ t=0.1
-3.78902020802966
% es.tEy (V/m) @ t=0.1
0
% es.tEz (V/m) @ t=0.1
5.073471501285248
% V (V) @ t=0.1
0.00560036483211086
% es.normE (V/m) @ t=0.12
6.881778200617967
% es.EX (V/m) @ t=0.12
-3.823794506633586
% es.EY (V/m) @ t=0.12
-0.41274534489485126
% es.EZ (V/m) @ t=0.12
5.1200348978602905
% es.tEX (V/m) @ t=0.12
-3.8237945066335923
% es.tEY (V/m) @ t=0.12
0
% es.tEZ (V/m) @ t=0.12
5.120034897860285
% es.Ex (V/m) @ t=0.12
-3.823794506633586
% es.Ey (V/m) @ t=0.12
-0.41274534489485126
% es.Ez (V/m) @ t=0.12
5.1200348978602905
% es.tEx (V/m) @ t=0.12
-3.8237945066335923
% es.tEy (V/m) @ t=0.12
0
% es.tEz (V/m) @ t=0.12
5.120034897860285
% V (V) @ t=0.12
0.005651764070186959
% es.normE (V/m) @ t=0.14
6.944954034313348
% es.EX (V/m) @ t=0.14
-3.858897267056676
% es.EY (V/m) @ t=0.14
-0.4165345558529532
% es.EZ (V/m) @ t=0.14
5.167037788060661
% es.tEX (V/m) @ t=0.14
-3.8588972670566823
% es.tEY (V/m) @ t=0.14
0
% es.tEZ (V/m) @ t=0.14
5.167037788060654
% es.Ex (V/m) @ t=0.14
-3.858897267056676
% es.Ey (V/m) @ t=0.14
-0.4165345558529532
% es.Ez (V/m) @ t=0.14
5.167037788060661
% es.tEx (V/m) @ t=0.14
-3.8588972670566823
% es.tEy (V/m) @ t=0.14
0
% es.tEz (V/m) @ t=0.14
5.167037788060654
% V (V) @ t=0.14
0.00570364840373184
% es.normE (V/m) @ t=0.16
7.0108836453672545
% es.EX (V/m) @ t=0.16
-3.8955309357734595
% es.EY (V/m) @ t=0.16
-0.4204885380344532
% es.EZ (V/m) @ t=0.16
5.2160890881425335
% es.tEX (V/m) @ t=0.16
-3.895530935773462
% es.tEY (V/m) @ t=0.16
0
% es.tEZ (V/m) @ t=0.16
5.216089088142523
% es.Ex (V/m) @ t=0.16
-3.8955309357734595
% es.Ey (V/m) @ t=0.16
-0.4204885380344532
% es.Ez (V/m) @ t=0.16
5.2160890881425335
% es.tEx (V/m) @ t=0.16
-3.895530935773462
% es.tEy (V/m) @ t=0.16
0
% es.tEz (V/m) @ t=0.16
5.216089088142523
% V (V) @ t=0.16
0.005757793690097089
% es.normE (V/m) @ t=0.18
7.07681325642122
% es.EX (V/m) @ t=0.18
-3.932164604490236
% es.EY (V/m) @ t=0.18
-0.42444252021596385
% es.EZ (V/m) @ t=0.18
5.265140388224414
% es.tEX (V/m) @ t=0.18
-3.932164604490235
% es.tEY (V/m) @ t=0.18
0
% es.tEZ (V/m) @ t=0.18
5.265140388224409
% es.Ex (V/m) @ t=0.18
-3.932164604490236
% es.Ey (V/m) @ t=0.18
-0.42444252021596385
% es.Ez (V/m) @ t=0.18
5.265140388224414
% es.tEx (V/m) @ t=0.18
-3.932164604490235
% es.tEy (V/m) @ t=0.18
0
% es.tEz (V/m) @ t=0.18
5.265140388224409
% V (V) @ t=0.18
0.005811938976462339
% es.normE (V/m) @ t=0.2
7.142742867475247
% es.EX (V/m) @ t=0.2
-3.9687982732070166
% es.EY (V/m) @ t=0.2
-0.42839650239747806
% es.EZ (V/m) @ t=0.2
5.314191688306288
% es.tEX (V/m) @ t=0.2
-3.9687982732070193
% es.tEY (V/m) @ t=0.2
0
% es.tEZ (V/m) @ t=0.2
5.314191688306282
% es.Ex (V/m) @ t=0.2
-3.9687982732070166
% es.Ey (V/m) @ t=0.2
-0.42839650239747806
% es.Ez (V/m) @ t=0.2
5.314191688306288
% es.tEx (V/m) @ t=0.2
-3.9687982732070193
% es.tEy (V/m) @ t=0.2
0
% es.tEz (V/m) @ t=0.2
5.314191688306282
% V (V) @ t=0.2
0.0058660842628275875
% es.normE (V/m) @ t=0.22
7.20867247852933
% es.EX (V/m) @ t=0.22
-4.0054319419238
% es.EY (V/m) @ t=0.22
-0.4323504845789836
% es.EZ (V/m) @ t=0.22
5.363242988388163
% es.tEX (V/m) @ t=0.22
-4.005431941923806
% es.tEY (V/m) @ t=0.22
0
% es.tEZ (V/m) @ t=0.22
5.363242988388157
% es.Ex (V/m) @ t=0.22
-4.0054319419238
% es.Ey (V/m) @ t=0.22
-0.4323504845789836
% es.Ez (V/m) @ t=0.22
5.363242988388163
% es.tEx (V/m) @ t=0.22
-4.005431941923806
% es.tEy (V/m) @ t=0.22
0
% es.tEz (V/m) @ t=0.22
5.363242988388157
% V (V) @ t=0.22
0.005920229549192838
% es.normE (V/m) @ t=0.24
7.274602089583458
% es.EX (V/m) @ t=0.24
-4.042065610640576
% es.EY (V/m) @ t=0.24
-0.4363044667605047
% es.EZ (V/m) @ t=0.24
5.412294288470036
% es.tEX (V/m) @ t=0.24
-4.042065610640583
% es.tEY (V/m) @ t=0.24
0
% es.tEZ (V/m) @ t=0.24
5.412294288470028
% es.Ex (V/m) @ t=0.24
-4.042065610640576
% es.Ey (V/m) @ t=0.24
-0.4363044667605047
% es.Ez (V/m) @ t=0.24
5.412294288470036
% es.tEx (V/m) @ t=0.24
-4.042065610640583
% es.tEy (V/m) @ t=0.24
0
% es.tEz (V/m) @ t=0.24
5.412294288470028
% V (V) @ t=0.24
0.005974374835558087
% es.normE (V/m) @ t=0.26
7.340531700637662
% es.EX (V/m) @ t=0.26
-4.078699279357356
% es.EY (V/m) @ t=0.26
-0.4402584489420067
% es.EZ (V/m) @ t=0.26
5.461345588551921
% es.tEX (V/m) @ t=0.26
-4.0786992793573695
% es.tEY (V/m) @ t=0.26
0
% es.tEZ (V/m) @ t=0.26
5.461345588551913
% es.Ex (V/m) @ t=0.26
-4.078699279357356
% es.Ey (V/m) @ t=0.26
-0.4402584489420067
% es.Ez (V/m) @ t=0.26
5.461345588551921
% es.tEx (V/m) @ t=0.26
-4.0786992793573695
% es.tEy (V/m) @ t=0.26
0
% es.tEz (V/m) @ t=0.26
5.461345588551913
% V (V) @ t=0.26
0.006028520121923337
% es.normE (V/m) @ t=0.28
7.409194568863153
% es.EX (V/m) @ t=0.28
-4.116852874444417
% es.EY (V/m) @ t=0.28
-0.44437576696069825
% es.EZ (V/m) @ t=0.28
5.512429821977195
% es.tEX (V/m) @ t=0.28
-4.116852874444434
% es.tEY (V/m) @ t=0.28
0
% es.tEZ (V/m) @ t=0.28
5.512429821977182
% es.Ex (V/m) @ t=0.28
-4.116852874444417
% es.Ey (V/m) @ t=0.28
-0.44437576696069825
% es.Ez (V/m) @ t=0.28
5.512429821977195
% es.tEx (V/m) @ t=0.28
-4.116852874444434
% es.tEy (V/m) @ t=0.28
0
% es.tEz (V/m) @ t=0.28
5.512429821977182
% V (V) @ t=0.28
0.006084909176828294
% es.normE (V/m) @ t=0.3
7.482647908672281
% es.EX (V/m) @ t=0.3
-4.15767038427736
% es.EY (V/m) @ t=0.3
-0.4487793572315453
% es.EZ (V/m) @ t=0.3
5.5670770971502215
% es.tEX (V/m) @ t=0.3
-4.157670384277362
% es.tEY (V/m) @ t=0.3
0
% es.tEZ (V/m) @ t=0.3
5.567077097150211
% es.Ex (V/m) @ t=0.3
-4.15767038427736
% es.Ey (V/m) @ t=0.3
-0.4487793572315453
% es.Ez (V/m) @ t=0.3
5.5670770971502215
% es.tEx (V/m) @ t=0.3
-4.157670384277362
% es.tEy (V/m) @ t=0.3
0
% es.tEz (V/m) @ t=0.3
5.567077097150211
% V (V) @ t=0.3
0.006145230795978557
% es.normE (V/m) @ t=0.32
7.556101248484513
% es.EX (V/m) @ t=0.32
-4.198487894110297
% es.EY (V/m) @ t=0.32
-0.45318294750240673
% es.EZ (V/m) @ t=0.32
5.621724372323253
% es.tEX (V/m) @ t=0.32
-4.19848789411031
% es.tEY (V/m) @ t=0.32
0
% es.tEZ (V/m) @ t=0.32
5.621724372323248
% es.Ex (V/m) @ t=0.32
-4.198487894110297
% es.Ey (V/m) @ t=0.32
-0.45318294750240673
% es.Ez (V/m) @ t=0.32
5.621724372323253
% es.tEx (V/m) @ t=0.32
-4.19848789411031
% es.tEy (V/m) @ t=0.32
0
% es.tEz (V/m) @ t=0.32
5.621724372323248
% V (V) @ t=0.32
0.006205552415128823
% es.normE (V/m) @ t=0.34
7.629554588299783
% es.EX (V/m) @ t=0.34
-4.239305403943222
% es.EY (V/m) @ t=0.34
-0.4575865377732773
% es.EZ (V/m) @ t=0.34
5.676371647496305
% es.tEX (V/m) @ t=0.34
-4.239305403943228
% es.tEY (V/m) @ t=0.34
0
% es.tEZ (V/m) @ t=0.34
5.6763716474963
% es.Ex (V/m) @ t=0.34
-4.239305403943222
% es.Ey (V/m) @ t=0.34
-0.4575865377732773
% es.Ez (V/m) @ t=0.34
5.676371647496305
% es.tEx (V/m) @ t=0.34
-4.239305403943228
% es.tEy (V/m) @ t=0.34
0
% es.tEz (V/m) @ t=0.34
5.6763716474963
% V (V) @ t=0.34
0.006265874034279088
% es.normE (V/m) @ t=0.36
7.703007928117977
% es.EX (V/m) @ t=0.36
-4.280122913776172
% es.EY (V/m) @ t=0.36
-0.4619901280441405
% es.EZ (V/m) @ t=0.36
5.731018922669334
% es.tEX (V/m) @ t=0.36
-4.280122913776174
% es.tEY (V/m) @ t=0.36
0
% es.tEZ (V/m) @ t=0.36
5.731018922669326
% es.Ex (V/m) @ t=0.36
-4.280122913776172
% es.Ey (V/m) @ t=0.36
-0.4619901280441405
% es.Ez (V/m) @ t=0.36
5.731018922669334
% es.tEx (V/m) @ t=0.36
-4.280122913776174
% es.tEy (V/m) @ t=0.36
0
% es.tEz (V/m) @ t=0.36
5.731018922669326
% V (V) @ t=0.36
0.006326195653429354
% es.normE (V/m) @ t=0.38
7.776461267939004
% es.EX (V/m) @ t=0.38
-4.3209404236091125
% es.EY (V/m) @ t=0.38
-0.466393718315002
% es.EZ (V/m) @ t=0.38
5.78566619784236
% es.tEX (V/m) @ t=0.38
-4.320940423609115
% es.tEY (V/m) @ t=0.38
0
% es.tEZ (V/m) @ t=0.38
5.78566619784235
% es.Ex (V/m) @ t=0.38
-4.3209404236091125
% es.Ey (V/m) @ t=0.38
-0.466393718315002
% es.Ez (V/m) @ t=0.38
5.78566619784236
% es.tEx (V/m) @ t=0.38
-4.320940423609115
% es.tEy (V/m) @ t=0.38
0
% es.tEz (V/m) @ t=0.38
5.78566619784235
% V (V) @ t=0.38
0.006386517272579619
% es.normE (V/m) @ t=0.4
7.849914607762813
% es.EX (V/m) @ t=0.4
-4.361757933442041
% es.EY (V/m) @ t=0.4
-0.4707973085858759
% es.EZ (V/m) @ t=0.4
5.840313473015401
% es.tEX (V/m) @ t=0.4
-4.361757933442051
% es.tEY (V/m) @ t=0.4
0
% es.tEZ (V/m) @ t=0.4
5.840313473015393
% es.Ex (V/m) @ t=0.4
-4.361757933442041
% es.Ey (V/m) @ t=0.4
-0.4707973085858759
% es.Ez (V/m) @ t=0.4
5.840313473015401
% es.tEx (V/m) @ t=0.4
-4.361757933442051
% es.tEy (V/m) @ t=0.4
0
% es.tEz (V/m) @ t=0.4
5.840313473015393
% V (V) @ t=0.4
0.006446838891729883
% es.normE (V/m) @ t=0.42
7.923367947589293
% es.EX (V/m) @ t=0.42
-4.402575443274979
% es.EY (V/m) @ t=0.42
-0.4752008988567178
% es.EZ (V/m) @ t=0.42
5.894960748188432
% es.tEX (V/m) @ t=0.42
-4.402575443274992
% es.tEY (V/m) @ t=0.42
0
% es.tEZ (V/m) @ t=0.42
5.8949607481884225
% es.Ex (V/m) @ t=0.42
-4.402575443274979
% es.Ey (V/m) @ t=0.42
-0.4752008988567178
% es.Ez (V/m) @ t=0.42
5.894960748188432
% es.tEx (V/m) @ t=0.42
-4.402575443274992
% es.tEy (V/m) @ t=0.42
0
% es.tEz (V/m) @ t=0.42
5.8949607481884225
% V (V) @ t=0.42
0.0065071605108801495
% es.normE (V/m) @ t=0.44
7.996821287418426
% es.EX (V/m) @ t=0.44
-4.4433929531079315
% es.EY (V/m) @ t=0.44
-0.4796044891275937
% es.EZ (V/m) @ t=0.44
5.949608023361481
% es.tEX (V/m) @ t=0.44
-4.443392953107938
% es.tEY (V/m) @ t=0.44
0
% es.tEZ (V/m) @ t=0.44
5.949608023361469
% es.Ex (V/m) @ t=0.44
-4.4433929531079315
% es.Ey (V/m) @ t=0.44
-0.4796044891275937
% es.Ez (V/m) @ t=0.44
5.949608023361481
% es.tEx (V/m) @ t=0.44
-4.443392953107938
% es.tEy (V/m) @ t=0.44
0
% es.tEz (V/m) @ t=0.44
5.949608023361469
% V (V) @ t=0.44
0.006567482130030413
% es.normE (V/m) @ t=0.46
8.070274627250072
% es.EX (V/m) @ t=0.46
-4.484210462940852
% es.EY (V/m) @ t=0.46
-0.48400807939846224
% es.EZ (V/m) @ t=0.46
6.004255298534516
% es.tEX (V/m) @ t=0.46
-4.484210462940862
% es.tEY (V/m) @ t=0.46
0
% es.tEZ (V/m) @ t=0.46
6.00425529853451
% es.Ex (V/m) @ t=0.46
-4.484210462940852
% es.Ey (V/m) @ t=0.46
-0.48400807939846224
% es.Ez (V/m) @ t=0.46
6.004255298534516
% es.tEx (V/m) @ t=0.46
-4.484210462940862
% es.tEy (V/m) @ t=0.46
0
% es.tEz (V/m) @ t=0.46
6.00425529853451
% V (V) @ t=0.46
0.006627803749180678
% es.normE (V/m) @ t=0.48
8.143727967084198
% es.EX (V/m) @ t=0.48
-4.525027972773794
% es.EY (V/m) @ t=0.48
-0.48841166966931304
% es.EZ (V/m) @ t=0.48
6.058902573707545
% es.tEX (V/m) @ t=0.48
-4.525027972773796
% es.tEY (V/m) @ t=0.48
0
% es.tEZ (V/m) @ t=0.48
6.058902573707531
% es.Ex (V/m) @ t=0.48
-4.525027972773794
% es.Ey (V/m) @ t=0.48
-0.48841166966931304
% es.Ez (V/m) @ t=0.48
6.058902573707545
% es.tEx (V/m) @ t=0.48
-4.525027972773796
% es.tEy (V/m) @ t=0.48
0
% es.tEz (V/m) @ t=0.48
6.058902573707531
% V (V) @ t=0.48
0.0066881253683309435
% es.normE (V/m) @ t=0.5
8.217181306920738
% es.EX (V/m) @ t=0.5
-4.565845482606732
% es.EY (V/m) @ t=0.5
-0.4928152599401905
% es.EZ (V/m) @ t=0.5
6.1135498488805835
% es.tEX (V/m) @ t=0.5
-4.565845482606738
% es.tEY (V/m) @ t=0.5
0
% es.tEZ (V/m) @ t=0.5
6.113549848880572
% es.Ex (V/m) @ t=0.5
-4.565845482606732
% es.Ey (V/m) @ t=0.5
-0.4928152599401905
% es.Ez (V/m) @ t=0.5
6.1135498488805835
% es.tEx (V/m) @ t=0.5
-4.565845482606738
% es.tEy (V/m) @ t=0.5
0
% es.tEz (V/m) @ t=0.5
6.113549848880572
% V (V) @ t=0.5
0.006748446987481208
% es.normE (V/m) @ t=0.52
8.290634646759624
% es.EX (V/m) @ t=0.52
-4.60666299243967
% es.EY (V/m) @ t=0.52
-0.49721885021105194
% es.EZ (V/m) @ t=0.52
6.168197124053618
% es.tEX (V/m) @ t=0.52
-4.606662992439673
% es.tEY (V/m) @ t=0.52
0
% es.tEZ (V/m) @ t=0.52
6.168197124053613
% es.Ex (V/m) @ t=0.52
-4.60666299243967
% es.Ey (V/m) @ t=0.52
-0.49721885021105194
% es.Ez (V/m) @ t=0.52
6.168197124053618
% es.tEx (V/m) @ t=0.52
-4.606662992439673
% es.tEy (V/m) @ t=0.52
0
% es.tEz (V/m) @ t=0.52
6.168197124053613
% V (V) @ t=0.52
0.006808768606631473
% es.normE (V/m) @ t=0.54
8.364087986600794
% es.EX (V/m) @ t=0.54
-4.64748050227262
% es.EY (V/m) @ t=0.54
-0.5016224404819116
% es.EZ (V/m) @ t=0.54
6.2228443992266484
% es.tEX (V/m) @ t=0.54
-4.647480502272626
% es.tEY (V/m) @ t=0.54
0
% es.tEZ (V/m) @ t=0.54
6.222844399226635
% es.Ex (V/m) @ t=0.54
-4.64748050227262
% es.Ey (V/m) @ t=0.54
-0.5016224404819116
% es.Ez (V/m) @ t=0.54
6.2228443992266484
% es.tEx (V/m) @ t=0.54
-4.647480502272626
% es.tEy (V/m) @ t=0.54
0
% es.tEz (V/m) @ t=0.54
6.222844399226635
% V (V) @ t=0.54
0.006869090225781739
% es.normE (V/m) @ t=0.56
8.44384011958905
% es.EX (V/m) @ t=0.56
-4.691792052758659
% es.EY (V/m) @ t=0.56
-0.5064066604599262
% es.EZ (V/m) @ t=0.56
6.282180868984801
% es.tEX (V/m) @ t=0.56
-4.691792052758669
% es.tEY (V/m) @ t=0.56
0
% es.tEZ (V/m) @ t=0.56
6.2821808689847956
% es.Ex (V/m) @ t=0.56
-4.691792052758659
% es.Ey (V/m) @ t=0.56
-0.5064066604599262
% es.Ez (V/m) @ t=0.56
6.282180868984801
% es.tEx (V/m) @ t=0.56
-4.691792052758669
% es.tEy (V/m) @ t=0.56
0
% es.tEz (V/m) @ t=0.56
6.2821808689847956
% V (V) @ t=0.56
0.006934589411292105
% es.normE (V/m) @ t=0.58
8.525845207640856
% es.EX (V/m) @ t=0.58
-4.737353353218623
% es.EY (V/m) @ t=0.58
-0.5113270242364261
% es.EZ (V/m) @ t=0.58
6.343194571892847
% es.tEX (V/m) @ t=0.58
-4.737353353218626
% es.tEY (V/m) @ t=0.58
0
% es.tEZ (V/m) @ t=0.58
6.343194571892845
% es.Ex (V/m) @ t=0.58
-4.737353353218623
% es.Ey (V/m) @ t=0.58
-0.5113270242364261
% es.Ez (V/m) @ t=0.58
6.343194571892847
% es.tEx (V/m) @ t=0.58
-4.737353353218626
% es.tEy (V/m) @ t=0.58
0
% es.tEz (V/m) @ t=0.58
6.343194571892845
% V (V) @ t=0.58
0.007001940510980323
% es.normE (V/m) @ t=0.6
8.607850295696547
% es.EX (V/m) @ t=0.6
-4.782914653678588
% es.EY (V/m) @ t=0.6
-0.5162473880129221
% es.EZ (V/m) @ t=0.6
6.404208274800891
% es.tEX (V/m) @ t=0.6
-4.782914653678601
% es.tEY (V/m) @ t=0.6
0
% es.tEZ (V/m) @ t=0.6
6.40420827480088
% es.Ex (V/m) @ t=0.6
-4.782914653678588
% es.Ey (V/m) @ t=0.6
-0.5162473880129221
% es.Ez (V/m) @ t=0.6
6.404208274800891
% es.tEx (V/m) @ t=0.6
-4.782914653678601
% es.tEy (V/m) @ t=0.6
0
% es.tEz (V/m) @ t=0.6
6.40420827480088
% V (V) @ t=0.6
0.0070692916106685376
% es.normE (V/m) @ t=0.62
8.689855383756012
% es.EX (V/m) @ t=0.62
-4.828475954138541
% es.EY (V/m) @ t=0.62
-0.5211677517894113
% es.EZ (V/m) @ t=0.62
6.465221977708935
% es.tEX (V/m) @ t=0.62
-4.828475954138547
% es.tEY (V/m) @ t=0.62
0
% es.tEZ (V/m) @ t=0.62
6.465221977708925
% es.Ex (V/m) @ t=0.62
-4.828475954138541
% es.Ey (V/m) @ t=0.62
-0.5211677517894113
% es.Ez (V/m) @ t=0.62
6.465221977708935
% es.tEx (V/m) @ t=0.62
-4.828475954138547
% es.tEy (V/m) @ t=0.62
0
% es.tEz (V/m) @ t=0.62
6.465221977708925
% V (V) @ t=0.62
0.007136642710356754
% es.normE (V/m) @ t=0.64
8.77186047181916
% es.EX (V/m) @ t=0.64
-4.874037254598511
% es.EY (V/m) @ t=0.64
-0.5260881155659305
% es.EZ (V/m) @ t=0.64
6.526235680616969
% es.tEX (V/m) @ t=0.64
-4.874037254598517
% es.tEY (V/m) @ t=0.64
0
% es.tEZ (V/m) @ t=0.64
6.526235680616962
% es.Ex (V/m) @ t=0.64
-4.874037254598511
% es.Ey (V/m) @ t=0.64
-0.5260881155659305
% es.Ez (V/m) @ t=0.64
6.526235680616969
% es.tEx (V/m) @ t=0.64
-4.874037254598517
% es.tEy (V/m) @ t=0.64
0
% es.tEz (V/m) @ t=0.64
6.526235680616962
% V (V) @ t=0.64
0.00720399381004497
% es.normE (V/m) @ t=0.66
8.853865559885882
% es.EX (V/m) @ t=0.66
-4.919598555058485
% es.EY (V/m) @ t=0.66
-0.5310084793424286
% es.EZ (V/m) @ t=0.66
6.587249383525017
% es.tEX (V/m) @ t=0.66
-4.919598555058491
% es.tEY (V/m) @ t=0.66
0
% es.tEZ (V/m) @ t=0.66
6.587249383525007
% es.Ex (V/m) @ t=0.66
-4.919598555058485
% es.Ey (V/m) @ t=0.66
-0.5310084793424286
% es.Ez (V/m) @ t=0.66
6.587249383525017
% es.tEx (V/m) @ t=0.66
-4.919598555058491
% es.tEy (V/m) @ t=0.66
0
% es.tEz (V/m) @ t=0.66
6.587249383525007
% V (V) @ t=0.66
0.007271344909733186
% es.normE (V/m) @ t=0.68
8.935870647956065
% es.EX (V/m) @ t=0.68
-4.965159855518429
% es.EY (V/m) @ t=0.68
-0.5359288431189353
% es.EZ (V/m) @ t=0.68
6.648263086433068
% es.tEX (V/m) @ t=0.68
-4.965159855518443
% es.tEY (V/m) @ t=0.68
0
% es.tEZ (V/m) @ t=0.68
6.648263086433058
% es.Ex (V/m) @ t=0.68
-4.965159855518429
% es.Ey (V/m) @ t=0.68
-0.5359288431189353
% es.Ez (V/m) @ t=0.68
6.648263086433068
% es.tEx (V/m) @ t=0.68
-4.965159855518443
% es.tEy (V/m) @ t=0.68
0
% es.tEz (V/m) @ t=0.68
6.648263086433058
% V (V) @ t=0.68
0.0073386960094214025
% es.normE (V/m) @ t=0.7
9.01787573602963
% es.EX (V/m) @ t=0.7
-5.010721155978404
% es.EY (V/m) @ t=0.7
-0.5408492068954245
% es.EZ (V/m) @ t=0.7
6.709276789341097
% es.tEX (V/m) @ t=0.7
-5.01072115597841
% es.tEY (V/m) @ t=0.7
0
% es.tEZ (V/m) @ t=0.7
6.709276789341088
% es.Ex (V/m) @ t=0.7
-5.010721155978404
% es.Ey (V/m) @ t=0.7
-0.5408492068954245
% es.Ez (V/m) @ t=0.7
6.709276789341097
% es.tEx (V/m) @ t=0.7
-5.01072115597841
% es.tEy (V/m) @ t=0.7
0
% es.tEz (V/m) @ t=0.7
6.709276789341088
% V (V) @ t=0.7
0.007406047109109619
% es.normE (V/m) @ t=0.72
9.099880824106478
% es.EX (V/m) @ t=0.72
-5.056282456438365
% es.EY (V/m) @ t=0.72
-0.545769570671917
% es.EZ (V/m) @ t=0.72
6.770290492249129
% es.tEX (V/m) @ t=0.72
-5.056282456438371
% es.tEY (V/m) @ t=0.72
0
% es.tEZ (V/m) @ t=0.72
6.770290492249121
% es.Ex (V/m) @ t=0.72
-5.056282456438365
% es.Ey (V/m) @ t=0.72
-0.545769570671917
% es.Ez (V/m) @ t=0.72
6.770290492249129
% es.tEx (V/m) @ t=0.72
-5.056282456438371
% es.tEy (V/m) @ t=0.72
0
% es.tEz (V/m) @ t=0.72
6.770290492249121
% V (V) @ t=0.72
0.007473398208797835
% es.normE (V/m) @ t=0.74
9.181885912186537
% es.EX (V/m) @ t=0.74
-5.101843756898327
% es.EY (V/m) @ t=0.74
-0.5506899344484222
% es.EZ (V/m) @ t=0.74
6.8313041951571805
% es.tEX (V/m) @ t=0.74
-5.101843756898333
% es.tEY (V/m) @ t=0.74
0
% es.tEZ (V/m) @ t=0.74
6.8313041951571725
% es.Ex (V/m) @ t=0.74
-5.101843756898327
% es.Ey (V/m) @ t=0.74
-0.5506899344484222
% es.Ez (V/m) @ t=0.74
6.8313041951571805
% es.tEx (V/m) @ t=0.74
-5.101843756898333
% es.tEy (V/m) @ t=0.74
0
% es.tEz (V/m) @ t=0.74
6.8313041951571725
% V (V) @ t=0.74
0.0075407493084860494
% es.normE (V/m) @ t=0.76
9.263891000269705
% es.EX (V/m) @ t=0.76
-5.147405057358284
% es.EY (V/m) @ t=0.76
-0.5556102982249185
% es.EZ (V/m) @ t=0.76
6.892317898065211
% es.tEX (V/m) @ t=0.76
-5.147405057358301
% es.tEY (V/m) @ t=0.76
0
% es.tEZ (V/m) @ t=0.76
6.892317898065203
% es.Ex (V/m) @ t=0.76
-5.147405057358284
% es.Ey (V/m) @ t=0.76
-0.5556102982249185
% es.Ez (V/m) @ t=0.76
6.892317898065211
% es.tEx (V/m) @ t=0.76
-5.147405057358301
% es.tEy (V/m) @ t=0.76
0
% es.tEz (V/m) @ t=0.76
6.892317898065203
% V (V) @ t=0.76
0.0076081004081742665
% es.normE (V/m) @ t=0.78
9.345896088355895
% es.EX (V/m) @ t=0.78
-5.192966357818241
% es.EY (V/m) @ t=0.78
-0.5605306620014201
% es.EZ (V/m) @ t=0.78
6.953331600973247
% es.tEX (V/m) @ t=0.78
-5.192966357818247
% es.tEY (V/m) @ t=0.78
0
% es.tEZ (V/m) @ t=0.78
6.953331600973239
% es.Ex (V/m) @ t=0.78
-5.192966357818241
% es.Ey (V/m) @ t=0.78
-0.5605306620014201
% es.Ez (V/m) @ t=0.78
6.953331600973247
% es.tEx (V/m) @ t=0.78
-5.192966357818247
% es.tEy (V/m) @ t=0.78
0
% es.tEz (V/m) @ t=0.78
6.953331600973239
% V (V) @ t=0.78
0.007675451507862482
% es.normE (V/m) @ t=0.8
9.427901176445067
% es.EX (V/m) @ t=0.8
-5.238527658278221
% es.EY (V/m) @ t=0.8
-0.5654510257779304
% es.EZ (V/m) @ t=0.8
7.01434530388129
% es.tEX (V/m) @ t=0.8
-5.238527658278227
% es.tEY (V/m) @ t=0.8
0
% es.tEZ (V/m) @ t=0.8
7.0143453038812815
% es.Ex (V/m) @ t=0.8
-5.238527658278221
% es.Ey (V/m) @ t=0.8
-0.5654510257779304
% es.Ez (V/m) @ t=0.8
7.01434530388129
% es.tEx (V/m) @ t=0.8
-5.238527658278227
% es.tEy (V/m) @ t=0.8
0
% es.tEz (V/m) @ t=0.8
7.0143453038812815
% V (V) @ t=0.8
0.007742802607550698
% es.normE (V/m) @ t=0.82
9.510969382885879
% es.EX (V/m) @ t=0.82
-5.2846806193538045
% es.EY (V/m) @ t=0.82
-0.5704346870817287
% es.EZ (V/m) @ t=0.82
7.076149493166865
% es.tEX (V/m) @ t=0.82
-5.284680619353811
% es.tEY (V/m) @ t=0.82
0
% es.tEZ (V/m) @ t=0.82
7.076149493166853
% es.Ex (V/m) @ t=0.82
-5.2846806193538045
% es.Ey (V/m) @ t=0.82
-0.5704346870817287
% es.Ez (V/m) @ t=0.82
7.076149493166865
% es.tEx (V/m) @ t=0.82
-5.284680619353811
% es.tEy (V/m) @ t=0.82
0
% es.tEz (V/m) @ t=0.82
7.076149493166853
% V (V) @ t=0.82
0.007811026061920443
% es.normE (V/m) @ t=0.84
9.602655395598651
% es.EX (V/m) @ t=0.84
-5.335629675396834
% es.EY (V/m) @ t=0.84
-0.5759314481999831
% es.EZ (V/m) @ t=0.84
7.1443614906398505
% es.tEX (V/m) @ t=0.84
-5.335629675396841
% es.tEY (V/m) @ t=0.84
0
% es.tEZ (V/m) @ t=0.84
7.144361490639841
% es.Ex (V/m) @ t=0.84
-5.335629675396834
% es.Ey (V/m) @ t=0.84
-0.5759314481999831
% es.Ez (V/m) @ t=0.84
7.1443614906398505
% es.tEx (V/m) @ t=0.84
-5.335629675396841
% es.tEy (V/m) @ t=0.84
0
% es.tEz (V/m) @ t=0.84
7.144361490639841
% V (V) @ t=0.84
0.007886320961959094
% es.normE (V/m) @ t=0.86
9.69434140831492
% es.EX (V/m) @ t=0.86
-5.386578731439861
% es.EY (V/m) @ t=0.86
-0.5814282093182677
% es.EZ (V/m) @ t=0.86
7.212573488112845
% es.tEX (V/m) @ t=0.86
-5.386578731439867
% es.tEY (V/m) @ t=0.86
0
% es.tEZ (V/m) @ t=0.86
7.212573488112841
% es.Ex (V/m) @ t=0.86
-5.386578731439861
% es.Ey (V/m) @ t=0.86
-0.5814282093182677
% es.Ez (V/m) @ t=0.86
7.212573488112845
% es.tEx (V/m) @ t=0.86
-5.386578731439867
% es.tEy (V/m) @ t=0.86
0
% es.tEz (V/m) @ t=0.86
7.212573488112841
% V (V) @ t=0.86
0.007961615861997742
% es.normE (V/m) @ t=0.88
9.786027421034596
% es.EX (V/m) @ t=0.88
-5.437527787482872
% es.EY (V/m) @ t=0.88
-0.5869249704365271
% es.EZ (V/m) @ t=0.88
7.280785485585862
% es.tEX (V/m) @ t=0.88
-5.437527787482885
% es.tEY (V/m) @ t=0.88
0
% es.tEZ (V/m) @ t=0.88
7.280785485585856
% es.Ex (V/m) @ t=0.88
-5.437527787482872
% es.Ey (V/m) @ t=0.88
-0.5869249704365271
% es.Ez (V/m) @ t=0.88
7.280785485585862
% es.tEx (V/m) @ t=0.88
-5.437527787482885
% es.tEy (V/m) @ t=0.88
0
% es.tEz (V/m) @ t=0.88
7.280785485585856
% V (V) @ t=0.88
0.008036910762036394
% es.normE (V/m) @ t=0.9
9.87771343375757
% es.EX (V/m) @ t=0.9
-5.4884768435259055
% es.EY (V/m) @ t=0.9
-0.5924217315548099
% es.EZ (V/m) @ t=0.9
7.348997483058855
% es.tEX (V/m) @ t=0.9
-5.488476843525905
% es.tEY (V/m) @ t=0.9
0
% es.tEZ (V/m) @ t=0.9
7.348997483058848
% es.Ex (V/m) @ t=0.9
-5.4884768435259055
% es.Ey (V/m) @ t=0.9
-0.5924217315548099
% es.Ez (V/m) @ t=0.9
7.348997483058855
% es.tEx (V/m) @ t=0.9
-5.488476843525905
% es.tEy (V/m) @ t=0.9
0
% es.tEz (V/m) @ t=0.9
7.348997483058848
% V (V) @ t=0.9
0.008112205662075043
% es.normE (V/m) @ t=0.92
9.969399446483767
% es.EX (V/m) @ t=0.92
-5.539425899568927
% es.EY (V/m) @ t=0.92
-0.5979184926730676
% es.EZ (V/m) @ t=0.92
7.417209480531861
% es.tEX (V/m) @ t=0.92
-5.539425899568934
% es.tEY (V/m) @ t=0.92
0
% es.tEZ (V/m) @ t=0.92
7.417209480531849
% es.Ex (V/m) @ t=0.92
-5.539425899568927
% es.Ey (V/m) @ t=0.92
-0.5979184926730676
% es.Ez (V/m) @ t=0.92
7.417209480531861
% es.tEx (V/m) @ t=0.92
-5.539425899568934
% es.tEy (V/m) @ t=0.92
0
% es.tEz (V/m) @ t=0.92
7.417209480531849
% V (V) @ t=0.92
0.008187500562113696
% es.normE (V/m) @ t=0.94
10.061085459213071
% es.EX (V/m) @ t=0.94
-5.590374955611925
% es.EY (V/m) @ t=0.94
-0.6034152537913364
% es.EZ (V/m) @ t=0.94
7.485421478004868
% es.tEX (V/m) @ t=0.94
-5.590374955611946
% es.tEY (V/m) @ t=0.94
0
% es.tEZ (V/m) @ t=0.94
7.485421478004859
% es.Ex (V/m) @ t=0.94
-5.590374955611925
% es.Ey (V/m) @ t=0.94
-0.6034152537913364
% es.Ez (V/m) @ t=0.94
7.485421478004868
% es.tEx (V/m) @ t=0.94
-5.590374955611946
% es.tEy (V/m) @ t=0.94
0
% es.tEz (V/m) @ t=0.94
7.485421478004859
% V (V) @ t=0.94
0.008262795462152344
% es.normE (V/m) @ t=0.96
10.152771471945435
% es.EX (V/m) @ t=0.96
-5.641324011654973
% es.EY (V/m) @ t=0.96
-0.6089120149095906
% es.EZ (V/m) @ t=0.96
7.553633475477869
% es.tEX (V/m) @ t=0.96
-5.641324011654979
% es.tEY (V/m) @ t=0.96
0
% es.tEZ (V/m) @ t=0.96
7.553633475477862
% es.Ex (V/m) @ t=0.96
-5.641324011654973
% es.Ey (V/m) @ t=0.96
-0.6089120149095906
% es.Ez (V/m) @ t=0.96
7.553633475477869
% es.tEx (V/m) @ t=0.96
-5.641324011654979
% es.tEy (V/m) @ t=0.96
0
% es.tEz (V/m) @ t=0.96
7.553633475477862
% V (V) @ t=0.96
0.008338090362190994
% es.normE (V/m) @ t=0.98
10.244457484680737
% es.EX (V/m) @ t=0.98
-5.692273067697992
% es.EY (V/m) @ t=0.98
-0.6144087760278645
% es.EZ (V/m) @ t=0.98
7.621845472950865
% es.tEX (V/m) @ t=0.98
-5.6922730676979985
% es.tEY (V/m) @ t=0.98
0
% es.tEZ (V/m) @ t=0.98
7.621845472950853
% es.Ex (V/m) @ t=0.98
-5.692273067697992
% es.Ey (V/m) @ t=0.98
-0.6144087760278645
% es.Ez (V/m) @ t=0.98
7.621845472950865
% es.tEx (V/m) @ t=0.98
-5.6922730676979985
% es.tEy (V/m) @ t=0.98
0
% es.tEz (V/m) @ t=0.98
7.621845472950853
% V (V) @ t=0.98
0.008413385262229647
% es.normE (V/m) @ t=1
10.336143497418934
% es.EX (V/m) @ t=1
-5.743222123741019
% es.EY (V/m) @ t=1
-0.6199055371461295
% es.EZ (V/m) @ t=1
7.690057470423861
% es.tEX (V/m) @ t=1
-5.743222123741025
% es.tEY (V/m) @ t=1
0
% es.tEZ (V/m) @ t=1
7.690057470423848
% es.Ex (V/m) @ t=1
-5.743222123741019
% es.Ey (V/m) @ t=1
-0.6199055371461295
% es.Ez (V/m) @ t=1
7.690057470423861
% es.tEx (V/m) @ t=1
-5.743222123741025
% es.tEy (V/m) @ t=1
0
% es.tEz (V/m) @ t=1
7.690057470423848
% V (V) @ t=1
0.008488680162268298
% es.normE (V/m) @ t=1.02
10.427829510159947
% es.EX (V/m) @ t=1.02
-5.794171179784037
% es.EY (V/m) @ t=1.02
-0.6254022982643996
% es.EZ (V/m) @ t=1.02
7.758269467896878
% es.tEX (V/m) @ t=1.02
-5.794171179784043
% es.tEY (V/m) @ t=1.02
0
% es.tEZ (V/m) @ t=1.02
7.758269467896865
% es.Ex (V/m) @ t=1.02
-5.794171179784037
% es.Ey (V/m) @ t=1.02
-0.6254022982643996
% es.Ez (V/m) @ t=1.02
7.758269467896878
% es.tEx (V/m) @ t=1.02
-5.794171179784043
% es.tEy (V/m) @ t=1.02
0
% es.tEz (V/m) @ t=1.02
7.758269467896865
% V (V) @ t=1.02
0.008563975062306946
% es.normE (V/m) @ t=1.04
10.519515522903667
% es.EX (V/m) @ t=1.04
-5.845120235827053
% es.EY (V/m) @ t=1.04
-0.6308990593826806
% es.EZ (V/m) @ t=1.04
7.826481465369865
% es.tEX (V/m) @ t=1.04
-5.845120235827059
% es.tEY (V/m) @ t=1.04
0
% es.tEZ (V/m) @ t=1.04
7.82648146536986
% es.Ex (V/m) @ t=1.04
-5.845120235827053
% es.Ey (V/m) @ t=1.04
-0.6308990593826806
% es.Ez (V/m) @ t=1.04
7.826481465369865
% es.tEx (V/m) @ t=1.04
-5.845120235827059
% es.tEy (V/m) @ t=1.04
0
% es.tEz (V/m) @ t=1.04
7.82648146536986
% V (V) @ t=1.04