% Model:              1 neuron.mph
% Version:            COMSOL 6.1.0.252
% Date:               Mar 18 2023, 12:46
% Dimension:          0
% Nodes:              14017
% Expressions:        14017
% Description:        Electric field norm, Electric field, X component, Electric field, Y component, Electric field, Z component, Tangential electric field, X component, Tangential electric field, Y component, Tangential electric field, Z component, Electric field, x component, Electric field, y component, Electric field, z component, Tangential electric field, x component, Tangential electric field, y component, Tangential electric field, z component, Electric potential
% Length unit:        mm
% x
1
% y
12.2
% z
1.33
% es.normE (V/m) @ t=0
1.4585387746998513
% es.EX (V/m) @ t=0
1.347880662883317
% es.EY (V/m) @ t=0
0.0848704530775094
% es.EZ (V/m) @ t=0
0.5448980128222298
% es.tEX (V/m) @ t=0
1.3478806628833162
% es.tEY (V/m) @ t=0
0
% es.tEZ (V/m) @ t=0
0.5448980128222298
% es.Ex (V/m) @ t=0
1.347880662883317
% es.Ey (V/m) @ t=0
0.0848704530775094
% es.Ez (V/m) @ t=0
0.5448980128222298
% es.tEx (V/m) @ t=0
1.3478806628833162
% es.tEy (V/m) @ t=0
0
% es.tEz (V/m) @ t=0
0.5448980128222298
% V (V) @ t=0
0.007275437061153117
% es.normE (V/m) @ t=0.02
1.259756276696526
% es.EX (V/m) @ t=0.02
1.1641796257089423
% es.EY (V/m) @ t=0.02
0.07330356203452615
% es.EZ (V/m) @ t=0.02
0.4706345179090996
% es.tEX (V/m) @ t=0.02
1.1641796257089423
% es.tEY (V/m) @ t=0.02
0
% es.tEZ (V/m) @ t=0.02
0.4706345179090987
% es.Ex (V/m) @ t=0.02
1.1641796257089423
% es.Ey (V/m) @ t=0.02
0.07330356203452615
% es.Ez (V/m) @ t=0.02
0.4706345179090996
% es.tEx (V/m) @ t=0.02
1.1641796257089423
% es.tEy (V/m) @ t=0.02
0
% es.tEz (V/m) @ t=0.02
0.4706345179090987
% V (V) @ t=0.02
0.006283876434878997
% es.normE (V/m) @ t=0.04
1.2713444429454468
% es.EX (V/m) @ t=0.04
1.1748886070064004
% es.EY (V/m) @ t=0.04
0.07397786382259175
% es.EZ (V/m) @ t=0.04
0.4749637622123628
% es.tEX (V/m) @ t=0.04
1.1748886070064026
% es.tEY (V/m) @ t=0.04
0
% es.tEZ (V/m) @ t=0.04
0.4749637622123668
% es.Ex (V/m) @ t=0.04
1.1748886070064004
% es.Ey (V/m) @ t=0.04
0.07397786382259175
% es.Ez (V/m) @ t=0.04
0.4749637622123628
% es.tEx (V/m) @ t=0.04
1.1748886070064026
% es.tEy (V/m) @ t=0.04
0
% es.tEz (V/m) @ t=0.04
0.4749637622123668
% V (V) @ t=0.04
0.006341680089732933
% es.normE (V/m) @ t=0.06
1.2830386443411212
% es.EX (V/m) @ t=0.06
1.1856955788428571
% es.EY (V/m) @ t=0.06
0.074658335038371
% es.EZ (V/m) @ t=0.06
0.47933261988002984
% es.tEX (V/m) @ t=0.06
1.1856955788428571
% es.tEY (V/m) @ t=0.06
0
% es.tEZ (V/m) @ t=0.06
0.4793326198800276
% es.Ex (V/m) @ t=0.06
1.1856955788428571
% es.Ey (V/m) @ t=0.06
0.074658335038371
% es.Ez (V/m) @ t=0.06
0.47933261988002984
% es.tEx (V/m) @ t=0.06
1.1856955788428571
% es.tEy (V/m) @ t=0.06
0
% es.tEz (V/m) @ t=0.06
0.4793326198800276
% V (V) @ t=0.06
0.0064000126920314105
% es.normE (V/m) @ t=0.08
1.2949077082723413
% es.EX (V/m) @ t=0.08
1.1966641473014352
% es.EY (V/m) @ t=0.08
0.07534897882915453
% es.EZ (V/m) @ t=0.08
0.4837668027838071
% es.tEX (V/m) @ t=0.08
1.1966641473014379
% es.tEY (V/m) @ t=0.08
0
% es.tEZ (V/m) @ t=0.08
0.48376680278381023
% es.Ex (V/m) @ t=0.08
1.1966641473014352
% es.Ey (V/m) @ t=0.08
0.07534897882915453
% es.Ez (V/m) @ t=0.08
0.4837668027838071
% es.tEx (V/m) @ t=0.08
1.1966641473014379
% es.tEy (V/m) @ t=0.08
0
% es.tEz (V/m) @ t=0.08
0.48376680278381023
% V (V) @ t=0.08
0.006459217643138384
% es.normE (V/m) @ t=0.1
1.3069059279541833
% es.EX (V/m) @ t=0.1
1.2077520731338582
% es.EY (V/m) @ t=0.1
0.07604713621657783
% es.EZ (V/m) @ t=0.1
0.48824923575946255
% es.tEX (V/m) @ t=0.1
1.2077520731338565
% es.tEY (V/m) @ t=0.1
0
% es.tEZ (V/m) @ t=0.1
0.4882492357594619
% es.Ex (V/m) @ t=0.1
1.2077520731338582
% es.Ey (V/m) @ t=0.1
0.07604713621657783
% es.Ez (V/m) @ t=0.1
0.48824923575946255
% es.tEx (V/m) @ t=0.1
1.2077520731338565
% es.tEy (V/m) @ t=0.1
0
% es.tEz (V/m) @ t=0.1
0.4882492357594619
% V (V) @ t=0.1
0.006519066922459136
% es.normE (V/m) @ t=0.12
1.3189041476360321
% es.EX (V/m) @ t=0.12
1.2188399989662906
% es.EY (V/m) @ t=0.12
0.07674529360401044
% es.EZ (V/m) @ t=0.12
0.4927316687351082
% es.tEX (V/m) @ t=0.12
1.2188399989662937
% es.tEY (V/m) @ t=0.12
0
% es.tEZ (V/m) @ t=0.12
0.49273166873510865
% es.Ex (V/m) @ t=0.12
1.2188399989662906
% es.Ey (V/m) @ t=0.12
0.07674529360401044
% es.Ez (V/m) @ t=0.12
0.4927316687351082
% es.tEx (V/m) @ t=0.12
1.2188399989662937
% es.tEy (V/m) @ t=0.12
0
% es.tEz (V/m) @ t=0.12
0.49273166873510865
% V (V) @ t=0.12
0.00657891620177989
% es.normE (V/m) @ t=0.14
1.3310054915080345
% es.EX (V/m) @ t=0.14
1.2300232246870335
% es.EY (V/m) @ t=0.14
0.07744945280447252
% es.EZ (V/m) @ t=0.14
0.4972526289724162
% es.tEX (V/m) @ t=0.14
1.2300232246870326
% es.tEY (V/m) @ t=0.14
0
% es.tEZ (V/m) @ t=0.14
0.49725262897241196
% es.Ex (V/m) @ t=0.14
1.2300232246870335
% es.Ey (V/m) @ t=0.14
0.07744945280447252
% es.Ez (V/m) @ t=0.14
0.4972526289724162
% es.tEx (V/m) @ t=0.14
1.2300232246870326
% es.tEy (V/m) @ t=0.14
0
% es.tEz (V/m) @ t=0.14
0.49725262897241196
% V (V) @ t=0.14
0.006639279832593634
% es.normE (V/m) @ t=0.16
1.3436468442257308
% es.EX (V/m) @ t=0.16
1.2417054873709201
% es.EY (V/m) @ t=0.16
0.07818504044206293
% es.EZ (V/m) @ t=0.16
0.5019753368507684
% es.tEX (V/m) @ t=0.16
1.2417054873709201
% es.tEY (V/m) @ t=0.16
0
% es.tEZ (V/m) @ t=0.16
0.5019753368507702
% es.Ex (V/m) @ t=0.16
1.2417054873709201
% es.Ey (V/m) @ t=0.16
0.07818504044206293
% es.Ez (V/m) @ t=0.16
0.5019753368507684
% es.tEx (V/m) @ t=0.16
1.2417054873709201
% es.tEy (V/m) @ t=0.16
0
% es.tEz (V/m) @ t=0.16
0.5019753368507702
% V (V) @ t=0.16
0.006702336860132352
% es.normE (V/m) @ t=0.18
1.356288196943436
% es.EX (V/m) @ t=0.18
1.2533877500548174
% es.EY (V/m) @ t=0.18
0.07892062807966482
% es.EZ (V/m) @ t=0.18
0.506698044729117
% es.tEX (V/m) @ t=0.18
1.2533877500548183
% es.tEY (V/m) @ t=0.18
0
% es.tEZ (V/m) @ t=0.18
0.5066980447291138
% es.Ex (V/m) @ t=0.18
1.2533877500548174
% es.Ey (V/m) @ t=0.18
0.07892062807966482
% es.Ez (V/m) @ t=0.18
0.506698044729117
% es.tEx (V/m) @ t=0.18
1.2533877500548183
% es.tEy (V/m) @ t=0.18
0
% es.tEz (V/m) @ t=0.18
0.5066980447291138
% V (V) @ t=0.18
0.006765393887671073
% es.normE (V/m) @ t=0.2
1.368929549661131
% es.EX (V/m) @ t=0.2
1.265070012738708
% es.EY (V/m) @ t=0.2
0.07965621571725784
% es.EZ (V/m) @ t=0.2
0.5114207526074543
% es.tEX (V/m) @ t=0.2
1.2650700127387067
% es.tEY (V/m) @ t=0.2
0
% es.tEZ (V/m) @ t=0.2
0.5114207526074566
% es.Ex (V/m) @ t=0.2
1.265070012738708
% es.Ey (V/m) @ t=0.2
0.07965621571725784
% es.Ez (V/m) @ t=0.2
0.5114207526074543
% es.tEx (V/m) @ t=0.2
1.2650700127387067
% es.tEy (V/m) @ t=0.2
0
% es.tEz (V/m) @ t=0.2
0.5114207526074566
% V (V) @ t=0.2
0.006828450915209789
% es.normE (V/m) @ t=0.22
1.3815709023788276
% es.EX (V/m) @ t=0.22
1.2767522754225977
% es.EY (V/m) @ t=0.22
0.08039180335485074
% es.EZ (V/m) @ t=0.22
0.5161434604858006
% es.tEX (V/m) @ t=0.22
1.2767522754226013
% es.tEY (V/m) @ t=0.22
0
% es.tEZ (V/m) @ t=0.22
0.5161434604858028
% es.Ex (V/m) @ t=0.22
1.2767522754225977
% es.Ey (V/m) @ t=0.22
0.08039180335485074
% es.Ez (V/m) @ t=0.22
0.5161434604858006
% es.tEx (V/m) @ t=0.22
1.2767522754226013
% es.tEy (V/m) @ t=0.22
0
% es.tEz (V/m) @ t=0.22
0.5161434604858028
% V (V) @ t=0.22
0.006891507942748508
% es.normE (V/m) @ t=0.24
1.3942122550965297
% es.EX (V/m) @ t=0.24
1.2884345381064888
% es.EY (V/m) @ t=0.24
0.08112739099245442
% es.EZ (V/m) @ t=0.24
0.5208661683641553
% es.tEX (V/m) @ t=0.24
1.288434538106488
% es.tEY (V/m) @ t=0.24
0
% es.tEZ (V/m) @ t=0.24
0.5208661683641549
% es.Ex (V/m) @ t=0.24
1.2884345381064888
% es.Ey (V/m) @ t=0.24
0.08112739099245442
% es.Ez (V/m) @ t=0.24
0.5208661683641553
% es.tEx (V/m) @ t=0.24
1.288434538106488
% es.tEy (V/m) @ t=0.24
0
% es.tEz (V/m) @ t=0.24
0.5208661683641549
% V (V) @ t=0.24
0.006954564970287224
% es.normE (V/m) @ t=0.26
1.4068536078142333
% es.EX (V/m) @ t=0.26
1.3001168007903843
% es.EY (V/m) @ t=0.26
0.08186297863005187
% es.EZ (V/m) @ t=0.26
0.5255888762425034
% es.tEX (V/m) @ t=0.26
1.3001168007903834
% es.tEY (V/m) @ t=0.26
0
% es.tEZ (V/m) @ t=0.26
0.5255888762425012
% es.Ex (V/m) @ t=0.26
1.3001168007903843
% es.Ey (V/m) @ t=0.26
0.08186297863005187
% es.Ez (V/m) @ t=0.26
0.5255888762425034
% es.tEx (V/m) @ t=0.26
1.3001168007903834
% es.tEy (V/m) @ t=0.26
0
% es.tEz (V/m) @ t=0.26
0.5255888762425012
% V (V) @ t=0.26
0.0070176219978259425
% es.normE (V/m) @ t=0.28
1.4199737342210152
% es.EX (V/m) @ t=0.28
1.3122415111471142
% es.EY (V/m) @ t=0.28
0.08262643138582976
% es.EZ (V/m) @ t=0.28
0.5304904547973344
% es.tEX (V/m) @ t=0.28
1.3122415111471133
% es.tEY (V/m) @ t=0.28
0
% es.tEZ (V/m) @ t=0.28
0.5304904547973339
% es.Ex (V/m) @ t=0.28
1.3122415111471142
% es.Ey (V/m) @ t=0.28
0.08262643138582976
% es.Ez (V/m) @ t=0.28
0.5304904547973344
% es.tEx (V/m) @ t=0.28
1.3122415111471133
% es.tEy (V/m) @ t=0.28
0
% es.tEz (V/m) @ t=0.28
0.5304904547973339
% V (V) @ t=0.28
0.007083066974643773
% es.normE (V/m) @ t=0.3
1.434062856015771
% es.EX (V/m) @ t=0.3
1.3252616962640085
% es.EY (V/m) @ t=0.3
0.08344628066385673
% es.EZ (V/m) @ t=0.3
0.535754051701328
% es.tEX (V/m) @ t=0.3
1.3252616962640076
% es.tEY (V/m) @ t=0.3
0
% es.tEZ (V/m) @ t=0.3
0.5357540517013324
% es.Ex (V/m) @ t=0.3
1.3252616962640085
% es.Ey (V/m) @ t=0.3
0.08344628066385673
% es.Ez (V/m) @ t=0.3
0.535754051701328
% es.tEx (V/m) @ t=0.3
1.3252616962640076
% es.tEy (V/m) @ t=0.3
0
% es.tEz (V/m) @ t=0.3
0.5357540517013324
% V (V) @ t=0.3
0.007153344948534915
% es.normE (V/m) @ t=0.32
1.448151977810531
% es.EX (V/m) @ t=0.32
1.3382818813808974
% es.EY (V/m) @ t=0.32
0.08426612994188742
% es.EZ (V/m) @ t=0.32
0.5410176486053433
% es.tEX (V/m) @ t=0.32
1.3382818813808965
% es.tEY (V/m) @ t=0.32
0
% es.tEZ (V/m) @ t=0.32
0.5410176486053451
% es.Ex (V/m) @ t=0.32
1.3382818813808974
% es.Ey (V/m) @ t=0.32
0.08426612994188742
% es.Ez (V/m) @ t=0.32
0.5410176486053433
% es.tEx (V/m) @ t=0.32
1.3382818813808965
% es.tEy (V/m) @ t=0.32
0
% es.tEz (V/m) @ t=0.32
0.5410176486053451
% V (V) @ t=0.32
0.007223622922426058
% es.normE (V/m) @ t=0.34
1.4622410996052921
% es.EX (V/m) @ t=0.34
1.3513020664977882
% es.EY (V/m) @ t=0.34
0.0850859792199064
% es.EZ (V/m) @ t=0.34
0.5462812455093569
% es.tEX (V/m) @ t=0.34
1.3513020664977873
% es.tEY (V/m) @ t=0.34
0
% es.tEZ (V/m) @ t=0.34
0.5462812455093586
% es.Ex (V/m) @ t=0.34
1.3513020664977882
% es.Ey (V/m) @ t=0.34
0.0850859792199064
% es.Ez (V/m) @ t=0.34
0.5462812455093569
% es.tEx (V/m) @ t=0.34
1.3513020664977873
% es.tEy (V/m) @ t=0.34
0
% es.tEz (V/m) @ t=0.34
0.5462812455093586
% V (V) @ t=0.34
0.0072939008963172
% es.normE (V/m) @ t=0.36
1.4763302214000538
% es.EX (V/m) @ t=0.36
1.3643222516146825
% es.EY (V/m) @ t=0.36
0.08590582849794143
% es.EZ (V/m) @ t=0.36
0.5515448424133562
% es.tEX (V/m) @ t=0.36
1.3643222516146816
% es.tEY (V/m) @ t=0.36
0
% es.tEZ (V/m) @ t=0.36
0.5515448424133544
% es.Ex (V/m) @ t=0.36
1.3643222516146825
% es.Ey (V/m) @ t=0.36
0.08590582849794143
% es.Ez (V/m) @ t=0.36
0.5515448424133562
% es.tEx (V/m) @ t=0.36
1.3643222516146816
% es.tEy (V/m) @ t=0.36
0
% es.tEz (V/m) @ t=0.36
0.5515448424133544
% V (V) @ t=0.36
0.007364178870208341
% es.normE (V/m) @ t=0.38
1.4904193431948112
% es.EX (V/m) @ t=0.38
1.3773424367315705
% es.EY (V/m) @ t=0.38
0.0867256777759694
% es.EZ (V/m) @ t=0.38
0.5568084393173591
% es.tEX (V/m) @ t=0.38
1.3773424367315688
% es.tEY (V/m) @ t=0.38
0
% es.tEZ (V/m) @ t=0.38
0.55680843931736
% es.Ex (V/m) @ t=0.38
1.3773424367315705
% es.Ey (V/m) @ t=0.38
0.0867256777759694
% es.Ez (V/m) @ t=0.38
0.5568084393173591
% es.tEx (V/m) @ t=0.38
1.3773424367315688
% es.tEy (V/m) @ t=0.38
0
% es.tEz (V/m) @ t=0.38
0.55680843931736
% V (V) @ t=0.38
0.007434456844099485
% es.normE (V/m) @ t=0.4
1.5045084649895708
% es.EX (V/m) @ t=0.4
1.3903626218484577
% es.EY (V/m) @ t=0.4
0.08754552705399726
% es.EZ (V/m) @ t=0.4
0.5620720362213674
% es.tEX (V/m) @ t=0.4
1.390362621848456
% es.tEY (V/m) @ t=0.4
0
% es.tEZ (V/m) @ t=0.4
0.5620720362213665
% es.Ex (V/m) @ t=0.4
1.3903626218484577
% es.Ey (V/m) @ t=0.4
0.08754552705399726
% es.Ez (V/m) @ t=0.4
0.5620720362213674
% es.tEx (V/m) @ t=0.4
1.390362621848456
% es.tEy (V/m) @ t=0.4
0
% es.tEz (V/m) @ t=0.4
0.5620720362213665
% V (V) @ t=0.4
0.007504734817990626
% es.normE (V/m) @ t=0.42
1.5185975867843293
% es.EX (V/m) @ t=0.42
1.4033828069653396
% es.EY (V/m) @ t=0.42
0.08836537633202601
% es.EZ (V/m) @ t=0.42
0.567335633125384
% es.tEX (V/m) @ t=0.42
1.4033828069653413
% es.tEY (V/m) @ t=0.42
0
% es.tEZ (V/m) @ t=0.42
0.5673356331253894
% es.Ex (V/m) @ t=0.42
1.4033828069653396
% es.Ey (V/m) @ t=0.42
0.08836537633202601
% es.Ez (V/m) @ t=0.42
0.567335633125384
% es.tEx (V/m) @ t=0.42
1.4033828069653413
% es.tEy (V/m) @ t=0.42
0
% es.tEz (V/m) @ t=0.42
0.5673356331253894
% V (V) @ t=0.42
0.007575012791881766
% es.normE (V/m) @ t=0.44
1.532686708579098
% es.EX (V/m) @ t=0.44
1.4164029920822383
% es.EY (V/m) @ t=0.44
0.08918522561005215
% es.EZ (V/m) @ t=0.44
0.5725992300293825
% es.tEX (V/m) @ t=0.44
1.4164029920822374
% es.tEY (V/m) @ t=0.44
0
% es.tEZ (V/m) @ t=0.44
0.5725992300293834
% es.Ex (V/m) @ t=0.44
1.4164029920822383
% es.Ey (V/m) @ t=0.44
0.08918522561005215
% es.Ez (V/m) @ t=0.44
0.5725992300293825
% es.tEx (V/m) @ t=0.44
1.4164029920822374
% es.tEy (V/m) @ t=0.44
0
% es.tEz (V/m) @ t=0.44
0.5725992300293834
% V (V) @ t=0.44
0.00764529076577291
% es.normE (V/m) @ t=0.46
1.5467758303738601
% es.EX (V/m) @ t=0.46
1.4294231771991246
% es.EY (V/m) @ t=0.46
0.09000507488808457
% es.EZ (V/m) @ t=0.46
0.5778628269333921
% es.tEX (V/m) @ t=0.46
1.4294231771991273
% es.tEY (V/m) @ t=0.46
0
% es.tEZ (V/m) @ t=0.46
0.5778628269333921
% es.Ex (V/m) @ t=0.46
1.4294231771991246
% es.Ey (V/m) @ t=0.46
0.09000507488808457
% es.Ez (V/m) @ t=0.46
0.5778628269333921
% es.tEx (V/m) @ t=0.46
1.4294231771991273
% es.tEy (V/m) @ t=0.46
0
% es.tEz (V/m) @ t=0.46
0.5778628269333921
% V (V) @ t=0.46
0.007715568739664051
% es.normE (V/m) @ t=0.48
1.5608649521686297
% es.EX (V/m) @ t=0.48
1.4424433623160189
% es.EY (V/m) @ t=0.48
0.09082492416610799
% es.EZ (V/m) @ t=0.48
0.5831264238374012
% es.tEX (V/m) @ t=0.48
1.4424433623160215
% es.tEY (V/m) @ t=0.48
0
% es.tEZ (V/m) @ t=0.48
0.5831264238374003
% es.Ex (V/m) @ t=0.48
1.4424433623160189
% es.Ey (V/m) @ t=0.48
0.09082492416610799
% es.Ez (V/m) @ t=0.48
0.5831264238374012
% es.tEx (V/m) @ t=0.48
1.4424433623160215
% es.tEy (V/m) @ t=0.48
0
% es.tEz (V/m) @ t=0.48
0.5831264238374003
% V (V) @ t=0.48
0.007785846713555193
% es.normE (V/m) @ t=0.5
1.5749540739633883
% es.EX (V/m) @ t=0.5
1.455463547432903
% es.EY (V/m) @ t=0.5
0.09164477344413585
% es.EZ (V/m) @ t=0.5
0.5883900207414015
% es.tEX (V/m) @ t=0.5
1.4554635474329034
% es.tEY (V/m) @ t=0.5
0
% es.tEZ (V/m) @ t=0.5
0.5883900207414015
% es.Ex (V/m) @ t=0.5
1.455463547432903
% es.Ey (V/m) @ t=0.5
0.09164477344413585
% es.Ez (V/m) @ t=0.5
0.5883900207414015
% es.tEx (V/m) @ t=0.5
1.4554635474329034
% es.tEy (V/m) @ t=0.5
0
% es.tEz (V/m) @ t=0.5
0.5883900207414015
% V (V) @ t=0.5
0.007856124687446338
% es.normE (V/m) @ t=0.52
1.5890431957581628
% es.EX (V/m) @ t=0.52
1.4684837325497995
% es.EY (V/m) @ t=0.52
0.09246462272216294
% es.EZ (V/m) @ t=0.52
0.5936536176454132
% es.tEX (V/m) @ t=0.52
1.4684837325497995
% es.tEY (V/m) @ t=0.52
0
% es.tEZ (V/m) @ t=0.52
0.5936536176454141
% es.Ex (V/m) @ t=0.52
1.4684837325497995
% es.Ey (V/m) @ t=0.52
0.09246462272216294
% es.Ez (V/m) @ t=0.52
0.5936536176454132
% es.tEx (V/m) @ t=0.52
1.4684837325497995
% es.tEy (V/m) @ t=0.52
0
% es.tEz (V/m) @ t=0.52
0.5936536176454141
% V (V) @ t=0.52
0.007926402661337479
% es.normE (V/m) @ t=0.54
1.6031323175529195
% es.EX (V/m) @ t=0.54
1.4815039176666787
% es.EY (V/m) @ t=0.54
0.09328447200019524
% es.EZ (V/m) @ t=0.54
0.5989172145494144
% es.tEX (V/m) @ t=0.54
1.4815039176666849
% es.tEY (V/m) @ t=0.54
0
% es.tEZ (V/m) @ t=0.54
0.598917214549417
% es.Ex (V/m) @ t=0.54
1.4815039176666787
% es.Ey (V/m) @ t=0.54
0.09328447200019524
% es.Ez (V/m) @ t=0.54
0.5989172145494144
% es.tEx (V/m) @ t=0.54
1.4815039176666849
% es.tEy (V/m) @ t=0.54
0
% es.tEz (V/m) @ t=0.54
0.598917214549417
% V (V) @ t=0.54
0.00799668063522862
% es.normE (V/m) @ t=0.56
1.618323945655214
% es.EX (V/m) @ t=0.56
1.4955429705707024
% es.EY (V/m) @ t=0.56
0.09416844996348772
% es.EZ (V/m) @ t=0.56
0.6045926788247329
% es.tEX (V/m) @ t=0.56
1.495542970570698
% es.tEY (V/m) @ t=0.56
0
% es.tEZ (V/m) @ t=0.56
0.6045926788247313
% es.Ex (V/m) @ t=0.56
1.4955429705707024
% es.Ey (V/m) @ t=0.56
0.09416844996348772
% es.Ez (V/m) @ t=0.56
0.6045926788247329
% es.tEx (V/m) @ t=0.56
1.495542970570698
% es.tEy (V/m) @ t=0.56
0
% es.tEz (V/m) @ t=0.56
0.6045926788247313
% V (V) @ t=0.56
0.008072459156574601
% es.normE (V/m) @ t=0.58
1.6340551692888838
% es.EX (V/m) @ t=0.58
1.5100806841184369
% es.EY (V/m) @ t=0.58
0.09508381418894479
% es.EZ (V/m) @ t=0.58
0.6104697218044455
% es.tEX (V/m) @ t=0.58
1.5100806841184369
% es.tEY (V/m) @ t=0.58
0
% es.tEZ (V/m) @ t=0.58
0.6104697218044488
% es.Ex (V/m) @ t=0.58
1.5100806841184369
% es.Ey (V/m) @ t=0.58
0.09508381418894479
% es.Ez (V/m) @ t=0.58
0.6104697218044455
% es.tEx (V/m) @ t=0.58
1.5100806841184369
% es.tEy (V/m) @ t=0.58
0
% es.tEz (V/m) @ t=0.58
0.6104697218044488
% V (V) @ t=0.58
0.008150929790252743
% es.normE (V/m) @ t=0.6
1.6497863929225591
% es.EX (V/m) @ t=0.6
1.524618397666174
% es.EY (V/m) @ t=0.6
0.09599917841439759
% es.EZ (V/m) @ t=0.6
0.616346764784167
% es.tEX (V/m) @ t=0.6
1.5246183976661767
% es.tEY (V/m) @ t=0.6
0
% es.tEZ (V/m) @ t=0.6
0.6163467647841703
% es.Ex (V/m) @ t=0.6
1.524618397666174
% es.Ey (V/m) @ t=0.6
0.09599917841439759
% es.Ez (V/m) @ t=0.6
0.616346764784167
% es.tEx (V/m) @ t=0.6
1.5246183976661767
% es.tEy (V/m) @ t=0.6
0
% es.tEz (V/m) @ t=0.6
0.6163467647841703
% V (V) @ t=0.6
0.008229400423930888
% es.normE (V/m) @ t=0.62
1.665517616556221
% es.EX (V/m) @ t=0.62
1.539156111213896
% es.EY (V/m) @ t=0.62
0.09691454263986088
% es.EZ (V/m) @ t=0.62
0.6222238077638829
% es.tEX (V/m) @ t=0.62
1.5391561112138943
% es.tEY (V/m) @ t=0.62
0
% es.tEZ (V/m) @ t=0.62
0.6222238077638846
% es.Ex (V/m) @ t=0.62
1.539156111213896
% es.Ey (V/m) @ t=0.62
0.09691454263986088
% es.Ez (V/m) @ t=0.62
0.6222238077638829
% es.tEx (V/m) @ t=0.62
1.5391561112138943
% es.tEy (V/m) @ t=0.62
0
% es.tEz (V/m) @ t=0.62
0.6222238077638846
% V (V) @ t=0.62
0.008307871057609034
% es.normE (V/m) @ t=0.64
1.6812488401898913
% es.EX (V/m) @ t=0.64
1.5536938247616279
% es.EY (V/m) @ t=0.64
0.0978299068653109
% es.EZ (V/m) @ t=0.64
0.6281008507436003
% es.tEX (V/m) @ t=0.64
1.5536938247616385
% es.tEY (V/m) @ t=0.64
0
% es.tEZ (V/m) @ t=0.64
0.6281008507436021
% es.Ex (V/m) @ t=0.64
1.5536938247616279
% es.Ey (V/m) @ t=0.64
0.0978299068653109
% es.Ez (V/m) @ t=0.64
0.6281008507436003
% es.tEx (V/m) @ t=0.64
1.5536938247616385
% es.tEy (V/m) @ t=0.64
0
% es.tEz (V/m) @ t=0.64
0.6281008507436021
% V (V) @ t=0.64
0.008386341691287177
% es.normE (V/m) @ t=0.66
1.6969800638235657
% es.EX (V/m) @ t=0.66
1.5682315383093632
% es.EY (V/m) @ t=0.66
0.09874527109076725
% es.EZ (V/m) @ t=0.66
0.6339778937233183
% es.tEX (V/m) @ t=0.66
1.568231538309358
% es.tEY (V/m) @ t=0.66
0
% es.tEZ (V/m) @ t=0.66
0.63397789372332
% es.Ex (V/m) @ t=0.66
1.5682315383093632
% es.Ey (V/m) @ t=0.66
0.09874527109076725
% es.Ez (V/m) @ t=0.66
0.6339778937233183
% es.tEx (V/m) @ t=0.66
1.568231538309358
% es.tEy (V/m) @ t=0.66
0
% es.tEz (V/m) @ t=0.66
0.63397789372332
% V (V) @ t=0.66
0.00846481232496532
% es.normE (V/m) @ t=0.68
1.7127112874572397
% es.EX (V/m) @ t=0.68
1.582769251857096
% es.EY (V/m) @ t=0.68
0.09966063531622082
% es.EZ (V/m) @ t=0.68
0.639854936703038
% es.tEX (V/m) @ t=0.68
1.5827692518570995
% es.tEY (V/m) @ t=0.68
0
% es.tEZ (V/m) @ t=0.68
0.639854936703038
% es.Ex (V/m) @ t=0.68
1.582769251857096
% es.Ey (V/m) @ t=0.68
0.09966063531622082
% es.Ez (V/m) @ t=0.68
0.639854936703038
% es.tEx (V/m) @ t=0.68
1.5827692518570995
% es.tEy (V/m) @ t=0.68
0
% es.tEz (V/m) @ t=0.68
0.639854936703038
% V (V) @ t=0.68
0.008543282958643466
% es.normE (V/m) @ t=0.7
1.7284425110909116
% es.EX (V/m) @ t=0.7
1.5973069654048242
% es.EY (V/m) @ t=0.7
0.10057599954167973
% es.EZ (V/m) @ t=0.7
0.645731979682763
% es.tEX (V/m) @ t=0.7
1.5973069654048295
% es.tEY (V/m) @ t=0.7
0
% es.tEZ (V/m) @ t=0.7
0.6457319796827665
% es.Ex (V/m) @ t=0.7
1.5973069654048242
% es.Ey (V/m) @ t=0.7
0.10057599954167973
% es.Ez (V/m) @ t=0.7
0.645731979682763
% es.tEx (V/m) @ t=0.7
1.5973069654048295
% es.tEy (V/m) @ t=0.7
0
% es.tEz (V/m) @ t=0.7
0.6457319796827665
% V (V) @ t=0.7
0.00862175359232161
% es.normE (V/m) @ t=0.72
1.744173734724586
% es.EX (V/m) @ t=0.72
1.6118446789525565
% es.EY (V/m) @ t=0.72
0.10149136376712808
% es.EZ (V/m) @ t=0.72
0.6516090226624818
% es.tEX (V/m) @ t=0.72
1.611844678952549
% es.tEY (V/m) @ t=0.72
0
% es.tEZ (V/m) @ t=0.72
0.6516090226624827
% es.Ex (V/m) @ t=0.72
1.6118446789525565
% es.Ey (V/m) @ t=0.72
0.10149136376712808
% es.Ez (V/m) @ t=0.72
0.6516090226624818
% es.tEx (V/m) @ t=0.72
1.611844678952549
% es.tEy (V/m) @ t=0.72
0
% es.tEz (V/m) @ t=0.72
0.6516090226624827
% V (V) @ t=0.72
0.008700224225999755
% es.normE (V/m) @ t=0.74
1.7599049583582622
% es.EX (V/m) @ t=0.74
1.62638239250029
% es.EY (V/m) @ t=0.74
0.10240672799258854
% es.EZ (V/m) @ t=0.74
0.6574860656422017
% es.tEX (V/m) @ t=0.74
1.6263823925002878
% es.tEY (V/m) @ t=0.74
0
% es.tEZ (V/m) @ t=0.74
0.6574860656422019
% es.Ex (V/m) @ t=0.74
1.62638239250029
% es.Ey (V/m) @ t=0.74
0.10240672799258854
% es.Ez (V/m) @ t=0.74
0.6574860656422017
% es.tEx (V/m) @ t=0.74
1.6263823925002878
% es.tEy (V/m) @ t=0.74
0
% es.tEz (V/m) @ t=0.74
0.6574860656422019
% V (V) @ t=0.74
0.008778694859677898
% es.normE (V/m) @ t=0.76
1.7756361819919415
% es.EX (V/m) @ t=0.76
1.6409201060480259
% es.EY (V/m) @ t=0.76
0.10332209221804578
% es.EZ (V/m) @ t=0.76
0.6633631086219232
% es.tEX (V/m) @ t=0.76
1.6409201060480223
% es.tEY (V/m) @ t=0.76
0
% es.tEZ (V/m) @ t=0.76
0.6633631086219234
% es.Ex (V/m) @ t=0.76
1.6409201060480259
% es.Ey (V/m) @ t=0.76
0.10332209221804578
% es.Ez (V/m) @ t=0.76
0.6633631086219232
% es.tEx (V/m) @ t=0.76
1.6409201060480223
% es.tEy (V/m) @ t=0.76
0
% es.tEz (V/m) @ t=0.76
0.6633631086219234
% V (V) @ t=0.76
0.008857165493356042
% es.normE (V/m) @ t=0.78
1.791367405625618
% es.EX (V/m) @ t=0.78
1.655457819595754
% es.EY (V/m) @ t=0.78
0.10423745644349225
% es.EZ (V/m) @ t=0.78
0.6692401516016553
% es.tEX (V/m) @ t=0.78
1.6554578195957523
% es.tEY (V/m) @ t=0.78
0
% es.tEZ (V/m) @ t=0.78
0.669240151601652
% es.Ex (V/m) @ t=0.78
1.655457819595754
% es.Ey (V/m) @ t=0.78
0.10423745644349225
% es.Ez (V/m) @ t=0.78
0.6692401516016553
% es.tEx (V/m) @ t=0.78
1.6554578195957523
% es.tEy (V/m) @ t=0.78
0
% es.tEz (V/m) @ t=0.78
0.669240151601652
% V (V) @ t=0.78
0.008935636127034187
% es.normE (V/m) @ t=0.8
1.807098629259291
% es.EX (V/m) @ t=0.8
1.6699955331434864
% es.EY (V/m) @ t=0.8
0.10515282066896015
% es.EZ (V/m) @ t=0.8
0.6751171945813634
% es.tEX (V/m) @ t=0.8
1.6699955331434895
% es.tEY (V/m) @ t=0.8
0
% es.tEZ (V/m) @ t=0.8
0.6751171945813605
% es.Ex (V/m) @ t=0.8
1.6699955331434864
% es.Ey (V/m) @ t=0.8
0.10515282066896015
% es.Ez (V/m) @ t=0.8
0.6751171945813634
% es.tEx (V/m) @ t=0.8
1.6699955331434895
% es.tEy (V/m) @ t=0.8
0
% es.tEz (V/m) @ t=0.8
0.6751171945813605
% V (V) @ t=0.8
0.00901410676071233
% es.normE (V/m) @ t=0.82
1.8228524355645888
% es.EX (V/m) @ t=0.82
1.6845541164422504
% es.EY (V/m) @ t=0.82
0.10606949764135598
% es.EZ (V/m) @ t=0.82
0.6810026732097196
% es.tEX (V/m) @ t=0.82
1.684554116442249
% es.tEY (V/m) @ t=0.82
0
% es.tEZ (V/m) @ t=0.82
0.6810026732097247
% es.Ex (V/m) @ t=0.82
1.6845541164422504
% es.Ey (V/m) @ t=0.82
0.10606949764135598
% es.Ez (V/m) @ t=0.82
0.6810026732097196
% es.tEx (V/m) @ t=0.82
1.684554116442249
% es.tEy (V/m) @ t=0.82
0
% es.tEz (V/m) @ t=0.82
0.6810026732097247
% V (V) @ t=0.82
0.0090926900967276
% es.normE (V/m) @ t=0.84
1.8404497809718583
% es.EX (V/m) @ t=0.84
1.7008164043654288
% es.EY (V/m) @ t=0.84
0.10709334086821265
% es.EZ (V/m) @ t=0.84
0.687576797024873
% es.tEX (V/m) @ t=0.84
1.7008164043654288
% es.tEY (V/m) @ t=0.84
0
% es.tEZ (V/m) @ t=0.84
0.6875767970248736
% es.Ex (V/m) @ t=0.84
1.7008164043654288
% es.Ey (V/m) @ t=0.84
0.10709334086821265
% es.Ez (V/m) @ t=0.84
0.687576797024873
% es.tEx (V/m) @ t=0.84
1.7008164043654288
% es.tEy (V/m) @ t=0.84
0
% es.tEz (V/m) @ t=0.84
0.6875767970248736
% V (V) @ t=0.84
0.009180473901530864
% es.normE (V/m) @ t=0.86
1.858047126379165
% es.EX (V/m) @ t=0.86
1.7170786922886165
% es.EY (V/m) @ t=0.86
0.10811718409505267
% es.EZ (V/m) @ t=0.86
0.694150920840028
% es.tEX (V/m) @ t=0.86
1.7170786922886165
% es.tEY (V/m) @ t=0.86
0
% es.tEZ (V/m) @ t=0.86
0.6941509208400292
% es.Ex (V/m) @ t=0.86
1.7170786922886165
% es.Ey (V/m) @ t=0.86
0.10811718409505267
% es.Ez (V/m) @ t=0.86
0.694150920840028
% es.tEx (V/m) @ t=0.86
1.7170786922886165
% es.tEy (V/m) @ t=0.86
0
% es.tEz (V/m) @ t=0.86
0.6941509208400292
% V (V) @ t=0.86
0.009268257706334127
% es.normE (V/m) @ t=0.88
1.8756444717864809
% es.EX (V/m) @ t=0.88
1.7333409802117883
% es.EY (V/m) @ t=0.88
0.10914102732191033
% es.EZ (V/m) @ t=0.88
0.7007250446551749
% es.tEX (V/m) @ t=0.88
1.7333409802117838
% es.tEY (V/m) @ t=0.88
0
% es.tEZ (V/m) @ t=0.88
0.7007250446551785
% es.Ex (V/m) @ t=0.88
1.7333409802117883
% es.Ey (V/m) @ t=0.88
0.10914102732191033
% es.Ez (V/m) @ t=0.88
0.7007250446551749
% es.tEx (V/m) @ t=0.88
1.7333409802117838
% es.tEy (V/m) @ t=0.88
0
% es.tEz (V/m) @ t=0.88
0.7007250446551785
% V (V) @ t=0.88
0.00935604151113739
% es.normE (V/m) @ t=0.9
1.8932418171938414
% es.EX (V/m) @ t=0.9
1.749603268134977
% es.EY (V/m) @ t=0.9
0.11016487054875557
% es.EZ (V/m) @ t=0.9
0.7072991684703305
% es.tEX (V/m) @ t=0.9
1.7496032681349707
% es.tEY (V/m) @ t=0.9
0
% es.tEZ (V/m) @ t=0.9
0.7072991684703278
% es.Ex (V/m) @ t=0.9
1.749603268134977
% es.Ey (V/m) @ t=0.9
0.11016487054875557
% es.Ez (V/m) @ t=0.9
0.7072991684703305
% es.tEx (V/m) @ t=0.9
1.7496032681349707
% es.tEy (V/m) @ t=0.9
0
% es.tEz (V/m) @ t=0.9
0.7072991684703278
% V (V) @ t=0.9
0.009443825315940652
% es.normE (V/m) @ t=0.92
1.9108391626012202
% es.EX (V/m) @ t=0.92
1.7658655560581638
% es.EY (V/m) @ t=0.92
0.11118871377559181
% es.EZ (V/m) @ t=0.92
0.7138732922854727
% es.tEX (V/m) @ t=0.92
1.7658655560581522
% es.tEY (V/m) @ t=0.92
0
% es.tEZ (V/m) @ t=0.92
0.7138732922854754
% es.Ex (V/m) @ t=0.92
1.7658655560581638
% es.Ey (V/m) @ t=0.92
0.11118871377559181
% es.Ez (V/m) @ t=0.92
0.7138732922854727
% es.tEx (V/m) @ t=0.92
1.7658655560581522
% es.tEy (V/m) @ t=0.92
0
% es.tEz (V/m) @ t=0.92
0.7138732922854754
% V (V) @ t=0.92
0.009531609120743911
% es.normE (V/m) @ t=0.94
1.928436508008618
% es.EX (V/m) @ t=0.94
1.782127843981331
% es.EY (V/m) @ t=0.94
0.11221255700244681
% es.EZ (V/m) @ t=0.94
0.7204474161006451
% es.tEX (V/m) @ t=0.94
1.7821278439813284
% es.tEY (V/m) @ t=0.94
0
% es.tEZ (V/m) @ t=0.94
0.7204474161006478
% es.Ex (V/m) @ t=0.94
1.782127843981331
% es.Ey (V/m) @ t=0.94
0.11221255700244681
% es.Ez (V/m) @ t=0.94
0.7204474161006451
% es.tEx (V/m) @ t=0.94
1.7821278439813284
% es.tEy (V/m) @ t=0.94
0
% es.tEz (V/m) @ t=0.94
0.7204474161006478
% V (V) @ t=0.94
0.009619392925547176
% es.normE (V/m) @ t=0.96
1.946033853416053
% es.EX (V/m) @ t=0.96
1.7983901319045206
% es.EY (V/m) @ t=0.96
0.11323640022930004
% es.EZ (V/m) @ t=0.96
0.7270215399157982
% es.tEX (V/m) @ t=0.96
1.7983901319045206
% es.tEY (V/m) @ t=0.96
0
% es.tEZ (V/m) @ t=0.96
0.7270215399157989
% es.Ex (V/m) @ t=0.96
1.7983901319045206
% es.Ey (V/m) @ t=0.96
0.11323640022930004
% es.Ez (V/m) @ t=0.96
0.7270215399157982
% es.tEx (V/m) @ t=0.96
1.7983901319045206
% es.tEy (V/m) @ t=0.96
0
% es.tEz (V/m) @ t=0.96
0.7270215399157989
% V (V) @ t=0.96
0.009707176730350438
% es.normE (V/m) @ t=0.98
1.963631198823498
% es.EX (V/m) @ t=0.98
1.8146524198276959
% es.EY (V/m) @ t=0.98
0.11426024345614261
% es.EZ (V/m) @ t=0.98
0.7335956637309502
% es.tEX (V/m) @ t=0.98
1.814652419827695
% es.tEY (V/m) @ t=0.98
0
% es.tEZ (V/m) @ t=0.98
0.7335956637309446
% es.Ex (V/m) @ t=0.98
1.8146524198276959
% es.Ey (V/m) @ t=0.98
0.11426024345614261
% es.Ez (V/m) @ t=0.98
0.7335956637309502
% es.tEx (V/m) @ t=0.98
1.814652419827695
% es.tEy (V/m) @ t=0.98
0
% es.tEz (V/m) @ t=0.98
0.7335956637309446
% V (V) @ t=0.98
0.0097949605351537
% es.normE (V/m) @ t=1
1.9812285442309694
% es.EX (V/m) @ t=1
1.8309147077508765
% es.EY (V/m) @ t=1
0.11528408668299128
% es.EZ (V/m) @ t=1
0.7401697875460991
% es.tEX (V/m) @ t=1
1.8309147077508765
% es.tEY (V/m) @ t=1
0
% es.tEZ (V/m) @ t=1
0.740169787546102
% es.Ex (V/m) @ t=1
1.8309147077508765
% es.Ey (V/m) @ t=1
0.11528408668299128
% es.Ez (V/m) @ t=1
0.7401697875460991
% es.tEx (V/m) @ t=1
1.8309147077508765
% es.tEy (V/m) @ t=1
0
% es.tEz (V/m) @ t=1
0.740169787546102
% V (V) @ t=1
0.00988274433995696
% es.normE (V/m) @ t=1.02
1.9988258896384736
% es.EX (V/m) @ t=1.02
1.847176995674066
% es.EY (V/m) @ t=1.02
0.11630792990984984
% es.EZ (V/m) @ t=1.02
0.7467439113612522
% es.tEX (V/m) @ t=1.02
1.8471769956740616
% es.tEY (V/m) @ t=1.02
0
% es.tEZ (V/m) @ t=1.02
0.7467439113612531
% es.Ex (V/m) @ t=1.02
1.847176995674066
% es.Ey (V/m) @ t=1.02
0.11630792990984984
% es.Ez (V/m) @ t=1.02
0.7467439113612522
% es.tEx (V/m) @ t=1.02
1.8471769956740616
% es.tEy (V/m) @ t=1.02
0
% es.tEz (V/m) @ t=1.02
0.7467439113612531
% V (V) @ t=1.02
0.009970528144760222
% es.normE (V/m) @ t=1.04
2.0164232350459788
% es.EX (V/m) @ t=1.04
1.8634392835972333
% es.EY (V/m) @ t=1.04
0.11733177313668086
% es.EZ (V/m) @ t=1.04
0.7533180351764095
% es.tEX (V/m) @ t=1.04
1.8634392835972307
% es.tEY (V/m) @ t=1.04
0
% es.tEZ (V/m) @ t=1.04
0.7533180351764024
% es.Ex (V/m) @ t=1.04
1.8634392835972333
% es.Ey (V/m) @ t=1.04
0.11733177313668086
% es.Ez (V/m) @ t=1.04
0.7533180351764095