% Model:              1 neuron.mph
% Version:            COMSOL 6.0.0.405
% Date:               Mar 16 2023, 17:00
% Dimension:          0
% Nodes:              14017
% Expressions:        14017
% Description:        Electric field norm, Electric field, X component, Electric field, Y component, Electric field, Z component, Tangential electric field, X component, Tangential electric field, Y component, Tangential electric field, Z component, Electric field, x component, Electric field, y component, Electric field, z component, Tangential electric field, x component, Tangential electric field, y component, Tangential electric field, z component, Electric potential
% Length unit:        mm
% x
1.33
% y
12.2
% z
2
% es.normE (V/m) @ t=0
1.450890963809138
% es.EX (V/m) @ t=0
0.5782367104274757
% es.EY (V/m) @ t=0
0.15287487851588466
% es.EZ (V/m) @ t=0
-1.3207026479921327
% es.tEX (V/m) @ t=0
0.5782367104274724
% es.tEY (V/m) @ t=0
0
% es.tEZ (V/m) @ t=0
-1.320702647992137
% es.Ex (V/m) @ t=0
0.5782367104274757
% es.Ey (V/m) @ t=0
0.15287487851588466
% es.Ez (V/m) @ t=0
-1.3207026479921327
% es.tEx (V/m) @ t=0
0.5782367104274724
% es.tEy (V/m) @ t=0
0
% es.tEz (V/m) @ t=0
-1.320702647992137
% V (V) @ t=0
0.007254580800984311
% es.normE (V/m) @ t=0.02
1.2531614682211056
% es.EX (V/m) @ t=0.02
0.49943378503693725
% es.EY (V/m) @ t=0.02
0.13204087472172654
% es.EZ (V/m) @ t=0.02
-1.1407154017573156
% es.tEX (V/m) @ t=0.02
0.49943378503693747
% es.tEY (V/m) @ t=0.02
0
% es.tEZ (V/m) @ t=0.02
-1.140715401757321
% es.Ex (V/m) @ t=0.02
0.49943378503693725
% es.Ey (V/m) @ t=0.02
0.13204087472172654
% es.Ez (V/m) @ t=0.02
-1.1407154017573156
% es.tEx (V/m) @ t=0.02
0.49943378503693747
% es.tEy (V/m) @ t=0.02
0
% es.tEz (V/m) @ t=0.02
-1.140715401757321
% V (V) @ t=0.02
0.006265916031256684
% es.normE (V/m) @ t=0.04
1.264687286616085
% es.EX (V/m) @ t=0.04
0.5040272753083255
% es.EY (V/m) @ t=0.04
0.13325531670652957
% es.EZ (V/m) @ t=0.04
-1.1512070078898775
% es.tEX (V/m) @ t=0.04
0.5040272753083257
% es.tEY (V/m) @ t=0.04
0
% es.tEZ (V/m) @ t=0.04
-1.1512070078898802
% es.Ex (V/m) @ t=0.04
0.5040272753083255
% es.Ey (V/m) @ t=0.04
0.13325531670652957
% es.Ez (V/m) @ t=0.04
-1.1512070078898775
% es.tEx (V/m) @ t=0.04
0.5040272753083257
% es.tEy (V/m) @ t=0.04
0
% es.tEz (V/m) @ t=0.04
-1.1512070078898802
% V (V) @ t=0.04
0.00632354574382186
% es.normE (V/m) @ t=0.06
1.2763163985193136
% es.EX (V/m) @ t=0.06
0.5086619319442176
% es.EY (V/m) @ t=0.06
0.13448064141047178
% es.EZ (V/m) @ t=0.06
-1.161792639157123
% es.tEX (V/m) @ t=0.06
0.5086619319442178
% es.tEY (V/m) @ t=0.06
0
% es.tEZ (V/m) @ t=0.06
-1.1617926391571274
% es.Ex (V/m) @ t=0.06
0.5086619319442176
% es.Ey (V/m) @ t=0.06
0.13448064141047178
% es.Ez (V/m) @ t=0.06
-1.161792639157123
% es.tEx (V/m) @ t=0.06
0.5086619319442178
% es.tEy (V/m) @ t=0.06
0
% es.tEz (V/m) @ t=0.06
-1.1617926391571274
% V (V) @ t=0.06
0.00638169196778649
% es.normE (V/m) @ t=0.08
1.288124419622411
% es.EX (V/m) @ t=0.08
0.513367893069949
% es.EY (V/m) @ t=0.08
0.13572483173842542
% es.EZ (V/m) @ t=0.08
-1.172541123804831
% es.tEX (V/m) @ t=0.08
0.5133678930699492
% es.tEY (V/m) @ t=0.08
0
% es.tEZ (V/m) @ t=0.08
-1.1725411238048302
% es.Ex (V/m) @ t=0.08
0.513367893069949
% es.Ey (V/m) @ t=0.08
0.13572483173842542
% es.Ez (V/m) @ t=0.08
-1.172541123804831
% es.tEx (V/m) @ t=0.08
0.5133678930699492
% es.tEy (V/m) @ t=0.08
0
% es.tEz (V/m) @ t=0.08
-1.1725411238048302
% V (V) @ t=0.08
0.0064407322072898305
% es.normE (V/m) @ t=0.1
1.300053833897684
% es.EX (V/m) @ t=0.1
0.5181222355993231
% es.EY (V/m) @ t=0.1
0.13698182273815185
% es.EZ (V/m) @ t=0.1
-1.1834001074568778
% es.tEX (V/m) @ t=0.1
0.5181222355993231
% es.tEY (V/m) @ t=0.1
0
% es.tEZ (V/m) @ t=0.1
-1.1834001074568814
% es.Ex (V/m) @ t=0.1
0.5181222355993231
% es.Ey (V/m) @ t=0.1
0.13698182273815185
% es.Ez (V/m) @ t=0.1
-1.1834001074568778
% es.tEx (V/m) @ t=0.1
0.5181222355993231
% es.tEy (V/m) @ t=0.1
0
% es.tEz (V/m) @ t=0.1
-1.1834001074568814
% V (V) @ t=0.1
0.006500379052726812
% es.normE (V/m) @ t=0.12
1.3119832481729625
% es.EX (V/m) @ t=0.12
0.5228765781286902
% es.EY (V/m) @ t=0.12
0.13823881373789826
% es.EZ (V/m) @ t=0.12
-1.1942590911089317
% es.tEX (V/m) @ t=0.12
0.5228765781286904
% es.tEY (V/m) @ t=0.12
0
% es.tEZ (V/m) @ t=0.12
-1.1942590911089344
% es.Ex (V/m) @ t=0.12
0.5228765781286902
% es.Ey (V/m) @ t=0.12
0.13823881373789826
% es.Ez (V/m) @ t=0.12
-1.1942590911089317
% es.tEx (V/m) @ t=0.12
0.5228765781286904
% es.tEy (V/m) @ t=0.12
0
% es.tEz (V/m) @ t=0.12
-1.1942590911089344
% V (V) @ t=0.12
0.0065600258981637965
% es.normE (V/m) @ t=0.14
1.3240406837298695
% es.EX (V/m) @ t=0.14
0.5276819402455752
% es.EY (V/m) @ t=0.14
0.13950928117647932
% es.EZ (V/m) @ t=0.14
-1.2052346107070973
% es.tEX (V/m) @ t=0.14
0.5276819402455755
% es.tEY (V/m) @ t=0.14
0
% es.tEZ (V/m) @ t=0.14
-1.2052346107071
% es.Ex (V/m) @ t=0.14
0.5276819402455752
% es.Ey (V/m) @ t=0.14
0.13950928117647932
% es.Ez (V/m) @ t=0.14
-1.2052346107070973
% es.tEx (V/m) @ t=0.14
0.5276819402455755
% es.tEy (V/m) @ t=0.14
0
% es.tEz (V/m) @ t=0.14
-1.2052346107071
% V (V) @ t=0.14
0.006620313333687946
% es.normE (V/m) @ t=0.16
1.3366055299645998
% es.EX (V/m) @ t=0.16
0.5326895178312279
% es.EY (V/m) @ t=0.16
0.14083316230438925
% es.EZ (V/m) @ t=0.16
-1.216672019005796
% es.tEX (V/m) @ t=0.16
0.5326895178312281
% es.tEY (V/m) @ t=0.16
0
% es.tEZ (V/m) @ t=0.16
-1.2166720190058005
% es.Ex (V/m) @ t=0.16
0.5326895178312279
% es.Ey (V/m) @ t=0.16
0.14083316230438925
% es.Ez (V/m) @ t=0.16
-1.216672019005796
% es.tEx (V/m) @ t=0.16
0.5326895178312281
% es.tEy (V/m) @ t=0.16
0
% es.tEz (V/m) @ t=0.16
-1.2166720190058005
% V (V) @ t=0.16
0.0066831397396568005
% es.normE (V/m) @ t=0.18
1.34917037619933
% es.EX (V/m) @ t=0.18
0.5376970954168769
% es.EY (V/m) @ t=0.18
0.14215704343230762
% es.EZ (V/m) @ t=0.18
-1.2281094273044948
% es.tEX (V/m) @ t=0.18
0.5376970954168736
% es.tEY (V/m) @ t=0.18
0
% es.tEZ (V/m) @ t=0.18
-1.2281094273044957
% es.Ex (V/m) @ t=0.18
0.5376970954168769
% es.Ey (V/m) @ t=0.18
0.14215704343230762
% es.Ez (V/m) @ t=0.18
-1.2281094273044948
% es.tEx (V/m) @ t=0.18
0.5376970954168736
% es.tEy (V/m) @ t=0.18
0
% es.tEz (V/m) @ t=0.18
-1.2281094273044957
% V (V) @ t=0.18
0.006745966145625653
% es.normE (V/m) @ t=0.2
1.3617352224340653
% es.EX (V/m) @ t=0.2
0.5427046730025331
% es.EY (V/m) @ t=0.2
0.14348092456021355
% es.EZ (V/m) @ t=0.2
-1.2395468356031953
% es.tEX (V/m) @ t=0.2
0.5427046730025333
% es.tEY (V/m) @ t=0.2
0
% es.tEZ (V/m) @ t=0.2
-1.2395468356031945
% es.Ex (V/m) @ t=0.2
0.5427046730025331
% es.Ey (V/m) @ t=0.2
0.14348092456021355
% es.Ez (V/m) @ t=0.2
-1.2395468356031953
% es.tEx (V/m) @ t=0.2
0.5427046730025333
% es.tEy (V/m) @ t=0.2
0
% es.tEz (V/m) @ t=0.2
-1.2395468356031945
% V (V) @ t=0.2
0.006808792551594506
% es.normE (V/m) @ t=0.22
1.3743000686687987
% es.EX (V/m) @ t=0.22
0.5477122505881822
% es.EY (V/m) @ t=0.22
0.14480480568812837
% es.EZ (V/m) @ t=0.22
-1.2509842439018959
% es.tEX (V/m) @ t=0.22
0.547712250588186
% es.tEY (V/m) @ t=0.22
0
% es.tEZ (V/m) @ t=0.22
-1.2509842439019003
% es.Ex (V/m) @ t=0.22
0.5477122505881822
% es.Ey (V/m) @ t=0.22
0.14480480568812837
% es.Ez (V/m) @ t=0.22
-1.2509842439018959
% es.tEx (V/m) @ t=0.22
0.547712250588186
% es.tEy (V/m) @ t=0.22
0
% es.tEz (V/m) @ t=0.22
-1.2509842439019003
% V (V) @ t=0.22
0.00687161895756336
% es.normE (V/m) @ t=0.24
1.386864914903541
% es.EX (V/m) @ t=0.24
0.5527198281738455
% es.EY (V/m) @ t=0.24
0.14612868681604985
% es.EZ (V/m) @ t=0.24
-1.2624216522005982
% es.tEX (V/m) @ t=0.24
0.5527198281738457
% es.tEY (V/m) @ t=0.24
0
% es.tEZ (V/m) @ t=0.24
-1.2624216522006044
% es.Ex (V/m) @ t=0.24
0.5527198281738455
% es.Ey (V/m) @ t=0.24
0.14612868681604985
% es.Ez (V/m) @ t=0.24
-1.2624216522005982
% es.tEx (V/m) @ t=0.24
0.5527198281738457
% es.tEy (V/m) @ t=0.24
0
% es.tEz (V/m) @ t=0.24
-1.2624216522006044
% V (V) @ t=0.24
0.006934445363532212
% es.normE (V/m) @ t=0.26
1.3994297611382687
% es.EX (V/m) @ t=0.26
0.557727405759491
% es.EY (V/m) @ t=0.26
0.1474525679439629
% es.EZ (V/m) @ t=0.26
-1.2738590604992917
% es.tEX (V/m) @ t=0.26
0.5577274057594912
% es.tEY (V/m) @ t=0.26
0
% es.tEZ (V/m) @ t=0.26
-1.273859060499296
% es.Ex (V/m) @ t=0.26
0.557727405759491
% es.Ey (V/m) @ t=0.26
0.1474525679439629
% es.Ez (V/m) @ t=0.26
-1.2738590604992917
% es.tEx (V/m) @ t=0.26
0.5577274057594912
% es.tEy (V/m) @ t=0.26
0
% es.tEz (V/m) @ t=0.26
-1.273859060499296
% V (V) @ t=0.26
0.0069972717695010655
% es.normE (V/m) @ t=0.28
1.4125846656767362
% es.EX (V/m) @ t=0.28
0.56297014594868
% es.EY (V/m) @ t=0.28
0.148838630363755
% es.EZ (V/m) @ t=0.28
-1.2858335798025289
% es.tEX (V/m) @ t=0.28
0.5629701459486802
% es.tEY (V/m) @ t=0.28
0
% es.tEZ (V/m) @ t=0.28
-1.2858335798025315
% es.Ex (V/m) @ t=0.28
0.56297014594868
% es.Ey (V/m) @ t=0.28
0.148838630363755
% es.Ez (V/m) @ t=0.28
-1.2858335798025289
% es.tEx (V/m) @ t=0.28
0.5629701459486802
% es.tEy (V/m) @ t=0.28
0
% es.tEz (V/m) @ t=0.28
-1.2858335798025315
% V (V) @ t=0.28
0.00706304817932193
% es.normE (V/m) @ t=0.3
1.426578616395481
% es.EX (V/m) @ t=0.3
0.5685472806934253
% es.EY (V/m) @ t=0.3
0.150313112817829
% es.EZ (V/m) @ t=0.3
-1.298571855727606
% es.tEX (V/m) @ t=0.3
0.5685472806934255
% es.tEY (V/m) @ t=0.3
0
% es.tEZ (V/m) @ t=0.3
-1.2985718557276087
% es.Ex (V/m) @ t=0.3
0.5685472806934253
% es.Ey (V/m) @ t=0.3
0.150313112817829
% es.Ez (V/m) @ t=0.3
-1.298571855727606
% es.tEx (V/m) @ t=0.3
0.5685472806934255
% es.tEy (V/m) @ t=0.3
0
% es.tEz (V/m) @ t=0.3
-1.2985718557276087
% V (V) @ t=0.3
0.007133019410990463
% es.normE (V/m) @ t=0.32
1.4405725671142404
% es.EX (V/m) @ t=0.32
0.5741244154381993
% es.EY (V/m) @ t=0.32
0.1517875952718919
% es.EZ (V/m) @ t=0.32
-1.3113101316526885
% es.tEX (V/m) @ t=0.32
0.5741244154381993
% es.tEY (V/m) @ t=0.32
0
% es.tEZ (V/m) @ t=0.32
-1.3113101316526965
% es.Ex (V/m) @ t=0.32
0.5741244154381993
% es.Ey (V/m) @ t=0.32
0.1517875952718919
% es.Ez (V/m) @ t=0.32
-1.3113101316526885
% es.tEx (V/m) @ t=0.32
0.5741244154381993
% es.tEy (V/m) @ t=0.32
0
% es.tEz (V/m) @ t=0.32
-1.3113101316526965
% V (V) @ t=0.32
0.007202990642658997
% es.normE (V/m) @ t=0.34
1.454566517832995
% es.EX (V/m) @ t=0.34
0.5797015501829519
% es.EY (V/m) @ t=0.34
0.15326207772596945
% es.EZ (V/m) @ t=0.34
-1.3240484075777728
% es.tEX (V/m) @ t=0.34
0.5797015501829521
% es.tEY (V/m) @ t=0.34
0
% es.tEZ (V/m) @ t=0.34
-1.3240484075777736
% es.Ex (V/m) @ t=0.34
0.5797015501829519
% es.Ey (V/m) @ t=0.34
0.15326207772596945
% es.Ez (V/m) @ t=0.34
-1.3240484075777728
% es.tEx (V/m) @ t=0.34
0.5797015501829521
% es.tEy (V/m) @ t=0.34
0
% es.tEz (V/m) @ t=0.34
-1.3240484075777736
% V (V) @ t=0.34
0.00727296187432753
% es.normE (V/m) @ t=0.36
1.468560468551746
% es.EX (V/m) @ t=0.36
0.5852786849277141
% es.EY (V/m) @ t=0.36
0.1547365601800279
% es.EZ (V/m) @ t=0.36
-1.3367866835028517
% es.tEX (V/m) @ t=0.36
0.5852786849277178
% es.tEY (V/m) @ t=0.36
0
% es.tEZ (V/m) @ t=0.36
-1.3367866835028597
% es.Ex (V/m) @ t=0.36
0.5852786849277141
% es.Ey (V/m) @ t=0.36
0.1547365601800279
% es.Ez (V/m) @ t=0.36
-1.3367866835028517
% es.tEx (V/m) @ t=0.36
0.5852786849277178
% es.tEy (V/m) @ t=0.36
0
% es.tEz (V/m) @ t=0.36
-1.3367866835028597
% V (V) @ t=0.36
0.007342933105996064
% es.normE (V/m) @ t=0.38
1.4825544192705014
% es.EX (V/m) @ t=0.38
0.5908558196724669
% es.EY (V/m) @ t=0.38
0.1562110426340979
% es.EZ (V/m) @ t=0.38
-1.3495249594279377
% es.tEX (V/m) @ t=0.38
0.5908558196724636
% es.tEY (V/m) @ t=0.38
0
% es.tEZ (V/m) @ t=0.38
-1.3495249594279368
% es.Ex (V/m) @ t=0.38
0.5908558196724669
% es.Ey (V/m) @ t=0.38
0.1562110426340979
% es.Ez (V/m) @ t=0.38
-1.3495249594279377
% es.tEx (V/m) @ t=0.38
0.5908558196724636
% es.tEy (V/m) @ t=0.38
0
% es.tEz (V/m) @ t=0.38
-1.3495249594279368
% V (V) @ t=0.38
0.007412904337664598
% es.normE (V/m) @ t=0.4
1.4965483699892523
% es.EX (V/m) @ t=0.4
0.5964329544172264
% es.EY (V/m) @ t=0.4
0.15768552508816303
% es.EZ (V/m) @ t=0.4
-1.3622632353530166
% es.tEX (V/m) @ t=0.4
0.5964329544172302
% es.tEY (V/m) @ t=0.4
0
% es.tEZ (V/m) @ t=0.4
-1.3622632353530157
% es.Ex (V/m) @ t=0.4
0.5964329544172264
% es.Ey (V/m) @ t=0.4
0.15768552508816303
% es.Ez (V/m) @ t=0.4
-1.3622632353530166
% es.tEx (V/m) @ t=0.4
0.5964329544172302
% es.tEy (V/m) @ t=0.4
0
% es.tEz (V/m) @ t=0.4
-1.3622632353530157
% V (V) @ t=0.4
0.00748287556933313
% es.normE (V/m) @ t=0.42
1.5105423207080073
% es.EX (V/m) @ t=0.42
0.602010089161986
% es.EY (V/m) @ t=0.42
0.1591600075422348
% es.EZ (V/m) @ t=0.42
-1.375001511278099
% es.tEX (V/m) @ t=0.42
0.6020100891619826
% es.tEY (V/m) @ t=0.42
0
% es.tEZ (V/m) @ t=0.42
-1.3750015112781035
% es.Ex (V/m) @ t=0.42
0.602010089161986
% es.Ey (V/m) @ t=0.42
0.1591600075422348
% es.Ez (V/m) @ t=0.42
-1.375001511278099
% es.tEx (V/m) @ t=0.42
0.6020100891619826
% es.tEy (V/m) @ t=0.42
0
% es.tEz (V/m) @ t=0.42
-1.3750015112781035
% V (V) @ t=0.42
0.007552846801001662
% es.normE (V/m) @ t=0.44
1.52453627142676
% es.EX (V/m) @ t=0.44
0.6075872239067486
% es.EY (V/m) @ t=0.44
0.16063448999630436
% es.EZ (V/m) @ t=0.44
-1.387739787203178
% es.tEX (V/m) @ t=0.44
0.6075872239067488
% es.tEY (V/m) @ t=0.44
0
% es.tEZ (V/m) @ t=0.44
-1.3877397872031825
% es.Ex (V/m) @ t=0.44
0.6075872239067486
% es.Ey (V/m) @ t=0.44
0.16063448999630436
% es.Ez (V/m) @ t=0.44
-1.387739787203178
% es.tEx (V/m) @ t=0.44
0.6075872239067488
% es.tEy (V/m) @ t=0.44
0
% es.tEz (V/m) @ t=0.44
-1.3877397872031825
% V (V) @ t=0.44
0.007622818032670198
% es.normE (V/m) @ t=0.46
1.5385302221455133
% es.EX (V/m) @ t=0.46
0.613164358651501
% es.EY (V/m) @ t=0.46
0.16210897245036904
% es.EZ (V/m) @ t=0.46
-1.4004780631282623
% es.tEX (V/m) @ t=0.46
0.6131643586515012
% es.tEY (V/m) @ t=0.46
0
% es.tEZ (V/m) @ t=0.46
-1.4004780631282667
% es.Ex (V/m) @ t=0.46
0.613164358651501
% es.Ey (V/m) @ t=0.46
0.16210897245036904
% es.Ez (V/m) @ t=0.46
-1.4004780631282623
% es.tEx (V/m) @ t=0.46
0.6131643586515012
% es.tEy (V/m) @ t=0.46
0
% es.tEz (V/m) @ t=0.46
-1.4004780631282667
% V (V) @ t=0.46
0.00769278926433873
% es.normE (V/m) @ t=0.48
1.5525241728642585
% es.EX (V/m) @ t=0.48
0.6187414933962534
% es.EY (V/m) @ t=0.48
0.16358345490444792
% es.EZ (V/m) @ t=0.48
-1.4132163390533359
% es.tEX (V/m) @ t=0.48
0.6187414933962536
% es.tEY (V/m) @ t=0.48
0
% es.tEZ (V/m) @ t=0.48
-1.4132163390533403
% es.Ex (V/m) @ t=0.48
0.6187414933962534
% es.Ey (V/m) @ t=0.48
0.16358345490444792
% es.Ez (V/m) @ t=0.48
-1.4132163390533359
% es.tEx (V/m) @ t=0.48
0.6187414933962536
% es.tEy (V/m) @ t=0.48
0
% es.tEz (V/m) @ t=0.48
-1.4132163390533403
% V (V) @ t=0.48
0.0077627604960072635
% es.normE (V/m) @ t=0.5
1.566518123583022
% es.EX (V/m) @ t=0.5
0.6243186281410271
% es.EY (V/m) @ t=0.5
0.16505793735850238
% es.EZ (V/m) @ t=0.5
-1.4259546149784237
% es.tEX (V/m) @ t=0.5
0.6243186281410273
% es.tEY (V/m) @ t=0.5
0
% es.tEZ (V/m) @ t=0.5
-1.4259546149784246
% es.Ex (V/m) @ t=0.5
0.6243186281410271
% es.Ey (V/m) @ t=0.5
0.16505793735850238
% es.Ez (V/m) @ t=0.5
-1.4259546149784237
% es.tEx (V/m) @ t=0.5
0.6243186281410273
% es.tEy (V/m) @ t=0.5
0
% es.tEz (V/m) @ t=0.5
-1.4259546149784246
% V (V) @ t=0.5
0.007832731727675797
% es.normE (V/m) @ t=0.52
1.5805120743017724
% es.EX (V/m) @ t=0.52
0.6298957628857831
% es.EY (V/m) @ t=0.52
0.1665324198125706
% es.EZ (V/m) @ t=0.52
-1.4386928909035026
% es.tEX (V/m) @ t=0.52
0.6298957628857798
% es.tEY (V/m) @ t=0.52
0
% es.tEZ (V/m) @ t=0.52
-1.4386928909035088
% es.Ex (V/m) @ t=0.52
0.6298957628857831
% es.Ey (V/m) @ t=0.52
0.1665324198125706
% es.Ez (V/m) @ t=0.52
-1.4386928909035026
% es.tEx (V/m) @ t=0.52
0.6298957628857798
% es.tEy (V/m) @ t=0.52
0
% es.tEz (V/m) @ t=0.52
-1.4386928909035088
% V (V) @ t=0.52
0.007902702959344329
% es.normE (V/m) @ t=0.54
1.5945060250205276
% es.EX (V/m) @ t=0.54
0.635472897630539
% es.EY (V/m) @ t=0.54
0.1680069022666375
% es.EZ (V/m) @ t=0.54
-1.4514311668285877
% es.tEX (V/m) @ t=0.54
0.6354728976305393
% es.tEY (V/m) @ t=0.54
0
% es.tEZ (V/m) @ t=0.54
-1.4514311668285913
% es.Ex (V/m) @ t=0.54
0.635472897630539
% es.Ey (V/m) @ t=0.54
0.1680069022666375
% es.Ez (V/m) @ t=0.54
-1.4514311668285877
% es.tEx (V/m) @ t=0.54
0.6354728976305393
% es.tEy (V/m) @ t=0.54
0
% es.tEz (V/m) @ t=0.54
-1.4514311668285913
% V (V) @ t=0.54
0.007972674191012866
% es.normE (V/m) @ t=0.56
1.6098533432329594
% es.EX (V/m) @ t=0.56
0.6415893990111152
% es.EY (V/m) @ t=0.56
0.16962396204732766
% es.EZ (V/m) @ t=0.56
-1.465401376110429
% es.tEX (V/m) @ t=0.56
0.6415893990111154
% es.tEY (V/m) @ t=0.56
0
% es.tEZ (V/m) @ t=0.56
-1.4654013761104316
% es.Ex (V/m) @ t=0.56
0.6415893990111152
% es.Ey (V/m) @ t=0.56
0.16962396204732766
% es.Ez (V/m) @ t=0.56
-1.465401376110429
% es.tEx (V/m) @ t=0.56
0.6415893990111154
% es.tEy (V/m) @ t=0.56
0
% es.tEz (V/m) @ t=0.56
-1.4654013761104316
% V (V) @ t=0.56
0.008049413195245343
% es.normE (V/m) @ t=0.58
1.625466701406111
% es.EX (V/m) @ t=0.58
0.6478119270838241
% es.EY (V/m) @ t=0.58
0.17126904914990426
% es.EZ (V/m) @ t=0.58
-1.4796137542808951
% es.tEX (V/m) @ t=0.58
0.6478119270838243
% es.tEY (V/m) @ t=0.58
0
% es.tEZ (V/m) @ t=0.58
-1.4796137542809014
% es.Ex (V/m) @ t=0.58
0.6478119270838241
% es.Ey (V/m) @ t=0.58
0.17126904914990426
% es.Ez (V/m) @ t=0.58
-1.4796137542808951
% es.tEx (V/m) @ t=0.58
0.6478119270838243
% es.tEy (V/m) @ t=0.58
0
% es.tEz (V/m) @ t=0.58
-1.4796137542809014
% V (V) @ t=0.58
0.008127482583098998
% es.normE (V/m) @ t=0.6
1.6410800595792465
% es.EX (V/m) @ t=0.6
0.654034455156512
% es.EY (V/m) @ t=0.6
0.1729141362524662
% es.EZ (V/m) @ t=0.6
-1.4938261324513542
% es.tEX (V/m) @ t=0.6
0.6540344551565123
% es.tEY (V/m) @ t=0.6
0
% es.tEZ (V/m) @ t=0.6
-1.493826132451355
% es.Ex (V/m) @ t=0.6
0.654034455156512
% es.Ey (V/m) @ t=0.6
0.1729141362524662
% es.Ez (V/m) @ t=0.6
-1.4938261324513542
% es.tEx (V/m) @ t=0.6
0.6540344551565123
% es.tEy (V/m) @ t=0.6
0
% es.tEz (V/m) @ t=0.6
-1.493826132451355
% V (V) @ t=0.6
0.008205551970952659
% es.normE (V/m) @ t=0.62
1.6566934177524
% es.EX (V/m) @ t=0.62
0.6602569832292355
% es.EY (V/m) @ t=0.62
0.1745592233550366
% es.EZ (V/m) @ t=0.62
-1.508038510621815
% es.tEX (V/m) @ t=0.62
0.6602569832292358
% es.tEY (V/m) @ t=0.62
0
% es.tEZ (V/m) @ t=0.62
-1.5080385106218213
% es.Ex (V/m) @ t=0.62
0.6602569832292355
% es.Ey (V/m) @ t=0.62
0.1745592233550366
% es.Ez (V/m) @ t=0.62
-1.508038510621815
% es.tEx (V/m) @ t=0.62
0.6602569832292358
% es.tEy (V/m) @ t=0.62
0
% es.tEz (V/m) @ t=0.62
-1.5080385106218213
% V (V) @ t=0.62
0.008283621358806318
% es.normE (V/m) @ t=0.64
1.6723067759255503
% es.EX (V/m) @ t=0.64
0.6664795113019373
% es.EY (V/m) @ t=0.64
0.17620431045761142
% es.EZ (V/m) @ t=0.64
-1.5222508887922812
% es.tEX (V/m) @ t=0.64
0.6664795113019375
% es.tEY (V/m) @ t=0.64
0
% es.tEZ (V/m) @ t=0.64
-1.5222508887922874
% es.Ex (V/m) @ t=0.64
0.6664795113019373
% es.Ey (V/m) @ t=0.64
0.17620431045761142
% es.Ez (V/m) @ t=0.64
-1.5222508887922812
% es.tEx (V/m) @ t=0.64
0.6664795113019375
% es.tEy (V/m) @ t=0.64
0
% es.tEz (V/m) @ t=0.64
-1.5222508887922874
% V (V) @ t=0.64
0.008361690746659977
% es.normE (V/m) @ t=0.66
1.6879201340986891
% es.EX (V/m) @ t=0.66
0.6727020393746395
% es.EY (V/m) @ t=0.66
0.17784939756017515
% es.EZ (V/m) @ t=0.66
-1.536463266962735
% es.tEX (V/m) @ t=0.66
0.6727020393746397
% es.tEY (V/m) @ t=0.66
0
% es.tEZ (V/m) @ t=0.66
-1.5364632669627412
% es.Ex (V/m) @ t=0.66
0.6727020393746395
% es.Ey (V/m) @ t=0.66
0.17784939756017515
% es.Ez (V/m) @ t=0.66
-1.536463266962735
% es.tEx (V/m) @ t=0.66
0.6727020393746397
% es.tEy (V/m) @ t=0.66
0
% es.tEz (V/m) @ t=0.66
-1.5364632669627412
% V (V) @ t=0.66
0.008439760134513636
% es.normE (V/m) @ t=0.68
1.7035334922718488
% es.EX (V/m) @ t=0.68
0.6789245674473594
% es.EY (V/m) @ t=0.68
0.17949448466274198
% es.EZ (V/m) @ t=0.68
-1.550675645133202
% es.tEX (V/m) @ t=0.68
0.6789245674473561
% es.tEY (V/m) @ t=0.68
0
% es.tEZ (V/m) @ t=0.68
-1.5506756451332055
% es.Ex (V/m) @ t=0.68
0.6789245674473594
% es.Ey (V/m) @ t=0.68
0.17949448466274198
% es.Ez (V/m) @ t=0.68
-1.550675645133202
% es.tEx (V/m) @ t=0.68
0.6789245674473561
% es.tEy (V/m) @ t=0.68
0
% es.tEz (V/m) @ t=0.68
-1.5506756451332055
% V (V) @ t=0.68
0.008517829522367296
% es.normE (V/m) @ t=0.7
1.7191468504449958
% es.EX (V/m) @ t=0.7
0.6851470955200474
% es.EY (V/m) @ t=0.7
0.1811395717653217
% es.EZ (V/m) @ t=0.7
-1.5648880233036673
% es.tEX (V/m) @ t=0.7
0.685147095520044
% es.tEY (V/m) @ t=0.7
0
% es.tEZ (V/m) @ t=0.7
-1.5648880233036717
% es.Ex (V/m) @ t=0.7
0.6851470955200474
% es.Ey (V/m) @ t=0.7
0.1811395717653217
% es.Ez (V/m) @ t=0.7
-1.5648880233036673
% es.tEx (V/m) @ t=0.7
0.685147095520044
% es.tEy (V/m) @ t=0.7
0
% es.tEz (V/m) @ t=0.7
-1.5648880233036717
% V (V) @ t=0.7
0.008595898910220954
% es.normE (V/m) @ t=0.72
1.73476020861814
% es.EX (V/m) @ t=0.72
0.6913696235927558
% es.EY (V/m) @ t=0.72
0.18278465886788942
% es.EZ (V/m) @ t=0.72
-1.579100401474121
% es.tEX (V/m) @ t=0.72
0.6913696235927524
% es.tEY (V/m) @ t=0.72
0
% es.tEZ (V/m) @ t=0.72
-1.5791004014741272
% es.Ex (V/m) @ t=0.72
0.6913696235927558
% es.Ey (V/m) @ t=0.72
0.18278465886788942
% es.Ez (V/m) @ t=0.72
-1.579100401474121
% es.tEx (V/m) @ t=0.72
0.6913696235927524
% es.tEy (V/m) @ t=0.72
0
% es.tEz (V/m) @ t=0.72
-1.5791004014741272
% V (V) @ t=0.72
0.00867396829807461
% es.normE (V/m) @ t=0.74
1.7503735667912983
% es.EX (V/m) @ t=0.74
0.6975921516654686
% es.EY (V/m) @ t=0.74
0.18442974597044381
% es.EZ (V/m) @ t=0.74
-1.5933127796445898
% es.tEX (V/m) @ t=0.74
0.6975921516654688
% es.tEY (V/m) @ t=0.74
0
% es.tEZ (V/m) @ t=0.74
-1.5933127796445916
% es.Ex (V/m) @ t=0.74
0.6975921516654686
% es.Ey (V/m) @ t=0.74
0.18442974597044381
% es.Ez (V/m) @ t=0.74
-1.5933127796445898
% es.tEx (V/m) @ t=0.74
0.6975921516654688
% es.tEy (V/m) @ t=0.74
0
% es.tEz (V/m) @ t=0.74
-1.5933127796445916
% V (V) @ t=0.74
0.008752037685928273
% es.normE (V/m) @ t=0.76
1.7659869249644464
% es.EX (V/m) @ t=0.76
0.7038146797381775
% es.EY (V/m) @ t=0.76
0.18607483307301154
% es.EZ (V/m) @ t=0.76
-1.6075251578150462
% es.tEX (V/m) @ t=0.76
0.7038146797381777
% es.tEY (V/m) @ t=0.76
0
% es.tEZ (V/m) @ t=0.76
-1.607525157815049
% es.Ex (V/m) @ t=0.76
0.7038146797381775
% es.Ey (V/m) @ t=0.76
0.18607483307301154
% es.Ez (V/m) @ t=0.76
-1.6075251578150462
% es.tEx (V/m) @ t=0.76
0.7038146797381777
% es.tEy (V/m) @ t=0.76
0
% es.tEz (V/m) @ t=0.76
-1.607525157815049
% V (V) @ t=0.76
0.00883010707378193
% es.normE (V/m) @ t=0.78
1.781600283137605
% es.EX (V/m) @ t=0.78
0.7100372078108868
% es.EY (V/m) @ t=0.78
0.1877199201755877
% es.EZ (V/m) @ t=0.78
-1.6217375359855124
% es.tEX (V/m) @ t=0.78
0.710037207810887
% es.tEY (V/m) @ t=0.78
0
% es.tEZ (V/m) @ t=0.78
-1.6217375359855133
% es.Ex (V/m) @ t=0.78
0.7100372078108868
% es.Ey (V/m) @ t=0.78
0.1877199201755877
% es.Ez (V/m) @ t=0.78
-1.6217375359855124
% es.tEx (V/m) @ t=0.78
0.710037207810887
% es.tEy (V/m) @ t=0.78
0
% es.tEz (V/m) @ t=0.78
-1.6217375359855133
% V (V) @ t=0.78
0.008908176461635591
% es.normE (V/m) @ t=0.8
1.7972136413107518
% es.EX (V/m) @ t=0.8
0.7162597358835956
% es.EY (V/m) @ t=0.8
0.18936500727815542
% es.EZ (V/m) @ t=0.8
-1.6359499141559661
% es.tEX (V/m) @ t=0.8
0.7162597358835958
% es.tEY (V/m) @ t=0.8
0
% es.tEZ (V/m) @ t=0.8
-1.6359499141559706
% es.Ex (V/m) @ t=0.8
0.7162597358835956
% es.Ey (V/m) @ t=0.8
0.18936500727815542
% es.Ez (V/m) @ t=0.8
-1.6359499141559661
% es.tEx (V/m) @ t=0.8
0.7162597358835958
% es.tEy (V/m) @ t=0.8
0
% es.tEz (V/m) @ t=0.8
-1.6359499141559706
% V (V) @ t=0.8
0.00898624584948925
% es.normE (V/m) @ t=0.82
1.813302353499061
% es.EX (V/m) @ t=0.82
0.7226717111478842
% es.EY (V/m) @ t=0.82
0.1910601809669119
% es.EZ (V/m) @ t=0.82
-1.6505949928142138
% es.tEX (V/m) @ t=0.82
0.7226717111478811
% es.tEY (V/m) @ t=0.82
0
% es.tEZ (V/m) @ t=0.82
-1.6505949928142112
% es.Ex (V/m) @ t=0.82
0.7226717111478842
% es.Ey (V/m) @ t=0.82
0.1910601809669119
% es.Ez (V/m) @ t=0.82
-1.6505949928142138
% es.tEx (V/m) @ t=0.82
0.7226717111478811
% es.tEy (V/m) @ t=0.82
0
% es.tEz (V/m) @ t=0.82
-1.6505949928142112
% V (V) @ t=0.82
0.00906669203615886
% es.normE (V/m) @ t=0.84
1.8307542591403245
% es.EX (V/m) @ t=0.84
0.7296269723906958
% es.EY (V/m) @ t=0.84
0.19289899014451484
% es.EZ (V/m) @ t=0.84
-1.6664809455436327
% es.tEX (V/m) @ t=0.84
0.7296269723906961
% es.tEY (V/m) @ t=0.84
0
% es.tEZ (V/m) @ t=0.84
-1.6664809455436398
% es.Ex (V/m) @ t=0.84
0.7296269723906958
% es.Ey (V/m) @ t=0.84
0.19289899014451484
% es.Ez (V/m) @ t=0.84
-1.6664809455436327
% es.tEx (V/m) @ t=0.84
0.7296269723906961
% es.tEy (V/m) @ t=0.84
0
% es.tEz (V/m) @ t=0.84
-1.6664809455436398
% V (V) @ t=0.84
0.00915395427251285
% es.normE (V/m) @ t=0.86
1.8482061647816064
% es.EX (V/m) @ t=0.86
0.7365822336335321
% es.EY (V/m) @ t=0.86
0.19473779932211954
% es.EZ (V/m) @ t=0.86
-1.6823668982730604
% es.tEX (V/m) @ t=0.86
0.7365822336335324
% es.tEY (V/m) @ t=0.86
0
% es.tEZ (V/m) @ t=0.86
-1.682366898273063
% es.Ex (V/m) @ t=0.86
0.7365822336335321
% es.Ey (V/m) @ t=0.86
0.19473779932211954
% es.Ez (V/m) @ t=0.86
-1.6823668982730604
% es.tEx (V/m) @ t=0.86
0.7365822336335324
% es.tEy (V/m) @ t=0.86
0
% es.tEz (V/m) @ t=0.86
-1.682366898273063
% V (V) @ t=0.86
0.009241216508866841
% es.normE (V/m) @ t=0.88
1.8656580704228722
% es.EX (V/m) @ t=0.88
0.7435374948763334
% es.EY (V/m) @ t=0.88
0.19657660849972025
% es.EZ (V/m) @ t=0.88
-1.6982528510024855
% es.tEX (V/m) @ t=0.88
0.7435374948763336
% es.tEY (V/m) @ t=0.88
0
% es.tEZ (V/m) @ t=0.88
-1.6982528510024846
% es.Ex (V/m) @ t=0.88
0.7435374948763334
% es.Ey (V/m) @ t=0.88
0.19657660849972025
% es.Ez (V/m) @ t=0.88
-1.6982528510024855
% es.tEx (V/m) @ t=0.88
0.7435374948763336
% es.tEy (V/m) @ t=0.88
0
% es.tEz (V/m) @ t=0.88
-1.6982528510024846
% V (V) @ t=0.88
0.009328478745220834
% es.normE (V/m) @ t=0.9
1.883109976064151
% es.EX (V/m) @ t=0.9
0.7504927561191557
% es.EY (V/m) @ t=0.9
0.19841541767733517
% es.EZ (V/m) @ t=0.9
-1.7141388037319132
% es.tEX (V/m) @ t=0.9
0.7504927561191561
% es.tEY (V/m) @ t=0.9
0
% es.tEZ (V/m) @ t=0.9
-1.7141388037319203
% es.Ex (V/m) @ t=0.9
0.7504927561191557
% es.Ey (V/m) @ t=0.9
0.19841541767733517
% es.Ez (V/m) @ t=0.9
-1.7141388037319132
% es.tEx (V/m) @ t=0.9
0.7504927561191561
% es.tEy (V/m) @ t=0.9
0
% es.tEz (V/m) @ t=0.9
-1.7141388037319203
% V (V) @ t=0.9
0.009415740981574824
% es.normE (V/m) @ t=0.92
1.9005618817054382
% es.EX (V/m) @ t=0.92
0.7574480173619784
% es.EY (V/m) @ t=0.92
0.20025422685494654
% es.EZ (V/m) @ t=0.92
-1.7300247564613498
% es.tEX (V/m) @ t=0.92
0.7574480173619786
% es.tEY (V/m) @ t=0.92
0
% es.tEZ (V/m) @ t=0.92
-1.7300247564613596
% es.Ex (V/m) @ t=0.92
0.7574480173619784
% es.Ey (V/m) @ t=0.92
0.20025422685494654
% es.Ez (V/m) @ t=0.92
-1.7300247564613498
% es.tEx (V/m) @ t=0.92
0.7574480173619786
% es.tEy (V/m) @ t=0.92
0
% es.tEz (V/m) @ t=0.92
-1.7300247564613596
% V (V) @ t=0.92
0.009503003217928815
% es.normE (V/m) @ t=0.94
1.9180137873467038
% es.EX (V/m) @ t=0.94
0.7644032786047863
% es.EY (V/m) @ t=0.94
0.20209303603254636
% es.EZ (V/m) @ t=0.94
-1.7459107091907713
% es.tEX (V/m) @ t=0.94
0.7644032786047865
% es.tEY (V/m) @ t=0.94
0
% es.tEZ (V/m) @ t=0.94
-1.7459107091907686
% es.Ex (V/m) @ t=0.94
0.7644032786047863
% es.Ey (V/m) @ t=0.94
0.20209303603254636
% es.Ez (V/m) @ t=0.94
-1.7459107091907713
% es.tEx (V/m) @ t=0.94
0.7644032786047865
% es.tEy (V/m) @ t=0.94
0
% es.tEz (V/m) @ t=0.94
-1.7459107091907686
% V (V) @ t=0.94
0.009590265454282806
% es.normE (V/m) @ t=0.96
1.9354656929879774
% es.EX (V/m) @ t=0.96
0.7713585398476084
% es.EY (V/m) @ t=0.96
0.2039318452101595
% es.EZ (V/m) @ t=0.96
-1.761796661920192
% es.tEX (V/m) @ t=0.96
0.7713585398476086
% es.tEY (V/m) @ t=0.96
0
% es.tEZ (V/m) @ t=0.96
-1.7617966619201972
% es.Ex (V/m) @ t=0.96
0.7713585398476084
% es.Ey (V/m) @ t=0.96
0.2039318452101595
% es.Ez (V/m) @ t=0.96
-1.761796661920192
% es.tEx (V/m) @ t=0.96
0.7713585398476086
% es.tEy (V/m) @ t=0.96
0
% es.tEz (V/m) @ t=0.96
-1.7617966619201972
% V (V) @ t=0.96
0.009677527690636798
% es.normE (V/m) @ t=0.98
1.9529175986292542
% es.EX (V/m) @ t=0.98
0.7783138010904236
% es.EY (V/m) @ t=0.98
0.20577065438776465
% es.EZ (V/m) @ t=0.98
-1.7776826146496196
% es.tEX (V/m) @ t=0.98
0.778313801090424
% es.tEY (V/m) @ t=0.98
0
% es.tEZ (V/m) @ t=0.98
-1.777682614649624
% es.Ex (V/m) @ t=0.98
0.7783138010904236
% es.Ey (V/m) @ t=0.98
0.20577065438776465
% es.Ez (V/m) @ t=0.98
-1.7776826146496196
% es.tEx (V/m) @ t=0.98
0.778313801090424
% es.tEy (V/m) @ t=0.98
0
% es.tEz (V/m) @ t=0.98
-1.777682614649624
% V (V) @ t=0.98
0.009764789926990787
% es.normE (V/m) @ t=1
1.9703695042705287
% es.EX (V/m) @ t=1
0.7852690623332321
% es.EY (V/m) @ t=1
0.2076094635653778
% es.EZ (V/m) @ t=1
-1.7935685673790474
% es.tEX (V/m) @ t=1
0.7852690623332323
% es.tEY (V/m) @ t=1
0
% es.tEZ (V/m) @ t=1
-1.7935685673790545
% es.Ex (V/m) @ t=1
0.7852690623332321
% es.Ey (V/m) @ t=1
0.2076094635653778
% es.Ez (V/m) @ t=1
-1.7935685673790474
% es.tEx (V/m) @ t=1
0.7852690623332323
% es.tEy (V/m) @ t=1
0
% es.tEz (V/m) @ t=1
-1.7935685673790545
% V (V) @ t=1
0.00985205216334478
% es.normE (V/m) @ t=1.02
1.9878214099118048
% es.EX (V/m) @ t=1.02
0.7922243235760542
% es.EY (V/m) @ t=1.02
0.20944827274298028
% es.EZ (V/m) @ t=1.02
-1.8094545201084715
% es.tEX (V/m) @ t=1.02
0.7922243235760544
% es.tEY (V/m) @ t=1.02
0
% es.tEZ (V/m) @ t=1.02
-1.8094545201084777
% es.Ex (V/m) @ t=1.02
0.7922243235760542
% es.Ey (V/m) @ t=1.02
0.20944827274298028
% es.Ez (V/m) @ t=1.02
-1.8094545201084715
% es.tEx (V/m) @ t=1.02
0.7922243235760544
% es.tEy (V/m) @ t=1.02
0
% es.tEz (V/m) @ t=1.02
-1.8094545201084777
% V (V) @ t=1.02
0.009939314399698772
% es.normE (V/m) @ t=1.04
2.0052733155530778
% es.EX (V/m) @ t=1.04
0.7991795848188621
% es.EY (V/m) @ t=1.04
0.21128708192059786
% es.EZ (V/m) @ t=1.04
-1.8253404728378948
% es.tEX (V/m) @ t=1.04
0.7991795848188623
% es.tEY (V/m) @ t=1.04