% Model:              1 neuron.mph
% Version:            COMSOL 6.0.0.405
% Date:               Mar 16 2023, 17:00
% Dimension:          0
% Nodes:              14017
% Expressions:        14017
% Description:        Electric field norm, Electric field, X component, Electric field, Y component, Electric field, Z component, Tangential electric field, X component, Tangential electric field, Y component, Tangential electric field, Z component, Electric field, x component, Electric field, y component, Electric field, z component, Tangential electric field, x component, Tangential electric field, y component, Tangential electric field, z component, Electric potential
% Length unit:        mm
% x
1
% y
12.2
% z
1
% es.normE (V/m) @ t=0
0.7936768006009455
% es.EX (V/m) @ t=0
0.5389172142143686
% es.EY (V/m) @ t=0
0.15305935239054058
% es.EZ (V/m) @ t=0
0.5475632207630108
% es.tEX (V/m) @ t=0
0.538917214214365
% es.tEY (V/m) @ t=0
0
% es.tEZ (V/m) @ t=0
0.5475632207629957
% es.Ex (V/m) @ t=0
0.5389172142143686
% es.Ey (V/m) @ t=0
0.15305935239054058
% es.Ez (V/m) @ t=0
0.5475632207630108
% es.tEx (V/m) @ t=0
0.538917214214365
% es.tEy (V/m) @ t=0
0
% es.tEz (V/m) @ t=0
0.5475632207629957
% V (V) @ t=0
0.007442526982012324
% es.normE (V/m) @ t=0.02
0.6855133854374336
% es.EX (V/m) @ t=0.02
0.46547280144555714
% es.EY (V/m) @ t=0.02
0.13220020447630088
% es.EZ (V/m) @ t=0.02
0.4729405177822432
% es.tEX (V/m) @ t=0.02
0.46547280144556424
% es.tEY (V/m) @ t=0.02
0
% es.tEZ (V/m) @ t=0.02
0.47294051778224144
% es.Ex (V/m) @ t=0.02
0.46547280144555714
% es.Ey (V/m) @ t=0.02
0.13220020447630088
% es.Ez (V/m) @ t=0.02
0.4729405177822432
% es.tEx (V/m) @ t=0.02
0.46547280144556424
% es.tEy (V/m) @ t=0.02
0
% es.tEz (V/m) @ t=0.02
0.47294051778224144
% V (V) @ t=0.02
0.006428248638474562
% es.normE (V/m) @ t=0.04
0.6918183039205336
% es.EX (V/m) @ t=0.04
0.4697539251653584
% es.EY (V/m) @ t=0.04
0.13341610028559892
% es.EZ (V/m) @ t=0.04
0.47729032480485856
% es.tEX (V/m) @ t=0.04
0.46975392516535663
% es.tEY (V/m) @ t=0.04
0
% es.tEZ (V/m) @ t=0.04
0.477290324804855
% es.Ex (V/m) @ t=0.04
0.4697539251653584
% es.Ey (V/m) @ t=0.04
0.13341610028559892
% es.Ez (V/m) @ t=0.04
0.47729032480485856
% es.tEx (V/m) @ t=0.04
0.46975392516535663
% es.tEy (V/m) @ t=0.04
0
% es.tEz (V/m) @ t=0.04
0.477290324804855
% V (V) @ t=0.04
0.006487371389460115
% es.normE (V/m) @ t=0.06
0.6981797284154885
% es.EX (V/m) @ t=0.06
0.474073417294111
% es.EY (V/m) @ t=0.06
0.13464289302340227
% es.EZ (V/m) @ t=0.06
0.48167911577510925
% es.tEX (V/m) @ t=0.06
0.47407341729410035
% es.tEY (V/m) @ t=0.06
0
% es.tEZ (V/m) @ t=0.06
0.4816791157751048
% es.Ex (V/m) @ t=0.06
0.474073417294111
% es.Ey (V/m) @ t=0.06
0.13464289302340227
% es.Ez (V/m) @ t=0.06
0.48167911577510925
% es.tEx (V/m) @ t=0.06
0.47407341729410035
% es.tEy (V/m) @ t=0.06
0
% es.tEz (V/m) @ t=0.06
0.4816791157751048
% V (V) @ t=0.06
0.006547024032172878
% es.normE (V/m) @ t=0.08
0.704638995910856
% es.EX (V/m) @ t=0.08
0.47845934518216815
% es.EY (V/m) @ t=0.08
0.1358885574321187
% es.EZ (V/m) @ t=0.08
0.4861354083293312
% es.tEX (V/m) @ t=0.08
0.4784593451821735
% es.tEY (V/m) @ t=0.08
0
% es.tEZ (V/m) @ t=0.08
0.486135408329325
% es.Ex (V/m) @ t=0.08
0.47845934518216815
% es.Ey (V/m) @ t=0.08
0.1358885574321187
% es.Ez (V/m) @ t=0.08
0.4861354083293312
% es.tEx (V/m) @ t=0.08
0.4784593451821735
% es.tEy (V/m) @ t=0.08
0
% es.tEz (V/m) @ t=0.08
0.486135408329325
% V (V) @ t=0.08
0.006607593868430585
% es.normE (V/m) @ t=0.1
0.7111646516758829
% es.EX (V/m) @ t=0.1
0.4828903509509548
% es.EY (V/m) @ t=0.1
0.137147026615561
% es.EZ (V/m) @ t=0.1
0.49063750194586486
% es.tEX (V/m) @ t=0.1
0.482890350950953
% es.tEY (V/m) @ t=0.1
0
% es.tEZ (V/m) @ t=0.1
0.49063750194585865
% es.Ex (V/m) @ t=0.1
0.4828903509509548
% es.Ey (V/m) @ t=0.1
0.137147026615561
% es.Ez (V/m) @ t=0.1
0.49063750194586486
% es.tEx (V/m) @ t=0.1
0.482890350950953
% es.tEy (V/m) @ t=0.1
0
% es.tEz (V/m) @ t=0.1
0.49063750194585865
% V (V) @ t=0.1
0.006668786037324107
% es.normE (V/m) @ t=0.12
0.7176903074408931
% es.EX (V/m) @ t=0.12
0.48732135671973076
% es.EY (V/m) @ t=0.12
0.1384054957990033
% es.EZ (V/m) @ t=0.12
0.49513959556238163
% es.tEX (V/m) @ t=0.12
0.4873213567197183
% es.tEY (V/m) @ t=0.12
0
% es.tEZ (V/m) @ t=0.12
0.4951395955623781
% es.Ex (V/m) @ t=0.12
0.48732135671973076
% es.Ey (V/m) @ t=0.12
0.1384054957990033
% es.Ez (V/m) @ t=0.12
0.49513959556238163
% es.tEx (V/m) @ t=0.12
0.4873213567197183
% es.tEy (V/m) @ t=0.12
0
% es.tEz (V/m) @ t=0.12
0.4951395955623781
% V (V) @ t=0.12
0.006729978206217629
% es.normE (V/m) @ t=0.14
0.7242860161289963
% es.EX (V/m) @ t=0.14
0.49179993018978685
% es.EY (V/m) @ t=0.14
0.13967747215437765
% es.EZ (V/m) @ t=0.14
0.4996900200446497
% es.tEX (V/m) @ t=0.14
0.4917999301897851
% es.tEY (V/m) @ t=0.14
0
% es.tEZ (V/m) @ t=0.14
0.4996900200446426
% es.Ex (V/m) @ t=0.14
0.49179993018978685
% es.Ey (V/m) @ t=0.14
0.13967747215437765
% es.Ez (V/m) @ t=0.14
0.4996900200446497
% es.tEx (V/m) @ t=0.14
0.4917999301897851
% es.tEy (V/m) @ t=0.14
0
% es.tEz (V/m) @ t=0.14
0.4996900200446426
% V (V) @ t=0.14
0.006791827546815846
% es.normE (V/m) @ t=0.16
0.7311593786629581
% es.EX (V/m) @ t=0.16
0.49646703762272004
% es.EY (V/m) @ t=0.16
0.14100298400931432
% es.EZ (V/m) @ t=0.16
0.5044320032821314
% es.tEX (V/m) @ t=0.16
0.4964670376227147
% es.tEY (V/m) @ t=0.16
0
% es.tEZ (V/m) @ t=0.16
0.5044320032821226
% es.Ex (V/m) @ t=0.16
0.49646703762272004
% es.Ey (V/m) @ t=0.16
0.14100298400931432
% es.Ez (V/m) @ t=0.16
0.5044320032821314
% es.tEx (V/m) @ t=0.16
0.4964670376227147
% es.tEy (V/m) @ t=0.16
0
% es.tEz (V/m) @ t=0.16
0.5044320032821226
% V (V) @ t=0.16
0.006856281578883299
% es.normE (V/m) @ t=0.18
0.7380327411969161
% es.EX (V/m) @ t=0.18
0.5011341450556266
% es.EY (V/m) @ t=0.18
0.14232849586424656
% es.EZ (V/m) @ t=0.18
0.5091739865196292
% es.tEX (V/m) @ t=0.18
0.501134145055623
% es.tEY (V/m) @ t=0.18
0
% es.tEZ (V/m) @ t=0.18
0.5091739865196239
% es.Ex (V/m) @ t=0.18
0.5011341450556266
% es.Ey (V/m) @ t=0.18
0.14232849586424656
% es.Ez (V/m) @ t=0.18
0.5091739865196292
% es.tEx (V/m) @ t=0.18
0.501134145055623
% es.tEy (V/m) @ t=0.18
0
% es.tEz (V/m) @ t=0.18
0.5091739865196239
% V (V) @ t=0.18
0.006920735610950751
% es.normE (V/m) @ t=0.2
0.7449061037308649
% es.EX (V/m) @ t=0.2
0.5058012524885367
% es.EY (V/m) @ t=0.2
0.14365400771919923
% es.EZ (V/m) @ t=0.2
0.5139159697571074
% es.tEX (V/m) @ t=0.2
0.5058012524885314
% es.tEY (V/m) @ t=0.2
0
% es.tEZ (V/m) @ t=0.2
0.5139159697570932
% es.Ex (V/m) @ t=0.2
0.5058012524885367
% es.Ey (V/m) @ t=0.2
0.14365400771919923
% es.Ez (V/m) @ t=0.2
0.5139159697571074
% es.tEx (V/m) @ t=0.2
0.5058012524885314
% es.tEy (V/m) @ t=0.2
0
% es.tEz (V/m) @ t=0.2
0.5139159697570932
% V (V) @ t=0.2
0.006985189643018204
% es.normE (V/m) @ t=0.22
0.7517794662648132
% es.EX (V/m) @ t=0.22
0.5104683599214628
% es.EY (V/m) @ t=0.22
0.14497951957410926
% es.EZ (V/m) @ t=0.22
0.5186579529945865
% es.tEX (V/m) @ t=0.22
0.510468359921461
% es.tEY (V/m) @ t=0.22
0
% es.tEZ (V/m) @ t=0.22
0.5186579529945803
% es.Ex (V/m) @ t=0.22
0.5104683599214628
% es.Ey (V/m) @ t=0.22
0.14497951957410926
% es.Ez (V/m) @ t=0.22
0.5186579529945865
% es.tEx (V/m) @ t=0.22
0.510468359921461
% es.tEy (V/m) @ t=0.22
0
% es.tEz (V/m) @ t=0.22
0.5186579529945803
% V (V) @ t=0.22
0.007049643675085657
% es.normE (V/m) @ t=0.24
0.7586528287987695
% es.EX (V/m) @ t=0.24
0.5151354673543729
% es.EY (V/m) @ t=0.24
0.14630503142903528
% es.EZ (V/m) @ t=0.24
0.5233999362320816
% es.tEX (V/m) @ t=0.24
0.5151354673543835
% es.tEY (V/m) @ t=0.24
0
% es.tEZ (V/m) @ t=0.24
0.5233999362320745
% es.Ex (V/m) @ t=0.24
0.5151354673543729
% es.Ey (V/m) @ t=0.24
0.14630503142903528
% es.Ez (V/m) @ t=0.24
0.5233999362320816
% es.tEx (V/m) @ t=0.24
0.5151354673543835
% es.tEy (V/m) @ t=0.24
0
% es.tEz (V/m) @ t=0.24
0.5233999362320745
% V (V) @ t=0.24
0.00711409770715311
% es.normE (V/m) @ t=0.26
0.7655261913327406
% es.EX (V/m) @ t=0.26
0.5198025747873078
% es.EY (V/m) @ t=0.26
0.14763054328398617
% es.EZ (V/m) @ t=0.26
0.528141919469566
% es.tEX (V/m) @ t=0.26
0.519802574787299
% es.tEY (V/m) @ t=0.26
0
% es.tEZ (V/m) @ t=0.26
0.528141919469558
% es.Ex (V/m) @ t=0.26
0.5198025747873078
% es.Ey (V/m) @ t=0.26
0.14763054328398617
% es.Ez (V/m) @ t=0.26
0.528141919469566
% es.tEx (V/m) @ t=0.26
0.519802574787299
% es.tEy (V/m) @ t=0.26
0
% es.tEz (V/m) @ t=0.26
0.528141919469558
% V (V) @ t=0.26
0.007178551739220562
% es.normE (V/m) @ t=0.28
0.7727223159727781
% es.EX (V/m) @ t=0.28
0.5246888414075261
% es.EY (V/m) @ t=0.28
0.1490183010425703
% es.EZ (V/m) @ t=0.28
0.533106577979491
% es.tEX (V/m) @ t=0.28
0.5246888414075173
% es.tEY (V/m) @ t=0.28
0
% es.tEZ (V/m) @ t=0.28
0.5331065779794848
% es.Ex (V/m) @ t=0.28
0.5246888414075261
% es.Ey (V/m) @ t=0.28
0.1490183010425703
% es.Ez (V/m) @ t=0.28
0.533106577979491
% es.tEx (V/m) @ t=0.28
0.5246888414075173
% es.tEy (V/m) @ t=0.28
0
% es.tEz (V/m) @ t=0.28
0.5331065779794848
% V (V) @ t=0.28
0.007246032211869958
% es.normE (V/m) @ t=0.3
0.7803773991776992
% es.EX (V/m) @ t=0.3
0.5298867461791588
% es.EY (V/m) @ t=0.3
0.15049457071154926
% es.EZ (V/m) @ t=0.3
0.5383878744142088
% es.tEX (V/m) @ t=0.3
0.5298867461791588
% es.tEY (V/m) @ t=0.3
0
% es.tEZ (V/m) @ t=0.3
0.5383878744141981
% es.Ex (V/m) @ t=0.3
0.5298867461791588
% es.Ey (V/m) @ t=0.3
0.15049457071154926
% es.Ez (V/m) @ t=0.3
0.5383878744142088
% es.tEx (V/m) @ t=0.3
0.5298867461791588
% es.tEy (V/m) @ t=0.3
0
% es.tEz (V/m) @ t=0.3
0.5383878744141981
% V (V) @ t=0.3
0.007317816197230076
% es.normE (V/m) @ t=0.32
0.7880324823826185
% es.EX (V/m) @ t=0.32
0.5350846509507949
% es.EY (V/m) @ t=0.32
0.15197084038052822
% es.EZ (V/m) @ t=0.32
0.5436691708489247
% es.tEX (V/m) @ t=0.32
0.5350846509507932
% es.tEY (V/m) @ t=0.32
0
% es.tEZ (V/m) @ t=0.32
0.5436691708489185
% es.Ex (V/m) @ t=0.32
0.5350846509507949
% es.Ey (V/m) @ t=0.32
0.15197084038052822
% es.Ez (V/m) @ t=0.32
0.5436691708489247
% es.tEx (V/m) @ t=0.32
0.5350846509507932
% es.tEy (V/m) @ t=0.32
0
% es.tEz (V/m) @ t=0.32
0.5436691708489185
% V (V) @ t=0.32
0.007389600182590196
% es.normE (V/m) @ t=0.34
0.795687565587534
% es.EX (V/m) @ t=0.34
0.5402825557224098
% es.EY (V/m) @ t=0.34
0.15344711004951783
% es.EZ (V/m) @ t=0.34
0.5489504672836496
% es.tEX (V/m) @ t=0.34
0.5402825557224133
% es.tEY (V/m) @ t=0.34
0
% es.tEZ (V/m) @ t=0.34
0.5489504672836425
% es.Ex (V/m) @ t=0.34
0.5402825557224098
% es.Ey (V/m) @ t=0.34
0.15344711004951783
% es.Ez (V/m) @ t=0.34
0.5489504672836496
% es.tEx (V/m) @ t=0.34
0.5402825557224133
% es.tEy (V/m) @ t=0.34
0
% es.tEz (V/m) @ t=0.34
0.5489504672836425
% V (V) @ t=0.34
0.007461384167950315
% es.normE (V/m) @ t=0.36
0.8033426487924566
% es.EX (V/m) @ t=0.36
0.5454804604940353
% es.EY (V/m) @ t=0.36
0.1549233797185181
% es.EZ (V/m) @ t=0.36
0.5542317637183691
% es.tEX (V/m) @ t=0.36
0.5454804604940193
% es.tEY (V/m) @ t=0.36
0
% es.tEZ (V/m) @ t=0.36
0.5542317637183629
% es.Ex (V/m) @ t=0.36
0.5454804604940353
% es.Ey (V/m) @ t=0.36
0.1549233797185181
% es.Ez (V/m) @ t=0.36
0.5542317637183691
% es.tEx (V/m) @ t=0.36
0.5454804604940193
% es.tEy (V/m) @ t=0.36
0
% es.tEz (V/m) @ t=0.36
0.5542317637183629
% V (V) @ t=0.36
0.007533168153310434
% es.normE (V/m) @ t=0.38
0.8109977319973679
% es.EX (V/m) @ t=0.38
0.5506783652656715
% es.EY (V/m) @ t=0.38
0.15639964938749706
% es.EZ (V/m) @ t=0.38
0.5595130601530744
% es.tEX (V/m) @ t=0.38
0.5506783652656679
% es.tEY (V/m) @ t=0.38
0
% es.tEZ (V/m) @ t=0.38
0.5595130601530656
% es.Ex (V/m) @ t=0.38
0.5506783652656715
% es.Ey (V/m) @ t=0.38
0.15639964938749706
% es.Ez (V/m) @ t=0.38
0.5595130601530744
% es.tEx (V/m) @ t=0.38
0.5506783652656679
% es.tEy (V/m) @ t=0.38
0
% es.tEz (V/m) @ t=0.38
0.5595130601530656
% V (V) @ t=0.38
0.007604952138670553
% es.normE (V/m) @ t=0.4
0.818652815202279
% es.EX (V/m) @ t=0.4
0.5558762700372775
% es.EY (V/m) @ t=0.4
0.15787591905647425
% es.EZ (V/m) @ t=0.4
0.564794356587802
% es.tEX (V/m) @ t=0.4
0.5558762700372739
% es.tEY (V/m) @ t=0.4
0
% es.tEZ (V/m) @ t=0.4
0.5647943565877931
% es.Ex (V/m) @ t=0.4
0.5558762700372775
% es.Ey (V/m) @ t=0.4
0.15787591905647425
% es.Ez (V/m) @ t=0.4
0.564794356587802
% es.tEx (V/m) @ t=0.4
0.5558762700372739
% es.tEy (V/m) @ t=0.4
0
% es.tEz (V/m) @ t=0.4
0.5647943565877931
% V (V) @ t=0.4
0.007676736124030673
% es.normE (V/m) @ t=0.42
0.8263078984072183
% es.EX (V/m) @ t=0.42
0.5610741748089509
% es.EY (V/m) @ t=0.42
0.15935218872546386
% es.EZ (V/m) @ t=0.42
0.5700756530225108
% es.tEX (V/m) @ t=0.42
0.5610741748089367
% es.tEY (V/m) @ t=0.42
0
% es.tEZ (V/m) @ t=0.42
0.5700756530224993
% es.Ex (V/m) @ t=0.42
0.5610741748089509
% es.Ey (V/m) @ t=0.42
0.15935218872546386
% es.Ez (V/m) @ t=0.42
0.5700756530225108
% es.tEx (V/m) @ t=0.42
0.5610741748089367
% es.tEy (V/m) @ t=0.42
0
% es.tEz (V/m) @ t=0.42
0.5700756530224993
% V (V) @ t=0.42
0.007748520109390792
% es.normE (V/m) @ t=0.44
0.8339629816121124
% es.EX (V/m) @ t=0.44
0.5662720795805214
% es.EY (V/m) @ t=0.44
0.16082845839446414
% es.EZ (V/m) @ t=0.44
0.5753569494572357
% es.tEX (V/m) @ t=0.44
0.5662720795805143
% es.tEY (V/m) @ t=0.44
0
% es.tEZ (V/m) @ t=0.44
0.5753569494572268
% es.Ex (V/m) @ t=0.44
0.5662720795805214
% es.Ey (V/m) @ t=0.44
0.16082845839446414
% es.Ez (V/m) @ t=0.44
0.5753569494572357
% es.tEx (V/m) @ t=0.44
0.5662720795805143
% es.tEy (V/m) @ t=0.44
0
% es.tEz (V/m) @ t=0.44
0.5753569494572268
% V (V) @ t=0.44
0.00782030409475091
% es.normE (V/m) @ t=0.46
0.8416180648170402
% es.EX (V/m) @ t=0.46
0.5714699843521913
% es.EY (V/m) @ t=0.46
0.16230472806342178
% es.EZ (V/m) @ t=0.46
0.5806382458919401
% es.tEX (V/m) @ t=0.46
0.5714699843521771
% es.tEY (V/m) @ t=0.46
0
% es.tEZ (V/m) @ t=0.46
0.5806382458919295
% es.Ex (V/m) @ t=0.46
0.5714699843521913
% es.Ey (V/m) @ t=0.46
0.16230472806342178
% es.Ez (V/m) @ t=0.46
0.5806382458919401
% es.tEx (V/m) @ t=0.46
0.5714699843521771
% es.tEy (V/m) @ t=0.46
0
% es.tEz (V/m) @ t=0.46
0.5806382458919295
% V (V) @ t=0.46
0.007892088080111031
% es.normE (V/m) @ t=0.48
0.8492731480219373
% es.EX (V/m) @ t=0.48
0.5766678891237831
% es.EY (V/m) @ t=0.48
0.16378099773240606
% es.EZ (V/m) @ t=0.48
0.5859195423266614
% es.tEX (V/m) @ t=0.48
0.5766678891237831
% es.tEY (V/m) @ t=0.48
0
% es.tEZ (V/m) @ t=0.48
0.5859195423266534
% es.Ex (V/m) @ t=0.48
0.5766678891237831
% es.Ey (V/m) @ t=0.48
0.16378099773240606
% es.Ez (V/m) @ t=0.48
0.5859195423266614
% es.tEx (V/m) @ t=0.48
0.5766678891237831
% es.tEy (V/m) @ t=0.48
0
% es.tEz (V/m) @ t=0.48
0.5859195423266534
% V (V) @ t=0.48
0.00796387206547115
% es.normE (V/m) @ t=0.5
0.8569282312268779
% es.EX (V/m) @ t=0.5
0.5818657938954388
% es.EY (V/m) @ t=0.5
0.16525726740137792
% es.EZ (V/m) @ t=0.5
0.5912008387613836
% es.tEX (V/m) @ t=0.5
0.5818657938954317
% es.tEY (V/m) @ t=0.5
0
% es.tEZ (V/m) @ t=0.5
0.5912008387613739
% es.Ex (V/m) @ t=0.5
0.5818657938954388
% es.Ey (V/m) @ t=0.5
0.16525726740137792
% es.Ez (V/m) @ t=0.5
0.5912008387613836
% es.tEx (V/m) @ t=0.5
0.5818657938954317
% es.tEy (V/m) @ t=0.5
0
% es.tEz (V/m) @ t=0.5
0.5912008387613739
% V (V) @ t=0.5
0.008035656050831268
% es.normE (V/m) @ t=0.52
0.8645833144317752
% es.EX (V/m) @ t=0.52
0.5870636986670341
% es.EY (V/m) @ t=0.52
0.16673353707039062
% es.EZ (V/m) @ t=0.52
0.5964821351961005
% es.tEX (V/m) @ t=0.52
0.5870636986670235
% es.tEY (V/m) @ t=0.52
0
% es.tEZ (V/m) @ t=0.52
0.5964821351960907
% es.Ex (V/m) @ t=0.52
0.5870636986670341
% es.Ey (V/m) @ t=0.52
0.16673353707039062
% es.Ez (V/m) @ t=0.52
0.5964821351961005
% es.tEx (V/m) @ t=0.52
0.5870636986670235
% es.tEy (V/m) @ t=0.52
0
% es.tEz (V/m) @ t=0.52
0.5964821351960907
% V (V) @ t=0.52
0.008107440036191387
% es.normE (V/m) @ t=0.54
0.8722383976367083
% es.EX (V/m) @ t=0.54
0.5922616034386969
% es.EY (V/m) @ t=0.54
0.16820980673935182
% es.EZ (V/m) @ t=0.54
0.6017634316308129
% es.tEX (V/m) @ t=0.54
0.5922616034387005
% es.tEY (V/m) @ t=0.54
0
% es.tEZ (V/m) @ t=0.54
0.601763431630804
% es.Ex (V/m) @ t=0.54
0.5922616034386969
% es.Ey (V/m) @ t=0.54
0.16820980673935182
% es.Ez (V/m) @ t=0.54
0.6017634316308129
% es.tEx (V/m) @ t=0.54
0.5922616034387005
% es.tEy (V/m) @ t=0.54
0
% es.tEz (V/m) @ t=0.54
0.601763431630804
% V (V) @ t=0.54
0.008179224021551506
% es.normE (V/m) @ t=0.56
0.8806338480684515
% es.EX (V/m) @ t=0.56
0.597962229020137
% es.EY (V/m) @ t=0.56
0.1698288509738859
% es.EZ (V/m) @ t=0.56
0.6075555139984763
% es.tEX (V/m) @ t=0.56
0.5979622290201405
% es.tEY (V/m) @ t=0.56
0
% es.tEZ (V/m) @ t=0.56
0.6075555139984665
% es.Ex (V/m) @ t=0.56
0.597962229020137
% es.Ey (V/m) @ t=0.56
0.1698288509738859
% es.Ez (V/m) @ t=0.56
0.6075555139984763
% es.tEx (V/m) @ t=0.56
0.5979622290201405
% es.tEy (V/m) @ t=0.56
0
% es.tEz (V/m) @ t=0.56
0.6075555139984665
% V (V) @ t=0.56
0.008257951089017036
% es.normE (V/m) @ t=0.58
0.8891748371427552
% es.EX (V/m) @ t=0.58
0.6037616775932335
% es.EY (V/m) @ t=0.58
0.17147596130275566
% es.EZ (V/m) @ t=0.58
0.6134480047697224
% es.tEX (V/m) @ t=0.58
0.6037616775932264
% es.tEY (V/m) @ t=0.58
0
% es.tEZ (V/m) @ t=0.58
0.6134480047697153
% es.Ex (V/m) @ t=0.58
0.6037616775932335
% es.Ey (V/m) @ t=0.58
0.17147596130275566
% es.Ez (V/m) @ t=0.58
0.6134480047697224
% es.tEx (V/m) @ t=0.58
0.6037616775932264
% es.tEy (V/m) @ t=0.58
0
% es.tEz (V/m) @ t=0.58
0.6134480047697153
% V (V) @ t=0.58
0.008338043001802985
% es.normE (V/m) @ t=0.6
0.8977158262170422
% es.EX (V/m) @ t=0.6
0.6095611261662981
% es.EY (V/m) @ t=0.6
0.17312307163164498
% es.EZ (V/m) @ t=0.6
0.619340495540964
% es.tEX (V/m) @ t=0.6
0.6095611261662981
% es.tEY (V/m) @ t=0.6
0
% es.tEZ (V/m) @ t=0.6
0.6193404955409569
% es.Ex (V/m) @ t=0.6
0.6095611261662981
% es.Ey (V/m) @ t=0.6
0.17312307163164498
% es.Ez (V/m) @ t=0.6
0.619340495540964
% es.tEx (V/m) @ t=0.6
0.6095611261662981
% es.tEy (V/m) @ t=0.6
0
% es.tEz (V/m) @ t=0.6
0.6193404955409569
% V (V) @ t=0.6
0.008418134914588935
% es.normE (V/m) @ t=0.62
0.9062568152914054
% es.EX (V/m) @ t=0.62
0.6153605747394337
% es.EY (V/m) @ t=0.62
0.17477018196053962
% es.EZ (V/m) @ t=0.62
0.6252329863122386
% es.tEX (V/m) @ t=0.62
0.6153605747394266
% es.tEY (V/m) @ t=0.62
0
% es.tEZ (V/m) @ t=0.62
0.6252329863122306
% es.Ex (V/m) @ t=0.62
0.6153605747394337
% es.Ey (V/m) @ t=0.62
0.17477018196053962
% es.Ez (V/m) @ t=0.62
0.6252329863122386
% es.tEx (V/m) @ t=0.62
0.6153605747394266
% es.tEy (V/m) @ t=0.62
0
% es.tEz (V/m) @ t=0.62
0.6252329863122306
% V (V) @ t=0.62
0.008498226827374885
% es.normE (V/m) @ t=0.64
0.9147978043657389
% es.EX (V/m) @ t=0.64
0.6211600233125445
% es.EY (V/m) @ t=0.64
0.1764172922894094
% es.EZ (V/m) @ t=0.64
0.6311254770835024
% es.tEX (V/m) @ t=0.64
0.6211600233125409
% es.tEY (V/m) @ t=0.64
0
% es.tEZ (V/m) @ t=0.64
0.6311254770834935
% es.Ex (V/m) @ t=0.64
0.6211600233125445
% es.Ey (V/m) @ t=0.64
0.1764172922894094
% es.Ez (V/m) @ t=0.64
0.6311254770835024
% es.tEx (V/m) @ t=0.64
0.6211600233125409
% es.tEy (V/m) @ t=0.64
0
% es.tEz (V/m) @ t=0.64
0.6311254770834935
% V (V) @ t=0.64
0.008578318740160835
% es.normE (V/m) @ t=0.66
0.9233387934400215
% es.EX (V/m) @ t=0.66
0.6269594718856126
% es.EY (V/m) @ t=0.66
0.1780644026182916
% es.EZ (V/m) @ t=0.66
0.6370179678547334
% es.tEX (V/m) @ t=0.66
0.6269594718856126
% es.tEY (V/m) @ t=0.66
0
% es.tEZ (V/m) @ t=0.66
0.6370179678547316
% es.Ex (V/m) @ t=0.66
0.6269594718856126
% es.Ey (V/m) @ t=0.66
0.1780644026182916
% es.Ez (V/m) @ t=0.66
0.6370179678547334
% es.tEx (V/m) @ t=0.66
0.6269594718856126
% es.tEy (V/m) @ t=0.66
0
% es.tEz (V/m) @ t=0.66
0.6370179678547316
% V (V) @ t=0.66
0.008658410652946784
% es.normE (V/m) @ t=0.68
0.9318797825143398
% es.EX (V/m) @ t=0.68
0.6327589204586914
% es.EY (V/m) @ t=0.68
0.1797115129472182
% es.EZ (V/m) @ t=0.68
0.6429104586259893
% es.tEX (V/m) @ t=0.68
0.6327589204586843
% es.tEY (V/m) @ t=0.68
0
% es.tEZ (V/m) @ t=0.68
0.6429104586259697
% es.Ex (V/m) @ t=0.68
0.6327589204586914
% es.Ey (V/m) @ t=0.68
0.1797115129472182
% es.Ez (V/m) @ t=0.68
0.6429104586259893
% es.tEx (V/m) @ t=0.68
0.6327589204586843
% es.tEy (V/m) @ t=0.68
0
% es.tEz (V/m) @ t=0.68
0.6429104586259697
% V (V) @ t=0.68
0.008738502565732734
% es.normE (V/m) @ t=0.7
0.9404207715886648
% es.EX (V/m) @ t=0.7
0.6385583690318093
% es.EY (V/m) @ t=0.7
0.18135862327608798
% es.EZ (V/m) @ t=0.7
0.6488029493972336
% es.tEX (V/m) @ t=0.7
0.6385583690318128
% es.tEY (V/m) @ t=0.7
0
% es.tEZ (V/m) @ t=0.7
0.6488029493972292
% es.Ex (V/m) @ t=0.7
0.6385583690318093
% es.Ey (V/m) @ t=0.7
0.18135862327608798
% es.Ez (V/m) @ t=0.7
0.6488029493972336
% es.tEx (V/m) @ t=0.7
0.6385583690318128
% es.tEy (V/m) @ t=0.7
0
% es.tEz (V/m) @ t=0.7
0.6488029493972292
% V (V) @ t=0.7
0.008818594478518686
% es.normE (V/m) @ t=0.72
0.9489617606629748
% es.EX (V/m) @ t=0.72
0.6443578176048987
% es.EY (V/m) @ t=0.72
0.1830057336049542
% es.EZ (V/m) @ t=0.72
0.6546954401684886
% es.tEX (V/m) @ t=0.72
0.6443578176048987
% es.tEY (V/m) @ t=0.72
0
% es.tEZ (V/m) @ t=0.72
0.6546954401684815
% es.Ex (V/m) @ t=0.72
0.6443578176048987
% es.Ey (V/m) @ t=0.72
0.1830057336049542
% es.Ez (V/m) @ t=0.72
0.6546954401684886
% es.tEx (V/m) @ t=0.72
0.6443578176048987
% es.tEy (V/m) @ t=0.72
0
% es.tEz (V/m) @ t=0.72
0.6546954401684815
% V (V) @ t=0.72
0.008898686391304632
% es.normE (V/m) @ t=0.74
0.957502749737301
% es.EX (V/m) @ t=0.74
0.6501572661779846
% es.EY (V/m) @ t=0.74
0.18465284393386838
% es.EZ (V/m) @ t=0.74
0.6605879309397507
% es.tEX (V/m) @ t=0.74
0.6501572661779704
% es.tEY (V/m) @ t=0.74
0
% es.tEZ (V/m) @ t=0.74
0.6605879309397338
% es.Ex (V/m) @ t=0.74
0.6501572661779846
% es.Ey (V/m) @ t=0.74
0.18465284393386838
% es.Ez (V/m) @ t=0.74
0.6605879309397507
% es.tEx (V/m) @ t=0.74
0.6501572661779704
% es.tEy (V/m) @ t=0.74
0
% es.tEz (V/m) @ t=0.74
0.6605879309397338
% V (V) @ t=0.74
0.008978778304090582
% es.normE (V/m) @ t=0.76
0.9660437388116397
% es.EX (V/m) @ t=0.76
0.6559567147511132
% es.EY (V/m) @ t=0.76
0.1862999542627204
% es.EZ (V/m) @ t=0.76
0.6664804217110101
% es.tEX (V/m) @ t=0.76
0.655956714751099
% es.tEY (V/m) @ t=0.76
0
% es.tEZ (V/m) @ t=0.76
0.6664804217110074
% es.Ex (V/m) @ t=0.76
0.6559567147511132
% es.Ey (V/m) @ t=0.76
0.1862999542627204
% es.Ez (V/m) @ t=0.76
0.6664804217110101
% es.tEx (V/m) @ t=0.76
0.655956714751099
% es.tEy (V/m) @ t=0.76
0
% es.tEz (V/m) @ t=0.76
0.6664804217110074
% V (V) @ t=0.76
0.009058870216876532
% es.normE (V/m) @ t=0.78
0.9745847278859219
% es.EX (V/m) @ t=0.78
0.66175616332416
% es.EY (V/m) @ t=0.78
0.18794706459163457
% es.EZ (V/m) @ t=0.78
0.6723729124822508
% es.tEX (V/m) @ t=0.78
0.6617561633241422
% es.tEY (V/m) @ t=0.78
0
% es.tEZ (V/m) @ t=0.78
0.6723729124822384
% es.Ex (V/m) @ t=0.78
0.66175616332416
% es.Ey (V/m) @ t=0.78
0.18794706459163457
% es.Ez (V/m) @ t=0.78
0.6723729124822508
% es.tEx (V/m) @ t=0.78
0.6617561633241422
% es.tEy (V/m) @ t=0.78
0
% es.tEz (V/m) @ t=0.78
0.6723729124822384
% V (V) @ t=0.78
0.009138962129662481
% es.normE (V/m) @ t=0.8
0.9831257169602359
% es.EX (V/m) @ t=0.8
0.6675556118972459
% es.EY (V/m) @ t=0.8
0.18959417492051678
% es.EZ (V/m) @ t=0.8
0.6782654032535085
% es.tEX (V/m) @ t=0.8
0.6675556118972565
% es.tEY (V/m) @ t=0.8
0
% es.tEZ (V/m) @ t=0.8
0.6782654032534978
% es.Ex (V/m) @ t=0.8
0.6675556118972459
% es.Ey (V/m) @ t=0.8
0.18959417492051678
% es.Ez (V/m) @ t=0.8
0.6782654032535085
% es.tEx (V/m) @ t=0.8
0.6675556118972565
% es.tEy (V/m) @ t=0.8
0
% es.tEz (V/m) @ t=0.8
0.6782654032534978
% V (V) @ t=0.8
0.009219054042448431
% es.normE (V/m) @ t=0.82
0.9919267370402081
% es.EX (V/m) @ t=0.82
0.6735316249984891
% es.EY (V/m) @ t=0.82
0.19129143189457487
% es.EZ (V/m) @ t=0.82
0.6843372912231951
% es.tEX (V/m) @ t=0.82
0.6735316249984606
% es.tEY (V/m) @ t=0.82
0
% es.tEZ (V/m) @ t=0.82
0.6843372912231871
% es.Ex (V/m) @ t=0.82
0.6735316249984891
% es.Ey (V/m) @ t=0.82
0.19129143189457487
% es.Ez (V/m) @ t=0.82
0.6843372912231951
% es.tEx (V/m) @ t=0.82
0.6735316249984606
% es.tEy (V/m) @ t=0.82
0
% es.tEz (V/m) @ t=0.82
0.6843372912231871
% V (V) @ t=0.82
0.009301584330731614
% es.normE (V/m) @ t=0.84
1.001473459382264
% es.EX (V/m) @ t=0.84
0.6800139799019043
% es.EY (V/m) @ t=0.84
0.19313249659127152
% es.EZ (V/m) @ t=0.84
0.6909236443673983
% es.tEX (V/m) @ t=0.84
0.6800139799018865
% es.tEY (V/m) @ t=0.84
0
% es.tEZ (V/m) @ t=0.84
0.6909236443673876
% es.Ex (V/m) @ t=0.84
0.6800139799019043
% es.Ey (V/m) @ t=0.84
0.19313249659127152
% es.Ez (V/m) @ t=0.84
0.6909236443673983
% es.tEx (V/m) @ t=0.84
0.6800139799018865
% es.tEy (V/m) @ t=0.84
0
% es.tEz (V/m) @ t=0.84
0.6909236443673876
% V (V) @ t=0.84
0.009391107254835194
% es.normE (V/m) @ t=0.86
1.0110201817243203
% es.EX (V/m) @ t=0.86
0.6864963348052981
% es.EY (V/m) @ t=0.86
0.19497356128798415
% es.EZ (V/m) @ t=0.86
0.6975099975116139
% es.tEX (V/m) @ t=0.86
0.6864963348052981
% es.tEY (V/m) @ t=0.86
0
% es.tEZ (V/m) @ t=0.86
0.6975099975116024
% es.Ex (V/m) @ t=0.86
0.6864963348052981
% es.Ey (V/m) @ t=0.86
0.19497356128798415
% es.Ez (V/m) @ t=0.86
0.6975099975116139
% es.tEx (V/m) @ t=0.86
0.6864963348052981
% es.tEy (V/m) @ t=0.86
0
% es.tEz (V/m) @ t=0.86
0.6975099975116024
% V (V) @ t=0.86
0.009480630178938774
% es.normE (V/m) @ t=0.88
1.0205669040664451
% es.EX (V/m) @ t=0.88
0.692978689708788
% es.EY (V/m) @ t=0.88
0.1968146259846435
% es.EZ (V/m) @ t=0.88
0.7040963506558526
% es.tEX (V/m) @ t=0.88
0.6929786897087524
% es.tEY (V/m) @ t=0.88
0
% es.tEZ (V/m) @ t=0.88
0.7040963506558313
% es.Ex (V/m) @ t=0.88
0.692978689708788
% es.Ey (V/m) @ t=0.88
0.1968146259846435
% es.Ez (V/m) @ t=0.88
0.7040963506558526
% es.tEx (V/m) @ t=0.88
0.6929786897087524
% es.tEy (V/m) @ t=0.88
0
% es.tEz (V/m) @ t=0.88
0.7040963506558313
% V (V) @ t=0.88
0.009570153103042357
% es.normE (V/m) @ t=0.9
1.0301136264084856
% es.EX (V/m) @ t=0.9
0.6994610446121676
% es.EY (V/m) @ t=0.9
0.19865569068137212
% es.EZ (V/m) @ t=0.9
0.7106827038000594
% es.tEX (V/m) @ t=0.9
0.6994610446121925
% es.tEY (V/m) @ t=0.9
0
% es.tEZ (V/m) @ t=0.9
0.710682703800039
% es.Ex (V/m) @ t=0.9
0.6994610446121676
% es.Ey (V/m) @ t=0.9
0.19865569068137212
% es.Ez (V/m) @ t=0.9
0.7106827038000594
% es.tEx (V/m) @ t=0.9
0.6994610446121925
% es.tEy (V/m) @ t=0.9
0
% es.tEz (V/m) @ t=0.9
0.710682703800039
% V (V) @ t=0.9
0.009659676027145937
% es.normE (V/m) @ t=0.92
1.0396603487506062
% es.EX (V/m) @ t=0.92
0.7059433995156468
% es.EY (V/m) @ t=0.92
0.20049675537806166
% es.EZ (V/m) @ t=0.92
0.7172690569442928
% es.tEX (V/m) @ t=0.92
0.7059433995156326
% es.tEY (V/m) @ t=0.92
0
% es.tEZ (V/m) @ t=0.92
0.7172690569442821
% es.Ex (V/m) @ t=0.92
0.7059433995156468
% es.Ey (V/m) @ t=0.92
0.20049675537806166
% es.Ez (V/m) @ t=0.92
0.7172690569442928
% es.tEx (V/m) @ t=0.92
0.7059433995156326
% es.tEy (V/m) @ t=0.92
0
% es.tEz (V/m) @ t=0.92
0.7172690569442821
% V (V) @ t=0.92
0.009749198951249517
% es.normE (V/m) @ t=0.94
1.049207071092641
% es.EX (V/m) @ t=0.94
0.7124257544190371
% es.EY (V/m) @ t=0.94
0.20233782007475654
% es.EZ (V/m) @ t=0.94
0.7238554100884906
% es.tEX (V/m) @ t=0.94
0.71242575441903
% es.tEY (V/m) @ t=0.94
0
% es.tEZ (V/m) @ t=0.94
0.7238554100884826
% es.Ex (V/m) @ t=0.94
0.7124257544190371
% es.Ey (V/m) @ t=0.94
0.20233782007475654
% es.Ez (V/m) @ t=0.94
0.7238554100884906
% es.tEx (V/m) @ t=0.94
0.71242575441903
% es.tEy (V/m) @ t=0.94
0
% es.tEz (V/m) @ t=0.94
0.7238554100884826
% V (V) @ t=0.94
0.0098387218753531
% es.normE (V/m) @ t=0.96
1.0587537934347169
% es.EX (V/m) @ t=0.96
0.7189081093224488
% es.EY (V/m) @ t=0.96
0.20417888477149226
% es.EZ (V/m) @ t=0.96
0.7304417632327027
% es.tEX (V/m) @ t=0.96
0.7189081093224559
% es.tEY (V/m) @ t=0.96
0
% es.tEZ (V/m) @ t=0.96
0.7304417632326974
% es.Ex (V/m) @ t=0.96
0.7189081093224488
% es.Ey (V/m) @ t=0.96
0.20417888477149226
% es.Ez (V/m) @ t=0.96
0.7304417632327027
% es.tEx (V/m) @ t=0.96
0.7189081093224559
% es.tEy (V/m) @ t=0.96
0
% es.tEz (V/m) @ t=0.96
0.7304417632326974
% V (V) @ t=0.96
0.00992824479945668
% es.normE (V/m) @ t=0.98
1.0683005157767753
% es.EX (V/m) @ t=0.98
0.7253904642258746
% es.EY (V/m) @ t=0.98
0.20601994946816937
% es.EZ (V/m) @ t=0.98
0.7370281163769112
% es.tEX (V/m) @ t=0.98
0.7253904642258675
% es.tEY (V/m) @ t=0.98
0
% es.tEZ (V/m) @ t=0.98
0.737028116376905
% es.Ex (V/m) @ t=0.98
0.7253904642258746
% es.Ey (V/m) @ t=0.98
0.20601994946816937
% es.Ez (V/m) @ t=0.98
0.7370281163769112
% es.tEx (V/m) @ t=0.98
0.7253904642258675
% es.tEy (V/m) @ t=0.98
0
% es.tEz (V/m) @ t=0.98
0.737028116376905
% V (V) @ t=0.98
0.01001776772356026
% es.normE (V/m) @ t=1
1.0778472381188826
% es.EX (V/m) @ t=1
0.7318728191293324
% es.EY (V/m) @ t=1
0.20786101416485359
% es.EZ (V/m) @ t=1
0.7436144695211455
% es.tEX (V/m) @ t=1
0.731872819129336
% es.tEY (V/m) @ t=1
0
% es.tEZ (V/m) @ t=1
0.7436144695211411
% es.Ex (V/m) @ t=1
0.7318728191293324
% es.Ey (V/m) @ t=1
0.20786101416485359
% es.Ez (V/m) @ t=1
0.7436144695211455
% es.tEx (V/m) @ t=1
0.731872819129336
% es.tEy (V/m) @ t=1
0
% es.tEz (V/m) @ t=1
0.7436144695211411
% V (V) @ t=1
0.010107290647663844
% es.normE (V/m) @ t=1.02
1.0873939604609513
% es.EX (V/m) @ t=1.02
0.7383551740327512
% es.EY (V/m) @ t=1.02
0.20970207886155912
% es.EZ (V/m) @ t=1.02
0.7502008226653611
% es.tEX (V/m) @ t=1.02
0.7383551740327192
% es.tEY (V/m) @ t=1.02
0
% es.tEZ (V/m) @ t=1.02
0.7502008226653416
% es.Ex (V/m) @ t=1.02
0.7383551740327512
% es.Ey (V/m) @ t=1.02
0.20970207886155912
% es.Ez (V/m) @ t=1.02
0.7502008226653611
% es.tEx (V/m) @ t=1.02
0.7383551740327192
% es.tEy (V/m) @ t=1.02
0
% es.tEz (V/m) @ t=1.02
0.7502008226653416
% V (V) @ t=1.02
0.010196813571767422
% es.normE (V/m) @ t=1.04
1.0969406828030506
% es.EX (V/m) @ t=1.04
0.7448375289361948
% es.EY (V/m) @ t=1.04
0.21154314355827175
% es.EZ (V/m) @ t=1.04
0.756787175809591
% es.tEX (V/m) @ t=1.04
0.7448375289361735
% es.tEY (V/m) @ t=1.04
0
% es.tEZ (V/m) @ t=1.04
0.7567871758095706
% es.Ex (V/m) @ t=1.04
0.7448375289361948
% es.Ey (V/m) @ t=1.04
0.21154314355827175