% Model:              1 neuron.mph
% Version:            COMSOL 6.0.0.405
% Date:               Mar 16 2023, 17:04
% Dimension:          0
% Nodes:              14017
% Expressions:        14017
% Description:        Electric field norm, Electric field, X component, Electric field, Y component, Electric field, Z component, Tangential electric field, X component, Tangential electric field, Y component, Tangential electric field, Z component, Electric field, x component, Electric field, y component, Electric field, z component, Tangential electric field, x component, Tangential electric field, y component, Tangential electric field, z component, Electric potential
% Length unit:        mm
% x
1
% y
12.2
% z
1.33
% es.normE (V/m) @ t=0
1.4607489398511335
% es.EX (V/m) @ t=0
1.3499235575951527
% es.EY (V/m) @ t=0
0.08499947232803995
% es.EZ (V/m) @ t=0
0.5457227253658403
% es.tEX (V/m) @ t=0
1.349923557595159
% es.tEY (V/m) @ t=0
0
% es.tEZ (V/m) @ t=0
0.5457227253658377
% es.Ex (V/m) @ t=0
1.3499235575951527
% es.Ey (V/m) @ t=0
0.08499947232803995
% es.Ez (V/m) @ t=0
0.5457227253658403
% es.tEx (V/m) @ t=0
1.349923557595159
% es.tEy (V/m) @ t=0
0
% es.tEz (V/m) @ t=0
0.5457227253658377
% V (V) @ t=0
0.007286452463505113
% es.normE (V/m) @ t=0.02
1.261675670524223
% es.EX (V/m) @ t=0.02
1.1659537527386354
% es.EY (V/m) @ t=0.02
0.07341560565612348
% es.EZ (V/m) @ t=0.02
0.47135073679195205
% es.tEX (V/m) @ t=0.02
1.1659537527386359
% es.tEY (V/m) @ t=0.02
0
% es.tEZ (V/m) @ t=0.02
0.47135073679194983
% es.Ex (V/m) @ t=0.02
1.1659537527386354
% es.Ey (V/m) @ t=0.02
0.07341560565612348
% es.Ez (V/m) @ t=0.02
0.47135073679195205
% es.tEx (V/m) @ t=0.02
1.1659537527386359
% es.tEy (V/m) @ t=0.02
0
% es.tEz (V/m) @ t=0.02
0.47135073679194983
% V (V) @ t=0.02
0.0062934426582445776
% es.normE (V/m) @ t=0.04
1.273279258218054
% es.EX (V/m) @ t=0.04
1.176676980831195
% es.EY (V/m) @ t=0.04
0.07409081788372929
% es.EZ (V/m) @ t=0.04
0.47568575419474346
% es.tEX (V/m) @ t=0.04
1.1766769808311945
% es.tEY (V/m) @ t=0.04
0
% es.tEZ (V/m) @ t=0.04
0.47568575419474657
% es.Ex (V/m) @ t=0.04
1.176676980831195
% es.Ey (V/m) @ t=0.04
0.07409081788372929
% es.Ez (V/m) @ t=0.04
0.47568575419474346
% es.tEx (V/m) @ t=0.04
1.1766769808311945
% es.tEy (V/m) @ t=0.04
0
% es.tEz (V/m) @ t=0.04
0.47568575419474657
% V (V) @ t=0.04
0.0063513225965521275
% es.normE (V/m) @ t=0.06
1.2849880806856961
% es.EX (V/m) @ t=0.06
1.1874974511133054
% es.EY (V/m) @ t=0.06
0.07477216591481844
% es.EZ (V/m) @ t=0.06
0.4800601075525064
% es.tEX (V/m) @ t=0.06
1.1874974511133045
% es.tEY (V/m) @ t=0.06
0
% es.tEZ (V/m) @ t=0.06
0.48006010755250594
% es.Ex (V/m) @ t=0.06
1.1874974511133054
% es.Ey (V/m) @ t=0.06
0.07477216591481844
% es.Ez (V/m) @ t=0.06
0.4800601075525064
% es.tEx (V/m) @ t=0.06
1.1874974511133045
% es.tEy (V/m) @ t=0.06
0
% es.tEz (V/m) @ t=0.06
0.48006010755250594
% V (V) @ t=0.06
0.006409726788164674
% es.normE (V/m) @ t=0.08
1.2968740968178718
% es.EX (V/m) @ t=0.08
1.1984816870525057
% es.EY (V/m) @ t=0.08
0.07546380296431704
% es.EZ (V/m) @ t=0.08
0.4845006204644544
% es.tEX (V/m) @ t=0.08
1.198481687052504
% es.tEY (V/m) @ t=0.08
0
% es.tEZ (V/m) @ t=0.08
0.48450062046445463
% es.Ex (V/m) @ t=0.08
1.1984816870525057
% es.Ey (V/m) @ t=0.08
0.07546380296431704
% es.Ez (V/m) @ t=0.08
0.4845006204644544
% es.tEx (V/m) @ t=0.08
1.198481687052504
% es.tEy (V/m) @ t=0.08
0
% es.tEz (V/m) @ t=0.08
0.48450062046445463
% V (V) @ t=0.08
0.0064690160494304495
% es.normE (V/m) @ t=0.1
1.3088866785478523
% es.EX (V/m) @ t=0.1
1.2095828972545473
% es.EY (V/m) @ t=0.1
0.07616278923687658
% es.EZ (V/m) @ t=0.1
0.4889883897134135
% es.tEX (V/m) @ t=0.1
1.2095828972545482
% es.tEY (V/m) @ t=0.1
0
% es.tEZ (V/m) @ t=0.1
0.4889883897134144
% es.Ex (V/m) @ t=0.1
1.2095828972545473
% es.Ey (V/m) @ t=0.1
0.07616278923687658
% es.Ez (V/m) @ t=0.1
0.4889883897134135
% es.tEx (V/m) @ t=0.1
1.2095828972545482
% es.tEy (V/m) @ t=0.1
0
% es.tEz (V/m) @ t=0.1
0.4889883897134144
% V (V) @ t=0.1
0.00652893749678516
% es.normE (V/m) @ t=0.12
1.3208992602778422
% es.EX (V/m) @ t=0.12
1.220684107456595
% es.EY (V/m) @ t=0.12
0.07686177550944162
% es.EZ (V/m) @ t=0.12
0.49347615896238084
% es.tEX (V/m) @ t=0.12
1.220684107456595
% es.tEY (V/m) @ t=0.12
0
% es.tEZ (V/m) @ t=0.12
0.4934761589623795
% es.Ex (V/m) @ t=0.12
1.220684107456595
% es.Ey (V/m) @ t=0.12
0.07686177550944162
% es.Ez (V/m) @ t=0.12
0.49347615896238084
% es.tEx (V/m) @ t=0.12
1.220684107456595
% es.tEy (V/m) @ t=0.12
0
% es.tEz (V/m) @ t=0.12
0.4934761589623795
% V (V) @ t=0.12
0.00658885894413987
% es.normE (V/m) @ t=0.14
1.333025277599859
% es.EX (V/m) @ t=0.14
1.2318901434608716
% es.EY (V/m) @ t=0.14
0.07756736754509658
% es.EZ (V/m) @ t=0.14
0.49800631556339425
% es.tEX (V/m) @ t=0.14
1.2318901434608707
% es.tEY (V/m) @ t=0.14
0
% es.tEZ (V/m) @ t=0.14
0.4980063155633947
% es.Ex (V/m) @ t=0.14
1.2318901434608716
% es.Ey (V/m) @ t=0.14
0.07756736754509658
% es.Ez (V/m) @ t=0.14
0.49800631556339425
% es.tEx (V/m) @ t=0.14
1.2318901434608707
% es.tEy (V/m) @ t=0.14
0
% es.tEz (V/m) @ t=0.14
0.4980063155633947
% V (V) @ t=0.14
0.006649345947947015
% es.normE (V/m) @ t=0.16
1.3456800001731561
% es.EX (V/m) @ t=0.16
1.2435847558556499
% es.EY (V/m) @ t=0.16
0.0783037479918558
% es.EZ (V/m) @ t=0.16
0.5027340328701548
% es.tEX (V/m) @ t=0.16
1.2435847558556512
% es.tEY (V/m) @ t=0.16
0
% es.tEZ (V/m) @ t=0.16
0.502734032870157
% es.Ex (V/m) @ t=0.16
1.2435847558556499
% es.Ey (V/m) @ t=0.16
0.0783037479918558
% es.Ez (V/m) @ t=0.16
0.5027340328701548
% es.tEx (V/m) @ t=0.16
1.2435847558556512
% es.tEy (V/m) @ t=0.16
0
% es.tEz (V/m) @ t=0.16
0.502734032870157
% V (V) @ t=0.16
0.006712468920421162
% es.normE (V/m) @ t=0.18
1.3583347227464535
% es.EX (V/m) @ t=0.18
1.2552793682504277
% es.EY (V/m) @ t=0.18
0.0790401284386027
% es.EZ (V/m) @ t=0.18
0.5074617501769159
% es.tEX (V/m) @ t=0.18
1.255279368250429
% es.tEY (V/m) @ t=0.18
0
% es.tEZ (V/m) @ t=0.18
0.5074617501769207
% es.Ex (V/m) @ t=0.18
1.2552793682504277
% es.Ey (V/m) @ t=0.18
0.0790401284386027
% es.Ez (V/m) @ t=0.18
0.5074617501769159
% es.tEx (V/m) @ t=0.18
1.255279368250429
% es.tEy (V/m) @ t=0.18
0
% es.tEz (V/m) @ t=0.18
0.5074617501769207
% V (V) @ t=0.18
0.006775591892895307
% es.normE (V/m) @ t=0.2
1.3709894453197613
% es.EX (V/m) @ t=0.2
1.266973980645218
% es.EY (V/m) @ t=0.2
0.07977650888534765
% es.EZ (V/m) @ t=0.2
0.5121894674836711
% es.tEX (V/m) @ t=0.2
1.2669739806452185
% es.tEY (V/m) @ t=0.2
0
% es.tEZ (V/m) @ t=0.2
0.5121894674836729
% es.Ex (V/m) @ t=0.2
1.266973980645218
% es.Ey (V/m) @ t=0.2
0.07977650888534765
% es.Ez (V/m) @ t=0.2
0.5121894674836711
% es.tEx (V/m) @ t=0.2
1.2669739806452185
% es.tEy (V/m) @ t=0.2
0
% es.tEz (V/m) @ t=0.2
0.5121894674836729
% V (V) @ t=0.2
0.006838714865369458
% es.normE (V/m) @ t=0.22
1.3836441678930607
% es.EX (V/m) @ t=0.22
1.2786685930399924
% es.EY (V/m) @ t=0.22
0.08051288933210415
% es.EZ (V/m) @ t=0.22
0.516917184790441
% es.tEX (V/m) @ t=0.22
1.2786685930399893
% es.tEY (V/m) @ t=0.22
0
% es.tEZ (V/m) @ t=0.22
0.5169171847904401
% es.Ex (V/m) @ t=0.22
1.2786685930399924
% es.Ey (V/m) @ t=0.22
0.08051288933210415
% es.Ez (V/m) @ t=0.22
0.516917184790441
% es.tEx (V/m) @ t=0.22
1.2786685930399893
% es.tEy (V/m) @ t=0.22
0
% es.tEz (V/m) @ t=0.22
0.5169171847904401
% V (V) @ t=0.22
0.006901837837843603
% es.normE (V/m) @ t=0.24
1.3962988904663605
% es.EX (V/m) @ t=0.24
1.2903632054347707
% es.EY (V/m) @ t=0.24
0.08124926977885538
% es.EZ (V/m) @ t=0.24
0.5216449020971989
% es.tEX (V/m) @ t=0.24
1.2903632054347698
% es.tEY (V/m) @ t=0.24
0
% es.tEZ (V/m) @ t=0.24
0.5216449020971976
% es.Ex (V/m) @ t=0.24
1.2903632054347707
% es.Ey (V/m) @ t=0.24
0.08124926977885538
% es.Ez (V/m) @ t=0.24
0.5216449020971989
% es.tEx (V/m) @ t=0.24
1.2903632054347698
% es.tEy (V/m) @ t=0.24
0
% es.tEz (V/m) @ t=0.24
0.5216449020971976
% V (V) @ t=0.24
0.006964960810317748
% es.normE (V/m) @ t=0.26
1.408953613039666
% es.EX (V/m) @ t=0.26
1.3020578178295539
% es.EY (V/m) @ t=0.26
0.08198565022560406
% es.EZ (V/m) @ t=0.26
0.5263726194039602
% es.tEX (V/m) @ t=0.26
1.3020578178295503
% es.tEY (V/m) @ t=0.26
0
% es.tEZ (V/m) @ t=0.26
0.5263726194039613
% es.Ex (V/m) @ t=0.26
1.3020578178295539
% es.Ey (V/m) @ t=0.26
0.08198565022560406
% es.Ez (V/m) @ t=0.26
0.5263726194039602
% es.tEx (V/m) @ t=0.26
1.3020578178295503
% es.tEy (V/m) @ t=0.26
0
% es.tEz (V/m) @ t=0.26
0.5263726194039613
% V (V) @ t=0.26
0.007028083782791895
% es.normE (V/m) @ t=0.28
1.4221331775343367
% es.EX (V/m) @ t=0.28
1.3142374279402764
% es.EY (V/m) @ t=0.28
0.08275260702082404
% es.EZ (V/m) @ t=0.28
0.5312964750605875
% es.tEX (V/m) @ t=0.28
1.3142374279402746
% es.tEY (V/m) @ t=0.28
0
% es.tEZ (V/m) @ t=0.28
0.5312964750605857
% es.Ex (V/m) @ t=0.28
1.3142374279402764
% es.Ey (V/m) @ t=0.28
0.08275260702082404
% es.Ez (V/m) @ t=0.28
0.5312964750605875
% es.tEx (V/m) @ t=0.28
1.3142374279402746
% es.tEy (V/m) @ t=0.28
0
% es.tEz (V/m) @ t=0.28
0.5312964750605857
% V (V) @ t=0.28
0.007093822762996636
% es.normE (V/m) @ t=0.3
1.4362326116759627
% es.EX (V/m) @ t=0.3
1.3272670743372732
% es.EY (V/m) @ t=0.3
0.08357315377090574
% es.EZ (V/m) @ t=0.3
0.5365640946341208
% es.tEX (V/m) @ t=0.3
1.3272670743372679
% es.tEY (V/m) @ t=0.3
0
% es.tEZ (V/m) @ t=0.3
0.5365640946341217
% es.Ex (V/m) @ t=0.3
1.3272670743372732
% es.Ey (V/m) @ t=0.3
0.08357315377090574
% es.Ez (V/m) @ t=0.3
0.5365640946341208
% es.tEx (V/m) @ t=0.3
1.3272670743372679
% es.tEy (V/m) @ t=0.3
0
% es.tEz (V/m) @ t=0.3
0.5365640946341217
% V (V) @ t=0.3
0.0071641467163323985
% es.normE (V/m) @ t=0.32
1.4503320458176447
% es.EX (V/m) @ t=0.32
1.3402967207342735
% es.EY (V/m) @ t=0.32
0.08439370052099282
% es.EZ (V/m) @ t=0.32
0.5418317142076634
% es.tEX (V/m) @ t=0.32
1.3402967207342753
% es.tEY (V/m) @ t=0.32
0
% es.tEZ (V/m) @ t=0.32
0.5418317142076661
% es.Ex (V/m) @ t=0.32
1.3402967207342735
% es.Ey (V/m) @ t=0.32
0.08439370052099282
% es.Ez (V/m) @ t=0.32
0.5418317142076634
% es.tEx (V/m) @ t=0.32
1.3402967207342753
% es.tEy (V/m) @ t=0.32
0
% es.tEz (V/m) @ t=0.32
0.5418317142076661
% V (V) @ t=0.32
0.007234470669668163
% es.normE (V/m) @ t=0.34
1.464431479959374
% es.EX (V/m) @ t=0.34
1.3533263671312818
% es.EY (V/m) @ t=0.34
0.08521424727107191
% es.EZ (V/m) @ t=0.34
0.547099333781182
% es.tEX (V/m) @ t=0.34
1.35332636713128
% es.tEY (V/m) @ t=0.34
0
% es.tEZ (V/m) @ t=0.34
0.5470993337811803
% es.Ex (V/m) @ t=0.34
1.3533263671312818
% es.Ey (V/m) @ t=0.34
0.08521424727107191
% es.Ez (V/m) @ t=0.34
0.547099333781182
% es.tEx (V/m) @ t=0.34
1.35332636713128
% es.tEy (V/m) @ t=0.34
0
% es.tEz (V/m) @ t=0.34
0.5470993337811803
% V (V) @ t=0.34
0.007304794623003923
% es.normE (V/m) @ t=0.36
1.478530914101151
% es.EX (V/m) @ t=0.36
1.3663560135282848
% es.EY (V/m) @ t=0.36
0.0860347940211536
% es.EZ (V/m) @ t=0.36
0.5523669533547197
% es.tEX (V/m) @ t=0.36
1.366356013528283
% es.tEY (V/m) @ t=0.36
0
% es.tEZ (V/m) @ t=0.36
0.552366953354718
% es.Ex (V/m) @ t=0.36
1.3663560135282848
% es.Ey (V/m) @ t=0.36
0.0860347940211536
% es.Ez (V/m) @ t=0.36
0.5523669533547197
% es.tEx (V/m) @ t=0.36
1.366356013528283
% es.tEy (V/m) @ t=0.36
0
% es.tEz (V/m) @ t=0.36
0.552366953354718
% V (V) @ t=0.36
0.007375118576339685
% es.normE (V/m) @ t=0.38
1.4926303482429724
% es.EX (V/m) @ t=0.38
1.3793856599252887
% es.EY (V/m) @ t=0.38
0.08685534077123092
% es.EZ (V/m) @ t=0.38
0.5576345729282495
% es.tEX (V/m) @ t=0.38
1.379385659925294
% es.tEY (V/m) @ t=0.38
0
% es.tEZ (V/m) @ t=0.38
0.5576345729282539
% es.Ex (V/m) @ t=0.38
1.3793856599252887
% es.Ey (V/m) @ t=0.38
0.08685534077123092
% es.Ez (V/m) @ t=0.38
0.5576345729282495
% es.tEx (V/m) @ t=0.38
1.379385659925294
% es.tEy (V/m) @ t=0.38
0
% es.tEz (V/m) @ t=0.38
0.5576345729282539
% V (V) @ t=0.38
0.007445442529675448
% es.normE (V/m) @ t=0.4
1.5067297823848325
% es.EX (V/m) @ t=0.4
1.3924153063222855
% es.EY (V/m) @ t=0.4
0.08767588752131267
% es.EZ (V/m) @ t=0.4
0.5629021925017832
% es.tEX (V/m) @ t=0.4
1.3924153063222873
% es.tEY (V/m) @ t=0.4
0
% es.tEZ (V/m) @ t=0.4
0.5629021925017841
% es.Ex (V/m) @ t=0.4
1.3924153063222855
% es.Ey (V/m) @ t=0.4
0.08767588752131267
% es.Ez (V/m) @ t=0.4
0.5629021925017832
% es.tEx (V/m) @ t=0.4
1.3924153063222873
% es.tEy (V/m) @ t=0.4
0
% es.tEz (V/m) @ t=0.4
0.5629021925017841
% V (V) @ t=0.4
0.007515766483011211
% es.normE (V/m) @ t=0.42
1.5208292165267507
% es.EX (V/m) @ t=0.42
1.405444952719301
% es.EY (V/m) @ t=0.42
0.0884964342713997
% es.EZ (V/m) @ t=0.42
0.5681698120753125
% es.tEX (V/m) @ t=0.42
1.4054449527192991
% es.tEY (V/m) @ t=0.42
0
% es.tEZ (V/m) @ t=0.42
0.5681698120753125
% es.Ex (V/m) @ t=0.42
1.405444952719301
% es.Ey (V/m) @ t=0.42
0.0884964342713997
% es.Ez (V/m) @ t=0.42
0.5681698120753125
% es.tEx (V/m) @ t=0.42
1.4054449527192991
% es.tEy (V/m) @ t=0.42
0
% es.tEz (V/m) @ t=0.42
0.5681698120753125
% V (V) @ t=0.42
0.007586090436346972
% es.normE (V/m) @ t=0.44
1.5349286506687008
% es.EX (V/m) @ t=0.44
1.418474599116304
% es.EY (V/m) @ t=0.44
0.08931698102147612
% es.EZ (V/m) @ t=0.44
0.5734374316488466
% es.tEX (V/m) @ t=0.44
1.4184745991163057
% es.tEY (V/m) @ t=0.44
0
% es.tEZ (V/m) @ t=0.44
0.5734374316488466
% es.Ex (V/m) @ t=0.44
1.418474599116304
% es.Ey (V/m) @ t=0.44
0.08931698102147612
% es.Ez (V/m) @ t=0.44
0.5734374316488466
% es.tEx (V/m) @ t=0.44
1.4184745991163057
% es.tEy (V/m) @ t=0.44
0
% es.tEz (V/m) @ t=0.44
0.5734374316488466
% V (V) @ t=0.44
0.007656414389682736
% es.normE (V/m) @ t=0.46
1.5490280848106948
% es.EX (V/m) @ t=0.46
1.4315042455133087
% es.EY (V/m) @ t=0.46
0.09013752777155254
% es.EZ (V/m) @ t=0.46
0.5787050512223866
% es.tEX (V/m) @ t=0.46
1.4315042455133078
% es.tEY (V/m) @ t=0.46
0
% es.tEZ (V/m) @ t=0.46
0.5787050512223857
% es.Ex (V/m) @ t=0.46
1.4315042455133087
% es.Ey (V/m) @ t=0.46
0.09013752777155254
% es.Ez (V/m) @ t=0.46
0.5787050512223866
% es.tEx (V/m) @ t=0.46
1.4315042455133078
% es.tEy (V/m) @ t=0.46
0
% es.tEz (V/m) @ t=0.46
0.5787050512223857
% V (V) @ t=0.46
0.007726738343018499
% es.normE (V/m) @ t=0.48
1.5631275189527216
% es.EX (V/m) @ t=0.48
1.4445338919103126
% es.EY (V/m) @ t=0.48
0.09095807452163074
% es.EZ (V/m) @ t=0.48
0.5839726707959074
% es.tEX (V/m) @ t=0.48
1.4445338919103108
% es.tEY (V/m) @ t=0.48
0
% es.tEZ (V/m) @ t=0.48
0.5839726707959074
% es.Ex (V/m) @ t=0.48
1.4445338919103126
% es.Ey (V/m) @ t=0.48
0.09095807452163074
% es.Ez (V/m) @ t=0.48
0.5839726707959074
% es.tEx (V/m) @ t=0.48
1.4445338919103108
% es.tEy (V/m) @ t=0.48
0
% es.tEz (V/m) @ t=0.48
0.5839726707959074
% V (V) @ t=0.48
0.00779706229635426
% es.normE (V/m) @ t=0.5
1.577226953094787
% es.EX (V/m) @ t=0.5
1.457563538307313
% es.EY (V/m) @ t=0.5
0.09177862127171427
% es.EZ (V/m) @ t=0.5
0.5892402903694416
% es.tEX (V/m) @ t=0.5
1.457563538307319
% es.tEY (V/m) @ t=0.5
0
% es.tEZ (V/m) @ t=0.5
0.5892402903694416
% es.Ex (V/m) @ t=0.5
1.457563538307313
% es.Ey (V/m) @ t=0.5
0.09177862127171427
% es.Ez (V/m) @ t=0.5
0.5892402903694416
% es.tEx (V/m) @ t=0.5
1.457563538307319
% es.tEy (V/m) @ t=0.5
0
% es.tEz (V/m) @ t=0.5
0.5892402903694416
% V (V) @ t=0.5
0.007867386249690023
% es.normE (V/m) @ t=0.52
1.5913263872368977
% es.EX (V/m) @ t=0.52
1.4705931847043203
% es.EY (V/m) @ t=0.52
0.09259916802178891
% es.EZ (V/m) @ t=0.52
0.5945079099429771
% es.tEX (V/m) @ t=0.52
1.4705931847043248
% es.tEY (V/m) @ t=0.52
0
% es.tEZ (V/m) @ t=0.52
0.5945079099429789
% es.Ex (V/m) @ t=0.52
1.4705931847043203
% es.Ey (V/m) @ t=0.52
0.09259916802178891
% es.Ez (V/m) @ t=0.52
0.5945079099429771
% es.tEx (V/m) @ t=0.52
1.4705931847043248
% es.tEy (V/m) @ t=0.52
0
% es.tEz (V/m) @ t=0.52
0.5945079099429789
% V (V) @ t=0.52
0.007937710203025786
% es.normE (V/m) @ t=0.54
1.6054258213790418
% es.EX (V/m) @ t=0.54
1.4836228311013269
% es.EY (V/m) @ t=0.54
0.09341971477186528
% es.EZ (V/m) @ t=0.54
0.5997755295165064
% es.tEX (V/m) @ t=0.54
1.483622831101325
% es.tEY (V/m) @ t=0.54
0
% es.tEZ (V/m) @ t=0.54
0.5997755295165073
% es.Ex (V/m) @ t=0.54
1.4836228311013269
% es.Ey (V/m) @ t=0.54
0.09341971477186528
% es.Ez (V/m) @ t=0.54
0.5997755295165064
% es.tEx (V/m) @ t=0.54
1.483622831101325
% es.tEy (V/m) @ t=0.54
0
% es.tEz (V/m) @ t=0.54
0.5997755295165073
% V (V) @ t=0.54
0.00800803415636155
% es.normE (V/m) @ t=0.56
1.620733224777551
% es.EX (V/m) @ t=0.56
1.4977689198765818
% es.EY (V/m) @ t=0.56
0.09431037905967232
% es.EZ (V/m) @ t=0.56
0.6054941369021902
% es.tEX (V/m) @ t=0.56
1.4977689198765818
% es.tEY (V/m) @ t=0.56
0
% es.tEZ (V/m) @ t=0.56
0.6054941369021893
% es.Ex (V/m) @ t=0.56
1.4977689198765818
% es.Ey (V/m) @ t=0.56
0.09431037905967232
% es.Ez (V/m) @ t=0.56
0.6054941369021902
% es.tEx (V/m) @ t=0.56
1.4977689198765818
% es.tEy (V/m) @ t=0.56
0
% es.tEz (V/m) @ t=0.56
0.6054941369021893
% V (V) @ t=0.56
0.00808439314597724
% es.normE (V/m) @ t=0.58
1.6364726951428348
% es.EX (V/m) @ t=0.58
1.5123143382451705
% es.EY (V/m) @ t=0.58
0.09522612301872091
% es.EZ (V/m) @ t=0.58
0.611374053803809
% es.tEX (V/m) @ t=0.58
1.5123143382451758
% es.tEY (V/m) @ t=0.58
0
% es.tEZ (V/m) @ t=0.58
0.6113740538038108
% es.Ex (V/m) @ t=0.58
1.5123143382451705
% es.Ey (V/m) @ t=0.58
0.09522612301872091
% es.Ez (V/m) @ t=0.58
0.611374053803809
% es.tEx (V/m) @ t=0.58
1.5123143382451758
% es.tEy (V/m) @ t=0.58
0
% es.tEz (V/m) @ t=0.58
0.6113740538038108
% V (V) @ t=0.58
0.008162910749983035
% es.normE (V/m) @ t=0.6
1.6522121655082045
% es.EX (V/m) @ t=0.6
1.5268597566137805
% es.EY (V/m) @ t=0.6
0.09614186697776667
% es.EZ (V/m) @ t=0.6
0.6172539707054367
% es.tEX (V/m) @ t=0.6
1.5268597566137796
% es.tEY (V/m) @ t=0.6
0
% es.tEZ (V/m) @ t=0.6
0.6172539707054403
% es.Ex (V/m) @ t=0.6
1.5268597566137805
% es.Ey (V/m) @ t=0.6
0.09614186697776667
% es.Ez (V/m) @ t=0.6
0.6172539707054367
% es.tEx (V/m) @ t=0.6
1.5268597566137796
% es.tEy (V/m) @ t=0.6
0
% es.tEz (V/m) @ t=0.6
0.6172539707054403
% V (V) @ t=0.6
0.00824142835398883
% es.normE (V/m) @ t=0.62
1.667951635873624
% es.EX (V/m) @ t=0.62
1.5414051749823798
% es.EY (V/m) @ t=0.62
0.09705761093681786
% es.EZ (V/m) @ t=0.62
0.623133887607064
% es.tEX (V/m) @ t=0.62
1.5414051749823763
% es.tEY (V/m) @ t=0.62
0
% es.tEZ (V/m) @ t=0.62
0.6231338876070649
% es.Ex (V/m) @ t=0.62
1.5414051749823798
% es.Ey (V/m) @ t=0.62
0.09705761093681786
% es.Ez (V/m) @ t=0.62
0.623133887607064
% es.tEx (V/m) @ t=0.62
1.5414051749823763
% es.tEy (V/m) @ t=0.62
0
% es.tEz (V/m) @ t=0.62
0.6231338876070649
% V (V) @ t=0.62
0.008319945957994627
% es.normE (V/m) @ t=0.64
1.683691106239094
% es.EX (V/m) @ t=0.64
1.5559505933509667
% es.EY (V/m) @ t=0.64
0.09797335489587
% es.EZ (V/m) @ t=0.64
0.6290138045086979
% es.tEX (V/m) @ t=0.64
1.5559505933509739
% es.tEY (V/m) @ t=0.64
0
% es.tEZ (V/m) @ t=0.64
0.6290138045086953
% es.Ex (V/m) @ t=0.64
1.5559505933509667
% es.Ey (V/m) @ t=0.64
0.09797335489587
% es.Ez (V/m) @ t=0.64
0.6290138045086979
% es.tEx (V/m) @ t=0.64
1.5559505933509739
% es.tEy (V/m) @ t=0.64
0
% es.tEz (V/m) @ t=0.64
0.6290138045086953
% V (V) @ t=0.64
0.008398463562000422
% es.normE (V/m) @ t=0.66
1.6994305766046196
% es.EX (V/m) @ t=0.66
1.570496011719558
% es.EY (V/m) @ t=0.66
0.09888909885491415
% es.EZ (V/m) @ t=0.66
0.6348937214103163
% es.tEX (V/m) @ t=0.66
1.5704960117195563
% es.tEY (V/m) @ t=0.66
0
% es.tEZ (V/m) @ t=0.66
0.6348937214103163
% es.Ex (V/m) @ t=0.66
1.570496011719558
% es.Ey (V/m) @ t=0.66
0.09888909885491415
% es.Ez (V/m) @ t=0.66
0.6348937214103163
% es.tEx (V/m) @ t=0.66
1.5704960117195563
% es.tEy (V/m) @ t=0.66
0
% es.tEz (V/m) @ t=0.66
0.6348937214103163
% V (V) @ t=0.66
0.008476981166006217
% es.normE (V/m) @ t=0.68
1.7151700469702174
% es.EX (V/m) @ t=0.68
1.5850414300881672
% es.EY (V/m) @ t=0.68
0.09980484281396262
% es.EZ (V/m) @ t=0.68
0.6407736383119345
% es.tEX (V/m) @ t=0.68
1.585041430088169
% es.tEY (V/m) @ t=0.68
0
% es.tEZ (V/m) @ t=0.68
0.6407736383119333
% es.Ex (V/m) @ t=0.68
1.5850414300881672
% es.Ey (V/m) @ t=0.68
0.09980484281396262
% es.Ez (V/m) @ t=0.68
0.6407736383119345
% es.tEx (V/m) @ t=0.68
1.585041430088169
% es.tEy (V/m) @ t=0.68
0
% es.tEz (V/m) @ t=0.68
0.6407736383119333
% V (V) @ t=0.68
0.00855549877001201
% es.normE (V/m) @ t=0.7
1.7309095173358569
% es.EX (V/m) @ t=0.7
1.5995868484567595
% es.EY (V/m) @ t=0.7
0.10072058677301376
% es.EZ (V/m) @ t=0.7
0.6466535552135628
% es.tEX (V/m) @ t=0.7
1.5995868484567595
% es.tEY (V/m) @ t=0.7
0
% es.tEZ (V/m) @ t=0.7
0.6466535552135602
% es.Ex (V/m) @ t=0.7
1.5995868484567595
% es.Ey (V/m) @ t=0.7
0.10072058677301376
% es.Ez (V/m) @ t=0.7
0.6466535552135628
% es.tEx (V/m) @ t=0.7
1.5995868484567595
% es.tEy (V/m) @ t=0.7
0
% es.tEz (V/m) @ t=0.7
0.6466535552135602
% V (V) @ t=0.7
0.00863401637401781
% es.normE (V/m) @ t=0.72
1.7466489877015507
% es.EX (V/m) @ t=0.72
1.6141322668253508
% es.EY (V/m) @ t=0.72
0.1016363307320659
% es.EZ (V/m) @ t=0.72
0.6525334721151941
% es.tEX (V/m) @ t=0.72
1.6141322668253615
% es.tEY (V/m) @ t=0.72
0
% es.tEZ (V/m) @ t=0.72
0.6525334721151932
% es.Ex (V/m) @ t=0.72
1.6141322668253508
% es.Ey (V/m) @ t=0.72
0.1016363307320659
% es.Ez (V/m) @ t=0.72
0.6525334721151941
% es.tEx (V/m) @ t=0.72
1.6141322668253615
% es.tEy (V/m) @ t=0.72
0
% es.tEz (V/m) @ t=0.72
0.6525334721151932
% V (V) @ t=0.72
0.008712533978023601
% es.normE (V/m) @ t=0.74
1.7623884580672933
% es.EX (V/m) @ t=0.74
1.6286776851939475
% es.EY (V/m) @ t=0.74
0.10255207469110905
% es.EZ (V/m) @ t=0.74
0.6584133890168076
% es.tEX (V/m) @ t=0.74
1.6286776851939457
% es.tEY (V/m) @ t=0.74
0
% es.tEZ (V/m) @ t=0.74
0.6584133890168085
% es.Ex (V/m) @ t=0.74
1.6286776851939475
% es.Ey (V/m) @ t=0.74
0.10255207469110905
% es.Ez (V/m) @ t=0.74
0.6584133890168076
% es.tEx (V/m) @ t=0.74
1.6286776851939457
% es.tEy (V/m) @ t=0.74
0
% es.tEz (V/m) @ t=0.74
0.6584133890168085
% V (V) @ t=0.74
0.0087910515820294
% es.normE (V/m) @ t=0.76
1.7781279284330984
% es.EX (V/m) @ t=0.76
1.6432231035625495
% es.EY (V/m) @ t=0.76
0.1034678186501593
% es.EZ (V/m) @ t=0.76
0.6642933059184422
% es.tEX (V/m) @ t=0.76
1.6432231035625495
% es.tEY (V/m) @ t=0.76
0
% es.tEZ (V/m) @ t=0.76
0.6642933059184442
% es.Ex (V/m) @ t=0.76
1.6432231035625495
% es.Ey (V/m) @ t=0.76
0.1034678186501593
% es.Ez (V/m) @ t=0.76
0.6642933059184422
% es.tEx (V/m) @ t=0.76
1.6432231035625495
% es.tEy (V/m) @ t=0.76
0
% es.tEz (V/m) @ t=0.76
0.6642933059184442
% V (V) @ t=0.76
0.008869569186035195
% es.normE (V/m) @ t=0.78
1.7938673987989464
% es.EX (V/m) @ t=0.78
1.6577685219311502
% es.EY (V/m) @ t=0.78
0.10438356260920978
% es.EZ (V/m) @ t=0.78
0.6701732228200634
% es.tEX (V/m) @ t=0.78
1.6577685219311507
% es.tEY (V/m) @ t=0.78
0
% es.tEZ (V/m) @ t=0.78
0.6701732228200599
% es.Ex (V/m) @ t=0.78
1.6577685219311502
% es.Ey (V/m) @ t=0.78
0.10438356260920978
% es.Ez (V/m) @ t=0.78
0.6701732228200634
% es.tEx (V/m) @ t=0.78
1.6577685219311507
% es.tEy (V/m) @ t=0.78
0
% es.tEz (V/m) @ t=0.78
0.6701732228200599
% V (V) @ t=0.78
0.00894808679004099
% es.normE (V/m) @ t=0.8
1.8096068691648373
% es.EX (V/m) @ t=0.8
1.6723139402997402
% es.EY (V/m) @ t=0.8
0.10529930656825903
% es.EZ (V/m) @ t=0.8
0.6760531397216998
% es.tEX (V/m) @ t=0.8
1.6723139402997367
% es.tEY (V/m) @ t=0.8
0
% es.tEZ (V/m) @ t=0.8
0.6760531397216987
% es.Ex (V/m) @ t=0.8
1.6723139402997402
% es.Ey (V/m) @ t=0.8
0.10529930656825903
% es.Ez (V/m) @ t=0.8
0.6760531397216998
% es.tEx (V/m) @ t=0.8
1.6723139402997367
% es.tEy (V/m) @ t=0.8
0
% es.tEz (V/m) @ t=0.8
0.6760531397216987
% V (V) @ t=0.8
0.009026604394046787
% es.normE (V/m) @ t=0.82
1.8255505638218485
% es.EX (V/m) @ t=0.82
1.6870480689984184
% es.EY (V/m) @ t=0.82
0.10622696223912409
% es.EZ (V/m) @ t=0.82
0.6820094018531773
% es.tEX (V/m) @ t=0.82
1.687048068998422
% es.tEY (V/m) @ t=0.82
0
% es.tEZ (V/m) @ t=0.82
0.6820094018531835
% es.Ex (V/m) @ t=0.82
1.6870480689984184
% es.Ey (V/m) @ t=0.82
0.10622696223912409
% es.Ez (V/m) @ t=0.82
0.6820094018531773
% es.tEx (V/m) @ t=0.82
1.687048068998422
% es.tEy (V/m) @ t=0.82
0
% es.tEz (V/m) @ t=0.82
0.6820094018531835
% V (V) @ t=0.82
0.009106139156997596
% es.normE (V/m) @ t=0.84
1.843149733034291
% es.EX (V/m) @ t=0.84
1.7033119136194448
% es.EY (V/m) @ t=0.84
0.1072511761387861
% es.EZ (V/m) @ t=0.84
0.6885845305494145
% es.tEX (V/m) @ t=0.84
1.7033119136194514
% es.tEY (V/m) @ t=0.84
0
% es.tEZ (V/m) @ t=0.84
0.6885845305494156
% es.Ex (V/m) @ t=0.84
1.7033119136194448
% es.Ey (V/m) @ t=0.84
0.1072511761387861
% es.Ez (V/m) @ t=0.84
0.6885845305494145
% es.tEx (V/m) @ t=0.84
1.7033119136194514
% es.tEy (V/m) @ t=0.84
0
% es.tEz (V/m) @ t=0.84
0.6885845305494156
% V (V) @ t=0.84
0.00919391917198706
% es.normE (V/m) @ t=0.86
1.860748902246805
% es.EX (V/m) @ t=0.86
1.7195757582404871
% es.EY (V/m) @ t=0.86
0.1082753900384471
% es.EZ (V/m) @ t=0.86
0.6951596592456557
% es.tEX (V/m) @ t=0.86
1.7195757582404934
% es.tEY (V/m) @ t=0.86
0
% es.tEZ (V/m) @ t=0.86
0.6951596592456557
% es.Ex (V/m) @ t=0.86
1.7195757582404871
% es.Ey (V/m) @ t=0.86
0.1082753900384471
% es.Ez (V/m) @ t=0.86
0.6951596592456557
% es.tEx (V/m) @ t=0.86
1.7195757582404934
% es.tEy (V/m) @ t=0.86
0
% es.tEz (V/m) @ t=0.86
0.6951596592456557
% V (V) @ t=0.86
0.009281699186976524
% es.normE (V/m) @ t=0.88
1.878348071459373
% es.EX (V/m) @ t=0.88
1.7358396028615273
% es.EY (V/m) @ t=0.88
0.10929960393811355
% es.EZ (V/m) @ t=0.88
0.7017347879418991
% es.tEX (V/m) @ t=0.88
1.7358396028615317
% es.tEY (V/m) @ t=0.88
0
% es.tEZ (V/m) @ t=0.88
0.7017347879419074
% es.Ex (V/m) @ t=0.88
1.7358396028615273
% es.Ey (V/m) @ t=0.88
0.10929960393811355
% es.Ez (V/m) @ t=0.88
0.7017347879418991
% es.tEx (V/m) @ t=0.88
1.7358396028615317
% es.tEy (V/m) @ t=0.88
0
% es.tEz (V/m) @ t=0.88
0.7017347879419074
% V (V) @ t=0.88
0.009369479201965986
% es.normE (V/m) @ t=0.9
1.8959472406719868
% es.EX (V/m) @ t=0.9
1.7521034474825612
% es.EY (V/m) @ t=0.9
0.11032381783777367
% es.EZ (V/m) @ t=0.9
0.7083099166381392
% es.tEX (V/m) @ t=0.9
1.7521034474825647
% es.tEY (V/m) @ t=0.9
0
% es.tEZ (V/m) @ t=0.9
0.7083099166381408
% es.Ex (V/m) @ t=0.9
1.7521034474825612
% es.Ey (V/m) @ t=0.9
0.11032381783777367
% es.Ez (V/m) @ t=0.9
0.7083099166381392
% es.tEx (V/m) @ t=0.9
1.7521034474825647
% es.tEy (V/m) @ t=0.9
0
% es.tEz (V/m) @ t=0.9
0.7083099166381408
% V (V) @ t=0.9
0.00945725921695545
% es.normE (V/m) @ t=0.92
1.9135464098846515
% es.EX (V/m) @ t=0.92
1.7683672921035987
% es.EY (V/m) @ t=0.92
0.11134803173742414
% es.EZ (V/m) @ t=0.92
0.7148850453343694
% es.tEX (V/m) @ t=0.92
1.7683672921035978
% es.tEY (V/m) @ t=0.92
0
% es.tEZ (V/m) @ t=0.92
0.7148850453343658
% es.Ex (V/m) @ t=0.92
1.7683672921035987
% es.Ey (V/m) @ t=0.92
0.11134803173742414
% es.Ez (V/m) @ t=0.92
0.7148850453343694
% es.tEx (V/m) @ t=0.92
1.7683672921035978
% es.tEy (V/m) @ t=0.92
0
% es.tEz (V/m) @ t=0.92
0.7148850453343658
% V (V) @ t=0.92
0.009545039231944911
% es.normE (V/m) @ t=0.94
1.9311455790973824
% es.EX (V/m) @ t=0.94
1.784631136724646
% es.EY (V/m) @ t=0.94
0.11237224563708637
% es.EZ (V/m) @ t=0.94
0.721460174030619
% es.tEX (V/m) @ t=0.94
1.784631136724654
% es.tEY (V/m) @ t=0.94
0
% es.tEZ (V/m) @ t=0.94
0.7214601740306228
% es.Ex (V/m) @ t=0.94
1.784631136724646
% es.Ey (V/m) @ t=0.94
0.11237224563708637
% es.Ez (V/m) @ t=0.94
0.721460174030619
% es.tEx (V/m) @ t=0.94
1.784631136724654
% es.tEy (V/m) @ t=0.94
0
% es.tEz (V/m) @ t=0.94
0.7214601740306228
% V (V) @ t=0.94
0.009632819246934377
% es.normE (V/m) @ t=0.96
1.948744748310144
% es.EX (V/m) @ t=0.96
1.800894981345678
% es.EY (V/m) @ t=0.96
0.11339645953674737
% es.EZ (V/m) @ t=0.96
0.7280353027268558
% es.tEX (V/m) @ t=0.96
1.8008949813456852
% es.tEY (V/m) @ t=0.96
0
% es.tEZ (V/m) @ t=0.96
0.7280353027268576
% es.Ex (V/m) @ t=0.96
1.800894981345678
% es.Ey (V/m) @ t=0.96
0.11339645953674737
% es.Ez (V/m) @ t=0.96
0.7280353027268558
% es.tEx (V/m) @ t=0.96
1.8008949813456852
% es.tEy (V/m) @ t=0.96
0
% es.tEz (V/m) @ t=0.96
0.7280353027268576
% V (V) @ t=0.96
0.00972059926192384
% es.normE (V/m) @ t=0.98
1.966343917522967
% es.EX (V/m) @ t=0.98
1.8171588259667226
% es.EY (V/m) @ t=0.98
0.11442067343641382
% es.EZ (V/m) @ t=0.98
0.7346104314230986
% es.tEX (V/m) @ t=0.98
1.8171588259667182
% es.tEY (V/m) @ t=0.98
0
% es.tEZ (V/m) @ t=0.98
0.7346104314231003
% es.Ex (V/m) @ t=0.98
1.8171588259667226
% es.Ey (V/m) @ t=0.98
0.11442067343641382
% es.Ez (V/m) @ t=0.98
0.7346104314230986
% es.tEx (V/m) @ t=0.98
1.8171588259667182
% es.tEy (V/m) @ t=0.98
0
% es.tEz (V/m) @ t=0.98
0.7346104314231003
% V (V) @ t=0.98
0.009808379276913304
% es.normE (V/m) @ t=1
1.9839430867358243
% es.EX (V/m) @ t=1
1.833422670587752
% es.EY (V/m) @ t=1
0.11544488733606606
% es.EZ (V/m) @ t=1
0.74118556011935
% es.tEX (V/m) @ t=1
1.8334226705877565
% es.tEY (V/m) @ t=1
0
% es.tEZ (V/m) @ t=1
0.7411855601193462
% es.Ex (V/m) @ t=1
1.833422670587752
% es.Ey (V/m) @ t=1
0.11544488733606606
% es.Ez (V/m) @ t=1
0.74118556011935
% es.tEx (V/m) @ t=1
1.8334226705877565
% es.tEy (V/m) @ t=1
0
% es.tEz (V/m) @ t=1
0.7411855601193462
% V (V) @ t=1
0.009896159291902767
% es.normE (V/m) @ t=1.02
2.001542255948733
% es.EX (V/m) @ t=1.02
1.8496865152087967
% es.EY (V/m) @ t=1.02
0.11646910123572807
% es.EZ (V/m) @ t=1.02
0.7477606888155792
% es.tEX (V/m) @ t=1.02
1.8496865152087967
% es.tEY (V/m) @ t=1.02
0
% es.tEZ (V/m) @ t=1.02
0.7477606888155766
% es.Ex (V/m) @ t=1.02
1.8496865152087967
% es.Ey (V/m) @ t=1.02
0.11646910123572807
% es.Ez (V/m) @ t=1.02
0.7477606888155792
% es.tEx (V/m) @ t=1.02
1.8496865152087967
% es.tEy (V/m) @ t=1.02
0
% es.tEz (V/m) @ t=1.02
0.7477606888155766
% V (V) @ t=1.02
0.009983939306892233
% es.normE (V/m) @ t=1.04
2.019141425161679
% es.EX (V/m) @ t=1.04
1.8659503598298306
% es.EY (V/m) @ t=1.04
0.1174933151353873
% es.EZ (V/m) @ t=1.04
0.7543358175118173
% es.tEX (V/m) @ t=1.04
1.8659503598298297
% es.tEY (V/m) @ t=1.04
0
% es.tEZ (V/m) @ t=1.04
0.7543358175118282
% es.Ex (V/m) @ t=1.04
1.8659503598298306
% es.Ey (V/m) @ t=1.04
0.1174933151353873
% es.Ez (V/m) @ t=1.04
0.7543358175118173