% Model:              1 neuron.mph
% Version:            COMSOL 6.0.0.405
% Date:               Mar 16 2023, 17:09
% Dimension:          0
% Nodes:              14017
% Expressions:        14017
% Description:        Electric field norm, Electric field, X component, Electric field, Y component, Electric field, Z component, Tangential electric field, X component, Tangential electric field, Y component, Tangential electric field, Z component, Electric field, x component, Electric field, y component, Electric field, z component, Tangential electric field, x component, Tangential electric field, y component, Tangential electric field, z component, Electric potential
% Length unit:        mm
% x
1.66
% y
12.200000000000001
% z
1.66
% es.normE (V/m) @ t=0
20.571068712813307
% es.EX (V/m) @ t=0
-9.714843704891408
% es.EY (V/m) @ t=0
7.794311189277526
% es.EZ (V/m) @ t=0
9.34346623714529
% es.tEX (V/m) @ t=0
-9.714843704891393
% es.tEY (V/m) @ t=0
0
% es.tEZ (V/m) @ t=0
9.343466237145265
% es.Ex (V/m) @ t=0
-9.714843704891408
% es.Ey (V/m) @ t=0
7.794311189277526
% es.Ez (V/m) @ t=0
9.34346623714529
% es.tEx (V/m) @ t=0
-9.714843704891393
% es.tEy (V/m) @ t=0
0
% es.tEz (V/m) @ t=0
9.343466237145265
% V (V) @ t=0
0.00645614121139098
% es.normE (V/m) @ t=0.02
17.76761669245846
% es.EX (V/m) @ t=0.02
-8.390892174309691
% es.EY (V/m) @ t=0.02
6.732092318968032
% es.EZ (V/m) @ t=0.02
8.070126476597196
% es.tEX (V/m) @ t=0.02
-8.39089217430967
% es.tEY (V/m) @ t=0.02
0
% es.tEZ (V/m) @ t=0.02
8.070126476597181
% es.Ex (V/m) @ t=0.02
-8.390892174309691
% es.Ey (V/m) @ t=0.02
6.732092318968032
% es.Ez (V/m) @ t=0.02
8.070126476597196
% es.tEx (V/m) @ t=0.02
-8.39089217430967
% es.tEy (V/m) @ t=0.02
0
% es.tEz (V/m) @ t=0.02
8.070126476597181
% V (V) @ t=0.02
0.005576289884301441
% es.normE (V/m) @ t=0.04
17.931034310424995
% es.EX (V/m) @ t=0.04
-8.46806740295969
% es.EY (V/m) @ t=0.04
6.794010728277758
% es.EZ (V/m) @ t=0.04
8.144351427863302
% es.tEX (V/m) @ t=0.04
-8.46806740295968
% es.tEY (V/m) @ t=0.04
0
% es.tEZ (V/m) @ t=0.04
8.144351427863313
% es.Ex (V/m) @ t=0.04
-8.46806740295969
% es.Ey (V/m) @ t=0.04
6.794010728277758
% es.Ez (V/m) @ t=0.04
8.144351427863302
% es.tEx (V/m) @ t=0.04
-8.46806740295968
% es.tEy (V/m) @ t=0.04
0
% es.tEz (V/m) @ t=0.04
8.144351427863313
% V (V) @ t=0.04
0.005627577799846088
% es.normE (V/m) @ t=0.06
18.09593444959642
% es.EX (V/m) @ t=0.06
-8.545942708506892
% es.EY (V/m) @ t=0.06
6.856490845249272
% es.EZ (V/m) @ t=0.06
8.219249820657573
% es.tEX (V/m) @ t=0.06
-8.545942708506903
% es.tEY (V/m) @ t=0.06
0
% es.tEZ (V/m) @ t=0.06
8.219249820657552
% es.Ex (V/m) @ t=0.06
-8.545942708506892
% es.Ey (V/m) @ t=0.06
6.856490845249272
% es.Ez (V/m) @ t=0.06
8.219249820657573
% es.tEx (V/m) @ t=0.06
-8.545942708506903
% es.tEy (V/m) @ t=0.06
0
% es.tEz (V/m) @ t=0.06
8.219249820657552
% V (V) @ t=0.06
0.005679330995360634
% es.normE (V/m) @ t=0.08
18.26332969204867
% es.EX (V/m) @ t=0.08
-8.624996341461845
% es.EY (V/m) @ t=0.08
6.919916347824579
% es.EZ (V/m) @ t=0.08
8.295281505274719
% es.tEX (V/m) @ t=0.08
-8.624996341461834
% es.tEY (V/m) @ t=0.08
0
% es.tEZ (V/m) @ t=0.08
8.295281505274744
% es.Ex (V/m) @ t=0.08
-8.624996341461845
% es.Ey (V/m) @ t=0.08
6.919916347824579
% es.Ez (V/m) @ t=0.08
8.295281505274719
% es.tEx (V/m) @ t=0.08
-8.624996341461834
% es.tEy (V/m) @ t=0.08
0
% es.tEz (V/m) @ t=0.08
8.295281505274744
% V (V) @ t=0.08
0.005731867268014839
% es.normE (V/m) @ t=0.1
18.432502896264978
% es.EX (V/m) @ t=0.1
-8.704889627465477
% es.EY (V/m) @ t=0.1
6.984015513678255
% es.EZ (V/m) @ t=0.1
8.37212075146423
% es.tEX (V/m) @ t=0.1
-8.70488962746547
% es.tEY (V/m) @ t=0.1
0
% es.tEZ (V/m) @ t=0.1
8.372120751464251
% es.Ex (V/m) @ t=0.1
-8.704889627465477
% es.Ey (V/m) @ t=0.1
6.984015513678255
% es.Ez (V/m) @ t=0.1
8.37212075146423
% es.tEx (V/m) @ t=0.1
-8.70488962746547
% es.tEy (V/m) @ t=0.1
0
% es.tEz (V/m) @ t=0.1
8.372120751464251
% V (V) @ t=0.1
0.005784961546112483
% es.normE (V/m) @ t=0.12
18.601676100481395
% es.EX (V/m) @ t=0.12
-8.78478291346915
% es.EY (V/m) @ t=0.12
7.0481146795319525
% es.EZ (V/m) @ t=0.12
8.448959997653784
% es.tEX (V/m) @ t=0.12
-8.784782913469165
% es.tEY (V/m) @ t=0.12
0
% es.tEZ (V/m) @ t=0.12
8.448959997653787
% es.Ex (V/m) @ t=0.12
-8.78478291346915
% es.Ey (V/m) @ t=0.12
7.0481146795319525
% es.Ez (V/m) @ t=0.12
8.448959997653784
% es.tEx (V/m) @ t=0.12
-8.784782913469165
% es.tEy (V/m) @ t=0.12
0
% es.tEz (V/m) @ t=0.12
8.448959997653787
% V (V) @ t=0.12
0.005838055824210127
% es.normE (V/m) @ t=0.14
18.77245789394025
% es.EX (V/m) @ t=0.14
-8.865435833094793
% es.EY (V/m) @ t=0.14
7.112823325154899
% es.EZ (V/m) @ t=0.14
8.526529918937918
% es.tEX (V/m) @ t=0.14
-8.865435833094772
% es.tEY (V/m) @ t=0.14
0
% es.tEZ (V/m) @ t=0.14
8.526529918937882
% es.Ex (V/m) @ t=0.14
-8.865435833094793
% es.Ey (V/m) @ t=0.14
7.112823325154899
% es.Ez (V/m) @ t=0.14
8.526529918937918
% es.tEx (V/m) @ t=0.14
-8.865435833094772
% es.tEy (V/m) @ t=0.14
0
% es.tEz (V/m) @ t=0.14
8.526529918937882
% V (V) @ t=0.14
0.005891654949278477
% es.normE (V/m) @ t=0.16
18.950677915738233
% es.EX (V/m) @ t=0.16
-8.949601351328688
% es.EY (V/m) @ t=0.16
7.180350247546361
% es.EZ (V/m) @ t=0.16
8.607478532589134
% es.tEX (V/m) @ t=0.16
-8.949601351328688
% es.tEY (V/m) @ t=0.16
0
% es.tEZ (V/m) @ t=0.16
8.607478532589113
% es.Ex (V/m) @ t=0.16
-8.949601351328688
% es.Ey (V/m) @ t=0.16
7.180350247546361
% es.Ez (V/m) @ t=0.16
8.607478532589134
% es.tEx (V/m) @ t=0.16
-8.949601351328688
% es.tEy (V/m) @ t=0.16
0
% es.tEz (V/m) @ t=0.16
8.607478532589113
% V (V) @ t=0.16
0.00594758852179007
% es.normE (V/m) @ t=0.18
19.128897937536227
% es.EX (V/m) @ t=0.18
-9.033766869562612
% es.EY (V/m) @ t=0.18
7.247877169937777
% es.EZ (V/m) @ t=0.18
8.68842714624034
% es.tEX (V/m) @ t=0.18
-9.033766869562623
% es.tEY (V/m) @ t=0.18
0
% es.tEZ (V/m) @ t=0.18
8.688427146240315
% es.Ex (V/m) @ t=0.18
-9.033766869562612
% es.Ey (V/m) @ t=0.18
7.247877169937777
% es.Ez (V/m) @ t=0.18
8.68842714624034
% es.tEx (V/m) @ t=0.18
-9.033766869562623
% es.tEy (V/m) @ t=0.18
0
% es.tEz (V/m) @ t=0.18
8.688427146240315
% V (V) @ t=0.18
0.0060035220943016636
% es.normE (V/m) @ t=0.2
19.307117959334253
% es.EX (V/m) @ t=0.2
-9.117932387796522
% es.EY (V/m) @ t=0.2
7.315404092329214
% es.EZ (V/m) @ t=0.2
8.769375759891535
% es.tEX (V/m) @ t=0.2
-9.117932387796515
% es.tEY (V/m) @ t=0.2
0
% es.tEZ (V/m) @ t=0.2
8.769375759891545
% es.Ex (V/m) @ t=0.2
-9.117932387796522
% es.Ey (V/m) @ t=0.2
7.315404092329214
% es.Ez (V/m) @ t=0.2
8.769375759891535
% es.tEx (V/m) @ t=0.2
-9.117932387796515
% es.tEy (V/m) @ t=0.2
0
% es.tEz (V/m) @ t=0.2
8.769375759891545
% V (V) @ t=0.2
0.006059455666813257
% es.normE (V/m) @ t=0.22
19.48533798113226
% es.EX (V/m) @ t=0.22
-9.202097906030389
% es.EY (V/m) @ t=0.22
7.3829310147206755
% es.EZ (V/m) @ t=0.22
8.850324373542751
% es.tEX (V/m) @ t=0.22
-9.202097906030396
% es.tEY (V/m) @ t=0.22
0
% es.tEZ (V/m) @ t=0.22
8.850324373542747
% es.Ex (V/m) @ t=0.22
-9.202097906030389
% es.Ey (V/m) @ t=0.22
7.3829310147206755
% es.Ez (V/m) @ t=0.22
8.850324373542751
% es.tEx (V/m) @ t=0.22
-9.202097906030396
% es.tEy (V/m) @ t=0.22
0
% es.tEz (V/m) @ t=0.22
8.850324373542747
% V (V) @ t=0.22
0.006115389239324849
% es.normE (V/m) @ t=0.24
19.663558002930316
% es.EX (V/m) @ t=0.24
-9.286263424264334
% es.EY (V/m) @ t=0.24
7.450457937112105
% es.EZ (V/m) @ t=0.24
8.931272987193996
% es.tEX (V/m) @ t=0.24
-9.286263424264341
% es.tEY (V/m) @ t=0.24
0
% es.tEZ (V/m) @ t=0.24
8.931272987194006
% es.Ex (V/m) @ t=0.24
-9.286263424264334
% es.Ey (V/m) @ t=0.24
7.450457937112105
% es.Ez (V/m) @ t=0.24
8.931272987193996
% es.tEx (V/m) @ t=0.24
-9.286263424264341
% es.tEy (V/m) @ t=0.24
0
% es.tEz (V/m) @ t=0.24
8.931272987194006
% V (V) @ t=0.24
0.006171322811836442
% es.normE (V/m) @ t=0.26
19.84177802472837
% es.EX (V/m) @ t=0.26
-9.370428942498243
% es.EY (V/m) @ t=0.26
7.517984859503564
% es.EZ (V/m) @ t=0.26
9.01222160084522
% es.tEX (V/m) @ t=0.26
-9.370428942498243
% es.tEY (V/m) @ t=0.26
0
% es.tEZ (V/m) @ t=0.26
9.012221600845237
% es.Ex (V/m) @ t=0.26
-9.370428942498243
% es.Ey (V/m) @ t=0.26
7.517984859503564
% es.Ez (V/m) @ t=0.26
9.01222160084522
% es.tEx (V/m) @ t=0.26
-9.370428942498243
% es.tEy (V/m) @ t=0.26
0
% es.tEz (V/m) @ t=0.26
9.012221600845237
% V (V) @ t=0.26
0.006227256384348035
% es.normE (V/m) @ t=0.28
20.02749407758111
% es.EX (V/m) @ t=0.28
-9.45812563045041
% es.EY (V/m) @ t=0.28
7.588349608219769
% es.EZ (V/m) @ t=0.28
9.096586918758238
% es.tEX (V/m) @ t=0.28
-9.458125630450397
% es.tEY (V/m) @ t=0.28
0
% es.tEZ (V/m) @ t=0.28
9.09658691875822
% es.Ex (V/m) @ t=0.28
-9.45812563045041
% es.Ey (V/m) @ t=0.28
7.588349608219769
% es.Ez (V/m) @ t=0.28
9.096586918758238
% es.tEx (V/m) @ t=0.28
-9.458125630450397
% es.tEy (V/m) @ t=0.28
0
% es.tEz (V/m) @ t=0.28
9.09658691875822
% V (V) @ t=0.28
0.006285542083632614
% es.normE (V/m) @ t=0.3
20.226217847139775
% es.EX (V/m) @ t=0.3
-9.551949888416935
% es.EY (V/m) @ t=0.3
7.663638781668087
% es.EZ (V/m) @ t=0.3
9.186881177009166
% es.tEX (V/m) @ t=0.3
-9.551949888416928
% es.tEY (V/m) @ t=0.3
0
% es.tEZ (V/m) @ t=0.3
9.186881177009155
% es.Ex (V/m) @ t=0.3
-9.551949888416935
% es.Ey (V/m) @ t=0.3
7.663638781668087
% es.Ez (V/m) @ t=0.3
9.186881177009166
% es.tEx (V/m) @ t=0.3
-9.551949888416928
% es.tEy (V/m) @ t=0.3
0
% es.tEz (V/m) @ t=0.3
9.186881177009155
% V (V) @ t=0.3
0.006347909382679969
% es.normE (V/m) @ t=0.32
20.4249416167867
% es.EX (V/m) @ t=0.32
-9.645774146383445
% es.EY (V/m) @ t=0.32
7.738927955116431
% es.EZ (V/m) @ t=0.32
9.277175435260112
% es.tEX (V/m) @ t=0.32
-9.64577414638347
% es.tEY (V/m) @ t=0.32
0
% es.tEZ (V/m) @ t=0.32
9.27717543526012
% es.Ex (V/m) @ t=0.32
-9.645774146383445
% es.Ey (V/m) @ t=0.32
7.738927955116431
% es.Ez (V/m) @ t=0.32
9.277175435260112
% es.tEx (V/m) @ t=0.32
-9.64577414638347
% es.tEy (V/m) @ t=0.32
0
% es.tEz (V/m) @ t=0.32
9.27717543526012
% V (V) @ t=0.32
0.006410276681727323
% es.normE (V/m) @ t=0.34
20.62366538651935
% es.EX (V/m) @ t=0.34
-9.739598404350012
% es.EY (V/m) @ t=0.34
7.814217128564735
% es.EZ (V/m) @ t=0.34
9.367469693511083
% es.tEX (V/m) @ t=0.34
-9.739598404350012
% es.tEY (V/m) @ t=0.34
0
% es.tEZ (V/m) @ t=0.34
9.367469693511083
% es.Ex (V/m) @ t=0.34
-9.739598404350012
% es.Ey (V/m) @ t=0.34
7.814217128564735
% es.Ez (V/m) @ t=0.34
9.367469693511083
% es.tEx (V/m) @ t=0.34
-9.739598404350012
% es.tEy (V/m) @ t=0.34
0
% es.tEz (V/m) @ t=0.34
9.367469693511083
% V (V) @ t=0.34
0.006472643980774679
% es.normE (V/m) @ t=0.36
20.82238915633529
% es.EX (V/m) @ t=0.36
-9.833422662316572
% es.EY (V/m) @ t=0.36
7.889506302013082
% es.EZ (V/m) @ t=0.36
9.457763951762043
% es.tEX (V/m) @ t=0.36
-9.833422662316565
% es.tEY (V/m) @ t=0.36
0
% es.tEZ (V/m) @ t=0.36
9.457763951762018
% es.Ex (V/m) @ t=0.36
-9.833422662316572
% es.Ey (V/m) @ t=0.36
7.889506302013082
% es.Ez (V/m) @ t=0.36
9.457763951762043
% es.tEx (V/m) @ t=0.36
-9.833422662316565
% es.tEy (V/m) @ t=0.36
0
% es.tEz (V/m) @ t=0.36
9.457763951762018
% V (V) @ t=0.36
0.006535011279822032
% es.normE (V/m) @ t=0.38
21.02111292623203
% es.EX (V/m) @ t=0.38
-9.927246920283118
% es.EY (V/m) @ t=0.38
7.964795475461397
% es.EZ (V/m) @ t=0.38
9.548058210012986
% es.tEX (V/m) @ t=0.38
-9.927246920283103
% es.tEY (V/m) @ t=0.38
0
% es.tEZ (V/m) @ t=0.38
9.54805821001301
% es.Ex (V/m) @ t=0.38
-9.927246920283118
% es.Ey (V/m) @ t=0.38
7.964795475461397
% es.Ez (V/m) @ t=0.38
9.548058210012986
% es.tEx (V/m) @ t=0.38
-9.927246920283103
% es.tEy (V/m) @ t=0.38
0
% es.tEz (V/m) @ t=0.38
9.54805821001301
% V (V) @ t=0.38
0.006597378578869387
% es.normE (V/m) @ t=0.4
21.219836696207445
% es.EX (V/m) @ t=0.4
-10.021071178249635
% es.EY (V/m) @ t=0.4
8.040084648909751
% es.EZ (V/m) @ t=0.4
9.63835246826396
% es.tEX (V/m) @ t=0.4
-10.02107117824966
% es.tEY (V/m) @ t=0.4
0
% es.tEZ (V/m) @ t=0.4
9.638352468263946
% es.Ex (V/m) @ t=0.4
-10.021071178249635
% es.Ey (V/m) @ t=0.4
8.040084648909751
% es.Ez (V/m) @ t=0.4
9.63835246826396
% es.tEx (V/m) @ t=0.4
-10.02107117824966
% es.tEy (V/m) @ t=0.4
0
% es.tEz (V/m) @ t=0.4
9.638352468263946
% V (V) @ t=0.4
0.006659745877916742
% es.normE (V/m) @ t=0.42
21.41856046625932
% es.EX (V/m) @ t=0.42
-10.11489543621623
% es.EY (V/m) @ t=0.42
8.115373822358073
% es.EZ (V/m) @ t=0.42
9.728646726514945
% es.tEX (V/m) @ t=0.42
-10.114895436216223
% es.tEY (V/m) @ t=0.42
0
% es.tEZ (V/m) @ t=0.42
9.728646726514967
% es.Ex (V/m) @ t=0.42
-10.11489543621623
% es.Ey (V/m) @ t=0.42
8.115373822358073
% es.Ez (V/m) @ t=0.42
9.728646726514945
% es.tEx (V/m) @ t=0.42
-10.114895436216223
% es.tEy (V/m) @ t=0.42
0
% es.tEz (V/m) @ t=0.42
9.728646726514967
% V (V) @ t=0.42
0.006722113176964096
% es.normE (V/m) @ t=0.44
21.617284236385412
% es.EX (V/m) @ t=0.44
-10.208719694182747
% es.EY (V/m) @ t=0.44
8.190662995806399
% es.EZ (V/m) @ t=0.44
9.818940984765877
% es.tEX (V/m) @ t=0.44
-10.208719694182772
% es.tEY (V/m) @ t=0.44
0
% es.tEZ (V/m) @ t=0.44
9.818940984765902
% es.Ex (V/m) @ t=0.44
-10.208719694182747
% es.Ey (V/m) @ t=0.44
8.190662995806399
% es.Ez (V/m) @ t=0.44
9.818940984765877
% es.tEx (V/m) @ t=0.44
-10.208719694182772
% es.tEy (V/m) @ t=0.44
0
% es.tEz (V/m) @ t=0.44
9.818940984765902
% V (V) @ t=0.44
0.006784480476011451
% es.normE (V/m) @ t=0.46
21.816008006583782
% es.EX (V/m) @ t=0.46
-10.302543952149307
% es.EY (V/m) @ t=0.46
8.265952169254675
% es.EZ (V/m) @ t=0.46
9.909235243016777
% es.tEX (V/m) @ t=0.46
-10.3025439521493
% es.tEY (V/m) @ t=0.46
0
% es.tEZ (V/m) @ t=0.46
9.90923524301678
% es.Ex (V/m) @ t=0.46
-10.302543952149307
% es.Ey (V/m) @ t=0.46
8.265952169254675
% es.Ez (V/m) @ t=0.46
9.909235243016777
% es.tEx (V/m) @ t=0.46
-10.3025439521493
% es.tEy (V/m) @ t=0.46
0
% es.tEz (V/m) @ t=0.46
9.90923524301678
% V (V) @ t=0.46
0.006846847775058805
% es.normE (V/m) @ t=0.48
22.014731776852585
% es.EX (V/m) @ t=0.48
-10.396368210115874
% es.EY (V/m) @ t=0.48
8.341241342703029
% es.EZ (V/m) @ t=0.48
9.999529501267777
% es.tEX (V/m) @ t=0.48
-10.396368210115856
% es.tEY (V/m) @ t=0.48
0
% es.tEZ (V/m) @ t=0.48
9.999529501267801
% es.Ex (V/m) @ t=0.48
-10.396368210115874
% es.Ey (V/m) @ t=0.48
8.341241342703029
% es.Ez (V/m) @ t=0.48
9.999529501267777
% es.tEx (V/m) @ t=0.48
-10.396368210115856
% es.tEy (V/m) @ t=0.48
0
% es.tEz (V/m) @ t=0.48
9.999529501267801
% V (V) @ t=0.48
0.00690921507410616
% es.normE (V/m) @ t=0.5
22.21345554718983
% es.EX (V/m) @ t=0.5
-10.490192468082427
% es.EY (V/m) @ t=0.5
8.416530516151376
% es.EZ (V/m) @ t=0.5
10.089823759518762
% es.tEX (V/m) @ t=0.5
-10.490192468082427
% es.tEY (V/m) @ t=0.5
0
% es.tEZ (V/m) @ t=0.5
10.089823759518737
% es.Ex (V/m) @ t=0.5
-10.490192468082427
% es.Ey (V/m) @ t=0.5
8.416530516151376
% es.Ez (V/m) @ t=0.5
10.089823759518762
% es.tEx (V/m) @ t=0.5
-10.490192468082427
% es.tEy (V/m) @ t=0.5
0
% es.tEz (V/m) @ t=0.5
10.089823759518737
% V (V) @ t=0.5
0.0069715823731535155
% es.normE (V/m) @ t=0.52
22.41217931759361
% es.EX (V/m) @ t=0.52
-10.584016726048972
% es.EY (V/m) @ t=0.52
8.491819689599662
% es.EZ (V/m) @ t=0.52
10.180118017769693
% es.tEX (V/m) @ t=0.52
-10.584016726048969
% es.tEY (V/m) @ t=0.52
0
% es.tEZ (V/m) @ t=0.52
10.1801180177697
% es.Ex (V/m) @ t=0.52
-10.584016726048972
% es.Ey (V/m) @ t=0.52
8.491819689599662
% es.Ez (V/m) @ t=0.52
10.180118017769693
% es.tEx (V/m) @ t=0.52
-10.584016726048969
% es.tEy (V/m) @ t=0.52
0
% es.tEz (V/m) @ t=0.52
10.1801180177697
% V (V) @ t=0.52
0.00703394967220087
% es.normE (V/m) @ t=0.54
22.61090308806231
% es.EX (V/m) @ t=0.54
-10.67784098401551
% es.EY (V/m) @ t=0.54
8.567108863048002
% es.EZ (V/m) @ t=0.54
10.270412276020682
% es.tEX (V/m) @ t=0.54
-10.677840984015496
% es.tEY (V/m) @ t=0.54
0
% es.tEZ (V/m) @ t=0.54
10.270412276020693
% es.Ex (V/m) @ t=0.54
-10.67784098401551
% es.Ey (V/m) @ t=0.54
8.567108863048002
% es.Ez (V/m) @ t=0.54
10.270412276020682
% es.tEx (V/m) @ t=0.54
-10.677840984015496
% es.tEy (V/m) @ t=0.54
0
% es.tEz (V/m) @ t=0.54
10.270412276020693
% V (V) @ t=0.54
0.007096316971248225
% es.normE (V/m) @ t=0.56
22.826494846759314
% es.EX (V/m) @ t=0.56
-10.779668388751112
% es.EY (V/m) @ t=0.56
8.648799265373508
% es.EZ (V/m) @ t=0.56
10.368318045280667
% es.tEX (V/m) @ t=0.56
-10.779668388751105
% es.tEY (V/m) @ t=0.56
0
% es.tEZ (V/m) @ t=0.56
10.36831804528066
% es.Ex (V/m) @ t=0.56
-10.779668388751112
% es.Ey (V/m) @ t=0.56
8.648799265373508
% es.Ez (V/m) @ t=0.56
10.368318045280667
% es.tEx (V/m) @ t=0.56
-10.779668388751105
% es.tEy (V/m) @ t=0.56
0
% es.tEz (V/m) @ t=0.56
10.36831804528066
% V (V) @ t=0.56
0.007163980179570774
% es.normE (V/m) @ t=0.58
23.04797735834687
% es.EX (V/m) @ t=0.58
-10.884290706470907
% es.EY (V/m) @ t=0.58
8.732725148094385
% es.EZ (V/m) @ t=0.58
10.46888195783885
% es.tEX (V/m) @ t=0.58
-10.884290706470892
% es.tEY (V/m) @ t=0.58
0
% es.tEZ (V/m) @ t=0.58
10.468881957838875
% es.Ex (V/m) @ t=0.58
-10.884290706470907
% es.Ey (V/m) @ t=0.58
8.732725148094385
% es.Ez (V/m) @ t=0.58
10.46888195783885
% es.tEx (V/m) @ t=0.58
-10.884290706470892
% es.tEy (V/m) @ t=0.58
0
% es.tEz (V/m) @ t=0.58
10.468881957838875
% V (V) @ t=0.58
0.007233492861109742
% es.normE (V/m) @ t=0.6
23.269459870040407
% es.EX (V/m) @ t=0.6
-10.988913024190673
% es.EY (V/m) @ t=0.6
8.816651030815283
% es.EZ (V/m) @ t=0.6
10.56944587039698
% es.tEX (V/m) @ t=0.6
-10.988913024190673
% es.tEY (V/m) @ t=0.6
0
% es.tEZ (V/m) @ t=0.6
10.569445870396976
% es.Ex (V/m) @ t=0.6
-10.988913024190673
% es.Ey (V/m) @ t=0.6
8.816651030815283
% es.Ez (V/m) @ t=0.6
10.56944587039698
% es.tEx (V/m) @ t=0.6
-10.988913024190673
% es.tEy (V/m) @ t=0.6
0
% es.tEz (V/m) @ t=0.6
10.569445870396976
% V (V) @ t=0.6
0.007303005542648713
% es.normE (V/m) @ t=0.62
23.490942381837
% es.EX (V/m) @ t=0.62
-11.093535341910489
% es.EY (V/m) @ t=0.62
8.900576913536195
% es.EZ (V/m) @ t=0.62
10.670009782955141
% es.tEX (V/m) @ t=0.62
-11.093535341910478
% es.tEY (V/m) @ t=0.62
0
% es.tEZ (V/m) @ t=0.62
10.670009782955134
% es.Ex (V/m) @ t=0.62
-11.093535341910489
% es.Ey (V/m) @ t=0.62
8.900576913536195
% es.Ez (V/m) @ t=0.62
10.670009782955141
% es.tEx (V/m) @ t=0.62
-11.093535341910478
% es.tEy (V/m) @ t=0.62
0
% es.tEz (V/m) @ t=0.62
10.670009782955134
% V (V) @ t=0.62
0.007372518224187682
% es.normE (V/m) @ t=0.64
23.712424893733747
% es.EX (V/m) @ t=0.64
-11.198157659630283
% es.EY (V/m) @ t=0.64
8.984502796257082
% es.EZ (V/m) @ t=0.64
10.770573695513349
% es.tEX (V/m) @ t=0.64
-11.198157659630269
% es.tEY (V/m) @ t=0.64
0
% es.tEZ (V/m) @ t=0.64
10.770573695513349
% es.Ex (V/m) @ t=0.64
-11.198157659630283
% es.Ey (V/m) @ t=0.64
8.984502796257082
% es.Ez (V/m) @ t=0.64
10.770573695513349
% es.tEx (V/m) @ t=0.64
-11.198157659630269
% es.tEy (V/m) @ t=0.64
0
% es.tEz (V/m) @ t=0.64
10.770573695513349
% V (V) @ t=0.64
0.0074420309057266504
% es.normE (V/m) @ t=0.66
23.93390740572781
% es.EX (V/m) @ t=0.66
-11.302779977350049
% es.EY (V/m) @ t=0.66
9.068428678977952
% es.EZ (V/m) @ t=0.66
10.871137608071539
% es.tEX (V/m) @ t=0.66
-11.302779977350085
% es.tEY (V/m) @ t=0.66
0
% es.tEZ (V/m) @ t=0.66
10.871137608071564
% es.Ex (V/m) @ t=0.66
-11.302779977350049
% es.Ey (V/m) @ t=0.66
9.068428678977952
% es.Ez (V/m) @ t=0.66
10.871137608071539
% es.tEx (V/m) @ t=0.66
-11.302779977350085
% es.tEy (V/m) @ t=0.66
0
% es.tEz (V/m) @ t=0.66
10.871137608071564
% V (V) @ t=0.66
0.007511543587265619
% es.normE (V/m) @ t=0.68
24.15538991781657
% es.EX (V/m) @ t=0.68
-11.407402295069858
% es.EY (V/m) @ t=0.68
9.152354561698875
% es.EZ (V/m) @ t=0.68
10.971701520629715
% es.tEX (V/m) @ t=0.68
-11.407402295069843
% es.tEY (V/m) @ t=0.68
0
% es.tEZ (V/m) @ t=0.68
10.971701520629722
% es.Ex (V/m) @ t=0.68
-11.407402295069858
% es.Ey (V/m) @ t=0.68
9.152354561698875
% es.Ez (V/m) @ t=0.68
10.971701520629715
% es.tEx (V/m) @ t=0.68
-11.407402295069843
% es.tEy (V/m) @ t=0.68
0
% es.tEz (V/m) @ t=0.68
10.971701520629722
% V (V) @ t=0.68
0.007581056268804589
% es.normE (V/m) @ t=0.7
24.37687242999739
% es.EX (V/m) @ t=0.7
-11.51202461278963
% es.EY (V/m) @ t=0.7
9.236280444419766
% es.EZ (V/m) @ t=0.7
11.07226543318789
% es.tEX (V/m) @ t=0.7
-11.51202461278962
% es.tEY (V/m) @ t=0.7
0
% es.tEZ (V/m) @ t=0.7
11.07226543318788
% es.Ex (V/m) @ t=0.7
-11.51202461278963
% es.Ey (V/m) @ t=0.7
9.236280444419766
% es.Ez (V/m) @ t=0.7
11.07226543318789
% es.tEx (V/m) @ t=0.7
-11.51202461278962
% es.tEy (V/m) @ t=0.7
0
% es.tEz (V/m) @ t=0.7
11.07226543318788
% V (V) @ t=0.7
0.007650568950343559
% es.normE (V/m) @ t=0.72
24.598354942267825
% es.EX (V/m) @ t=0.72
-11.616646930509404
% es.EY (V/m) @ t=0.72
9.320206327140614
% es.EZ (V/m) @ t=0.72
11.172829345746038
% es.tEX (V/m) @ t=0.72
-11.616646930509418
% es.tEY (V/m) @ t=0.72
0
% es.tEZ (V/m) @ t=0.72
11.172829345746038
% es.Ex (V/m) @ t=0.72
-11.616646930509404
% es.Ey (V/m) @ t=0.72
9.320206327140614
% es.Ez (V/m) @ t=0.72
11.172829345746038
% es.tEx (V/m) @ t=0.72
-11.616646930509418
% es.tEy (V/m) @ t=0.72
0
% es.tEz (V/m) @ t=0.72
11.172829345746038
% V (V) @ t=0.72
0.007720081631882527
% es.normE (V/m) @ t=0.74
24.81983745462547
% es.EX (V/m) @ t=0.74
-11.721269248229213
% es.EY (V/m) @ t=0.74
9.404132209861508
% es.EZ (V/m) @ t=0.74
11.273393258304228
% es.tEX (V/m) @ t=0.74
-11.721269248229213
% es.tEY (V/m) @ t=0.74
0
% es.tEZ (V/m) @ t=0.74
11.273393258304225
% es.Ex (V/m) @ t=0.74
-11.721269248229213
% es.Ey (V/m) @ t=0.74
9.404132209861508
% es.Ez (V/m) @ t=0.74
11.273393258304228
% es.tEx (V/m) @ t=0.74
-11.721269248229213
% es.tEy (V/m) @ t=0.74
0
% es.tEz (V/m) @ t=0.74
11.273393258304225
% V (V) @ t=0.74
0.007789594313421497
% es.normE (V/m) @ t=0.76
25.041319967068006
% es.EX (V/m) @ t=0.76
-11.825891565948986
% es.EY (V/m) @ t=0.76
9.488058092582428
% es.EZ (V/m) @ t=0.76
11.373957170862408
% es.tEX (V/m) @ t=0.76
-11.825891565948993
% es.tEY (V/m) @ t=0.76
0
% es.tEZ (V/m) @ t=0.76
11.373957170862383
% es.Ex (V/m) @ t=0.76
-11.825891565948986
% es.Ey (V/m) @ t=0.76
9.488058092582428
% es.Ez (V/m) @ t=0.76
11.373957170862408
% es.tEx (V/m) @ t=0.76
-11.825891565948993
% es.tEy (V/m) @ t=0.76
0
% es.tEz (V/m) @ t=0.76
11.373957170862383
% V (V) @ t=0.76
0.007859106994960466
% es.normE (V/m) @ t=0.78
25.262802479593198
% es.EX (V/m) @ t=0.78
-11.930513883668773
% es.EY (V/m) @ t=0.78
9.571983975303336
% es.EZ (V/m) @ t=0.78
11.474521083420573
% es.tEX (V/m) @ t=0.78
-11.930513883668773
% es.tEY (V/m) @ t=0.78
0
% es.tEZ (V/m) @ t=0.78
11.474521083420598
% es.Ex (V/m) @ t=0.78
-11.930513883668773
% es.Ey (V/m) @ t=0.78
9.571983975303336
% es.Ez (V/m) @ t=0.78
11.474521083420573
% es.tEx (V/m) @ t=0.78
-11.930513883668773
% es.tEy (V/m) @ t=0.78
0
% es.tEz (V/m) @ t=0.78
11.474521083420598
% V (V) @ t=0.78
0.007928619676499434
% es.normE (V/m) @ t=0.8
25.48428499219895
% es.EX (V/m) @ t=0.8
-12.035136201388596
% es.EY (V/m) @ t=0.8
9.655909858024216
% es.EZ (V/m) @ t=0.8
11.575084995978774
% es.tEX (V/m) @ t=0.8
-12.035136201388585
% es.tEY (V/m) @ t=0.8
0
% es.tEZ (V/m) @ t=0.8
11.575084995978784
% es.Ex (V/m) @ t=0.8
-12.035136201388596
% es.Ey (V/m) @ t=0.8
9.655909858024216
% es.Ez (V/m) @ t=0.8
11.575084995978774
% es.tEx (V/m) @ t=0.8
-12.035136201388585
% es.tEy (V/m) @ t=0.8
0
% es.tEz (V/m) @ t=0.8
11.575084995978784
% V (V) @ t=0.8
0.007998132358038403
% es.normE (V/m) @ t=0.82
25.708852957018898
% es.EX (V/m) @ t=0.82
-12.141211471338792
% es.EY (V/m) @ t=0.82
9.74100368299817
% es.EZ (V/m) @ t=0.82
11.677055960556658
% es.tEX (V/m) @ t=0.82
-12.141211471338785
% es.tEY (V/m) @ t=0.82
0
% es.tEZ (V/m) @ t=0.82
11.677055960556686
% es.Ex (V/m) @ t=0.82
-12.141211471338792
% es.Ey (V/m) @ t=0.82
9.74100368299817
% es.Ez (V/m) @ t=0.82
11.677055960556658
% es.tEx (V/m) @ t=0.82
-12.141211471338785
% es.tEy (V/m) @ t=0.82
0
% es.tEz (V/m) @ t=0.82
11.677055960556686
% V (V) @ t=0.82
0.008068613174483742
% es.normE (V/m) @ t=0.84
25.95676619924835
% es.EX (V/m) @ t=0.84
-12.258280129398344
% es.EY (V/m) @ t=0.84
9.834934441635852
% es.EZ (V/m) @ t=0.84
11.78967302114463
% es.tEX (V/m) @ t=0.84
-12.258280129398344
% es.tEY (V/m) @ t=0.84
0
% es.tEZ (V/m) @ t=0.84
11.789673021144637
% es.Ex (V/m) @ t=0.84
-12.258280129398344
% es.Ey (V/m) @ t=0.84
9.834934441635852
% es.Ez (V/m) @ t=0.84
11.78967302114463
% es.tEx (V/m) @ t=0.84
-12.258280129398344
% es.tEy (V/m) @ t=0.84
0
% es.tEz (V/m) @ t=0.84
11.789673021144637
% V (V) @ t=0.84
0.008146419133865736
% es.normE (V/m) @ t=0.86
26.204679441490192
% es.EX (V/m) @ t=0.86
-12.375348787457952
% es.EY (V/m) @ t=0.86
9.928865200273513
% es.EZ (V/m) @ t=0.86
11.902290081732595
% es.tEX (V/m) @ t=0.86
-12.375348787457927
% es.tEY (V/m) @ t=0.86
0
% es.tEZ (V/m) @ t=0.86
11.902290081732644
% es.Ex (V/m) @ t=0.86
-12.375348787457952
% es.Ey (V/m) @ t=0.86
9.928865200273513
% es.Ez (V/m) @ t=0.86
11.902290081732595
% es.tEx (V/m) @ t=0.86
-12.375348787457927
% es.tEy (V/m) @ t=0.86
0
% es.tEz (V/m) @ t=0.86
11.902290081732644
% V (V) @ t=0.86
0.008224225093247734
% es.normE (V/m) @ t=0.88
26.452592683744005
% es.EX (V/m) @ t=0.88
-12.49241744551751
% es.EY (V/m) @ t=0.88
10.022795958911189
% es.EZ (V/m) @ t=0.88
12.014907142320595
% es.tEX (V/m) @ t=0.88
-12.492417445517518
% es.tEY (V/m) @ t=0.88
0
% es.tEZ (V/m) @ t=0.88
12.014907142320624
% es.Ex (V/m) @ t=0.88
-12.49241744551751
% es.Ey (V/m) @ t=0.88
10.022795958911189
% es.Ez (V/m) @ t=0.88
12.014907142320595
% es.tEx (V/m) @ t=0.88
-12.492417445517518
% es.tEy (V/m) @ t=0.88
0
% es.tEz (V/m) @ t=0.88
12.014907142320624
% V (V) @ t=0.88
0.00830203105262973
% es.normE (V/m) @ t=0.9
26.70050592600945
% es.EX (V/m) @ t=0.9
-12.60948610357707
% es.EY (V/m) @ t=0.9
10.116726717548868
% es.EZ (V/m) @ t=0.9
12.127524202908567
% es.tEX (V/m) @ t=0.9
-12.609486103577076
% es.tEY (V/m) @ t=0.9
0
% es.tEZ (V/m) @ t=0.9
12.127524202908546
% es.Ex (V/m) @ t=0.9
-12.60948610357707
% es.Ey (V/m) @ t=0.9
10.116726717548868
% es.Ez (V/m) @ t=0.9
12.127524202908567
% es.tEx (V/m) @ t=0.9
-12.609486103577076
% es.tEy (V/m) @ t=0.9
0
% es.tEz (V/m) @ t=0.9
12.127524202908546
% V (V) @ t=0.9
0.008379837012011726
% es.normE (V/m) @ t=0.92
26.94841916828631
% es.EX (V/m) @ t=0.92
-12.726554761636692
% es.EY (V/m) @ t=0.92
10.210657476186526
% es.EZ (V/m) @ t=0.92
12.240141263496575
% es.tEX (V/m) @ t=0.92
-12.726554761636685
% es.tEY (V/m) @ t=0.92
0
% es.tEZ (V/m) @ t=0.92
12.240141263496582
% es.Ex (V/m) @ t=0.92
-12.726554761636692
% es.Ey (V/m) @ t=0.92
10.210657476186526
% es.Ez (V/m) @ t=0.92
12.240141263496575
% es.tEx (V/m) @ t=0.92
-12.726554761636685
% es.tEy (V/m) @ t=0.92
0
% es.tEz (V/m) @ t=0.92
12.240141263496582
% V (V) @ t=0.92
0.008457642971393724
% es.normE (V/m) @ t=0.94
27.196332410574158
% es.EX (V/m) @ t=0.94
-12.843623419696222
% es.EY (V/m) @ t=0.94
10.304588234824248
% es.EZ (V/m) @ t=0.94
12.352758324084547
% es.tEX (V/m) @ t=0.94
-12.843623419696215
% es.tEY (V/m) @ t=0.94
0
% es.tEZ (V/m) @ t=0.94
12.352758324084562
% es.Ex (V/m) @ t=0.94
-12.843623419696222
% es.Ey (V/m) @ t=0.94
10.304588234824248
% es.Ez (V/m) @ t=0.94
12.352758324084547
% es.tEx (V/m) @ t=0.94
-12.843623419696215
% es.tEy (V/m) @ t=0.94
0
% es.tEz (V/m) @ t=0.94
12.352758324084562
% V (V) @ t=0.94
0.00853544893077572
% es.normE (V/m) @ t=0.96
27.444245652872702
% es.EX (V/m) @ t=0.96
-12.960692077755795
% es.EY (V/m) @ t=0.96
10.398518993461934
% es.EZ (V/m) @ t=0.96
12.46537538467252
% es.tEX (V/m) @ t=0.96
-12.960692077755802
% es.tEY (V/m) @ t=0.96
0
% es.tEZ (V/m) @ t=0.96
12.465375384672512
% es.Ex (V/m) @ t=0.96
-12.960692077755795
% es.Ey (V/m) @ t=0.96
10.398518993461934
% es.Ez (V/m) @ t=0.96
12.46537538467252
% es.tEx (V/m) @ t=0.96
-12.960692077755802
% es.tEy (V/m) @ t=0.96
0
% es.tEz (V/m) @ t=0.96
12.465375384672512
% V (V) @ t=0.96
0.008613254890157714
% es.normE (V/m) @ t=0.98
27.692158895181706
% es.EX (V/m) @ t=0.98
-13.077760735815403
% es.EY (V/m) @ t=0.98
10.4924497520996
% es.EZ (V/m) @ t=0.98
12.57799244526047
% es.tEX (V/m) @ t=0.98
-13.077760735815382
% es.tEY (V/m) @ t=0.98
0
% es.tEZ (V/m) @ t=0.98
12.577992445260463
% es.Ex (V/m) @ t=0.98
-13.077760735815403
% es.Ey (V/m) @ t=0.98
10.4924497520996
% es.Ez (V/m) @ t=0.98
12.57799244526047
% es.tEx (V/m) @ t=0.98
-13.077760735815382
% es.tEy (V/m) @ t=0.98
0
% es.tEz (V/m) @ t=0.98
12.577992445260463
% V (V) @ t=0.98
0.008691060849539713
% es.normE (V/m) @ t=1
27.94007213750086
% es.EX (V/m) @ t=1
-13.194829393874947
% es.EY (V/m) @ t=1
10.586380510737243
% es.EZ (V/m) @ t=1
12.690609505848442
% es.tEX (V/m) @ t=1
-13.194829393874954
% es.tEY (V/m) @ t=1
0
% es.tEZ (V/m) @ t=1
12.690609505848442
% es.Ex (V/m) @ t=1
-13.194829393874947
% es.Ey (V/m) @ t=1
10.586380510737243
% es.Ez (V/m) @ t=1
12.690609505848442
% es.tEx (V/m) @ t=1
-13.194829393874954
% es.tEy (V/m) @ t=1
0
% es.tEz (V/m) @ t=1
12.690609505848442
% V (V) @ t=1
0.00876886680892171
% es.normE (V/m) @ t=1.02
28.187985379829936
% es.EX (V/m) @ t=1.02
-13.311898051934527
% es.EY (V/m) @ t=1.02
10.680311269374954
% es.EZ (V/m) @ t=1.02
12.803226566436365
% es.tEX (V/m) @ t=1.02
-13.311898051934534
% es.tEY (V/m) @ t=1.02
0
% es.tEZ (V/m) @ t=1.02
12.803226566436365
% es.Ex (V/m) @ t=1.02
-13.311898051934527
% es.Ey (V/m) @ t=1.02
10.680311269374954
% es.Ez (V/m) @ t=1.02
12.803226566436365
% es.tEx (V/m) @ t=1.02
-13.311898051934534
% es.tEy (V/m) @ t=1.02
0
% es.tEz (V/m) @ t=1.02
12.803226566436365
% V (V) @ t=1.02
0.008846672768303705
% es.normE (V/m) @ t=1.04
28.43589862216867
% es.EX (V/m) @ t=1.04
-13.428966709994128
% es.EY (V/m) @ t=1.04
10.774242028012619
% es.EZ (V/m) @ t=1.04
12.915843627024394
% es.tEX (V/m) @ t=1.04
-13.428966709994093
% es.tEY (V/m) @ t=1.04
0
% es.tEZ (V/m) @ t=1.04
12.915843627024401
% es.Ex (V/m) @ t=1.04
-13.428966709994128
% es.Ey (V/m) @ t=1.04
10.774242028012619
% es.Ez (V/m) @ t=1.04
12.915843627024394
% es.tEx (V/m) @ t=1.04
-13.428966709994093
% es.tEy (V/m) @ t=1.04
0
% es.tEz (V/m) @ t=1.04
12.915843627024401
% V (V) @ t=1.04
0.008924478727685701