% Model:              1 neuron.mph
% Version:            COMSOL 6.1.0.252
% Date:               Mar 18 2023, 12:51
% Dimension:          0
% Nodes:              14017
% Expressions:        14017
% Description:        Electric field norm, Electric field, X component, Electric field, Y component, Electric field, Z component, Tangential electric field, X component, Tangential electric field, Y component, Tangential electric field, Z component, Electric field, x component, Electric field, y component, Electric field, z component, Tangential electric field, x component, Tangential electric field, y component, Tangential electric field, z component, Electric potential
% Length unit:        mm
% x
1.0000000000000002
% y
12.2
% z
2
% es.normE (V/m) @ t=0
0.7018140303826574
% es.EX (V/m) @ t=0
0.48748404435925774
% es.EY (V/m) @ t=0
0.07299502706957597
% es.EZ (V/m) @ t=0
-0.48677582606586056
% es.tEX (V/m) @ t=0
0.4874840443592596
% es.tEY (V/m) @ t=0
0
% es.tEZ (V/m) @ t=0
-0.48677582606585146
% es.Ex (V/m) @ t=0
0.48748404435925774
% es.Ey (V/m) @ t=0
0.07299502706957597
% es.Ez (V/m) @ t=0
-0.48677582606586056
% es.tEx (V/m) @ t=0
0.4874840443592596
% es.tEy (V/m) @ t=0
0
% es.tEz (V/m) @ t=0
-0.48677582606585146
% V (V) @ t=0
0.0075155237684338995
% es.normE (V/m) @ t=0.02
0.6061640197954745
% es.EX (V/m) @ t=0.02
0.42104499907947035
% es.EY (V/m) @ t=0.02
0.06304656026059083
% es.EZ (V/m) @ t=0.02
-0.42043330319051564
% es.tEX (V/m) @ t=0.02
0.42104499907947135
% es.tEY (V/m) @ t=0.02
0
% es.tEZ (V/m) @ t=0.02
-0.4204333031905101
% es.Ex (V/m) @ t=0.02
0.42104499907947035
% es.Ey (V/m) @ t=0.02
0.06304656026059083
% es.Ez (V/m) @ t=0.02
-0.42043330319051564
% es.tEx (V/m) @ t=0.02
0.42104499907947135
% es.tEy (V/m) @ t=0.02
0
% es.tEz (V/m) @ t=0.02
-0.4204333031905101
% V (V) @ t=0.02
0.006491235351531838
% es.normE (V/m) @ t=0.04
0.6117392488655942
% es.EX (V/m) @ t=0.04
0.4249175848926403
% es.EY (V/m) @ t=0.04
0.06362643699482334
% es.EZ (V/m) @ t=0.04
-0.4243002624589203
% es.tEX (V/m) @ t=0.04
0.4249175848926401
% es.tEY (V/m) @ t=0.04
0
% es.tEZ (V/m) @ t=0.04
-0.42430026245891295
% es.Ex (V/m) @ t=0.04
0.4249175848926403
% es.Ey (V/m) @ t=0.04
0.06362643699482334
% es.Ez (V/m) @ t=0.04
-0.4243002624589203
% es.tEx (V/m) @ t=0.04
0.4249175848926401
% es.tEy (V/m) @ t=0.04
0
% es.tEz (V/m) @ t=0.04
-0.42430026245891295
% V (V) @ t=0.04
0.006550938790991974
% es.normE (V/m) @ t=0.06
0.6173665424950465
% es.EX (V/m) @ t=0.06
0.42882633539358317
% es.EY (V/m) @ t=0.06
0.06421172529407412
% es.EZ (V/m) @ t=0.06
-0.42820333457105875
% es.tEX (V/m) @ t=0.06
0.4288263353935857
% es.tEY (V/m) @ t=0.06
0
% es.tEZ (V/m) @ t=0.06
-0.42820333457105164
% es.Ex (V/m) @ t=0.06
0.42882633539358317
% es.Ey (V/m) @ t=0.06
0.06421172529407412
% es.Ez (V/m) @ t=0.06
-0.42820333457105875
% es.tEx (V/m) @ t=0.06
0.4288263353935857
% es.tEy (V/m) @ t=0.06
0
% es.tEz (V/m) @ t=0.06
-0.42820333457105164
% V (V) @ t=0.06
0.006611199899202954
% es.normE (V/m) @ t=0.08
0.6230754597386818
% es.EX (V/m) @ t=0.08
0.43279178191330303
% es.EY (V/m) @ t=0.08
0.0648055054361773
% es.EZ (V/m) @ t=0.08
-0.43216301989225525
% es.tEX (V/m) @ t=0.08
0.4327917819133018
% es.tEY (V/m) @ t=0.08
0
% es.tEZ (V/m) @ t=0.08
-0.4321630198922479
% es.Ex (V/m) @ t=0.08
0.43279178191330303
% es.Ey (V/m) @ t=0.08
0.0648055054361773
% es.Ez (V/m) @ t=0.08
-0.43216301989225525
% es.tEx (V/m) @ t=0.08
0.4327917819133018
% es.tEy (V/m) @ t=0.08
0
% es.tEz (V/m) @ t=0.08
-0.4321630198922479
% V (V) @ t=0.08
0.006672335012530698
% es.normE (V/m) @ t=0.1
0.6288498928259552
% es.EX (V/m) @ t=0.1
0.4368027359437804
% es.EY (V/m) @ t=0.1
0.06540610162353616
% es.EZ (V/m) @ t=0.1
-0.4361681462563445
% es.tEX (V/m) @ t=0.1
0.43680273594378094
% es.tEY (V/m) @ t=0.1
0
% es.tEZ (V/m) @ t=0.1
-0.43616814625633715
% es.Ex (V/m) @ t=0.1
0.4368027359437804
% es.Ey (V/m) @ t=0.1
0.06540610162353616
% es.Ez (V/m) @ t=0.1
-0.4361681462563445
% es.tEx (V/m) @ t=0.1
0.43680273594378094
% es.tEy (V/m) @ t=0.1
0
% es.tEz (V/m) @ t=0.1
-0.43616814625633715
% V (V) @ t=0.1
0.006734171653022316
% es.normE (V/m) @ t=0.12
0.6346243259132265
% es.EX (V/m) @ t=0.12
0.44081368997425774
% es.EY (V/m) @ t=0.12
0.06600669781090185
% es.EZ (V/m) @ t=0.12
-0.4401732726204324
% es.tEX (V/m) @ t=0.12
0.4408136899742565
% es.tEY (V/m) @ t=0.12
0
% es.tEZ (V/m) @ t=0.12
-0.4401732726204268
% es.Ex (V/m) @ t=0.12
0.44081368997425774
% es.Ey (V/m) @ t=0.12
0.06600669781090185
% es.Ez (V/m) @ t=0.12
-0.4401732726204324
% es.tEx (V/m) @ t=0.12
0.4408136899742565
% es.tEy (V/m) @ t=0.12
0
% es.tEz (V/m) @ t=0.12
-0.4401732726204268
% V (V) @ t=0.12
0.006796008293513931
% es.normE (V/m) @ t=0.14
0.6404360000726219
% es.EX (V/m) @ t=0.14
0.4448505120422701
% es.EY (V/m) @ t=0.14
0.06661116554039406
% es.EZ (V/m) @ t=0.14
-0.44420422980768226
% es.tEX (V/m) @ t=0.14
0.44485051204227255
% es.tEY (V/m) @ t=0.14
0
% es.tEZ (V/m) @ t=0.14
-0.4442042298076734
% es.Ex (V/m) @ t=0.14
0.4448505120422701
% es.Ey (V/m) @ t=0.14
0.06661116554039406
% es.Ez (V/m) @ t=0.14
-0.44420422980768226
% es.tEx (V/m) @ t=0.14
0.44485051204227255
% es.tEy (V/m) @ t=0.14
0
% es.tEz (V/m) @ t=0.14
-0.4442042298076734
% V (V) @ t=0.14
0.0068582438031969725
% es.normE (V/m) @ t=0.16
0.6465219777938647
% es.EX (V/m) @ t=0.16
0.4490778682284017
% es.EY (V/m) @ t=0.16
0.06724414957549404
% es.EZ (V/m) @ t=0.16
-0.44842544700609177
% es.tEX (V/m) @ t=0.16
0.449077868228404
% es.tEY (V/m) @ t=0.16
0
% es.tEZ (V/m) @ t=0.16
-0.44842544700608267
% es.Ex (V/m) @ t=0.16
0.4490778682284017
% es.Ey (V/m) @ t=0.16
0.06724414957549404
% es.Ez (V/m) @ t=0.16
-0.44842544700609177
% es.tEx (V/m) @ t=0.16
0.449077868228404
% es.tEy (V/m) @ t=0.16
0
% es.tEz (V/m) @ t=0.16
-0.44842544700608267
% V (V) @ t=0.16
0.006923417231518776
% es.normE (V/m) @ t=0.18
0.6526079555150922
% es.EX (V/m) @ t=0.18
0.45330522441452226
% es.EY (V/m) @ t=0.18
0.06787713361060099
% es.EZ (V/m) @ t=0.18
-0.45264666420448973
% es.tEX (V/m) @ t=0.18
0.4533052244145257
% es.tEY (V/m) @ t=0.18
0
% es.tEZ (V/m) @ t=0.18
-0.45264666420448085
% es.Ex (V/m) @ t=0.18
0.45330522441452226
% es.Ey (V/m) @ t=0.18
0.06787713361060099
% es.Ez (V/m) @ t=0.18
-0.45264666420448973
% es.tEx (V/m) @ t=0.18
0.4533052244145257
% es.tEy (V/m) @ t=0.18
0
% es.tEz (V/m) @ t=0.18
-0.45264666420448085
% V (V) @ t=0.18
0.006988590659840581
% es.normE (V/m) @ t=0.2
0.6586939332363314
% es.EX (V/m) @ t=0.2
0.45753258060065016
% es.EY (V/m) @ t=0.2
0.06851011764571877
% es.EZ (V/m) @ t=0.2
-0.45686788140289214
% es.tEX (V/m) @ t=0.2
0.4575325806006534
% es.tEY (V/m) @ t=0.2
0
% es.tEZ (V/m) @ t=0.2
-0.45686788140288304
% es.Ex (V/m) @ t=0.2
0.45753258060065016
% es.Ey (V/m) @ t=0.2
0.06851011764571877
% es.Ez (V/m) @ t=0.2
-0.45686788140289214
% es.tEx (V/m) @ t=0.2
0.4575325806006534
% es.tEy (V/m) @ t=0.2
0
% es.tEz (V/m) @ t=0.2
-0.45686788140288304
% V (V) @ t=0.2
0.007053764088162386
% es.normE (V/m) @ t=0.22
0.6647799109575718
% es.EX (V/m) @ t=0.22
0.46175993678678073
% es.EY (V/m) @ t=0.22
0.0691431016808376
% es.EZ (V/m) @ t=0.22
-0.46108909860129743
% es.tEX (V/m) @ t=0.22
0.46175993678678195
% es.tEY (V/m) @ t=0.22
0
% es.tEZ (V/m) @ t=0.22
-0.4610890986012883
% es.Ex (V/m) @ t=0.22
0.46175993678678073
% es.Ey (V/m) @ t=0.22
0.0691431016808376
% es.Ez (V/m) @ t=0.22
-0.46108909860129743
% es.tEx (V/m) @ t=0.22
0.46175993678678195
% es.tEy (V/m) @ t=0.22
0
% es.tEz (V/m) @ t=0.22
-0.4610890986012883
% V (V) @ t=0.22
0.0071189375164841875
% es.normE (V/m) @ t=0.24
0.6708658886788061
% es.EX (V/m) @ t=0.24
0.4659872929729042
% es.EY (V/m) @ t=0.24
0.06977608571594798
% es.EZ (V/m) @ t=0.24
-0.4653103157997027
% es.tEX (V/m) @ t=0.24
0.46598729297291097
% es.tEY (V/m) @ t=0.24
0
% es.tEZ (V/m) @ t=0.24
-0.4653103157996936
% es.Ex (V/m) @ t=0.24
0.4659872929729042
% es.Ey (V/m) @ t=0.24
0.06977608571594798
% es.Ez (V/m) @ t=0.24
-0.4653103157997027
% es.tEx (V/m) @ t=0.24
0.46598729297291097
% es.tEy (V/m) @ t=0.24
0
% es.tEz (V/m) @ t=0.24
-0.4653103157996936
% V (V) @ t=0.24
0.007184110944805993
% es.normE (V/m) @ t=0.26
0.6769518664000445
% es.EX (V/m) @ t=0.26
0.47021464915903366
% es.EY (V/m) @ t=0.26
0.0704090697510632
% es.EZ (V/m) @ t=0.26
-0.46953153299810135
% es.tEX (V/m) @ t=0.26
0.4702146491590349
% es.tEY (V/m) @ t=0.26
0
% es.tEZ (V/m) @ t=0.26
-0.4695315329980958
% es.Ex (V/m) @ t=0.26
0.47021464915903366
% es.Ey (V/m) @ t=0.26
0.0704090697510632
% es.Ez (V/m) @ t=0.26
-0.46953153299810135
% es.tEx (V/m) @ t=0.26
0.4702146491590349
% es.tEy (V/m) @ t=0.26
0
% es.tEz (V/m) @ t=0.26
-0.4695315329980958
% V (V) @ t=0.26
0.007249284373127798
% es.normE (V/m) @ t=0.28
0.6832130300501892
% es.EX (V/m) @ t=0.28
0.4745637187580548
% es.EY (V/m) @ t=0.28
0.07105997418315024
% es.EZ (V/m) @ t=0.28
-0.47387434587841804
% es.tEX (V/m) @ t=0.28
0.47456371875805714
% es.tEY (V/m) @ t=0.28
0
% es.tEZ (V/m) @ t=0.28
-0.47387434587840893
% es.Ex (V/m) @ t=0.28
0.4745637187580548
% es.Ey (V/m) @ t=0.28
0.07105997418315024
% es.Ez (V/m) @ t=0.28
-0.47387434587841804
% es.tEx (V/m) @ t=0.28
0.47456371875805714
% es.tEy (V/m) @ t=0.28
0
% es.tEz (V/m) @ t=0.28
-0.47387434587840893
% V (V) @ t=0.28
0.0073163443759591195
% es.normE (V/m) @ t=0.3
0.6900021765441777
% es.EX (V/m) @ t=0.3
0.47927961344365
% es.EY (V/m) @ t=0.3
0.07176488787367136
% es.EZ (V/m) @ t=0.3
-0.47858362902262797
% es.tEX (V/m) @ t=0.3
0.4792796134436528
% es.tEY (V/m) @ t=0.3
0
% es.tEZ (V/m) @ t=0.3
-0.47858362902262064
% es.Ex (V/m) @ t=0.3
0.47927961344365
% es.Ey (V/m) @ t=0.3
0.07176488787367136
% es.Ez (V/m) @ t=0.3
-0.47858362902262797
% es.tEx (V/m) @ t=0.3
0.4792796134436528
% es.tEy (V/m) @ t=0.3
0
% es.tEz (V/m) @ t=0.3
-0.47858362902262064
% V (V) @ t=0.3
0.007389090217691044
% es.normE (V/m) @ t=0.32
0.6967913230425054
% es.EX (V/m) @ t=0.32
0.4839955081292482
% es.EY (V/m) @ t=0.32
0.07246980156419927
% es.EZ (V/m) @ t=0.32
-0.48329291216683434
% es.tEX (V/m) @ t=0.32
0.4839955081292504
% es.tEY (V/m) @ t=0.32
0
% es.tEZ (V/m) @ t=0.32
-0.48329291216682524
% es.Ex (V/m) @ t=0.32
0.4839955081292482
% es.Ey (V/m) @ t=0.32
0.07246980156419927
% es.Ez (V/m) @ t=0.32
-0.48329291216683434
% es.tEx (V/m) @ t=0.32
0.4839955081292504
% es.tEy (V/m) @ t=0.32
0
% es.tEz (V/m) @ t=0.32
-0.48329291216682524
% V (V) @ t=0.32
0.007461836059422969
% es.normE (V/m) @ t=0.34
0.7035804695450436
% es.EX (V/m) @ t=0.34
0.48871140281484304
% es.EY (V/m) @ t=0.34
0.07317471525472796
% es.EZ (V/m) @ t=0.34
-0.4880021953110376
% es.tEX (V/m) @ t=0.34
0.4887114028148427
% es.tEY (V/m) @ t=0.34
0
% es.tEZ (V/m) @ t=0.34
-0.4880021953110303
% es.Ex (V/m) @ t=0.34
0.48871140281484304
% es.Ey (V/m) @ t=0.34
0.07317471525472796
% es.Ez (V/m) @ t=0.34
-0.4880021953110376
% es.tEx (V/m) @ t=0.34
0.4887114028148427
% es.tEy (V/m) @ t=0.34
0
% es.tEz (V/m) @ t=0.34
-0.4880021953110303
% V (V) @ t=0.34
0.007534581901154892
% es.normE (V/m) @ t=0.36
0.7103696160516728
% es.EX (V/m) @ t=0.36
0.49342729750042935
% es.EY (V/m) @ t=0.36
0.07387962894525407
% es.EZ (V/m) @ t=0.36
-0.49271147845524754
% es.tEX (V/m) @ t=0.36
0.49342729750043124
% es.tEY (V/m) @ t=0.36
0
% es.tEZ (V/m) @ t=0.36
-0.49271147845523844
% es.Ex (V/m) @ t=0.36
0.49342729750042935
% es.Ey (V/m) @ t=0.36
0.07387962894525407
% es.Ez (V/m) @ t=0.36
-0.49271147845524754
% es.tEx (V/m) @ t=0.36
0.49342729750043124
% es.tEy (V/m) @ t=0.36
0
% es.tEz (V/m) @ t=0.36
-0.49271147845523844
% V (V) @ t=0.36
0.007607327742886817
% es.normE (V/m) @ t=0.38
0.71715876256228
% es.EX (V/m) @ t=0.38
0.4981431921860294
% es.EY (V/m) @ t=0.38
0.07458454263576811
% es.EZ (V/m) @ t=0.38
-0.4974207615994486
% es.tEX (V/m) @ t=0.38
0.4981431921860322
% es.tEY (V/m) @ t=0.38
0
% es.tEZ (V/m) @ t=0.38
-0.4974207615994395
% es.Ex (V/m) @ t=0.38
0.4981431921860294
% es.Ey (V/m) @ t=0.38
0.07458454263576811
% es.Ez (V/m) @ t=0.38
-0.4974207615994486
% es.tEx (V/m) @ t=0.38
0.4981431921860322
% es.tEy (V/m) @ t=0.38
0
% es.tEz (V/m) @ t=0.38
-0.4974207615994395
% V (V) @ t=0.38
0.007680073584618741
% es.normE (V/m) @ t=0.4
0.723947909076754
% es.EX (V/m) @ t=0.4
0.5028590868716215
% es.EY (V/m) @ t=0.4
0.07528945632629999
% es.EZ (V/m) @ t=0.4
-0.5021300447436536
% es.tEX (V/m) @ t=0.4
0.5028590868716225
% es.tEY (V/m) @ t=0.4
0
% es.tEZ (V/m) @ t=0.4
-0.5021300447436445
% es.Ex (V/m) @ t=0.4
0.5028590868716215
% es.Ey (V/m) @ t=0.4
0.07528945632629999
% es.Ez (V/m) @ t=0.4
-0.5021300447436536
% es.tEx (V/m) @ t=0.4
0.5028590868716225
% es.tEy (V/m) @ t=0.4
0
% es.tEz (V/m) @ t=0.4
-0.5021300447436445
% V (V) @ t=0.4
0.007752819426350664
% es.normE (V/m) @ t=0.42
0.7307370555949875
% es.EX (V/m) @ t=0.42
0.5075749815572136
% es.EY (V/m) @ t=0.42
0.07599437001682513
% es.EZ (V/m) @ t=0.42
-0.5068393278878658
% es.tEX (V/m) @ t=0.42
0.5075749815572164
% es.tEY (V/m) @ t=0.42
0
% es.tEZ (V/m) @ t=0.42
-0.5068393278878567
% es.Ex (V/m) @ t=0.42
0.5075749815572136
% es.Ey (V/m) @ t=0.42
0.07599437001682513
% es.Ez (V/m) @ t=0.42
-0.5068393278878658
% es.tEx (V/m) @ t=0.42
0.5075749815572164
% es.tEy (V/m) @ t=0.42
0
% es.tEz (V/m) @ t=0.42
-0.5068393278878567
% V (V) @ t=0.42
0.007825565268082587
% es.normE (V/m) @ t=0.44
0.7375262021168721
% es.EX (V/m) @ t=0.44
0.5122908762428097
% es.EY (V/m) @ t=0.44
0.07669928370734688
% es.EZ (V/m) @ t=0.44
-0.5115486110320713
% es.tEX (V/m) @ t=0.44
0.5122908762428124
% es.tEY (V/m) @ t=0.44
0
% es.tEZ (V/m) @ t=0.44
-0.5115486110320604
% es.Ex (V/m) @ t=0.44
0.5122908762428097
% es.Ey (V/m) @ t=0.44
0.07669928370734688
% es.Ez (V/m) @ t=0.44
-0.5115486110320713
% es.tEx (V/m) @ t=0.44
0.5122908762428124
% es.tEy (V/m) @ t=0.44
0
% es.tEz (V/m) @ t=0.44
-0.5115486110320604
% V (V) @ t=0.44
0.007898311109814512
% es.normE (V/m) @ t=0.46
0.7443153486423169
% es.EX (V/m) @ t=0.46
0.517006770928404
% es.EY (V/m) @ t=0.46
0.07740419739786691
% es.EZ (V/m) @ t=0.46
-0.5162578941762834
% es.tEX (V/m) @ t=0.46
0.5170067709284045
% es.tEY (V/m) @ t=0.46
0
% es.tEZ (V/m) @ t=0.46
-0.5162578941762725
% es.Ex (V/m) @ t=0.46
0.517006770928404
% es.Ey (V/m) @ t=0.46
0.07740419739786691
% es.Ez (V/m) @ t=0.46
-0.5162578941762834
% es.tEx (V/m) @ t=0.46
0.5170067709284045
% es.tEy (V/m) @ t=0.46
0
% es.tEz (V/m) @ t=0.46
-0.5162578941762725
% V (V) @ t=0.46
0.007971056951546436
% es.normE (V/m) @ t=0.48
0.7511044951712058
% es.EX (V/m) @ t=0.48
0.5217226656139958
% es.EY (V/m) @ t=0.48
0.07810911108841112
% es.EZ (V/m) @ t=0.48
-0.5209671773204809
% es.tEX (V/m) @ t=0.48
0.5217226656139986
% es.tEY (V/m) @ t=0.48
0
% es.tEZ (V/m) @ t=0.48
-0.5209671773204736
% es.Ex (V/m) @ t=0.48
0.5217226656139958
% es.Ey (V/m) @ t=0.48
0.07810911108841112
% es.Ez (V/m) @ t=0.48
-0.5209671773204809
% es.tEx (V/m) @ t=0.48
0.5217226656139986
% es.tEy (V/m) @ t=0.48
0
% es.tEz (V/m) @ t=0.48
-0.5209671773204736
% V (V) @ t=0.48
0.008043802793278359
% es.normE (V/m) @ t=0.5
0.7578936417034721
% es.EX (V/m) @ t=0.5
0.5264385602995892
% es.EY (V/m) @ t=0.5
0.07881402477892185
% es.EZ (V/m) @ t=0.5
-0.5256764604647002
% es.tEX (V/m) @ t=0.5
0.526438560299592
% es.tEY (V/m) @ t=0.5
0
% es.tEZ (V/m) @ t=0.5
-0.5256764604646857
% es.Ex (V/m) @ t=0.5
0.5264385602995892
% es.Ey (V/m) @ t=0.5
0.07881402477892185
% es.Ez (V/m) @ t=0.5
-0.5256764604647002
% es.tEx (V/m) @ t=0.5
0.526438560299592
% es.tEy (V/m) @ t=0.5
0
% es.tEz (V/m) @ t=0.5
-0.5256764604646857
% V (V) @ t=0.5
0.008116548635010283
% es.normE (V/m) @ t=0.52
0.7646827882389977
% es.EX (V/m) @ t=0.52
0.5311544549851822
% es.EY (V/m) @ t=0.52
0.07951893846944497
% es.EZ (V/m) @ t=0.52
-0.5303857436088946
% es.tEX (V/m) @ t=0.52
0.5311544549851832
% es.tEY (V/m) @ t=0.52
0
% es.tEZ (V/m) @ t=0.52
-0.5303857436088872
% es.Ex (V/m) @ t=0.52
0.5311544549851822
% es.Ey (V/m) @ t=0.52
0.07951893846944497
% es.Ez (V/m) @ t=0.52
-0.5303857436088946
% es.tEx (V/m) @ t=0.52
0.5311544549851832
% es.tEy (V/m) @ t=0.52
0
% es.tEz (V/m) @ t=0.52
-0.5303857436088872
% V (V) @ t=0.52
0.008189294476742204
% es.normE (V/m) @ t=0.54
0.7714719347777276
% es.EX (V/m) @ t=0.54
0.5358703496707756
% es.EY (V/m) @ t=0.54
0.08022385215996744
% es.EZ (V/m) @ t=0.54
-0.5350950267531098
% es.tEX (V/m) @ t=0.54
0.5358703496707766
% es.tEY (V/m) @ t=0.54
0
% es.tEZ (V/m) @ t=0.54
-0.535095026753099
% es.Ex (V/m) @ t=0.54
0.5358703496707756
% es.Ey (V/m) @ t=0.54
0.08022385215996744
% es.Ez (V/m) @ t=0.54
-0.5350950267531098
% es.tEx (V/m) @ t=0.54
0.5358703496707766
% es.tEy (V/m) @ t=0.54
0
% es.tEz (V/m) @ t=0.54
-0.535095026753099
% V (V) @ t=0.54
0.00826204031847413
% es.normE (V/m) @ t=0.56
0.7786648784762452
% es.EX (V/m) @ t=0.56
0.5408666374151835
% es.EY (V/m) @ t=0.56
0.0809716873542963
% es.EZ (V/m) @ t=0.56
-0.5400841141015069
% es.tEX (V/m) @ t=0.56
0.5408666374151876
% es.tEY (V/m) @ t=0.56
0
% es.tEZ (V/m) @ t=0.56
-0.540084114101496
% es.Ex (V/m) @ t=0.56
0.5408666374151835
% es.Ey (V/m) @ t=0.56
0.0809716873542963
% es.Ez (V/m) @ t=0.56
-0.5400841141015069
% es.tEx (V/m) @ t=0.56
0.5408666374151876
% es.tEy (V/m) @ t=0.56
0
% es.tEz (V/m) @ t=0.56
-0.540084114101496
% V (V) @ t=0.56
0.008339077881142071
% es.normE (V/m) @ t=0.58
0.7862483701563097
% es.EX (V/m) @ t=0.58
0.5461341181108438
% es.EY (V/m) @ t=0.58
0.08176103573491861
% es.EZ (V/m) @ t=0.58
-0.5453438248677045
% es.tEX (V/m) @ t=0.58
0.5461341181108461
% es.tEY (V/m) @ t=0.58
0
% es.tEZ (V/m) @ t=0.58
-0.5453438248676936
% es.Ex (V/m) @ t=0.58
0.5461341181108438
% es.Ey (V/m) @ t=0.58
0.08176103573491861
% es.Ez (V/m) @ t=0.58
-0.5453438248677045
% es.tEx (V/m) @ t=0.58
0.5461341181108461
% es.tEy (V/m) @ t=0.58
0
% es.tEz (V/m) @ t=0.58
-0.5453438248676936
% V (V) @ t=0.58
0.008420266347086564
% es.normE (V/m) @ t=0.6
0.793831861837867
% es.EX (V/m) @ t=0.6
0.5514015988065079
% es.EY (V/m) @ t=0.6
0.08255038411555324
% es.EZ (V/m) @ t=0.6
-0.5506035356339181
% es.tEX (V/m) @ t=0.6
0.5514015988065102
% es.tEY (V/m) @ t=0.6
0
% es.tEZ (V/m) @ t=0.6
-0.5506035356339107
% es.Ex (V/m) @ t=0.6
0.5514015988065079
% es.Ey (V/m) @ t=0.6
0.08255038411555324
% es.Ez (V/m) @ t=0.6
-0.5506035356339181
% es.tEx (V/m) @ t=0.6
0.5514015988065102
% es.tEy (V/m) @ t=0.6
0
% es.tEz (V/m) @ t=0.6
-0.5506035356339107
% V (V) @ t=0.6
0.008501454813031053
% es.normE (V/m) @ t=0.62
0.801415353520859
% es.EX (V/m) @ t=0.62
0.5566690795021713
% es.EY (V/m) @ t=0.62
0.08333973249617796
% es.EZ (V/m) @ t=0.62
-0.5558632464001299
% es.tEX (V/m) @ t=0.62
0.55666907950217
% es.tEY (V/m) @ t=0.62
0
% es.tEZ (V/m) @ t=0.62
-0.555863246400119
% es.Ex (V/m) @ t=0.62
0.5566690795021713
% es.Ey (V/m) @ t=0.62
0.08333973249617796
% es.Ez (V/m) @ t=0.62
-0.5558632464001299
% es.tEx (V/m) @ t=0.62
0.55666907950217
% es.tEy (V/m) @ t=0.62
0
% es.tEz (V/m) @ t=0.62
-0.555863246400119
% V (V) @ t=0.62
0.008582643278975541
% es.normE (V/m) @ t=0.64
0.8089988452052415
% es.EX (V/m) @ t=0.64
0.5619365601978296
% es.EY (V/m) @ t=0.64
0.08412908087680487
% es.EZ (V/m) @ t=0.64
-0.5611229571663336
% es.tEX (V/m) @ t=0.64
0.5619365601978334
% es.tEY (V/m) @ t=0.64
0
% es.tEZ (V/m) @ t=0.64
-0.5611229571663263
% es.Ex (V/m) @ t=0.64
0.5619365601978296
% es.Ey (V/m) @ t=0.64
0.08412908087680487
% es.Ez (V/m) @ t=0.64
-0.5611229571663336
% es.tEx (V/m) @ t=0.64
0.5619365601978334
% es.tEy (V/m) @ t=0.64
0
% es.tEz (V/m) @ t=0.64
-0.5611229571663263
% V (V) @ t=0.64
0.008663831744920034
% es.normE (V/m) @ t=0.66
0.8165823368909736
% es.EX (V/m) @ t=0.66
0.5672040408934905
% es.EY (V/m) @ t=0.66
0.08491842925743487
% es.EZ (V/m) @ t=0.66
-0.5663826679325268
% es.tEX (V/m) @ t=0.66
0.5672040408934946
% es.tEY (V/m) @ t=0.66
0
% es.tEZ (V/m) @ t=0.66
-0.5663826679325159
% es.Ex (V/m) @ t=0.66
0.5672040408934905
% es.Ey (V/m) @ t=0.66
0.08491842925743487
% es.Ez (V/m) @ t=0.66
-0.5663826679325268
% es.tEx (V/m) @ t=0.66
0.5672040408934946
% es.tEy (V/m) @ t=0.66
0
% es.tEz (V/m) @ t=0.66
-0.5663826679325159
% V (V) @ t=0.66
0.008745020210864523
% es.normE (V/m) @ t=0.68
0.8241658285780387
% es.EX (V/m) @ t=0.68
0.572471521589149
% es.EY (V/m) @ t=0.68
0.0857077776380438
% es.EZ (V/m) @ t=0.68
-0.5716423786987377
% es.tEX (V/m) @ t=0.68
0.5724715215891563
% es.tEY (V/m) @ t=0.68
0
% es.tEZ (V/m) @ t=0.68
-0.5716423786987268
% es.Ex (V/m) @ t=0.68
0.572471521589149
% es.Ey (V/m) @ t=0.68
0.0857077776380438
% es.Ez (V/m) @ t=0.68
-0.5716423786987377
% es.tEx (V/m) @ t=0.68
0.5724715215891563
% es.tEy (V/m) @ t=0.68
0
% es.tEz (V/m) @ t=0.68
-0.5716423786987268
% V (V) @ t=0.68
0.008826208676809014
% es.normE (V/m) @ t=0.7
0.8317493202663873
% es.EX (V/m) @ t=0.7
0.5777390022848072
% es.EY (V/m) @ t=0.7
0.08649712601867782
% es.EZ (V/m) @ t=0.7
-0.576902089464945
% es.tEX (V/m) @ t=0.7
0.5777390022848112
% es.tEY (V/m) @ t=0.7
0
% es.tEZ (V/m) @ t=0.7
-0.5769020894649306
% es.Ex (V/m) @ t=0.7
0.5777390022848072
% es.Ey (V/m) @ t=0.7
0.08649712601867782
% es.Ez (V/m) @ t=0.7
-0.576902089464945
% es.tEx (V/m) @ t=0.7
0.5777390022848112
% es.tEy (V/m) @ t=0.7
0
% es.tEz (V/m) @ t=0.7
-0.5769020894649306
% V (V) @ t=0.7
0.008907397142753506
% es.normE (V/m) @ t=0.72
0.8393328119559809
% es.EX (V/m) @ t=0.72
0.583006482980466
% es.EY (V/m) @ t=0.72
0.08728647439930409
% es.EZ (V/m) @ t=0.72
-0.5821618002311497
% es.tEX (V/m) @ t=0.72
0.5830064829804738
% es.tEY (V/m) @ t=0.72
0
% es.tEZ (V/m) @ t=0.72
-0.5821618002311353
% es.Ex (V/m) @ t=0.72
0.583006482980466
% es.Ey (V/m) @ t=0.72
0.08728647439930409
% es.Ez (V/m) @ t=0.72
-0.5821618002311497
% es.tEx (V/m) @ t=0.72
0.5830064829804738
% es.tEy (V/m) @ t=0.72
0
% es.tEz (V/m) @ t=0.72
-0.5821618002311353
% V (V) @ t=0.72
0.008988585608697995
% es.normE (V/m) @ t=0.74
0.8469163036467983
% es.EX (V/m) @ t=0.74
0.5882739636761352
% es.EY (V/m) @ t=0.74
0.088075822779945
% es.EZ (V/m) @ t=0.74
-0.5874215109973535
% es.tEX (V/m) @ t=0.74
0.5882739636761354
% es.tEY (V/m) @ t=0.74
0
% es.tEZ (V/m) @ t=0.74
-0.5874215109973462
% es.Ex (V/m) @ t=0.74
0.5882739636761352
% es.Ey (V/m) @ t=0.74
0.088075822779945
% es.Ez (V/m) @ t=0.74
-0.5874215109973535
% es.tEx (V/m) @ t=0.74
0.5882739636761354
% es.tEy (V/m) @ t=0.74
0
% es.tEz (V/m) @ t=0.74
-0.5874215109973462
% V (V) @ t=0.74
0.009069774074642486
% es.normE (V/m) @ t=0.76
0.854499795338792
% es.EX (V/m) @ t=0.76
0.5935414443717943
% es.EY (V/m) @ t=0.76
0.08886517116056256
% es.EZ (V/m) @ t=0.76
-0.5926812217635573
% es.tEX (V/m) @ t=0.76
0.5935414443717981
% es.tEY (V/m) @ t=0.76
0
% es.tEZ (V/m) @ t=0.76
-0.59268122176355
% es.Ex (V/m) @ t=0.76
0.5935414443717943
% es.Ey (V/m) @ t=0.76
0.08886517116056256
% es.Ez (V/m) @ t=0.76
-0.5926812217635573
% es.tEx (V/m) @ t=0.76
0.5935414443717981
% es.tEy (V/m) @ t=0.76
0
% es.tEz (V/m) @ t=0.76
-0.59268122176355
% V (V) @ t=0.76
0.009150962540586975
% es.normE (V/m) @ t=0.78
0.8620832870319484
% es.EX (V/m) @ t=0.78
0.5988089250674553
% es.EY (V/m) @ t=0.78
0.08965451954118547
% es.EZ (V/m) @ t=0.78
-0.5979409325297718
% es.tEX (V/m) @ t=0.78
0.5988089250674591
% es.tEY (V/m) @ t=0.78
0
% es.tEZ (V/m) @ t=0.78
-0.5979409325297538
% es.Ex (V/m) @ t=0.78
0.5988089250674553
% es.Ey (V/m) @ t=0.78
0.08965451954118547
% es.Ez (V/m) @ t=0.78
-0.5979409325297718
% es.tEx (V/m) @ t=0.78
0.5988089250674591
% es.tEy (V/m) @ t=0.78
0
% es.tEz (V/m) @ t=0.78
-0.5979409325297538
% V (V) @ t=0.78
0.009232151006531467
% es.normE (V/m) @ t=0.8
0.8696667787262098
% es.EX (V/m) @ t=0.8
0.6040764057631103
% es.EY (V/m) @ t=0.8
0.09044386792181705
% es.EZ (V/m) @ t=0.8
-0.6032006432959685
% es.tEX (V/m) @ t=0.8
0.6040764057631138
% es.tEY (V/m) @ t=0.8
0
% es.tEZ (V/m) @ t=0.8
-0.6032006432959576
% es.Ex (V/m) @ t=0.8
0.6040764057631103
% es.Ey (V/m) @ t=0.8
0.09044386792181705
% es.Ez (V/m) @ t=0.8
-0.6032006432959685
% es.tEx (V/m) @ t=0.8
0.6040764057631138
% es.tEy (V/m) @ t=0.8
0
% es.tEz (V/m) @ t=0.8
-0.6032006432959576
% V (V) @ t=0.8
0.009313339472475958
% es.normE (V/m) @ t=0.82
0.8772502704215772
% es.EX (V/m) @ t=0.82
0.6093438864587759
% es.EY (V/m) @ t=0.82
0.09123321630243977
% es.EZ (V/m) @ t=0.82
-0.6084603540621731
% es.tEX (V/m) @ t=0.82
0.6093438864587797
% es.tEY (V/m) @ t=0.82
0
% es.tEZ (V/m) @ t=0.82
-0.6084603540621623
% es.Ex (V/m) @ t=0.82
0.6093438864587759
% es.Ey (V/m) @ t=0.82
0.09123321630243977
% es.Ez (V/m) @ t=0.82
-0.6084603540621731
% es.tEx (V/m) @ t=0.82
0.6093438864587797
% es.tEy (V/m) @ t=0.82
0
% es.tEz (V/m) @ t=0.82
-0.6084603540621623
% V (V) @ t=0.82
0.009394527938420447
% es.normE (V/m) @ t=0.84
0.8855295269735672
% es.EX (V/m) @ t=0.84
0.6150946924786747
% es.EY (V/m) @ t=0.84
0.09209447212031521
% es.EZ (V/m) @ t=0.84
-0.6142027781805564
% es.tEX (V/m) @ t=0.84
0.6150946924786802
% es.tEY (V/m) @ t=0.84
0
% es.tEZ (V/m) @ t=0.84
-0.614202778180549
% es.Ex (V/m) @ t=0.84
0.6150946924786747
% es.Ey (V/m) @ t=0.84
0.09209447212031521
% es.Ez (V/m) @ t=0.84
-0.6142027781805564
% es.tEx (V/m) @ t=0.84
0.6150946924786802
% es.tEy (V/m) @ t=0.84
0
% es.tEz (V/m) @ t=0.84
-0.614202778180549
% V (V) @ t=0.84
0.009483183257312499
% es.normE (V/m) @ t=0.86
0.894019503599484
% es.EX (V/m) @ t=0.86
0.6209918789131395
% es.EY (V/m) @ t=0.86
0.09297750590006337
% es.EZ (V/m) @ t=0.86
-0.6200913973709856
% es.tEX (V/m) @ t=0.86
0.620991878913145
% es.tEY (V/m) @ t=0.86
0
% es.tEZ (V/m) @ t=0.86
-0.6200913973709747
% es.Ex (V/m) @ t=0.86
0.6209918789131395
% es.Ey (V/m) @ t=0.86
0.09297750590006337
% es.Ez (V/m) @ t=0.86
-0.6200913973709856
% es.tEx (V/m) @ t=0.86
0.620991878913145
% es.tEy (V/m) @ t=0.86
0
% es.tEz (V/m) @ t=0.86
-0.6200913973709747
% V (V) @ t=0.86
0.009574099995118667
% es.normE (V/m) @ t=0.88
0.9025094802254221
% es.EX (V/m) @ t=0.88
0.6268890653475947
% es.EY (V/m) @ t=0.88
0.09386053967980618
% es.EZ (V/m) @ t=0.88
-0.6259800165614327
% es.tEX (V/m) @ t=0.88
0.6268890653475983
% es.tEY (V/m) @ t=0.88
0
% es.tEZ (V/m) @ t=0.88
-0.6259800165614218
% es.Ex (V/m) @ t=0.88
0.6268890653475947
% es.Ey (V/m) @ t=0.88
0.09386053967980618
% es.Ez (V/m) @ t=0.88
-0.6259800165614327
% es.tEx (V/m) @ t=0.88
0.6268890653475983
% es.tEy (V/m) @ t=0.88
0
% es.tEz (V/m) @ t=0.88
-0.6259800165614218
% V (V) @ t=0.88
0.009665016732924837
% es.normE (V/m) @ t=0.9
0.910999456851371
% es.EX (V/m) @ t=0.9
0.6327862517820579
% es.EY (V/m) @ t=0.9
0.09474357345954454
% es.EZ (V/m) @ t=0.9
-0.631868635751865
% es.tEX (V/m) @ t=0.9
0.6327862517820599
% es.tEY (V/m) @ t=0.9
0
% es.tEZ (V/m) @ t=0.9
-0.631868635751847
% es.Ex (V/m) @ t=0.9
0.6327862517820579
% es.Ey (V/m) @ t=0.9
0.09474357345954454
% es.Ez (V/m) @ t=0.9
-0.631868635751865
% es.tEx (V/m) @ t=0.9
0.6327862517820599
% es.tEy (V/m) @ t=0.9
0
% es.tEz (V/m) @ t=0.9
-0.631868635751847
% V (V) @ t=0.9
0.009755933470731004
% es.normE (V/m) @ t=0.92
0.9194894334773451
% es.EX (V/m) @ t=0.92
0.6386834382165201
% es.EY (V/m) @ t=0.92
0.09562660723928179
% es.EZ (V/m) @ t=0.92
-0.6377572549423156
% es.tEX (V/m) @ t=0.92
0.6386834382165238
% es.tEY (V/m) @ t=0.92
0
% es.tEZ (V/m) @ t=0.92
-0.6377572549423012
% es.Ex (V/m) @ t=0.92
0.6386834382165201
% es.Ey (V/m) @ t=0.92
0.09562660723928179
% es.Ez (V/m) @ t=0.92
-0.6377572549423156
% es.tEx (V/m) @ t=0.92
0.6386834382165238
% es.tEy (V/m) @ t=0.92
0
% es.tEz (V/m) @ t=0.92
-0.6377572549423012
% V (V) @ t=0.92
0.009846850208537173
% es.normE (V/m) @ t=0.94
0.927979410103321
% es.EX (V/m) @ t=0.94
0.6445806246509773
% es.EY (V/m) @ t=0.94
0.09650964101901838
% es.EZ (V/m) @ t=0.94
-0.643645874132752
% es.tEX (V/m) @ t=0.94
0.6445806246509771
% es.tEY (V/m) @ t=0.94
0
% es.tEZ (V/m) @ t=0.94
-0.6436458741327411
% es.Ex (V/m) @ t=0.94
0.6445806246509773
% es.Ey (V/m) @ t=0.94
0.09650964101901838
% es.Ez (V/m) @ t=0.94
-0.643645874132752
% es.tEx (V/m) @ t=0.94
0.6445806246509771
% es.tEy (V/m) @ t=0.94
0
% es.tEz (V/m) @ t=0.94
-0.6436458741327411
% V (V) @ t=0.94
0.009937766946343343
% es.normE (V/m) @ t=0.96
0.9364693867293157
% es.EX (V/m) @ t=0.96
0.6504778110854366
% es.EY (V/m) @ t=0.96
0.09739267479875569
% es.EZ (V/m) @ t=0.96
-0.6495344933231924
% es.tEX (V/m) @ t=0.96
0.6504778110854414
% es.tEY (V/m) @ t=0.96
0
% es.tEZ (V/m) @ t=0.96
-0.6495344933231886
% es.Ex (V/m) @ t=0.96
0.6504778110854366
% es.Ey (V/m) @ t=0.96
0.09739267479875569
% es.Ez (V/m) @ t=0.96
-0.6495344933231924
% es.tEx (V/m) @ t=0.96
0.6504778110854414
% es.tEy (V/m) @ t=0.96
0
% es.tEz (V/m) @ t=0.96
-0.6495344933231886
% V (V) @ t=0.96
0.010028683684149511
% es.normE (V/m) @ t=0.98
0.9449593633553254
% es.EX (V/m) @ t=0.98
0.6563749975198989
% es.EY (V/m) @ t=0.98
0.09827570857848078
% es.EZ (V/m) @ t=0.98
-0.6554231125136356
% es.tEX (V/m) @ t=0.98
0.6563749975199022
% es.tEY (V/m) @ t=0.98
0
% es.tEZ (V/m) @ t=0.98
-0.6554231125136281
% es.Ex (V/m) @ t=0.98
0.6563749975198989
% es.Ey (V/m) @ t=0.98
0.09827570857848078
% es.Ez (V/m) @ t=0.98
-0.6554231125136356
% es.tEx (V/m) @ t=0.98
0.6563749975199022
% es.tEy (V/m) @ t=0.98
0
% es.tEz (V/m) @ t=0.98
-0.6554231125136281
% V (V) @ t=0.98
0.010119600421955682
% es.normE (V/m) @ t=1
0.9534493399813393
% es.EX (V/m) @ t=1
0.6622721839543575
% es.EY (V/m) @ t=1
0.09915874235824046
% es.EZ (V/m) @ t=1
-0.6613117317040682
% es.tEX (V/m) @ t=1
0.662272183954359
% es.tEY (V/m) @ t=1
0
% es.tEZ (V/m) @ t=1
-0.6613117317040609
% es.Ex (V/m) @ t=1
0.6622721839543575
% es.Ey (V/m) @ t=1
0.09915874235824046
% es.Ez (V/m) @ t=1
-0.6613117317040682
% es.tEx (V/m) @ t=1
0.662272183954359
% es.tEy (V/m) @ t=1
0
% es.tEz (V/m) @ t=1
-0.6613117317040609
% V (V) @ t=1
0.010210517159761852
% es.normE (V/m) @ t=1.02
0.961939316607372
% es.EX (V/m) @ t=1.02
0.6681693703888174
% es.EY (V/m) @ t=1.02
0.10004177613797699
% es.EZ (V/m) @ t=1.02
-0.6672003508945075
% es.tEX (V/m) @ t=1.02
0.6681693703888207
% es.tEY (V/m) @ t=1.02
0
% es.tEZ (V/m) @ t=1.02
-0.6672003508944999
% es.Ex (V/m) @ t=1.02
0.6681693703888174
% es.Ey (V/m) @ t=1.02
0.10004177613797699
% es.Ez (V/m) @ t=1.02
-0.6672003508945075
% es.tEx (V/m) @ t=1.02
0.6681693703888207
% es.tEy (V/m) @ t=1.02
0
% es.tEz (V/m) @ t=1.02
-0.6672003508944999
% V (V) @ t=1.02
0.010301433897568019
% es.normE (V/m) @ t=1.04
0.9704292932334121
% es.EX (V/m) @ t=1.04