% Model:              1 neuron.mph
% Version:            COMSOL 6.0.0.405
% Date:               Mar 16 2023, 17:10
% Dimension:          0
% Nodes:              14017
% Expressions:        14017
% Description:        Electric field norm, Electric field, X component, Electric field, Y component, Electric field, Z component, Tangential electric field, X component, Tangential electric field, Y component, Tangential electric field, Z component, Electric field, x component, Electric field, y component, Electric field, z component, Tangential electric field, x component, Tangential electric field, y component, Tangential electric field, z component, Electric potential
% Length unit:        mm
% x
2
% y
12.199999999999998
% z
2
% es.normE (V/m) @ t=0
0.7399222718222539
% es.EX (V/m) @ t=0
-0.5297162363689246
% es.EY (V/m) @ t=0
0.20173432355050358
% es.EZ (V/m) @ t=0
-0.472690596564326
% es.tEX (V/m) @ t=0
-0.5297162363689241
% es.tEY (V/m) @ t=0
0
% es.tEZ (V/m) @ t=0
-0.47269059656432777
% es.Ex (V/m) @ t=0
-0.5297162363689246
% es.Ey (V/m) @ t=0
0.20173432355050358
% es.Ez (V/m) @ t=0
-0.472690596564326
% es.tEx (V/m) @ t=0
-0.5297162363689241
% es.tEy (V/m) @ t=0
0
% es.tEz (V/m) @ t=0
-0.47269059656432777
% V (V) @ t=0
0.0075300389158481995
% es.normE (V/m) @ t=0.02
0.6390851162975404
% es.EX (V/m) @ t=0.02
-0.45752611484077554
% es.EY (V/m) @ t=0.02
0.17424182483852735
% es.EZ (V/m) @ t=0.02
-0.40827196972915925
% es.tEX (V/m) @ t=0.02
-0.45752611484077166
% es.tEY (V/m) @ t=0.02
0
% es.tEZ (V/m) @ t=0.02
-0.4082719697291646
% es.Ex (V/m) @ t=0.02
-0.45752611484077554
% es.Ey (V/m) @ t=0.02
0.17424182483852735
% es.Ez (V/m) @ t=0.02
-0.40827196972915925
% es.tEx (V/m) @ t=0.02
-0.45752611484077166
% es.tEy (V/m) @ t=0.02
0
% es.tEz (V/m) @ t=0.02
-0.4082719697291646
% V (V) @ t=0.02
0.0065038394605281356
% es.normE (V/m) @ t=0.04
0.6449633823982095
% es.EX (V/m) @ t=0.04
-0.4617344117064879
% es.EY (V/m) @ t=0.04
0.17584449918062273
% es.EZ (V/m) @ t=0.04
-0.41202722650615575
% es.tEX (V/m) @ t=0.04
-0.4617344117064879
% es.tEY (V/m) @ t=0.04
0
% es.tEZ (V/m) @ t=0.04
-0.412027226506158
% es.Ex (V/m) @ t=0.04
-0.4617344117064879
% es.Ey (V/m) @ t=0.04
0.17584449918062273
% es.Ez (V/m) @ t=0.04
-0.41202722650615575
% es.tEx (V/m) @ t=0.04
-0.4617344117064879
% es.tEy (V/m) @ t=0.04
0
% es.tEz (V/m) @ t=0.04
-0.412027226506158
% V (V) @ t=0.04
0.006563661045211778
% es.normE (V/m) @ t=0.06
0.6508960941751829
% es.EX (V/m) @ t=0.06
-0.46598168716459065
% es.EY (V/m) @ t=0.06
0.17746201001994844
% es.EZ (V/m) @ t=0.06
-0.41581726885762205
% es.tEX (V/m) @ t=0.06
-0.4659816871645923
% es.tEY (V/m) @ t=0.06
0
% es.tEZ (V/m) @ t=0.06
-0.4158172688576194
% es.Ex (V/m) @ t=0.06
-0.46598168716459065
% es.Ey (V/m) @ t=0.06
0.17746201001994844
% es.Ez (V/m) @ t=0.06
-0.41581726885762205
% es.tEx (V/m) @ t=0.06
-0.4659816871645923
% es.tEy (V/m) @ t=0.06
0
% es.tEz (V/m) @ t=0.06
-0.4158172688576194
% V (V) @ t=0.06
0.006624037013406048
% es.normE (V/m) @ t=0.08
0.6569159483863032
% es.EX (V/m) @ t=0.08
-0.470291348535412
% es.EY (V/m) @ t=0.08
0.17910328042877577
% es.EZ (V/m) @ t=0.08
-0.4196629807290919
% es.tEX (V/m) @ t=0.08
-0.47029134853541255
% es.tEY (V/m) @ t=0.08
0
% es.tEZ (V/m) @ t=0.08
-0.41966298072909414
% es.Ex (V/m) @ t=0.08
-0.470291348535412
% es.Ey (V/m) @ t=0.08
0.17910328042877577
% es.Ez (V/m) @ t=0.08
-0.4196629807290919
% es.tEx (V/m) @ t=0.08
-0.47029134853541255
% es.tEy (V/m) @ t=0.08
0
% es.tEz (V/m) @ t=0.08
-0.41966298072909414
% V (V) @ t=0.08
0.006685299779847198
% es.normE (V/m) @ t=0.1
0.6630033988670159
% es.EX (V/m) @ t=0.1
-0.47464940257527866
% es.EY (V/m) @ t=0.1
0.1807629811038427
% es.EZ (V/m) @ t=0.1
-0.4235518753727665
% es.tEX (V/m) @ t=0.1
-0.4746494025752763
% es.tEY (V/m) @ t=0.1
0
% es.tEZ (V/m) @ t=0.1
-0.4235518753727652
% es.Ex (V/m) @ t=0.1
-0.47464940257527866
% es.Ey (V/m) @ t=0.1
0.1807629811038427
% es.Ez (V/m) @ t=0.1
-0.4235518753727665
% es.tEx (V/m) @ t=0.1
-0.4746494025752763
% es.tEy (V/m) @ t=0.1
0
% es.tEz (V/m) @ t=0.1
-0.4235518753727652
% V (V) @ t=0.1
0.006747250434502135
% es.normE (V/m) @ t=0.12
0.6690908493477187
% es.EX (V/m) @ t=0.12
-0.4790074566151349
% es.EY (V/m) @ t=0.12
0.18242268177891097
% es.EZ (V/m) @ t=0.12
-0.4274407700164362
% es.tEX (V/m) @ t=0.12
-0.47900745661513433
% es.tEY (V/m) @ t=0.12
0
% es.tEZ (V/m) @ t=0.12
-0.42744077001643443
% es.Ex (V/m) @ t=0.12
-0.4790074566151349
% es.Ey (V/m) @ t=0.12
0.18242268177891097
% es.Ez (V/m) @ t=0.12
-0.4274407700164362
% es.tEx (V/m) @ t=0.12
-0.47900745661513433
% es.tEy (V/m) @ t=0.12
0
% es.tEz (V/m) @ t=0.12
-0.42744077001643443
% V (V) @ t=0.12
0.0068092010891570715
% es.normE (V/m) @ t=0.14
0.6752229684572472
% es.EX (V/m) @ t=0.14
-0.48339748938589455
% es.EY (V/m) @ t=0.14
0.18409455938236352
% es.EZ (V/m) @ t=0.14
-0.4313582014540742
% es.tEX (V/m) @ t=0.14
-0.4833974893858901
% es.tEY (V/m) @ t=0.14
0
% es.tEZ (V/m) @ t=0.14
-0.43135820145407777
% es.Ex (V/m) @ t=0.14
-0.48339748938589455
% es.Ey (V/m) @ t=0.14
0.18409455938236352
% es.Ez (V/m) @ t=0.14
-0.4313582014540742
% es.tEx (V/m) @ t=0.14
-0.4833974893858901
% es.tEy (V/m) @ t=0.14
0
% es.tEz (V/m) @ t=0.14
-0.43135820145407777
% V (V) @ t=0.14
0.0068716063914284874
% es.normE (V/m) @ t=0.16
0.6816380055709135
% es.EX (V/m) @ t=0.16
-0.4879900660663302
% es.EY (V/m) @ t=0.16
0.18584356208153507
% es.EZ (V/m) @ t=0.16
-0.435456376581556
% es.tEX (V/m) @ t=0.16
-0.4879900660663301
% es.tEY (V/m) @ t=0.16
0
% es.tEZ (V/m) @ t=0.16
-0.43545637658155734
% es.Ex (V/m) @ t=0.16
-0.4879900660663302
% es.Ey (V/m) @ t=0.16
0.18584356208153507
% es.Ez (V/m) @ t=0.16
-0.435456376581556
% es.tEx (V/m) @ t=0.16
-0.4879900660663301
% es.tEy (V/m) @ t=0.16
0
% es.tEz (V/m) @ t=0.16
-0.43545637658155734
% V (V) @ t=0.16
0.006936891298461627
% es.normE (V/m) @ t=0.18
0.6880530426845775
% es.EX (V/m) @ t=0.18
-0.4925826427467722
% es.EY (V/m) @ t=0.18
0.18759256478071773
% es.EZ (V/m) @ t=0.18
-0.43955455170902447
% es.tEX (V/m) @ t=0.18
-0.4925826427467712
% es.tEY (V/m) @ t=0.18
0
% es.tEZ (V/m) @ t=0.18
-0.4395545517090218
% es.Ex (V/m) @ t=0.18
-0.4925826427467722
% es.Ey (V/m) @ t=0.18
0.18759256478071773
% es.Ez (V/m) @ t=0.18
-0.43955455170902447
% es.tEx (V/m) @ t=0.18
-0.4925826427467712
% es.tEy (V/m) @ t=0.18
0
% es.tEz (V/m) @ t=0.18
-0.4395545517090218
% V (V) @ t=0.18
0.007002176205494762
% es.normE (V/m) @ t=0.2
0.6944680797982434
% es.EX (V/m) @ t=0.2
-0.4971752194272113
% es.EY (V/m) @ t=0.2
0.18934156747989306
% es.EZ (V/m) @ t=0.2
-0.4436527268364996
% es.tEX (V/m) @ t=0.2
-0.497175219427213
% es.tEY (V/m) @ t=0.2
0
% es.tEZ (V/m) @ t=0.2
-0.4436527268364978
% es.Ex (V/m) @ t=0.2
-0.4971752194272113
% es.Ey (V/m) @ t=0.2
0.18934156747989306
% es.Ez (V/m) @ t=0.2
-0.4436527268364996
% es.tEx (V/m) @ t=0.2
-0.497175219427213
% es.tEy (V/m) @ t=0.2
0
% es.tEz (V/m) @ t=0.2
-0.4436527268364978
% V (V) @ t=0.2
0.007067461112527899
% es.normE (V/m) @ t=0.22
0.7008831169119061
% es.EX (V/m) @ t=0.22
-0.501767796107648
% es.EY (V/m) @ t=0.22
0.1910905701790664
% es.EZ (V/m) @ t=0.22
-0.4477509019639734
% es.tEX (V/m) @ t=0.22
-0.5017677961076448
% es.tEY (V/m) @ t=0.22
0
% es.tEZ (V/m) @ t=0.22
-0.44775090196397294
% es.Ex (V/m) @ t=0.22
-0.501767796107648
% es.Ey (V/m) @ t=0.22
0.1910905701790664
% es.Ez (V/m) @ t=0.22
-0.4477509019639734
% es.tEx (V/m) @ t=0.22
-0.5017677961076448
% es.tEy (V/m) @ t=0.22
0
% es.tEz (V/m) @ t=0.22
-0.44775090196397294
% V (V) @ t=0.22
0.007132746019561037
% es.normE (V/m) @ t=0.24
0.7072981540255759
% es.EX (V/m) @ t=0.24
-0.506360372788088
% es.EY (V/m) @ t=0.24
0.19283957287823927
% es.EZ (V/m) @ t=0.24
-0.45184907709145294
% es.tEX (V/m) @ t=0.24
-0.506360372788089
% es.tEY (V/m) @ t=0.24
0
% es.tEZ (V/m) @ t=0.24
-0.4518490770914525
% es.Ex (V/m) @ t=0.24
-0.506360372788088
% es.Ey (V/m) @ t=0.24
0.19283957287823927
% es.Ez (V/m) @ t=0.24
-0.45184907709145294
% es.tEx (V/m) @ t=0.24
-0.506360372788089
% es.tEy (V/m) @ t=0.24
0
% es.tEz (V/m) @ t=0.24
-0.4518490770914525
% V (V) @ t=0.24
0.007198030926594174
% es.normE (V/m) @ t=0.26
0.7137131911392407
% es.EX (V/m) @ t=0.26
-0.5109529494685264
% es.EY (V/m) @ t=0.26
0.19458857557741416
% es.EZ (V/m) @ t=0.26
-0.45594725221892674
% es.tEX (V/m) @ t=0.26
-0.5109529494685254
% es.tEY (V/m) @ t=0.26
0
% es.tEZ (V/m) @ t=0.26
-0.4559472522189276
% es.Ex (V/m) @ t=0.26
-0.5109529494685264
% es.Ey (V/m) @ t=0.26
0.19458857557741416
% es.Ez (V/m) @ t=0.26
-0.45594725221892674
% es.tEx (V/m) @ t=0.26
-0.5109529494685254
% es.tEy (V/m) @ t=0.26
0
% es.tEz (V/m) @ t=0.26
-0.4559472522189276
% V (V) @ t=0.26
0.0072633158336273115
% es.normE (V/m) @ t=0.28
0.7203371383801385
% es.EX (V/m) @ t=0.28
-0.5156951018368013
% es.EY (V/m) @ t=0.28
0.19639429694047394
% es.EZ (V/m) @ t=0.28
-0.4601789989362439
% es.tEX (V/m) @ t=0.28
-0.5156951018368008
% es.tEY (V/m) @ t=0.28
0
% es.tEZ (V/m) @ t=0.28
-0.46017899893624215
% es.Ex (V/m) @ t=0.28
-0.5156951018368013
% es.Ey (V/m) @ t=0.28
0.19639429694047394
% es.Ez (V/m) @ t=0.28
-0.4601789989362439
% es.tEx (V/m) @ t=0.28
-0.5156951018368008
% es.tEy (V/m) @ t=0.28
0
% es.tEz (V/m) @ t=0.28
-0.46017899893624215
% V (V) @ t=0.28
0.007330736100965524
% es.normE (V/m) @ t=0.3
0.7274910191042702
% es.EX (V/m) @ t=0.3
-0.5208166765246213
% es.EY (V/m) @ t=0.3
0.19834389413872344
% es.EZ (V/m) @ t=0.3
-0.4647495710547811
% es.tEX (V/m) @ t=0.3
-0.5208166765246198
% es.tEY (V/m) @ t=0.3
0
% es.tEZ (V/m) @ t=0.3
-0.46474957105478243
% es.Ex (V/m) @ t=0.3
-0.5208166765246213
% es.Ey (V/m) @ t=0.3
0.19834389413872344
% es.Ez (V/m) @ t=0.3
-0.4647495710547811
% es.tEx (V/m) @ t=0.3
-0.5208166765246198
% es.tEy (V/m) @ t=0.3
0
% es.tEz (V/m) @ t=0.3
-0.46474957105478243
% V (V) @ t=0.3
0.007403573046453482
% es.normE (V/m) @ t=0.32
0.7346448998305553
% es.EX (V/m) @ t=0.32
-0.525938251212441
% es.EY (V/m) @ t=0.32
0.20029349133697383
% es.EZ (V/m) @ t=0.32
-0.46932014317331383
% es.tEX (V/m) @ t=0.32
-0.5259382512124404
% es.tEY (V/m) @ t=0.32
0
% es.tEZ (V/m) @ t=0.32
-0.4693201431733156
% es.Ex (V/m) @ t=0.32
-0.525938251212441
% es.Ey (V/m) @ t=0.32
0.20029349133697383
% es.Ez (V/m) @ t=0.32
-0.46932014317331383
% es.tEx (V/m) @ t=0.32
-0.5259382512124404
% es.tEy (V/m) @ t=0.32
0
% es.tEz (V/m) @ t=0.32
-0.4693201431733156
% V (V) @ t=0.32
0.007476409991941442
% es.normE (V/m) @ t=0.34
0.7417987805589369
% es.EX (V/m) @ t=0.34
-0.5310598259002656
% es.EY (V/m) @ t=0.34
0.20224308853521422
% es.EZ (V/m) @ t=0.34
-0.47389071529185234
% es.tEX (V/m) @ t=0.34
-0.5310598259002628
% es.tEY (V/m) @ t=0.34
0
% es.tEZ (V/m) @ t=0.34
-0.47389071529185056
% es.Ex (V/m) @ t=0.34
-0.5310598259002656
% es.Ey (V/m) @ t=0.34
0.20224308853521422
% es.Ez (V/m) @ t=0.34
-0.47389071529185234
% es.tEx (V/m) @ t=0.34
-0.5310598259002628
% es.tEy (V/m) @ t=0.34
0
% es.tEz (V/m) @ t=0.34
-0.47389071529185056
% V (V) @ t=0.34
0.007549246937429402
% es.normE (V/m) @ t=0.36
0.7489526612893496
% es.EX (V/m) @ t=0.36
-0.5361814005880848
% es.EY (V/m) @ t=0.36
0.20419268573346527
% es.EZ (V/m) @ t=0.36
-0.4784612874103882
% es.tEX (V/m) @ t=0.36
-0.5361814005880838
% es.tEY (V/m) @ t=0.36
0
% es.tEZ (V/m) @ t=0.36
-0.47846128741039085
% es.Ex (V/m) @ t=0.36
-0.5361814005880848
% es.Ey (V/m) @ t=0.36
0.20419268573346527
% es.Ez (V/m) @ t=0.36
-0.4784612874103882
% es.tEx (V/m) @ t=0.36
-0.5361814005880838
% es.tEy (V/m) @ t=0.36
0
% es.tEz (V/m) @ t=0.36
-0.47846128741039085
% V (V) @ t=0.36
0.00762208388291736
% es.normE (V/m) @ t=0.38
0.7561065420217412
% es.EX (V/m) @ t=0.38
-0.5413029752759123
% es.EY (V/m) @ t=0.38
0.20614228293171144
% es.EZ (V/m) @ t=0.38
-0.4830318595289249
% es.tEX (V/m) @ t=0.38
-0.5413029752759113
% es.tEY (V/m) @ t=0.38
0
% es.tEZ (V/m) @ t=0.38
-0.48303185952892314
% es.Ex (V/m) @ t=0.38
-0.5413029752759123
% es.Ey (V/m) @ t=0.38
0.20614228293171144
% es.Ez (V/m) @ t=0.38
-0.4830318595289249
% es.tEx (V/m) @ t=0.38
-0.5413029752759113
% es.tEy (V/m) @ t=0.38
0
% es.tEz (V/m) @ t=0.38
-0.48303185952892314
% V (V) @ t=0.38
0.007694920828405319
% es.normE (V/m) @ t=0.4
0.7632604227560469
% es.EX (V/m) @ t=0.4
-0.546424549963732
% es.EY (V/m) @ t=0.4
0.20809188012995072
% es.EZ (V/m) @ t=0.4
-0.4876024316474634
% es.tEX (V/m) @ t=0.4
-0.5464245499637304
% es.tEY (V/m) @ t=0.4
0
% es.tEZ (V/m) @ t=0.4
-0.4876024316474652
% es.Ex (V/m) @ t=0.4
-0.546424549963732
% es.Ey (V/m) @ t=0.4
0.20809188012995072
% es.Ez (V/m) @ t=0.4
-0.4876024316474634
% es.tEx (V/m) @ t=0.4
-0.5464245499637304
% es.tEy (V/m) @ t=0.4
0
% es.tEz (V/m) @ t=0.4
-0.4876024316474652
% V (V) @ t=0.4
0.007767757773893278
% es.normE (V/m) @ t=0.42
0.7704143034922234
% es.EX (V/m) @ t=0.42
-0.5515461246515595
% es.EY (V/m) @ t=0.42
0.2100414773282151
% es.EZ (V/m) @ t=0.42
-0.4921730037659895
% es.tEX (V/m) @ t=0.42
-0.5515461246515585
% es.tEY (V/m) @ t=0.42
0
% es.tEZ (V/m) @ t=0.42
-0.49217300376599127
% es.Ex (V/m) @ t=0.42
-0.5515461246515595
% es.Ey (V/m) @ t=0.42
0.2100414773282151
% es.Ez (V/m) @ t=0.42
-0.4921730037659895
% es.tEx (V/m) @ t=0.42
-0.5515461246515585
% es.tEy (V/m) @ t=0.42
0
% es.tEz (V/m) @ t=0.42
-0.49217300376599127
% V (V) @ t=0.42
0.00784059471938124
% es.normE (V/m) @ t=0.44
0.7775681842302098
% es.EX (V/m) @ t=0.44
-0.556667699339369
% es.EY (V/m) @ t=0.44
0.21199107452644883
% es.EZ (V/m) @ t=0.44
-0.496743575884544
% es.tEX (V/m) @ t=0.44
-0.5566676993393702
% es.tEY (V/m) @ t=0.44
0
% es.tEZ (V/m) @ t=0.44
-0.4967435758845422
% es.Ex (V/m) @ t=0.44
-0.556667699339369
% es.Ey (V/m) @ t=0.44
0.21199107452644883
% es.Ez (V/m) @ t=0.44
-0.496743575884544
% es.tEx (V/m) @ t=0.44
-0.5566676993393702
% es.tEy (V/m) @ t=0.44
0
% es.tEz (V/m) @ t=0.44
-0.4967435758845422
% V (V) @ t=0.44
0.007913431664869196
% es.normE (V/m) @ t=0.46
0.7847220649699649
% es.EX (V/m) @ t=0.46
-0.5617892740271969
% es.EY (V/m) @ t=0.46
0.21394067172470121
% es.EZ (V/m) @ t=0.46
-0.5013141480030718
% es.tEX (V/m) @ t=0.46
-0.5617892740271977
% es.tEY (V/m) @ t=0.46
0
% es.tEZ (V/m) @ t=0.46
-0.5013141480030692
% es.Ex (V/m) @ t=0.46
-0.5617892740271969
% es.Ey (V/m) @ t=0.46
0.21394067172470121
% es.Ez (V/m) @ t=0.46
-0.5013141480030718
% es.tEx (V/m) @ t=0.46
-0.5617892740271977
% es.tEy (V/m) @ t=0.46
0
% es.tEz (V/m) @ t=0.46
-0.5013141480030692
% V (V) @ t=0.46
0.007986268610357157
% es.normE (V/m) @ t=0.48
0.7918759457114354
% es.EX (V/m) @ t=0.48
-0.5669108487150178
% es.EY (V/m) @ t=0.48
0.21589026892294405
% es.EZ (V/m) @ t=0.48
-0.5058847201216121
% es.tEX (V/m) @ t=0.48
-0.5669108487150167
% es.tEY (V/m) @ t=0.48
0
% es.tEZ (V/m) @ t=0.48
-0.5058847201216166
% es.Ex (V/m) @ t=0.48
-0.5669108487150178
% es.Ey (V/m) @ t=0.48
0.21589026892294405
% es.Ez (V/m) @ t=0.48
-0.5058847201216121
% es.tEx (V/m) @ t=0.48
-0.5669108487150167
% es.tEy (V/m) @ t=0.48
0
% es.tEz (V/m) @ t=0.48
-0.5058847201216166
% V (V) @ t=0.48
0.008059105555845117
% es.normE (V/m) @ t=0.5
0.7990298264545789
% es.EX (V/m) @ t=0.5
-0.5720324234028494
% es.EY (V/m) @ t=0.5
0.2178398661211982
% es.EZ (V/m) @ t=0.5
-0.5104552922401382
% es.tEX (V/m) @ t=0.5
-0.5720324234028489
% es.tEY (V/m) @ t=0.5
0
% es.tEZ (V/m) @ t=0.5
-0.5104552922401435
% es.Ex (V/m) @ t=0.5
-0.5720324234028494
% es.Ey (V/m) @ t=0.5
0.2178398661211982
% es.Ez (V/m) @ t=0.5
-0.5104552922401382
% es.tEx (V/m) @ t=0.5
-0.5720324234028489
% es.tEy (V/m) @ t=0.5
0
% es.tEz (V/m) @ t=0.5
-0.5104552922401435
% V (V) @ t=0.5
0.008131942501333075
% es.normE (V/m) @ t=0.52
0.8061837071993523
% es.EX (V/m) @ t=0.52
-0.5771539980906685
% es.EY (V/m) @ t=0.52
0.2197894633194417
% es.EZ (V/m) @ t=0.52
-0.5150258643586874
% es.tEX (V/m) @ t=0.52
-0.577153998090667
% es.tEY (V/m) @ t=0.52
0
% es.tEZ (V/m) @ t=0.52
-0.5150258643586847
% es.Ex (V/m) @ t=0.52
-0.5771539980906685
% es.Ey (V/m) @ t=0.52
0.2197894633194417
% es.Ez (V/m) @ t=0.52
-0.5150258643586874
% es.tEx (V/m) @ t=0.52
-0.577153998090667
% es.tEy (V/m) @ t=0.52
0
% es.tEz (V/m) @ t=0.52
-0.5150258643586847
% V (V) @ t=0.52
0.008204779446821034
% es.normE (V/m) @ t=0.54
0.8133375879456981
% es.EX (V/m) @ t=0.54
-0.5822755727784842
% es.EY (V/m) @ t=0.54
0.2217390605176932
% es.EZ (V/m) @ t=0.54
-0.5195964364772201
% es.tEX (V/m) @ t=0.54
-0.5822755727784843
% es.tEY (V/m) @ t=0.54
0
% es.tEZ (V/m) @ t=0.54
-0.519596436477225
% es.Ex (V/m) @ t=0.54
-0.5822755727784842
% es.Ey (V/m) @ t=0.54
0.2217390605176932
% es.Ez (V/m) @ t=0.54
-0.5195964364772201
% es.tEx (V/m) @ t=0.54
-0.5822755727784843
% es.tEy (V/m) @ t=0.54
0
% es.tEz (V/m) @ t=0.54
-0.519596436477225
% V (V) @ t=0.54
0.008277616392308994
% es.normE (V/m) @ t=0.56
0.8209711708460924
% es.EX (V/m) @ t=0.56
-0.5877404828429115
% es.EY (V/m) @ t=0.56
0.22382081163579826
% es.EZ (V/m) @ t=0.56
-0.5244728215654608
% es.tEX (V/m) @ t=0.56
-0.5877404828429103
% es.tEY (V/m) @ t=0.56
0
% es.tEZ (V/m) @ t=0.56
-0.5244728215654577
% es.Ex (V/m) @ t=0.56
-0.5877404828429115
% es.Ey (V/m) @ t=0.56
0.22382081163579826
% es.Ez (V/m) @ t=0.56
-0.5244728215654608
% es.tEx (V/m) @ t=0.56
-0.5877404828429103
% es.tEy (V/m) @ t=0.56
0
% es.tEz (V/m) @ t=0.56
-0.5244728215654577
% V (V) @ t=0.56
0.008355281883923855
% es.normE (V/m) @ t=0.58
0.82895852602902
% es.EX (V/m) @ t=0.58
-0.5934585969782482
% es.EY (V/m) @ t=0.58
0.22600002404914554
% es.EZ (V/m) @ t=0.58
-0.5295747385800342
% es.tEX (V/m) @ t=0.58
-0.5934585969782489
% es.tEY (V/m) @ t=0.58
0
% es.tEZ (V/m) @ t=0.58
-0.5295747385800391
% es.Ex (V/m) @ t=0.58
-0.5934585969782482
% es.Ey (V/m) @ t=0.58
0.22600002404914554
% es.Ez (V/m) @ t=0.58
-0.5295747385800342
% es.tEx (V/m) @ t=0.58
-0.5934585969782489
% es.tEy (V/m) @ t=0.58
0
% es.tEz (V/m) @ t=0.58
-0.5295747385800391
% V (V) @ t=0.58
0.008436508347169509
% es.normE (V/m) @ t=0.6
0.8369458812188342
% es.EX (V/m) @ t=0.6
-0.5991767111136007
% es.EY (V/m) @ t=0.6
0.22817923646247862
% es.EZ (V/m) @ t=0.6
-0.5346766555946143
% es.tEX (V/m) @ t=0.6
-0.5991767111135973
% es.tEY (V/m) @ t=0.6
0
% es.tEZ (V/m) @ t=0.6
-0.5346766555946125
% es.Ex (V/m) @ t=0.6
-0.5991767111136007
% es.Ey (V/m) @ t=0.6
0.22817923646247862
% es.Ez (V/m) @ t=0.6
-0.5346766555946143
% es.tEx (V/m) @ t=0.6
-0.5991767111135973
% es.tEy (V/m) @ t=0.6
0
% es.tEz (V/m) @ t=0.6
-0.5346766555946125
% V (V) @ t=0.6
0.00851773481041516
% es.normE (V/m) @ t=0.62
0.8449332364153159
% es.EX (V/m) @ t=0.62
-0.6048948252489338
% es.EY (V/m) @ t=0.62
0.23035844887582235
% es.EZ (V/m) @ t=0.62
-0.5397785726091868
% es.tEX (V/m) @ t=0.62
-0.6048948252489288
% es.tEY (V/m) @ t=0.62
0
% es.tEZ (V/m) @ t=0.62
-0.5397785726091904
% es.Ex (V/m) @ t=0.62
-0.6048948252489338
% es.Ey (V/m) @ t=0.62
0.23035844887582235
% es.Ez (V/m) @ t=0.62
-0.5397785726091868
% es.tEx (V/m) @ t=0.62
-0.6048948252489288
% es.tEy (V/m) @ t=0.62
0
% es.tEz (V/m) @ t=0.62
-0.5397785726091904
% V (V) @ t=0.62
0.008598961273660813
% es.normE (V/m) @ t=0.64
0.8529205916182943
% es.EX (V/m) @ t=0.64
-0.610612939384273
% es.EY (V/m) @ t=0.64
0.23253766128915898
% es.EZ (V/m) @ t=0.64
-0.5448804896237625
% es.tEX (V/m) @ t=0.64
-0.6106129393842736
% es.tEY (V/m) @ t=0.64
0
% es.tEZ (V/m) @ t=0.64
-0.5448804896237629
% es.Ex (V/m) @ t=0.64
-0.610612939384273
% es.Ey (V/m) @ t=0.64
0.23253766128915898
% es.Ez (V/m) @ t=0.64
-0.5448804896237625
% es.tEx (V/m) @ t=0.64
-0.6106129393842736
% es.tEy (V/m) @ t=0.64
0
% es.tEz (V/m) @ t=0.64
-0.5448804896237629
% V (V) @ t=0.64
0.008680187736906467
% es.normE (V/m) @ t=0.66
0.8609079468275787
% es.EX (V/m) @ t=0.66
-0.616331053519599
% es.EY (V/m) @ t=0.66
0.23471687370249628
% es.EZ (V/m) @ t=0.66
-0.5499824066383421
% es.tEX (V/m) @ t=0.66
-0.6163310535195998
% es.tEY (V/m) @ t=0.66
0
% es.tEZ (V/m) @ t=0.66
-0.5499824066383479
% es.Ex (V/m) @ t=0.66
-0.616331053519599
% es.Ey (V/m) @ t=0.66
0.23471687370249628
% es.Ez (V/m) @ t=0.66
-0.5499824066383421
% es.tEx (V/m) @ t=0.66
-0.6163310535195998
% es.tEy (V/m) @ t=0.66
0
% es.tEz (V/m) @ t=0.66
-0.5499824066383479
% V (V) @ t=0.66
0.00876141420015212
% es.normE (V/m) @ t=0.68
0.8688953020430141
% es.EX (V/m) @ t=0.68
-0.6220491676549497
% es.EY (V/m) @ t=0.68
0.23689608611582247
% es.EZ (V/m) @ t=0.68
-0.5550843236529182
% es.tEX (V/m) @ t=0.68
-0.6220491676549522
% es.tEY (V/m) @ t=0.68
0
% es.tEZ (V/m) @ t=0.68
-0.5550843236529133
% es.Ex (V/m) @ t=0.68
-0.6220491676549497
% es.Ey (V/m) @ t=0.68
0.23689608611582247
% es.Ez (V/m) @ t=0.68
-0.5550843236529182
% es.tEx (V/m) @ t=0.68
-0.6220491676549522
% es.tEy (V/m) @ t=0.68
0
% es.tEz (V/m) @ t=0.68
-0.5550843236529133
% V (V) @ t=0.68
0.008842640663397771
% es.normE (V/m) @ t=0.7
0.876882657264425
% es.EX (V/m) @ t=0.7
-0.6277672817903022
% es.EY (V/m) @ t=0.7
0.23907529852917353
% es.EZ (V/m) @ t=0.7
-0.5601862406674902
% es.tEX (V/m) @ t=0.7
-0.6277672817903046
% es.tEY (V/m) @ t=0.7
0
% es.tEZ (V/m) @ t=0.7
-0.5601862406674938
% es.Ex (V/m) @ t=0.7
-0.6277672817903022
% es.Ey (V/m) @ t=0.7
0.23907529852917353
% es.Ez (V/m) @ t=0.7
-0.5601862406674902
% es.tEx (V/m) @ t=0.7
-0.6277672817903046
% es.tEy (V/m) @ t=0.7
0
% es.tEz (V/m) @ t=0.7
-0.5601862406674938
% V (V) @ t=0.7
0.008923867126643423
% es.normE (V/m) @ t=0.72
0.8848700124916267
% es.EX (V/m) @ t=0.72
-0.6334853959256318
% es.EY (V/m) @ t=0.72
0.24125451094249573
% es.EZ (V/m) @ t=0.72
-0.5652881576820707
% es.tEX (V/m) @ t=0.72
-0.6334853959256326
% es.tEY (V/m) @ t=0.72
0
% es.tEZ (V/m) @ t=0.72
-0.5652881576820681
% es.Ex (V/m) @ t=0.72
-0.6334853959256318
% es.Ey (V/m) @ t=0.72
0.24125451094249573
% es.Ez (V/m) @ t=0.72
-0.5652881576820707
% es.tEx (V/m) @ t=0.72
-0.6334853959256326
% es.tEy (V/m) @ t=0.72
0
% es.tEz (V/m) @ t=0.72
-0.5652881576820681
% V (V) @ t=0.72
0.009005093589889074
% es.normE (V/m) @ t=0.74
0.8928573677244958
% es.EX (V/m) @ t=0.74
-0.6392035100609793
% es.EY (V/m) @ t=0.74
0.2434337233558428
% es.EZ (V/m) @ t=0.74
-0.5703900746966433
% es.tEX (V/m) @ t=0.74
-0.6392035100609783
% es.tEY (V/m) @ t=0.74
0
% es.tEZ (V/m) @ t=0.74
-0.5703900746966495
% es.Ex (V/m) @ t=0.74
-0.6392035100609793
% es.Ey (V/m) @ t=0.74
0.2434337233558428
% es.Ez (V/m) @ t=0.74
-0.5703900746966433
% es.tEx (V/m) @ t=0.74
-0.6392035100609783
% es.tEy (V/m) @ t=0.74
0
% es.tEz (V/m) @ t=0.74
-0.5703900746966495
% V (V) @ t=0.74
0.009086320053134728
% es.normE (V/m) @ t=0.76
0.9008447229628564
% es.EX (V/m) @ t=0.76
-0.6449216241963113
% es.EY (V/m) @ t=0.76
0.24561293576917076
% es.EZ (V/m) @ t=0.76
-0.5754919917112229
% es.tEX (V/m) @ t=0.76
-0.6449216241963156
% es.tEY (V/m) @ t=0.76
0
% es.tEZ (V/m) @ t=0.76
-0.5754919917112256
% es.Ex (V/m) @ t=0.76
-0.6449216241963113
% es.Ey (V/m) @ t=0.76
0.24561293576917076
% es.Ez (V/m) @ t=0.76
-0.5754919917112229
% es.tEx (V/m) @ t=0.76
-0.6449216241963156
% es.tEy (V/m) @ t=0.76
0
% es.tEz (V/m) @ t=0.76
-0.5754919917112256
% V (V) @ t=0.76
0.00916754651638038
% es.normE (V/m) @ t=0.78
0.9088320782065848
% es.EX (V/m) @ t=0.78
-0.6506397383316512
% es.EY (V/m) @ t=0.78
0.24779214818250295
% es.EZ (V/m) @ t=0.78
-0.5805939087258083
% es.tEX (V/m) @ t=0.78
-0.6506397383316467
% es.tEY (V/m) @ t=0.78
0
% es.tEZ (V/m) @ t=0.78
-0.5805939087258061
% es.Ex (V/m) @ t=0.78
-0.6506397383316512
% es.Ey (V/m) @ t=0.78
0.24779214818250295
% es.Ez (V/m) @ t=0.78
-0.5805939087258083
% es.tEx (V/m) @ t=0.78
-0.6506397383316467
% es.tEy (V/m) @ t=0.78
0
% es.tEz (V/m) @ t=0.78
-0.5805939087258061
% V (V) @ t=0.78
0.009248772979626032
% es.normE (V/m) @ t=0.8
0.9168194334555242
% es.EX (V/m) @ t=0.8
-0.6563578524669917
% es.EY (V/m) @ t=0.8
0.249971360595852
% es.EZ (V/m) @ t=0.8
-0.5856958257403746
% es.tEX (V/m) @ t=0.8
-0.6563578524669924
% es.tEY (V/m) @ t=0.8
0
% es.tEZ (V/m) @ t=0.8
-0.5856958257403804
% es.Ex (V/m) @ t=0.8
-0.6563578524669917
% es.Ey (V/m) @ t=0.8
0.249971360595852
% es.Ez (V/m) @ t=0.8
-0.5856958257403746
% es.tEx (V/m) @ t=0.8
-0.6563578524669924
% es.tEy (V/m) @ t=0.8
0
% es.tEz (V/m) @ t=0.8
-0.5856958257403804
% V (V) @ t=0.8
0.009329999442871686
% es.normE (V/m) @ t=0.82
0.9248067887095511
% es.EX (V/m) @ t=0.82
-0.6620759666023335
% es.EY (V/m) @ t=0.82
0.2521505730091895
% es.EZ (V/m) @ t=0.82
-0.5907977427549533
% es.tEX (V/m) @ t=0.82
-0.6620759666023339
% es.tEY (V/m) @ t=0.82
0
% es.tEZ (V/m) @ t=0.82
-0.5907977427549493
% es.Ex (V/m) @ t=0.82
-0.6620759666023335
% es.Ey (V/m) @ t=0.82
0.2521505730091895
% es.Ez (V/m) @ t=0.82
-0.5907977427549533
% es.tEx (V/m) @ t=0.82
-0.6620759666023339
% es.tEy (V/m) @ t=0.82
0
% es.tEz (V/m) @ t=0.82
-0.5907977427549493
% V (V) @ t=0.82
0.00941122590611734
% es.normE (V/m) @ t=0.84
0.9336232678947638
% es.EX (V/m) @ t=0.84
-0.6683877824841384
% es.EY (V/m) @ t=0.84
0.2545538764898363
% es.EZ (V/m) @ t=0.84
-0.5964302540261146
% es.tEX (V/m) @ t=0.84
-0.6683877824841336
% es.tEY (V/m) @ t=0.84
0
% es.tEZ (V/m) @ t=0.84
-0.596430254026111
% es.Ex (V/m) @ t=0.84
-0.6683877824841384
% es.Ey (V/m) @ t=0.84
0.2545538764898363
% es.Ez (V/m) @ t=0.84
-0.5964302540261146
% es.tEx (V/m) @ t=0.84
-0.6683877824841336
% es.tEy (V/m) @ t=0.84
0
% es.tEz (V/m) @ t=0.84
-0.596430254026111
% V (V) @ t=0.84
0.009500966743772103
% es.normE (V/m) @ t=0.86
0.9425654638619232
% es.EX (V/m) @ t=0.86
-0.6747896190125262
% es.EY (V/m) @ t=0.86
0.256991158012305
% es.EZ (V/m) @ t=0.86
-0.6021432172048553
% es.tEX (V/m) @ t=0.86
-0.6747896190125267
% es.tEY (V/m) @ t=0.86
0
% es.tEZ (V/m) @ t=0.86
-0.6021432172048584
% es.Ex (V/m) @ t=0.86
-0.6747896190125262
% es.Ey (V/m) @ t=0.86
0.256991158012305
% es.Ez (V/m) @ t=0.86
-0.6021432172048553
% es.tEx (V/m) @ t=0.86
-0.6747896190125267
% es.tEy (V/m) @ t=0.86
0
% es.tEz (V/m) @ t=0.86
-0.6021432172048584
% V (V) @ t=0.86
0.009591998582327716
% es.normE (V/m) @ t=0.88
0.9515076598306367
% es.EX (V/m) @ t=0.88
-0.6811914555409124
% es.EY (V/m) @ t=0.88
0.2594284395347646
% es.EZ (V/m) @ t=0.88
-0.6078561803836084
% es.tEX (V/m) @ t=0.88
-0.6811914555409135
% es.tEY (V/m) @ t=0.88
0
% es.tEZ (V/m) @ t=0.88
-0.6078561803836076
% es.Ex (V/m) @ t=0.88
-0.6811914555409124
% es.Ey (V/m) @ t=0.88
0.2594284395347646
% es.Ez (V/m) @ t=0.88
-0.6078561803836084
% es.tEx (V/m) @ t=0.88
-0.6811914555409135
% es.tEy (V/m) @ t=0.88
0
% es.tEz (V/m) @ t=0.88
-0.6078561803836076
% V (V) @ t=0.88
0.009683030420883327
% es.normE (V/m) @ t=0.9
0.9604498558008691
% es.EX (V/m) @ t=0.9
-0.68759329206931
% es.EY (V/m) @ t=0.9
0.26186572105724504
% es.EZ (V/m) @ t=0.9
-0.6135691435623598
% es.tEX (V/m) @ t=0.9
-0.6875932920693124
% es.tEY (V/m) @ t=0.9
0
% es.tEZ (V/m) @ t=0.9
-0.6135691435623558
% es.Ex (V/m) @ t=0.9
-0.68759329206931
% es.Ey (V/m) @ t=0.9
0.26186572105724504
% es.Ez (V/m) @ t=0.9
-0.6135691435623598
% es.tEx (V/m) @ t=0.9
-0.6875932920693124
% es.tEy (V/m) @ t=0.9
0
% es.tEz (V/m) @ t=0.9
-0.6135691435623558
% V (V) @ t=0.9
0.009774062259438939
% es.normE (V/m) @ t=0.92
0.9693920517725385
% es.EX (V/m) @ t=0.92
-0.6939951285976895
% es.EY (V/m) @ t=0.92
0.2643030025797031
% es.EZ (V/m) @ t=0.92
-0.6192821067410983
% es.tEX (V/m) @ t=0.92
-0.6939951285976895
% es.tEY (V/m) @ t=0.92
0
% es.tEZ (V/m) @ t=0.92
-0.6192821067411041
% es.Ex (V/m) @ t=0.92
-0.6939951285976895
% es.Ey (V/m) @ t=0.92
0.2643030025797031
% es.Ez (V/m) @ t=0.92
-0.6192821067410983
% es.tEx (V/m) @ t=0.92
-0.6939951285976895
% es.tEy (V/m) @ t=0.92
0
% es.tEz (V/m) @ t=0.92
-0.6192821067411041
% V (V) @ t=0.92
0.009865094097994551
% es.normE (V/m) @ t=0.94
0.9783342477456467
% es.EX (V/m) @ t=0.94
-0.7003969651260757
% es.EY (V/m) @ t=0.94
0.2667402841021813
% es.EZ (V/m) @ t=0.94
-0.624995069919843
% es.tEX (V/m) @ t=0.94
-0.7003969651260711
% es.tEY (V/m) @ t=0.94
0
% es.tEZ (V/m) @ t=0.94
-0.6249950699198532
% es.Ex (V/m) @ t=0.94
-0.7003969651260757
% es.Ey (V/m) @ t=0.94
0.2667402841021813
% es.Ez (V/m) @ t=0.94
-0.624995069919843
% es.tEx (V/m) @ t=0.94
-0.7003969651260711
% es.tEy (V/m) @ t=0.94
0
% es.tEz (V/m) @ t=0.94
-0.6249950699198532
% V (V) @ t=0.94
0.009956125936550164
% es.normE (V/m) @ t=0.96
0.9872764437201462
% es.EX (V/m) @ t=0.96
-0.7067988016544609
% es.EY (V/m) @ t=0.96
0.2691775656246349
% es.EZ (V/m) @ t=0.96
-0.6307080330986086
% es.tEX (V/m) @ t=0.96
-0.7067988016544584
% es.tEY (V/m) @ t=0.96
0
% es.tEZ (V/m) @ t=0.96
-0.6307080330986148
% es.Ex (V/m) @ t=0.96
-0.7067988016544609
% es.Ey (V/m) @ t=0.96
0.2691775656246349
% es.Ez (V/m) @ t=0.96
-0.6307080330986086
% es.tEx (V/m) @ t=0.96
-0.7067988016544584
% es.tEy (V/m) @ t=0.96
0
% es.tEz (V/m) @ t=0.96
-0.6307080330986148
% V (V) @ t=0.96
0.010047157775105777
% es.normE (V/m) @ t=0.98
0.9962186396959863
% es.EX (V/m) @ t=0.98
-0.7132006381828515
% es.EY (V/m) @ t=0.98
0.27161484714710715
% es.EZ (V/m) @ t=0.98
-0.6364209962773479
% es.tEX (V/m) @ t=0.98
-0.7132006381828537
% es.tEY (V/m) @ t=0.98
0
% es.tEZ (V/m) @ t=0.98
-0.6364209962773426
% es.Ex (V/m) @ t=0.98
-0.7132006381828515
% es.Ey (V/m) @ t=0.98
0.27161484714710715
% es.Ez (V/m) @ t=0.98
-0.6364209962773479
% es.tEx (V/m) @ t=0.98
-0.7132006381828537
% es.tEy (V/m) @ t=0.98
0
% es.tEz (V/m) @ t=0.98
-0.6364209962773426
% V (V) @ t=0.98
0.01013818961366139
% es.normE (V/m) @ t=1
1.0051608356731507
% es.EX (V/m) @ t=1
-0.7196024747112453
% es.EY (V/m) @ t=1
0.2740521286695963
% es.EZ (V/m) @ t=1
-0.6421339594560953
% es.tEX (V/m) @ t=1
-0.719602474711242
% es.tEY (V/m) @ t=1
0
% es.tEZ (V/m) @ t=1
-0.6421339594560909
% es.Ex (V/m) @ t=1
-0.7196024747112453
% es.Ey (V/m) @ t=1
0.2740521286695963
% es.Ez (V/m) @ t=1
-0.6421339594560953
% es.tEx (V/m) @ t=1
-0.719602474711242
% es.tEy (V/m) @ t=1
0
% es.tEz (V/m) @ t=1
-0.6421339594560909
% V (V) @ t=1
0.010229221452217002
% es.normE (V/m) @ t=1.02
1.014103031651577
% es.EX (V/m) @ t=1.02
-0.7260043112396255
% es.EY (V/m) @ t=1.02
0.27648941019204787
% es.EZ (V/m) @ t=1.02
-0.6478469226348471
% es.tEX (V/m) @ t=1.02
-0.7260043112396164
% es.tEY (V/m) @ t=1.02
0
% es.tEZ (V/m) @ t=1.02
-0.647846922634848
% es.Ex (V/m) @ t=1.02
-0.7260043112396255
% es.Ey (V/m) @ t=1.02
0.27648941019204787
% es.Ez (V/m) @ t=1.02
-0.6478469226348471
% es.tEx (V/m) @ t=1.02
-0.7260043112396164
% es.tEy (V/m) @ t=1.02
0