% Model:              1 neuron.mph
% Version:            COMSOL 6.0.0.405
% Date:               Mar 16 2023, 16:59
% Dimension:          0
% Nodes:              14017
% Expressions:        14017
% Description:        Electric field norm, Electric field, X component, Electric field, Y component, Electric field, Z component, Tangential electric field, X component, Tangential electric field, Y component, Tangential electric field, Z component, Electric field, x component, Electric field, y component, Electric field, z component, Tangential electric field, x component, Tangential electric field, y component, Tangential electric field, z component, Electric potential
% Length unit:        mm
% x
1.66
% y
12.200000000000001
% z
1.66
% es.normE (V/m) @ t=0
20.771954367415265
% es.EX (V/m) @ t=0
-9.809712379165667
% es.EY (V/m) @ t=0
7.870426351131012
% es.EZ (V/m) @ t=0
9.434709697137524
% es.tEX (V/m) @ t=0
-9.809712379165667
% es.tEY (V/m) @ t=0
0
% es.tEZ (V/m) @ t=0
9.43470969713752
% es.Ex (V/m) @ t=0
-9.809712379165667
% es.Ey (V/m) @ t=0
7.870426351131012
% es.Ez (V/m) @ t=0
9.434709697137524
% es.tEx (V/m) @ t=0
-9.809712379165667
% es.tEy (V/m) @ t=0
0
% es.tEz (V/m) @ t=0
9.43470969713752
% V (V) @ t=0
0.006519188417390827
% es.normE (V/m) @ t=0.02
17.941128379884333
% es.EX (V/m) @ t=0.02
-8.472833422981232
% es.EY (V/m) @ t=0.02
6.797835538605778
% es.EZ (V/m) @ t=0.02
8.148936532630184
% es.tEX (V/m) @ t=0.02
-8.472833422981235
% es.tEY (V/m) @ t=0.02
0
% es.tEZ (V/m) @ t=0.02
8.148936532630188
% es.Ex (V/m) @ t=0.02
-8.472833422981232
% es.Ey (V/m) @ t=0.02
6.797835538605778
% es.Ez (V/m) @ t=0.02
8.148936532630184
% es.tEx (V/m) @ t=0.02
-8.472833422981235
% es.tEy (V/m) @ t=0.02
0
% es.tEz (V/m) @ t=0.02
8.148936532630188
% V (V) @ t=0.02
0.005630745872819306
% es.normE (V/m) @ t=0.04
18.106142286431975
% es.EX (V/m) @ t=0.04
-8.550762537237965
% es.EY (V/m) @ t=0.04
6.8603588037345595
% es.EZ (V/m) @ t=0.04
8.223886461026865
% es.tEX (V/m) @ t=0.04
-8.550762537237976
% es.tEY (V/m) @ t=0.04
0
% es.tEZ (V/m) @ t=0.04
8.223886461026865
% es.Ex (V/m) @ t=0.04
-8.550762537237965
% es.Ey (V/m) @ t=0.04
6.8603588037345595
% es.Ez (V/m) @ t=0.04
8.223886461026865
% es.tEx (V/m) @ t=0.04
-8.550762537237976
% es.tEy (V/m) @ t=0.04
0
% es.tEz (V/m) @ t=0.04
8.223886461026865
% V (V) @ t=0.04
0.005682534773013929
% es.normE (V/m) @ t=0.06
18.272652363604156
% es.EX (V/m) @ t=0.06
-8.629398335816695
% es.EY (V/m) @ t=0.06
6.923449025608999
% es.EZ (V/m) @ t=0.06
8.299515771488455
% es.tEX (V/m) @ t=0.06
-8.629398335816699
% es.tEY (V/m) @ t=0.06
0
% es.tEZ (V/m) @ t=0.06
8.299515771488473
% es.Ex (V/m) @ t=0.06
-8.629398335816695
% es.Ey (V/m) @ t=0.06
6.923449025608999
% es.Ez (V/m) @ t=0.06
8.299515771488455
% es.tEx (V/m) @ t=0.06
-8.629398335816699
% es.tEy (V/m) @ t=0.06
0
% es.tEz (V/m) @ t=0.06
8.299515771488473
% V (V) @ t=0.06
0.00573479323205813
% es.normE (V/m) @ t=0.08
18.441682835149898
% es.EX (V/m) @ t=0.08
-8.7092242641532
% es.EY (V/m) @ t=0.08
6.987494131343723
% es.EZ (V/m) @ t=0.08
8.376290108552592
% es.tEX (V/m) @ t=0.08
-8.709224264153207
% es.tEY (V/m) @ t=0.08
0
% es.tEZ (V/m) @ t=0.08
8.376290108552581
% es.Ex (V/m) @ t=0.08
-8.7092242641532
% es.Ey (V/m) @ t=0.08
6.987494131343723
% es.Ez (V/m) @ t=0.08
8.376290108552592
% es.tEx (V/m) @ t=0.08
-8.709224264153207
% es.tEy (V/m) @ t=0.08
0
% es.tEz (V/m) @ t=0.08
8.376290108552581
% V (V) @ t=0.08
0.005787842716744764
% es.normE (V/m) @ t=0.1
18.612511321113526
% es.EX (V/m) @ t=0.1
-8.789899214565835
% es.EY (V/m) @ t=0.1
7.052220437991359
% es.EZ (V/m) @ t=0.1
8.453881291726951
% es.tEX (V/m) @ t=0.1
-8.789899214565825
% es.tEY (V/m) @ t=0.1
0
% es.tEZ (V/m) @ t=0.1
8.453881291726958
% es.Ex (V/m) @ t=0.1
-8.789899214565835
% es.Ey (V/m) @ t=0.1
7.052220437991359
% es.Ez (V/m) @ t=0.1
8.453881291726951
% es.tEx (V/m) @ t=0.1
-8.789899214565825
% es.tEy (V/m) @ t=0.1
0
% es.tEz (V/m) @ t=0.1
8.453881291726958
% V (V) @ t=0.1
0.005841456508162495
% es.normE (V/m) @ t=0.12
18.783339807077127
% es.EX (V/m) @ t=0.12
-8.870574164978422
% es.EY (V/m) @ t=0.12
7.116946744639002
% es.EZ (V/m) @ t=0.12
8.531472474901296
% es.tEX (V/m) @ t=0.12
-8.870574164978411
% es.tEY (V/m) @ t=0.12
0
% es.tEZ (V/m) @ t=0.12
8.531472474901278
% es.Ex (V/m) @ t=0.12
-8.870574164978422
% es.Ey (V/m) @ t=0.12
7.116946744639002
% es.Ez (V/m) @ t=0.12
8.531472474901296
% es.tEx (V/m) @ t=0.12
-8.870574164978411
% es.tEy (V/m) @ t=0.12
0
% es.tEz (V/m) @ t=0.12
8.531472474901278
% V (V) @ t=0.12
0.005895070299580225
% es.normE (V/m) @ t=0.14
18.955787303629855
% es.EX (V/m) @ t=0.14
-8.952013708588602
% es.EY (V/m) @ t=0.14
7.182286491057155
% es.EZ (V/m) @ t=0.14
8.609799013948273
% es.tEX (V/m) @ t=0.14
-8.95201370858861
% es.tEY (V/m) @ t=0.14
0
% es.tEZ (V/m) @ t=0.14
8.609799013948248
% es.Ex (V/m) @ t=0.14
-8.952013708588602
% es.Ey (V/m) @ t=0.14
7.182286491057155
% es.Ez (V/m) @ t=0.14
8.609799013948273
% es.tEx (V/m) @ t=0.14
-8.95201370858861
% es.tEy (V/m) @ t=0.14
0
% es.tEz (V/m) @ t=0.14
8.609799013948248
% V (V) @ t=0.14
0.005949192210260952
% es.normE (V/m) @ t=0.16
19.13574938595309
% es.EX (V/m) @ t=0.16
-9.03700208702491
% es.EY (V/m) @ t=0.16
7.250473498513266
% es.EZ (V/m) @ t=0.16
8.691538683714612
% es.tEX (V/m) @ t=0.16
-9.037002087024916
% es.tEY (V/m) @ t=0.16
0
% es.tEZ (V/m) @ t=0.16
8.69153868371464
% es.Ex (V/m) @ t=0.16
-9.03700208702491
% es.Ey (V/m) @ t=0.16
7.250473498513266
% es.Ez (V/m) @ t=0.16
8.691538683714612
% es.tEx (V/m) @ t=0.16
-9.037002087024916
% es.tEy (V/m) @ t=0.16
0
% es.tEz (V/m) @ t=0.16
8.69153868371464
% V (V) @ t=0.16
0.006005672540218925
% es.normE (V/m) @ t=0.18
19.315711468276294
% es.EX (V/m) @ t=0.18
-9.121990465461238
% es.EY (V/m) @ t=0.18
7.31866050596939
% es.EZ (V/m) @ t=0.18
8.773278353480968
% es.tEX (V/m) @ t=0.18
-9.12199046546123
% es.tEY (V/m) @ t=0.18
0
% es.tEZ (V/m) @ t=0.18
8.773278353480947
% es.Ex (V/m) @ t=0.18
-9.121990465461238
% es.Ey (V/m) @ t=0.18
7.31866050596939
% es.Ez (V/m) @ t=0.18
8.773278353480968
% es.tEx (V/m) @ t=0.18
-9.12199046546123
% es.tEy (V/m) @ t=0.18
0
% es.tEz (V/m) @ t=0.18
8.773278353480947
% V (V) @ t=0.18
0.006062152870176899
% es.normE (V/m) @ t=0.2
19.49567355059947
% es.EX (V/m) @ t=0.2
-9.206978843897517
% es.EY (V/m) @ t=0.2
7.386847513425483
% es.EZ (V/m) @ t=0.2
8.855018023247272
% es.tEX (V/m) @ t=0.2
-9.206978843897527
% es.tEY (V/m) @ t=0.2
0
% es.tEZ (V/m) @ t=0.2
8.855018023247254
% es.Ex (V/m) @ t=0.2
-9.206978843897517
% es.Ey (V/m) @ t=0.2
7.386847513425483
% es.Ez (V/m) @ t=0.2
8.855018023247272
% es.tEx (V/m) @ t=0.2
-9.206978843897527
% es.tEy (V/m) @ t=0.2
0
% es.tEz (V/m) @ t=0.2
8.855018023247254
% V (V) @ t=0.2
0.006118633200134872
% es.normE (V/m) @ t=0.22
19.67563563292273
% es.EX (V/m) @ t=0.22
-9.291967222333838
% es.EY (V/m) @ t=0.22
7.455034520881618
% es.EZ (V/m) @ t=0.22
8.936757693013629
% es.tEX (V/m) @ t=0.22
-9.291967222333835
% es.tEY (V/m) @ t=0.22
0
% es.tEZ (V/m) @ t=0.22
8.936757693013647
% es.Ex (V/m) @ t=0.22
-9.291967222333838
% es.Ey (V/m) @ t=0.22
7.455034520881618
% es.Ez (V/m) @ t=0.22
8.936757693013629
% es.tEx (V/m) @ t=0.22
-9.291967222333835
% es.tEy (V/m) @ t=0.22
0
% es.tEz (V/m) @ t=0.22
8.936757693013647
% V (V) @ t=0.22
0.006175113530092846
% es.normE (V/m) @ t=0.24
19.85559771524595
% es.EX (V/m) @ t=0.24
-9.376955600770167
% es.EY (V/m) @ t=0.24
7.523221528337757
% es.EZ (V/m) @ t=0.24
9.018497362779971
% es.tEX (V/m) @ t=0.24
-9.37695560077016
% es.tEY (V/m) @ t=0.24
0
% es.tEZ (V/m) @ t=0.24
9.018497362779954
% es.Ex (V/m) @ t=0.24
-9.376955600770167
% es.Ey (V/m) @ t=0.24
7.523221528337757
% es.Ez (V/m) @ t=0.24
9.018497362779971
% es.tEx (V/m) @ t=0.24
-9.37695560077016
% es.tEy (V/m) @ t=0.24
0
% es.tEz (V/m) @ t=0.24
9.018497362779954
% V (V) @ t=0.24
0.00623159386005082
% es.normE (V/m) @ t=0.26
20.035559797569153
% es.EX (V/m) @ t=0.26
-9.461943979206453
% es.EY (V/m) @ t=0.26
7.591408535793846
% es.EZ (V/m) @ t=0.26
9.100237032546282
% es.tEX (V/m) @ t=0.26
-9.46194397920646
% es.tEY (V/m) @ t=0.26
0
% es.tEZ (V/m) @ t=0.26
9.10023703254629
% es.Ex (V/m) @ t=0.26
-9.461943979206453
% es.Ey (V/m) @ t=0.26
7.591408535793846
% es.Ez (V/m) @ t=0.26
9.100237032546282
% es.tEx (V/m) @ t=0.26
-9.46194397920646
% es.tEy (V/m) @ t=0.26
0
% es.tEz (V/m) @ t=0.26
9.10023703254629
% V (V) @ t=0.26
0.006288074190008794
% es.normE (V/m) @ t=0.28
20.223079366024333
% es.EX (V/m) @ t=0.28
-9.55049402135068
% es.EY (V/m) @ t=0.28
7.66245470758674
% es.EZ (V/m) @ t=0.28
9.185422210044294
% es.tEX (V/m) @ t=0.28
-9.550494021350708
% es.tEY (V/m) @ t=0.28
0
% es.tEZ (V/m) @ t=0.28
9.185422210044294
% es.Ex (V/m) @ t=0.28
-9.55049402135068
% es.Ey (V/m) @ t=0.28
7.66245470758674
% es.Ez (V/m) @ t=0.28
9.185422210044294
% es.tEx (V/m) @ t=0.28
-9.550494021350708
% es.tEy (V/m) @ t=0.28
0
% es.tEz (V/m) @ t=0.28
9.185422210044294
% V (V) @ t=0.28
0.006346926949057032
% es.normE (V/m) @ t=0.3
20.42377544667024
% es.EX (V/m) @ t=0.3
-9.645253840692035
% es.EY (V/m) @ t=0.3
7.7384858456644
% es.EZ (V/m) @ t=0.3
9.276614646256082
% es.tEX (V/m) @ t=0.3
-9.64525384069206
% es.tEY (V/m) @ t=0.3
0
% es.tEZ (V/m) @ t=0.3
9.276614646256093
% es.Ex (V/m) @ t=0.3
-9.645253840692035
% es.Ey (V/m) @ t=0.3
7.7384858456644
% es.Ez (V/m) @ t=0.3
9.276614646256082
% es.tEx (V/m) @ t=0.3
-9.64525384069206
% es.tEy (V/m) @ t=0.3
0
% es.tEz (V/m) @ t=0.3
9.276614646256093
% V (V) @ t=0.3
0.006409916049229696
% es.normE (V/m) @ t=0.32
20.624471527403152
% es.EX (V/m) @ t=0.32
-9.740013660033384
% es.EY (V/m) @ t=0.32
7.814516983742006
% es.EZ (V/m) @ t=0.32
9.367807082467827
% es.tEX (V/m) @ t=0.32
-9.740013660033405
% es.tEY (V/m) @ t=0.32
0
% es.tEZ (V/m) @ t=0.32
9.367807082467806
% es.Ex (V/m) @ t=0.32
-9.740013660033384
% es.Ey (V/m) @ t=0.32
7.814516983742006
% es.Ez (V/m) @ t=0.32
9.367807082467827
% es.tEx (V/m) @ t=0.32
-9.740013660033405
% es.tEy (V/m) @ t=0.32
0
% es.tEz (V/m) @ t=0.32
9.367807082467806
% V (V) @ t=0.32
0.0064729051494023596
% es.normE (V/m) @ t=0.34
20.825167608220642
% es.EX (V/m) @ t=0.34
-9.834773479374775
% es.EY (V/m) @ t=0.34
7.890548121819606
% es.EZ (V/m) @ t=0.34
9.458999518679622
% es.tEX (V/m) @ t=0.34
-9.834773479374746
% es.tEY (V/m) @ t=0.34
0
% es.tEZ (V/m) @ t=0.34
9.458999518679605
% es.Ex (V/m) @ t=0.34
-9.834773479374775
% es.Ey (V/m) @ t=0.34
7.890548121819606
% es.Ez (V/m) @ t=0.34
9.458999518679622
% es.tEx (V/m) @ t=0.34
-9.834773479374746
% es.tEy (V/m) @ t=0.34
0
% es.tEz (V/m) @ t=0.34
9.458999518679605
% V (V) @ t=0.34
0.006535894249575027
% es.normE (V/m) @ t=0.36
21.025863689120072
% es.EX (V/m) @ t=0.36
-9.92953329871606
% es.EY (V/m) @ t=0.36
7.96657925989722
% es.EZ (V/m) @ t=0.36
9.550191954891325
% es.tEX (V/m) @ t=0.36
-9.92953329871606
% es.tEY (V/m) @ t=0.36
0
% es.tEZ (V/m) @ t=0.36
9.55019195489129
% es.Ex (V/m) @ t=0.36
-9.92953329871606
% es.Ey (V/m) @ t=0.36
7.96657925989722
% es.Ez (V/m) @ t=0.36
9.550191954891325
% es.tEx (V/m) @ t=0.36
-9.92953329871606
% es.tEy (V/m) @ t=0.36
0
% es.tEz (V/m) @ t=0.36
9.55019195489129
% V (V) @ t=0.36
0.006598883349747691
% es.normE (V/m) @ t=0.38
21.226559770099367
% es.EX (V/m) @ t=0.38
-10.024293118057415
% es.EY (V/m) @ t=0.38
8.042610397974777
% es.EZ (V/m) @ t=0.38
9.641384391103106
% es.tEX (V/m) @ t=0.38
-10.024293118057443
% es.tEY (V/m) @ t=0.38
0
% es.tEZ (V/m) @ t=0.38
9.641384391103117
% es.Ex (V/m) @ t=0.38
-10.024293118057415
% es.Ey (V/m) @ t=0.38
8.042610397974777
% es.Ez (V/m) @ t=0.38
9.641384391103106
% es.tEx (V/m) @ t=0.38
-10.024293118057443
% es.tEy (V/m) @ t=0.38
0
% es.tEz (V/m) @ t=0.38
9.641384391103117
% V (V) @ t=0.38
0.006661872449920356
% es.normE (V/m) @ t=0.4
21.427255851156172
% es.EX (V/m) @ t=0.4
-10.119052937398784
% es.EY (V/m) @ t=0.4
8.118641536052419
% es.EZ (V/m) @ t=0.4
9.73257682731483
% es.tEX (V/m) @ t=0.4
-10.11905293739881
% es.tEY (V/m) @ t=0.4
0
% es.tEZ (V/m) @ t=0.4
9.73257682731483
% es.Ex (V/m) @ t=0.4
-10.119052937398784
% es.Ey (V/m) @ t=0.4
8.118641536052419
% es.Ez (V/m) @ t=0.4
9.73257682731483
% es.tEx (V/m) @ t=0.4
-10.11905293739881
% es.tEy (V/m) @ t=0.4
0
% es.tEz (V/m) @ t=0.4
9.73257682731483
% V (V) @ t=0.4
0.00672486155009302
% es.normE (V/m) @ t=0.42
21.627951932288326
% es.EX (V/m) @ t=0.42
-10.21381275674009
% es.EY (V/m) @ t=0.42
8.194672674130011
% es.EZ (V/m) @ t=0.42
9.82376926352659
% es.tEX (V/m) @ t=0.42
-10.213812756740076
% es.tEY (V/m) @ t=0.42
0
% es.tEZ (V/m) @ t=0.42
9.8237692635266
% es.Ex (V/m) @ t=0.42
-10.21381275674009
% es.Ey (V/m) @ t=0.42
8.194672674130011
% es.Ez (V/m) @ t=0.42
9.82376926352659
% es.tEx (V/m) @ t=0.42
-10.213812756740076
% es.tEy (V/m) @ t=0.42
0
% es.tEz (V/m) @ t=0.42
9.8237692635266
% V (V) @ t=0.42
0.006787850650265686
% es.normE (V/m) @ t=0.44
21.828648013493854
% es.EX (V/m) @ t=0.44
-10.30857257608146
% es.EY (V/m) @ t=0.44
8.270703812207614
% es.EZ (V/m) @ t=0.44
9.91496169973837
% es.tEX (V/m) @ t=0.44
-10.308572576081453
% es.tEY (V/m) @ t=0.44
0
% es.tEZ (V/m) @ t=0.44
9.91496169973837
% es.Ex (V/m) @ t=0.44
-10.30857257608146
% es.Ey (V/m) @ t=0.44
8.270703812207614
% es.Ez (V/m) @ t=0.44
9.91496169973837
% es.tEx (V/m) @ t=0.44
-10.308572576081453
% es.tEy (V/m) @ t=0.44
0
% es.tEz (V/m) @ t=0.44
9.91496169973837
% V (V) @ t=0.44
0.006850839750438351
% es.normE (V/m) @ t=0.46
22.0293440947706
% es.EX (V/m) @ t=0.46
-10.403332395422801
% es.EY (V/m) @ t=0.46
8.346734950285242
% es.EZ (V/m) @ t=0.46
10.006154135950116
% es.tEX (V/m) @ t=0.46
-10.403332395422815
% es.tEY (V/m) @ t=0.46
0
% es.tEZ (V/m) @ t=0.46
10.006154135950112
% es.Ex (V/m) @ t=0.46
-10.403332395422801
% es.Ey (V/m) @ t=0.46
8.346734950285242
% es.Ez (V/m) @ t=0.46
10.006154135950116
% es.tEx (V/m) @ t=0.46
-10.403332395422815
% es.tEy (V/m) @ t=0.46
0
% es.tEz (V/m) @ t=0.46
10.006154135950112
% V (V) @ t=0.46
0.006913828850611016
% es.normE (V/m) @ t=0.48
22.230040176116724
% es.EX (V/m) @ t=0.48
-10.498092214764185
% es.EY (V/m) @ t=0.48
8.422766088362891
% es.EZ (V/m) @ t=0.48
10.09734657216189
% es.tEX (V/m) @ t=0.48
-10.49809221476415
% es.tEY (V/m) @ t=0.48
0
% es.tEZ (V/m) @ t=0.48
10.097346572161882
% es.Ex (V/m) @ t=0.48
-10.498092214764185
% es.Ey (V/m) @ t=0.48
8.422766088362891
% es.Ez (V/m) @ t=0.48
10.09734657216189
% es.tEx (V/m) @ t=0.48
-10.49809221476415
% es.tEy (V/m) @ t=0.48
0
% es.tEz (V/m) @ t=0.48
10.097346572161882
% V (V) @ t=0.48
0.006976817950783681
% es.normE (V/m) @ t=0.5
22.43073625753028
% es.EX (V/m) @ t=0.5
-10.592852034105483
% es.EY (V/m) @ t=0.5
8.498797226440491
% es.EZ (V/m) @ t=0.5
10.188539008373613
% es.tEX (V/m) @ t=0.5
-10.592852034105483
% es.tEY (V/m) @ t=0.5
0
% es.tEZ (V/m) @ t=0.5
10.188539008373624
% es.Ex (V/m) @ t=0.5
-10.592852034105483
% es.Ey (V/m) @ t=0.5
8.498797226440491
% es.Ez (V/m) @ t=0.5
10.188539008373613
% es.tEx (V/m) @ t=0.5
-10.592852034105483
% es.tEy (V/m) @ t=0.5
0
% es.tEz (V/m) @ t=0.5
10.188539008373624
% V (V) @ t=0.5
0.007039807050956345
% es.normE (V/m) @ t=0.52
22.631432339009596
% es.EX (V/m) @ t=0.52
-10.687611853446853
% es.EY (V/m) @ t=0.52
8.574828364518101
% es.EZ (V/m) @ t=0.52
10.279731444585384
% es.tEX (V/m) @ t=0.52
-10.687611853446846
% es.tEY (V/m) @ t=0.52
0
% es.tEZ (V/m) @ t=0.52
10.279731444585394
% es.Ex (V/m) @ t=0.52
-10.687611853446853
% es.Ey (V/m) @ t=0.52
8.574828364518101
% es.Ez (V/m) @ t=0.52
10.279731444585384
% es.tEx (V/m) @ t=0.52
-10.687611853446846
% es.tEy (V/m) @ t=0.52
0
% es.tEz (V/m) @ t=0.52
10.279731444585394
% V (V) @ t=0.52
0.007102796151129012
% es.normE (V/m) @ t=0.54
22.83212842055284
% es.EX (V/m) @ t=0.54
-10.782371672788187
% es.EY (V/m) @ t=0.54
8.650859502595697
% es.EZ (V/m) @ t=0.54
10.370923880797125
% es.tEX (V/m) @ t=0.54
-10.78237167278817
% es.tEY (V/m) @ t=0.54
0
% es.tEZ (V/m) @ t=0.54
10.370923880797136
% es.Ex (V/m) @ t=0.54
-10.782371672788187
% es.Ey (V/m) @ t=0.54
8.650859502595697
% es.Ez (V/m) @ t=0.54
10.370923880797125
% es.tEx (V/m) @ t=0.54
-10.78237167278817
% es.tEy (V/m) @ t=0.54
0
% es.tEz (V/m) @ t=0.54
10.370923880797136
% V (V) @ t=0.54
0.0071657852513016766
% es.normE (V/m) @ t=0.56
23.04976266213329
% es.EX (V/m) @ t=0.56
-10.885161884814337
% es.EY (V/m) @ t=0.56
8.733326735826992
% es.EZ (V/m) @ t=0.56
10.469755545393419
% es.tEX (V/m) @ t=0.56
-10.885161884814334
% es.tEY (V/m) @ t=0.56
0
% es.tEZ (V/m) @ t=0.56
10.469755545393383
% es.Ex (V/m) @ t=0.56
-10.885161884814337
% es.Ey (V/m) @ t=0.56
8.733326735826992
% es.Ez (V/m) @ t=0.56
10.469755545393419
% es.tEx (V/m) @ t=0.56
-10.885161884814334
% es.tEy (V/m) @ t=0.56
0
% es.tEz (V/m) @ t=0.56
10.469755545393383
% V (V) @ t=0.56
0.007234088027992762
% es.normE (V/m) @ t=0.58
23.27337992271575
% es.EX (V/m) @ t=0.58
-10.990788649998919
% es.EY (V/m) @ t=0.58
8.818067372956822
% es.EZ (V/m) @ t=0.58
10.5712855932759
% es.tEX (V/m) @ t=0.58
-10.99078864999894
% es.tEY (V/m) @ t=0.58
0
% es.tEZ (V/m) @ t=0.58
10.571285593275888
% es.Ex (V/m) @ t=0.58
-10.990788649998919
% es.Ey (V/m) @ t=0.58
8.818067372956822
% es.Ez (V/m) @ t=0.58
10.5712855932759
% es.tEx (V/m) @ t=0.58
-10.99078864999894
% es.tEy (V/m) @ t=0.58
0
% es.tEz (V/m) @ t=0.58
10.571285593275888
% V (V) @ t=0.58
0.007304267739785671
% es.normE (V/m) @ t=0.6
23.496997183407913
% es.EX (V/m) @ t=0.6
-11.096415415183543
% es.EY (V/m) @ t=0.6
8.902808010086652
% es.EZ (V/m) @ t=0.6
10.672815641158394
% es.tEX (V/m) @ t=0.6
-11.09641541518355
% es.tEY (V/m) @ t=0.6
0
% es.tEZ (V/m) @ t=0.6
10.672815641158422
% es.Ex (V/m) @ t=0.6
-11.096415415183543
% es.Ey (V/m) @ t=0.6
8.902808010086652
% es.Ez (V/m) @ t=0.6
10.672815641158394
% es.tEx (V/m) @ t=0.6
-11.09641541518355
% es.tEy (V/m) @ t=0.6
0
% es.tEz (V/m) @ t=0.6
10.672815641158422
% V (V) @ t=0.6
0.007374447451578579
% es.normE (V/m) @ t=0.62
23.720614444206696
% es.EX (V/m) @ t=0.62
-11.20204218036816
% es.EY (V/m) @ t=0.62
8.98754864721651
% es.EZ (V/m) @ t=0.62
10.774345689040935
% es.tEX (V/m) @ t=0.62
-11.202042180368156
% es.tEY (V/m) @ t=0.62
0
% es.tEZ (V/m) @ t=0.62
10.774345689040956
% es.Ex (V/m) @ t=0.62
-11.20204218036816
% es.Ey (V/m) @ t=0.62
8.98754864721651
% es.Ez (V/m) @ t=0.62
10.774345689040935
% es.tEx (V/m) @ t=0.62
-11.202042180368156
% es.tEy (V/m) @ t=0.62
0
% es.tEz (V/m) @ t=0.62
10.774345689040956
% V (V) @ t=0.62
0.007444627163371489
% es.normE (V/m) @ t=0.64
23.94423170510902
% es.EX (V/m) @ t=0.64
-11.307668945552813
% es.EY (V/m) @ t=0.64
9.072289284346343
% es.EZ (V/m) @ t=0.64
10.875875736923433
% es.tEX (V/m) @ t=0.64
-11.307668945552802
% es.tEY (V/m) @ t=0.64
0
% es.tEZ (V/m) @ t=0.64
10.875875736923433
% es.Ex (V/m) @ t=0.64
-11.307668945552813
% es.Ey (V/m) @ t=0.64
9.072289284346343
% es.Ez (V/m) @ t=0.64
10.875875736923433
% es.tEx (V/m) @ t=0.64
-11.307668945552802
% es.tEy (V/m) @ t=0.64
0
% es.tEz (V/m) @ t=0.64
10.875875736923433
% V (V) @ t=0.64
0.007514806875164397
% es.normE (V/m) @ t=0.66
24.16784896611209
% es.EX (V/m) @ t=0.66
-11.413295710737401
% es.EY (V/m) @ t=0.66
9.157029921476202
% es.EZ (V/m) @ t=0.66
10.977405784805914
% es.tEX (V/m) @ t=0.66
-11.413295710737408
% es.tEY (V/m) @ t=0.66
0
% es.tEZ (V/m) @ t=0.66
10.97740578480591
% es.Ex (V/m) @ t=0.66
-11.413295710737401
% es.Ey (V/m) @ t=0.66
9.157029921476202
% es.Ez (V/m) @ t=0.66
10.977405784805914
% es.tEx (V/m) @ t=0.66
-11.413295710737408
% es.tEy (V/m) @ t=0.66
0
% es.tEz (V/m) @ t=0.66
10.97740578480591
% V (V) @ t=0.66
0.007584986586957308
% es.normE (V/m) @ t=0.68
24.391466227213122
% es.EX (V/m) @ t=0.68
-11.518922475922047
% es.EY (V/m) @ t=0.68
9.241770558606007
% es.EZ (V/m) @ t=0.68
11.078935832688448
% es.tEX (V/m) @ t=0.68
-11.518922475922032
% es.tEY (V/m) @ t=0.68
0
% es.tEZ (V/m) @ t=0.68
11.078935832688444
% es.Ex (V/m) @ t=0.68
-11.518922475922047
% es.Ey (V/m) @ t=0.68
9.241770558606007
% es.Ez (V/m) @ t=0.68
11.078935832688448
% es.tEx (V/m) @ t=0.68
-11.518922475922032
% es.tEy (V/m) @ t=0.68
0
% es.tEz (V/m) @ t=0.68
11.078935832688444
% V (V) @ t=0.68
0.007655166298750215
% es.normE (V/m) @ t=0.7
24.615083488409404
% es.EX (V/m) @ t=0.7
-11.624549241106642
% es.EY (V/m) @ t=0.7
9.326511195735847
% es.EZ (V/m) @ t=0.7
11.180465880570885
% es.tEX (V/m) @ t=0.7
-11.624549241106621
% es.tEY (V/m) @ t=0.7
0
% es.tEZ (V/m) @ t=0.7
11.180465880570864
% es.Ex (V/m) @ t=0.7
-11.624549241106642
% es.Ey (V/m) @ t=0.7
9.326511195735847
% es.Ez (V/m) @ t=0.7
11.180465880570885
% es.tEx (V/m) @ t=0.7
-11.624549241106621
% es.tEy (V/m) @ t=0.7
0
% es.tEz (V/m) @ t=0.7
11.180465880570864
% V (V) @ t=0.7
0.007725346010543125
% es.normE (V/m) @ t=0.72
24.83870074969844
% es.EX (V/m) @ t=0.72
-11.73017600629126
% es.EY (V/m) @ t=0.72
9.411251832865727
% es.EZ (V/m) @ t=0.72
11.281995928453426
% es.tEX (V/m) @ t=0.72
-11.730176006291273
% es.tEY (V/m) @ t=0.72
0
% es.tEZ (V/m) @ t=0.72
11.281995928453426
% es.Ex (V/m) @ t=0.72
-11.73017600629126
% es.Ey (V/m) @ t=0.72
9.411251832865727
% es.Ez (V/m) @ t=0.72
11.281995928453426
% es.tEx (V/m) @ t=0.72
-11.730176006291273
% es.tEy (V/m) @ t=0.72
0
% es.tEz (V/m) @ t=0.72
11.281995928453426
% V (V) @ t=0.72
0.007795525722336034
% es.normE (V/m) @ t=0.74
25.06231801107763
% es.EX (V/m) @ t=0.74
-11.835802771475848
% es.EY (V/m) @ t=0.74
9.495992469995553
% es.EZ (V/m) @ t=0.74
11.383525976335854
% es.tEX (V/m) @ t=0.74
-11.835802771475834
% es.tEY (V/m) @ t=0.74
0
% es.tEZ (V/m) @ t=0.74
11.383525976335875
% es.Ex (V/m) @ t=0.74
-11.835802771475848
% es.Ey (V/m) @ t=0.74
9.495992469995553
% es.Ez (V/m) @ t=0.74
11.383525976335854
% es.tEx (V/m) @ t=0.74
-11.835802771475834
% es.tEy (V/m) @ t=0.74
0
% es.tEz (V/m) @ t=0.74
11.383525976335875
% V (V) @ t=0.74
0.007865705434128942
% es.normE (V/m) @ t=0.76
25.285935272544727
% es.EX (V/m) @ t=0.76
-11.941429536660479
% es.EY (V/m) @ t=0.76
9.580733107125365
% es.EZ (V/m) @ t=0.76
11.485056024218395
% es.tEX (V/m) @ t=0.76
-11.941429536660515
% es.tEY (V/m) @ t=0.76
0
% es.tEZ (V/m) @ t=0.76
11.485056024218409
% es.Ex (V/m) @ t=0.76
-11.941429536660479
% es.Ey (V/m) @ t=0.76
9.580733107125365
% es.Ez (V/m) @ t=0.76
11.485056024218395
% es.tEx (V/m) @ t=0.76
-11.941429536660515
% es.tEy (V/m) @ t=0.76
0
% es.tEz (V/m) @ t=0.76
11.485056024218409
% V (V) @ t=0.76
0.007935885145921851
% es.normE (V/m) @ t=0.78
25.509552534097388
% es.EX (V/m) @ t=0.78
-12.04705630184511
% es.EY (V/m) @ t=0.78
9.665473744255213
% es.EZ (V/m) @ t=0.78
11.58658607210091
% es.tEX (V/m) @ t=0.78
-12.04705630184511
% es.tEY (V/m) @ t=0.78
0
% es.tEZ (V/m) @ t=0.78
11.586586072100914
% es.Ex (V/m) @ t=0.78
-12.04705630184511
% es.Ey (V/m) @ t=0.78
9.665473744255213
% es.Ez (V/m) @ t=0.78
11.58658607210091
% es.tEx (V/m) @ t=0.78
-12.04705630184511
% es.tEy (V/m) @ t=0.78
0
% es.tEz (V/m) @ t=0.78
11.586586072100914
% V (V) @ t=0.78
0.008006064857714762
% es.normE (V/m) @ t=0.8
25.733169795733303
% es.EX (V/m) @ t=0.8
-12.152683067029727
% es.EY (V/m) @ t=0.8
9.750214381385064
% es.EZ (V/m) @ t=0.8
11.688116119983391
% es.tEX (V/m) @ t=0.8
-12.15268306702972
% es.tEY (V/m) @ t=0.8
0
% es.tEZ (V/m) @ t=0.8
11.68811611998342
% es.Ex (V/m) @ t=0.8
-12.152683067029727
% es.Ey (V/m) @ t=0.8
9.750214381385064
% es.Ez (V/m) @ t=0.8
11.688116119983391
% es.tEx (V/m) @ t=0.8
-12.15268306702972
% es.tEy (V/m) @ t=0.8
0
% es.tEz (V/m) @ t=0.8
11.68811611998342
% V (V) @ t=0.8
0.00807624456950767
% es.normE (V/m) @ t=0.82
25.959807289547236
% es.EX (V/m) @ t=0.82
-12.259734202983154
% es.EY (V/m) @ t=0.82
9.836098228950817
% es.EZ (V/m) @ t=0.82
11.79102136446209
% es.tEX (V/m) @ t=0.82
-12.259734202983147
% es.tEY (V/m) @ t=0.82
0
% es.tEZ (V/m) @ t=0.82
11.791021364462097
% es.Ex (V/m) @ t=0.82
-12.259734202983154
% es.Ey (V/m) @ t=0.82
9.836098228950817
% es.Ez (V/m) @ t=0.82
11.79102136446209
% es.tEx (V/m) @ t=0.82
-12.259734202983147
% es.tEy (V/m) @ t=0.82
0
% es.tEz (V/m) @ t=0.82
11.791021364462097
% V (V) @ t=0.82
0.008147372311819778
% es.normE (V/m) @ t=0.84
26.2100459891801
% es.EX (V/m) @ t=0.84
-12.377915896637354
% es.EY (V/m) @ t=0.84
9.930915543840925
% es.EZ (V/m) @ t=0.84
11.904672901548558
% es.tEX (V/m) @ t=0.84
-12.37791589663734
% es.tEY (V/m) @ t=0.84
0
% es.tEZ (V/m) @ t=0.84
11.904672901548565
% es.Ex (V/m) @ t=0.84
-12.377915896637354
% es.Ey (V/m) @ t=0.84
9.930915543840925
% es.Ez (V/m) @ t=0.84
11.904672901548558
% es.tEx (V/m) @ t=0.84
-12.37791589663734
% es.tEy (V/m) @ t=0.84
0
% es.tEz (V/m) @ t=0.84
11.904672901548565
% V (V) @ t=0.84
0.008225908313713517
% es.normE (V/m) @ t=0.86
26.460284688816184
% es.EX (V/m) @ t=0.86
-12.49609759029159
% es.EY (V/m) @ t=0.86
10.025732858731068
% es.EZ (V/m) @ t=0.86
12.018324438635087
% es.tEX (V/m) @ t=0.86
-12.496097590291583
% es.tEY (V/m) @ t=0.86
0
% es.tEZ (V/m) @ t=0.86
12.018324438635062
% es.Ex (V/m) @ t=0.86
-12.49609759029159
% es.Ey (V/m) @ t=0.86
10.025732858731068
% es.Ez (V/m) @ t=0.86
12.018324438635087
% es.tEx (V/m) @ t=0.86
-12.496097590291583
% es.tEy (V/m) @ t=0.86
0
% es.tEz (V/m) @ t=0.86
12.018324438635062
% V (V) @ t=0.86
0.008304444315607257
% es.normE (V/m) @ t=0.88
26.710523388455265
% es.EX (V/m) @ t=0.88
-12.614279283945791
% es.EY (V/m) @ t=0.88
10.120550173621226
% es.EZ (V/m) @ t=0.88
12.131975975721527
% es.tEX (V/m) @ t=0.88
-12.614279283945791
% es.tEY (V/m) @ t=0.88
0
% es.tEZ (V/m) @ t=0.88
12.13197597572153
% es.Ex (V/m) @ t=0.88
-12.614279283945791
% es.Ey (V/m) @ t=0.88
10.120550173621226
% es.Ez (V/m) @ t=0.88
12.131975975721527
% es.tEx (V/m) @ t=0.88
-12.614279283945791
% es.tEy (V/m) @ t=0.88
0
% es.tEz (V/m) @ t=0.88
12.13197597572153
% V (V) @ t=0.88
0.008382980317500996
% es.normE (V/m) @ t=0.9
26.96076208809739
% es.EX (V/m) @ t=0.9
-12.732460977599978
% es.EY (V/m) @ t=0.9
10.215367488511358
% es.EZ (V/m) @ t=0.9
12.245627512808067
% es.tEX (V/m) @ t=0.9
-12.732460977599978
% es.tEY (V/m) @ t=0.9
0
% es.tEZ (V/m) @ t=0.9
12.245627512808085
% es.Ex (V/m) @ t=0.9
-12.732460977599978
% es.Ey (V/m) @ t=0.9
10.215367488511358
% es.Ez (V/m) @ t=0.9
12.245627512808067
% es.tEx (V/m) @ t=0.9
-12.732460977599978
% es.tEy (V/m) @ t=0.9
0
% es.tEz (V/m) @ t=0.9
12.245627512808085
% V (V) @ t=0.9
0.008461516319394735
% es.normE (V/m) @ t=0.92
27.211000787742385
% es.EX (V/m) @ t=0.92
-12.850642671254192
% es.EY (V/m) @ t=0.92
10.310184803401473
% es.EZ (V/m) @ t=0.92
12.359279049894532
% es.tEX (V/m) @ t=0.92
-12.850642671254207
% es.tEY (V/m) @ t=0.92
0
% es.tEZ (V/m) @ t=0.92
12.359279049894525
% es.Ex (V/m) @ t=0.92
-12.850642671254192
% es.Ey (V/m) @ t=0.92
10.310184803401473
% es.Ez (V/m) @ t=0.92
12.359279049894532
% es.tEx (V/m) @ t=0.92
-12.850642671254207
% es.tEy (V/m) @ t=0.92
0
% es.tEz (V/m) @ t=0.92
12.359279049894525
% V (V) @ t=0.92
0.008540052321288476
% es.normE (V/m) @ t=0.94
27.461239487390266
% es.EX (V/m) @ t=0.94
-12.968824364908443
% es.EY (V/m) @ t=0.94
10.405002118291591
% es.EZ (V/m) @ t=0.94
12.472930586981033
% es.tEX (V/m) @ t=0.94
-12.96882436490845
% es.tEY (V/m) @ t=0.94
0
% es.tEZ (V/m) @ t=0.94
12.472930586981022
% es.Ex (V/m) @ t=0.94
-12.968824364908443
% es.Ey (V/m) @ t=0.94
10.405002118291591
% es.Ez (V/m) @ t=0.94
12.472930586981033
% es.tEx (V/m) @ t=0.94
-12.96882436490845
% es.tEy (V/m) @ t=0.94
0
% es.tEz (V/m) @ t=0.94
12.472930586981022
% V (V) @ t=0.94
0.008618588323182215
% es.normE (V/m) @ t=0.96
27.71147818704071
% es.EX (V/m) @ t=0.96
-13.087006058562565
% es.EY (V/m) @ t=0.96
10.49981943318172
% es.EZ (V/m) @ t=0.96
12.586582124067437
% es.tEX (V/m) @ t=0.96
-13.087006058562551
% es.tEY (V/m) @ t=0.96
0
% es.tEZ (V/m) @ t=0.96
12.586582124067462
% es.Ex (V/m) @ t=0.96
-13.087006058562565
% es.Ey (V/m) @ t=0.96
10.49981943318172
% es.Ez (V/m) @ t=0.96
12.586582124067437
% es.tEx (V/m) @ t=0.96
-13.087006058562551
% es.tEy (V/m) @ t=0.96
0
% es.tEz (V/m) @ t=0.96
12.586582124067462
% V (V) @ t=0.96
0.008697124325075955
% es.normE (V/m) @ t=0.98
27.961716886694035
% es.EX (V/m) @ t=0.98
-13.205187752216823
% es.EY (V/m) @ t=0.98
10.594636748071888
% es.EZ (V/m) @ t=0.98
12.700233661153927
% es.tEX (V/m) @ t=0.98
-13.205187752216851
% es.tEY (V/m) @ t=0.98
0
% es.tEZ (V/m) @ t=0.98
12.700233661153959
% es.Ex (V/m) @ t=0.98
-13.205187752216823
% es.Ey (V/m) @ t=0.98
10.594636748071888
% es.Ez (V/m) @ t=0.98
12.700233661153927
% es.tEx (V/m) @ t=0.98
-13.205187752216851
% es.tEy (V/m) @ t=0.98
0
% es.tEz (V/m) @ t=0.98
12.700233661153959
% V (V) @ t=0.98
0.008775660326969694
% es.normE (V/m) @ t=1
28.211955586349884
% es.EX (V/m) @ t=1
-13.323369445870995
% es.EY (V/m) @ t=1
10.689454062962032
% es.EZ (V/m) @ t=1
12.813885198240431
% es.tEX (V/m) @ t=1
-13.323369445870988
% es.tEY (V/m) @ t=1
0
% es.tEZ (V/m) @ t=1
12.8138851982404
% es.Ex (V/m) @ t=1
-13.323369445870995
% es.Ey (V/m) @ t=1
10.689454062962032
% es.Ez (V/m) @ t=1
12.813885198240431
% es.tEx (V/m) @ t=1
-13.323369445870988
% es.tEy (V/m) @ t=1
0
% es.tEz (V/m) @ t=1
12.8138851982404
% V (V) @ t=1
0.008854196328863435
% es.normE (V/m) @ t=1.02
28.46219428600831
% es.EX (V/m) @ t=1.02
-13.441551139525231
% es.EY (V/m) @ t=1.02
10.784271377852157
% es.EZ (V/m) @ t=1.02
12.92753673532691
% es.tEX (V/m) @ t=1.02
-13.441551139525217
% es.tEY (V/m) @ t=1.02
0
% es.tEZ (V/m) @ t=1.02
12.927536735326896
% es.Ex (V/m) @ t=1.02
-13.441551139525231
% es.Ey (V/m) @ t=1.02
10.784271377852157
% es.Ez (V/m) @ t=1.02
12.92753673532691
% es.tEx (V/m) @ t=1.02
-13.441551139525217
% es.tEy (V/m) @ t=1.02
0
% es.tEz (V/m) @ t=1.02
12.927536735326896
% V (V) @ t=1.02
0.008932732330757174
% es.normE (V/m) @ t=1.04
28.712432985669174
% es.EX (V/m) @ t=1.04
-13.559732833179417
% es.EY (V/m) @ t=1.04
10.879088692742283
% es.EZ (V/m) @ t=1.04
13.041188272413368
% es.tEX (V/m) @ t=1.04
-13.559732833179424
% es.tEY (V/m) @ t=1.04
0
% es.tEZ (V/m) @ t=1.04
13.041188272413365
% es.Ex (V/m) @ t=1.04
-13.559732833179417
% es.Ey (V/m) @ t=1.04
10.879088692742283
% es.Ez (V/m) @ t=1.04
13.041188272413368
% es.tEx (V/m) @ t=1.04
-13.559732833179424
% es.tEy (V/m) @ t=1.04
0
% es.tEz (V/m) @ t=1.04
13.041188272413365
% V (V) @ t=1.04
0.009011268332650913