% Model:              1 neuron.mph
% Version:            COMSOL 6.1.0.252
% Date:               Mar 18 2023, 12:44
% Dimension:          0
% Nodes:              14017
% Expressions:        14017
% Description:        Electric field norm, Electric field, X component, Electric field, Y component, Electric field, Z component, Tangential electric field, X component, Tangential electric field, Y component, Tangential electric field, Z component, Electric field, x component, Electric field, y component, Electric field, z component, Tangential electric field, x component, Tangential electric field, y component, Tangential electric field, z component, Electric potential
% Length unit:        mm
% x
2
% y
12.2
% z
1
% es.normE (V/m) @ t=0
0.7749913018916128
% es.EX (V/m) @ t=0
-0.5004799557956308
% es.EY (V/m) @ t=0
0.11119489427437673
% es.EZ (V/m) @ t=0
0.5707757449890303
% es.tEX (V/m) @ t=0
-0.5004799557956308
% es.tEY (V/m) @ t=0
0
% es.tEZ (V/m) @ t=0
0.570775744989036
% es.Ex (V/m) @ t=0
-0.5004799557956308
% es.Ey (V/m) @ t=0
0.11119489427437673
% es.Ez (V/m) @ t=0
0.5707757449890303
% es.tEx (V/m) @ t=0
-0.5004799557956308
% es.tEy (V/m) @ t=0
0
% es.tEz (V/m) @ t=0
0.570775744989036
% V (V) @ t=0
0.007500382619614506
% es.normE (V/m) @ t=0.02
0.6693686036901358
% es.EX (V/m) @ t=0.02
-0.4322701008214245
% es.EY (V/m) @ t=0.02
0.09604026905370378
% es.EZ (V/m) @ t=0.02
0.49298535701309865
% es.tEX (V/m) @ t=0.02
-0.4322701008214229
% es.tEY (V/m) @ t=0.02
0
% es.tEZ (V/m) @ t=0.02
0.49298535701310087
% es.Ex (V/m) @ t=0.02
-0.4322701008214245
% es.Ey (V/m) @ t=0.02
0.09604026905370378
% es.Ez (V/m) @ t=0.02
0.49298535701309865
% es.tEx (V/m) @ t=0.02
-0.4322701008214229
% es.tEy (V/m) @ t=0.02
0
% es.tEz (V/m) @ t=0.02
0.49298535701310087
% V (V) @ t=0.02
0.006478163721609879
% es.normE (V/m) @ t=0.04
0.6755258407807625
% es.EX (V/m) @ t=0.04
-0.43624636795484717
% es.EY (V/m) @ t=0.04
0.09692370612326145
% es.EZ (V/m) @ t=0.04
0.49752011997077883
% es.tEX (V/m) @ t=0.04
-0.4362463679548474
% es.tEY (V/m) @ t=0.04
0
% es.tEZ (V/m) @ t=0.04
0.4975201199707828
% es.Ex (V/m) @ t=0.04
-0.43624636795484717
% es.Ey (V/m) @ t=0.04
0.09692370612326145
% es.Ez (V/m) @ t=0.04
0.49752011997077883
% es.tEx (V/m) @ t=0.04
-0.4362463679548474
% es.tEy (V/m) @ t=0.04
0
% es.tEz (V/m) @ t=0.04
0.4975201199707828
% V (V) @ t=0.04
0.006537753415608967
% es.normE (V/m) @ t=0.06
0.6817396381329481
% es.EX (V/m) @ t=0.06
-0.44025916287583966
% es.EY (V/m) @ t=0.06
0.09781525453212853
% es.EZ (V/m) @ t=0.06
0.5020965387962781
% es.tEX (V/m) @ t=0.06
-0.4402591628758381
% es.tEY (V/m) @ t=0.06
0
% es.tEZ (V/m) @ t=0.06
0.5020965387962821
% es.Ex (V/m) @ t=0.06
-0.44025916287583966
% es.Ey (V/m) @ t=0.06
0.09781525453212853
% es.Ez (V/m) @ t=0.06
0.5020965387962781
% es.tEx (V/m) @ t=0.06
-0.4402591628758381
% es.tEy (V/m) @ t=0.06
0
% es.tEz (V/m) @ t=0.06
0.5020965387962821
% V (V) @ t=0.06
0.006597890699940991
% es.normE (V/m) @ t=0.08
0.6880458083786789
% es.EX (V/m) @ t=0.08
-0.4443316105421571
% es.EY (V/m) @ t=0.08
0.09872005762910802
% es.EZ (V/m) @ t=0.08
0.5067409897329873
% es.tEX (V/m) @ t=0.08
-0.44433161054215753
% es.tEY (V/m) @ t=0.08
0
% es.tEZ (V/m) @ t=0.08
0.5067409897329873
% es.Ex (V/m) @ t=0.08
-0.4443316105421571
% es.Ey (V/m) @ t=0.08
0.09872005762910802
% es.Ez (V/m) @ t=0.08
0.5067409897329873
% es.tEx (V/m) @ t=0.08
-0.44433161054215753
% es.tEy (V/m) @ t=0.08
0
% es.tEz (V/m) @ t=0.08
0.5067409897329873
% V (V) @ t=0.08
0.006658921912713043
% es.normE (V/m) @ t=0.1
0.6944212794822313
% es.EX (V/m) @ t=0.1
-0.4484488114500862
% es.EY (V/m) @ t=0.1
0.09963480478240849
% es.EZ (V/m) @ t=0.1
0.5114364803576921
% es.tEX (V/m) @ t=0.1
-0.44844881145008464
% es.tEY (V/m) @ t=0.1
0
% es.tEZ (V/m) @ t=0.1
0.5114364803576956
% es.Ex (V/m) @ t=0.1
-0.4484488114500862
% es.Ey (V/m) @ t=0.1
0.09963480478240849
% es.Ez (V/m) @ t=0.1
0.5114364803576921
% es.tEx (V/m) @ t=0.1
-0.44844881145008464
% es.tEy (V/m) @ t=0.1
0
% es.tEz (V/m) @ t=0.1
0.5114364803576956
% V (V) @ t=0.1
0.0067206237768564926
% es.normE (V/m) @ t=0.12
0.7007967505857904
% es.EX (V/m) @ t=0.12
-0.4525660123580151
% es.EY (V/m) @ t=0.12
0.10054955193570358
% es.EZ (V/m) @ t=0.12
0.5161319709824079
% es.tEX (V/m) @ t=0.12
-0.4525660123580133
% es.tEY (V/m) @ t=0.12
0
% es.tEZ (V/m) @ t=0.12
0.5161319709824115
% es.Ex (V/m) @ t=0.12
-0.4525660123580151
% es.Ey (V/m) @ t=0.12
0.10054955193570358
% es.Ez (V/m) @ t=0.12
0.5161319709824079
% es.tEx (V/m) @ t=0.12
-0.4525660123580133
% es.tEy (V/m) @ t=0.12
0
% es.tEz (V/m) @ t=0.12
0.5161319709824115
% V (V) @ t=0.12
0.00678232564099994
% es.normE (V/m) @ t=0.14
0.7072244864669074
% es.EX (V/m) @ t=0.14
-0.45671696653346006
% es.EY (V/m) @ t=0.14
0.10147179526936823
% es.EZ (V/m) @ t=0.14
0.5208659539869545
% es.tEX (V/m) @ t=0.14
-0.4567169665334585
% es.tEY (V/m) @ t=0.14
0
% es.tEZ (V/m) @ t=0.14
0.5208659539869585
% es.Ex (V/m) @ t=0.14
-0.45671696653346006
% es.Ey (V/m) @ t=0.14
0.10147179526936823
% es.Ez (V/m) @ t=0.14
0.5208659539869545
% es.tEx (V/m) @ t=0.14
-0.4567169665334585
% es.tEy (V/m) @ t=0.14
0
% es.tEz (V/m) @ t=0.14
0.5208659539869585
% V (V) @ t=0.14
0.006844533464694125
% es.normE (V/m) @ t=0.16
0.7139421772462246
% es.EX (V/m) @ t=0.16
-0.4610551773223479
% es.EY (V/m) @ t=0.16
0.10243562596481637
% es.EZ (V/m) @ t=0.16
0.5258134852853287
% es.tEX (V/m) @ t=0.16
-0.46105517732234813
% es.tEY (V/m) @ t=0.16
0
% es.tEZ (V/m) @ t=0.16
0.5258134852853327
% es.Ex (V/m) @ t=0.16
-0.4610551773223479
% es.Ey (V/m) @ t=0.16
0.10243562596481637
% es.Ez (V/m) @ t=0.16
0.5258134852853287
% es.tEx (V/m) @ t=0.16
-0.46105517732234813
% es.tEy (V/m) @ t=0.16
0
% es.tEz (V/m) @ t=0.16
0.5258134852853327
% V (V) @ t=0.16
0.0069095482543199945
% es.normE (V/m) @ t=0.18
0.7206598680255537
% es.EX (V/m) @ t=0.18
-0.46539338811123754
% es.EY (V/m) @ t=0.18
0.10339945666025746
% es.EZ (V/m) @ t=0.18
0.5307610165837207
% es.tEX (V/m) @ t=0.18
-0.465393388111236
% es.tEY (V/m) @ t=0.18
0
% es.tEZ (V/m) @ t=0.18
0.5307610165837247
% es.Ex (V/m) @ t=0.18
-0.46539338811123754
% es.Ey (V/m) @ t=0.18
0.10339945666025746
% es.Ez (V/m) @ t=0.18
0.5307610165837207
% es.tEx (V/m) @ t=0.18
-0.465393388111236
% es.tEy (V/m) @ t=0.18
0
% es.tEz (V/m) @ t=0.18
0.5307610165837247
% V (V) @ t=0.18
0.006974563043945864
% es.normE (V/m) @ t=0.2
0.7273775588048822
% es.EX (V/m) @ t=0.2
-0.4697315989001276
% es.EY (V/m) @ t=0.2
0.10436328735571371
% es.EZ (V/m) @ t=0.2
0.5357085478821046
% es.tEX (V/m) @ t=0.2
-0.46973159890012584
% es.tEY (V/m) @ t=0.2
0
% es.tEZ (V/m) @ t=0.2
0.5357085478821051
% es.Ex (V/m) @ t=0.2
-0.4697315989001276
% es.Ey (V/m) @ t=0.2
0.10436328735571371
% es.Ez (V/m) @ t=0.2
0.5357085478821046
% es.tEx (V/m) @ t=0.2
-0.46973159890012584
% es.tEy (V/m) @ t=0.2
0
% es.tEz (V/m) @ t=0.2
0.5357085478821051
% V (V) @ t=0.2
0.007039577833571733
% es.normE (V/m) @ t=0.22
0.734095249584207
% es.EX (V/m) @ t=0.22
-0.4740698096890159
% es.EY (V/m) @ t=0.22
0.10532711805116729
% es.EZ (V/m) @ t=0.22
0.5406560791804855
% es.tEX (V/m) @ t=0.22
-0.47406980968901413
% es.tEY (V/m) @ t=0.22
0
% es.tEZ (V/m) @ t=0.22
0.5406560791804931
% es.Ex (V/m) @ t=0.22
-0.4740698096890159
% es.Ey (V/m) @ t=0.22
0.10532711805116729
% es.Ez (V/m) @ t=0.22
0.5406560791804855
% es.tEx (V/m) @ t=0.22
-0.47406980968901413
% es.tEy (V/m) @ t=0.22
0
% es.tEz (V/m) @ t=0.22
0.5406560791804931
% V (V) @ t=0.22
0.007104592623197603
% es.normE (V/m) @ t=0.24
0.7408129403635402
% es.EX (V/m) @ t=0.24
-0.47840802047790887
% es.EY (V/m) @ t=0.24
0.10629094874661454
% es.EZ (V/m) @ t=0.24
0.5456036104788757
% es.tEX (V/m) @ t=0.24
-0.47840802047790754
% es.tEY (V/m) @ t=0.24
0
% es.tEZ (V/m) @ t=0.24
0.5456036104788815
% es.Ex (V/m) @ t=0.24
-0.47840802047790887
% es.Ey (V/m) @ t=0.24
0.10629094874661454
% es.Ez (V/m) @ t=0.24
0.5456036104788757
% es.tEx (V/m) @ t=0.24
-0.47840802047790754
% es.tEy (V/m) @ t=0.24
0
% es.tEz (V/m) @ t=0.24
0.5456036104788815
% V (V) @ t=0.24
0.007169607412823472
% es.normE (V/m) @ t=0.26
0.7475306311428674
% es.EX (V/m) @ t=0.26
-0.4827462312667967
% es.EY (V/m) @ t=0.26
0.1072547794420663
% es.EZ (V/m) @ t=0.26
0.5505511417772588
% es.tEX (V/m) @ t=0.26
-0.48274623126679495
% es.tEY (V/m) @ t=0.26
0
% es.tEZ (V/m) @ t=0.26
0.5505511417772628
% es.Ex (V/m) @ t=0.26
-0.4827462312667967
% es.Ey (V/m) @ t=0.26
0.1072547794420663
% es.Ez (V/m) @ t=0.26
0.5505511417772588
% es.tEx (V/m) @ t=0.26
-0.48274623126679495
% es.tEy (V/m) @ t=0.26
0
% es.tEz (V/m) @ t=0.26
0.5505511417772628
% V (V) @ t=0.26
0.007234622202449343
% es.normE (V/m) @ t=0.28
0.7544918377756263
% es.EX (V/m) @ t=0.28
-0.48724187306957956
% es.EY (V/m) @ t=0.28
0.10825319461094296
% es.EZ (V/m) @ t=0.28
0.5556779857189675
% es.tEX (V/m) @ t=0.28
-0.4872418730695778
% es.tEY (V/m) @ t=0.28
0
% es.tEZ (V/m) @ t=0.28
0.5556779857189751
% es.Ex (V/m) @ t=0.28
-0.48724187306957956
% es.Ey (V/m) @ t=0.28
0.10825319461094296
% es.Ez (V/m) @ t=0.28
0.5556779857189675
% es.tEx (V/m) @ t=0.28
-0.4872418730695778
% es.tEy (V/m) @ t=0.28
0
% es.tEz (V/m) @ t=0.28
0.5556779857189751
% V (V) @ t=0.28
0.00730201205133172
% es.normE (V/m) @ t=0.3
0.7619814643062568
% es.EX (V/m) @ t=0.3
-0.4920791340270163
% es.EY (V/m) @ t=0.3
0.10932665673711378
% es.EZ (V/m) @ t=0.3
0.5611939310970069
% es.tEX (V/m) @ t=0.3
-0.49207913402701453
% es.tEY (V/m) @ t=0.3
0
% es.tEZ (V/m) @ t=0.3
0.5611939310970144
% es.Ex (V/m) @ t=0.3
-0.4920791340270163
% es.Ey (V/m) @ t=0.3
0.10932665673711378
% es.Ez (V/m) @ t=0.3
0.5611939310970069
% es.tEx (V/m) @ t=0.3
-0.49207913402701453
% es.tEy (V/m) @ t=0.3
0
% es.tEz (V/m) @ t=0.3
0.5611939310970144
% V (V) @ t=0.3
0.007374555686087454
% es.normE (V/m) @ t=0.32
0.7694710908396343
% es.EX (V/m) @ t=0.32
-0.49691639498445017
% es.EY (V/m) @ t=0.32
0.11040011886328821
% es.EZ (V/m) @ t=0.32
0.5667098764750493
% es.tEX (V/m) @ t=0.32
-0.4969163949844504
% es.tEY (V/m) @ t=0.32
0
% es.tEZ (V/m) @ t=0.32
0.5667098764750569
% es.Ex (V/m) @ t=0.32
-0.49691639498445017
% es.Ey (V/m) @ t=0.32
0.11040011886328821
% es.Ez (V/m) @ t=0.32
0.5667098764750493
% es.tEx (V/m) @ t=0.32
-0.4969163949844504
% es.tEy (V/m) @ t=0.32
0
% es.tEz (V/m) @ t=0.32
0.5667098764750569
% V (V) @ t=0.32
0.007447099320843187
% es.normE (V/m) @ t=0.34
0.7769607173756787
% es.EX (V/m) @ t=0.34
-0.5017536559418854
% es.EY (V/m) @ t=0.34
0.11147358098945104
% es.EZ (V/m) @ t=0.34
0.5722258218530905
% es.tEX (V/m) @ t=0.34
-0.5017536559418838
% es.tEY (V/m) @ t=0.34
0
% es.tEZ (V/m) @ t=0.34
0.5722258218530962
% es.Ex (V/m) @ t=0.34
-0.5017536559418854
% es.Ey (V/m) @ t=0.34
0.11147358098945104
% es.Ez (V/m) @ t=0.34
0.5722258218530905
% es.tEx (V/m) @ t=0.34
-0.5017536559418838
% es.tEy (V/m) @ t=0.34
0
% es.tEz (V/m) @ t=0.34
0.5722258218530962
% V (V) @ t=0.34
0.007519642955598919
% es.normE (V/m) @ t=0.36
0.7844503439143189
% es.EX (V/m) @ t=0.36
-0.506590916899321
% es.EY (V/m) @ t=0.36
0.11254704311562819
% es.EZ (V/m) @ t=0.36
0.5777417672311347
% es.tEX (V/m) @ t=0.36
-0.506590916899321
% es.tEY (V/m) @ t=0.36
0
% es.tEZ (V/m) @ t=0.36
0.5777417672311316
% es.Ex (V/m) @ t=0.36
-0.506590916899321
% es.Ey (V/m) @ t=0.36
0.11254704311562819
% es.Ez (V/m) @ t=0.36
0.5777417672311347
% es.tEx (V/m) @ t=0.36
-0.506590916899321
% es.tEy (V/m) @ t=0.36
0
% es.tEz (V/m) @ t=0.36
0.5777417672311316
% V (V) @ t=0.36
0.007592186590354653
% es.normE (V/m) @ t=0.38
0.7919399704554746
% es.EX (V/m) @ t=0.38
-0.511428177856758
% es.EY (V/m) @ t=0.38
0.11362050524179368
% es.EZ (V/m) @ t=0.38
0.5832577126091745
% es.tEX (V/m) @ t=0.38
-0.5114281778567562
% es.tEY (V/m) @ t=0.38
0
% es.tEZ (V/m) @ t=0.38
0.583257712609178
% es.Ex (V/m) @ t=0.38
-0.511428177856758
% es.Ey (V/m) @ t=0.38
0.11362050524179368
% es.Ez (V/m) @ t=0.38
0.5832577126091745
% es.tEx (V/m) @ t=0.38
-0.5114281778567562
% es.tEy (V/m) @ t=0.38
0
% es.tEz (V/m) @ t=0.38
0.583257712609178
% V (V) @ t=0.38
0.007664730225110386
% es.normE (V/m) @ t=0.4
0.799429596999071
% es.EX (V/m) @ t=0.4
-0.5162654388141916
% es.EY (V/m) @ t=0.4
0.114693967367961
% es.EZ (V/m) @ t=0.4
0.5887736579872116
% es.tEX (V/m) @ t=0.4
-0.5162654388141898
% es.tEY (V/m) @ t=0.4
0
% es.tEZ (V/m) @ t=0.4
0.5887736579872138
% es.Ex (V/m) @ t=0.4
-0.5162654388141916
% es.Ey (V/m) @ t=0.4
0.114693967367961
% es.Ez (V/m) @ t=0.4
0.5887736579872116
% es.tEx (V/m) @ t=0.4
-0.5162654388141898
% es.tEy (V/m) @ t=0.4
0
% es.tEz (V/m) @ t=0.4
0.5887736579872138
% V (V) @ t=0.4
0.00773727385986612
% es.normE (V/m) @ t=0.42
0.8069192235450523
% es.EX (V/m) @ t=0.42
-0.5211026997716215
% es.EY (V/m) @ t=0.42
0.11576742949413715
% es.EZ (V/m) @ t=0.42
0.5942896033652563
% es.tEX (V/m) @ t=0.42
-0.5211026997716215
% es.tEY (V/m) @ t=0.42
0
% es.tEZ (V/m) @ t=0.42
0.5942896033652709
% es.Ex (V/m) @ t=0.42
-0.5211026997716215
% es.Ey (V/m) @ t=0.42
0.11576742949413715
% es.Ez (V/m) @ t=0.42
0.5942896033652563
% es.tEx (V/m) @ t=0.42
-0.5211026997716215
% es.tEy (V/m) @ t=0.42
0
% es.tEz (V/m) @ t=0.42
0.5942896033652709
% V (V) @ t=0.42
0.007809817494621852
% es.normE (V/m) @ t=0.44
0.8144088500933471
% es.EX (V/m) @ t=0.44
-0.5259399607290605
% es.EY (V/m) @ t=0.44
0.11684089162030087
% es.EZ (V/m) @ t=0.44
0.5998055487432992
% es.tEX (V/m) @ t=0.44
-0.5259399607290587
% es.tEY (V/m) @ t=0.44
0
% es.tEZ (V/m) @ t=0.44
0.5998055487433067
% es.Ex (V/m) @ t=0.44
-0.5259399607290605
% es.Ey (V/m) @ t=0.44
0.11684089162030087
% es.Ez (V/m) @ t=0.44
0.5998055487432992
% es.tEx (V/m) @ t=0.44
-0.5259399607290587
% es.tEy (V/m) @ t=0.44
0
% es.tEz (V/m) @ t=0.44
0.5998055487433067
% V (V) @ t=0.44
0.007882361129377586
% es.normE (V/m) @ t=0.46
0.8218984766438917
% es.EX (V/m) @ t=0.46
-0.5307772216864959
% es.EY (V/m) @ t=0.46
0.11791435374646114
% es.EZ (V/m) @ t=0.46
0.6053214941213412
% es.tEX (V/m) @ t=0.46
-0.5307772216864957
% es.tEY (V/m) @ t=0.46
0
% es.tEZ (V/m) @ t=0.46
0.6053214941213452
% es.Ex (V/m) @ t=0.46
-0.5307772216864959
% es.Ey (V/m) @ t=0.46
0.11791435374646114
% es.Ez (V/m) @ t=0.46
0.6053214941213412
% es.tEx (V/m) @ t=0.46
-0.5307772216864957
% es.tEy (V/m) @ t=0.46
0
% es.tEz (V/m) @ t=0.46
0.6053214941213452
% V (V) @ t=0.46
0.007954904764133318
% es.normE (V/m) @ t=0.48
0.8293881031966213
% es.EX (V/m) @ t=0.48
-0.535614482643926
% es.EY (V/m) @ t=0.48
0.11898781587263729
% es.EZ (V/m) @ t=0.48
0.6108374394993805
% es.tEX (V/m) @ t=0.48
-0.5356144826439257
% es.tEY (V/m) @ t=0.48
0
% es.tEZ (V/m) @ t=0.48
0.6108374394993881
% es.Ex (V/m) @ t=0.48
-0.535614482643926
% es.Ey (V/m) @ t=0.48
0.11898781587263729
% es.Ez (V/m) @ t=0.48
0.6108374394993805
% es.tEx (V/m) @ t=0.48
-0.5356144826439257
% es.tEy (V/m) @ t=0.48
0
% es.tEz (V/m) @ t=0.48
0.6108374394993881
% V (V) @ t=0.48
0.008027448398889053
% es.normE (V/m) @ t=0.5
0.8368777297514937
% es.EX (V/m) @ t=0.5
-0.5404517436013687
% es.EY (V/m) @ t=0.5
0.12006127799881355
% es.EZ (V/m) @ t=0.5
0.6163533848774261
% es.tEX (V/m) @ t=0.5
-0.5404517436013669
% es.tEY (V/m) @ t=0.5
0
% es.tEZ (V/m) @ t=0.5
0.616353384877427
% es.Ex (V/m) @ t=0.5
-0.5404517436013687
% es.Ey (V/m) @ t=0.5
0.12006127799881355
% es.Ez (V/m) @ t=0.5
0.6163533848774261
% es.tEx (V/m) @ t=0.5
-0.5404517436013669
% es.tEy (V/m) @ t=0.5
0
% es.tEz (V/m) @ t=0.5
0.616353384877427
% V (V) @ t=0.5
0.008099992033644785
% es.normE (V/m) @ t=0.52
0.8443673563084221
% es.EX (V/m) @ t=0.52
-0.5452890045588004
% es.EY (V/m) @ t=0.52
0.12113474012497993
% es.EZ (V/m) @ t=0.52
0.6218693302554588
% es.tEX (V/m) @ t=0.52
-0.5452890045587986
% es.tEY (V/m) @ t=0.52
0
% es.tEZ (V/m) @ t=0.52
0.6218693302554623
% es.Ex (V/m) @ t=0.52
-0.5452890045588004
% es.Ey (V/m) @ t=0.52
0.12113474012497993
% es.Ez (V/m) @ t=0.52
0.6218693302554588
% es.tEx (V/m) @ t=0.52
-0.5452890045587986
% es.tEy (V/m) @ t=0.52
0
% es.tEz (V/m) @ t=0.52
0.6218693302554623
% V (V) @ t=0.52
0.008172535668400519
% es.normE (V/m) @ t=0.54
0.8518569828673856
% es.EX (V/m) @ t=0.54
-0.5501262655162356
% es.EY (V/m) @ t=0.54
0.12220820225114992
% es.EZ (V/m) @ t=0.54
0.6273852756335083
% es.tEX (V/m) @ t=0.54
-0.550126265516232
% es.tEY (V/m) @ t=0.54
0
% es.tEZ (V/m) @ t=0.54
0.6273852756335057
% es.Ex (V/m) @ t=0.54
-0.5501262655162356
% es.Ey (V/m) @ t=0.54
0.12220820225114992
% es.Ez (V/m) @ t=0.54
0.6273852756335083
% es.tEx (V/m) @ t=0.54
-0.550126265516232
% es.tEy (V/m) @ t=0.54
0
% es.tEz (V/m) @ t=0.54
0.6273852756335057
% V (V) @ t=0.54
0.008245079303156252
% es.normE (V/m) @ t=0.56
0.8599051467352236
% es.EX (V/m) @ t=0.56
-0.5553237007931289
% es.EY (V/m) @ t=0.56
0.12336288397614714
% es.EZ (V/m) @ t=0.56
0.6333126868445964
% es.tEX (V/m) @ t=0.56
-0.5553237007931289
% es.tEY (V/m) @ t=0.56
0
% es.tEZ (V/m) @ t=0.56
0.6333126868445982
% es.Ex (V/m) @ t=0.56
-0.5553237007931289
% es.Ey (V/m) @ t=0.56
0.12336288397614714
% es.Ez (V/m) @ t=0.56
0.6333126868445964
% es.tEx (V/m) @ t=0.56
-0.5553237007931289
% es.tEy (V/m) @ t=0.56
0
% es.tEz (V/m) @ t=0.56
0.6333126868445982
% V (V) @ t=0.56
0.008322972698788528
% es.normE (V/m) @ t=0.58
0.8682662104815819
% es.EX (V/m) @ t=0.58
-0.5607229104170719
% es.EY (V/m) @ t=0.58
0.12456306597875855
% es.EZ (V/m) @ t=0.58
0.6394706065769977
% es.tEX (V/m) @ t=0.58
-0.5607229104170701
% es.tEY (V/m) @ t=0.58
0
% es.tEZ (V/m) @ t=0.58
0.6394706065770093
% es.Ex (V/m) @ t=0.58
-0.5607229104170719
% es.Ey (V/m) @ t=0.58
0.12456306597875855
% es.Ez (V/m) @ t=0.58
0.6394706065769977
% es.tEx (V/m) @ t=0.58
-0.5607229104170701
% es.tEy (V/m) @ t=0.58
0
% es.tEz (V/m) @ t=0.58
0.6394706065770093
% V (V) @ t=0.58
0.008403863100174436
% es.normE (V/m) @ t=0.6
0.8766272742288423
% es.EX (V/m) @ t=0.6
-0.5661221200410214
% es.EY (V/m) @ t=0.6
0.12576324798136918
% es.EZ (V/m) @ t=0.6
0.6456285263093982
% es.tEX (V/m) @ t=0.6
-0.5661221200410194
% es.tEY (V/m) @ t=0.6
0
% es.tEZ (V/m) @ t=0.6
0.6456285263094008
% es.Ex (V/m) @ t=0.6
-0.5661221200410214
% es.Ey (V/m) @ t=0.6
0.12576324798136918
% es.Ez (V/m) @ t=0.6
0.6456285263093982
% es.tEx (V/m) @ t=0.6
-0.5661221200410194
% es.tEy (V/m) @ t=0.6
0
% es.tEz (V/m) @ t=0.6
0.6456285263094008
% V (V) @ t=0.6
0.008484753501560341
% es.normE (V/m) @ t=0.62
0.8849883379769933
% es.EX (V/m) @ t=0.62
-0.5715213296649699
% es.EY (V/m) @ t=0.62
0.12696342998397964
% es.EZ (V/m) @ t=0.62
0.6517864460418163
% es.tEX (V/m) @ t=0.62
-0.5715213296649715
% es.tEY (V/m) @ t=0.62
0
% es.tEZ (V/m) @ t=0.62
0.6517864460418146
% es.Ex (V/m) @ t=0.62
-0.5715213296649699
% es.Ey (V/m) @ t=0.62
0.12696342998397964
% es.Ez (V/m) @ t=0.62
0.6517864460418163
% es.tEx (V/m) @ t=0.62
-0.5715213296649715
% es.tEy (V/m) @ t=0.62
0
% es.tEz (V/m) @ t=0.62
0.6517864460418146
% V (V) @ t=0.62
0.008565643902946247
% es.normE (V/m) @ t=0.64
0.8933494017259771
% es.EX (V/m) @ t=0.64
-0.5769205392889185
% es.EY (V/m) @ t=0.64
0.12816361198659282
% es.EZ (V/m) @ t=0.64
0.6579443657742088
% es.tEX (V/m) @ t=0.64
-0.5769205392889165
% es.tEY (V/m) @ t=0.64
0
% es.tEZ (V/m) @ t=0.64
0.657944365774215
% es.Ex (V/m) @ t=0.64
-0.5769205392889185
% es.Ey (V/m) @ t=0.64
0.12816361198659282
% es.Ez (V/m) @ t=0.64
0.6579443657742088
% es.tEx (V/m) @ t=0.64
-0.5769205392889165
% es.tEy (V/m) @ t=0.64
0
% es.tEz (V/m) @ t=0.64
0.657944365774215
% V (V) @ t=0.64
0.008646534304332154
% es.normE (V/m) @ t=0.66
0.901710465475801
% es.EX (V/m) @ t=0.66
-0.5823197489128635
% es.EY (V/m) @ t=0.66
0.12936379398919878
% es.EZ (V/m) @ t=0.66
0.6641022855066216
% es.tEX (V/m) @ t=0.66
-0.5823197489128615
% es.tEY (V/m) @ t=0.66
0
% es.tEZ (V/m) @ t=0.66
0.6641022855066261
% es.Ex (V/m) @ t=0.66
-0.5823197489128635
% es.Ey (V/m) @ t=0.66
0.12936379398919878
% es.Ez (V/m) @ t=0.66
0.6641022855066216
% es.tEx (V/m) @ t=0.66
-0.5823197489128615
% es.tEy (V/m) @ t=0.66
0
% es.tEz (V/m) @ t=0.66
0.6641022855066261
% V (V) @ t=0.66
0.00872742470571806
% es.normE (V/m) @ t=0.68
0.9100715292264171
% es.EX (V/m) @ t=0.68
-0.5877189585368052
% es.EY (V/m) @ t=0.68
0.13056397599181913
% es.EZ (V/m) @ t=0.68
0.6702602052390141
% es.tEX (V/m) @ t=0.68
-0.5877189585368068
% es.tEY (V/m) @ t=0.68
0
% es.tEZ (V/m) @ t=0.68
0.6702602052390247
% es.Ex (V/m) @ t=0.68
-0.5877189585368052
% es.Ey (V/m) @ t=0.68
0.13056397599181913
% es.Ez (V/m) @ t=0.68
0.6702602052390141
% es.tEx (V/m) @ t=0.68
-0.5877189585368068
% es.tEy (V/m) @ t=0.68
0
% es.tEz (V/m) @ t=0.68
0.6702602052390247
% V (V) @ t=0.68
0.008808315107103965
% es.normE (V/m) @ t=0.7
0.9184325929778345
% es.EX (V/m) @ t=0.7
-0.5931181681607502
% es.EY (V/m) @ t=0.7
0.1317641579944402
% es.EZ (V/m) @ t=0.7
0.6764181249714323
% es.tEX (V/m) @ t=0.7
-0.5931181681607518
% es.tEY (V/m) @ t=0.7
0
% es.tEZ (V/m) @ t=0.7
0.6764181249714332
% es.Ex (V/m) @ t=0.7
-0.5931181681607502
% es.Ey (V/m) @ t=0.7
0.1317641579944402
% es.Ez (V/m) @ t=0.7
0.6764181249714323
% es.tEx (V/m) @ t=0.7
-0.5931181681607518
% es.tEy (V/m) @ t=0.7
0
% es.tEz (V/m) @ t=0.7
0.6764181249714332
% V (V) @ t=0.7
0.008889205508489867
% es.normE (V/m) @ t=0.72
0.9267936567300017
% es.EX (V/m) @ t=0.72
-0.598517377784695
% es.EY (V/m) @ t=0.72
0.13296433999703738
% es.EZ (V/m) @ t=0.72
0.6825760447038354
% es.tEX (V/m) @ t=0.72
-0.598517377784693
% es.tEY (V/m) @ t=0.72
0
% es.tEZ (V/m) @ t=0.72
0.6825760447038398
% es.Ex (V/m) @ t=0.72
-0.598517377784695
% es.Ey (V/m) @ t=0.72
0.13296433999703738
% es.Ez (V/m) @ t=0.72
0.6825760447038354
% es.tEx (V/m) @ t=0.72
-0.598517377784693
% es.tEy (V/m) @ t=0.72
0
% es.tEz (V/m) @ t=0.72
0.6825760447038398
% V (V) @ t=0.72
0.008970095909875775
% es.normE (V/m) @ t=0.74
0.9351547204829126
% es.EX (V/m) @ t=0.74
-0.6039165874086441
% es.EY (V/m) @ t=0.74
0.13416452199965412
% es.EZ (V/m) @ t=0.74
0.6887339644362358
% es.tEX (V/m) @ t=0.74
-0.6039165874086418
% es.tEY (V/m) @ t=0.74
0
% es.tEZ (V/m) @ t=0.74
0.6887339644362394
% es.Ex (V/m) @ t=0.74
-0.6039165874086441
% es.Ey (V/m) @ t=0.74
0.13416452199965412
% es.Ez (V/m) @ t=0.74
0.6887339644362358
% es.tEx (V/m) @ t=0.74
-0.6039165874086418
% es.tEy (V/m) @ t=0.74
0
% es.tEz (V/m) @ t=0.74
0.6887339644362394
% V (V) @ t=0.74
0.00905098631126168
% es.normE (V/m) @ t=0.76
0.9435157842365478
% es.EX (V/m) @ t=0.76
-0.6093157970325889
% es.EY (V/m) @ t=0.76
0.1353647040022593
% es.EZ (V/m) @ t=0.76
0.6948918841686442
% es.tEX (V/m) @ t=0.76
-0.6093157970325869
% es.tEY (V/m) @ t=0.76
0
% es.tEZ (V/m) @ t=0.76
0.6948918841686531
% es.Ex (V/m) @ t=0.76
-0.6093157970325889
% es.Ey (V/m) @ t=0.76
0.1353647040022593
% es.Ez (V/m) @ t=0.76
0.6948918841686442
% es.tEx (V/m) @ t=0.76
-0.6093157970325869
% es.tEy (V/m) @ t=0.76
0
% es.tEz (V/m) @ t=0.76
0.6948918841686531
% V (V) @ t=0.76
0.009131876712647586
% es.normE (V/m) @ t=0.78
0.9518768479908862
% es.EX (V/m) @ t=0.78
-0.6147150066565341
% es.EY (V/m) @ t=0.78
0.13656488600487415
% es.EZ (V/m) @ t=0.78
0.7010498039010473
% es.tEX (V/m) @ t=0.78
-0.6147150066565357
% es.tEY (V/m) @ t=0.78
0
% es.tEZ (V/m) @ t=0.78
0.7010498039010464
% es.Ex (V/m) @ t=0.78
-0.6147150066565341
% es.Ey (V/m) @ t=0.78
0.13656488600487415
% es.Ez (V/m) @ t=0.78
0.7010498039010473
% es.tEx (V/m) @ t=0.78
-0.6147150066565357
% es.tEy (V/m) @ t=0.78
0
% es.tEz (V/m) @ t=0.78
0.7010498039010464
% V (V) @ t=0.78
0.009212767114033491
% es.normE (V/m) @ t=0.8
0.960237911745905
% es.EX (V/m) @ t=0.8
-0.6201142162804791
% es.EY (V/m) @ t=0.8
0.13776506800749622
% es.EZ (V/m) @ t=0.8
0.707207723633446
% es.tEX (V/m) @ t=0.8
-0.6201142162804771
% es.tEY (V/m) @ t=0.8
0
% es.tEZ (V/m) @ t=0.8
0.7072077236334566
% es.Ex (V/m) @ t=0.8
-0.6201142162804791
% es.Ey (V/m) @ t=0.8
0.13776506800749622
% es.Ez (V/m) @ t=0.8
0.707207723633446
% es.tEx (V/m) @ t=0.8
-0.6201142162804771
% es.tEy (V/m) @ t=0.8
0
% es.tEz (V/m) @ t=0.8
0.7072077236334566
% V (V) @ t=0.8
0.009293657515419398
% es.normE (V/m) @ t=0.82
0.9685989755015898
% es.EX (V/m) @ t=0.82
-0.6255134259044279
% es.EY (V/m) @ t=0.82
0.13896525001009075
% es.EZ (V/m) @ t=0.82
0.7133656433658491
% es.tEX (V/m) @ t=0.82
-0.6255134259044257
% es.tEY (V/m) @ t=0.82
0
% es.tEZ (V/m) @ t=0.82
0.7133656433658704
% es.Ex (V/m) @ t=0.82
-0.6255134259044279
% es.Ey (V/m) @ t=0.82
0.13896525001009075
% es.Ez (V/m) @ t=0.82
0.7133656433658491
% es.tEx (V/m) @ t=0.82
-0.6255134259044257
% es.tEy (V/m) @ t=0.82
0
% es.tEz (V/m) @ t=0.82
0.7133656433658704
% V (V) @ t=0.82
0.009374547916805304
% es.normE (V/m) @ t=0.84
0.9779221383484515
% es.EX (V/m) @ t=0.84
-0.6315347869768653
% es.EY (V/m) @ t=0.84
0.14030173480500086
% es.EZ (V/m) @ t=0.84
0.7202319705264975
% es.tEX (V/m) @ t=0.84
-0.6315347869768666
% es.tEY (V/m) @ t=0.84
0
% es.tEZ (V/m) @ t=0.84
0.7202319705265126
% es.Ex (V/m) @ t=0.84
-0.6315347869768653
% es.Ey (V/m) @ t=0.84
0.14030173480500086
% es.Ez (V/m) @ t=0.84
0.7202319705264975
% es.tEx (V/m) @ t=0.84
-0.6315347869768666
% es.tEy (V/m) @ t=0.84
0
% es.tEz (V/m) @ t=0.84
0.7202319705265126
% V (V) @ t=0.84
0.009464839190609831
% es.normE (V/m) @ t=0.86
0.9872787362788615
% es.EX (V/m) @ t=0.86
-0.6375777691946283
% es.EY (V/m) @ t=0.86
0.1416429564248295
% es.EZ (V/m) @ t=0.86
0.7271229164194448
% es.tEX (V/m) @ t=0.86
-0.6375777691946225
% es.tEY (V/m) @ t=0.86
0
% es.tEZ (V/m) @ t=0.86
0.7271229164194457
% es.Ex (V/m) @ t=0.86
-0.6375777691946283
% es.Ey (V/m) @ t=0.86
0.1416429564248295
% es.Ez (V/m) @ t=0.86
0.7271229164194448
% es.tEx (V/m) @ t=0.86
-0.6375777691946225
% es.tEy (V/m) @ t=0.86
0
% es.tEz (V/m) @ t=0.86
0.7271229164194457
% V (V) @ t=0.86
0.009555457165620675
% es.normE (V/m) @ t=0.88
0.9966353342114699
% es.EX (V/m) @ t=0.88
-0.6436207514123884
% es.EY (V/m) @ t=0.88
0.14298417804463082
% es.EZ (V/m) @ t=0.88
0.7340138623123735
% es.tEX (V/m) @ t=0.88
-0.6436207514123864
% es.tEY (V/m) @ t=0.88
0
% es.tEZ (V/m) @ t=0.88
0.7340138623123851
% es.Ex (V/m) @ t=0.88
-0.6436207514123884
% es.Ey (V/m) @ t=0.88
0.14298417804463082
% es.Ez (V/m) @ t=0.88
0.7340138623123735
% es.tEx (V/m) @ t=0.88
-0.6436207514123864
% es.tEy (V/m) @ t=0.88
0
% es.tEz (V/m) @ t=0.88
0.7340138623123851
% V (V) @ t=0.88
0.009646075140631514
% es.normE (V/m) @ t=0.9
1.0059919321462467
% es.EX (V/m) @ t=0.9
-0.6496637336301483
% es.EY (V/m) @ t=0.9
0.14432539966445412
% es.EZ (V/m) @ t=0.9
0.7409048082053156
% es.tEX (V/m) @ t=0.9
-0.6496637336301496
% es.tEY (V/m) @ t=0.9
0
% es.tEZ (V/m) @ t=0.9
0.7409048082053191
% es.Ex (V/m) @ t=0.9
-0.6496637336301483
% es.Ey (V/m) @ t=0.9
0.14432539966445412
% es.Ez (V/m) @ t=0.9
0.7409048082053156
% es.tEx (V/m) @ t=0.9
-0.6496637336301496
% es.tEy (V/m) @ t=0.9
0
% es.tEz (V/m) @ t=0.9
0.7409048082053191
% V (V) @ t=0.9
0.009736693115642354
% es.normE (V/m) @ t=0.92
1.0153485300831266
% es.EX (V/m) @ t=0.92
-0.6557067158479153
% es.EY (V/m) @ t=0.92
0.14566662128426955
% es.EZ (V/m) @ t=0.92
0.7477957540982585
% es.tEX (V/m) @ t=0.92
-0.6557067158479166
% es.tEY (V/m) @ t=0.92
0
% es.tEZ (V/m) @ t=0.92
0.7477957540982656
% es.Ex (V/m) @ t=0.92
-0.6557067158479153
% es.Ey (V/m) @ t=0.92
0.14566662128426955
% es.Ez (V/m) @ t=0.92
0.7477957540982585
% es.tEx (V/m) @ t=0.92
-0.6557067158479166
% es.tEy (V/m) @ t=0.92
0
% es.tEz (V/m) @ t=0.92
0.7477957540982656
% V (V) @ t=0.92
0.009827311090653195
% es.normE (V/m) @ t=0.94
1.0247051280220383
% es.EX (V/m) @ t=0.94
-0.661749698065675
% es.EY (V/m) @ t=0.94
0.1470078429040832
% es.EZ (V/m) @ t=0.94
0.7546866999911988
% es.tEX (V/m) @ t=0.94
-0.6617496980656763
% es.tEY (V/m) @ t=0.94
0
% es.tEZ (V/m) @ t=0.94
0.7546866999912059
% es.Ex (V/m) @ t=0.94
-0.661749698065675
% es.Ey (V/m) @ t=0.94
0.1470078429040832
% es.Ez (V/m) @ t=0.94
0.7546866999911988
% es.tEx (V/m) @ t=0.94
-0.6617496980656763
% es.tEy (V/m) @ t=0.94
0
% es.tEz (V/m) @ t=0.94
0.7546866999912059
% V (V) @ t=0.94
0.009917929065664034
% es.normE (V/m) @ t=0.96
1.034061725962935
% es.EX (V/m) @ t=0.96
-0.6677926802834384
% es.EY (V/m) @ t=0.96
0.14834906452390395
% es.EZ (V/m) @ t=0.96
0.7615776458841355
% es.tEX (V/m) @ t=0.96
-0.667792680283436
% es.tEY (V/m) @ t=0.96
0
% es.tEZ (V/m) @ t=0.96
0.7615776458841399
% es.Ex (V/m) @ t=0.96
-0.6677926802834384
% es.Ey (V/m) @ t=0.96
0.14834906452390395
% es.Ez (V/m) @ t=0.96
0.7615776458841355
% es.tEx (V/m) @ t=0.96
-0.667792680283436
% es.tEy (V/m) @ t=0.96
0
% es.tEz (V/m) @ t=0.96
0.7615776458841399
% V (V) @ t=0.96
0.010008547040674875
% es.normE (V/m) @ t=0.98
1.0434183239057602
% es.EX (V/m) @ t=0.98
-0.6738356625011974
% es.EY (V/m) @ t=0.98
0.1496902861437175
% es.EZ (V/m) @ t=0.98
0.768468591777073
% es.tEX (V/m) @ t=0.98
-0.6738356625011988
% es.tEY (V/m) @ t=0.98
0
% es.tEZ (V/m) @ t=0.98
0.768468591777081
% es.Ex (V/m) @ t=0.98
-0.6738356625011974
% es.Ey (V/m) @ t=0.98
0.1496902861437175
% es.Ez (V/m) @ t=0.98
0.768468591777073
% es.tEx (V/m) @ t=0.98
-0.6738356625011988
% es.tEy (V/m) @ t=0.98
0
% es.tEz (V/m) @ t=0.98
0.768468591777081
% V (V) @ t=0.98
0.010099165015685717
% es.normE (V/m) @ t=1
1.052774921850469
% es.EX (V/m) @ t=1
-0.6798786447189646
% es.EY (V/m) @ t=1
0.1510315077635258
% es.EZ (V/m) @ t=1
0.7753595376700124
% es.tEX (V/m) @ t=1
-0.6798786447189624
% es.tEY (V/m) @ t=1
0
% es.tEZ (V/m) @ t=1
0.7753595376700204
% es.Ex (V/m) @ t=1
-0.6798786447189646
% es.Ey (V/m) @ t=1
0.1510315077635258
% es.Ez (V/m) @ t=1
0.7753595376700124
% es.tEx (V/m) @ t=1
-0.6798786447189624
% es.tEy (V/m) @ t=1
0
% es.tEz (V/m) @ t=1
0.7753595376700204
% V (V) @ t=1
0.010189782990696556
% es.normE (V/m) @ t=1.02
1.0621315197969996
% es.EX (V/m) @ t=1.02
-0.6859216269367212
% es.EY (V/m) @ t=1.02
0.15237272938334834
% es.EZ (V/m) @ t=1.02
0.7822504835629456
% es.tEX (V/m) @ t=1.02
-0.6859216269367223
% es.tEY (V/m) @ t=1.02
0
% es.tEZ (V/m) @ t=1.02
0.7822504835629536
% es.Ex (V/m) @ t=1.02
-0.6859216269367212
% es.Ey (V/m) @ t=1.02
0.15237272938334834
% es.Ez (V/m) @ t=1.02
0.7822504835629456
% es.tEx (V/m) @ t=1.02
-0.6859216269367223
% es.tEy (V/m) @ t=1.02
0
% es.tEz (V/m) @ t=1.02
0.7822504835629536
% V (V) @ t=1.02
0.010280400965707398
% es.normE (V/m) @ t=1.04
1.071488117745333
% es.EX (V/m) @ t=1.04
-0.691964609154488
% es.EY (V/m) @ t=1.04
0.15371395100316376