% Model:              1 neuron.mph
% Version:            COMSOL 6.0.0.405
% Date:               Mar 16 2023, 17:17
% Dimension:          0
% Nodes:              14017
% Expressions:        14017
% Description:        Electric field norm, Electric field, X component, Electric field, Y component, Electric field, Z component, Tangential electric field, X component, Tangential electric field, Y component, Tangential electric field, Z component, Electric field, x component, Electric field, y component, Electric field, z component, Tangential electric field, x component, Tangential electric field, y component, Tangential electric field, z component, Electric potential
% Length unit:        mm
% x
1
% y
12.2
% z
1.33
% es.normE (V/m) @ t=0
1.4656560844316768
% es.EX (V/m) @ t=0
1.3544580781948117
% es.EY (V/m) @ t=0
0.08528456757836206
% es.EZ (V/m) @ t=0
0.5475567602672751
% es.tEX (V/m) @ t=0
1.3544580781948117
% es.tEY (V/m) @ t=0
0
% es.tEZ (V/m) @ t=0
0.5475567602672733
% es.Ex (V/m) @ t=0
1.3544580781948117
% es.Ey (V/m) @ t=0
0.08528456757836206
% es.Ez (V/m) @ t=0
0.5475567602672751
% es.tEx (V/m) @ t=0
1.3544580781948117
% es.tEy (V/m) @ t=0
0
% es.tEz (V/m) @ t=0
0.5475567602672733
% V (V) @ t=0
0.007310939139473137
% es.normE (V/m) @ t=0.02
1.265915666639716
% es.EX (V/m) @ t=0.02
1.1698717844995068
% es.EY (V/m) @ t=0.02
0.07366194139736626
% es.EZ (V/m) @ t=0.02
0.472935427094368
% es.tEX (V/m) @ t=0.02
1.1698717844995068
% es.tEY (V/m) @ t=0.02
0
% es.tEZ (V/m) @ t=0.02
0.47293542709437064
% es.Ex (V/m) @ t=0.02
1.1698717844995068
% es.Ey (V/m) @ t=0.02
0.07366194139736626
% es.Ez (V/m) @ t=0.02
0.472935427094368
% es.tEx (V/m) @ t=0.02
1.1698717844995068
% es.tEy (V/m) @ t=0.02
0
% es.tEz (V/m) @ t=0.02
0.47293542709437064
% V (V) @ t=0.02
0.006314600125956676
% es.normE (V/m) @ t=0.04
1.2775602753074906
% es.EX (V/m) @ t=0.04
1.1806329264169317
% es.EY (V/m) @ t=0.04
0.07433952671945632
% es.EZ (V/m) @ t=0.04
0.47728575668862794
% es.tEX (V/m) @ t=0.04
1.1806329264169326
% es.tEY (V/m) @ t=0.04
0
% es.tEZ (V/m) @ t=0.04
0.47728575668863504
% es.Ex (V/m) @ t=0.04
1.1806329264169317
% es.Ey (V/m) @ t=0.04
0.07433952671945632
% es.Ez (V/m) @ t=0.04
0.47728575668862794
% es.tEx (V/m) @ t=0.04
1.1806329264169326
% es.tEy (V/m) @ t=0.04
0
% es.tEz (V/m) @ t=0.04
0.47728575668863504
% V (V) @ t=0.04
0.006372685264561873
% es.normE (V/m) @ t=0.06
1.2893091013443585
% es.EX (V/m) @ t=0.06
1.1914903807838675
% es.EY (V/m) @ t=0.06
0.07502317353623694
% es.EZ (V/m) @ t=0.06
0.4816750161749468
% es.tEX (V/m) @ t=0.06
1.191490380783871
% es.tEY (V/m) @ t=0.06
0
% es.tEZ (V/m) @ t=0.06
0.4816750161749441
% es.Ex (V/m) @ t=0.06
1.1914903807838675
% es.Ey (V/m) @ t=0.06
0.07502317353623694
% es.Ez (V/m) @ t=0.06
0.4816750161749468
% es.tEx (V/m) @ t=0.06
1.191490380783871
% es.tEy (V/m) @ t=0.06
0
% es.tEz (V/m) @ t=0.06
0.4816750161749441
% V (V) @ t=0.06
0.006431290577943971
% es.normE (V/m) @ t=0.08
1.3012390879732838
% es.EX (V/m) @ t=0.08
1.2025152502882799
% es.EY (V/m) @ t=0.08
0.07571736323637651
% es.EZ (V/m) @ t=0.08
0.4861319581116028
% es.tEX (V/m) @ t=0.08
1.2025152502882754
% es.tEY (V/m) @ t=0.08
0
% es.tEZ (V/m) @ t=0.08
0.48613195811161036
% es.Ex (V/m) @ t=0.08
1.2025152502882799
% es.Ey (V/m) @ t=0.08
0.07571736323637651
% es.Ez (V/m) @ t=0.08
0.4861319581116028
% es.tEx (V/m) @ t=0.08
1.2025152502882754
% es.tEy (V/m) @ t=0.08
0
% es.tEz (V/m) @ t=0.08
0.48613195811161036
% V (V) @ t=0.08
0.0064907993907627895
% es.normE (V/m) @ t=0.1
1.3132911971442143
% es.EX (V/m) @ t=0.1
1.213652976357829
% es.EY (V/m) @ t=0.1
0.07641866002145159
% es.EZ (V/m) @ t=0.1
0.4906345256050817
% es.tEX (V/m) @ t=0.1
1.2136529763578299
% es.tEY (V/m) @ t=0.1
0
% es.tEZ (V/m) @ t=0.1
0.49063452560508125
% es.Ex (V/m) @ t=0.1
1.213652976357829
% es.Ey (V/m) @ t=0.1
0.07641866002145159
% es.Ez (V/m) @ t=0.1
0.4906345256050817
% es.tEx (V/m) @ t=0.1
1.2136529763578299
% es.tEy (V/m) @ t=0.1
0
% es.tEz (V/m) @ t=0.1
0.49063452560508125
% V (V) @ t=0.1
0.006550917263458529
% es.normE (V/m) @ t=0.12
1.3253433063151423
% es.EX (V/m) @ t=0.12
1.2247907024273772
% es.EY (V/m) @ t=0.12
0.07711995680652134
% es.EZ (V/m) @ t=0.12
0.49513709309855614
% es.tEX (V/m) @ t=0.12
1.2247907024273763
% es.tEY (V/m) @ t=0.12
0
% es.tEZ (V/m) @ t=0.12
0.4951370930985539
% es.Ex (V/m) @ t=0.12
1.2247907024273772
% es.Ey (V/m) @ t=0.12
0.07711995680652134
% es.Ez (V/m) @ t=0.12
0.49513709309855614
% es.tEx (V/m) @ t=0.12
1.2247907024273763
% es.tEy (V/m) @ t=0.12
0
% es.tEz (V/m) @ t=0.12
0.4951370930985539
% V (V) @ t=0.12
0.006611035136154266
% es.normE (V/m) @ t=0.14
1.337526709581462
% es.EX (V/m) @ t=0.14
1.2360497616958535
% es.EY (V/m) @ t=0.14
0.0778288930438123
% es.EZ (V/m) @ t=0.14
0.49968871029637696
% es.tEX (V/m) @ t=0.14
1.2360497616958535
% es.tEY (V/m) @ t=0.14
0
% es.tEZ (V/m) @ t=0.14
0.4996887102963772
% es.Ex (V/m) @ t=0.14
1.2360497616958535
% es.Ey (V/m) @ t=0.14
0.0778288930438123
% es.Ez (V/m) @ t=0.14
0.49968871029637696
% es.tEx (V/m) @ t=0.14
1.2360497616958535
% es.tEy (V/m) @ t=0.14
0
% es.tEz (V/m) @ t=0.14
0.4996887102963772
% V (V) @ t=0.14
0.006671807969958394
% es.normE (V/m) @ t=0.16
1.3502205211399285
% es.EX (V/m) @ t=0.16
1.2477805060820817
% es.EY (V/m) @ t=0.16
0.07856752779685022
% es.EZ (V/m) @ t=0.16
0.5044310091524462
% es.tEX (V/m) @ t=0.16
1.2477805060820808
% es.tEY (V/m) @ t=0.16
0
% es.tEZ (V/m) @ t=0.16
0.5044310091524511
% es.Ex (V/m) @ t=0.16
1.2477805060820817
% es.Ey (V/m) @ t=0.16
0.07856752779685022
% es.Ez (V/m) @ t=0.16
0.5044310091524462
% es.tEx (V/m) @ t=0.16
1.2477805060820808
% es.tEy (V/m) @ t=0.16
0
% es.tEz (V/m) @ t=0.16
0.5044310091524511
% V (V) @ t=0.16
0.006735126977524211
% es.normE (V/m) @ t=0.18
1.362914332698392
% es.EX (V/m) @ t=0.18
1.2595112504683073
% es.EY (V/m) @ t=0.18
0.07930616254988082
% es.EZ (V/m) @ t=0.18
0.5091733080085141
% es.tEX (V/m) @ t=0.18
1.2595112504683126
% es.tEY (V/m) @ t=0.18
0
% es.tEZ (V/m) @ t=0.18
0.5091733080085121
% es.Ex (V/m) @ t=0.18
1.2595112504683073
% es.Ey (V/m) @ t=0.18
0.07930616254988082
% es.Ez (V/m) @ t=0.18
0.5091733080085141
% es.tEx (V/m) @ t=0.18
1.2595112504683126
% es.tEy (V/m) @ t=0.18
0
% es.tEz (V/m) @ t=0.18
0.5091733080085121
% V (V) @ t=0.18
0.0067984459850900306
% es.normE (V/m) @ t=0.2
1.3756081442568688
% es.EX (V/m) @ t=0.2
1.2712419948545413
% es.EY (V/m) @ t=0.2
0.08004479730291603
% es.EZ (V/m) @ t=0.2
0.513915606864598
% es.tEX (V/m) @ t=0.2
1.2712419948545426
% es.tEY (V/m) @ t=0.2
0
% es.tEZ (V/m) @ t=0.2
0.5139156068645985
% es.Ex (V/m) @ t=0.2
1.2712419948545413
% es.Ey (V/m) @ t=0.2
0.08004479730291603
% es.Ez (V/m) @ t=0.2
0.513915606864598
% es.tEx (V/m) @ t=0.2
1.2712419948545426
% es.tEy (V/m) @ t=0.2
0
% es.tEz (V/m) @ t=0.2
0.5139156068645985
% V (V) @ t=0.2
0.006861764992655851
% es.normE (V/m) @ t=0.22
1.3883019558153318
% es.EX (V/m) @ t=0.22
1.282972739240762
% es.EY (V/m) @ t=0.22
0.0807834320559565
% es.EZ (V/m) @ t=0.22
0.5186579057206755
% es.tEX (V/m) @ t=0.22
1.282972739240762
% es.tEY (V/m) @ t=0.22
0
% es.tEZ (V/m) @ t=0.22
0.5186579057206786
% es.Ex (V/m) @ t=0.22
1.282972739240762
% es.Ey (V/m) @ t=0.22
0.0807834320559565
% es.Ez (V/m) @ t=0.22
0.5186579057206755
% es.tEx (V/m) @ t=0.22
1.282972739240762
% es.tEy (V/m) @ t=0.22
0
% es.tEz (V/m) @ t=0.22
0.5186579057206786
% V (V) @ t=0.22
0.00692508400022167
% es.normE (V/m) @ t=0.24
1.400995767373793
% es.EX (V/m) @ t=0.24
1.294703483626983
% es.EY (V/m) @ t=0.24
0.08152206680898277
% es.EZ (V/m) @ t=0.24
0.5234002045767483
% es.tEX (V/m) @ t=0.24
1.2947034836269857
% es.tEY (V/m) @ t=0.24
0
% es.tEZ (V/m) @ t=0.24
0.5234002045767494
% es.Ex (V/m) @ t=0.24
1.294703483626983
% es.Ey (V/m) @ t=0.24
0.08152206680898277
% es.Ez (V/m) @ t=0.24
0.5234002045767483
% es.tEx (V/m) @ t=0.24
1.2947034836269857
% es.tEy (V/m) @ t=0.24
0
% es.tEz (V/m) @ t=0.24
0.5234002045767494
% V (V) @ t=0.24
0.0069884030077874875
% es.normE (V/m) @ t=0.26
1.4136895789322603
% es.EX (V/m) @ t=0.26
1.3064342280132095
% es.EY (V/m) @ t=0.26
0.08226070156201626
% es.EZ (V/m) @ t=0.26
0.5281425034328247
% es.tEX (V/m) @ t=0.26
1.3064342280132086
% es.tEY (V/m) @ t=0.26
0
% es.tEZ (V/m) @ t=0.26
0.5281425034328269
% es.Ex (V/m) @ t=0.26
1.3064342280132095
% es.Ey (V/m) @ t=0.26
0.08226070156201626
% es.Ez (V/m) @ t=0.26
0.5281425034328247
% es.tEx (V/m) @ t=0.26
1.3064342280132086
% es.tEy (V/m) @ t=0.26
0
% es.tEz (V/m) @ t=0.26
0.5281425034328269
% V (V) @ t=0.26
0.007051722015353308
% es.normE (V/m) @ t=0.28
1.4269877526951524
% es.EX (V/m) @ t=0.28
1.3187234260761125
% es.EY (V/m) @ t=0.28
0.08303459892923887
% es.EZ (V/m) @ t=0.28
0.5331107245815501
% es.tEX (V/m) @ t=0.28
1.318723426076116
% es.tEY (V/m) @ t=0.28
0
% es.tEZ (V/m) @ t=0.28
0.5331107245815487
% es.Ex (V/m) @ t=0.28
1.3187234260761125
% es.Ey (V/m) @ t=0.28
0.08303459892923887
% es.Ez (V/m) @ t=0.28
0.5331107245815501
% es.tEx (V/m) @ t=0.28
1.318723426076116
% es.tEy (V/m) @ t=0.28
0
% es.tEz (V/m) @ t=0.28
0.5331107245815487
% V (V) @ t=0.28
0.007118045357431654
% es.normE (V/m) @ t=0.3
1.4411234564622144
% es.EX (V/m) @ t=0.3
1.331786533736068
% es.EY (V/m) @ t=0.3
0.08385736351083067
% es.EZ (V/m) @ t=0.3
0.5383920306606003
% es.tEX (V/m) @ t=0.3
1.3317865337360741
% es.tEY (V/m) @ t=0.3
0
% es.tEZ (V/m) @ t=0.3
0.5383920306605994
% es.Ex (V/m) @ t=0.3
1.331786533736068
% es.Ey (V/m) @ t=0.3
0.08385736351083067
% es.Ez (V/m) @ t=0.3
0.5383920306606003
% es.tEx (V/m) @ t=0.3
1.3317865337360741
% es.tEy (V/m) @ t=0.3
0
% es.tEz (V/m) @ t=0.3
0.5383920306605994
% V (V) @ t=0.3
0.007188532130442758
% es.normE (V/m) @ t=0.32
1.455259160229439
% es.EX (V/m) @ t=0.32
1.344849641396027
% es.EY (V/m) @ t=0.32
0.08468012809242792
% es.EZ (V/m) @ t=0.32
0.5436733367396696
% es.tEX (V/m) @ t=0.32
1.3448496413960225
% es.tEY (V/m) @ t=0.32
0
% es.tEZ (V/m) @ t=0.32
0.543673336739674
% es.Ex (V/m) @ t=0.32
1.344849641396027
% es.Ey (V/m) @ t=0.32
0.08468012809242792
% es.Ez (V/m) @ t=0.32
0.5436733367396696
% es.tEx (V/m) @ t=0.32
1.3448496413960225
% es.tEy (V/m) @ t=0.32
0
% es.tEz (V/m) @ t=0.32
0.543673336739674
% V (V) @ t=0.32
0.007259018903453861
% es.normE (V/m) @ t=0.34
1.4693948639967962
% es.EX (V/m) @ t=0.34
1.3579127490559726
% es.EY (V/m) @ t=0.34
0.08550289267401245
% es.EZ (V/m) @ t=0.34
0.5489546428187362
% es.tEX (V/m) @ t=0.34
1.3579127490559708
% es.tEY (V/m) @ t=0.34
0
% es.tEZ (V/m) @ t=0.34
0.5489546428187371
% es.Ex (V/m) @ t=0.34
1.3579127490559726
% es.Ey (V/m) @ t=0.34
0.08550289267401245
% es.Ez (V/m) @ t=0.34
0.5489546428187362
% es.tEx (V/m) @ t=0.34
1.3579127490559708
% es.tEy (V/m) @ t=0.34
0
% es.tEz (V/m) @ t=0.34
0.5489546428187371
% V (V) @ t=0.34
0.007329505676464967
% es.normE (V/m) @ t=0.36
1.4835305677642978
% es.EX (V/m) @ t=0.36
1.3709758567159218
% es.EY (V/m) @ t=0.36
0.08632565725560881
% es.EZ (V/m) @ t=0.36
0.554235948897793
% es.tEX (V/m) @ t=0.36
1.370975856715921
% es.tEY (V/m) @ t=0.36
0
% es.tEZ (V/m) @ t=0.36
0.5542359488977939
% es.Ex (V/m) @ t=0.36
1.3709758567159218
% es.Ey (V/m) @ t=0.36
0.08632565725560881
% es.Ez (V/m) @ t=0.36
0.554235948897793
% es.tEx (V/m) @ t=0.36
1.370975856715921
% es.tEy (V/m) @ t=0.36
0
% es.tEz (V/m) @ t=0.36
0.5542359488977939
% V (V) @ t=0.36
0.007399992449476072
% es.normE (V/m) @ t=0.38
1.4976662715319513
% es.EX (V/m) @ t=0.38
1.38403896437588
% es.EY (V/m) @ t=0.38
0.08714842183720145
% es.EZ (V/m) @ t=0.38
0.5595172549768628
% es.tEX (V/m) @ t=0.38
1.38403896437588
% es.tEY (V/m) @ t=0.38
0
% es.tEZ (V/m) @ t=0.38
0.5595172549768628
% es.Ex (V/m) @ t=0.38
1.38403896437588
% es.Ey (V/m) @ t=0.38
0.08714842183720145
% es.Ez (V/m) @ t=0.38
0.5595172549768628
% es.tEx (V/m) @ t=0.38
1.38403896437588
% es.tEy (V/m) @ t=0.38
0
% es.tEz (V/m) @ t=0.38
0.5595172549768628
% V (V) @ t=0.38
0.007470479222487175
% es.normE (V/m) @ t=0.4
1.5118019752997292
% es.EX (V/m) @ t=0.4
1.3971020720358274
% es.EY (V/m) @ t=0.4
0.08797118641880308
% es.EZ (V/m) @ t=0.4
0.5647985610559281
% es.tEX (V/m) @ t=0.4
1.3971020720358265
% es.tEY (V/m) @ t=0.4
0
% es.tEZ (V/m) @ t=0.4
0.564798561055929
% es.Ex (V/m) @ t=0.4
1.3971020720358274
% es.Ey (V/m) @ t=0.4
0.08797118641880308
% es.Ez (V/m) @ t=0.4
0.5647985610559281
% es.tEx (V/m) @ t=0.4
1.3971020720358265
% es.tEy (V/m) @ t=0.4
0
% es.tEz (V/m) @ t=0.4
0.564798561055929
% V (V) @ t=0.4
0.0075409659954982795
% es.normE (V/m) @ t=0.42
1.5259376790676389
% es.EX (V/m) @ t=0.42
1.410165179695782
% es.EY (V/m) @ t=0.42
0.08879395100039306
% es.EZ (V/m) @ t=0.42
0.5700798671349805
% es.tEX (V/m) @ t=0.42
1.4101651796957881
% es.tEY (V/m) @ t=0.42
0
% es.tEZ (V/m) @ t=0.42
0.5700798671349814
% es.Ex (V/m) @ t=0.42
1.410165179695782
% es.Ey (V/m) @ t=0.42
0.08879395100039306
% es.Ez (V/m) @ t=0.42
0.5700798671349805
% es.tEx (V/m) @ t=0.42
1.4101651796957881
% es.tEy (V/m) @ t=0.42
0
% es.tEz (V/m) @ t=0.42
0.5700798671349814
% V (V) @ t=0.42
0.007611452768509386
% es.normE (V/m) @ t=0.44
1.5400733828356787
% es.EX (V/m) @ t=0.44
1.4232282873557294
% es.EY (V/m) @ t=0.44
0.08961671558199119
% es.EZ (V/m) @ t=0.44
0.5753611732140542
% es.tEX (V/m) @ t=0.44
1.4232282873557285
% es.tEY (V/m) @ t=0.44
0
% es.tEZ (V/m) @ t=0.44
0.5753611732140542
% es.Ex (V/m) @ t=0.44
1.4232282873557294
% es.Ey (V/m) @ t=0.44
0.08961671558199119
% es.Ez (V/m) @ t=0.44
0.5753611732140542
% es.tEx (V/m) @ t=0.44
1.4232282873557285
% es.tEy (V/m) @ t=0.44
0
% es.tEz (V/m) @ t=0.44
0.5753611732140542
% V (V) @ t=0.44
0.007681939541520488
% es.normE (V/m) @ t=0.46
1.5542090866038438
% es.EX (V/m) @ t=0.46
1.436291395015683
% es.EY (V/m) @ t=0.46
0.09043948016357772
% es.EZ (V/m) @ t=0.46
0.5806424792931164
% es.tEX (V/m) @ t=0.46
1.436291395015683
% es.tEY (V/m) @ t=0.46
0
% es.tEZ (V/m) @ t=0.46
0.5806424792931182
% es.Ex (V/m) @ t=0.46
1.436291395015683
% es.Ey (V/m) @ t=0.46
0.09043948016357772
% es.Ez (V/m) @ t=0.46
0.5806424792931164
% es.tEx (V/m) @ t=0.46
1.436291395015683
% es.tEy (V/m) @ t=0.46
0
% es.tEz (V/m) @ t=0.46
0.5806424792931182
% V (V) @ t=0.46
0.007752426314531592
% es.normE (V/m) @ t=0.48
1.568344790372132
% es.EX (V/m) @ t=0.48
1.4493545026756385
% es.EY (V/m) @ t=0.48
0.09126224474517386
% es.EZ (V/m) @ t=0.48
0.5859237853721764
% es.tEX (V/m) @ t=0.48
1.4493545026756411
% es.tEY (V/m) @ t=0.48
0
% es.tEZ (V/m) @ t=0.48
0.5859237853721746
% es.Ex (V/m) @ t=0.48
1.4493545026756385
% es.Ey (V/m) @ t=0.48
0.09126224474517386
% es.Ez (V/m) @ t=0.48
0.5859237853721764
% es.tEx (V/m) @ t=0.48
1.4493545026756411
% es.tEy (V/m) @ t=0.48
0
% es.tEz (V/m) @ t=0.48
0.5859237853721746
% V (V) @ t=0.48
0.007822913087542698
% es.normE (V/m) @ t=0.5
1.5824804941405346
% es.EX (V/m) @ t=0.5
1.4624176103355913
% es.EY (V/m) @ t=0.5
0.0920850093267746
% es.EZ (V/m) @ t=0.5
0.5912050914512346
% es.tEX (V/m) @ t=0.5
1.4624176103355904
% es.tEY (V/m) @ t=0.5
0
% es.tEZ (V/m) @ t=0.5
0.5912050914512346
% es.Ex (V/m) @ t=0.5
1.4624176103355913
% es.Ey (V/m) @ t=0.5
0.0920850093267746
% es.Ez (V/m) @ t=0.5
0.5912050914512346
% es.tEx (V/m) @ t=0.5
1.4624176103355904
% es.tEy (V/m) @ t=0.5
0
% es.tEz (V/m) @ t=0.5
0.5912050914512346
% V (V) @ t=0.5
0.007893399860553802
% es.normE (V/m) @ t=0.52
1.596616197909048
% es.EX (V/m) @ t=0.52
1.47548071799554
% es.EY (V/m) @ t=0.52
0.09290777390836646
% es.EZ (V/m) @ t=0.52
0.5964863975302923
% es.tEX (V/m) @ t=0.52
1.4754807179955378
% es.tEY (V/m) @ t=0.52
0
% es.tEZ (V/m) @ t=0.52
0.5964863975302932
% es.Ex (V/m) @ t=0.52
1.47548071799554
% es.Ey (V/m) @ t=0.52
0.09290777390836646
% es.Ez (V/m) @ t=0.52
0.5964863975302923
% es.tEx (V/m) @ t=0.52
1.4754807179955378
% es.tEy (V/m) @ t=0.52
0
% es.tEz (V/m) @ t=0.52
0.5964863975302932
% V (V) @ t=0.52
0.007963886633564905
% es.normE (V/m) @ t=0.54
1.6107519016776881
% es.EX (V/m) @ t=0.54
1.4885438256555013
% es.EY (V/m) @ t=0.54
0.09373053848995916
% es.EZ (V/m) @ t=0.54
0.601767703609362
% es.tEX (V/m) @ t=0.54
1.4885438256554968
% es.tEY (V/m) @ t=0.54
0
% es.tEZ (V/m) @ t=0.54
0.601767703609362
% es.Ex (V/m) @ t=0.54
1.4885438256555013
% es.Ey (V/m) @ t=0.54
0.09373053848995916
% es.Ez (V/m) @ t=0.54
0.601767703609362
% es.tEx (V/m) @ t=0.54
1.4885438256554968
% es.tEy (V/m) @ t=0.54
0
% es.tEz (V/m) @ t=0.54
0.601767703609362
% V (V) @ t=0.54
0.00803437340657601
% es.normE (V/m) @ t=0.56
1.6262774972471448
% es.EX (V/m) @ t=0.56
1.5028916877038578
% es.EY (V/m) @ t=0.56
0.09463367231152764
% es.EZ (V/m) @ t=0.56
0.6075674934770623
% es.tEX (V/m) @ t=0.56
1.5028916877038538
% es.tEY (V/m) @ t=0.56
0
% es.tEZ (V/m) @ t=0.56
0.6075674934770614
% es.Ex (V/m) @ t=0.56
1.5028916877038578
% es.Ey (V/m) @ t=0.56
0.09463367231152764
% es.Ez (V/m) @ t=0.56
0.6075674934770623
% es.tEx (V/m) @ t=0.56
1.5028916877038538
% es.tEy (V/m) @ t=0.56
0
% es.tEz (V/m) @ t=0.56
0.6075674934770614
% V (V) @ t=0.56
0.008111848945558603
% es.normE (V/m) @ t=0.58
1.642051779855569
% es.EX (V/m) @ t=0.58
1.5174694250302236
% es.EY (V/m) @ t=0.58
0.09555118623681508
% es.EZ (V/m) @ t=0.58
0.6134600532983971
% es.tEX (V/m) @ t=0.58
1.5174694250302236
% es.tEY (V/m) @ t=0.58
0
% es.tEZ (V/m) @ t=0.58
0.6134600532983971
% es.Ex (V/m) @ t=0.58
1.5174694250302236
% es.Ey (V/m) @ t=0.58
0.09555118623681508
% es.Ez (V/m) @ t=0.58
0.6134600532983971
% es.tEx (V/m) @ t=0.58
1.5174694250302236
% es.tEy (V/m) @ t=0.58
0
% es.tEz (V/m) @ t=0.58
0.6134600532983971
% V (V) @ t=0.58
0.008190574952751302
% es.normE (V/m) @ t=0.6
1.6578260624644363
% es.EX (V/m) @ t=0.6
1.5320471623565832
% es.EY (V/m) @ t=0.6
0.09646870016211406
% es.EZ (V/m) @ t=0.6
0.6193526131197138
% es.tEX (V/m) @ t=0.6
1.5320471623565783
% es.tEY (V/m) @ t=0.6
0
% es.tEZ (V/m) @ t=0.6
0.6193526131197138
% es.Ex (V/m) @ t=0.6
1.5320471623565832
% es.Ey (V/m) @ t=0.6
0.09646870016211406
% es.Ez (V/m) @ t=0.6
0.6193526131197138
% es.tEx (V/m) @ t=0.6
1.5320471623565783
% es.tEy (V/m) @ t=0.6
0
% es.tEz (V/m) @ t=0.6
0.6193526131197138
% V (V) @ t=0.6
0.008269300959944
% es.normE (V/m) @ t=0.62
1.6736003450737373
% es.EX (V/m) @ t=0.62
1.54662489968293
% es.EY (V/m) @ t=0.62
0.09738621408742032
% es.EZ (V/m) @ t=0.62
0.6252451729410433
% es.tEX (V/m) @ t=0.62
1.5466248996829322
% es.tEY (V/m) @ t=0.62
0
% es.tEZ (V/m) @ t=0.62
0.6252451729410451
% es.Ex (V/m) @ t=0.62
1.54662489968293
% es.Ey (V/m) @ t=0.62
0.09738621408742032
% es.Ez (V/m) @ t=0.62
0.6252451729410433
% es.tEx (V/m) @ t=0.62
1.5466248996829322
% es.tEy (V/m) @ t=0.62
0
% es.tEz (V/m) @ t=0.62
0.6252451729410451
% V (V) @ t=0.62
0.0083480269671367
% es.normE (V/m) @ t=0.64
1.6893746276834936
% es.EX (V/m) @ t=0.64
1.5612026370093028
% es.EY (V/m) @ t=0.64
0.0983037280127097
% es.EZ (V/m) @ t=0.64
0.6311377327623773
% es.tEX (V/m) @ t=0.64
1.5612026370093028
% es.tEY (V/m) @ t=0.64
0
% es.tEZ (V/m) @ t=0.64
0.6311377327623782
% es.Ex (V/m) @ t=0.64
1.5612026370093028
% es.Ey (V/m) @ t=0.64
0.0983037280127097
% es.Ez (V/m) @ t=0.64
0.6311377327623773
% es.tEx (V/m) @ t=0.64
1.5612026370093028
% es.tEy (V/m) @ t=0.64
0
% es.tEz (V/m) @ t=0.64
0.6311377327623782
% V (V) @ t=0.64
0.008426752974329401
% es.normE (V/m) @ t=0.66
1.705148910293654
% es.EX (V/m) @ t=0.66
1.5757803743356664
% es.EY (V/m) @ t=0.66
0.09922124193800597
% es.EZ (V/m) @ t=0.66
0.6370302925836966
% es.tEX (V/m) @ t=0.66
1.575780374335661
% es.tEY (V/m) @ t=0.66
0
% es.tEZ (V/m) @ t=0.66
0.6370302925837001
% es.Ex (V/m) @ t=0.66
1.5757803743356664
% es.Ey (V/m) @ t=0.66
0.09922124193800597
% es.Ez (V/m) @ t=0.66
0.6370302925836966
% es.tEx (V/m) @ t=0.66
1.575780374335661
% es.tEy (V/m) @ t=0.66
0
% es.tEz (V/m) @ t=0.66
0.6370302925837001
% V (V) @ t=0.66
0.008505478981522102
% es.normE (V/m) @ t=0.68
1.7209231929042135
% es.EX (V/m) @ t=0.68
1.5903581116620176
% es.EY (V/m) @ t=0.68
0.100138755863306
% es.EZ (V/m) @ t=0.68
0.6429228524050288
% es.tEX (V/m) @ t=0.68
1.5903581116620211
% es.tEY (V/m) @ t=0.68
0
% es.tEZ (V/m) @ t=0.68
0.6429228524050297
% es.Ex (V/m) @ t=0.68
1.5903581116620176
% es.Ey (V/m) @ t=0.68
0.100138755863306
% es.Ez (V/m) @ t=0.68
0.6429228524050288
% es.tEx (V/m) @ t=0.68
1.5903581116620211
% es.tEy (V/m) @ t=0.68
0
% es.tEz (V/m) @ t=0.68
0.6429228524050297
% V (V) @ t=0.68
0.0085842049887148
% es.normE (V/m) @ t=0.7
1.7366974755151694
% es.EX (V/m) @ t=0.7
1.6049358489883736
% es.EY (V/m) @ t=0.7
0.10105626978860494
% es.EZ (V/m) @ t=0.7
0.6488154122263521
% es.tEX (V/m) @ t=0.7
1.604935848988374
% es.tEY (V/m) @ t=0.7
0
% es.tEZ (V/m) @ t=0.7
0.6488154122263556
% es.Ex (V/m) @ t=0.7
1.6049358489883736
% es.Ey (V/m) @ t=0.7
0.10105626978860494
% es.Ez (V/m) @ t=0.7
0.6488154122263521
% es.tEx (V/m) @ t=0.7
1.604935848988374
% es.tEy (V/m) @ t=0.7
0
% es.tEz (V/m) @ t=0.7
0.6488154122263556
% V (V) @ t=0.7
0.008662930995907498
% es.normE (V/m) @ t=0.72
1.7524717581265112
% es.EX (V/m) @ t=0.72
1.6195135863147314
% es.EY (V/m) @ t=0.72
0.1019737837139012
% es.EZ (V/m) @ t=0.72
0.6547079720476776
% es.tEX (V/m) @ t=0.72
1.619513586314735
% es.tEY (V/m) @ t=0.72
0
% es.tEZ (V/m) @ t=0.72
0.6547079720476758
% es.Ex (V/m) @ t=0.72
1.6195135863147314
% es.Ey (V/m) @ t=0.72
0.1019737837139012
% es.Ez (V/m) @ t=0.72
0.6547079720476776
% es.tEx (V/m) @ t=0.72
1.619513586314735
% es.tEy (V/m) @ t=0.72
0
% es.tEz (V/m) @ t=0.72
0.6547079720476758
% V (V) @ t=0.72
0.008741657003100197
% es.normE (V/m) @ t=0.74
1.768246040738237
% es.EX (V/m) @ t=0.74
1.6340913236410963
% es.EY (V/m) @ t=0.74
0.10289129763920646
% es.EZ (V/m) @ t=0.74
0.6606005318690076
% es.tEX (V/m) @ t=0.74
1.6340913236411074
% es.tEY (V/m) @ t=0.74
0
% es.tEZ (V/m) @ t=0.74
0.660600531869012
% es.Ex (V/m) @ t=0.74
1.6340913236410963
% es.Ey (V/m) @ t=0.74
0.10289129763920646
% es.Ez (V/m) @ t=0.74
0.6606005318690076
% es.tEx (V/m) @ t=0.74
1.6340913236411074
% es.tEy (V/m) @ t=0.74
0
% es.tEz (V/m) @ t=0.74
0.660600531869012
% V (V) @ t=0.74
0.0088203830102929
% es.normE (V/m) @ t=0.76
1.784020323350325
% es.EX (V/m) @ t=0.76
1.6486690609674581
% es.EY (V/m) @ t=0.76
0.10380881156449406
% es.EZ (V/m) @ t=0.76
0.666493091690346
% es.tEX (V/m) @ t=0.76
1.648669060967456
% es.tEY (V/m) @ t=0.76
0
% es.tEZ (V/m) @ t=0.76
0.6664930916903469
% es.Ex (V/m) @ t=0.76
1.6486690609674581
% es.Ey (V/m) @ t=0.76
0.10380881156449406
% es.Ez (V/m) @ t=0.76
0.666493091690346
% es.tEx (V/m) @ t=0.76
1.648669060967456
% es.tEy (V/m) @ t=0.76
0
% es.tEz (V/m) @ t=0.76
0.6664930916903469
% V (V) @ t=0.76
0.0088991090174856
% es.normE (V/m) @ t=0.78
1.7997946059627614
% es.EX (V/m) @ t=0.78
1.663246798293823
% es.EY (V/m) @ t=0.78
0.10472632548979666
% es.EZ (V/m) @ t=0.78
0.6723856515116569
% es.tEX (V/m) @ t=0.78
1.6632467982938195
% es.tEY (V/m) @ t=0.78
0
% es.tEZ (V/m) @ t=0.78
0.6723856515116586
% es.Ex (V/m) @ t=0.78
1.663246798293823
% es.Ey (V/m) @ t=0.78
0.10472632548979666
% es.Ez (V/m) @ t=0.78
0.6723856515116569
% es.tEx (V/m) @ t=0.78
1.6632467982938195
% es.tEy (V/m) @ t=0.78
0
% es.tEz (V/m) @ t=0.78
0.6723856515116586
% V (V) @ t=0.78
0.0089778350246783
% es.normE (V/m) @ t=0.8
1.8155688885755423
% es.EX (V/m) @ t=0.8
1.6778245356201795
% es.EY (V/m) @ t=0.8
0.10564383941509747
% es.EZ (V/m) @ t=0.8
0.6782782113329875
% es.tEX (V/m) @ t=0.8
1.6778245356201813
% es.tEY (V/m) @ t=0.8
0
% es.tEZ (V/m) @ t=0.8
0.678278211332993
% es.Ex (V/m) @ t=0.8
1.6778245356201795
% es.Ey (V/m) @ t=0.8
0.10564383941509747
% es.Ez (V/m) @ t=0.8
0.6782782113329875
% es.tEx (V/m) @ t=0.8
1.6778245356201813
% es.tEy (V/m) @ t=0.8
0
% es.tEz (V/m) @ t=0.8
0.678278211332993
% V (V) @ t=0.8
0.009056561031871
% es.normE (V/m) @ t=0.82
1.8318571388246505
% es.EX (V/m) @ t=0.82
1.692877162017366
% es.EY (V/m) @ t=0.82
0.10659138658936596
% es.EZ (V/m) @ t=0.82
0.6843629930423412
% es.tEX (V/m) @ t=0.82
1.692877162017366
% es.tEY (V/m) @ t=0.82
0
% es.tEZ (V/m) @ t=0.82
0.6843629930423365
% es.Ex (V/m) @ t=0.82
1.692877162017366
% es.Ey (V/m) @ t=0.82
0.10659138658936596
% es.Ez (V/m) @ t=0.82
0.6843629930423412
% es.tEx (V/m) @ t=0.82
1.692877162017366
% es.tEy (V/m) @ t=0.82
0
% es.tEz (V/m) @ t=0.82
0.6843629930423365
% V (V) @ t=0.82
0.009137836486288077
% es.normE (V/m) @ t=0.84
1.8494847934231684
% es.EX (V/m) @ t=0.84
1.70916735366644
% es.EY (V/m) @ t=0.84
0.10761720068450065
% es.EZ (V/m) @ t=0.84
0.6909487067458333
% es.tEX (V/m) @ t=0.84
1.7091673536664356
% es.tEY (V/m) @ t=0.84
0
% es.tEZ (V/m) @ t=0.84
0.6909487067458295
% es.Ex (V/m) @ t=0.84
1.70916735366644
% es.Ey (V/m) @ t=0.84
0.10761720068450065
% es.Ez (V/m) @ t=0.84
0.6909487067458333
% es.tEx (V/m) @ t=0.84
1.7091673536664356
% es.tEy (V/m) @ t=0.84
0
% es.tEz (V/m) @ t=0.84
0.6909487067458295
% V (V) @ t=0.84
0.009225755823435202
% es.normE (V/m) @ t=0.86
1.8671124480217314
% es.EX (V/m) @ t=0.86
1.7254575453155132
% es.EY (V/m) @ t=0.86
0.10864301477963978
% es.EZ (V/m) @ t=0.86
0.6975344204493468
% es.tEX (V/m) @ t=0.86
1.7254575453155052
% es.tEY (V/m) @ t=0.86
0
% es.tEZ (V/m) @ t=0.86
0.6975344204493474
% es.Ex (V/m) @ t=0.86
1.7254575453155132
% es.Ey (V/m) @ t=0.86
0.10864301477963978
% es.Ez (V/m) @ t=0.86
0.6975344204493468
% es.tEx (V/m) @ t=0.86
1.7254575453155052
% es.tEy (V/m) @ t=0.86
0
% es.tEz (V/m) @ t=0.86
0.6975344204493474
% V (V) @ t=0.86
0.009313675160582327
% es.normE (V/m) @ t=0.88
1.8847401026203259
% es.EX (V/m) @ t=0.88
1.7417477369645828
% es.EY (V/m) @ t=0.88
0.10966882887476936
% es.EZ (V/m) @ t=0.88
0.7041201341528549
% es.tEX (V/m) @ t=0.88
1.7417477369645855
% es.tEY (V/m) @ t=0.88
0
% es.tEZ (V/m) @ t=0.88
0.7041201341528547
% es.Ex (V/m) @ t=0.88
1.7417477369645828
% es.Ey (V/m) @ t=0.88
0.10966882887476936
% es.Ez (V/m) @ t=0.88
0.7041201341528549
% es.tEx (V/m) @ t=0.88
1.7417477369645855
% es.tEy (V/m) @ t=0.88
0
% es.tEz (V/m) @ t=0.88
0.7041201341528547
% V (V) @ t=0.88
0.009401594497729456
% es.normE (V/m) @ t=0.9
1.9023677572189501
% es.EX (V/m) @ t=0.9
1.7580379286136507
% es.EY (V/m) @ t=0.9
0.11069464296990428
% es.EZ (V/m) @ t=0.9
0.710705847856351
% es.tEX (V/m) @ t=0.9
1.7580379286136534
% es.tEY (V/m) @ t=0.9
0
% es.tEZ (V/m) @ t=0.9
0.7107058478563522
% es.Ex (V/m) @ t=0.9
1.7580379286136507
% es.Ey (V/m) @ t=0.9
0.11069464296990428
% es.Ez (V/m) @ t=0.9
0.710705847856351
% es.tEx (V/m) @ t=0.9
1.7580379286136534
% es.tEy (V/m) @ t=0.9
0
% es.tEz (V/m) @ t=0.9
0.7107058478563522
% V (V) @ t=0.9
0.00948951383487658
% es.normE (V/m) @ t=0.92
1.9199954118176217
% es.EX (V/m) @ t=0.92
1.7743281202627275
% es.EY (V/m) @ t=0.92
0.11172045706504896
% es.EZ (V/m) @ t=0.92
0.7172915615598583
% es.tEX (V/m) @ t=0.92
1.7743281202627266
% es.tEY (V/m) @ t=0.92
0
% es.tEZ (V/m) @ t=0.92
0.7172915615598576
% es.Ex (V/m) @ t=0.92
1.7743281202627275
% es.Ey (V/m) @ t=0.92
0.11172045706504896
% es.Ez (V/m) @ t=0.92
0.7172915615598583
% es.tEx (V/m) @ t=0.92
1.7743281202627266
% es.tEy (V/m) @ t=0.92
0
% es.tEz (V/m) @ t=0.92
0.7172915615598576
% V (V) @ t=0.92
0.009577433172023708
% es.normE (V/m) @ t=0.94
1.9376230664163208
% es.EX (V/m) @ t=0.94
1.790618311911797
% es.EY (V/m) @ t=0.94
0.11274627116017921
% es.EZ (V/m) @ t=0.94
0.7238772752633664
% es.tEX (V/m) @ t=0.94
1.7906183119117962
% es.tEY (V/m) @ t=0.94
0
% es.tEZ (V/m) @ t=0.94
0.7238772752633649
% es.Ex (V/m) @ t=0.94
1.790618311911797
% es.Ey (V/m) @ t=0.94
0.11274627116017921
% es.Ez (V/m) @ t=0.94
0.7238772752633664
% es.tEx (V/m) @ t=0.94
1.7906183119117962
% es.tEy (V/m) @ t=0.94
0
% es.tEz (V/m) @ t=0.94
0.7238772752633649
% V (V) @ t=0.94
0.009665352509170834
% es.normE (V/m) @ t=0.96
1.9552507210150503
% es.EX (V/m) @ t=0.96
1.8069085035608667
% es.EY (V/m) @ t=0.96
0.11377208525530613
% es.EZ (V/m) @ t=0.96
0.730462988966871
% es.tEX (V/m) @ t=0.96
1.8069085035608659
% es.tEY (V/m) @ t=0.96
0
% es.tEZ (V/m) @ t=0.96
0.7304629889668721
% es.Ex (V/m) @ t=0.96
1.8069085035608667
% es.Ey (V/m) @ t=0.96
0.11377208525530613
% es.Ez (V/m) @ t=0.96
0.730462988966871
% es.tEx (V/m) @ t=0.96
1.8069085035608659
% es.tEy (V/m) @ t=0.96
0
% es.tEz (V/m) @ t=0.96
0.7304629889668721
% V (V) @ t=0.96
0.00975327184631796
% es.normE (V/m) @ t=0.98
1.9728783756138206
% es.EX (V/m) @ t=0.98
1.8231986952099435
% es.EY (V/m) @ t=0.98
0.11479789935044693
% es.EZ (V/m) @ t=0.98
0.7370487026703767
% es.tEX (V/m) @ t=0.98
1.8231986952099337
% es.tEY (V/m) @ t=0.98
0
% es.tEZ (V/m) @ t=0.98
0.737048702670374
% es.Ex (V/m) @ t=0.98
1.8231986952099435
% es.Ey (V/m) @ t=0.98
0.11479789935044693
% es.Ez (V/m) @ t=0.98
0.7370487026703767
% es.tEx (V/m) @ t=0.98
1.8231986952099337
% es.tEy (V/m) @ t=0.98
0
% es.tEz (V/m) @ t=0.98
0.737048702670374
% V (V) @ t=0.98
0.009841191183465088
% es.normE (V/m) @ t=1
1.9905060302126092
% es.EX (V/m) @ t=1
1.839488886859006
% es.EY (V/m) @ t=1
0.11582371344557896
% es.EZ (V/m) @ t=1
0.7436344163738857
% es.tEX (V/m) @ t=1
1.839488886859007
% es.tEY (V/m) @ t=1
0
% es.tEZ (V/m) @ t=1
0.7436344163738831
% es.Ex (V/m) @ t=1
1.839488886859006
% es.Ey (V/m) @ t=1
0.11582371344557896
% es.Ez (V/m) @ t=1
0.7436344163738857
% es.tEx (V/m) @ t=1
1.839488886859007
% es.tEy (V/m) @ t=1
0
% es.tEz (V/m) @ t=1
0.7436344163738831
% V (V) @ t=1
0.009929110520612213
% es.normE (V/m) @ t=1.02
2.008133684811437
% es.EX (V/m) @ t=1.02
1.8557790785080792
% es.EY (V/m) @ t=1.02
0.11684952754072364
% es.EZ (V/m) @ t=1.02
0.7502201300773867
% es.tEX (V/m) @ t=1.02
1.8557790785080766
% es.tEY (V/m) @ t=1.02
0
% es.tEZ (V/m) @ t=1.02
0.7502201300773867
% es.Ex (V/m) @ t=1.02
1.8557790785080792
% es.Ey (V/m) @ t=1.02
0.11684952754072364
% es.Ez (V/m) @ t=1.02
0.7502201300773867
% es.tEx (V/m) @ t=1.02
1.8557790785080766
% es.tEy (V/m) @ t=1.02
0
% es.tEz (V/m) @ t=1.02
0.7502201300773867
% V (V) @ t=1.02
0.010017029857759338
% es.normE (V/m) @ t=1.04
2.025761339410284
% es.EX (V/m) @ t=1.04
1.8720692701571453
% es.EY (V/m) @ t=1.04
0.11787534163585389
% es.EZ (V/m) @ t=1.04
0.7568058437808842
% es.tEX (V/m) @ t=1.04
1.872069270157139
% es.tEY (V/m) @ t=1.04
0
% es.tEZ (V/m) @ t=1.04
0.7568058437808798
% es.Ex (V/m) @ t=1.04
1.8720692701571453
% es.Ey (V/m) @ t=1.04
0.11787534163585389
% es.Ez (V/m) @ t=1.04
0.7568058437808842
% es.tEx (V/m) @ t=1.04