% Model:              1 neuron.mph
% Version:            COMSOL 6.1.0.252
% Date:               Mar 18 2023, 12:48
% Dimension:          0
% Nodes:              14017
% Expressions:        14017
% Description:        Electric field norm, Electric field, X component, Electric field, Y component, Electric field, Z component, Tangential electric field, X component, Tangential electric field, Y component, Tangential electric field, Z component, Electric field, x component, Electric field, y component, Electric field, z component, Tangential electric field, x component, Tangential electric field, y component, Tangential electric field, z component, Electric potential
% Length unit:        mm
% x
1
% y
12.2
% z
1.6599999999999997
% es.normE (V/m) @ t=0
1.6506477131900117
% es.EX (V/m) @ t=0
1.4776750570754742
% es.EY (V/m) @ t=0
0.0568538896127295
% es.EZ (V/m) @ t=0
-0.7334043205666275
% es.tEX (V/m) @ t=0
1.4776750570754729
% es.tEY (V/m) @ t=0
0
% es.tEZ (V/m) @ t=0
-0.7334043205666241
% es.Ex (V/m) @ t=0
1.4776750570754742
% es.Ey (V/m) @ t=0
0.0568538896127295
% es.Ez (V/m) @ t=0
-0.7334043205666275
% es.tEx (V/m) @ t=0
1.4776750570754729
% es.tEy (V/m) @ t=0
0
% es.tEz (V/m) @ t=0
-0.7334043205666241
% V (V) @ t=0
0.007488980103559355
% es.normE (V/m) @ t=0.02
1.4256865333763646
% es.EX (V/m) @ t=0.02
1.2762877359702822
% es.EY (V/m) @ t=0.02
0.04910546916532943
% es.EZ (V/m) @ t=0.02
-0.6334511284081479
% es.tEX (V/m) @ t=0.02
1.276287735970282
% es.tEY (V/m) @ t=0.02
0
% es.tEZ (V/m) @ t=0.02
-0.6334511284081366
% es.Ex (V/m) @ t=0.02
1.2762877359702822
% es.Ey (V/m) @ t=0.02
0.04910546916532943
% es.Ez (V/m) @ t=0.02
-0.6334511284081479
% es.tEx (V/m) @ t=0.02
1.276287735970282
% es.tEy (V/m) @ t=0.02
0
% es.tEz (V/m) @ t=0.02
-0.6334511284081366
% V (V) @ t=0.02
0.006468332282660449
% es.normE (V/m) @ t=0.04
1.4388046367513656
% es.EX (V/m) @ t=0.04
1.288031184455688
% es.EY (V/m) @ t=0.04
0.04955730340725886
% es.EZ (V/m) @ t=0.04
-0.6392796700210606
% es.tEX (V/m) @ t=0.04
1.2880311844556878
% es.tEY (V/m) @ t=0.04
0
% es.tEZ (V/m) @ t=0.04
-0.6392796700210646
% es.Ex (V/m) @ t=0.04
1.288031184455688
% es.Ey (V/m) @ t=0.04
0.04955730340725886
% es.Ez (V/m) @ t=0.04
-0.6392796700210606
% es.tEx (V/m) @ t=0.04
1.2880311844556878
% es.tEy (V/m) @ t=0.04
0
% es.tEz (V/m) @ t=0.04
-0.6392796700210646
% V (V) @ t=0.04
0.006527848967725822
% es.normE (V/m) @ t=0.06
1.4520427817050647
% es.EX (V/m) @ t=0.06
1.2998820930173243
% es.EY (V/m) @ t=0.06
0.050013268385231485
% es.EZ (V/m) @ t=0.06
-0.6451615525145651
% es.tEX (V/m) @ t=0.06
1.2998820930173256
% es.tEY (V/m) @ t=0.06
0
% es.tEZ (V/m) @ t=0.06
-0.645161552514562
% es.Ex (V/m) @ t=0.06
1.2998820930173243
% es.Ey (V/m) @ t=0.06
0.050013268385231485
% es.Ez (V/m) @ t=0.06
-0.6451615525145651
% es.tEx (V/m) @ t=0.06
1.2998820930173256
% es.tEy (V/m) @ t=0.06
0
% es.tEz (V/m) @ t=0.06
-0.645161552514562
% V (V) @ t=0.06
0.006587910415451638
% es.normE (V/m) @ t=0.08
1.4654788594160455
% es.EX (V/m) @ t=0.08
1.3119101944538425
% es.EY (V/m) @ t=0.08
0.0504760536341797
% es.EZ (V/m) @ t=0.08
-0.6511313755837556
% es.tEX (V/m) @ t=0.08
1.311910194453843
% es.tEY (V/m) @ t=0.08
0
% es.tEZ (V/m) @ t=0.08
-0.651131375583752
% es.Ex (V/m) @ t=0.08
1.3119101944538425
% es.Ey (V/m) @ t=0.08
0.0504760536341797
% es.Ez (V/m) @ t=0.08
-0.6511313755837556
% es.tEx (V/m) @ t=0.08
1.311910194453843
% es.tEy (V/m) @ t=0.08
0
% es.tEz (V/m) @ t=0.08
-0.651131375583752
% V (V) @ t=0.08
0.006648869785638315
% es.normE (V/m) @ t=0.1
1.47906104227132
% es.EX (V/m) @ t=0.1
1.3240690917773468
% es.EY (V/m) @ t=0.1
0.05094387330333364
% es.EZ (V/m) @ t=0.1
-0.6571661124685106
% es.tEX (V/m) @ t=0.1
1.324069091777345
% es.tEY (V/m) @ t=0.1
0
% es.tEZ (V/m) @ t=0.1
-0.6571661124685058
% es.Ex (V/m) @ t=0.1
1.3240690917773468
% es.Ey (V/m) @ t=0.1
0.05094387330333364
% es.Ez (V/m) @ t=0.1
-0.6571661124685106
% es.tEx (V/m) @ t=0.1
1.324069091777345
% es.tEy (V/m) @ t=0.1
0
% es.tEz (V/m) @ t=0.1
-0.6571661124685058
% V (V) @ t=0.1
0.00671049196218669
% es.normE (V/m) @ t=0.12
1.492643225126601
% es.EX (V/m) @ t=0.12
1.3362279891008564
% es.EY (V/m) @ t=0.12
0.051411692972509804
% es.EZ (V/m) @ t=0.12
-0.6632008493532674
% es.tEX (V/m) @ t=0.12
1.3362279891008626
% es.tEY (V/m) @ t=0.12
0
% es.tEZ (V/m) @ t=0.12
-0.6632008493532595
% es.Ex (V/m) @ t=0.12
1.3362279891008564
% es.Ey (V/m) @ t=0.12
0.051411692972509804
% es.Ez (V/m) @ t=0.12
-0.6632008493532674
% es.tEx (V/m) @ t=0.12
1.3362279891008626
% es.tEy (V/m) @ t=0.12
0
% es.tEz (V/m) @ t=0.12
-0.6632008493532595
% V (V) @ t=0.12
0.006772114138735065
% es.normE (V/m) @ t=0.14
1.5063423938816078
% es.EX (V/m) @ t=0.14
1.348491612713695
% es.EY (V/m) @ t=0.14
0.051883541070014305
% es.EZ (V/m) @ t=0.14
-0.6692875658172026
% es.tEX (V/m) @ t=0.14
1.3484916127136866
% es.tEY (V/m) @ t=0.14
0
% es.tEZ (V/m) @ t=0.14
-0.6692875658171857
% es.Ex (V/m) @ t=0.14
1.348491612713695
% es.Ey (V/m) @ t=0.14
0.051883541070014305
% es.Ez (V/m) @ t=0.14
-0.6692875658172026
% es.tEx (V/m) @ t=0.14
1.3484916127136866
% es.tEy (V/m) @ t=0.14
0
% es.tEz (V/m) @ t=0.14
-0.6692875658171857
% V (V) @ t=0.14
0.006834267113240935
% es.normE (V/m) @ t=0.16
1.5206527848428701
% es.EX (V/m) @ t=0.16
1.3613024051200846
% es.EY (V/m) @ t=0.16
0.05237643670293857
% es.EZ (V/m) @ t=0.16
-0.6756458626437327
% es.tEX (V/m) @ t=0.16
1.3613024051200804
% es.tEY (V/m) @ t=0.16
0
% es.tEZ (V/m) @ t=0.16
-0.67564586264373
% es.Ex (V/m) @ t=0.16
1.3613024051200846
% es.Ey (V/m) @ t=0.16
0.05237643670293857
% es.Ez (V/m) @ t=0.16
-0.6756458626437327
% es.tEx (V/m) @ t=0.16
1.3613024051200804
% es.tEy (V/m) @ t=0.16
0
% es.tEz (V/m) @ t=0.16
-0.67564586264373
% V (V) @ t=0.16
0.006899193374949994
% es.normE (V/m) @ t=0.18
1.534963175804132
% es.EX (V/m) @ t=0.18
1.3741131975264687
% es.EY (V/m) @ t=0.18
0.05286933233585925
% es.EZ (V/m) @ t=0.18
-0.6820041594702735
% es.tEX (V/m) @ t=0.18
1.3741131975264693
% es.tEY (V/m) @ t=0.18
0
% es.tEZ (V/m) @ t=0.18
-0.6820041594702673
% es.Ex (V/m) @ t=0.18
1.3741131975264687
% es.Ey (V/m) @ t=0.18
0.05286933233585925
% es.Ez (V/m) @ t=0.18
-0.6820041594702735
% es.tEx (V/m) @ t=0.18
1.3741131975264693
% es.tEy (V/m) @ t=0.18
0
% es.tEz (V/m) @ t=0.18
-0.6820041594702673
% V (V) @ t=0.18
0.006964119636659053
% es.normE (V/m) @ t=0.2
1.5492735667653879
% es.EX (V/m) @ t=0.2
1.3869239899328547
% es.EY (V/m) @ t=0.2
0.05336222796876616
% es.EZ (V/m) @ t=0.2
-0.6883624562967983
% es.tEX (V/m) @ t=0.2
1.386923989932848
% es.tEY (V/m) @ t=0.2
0
% es.tEZ (V/m) @ t=0.2
-0.6883624562967974
% es.Ex (V/m) @ t=0.2
1.3869239899328547
% es.Ey (V/m) @ t=0.2
0.05336222796876616
% es.Ez (V/m) @ t=0.2
-0.6883624562967983
% es.tEx (V/m) @ t=0.2
1.386923989932848
% es.tEy (V/m) @ t=0.2
0
% es.tEz (V/m) @ t=0.2
-0.6883624562967974
% V (V) @ t=0.2
0.007029045898368114
% es.normE (V/m) @ t=0.22
1.5635839577266428
% es.EX (V/m) @ t=0.22
1.3997347823392357
% es.EY (V/m) @ t=0.22
0.053855123601676214
% es.EZ (V/m) @ t=0.22
-0.6947207531233301
% es.tEX (V/m) @ t=0.22
1.3997347823392379
% es.tEY (V/m) @ t=0.22
0
% es.tEZ (V/m) @ t=0.22
-0.6947207531233346
% es.Ex (V/m) @ t=0.22
1.3997347823392357
% es.Ey (V/m) @ t=0.22
0.053855123601676214
% es.Ez (V/m) @ t=0.22
-0.6947207531233301
% es.tEx (V/m) @ t=0.22
1.3997347823392379
% es.tEy (V/m) @ t=0.22
0
% es.tEz (V/m) @ t=0.22
-0.6947207531233346
% V (V) @ t=0.22
0.0070939721600771725
% es.normE (V/m) @ t=0.24
1.577894348687904
% es.EX (V/m) @ t=0.24
1.4125455747456215
% es.EY (V/m) @ t=0.24
0.05434801923459956
% es.EZ (V/m) @ t=0.24
-0.7010790499498656
% es.tEX (V/m) @ t=0.24
1.4125455747456197
% es.tEY (V/m) @ t=0.24
0
% es.tEZ (V/m) @ t=0.24
-0.7010790499498611
% es.Ex (V/m) @ t=0.24
1.4125455747456215
% es.Ey (V/m) @ t=0.24
0.05434801923459956
% es.Ez (V/m) @ t=0.24
-0.7010790499498656
% es.tEx (V/m) @ t=0.24
1.4125455747456197
% es.tEy (V/m) @ t=0.24
0
% es.tEz (V/m) @ t=0.24
-0.7010790499498611
% V (V) @ t=0.24
0.007158898421786231
% es.normE (V/m) @ t=0.26
1.5922047396491799
% es.EX (V/m) @ t=0.26
1.4253563671520182
% es.EY (V/m) @ t=0.26
0.0548409148675216
% es.EZ (V/m) @ t=0.26
-0.7074373467764118
% es.tEX (V/m) @ t=0.26
1.4253563671520162
% es.tEY (V/m) @ t=0.26
0
% es.tEZ (V/m) @ t=0.26
-0.707437346776409
% es.Ex (V/m) @ t=0.26
1.4253563671520182
% es.Ey (V/m) @ t=0.26
0.0548409148675216
% es.Ez (V/m) @ t=0.26
-0.7074373467764118
% es.tEx (V/m) @ t=0.26
1.4253563671520162
% es.tEy (V/m) @ t=0.26
0
% es.tEz (V/m) @ t=0.26
-0.707437346776409
% V (V) @ t=0.26
0.007223824683495292
% es.normE (V/m) @ t=0.28
1.6070593310997574
% es.EX (V/m) @ t=0.28
1.4386541816782417
% es.EY (V/m) @ t=0.28
0.055352294853682454
% es.EZ (V/m) @ t=0.28
-0.7140377637374166
% es.tEX (V/m) @ t=0.28
1.43865418167824
% es.tEY (V/m) @ t=0.28
0
% es.tEZ (V/m) @ t=0.28
-0.7140377637374122
% es.Ex (V/m) @ t=0.28
1.4386541816782417
% es.Ey (V/m) @ t=0.28
0.055352294853682454
% es.Ez (V/m) @ t=0.28
-0.7140377637374166
% es.tEx (V/m) @ t=0.28
1.43865418167824
% es.tEy (V/m) @ t=0.28
0
% es.tEz (V/m) @ t=0.28
-0.7140377637374122
% V (V) @ t=0.28
0.007291228982421662
% es.normE (V/m) @ t=0.3
1.6230123340279825
% es.EX (V/m) @ t=0.3
1.4529349991536007
% es.EY (V/m) @ t=0.3
0.05590098356368664
% es.EZ (V/m) @ t=0.3
-0.7211268747362146
% es.tEX (V/m) @ t=0.3
1.4529349991536016
% es.tEY (V/m) @ t=0.3
0
% es.tEZ (V/m) @ t=0.3
-0.7211268747362105
% es.Ex (V/m) @ t=0.3
1.4529349991536007
% es.Ey (V/m) @ t=0.3
0.05590098356368664
% es.Ez (V/m) @ t=0.3
-0.7211268747362146
% es.tEx (V/m) @ t=0.3
1.4529349991536016
% es.tEy (V/m) @ t=0.3
0
% es.tEz (V/m) @ t=0.3
-0.7211268747362105
% V (V) @ t=0.3
0.007363634938959421
% es.normE (V/m) @ t=0.32
1.6389653369573174
% es.EX (V/m) @ t=0.32
1.4672158166289497
% es.EY (V/m) @ t=0.32
0.05644967227368816
% es.EZ (V/m) @ t=0.32
-0.7282159857349985
% es.tEX (V/m) @ t=0.32
1.4672158166289533
% es.tEY (V/m) @ t=0.32
0
% es.tEZ (V/m) @ t=0.32
-0.7282159857349946
% es.Ex (V/m) @ t=0.32
1.4672158166289497
% es.Ey (V/m) @ t=0.32
0.05644967227368816
% es.Ez (V/m) @ t=0.32
-0.7282159857349985
% es.tEx (V/m) @ t=0.32
1.4672158166289533
% es.tEy (V/m) @ t=0.32
0
% es.tEz (V/m) @ t=0.32
-0.7282159857349946
% V (V) @ t=0.32
0.007436040895497179
% es.normE (V/m) @ t=0.34
1.6549183398877554
% es.EX (V/m) @ t=0.34
1.4814966341043085
% es.EY (V/m) @ t=0.34
0.05699836098367991
% es.EZ (V/m) @ t=0.34
-0.735305096733786
% es.tEX (V/m) @ t=0.34
1.481496634104304
% es.tEY (V/m) @ t=0.34
0
% es.tEZ (V/m) @ t=0.34
-0.7353050967337893
% es.Ex (V/m) @ t=0.34
1.4814966341043085
% es.Ey (V/m) @ t=0.34
0.05699836098367991
% es.Ez (V/m) @ t=0.34
-0.735305096733786
% es.tEx (V/m) @ t=0.34
1.481496634104304
% es.tEy (V/m) @ t=0.34
0
% es.tEz (V/m) @ t=0.34
-0.7353050967337893
% V (V) @ t=0.34
0.007508446852034938
% es.normE (V/m) @ t=0.36
1.6708713428192574
% es.EX (V/m) @ t=0.36
1.4957774515796676
% es.EY (V/m) @ t=0.36
0.05754704969368585
% es.EZ (V/m) @ t=0.36
-0.7423942077325769
% es.tEX (V/m) @ t=0.36
1.495777451579663
% es.tEY (V/m) @ t=0.36
0
% es.tEZ (V/m) @ t=0.36
-0.7423942077325734
% es.Ex (V/m) @ t=0.36
1.4957774515796676
% es.Ey (V/m) @ t=0.36
0.05754704969368585
% es.Ez (V/m) @ t=0.36
-0.7423942077325769
% es.tEx (V/m) @ t=0.36
1.495777451579663
% es.tEy (V/m) @ t=0.36
0
% es.tEz (V/m) @ t=0.36
-0.7423942077325734
% V (V) @ t=0.36
0.007580852808572697
% es.normE (V/m) @ t=0.38
1.6868243457517915
% es.EX (V/m) @ t=0.38
1.5100582690550228
% es.EY (V/m) @ t=0.38
0.05809573840367804
% es.EZ (V/m) @ t=0.38
-0.7494833187313785
% es.tEX (V/m) @ t=0.38
1.5100582690550208
% es.tEY (V/m) @ t=0.38
0
% es.tEZ (V/m) @ t=0.38
-0.7494833187313645
% es.Ex (V/m) @ t=0.38
1.5100582690550228
% es.Ey (V/m) @ t=0.38
0.05809573840367804
% es.Ez (V/m) @ t=0.38
-0.7494833187313785
% es.tEx (V/m) @ t=0.38
1.5100582690550208
% es.tEy (V/m) @ t=0.38
0
% es.tEz (V/m) @ t=0.38
-0.7494833187313645
% V (V) @ t=0.38
0.0076532587651104555
% es.normE (V/m) @ t=0.4
1.702777348685317
% es.EX (V/m) @ t=0.4
1.524339086530377
% es.EY (V/m) @ t=0.4
0.058644427113686254
% es.EZ (V/m) @ t=0.4
-0.756572429730157
% es.tEX (V/m) @ t=0.4
1.5243390865303725
% es.tEY (V/m) @ t=0.4
0
% es.tEZ (V/m) @ t=0.4
-0.7565724297301557
% es.Ex (V/m) @ t=0.4
1.524339086530377
% es.Ey (V/m) @ t=0.4
0.058644427113686254
% es.Ez (V/m) @ t=0.4
-0.756572429730157
% es.tEx (V/m) @ t=0.4
1.5243390865303725
% es.tEy (V/m) @ t=0.4
0
% es.tEz (V/m) @ t=0.4
-0.7565724297301557
% V (V) @ t=0.4
0.007725664721648213
% es.normE (V/m) @ t=0.42
1.7187303516198091
% es.EX (V/m) @ t=0.42
1.538619904005722
% es.EY (V/m) @ t=0.42
0.05919311582367173
% es.EZ (V/m) @ t=0.42
-0.7636615407289373
% es.tEX (V/m) @ t=0.42
1.5386199040057207
% es.tEY (V/m) @ t=0.42
0
% es.tEZ (V/m) @ t=0.42
-0.7636615407289327
% es.Ex (V/m) @ t=0.42
1.538619904005722
% es.Ey (V/m) @ t=0.42
0.05919311582367173
% es.Ez (V/m) @ t=0.42
-0.7636615407289373
% es.tEx (V/m) @ t=0.42
1.5386199040057207
% es.tEy (V/m) @ t=0.42
0
% es.tEz (V/m) @ t=0.42
-0.7636615407289327
% V (V) @ t=0.42
0.007798070678185972
% es.normE (V/m) @ t=0.44
1.734683354555277
% es.EX (V/m) @ t=0.44
1.5529007214810866
% es.EY (V/m) @ t=0.44
0.05974180453366659
% es.EZ (V/m) @ t=0.44
-0.7707506517277407
% es.tEX (V/m) @ t=0.44
1.5529007214810866
% es.tEY (V/m) @ t=0.44
0
% es.tEZ (V/m) @ t=0.44
-0.770750651727738
% es.Ex (V/m) @ t=0.44
1.5529007214810866
% es.Ey (V/m) @ t=0.44
0.05974180453366659
% es.Ez (V/m) @ t=0.44
-0.7707506517277407
% es.tEx (V/m) @ t=0.44
1.5529007214810866
% es.tEy (V/m) @ t=0.44
0
% es.tEz (V/m) @ t=0.44
-0.770750651727738
% V (V) @ t=0.44
0.00787047663472373
% es.normE (V/m) @ t=0.46
1.7506363574916612
% es.EX (V/m) @ t=0.46
1.5671815389564472
% es.EY (V/m) @ t=0.46
0.06029049324366012
% es.EZ (V/m) @ t=0.46
-0.7778397627265405
% es.tEX (V/m) @ t=0.46
1.567181538956441
% es.tEY (V/m) @ t=0.46
0
% es.tEZ (V/m) @ t=0.46
-0.7778397627265328
% es.Ex (V/m) @ t=0.46
1.5671815389564472
% es.Ey (V/m) @ t=0.46
0.06029049324366012
% es.Ez (V/m) @ t=0.46
-0.7778397627265405
% es.tEx (V/m) @ t=0.46
1.567181538956441
% es.tEy (V/m) @ t=0.46
0
% es.tEz (V/m) @ t=0.46
-0.7778397627265328
% V (V) @ t=0.46
0.00794288259126149
% es.normE (V/m) @ t=0.48
1.766589360428921
% es.EX (V/m) @ t=0.48
1.5814623564317958
% es.EY (V/m) @ t=0.48
0.060839181953659865
% es.EZ (V/m) @ t=0.48
-0.7849288737253155
% es.tEX (V/m) @ t=0.48
1.5814623564317927
% es.tEY (V/m) @ t=0.48
0
% es.tEZ (V/m) @ t=0.48
-0.7849288737253133
% es.Ex (V/m) @ t=0.48
1.5814623564317958
% es.Ey (V/m) @ t=0.48
0.060839181953659865
% es.Ez (V/m) @ t=0.48
-0.7849288737253155
% es.tEx (V/m) @ t=0.48
1.5814623564317927
% es.tEy (V/m) @ t=0.48
0
% es.tEz (V/m) @ t=0.48
-0.7849288737253133
% V (V) @ t=0.48
0.008015288547799248
% es.normE (V/m) @ t=0.5
1.7825423633670754
% es.EX (V/m) @ t=0.5
1.5957431739071546
% es.EY (V/m) @ t=0.5
0.061387870663660915
% es.EZ (V/m) @ t=0.5
-0.7920179847241207
% es.tEX (V/m) @ t=0.5
1.5957431739071541
% es.tEY (V/m) @ t=0.5
0
% es.tEZ (V/m) @ t=0.5
-0.7920179847241151
% es.Ex (V/m) @ t=0.5
1.5957431739071546
% es.Ey (V/m) @ t=0.5
0.061387870663660915
% es.Ez (V/m) @ t=0.5
-0.7920179847241207
% es.tEx (V/m) @ t=0.5
1.5957431739071541
% es.tEy (V/m) @ t=0.5
0
% es.tEz (V/m) @ t=0.5
-0.7920179847241151
% V (V) @ t=0.5
0.008087694504337006
% es.normE (V/m) @ t=0.52
1.798495366306065
% es.EX (V/m) @ t=0.52
1.6100239913825085
% es.EY (V/m) @ t=0.52
0.06193655937365444
% es.EZ (V/m) @ t=0.52
-0.7991070957229027
% es.tEX (V/m) @ t=0.52
1.6100239913825058
% es.tEY (V/m) @ t=0.52
0
% es.tEZ (V/m) @ t=0.52
-0.7991070957228921
% es.Ex (V/m) @ t=0.52
1.6100239913825085
% es.Ey (V/m) @ t=0.52
0.06193655937365444
% es.Ez (V/m) @ t=0.52
-0.7991070957229027
% es.tEx (V/m) @ t=0.52
1.6100239913825058
% es.tEy (V/m) @ t=0.52
0
% es.tEz (V/m) @ t=0.52
-0.7991070957228921
% V (V) @ t=0.52
0.008160100460874764
% es.normE (V/m) @ t=0.54
1.8144483692458713
% es.EX (V/m) @ t=0.54
1.6243048088578518
% es.EY (V/m) @ t=0.54
0.0624852480836573
% es.EZ (V/m) @ t=0.54
-0.806196206721683
% es.tEX (V/m) @ t=0.54
1.6243048088578504
% es.tEY (V/m) @ t=0.54
0
% es.tEZ (V/m) @ t=0.54
-0.8061962067216797
% es.Ex (V/m) @ t=0.54
1.6243048088578518
% es.Ey (V/m) @ t=0.54
0.0624852480836573
% es.Ez (V/m) @ t=0.54
-0.806196206721683
% es.tEx (V/m) @ t=0.54
1.6243048088578504
% es.tEy (V/m) @ t=0.54
0
% es.tEz (V/m) @ t=0.54
-0.8061962067216797
% V (V) @ t=0.54
0.008232506417412522
% es.normE (V/m) @ t=0.56
1.8316455526669937
% es.EX (V/m) @ t=0.56
1.6397001910122049
% es.EY (V/m) @ t=0.56
0.06307810116511026
% es.EZ (V/m) @ t=0.56
-0.8138364846996
% es.tEX (V/m) @ t=0.56
1.6397001910122126
% es.tEY (V/m) @ t=0.56
0
% es.tEZ (V/m) @ t=0.56
-0.8138364846995962
% es.Ex (V/m) @ t=0.56
1.6397001910122049
% es.Ey (V/m) @ t=0.56
0.06307810116511026
% es.Ez (V/m) @ t=0.56
-0.8138364846996
% es.tEx (V/m) @ t=0.56
1.6397001910122126
% es.tEy (V/m) @ t=0.56
0
% es.tEz (V/m) @ t=0.56
-0.8138364846995962
% V (V) @ t=0.56
0.008310511791548066
% es.normE (V/m) @ t=0.58
1.8494483417151253
% es.EX (V/m) @ t=0.58
1.6556380882190584
% es.EY (V/m) @ t=0.58
0.06369245128189333
% es.EZ (V/m) @ t=0.58
-0.8217450435482744
% es.tEX (V/m) @ t=0.58
1.655638088219061
% es.tEY (V/m) @ t=0.58
0
% es.tEZ (V/m) @ t=0.58
-0.821745043548276
% es.Ex (V/m) @ t=0.58
1.6556380882190584
% es.Ey (V/m) @ t=0.58
0.06369245128189333
% es.Ez (V/m) @ t=0.58
-0.8217450435482744
% es.tEx (V/m) @ t=0.58
1.655638088219061
% es.tEy (V/m) @ t=0.58
0
% es.tEz (V/m) @ t=0.58
-0.821745043548276
% V (V) @ t=0.58
0.008391242685690864
% es.normE (V/m) @ t=0.6
1.8672511307657884
% es.EX (V/m) @ t=0.6
1.6715759854259045
% es.EY (V/m) @ t=0.6
0.0643068013986613
% es.EZ (V/m) @ t=0.6
-0.829653602396931
% es.tEX (V/m) @ t=0.6
1.6715759854259016
% es.tEY (V/m) @ t=0.6
0
% es.tEZ (V/m) @ t=0.6
-0.829653602396931
% es.Ex (V/m) @ t=0.6
1.6715759854259045
% es.Ey (V/m) @ t=0.6
0.0643068013986613
% es.Ez (V/m) @ t=0.6
-0.829653602396931
% es.tEx (V/m) @ t=0.6
1.6715759854259016
% es.tEy (V/m) @ t=0.6
0
% es.tEz (V/m) @ t=0.6
-0.829653602396931
% V (V) @ t=0.6
0.008471973579833661
% es.normE (V/m) @ t=0.62
1.8850539198189376
% es.EX (V/m) @ t=0.62
1.6875138826327507
% es.EY (V/m) @ t=0.62
0.0649211515154621
% es.EZ (V/m) @ t=0.62
-0.8375621612456123
% es.tEX (V/m) @ t=0.62
1.68751388263275
% es.tEY (V/m) @ t=0.62
0
% es.tEZ (V/m) @ t=0.62
-0.8375621612456108
% es.Ex (V/m) @ t=0.62
1.6875138826327507
% es.Ey (V/m) @ t=0.62
0.0649211515154621
% es.Ez (V/m) @ t=0.62
-0.8375621612456123
% es.tEx (V/m) @ t=0.62
1.68751388263275
% es.tEy (V/m) @ t=0.62
0
% es.tEz (V/m) @ t=0.62
-0.8375621612456108
% V (V) @ t=0.62
0.008552704473976458
% es.normE (V/m) @ t=0.64
1.902856708874478
% es.EX (V/m) @ t=0.64
1.7034517798395932
% es.EY (V/m) @ t=0.64
0.06553550163223806
% es.EZ (V/m) @ t=0.64
-0.8454707200942724
% es.tEX (V/m) @ t=0.64
1.7034517798395905
% es.tEY (V/m) @ t=0.64
0
% es.tEZ (V/m) @ t=0.64
-0.8454707200942764
% es.Ex (V/m) @ t=0.64
1.7034517798395932
% es.Ey (V/m) @ t=0.64
0.06553550163223806
% es.Ez (V/m) @ t=0.64
-0.8454707200942724
% es.tEx (V/m) @ t=0.64
1.7034517798395905
% es.tEy (V/m) @ t=0.64
0
% es.tEz (V/m) @ t=0.64
-0.8454707200942764
% V (V) @ t=0.64
0.008633435368119254
% es.normE (V/m) @ t=0.66
1.9206594979323786
% es.EX (V/m) @ t=0.66
1.7193896770464465
% es.EY (V/m) @ t=0.66
0.0661498517490273
% es.EZ (V/m) @ t=0.66
-0.8533792789429592
% es.tEX (V/m) @ t=0.66
1.7193896770464452
% es.tEY (V/m) @ t=0.66
0
% es.tEZ (V/m) @ t=0.66
-0.8533792789429597
% es.Ex (V/m) @ t=0.66
1.7193896770464465
% es.Ey (V/m) @ t=0.66
0.0661498517490273
% es.Ez (V/m) @ t=0.66
-0.8533792789429592
% es.tEx (V/m) @ t=0.66
1.7193896770464452
% es.tEy (V/m) @ t=0.66
0
% es.tEz (V/m) @ t=0.66
-0.8533792789429597
% V (V) @ t=0.66
0.008714166262262051
% es.normE (V/m) @ t=0.68
1.9384622869925345
% es.EX (V/m) @ t=0.68
1.735327574253289
% es.EY (V/m) @ t=0.68
0.06676420186580859
% es.EZ (V/m) @ t=0.68
-0.8612878377916282
% es.tEX (V/m) @ t=0.68
1.7353275742532794
% es.tEY (V/m) @ t=0.68
0
% es.tEZ (V/m) @ t=0.68
-0.8612878377916218
% es.Ex (V/m) @ t=0.68
1.735327574253289
% es.Ey (V/m) @ t=0.68
0.06676420186580859
% es.Ez (V/m) @ t=0.68
-0.8612878377916282
% es.tEx (V/m) @ t=0.68
1.7353275742532794
% es.tEy (V/m) @ t=0.68
0
% es.tEz (V/m) @ t=0.68
-0.8612878377916218
% V (V) @ t=0.68
0.008794897156404849
% es.normE (V/m) @ t=0.7
1.956265076054903
% es.EX (V/m) @ t=0.7
1.751265471460132
% es.EY (V/m) @ t=0.7
0.06737855198260587
% es.EZ (V/m) @ t=0.7
-0.8691963966402971
% es.tEX (V/m) @ t=0.7
1.751265471460127
% es.tEY (V/m) @ t=0.7
0
% es.tEZ (V/m) @ t=0.7
-0.8691963966402909
% es.Ex (V/m) @ t=0.7
1.751265471460132
% es.Ey (V/m) @ t=0.7
0.06737855198260587
% es.Ez (V/m) @ t=0.7
-0.8691963966402971
% es.tEx (V/m) @ t=0.7
1.751265471460127
% es.tEy (V/m) @ t=0.7
0
% es.tEz (V/m) @ t=0.7
-0.8691963966402909
% V (V) @ t=0.7
0.008875628050547644
% es.normE (V/m) @ t=0.72
1.9740678651194217
% es.EX (V/m) @ t=0.72
1.7672033686669706
% es.EY (V/m) @ t=0.72
0.06799290209940131
% es.EZ (V/m) @ t=0.72
-0.8771049554889715
% es.tEX (V/m) @ t=0.72
1.7672033686669684
% es.tEY (V/m) @ t=0.72
0
% es.tEZ (V/m) @ t=0.72
-0.8771049554889672
% es.Ex (V/m) @ t=0.72
1.7672033686669706
% es.Ey (V/m) @ t=0.72
0.06799290209940131
% es.Ez (V/m) @ t=0.72
-0.8771049554889715
% es.tEx (V/m) @ t=0.72
1.7672033686669684
% es.tEy (V/m) @ t=0.72
0
% es.tEz (V/m) @ t=0.72
-0.8771049554889672
% V (V) @ t=0.72
0.008956358944690442
% es.normE (V/m) @ t=0.74
1.9918706541860347
% es.EX (V/m) @ t=0.74
1.7831412658738135
% es.EY (V/m) @ t=0.74
0.06860725221615951
% es.EZ (V/m) @ t=0.74
-0.8850135143376423
% es.tEX (V/m) @ t=0.74
1.7831412658738088
% es.tEY (V/m) @ t=0.74
0
% es.tEZ (V/m) @ t=0.74
-0.8850135143376292
% es.Ex (V/m) @ t=0.74
1.7831412658738135
% es.Ey (V/m) @ t=0.74
0.06860725221615951
% es.Ez (V/m) @ t=0.74
-0.8850135143376423
% es.tEx (V/m) @ t=0.74
1.7831412658738088
% es.tEy (V/m) @ t=0.74
0
% es.tEz (V/m) @ t=0.74
-0.8850135143376292
% V (V) @ t=0.74
0.009037089838833237
% es.normE (V/m) @ t=0.76
2.009673443254706
% es.EX (V/m) @ t=0.76
1.7990791630806735
% es.EY (V/m) @ t=0.76
0.06922160233296298
% es.EZ (V/m) @ t=0.76
-0.8929220731863201
% es.tEX (V/m) @ t=0.76
1.7990791630806644
% es.tEY (V/m) @ t=0.76
0
% es.tEZ (V/m) @ t=0.76
-0.8929220731863055
% es.Ex (V/m) @ t=0.76
1.7990791630806735
% es.Ey (V/m) @ t=0.76
0.06922160233296298
% es.Ez (V/m) @ t=0.76
-0.8929220731863201
% es.tEx (V/m) @ t=0.76
1.7990791630806644
% es.tEy (V/m) @ t=0.76
0
% es.tEz (V/m) @ t=0.76
-0.8929220731863055
% V (V) @ t=0.76
0.009117820732976034
% es.normE (V/m) @ t=0.78
2.0274762323253332
% es.EX (V/m) @ t=0.78
1.8150170602875089
% es.EY (V/m) @ t=0.78
0.06983595244972562
% es.EZ (V/m) @ t=0.78
-0.9008306320349855
% es.tEX (V/m) @ t=0.78
1.8150170602875049
% es.tEY (V/m) @ t=0.78
0
% es.tEZ (V/m) @ t=0.78
-0.9008306320349817
% es.Ex (V/m) @ t=0.78
1.8150170602875089
% es.Ey (V/m) @ t=0.78
0.06983595244972562
% es.Ez (V/m) @ t=0.78
-0.9008306320349855
% es.tEx (V/m) @ t=0.78
1.8150170602875049
% es.tEy (V/m) @ t=0.78
0
% es.tEz (V/m) @ t=0.78
-0.9008306320349817
% V (V) @ t=0.78
0.009198551627118832
% es.normE (V/m) @ t=0.8
2.0452790213979166
% es.EX (V/m) @ t=0.8
1.8309549574943622
% es.EY (V/m) @ t=0.8
0.07045030256652646
% es.EZ (V/m) @ t=0.8
-0.9087391908836634
% es.tEX (V/m) @ t=0.8
1.8309549574943533
% es.tEY (V/m) @ t=0.8
0
% es.tEZ (V/m) @ t=0.8
-0.9087391908836437
% es.Ex (V/m) @ t=0.8
1.8309549574943622
% es.Ey (V/m) @ t=0.8
0.07045030256652646
% es.Ez (V/m) @ t=0.8
-0.9087391908836634
% es.tEx (V/m) @ t=0.8
1.8309549574943533
% es.tEy (V/m) @ t=0.8
0
% es.tEz (V/m) @ t=0.8
-0.9087391908836437
% V (V) @ t=0.8
0.00927928252126163
% es.normE (V/m) @ t=0.82
2.063111297538834
% es.EX (V/m) @ t=0.82
1.8469192393993548
% es.EY (V/m) @ t=0.82
0.07106564701893633
% es.EZ (V/m) @ t=0.82
-0.9166608778493051
% es.tEX (V/m) @ t=0.82
1.8469192393993605
% es.tEY (V/m) @ t=0.82
0
% es.tEZ (V/m) @ t=0.82
-0.9166608778492957
% es.Ex (V/m) @ t=0.82
1.8469192393993548
% es.Ey (V/m) @ t=0.82
0.07106564701893633
% es.Ez (V/m) @ t=0.82
-0.9166608778493051
% es.tEx (V/m) @ t=0.82
1.8469192393993605
% es.tEy (V/m) @ t=0.82
0
% es.tEz (V/m) @ t=0.82
-0.9166608778492957
% V (V) @ t=0.82
0.009360147936215379
% es.normE (V/m) @ t=0.84
2.0830333852710012
% es.EX (V/m) @ t=0.84
1.864753461403816
% es.EY (V/m) @ t=0.84
0.07175146216811665
% es.EZ (V/m) @ t=0.84
-0.925512982597652
% es.tEX (V/m) @ t=0.84
1.8647534614038141
% es.tEY (V/m) @ t=0.84
0
% es.tEZ (V/m) @ t=0.84
-0.9255129825976525
% es.Ex (V/m) @ t=0.84
1.864753461403816
% es.Ey (V/m) @ t=0.84
0.07175146216811665
% es.Ez (V/m) @ t=0.84
-0.925512982597652
% es.tEx (V/m) @ t=0.84
1.8647534614038141
% es.tEy (V/m) @ t=0.84
0
% es.tEz (V/m) @ t=0.84
-0.9255129825976525
% V (V) @ t=0.84
0.009450547129312205
% es.normE (V/m) @ t=0.86
2.1029554730034175
% es.EX (V/m) @ t=0.86
1.882587683408274
% es.EY (V/m) @ t=0.86
0.07243727731728983
% es.EZ (V/m) @ t=0.86
-0.9343650873460044
% es.tEX (V/m) @ t=0.86
1.8825876834082829
% es.tEY (V/m) @ t=0.86
0
% es.tEZ (V/m) @ t=0.86
-0.934365087345995
% es.Ex (V/m) @ t=0.86
1.882587683408274
% es.Ey (V/m) @ t=0.86
0.07243727731728983
% es.Ez (V/m) @ t=0.86
-0.9343650873460044
% es.tEx (V/m) @ t=0.86
1.8825876834082829
% es.tEy (V/m) @ t=0.86
0
% es.tEz (V/m) @ t=0.86
-0.934365087345995
% V (V) @ t=0.86
0.009540946322409032
% es.normE (V/m) @ t=0.88
2.1228775607360886
% es.EX (V/m) @ t=0.88
1.9004219054127456
% es.EY (V/m) @ t=0.88
0.07312309246649809
% es.EZ (V/m) @ t=0.88
-0.9432171920943533
% es.tEX (V/m) @ t=0.88
1.9004219054127365
% es.tEY (V/m) @ t=0.88
0
% es.tEZ (V/m) @ t=0.88
-0.9432171920943517
% es.Ex (V/m) @ t=0.88
1.9004219054127456
% es.Ey (V/m) @ t=0.88
0.07312309246649809
% es.Ez (V/m) @ t=0.88
-0.9432171920943533
% es.tEx (V/m) @ t=0.88
1.9004219054127365
% es.tEy (V/m) @ t=0.88
0
% es.tEz (V/m) @ t=0.88
-0.9432171920943517
% V (V) @ t=0.88
0.00963134551550586
% es.normE (V/m) @ t=0.9
2.142799648468978
% es.EX (V/m) @ t=0.9
1.9182561274171959
% es.EY (V/m) @ t=0.9
0.07380890761567438
% es.EZ (V/m) @ t=0.9
-0.9520692968427091
% es.tEX (V/m) @ t=0.9
1.9182561274171972
% es.tEY (V/m) @ t=0.9
0
% es.tEZ (V/m) @ t=0.9
-0.9520692968427085
% es.Ex (V/m) @ t=0.9
1.9182561274171959
% es.Ey (V/m) @ t=0.9
0.07380890761567438
% es.Ez (V/m) @ t=0.9
-0.9520692968427091
% es.tEx (V/m) @ t=0.9
1.9182561274171972
% es.tEy (V/m) @ t=0.9
0
% es.tEz (V/m) @ t=0.9
-0.9520692968427085
% V (V) @ t=0.9
0.009721744708602688
% es.normE (V/m) @ t=0.92
2.1627217362020974
% es.EX (V/m) @ t=0.92
1.9360903494216535
% es.EY (V/m) @ t=0.92
0.07449472276485244
% es.EZ (V/m) @ t=0.92
-0.960921401591051
% es.tEX (V/m) @ t=0.92
1.9360903494216437
% es.tEY (V/m) @ t=0.92
0
% es.tEZ (V/m) @ t=0.92
-0.9609214015910439
% es.Ex (V/m) @ t=0.92
1.9360903494216535
% es.Ey (V/m) @ t=0.92
0.07449472276485244
% es.Ez (V/m) @ t=0.92
-0.960921401591051
% es.tEx (V/m) @ t=0.92
1.9360903494216437
% es.tEy (V/m) @ t=0.92
0
% es.tEz (V/m) @ t=0.92
-0.9609214015910439
% V (V) @ t=0.92
0.009812143901699514
% es.normE (V/m) @ t=0.94
2.1826438239354444
% es.EX (V/m) @ t=0.94
1.953924571426107
% es.EY (V/m) @ t=0.94
0.07518053791403939
% es.EZ (V/m) @ t=0.94
-0.9697735063394104
% es.tEX (V/m) @ t=0.94
1.9539245714261115
% es.tEY (V/m) @ t=0.94
0
% es.tEZ (V/m) @ t=0.94
-0.9697735063394148
% es.Ex (V/m) @ t=0.94
1.953924571426107
% es.Ey (V/m) @ t=0.94
0.07518053791403939
% es.Ez (V/m) @ t=0.94
-0.9697735063394104
% es.tEx (V/m) @ t=0.94
1.9539245714261115
% es.tEy (V/m) @ t=0.94
0
% es.tEz (V/m) @ t=0.94
-0.9697735063394148
% V (V) @ t=0.94
0.00990254309479634
% es.normE (V/m) @ t=0.96
2.202565911669023
% es.EX (V/m) @ t=0.96
1.9717587934305785
% es.EY (V/m) @ t=0.96
0.07586635306322453
% es.EZ (V/m) @ t=0.96
-0.9786256110877662
% es.tEX (V/m) @ t=0.96
1.9717587934305651
% es.tEY (V/m) @ t=0.96
0
% es.tEZ (V/m) @ t=0.96
-0.9786256110877574
% es.Ex (V/m) @ t=0.96
1.9717587934305785
% es.Ey (V/m) @ t=0.96
0.07586635306322453
% es.Ez (V/m) @ t=0.96
-0.9786256110877662
% es.tEx (V/m) @ t=0.96
1.9717587934305651
% es.tEy (V/m) @ t=0.96
0
% es.tEz (V/m) @ t=0.96
-0.9786256110877574
% V (V) @ t=0.96
0.009992942287893169
% es.normE (V/m) @ t=0.98
2.222487999402794
% es.EX (V/m) @ t=0.98
1.9895930154350325
% es.EY (V/m) @ t=0.98
0.07655216821242036
% es.EZ (V/m) @ t=0.98
-0.9874777158361152
% es.tEX (V/m) @ t=0.98
1.98959301543504
% es.tEY (V/m) @ t=0.98
0
% es.tEZ (V/m) @ t=0.98
-0.9874777158361141
% es.Ex (V/m) @ t=0.98
1.9895930154350325
% es.Ey (V/m) @ t=0.98
0.07655216821242036
% es.Ez (V/m) @ t=0.98
-0.9874777158361152
% es.tEx (V/m) @ t=0.98
1.98959301543504
% es.tEy (V/m) @ t=0.98
0
% es.tEz (V/m) @ t=0.98
-0.9874777158361141
% V (V) @ t=0.98
0.010083341480989997
% es.normE (V/m) @ t=1
2.242410087136786
% es.EX (V/m) @ t=1
2.0074272374395017
% es.EY (V/m) @ t=1
0.07723798336160734
% es.EZ (V/m) @ t=1
-0.9963298205844675
% es.tEX (V/m) @ t=1
2.0074272374394875
% es.tEY (V/m) @ t=1
0
% es.tEZ (V/m) @ t=1
-0.9963298205844566
% es.Ex (V/m) @ t=1
2.0074272374395017
% es.Ey (V/m) @ t=1
0.07723798336160734
% es.Ez (V/m) @ t=1
-0.9963298205844675
% es.tEx (V/m) @ t=1
2.0074272374394875
% es.tEy (V/m) @ t=1
0
% es.tEz (V/m) @ t=1
-0.9963298205844566
% V (V) @ t=1
0.010173740674086825
% es.normE (V/m) @ t=1.02
2.2623321748709615
% es.EX (V/m) @ t=1.02
2.0252614594439513
% es.EY (V/m) @ t=1.02
0.07792379851079254
% es.EZ (V/m) @ t=1.02
-1.0051819253328236
% es.tEX (V/m) @ t=1.02
2.0252614594439544
% es.tEY (V/m) @ t=1.02
0
% es.tEZ (V/m) @ t=1.02
-1.0051819253328205
% es.Ex (V/m) @ t=1.02
2.0252614594439513
% es.Ey (V/m) @ t=1.02
0.07792379851079254
% es.Ez (V/m) @ t=1.02
-1.0051819253328236
% es.tEx (V/m) @ t=1.02
2.0252614594439544
% es.tEy (V/m) @ t=1.02
0
% es.tEz (V/m) @ t=1.02
-1.0051819253328205
% V (V) @ t=1.02
0.010264139867183652
% es.normE (V/m) @ t=1.04
2.282254262605341
% es.EX (V/m) @ t=1.04
2.043095681448416
% es.EY (V/m) @ t=1.04
0.07860961365997768
% es.EZ (V/m) @ t=1.04
-1.0140340300811688
% es.tEX (V/m) @ t=1.04