% Model:              1 neuron.mph
% Version:            COMSOL 6.1.0.252
% Date:               Mar 22 2023, 19:00
% Dimension:          0
% Nodes:              14017
% Expressions:        14017
% Description:        Electric field norm, Electric field, X component, Electric field, Y component, Electric field, Z component, Tangential electric field, X component, Tangential electric field, Y component, Tangential electric field, Z component, Electric field, x component, Electric field, y component, Electric field, z component, Tangential electric field, x component, Tangential electric field, y component, Tangential electric field, z component, Electric potential
% Length unit:        mm
% x
1.66
% y
12.2
% z
1.33
% es.normE (V/m) @ t=0
13.89488430016309
% es.EX (V/m) @ t=0
-7.72056139030507
% es.EY (V/m) @ t=0
-0.8333672983819786
% es.EZ (V/m) @ t=0
10.337776943304618
% es.tEX (V/m) @ t=0
-7.7205613903050825
% es.tEY (V/m) @ t=0
0
% es.tEZ (V/m) @ t=0
10.337776943304608
% es.Ex (V/m) @ t=0
-7.72056139030507
% es.Ey (V/m) @ t=0
-0.8333672983819786
% es.Ez (V/m) @ t=0
10.337776943304618
% es.tEx (V/m) @ t=0
-7.7205613903050825
% es.tEy (V/m) @ t=0
0
% es.tEz (V/m) @ t=0
10.337776943304608
% V (V) @ t=0
0.011411382724713011
% es.normE (V/m) @ t=0.02
12.001204693388628
% es.EX (V/m) @ t=0.02
-6.668356186903433
% es.EY (V/m) @ t=0.02
-0.7197909152838133
% es.EZ (V/m) @ t=0.02
8.92888162640858
% es.tEX (V/m) @ t=0.02
-6.668356186903454
% es.tEY (V/m) @ t=0.02
0
% es.tEZ (V/m) @ t=0.02
8.928881626408565
% es.Ex (V/m) @ t=0.02
-6.668356186903433
% es.Ey (V/m) @ t=0.02
-0.7197909152838133
% es.Ez (V/m) @ t=0.02
8.92888162640858
% es.tEx (V/m) @ t=0.02
-6.668356186903454
% es.tEy (V/m) @ t=0.02
0
% es.tEz (V/m) @ t=0.02
8.928881626408565
% V (V) @ t=0.02
0.009856169853999145
% es.normE (V/m) @ t=0.04
12.111657837099658
% es.EX (V/m) @ t=0.04
-6.729728399133066
% es.EY (V/m) @ t=0.04
-0.726415530438159
% es.EZ (V/m) @ t=0.04
9.01105864602239
% es.tEX (V/m) @ t=0.04
-6.729728399133085
% es.tEY (V/m) @ t=0.04
0
% es.tEZ (V/m) @ t=0.04
9.01105864602238
% es.Ex (V/m) @ t=0.04
-6.729728399133066
% es.Ey (V/m) @ t=0.04
-0.726415530438159
% es.Ez (V/m) @ t=0.04
9.01105864602239
% es.tEx (V/m) @ t=0.04
-6.729728399133085
% es.tEy (V/m) @ t=0.04
0
% es.tEz (V/m) @ t=0.04
9.01105864602238
% V (V) @ t=0.04
0.009946881213734627
% es.normE (V/m) @ t=0.06
12.222937846419013
% es.EX (V/m) @ t=0.06
-6.791560023642789
% es.EY (V/m) @ t=0.06
-0.7330897508980065
% es.EZ (V/m) @ t=0.06
9.09385086493664
% es.tEX (V/m) @ t=0.06
-6.7915600236428055
% es.tEY (V/m) @ t=0.06
0
% es.tEZ (V/m) @ t=0.06
9.093850864936634
% es.Ex (V/m) @ t=0.06
-6.791560023642789
% es.Ey (V/m) @ t=0.06
-0.7330897508980065
% es.Ez (V/m) @ t=0.06
9.09385086493664
% es.tEx (V/m) @ t=0.06
-6.7915600236428055
% es.tEy (V/m) @ t=0.06
0
% es.tEz (V/m) @ t=0.06
9.093850864936634
% V (V) @ t=0.06
0.010038271692273512
% es.normE (V/m) @ t=0.08
12.336304236069026
% es.EX (V/m) @ t=0.08
-6.85455085825535
% es.EY (V/m) @ t=0.08
-0.7398891360387414
% es.EZ (V/m) @ t=0.08
9.178195378280881
% es.tEX (V/m) @ t=0.08
-6.85455085825536
% es.tEY (V/m) @ t=0.08
0
% es.tEZ (V/m) @ t=0.08
9.178195378280869
% es.Ex (V/m) @ t=0.08
-6.85455085825535
% es.Ey (V/m) @ t=0.08
-0.7398891360387414
% es.Ez (V/m) @ t=0.08
9.178195378280881
% es.tEx (V/m) @ t=0.08
-6.85455085825536
% es.tEy (V/m) @ t=0.08
0
% es.tEz (V/m) @ t=0.08
9.178195378280869
% V (V) @ t=0.08
0.01013137574582402
% es.normE (V/m) @ t=0.1
12.450312103813422
% es.EX (V/m) @ t=0.1
-6.917898103382731
% es.EY (V/m) @ t=0.1
-0.7467270042881289
% es.EZ (V/m) @ t=0.1
9.263017159771405
% es.tEX (V/m) @ t=0.1
-6.91789810338274
% es.tEY (V/m) @ t=0.1
0
% es.tEZ (V/m) @ t=0.1
9.263017159771398
% es.Ex (V/m) @ t=0.1
-6.917898103382731
% es.Ey (V/m) @ t=0.1
-0.7467270042881289
% es.Ez (V/m) @ t=0.1
9.263017159771405
% es.tEx (V/m) @ t=0.1
-6.91789810338274
% es.tEy (V/m) @ t=0.1
0
% es.tEz (V/m) @ t=0.1
9.263017159771398
% V (V) @ t=0.1
0.01022500665481737
% es.normE (V/m) @ t=0.12
12.564319971557843
% es.EX (V/m) @ t=0.12
-6.981245348510106
% es.EY (V/m) @ t=0.12
-0.7535648725375466
% es.EZ (V/m) @ t=0.12
9.347838941261953
% es.tEX (V/m) @ t=0.12
-6.981245348510111
% es.tEY (V/m) @ t=0.12
0
% es.tEZ (V/m) @ t=0.12
9.34783894126194
% es.Ex (V/m) @ t=0.12
-6.981245348510106
% es.Ey (V/m) @ t=0.12
-0.7535648725375466
% es.Ez (V/m) @ t=0.12
9.347838941261953
% es.tEx (V/m) @ t=0.12
-6.981245348510111
% es.tEy (V/m) @ t=0.12
0
% es.tEz (V/m) @ t=0.12
9.34783894126194
% V (V) @ t=0.12
0.010318637563810719
% es.normE (V/m) @ t=0.14
12.68142985981425
% es.EX (V/m) @ t=0.14
-7.046316198004016
% es.EY (V/m) @ t=0.14
-0.7605887911291282
% es.EZ (V/m) @ t=0.14
9.434968624061945
% es.tEX (V/m) @ t=0.14
-7.046316198004035
% es.tEY (V/m) @ t=0.14
0
% es.tEZ (V/m) @ t=0.14
9.434968624061934
% es.Ex (V/m) @ t=0.14
-7.046316198004016
% es.Ey (V/m) @ t=0.14
-0.7605887911291282
% es.Ez (V/m) @ t=0.14
9.434968624061945
% es.tEx (V/m) @ t=0.14
-7.046316198004035
% es.tEy (V/m) @ t=0.14
0
% es.tEz (V/m) @ t=0.14
9.434968624061934
% V (V) @ t=0.14
0.010414816059985196
% es.normE (V/m) @ t=0.16
12.801191436702183
% es.EX (V/m) @ t=0.16
-7.112860429793866
% es.EY (V/m) @ t=0.16
-0.7677717504412613
% es.EZ (V/m) @ t=0.16
9.524071161535588
% es.tEX (V/m) @ t=0.16
-7.112860429793871
% es.tEY (V/m) @ t=0.16
0
% es.tEZ (V/m) @ t=0.16
9.524071161535577
% es.Ex (V/m) @ t=0.16
-7.112860429793866
% es.Ey (V/m) @ t=0.16
-0.7677717504412613
% es.Ez (V/m) @ t=0.16
9.524071161535588
% es.tEx (V/m) @ t=0.16
-7.112860429793871
% es.tEy (V/m) @ t=0.16
0
% es.tEz (V/m) @ t=0.16
9.524071161535577
% V (V) @ t=0.16
0.010513172300613563
% es.normE (V/m) @ t=0.18
12.920953013590118
% es.EX (V/m) @ t=0.18
-7.179404661583691
% es.EY (V/m) @ t=0.18
-0.7749547097533989
% es.EZ (V/m) @ t=0.18
9.613173699009227
% es.tEX (V/m) @ t=0.18
-7.179404661583703
% es.tEY (V/m) @ t=0.18
0
% es.tEZ (V/m) @ t=0.18
9.613173699009222
% es.Ex (V/m) @ t=0.18
-7.179404661583691
% es.Ey (V/m) @ t=0.18
-0.7749547097533989
% es.Ez (V/m) @ t=0.18
9.613173699009227
% es.tEx (V/m) @ t=0.18
-7.179404661583703
% es.tEy (V/m) @ t=0.18
0
% es.tEz (V/m) @ t=0.18
9.613173699009222
% V (V) @ t=0.18
0.010611528541241932
% es.normE (V/m) @ t=0.2
13.040714590478053
% es.EX (V/m) @ t=0.2
-7.2459488933735265
% es.EY (V/m) @ t=0.2
-0.7821376690654924
% es.EZ (V/m) @ t=0.2
9.702276236482897
% es.tEX (V/m) @ t=0.2
-7.245948893373541
% es.tEY (V/m) @ t=0.2
0
% es.tEZ (V/m) @ t=0.2
9.702276236482884
% es.Ex (V/m) @ t=0.2
-7.2459488933735265
% es.Ey (V/m) @ t=0.2
-0.7821376690654924
% es.Ez (V/m) @ t=0.2
9.702276236482897
% es.tEx (V/m) @ t=0.2
-7.245948893373541
% es.tEy (V/m) @ t=0.2
0
% es.tEz (V/m) @ t=0.2
9.702276236482884
% V (V) @ t=0.2
0.0107098847818703
% es.normE (V/m) @ t=0.22
13.160476167365989
% es.EX (V/m) @ t=0.22
-7.312493125163357
% es.EY (V/m) @ t=0.22
-0.7893206283776593
% es.EZ (V/m) @ t=0.22
9.79137877395653
% es.tEX (V/m) @ t=0.22
-7.3124931251633765
% es.tEY (V/m) @ t=0.22
0
% es.tEZ (V/m) @ t=0.22
9.791378773956513
% es.Ex (V/m) @ t=0.22
-7.312493125163357
% es.Ey (V/m) @ t=0.22
-0.7893206283776593
% es.Ez (V/m) @ t=0.22
9.79137877395653
% es.tEx (V/m) @ t=0.22
-7.3124931251633765
% es.tEy (V/m) @ t=0.22
0
% es.tEz (V/m) @ t=0.22
9.791378773956513
% V (V) @ t=0.22
0.01080824102249867
% es.normE (V/m) @ t=0.24
13.280237744253924
% es.EX (V/m) @ t=0.24
-7.379037356953178
% es.EY (V/m) @ t=0.24
-0.7965035876897972
% es.EZ (V/m) @ t=0.24
9.880481311430184
% es.tEX (V/m) @ t=0.24
-7.3790373569532
% es.tEY (V/m) @ t=0.24
0
% es.tEZ (V/m) @ t=0.24
9.880481311430174
% es.Ex (V/m) @ t=0.24
-7.379037356953178
% es.Ey (V/m) @ t=0.24
-0.7965035876897972
% es.Ez (V/m) @ t=0.24
9.880481311430184
% es.tEx (V/m) @ t=0.24
-7.3790373569532
% es.tEy (V/m) @ t=0.24
0
% es.tEz (V/m) @ t=0.24
9.880481311430174
% V (V) @ t=0.24
0.010906597263127038
% es.normE (V/m) @ t=0.26
13.401130298631713
% es.EX (V/m) @ t=0.26
-7.446209171950038
% es.EY (V/m) @ t=0.26
-0.8037547598739394
% es.EZ (V/m) @ t=0.26
9.970425665571963
% es.tEX (V/m) @ t=0.26
-7.446209171950043
% es.tEY (V/m) @ t=0.26
0
% es.tEZ (V/m) @ t=0.26
9.970425665571948
% es.Ex (V/m) @ t=0.26
-7.446209171950038
% es.Ey (V/m) @ t=0.26
-0.8037547598739394
% es.Ez (V/m) @ t=0.26
9.970425665571963
% es.tEx (V/m) @ t=0.26
-7.446209171950043
% es.tEy (V/m) @ t=0.26
0
% es.tEz (V/m) @ t=0.26
9.970425665571948
% V (V) @ t=0.26
0.011005883619645912
% es.normE (V/m) @ t=0.28
13.533785148657893
% es.EX (V/m) @ t=0.28
-7.519907924297243
% es.EY (V/m) @ t=0.28
-0.8117153537528914
% es.EZ (V/m) @ t=0.28
10.069125009636988
% es.tEX (V/m) @ t=0.28
-7.5199079242972555
% es.tEY (V/m) @ t=0.28
0
% es.tEZ (V/m) @ t=0.28
10.069125009636974
% es.Ex (V/m) @ t=0.28
-7.519907924297243
% es.Ey (V/m) @ t=0.28
-0.8117153537528914
% es.Ez (V/m) @ t=0.28
10.069125009636988
% es.tEx (V/m) @ t=0.28
-7.5199079242972555
% es.tEy (V/m) @ t=0.28
0
% es.tEz (V/m) @ t=0.28
10.069125009636974
% V (V) @ t=0.28
0.01111484328813045
% es.normE (V/m) @ t=0.3
13.666439998695203
% es.EX (V/m) @ t=0.3
-7.593606676644427
% es.EY (V/m) @ t=0.3
-0.8196759476318363
% es.EZ (V/m) @ t=0.3
10.167824353702002
% es.tEX (V/m) @ t=0.3
-7.5936066766444466
% es.tEY (V/m) @ t=0.3
0
% es.tEZ (V/m) @ t=0.3
10.167824353701993
% es.Ex (V/m) @ t=0.3
-7.593606676644427
% es.Ey (V/m) @ t=0.3
-0.8196759476318363
% es.Ez (V/m) @ t=0.3
10.167824353702002
% es.tEx (V/m) @ t=0.3
-7.5936066766444466
% es.tEy (V/m) @ t=0.3
0
% es.tEz (V/m) @ t=0.3
10.167824353701993
% V (V) @ t=0.3
0.01122380295661499
% es.normE (V/m) @ t=0.32
13.799094848743366
% es.EX (V/m) @ t=0.32
-7.667305428991618
% es.EY (V/m) @ t=0.32
-0.8276365415107776
% es.EZ (V/m) @ t=0.32
10.266523697767033
% es.tEX (V/m) @ t=0.32
-7.667305428991632
% es.tEY (V/m) @ t=0.32
0
% es.tEZ (V/m) @ t=0.32
10.266523697767017
% es.Ex (V/m) @ t=0.32
-7.667305428991618
% es.Ey (V/m) @ t=0.32
-0.8276365415107776
% es.Ez (V/m) @ t=0.32
10.266523697767033
% es.tEx (V/m) @ t=0.32
-7.667305428991632
% es.tEy (V/m) @ t=0.32
0
% es.tEz (V/m) @ t=0.32
10.266523697767017
% V (V) @ t=0.32
0.011332762625099529
% es.normE (V/m) @ t=0.34
13.931749698802074
% es.EX (V/m) @ t=0.34
-7.7410041813388375
% es.EY (V/m) @ t=0.34
-0.835597135389726
% es.EZ (V/m) @ t=0.34
10.36522304183204
% es.tEX (V/m) @ t=0.34
-7.74100418133885
% es.tEY (V/m) @ t=0.34
0
% es.tEZ (V/m) @ t=0.34
10.365223041832031
% es.Ex (V/m) @ t=0.34
-7.7410041813388375
% es.Ey (V/m) @ t=0.34
-0.835597135389726
% es.Ez (V/m) @ t=0.34
10.36522304183204
% es.tEx (V/m) @ t=0.34
-7.74100418133885
% es.tEy (V/m) @ t=0.34
0
% es.tEz (V/m) @ t=0.34
10.365223041832031
% V (V) @ t=0.34
0.011441722293584066
% es.normE (V/m) @ t=0.36
14.064404548871016
% es.EX (V/m) @ t=0.36
-7.814702933686036
% es.EY (V/m) @ t=0.36
-0.8435577292686638
% es.EZ (V/m) @ t=0.36
10.463922385897073
% es.tEX (V/m) @ t=0.36
-7.814702933686041
% es.tEY (V/m) @ t=0.36
0
% es.tEZ (V/m) @ t=0.36
10.463922385897062
% es.Ex (V/m) @ t=0.36
-7.814702933686036
% es.Ey (V/m) @ t=0.36
-0.8435577292686638
% es.Ez (V/m) @ t=0.36
10.463922385897073
% es.tEx (V/m) @ t=0.36
-7.814702933686041
% es.tEy (V/m) @ t=0.36
0
% es.tEz (V/m) @ t=0.36
10.463922385897062
% V (V) @ t=0.36
0.011550681962068605
% es.normE (V/m) @ t=0.38
14.197059398949904
% es.EX (V/m) @ t=0.38
-7.888401686033227
% es.EY (V/m) @ t=0.38
-0.8515183231476051
% es.EZ (V/m) @ t=0.38
10.562621729962105
% es.tEX (V/m) @ t=0.38
-7.888401686033246
% es.tEY (V/m) @ t=0.38
0
% es.tEZ (V/m) @ t=0.38
10.562621729962089
% es.Ex (V/m) @ t=0.38
-7.888401686033227
% es.Ey (V/m) @ t=0.38
-0.8515183231476051
% es.Ez (V/m) @ t=0.38
10.562621729962105
% es.tEx (V/m) @ t=0.38
-7.888401686033246
% es.tEy (V/m) @ t=0.38
0
% es.tEz (V/m) @ t=0.38
10.562621729962089
% V (V) @ t=0.38
0.011659641630553145
% es.normE (V/m) @ t=0.4
14.329714249038442
% es.EX (V/m) @ t=0.4
-7.962100438380409
% es.EY (V/m) @ t=0.4
-0.8594789170265607
% es.EZ (V/m) @ t=0.4
10.661321074027118
% es.tEX (V/m) @ t=0.4
-7.962100438380428
% es.tEY (V/m) @ t=0.4
0
% es.tEZ (V/m) @ t=0.4
10.661321074027109
% es.Ex (V/m) @ t=0.4
-7.962100438380409
% es.Ey (V/m) @ t=0.4
-0.8594789170265607
% es.Ez (V/m) @ t=0.4
10.661321074027118
% es.tEx (V/m) @ t=0.4
-7.962100438380428
% es.tEy (V/m) @ t=0.4
0
% es.tEz (V/m) @ t=0.4
10.661321074027109
% V (V) @ t=0.4
0.01176860129903768
% es.normE (V/m) @ t=0.42
14.462369099136374
% es.EX (V/m) @ t=0.42
-8.035799190727628
% es.EY (V/m) @ t=0.42
-0.8674395109054878
% es.EZ (V/m) @ t=0.42
10.760020418092118
% es.tEX (V/m) @ t=0.42
-8.035799190727642
% es.tEY (V/m) @ t=0.42
0
% es.tEZ (V/m) @ t=0.42
10.7600204180921
% es.Ex (V/m) @ t=0.42
-8.035799190727628
% es.Ey (V/m) @ t=0.42
-0.8674395109054878
% es.Ez (V/m) @ t=0.42
10.760020418092118
% es.tEx (V/m) @ t=0.42
-8.035799190727642
% es.tEy (V/m) @ t=0.42
0
% es.tEz (V/m) @ t=0.42
10.7600204180921
% V (V) @ t=0.42
0.011877560967522221
% es.normE (V/m) @ t=0.44
14.595023949243489
% es.EX (V/m) @ t=0.44
-8.109497943074821
% es.EY (V/m) @ t=0.44
-0.8754001047844358
% es.EZ (V/m) @ t=0.44
10.85871976215715
% es.tEX (V/m) @ t=0.44
-8.109497943074834
% es.tEY (V/m) @ t=0.44
0
% es.tEZ (V/m) @ t=0.44
10.858719762157136
% es.Ex (V/m) @ t=0.44
-8.109497943074821
% es.Ey (V/m) @ t=0.44
-0.8754001047844358
% es.Ez (V/m) @ t=0.44
10.85871976215715
% es.tEx (V/m) @ t=0.44
-8.109497943074834
% es.tEy (V/m) @ t=0.44
0
% es.tEz (V/m) @ t=0.44
10.858719762157136
% V (V) @ t=0.44
0.01198652063600676
% es.normE (V/m) @ t=0.46
14.72767879935952
% es.EX (V/m) @ t=0.46
-8.183196695422033
% es.EY (V/m) @ t=0.46
-0.8833606986633593
% es.EZ (V/m) @ t=0.46
10.95741910622219
% es.tEX (V/m) @ t=0.46
-8.183196695422053
% es.tEY (V/m) @ t=0.46
0
% es.tEZ (V/m) @ t=0.46
10.95741910622217
% es.Ex (V/m) @ t=0.46
-8.183196695422033
% es.Ey (V/m) @ t=0.46
-0.8833606986633593
% es.Ez (V/m) @ t=0.46
10.95741910622219
% es.tEx (V/m) @ t=0.46
-8.183196695422053
% es.tEy (V/m) @ t=0.46
0
% es.tEz (V/m) @ t=0.46
10.95741910622217
% V (V) @ t=0.46
0.012095480304491299
% es.normE (V/m) @ t=0.48
14.860333649484176
% es.EX (V/m) @ t=0.48
-8.256895447769217
% es.EY (V/m) @ t=0.48
-0.8913212925423499
% es.EZ (V/m) @ t=0.48
11.056118450287189
% es.tEX (V/m) @ t=0.48
-8.256895447769216
% es.tEY (V/m) @ t=0.48
0
% es.tEZ (V/m) @ t=0.48
11.056118450287183
% es.Ex (V/m) @ t=0.48
-8.256895447769217
% es.Ey (V/m) @ t=0.48
-0.8913212925423499
% es.Ez (V/m) @ t=0.48
11.056118450287189
% es.tEx (V/m) @ t=0.48
-8.256895447769216
% es.tEy (V/m) @ t=0.48
0
% es.tEz (V/m) @ t=0.48
11.056118450287183
% V (V) @ t=0.48
0.012204439972975836
% es.normE (V/m) @ t=0.5
14.992988499617288
% es.EX (V/m) @ t=0.5
-8.33059420011643
% es.EY (V/m) @ t=0.5
-0.8992818864212628
% es.EZ (V/m) @ t=0.5
11.15481779435222
% es.tEX (V/m) @ t=0.5
-8.330594200116442
% es.tEY (V/m) @ t=0.5
0
% es.tEZ (V/m) @ t=0.5
11.154817794352203
% es.Ex (V/m) @ t=0.5
-8.33059420011643
% es.Ey (V/m) @ t=0.5
-0.8992818864212628
% es.Ez (V/m) @ t=0.5
11.15481779435222
% es.tEx (V/m) @ t=0.5
-8.330594200116442
% es.tEy (V/m) @ t=0.5
0
% es.tEz (V/m) @ t=0.5
11.154817794352203
% V (V) @ t=0.5
0.012313399641460375
% es.normE (V/m) @ t=0.52
15.128310976533289
% es.EX (V/m) @ t=0.52
-8.40577756504678
% es.EY (V/m) @ t=0.52
-0.9074013926852751
% es.EZ (V/m) @ t=0.52
11.25550079511881
% es.tEX (V/m) @ t=0.52
-8.405777565046785
% es.tEY (V/m) @ t=0.52
0
% es.tEZ (V/m) @ t=0.52
11.25550079511879
% es.Ex (V/m) @ t=0.52
-8.40577756504678
% es.Ey (V/m) @ t=0.52
-0.9074013926852751
% es.Ez (V/m) @ t=0.52
11.25550079511881
% es.tEx (V/m) @ t=0.52
-8.405777565046785
% es.tEy (V/m) @ t=0.52
0
% es.tEz (V/m) @ t=0.52
11.25550079511879
% V (V) @ t=0.52
0.012424546488418925
% es.normE (V/m) @ t=0.54
15.275394232436732
% es.EX (V/m) @ t=0.54
-8.487506148608054
% es.EY (V/m) @ t=0.54
-0.9162214967450044
% es.EZ (V/m) @ t=0.54
11.364929152719562
% es.tEX (V/m) @ t=0.54
-8.487506148608066
% es.tEY (V/m) @ t=0.54
0
% es.tEZ (V/m) @ t=0.54
11.364929152719547
% es.Ex (V/m) @ t=0.54
-8.487506148608054
% es.Ey (V/m) @ t=0.54
-0.9162214967450044
% es.Ez (V/m) @ t=0.54
11.364929152719562
% es.tEx (V/m) @ t=0.54
-8.487506148608066
% es.tEy (V/m) @ t=0.54
0
% es.tEz (V/m) @ t=0.54
11.364929152719547
% V (V) @ t=0.54
0.012545335959628123
% es.normE (V/m) @ t=0.56
15.422477488342249
% es.EX (V/m) @ t=0.56
-8.56923473216932
% es.EY (V/m) @ t=0.56
-0.9250416008046982
% es.EZ (V/m) @ t=0.56
11.474357510320345
% es.tEX (V/m) @ t=0.56
-8.569234732169333
% es.tEY (V/m) @ t=0.56
0
% es.tEZ (V/m) @ t=0.56
11.474357510320324
% es.Ex (V/m) @ t=0.56
-8.56923473216932
% es.Ey (V/m) @ t=0.56
-0.9250416008046982
% es.Ez (V/m) @ t=0.56
11.474357510320345
% es.tEx (V/m) @ t=0.56
-8.569234732169333
% es.tEy (V/m) @ t=0.56
0
% es.tEz (V/m) @ t=0.56
11.474357510320324
% V (V) @ t=0.56
0.012666125430837314
% es.normE (V/m) @ t=0.58
15.569560744249756
% es.EX (V/m) @ t=0.58
-8.650963315730586
% es.EY (V/m) @ t=0.58
-0.9338617048644533
% es.EZ (V/m) @ t=0.58
11.583785867921135
% es.tEX (V/m) @ t=0.58
-8.650963315730605
% es.tEY (V/m) @ t=0.58
0
% es.tEZ (V/m) @ t=0.58
11.583785867921115
% es.Ex (V/m) @ t=0.58
-8.650963315730586
% es.Ey (V/m) @ t=0.58
-0.9338617048644533
% es.Ez (V/m) @ t=0.58
11.583785867921135
% es.tEx (V/m) @ t=0.58
-8.650963315730605
% es.tEy (V/m) @ t=0.58
0
% es.tEz (V/m) @ t=0.58
11.583785867921115
% V (V) @ t=0.58
0.012786914902046507
% es.normE (V/m) @ t=0.6
15.716644000159187
% es.EX (V/m) @ t=0.6
-8.732691899291867
% es.EY (V/m) @ t=0.6
-0.9426818089242035
% es.EZ (V/m) @ t=0.6
11.693214225521881
% es.tEX (V/m) @ t=0.6
-8.73269189929188
% es.tEY (V/m) @ t=0.6
0
% es.tEZ (V/m) @ t=0.6
11.693214225521867
% es.Ex (V/m) @ t=0.6
-8.732691899291867
% es.Ey (V/m) @ t=0.6
-0.9426818089242035
% es.Ez (V/m) @ t=0.6
11.693214225521881
% es.tEx (V/m) @ t=0.6
-8.73269189929188
% es.tEy (V/m) @ t=0.6
0
% es.tEz (V/m) @ t=0.6
11.693214225521867
% V (V) @ t=0.6
0.012907704373255703
% es.normE (V/m) @ t=0.62
15.863727256070495
% es.EX (V/m) @ t=0.62
-8.814420482853118
% es.EY (V/m) @ t=0.62
-0.9515019129839328
% es.EZ (V/m) @ t=0.62
11.802642583122683
% es.tEX (V/m) @ t=0.62
-8.814420482853144
% es.tEY (V/m) @ t=0.62
0
% es.tEZ (V/m) @ t=0.62
11.802642583122658
% es.Ex (V/m) @ t=0.62
-8.814420482853118
% es.Ey (V/m) @ t=0.62
-0.9515019129839328
% es.Ez (V/m) @ t=0.62
11.802642583122683
% es.tEx (V/m) @ t=0.62
-8.814420482853144
% es.tEy (V/m) @ t=0.62
0
% es.tEz (V/m) @ t=0.62
11.802642583122658
% V (V) @ t=0.62
0.013028493844464898
% es.normE (V/m) @ t=0.64
16.01081051198362
% es.EX (V/m) @ t=0.64
-8.896149066414406
% es.EY (V/m) @ t=0.64
-0.9603220170436448
% es.EZ (V/m) @ t=0.64
11.912070940723446
% es.tEX (V/m) @ t=0.64
-8.896149066414411
% es.tEY (V/m) @ t=0.64
0
% es.tEZ (V/m) @ t=0.64
11.912070940723442
% es.Ex (V/m) @ t=0.64
-8.896149066414406
% es.Ey (V/m) @ t=0.64
-0.9603220170436448
% es.Ez (V/m) @ t=0.64
11.912070940723446
% es.tEx (V/m) @ t=0.64
-8.896149066414411
% es.tEy (V/m) @ t=0.64
0
% es.tEz (V/m) @ t=0.64
11.912070940723442
% V (V) @ t=0.64
0.013149283315674092
% es.normE (V/m) @ t=0.66
16.15789376789855
% es.EX (V/m) @ t=0.66
-8.977877649975673
% es.EY (V/m) @ t=0.66
-0.9691421211034132
% es.EZ (V/m) @ t=0.66
12.021499298324231
% es.tEX (V/m) @ t=0.66
-8.977877649975685
% es.tEY (V/m) @ t=0.66
0
% es.tEZ (V/m) @ t=0.66
12.021499298324205
% es.Ex (V/m) @ t=0.66
-8.977877649975673
% es.Ey (V/m) @ t=0.66
-0.9691421211034132
% es.Ez (V/m) @ t=0.66
12.021499298324231
% es.tEx (V/m) @ t=0.66
-8.977877649975685
% es.tEy (V/m) @ t=0.66
0
% es.tEz (V/m) @ t=0.66
12.021499298324205
% V (V) @ t=0.66
0.013270072786883289
% es.normE (V/m) @ t=0.68
16.30497702381518
% es.EX (V/m) @ t=0.68
-9.059606233536945
% es.EY (V/m) @ t=0.68
-0.9779622251631253
% es.EZ (V/m) @ t=0.68
12.130927655924985
% es.tEX (V/m) @ t=0.68
-9.059606233536957
% es.tEY (V/m) @ t=0.68
0
% es.tEZ (V/m) @ t=0.68
12.13092765592497
% es.Ex (V/m) @ t=0.68
-9.059606233536945
% es.Ey (V/m) @ t=0.68
-0.9779622251631253
% es.Ez (V/m) @ t=0.68
12.130927655924985
% es.tEx (V/m) @ t=0.68
-9.059606233536957
% es.tEy (V/m) @ t=0.68
0
% es.tEz (V/m) @ t=0.68
12.13092765592497
% V (V) @ t=0.68
0.013390862258092481
% es.normE (V/m) @ t=0.7
16.4520602797335
% es.EX (V/m) @ t=0.7
-9.141334817098219
% es.EY (V/m) @ t=0.7
-0.9867823292228581
% es.EZ (V/m) @ t=0.7
12.240356013525766
% es.tEX (V/m) @ t=0.7
-9.141334817098238
% es.tEY (V/m) @ t=0.7
0
% es.tEZ (V/m) @ t=0.7
12.240356013525755
% es.Ex (V/m) @ t=0.7
-9.141334817098219
% es.Ey (V/m) @ t=0.7
-0.9867823292228581
% es.Ez (V/m) @ t=0.7
12.240356013525766
% es.tEx (V/m) @ t=0.7
-9.141334817098238
% es.tEy (V/m) @ t=0.7
0
% es.tEz (V/m) @ t=0.7
12.240356013525755
% V (V) @ t=0.7
0.013511651729301674
% es.normE (V/m) @ t=0.72
16.59914353565347
% es.EX (V/m) @ t=0.72
-9.223063400659528
% es.EY (V/m) @ t=0.72
-0.9956024332826123
% es.EZ (V/m) @ t=0.72
12.349784371126528
% es.tEX (V/m) @ t=0.72
-9.223063400659541
% es.tEY (V/m) @ t=0.72
0
% es.tEZ (V/m) @ t=0.72
12.349784371126516
% es.Ex (V/m) @ t=0.72
-9.223063400659528
% es.Ey (V/m) @ t=0.72
-0.9956024332826123
% es.Ez (V/m) @ t=0.72
12.349784371126528
% es.tEx (V/m) @ t=0.72
-9.223063400659541
% es.tEy (V/m) @ t=0.72
0
% es.tEz (V/m) @ t=0.72
12.349784371126516
% V (V) @ t=0.72
0.013632441200510869
% es.normE (V/m) @ t=0.74
16.746226791574994
% es.EX (V/m) @ t=0.74
-9.304791984220772
% es.EY (V/m) @ t=0.74
-1.0044225373422924
% es.EZ (V/m) @ t=0.74
12.459212728727296
% es.tEX (V/m) @ t=0.74
-9.304791984220799
% es.tEY (V/m) @ t=0.74
0
% es.tEZ (V/m) @ t=0.74
12.459212728727291
% es.Ex (V/m) @ t=0.74
-9.304791984220772
% es.Ey (V/m) @ t=0.74
-1.0044225373422924
% es.Ez (V/m) @ t=0.74
12.459212728727296
% es.tEx (V/m) @ t=0.74
-9.304791984220799
% es.tEy (V/m) @ t=0.74
0
% es.tEz (V/m) @ t=0.74
12.459212728727291
% V (V) @ t=0.74
0.013753230671720065
% es.normE (V/m) @ t=0.76
16.893310047498105
% es.EX (V/m) @ t=0.76
-9.386520567782059
% es.EY (V/m) @ t=0.76
-1.0132426414020461
% es.EZ (V/m) @ t=0.76
12.568641086328066
% es.tEX (V/m) @ t=0.76
-9.386520567782057
% es.tEY (V/m) @ t=0.76
0
% es.tEZ (V/m) @ t=0.76
12.568641086328054
% es.Ex (V/m) @ t=0.76
-9.386520567782059
% es.Ey (V/m) @ t=0.76
-1.0132426414020461
% es.Ez (V/m) @ t=0.76
12.568641086328066
% es.tEx (V/m) @ t=0.76
-9.386520567782057
% es.tEy (V/m) @ t=0.76
0
% es.tEz (V/m) @ t=0.76
12.568641086328054
% V (V) @ t=0.76
0.013874020142929258
% es.normE (V/m) @ t=0.78
17.04499287223578
% es.EX (V/m) @ t=0.78
-9.470805743650713
% es.EY (V/m) @ t=0.78
-1.022338207527767
% es.EZ (V/m) @ t=0.78
12.681491123731803
% es.tEX (V/m) @ t=0.78
-9.470805743650725
% es.tEY (V/m) @ t=0.78
0
% es.tEZ (V/m) @ t=0.78
12.68149112373178
% es.Ex (V/m) @ t=0.78
-9.470805743650713
% es.Ey (V/m) @ t=0.78
-1.022338207527767
% es.Ez (V/m) @ t=0.78
12.681491123731803
% es.tEx (V/m) @ t=0.78
-9.470805743650725
% es.tEy (V/m) @ t=0.78
0
% es.tEz (V/m) @ t=0.78
12.68149112373178
% V (V) @ t=0.78
0.013998585716482576
% es.normE (V/m) @ t=0.8
17.208383424581005
% es.EX (V/m) @ t=0.8
-9.561598461322893
% es.EY (V/m) @ t=0.8
-1.0321349339068093
% es.EZ (V/m) @ t=0.8
12.803050693856775
% es.tEX (V/m) @ t=0.8
-9.561598461322905
% es.tEY (V/m) @ t=0.8
0
% es.tEZ (V/m) @ t=0.8
12.803050693856761
% es.Ex (V/m) @ t=0.8
-9.561598461322893
% es.Ey (V/m) @ t=0.8
-1.0321349339068093
% es.Ez (V/m) @ t=0.8
12.803050693856775
% es.tEx (V/m) @ t=0.8
-9.561598461322905
% es.tEy (V/m) @ t=0.8
0
% es.tEz (V/m) @ t=0.8
12.803050693856761
% V (V) @ t=0.8
0.014132762968748902
% es.normE (V/m) @ t=0.82
17.37177397693099
% es.EX (V/m) @ t=0.82
-9.65239117899508
% es.EY (V/m) @ t=0.82
-1.0419316602858344
% es.EZ (V/m) @ t=0.82
12.92461026398175
% es.tEX (V/m) @ t=0.82
-9.652391178995092
% es.tEY (V/m) @ t=0.82
0
% es.tEZ (V/m) @ t=0.82
12.92461026398173
% es.Ex (V/m) @ t=0.82
-9.65239117899508
% es.Ey (V/m) @ t=0.82
-1.0419316602858344
% es.Ez (V/m) @ t=0.82
12.92461026398175
% es.tEx (V/m) @ t=0.82
-9.652391178995092
% es.tEy (V/m) @ t=0.82
0
% es.tEz (V/m) @ t=0.82
12.92461026398173
% V (V) @ t=0.82
0.014266940221015226
% es.normE (V/m) @ t=0.84
17.53516452928566
% es.EX (V/m) @ t=0.84
-9.743183896667269
% es.EY (V/m) @ t=0.84
-1.0517283866648839
% es.EZ (V/m) @ t=0.84
13.046169834106756
% es.tEX (V/m) @ t=0.84
-9.743183896667281
% es.tEY (V/m) @ t=0.84
0
% es.tEZ (V/m) @ t=0.84
13.046169834106735
% es.Ex (V/m) @ t=0.84
-9.743183896667269
% es.Ey (V/m) @ t=0.84
-1.0517283866648839
% es.Ez (V/m) @ t=0.84
13.046169834106756
% es.tEx (V/m) @ t=0.84
-9.743183896667281
% es.tEy (V/m) @ t=0.84
0
% es.tEz (V/m) @ t=0.84
13.046169834106735
% V (V) @ t=0.84
0.014401117473281553
% es.normE (V/m) @ t=0.86
17.698555081644777
% es.EX (V/m) @ t=0.86
-9.833976614339454
% es.EY (V/m) @ t=0.86
-1.0615251130439196
% es.EZ (V/m) @ t=0.86
13.167729404231718
% es.tEX (V/m) @ t=0.86
-9.833976614339466
% es.tEY (V/m) @ t=0.86
0
% es.tEZ (V/m) @ t=0.86
13.167729404231702
% es.Ex (V/m) @ t=0.86
-9.833976614339454
% es.Ey (V/m) @ t=0.86
-1.0615251130439196
% es.Ez (V/m) @ t=0.86
13.167729404231718
% es.tEx (V/m) @ t=0.86
-9.833976614339466
% es.tEy (V/m) @ t=0.86
0
% es.tEz (V/m) @ t=0.86
13.167729404231702
% V (V) @ t=0.86
0.014535294725547878
% es.normE (V/m) @ t=0.88
17.861945634008304
% es.EX (V/m) @ t=0.88
-9.924769332011655
% es.EY (V/m) @ t=0.88
-1.0713218394229056
% es.EZ (V/m) @ t=0.88
13.289288974356703
% es.tEX (V/m) @ t=0.88
-9.924769332011667
% es.tEY (V/m) @ t=0.88
0
% es.tEZ (V/m) @ t=0.88
13.289288974356687
% es.Ex (V/m) @ t=0.88
-9.924769332011655
% es.Ey (V/m) @ t=0.88
-1.0713218394229056
% es.Ez (V/m) @ t=0.88
13.289288974356703
% es.tEx (V/m) @ t=0.88
-9.924769332011667
% es.tEy (V/m) @ t=0.88
0
% es.tEz (V/m) @ t=0.88
13.289288974356687
% V (V) @ t=0.88
0.014669471977814205
% es.normE (V/m) @ t=0.9
18.02533618637606
% es.EX (V/m) @ t=0.9
-10.015562049683812
% es.EY (V/m) @ t=0.9
-1.0811185658019373
% es.EZ (V/m) @ t=0.9
13.410848544481661
% es.tEX (V/m) @ t=0.9
-10.015562049683824
% es.tEY (V/m) @ t=0.9
0
% es.tEZ (V/m) @ t=0.9
13.410848544481633
% es.Ex (V/m) @ t=0.9
-10.015562049683812
% es.Ey (V/m) @ t=0.9
-1.0811185658019373
% es.Ez (V/m) @ t=0.9
13.410848544481661
% es.tEx (V/m) @ t=0.9
-10.015562049683824
% es.tEy (V/m) @ t=0.9
0
% es.tEz (V/m) @ t=0.9
13.410848544481633
% V (V) @ t=0.9
0.014803649230080526
% es.normE (V/m) @ t=0.92
18.18872673874803
% es.EX (V/m) @ t=0.92
-10.106354767356029
% es.EY (V/m) @ t=0.92
-1.0909152921809833
% es.EZ (V/m) @ t=0.92
13.532408114606657
% es.tEX (V/m) @ t=0.92
-10.106354767356047
% es.tEY (V/m) @ t=0.92
0
% es.tEZ (V/m) @ t=0.92
13.532408114606639
% es.Ex (V/m) @ t=0.92
-10.106354767356029
% es.Ey (V/m) @ t=0.92
-1.0909152921809833
% es.Ez (V/m) @ t=0.92
13.532408114606657
% es.tEx (V/m) @ t=0.92
-10.106354767356047
% es.tEy (V/m) @ t=0.92
0
% es.tEz (V/m) @ t=0.92
13.532408114606639
% V (V) @ t=0.92
0.014937826482346853
% es.normE (V/m) @ t=0.94
18.352117291123974
% es.EX (V/m) @ t=0.94
-10.197147485028186
% es.EY (V/m) @ t=0.94
-1.100712018559987
% es.EZ (V/m) @ t=0.94
13.653967684731622
% es.tEX (V/m) @ t=0.94
-10.197147485028205
% es.tEY (V/m) @ t=0.94
0
% es.tEZ (V/m) @ t=0.94
13.6539676847316
% es.Ex (V/m) @ t=0.94
-10.197147485028186
% es.Ey (V/m) @ t=0.94
-1.100712018559987
% es.Ez (V/m) @ t=0.94
13.653967684731622
% es.tEx (V/m) @ t=0.94
-10.197147485028205
% es.tEy (V/m) @ t=0.94
0
% es.tEz (V/m) @ t=0.94
13.6539676847316
% V (V) @ t=0.94
0.01507200373461318
% es.normE (V/m) @ t=0.96
18.515507843503904
% es.EX (V/m) @ t=0.96
-10.287940202700375
% es.EY (V/m) @ t=0.96
-1.1105087449390334
% es.EZ (V/m) @ t=0.96
13.775527254856604
% es.tEX (V/m) @ t=0.96
-10.287940202700392
% es.tEY (V/m) @ t=0.96
0
% es.tEZ (V/m) @ t=0.96
13.775527254856575
% es.Ex (V/m) @ t=0.96
-10.287940202700375
% es.Ey (V/m) @ t=0.96
-1.1105087449390334
% es.Ez (V/m) @ t=0.96
13.775527254856604
% es.tEx (V/m) @ t=0.96
-10.287940202700392
% es.tEy (V/m) @ t=0.96
0
% es.tEz (V/m) @ t=0.96
13.775527254856575
% V (V) @ t=0.96
0.015206180986879501
% es.normE (V/m) @ t=0.98
18.67889839588762
% es.EX (V/m) @ t=0.98
-10.378732920372588
% es.EY (V/m) @ t=0.98
-1.1203054713180545
% es.EZ (V/m) @ t=0.98
13.897086824981562
% es.tEX (V/m) @ t=0.98
-10.378732920372608
% es.tEY (V/m) @ t=0.98
0
% es.tEZ (V/m) @ t=0.98
13.89708682498155
% es.Ex (V/m) @ t=0.98
-10.378732920372588
% es.Ey (V/m) @ t=0.98
-1.1203054713180545
% es.Ez (V/m) @ t=0.98
13.897086824981562
% es.tEx (V/m) @ t=0.98
-10.378732920372608
% es.tEy (V/m) @ t=0.98
0
% es.tEz (V/m) @ t=0.98
13.89708682498155
% V (V) @ t=0.98
0.015340358239145825
% es.normE (V/m) @ t=1
18.842288948275097
% es.EX (V/m) @ t=1
-10.469525638044752
% es.EY (V/m) @ t=1
-1.1301021976970906
% es.EZ (V/m) @ t=1
14.018646395106574
% es.tEX (V/m) @ t=1
-10.469525638044765
% es.tEY (V/m) @ t=1
0
% es.tEZ (V/m) @ t=1
14.01864639510656
% es.Ex (V/m) @ t=1
-10.469525638044752
% es.Ey (V/m) @ t=1
-1.1301021976970906
% es.Ez (V/m) @ t=1
14.018646395106574
% es.tEx (V/m) @ t=1
-10.469525638044765
% es.tEy (V/m) @ t=1
0
% es.tEz (V/m) @ t=1
14.01864639510656
% V (V) @ t=1
0.01547453549141215
% es.normE (V/m) @ t=1.02
19.005679500666197
% es.EX (V/m) @ t=1.02
-10.560318355716955
% es.EY (V/m) @ t=1.02
-1.1398989240761463
% es.EZ (V/m) @ t=1.02
14.140205965231523
% es.tEX (V/m) @ t=1.02
-10.56031835571696
% es.tEY (V/m) @ t=1.02
0
% es.tEZ (V/m) @ t=1.02
14.140205965231504
% es.Ex (V/m) @ t=1.02
-10.560318355716955
% es.Ey (V/m) @ t=1.02
-1.1398989240761463
% es.Ez (V/m) @ t=1.02
14.140205965231523
% es.tEx (V/m) @ t=1.02
-10.56031835571696
% es.tEy (V/m) @ t=1.02
0
% es.tEz (V/m) @ t=1.02
14.140205965231504
% V (V) @ t=1.02
0.015608712743678477
% es.normE (V/m) @ t=1.04
19.172011340591162
% es.EX (V/m) @ t=1.04
-10.65274461113475
% es.EY (V/m) @ t=1.04
-1.1498724062128782
% es.EZ (V/m) @ t=1.04
14.263954188109778
% es.tEX (V/m) @ t=1.04
-10.652744611134777
% es.tEY (V/m) @ t=1.04
0
% es.tEZ (V/m) @ t=1.04
14.263954188109762
% es.Ex (V/m) @ t=1.04
-10.65274461113475
% es.Ey (V/m) @ t=1.04
-1.1498724062128782
% es.Ez (V/m) @ t=1.04
14.263954188109778