% Model:              1 neuron.mph
% Version:            COMSOL 6.1.0.252
% Date:               Mar 22 2023, 18:51
% Dimension:          0
% Nodes:              14017
% Expressions:        14017
% Description:        Electric field norm, Electric field, X component, Electric field, Y component, Electric field, Z component, Tangential electric field, X component, Tangential electric field, Y component, Tangential electric field, Z component, Electric field, x component, Electric field, y component, Electric field, z component, Tangential electric field, x component, Tangential electric field, y component, Tangential electric field, z component, Electric potential
% Length unit:        mm
% x
1.33
% y
12.2
% z
1
% es.normE (V/m) @ t=0
2.852715637557367
% es.EX (V/m) @ t=0
0.8805283543724458
% es.EY (V/m) @ t=0
0.21332007419554255
% es.EZ (V/m) @ t=0
2.7050037217835703
% es.tEX (V/m) @ t=0
0.8805283543724514
% es.tEY (V/m) @ t=0
0
% es.tEZ (V/m) @ t=0
2.7050037217835694
% es.Ex (V/m) @ t=0
0.8805283543724458
% es.Ey (V/m) @ t=0
0.21332007419554255
% es.Ez (V/m) @ t=0
2.7050037217835703
% es.tEx (V/m) @ t=0
0.8805283543724514
% es.tEy (V/m) @ t=0
0
% es.tEz (V/m) @ t=0
2.7050037217835694
% V (V) @ t=0
0.013342226292329529
% es.normE (V/m) @ t=0.02
2.463928018451711
% es.EX (V/m) @ t=0.02
0.7605239214288012
% es.EY (V/m) @ t=0.02
0.1842473539413415
% es.EZ (V/m) @ t=0.02
2.3363472939123477
% es.tEX (V/m) @ t=0.02
0.7605239214288062
% es.tEY (V/m) @ t=0.02
0
% es.tEZ (V/m) @ t=0.02
2.3363472939123664
% es.Ex (V/m) @ t=0.02
0.7605239214288012
% es.Ey (V/m) @ t=0.02
0.1842473539413415
% es.Ez (V/m) @ t=0.02
2.3363472939123477
% es.tEx (V/m) @ t=0.02
0.7605239214288062
% es.tEy (V/m) @ t=0.02
0
% es.tEz (V/m) @ t=0.02
2.3363472939123664
% V (V) @ t=0.02
0.01152385633814856
% es.normE (V/m) @ t=0.04
2.486602865606381
% es.EX (V/m) @ t=0.04
0.7675228124546581
% es.EY (V/m) @ t=0.04
0.18594293134582784
% es.EZ (V/m) @ t=0.04
2.3578480509880233
% es.tEX (V/m) @ t=0.04
0.7675228124546649
% es.tEY (V/m) @ t=0.04
0
% es.tEZ (V/m) @ t=0.04
2.3578480509880215
% es.Ex (V/m) @ t=0.04
0.7675228124546581
% es.Ey (V/m) @ t=0.04
0.18594293134582784
% es.Ez (V/m) @ t=0.04
2.3578480509880233
% es.tEx (V/m) @ t=0.04
0.7675228124546649
% es.tEy (V/m) @ t=0.04
0
% es.tEz (V/m) @ t=0.04
2.3578480509880215
% V (V) @ t=0.04
0.011629907198446796
% es.normE (V/m) @ t=0.06
2.5094416064254563
% es.EX (V/m) @ t=0.06
0.7745722914106999
% es.EY (V/m) @ t=0.06
0.1876507643400015
% es.EZ (V/m) @ t=0.06
2.379504215419063
% es.tEX (V/m) @ t=0.06
0.7745722914106992
% es.tEY (V/m) @ t=0.06
0
% es.tEZ (V/m) @ t=0.06
2.3795042154190646
% es.Ex (V/m) @ t=0.06
0.7745722914106999
% es.Ey (V/m) @ t=0.06
0.1876507643400015
% es.Ez (V/m) @ t=0.06
2.379504215419063
% es.tEx (V/m) @ t=0.06
0.7745722914106992
% es.tEy (V/m) @ t=0.06
0
% es.tEz (V/m) @ t=0.06
2.3795042154190646
% V (V) @ t=0.06
0.011736724604347014
% es.normE (V/m) @ t=0.08
2.5327211555795808
% es.EX (V/m) @ t=0.08
0.7817578316328072
% es.EY (V/m) @ t=0.08
0.18939156033935323
% es.EZ (V/m) @ t=0.08
2.4015783633859775
% es.tEX (V/m) @ t=0.08
0.7817578316328095
% es.tEY (V/m) @ t=0.08
0
% es.tEZ (V/m) @ t=0.08
2.4015783633859797
% es.Ex (V/m) @ t=0.08
0.7817578316328072
% es.Ey (V/m) @ t=0.08
0.18939156033935323
% es.Ez (V/m) @ t=0.08
2.4015783633859775
% es.tEx (V/m) @ t=0.08
0.7817578316328095
% es.tEy (V/m) @ t=0.08
0
% es.tEz (V/m) @ t=0.08
2.4015783633859797
% V (V) @ t=0.08
0.011845603669831653
% es.normE (V/m) @ t=0.1
2.556114919001267
% es.EX (V/m) @ t=0.1
0.7889786255844949
% es.EY (V/m) @ t=0.1
0.19114089711529858
% es.EZ (V/m) @ t=0.1
2.42376081167212
% es.tEX (V/m) @ t=0.1
0.7889786255844982
% es.tEY (V/m) @ t=0.1
0
% es.tEZ (V/m) @ t=0.1
2.4237608116721177
% es.Ex (V/m) @ t=0.1
0.7889786255844949
% es.Ey (V/m) @ t=0.1
0.19114089711529858
% es.Ez (V/m) @ t=0.1
2.42376081167212
% es.tEx (V/m) @ t=0.1
0.7889786255844982
% es.tEy (V/m) @ t=0.1
0
% es.tEz (V/m) @ t=0.1
2.4237608116721177
% V (V) @ t=0.1
0.011955016915186871
% es.normE (V/m) @ t=0.12
2.5795086824229374
% es.EX (V/m) @ t=0.12
0.7961994195362015
% es.EY (V/m) @ t=0.12
0.19289023389123938
% es.EZ (V/m) @ t=0.12
2.4459432599582396
% es.tEX (V/m) @ t=0.12
0.7961994195362081
% es.tEY (V/m) @ t=0.12
0
% es.tEZ (V/m) @ t=0.12
2.445943259958243
% es.Ex (V/m) @ t=0.12
0.7961994195362015
% es.Ey (V/m) @ t=0.12
0.19289023389123938
% es.Ez (V/m) @ t=0.12
2.4459432599582396
% es.tEx (V/m) @ t=0.12
0.7961994195362081
% es.tEy (V/m) @ t=0.12
0
% es.tEz (V/m) @ t=0.12
2.445943259958243
% V (V) @ t=0.12
0.01206443016054209
% es.normE (V/m) @ t=0.14
2.603598544584205
% es.EX (V/m) @ t=0.14
0.8036350736231155
% es.EY (V/m) @ t=0.14
0.1946916231892185
% es.EZ (V/m) @ t=0.14
2.468785763405619
% es.tEX (V/m) @ t=0.14
0.8036350736231199
% es.tEY (V/m) @ t=0.14
0
% es.tEZ (V/m) @ t=0.14
2.46878576340562
% es.Ex (V/m) @ t=0.14
0.8036350736231155
% es.Ey (V/m) @ t=0.14
0.1946916231892185
% es.Ez (V/m) @ t=0.14
2.468785763405619
% es.tEx (V/m) @ t=0.14
0.8036350736231199
% es.tEy (V/m) @ t=0.14
0
% es.tEz (V/m) @ t=0.14
2.46878576340562
% V (V) @ t=0.14
0.012177099089723701
% es.normE (V/m) @ t=0.16
2.6281628456719357
% es.EX (V/m) @ t=0.16
0.8112171695954975
% es.EY (V/m) @ t=0.16
0.1965284898430334
% es.EZ (V/m) @ t=0.16
2.492078139614286
% es.tEX (V/m) @ t=0.16
0.8112171695955013
% es.tEY (V/m) @ t=0.16
0
% es.tEZ (V/m) @ t=0.16
2.492078139614293
% es.Ex (V/m) @ t=0.16
0.8112171695954975
% es.Ey (V/m) @ t=0.16
0.1965284898430334
% es.Ez (V/m) @ t=0.16
2.492078139614286
% es.tEx (V/m) @ t=0.16
0.8112171695955013
% es.tEy (V/m) @ t=0.16
0
% es.tEz (V/m) @ t=0.16
2.492078139614293
% V (V) @ t=0.16
0.012291986990226057
% es.normE (V/m) @ t=0.18
2.652727146759683
% es.EX (V/m) @ t=0.18
0.818799265567896
% es.EY (V/m) @ t=0.18
0.19836535649685139
% es.EZ (V/m) @ t=0.18
2.515370515822966
% es.tEX (V/m) @ t=0.18
0.8187992655679039
% es.tEY (V/m) @ t=0.18
0
% es.tEZ (V/m) @ t=0.18
2.5153705158229798
% es.Ex (V/m) @ t=0.18
0.818799265567896
% es.Ey (V/m) @ t=0.18
0.19836535649685139
% es.Ez (V/m) @ t=0.18
2.515370515822966
% es.tEx (V/m) @ t=0.18
0.8187992655679039
% es.tEy (V/m) @ t=0.18
0
% es.tEz (V/m) @ t=0.18
2.5153705158229798
% V (V) @ t=0.18
0.012406874890728413
% es.normE (V/m) @ t=0.2
2.67729144784741
% es.EX (V/m) @ t=0.2
0.8263813615402711
% es.EY (V/m) @ t=0.2
0.20020222315062675
% es.EZ (V/m) @ t=0.2
2.5386628920316343
% es.tEX (V/m) @ t=0.2
0.8263813615402711
% es.tEY (V/m) @ t=0.2
0
% es.tEZ (V/m) @ t=0.2
2.5386628920316365
% es.Ex (V/m) @ t=0.2
0.8263813615402711
% es.Ey (V/m) @ t=0.2
0.20020222315062675
% es.Ez (V/m) @ t=0.2
2.5386628920316343
% es.tEx (V/m) @ t=0.2
0.8263813615402711
% es.tEy (V/m) @ t=0.2
0
% es.tEz (V/m) @ t=0.2
2.5386628920316365
% V (V) @ t=0.2
0.012521762791230769
% es.normE (V/m) @ t=0.22
2.7018557489351576
% es.EX (V/m) @ t=0.22
0.8339634575126511
% es.EY (V/m) @ t=0.22
0.20203908980443053
% es.EZ (V/m) @ t=0.22
2.561955268240321
% es.tEX (V/m) @ t=0.22
0.8339634575126524
% es.tEY (V/m) @ t=0.22
0
% es.tEZ (V/m) @ t=0.22
2.5619552682403093
% es.Ex (V/m) @ t=0.22
0.8339634575126511
% es.Ey (V/m) @ t=0.22
0.20203908980443053
% es.Ez (V/m) @ t=0.22
2.561955268240321
% es.tEx (V/m) @ t=0.22
0.8339634575126524
% es.tEy (V/m) @ t=0.22
0
% es.tEz (V/m) @ t=0.22
2.5619552682403093
% V (V) @ t=0.22
0.012636650691733127
% es.normE (V/m) @ t=0.24
2.7264200500229
% es.EX (V/m) @ t=0.24
0.8415455534850387
% es.EY (V/m) @ t=0.24
0.20387595645822332
% es.EZ (V/m) @ t=0.24
2.5852476444490002
% es.tEX (V/m) @ t=0.24
0.8415455534850409
% es.tEY (V/m) @ t=0.24
0
% es.tEZ (V/m) @ t=0.24
2.585247644449007
% es.Ex (V/m) @ t=0.24
0.8415455534850387
% es.Ey (V/m) @ t=0.24
0.20387595645822332
% es.Ez (V/m) @ t=0.24
2.5852476444490002
% es.tEx (V/m) @ t=0.24
0.8415455534850409
% es.tEy (V/m) @ t=0.24
0
% es.tEz (V/m) @ t=0.24
2.585247644449007
% V (V) @ t=0.24
0.012751538592235481
% es.normE (V/m) @ t=0.26
2.751495489463959
% es.EX (V/m) @ t=0.26
0.8492854193946475
% es.EY (V/m) @ t=0.26
0.2057510457439029
% es.EZ (V/m) @ t=0.26
2.609024692404787
% es.tEX (V/m) @ t=0.26
0.8492854193946542
% es.tEY (V/m) @ t=0.26
0
% es.tEZ (V/m) @ t=0.26
2.6090246924048053
% es.Ex (V/m) @ t=0.26
0.8492854193946475
% es.Ey (V/m) @ t=0.26
0.2057510457439029
% es.Ez (V/m) @ t=0.26
2.609024692404787
% es.tEx (V/m) @ t=0.26
0.8492854193946542
% es.tEy (V/m) @ t=0.26
0
% es.tEz (V/m) @ t=0.26
2.6090246924048053
% V (V) @ t=0.26
0.012868817100321655
% es.normE (V/m) @ t=0.28
2.778672773274862
% es.EX (V/m) @ t=0.28
0.857674048700926
% es.EY (V/m) @ t=0.28
0.2077833097419688
% es.EZ (V/m) @ t=0.28
2.634794751795291
% es.tEX (V/m) @ t=0.28
0.857674048700936
% es.tEY (V/m) @ t=0.28
0
% es.tEZ (V/m) @ t=0.28
2.634794751795292
% es.Ex (V/m) @ t=0.28
0.857674048700926
% es.Ey (V/m) @ t=0.28
0.2077833097419688
% es.Ez (V/m) @ t=0.28
2.634794751795291
% es.tEx (V/m) @ t=0.28
0.857674048700936
% es.tEy (V/m) @ t=0.28
0
% es.tEz (V/m) @ t=0.28
2.634794751795292
% V (V) @ t=0.28
0.0129959259900603
% es.normE (V/m) @ t=0.3
2.805850057085728
% es.EX (V/m) @ t=0.3
0.8660626780072092
% es.EY (V/m) @ t=0.3
0.20981557374002024
% es.EZ (V/m) @ t=0.3
2.660564811185756
% es.tEX (V/m) @ t=0.3
0.8660626780072178
% es.tEY (V/m) @ t=0.3
0
% es.tEZ (V/m) @ t=0.3
2.660564811185761
% es.Ex (V/m) @ t=0.3
0.8660626780072092
% es.Ey (V/m) @ t=0.3
0.20981557374002024
% es.Ez (V/m) @ t=0.3
2.660564811185756
% es.tEx (V/m) @ t=0.3
0.8660626780072178
% es.tEy (V/m) @ t=0.3
0
% es.tEz (V/m) @ t=0.3
2.660564811185761
% V (V) @ t=0.3
0.013123034879798939
% es.normE (V/m) @ t=0.32
2.833027340896632
% es.EX (V/m) @ t=0.32
0.8744513073135054
% es.EY (V/m) @ t=0.32
0.21184783773808968
% es.EZ (V/m) @ t=0.32
2.686334870576255
% es.tEX (V/m) @ t=0.32
0.8744513073135067
% es.tEY (V/m) @ t=0.32
0
% es.tEZ (V/m) @ t=0.32
2.686334870576264
% es.Ex (V/m) @ t=0.32
0.8744513073135054
% es.Ey (V/m) @ t=0.32
0.21184783773808968
% es.Ez (V/m) @ t=0.32
2.686334870576255
% es.tEx (V/m) @ t=0.32
0.8744513073135067
% es.tEy (V/m) @ t=0.32
0
% es.tEz (V/m) @ t=0.32
2.686334870576264
% V (V) @ t=0.32
0.013250143769537582
% es.normE (V/m) @ t=0.34
2.860204624707509
% es.EX (V/m) @ t=0.34
0.8828399366197708
% es.EY (V/m) @ t=0.34
0.21388010173611627
% es.EZ (V/m) @ t=0.34
2.7121049299667384
% es.tEX (V/m) @ t=0.34
0.8828399366197743
% es.tEY (V/m) @ t=0.34
0
% es.tEZ (V/m) @ t=0.34
2.712104929966749
% es.Ex (V/m) @ t=0.34
0.8828399366197708
% es.Ey (V/m) @ t=0.34
0.21388010173611627
% es.Ez (V/m) @ t=0.34
2.7121049299667384
% es.tEx (V/m) @ t=0.34
0.8828399366197743
% es.tEy (V/m) @ t=0.34
0
% es.tEz (V/m) @ t=0.34
2.712104929966749
% V (V) @ t=0.34
0.013377252659276227
% es.normE (V/m) @ t=0.36
2.8873819085184103
% es.EX (V/m) @ t=0.36
0.8912285659260619
% es.EY (V/m) @ t=0.36
0.2159123657341644
% es.EZ (V/m) @ t=0.36
2.7378749893572376
% es.tEX (V/m) @ t=0.36
0.8912285659260704
% es.tEY (V/m) @ t=0.36
0
% es.tEZ (V/m) @ t=0.36
2.7378749893572376
% es.Ex (V/m) @ t=0.36
0.8912285659260619
% es.Ey (V/m) @ t=0.36
0.2159123657341644
% es.Ez (V/m) @ t=0.36
2.7378749893572376
% es.tEx (V/m) @ t=0.36
0.8912285659260704
% es.tEy (V/m) @ t=0.36
0
% es.tEz (V/m) @ t=0.36
2.7378749893572376
% V (V) @ t=0.36
0.013504361549014866
% es.normE (V/m) @ t=0.38
2.914559192329282
% es.EX (V/m) @ t=0.38
0.8996171952323313
% es.EY (V/m) @ t=0.38
0.21794462973221718
% es.EZ (V/m) @ t=0.38
2.763645048747713
% es.tEX (V/m) @ t=0.38
0.899617195232338
% es.tEY (V/m) @ t=0.38
0
% es.tEZ (V/m) @ t=0.38
2.7636450487477084
% es.Ex (V/m) @ t=0.38
0.8996171952323313
% es.Ey (V/m) @ t=0.38
0.21794462973221718
% es.Ez (V/m) @ t=0.38
2.763645048747713
% es.tEx (V/m) @ t=0.38
0.899617195232338
% es.tEy (V/m) @ t=0.38
0
% es.tEz (V/m) @ t=0.38
2.7636450487477084
% V (V) @ t=0.38
0.013631470438753509
% es.normE (V/m) @ t=0.4
2.9417364761401847
% es.EX (V/m) @ t=0.4
0.9080058245386213
% es.EY (V/m) @ t=0.4
0.2199768937302793
% es.EZ (V/m) @ t=0.4
2.789415108138213
% es.tEX (V/m) @ t=0.4
0.9080058245386056
% es.tEY (V/m) @ t=0.4
0
% es.tEZ (V/m) @ t=0.4
2.7894151081382255
% es.Ex (V/m) @ t=0.4
0.9080058245386213
% es.Ey (V/m) @ t=0.4
0.2199768937302793
% es.Ez (V/m) @ t=0.4
2.789415108138213
% es.tEx (V/m) @ t=0.4
0.9080058245386056
% es.tEy (V/m) @ t=0.4
0
% es.tEz (V/m) @ t=0.4
2.7894151081382255
% V (V) @ t=0.4
0.01375857932849215
% es.normE (V/m) @ t=0.42
2.9689137599510715
% es.EX (V/m) @ t=0.42
0.9163944538448965
% es.EY (V/m) @ t=0.42
0.222009157728299
% es.EZ (V/m) @ t=0.42
2.8151851675287043
% es.tEX (V/m) @ t=0.42
0.9163944538449016
% es.tEY (V/m) @ t=0.42
0
% es.tEZ (V/m) @ t=0.42
2.8151851675287247
% es.Ex (V/m) @ t=0.42
0.9163944538448965
% es.Ey (V/m) @ t=0.42
0.222009157728299
% es.Ez (V/m) @ t=0.42
2.8151851675287043
% es.tEx (V/m) @ t=0.42
0.9163944538449016
% es.tEy (V/m) @ t=0.42
0
% es.tEz (V/m) @ t=0.42
2.8151851675287247
% V (V) @ t=0.42
0.013885688218230793
% es.normE (V/m) @ t=0.44
2.9960910437619663
% es.EX (V/m) @ t=0.44
0.9247830831511901
% es.EY (V/m) @ t=0.44
0.224041421726354
% es.EZ (V/m) @ t=0.44
2.8409552269191956
% es.tEX (V/m) @ t=0.44
0.9247830831511976
% es.tEY (V/m) @ t=0.44
0
% es.tEZ (V/m) @ t=0.44
2.840955226919185
% es.Ex (V/m) @ t=0.44
0.9247830831511901
% es.Ey (V/m) @ t=0.44
0.224041421726354
% es.Ez (V/m) @ t=0.44
2.8409552269191956
% es.tEx (V/m) @ t=0.44
0.9247830831511976
% es.tEy (V/m) @ t=0.44
0
% es.tEz (V/m) @ t=0.44
2.840955226919185
% V (V) @ t=0.44
0.014012797107969434
% es.normE (V/m) @ t=0.46
3.0232683275728562
% es.EX (V/m) @ t=0.46
0.9331717124574601
% es.EY (V/m) @ t=0.46
0.22607368572443765
% es.EZ (V/m) @ t=0.46
2.866725286309687
% es.tEX (V/m) @ t=0.46
0.933171712457451
% es.tEY (V/m) @ t=0.46
0
% es.tEZ (V/m) @ t=0.46
2.8667252863096984
% es.Ex (V/m) @ t=0.46
0.9331717124574601
% es.Ey (V/m) @ t=0.46
0.22607368572443765
% es.Ez (V/m) @ t=0.46
2.866725286309687
% es.tEx (V/m) @ t=0.46
0.933171712457451
% es.tEy (V/m) @ t=0.46
0
% es.tEz (V/m) @ t=0.46
2.8667252863096984
% V (V) @ t=0.46
0.014139905997708077
% es.normE (V/m) @ t=0.48
3.050445611383749
% es.EX (V/m) @ t=0.48
0.9415603417637475
% es.EY (V/m) @ t=0.48
0.22810594972248577
% es.EZ (V/m) @ t=0.48
2.892495345700178
% es.tEX (V/m) @ t=0.48
0.941560341763747
% es.tEY (V/m) @ t=0.48
0
% es.tEZ (V/m) @ t=0.48
2.8924953457001727
% es.Ex (V/m) @ t=0.48
0.9415603417637475
% es.Ey (V/m) @ t=0.48
0.22810594972248577
% es.Ez (V/m) @ t=0.48
2.892495345700178
% es.tEx (V/m) @ t=0.48
0.941560341763747
% es.tEy (V/m) @ t=0.48
0
% es.tEz (V/m) @ t=0.48
2.8924953457001727
% V (V) @ t=0.48
0.014267014887446722
% es.normE (V/m) @ t=0.5
3.0776228951946134
% es.EX (V/m) @ t=0.5
0.949948971070022
% es.EY (V/m) @ t=0.5
0.23013821372049859
% es.EZ (V/m) @ t=0.5
2.918265405090647
% es.tEX (V/m) @ t=0.5
0.9499489710700288
% es.tEY (V/m) @ t=0.5
0
% es.tEZ (V/m) @ t=0.5
2.918265405090658
% es.Ex (V/m) @ t=0.5
0.949948971070022
% es.Ey (V/m) @ t=0.5
0.23013821372049859
% es.Ez (V/m) @ t=0.5
2.918265405090647
% es.tEx (V/m) @ t=0.5
0.9499489710700288
% es.tEy (V/m) @ t=0.5
0
% es.tEz (V/m) @ t=0.5
2.918265405090658
% V (V) @ t=0.5
0.014394123777185361
% es.normE (V/m) @ t=0.52
3.1059680023989262
% es.EX (V/m) @ t=0.52
0.9586980639218388
% es.EY (V/m) @ t=0.52
0.23225780401233043
% es.EZ (V/m) @ t=0.52
2.945142818940006
% es.tEX (V/m) @ t=0.52
0.9586980639218297
% es.tEY (V/m) @ t=0.52
0
% es.tEZ (V/m) @ t=0.52
2.9451428189400097
% es.Ex (V/m) @ t=0.52
0.9586980639218388
% es.Ey (V/m) @ t=0.52
0.23225780401233043
% es.Ez (V/m) @ t=0.52
2.945142818940006
% es.tEx (V/m) @ t=0.52
0.9586980639218297
% es.tEy (V/m) @ t=0.52
0
% es.tEz (V/m) @ t=0.52
2.9451428189400097
% V (V) @ t=0.52
0.014526694609269503
% es.normE (V/m) @ t=0.54
3.1360833627339755
% es.EX (V/m) @ t=0.54
0.9679935679207727
% es.EY (V/m) @ t=0.54
0.2345097684678028
% es.EZ (V/m) @ t=0.54
2.973698823669354
% es.tEX (V/m) @ t=0.54
0.9679935679207716
% es.tEY (V/m) @ t=0.54
0
% es.tEZ (V/m) @ t=0.54
2.973698823669345
% es.Ex (V/m) @ t=0.54
0.9679935679207727
% es.Ey (V/m) @ t=0.54
0.2345097684678028
% es.Ez (V/m) @ t=0.54
2.973698823669354
% es.tEx (V/m) @ t=0.54
0.9679935679207716
% es.tEy (V/m) @ t=0.54
0
% es.tEz (V/m) @ t=0.54
2.973698823669345
% V (V) @ t=0.54
0.014667544964260643
% es.normE (V/m) @ t=0.56
3.166198723068993
% es.EX (V/m) @ t=0.56
0.977289071919704
% es.EY (V/m) @ t=0.56
0.23676173292323388
% es.EZ (V/m) @ t=0.56
3.002254828398671
% es.tEX (V/m) @ t=0.56
0.9772890719196994
% es.tEY (V/m) @ t=0.56
0
% es.tEZ (V/m) @ t=0.56
3.002254828398673
% es.Ex (V/m) @ t=0.56
0.977289071919704
% es.Ey (V/m) @ t=0.56
0.23676173292323388
% es.Ez (V/m) @ t=0.56
3.002254828398671
% es.tEx (V/m) @ t=0.56
0.9772890719196994
% es.tEy (V/m) @ t=0.56
0
% es.tEz (V/m) @ t=0.56
3.002254828398673
% V (V) @ t=0.56
0.01480839531925178
% es.normE (V/m) @ t=0.58
3.196314083404018
% es.EX (V/m) @ t=0.58
0.9865845759186165
% es.EY (V/m) @ t=0.58
0.23901369737864675
% es.EZ (V/m) @ t=0.58
3.0308108331280037
% es.tEX (V/m) @ t=0.58
0.9865845759186271
% es.tEY (V/m) @ t=0.58
0
% es.tEZ (V/m) @ t=0.58
3.030810833128001
% es.Ex (V/m) @ t=0.58
0.9865845759186165
% es.Ey (V/m) @ t=0.58
0.23901369737864675
% es.Ez (V/m) @ t=0.58
3.0308108331280037
% es.tEx (V/m) @ t=0.58
0.9865845759186271
% es.tEy (V/m) @ t=0.58
0
% es.tEz (V/m) @ t=0.58
3.030810833128001
% V (V) @ t=0.58
0.014949245674242924
% es.normE (V/m) @ t=0.6
3.226429443739055
% es.EX (V/m) @ t=0.6
0.9958800799175391
% es.EY (V/m) @ t=0.6
0.24126566183411602
% es.EZ (V/m) @ t=0.6
3.0593668378573424
% es.tEX (V/m) @ t=0.6
0.9958800799175265
% es.tEY (V/m) @ t=0.6
0
% es.tEZ (V/m) @ t=0.6
3.059366837857347
% es.Ex (V/m) @ t=0.6
0.9958800799175391
% es.Ey (V/m) @ t=0.6
0.24126566183411602
% es.Ez (V/m) @ t=0.6
3.0593668378573424
% es.tEx (V/m) @ t=0.6
0.9958800799175265
% es.tEy (V/m) @ t=0.6
0
% es.tEz (V/m) @ t=0.6
3.059366837857347
% V (V) @ t=0.6
0.015090096029234062
% es.normE (V/m) @ t=0.62
3.2565448040740907
% es.EX (V/m) @ t=0.62
1.0051755839164775
% es.EY (V/m) @ t=0.62
0.24351762628956353
% es.EZ (V/m) @ t=0.62
3.087922842586675
% es.tEX (V/m) @ t=0.62
1.0051755839164827
% es.tEY (V/m) @ t=0.62
0
% es.tEZ (V/m) @ t=0.62
3.0879228425866927
% es.Ex (V/m) @ t=0.62
1.0051755839164775
% es.Ey (V/m) @ t=0.62
0.24351762628956353
% es.Ez (V/m) @ t=0.62
3.087922842586675
% es.tEx (V/m) @ t=0.62
1.0051755839164827
% es.tEy (V/m) @ t=0.62
0
% es.tEz (V/m) @ t=0.62
3.0879228425866927
% V (V) @ t=0.62
0.015230946384225202
% es.normE (V/m) @ t=0.64
3.2866601644091373
% es.EX (V/m) @ t=0.64
1.0144710879153993
% es.EY (V/m) @ t=0.64
0.24576959074497684
% es.EZ (V/m) @ t=0.64
3.116478847316028
% es.tEX (V/m) @ t=0.64
1.0144710879153962
% es.tEY (V/m) @ t=0.64
0
% es.tEZ (V/m) @ t=0.64
3.1164788473160385
% es.Ex (V/m) @ t=0.64
1.0144710879153993
% es.Ey (V/m) @ t=0.64
0.24576959074497684
% es.Ez (V/m) @ t=0.64
3.116478847316028
% es.tEx (V/m) @ t=0.64
1.0144710879153962
% es.tEy (V/m) @ t=0.64
0
% es.tEz (V/m) @ t=0.64
3.1164788473160385
% V (V) @ t=0.64
0.015371796739216344
% es.normE (V/m) @ t=0.66
3.316775524744185
% es.EX (V/m) @ t=0.66
1.0237665919143306
% es.EY (V/m) @ t=0.66
0.24802155520043856
% es.EZ (V/m) @ t=0.66
3.1450348520453755
% es.tEX (V/m) @ t=0.66
1.0237665919143382
% es.tEY (V/m) @ t=0.66
0
% es.tEZ (V/m) @ t=0.66
3.1450348520453844
% es.Ex (V/m) @ t=0.66
1.0237665919143306
% es.Ey (V/m) @ t=0.66
0.24802155520043856
% es.Ez (V/m) @ t=0.66
3.1450348520453755
% es.tEx (V/m) @ t=0.66
1.0237665919143382
% es.tEy (V/m) @ t=0.66
0
% es.tEz (V/m) @ t=0.66
3.1450348520453844
% V (V) @ t=0.66
0.015512647094207483
% es.normE (V/m) @ t=0.68
3.3468908850792207
% es.EX (V/m) @ t=0.68
1.0330620959132735
% es.EY (V/m) @ t=0.68
0.25027351965589073
% es.EZ (V/m) @ t=0.68
3.173590856774707
% es.tEX (V/m) @ t=0.68
1.033062095913266
% es.tEY (V/m) @ t=0.68
0
% es.tEZ (V/m) @ t=0.68
3.173590856774716
% es.Ex (V/m) @ t=0.68
1.0330620959132735
% es.Ey (V/m) @ t=0.68
0.25027351965589073
% es.Ez (V/m) @ t=0.68
3.173590856774707
% es.tEx (V/m) @ t=0.68
1.033062095913266
% es.tEy (V/m) @ t=0.68
0
% es.tEz (V/m) @ t=0.68
3.173590856774716
% V (V) @ t=0.68
0.015653497449198625
% es.normE (V/m) @ t=0.7
3.3770062454142424
% es.EX (V/m) @ t=0.7
1.0423575999121737
% es.EY (V/m) @ t=0.7
0.2525254841113027
% es.EZ (V/m) @ t=0.7
3.2021468615040405
% es.tEX (V/m) @ t=0.7
1.0423575999121795
% es.tEY (V/m) @ t=0.7
0
% es.tEZ (V/m) @ t=0.7
3.2021468615040405
% es.Ex (V/m) @ t=0.7
1.0423575999121737
% es.Ey (V/m) @ t=0.7
0.2525254841113027
% es.Ez (V/m) @ t=0.7
3.2021468615040405
% es.tEx (V/m) @ t=0.7
1.0423575999121795
% es.tEy (V/m) @ t=0.7
0
% es.tEz (V/m) @ t=0.7
3.2021468615040405
% V (V) @ t=0.7
0.015794347804189764
% es.normE (V/m) @ t=0.72
3.4071216057492557
% es.EX (V/m) @ t=0.72
1.0516531039111012
% es.EY (V/m) @ t=0.72
0.25477744856677553
% es.EZ (V/m) @ t=0.72
3.2307028662333517
% es.tEX (V/m) @ t=0.72
1.0516531039111072
% es.tEY (V/m) @ t=0.72
0
% es.tEZ (V/m) @ t=0.72
3.230702866233358
% es.Ex (V/m) @ t=0.72
1.0516531039111012
% es.Ey (V/m) @ t=0.72
0.25477744856677553
% es.Ez (V/m) @ t=0.72
3.2307028662333517
% es.tEx (V/m) @ t=0.72
1.0516531039111072
% es.tEy (V/m) @ t=0.72
0
% es.tEz (V/m) @ t=0.72
3.230702866233358
% V (V) @ t=0.72
0.015935198159180902
% es.normE (V/m) @ t=0.74
3.4372369660843134
% es.EX (V/m) @ t=0.74
1.0609486079100374
% es.EY (V/m) @ t=0.74
0.25702941302225946
% es.EZ (V/m) @ t=0.74
3.2592588709627055
% es.tEX (V/m) @ t=0.74
1.0609486079100492
% es.tEY (V/m) @ t=0.74
0
% es.tEZ (V/m) @ t=0.74
3.2592588709627037
% es.Ex (V/m) @ t=0.74
1.0609486079100374
% es.Ey (V/m) @ t=0.74
0.25702941302225946
% es.Ez (V/m) @ t=0.74
3.2592588709627055
% es.tEx (V/m) @ t=0.74
1.0609486079100492
% es.tEy (V/m) @ t=0.74
0
% es.tEz (V/m) @ t=0.74
3.2592588709627037
% V (V) @ t=0.74
0.01607604851417204
% es.normE (V/m) @ t=0.76
3.467352326419345
% es.EX (V/m) @ t=0.76
1.070244111908958
% es.EY (V/m) @ t=0.76
0.2592813774776692
% es.EZ (V/m) @ t=0.76
3.2878148756920433
% es.tEX (V/m) @ t=0.76
1.0702441119089627
% es.tEY (V/m) @ t=0.76
0
% es.tEZ (V/m) @ t=0.76
3.2878148756920496
% es.Ex (V/m) @ t=0.76
1.070244111908958
% es.Ey (V/m) @ t=0.76
0.2592813774776692
% es.Ez (V/m) @ t=0.76
3.2878148756920433
% es.tEx (V/m) @ t=0.76
1.0702441119089627
% es.tEy (V/m) @ t=0.76
0
% es.tEz (V/m) @ t=0.76
3.2878148756920496
% V (V) @ t=0.76
0.016216898869163183
% es.normE (V/m) @ t=0.78
3.4994509470962676
% es.EX (V/m) @ t=0.78
1.0801517753154914
% es.EY (V/m) @ t=0.78
0.2616816456098596
% es.EZ (V/m) @ t=0.78
3.318251448780119
% es.tEX (V/m) @ t=0.78
1.0801517753154855
% es.tEY (V/m) @ t=0.78
0
% es.tEZ (V/m) @ t=0.78
3.318251448780135
% es.Ex (V/m) @ t=0.78
1.0801517753154914
% es.Ey (V/m) @ t=0.78
0.2616816456098596
% es.Ez (V/m) @ t=0.78
3.318251448780119
% es.tEx (V/m) @ t=0.78
1.0801517753154855
% es.tEy (V/m) @ t=0.78
0
% es.tEz (V/m) @ t=0.78
3.318251448780135
% V (V) @ t=0.78
0.01636702498938663
% es.normE (V/m) @ t=0.8
3.532875365421272
% es.EX (V/m) @ t=0.8
1.0904686636158538
% es.EY (V/m) @ t=0.8
0.2641810538608491
% es.EZ (V/m) @ t=0.8
3.349945170541221
% es.tEX (V/m) @ t=0.8
1.0904686636158658
% es.tEY (V/m) @ t=0.8
0
% es.tEZ (V/m) @ t=0.8
3.349945170541229
% es.Ex (V/m) @ t=0.8
1.0904686636158538
% es.Ey (V/m) @ t=0.8
0.2641810538608491
% es.Ez (V/m) @ t=0.8
3.349945170541221
% es.tEx (V/m) @ t=0.8
1.0904686636158658
% es.tEy (V/m) @ t=0.8
0
% es.tEz (V/m) @ t=0.8
3.349945170541229
% V (V) @ t=0.8
0.01652335190305556
% es.normE (V/m) @ t=0.82
3.5662997837462087
% es.EX (V/m) @ t=0.82
1.1007855519161736
% es.EY (V/m) @ t=0.82
0.26668046211182883
% es.EZ (V/m) @ t=0.82
3.3816388923022664
% es.tEX (V/m) @ t=0.82
1.1007855519161893
% es.tEY (V/m) @ t=0.82
0
% es.tEZ (V/m) @ t=0.82
3.3816388923022735
% es.Ex (V/m) @ t=0.82
1.1007855519161736
% es.Ey (V/m) @ t=0.82
0.26668046211182883
% es.Ez (V/m) @ t=0.82
3.3816388923022664
% es.tEx (V/m) @ t=0.82
1.1007855519161893
% es.tEy (V/m) @ t=0.82
0
% es.tEz (V/m) @ t=0.82
3.3816388923022735
% V (V) @ t=0.82
0.016679678816724483
% es.normE (V/m) @ t=0.84
3.599724202071201
% es.EX (V/m) @ t=0.84
1.1111024402165355
% es.EY (V/m) @ t=0.84
0.26917987036278457
% es.EZ (V/m) @ t=0.84
3.413332614063359
% es.tEX (V/m) @ t=0.84
1.111102440216527
% es.tEY (V/m) @ t=0.84
0
% es.tEZ (V/m) @ t=0.84
3.413332614063364
% es.Ex (V/m) @ t=0.84
1.1111024402165355
% es.Ey (V/m) @ t=0.84
0.26917987036278457
% es.Ez (V/m) @ t=0.84
3.413332614063359
% es.tEx (V/m) @ t=0.84
1.111102440216527
% es.tEy (V/m) @ t=0.84
0
% es.tEz (V/m) @ t=0.84
3.413332614063364
% V (V) @ t=0.84
0.01683600573039341
% es.normE (V/m) @ t=0.86
3.6331486203961845
% es.EX (V/m) @ t=0.86
1.121419328516889
% es.EY (V/m) @ t=0.86
0.2716792786137818
% es.EZ (V/m) @ t=0.86
3.4450263358244415
% es.tEX (V/m) @ t=0.86
1.1214193285168932
% es.tEY (V/m) @ t=0.86
0
% es.tEZ (V/m) @ t=0.86
3.4450263358244406
% es.Ex (V/m) @ t=0.86
1.121419328516889
% es.Ey (V/m) @ t=0.86
0.2716792786137818
% es.Ez (V/m) @ t=0.86
3.4450263358244415
% es.tEx (V/m) @ t=0.86
1.1214193285168932
% es.tEy (V/m) @ t=0.86
0
% es.tEz (V/m) @ t=0.86
3.4450263358244406
% V (V) @ t=0.86
0.016992332644062337
% es.normE (V/m) @ t=0.88
3.6665730387211752
% es.EX (V/m) @ t=0.88
1.1317362168172478
% es.EY (V/m) @ t=0.88
0.2741786868647491
% es.EZ (V/m) @ t=0.88
3.4767200575855313
% es.tEX (V/m) @ t=0.88
1.1317362168172451
% es.tEY (V/m) @ t=0.88
0
% es.tEZ (V/m) @ t=0.88
3.4767200575855313
% es.Ex (V/m) @ t=0.88
1.1317362168172478
% es.Ey (V/m) @ t=0.88
0.2741786868647491
% es.Ez (V/m) @ t=0.88
3.4767200575855313
% es.tEx (V/m) @ t=0.88
1.1317362168172451
% es.tEy (V/m) @ t=0.88
0
% es.tEz (V/m) @ t=0.88
3.4767200575855313
% V (V) @ t=0.88
0.017148659557731264
% es.normE (V/m) @ t=0.9
3.6999974570461065
% es.EX (V/m) @ t=0.9
1.1420531051175715
% es.EY (V/m) @ t=0.9
0.27667809511572794
% es.EZ (V/m) @ t=0.9
3.5084137793465704
% es.tEX (V/m) @ t=0.9
1.1420531051175686
% es.tEY (V/m) @ t=0.9
0
% es.tEZ (V/m) @ t=0.9
3.5084137793465757
% es.Ex (V/m) @ t=0.9
1.1420531051175715
% es.Ey (V/m) @ t=0.9
0.27667809511572794
% es.Ez (V/m) @ t=0.9
3.5084137793465704
% es.tEx (V/m) @ t=0.9
1.1420531051175686
% es.tEy (V/m) @ t=0.9
0
% es.tEz (V/m) @ t=0.9
3.5084137793465757
% V (V) @ t=0.9
0.01730498647140019
% es.normE (V/m) @ t=0.92
3.733421875371089
% es.EX (V/m) @ t=0.92
1.1523699934179272
% es.EY (V/m) @ t=0.92
0.27917750336670677
% es.EZ (V/m) @ t=0.92
3.540107501107652
% es.tEX (V/m) @ t=0.92
1.1523699934179206
% es.tEY (V/m) @ t=0.92
0
% es.tEZ (V/m) @ t=0.92
3.540107501107684
% es.Ex (V/m) @ t=0.92
1.1523699934179272
% es.Ey (V/m) @ t=0.92
0.27917750336670677
% es.Ez (V/m) @ t=0.92
3.540107501107652
% es.tEx (V/m) @ t=0.92
1.1523699934179206
% es.tEy (V/m) @ t=0.92
0
% es.tEz (V/m) @ t=0.92
3.540107501107684
% V (V) @ t=0.92
0.017461313385069118
% es.normE (V/m) @ t=0.94
3.766846293696071
% es.EX (V/m) @ t=0.94
1.1626868817182752
% es.EY (V/m) @ t=0.94
0.2816769116177211
% es.EZ (V/m) @ t=0.94
3.571801222868734
% es.tEX (V/m) @ t=0.94
1.1626868817182867
% es.tEY (V/m) @ t=0.94
0
% es.tEZ (V/m) @ t=0.94
3.57180122286875
% es.Ex (V/m) @ t=0.94
1.1626868817182752
% es.Ey (V/m) @ t=0.94
0.2816769116177211
% es.Ez (V/m) @ t=0.94
3.571801222868734
% es.tEx (V/m) @ t=0.94
1.1626868817182867
% es.tEy (V/m) @ t=0.94
0
% es.tEz (V/m) @ t=0.94
3.57180122286875
% V (V) @ t=0.94
0.01761764029873805
% es.normE (V/m) @ t=0.96
3.800270712021052
% es.EX (V/m) @ t=0.96
1.173003770018634
% es.EY (V/m) @ t=0.96
0.2841763198686671
% es.EZ (V/m) @ t=0.96
3.6034949446298157
% es.tEX (V/m) @ t=0.96
1.1730037700186386
% es.tEY (V/m) @ t=0.96
0
% es.tEZ (V/m) @ t=0.96
3.6034949446298086
% es.Ex (V/m) @ t=0.96
1.173003770018634
% es.Ey (V/m) @ t=0.96
0.2841763198686671
% es.Ez (V/m) @ t=0.96
3.6034949446298157
% es.tEx (V/m) @ t=0.96
1.1730037700186386
% es.tEy (V/m) @ t=0.96
0
% es.tEz (V/m) @ t=0.96
3.6034949446298086
% V (V) @ t=0.96
0.017773967212406976
% es.normE (V/m) @ t=0.98
3.8336951303460154
% es.EX (V/m) @ t=0.98
1.1833206583189506
% es.EY (V/m) @ t=0.98
0.28667572811963526
% es.EZ (V/m) @ t=0.98
3.635188666390891
% es.tEX (V/m) @ t=0.98
1.1833206583189622
% es.tEY (V/m) @ t=0.98
0
% es.tEZ (V/m) @ t=0.98
3.635188666390871
% es.Ex (V/m) @ t=0.98
1.1833206583189506
% es.Ey (V/m) @ t=0.98
0.28667572811963526
% es.Ez (V/m) @ t=0.98
3.635188666390891
% es.tEx (V/m) @ t=0.98
1.1833206583189622
% es.tEy (V/m) @ t=0.98
0
% es.tEz (V/m) @ t=0.98
3.635188666390871
% V (V) @ t=0.98
0.017930294126075903
% es.normE (V/m) @ t=1
3.8671195486709875
% es.EX (V/m) @ t=1
1.193637546619321
% es.EY (V/m) @ t=1
0.2891751363706636
% es.EZ (V/m) @ t=1
3.6668823881519534
% es.tEX (V/m) @ t=1
1.193637546619314
% es.tEY (V/m) @ t=1
0
% es.tEZ (V/m) @ t=1
3.666882388151965
% es.Ex (V/m) @ t=1
1.193637546619321
% es.Ey (V/m) @ t=1
0.2891751363706636
% es.Ez (V/m) @ t=1
3.6668823881519534
% es.tEx (V/m) @ t=1
1.193637546619314
% es.tEy (V/m) @ t=1
0
% es.tEz (V/m) @ t=1
3.666882388151965
% V (V) @ t=1
0.01808662103974483
% es.normE (V/m) @ t=1.02
3.9005439669959765
% es.EX (V/m) @ t=1.02
1.2039544349196694
% es.EY (V/m) @ t=1.02
0.2916745446215847
% es.EZ (V/m) @ t=1.02
3.6985761099130494
% es.tEX (V/m) @ t=1.02
1.2039544349196802
% es.tEY (V/m) @ t=1.02
0
% es.tEZ (V/m) @ t=1.02
3.698576109913052
% es.Ex (V/m) @ t=1.02
1.2039544349196694
% es.Ey (V/m) @ t=1.02
0.2916745446215847
% es.Ez (V/m) @ t=1.02
3.6985761099130494
% es.tEx (V/m) @ t=1.02
1.2039544349196802
% es.tEy (V/m) @ t=1.02
0
% es.tEz (V/m) @ t=1.02
3.698576109913052
% V (V) @ t=1.02
0.018242947953413753
% es.normE (V/m) @ t=1.04
3.9352662389417326
% es.EX (V/m) @ t=1.04
1.2146719225075329
% es.EY (V/m) @ t=1.04
0.29427100269003703
% es.EZ (V/m) @ t=1.04
3.7315004833987766
% es.tEX (V/m) @ t=1.04
1.2146719225075486
% es.tEY (V/m) @ t=1.04
0
% es.tEZ (V/m) @ t=1.04
3.731500483398772
% es.Ex (V/m) @ t=1.04
1.2146719225075329
% es.Ey (V/m) @ t=1.04
0.29427100269003703
% es.Ez (V/m) @ t=1.04
3.7315004833987766
% es.tEx (V/m) @ t=1.04
1.2146719225075486
% es.tEy (V/m) @ t=1.04
0
% es.tEz (V/m) @ t=1.04
3.731500483398772
% V (V) @ t=1.04