% Model:              1 neuron.mph
% Version:            COMSOL 6.1.0.252
% Date:               Mar 22 2023, 18:38
% Dimension:          0
% Nodes:              14017
% Expressions:        14017
% Description:        Electric field norm, Electric field, X component, Electric field, Y component, Electric field, Z component, Tangential electric field, X component, Tangential electric field, Y component, Tangential electric field, Z component, Electric field, x component, Electric field, y component, Electric field, z component, Tangential electric field, x component, Tangential electric field, y component, Tangential electric field, z component, Electric potential
% Length unit:        mm
% x
1
% y
12.2
% z
1
% es.normE (V/m) @ t=0
1.4511256624303512
% es.EX (V/m) @ t=0
0.9853332427212003
% es.EY (V/m) @ t=0
0.2798473747504797
% es.EZ (V/m) @ t=0
1.0011423864477198
% es.tEX (V/m) @ t=0
0.9853332427211967
% es.tEY (V/m) @ t=0
0
% es.tEZ (V/m) @ t=0
1.0011423864476967
% es.Ex (V/m) @ t=0
0.9853332427212003
% es.Ey (V/m) @ t=0
0.2798473747504797
% es.Ez (V/m) @ t=0
1.0011423864477198
% es.tEx (V/m) @ t=0
0.9853332427211967
% es.tEy (V/m) @ t=0
0
% es.tEz (V/m) @ t=0
1.0011423864476967
% V (V) @ t=0
0.013607611684498134
% es.normE (V/m) @ t=0.02
1.2533448248715962
% es.EX (V/m) @ t=0.02
0.8510374754528591
% es.EY (V/m) @ t=0.02
0.24170564183898513
% es.EZ (V/m) @ t=0.02
0.8646919156151691
% es.tEX (V/m) @ t=0.02
0.8510374754528414
% es.tEY (V/m) @ t=0.02
0
% es.tEZ (V/m) @ t=0.02
0.8646919156151469
% es.Ex (V/m) @ t=0.02
0.8510374754528591
% es.Ey (V/m) @ t=0.02
0.24170564183898513
% es.Ez (V/m) @ t=0.02
0.8646919156151691
% es.tEx (V/m) @ t=0.02
0.8510374754528414
% es.tEy (V/m) @ t=0.02
0
% es.tEz (V/m) @ t=0.02
0.8646919156151469
% V (V) @ t=0.02
0.011752965354178543
% es.normE (V/m) @ t=0.04
1.2648671579219763
% es.EX (V/m) @ t=0.04
0.8588612895554881
% es.EY (V/m) @ t=0.04
0.2439277070655539
% es.EZ (V/m) @ t=0.04
0.8726412586831973
% es.tEX (V/m) @ t=0.04
0.8588612895554775
% es.tEY (V/m) @ t=0.04
0
% es.tEZ (V/m) @ t=0.04
0.8726412586831884
% es.Ex (V/m) @ t=0.04
0.8588612895554881
% es.Ey (V/m) @ t=0.04
0.2439277070655539
% es.Ez (V/m) @ t=0.04
0.8726412586831973
% es.tEx (V/m) @ t=0.04
0.8588612895554775
% es.tEy (V/m) @ t=0.04
0
% es.tEz (V/m) @ t=0.04
0.8726412586831884
% V (V) @ t=0.04
0.011861013441828449
% es.normE (V/m) @ t=0.06
1.2764723713738573
% es.EX (V/m) @ t=0.06
0.8667413812077243
% es.EY (V/m) @ t=0.06
0.2461657534186461
% es.EZ (V/m) @ t=0.06
0.8806477820675811
% es.tEX (V/m) @ t=0.06
0.8667413812077314
% es.tEY (V/m) @ t=0.06
0
% es.tEZ (V/m) @ t=0.06
0.8806477820675696
% es.Ex (V/m) @ t=0.06
0.8667413812077243
% es.Ey (V/m) @ t=0.06
0.2461657534186461
% es.Ez (V/m) @ t=0.06
0.8806477820675811
% es.tEx (V/m) @ t=0.06
0.8667413812077314
% es.tEy (V/m) @ t=0.06
0
% es.tEz (V/m) @ t=0.06
0.8806477820675696
% V (V) @ t=0.06
0.011969838871862513
% es.normE (V/m) @ t=0.08
1.2883023934690727
% es.EX (V/m) @ t=0.08
0.8747741204990866
% es.EY (V/m) @ t=0.08
0.2484471549572902
% es.EZ (V/m) @ t=0.08
0.8888094023389126
% es.tEX (V/m) @ t=0.08
0.8747741204990689
% es.tEY (V/m) @ t=0.08
0
% es.tEZ (V/m) @ t=0.08
0.8888094023389073
% es.Ex (V/m) @ t=0.08
0.8747741204990866
% es.Ey (V/m) @ t=0.08
0.2484471549572902
% es.Ez (V/m) @ t=0.08
0.8888094023389126
% es.tEx (V/m) @ t=0.08
0.8747741204990689
% es.tEy (V/m) @ t=0.08
0
% es.tEz (V/m) @ t=0.08
0.8888094023389073
% V (V) @ t=0.08
0.012080772315790893
% es.normE (V/m) @ t=0.1
1.3001891978321787
% es.EX (V/m) @ t=0.1
0.8828454155994976
% es.EY (V/m) @ t=0.1
0.25073950716822324
% es.EZ (V/m) @ t=0.1
0.8970101970514772
% es.tEX (V/m) @ t=0.1
0.8828454155994621
% es.tEY (V/m) @ t=0.1
0
% es.tEZ (V/m) @ t=0.1
0.8970101970514648
% es.Ex (V/m) @ t=0.1
0.8828454155994976
% es.Ey (V/m) @ t=0.1
0.25073950716822324
% es.Ez (V/m) @ t=0.1
0.8970101970514772
% es.tEx (V/m) @ t=0.1
0.8828454155994621
% es.tEy (V/m) @ t=0.1
0
% es.tEz (V/m) @ t=0.1
0.8970101970514648
% V (V) @ t=0.1
0.012192238202813946
% es.normE (V/m) @ t=0.12
1.3120760021952873
% es.EX (V/m) @ t=0.12
0.8909167106999192
% es.EY (V/m) @ t=0.12
0.2530318593791421
% es.EZ (V/m) @ t=0.12
0.9052109917640401
% es.tEX (V/m) @ t=0.12
0.8909167106998979
% es.tEY (V/m) @ t=0.12
0
% es.tEZ (V/m) @ t=0.12
0.9052109917640223
% es.Ex (V/m) @ t=0.12
0.8909167106999192
% es.Ey (V/m) @ t=0.12
0.2530318593791421
% es.Ez (V/m) @ t=0.12
0.9052109917640401
% es.tEx (V/m) @ t=0.12
0.8909167106998979
% es.tEy (V/m) @ t=0.12
0
% es.tEz (V/m) @ t=0.12
0.9052109917640223
% V (V) @ t=0.12
0.012303704089836994
% es.normE (V/m) @ t=0.14
1.324320762996659
% es.EX (V/m) @ t=0.14
0.8992310628439384
% es.EY (V/m) @ t=0.14
0.25539324294319776
% es.EZ (V/m) @ t=0.14
0.9136587433266588
% es.tEX (V/m) @ t=0.14
0.8992310628439242
% es.tEY (V/m) @ t=0.14
0
% es.tEZ (V/m) @ t=0.14
0.9136587433266428
% es.Ex (V/m) @ t=0.14
0.8992310628439384
% es.Ey (V/m) @ t=0.14
0.25539324294319776
% es.Ez (V/m) @ t=0.14
0.9136587433266588
% es.tEx (V/m) @ t=0.14
0.8992310628439242
% es.tEy (V/m) @ t=0.14
0
% es.tEz (V/m) @ t=0.14
0.9136587433266428
% V (V) @ t=0.14
0.012418526632345207
% es.normE (V/m) @ t=0.16
1.3368012475817221
% es.EX (V/m) @ t=0.16
0.9077054744807
% es.EY (V/m) @ t=0.16
0.257800085479575
% es.EZ (V/m) @ t=0.16
0.9222691225078776
% es.tEX (V/m) @ t=0.16
0.9077054744806787
% es.tEY (V/m) @ t=0.16
0
% es.tEZ (V/m) @ t=0.16
0.9222691225078705
% es.Ex (V/m) @ t=0.16
0.9077054744807
% es.Ey (V/m) @ t=0.16
0.257800085479575
% es.Ez (V/m) @ t=0.16
0.9222691225078776
% es.tEx (V/m) @ t=0.16
0.9077054744806787
% es.tEy (V/m) @ t=0.16
0
% es.tEz (V/m) @ t=0.16
0.9222691225078705
% V (V) @ t=0.16
0.012535559621284671
% es.normE (V/m) @ t=0.18
1.349281732166722
% es.EX (V/m) @ t=0.18
0.9161798861174262
% es.EY (V/m) @ t=0.18
0.2602069280159558
% es.EZ (V/m) @ t=0.18
0.9308795016890379
% es.tEX (V/m) @ t=0.18
0.9161798861173907
% es.tEY (V/m) @ t=0.18
0
% es.tEZ (V/m) @ t=0.18
0.9308795016890201
% es.Ex (V/m) @ t=0.18
0.9161798861174262
% es.Ey (V/m) @ t=0.18
0.2602069280159558
% es.Ez (V/m) @ t=0.18
0.9308795016890379
% es.tEx (V/m) @ t=0.18
0.9161798861173907
% es.tEy (V/m) @ t=0.18
0
% es.tEz (V/m) @ t=0.18
0.9308795016890201
% V (V) @ t=0.18
0.012652592610224129
% es.normE (V/m) @ t=0.2
1.3617622167517582
% es.EX (V/m) @ t=0.2
0.9246542977541807
% es.EY (V/m) @ t=0.2
0.26261377055224777
% es.EZ (V/m) @ t=0.2
0.9394898808702479
% es.tEX (V/m) @ t=0.2
0.9246542977541878
% es.tEY (V/m) @ t=0.2
0
% es.tEZ (V/m) @ t=0.2
0.9394898808702266
% es.Ex (V/m) @ t=0.2
0.9246542977541807
% es.Ey (V/m) @ t=0.2
0.26261377055224777
% es.Ez (V/m) @ t=0.2
0.9394898808702479
% es.tEx (V/m) @ t=0.2
0.9246542977541878
% es.tEy (V/m) @ t=0.2
0
% es.tEz (V/m) @ t=0.2
0.9394898808702266
% V (V) @ t=0.2
0.012769625599163592
% es.normE (V/m) @ t=0.22
1.3742427013368015
% es.EX (V/m) @ t=0.22
0.9331287093909495
% es.EY (V/m) @ t=0.22
0.26502061308859837
% es.EZ (V/m) @ t=0.22
0.9481002600514437
% es.tEX (V/m) @ t=0.22
0.9331287093909424
% es.tEY (V/m) @ t=0.22
0
% es.tEZ (V/m) @ t=0.22
0.948100260051433
% es.Ex (V/m) @ t=0.22
0.9331287093909495
% es.Ey (V/m) @ t=0.22
0.26502061308859837
% es.Ez (V/m) @ t=0.22
0.9481002600514437
% es.tEx (V/m) @ t=0.22
0.9331287093909424
% es.tEy (V/m) @ t=0.22
0
% es.tEz (V/m) @ t=0.22
0.948100260051433
% V (V) @ t=0.22
0.012886658588103055
% es.normE (V/m) @ t=0.24
1.3867231859217806
% es.EX (V/m) @ t=0.24
0.9416031210276685
% es.EY (V/m) @ t=0.24
0.26742745562492765
% es.EZ (V/m) @ t=0.24
0.9567106392325986
% es.tEX (V/m) @ t=0.24
0.9416031210276543
% es.tEY (V/m) @ t=0.24
0
% es.tEZ (V/m) @ t=0.24
0.9567106392325826
% es.Ex (V/m) @ t=0.24
0.9416031210276685
% es.Ey (V/m) @ t=0.24
0.26742745562492765
% es.Ez (V/m) @ t=0.24
0.9567106392325986
% es.tEx (V/m) @ t=0.24
0.9416031210276543
% es.tEy (V/m) @ t=0.24
0
% es.tEz (V/m) @ t=0.24
0.9567106392325826
% V (V) @ t=0.24
0.013003691577042514
% es.normE (V/m) @ t=0.26
1.3994848435392249
% es.EX (V/m) @ t=0.26
0.9502684529447514
% es.EY (V/m) @ t=0.26
0.26988852157003684
% es.EZ (V/m) @ t=0.26
0.9655150018586216
% es.tEX (V/m) @ t=0.26
0.9502684529447407
% es.tEY (V/m) @ t=0.26
0
% es.tEZ (V/m) @ t=0.26
0.9655150018586056
% es.Ex (V/m) @ t=0.26
0.9502684529447514
% es.Ey (V/m) @ t=0.26
0.26988852157003684
% es.Ez (V/m) @ t=0.26
0.9655150018586216
% es.tEx (V/m) @ t=0.26
0.9502684529447407
% es.tEy (V/m) @ t=0.26
0
% es.tEz (V/m) @ t=0.26
0.9655150018586056
% V (V) @ t=0.26
0.013123361233140476
% es.normE (V/m) @ t=0.28
1.4132907985399545
% es.EX (V/m) @ t=0.28
0.9596428768662797
% es.EY (V/m) @ t=0.28
0.2725509772552357
% es.EZ (V/m) @ t=0.28
0.9750398333080312
% es.tEX (V/m) @ t=0.28
0.959642876866269
% es.tEY (V/m) @ t=0.28
0
% es.tEZ (V/m) @ t=0.28
0.9750398333080099
% es.Ex (V/m) @ t=0.28
0.9596428768662797
% es.Ey (V/m) @ t=0.28
0.2725509772552357
% es.Ez (V/m) @ t=0.28
0.9750398333080312
% es.tEx (V/m) @ t=0.28
0.959642876866269
% es.tEy (V/m) @ t=0.28
0
% es.tEz (V/m) @ t=0.28
0.9750398333080099
% V (V) @ t=0.28
0.013252823665561523
% es.normE (V/m) @ t=0.3
1.4270967535406736
% es.EX (V/m) @ t=0.3
0.9690173007878116
% es.EY (V/m) @ t=0.3
0.2752134329404665
% es.EZ (V/m) @ t=0.3
0.9845646647574284
% es.tEX (V/m) @ t=0.3
0.9690173007877974
% es.tEY (V/m) @ t=0.3
0
% es.tEZ (V/m) @ t=0.3
0.9845646647574142
% es.Ex (V/m) @ t=0.3
0.9690173007878116
% es.Ey (V/m) @ t=0.3
0.2752134329404665
% es.Ez (V/m) @ t=0.3
0.9845646647574284
% es.tEx (V/m) @ t=0.3
0.9690173007877974
% es.tEy (V/m) @ t=0.3
0
% es.tEz (V/m) @ t=0.3
0.9845646647574142
% V (V) @ t=0.3
0.013382286097982575
% es.normE (V/m) @ t=0.32
1.4409027085413886
% es.EX (V/m) @ t=0.32
0.9783917247093328
% es.EY (V/m) @ t=0.32
0.27787588862566537
% es.EZ (V/m) @ t=0.32
0.9940894962068327
% es.tEX (V/m) @ t=0.32
0.9783917247093257
% es.tEY (V/m) @ t=0.32
0
% es.tEZ (V/m) @ t=0.32
0.9940894962068043
% es.Ex (V/m) @ t=0.32
0.9783917247093328
% es.Ey (V/m) @ t=0.32
0.27787588862566537
% es.Ez (V/m) @ t=0.32
0.9940894962068327
% es.tEx (V/m) @ t=0.32
0.9783917247093257
% es.tEy (V/m) @ t=0.32
0
% es.tEz (V/m) @ t=0.32
0.9940894962068043
% V (V) @ t=0.32
0.013511748530403624
% es.normE (V/m) @ t=0.34
1.454708663542128
% es.EX (V/m) @ t=0.34
0.9877661486309144
% es.EY (V/m) @ t=0.34
0.28053834431079494
% es.EZ (V/m) @ t=0.34
1.003614327656246
% es.tEX (V/m) @ t=0.34
0.9877661486308966
% es.tEY (V/m) @ t=0.34
0
% es.tEZ (V/m) @ t=0.34
1.0036143276562228
% es.Ex (V/m) @ t=0.34
0.9877661486309144
% es.Ey (V/m) @ t=0.34
0.28053834431079494
% es.Ez (V/m) @ t=0.34
1.003614327656246
% es.tEx (V/m) @ t=0.34
0.9877661486308966
% es.tEy (V/m) @ t=0.34
0
% es.tEz (V/m) @ t=0.34
1.0036143276562228
% V (V) @ t=0.34
0.013641210962824672
% es.normE (V/m) @ t=0.36
1.4685146185428706
% es.EX (V/m) @ t=0.36
0.9971405725524463
% es.EY (V/m) @ t=0.36
0.28320079999608794
% es.EZ (V/m) @ t=0.36
1.0131391591056502
% es.tEX (V/m) @ t=0.36
0.9971405725524249
% es.tEY (V/m) @ t=0.36
0
% es.tEZ (V/m) @ t=0.36
1.0131391591056413
% es.Ex (V/m) @ t=0.36
0.9971405725524463
% es.Ey (V/m) @ t=0.36
0.28320079999608794
% es.Ez (V/m) @ t=0.36
1.0131391591056502
% es.tEx (V/m) @ t=0.36
0.9971405725524249
% es.tEy (V/m) @ t=0.36
0
% es.tEz (V/m) @ t=0.36
1.0131391591056413
% V (V) @ t=0.36
0.01377067339524572
% es.normE (V/m) @ t=0.38
1.4823205735435903
% es.EX (V/m) @ t=0.38
1.0065149964739781
% es.EY (V/m) @ t=0.38
0.2858632556812353
% es.EZ (V/m) @ t=0.38
1.0226639905550652
% es.tEX (V/m) @ t=0.38
1.0065149964739533
% es.tEY (V/m) @ t=0.38
0
% es.tEZ (V/m) @ t=0.38
1.0226639905550456
% es.Ex (V/m) @ t=0.38
1.0065149964739781
% es.Ey (V/m) @ t=0.38
0.2858632556812353
% es.Ez (V/m) @ t=0.38
1.0226639905550652
% es.tEx (V/m) @ t=0.38
1.0065149964739533
% es.tEy (V/m) @ t=0.38
0
% es.tEz (V/m) @ t=0.38
1.0226639905550456
% V (V) @ t=0.38
0.013900135827666771
% es.normE (V/m) @ t=0.4
1.4961265285443064
% es.EX (V/m) @ t=0.4
1.0158894203955207
% es.EY (V/m) @ t=0.4
0.28852571136641103
% es.EZ (V/m) @ t=0.4
1.0321888220044677
% es.tEX (V/m) @ t=0.4
1.01588942039551
% es.tEY (V/m) @ t=0.4
0
% es.tEZ (V/m) @ t=0.4
1.03218882200445
% es.Ex (V/m) @ t=0.4
1.0158894203955207
% es.Ey (V/m) @ t=0.4
0.28852571136641103
% es.Ez (V/m) @ t=0.4
1.0321888220044677
% es.tEx (V/m) @ t=0.4
1.01588942039551
% es.tEy (V/m) @ t=0.4
0
% es.tEz (V/m) @ t=0.4
1.03218882200445
% V (V) @ t=0.4
0.01402959826008782
% es.normE (V/m) @ t=0.42
1.5099324835450245
% es.EX (V/m) @ t=0.42
1.0252638443170383
% es.EY (V/m) @ t=0.42
0.29118816705161876
% es.EZ (V/m) @ t=0.42
1.0417136534538738
% es.tEX (V/m) @ t=0.42
1.0252638443170383
% es.tEY (V/m) @ t=0.42
0
% es.tEZ (V/m) @ t=0.42
1.0417136534538614
% es.Ex (V/m) @ t=0.42
1.0252638443170383
% es.Ey (V/m) @ t=0.42
0.29118816705161876
% es.Ez (V/m) @ t=0.42
1.0417136534538738
% es.tEx (V/m) @ t=0.42
1.0252638443170383
% es.tEy (V/m) @ t=0.42
0
% es.tEz (V/m) @ t=0.42
1.0417136534538614
% V (V) @ t=0.42
0.01415906069250887
% es.normE (V/m) @ t=0.44
1.5237384385457653
% es.EX (V/m) @ t=0.44
1.0346382682385808
% es.EY (V/m) @ t=0.44
0.29385062273685136
% es.EZ (V/m) @ t=0.44
1.0512384849032852
% es.tEX (V/m) @ t=0.44
1.0346382682385524
% es.tEY (V/m) @ t=0.44
0
% es.tEZ (V/m) @ t=0.44
1.0512384849032657
% es.Ex (V/m) @ t=0.44
1.0346382682385808
% es.Ey (V/m) @ t=0.44
0.29385062273685136
% es.Ez (V/m) @ t=0.44
1.0512384849032852
% es.tEx (V/m) @ t=0.44
1.0346382682385524
% es.tEy (V/m) @ t=0.44
0
% es.tEz (V/m) @ t=0.44
1.0512384849032657
% V (V) @ t=0.44
0.014288523124929921
% es.normE (V/m) @ t=0.46
1.5375443935464577
% es.EX (V/m) @ t=0.46
1.0440126921600914
% es.EY (V/m) @ t=0.46
0.29651307842202357
% es.EZ (V/m) @ t=0.46
1.0607633163526788
% es.tEX (V/m) @ t=0.46
1.0440126921600807
% es.tEY (V/m) @ t=0.46
0
% es.tEZ (V/m) @ t=0.46
1.06076331635267
% es.Ex (V/m) @ t=0.46
1.0440126921600914
% es.Ey (V/m) @ t=0.46
0.29651307842202357
% es.Ez (V/m) @ t=0.46
1.0607633163526788
% es.tEx (V/m) @ t=0.46
1.0440126921600807
% es.tEy (V/m) @ t=0.46
0
% es.tEz (V/m) @ t=0.46
1.06076331635267
% V (V) @ t=0.46
0.014417985557350969
% es.normE (V/m) @ t=0.48
1.551350348547204
% es.EX (V/m) @ t=0.48
1.0533871160816624
% es.EY (V/m) @ t=0.48
0.29917553410718867
% es.EZ (V/m) @ t=0.48
1.0702881478020938
% es.tEX (V/m) @ t=0.48
1.0533871160816517
% es.tEY (V/m) @ t=0.48
0
% es.tEZ (V/m) @ t=0.48
1.0702881478020814
% es.Ex (V/m) @ t=0.48
1.0533871160816624
% es.Ey (V/m) @ t=0.48
0.29917553410718867
% es.Ez (V/m) @ t=0.48
1.0702881478020938
% es.tEx (V/m) @ t=0.48
1.0533871160816517
% es.tEy (V/m) @ t=0.48
0
% es.tEz (V/m) @ t=0.48
1.0702881478020814
% V (V) @ t=0.48
0.01454744798977202
% es.normE (V/m) @ t=0.5
1.5651563035478913
% es.EX (V/m) @ t=0.5
1.0627615400031303
% es.EY (V/m) @ t=0.5
0.30183798979244614
% es.EZ (V/m) @ t=0.5
1.0798129792514946
% es.tEX (V/m) @ t=0.5
1.0627615400031516
% es.tEY (V/m) @ t=0.5
0
% es.tEZ (V/m) @ t=0.5
1.0798129792514786
% es.Ex (V/m) @ t=0.5
1.0627615400031303
% es.Ey (V/m) @ t=0.5
0.30183798979244614
% es.Ez (V/m) @ t=0.5
1.0798129792514946
% es.tEx (V/m) @ t=0.5
1.0627615400031516
% es.tEy (V/m) @ t=0.5
0
% es.tEz (V/m) @ t=0.5
1.0798129792514786
% V (V) @ t=0.5
0.014676910422193067
% es.normE (V/m) @ t=0.52
1.579603666441248
% es.EX (V/m) @ t=0.52
1.0725714880600599
% es.EY (V/m) @ t=0.52
0.3046241406699792
% es.EZ (V/m) @ t=0.52
1.0897803226131888
% es.tEX (V/m) @ t=0.52
1.0725714880600776
% es.tEY (V/m) @ t=0.52
0
% es.tEZ (V/m) @ t=0.52
1.0897803226131728
% es.Ex (V/m) @ t=0.52
1.0725714880600599
% es.Ey (V/m) @ t=0.52
0.3046241406699792
% es.Ez (V/m) @ t=0.52
1.0897803226131888
% es.tEx (V/m) @ t=0.52
1.0725714880600776
% es.tEy (V/m) @ t=0.52
0
% es.tEz (V/m) @ t=0.52
1.0897803226131728
% V (V) @ t=0.52
0.014812387467772668
% es.normE (V/m) @ t=0.54
1.594899526497223
% es.EX (V/m) @ t=0.54
1.0829575765065336
% es.EY (V/m) @ t=0.54
0.30757392380242266
% es.EZ (V/m) @ t=0.54
1.100333050262039
% es.tEX (V/m) @ t=0.54
1.0829575765065158
% es.tEY (V/m) @ t=0.54
0
% es.tEZ (V/m) @ t=0.54
1.10033305026203
% es.Ex (V/m) @ t=0.54
1.0829575765065336
% es.Ey (V/m) @ t=0.54
0.30757392380242266
% es.Ez (V/m) @ t=0.54
1.100333050262039
% es.tEx (V/m) @ t=0.54
1.0829575765065158
% es.tEy (V/m) @ t=0.54
0
% es.tEz (V/m) @ t=0.54
1.10033305026203
% V (V) @ t=0.54
0.014955821045004047
% es.normE (V/m) @ t=0.56
1.6101953865532277
% es.EX (V/m) @ t=0.56
1.093343664953018
% es.EY (V/m) @ t=0.56
0.31052370693481635
% es.EZ (V/m) @ t=0.56
1.110885777910923
% es.tEX (V/m) @ t=0.56
1.0933436649530108
% es.tEY (V/m) @ t=0.56
0
% es.tEZ (V/m) @ t=0.56
1.1108857779109087
% es.Ex (V/m) @ t=0.56
1.093343664953018
% es.Ey (V/m) @ t=0.56
0.31052370693481635
% es.Ez (V/m) @ t=0.56
1.110885777910923
% es.tEx (V/m) @ t=0.56
1.0933436649530108
% es.tEy (V/m) @ t=0.56
0
% es.tEz (V/m) @ t=0.56
1.1108857779109087
% V (V) @ t=0.56
0.015099254622235428
% es.normE (V/m) @ t=0.58
1.625491246609184
% es.EX (V/m) @ t=0.58
1.1037297533994561
% es.EY (V/m) @ t=0.58
0.3134734900672562
% es.EZ (V/m) @ t=0.58
1.1214385055597784
% es.tEX (V/m) @ t=0.58
1.1037297533994206
% es.tEY (V/m) @ t=0.58
0
% es.tEZ (V/m) @ t=0.58
1.121438505559766
% es.Ex (V/m) @ t=0.58
1.1037297533994561
% es.Ey (V/m) @ t=0.58
0.3134734900672562
% es.Ez (V/m) @ t=0.58
1.1214385055597784
% es.tEx (V/m) @ t=0.58
1.1037297533994206
% es.tEy (V/m) @ t=0.58
0
% es.tEz (V/m) @ t=0.58
1.121438505559766
% V (V) @ t=0.58
0.015242688199466803
% es.normE (V/m) @ t=0.6
1.6407871066651785
% es.EX (V/m) @ t=0.6
1.1141158418459511
% es.EY (V/m) @ t=0.6
0.31642327319967833
% es.EZ (V/m) @ t=0.6
1.131991233208625
% es.tEX (V/m) @ t=0.6
1.1141158418459156
% es.tEY (V/m) @ t=0.6
0
% es.tEZ (V/m) @ t=0.6
1.131991233208602
% es.Ex (V/m) @ t=0.6
1.1141158418459511
% es.Ey (V/m) @ t=0.6
0.31642327319967833
% es.Ez (V/m) @ t=0.6
1.131991233208625
% es.tEx (V/m) @ t=0.6
1.1141158418459156
% es.tEy (V/m) @ t=0.6
0
% es.tEz (V/m) @ t=0.6
1.131991233208602
% V (V) @ t=0.6
0.015386121776698184
% es.normE (V/m) @ t=0.62
1.6560829667211239
% es.EX (V/m) @ t=0.62
1.1245019302923964
% es.EY (V/m) @ t=0.62
0.3193730563320578
% es.EZ (V/m) @ t=0.62
1.1425439608574877
% es.tEX (V/m) @ t=0.62
1.1245019302923822
% es.tEY (V/m) @ t=0.62
0
% es.tEZ (V/m) @ t=0.62
1.1425439608574735
% es.Ex (V/m) @ t=0.62
1.1245019302923964
% es.Ey (V/m) @ t=0.62
0.3193730563320578
% es.Ez (V/m) @ t=0.62
1.1425439608574877
% es.tEx (V/m) @ t=0.62
1.1245019302923822
% es.tEy (V/m) @ t=0.62
0
% es.tEz (V/m) @ t=0.62
1.1425439608574735
% V (V) @ t=0.62
0.015529555353929563
% es.normE (V/m) @ t=0.64
1.6713788267770955
% es.EX (V/m) @ t=0.64
1.1348880187388701
% es.EY (V/m) @ t=0.64
0.3223228394644124
% es.EZ (V/m) @ t=0.64
1.153096688506352
% es.tEX (V/m) @ t=0.64
1.1348880187388488
% es.tEY (V/m) @ t=0.64
0
% es.tEZ (V/m) @ t=0.64
1.1530966885063307
% es.Ex (V/m) @ t=0.64
1.1348880187388701
% es.Ey (V/m) @ t=0.64
0.3223228394644124
% es.Ez (V/m) @ t=0.64
1.153096688506352
% es.tEx (V/m) @ t=0.64
1.1348880187388488
% es.tEy (V/m) @ t=0.64
0
% es.tEz (V/m) @ t=0.64
1.1530966885063307
% V (V) @ t=0.64
0.015672988931160942
% es.normE (V/m) @ t=0.66
1.6866746868330607
% es.EX (V/m) @ t=0.66
1.1452741071853367
% es.EY (V/m) @ t=0.66
0.3252726225968807
% es.EZ (V/m) @ t=0.66
1.1636494161551791
% es.tEX (V/m) @ t=0.66
1.1452741071853438
% es.tEY (V/m) @ t=0.66
0
% es.tEZ (V/m) @ t=0.66
1.1636494161551667
% es.Ex (V/m) @ t=0.66
1.1452741071853367
% es.Ey (V/m) @ t=0.66
0.3252726225968807
% es.Ez (V/m) @ t=0.66
1.1636494161551791
% es.tEx (V/m) @ t=0.66
1.1452741071853438
% es.tEy (V/m) @ t=0.66
0
% es.tEz (V/m) @ t=0.66
1.1636494161551667
% V (V) @ t=0.66
0.01581642250839232
% es.normE (V/m) @ t=0.68
1.7019705468890285
% es.EX (V/m) @ t=0.68
1.1556601956317607
% es.EY (V/m) @ t=0.68
0.3282224057292744
% es.EZ (V/m) @ t=0.68
1.1742021438040702
% es.tEX (V/m) @ t=0.68
1.1556601956317536
% es.tEY (V/m) @ t=0.68
0
% es.tEZ (V/m) @ t=0.68
1.1742021438040666
% es.Ex (V/m) @ t=0.68
1.1556601956317607
% es.Ey (V/m) @ t=0.68
0.3282224057292744
% es.Ez (V/m) @ t=0.68
1.1742021438040702
% es.tEx (V/m) @ t=0.68
1.1556601956317536
% es.tEy (V/m) @ t=0.68
0
% es.tEz (V/m) @ t=0.68
1.1742021438040666
% V (V) @ t=0.68
0.015959856085623704
% es.normE (V/m) @ t=0.7
1.7172664069449999
% es.EX (V/m) @ t=0.7
1.1660462840782415
% es.EY (V/m) @ t=0.7
0.3311721888616965
% es.EZ (V/m) @ t=0.7
1.1847548714529204
% es.tEX (V/m) @ t=0.7
1.1660462840782202
% es.tEY (V/m) @ t=0.7
0
% es.tEZ (V/m) @ t=0.7
1.1847548714529026
% es.Ex (V/m) @ t=0.7
1.1660462840782415
% es.Ey (V/m) @ t=0.7
0.3311721888616965
% es.Ez (V/m) @ t=0.7
1.1847548714529204
% es.tEx (V/m) @ t=0.7
1.1660462840782202
% es.tEy (V/m) @ t=0.7
0
% es.tEz (V/m) @ t=0.7
1.1847548714529026
% V (V) @ t=0.7
0.016103289662855083
% es.normE (V/m) @ t=0.72
1.7325622670009795
% es.EX (V/m) @ t=0.72
1.1764323725247081
% es.EY (V/m) @ t=0.72
0.334121971994108
% es.EZ (V/m) @ t=0.72
1.1953075991017865
% es.tEX (V/m) @ t=0.72
1.1764323725246868
% es.tEY (V/m) @ t=0.72
0
% es.tEZ (V/m) @ t=0.72
1.195307599101774
% es.Ex (V/m) @ t=0.72
1.1764323725247081
% es.Ey (V/m) @ t=0.72
0.334121971994108
% es.Ez (V/m) @ t=0.72
1.1953075991017865
% es.tEx (V/m) @ t=0.72
1.1764323725246868
% es.tEy (V/m) @ t=0.72
0
% es.tEz (V/m) @ t=0.72
1.195307599101774
% V (V) @ t=0.72
0.01624672324008646
% es.normE (V/m) @ t=0.74
1.7478581270569415
% es.EX (V/m) @ t=0.74
1.1868184609711463
% es.EY (V/m) @ t=0.74
0.3370717551265088
% es.EZ (V/m) @ t=0.74
1.205860326750651
% es.tEX (V/m) @ t=0.74
1.186818460971125
% es.tEY (V/m) @ t=0.74
0
% es.tEZ (V/m) @ t=0.74
1.2058603267506314
% es.Ex (V/m) @ t=0.74
1.1868184609711463
% es.Ey (V/m) @ t=0.74
0.3370717551265088
% es.Ez (V/m) @ t=0.74
1.205860326750651
% es.tEx (V/m) @ t=0.74
1.186818460971125
% es.tEy (V/m) @ t=0.74
0
% es.tEz (V/m) @ t=0.74
1.2058603267506314
% V (V) @ t=0.74
0.016390156817317838
% es.normE (V/m) @ t=0.76
1.7631539871128803
% es.EX (V/m) @ t=0.76
1.1972045494175632
% es.EY (V/m) @ t=0.76
0.34002153825899484
% es.EZ (V/m) @ t=0.76
1.2164130543994887
% es.tEX (V/m) @ t=0.76
1.1972045494175632
% es.tEY (V/m) @ t=0.76
0
% es.tEZ (V/m) @ t=0.76
1.2164130543994816
% es.Ex (V/m) @ t=0.76
1.1972045494175632
% es.Ey (V/m) @ t=0.76
0.34002153825899484
% es.Ez (V/m) @ t=0.76
1.2164130543994887
% es.tEx (V/m) @ t=0.76
1.1972045494175632
% es.tEy (V/m) @ t=0.76
0
% es.tEz (V/m) @ t=0.76
1.2164130543994816
% V (V) @ t=0.76
0.016533590394549214
% es.normE (V/m) @ t=0.78
1.7795384747484522
% es.EX (V/m) @ t=0.78
1.2083298301762184
% es.EY (V/m) @ t=0.78
0.3431812615951806
% es.EZ (V/m) @ t=0.78
1.2277168343010274
% es.tEX (V/m) @ t=0.78
1.2083298301762113
% es.tEY (V/m) @ t=0.78
0
% es.tEZ (V/m) @ t=0.78
1.2277168343010132
% es.Ex (V/m) @ t=0.78
1.2083298301762184
% es.Ey (V/m) @ t=0.78
0.3431812615951806
% es.Ez (V/m) @ t=0.78
1.2277168343010274
% es.tEx (V/m) @ t=0.78
1.2083298301762113
% es.tEy (V/m) @ t=0.78
0
% es.tEz (V/m) @ t=0.78
1.2277168343010132
% V (V) @ t=0.78
0.01668723233515327
% es.normE (V/m) @ t=0.8
1.7965120519964808
% es.EX (V/m) @ t=0.8
1.2198551104578783
% es.EY (V/m) @ t=0.8
0.3464545899839244
% es.EZ (V/m) @ t=0.8
1.2394270315015863
% es.tEX (V/m) @ t=0.8
1.2198551104578428
% es.tEY (V/m) @ t=0.8
0
% es.tEZ (V/m) @ t=0.8
1.2394270315015632
% es.Ex (V/m) @ t=0.8
1.2198551104578783
% es.Ey (V/m) @ t=0.8
0.3464545899839244
% es.Ez (V/m) @ t=0.8
1.2394270315015863
% es.tEx (V/m) @ t=0.8
1.2198551104578428
% es.tEy (V/m) @ t=0.8
0
% es.tEz (V/m) @ t=0.8
1.2394270315015632
% V (V) @ t=0.8
0.016846398332777183
% es.normE (V/m) @ t=0.82
1.8134856292444383
% es.EX (V/m) @ t=0.82
1.2313803907395098
% es.EY (V/m) @ t=0.82
0.34972791837272155
% es.EZ (V/m) @ t=0.82
1.2511372287020688
% es.tEX (V/m) @ t=0.82
1.2313803907395027
% es.tEY (V/m) @ t=0.82
0
% es.tEZ (V/m) @ t=0.82
1.2511372287020563
% es.Ex (V/m) @ t=0.82
1.2313803907395098
% es.Ey (V/m) @ t=0.82
0.34972791837272155
% es.Ez (V/m) @ t=0.82
1.2511372287020688
% es.tEx (V/m) @ t=0.82
1.2313803907395027
% es.tEy (V/m) @ t=0.82
0
% es.tEz (V/m) @ t=0.82
1.2511372287020563
% V (V) @ t=0.82
0.01700556433040109
% es.normE (V/m) @ t=0.84
1.830459206492475
% es.EX (V/m) @ t=0.84
1.2429056710212407
% es.EY (V/m) @ t=0.84
0.3530012467614476
% es.EZ (V/m) @ t=0.84
1.2628474259025726
% es.tEX (V/m) @ t=0.84
1.2429056710212194
% es.tEY (V/m) @ t=0.84
0
% es.tEZ (V/m) @ t=0.84
1.2628474259025637
% es.Ex (V/m) @ t=0.84
1.2429056710212407
% es.Ey (V/m) @ t=0.84
0.3530012467614476
% es.Ez (V/m) @ t=0.84
1.2628474259025726
% es.tEx (V/m) @ t=0.84
1.2429056710212194
% es.tEy (V/m) @ t=0.84
0
% es.tEz (V/m) @ t=0.84
1.2628474259025637
% V (V) @ t=0.84
0.017164730328025003
% es.normE (V/m) @ t=0.86
1.8474327837404632
% es.EX (V/m) @ t=0.86
1.2544309513028722
% es.EY (V/m) @ t=0.86
0.35627457515025895
% es.EZ (V/m) @ t=0.86
1.2745576231030977
% es.tEX (V/m) @ t=0.86
1.2544309513028509
% es.tEY (V/m) @ t=0.86
0
% es.tEZ (V/m) @ t=0.86
1.2745576231030782
% es.Ex (V/m) @ t=0.86
1.2544309513028722
% es.Ey (V/m) @ t=0.86
0.35627457515025895
% es.Ez (V/m) @ t=0.86
1.2745576231030977
% es.tEx (V/m) @ t=0.86
1.2544309513028509
% es.tEy (V/m) @ t=0.86
0
% es.tEz (V/m) @ t=0.86
1.2745576231030782
% V (V) @ t=0.86
0.017323896325648912
% es.normE (V/m) @ t=0.88
1.8644063609884316
% es.EX (V/m) @ t=0.88
1.265956231584532
% es.EY (V/m) @ t=0.88
0.3595479035390312
% es.EZ (V/m) @ t=0.88
1.2862678203035713
% es.tEX (V/m) @ t=0.88
1.2659562315845392
% es.tEY (V/m) @ t=0.88
0
% es.tEZ (V/m) @ t=0.88
1.28626782030355
% es.Ex (V/m) @ t=0.88
1.265956231584532
% es.Ey (V/m) @ t=0.88
0.3595479035390312
% es.Ez (V/m) @ t=0.88
1.2862678203035713
% es.tEx (V/m) @ t=0.88
1.2659562315845392
% es.tEy (V/m) @ t=0.88
0
% es.tEz (V/m) @ t=0.88
1.28626782030355
% V (V) @ t=0.88
0.01748306232327282
% es.normE (V/m) @ t=0.9
1.8813799382364178
% es.EX (V/m) @ t=0.9
1.2774815118661849
% es.EY (V/m) @ t=0.9
0.36282123192777505
% es.EZ (V/m) @ t=0.9
1.2979780175040894
% es.tEX (V/m) @ t=0.9
1.2774815118661706
% es.tEY (V/m) @ t=0.9
0
% es.tEZ (V/m) @ t=0.9
1.297978017504093
% es.Ex (V/m) @ t=0.9
1.2774815118661849
% es.Ey (V/m) @ t=0.9
0.36282123192777505
% es.Ez (V/m) @ t=0.9
1.2979780175040894
% es.tEx (V/m) @ t=0.9
1.2774815118661706
% es.tEy (V/m) @ t=0.9
0
% es.tEz (V/m) @ t=0.9
1.297978017504093
% V (V) @ t=0.9
0.017642228320896732
% es.normE (V/m) @ t=0.92
1.8983535154843882
% es.EX (V/m) @ t=0.92
1.2890067921478305
% es.EY (V/m) @ t=0.92
0.3660945603165402
% es.EZ (V/m) @ t=0.92
1.309688214704579
% es.tEX (V/m) @ t=0.92
1.2890067921478305
% es.tEY (V/m) @ t=0.92
0
% es.tEZ (V/m) @ t=0.92
1.3096882147045505
% es.Ex (V/m) @ t=0.92
1.2890067921478305
% es.Ey (V/m) @ t=0.92
0.3660945603165402
% es.Ez (V/m) @ t=0.92
1.309688214704579
% es.tEx (V/m) @ t=0.92
1.2890067921478305
% es.tEy (V/m) @ t=0.92
0
% es.tEz (V/m) @ t=0.92
1.3096882147045505
% V (V) @ t=0.92
0.017801394318520642
% es.normE (V/m) @ t=0.94
1.9153270927323978
% es.EX (V/m) @ t=0.94
1.3005320724294975
% es.EY (V/m) @ t=0.94
0.3693678887053018
% es.EZ (V/m) @ t=0.94
1.3213984119051183
% es.tEX (V/m) @ t=0.94
1.3005320724295188
% es.tEY (V/m) @ t=0.94
0
% es.tEZ (V/m) @ t=0.94
1.3213984119051219
% es.Ex (V/m) @ t=0.94
1.3005320724294975
% es.Ey (V/m) @ t=0.94
0.3693678887053018
% es.Ez (V/m) @ t=0.94
1.3213984119051183
% es.tEx (V/m) @ t=0.94
1.3005320724295188
% es.tEy (V/m) @ t=0.94
0
% es.tEz (V/m) @ t=0.94
1.3213984119051219
% V (V) @ t=0.94
0.017960560316144552
% es.normE (V/m) @ t=0.96
1.9323006699804228
% es.EX (V/m) @ t=0.96
1.3120573527111858
% es.EY (V/m) @ t=0.96
0.37264121709402787
% es.EZ (V/m) @ t=0.96
1.3331086091056576
% es.tEX (V/m) @ t=0.96
1.3120573527111787
% es.tEY (V/m) @ t=0.96
0
% es.tEZ (V/m) @ t=0.96
1.3331086091056363
% es.Ex (V/m) @ t=0.96
1.3120573527111858
% es.Ey (V/m) @ t=0.96
0.37264121709402787
% es.Ez (V/m) @ t=0.96
1.3331086091056576
% es.tEx (V/m) @ t=0.96
1.3120573527111787
% es.tEy (V/m) @ t=0.96
0
% es.tEz (V/m) @ t=0.96
1.3331086091056363
% V (V) @ t=0.96
0.018119726313768462
% es.normE (V/m) @ t=0.98
1.9492742472283693
% es.EX (V/m) @ t=0.98
1.3235826329928102
% es.EY (V/m) @ t=0.98
0.37591454548282854
% es.EZ (V/m) @ t=0.98
1.3448188063061188
% es.tEX (V/m) @ t=0.98
1.3235826329927818
% es.tEY (V/m) @ t=0.98
0
% es.tEZ (V/m) @ t=0.98
1.344818806306094
% es.Ex (V/m) @ t=0.98
1.3235826329928102
% es.Ey (V/m) @ t=0.98
0.37591454548282854
% es.Ez (V/m) @ t=0.98
1.3448188063061188
% es.tEx (V/m) @ t=0.98
1.3235826329927818
% es.tEy (V/m) @ t=0.98
0
% es.tEz (V/m) @ t=0.98
1.344818806306094
% V (V) @ t=0.98
0.018278892311392375
% es.normE (V/m) @ t=1
1.966247824476398
% es.EX (V/m) @ t=1
1.335107913274534
% es.EY (V/m) @ t=1
0.37918787387155817
% es.EZ (V/m) @ t=1
1.3565290035066315
% es.tEX (V/m) @ t=1
1.3351079132744985
% es.tEY (V/m) @ t=1
0
% es.tEZ (V/m) @ t=1
1.3565290035066084
% es.Ex (V/m) @ t=1
1.335107913274534
% es.Ey (V/m) @ t=1
0.37918787387155817
% es.Ez (V/m) @ t=1
1.3565290035066315
% es.tEx (V/m) @ t=1
1.3351079132744985
% es.tEy (V/m) @ t=1
0
% es.tEz (V/m) @ t=1
1.3565290035066084
% V (V) @ t=1
0.01843805830901628
% es.normE (V/m) @ t=1.02
1.9832214017243617
% es.EX (V/m) @ t=1.02
1.3466331935561655
% es.EY (V/m) @ t=1.02
0.38246120226034463
% es.EZ (V/m) @ t=1.02
1.3682392007071353
% es.tEX (V/m) @ t=1.02
1.34663319355613
% es.tEY (V/m) @ t=1.02
0
% es.tEZ (V/m) @ t=1.02
1.368239200707123
% es.Ex (V/m) @ t=1.02
1.3466331935561655
% es.Ey (V/m) @ t=1.02
0.38246120226034463
% es.Ez (V/m) @ t=1.02
1.3682392007071353
% es.tEx (V/m) @ t=1.02
1.34663319355613
% es.tEy (V/m) @ t=1.02
0
% es.tEz (V/m) @ t=1.02
1.368239200707123
% V (V) @ t=1.02
0.018597224306640195
% es.normE (V/m) @ t=1.04
2.000910515076869
% es.EX (V/m) @ t=1.04
1.3586443320788248
% es.EY (V/m) @ t=1.04
0.3858725210594116
% es.EZ (V/m) @ t=1.04
1.3804430514980126
% es.tEX (V/m) @ t=1.04
1.358644332078768
% es.tEY (V/m) @ t=1.04
0
% es.tEZ (V/m) @ t=1.04
1.3804430514980055
% es.Ex (V/m) @ t=1.04
1.3586443320788248
% es.Ey (V/m) @ t=1.04
0.3858725210594116
% es.Ez (V/m) @ t=1.04
1.3804430514980126
% es.tEx (V/m) @ t=1.04
1.358644332078768