% Model:              1 neuron.mph
% Version:            COMSOL 6.1.0.252
% Date:               Mar 22 2023, 18:36
% Dimension:          0
% Nodes:              14017
% Expressions:        14017
% Description:        Electric field norm, Electric field, X component, Electric field, Y component, Electric field, Z component, Tangential electric field, X component, Tangential electric field, Y component, Tangential electric field, Z component, Electric field, x component, Electric field, y component, Electric field, z component, Tangential electric field, x component, Tangential electric field, y component, Tangential electric field, z component, Electric potential
% Length unit:        mm
% x
1.66
% y
12.2
% z
1
% es.normE (V/m) @ t=0
2.747671331319406
% es.EX (V/m) @ t=0
-0.9793723214912369
% es.EY (V/m) @ t=0
0.3111423097637174
% es.EZ (V/m) @ t=0
2.540384703704861
% es.tEX (V/m) @ t=0
-0.9793723214912511
% es.tEY (V/m) @ t=0
0
% es.tEZ (V/m) @ t=0
2.5403847037048575
% es.Ex (V/m) @ t=0
-0.9793723214912369
% es.Ey (V/m) @ t=0
0.3111423097637174
% es.Ez (V/m) @ t=0
2.540384703704861
% es.tEx (V/m) @ t=0
-0.9793723214912511
% es.tEy (V/m) @ t=0
0
% es.tEz (V/m) @ t=0
2.5403847037048575
% V (V) @ t=0
0.013377839438406204
% es.normE (V/m) @ t=0.02
2.3731789345786476
% es.EX (V/m) @ t=0.02
-0.8458892939420835
% es.EY (V/m) @ t=0.02
0.26873533481361944
% es.EZ (V/m) @ t=0.02
2.1941443271815473
% es.tEX (V/m) @ t=0.02
-0.8458892939421012
% es.tEY (V/m) @ t=0.02
0
% es.tEZ (V/m) @ t=0.02
2.19414432718154
% es.Ex (V/m) @ t=0.02
-0.8458892939420835
% es.Ey (V/m) @ t=0.02
0.26873533481361944
% es.Ez (V/m) @ t=0.02
2.1941443271815473
% es.tEx (V/m) @ t=0.02
-0.8458892939421012
% es.tEy (V/m) @ t=0.02
0
% es.tEz (V/m) @ t=0.02
2.19414432718154
% V (V) @ t=0.02
0.011554513955983245
% es.normE (V/m) @ t=0.04
2.394996915959929
% es.EX (V/m) @ t=0.04
-0.8536660349610973
% es.EY (V/m) @ t=0.04
0.27120597140438685
% es.EZ (V/m) @ t=0.04
2.2143163415780807
% es.tEX (V/m) @ t=0.04
-0.8536660349611079
% es.tEY (V/m) @ t=0.04
0
% es.tEZ (V/m) @ t=0.04
2.2143163415780815
% es.Ex (V/m) @ t=0.04
-0.8536660349610973
% es.Ey (V/m) @ t=0.04
0.27120597140438685
% es.Ez (V/m) @ t=0.04
2.2143163415780807
% es.tEx (V/m) @ t=0.04
-0.8536660349611079
% es.tEy (V/m) @ t=0.04
0
% es.tEz (V/m) @ t=0.04
2.2143163415780815
% V (V) @ t=0.04
0.011660741193221991
% es.normE (V/m) @ t=0.06
2.4169724820367913
% es.EX (V/m) @ t=0.06
-0.8614989454574017
% es.EY (V/m) @ t=0.06
0.27369445272941295
% es.EZ (V/m) @ t=0.06
2.234634052175763
% es.tEX (V/m) @ t=0.06
-0.8614989454574159
% es.tEY (V/m) @ t=0.06
0
% es.tEZ (V/m) @ t=0.06
2.2346340521757657
% es.Ex (V/m) @ t=0.06
-0.8614989454574017
% es.Ey (V/m) @ t=0.06
0.27369445272941295
% es.Ez (V/m) @ t=0.06
2.234634052175763
% es.tEx (V/m) @ t=0.06
-0.8614989454574159
% es.tEy (V/m) @ t=0.06
0
% es.tEz (V/m) @ t=0.06
2.2346340521757657
% V (V) @ t=0.06
0.011767735704113744
% es.normE (V/m) @ t=0.08
2.4393722788053056
% es.EX (V/m) @ t=0.08
-0.8694830664456838
% es.EY (V/m) @ t=0.08
0.2762309731367445
% es.EZ (V/m) @ t=0.08
2.2553439895970717
% es.tEX (V/m) @ t=0.08
-0.8694830664456981
% es.tEY (V/m) @ t=0.08
0
% es.tEZ (V/m) @ t=0.08
2.2553439895970726
% es.Ex (V/m) @ t=0.08
-0.8694830664456838
% es.Ey (V/m) @ t=0.08
0.2762309731367445
% es.Ez (V/m) @ t=0.08
2.2553439895970717
% es.tEx (V/m) @ t=0.08
-0.8694830664456981
% es.tEy (V/m) @ t=0.08
0
% es.tEz (V/m) @ t=0.08
2.2553439895970726
% V (V) @ t=0.08
0.011876795634688329
% es.normE (V/m) @ t=0.1
2.461881726884929
% es.EX (V/m) @ t=0.1
-0.8775062709539123
% es.EY (V/m) @ t=0.1
0.27877991025147364
% es.EZ (V/m) @ t=0.1
2.276155306259221
% es.tEX (V/m) @ t=0.1
-0.8775062709539265
% es.tEY (V/m) @ t=0.1
0
% es.tEZ (V/m) @ t=0.1
2.276155306259218
% es.Ex (V/m) @ t=0.1
-0.8775062709539123
% es.Ey (V/m) @ t=0.1
0.27877991025147364
% es.Ez (V/m) @ t=0.1
2.276155306259221
% es.tEx (V/m) @ t=0.1
-0.8775062709539265
% es.tEy (V/m) @ t=0.1
0
% es.tEz (V/m) @ t=0.1
2.276155306259218
% V (V) @ t=0.1
0.011986389416256377
% es.normE (V/m) @ t=0.12
2.484391174964547
% es.EX (V/m) @ t=0.12
-0.8855294754621341
% es.EY (V/m) @ t=0.12
0.28132884736618347
% es.EZ (V/m) @ t=0.12
2.29696662292137
% es.tEX (V/m) @ t=0.12
-0.8855294754621483
% es.tEY (V/m) @ t=0.12
0
% es.tEZ (V/m) @ t=0.12
2.296966622921367
% es.Ex (V/m) @ t=0.12
-0.8855294754621341
% es.Ey (V/m) @ t=0.12
0.28132884736618347
% es.Ez (V/m) @ t=0.12
2.29696662292137
% es.tEx (V/m) @ t=0.12
-0.8855294754621483
% es.tEy (V/m) @ t=0.12
0
% es.tEz (V/m) @ t=0.12
2.296966622921367
% V (V) @ t=0.12
0.012095983197824426
% es.normE (V/m) @ t=0.14
2.5075709567523576
% es.EX (V/m) @ t=0.14
-0.8937916108314174
% es.EY (V/m) @ t=0.14
0.2839536919319545
% es.EZ (V/m) @ t=0.14
2.3183977031671104
% es.tEX (V/m) @ t=0.14
-0.8937916108314352
% es.tEY (V/m) @ t=0.14
0
% es.tEZ (V/m) @ t=0.14
2.3183977031671112
% es.Ex (V/m) @ t=0.14
-0.8937916108314174
% es.Ey (V/m) @ t=0.14
0.2839536919319545
% es.Ez (V/m) @ t=0.14
2.3183977031671104
% es.tEx (V/m) @ t=0.14
-0.8937916108314352
% es.tEy (V/m) @ t=0.14
0
% es.tEz (V/m) @ t=0.14
2.3183977031671112
% V (V) @ t=0.14
0.012208840629102762
% es.normE (V/m) @ t=0.16
2.531206110851984
% es.EX (V/m) @ t=0.16
-0.9022160571470788
% es.EY (V/m) @ t=0.16
0.286630102085228
% es.EZ (V/m) @ t=0.16
2.3402498023358005
% es.tEX (V/m) @ t=0.16
-0.9022160571470894
% es.tEY (V/m) @ t=0.16
0
% es.tEZ (V/m) @ t=0.16
2.340249802335805
% es.Ex (V/m) @ t=0.16
-0.9022160571470788
% es.Ey (V/m) @ t=0.16
0.286630102085228
% es.Ez (V/m) @ t=0.16
2.3402498023358005
% es.tEx (V/m) @ t=0.16
-0.9022160571470894
% es.tEy (V/m) @ t=0.16
0
% es.tEz (V/m) @ t=0.16
2.340249802335805
% V (V) @ t=0.16
0.012323915128828347
% es.normE (V/m) @ t=0.18
2.554841264951608
% es.EX (V/m) @ t=0.18
-0.9106405034627365
% es.EY (V/m) @ t=0.18
0.2893065122385088
% es.EZ (V/m) @ t=0.18
2.3621019015044853
% es.tEX (V/m) @ t=0.18
-0.9106405034627507
% es.tEY (V/m) @ t=0.18
0
% es.tEZ (V/m) @ t=0.18
2.3621019015044897
% es.Ex (V/m) @ t=0.18
-0.9106405034627365
% es.Ey (V/m) @ t=0.18
0.2893065122385088
% es.Ez (V/m) @ t=0.18
2.3621019015044853
% es.tEx (V/m) @ t=0.18
-0.9106405034627507
% es.tEy (V/m) @ t=0.18
0
% es.tEz (V/m) @ t=0.18
2.3621019015044897
% V (V) @ t=0.18
0.012438989628553934
% es.normE (V/m) @ t=0.2
2.5784764190512277
% es.EX (V/m) @ t=0.2
-0.9190649497784014
% es.EY (V/m) @ t=0.2
0.2919829223917625
% es.EZ (V/m) @ t=0.2
2.3839540006731674
% es.tEX (V/m) @ t=0.2
-0.919064949778412
% es.tEY (V/m) @ t=0.2
0
% es.tEZ (V/m) @ t=0.2
2.383954000673164
% es.Ex (V/m) @ t=0.2
-0.9190649497784014
% es.Ey (V/m) @ t=0.2
0.2919829223917625
% es.Ez (V/m) @ t=0.2
2.3839540006731674
% es.tEx (V/m) @ t=0.2
-0.919064949778412
% es.tEy (V/m) @ t=0.2
0
% es.tEz (V/m) @ t=0.2
2.383954000673164
% V (V) @ t=0.2
0.01255406412827952
% es.normE (V/m) @ t=0.22
2.6021115731508644
% es.EX (V/m) @ t=0.22
-0.9274893960940624
% es.EY (V/m) @ t=0.22
0.29465933254503685
% es.EZ (V/m) @ t=0.22
2.4058060998418673
% es.tEX (V/m) @ t=0.22
-0.9274893960940802
% es.tEY (V/m) @ t=0.22
0
% es.tEZ (V/m) @ t=0.22
2.405806099841868
% es.Ex (V/m) @ t=0.22
-0.9274893960940624
% es.Ey (V/m) @ t=0.22
0.29465933254503685
% es.Ez (V/m) @ t=0.22
2.4058060998418673
% es.tEx (V/m) @ t=0.22
-0.9274893960940802
% es.tEy (V/m) @ t=0.22
0
% es.tEz (V/m) @ t=0.22
2.405806099841868
% V (V) @ t=0.22
0.012669138628005106
% es.normE (V/m) @ t=0.24
2.6257467272504895
% es.EX (V/m) @ t=0.24
-0.935913842409724
% es.EY (V/m) @ t=0.24
0.29733574269832475
% es.EZ (V/m) @ t=0.24
2.427658199010553
% es.tEX (V/m) @ t=0.24
-0.9359138424097275
% es.tEY (V/m) @ t=0.24
0
% es.tEZ (V/m) @ t=0.24
2.427658199010553
% es.Ex (V/m) @ t=0.24
-0.935913842409724
% es.Ey (V/m) @ t=0.24
0.29733574269832475
% es.Ez (V/m) @ t=0.24
2.427658199010553
% es.tEx (V/m) @ t=0.24
-0.9359138424097275
% es.tEy (V/m) @ t=0.24
0
% es.tEz (V/m) @ t=0.24
2.427658199010553
% V (V) @ t=0.24
0.012784213127730691
% es.normE (V/m) @ t=0.26
2.649877538908636
% es.EX (V/m) @ t=0.26
-0.9445149765346537
% es.EY (V/m) @ t=0.26
0.30006828313533895
% es.EZ (V/m) @ t=0.26
2.449968556045853
% es.tEX (V/m) @ t=0.26
-0.9445149765346679
% es.tEY (V/m) @ t=0.26
0
% es.tEZ (V/m) @ t=0.26
2.449968556045853
% es.Ex (V/m) @ t=0.26
-0.9445149765346537
% es.Ey (V/m) @ t=0.26
0.30006828313533895
% es.Ez (V/m) @ t=0.26
2.449968556045853
% es.tEx (V/m) @ t=0.26
-0.9445149765346679
% es.tEy (V/m) @ t=0.26
0
% es.tEz (V/m) @ t=0.26
2.449968556045853
% V (V) @ t=0.26
0.012901701974486823
% es.normE (V/m) @ t=0.28
2.6760261022905807
% es.EX (V/m) @ t=0.28
-0.9538353817079246
% es.EY (V/m) @ t=0.28
0.3030293220081206
% es.EZ (V/m) @ t=0.28
2.474144415955868
% es.tEX (V/m) @ t=0.28
-0.9538353817079281
% es.tEY (V/m) @ t=0.28
0
% es.tEZ (V/m) @ t=0.28
2.4741444159558696
% es.Ex (V/m) @ t=0.28
-0.9538353817079246
% es.Ey (V/m) @ t=0.28
0.3030293220081206
% es.Ez (V/m) @ t=0.28
2.474144415955868
% es.tEx (V/m) @ t=0.28
-0.9538353817079281
% es.tEy (V/m) @ t=0.28
0
% es.tEz (V/m) @ t=0.28
2.4741444159558696
% V (V) @ t=0.28
0.01302901928607488
% es.normE (V/m) @ t=0.3
2.702174665672512
% es.EX (V/m) @ t=0.3
-0.9631557868811673
% es.EY (V/m) @ t=0.3
0.30599036088090914
% es.EZ (V/m) @ t=0.3
2.498320275865874
% es.tEX (V/m) @ t=0.3
-0.9631557868811815
% es.tEY (V/m) @ t=0.3
0
% es.tEZ (V/m) @ t=0.3
2.4983202758658756
% es.Ex (V/m) @ t=0.3
-0.9631557868811673
% es.Ey (V/m) @ t=0.3
0.30599036088090914
% es.Ez (V/m) @ t=0.3
2.498320275865874
% es.tEx (V/m) @ t=0.3
-0.9631557868811815
% es.tEy (V/m) @ t=0.3
0
% es.tEz (V/m) @ t=0.3
2.4983202758658756
% V (V) @ t=0.3
0.013156336597662938
% es.normE (V/m) @ t=0.32
2.7283232290544537
% es.EX (V/m) @ t=0.32
-0.9724761920544243
% es.EY (V/m) @ t=0.32
0.3089513997536839
% es.EZ (V/m) @ t=0.32
2.522496135775886
% es.tEX (V/m) @ t=0.32
-0.972476192054442
% es.tEY (V/m) @ t=0.32
0
% es.tEZ (V/m) @ t=0.32
2.5224961357758833
% es.Ex (V/m) @ t=0.32
-0.9724761920544243
% es.Ey (V/m) @ t=0.32
0.3089513997536839
% es.Ez (V/m) @ t=0.32
2.522496135775886
% es.tEx (V/m) @ t=0.32
-0.972476192054442
% es.tEy (V/m) @ t=0.32
0
% es.tEz (V/m) @ t=0.32
2.5224961357758833
% V (V) @ t=0.32
0.013283653909250995
% es.normE (V/m) @ t=0.34
2.754471792436397
% es.EX (V/m) @ t=0.34
-0.981796597227681
% es.EY (V/m) @ t=0.34
0.31191243862647067
% es.EZ (V/m) @ t=0.34
2.5466719956858936
% es.tEX (V/m) @ t=0.34
-0.9817965972276952
% es.tEY (V/m) @ t=0.34
0
% es.tEZ (V/m) @ t=0.34
2.546671995685891
% es.Ex (V/m) @ t=0.34
-0.981796597227681
% es.Ey (V/m) @ t=0.34
0.31191243862647067
% es.Ez (V/m) @ t=0.34
2.5466719956858936
% es.tEx (V/m) @ t=0.34
-0.9817965972276952
% es.tEy (V/m) @ t=0.34
0
% es.tEz (V/m) @ t=0.34
2.546671995685891
% V (V) @ t=0.34
0.01341097122083905
% es.normE (V/m) @ t=0.36
2.7806203558183373
% es.EX (V/m) @ t=0.36
-0.9911170024009344
% es.EY (V/m) @ t=0.36
0.3148734774992674
% es.EZ (V/m) @ t=0.36
2.570847855595896
% es.tEX (V/m) @ t=0.36
-0.9911170024009415
% es.tEY (V/m) @ t=0.36
0
% es.tEZ (V/m) @ t=0.36
2.57084785559589
% es.Ex (V/m) @ t=0.36
-0.9911170024009344
% es.Ey (V/m) @ t=0.36
0.3148734774992674
% es.Ez (V/m) @ t=0.36
2.570847855595896
% es.tEx (V/m) @ t=0.36
-0.9911170024009415
% es.tEy (V/m) @ t=0.36
0
% es.tEz (V/m) @ t=0.36
2.57084785559589
% V (V) @ t=0.36
0.013538288532427108
% es.normE (V/m) @ t=0.38
2.806768919200286
% es.EX (V/m) @ t=0.38
-1.000437407574202
% es.EY (V/m) @ t=0.38
0.3178345163720526
% es.EZ (V/m) @ t=0.38
2.595023715505901
% es.tEX (V/m) @ t=0.38
-1.0004374075742162
% es.tEY (V/m) @ t=0.38
0
% es.tEZ (V/m) @ t=0.38
2.595023715505894
% es.Ex (V/m) @ t=0.38
-1.000437407574202
% es.Ey (V/m) @ t=0.38
0.3178345163720526
% es.Ez (V/m) @ t=0.38
2.595023715505901
% es.tEx (V/m) @ t=0.38
-1.0004374075742162
% es.tEy (V/m) @ t=0.38
0
% es.tEz (V/m) @ t=0.38
2.595023715505894
% V (V) @ t=0.38
0.013665605844015166
% es.normE (V/m) @ t=0.4
2.8329174825822334
% es.EX (V/m) @ t=0.4
-1.0097578127474554
% es.EY (V/m) @ t=0.4
0.3207955552448227
% es.EZ (V/m) @ t=0.4
2.619199575415907
% es.tEX (V/m) @ t=0.4
-1.0097578127474696
% es.tEY (V/m) @ t=0.4
0
% es.tEZ (V/m) @ t=0.4
2.6191995754159105
% es.Ex (V/m) @ t=0.4
-1.0097578127474554
% es.Ey (V/m) @ t=0.4
0.3207955552448227
% es.Ez (V/m) @ t=0.4
2.619199575415907
% es.tEx (V/m) @ t=0.4
-1.0097578127474696
% es.tEy (V/m) @ t=0.4
0
% es.tEz (V/m) @ t=0.4
2.6191995754159105
% V (V) @ t=0.4
0.013792923155603225
% es.normE (V/m) @ t=0.42
2.859066045964183
% es.EX (V/m) @ t=0.42
-1.0190782179207087
% es.EY (V/m) @ t=0.42
0.32375659411761326
% es.EZ (V/m) @ t=0.42
2.643375435325912
% es.tEX (V/m) @ t=0.42
-1.019078217920723
% es.tEY (V/m) @ t=0.42
0
% es.tEZ (V/m) @ t=0.42
2.643375435325913
% es.Ex (V/m) @ t=0.42
-1.0190782179207087
% es.Ey (V/m) @ t=0.42
0.32375659411761326
% es.Ez (V/m) @ t=0.42
2.643375435325912
% es.tEx (V/m) @ t=0.42
-1.019078217920723
% es.tEy (V/m) @ t=0.42
0
% es.tEz (V/m) @ t=0.42
2.643375435325913
% V (V) @ t=0.42
0.01392024046719128
% es.normE (V/m) @ t=0.44
2.8852146093461357
% es.EX (V/m) @ t=0.44
-1.0283986230939655
% es.EY (V/m) @ t=0.44
0.3267176329904071
% es.EZ (V/m) @ t=0.44
2.6675512952359144
% es.tEX (V/m) @ t=0.44
-1.0283986230939832
% es.tEY (V/m) @ t=0.44
0
% es.tEZ (V/m) @ t=0.44
2.667551295235917
% es.Ex (V/m) @ t=0.44
-1.0283986230939655
% es.Ey (V/m) @ t=0.44
0.3267176329904071
% es.Ez (V/m) @ t=0.44
2.6675512952359144
% es.tEx (V/m) @ t=0.44
-1.0283986230939832
% es.tEy (V/m) @ t=0.44
0
% es.tEz (V/m) @ t=0.44
2.667551295235917
% V (V) @ t=0.44
0.014047557778779335
% es.normE (V/m) @ t=0.46
2.911363172728095
% es.EX (V/m) @ t=0.46
-1.0377190282672117
% es.EY (V/m) @ t=0.46
0.3296786718631819
% es.EZ (V/m) @ t=0.46
2.691727155145929
% es.tEX (V/m) @ t=0.46
-1.0377190282672153
% es.tEY (V/m) @ t=0.46
0
% es.tEZ (V/m) @ t=0.46
2.6917271551459336
% es.Ex (V/m) @ t=0.46
-1.0377190282672117
% es.Ey (V/m) @ t=0.46
0.3296786718631819
% es.Ez (V/m) @ t=0.46
2.691727155145929
% es.tEx (V/m) @ t=0.46
-1.0377190282672153
% es.tEy (V/m) @ t=0.46
0
% es.tEz (V/m) @ t=0.46
2.6917271551459336
% V (V) @ t=0.46
0.014174875090367394
% es.normE (V/m) @ t=0.48
2.9375117361100536
% es.EX (V/m) @ t=0.48
-1.0470394334404756
% es.EY (V/m) @ t=0.48
0.332639710735966
% es.EZ (V/m) @ t=0.48
2.7159030150559316
% es.tEX (V/m) @ t=0.48
-1.0470394334404898
% es.tEY (V/m) @ t=0.48
0
% es.tEZ (V/m) @ t=0.48
2.7159030150559342
% es.Ex (V/m) @ t=0.48
-1.0470394334404756
% es.Ey (V/m) @ t=0.48
0.332639710735966
% es.Ez (V/m) @ t=0.48
2.7159030150559316
% es.tEx (V/m) @ t=0.48
-1.0470394334404898
% es.tEy (V/m) @ t=0.48
0
% es.tEz (V/m) @ t=0.48
2.7159030150559342
% V (V) @ t=0.48
0.01430219240195545
% es.normE (V/m) @ t=0.5
2.9636602994920147
% es.EX (V/m) @ t=0.5
-1.056359838613736
% es.EY (V/m) @ t=0.5
0.3356007496087503
% es.EZ (V/m) @ t=0.5
2.7400788749659366
% es.tEX (V/m) @ t=0.5
-1.056359838613736
% es.tEY (V/m) @ t=0.5
0
% es.tEZ (V/m) @ t=0.5
2.74007887496594
% es.Ex (V/m) @ t=0.5
-1.056359838613736
% es.Ey (V/m) @ t=0.5
0.3356007496087503
% es.Ez (V/m) @ t=0.5
2.7400788749659366
% es.tEx (V/m) @ t=0.5
-1.056359838613736
% es.tEy (V/m) @ t=0.5
0
% es.tEz (V/m) @ t=0.5
2.74007887496594
% V (V) @ t=0.5
0.014429509713543509
% es.normE (V/m) @ t=0.52
2.990940937531523
% es.EX (V/m) @ t=0.52
-1.0660837528360452
% es.EY (V/m) @ t=0.52
0.3386899823287579
% es.EZ (V/m) @ t=0.52
2.7653014066826263
% es.tEX (V/m) @ t=0.52
-1.0660837528360594
% es.tEY (V/m) @ t=0.52
0
% es.tEZ (V/m) @ t=0.52
2.76530140668263
% es.Ex (V/m) @ t=0.52
-1.0660837528360452
% es.Ey (V/m) @ t=0.52
0.3386899823287579
% es.Ez (V/m) @ t=0.52
2.7653014066826263
% es.tEx (V/m) @ t=0.52
-1.0660837528360594
% es.tEy (V/m) @ t=0.52
0
% es.tEz (V/m) @ t=0.52
2.76530140668263
% V (V) @ t=0.52
0.014562338574926562
% es.normE (V/m) @ t=0.54
3.019915033512551
% es.EX (V/m) @ t=0.54
-1.0764112717756373
% es.EY (V/m) @ t=0.54
0.3419709788049483
% es.EZ (V/m) @ t=0.54
2.7920896431621394
% es.tEX (V/m) @ t=0.54
-1.0764112717756515
% es.tEY (V/m) @ t=0.54
0
% es.tEZ (V/m) @ t=0.54
2.7920896431621447
% es.Ex (V/m) @ t=0.54
-1.0764112717756373
% es.Ey (V/m) @ t=0.54
0.3419709788049483
% es.Ez (V/m) @ t=0.54
2.7920896431621394
% es.tEx (V/m) @ t=0.54
-1.0764112717756515
% es.tEy (V/m) @ t=0.54
0
% es.tEz (V/m) @ t=0.54
2.7920896431621447
% V (V) @ t=0.54
0.014703412102602726
% es.normE (V/m) @ t=0.56
3.0488891294935643
% es.EX (V/m) @ t=0.56
-1.0867387907152293
% es.EY (V/m) @ t=0.56
0.3452519752811447
% es.EZ (V/m) @ t=0.56
2.818877879641634
% es.tEX (V/m) @ t=0.56
-1.0867387907152435
% es.tEY (V/m) @ t=0.56
0
% es.tEZ (V/m) @ t=0.56
2.818877879641633
% es.Ex (V/m) @ t=0.56
-1.0867387907152293
% es.Ey (V/m) @ t=0.56
0.3452519752811447
% es.Ez (V/m) @ t=0.56
2.818877879641634
% es.tEx (V/m) @ t=0.56
-1.0867387907152435
% es.tEy (V/m) @ t=0.56
0
% es.tEz (V/m) @ t=0.56
2.818877879641633
% V (V) @ t=0.56
0.01484448563027889
% es.normE (V/m) @ t=0.58
3.077863225474583
% es.EX (V/m) @ t=0.58
-1.0970663096548143
% es.EY (V/m) @ t=0.58
0.34853297175734466
% es.EZ (V/m) @ t=0.58
2.8456661161211345
% es.tEX (V/m) @ t=0.58
-1.0970663096548214
% es.tEY (V/m) @ t=0.58
0
% es.tEZ (V/m) @ t=0.58
2.845666116121139
% es.Ex (V/m) @ t=0.58
-1.0970663096548143
% es.Ey (V/m) @ t=0.58
0.34853297175734466
% es.Ez (V/m) @ t=0.58
2.8456661161211345
% es.tEx (V/m) @ t=0.58
-1.0970663096548214
% es.tEy (V/m) @ t=0.58
0
% es.tEz (V/m) @ t=0.58
2.845666116121139
% V (V) @ t=0.58
0.014985559157955054
% es.normE (V/m) @ t=0.6
3.1068373214556253
% es.EX (V/m) @ t=0.6
-1.1073938285944418
% es.EY (V/m) @ t=0.6
0.3518139682335457
% es.EZ (V/m) @ t=0.6
2.8724543526006423
% es.tEX (V/m) @ t=0.6
-1.107393828594456
% es.tEY (V/m) @ t=0.6
0
% es.tEZ (V/m) @ t=0.6
2.872454352600645
% es.Ex (V/m) @ t=0.6
-1.1073938285944418
% es.Ey (V/m) @ t=0.6
0.3518139682335457
% es.Ez (V/m) @ t=0.6
2.8724543526006423
% es.tEx (V/m) @ t=0.6
-1.107393828594456
% es.tEy (V/m) @ t=0.6
0
% es.tEz (V/m) @ t=0.6
2.872454352600645
% V (V) @ t=0.6
0.01512663268563122
% es.normE (V/m) @ t=0.62
3.135811417436627
% es.EX (V/m) @ t=0.62
-1.1177213475340124
% es.EY (V/m) @ t=0.62
0.3550949647097208
% es.EZ (V/m) @ t=0.62
2.8992425890801314
% es.tEX (V/m) @ t=0.62
-1.1177213475340337
% es.tEY (V/m) @ t=0.62
0
% es.tEZ (V/m) @ t=0.62
2.899242589080126
% es.Ex (V/m) @ t=0.62
-1.1177213475340124
% es.Ey (V/m) @ t=0.62
0.3550949647097208
% es.Ez (V/m) @ t=0.62
2.8992425890801314
% es.tEx (V/m) @ t=0.62
-1.1177213475340337
% es.tEy (V/m) @ t=0.62
0
% es.tEz (V/m) @ t=0.62
2.899242589080126
% V (V) @ t=0.62
0.015267706213307383
% es.normE (V/m) @ t=0.64
3.1647855134176615
% es.EX (V/m) @ t=0.64
-1.1280488664736117
% es.EY (V/m) @ t=0.64
0.3583759611859121
% es.EZ (V/m) @ t=0.64
2.926030825559641
% es.tEX (V/m) @ t=0.64
-1.128048866473626
% es.tEY (V/m) @ t=0.64
0
% es.tEZ (V/m) @ t=0.64
2.926030825559643
% es.Ex (V/m) @ t=0.64
-1.1280488664736117
% es.Ey (V/m) @ t=0.64
0.3583759611859121
% es.Ez (V/m) @ t=0.64
2.926030825559641
% es.tEx (V/m) @ t=0.64
-1.128048866473626
% es.tEy (V/m) @ t=0.64
0
% es.tEz (V/m) @ t=0.64
2.926030825559643
% V (V) @ t=0.64
0.015408779740983551
% es.normE (V/m) @ t=0.66
3.193759609398687
% es.EX (V/m) @ t=0.66
-1.1383763854132039
% es.EY (V/m) @ t=0.66
0.36165695766212536
% es.EZ (V/m) @ t=0.66
2.952819062039138
% es.tEX (V/m) @ t=0.66
-1.138376385413218
% es.tEY (V/m) @ t=0.66
0
% es.tEZ (V/m) @ t=0.66
2.9528190620391417
% es.Ex (V/m) @ t=0.66
-1.1383763854132039
% es.Ey (V/m) @ t=0.66
0.36165695766212536
% es.Ez (V/m) @ t=0.66
2.952819062039138
% es.tEx (V/m) @ t=0.66
-1.138376385413218
% es.tEy (V/m) @ t=0.66
0
% es.tEz (V/m) @ t=0.66
2.9528190620391417
% V (V) @ t=0.66
0.015549853268659711
% es.normE (V/m) @ t=0.68
3.222733705379726
% es.EX (V/m) @ t=0.68
-1.14870390435281
% es.EY (V/m) @ t=0.68
0.36493795413829955
% es.EZ (V/m) @ t=0.68
2.9796072985186504
% es.tEX (V/m) @ t=0.68
-1.1487039043528242
% es.tEY (V/m) @ t=0.68
0
% es.tEZ (V/m) @ t=0.68
2.9796072985186424
% es.Ex (V/m) @ t=0.68
-1.14870390435281
% es.Ey (V/m) @ t=0.68
0.36493795413829955
% es.Ez (V/m) @ t=0.68
2.9796072985186504
% es.tEx (V/m) @ t=0.68
-1.1487039043528242
% es.tEy (V/m) @ t=0.68
0
% es.tEz (V/m) @ t=0.68
2.9796072985186424
% V (V) @ t=0.68
0.01569092679633588
% es.normE (V/m) @ t=0.7
3.251707801360749
% es.EX (V/m) @ t=0.7
-1.159031423292388
% es.EY (V/m) @ t=0.7
0.36821895061451504
% es.EZ (V/m) @ t=0.7
3.0063955349981493
% es.tEX (V/m) @ t=0.7
-1.1590314232924022
% es.tEY (V/m) @ t=0.7
0
% es.tEZ (V/m) @ t=0.7
3.0063955349981555
% es.Ex (V/m) @ t=0.7
-1.159031423292388
% es.Ey (V/m) @ t=0.7
0.36821895061451504
% es.Ez (V/m) @ t=0.7
3.0063955349981493
% es.tEx (V/m) @ t=0.7
-1.1590314232924022
% es.tEy (V/m) @ t=0.7
0
% es.tEz (V/m) @ t=0.7
3.0063955349981555
% V (V) @ t=0.7
0.015832000324012045
% es.normE (V/m) @ t=0.72
3.2806818973417777
% es.EX (V/m) @ t=0.72
-1.169358942231987
% es.EY (V/m) @ t=0.72
0.371499947090707
% es.EZ (V/m) @ t=0.72
3.0331837714776464
% es.tEX (V/m) @ t=0.72
-1.169358942231994
% es.tEY (V/m) @ t=0.72
0
% es.tEZ (V/m) @ t=0.72
3.0331837714776473
% es.Ex (V/m) @ t=0.72
-1.169358942231987
% es.Ey (V/m) @ t=0.72
0.371499947090707
% es.Ez (V/m) @ t=0.72
3.0331837714776464
% es.tEx (V/m) @ t=0.72
-1.169358942231994
% es.tEy (V/m) @ t=0.72
0
% es.tEz (V/m) @ t=0.72
3.0331837714776473
% V (V) @ t=0.72
0.015973073851688203
% es.normE (V/m) @ t=0.74
3.309655993322817
% es.EX (V/m) @ t=0.74
-1.1796864611715792
% es.EY (V/m) @ t=0.74
0.3747809435668972
% es.EZ (V/m) @ t=0.74
3.059972007957156
% es.tEX (V/m) @ t=0.74
-1.1796864611715863
% es.tEY (V/m) @ t=0.74
0
% es.tEZ (V/m) @ t=0.74
3.059972007957146
% es.Ex (V/m) @ t=0.74
-1.1796864611715792
% es.Ey (V/m) @ t=0.74
0.3747809435668972
% es.Ez (V/m) @ t=0.74
3.059972007957156
% es.tEx (V/m) @ t=0.74
-1.1796864611715863
% es.tEy (V/m) @ t=0.74
0
% es.tEz (V/m) @ t=0.74
3.059972007957146
% V (V) @ t=0.74
0.016114147379364372
% es.normE (V/m) @ t=0.76
3.3386300893038494
% es.EX (V/m) @ t=0.76
-1.1900139801111784
% es.EY (V/m) @ t=0.76
0.3780619400430878
% es.EZ (V/m) @ t=0.76
3.0867602444366566
% es.tEX (V/m) @ t=0.76
-1.1900139801111926
% es.tEY (V/m) @ t=0.76
0
% es.tEZ (V/m) @ t=0.76
3.0867602444366558
% es.Ex (V/m) @ t=0.76
-1.1900139801111784
% es.Ey (V/m) @ t=0.76
0.3780619400430878
% es.Ez (V/m) @ t=0.76
3.0867602444366566
% es.tEx (V/m) @ t=0.76
-1.1900139801111926
% es.tEy (V/m) @ t=0.76
0
% es.tEz (V/m) @ t=0.76
3.0867602444366558
% V (V) @ t=0.76
0.016255220907040537
% es.normE (V/m) @ t=0.78
3.3695264733632255
% es.EX (V/m) @ t=0.78
-1.2010266457417782
% es.EY (V/m) @ t=0.78
0.38156060897248123
% es.EZ (V/m) @ t=0.78
3.1153257614152823
% es.tEX (V/m) @ t=0.78
-1.2010266457417924
% es.tEY (V/m) @ t=0.78
0
% es.tEZ (V/m) @ t=0.78
3.1153257614152867
% es.Ex (V/m) @ t=0.78
-1.2010266457417782
% es.Ey (V/m) @ t=0.78
0.38156060897248123
% es.Ez (V/m) @ t=0.78
3.1153257614152823
% es.tEx (V/m) @ t=0.78
-1.2010266457417924
% es.tEy (V/m) @ t=0.78
0
% es.tEz (V/m) @ t=0.78
3.1153257614152867
% V (V) @ t=0.78
0.016405651829994004
% es.normE (V/m) @ t=0.8
3.401682573140878
% es.EX (V/m) @ t=0.8
-1.2124883023772608
% es.EY (V/m) @ t=0.8
0.3852019232284498
% es.EZ (V/m) @ t=0.8
3.1450559676024445
% es.tEX (V/m) @ t=0.8
-1.2124883023772821
% es.tEY (V/m) @ t=0.8
0
% es.tEZ (V/m) @ t=0.8
3.145055967602442
% es.Ex (V/m) @ t=0.8
-1.2124883023772608
% es.Ey (V/m) @ t=0.8
0.3852019232284498
% es.Ez (V/m) @ t=0.8
3.1450559676024445
% es.tEx (V/m) @ t=0.8
-1.2124883023772821
% es.tEy (V/m) @ t=0.8
0
% es.tEz (V/m) @ t=0.8
3.145055967602442
% V (V) @ t=0.8
0.016562214850444096
% es.normE (V/m) @ t=0.82
3.4338386729185197
% es.EX (V/m) @ t=0.82
-1.2239499590127434
% es.EY (V/m) @ t=0.82
0.38884323748444505
% es.EZ (V/m) @ t=0.82
3.174786173789591
% es.tEX (V/m) @ t=0.82
-1.2239499590127576
% es.tEY (V/m) @ t=0.82
0
% es.tEZ (V/m) @ t=0.82
3.1747861737895953
% es.Ex (V/m) @ t=0.82
-1.2239499590127434
% es.Ey (V/m) @ t=0.82
0.38884323748444505
% es.Ez (V/m) @ t=0.82
3.174786173789591
% es.tEx (V/m) @ t=0.82
-1.2239499590127576
% es.tEy (V/m) @ t=0.82
0
% es.tEz (V/m) @ t=0.82
3.1747861737895953
% V (V) @ t=0.82
0.01671877787089418
% es.normE (V/m) @ t=0.84
3.4659947726961655
% es.EX (V/m) @ t=0.84
-1.2354116156482047
% es.EY (V/m) @ t=0.84
0.3924845517404023
% es.EZ (V/m) @ t=0.84
3.204516379976755
% es.tEX (V/m) @ t=0.84
-1.235411615648233
% es.tEY (V/m) @ t=0.84
0
% es.tEZ (V/m) @ t=0.84
3.2045163799767575
% es.Ex (V/m) @ t=0.84
-1.2354116156482047
% es.Ey (V/m) @ t=0.84
0.3924845517404023
% es.Ez (V/m) @ t=0.84
3.204516379976755
% es.tEx (V/m) @ t=0.84
-1.235411615648233
% es.tEy (V/m) @ t=0.84
0
% es.tEz (V/m) @ t=0.84
3.2045163799767575
% V (V) @ t=0.84
0.016875340891344265
% es.normE (V/m) @ t=0.86
3.49815087247383
% es.EX (V/m) @ t=0.86
-1.2468732722836868
% es.EY (V/m) @ t=0.86
0.3961258659963989
% es.EZ (V/m) @ t=0.86
3.234246586163926
% es.tEX (V/m) @ t=0.86
-1.2468732722837081
% es.tEY (V/m) @ t=0.86
0
% es.tEZ (V/m) @ t=0.86
3.2342465861639162
% es.Ex (V/m) @ t=0.86
-1.2468732722836868
% es.Ey (V/m) @ t=0.86
0.3961258659963989
% es.Ez (V/m) @ t=0.86
3.234246586163926
% es.tEx (V/m) @ t=0.86
-1.2468732722837081
% es.tEy (V/m) @ t=0.86
0
% es.tEz (V/m) @ t=0.86
3.2342465861639162
% V (V) @ t=0.86
0.017031903911794353
% es.normE (V/m) @ t=0.88
3.5303069722514664
% es.EX (V/m) @ t=0.88
-1.2583349289191623
% es.EY (V/m) @ t=0.88
0.3997671802523728
% es.EZ (V/m) @ t=0.88
3.263976792351074
% es.tEX (V/m) @ t=0.88
-1.2583349289191836
% es.tEY (V/m) @ t=0.88
0
% es.tEZ (V/m) @ t=0.88
3.2639767923510767
% es.Ex (V/m) @ t=0.88
-1.2583349289191623
% es.Ey (V/m) @ t=0.88
0.3997671802523728
% es.Ez (V/m) @ t=0.88
3.263976792351074
% es.tEx (V/m) @ t=0.88
-1.2583349289191836
% es.tEy (V/m) @ t=0.88
0
% es.tEz (V/m) @ t=0.88
3.2639767923510767
% V (V) @ t=0.88
0.017188466932244437
% es.normE (V/m) @ t=0.9
3.5624630720291237
% es.EX (V/m) @ t=0.9
-1.269796585554645
% es.EY (V/m) @ t=0.9
0.403408494508366
% es.EZ (V/m) @ t=0.9
3.293706998538238
% es.tEX (V/m) @ t=0.9
-1.2697965855546591
% es.tEY (V/m) @ t=0.9
0
% es.tEZ (V/m) @ t=0.9
3.293706998538239
% es.Ex (V/m) @ t=0.9
-1.269796585554645
% es.Ey (V/m) @ t=0.9
0.403408494508366
% es.Ez (V/m) @ t=0.9
3.293706998538238
% es.tEx (V/m) @ t=0.9
-1.2697965855546591
% es.tEy (V/m) @ t=0.9
0
% es.tEz (V/m) @ t=0.9
3.293706998538239
% V (V) @ t=0.9
0.01734502995269453
% es.normE (V/m) @ t=0.92
3.5946191718067744
% es.EX (V/m) @ t=0.92
-1.2812582421901346
% es.EY (V/m) @ t=0.92
0.4070498087643162
% es.EZ (V/m) @ t=0.92
3.3234372047253986
% es.tEX (V/m) @ t=0.92
-1.2812582421901488
% es.tEY (V/m) @ t=0.92
0
% es.tEZ (V/m) @ t=0.92
3.323437204725403
% es.Ex (V/m) @ t=0.92
-1.2812582421901346
% es.Ey (V/m) @ t=0.92
0.4070498087643162
% es.Ez (V/m) @ t=0.92
3.3234372047253986
% es.tEx (V/m) @ t=0.92
-1.2812582421901488
% es.tEy (V/m) @ t=0.92
0
% es.tEz (V/m) @ t=0.92
3.323437204725403
% V (V) @ t=0.92
0.017501592973144617
% es.normE (V/m) @ t=0.94
3.6267752715844237
% es.EX (V/m) @ t=0.94
-1.2927198988256101
% es.EY (V/m) @ t=0.94
0.4106911230203192
% es.EZ (V/m) @ t=0.94
3.3531674109125555
% es.tEX (V/m) @ t=0.94
-1.2927198988256385
% es.tEY (V/m) @ t=0.94
0
% es.tEZ (V/m) @ t=0.94
3.353167410912558
% es.Ex (V/m) @ t=0.94
-1.2927198988256101
% es.Ey (V/m) @ t=0.94
0.4106911230203192
% es.Ez (V/m) @ t=0.94
3.3531674109125555
% es.tEx (V/m) @ t=0.94
-1.2927198988256385
% es.tEy (V/m) @ t=0.94
0
% es.tEz (V/m) @ t=0.94
3.353167410912558
% V (V) @ t=0.94
0.017658155993594705
% es.normE (V/m) @ t=0.96
3.658931371362069
% es.EX (V/m) @ t=0.96
-1.3041815554610927
% es.EY (V/m) @ t=0.96
0.41433243727626934
% es.EZ (V/m) @ t=0.96
3.3828976170997107
% es.tEX (V/m) @ t=0.96
-1.304181555461114
% es.tEY (V/m) @ t=0.96
0
% es.tEZ (V/m) @ t=0.96
3.3828976170997116
% es.Ex (V/m) @ t=0.96
-1.3041815554610927
% es.Ey (V/m) @ t=0.96
0.41433243727626934
% es.Ez (V/m) @ t=0.96
3.3828976170997107
% es.tEx (V/m) @ t=0.96
-1.304181555461114
% es.tEy (V/m) @ t=0.96
0
% es.tEz (V/m) @ t=0.96
3.3828976170997116
% V (V) @ t=0.96
0.017814719014044786
% es.normE (V/m) @ t=0.98
3.6910874711397295
% es.EX (V/m) @ t=0.98
-1.3156432120965753
% es.EY (V/m) @ t=0.98
0.4179737515322657
% es.EZ (V/m) @ t=0.98
3.4126278232868783
% es.tEX (V/m) @ t=0.98
-1.3156432120965895
% es.tEY (V/m) @ t=0.98
0
% es.tEZ (V/m) @ t=0.98
3.412627823286874
% es.Ex (V/m) @ t=0.98
-1.3156432120965753
% es.Ey (V/m) @ t=0.98
0.4179737515322657
% es.Ez (V/m) @ t=0.98
3.4126278232868783
% es.tEx (V/m) @ t=0.98
-1.3156432120965895
% es.tEy (V/m) @ t=0.98
0
% es.tEz (V/m) @ t=0.98
3.412627823286874
% V (V) @ t=0.98
0.017971282034494877
% es.normE (V/m) @ t=1
3.723243570917373
% es.EX (V/m) @ t=1
-1.3271048687320366
% es.EY (V/m) @ t=1
0.42161506578823316
% es.EZ (V/m) @ t=1
3.442358029474039
% es.tEX (V/m) @ t=1
-1.327104868732065
% es.tEY (V/m) @ t=1
0
% es.tEZ (V/m) @ t=1
3.4423580294740415
% es.Ex (V/m) @ t=1
-1.3271048687320366
% es.Ey (V/m) @ t=1
0.42161506578823316
% es.Ez (V/m) @ t=1
3.442358029474039
% es.tEx (V/m) @ t=1
-1.327104868732065
% es.tEy (V/m) @ t=1
0
% es.tEz (V/m) @ t=1
3.4423580294740415
% V (V) @ t=1
0.018127845054944965
% es.normE (V/m) @ t=1.02
3.755399670695021
% es.EX (V/m) @ t=1.02
-1.3385665253675405
% es.EY (V/m) @ t=1.02
0.4252563800442082
% es.EZ (V/m) @ t=1.02
3.4720882356611886
% es.tEX (V/m) @ t=1.02
-1.338566525367569
% es.tEY (V/m) @ t=1.02
0
% es.tEZ (V/m) @ t=1.02
3.4720882356611895
% es.Ex (V/m) @ t=1.02
-1.3385665253675405
% es.Ey (V/m) @ t=1.02
0.4252563800442082
% es.Ez (V/m) @ t=1.02
3.4720882356611886
% es.tEx (V/m) @ t=1.02
-1.338566525367569
% es.tEy (V/m) @ t=1.02
0
% es.tEz (V/m) @ t=1.02
3.4720882356611895
% V (V) @ t=1.02
0.018284408075395046
% es.normE (V/m) @ t=1.04
3.7888141879373194
% es.EX (V/m) @ t=1.04
-1.3504766951888936
% es.EY (V/m) @ t=1.04
0.4290401901916918
% es.EZ (V/m) @ t=1.04
3.502981936833022
% es.tEX (V/m) @ t=1.04
-1.3504766951889149
% es.tEY (V/m) @ t=1.04
0
% es.tEZ (V/m) @ t=1.04
3.5029819368330237
% es.Ex (V/m) @ t=1.04
-1.3504766951888936
% es.Ey (V/m) @ t=1.04
0.4290401901916918