% Model:              1 neuron.mph
% Version:            COMSOL 6.1.0.252
% Date:               Mar 22 2023, 18:34
% Dimension:          0
% Nodes:              14017
% Expressions:        14017
% Description:        Electric field norm, Electric field, X component, Electric field, Y component, Electric field, Z component, Tangential electric field, X component, Tangential electric field, Y component, Tangential electric field, Z component, Electric field, x component, Electric field, y component, Electric field, z component, Tangential electric field, x component, Tangential electric field, y component, Tangential electric field, z component, Electric potential
% Length unit:        mm
% x
1.66
% y
12.2
% z
2
% es.normE (V/m) @ t=0
2.632530955970231
% es.EX (V/m) @ t=0
-0.7853368488368249
% es.EY (V/m) @ t=0
0.05866180205072791
% es.EZ (V/m) @ t=0
-2.507749243384577
% es.tEX (V/m) @ t=0
-0.7853368488368346
% es.tEY (V/m) @ t=0
0
% es.tEZ (V/m) @ t=0
-2.5077492433845947
% es.Ex (V/m) @ t=0
-0.7853368488368249
% es.Ey (V/m) @ t=0
0.05866180205072791
% es.Ez (V/m) @ t=0
-2.507749243384577
% es.tEx (V/m) @ t=0
-0.7853368488368346
% es.tEy (V/m) @ t=0
0
% es.tEz (V/m) @ t=0
-2.5077492433845947
% V (V) @ t=0
0.013232191421966905
% es.normE (V/m) @ t=0.02
2.2737298525576124
% es.EX (V/m) @ t=0.02
-0.6782992746459384
% es.EY (V/m) @ t=0.02
0.050666485281775545
% es.EZ (V/m) @ t=0.02
-2.165955277507954
% es.tEX (V/m) @ t=0.02
-0.6782992746459477
% es.tEY (V/m) @ t=0.02
0
% es.tEZ (V/m) @ t=0.02
-2.1659552775079725
% es.Ex (V/m) @ t=0.02
-0.6782992746459384
% es.Ey (V/m) @ t=0.02
0.050666485281775545
% es.Ez (V/m) @ t=0.02
-2.165955277507954
% es.tEx (V/m) @ t=0.02
-0.6782992746459477
% es.tEy (V/m) @ t=0.02
0
% es.tEz (V/m) @ t=0.02
-2.1659552775079725
% V (V) @ t=0.02
0.01142870839289599
% es.normE (V/m) @ t=0.04
2.2946327076255484
% es.EX (V/m) @ t=0.04
-0.6845350162699182
% es.EY (V/m) @ t=0.04
0.05113227265430696
% es.EZ (V/m) @ t=0.04
-2.18586733920593
% es.tEX (V/m) @ t=0.04
-0.6845350162699262
% es.tEY (V/m) @ t=0.04
0
% es.tEZ (V/m) @ t=0.04
-2.185867339205954
% es.Ex (V/m) @ t=0.04
-0.6845350162699182
% es.Ey (V/m) @ t=0.04
0.05113227265430696
% es.Ez (V/m) @ t=0.04
-2.18586733920593
% es.tEx (V/m) @ t=0.04
-0.6845350162699262
% es.tEy (V/m) @ t=0.04
0
% es.tEz (V/m) @ t=0.04
-2.185867339205954
% V (V) @ t=0.04
0.011533774794125696
% es.normE (V/m) @ t=0.06
2.315685176831935
% es.EX (V/m) @ t=0.06
-0.6908153902412124
% es.EY (V/m) @ t=0.06
0.05160139340527686
% es.EZ (V/m) @ t=0.06
-2.205921923518292
% es.tEX (V/m) @ t=0.06
-0.6908153902412195
% es.tEY (V/m) @ t=0.06
0
% es.tEZ (V/m) @ t=0.06
-2.205921923518302
% es.Ex (V/m) @ t=0.06
-0.6908153902412124
% es.Ey (V/m) @ t=0.06
0.05160139340527686
% es.Ez (V/m) @ t=0.06
-2.205921923518292
% es.tEx (V/m) @ t=0.06
-0.6908153902412195
% es.tEy (V/m) @ t=0.06
0
% es.tEz (V/m) @ t=0.06
-2.205921923518302
% V (V) @ t=0.06
0.011639593244657553
% es.normE (V/m) @ t=0.08
2.3371470397748286
% es.EX (V/m) @ t=0.08
-0.6972178948881191
% es.EY (V/m) @ t=0.08
0.052079637134207796
% es.EZ (V/m) @ t=0.08
-2.226366496250317
% es.tEX (V/m) @ t=0.08
-0.69721789488813
% es.tEY (V/m) @ t=0.08
0
% es.tEZ (V/m) @ t=0.08
-2.2263664962503347
% es.Ex (V/m) @ t=0.08
-0.6972178948881191
% es.Ey (V/m) @ t=0.08
0.052079637134207796
% es.Ez (V/m) @ t=0.08
-2.226366496250317
% es.tEx (V/m) @ t=0.08
-0.69721789488813
% es.tEy (V/m) @ t=0.08
0
% es.tEz (V/m) @ t=0.08
-2.2263664962503347
% V (V) @ t=0.08
0.011747469463405342
% es.normE (V/m) @ t=0.1
2.3587096751616987
% es.EX (V/m) @ t=0.1
-0.7036504620532523
% es.EY (V/m) @ t=0.1
0.05256012648808725
% es.EZ (V/m) @ t=0.1
-2.2469070647992506
% es.tEX (V/m) @ t=0.1
-0.703650462053254
% es.tEY (V/m) @ t=0.1
0
% es.tEZ (V/m) @ t=0.1
-2.24690706479927
% es.Ex (V/m) @ t=0.1
-0.7036504620532523
% es.Ey (V/m) @ t=0.1
0.05256012648808725
% es.Ez (V/m) @ t=0.1
-2.2469070647992506
% es.tEx (V/m) @ t=0.1
-0.703650462053254
% es.tEy (V/m) @ t=0.1
0
% es.tEz (V/m) @ t=0.1
-2.24690706479927
% V (V) @ t=0.1
0.01185585220268266
% es.normE (V/m) @ t=0.12
2.380272310548543
% es.EX (V/m) @ t=0.12
-0.7100830292183807
% es.EY (V/m) @ t=0.12
0.05304061584195838
% es.EZ (V/m) @ t=0.12
-2.2674476333481577
% es.tEX (V/m) @ t=0.12
-0.7100830292183815
% es.tEY (V/m) @ t=0.12
0
% es.tEZ (V/m) @ t=0.12
-2.2674476333481826
% es.Ex (V/m) @ t=0.12
-0.7100830292183807
% es.Ey (V/m) @ t=0.12
0.05304061584195838
% es.Ez (V/m) @ t=0.12
-2.2674476333481577
% es.tEx (V/m) @ t=0.12
-0.7100830292183815
% es.tEy (V/m) @ t=0.12
0
% es.tEz (V/m) @ t=0.12
-2.2674476333481826
% V (V) @ t=0.12
0.011964234941959978
% es.normE (V/m) @ t=0.14
2.4024922752281332
% es.EX (V/m) @ t=0.14
-0.7167116908886205
% es.EY (V/m) @ t=0.14
0.053535752666442005
% es.EZ (V/m) @ t=0.14
-2.2886143738534246
% es.tEX (V/m) @ t=0.14
-0.7167116908886264
% es.tEY (V/m) @ t=0.14
0
% es.tEZ (V/m) @ t=0.14
-2.288614373853445
% es.Ex (V/m) @ t=0.14
-0.7167116908886205
% es.Ey (V/m) @ t=0.14
0.053535752666442005
% es.Ez (V/m) @ t=0.14
-2.2886143738534246
% es.tEx (V/m) @ t=0.14
-0.7167116908886264
% es.tEy (V/m) @ t=0.14
0
% es.tEz (V/m) @ t=0.14
-2.288614373853445
% V (V) @ t=0.14
0.012075921693636676
% es.normE (V/m) @ t=0.16
2.425130426744224
% es.EX (V/m) @ t=0.16
-0.7234651060753389
% es.EY (V/m) @ t=0.16
0.054040208076715335
% es.EZ (V/m) @ t=0.16
-2.3101794791850025
% es.tEX (V/m) @ t=0.16
-0.7234651060753414
% es.tEY (V/m) @ t=0.16
0
% es.tEZ (V/m) @ t=0.16
-2.3101794791850327
% es.Ex (V/m) @ t=0.16
-0.7234651060753389
% es.Ey (V/m) @ t=0.16
0.054040208076715335
% es.Ez (V/m) @ t=0.16
-2.3101794791850025
% es.tEx (V/m) @ t=0.16
-0.7234651060753414
% es.tEy (V/m) @ t=0.16
0
% es.tEz (V/m) @ t=0.16
-2.3101794791850327
% V (V) @ t=0.16
0.012189710427544177
% es.normE (V/m) @ t=0.18
2.4477685782603067
% es.EX (V/m) @ t=0.18
-0.7302185212620419
% es.EY (V/m) @ t=0.18
0.05454466348696545
% es.EZ (V/m) @ t=0.18
-2.331744584516575
% es.tEX (V/m) @ t=0.18
-0.7302185212620458
% es.tEY (V/m) @ t=0.18
0
% es.tEZ (V/m) @ t=0.18
-2.331744584516599
% es.Ex (V/m) @ t=0.18
-0.7302185212620419
% es.Ey (V/m) @ t=0.18
0.05454466348696545
% es.Ez (V/m) @ t=0.18
-2.331744584516575
% es.tEx (V/m) @ t=0.18
-0.7302185212620458
% es.tEy (V/m) @ t=0.18
0
% es.tEz (V/m) @ t=0.18
-2.331744584516599
% V (V) @ t=0.18
0.012303499161451681
% es.normE (V/m) @ t=0.2
2.4704067297764123
% es.EX (V/m) @ t=0.2
-0.7369719364487666
% es.EY (V/m) @ t=0.2
0.055049118897229896
% es.EZ (V/m) @ t=0.2
-2.3533096898481674
% es.tEX (V/m) @ t=0.2
-0.7369719364487715
% es.tEY (V/m) @ t=0.2
0
% es.tEZ (V/m) @ t=0.2
-2.353309689848188
% es.Ex (V/m) @ t=0.2
-0.7369719364487666
% es.Ey (V/m) @ t=0.2
0.055049118897229896
% es.Ez (V/m) @ t=0.2
-2.3533096898481674
% es.tEx (V/m) @ t=0.2
-0.7369719364487715
% es.tEy (V/m) @ t=0.2
0
% es.tEz (V/m) @ t=0.2
-2.353309689848188
% V (V) @ t=0.2
0.012417287895359185
% es.normE (V/m) @ t=0.22
2.493044881292496
% es.EX (V/m) @ t=0.22
-0.7437253516354768
% es.EY (V/m) @ t=0.22
0.05555357430747841
% es.EZ (V/m) @ t=0.22
-2.374874795179739
% es.tEX (V/m) @ t=0.22
-0.7437253516354829
% es.tEY (V/m) @ t=0.22
0
% es.tEZ (V/m) @ t=0.22
-2.3748747951797684
% es.Ex (V/m) @ t=0.22
-0.7437253516354768
% es.Ey (V/m) @ t=0.22
0.05555357430747841
% es.Ez (V/m) @ t=0.22
-2.374874795179739
% es.tEx (V/m) @ t=0.22
-0.7437253516354829
% es.tEy (V/m) @ t=0.22
0
% es.tEz (V/m) @ t=0.22
-2.3748747951797684
% V (V) @ t=0.22
0.01253107662926669
% es.normE (V/m) @ t=0.24
2.515683032808585
% es.EX (V/m) @ t=0.24
-0.7504787668221882
% es.EY (V/m) @ t=0.24
0.056058029717741306
% es.EZ (V/m) @ t=0.24
-2.396439900511317
% es.tEX (V/m) @ t=0.24
-0.7504787668222015
% es.tEY (V/m) @ t=0.24
0
% es.tEZ (V/m) @ t=0.24
-2.396439900511349
% es.Ex (V/m) @ t=0.24
-0.7504787668221882
% es.Ey (V/m) @ t=0.24
0.056058029717741306
% es.Ez (V/m) @ t=0.24
-2.396439900511317
% es.tEx (V/m) @ t=0.24
-0.7504787668222015
% es.tEy (V/m) @ t=0.24
0
% es.tEz (V/m) @ t=0.24
-2.396439900511349
% V (V) @ t=0.24
0.01264486536317419
% es.normE (V/m) @ t=0.26
2.5388699412880165
% es.EX (V/m) @ t=0.26
-0.7573958871884646
% es.EY (V/m) @ t=0.26
0.05657471331316952
% es.EZ (V/m) @ t=0.26
-2.418527751791859
% es.tEX (V/m) @ t=0.26
-0.7573958871884656
% es.tEY (V/m) @ t=0.26
0
% es.tEZ (V/m) @ t=0.26
-2.418527751791885
% es.Ex (V/m) @ t=0.26
-0.7573958871884646
% es.Ey (V/m) @ t=0.26
0.05657471331316952
% es.Ez (V/m) @ t=0.26
-2.418527751791859
% es.tEx (V/m) @ t=0.26
-0.7573958871884656
% es.tEy (V/m) @ t=0.26
0
% es.tEz (V/m) @ t=0.26
-2.418527751791885
% V (V) @ t=0.26
0.012761412377375363
% es.normE (V/m) @ t=0.28
2.5639087688814532
% es.EX (V/m) @ t=0.28
-0.7648654720724568
% es.EY (V/m) @ t=0.28
0.057132664011075626
% es.EZ (V/m) @ t=0.28
-2.44237974144208
% es.tEX (V/m) @ t=0.28
-0.7648654720724579
% es.tEY (V/m) @ t=0.28
0
% es.tEZ (V/m) @ t=0.28
-2.4423797414420934
% es.Ex (V/m) @ t=0.28
-0.7648654720724568
% es.Ey (V/m) @ t=0.28
0.057132664011075626
% es.Ez (V/m) @ t=0.28
-2.44237974144208
% es.tEx (V/m) @ t=0.28
-0.7648654720724579
% es.tEy (V/m) @ t=0.28
0
% es.tEz (V/m) @ t=0.28
-2.4423797414420934
% V (V) @ t=0.28
0.01288726790579835
% es.normE (V/m) @ t=0.3
2.5889475964748803
% es.EX (V/m) @ t=0.3
-0.7723350569564567
% es.EY (V/m) @ t=0.3
0.05769061470896805
% es.EZ (V/m) @ t=0.3
-2.4662317310922877
% es.tEX (V/m) @ t=0.3
-0.7723350569564573
% es.tEY (V/m) @ t=0.3
0
% es.tEZ (V/m) @ t=0.3
-2.466231731092302
% es.Ex (V/m) @ t=0.3
-0.7723350569564567
% es.Ey (V/m) @ t=0.3
0.05769061470896805
% es.Ez (V/m) @ t=0.3
-2.4662317310922877
% es.tEx (V/m) @ t=0.3
-0.7723350569564573
% es.tEy (V/m) @ t=0.3
0
% es.tEz (V/m) @ t=0.3
-2.466231731092302
% V (V) @ t=0.3
0.013013123434221334
% es.normE (V/m) @ t=0.32
2.61398642406828
% es.EX (V/m) @ t=0.32
-0.7798046418404372
% es.EY (V/m) @ t=0.32
0.05824856540687287
% es.EZ (V/m) @ t=0.32
-2.490083720742473
% es.tEX (V/m) @ t=0.32
-0.7798046418404425
% es.tEY (V/m) @ t=0.32
0
% es.tEZ (V/m) @ t=0.32
-2.4900837207424953
% es.Ex (V/m) @ t=0.32
-0.7798046418404372
% es.Ey (V/m) @ t=0.32
0.05824856540687287
% es.Ez (V/m) @ t=0.32
-2.490083720742473
% es.tEx (V/m) @ t=0.32
-0.7798046418404425
% es.tEy (V/m) @ t=0.32
0
% es.tEz (V/m) @ t=0.32
-2.4900837207424953
% V (V) @ t=0.32
0.01313897896264432
% es.normE (V/m) @ t=0.34
2.6390252516617023
% es.EX (V/m) @ t=0.34
-0.7872742267244268
% es.EY (V/m) @ t=0.34
0.05880651610477562
% es.EZ (V/m) @ t=0.34
-2.513935710392679
% es.tEX (V/m) @ t=0.34
-0.7872742267244277
% es.tEY (V/m) @ t=0.34
0
% es.tEZ (V/m) @ t=0.34
-2.513935710392703
% es.Ex (V/m) @ t=0.34
-0.7872742267244268
% es.Ey (V/m) @ t=0.34
0.05880651610477562
% es.Ez (V/m) @ t=0.34
-2.513935710392679
% es.tEx (V/m) @ t=0.34
-0.7872742267244277
% es.tEy (V/m) @ t=0.34
0
% es.tEz (V/m) @ t=0.34
-2.513935710392703
% V (V) @ t=0.34
0.013264834491067306
% es.normE (V/m) @ t=0.36
2.6640640792551395
% es.EX (V/m) @ t=0.36
-0.7947438116084135
% es.EY (V/m) @ t=0.36
0.05936446680269092
% es.EZ (V/m) @ t=0.36
-2.5377877000429008
% es.tEX (V/m) @ t=0.36
-0.79474381160842
% es.tEY (V/m) @ t=0.36
0
% es.tEZ (V/m) @ t=0.36
-2.5377877000429105
% es.Ex (V/m) @ t=0.36
-0.7947438116084135
% es.Ey (V/m) @ t=0.36
0.05936446680269092
% es.Ez (V/m) @ t=0.36
-2.5377877000429008
% es.tEx (V/m) @ t=0.36
-0.79474381160842
% es.tEy (V/m) @ t=0.36
0
% es.tEz (V/m) @ t=0.36
-2.5377877000429105
% V (V) @ t=0.36
0.013390690019490293
% es.normE (V/m) @ t=0.38
2.6891029068485466
% es.EX (V/m) @ t=0.38
-0.8022133964923985
% es.EY (V/m) @ t=0.38
0.059922417500581734
% es.EZ (V/m) @ t=0.38
-2.5616396896930933
% es.tEX (V/m) @ t=0.38
-0.8022133964924052
% es.tEY (V/m) @ t=0.38
0
% es.tEZ (V/m) @ t=0.38
-2.561639689693104
% es.Ex (V/m) @ t=0.38
-0.8022133964923985
% es.Ey (V/m) @ t=0.38
0.059922417500581734
% es.Ez (V/m) @ t=0.38
-2.5616396896930933
% es.tEx (V/m) @ t=0.38
-0.8022133964924052
% es.tEy (V/m) @ t=0.38
0
% es.tEz (V/m) @ t=0.38
-2.561639689693104
% V (V) @ t=0.38
0.013516545547913277
% es.normE (V/m) @ t=0.4
2.7141417344419567
% es.EX (V/m) @ t=0.4
-0.8096829813763895
% es.EY (V/m) @ t=0.4
0.06048036819849148
% es.EZ (V/m) @ t=0.4
-2.585491679343286
% es.tEX (V/m) @ t=0.4
-0.8096829813763833
% es.tEY (V/m) @ t=0.4
0
% es.tEZ (V/m) @ t=0.4
-2.5854916793433116
% es.Ex (V/m) @ t=0.4
-0.8096829813763895
% es.Ey (V/m) @ t=0.4
0.06048036819849148
% es.Ez (V/m) @ t=0.4
-2.585491679343286
% es.tEx (V/m) @ t=0.4
-0.8096829813763833
% es.tEy (V/m) @ t=0.4
0
% es.tEz (V/m) @ t=0.4
-2.5854916793433116
% V (V) @ t=0.4
0.01364240107633626
% es.normE (V/m) @ t=0.42
2.739180562035396
% es.EX (V/m) @ t=0.42
-0.8171525662603878
% es.EY (V/m) @ t=0.42
0.06103831889639627
% es.EZ (V/m) @ t=0.42
-2.609343668993507
% es.tEX (V/m) @ t=0.42
-0.8171525662603898
% es.tEY (V/m) @ t=0.42
0
% es.tEZ (V/m) @ t=0.42
-2.609343668993535
% es.Ex (V/m) @ t=0.42
-0.8171525662603878
% es.Ey (V/m) @ t=0.42
0.06103831889639627
% es.Ez (V/m) @ t=0.42
-2.609343668993507
% es.tEx (V/m) @ t=0.42
-0.8171525662603898
% es.tEy (V/m) @ t=0.42
0
% es.tEz (V/m) @ t=0.42
-2.609343668993535
% V (V) @ t=0.42
0.013768256604759247
% es.normE (V/m) @ t=0.44
2.7642193896288054
% es.EX (V/m) @ t=0.44
-0.8246221511443719
% es.EY (V/m) @ t=0.44
0.061596269594294026
% es.EZ (V/m) @ t=0.44
-2.6331956586437
% es.tEX (V/m) @ t=0.44
-0.824622151144375
% es.tEY (V/m) @ t=0.44
0
% es.tEZ (V/m) @ t=0.44
-2.6331956586437144
% es.Ex (V/m) @ t=0.44
-0.8246221511443719
% es.Ey (V/m) @ t=0.44
0.061596269594294026
% es.Ez (V/m) @ t=0.44
-2.6331956586437
% es.tEx (V/m) @ t=0.44
-0.824622151144375
% es.tEy (V/m) @ t=0.44
0
% es.tEz (V/m) @ t=0.44
-2.6331956586437144
% V (V) @ t=0.44
0.013894112133182233
% es.normE (V/m) @ t=0.46
2.789258217222228
% es.EX (V/m) @ t=0.46
-0.8320917360283595
% es.EY (V/m) @ t=0.46
0.06215422029220394
% es.EZ (V/m) @ t=0.46
-2.657047648293907
% es.tEX (V/m) @ t=0.46
-0.8320917360283602
% es.tEY (V/m) @ t=0.46
0
% es.tEZ (V/m) @ t=0.46
-2.657047648293924
% es.Ex (V/m) @ t=0.46
-0.8320917360283595
% es.Ey (V/m) @ t=0.46
0.06215422029220394
% es.Ez (V/m) @ t=0.46
-2.657047648293907
% es.tEx (V/m) @ t=0.46
-0.8320917360283602
% es.tEy (V/m) @ t=0.46
0
% es.tEz (V/m) @ t=0.46
-2.657047648293924
% V (V) @ t=0.46
0.014019967661605218
% es.normE (V/m) @ t=0.48
2.8142970448156386
% es.EX (V/m) @ t=0.48
-0.8395613209123525
% es.EY (V/m) @ t=0.48
0.06271217099011206
% es.EZ (V/m) @ t=0.48
-2.6808996379440995
% es.tEX (V/m) @ t=0.48
-0.8395613209123596
% es.tEY (V/m) @ t=0.48
0
% es.tEZ (V/m) @ t=0.48
-2.6808996379441297
% es.Ex (V/m) @ t=0.48
-0.8395613209123525
% es.Ey (V/m) @ t=0.48
0.06271217099011206
% es.Ez (V/m) @ t=0.48
-2.6808996379440995
% es.tEx (V/m) @ t=0.48
-0.8395613209123596
% es.tEy (V/m) @ t=0.48
0
% es.tEz (V/m) @ t=0.48
-2.6808996379441297
% V (V) @ t=0.48
0.014145823190028203
% es.normE (V/m) @ t=0.5
2.8393358724090545
% es.EX (V/m) @ t=0.5
-0.8470309057963382
% es.EY (V/m) @ t=0.5
0.0632701216880114
% es.EZ (V/m) @ t=0.5
-2.704751627594299
% es.tEX (V/m) @ t=0.5
-0.8470309057963448
% es.tEY (V/m) @ t=0.5
0
% es.tEZ (V/m) @ t=0.5
-2.7047516275943373
% es.Ex (V/m) @ t=0.5
-0.8470309057963382
% es.Ey (V/m) @ t=0.5
0.0632701216880114
% es.Ez (V/m) @ t=0.5
-2.704751627594299
% es.tEx (V/m) @ t=0.5
-0.8470309057963448
% es.tEy (V/m) @ t=0.5
0
% es.tEz (V/m) @ t=0.5
-2.7047516275943373
% V (V) @ t=0.5
0.014271678718451187
% es.normE (V/m) @ t=0.52
2.8656250231147675
% es.EX (V/m) @ t=0.52
-0.8548734872643744
% es.EY (V/m) @ t=0.52
0.06385593391190966
% es.EZ (V/m) @ t=0.52
-2.729794675133931
% es.tEX (V/m) @ t=0.52
-0.8548734872643777
% es.tEY (V/m) @ t=0.52
0
% es.tEZ (V/m) @ t=0.52
-2.7297946751339683
% es.Ex (V/m) @ t=0.52
-0.8548734872643744
% es.Ey (V/m) @ t=0.52
0.06385593391190966
% es.Ez (V/m) @ t=0.52
-2.729794675133931
% es.tEx (V/m) @ t=0.52
-0.8548734872643777
% es.tEy (V/m) @ t=0.52
0
% es.tEz (V/m) @ t=0.52
-2.7297946751339683
% V (V) @ t=0.52
0.014403818886282912
% es.normE (V/m) @ t=0.54
2.8933619917660267
% es.EX (V/m) @ t=0.54
-0.8631479820056251
% es.EY (V/m) @ t=0.54
0.0644740085301426
% es.EZ (V/m) @ t=0.54
-2.7562169141557824
% es.tEX (V/m) @ t=0.54
-0.8631479820056285
% es.tEY (V/m) @ t=0.54
0
% es.tEZ (V/m) @ t=0.54
-2.7562169141558037
% es.Ex (V/m) @ t=0.54
-0.8631479820056251
% es.Ey (V/m) @ t=0.54
0.0644740085301426
% es.Ez (V/m) @ t=0.54
-2.7562169141557824
% es.tEx (V/m) @ t=0.54
-0.8631479820056285
% es.tEy (V/m) @ t=0.54
0
% es.tEz (V/m) @ t=0.54
-2.7562169141558037
% V (V) @ t=0.54
0.014543236383972976
% es.normE (V/m) @ t=0.56
2.921098960417287
% es.EX (V/m) @ t=0.56
-0.8714224767468828
% es.EY (V/m) @ t=0.56
0.06509208314837599
% es.EZ (V/m) @ t=0.56
-2.7826391531776347
% es.tEX (V/m) @ t=0.56
-0.8714224767468934
% es.tEY (V/m) @ t=0.56
0
% es.tEZ (V/m) @ t=0.56
-2.7826391531776533
% es.Ex (V/m) @ t=0.56
-0.8714224767468828
% es.Ey (V/m) @ t=0.56
0.06509208314837599
% es.Ez (V/m) @ t=0.56
-2.7826391531776347
% es.tEx (V/m) @ t=0.56
-0.8714224767468934
% es.tEy (V/m) @ t=0.56
0
% es.tEz (V/m) @ t=0.56
-2.7826391531776533
% V (V) @ t=0.56
0.014682653881663035
% es.normE (V/m) @ t=0.58
2.9488359290685437
% es.EX (V/m) @ t=0.58
-0.8796969714881298
% es.EY (V/m) @ t=0.58
0.065710157766604
% es.EZ (V/m) @ t=0.58
-2.809061392199486
% es.tEX (V/m) @ t=0.58
-0.8796969714881371
% es.tEY (V/m) @ t=0.58
0
% es.tEZ (V/m) @ t=0.58
-2.8090613921995153
% es.Ex (V/m) @ t=0.58
-0.8796969714881298
% es.Ey (V/m) @ t=0.58
0.065710157766604
% es.Ez (V/m) @ t=0.58
-2.809061392199486
% es.tEx (V/m) @ t=0.58
-0.8796969714881371
% es.tEy (V/m) @ t=0.58
0
% es.tEz (V/m) @ t=0.58
-2.8090613921995153
% V (V) @ t=0.58
0.014822071379353095
% es.normE (V/m) @ t=0.6
2.9765728977198456
% es.EX (V/m) @ t=0.6
-0.8879714662293912
% es.EY (V/m) @ t=0.6
0.0663282323848351
% es.EZ (V/m) @ t=0.6
-2.83548363122138
% es.tEX (V/m) @ t=0.6
-0.887971466229402
% es.tEY (V/m) @ t=0.6
0
% es.tEZ (V/m) @ t=0.6
-2.8354836312214236
% es.Ex (V/m) @ t=0.6
-0.8879714662293912
% es.Ey (V/m) @ t=0.6
0.0663282323848351
% es.Ez (V/m) @ t=0.6
-2.83548363122138
% es.tEx (V/m) @ t=0.6
-0.887971466229402
% es.tEy (V/m) @ t=0.6
0
% es.tEz (V/m) @ t=0.6
-2.8354836312214236
% V (V) @ t=0.6
0.014961488877043157
% es.normE (V/m) @ t=0.62
3.0043098663711056
% es.EX (V/m) @ t=0.62
-0.8962459609706452
% es.EY (V/m) @ t=0.62
0.0669463070030849
% es.EZ (V/m) @ t=0.62
-2.8619058702432314
% es.tEX (V/m) @ t=0.62
-0.8962459609706457
% es.tEY (V/m) @ t=0.62
0
% es.tEZ (V/m) @ t=0.62
-2.8619058702432447
% es.Ex (V/m) @ t=0.62
-0.8962459609706452
% es.Ey (V/m) @ t=0.62
0.0669463070030849
% es.Ez (V/m) @ t=0.62
-2.8619058702432314
% es.tEx (V/m) @ t=0.62
-0.8962459609706457
% es.tEy (V/m) @ t=0.62
0
% es.tEz (V/m) @ t=0.62
-2.8619058702432447
% V (V) @ t=0.62
0.015100906374733221
% es.normE (V/m) @ t=0.64
3.0320468350223795
% es.EX (V/m) @ t=0.64
-0.9045204557118993
% es.EY (V/m) @ t=0.64
0.0675643816213374
% es.EZ (V/m) @ t=0.64
-2.8883281092650988
% es.tEX (V/m) @ t=0.64
-0.9045204557119106
% es.tEY (V/m) @ t=0.64
0
% es.tEZ (V/m) @ t=0.64
-2.888328109265137
% es.Ex (V/m) @ t=0.64
-0.9045204557118993
% es.Ey (V/m) @ t=0.64
0.0675643816213374
% es.Ez (V/m) @ t=0.64
-2.8883281092650988
% es.tEx (V/m) @ t=0.64
-0.9045204557119106
% es.tEy (V/m) @ t=0.64
0
% es.tEz (V/m) @ t=0.64
-2.888328109265137
% V (V) @ t=0.64
0.01524032387242328
% es.normE (V/m) @ t=0.66
3.05978380367367
% es.EX (V/m) @ t=0.66
-0.9127949504531658
% es.EY (V/m) @ t=0.66
0.06818245623956147
% es.EZ (V/m) @ t=0.66
-2.9147503482869785
% es.tEX (V/m) @ t=0.66
-0.9127949504531685
% es.tEY (V/m) @ t=0.66
0
% es.tEZ (V/m) @ t=0.66
-2.9147503482870025
% es.Ex (V/m) @ t=0.66
-0.9127949504531658
% es.Ey (V/m) @ t=0.66
0.06818245623956147
% es.Ez (V/m) @ t=0.66
-2.9147503482869785
% es.tEx (V/m) @ t=0.66
-0.9127949504531685
% es.tEy (V/m) @ t=0.66
0
% es.tEz (V/m) @ t=0.66
-2.9147503482870025
% V (V) @ t=0.66
0.015379741370113342
% es.normE (V/m) @ t=0.68
3.087520772324898
% es.EX (V/m) @ t=0.68
-0.9210694451944079
% es.EY (V/m) @ t=0.68
0.06880053085780227
% es.EZ (V/m) @ t=0.68
-2.9411725873088006
% es.tEX (V/m) @ t=0.68
-0.9210694451944192
% es.tEY (V/m) @ t=0.68
0
% es.tEZ (V/m) @ t=0.68
-2.9411725873088503
% es.Ex (V/m) @ t=0.68
-0.9210694451944079
% es.Ey (V/m) @ t=0.68
0.06880053085780227
% es.Ez (V/m) @ t=0.68
-2.9411725873088006
% es.tEx (V/m) @ t=0.68
-0.9210694451944192
% es.tEy (V/m) @ t=0.68
0
% es.tEz (V/m) @ t=0.68
-2.9411725873088503
% V (V) @ t=0.68
0.0155191588678034
% es.normE (V/m) @ t=0.7
3.115257740976215
% es.EX (V/m) @ t=0.7
-0.9293439399356762
% es.EY (V/m) @ t=0.7
0.06941860547604364
% es.EZ (V/m) @ t=0.7
-2.967594826330709
% es.tEX (V/m) @ t=0.7
-0.9293439399356771
% es.tEY (V/m) @ t=0.7
0
% es.tEZ (V/m) @ t=0.7
-2.967594826330732
% es.Ex (V/m) @ t=0.7
-0.9293439399356762
% es.Ey (V/m) @ t=0.7
0.06941860547604364
% es.Ez (V/m) @ t=0.7
-2.967594826330709
% es.tEx (V/m) @ t=0.7
-0.9293439399356771
% es.tEy (V/m) @ t=0.7
0
% es.tEz (V/m) @ t=0.7
-2.967594826330732
% V (V) @ t=0.7
0.015658576365493462
% es.normE (V/m) @ t=0.72
3.142994709627474
% es.EX (V/m) @ t=0.72
-0.9376184346769234
% es.EY (V/m) @ t=0.72
0.07003668009427215
% es.EZ (V/m) @ t=0.72
-2.994017065352561
% es.tEX (V/m) @ t=0.72
-0.937618434676935
% es.tEY (V/m) @ t=0.72
0
% es.tEZ (V/m) @ t=0.72
-2.994017065352578
% es.Ex (V/m) @ t=0.72
-0.9376184346769234
% es.Ey (V/m) @ t=0.72
0.07003668009427215
% es.Ez (V/m) @ t=0.72
-2.994017065352561
% es.tEx (V/m) @ t=0.72
-0.937618434676935
% es.tEy (V/m) @ t=0.72
0
% es.tEz (V/m) @ t=0.72
-2.994017065352578
% V (V) @ t=0.72
0.015797993863183524
% es.normE (V/m) @ t=0.74
3.170731678278722
% es.EX (V/m) @ t=0.74
-0.945892929418179
% es.EY (V/m) @ t=0.74
0.070654754712518
% es.EZ (V/m) @ t=0.74
-3.0204393043744
% es.tEX (V/m) @ t=0.74
-0.9458929294181857
% es.tEY (V/m) @ t=0.74
0
% es.tEZ (V/m) @ t=0.74
-3.0204393043744435
% es.Ex (V/m) @ t=0.74
-0.945892929418179
% es.Ey (V/m) @ t=0.74
0.070654754712518
% es.Ez (V/m) @ t=0.74
-3.0204393043744
% es.tEx (V/m) @ t=0.74
-0.9458929294181857
% es.tEy (V/m) @ t=0.74
0
% es.tEz (V/m) @ t=0.74
-3.0204393043744435
% V (V) @ t=0.74
0.015937411360873587
% es.normE (V/m) @ t=0.76
3.1984686469300208
% es.EX (V/m) @ t=0.76
-0.9541674241594349
% es.EY (V/m) @ t=0.76
0.07127282933075271
% es.EZ (V/m) @ t=0.76
-3.046861543396294
% es.tEX (V/m) @ t=0.76
-0.9541674241594436
% es.tEY (V/m) @ t=0.76
0
% es.tEZ (V/m) @ t=0.76
-3.0468615433963215
% es.Ex (V/m) @ t=0.76
-0.9541674241594349
% es.Ey (V/m) @ t=0.76
0.07127282933075271
% es.Ez (V/m) @ t=0.76
-3.046861543396294
% es.tEx (V/m) @ t=0.76
-0.9541674241594436
% es.tEy (V/m) @ t=0.76
0
% es.tEz (V/m) @ t=0.76
-3.0468615433963215
% V (V) @ t=0.76
0.016076828858563645
% es.normE (V/m) @ t=0.78
3.2283266211657953
% es.EX (V/m) @ t=0.78
-0.9630746574715493
% es.EY (V/m) @ t=0.78
0.07193816722340918
% es.EZ (V/m) @ t=0.78
-3.07530425253928
% es.tEX (V/m) @ t=0.78
-0.9630746574715587
% es.tEY (V/m) @ t=0.78
0
% es.tEZ (V/m) @ t=0.78
-3.07530425253932
% es.Ex (V/m) @ t=0.78
-0.9630746574715493
% es.Ey (V/m) @ t=0.78
0.07193816722340918
% es.Ez (V/m) @ t=0.78
-3.07530425253928
% es.tEx (V/m) @ t=0.78
-0.9630746574715587
% es.tEy (V/m) @ t=0.78
0
% es.tEz (V/m) @ t=0.78
-3.07530425253932
% V (V) @ t=0.78
0.016226907408753908
% es.normE (V/m) @ t=0.8
3.2591013265479702
% es.EX (V/m) @ t=0.8
-0.9722553700991405
% es.EY (V/m) @ t=0.8
0.0726239330282057
% es.EZ (V/m) @ t=0.8
-3.1046202398593534
% es.tEX (V/m) @ t=0.8
-0.9722553700991483
% es.tEY (V/m) @ t=0.8
0
% es.tEZ (V/m) @ t=0.8
-3.1046202398593703
% es.Ex (V/m) @ t=0.8
-0.9722553700991405
% es.Ey (V/m) @ t=0.8
0.0726239330282057
% es.Ez (V/m) @ t=0.8
-3.1046202398593534
% es.tEx (V/m) @ t=0.8
-0.9722553700991483
% es.tEy (V/m) @ t=0.8
0
% es.tEz (V/m) @ t=0.8
-3.1046202398593703
% V (V) @ t=0.8
0.01638159382935771
% es.normE (V/m) @ t=0.82
3.2898760319301137
% es.EX (V/m) @ t=0.82
-0.9814360827267247
% es.EY (V/m) @ t=0.82
0.07330969883300932
% es.EZ (V/m) @ t=0.82
-3.1339362271793982
% es.tEX (V/m) @ t=0.82
-0.9814360827267308
% es.tEY (V/m) @ t=0.82
0
% es.tEZ (V/m) @ t=0.82
-3.1339362271794187
% es.Ex (V/m) @ t=0.82
-0.9814360827267247
% es.Ey (V/m) @ t=0.82
0.07330969883300932
% es.Ez (V/m) @ t=0.82
-3.1339362271793982
% es.tEx (V/m) @ t=0.82
-0.9814360827267308
% es.tEy (V/m) @ t=0.82
0
% es.tEz (V/m) @ t=0.82
-3.1339362271794187
% V (V) @ t=0.82
0.016536280249961517
% es.normE (V/m) @ t=0.84
3.320650737312276
% es.EX (V/m) @ t=0.84
-0.990616795354323
% es.EY (V/m) @ t=0.84
0.07399546463782405
% es.EZ (V/m) @ t=0.84
-3.1632522144994564
% es.tEX (V/m) @ t=0.84
-0.9906167953543275
% es.tEY (V/m) @ t=0.84
0
% es.tEZ (V/m) @ t=0.84
-3.163252214499483
% es.Ex (V/m) @ t=0.84
-0.990616795354323
% es.Ey (V/m) @ t=0.84
0.07399546463782405
% es.Ez (V/m) @ t=0.84
-3.1632522144994564
% es.tEx (V/m) @ t=0.84
-0.9906167953543275
% es.tEy (V/m) @ t=0.84
0
% es.tEz (V/m) @ t=0.84
-3.163252214499483
% V (V) @ t=0.84
0.01669096667056532
% es.normE (V/m) @ t=0.86
3.351425442694411
% es.EX (V/m) @ t=0.86
-0.9997975079819215
% es.EY (V/m) @ t=0.86
0.07468123044261392
% es.EZ (V/m) @ t=0.86
-3.192568201819487
% es.tEX (V/m) @ t=0.86
-0.9997975079819312
% es.tEY (V/m) @ t=0.86
0
% es.tEZ (V/m) @ t=0.86
-3.1925682018195207
% es.Ex (V/m) @ t=0.86
-0.9997975079819215
% es.Ey (V/m) @ t=0.86
0.07468123044261392
% es.Ez (V/m) @ t=0.86
-3.192568201819487
% es.tEx (V/m) @ t=0.86
-0.9997975079819312
% es.tEy (V/m) @ t=0.86
0
% es.tEz (V/m) @ t=0.86
-3.1925682018195207
% V (V) @ t=0.86
0.01684565309116912
% es.normE (V/m) @ t=0.88
3.3822001480765804
% es.EX (V/m) @ t=0.88
-1.008978220609502
% es.EY (V/m) @ t=0.88
0.07536699624739622
% es.EZ (V/m) @ t=0.88
-3.22188418913956
% es.tEX (V/m) @ t=0.88
-1.0089782206095066
% es.tEY (V/m) @ t=0.88
0
% es.tEZ (V/m) @ t=0.88
-3.2218841891395833
% es.Ex (V/m) @ t=0.88
-1.008978220609502
% es.Ey (V/m) @ t=0.88
0.07536699624739622
% es.Ez (V/m) @ t=0.88
-3.22188418913956
% es.tEx (V/m) @ t=0.88
-1.0089782206095066
% es.tEy (V/m) @ t=0.88
0
% es.tEz (V/m) @ t=0.88
-3.2218841891395833
% V (V) @ t=0.88
0.017000339511772926
% es.normE (V/m) @ t=0.9
3.412974853458715
% es.EX (V/m) @ t=0.9
-1.0181589332370968
% es.EY (V/m) @ t=0.9
0.07605276205220385
% es.EZ (V/m) @ t=0.9
-3.251200176459591
% es.tEX (V/m) @ t=0.9
-1.0181589332371033
% es.tEY (V/m) @ t=0.9
0
% es.tEZ (V/m) @ t=0.9
-3.2512001764596334
% es.Ex (V/m) @ t=0.9
-1.0181589332370968
% es.Ey (V/m) @ t=0.9
0.07605276205220385
% es.Ez (V/m) @ t=0.9
-3.251200176459591
% es.tEx (V/m) @ t=0.9
-1.0181589332371033
% es.tEy (V/m) @ t=0.9
0
% es.tEz (V/m) @ t=0.9
-3.2512001764596334
% V (V) @ t=0.9
0.01715502593237673
% es.normE (V/m) @ t=0.92
3.4437495588408646
% es.EX (V/m) @ t=0.92
-1.0273396458646968
% es.EY (V/m) @ t=0.92
0.07673852785700748
% es.EZ (V/m) @ t=0.92
-3.2805161637796356
% es.tEX (V/m) @ t=0.92
-1.027339645864707
% es.tEY (V/m) @ t=0.92
0
% es.tEZ (V/m) @ t=0.92
-3.280516163779671
% es.Ex (V/m) @ t=0.92
-1.0273396458646968
% es.Ey (V/m) @ t=0.92
0.07673852785700748
% es.Ez (V/m) @ t=0.92
-3.2805161637796356
% es.tEx (V/m) @ t=0.92
-1.027339645864707
% es.tEy (V/m) @ t=0.92
0
% es.tEz (V/m) @ t=0.92
-3.280516163779671
% V (V) @ t=0.92
0.01730971235298053
% es.normE (V/m) @ t=0.94
3.4745242642230423
% es.EX (V/m) @ t=0.94
-1.0365203584922948
% es.EY (V/m) @ t=0.94
0.07742429366179703
% es.EZ (V/m) @ t=0.94
-3.3098321510997106
% es.tEX (V/m) @ t=0.94
-1.0365203584923037
% es.tEY (V/m) @ t=0.94
0
% es.tEZ (V/m) @ t=0.94
-3.3098321510997355
% es.Ex (V/m) @ t=0.94
-1.0365203584922948
% es.Ey (V/m) @ t=0.94
0.07742429366179703
% es.Ez (V/m) @ t=0.94
-3.3098321510997106
% es.tEx (V/m) @ t=0.94
-1.0365203584923037
% es.tEy (V/m) @ t=0.94
0
% es.tEz (V/m) @ t=0.94
-3.3098321510997355
% V (V) @ t=0.94
0.017464398773584338
% es.normE (V/m) @ t=0.96
3.505298969605186
% es.EX (V/m) @ t=0.96
-1.0457010711198809
% es.EY (V/m) @ t=0.96
0.0781100594666011
% es.EZ (V/m) @ t=0.96
-3.3391481384197554
% es.tEX (V/m) @ t=0.96
-1.0457010711198933
% es.tEY (V/m) @ t=0.96
0
% es.tEZ (V/m) @ t=0.96
-3.339148138419784
% es.Ex (V/m) @ t=0.96
-1.0457010711198809
% es.Ey (V/m) @ t=0.96
0.0781100594666011
% es.Ez (V/m) @ t=0.96
-3.3391481384197554
% es.tEx (V/m) @ t=0.96
-1.0457010711198933
% es.tEy (V/m) @ t=0.96
0
% es.tEz (V/m) @ t=0.96
-3.339148138419784
% V (V) @ t=0.96
0.017619085194188137
% es.normE (V/m) @ t=0.98
3.5360736749873483
% es.EX (V/m) @ t=0.98
-1.0548817837474775
% es.EY (V/m) @ t=0.98
0.07879582527140828
% es.EZ (V/m) @ t=0.98
-3.3684641257398136
% es.tEX (V/m) @ t=0.98
-1.054881783747497
% es.tEY (V/m) @ t=0.98
0
% es.tEZ (V/m) @ t=0.98
-3.36846412573985
% es.Ex (V/m) @ t=0.98
-1.0548817837474775
% es.Ey (V/m) @ t=0.98
0.07879582527140828
% es.Ez (V/m) @ t=0.98
-3.3684641257398136
% es.tEx (V/m) @ t=0.98
-1.054881783747497
% es.tEy (V/m) @ t=0.98
0
% es.tEz (V/m) @ t=0.98
-3.36846412573985
% V (V) @ t=0.98
0.01777377161479194
% es.normE (V/m) @ t=1
3.5668483803694957
% es.EX (V/m) @ t=1
-1.0640624963750704
% es.EY (V/m) @ t=1
0.07948159107619815
% es.EZ (V/m) @ t=1
-3.3977801130598584
% es.tEX (V/m) @ t=1
-1.0640624963750867
% es.tEY (V/m) @ t=1
0
% es.tEZ (V/m) @ t=1
-3.397780113059886
% es.Ex (V/m) @ t=1
-1.0640624963750704
% es.Ey (V/m) @ t=1
0.07948159107619815
% es.Ez (V/m) @ t=1
-3.3977801130598584
% es.tEx (V/m) @ t=1
-1.0640624963750867
% es.tEy (V/m) @ t=1
0
% es.tEz (V/m) @ t=1
-3.397780113059886
% V (V) @ t=1
0.017928458035395743
% es.normE (V/m) @ t=1.02
3.597623085751641
% es.EX (V/m) @ t=1.02
-1.073243209002662
% es.EY (V/m) @ t=1.02
0.08016735688098742
% es.EZ (V/m) @ t=1.02
-3.4270961003799023
% es.tEX (V/m) @ t=1.02
-1.0732432090026691
% es.tEY (V/m) @ t=1.02
0
% es.tEZ (V/m) @ t=1.02
-3.427096100379938
% es.Ex (V/m) @ t=1.02
-1.073243209002662
% es.Ey (V/m) @ t=1.02
0.08016735688098742
% es.Ez (V/m) @ t=1.02
-3.4270961003799023
% es.tEx (V/m) @ t=1.02
-1.0732432090026691
% es.tEy (V/m) @ t=1.02
0
% es.tEz (V/m) @ t=1.02
-3.427096100379938
% V (V) @ t=1.02
0.01808314445599955
% es.normE (V/m) @ t=1.04
3.6297981777732176
% es.EX (V/m) @ t=1.04
-1.08284168510604