% Model:              1 neuron.mph
% Version:            COMSOL 6.1.0.252
% Date:               Mar 22 2023, 18:44
% Dimension:          0
% Nodes:              14017
% Expressions:        14017
% Description:        Electric field norm, Electric field, X component, Electric field, Y component, Electric field, Z component, Tangential electric field, X component, Tangential electric field, Y component, Tangential electric field, Z component, Electric field, x component, Electric field, y component, Electric field, z component, Tangential electric field, x component, Tangential electric field, y component, Tangential electric field, z component, Electric potential
% Length unit:        mm
% x
1.33
% y
12.2
% z
1.33
% es.normE (V/m) @ t=0
14.123326239109732
% es.EX (V/m) @ t=0
10.943942646102748
% es.EY (V/m) @ t=0
-1.6769360797056336
% es.EZ (V/m) @ t=0
8.743020317359601
% es.tEX (V/m) @ t=0
10.943942646102814
% es.tEY (V/m) @ t=0
0
% es.tEZ (V/m) @ t=0
8.743020317359587
% es.Ex (V/m) @ t=0
10.943942646102748
% es.Ey (V/m) @ t=0
-1.6769360797056336
% es.Ez (V/m) @ t=0
8.743020317359601
% es.tEx (V/m) @ t=0
10.943942646102814
% es.tEy (V/m) @ t=0
0
% es.tEz (V/m) @ t=0
8.743020317359587
% V (V) @ t=0
0.011663506416700158
% es.normE (V/m) @ t=0.02
12.19841266960768
% es.EX (V/m) @ t=0.02
9.45235749504251
% es.EY (V/m) @ t=0.02
-1.4483810659213159
% es.EZ (V/m) @ t=0.02
7.551405951041981
% es.tEX (V/m) @ t=0.02
9.45235749504253
% es.tEY (V/m) @ t=0.02
0
% es.tEZ (V/m) @ t=0.02
7.551405951041975
% es.Ex (V/m) @ t=0.02
9.45235749504251
% es.Ey (V/m) @ t=0.02
-1.4483810659213159
% es.Ez (V/m) @ t=0.02
7.551405951041981
% es.tEx (V/m) @ t=0.02
9.45235749504253
% es.tEy (V/m) @ t=0.02
0
% es.tEz (V/m) @ t=0.02
7.551405951041975
% V (V) @ t=0.02
0.01007384960206753
% es.normE (V/m) @ t=0.04
12.310577956611786
% es.EX (V/m) @ t=0.04
9.539272606164914
% es.EY (V/m) @ t=0.04
-1.4616990339960818
% es.EZ (V/m) @ t=0.04
7.620841675116894
% es.tEX (V/m) @ t=0.04
9.539272606164957
% es.tEY (V/m) @ t=0.04
0
% es.tEZ (V/m) @ t=0.04
7.620841675116894
% es.Ex (V/m) @ t=0.04
9.539272606164914
% es.Ey (V/m) @ t=0.04
-1.4616990339960818
% es.Ez (V/m) @ t=0.04
7.620841675116894
% es.tEx (V/m) @ t=0.04
9.539272606164957
% es.tEy (V/m) @ t=0.04
0
% es.tEz (V/m) @ t=0.04
7.620841675116894
% V (V) @ t=0.04
0.010166479375586644
% es.normE (V/m) @ t=0.06
12.423547852847436
% es.EX (V/m) @ t=0.06
9.626811195893634
% es.EY (V/m) @ t=0.06
-1.4751125397000173
% es.EZ (V/m) @ t=0.06
7.690775490955325
% es.tEX (V/m) @ t=0.06
9.626811195893646
% es.tEY (V/m) @ t=0.06
0
% es.tEZ (V/m) @ t=0.06
7.690775490955316
% es.Ex (V/m) @ t=0.06
9.626811195893634
% es.Ey (V/m) @ t=0.06
-1.4751125397000173
% es.Ez (V/m) @ t=0.06
7.690775490955325
% es.tEx (V/m) @ t=0.06
9.626811195893646
% es.tEy (V/m) @ t=0.06
0
% es.tEz (V/m) @ t=0.06
7.690775490955316
% V (V) @ t=0.06
0.010259773630274964
% es.normE (V/m) @ t=0.08
12.538710929408976
% es.EX (V/m) @ t=0.08
9.716049246686593
% es.EY (V/m) @ t=0.08
-1.4887864517609515
% es.EZ (V/m) @ t=0.08
7.762066991339736
% es.tEX (V/m) @ t=0.08
9.71604924668662
% es.tEY (V/m) @ t=0.08
0
% es.tEZ (V/m) @ t=0.08
7.762066991339735
% es.Ex (V/m) @ t=0.08
9.716049246686593
% es.Ey (V/m) @ t=0.08
-1.4887864517609515
% es.Ez (V/m) @ t=0.08
7.762066991339736
% es.tEx (V/m) @ t=0.08
9.71604924668662
% es.tEy (V/m) @ t=0.08
0
% es.tEz (V/m) @ t=0.08
7.762066991339735
% V (V) @ t=0.08
0.010354879079999142
% es.normE (V/m) @ t=0.1
12.654420216184361
% es.EX (V/m) @ t=0.1
9.805710547214337
% es.EY (V/m) @ t=0.1
-1.5025252178652106
% es.EZ (V/m) @ t=0.1
7.833696622226917
% es.tEX (V/m) @ t=0.1
9.805710547214387
% es.tEY (V/m) @ t=0.1
0
% es.tEZ (V/m) @ t=0.1
7.833696622226916
% es.Ex (V/m) @ t=0.1
9.805710547214337
% es.Ey (V/m) @ t=0.1
-1.5025252178652106
% es.Ez (V/m) @ t=0.1
7.833696622226917
% es.tEx (V/m) @ t=0.1
9.805710547214387
% es.tEy (V/m) @ t=0.1
0
% es.tEz (V/m) @ t=0.1
7.833696622226916
% V (V) @ t=0.1
0.0104504356067352
% es.normE (V/m) @ t=0.12
12.77012950295979
% es.EX (V/m) @ t=0.12
9.895371847742133
% es.EY (V/m) @ t=0.12
-1.516263983969468
% es.EZ (V/m) @ t=0.12
7.90532625311411
% es.tEX (V/m) @ t=0.12
9.895371847742167
% es.tEY (V/m) @ t=0.12
0
% es.tEZ (V/m) @ t=0.12
7.9053262531141195
% es.Ex (V/m) @ t=0.12
9.895371847742133
% es.Ey (V/m) @ t=0.12
-1.516263983969468
% es.Ez (V/m) @ t=0.12
7.90532625311411
% es.tEx (V/m) @ t=0.12
9.895371847742167
% es.tEy (V/m) @ t=0.12
0
% es.tEz (V/m) @ t=0.12
7.9053262531141195
% V (V) @ t=0.12
0.010545992133471259
% es.normE (V/m) @ t=0.14
12.889347174675446
% es.EX (V/m) @ t=0.14
9.987751740367434
% es.EY (V/m) @ t=0.14
-1.530419319074893
% es.EZ (V/m) @ t=0.14
7.97912774352422
% es.tEX (V/m) @ t=0.14
9.987751740367454
% es.tEY (V/m) @ t=0.14
0
% es.tEZ (V/m) @ t=0.14
7.979127743524222
% es.Ex (V/m) @ t=0.14
9.987751740367434
% es.Ey (V/m) @ t=0.14
-1.530419319074893
% es.Ez (V/m) @ t=0.14
7.97912774352422
% es.tEx (V/m) @ t=0.14
9.987751740367454
% es.tEy (V/m) @ t=0.14
0
% es.tEz (V/m) @ t=0.14
7.979127743524222
% V (V) @ t=0.14
0.010644446000419583
% es.normE (V/m) @ t=0.16
13.01083201477137
% es.EX (V/m) @ t=0.16
10.081888425975034
% es.EY (V/m) @ t=0.16
-1.5448438470094619
% es.EZ (V/m) @ t=0.16
8.054332720530224
% es.tEX (V/m) @ t=0.16
10.081888425975102
% es.tEY (V/m) @ t=0.16
0
% es.tEZ (V/m) @ t=0.16
8.05433272053022
% es.Ex (V/m) @ t=0.16
10.081888425975034
% es.Ey (V/m) @ t=0.16
-1.5448438470094619
% es.Ez (V/m) @ t=0.16
8.054332720530224
% es.tEx (V/m) @ t=0.16
10.081888425975102
% es.tEy (V/m) @ t=0.16
0
% es.tEz (V/m) @ t=0.16
8.05433272053022
% V (V) @ t=0.16
0.01074477216993108
% es.normE (V/m) @ t=0.18
13.132316854867366
% es.EX (V/m) @ t=0.18
10.176025111582717
% es.EY (V/m) @ t=0.18
-1.5592683749440095
% es.EZ (V/m) @ t=0.18
8.129537697536236
% es.tEX (V/m) @ t=0.18
10.176025111582721
% es.tEY (V/m) @ t=0.18
0
% es.tEZ (V/m) @ t=0.18
8.129537697536236
% es.Ex (V/m) @ t=0.18
10.176025111582717
% es.Ey (V/m) @ t=0.18
-1.5592683749440095
% es.Ez (V/m) @ t=0.18
8.129537697536236
% es.tEx (V/m) @ t=0.18
10.176025111582721
% es.tEy (V/m) @ t=0.18
0
% es.tEz (V/m) @ t=0.18
8.129537697536236
% V (V) @ t=0.18
0.010845098339442572
% es.normE (V/m) @ t=0.2
13.253801694963343
% es.EX (V/m) @ t=0.2
10.27016179719039
% es.EY (V/m) @ t=0.2
-1.5736929028785234
% es.EZ (V/m) @ t=0.2
8.20474267454225
% es.tEX (V/m) @ t=0.2
10.270161797190426
% es.tEY (V/m) @ t=0.2
0
% es.tEZ (V/m) @ t=0.2
8.204742674542235
% es.Ex (V/m) @ t=0.2
10.27016179719039
% es.Ey (V/m) @ t=0.2
-1.5736929028785234
% es.Ez (V/m) @ t=0.2
8.20474267454225
% es.tEx (V/m) @ t=0.2
10.270161797190426
% es.tEy (V/m) @ t=0.2
0
% es.tEz (V/m) @ t=0.2
8.204742674542235
% V (V) @ t=0.2
0.010945424508954067
% es.normE (V/m) @ t=0.22
13.375286535059306
% es.EX (V/m) @ t=0.22
10.364298482798045
% es.EY (V/m) @ t=0.22
-1.5881174308130408
% es.EZ (V/m) @ t=0.22
8.27994765154825
% es.tEX (V/m) @ t=0.22
10.364298482798072
% es.tEY (V/m) @ t=0.22
0
% es.tEZ (V/m) @ t=0.22
8.279947651548262
% es.Ex (V/m) @ t=0.22
10.364298482798045
% es.Ey (V/m) @ t=0.22
-1.5881174308130408
% es.Ez (V/m) @ t=0.22
8.27994765154825
% es.tEx (V/m) @ t=0.22
10.364298482798072
% es.tEy (V/m) @ t=0.22
0
% es.tEz (V/m) @ t=0.22
8.279947651548262
% V (V) @ t=0.22
0.011045750678465563
% es.normE (V/m) @ t=0.24
13.496771375155284
% es.EX (V/m) @ t=0.24
10.458435168405703
% es.EY (V/m) @ t=0.24
-1.6025419587475689
% es.EZ (V/m) @ t=0.24
8.355152628554276
% es.tEX (V/m) @ t=0.24
10.45843516840572
% es.tEY (V/m) @ t=0.24
0
% es.tEZ (V/m) @ t=0.24
8.355152628554261
% es.Ex (V/m) @ t=0.24
10.458435168405703
% es.Ey (V/m) @ t=0.24
-1.6025419587475689
% es.Ez (V/m) @ t=0.24
8.355152628554276
% es.tEx (V/m) @ t=0.24
10.45843516840572
% es.tEy (V/m) @ t=0.24
0
% es.tEz (V/m) @ t=0.24
8.355152628554261
% V (V) @ t=0.24
0.011146076847977058
% es.normE (V/m) @ t=0.26
13.621107461056475
% es.EX (V/m) @ t=0.26
10.55478123753085
% es.EY (V/m) @ t=0.26
-1.617305038951896
% es.EZ (V/m) @ t=0.26
8.43212266381366
% es.tEX (V/m) @ t=0.26
10.55478123753088
% es.tEY (V/m) @ t=0.26
0
% es.tEZ (V/m) @ t=0.26
8.43212266381365
% es.Ex (V/m) @ t=0.26
10.55478123753085
% es.Ey (V/m) @ t=0.26
-1.617305038951896
% es.Ez (V/m) @ t=0.26
8.43212266381366
% es.tEx (V/m) @ t=0.26
10.55478123753088
% es.tEy (V/m) @ t=0.26
0
% es.tEz (V/m) @ t=0.26
8.43212266381365
% V (V) @ t=0.26
0.011248757708531735
% es.normE (V/m) @ t=0.28
13.755485388338924
% es.EX (V/m) @ t=0.28
10.658908564516027
% es.EY (V/m) @ t=0.28
-1.6332604709998613
% es.EZ (V/m) @ t=0.28
8.515309081742288
% es.tEX (V/m) @ t=0.28
10.658908564516043
% es.tEY (V/m) @ t=0.28
0
% es.tEZ (V/m) @ t=0.28
8.515309081742277
% es.Ex (V/m) @ t=0.28
10.658908564516027
% es.Ey (V/m) @ t=0.28
-1.6332604709998613
% es.Ez (V/m) @ t=0.28
8.515309081742288
% es.tEx (V/m) @ t=0.28
10.658908564516043
% es.tEy (V/m) @ t=0.28
0
% es.tEz (V/m) @ t=0.28
8.515309081742277
% V (V) @ t=0.28
0.011359731587497562
% es.normE (V/m) @ t=0.3
13.889863315621378
% es.EX (V/m) @ t=0.3
10.763035891501232
% es.EY (V/m) @ t=0.3
-1.6492159030477769
% es.EZ (V/m) @ t=0.3
8.5984954996709
% es.tEX (V/m) @ t=0.3
10.763035891501262
% es.tEY (V/m) @ t=0.3
0
% es.tEZ (V/m) @ t=0.3
8.598495499670893
% es.Ex (V/m) @ t=0.3
10.763035891501232
% es.Ey (V/m) @ t=0.3
-1.6492159030477769
% es.Ez (V/m) @ t=0.3
8.5984954996709
% es.tEx (V/m) @ t=0.3
10.763035891501262
% es.tEy (V/m) @ t=0.3
0
% es.tEz (V/m) @ t=0.3
8.598495499670893
% V (V) @ t=0.3
0.011470705466463393
% es.normE (V/m) @ t=0.32
14.024241242903823
% es.EX (V/m) @ t=0.32
10.867163218486432
% es.EY (V/m) @ t=0.32
-1.66517133509568
% es.EZ (V/m) @ t=0.32
8.681681917599509
% es.tEX (V/m) @ t=0.32
10.867163218486482
% es.tEY (V/m) @ t=0.32
0
% es.tEZ (V/m) @ t=0.32
8.681681917599503
% es.Ex (V/m) @ t=0.32
10.867163218486432
% es.Ey (V/m) @ t=0.32
-1.66517133509568
% es.Ez (V/m) @ t=0.32
8.681681917599509
% es.tEx (V/m) @ t=0.32
10.867163218486482
% es.tEy (V/m) @ t=0.32
0
% es.tEz (V/m) @ t=0.32
8.681681917599503
% V (V) @ t=0.32
0.011581679345429224
% es.normE (V/m) @ t=0.34
14.158619170186213
% es.EX (V/m) @ t=0.34
10.971290545471561
% es.EY (V/m) @ t=0.34
-1.681126767143617
% es.EZ (V/m) @ t=0.34
8.764868335528108
% es.tEX (V/m) @ t=0.34
10.971290545471618
% es.tEY (V/m) @ t=0.34
0
% es.tEZ (V/m) @ t=0.34
8.764868335528108
% es.Ex (V/m) @ t=0.34
10.971290545471561
% es.Ey (V/m) @ t=0.34
-1.681126767143617
% es.Ez (V/m) @ t=0.34
8.764868335528108
% es.tEx (V/m) @ t=0.34
10.971290545471618
% es.tEy (V/m) @ t=0.34
0
% es.tEz (V/m) @ t=0.34
8.764868335528108
% V (V) @ t=0.34
0.011692653224395055
% es.normE (V/m) @ t=0.36
14.292997097468694
% es.EX (V/m) @ t=0.36
11.075417872456795
% es.EY (V/m) @ t=0.36
-1.6970821991915468
% es.EZ (V/m) @ t=0.36
8.848054753456724
% es.tEX (V/m) @ t=0.36
11.075417872456836
% es.tEY (V/m) @ t=0.36
0
% es.tEZ (V/m) @ t=0.36
8.848054753456722
% es.Ex (V/m) @ t=0.36
11.075417872456795
% es.Ey (V/m) @ t=0.36
-1.6970821991915468
% es.Ez (V/m) @ t=0.36
8.848054753456724
% es.tEx (V/m) @ t=0.36
11.075417872456836
% es.tEy (V/m) @ t=0.36
0
% es.tEz (V/m) @ t=0.36
8.848054753456722
% V (V) @ t=0.36
0.011803627103360885
% es.normE (V/m) @ t=0.38
14.42737502475111
% es.EX (V/m) @ t=0.38
11.17954519944195
% es.EY (V/m) @ t=0.38
-1.7130376312395068
% es.EZ (V/m) @ t=0.38
8.931241171385327
% es.tEX (V/m) @ t=0.38
11.179545199441971
% es.tEY (V/m) @ t=0.38
0
% es.tEZ (V/m) @ t=0.38
8.931241171385327
% es.Ex (V/m) @ t=0.38
11.17954519944195
% es.Ey (V/m) @ t=0.38
-1.7130376312395068
% es.Ez (V/m) @ t=0.38
8.931241171385327
% es.tEx (V/m) @ t=0.38
11.179545199441971
% es.tEy (V/m) @ t=0.38
0
% es.tEz (V/m) @ t=0.38
8.931241171385327
% V (V) @ t=0.38
0.011914600982326716
% es.normE (V/m) @ t=0.4
14.561752952033554
% es.EX (V/m) @ t=0.4
11.28367252642715
% es.EY (V/m) @ t=0.4
-1.728993063287426
% es.EZ (V/m) @ t=0.4
9.014427589313932
% es.tEX (V/m) @ t=0.4
11.283672526427162
% es.tEY (V/m) @ t=0.4
0
% es.tEZ (V/m) @ t=0.4
9.01442758931394
% es.Ex (V/m) @ t=0.4
11.28367252642715
% es.Ey (V/m) @ t=0.4
-1.728993063287426
% es.Ez (V/m) @ t=0.4
9.014427589313932
% es.tEx (V/m) @ t=0.4
11.283672526427162
% es.tEy (V/m) @ t=0.4
0
% es.tEz (V/m) @ t=0.4
9.01442758931394
% V (V) @ t=0.4
0.012025574861292547
% es.normE (V/m) @ t=0.42
14.696130879316009
% es.EX (V/m) @ t=0.42
11.38779985341235
% es.EY (V/m) @ t=0.42
-1.7449484953353611
% es.EZ (V/m) @ t=0.42
9.09761400724254
% es.tEX (V/m) @ t=0.42
11.38779985341241
% es.tEY (V/m) @ t=0.42
0
% es.tEZ (V/m) @ t=0.42
9.097614007242552
% es.Ex (V/m) @ t=0.42
11.38779985341235
% es.Ey (V/m) @ t=0.42
-1.7449484953353611
% es.Ez (V/m) @ t=0.42
9.09761400724254
% es.tEx (V/m) @ t=0.42
11.38779985341241
% es.tEy (V/m) @ t=0.42
0
% es.tEz (V/m) @ t=0.42
9.097614007242552
% V (V) @ t=0.42
0.012136548740258376
% es.normE (V/m) @ t=0.44
14.830508806598404
% es.EX (V/m) @ t=0.44
11.491927180397484
% es.EY (V/m) @ t=0.44
-1.7609039273833087
% es.EZ (V/m) @ t=0.44
9.18080042517114
% es.tEX (V/m) @ t=0.44
11.491927180397544
% es.tEY (V/m) @ t=0.44
0
% es.tEZ (V/m) @ t=0.44
9.180800425171164
% es.Ex (V/m) @ t=0.44
11.491927180397484
% es.Ey (V/m) @ t=0.44
-1.7609039273833087
% es.Ez (V/m) @ t=0.44
9.18080042517114
% es.tEx (V/m) @ t=0.44
11.491927180397544
% es.tEy (V/m) @ t=0.44
0
% es.tEz (V/m) @ t=0.44
9.180800425171164
% V (V) @ t=0.44
0.012247522619224205
% es.normE (V/m) @ t=0.46
14.964886733880874
% es.EX (V/m) @ t=0.46
11.596054507382696
% es.EY (V/m) @ t=0.46
-1.7768593594312296
% es.EZ (V/m) @ t=0.46
9.263986843099762
% es.tEX (V/m) @ t=0.46
11.596054507382735
% es.tEY (V/m) @ t=0.46
0
% es.tEZ (V/m) @ t=0.46
9.263986843099751
% es.Ex (V/m) @ t=0.46
11.596054507382696
% es.Ey (V/m) @ t=0.46
-1.7768593594312296
% es.Ez (V/m) @ t=0.46
9.263986843099762
% es.tEx (V/m) @ t=0.46
11.596054507382735
% es.tEy (V/m) @ t=0.46
0
% es.tEz (V/m) @ t=0.46
9.263986843099751
% V (V) @ t=0.46
0.012358496498190036
% es.normE (V/m) @ t=0.48
15.09926466116328
% es.EX (V/m) @ t=0.48
11.700181834367825
% es.EY (V/m) @ t=0.48
-1.792814791479156
% es.EZ (V/m) @ t=0.48
9.347173261028392
% es.tEX (V/m) @ t=0.48
11.70018183436784
% es.tEY (V/m) @ t=0.48
0
% es.tEZ (V/m) @ t=0.48
9.347173261028377
% es.Ex (V/m) @ t=0.48
11.700181834367825
% es.Ey (V/m) @ t=0.48
-1.792814791479156
% es.Ez (V/m) @ t=0.48
9.347173261028392
% es.tEx (V/m) @ t=0.48
11.70018183436784
% es.tEy (V/m) @ t=0.48
0
% es.tEz (V/m) @ t=0.48
9.347173261028377
% V (V) @ t=0.48
0.012469470377155865
% es.normE (V/m) @ t=0.5
15.23364258844575
% es.EX (V/m) @ t=0.5
11.804309161353068
% es.EY (V/m) @ t=0.5
-1.808770223527091
% es.EZ (V/m) @ t=0.5
9.430359678956975
% es.tEX (V/m) @ t=0.5
11.804309161353117
% es.tEY (V/m) @ t=0.5
0
% es.tEZ (V/m) @ t=0.5
9.430359678956975
% es.Ex (V/m) @ t=0.5
11.804309161353068
% es.Ey (V/m) @ t=0.5
-1.808770223527091
% es.Ez (V/m) @ t=0.5
9.430359678956975
% es.tEx (V/m) @ t=0.5
11.804309161353117
% es.tEy (V/m) @ t=0.5
0
% es.tEz (V/m) @ t=0.5
9.430359678956975
% V (V) @ t=0.5
0.012580444256121696
% es.normE (V/m) @ t=0.52
15.374520160982403
% es.EX (V/m) @ t=0.52
11.913472964280853
% es.EY (V/m) @ t=0.52
-1.8254973756199924
% es.EZ (V/m) @ t=0.52
9.517569691789049
% es.tEX (V/m) @ t=0.52
11.913472964280878
% es.tEY (V/m) @ t=0.52
0
% es.tEZ (V/m) @ t=0.52
9.517569691789047
% es.Ex (V/m) @ t=0.52
11.913472964280853
% es.Ey (V/m) @ t=0.52
-1.8254973756199924
% es.Ez (V/m) @ t=0.52
9.517569691789049
% es.tEx (V/m) @ t=0.52
11.913472964280878
% es.tEy (V/m) @ t=0.52
0
% es.tEz (V/m) @ t=0.52
9.517569691789047
% V (V) @ t=0.52
0.012696785684310555
% es.normE (V/m) @ t=0.54
15.52338917026692
% es.EX (V/m) @ t=0.54
12.028829209619456
% es.EY (V/m) @ t=0.54
-1.8431733721012193
% es.EZ (V/m) @ t=0.54
9.609726790640842
% es.tEX (V/m) @ t=0.54
12.028829209619513
% es.tEY (V/m) @ t=0.54
0
% es.tEZ (V/m) @ t=0.54
9.609726790640833
% es.Ex (V/m) @ t=0.54
12.028829209619456
% es.Ey (V/m) @ t=0.54
-1.8431733721012193
% es.Ez (V/m) @ t=0.54
9.609726790640842
% es.tEx (V/m) @ t=0.54
12.028829209619513
% es.tEy (V/m) @ t=0.54
0
% es.tEz (V/m) @ t=0.54
9.609726790640833
% V (V) @ t=0.54
0.012819726615769125
% es.normE (V/m) @ t=0.56
15.672258179551434
% es.EX (V/m) @ t=0.56
12.144185454958054
% es.EY (V/m) @ t=0.56
-1.8608493685824836
% es.EZ (V/m) @ t=0.56
9.701883889492635
% es.tEX (V/m) @ t=0.56
12.144185454958087
% es.tEY (V/m) @ t=0.56
0
% es.tEZ (V/m) @ t=0.56
9.701883889492631
% es.Ex (V/m) @ t=0.56
12.144185454958054
% es.Ey (V/m) @ t=0.56
-1.8608493685824836
% es.Ez (V/m) @ t=0.56
9.701883889492635
% es.tEx (V/m) @ t=0.56
12.144185454958087
% es.tEy (V/m) @ t=0.56
0
% es.tEz (V/m) @ t=0.56
9.701883889492631
% V (V) @ t=0.56
0.012942667547227692
% es.normE (V/m) @ t=0.58
15.821127188835952
% es.EX (V/m) @ t=0.58
12.259541700296658
% es.EY (V/m) @ t=0.58
-1.878525365063739
% es.EZ (V/m) @ t=0.58
9.79404098834442
% es.tEX (V/m) @ t=0.58
12.259541700296722
% es.tEY (V/m) @ t=0.58
0
% es.tEZ (V/m) @ t=0.58
9.794040988344431
% es.Ex (V/m) @ t=0.58
12.259541700296658
% es.Ey (V/m) @ t=0.58
-1.878525365063739
% es.Ez (V/m) @ t=0.58
9.79404098834442
% es.tEx (V/m) @ t=0.58
12.259541700296722
% es.tEy (V/m) @ t=0.58
0
% es.tEz (V/m) @ t=0.58
9.794040988344431
% V (V) @ t=0.58
0.01306560847868626
% es.normE (V/m) @ t=0.6
15.969996198120455
% es.EX (V/m) @ t=0.6
12.37489794563524
% es.EY (V/m) @ t=0.6
-1.8962013615450175
% es.EZ (V/m) @ t=0.6
9.886198087196204
% es.tEX (V/m) @ t=0.6
12.374897945635299
% es.tEY (V/m) @ t=0.6
0
% es.tEZ (V/m) @ t=0.6
9.886198087196215
% es.Ex (V/m) @ t=0.6
12.37489794563524
% es.Ey (V/m) @ t=0.6
-1.8962013615450175
% es.Ez (V/m) @ t=0.6
9.886198087196204
% es.tEx (V/m) @ t=0.6
12.374897945635299
% es.tEy (V/m) @ t=0.6
0
% es.tEz (V/m) @ t=0.6
9.886198087196215
% V (V) @ t=0.6
0.013188549410144829
% es.normE (V/m) @ t=0.62
16.11886520740501
% es.EX (V/m) @ t=0.62
12.49025419097388
% es.EY (V/m) @ t=0.62
-1.9138773580263102
% es.EZ (V/m) @ t=0.62
9.978355186048002
% es.tEX (V/m) @ t=0.62
12.490254190973904
% es.tEY (V/m) @ t=0.62
0
% es.tEZ (V/m) @ t=0.62
9.978355186047985
% es.Ex (V/m) @ t=0.62
12.49025419097388
% es.Ey (V/m) @ t=0.62
-1.9138773580263102
% es.Ez (V/m) @ t=0.62
9.978355186048002
% es.tEx (V/m) @ t=0.62
12.490254190973904
% es.tEy (V/m) @ t=0.62
0
% es.tEz (V/m) @ t=0.62
9.978355186047985
% V (V) @ t=0.62
0.013311490341603395
% es.normE (V/m) @ t=0.64
16.26773421668952
% es.EX (V/m) @ t=0.64
12.605610436312485
% es.EY (V/m) @ t=0.64
-1.9315533545075159
% es.EZ (V/m) @ t=0.64
10.070512284899788
% es.tEX (V/m) @ t=0.64
12.605610436312539
% es.tEY (V/m) @ t=0.64
0
% es.tEZ (V/m) @ t=0.64
10.070512284899797
% es.Ex (V/m) @ t=0.64
12.605610436312485
% es.Ey (V/m) @ t=0.64
-1.9315533545075159
% es.Ez (V/m) @ t=0.64
10.070512284899788
% es.tEx (V/m) @ t=0.64
12.605610436312539
% es.tEy (V/m) @ t=0.64
0
% es.tEz (V/m) @ t=0.64
10.070512284899797
% V (V) @ t=0.64
0.013434431273061967
% es.normE (V/m) @ t=0.66
16.41660322597405
% es.EX (V/m) @ t=0.66
12.720966681651095
% es.EY (V/m) @ t=0.66
-1.9492293509888725
% es.EZ (V/m) @ t=0.66
10.162669383751574
% es.tEX (V/m) @ t=0.66
12.720966681651113
% es.tEY (V/m) @ t=0.66
0
% es.tEZ (V/m) @ t=0.66
10.162669383751583
% es.Ex (V/m) @ t=0.66
12.720966681651095
% es.Ey (V/m) @ t=0.66
-1.9492293509888725
% es.Ez (V/m) @ t=0.66
10.162669383751574
% es.tEx (V/m) @ t=0.66
12.720966681651113
% es.tEy (V/m) @ t=0.66
0
% es.tEz (V/m) @ t=0.66
10.162669383751583
% V (V) @ t=0.66
0.013557372204520536
% es.normE (V/m) @ t=0.68
16.565472235258603
% es.EX (V/m) @ t=0.68
12.83632292698975
% es.EY (V/m) @ t=0.68
-1.9669053474700942
% es.EZ (V/m) @ t=0.68
10.254826482603367
% es.tEX (V/m) @ t=0.68
12.836322926989805
% es.tEY (V/m) @ t=0.68
0
% es.tEZ (V/m) @ t=0.68
10.254826482603367
% es.Ex (V/m) @ t=0.68
12.83632292698975
% es.Ey (V/m) @ t=0.68
-1.9669053474700942
% es.Ez (V/m) @ t=0.68
10.254826482603367
% es.tEx (V/m) @ t=0.68
12.836322926989805
% es.tEy (V/m) @ t=0.68
0
% es.tEz (V/m) @ t=0.68
10.254826482603367
% V (V) @ t=0.68
0.013680313135979104
% es.normE (V/m) @ t=0.7
16.714341244543114
% es.EX (V/m) @ t=0.7
12.951679172328355
% es.EY (V/m) @ t=0.7
-1.984581343951339
% es.EZ (V/m) @ t=0.7
10.346983581455145
% es.tEX (V/m) @ t=0.7
12.951679172328355
% es.tEY (V/m) @ t=0.7
0
% es.tEZ (V/m) @ t=0.7
10.34698358145515
% es.Ex (V/m) @ t=0.7
12.951679172328355
% es.Ey (V/m) @ t=0.7
-1.984581343951339
% es.Ez (V/m) @ t=0.7
10.346983581455145
% es.tEx (V/m) @ t=0.7
12.951679172328355
% es.tEy (V/m) @ t=0.7
0
% es.tEz (V/m) @ t=0.7
10.34698358145515
% V (V) @ t=0.7
0.013803254067437671
% es.normE (V/m) @ t=0.72
16.863210253827628
% es.EX (V/m) @ t=0.72
13.067035417666943
% es.EY (V/m) @ t=0.72
-2.0022573404326227
% es.EZ (V/m) @ t=0.72
10.439140680306943
% es.tEX (V/m) @ t=0.72
13.067035417667014
% es.tEY (V/m) @ t=0.72
0
% es.tEZ (V/m) @ t=0.72
10.439140680306949
% es.Ex (V/m) @ t=0.72
13.067035417666943
% es.Ey (V/m) @ t=0.72
-2.0022573404326227
% es.Ez (V/m) @ t=0.72
10.439140680306943
% es.tEx (V/m) @ t=0.72
13.067035417667014
% es.tEy (V/m) @ t=0.72
0
% es.tEz (V/m) @ t=0.72
10.439140680306949
% V (V) @ t=0.72
0.013926194998896241
% es.normE (V/m) @ t=0.74
17.012079263112156
% es.EX (V/m) @ t=0.74
13.182391663005555
% es.EY (V/m) @ t=0.74
-2.0199333369139225
% es.EZ (V/m) @ t=0.74
10.531297779158727
% es.tEX (V/m) @ t=0.74
13.182391663005564
% es.tEY (V/m) @ t=0.74
0
% es.tEZ (V/m) @ t=0.74
10.531297779158734
% es.Ex (V/m) @ t=0.74
13.182391663005555
% es.Ey (V/m) @ t=0.74
-2.0199333369139225
% es.Ez (V/m) @ t=0.74
10.531297779158727
% es.tEx (V/m) @ t=0.74
13.182391663005564
% es.tEy (V/m) @ t=0.74
0
% es.tEz (V/m) @ t=0.74
10.531297779158734
% V (V) @ t=0.74
0.014049135930354808
% es.normE (V/m) @ t=0.76
17.160948272396674
% es.EX (V/m) @ t=0.76
13.297747908344153
% es.EY (V/m) @ t=0.76
-2.0376093333951957
% es.EZ (V/m) @ t=0.76
10.62345487801052
% es.tEX (V/m) @ t=0.76
13.29774790834417
% es.tEY (V/m) @ t=0.76
0
% es.tEZ (V/m) @ t=0.76
10.623454878010516
% es.Ex (V/m) @ t=0.76
13.297747908344153
% es.Ey (V/m) @ t=0.76
-2.0376093333951957
% es.Ez (V/m) @ t=0.76
10.62345487801052
% es.tEx (V/m) @ t=0.76
13.29774790834417
% es.tEy (V/m) @ t=0.76
0
% es.tEz (V/m) @ t=0.76
10.623454878010516
% V (V) @ t=0.76
0.014172076861813376
% es.normE (V/m) @ t=0.78
17.32084448638817
% es.EX (V/m) @ t=0.78
13.421648968328162
% es.EY (V/m) @ t=0.78
-2.0565946103745247
% es.EZ (V/m) @ t=0.78
10.722438350387602
% es.tEX (V/m) @ t=0.78
13.421648968328181
% es.tEY (V/m) @ t=0.78
0
% es.tEZ (V/m) @ t=0.78
10.72243835038761
% es.Ex (V/m) @ t=0.78
13.421648968328162
% es.Ey (V/m) @ t=0.78
-2.0565946103745247
% es.Ez (V/m) @ t=0.78
10.722438350387602
% es.tEx (V/m) @ t=0.78
13.421648968328181
% es.tEy (V/m) @ t=0.78
0
% es.tEz (V/m) @ t=0.78
10.72243835038761
% V (V) @ t=0.78
0.01430412426181563
% es.normE (V/m) @ t=0.8
17.48602812005062
% es.EX (V/m) @ t=0.8
13.5496471700848
% es.EY (V/m) @ t=0.8
-2.0762076725128047
% es.EZ (V/m) @ t=0.8
10.824694991497694
% es.tEX (V/m) @ t=0.8
13.549647170084862
% es.tEY (V/m) @ t=0.8
0
% es.tEZ (V/m) @ t=0.8
10.824694991497694
% es.Ex (V/m) @ t=0.8
13.5496471700848
% es.Ey (V/m) @ t=0.8
-2.0762076725128047
% es.Ez (V/m) @ t=0.8
10.824694991497694
% es.tEx (V/m) @ t=0.8
13.549647170084862
% es.tEy (V/m) @ t=0.8
0
% es.tEz (V/m) @ t=0.8
10.824694991497694
% V (V) @ t=0.8
0.014440538110268877
% es.normE (V/m) @ t=0.82
17.651211753713156
% es.EX (V/m) @ t=0.82
13.677645371841532
% es.EY (V/m) @ t=0.82
-2.095820734651163
% es.EZ (V/m) @ t=0.82
10.926951632607809
% es.tEX (V/m) @ t=0.82
13.6776453718416
% es.tEY (V/m) @ t=0.82
0
% es.tEZ (V/m) @ t=0.82
10.926951632607803
% es.Ex (V/m) @ t=0.82
13.677645371841532
% es.Ey (V/m) @ t=0.82
-2.095820734651163
% es.Ez (V/m) @ t=0.82
10.926951632607809
% es.tEx (V/m) @ t=0.82
13.6776453718416
% es.tEy (V/m) @ t=0.82
0
% es.tEz (V/m) @ t=0.82
10.926951632607803
% V (V) @ t=0.82
0.014576951958722124
% es.normE (V/m) @ t=0.84
17.816395387375614
% es.EX (V/m) @ t=0.84
13.805643573598177
% es.EY (V/m) @ t=0.84
-2.115433796789521
% es.EZ (V/m) @ t=0.84
11.029208273717902
% es.tEX (V/m) @ t=0.84
13.805643573598251
% es.tEY (V/m) @ t=0.84
0
% es.tEZ (V/m) @ t=0.84
11.029208273717929
% es.Ex (V/m) @ t=0.84
13.805643573598177
% es.Ey (V/m) @ t=0.84
-2.115433796789521
% es.Ez (V/m) @ t=0.84
11.029208273717902
% es.tEx (V/m) @ t=0.84
13.805643573598251
% es.tEy (V/m) @ t=0.84
0
% es.tEz (V/m) @ t=0.84
11.029208273717929
% V (V) @ t=0.84
0.014713365807175367
% es.normE (V/m) @ t=0.86
17.98157902103813
% es.EX (V/m) @ t=0.86
13.933641775354864
% es.EY (V/m) @ t=0.86
-2.1350468589278577
% es.EZ (V/m) @ t=0.86
11.131464914828044
% es.tEX (V/m) @ t=0.86
13.933641775354932
% es.tEY (V/m) @ t=0.86
0
% es.tEZ (V/m) @ t=0.86
11.13146491482804
% es.Ex (V/m) @ t=0.86
13.933641775354864
% es.Ey (V/m) @ t=0.86
-2.1350468589278577
% es.Ez (V/m) @ t=0.86
11.131464914828044
% es.tEx (V/m) @ t=0.86
13.933641775354932
% es.tEy (V/m) @ t=0.86
0
% es.tEz (V/m) @ t=0.86
11.13146491482804
% V (V) @ t=0.86
0.014849779655628613
% es.normE (V/m) @ t=0.88
18.146762654700602
% es.EX (V/m) @ t=0.88
14.061639977111525
% es.EY (V/m) @ t=0.88
-2.154659921066191
% es.EZ (V/m) @ t=0.88
11.233721555938136
% es.tEX (V/m) @ t=0.88
14.061639977111582
% es.tEY (V/m) @ t=0.88
0
% es.tEZ (V/m) @ t=0.88
11.233721555938109
% es.Ex (V/m) @ t=0.88
14.061639977111525
% es.Ey (V/m) @ t=0.88
-2.154659921066191
% es.Ez (V/m) @ t=0.88
11.233721555938136
% es.tEx (V/m) @ t=0.88
14.061639977111582
% es.tEy (V/m) @ t=0.88
0
% es.tEz (V/m) @ t=0.88
11.233721555938109
% V (V) @ t=0.88
0.01498619350408186
% es.normE (V/m) @ t=0.9
18.311946288363032
% es.EX (V/m) @ t=0.9
14.189638178868128
% es.EY (V/m) @ t=0.9
-2.174272983204496
% es.EZ (V/m) @ t=0.9
11.335978197048245
% es.tEX (V/m) @ t=0.9
14.189638178868178
% es.tEY (V/m) @ t=0.9
0
% es.tEZ (V/m) @ t=0.9
11.33597819704825
% es.Ex (V/m) @ t=0.9
14.189638178868128
% es.Ey (V/m) @ t=0.9
-2.174272983204496
% es.Ez (V/m) @ t=0.9
11.335978197048245
% es.tEx (V/m) @ t=0.9
14.189638178868178
% es.tEy (V/m) @ t=0.9
0
% es.tEz (V/m) @ t=0.9
11.33597819704825
% V (V) @ t=0.9
0.015122607352535107
% es.normE (V/m) @ t=0.92
18.477129922025615
% es.EX (V/m) @ t=0.92
14.317636380624903
% es.EY (V/m) @ t=0.92
-2.193886045342822
% es.EZ (V/m) @ t=0.92
11.438234838158372
% es.tEX (V/m) @ t=0.92
14.317636380624915
% es.tEY (V/m) @ t=0.92
0
% es.tEZ (V/m) @ t=0.92
11.438234838158376
% es.Ex (V/m) @ t=0.92
14.317636380624903
% es.Ey (V/m) @ t=0.92
-2.193886045342822
% es.Ez (V/m) @ t=0.92
11.438234838158372
% es.tEx (V/m) @ t=0.92
14.317636380624915
% es.tEy (V/m) @ t=0.92
0
% es.tEz (V/m) @ t=0.92
11.438234838158376
% V (V) @ t=0.92
0.015259021200988354
% es.normE (V/m) @ t=0.94
18.642313555688098
% es.EX (V/m) @ t=0.94
14.445634582381562
% es.EY (V/m) @ t=0.94
-2.21349910748118
% es.EZ (V/m) @ t=0.94
11.540491479268479
% es.tEX (V/m) @ t=0.94
14.445634582381594
% es.tEY (V/m) @ t=0.94
0
% es.tEZ (V/m) @ t=0.94
11.540491479268473
% es.Ex (V/m) @ t=0.94
14.445634582381562
% es.Ey (V/m) @ t=0.94
-2.21349910748118
% es.Ez (V/m) @ t=0.94
11.540491479268479
% es.tEx (V/m) @ t=0.94
14.445634582381594
% es.tEy (V/m) @ t=0.94
0
% es.tEz (V/m) @ t=0.94
11.540491479268473
% V (V) @ t=0.94
0.015395435049441597
% es.normE (V/m) @ t=0.96
18.807497189350602
% es.EX (V/m) @ t=0.96
14.573632784138265
% es.EY (V/m) @ t=0.96
-2.233112169619556
% es.EZ (V/m) @ t=0.96
11.642748120378572
% es.tEX (V/m) @ t=0.96
14.573632784138333
% es.tEY (V/m) @ t=0.96
0
% es.tEZ (V/m) @ t=0.96
11.64274812037857
% es.Ex (V/m) @ t=0.96
14.573632784138265
% es.Ey (V/m) @ t=0.96
-2.233112169619556
% es.Ez (V/m) @ t=0.96
11.642748120378572
% es.tEx (V/m) @ t=0.96
14.573632784138333
% es.tEy (V/m) @ t=0.96
0
% es.tEz (V/m) @ t=0.96
11.64274812037857
% V (V) @ t=0.96
0.015531848897894848
% es.normE (V/m) @ t=0.98
18.972680823013057
% es.EX (V/m) @ t=0.98
14.701630985894896
% es.EY (V/m) @ t=0.98
-2.252725231757765
% es.EZ (V/m) @ t=0.98
11.745004761488694
% es.tEX (V/m) @ t=0.98
14.701630985894955
% es.tEY (V/m) @ t=0.98
0
% es.tEZ (V/m) @ t=0.98
11.745004761488682
% es.Ex (V/m) @ t=0.98
14.701630985894896
% es.Ey (V/m) @ t=0.98
-2.252725231757765
% es.Ez (V/m) @ t=0.98
11.745004761488694
% es.tEx (V/m) @ t=0.98
14.701630985894955
% es.tEy (V/m) @ t=0.98
0
% es.tEz (V/m) @ t=0.98
11.745004761488682
% V (V) @ t=0.98
0.015668262746348086
% es.normE (V/m) @ t=1
19.137864456675576
% es.EX (V/m) @ t=1
14.82962918765157
% es.EY (V/m) @ t=1
-2.2723382938961407
% es.EZ (V/m) @ t=1
11.847261402598836
% es.tEX (V/m) @ t=1
14.829629187651635
% es.tEY (V/m) @ t=1
0
% es.tEZ (V/m) @ t=1
11.847261402598821
% es.Ex (V/m) @ t=1
14.82962918765157
% es.Ey (V/m) @ t=1
-2.2723382938961407
% es.Ez (V/m) @ t=1
11.847261402598836
% es.tEx (V/m) @ t=1
14.829629187651635
% es.tEy (V/m) @ t=1
0
% es.tEz (V/m) @ t=1
11.847261402598821
% V (V) @ t=1
0.015804676594801333
% es.normE (V/m) @ t=1.02
19.303048090338045
% es.EX (V/m) @ t=1.02
14.957627389408245
% es.EY (V/m) @ t=1.02
-2.2919513560344456
% es.EZ (V/m) @ t=1.02
11.949518043708906
% es.tEX (V/m) @ t=1.02
14.957627389408287
% es.tEY (V/m) @ t=1.02
0
% es.tEZ (V/m) @ t=1.02
11.949518043708933
% es.Ex (V/m) @ t=1.02
14.957627389408245
% es.Ey (V/m) @ t=1.02
-2.2919513560344456
% es.Ez (V/m) @ t=1.02
11.949518043708906
% es.tEx (V/m) @ t=1.02
14.957627389408287
% es.tEy (V/m) @ t=1.02
0
% es.tEz (V/m) @ t=1.02
11.949518043708933
% V (V) @ t=1.02
0.01594109044325458
% es.normE (V/m) @ t=1.04
19.47549834873461
% es.EX (V/m) @ t=1.04
15.091256380425893
% es.EY (V/m) @ t=1.04
-2.3124272397443484
% es.EZ (V/m) @ t=1.04
12.05627307520345
% es.tEX (V/m) @ t=1.04
15.09125638042597
% es.tEY (V/m) @ t=1.04
0
% es.tEZ (V/m) @ t=1.04
12.056273075203448
% es.Ex (V/m) @ t=1.04
15.091256380425893
% es.Ey (V/m) @ t=1.04
-2.3124272397443484
% es.Ez (V/m) @ t=1.04
12.05627307520345
% es.tEx (V/m) @ t=1.04
15.09125638042597
% es.tEy (V/m) @ t=1.04
0
% es.tEz (V/m) @ t=1.04
12.056273075203448
% V (V) @ t=1.04
0.016083505383442807
% es.normE (V/m) @ t=1.06
19.64984616922522