% Model:              1 neuron.mph
% Version:            COMSOL 6.1.0.252
% Date:               Mar 22 2023, 18:39
% Dimension:          0
% Nodes:              14017
% Expressions:        14017
% Description:        Electric field norm, Electric field, X component, Electric field, Y component, Electric field, Z component, Tangential electric field, X component, Tangential electric field, Y component, Tangential electric field, Z component, Electric field, x component, Electric field, y component, Electric field, z component, Tangential electric field, x component, Tangential electric field, y component, Tangential electric field, z component, Electric potential
% Length unit:        mm
% x
1
% y
12.2
% z
1.6599999999999997
% es.normE (V/m) @ t=0
2.9220248958800576
% es.EX (V/m) @ t=0
2.615824278002677
% es.EY (V/m) @ t=0
0.10064561471344163
% es.EZ (V/m) @ t=0
-1.2982924106519442
% es.tEX (V/m) @ t=0
2.6158242780026697
% es.tEY (V/m) @ t=0
0
% es.tEZ (V/m) @ t=0
-1.2982924106519533
% es.Ex (V/m) @ t=0
2.615824278002677
% es.Ey (V/m) @ t=0
0.10064561471344163
% es.Ez (V/m) @ t=0
-1.2982924106519442
% es.tEx (V/m) @ t=0
2.6158242780026697
% es.tEy (V/m) @ t=0
0
% es.tEz (V/m) @ t=0
-1.2982924106519533
% V (V) @ t=0
0.013257195341263388
% es.normE (V/m) @ t=0.02
2.523768187162881
% es.EX (V/m) @ t=0.02
2.2593011122563476
% es.EY (V/m) @ t=0.02
0.08692814499004597
% es.EZ (V/m) @ t=0.02
-1.1213419452539912
% es.tEX (V/m) @ t=0.02
2.2593011122563462
% es.tEY (V/m) @ t=0.02
0
% es.tEZ (V/m) @ t=0.02
-1.1213419452539881
% es.Ex (V/m) @ t=0.02
2.2593011122563476
% es.Ey (V/m) @ t=0.02
0.08692814499004597
% es.Ez (V/m) @ t=0.02
-1.1213419452539912
% es.tEx (V/m) @ t=0.02
2.2593011122563462
% es.tEy (V/m) @ t=0.02
0
% es.tEz (V/m) @ t=0.02
-1.1213419452539881
% V (V) @ t=0.02
0.011450308925272847
% es.normE (V/m) @ t=0.04
2.546969861999294
% es.EX (V/m) @ t=0.04
2.2800714713766053
% es.EY (V/m) @ t=0.04
0.08772730047306626
% es.EZ (V/m) @ t=0.04
-1.1316507395800084
% es.tEX (V/m) @ t=0.04
2.2800714713766066
% es.tEY (V/m) @ t=0.04
0
% es.tEZ (V/m) @ t=0.04
-1.131650739580003
% es.Ex (V/m) @ t=0.04
2.2800714713766053
% es.Ey (V/m) @ t=0.04
0.08772730047306626
% es.Ez (V/m) @ t=0.04
-1.1316507395800084
% es.tEx (V/m) @ t=0.04
2.2800714713766066
% es.tEy (V/m) @ t=0.04
0
% es.tEz (V/m) @ t=0.04
-1.131650739580003
% V (V) @ t=0.04
0.011555574611079786
% es.normE (V/m) @ t=0.06
2.570338423792511
% es.EX (V/m) @ t=0.06
2.3009912273278093
% es.EY (V/m) @ t=0.06
0.08853219925983402
% es.EZ (V/m) @ t=0.06
-1.1420336881882824
% es.tEX (V/m) @ t=0.06
2.3009912273278115
% es.tEY (V/m) @ t=0.06
0
% es.tEZ (V/m) @ t=0.06
-1.1420336881882918
% es.Ex (V/m) @ t=0.06
2.3009912273278093
% es.Ey (V/m) @ t=0.06
0.08853219925983402
% es.Ez (V/m) @ t=0.06
-1.1420336881882824
% es.tEx (V/m) @ t=0.06
2.3009912273278115
% es.tEy (V/m) @ t=0.06
0
% es.tEz (V/m) @ t=0.06
-1.1420336881882918
% V (V) @ t=0.06
0.011661597627071934
% es.normE (V/m) @ t=0.08
2.5941596679035595
% es.EX (V/m) @ t=0.08
2.3223162298055455
% es.EY (V/m) @ t=0.08
0.08935269274756513
% es.EZ (V/m) @ t=0.08
-1.1526177669431807
% es.tEX (V/m) @ t=0.08
2.322316229805538
% es.tEY (V/m) @ t=0.08
0
% es.tEZ (V/m) @ t=0.08
-1.1526177669431803
% es.Ex (V/m) @ t=0.08
2.3223162298055455
% es.Ey (V/m) @ t=0.08
0.08935269274756513
% es.Ez (V/m) @ t=0.08
-1.1526177669431807
% es.tEx (V/m) @ t=0.08
2.322316229805538
% es.tEy (V/m) @ t=0.08
0
% es.tEz (V/m) @ t=0.08
-1.1526177669431803
% V (V) @ t=0.08
0.011769674369501652
% es.normE (V/m) @ t=0.1
2.6180952507174755
% es.EX (V/m) @ t=0.1
2.343743589632686
% es.EY (V/m) @ t=0.1
0.09017712515189674
% es.EZ (V/m) @ t=0.1
-1.1632526472407614
% es.tEX (V/m) @ t=0.1
2.3437435896326884
% es.tEY (V/m) @ t=0.1
0
% es.tEZ (V/m) @ t=0.1
-1.1632526472407534
% es.Ex (V/m) @ t=0.1
2.343743589632686
% es.Ey (V/m) @ t=0.1
0.09017712515189674
% es.Ez (V/m) @ t=0.1
-1.1632526472407614
% es.tEx (V/m) @ t=0.1
2.3437435896326884
% es.tEy (V/m) @ t=0.1
0
% es.tEz (V/m) @ t=0.1
-1.1632526472407534
% V (V) @ t=0.1
0.011878269843075877
% es.normE (V/m) @ t=0.12
2.642030833531387
% es.EX (V/m) @ t=0.12
2.365170949459838
% es.EY (V/m) @ t=0.12
0.0910015575562017
% es.EZ (V/m) @ t=0.12
-1.1738875275383138
% es.tEX (V/m) @ t=0.12
2.3651709494598316
% es.tEY (V/m) @ t=0.12
0
% es.tEZ (V/m) @ t=0.12
-1.1738875275383194
% es.Ex (V/m) @ t=0.12
2.365170949459838
% es.Ey (V/m) @ t=0.12
0.0910015575562017
% es.Ez (V/m) @ t=0.12
-1.1738875275383138
% es.tEx (V/m) @ t=0.12
2.3651709494598316
% es.tEy (V/m) @ t=0.12
0
% es.tEz (V/m) @ t=0.12
-1.1738875275383194
% V (V) @ t=0.12
0.011986865316650105
% es.normE (V/m) @ t=0.14
2.666687207117666
% es.EX (V/m) @ t=0.14
2.3872435680502795
% es.EY (V/m) @ t=0.14
0.09185081676331708
% es.EZ (V/m) @ t=0.14
-1.1848426641219225
% es.tEX (V/m) @ t=0.14
2.3872435680502715
% es.tEY (V/m) @ t=0.14
0
% es.tEZ (V/m) @ t=0.14
-1.184842664121902
% es.Ex (V/m) @ t=0.14
2.3872435680502795
% es.Ey (V/m) @ t=0.14
0.09185081676331708
% es.Ez (V/m) @ t=0.14
-1.1848426641219225
% es.tEx (V/m) @ t=0.14
2.3872435680502715
% es.tEy (V/m) @ t=0.14
0
% es.tEz (V/m) @ t=0.14
-1.184842664121902
% V (V) @ t=0.14
0.012098731006665838
% es.normE (V/m) @ t=0.16
2.6918182404947486
% es.EX (V/m) @ t=0.16
2.40974110660551
% es.EY (V/m) @ t=0.16
0.09271642507677752
% es.EZ (V/m) @ t=0.16
-1.1960086979416502
% es.tEX (V/m) @ t=0.16
2.409741106605514
% es.tEY (V/m) @ t=0.16
0
% es.tEZ (V/m) @ t=0.16
-1.1960086979416502
% es.Ex (V/m) @ t=0.16
2.40974110660551
% es.Ey (V/m) @ t=0.16
0.09271642507677752
% es.Ez (V/m) @ t=0.16
-1.1960086979416502
% es.tEx (V/m) @ t=0.16
2.409741106605514
% es.tEy (V/m) @ t=0.16
0
% es.tEz (V/m) @ t=0.16
-1.1960086979416502
% V (V) @ t=0.16
0.012212750220715987
% es.normE (V/m) @ t=0.18
2.716949273871834
% es.EX (V/m) @ t=0.18
2.4322386451607514
% es.EY (V/m) @ t=0.18
0.0935820333902353
% es.EZ (V/m) @ t=0.18
-1.2071747317613637
% es.tEX (V/m) @ t=0.18
2.4322386451607505
% es.tEY (V/m) @ t=0.18
0
% es.tEZ (V/m) @ t=0.18
-1.20717473176137
% es.Ex (V/m) @ t=0.18
2.4322386451607514
% es.Ey (V/m) @ t=0.18
0.0935820333902353
% es.Ez (V/m) @ t=0.18
-1.2071747317613637
% es.tEx (V/m) @ t=0.18
2.4322386451607505
% es.tEy (V/m) @ t=0.18
0
% es.tEz (V/m) @ t=0.18
-1.20717473176137
% V (V) @ t=0.18
0.012326769434766132
% es.normE (V/m) @ t=0.2
2.7420803072489344
% es.EX (V/m) @ t=0.2
2.4547361837159856
% es.EY (V/m) @ t=0.2
0.09444764170371084
% es.EZ (V/m) @ t=0.2
-1.2183407655811236
% es.tEX (V/m) @ t=0.2
2.454736183715986
% es.tEY (V/m) @ t=0.2
0
% es.tEZ (V/m) @ t=0.2
-1.218340765581118
% es.Ex (V/m) @ t=0.2
2.4547361837159856
% es.Ey (V/m) @ t=0.2
0.09444764170371084
% es.Ez (V/m) @ t=0.2
-1.2183407655811236
% es.tEx (V/m) @ t=0.2
2.454736183715986
% es.tEy (V/m) @ t=0.2
0
% es.tEz (V/m) @ t=0.2
-1.218340765581118
% V (V) @ t=0.2
0.01244078864881628
% es.normE (V/m) @ t=0.22
2.767211340626
% es.EX (V/m) @ t=0.22
2.477233722271208
% es.EY (V/m) @ t=0.22
0.09531325001717045
% es.EZ (V/m) @ t=0.22
-1.22950679940083
% es.tEX (V/m) @ t=0.22
2.4772337222712055
% es.tEY (V/m) @ t=0.22
0
% es.tEZ (V/m) @ t=0.22
-1.2295067994008306
% es.Ex (V/m) @ t=0.22
2.477233722271208
% es.Ey (V/m) @ t=0.22
0.09531325001717045
% es.Ez (V/m) @ t=0.22
-1.22950679940083
% es.tEx (V/m) @ t=0.22
2.4772337222712055
% es.tEy (V/m) @ t=0.22
0
% es.tEz (V/m) @ t=0.22
-1.2295067994008306
% V (V) @ t=0.22
0.012554807862866429
% es.normE (V/m) @ t=0.24
2.7923423740031064
% es.EX (V/m) @ t=0.24
2.4997312608264615
% es.EY (V/m) @ t=0.24
0.0961788583306345
% es.EZ (V/m) @ t=0.24
-1.2406728332205648
% es.tEX (V/m) @ t=0.24
2.499731260826457
% es.tEY (V/m) @ t=0.24
0
% es.tEZ (V/m) @ t=0.24
-1.2406728332205716
% es.Ex (V/m) @ t=0.24
2.4997312608264615
% es.Ey (V/m) @ t=0.24
0.0961788583306345
% es.Ez (V/m) @ t=0.24
-1.2406728332205648
% es.tEx (V/m) @ t=0.24
2.499731260826457
% es.tEy (V/m) @ t=0.24
0
% es.tEz (V/m) @ t=0.24
-1.2406728332205716
% V (V) @ t=0.24
0.012668827076916578
% es.normE (V/m) @ t=0.26
2.8180395841662156
% es.EX (V/m) @ t=0.26
2.5227356458154793
% es.EY (V/m) @ t=0.26
0.09706396705544118
% es.EZ (V/m) @ t=0.26
-1.252090427322001
% es.tEX (V/m) @ t=0.26
2.522735645815472
% es.tEY (V/m) @ t=0.26
0
% es.tEZ (V/m) @ t=0.26
-1.2520904273220168
% es.Ex (V/m) @ t=0.26
2.5227356458154793
% es.Ey (V/m) @ t=0.26
0.09706396705544118
% es.Ez (V/m) @ t=0.26
-1.252090427322001
% es.tEx (V/m) @ t=0.26
2.522735645815472
% es.tEy (V/m) @ t=0.26
0
% es.tEz (V/m) @ t=0.26
-1.2520904273220168
% V (V) @ t=0.26
0.012785415061066114
% es.normE (V/m) @ t=0.28
2.845839616677186
% es.EX (V/m) @ t=0.28
2.5476224958475893
% es.EY (V/m) @ t=0.28
0.09802150174632063
% es.EZ (V/m) @ t=0.28
-1.2644423348662803
% es.tEX (V/m) @ t=0.28
2.547622495847592
% es.tEY (V/m) @ t=0.28
0
% es.tEZ (V/m) @ t=0.28
-1.264442334866274
% es.Ex (V/m) @ t=0.28
2.5476224958475893
% es.Ey (V/m) @ t=0.28
0.09802150174632063
% es.Ez (V/m) @ t=0.28
-1.2644423348662803
% es.tEx (V/m) @ t=0.28
2.547622495847592
% es.tEy (V/m) @ t=0.28
0
% es.tEz (V/m) @ t=0.28
-1.264442334866274
% V (V) @ t=0.28
0.01291154364685271
% es.normE (V/m) @ t=0.3
2.873639649188151
% es.EX (V/m) @ t=0.3
2.572509345879703
% es.EY (V/m) @ t=0.3
0.09897903643722139
% es.EZ (V/m) @ t=0.3
-1.2767942424105383
% es.tEX (V/m) @ t=0.3
2.5725093458796975
% es.tEY (V/m) @ t=0.3
0
% es.tEZ (V/m) @ t=0.3
-1.2767942424105456
% es.Ex (V/m) @ t=0.3
2.572509345879703
% es.Ey (V/m) @ t=0.3
0.09897903643722139
% es.Ez (V/m) @ t=0.3
-1.2767942424105383
% es.tEx (V/m) @ t=0.3
2.5725093458796975
% es.tEy (V/m) @ t=0.3
0
% es.tEz (V/m) @ t=0.3
-1.2767942424105456
% V (V) @ t=0.3
0.013037672232639304
% es.normE (V/m) @ t=0.32
2.901439681699098
% es.EX (V/m) @ t=0.32
2.597396195911795
% es.EY (V/m) @ t=0.32
0.09993657112809823
% es.EZ (V/m) @ t=0.32
-1.2891461499547998
% es.tEX (V/m) @ t=0.32
2.597396195911789
% es.tEY (V/m) @ t=0.32
0
% es.tEZ (V/m) @ t=0.32
-1.2891461499547816
% es.Ex (V/m) @ t=0.32
2.597396195911795
% es.Ey (V/m) @ t=0.32
0.09993657112809823
% es.Ez (V/m) @ t=0.32
-1.2891461499547998
% es.tEx (V/m) @ t=0.32
2.597396195911789
% es.tEy (V/m) @ t=0.32
0
% es.tEz (V/m) @ t=0.32
-1.2891461499547816
% V (V) @ t=0.32
0.013163800818425898
% es.normE (V/m) @ t=0.34
2.9292397142100715
% es.EX (V/m) @ t=0.34
2.6222830459439033
% es.EY (V/m) @ t=0.34
0.10089410581900965
% es.EZ (V/m) @ t=0.34
-1.3014980574990862
% es.tEX (V/m) @ t=0.34
2.6222830459438997
% es.tEY (V/m) @ t=0.34
0
% es.tEZ (V/m) @ t=0.34
-1.3014980574990744
% es.Ex (V/m) @ t=0.34
2.6222830459439033
% es.Ey (V/m) @ t=0.34
0.10089410581900965
% es.Ez (V/m) @ t=0.34
-1.3014980574990862
% es.tEx (V/m) @ t=0.34
2.6222830459438997
% es.tEy (V/m) @ t=0.34
0
% es.tEz (V/m) @ t=0.34
-1.3014980574990744
% V (V) @ t=0.34
0.013289929404212494
% es.normE (V/m) @ t=0.36
2.9570397467210414
% es.EX (V/m) @ t=0.36
2.647169895976017
% es.EY (V/m) @ t=0.36
0.10185164050986784
% es.EZ (V/m) @ t=0.36
-1.3138499650433584
% es.tEX (V/m) @ t=0.36
2.6471698959760124
% es.tEY (V/m) @ t=0.36
0
% es.tEZ (V/m) @ t=0.36
-1.313849965043353
% es.Ex (V/m) @ t=0.36
2.647169895976017
% es.Ey (V/m) @ t=0.36
0.10185164050986784
% es.Ez (V/m) @ t=0.36
-1.3138499650433584
% es.tEx (V/m) @ t=0.36
2.6471698959760124
% es.tEy (V/m) @ t=0.36
0
% es.tEz (V/m) @ t=0.36
-1.313849965043353
% V (V) @ t=0.36
0.013416057989999088
% es.normE (V/m) @ t=0.38
2.984839779231992
% es.EX (V/m) @ t=0.38
2.6720567460081126
% es.EY (V/m) @ t=0.38
0.10280917520076144
% es.EZ (V/m) @ t=0.38
-1.32620187258762
% es.tEX (V/m) @ t=0.38
2.672056746008118
% es.tEY (V/m) @ t=0.38
0
% es.tEZ (V/m) @ t=0.38
-1.3262018725876032
% es.Ex (V/m) @ t=0.38
2.6720567460081126
% es.Ey (V/m) @ t=0.38
0.10280917520076144
% es.Ez (V/m) @ t=0.38
-1.32620187258762
% es.tEx (V/m) @ t=0.38
2.672056746008118
% es.tEy (V/m) @ t=0.38
0
% es.tEz (V/m) @ t=0.38
-1.3262018725876032
% V (V) @ t=0.38
0.013542186575785682
% es.normE (V/m) @ t=0.4
3.0126398117429494
% es.EX (V/m) @ t=0.4
2.6969435960402186
% es.EY (V/m) @ t=0.4
0.10376670989167286
% es.EZ (V/m) @ t=0.4
-1.3385537801318743
% es.tEX (V/m) @ t=0.4
2.6969435960402164
% es.tEY (V/m) @ t=0.4
0
% es.tEZ (V/m) @ t=0.4
-1.3385537801318534
% es.Ex (V/m) @ t=0.4
2.6969435960402186
% es.Ey (V/m) @ t=0.4
0.10376670989167286
% es.Ez (V/m) @ t=0.4
-1.3385537801318743
% es.tEx (V/m) @ t=0.4
2.6969435960402164
% es.tEy (V/m) @ t=0.4
0
% es.tEz (V/m) @ t=0.4
-1.3385537801318534
% V (V) @ t=0.4
0.013668315161572278
% es.normE (V/m) @ t=0.42
3.0404398442539184
% es.EX (V/m) @ t=0.42
2.721830446072328
% es.EY (V/m) @ t=0.42
0.10472424458256385
% es.EZ (V/m) @ t=0.42
-1.35090568767615
% es.tEX (V/m) @ t=0.42
2.721830446072314
% es.tEY (V/m) @ t=0.42
0
% es.tEZ (V/m) @ t=0.42
-1.350905687676125
% es.Ex (V/m) @ t=0.42
2.721830446072328
% es.Ey (V/m) @ t=0.42
0.10472424458256385
% es.Ez (V/m) @ t=0.42
-1.35090568767615
% es.tEx (V/m) @ t=0.42
2.721830446072314
% es.tEy (V/m) @ t=0.42
0
% es.tEz (V/m) @ t=0.42
-1.350905687676125
% V (V) @ t=0.42
0.013794443747358873
% es.normE (V/m) @ t=0.44
3.0682398767648893
% es.EX (V/m) @ t=0.44
2.7467172961044453
% es.EY (V/m) @ t=0.44
0.10568177927345312
% es.EZ (V/m) @ t=0.44
-1.3632575952204151
% es.tEX (V/m) @ t=0.44
2.74671729610444
% es.tEY (V/m) @ t=0.44
0
% es.tEZ (V/m) @ t=0.44
-1.3632575952204107
% es.Ex (V/m) @ t=0.44
2.7467172961044453
% es.Ey (V/m) @ t=0.44
0.10568177927345312
% es.Ez (V/m) @ t=0.44
-1.3632575952204151
% es.tEx (V/m) @ t=0.44
2.74671729610444
% es.tEy (V/m) @ t=0.44
0
% es.tEz (V/m) @ t=0.44
-1.3632575952204107
% V (V) @ t=0.44
0.013920572333145467
% es.normE (V/m) @ t=0.46
3.0960399092758366
% es.EX (V/m) @ t=0.46
2.771604146136541
% es.EY (V/m) @ t=0.46
0.10663931396433257
% es.EZ (V/m) @ t=0.46
-1.3756095027646693
% es.tEX (V/m) @ t=0.46
2.7716041461365455
% es.tEY (V/m) @ t=0.46
0
% es.tEZ (V/m) @ t=0.46
-1.375609502764668
% es.Ex (V/m) @ t=0.46
2.771604146136541
% es.Ey (V/m) @ t=0.46
0.10663931396433257
% es.Ez (V/m) @ t=0.46
-1.3756095027646693
% es.tEx (V/m) @ t=0.46
2.7716041461365455
% es.tEy (V/m) @ t=0.46
0
% es.tEz (V/m) @ t=0.46
-1.375609502764668
% V (V) @ t=0.46
0.014046700918932063
% es.normE (V/m) @ t=0.48
3.123839941786799
% es.EX (V/m) @ t=0.48
2.796490996168644
% es.EY (V/m) @ t=0.48
0.10759684865525199
% es.EZ (V/m) @ t=0.48
-1.3879614103089417
% es.tEX (V/m) @ t=0.48
2.796490996168644
% es.tEY (V/m) @ t=0.48
0
% es.tEZ (V/m) @ t=0.48
-1.3879614103089253
% es.Ex (V/m) @ t=0.48
2.796490996168644
% es.Ey (V/m) @ t=0.48
0.10759684865525199
% es.Ez (V/m) @ t=0.48
-1.3879614103089417
% es.tEx (V/m) @ t=0.48
2.796490996168644
% es.tEy (V/m) @ t=0.48
0
% es.tEz (V/m) @ t=0.48
-1.3879614103089253
% V (V) @ t=0.48
0.014172829504718654
% es.normE (V/m) @ t=0.5
3.1516399742977654
% es.EX (V/m) @ t=0.5
2.8213778462007557
% es.EY (V/m) @ t=0.5
0.10855438334613499
% es.EZ (V/m) @ t=0.5
-1.4003133178532066
% es.tEX (V/m) @ t=0.5
2.821377846200754
% es.tEY (V/m) @ t=0.5
0
% es.tEZ (V/m) @ t=0.5
-1.4003133178531968
% es.Ex (V/m) @ t=0.5
2.8213778462007557
% es.Ey (V/m) @ t=0.5
0.10855438334613499
% es.Ez (V/m) @ t=0.5
-1.4003133178532066
% es.tEx (V/m) @ t=0.5
2.821377846200754
% es.tEy (V/m) @ t=0.5
0
% es.tEz (V/m) @ t=0.5
-1.4003133178531968
% V (V) @ t=0.5
0.014298958090505251
% es.normE (V/m) @ t=0.52
3.1807315635996547
% es.EX (V/m) @ t=0.52
2.847420910666288
% es.EY (V/m) @ t=0.52
0.10955640560667296
% es.EZ (V/m) @ t=0.52
-1.4132390790036107
% es.tEX (V/m) @ t=0.52
2.847420910666285
% es.tEY (V/m) @ t=0.52
0
% es.tEZ (V/m) @ t=0.52
-1.4132390790036027
% es.Ex (V/m) @ t=0.52
2.847420910666288
% es.Ey (V/m) @ t=0.52
0.10955640560667296
% es.Ez (V/m) @ t=0.52
-1.4132390790036107
% es.tEx (V/m) @ t=0.52
2.847420910666285
% es.tEy (V/m) @ t=0.52
0
% es.tEz (V/m) @ t=0.52
-1.4132390790036027
% V (V) @ t=0.52
0.014430946402441355
% es.normE (V/m) @ t=0.54
3.211531710412456
% es.EX (V/m) @ t=0.54
2.8749934927405807
% es.EY (V/m) @ t=0.54
0.11061727899320711
% es.EZ (V/m) @ t=0.54
-1.426923971998503
% es.tEX (V/m) @ t=0.54
2.8749934927405842
% es.tEY (V/m) @ t=0.54
0
% es.tEZ (V/m) @ t=0.54
-1.426923971998491
% es.Ex (V/m) @ t=0.54
2.8749934927405807
% es.Ey (V/m) @ t=0.54
0.11061727899320711
% es.Ez (V/m) @ t=0.54
-1.426923971998503
% es.tEx (V/m) @ t=0.54
2.8749934927405842
% es.tEy (V/m) @ t=0.54
0
% es.tEz (V/m) @ t=0.54
-1.426923971998491
% V (V) @ t=0.54
0.014570686351157797
% es.normE (V/m) @ t=0.56
3.2423318572252686
% es.EX (V/m) @ t=0.56
2.9025660748148923
% es.EY (V/m) @ t=0.56
0.11167815237970474
% es.EZ (V/m) @ t=0.56
-1.4406088649933846
% es.tEX (V/m) @ t=0.56
2.9025660748148923
% es.tEY (V/m) @ t=0.56
0
% es.tEZ (V/m) @ t=0.56
-1.440608864993365
% es.Ex (V/m) @ t=0.56
2.9025660748148923
% es.Ey (V/m) @ t=0.56
0.11167815237970474
% es.Ez (V/m) @ t=0.56
-1.4406088649933846
% es.tEx (V/m) @ t=0.56
2.9025660748148923
% es.tEy (V/m) @ t=0.56
0
% es.tEz (V/m) @ t=0.56
-1.440608864993365
% V (V) @ t=0.56
0.014710426299874239
% es.normE (V/m) @ t=0.58
3.2731320040380614
% es.EX (V/m) @ t=0.58
2.9301386568891843
% es.EY (V/m) @ t=0.58
0.11273902576618733
% es.EZ (V/m) @ t=0.58
-1.4542937579882627
% es.tEX (V/m) @ t=0.58
2.9301386568891843
% es.tEY (V/m) @ t=0.58
0
% es.tEZ (V/m) @ t=0.58
-1.4542937579882675
% es.Ex (V/m) @ t=0.58
2.9301386568891843
% es.Ey (V/m) @ t=0.58
0.11273902576618733
% es.Ez (V/m) @ t=0.58
-1.4542937579882627
% es.tEx (V/m) @ t=0.58
2.9301386568891843
% es.tEy (V/m) @ t=0.58
0
% es.tEz (V/m) @ t=0.58
-1.4542937579882675
% V (V) @ t=0.58
0.014850166248590677
% es.normE (V/m) @ t=0.6
3.3039321508508506
% es.EX (V/m) @ t=0.6
2.9577112389634728
% es.EY (V/m) @ t=0.6
0.11379989915268507
% es.EZ (V/m) @ t=0.6
-1.4679786509831374
% es.tEX (V/m) @ t=0.6
2.957711238963469
% es.tEY (V/m) @ t=0.6
0
% es.tEZ (V/m) @ t=0.6
-1.4679786509831203
% es.Ex (V/m) @ t=0.6
2.9577112389634728
% es.Ey (V/m) @ t=0.6
0.11379989915268507
% es.Ez (V/m) @ t=0.6
-1.4679786509831374
% es.tEx (V/m) @ t=0.6
2.957711238963469
% es.tEy (V/m) @ t=0.6
0
% es.tEz (V/m) @ t=0.6
-1.4679786509831203
% V (V) @ t=0.6
0.014989906197307121
% es.normE (V/m) @ t=0.62
3.334732297663643
% es.EX (V/m) @ t=0.62
2.9852838210377692
% es.EY (V/m) @ t=0.62
0.11486077253916943
% es.EZ (V/m) @ t=0.62
-1.4816635439780048
% es.tEX (V/m) @ t=0.62
2.985283821037763
% es.tEY (V/m) @ t=0.62
0
% es.tEZ (V/m) @ t=0.62
-1.4816635439780015
% es.Ex (V/m) @ t=0.62
2.9852838210377692
% es.Ey (V/m) @ t=0.62
0.11486077253916943
% es.Ez (V/m) @ t=0.62
-1.4816635439780048
% es.tEx (V/m) @ t=0.62
2.985283821037763
% es.tEy (V/m) @ t=0.62
0
% es.tEz (V/m) @ t=0.62
-1.4816635439780015
% V (V) @ t=0.62
0.015129646146023563
% es.normE (V/m) @ t=0.64
3.365532444476444
% es.EX (V/m) @ t=0.64
3.0128564031120684
% es.EY (V/m) @ t=0.64
0.11592164592565735
% es.EZ (V/m) @ t=0.64
-1.4953484369728864
% es.tEX (V/m) @ t=0.64
3.012856403112062
% es.tEY (V/m) @ t=0.64
0
% es.tEZ (V/m) @ t=0.64
-1.4953484369728685
% es.Ex (V/m) @ t=0.64
3.0128564031120684
% es.Ey (V/m) @ t=0.64
0.11592164592565735
% es.Ez (V/m) @ t=0.64
-1.4953484369728864
% es.tEx (V/m) @ t=0.64
3.012856403112062
% es.tEy (V/m) @ t=0.64
0
% es.tEz (V/m) @ t=0.64
-1.4953484369728685
% V (V) @ t=0.64
0.015269386094740007
% es.normE (V/m) @ t=0.66
3.3963325912892497
% es.EX (V/m) @ t=0.66
3.040428985186368
% es.EY (V/m) @ t=0.66
0.11698251931217374
% es.EZ (V/m) @ t=0.66
-1.5090333299677752
% es.tEX (V/m) @ t=0.66
3.0404289851863613
% es.tEY (V/m) @ t=0.66
0
% es.tEZ (V/m) @ t=0.66
-1.5090333299677638
% es.Ex (V/m) @ t=0.66
3.040428985186368
% es.Ey (V/m) @ t=0.66
0.11698251931217374
% es.Ez (V/m) @ t=0.66
-1.5090333299677752
% es.tEx (V/m) @ t=0.66
3.0404289851863613
% es.tEy (V/m) @ t=0.66
0
% es.tEz (V/m) @ t=0.66
-1.5090333299677638
% V (V) @ t=0.66
0.015409126043456445
% es.normE (V/m) @ t=0.68
3.4271327381020438
% es.EX (V/m) @ t=0.68
3.0680015672606578
% es.EY (V/m) @ t=0.68
0.11804339269866526
% es.EZ (V/m) @ t=0.68
-1.5227182229626604
% es.tEX (V/m) @ t=0.68
3.068001567260655
% es.tEY (V/m) @ t=0.68
0
% es.tEZ (V/m) @ t=0.68
-1.522718222962645
% es.Ex (V/m) @ t=0.68
3.0680015672606578
% es.Ey (V/m) @ t=0.68
0.11804339269866526
% es.Ez (V/m) @ t=0.68
-1.5227182229626604
% es.tEx (V/m) @ t=0.68
3.068001567260655
% es.tEy (V/m) @ t=0.68
0
% es.tEz (V/m) @ t=0.68
-1.522718222962645
% V (V) @ t=0.68
0.01554886599217289
% es.normE (V/m) @ t=0.7
3.4579328849148263
% es.EX (V/m) @ t=0.7
3.0955741493349462
% es.EY (V/m) @ t=0.7
0.11910426608513092
% es.EZ (V/m) @ t=0.7
-1.5364031159575242
% es.tEX (V/m) @ t=0.7
3.09557414933494
% es.tEY (V/m) @ t=0.7
0
% es.tEZ (V/m) @ t=0.7
-1.536403115957519
% es.Ex (V/m) @ t=0.7
3.0955741493349462
% es.Ey (V/m) @ t=0.7
0.11910426608513092
% es.Ez (V/m) @ t=0.7
-1.5364031159575242
% es.tEx (V/m) @ t=0.7
3.09557414933494
% es.tEy (V/m) @ t=0.7
0
% es.tEz (V/m) @ t=0.7
-1.536403115957519
% V (V) @ t=0.7
0.015688605940889333
% es.normE (V/m) @ t=0.72
3.48873303172764
% es.EX (V/m) @ t=0.72
3.123146731409257
% es.EY (V/m) @ t=0.72
0.12016513947166507
% es.EZ (V/m) @ t=0.72
-1.550088008952406
% es.tEX (V/m) @ t=0.72
3.123146731409248
% es.tEY (V/m) @ t=0.72
0
% es.tEZ (V/m) @ t=0.72
-1.5500880089524003
% es.Ex (V/m) @ t=0.72
3.123146731409257
% es.Ey (V/m) @ t=0.72
0.12016513947166507
% es.Ez (V/m) @ t=0.72
-1.550088008952406
% es.tEx (V/m) @ t=0.72
3.123146731409248
% es.tEy (V/m) @ t=0.72
0
% es.tEz (V/m) @ t=0.72
-1.5500880089524003
% V (V) @ t=0.72
0.01582834588960577
% es.normE (V/m) @ t=0.74
3.519533178540438
% es.EX (V/m) @ t=0.74
3.15071931348355
% es.EY (V/m) @ t=0.74
0.12122601285817786
% es.EZ (V/m) @ t=0.74
-1.5637729019472912
% es.tEX (V/m) @ t=0.74
3.150719313483542
% es.tEY (V/m) @ t=0.74
0
% es.tEZ (V/m) @ t=0.74
-1.5637729019472815
% es.Ex (V/m) @ t=0.74
3.15071931348355
% es.Ey (V/m) @ t=0.74
0.12122601285817786
% es.Ez (V/m) @ t=0.74
-1.5637729019472912
% es.tEx (V/m) @ t=0.74
3.150719313483542
% es.tEy (V/m) @ t=0.74
0
% es.tEz (V/m) @ t=0.74
-1.5637729019472815
% V (V) @ t=0.74
0.015968085838322214
% es.normE (V/m) @ t=0.76
3.5503333253532112
% es.EX (V/m) @ t=0.76
3.1782918955578348
% es.EY (V/m) @ t=0.76
0.12228688624464096
% es.EZ (V/m) @ t=0.76
-1.577457794942141
% es.tEX (V/m) @ t=0.76
3.1782918955578268
% es.tEY (V/m) @ t=0.76
0
% es.tEZ (V/m) @ t=0.76
-1.5774577949421342
% es.Ex (V/m) @ t=0.76
3.1782918955578348
% es.Ey (V/m) @ t=0.76
0.12228688624464096
% es.Ez (V/m) @ t=0.76
-1.577457794942141
% es.tEx (V/m) @ t=0.76
3.1782918955578268
% es.tEy (V/m) @ t=0.76
0
% es.tEz (V/m) @ t=0.76
-1.5774577949421342
% V (V) @ t=0.76
0.016107825787038656
% es.normE (V/m) @ t=0.78
3.583325561398725
% es.EX (V/m) @ t=0.78
3.2078268566370927
% es.EY (V/m) @ t=0.78
0.1234232635636262
% es.EZ (V/m) @ t=0.78
-1.5921166606965214
% es.tEX (V/m) @ t=0.78
3.2078268566370873
% es.tEY (V/m) @ t=0.78
0
% es.tEZ (V/m) @ t=0.78
-1.5921166606965116
% es.Ex (V/m) @ t=0.78
3.2078268566370927
% es.Ey (V/m) @ t=0.78
0.1234232635636262
% es.Ez (V/m) @ t=0.78
-1.5921166606965214
% es.tEx (V/m) @ t=0.78
3.2078268566370873
% es.tEy (V/m) @ t=0.78
0
% es.tEz (V/m) @ t=0.78
-1.5921166606965116
% V (V) @ t=0.78
0.016257511218433475
% es.normE (V/m) @ t=0.8
3.6175040038391986
% es.EX (V/m) @ t=0.8
3.2384237208954207
% es.EY (V/m) @ t=0.8
0.12460049836520165
% es.EZ (V/m) @ t=0.8
-1.6073025728405153
% es.tEX (V/m) @ t=0.8
3.2384237208954154
% es.tEY (V/m) @ t=0.8
0
% es.tEZ (V/m) @ t=0.8
-1.60730257284051
% es.Ex (V/m) @ t=0.8
3.2384237208954207
% es.Ey (V/m) @ t=0.8
0.12460049836520165
% es.Ez (V/m) @ t=0.8
-1.6073025728405153
% es.tEx (V/m) @ t=0.8
3.2384237208954154
% es.tEy (V/m) @ t=0.8
0
% es.tEz (V/m) @ t=0.8
-1.60730257284051
% V (V) @ t=0.8
0.01641257845408033
% es.normE (V/m) @ t=0.82
3.651682446279642
% es.EX (V/m) @ t=0.82
3.2690205851537275
% es.EY (V/m) @ t=0.82
0.12577773316675656
% es.EZ (V/m) @ t=0.82
-1.6224884849844878
% es.tEX (V/m) @ t=0.82
3.269020585153715
% es.tEY (V/m) @ t=0.82
0
% es.tEZ (V/m) @ t=0.82
-1.6224884849844798
% es.Ex (V/m) @ t=0.82
3.2690205851537275
% es.Ey (V/m) @ t=0.82
0.12577773316675656
% es.Ez (V/m) @ t=0.82
-1.6224884849844878
% es.tEx (V/m) @ t=0.82
3.269020585153715
% es.tEy (V/m) @ t=0.82
0
% es.tEz (V/m) @ t=0.82
-1.6224884849844798
% V (V) @ t=0.82
0.01656764568972718
% es.normE (V/m) @ t=0.84
3.6858608887200592
% es.EX (V/m) @ t=0.84
3.299617449412022
% es.EY (V/m) @ t=0.84
0.12695496796828665
% es.EZ (V/m) @ t=0.84
-1.6376743971284284
% es.tEX (V/m) @ t=0.84
3.2996174494120023
% es.tEY (V/m) @ t=0.84
0
% es.tEZ (V/m) @ t=0.84
-1.6376743971284142
% es.Ex (V/m) @ t=0.84
3.299617449412022
% es.Ey (V/m) @ t=0.84
0.12695496796828665
% es.Ez (V/m) @ t=0.84
-1.6376743971284284
% es.tEx (V/m) @ t=0.84
3.2996174494120023
% es.tEy (V/m) @ t=0.84
0
% es.tEz (V/m) @ t=0.84
-1.6376743971284142
% V (V) @ t=0.84
0.016722712925374035
% es.normE (V/m) @ t=0.86
3.7200393311605056
% es.EX (V/m) @ t=0.86
3.3302143136703206
% es.EY (V/m) @ t=0.86
0.1281322027698371
% es.EZ (V/m) @ t=0.86
-1.6528603092724223
% es.tEX (V/m) @ t=0.86
3.3302143136703126
% es.tEY (V/m) @ t=0.86
0
% es.tEZ (V/m) @ t=0.86
-1.6528603092724126
% es.Ex (V/m) @ t=0.86
3.3302143136703206
% es.Ey (V/m) @ t=0.86
0.1281322027698371
% es.Ez (V/m) @ t=0.86
-1.6528603092724223
% es.tEx (V/m) @ t=0.86
3.3302143136703126
% es.tEy (V/m) @ t=0.86
0
% es.tEz (V/m) @ t=0.86
-1.6528603092724126
% V (V) @ t=0.86
0.016877780161020886
% es.normE (V/m) @ t=0.88
3.754217773600955
% es.EX (V/m) @ t=0.88
3.3608111779286336
% es.EY (V/m) @ t=0.88
0.12930943757143376
% es.EZ (V/m) @ t=0.88
-1.6680462214163914
% es.tEX (V/m) @ t=0.88
3.3608111779286265
% es.tEY (V/m) @ t=0.88
0
% es.tEZ (V/m) @ t=0.88
-1.6680462214163683
% es.Ex (V/m) @ t=0.88
3.3608111779286336
% es.Ey (V/m) @ t=0.88
0.12930943757143376
% es.Ez (V/m) @ t=0.88
-1.6680462214163914
% es.tEx (V/m) @ t=0.88
3.3608111779286265
% es.tEy (V/m) @ t=0.88
0
% es.tEz (V/m) @ t=0.88
-1.6680462214163683
% V (V) @ t=0.88
0.01703284739666774
% es.normE (V/m) @ t=0.9
3.7883962160413853
% es.EX (V/m) @ t=0.9
3.391408042186927
% es.EY (V/m) @ t=0.9
0.13048667237296385
% es.EZ (V/m) @ t=0.9
-1.683232133560364
% es.tEX (V/m) @ t=0.9
3.391408042186926
% es.tEY (V/m) @ t=0.9
0
% es.tEZ (V/m) @ t=0.9
-1.6832321335603595
% es.Ex (V/m) @ t=0.9
3.391408042186927
% es.Ey (V/m) @ t=0.9
0.13048667237296385
% es.Ez (V/m) @ t=0.9
-1.683232133560364
% es.tEx (V/m) @ t=0.9
3.391408042186926
% es.tEy (V/m) @ t=0.9
0
% es.tEz (V/m) @ t=0.9
-1.6832321335603595
% V (V) @ t=0.9
0.01718791463231459
% es.normE (V/m) @ t=0.92
3.8225746584818507
% es.EX (V/m) @ t=0.92
3.422004906445248
% es.EY (V/m) @ t=0.92
0.1316639071745454
% es.EZ (V/m) @ t=0.92
-1.698418045704354
% es.tEX (V/m) @ t=0.92
3.42200490644524
% es.tEY (V/m) @ t=0.92
0
% es.tEZ (V/m) @ t=0.92
-1.6984180457043223
% es.Ex (V/m) @ t=0.92
3.422004906445248
% es.Ey (V/m) @ t=0.92
0.1316639071745454
% es.Ez (V/m) @ t=0.92
-1.698418045704354
% es.tEx (V/m) @ t=0.92
3.42200490644524
% es.tEy (V/m) @ t=0.92
0
% es.tEz (V/m) @ t=0.92
-1.6984180457043223
% V (V) @ t=0.92
0.017342981867961446
% es.normE (V/m) @ t=0.94
3.856753100922285
% es.EX (V/m) @ t=0.94
3.452601770703555
% es.EY (V/m) @ t=0.94
0.1328411419760862
% es.EZ (V/m) @ t=0.94
-1.7136039578483053
% es.tEX (V/m) @ t=0.94
3.452601770703554
% es.tEY (V/m) @ t=0.94
0
% es.tEZ (V/m) @ t=0.94
-1.7136039578483064
% es.Ex (V/m) @ t=0.94
3.452601770703555
% es.Ey (V/m) @ t=0.94
0.1328411419760862
% es.Ez (V/m) @ t=0.94
-1.7136039578483053
% es.tEx (V/m) @ t=0.94
3.452601770703554
% es.tEy (V/m) @ t=0.94
0
% es.tEz (V/m) @ t=0.94
-1.7136039578483064
% V (V) @ t=0.94
0.0174980491036083
% es.normE (V/m) @ t=0.96
3.890931543362714
% es.EX (V/m) @ t=0.96
3.4831986349618407
% es.EY (V/m) @ t=0.96
0.13401837677765888
% es.EZ (V/m) @ t=0.96
-1.728789869992285
% es.tEX (V/m) @ t=0.96
3.4831986349618376
% es.tEY (V/m) @ t=0.96
0
% es.tEZ (V/m) @ t=0.96
-1.7287898699922692
% es.Ex (V/m) @ t=0.96
3.4831986349618407
% es.Ey (V/m) @ t=0.96
0.13401837677765888
% es.Ez (V/m) @ t=0.96
-1.728789869992285
% es.tEx (V/m) @ t=0.96
3.4831986349618376
% es.tEy (V/m) @ t=0.96
0
% es.tEz (V/m) @ t=0.96
-1.7287898699922692
% V (V) @ t=0.96
0.01765311633925515
% es.normE (V/m) @ t=0.98
3.9251099858031733
% es.EX (V/m) @ t=0.98
3.51379549922017
% es.EY (V/m) @ t=0.98
0.1351956115792209
% es.EZ (V/m) @ t=0.98
-1.743975782136247
% es.tEX (V/m) @ t=0.98
3.513795499220139
% es.tEY (V/m) @ t=0.98
0
% es.tEZ (V/m) @ t=0.98
-1.7439757821362605
% es.Ex (V/m) @ t=0.98
3.51379549922017
% es.Ey (V/m) @ t=0.98
0.1351956115792209
% es.Ez (V/m) @ t=0.98
-1.743975782136247
% es.tEx (V/m) @ t=0.98
3.513795499220139
% es.tEy (V/m) @ t=0.98
0
% es.tEz (V/m) @ t=0.98
-1.7439757821362605
% V (V) @ t=0.98
0.017808183574902003
% es.normE (V/m) @ t=1
3.9592884282435916
% es.EX (V/m) @ t=1
3.5443923634784467
% es.EY (V/m) @ t=1
0.13637284638076874
% es.EZ (V/m) @ t=1
-1.759161694280223
% es.tEX (V/m) @ t=1
3.544392363478451
% es.tEY (V/m) @ t=1
0
% es.tEZ (V/m) @ t=1
-1.759161694280209
% es.Ex (V/m) @ t=1
3.5443923634784467
% es.Ey (V/m) @ t=1
0.13637284638076874
% es.Ez (V/m) @ t=1
-1.759161694280223
% es.tEx (V/m) @ t=1
3.544392363478451
% es.tEy (V/m) @ t=1
0
% es.tEz (V/m) @ t=1
-1.759161694280209
% V (V) @ t=1
0.017963250810548857
% es.normE (V/m) @ t=1.02
3.993466870684046
% es.EX (V/m) @ t=1.02
3.5749892277367685
% es.EY (V/m) @ t=1.02
0.13755008118232898
% es.EZ (V/m) @ t=1.02
-1.7743476064241883
% es.tEX (V/m) @ t=1.02
3.5749892277367525
% es.tEY (V/m) @ t=1.02
0
% es.tEZ (V/m) @ t=1.02
-1.774347606424186
% es.Ex (V/m) @ t=1.02
3.5749892277367685
% es.Ey (V/m) @ t=1.02
0.13755008118232898
% es.Ez (V/m) @ t=1.02
-1.7743476064241883
% es.tEx (V/m) @ t=1.02
3.5749892277367525
% es.tEy (V/m) @ t=1.02
0
% es.tEz (V/m) @ t=1.02
-1.774347606424186
% V (V) @ t=1.02
0.018118318046195712
% es.normE (V/m) @ t=1.04
4.0290861360049846
% es.EX (V/m) @ t=1.04
3.606875930572544
% es.EY (V/m) @ t=1.04
0.13877694418947611
% es.EZ (V/m) @ t=1.04
-1.790173693567596
% es.tEX (V/m) @ t=1.04
3.6068759305725244
% es.tEY (V/m) @ t=1.04
0
% es.tEZ (V/m) @ t=1.04
-1.7901736935675814
% es.Ex (V/m) @ t=1.04