% Model:              1 neuron.mph
% Version:            COMSOL 6.1.0.252
% Date:               Mar 22 2023, 18:53
% Dimension:          0
% Nodes:              14017
% Expressions:        14017
% Description:        Electric field norm, Electric field, X component, Electric field, Y component, Electric field, Z component, Tangential electric field, X component, Tangential electric field, Y component, Tangential electric field, Z component, Electric field, x component, Electric field, y component, Electric field, z component, Tangential electric field, x component, Tangential electric field, y component, Tangential electric field, z component, Electric potential
% Length unit:        mm
% x
1.66
% y
12.2
% z
1.33
% es.normE (V/m) @ t=0
13.916338540776547
% es.EX (V/m) @ t=0
-7.73248196785601
% es.EY (V/m) @ t=0
-0.8346540940079334
% es.EZ (V/m) @ t=0
10.353739016356812
% es.tEX (V/m) @ t=0
-7.73248196785603
% es.tEY (V/m) @ t=0
0
% es.tEZ (V/m) @ t=0
10.353739016356794
% es.Ex (V/m) @ t=0
-7.73248196785601
% es.Ey (V/m) @ t=0
-0.8346540940079334
% es.Ez (V/m) @ t=0
10.353739016356812
% es.tEx (V/m) @ t=0
-7.73248196785603
% es.tEy (V/m) @ t=0
0
% es.tEz (V/m) @ t=0
10.353739016356794
% V (V) @ t=0
0.011429002464270636
% es.normE (V/m) @ t=0.02
12.019712493594783
% es.EX (V/m) @ t=0.02
-6.678639633499259
% es.EY (V/m) @ t=0.02
-0.7209009902108634
% es.EZ (V/m) @ t=0.02
8.942651534221808
% es.tEX (V/m) @ t=0.02
-6.678639633499269
% es.tEY (V/m) @ t=0.02
0
% es.tEZ (V/m) @ t=0.02
8.942651534221795
% es.Ex (V/m) @ t=0.02
-6.678639633499259
% es.Ey (V/m) @ t=0.02
-0.7209009902108634
% es.Ez (V/m) @ t=0.02
8.942651534221808
% es.tEx (V/m) @ t=0.02
-6.678639633499269
% es.tEy (V/m) @ t=0.02
0
% es.tEz (V/m) @ t=0.02
8.942651534221795
% V (V) @ t=0.02
0.009871369778235837
% es.normE (V/m) @ t=0.04
12.13031475926574
% es.EX (V/m) @ t=0.04
-6.740094739109003
% es.EY (V/m) @ t=0.04
-0.7275345324962919
% es.EZ (V/m) @ t=0.04
9.0249394848442
% es.tEX (V/m) @ t=0.04
-6.740094739109009
% es.tEY (V/m) @ t=0.04
0
% es.tEZ (V/m) @ t=0.04
9.024939484844182
% es.Ex (V/m) @ t=0.04
-6.740094739109003
% es.Ey (V/m) @ t=0.04
-0.7275345324962919
% es.Ez (V/m) @ t=0.04
9.0249394848442
% es.tEx (V/m) @ t=0.04
-6.740094739109009
% es.tEy (V/m) @ t=0.04
0
% es.tEz (V/m) @ t=0.04
9.024939484844182
% V (V) @ t=0.04
0.009962203551585391
% es.normE (V/m) @ t=0.06
12.24171591379804
% es.EX (V/m) @ t=0.06
-6.801993736101096
% es.EY (V/m) @ t=0.06
-0.7342159910534583
% es.EZ (V/m) @ t=0.06
9.107821809642612
% es.tEX (V/m) @ t=0.06
-6.801993736101116
% es.tEY (V/m) @ t=0.06
0
% es.tEZ (V/m) @ t=0.06
9.107821809642594
% es.Ex (V/m) @ t=0.06
-6.801993736101096
% es.Ey (V/m) @ t=0.06
-0.7342159910534583
% es.Ez (V/m) @ t=0.06
9.107821809642612
% es.tEx (V/m) @ t=0.06
-6.801993736101116
% es.tEy (V/m) @ t=0.06
0
% es.tEz (V/m) @ t=0.06
9.107821809642594
% V (V) @ t=0.06
0.01005369342768364
% es.normE (V/m) @ t=0.08
12.355268584464028
% es.EX (V/m) @ t=0.08
-6.865088203399467
% es.EY (V/m) @ t=0.08
-0.7410264898403374
% es.EZ (V/m) @ t=0.08
9.192304859456314
% es.tEX (V/m) @ t=0.08
-6.8650882033994876
% es.tEY (V/m) @ t=0.08
0
% es.tEZ (V/m) @ t=0.08
9.1923048594563
% es.Ex (V/m) @ t=0.08
-6.865088203399467
% es.Ey (V/m) @ t=0.08
-0.7410264898403374
% es.Ez (V/m) @ t=0.08
9.192304859456314
% es.tEx (V/m) @ t=0.08
-6.8650882033994876
% es.tEy (V/m) @ t=0.08
0
% es.tEz (V/m) @ t=0.08
9.1923048594563
% V (V) @ t=0.08
0.010146950268105505
% es.normE (V/m) @ t=0.1
12.469376712282433
% es.EX (V/m) @ t=0.1
-6.928491305395836
% es.EY (V/m) @ t=0.1
-0.7478703029572378
% es.EZ (V/m) @ t=0.1
9.277201168619973
% es.tEX (V/m) @ t=0.1
-6.928491305395841
% es.tEY (V/m) @ t=0.1
0
% es.tEZ (V/m) @ t=0.1
9.277201168619964
% es.Ex (V/m) @ t=0.1
-6.928491305395836
% es.Ey (V/m) @ t=0.1
-0.7478703029572378
% es.Ez (V/m) @ t=0.1
9.277201168619973
% es.tEx (V/m) @ t=0.1
-6.928491305395841
% es.tEy (V/m) @ t=0.1
0
% es.tEz (V/m) @ t=0.1
9.277201168619964
% V (V) @ t=0.1
0.01024066328589751
% es.normE (V/m) @ t=0.12
12.583484840100848
% es.EX (V/m) @ t=0.12
-6.99189440739219
% es.EY (V/m) @ t=0.12
-0.7547141160741904
% es.EZ (V/m) @ t=0.12
9.362097477783635
% es.tEX (V/m) @ t=0.12
-6.9918944073921985
% es.tEY (V/m) @ t=0.12
0
% es.tEZ (V/m) @ t=0.12
9.362097477783626
% es.Ex (V/m) @ t=0.12
-6.99189440739219
% es.Ey (V/m) @ t=0.12
-0.7547141160741904
% es.Ez (V/m) @ t=0.12
9.362097477783635
% es.tEx (V/m) @ t=0.12
-6.9918944073921985
% es.tEy (V/m) @ t=0.12
0
% es.tEz (V/m) @ t=0.12
9.362097477783626
% V (V) @ t=0.12
0.01033437630368951
% es.normE (V/m) @ t=0.14
12.700993820925136
% es.EX (V/m) @ t=0.14
-7.057187176155862
% es.EY (V/m) @ t=0.14
-0.7617618938711623
% es.EZ (V/m) @ t=0.14
9.44952401029101
% es.tEX (V/m) @ t=0.14
-7.057187176155875
% es.tEY (V/m) @ t=0.14
0
% es.tEZ (V/m) @ t=0.14
9.449524010291
% es.Ex (V/m) @ t=0.14
-7.057187176155862
% es.Ey (V/m) @ t=0.14
-0.7617618938711623
% es.Ez (V/m) @ t=0.14
9.44952401029101
% es.tEx (V/m) @ t=0.14
-7.057187176155875
% es.tEy (V/m) @ t=0.14
0
% es.tEz (V/m) @ t=0.14
9.449524010291
% V (V) @ t=0.14
0.010430882310366655
% es.normE (V/m) @ t=0.16
12.820809436694299
% es.EX (V/m) @ t=0.16
-7.123761614957031
% es.EY (V/m) @ t=0.16
-0.7689480110958566
% es.EZ (V/m) @ t=0.16
9.538666671538133
% es.tEX (V/m) @ t=0.16
-7.1237616149570595
% es.tEY (V/m) @ t=0.16
0
% es.tEZ (V/m) @ t=0.16
9.538666671538113
% es.Ex (V/m) @ t=0.16
-7.123761614957031
% es.Ey (V/m) @ t=0.16
-0.7689480110958566
% es.Ez (V/m) @ t=0.16
9.538666671538133
% es.tEx (V/m) @ t=0.16
-7.1237616149570595
% es.tEy (V/m) @ t=0.16
0
% es.tEz (V/m) @ t=0.16
9.538666671538113
% V (V) @ t=0.16
0.010529282667006002
% es.normE (V/m) @ t=0.18
12.94062505246347
% es.EX (V/m) @ t=0.18
-7.190336053758191
% es.EY (V/m) @ t=0.18
-0.77613412832059
% es.EZ (V/m) @ t=0.18
9.62780933278525
% es.tEX (V/m) @ t=0.18
-7.190336053758212
% es.tEY (V/m) @ t=0.18
0
% es.tEZ (V/m) @ t=0.18
9.627809332785237
% es.Ex (V/m) @ t=0.18
-7.190336053758191
% es.Ey (V/m) @ t=0.18
-0.77613412832059
% es.Ez (V/m) @ t=0.18
9.62780933278525
% es.tEx (V/m) @ t=0.18
-7.190336053758212
% es.tEy (V/m) @ t=0.18
0
% es.tEz (V/m) @ t=0.18
9.627809332785237
% V (V) @ t=0.18
0.010627683023645345
% es.normE (V/m) @ t=0.2
13.060440668232662
% es.EX (V/m) @ t=0.2
-7.256910492559388
% es.EY (V/m) @ t=0.2
-0.7833202455452954
% es.EZ (V/m) @ t=0.2
9.71695199403236
% es.tEX (V/m) @ t=0.2
-7.256910492559387
% es.tEY (V/m) @ t=0.2
0
% es.tEZ (V/m) @ t=0.2
9.716951994032351
% es.Ex (V/m) @ t=0.2
-7.256910492559388
% es.Ey (V/m) @ t=0.2
-0.7833202455452954
% es.Ez (V/m) @ t=0.2
9.71695199403236
% es.tEx (V/m) @ t=0.2
-7.256910492559387
% es.tEy (V/m) @ t=0.2
0
% es.tEz (V/m) @ t=0.2
9.716951994032351
% V (V) @ t=0.2
0.01072608338028469
% es.normE (V/m) @ t=0.22
13.180256284001814
% es.EX (V/m) @ t=0.22
-7.323484931360577
% es.EY (V/m) @ t=0.22
-0.7905063627699791
% es.EZ (V/m) @ t=0.22
9.806094655279464
% es.tEX (V/m) @ t=0.22
-7.323484931360575
% es.tEY (V/m) @ t=0.22
0
% es.tEZ (V/m) @ t=0.22
9.806094655279455
% es.Ex (V/m) @ t=0.22
-7.323484931360577
% es.Ey (V/m) @ t=0.22
-0.7905063627699791
% es.Ez (V/m) @ t=0.22
9.806094655279464
% es.tEx (V/m) @ t=0.22
-7.323484931360575
% es.tEy (V/m) @ t=0.22
0
% es.tEz (V/m) @ t=0.22
9.806094655279455
% V (V) @ t=0.22
0.010824483736924035
% es.normE (V/m) @ t=0.24
13.300071899770995
% es.EX (V/m) @ t=0.24
-7.3900593701617385
% es.EY (V/m) @ t=0.24
-0.797692479994681
% es.EZ (V/m) @ t=0.24
9.895237316526593
% es.tEX (V/m) @ t=0.24
-7.390059370161737
% es.tEY (V/m) @ t=0.24
0
% es.tEZ (V/m) @ t=0.24
9.89523731652658
% es.Ex (V/m) @ t=0.24
-7.3900593701617385
% es.Ey (V/m) @ t=0.24
-0.797692479994681
% es.Ez (V/m) @ t=0.24
9.895237316526593
% es.tEx (V/m) @ t=0.24
-7.390059370161737
% es.tEy (V/m) @ t=0.24
0
% es.tEz (V/m) @ t=0.24
9.89523731652658
% V (V) @ t=0.24
0.010922884093563383
% es.normE (V/m) @ t=0.26
13.42241055948989
% es.EX (V/m) @ t=0.26
-7.4580357236940795
% es.EY (V/m) @ t=0.26
-0.8050299163888983
% es.EZ (V/m) @ t=0.26
9.986257114963447
% es.tEX (V/m) @ t=0.26
-7.458035723694099
% es.tEY (V/m) @ t=0.26
0
% es.tEZ (V/m) @ t=0.26
9.986257114963427
% es.Ex (V/m) @ t=0.26
-7.4580357236940795
% es.Ey (V/m) @ t=0.26
-0.8050299163888983
% es.Ez (V/m) @ t=0.26
9.986257114963447
% es.tEx (V/m) @ t=0.26
-7.458035723694099
% es.tEy (V/m) @ t=0.26
0
% es.tEz (V/m) @ t=0.26
9.986257114963427
% V (V) @ t=0.26
0.011023356530098396
% es.normE (V/m) @ t=0.28
13.55497112771062
% es.EX (V/m) @ t=0.28
-7.5316918213745865
% es.EY (V/m) @ t=0.28
-0.8129804101598266
% es.EZ (V/m) @ t=0.28
10.084881982904212
% es.tEX (V/m) @ t=0.28
-7.531691821374599
% es.tEY (V/m) @ t=0.28
0
% es.tEZ (V/m) @ t=0.28
10.084881982904186
% es.Ex (V/m) @ t=0.28
-7.5316918213745865
% es.Ey (V/m) @ t=0.28
-0.8129804101598266
% es.Ez (V/m) @ t=0.28
10.084881982904212
% es.tEx (V/m) @ t=0.28
-7.531691821374599
% es.tEy (V/m) @ t=0.28
0
% es.tEz (V/m) @ t=0.28
10.084881982904186
% V (V) @ t=0.28
0.011132223830743497
% es.normE (V/m) @ t=0.3
13.687531695931312
% es.EX (V/m) @ t=0.3
-7.6053479190551005
% es.EY (V/m) @ t=0.3
-0.8209309039307473
% es.EZ (V/m) @ t=0.3
10.183506850844923
% es.tEX (V/m) @ t=0.3
-7.60534791905512
% es.tEY (V/m) @ t=0.3
0
% es.tEZ (V/m) @ t=0.3
10.183506850844907
% es.Ex (V/m) @ t=0.3
-7.6053479190551005
% es.Ey (V/m) @ t=0.3
-0.8209309039307473
% es.Ez (V/m) @ t=0.3
10.183506850844923
% es.tEx (V/m) @ t=0.3
-7.60534791905512
% es.tEy (V/m) @ t=0.3
0
% es.tEz (V/m) @ t=0.3
10.183506850844907
% V (V) @ t=0.3
0.011241091131388598
% es.normE (V/m) @ t=0.32
13.820092264152017
% es.EX (V/m) @ t=0.32
-7.679004016735615
% es.EY (V/m) @ t=0.32
-0.8288813977016574
% es.EZ (V/m) @ t=0.32
10.282131718785644
% es.tEX (V/m) @ t=0.32
-7.679004016735622
% es.tEY (V/m) @ t=0.32
0
% es.tEZ (V/m) @ t=0.32
10.282131718785632
% es.Ex (V/m) @ t=0.32
-7.679004016735615
% es.Ey (V/m) @ t=0.32
-0.8288813977016574
% es.Ez (V/m) @ t=0.32
10.282131718785644
% es.tEx (V/m) @ t=0.32
-7.679004016735622
% es.tEy (V/m) @ t=0.32
0
% es.tEz (V/m) @ t=0.32
10.282131718785632
% V (V) @ t=0.32
0.011349958432033699
% es.normE (V/m) @ t=0.34
13.952652832372728
% es.EX (V/m) @ t=0.34
-7.752660114416138
% es.EY (V/m) @ t=0.34
-0.8368318914725887
% es.EZ (V/m) @ t=0.34
10.38075658672637
% es.tEX (V/m) @ t=0.34
-7.752660114416143
% es.tEY (V/m) @ t=0.34
0
% es.tEZ (V/m) @ t=0.34
10.380756586726363
% es.Ex (V/m) @ t=0.34
-7.752660114416138
% es.Ey (V/m) @ t=0.34
-0.8368318914725887
% es.Ez (V/m) @ t=0.34
10.38075658672637
% es.tEx (V/m) @ t=0.34
-7.752660114416143
% es.tEy (V/m) @ t=0.34
0
% es.tEz (V/m) @ t=0.34
10.380756586726363
% V (V) @ t=0.34
0.011458825732678798
% es.normE (V/m) @ t=0.36
14.085213400593421
% es.EX (V/m) @ t=0.36
-7.826316212096653
% es.EY (V/m) @ t=0.36
-0.8447823852434739
% es.EZ (V/m) @ t=0.36
10.479381454667083
% es.tEX (V/m) @ t=0.36
-7.826316212096666
% es.tEY (V/m) @ t=0.36
0
% es.tEZ (V/m) @ t=0.36
10.479381454667067
% es.Ex (V/m) @ t=0.36
-7.826316212096653
% es.Ey (V/m) @ t=0.36
-0.8447823852434739
% es.Ez (V/m) @ t=0.36
10.479381454667083
% es.tEx (V/m) @ t=0.36
-7.826316212096666
% es.tEy (V/m) @ t=0.36
0
% es.tEz (V/m) @ t=0.36
10.479381454667067
% V (V) @ t=0.36
0.0115676930333239
% es.normE (V/m) @ t=0.38
14.217773968814173
% es.EX (V/m) @ t=0.38
-7.899972309777175
% es.EY (V/m) @ t=0.38
-0.8527328790144479
% es.EZ (V/m) @ t=0.38
10.578006322607846
% es.tEX (V/m) @ t=0.38
-7.899972309777187
% es.tEY (V/m) @ t=0.38
0
% es.tEZ (V/m) @ t=0.38
10.57800632260784
% es.Ex (V/m) @ t=0.38
-7.899972309777175
% es.Ey (V/m) @ t=0.38
-0.8527328790144479
% es.Ez (V/m) @ t=0.38
10.578006322607846
% es.tEx (V/m) @ t=0.38
-7.899972309777187
% es.tEy (V/m) @ t=0.38
0
% es.tEz (V/m) @ t=0.38
10.57800632260784
% V (V) @ t=0.38
0.011676560333969003
% es.normE (V/m) @ t=0.4
14.350334537034882
% es.EX (V/m) @ t=0.4
-7.973628407457696
% es.EY (V/m) @ t=0.4
-0.8606833727853509
% es.EZ (V/m) @ t=0.4
10.67663119054857
% es.tEX (V/m) @ t=0.4
-7.973628407457708
% es.tEY (V/m) @ t=0.4
0
% es.tEZ (V/m) @ t=0.4
10.676631190548559
% es.Ex (V/m) @ t=0.4
-7.973628407457696
% es.Ey (V/m) @ t=0.4
-0.8606833727853509
% es.Ez (V/m) @ t=0.4
10.67663119054857
% es.tEx (V/m) @ t=0.4
-7.973628407457708
% es.tEy (V/m) @ t=0.4
0
% es.tEz (V/m) @ t=0.4
10.676631190548559
% V (V) @ t=0.4
0.011785427634614104
% es.normE (V/m) @ t=0.42
14.482895105255569
% es.EX (V/m) @ t=0.42
-8.047284505138217
% es.EY (V/m) @ t=0.42
-0.868633866556233
% es.EZ (V/m) @ t=0.42
10.775256058489287
% es.tEX (V/m) @ t=0.42
-8.04728450513823
% es.tEY (V/m) @ t=0.42
0
% es.tEZ (V/m) @ t=0.42
10.775256058489276
% es.Ex (V/m) @ t=0.42
-8.047284505138217
% es.Ey (V/m) @ t=0.42
-0.868633866556233
% es.Ez (V/m) @ t=0.42
10.775256058489287
% es.tEx (V/m) @ t=0.42
-8.04728450513823
% es.tEy (V/m) @ t=0.42
0
% es.tEz (V/m) @ t=0.42
10.775256058489276
% V (V) @ t=0.42
0.011894294935259203
% es.normE (V/m) @ t=0.44
14.61545567347629
% es.EX (V/m) @ t=0.44
-8.120940602818731
% es.EY (V/m) @ t=0.44
-0.8765843603271537
% es.EZ (V/m) @ t=0.44
10.873880926430026
% es.tEX (V/m) @ t=0.44
-8.120940602818738
% es.tEY (V/m) @ t=0.44
0
% es.tEZ (V/m) @ t=0.44
10.873880926430012
% es.Ex (V/m) @ t=0.44
-8.120940602818731
% es.Ey (V/m) @ t=0.44
-0.8765843603271537
% es.Ez (V/m) @ t=0.44
10.873880926430026
% es.tEx (V/m) @ t=0.44
-8.120940602818738
% es.tEy (V/m) @ t=0.44
0
% es.tEz (V/m) @ t=0.44
10.873880926430012
% V (V) @ t=0.44
0.012003162235904304
% es.normE (V/m) @ t=0.46
14.748016241697005
% es.EX (V/m) @ t=0.46
-8.19459670049924
% es.EY (V/m) @ t=0.46
-0.8845348540980957
% es.EZ (V/m) @ t=0.46
10.972505794370758
% es.tEX (V/m) @ t=0.46
-8.19459670049926
% es.tEY (V/m) @ t=0.46
0
% es.tEZ (V/m) @ t=0.46
10.97250579437074
% es.Ex (V/m) @ t=0.46
-8.19459670049924
% es.Ey (V/m) @ t=0.46
-0.8845348540980957
% es.Ez (V/m) @ t=0.46
10.972505794370758
% es.tEx (V/m) @ t=0.46
-8.19459670049926
% es.tEy (V/m) @ t=0.46
0
% es.tEz (V/m) @ t=0.46
10.97250579437074
% V (V) @ t=0.46
0.012112029536549407
% es.normE (V/m) @ t=0.48
14.88057680991773
% es.EX (V/m) @ t=0.48
-8.268252798179754
% es.EY (V/m) @ t=0.48
-0.8924853478690378
% es.EZ (V/m) @ t=0.48
11.071130662311505
% es.tEX (V/m) @ t=0.48
-8.26825279817978
% es.tEY (V/m) @ t=0.48
0
% es.tEZ (V/m) @ t=0.48
11.071130662311498
% es.Ex (V/m) @ t=0.48
-8.268252798179754
% es.Ey (V/m) @ t=0.48
-0.8924853478690378
% es.Ez (V/m) @ t=0.48
11.071130662311505
% es.tEx (V/m) @ t=0.48
-8.26825279817978
% es.tEy (V/m) @ t=0.48
0
% es.tEz (V/m) @ t=0.48
11.071130662311498
% V (V) @ t=0.48
0.012220896837194508
% es.normE (V/m) @ t=0.5
15.013137378138431
% es.EX (V/m) @ t=0.5
-8.341908895860268
% es.EY (V/m) @ t=0.5
-0.900435841639927
% es.EZ (V/m) @ t=0.5
11.169755530252212
% es.tEX (V/m) @ t=0.5
-8.341908895860273
% es.tEY (V/m) @ t=0.5
0
% es.tEZ (V/m) @ t=0.5
11.169755530252203
% es.Ex (V/m) @ t=0.5
-8.341908895860268
% es.Ey (V/m) @ t=0.5
-0.900435841639927
% es.Ez (V/m) @ t=0.5
11.169755530252212
% es.tEx (V/m) @ t=0.5
-8.341908895860273
% es.tEy (V/m) @ t=0.5
0
% es.tEz (V/m) @ t=0.5
11.169755530252203
% V (V) @ t=0.5
0.01232976413783961
% es.normE (V/m) @ t=0.52
15.151460307361868
% es.EX (V/m) @ t=0.52
-8.41876677912965
% es.EY (V/m) @ t=0.52
-0.908731949389936
% es.EZ (V/m) @ t=0.52
11.272667595437158
% es.tEX (V/m) @ t=0.52
-8.418766779129662
% es.tEY (V/m) @ t=0.52
0
% es.tEZ (V/m) @ t=0.52
11.272667595437142
% es.Ex (V/m) @ t=0.52
-8.41876677912965
% es.Ey (V/m) @ t=0.52
-0.908731949389936
% es.Ez (V/m) @ t=0.52
11.272667595437158
% es.tEx (V/m) @ t=0.52
-8.418766779129662
% es.tEy (V/m) @ t=0.52
0
% es.tEz (V/m) @ t=0.52
11.272667595437142
% V (V) @ t=0.52
0.012443363877768
% es.normE (V/m) @ t=0.54
15.29834882381324
% es.EX (V/m) @ t=0.54
-8.500384026439788
% es.EY (V/m) @ t=0.54
-0.9175418025793265
% es.EZ (V/m) @ t=0.54
11.381952458498107
% es.tEX (V/m) @ t=0.54
-8.500384026439807
% es.tEY (V/m) @ t=0.54
0
% es.tEZ (V/m) @ t=0.54
11.381952458498093
% es.Ex (V/m) @ t=0.54
-8.500384026439788
% es.Ey (V/m) @ t=0.54
-0.9175418025793265
% es.Ez (V/m) @ t=0.54
11.381952458498107
% es.tEx (V/m) @ t=0.54
-8.500384026439807
% es.tEy (V/m) @ t=0.54
0
% es.tEz (V/m) @ t=0.54
11.381952458498093
% V (V) @ t=0.54
0.012563998255315042
% es.normE (V/m) @ t=0.56
15.445237340264594
% es.EX (V/m) @ t=0.56
-8.58200127374994
% es.EY (V/m) @ t=0.56
-0.9263516557687059
% es.EZ (V/m) @ t=0.56
11.491237321559034
% es.tEX (V/m) @ t=0.56
-8.582001273749952
% es.tEY (V/m) @ t=0.56
0
% es.tEZ (V/m) @ t=0.56
11.491237321559018
% es.Ex (V/m) @ t=0.56
-8.58200127374994
% es.Ey (V/m) @ t=0.56
-0.9263516557687059
% es.Ez (V/m) @ t=0.56
11.491237321559034
% es.tEx (V/m) @ t=0.56
-8.582001273749952
% es.tEy (V/m) @ t=0.56
0
% es.tEz (V/m) @ t=0.56
11.491237321559018
% V (V) @ t=0.56
0.01268463263286208
% es.normE (V/m) @ t=0.58
15.592125856715978
% es.EX (V/m) @ t=0.58
-8.663618521060101
% es.EY (V/m) @ t=0.58
-0.9351615089581031
% es.EZ (V/m) @ t=0.58
11.600522184619972
% es.tEX (V/m) @ t=0.58
-8.66361852106012
% es.tEY (V/m) @ t=0.58
0
% es.tEZ (V/m) @ t=0.58
11.600522184619965
% es.Ex (V/m) @ t=0.58
-8.663618521060101
% es.Ey (V/m) @ t=0.58
-0.9351615089581031
% es.Ez (V/m) @ t=0.58
11.600522184619972
% es.tEx (V/m) @ t=0.58
-8.66361852106012
% es.tEy (V/m) @ t=0.58
0
% es.tEz (V/m) @ t=0.58
11.600522184619965
% V (V) @ t=0.58
0.01280526701040912
% es.normE (V/m) @ t=0.6
15.739014373167327
% es.EX (V/m) @ t=0.6
-8.745235768370268
% es.EY (V/m) @ t=0.6
-0.9439713621474648
% es.EZ (V/m) @ t=0.6
11.709807047680858
% es.tEX (V/m) @ t=0.6
-8.745235768370273
% es.tEY (V/m) @ t=0.6
0
% es.tEZ (V/m) @ t=0.6
11.70980704768084
% es.Ex (V/m) @ t=0.6
-8.745235768370268
% es.Ey (V/m) @ t=0.6
-0.9439713621474648
% es.Ez (V/m) @ t=0.6
11.709807047680858
% es.tEx (V/m) @ t=0.6
-8.745235768370273
% es.tEy (V/m) @ t=0.6
0
% es.tEz (V/m) @ t=0.6
11.70980704768084
% V (V) @ t=0.6
0.01292590138795616
% es.normE (V/m) @ t=0.62
15.885902889618704
% es.EX (V/m) @ t=0.62
-8.826853015680406
% es.EY (V/m) @ t=0.62
-0.952781215336866
% es.EZ (V/m) @ t=0.62
11.81909191074182
% es.tEX (V/m) @ t=0.62
-8.826853015680426
% es.tEY (V/m) @ t=0.62
0
% es.tEZ (V/m) @ t=0.62
11.819091910741813
% es.Ex (V/m) @ t=0.62
-8.826853015680406
% es.Ey (V/m) @ t=0.62
-0.952781215336866
% es.Ez (V/m) @ t=0.62
11.81909191074182
% es.tEx (V/m) @ t=0.62
-8.826853015680426
% es.tEy (V/m) @ t=0.62
0
% es.tEz (V/m) @ t=0.62
11.819091910741813
% V (V) @ t=0.62
0.013046535765503199
% es.normE (V/m) @ t=0.64
16.032791406070075
% es.EX (V/m) @ t=0.64
-8.908470262990582
% es.EY (V/m) @ t=0.64
-0.961591068526249
% es.EZ (V/m) @ t=0.64
11.928376773802741
% es.tEX (V/m) @ t=0.64
-8.908470262990594
% es.tEY (V/m) @ t=0.64
0
% es.tEZ (V/m) @ t=0.64
11.928376773802725
% es.Ex (V/m) @ t=0.64
-8.908470262990582
% es.Ey (V/m) @ t=0.64
-0.961591068526249
% es.Ez (V/m) @ t=0.64
11.928376773802741
% es.tEx (V/m) @ t=0.64
-8.908470262990594
% es.tEy (V/m) @ t=0.64
0
% es.tEz (V/m) @ t=0.64
11.928376773802725
% V (V) @ t=0.64
0.01316717014305024
% es.normE (V/m) @ t=0.66
16.179679922521423
% es.EX (V/m) @ t=0.66
-8.990087510300727
% es.EY (V/m) @ t=0.66
-0.9704009217156355
% es.EZ (V/m) @ t=0.66
12.037661636863655
% es.tEX (V/m) @ t=0.66
-8.990087510300746
% es.tEY (V/m) @ t=0.66
0
% es.tEZ (V/m) @ t=0.66
12.037661636863632
% es.Ex (V/m) @ t=0.66
-8.990087510300727
% es.Ey (V/m) @ t=0.66
-0.9704009217156355
% es.Ez (V/m) @ t=0.66
12.037661636863655
% es.tEx (V/m) @ t=0.66
-8.990087510300746
% es.tEy (V/m) @ t=0.66
0
% es.tEz (V/m) @ t=0.66
12.037661636863632
% V (V) @ t=0.66
0.01328780452059728
% es.normE (V/m) @ t=0.68
16.326568438972817
% es.EX (V/m) @ t=0.68
-9.071704757610894
% es.EY (V/m) @ t=0.68
-0.9792107749050083
% es.EZ (V/m) @ t=0.68
12.146946499924608
% es.tEX (V/m) @ t=0.68
-9.071704757610899
% es.tEY (V/m) @ t=0.68
0
% es.tEZ (V/m) @ t=0.68
12.146946499924589
% es.Ex (V/m) @ t=0.68
-9.071704757610894
% es.Ey (V/m) @ t=0.68
-0.9792107749050083
% es.Ez (V/m) @ t=0.68
12.146946499924608
% es.tEx (V/m) @ t=0.68
-9.071704757610899
% es.tEy (V/m) @ t=0.68
0
% es.tEz (V/m) @ t=0.68
12.146946499924589
% V (V) @ t=0.68
0.01340843889814432
% es.normE (V/m) @ t=0.7
16.473456955424172
% es.EX (V/m) @ t=0.7
-9.153322004921032
% es.EY (V/m) @ t=0.7
-0.9880206280943984
% es.EZ (V/m) @ t=0.7
12.256231362985531
% es.tEX (V/m) @ t=0.7
-9.153322004921058
% es.tEY (V/m) @ t=0.7
0
% es.tEZ (V/m) @ t=0.7
12.256231362985506
% es.Ex (V/m) @ t=0.7
-9.153322004921032
% es.Ey (V/m) @ t=0.7
-0.9880206280943984
% es.Ez (V/m) @ t=0.7
12.256231362985531
% es.tEx (V/m) @ t=0.7
-9.153322004921058
% es.tEy (V/m) @ t=0.7
0
% es.tEz (V/m) @ t=0.7
12.256231362985506
% V (V) @ t=0.7
0.013529073275691358
% es.normE (V/m) @ t=0.72
16.62034547187556
% es.EX (V/m) @ t=0.72
-9.234939252231207
% es.EY (V/m) @ t=0.72
-0.9968304812837747
% es.EZ (V/m) @ t=0.72
12.365516226046468
% es.tEX (V/m) @ t=0.72
-9.234939252231227
% es.tEY (V/m) @ t=0.72
0
% es.tEZ (V/m) @ t=0.72
12.365516226046456
% es.Ex (V/m) @ t=0.72
-9.234939252231207
% es.Ey (V/m) @ t=0.72
-0.9968304812837747
% es.Ez (V/m) @ t=0.72
12.365516226046468
% es.tEx (V/m) @ t=0.72
-9.234939252231227
% es.tEy (V/m) @ t=0.72
0
% es.tEz (V/m) @ t=0.72
12.365516226046456
% V (V) @ t=0.72
0.013649707653238396
% es.normE (V/m) @ t=0.74
16.767233988326907
% es.EX (V/m) @ t=0.74
-9.31655649954136
% es.EY (V/m) @ t=0.74
-1.0056403344731581
% es.EZ (V/m) @ t=0.74
12.474801089107373
% es.tEX (V/m) @ t=0.74
-9.31655649954138
% es.tEY (V/m) @ t=0.74
0
% es.tEZ (V/m) @ t=0.74
12.474801089107356
% es.Ex (V/m) @ t=0.74
-9.31655649954136
% es.Ey (V/m) @ t=0.74
-1.0056403344731581
% es.Ez (V/m) @ t=0.74
12.474801089107373
% es.tEx (V/m) @ t=0.74
-9.31655649954138
% es.tEy (V/m) @ t=0.74
0
% es.tEz (V/m) @ t=0.74
12.474801089107356
% V (V) @ t=0.74
0.013770342030785436
% es.normE (V/m) @ t=0.76
16.914122504778273
% es.EX (V/m) @ t=0.76
-9.398173746851512
% es.EY (V/m) @ t=0.76
-1.0144501876625447
% es.EZ (V/m) @ t=0.76
12.58408595216831
% es.tEX (V/m) @ t=0.76
-9.398173746851525
% es.tEY (V/m) @ t=0.76
0
% es.tEZ (V/m) @ t=0.76
12.584085952168282
% es.Ex (V/m) @ t=0.76
-9.398173746851512
% es.Ey (V/m) @ t=0.76
-1.0144501876625447
% es.Ez (V/m) @ t=0.76
12.58408595216831
% es.tEx (V/m) @ t=0.76
-9.398173746851525
% es.tEy (V/m) @ t=0.76
0
% es.tEz (V/m) @ t=0.76
12.584085952168282
% V (V) @ t=0.76
0.013890976408332478
% es.normE (V/m) @ t=0.78
17.070795127967536
% es.EX (V/m) @ t=0.78
-9.485228099481334
% es.EY (V/m) @ t=0.78
-1.023846555105894
% es.EZ (V/m) @ t=0.78
12.700649861489177
% es.tEX (V/m) @ t=0.78
-9.485228099481333
% es.tEY (V/m) @ t=0.78
0
% es.tEZ (V/m) @ t=0.78
12.700649861489174
% es.Ex (V/m) @ t=0.78
-9.485228099481334
% es.Ey (V/m) @ t=0.78
-1.023846555105894
% es.Ez (V/m) @ t=0.78
12.700649861489177
% es.tEx (V/m) @ t=0.78
-9.485228099481333
% es.tEy (V/m) @ t=0.78
0
% es.tEz (V/m) @ t=0.78
12.700649861489174
% V (V) @ t=0.78
0.01401964556517759
% es.normE (V/m) @ t=0.8
17.233818693723833
% es.EX (V/m) @ t=0.8
-9.575811721010286
% es.EY (V/m) @ t=0.8
-1.0336236336801767
% es.EZ (V/m) @ t=0.8
12.821938658423957
% es.tEX (V/m) @ t=0.8
-9.575811721010298
% es.tEY (V/m) @ t=0.8
0
% es.tEZ (V/m) @ t=0.8
12.821938658423935
% es.Ex (V/m) @ t=0.8
-9.575811721010286
% es.Ey (V/m) @ t=0.8
-1.0336236336801767
% es.Ez (V/m) @ t=0.8
12.821938658423957
% es.tEx (V/m) @ t=0.8
-9.575811721010298
% es.tEy (V/m) @ t=0.8
0
% es.tEz (V/m) @ t=0.8
12.821938658423935
% V (V) @ t=0.8
0.014153530162044733
% es.normE (V/m) @ t=0.82
17.396842259480227
% es.EX (V/m) @ t=0.82
-9.666395342539252
% es.EY (V/m) @ t=0.82
-1.0434007122544378
% es.EZ (V/m) @ t=0.82
12.943227455358727
% es.tEX (V/m) @ t=0.82
-9.666395342539264
% es.tEY (V/m) @ t=0.82
0
% es.tEZ (V/m) @ t=0.82
12.943227455358706
% es.Ex (V/m) @ t=0.82
-9.666395342539252
% es.Ey (V/m) @ t=0.82
-1.0434007122544378
% es.Ez (V/m) @ t=0.82
12.943227455358727
% es.tEx (V/m) @ t=0.82
-9.666395342539264
% es.tEy (V/m) @ t=0.82
0
% es.tEz (V/m) @ t=0.82
12.943227455358706
% V (V) @ t=0.82
0.014287414758911878
% es.normE (V/m) @ t=0.84
17.55986582523675
% es.EX (V/m) @ t=0.84
-9.75697896406819
% es.EY (V/m) @ t=0.84
-1.053177790828725
% es.EZ (V/m) @ t=0.84
13.064516252293513
% es.tEX (V/m) @ t=0.84
-9.756978964068203
% es.tEY (V/m) @ t=0.84
0
% es.tEZ (V/m) @ t=0.84
13.064516252293515
% es.Ex (V/m) @ t=0.84
-9.75697896406819
% es.Ey (V/m) @ t=0.84
-1.053177790828725
% es.Ez (V/m) @ t=0.84
13.064516252293513
% es.tEx (V/m) @ t=0.84
-9.756978964068203
% es.tEy (V/m) @ t=0.84
0
% es.tEz (V/m) @ t=0.84
13.064516252293515
% V (V) @ t=0.84
0.01442129935577902
% es.normE (V/m) @ t=0.86
17.722889390993423
% es.EX (V/m) @ t=0.86
-9.847562585597178
% es.EY (V/m) @ t=0.86
-1.0629548694030317
% es.EZ (V/m) @ t=0.86
13.185805049228321
% es.tEX (V/m) @ t=0.86
-9.84756258559719
% es.tEY (V/m) @ t=0.86
0
% es.tEZ (V/m) @ t=0.86
13.185805049228305
% es.Ex (V/m) @ t=0.86
-9.847562585597178
% es.Ey (V/m) @ t=0.86
-1.0629548694030317
% es.Ez (V/m) @ t=0.86
13.185805049228321
% es.tEx (V/m) @ t=0.86
-9.84756258559719
% es.tEy (V/m) @ t=0.86
0
% es.tEz (V/m) @ t=0.86
13.185805049228305
% V (V) @ t=0.86
0.014555183952646161
% es.normE (V/m) @ t=0.88
17.885912956750143
% es.EX (V/m) @ t=0.88
-9.938146207126131
% es.EY (V/m) @ t=0.88
-1.0727319479773119
% es.EZ (V/m) @ t=0.88
13.307093846163093
% es.tEX (V/m) @ t=0.88
-9.938146207126143
% es.tEY (V/m) @ t=0.88
0
% es.tEZ (V/m) @ t=0.88
13.30709384616307
% es.Ex (V/m) @ t=0.88
-9.938146207126131
% es.Ey (V/m) @ t=0.88
-1.0727319479773119
% es.Ez (V/m) @ t=0.88
13.307093846163093
% es.tEx (V/m) @ t=0.88
-9.938146207126143
% es.tEy (V/m) @ t=0.88
0
% es.tEz (V/m) @ t=0.88
13.30709384616307
% V (V) @ t=0.88
0.014689068549513306
% es.normE (V/m) @ t=0.9
18.04893652250696
% es.EX (V/m) @ t=0.9
-10.028729828655083
% es.EY (V/m) @ t=0.9
-1.0825090265515942
% es.EZ (V/m) @ t=0.9
13.428382643097862
% es.tEX (V/m) @ t=0.9
-10.0287298286551
% es.tEY (V/m) @ t=0.9
0
% es.tEZ (V/m) @ t=0.9
13.428382643097853
% es.Ex (V/m) @ t=0.9
-10.028729828655083
% es.Ey (V/m) @ t=0.9
-1.0825090265515942
% es.Ez (V/m) @ t=0.9
13.428382643097862
% es.tEx (V/m) @ t=0.9
-10.0287298286551
% es.tEy (V/m) @ t=0.9
0
% es.tEz (V/m) @ t=0.9
13.428382643097853
% V (V) @ t=0.9
0.014822953146380451
% es.normE (V/m) @ t=0.92
18.21196008826388
% es.EX (V/m) @ t=0.92
-10.119313450184029
% es.EY (V/m) @ t=0.92
-1.0922861051258703
% es.EZ (V/m) @ t=0.92
13.549671440032654
% es.tEX (V/m) @ t=0.92
-10.119313450184062
% es.tEY (V/m) @ t=0.92
0
% es.tEZ (V/m) @ t=0.92
13.549671440032645
% es.Ex (V/m) @ t=0.92
-10.119313450184029
% es.Ey (V/m) @ t=0.92
-1.0922861051258703
% es.Ez (V/m) @ t=0.92
13.549671440032654
% es.tEx (V/m) @ t=0.92
-10.119313450184062
% es.tEy (V/m) @ t=0.92
0
% es.tEz (V/m) @ t=0.92
13.549671440032645
% V (V) @ t=0.92
0.014956837743247596
% es.normE (V/m) @ t=0.94
18.374983654020934
% es.EX (V/m) @ t=0.94
-10.209897071713018
% es.EY (V/m) @ t=0.94
-1.1020631837001598
% es.EZ (V/m) @ t=0.94
13.670960236967451
% es.tEX (V/m) @ t=0.94
-10.20989707171303
% es.tEY (V/m) @ t=0.94
0
% es.tEZ (V/m) @ t=0.94
13.670960236967424
% es.Ex (V/m) @ t=0.94
-10.209897071713018
% es.Ey (V/m) @ t=0.94
-1.1020631837001598
% es.Ez (V/m) @ t=0.94
13.670960236967451
% es.tEx (V/m) @ t=0.94
-10.20989707171303
% es.tEy (V/m) @ t=0.94
0
% es.tEz (V/m) @ t=0.94
13.670960236967424
% V (V) @ t=0.94
0.015090722340114738
% es.normE (V/m) @ t=0.96
18.53800721977802
% es.EX (V/m) @ t=0.96
-10.300480693241955
% es.EY (V/m) @ t=0.96
-1.1118402622744146
% es.EZ (V/m) @ t=0.96
13.792249033902223
% es.tEX (V/m) @ t=0.96
-10.300480693241965
% es.tEY (V/m) @ t=0.96
0
% es.tEZ (V/m) @ t=0.96
13.7922490339022
% es.Ex (V/m) @ t=0.96
-10.300480693241955
% es.Ey (V/m) @ t=0.96
-1.1118402622744146
% es.Ez (V/m) @ t=0.96
13.792249033902223
% es.tEx (V/m) @ t=0.96
-10.300480693241965
% es.tEy (V/m) @ t=0.96
0
% es.tEz (V/m) @ t=0.96
13.7922490339022
% V (V) @ t=0.96
0.015224606936981883
% es.normE (V/m) @ t=0.98
18.701030785535256
% es.EX (V/m) @ t=0.98
-10.391064314770915
% es.EY (V/m) @ t=0.98
-1.1216173408487147
% es.EZ (V/m) @ t=0.98
13.913537830837038
% es.tEX (V/m) @ t=0.98
-10.391064314770942
% es.tEY (V/m) @ t=0.98
0
% es.tEZ (V/m) @ t=0.98
13.913537830837022
% es.Ex (V/m) @ t=0.98
-10.391064314770915
% es.Ey (V/m) @ t=0.98
-1.1216173408487147
% es.Ez (V/m) @ t=0.98
13.913537830837038
% es.tEx (V/m) @ t=0.98
-10.391064314770942
% es.tEy (V/m) @ t=0.98
0
% es.tEz (V/m) @ t=0.98
13.913537830837022
% V (V) @ t=0.98
0.015358491533849024
% es.normE (V/m) @ t=1
18.86405435129253
% es.EX (V/m) @ t=1
-10.48164793629985
% es.EY (V/m) @ t=1
-1.1313944194229908
% es.EZ (V/m) @ t=1
14.034826627771828
% es.tEX (V/m) @ t=1
-10.481647936299884
% es.tEY (V/m) @ t=1
0
% es.tEZ (V/m) @ t=1
14.034826627771812
% es.Ex (V/m) @ t=1
-10.48164793629985
% es.Ey (V/m) @ t=1
-1.1313944194229908
% es.Ez (V/m) @ t=1
14.034826627771828
% es.tEx (V/m) @ t=1
-10.481647936299884
% es.tEy (V/m) @ t=1
0
% es.tEz (V/m) @ t=1
14.034826627771812
% V (V) @ t=1
0.01549237613071617
% es.normE (V/m) @ t=1.02
19.027077917049937
% es.EX (V/m) @ t=1.02
-10.572231557828838
% es.EY (V/m) @ t=1.02
-1.141171497997302
% es.EZ (V/m) @ t=1.02
14.156115424706615
% es.tEX (V/m) @ t=1.02
-10.572231557828857
% es.tEY (V/m) @ t=1.02
0
% es.tEZ (V/m) @ t=1.02
14.156115424706595
% es.Ex (V/m) @ t=1.02
-10.572231557828838
% es.Ey (V/m) @ t=1.02
-1.141171497997302
% es.Ez (V/m) @ t=1.02
14.156115424706615
% es.tEx (V/m) @ t=1.02
-10.572231557828857
% es.tEy (V/m) @ t=1.02
0
% es.tEz (V/m) @ t=1.02
14.156115424706595
% V (V) @ t=1.02
0.015626260727583312
% es.normE (V/m) @ t=1.04
19.19650871492987
% es.EX (V/m) @ t=1.04
-10.666374804311786
% es.EY (V/m) @ t=1.04
-1.1513330869001548
% es.EZ (V/m) @ t=1.04
14.282171432031335
% es.tEX (V/m) @ t=1.04
-10.666374804311806
% es.tEY (V/m) @ t=1.04
0
% es.tEZ (V/m) @ t=1.04
14.282171432031324
% es.Ex (V/m) @ t=1.04
-10.666374804311786
% es.Ey (V/m) @ t=1.04
-1.1513330869001548
% es.Ez (V/m) @ t=1.04
14.282171432031335
% es.tEx (V/m) @ t=1.04
-10.666374804311806