% Model:              1 neuron.mph
% Version:            COMSOL 6.1.0.252
% Date:               Mar 22 2023, 18:43
% Dimension:          0
% Nodes:              14017
% Expressions:        14017
% Description:        Electric field norm, Electric field, X component, Electric field, Y component, Electric field, Z component, Tangential electric field, X component, Tangential electric field, Y component, Tangential electric field, Z component, Electric field, x component, Electric field, y component, Electric field, z component, Tangential electric field, x component, Tangential electric field, y component, Tangential electric field, z component, Electric potential
% Length unit:        mm
% x
1.3300000000000003
% y
12.200000000000001
% z
1.66
% es.normE (V/m) @ t=0
13.277647424108093
% es.EX (V/m) @ t=0
8.425988037541174
% es.EY (V/m) @ t=0
2.519664638449992
% es.EZ (V/m) @ t=0
-9.229558615740373
% es.tEX (V/m) @ t=0
8.42598803754117
% es.tEY (V/m) @ t=0
0
% es.tEZ (V/m) @ t=0
-9.22955861574035
% es.Ex (V/m) @ t=0
8.425988037541174
% es.Ey (V/m) @ t=0
2.519664638449992
% es.Ez (V/m) @ t=0
-9.229558615740373
% es.tEx (V/m) @ t=0
8.42598803754117
% es.tEy (V/m) @ t=0
0
% es.tEz (V/m) @ t=0
-9.22955861574035
% V (V) @ t=0
0.011373346441433688
% es.normE (V/m) @ t=0.02
11.46797412879642
% es.EX (V/m) @ t=0.02
7.277570321238887
% es.EY (V/m) @ t=0.02
2.1762476427767354
% es.EZ (V/m) @ t=0.02
-7.971618468377292
% es.tEX (V/m) @ t=0.02
7.277570321238865
% es.tEY (V/m) @ t=0.02
0
% es.tEZ (V/m) @ t=0.02
-7.971618468377276
% es.Ex (V/m) @ t=0.02
7.277570321238887
% es.Ey (V/m) @ t=0.02
2.1762476427767354
% es.Ez (V/m) @ t=0.02
-7.971618468377292
% es.tEx (V/m) @ t=0.02
7.277570321238865
% es.tEy (V/m) @ t=0.02
0
% es.tEz (V/m) @ t=0.02
-7.971618468377276
% V (V) @ t=0.02
0.009823219320062589
% es.normE (V/m) @ t=0.04
11.573403208554168
% es.EX (V/m) @ t=0.04
7.344475560323474
% es.EY (V/m) @ t=0.04
2.1962546483212577
% es.EZ (V/m) @ t=0.04
-8.044904332568652
% es.tEX (V/m) @ t=0.04
7.344475560323467
% es.tEY (V/m) @ t=0.04
0
% es.tEZ (V/m) @ t=0.04
-8.044904332568636
% es.Ex (V/m) @ t=0.04
7.344475560323474
% es.Ey (V/m) @ t=0.04
2.1962546483212577
% es.Ez (V/m) @ t=0.04
-8.044904332568652
% es.tEx (V/m) @ t=0.04
7.344475560323467
% es.tEy (V/m) @ t=0.04
0
% es.tEz (V/m) @ t=0.04
-8.044904332568636
% V (V) @ t=0.04
0.009913527589323626
% es.normE (V/m) @ t=0.06
11.679586257424436
% es.EX (V/m) @ t=0.06
7.411859265246487
% es.EY (V/m) @ t=0.06
2.2164047226170194
% es.EZ (V/m) @ t=0.06
-8.118714297142247
% es.tEX (V/m) @ t=0.06
7.4118592652464645
% es.tEY (V/m) @ t=0.06
0
% es.tEZ (V/m) @ t=0.06
-8.118714297142233
% es.Ex (V/m) @ t=0.06
7.411859265246487
% es.Ey (V/m) @ t=0.06
2.2164047226170194
% es.Ez (V/m) @ t=0.06
-8.118714297142247
% es.tEx (V/m) @ t=0.06
7.4118592652464645
% es.tEy (V/m) @ t=0.06
0
% es.tEz (V/m) @ t=0.06
-8.118714297142233
% V (V) @ t=0.06
0.010004481714126595
% es.normE (V/m) @ t=0.08
11.787835628316468
% es.EX (V/m) @ t=0.08
7.480554258545606
% es.EY (V/m) @ t=0.08
2.236946923325413
% es.EZ (V/m) @ t=0.08
-8.193960602727232
% es.tEX (V/m) @ t=0.08
7.480554258545592
% es.tEY (V/m) @ t=0.08
0
% es.tEZ (V/m) @ t=0.08
-8.193960602727211
% es.Ex (V/m) @ t=0.08
7.480554258545606
% es.Ey (V/m) @ t=0.08
2.236946923325413
% es.Ez (V/m) @ t=0.08
-8.193960602727232
% es.tEx (V/m) @ t=0.08
7.480554258545592
% es.tEy (V/m) @ t=0.08
0
% es.tEz (V/m) @ t=0.08
-8.193960602727211
% V (V) @ t=0.08
0.01009720579295957
% es.normE (V/m) @ t=0.1
11.896591212971426
% es.EX (V/m) @ t=0.1
7.549570495201856
% es.EY (V/m) @ t=0.1
2.2575851883378
% es.EZ (V/m) @ t=0.1
-8.26955878743877
% es.tEX (V/m) @ t=0.1
7.5495704952018405
% es.tEY (V/m) @ t=0.1
0
% es.tEZ (V/m) @ t=0.1
-8.269558787438749
% es.Ex (V/m) @ t=0.1
7.549570495201856
% es.Ey (V/m) @ t=0.1
2.2575851883378
% es.Ez (V/m) @ t=0.1
-8.26955878743877
% es.tEx (V/m) @ t=0.1
7.5495704952018405
% es.tEy (V/m) @ t=0.1
0
% es.tEz (V/m) @ t=0.1
-8.269558787438749
% V (V) @ t=0.1
0.010190363480436452
% es.normE (V/m) @ t=0.12
12.005346797626384
% es.EX (V/m) @ t=0.12
7.618586731858111
% es.EY (V/m) @ t=0.12
2.2782234533502055
% es.EZ (V/m) @ t=0.12
-8.345156972150313
% es.tEX (V/m) @ t=0.12
7.618586731858103
% es.tEY (V/m) @ t=0.12
0
% es.tEZ (V/m) @ t=0.12
-8.345156972150292
% es.Ex (V/m) @ t=0.12
7.618586731858111
% es.Ey (V/m) @ t=0.12
2.2782234533502055
% es.Ez (V/m) @ t=0.12
-8.345156972150313
% es.tEx (V/m) @ t=0.12
7.618586731858103
% es.tEy (V/m) @ t=0.12
0
% es.tEz (V/m) @ t=0.12
-8.345156972150292
% V (V) @ t=0.12
0.010283521167913336
% es.normE (V/m) @ t=0.14
12.117424978325232
% es.EX (V/m) @ t=0.14
7.689711486796515
% es.EY (V/m) @ t=0.14
2.299492241501002
% es.EZ (V/m) @ t=0.14
-8.423064759605023
% es.tEX (V/m) @ t=0.14
7.689711486796508
% es.tEY (V/m) @ t=0.14
0
% es.tEZ (V/m) @ t=0.14
-8.423064759605015
% es.Ex (V/m) @ t=0.14
7.689711486796515
% es.Ey (V/m) @ t=0.14
2.299492241501002
% es.Ez (V/m) @ t=0.14
-8.423064759605023
% es.tEx (V/m) @ t=0.14
7.689711486796508
% es.tEy (V/m) @ t=0.14
0
% es.tEz (V/m) @ t=0.14
-8.423064759605015
% V (V) @ t=0.14
0.010379524914151204
% es.normE (V/m) @ t=0.16
12.231603623181666
% es.EX (V/m) @ t=0.16
7.762169195551424
% es.EY (V/m) @ t=0.16
2.321159630997017
% es.EZ (V/m) @ t=0.16
-8.50243262156658
% es.tEX (V/m) @ t=0.16
7.762169195551416
% es.tEY (V/m) @ t=0.16
0
% es.tEZ (V/m) @ t=0.16
-8.502432621566559
% es.Ex (V/m) @ t=0.16
7.762169195551424
% es.Ey (V/m) @ t=0.16
2.321159630997017
% es.Ez (V/m) @ t=0.16
-8.50243262156658
% es.tEx (V/m) @ t=0.16
7.762169195551416
% es.tEy (V/m) @ t=0.16
0
% es.tEz (V/m) @ t=0.16
-8.502432621566559
% V (V) @ t=0.16
0.010477327869302475
% es.normE (V/m) @ t=0.18
12.3457822680381
% es.EX (V/m) @ t=0.18
7.834626904306326
% es.EY (V/m) @ t=0.18
2.342827020492993
% es.EZ (V/m) @ t=0.18
-8.58180048352813
% es.tEX (V/m) @ t=0.18
7.834626904306297
% es.tEY (V/m) @ t=0.18
0
% es.tEZ (V/m) @ t=0.18
-8.581800483528117
% es.Ex (V/m) @ t=0.18
7.834626904306326
% es.Ey (V/m) @ t=0.18
2.342827020492993
% es.Ez (V/m) @ t=0.18
-8.58180048352813
% es.tEx (V/m) @ t=0.18
7.834626904306297
% es.tEy (V/m) @ t=0.18
0
% es.tEz (V/m) @ t=0.18
-8.581800483528117
% V (V) @ t=0.18
0.01057513082445375
% es.normE (V/m) @ t=0.2
12.45996091289452
% es.EX (V/m) @ t=0.2
7.907084613061217
% es.EY (V/m) @ t=0.2
2.364494409988986
% es.EZ (V/m) @ t=0.2
-8.661168345489685
% es.tEX (V/m) @ t=0.2
7.9070846130611985
% es.tEY (V/m) @ t=0.2
0
% es.tEZ (V/m) @ t=0.2
-8.661168345489664
% es.Ex (V/m) @ t=0.2
7.907084613061217
% es.Ey (V/m) @ t=0.2
2.364494409988986
% es.Ez (V/m) @ t=0.2
-8.661168345489685
% es.tEx (V/m) @ t=0.2
7.9070846130611985
% es.tEy (V/m) @ t=0.2
0
% es.tEz (V/m) @ t=0.2
-8.661168345489664
% V (V) @ t=0.2
0.010672933779605025
% es.normE (V/m) @ t=0.22
12.574139557750954
% es.EX (V/m) @ t=0.22
7.979542321816115
% es.EY (V/m) @ t=0.22
2.3861617994849764
% es.EZ (V/m) @ t=0.22
-8.740536207451246
% es.tEX (V/m) @ t=0.22
7.9795423218160995
% es.tEY (V/m) @ t=0.22
0
% es.tEZ (V/m) @ t=0.22
-8.740536207451225
% es.Ex (V/m) @ t=0.22
7.979542321816115
% es.Ey (V/m) @ t=0.22
2.3861617994849764
% es.Ez (V/m) @ t=0.22
-8.740536207451246
% es.tEx (V/m) @ t=0.22
7.9795423218160995
% es.tEy (V/m) @ t=0.22
0
% es.tEz (V/m) @ t=0.22
-8.740536207451225
% V (V) @ t=0.22
0.010770736734756302
% es.normE (V/m) @ t=0.24
12.688318202607391
% es.EX (V/m) @ t=0.24
8.052000030570998
% es.EY (V/m) @ t=0.24
2.4078291889809735
% es.EZ (V/m) @ t=0.24
-8.819904069412821
% es.tEX (V/m) @ t=0.24
8.05200003057098
% es.tEY (V/m) @ t=0.24
0
% es.tEZ (V/m) @ t=0.24
-8.8199040694128
% es.Ex (V/m) @ t=0.24
8.052000030570998
% es.Ey (V/m) @ t=0.24
2.4078291889809735
% es.Ez (V/m) @ t=0.24
-8.819904069412821
% es.tEx (V/m) @ t=0.24
8.05200003057098
% es.tEy (V/m) @ t=0.24
0
% es.tEz (V/m) @ t=0.24
-8.8199040694128
% V (V) @ t=0.24
0.010868539689907575
% es.normE (V/m) @ t=0.26
12.805300261845368
% es.EX (V/m) @ t=0.26
8.126236783983032
% es.EY (V/m) @ t=0.26
2.4300285725371347
% es.EZ (V/m) @ t=0.26
-8.901220641180778
% es.tEX (V/m) @ t=0.26
8.126236783983002
% es.tEY (V/m) @ t=0.26
0
% es.tEZ (V/m) @ t=0.26
-8.901220641180764
% es.Ex (V/m) @ t=0.26
8.126236783983032
% es.Ey (V/m) @ t=0.26
2.4300285725371347
% es.Ez (V/m) @ t=0.26
-8.901220641180778
% es.tEx (V/m) @ t=0.26
8.126236783983002
% es.tEy (V/m) @ t=0.26
0
% es.tEz (V/m) @ t=0.26
-8.901220641180764
% V (V) @ t=0.26
0.010968743994927562
% es.normE (V/m) @ t=0.28
12.931583988233541
% es.EX (V/m) @ t=0.28
8.206376368369572
% es.EY (V/m) @ t=0.28
2.453993100663374
% es.EZ (V/m) @ t=0.28
-8.989002989150368
% es.tEX (V/m) @ t=0.28
8.20637636836957
% es.tEY (V/m) @ t=0.28
0
% es.tEZ (V/m) @ t=0.28
-8.989002989150347
% es.Ex (V/m) @ t=0.28
8.206376368369572
% es.Ey (V/m) @ t=0.28
2.453993100663374
% es.Ez (V/m) @ t=0.28
-8.989002989150368
% es.tEx (V/m) @ t=0.28
8.20637636836957
% es.tEy (V/m) @ t=0.28
0
% es.tEz (V/m) @ t=0.28
-8.989002989150347
% V (V) @ t=0.28
0.01107691592590293
% es.normE (V/m) @ t=0.3
13.057867714621754
% es.EX (V/m) @ t=0.3
8.286515952756137
% es.EY (V/m) @ t=0.3
2.477957628789638
% es.EZ (V/m) @ t=0.3
-9.07678533711999
% es.tEX (V/m) @ t=0.3
8.286515952756112
% es.tEY (V/m) @ t=0.3
0
% es.tEZ (V/m) @ t=0.3
-9.076785337119968
% es.Ex (V/m) @ t=0.3
8.286515952756137
% es.Ey (V/m) @ t=0.3
2.477957628789638
% es.Ez (V/m) @ t=0.3
-9.07678533711999
% es.tEx (V/m) @ t=0.3
8.286515952756112
% es.tEy (V/m) @ t=0.3
0
% es.tEz (V/m) @ t=0.3
-9.076785337119968
% V (V) @ t=0.3
0.011185087856878302
% es.normE (V/m) @ t=0.32
13.184151441009968
% es.EX (V/m) @ t=0.32
8.366655537142716
% es.EY (V/m) @ t=0.32
2.5019221569158345
% es.EZ (V/m) @ t=0.32
-9.164567685089615
% es.tEX (V/m) @ t=0.32
8.36665553714268
% es.tEY (V/m) @ t=0.32
0
% es.tEZ (V/m) @ t=0.32
-9.164567685089587
% es.Ex (V/m) @ t=0.32
8.366655537142716
% es.Ey (V/m) @ t=0.32
2.5019221569158345
% es.Ez (V/m) @ t=0.32
-9.164567685089615
% es.tEx (V/m) @ t=0.32
8.36665553714268
% es.tEy (V/m) @ t=0.32
0
% es.tEz (V/m) @ t=0.32
-9.164567685089587
% V (V) @ t=0.32
0.011293259787853671
% es.normE (V/m) @ t=0.34
13.310435167398186
% es.EX (V/m) @ t=0.34
8.44679512152927
% es.EY (V/m) @ t=0.34
2.525886685042106
% es.EZ (V/m) @ t=0.34
-9.252350033059244
% es.tEX (V/m) @ t=0.34
8.44679512152927
% es.tEY (V/m) @ t=0.34
0
% es.tEZ (V/m) @ t=0.34
-9.252350033059214
% es.Ex (V/m) @ t=0.34
8.44679512152927
% es.Ey (V/m) @ t=0.34
2.525886685042106
% es.Ez (V/m) @ t=0.34
-9.252350033059244
% es.tEx (V/m) @ t=0.34
8.44679512152927
% es.tEy (V/m) @ t=0.34
0
% es.tEz (V/m) @ t=0.34
-9.252350033059214
% V (V) @ t=0.34
0.011401431718829043
% es.normE (V/m) @ t=0.36
13.43671889378638
% es.EX (V/m) @ t=0.36
8.526934705915846
% es.EY (V/m) @ t=0.36
2.5498512131683557
% es.EZ (V/m) @ t=0.36
-9.340132381028857
% es.tEX (V/m) @ t=0.36
8.526934705915819
% es.tEY (V/m) @ t=0.36
0
% es.tEZ (V/m) @ t=0.36
-9.340132381028827
% es.Ex (V/m) @ t=0.36
8.526934705915846
% es.Ey (V/m) @ t=0.36
2.5498512131683557
% es.Ez (V/m) @ t=0.36
-9.340132381028857
% es.tEx (V/m) @ t=0.36
8.526934705915819
% es.tEy (V/m) @ t=0.36
0
% es.tEz (V/m) @ t=0.36
-9.340132381028827
% V (V) @ t=0.36
0.011509603649804412
% es.normE (V/m) @ t=0.38
13.56300262017458
% es.EX (V/m) @ t=0.38
8.607074290302425
% es.EY (V/m) @ t=0.38
2.573815741294606
% es.EZ (V/m) @ t=0.38
-9.427914728998442
% es.tEX (V/m) @ t=0.38
8.607074290302394
% es.tEY (V/m) @ t=0.38
0
% es.tEZ (V/m) @ t=0.38
-9.427914728998427
% es.Ex (V/m) @ t=0.38
8.607074290302425
% es.Ey (V/m) @ t=0.38
2.573815741294606
% es.Ez (V/m) @ t=0.38
-9.427914728998442
% es.tEx (V/m) @ t=0.38
8.607074290302394
% es.tEy (V/m) @ t=0.38
0
% es.tEz (V/m) @ t=0.38
-9.427914728998427
% V (V) @ t=0.38
0.011617775580779784
% es.normE (V/m) @ t=0.4
13.689286346562767
% es.EX (V/m) @ t=0.4
8.687213874688982
% es.EY (V/m) @ t=0.4
2.597780269420824
% es.EZ (V/m) @ t=0.4
-9.515697076968046
% es.tEX (V/m) @ t=0.4
8.68721387468895
% es.tEY (V/m) @ t=0.4
0
% es.tEZ (V/m) @ t=0.4
-9.515697076968024
% es.Ex (V/m) @ t=0.4
8.687213874688982
% es.Ey (V/m) @ t=0.4
2.597780269420824
% es.Ez (V/m) @ t=0.4
-9.515697076968046
% es.tEx (V/m) @ t=0.4
8.68721387468895
% es.tEy (V/m) @ t=0.4
0
% es.tEz (V/m) @ t=0.4
-9.515697076968024
% V (V) @ t=0.4
0.011725947511755153
% es.normE (V/m) @ t=0.42
13.815570072950958
% es.EX (V/m) @ t=0.42
8.767353459075533
% es.EY (V/m) @ t=0.42
2.621744797547095
% es.EZ (V/m) @ t=0.42
-9.603479424937653
% es.tEX (V/m) @ t=0.42
8.767353459075519
% es.tEY (V/m) @ t=0.42
0
% es.tEZ (V/m) @ t=0.42
-9.603479424937639
% es.Ex (V/m) @ t=0.42
8.767353459075533
% es.Ey (V/m) @ t=0.42
2.621744797547095
% es.Ez (V/m) @ t=0.42
-9.603479424937653
% es.tEx (V/m) @ t=0.42
8.767353459075519
% es.tEy (V/m) @ t=0.42
0
% es.tEz (V/m) @ t=0.42
-9.603479424937639
% V (V) @ t=0.42
0.011834119442730525
% es.normE (V/m) @ t=0.44
13.941853799339178
% es.EX (V/m) @ t=0.44
8.84749304346213
% es.EY (V/m) @ t=0.44
2.6457093256733235
% es.EZ (V/m) @ t=0.44
-9.691261772907264
% es.tEX (V/m) @ t=0.44
8.847493043462123
% es.tEY (V/m) @ t=0.44
0
% es.tEZ (V/m) @ t=0.44
-9.69126177290725
% es.Ex (V/m) @ t=0.44
8.84749304346213
% es.Ey (V/m) @ t=0.44
2.6457093256733235
% es.Ez (V/m) @ t=0.44
-9.691261772907264
% es.tEx (V/m) @ t=0.44
8.847493043462123
% es.tEy (V/m) @ t=0.44
0
% es.tEz (V/m) @ t=0.44
-9.69126177290725
% V (V) @ t=0.44
0.011942291373705893
% es.normE (V/m) @ t=0.46
14.06813752572739
% es.EX (V/m) @ t=0.46
8.927632627848684
% es.EY (V/m) @ t=0.46
2.6696738537995945
% es.EZ (V/m) @ t=0.46
-9.7790441208769
% es.tEX (V/m) @ t=0.46
8.927632627848658
% es.tEY (V/m) @ t=0.46
0
% es.tEZ (V/m) @ t=0.46
-9.779044120876879
% es.Ex (V/m) @ t=0.46
8.927632627848684
% es.Ey (V/m) @ t=0.46
2.6696738537995945
% es.Ez (V/m) @ t=0.46
-9.7790441208769
% es.tEx (V/m) @ t=0.46
8.927632627848658
% es.tEy (V/m) @ t=0.46
0
% es.tEz (V/m) @ t=0.46
-9.779044120876879
% V (V) @ t=0.46
0.012050463304681267
% es.normE (V/m) @ t=0.48
14.194421252115585
% es.EX (V/m) @ t=0.48
9.007772212235238
% es.EY (V/m) @ t=0.48
2.6936383819258305
% es.EZ (V/m) @ t=0.48
-9.866826468846513
% es.tEX (V/m) @ t=0.48
9.007772212235235
% es.tEY (V/m) @ t=0.48
0
% es.tEZ (V/m) @ t=0.48
-9.866826468846499
% es.Ex (V/m) @ t=0.48
9.007772212235238
% es.Ey (V/m) @ t=0.48
2.6936383819258305
% es.Ez (V/m) @ t=0.48
-9.866826468846513
% es.tEx (V/m) @ t=0.48
9.007772212235235
% es.tEy (V/m) @ t=0.48
0
% es.tEz (V/m) @ t=0.48
-9.866826468846499
% V (V) @ t=0.48
0.012158635235656634
% es.normE (V/m) @ t=0.5
14.320704978503768
% es.EX (V/m) @ t=0.5
9.087911796621814
% es.EY (V/m) @ t=0.5
2.7176029100520696
% es.EZ (V/m) @ t=0.5
-9.954608816816084
% es.tEX (V/m) @ t=0.5
9.087911796621796
% es.tEY (V/m) @ t=0.5
0
% es.tEZ (V/m) @ t=0.5
-9.954608816816076
% es.Ex (V/m) @ t=0.5
9.087911796621814
% es.Ey (V/m) @ t=0.5
2.7176029100520696
% es.Ez (V/m) @ t=0.5
-9.954608816816084
% es.tEx (V/m) @ t=0.5
9.087911796621796
% es.tEy (V/m) @ t=0.5
0
% es.tEz (V/m) @ t=0.5
-9.954608816816076
% V (V) @ t=0.5
0.012266807166632004
% es.normE (V/m) @ t=0.52
14.453374796924994
% es.EX (V/m) @ t=0.52
9.172103992496467
% es.EY (V/m) @ t=0.52
2.742779313635566
% es.EZ (V/m) @ t=0.52
-10.046830264787793
% es.tEX (V/m) @ t=0.52
9.172103992496435
% es.tEY (V/m) @ t=0.52
0
% es.tEZ (V/m) @ t=0.52
-10.046830264787786
% es.Ex (V/m) @ t=0.52
9.172103992496467
% es.Ey (V/m) @ t=0.52
2.742779313635566
% es.Ez (V/m) @ t=0.52
-10.046830264787793
% es.tEx (V/m) @ t=0.52
9.172103992496435
% es.tEy (V/m) @ t=0.52
0
% es.tEz (V/m) @ t=0.52
-10.046830264787786
% V (V) @ t=0.52
0.012380449278795195
% es.normE (V/m) @ t=0.54
14.593262993699632
% es.EX (V/m) @ t=0.54
9.260876968430239
% es.EY (V/m) @ t=0.54
2.7693255339273213
% es.EZ (V/m) @ t=0.54
-10.144069351590561
% es.tEX (V/m) @ t=0.54
9.260876968430223
% es.tEY (V/m) @ t=0.54
0
% es.tEZ (V/m) @ t=0.54
-10.14406935159054
% es.Ex (V/m) @ t=0.54
9.260876968430239
% es.Ey (V/m) @ t=0.54
2.7693255339273213
% es.Ez (V/m) @ t=0.54
-10.144069351590561
% es.tEx (V/m) @ t=0.54
9.260876968430223
% es.tEy (V/m) @ t=0.54
0
% es.tEz (V/m) @ t=0.54
-10.14406935159054
% V (V) @ t=0.54
0.01250027448967847
% es.normE (V/m) @ t=0.56
14.733151190474267
% es.EX (V/m) @ t=0.56
9.349649944364014
% es.EY (V/m) @ t=0.56
2.795871754219052
% es.EZ (V/m) @ t=0.56
-10.241308438393329
% es.tEX (V/m) @ t=0.56
9.349649944363982
% es.tEY (V/m) @ t=0.56
0
% es.tEZ (V/m) @ t=0.56
-10.241308438393299
% es.Ex (V/m) @ t=0.56
9.349649944364014
% es.Ey (V/m) @ t=0.56
2.795871754219052
% es.Ez (V/m) @ t=0.56
-10.241308438393329
% es.tEx (V/m) @ t=0.56
9.349649944363982
% es.tEy (V/m) @ t=0.56
0
% es.tEz (V/m) @ t=0.56
-10.241308438393299
% V (V) @ t=0.56
0.012620099700561736
% es.normE (V/m) @ t=0.58
14.873039387248902
% es.EX (V/m) @ t=0.58
9.438422920297786
% es.EY (V/m) @ t=0.58
2.8224179745108495
% es.EZ (V/m) @ t=0.58
-10.338547525196088
% es.tEX (V/m) @ t=0.58
9.438422920297764
% es.tEY (V/m) @ t=0.58
0
% es.tEZ (V/m) @ t=0.58
-10.338547525196073
% es.Ex (V/m) @ t=0.58
9.438422920297786
% es.Ey (V/m) @ t=0.58
2.8224179745108495
% es.Ez (V/m) @ t=0.58
-10.338547525196088
% es.tEx (V/m) @ t=0.58
9.438422920297764
% es.tEy (V/m) @ t=0.58
0
% es.tEz (V/m) @ t=0.58
-10.338547525196073
% V (V) @ t=0.58
0.01273992491144501
% es.normE (V/m) @ t=0.6
15.012927584023558
% es.EX (V/m) @ t=0.6
9.527195896231571
% es.EY (V/m) @ t=0.6
2.848964194802584
% es.EZ (V/m) @ t=0.6
-10.435786611998882
% es.tEX (V/m) @ t=0.6
9.527195896231545
% es.tEY (V/m) @ t=0.6
0
% es.tEZ (V/m) @ t=0.6
-10.435786611998854
% es.Ex (V/m) @ t=0.6
9.527195896231571
% es.Ey (V/m) @ t=0.6
2.848964194802584
% es.Ez (V/m) @ t=0.6
-10.435786611998882
% es.tEx (V/m) @ t=0.6
9.527195896231545
% es.tEy (V/m) @ t=0.6
0
% es.tEz (V/m) @ t=0.6
-10.435786611998854
% V (V) @ t=0.6
0.012859750122328283
% es.normE (V/m) @ t=0.62
15.1528157807982
% es.EX (V/m) @ t=0.62
9.615968872165332
% es.EY (V/m) @ t=0.62
2.8755104150943955
% es.EZ (V/m) @ t=0.62
-10.533025698801657
% es.tEX (V/m) @ t=0.62
9.615968872165313
% es.tEY (V/m) @ t=0.62
0
% es.tEZ (V/m) @ t=0.62
-10.533025698801634
% es.Ex (V/m) @ t=0.62
9.615968872165332
% es.Ey (V/m) @ t=0.62
2.8755104150943955
% es.Ez (V/m) @ t=0.62
-10.533025698801657
% es.tEx (V/m) @ t=0.62
9.615968872165313
% es.tEy (V/m) @ t=0.62
0
% es.tEz (V/m) @ t=0.62
-10.533025698801634
% V (V) @ t=0.62
0.012979575333211549
% es.normE (V/m) @ t=0.64
15.29270397757281
% es.EX (V/m) @ t=0.64
9.70474184809909
% es.EY (V/m) @ t=0.64
2.902056635386151
% es.EZ (V/m) @ t=0.64
-10.630264785604409
% es.tEX (V/m) @ t=0.64
9.704741848099058
% es.tEY (V/m) @ t=0.64
0
% es.tEZ (V/m) @ t=0.64
-10.630264785604387
% es.Ex (V/m) @ t=0.64
9.70474184809909
% es.Ey (V/m) @ t=0.64
2.902056635386151
% es.Ez (V/m) @ t=0.64
-10.630264785604409
% es.tEx (V/m) @ t=0.64
9.704741848099058
% es.tEy (V/m) @ t=0.64
0
% es.tEz (V/m) @ t=0.64
-10.630264785604387
% V (V) @ t=0.64
0.013099400544094822
% es.normE (V/m) @ t=0.66
15.432592174347477
% es.EX (V/m) @ t=0.66
9.793514824032851
% es.EY (V/m) @ t=0.66
2.9286028556779278
% es.EZ (V/m) @ t=0.66
-10.727503872407219
% es.tEX (V/m) @ t=0.66
9.793514824032819
% es.tEY (V/m) @ t=0.66
0
% es.tEZ (V/m) @ t=0.66
-10.727503872407196
% es.Ex (V/m) @ t=0.66
9.793514824032851
% es.Ey (V/m) @ t=0.66
2.9286028556779278
% es.Ez (V/m) @ t=0.66
-10.727503872407219
% es.tEx (V/m) @ t=0.66
9.793514824032819
% es.tEy (V/m) @ t=0.66
0
% es.tEz (V/m) @ t=0.66
-10.727503872407196
% V (V) @ t=0.66
0.01321922575497809
% es.normE (V/m) @ t=0.68
15.572480371122111
% es.EX (V/m) @ t=0.68
9.88228779996663
% es.EY (V/m) @ t=0.68
2.9551490759696866
% es.EZ (V/m) @ t=0.68
-10.824742959209978
% es.tEX (V/m) @ t=0.68
9.88228779996662
% es.tEY (V/m) @ t=0.68
0
% es.tEZ (V/m) @ t=0.68
-10.82474295920995
% es.Ex (V/m) @ t=0.68
9.88228779996663
% es.Ey (V/m) @ t=0.68
2.9551490759696866
% es.Ez (V/m) @ t=0.68
-10.824742959209978
% es.tEx (V/m) @ t=0.68
9.88228779996662
% es.tEy (V/m) @ t=0.68
0
% es.tEz (V/m) @ t=0.68
-10.82474295920995
% V (V) @ t=0.68
0.013339050965861363
% es.normE (V/m) @ t=0.7
15.712368567896743
% es.EX (V/m) @ t=0.7
9.971060775900385
% es.EY (V/m) @ t=0.7
2.9816952962614773
% es.EZ (V/m) @ t=0.7
-10.921982046012744
% es.tEX (V/m) @ t=0.7
9.97106077590038
% es.tEY (V/m) @ t=0.7
0
% es.tEZ (V/m) @ t=0.7
-10.921982046012715
% es.Ex (V/m) @ t=0.7
9.971060775900385
% es.Ey (V/m) @ t=0.7
2.9816952962614773
% es.Ez (V/m) @ t=0.7
-10.921982046012744
% es.tEx (V/m) @ t=0.7
9.97106077590038
% es.tEy (V/m) @ t=0.7
0
% es.tEz (V/m) @ t=0.7
-10.921982046012715
% V (V) @ t=0.7
0.013458876176744631
% es.normE (V/m) @ t=0.72
15.852256764671377
% es.EX (V/m) @ t=0.72
10.05983375183418
% es.EY (V/m) @ t=0.72
3.008241516553236
% es.EZ (V/m) @ t=0.72
-11.019221132815497
% es.tEX (V/m) @ t=0.72
10.059833751834176
% es.tEY (V/m) @ t=0.72
0
% es.tEZ (V/m) @ t=0.72
-11.019221132815476
% es.Ex (V/m) @ t=0.72
10.05983375183418
% es.Ey (V/m) @ t=0.72
3.008241516553236
% es.Ez (V/m) @ t=0.72
-11.019221132815497
% es.tEx (V/m) @ t=0.72
10.059833751834176
% es.tEy (V/m) @ t=0.72
0
% es.tEz (V/m) @ t=0.72
-11.019221132815476
% V (V) @ t=0.72
0.013578701387627906
% es.normE (V/m) @ t=0.74
15.992144961446023
% es.EX (V/m) @ t=0.74
10.148606727767948
% es.EY (V/m) @ t=0.74
3.0347877368449665
% es.EZ (V/m) @ t=0.74
-11.11646021961828
% es.tEX (V/m) @ t=0.74
10.14860672776793
% es.tEY (V/m) @ t=0.74
0
% es.tEZ (V/m) @ t=0.74
-11.116460219618249
% es.Ex (V/m) @ t=0.74
10.148606727767948
% es.Ey (V/m) @ t=0.74
3.0347877368449665
% es.Ez (V/m) @ t=0.74
-11.11646021961828
% es.tEx (V/m) @ t=0.74
10.14860672776793
% es.tEy (V/m) @ t=0.74
0
% es.tEz (V/m) @ t=0.74
-11.116460219618249
% V (V) @ t=0.74
0.013698526598511174
% es.normE (V/m) @ t=0.76
16.132033158220654
% es.EX (V/m) @ t=0.76
10.237379703701702
% es.EY (V/m) @ t=0.76
3.0613339571367963
% es.EZ (V/m) @ t=0.76
-11.213699306421052
% es.tEX (V/m) @ t=0.76
10.23737970370169
% es.tEY (V/m) @ t=0.76
0
% es.tEZ (V/m) @ t=0.76
-11.213699306421038
% es.Ex (V/m) @ t=0.76
10.237379703701702
% es.Ey (V/m) @ t=0.76
3.0613339571367963
% es.Ez (V/m) @ t=0.76
-11.213699306421052
% es.tEx (V/m) @ t=0.76
10.23737970370169
% es.tEy (V/m) @ t=0.76
0
% es.tEz (V/m) @ t=0.76
-11.213699306421038
% V (V) @ t=0.76
0.013818351809394443
% es.normE (V/m) @ t=0.78
16.282753805497677
% es.EX (V/m) @ t=0.78
10.333026938850942
% es.EY (V/m) @ t=0.78
3.0899357923771316
% es.EZ (V/m) @ t=0.78
-11.318468250893224
% es.tEX (V/m) @ t=0.78
10.333026938850914
% es.tEY (V/m) @ t=0.78
0
% es.tEZ (V/m) @ t=0.78
-11.318468250893195
% es.Ex (V/m) @ t=0.78
10.333026938850942
% es.Ey (V/m) @ t=0.78
3.0899357923771316
% es.Ez (V/m) @ t=0.78
-11.318468250893224
% es.tEx (V/m) @ t=0.78
10.333026938850914
% es.tEy (V/m) @ t=0.78
0
% es.tEz (V/m) @ t=0.78
-11.318468250893195
% V (V) @ t=0.78
0.013947455931686802
% es.normE (V/m) @ t=0.8
16.43795867303291
% es.EX (V/m) @ t=0.8
10.43151985443297
% es.EY (V/m) @ t=0.8
3.1193885735962756
% es.EZ (V/m) @ t=0.8
-11.426354268487067
% es.tEX (V/m) @ t=0.8
10.431519854432949
% es.tEY (V/m) @ t=0.8
0
% es.tEZ (V/m) @ t=0.8
-11.426354268487037
% es.Ex (V/m) @ t=0.8
10.43151985443297
% es.Ey (V/m) @ t=0.8
3.1193885735962756
% es.Ez (V/m) @ t=0.8
-11.426354268487067
% es.tEx (V/m) @ t=0.8
10.431519854432949
% es.tEy (V/m) @ t=0.8
0
% es.tEz (V/m) @ t=0.8
-11.426354268487037
% V (V) @ t=0.8
0.014080401168462514
% es.normE (V/m) @ t=0.82
16.593163540568174
% es.EX (V/m) @ t=0.82
10.530012770015034
% es.EY (V/m) @ t=0.82
3.1488413548154615
% es.EZ (V/m) @ t=0.82
-11.534240286080923
% es.tEX (V/m) @ t=0.82
10.530012770015022
% es.tEY (V/m) @ t=0.82
0
% es.tEZ (V/m) @ t=0.82
-11.534240286080902
% es.Ex (V/m) @ t=0.82
10.530012770015034
% es.Ey (V/m) @ t=0.82
3.1488413548154615
% es.Ez (V/m) @ t=0.82
-11.534240286080923
% es.tEx (V/m) @ t=0.82
10.530012770015022
% es.tEy (V/m) @ t=0.82
0
% es.tEz (V/m) @ t=0.82
-11.534240286080902
% V (V) @ t=0.82
0.01421334640523823
% es.normE (V/m) @ t=0.84
16.748368408103406
% es.EX (V/m) @ t=0.84
10.628505685597077
% es.EY (V/m) @ t=0.84
3.178294136034641
% es.EZ (V/m) @ t=0.84
-11.64212630367476
% es.tEX (V/m) @ t=0.84
10.628505685597043
% es.tEY (V/m) @ t=0.84
0
% es.tEZ (V/m) @ t=0.84
-11.642126303674731
% es.Ex (V/m) @ t=0.84
10.628505685597077
% es.Ey (V/m) @ t=0.84
3.178294136034641
% es.Ez (V/m) @ t=0.84
-11.64212630367476
% es.tEx (V/m) @ t=0.84
10.628505685597043
% es.tEy (V/m) @ t=0.84
0
% es.tEz (V/m) @ t=0.84
-11.642126303674731
% V (V) @ t=0.84
0.014346291642013941
% es.normE (V/m) @ t=0.86
16.90357327563865
% es.EX (V/m) @ t=0.86
10.726998601179098
% es.EY (V/m) @ t=0.86
3.207746917253834
% es.EZ (V/m) @ t=0.86
-11.75001232126861
% es.tEX (V/m) @ t=0.86
10.72699860117908
% es.tEY (V/m) @ t=0.86
0
% es.tEZ (V/m) @ t=0.86
-11.750012321268589
% es.Ex (V/m) @ t=0.86
10.726998601179098
% es.Ey (V/m) @ t=0.86
3.207746917253834
% es.Ez (V/m) @ t=0.86
-11.75001232126861
% es.tEx (V/m) @ t=0.86
10.72699860117908
% es.tEy (V/m) @ t=0.86
0
% es.tEz (V/m) @ t=0.86
-11.750012321268589
% V (V) @ t=0.86
0.014479236878789655
% es.normE (V/m) @ t=0.88
17.058778143173882
% es.EX (V/m) @ t=0.88
10.82549151676114
% es.EY (V/m) @ t=0.88
3.2371996984729785
% es.EZ (V/m) @ t=0.88
-11.857898338862437
% es.tEX (V/m) @ t=0.88
10.825491516761108
% es.tEY (V/m) @ t=0.88
0
% es.tEZ (V/m) @ t=0.88
-11.857898338862416
% es.Ex (V/m) @ t=0.88
10.82549151676114
% es.Ey (V/m) @ t=0.88
3.2371996984729785
% es.Ez (V/m) @ t=0.88
-11.857898338862437
% es.tEx (V/m) @ t=0.88
10.825491516761108
% es.tEy (V/m) @ t=0.88
0
% es.tEz (V/m) @ t=0.88
-11.857898338862416
% V (V) @ t=0.88
0.014612182115565364
% es.normE (V/m) @ t=0.9
17.213983010709114
% es.EX (V/m) @ t=0.9
10.923984432343207
% es.EY (V/m) @ t=0.9
3.2666524796921568
% es.EZ (V/m) @ t=0.9
-11.965784356456247
% es.tEX (V/m) @ t=0.9
10.923984432343195
% es.tEY (V/m) @ t=0.9
0
% es.tEZ (V/m) @ t=0.9
-11.965784356456217
% es.Ex (V/m) @ t=0.9
10.923984432343207
% es.Ey (V/m) @ t=0.9
3.2666524796921568
% es.Ez (V/m) @ t=0.9
-11.965784356456247
% es.tEx (V/m) @ t=0.9
10.923984432343195
% es.tEy (V/m) @ t=0.9
0
% es.tEz (V/m) @ t=0.9
-11.965784356456217
% V (V) @ t=0.9
0.014745127352341084
% es.normE (V/m) @ t=0.92
17.369187878244382
% es.EX (V/m) @ t=0.92
11.022477347925264
% es.EY (V/m) @ t=0.92
3.2961052609113217
% es.EZ (V/m) @ t=0.92
-12.073670374050117
% es.tEX (V/m) @ t=0.92
11.022477347925246
% es.tEY (V/m) @ t=0.92
0
% es.tEZ (V/m) @ t=0.92
-12.073670374050074
% es.Ex (V/m) @ t=0.92
11.022477347925264
% es.Ey (V/m) @ t=0.92
3.2961052609113217
% es.Ez (V/m) @ t=0.92
-12.073670374050117
% es.tEx (V/m) @ t=0.92
11.022477347925246
% es.tEy (V/m) @ t=0.92
0
% es.tEz (V/m) @ t=0.92
-12.073670374050074
% V (V) @ t=0.92
0.014878072589116796
% es.normE (V/m) @ t=0.94
17.524392745779608
% es.EX (V/m) @ t=0.94
11.120970263507306
% es.EY (V/m) @ t=0.94
3.3255580421304947
% es.EZ (V/m) @ t=0.94
-12.181556391643939
% es.tEX (V/m) @ t=0.94
11.120970263507274
% es.tEY (V/m) @ t=0.94
0
% es.tEZ (V/m) @ t=0.94
-12.18155639164391
% es.Ex (V/m) @ t=0.94
11.120970263507306
% es.Ey (V/m) @ t=0.94
3.3255580421304947
% es.Ez (V/m) @ t=0.94
-12.181556391643939
% es.tEx (V/m) @ t=0.94
11.120970263507274
% es.tEy (V/m) @ t=0.94
0
% es.tEz (V/m) @ t=0.94
-12.18155639164391
% V (V) @ t=0.94
0.01501101782589251
% es.normE (V/m) @ t=0.96
17.679597613314833
% es.EX (V/m) @ t=0.96
11.21946317908933
% es.EY (V/m) @ t=0.96
3.355010823349673
% es.EZ (V/m) @ t=0.96
-12.289442409237783
% es.tEX (V/m) @ t=0.96
11.21946317908931
% es.tEY (V/m) @ t=0.96
0
% es.tEZ (V/m) @ t=0.96
-12.289442409237768
% es.Ex (V/m) @ t=0.96
11.21946317908933
% es.Ey (V/m) @ t=0.96
3.355010823349673
% es.Ez (V/m) @ t=0.96
-12.289442409237783
% es.tEx (V/m) @ t=0.96
11.21946317908931
% es.tEy (V/m) @ t=0.96
0
% es.tEz (V/m) @ t=0.96
-12.289442409237768
% V (V) @ t=0.96
0.015143963062668221
% es.normE (V/m) @ t=0.98
17.8348024808501
% es.EX (V/m) @ t=0.98
11.317956094671366
% es.EY (V/m) @ t=0.98
3.384463604568845
% es.EZ (V/m) @ t=0.98
-12.39732842683164
% es.tEX (V/m) @ t=0.98
11.317956094671356
% es.tEY (V/m) @ t=0.98
0
% es.tEZ (V/m) @ t=0.98
-12.397328426831626
% es.Ex (V/m) @ t=0.98
11.317956094671366
% es.Ey (V/m) @ t=0.98
3.384463604568845
% es.Ez (V/m) @ t=0.98
-12.39732842683164
% es.tEx (V/m) @ t=0.98
11.317956094671356
% es.tEy (V/m) @ t=0.98
0
% es.tEz (V/m) @ t=0.98
-12.397328426831626
% V (V) @ t=0.98
0.015276908299443937
% es.normE (V/m) @ t=1
17.990007348385333
% es.EX (V/m) @ t=1
11.416449010253428
% es.EY (V/m) @ t=1
3.4139163857879815
% es.EZ (V/m) @ t=1
-12.50521444442547
% es.tEX (V/m) @ t=1
11.416449010253391
% es.tEY (V/m) @ t=1
0
% es.tEZ (V/m) @ t=1
-12.505214444425441
% es.Ex (V/m) @ t=1
11.416449010253428
% es.Ey (V/m) @ t=1
3.4139163857879815
% es.Ez (V/m) @ t=1
-12.50521444442547
% es.tEx (V/m) @ t=1
11.416449010253391
% es.tEy (V/m) @ t=1
0
% es.tEz (V/m) @ t=1
-12.505214444425441
% V (V) @ t=1
0.01540985353621965
% es.normE (V/m) @ t=1.02
18.14521221592058
% es.EX (V/m) @ t=1.02
11.51494192583546
% es.EY (V/m) @ t=1.02
3.4433691670072033
% es.EZ (V/m) @ t=1.02
-12.613100462019311
% es.tEX (V/m) @ t=1.02
11.51494192583544
% es.tEY (V/m) @ t=1.02
0
% es.tEZ (V/m) @ t=1.02
-12.613100462019311
% es.Ex (V/m) @ t=1.02
11.51494192583546
% es.Ey (V/m) @ t=1.02
3.4433691670072033
% es.Ez (V/m) @ t=1.02
-12.613100462019311
% es.tEx (V/m) @ t=1.02
11.51494192583544
% es.tEy (V/m) @ t=1.02
0
% es.tEz (V/m) @ t=1.02
-12.613100462019311
% V (V) @ t=1.02
0.015542798772995366
% es.normE (V/m) @ t=1.04
18.307574858347422
% es.EX (V/m) @ t=1.04
11.61797716748518
% es.EY (V/m) @ t=1.04
3.4741802829384403
% es.EZ (V/m) @ t=1.04
-12.725961989086343
% es.tEX (V/m) @ t=1.04
11.617977167485162
% es.tEY (V/m) @ t=1.04
0
% es.tEZ (V/m) @ t=1.04
-12.72596198908633
% es.Ex (V/m) @ t=1.04
11.61797716748518
% es.Ey (V/m) @ t=1.04
3.4741802829384403
% es.Ez (V/m) @ t=1.04
-12.725961989086343
% es.tEx (V/m) @ t=1.04
11.617977167485162
% es.tEy (V/m) @ t=1.04
0
% es.tEz (V/m) @ t=1.04
-12.72596198908633
% V (V) @ t=1.04
0.01568187515616435