% Model:              1 neuron.mph
% Version:            COMSOL 6.1.0.252
% Date:               Mar 22 2023, 18:34
% Dimension:          0
% Nodes:              14017
% Expressions:        14017
% Description:        Electric field norm, Electric field, X component, Electric field, Y component, Electric field, Z component, Tangential electric field, X component, Tangential electric field, Y component, Tangential electric field, Z component, Electric field, x component, Electric field, y component, Electric field, z component, Tangential electric field, x component, Tangential electric field, y component, Tangential electric field, z component, Electric potential
% Length unit:        mm
% x
1.33
% y
12.2
% z
1
% es.normE (V/m) @ t=0
2.829280228905628
% es.EX (V/m) @ t=0
0.8732960083878527
% es.EY (V/m) @ t=0
0.211567754253303
% es.EZ (V/m) @ t=0
2.6827813509354215
% es.tEX (V/m) @ t=0
0.8732960083878609
% es.tEY (V/m) @ t=0
0
% es.tEZ (V/m) @ t=0
2.682781350935432
% es.Ex (V/m) @ t=0
0.8732960083878527
% es.Ey (V/m) @ t=0
0.211567754253303
% es.Ez (V/m) @ t=0
2.6827813509354215
% es.tEx (V/m) @ t=0
0.8732960083878609
% es.tEy (V/m) @ t=0
0
% es.tEz (V/m) @ t=0
2.682781350935432
% V (V) @ t=0
0.01323261639033696
% es.normE (V/m) @ t=0.02
2.4436631605880743
% es.EX (V/m) @ t=0.02
0.7542700303365898
% es.EY (V/m) @ t=0.02
0.1827321032911191
% es.EZ (V/m) @ t=0.02
2.3171313637239477
% es.tEX (V/m) @ t=0.02
0.754270030336599
% es.tEY (V/m) @ t=0.02
0
% es.tEZ (V/m) @ t=0.02
2.317131363723929
% es.Ex (V/m) @ t=0.02
0.7542700303365898
% es.Ey (V/m) @ t=0.02
0.1827321032911191
% es.Ez (V/m) @ t=0.02
2.3171313637239477
% es.tEx (V/m) @ t=0.02
0.754270030336599
% es.tEy (V/m) @ t=0.02
0
% es.tEz (V/m) @ t=0.02
2.317131363723929
% V (V) @ t=0.02
0.011429075440233378
% es.normE (V/m) @ t=0.04
2.466128245931932
% es.EX (V/m) @ t=0.04
0.7612041859881074
% es.EY (V/m) @ t=0.04
0.1844119961459878
% es.EZ (V/m) @ t=0.04
2.3384332168775006
% es.tEX (V/m) @ t=0.04
0.7612041859881131
% es.tEY (V/m) @ t=0.04
0
% es.tEZ (V/m) @ t=0.04
2.338433216877508
% es.Ex (V/m) @ t=0.04
0.7612041859881074
% es.Ey (V/m) @ t=0.04
0.1844119961459878
% es.Ez (V/m) @ t=0.04
2.3384332168775006
% es.tEx (V/m) @ t=0.04
0.7612041859881131
% es.tEy (V/m) @ t=0.04
0
% es.tEz (V/m) @ t=0.04
2.338433216877508
% V (V) @ t=0.04
0.011534145215901964
% es.normE (V/m) @ t=0.06
2.4887541292705393
% es.EX (V/m) @ t=0.06
0.768187974012916
% es.EY (V/m) @ t=0.06
0.18610391317246944
% es.EZ (V/m) @ t=0.06
2.3598875420154477
% es.tEX (V/m) @ t=0.06
0.7681879740129176
% es.tEY (V/m) @ t=0.06
0
% es.tEZ (V/m) @ t=0.06
2.359887542015434
% es.Ex (V/m) @ t=0.06
0.768187974012916
% es.Ey (V/m) @ t=0.06
0.18610391317246944
% es.Ez (V/m) @ t=0.06
2.3598875420154477
% es.tEx (V/m) @ t=0.06
0.7681879740129176
% es.tEy (V/m) @ t=0.06
0
% es.tEz (V/m) @ t=0.06
2.359887542015434
% V (V) @ t=0.06
0.011639967064751764
% es.normE (V/m) @ t=0.08
2.5118200023867
% es.EX (V/m) @ t=0.08
0.7753075709635645
% es.EY (V/m) @ t=0.08
0.18782873170677383
% es.EZ (V/m) @ t=0.08
2.3817590744345845
% es.tEX (V/m) @ t=0.08
0.7753075709635624
% es.tEY (V/m) @ t=0.08
0
% es.tEZ (V/m) @ t=0.08
2.3817590744345942
% es.Ex (V/m) @ t=0.08
0.7753075709635645
% es.Ey (V/m) @ t=0.08
0.18782873170677383
% es.Ez (V/m) @ t=0.08
2.3817590744345845
% es.tEx (V/m) @ t=0.08
0.7753075709635624
% es.tEy (V/m) @ t=0.08
0
% es.tEz (V/m) @ t=0.08
2.3817590744345942
% V (V) @ t=0.08
0.011747846748053696
% es.normE (V/m) @ t=0.1
2.5349941791755084
% es.EX (V/m) @ t=0.1
0.782460597339643
% es.EY (V/m) @ t=0.1
0.18956164896140149
% es.EZ (V/m) @ t=0.1
2.403733302605097
% es.tEX (V/m) @ t=0.1
0.782460597339643
% es.tEY (V/m) @ t=0.1
0
% es.tEZ (V/m) @ t=0.1
2.4037333026051027
% es.Ex (V/m) @ t=0.1
0.782460597339643
% es.Ey (V/m) @ t=0.1
0.18956164896140149
% es.Ez (V/m) @ t=0.1
2.403733302605097
% es.tEx (V/m) @ t=0.1
0.782460597339643
% es.tEy (V/m) @ t=0.1
0
% es.tEz (V/m) @ t=0.1
2.4037333026051027
% V (V) @ t=0.1
0.011856232968189225
% es.normE (V/m) @ t=0.12
2.5581683559642627
% es.EX (V/m) @ t=0.12
0.7896136237156914
% es.EY (V/m) @ t=0.12
0.19129456621597363
% es.EZ (V/m) @ t=0.12
2.425707530775566
% es.tEX (V/m) @ t=0.12
0.7896136237156952
% es.tEY (V/m) @ t=0.12
0
% es.tEZ (V/m) @ t=0.12
2.4257075307755773
% es.Ex (V/m) @ t=0.12
0.7896136237156914
% es.Ey (V/m) @ t=0.12
0.19129456621597363
% es.Ez (V/m) @ t=0.12
2.425707530775566
% es.tEx (V/m) @ t=0.12
0.7896136237156952
% es.tEy (V/m) @ t=0.12
0
% es.tEz (V/m) @ t=0.12
2.4257075307755773
% V (V) @ t=0.12
0.011964619188324754
% es.normE (V/m) @ t=0.14
2.5820489895020184
% es.EX (V/m) @ t=0.14
0.7969847076083932
% es.EY (V/m) @ t=0.14
0.19308031082349175
% es.EZ (V/m) @ t=0.14
2.4483516356838977
% es.tEX (V/m) @ t=0.14
0.7969847076083951
% es.tEY (V/m) @ t=0.14
0
% es.tEZ (V/m) @ t=0.14
2.4483516356839043
% es.Ex (V/m) @ t=0.14
0.7969847076083932
% es.Ey (V/m) @ t=0.14
0.19308031082349175
% es.Ez (V/m) @ t=0.14
2.4483516356838977
% es.tEx (V/m) @ t=0.14
0.7969847076083951
% es.tEy (V/m) @ t=0.14
0
% es.tEz (V/m) @ t=0.14
2.4483516356839043
% V (V) @ t=0.14
0.012076309526949103
% es.normE (V/m) @ t=0.16
2.606379064311075
% es.EX (V/m) @ t=0.16
0.8044945176830431
% es.EY (V/m) @ t=0.16
0.19489966370592715
% es.EZ (V/m) @ t=0.16
2.4714219099976584
% es.tEX (V/m) @ t=0.16
0.8044945176830467
% es.tEY (V/m) @ t=0.16
0
% es.tEZ (V/m) @ t=0.16
2.471421909997673
% es.Ex (V/m) @ t=0.16
0.8044945176830431
% es.Ey (V/m) @ t=0.16
0.19489966370592715
% es.Ez (V/m) @ t=0.16
2.4714219099976584
% es.tEx (V/m) @ t=0.16
0.8044945176830467
% es.tEy (V/m) @ t=0.16
0
% es.tEz (V/m) @ t=0.16
2.471421909997673
% V (V) @ t=0.16
0.012190101915297374
% es.normE (V/m) @ t=0.18
2.6307091391201327
% es.EX (V/m) @ t=0.18
0.8120043277576843
% es.EY (V/m) @ t=0.18
0.19671901658840107
% es.EZ (V/m) @ t=0.18
2.4944921843114196
% es.tEX (V/m) @ t=0.18
0.812004327757684
% es.tEY (V/m) @ t=0.18
0
% es.tEZ (V/m) @ t=0.18
2.4944921843114134
% es.Ex (V/m) @ t=0.18
0.8120043277576843
% es.Ey (V/m) @ t=0.18
0.19671901658840107
% es.Ez (V/m) @ t=0.18
2.4944921843114196
% es.tEx (V/m) @ t=0.18
0.812004327757684
% es.tEy (V/m) @ t=0.18
0
% es.tEz (V/m) @ t=0.18
2.4944921843114134
% V (V) @ t=0.18
0.012303894303645648
% es.normE (V/m) @ t=0.2
2.6550392139291845
% es.EX (V/m) @ t=0.2
0.8195141378323234
% es.EY (V/m) @ t=0.2
0.19853836947080805
% es.EZ (V/m) @ t=0.2
2.517562458625181
% es.tEX (V/m) @ t=0.2
0.8195141378323285
% es.tEY (V/m) @ t=0.2
0
% es.tEZ (V/m) @ t=0.2
2.5175624586251786
% es.Ex (V/m) @ t=0.2
0.8195141378323234
% es.Ey (V/m) @ t=0.2
0.19853836947080805
% es.Ez (V/m) @ t=0.2
2.517562458625181
% es.tEx (V/m) @ t=0.2
0.8195141378323285
% es.tEy (V/m) @ t=0.2
0
% es.tEz (V/m) @ t=0.2
2.5175624586251786
% V (V) @ t=0.2
0.012417686691993921
% es.normE (V/m) @ t=0.22
2.6793692887382177
% es.EX (V/m) @ t=0.22
0.8270239479069783
% es.EY (V/m) @ t=0.22
0.20035772235324323
% es.EZ (V/m) @ t=0.22
2.540632732938915
% es.tEX (V/m) @ t=0.22
0.827023947906973
% es.tEY (V/m) @ t=0.22
0
% es.tEZ (V/m) @ t=0.22
2.5406327329389473
% es.Ex (V/m) @ t=0.22
0.8270239479069783
% es.Ey (V/m) @ t=0.22
0.20035772235324323
% es.Ez (V/m) @ t=0.22
2.540632732938915
% es.tEx (V/m) @ t=0.22
0.827023947906973
% es.tEy (V/m) @ t=0.22
0
% es.tEz (V/m) @ t=0.22
2.5406327329389473
% V (V) @ t=0.22
0.012531479080342195
% es.normE (V/m) @ t=0.24
2.70369936354729
% es.EX (V/m) @ t=0.24
0.8345337579816106
% es.EY (V/m) @ t=0.24
0.20217707523567496
% es.EZ (V/m) @ t=0.24
2.563703007252698
% es.tEX (V/m) @ t=0.24
0.8345337579816174
% es.tEY (V/m) @ t=0.24
0
% es.tEZ (V/m) @ t=0.24
2.563703007252716
% es.Ex (V/m) @ t=0.24
0.8345337579816106
% es.Ey (V/m) @ t=0.24
0.20217707523567496
% es.Ez (V/m) @ t=0.24
2.563703007252698
% es.tEx (V/m) @ t=0.24
0.8345337579816174
% es.tEy (V/m) @ t=0.24
0
% es.tEz (V/m) @ t=0.24
2.563703007252716
% V (V) @ t=0.24
0.012645271468690468
% es.normE (V/m) @ t=0.26
2.7286192081746763
% es.EX (V/m) @ t=0.26
0.842225608542686
% es.EY (V/m) @ t=0.26
0.20404052995380784
% es.EZ (V/m) @ t=0.26
2.5873325133690024
% es.tEX (V/m) @ t=0.26
0.8422256085426909
% es.tEY (V/m) @ t=0.26
0
% es.tEZ (V/m) @ t=0.26
2.5873325133689864
% es.Ex (V/m) @ t=0.26
0.842225608542686
% es.Ey (V/m) @ t=0.26
0.20404052995380784
% es.Ez (V/m) @ t=0.26
2.5873325133690024
% es.tEx (V/m) @ t=0.26
0.8422256085426909
% es.tEy (V/m) @ t=0.26
0
% es.tEz (V/m) @ t=0.26
2.5873325133689864
% V (V) @ t=0.26
0.012761822225908643
% es.normE (V/m) @ t=0.28
2.7555293801644676
% es.EX (V/m) @ t=0.28
0.8505318007502314
% es.EY (V/m) @ t=0.28
0.20605281746661386
% es.EZ (V/m) @ t=0.28
2.6128492885925585
% es.tEX (V/m) @ t=0.28
0.8505318007502467
% es.tEY (V/m) @ t=0.28
0
% es.tEZ (V/m) @ t=0.28
2.6128492885925674
% es.Ex (V/m) @ t=0.28
0.8505318007502314
% es.Ey (V/m) @ t=0.28
0.20605281746661386
% es.Ez (V/m) @ t=0.28
2.6128492885925585
% es.tEx (V/m) @ t=0.28
0.8505318007502467
% es.tEy (V/m) @ t=0.28
0
% es.tEz (V/m) @ t=0.28
2.6128492885925674
% V (V) @ t=0.28
0.012887681796271512
% es.normE (V/m) @ t=0.3
2.78243955215425
% es.EX (V/m) @ t=0.3
0.858837992957765
% es.EY (V/m) @ t=0.3
0.2080651049794131
% es.EZ (V/m) @ t=0.3
2.6383660638161093
% es.tEX (V/m) @ t=0.3
0.8588379929577599
% es.tEY (V/m) @ t=0.3
0
% es.tEZ (V/m) @ t=0.3
2.638366063816104
% es.Ex (V/m) @ t=0.3
0.858837992957765
% es.Ey (V/m) @ t=0.3
0.2080651049794131
% es.Ez (V/m) @ t=0.3
2.6383660638161093
% es.tEx (V/m) @ t=0.3
0.8588379929577599
% es.tEy (V/m) @ t=0.3
0
% es.tEz (V/m) @ t=0.3
2.638366063816104
% V (V) @ t=0.3
0.013013541366634383
% es.normE (V/m) @ t=0.32
2.8093497241440573
% es.EX (V/m) @ t=0.32
0.8671441851653081
% es.EY (V/m) @ t=0.32
0.21007739249223611
% es.EZ (V/m) @ t=0.32
2.6638828390396814
% es.tEX (V/m) @ t=0.32
0.8671441851653228
% es.tEY (V/m) @ t=0.32
0
% es.tEZ (V/m) @ t=0.32
2.663882839039683
% es.Ex (V/m) @ t=0.32
0.8671441851653081
% es.Ey (V/m) @ t=0.32
0.21007739249223611
% es.Ez (V/m) @ t=0.32
2.6638828390396814
% es.tEx (V/m) @ t=0.32
0.8671441851653228
% es.tEy (V/m) @ t=0.32
0
% es.tEz (V/m) @ t=0.32
2.663882839039683
% V (V) @ t=0.32
0.013139400936997248
% es.normE (V/m) @ t=0.34
2.8362598961338295
% es.EX (V/m) @ t=0.34
0.8754503773728393
% es.EY (V/m) @ t=0.34
0.2120896800050327
% es.EZ (V/m) @ t=0.34
2.6893996142632224
% es.tEX (V/m) @ t=0.34
0.8754503773728359
% es.tEY (V/m) @ t=0.34
0
% es.tEZ (V/m) @ t=0.34
2.6893996142632304
% es.Ex (V/m) @ t=0.34
0.8754503773728393
% es.Ey (V/m) @ t=0.34
0.2120896800050327
% es.Ez (V/m) @ t=0.34
2.6893996142632224
% es.tEx (V/m) @ t=0.34
0.8754503773728359
% es.tEy (V/m) @ t=0.34
0
% es.tEz (V/m) @ t=0.34
2.6893996142632304
% V (V) @ t=0.34
0.013265260507360117
% es.normE (V/m) @ t=0.36
2.8631700681236145
% es.EX (V/m) @ t=0.36
0.883756569580364
% es.EY (V/m) @ t=0.36
0.214101967517899
% es.EZ (V/m) @ t=0.36
2.714916389486774
% es.tEX (V/m) @ t=0.36
0.8837565695803633
% es.tEY (V/m) @ t=0.36
0
% es.tEZ (V/m) @ t=0.36
2.714916389486767
% es.Ex (V/m) @ t=0.36
0.883756569580364
% es.Ey (V/m) @ t=0.36
0.214101967517899
% es.Ez (V/m) @ t=0.36
2.714916389486774
% es.tEx (V/m) @ t=0.36
0.8837565695803633
% es.tEy (V/m) @ t=0.36
0
% es.tEz (V/m) @ t=0.36
2.714916389486767
% V (V) @ t=0.36
0.013391120077722987
% es.normE (V/m) @ t=0.38
2.890080240113421
% es.EX (V/m) @ t=0.38
0.8920627617879022
% es.EY (V/m) @ t=0.38
0.21611425503068715
% es.EZ (V/m) @ t=0.38
2.7404331647103497
% es.tEX (V/m) @ t=0.38
0.8920627617878907
% es.tEY (V/m) @ t=0.38
0
% es.tEZ (V/m) @ t=0.38
2.740433164710346
% es.Ex (V/m) @ t=0.38
0.8920627617879022
% es.Ey (V/m) @ t=0.38
0.21611425503068715
% es.Ez (V/m) @ t=0.38
2.7404331647103497
% es.tEx (V/m) @ t=0.38
0.8920627617878907
% es.tEy (V/m) @ t=0.38
0
% es.tEz (V/m) @ t=0.38
2.740433164710346
% V (V) @ t=0.38
0.013516979648085856
% es.normE (V/m) @ t=0.4
2.9169904121031927
% es.EX (V/m) @ t=0.4
0.9003689539954349
% es.EY (V/m) @ t=0.4
0.21812654254351127
% es.EZ (V/m) @ t=0.4
2.765949939933887
% es.tEX (V/m) @ t=0.4
0.9003689539954394
% es.tEY (V/m) @ t=0.4
0
% es.tEZ (V/m) @ t=0.4
2.765949939933897
% es.Ex (V/m) @ t=0.4
0.9003689539954349
% es.Ey (V/m) @ t=0.4
0.21812654254351127
% es.Ez (V/m) @ t=0.4
2.765949939933887
% es.tEx (V/m) @ t=0.4
0.9003689539954394
% es.tEy (V/m) @ t=0.4
0
% es.tEz (V/m) @ t=0.4
2.765949939933897
% V (V) @ t=0.4
0.013642839218448721
% es.normE (V/m) @ t=0.42
2.943900584092993
% es.EX (V/m) @ t=0.42
0.9086751462029827
% es.EY (V/m) @ t=0.42
0.22013883005632007
% es.EZ (V/m) @ t=0.42
2.7914667151574513
% es.tEX (V/m) @ t=0.42
0.9086751462029952
% es.tEY (V/m) @ t=0.42
0
% es.tEZ (V/m) @ t=0.42
2.791466715157462
% es.Ex (V/m) @ t=0.42
0.9086751462029827
% es.Ey (V/m) @ t=0.42
0.22013883005632007
% es.Ez (V/m) @ t=0.42
2.7914667151574513
% es.tEx (V/m) @ t=0.42
0.9086751462029952
% es.tEy (V/m) @ t=0.42
0
% es.tEz (V/m) @ t=0.42
2.791466715157462
% V (V) @ t=0.42
0.013768698788811588
% es.normE (V/m) @ t=0.44
2.9708107560827672
% es.EX (V/m) @ t=0.44
0.9169813384105139
% es.EY (V/m) @ t=0.44
0.2221511175691555
% es.EZ (V/m) @ t=0.44
2.8169834903809923
% es.tEX (V/m) @ t=0.44
0.9169813384105225
% es.tEY (V/m) @ t=0.44
0
% es.tEZ (V/m) @ t=0.44
2.8169834903809985
% es.Ex (V/m) @ t=0.44
0.9169813384105139
% es.Ey (V/m) @ t=0.44
0.2221511175691555
% es.Ez (V/m) @ t=0.44
2.8169834903809923
% es.tEx (V/m) @ t=0.44
0.9169813384105225
% es.tEy (V/m) @ t=0.44
0
% es.tEz (V/m) @ t=0.44
2.8169834903809985
% V (V) @ t=0.44
0.013894558359174459
% es.normE (V/m) @ t=0.46
2.997720928072547
% es.EX (V/m) @ t=0.46
0.9252875306180397
% es.EY (V/m) @ t=0.46
0.2241634050819541
% es.EZ (V/m) @ t=0.46
2.842500265604543
% es.tEX (V/m) @ t=0.46
0.9252875306180357
% es.tEY (V/m) @ t=0.46
0
% es.tEZ (V/m) @ t=0.46
2.8425002656045493
% es.Ex (V/m) @ t=0.46
0.9252875306180397
% es.Ey (V/m) @ t=0.46
0.2241634050819541
% es.Ez (V/m) @ t=0.46
2.842500265604543
% es.tEx (V/m) @ t=0.46
0.9252875306180357
% es.tEy (V/m) @ t=0.46
0
% es.tEz (V/m) @ t=0.46
2.8425002656045493
% V (V) @ t=0.46
0.014020417929537326
% es.normE (V/m) @ t=0.48
3.0246311000623587
% es.EX (V/m) @ t=0.48
0.9335937228255766
% es.EY (V/m) @ t=0.48
0.22617569259478532
% es.EZ (V/m) @ t=0.48
2.8680170408281214
% es.tEX (V/m) @ t=0.48
0.9335937228255773
% es.tEY (V/m) @ t=0.48
0
% es.tEZ (V/m) @ t=0.48
2.868017040828139
% es.Ex (V/m) @ t=0.48
0.9335937228255766
% es.Ey (V/m) @ t=0.48
0.22617569259478532
% es.Ez (V/m) @ t=0.48
2.8680170408281214
% es.tEx (V/m) @ t=0.48
0.9335937228255773
% es.tEy (V/m) @ t=0.48
0
% es.tEz (V/m) @ t=0.48
2.868017040828139
% V (V) @ t=0.48
0.014146277499900196
% es.normE (V/m) @ t=0.5
3.0515412720521313
% es.EX (V/m) @ t=0.5
0.9418999150331078
% es.EY (V/m) @ t=0.5
0.228187980107581
% es.EZ (V/m) @ t=0.5
2.8935338160516633
% es.tEX (V/m) @ t=0.5
0.9418999150331189
% es.tEY (V/m) @ t=0.5
0
% es.tEZ (V/m) @ t=0.5
2.8935338160516757
% es.Ex (V/m) @ t=0.5
0.9418999150331078
% es.Ey (V/m) @ t=0.5
0.228187980107581
% es.Ez (V/m) @ t=0.5
2.8935338160516633
% es.tEx (V/m) @ t=0.5
0.9418999150331189
% es.tEy (V/m) @ t=0.5
0
% es.tEz (V/m) @ t=0.5
2.8935338160516757
% V (V) @ t=0.5
0.014272137070263063
% es.normE (V/m) @ t=0.52
3.0797952132435187
% es.EX (V/m) @ t=0.52
0.9506208800318896
% es.EY (V/m) @ t=0.52
0.23030075181847187
% es.EZ (V/m) @ t=0.52
2.920324780689346
% es.tEX (V/m) @ t=0.52
0.9506208800318916
% es.tEY (V/m) @ t=0.52
0
% es.tEZ (V/m) @ t=0.52
2.920324780689352
% es.Ex (V/m) @ t=0.52
0.9506208800318896
% es.Ey (V/m) @ t=0.52
0.23030075181847187
% es.Ez (V/m) @ t=0.52
2.920324780689346
% es.tEx (V/m) @ t=0.52
0.9506208800318916
% es.tEy (V/m) @ t=0.52
0
% es.tEz (V/m) @ t=0.52
2.920324780689352
% V (V) @ t=0.52
0.014404281481905413
% es.normE (V/m) @ t=0.54
3.109605178750302
% es.EX (V/m) @ t=0.54
0.9598221332734611
% es.EY (V/m) @ t=0.54
0.23252987971256123
% es.EZ (V/m) @ t=0.54
2.948591199377062
% es.tEX (V/m) @ t=0.54
0.9598221332734624
% es.tEY (V/m) @ t=0.54
0
% es.tEZ (V/m) @ t=0.54
2.9485911993770806
% es.Ex (V/m) @ t=0.54
0.9598221332734611
% es.Ey (V/m) @ t=0.54
0.23252987971256123
% es.Ez (V/m) @ t=0.54
2.948591199377062
% es.tEx (V/m) @ t=0.54
0.9598221332734624
% es.tEy (V/m) @ t=0.54
0
% es.tEz (V/m) @ t=0.54
2.9485911993770806
% V (V) @ t=0.54
0.014543703457163343
% es.normE (V/m) @ t=0.56
3.1394151442570815
% es.EX (V/m) @ t=0.56
0.9690233865150035
% es.EY (V/m) @ t=0.56
0.2347590076066497
% es.EZ (V/m) @ t=0.56
2.976857618064784
% es.tEX (V/m) @ t=0.56
0.9690233865150049
% es.tEY (V/m) @ t=0.56
0
% es.tEZ (V/m) @ t=0.56
2.976857618064791
% es.Ex (V/m) @ t=0.56
0.9690233865150035
% es.Ey (V/m) @ t=0.56
0.2347590076066497
% es.Ez (V/m) @ t=0.56
2.976857618064784
% es.tEx (V/m) @ t=0.56
0.9690233865150049
% es.tEy (V/m) @ t=0.56
0
% es.tEz (V/m) @ t=0.56
2.976857618064791
% V (V) @ t=0.56
0.014683125432421276
% es.normE (V/m) @ t=0.58
3.1692251097638637
% es.EX (V/m) @ t=0.58
0.9782246397565706
% es.EY (V/m) @ t=0.58
0.23698813550076703
% es.EZ (V/m) @ t=0.58
3.005124036752499
% es.tEX (V/m) @ t=0.58
0.9782246397565757
% es.tEY (V/m) @ t=0.58
0
% es.tEZ (V/m) @ t=0.58
3.005124036752502
% es.Ex (V/m) @ t=0.58
0.9782246397565706
% es.Ey (V/m) @ t=0.58
0.23698813550076703
% es.Ez (V/m) @ t=0.58
3.005124036752499
% es.tEx (V/m) @ t=0.58
0.9782246397565757
% es.tEy (V/m) @ t=0.58
0
% es.tEz (V/m) @ t=0.58
3.005124036752502
% V (V) @ t=0.58
0.014822547407679207
% es.normE (V/m) @ t=0.6
3.199035075270622
% es.EX (V/m) @ t=0.6
0.9874258929981263
% es.EY (V/m) @ t=0.6
0.2392172633948879
% es.EZ (V/m) @ t=0.6
3.033390455440191
% es.tEX (V/m) @ t=0.6
0.9874258929981323
% es.tEY (V/m) @ t=0.6
0
% es.tEZ (V/m) @ t=0.6
3.033390455440202
% es.Ex (V/m) @ t=0.6
0.9874258929981263
% es.Ey (V/m) @ t=0.6
0.2392172633948879
% es.Ez (V/m) @ t=0.6
3.033390455440191
% es.tEx (V/m) @ t=0.6
0.9874258929981323
% es.tEy (V/m) @ t=0.6
0
% es.tEz (V/m) @ t=0.6
3.033390455440202
% V (V) @ t=0.6
0.014961969382937135
% es.normE (V/m) @ t=0.62
3.2288450407773905
% es.EX (V/m) @ t=0.62
0.9966271462396765
% es.EY (V/m) @ t=0.62
0.24144639128898748
% es.EZ (V/m) @ t=0.62
3.061656874127898
% es.tEX (V/m) @ t=0.62
0.9966271462396747
% es.tEY (V/m) @ t=0.62
0
% es.tEZ (V/m) @ t=0.62
3.061656874127916
% es.Ex (V/m) @ t=0.62
0.9966271462396765
% es.Ey (V/m) @ t=0.62
0.24144639128898748
% es.Ez (V/m) @ t=0.62
3.061656874127898
% es.tEx (V/m) @ t=0.62
0.9966271462396747
% es.tEy (V/m) @ t=0.62
0
% es.tEz (V/m) @ t=0.62
3.061656874127916
% V (V) @ t=0.62
0.015101391358195066
% es.normE (V/m) @ t=0.64
3.2586550062842017
% es.EX (V/m) @ t=0.64
1.0058283994812511
% es.EY (V/m) @ t=0.64
0.2436755191830835
% es.EZ (V/m) @ t=0.64
3.0899232928156426
% es.tEX (V/m) @ t=0.64
1.0058283994812598
% es.tEY (V/m) @ t=0.64
0
% es.tEZ (V/m) @ t=0.64
3.0899232928156444
% es.Ex (V/m) @ t=0.64
1.0058283994812511
% es.Ey (V/m) @ t=0.64
0.2436755191830835
% es.Ez (V/m) @ t=0.64
3.0899232928156426
% es.tEx (V/m) @ t=0.64
1.0058283994812598
% es.tEy (V/m) @ t=0.64
0
% es.tEz (V/m) @ t=0.64
3.0899232928156444
% V (V) @ t=0.64
0.015240813333452997
% es.normE (V/m) @ t=0.66
3.288464971790984
% es.EX (V/m) @ t=0.66
1.0150296527228122
% es.EY (V/m) @ t=0.66
0.24590464707721127
% es.EZ (V/m) @ t=0.66
3.1181897115033586
% es.tEX (V/m) @ t=0.66
1.0150296527228164
% es.tEY (V/m) @ t=0.66
0
% es.tEZ (V/m) @ t=0.66
3.1181897115033586
% es.Ex (V/m) @ t=0.66
1.0150296527228122
% es.Ey (V/m) @ t=0.66
0.24590464707721127
% es.Ez (V/m) @ t=0.66
3.1181897115033586
% es.tEx (V/m) @ t=0.66
1.0150296527228164
% es.tEy (V/m) @ t=0.66
0
% es.tEz (V/m) @ t=0.66
3.1181897115033586
% V (V) @ t=0.66
0.015380235308710927
% es.normE (V/m) @ t=0.68
3.3182749372977556
% es.EX (V/m) @ t=0.68
1.0242309059643473
% es.EY (V/m) @ t=0.68
0.2481337749713295
% es.EZ (V/m) @ t=0.68
3.146456130191072
% es.tEX (V/m) @ t=0.68
1.0242309059643588
% es.tEY (V/m) @ t=0.68
0
% es.tEZ (V/m) @ t=0.68
3.146456130191069
% es.Ex (V/m) @ t=0.68
1.0242309059643473
% es.Ey (V/m) @ t=0.68
0.2481337749713295
% es.Ez (V/m) @ t=0.68
3.146456130191072
% es.tEx (V/m) @ t=0.68
1.0242309059643588
% es.tEy (V/m) @ t=0.68
0
% es.tEz (V/m) @ t=0.68
3.146456130191069
% V (V) @ t=0.68
0.015519657283968858
% es.normE (V/m) @ t=0.7
3.348084902804545
% es.EX (V/m) @ t=0.7
1.0334321592059243
% es.EY (V/m) @ t=0.7
0.2503629028654071
% es.EZ (V/m) @ t=0.7
3.174722548878794
% es.tEX (V/m) @ t=0.7
1.0334321592059155
% es.tEY (V/m) @ t=0.7
0
% es.tEZ (V/m) @ t=0.7
3.174722548878794
% es.Ex (V/m) @ t=0.7
1.0334321592059243
% es.Ey (V/m) @ t=0.7
0.2503629028654071
% es.Ez (V/m) @ t=0.7
3.174722548878794
% es.tEx (V/m) @ t=0.7
1.0334321592059155
% es.tEy (V/m) @ t=0.7
0
% es.tEz (V/m) @ t=0.7
3.174722548878794
% V (V) @ t=0.7
0.01565907925922679
% es.normE (V/m) @ t=0.72
3.377894868311316
% es.EX (V/m) @ t=0.72
1.042633412447471
% es.EY (V/m) @ t=0.72
0.25259203075953507
% es.EZ (V/m) @ t=0.72
3.202988967566503
% es.tEX (V/m) @ t=0.72
1.0426334124474863
% es.tEY (V/m) @ t=0.72
0
% es.tEZ (V/m) @ t=0.72
3.202988967566508
% es.Ex (V/m) @ t=0.72
1.042633412447471
% es.Ey (V/m) @ t=0.72
0.25259203075953507
% es.Ez (V/m) @ t=0.72
3.202988967566503
% es.tEx (V/m) @ t=0.72
1.0426334124474863
% es.tEy (V/m) @ t=0.72
0
% es.tEz (V/m) @ t=0.72
3.202988967566508
% V (V) @ t=0.72
0.01579850123448472
% es.normE (V/m) @ t=0.74
3.407704833818126
% es.EX (V/m) @ t=0.74
1.05183466568906
% es.EY (V/m) @ t=0.74
0.2548211586536735
% es.EZ (V/m) @ t=0.74
3.2312553862542375
% es.tEX (V/m) @ t=0.74
1.0518346656890571
% es.tEY (V/m) @ t=0.74
0
% es.tEZ (V/m) @ t=0.74
3.23125538625424
% es.Ex (V/m) @ t=0.74
1.05183466568906
% es.Ey (V/m) @ t=0.74
0.2548211586536735
% es.Ez (V/m) @ t=0.74
3.2312553862542375
% es.tEx (V/m) @ t=0.74
1.0518346656890571
% es.tEy (V/m) @ t=0.74
0
% es.tEz (V/m) @ t=0.74
3.23125538625424
% V (V) @ t=0.74
0.01593792320974265
% es.normE (V/m) @ t=0.76
3.4375147993248594
% es.EX (V/m) @ t=0.76
1.0610359189305807
% es.EY (V/m) @ t=0.76
0.2570502865477633
% es.EZ (V/m) @ t=0.76
3.259521804941918
% es.tEX (V/m) @ t=0.76
1.0610359189305854
% es.tEY (V/m) @ t=0.76
0
% es.tEZ (V/m) @ t=0.76
3.259521804941933
% es.Ex (V/m) @ t=0.76
1.0610359189305807
% es.Ey (V/m) @ t=0.76
0.2570502865477633
% es.Ez (V/m) @ t=0.76
3.259521804941918
% es.tEx (V/m) @ t=0.76
1.0610359189305854
% es.tEy (V/m) @ t=0.76
0
% es.tEz (V/m) @ t=0.76
3.259521804941933
% V (V) @ t=0.76
0.016077345185000577
% es.normE (V/m) @ t=0.78
3.4696042894379797
% es.EX (V/m) @ t=0.78
1.0709407786026848
% es.EY (V/m) @ t=0.78
0.2594498725908463
% es.EZ (V/m) @ t=0.78
3.2899497154589836
% es.tEX (V/m) @ t=0.78
1.07094077860269
% es.tEY (V/m) @ t=0.78
0
% es.tEZ (V/m) @ t=0.78
3.2899497154589845
% es.Ex (V/m) @ t=0.78
1.0709407786026848
% es.Ey (V/m) @ t=0.78
0.2594498725908463
% es.Ez (V/m) @ t=0.78
3.2899497154589836
% es.tEx (V/m) @ t=0.78
1.07094077860269
% es.tEy (V/m) @ t=0.78
0
% es.tEz (V/m) @ t=0.78
3.2899497154589845
% V (V) @ t=0.78
0.01622742855515659
% es.normE (V/m) @ t=0.8
3.5026790250500914
% es.EX (V/m) @ t=0.8
1.08114974776622
% es.EY (V/m) @ t=0.8
0.2619231332605252
% es.EZ (V/m) @ t=0.8
3.3213118558983954
% es.tEX (V/m) @ t=0.8
1.0811497477662186
% es.tEY (V/m) @ t=0.8
0
% es.tEZ (V/m) @ t=0.8
3.3213118558983936
% es.Ex (V/m) @ t=0.8
1.08114974776622
% es.Ey (V/m) @ t=0.8
0.2619231332605252
% es.Ez (V/m) @ t=0.8
3.3213118558983954
% es.tEx (V/m) @ t=0.8
1.0811497477662186
% es.tEy (V/m) @ t=0.8
0
% es.tEz (V/m) @ t=0.8
3.3213118558983936
% V (V) @ t=0.8
0.016382119943715755
% es.normE (V/m) @ t=0.82
3.535753760662191
% es.EX (V/m) @ t=0.82
1.0913587169297414
% es.EY (V/m) @ t=0.82
0.26439639393021075
% es.EZ (V/m) @ t=0.82
3.3526739963377983
% es.tEX (V/m) @ t=0.82
1.091358716929733
% es.tEY (V/m) @ t=0.82
0
% es.tEZ (V/m) @ t=0.82
3.3526739963378027
% es.Ex (V/m) @ t=0.82
1.0913587169297414
% es.Ey (V/m) @ t=0.82
0.26439639393021075
% es.Ez (V/m) @ t=0.82
3.3526739963377983
% es.tEx (V/m) @ t=0.82
1.091358716929733
% es.tEy (V/m) @ t=0.82
0
% es.tEz (V/m) @ t=0.82
3.3526739963378027
% V (V) @ t=0.82
0.01653681133227492
% es.normE (V/m) @ t=0.84
3.568828496274284
% es.EX (V/m) @ t=0.84
1.1015676860932524
% es.EY (V/m) @ t=0.84
0.26686965459984346
% es.EZ (V/m) @ t=0.84
3.384036136777201
% es.tEX (V/m) @ t=0.84
1.1015676860932615
% es.tEY (V/m) @ t=0.84
0
% es.tEZ (V/m) @ t=0.84
3.3840361367772047
% es.Ex (V/m) @ t=0.84
1.1015676860932524
% es.Ey (V/m) @ t=0.84
0.26686965459984346
% es.Ez (V/m) @ t=0.84
3.384036136777201
% es.tEx (V/m) @ t=0.84
1.1015676860932615
% es.tEy (V/m) @ t=0.84
0
% es.tEz (V/m) @ t=0.84
3.3840361367772047
% V (V) @ t=0.84
0.016691502720834084
% es.normE (V/m) @ t=0.86
3.601903231886383
% es.EX (V/m) @ t=0.86
1.1117766552567707
% es.EY (V/m) @ t=0.86
0.26934291526951815
% es.EZ (V/m) @ t=0.86
3.415398277216606
% es.tEX (V/m) @ t=0.86
1.1117766552567758
% es.tEY (V/m) @ t=0.86
0
% es.tEZ (V/m) @ t=0.86
3.415398277216614
% es.Ex (V/m) @ t=0.86
1.1117766552567707
% es.Ey (V/m) @ t=0.86
0.26934291526951815
% es.Ez (V/m) @ t=0.86
3.415398277216606
% es.tEx (V/m) @ t=0.86
1.1117766552567758
% es.tEy (V/m) @ t=0.86
0
% es.tEz (V/m) @ t=0.86
3.415398277216614
% V (V) @ t=0.86
0.016846194109393253
% es.normE (V/m) @ t=0.88
3.6349779674985223
% es.EX (V/m) @ t=0.88
1.1219856244202902
% es.EY (V/m) @ t=0.88
0.27181617593917284
% es.EZ (V/m) @ t=0.88
3.446760417656054
% es.tEX (V/m) @ t=0.88
1.1219856244202902
% es.tEY (V/m) @ t=0.88
0
% es.tEZ (V/m) @ t=0.88
3.4467604176560513
% es.Ex (V/m) @ t=0.88
1.1219856244202902
% es.Ey (V/m) @ t=0.88
0.27181617593917284
% es.Ez (V/m) @ t=0.88
3.446760417656054
% es.tEx (V/m) @ t=0.88
1.1219856244202902
% es.tEy (V/m) @ t=0.88
0
% es.tEz (V/m) @ t=0.88
3.4467604176560513
% V (V) @ t=0.88
0.01700088549795242
% es.normE (V/m) @ t=0.9
3.6680527031105945
% es.EX (V/m) @ t=0.9
1.1321945935838065
% es.EY (V/m) @ t=0.9
0.2742894366088726
% es.EZ (V/m) @ t=0.9
3.4781225580954285
% es.tEX (V/m) @ t=0.9
1.1321945935838045
% es.tEY (V/m) @ t=0.9
0
% es.tEZ (V/m) @ t=0.9
3.478122558095432
% es.Ex (V/m) @ t=0.9
1.1321945935838065
% es.Ey (V/m) @ t=0.9
0.2742894366088726
% es.Ez (V/m) @ t=0.9
3.4781225580954285
% es.tEx (V/m) @ t=0.9
1.1321945935838045
% es.tEy (V/m) @ t=0.9
0
% es.tEz (V/m) @ t=0.9
3.478122558095432
% V (V) @ t=0.9
0.017155576886511585
% es.normE (V/m) @ t=0.92
3.7011274387227093
% es.EX (V/m) @ t=0.92
1.1424035627473288
% es.EY (V/m) @ t=0.92
0.2767626972785018
% es.EZ (V/m) @ t=0.92
3.509484698534852
% es.tEX (V/m) @ t=0.92
1.142403562747333
% es.tEY (V/m) @ t=0.92
0
% es.tEZ (V/m) @ t=0.92
3.5094846985348553
% es.Ex (V/m) @ t=0.92
1.1424035627473288
% es.Ey (V/m) @ t=0.92
0.2767626972785018
% es.Ez (V/m) @ t=0.92
3.509484698534852
% es.tEx (V/m) @ t=0.92
1.142403562747333
% es.tEy (V/m) @ t=0.92
0
% es.tEz (V/m) @ t=0.92
3.5094846985348553
% V (V) @ t=0.92
0.01731026827507075
% es.normE (V/m) @ t=0.94
3.734202174334815
% es.EX (V/m) @ t=0.94
1.1526125319108593
% es.EY (V/m) @ t=0.94
0.2792359579481798
% es.EZ (V/m) @ t=0.94
3.5408468389742582
% es.tEX (V/m) @ t=0.94
1.1526125319108758
% es.tEY (V/m) @ t=0.94
0
% es.tEZ (V/m) @ t=0.94
3.5408468389742644
% es.Ex (V/m) @ t=0.94
1.1526125319108593
% es.Ey (V/m) @ t=0.94
0.2792359579481798
% es.Ez (V/m) @ t=0.94
3.5408468389742582
% es.tEx (V/m) @ t=0.94
1.1526125319108758
% es.tEy (V/m) @ t=0.94
0
% es.tEz (V/m) @ t=0.94
3.5408468389742644
% V (V) @ t=0.94
0.017464959663629917
% es.normE (V/m) @ t=0.96
3.7672769099469194
% es.EX (V/m) @ t=0.96
1.1628215010743628
% es.EY (V/m) @ t=0.96
0.2817092186178054
% es.EZ (V/m) @ t=0.96
3.572208979413677
% es.tEX (V/m) @ t=0.96
1.1628215010743759
% es.tEY (V/m) @ t=0.96
0
% es.tEZ (V/m) @ t=0.96
3.572208979413695
% es.Ex (V/m) @ t=0.96
1.1628215010743628
% es.Ey (V/m) @ t=0.96
0.2817092186178054
% es.Ez (V/m) @ t=0.96
3.572208979413677
% es.tEx (V/m) @ t=0.96
1.1628215010743759
% es.tEy (V/m) @ t=0.96
0
% es.tEz (V/m) @ t=0.96
3.572208979413695
% V (V) @ t=0.96
0.01761965105218908
% es.normE (V/m) @ t=0.98
3.8003516455589996
% es.EX (V/m) @ t=0.98
1.1730304702378844
% es.EY (V/m) @ t=0.98
0.28418247928749074
% es.EZ (V/m) @ t=0.98
3.6035711198530596
% es.tEX (V/m) @ t=0.98
1.1730304702378902
% es.tEY (V/m) @ t=0.98
0
% es.tEZ (V/m) @ t=0.98
3.6035711198530613
% es.Ex (V/m) @ t=0.98
1.1730304702378844
% es.Ey (V/m) @ t=0.98
0.28418247928749074
% es.Ez (V/m) @ t=0.98
3.6035711198530596
% es.tEx (V/m) @ t=0.98
1.1730304702378902
% es.tEy (V/m) @ t=0.98
0
% es.tEz (V/m) @ t=0.98
3.6035711198530613
% V (V) @ t=0.98
0.017774342440748245
% es.normE (V/m) @ t=1
3.8334263811711233
% es.EX (V/m) @ t=1
1.1832394394014205
% es.EY (V/m) @ t=1
0.2866557399571581
% es.EZ (V/m) @ t=1
3.6349332602924846
% es.tEX (V/m) @ t=1
1.1832394394014187
% es.tEY (V/m) @ t=1
0
% es.tEZ (V/m) @ t=1
3.634933260292499
% es.Ex (V/m) @ t=1
1.1832394394014205
% es.Ey (V/m) @ t=1
0.2866557399571581
% es.Ez (V/m) @ t=1
3.6349332602924846
% es.tEx (V/m) @ t=1
1.1832394394014187
% es.tEy (V/m) @ t=1
0
% es.tEz (V/m) @ t=1
3.634933260292499
% V (V) @ t=1
0.017929033829307415
% es.normE (V/m) @ t=1.02
3.866501116783244
% es.EX (V/m) @ t=1.02
1.193448408564939
% es.EY (V/m) @ t=1.02
0.28912900062686564
% es.EZ (V/m) @ t=1.02
3.666295400731909
% es.tEX (V/m) @ t=1.02
1.1934484085649473
% es.tEY (V/m) @ t=1.02
0
% es.tEZ (V/m) @ t=1.02
3.666295400731922
% es.Ex (V/m) @ t=1.02
1.193448408564939
% es.Ey (V/m) @ t=1.02
0.28912900062686564
% es.Ez (V/m) @ t=1.02
3.666295400731909
% es.tEx (V/m) @ t=1.02
1.1934484085649473
% es.tEy (V/m) @ t=1.02
0
% es.tEz (V/m) @ t=1.02
3.666295400731922
% V (V) @ t=1.02
0.01808372521786658
% es.normE (V/m) @ t=1.04
3.9010809007015914
% es.EX (V/m) @ t=1.04
1.204121931479483
% es.EY (V/m) @ t=1.04
0.2917148056688368
% es.EZ (V/m) @ t=1.04
3.6990846587382835
% es.tEX (V/m) @ t=1.04
1.2041219314794773
% es.tEY (V/m) @ t=1.04
0
% es.tEZ (V/m) @ t=1.04
3.6990846587383075
% es.Ex (V/m) @ t=1.04
1.204121931479483
% es.Ey (V/m) @ t=1.04
0.2917148056688368
% es.Ez (V/m) @ t=1.04
3.6990846587382835
% es.tEx (V/m) @ t=1.04
1.2041219314794773
% es.tEy (V/m) @ t=1.04
0
% es.tEz (V/m) @ t=1.04
3.6990846587383075
% V (V) @ t=1.04