% Model:              1 neuron.mph
% Version:            COMSOL 6.1.0.252
% Date:               Mar 22 2023, 18:44
% Dimension:          0
% Nodes:              14017
% Expressions:        14017
% Description:        Electric field norm, Electric field, X component, Electric field, Y component, Electric field, Z component, Tangential electric field, X component, Tangential electric field, Y component, Tangential electric field, Z component, Electric field, x component, Electric field, y component, Electric field, z component, Tangential electric field, x component, Tangential electric field, y component, Tangential electric field, z component, Electric potential
% Length unit:        mm
% x
1.33
% y
12.2
% z
1
% es.normE (V/m) @ t=0
2.8525740084708957
% es.EX (V/m) @ t=0
0.8804851361315646
% es.EY (V/m) @ t=0
0.2133095787115753
% es.EZ (V/m) @ t=0
2.704869257070028
% es.tEX (V/m) @ t=0
0.8804851361315684
% es.tEY (V/m) @ t=0
0
% es.tEZ (V/m) @ t=0
2.7048692570700332
% es.Ex (V/m) @ t=0
0.8804851361315646
% es.Ey (V/m) @ t=0
0.2133095787115753
% es.Ez (V/m) @ t=0
2.704869257070028
% es.tEx (V/m) @ t=0
0.8804851361315684
% es.tEy (V/m) @ t=0
0
% es.tEz (V/m) @ t=0
2.7048692570700332
% V (V) @ t=0
0.013341563514375081
% es.normE (V/m) @ t=0.02
2.4637875197623234
% es.EX (V/m) @ t=0.02
0.7604809843174883
% es.EY (V/m) @ t=0.02
0.18423692997921481
% es.EZ (V/m) @ t=0.02
2.3362139241081867
% es.tEX (V/m) @ t=0.02
0.760480984317482
% es.tEY (V/m) @ t=0.02
0
% es.tEZ (V/m) @ t=0.02
2.33621392410819
% es.Ex (V/m) @ t=0.02
0.7604809843174883
% es.Ey (V/m) @ t=0.02
0.18423692997921481
% es.Ez (V/m) @ t=0.02
2.3362139241081867
% es.tEx (V/m) @ t=0.02
0.760480984317482
% es.tEy (V/m) @ t=0.02
0
% es.tEz (V/m) @ t=0.02
2.33621392410819
% V (V) @ t=0.02
0.011523198899407158
% es.normE (V/m) @ t=0.04
2.4864422242245756
% es.EX (V/m) @ t=0.04
0.7674736620035285
% es.EY (V/m) @ t=0.04
0.18593100187385392
% es.EZ (V/m) @ t=0.04
2.3576955801222836
% es.tEX (V/m) @ t=0.04
0.767473662003539
% es.tEY (V/m) @ t=0.04
0
% es.tEZ (V/m) @ t=0.04
2.3576955801222983
% es.Ex (V/m) @ t=0.04
0.7674736620035285
% es.Ey (V/m) @ t=0.04
0.18593100187385392
% es.Ez (V/m) @ t=0.04
2.3576955801222836
% es.tEx (V/m) @ t=0.04
0.767473662003539
% es.tEy (V/m) @ t=0.04
0
% es.tEz (V/m) @ t=0.04
2.3576955801222983
% V (V) @ t=0.04
0.011629155544582227
% es.normE (V/m) @ t=0.06
2.5092594406381346
% es.EX (V/m) @ t=0.06
0.7745165010933283
% es.EY (V/m) @ t=0.06
0.187637226105972
% es.EZ (V/m) @ t=0.06
2.3793313333309256
% es.tEX (V/m) @ t=0.06
0.7745165010933306
% es.tEY (V/m) @ t=0.06
0
% es.tEZ (V/m) @ t=0.06
2.3793313333309403
% es.Ex (V/m) @ t=0.06
0.7745165010933283
% es.Ey (V/m) @ t=0.06
0.187637226105972
% es.Ez (V/m) @ t=0.06
2.3793313333309256
% es.tEx (V/m) @ t=0.06
0.7745165010933306
% es.tEy (V/m) @ t=0.06
0
% es.tEz (V/m) @ t=0.06
2.3793313333309403
% V (V) @ t=0.06
0.011735872270197477
% es.normE (V/m) @ t=0.08
2.5325196269103767
% es.EX (V/m) @ t=0.08
0.7816960688073366
% es.EY (V/m) @ t=0.08
0.1893765746806907
% es.EZ (V/m) @ t=0.08
2.401387119642544
% es.tEX (V/m) @ t=0.08
0.7816960688073422
% es.tEY (V/m) @ t=0.08
0
% es.tEZ (V/m) @ t=0.08
2.401387119642564
% es.Ex (V/m) @ t=0.08
0.7816960688073366
% es.Ey (V/m) @ t=0.08
0.1893765746806907
% es.Ez (V/m) @ t=0.08
2.401387119642544
% es.tEx (V/m) @ t=0.08
0.7816960688073422
% es.tEy (V/m) @ t=0.08
0
% es.tEz (V/m) @ t=0.08
2.401387119642564
% V (V) @ t=0.08
0.011844660772673557
% es.normE (V/m) @ t=0.1
2.5558901345539966
% es.EX (V/m) @ t=0.1
0.7889096887012669
% es.EY (V/m) @ t=0.1
0.19112417285266814
% es.EZ (V/m) @ t=0.1
2.4235475149406085
% es.tEX (V/m) @ t=0.1
0.7889096887012741
% es.tEY (V/m) @ t=0.1
0
% es.tEZ (V/m) @ t=0.1
2.423547514940628
% es.Ex (V/m) @ t=0.1
0.7889096887012669
% es.Ey (V/m) @ t=0.1
0.19112417285266814
% es.Ez (V/m) @ t=0.1
2.4235475149406085
% es.tEx (V/m) @ t=0.1
0.7889096887012741
% es.tEy (V/m) @ t=0.1
0
% es.tEz (V/m) @ t=0.1
2.423547514940628
% V (V) @ t=0.1
0.011953965249905071
% es.normE (V/m) @ t=0.12
2.5792606421976485
% es.EX (V/m) @ t=0.12
0.7961233085952112
% es.EY (V/m) @ t=0.12
0.19287177102458797
% es.EZ (V/m) @ t=0.12
2.445707910238706
% es.tEX (V/m) @ t=0.12
0.7961233085952131
% es.tEY (V/m) @ t=0.12
0
% es.tEZ (V/m) @ t=0.12
2.4457079102387063
% es.Ex (V/m) @ t=0.12
0.7961233085952112
% es.Ey (V/m) @ t=0.12
0.19287177102458797
% es.Ez (V/m) @ t=0.12
2.445707910238706
% es.tEx (V/m) @ t=0.12
0.7961233085952131
% es.tEy (V/m) @ t=0.12
0
% es.tEz (V/m) @ t=0.12
2.4457079102387063
% V (V) @ t=0.12
0.012063269727136585
% es.normE (V/m) @ t=0.14
2.603339759668488
% es.EX (V/m) @ t=0.14
0.8035556503852518
% es.EY (V/m) @ t=0.14
0.19467235757533918
% es.EZ (V/m) @ t=0.14
2.4685402239299115
% es.tEX (V/m) @ t=0.14
0.8035556503852561
% es.tEY (V/m) @ t=0.14
0
% es.tEZ (V/m) @ t=0.14
2.468540223929919
% es.Ex (V/m) @ t=0.14
0.8035556503852518
% es.Ey (V/m) @ t=0.14
0.19467235757533918
% es.Ez (V/m) @ t=0.14
2.4685402239299115
% es.tEx (V/m) @ t=0.14
0.8035556503852561
% es.tEy (V/m) @ t=0.14
0
% es.tEz (V/m) @ t=0.14
2.468540223929919
% V (V) @ t=0.14
0.012175888391863158
% es.normE (V/m) @ t=0.16
2.627876790914967
% es.EX (V/m) @ t=0.16
0.8111293333836886
% es.EY (V/m) @ t=0.16
0.19650718597214034
% es.EZ (V/m) @ t=0.16
2.491806740868807
% es.tEX (V/m) @ t=0.16
0.8111293333836969
% es.tEY (V/m) @ t=0.16
0
% es.tEZ (V/m) @ t=0.16
2.4918067408687996
% es.Ex (V/m) @ t=0.16
0.8111293333836886
% es.Ey (V/m) @ t=0.16
0.19650718597214034
% es.Ez (V/m) @ t=0.16
2.491806740868807
% es.tEx (V/m) @ t=0.16
0.8111293333836969
% es.tEy (V/m) @ t=0.16
0
% es.tEz (V/m) @ t=0.16
2.4918067408687996
% V (V) @ t=0.16
0.012290648731811564
% es.normE (V/m) @ t=0.18
2.652413822161426
% es.EX (V/m) @ t=0.18
0.8187030163821085
% es.EY (V/m) @ t=0.18
0.19834201436888577
% es.EZ (V/m) @ t=0.18
2.5150732578076926
% es.tEX (V/m) @ t=0.18
0.8187030163821092
% es.tEY (V/m) @ t=0.18
0
% es.tEZ (V/m) @ t=0.18
2.515073257807675
% es.Ex (V/m) @ t=0.18
0.8187030163821085
% es.Ey (V/m) @ t=0.18
0.19834201436888577
% es.Ez (V/m) @ t=0.18
2.5150732578076926
% es.tEx (V/m) @ t=0.18
0.8187030163821092
% es.tEy (V/m) @ t=0.18
0
% es.tEz (V/m) @ t=0.18
2.515073257807675
% V (V) @ t=0.18
0.012405409071759967
% es.normE (V/m) @ t=0.2
2.6769508534078827
% es.EX (V/m) @ t=0.2
0.8262766993805373
% es.EY (V/m) @ t=0.2
0.2001768427656626
% es.EZ (V/m) @ t=0.2
2.538339774746569
% es.tEX (V/m) @ t=0.2
0.8262766993805357
% es.tEY (V/m) @ t=0.2
0
% es.tEZ (V/m) @ t=0.2
2.538339774746584
% es.Ex (V/m) @ t=0.2
0.8262766993805373
% es.Ey (V/m) @ t=0.2
0.2001768427656626
% es.Ez (V/m) @ t=0.2
2.538339774746569
% es.tEx (V/m) @ t=0.2
0.8262766993805357
% es.tEy (V/m) @ t=0.2
0
% es.tEz (V/m) @ t=0.2
2.538339774746584
% V (V) @ t=0.2
0.012520169411708373
% es.normE (V/m) @ t=0.22
2.7014878846543473
% es.EX (V/m) @ t=0.22
0.8338503823789873
% es.EY (V/m) @ t=0.22
0.20201167116246366
% es.EZ (V/m) @ t=0.22
2.561606291685445
% es.tEX (V/m) @ t=0.22
0.8338503823789907
% es.tEY (V/m) @ t=0.22
0
% es.tEZ (V/m) @ t=0.22
2.5616062916854503
% es.Ex (V/m) @ t=0.22
0.8338503823789873
% es.Ey (V/m) @ t=0.22
0.20201167116246366
% es.Ez (V/m) @ t=0.22
2.561606291685445
% es.tEx (V/m) @ t=0.22
0.8338503823789907
% es.tEy (V/m) @ t=0.22
0
% es.tEz (V/m) @ t=0.22
2.5616062916854503
% V (V) @ t=0.22
0.012634929751656778
% es.normE (V/m) @ t=0.24
2.7260249159008323
% es.EX (V/m) @ t=0.24
0.8414240653774205
% es.EY (V/m) @ t=0.24
0.20384649955924028
% es.EZ (V/m) @ t=0.24
2.5848728086243504
% es.tEX (V/m) @ t=0.24
0.8414240653774243
% es.tEY (V/m) @ t=0.24
0
% es.tEZ (V/m) @ t=0.24
2.5848728086243575
% es.Ex (V/m) @ t=0.24
0.8414240653774205
% es.Ey (V/m) @ t=0.24
0.20384649955924028
% es.Ez (V/m) @ t=0.24
2.5848728086243504
% es.tEx (V/m) @ t=0.24
0.8414240653774243
% es.tEy (V/m) @ t=0.24
0
% es.tEz (V/m) @ t=0.24
2.5848728086243575
% V (V) @ t=0.24
0.012749690091605181
% es.normE (V/m) @ t=0.26
2.7511378299127816
% es.EX (V/m) @ t=0.26
0.8491755018651899
% es.EY (V/m) @ t=0.26
0.20572439126350028
% es.EZ (V/m) @ t=0.26
2.6086853895689273
% es.tEX (V/m) @ t=0.26
0.8491755018651972
% es.tEY (V/m) @ t=0.26
0
% es.tEZ (V/m) @ t=0.26
2.6086853895689277
% es.Ex (V/m) @ t=0.26
0.8491755018651899
% es.Ey (V/m) @ t=0.26
0.20572439126350028
% es.Ez (V/m) @ t=0.26
2.6086853895689273
% es.tEx (V/m) @ t=0.26
0.8491755018651972
% es.tEy (V/m) @ t=0.26
0
% es.tEz (V/m) @ t=0.26
2.6086853895689277
% V (V) @ t=0.26
0.012867143891688117
% es.normE (V/m) @ t=0.28
2.778278953268991
% es.EX (V/m) @ t=0.28
0.8575529707846461
% es.EY (V/m) @ t=0.28
0.20775394821615967
% es.EZ (V/m) @ t=0.28
2.6344211607620895
% es.tEX (V/m) @ t=0.28
0.8575529707846457
% es.tEY (V/m) @ t=0.28
0
% es.tEZ (V/m) @ t=0.28
2.6344211607620913
% es.Ex (V/m) @ t=0.28
0.8575529707846461
% es.Ey (V/m) @ t=0.28
0.20775394821615967
% es.Ez (V/m) @ t=0.28
2.6344211607620895
% es.tEx (V/m) @ t=0.28
0.8575529707846457
% es.tEy (V/m) @ t=0.28
0
% es.tEz (V/m) @ t=0.28
2.6344211607620913
% V (V) @ t=0.28
0.01299408382565262
% es.normE (V/m) @ t=0.3
2.8054200766252295
% es.EX (V/m) @ t=0.3
0.8659304397041221
% es.EY (V/m) @ t=0.3
0.20978350516883637
% es.EZ (V/m) @ t=0.3
2.6601569319552745
% es.tEX (V/m) @ t=0.3
0.8659304397041225
% es.tEY (V/m) @ t=0.3
0
% es.tEZ (V/m) @ t=0.3
2.6601569319552745
% es.Ex (V/m) @ t=0.3
0.8659304397041221
% es.Ey (V/m) @ t=0.3
0.20978350516883637
% es.Ez (V/m) @ t=0.3
2.6601569319552745
% es.tEx (V/m) @ t=0.3
0.8659304397041225
% es.tEy (V/m) @ t=0.3
0
% es.tEz (V/m) @ t=0.3
2.6601569319552745
% V (V) @ t=0.3
0.013121023759617122
% es.normE (V/m) @ t=0.32
2.832561199981442
% es.EX (V/m) @ t=0.32
0.8743079086235666
% es.EY (V/m) @ t=0.32
0.21181306212151352
% es.EZ (V/m) @ t=0.32
2.6858927031484425
% es.tEX (V/m) @ t=0.32
0.8743079086235639
% es.tEY (V/m) @ t=0.32
0
% es.tEZ (V/m) @ t=0.32
2.685892703148454
% es.Ex (V/m) @ t=0.32
0.8743079086235666
% es.Ey (V/m) @ t=0.32
0.21181306212151352
% es.Ez (V/m) @ t=0.32
2.6858927031484425
% es.tEx (V/m) @ t=0.32
0.8743079086235639
% es.tEy (V/m) @ t=0.32
0
% es.tEz (V/m) @ t=0.32
2.685892703148454
% V (V) @ t=0.32
0.013247963693581626
% es.normE (V/m) @ t=0.34
2.8597023233376895
% es.EX (V/m) @ t=0.34
0.8826853775430354
% es.EY (V/m) @ t=0.34
0.21384261907415825
% es.EZ (V/m) @ t=0.34
2.711628474341641
% es.tEX (V/m) @ t=0.34
0.8826853775430408
% es.tEY (V/m) @ t=0.34
0
% es.tEZ (V/m) @ t=0.34
2.711628474341648
% es.Ex (V/m) @ t=0.34
0.8826853775430354
% es.Ey (V/m) @ t=0.34
0.21384261907415825
% es.Ez (V/m) @ t=0.34
2.711628474341641
% es.tEx (V/m) @ t=0.34
0.8826853775430408
% es.tEy (V/m) @ t=0.34
0
% es.tEz (V/m) @ t=0.34
2.711628474341648
% V (V) @ t=0.34
0.013374903627546128
% es.normE (V/m) @ t=0.36
2.8868434466939457
% es.EX (V/m) @ t=0.36
0.891062846462527
% es.EY (V/m) @ t=0.36
0.2158721760268345
% es.EZ (V/m) @ t=0.36
2.73736424553484
% es.tEX (V/m) @ t=0.36
0.8910628464625248
% es.tEY (V/m) @ t=0.36
0
% es.tEZ (V/m) @ t=0.36
2.7373642455348417
% es.Ex (V/m) @ t=0.36
0.891062846462527
% es.Ey (V/m) @ t=0.36
0.2158721760268345
% es.Ez (V/m) @ t=0.36
2.73736424553484
% es.tEx (V/m) @ t=0.36
0.8910628464625248
% es.tEy (V/m) @ t=0.36
0
% es.tEz (V/m) @ t=0.36
2.7373642455348417
% V (V) @ t=0.36
0.01350184356151063
% es.normE (V/m) @ t=0.38
2.9139845700501734
% es.EX (V/m) @ t=0.38
0.8994403153819657
% es.EY (V/m) @ t=0.38
0.2179017329795434
% es.EZ (V/m) @ t=0.38
2.763100016728023
% es.tEX (V/m) @ t=0.38
0.8994403153819803
% es.tEY (V/m) @ t=0.38
0
% es.tEZ (V/m) @ t=0.38
2.7631000167280106
% es.Ex (V/m) @ t=0.38
0.8994403153819657
% es.Ey (V/m) @ t=0.38
0.2179017329795434
% es.Ez (V/m) @ t=0.38
2.763100016728023
% es.tEx (V/m) @ t=0.38
0.8994403153819803
% es.tEy (V/m) @ t=0.38
0
% es.tEz (V/m) @ t=0.38
2.7631000167280106
% V (V) @ t=0.38
0.013628783495475135
% es.normE (V/m) @ t=0.4
2.941125693406409
% es.EX (V/m) @ t=0.4
0.9078177843014394
% es.EY (V/m) @ t=0.4
0.219931289932213
% es.EZ (V/m) @ t=0.4
2.7888357879212062
% es.tEX (V/m) @ t=0.4
0.907817784301443
% es.tEY (V/m) @ t=0.4
0
% es.tEZ (V/m) @ t=0.4
2.7888357879212045
% es.Ex (V/m) @ t=0.4
0.9078177843014394
% es.Ey (V/m) @ t=0.4
0.219931289932213
% es.Ez (V/m) @ t=0.4
2.7888357879212062
% es.tEx (V/m) @ t=0.4
0.907817784301443
% es.tEy (V/m) @ t=0.4
0
% es.tEz (V/m) @ t=0.4
2.7888357879212045
% V (V) @ t=0.4
0.013755723429439638
% es.normE (V/m) @ t=0.42
2.9682668167626325
% es.EX (V/m) @ t=0.42
0.9161952532209023
% es.EY (V/m) @ t=0.42
0.22196084688486128
% es.EZ (V/m) @ t=0.42
2.8145715591143814
% es.tEX (V/m) @ t=0.42
0.9161952532209057
% es.tEY (V/m) @ t=0.42
0
% es.tEZ (V/m) @ t=0.42
2.814571559114384
% es.Ex (V/m) @ t=0.42
0.9161952532209023
% es.Ey (V/m) @ t=0.42
0.22196084688486128
% es.Ez (V/m) @ t=0.42
2.8145715591143814
% es.tEx (V/m) @ t=0.42
0.9161952532209057
% es.tEy (V/m) @ t=0.42
0
% es.tEz (V/m) @ t=0.42
2.814571559114384
% V (V) @ t=0.42
0.01388266336340414
% es.normE (V/m) @ t=0.44
2.9954079401188554
% es.EX (V/m) @ t=0.44
0.9245727221403548
% es.EY (V/m) @ t=0.44
0.22399040383753133
% es.EZ (V/m) @ t=0.44
2.8403073303075583
% es.tEX (V/m) @ t=0.44
0.9245727221403541
% es.tEY (V/m) @ t=0.44
0
% es.tEZ (V/m) @ t=0.44
2.8403073303075637
% es.Ex (V/m) @ t=0.44
0.9245727221403548
% es.Ey (V/m) @ t=0.44
0.22399040383753133
% es.Ez (V/m) @ t=0.44
2.8403073303075583
% es.tEx (V/m) @ t=0.44
0.9245727221403541
% es.tEy (V/m) @ t=0.44
0
% es.tEz (V/m) @ t=0.44
2.8403073303075637
% V (V) @ t=0.44
0.014009603297368643
% es.normE (V/m) @ t=0.46
3.0225490634750978
% es.EX (V/m) @ t=0.46
0.9329501910598303
% es.EY (V/m) @ t=0.46
0.2260199607901836
% es.EZ (V/m) @ t=0.46
2.8660431015007495
% es.tEX (V/m) @ t=0.46
0.9329501910598452
% es.tEY (V/m) @ t=0.46
0
% es.tEZ (V/m) @ t=0.46
2.8660431015007717
% es.Ex (V/m) @ t=0.46
0.9329501910598303
% es.Ey (V/m) @ t=0.46
0.2260199607901836
% es.Ez (V/m) @ t=0.46
2.8660431015007495
% es.tEx (V/m) @ t=0.46
0.9329501910598452
% es.tEy (V/m) @ t=0.46
0
% es.tEz (V/m) @ t=0.46
2.8660431015007717
% V (V) @ t=0.46
0.014136543231333145
% es.normE (V/m) @ t=0.48
3.0496901868313406
% es.EX (V/m) @ t=0.48
0.9413276599792983
% es.EY (V/m) @ t=0.48
0.22804951774288096
% es.EZ (V/m) @ t=0.48
2.8917788726939397
% es.tEX (V/m) @ t=0.48
0.9413276599793079
% es.tEY (V/m) @ t=0.48
0
% es.tEZ (V/m) @ t=0.48
2.891778872693955
% es.Ex (V/m) @ t=0.48
0.9413276599792983
% es.Ey (V/m) @ t=0.48
0.22804951774288096
% es.Ez (V/m) @ t=0.48
2.8917788726939397
% es.tEx (V/m) @ t=0.48
0.9413276599793079
% es.tEy (V/m) @ t=0.48
0
% es.tEz (V/m) @ t=0.48
2.891778872693955
% V (V) @ t=0.48
0.014263483165297648
% es.normE (V/m) @ t=0.5
3.0768313101875866
% es.EX (V/m) @ t=0.5
0.9497051288987617
% es.EY (V/m) @ t=0.5
0.23007907469555433
% es.EZ (V/m) @ t=0.5
2.917514643887137
% es.tEX (V/m) @ t=0.5
0.9497051288987564
% es.tEY (V/m) @ t=0.5
0
% es.tEZ (V/m) @ t=0.5
2.9175146438871344
% es.Ex (V/m) @ t=0.5
0.9497051288987617
% es.Ey (V/m) @ t=0.5
0.23007907469555433
% es.Ez (V/m) @ t=0.5
2.917514643887137
% es.tEx (V/m) @ t=0.5
0.9497051288987564
% es.tEy (V/m) @ t=0.5
0
% es.tEz (V/m) @ t=0.5
2.9175146438871344
% V (V) @ t=0.5
0.014390423099262152
% es.normE (V/m) @ t=0.52
3.105285207571483
% es.EX (V/m) @ t=0.52
0.9584878039325757
% es.EY (V/m) @ t=0.52
0.23220679822052204
% es.EZ (V/m) @ t=0.52
2.9444952140959852
% es.tEX (V/m) @ t=0.52
0.9584878039325844
% es.tEY (V/m) @ t=0.52
0
% es.tEZ (V/m) @ t=0.52
2.944495214095994
% es.Ex (V/m) @ t=0.52
0.9584878039325757
% es.Ey (V/m) @ t=0.52
0.23220679822052204
% es.Ez (V/m) @ t=0.52
2.9444952140959852
% es.tEx (V/m) @ t=0.52
0.9584878039325844
% es.tEy (V/m) @ t=0.52
0
% es.tEz (V/m) @ t=0.52
2.944495214095994
% V (V) @ t=0.52
0.014523502835952398
% es.normE (V/m) @ t=0.54
3.135353185446882
% es.EX (V/m) @ t=0.54
0.9677686875464191
% es.EY (V/m) @ t=0.54
0.2344552194025129
% es.EZ (V/m) @ t=0.54
2.9730062882336723
% es.tEX (V/m) @ t=0.54
0.9677686875464246
% es.tEY (V/m) @ t=0.54
0
% es.tEZ (V/m) @ t=0.54
2.9730062882336803
% es.Ex (V/m) @ t=0.54
0.9677686875464191
% es.Ey (V/m) @ t=0.54
0.2344552194025129
% es.Ez (V/m) @ t=0.54
2.9730062882336723
% es.tEx (V/m) @ t=0.54
0.9677686875464246
% es.tEy (V/m) @ t=0.54
0
% es.tEz (V/m) @ t=0.54
2.9730062882336803
% V (V) @ t=0.54
0.014664131576197205
% es.normE (V/m) @ t=0.56
3.1654211633223026
% es.EX (V/m) @ t=0.56
0.9770495711602627
% es.EY (V/m) @ t=0.56
0.23670364058452953
% es.EZ (V/m) @ t=0.56
3.00151736237138
% es.tEX (V/m) @ t=0.56
0.9770495711602649
% es.tEY (V/m) @ t=0.56
0
% es.tEZ (V/m) @ t=0.56
3.0015173623713984
% es.Ex (V/m) @ t=0.56
0.9770495711602627
% es.Ey (V/m) @ t=0.56
0.23670364058452953
% es.Ez (V/m) @ t=0.56
3.00151736237138
% es.tEx (V/m) @ t=0.56
0.9770495711602649
% es.tEy (V/m) @ t=0.56
0
% es.tEz (V/m) @ t=0.56
3.0015173623713984
% V (V) @ t=0.56
0.014804760316442013
% es.normE (V/m) @ t=0.58
3.1954891411977275
% es.EX (V/m) @ t=0.58
0.9863304547741025
% es.EY (V/m) @ t=0.58
0.23895206176652461
% es.EZ (V/m) @ t=0.58
3.0300284365090953
% es.tEX (V/m) @ t=0.58
0.9863304547741052
% es.tEY (V/m) @ t=0.58
0
% es.tEZ (V/m) @ t=0.58
3.030028436509099
% es.Ex (V/m) @ t=0.58
0.9863304547741025
% es.Ey (V/m) @ t=0.58
0.23895206176652461
% es.Ez (V/m) @ t=0.58
3.0300284365090953
% es.tEx (V/m) @ t=0.58
0.9863304547741052
% es.tEy (V/m) @ t=0.58
0
% es.tEz (V/m) @ t=0.58
3.030028436509099
% V (V) @ t=0.58
0.01494538905668682
% es.normE (V/m) @ t=0.6
3.2255571190731516
% es.EX (V/m) @ t=0.6
0.9956113383879424
% es.EY (V/m) @ t=0.6
0.24120048294851593
% es.EZ (V/m) @ t=0.6
3.05853951064681
% es.tEX (V/m) @ t=0.6
0.9956113383879597
% es.tEY (V/m) @ t=0.6
0
% es.tEZ (V/m) @ t=0.6
3.0585395106468134
% es.Ex (V/m) @ t=0.6
0.9956113383879424
% es.Ey (V/m) @ t=0.6
0.24120048294851593
% es.Ez (V/m) @ t=0.6
3.05853951064681
% es.tEx (V/m) @ t=0.6
0.9956113383879597
% es.tEy (V/m) @ t=0.6
0
% es.tEz (V/m) @ t=0.6
3.0585395106468134
% V (V) @ t=0.6
0.015086017796931629
% es.normE (V/m) @ t=0.62
3.2556250969485854
% es.EX (V/m) @ t=0.62
1.0048922220018068
% es.EY (V/m) @ t=0.62
0.24344890413051012
% es.EZ (V/m) @ t=0.62
3.087050584784526
% es.tEX (V/m) @ t=0.62
1.0048922220018142
% es.tEY (V/m) @ t=0.62
0
% es.tEZ (V/m) @ t=0.62
3.0870505847845315
% es.Ex (V/m) @ t=0.62
1.0048922220018068
% es.Ey (V/m) @ t=0.62
0.24344890413051012
% es.Ez (V/m) @ t=0.62
3.087050584784526
% es.tEx (V/m) @ t=0.62
1.0048922220018142
% es.tEy (V/m) @ t=0.62
0
% es.tEz (V/m) @ t=0.62
3.0870505847845315
% V (V) @ t=0.62
0.015226646537176433
% es.normE (V/m) @ t=0.64
3.285693074823979
% es.EX (V/m) @ t=0.64
1.0141731056156327
% es.EY (V/m) @ t=0.64
0.245697325312505
% es.EZ (V/m) @ t=0.64
3.1155616589222133
% es.tEX (V/m) @ t=0.64
1.0141731056156402
% es.tEY (V/m) @ t=0.64
0
% es.tEZ (V/m) @ t=0.64
3.1155616589222177
% es.Ex (V/m) @ t=0.64
1.0141731056156327
% es.Ey (V/m) @ t=0.64
0.245697325312505
% es.Ez (V/m) @ t=0.64
3.1155616589222133
% es.tEx (V/m) @ t=0.64
1.0141731056156402
% es.tEy (V/m) @ t=0.64
0
% es.tEz (V/m) @ t=0.64
3.1155616589222177
% V (V) @ t=0.64
0.015367275277421245
% es.normE (V/m) @ t=0.66
3.3157610526994192
% es.EX (V/m) @ t=0.66
1.0234539892294872
% es.EY (V/m) @ t=0.66
0.24794574649448653
% es.EZ (V/m) @ t=0.66
3.1440727330599403
% es.tEX (V/m) @ t=0.66
1.0234539892294947
% es.tEY (V/m) @ t=0.66
0
% es.tEZ (V/m) @ t=0.66
3.1440727330599465
% es.Ex (V/m) @ t=0.66
1.0234539892294872
% es.Ey (V/m) @ t=0.66
0.24794574649448653
% es.Ez (V/m) @ t=0.66
3.1440727330599403
% es.tEx (V/m) @ t=0.66
1.0234539892294947
% es.tEy (V/m) @ t=0.66
0
% es.tEz (V/m) @ t=0.66
3.1440727330599465
% V (V) @ t=0.66
0.015507904017666049
% es.normE (V/m) @ t=0.68
3.3458290305748135
% es.EX (V/m) @ t=0.68
1.0327348728433303
% es.EY (V/m) @ t=0.68
0.2501941676764958
% es.EZ (V/m) @ t=0.68
3.172583807197621
% es.tEX (V/m) @ t=0.68
1.032734872843335
% es.tEY (V/m) @ t=0.68
0
% es.tEZ (V/m) @ t=0.68
3.1725838071976185
% es.Ex (V/m) @ t=0.68
1.0327348728433303
% es.Ey (V/m) @ t=0.68
0.2501941676764958
% es.Ez (V/m) @ t=0.68
3.172583807197621
% es.tEx (V/m) @ t=0.68
1.032734872843335
% es.tEy (V/m) @ t=0.68
0
% es.tEz (V/m) @ t=0.68
3.1725838071976185
% V (V) @ t=0.68
0.01564853275791086
% es.normE (V/m) @ t=0.7
3.375897008450238
% es.EX (V/m) @ t=0.7
1.0420157564571666
% es.EY (V/m) @ t=0.7
0.2524425888584969
% es.EZ (V/m) @ t=0.7
3.2010948813353366
% es.tEX (V/m) @ t=0.7
1.042015756457161
% es.tEY (V/m) @ t=0.7
0
% es.tEZ (V/m) @ t=0.7
3.201094881335351
% es.Ex (V/m) @ t=0.7
1.0420157564571666
% es.Ey (V/m) @ t=0.7
0.2524425888584969
% es.Ez (V/m) @ t=0.7
3.2010948813353366
% es.tEx (V/m) @ t=0.7
1.042015756457161
% es.tEy (V/m) @ t=0.7
0
% es.tEz (V/m) @ t=0.7
3.201094881335351
% V (V) @ t=0.7
0.015789161498155665
% es.normE (V/m) @ t=0.72
3.40596498632567
% es.EX (V/m) @ t=0.72
1.0512966400710315
% es.EY (V/m) @ t=0.72
0.2546910100404778
% es.EZ (V/m) @ t=0.72
3.229605955473052
% es.tEX (V/m) @ t=0.72
1.0512966400710297
% es.tEY (V/m) @ t=0.72
0
% es.tEZ (V/m) @ t=0.72
3.2296059554730654
% es.Ex (V/m) @ t=0.72
1.0512966400710315
% es.Ey (V/m) @ t=0.72
0.2546910100404778
% es.Ez (V/m) @ t=0.72
3.229605955473052
% es.tEx (V/m) @ t=0.72
1.0512966400710297
% es.tEy (V/m) @ t=0.72
0
% es.tEz (V/m) @ t=0.72
3.2296059554730654
% V (V) @ t=0.72
0.01592979023840047
% es.normE (V/m) @ t=0.74
3.4360329642010754
% es.EX (V/m) @ t=0.74
1.06057752368485
% es.EY (V/m) @ t=0.74
0.25693943122249396
% es.EZ (V/m) @ t=0.74
3.2581170296107524
% es.tEX (V/m) @ t=0.74
1.0605775236848558
% es.tEY (V/m) @ t=0.74
0
% es.tEZ (V/m) @ t=0.74
3.2581170296107516
% es.Ex (V/m) @ t=0.74
1.06057752368485
% es.Ey (V/m) @ t=0.74
0.25693943122249396
% es.Ez (V/m) @ t=0.74
3.2581170296107524
% es.tEx (V/m) @ t=0.74
1.0605775236848558
% es.tEy (V/m) @ t=0.74
0
% es.tEz (V/m) @ t=0.74
3.2581170296107516
% V (V) @ t=0.74
0.01607041897864528
% es.normE (V/m) @ t=0.76
3.4661009420764826
% es.EX (V/m) @ t=0.76
1.0698584072986932
% es.EY (V/m) @ t=0.76
0.25918785240451037
% es.EZ (V/m) @ t=0.76
3.2866281037484457
% es.tEX (V/m) @ t=0.76
1.069858407298696
% es.tEY (V/m) @ t=0.76
0
% es.tEZ (V/m) @ t=0.76
3.286628103748452
% es.Ex (V/m) @ t=0.76
1.0698584072986932
% es.Ey (V/m) @ t=0.76
0.25918785240451037
% es.Ez (V/m) @ t=0.76
3.2866281037484457
% es.tEx (V/m) @ t=0.76
1.069858407298696
% es.tEy (V/m) @ t=0.76
0
% es.tEz (V/m) @ t=0.76
3.286628103748452
% V (V) @ t=0.76
0.016211047718890086
% es.normE (V/m) @ t=0.78
3.4983961542646957
% es.EX (V/m) @ t=0.78
1.0798267583305279
% es.EY (V/m) @ t=0.78
0.26160282158722703
% es.EZ (V/m) @ t=0.78
3.3172510866338953
% es.tEX (V/m) @ t=0.78
1.0798267583305403
% es.tEY (V/m) @ t=0.78
0
% es.tEZ (V/m) @ t=0.78
3.3172510866339167
% es.Ex (V/m) @ t=0.78
1.0798267583305279
% es.Ey (V/m) @ t=0.78
0.26160282158722703
% es.Ez (V/m) @ t=0.78
3.3172510866338953
% es.tEx (V/m) @ t=0.78
1.0798267583305403
% es.tEy (V/m) @ t=0.78
0
% es.tEz (V/m) @ t=0.78
3.3172510866339167
% V (V) @ t=0.78
0.016362093122393735
% es.normE (V/m) @ t=0.8
3.531759300061718
% es.EX (V/m) @ t=0.8
1.0901247421973388
% es.EY (V/m) @ t=0.8
0.2640976486486606
% es.EZ (V/m) @ t=0.8
3.3488867058268346
% es.tEX (V/m) @ t=0.8
1.0901247421973466
% es.tEY (V/m) @ t=0.8
0
% es.tEZ (V/m) @ t=0.8
3.348886705826839
% es.Ex (V/m) @ t=0.8
1.0901247421973388
% es.Ey (V/m) @ t=0.8
0.2640976486486606
% es.Ez (V/m) @ t=0.8
3.3488867058268346
% es.tEx (V/m) @ t=0.8
1.0901247421973466
% es.tEy (V/m) @ t=0.8
0
% es.tEz (V/m) @ t=0.8
3.348886705826839
% V (V) @ t=0.8
0.01651813319786412
% es.normE (V/m) @ t=0.82
3.565122445858726
% es.EX (V/m) @ t=0.82
1.1004227260641544
% es.EY (V/m) @ t=0.82
0.26659247571013456
% es.EZ (V/m) @ t=0.82
3.3805223250197542
% es.tEX (V/m) @ t=0.82
1.1004227260641528
% es.tEY (V/m) @ t=0.82
0
% es.tEZ (V/m) @ t=0.82
3.380522325019758
% es.Ex (V/m) @ t=0.82
1.1004227260641544
% es.Ey (V/m) @ t=0.82
0.26659247571013456
% es.Ez (V/m) @ t=0.82
3.3805223250197542
% es.tEx (V/m) @ t=0.82
1.1004227260641528
% es.tEy (V/m) @ t=0.82
0
% es.tEz (V/m) @ t=0.82
3.380522325019758
% V (V) @ t=0.82
0.016674173273334498
% es.normE (V/m) @ t=0.84
3.59848559165574
% es.EX (V/m) @ t=0.84
1.1107207099309626
% es.EY (V/m) @ t=0.84
0.26908730277155724
% es.EZ (V/m) @ t=0.84
3.4121579442126864
% es.tEX (V/m) @ t=0.84
1.110720709930959
% es.tEY (V/m) @ t=0.84
0
% es.tEZ (V/m) @ t=0.84
3.412157944212673
% es.Ex (V/m) @ t=0.84
1.1107207099309626
% es.Ey (V/m) @ t=0.84
0.26908730277155724
% es.Ez (V/m) @ t=0.84
3.4121579442126864
% es.tEx (V/m) @ t=0.84
1.110720709930959
% es.tEy (V/m) @ t=0.84
0
% es.tEz (V/m) @ t=0.84
3.412157944212673
% V (V) @ t=0.84
0.016830213348804877
% es.normE (V/m) @ t=0.86
3.6318487374527004
% es.EX (V/m) @ t=0.86
1.1210186937977575
% es.EY (V/m) @ t=0.86
0.2715821298329848
% es.EZ (V/m) @ t=0.86
3.443793563405566
% es.tEX (V/m) @ t=0.86
1.121018693797751
% es.tEY (V/m) @ t=0.86
0
% es.tEZ (V/m) @ t=0.86
3.4437935634055634
% es.Ex (V/m) @ t=0.86
1.1210186937977575
% es.Ey (V/m) @ t=0.86
0.2715821298329848
% es.Ez (V/m) @ t=0.86
3.443793563405566
% es.tEx (V/m) @ t=0.86
1.121018693797751
% es.tEy (V/m) @ t=0.86
0
% es.tEz (V/m) @ t=0.86
3.4437935634055634
% V (V) @ t=0.86
0.016986253424275264
% es.normE (V/m) @ t=0.88
3.6652118832497105
% es.EX (V/m) @ t=0.88
1.1313166776645567
% es.EY (V/m) @ t=0.88
0.27407695689438305
% es.EZ (V/m) @ t=0.88
3.475429182598499
% es.tEX (V/m) @ t=0.88
1.1313166776645431
% es.tEY (V/m) @ t=0.88
0
% es.tEZ (V/m) @ t=0.88
3.475429182598507
% es.Ex (V/m) @ t=0.88
1.1313166776645567
% es.Ey (V/m) @ t=0.88
0.27407695689438305
% es.Ez (V/m) @ t=0.88
3.475429182598499
% es.tEx (V/m) @ t=0.88
1.1313166776645431
% es.tEy (V/m) @ t=0.88
0
% es.tEz (V/m) @ t=0.88
3.475429182598507
% V (V) @ t=0.88
0.017142293499745647
% es.normE (V/m) @ t=0.9
3.698575029046728
% es.EX (V/m) @ t=0.9
1.1416146615313711
% es.EY (V/m) @ t=0.9
0.2765717839558317
% es.EZ (V/m) @ t=0.9
3.507064801791431
% es.tEX (V/m) @ t=0.9
1.141614661531392
% es.tEY (V/m) @ t=0.9
0
% es.tEZ (V/m) @ t=0.9
3.507064801791426
% es.Ex (V/m) @ t=0.9
1.1416146615313711
% es.Ey (V/m) @ t=0.9
0.2765717839558317
% es.Ez (V/m) @ t=0.9
3.507064801791431
% es.tEx (V/m) @ t=0.9
1.141614661531392
% es.tEy (V/m) @ t=0.9
0
% es.tEz (V/m) @ t=0.9
3.507064801791426
% V (V) @ t=0.9
0.017298333575216027
% es.normE (V/m) @ t=0.92
3.7319381748437346
% es.EX (V/m) @ t=0.92
1.1519126453981787
% es.EY (V/m) @ t=0.92
0.2790666110172597
% es.EZ (V/m) @ t=0.92
3.5387004209843553
% es.tEX (V/m) @ t=0.92
1.151912645398184
% es.tEY (V/m) @ t=0.92
0
% es.tEZ (V/m) @ t=0.92
3.5387004209843447
% es.Ex (V/m) @ t=0.92
1.1519126453981787
% es.Ey (V/m) @ t=0.92
0.2790666110172597
% es.Ez (V/m) @ t=0.92
3.5387004209843553
% es.tEx (V/m) @ t=0.92
1.151912645398184
% es.tEy (V/m) @ t=0.92
0
% es.tEz (V/m) @ t=0.92
3.5387004209843447
% V (V) @ t=0.92
0.01745437365068641
% es.normE (V/m) @ t=0.94
3.7653013206406936
% es.EX (V/m) @ t=0.94
1.1622106292649625
% es.EY (V/m) @ t=0.94
0.28156143807869394
% es.EZ (V/m) @ t=0.94
3.570336040177237
% es.tEX (V/m) @ t=0.94
1.162210629264976
% es.tEY (V/m) @ t=0.94
0
% es.tEZ (V/m) @ t=0.94
3.5703360401772457
% es.Ex (V/m) @ t=0.94
1.1622106292649625
% es.Ey (V/m) @ t=0.94
0.28156143807869394
% es.Ez (V/m) @ t=0.94
3.570336040177237
% es.tEx (V/m) @ t=0.94
1.162210629264976
% es.tEy (V/m) @ t=0.94
0
% es.tEz (V/m) @ t=0.94
3.5703360401772457
% V (V) @ t=0.94
0.01761041372615679
% es.normE (V/m) @ t=0.96
3.79866446643769
% es.EX (V/m) @ t=0.96
1.1725086131317735
% es.EY (V/m) @ t=0.96
0.28405626514013793
% es.EZ (V/m) @ t=0.96
3.6019716593701476
% es.tEX (V/m) @ t=0.96
1.1725086131317823
% es.tEY (V/m) @ t=0.96
0
% es.tEZ (V/m) @ t=0.96
3.601971659370161
% es.Ex (V/m) @ t=0.96
1.1725086131317735
% es.Ey (V/m) @ t=0.96
0.28405626514013793
% es.Ez (V/m) @ t=0.96
3.6019716593701476
% es.tEx (V/m) @ t=0.96
1.1725086131317823
% es.tEy (V/m) @ t=0.96
0
% es.tEz (V/m) @ t=0.96
3.601971659370161
% V (V) @ t=0.96
0.017766453801627172
% es.normE (V/m) @ t=0.98
3.8320276122346937
% es.EX (V/m) @ t=0.98
1.1828065969985773
% es.EY (V/m) @ t=0.98
0.2865510922015473
% es.EZ (V/m) @ t=0.98
3.6336072785630718
% es.tEX (V/m) @ t=0.98
1.1828065969985744
% es.tEY (V/m) @ t=0.98
0
% es.tEZ (V/m) @ t=0.98
3.6336072785630833
% es.Ex (V/m) @ t=0.98
1.1828065969985773
% es.Ey (V/m) @ t=0.98
0.2865510922015473
% es.Ez (V/m) @ t=0.98
3.6336072785630718
% es.tEx (V/m) @ t=0.98
1.1828065969985744
% es.tEy (V/m) @ t=0.98
0
% es.tEz (V/m) @ t=0.98
3.6336072785630833
% V (V) @ t=0.98
0.017922493877097552
% es.normE (V/m) @ t=1
3.8653907580317166
% es.EX (V/m) @ t=1
1.1931045808653746
% es.EY (V/m) @ t=1
0.28904591926296463
% es.EZ (V/m) @ t=1
3.665242897756017
% es.tEX (V/m) @ t=1
1.1931045808653806
% es.tEY (V/m) @ t=1
0
% es.tEZ (V/m) @ t=1
3.6652428977560128
% es.Ex (V/m) @ t=1
1.1931045808653746
% es.Ey (V/m) @ t=1
0.28904591926296463
% es.Ez (V/m) @ t=1
3.665242897756017
% es.tEx (V/m) @ t=1
1.1931045808653806
% es.tEy (V/m) @ t=1
0
% es.tEz (V/m) @ t=1
3.6652428977560128
% V (V) @ t=1
0.01807853395256794
% es.normE (V/m) @ t=1.02
3.898753903828701
% es.EX (V/m) @ t=1.02
1.2034025647321656
% es.EY (V/m) @ t=1.02
0.29154074632439864
% es.EZ (V/m) @ t=1.02
3.6968785169489227
% es.tEX (V/m) @ t=1.02
1.2034025647321727
% es.tEY (V/m) @ t=1.02
0
% es.tEZ (V/m) @ t=1.02
3.6968785169489173
% es.Ex (V/m) @ t=1.02
1.2034025647321656
% es.Ey (V/m) @ t=1.02
0.29154074632439864
% es.Ez (V/m) @ t=1.02
3.6968785169489227
% es.tEx (V/m) @ t=1.02
1.2034025647321727
% es.tEy (V/m) @ t=1.02
0
% es.tEz (V/m) @ t=1.02
3.6968785169489173
% V (V) @ t=1.02
0.018234574028038318
% es.normE (V/m) @ t=1.04
3.9335847327000653
% es.EX (V/m) @ t=1.04
1.214153567745152
% es.EY (V/m) @ t=1.04
0.2941453236501632
% es.EZ (V/m) @ t=1.04
3.729905823659635
% es.tEX (V/m) @ t=1.04
1.2141535677451571
% es.tEY (V/m) @ t=1.04
0
% es.tEZ (V/m) @ t=1.04
3.729905823659628
% es.Ex (V/m) @ t=1.04
1.214153567745152
% es.Ey (V/m) @ t=1.04
0.2941453236501632
% es.Ez (V/m) @ t=1.04
3.729905823659635
% es.tEx (V/m) @ t=1.04
1.2141535677451571
% es.tEy (V/m) @ t=1.04
0
% es.tEz (V/m) @ t=1.04