% Model:              1 neuron.mph
% Version:            COMSOL 6.1.0.252
% Date:               Mar 22 2023, 18:57
% Dimension:          0
% Nodes:              14017
% Expressions:        14017
% Description:        Electric field norm, Electric field, X component, Electric field, Y component, Electric field, Z component, Tangential electric field, X component, Tangential electric field, Y component, Tangential electric field, Z component, Electric field, x component, Electric field, y component, Electric field, z component, Tangential electric field, x component, Tangential electric field, y component, Tangential electric field, z component, Electric potential
% Length unit:        mm
% x
1.66
% y
12.2
% z
1
% es.normE (V/m) @ t=0
2.7203062600781402
% es.EX (V/m) @ t=0
-0.9696199609922123
% es.EY (V/m) @ t=0
0.30804351001147157
% es.EZ (V/m) @ t=0
2.5150834859028226
% es.tEX (V/m) @ t=0
-0.9696199609922265
% es.tEY (V/m) @ t=0
0
% es.tEZ (V/m) @ t=0
2.5150834859028226
% es.Ex (V/m) @ t=0
-0.9696199609922123
% es.Ey (V/m) @ t=0
0.30804351001147157
% es.Ez (V/m) @ t=0
2.5150834859028226
% es.tEx (V/m) @ t=0
-0.9696199609922265
% es.tEy (V/m) @ t=0
0
% es.tEz (V/m) @ t=0
2.5150834859028226
% V (V) @ t=0
0.01324460137122043
% es.normE (V/m) @ t=0.02
2.349563058087393
% es.EX (V/m) @ t=0.02
-0.8374730721138511
% es.EY (V/m) @ t=0.02
0.2660610908268015
% es.EZ (V/m) @ t=0.02
2.172309542207911
% es.tEX (V/m) @ t=0.02
-0.8374730721138689
% es.tEY (V/m) @ t=0.02
0
% es.tEZ (V/m) @ t=0.02
2.1723095422079055
% es.Ex (V/m) @ t=0.02
-0.8374730721138511
% es.Ey (V/m) @ t=0.02
0.2660610908268015
% es.Ez (V/m) @ t=0.02
2.172309542207911
% es.tEx (V/m) @ t=0.02
-0.8374730721138689
% es.tEy (V/m) @ t=0.02
0
% es.tEz (V/m) @ t=0.02
2.1723095422079055
% V (V) @ t=0.02
0.011439530373949854
% es.normE (V/m) @ t=0.04
2.371184322129821
% es.EX (V/m) @ t=0.04
-0.8451797077599036
% es.EY (V/m) @ t=0.04
0.26850945140882443
% es.EZ (V/m) @ t=0.04
2.1922996752788038
% es.tEX (V/m) @ t=0.04
-0.8451797077599107
% es.tEY (V/m) @ t=0.04
0
% es.tEZ (V/m) @ t=0.04
2.1922996752788055
% es.Ex (V/m) @ t=0.04
-0.8451797077599036
% es.Ey (V/m) @ t=0.04
0.26850945140882443
% es.Ez (V/m) @ t=0.04
2.1922996752788038
% es.tEx (V/m) @ t=0.04
-0.8451797077599107
% es.tEy (V/m) @ t=0.04
0
% es.tEz (V/m) @ t=0.04
2.1922996752788055
% V (V) @ t=0.04
0.011544799786041648
% es.normE (V/m) @ t=0.06
2.3929606265305186
% es.EX (V/m) @ t=0.06
-0.8529416056596414
% es.EY (V/m) @ t=0.06
0.2709753689670209
% es.EZ (V/m) @ t=0.06
2.2124331522889893
% es.tEX (V/m) @ t=0.06
-0.8529416056596556
% es.tEY (V/m) @ t=0.06
0
% es.tEZ (V/m) @ t=0.06
2.2124331522889875
% es.Ex (V/m) @ t=0.06
-0.8529416056596414
% es.Ey (V/m) @ t=0.06
0.2709753689670209
% es.Ez (V/m) @ t=0.06
2.2124331522889893
% es.tEx (V/m) @ t=0.06
-0.8529416056596556
% es.tEy (V/m) @ t=0.06
0
% es.tEz (V/m) @ t=0.06
2.2124331522889875
% V (V) @ t=0.06
0.011650824068867874
% es.normE (V/m) @ t=0.08
2.4151599884038184
% es.EX (V/m) @ t=0.08
-0.8608542972237033
% es.EY (V/m) @ t=0.08
0.27348919221715895
% es.EZ (V/m) @ t=0.08
2.2329577708830906
% es.tEX (V/m) @ t=0.08
-0.8608542972237175
% es.tEY (V/m) @ t=0.08
0
% es.tEZ (V/m) @ t=0.08
2.232957770883095
% es.Ex (V/m) @ t=0.08
-0.8608542972237033
% es.Ey (V/m) @ t=0.08
0.27348919221715895
% es.Ez (V/m) @ t=0.08
2.2329577708830906
% es.tEx (V/m) @ t=0.08
-0.8608542972237175
% es.tEy (V/m) @ t=0.08
0
% es.tEz (V/m) @ t=0.08
2.232957770883095
% V (V) @ t=0.08
0.011758908109242353
% es.normE (V/m) @ t=0.1
2.4374643770393436
% es.EX (V/m) @ t=0.1
-0.8688044242932167
% es.EY (V/m) @ t=0.1
0.27601490836614495
% es.EZ (V/m) @ t=0.1
2.253579492912997
% es.tEX (V/m) @ t=0.1
-0.8688044242932345
% es.tEY (V/m) @ t=0.1
0
% es.tEZ (V/m) @ t=0.1
2.2535794929129924
% es.Ex (V/m) @ t=0.1
-0.8688044242932167
% es.Ey (V/m) @ t=0.1
0.27601490836614495
% es.Ez (V/m) @ t=0.1
2.253579492912997
% es.tEx (V/m) @ t=0.1
-0.8688044242932345
% es.tEy (V/m) @ t=0.1
0
% es.tEz (V/m) @ t=0.1
2.2535794929129924
% V (V) @ t=0.1
0.011867503497791164
% es.normE (V/m) @ t=0.12
2.4597687656748644
% es.EX (V/m) @ t=0.12
-0.8767545513627337
% es.EY (V/m) @ t=0.12
0.27854062451514694
% es.EZ (V/m) @ t=0.12
2.2742012149428934
% es.tEX (V/m) @ t=0.12
-0.8767545513627515
% es.tEY (V/m) @ t=0.12
0
% es.tEZ (V/m) @ t=0.12
2.274201214942895
% es.Ex (V/m) @ t=0.12
-0.8767545513627337
% es.Ey (V/m) @ t=0.12
0.27854062451514694
% es.Ez (V/m) @ t=0.12
2.2742012149428934
% es.tEx (V/m) @ t=0.12
-0.8767545513627515
% es.tEy (V/m) @ t=0.12
0
% es.tEz (V/m) @ t=0.12
2.274201214942895
% V (V) @ t=0.12
0.011976098886339975
% es.normE (V/m) @ t=0.14
2.4827506102203385
% es.EX (V/m) @ t=0.14
-0.884946149321939
% es.EY (V/m) @ t=0.14
0.2811430546610665
% es.EZ (V/m) @ t=0.14
2.295449284895769
% es.tEX (V/m) @ t=0.14
-0.8849461493219462
% es.tEY (V/m) @ t=0.14
0
% es.tEZ (V/m) @ t=0.14
2.2954492848957706
% es.Ex (V/m) @ t=0.14
-0.884946149321939
% es.Ey (V/m) @ t=0.14
0.2811430546610665
% es.Ez (V/m) @ t=0.14
2.295449284895769
% es.tEx (V/m) @ t=0.14
-0.8849461493219462
% es.tEy (V/m) @ t=0.14
0
% es.tEz (V/m) @ t=0.14
2.2954492848957706
% V (V) @ t=0.14
0.012087992662106434
% es.normE (V/m) @ t=0.16
2.506168374054665
% es.EX (V/m) @ t=0.16
-0.8932931253905565
% es.EY (V/m) @ t=0.16
0.28379484759282336
% es.EZ (V/m) @ t=0.16
2.3171003879274794
% es.tEX (V/m) @ t=0.16
-0.8932931253905707
% es.tEY (V/m) @ t=0.16
0
% es.tEZ (V/m) @ t=0.16
2.317100387927484
% es.Ex (V/m) @ t=0.16
-0.8932931253905565
% es.Ey (V/m) @ t=0.16
0.28379484759282336
% es.Ez (V/m) @ t=0.16
2.3171003879274794
% es.tEx (V/m) @ t=0.16
-0.8932931253905707
% es.tEy (V/m) @ t=0.16
0
% es.tEz (V/m) @ t=0.16
2.317100387927484
% V (V) @ t=0.16
0.012202008835196747
% es.normE (V/m) @ t=0.18
2.5295861378890065
% es.EX (V/m) @ t=0.18
-0.901640101459185
% es.EY (V/m) @ t=0.18
0.28644664052460556
% es.EZ (V/m) @ t=0.18
2.338751490959199
% es.tEX (V/m) @ t=0.18
-0.9016401014592028
% es.tEY (V/m) @ t=0.18
0
% es.tEZ (V/m) @ t=0.18
2.3387514909591935
% es.Ex (V/m) @ t=0.18
-0.901640101459185
% es.Ey (V/m) @ t=0.18
0.28644664052460556
% es.Ez (V/m) @ t=0.18
2.338751490959199
% es.tEx (V/m) @ t=0.18
-0.9016401014592028
% es.tEy (V/m) @ t=0.18
0
% es.tEz (V/m) @ t=0.18
2.3387514909591935
% V (V) @ t=0.18
0.01231602500828706
% es.normE (V/m) @ t=0.2
2.5530039017233332
% es.EX (V/m) @ t=0.2
-0.9099870775278132
% es.EY (V/m) @ t=0.2
0.2890984334563693
% es.EZ (V/m) @ t=0.2
2.360402593990904
% es.tEX (V/m) @ t=0.2
-0.9099870775278203
% es.tEY (V/m) @ t=0.2
0
% es.tEZ (V/m) @ t=0.2
2.3604025939909086
% es.Ex (V/m) @ t=0.2
-0.9099870775278132
% es.Ey (V/m) @ t=0.2
0.2890984334563693
% es.Ez (V/m) @ t=0.2
2.360402593990904
% es.tEx (V/m) @ t=0.2
-0.9099870775278203
% es.tEy (V/m) @ t=0.2
0
% es.tEz (V/m) @ t=0.2
2.3604025939909086
% V (V) @ t=0.2
0.012430041181377373
% es.normE (V/m) @ t=0.22
2.5764216655576506
% es.EX (V/m) @ t=0.22
-0.91833405359642
% es.EY (V/m) @ t=0.22
0.2917502263881451
% es.EZ (V/m) @ t=0.22
2.382053697022605
% es.tEX (V/m) @ t=0.22
-0.9183340535964377
% es.tEY (V/m) @ t=0.22
0
% es.tEZ (V/m) @ t=0.22
2.3820536970226023
% es.Ex (V/m) @ t=0.22
-0.91833405359642
% es.Ey (V/m) @ t=0.22
0.2917502263881451
% es.Ez (V/m) @ t=0.22
2.382053697022605
% es.tEx (V/m) @ t=0.22
-0.9183340535964377
% es.tEy (V/m) @ t=0.22
0
% es.tEz (V/m) @ t=0.22
2.3820536970226023
% V (V) @ t=0.22
0.012544057354467685
% es.normE (V/m) @ t=0.24
2.5998394293919924
% es.EX (V/m) @ t=0.24
-0.9266810296650412
% es.EY (V/m) @ t=0.24
0.2944020193199002
% es.EZ (V/m) @ t=0.24
2.4037048000543297
% es.tEX (V/m) @ t=0.24
-0.9266810296650554
% es.tEY (V/m) @ t=0.24
0
% es.tEZ (V/m) @ t=0.24
2.403704800054326
% es.Ex (V/m) @ t=0.24
-0.9266810296650412
% es.Ey (V/m) @ t=0.24
0.2944020193199002
% es.Ez (V/m) @ t=0.24
2.4037048000543297
% es.tEx (V/m) @ t=0.24
-0.9266810296650554
% es.tEy (V/m) @ t=0.24
0
% es.tEz (V/m) @ t=0.24
2.403704800054326
% V (V) @ t=0.24
0.012658073527558
% es.normE (V/m) @ t=0.26
2.6238117251067705
% es.EX (V/m) @ t=0.26
-0.9352256618289896
% es.EY (V/m) @ t=0.26
0.2971166158036773
% es.EZ (V/m) @ t=0.26
2.425868600383205
% es.tEX (V/m) @ t=0.26
-0.9352256618290002
% es.tEY (V/m) @ t=0.26
0
% es.tEZ (V/m) @ t=0.26
2.4258686003832093
% es.Ex (V/m) @ t=0.26
-0.9352256618289896
% es.Ey (V/m) @ t=0.26
0.2971166158036773
% es.Ez (V/m) @ t=0.26
2.425868600383205
% es.tEx (V/m) @ t=0.26
-0.9352256618290002
% es.tEy (V/m) @ t=0.26
0
% es.tEz (V/m) @ t=0.26
2.4258686003832093
% V (V) @ t=0.26
0.01277478987633683
% es.normE (V/m) @ t=0.28
2.649714211915733
% es.EX (V/m) @ t=0.28
-0.9444582869620366
% es.EY (V/m) @ t=0.28
0.30004981623252713
% es.EZ (V/m) @ t=0.28
2.449816975759796
% es.tEX (V/m) @ t=0.28
-0.9444582869620544
% es.tEY (V/m) @ t=0.28
0
% es.tEZ (V/m) @ t=0.28
2.4498169757597914
% es.Ex (V/m) @ t=0.28
-0.9444582869620366
% es.Ey (V/m) @ t=0.28
0.30004981623252713
% es.Ez (V/m) @ t=0.28
2.449816975759796
% es.tEx (V/m) @ t=0.28
-0.9444582869620544
% es.tEy (V/m) @ t=0.28
0
% es.tEz (V/m) @ t=0.28
2.4498169757597914
% V (V) @ t=0.28
0.012900904882344168
% es.normE (V/m) @ t=0.3
2.675616698724686
% es.EX (V/m) @ t=0.3
-0.9536909120951014
% es.EY (V/m) @ t=0.3
0.3029830166613956
% es.EZ (V/m) @ t=0.3
2.4737653511363638
% es.tEX (V/m) @ t=0.3
-0.9536909120951156
% es.tEY (V/m) @ t=0.3
0
% es.tEZ (V/m) @ t=0.3
2.473765351136361
% es.Ex (V/m) @ t=0.3
-0.9536909120951014
% es.Ey (V/m) @ t=0.3
0.3029830166613956
% es.Ez (V/m) @ t=0.3
2.4737653511363638
% es.tEx (V/m) @ t=0.3
-0.9536909120951156
% es.tEy (V/m) @ t=0.3
0
% es.tEz (V/m) @ t=0.3
2.473765351136361
% V (V) @ t=0.3
0.013027019888351503
% es.normE (V/m) @ t=0.32
2.7015191855336487
% es.EX (V/m) @ t=0.32
-0.9629235372281735
% es.EY (V/m) @ t=0.32
0.30591621709025874
% es.EZ (V/m) @ t=0.32
2.4977137265129405
% es.tEX (V/m) @ t=0.32
-0.9629235372281912
% es.tEY (V/m) @ t=0.32
0
% es.tEZ (V/m) @ t=0.32
2.4977137265129414
% es.Ex (V/m) @ t=0.32
-0.9629235372281735
% es.Ey (V/m) @ t=0.32
0.30591621709025874
% es.Ez (V/m) @ t=0.32
2.4977137265129405
% es.tEx (V/m) @ t=0.32
-0.9629235372281912
% es.tEy (V/m) @ t=0.32
0
% es.tEz (V/m) @ t=0.32
2.4977137265129414
% V (V) @ t=0.32
0.01315313489435884
% es.normE (V/m) @ t=0.34
2.7274216723426052
% es.EX (V/m) @ t=0.34
-0.9721561623612311
% es.EY (V/m) @ t=0.34
0.3088494175191254
% es.EZ (V/m) @ t=0.34
2.521662101889512
% es.tEX (V/m) @ t=0.34
-0.9721561623612383
% es.tEY (V/m) @ t=0.34
0
% es.tEZ (V/m) @ t=0.34
2.521662101889513
% es.Ex (V/m) @ t=0.34
-0.9721561623612311
% es.Ey (V/m) @ t=0.34
0.3088494175191254
% es.Ez (V/m) @ t=0.34
2.521662101889512
% es.tEx (V/m) @ t=0.34
-0.9721561623612383
% es.tEy (V/m) @ t=0.34
0
% es.tEz (V/m) @ t=0.34
2.521662101889513
% V (V) @ t=0.34
0.013279249900366176
% es.normE (V/m) @ t=0.36
2.753324159151574
% es.EX (V/m) @ t=0.36
-0.9813887874942924
% es.EY (V/m) @ t=0.36
0.3117826179479779
% es.EZ (V/m) @ t=0.36
2.545610477266097
% es.tEX (V/m) @ t=0.36
-0.9813887874943066
% es.tEY (V/m) @ t=0.36
0
% es.tEZ (V/m) @ t=0.36
2.5456104772660986
% es.Ex (V/m) @ t=0.36
-0.9813887874942924
% es.Ey (V/m) @ t=0.36
0.3117826179479779
% es.Ez (V/m) @ t=0.36
2.545610477266097
% es.tEx (V/m) @ t=0.36
-0.9813887874943066
% es.tEy (V/m) @ t=0.36
0
% es.tEz (V/m) @ t=0.36
2.5456104772660986
% V (V) @ t=0.36
0.013405364906373516
% es.normE (V/m) @ t=0.38
2.779226645960538
% es.EX (V/m) @ t=0.38
-0.9906214126273607
% es.EY (V/m) @ t=0.38
0.3147158183768499
% es.EZ (V/m) @ t=0.38
2.56955885264267
% es.tEX (V/m) @ t=0.38
-0.9906214126273749
% es.tEY (V/m) @ t=0.38
0
% es.tEZ (V/m) @ t=0.38
2.569558852642679
% es.Ex (V/m) @ t=0.38
-0.9906214126273607
% es.Ey (V/m) @ t=0.38
0.3147158183768499
% es.Ez (V/m) @ t=0.38
2.56955885264267
% es.tEx (V/m) @ t=0.38
-0.9906214126273749
% es.tEy (V/m) @ t=0.38
0
% es.tEz (V/m) @ t=0.38
2.569558852642679
% V (V) @ t=0.38
0.013531479912380852
% es.normE (V/m) @ t=0.4
2.8051291327694994
% es.EX (V/m) @ t=0.4
-0.9998540377604148
% es.EY (V/m) @ t=0.4
0.3176490188057255
% es.EZ (V/m) @ t=0.4
2.5935072280192424
% es.tEX (V/m) @ t=0.4
-0.999854037760429
% es.tEY (V/m) @ t=0.4
0
% es.tEZ (V/m) @ t=0.4
2.593507228019247
% es.Ex (V/m) @ t=0.4
-0.9998540377604148
% es.Ey (V/m) @ t=0.4
0.3176490188057255
% es.Ez (V/m) @ t=0.4
2.5935072280192424
% es.tEx (V/m) @ t=0.4
-0.999854037760429
% es.tEy (V/m) @ t=0.4
0
% es.tEz (V/m) @ t=0.4
2.593507228019247
% V (V) @ t=0.4
0.013657594918388189
% es.normE (V/m) @ t=0.42
2.831031619578477
% es.EX (V/m) @ t=0.42
-1.0090866628934834
% es.EY (V/m) @ t=0.42
0.3205822192345791
% es.EZ (V/m) @ t=0.42
2.617455603395828
% es.tEX (V/m) @ t=0.42
-1.0090866628934905
% es.tEY (V/m) @ t=0.42
0
% es.tEZ (V/m) @ t=0.42
2.617455603395829
% es.Ex (V/m) @ t=0.42
-1.0090866628934834
% es.Ey (V/m) @ t=0.42
0.3205822192345791
% es.Ez (V/m) @ t=0.42
2.617455603395828
% es.tEx (V/m) @ t=0.42
-1.0090866628934905
% es.tEy (V/m) @ t=0.42
0
% es.tEz (V/m) @ t=0.42
2.617455603395829
% V (V) @ t=0.42
0.013783709924395525
% es.normE (V/m) @ t=0.44
2.856934106387439
% es.EX (V/m) @ t=0.44
-1.0183192880265375
% es.EY (V/m) @ t=0.44
0.32351541966343134
% es.EZ (V/m) @ t=0.44
2.641403978772402
% es.tEX (V/m) @ t=0.44
-1.0183192880265517
% es.tEY (V/m) @ t=0.44
0
% es.tEZ (V/m) @ t=0.44
2.641403978772402
% es.Ex (V/m) @ t=0.44
-1.0183192880265375
% es.Ey (V/m) @ t=0.44
0.32351541966343134
% es.Ez (V/m) @ t=0.44
2.641403978772402
% es.tEx (V/m) @ t=0.44
-1.0183192880265517
% es.tEy (V/m) @ t=0.44
0
% es.tEz (V/m) @ t=0.44
2.641403978772402
% V (V) @ t=0.44
0.013909824930402862
% es.normE (V/m) @ t=0.46
2.8828365931964126
% es.EX (V/m) @ t=0.46
-1.0275519131595916
% es.EY (V/m) @ t=0.46
0.3264486200923078
% es.EZ (V/m) @ t=0.46
2.6653523541489816
% es.tEX (V/m) @ t=0.46
-1.02755191315962
% es.tEY (V/m) @ t=0.46
0
% es.tEZ (V/m) @ t=0.46
2.6653523541489808
% es.Ex (V/m) @ t=0.46
-1.0275519131595916
% es.Ey (V/m) @ t=0.46
0.3264486200923078
% es.Ez (V/m) @ t=0.46
2.6653523541489816
% es.tEx (V/m) @ t=0.46
-1.02755191315962
% es.tEy (V/m) @ t=0.46
0
% es.tEz (V/m) @ t=0.46
2.6653523541489808
% V (V) @ t=0.46
0.014035939936410197
% es.normE (V/m) @ t=0.48
2.9087390800053887
% es.EX (V/m) @ t=0.48
-1.0367845382926635
% es.EY (V/m) @ t=0.48
0.32938182052117004
% es.EZ (V/m) @ t=0.48
2.68930072952556
% es.tEX (V/m) @ t=0.48
-1.0367845382926884
% es.tEY (V/m) @ t=0.48
0
% es.tEZ (V/m) @ t=0.48
2.689300729525561
% es.Ex (V/m) @ t=0.48
-1.0367845382926635
% es.Ey (V/m) @ t=0.48
0.32938182052117004
% es.Ez (V/m) @ t=0.48
2.68930072952556
% es.tEx (V/m) @ t=0.48
-1.0367845382926884
% es.tEy (V/m) @ t=0.48
0
% es.tEz (V/m) @ t=0.48
2.689300729525561
% V (V) @ t=0.48
0.014162054942417535
% es.normE (V/m) @ t=0.5
2.934641566814359
% es.EX (V/m) @ t=0.5
-1.046017163425714
% es.EY (V/m) @ t=0.5
0.33231502095004095
% es.EZ (V/m) @ t=0.5
2.7132491049021352
% es.tEX (V/m) @ t=0.5
-1.0460171634257283
% es.tEY (V/m) @ t=0.5
0
% es.tEZ (V/m) @ t=0.5
2.713249104902138
% es.Ex (V/m) @ t=0.5
-1.046017163425714
% es.Ey (V/m) @ t=0.5
0.33231502095004095
% es.Ez (V/m) @ t=0.5
2.7132491049021352
% es.tEx (V/m) @ t=0.5
-1.0460171634257283
% es.tEy (V/m) @ t=0.5
0
% es.tEz (V/m) @ t=0.5
2.713249104902138
% V (V) @ t=0.5
0.014288169948424873
% es.normE (V/m) @ t=0.52
2.961808228068263
% es.EX (V/m) @ t=0.52
-1.0557003881251752
% es.EY (V/m) @ t=0.52
0.33539135963094235
% es.EZ (V/m) @ t=0.52
2.738366284269416
% es.tEX (V/m) @ t=0.52
-1.0557003881251894
% es.tEY (V/m) @ t=0.52
0
% es.tEZ (V/m) @ t=0.52
2.738366284269416
% es.Ex (V/m) @ t=0.52
-1.0557003881251752
% es.Ey (V/m) @ t=0.52
0.33539135963094235
% es.Ez (V/m) @ t=0.52
2.738366284269416
% es.tEx (V/m) @ t=0.52
-1.0557003881251894
% es.tEy (V/m) @ t=0.52
0
% es.tEz (V/m) @ t=0.52
2.738366284269416
% V (V) @ t=0.52
0.014420439510054978
% es.normE (V/m) @ t=0.54
2.9905039228909684
% es.EX (V/m) @ t=0.54
-1.0659286181962189
% es.EY (V/m) @ t=0.54
0.33864082567825804
% es.EZ (V/m) @ t=0.54
2.7648971455413607
% es.tEX (V/m) @ t=0.54
-1.0659286181962366
% es.tEY (V/m) @ t=0.54
0
% es.tEZ (V/m) @ t=0.54
2.7648971455413616
% es.Ex (V/m) @ t=0.54
-1.0659286181962189
% es.Ey (V/m) @ t=0.54
0.33864082567825804
% es.Ez (V/m) @ t=0.54
2.7648971455413607
% es.tEx (V/m) @ t=0.54
-1.0659286181962366
% es.tEy (V/m) @ t=0.54
0
% es.tEz (V/m) @ t=0.54
2.7648971455413616
% V (V) @ t=0.54
0.014560153077681208
% es.normE (V/m) @ t=0.56
3.0191996177136717
% es.EX (V/m) @ t=0.56
-1.0761568482672272
% es.EY (V/m) @ t=0.56
0.3418902917255915
% es.EZ (V/m) @ t=0.56
2.791428006813314
% es.tEX (V/m) @ t=0.56
-1.0761568482672557
% es.tEY (V/m) @ t=0.56
0
% es.tEZ (V/m) @ t=0.56
2.791428006813309
% es.Ex (V/m) @ t=0.56
-1.0761568482672272
% es.Ey (V/m) @ t=0.56
0.3418902917255915
% es.Ez (V/m) @ t=0.56
2.791428006813314
% es.tEx (V/m) @ t=0.56
-1.0761568482672557
% es.tEy (V/m) @ t=0.56
0
% es.tEz (V/m) @ t=0.56
2.791428006813309
% V (V) @ t=0.56
0.014699866645307438
% es.normE (V/m) @ t=0.58
3.0478953125363786
% es.EX (V/m) @ t=0.58
-1.0863850783382885
% es.EY (V/m) @ t=0.58
0.3451397577729032
% es.EZ (V/m) @ t=0.58
2.8179588680852543
% es.tEX (V/m) @ t=0.58
-1.0863850783383027
% es.tEY (V/m) @ t=0.58
0
% es.tEZ (V/m) @ t=0.58
2.8179588680852596
% es.Ex (V/m) @ t=0.58
-1.0863850783382885
% es.Ey (V/m) @ t=0.58
0.3451397577729032
% es.Ez (V/m) @ t=0.58
2.8179588680852543
% es.tEx (V/m) @ t=0.58
-1.0863850783383027
% es.tEy (V/m) @ t=0.58
0
% es.tEz (V/m) @ t=0.58
2.8179588680852596
% V (V) @ t=0.58
0.014839580212933667
% es.normE (V/m) @ t=0.6
3.076591007359079
% es.EX (V/m) @ t=0.6
-1.0966133084093146
% es.EY (V/m) @ t=0.6
0.34838922382022597
% es.EZ (V/m) @ t=0.6
2.8444897293572
% es.tEX (V/m) @ t=0.6
-1.0966133084093217
% es.tEY (V/m) @ t=0.6
0
% es.tEZ (V/m) @ t=0.6
2.844489729357198
% es.Ex (V/m) @ t=0.6
-1.0966133084093146
% es.Ey (V/m) @ t=0.6
0.34838922382022597
% es.Ez (V/m) @ t=0.6
2.8444897293572
% es.tEx (V/m) @ t=0.6
-1.0966133084093217
% es.tEy (V/m) @ t=0.6
0
% es.tEz (V/m) @ t=0.6
2.844489729357198
% V (V) @ t=0.6
0.014979293780559896
% es.normE (V/m) @ t=0.62
3.1052867021817807
% es.EX (V/m) @ t=0.62
-1.106841538480362
% es.EY (V/m) @ t=0.62
0.35163868986754165
% es.EZ (V/m) @ t=0.62
2.87102059062914
% es.tEX (V/m) @ t=0.62
-1.1068415384803834
% es.tEY (V/m) @ t=0.62
0
% es.tEZ (V/m) @ t=0.62
2.8710205906291364
% es.Ex (V/m) @ t=0.62
-1.106841538480362
% es.Ey (V/m) @ t=0.62
0.35163868986754165
% es.Ez (V/m) @ t=0.62
2.87102059062914
% es.tEx (V/m) @ t=0.62
-1.1068415384803834
% es.tEy (V/m) @ t=0.62
0
% es.tEz (V/m) @ t=0.62
2.8710205906291364
% V (V) @ t=0.62
0.015119007348186128
% es.normE (V/m) @ t=0.64
3.133982397004484
% es.EX (V/m) @ t=0.64
-1.1170697685514162
% es.EY (V/m) @ t=0.64
0.3548881559148711
% es.EZ (V/m) @ t=0.64
2.8975514519010783
% es.tEX (V/m) @ t=0.64
-1.1170697685514304
% es.tEY (V/m) @ t=0.64
0
% es.tEZ (V/m) @ t=0.64
2.89755145190108
% es.Ex (V/m) @ t=0.64
-1.1170697685514162
% es.Ey (V/m) @ t=0.64
0.3548881559148711
% es.Ez (V/m) @ t=0.64
2.8975514519010783
% es.tEx (V/m) @ t=0.64
-1.1170697685514304
% es.tEy (V/m) @ t=0.64
0
% es.tEz (V/m) @ t=0.64
2.89755145190108
% V (V) @ t=0.64
0.015258720915812356
% es.normE (V/m) @ t=0.66
3.1626780918272006
% es.EX (V/m) @ t=0.66
-1.1272979986224423
% es.EY (V/m) @ t=0.66
0.3581376219621939
% es.EZ (V/m) @ t=0.66
2.924082313173039
% es.tEX (V/m) @ t=0.66
-1.1272979986224636
% es.tEY (V/m) @ t=0.66
0
% es.tEZ (V/m) @ t=0.66
2.9240823131730345
% es.Ex (V/m) @ t=0.66
-1.1272979986224423
% es.Ey (V/m) @ t=0.66
0.3581376219621939
% es.Ez (V/m) @ t=0.66
2.924082313173039
% es.tEx (V/m) @ t=0.66
-1.1272979986224636
% es.tEy (V/m) @ t=0.66
0
% es.tEz (V/m) @ t=0.66
2.9240823131730345
% V (V) @ t=0.66
0.015398434483438585
% es.normE (V/m) @ t=0.68
3.1913737866498972
% es.EX (V/m) @ t=0.68
-1.1375262286934684
% es.EY (V/m) @ t=0.68
0.36138708800951247
% es.EZ (V/m) @ t=0.68
2.9506131744449817
% es.tEX (V/m) @ t=0.68
-1.1375262286934826
% es.tEY (V/m) @ t=0.68
0
% es.tEZ (V/m) @ t=0.68
2.9506131744449817
% es.Ex (V/m) @ t=0.68
-1.1375262286934684
% es.Ey (V/m) @ t=0.68
0.36138708800951247
% es.Ez (V/m) @ t=0.68
2.9506131744449817
% es.tEx (V/m) @ t=0.68
-1.1375262286934826
% es.tEy (V/m) @ t=0.68
0
% es.tEz (V/m) @ t=0.68
2.9506131744449817
% V (V) @ t=0.68
0.015538148051064817
% es.normE (V/m) @ t=0.7
3.2200694814726063
% es.EX (V/m) @ t=0.7
-1.1477544587645159
% es.EY (V/m) @ t=0.7
0.36463655405682904
% es.EZ (V/m) @ t=0.7
2.977144035716928
% es.tEX (V/m) @ t=0.7
-1.14775445876453
% es.tEY (V/m) @ t=0.7
0
% es.tEZ (V/m) @ t=0.7
2.9771440357169308
% es.Ex (V/m) @ t=0.7
-1.1477544587645159
% es.Ey (V/m) @ t=0.7
0.36463655405682904
% es.Ez (V/m) @ t=0.7
2.977144035716928
% es.tEx (V/m) @ t=0.7
-1.14775445876453
% es.tEy (V/m) @ t=0.7
0
% es.tEz (V/m) @ t=0.7
2.9771440357169308
% V (V) @ t=0.7
0.015677861618691048
% es.normE (V/m) @ t=0.72
3.248765176295299
% es.EX (V/m) @ t=0.72
-1.157982688835556
% es.EY (V/m) @ t=0.72
0.36788602010414695
% es.EZ (V/m) @ t=0.72
3.003674896988863
% es.tEX (V/m) @ t=0.72
-1.1579826888355773
% es.tEY (V/m) @ t=0.72
0
% es.tEZ (V/m) @ t=0.72
3.003674896988871
% es.Ex (V/m) @ t=0.72
-1.157982688835556
% es.Ey (V/m) @ t=0.72
0.36788602010414695
% es.Ez (V/m) @ t=0.72
3.003674896988863
% es.tEx (V/m) @ t=0.72
-1.1579826888355773
% es.tEy (V/m) @ t=0.72
0
% es.tEz (V/m) @ t=0.72
3.003674896988871
% V (V) @ t=0.72
0.015817575186317274
% es.normE (V/m) @ t=0.74
3.2774608711180115
% es.EX (V/m) @ t=0.74
-1.168210918906582
% es.EY (V/m) @ t=0.74
0.37113548615149106
% es.EZ (V/m) @ t=0.74
3.0302057582608173
% es.tEX (V/m) @ t=0.74
-1.1682109189065961
% es.tEY (V/m) @ t=0.74
0
% es.tEZ (V/m) @ t=0.74
3.030205758260818
% es.Ex (V/m) @ t=0.74
-1.168210918906582
% es.Ey (V/m) @ t=0.74
0.37113548615149106
% es.Ez (V/m) @ t=0.74
3.0302057582608173
% es.tEx (V/m) @ t=0.74
-1.1682109189065961
% es.tEy (V/m) @ t=0.74
0
% es.tEz (V/m) @ t=0.74
3.030205758260818
% V (V) @ t=0.74
0.015957288753943505
% es.normE (V/m) @ t=0.76
3.3061565659407126
% es.EX (V/m) @ t=0.76
-1.1784391489776294
% es.EY (V/m) @ t=0.76
0.3743849521987961
% es.EZ (V/m) @ t=0.76
3.0567366195327574
% es.tEX (V/m) @ t=0.76
-1.1784391489776436
% es.tEY (V/m) @ t=0.76
0
% es.tEZ (V/m) @ t=0.76
3.0567366195327548
% es.Ex (V/m) @ t=0.76
-1.1784391489776294
% es.Ey (V/m) @ t=0.76
0.3743849521987961
% es.Ez (V/m) @ t=0.76
3.0567366195327574
% es.tEx (V/m) @ t=0.76
-1.1784391489776436
% es.tEy (V/m) @ t=0.76
0
% es.tEz (V/m) @ t=0.76
3.0567366195327548
% V (V) @ t=0.76
0.016097002321569735
% es.normE (V/m) @ t=0.78
3.3369971836097294
% es.EX (V/m) @ t=0.78
-1.1894319106776392
% es.EY (V/m) @ t=0.78
0.3778773019563926
% es.EZ (V/m) @ t=0.78
3.0852505884303225
% es.tEX (V/m) @ t=0.78
-1.1894319106776534
% es.tEY (V/m) @ t=0.78
0
% es.tEZ (V/m) @ t=0.78
3.085250588430327
% es.Ex (V/m) @ t=0.78
-1.1894319106776392
% es.Ey (V/m) @ t=0.78
0.3778773019563926
% es.Ez (V/m) @ t=0.78
3.0852505884303225
% es.tEx (V/m) @ t=0.78
-1.1894319106776534
% es.tEy (V/m) @ t=0.78
0
% es.tEz (V/m) @ t=0.78
3.085250588430327
% V (V) @ t=0.78
0.016247158926820743
% es.normE (V/m) @ t=0.8
3.3688379224339404
% es.EX (V/m) @ t=0.8
-1.2007811533845
% es.EY (V/m) @ t=0.8
0.3814829020052033
% es.EZ (V/m) @ t=0.8
3.1146892282981424
% es.tEX (V/m) @ t=0.8
-1.2007811533845285
% es.tEY (V/m) @ t=0.8
0
% es.tEZ (V/m) @ t=0.8
3.1146892282981415
% es.Ex (V/m) @ t=0.8
-1.2007811533845
% es.Ey (V/m) @ t=0.8
0.3814829020052033
% es.Ez (V/m) @ t=0.8
3.1146892282981424
% es.tEx (V/m) @ t=0.8
-1.2007811533845285
% es.tEy (V/m) @ t=0.8
0
% es.tEz (V/m) @ t=0.8
3.1146892282981415
% V (V) @ t=0.8
0.016402184846075824
% es.normE (V/m) @ t=0.82
3.400678661258162
% es.EX (V/m) @ t=0.82
-1.2121303960914034
% es.EY (V/m) @ t=0.82
0.38508850205398026
% es.EZ (V/m) @ t=0.82
3.144127868165964
% es.tEX (V/m) @ t=0.82
-1.2121303960914176
% es.tEY (V/m) @ t=0.82
0
% es.tEZ (V/m) @ t=0.82
3.1441278681659597
% es.Ex (V/m) @ t=0.82
-1.2121303960914034
% es.Ey (V/m) @ t=0.82
0.38508850205398026
% es.Ez (V/m) @ t=0.82
3.144127868165964
% es.tEx (V/m) @ t=0.82
-1.2121303960914176
% es.tEy (V/m) @ t=0.82
0
% es.tEz (V/m) @ t=0.82
3.1441278681659597
% V (V) @ t=0.82
0.0165572107653309
% es.normE (V/m) @ t=0.84
3.4325194000823758
% es.EX (V/m) @ t=0.84
-1.223479638798278
% es.EY (V/m) @ t=0.84
0.38869410210279143
% es.EZ (V/m) @ t=0.84
3.1735665080337823
% es.tEX (V/m) @ t=0.84
-1.2234796387982922
% es.tEY (V/m) @ t=0.84
0
% es.tEZ (V/m) @ t=0.84
3.173566508033785
% es.Ex (V/m) @ t=0.84
-1.223479638798278
% es.Ey (V/m) @ t=0.84
0.38869410210279143
% es.Ez (V/m) @ t=0.84
3.1735665080337823
% es.tEx (V/m) @ t=0.84
-1.2234796387982922
% es.tEy (V/m) @ t=0.84
0
% es.tEz (V/m) @ t=0.84
3.173566508033785
% V (V) @ t=0.84
0.016712236684585973
% es.normE (V/m) @ t=0.86
3.4643601389065983
% es.EX (V/m) @ t=0.86
-1.234828881505181
% es.EY (V/m) @ t=0.86
0.39229970215156085
% es.EZ (V/m) @ t=0.86
3.2030051479016057
% es.tEX (V/m) @ t=0.86
-1.2348288815052095
% es.tEY (V/m) @ t=0.86
0
% es.tEZ (V/m) @ t=0.86
3.2030051479015995
% es.Ex (V/m) @ t=0.86
-1.234828881505181
% es.Ey (V/m) @ t=0.86
0.39229970215156085
% es.Ez (V/m) @ t=0.86
3.2030051479016057
% es.tEx (V/m) @ t=0.86
-1.2348288815052095
% es.tEy (V/m) @ t=0.86
0
% es.tEz (V/m) @ t=0.86
3.2030051479015995
% V (V) @ t=0.86
0.016867262603841054
% es.normE (V/m) @ t=0.88
3.496200877730817
% es.EX (V/m) @ t=0.88
-1.246178124212056
% es.EY (V/m) @ t=0.88
0.3959053022003556
% es.EZ (V/m) @ t=0.88
3.2324437877694328
% es.tEX (V/m) @ t=0.88
-1.2461781242120702
% es.tEY (V/m) @ t=0.88
0
% es.tEZ (V/m) @ t=0.88
3.2324437877694283
% es.Ex (V/m) @ t=0.88
-1.246178124212056
% es.Ey (V/m) @ t=0.88
0.3959053022003556
% es.Ez (V/m) @ t=0.88
3.2324437877694328
% es.tEx (V/m) @ t=0.88
-1.2461781242120702
% es.tEy (V/m) @ t=0.88
0
% es.tEz (V/m) @ t=0.88
3.2324437877694283
% V (V) @ t=0.88
0.017022288523096132
% es.normE (V/m) @ t=0.9
3.528041616555031
% es.EX (V/m) @ t=0.9
-1.2575273669189309
% es.EY (V/m) @ t=0.9
0.3995109022491663
% es.EZ (V/m) @ t=0.9
3.261882427637251
% es.tEX (V/m) @ t=0.9
-1.257527366918945
% es.tEY (V/m) @ t=0.9
0
% es.tEZ (V/m) @ t=0.9
3.2618824276372536
% es.Ex (V/m) @ t=0.9
-1.2575273669189309
% es.Ey (V/m) @ t=0.9
0.3995109022491663
% es.Ez (V/m) @ t=0.9
3.261882427637251
% es.tEx (V/m) @ t=0.9
-1.257527366918945
% es.tEy (V/m) @ t=0.9
0
% es.tEz (V/m) @ t=0.9
3.2618824276372536
% V (V) @ t=0.9
0.01717731444235121
% es.normE (V/m) @ t=0.92
3.5598823553792487
% es.EX (V/m) @ t=0.92
-1.2688766096258197
% es.EY (V/m) @ t=0.92
0.4031165022979506
% es.EZ (V/m) @ t=0.92
3.2913210675050726
% es.tEX (V/m) @ t=0.92
-1.268876609625834
% es.tEY (V/m) @ t=0.92
0
% es.tEZ (V/m) @ t=0.92
3.2913210675050664
% es.Ex (V/m) @ t=0.92
-1.2688766096258197
% es.Ey (V/m) @ t=0.92
0.4031165022979506
% es.Ez (V/m) @ t=0.92
3.2913210675050726
% es.tEx (V/m) @ t=0.92
-1.268876609625834
% es.tEy (V/m) @ t=0.92
0
% es.tEz (V/m) @ t=0.92
3.2913210675050664
% V (V) @ t=0.92
0.017332340361606288
% es.normE (V/m) @ t=0.94
3.591723094203464
% es.EX (V/m) @ t=0.94
-1.2802258523327088
% es.EY (V/m) @ t=0.94
0.4067221023467438
% es.EZ (V/m) @ t=0.94
3.320759707372889
% es.tEX (V/m) @ t=0.94
-1.280225852332723
% es.tEY (V/m) @ t=0.94
0
% es.tEZ (V/m) @ t=0.94
3.3207597073728916
% es.Ex (V/m) @ t=0.94
-1.2802258523327088
% es.Ey (V/m) @ t=0.94
0.4067221023467438
% es.Ez (V/m) @ t=0.94
3.320759707372889
% es.tEx (V/m) @ t=0.94
-1.280225852332723
% es.tEy (V/m) @ t=0.94
0
% es.tEz (V/m) @ t=0.94
3.3207597073728916
% V (V) @ t=0.94
0.017487366280861363
% es.normE (V/m) @ t=0.96
3.623563833027676
% es.EX (V/m) @ t=0.96
-1.2915750950395906
% es.EY (V/m) @ t=0.96
0.4103277023955272
% es.EZ (V/m) @ t=0.96
3.350198347240707
% es.tEX (V/m) @ t=0.96
-1.291575095039626
% es.tEY (V/m) @ t=0.96
0
% es.tEZ (V/m) @ t=0.96
3.350198347240717
% es.Ex (V/m) @ t=0.96
-1.2915750950395906
% es.Ey (V/m) @ t=0.96
0.4103277023955272
% es.Ez (V/m) @ t=0.96
3.350198347240707
% es.tEx (V/m) @ t=0.96
-1.291575095039626
% es.tEy (V/m) @ t=0.96
0
% es.tEz (V/m) @ t=0.96
3.350198347240717
% V (V) @ t=0.96
0.01764239220011644
% es.normE (V/m) @ t=0.98
3.655404571851901
% es.EX (V/m) @ t=0.98
-1.3029243377464799
% es.EY (V/m) @ t=0.98
0.4139333024442937
% es.EZ (V/m) @ t=0.98
3.3796369871085377
% es.tEX (V/m) @ t=0.98
-1.302924337746487
% es.tEY (V/m) @ t=0.98
0
% es.tEZ (V/m) @ t=0.98
3.3796369871085385
% es.Ex (V/m) @ t=0.98
-1.3029243377464799
% es.Ey (V/m) @ t=0.98
0.4139333024442937
% es.Ez (V/m) @ t=0.98
3.3796369871085377
% es.tEx (V/m) @ t=0.98
-1.302924337746487
% es.tEy (V/m) @ t=0.98
0
% es.tEz (V/m) @ t=0.98
3.3796369871085385
% V (V) @ t=0.98
0.01779741811937152
% es.normE (V/m) @ t=1
3.6872453106761234
% es.EX (V/m) @ t=1
-1.314273580453376
% es.EY (V/m) @ t=1
0.41753890249310954
% es.EZ (V/m) @ t=1
3.4090756269763576
% es.tEX (V/m) @ t=1
-1.3142735804533903
% es.tEY (V/m) @ t=1
0
% es.tEZ (V/m) @ t=1
3.409075626976364
% es.Ex (V/m) @ t=1
-1.314273580453376
% es.Ey (V/m) @ t=1
0.41753890249310954
% es.Ez (V/m) @ t=1
3.4090756269763576
% es.tEx (V/m) @ t=1
-1.3142735804533903
% es.tEy (V/m) @ t=1
0
% es.tEz (V/m) @ t=1
3.409075626976364
% V (V) @ t=1
0.0179524440386266
% es.normE (V/m) @ t=1.02
3.71908604950034
% es.EX (V/m) @ t=1.02
-1.325622823160265
% es.EY (V/m) @ t=1.02
0.4211445025419023
% es.EZ (V/m) @ t=1.02
3.4385142668441757
% es.tEX (V/m) @ t=1.02
-1.3256228231602791
% es.tEY (V/m) @ t=1.02
0
% es.tEZ (V/m) @ t=1.02
3.438514266844182
% es.Ex (V/m) @ t=1.02
-1.325622823160265
% es.Ey (V/m) @ t=1.02
0.4211445025419023
% es.Ez (V/m) @ t=1.02
3.4385142668441757
% es.tEx (V/m) @ t=1.02
-1.3256228231602791
% es.tEy (V/m) @ t=1.02
0
% es.tEz (V/m) @ t=1.02
3.438514266844182
% V (V) @ t=1.02
0.01810746995788167
% es.normE (V/m) @ t=1.04
3.7523411067434984
% es.EX (V/m) @ t=1.04
-1.337476182427583
% es.EY (V/m) @ t=1.04
0.42491024944003986
% es.EZ (V/m) @ t=1.04
3.4692605275622688
% es.tEX (V/m) @ t=1.04
-1.3374761824275971
% es.tEY (V/m) @ t=1.04
0
% es.tEZ (V/m) @ t=1.04
3.469260527562266
% es.Ex (V/m) @ t=1.04
-1.337476182427583
% es.Ey (V/m) @ t=1.04