% Model:              1 neuron.mph
% Version:            COMSOL 6.1.0.252
% Date:               Mar 22 2023, 18:39
% Dimension:          0
% Nodes:              14017
% Expressions:        14017
% Description:        Electric field norm, Electric field, X component, Electric field, Y component, Electric field, Z component, Tangential electric field, X component, Tangential electric field, Y component, Tangential electric field, Z component, Electric field, x component, Electric field, y component, Electric field, z component, Tangential electric field, x component, Tangential electric field, y component, Tangential electric field, z component, Electric potential
% Length unit:        mm
% x
1.3300000000000003
% y
12.200000000000001
% z
1.66
% es.normE (V/m) @ t=0
13.278495182612843
% es.EX (V/m) @ t=0
8.426526234455473
% es.EY (V/m) @ t=0
2.519825502707767
% es.EZ (V/m) @ t=0
-9.230147753518736
% es.tEX (V/m) @ t=0
8.426526234455451
% es.tEY (V/m) @ t=0
0
% es.tEZ (V/m) @ t=0
-9.230147753518713
% es.Ex (V/m) @ t=0
8.426526234455473
% es.Ey (V/m) @ t=0
2.519825502707767
% es.Ez (V/m) @ t=0
-9.230147753518736
% es.tEx (V/m) @ t=0
8.426526234455451
% es.tEy (V/m) @ t=0
0
% es.tEz (V/m) @ t=0
-9.230147753518713
% V (V) @ t=0
0.011374072488094812
% es.normE (V/m) @ t=0.02
11.468705742581792
% es.EX (V/m) @ t=0.02
7.278034788166098
% es.EY (V/m) @ t=0.02
2.176386481391402
% es.EZ (V/m) @ t=0.02
-7.972126889850793
% es.tEX (V/m) @ t=0.02
7.2780347881660905
% es.tEY (V/m) @ t=0.02
0
% es.tEZ (V/m) @ t=0.02
-7.97212688985077
% es.Ex (V/m) @ t=0.02
7.278034788166098
% es.Ey (V/m) @ t=0.02
2.176386481391402
% es.Ez (V/m) @ t=0.02
-7.972126889850793
% es.tEx (V/m) @ t=0.02
7.2780347881660905
% es.tEy (V/m) @ t=0.02
0
% es.tEz (V/m) @ t=0.02
-7.97212688985077
% V (V) @ t=0.02
0.009823845865959458
% es.normE (V/m) @ t=0.04
11.57414061002087
% es.EX (V/m) @ t=0.04
7.344943708345893
% es.EY (V/m) @ t=0.04
2.1963946066436284
% es.EZ (V/m) @ t=0.04
-8.045416770859665
% es.tEX (V/m) @ t=0.04
7.344943708345893
% es.tEY (V/m) @ t=0.04
0
% es.tEZ (V/m) @ t=0.04
-8.045416770859644
% es.Ex (V/m) @ t=0.04
7.344943708345893
% es.Ey (V/m) @ t=0.04
2.1963946066436284
% es.Ez (V/m) @ t=0.04
-8.045416770859665
% es.tEx (V/m) @ t=0.04
7.344943708345893
% es.tEy (V/m) @ t=0.04
0
% es.tEz (V/m) @ t=0.04
-8.045416770859644
% V (V) @ t=0.04
0.009914159041318139
% es.normE (V/m) @ t=0.06
11.680333876569188
% es.EX (V/m) @ t=0.06
7.412333888509053
% es.EY (V/m) @ t=0.06
2.216546585303268
% es.EZ (V/m) @ t=0.06
-8.119233844974358
% es.tEX (V/m) @ t=0.06
7.412333888509038
% es.tEY (V/m) @ t=0.06
0
% es.tEZ (V/m) @ t=0.06
-8.119233844974337
% es.Ex (V/m) @ t=0.06
7.412333888509053
% es.Ey (V/m) @ t=0.06
2.216546585303268
% es.Ez (V/m) @ t=0.06
-8.119233844974358
% es.tEx (V/m) @ t=0.06
7.412333888509038
% es.tEy (V/m) @ t=0.06
0
% es.tEz (V/m) @ t=0.06
-8.119233844974337
% V (V) @ t=0.06
0.010005121998567675
% es.normE (V/m) @ t=0.08
11.788584247965773
% es.EX (V/m) @ t=0.08
7.481029516835937
% es.EY (V/m) @ t=0.08
2.237088970593973
% es.EZ (V/m) @ t=0.08
-8.194480846009341
% es.tEX (V/m) @ t=0.08
7.481029516835922
% es.tEY (V/m) @ t=0.08
0
% es.tEZ (V/m) @ t=0.08
-8.194480846009327
% es.Ex (V/m) @ t=0.08
7.481029516835937
% es.Ey (V/m) @ t=0.08
2.237088970593973
% es.Ez (V/m) @ t=0.08
-8.194480846009341
% es.tEx (V/m) @ t=0.08
7.481029516835922
% es.tEy (V/m) @ t=0.08
0
% es.tEz (V/m) @ t=0.08
-8.194480846009327
% V (V) @ t=0.08
0.010097846945632883
% es.normE (V/m) @ t=0.1
11.897354203827364
% es.EX (V/m) @ t=0.1
7.550054875845381
% es.EY (V/m) @ t=0.1
2.257729964966602
% es.EZ (V/m) @ t=0.1
-8.270089018627058
% es.tEX (V/m) @ t=0.1
7.550054875845367
% es.tEY (V/m) @ t=0.1
0
% es.tEZ (V/m) @ t=0.1
-8.270089018627043
% es.Ex (V/m) @ t=0.1
7.550054875845381
% es.Ey (V/m) @ t=0.1
2.257729964966602
% es.Ez (V/m) @ t=0.1
-8.270089018627058
% es.tEx (V/m) @ t=0.1
7.550054875845367
% es.tEy (V/m) @ t=0.1
0
% es.tEz (V/m) @ t=0.1
-8.270089018627043
% V (V) @ t=0.1
0.010191016936875817
% es.normE (V/m) @ t=0.12
12.006124159688946
% es.EX (V/m) @ t=0.12
7.619080234854842
% es.EY (V/m) @ t=0.12
2.278370959339213
% es.EZ (V/m) @ t=0.12
-8.345697191244767
% es.tEX (V/m) @ t=0.12
7.6190802348548265
% es.tEY (V/m) @ t=0.12
0
% es.tEZ (V/m) @ t=0.12
-8.345697191244746
% es.Ex (V/m) @ t=0.12
7.619080234854842
% es.Ey (V/m) @ t=0.12
2.278370959339213
% es.Ez (V/m) @ t=0.12
-8.345697191244767
% es.tEx (V/m) @ t=0.12
7.6190802348548265
% es.tEy (V/m) @ t=0.12
0
% es.tEz (V/m) @ t=0.12
-8.345697191244746
% V (V) @ t=0.12
0.010284186928118753
% es.normE (V/m) @ t=0.14
12.118169589456308
% es.EX (V/m) @ t=0.14
7.690184208308038
% es.EY (V/m) @ t=0.14
2.299633533597361
% es.EZ (V/m) @ t=0.14
-8.423582211004337
% es.tEX (V/m) @ t=0.14
7.690184208308023
% es.tEY (V/m) @ t=0.14
0
% es.tEZ (V/m) @ t=0.14
-8.423582211004323
% es.Ex (V/m) @ t=0.14
7.690184208308038
% es.Ey (V/m) @ t=0.14
2.299633533597361
% es.Ez (V/m) @ t=0.14
-8.423582211004337
% es.tEx (V/m) @ t=0.14
7.690184208308023
% es.tEy (V/m) @ t=0.14
0
% es.tEz (V/m) @ t=0.14
-8.423582211004323
% V (V) @ t=0.14
0.01038016261618859
% es.normE (V/m) @ t=0.16
12.232372005437403
% es.EX (V/m) @ t=0.16
7.76265700435843
% es.EY (V/m) @ t=0.16
2.321305434652922
% es.EZ (V/m) @ t=0.16
-8.502966594836735
% es.tEX (V/m) @ t=0.16
7.762657004358394
% es.tEY (V/m) @ t=0.16
0
% es.tEZ (V/m) @ t=0.16
-8.502966594836728
% es.Ex (V/m) @ t=0.16
7.76265700435843
% es.Ey (V/m) @ t=0.16
2.321305434652922
% es.Ez (V/m) @ t=0.16
-8.502966594836735
% es.tEx (V/m) @ t=0.16
7.762657004358394
% es.tEy (V/m) @ t=0.16
0
% es.tEz (V/m) @ t=0.16
-8.502966594836728
% V (V) @ t=0.16
0.010477985929838592
% es.normE (V/m) @ t=0.18
12.346574421418474
% es.EX (V/m) @ t=0.18
7.835129800408822
% es.EY (V/m) @ t=0.18
2.3429773357084573
% es.EZ (V/m) @ t=0.18
-8.582350978669115
% es.tEX (V/m) @ t=0.18
7.835129800408815
% es.tEY (V/m) @ t=0.18
0
% es.tEZ (V/m) @ t=0.18
-8.582350978669108
% es.Ex (V/m) @ t=0.18
7.835129800408822
% es.Ey (V/m) @ t=0.18
2.3429773357084573
% es.Ez (V/m) @ t=0.18
-8.582350978669115
% es.tEx (V/m) @ t=0.18
7.835129800408815
% es.tEy (V/m) @ t=0.18
0
% es.tEz (V/m) @ t=0.18
-8.582350978669108
% V (V) @ t=0.18
0.010575809243488592
% es.normE (V/m) @ t=0.2
12.46077683739955
% es.EX (V/m) @ t=0.2
7.907602596459232
% es.EY (V/m) @ t=0.2
2.3646492367639933
% es.EZ (V/m) @ t=0.2
-8.661735362501481
% es.tEX (V/m) @ t=0.2
7.907602596459206
% es.tEY (V/m) @ t=0.2
0
% es.tEZ (V/m) @ t=0.2
-8.661735362501458
% es.Ex (V/m) @ t=0.2
7.907602596459232
% es.Ey (V/m) @ t=0.2
2.3646492367639933
% es.Ez (V/m) @ t=0.2
-8.661735362501481
% es.tEx (V/m) @ t=0.2
7.907602596459206
% es.tEy (V/m) @ t=0.2
0
% es.tEz (V/m) @ t=0.2
-8.661735362501458
% V (V) @ t=0.2
0.010673632557138595
% es.normE (V/m) @ t=0.22
12.574979253380633
% es.EX (V/m) @ t=0.22
7.980075392509627
% es.EY (V/m) @ t=0.22
2.386321137819551
% es.EZ (V/m) @ t=0.22
-8.741119746333865
% es.tEX (V/m) @ t=0.22
7.980075392509619
% es.tEY (V/m) @ t=0.22
0
% es.tEZ (V/m) @ t=0.22
-8.741119746333842
% es.Ex (V/m) @ t=0.22
7.980075392509627
% es.Ey (V/m) @ t=0.22
2.386321137819551
% es.Ez (V/m) @ t=0.22
-8.741119746333865
% es.tEx (V/m) @ t=0.22
7.980075392509619
% es.tEy (V/m) @ t=0.22
0
% es.tEz (V/m) @ t=0.22
-8.741119746333842
% V (V) @ t=0.22
0.010771455870788595
% es.normE (V/m) @ t=0.24
12.68918166936171
% es.EX (V/m) @ t=0.24
8.05254818856002
% es.EY (V/m) @ t=0.24
2.407993038875076
% es.EZ (V/m) @ t=0.24
-8.820504130166256
% es.tEX (V/m) @ t=0.24
8.05254818855999
% es.tEY (V/m) @ t=0.24
0
% es.tEZ (V/m) @ t=0.24
-8.820504130166233
% es.Ex (V/m) @ t=0.24
8.05254818856002
% es.Ey (V/m) @ t=0.24
2.407993038875076
% es.Ez (V/m) @ t=0.24
-8.820504130166256
% es.tEx (V/m) @ t=0.24
8.05254818855999
% es.tEy (V/m) @ t=0.24
0
% es.tEz (V/m) @ t=0.24
-8.820504130166233
% V (V) @ t=0.24
0.010869279184438595
% es.normE (V/m) @ t=0.26
12.805956954215251
% es.EX (V/m) @ t=0.26
8.12665372206392
% es.EY (V/m) @ t=0.26
2.4301531741644755
% es.EZ (V/m) @ t=0.26
-8.901676969485376
% es.tEX (V/m) @ t=0.26
8.12665372206391
% es.tEY (V/m) @ t=0.26
0
% es.tEZ (V/m) @ t=0.26
-8.901676969485345
% es.Ex (V/m) @ t=0.26
8.12665372206392
% es.Ey (V/m) @ t=0.26
2.4301531741644755
% es.Ez (V/m) @ t=0.26
-8.901676969485376
% es.tEx (V/m) @ t=0.26
8.12665372206391
% es.tEy (V/m) @ t=0.26
0
% es.tEz (V/m) @ t=0.26
-8.901676969485345
% V (V) @ t=0.26
0.010969306391539528
% es.normE (V/m) @ t=0.28
12.932288063851447
% es.EX (V/m) @ t=0.28
8.206823362910729
% es.EY (V/m) @ t=0.28
2.4541266474134855
% es.EZ (V/m) @ t=0.28
-8.989492264409478
% es.tEX (V/m) @ t=0.28
8.206823362910722
% es.tEY (V/m) @ t=0.28
0
% es.tEZ (V/m) @ t=0.28
-8.989492264409469
% es.Ex (V/m) @ t=0.28
8.206823362910729
% es.Ey (V/m) @ t=0.28
2.4541266474134855
% es.Ez (V/m) @ t=0.28
-8.989492264409478
% es.tEx (V/m) @ t=0.28
8.206823362910722
% es.tEy (V/m) @ t=0.28
0
% es.tEz (V/m) @ t=0.28
-8.989492264409469
% V (V) @ t=0.28
0.011077519021489634
% es.normE (V/m) @ t=0.3
13.05861917348766
% es.EX (V/m) @ t=0.3
8.28699300375757
% es.EY (V/m) @ t=0.3
2.478100120662446
% es.EZ (V/m) @ t=0.3
-9.077307559333587
% es.tEX (V/m) @ t=0.3
8.28699300375755
% es.tEY (V/m) @ t=0.3
0
% es.tEZ (V/m) @ t=0.3
-9.077307559333564
% es.Ex (V/m) @ t=0.3
8.28699300375757
% es.Ey (V/m) @ t=0.3
2.478100120662446
% es.Ez (V/m) @ t=0.3
-9.077307559333587
% es.tEx (V/m) @ t=0.3
8.28699300375755
% es.tEy (V/m) @ t=0.3
0
% es.tEz (V/m) @ t=0.3
-9.077307559333564
% V (V) @ t=0.3
0.011185731651439743
% es.normE (V/m) @ t=0.32
13.184950283123822
% es.EX (V/m) @ t=0.32
8.367162644604385
% es.EY (V/m) @ t=0.32
2.5020735939114065
% es.EZ (V/m) @ t=0.32
-9.165122854257675
% es.tEX (V/m) @ t=0.32
8.36716264460437
% es.tEY (V/m) @ t=0.32
0
% es.tEZ (V/m) @ t=0.32
-9.165122854257653
% es.Ex (V/m) @ t=0.32
8.367162644604385
% es.Ey (V/m) @ t=0.32
2.5020735939114065
% es.Ez (V/m) @ t=0.32
-9.165122854257675
% es.tEx (V/m) @ t=0.32
8.36716264460437
% es.tEy (V/m) @ t=0.32
0
% es.tEz (V/m) @ t=0.32
-9.165122854257653
% V (V) @ t=0.32
0.011293944281389853
% es.normE (V/m) @ t=0.34
13.311281392760021
% es.EX (V/m) @ t=0.34
8.447332285451207
% es.EY (V/m) @ t=0.34
2.5260470671603565
% es.EZ (V/m) @ t=0.34
-9.25293814918179
% es.tEX (V/m) @ t=0.34
8.447332285451203
% es.tEY (V/m) @ t=0.34
0
% es.tEZ (V/m) @ t=0.34
-9.252938149181768
% es.Ex (V/m) @ t=0.34
8.447332285451207
% es.Ey (V/m) @ t=0.34
2.5260470671603565
% es.Ez (V/m) @ t=0.34
-9.25293814918179
% es.tEx (V/m) @ t=0.34
8.447332285451203
% es.tEy (V/m) @ t=0.34
0
% es.tEz (V/m) @ t=0.34
-9.252938149181768
% V (V) @ t=0.34
0.011402156911339958
% es.normE (V/m) @ t=0.36
13.437612502396222
% es.EX (V/m) @ t=0.36
8.527501926298017
% es.EY (V/m) @ t=0.36
2.550020540409377
% es.EZ (V/m) @ t=0.36
-9.3407534441059
% es.tEX (V/m) @ t=0.36
8.527501926297994
% es.tEY (V/m) @ t=0.36
0
% es.tEZ (V/m) @ t=0.36
-9.340753444105877
% es.Ex (V/m) @ t=0.36
8.527501926298017
% es.Ey (V/m) @ t=0.36
2.550020540409377
% es.Ez (V/m) @ t=0.36
-9.3407534441059
% es.tEx (V/m) @ t=0.36
8.527501926297994
% es.tEy (V/m) @ t=0.36
0
% es.tEz (V/m) @ t=0.36
-9.340753444105877
% V (V) @ t=0.36
0.011510369541290068
% es.normE (V/m) @ t=0.38
13.563943612032432
% es.EX (V/m) @ t=0.38
8.607671567144834
% es.EY (V/m) @ t=0.38
2.5739940136583415
% es.EZ (V/m) @ t=0.38
-9.42856873903003
% es.tEX (V/m) @ t=0.38
8.607671567144823
% es.tEY (V/m) @ t=0.38
0
% es.tEZ (V/m) @ t=0.38
-9.428568739030007
% es.Ex (V/m) @ t=0.38
8.607671567144834
% es.Ey (V/m) @ t=0.38
2.5739940136583415
% es.Ez (V/m) @ t=0.38
-9.42856873903003
% es.tEx (V/m) @ t=0.38
8.607671567144823
% es.tEy (V/m) @ t=0.38
0
% es.tEz (V/m) @ t=0.38
-9.428568739030007
% V (V) @ t=0.38
0.011618582171240175
% es.normE (V/m) @ t=0.4
13.690274721668612
% es.EX (V/m) @ t=0.4
8.68784120799165
% es.EY (V/m) @ t=0.4
2.5979674869073373
% es.EZ (V/m) @ t=0.4
-9.516384033954111
% es.tEX (V/m) @ t=0.4
8.687841207991635
% es.tEY (V/m) @ t=0.4
0
% es.tEZ (V/m) @ t=0.4
-9.516384033954095
% es.Ex (V/m) @ t=0.4
8.68784120799165
% es.Ey (V/m) @ t=0.4
2.5979674869073373
% es.Ez (V/m) @ t=0.4
-9.516384033954111
% es.tEx (V/m) @ t=0.4
8.687841207991635
% es.tEy (V/m) @ t=0.4
0
% es.tEz (V/m) @ t=0.4
-9.516384033954095
% V (V) @ t=0.4
0.011726794801190281
% es.normE (V/m) @ t=0.42
13.8166058313048
% es.EX (V/m) @ t=0.42
8.76801084883848
% es.EY (V/m) @ t=0.42
2.6219409601562553
% es.EZ (V/m) @ t=0.42
-9.604199328878206
% es.tEX (V/m) @ t=0.42
8.768010848838461
% es.tEY (V/m) @ t=0.42
0
% es.tEZ (V/m) @ t=0.42
-9.604199328878183
% es.Ex (V/m) @ t=0.42
8.76801084883848
% es.Ey (V/m) @ t=0.42
2.6219409601562553
% es.Ez (V/m) @ t=0.42
-9.604199328878206
% es.tEx (V/m) @ t=0.42
8.768010848838461
% es.tEy (V/m) @ t=0.42
0
% es.tEz (V/m) @ t=0.42
-9.604199328878183
% V (V) @ t=0.42
0.011835007431140389
% es.normE (V/m) @ t=0.44
13.942936940940987
% es.EX (V/m) @ t=0.44
8.84818048968529
% es.EY (V/m) @ t=0.44
2.645914433405251
% es.EZ (V/m) @ t=0.44
-9.692014623802308
% es.tEX (V/m) @ t=0.44
8.848180489685284
% es.tEY (V/m) @ t=0.44
0
% es.tEZ (V/m) @ t=0.44
-9.692014623802285
% es.Ex (V/m) @ t=0.44
8.84818048968529
% es.Ey (V/m) @ t=0.44
2.645914433405251
% es.Ez (V/m) @ t=0.44
-9.692014623802308
% es.tEx (V/m) @ t=0.44
8.848180489685284
% es.tEy (V/m) @ t=0.44
0
% es.tEz (V/m) @ t=0.44
-9.692014623802285
% V (V) @ t=0.44
0.0119432200610905
% es.normE (V/m) @ t=0.46
14.069268050577183
% es.EX (V/m) @ t=0.46
8.92835013053212
% es.EY (V/m) @ t=0.46
2.6698879066542363
% es.EZ (V/m) @ t=0.46
-9.77982991872641
% es.tEX (V/m) @ t=0.46
8.928350130532095
% es.tEY (V/m) @ t=0.46
0
% es.tEZ (V/m) @ t=0.46
-9.779829918726387
% es.Ex (V/m) @ t=0.46
8.92835013053212
% es.Ey (V/m) @ t=0.46
2.6698879066542363
% es.Ez (V/m) @ t=0.46
-9.77982991872641
% es.tEx (V/m) @ t=0.46
8.928350130532095
% es.tEy (V/m) @ t=0.46
0
% es.tEz (V/m) @ t=0.46
-9.779829918726387
% V (V) @ t=0.46
0.012051432691040607
% es.normE (V/m) @ t=0.48
14.195599160213387
% es.EX (V/m) @ t=0.48
9.008519771378925
% es.EY (V/m) @ t=0.48
2.693861379903207
% es.EZ (V/m) @ t=0.48
-9.867645213650526
% es.tEX (V/m) @ t=0.48
9.008519771378902
% es.tEY (V/m) @ t=0.48
0
% es.tEZ (V/m) @ t=0.48
-9.867645213650512
% es.Ex (V/m) @ t=0.48
9.008519771378925
% es.Ey (V/m) @ t=0.48
2.693861379903207
% es.Ez (V/m) @ t=0.48
-9.867645213650526
% es.tEx (V/m) @ t=0.48
9.008519771378902
% es.tEy (V/m) @ t=0.48
0
% es.tEz (V/m) @ t=0.48
-9.867645213650512
% V (V) @ t=0.48
0.012159645320990715
% es.normE (V/m) @ t=0.5
14.321930269849577
% es.EX (V/m) @ t=0.5
9.088689412225769
% es.EY (V/m) @ t=0.5
2.7178348531521506
% es.EZ (V/m) @ t=0.5
-9.955460508574621
% es.tEX (V/m) @ t=0.5
9.088689412225749
% es.tEY (V/m) @ t=0.5
0
% es.tEZ (V/m) @ t=0.5
-9.955460508574605
% es.Ex (V/m) @ t=0.5
9.088689412225769
% es.Ey (V/m) @ t=0.5
2.7178348531521506
% es.Ez (V/m) @ t=0.5
-9.955460508574621
% es.tEx (V/m) @ t=0.5
9.088689412225749
% es.tEy (V/m) @ t=0.5
0
% es.tEz (V/m) @ t=0.5
-9.955460508574605
% V (V) @ t=0.5
0.012267857950940824
% es.normE (V/m) @ t=0.52
14.45413056684811
% es.EX (V/m) @ t=0.52
9.172583642678958
% es.EY (V/m) @ t=0.52
2.742922126981252
% es.EZ (V/m) @ t=0.52
-10.047355588424761
% es.tEX (V/m) @ t=0.52
9.172583642678953
% es.tEY (V/m) @ t=0.52
0
% es.tEZ (V/m) @ t=0.52
-10.047355588424754
% es.Ex (V/m) @ t=0.52
9.172583642678958
% es.Ey (V/m) @ t=0.52
2.742922126981252
% es.Ez (V/m) @ t=0.52
-10.047355588424761
% es.tEx (V/m) @ t=0.52
9.172583642678953
% es.tEy (V/m) @ t=0.52
0
% es.tEz (V/m) @ t=0.52
-10.047355588424754
% V (V) @ t=0.52
0.012381097951716588
% es.normE (V/m) @ t=0.54
14.594095016550714
% es.EX (V/m) @ t=0.54
9.261405008811916
% es.EY (V/m) @ t=0.54
2.7694828105434954
% es.EZ (V/m) @ t=0.54
-10.14464768002625
% es.tEX (V/m) @ t=0.54
9.261405008811913
% es.tEY (V/m) @ t=0.54
0
% es.tEZ (V/m) @ t=0.54
-10.144647680026221
% es.Ex (V/m) @ t=0.54
9.261405008811916
% es.Ey (V/m) @ t=0.54
2.7694828105434954
% es.Ez (V/m) @ t=0.54
-10.14464768002625
% es.tEx (V/m) @ t=0.54
9.261405008811913
% es.tEy (V/m) @ t=0.54
0
% es.tEz (V/m) @ t=0.54
-10.144647680026221
% V (V) @ t=0.54
0.01250098849410577
% es.normE (V/m) @ t=0.56
14.734059466253314
% es.EX (V/m) @ t=0.56
9.350226374944844
% es.EY (V/m) @ t=0.56
2.796043494105735
% es.EZ (V/m) @ t=0.56
-10.241939771627761
% es.tEX (V/m) @ t=0.56
9.35022637494481
% es.tEY (V/m) @ t=0.56
0
% es.tEZ (V/m) @ t=0.56
-10.24193977162774
% es.Ex (V/m) @ t=0.56
9.350226374944844
% es.Ey (V/m) @ t=0.56
2.796043494105735
% es.Ez (V/m) @ t=0.56
-10.241939771627761
% es.tEx (V/m) @ t=0.56
9.35022637494481
% es.tEy (V/m) @ t=0.56
0
% es.tEz (V/m) @ t=0.56
-10.24193977162774
% V (V) @ t=0.56
0.012620879036494951
% es.normE (V/m) @ t=0.58
14.87402391595593
% es.EX (V/m) @ t=0.58
9.43904774107779
% es.EY (V/m) @ t=0.58
2.8226041776679858
% es.EZ (V/m) @ t=0.58
-10.339231863229259
% es.tEX (V/m) @ t=0.58
9.439047741077772
% es.tEY (V/m) @ t=0.58
0
% es.tEZ (V/m) @ t=0.58
-10.339231863229235
% es.Ex (V/m) @ t=0.58
9.43904774107779
% es.Ey (V/m) @ t=0.58
2.8226041776679858
% es.Ez (V/m) @ t=0.58
-10.339231863229259
% es.tEx (V/m) @ t=0.58
9.439047741077772
% es.tEy (V/m) @ t=0.58
0
% es.tEz (V/m) @ t=0.58
-10.339231863229235
% V (V) @ t=0.58
0.012740769578884132
% es.normE (V/m) @ t=0.6
15.013988365658497
% es.EX (V/m) @ t=0.6
9.527869107210716
% es.EY (V/m) @ t=0.6
2.849164861230258
% es.EZ (V/m) @ t=0.6
-10.436523954830726
% es.tEX (V/m) @ t=0.6
9.52786910721069
% es.tEY (V/m) @ t=0.6
0
% es.tEZ (V/m) @ t=0.6
-10.436523954830704
% es.Ex (V/m) @ t=0.6
9.527869107210716
% es.Ey (V/m) @ t=0.6
2.849164861230258
% es.Ez (V/m) @ t=0.6
-10.436523954830726
% es.tEx (V/m) @ t=0.6
9.52786910721069
% es.tEy (V/m) @ t=0.6
0
% es.tEz (V/m) @ t=0.6
-10.436523954830704
% V (V) @ t=0.6
0.012860660121273315
% es.normE (V/m) @ t=0.62
15.153952815361095
% es.EX (V/m) @ t=0.62
9.61669047334364
% es.EY (V/m) @ t=0.62
2.875725544792508
% es.EZ (V/m) @ t=0.62
-10.53381604643223
% es.tEX (V/m) @ t=0.62
9.616690473343628
% es.tEY (V/m) @ t=0.62
0
% es.tEZ (V/m) @ t=0.62
-10.533816046432214
% es.Ex (V/m) @ t=0.62
9.61669047334364
% es.Ey (V/m) @ t=0.62
2.875725544792508
% es.Ez (V/m) @ t=0.62
-10.53381604643223
% es.tEx (V/m) @ t=0.62
9.616690473343628
% es.tEy (V/m) @ t=0.62
0
% es.tEz (V/m) @ t=0.62
-10.533816046432214
% V (V) @ t=0.62
0.012980550663662497
% es.normE (V/m) @ t=0.64
15.293917265063666
% es.EX (V/m) @ t=0.64
9.705511839476607
% es.EY (V/m) @ t=0.64
2.902286228354734
% es.EZ (V/m) @ t=0.64
-10.631108138033685
% es.tEX (V/m) @ t=0.64
9.705511839476575
% es.tEY (V/m) @ t=0.64
0
% es.tEZ (V/m) @ t=0.64
-10.631108138033655
% es.Ex (V/m) @ t=0.64
9.705511839476607
% es.Ey (V/m) @ t=0.64
2.902286228354734
% es.Ez (V/m) @ t=0.64
-10.631108138033685
% es.tEx (V/m) @ t=0.64
9.705511839476575
% es.tEy (V/m) @ t=0.64
0
% es.tEz (V/m) @ t=0.64
-10.631108138033655
% V (V) @ t=0.64
0.013100441206051684
% es.normE (V/m) @ t=0.66
15.433881714766278
% es.EX (V/m) @ t=0.66
9.794333205609533
% es.EY (V/m) @ t=0.66
2.928846911916988
% es.EZ (V/m) @ t=0.66
-10.728400229635195
% es.tEX (V/m) @ t=0.66
9.794333205609515
% es.tEY (V/m) @ t=0.66
0
% es.tEZ (V/m) @ t=0.66
-10.728400229635174
% es.Ex (V/m) @ t=0.66
9.794333205609533
% es.Ey (V/m) @ t=0.66
2.928846911916988
% es.Ez (V/m) @ t=0.66
-10.728400229635195
% es.tEx (V/m) @ t=0.66
9.794333205609515
% es.tEy (V/m) @ t=0.66
0
% es.tEz (V/m) @ t=0.66
-10.728400229635174
% V (V) @ t=0.66
0.013220331748440863
% es.normE (V/m) @ t=0.68
15.573846164468865
% es.EX (V/m) @ t=0.68
9.883154571742502
% es.EY (V/m) @ t=0.68
2.9554075954792247
% es.EZ (V/m) @ t=0.68
-10.825692321236662
% es.tEX (V/m) @ t=0.68
9.883154571742475
% es.tEY (V/m) @ t=0.68
0
% es.tEZ (V/m) @ t=0.68
-10.825692321236634
% es.Ex (V/m) @ t=0.68
9.883154571742502
% es.Ey (V/m) @ t=0.68
2.9554075954792247
% es.Ez (V/m) @ t=0.68
-10.825692321236662
% es.tEx (V/m) @ t=0.68
9.883154571742475
% es.tEy (V/m) @ t=0.68
0
% es.tEz (V/m) @ t=0.68
-10.825692321236634
% V (V) @ t=0.68
0.013340222290830046
% es.normE (V/m) @ t=0.7
15.713810614171441
% es.EX (V/m) @ t=0.7
9.971975937875403
% es.EY (V/m) @ t=0.7
2.981968279041504
% es.EZ (V/m) @ t=0.7
-10.922984412838145
% es.tEX (V/m) @ t=0.7
9.9719759378754
% es.tEY (V/m) @ t=0.7
0
% es.tEZ (V/m) @ t=0.7
-10.922984412838122
% es.Ex (V/m) @ t=0.7
9.971975937875403
% es.Ey (V/m) @ t=0.7
2.981968279041504
% es.Ez (V/m) @ t=0.7
-10.922984412838145
% es.tEx (V/m) @ t=0.7
9.9719759378754
% es.tEy (V/m) @ t=0.7
0
% es.tEz (V/m) @ t=0.7
-10.922984412838122
% V (V) @ t=0.7
0.01346011283321923
% es.normE (V/m) @ t=0.72
15.853775063874036
% es.EX (V/m) @ t=0.72
10.06079730400835
% es.EY (V/m) @ t=0.72
3.008528962603718
% es.EZ (V/m) @ t=0.72
-11.020276504439643
% es.tEX (V/m) @ t=0.72
10.060797304008332
% es.tEY (V/m) @ t=0.72
0
% es.tEZ (V/m) @ t=0.72
-11.020276504439622
% es.Ex (V/m) @ t=0.72
10.06079730400835
% es.Ey (V/m) @ t=0.72
3.008528962603718
% es.Ez (V/m) @ t=0.72
-11.020276504439643
% es.tEx (V/m) @ t=0.72
10.060797304008332
% es.tEy (V/m) @ t=0.72
0
% es.tEz (V/m) @ t=0.72
-11.020276504439622
% V (V) @ t=0.72
0.01358000337560841
% es.normE (V/m) @ t=0.74
15.99373951357665
% es.EX (V/m) @ t=0.74
10.149618670141297
% es.EY (V/m) @ t=0.74
3.035089646165969
% es.EZ (V/m) @ t=0.74
-11.117568596041139
% es.tEX (V/m) @ t=0.74
10.14961867014128
% es.tEY (V/m) @ t=0.74
0
% es.tEZ (V/m) @ t=0.74
-11.11756859604111
% es.Ex (V/m) @ t=0.74
10.149618670141297
% es.Ey (V/m) @ t=0.74
3.035089646165969
% es.Ez (V/m) @ t=0.74
-11.117568596041139
% es.tEx (V/m) @ t=0.74
10.14961867014128
% es.tEy (V/m) @ t=0.74
0
% es.tEz (V/m) @ t=0.74
-11.11756859604111
% V (V) @ t=0.74
0.013699893917997596
% es.normE (V/m) @ t=0.76
16.133703963279228
% es.EX (V/m) @ t=0.76
10.238440036274216
% es.EY (V/m) @ t=0.76
3.0616503297282374
% es.EZ (V/m) @ t=0.76
-11.214860687642615
% es.tEX (V/m) @ t=0.76
10.238440036274197
% es.tEY (V/m) @ t=0.76
0
% es.tEZ (V/m) @ t=0.76
-11.214860687642593
% es.Ex (V/m) @ t=0.76
10.238440036274216
% es.Ey (V/m) @ t=0.76
3.0616503297282374
% es.Ez (V/m) @ t=0.76
-11.214860687642615
% es.tEx (V/m) @ t=0.76
10.238440036274197
% es.tEy (V/m) @ t=0.76
0
% es.tEz (V/m) @ t=0.76
-11.214860687642593
% V (V) @ t=0.76
0.013819784460386775
% es.normE (V/m) @ t=0.78
16.283629876810302
% es.EX (V/m) @ t=0.78
10.33358294254226
% es.EY (V/m) @ t=0.78
3.0901013752452675
% es.EZ (V/m) @ t=0.78
-11.31907719190312
% es.tEX (V/m) @ t=0.78
10.333582942542254
% es.tEY (V/m) @ t=0.78
0
% es.tEZ (V/m) @ t=0.78
-11.31907719190309
% es.Ex (V/m) @ t=0.78
10.33358294254226
% es.Ey (V/m) @ t=0.78
3.0901013752452675
% es.Ez (V/m) @ t=0.78
-11.31907719190312
% es.tEx (V/m) @ t=0.78
10.333582942542254
% es.tEy (V/m) @ t=0.78
0
% es.tEz (V/m) @ t=0.78
-11.31907719190309
% V (V) @ t=0.78
0.013948207775573202
% es.normE (V/m) @ t=0.8
16.4389462424816
% es.EX (V/m) @ t=0.8
10.43214662713538
% es.EY (V/m) @ t=0.8
3.119575353317219
% es.EZ (V/m) @ t=0.8
-11.427040707213443
% es.tEX (V/m) @ t=0.8
10.43214662713536
% es.tEY (V/m) @ t=0.8
0
% es.tEZ (V/m) @ t=0.8
-11.427040707213415
% es.Ex (V/m) @ t=0.8
10.43214662713538
% es.Ey (V/m) @ t=0.8
3.119575353317219
% es.Ez (V/m) @ t=0.8
-11.427040707213443
% es.tEx (V/m) @ t=0.8
10.43214662713536
% es.tEy (V/m) @ t=0.8
0
% es.tEz (V/m) @ t=0.8
-11.427040707213415
% V (V) @ t=0.8
0.01408124843457359
% es.normE (V/m) @ t=0.82
16.594262608152842
% es.EX (V/m) @ t=0.82
10.530710311728479
% es.EY (V/m) @ t=0.82
3.14904933138922
% es.EZ (V/m) @ t=0.82
-11.535004222523725
% es.tEX (V/m) @ t=0.82
10.530710311728445
% es.tEY (V/m) @ t=0.82
0
% es.tEZ (V/m) @ t=0.82
-11.535004222523703
% es.Ex (V/m) @ t=0.82
10.530710311728479
% es.Ey (V/m) @ t=0.82
3.14904933138922
% es.Ez (V/m) @ t=0.82
-11.535004222523725
% es.tEx (V/m) @ t=0.82
10.530710311728445
% es.tEy (V/m) @ t=0.82
0
% es.tEz (V/m) @ t=0.82
-11.535004222523703
% V (V) @ t=0.82
0.014214289093573975
% es.normE (V/m) @ t=0.84
16.74957897382413
% es.EX (V/m) @ t=0.84
10.629273996321594
% es.EY (V/m) @ t=0.84
3.1785233094611915
% es.EZ (V/m) @ t=0.84
-11.642967737834034
% es.tEX (V/m) @ t=0.84
10.629273996321576
% es.tEY (V/m) @ t=0.84
0
% es.tEZ (V/m) @ t=0.84
-11.64296773783402
% es.Ex (V/m) @ t=0.84
10.629273996321594
% es.Ey (V/m) @ t=0.84
3.1785233094611915
% es.Ez (V/m) @ t=0.84
-11.642967737834034
% es.tEx (V/m) @ t=0.84
10.629273996321576
% es.tEy (V/m) @ t=0.84
0
% es.tEz (V/m) @ t=0.84
-11.64296773783402
% V (V) @ t=0.84
0.01434732975257436
% es.normE (V/m) @ t=0.86
16.90489533949538
% es.EX (V/m) @ t=0.86
10.727837680914734
% es.EY (V/m) @ t=0.86
3.20799728753315
% es.EZ (V/m) @ t=0.86
-11.750931253144294
% es.tEX (V/m) @ t=0.86
10.727837680914714
% es.tEY (V/m) @ t=0.86
0
% es.tEZ (V/m) @ t=0.86
-11.750931253144266
% es.Ex (V/m) @ t=0.86
10.727837680914734
% es.Ey (V/m) @ t=0.86
3.20799728753315
% es.Ez (V/m) @ t=0.86
-11.750931253144294
% es.tEx (V/m) @ t=0.86
10.727837680914714
% es.tEy (V/m) @ t=0.86
0
% es.tEz (V/m) @ t=0.86
-11.750931253144266
% V (V) @ t=0.86
0.014480370411574748
% es.normE (V/m) @ t=0.88
17.060211705166672
% es.EX (V/m) @ t=0.88
10.826401365507826
% es.EY (V/m) @ t=0.88
3.2374712656050875
% es.EZ (V/m) @ t=0.88
-11.858894768454633
% es.tEX (V/m) @ t=0.88
10.826401365507813
% es.tEY (V/m) @ t=0.88
0
% es.tEZ (V/m) @ t=0.88
-11.858894768454604
% es.Ex (V/m) @ t=0.88
10.826401365507826
% es.Ey (V/m) @ t=0.88
3.2374712656050875
% es.Ez (V/m) @ t=0.88
-11.858894768454633
% es.tEx (V/m) @ t=0.88
10.826401365507813
% es.tEy (V/m) @ t=0.88
0
% es.tEz (V/m) @ t=0.88
-11.858894768454604
% V (V) @ t=0.88
0.014613411070575136
% es.normE (V/m) @ t=0.9
17.215528070837944
% es.EX (V/m) @ t=0.9
10.924965050100939
% es.EY (V/m) @ t=0.9
3.2669452436771023
% es.EZ (V/m) @ t=0.9
-11.966858283764921
% es.tEX (V/m) @ t=0.9
10.92496505010092
% es.tEY (V/m) @ t=0.9
0
% es.tEZ (V/m) @ t=0.9
-11.966858283764893
% es.Ex (V/m) @ t=0.9
10.924965050100939
% es.Ey (V/m) @ t=0.9
3.2669452436771023
% es.Ez (V/m) @ t=0.9
-11.966858283764921
% es.tEx (V/m) @ t=0.9
10.92496505010092
% es.tEy (V/m) @ t=0.9
0
% es.tEz (V/m) @ t=0.9
-11.966858283764893
% V (V) @ t=0.9
0.014746451729575524
% es.normE (V/m) @ t=0.92
17.370844436509177
% es.EX (V/m) @ t=0.92
11.02352873469402
% es.EY (V/m) @ t=0.92
3.2964192217490744
% es.EZ (V/m) @ t=0.92
-12.074821799075195
% es.tEX (V/m) @ t=0.92
11.02352873469399
% es.tEY (V/m) @ t=0.92
0
% es.tEZ (V/m) @ t=0.92
-12.074821799075174
% es.Ex (V/m) @ t=0.92
11.02352873469402
% es.Ey (V/m) @ t=0.92
3.2964192217490744
% es.Ez (V/m) @ t=0.92
-12.074821799075195
% es.tEx (V/m) @ t=0.92
11.02352873469399
% es.tEy (V/m) @ t=0.92
0
% es.tEz (V/m) @ t=0.92
-12.074821799075174
% V (V) @ t=0.92
0.014879492388575909
% es.normE (V/m) @ t=0.94
17.526160802180463
% es.EX (V/m) @ t=0.94
11.122092419287172
% es.EY (V/m) @ t=0.94
3.325893199821026
% es.EZ (V/m) @ t=0.94
-12.182785314385498
% es.tEX (V/m) @ t=0.94
11.122092419287146
% es.tEY (V/m) @ t=0.94
0
% es.tEZ (V/m) @ t=0.94
-12.182785314385477
% es.Ex (V/m) @ t=0.94
11.122092419287172
% es.Ey (V/m) @ t=0.94
3.325893199821026
% es.Ez (V/m) @ t=0.94
-12.182785314385498
% es.tEx (V/m) @ t=0.94
11.122092419287146
% es.tEy (V/m) @ t=0.94
0
% es.tEz (V/m) @ t=0.94
-12.182785314385477
% V (V) @ t=0.94
0.0150125330475763
% es.normE (V/m) @ t=0.96
17.681477167851746
% es.EX (V/m) @ t=0.96
11.220656103880264
% es.EY (V/m) @ t=0.96
3.3553671778930125
% es.EZ (V/m) @ t=0.96
-12.290748829695836
% es.tEX (V/m) @ t=0.96
11.220656103880245
% es.tEY (V/m) @ t=0.96
0
% es.tEZ (V/m) @ t=0.96
-12.290748829695815
% es.Ex (V/m) @ t=0.96
11.220656103880264
% es.Ey (V/m) @ t=0.96
3.3553671778930125
% es.Ez (V/m) @ t=0.96
-12.290748829695836
% es.tEx (V/m) @ t=0.96
11.220656103880245
% es.tEy (V/m) @ t=0.96
0
% es.tEz (V/m) @ t=0.96
-12.290748829695815
% V (V) @ t=0.96
0.015145573706576685
% es.normE (V/m) @ t=0.98
17.836793533522986
% es.EX (V/m) @ t=0.98
11.319219788473358
% es.EY (V/m) @ t=0.98
3.384841155964992
% es.EZ (V/m) @ t=0.98
-12.398712345006098
% es.tEX (V/m) @ t=0.98
11.31921978847334
% es.tEY (V/m) @ t=0.98
0
% es.tEZ (V/m) @ t=0.98
-12.398712345006068
% es.Ex (V/m) @ t=0.98
11.319219788473358
% es.Ey (V/m) @ t=0.98
3.384841155964992
% es.Ez (V/m) @ t=0.98
-12.398712345006098
% es.tEx (V/m) @ t=0.98
11.31921978847334
% es.tEy (V/m) @ t=0.98
0
% es.tEz (V/m) @ t=0.98
-12.398712345006068
% V (V) @ t=0.98
0.015278614365577073
% es.normE (V/m) @ t=1
17.992109899194276
% es.EX (V/m) @ t=1
11.41778347306648
% es.EY (V/m) @ t=1
3.414315134036986
% es.EZ (V/m) @ t=1
-12.506675860316392
% es.tEX (V/m) @ t=1
11.41778347306645
% es.tEY (V/m) @ t=1
0
% es.tEZ (V/m) @ t=1
-12.506675860316378
% es.Ex (V/m) @ t=1
11.41778347306648
% es.Ey (V/m) @ t=1
3.414315134036986
% es.Ez (V/m) @ t=1
-12.506675860316392
% es.tEx (V/m) @ t=1
11.41778347306645
% es.tEy (V/m) @ t=1
0
% es.tEz (V/m) @ t=1
-12.506675860316378
% V (V) @ t=1
0.015411655024577458
% es.normE (V/m) @ t=1.02
18.147426264865558
% es.EX (V/m) @ t=1.02
11.516347157659599
% es.EY (V/m) @ t=1.02
3.4437891121089432
% es.EZ (V/m) @ t=1.02
-12.61463937562671
% es.tEX (V/m) @ t=1.02
11.516347157659574
% es.tEY (V/m) @ t=1.02
0
% es.tEZ (V/m) @ t=1.02
-12.614639375626666
% es.Ex (V/m) @ t=1.02
11.516347157659599
% es.Ey (V/m) @ t=1.02
3.4437891121089432
% es.Ez (V/m) @ t=1.02
-12.61463937562671
% es.tEx (V/m) @ t=1.02
11.516347157659574
% es.tEy (V/m) @ t=1.02
0
% es.tEz (V/m) @ t=1.02
-12.614639375626666
% V (V) @ t=1.02
0.015544695683577846
% es.normE (V/m) @ t=1.04
18.30929012757918
% es.EX (V/m) @ t=1.04
11.619065883978386
% es.EY (V/m) @ t=1.04
3.474505602757697
% es.EZ (V/m) @ t=1.04
-12.727154184604522
% es.tEX (V/m) @ t=1.04
11.619065883978365
% es.tEY (V/m) @ t=1.04
0
% es.tEZ (V/m) @ t=1.04
-12.727154184604494
% es.Ex (V/m) @ t=1.04
11.619065883978386
% es.Ey (V/m) @ t=1.04
3.474505602757697
% es.Ez (V/m) @ t=1.04
-12.727154184604522
% es.tEx (V/m) @ t=1.04
11.619065883978365
% es.tEy (V/m) @ t=1.04
0
% es.tEz (V/m) @ t=1.04
-12.727154184604494
% V (V) @ t=1.04
0.01568334476071525
% es.normE (V/m) @ t=1.06