% Model:              1 neuron.mph
% Version:            COMSOL 6.1.0.252
% Date:               Mar 22 2023, 18:38
% Dimension:          0
% Nodes:              14017
% Expressions:        14017
% Description:        Electric field norm, Electric field, X component, Electric field, Y component, Electric field, Z component, Tangential electric field, X component, Tangential electric field, Y component, Tangential electric field, Z component, Electric field, x component, Electric field, y component, Electric field, z component, Tangential electric field, x component, Tangential electric field, y component, Tangential electric field, z component, Electric potential
% Length unit:        mm
% x
1.33
% y
12.2
% z
1
% es.normE (V/m) @ t=0
2.838599887008833
% es.EX (V/m) @ t=0
0.8761723457944937
% es.EY (V/m) @ t=0
0.2122646625794271
% es.EZ (V/m) @ t=0
2.691618539406292
% es.tEX (V/m) @ t=0
0.8761723457944939
% es.tEY (V/m) @ t=0
0
% es.tEZ (V/m) @ t=0
2.6916185394062886
% es.Ex (V/m) @ t=0
0.8761723457944937
% es.Ey (V/m) @ t=0
0.2122646625794271
% es.Ez (V/m) @ t=0
2.691618539406292
% es.tEx (V/m) @ t=0
0.8761723457944939
% es.tEy (V/m) @ t=0
0
% es.tEz (V/m) @ t=0
2.6916185394062886
% V (V) @ t=0
0.01327620536746222
% es.normE (V/m) @ t=0.02
2.4517135706262976
% es.EX (V/m) @ t=0.02
0.756754638241126
% es.EY (V/m) @ t=0.02
0.18333409923428812
% es.EZ (V/m) @ t=0.02
2.324765011857398
% es.tEX (V/m) @ t=0.02
0.7567546382411194
% es.tEY (V/m) @ t=0.02
0
% es.tEZ (V/m) @ t=0.02
2.3247650118574157
% es.Ex (V/m) @ t=0.02
0.756754638241126
% es.Ey (V/m) @ t=0.02
0.18333409923428812
% es.Ez (V/m) @ t=0.02
2.324765011857398
% es.tEx (V/m) @ t=0.02
0.7567546382411194
% es.tEy (V/m) @ t=0.02
0
% es.tEz (V/m) @ t=0.02
2.3247650118574157
% V (V) @ t=0.02
0.011466727984688218
% es.normE (V/m) @ t=0.04
2.4742528281371854
% es.EX (V/m) @ t=0.04
0.763711685826598
% es.EY (V/m) @ t=0.04
0.18501953830396867
% es.EZ (V/m) @ t=0.04
2.3461371973505747
% es.tEX (V/m) @ t=0.04
0.7637116858265998
% es.tEY (V/m) @ t=0.04
0
% es.tEZ (V/m) @ t=0.04
2.3461371973505756
% es.Ex (V/m) @ t=0.04
0.763711685826598
% es.Ey (V/m) @ t=0.04
0.18501953830396867
% es.Ez (V/m) @ t=0.04
2.3461371973505747
% es.tEx (V/m) @ t=0.04
0.7637116858265998
% es.tEy (V/m) @ t=0.04
0
% es.tEz (V/m) @ t=0.04
2.3461371973505756
% V (V) @ t=0.04
0.011572144615872207
% es.normE (V/m) @ t=0.06
2.496954207903274
% es.EX (V/m) @ t=0.06
0.7707187743204228
% es.EY (V/m) @ t=0.06
0.1867171012605302
% es.EZ (V/m) @ t=0.06
2.3676631105294756
% es.tEX (V/m) @ t=0.06
0.7707187743204358
% es.tEY (V/m) @ t=0.06
0
% es.tEZ (V/m) @ t=0.06
2.3676631105295005
% es.Ex (V/m) @ t=0.06
0.7707187743204228
% es.Ey (V/m) @ t=0.06
0.1867171012605302
% es.Ez (V/m) @ t=0.06
2.3676631105294756
% es.tEx (V/m) @ t=0.06
0.7707187743204358
% es.tEy (V/m) @ t=0.06
0
% es.tEz (V/m) @ t=0.06
2.3676631105295005
% V (V) @ t=0.06
0.011678319661399103
% es.normE (V/m) @ t=0.08
2.5200953457268724
% es.EX (V/m) @ t=0.08
0.7778616002646715
% es.EY (V/m) @ t=0.08
0.18844754802744823
% es.EZ (V/m) @ t=0.08
2.38960601128426
% es.tEX (V/m) @ t=0.08
0.7778616002646785
% es.tEY (V/m) @ t=0.08
0
% es.tEZ (V/m) @ t=0.08
2.389606011284272
% es.Ex (V/m) @ t=0.08
0.7778616002646715
% es.Ey (V/m) @ t=0.08
0.18844754802744823
% es.Ez (V/m) @ t=0.08
2.38960601128426
% es.tEx (V/m) @ t=0.08
0.7778616002646785
% es.tEy (V/m) @ t=0.08
0
% es.tEz (V/m) @ t=0.08
2.389606011284272
% V (V) @ t=0.08
0.011786551379252011
% es.normE (V/m) @ t=0.1
2.543347557837846
% es.EX (V/m) @ t=0.1
0.7850387108349987
% es.EY (V/m) @ t=0.1
0.19018630060190933
% es.EZ (V/m) @ t=0.1
2.411654234947966
% es.tEX (V/m) @ t=0.1
0.7850387108349963
% es.tEY (V/m) @ t=0.1
0
% es.tEZ (V/m) @ t=0.1
2.411654234947978
% es.Ex (V/m) @ t=0.1
0.7850387108349987
% es.Ey (V/m) @ t=0.1
0.19018630060190933
% es.Ez (V/m) @ t=0.1
2.411654234947966
% es.tEx (V/m) @ t=0.1
0.7850387108349963
% es.tEy (V/m) @ t=0.1
0
% es.tEz (V/m) @ t=0.1
2.411654234947978
% V (V) @ t=0.1
0.01189530257232324
% es.normE (V/m) @ t=0.12
2.5665997699488354
% es.EX (V/m) @ t=0.12
0.7922158214053384
% es.EY (V/m) @ t=0.12
0.1919250531763701
% es.EZ (V/m) @ t=0.12
2.433702458611685
% es.tEX (V/m) @ t=0.12
0.7922158214053496
% es.tEY (V/m) @ t=0.12
0
% es.tEZ (V/m) @ t=0.12
2.4337024586116875
% es.Ex (V/m) @ t=0.12
0.7922158214053384
% es.Ey (V/m) @ t=0.12
0.1919250531763701
% es.Ez (V/m) @ t=0.12
2.433702458611685
% es.tEx (V/m) @ t=0.12
0.7922158214053496
% es.tEy (V/m) @ t=0.12
0
% es.tEz (V/m) @ t=0.12
2.4337024586116875
% V (V) @ t=0.12
0.01200405376539447
% es.normE (V/m) @ t=0.14
2.590552193912054
% es.EX (V/m) @ t=0.14
0.7996090618326264
% es.EY (V/m) @ t=0.14
0.19371616607108233
% es.EZ (V/m) @ t=0.14
2.456414637507029
% es.tEX (V/m) @ t=0.14
0.7996090618326264
% es.tEY (V/m) @ t=0.14
0
% es.tEZ (V/m) @ t=0.14
2.456414637507022
% es.Ex (V/m) @ t=0.14
0.7996090618326264
% es.Ey (V/m) @ t=0.14
0.19371616607108233
% es.Ez (V/m) @ t=0.14
2.456414637507029
% es.tEx (V/m) @ t=0.14
0.7996090618326264
% es.tEy (V/m) @ t=0.14
0
% es.tEz (V/m) @ t=0.14
2.456414637507022
% V (V) @ t=0.14
0.012116079864296749
% es.normE (V/m) @ t=0.16
2.6149657259027954
% es.EX (V/m) @ t=0.16
0.80714462948805
% es.EY (V/m) @ t=0.16
0.19554175962177656
% es.EZ (V/m) @ t=0.16
2.4795640484861208
% es.tEX (V/m) @ t=0.16
0.8071446294880502
% es.tEY (V/m) @ t=0.16
0
% es.tEZ (V/m) @ t=0.16
2.4795640484861217
% es.Ex (V/m) @ t=0.16
0.80714462948805
% es.Ey (V/m) @ t=0.16
0.19554175962177656
% es.Ez (V/m) @ t=0.16
2.4795640484861208
% es.tEx (V/m) @ t=0.16
0.8071446294880502
% es.tEy (V/m) @ t=0.16
0
% es.tEz (V/m) @ t=0.16
2.4795640484861217
% V (V) @ t=0.16
0.012230262575320502
% es.normE (V/m) @ t=0.18
2.6393792578935287
% es.EX (V/m) @ t=0.18
0.8146801971434632
% es.EY (V/m) @ t=0.18
0.19736735317248866
% es.EZ (V/m) @ t=0.18
2.5027134594652054
% es.tEX (V/m) @ t=0.18
0.8146801971434598
% es.tEY (V/m) @ t=0.18
0
% es.tEZ (V/m) @ t=0.18
2.5027134594652036
% es.Ex (V/m) @ t=0.18
0.8146801971434632
% es.Ey (V/m) @ t=0.18
0.19736735317248866
% es.Ez (V/m) @ t=0.18
2.5027134594652054
% es.tEx (V/m) @ t=0.18
0.8146801971434598
% es.tEy (V/m) @ t=0.18
0
% es.tEz (V/m) @ t=0.18
2.5027134594652036
% V (V) @ t=0.18
0.012344445286344255
% es.normE (V/m) @ t=0.2
2.663792789884277
% es.EX (V/m) @ t=0.2
0.8222157647988906
% es.EY (V/m) @ t=0.2
0.19919294672320453
% es.EZ (V/m) @ t=0.2
2.525862870444301
% es.tEX (V/m) @ t=0.2
0.8222157647988908
% es.tEY (V/m) @ t=0.2
0
% es.tEZ (V/m) @ t=0.2
2.5258628704443034
% es.Ex (V/m) @ t=0.2
0.8222157647988906
% es.Ey (V/m) @ t=0.2
0.19919294672320453
% es.Ez (V/m) @ t=0.2
2.525862870444301
% es.tEx (V/m) @ t=0.2
0.8222157647988908
% es.tEy (V/m) @ t=0.2
0
% es.tEz (V/m) @ t=0.2
2.5258628704443034
% V (V) @ t=0.2
0.012458627997368006
% es.normE (V/m) @ t=0.22
2.688206321875011
% es.EX (V/m) @ t=0.22
0.8297513324543102
% es.EY (V/m) @ t=0.22
0.20101854027388122
% es.EZ (V/m) @ t=0.22
2.5490122814233875
% es.tEX (V/m) @ t=0.22
0.8297513324543146
% es.tEY (V/m) @ t=0.22
0
% es.tEZ (V/m) @ t=0.22
2.549012281423403
% es.Ex (V/m) @ t=0.22
0.8297513324543102
% es.Ey (V/m) @ t=0.22
0.20101854027388122
% es.Ez (V/m) @ t=0.22
2.5490122814233875
% es.tEx (V/m) @ t=0.22
0.8297513324543146
% es.tEy (V/m) @ t=0.22
0
% es.tEz (V/m) @ t=0.22
2.549012281423403
% V (V) @ t=0.22
0.012572810708391759
% es.normE (V/m) @ t=0.24
2.712619853865757
% es.EX (V/m) @ t=0.24
0.8372869001097201
% es.EY (V/m) @ t=0.24
0.20284413382459365
% es.EZ (V/m) @ t=0.24
2.572161692402486
% es.tEX (V/m) @ t=0.24
0.8372869001097243
% es.tEY (V/m) @ t=0.24
0
% es.tEZ (V/m) @ t=0.24
2.572161692402485
% es.Ex (V/m) @ t=0.24
0.8372869001097201
% es.Ey (V/m) @ t=0.24
0.20284413382459365
% es.Ez (V/m) @ t=0.24
2.572161692402486
% es.tEx (V/m) @ t=0.24
0.8372869001097243
% es.tEy (V/m) @ t=0.24
0
% es.tEz (V/m) @ t=0.24
2.572161692402485
% V (V) @ t=0.24
0.012686993419415512
% es.normE (V/m) @ t=0.26
2.7375833980804796
% es.EX (V/m) @ t=0.26
0.8449922364467297
% es.EY (V/m) @ t=0.26
0.2047108563448533
% es.EZ (V/m) @ t=0.26
2.5958326362355955
% es.tEX (V/m) @ t=0.26
0.8449922364467284
% es.tEY (V/m) @ t=0.26
0
% es.tEZ (V/m) @ t=0.26
2.5958326362355884
% es.Ex (V/m) @ t=0.26
0.8449922364467297
% es.Ey (V/m) @ t=0.26
0.2047108563448533
% es.Ez (V/m) @ t=0.26
2.5958326362355955
% es.tEx (V/m) @ t=0.26
0.8449922364467284
% es.tEy (V/m) @ t=0.26
0
% es.tEz (V/m) @ t=0.26
2.5958326362355884
% V (V) @ t=0.26
0.012803748583658849
% es.normE (V/m) @ t=0.28
2.764589728267312
% es.EX (V/m) @ t=0.28
0.8533281061903193
% es.EY (V/m) @ t=0.28
0.2067303348918632
% es.EZ (V/m) @ t=0.28
2.6214405915599697
% es.tEX (V/m) @ t=0.28
0.8533281061903253
% es.tEY (V/m) @ t=0.28
0
% es.tEZ (V/m) @ t=0.28
2.621440591559951
% es.Ex (V/m) @ t=0.28
0.8533281061903193
% es.Ey (V/m) @ t=0.28
0.2067303348918632
% es.Ez (V/m) @ t=0.28
2.6214405915599697
% es.tEx (V/m) @ t=0.28
0.8533281061903253
% es.tEy (V/m) @ t=0.28
0
% es.tEz (V/m) @ t=0.28
2.621440591559951
% V (V) @ t=0.28
0.012930058028919349
% es.normE (V/m) @ t=0.3
2.791596058454126
% es.EX (V/m) @ t=0.3
0.8616639759339018
% es.EY (V/m) @ t=0.3
0.20874981343887988
% es.EZ (V/m) @ t=0.3
2.647048546884326
% es.tEX (V/m) @ t=0.3
0.8616639759339009
% es.tEY (V/m) @ t=0.3
0
% es.tEZ (V/m) @ t=0.3
2.6470485468843243
% es.Ex (V/m) @ t=0.3
0.8616639759339018
% es.Ey (V/m) @ t=0.3
0.20874981343887988
% es.Ez (V/m) @ t=0.3
2.647048546884326
% es.tEx (V/m) @ t=0.3
0.8616639759339009
% es.tEy (V/m) @ t=0.3
0
% es.tEz (V/m) @ t=0.3
2.6470485468843243
% V (V) @ t=0.3
0.013056367474179847
% es.normE (V/m) @ t=0.32
2.818602388640957
% es.EX (V/m) @ t=0.32
0.8699998456774822
% es.EY (V/m) @ t=0.32
0.21076929198593275
% es.EZ (V/m) @ t=0.32
2.6726565022086985
% es.tEX (V/m) @ t=0.32
0.8699998456774907
% es.tEY (V/m) @ t=0.32
0
% es.tEZ (V/m) @ t=0.32
2.6726565022086746
% es.Ex (V/m) @ t=0.32
0.8699998456774822
% es.Ey (V/m) @ t=0.32
0.21076929198593275
% es.Ez (V/m) @ t=0.32
2.6726565022086985
% es.tEx (V/m) @ t=0.32
0.8699998456774907
% es.tEy (V/m) @ t=0.32
0
% es.tEz (V/m) @ t=0.32
2.6726565022086746
% V (V) @ t=0.32
0.013182676919440348
% es.normE (V/m) @ t=0.34
2.8456087188277746
% es.EX (V/m) @ t=0.34
0.8783357154210649
% es.EY (V/m) @ t=0.34
0.21278877053291767
% es.EZ (V/m) @ t=0.34
2.698264457533061
% es.tEX (V/m) @ t=0.34
0.8783357154210591
% es.tEY (V/m) @ t=0.34
0
% es.tEZ (V/m) @ t=0.34
2.6982644575330603
% es.Ex (V/m) @ t=0.34
0.8783357154210649
% es.Ey (V/m) @ t=0.34
0.21278877053291767
% es.Ez (V/m) @ t=0.34
2.698264457533061
% es.tEx (V/m) @ t=0.34
0.8783357154210591
% es.tEy (V/m) @ t=0.34
0
% es.tEz (V/m) @ t=0.34
2.6982644575330603
% V (V) @ t=0.34
0.013308986364700844
% es.normE (V/m) @ t=0.36
2.8726150490145743
% es.EX (V/m) @ t=0.36
0.8866715851646507
% es.EY (V/m) @ t=0.36
0.2148082490799521
% es.EZ (V/m) @ t=0.36
2.723872412857401
% es.tEX (V/m) @ t=0.36
0.886671585164656
% es.tEY (V/m) @ t=0.36
0
% es.tEZ (V/m) @ t=0.36
2.7238724128574106
% es.Ex (V/m) @ t=0.36
0.8866715851646507
% es.Ey (V/m) @ t=0.36
0.2148082490799521
% es.Ez (V/m) @ t=0.36
2.723872412857401
% es.tEx (V/m) @ t=0.36
0.886671585164656
% es.tEy (V/m) @ t=0.36
0
% es.tEz (V/m) @ t=0.36
2.7238724128574106
% V (V) @ t=0.36
0.013435295809961344
% es.normE (V/m) @ t=0.38
2.8996213792014167
% es.EX (V/m) @ t=0.38
0.8950074549082299
% es.EY (V/m) @ t=0.38
0.2168277276269439
% es.EZ (V/m) @ t=0.38
2.74948036818179
% es.tEX (V/m) @ t=0.38
0.8950074549082387
% es.tEY (V/m) @ t=0.38
0
% es.tEZ (V/m) @ t=0.38
2.749480368181782
% es.Ex (V/m) @ t=0.38
0.8950074549082299
% es.Ey (V/m) @ t=0.38
0.2168277276269439
% es.Ez (V/m) @ t=0.38
2.74948036818179
% es.tEx (V/m) @ t=0.38
0.8950074549082387
% es.tEy (V/m) @ t=0.38
0
% es.tEz (V/m) @ t=0.38
2.749480368181782
% V (V) @ t=0.38
0.013561605255221841
% es.normE (V/m) @ t=0.4
2.926627709388228
% es.EX (V/m) @ t=0.4
0.9033433246518197
% es.EY (V/m) @ t=0.4
0.2188472061739999
% es.EZ (V/m) @ t=0.4
2.7750883235061385
% es.tEX (V/m) @ t=0.4
0.9033433246518143
% es.tEY (V/m) @ t=0.4
0
% es.tEZ (V/m) @ t=0.4
2.7750883235061323
% es.Ex (V/m) @ t=0.4
0.9033433246518197
% es.Ey (V/m) @ t=0.4
0.2188472061739999
% es.Ez (V/m) @ t=0.4
2.7750883235061385
% es.tEx (V/m) @ t=0.4
0.9033433246518143
% es.tEy (V/m) @ t=0.4
0
% es.tEz (V/m) @ t=0.4
2.7750883235061323
% V (V) @ t=0.4
0.013687914700482341
% es.normE (V/m) @ t=0.42
2.953634039575057
% es.EX (V/m) @ t=0.42
0.9116791943953975
% es.EY (V/m) @ t=0.42
0.22086668472100635
% es.EZ (V/m) @ t=0.42
2.8006962788305136
% es.tEX (V/m) @ t=0.42
0.9116791943954041
% es.tEY (V/m) @ t=0.42
0
% es.tEZ (V/m) @ t=0.42
2.800696278830504
% es.Ex (V/m) @ t=0.42
0.9116791943953975
% es.Ey (V/m) @ t=0.42
0.22086668472100635
% es.Ez (V/m) @ t=0.42
2.8006962788305136
% es.tEx (V/m) @ t=0.42
0.9116791943954041
% es.tEy (V/m) @ t=0.42
0
% es.tEz (V/m) @ t=0.42
2.800696278830504
% V (V) @ t=0.42
0.013814224145742841
% es.normE (V/m) @ t=0.44
2.980640369761865
% es.EX (V/m) @ t=0.44
0.920015064138965
% es.EY (V/m) @ t=0.44
0.22288616326803035
% es.EZ (V/m) @ t=0.44
2.8263042341548674
% es.tEX (V/m) @ t=0.44
0.9200150641389655
% es.tEY (V/m) @ t=0.44
0
% es.tEZ (V/m) @ t=0.44
2.8263042341548683
% es.Ex (V/m) @ t=0.44
0.920015064138965
% es.Ey (V/m) @ t=0.44
0.22288616326803035
% es.Ez (V/m) @ t=0.44
2.8263042341548674
% es.tEx (V/m) @ t=0.44
0.9200150641389655
% es.tEy (V/m) @ t=0.44
0
% es.tEz (V/m) @ t=0.44
2.8263042341548683
% V (V) @ t=0.44
0.013940533591003341
% es.normE (V/m) @ t=0.46
3.007646699948681
% es.EX (V/m) @ t=0.46
0.9283509338825617
% es.EY (V/m) @ t=0.46
0.22490564181506878
% es.EZ (V/m) @ t=0.46
2.8519121894792203
% es.tEX (V/m) @ t=0.46
0.9283509338825553
% es.tEY (V/m) @ t=0.46
0
% es.tEZ (V/m) @ t=0.46
2.851912189479215
% es.Ex (V/m) @ t=0.46
0.9283509338825617
% es.Ey (V/m) @ t=0.46
0.22490564181506878
% es.Ez (V/m) @ t=0.46
2.8519121894792203
% es.tEx (V/m) @ t=0.46
0.9283509338825553
% es.tEy (V/m) @ t=0.46
0
% es.tEz (V/m) @ t=0.46
2.851912189479215
% V (V) @ t=0.46
0.014066843036263838
% es.normE (V/m) @ t=0.48
3.034653030135514
% es.EX (V/m) @ t=0.48
0.9366868036261498
% es.EY (V/m) @ t=0.48
0.2269251203620608
% es.EZ (V/m) @ t=0.48
2.877520144803597
% es.tEX (V/m) @ t=0.48
0.9366868036261593
% es.tEY (V/m) @ t=0.48
0
% es.tEZ (V/m) @ t=0.48
2.87752014480359
% es.Ex (V/m) @ t=0.48
0.9366868036261498
% es.Ey (V/m) @ t=0.48
0.2269251203620608
% es.Ez (V/m) @ t=0.48
2.877520144803597
% es.tEx (V/m) @ t=0.48
0.9366868036261593
% es.tEy (V/m) @ t=0.48
0
% es.tEz (V/m) @ t=0.48
2.87752014480359
% V (V) @ t=0.48
0.014193152481524337
% es.normE (V/m) @ t=0.5
3.061659360322314
% es.EX (V/m) @ t=0.5
0.9450226733697176
% es.EY (V/m) @ t=0.5
0.22894459890907792
% es.EZ (V/m) @ t=0.5
2.903128100127944
% es.tEX (V/m) @ t=0.5
0.9450226733697207
% es.tEY (V/m) @ t=0.5
0
% es.tEZ (V/m) @ t=0.5
2.903128100127951
% es.Ex (V/m) @ t=0.5
0.9450226733697176
% es.Ey (V/m) @ t=0.5
0.22894459890907792
% es.Ez (V/m) @ t=0.5
2.903128100127944
% es.tEx (V/m) @ t=0.5
0.9450226733697207
% es.tEy (V/m) @ t=0.5
0
% es.tEz (V/m) @ t=0.5
2.903128100127951
% V (V) @ t=0.5
0.014319461926784837
% es.normE (V/m) @ t=0.52
3.0899203728255173
% es.EX (V/m) @ t=0.52
0.9537458179276341
% es.EY (V/m) @ t=0.52
0.23105789975270818
% es.EZ (V/m) @ t=0.52
2.9299257709055917
% es.tEX (V/m) @ t=0.52
0.9537458179276399
% es.tEY (V/m) @ t=0.52
0
% es.tEZ (V/m) @ t=0.52
2.9299257709055944
% es.Ex (V/m) @ t=0.52
0.9537458179276341
% es.Ey (V/m) @ t=0.52
0.23105789975270818
% es.Ez (V/m) @ t=0.52
2.9299257709055917
% es.tEx (V/m) @ t=0.52
0.9537458179276399
% es.tEy (V/m) @ t=0.52
0
% es.tEz (V/m) @ t=0.52
2.9299257709055944
% V (V) @ t=0.52
0.014451639501216555
% es.normE (V/m) @ t=0.54
3.1198411628239615
% es.EX (V/m) @ t=0.54
0.9629812754534142
% es.EY (V/m) @ t=0.54
0.23329531499119294
% es.EZ (V/m) @ t=0.54
2.958297276676644
% es.tEX (V/m) @ t=0.54
0.9629812754534157
% es.tEY (V/m) @ t=0.54
0
% es.tEZ (V/m) @ t=0.54
2.9582972766766495
% es.Ex (V/m) @ t=0.54
0.9629812754534142
% es.Ey (V/m) @ t=0.54
0.23329531499119294
% es.Ez (V/m) @ t=0.54
2.958297276676644
% es.tEx (V/m) @ t=0.54
0.9629812754534157
% es.tEy (V/m) @ t=0.54
0
% es.tEz (V/m) @ t=0.54
2.9582972766766495
% V (V) @ t=0.54
0.014591579828506479
% es.normE (V/m) @ t=0.56
3.1497619528223484
% es.EX (V/m) @ t=0.56
0.9722167329791807
% es.EY (V/m) @ t=0.56
0.23553273022968768
% es.EZ (V/m) @ t=0.56
2.98666878244764
% es.tEX (V/m) @ t=0.56
0.9722167329791915
% es.tEY (V/m) @ t=0.56
0
% es.tEZ (V/m) @ t=0.56
2.9866687824476514
% es.Ex (V/m) @ t=0.56
0.9722167329791807
% es.Ey (V/m) @ t=0.56
0.23553273022968768
% es.Ez (V/m) @ t=0.56
2.98666878244764
% es.tEx (V/m) @ t=0.56
0.9722167329791915
% es.tEy (V/m) @ t=0.56
0
% es.tEz (V/m) @ t=0.56
2.9866687824476514
% V (V) @ t=0.56
0.014731520155796402
% es.normE (V/m) @ t=0.58
3.1796827428207775
% es.EX (V/m) @ t=0.58
0.9814521905049882
% es.EY (V/m) @ t=0.58
0.2377701454681147
% es.EZ (V/m) @ t=0.58
3.015040288218672
% es.tEX (V/m) @ t=0.58
0.9814521905049816
% es.tEY (V/m) @ t=0.58
0
% es.tEZ (V/m) @ t=0.58
3.0150402882186746
% es.Ex (V/m) @ t=0.58
0.9814521905049882
% es.Ey (V/m) @ t=0.58
0.2377701454681147
% es.Ez (V/m) @ t=0.58
3.015040288218672
% es.tEx (V/m) @ t=0.58
0.9814521905049816
% es.tEy (V/m) @ t=0.58
0
% es.tEz (V/m) @ t=0.58
3.0150402882186746
% V (V) @ t=0.58
0.014871460483086327
% es.normE (V/m) @ t=0.6
3.2096035328192105
% es.EX (V/m) @ t=0.6
0.9906876480307778
% es.EY (V/m) @ t=0.6
0.24000756070659213
% es.EZ (V/m) @ t=0.6
3.0434117939897103
% es.tEX (V/m) @ t=0.6
0.9906876480307858
% es.tEY (V/m) @ t=0.6
0
% es.tEZ (V/m) @ t=0.6
3.0434117939897156
% es.Ex (V/m) @ t=0.6
0.9906876480307778
% es.Ey (V/m) @ t=0.6
0.24000756070659213
% es.Ez (V/m) @ t=0.6
3.0434117939897103
% es.tEx (V/m) @ t=0.6
0.9906876480307858
% es.tEy (V/m) @ t=0.6
0
% es.tEz (V/m) @ t=0.6
3.0434117939897156
% V (V) @ t=0.6
0.01501140081037625
% es.normE (V/m) @ t=0.62
3.2395243228176147
% es.EX (V/m) @ t=0.62
0.9999231055565614
% es.EY (V/m) @ t=0.62
0.24224497594506622
% es.EZ (V/m) @ t=0.62
3.07178329976072
% es.tEX (V/m) @ t=0.62
0.9999231055565758
% es.tEY (V/m) @ t=0.62
0
% es.tEZ (V/m) @ t=0.62
3.071783299760728
% es.Ex (V/m) @ t=0.62
0.9999231055565614
% es.Ey (V/m) @ t=0.62
0.24224497594506622
% es.Ez (V/m) @ t=0.62
3.07178329976072
% es.tEx (V/m) @ t=0.62
0.9999231055565758
% es.tEy (V/m) @ t=0.62
0
% es.tEz (V/m) @ t=0.62
3.071783299760728
% V (V) @ t=0.62
0.015151341137666174
% es.normE (V/m) @ t=0.64
3.269445112816065
% es.EX (V/m) @ t=0.64
1.0091585630823459
% es.EY (V/m) @ t=0.64
0.24448239118353188
% es.EZ (V/m) @ t=0.64
3.10015480553178
% es.tEX (V/m) @ t=0.64
1.0091585630823374
% es.tEY (V/m) @ t=0.64
0
% es.tEZ (V/m) @ t=0.64
3.1001548055317834
% es.Ex (V/m) @ t=0.64
1.0091585630823459
% es.Ey (V/m) @ t=0.64
0.24448239118353188
% es.Ez (V/m) @ t=0.64
3.10015480553178
% es.tEx (V/m) @ t=0.64
1.0091585630823374
% es.tEy (V/m) @ t=0.64
0
% es.tEz (V/m) @ t=0.64
3.1001548055317834
% V (V) @ t=0.64
0.015291281464956098
% es.normE (V/m) @ t=0.66
3.299365902814457
% es.EX (V/m) @ t=0.66
1.0183940206081443
% es.EY (V/m) @ t=0.66
0.2467198064220486
% es.EZ (V/m) @ t=0.66
3.1285263113027684
% es.tEX (V/m) @ t=0.66
1.0183940206081417
% es.tEY (V/m) @ t=0.66
0
% es.tEZ (V/m) @ t=0.66
3.128526311302796
% es.Ex (V/m) @ t=0.66
1.0183940206081443
% es.Ey (V/m) @ t=0.66
0.2467198064220486
% es.Ez (V/m) @ t=0.66
3.1285263113027684
% es.tEx (V/m) @ t=0.66
1.0183940206081417
% es.tEy (V/m) @ t=0.66
0
% es.tEz (V/m) @ t=0.66
3.128526311302796
% V (V) @ t=0.66
0.015431221792246022
% es.normE (V/m) @ t=0.68
3.329286692812897
% es.EX (V/m) @ t=0.68
1.0276294781339317
% es.EY (V/m) @ t=0.68
0.24895722166053247
% es.EZ (V/m) @ t=0.68
3.156897817073814
% es.tEX (V/m) @ t=0.68
1.027629478133946
% es.tEY (V/m) @ t=0.68
0
% es.tEZ (V/m) @ t=0.68
3.1568978170738227
% es.Ex (V/m) @ t=0.68
1.0276294781339317
% es.Ey (V/m) @ t=0.68
0.24895722166053247
% es.Ez (V/m) @ t=0.68
3.156897817073814
% es.tEx (V/m) @ t=0.68
1.027629478133946
% es.tEy (V/m) @ t=0.68
0
% es.tEz (V/m) @ t=0.68
3.1568978170738227
% V (V) @ t=0.68
0.015571162119535945
% es.normE (V/m) @ t=0.7
3.3592074828113088
% es.EX (V/m) @ t=0.7
1.0368649356597093
% es.EY (V/m) @ t=0.7
0.2511946368989637
% es.EZ (V/m) @ t=0.7
3.185269322844837
% es.tEX (V/m) @ t=0.7
1.0368649356597075
% es.tEY (V/m) @ t=0.7
0
% es.tEZ (V/m) @ t=0.7
3.185269322844846
% es.Ex (V/m) @ t=0.7
1.0368649356597093
% es.Ey (V/m) @ t=0.7
0.2511946368989637
% es.Ez (V/m) @ t=0.7
3.185269322844837
% es.tEx (V/m) @ t=0.7
1.0368649356597075
% es.tEy (V/m) @ t=0.7
0
% es.tEz (V/m) @ t=0.7
3.185269322844846
% V (V) @ t=0.7
0.01571110244682587
% es.normE (V/m) @ t=0.72
3.389128272809753
% es.EX (V/m) @ t=0.72
1.0461003931855057
% es.EY (V/m) @ t=0.72
0.25343205213745446
% es.EZ (V/m) @ t=0.72
3.213640828615884
% es.tEX (V/m) @ t=0.72
1.0461003931855117
% es.tEY (V/m) @ t=0.72
0
% es.tEZ (V/m) @ t=0.72
3.2136408286158904
% es.Ex (V/m) @ t=0.72
1.0461003931855057
% es.Ey (V/m) @ t=0.72
0.25343205213745446
% es.Ez (V/m) @ t=0.72
3.213640828615884
% es.tEx (V/m) @ t=0.72
1.0461003931855117
% es.tEy (V/m) @ t=0.72
0
% es.tEz (V/m) @ t=0.72
3.2136408286158904
% V (V) @ t=0.72
0.015851042774115795
% es.normE (V/m) @ t=0.74
3.4190490628081682
% es.EX (V/m) @ t=0.74
1.0553358507112947
% es.EY (V/m) @ t=0.74
0.25566946737597473
% es.EZ (V/m) @ t=0.74
3.2420123343869003
% es.tEX (V/m) @ t=0.74
1.0553358507113018
% es.tEY (V/m) @ t=0.74
0
% es.tEZ (V/m) @ t=0.74
3.242012334386903
% es.Ex (V/m) @ t=0.74
1.0553358507112947
% es.Ey (V/m) @ t=0.74
0.25566946737597473
% es.Ez (V/m) @ t=0.74
3.2420123343869003
% es.tEx (V/m) @ t=0.74
1.0553358507113018
% es.tEy (V/m) @ t=0.74
0
% es.tEz (V/m) @ t=0.74
3.242012334386903
% V (V) @ t=0.74
0.015990983101405717
% es.normE (V/m) @ t=0.76
3.4489698528065835
% es.EX (V/m) @ t=0.76
1.0645713082370694
% es.EY (V/m) @ t=0.76
0.2579068826144415
% es.EZ (V/m) @ t=0.76
3.2703838401579253
% es.tEX (V/m) @ t=0.76
1.0645713082370634
% es.tEY (V/m) @ t=0.76
0
% es.tEZ (V/m) @ t=0.76
3.270383840157926
% es.Ex (V/m) @ t=0.76
1.0645713082370694
% es.Ey (V/m) @ t=0.76
0.2579068826144415
% es.Ez (V/m) @ t=0.76
3.2703838401579253
% es.tEx (V/m) @ t=0.76
1.0645713082370634
% es.tEy (V/m) @ t=0.76
0
% es.tEz (V/m) @ t=0.76
3.270383840157926
% V (V) @ t=0.76
0.01613092342869564
% es.normE (V/m) @ t=0.78
3.48102014699378
% es.EX (V/m) @ t=0.78
1.0744640661162876
% es.EY (V/m) @ t=0.78
0.26030353778940785
% es.EZ (V/m) @ t=0.78
3.300774585404424
% es.tEX (V/m) @ t=0.78
1.074464066116306
% es.tEY (V/m) @ t=0.78
0
% es.tEZ (V/m) @ t=0.78
3.3007745854044437
% es.Ex (V/m) @ t=0.78
1.0744640661162876
% es.Ey (V/m) @ t=0.78
0.26030353778940785
% es.Ez (V/m) @ t=0.78
3.300774585404424
% es.tEx (V/m) @ t=0.78
1.074464066116306
% es.tEy (V/m) @ t=0.78
0
% es.tEz (V/m) @ t=0.78
3.3007745854044437
% V (V) @ t=0.78
0.016280823499910866
% es.normE (V/m) @ t=0.8
3.514222780898349
% es.EX (V/m) @ t=0.8
1.0847125092801533
% es.EY (V/m) @ t=0.8
0.26278636255472443
% es.EZ (V/m) @ t=0.8
3.3322580027662028
% es.tEX (V/m) @ t=0.8
1.084712509280152
% es.tEY (V/m) @ t=0.8
0
% es.tEZ (V/m) @ t=0.8
3.3322580027662028
% es.Ex (V/m) @ t=0.8
1.0847125092801533
% es.Ey (V/m) @ t=0.8
0.26278636255472443
% es.Ez (V/m) @ t=0.8
3.3322580027662028
% es.tEx (V/m) @ t=0.8
1.084712509280152
% es.tEy (V/m) @ t=0.8
0
% es.tEz (V/m) @ t=0.8
3.3322580027662028
% V (V) @ t=0.8
0.016436113092574145
% es.normE (V/m) @ t=0.82
3.547425414802823
% es.EX (V/m) @ t=0.82
1.094960952443966
% es.EY (V/m) @ t=0.82
0.2652691873199482
% es.EZ (V/m) @ t=0.82
3.363741420127906
% es.tEX (V/m) @ t=0.82
1.0949609524439552
% es.tEY (V/m) @ t=0.82
0
% es.tEZ (V/m) @ t=0.82
3.363741420127937
% es.Ex (V/m) @ t=0.82
1.094960952443966
% es.Ey (V/m) @ t=0.82
0.2652691873199482
% es.Ez (V/m) @ t=0.82
3.363741420127906
% es.tEx (V/m) @ t=0.82
1.0949609524439552
% es.tEy (V/m) @ t=0.82
0
% es.tEz (V/m) @ t=0.82
3.363741420127937
% V (V) @ t=0.82
0.016591402685237427
% es.normE (V/m) @ t=0.84
3.5806280487073634
% es.EX (V/m) @ t=0.84
1.1052093956077924
% es.EY (V/m) @ t=0.84
0.26775201208524724
% es.EZ (V/m) @ t=0.84
3.3952248374896685
% es.tEX (V/m) @ t=0.84
1.105209395607801
% es.tEY (V/m) @ t=0.84
0
% es.tEZ (V/m) @ t=0.84
3.3952248374896783
% es.Ex (V/m) @ t=0.84
1.1052093956077924
% es.Ey (V/m) @ t=0.84
0.26775201208524724
% es.Ez (V/m) @ t=0.84
3.3952248374896685
% es.tEx (V/m) @ t=0.84
1.105209395607801
% es.tEy (V/m) @ t=0.84
0
% es.tEz (V/m) @ t=0.84
3.3952248374896783
% V (V) @ t=0.84
0.016746692277900703
% es.normE (V/m) @ t=0.86
3.613830682611839
% es.EX (V/m) @ t=0.86
1.115457838771604
% es.EY (V/m) @ t=0.86
0.27023483685048166
% es.EZ (V/m) @ t=0.86
3.4267082548513725
% es.tEX (V/m) @ t=0.86
1.1154578387716185
% es.tEY (V/m) @ t=0.86
0
% es.tEZ (V/m) @ t=0.86
3.426708254851377
% es.Ex (V/m) @ t=0.86
1.115457838771604
% es.Ey (V/m) @ t=0.86
0.27023483685048166
% es.Ez (V/m) @ t=0.86
3.4267082548513725
% es.tEx (V/m) @ t=0.86
1.1154578387716185
% es.tEy (V/m) @ t=0.86
0
% es.tEz (V/m) @ t=0.86
3.426708254851377
% V (V) @ t=0.86
0.01690198187056398
% es.normE (V/m) @ t=0.88
3.6470333165163957
% es.EX (V/m) @ t=0.88
1.125706281935449
% es.EY (V/m) @ t=0.88
0.27271766161574873
% es.EZ (V/m) @ t=0.88
3.4581916722131494
% es.tEX (V/m) @ t=0.88
1.1257062819354502
% es.tEY (V/m) @ t=0.88
0
% es.tEZ (V/m) @ t=0.88
3.4581916722131467
% es.Ex (V/m) @ t=0.88
1.125706281935449
% es.Ey (V/m) @ t=0.88
0.27271766161574873
% es.Ez (V/m) @ t=0.88
3.4581916722131494
% es.tEx (V/m) @ t=0.88
1.1257062819354502
% es.tEy (V/m) @ t=0.88
0
% es.tEz (V/m) @ t=0.88
3.4581916722131467
% V (V) @ t=0.88
0.01705727146322726
% es.normE (V/m) @ t=0.9
3.680235950420875
% es.EX (V/m) @ t=0.9
1.1359547250992723
% es.EY (V/m) @ t=0.9
0.27520048638098027
% es.EZ (V/m) @ t=0.9
3.4896750895748534
% es.tEX (V/m) @ t=0.9
1.1359547250992819
% es.tEY (V/m) @ t=0.9
0
% es.tEZ (V/m) @ t=0.9
3.489675089574856
% es.Ex (V/m) @ t=0.9
1.1359547250992723
% es.Ey (V/m) @ t=0.9
0.27520048638098027
% es.Ez (V/m) @ t=0.9
3.4896750895748534
% es.tEx (V/m) @ t=0.9
1.1359547250992819
% es.tEy (V/m) @ t=0.9
0
% es.tEz (V/m) @ t=0.9
3.489675089574856
% V (V) @ t=0.9
0.017212561055890536
% es.normE (V/m) @ t=0.92
3.7134385843253748
% es.EX (V/m) @ t=0.92
1.1462031682630882
% es.EY (V/m) @ t=0.92
0.2776833111462367
% es.EZ (V/m) @ t=0.92
3.5211585069365796
% es.tEX (V/m) @ t=0.92
1.146203168263085
% es.tEY (V/m) @ t=0.92
0
% es.tEZ (V/m) @ t=0.92
3.5211585069365974
% es.Ex (V/m) @ t=0.92
1.1462031682630882
% es.Ey (V/m) @ t=0.92
0.2776833111462367
% es.Ez (V/m) @ t=0.92
3.5211585069365796
% es.tEx (V/m) @ t=0.92
1.146203168263085
% es.tEy (V/m) @ t=0.92
0
% es.tEz (V/m) @ t=0.92
3.5211585069365974
% V (V) @ t=0.92
0.01736785064855382
% es.normE (V/m) @ t=0.94
3.7466412182299074
% es.EX (V/m) @ t=0.94
1.1564516114269212
% es.EY (V/m) @ t=0.94
0.28016613591153616
% es.EZ (V/m) @ t=0.94
3.5526419242983325
% es.tEX (V/m) @ t=0.94
1.1564516114269168
% es.tEY (V/m) @ t=0.94
0
% es.tEZ (V/m) @ t=0.94
3.5526419242983387
% es.Ex (V/m) @ t=0.94
1.1564516114269212
% es.Ey (V/m) @ t=0.94
0.28016613591153616
% es.Ez (V/m) @ t=0.94
3.5526419242983325
% es.tEx (V/m) @ t=0.94
1.1564516114269168
% es.tEy (V/m) @ t=0.94
0
% es.tEz (V/m) @ t=0.94
3.5526419242983387
% V (V) @ t=0.94
0.017523140241217094
% es.normE (V/m) @ t=0.96
3.77984385213444
% es.EX (V/m) @ t=0.96
1.1667000545907622
% es.EY (V/m) @ t=0.96
0.28264896067677037
% es.EZ (V/m) @ t=0.96
3.584125341660087
% es.tEX (V/m) @ t=0.96
1.1667000545907769
% es.tEY (V/m) @ t=0.96
0
% es.tEZ (V/m) @ t=0.96
3.584125341660105
% es.Ex (V/m) @ t=0.96
1.1667000545907622
% es.Ey (V/m) @ t=0.96
0.28264896067677037
% es.Ez (V/m) @ t=0.96
3.584125341660087
% es.tEx (V/m) @ t=0.96
1.1667000545907769
% es.tEy (V/m) @ t=0.96
0
% es.tEz (V/m) @ t=0.96
3.584125341660105
% V (V) @ t=0.96
0.017678429833880373
% es.normE (V/m) @ t=0.98
3.8130464860389335
% es.EX (V/m) @ t=0.98
1.176948497754577
% es.EY (V/m) @ t=0.98
0.28513178544204476
% es.EZ (V/m) @ t=0.98
3.6156087590218062
% es.tEX (V/m) @ t=0.98
1.17694849775458
% es.tEY (V/m) @ t=0.98
0
% es.tEZ (V/m) @ t=0.98
3.6156087590218036
% es.Ex (V/m) @ t=0.98
1.176948497754577
% es.Ey (V/m) @ t=0.98
0.28513178544204476
% es.Ez (V/m) @ t=0.98
3.6156087590218062
% es.tEx (V/m) @ t=0.98
1.17694849775458
% es.tEy (V/m) @ t=0.98
0
% es.tEz (V/m) @ t=0.98
3.6156087590218036
% V (V) @ t=0.98
0.017833719426543652
% es.normE (V/m) @ t=1
3.8462491199434248
% es.EX (V/m) @ t=1
1.187196940918383
% es.EY (V/m) @ t=1
0.2876146102073216
% es.EZ (V/m) @ t=1
3.6470921763835253
% es.tEX (V/m) @ t=1
1.1871969409183976
% es.tEY (V/m) @ t=1
0
% es.tEZ (V/m) @ t=1
3.6470921763835413
% es.Ex (V/m) @ t=1
1.187196940918383
% es.Ey (V/m) @ t=1
0.2876146102073216
% es.Ez (V/m) @ t=1
3.6470921763835253
% es.tEx (V/m) @ t=1
1.1871969409183976
% es.tEy (V/m) @ t=1
0
% es.tEz (V/m) @ t=1
3.6470921763835413
% V (V) @ t=1
0.01798900901920693
% es.normE (V/m) @ t=1.02
3.8794517538479587
% es.EX (V/m) @ t=1.02
1.1974453840822237
% es.EY (V/m) @ t=1.02
0.29009743497257445
% es.EZ (V/m) @ t=1.02
3.67857559374528
% es.tEX (V/m) @ t=1.02
1.1974453840822292
% es.tEY (V/m) @ t=1.02
0
% es.tEZ (V/m) @ t=1.02
3.678575593745279
% es.Ex (V/m) @ t=1.02
1.1974453840822237
% es.Ey (V/m) @ t=1.02
0.29009743497257445
% es.Ez (V/m) @ t=1.02
3.67857559374528
% es.tEx (V/m) @ t=1.02
1.1974453840822292
% es.tEy (V/m) @ t=1.02
0
% es.tEz (V/m) @ t=1.02
3.678575593745279
% V (V) @ t=1.02
0.018144298611870207
% es.normE (V/m) @ t=1.04
3.9140540745494636
% es.EX (V/m) @ t=1.04
1.2081258596095434
% es.EY (V/m) @ t=1.04
0.292684925292094
% es.EZ (V/m) @ t=1.04
3.711386222784226
% es.tEX (V/m) @ t=1.04
1.208125859609524
% es.tEY (V/m) @ t=1.04
0
% es.tEZ (V/m) @ t=1.04
3.7113862227842276
% es.Ex (V/m) @ t=1.04
1.2081258596095434
% es.Ey (V/m) @ t=1.04
0.292684925292094
% es.Ez (V/m) @ t=1.04
3.711386222784226
% es.tEx (V/m) @ t=1.04
1.208125859609524
% es.tEy (V/m) @ t=1.04
0
% es.tEz (V/m) @ t=1.04
3.7113862227842276
% V (V) @ t=1.04