% Model:              1 neuron.mph
% Version:            COMSOL 6.1.0.252
% Date:               Mar 22 2023, 18:49
% Dimension:          0
% Nodes:              14017
% Expressions:        14017
% Description:        Electric field norm, Electric field, X component, Electric field, Y component, Electric field, Z component, Tangential electric field, X component, Tangential electric field, Y component, Tangential electric field, Z component, Electric field, x component, Electric field, y component, Electric field, z component, Tangential electric field, x component, Tangential electric field, y component, Tangential electric field, z component, Electric potential
% Length unit:        mm
% x
1.33
% y
12.2
% z
2
% es.normE (V/m) @ t=0
2.665115673002872
% es.EX (V/m) @ t=0
1.0621504402454005
% es.EY (V/m) @ t=0
0.2808133614440127
% es.EZ (V/m) @ t=0
-2.4259760404320634
% es.tEX (V/m) @ t=0
1.062150440245401
% es.tEY (V/m) @ t=0
0
% es.tEZ (V/m) @ t=0
-2.4259760404320687
% es.Ex (V/m) @ t=0
1.0621504402454005
% es.Ey (V/m) @ t=0
0.2808133614440127
% es.Ez (V/m) @ t=0
-2.4259760404320634
% es.tEx (V/m) @ t=0
1.062150440245401
% es.tEy (V/m) @ t=0
0
% es.tEz (V/m) @ t=0
-2.4259760404320687
% V (V) @ t=0
0.013325809719084751
% es.normE (V/m) @ t=0.02
2.3018942345803906
% es.EX (V/m) @ t=0.02
0.9173928201320483
% es.EY (V/m) @ t=0.02
0.2425420716932054
% es.EZ (V/m) @ t=0.02
-2.095346296678782
% es.tEX (V/m) @ t=0.02
0.9173928201320449
% es.tEY (V/m) @ t=0.02
0
% es.tEZ (V/m) @ t=0.02
-2.0953462966787857
% es.Ex (V/m) @ t=0.02
0.9173928201320483
% es.Ey (V/m) @ t=0.02
0.2425420716932054
% es.Ez (V/m) @ t=0.02
-2.095346296678782
% es.tEx (V/m) @ t=0.02
0.9173928201320449
% es.tEy (V/m) @ t=0.02
0
% es.tEz (V/m) @ t=0.02
-2.0953462966787857
% V (V) @ t=0.02
0.011509670735356893
% es.normE (V/m) @ t=0.04
2.3230766697606544
% es.EX (V/m) @ t=0.04
0.9258348279383986
% es.EY (V/m) @ t=0.04
0.24477398179395493
% es.EZ (V/m) @ t=0.04
-2.1146280426865296
% es.tEX (V/m) @ t=0.04
0.9258348279383988
% es.tEY (V/m) @ t=0.04
0
% es.tEZ (V/m) @ t=0.04
-2.1146280426865296
% es.Ex (V/m) @ t=0.04
0.9258348279383986
% es.Ey (V/m) @ t=0.04
0.24477398179395493
% es.Ez (V/m) @ t=0.04
-2.1146280426865296
% es.tEx (V/m) @ t=0.04
0.9258348279383988
% es.tEy (V/m) @ t=0.04
0
% es.tEz (V/m) @ t=0.04
-2.1146280426865296
% V (V) @ t=0.04
0.011615584918828891
% es.normE (V/m) @ t=0.06
2.3444127694507393
% es.EX (V/m) @ t=0.06
0.9343380780034469
% es.EY (V/m) @ t=0.06
0.2470220852311371
% es.EZ (V/m) @ t=0.06
-2.13404966432904
% es.tEX (V/m) @ t=0.06
0.9343380780034436
% es.tEY (V/m) @ t=0.06
0
% es.tEZ (V/m) @ t=0.06
-2.134049664329046
% es.Ex (V/m) @ t=0.06
0.9343380780034469
% es.Ey (V/m) @ t=0.06
0.2470220852311371
% es.Ez (V/m) @ t=0.06
-2.13404966432904
% es.tEx (V/m) @ t=0.06
0.9343380780034436
% es.tEy (V/m) @ t=0.06
0
% es.tEz (V/m) @ t=0.06
-2.134049664329046
% V (V) @ t=0.06
0.011722267349114758
% es.normE (V/m) @ t=0.08
2.366159472660736
% es.EX (V/m) @ t=0.08
0.9430049692781681
% es.EY (V/m) @ t=0.08
0.2493134525184315
% es.EZ (V/m) @ t=0.08
-2.1538450462090646
% es.tEX (V/m) @ t=0.08
0.9430049692781686
% es.tEY (V/m) @ t=0.08
0
% es.tEZ (V/m) @ t=0.08
-2.1538450462090672
% es.Ex (V/m) @ t=0.08
0.9430049692781681
% es.Ey (V/m) @ t=0.08
0.2493134525184315
% es.Ez (V/m) @ t=0.08
-2.1538450462090646
% es.tEx (V/m) @ t=0.08
0.9430049692781686
% es.tEy (V/m) @ t=0.08
0
% es.tEz (V/m) @ t=0.08
-2.1538450462090672
% V (V) @ t=0.08
0.011831002831814506
% es.normE (V/m) @ t=0.1
2.388014686723647
% es.EX (V/m) @ t=0.1
0.9517151062786873
% es.EY (V/m) @ t=0.1
0.2516162532129993
% es.EZ (V/m) @ t=0.1
-2.1737392023084814
% es.tEX (V/m) @ t=0.1
0.9517151062786877
% es.tEY (V/m) @ t=0.1
0
% es.tEZ (V/m) @ t=0.1
-2.173739202308484
% es.Ex (V/m) @ t=0.1
0.9517151062786873
% es.Ey (V/m) @ t=0.1
0.2516162532129993
% es.Ez (V/m) @ t=0.1
-2.1737392023084814
% es.tEx (V/m) @ t=0.1
0.9517151062786877
% es.tEy (V/m) @ t=0.1
0
% es.tEz (V/m) @ t=0.1
-2.173739202308484
% V (V) @ t=0.1
0.011940280877979296
% es.normE (V/m) @ t=0.12
2.409869900786533
% es.EX (V/m) @ t=0.12
0.9604252432791782
% es.EY (V/m) @ t=0.12
0.25391905390760794
% es.EZ (V/m) @ t=0.12
-2.1936333584078778
% es.tEX (V/m) @ t=0.12
0.9604252432791784
% es.tEY (V/m) @ t=0.12
0
% es.tEZ (V/m) @ t=0.12
-2.19363335840789
% es.Ex (V/m) @ t=0.12
0.9604252432791782
% es.Ey (V/m) @ t=0.12
0.25391905390760794
% es.Ez (V/m) @ t=0.12
-2.1936333584078778
% es.tEx (V/m) @ t=0.12
0.9604252432791784
% es.tEy (V/m) @ t=0.12
0
% es.tEz (V/m) @ t=0.12
-2.19363335840789
% V (V) @ t=0.12
0.012049558924144084
% es.normE (V/m) @ t=0.14
2.4323689900865917
% es.EX (V/m) @ t=0.14
0.9693919943007772
% es.EY (V/m) @ t=0.14
0.2562897092348395
% es.EZ (V/m) @ t=0.14
-2.2141136120403537
% es.tEX (V/m) @ t=0.14
0.9693919943007847
% es.tEY (V/m) @ t=0.14
0
% es.tEZ (V/m) @ t=0.14
-2.2141136120403573
% es.Ex (V/m) @ t=0.14
0.9693919943007772
% es.Ey (V/m) @ t=0.14
0.2562897092348395
% es.Ez (V/m) @ t=0.14
-2.2141136120403537
% es.tEx (V/m) @ t=0.14
0.9693919943007847
% es.tEy (V/m) @ t=0.14
0
% es.tEz (V/m) @ t=0.14
-2.2141136120403573
% V (V) @ t=0.14
0.012162055991188537
% es.normE (V/m) @ t=0.16
2.455318868947298
% es.EX (V/m) @ t=0.16
0.9785384057831963
% es.EY (V/m) @ t=0.16
0.25870787090845493
% es.EZ (V/m) @ t=0.16
-2.2350042039405267
% es.tEX (V/m) @ t=0.16
0.9785384057831967
% es.tEY (V/m) @ t=0.16
0
% es.tEZ (V/m) @ t=0.16
-2.2350042039405302
% es.Ex (V/m) @ t=0.16
0.9785384057831963
% es.Ey (V/m) @ t=0.16
0.25870787090845493
% es.Ez (V/m) @ t=0.16
-2.2350042039405267
% es.tEx (V/m) @ t=0.16
0.9785384057831967
% es.tEy (V/m) @ t=0.16
0
% es.tEz (V/m) @ t=0.16
-2.2350042039405302
% V (V) @ t=0.16
0.012276806757279646
% es.normE (V/m) @ t=0.18
2.478268747808035
% es.EX (V/m) @ t=0.18
0.9876848172656438
% es.EY (V/m) @ t=0.18
0.26112603258209166
% es.EZ (V/m) @ t=0.18
-2.255894795840719
% es.tEX (V/m) @ t=0.18
0.9876848172656443
% es.tEY (V/m) @ t=0.18
0
% es.tEZ (V/m) @ t=0.18
-2.2558947958407245
% es.Ex (V/m) @ t=0.18
0.9876848172656438
% es.Ey (V/m) @ t=0.18
0.26112603258209166
% es.Ez (V/m) @ t=0.18
-2.255894795840719
% es.tEx (V/m) @ t=0.18
0.9876848172656443
% es.tEy (V/m) @ t=0.18
0
% es.tEz (V/m) @ t=0.18
-2.2558947958407245
% V (V) @ t=0.18
0.012391557523370761
% es.normE (V/m) @ t=0.2
2.5012186266687566
% es.EX (V/m) @ t=0.2
0.9968312287480843
% es.EY (V/m) @ t=0.2
0.2635441942556964
% es.EZ (V/m) @ t=0.2
-2.276785387740901
% es.tEX (V/m) @ t=0.2
0.9968312287480776
% es.tEY (V/m) @ t=0.2
0
% es.tEZ (V/m) @ t=0.2
-2.276785387740908
% es.Ex (V/m) @ t=0.2
0.9968312287480843
% es.Ey (V/m) @ t=0.2
0.2635441942556964
% es.Ez (V/m) @ t=0.2
-2.276785387740901
% es.tEx (V/m) @ t=0.2
0.9968312287480776
% es.tEy (V/m) @ t=0.2
0
% es.tEz (V/m) @ t=0.2
-2.276785387740908
% V (V) @ t=0.2
0.012506308289461874
% es.normE (V/m) @ t=0.22
2.524168505529472
% es.EX (V/m) @ t=0.22
1.0059776402305096
% es.EY (V/m) @ t=0.22
0.2659623559293198
% es.EZ (V/m) @ t=0.22
-2.297675979641081
% es.tEX (V/m) @ t=0.22
1.005977640230503
% es.tEY (V/m) @ t=0.22
0
% es.tEZ (V/m) @ t=0.22
-2.2976759796410846
% es.Ex (V/m) @ t=0.22
1.0059776402305096
% es.Ey (V/m) @ t=0.22
0.2659623559293198
% es.Ez (V/m) @ t=0.22
-2.297675979641081
% es.tEx (V/m) @ t=0.22
1.005977640230503
% es.tEy (V/m) @ t=0.22
0
% es.tEz (V/m) @ t=0.22
-2.2976759796410846
% V (V) @ t=0.22
0.012621059055552986
% es.normE (V/m) @ t=0.24
2.547118384390208
% es.EX (V/m) @ t=0.24
1.01512405171295
% es.EY (V/m) @ t=0.24
0.2683805176029379
% es.EZ (V/m) @ t=0.24
-2.3185665715412753
% es.tEX (V/m) @ t=0.24
1.0151240517129434
% es.tEY (V/m) @ t=0.24
0
% es.tEZ (V/m) @ t=0.24
-2.3185665715412753
% es.Ex (V/m) @ t=0.24
1.01512405171295
% es.Ey (V/m) @ t=0.24
0.2683805176029379
% es.Ez (V/m) @ t=0.24
-2.3185665715412753
% es.tEx (V/m) @ t=0.24
1.0151240517129434
% es.tEy (V/m) @ t=0.24
0
% es.tEz (V/m) @ t=0.24
-2.3185665715412753
% V (V) @ t=0.24
0.012735809821644099
% es.normE (V/m) @ t=0.26
2.5705146061974835
% es.EX (V/m) @ t=0.26
1.0244483764963124
% es.EY (V/m) @ t=0.26
0.27084577485966044
% es.EZ (V/m) @ t=0.26
-2.3398634391636097
% es.tEX (V/m) @ t=0.26
1.0244483764963128
% es.tEY (V/m) @ t=0.26
0
% es.tEZ (V/m) @ t=0.26
-2.3398634391636115
% es.Ex (V/m) @ t=0.26
1.0244483764963124
% es.Ey (V/m) @ t=0.26
0.27084577485966044
% es.Ez (V/m) @ t=0.26
-2.3398634391636097
% es.tEx (V/m) @ t=0.26
1.0244483764963128
% es.tEy (V/m) @ t=0.26
0
% es.tEz (V/m) @ t=0.26
-2.3398634391636115
% V (V) @ t=0.26
0.012852790053686178
% es.normE (V/m) @ t=0.28
2.5959082800469933
% es.EX (V/m) @ t=0.28
1.0345688901496857
% es.EY (V/m) @ t=0.28
0.27352179195789095
% es.EZ (V/m) @ t=0.28
-2.3629784519524772
% es.tEX (V/m) @ t=0.28
1.0345688901496857
% es.tEY (V/m) @ t=0.28
0
% es.tEZ (V/m) @ t=0.28
-2.3629784519524826
% es.Ex (V/m) @ t=0.28
1.0345688901496857
% es.Ey (V/m) @ t=0.28
0.27352179195789095
% es.Ez (V/m) @ t=0.28
-2.3629784519524772
% es.tEx (V/m) @ t=0.28
1.0345688901496857
% es.tEy (V/m) @ t=0.28
0
% es.tEz (V/m) @ t=0.28
-2.3629784519524826
% V (V) @ t=0.28
0.012979747482300978
% es.normE (V/m) @ t=0.3
2.6213019538966487
% es.EX (V/m) @ t=0.3
1.0446894038030599
% es.EY (V/m) @ t=0.3
0.2761978090560877
% es.EZ (V/m) @ t=0.3
-2.386093464741359
% es.tEX (V/m) @ t=0.3
1.0446894038030603
% es.tEY (V/m) @ t=0.3
0
% es.tEZ (V/m) @ t=0.3
-2.386093464741375
% es.Ex (V/m) @ t=0.3
1.0446894038030599
% es.Ey (V/m) @ t=0.3
0.2761978090560877
% es.Ez (V/m) @ t=0.3
-2.386093464741359
% es.tEx (V/m) @ t=0.3
1.0446894038030603
% es.tEy (V/m) @ t=0.3
0
% es.tEz (V/m) @ t=0.3
-2.386093464741375
% V (V) @ t=0.3
0.013106704910915782
% es.normE (V/m) @ t=0.32
2.646695627746415
% es.EX (V/m) @ t=0.32
1.0548099174564185
% es.EY (V/m) @ t=0.32
0.2788738261543253
% es.EZ (V/m) @ t=0.32
-2.409208477530223
% es.tEX (V/m) @ t=0.32
1.054809917456419
% es.tEY (V/m) @ t=0.32
0
% es.tEZ (V/m) @ t=0.32
-2.409208477530232
% es.Ex (V/m) @ t=0.32
1.0548099174564185
% es.Ey (V/m) @ t=0.32
0.2788738261543253
% es.Ez (V/m) @ t=0.32
-2.409208477530223
% es.tEx (V/m) @ t=0.32
1.054809917456419
% es.tEy (V/m) @ t=0.32
0
% es.tEz (V/m) @ t=0.32
-2.409208477530232
% V (V) @ t=0.32
0.013233662339530584
% es.normE (V/m) @ t=0.34
2.6720893015963174
% es.EX (V/m) @ t=0.34
1.0649304311097927
% es.EY (V/m) @ t=0.34
0.28154984325254606
% es.EZ (V/m) @ t=0.34
-2.4323234903190905
% es.tEX (V/m) @ t=0.34
1.0649304311097927
% es.tEY (V/m) @ t=0.34
0
% es.tEZ (V/m) @ t=0.34
-2.4323234903190993
% es.Ex (V/m) @ t=0.34
1.0649304311097927
% es.Ey (V/m) @ t=0.34
0.28154984325254606
% es.Ez (V/m) @ t=0.34
-2.4323234903190905
% es.tEx (V/m) @ t=0.34
1.0649304311097927
% es.tEy (V/m) @ t=0.34
0
% es.tEz (V/m) @ t=0.34
-2.4323234903190993
% V (V) @ t=0.34
0.013360619768145388
% es.normE (V/m) @ t=0.36
2.6974829754463268
% es.EX (V/m) @ t=0.36
1.0750509447631376
% es.EY (V/m) @ t=0.36
0.2842258603507881
% es.EZ (V/m) @ t=0.36
-2.455438503107951
% es.tEX (V/m) @ t=0.36
1.075050944763138
% es.tEY (V/m) @ t=0.36
0
% es.tEZ (V/m) @ t=0.36
-2.4554385031079526
% es.Ex (V/m) @ t=0.36
1.0750509447631376
% es.Ey (V/m) @ t=0.36
0.2842258603507881
% es.Ez (V/m) @ t=0.36
-2.455438503107951
% es.tEx (V/m) @ t=0.36
1.075050944763138
% es.tEy (V/m) @ t=0.36
0
% es.tEz (V/m) @ t=0.36
-2.4554385031079526
% V (V) @ t=0.36
0.013487577196760189
% es.normE (V/m) @ t=0.38
2.722876649296486
% es.EX (V/m) @ t=0.38
1.0851714584165335
% es.EY (V/m) @ t=0.38
0.28690187744899376
% es.EZ (V/m) @ t=0.38
-2.4785535158968273
% es.tEX (V/m) @ t=0.38
1.0851714584165268
% es.tEY (V/m) @ t=0.38
0
% es.tEZ (V/m) @ t=0.38
-2.4785535158968273
% es.Ex (V/m) @ t=0.38
1.0851714584165335
% es.Ey (V/m) @ t=0.38
0.28690187744899376
% es.Ez (V/m) @ t=0.38
-2.4785535158968273
% es.tEx (V/m) @ t=0.38
1.0851714584165268
% es.tEy (V/m) @ t=0.38
0
% es.tEz (V/m) @ t=0.38
-2.4785535158968273
% V (V) @ t=0.38
0.013614534625374989
% es.normE (V/m) @ t=0.4
2.7482703231467474
% es.EX (V/m) @ t=0.4
1.0952919720699001
% es.EY (V/m) @ t=0.4
0.2895778945471932
% es.EZ (V/m) @ t=0.4
-2.5016685286857
% es.tEX (V/m) @ t=0.4
1.0952919720699006
% es.tEY (V/m) @ t=0.4
0
% es.tEZ (V/m) @ t=0.4
-2.5016685286857054
% es.Ex (V/m) @ t=0.4
1.0952919720699001
% es.Ey (V/m) @ t=0.4
0.2895778945471932
% es.Ez (V/m) @ t=0.4
-2.5016685286857
% es.tEx (V/m) @ t=0.4
1.0952919720699006
% es.tEy (V/m) @ t=0.4
0
% es.tEz (V/m) @ t=0.4
-2.5016685286857054
% V (V) @ t=0.4
0.013741492053989793
% es.normE (V/m) @ t=0.42
2.773663996997117
% es.EX (V/m) @ t=0.42
1.1054124857232597
% es.EY (V/m) @ t=0.42
0.2922539116454175
% es.EZ (V/m) @ t=0.42
-2.5247835414745676
% es.tEX (V/m) @ t=0.42
1.1054124857232601
% es.tEY (V/m) @ t=0.42
0
% es.tEZ (V/m) @ t=0.42
-2.524783541474573
% es.Ex (V/m) @ t=0.42
1.1054124857232597
% es.Ey (V/m) @ t=0.42
0.2922539116454175
% es.Ez (V/m) @ t=0.42
-2.5247835414745676
% es.tEx (V/m) @ t=0.42
1.1054124857232601
% es.tEy (V/m) @ t=0.42
0
% es.tEz (V/m) @ t=0.42
-2.524783541474573
% V (V) @ t=0.42
0.013868449482604597
% es.normE (V/m) @ t=0.44
2.799057670847594
% es.EX (V/m) @ t=0.44
1.1155329993766188
% es.EY (V/m) @ t=0.44
0.29492992874364976
% es.EZ (V/m) @ t=0.44
-2.5478985542634316
% es.tEX (V/m) @ t=0.44
1.1155329993766188
% es.tEY (V/m) @ t=0.44
0
% es.tEZ (V/m) @ t=0.44
-2.547898554263444
% es.Ex (V/m) @ t=0.44
1.1155329993766188
% es.Ey (V/m) @ t=0.44
0.29492992874364976
% es.Ez (V/m) @ t=0.44
-2.5478985542634316
% es.tEx (V/m) @ t=0.44
1.1155329993766188
% es.tEy (V/m) @ t=0.44
0
% es.tEz (V/m) @ t=0.44
-2.547898554263444
% V (V) @ t=0.44
0.013995406911219399
% es.normE (V/m) @ t=0.46
2.824451344698179
% es.EX (V/m) @ t=0.46
1.1256535130299787
% es.EY (V/m) @ t=0.46
0.2976059458418874
% es.EZ (V/m) @ t=0.46
-2.5710135670522956
% es.tEX (V/m) @ t=0.46
1.1256535130299792
% es.tEY (V/m) @ t=0.46
0
% es.tEZ (V/m) @ t=0.46
-2.571013567052308
% es.Ex (V/m) @ t=0.46
1.1256535130299787
% es.Ey (V/m) @ t=0.46
0.2976059458418874
% es.Ez (V/m) @ t=0.46
-2.5710135670522956
% es.tEx (V/m) @ t=0.46
1.1256535130299792
% es.tEy (V/m) @ t=0.46
0
% es.tEz (V/m) @ t=0.46
-2.571013567052308
% V (V) @ t=0.46
0.014122364339834203
% es.normE (V/m) @ t=0.48
2.8498450185488746
% es.EX (V/m) @ t=0.48
1.1357740266833516
% es.EY (V/m) @ t=0.48
0.300281962940109
% es.EZ (V/m) @ t=0.48
-2.594128579841163
% es.tEX (V/m) @ t=0.48
1.135774026683352
% es.tEY (V/m) @ t=0.48
0
% es.tEZ (V/m) @ t=0.48
-2.594128579841172
% es.Ex (V/m) @ t=0.48
1.1357740266833516
% es.Ey (V/m) @ t=0.48
0.300281962940109
% es.Ez (V/m) @ t=0.48
-2.594128579841163
% es.tEx (V/m) @ t=0.48
1.135774026683352
% es.tEy (V/m) @ t=0.48
0
% es.tEz (V/m) @ t=0.48
-2.594128579841172
% V (V) @ t=0.48
0.014249321768449005
% es.normE (V/m) @ t=0.5
2.8752386923996847
% es.EX (V/m) @ t=0.5
1.1458945403367262
% es.EY (V/m) @ t=0.5
0.30295798003833685
% es.EZ (V/m) @ t=0.5
-2.6172435926300412
% es.tEX (V/m) @ t=0.5
1.1458945403367267
% es.tEY (V/m) @ t=0.5
0
% es.tEZ (V/m) @ t=0.5
-2.61724359263005
% es.Ex (V/m) @ t=0.5
1.1458945403367262
% es.Ey (V/m) @ t=0.5
0.30295798003833685
% es.Ez (V/m) @ t=0.5
-2.6172435926300412
% es.tEx (V/m) @ t=0.5
1.1458945403367267
% es.tEy (V/m) @ t=0.5
0
% es.tEz (V/m) @ t=0.5
-2.61724359263005
% V (V) @ t=0.5
0.014376279197063805
% es.normE (V/m) @ t=0.52
2.901653670649244
% es.EX (V/m) @ t=0.52
1.1564219246653251
% es.EY (V/m) @ t=0.52
0.3057412418645171
% es.EZ (V/m) @ t=0.52
-2.6412883631541764
% es.tEX (V/m) @ t=0.52
1.1564219246653185
% es.tEY (V/m) @ t=0.52
0
% es.tEZ (V/m) @ t=0.52
-2.6412883631541817
% es.Ex (V/m) @ t=0.52
1.1564219246653251
% es.Ey (V/m) @ t=0.52
0.3057412418645171
% es.Ez (V/m) @ t=0.52
-2.6412883631541764
% es.tEx (V/m) @ t=0.52
1.1564219246653185
% es.tEy (V/m) @ t=0.52
0
% es.tEz (V/m) @ t=0.52
-2.6412883631541817
% V (V) @ t=0.52
0.014508355887408692
% es.normE (V/m) @ t=0.54
2.929796169587271
% es.EX (V/m) @ t=0.54
1.1676375244855541
% es.EY (V/m) @ t=0.54
0.3087059064992399
% es.EZ (V/m) @ t=0.54
-2.6669058045928704
% es.tEX (V/m) @ t=0.54
1.1676375244855617
% es.tEY (V/m) @ t=0.54
0
% es.tEZ (V/m) @ t=0.54
-2.666905804592872
% es.Ex (V/m) @ t=0.54
1.1676375244855541
% es.Ey (V/m) @ t=0.54
0.3087059064992399
% es.Ez (V/m) @ t=0.54
-2.6669058045928704
% es.tEx (V/m) @ t=0.54
1.1676375244855617
% es.tEy (V/m) @ t=0.54
0
% es.tEz (V/m) @ t=0.54
-2.666905804592872
% V (V) @ t=0.54
0.014649091730263374
% es.normE (V/m) @ t=0.56
2.957938668525645
% es.EX (V/m) @ t=0.56
1.1788531243057911
% es.EY (V/m) @ t=0.56
0.3116705711339476
% es.EZ (V/m) @ t=0.56
-2.692523246031554
% es.tEX (V/m) @ t=0.56
1.1788531243057916
% es.tEY (V/m) @ t=0.56
0
% es.tEZ (V/m) @ t=0.56
-2.692523246031559
% es.Ex (V/m) @ t=0.56
1.1788531243057911
% es.Ey (V/m) @ t=0.56
0.3116705711339476
% es.Ez (V/m) @ t=0.56
-2.692523246031554
% es.tEx (V/m) @ t=0.56
1.1788531243057916
% es.tEy (V/m) @ t=0.56
0
% es.tEz (V/m) @ t=0.56
-2.692523246031559
% V (V) @ t=0.56
0.014789827573118051
% es.normE (V/m) @ t=0.58
2.986081167464371
% es.EX (V/m) @ t=0.58
1.1900687241260202
% es.EY (V/m) @ t=0.58
0.31463523576866503
% es.EZ (V/m) @ t=0.58
-2.718140687470248
% es.tEX (V/m) @ t=0.58
1.1900687241260206
% es.tEY (V/m) @ t=0.58
0
% es.tEZ (V/m) @ t=0.58
-2.7181406874702496
% es.Ex (V/m) @ t=0.58
1.1900687241260202
% es.Ey (V/m) @ t=0.58
0.31463523576866503
% es.Ez (V/m) @ t=0.58
-2.718140687470248
% es.tEx (V/m) @ t=0.58
1.1900687241260206
% es.tEy (V/m) @ t=0.58
0
% es.tEz (V/m) @ t=0.58
-2.7181406874702496
% V (V) @ t=0.58
0.01493056341597273
% es.normE (V/m) @ t=0.6
3.014223666403418
% es.EX (V/m) @ t=0.6
1.2012843239462705
% es.EY (V/m) @ t=0.6
0.3175999004033807
% es.EZ (V/m) @ t=0.6
-2.743758128908917
% es.tEX (V/m) @ t=0.6
1.2012843239462638
% es.tEY (V/m) @ t=0.6
0
% es.tEZ (V/m) @ t=0.6
-2.743758128908919
% es.Ex (V/m) @ t=0.6
1.2012843239462705
% es.Ey (V/m) @ t=0.6
0.3175999004033807
% es.Ez (V/m) @ t=0.6
-2.743758128908917
% es.tEx (V/m) @ t=0.6
1.2012843239462638
% es.tEy (V/m) @ t=0.6
0
% es.tEz (V/m) @ t=0.6
-2.743758128908919
% V (V) @ t=0.6
0.015071299258827405
% es.normE (V/m) @ t=0.62
3.0423661653428127
% es.EX (V/m) @ t=0.62
1.2124999237665075
% es.EY (V/m) @ t=0.62
0.32056456503811326
% es.EZ (V/m) @ t=0.62
-2.7693755703476146
% es.tEX (V/m) @ t=0.62
1.212499923766508
% es.tEY (V/m) @ t=0.62
0
% es.tEZ (V/m) @ t=0.62
-2.76937557034762
% es.Ex (V/m) @ t=0.62
1.2124999237665075
% es.Ey (V/m) @ t=0.62
0.32056456503811326
% es.Ez (V/m) @ t=0.62
-2.7693755703476146
% es.tEx (V/m) @ t=0.62
1.212499923766508
% es.tEy (V/m) @ t=0.62
0
% es.tEz (V/m) @ t=0.62
-2.76937557034762
% V (V) @ t=0.62
0.015212035101682083
% es.normE (V/m) @ t=0.64
3.0705086642825026
% es.EX (V/m) @ t=0.64
1.2237155235867294
% es.EY (V/m) @ t=0.64
0.3235292296728218
% es.EZ (V/m) @ t=0.64
-2.794993011786298
% es.tEX (V/m) @ t=0.64
1.2237155235867228
% es.tEY (V/m) @ t=0.64
0
% es.tEZ (V/m) @ t=0.64
-2.794993011786296
% es.Ex (V/m) @ t=0.64
1.2237155235867294
% es.Ey (V/m) @ t=0.64
0.3235292296728218
% es.Ez (V/m) @ t=0.64
-2.794993011786298
% es.tEx (V/m) @ t=0.64
1.2237155235867228
% es.tEy (V/m) @ t=0.64
0
% es.tEz (V/m) @ t=0.64
-2.794993011786296
% V (V) @ t=0.64
0.015352770944536761
% es.normE (V/m) @ t=0.66
3.09865116322252
% es.EX (V/m) @ t=0.66
1.2349311234069797
% es.EY (V/m) @ t=0.66
0.32649389430754727
% es.EZ (V/m) @ t=0.66
-2.8206104532249885
% es.tEX (V/m) @ t=0.66
1.2349311234069802
% es.tEY (V/m) @ t=0.66
0
% es.tEZ (V/m) @ t=0.66
-2.820610453224994
% es.Ex (V/m) @ t=0.66
1.2349311234069797
% es.Ey (V/m) @ t=0.66
0.32649389430754727
% es.Ez (V/m) @ t=0.66
-2.8206104532249885
% es.tEx (V/m) @ t=0.66
1.2349311234069802
% es.tEy (V/m) @ t=0.66
0
% es.tEz (V/m) @ t=0.66
-2.820610453224994
% V (V) @ t=0.66
0.01549350678739144
% es.normE (V/m) @ t=0.68
3.1267936621628145
% es.EX (V/m) @ t=0.68
1.2461467232272025
% es.EY (V/m) @ t=0.68
0.32945855894227183
% es.EZ (V/m) @ t=0.68
-2.8462278946636648
% es.tEX (V/m) @ t=0.68
1.24614672322721
% es.tEY (V/m) @ t=0.68
0
% es.tEZ (V/m) @ t=0.68
-2.8462278946636737
% es.Ex (V/m) @ t=0.68
1.2461467232272025
% es.Ey (V/m) @ t=0.68
0.32945855894227183
% es.Ez (V/m) @ t=0.68
-2.8462278946636648
% es.tEx (V/m) @ t=0.68
1.24614672322721
% es.tEy (V/m) @ t=0.68
0
% es.tEz (V/m) @ t=0.68
-2.8462278946636737
% V (V) @ t=0.68
0.015634242630246115
% es.normE (V/m) @ t=0.7
3.1549361611034312
% es.EX (V/m) @ t=0.7
1.2573623230474529
% es.EY (V/m) @ t=0.7
0.33242322357697685
% es.EZ (V/m) @ t=0.7
-2.871845336102366
% es.tEX (V/m) @ t=0.7
1.2573623230474533
% es.tEY (V/m) @ t=0.7
0
% es.tEZ (V/m) @ t=0.7
-2.871845336102364
% es.Ex (V/m) @ t=0.7
1.2573623230474529
% es.Ey (V/m) @ t=0.7
0.33242322357697685
% es.Ez (V/m) @ t=0.7
-2.871845336102366
% es.tEx (V/m) @ t=0.7
1.2573623230474533
% es.tEy (V/m) @ t=0.7
0
% es.tEz (V/m) @ t=0.7
-2.871845336102364
% V (V) @ t=0.7
0.015774978473100797
% es.normE (V/m) @ t=0.72
3.1830786600442984
% es.EX (V/m) @ t=0.72
1.2685779228676823
% es.EY (V/m) @ t=0.72
0.33538788821170584
% es.EZ (V/m) @ t=0.72
-2.897462777541037
% es.tEX (V/m) @ t=0.72
1.2685779228676832
% es.tEY (V/m) @ t=0.72
0
% es.tEZ (V/m) @ t=0.72
-2.897462777541044
% es.Ex (V/m) @ t=0.72
1.2685779228676823
% es.Ey (V/m) @ t=0.72
0.33538788821170584
% es.Ez (V/m) @ t=0.72
-2.897462777541037
% es.tEx (V/m) @ t=0.72
1.2685779228676832
% es.tEy (V/m) @ t=0.72
0
% es.tEz (V/m) @ t=0.72
-2.897462777541044
% V (V) @ t=0.72
0.015915714315955478
% es.normE (V/m) @ t=0.74
3.21122115898545
% es.EX (V/m) @ t=0.74
1.2797935226879056
% es.EY (V/m) @ t=0.74
0.3383525528464446
% es.EZ (V/m) @ t=0.74
-2.9230802189797185
% es.tEX (V/m) @ t=0.74
1.279793522687899
% es.tEY (V/m) @ t=0.74
0
% es.tEZ (V/m) @ t=0.74
-2.923080218979724
% es.Ex (V/m) @ t=0.74
1.2797935226879056
% es.Ey (V/m) @ t=0.74
0.3383525528464446
% es.Ez (V/m) @ t=0.74
-2.9230802189797185
% es.tEx (V/m) @ t=0.74
1.279793522687899
% es.tEy (V/m) @ t=0.74
0
% es.tEz (V/m) @ t=0.74
-2.923080218979724
% V (V) @ t=0.74
0.016056450158810152
% es.normE (V/m) @ t=0.76
3.2393636579269023
% es.EX (V/m) @ t=0.76
1.2910091225081701
% es.EY (V/m) @ t=0.76
0.3413172174811354
% es.EZ (V/m) @ t=0.76
-2.9486976604184196
% es.tEX (V/m) @ t=0.76
1.2910091225081706
% es.tEY (V/m) @ t=0.76
0
% es.tEZ (V/m) @ t=0.76
-2.9486976604184214
% es.Ex (V/m) @ t=0.76
1.2910091225081701
% es.Ey (V/m) @ t=0.76
0.3413172174811354
% es.Ez (V/m) @ t=0.76
-2.9486976604184196
% es.tEx (V/m) @ t=0.76
1.2910091225081706
% es.tEy (V/m) @ t=0.76
0
% es.tEz (V/m) @ t=0.76
-2.9486976604184214
% V (V) @ t=0.76
0.01619718600166483
% es.normE (V/m) @ t=0.78
3.269240771984185
% es.EX (V/m) @ t=0.78
1.302916521336945
% es.EY (V/m) @ t=0.78
0.3444657847884889
% es.EZ (V/m) @ t=0.78
-2.975893778665073
% es.tEX (V/m) @ t=0.78
1.3029165213369458
% es.tEY (V/m) @ t=0.78
0
% es.tEZ (V/m) @ t=0.78
-2.9758937786650748
% es.Ex (V/m) @ t=0.78
1.302916521336945
% es.Ey (V/m) @ t=0.78
0.3444657847884889
% es.Ez (V/m) @ t=0.78
-2.975893778665073
% es.tEx (V/m) @ t=0.78
1.3029165213369458
% es.tEy (V/m) @ t=0.78
0
% es.tEz (V/m) @ t=0.78
-2.9758937786650748
% V (V) @ t=0.78
0.016346555999209873
% es.normE (V/m) @ t=0.8
3.3004783608457573
% es.EX (V/m) @ t=0.8
1.3153665045761183
% es.EY (V/m) @ t=0.8
0.3477585886761583
% es.EZ (V/m) @ t=0.8
-3.0043280678466306
% es.tEX (V/m) @ t=0.8
1.3153665045761187
% es.tEY (V/m) @ t=0.8
0
% es.tEZ (V/m) @ t=0.8
-3.004328067846636
% es.Ex (V/m) @ t=0.8
1.3153665045761183
% es.Ey (V/m) @ t=0.8
0.3477585886761583
% es.Ez (V/m) @ t=0.8
-3.0043280678466306
% es.tEx (V/m) @ t=0.8
1.3153665045761187
% es.tEy (V/m) @ t=0.8
0
% es.tEz (V/m) @ t=0.8
-3.004328067846636
% V (V) @ t=0.8
0.016502697844755193
% es.normE (V/m) @ t=0.82
3.3317159497088515
% es.EX (V/m) @ t=0.82
1.3278164878153134
% es.EY (V/m) @ t=0.82
0.35105139256378504
% es.EZ (V/m) @ t=0.82
-3.0327623570281848
% es.tEX (V/m) @ t=0.82
1.3278164878153067
% es.tEY (V/m) @ t=0.82
0
% es.tEZ (V/m) @ t=0.82
-3.0327623570281865
% es.Ex (V/m) @ t=0.82
1.3278164878153134
% es.Ey (V/m) @ t=0.82
0.35105139256378504
% es.Ez (V/m) @ t=0.82
-3.0327623570281848
% es.tEx (V/m) @ t=0.82
1.3278164878153067
% es.tEy (V/m) @ t=0.82
0
% es.tEz (V/m) @ t=0.82
-3.0327623570281865
% V (V) @ t=0.82
0.016658839690300506
% es.normE (V/m) @ t=0.84
3.362953538573433
% es.EX (V/m) @ t=0.84
1.3402664710545067
% es.EY (V/m) @ t=0.84
0.3543441964514811
% es.EZ (V/m) @ t=0.84
-3.061196646209739
% es.tEX (V/m) @ t=0.84
1.3402664710545071
% es.tEY (V/m) @ t=0.84
0
% es.tEZ (V/m) @ t=0.84
-3.061196646209744
% es.Ex (V/m) @ t=0.84
1.3402664710545067
% es.Ey (V/m) @ t=0.84
0.3543441964514811
% es.Ez (V/m) @ t=0.84
-3.061196646209739
% es.tEx (V/m) @ t=0.84
1.3402664710545071
% es.tEy (V/m) @ t=0.84
0
% es.tEz (V/m) @ t=0.84
-3.061196646209744
% V (V) @ t=0.84
0.01681498153584582
% es.normE (V/m) @ t=0.86
3.3941911274394707
% es.EX (V/m) @ t=0.86
1.352716454293724
% es.EY (V/m) @ t=0.86
0.35763700033911405
% es.EZ (V/m) @ t=0.86
-3.089630935391309
% es.tEX (V/m) @ t=0.86
1.3527164542937244
% es.tEY (V/m) @ t=0.86
0
% es.tEZ (V/m) @ t=0.86
-3.089630935391323
% es.Ex (V/m) @ t=0.86
1.352716454293724
% es.Ey (V/m) @ t=0.86
0.35763700033911405
% es.Ez (V/m) @ t=0.86
-3.089630935391309
% es.tEx (V/m) @ t=0.86
1.3527164542937244
% es.tEy (V/m) @ t=0.86
0
% es.tEz (V/m) @ t=0.86
-3.089630935391323
% V (V) @ t=0.86
0.01697112338139114
% es.normE (V/m) @ t=0.88
3.4254287163069046
% es.EX (V/m) @ t=0.88
1.3651664375329546
% es.EY (V/m) @ t=0.88
0.3609298042267266
% es.EZ (V/m) @ t=0.88
-3.118065224572872
% es.tEX (V/m) @ t=0.88
1.365166437532955
% es.tEY (V/m) @ t=0.88
0
% es.tEZ (V/m) @ t=0.88
-3.118065224572881
% es.Ex (V/m) @ t=0.88
1.3651664375329546
% es.Ey (V/m) @ t=0.88
0.3609298042267266
% es.Ez (V/m) @ t=0.88
-3.118065224572872
% es.tEx (V/m) @ t=0.88
1.365166437532955
% es.tEy (V/m) @ t=0.88
0
% es.tEz (V/m) @ t=0.88
-3.118065224572881
% V (V) @ t=0.88
0.01712726522693645
% es.normE (V/m) @ t=0.9
3.4566663051756663
% es.EX (V/m) @ t=0.9
1.3776164207721266
% es.EY (V/m) @ t=0.9
0.364222608114404
% es.EZ (V/m) @ t=0.9
-3.1464995137544154
% es.tEX (V/m) @ t=0.9
1.377616420772127
% es.tEY (V/m) @ t=0.9
0
% es.tEZ (V/m) @ t=0.9
-3.146499513754435
% es.Ex (V/m) @ t=0.9
1.3776164207721266
% es.Ey (V/m) @ t=0.9
0.364222608114404
% es.Ez (V/m) @ t=0.9
-3.1464995137544154
% es.tEx (V/m) @ t=0.9
1.377616420772127
% es.tEy (V/m) @ t=0.9
0
% es.tEz (V/m) @ t=0.9
-3.146499513754435
% V (V) @ t=0.9
0.01728340707248177
% es.normE (V/m) @ t=0.92
3.487903894045788
% es.EX (V/m) @ t=0.92
1.3900664040113369
% es.EY (V/m) @ t=0.92
0.3675154120020263
% es.EZ (V/m) @ t=0.92
-3.1749338029359873
% es.tEX (V/m) @ t=0.92
1.3900664040113302
% es.tEY (V/m) @ t=0.92
0
% es.tEZ (V/m) @ t=0.92
-3.1749338029359997
% es.Ex (V/m) @ t=0.92
1.3900664040113369
% es.Ey (V/m) @ t=0.92
0.3675154120020263
% es.Ez (V/m) @ t=0.92
-3.1749338029359873
% es.tEx (V/m) @ t=0.92
1.3900664040113302
% es.tEy (V/m) @ t=0.92
0
% es.tEz (V/m) @ t=0.92
-3.1749338029359997
% V (V) @ t=0.92
0.017439548918027084
% es.normE (V/m) @ t=0.94
3.5191414829171848
% es.EX (V/m) @ t=0.94
1.4025163872505457
% es.EY (V/m) @ t=0.94
0.3708082158896744
% es.EZ (V/m) @ t=0.94
-3.2033680921175414
% es.tEX (V/m) @ t=0.94
1.4025163872505466
% es.tEY (V/m) @ t=0.94
0
% es.tEZ (V/m) @ t=0.94
-3.2033680921175467
% es.Ex (V/m) @ t=0.94
1.4025163872505457
% es.Ey (V/m) @ t=0.94
0.3708082158896744
% es.Ez (V/m) @ t=0.94
-3.2033680921175414
% es.tEx (V/m) @ t=0.94
1.4025163872505466
% es.tEy (V/m) @ t=0.94
0
% es.tEz (V/m) @ t=0.94
-3.2033680921175467
% V (V) @ t=0.94
0.0175956907635724
% es.normE (V/m) @ t=0.96
3.550379071789826
% es.EX (V/m) @ t=0.96
1.4149663704897324
% es.EY (V/m) @ t=0.96
0.3741010197773491
% es.EZ (V/m) @ t=0.96
-3.2318023812990884
% es.tEX (V/m) @ t=0.96
1.4149663704897328
% es.tEY (V/m) @ t=0.96
0
% es.tEZ (V/m) @ t=0.96
-3.231802381299101
% es.Ex (V/m) @ t=0.96
1.4149663704897324
% es.Ey (V/m) @ t=0.96
0.3741010197773491
% es.Ez (V/m) @ t=0.96
-3.2318023812990884
% es.tEx (V/m) @ t=0.96
1.4149663704897328
% es.tEy (V/m) @ t=0.96
0
% es.tEz (V/m) @ t=0.96
-3.231802381299101
% V (V) @ t=0.96
0.017751832609117717
% es.normE (V/m) @ t=0.98
3.581616660663717
% es.EX (V/m) @ t=0.98
1.4274163537289484
% es.EY (V/m) @ t=0.98
0.37739382366496876
% es.EZ (V/m) @ t=0.98
-3.2602366704806602
% es.tEX (V/m) @ t=0.98
1.4274163537289493
% es.tEY (V/m) @ t=0.98
0
% es.tEZ (V/m) @ t=0.98
-3.260236670480669
% es.Ex (V/m) @ t=0.98
1.4274163537289484
% es.Ey (V/m) @ t=0.98
0.37739382366496876
% es.Ez (V/m) @ t=0.98
-3.2602366704806602
% es.tEx (V/m) @ t=0.98
1.4274163537289493
% es.tEy (V/m) @ t=0.98
0
% es.tEz (V/m) @ t=0.98
-3.260236670480669
% V (V) @ t=0.98
0.01790797445466303
% es.normE (V/m) @ t=1
3.6128542495387768
% es.EX (V/m) @ t=1
1.439866336968143
% es.EY (V/m) @ t=1
0.38068662755262395
% es.EZ (V/m) @ t=1
-3.288670959662211
% es.tEX (V/m) @ t=1
1.4398663369681364
% es.tEY (V/m) @ t=1
0
% es.tEZ (V/m) @ t=1
-3.2886709596622126
% es.Ex (V/m) @ t=1
1.439866336968143
% es.Ey (V/m) @ t=1
0.38068662755262395
% es.Ez (V/m) @ t=1
-3.288670959662211
% es.tEx (V/m) @ t=1
1.4398663369681364
% es.tEy (V/m) @ t=1
0
% es.tEz (V/m) @ t=1
-3.2886709596622126
% V (V) @ t=1
0.018064116300208346
% es.normE (V/m) @ t=1.02
3.6440918384150187
% es.EX (V/m) @ t=1.02
1.4523163202073675
% es.EY (V/m) @ t=1.02
0.3839794314402356
% es.EZ (V/m) @ t=1.02
-3.317105248843779
% es.tEX (V/m) @ t=1.02
1.452316320207368
% es.tEY (V/m) @ t=1.02
0
% es.tEZ (V/m) @ t=1.02
-3.3171052488437773
% es.Ex (V/m) @ t=1.02
1.4523163202073675
% es.Ey (V/m) @ t=1.02
0.3839794314402356
% es.Ez (V/m) @ t=1.02
-3.317105248843779
% es.tEx (V/m) @ t=1.02
1.452316320207368
% es.tEy (V/m) @ t=1.02
0
% es.tEz (V/m) @ t=1.02
-3.3171052488437773
% V (V) @ t=1.02
0.018220258145753666
% es.normE (V/m) @ t=1.04
3.6764610610339865
% es.EX (V/m) @ t=1.04
1.4652170859327778
% es.EY (V/m) @ t=1.04
0.3873909689296964
% es.EZ (V/m) @ t=1.04
-3.346569760375905
% es.tEX (V/m) @ t=1.04
1.4652170859327782
% es.tEY (V/m) @ t=1.04
0
% es.tEZ (V/m) @ t=1.04
-3.346569760375907
% es.Ex (V/m) @ t=1.04
1.4652170859327778
% es.Ey (V/m) @ t=1.04