% Model:              1 neuron.mph
% Version:            COMSOL 6.1.0.252
% Date:               Mar 22 2023, 18:30
% Dimension:          0
% Nodes:              14017
% Expressions:        14017
% Description:        Electric field norm, Electric field, X component, Electric field, Y component, Electric field, Z component, Tangential electric field, X component, Tangential electric field, Y component, Tangential electric field, Z component, Electric field, x component, Electric field, y component, Electric field, z component, Tangential electric field, x component, Tangential electric field, y component, Tangential electric field, z component, Electric potential
% Length unit:        mm
% x
1.33
% y
12.2
% z
1.33
% es.normE (V/m) @ t=0
14.070299271164096
% es.EX (V/m) @ t=0
10.902853389786376
% es.EY (V/m) @ t=0
-1.67063970905577
% es.EZ (V/m) @ t=0
8.710193482132222
% es.tEX (V/m) @ t=0
10.902853389786408
% es.tEY (V/m) @ t=0
0
% es.tEZ (V/m) @ t=0
8.710193482132217
% es.Ex (V/m) @ t=0
10.902853389786376
% es.Ey (V/m) @ t=0
-1.67063970905577
% es.Ez (V/m) @ t=0
8.710193482132222
% es.tEx (V/m) @ t=0
10.902853389786408
% es.tEy (V/m) @ t=0
0
% es.tEz (V/m) @ t=0
8.710193482132217
% V (V) @ t=0
0.011619714334161204
% es.normE (V/m) @ t=0.02
12.152589675946153
% es.EX (V/m) @ t=0.02
9.416850415310872
% es.EY (V/m) @ t=0.02
-1.4429400873467007
% es.EZ (V/m) @ t=0.02
7.523038804181052
% es.tEX (V/m) @ t=0.02
9.416850415310925
% es.tEY (V/m) @ t=0.02
0
% es.tEZ (V/m) @ t=0.02
7.523038804181061
% es.Ex (V/m) @ t=0.02
9.416850415310872
% es.Ey (V/m) @ t=0.02
-1.4429400873467007
% es.Ez (V/m) @ t=0.02
7.523038804181052
% es.tEx (V/m) @ t=0.02
9.416850415310925
% es.tEy (V/m) @ t=0.02
0
% es.tEz (V/m) @ t=0.02
7.523038804181061
% V (V) @ t=0.02
0.010036006888589131
% es.normE (V/m) @ t=0.04
12.264313382314857
% es.EX (V/m) @ t=0.04
9.50342335581059
% es.EY (V/m) @ t=0.04
-1.4562056215161423
% es.EZ (V/m) @ t=0.04
7.59220116525657
% es.tEX (V/m) @ t=0.04
9.50342335581064
% es.tEY (V/m) @ t=0.04
0
% es.tEZ (V/m) @ t=0.04
7.592201165256569
% es.Ex (V/m) @ t=0.04
9.50342335581059
% es.Ey (V/m) @ t=0.04
-1.4562056215161423
% es.Ez (V/m) @ t=0.04
7.59220116525657
% es.tEx (V/m) @ t=0.04
9.50342335581064
% es.tEy (V/m) @ t=0.04
0
% es.tEz (V/m) @ t=0.04
7.592201165256569
% V (V) @ t=0.04
0.010128271983695038
% es.normE (V/m) @ t=0.06
12.376847112528731
% es.EX (V/m) @ t=0.06
9.590623974115223
% es.EY (V/m) @ t=0.06
-1.469567342357779
% es.EZ (V/m) @ t=0.06
7.661864963484708
% es.tEX (V/m) @ t=0.06
9.590623974115257
% es.tEY (V/m) @ t=0.06
0
% es.tEZ (V/m) @ t=0.06
7.66186496348471
% es.Ex (V/m) @ t=0.06
9.590623974115223
% es.Ey (V/m) @ t=0.06
-1.469567342357779
% es.Ez (V/m) @ t=0.06
7.661864963484708
% es.tEx (V/m) @ t=0.06
9.590623974115257
% es.tEy (V/m) @ t=0.06
0
% es.tEz (V/m) @ t=0.06
7.66186496348471
% V (V) @ t=0.06
0.010221206040669315
% es.normE (V/m) @ t=0.08
12.491546542723714
% es.EX (V/m) @ t=0.08
9.67950275702971
% es.EY (V/m) @ t=0.08
-1.4831862020276088
% es.EZ (V/m) @ t=0.08
7.73286943916769
% es.tEX (V/m) @ t=0.08
9.679502757029752
% es.tEY (V/m) @ t=0.08
0
% es.tEZ (V/m) @ t=0.08
7.732869439167662
% es.Ex (V/m) @ t=0.08
9.67950275702971
% es.Ey (V/m) @ t=0.08
-1.4831862020276088
% es.Ez (V/m) @ t=0.08
7.73286943916769
% es.tEx (V/m) @ t=0.08
9.679502757029752
% es.tEy (V/m) @ t=0.08
0
% es.tEz (V/m) @ t=0.08
7.732869439167662
% V (V) @ t=0.08
0.010315928591032222
% es.normE (V/m) @ t=0.1
12.606817076491886
% es.EX (V/m) @ t=0.1
9.768824078529164
% es.EY (V/m) @ t=0.1
-1.4968728702142489
% es.EZ (V/m) @ t=0.1
7.804227456750105
% es.tEX (V/m) @ t=0.1
9.768824078529164
% es.tEY (V/m) @ t=0.1
0
% es.tEZ (V/m) @ t=0.1
7.8042274567500804
% es.Ex (V/m) @ t=0.1
9.768824078529164
% es.Ey (V/m) @ t=0.1
-1.4968728702142489
% es.Ez (V/m) @ t=0.1
7.804227456750105
% es.tEx (V/m) @ t=0.1
9.768824078529164
% es.tEy (V/m) @ t=0.1
0
% es.tEz (V/m) @ t=0.1
7.8042274567500804
% V (V) @ t=0.1
0.01041112277411153
% es.normE (V/m) @ t=0.12
12.722087610260031
% es.EX (V/m) @ t=0.12
9.858145400028583
% es.EY (V/m) @ t=0.12
-1.5105595384009458
% es.EZ (V/m) @ t=0.12
7.8755854743325155
% es.tEX (V/m) @ t=0.12
9.858145400028622
% es.tEY (V/m) @ t=0.12
0
% es.tEZ (V/m) @ t=0.12
7.875585474332506
% es.Ex (V/m) @ t=0.12
9.858145400028583
% es.Ey (V/m) @ t=0.12
-1.5105595384009458
% es.Ez (V/m) @ t=0.12
7.8755854743325155
% es.tEx (V/m) @ t=0.12
9.858145400028622
% es.tEy (V/m) @ t=0.12
0
% es.tEz (V/m) @ t=0.12
7.875585474332506
% V (V) @ t=0.12
0.010506316957190835
% es.normE (V/m) @ t=0.14
12.840756513607637
% es.EX (V/m) @ t=0.14
9.950100063303347
% es.EY (V/m) @ t=0.14
-1.524649709137588
% es.EZ (V/m) @ t=0.14
7.949047249317563
% es.tEX (V/m) @ t=0.14
9.950100063303385
% es.tEY (V/m) @ t=0.14
0
% es.tEZ (V/m) @ t=0.14
7.949047249317552
% es.Ex (V/m) @ t=0.14
9.950100063303347
% es.Ey (V/m) @ t=0.14
-1.524649709137588
% es.Ez (V/m) @ t=0.14
7.949047249317563
% es.tEx (V/m) @ t=0.14
9.950100063303385
% es.tEy (V/m) @ t=0.14
0
% es.tEz (V/m) @ t=0.14
7.949047249317552
% V (V) @ t=0.14
0.010604317617931397
% es.normE (V/m) @ t=0.16
12.96179771624928
% es.EX (V/m) @ t=0.16
10.043892983038617
% es.EY (V/m) @ t=0.16
-1.53902155283299
% es.EZ (V/m) @ t=0.16
8.023977593887052
% es.tEX (V/m) @ t=0.16
10.043892983038605
% es.tEY (V/m) @ t=0.16
0
% es.tEZ (V/m) @ t=0.16
8.023977593887043
% es.Ex (V/m) @ t=0.16
10.043892983038617
% es.Ey (V/m) @ t=0.16
-1.53902155283299
% es.Ez (V/m) @ t=0.16
8.023977593887052
% es.tEx (V/m) @ t=0.16
10.043892983038605
% es.tEy (V/m) @ t=0.16
0
% es.tEz (V/m) @ t=0.16
8.023977593887043
% V (V) @ t=0.16
0.01070427739607195
% es.normE (V/m) @ t=0.18
13.082838918890852
% es.EX (V/m) @ t=0.18
10.137685902773802
% es.EY (V/m) @ t=0.18
-1.5533933965284223
% es.EZ (V/m) @ t=0.18
8.09890793845653
% es.tEX (V/m) @ t=0.18
10.137685902773823
% es.tEY (V/m) @ t=0.18
0
% es.tEZ (V/m) @ t=0.18
8.098907938456527
% es.Ex (V/m) @ t=0.18
10.137685902773802
% es.Ey (V/m) @ t=0.18
-1.5533933965284223
% es.Ez (V/m) @ t=0.18
8.09890793845653
% es.tEx (V/m) @ t=0.18
10.137685902773823
% es.tEy (V/m) @ t=0.18
0
% es.tEz (V/m) @ t=0.18
8.098907938456527
% V (V) @ t=0.18
0.010804237174212498
% es.normE (V/m) @ t=0.2
13.203880121532453
% es.EX (V/m) @ t=0.2
10.231478822509015
% es.EY (V/m) @ t=0.2
-1.567765240223867
% es.EZ (V/m) @ t=0.2
8.173838283026017
% es.tEX (V/m) @ t=0.2
10.23147882250907
% es.tEY (V/m) @ t=0.2
0
% es.tEZ (V/m) @ t=0.2
8.173838283026019
% es.Ex (V/m) @ t=0.2
10.231478822509015
% es.Ey (V/m) @ t=0.2
-1.567765240223867
% es.Ez (V/m) @ t=0.2
8.173838283026017
% es.tEx (V/m) @ t=0.2
10.23147882250907
% es.tEy (V/m) @ t=0.2
0
% es.tEz (V/m) @ t=0.2
8.173838283026019
% V (V) @ t=0.2
0.010904196952353045
% es.normE (V/m) @ t=0.22
13.324921324174097
% es.EX (V/m) @ t=0.22
10.325271742244265
% es.EY (V/m) @ t=0.22
-1.5821370839193456
% es.EZ (V/m) @ t=0.22
8.24876862759552
% es.tEX (V/m) @ t=0.22
10.325271742244318
% es.tEY (V/m) @ t=0.22
0
% es.tEZ (V/m) @ t=0.22
8.248768627595501
% es.Ex (V/m) @ t=0.22
10.325271742244265
% es.Ey (V/m) @ t=0.22
-1.5821370839193456
% es.Ez (V/m) @ t=0.22
8.24876862759552
% es.tEx (V/m) @ t=0.22
10.325271742244318
% es.tEy (V/m) @ t=0.22
0
% es.tEz (V/m) @ t=0.22
8.248768627595501
% V (V) @ t=0.22
0.011004156730493594
% es.normE (V/m) @ t=0.24
13.445962526815734
% es.EX (V/m) @ t=0.24
10.41906466197952
% es.EY (V/m) @ t=0.24
-1.5965089276146998
% es.EZ (V/m) @ t=0.24
8.32369897216502
% es.tEX (V/m) @ t=0.24
10.419064661979593
% es.tEY (V/m) @ t=0.24
0
% es.tEZ (V/m) @ t=0.24
8.323698972165023
% es.Ex (V/m) @ t=0.24
10.41906466197952
% es.Ey (V/m) @ t=0.24
-1.5965089276146998
% es.Ez (V/m) @ t=0.24
8.32369897216502
% es.tEx (V/m) @ t=0.24
10.419064661979593
% es.tEy (V/m) @ t=0.24
0
% es.tEz (V/m) @ t=0.24
8.323698972165023
% V (V) @ t=0.24
0.011104116508634142
% es.normE (V/m) @ t=0.26
13.56937566670743
% es.EX (V/m) @ t=0.26
10.51469555969378
% es.EY (V/m) @ t=0.26
-1.6111624068302888
% es.EZ (V/m) @ t=0.26
8.400097657756177
% es.tEX (V/m) @ t=0.26
10.514695559693799
% es.tEY (V/m) @ t=0.26
0
% es.tEZ (V/m) @ t=0.26
8.400097657756174
% es.Ex (V/m) @ t=0.26
10.51469555969378
% es.Ey (V/m) @ t=0.26
-1.6111624068302888
% es.Ez (V/m) @ t=0.26
8.400097657756177
% es.tEx (V/m) @ t=0.26
10.514695559693799
% es.tEy (V/m) @ t=0.26
0
% es.tEz (V/m) @ t=0.26
8.400097657756174
% V (V) @ t=0.26
0.01120603511674301
% es.normE (V/m) @ t=0.28
13.703303449249102
% es.EX (V/m) @ t=0.28
10.618474093542742
% es.EY (V/m) @ t=0.28
-1.627064357881057
% es.EZ (V/m) @ t=0.28
8.483005403032905
% es.tEX (V/m) @ t=0.28
10.618474093542797
% es.tEY (V/m) @ t=0.28
0
% es.tEZ (V/m) @ t=0.28
8.483005403032932
% es.Ex (V/m) @ t=0.28
10.618474093542742
% es.Ey (V/m) @ t=0.28
-1.627064357881057
% es.Ez (V/m) @ t=0.28
8.483005403032905
% es.tEx (V/m) @ t=0.28
10.618474093542797
% es.tEy (V/m) @ t=0.28
0
% es.tEz (V/m) @ t=0.28
8.483005403032932
% V (V) @ t=0.28
0.011316637089948497
% es.normE (V/m) @ t=0.3
13.837231231790767
% es.EX (V/m) @ t=0.3
10.722252627391669
% es.EY (V/m) @ t=0.3
-1.6429663089318307
% es.EZ (V/m) @ t=0.3
8.565913148309658
% es.tEX (V/m) @ t=0.3
10.722252627391684
% es.tEY (V/m) @ t=0.3
0
% es.tEZ (V/m) @ t=0.3
8.565913148309646
% es.Ex (V/m) @ t=0.3
10.722252627391669
% es.Ey (V/m) @ t=0.3
-1.6429663089318307
% es.Ez (V/m) @ t=0.3
8.565913148309658
% es.tEx (V/m) @ t=0.3
10.722252627391684
% es.tEy (V/m) @ t=0.3
0
% es.tEz (V/m) @ t=0.3
8.565913148309646
% V (V) @ t=0.3
0.01142723906315398
% es.normE (V/m) @ t=0.32
13.971159014332429
% es.EX (V/m) @ t=0.32
10.826031161240603
% es.EY (V/m) @ t=0.32
-1.658868259982608
% es.EZ (V/m) @ t=0.32
8.6488208935864
% es.tEX (V/m) @ t=0.32
10.826031161240628
% es.tEY (V/m) @ t=0.32
0
% es.tEZ (V/m) @ t=0.32
8.64882089358639
% es.Ex (V/m) @ t=0.32
10.826031161240603
% es.Ey (V/m) @ t=0.32
-1.658868259982608
% es.Ez (V/m) @ t=0.32
8.6488208935864
% es.tEx (V/m) @ t=0.32
10.826031161240628
% es.tEy (V/m) @ t=0.32
0
% es.tEz (V/m) @ t=0.32
8.64882089358639
% V (V) @ t=0.32
0.011537841036359466
% es.normE (V/m) @ t=0.34
14.105086796874101
% es.EX (V/m) @ t=0.34
10.929809695089558
% es.EY (V/m) @ t=0.34
-1.6747702110334082
% es.EZ (V/m) @ t=0.34
8.731728638863128
% es.tEX (V/m) @ t=0.34
10.92980969508957
% es.tEY (V/m) @ t=0.34
0
% es.tEZ (V/m) @ t=0.34
8.731728638863117
% es.Ex (V/m) @ t=0.34
10.929809695089558
% es.Ey (V/m) @ t=0.34
-1.6747702110334082
% es.Ez (V/m) @ t=0.34
8.731728638863128
% es.tEx (V/m) @ t=0.34
10.92980969508957
% es.tEy (V/m) @ t=0.34
0
% es.tEz (V/m) @ t=0.34
8.731728638863117
% V (V) @ t=0.34
0.01164844300956495
% es.normE (V/m) @ t=0.36
14.23901457941582
% es.EX (V/m) @ t=0.36
11.033588228938548
% es.EY (V/m) @ t=0.36
-1.690672162084212
% es.EZ (V/m) @ t=0.36
8.81463638413988
% es.tEX (V/m) @ t=0.36
11.03358822893857
% es.tEY (V/m) @ t=0.36
0
% es.tEZ (V/m) @ t=0.36
8.814636384139874
% es.Ex (V/m) @ t=0.36
11.033588228938548
% es.Ey (V/m) @ t=0.36
-1.690672162084212
% es.Ez (V/m) @ t=0.36
8.81463638413988
% es.tEx (V/m) @ t=0.36
11.03358822893857
% es.tEy (V/m) @ t=0.36
0
% es.tEz (V/m) @ t=0.36
8.814636384139874
% V (V) @ t=0.36
0.011759044982770436
% es.normE (V/m) @ t=0.38
14.3729423619574
% es.EX (V/m) @ t=0.38
11.13736676278741
% es.EY (V/m) @ t=0.38
-1.7065741131349572
% es.EZ (V/m) @ t=0.38
8.89754412941659
% es.tEX (V/m) @ t=0.38
11.137366762787455
% es.tEY (V/m) @ t=0.38
0
% es.tEZ (V/m) @ t=0.38
8.897544129416604
% es.Ex (V/m) @ t=0.38
11.13736676278741
% es.Ey (V/m) @ t=0.38
-1.7065741131349572
% es.Ez (V/m) @ t=0.38
8.89754412941659
% es.tEx (V/m) @ t=0.38
11.137366762787455
% es.tEy (V/m) @ t=0.38
0
% es.tEz (V/m) @ t=0.38
8.897544129416604
% V (V) @ t=0.38
0.011869646955975923
% es.normE (V/m) @ t=0.4
14.506870144499072
% es.EX (V/m) @ t=0.4
11.241145296636365
% es.EY (V/m) @ t=0.4
-1.7224760641857433
% es.EZ (V/m) @ t=0.4
8.980451874693319
% es.tEX (V/m) @ t=0.4
11.2411452966364
% es.tEY (V/m) @ t=0.4
0
% es.tEZ (V/m) @ t=0.4
8.980451874693319
% es.Ex (V/m) @ t=0.4
11.241145296636365
% es.Ey (V/m) @ t=0.4
-1.7224760641857433
% es.Ez (V/m) @ t=0.4
8.980451874693319
% es.tEx (V/m) @ t=0.4
11.2411452966364
% es.tEy (V/m) @ t=0.4
0
% es.tEz (V/m) @ t=0.4
8.980451874693319
% V (V) @ t=0.4
0.011980248929181406
% es.normE (V/m) @ t=0.42
14.640797927040772
% es.EX (V/m) @ t=0.42
11.344923830485342
% es.EY (V/m) @ t=0.42
-1.738378015236524
% es.EZ (V/m) @ t=0.42
9.063359619970068
% es.tEX (V/m) @ t=0.42
11.34492383048537
% es.tEY (V/m) @ t=0.42
0
% es.tEZ (V/m) @ t=0.42
9.063359619970061
% es.Ex (V/m) @ t=0.42
11.344923830485342
% es.Ey (V/m) @ t=0.42
-1.738378015236524
% es.Ez (V/m) @ t=0.42
9.063359619970068
% es.tEx (V/m) @ t=0.42
11.34492383048537
% es.tEy (V/m) @ t=0.42
0
% es.tEz (V/m) @ t=0.42
9.063359619970061
% V (V) @ t=0.42
0.012090850902386891
% es.normE (V/m) @ t=0.44
14.774725709582434
% es.EX (V/m) @ t=0.44
11.448702364334276
% es.EY (V/m) @ t=0.44
-1.7542799662873332
% es.EZ (V/m) @ t=0.44
9.146267365246803
% es.tEX (V/m) @ t=0.44
11.448702364334313
% es.tEY (V/m) @ t=0.44
0
% es.tEZ (V/m) @ t=0.44
9.146267365246805
% es.Ex (V/m) @ t=0.44
11.448702364334276
% es.Ey (V/m) @ t=0.44
-1.7542799662873332
% es.Ez (V/m) @ t=0.44
9.146267365246803
% es.tEx (V/m) @ t=0.44
11.448702364334313
% es.tEy (V/m) @ t=0.44
0
% es.tEz (V/m) @ t=0.44
9.146267365246805
% V (V) @ t=0.44
0.012201452875592378
% es.normE (V/m) @ t=0.46
14.908653492124092
% es.EX (V/m) @ t=0.46
11.552480898183223
% es.EY (V/m) @ t=0.46
-1.770181917338105
% es.EZ (V/m) @ t=0.46
9.229175110523524
% es.tEX (V/m) @ t=0.46
11.552480898183255
% es.tEY (V/m) @ t=0.46
0
% es.tEZ (V/m) @ t=0.46
9.229175110523533
% es.Ex (V/m) @ t=0.46
11.552480898183223
% es.Ey (V/m) @ t=0.46
-1.770181917338105
% es.Ez (V/m) @ t=0.46
9.229175110523524
% es.tEx (V/m) @ t=0.46
11.552480898183255
% es.tEy (V/m) @ t=0.46
0
% es.tEz (V/m) @ t=0.46
9.229175110523533
% V (V) @ t=0.46
0.012312054848797865
% es.normE (V/m) @ t=0.48
15.042581274665753
% es.EX (V/m) @ t=0.48
11.65625943203217
% es.EY (V/m) @ t=0.48
-1.7860838683888485
% es.EZ (V/m) @ t=0.48
9.312082855800254
% es.tEX (V/m) @ t=0.48
11.656259432032199
% es.tEY (V/m) @ t=0.48
0
% es.tEZ (V/m) @ t=0.48
9.312082855800249
% es.Ex (V/m) @ t=0.48
11.65625943203217
% es.Ey (V/m) @ t=0.48
-1.7860838683888485
% es.Ez (V/m) @ t=0.48
9.312082855800254
% es.tEx (V/m) @ t=0.48
11.656259432032199
% es.tEy (V/m) @ t=0.48
0
% es.tEz (V/m) @ t=0.48
9.312082855800249
% V (V) @ t=0.48
0.012422656822003348
% es.normE (V/m) @ t=0.5
15.1765090572074
% es.EX (V/m) @ t=0.5
11.760037965881063
% es.EY (V/m) @ t=0.5
-1.8019858194396114
% es.EZ (V/m) @ t=0.5
9.394990601077023
% es.tEX (V/m) @ t=0.5
11.760037965881086
% es.tEY (V/m) @ t=0.5
0
% es.tEZ (V/m) @ t=0.5
9.394990601077005
% es.Ex (V/m) @ t=0.5
11.760037965881063
% es.Ey (V/m) @ t=0.5
-1.8019858194396114
% es.Ez (V/m) @ t=0.5
9.394990601077023
% es.tEx (V/m) @ t=0.5
11.760037965881086
% es.tEy (V/m) @ t=0.5
0
% es.tEz (V/m) @ t=0.5
9.394990601077005
% V (V) @ t=0.5
0.012533258795208831
% es.normE (V/m) @ t=0.52
15.315861473418053
% es.EX (V/m) @ t=0.52
11.868019961529864
% es.EY (V/m) @ t=0.52
-1.8185318615634838
% es.EZ (V/m) @ t=0.52
9.481256459157944
% es.tEX (V/m) @ t=0.52
11.868019961529901
% es.tEY (V/m) @ t=0.52
0
% es.tEZ (V/m) @ t=0.52
9.481256459157951
% es.Ex (V/m) @ t=0.52
11.868019961529864
% es.Ey (V/m) @ t=0.52
-1.8185318615634838
% es.Ez (V/m) @ t=0.52
9.481256459157944
% es.tEx (V/m) @ t=0.52
11.868019961529901
% es.tEy (V/m) @ t=0.52
0
% es.tEz (V/m) @ t=0.52
9.481256459157951
% V (V) @ t=0.52
0.01264834060067058
% es.normE (V/m) @ t=0.54
15.46427890565937
% es.EX (V/m) @ t=0.54
11.983026293000195
% es.EY (V/m) @ t=0.54
-1.8361542336770622
% es.EZ (V/m) @ t=0.54
9.57313400426896
% es.tEX (V/m) @ t=0.54
11.983026293000183
% es.tEY (V/m) @ t=0.54
0
% es.tEZ (V/m) @ t=0.54
9.573134004268937
% es.Ex (V/m) @ t=0.54
11.983026293000195
% es.Ey (V/m) @ t=0.54
-1.8361542336770622
% es.Ez (V/m) @ t=0.54
9.57313400426896
% es.tEx (V/m) @ t=0.54
11.983026293000183
% es.tEy (V/m) @ t=0.54
0
% es.tEz (V/m) @ t=0.54
9.573134004268937
% V (V) @ t=0.54
0.012770908580074368
% es.normE (V/m) @ t=0.56
15.612696337900653
% es.EX (V/m) @ t=0.56
12.09803262447047
% es.EY (V/m) @ t=0.56
-1.8537766057907312
% es.EZ (V/m) @ t=0.56
9.665011549379976
% es.tEX (V/m) @ t=0.56
12.098032624470548
% es.tEY (V/m) @ t=0.56
0
% es.tEZ (V/m) @ t=0.56
9.665011549379965
% es.Ex (V/m) @ t=0.56
12.09803262447047
% es.Ey (V/m) @ t=0.56
-1.8537766057907312
% es.Ez (V/m) @ t=0.56
9.665011549379976
% es.tEx (V/m) @ t=0.56
12.098032624470548
% es.tEy (V/m) @ t=0.56
0
% es.tEz (V/m) @ t=0.56
9.665011549379965
% V (V) @ t=0.56
0.012893476559478156
% es.normE (V/m) @ t=0.58
15.761113770141996
% es.EX (V/m) @ t=0.58
12.213038955940865
% es.EY (V/m) @ t=0.58
-1.8713989779043008
% es.EZ (V/m) @ t=0.58
9.756889094490955
% es.tEX (V/m) @ t=0.58
12.213038955940915
% es.tEY (V/m) @ t=0.58
0
% es.tEZ (V/m) @ t=0.58
9.756889094490937
% es.Ex (V/m) @ t=0.58
12.213038955940865
% es.Ey (V/m) @ t=0.58
-1.8713989779043008
% es.Ez (V/m) @ t=0.58
9.756889094490955
% es.tEx (V/m) @ t=0.58
12.213038955940915
% es.tEy (V/m) @ t=0.58
0
% es.tEz (V/m) @ t=0.58
9.756889094490937
% V (V) @ t=0.58
0.013016044538881943
% es.normE (V/m) @ t=0.6
15.909531202383302
% es.EX (V/m) @ t=0.6
12.328045287411163
% es.EY (V/m) @ t=0.6
-1.8890213500180035
% es.EZ (V/m) @ t=0.6
9.848766639601978
% es.tEX (V/m) @ t=0.6
12.328045287411225
% es.tEY (V/m) @ t=0.6
0
% es.tEZ (V/m) @ t=0.6
9.848766639601962
% es.Ex (V/m) @ t=0.6
12.328045287411163
% es.Ey (V/m) @ t=0.6
-1.8890213500180035
% es.Ez (V/m) @ t=0.6
9.848766639601978
% es.tEx (V/m) @ t=0.6
12.328045287411225
% es.tEy (V/m) @ t=0.6
0
% es.tEz (V/m) @ t=0.6
9.848766639601962
% V (V) @ t=0.6
0.013138612518285731
% es.normE (V/m) @ t=0.62
16.05794863462465
% es.EX (V/m) @ t=0.62
12.443051618881558
% es.EY (V/m) @ t=0.62
-1.906643722131582
% es.EZ (V/m) @ t=0.62
9.940644184712966
% es.tEX (V/m) @ t=0.62
12.44305161888159
% es.tEY (V/m) @ t=0.62
0
% es.tEZ (V/m) @ t=0.62
9.940644184712976
% es.Ex (V/m) @ t=0.62
12.443051618881558
% es.Ey (V/m) @ t=0.62
-1.906643722131582
% es.Ez (V/m) @ t=0.62
9.940644184712966
% es.tEx (V/m) @ t=0.62
12.44305161888159
% es.tEy (V/m) @ t=0.62
0
% es.tEz (V/m) @ t=0.62
9.940644184712976
% V (V) @ t=0.62
0.013261180497689519
% es.normE (V/m) @ t=0.64
16.206366066865957
% es.EX (V/m) @ t=0.64
12.558057950351856
% es.EY (V/m) @ t=0.64
-1.92426609424529
% es.EZ (V/m) @ t=0.64
10.032521729823987
% es.tEX (V/m) @ t=0.64
12.558057950351902
% es.tEY (V/m) @ t=0.64
0
% es.tEZ (V/m) @ t=0.64
10.032521729823975
% es.Ex (V/m) @ t=0.64
12.558057950351856
% es.Ey (V/m) @ t=0.64
-1.92426609424529
% es.Ez (V/m) @ t=0.64
10.032521729823987
% es.tEx (V/m) @ t=0.64
12.558057950351902
% es.tEy (V/m) @ t=0.64
0
% es.tEz (V/m) @ t=0.64
10.032521729823975
% V (V) @ t=0.64
0.013383748477093307
% es.normE (V/m) @ t=0.66
16.354783499107292
% es.EX (V/m) @ t=0.66
12.67306428182223
% es.EY (V/m) @ t=0.66
-1.9418884663588987
% es.EZ (V/m) @ t=0.66
10.12439927493497
% es.tEX (V/m) @ t=0.66
12.673064281822295
% es.tEY (V/m) @ t=0.66
0
% es.tEZ (V/m) @ t=0.66
10.124399274934975
% es.Ex (V/m) @ t=0.66
12.67306428182223
% es.Ey (V/m) @ t=0.66
-1.9418884663588987
% es.Ez (V/m) @ t=0.66
10.12439927493497
% es.tEx (V/m) @ t=0.66
12.673064281822295
% es.tEy (V/m) @ t=0.66
0
% es.tEz (V/m) @ t=0.66
10.124399274934975
% V (V) @ t=0.66
0.013506316456497096
% es.normE (V/m) @ t=0.68
16.503200931348623
% es.EX (V/m) @ t=0.68
12.788070613292561
% es.EY (V/m) @ t=0.68
-1.9595108384724966
% es.EZ (V/m) @ t=0.68
10.216276820046005
% es.tEX (V/m) @ t=0.68
12.788070613292604
% es.tEY (V/m) @ t=0.68
0
% es.tEZ (V/m) @ t=0.68
10.216276820045989
% es.Ex (V/m) @ t=0.68
12.788070613292561
% es.Ey (V/m) @ t=0.68
-1.9595108384724966
% es.Ez (V/m) @ t=0.68
10.216276820046005
% es.tEx (V/m) @ t=0.68
12.788070613292604
% es.tEy (V/m) @ t=0.68
0
% es.tEz (V/m) @ t=0.68
10.216276820045989
% V (V) @ t=0.68
0.013628884435900884
% es.normE (V/m) @ t=0.7
16.65161836358994
% es.EX (V/m) @ t=0.7
12.903076944762914
% es.EY (V/m) @ t=0.7
-1.9771332105861354
% es.EZ (V/m) @ t=0.7
10.308154365156986
% es.tEX (V/m) @ t=0.7
12.90307694476297
% es.tEY (V/m) @ t=0.7
0
% es.tEZ (V/m) @ t=0.7
10.30815436515699
% es.Ex (V/m) @ t=0.7
12.903076944762914
% es.Ey (V/m) @ t=0.7
-1.9771332105861354
% es.Ez (V/m) @ t=0.7
10.308154365156986
% es.tEx (V/m) @ t=0.7
12.90307694476297
% es.tEy (V/m) @ t=0.7
0
% es.tEz (V/m) @ t=0.7
10.30815436515699
% V (V) @ t=0.7
0.013751452415304672
% es.normE (V/m) @ t=0.72
16.800035795831278
% es.EX (V/m) @ t=0.72
13.018083276233266
% es.EY (V/m) @ t=0.72
-1.9947555826998151
% es.EZ (V/m) @ t=0.72
10.400031910267995
% es.tEX (V/m) @ t=0.72
13.018083276233309
% es.tEY (V/m) @ t=0.72
0
% es.tEZ (V/m) @ t=0.72
10.40003191026799
% es.Ex (V/m) @ t=0.72
13.018083276233266
% es.Ey (V/m) @ t=0.72
-1.9947555826998151
% es.Ez (V/m) @ t=0.72
10.400031910267995
% es.tEx (V/m) @ t=0.72
13.018083276233309
% es.tEy (V/m) @ t=0.72
0
% es.tEz (V/m) @ t=0.72
10.40003191026799
% V (V) @ t=0.72
0.013874020394708461
% es.normE (V/m) @ t=0.74
16.948453228072587
% es.EX (V/m) @ t=0.74
13.133089607703585
% es.EY (V/m) @ t=0.74
-2.012377954813438
% es.EZ (V/m) @ t=0.74
10.491909455379002
% es.tEX (V/m) @ t=0.74
13.133089607703589
% es.tEY (V/m) @ t=0.74
0
% es.tEZ (V/m) @ t=0.74
10.491909455379
% es.Ex (V/m) @ t=0.74
13.133089607703585
% es.Ey (V/m) @ t=0.74
-2.012377954813438
% es.Ez (V/m) @ t=0.74
10.491909455379002
% es.tEx (V/m) @ t=0.74
13.133089607703589
% es.tEy (V/m) @ t=0.74
0
% es.tEz (V/m) @ t=0.74
10.491909455379
% V (V) @ t=0.74
0.013996588374112247
% es.normE (V/m) @ t=0.76
17.09687066031389
% es.EX (V/m) @ t=0.76
13.24809593917391
% es.EY (V/m) @ t=0.76
-2.0300003269270626
% es.EZ (V/m) @ t=0.76
10.583787000489998
% es.tEX (V/m) @ t=0.76
13.248095939173984
% es.tEY (V/m) @ t=0.76
0
% es.tEZ (V/m) @ t=0.76
10.58378700049
% es.Ex (V/m) @ t=0.76
13.24809593917391
% es.Ey (V/m) @ t=0.76
-2.0300003269270626
% es.Ez (V/m) @ t=0.76
10.583787000489998
% es.tEx (V/m) @ t=0.76
13.248095939173984
% es.tEy (V/m) @ t=0.76
0
% es.tEz (V/m) @ t=0.76
10.58378700049
% V (V) @ t=0.76
0.01411915635351604
% es.normE (V/m) @ t=0.78
17.254504420765386
% es.EX (V/m) @ t=0.78
13.370243858082496
% es.EY (V/m) @ t=0.78
-2.048717001027395
% es.EZ (V/m) @ t=0.78
10.681369897440371
% es.tEX (V/m) @ t=0.78
13.370243858082548
% es.tEY (V/m) @ t=0.78
0
% es.tEZ (V/m) @ t=0.78
10.681369897440362
% es.Ex (V/m) @ t=0.78
13.370243858082496
% es.Ey (V/m) @ t=0.78
-2.048717001027395
% es.Ez (V/m) @ t=0.78
10.681369897440371
% es.tEx (V/m) @ t=0.78
13.370243858082548
% es.tEy (V/m) @ t=0.78
0
% es.tEz (V/m) @ t=0.78
10.681369897440362
% V (V) @ t=0.78
0.014249335477741086
% es.normE (V/m) @ t=0.8
17.419242684552515
% es.EX (V/m) @ t=0.8
13.49789694462612
% es.EY (V/m) @ t=0.8
-2.0682772293000617
% es.EZ (V/m) @ t=0.8
10.783350824739667
% es.tEX (V/m) @ t=0.8
13.497896944626149
% es.tEY (V/m) @ t=0.8
0
% es.tEZ (V/m) @ t=0.8
10.783350824739662
% es.Ex (V/m) @ t=0.8
13.49789694462612
% es.Ey (V/m) @ t=0.8
-2.0682772293000617
% es.Ez (V/m) @ t=0.8
10.783350824739667
% es.tEx (V/m) @ t=0.8
13.497896944626149
% es.tEy (V/m) @ t=0.8
0
% es.tEz (V/m) @ t=0.8
10.783350824739662
% V (V) @ t=0.8
0.014385381732838444
% es.normE (V/m) @ t=0.82
17.583980948339637
% es.EX (V/m) @ t=0.82
13.625550031169752
% es.EY (V/m) @ t=0.82
-2.0878374575727356
% es.EZ (V/m) @ t=0.82
10.885331752038937
% es.tEX (V/m) @ t=0.82
13.625550031169807
% es.tEY (V/m) @ t=0.82
0
% es.tEZ (V/m) @ t=0.82
10.88533175203895
% es.Ex (V/m) @ t=0.82
13.625550031169752
% es.Ey (V/m) @ t=0.82
-2.0878374575727356
% es.Ez (V/m) @ t=0.82
10.885331752038937
% es.tEx (V/m) @ t=0.82
13.625550031169807
% es.tEy (V/m) @ t=0.82
0
% es.tEz (V/m) @ t=0.82
10.88533175203895
% V (V) @ t=0.82
0.014521427987935803
% es.normE (V/m) @ t=0.84
17.748719212126858
% es.EX (V/m) @ t=0.84
13.753203117713467
% es.EY (V/m) @ t=0.84
-2.107397685845349
% es.EZ (V/m) @ t=0.84
10.987312679338263
% es.tEX (V/m) @ t=0.84
13.753203117713493
% es.tEY (V/m) @ t=0.84
0
% es.tEZ (V/m) @ t=0.84
10.98731267933825
% es.Ex (V/m) @ t=0.84
13.753203117713467
% es.Ey (V/m) @ t=0.84
-2.107397685845349
% es.Ez (V/m) @ t=0.84
10.987312679338263
% es.tEx (V/m) @ t=0.84
13.753203117713493
% es.tEy (V/m) @ t=0.84
0
% es.tEz (V/m) @ t=0.84
10.98731267933825
% V (V) @ t=0.84
0.014657474243033163
% es.normE (V/m) @ t=0.86
17.91345747591395
% es.EX (V/m) @ t=0.86
13.880856204257068
% es.EY (V/m) @ t=0.86
-2.126957914118009
% es.EZ (V/m) @ t=0.86
11.089293606637524
% es.tEX (V/m) @ t=0.86
13.880856204257125
% es.tEY (V/m) @ t=0.86
0
% es.tEZ (V/m) @ t=0.86
11.08929360663752
% es.Ex (V/m) @ t=0.86
13.880856204257068
% es.Ey (V/m) @ t=0.86
-2.126957914118009
% es.Ez (V/m) @ t=0.86
11.089293606637524
% es.tEx (V/m) @ t=0.86
13.880856204257125
% es.tEy (V/m) @ t=0.86
0
% es.tEz (V/m) @ t=0.86
11.08929360663752
% V (V) @ t=0.86
0.01479352049813052
% es.normE (V/m) @ t=0.88
18.0781957397011
% es.EX (V/m) @ t=0.88
14.0085092908007
% es.EY (V/m) @ t=0.88
-2.146518142390658
% es.EZ (V/m) @ t=0.88
11.191274533936843
% es.tEX (V/m) @ t=0.88
14.008509290800752
% es.tEY (V/m) @ t=0.88
0
% es.tEZ (V/m) @ t=0.88
11.191274533936834
% es.Ex (V/m) @ t=0.88
14.0085092908007
% es.Ey (V/m) @ t=0.88
-2.146518142390658
% es.Ez (V/m) @ t=0.88
11.191274533936843
% es.tEx (V/m) @ t=0.88
14.008509290800752
% es.tEy (V/m) @ t=0.88
0
% es.tEz (V/m) @ t=0.88
11.191274533936834
% V (V) @ t=0.88
0.014929566753227883
% es.normE (V/m) @ t=0.9
18.24293400348827
% es.EX (V/m) @ t=0.9
14.136162377344402
% es.EY (V/m) @ t=0.9
-2.1660783706633175
% es.EZ (V/m) @ t=0.9
11.293255461236104
% es.tEX (V/m) @ t=0.9
14.13616237734447
% es.tEY (V/m) @ t=0.9
0
% es.tEZ (V/m) @ t=0.9
11.293255461236106
% es.Ex (V/m) @ t=0.9
14.136162377344402
% es.Ey (V/m) @ t=0.9
-2.1660783706633175
% es.Ez (V/m) @ t=0.9
11.293255461236104
% es.tEx (V/m) @ t=0.9
14.13616237734447
% es.tEy (V/m) @ t=0.9
0
% es.tEz (V/m) @ t=0.9
11.293255461236106
% V (V) @ t=0.9
0.015065613008325244
% es.normE (V/m) @ t=0.92
18.4076722672754
% es.EX (V/m) @ t=0.92
14.263815463888045
% es.EY (V/m) @ t=0.92
-2.1856385989359346
% es.EZ (V/m) @ t=0.92
11.39523638853538
% es.tEX (V/m) @ t=0.92
14.263815463888125
% es.tEY (V/m) @ t=0.92
0
% es.tEZ (V/m) @ t=0.92
11.395236388535393
% es.Ex (V/m) @ t=0.92
14.263815463888045
% es.Ey (V/m) @ t=0.92
-2.1856385989359346
% es.Ez (V/m) @ t=0.92
11.39523638853538
% es.tEx (V/m) @ t=0.92
14.263815463888125
% es.tEy (V/m) @ t=0.92
0
% es.tEz (V/m) @ t=0.92
11.395236388535393
% V (V) @ t=0.92
0.015201659263422602
% es.normE (V/m) @ t=0.94
18.572410531062545
% es.EX (V/m) @ t=0.94
14.391468550431675
% es.EY (V/m) @ t=0.94
-2.205198827208587
% es.EZ (V/m) @ t=0.94
11.497217315834693
% es.tEX (V/m) @ t=0.94
14.391468550431728
% es.tEY (V/m) @ t=0.94
0
% es.tEZ (V/m) @ t=0.94
11.497217315834664
% es.Ex (V/m) @ t=0.94
14.391468550431675
% es.Ey (V/m) @ t=0.94
-2.205198827208587
% es.Ez (V/m) @ t=0.94
11.497217315834693
% es.tEx (V/m) @ t=0.94
14.391468550431728
% es.tEy (V/m) @ t=0.94
0
% es.tEz (V/m) @ t=0.94
11.497217315834664
% V (V) @ t=0.94
0.01533770551851996
% es.normE (V/m) @ t=0.96
18.73714879484973
% es.EX (V/m) @ t=0.96
14.519121636975363
% es.EY (V/m) @ t=0.96
-2.224759055481222
% es.EZ (V/m) @ t=0.96
11.599198243133998
% es.tEX (V/m) @ t=0.96
14.519121636975441
% es.tEY (V/m) @ t=0.96
0
% es.tEZ (V/m) @ t=0.96
11.599198243133992
% es.Ex (V/m) @ t=0.96
14.519121636975363
% es.Ey (V/m) @ t=0.96
-2.224759055481222
% es.Ez (V/m) @ t=0.96
11.599198243133998
% es.tEx (V/m) @ t=0.96
14.519121636975441
% es.tEy (V/m) @ t=0.96
0
% es.tEz (V/m) @ t=0.96
11.599198243133992
% V (V) @ t=0.96
0.01547375177361732
% es.normE (V/m) @ t=0.98
18.901887058636863
% es.EX (V/m) @ t=0.98
14.646774723519009
% es.EY (V/m) @ t=0.98
-2.2443192837538533
% es.EZ (V/m) @ t=0.98
11.701179170433274
% es.tEX (V/m) @ t=0.98
14.646774723519073
% es.tEY (V/m) @ t=0.98
0
% es.tEZ (V/m) @ t=0.98
11.70117917043328
% es.Ex (V/m) @ t=0.98
14.646774723519009
% es.Ey (V/m) @ t=0.98
-2.2443192837538533
% es.Ez (V/m) @ t=0.98
11.701179170433274
% es.tEx (V/m) @ t=0.98
14.646774723519073
% es.tEy (V/m) @ t=0.98
0
% es.tEz (V/m) @ t=0.98
11.70117917043328
% V (V) @ t=0.98
0.01560979802871468
% es.normE (V/m) @ t=1
19.066625322424006
% es.EX (V/m) @ t=1
14.774427810062653
% es.EY (V/m) @ t=1
-2.263879512026513
% es.EZ (V/m) @ t=1
11.803160097732562
% es.tEX (V/m) @ t=1
14.774427810062674
% es.tEY (V/m) @ t=1
0
% es.tEZ (V/m) @ t=1
11.80316009773255
% es.Ex (V/m) @ t=1
14.774427810062653
% es.Ey (V/m) @ t=1
-2.263879512026513
% es.Ez (V/m) @ t=1
11.803160097732562
% es.tEx (V/m) @ t=1
14.774427810062674
% es.tEy (V/m) @ t=1
0
% es.tEz (V/m) @ t=1
11.80316009773255
% V (V) @ t=1
0.01574584428381204
% es.normE (V/m) @ t=1.02
19.231363586211177
% es.EX (V/m) @ t=1.02
14.902080896606298
% es.EY (V/m) @ t=1.02
-2.283439740299176
% es.EZ (V/m) @ t=1.02
11.905141025031895
% es.tEX (V/m) @ t=1.02
14.90208089660636
% es.tEY (V/m) @ t=1.02
0
% es.tEZ (V/m) @ t=1.02
11.905141025031865
% es.Ex (V/m) @ t=1.02
14.902080896606298
% es.Ey (V/m) @ t=1.02
-2.283439740299176
% es.Ez (V/m) @ t=1.02
11.905141025031895
% es.tEx (V/m) @ t=1.02
14.90208089660636
% es.tEy (V/m) @ t=1.02
0
% es.tEz (V/m) @ t=1.02
11.905141025031865
% V (V) @ t=1.02
0.0158818905389094
% es.normE (V/m) @ t=1.04
19.402113711944644
% es.EX (V/m) @ t=1.04
15.03439248025532
% es.EY (V/m) @ t=1.04
-2.303713787978463
% es.EZ (V/m) @ t=1.04
12.010843584814335
% es.tEX (V/m) @ t=1.04
15.034392480255324
% es.tEY (V/m) @ t=1.04
0
% es.tEZ (V/m) @ t=1.04
12.010843584814312
% es.Ex (V/m) @ t=1.04
15.03439248025532
% es.Ey (V/m) @ t=1.04
-2.303713787978463
% es.Ez (V/m) @ t=1.04
12.010843584814335
% es.tEx (V/m) @ t=1.04
15.034392480255324
% es.tEy (V/m) @ t=1.04
0
% es.tEz (V/m) @ t=1.04
12.010843584814312
% V (V) @ t=1.04
0.016022901586293343
% es.normE (V/m) @ t=1.06
19.575844760009332
% es.EX (V/m) @ t=1.06
15.169013933654394