% Model:              1 neuron.mph
% Version:            COMSOL 6.1.0.252
% Date:               Mar 22 2023, 18:30
% Dimension:          0
% Nodes:              14017
% Expressions:        14017
% Description:        Electric field norm, Electric field, X component, Electric field, Y component, Electric field, Z component, Tangential electric field, X component, Tangential electric field, Y component, Tangential electric field, Z component, Electric field, x component, Electric field, y component, Electric field, z component, Tangential electric field, x component, Tangential electric field, y component, Tangential electric field, z component, Electric potential
% Length unit:        mm
% x
1.66
% y
12.2
% z
1.33
% es.normE (V/m) @ t=0
13.879240813568117
% es.EX (V/m) @ t=0
-7.711867507523857
% es.EY (V/m) @ t=0
-0.8324292818429737
% es.EZ (V/m) @ t=0
10.326139176102203
% es.tEX (V/m) @ t=0
-7.711867507523872
% es.tEY (V/m) @ t=0
0
% es.tEZ (V/m) @ t=0
10.326139176102199
% es.Ex (V/m) @ t=0
-7.711867507523857
% es.Ey (V/m) @ t=0
-0.8324292818429737
% es.Ez (V/m) @ t=0
10.326139176102203
% es.tEx (V/m) @ t=0
-7.711867507523872
% es.tEy (V/m) @ t=0
0
% es.tEz (V/m) @ t=0
10.326139176102199
% V (V) @ t=0
0.011398536023626088
% es.normE (V/m) @ t=0.02
11.987571504831827
% es.EX (V/m) @ t=0.02
-6.660779538266424
% es.EY (V/m) @ t=0.02
-0.7189734405375963
% es.EZ (V/m) @ t=0.02
8.918739388646957
% es.tEX (V/m) @ t=0.02
-6.660779538266434
% es.tEY (V/m) @ t=0.02
0
% es.tEZ (V/m) @ t=0.02
8.918739388646948
% es.Ex (V/m) @ t=0.02
-6.660779538266424
% es.Ey (V/m) @ t=0.02
-0.7189734405375963
% es.Ez (V/m) @ t=0.02
8.918739388646957
% es.tEx (V/m) @ t=0.02
-6.660779538266434
% es.tEy (V/m) @ t=0.02
0
% es.tEz (V/m) @ t=0.02
8.918739388646948
% V (V) @ t=0.02
0.009844974047118015
% es.normE (V/m) @ t=0.04
12.097778130845484
% es.EX (V/m) @ t=0.04
-6.722014799677694
% es.EY (V/m) @ t=0.04
-0.7255832545529404
% es.EZ (V/m) @ t=0.04
9.000732990280584
% es.tEX (V/m) @ t=0.04
-6.722014799677704
% es.tEY (V/m) @ t=0.04
0
% es.tEZ (V/m) @ t=0.04
9.000732990280571
% es.Ex (V/m) @ t=0.04
-6.722014799677694
% es.Ey (V/m) @ t=0.04
-0.7255832545529404
% es.Ez (V/m) @ t=0.04
9.000732990280584
% es.tEx (V/m) @ t=0.04
-6.722014799677704
% es.tEy (V/m) @ t=0.04
0
% es.tEz (V/m) @ t=0.04
9.000732990280571
% V (V) @ t=0.04
0.00993548289975783
% es.normE (V/m) @ t=0.06
12.208783786723643
% es.EX (V/m) @ t=0.06
-6.783694020202804
% es.EY (V/m) @ t=0.06
-0.7322409992471841
% es.EZ (V/m) @ t=0.06
9.083321074793542
% es.tEX (V/m) @ t=0.06
-6.783694020202813
% es.tEY (V/m) @ t=0.06
0
% es.tEZ (V/m) @ t=0.06
9.083321074793536
% es.Ex (V/m) @ t=0.06
-6.783694020202804
% es.Ey (V/m) @ t=0.06
-0.7322409992471841
% es.Ez (V/m) @ t=0.06
9.083321074793542
% es.tEx (V/m) @ t=0.06
-6.783694020202813
% es.tEy (V/m) @ t=0.06
0
% es.tEz (V/m) @ t=0.06
9.083321074793536
% V (V) @ t=0.06
0.010026647979887622
% es.normE (V/m) @ t=0.08
12.321925731155483
% es.EX (V/m) @ t=0.08
-6.846560259235343
% es.EY (V/m) @ t=0.08
-0.7390268657486065
% es.EZ (V/m) @ t=0.08
9.167498551516234
% es.tEX (V/m) @ t=0.08
-6.8465602592353525
% es.tEY (V/m) @ t=0.08
0
% es.tEZ (V/m) @ t=0.08
9.167498551516221
% es.Ex (V/m) @ t=0.08
-6.846560259235343
% es.Ey (V/m) @ t=0.08
-0.7390268657486065
% es.Ez (V/m) @ t=0.08
9.167498551516234
% es.tEx (V/m) @ t=0.08
-6.8465602592353525
% es.tEy (V/m) @ t=0.08
0
% es.tEz (V/m) @ t=0.08
9.167498551516221
% V (V) @ t=0.08
0.01011956751050361
% es.normE (V/m) @ t=0.1
12.4356310232519
% es.EX (V/m) @ t=0.1
-6.90973951970072
% es.EY (V/m) @ t=0.1
-0.7458465184727225
% es.EZ (V/m) @ t=0.1
9.252095157194077
% es.tEX (V/m) @ t=0.1
-6.909739519700727
% es.tEY (V/m) @ t=0.1
0
% es.tEZ (V/m) @ t=0.1
9.252095157194073
% es.Ex (V/m) @ t=0.1
-6.90973951970072
% es.Ey (V/m) @ t=0.1
-0.7458465184727225
% es.Ez (V/m) @ t=0.1
9.252095157194077
% es.tEx (V/m) @ t=0.1
-6.909739519700727
% es.tEy (V/m) @ t=0.1
0
% es.tEz (V/m) @ t=0.1
9.252095157194073
% V (V) @ t=0.1
0.010212949696589198
% es.normE (V/m) @ t=0.12
12.549336315348338
% es.EX (V/m) @ t=0.12
-6.972918780166106
% es.EY (V/m) @ t=0.12
-0.7526661711968845
% es.EZ (V/m) @ t=0.12
9.336691762871943
% es.tEX (V/m) @ t=0.12
-6.972918780166124
% es.tEY (V/m) @ t=0.12
0
% es.tEZ (V/m) @ t=0.12
9.336691762871926
% es.Ex (V/m) @ t=0.12
-6.972918780166106
% es.Ey (V/m) @ t=0.12
-0.7526661711968845
% es.Ez (V/m) @ t=0.12
9.336691762871943
% es.tEx (V/m) @ t=0.12
-6.972918780166124
% es.tEy (V/m) @ t=0.12
0
% es.tEz (V/m) @ t=0.12
9.336691762871926
% V (V) @ t=0.12
0.010306331882674793
% es.normE (V/m) @ t=0.14
12.666393828820201
% es.EX (V/m) @ t=0.14
-7.037960676238139
% es.EY (V/m) @ t=0.14
-0.7596868754816453
% es.EZ (V/m) @ t=0.14
9.423782415138854
% es.tEX (V/m) @ t=0.14
-7.037960676238152
% es.tEY (V/m) @ t=0.14
0
% es.tEZ (V/m) @ t=0.14
9.423782415138847
% es.Ex (V/m) @ t=0.14
-7.037960676238139
% es.Ey (V/m) @ t=0.14
-0.7596868754816453
% es.Ez (V/m) @ t=0.14
9.423782415138854
% es.tEx (V/m) @ t=0.14
-7.037960676238152
% es.tEy (V/m) @ t=0.14
0
% es.tEz (V/m) @ t=0.14
9.423782415138847
% V (V) @ t=0.14
0.010402467126187441
% es.normE (V/m) @ t=0.16
12.78579142691693
% es.EX (V/m) @ t=0.16
-7.104302822042081
% es.EY (V/m) @ t=0.16
-0.7668479277963693
% es.EZ (V/m) @ t=0.16
9.512614086098479
% es.tEX (V/m) @ t=0.16
-7.104302822042101
% es.tEY (V/m) @ t=0.16
0
% es.tEZ (V/m) @ t=0.16
9.512614086098473
% es.Ex (V/m) @ t=0.16
-7.104302822042081
% es.Ey (V/m) @ t=0.16
-0.7668479277963693
% es.Ez (V/m) @ t=0.16
9.512614086098479
% es.tEx (V/m) @ t=0.16
-7.104302822042101
% es.tEy (V/m) @ t=0.16
0
% es.tEz (V/m) @ t=0.16
9.512614086098473
% V (V) @ t=0.16
0.010500524196045967
% es.normE (V/m) @ t=0.18
12.905189025013687
% es.EX (V/m) @ t=0.18
-7.170644967846046
% es.EY (V/m) @ t=0.18
-0.7740089801110712
% es.EZ (V/m) @ t=0.18
9.601445757058139
% es.tEX (V/m) @ t=0.18
-7.170644967846059
% es.tEY (V/m) @ t=0.18
0
% es.tEZ (V/m) @ t=0.18
9.601445757058126
% es.Ex (V/m) @ t=0.18
-7.170644967846046
% es.Ey (V/m) @ t=0.18
-0.7740089801110712
% es.Ez (V/m) @ t=0.18
9.601445757058139
% es.tEx (V/m) @ t=0.18
-7.170644967846059
% es.tEy (V/m) @ t=0.18
0
% es.tEz (V/m) @ t=0.18
9.601445757058126
% V (V) @ t=0.18
0.010598581265904492
% es.normE (V/m) @ t=0.2
13.024586623110423
% es.EX (V/m) @ t=0.2
-7.236987113650002
% es.EY (V/m) @ t=0.2
-0.7811700324258009
% es.EZ (V/m) @ t=0.2
9.690277428017763
% es.tEX (V/m) @ t=0.2
-7.236987113650015
% es.tEY (V/m) @ t=0.2
0
% es.tEZ (V/m) @ t=0.2
9.690277428017755
% es.Ex (V/m) @ t=0.2
-7.236987113650002
% es.Ey (V/m) @ t=0.2
-0.7811700324258009
% es.Ez (V/m) @ t=0.2
9.690277428017763
% es.tEx (V/m) @ t=0.2
-7.236987113650015
% es.tEy (V/m) @ t=0.2
0
% es.tEz (V/m) @ t=0.2
9.690277428017755
% V (V) @ t=0.2
0.01069663833576302
% es.normE (V/m) @ t=0.22
13.143984221207202
% es.EX (V/m) @ t=0.22
-7.303329259453973
% es.EY (V/m) @ t=0.22
-0.7883310847405274
% es.EZ (V/m) @ t=0.22
9.77910909897743
% es.tEX (V/m) @ t=0.22
-7.303329259453992
% es.tEY (V/m) @ t=0.22
0
% es.tEZ (V/m) @ t=0.22
9.77910909897741
% es.Ex (V/m) @ t=0.22
-7.303329259453973
% es.Ey (V/m) @ t=0.22
-0.7883310847405274
% es.Ez (V/m) @ t=0.22
9.77910909897743
% es.tEx (V/m) @ t=0.22
-7.303329259453992
% es.tEy (V/m) @ t=0.22
0
% es.tEz (V/m) @ t=0.22
9.77910909897741
% V (V) @ t=0.22
0.010794695405621545
% es.normE (V/m) @ t=0.24
13.263381819303916
% es.EX (V/m) @ t=0.24
-7.369671405257922
% es.EY (V/m) @ t=0.24
-0.7954921370552284
% es.EZ (V/m) @ t=0.24
9.867940769937052
% es.tEX (V/m) @ t=0.24
-7.369671405257927
% es.tEY (V/m) @ t=0.24
0
% es.tEZ (V/m) @ t=0.24
9.867940769937034
% es.Ex (V/m) @ t=0.24
-7.369671405257922
% es.Ey (V/m) @ t=0.24
-0.7954921370552284
% es.Ez (V/m) @ t=0.24
9.867940769937052
% es.tEx (V/m) @ t=0.24
-7.369671405257927
% es.tEy (V/m) @ t=0.24
0
% es.tEz (V/m) @ t=0.24
9.867940769937034
% V (V) @ t=0.24
0.010892752475480072
% es.normE (V/m) @ t=0.26
13.385119148445568
% es.EX (V/m) @ t=0.26
-7.437313595119393
% es.EY (V/m) @ t=0.26
-0.8027935212164112
% es.EZ (V/m) @ t=0.26
9.958513200091293
% es.tEX (V/m) @ t=0.26
-7.437313595119393
% es.tEY (V/m) @ t=0.26
0
% es.tEZ (V/m) @ t=0.26
9.958513200091286
% es.Ex (V/m) @ t=0.26
-7.437313595119393
% es.Ey (V/m) @ t=0.26
-0.8027935212164112
% es.Ez (V/m) @ t=0.26
9.958513200091293
% es.tEx (V/m) @ t=0.26
-7.437313595119393
% es.tEy (V/m) @ t=0.26
0
% es.tEz (V/m) @ t=0.26
9.958513200091286
% V (V) @ t=0.26
0.010992731089163625
% es.normE (V/m) @ t=0.28
13.517228352236353
% es.EX (V/m) @ t=0.28
-7.510718795234585
% es.EY (V/m) @ t=0.28
-0.8107169872720164
% es.EZ (V/m) @ t=0.28
10.05680230186903
% es.tEX (V/m) @ t=0.28
-7.510718795234604
% es.tEY (V/m) @ t=0.28
0
% es.tEZ (V/m) @ t=0.28
10.056802301869016
% es.Ex (V/m) @ t=0.28
-7.510718795234585
% es.Ey (V/m) @ t=0.28
-0.8107169872720164
% es.Ez (V/m) @ t=0.28
10.05680230186903
% es.tEx (V/m) @ t=0.28
-7.510718795234604
% es.tEy (V/m) @ t=0.28
0
% es.tEz (V/m) @ t=0.28
10.056802301869016
% V (V) @ t=0.28
0.011101227780909956
% es.normE (V/m) @ t=0.3
13.649337556027158
% es.EX (V/m) @ t=0.3
-7.584123995349788
% es.EY (V/m) @ t=0.3
-0.8186404533276033
% es.EZ (V/m) @ t=0.3
10.155091403646782
% es.tEX (V/m) @ t=0.3
-7.58412399534981
% es.tEY (V/m) @ t=0.3
0
% es.tEZ (V/m) @ t=0.3
10.155091403646772
% es.Ex (V/m) @ t=0.3
-7.584123995349788
% es.Ey (V/m) @ t=0.3
-0.8186404533276033
% es.Ez (V/m) @ t=0.3
10.155091403646782
% es.tEx (V/m) @ t=0.3
-7.58412399534981
% es.tEy (V/m) @ t=0.3
0
% es.tEz (V/m) @ t=0.3
10.155091403646772
% V (V) @ t=0.3
0.011209724472656288
% es.normE (V/m) @ t=0.32
13.781446759817946
% es.EX (V/m) @ t=0.32
-7.657529195464994
% es.EY (V/m) @ t=0.32
-0.8265639193831906
% es.EZ (V/m) @ t=0.32
10.253380505424516
% es.tEX (V/m) @ t=0.32
-7.657529195464992
% es.tEY (V/m) @ t=0.32
0
% es.tEZ (V/m) @ t=0.32
10.2533805054245
% es.Ex (V/m) @ t=0.32
-7.657529195464994
% es.Ey (V/m) @ t=0.32
-0.8265639193831906
% es.Ez (V/m) @ t=0.32
10.253380505424516
% es.tEx (V/m) @ t=0.32
-7.657529195464992
% es.tEy (V/m) @ t=0.32
0
% es.tEz (V/m) @ t=0.32
10.2533805054245
% V (V) @ t=0.32
0.011318221164402622
% es.normE (V/m) @ t=0.34
13.913555963608715
% es.EX (V/m) @ t=0.34
-7.730934395580169
% es.EY (V/m) @ t=0.34
-0.8344873854387918
% es.EZ (V/m) @ t=0.34
10.351669607202252
% es.tEX (V/m) @ t=0.34
-7.73093439558019
% es.tEY (V/m) @ t=0.34
0
% es.tEZ (V/m) @ t=0.34
10.35166960720224
% es.Ex (V/m) @ t=0.34
-7.730934395580169
% es.Ey (V/m) @ t=0.34
-0.8344873854387918
% es.Ez (V/m) @ t=0.34
10.351669607202252
% es.tEx (V/m) @ t=0.34
-7.73093439558019
% es.tEy (V/m) @ t=0.34
0
% es.tEz (V/m) @ t=0.34
10.35166960720224
% V (V) @ t=0.34
0.011426717856148953
% es.normE (V/m) @ t=0.36
14.045665167399523
% es.EX (V/m) @ t=0.36
-7.804339595695387
% es.EY (V/m) @ t=0.36
-0.8424108514943969
% es.EZ (V/m) @ t=0.36
10.449958708979997
% es.tEX (V/m) @ t=0.36
-7.804339595695401
% es.tEY (V/m) @ t=0.36
0
% es.tEZ (V/m) @ t=0.36
10.449958708979985
% es.Ex (V/m) @ t=0.36
-7.804339595695387
% es.Ey (V/m) @ t=0.36
-0.8424108514943969
% es.Ez (V/m) @ t=0.36
10.449958708979997
% es.tEx (V/m) @ t=0.36
-7.804339595695401
% es.tEy (V/m) @ t=0.36
0
% es.tEz (V/m) @ t=0.36
10.449958708979985
% V (V) @ t=0.36
0.011535214547895287
% es.normE (V/m) @ t=0.38
14.177774371190338
% es.EX (V/m) @ t=0.38
-7.877744795810564
% es.EY (V/m) @ t=0.38
-0.8503343175500193
% es.EZ (V/m) @ t=0.38
10.548247810757772
% es.tEX (V/m) @ t=0.38
-7.877744795810576
% es.tEY (V/m) @ t=0.38
0
% es.tEZ (V/m) @ t=0.38
10.548247810757744
% es.Ex (V/m) @ t=0.38
-7.877744795810564
% es.Ey (V/m) @ t=0.38
-0.8503343175500193
% es.Ez (V/m) @ t=0.38
10.548247810757772
% es.tEx (V/m) @ t=0.38
-7.877744795810576
% es.tEy (V/m) @ t=0.38
0
% es.tEz (V/m) @ t=0.38
10.548247810757744
% V (V) @ t=0.38
0.01164371123964162
% es.normE (V/m) @ t=0.4
14.309883574981125
% es.EX (V/m) @ t=0.4
-7.951149995925784
% es.EY (V/m) @ t=0.4
-0.8582577836055925
% es.EZ (V/m) @ t=0.4
10.646536912535499
% es.tEX (V/m) @ t=0.4
-7.951149995925789
% es.tEY (V/m) @ t=0.4
0
% es.tEZ (V/m) @ t=0.4
10.646536912535474
% es.Ex (V/m) @ t=0.4
-7.951149995925784
% es.Ey (V/m) @ t=0.4
-0.8582577836055925
% es.Ez (V/m) @ t=0.4
10.646536912535499
% es.tEx (V/m) @ t=0.4
-7.951149995925789
% es.tEy (V/m) @ t=0.4
0
% es.tEz (V/m) @ t=0.4
10.646536912535474
% V (V) @ t=0.4
0.011752207931387953
% es.normE (V/m) @ t=0.42
14.441992778771894
% es.EX (V/m) @ t=0.42
-8.024555196040987
% es.EY (V/m) @ t=0.42
-0.8661812496611616
% es.EZ (V/m) @ t=0.42
10.744826014313222
% es.tEX (V/m) @ t=0.42
-8.024555196041007
% es.tEY (V/m) @ t=0.42
0
% es.tEZ (V/m) @ t=0.42
10.744826014313208
% es.Ex (V/m) @ t=0.42
-8.024555196040987
% es.Ey (V/m) @ t=0.42
-0.8661812496611616
% es.Ez (V/m) @ t=0.42
10.744826014313222
% es.tEx (V/m) @ t=0.42
-8.024555196041007
% es.tEy (V/m) @ t=0.42
0
% es.tEz (V/m) @ t=0.42
10.744826014313208
% V (V) @ t=0.42
0.011860704623134283
% es.normE (V/m) @ t=0.44
14.574101982562704
% es.EX (V/m) @ t=0.44
-8.097960396156191
% es.EY (V/m) @ t=0.44
-0.8741047157167876
% es.EZ (V/m) @ t=0.44
10.843115116090969
% es.tEX (V/m) @ t=0.44
-8.097960396156198
% es.tEY (V/m) @ t=0.44
0
% es.tEZ (V/m) @ t=0.44
10.843115116090955
% es.Ex (V/m) @ t=0.44
-8.097960396156191
% es.Ey (V/m) @ t=0.44
-0.8741047157167876
% es.Ez (V/m) @ t=0.44
10.843115116090969
% es.tEx (V/m) @ t=0.44
-8.097960396156198
% es.tEy (V/m) @ t=0.44
0
% es.tEz (V/m) @ t=0.44
10.843115116090955
% V (V) @ t=0.44
0.011969201314880619
% es.normE (V/m) @ t=0.46
14.706211186353496
% es.EX (V/m) @ t=0.46
-8.171365596271382
% es.EY (V/m) @ t=0.46
-0.8820281817723679
% es.EZ (V/m) @ t=0.46
10.941404217868719
% es.tEX (V/m) @ t=0.46
-8.171365596271395
% es.tEY (V/m) @ t=0.46
0
% es.tEZ (V/m) @ t=0.46
10.941404217868715
% es.Ex (V/m) @ t=0.46
-8.171365596271382
% es.Ey (V/m) @ t=0.46
-0.8820281817723679
% es.Ez (V/m) @ t=0.46
10.941404217868719
% es.tEx (V/m) @ t=0.46
-8.171365596271395
% es.tEy (V/m) @ t=0.46
0
% es.tEz (V/m) @ t=0.46
10.941404217868715
% V (V) @ t=0.46
0.012077698006626949
% es.normE (V/m) @ t=0.48
14.838320390144283
% es.EX (V/m) @ t=0.48
-8.244770796386588
% es.EY (V/m) @ t=0.48
-0.8899516478279552
% es.EZ (V/m) @ t=0.48
11.039693319646453
% es.tEX (V/m) @ t=0.48
-8.244770796386586
% es.tEY (V/m) @ t=0.48
0
% es.tEZ (V/m) @ t=0.48
11.039693319646439
% es.Ex (V/m) @ t=0.48
-8.244770796386588
% es.Ey (V/m) @ t=0.48
-0.8899516478279552
% es.Ez (V/m) @ t=0.48
11.039693319646453
% es.tEx (V/m) @ t=0.48
-8.244770796386586
% es.tEy (V/m) @ t=0.48
0
% es.tEz (V/m) @ t=0.48
11.039693319646439
% V (V) @ t=0.48
0.01218619469837328
% es.normE (V/m) @ t=0.5
14.97042959393508
% es.EX (V/m) @ t=0.5
-8.318175996501791
% es.EY (V/m) @ t=0.5
-0.8978751138835492
% es.EZ (V/m) @ t=0.5
11.137982421424207
% es.tEX (V/m) @ t=0.5
-8.318175996501811
% es.tEY (V/m) @ t=0.5
0
% es.tEZ (V/m) @ t=0.5
11.13798242142419
% es.Ex (V/m) @ t=0.5
-8.318175996501791
% es.Ey (V/m) @ t=0.5
-0.8978751138835492
% es.Ez (V/m) @ t=0.5
11.137982421424207
% es.tEx (V/m) @ t=0.5
-8.318175996501811
% es.tEy (V/m) @ t=0.5
0
% es.tEz (V/m) @ t=0.5
11.13798242142419
% V (V) @ t=0.5
0.012294691390119617
% es.normE (V/m) @ t=0.52
15.10788976866786
% es.EX (V/m) @ t=0.52
-8.394554418890667
% es.EY (V/m) @ t=0.52
-0.9061195093373144
% es.EZ (V/m) @ t=0.52
11.240252636924168
% es.tEX (V/m) @ t=0.52
-8.39455441889068
% es.tEY (V/m) @ t=0.52
0
% es.tEZ (V/m) @ t=0.52
11.24025263692415
% es.Ex (V/m) @ t=0.52
-8.394554418890667
% es.Ey (V/m) @ t=0.52
-0.9061195093373144
% es.Ez (V/m) @ t=0.52
11.240252636924168
% es.tEx (V/m) @ t=0.52
-8.39455441889068
% es.tEy (V/m) @ t=0.52
0
% es.tEz (V/m) @ t=0.52
11.24025263692415
% V (V) @ t=0.52
0.012407582642043438
% es.normE (V/m) @ t=0.54
15.254291862860867
% es.EX (V/m) @ t=0.54
-8.475901344079633
% es.EY (V/m) @ t=0.54
-0.9149002046256194
% es.EZ (V/m) @ t=0.54
11.349175626033245
% es.tEX (V/m) @ t=0.54
-8.475901344079652
% es.tEY (V/m) @ t=0.54
0
% es.tEZ (V/m) @ t=0.54
11.34917562603323
% es.Ex (V/m) @ t=0.54
-8.475901344079633
% es.Ey (V/m) @ t=0.54
-0.9149002046256194
% es.Ez (V/m) @ t=0.54
11.349175626033245
% es.tEx (V/m) @ t=0.54
-8.475901344079652
% es.tEy (V/m) @ t=0.54
0
% es.tEz (V/m) @ t=0.54
11.34917562603323
% V (V) @ t=0.54
0.012527817571142106
% es.normE (V/m) @ t=0.56
15.40069395705386
% es.EX (V/m) @ t=0.56
-8.557248269268605
% es.EY (V/m) @ t=0.56
-0.9236808999139061
% es.EZ (V/m) @ t=0.56
11.458098615142317
% es.tEX (V/m) @ t=0.56
-8.557248269268618
% es.tEY (V/m) @ t=0.56
0
% es.tEZ (V/m) @ t=0.56
11.45809861514231
% es.Ex (V/m) @ t=0.56
-8.557248269268605
% es.Ey (V/m) @ t=0.56
-0.9236808999139061
% es.Ez (V/m) @ t=0.56
11.458098615142317
% es.tEx (V/m) @ t=0.56
-8.557248269268618
% es.tEy (V/m) @ t=0.56
0
% es.tEz (V/m) @ t=0.56
11.45809861514231
% V (V) @ t=0.56
0.012648052500240776
% es.normE (V/m) @ t=0.58
15.547096051246818
% es.EX (V/m) @ t=0.58
-8.638595194457563
% es.EY (V/m) @ t=0.58
-0.9324615952021795
% es.EZ (V/m) @ t=0.58
11.567021604251368
% es.tEX (V/m) @ t=0.58
-8.638595194457569
% es.tEY (V/m) @ t=0.58
0
% es.tEZ (V/m) @ t=0.58
11.56702160425135
% es.Ex (V/m) @ t=0.58
-8.638595194457563
% es.Ey (V/m) @ t=0.58
-0.9324615952021795
% es.Ez (V/m) @ t=0.58
11.567021604251368
% es.tEx (V/m) @ t=0.58
-8.638595194457569
% es.tEy (V/m) @ t=0.58
0
% es.tEz (V/m) @ t=0.58
11.56702160425135
% V (V) @ t=0.58
0.012768287429339447
% es.normE (V/m) @ t=0.6
15.693498145439795
% es.EX (V/m) @ t=0.6
-8.719942119646536
% es.EY (V/m) @ t=0.6
-0.9412422904904774
% es.EZ (V/m) @ t=0.6
11.675944593360427
% es.tEX (V/m) @ t=0.6
-8.719942119646543
% es.tEY (V/m) @ t=0.6
0
% es.tEZ (V/m) @ t=0.6
11.675944593360413
% es.Ex (V/m) @ t=0.6
-8.719942119646536
% es.Ey (V/m) @ t=0.6
-0.9412422904904774
% es.Ez (V/m) @ t=0.6
11.675944593360427
% es.tEx (V/m) @ t=0.6
-8.719942119646543
% es.tEy (V/m) @ t=0.6
0
% es.tEz (V/m) @ t=0.6
11.675944593360413
% V (V) @ t=0.6
0.012888522358438119
% es.normE (V/m) @ t=0.62
15.839900239632787
% es.EX (V/m) @ t=0.62
-8.801289044835515
% es.EY (V/m) @ t=0.62
-0.9500229857787605
% es.EZ (V/m) @ t=0.62
11.784867582469493
% es.tEX (V/m) @ t=0.62
-8.801289044835542
% es.tEY (V/m) @ t=0.62
0
% es.tEZ (V/m) @ t=0.62
11.784867582469472
% es.Ex (V/m) @ t=0.62
-8.801289044835515
% es.Ey (V/m) @ t=0.62
-0.9500229857787605
% es.Ez (V/m) @ t=0.62
11.784867582469493
% es.tEx (V/m) @ t=0.62
-8.801289044835542
% es.tEy (V/m) @ t=0.62
0
% es.tEz (V/m) @ t=0.62
11.784867582469472
% V (V) @ t=0.62
0.013008757287536789
% es.normE (V/m) @ t=0.64
15.986302333825769
% es.EX (V/m) @ t=0.64
-8.882635970024488
% es.EY (V/m) @ t=0.64
-0.958803681067038
% es.EZ (V/m) @ t=0.64
11.893790571578545
% es.tEX (V/m) @ t=0.64
-8.882635970024515
% es.tEY (V/m) @ t=0.64
0
% es.tEZ (V/m) @ t=0.64
11.893790571578538
% es.Ex (V/m) @ t=0.64
-8.882635970024488
% es.Ey (V/m) @ t=0.64
-0.958803681067038
% es.Ez (V/m) @ t=0.64
11.893790571578545
% es.tEx (V/m) @ t=0.64
-8.882635970024515
% es.tEy (V/m) @ t=0.64
0
% es.tEz (V/m) @ t=0.64
11.893790571578538
% V (V) @ t=0.64
0.013128992216635459
% es.normE (V/m) @ t=0.66
16.13270442801875
% es.EX (V/m) @ t=0.66
-8.96398289521344
% es.EY (V/m) @ t=0.66
-0.9675843763553496
% es.EZ (V/m) @ t=0.66
12.002713560687623
% es.tEX (V/m) @ t=0.66
-8.963982895213446
% es.tEY (V/m) @ t=0.66
0
% es.tEZ (V/m) @ t=0.66
12.0027135606876
% es.Ex (V/m) @ t=0.66
-8.96398289521344
% es.Ey (V/m) @ t=0.66
-0.9675843763553496
% es.Ez (V/m) @ t=0.66
12.002713560687623
% es.tEx (V/m) @ t=0.66
-8.963982895213446
% es.tEy (V/m) @ t=0.66
0
% es.tEz (V/m) @ t=0.66
12.0027135606876
% V (V) @ t=0.66
0.01324922714573413
% es.normE (V/m) @ t=0.68
16.279106522211748
% es.EX (V/m) @ t=0.68
-9.045329820402426
% es.EY (V/m) @ t=0.68
-0.9763650716436372
% es.EZ (V/m) @ t=0.68
12.11163654979669
% es.tEX (V/m) @ t=0.68
-9.045329820402431
% es.tEY (V/m) @ t=0.68
0
% es.tEZ (V/m) @ t=0.68
12.111636549796675
% es.Ex (V/m) @ t=0.68
-9.045329820402426
% es.Ey (V/m) @ t=0.68
-0.9763650716436372
% es.Ez (V/m) @ t=0.68
12.11163654979669
% es.tEx (V/m) @ t=0.68
-9.045329820402431
% es.tEy (V/m) @ t=0.68
0
% es.tEz (V/m) @ t=0.68
12.111636549796675
% V (V) @ t=0.68
0.013369462074832802
% es.normE (V/m) @ t=0.7
16.425508616404723
% es.EX (V/m) @ t=0.7
-9.126676745591384
% es.EY (V/m) @ t=0.7
-0.9851457669319172
% es.EZ (V/m) @ t=0.7
12.220559538905746
% es.tEX (V/m) @ t=0.7
-9.126676745591396
% es.tEY (V/m) @ t=0.7
0
% es.tEZ (V/m) @ t=0.7
12.220559538905725
% es.Ex (V/m) @ t=0.7
-9.126676745591384
% es.Ey (V/m) @ t=0.7
-0.9851457669319172
% es.Ez (V/m) @ t=0.7
12.220559538905746
% es.tEx (V/m) @ t=0.7
-9.126676745591396
% es.tEy (V/m) @ t=0.7
0
% es.tEz (V/m) @ t=0.7
12.220559538905725
% V (V) @ t=0.7
0.013489697003931472
% es.normE (V/m) @ t=0.72
16.5719107105977
% es.EX (V/m) @ t=0.72
-9.208023670780365
% es.EY (V/m) @ t=0.72
-0.9939264622202044
% es.EZ (V/m) @ t=0.72
12.329482528014807
% es.tEX (V/m) @ t=0.72
-9.208023670780378
% es.tEY (V/m) @ t=0.72
0
% es.tEZ (V/m) @ t=0.72
12.329482528014791
% es.Ex (V/m) @ t=0.72
-9.208023670780365
% es.Ey (V/m) @ t=0.72
-0.9939264622202044
% es.Ez (V/m) @ t=0.72
12.329482528014807
% es.tEx (V/m) @ t=0.72
-9.208023670780378
% es.tEy (V/m) @ t=0.72
0
% es.tEz (V/m) @ t=0.72
12.329482528014791
% V (V) @ t=0.72
0.013609931933030143
% es.normE (V/m) @ t=0.74
16.71831280479068
% es.EX (V/m) @ t=0.74
-9.289370595969345
% es.EY (V/m) @ t=0.74
-1.002707157508456
% es.EZ (V/m) @ t=0.74
12.438405517123858
% es.tEX (V/m) @ t=0.74
-9.289370595969364
% es.tEY (V/m) @ t=0.74
0
% es.tEZ (V/m) @ t=0.74
12.438405517123835
% es.Ex (V/m) @ t=0.74
-9.289370595969345
% es.Ey (V/m) @ t=0.74
-1.002707157508456
% es.Ez (V/m) @ t=0.74
12.438405517123858
% es.tEx (V/m) @ t=0.74
-9.289370595969364
% es.tEy (V/m) @ t=0.74
0
% es.tEz (V/m) @ t=0.74
12.438405517123835
% V (V) @ t=0.74
0.013730166862128815
% es.normE (V/m) @ t=0.76
16.864714898983667
% es.EX (V/m) @ t=0.76
-9.370717521158301
% es.EY (V/m) @ t=0.76
-1.0114878527967788
% es.EZ (V/m) @ t=0.76
12.54732850623294
% es.tEX (V/m) @ t=0.76
-9.370717521158314
% es.tEY (V/m) @ t=0.76
0
% es.tEZ (V/m) @ t=0.76
12.547328506232935
% es.Ex (V/m) @ t=0.76
-9.370717521158301
% es.Ey (V/m) @ t=0.76
-1.0114878527967788
% es.Ez (V/m) @ t=0.76
12.54732850623294
% es.tEx (V/m) @ t=0.76
-9.370717521158314
% es.tEy (V/m) @ t=0.76
0
% es.tEz (V/m) @ t=0.76
12.547328506232935
% V (V) @ t=0.76
0.013850401791227486
% es.normE (V/m) @ t=0.78
17.020208173933543
% es.EX (V/m) @ t=0.78
-9.457115874934134
% es.EY (V/m) @ t=0.78
-1.0208138054592313
% es.EZ (V/m) @ t=0.78
12.663015323004238
% es.tEX (V/m) @ t=0.78
-9.45711587493414
% es.tEY (V/m) @ t=0.78
0
% es.tEZ (V/m) @ t=0.78
12.663015323004219
% es.Ex (V/m) @ t=0.78
-9.457115874934134
% es.Ey (V/m) @ t=0.78
-1.0208138054592313
% es.Ez (V/m) @ t=0.78
12.663015323004238
% es.tEx (V/m) @ t=0.78
-9.45711587493414
% es.tEy (V/m) @ t=0.78
0
% es.tEz (V/m) @ t=0.78
12.663015323004219
% V (V) @ t=0.78
0.013978102988993248
% es.normE (V/m) @ t=0.8
17.182709480991175
% es.EX (V/m) @ t=0.8
-9.54740817545613
% es.EY (V/m) @ t=0.8
-1.0305600754915343
% es.EZ (V/m) @ t=0.8
12.78391610732232
% es.tEX (V/m) @ t=0.8
-9.547408175456143
% es.tEY (V/m) @ t=0.8
0
% es.tEZ (V/m) @ t=0.8
12.783916107322295
% es.Ex (V/m) @ t=0.8
-9.54740817545613
% es.Ey (V/m) @ t=0.8
-1.0305600754915343
% es.Ez (V/m) @ t=0.8
12.78391610732232
% es.tEx (V/m) @ t=0.8
-9.547408175456143
% es.tEy (V/m) @ t=0.8
0
% es.tEz (V/m) @ t=0.8
12.783916107322295
% V (V) @ t=0.8
0.01411155963832725
% es.normE (V/m) @ t=0.82
17.34521078804882
% es.EX (V/m) @ t=0.82
-9.637700475978084
% es.EY (V/m) @ t=0.82
-1.0403063455239372
% es.EZ (V/m) @ t=0.82
12.904816891640415
% es.tEX (V/m) @ t=0.82
-9.637700475978097
% es.tEY (V/m) @ t=0.82
0
% es.tEZ (V/m) @ t=0.82
12.904816891640394
% es.Ex (V/m) @ t=0.82
-9.637700475978084
% es.Ey (V/m) @ t=0.82
-1.0403063455239372
% es.Ez (V/m) @ t=0.82
12.904816891640415
% es.tEx (V/m) @ t=0.82
-9.637700475978097
% es.tEy (V/m) @ t=0.82
0
% es.tEz (V/m) @ t=0.82
12.904816891640394
% V (V) @ t=0.82
0.014245016287661253
% es.normE (V/m) @ t=0.84
17.507712095106452
% es.EX (V/m) @ t=0.84
-9.727992776500065
% es.EY (V/m) @ t=0.84
-1.05005261555629
% es.EZ (V/m) @ t=0.84
13.025717675958484
% es.tEX (V/m) @ t=0.84
-9.727992776500077
% es.tEY (V/m) @ t=0.84
0
% es.tEZ (V/m) @ t=0.84
13.025717675958475
% es.Ex (V/m) @ t=0.84
-9.727992776500065
% es.Ey (V/m) @ t=0.84
-1.05005261555629
% es.Ez (V/m) @ t=0.84
13.025717675958484
% es.tEx (V/m) @ t=0.84
-9.727992776500077
% es.tEy (V/m) @ t=0.84
0
% es.tEz (V/m) @ t=0.84
13.025717675958475
% V (V) @ t=0.84
0.014378472936995254
% es.normE (V/m) @ t=0.86
17.67021340216413
% es.EX (V/m) @ t=0.86
-9.818285077022045
% es.EY (V/m) @ t=0.86
-1.0597988855886853
% es.EZ (V/m) @ t=0.86
13.146618460276594
% es.tEX (V/m) @ t=0.86
-9.818285077022058
% es.tEY (V/m) @ t=0.86
0
% es.tEZ (V/m) @ t=0.86
13.14661846027658
% es.Ex (V/m) @ t=0.86
-9.818285077022045
% es.Ey (V/m) @ t=0.86
-1.0597988855886853
% es.Ez (V/m) @ t=0.86
13.146618460276594
% es.tEx (V/m) @ t=0.86
-9.818285077022058
% es.tEy (V/m) @ t=0.86
0
% es.tEz (V/m) @ t=0.86
13.14661846027658
% V (V) @ t=0.86
0.014511929586329258
% es.normE (V/m) @ t=0.88
17.832714709221747
% es.EX (V/m) @ t=0.88
-9.908577377544022
% es.EY (V/m) @ t=0.88
-1.0695451556210345
% es.EZ (V/m) @ t=0.88
13.267519244594656
% es.tEX (V/m) @ t=0.88
-9.908577377544034
% es.tEY (V/m) @ t=0.88
0
% es.tEZ (V/m) @ t=0.88
13.267519244594652
% es.Ex (V/m) @ t=0.88
-9.908577377544022
% es.Ey (V/m) @ t=0.88
-1.0695451556210345
% es.Ez (V/m) @ t=0.88
13.267519244594656
% es.tEx (V/m) @ t=0.88
-9.908577377544034
% es.tEy (V/m) @ t=0.88
0
% es.tEz (V/m) @ t=0.88
13.267519244594652
% V (V) @ t=0.88
0.014645386235663266
% es.normE (V/m) @ t=0.9
17.99521601627941
% es.EX (V/m) @ t=0.9
-9.998869678066018
% es.EY (V/m) @ t=0.9
-1.079291425653416
% es.EZ (V/m) @ t=0.9
13.388420028912757
% es.tEX (V/m) @ t=0.9
-9.998869678066029
% es.tEY (V/m) @ t=0.9
0
% es.tEZ (V/m) @ t=0.9
13.388420028912734
% es.Ex (V/m) @ t=0.9
-9.998869678066018
% es.Ey (V/m) @ t=0.9
-1.079291425653416
% es.Ez (V/m) @ t=0.9
13.388420028912757
% es.tEx (V/m) @ t=0.9
-9.998869678066029
% es.tEy (V/m) @ t=0.9
0
% es.tEz (V/m) @ t=0.9
13.388420028912734
% V (V) @ t=0.9
0.014778842884997267
% es.normE (V/m) @ t=0.92
18.15771732333706
% es.EX (V/m) @ t=0.92
-10.089161978587992
% es.EY (V/m) @ t=0.92
-1.089037695685744
% es.EZ (V/m) @ t=0.92
13.509320813230854
% es.tEX (V/m) @ t=0.92
-10.089161978588011
% es.tEY (V/m) @ t=0.92
0
% es.tEZ (V/m) @ t=0.92
13.50932081323083
% es.Ex (V/m) @ t=0.92
-10.089161978587992
% es.Ey (V/m) @ t=0.92
-1.089037695685744
% es.Ez (V/m) @ t=0.92
13.509320813230854
% es.tEx (V/m) @ t=0.92
-10.089161978588011
% es.tEy (V/m) @ t=0.92
0
% es.tEz (V/m) @ t=0.92
13.50932081323083
% V (V) @ t=0.92
0.014912299534331274
% es.normE (V/m) @ t=0.94
18.320218630394702
% es.EX (V/m) @ t=0.94
-10.179454279109965
% es.EY (V/m) @ t=0.94
-1.0987839657181286
% es.EZ (V/m) @ t=0.94
13.630221597548934
% es.tEX (V/m) @ t=0.94
-10.179454279109963
% es.tEY (V/m) @ t=0.94
0
% es.tEZ (V/m) @ t=0.94
13.630221597548918
% es.Ex (V/m) @ t=0.94
-10.179454279109965
% es.Ey (V/m) @ t=0.94
-1.0987839657181286
% es.Ez (V/m) @ t=0.94
13.630221597548934
% es.tEx (V/m) @ t=0.94
-10.179454279109963
% es.tEy (V/m) @ t=0.94
0
% es.tEz (V/m) @ t=0.94
13.630221597548918
% V (V) @ t=0.94
0.015045756183665274
% es.normE (V/m) @ t=0.96
18.48271993745235
% es.EX (V/m) @ t=0.96
-10.269746579631928
% es.EY (V/m) @ t=0.96
-1.1085302357505027
% es.EZ (V/m) @ t=0.96
13.751122381867024
% es.tEX (V/m) @ t=0.96
-10.26974657963194
% es.tEY (V/m) @ t=0.96
0
% es.tEZ (V/m) @ t=0.96
13.75112238186701
% es.Ex (V/m) @ t=0.96
-10.269746579631928
% es.Ey (V/m) @ t=0.96
-1.1085302357505027
% es.Ez (V/m) @ t=0.96
13.751122381867024
% es.tEx (V/m) @ t=0.96
-10.26974657963194
% es.tEy (V/m) @ t=0.96
0
% es.tEz (V/m) @ t=0.96
13.75112238186701
% V (V) @ t=0.96
0.015179212832999275
% es.normE (V/m) @ t=0.98
18.645221244509973
% es.EX (V/m) @ t=0.98
-10.360038880153887
% es.EY (V/m) @ t=0.98
-1.1182765057828448
% es.EZ (V/m) @ t=0.98
13.872023166185103
% es.tEX (V/m) @ t=0.98
-10.360038880153907
% es.tEY (V/m) @ t=0.98
0
% es.tEZ (V/m) @ t=0.98
13.872023166185098
% es.Ex (V/m) @ t=0.98
-10.360038880153887
% es.Ey (V/m) @ t=0.98
-1.1182765057828448
% es.Ez (V/m) @ t=0.98
13.872023166185103
% es.tEx (V/m) @ t=0.98
-10.360038880153907
% es.tEy (V/m) @ t=0.98
0
% es.tEz (V/m) @ t=0.98
13.872023166185098
% V (V) @ t=0.98
0.015312669482333278
% es.normE (V/m) @ t=1
18.807722551567615
% es.EX (V/m) @ t=1
-10.45033118067588
% es.EY (V/m) @ t=1
-1.1280227758152446
% es.EZ (V/m) @ t=1
13.992923950503174
% es.tEX (V/m) @ t=1
-10.4503311806759
% es.tEY (V/m) @ t=1
0
% es.tEZ (V/m) @ t=1
13.992923950503167
% es.Ex (V/m) @ t=1
-10.45033118067588
% es.Ey (V/m) @ t=1
-1.1280227758152446
% es.Ez (V/m) @ t=1
13.992923950503174
% es.tEx (V/m) @ t=1
-10.4503311806759
% es.tEy (V/m) @ t=1
0
% es.tEz (V/m) @ t=1
13.992923950503167
% V (V) @ t=1
0.015446126131667282
% es.normE (V/m) @ t=1.02
18.970223858625268
% es.EX (V/m) @ t=1.02
-10.540623481197857
% es.EY (V/m) @ t=1.02
-1.1377690458475689
% es.EZ (V/m) @ t=1.02
14.113824734821286
% es.tEX (V/m) @ t=1.02
-10.540623481197855
% es.tEY (V/m) @ t=1.02
0
% es.tEZ (V/m) @ t=1.02
14.113824734821264
% es.Ex (V/m) @ t=1.02
-10.540623481197857
% es.Ey (V/m) @ t=1.02
-1.1377690458475689
% es.Ez (V/m) @ t=1.02
14.113824734821286
% es.tEx (V/m) @ t=1.02
-10.540623481197855
% es.tEy (V/m) @ t=1.02
0
% es.tEz (V/m) @ t=1.02
14.113824734821264
% V (V) @ t=1.02
0.015579582781001286
% es.normE (V/m) @ t=1.04
19.138655393345715
% es.EX (V/m) @ t=1.04
-10.634210856319385
% es.EY (V/m) @ t=1.04
-1.1478709904409912
% es.EZ (V/m) @ t=1.04
14.239137601583964
% es.tEX (V/m) @ t=1.04
-10.634210856319397
% es.tEY (V/m) @ t=1.04
0
% es.tEZ (V/m) @ t=1.04
14.239137601583952
% es.Ex (V/m) @ t=1.04
-10.634210856319385
% es.Ey (V/m) @ t=1.04
-1.1478709904409912
% es.Ez (V/m) @ t=1.04
14.239137601583964