% Model:              1x1--2 - Copy1.mph
% Version:            COMSOL 6.1.0.252
% Date:               Apr 3 2023, 15:17
% Dimension:          0
% Nodes:              14017
% Expressions:        14017
% Description:        Electric field norm, Electric field, X component, Electric field, Y component, Electric field, Z component, Tangential electric field, X component, Tangential electric field, Y component, Tangential electric field, Z component, Electric field, x component, Electric field, y component, Electric field, z component, Tangential electric field, x component, Tangential electric field, y component, Tangential electric field, z component, Electric potential
% Length unit:        mm
% x
1.66
% y
12.2
% z
2
% es.normE (V/m) @ t=0
1.2926187871297579
% es.EX (V/m) @ t=0
-0.3856141459535011
% es.EY (V/m) @ t=0
0.028804072163019036
% es.EZ (V/m) @ t=0
-1.2313487739191422
% es.tEX (V/m) @ t=0
-0.3856141459535003
% es.tEY (V/m) @ t=0
0
% es.tEZ (V/m) @ t=0
-1.231348773919155
% es.Ex (V/m) @ t=0
-0.3856141459535011
% es.Ey (V/m) @ t=0
0.028804072163019036
% es.Ez (V/m) @ t=0
-1.2313487739191422
% es.tEx (V/m) @ t=0
-0.3856141459535003
% es.tEy (V/m) @ t=0
0
% es.tEz (V/m) @ t=0
-1.231348773919155
% V (V) @ t=0
0.006497235179139043
% es.normE (V/m) @ t=0.1
1.3138044588815208
% es.EX (V/m) @ t=0.1
-0.3919342576234993
% es.EY (V/m) @ t=0.1
0.029276163682679726
% es.EZ (V/m) @ t=0.1
-1.2515302466269316
% es.tEX (V/m) @ t=0.1
-0.3919342576235074
% es.tEY (V/m) @ t=0.1
0
% es.tEZ (V/m) @ t=0.1
-1.251530246626941
% es.Ex (V/m) @ t=0.1
-0.3919342576234993
% es.Ey (V/m) @ t=0.1
0.029276163682679726
% es.Ez (V/m) @ t=0.1
-1.2515302466269316
% es.tEx (V/m) @ t=0.1
-0.3919342576235074
% es.tEy (V/m) @ t=0.1
0
% es.tEz (V/m) @ t=0.1
-1.251530246626941
% V (V) @ t=0.1
0.006603723087578171
% es.normE (V/m) @ t=0.2
1.3761746260156835
% es.EX (V/m) @ t=0.2
-0.4105405382208247
% es.EY (V/m) @ t=0.2
0.03066600058445494
% es.EZ (V/m) @ t=0.2
-1.3109440705848567
% es.tEX (V/m) @ t=0.2
-0.41054053822082537
% es.tEY (V/m) @ t=0.2
0
% es.tEZ (V/m) @ t=0.2
-1.3109440705848705
% es.Ex (V/m) @ t=0.2
-0.4105405382208247
% es.Ey (V/m) @ t=0.2
0.03066600058445494
% es.Ez (V/m) @ t=0.2
-1.3109440705848567
% es.tEx (V/m) @ t=0.2
-0.41054053822082537
% es.tEy (V/m) @ t=0.2
0
% es.tEz (V/m) @ t=0.2
-1.3109440705848705
% V (V) @ t=0.2
0.0069172209255650655
% es.normE (V/m) @ t=0.3
1.4409172948619895
% es.EX (V/m) @ t=0.3
-0.4298545989284994
% es.EY (V/m) @ t=0.3
0.032108729388673984
% es.EZ (V/m) @ t=0.3
-1.3726179336070277
% es.tEX (V/m) @ t=0.3
-0.42985459892850386
% es.tEY (V/m) @ t=0.3
0
% es.tEZ (V/m) @ t=0.3
-1.3726179336070476
% es.Ex (V/m) @ t=0.3
-0.4298545989284994
% es.Ey (V/m) @ t=0.3
0.032108729388673984
% es.Ez (V/m) @ t=0.3
-1.3726179336070277
% es.tEx (V/m) @ t=0.3
-0.42985459892850386
% es.tEy (V/m) @ t=0.3
0
% es.tEz (V/m) @ t=0.3
-1.3726179336070476
% V (V) @ t=0.3
0.007242643187413161
% es.normE (V/m) @ t=0.4
1.5089167100812775
% es.EX (V/m) @ t=0.4
-0.4501401964784367
% es.EY (V/m) @ t=0.4
0.033624004603796866
% es.EZ (V/m) @ t=0.4
-1.4373941801189911
% es.tEX (V/m) @ t=0.4
-0.4501401964784435
% es.tEY (V/m) @ t=0.4
0
% es.tEZ (V/m) @ t=0.4
-1.4373941801190089
% es.Ex (V/m) @ t=0.4
-0.4501401964784367
% es.Ey (V/m) @ t=0.4
0.033624004603796866
% es.Ez (V/m) @ t=0.4
-1.4373941801189911
% es.tEx (V/m) @ t=0.4
-0.4501401964784435
% es.tEy (V/m) @ t=0.4
0
% es.tEz (V/m) @ t=0.4
-1.4373941801190089
% V (V) @ t=0.4
0.007584435984060472
% es.normE (V/m) @ t=0.5
1.5794791101309933
% es.EX (V/m) @ t=0.5
-0.47119037032164146
% es.EY (V/m) @ t=0.5
0.03519637144371649
% es.EZ (V/m) @ t=0.5
-1.504611931746132
% es.tEX (V/m) @ t=0.5
-0.4711903703216507
% es.tEY (V/m) @ t=0.5
0
% es.tEZ (V/m) @ t=0.5
-1.5046119317461475
% es.Ex (V/m) @ t=0.5
-0.47119037032164146
% es.Ey (V/m) @ t=0.5
0.03519637144371649
% es.Ez (V/m) @ t=0.5
-1.504611931746132
% es.tEx (V/m) @ t=0.5
-0.4711903703216507
% es.tEy (V/m) @ t=0.5
0
% es.tEz (V/m) @ t=0.5
-1.5046119317461475
% V (V) @ t=0.5
0.0079391120503299
% es.normE (V/m) @ t=0.6
1.6580292584121308
% es.EX (V/m) @ t=0.6
-0.49462340597475324
% es.EY (V/m) @ t=0.6
0.03694666763687012
% es.EZ (V/m) @ t=0.6
-1.5794388308975535
% es.tEX (V/m) @ t=0.6
-0.49462340597475674
% es.tEY (V/m) @ t=0.6
0
% es.tEZ (V/m) @ t=0.6
-1.5794388308975646
% es.Ex (V/m) @ t=0.6
-0.49462340597475324
% es.Ey (V/m) @ t=0.6
0.03694666763687012
% es.Ez (V/m) @ t=0.6
-1.5794388308975535
% es.tEx (V/m) @ t=0.6
-0.49462340597475674
% es.tEy (V/m) @ t=0.6
0
% es.tEz (V/m) @ t=0.6
-1.5794388308975646
% V (V) @ t=0.6
0.00833393992016641
% es.normE (V/m) @ t=0.7
1.7365794066932514
% es.EX (V/m) @ t=0.7
-0.5180564416278554
% es.EY (V/m) @ t=0.7
0.03869696383003148
% es.EZ (V/m) @ t=0.7
-1.6542657300489534
% es.tEX (V/m) @ t=0.7
-0.5180564416278521
% es.tEY (V/m) @ t=0.7
0
% es.tEZ (V/m) @ t=0.7
-1.6542657300489667
% es.Ex (V/m) @ t=0.7
-0.5180564416278554
% es.Ey (V/m) @ t=0.7
0.03869696383003148
% es.Ez (V/m) @ t=0.7
-1.6542657300489534
% es.tEx (V/m) @ t=0.7
-0.5180564416278521
% es.tEy (V/m) @ t=0.7
0
% es.tEz (V/m) @ t=0.7
-1.6542657300489667
% V (V) @ t=0.7
0.008728767790002919
% es.normE (V/m) @ t=0.8
1.8151295549743867
% es.EX (V/m) @ t=0.8
-0.5414894772809653
% es.EY (V/m) @ t=0.8
0.040447260023173115
% es.EZ (V/m) @ t=0.8
-1.7290926292003608
% es.tEX (V/m) @ t=0.8
-0.5414894772809724
% es.tEY (V/m) @ t=0.8
0
% es.tEZ (V/m) @ t=0.8
-1.7290926292003768
% es.Ex (V/m) @ t=0.8
-0.5414894772809653
% es.Ey (V/m) @ t=0.8
0.040447260023173115
% es.Ez (V/m) @ t=0.8
-1.7290926292003608
% es.tEx (V/m) @ t=0.8
-0.5414894772809724
% es.tEy (V/m) @ t=0.8
0
% es.tEz (V/m) @ t=0.8
-1.7290926292003768
% V (V) @ t=0.8
0.00912359565983943
% es.normE (V/m) @ t=0.9
1.902921563298335
% es.EX (V/m) @ t=0.9
-0.5676796048599104
% es.EY (V/m) @ t=0.9
0.04240358501229732
% es.EZ (V/m) @ t=0.9
-1.8127233010002572
% es.tEX (V/m) @ t=0.9
-0.5676796048599151
% es.tEY (V/m) @ t=0.9
0
% es.tEZ (V/m) @ t=0.9
-1.8127233010002728
% es.Ex (V/m) @ t=0.9
-0.5676796048599104
% es.Ey (V/m) @ t=0.9
0.04240358501229732
% es.Ez (V/m) @ t=0.9
-1.8127233010002572
% es.tEx (V/m) @ t=0.9
-0.5676796048599151
% es.tEy (V/m) @ t=0.9
0
% es.tEz (V/m) @ t=0.9
-1.8127233010002728
% V (V) @ t=0.9
0.009564874125452427
% es.normE (V/m) @ t=1
1.991179603388169
% es.EX (V/m) @ t=1
-0.5940087620728249
% es.EY (V/m) @ t=1
0.044370299248060935
% es.EZ (V/m) @ t=1
-1.8967979134890225
% es.tEX (V/m) @ t=1
-0.594008762072832
% es.tEY (V/m) @ t=1
0
% es.tEZ (V/m) @ t=1
-1.8967979134890385
% es.Ex (V/m) @ t=1
-0.5940087620728249
% es.Ey (V/m) @ t=1
0.044370299248060935
% es.Ez (V/m) @ t=1
-1.8967979134890225
% es.tEx (V/m) @ t=1
-0.594008762072832
% es.tEy (V/m) @ t=1
0
% es.tEz (V/m) @ t=1
-1.8967979134890385
% V (V) @ t=1
0.010008494917509984
% es.normE (V/m) @ t=1.1
2.080726377425443
% es.EX (V/m) @ t=1.1
-0.6207223772483421
% es.EY (V/m) @ t=1.1
0.04636573501833584
% es.EZ (V/m) @ t=1.1
-1.9821001729443752
% es.tEX (V/m) @ t=1.1
-0.6207223772483488
% es.tEY (V/m) @ t=1.1
0
% es.tEZ (V/m) @ t=1.1
-1.982100172944394
% es.Ex (V/m) @ t=1.1
-0.6207223772483421
% es.Ey (V/m) @ t=1.1
0.04636573501833584
% es.Ez (V/m) @ t=1.1
-1.9821001729443752
% es.tEx (V/m) @ t=1.1
-0.6207223772483488
% es.tEy (V/m) @ t=1.1
0
% es.tEz (V/m) @ t=1.1
-1.982100172944394
% V (V) @ t=1.1
0.010458593288744933
% es.normE (V/m) @ t=1.2
2.1800842118487074
% es.EX (V/m) @ t=1.2
-0.6503628496657881
% es.EY (V/m) @ t=1.2
0.04857982624496435
% es.EZ (V/m) @ t=1.2
-2.0767484409733443
% es.tEX (V/m) @ t=1.2
-0.6503628496658003
% es.tEY (V/m) @ t=1.2
0
% es.tEZ (V/m) @ t=1.2
-2.0767484409733656
% es.Ex (V/m) @ t=1.2
-0.6503628496657881
% es.Ey (V/m) @ t=1.2
0.04857982624496435
% es.Ez (V/m) @ t=1.2
-2.0767484409733443
% es.tEx (V/m) @ t=1.2
-0.6503628496658003
% es.tEy (V/m) @ t=1.2
0
% es.tEz (V/m) @ t=1.2
-2.0767484409733656
% V (V) @ t=1.2
0.010958005112604556
% es.normE (V/m) @ t=1.3
2.2794420462719662
% es.EX (V/m) @ t=1.3
-0.6800033220832334
% es.EY (V/m) @ t=1.3
0.05079391747158746
% es.EZ (V/m) @ t=1.3
-2.1713967090023054
% es.tEX (V/m) @ t=1.3
-0.6800033220832447
% es.tEY (V/m) @ t=1.3
0
% es.tEZ (V/m) @ t=1.3
-2.171396709002317
% es.Ex (V/m) @ t=1.3
-0.6800033220832334
% es.Ey (V/m) @ t=1.3
0.05079391747158746
% es.Ez (V/m) @ t=1.3
-2.1713967090023054
% es.tEx (V/m) @ t=1.3
-0.6800033220832447
% es.tEy (V/m) @ t=1.3
0
% es.tEz (V/m) @ t=1.3
-2.171396709002317
% V (V) @ t=1.3
0.011457416936464177
% es.normE (V/m) @ t=1.4
2.3823550267260836
% es.EX (V/m) @ t=1.4
-0.7107043601092426
% es.EY (V/m) @ t=1.4
0.053087221258095785
% es.EZ (V/m) @ t=1.4
-2.2694316118257465
% es.tEX (V/m) @ t=1.4
-0.7107043601092471
% es.tEY (V/m) @ t=1.4
0
% es.tEZ (V/m) @ t=1.4
-2.269431611825765
% es.Ex (V/m) @ t=1.4
-0.7107043601092426
% es.Ey (V/m) @ t=1.4
0.053087221258095785
% es.Ez (V/m) @ t=1.4
-2.2694316118257465
% es.tEx (V/m) @ t=1.4
-0.7107043601092471
% es.tEy (V/m) @ t=1.4
0
% es.tEz (V/m) @ t=1.4
-2.269431611825765
% V (V) @ t=1.4
0.011974698664869256
% es.normE (V/m) @ t=1.5
2.494400111286039
% es.EX (V/m) @ t=1.5
-0.7441296731620177
% es.EY (V/m) @ t=1.5
0.05558399835820192
% es.EZ (V/m) @ t=1.5
-2.376165763918629
% es.tEX (V/m) @ t=1.5
-0.7441296731620177
% es.tEY (V/m) @ t=1.5
0
% es.tEZ (V/m) @ t=1.5
-2.3761657639186486
% es.Ex (V/m) @ t=1.5
-0.7441296731620177
% es.Ey (V/m) @ t=1.5
0.05558399835820192
% es.Ez (V/m) @ t=1.5
-2.376165763918629
% es.tEx (V/m) @ t=1.5
-0.7441296731620177
% es.tEy (V/m) @ t=1.5
0
% es.tEz (V/m) @ t=1.5
-2.3761657639186486
% V (V) @ t=1.5
0.01253788281957493
% es.normE (V/m) @ t=1.6
2.606445195845957
% es.EX (V/m) @ t=1.6
-0.7775549862147859
% es.EY (V/m) @ t=1.6
0.05808077545830827
% es.EZ (V/m) @ t=1.6
-2.4828999160114753
% es.tEX (V/m) @ t=1.6
-0.7775549862147955
% es.tEY (V/m) @ t=1.6
0
% es.tEZ (V/m) @ t=1.6
-2.482899916011508
% es.Ex (V/m) @ t=1.6
-0.7775549862147859
% es.Ey (V/m) @ t=1.6
0.05808077545830827
% es.Ez (V/m) @ t=1.6
-2.4828999160114753
% es.tEx (V/m) @ t=1.6
-0.7775549862147955
% es.tEy (V/m) @ t=1.6
0
% es.tEz (V/m) @ t=1.6
-2.482899916011508
% V (V) @ t=1.6
0.013101066974280604
% es.normE (V/m) @ t=1.7
2.721524729271995
% es.EX (V/m) @ t=1.7
-0.8118855321015088
% es.EY (V/m) @ t=1.7
0.060645164602805265
% es.EZ (V/m) @ t=1.7
-2.592524686064608
% es.tEX (V/m) @ t=1.7
-0.8118855321015133
% es.tEY (V/m) @ t=1.7
0
% es.tEZ (V/m) @ t=1.7
-2.5925246860646265
% es.Ex (V/m) @ t=1.7
-0.8118855321015088
% es.Ey (V/m) @ t=1.7
0.060645164602805265
% es.Ez (V/m) @ t=1.7
-2.592524686064608
% es.tEx (V/m) @ t=1.7
-0.8118855321015133
% es.tEy (V/m) @ t=1.7
0
% es.tEz (V/m) @ t=1.7
-2.5925246860646265
% V (V) @ t=1.7
0.01367950371725783
% es.normE (V/m) @ t=1.8
2.8434062405726293
% es.EX (V/m) @ t=1.8
-0.8482452351695019
% es.EY (V/m) @ t=1.8
0.06336111195451377
% es.EZ (V/m) @ t=1.8
-2.7086290246579505
% es.tEX (V/m) @ t=1.8
-0.8482452351695073
% es.tEY (V/m) @ t=1.8
0
% es.tEZ (V/m) @ t=1.8
-2.7086290246579754
% es.Ex (V/m) @ t=1.8
-0.8482452351695019
% es.Ey (V/m) @ t=1.8
0.06336111195451377
% es.Ez (V/m) @ t=1.8
-2.7086290246579505
% es.tEx (V/m) @ t=1.8
-0.8482452351695073
% es.tEy (V/m) @ t=1.8
0
% es.tEz (V/m) @ t=1.8
-2.7086290246579754
% V (V) @ t=1.8
0.014292130447455953
% es.normE (V/m) @ t=1.9
2.969451725971859
% es.EX (V/m) @ t=1.9
-0.8858471295678334
% es.EY (V/m) @ t=1.9
0.06616983885664862
% es.EZ (V/m) @ t=1.9
-2.828699967681489
% es.tEX (V/m) @ t=1.9
-0.8858471295678427
% es.tEY (V/m) @ t=1.9
0
% es.tEZ (V/m) @ t=1.9
-2.828699967681498
% es.Ex (V/m) @ t=1.9
-0.8858471295678334
% es.Ey (V/m) @ t=1.9
0.06616983885664862
% es.Ez (V/m) @ t=1.9
-2.828699967681489
% es.tEx (V/m) @ t=1.9
-0.8858471295678427
% es.tEy (V/m) @ t=1.9
0
% es.tEz (V/m) @ t=1.9
-2.828699967681498
% V (V) @ t=1.9
0.014925687298839875
% es.normE (V/m) @ t=2
3.099661185469645
% es.EX (V/m) @ t=2
-0.9246912152964748
% es.EY (V/m) @ t=2
0.06907134530921544
% es.EZ (V/m) @ t=2
-2.9527375151351887
% es.tEX (V/m) @ t=2
-0.924691215296491
% es.tEY (V/m) @ t=2
0
% es.tEZ (V/m) @ t=2
-2.952737515135219
% es.Ex (V/m) @ t=2
-0.9246912152964748
% es.Ey (V/m) @ t=2
0.06907134530921544
% es.Ez (V/m) @ t=2
-2.9527375151351887
% es.tEx (V/m) @ t=2
-0.924691215296491
% es.tEy (V/m) @ t=2
0
% es.tEz (V/m) @ t=2
-2.952737515135219
% V (V) @ t=2
0.015580174271409602
% es.normE (V/m) @ t=2.1
3.2340346190660556
% es.EX (V/m) @ t=2.1
-0.9647774923554335
% es.EY (V/m) @ t=2.1
0.0720656313122364
% es.EZ (V/m) @ t=2.1
-3.0807416670191197
% es.tEX (V/m) @ t=2.1
-0.964777492355438
% es.tEY (V/m) @ t=2.1
0
% es.tEZ (V/m) @ t=2.1
-3.080741667019147
% es.Ex (V/m) @ t=2.1
-0.9647774923554335
% es.Ey (V/m) @ t=2.1
0.0720656313122364
% es.Ez (V/m) @ t=2.1
-3.0807416670191197
% es.tEx (V/m) @ t=2.1
-0.964777492355438
% es.tEy (V/m) @ t=2.1
0
% es.tEz (V/m) @ t=2.1
-3.080741667019147
% V (V) @ t=2.1
0.01625559136516513
% es.normE (V/m) @ t=2.2
3.3725720267610124
% es.EX (V/m) @ t=2.2
-1.0061059607447147
% es.EY (V/m) @ t=2.2
0.07515269686565593
% es.EZ (V/m) @ t=2.2
-3.2127124233331976
% es.tEX (V/m) @ t=2.2
-1.0061059607447262
% es.tEY (V/m) @ t=2.2
0
% es.tEZ (V/m) @ t=2.2
-3.212712423333249
% es.Ex (V/m) @ t=2.2
-1.0061059607447147
% es.Ey (V/m) @ t=2.2
0.07515269686565593
% es.Ez (V/m) @ t=2.2
-3.2127124233331976
% es.tEx (V/m) @ t=2.2
-1.0061059607447262
% es.tEy (V/m) @ t=2.2
0
% es.tEz (V/m) @ t=2.2
-3.212712423333249
% V (V) @ t=2.2
0.016951938580106466
% es.normE (V/m) @ t=2.3
3.519182565404905
% es.EX (V/m) @ t=2.3
-1.0498427217155148
% es.EY (V/m) @ t=2.3
0.07841952483649682
% es.EZ (V/m) @ t=2.3
-3.3523736799237014
% es.tEX (V/m) @ t=2.3
-1.0498427217155282
% es.tEY (V/m) @ t=2.3
0
% es.tEZ (V/m) @ t=2.3
-3.3523736799237263
% es.Ex (V/m) @ t=2.3
-1.0498427217155148
% es.Ey (V/m) @ t=2.3
0.07841952483649682
% es.Ez (V/m) @ t=2.3
-3.3523736799237014
% es.tEx (V/m) @ t=2.3
-1.0498427217155282
% es.tEy (V/m) @ t=2.3
0
% es.tEz (V/m) @ t=2.3
-3.3523736799237263
% V (V) @ t=2.3
0.017688868876008998
% es.normE (V/m) @ t=2.4
3.6724998437905563
% es.EX (V/m) @ t=2.4
-1.0955801808536858
% es.EY (V/m) @ t=2.4
0.08183571157785649
% es.EZ (V/m) @ t=2.4
-3.4984238009812536
% es.tEX (V/m) @ t=2.4
-1.0955801808536947
% es.tEY (V/m) @ t=2.4
0
% es.tEZ (V/m) @ t=2.4
-3.498423800981284
% es.Ex (V/m) @ t=2.4
-1.0955801808536858
% es.Ey (V/m) @ t=2.4
0.08183571157785649
% es.Ez (V/m) @ t=2.4
-3.4984238009812536
% es.tEx (V/m) @ t=2.4
-1.0955801808536947
% es.tEy (V/m) @ t=2.4
0
% es.tEz (V/m) @ t=2.4
-3.498423800981284
% V (V) @ t=2.4
0.018459512835128766
% es.normE (V/m) @ t=2.5
3.831551505613592
% es.EX (V/m) @ t=2.5
-1.143028284332615
% es.EY (V/m) @ t=2.5
0.08537962113536063
% es.EZ (V/m) @ t=2.5
-3.649936511674337
% es.tEX (V/m) @ t=2.5
-1.1430282843326296
% es.tEY (V/m) @ t=2.5
0
% es.tEZ (V/m) @ t=2.5
-3.6499365116743494
% es.Ex (V/m) @ t=2.5
-1.143028284332615
% es.Ey (V/m) @ t=2.5
0.08537962113536063
% es.Ez (V/m) @ t=2.5
-3.649936511674337
% es.tEx (V/m) @ t=2.5
-1.1430282843326296
% es.tEy (V/m) @ t=2.5
0
% es.tEz (V/m) @ t=2.5
-3.6499365116743494
% V (V) @ t=2.5
0.019258982017305568
% es.normE (V/m) @ t=2.6
3.9963375508739314
% es.EX (V/m) @ t=2.6
-1.192187032152288
% es.EY (V/m) @ t=2.6
0.08905125350904
% es.EZ (V/m) @ t=2.6
-3.8069118120028387
% es.tEX (V/m) @ t=2.6
-1.1921870321523045
% es.tEY (V/m) @ t=2.6
0
% es.tEZ (V/m) @ t=2.6
-3.8069118120028804
% es.Ex (V/m) @ t=2.6
-1.192187032152288
% es.Ey (V/m) @ t=2.6
0.08905125350904
% es.Ez (V/m) @ t=2.6
-3.8069118120028387
% es.tEx (V/m) @ t=2.6
-1.1921870321523045
% es.tEy (V/m) @ t=2.6
0
% es.tEz (V/m) @ t=2.6
-3.8069118120028804
% V (V) @ t=2.6
0.020087276422539425
% es.normE (V/m) @ t=2.7
4.166857979571644
% es.EX (V/m) @ t=2.7
-1.2430564243127051
% es.EY (V/m) @ t=2.7
0.09285060869888118
% es.EZ (V/m) @ t=2.7
-3.9693497019668147
% es.tEX (V/m) @ t=2.7
-1.2430564243127193
% es.tEY (V/m) @ t=2.7
0
% es.tEZ (V/m) @ t=2.7
-3.9693497019668325
% es.Ex (V/m) @ t=2.7
-1.2430564243127051
% es.Ey (V/m) @ t=2.7
0.09285060869888118
% es.Ez (V/m) @ t=2.7
-3.9693497019668147
% es.tEx (V/m) @ t=2.7
-1.2430564243127193
% es.tEy (V/m) @ t=2.7
0
% es.tEz (V/m) @ t=2.7
-3.9693497019668325
% V (V) @ t=2.7
0.020944396050830323
% es.normE (V/m) @ t=2.8
4.343448929963988
% es.EX (V/m) @ t=2.8
-1.2957367391123316
% es.EY (V/m) @ t=2.8
0.09678518305597725
% es.EZ (V/m) @ t=2.8
-4.137570386004361
% es.tEX (V/m) @ t=2.8
-1.2957367391123498
% es.tEY (V/m) @ t=2.8
0
% es.tEZ (V/m) @ t=2.8
-4.137570386004395
% es.Ex (V/m) @ t=2.8
-1.2957367391123316
% es.Ey (V/m) @ t=2.8
0.09678518305597725
% es.Ez (V/m) @ t=2.8
-4.137570386004361
% es.tEx (V/m) @ t=2.8
-1.2957367391123498
% es.tEy (V/m) @ t=2.8
0
% es.tEz (V/m) @ t=2.8
-4.137570386004395
% V (V) @ t=2.8
0.021832030323564514
% es.normE (V/m) @ t=2.9
4.529410185632656
% es.EX (V/m) @ t=2.9
-1.3512123830436218
% es.EY (V/m) @ t=2.9
0.10092856634794134
% es.EZ (V/m) @ t=2.9
-4.3147172294566385
% es.tEX (V/m) @ t=2.9
-1.3512123830436238
% es.tEY (V/m) @ t=2.9
0
% es.tEZ (V/m) @ t=2.9
-4.314717229456665
% es.Ex (V/m) @ t=2.9
-1.3512123830436218
% es.Ey (V/m) @ t=2.9
0.10092856634794134
% es.Ez (V/m) @ t=2.9
-4.3147172294566385
% es.tEx (V/m) @ t=2.9
-1.3512123830436238
% es.tEy (V/m) @ t=2.9
0
% es.tEz (V/m) @ t=2.9
-4.314717229456665
% V (V) @ t=2.9
0.02276676385981636
% es.normE (V/m) @ t=3
4.7222616178746275
% es.EX (V/m) @ t=3
-1.4087434727969963
% es.EY (V/m) @ t=3
0.10522544825206692
% es.EZ (V/m) @ t=3
-4.49842766810883
% es.tEX (V/m) @ t=3
-1.4087434727970134
% es.tEY (V/m) @ t=3
0
% es.tEZ (V/m) @ t=3
-4.498427668108885
% es.Ex (V/m) @ t=3
-1.4087434727969963
% es.Ey (V/m) @ t=3
0.10522544825206692
% es.Ez (V/m) @ t=3
-4.49842766810883
% es.tEx (V/m) @ t=3
-1.4087434727970134
% es.tEy (V/m) @ t=3
0
% es.tEz (V/m) @ t=3
-4.498427668108885
% V (V) @ t=3
0.023736131602779258
% es.normE (V/m) @ t=3.1
4.922003226689985
% es.EX (V/m) @ t=3.1
-1.4683300083724367
% es.EY (V/m) @ t=3.1
0.10967582876822576
% es.EZ (V/m) @ t=3.1
-4.688701701961017
% es.tEX (V/m) @ t=3.1
-1.4683300083724617
% es.tEY (V/m) @ t=3.1
0
% es.tEZ (V/m) @ t=3.1
-4.688701701961049
% es.Ex (V/m) @ t=3.1
-1.4683300083724367
% es.Ey (V/m) @ t=3.1
0.10967582876822576
% es.Ez (V/m) @ t=3.1
-4.688701701961017
% es.tEx (V/m) @ t=3.1
-1.4683300083724617
% es.tEy (V/m) @ t=3.1
0
% es.tEz (V/m) @ t=3.1
-4.688701701961049
% V (V) @ t=3.1
0.02474013355245321
% es.normE (V/m) @ t=3.2
5.128635012078682
% es.EX (V/m) @ t=3.2
-1.5299719897699497
% es.EY (V/m) @ t=3.2
0.11427970789658842
% es.EZ (V/m) @ t=3.2
-4.885539331013142
% es.tEX (V/m) @ t=3.2
-1.5299719897699617
% es.tEY (V/m) @ t=3.2
0
% es.tEZ (V/m) @ t=3.2
-4.885539331013197
% es.Ex (V/m) @ t=3.2
-1.5299719897699497
% es.Ey (V/m) @ t=3.2
0.11427970789658842
% es.Ez (V/m) @ t=3.2
-4.885539331013142
% es.tEx (V/m) @ t=3.2
-1.5299719897699617
% es.tEy (V/m) @ t=3.2
0
% es.tEz (V/m) @ t=3.2
-4.885539331013197
% V (V) @ t=3.2
0.025778769708838228
% es.normE (V/m) @ t=3.3
5.342156974040667
% es.EX (V/m) @ t=3.3
-1.5936694169894823
% es.EY (V/m) @ t=3.3
0.11903708563699991
% es.EZ (V/m) @ t=3.3
-5.0889405552651485
% es.tEX (V/m) @ t=3.3
-1.5936694169894992
% es.tEY (V/m) @ t=3.3
0
% es.tEZ (V/m) @ t=3.3
-5.088940555265207
% es.Ex (V/m) @ t=3.3
-1.5936694169894823
% es.Ey (V/m) @ t=3.3
0.11903708563699991
% es.Ez (V/m) @ t=3.3
-5.0889405552651485
% es.tEx (V/m) @ t=3.3
-1.5936694169894992
% es.tEy (V/m) @ t=3.3
0
% es.tEz (V/m) @ t=3.3
-5.088940555265207
% V (V) @ t=3.3
0.0268520400719343
% es.normE (V/m) @ t=3.4
5.562913153450189
% es.EX (V/m) @ t=3.4
-1.6595254372124337
% es.EY (V/m) @ t=3.4
0.1239563640552411
% es.EZ (V/m) @ t=3.4
-5.299232902113815
% es.tEX (V/m) @ t=3.4
-1.6595254372124515
% es.tEY (V/m) @ t=3.4
0
% es.tEZ (V/m) @ t=3.4
-5.299232902113875
% es.Ex (V/m) @ t=3.4
-1.6595254372124337
% es.Ey (V/m) @ t=3.4
0.1239563640552411
% es.Ez (V/m) @ t=3.4
-5.299232902113815
% es.tEx (V/m) @ t=3.4
-1.6595254372124515
% es.tEy (V/m) @ t=3.4
0
% es.tEz (V/m) @ t=3.4
-5.299232902113875
% V (V) @ t=3.4
0.027961650201491745
% es.normE (V/m) @ t=3.5
5.791205312407039
% es.EX (V/m) @ t=3.5
-1.7276305219852208
% es.EY (V/m) @ t=3.5
0.12904491269705315
% es.EZ (V/m) @ t=3.5
-5.516703649502626
% es.tEX (V/m) @ t=3.5
-1.7276305219852475
% es.tEY (V/m) @ t=3.5
0
% es.tEZ (V/m) @ t=3.5
-5.516703649502656
% es.Ex (V/m) @ t=3.5
-1.7276305219852208
% es.Ey (V/m) @ t=3.5
0.12904491269705315
% es.Ez (V/m) @ t=3.5
-5.516703649502626
% es.tEx (V/m) @ t=3.5
-1.7276305219852475
% es.tEy (V/m) @ t=3.5
0
% es.tEz (V/m) @ t=3.5
-5.516703649502656
% V (V) @ t=3.5
0.029109096063045396
% es.normE (V/m) @ t=3.6
6.026650563563564
% es.EX (V/m) @ t=3.6
-1.797869877532825
% es.EY (V/m) @ t=3.6
0.1342933807995035
% es.EZ (V/m) @ t=3.6
-5.740988288136551
% es.tEX (V/m) @ t=3.6
-1.7978698775328184
% es.tEY (V/m) @ t=3.6
0
% es.tEZ (V/m) @ t=3.6
-5.740988288136613
% es.Ex (V/m) @ t=3.6
-1.797869877532825
% es.Ey (V/m) @ t=3.6
0.1342933807995035
% es.Ez (V/m) @ t=3.6
-5.740988288136551
% es.tEx (V/m) @ t=3.6
-1.7978698775328184
% es.tEy (V/m) @ t=3.6
0
% es.tEz (V/m) @ t=3.6
-5.740988288136613
% V (V) @ t=3.6
0.030292479518033537
% es.normE (V/m) @ t=3.7
6.269248906920755
% es.EX (V/m) @ t=3.7
-1.8702435038551848
% es.EY (V/m) @ t=3.7
0.13970176836261747
% es.EZ (V/m) @ t=3.7
-5.972086818015697
% es.tEX (V/m) @ t=3.7
-1.8702435038551926
% es.tEY (V/m) @ t=3.7
0
% es.tEZ (V/m) @ t=3.7
-5.972086818015729
% es.Ex (V/m) @ t=3.7
-1.8702435038551848
% es.Ey (V/m) @ t=3.7
0.13970176836261747
% es.Ez (V/m) @ t=3.7
-5.972086818015697
% es.tEx (V/m) @ t=3.7
-1.8702435038551926
% es.tEy (V/m) @ t=3.7
0
% es.tEz (V/m) @ t=3.7
-5.972086818015729
% V (V) @ t=3.7
0.03151180056645618
% es.normE (V/m) @ t=3.8
6.519000342479686
% es.EX (V/m) @ t=3.8
-1.9447514009523492
% es.EY (V/m) @ t=3.8
0.14527007538635164
% es.EZ (V/m) @ t=3.8
-6.209999239140121
% es.tEX (V/m) @ t=3.8
-1.94475140095237
% es.tEY (V/m) @ t=3.8
0
% es.tEZ (V/m) @ t=3.8
-6.209999239140153
% es.Ex (V/m) @ t=3.8
-1.9447514009523492
% es.Ey (V/m) @ t=3.8
0.14527007538635164
% es.Ez (V/m) @ t=3.8
-6.209999239140121
% es.tEx (V/m) @ t=3.8
-1.94475140095237
% es.tEy (V/m) @ t=3.8
0
% es.tEz (V/m) @ t=3.8
-6.209999239140153
% V (V) @ t=3.8
0.032767059208313305
% es.normE (V/m) @ t=3.9
6.7759048702413
% es.EX (V/m) @ t=3.9
-2.021393568824267
% es.EY (V/m) @ t=3.9
0.15099830187079785
% es.EZ (V/m) @ t=3.9
-6.454725551509675
% es.tEX (V/m) @ t=3.9
-2.0213935688242657
% es.tEY (V/m) @ t=3.9
0
% es.tEZ (V/m) @ t=3.9
-6.4547255515097675
% es.Ex (V/m) @ t=3.9
-2.021393568824267
% es.Ey (V/m) @ t=3.9
0.15099830187079785
% es.Ez (V/m) @ t=3.9
-6.454725551509675
% es.tEx (V/m) @ t=3.9
-2.0213935688242657
% es.tEy (V/m) @ t=3.9
0
% es.tEz (V/m) @ t=3.9
-6.4547255515097675
% V (V) @ t=3.9
0.034058255443604926
% es.normE (V/m) @ t=4
7.037645400429049
% es.EX (V/m) @ t=4
-2.0994774388557134
% es.EY (V/m) @ t=4
0.1568328627597384
% es.EZ (V/m) @ t=4
-6.704059033920979
% es.tEX (V/m) @ t=4
-2.099477438855729
% es.tEY (V/m) @ t=4
0
% es.tEZ (V/m) @ t=4
-6.704059033921048
% es.Ex (V/m) @ t=4
-2.0994774388557134
% es.Ey (V/m) @ t=4
0.1568328627597384
% es.Ez (V/m) @ t=4
-6.704059033920979
% es.tEx (V/m) @ t=4
-2.099477438855729
% es.tEy (V/m) @ t=4
0
% es.tEz (V/m) @ t=4
-6.704059033921048
% V (V) @ t=4
0.03537380513848515
% es.normE (V/m) @ t=4.1
7.30444616651923
% es.EX (V/m) @ t=4.1
-2.1790700335121356
% es.EY (V/m) @ t=4.1
0.16277894368016088
% es.EZ (V/m) @ t=4.1
-6.958213239071297
% es.tEX (V/m) @ t=4.1
-2.1790700335121613
% es.tEY (V/m) @ t=4.1
0
% es.tEZ (V/m) @ t=4.1
-6.95821323907138
% es.Ex (V/m) @ t=4.1
-2.1790700335121356
% es.Ey (V/m) @ t=4.1
0.16277894368016088
% es.Ez (V/m) @ t=4.1
-6.958213239071297
% es.tEx (V/m) @ t=4.1
-2.1790700335121613
% es.tEy (V/m) @ t=4.1
0
% es.tEz (V/m) @ t=4.1
-6.95821323907138
% V (V) @ t=4.1
0.03671482933308658
% es.normE (V/m) @ t=4.2
7.57664672280204
% es.EX (V/m) @ t=4.2
-2.2602728441761797
% es.EY (V/m) @ t=4.2
0.16884439717026412
% es.EZ (V/m) @ t=4.2
-7.217511547461598
% es.tEX (V/m) @ t=4.2
-2.2602728441761855
% es.tEY (V/m) @ t=4.2
0
% es.tEZ (V/m) @ t=4.2
-7.217511547461669
% es.Ex (V/m) @ t=4.2
-2.2602728441761797
% es.Ey (V/m) @ t=4.2
0.16884439717026412
% es.Ez (V/m) @ t=4.2
-7.217511547461598
% es.tEx (V/m) @ t=4.2
-2.2602728441761855
% es.tEy (V/m) @ t=4.2
0
% es.tEz (V/m) @ t=4.2
-7.217511547461669
% V (V) @ t=4.2
0.038083025606151164
% es.normE (V/m) @ t=4.3
7.854011060911134
% es.EX (V/m) @ t=4.3
-2.3430153289165006
% es.EY (V/m) @ t=4.3
0.1750237652966824
% es.EZ (V/m) @ t=4.3
-7.4817291923727876
% es.tEX (V/m) @ t=4.3
-2.343015328916522
% es.tEY (V/m) @ t=4.3
0
% es.tEZ (V/m) @ t=4.3
-7.481729192372843
% es.Ex (V/m) @ t=4.3
-2.3430153289165006
% es.Ey (V/m) @ t=4.3
0.1750237652966824
% es.Ez (V/m) @ t=4.3
-7.4817291923727876
% es.tEx (V/m) @ t=4.3
-2.343015328916522
% es.tEy (V/m) @ t=4.3
0
% es.tEz (V/m) @ t=4.3
-7.481729192372843
% V (V) @ t=4.3
0.039477214049789044
% es.normE (V/m) @ t=4.4
8.136303172481032
% es.EX (V/m) @ t=4.4
-2.4272269458018148
% es.EY (V/m) @ t=4.4
0.1813115901260262
% es.EZ (V/m) @ t=4.4
-7.750641407085421
% es.tEX (V/m) @ t=4.4
-2.4272269458018343
% es.tEY (V/m) @ t=4.4
0
% es.tEZ (V/m) @ t=4.4
-7.750641407085517
% es.Ex (V/m) @ t=4.4
-2.4272269458018148
% es.Ey (V/m) @ t=4.4
0.1813115901260262
% es.Ez (V/m) @ t=4.4
-7.750641407085421
% es.tEx (V/m) @ t=4.4
-2.4272269458018343
% es.tEy (V/m) @ t=4.4
0
% es.tEz (V/m) @ t=4.4
-7.750641407085517
% V (V) @ t=4.4
0.040896214756110334
% es.normE (V/m) @ t=4.5
8.422854132473445
% es.EX (V/m) @ t=4.5
-2.5127083422062357
% es.EY (V/m) @ t=4.5
0.18769326074282044
% es.EZ (V/m) @ t=4.5
-8.02361089226324
% es.tEX (V/m) @ t=4.5
-2.512708342206267
% es.tEY (V/m) @ t=4.5
0
% es.tEZ (V/m) @ t=4.5
-8.023610892263271
% es.Ex (V/m) @ t=4.5
-2.5127083422062357
% es.Ey (V/m) @ t=4.5
0.18769326074282044
% es.Ez (V/m) @ t=4.5
-8.02361089226324
% es.tEx (V/m) @ t=4.5
-2.512708342206267
% es.tEy (V/m) @ t=4.5
0
% es.tEz (V/m) @ t=4.5
-8.023610892263271
% V (V) @ t=4.5
0.04233665598765888
% es.normE (V/m) @ t=4.6
8.707705357190973
% es.EX (V/m) @ t=4.6
-2.597686272314779
% es.EY (V/m) @ t=4.6
0.19404232911833896
% es.EZ (V/m) @ t=4.6
-8.29495975563917
% es.tEX (V/m) @ t=4.6
-2.5976862723148173
% es.tEY (V/m) @ t=4.6
0
% es.tEZ (V/m) @ t=4.6
-8.294959755639237
% es.Ex (V/m) @ t=4.6
-2.597686272314779
% es.Ey (V/m) @ t=4.6
0.19404232911833896
% es.Ez (V/m) @ t=4.6
-8.29495975563917
% es.tEx (V/m) @ t=4.6
-2.5976862723148173
% es.tEy (V/m) @ t=4.6
0
% es.tEz (V/m) @ t=4.6
-8.294959755639237
% V (V) @ t=4.6
0.04376838480193916
% es.normE (V/m) @ t=4.7
8.993653586403386
% es.EX (V/m) @ t=4.7
-2.68299256275072
% es.EY (V/m) @ t=4.7
0.20041745748642825
% es.EZ (V/m) @ t=4.7
-8.567353180452887
% es.tEX (V/m) @ t=4.7
-2.6829925627507265
% es.tEY (V/m) @ t=4.7
0
% es.tEZ (V/m) @ t=4.7
-8.567353180452997
% es.Ex (V/m) @ t=4.7
-2.68299256275072
% es.Ey (V/m) @ t=4.7
0.20041745748642825
% es.Ez (V/m) @ t=4.7
-8.567353180452887
% es.tEx (V/m) @ t=4.7
-2.6829925627507265
% es.tEy (V/m) @ t=4.7
0
% es.tEz (V/m) @ t=4.7
-8.567353180452997
% V (V) @ t=4.7
0.045205575901813004
% es.normE (V/m) @ t=4.8
9.280000676104782
% es.EX (V/m) @ t=4.8
-2.76841916703128
% es.EY (V/m) @ t=4.8
0.20680341716657502
% es.EZ (V/m) @ t=4.8
-8.840126024186418
% es.tEX (V/m) @ t=4.8
-2.7684191670312828
% es.tEY (V/m) @ t=4.8
0
% es.tEZ (V/m) @ t=4.8
-8.840126024186528
% es.Ex (V/m) @ t=4.8
-2.76841916703128
% es.Ey (V/m) @ t=4.8
0.20680341716657502
% es.Ez (V/m) @ t=4.8
-8.840126024186418
% es.tEx (V/m) @ t=4.8
-2.7684191670312828
% es.tEy (V/m) @ t=4.8
0
% es.tEz (V/m) @ t=4.8
-8.840126024186528
% V (V) @ t=4.8
0.046644709616047414
% es.normE (V/m) @ t=4.9
9.56604848229205
% es.EX (V/m) @ t=4.9
-2.853758038673594
% es.EY (V/m) @ t=4.9
0.21318497947846454
% es.EZ (V/m) @ t=4.9
-9.112613144321585
% es.tEX (V/m) @ t=4.9
-2.8537580386735897
% es.tEY (V/m) @ t=4.9
0
% es.tEZ (V/m) @ t=4.9
-9.112613144321625
% es.Ex (V/m) @ t=4.9
-2.853758038673594
% es.Ey (V/m) @ t=4.9
0.21318497947846454
% es.Ez (V/m) @ t=4.9
-9.112613144321585
% es.tEx (V/m) @ t=4.9
-2.8537580386735897
% es.tEy (V/m) @ t=4.9
0
% es.tEz (V/m) @ t=4.9
-9.112613144321625
% V (V) @ t=4.9
0.04808226627340929
% es.normE (V/m) @ t=5
9.851098860966125
% es.EX (V/m) @ t=5
-2.938801131194897
% es.EY (V/m) @ t=5
0.2195469157419141
% es.EZ (V/m) @ t=5
-9.384149398340245
% es.tEX (V/m) @ t=5
-2.938801131194907
% es.tEY (V/m) @ t=5
0
% es.tEZ (V/m) @ t=5
-9.384149398340366
% es.Ex (V/m) @ t=5
-2.938801131194897
% es.Ey (V/m) @ t=5
0.2195469157419141
% es.Ez (V/m) @ t=5
-9.384149398340245
% es.tEx (V/m) @ t=5
-2.938801131194907
% es.tEy (V/m) @ t=5
0
% es.tEz (V/m) @ t=5
-9.384149398340366
% V (V) @ t=5
0.04951472620266556
% es.normE (V/m) @ t=5.1
10.132531171333856
% es.EX (V/m) @ t=5.1
-3.022763783207111
% es.EY (V/m) @ t=5.1
0.22582662311531893
% es.EZ (V/m) @ t=5.1
-9.652239523499869
% es.tEX (V/m) @ t=5.1
-3.0227637832071252
% es.tEY (V/m) @ t=5.1
0
% es.tEZ (V/m) @ t=5.1
-9.652239523500004
% es.Ex (V/m) @ t=5.1
-3.022763783207111
% es.Ey (V/m) @ t=5.1
0.22582662311531893
% es.Ez (V/m) @ t=5.1
-9.652239523499869
% es.tEx (V/m) @ t=5.1
-3.0227637832071252
% es.tEy (V/m) @ t=5.1
0
% es.tEz (V/m) @ t=5.1
-9.652239523500004
% V (V) @ t=5.1
0.050929051707007
% es.normE (V/m) @ t=5.2
10.407114194773312
% es.EX (V/m) @ t=5.2
-3.1046782025808266
% es.EY (V/m) @ t=5.2
0.23194645290036697
% es.EZ (V/m) @ t=5.2
-9.913807017706397
% es.tEX (V/m) @ t=5.2
-3.104678202580857
% es.tEY (V/m) @ t=5.2
0
% es.tEZ (V/m) @ t=5.2
-9.913807017706453
% es.Ex (V/m) @ t=5.2
-3.1046782025808266
% es.Ey (V/m) @ t=5.2
0.23194645290036697
% es.Ez (V/m) @ t=5.2
-9.913807017706397
% es.tEx (V/m) @ t=5.2
-3.104678202580857
% es.tEy (V/m) @ t=5.2
0
% es.tEz (V/m) @ t=5.2
-9.913807017706453
% V (V) @ t=5.2
0.052309182200231834
% es.normE (V/m) @ t=5.3
10.675843735992775
% es.EX (V/m) @ t=5.3
-3.1848444092615
% es.EY (V/m) @ t=5.3
0.23793291869665778
% es.EZ (V/m) @ t=5.3
-10.169799292396156
% es.tEX (V/m) @ t=5.3
-3.1848444092615296
% es.tEY (V/m) @ t=5.3
0