% Model:              1x1--2 - Copy1.mph
% Version:            COMSOL 6.1.0.252
% Date:               Apr 3 2023, 15:19
% Dimension:          0
% Nodes:              14017
% Expressions:        14017
% Description:        Electric field norm, Electric field, X component, Electric field, Y component, Electric field, Z component, Tangential electric field, X component, Tangential electric field, Y component, Tangential electric field, Z component, Electric field, x component, Electric field, y component, Electric field, z component, Tangential electric field, x component, Tangential electric field, y component, Tangential electric field, z component, Electric potential
% Length unit:        mm
% x
2
% y
12.2
% z
1
% es.normE (V/m) @ t=0
0.6932807659475893
% es.EX (V/m) @ t=0
-0.4477117470857894
% es.EY (V/m) @ t=0
0.09947078121506558
% es.EZ (V/m) @ t=0
0.5105971021160349
% es.tEX (V/m) @ t=0
-0.44771174708578787
% es.tEY (V/m) @ t=0
0
% es.tEZ (V/m) @ t=0
0.5105971021160389
% es.Ex (V/m) @ t=0
-0.4477117470857894
% es.Ey (V/m) @ t=0
0.09947078121506558
% es.Ez (V/m) @ t=0
0.5105971021160349
% es.tEx (V/m) @ t=0
-0.44771174708578787
% es.tEy (V/m) @ t=0
0
% es.tEz (V/m) @ t=0
0.5105971021160389
% V (V) @ t=0
0.00670960205861959
% es.normE (V/m) @ t=0.1
0.7046464711071987
% es.EX (V/m) @ t=0.1
-0.4550515719387358
% es.EY (V/m) @ t=0.1
0.10110151610769957
% es.EZ (V/m) @ t=0.1
0.5189678749238849
% es.tEX (V/m) @ t=0.1
-0.455051571938734
% es.tEY (V/m) @ t=0.1
0
% es.tEZ (V/m) @ t=0.1
0.5189678749238853
% es.Ex (V/m) @ t=0.1
-0.4550515719387358
% es.Ey (V/m) @ t=0.1
0.10110151610769957
% es.Ez (V/m) @ t=0.1
0.5189678749238849
% es.tEx (V/m) @ t=0.1
-0.455051571938734
% es.tEy (V/m) @ t=0.1
0
% es.tEz (V/m) @ t=0.1
0.5189678749238853
% V (V) @ t=0.1
0.006819599704617509
% es.normE (V/m) @ t=0.2
0.7381016784285066
% es.EX (V/m) @ t=0.2
-0.4766565084539882
% es.EY (V/m) @ t=0.2
0.10590163069530212
% es.EZ (V/m) @ t=0.2
0.5436074298304883
% es.tEX (V/m) @ t=0.2
-0.47665650845398666
% es.tEY (V/m) @ t=0.2
0
% es.tEZ (V/m) @ t=0.2
0.543607429830494
% es.Ex (V/m) @ t=0.2
-0.4766565084539882
% es.Ey (V/m) @ t=0.2
0.10590163069530212
% es.Ez (V/m) @ t=0.2
0.5436074298304883
% es.tEx (V/m) @ t=0.2
-0.47665650845398666
% es.tEy (V/m) @ t=0.2
0
% es.tEz (V/m) @ t=0.2
0.543607429830494
% V (V) @ t=0.2
0.007143379560655958
% es.normE (V/m) @ t=0.3
0.7728227146415199
% es.EX (V/m) @ t=0.3
-0.4990788916602862
% es.EY (V/m) @ t=0.3
0.11088340911514288
% es.EZ (V/m) @ t=0.3
0.569179250647434
% es.tEX (V/m) @ t=0.3
-0.4990788916602844
% es.tEY (V/m) @ t=0.3
0
% es.tEZ (V/m) @ t=0.3
0.5691792506474398
% es.Ex (V/m) @ t=0.3
-0.4990788916602862
% es.Ey (V/m) @ t=0.3
0.11088340911514288
% es.Ez (V/m) @ t=0.3
0.569179250647434
% es.tEx (V/m) @ t=0.3
-0.4990788916602844
% es.tEy (V/m) @ t=0.3
0
% es.tEz (V/m) @ t=0.3
0.5691792506474398
% V (V) @ t=0.3
0.00747940712060691
% es.normE (V/m) @ t=0.4
0.8092979838946097
% es.EX (V/m) @ t=0.4
-0.5226341470472438
% es.EY (V/m) @ t=0.4
0.11611682758524683
% es.EZ (V/m) @ t=0.4
0.5960430650002007
% es.tEX (V/m) @ t=0.4
-0.5226341470472438
% es.tEY (V/m) @ t=0.4
0
% es.tEZ (V/m) @ t=0.4
0.5960430650002011
% es.Ex (V/m) @ t=0.4
-0.5226341470472438
% es.Ey (V/m) @ t=0.4
0.11611682758524683
% es.Ez (V/m) @ t=0.4
0.5960430650002007
% es.tEx (V/m) @ t=0.4
-0.5226341470472438
% es.tEy (V/m) @ t=0.4
0
% es.tEz (V/m) @ t=0.4
0.5960430650002011
% V (V) @ t=0.4
0.00783241592806636
% es.normE (V/m) @ t=0.5
0.8471720815294302
% es.EX (V/m) @ t=0.5
-0.5470929166125833
% es.EY (V/m) @ t=0.5
0.12155012006242866
% es.EZ (V/m) @ t=0.5
0.6239372838898616
% es.tEX (V/m) @ t=0.5
-0.5470929166125833
% es.tEY (V/m) @ t=0.5
0
% es.tEZ (V/m) @ t=0.5
0.6239372838898696
% es.Ex (V/m) @ t=0.5
-0.5470929166125833
% es.Ey (V/m) @ t=0.5
0.12155012006242866
% es.Ez (V/m) @ t=0.5
0.6239372838898616
% es.tEx (V/m) @ t=0.5
-0.5470929166125833
% es.tEy (V/m) @ t=0.5
0
% es.tEz (V/m) @ t=0.5
0.6239372838898696
% V (V) @ t=0.5
0.00819901911428966
% es.normE (V/m) @ t=0.6
0.8892940992832856
% es.EX (V/m) @ t=0.6
-0.5742957055132063
% es.EY (V/m) @ t=0.6
0.12758913618911877
% es.EZ (V/m) @ t=0.6
0.6549608696463931
% es.tEX (V/m) @ t=0.6
-0.5742957055132043
% es.tEY (V/m) @ t=0.6
0
% es.tEZ (V/m) @ t=0.6
0.6549608696463949
% es.Ex (V/m) @ t=0.6
-0.5742957055132063
% es.Ey (V/m) @ t=0.6
0.12758913618911877
% es.Ez (V/m) @ t=0.6
0.6549608696463931
% es.tEx (V/m) @ t=0.6
-0.5742957055132043
% es.tEy (V/m) @ t=0.6
0
% es.tEz (V/m) @ t=0.6
0.6549608696463949
% V (V) @ t=0.6
0.008606990432505596
% es.normE (V/m) @ t=0.7
0.9314161170809679
% es.EX (V/m) @ t=0.7
-0.6014984944138158
% es.EY (V/m) @ t=0.7
0.13362815231580955
% es.EZ (V/m) @ t=0.7
0.6859844554029095
% es.tEX (V/m) @ t=0.7
-0.6014984944138173
% es.tEY (V/m) @ t=0.7
0
% es.tEZ (V/m) @ t=0.7
0.6859844554029193
% es.Ex (V/m) @ t=0.7
-0.6014984944138158
% es.Ey (V/m) @ t=0.7
0.13362815231580955
% es.Ez (V/m) @ t=0.7
0.6859844554029095
% es.tEx (V/m) @ t=0.7
-0.6014984944138173
% es.tEy (V/m) @ t=0.7
0
% es.tEz (V/m) @ t=0.7
0.6859844554029193
% V (V) @ t=0.7
0.009014961750721532
% es.normE (V/m) @ t=0.8
0.973538134916831
% es.EX (V/m) @ t=0.8
-0.6287012833144299
% es.EY (V/m) @ t=0.8
0.13966716844249794
% es.EZ (V/m) @ t=0.8
0.7170080411594553
% es.tEX (V/m) @ t=0.8
-0.6287012833144241
% es.tEY (V/m) @ t=0.8
0
% es.tEZ (V/m) @ t=0.8
0.7170080411594624
% es.Ex (V/m) @ t=0.8
-0.6287012833144299
% es.Ey (V/m) @ t=0.8
0.13966716844249794
% es.Ez (V/m) @ t=0.8
0.7170080411594553
% es.tEx (V/m) @ t=0.8
-0.6287012833144241
% es.tEy (V/m) @ t=0.8
0
% es.tEz (V/m) @ t=0.8
0.7170080411594624
% V (V) @ t=0.8
0.009422933068937465
% es.normE (V/m) @ t=0.9
1.0206662416254768
% es.EX (V/m) @ t=0.9
-0.6591360257489995
% es.EY (V/m) @ t=0.9
0.14642892987545186
% es.EZ (V/m) @ t=0.9
0.7517176288124636
% es.tEX (V/m) @ t=0.9
-0.6591360257489971
% es.tEY (V/m) @ t=0.9
0
% es.tEZ (V/m) @ t=0.9
0.7517176288124707
% es.Ex (V/m) @ t=0.9
-0.6591360257489995
% es.Ey (V/m) @ t=0.9
0.14642892987545186
% es.Ez (V/m) @ t=0.9
0.7517176288124636
% es.tEx (V/m) @ t=0.9
-0.6591360257489971
% es.tEy (V/m) @ t=0.9
0
% es.tEz (V/m) @ t=0.9
0.7517176288124707
% V (V) @ t=0.9
0.009879047887429965
% es.normE (V/m) @ t=1
1.0679845736326403
% es.EX (V/m) @ t=1
-0.6896935784931877
% es.EY (V/m) @ t=1
0.15321815475240186
% es.EZ (V/m) @ t=1
0.7865672800614885
% es.tEX (V/m) @ t=1
-0.689693578493189
% es.tEY (V/m) @ t=1
0
% es.tEZ (V/m) @ t=1
0.7865672800615107
% es.Ex (V/m) @ t=1
-0.6896935784931877
% es.Ey (V/m) @ t=1
0.15321815475240186
% es.Ez (V/m) @ t=1
0.7865672800614885
% es.tEx (V/m) @ t=1
-0.689693578493189
% es.tEy (V/m) @ t=1
0
% es.tEz (V/m) @ t=1
0.7865672800615107
% V (V) @ t=1
0.010336992100470626
% es.normE (V/m) @ t=1.1
1.116058917362131
% es.EX (V/m) @ t=1.1
-0.7207390991369889
% es.EY (V/m) @ t=1.1
0.16011709876578506
% es.EZ (V/m) @ t=1.1
0.8219734642525536
% es.tEX (V/m) @ t=1.1
-0.7207390991369897
% es.tEY (V/m) @ t=1.1
0
% es.tEZ (V/m) @ t=1.1
0.8219734642525509
% es.Ex (V/m) @ t=1.1
-0.7207390991369889
% es.Ey (V/m) @ t=1.1
0.16011709876578506
% es.Ez (V/m) @ t=1.1
0.8219734642525536
% es.tEx (V/m) @ t=1.1
-0.7207390991369897
% es.tEy (V/m) @ t=1.1
0
% es.tEz (V/m) @ t=1.1
0.8219734642525509
% V (V) @ t=1.1
0.010802167906101704
% es.normE (V/m) @ t=1.2
1.169310800902969
% es.EX (V/m) @ t=1.2
-0.7551264636985884
% es.EY (V/m) @ t=1.2
0.16776745333106247
% es.EZ (V/m) @ t=1.2
0.8611910594580419
% es.tEX (V/m) @ t=1.2
-0.7551264636985857
% es.tEY (V/m) @ t=1.2
0
% es.tEZ (V/m) @ t=1.2
0.8611910594580428
% es.Ex (V/m) @ t=1.2
-0.7551264636985884
% es.Ey (V/m) @ t=1.2
0.16776745333106247
% es.Ez (V/m) @ t=1.2
0.8611910594580419
% es.tEx (V/m) @ t=1.2
-0.7551264636985857
% es.tEy (V/m) @ t=1.2
0
% es.tEz (V/m) @ t=1.2
0.8611910594580428
% V (V) @ t=1.2
0.011316869210710897
% es.normE (V/m) @ t=1.3
1.2225626846221518
% es.EX (V/m) @ t=1.3
-0.7895138282601941
% es.EY (V/m) @ t=1.3
0.17541780789633088
% es.EZ (V/m) @ t=1.3
0.9004086546635346
% es.tEX (V/m) @ t=1.3
-0.7895138282601946
% es.tEY (V/m) @ t=1.3
0
% es.tEZ (V/m) @ t=1.3
0.9004086546635497
% es.Ex (V/m) @ t=1.3
-0.7895138282601941
% es.Ey (V/m) @ t=1.3
0.17541780789633088
% es.Ez (V/m) @ t=1.3
0.9004086546635346
% es.tEx (V/m) @ t=1.3
-0.7895138282601946
% es.tEy (V/m) @ t=1.3
0
% es.tEz (V/m) @ t=1.3
0.9004086546635497
% V (V) @ t=1.3
0.011831570515320087
% es.normE (V/m) @ t=1.4
1.2778049889099456
% es.EX (V/m) @ t=1.4
-0.8251875131820126
% es.EY (V/m) @ t=1.4
0.18334917549010898
% es.EZ (V/m) @ t=1.4
0.941093153644565
% es.tEX (V/m) @ t=1.4
-0.8251875131820134
% es.tEY (V/m) @ t=1.4
0
% es.tEZ (V/m) @ t=1.4
0.9410931536445659
% es.Ex (V/m) @ t=1.4
-0.8251875131820126
% es.Ey (V/m) @ t=1.4
0.18334917549010898
% es.Ez (V/m) @ t=1.4
0.941093153644565
% es.tEx (V/m) @ t=1.4
-0.8251875131820134
% es.tEy (V/m) @ t=1.4
0
% es.tEz (V/m) @ t=1.4
0.9410931536445659
% V (V) @ t=1.4
0.012365846912411601
% es.normE (V/m) @ t=1.5
1.3378866247461376
% es.EX (V/m) @ t=1.5
-0.8639886432114641
% es.EY (V/m) @ t=1.5
0.19196377320938807
% es.EZ (V/m) @ t=1.5
0.9853441522147186
% es.tEX (V/m) @ t=1.5
-0.8639886432114614
% es.tEY (V/m) @ t=1.5
0
% es.tEZ (V/m) @ t=1.5
0.9853441522147222
% es.Ex (V/m) @ t=1.5
-0.8639886432114641
% es.Ey (V/m) @ t=1.5
0.19196377320938807
% es.Ez (V/m) @ t=1.5
0.9853441522147186
% es.tEx (V/m) @ t=1.5
-0.8639886432114614
% es.tEy (V/m) @ t=1.5
0
% es.tEz (V/m) @ t=1.5
0.9853441522147222
% V (V) @ t=1.5
0.012947716451234076
% es.normE (V/m) @ t=1.6
1.3979682606399053
% es.EX (V/m) @ t=1.6
-0.9027897732409231
% es.EY (V/m) @ t=1.6
0.2005783709286726
% es.EZ (V/m) @ t=1.6
1.0295951507848713
% es.tEX (V/m) @ t=1.6
-0.902789773240924
% es.tEY (V/m) @ t=1.6
0
% es.tEZ (V/m) @ t=1.6
1.0295951507848864
% es.Ex (V/m) @ t=1.6
-0.9027897732409231
% es.Ey (V/m) @ t=1.6
0.2005783709286726
% es.Ez (V/m) @ t=1.6
1.0295951507848713
% es.tEx (V/m) @ t=1.6
-0.902789773240924
% es.tEy (V/m) @ t=1.6
0
% es.tEz (V/m) @ t=1.6
1.0295951507848864
% V (V) @ t=1.6
0.01352958599005655
% es.normE (V/m) @ t=1.7
1.459721255824591
% es.EX (V/m) @ t=1.7
-0.9426700134102055
% es.EY (V/m) @ t=1.7
0.20943390943948514
% es.EZ (V/m) @ t=1.7
1.0750768537322557
% es.tEX (V/m) @ t=1.7
-0.9426700134102024
% es.tEY (V/m) @ t=1.7
0
% es.tEZ (V/m) @ t=1.7
1.0750768537322566
% es.Ex (V/m) @ t=1.7
-0.9426700134102055
% es.Ey (V/m) @ t=1.7
0.20943390943948514
% es.Ez (V/m) @ t=1.7
1.0750768537322557
% es.tEx (V/m) @ t=1.7
-0.9426700134102024
% es.tEy (V/m) @ t=1.7
0
% es.tEz (V/m) @ t=1.7
1.0750768537322566
% V (V) @ t=1.7
0.014127553456089773
% es.normE (V/m) @ t=1.8
1.525095243075723
% es.EX (V/m) @ t=1.8
-0.9848881406950878
% es.EY (V/m) @ t=1.8
0.21881144505817718
% es.EZ (V/m) @ t=1.8
1.1232248720078841
% es.tEX (V/m) @ t=1.8
-0.9848881406950842
% es.tEY (V/m) @ t=1.8
0
% es.tEZ (V/m) @ t=1.8
1.1232248720078921
% es.Ex (V/m) @ t=1.8
-0.9848881406950878
% es.Ey (V/m) @ t=1.8
0.21881144505817718
% es.Ez (V/m) @ t=1.8
1.1232248720078841
% es.tEx (V/m) @ t=1.8
-0.9848881406950842
% es.tEy (V/m) @ t=1.8
0
% es.tEz (V/m) @ t=1.8
1.1232248720078921
% V (V) @ t=1.8
0.014760397006801648
% es.normE (V/m) @ t=1.9
1.5926990494961468
% es.EX (V/m) @ t=1.9
-1.0285459467859899
% es.EY (V/m) @ t=1.9
0.22851042826436485
% es.EZ (V/m) @ t=1.9
1.1730148162955283
% es.tEX (V/m) @ t=1.9
-1.0285459467859863
% es.tEY (V/m) @ t=1.9
0
% es.tEZ (V/m) @ t=1.9
1.1730148162955434
% es.Ex (V/m) @ t=1.9
-1.0285459467859899
% es.Ey (V/m) @ t=1.9
0.22851042826436485
% es.Ez (V/m) @ t=1.9
1.1730148162955283
% es.tEx (V/m) @ t=1.9
-1.0285459467859863
% es.tEy (V/m) @ t=1.9
0
% es.tEz (V/m) @ t=1.9
1.1730148162955434
% V (V) @ t=1.9
0.015414717368610806
% es.normE (V/m) @ t=2
1.6625326750831912
% es.EX (V/m) @ t=2
-1.073643431682905
% es.EY (V/m) @ t=2
0.23853085905797866
% es.EZ (V/m) @ t=2
1.2244466865951606
% es.tEX (V/m) @ t=2
-1.0736434316829016
% es.tEY (V/m) @ t=2
0
% es.tEZ (V/m) @ t=2
1.2244466865951686
% es.Ex (V/m) @ t=2
-1.073643431682905
% es.Ey (V/m) @ t=2
0.23853085905797866
% es.Ez (V/m) @ t=2
1.2244466865951606
% es.tEx (V/m) @ t=2
-1.0736434316829016
% es.tEy (V/m) @ t=2
0
% es.tEz (V/m) @ t=2
1.2244466865951686
% V (V) @ t=2
0.016090514541517248
% es.normE (V/m) @ t=2.1
1.7345961198430118
% es.EX (V/m) @ t=2.1
-1.120180595385829
% es.EY (V/m) @ t=2.1
0.24887273743908445
% es.EZ (V/m) @ t=2.1
1.2775204829067892
% es.tEX (V/m) @ t=2.1
-1.1201805953858321
% es.tEY (V/m) @ t=2.1
0
% es.tEZ (V/m) @ t=2.1
1.2775204829068105
% es.Ex (V/m) @ t=2.1
-1.120180595385829
% es.Ey (V/m) @ t=2.1
0.24887273743908445
% es.Ez (V/m) @ t=2.1
1.2775204829067892
% es.tEx (V/m) @ t=2.1
-1.1201805953858321
% es.tEy (V/m) @ t=2.1
0
% es.tEz (V/m) @ t=2.1
1.2775204829068105
% V (V) @ t=2.1
0.01678778852552098
% es.normE (V/m) @ t=2.2
1.808889383788772
% es.EX (V/m) @ t=2.2
-1.1681574378947897
% es.EY (V/m) @ t=2.2
0.25953606340757385
% es.EZ (V/m) @ t=2.2
1.3322362052304193
% es.tEX (V/m) @ t=2.2
-1.1681574378947857
% es.tEY (V/m) @ t=2.2
0
% es.tEZ (V/m) @ t=2.2
1.3322362052304424
% es.Ex (V/m) @ t=2.2
-1.1681574378947897
% es.Ey (V/m) @ t=2.2
0.25953606340757385
% es.Ez (V/m) @ t=2.2
1.3322362052304193
% es.tEx (V/m) @ t=2.2
-1.1681574378947857
% es.tEy (V/m) @ t=2.2
0
% es.tEz (V/m) @ t=2.2
1.3322362052304424
% V (V) @ t=2.2
0.017506539320621992
% es.normE (V/m) @ t=2.3
1.8875495661669839
% es.EX (V/m) @ t=2.3
-1.218954928741446
% es.EY (V/m) @ t=2.3
0.2708232579977634
% es.EZ (V/m) @ t=2.3
1.3901687082454472
% es.tEX (V/m) @ t=2.3
-1.218954928741442
% es.tEY (V/m) @ t=2.3
0
% es.tEZ (V/m) @ t=2.3
1.3901687082454544
% es.Ex (V/m) @ t=2.3
-1.218954928741446
% es.Ey (V/m) @ t=2.3
0.2708232579977634
% es.Ez (V/m) @ t=2.3
1.3901687082454472
% es.tEx (V/m) @ t=2.3
-1.218954928741442
% es.tEy (V/m) @ t=2.3
0
% es.tEz (V/m) @ t=2.3
1.3901687082454544
% V (V) @ t=2.3
0.018267736834821045
% es.normE (V/m) @ t=2.4
1.9697837003179184
% es.EX (V/m) @ t=2.4
-1.272060661781936
% es.EY (V/m) @ t=2.4
0.28262210845437385
% es.EZ (V/m) @ t=2.4
1.4507336450889987
% es.tEX (V/m) @ t=2.4
-1.2720606617819388
% es.tEY (V/m) @ t=2.4
0
% es.tEZ (V/m) @ t=2.4
1.4507336450890271
% es.Ex (V/m) @ t=2.4
-1.272060661781936
% es.Ey (V/m) @ t=2.4
0.28262210845437385
% es.Ez (V/m) @ t=2.4
1.4507336450889987
% es.tEx (V/m) @ t=2.4
-1.2720606617819388
% es.tEy (V/m) @ t=2.4
0
% es.tEz (V/m) @ t=2.4
1.4507336450890271
% V (V) @ t=2.4
0.019063600223247632
% es.normE (V/m) @ t=2.5
2.0550927204552334
% es.EX (V/m) @ t=2.5
-1.327152146309138
% es.EY (V/m) @ t=2.5
0.2948619919498552
% es.EZ (V/m) @ t=2.5
1.5135632480533694
% es.tEX (V/m) @ t=2.5
-1.3271521463091336
% es.tEY (V/m) @ t=2.5
0
% es.tEZ (V/m) @ t=2.5
1.5135632480533925
% es.Ex (V/m) @ t=2.5
-1.327152146309138
% es.Ey (V/m) @ t=2.5
0.2948619919498552
% es.Ez (V/m) @ t=2.5
1.5135632480533694
% es.tEx (V/m) @ t=2.5
-1.3271521463091336
% es.tEy (V/m) @ t=2.5
0
% es.tEz (V/m) @ t=2.5
1.5135632480533925
% V (V) @ t=2.5
0.019889232491215464
% es.normE (V/m) @ t=2.6
2.143476626579047
% es.EX (V/m) @ t=2.6
-1.3842293823230558
% es.EY (V/m) @ t=2.6
0.30754290848424826
% es.EZ (V/m) @ t=2.6
1.578657517138602
% es.tEX (V/m) @ t=2.6
-1.384229382323051
% es.tEY (V/m) @ t=2.6
0
% es.tEZ (V/m) @ t=2.6
1.5786575171386321
% es.Ex (V/m) @ t=2.6
-1.3842293823230558
% es.Ey (V/m) @ t=2.6
0.30754290848424826
% es.Ez (V/m) @ t=2.6
1.578657517138602
% es.tEx (V/m) @ t=2.6
-1.384229382323051
% es.tEy (V/m) @ t=2.6
0
% es.tEz (V/m) @ t=2.6
1.5786575171386321
% V (V) @ t=2.6
0.020744633638724558
% es.normE (V/m) @ t=2.7
2.234935418689413
% es.EX (V/m) @ t=2.7
-1.4432923698236855
% es.EY (V/m) @ t=2.7
0.3206648580574647
% es.EZ (V/m) @ t=2.7
1.6460164523446519
% es.tEX (V/m) @ t=2.7
-1.4432923698236877
% es.tEY (V/m) @ t=2.7
0
% es.tEZ (V/m) @ t=2.7
1.6460164523446608
% es.Ex (V/m) @ t=2.7
-1.4432923698236855
% es.Ey (V/m) @ t=2.7
0.3206648580574647
% es.Ez (V/m) @ t=2.7
1.6460164523446519
% es.tEx (V/m) @ t=2.7
-1.4432923698236877
% es.tEy (V/m) @ t=2.7
0
% es.tEz (V/m) @ t=2.7
1.6460164523446608
% V (V) @ t=2.7
0.02162980366577491
% es.normE (V/m) @ t=2.8
2.3296687539292265
% es.EX (V/m) @ t=2.8
-1.5044699983406264
% es.EY (V/m) @ t=2.8
0.3342567147594613
% es.EZ (V/m) @ t=2.8
1.7157870515956777
% es.tEX (V/m) @ t=2.8
-1.5044699983406282
% es.tEY (V/m) @ t=2.8
0
% es.tEZ (V/m) @ t=2.8
1.7157870515957079
% es.Ex (V/m) @ t=2.8
-1.5044699983406264
% es.Ey (V/m) @ t=2.8
0.3342567147594613
% es.Ez (V/m) @ t=2.8
1.7157870515956777
% es.tEx (V/m) @ t=2.8
-1.5044699983406282
% es.tEy (V/m) @ t=2.8
0
% es.tEz (V/m) @ t=2.8
1.7157870515957079
% V (V) @ t=2.8
0.022546659337173477
% es.normE (V/m) @ t=2.9
2.429411392622701
% es.EX (V/m) @ t=2.9
-1.5688821498822962
% es.EY (V/m) @ t=2.9
0.34856935679540446
% es.EZ (V/m) @ t=2.9
1.789246535244665
% es.tEX (V/m) @ t=2.9
-1.568882149882298
% es.tEY (V/m) @ t=2.9
0
% es.tEZ (V/m) @ t=2.9
1.7892465352446951
% es.Ex (V/m) @ t=2.9
-1.5688821498822962
% es.Ey (V/m) @ t=2.9
0.34856935679540446
% es.Ez (V/m) @ t=2.9
1.789246535244665
% es.tEx (V/m) @ t=2.9
-1.568882149882298
% es.tEy (V/m) @ t=2.9
0
% es.tEz (V/m) @ t=2.9
1.7892465352446951
% V (V) @ t=2.9
0.023511854840647342
% es.normE (V/m) @ t=3
2.532847935203566
% es.EX (V/m) @ t=3
-1.6356796625836978
% es.EY (V/m) @ t=3
0.36341255322756383
% es.EZ (V/m) @ t=3
1.8654264380346888
% es.tEX (V/m) @ t=3
-1.6356796625836854
% es.tEY (V/m) @ t=3
0
% es.tEZ (V/m) @ t=3
1.8654264380347119
% es.Ex (V/m) @ t=3
-1.6356796625836978
% es.Ey (V/m) @ t=3
0.36341255322756383
% es.Ez (V/m) @ t=3
1.8654264380346888
% es.tEx (V/m) @ t=3
-1.6356796625836854
% es.tEy (V/m) @ t=3
0
% es.tEz (V/m) @ t=3
1.8654264380347119
% V (V) @ t=3
0.0245127619698281
% es.normE (V/m) @ t=3.1
2.639978381674376
% es.EX (V/m) @ t=3.1
-1.7048625364448053
% es.EY (V/m) @ t=3.1
0.37878630405596136
% es.EZ (V/m) @ t=3.1
1.9443267599658078
% es.tEX (V/m) @ t=3.1
-1.704862536444792
% es.tEY (V/m) @ t=3.1
0
% es.tEZ (V/m) @ t=3.1
1.944326759965822
% es.Ex (V/m) @ t=3.1
-1.7048625364448053
% es.Ey (V/m) @ t=3.1
0.37878630405596136
% es.Ez (V/m) @ t=3.1
1.9443267599658078
% es.tEx (V/m) @ t=3.1
-1.704862536444792
% es.tEy (V/m) @ t=3.1
0
% es.tEz (V/m) @ t=3.1
1.944326759965822
% V (V) @ t=3.1
0.025549380724715753
% es.normE (V/m) @ t=3.2
2.7508027320379287
% es.EX (V/m) @ t=3.2
-1.776430771465627
% es.EY (V/m) @ t=3.2
0.3946906092806315
% es.EZ (V/m) @ t=3.2
2.0259475010379866
% es.tEX (V/m) @ t=3.2
-1.7764307714656207
% es.tEY (V/m) @ t=3.2
0
% es.tEZ (V/m) @ t=3.2
2.0259475010379955
% es.Ex (V/m) @ t=3.2
-1.776430771465627
% es.Ey (V/m) @ t=3.2
0.3946906092806315
% es.Ez (V/m) @ t=3.2
2.0259475010379866
% es.tEx (V/m) @ t=3.2
-1.7764307714656207
% es.tEy (V/m) @ t=3.2
0
% es.tEz (V/m) @ t=3.2
2.0259475010379955
% V (V) @ t=3.2
0.026621711105310312
% es.normE (V/m) @ t=3.3
2.8653209862971667
% es.EX (V/m) @ t=3.3
-1.8503843676461766
% es.EY (V/m) @ t=3.3
0.41112546890149027
% es.EZ (V/m) @ t=3.3
2.1102886612511824
% es.tEX (V/m) @ t=3.3
-1.8503843676461704
% es.tEY (V/m) @ t=3.3
0
% es.tEZ (V/m) @ t=3.3
2.1102886612512055
% es.Ex (V/m) @ t=3.3
-1.8503843676461766
% es.Ey (V/m) @ t=3.3
0.41112546890149027
% es.Ez (V/m) @ t=3.3
2.1102886612511824
% es.tEx (V/m) @ t=3.3
-1.8503843676461704
% es.tEy (V/m) @ t=3.3
0
% es.tEz (V/m) @ t=3.3
2.1102886612512055
% V (V) @ t=3.3
0.02772975311161176
% es.normE (V/m) @ t=3.4
2.9837278817394264
% es.EX (V/m) @ t=3.4
-1.9268494954321111
% es.EY (V/m) @ t=3.4
0.42811680754600445
% es.EZ (V/m) @ t=3.4
2.1974940917248027
% es.tEX (V/m) @ t=3.4
-1.926849495432105
% es.tEY (V/m) @ t=3.4
0
% es.tEZ (V/m) @ t=3.4
2.197494091724833
% es.Ex (V/m) @ t=3.4
-1.9268494954321111
% es.Ey (V/m) @ t=3.4
0.42811680754600445
% es.Ez (V/m) @ t=3.4
2.1974940917248027
% es.tEx (V/m) @ t=3.4
-1.926849495432105
% es.tEy (V/m) @ t=3.4
0
% es.tEz (V/m) @ t=3.4
2.197494091724833
% V (V) @ t=3.4
0.02887552892844007
% es.normE (V/m) @ t=3.5
3.1061813034363084
% es.EX (V/m) @ t=3.5
-2.0059284486935853
% es.EY (V/m) @ t=3.5
0.44568564384847975
% es.EZ (V/m) @ t=3.5
2.2876804211005997
% es.tEX (V/m) @ t=3.5
-2.0059284486935782
% es.tEY (V/m) @ t=3.5
0
% es.tEZ (V/m) @ t=3.5
2.28768042110063
% es.Ex (V/m) @ t=3.5
-2.0059284486935853
% es.Ey (V/m) @ t=3.5
0.44568564384847975
% es.Ez (V/m) @ t=3.5
2.2876804211005997
% es.tEx (V/m) @ t=3.5
-2.0059284486935782
% es.tEy (V/m) @ t=3.5
0
% es.tEz (V/m) @ t=3.5
2.28768042110063
% V (V) @ t=3.5
0.03006067806107117
% es.normE (V/m) @ t=3.6
3.23247360351699
% es.EX (V/m) @ t=3.6
-2.087486692205575
% es.EY (V/m) @ t=3.6
0.4638043344447418
% es.EZ (V/m) @ t=3.6
2.3806942612962594
% es.tEX (V/m) @ t=3.6
-2.0874866922055677
% es.tEY (V/m) @ t=3.6
0
% es.tEZ (V/m) @ t=3.6
2.3806942612962683
% es.Ex (V/m) @ t=3.6
-2.087486692205575
% es.Ey (V/m) @ t=3.6
0.4638043344447418
% es.Ez (V/m) @ t=3.6
2.3806942612962594
% es.tEx (V/m) @ t=3.6
-2.0874866922055677
% es.tEy (V/m) @ t=3.6
0
% es.tEz (V/m) @ t=3.6
2.3806942612962683
% V (V) @ t=3.6
0.03128304425897953
% es.normE (V/m) @ t=3.7
3.3626047819851763
% es.EX (V/m) @ t=3.7
-2.171524225968075
% es.EY (V/m) @ t=3.7
0.48247287933476946
% es.EZ (V/m) @ t=3.7
2.4765356123119098
% es.tEX (V/m) @ t=3.7
-2.171524225968067
% es.tEY (V/m) @ t=3.7
0
% es.tEZ (V/m) @ t=3.7
2.476535612311917
% es.Ex (V/m) @ t=3.7
-2.171524225968075
% es.Ey (V/m) @ t=3.7
0.48247287933476946
% es.Ez (V/m) @ t=3.7
2.4765356123119098
% es.tEx (V/m) @ t=3.7
-2.171524225968067
% es.tEy (V/m) @ t=3.7
0
% es.tEz (V/m) @ t=3.7
2.476535612311917
% V (V) @ t=3.7
0.03254262752216514
% es.normE (V/m) @ t=3.8
3.496574838845431
% es.EX (V/m) @ t=3.8
-2.2580410499810792
% es.EY (V/m) @ t=3.8
0.5016912785186587
% es.EZ (V/m) @ t=3.8
2.5752044741473483
% es.tEX (V/m) @ t=3.8
-2.2580410499810712
% es.tEY (V/m) @ t=3.8
0
% es.tEZ (V/m) @ t=3.8
2.575204474147352
% es.Ex (V/m) @ t=3.8
-2.2580410499810792
% es.Ey (V/m) @ t=3.8
0.5016912785186587
% es.Ez (V/m) @ t=3.8
2.5752044741473483
% es.tEx (V/m) @ t=3.8
-2.2580410499810712
% es.tEy (V/m) @ t=3.8
0
% es.tEz (V/m) @ t=3.8
2.575204474147352
% V (V) @ t=3.8
0.03383942785062801
% es.normE (V/m) @ t=3.9
3.634383774103359
% es.EX (V/m) @ t=3.9
-2.347037164244578
% es.EY (V/m) @ t=3.9
0.5214595319963422
% es.EZ (V/m) @ t=3.9
2.676700846802678
% es.tEX (V/m) @ t=3.9
-2.3470371642445844
% es.tEY (V/m) @ t=3.9
0
% es.tEZ (V/m) @ t=3.9
2.6767008468027207
% es.Ex (V/m) @ t=3.9
-2.347037164244578
% es.Ey (V/m) @ t=3.9
0.5214595319963422
% es.Ez (V/m) @ t=3.9
2.676700846802678
% es.tEx (V/m) @ t=3.9
-2.3470371642445844
% es.tEy (V/m) @ t=3.9
0
% es.tEz (V/m) @ t=3.9
2.6767008468027207
% V (V) @ t=3.9
0.035173445244368134
% es.normE (V/m) @ t=4
3.7747665067020133
% es.EX (V/m) @ t=4
-2.437695072474244
% es.EY (V/m) @ t=4
0.541598690709399
% es.EZ (V/m) @ t=4
2.7800924613659497
% es.tEX (V/m) @ t=4
-2.4376950724742494
% es.tEY (V/m) @ t=4
0
% es.tEZ (V/m) @ t=4
2.780092461365985
% es.Ex (V/m) @ t=4
-2.437695072474244
% es.Ey (V/m) @ t=4
0.541598690709399
% es.Ez (V/m) @ t=4
2.7800924613659497
% es.tEx (V/m) @ t=4
-2.4376950724742494
% es.tEy (V/m) @ t=4
0
% es.tEz (V/m) @ t=4
2.780092461365985
% V (V) @ t=4
0.03653226140625154
% es.normE (V/m) @ t=4.1
3.917874886890551
% es.EX (V/m) @ t=4.1
-2.5301129004146476
% es.EY (V/m) @ t=4.1
0.562130234277848
% es.EZ (V/m) @ t=4.1
2.885491219974046
% es.tEX (V/m) @ t=4.1
-2.530112900414653
% es.tEY (V/m) @ t=4.1
0
% es.tEZ (V/m) @ t=4.1
2.8854912199740923
% es.Ex (V/m) @ t=4.1
-2.5301129004146476
% es.Ey (V/m) @ t=4.1
0.562130234277848
% es.Ez (V/m) @ t=4.1
2.885491219974046
% es.tEx (V/m) @ t=4.1
-2.530112900414653
% es.tEy (V/m) @ t=4.1
0
% es.tEz (V/m) @ t=4.1
2.8854912199740923
% V (V) @ t=4.1
0.03791736692978462
% es.normE (V/m) @ t=4.2
4.063878922039281
% es.EX (V/m) @ t=4.2
-2.6244005069517033
% es.EY (V/m) @ t=4.2
0.5830782106938739
% es.EZ (V/m) @ t=4.2
2.993022405182895
% es.tEX (V/m) @ t=4.2
-2.6244005069516803
% es.tEY (V/m) @ t=4.2
0
% es.tEZ (V/m) @ t=4.2
2.993022405182984
% es.Ex (V/m) @ t=4.2
-2.6244005069517033
% es.Ey (V/m) @ t=4.2
0.5830782106938739
% es.Ez (V/m) @ t=4.2
2.993022405182895
% es.tEx (V/m) @ t=4.2
-2.6244005069516803
% es.tEy (V/m) @ t=4.2
0
% es.tEz (V/m) @ t=4.2
2.993022405182984
% V (V) @ t=4.2
0.039330430642474976
% es.normE (V/m) @ t=4.3
4.212651827631722
% es.EX (V/m) @ t=4.3
-2.7204759638408698
% es.EY (V/m) @ t=4.3
0.6044246859527158
% es.EZ (V/m) @ t=4.3
3.102592586408541
% es.tEX (V/m) @ t=4.3
-2.720475963840875
% es.tEY (V/m) @ t=4.3
0
% es.tEZ (V/m) @ t=4.3
3.102592586408541
% es.Ex (V/m) @ t=4.3
-2.7204759638408698
% es.Ey (V/m) @ t=4.3
0.6044246859527158
% es.Ez (V/m) @ t=4.3
3.102592586408541
% es.tEx (V/m) @ t=4.3
-2.720475963840875
% es.tEy (V/m) @ t=4.3
0
% es.tEz (V/m) @ t=4.3
3.102592586408541
% V (V) @ t=4.3
0.0407702080013176
% es.normE (V/m) @ t=4.4
4.36406681915391
% es.EX (V/m) @ t=4.4
-2.8182573428378905
% es.EY (V/m) @ t=4.4
0.626151726049788
% es.EZ (V/m) @ t=4.4
3.2141083330669886
% es.tEX (V/m) @ t=4.4
-2.818257342837895
% es.tEY (V/m) @ t=4.4
0
% es.tEZ (V/m) @ t=4.4
3.214108333067049
% es.Ex (V/m) @ t=4.4
-2.8182573428378905
% es.Ey (V/m) @ t=4.4
0.626151726049788
% es.Ez (V/m) @ t=4.4
3.2141083330669886
% es.tEx (V/m) @ t=4.4
-2.818257342837895
% es.tEy (V/m) @ t=4.4
0
% es.tEz (V/m) @ t=4.4
3.214108333067049
% V (V) @ t=4.4
0.04223545446330748
% es.normE (V/m) @ t=4.5
4.517736798101545
% es.EX (V/m) @ t=4.5
-2.917494633873643
% es.EY (V/m) @ t=4.5
0.6482039224778724
% es.EZ (V/m) @ t=4.5
3.3272845214110944
% es.tEX (V/m) @ t=4.5
-2.917494633873633
% es.tEY (V/m) @ t=4.5
0
% es.tEZ (V/m) @ t=4.5
3.327284521411098
% es.Ex (V/m) @ t=4.5
-2.917494633873643
% es.Ey (V/m) @ t=4.5
0.6482039224778724
% es.Ez (V/m) @ t=4.5
3.3272845214110944
% es.tEx (V/m) @ t=4.5
-2.917494633873633
% es.tEy (V/m) @ t=4.5
0
% es.tEz (V/m) @ t=4.5
3.327284521411098
% V (V) @ t=4.5
0.04372241467826407
% es.normE (V/m) @ t=4.6
4.670511671590136
% es.EX (V/m) @ t=4.6
-3.0161537924117185
% es.EY (V/m) @ t=4.6
0.6701281092450575
% es.EZ (V/m) @ t=4.6
3.4398013805156964
% es.tEX (V/m) @ t=4.6
-3.016153792411708
% es.tEY (V/m) @ t=4.6
0
% es.tEZ (V/m) @ t=4.6
3.439801380515757
% es.Ex (V/m) @ t=4.6
-3.0161537924117185
% es.Ey (V/m) @ t=4.6
0.6701281092450575
% es.Ez (V/m) @ t=4.6
3.4398013805156964
% es.tEx (V/m) @ t=4.6
-3.016153792411708
% es.tEy (V/m) @ t=4.6
0
% es.tEz (V/m) @ t=4.6
3.439801380515757
% V (V) @ t=4.6
0.0452006833798141
% es.normE (V/m) @ t=4.7
4.823873573683945
% es.EX (V/m) @ t=4.7
-3.1151917508765283
% es.EY (V/m) @ t=4.7
0.6921379704092478
% es.EZ (V/m) @ t=4.7
3.5527502746910855
% es.tEX (V/m) @ t=4.7
-3.1151917508765177
% es.tEY (V/m) @ t=4.7
0
% es.tEZ (V/m) @ t=4.7
3.5527502746911743
% es.Ex (V/m) @ t=4.7
-3.1151917508765283
% es.Ey (V/m) @ t=4.7
0.6921379704092478
% es.Ez (V/m) @ t=4.7
3.5527502746910855
% es.tEx (V/m) @ t=4.7
-3.1151917508765177
% es.tEy (V/m) @ t=4.7
0
% es.tEz (V/m) @ t=4.7
3.5527502746911743
% V (V) @ t=4.7
0.04668453453104988
% es.normE (V/m) @ t=4.8
4.977448261592091
% es.EX (V/m) @ t=4.8
-3.2143667999853367
% es.EY (V/m) @ t=4.8
0.7141799481561377
% es.EZ (V/m) @ t=4.8
3.6658555470316863
% es.tEX (V/m) @ t=4.8
-3.2143667999853403
% es.tEY (V/m) @ t=4.8
0
% es.tEZ (V/m) @ t=4.8
3.6658555470317467
% es.Ex (V/m) @ t=4.8
-3.2143667999853367
% es.Ey (V/m) @ t=4.8
0.7141799481561377
% es.Ez (V/m) @ t=4.8
3.6658555470316863
% es.tEx (V/m) @ t=4.8
-3.2143667999853403
% es.tEy (V/m) @ t=4.8
0
% es.tEz (V/m) @ t=4.8
3.6658555470317467
% V (V) @ t=4.8
0.048170336778981464
% es.normE (V/m) @ t=4.9
5.130861492526973
% es.EX (V/m) @ t=4.9
-3.313437230455559
% es.EY (V/m) @ t=4.9
0.7362004846718162
% es.EZ (V/m) @ t=4.9
3.778841540631717
% es.tEX (V/m) @ t=4.9
-3.3134372304555484
% es.tEY (V/m) @ t=4.9
0
% es.tEZ (V/m) @ t=4.9
3.7788415406317775
% es.Ex (V/m) @ t=4.9
-3.313437230455559
% es.Ey (V/m) @ t=4.9
0.7362004846718162
% es.Ez (V/m) @ t=4.9
3.778841540631717
% es.tEx (V/m) @ t=4.9
-3.3134372304555484
% es.tEy (V/m) @ t=4.9
0
% es.tEz (V/m) @ t=4.9
3.7788415406317775
% V (V) @ t=4.9
0.04965445877061881
% es.normE (V/m) @ t=5
5.283739023704724
% es.EX (V/m) @ t=5
-3.4121613330044234
% es.EY (V/m) @ t=5
0.7581460221419252
% es.EZ (V/m) @ t=5
3.891432598585716
% es.tEX (V/m) @ t=5
-3.412161333004427
% es.tEY (V/m) @ t=5
0
% es.tEZ (V/m) @ t=5
3.891432598585734
% es.Ex (V/m) @ t=5
-3.4121613330044234
% es.Ey (V/m) @ t=5
0.7581460221419252
% es.Ez (V/m) @ t=5
3.891432598585716
% es.tEx (V/m) @ t=5
-3.412161333004427
% es.tEy (V/m) @ t=5
0
% es.tEz (V/m) @ t=5
3.891432598585734
% V (V) @ t=5
0.05113326915297196
% es.normE (V/m) @ t=5.1
5.43465341936851
% es.EX (V/m) @ t=5.1
-3.5096181599342415
% es.EY (V/m) @ t=5.1
0.7798074818296525
% es.EZ (V/m) @ t=5.1
4.002578331398976
% es.tEX (V/m) @ t=5.1
-3.509618159934231
% es.tEY (V/m) @ t=5.1
0
% es.tEZ (V/m) @ t=5.1
4.0025783313990075
% es.Ex (V/m) @ t=5.1
-3.5096181599342415
% es.Ey (V/m) @ t=5.1
0.7798074818296525
% es.Ez (V/m) @ t=5.1
4.002578331398976
% es.tEx (V/m) @ t=5.1
-3.509618159934231
% es.tEy (V/m) @ t=5.1
0
% es.tEz (V/m) @ t=5.1
4.0025783313990075
% V (V) @ t=5.1
0.05259324467587087
% es.normE (V/m) @ t=5.2
5.581920518084949
% es.EX (V/m) @ t=5.2
-3.604721192831862
% es.EY (V/m) @ t=5.2
0.8009378753188474
% es.EZ (V/m) @ t=5.2
4.111039501263807
% es.tEX (V/m) @ t=5.2
-3.604721192831864
% es.tEY (V/m) @ t=5.2
0
% es.tEZ (V/m) @ t=5.2
4.111039501263797
% es.Ex (V/m) @ t=5.2
-3.604721192831862
% es.Ey (V/m) @ t=5.2
0.8009378753188474
% es.Ez (V/m) @ t=5.2
4.111039501263807
% es.tEx (V/m) @ t=5.2
-3.604721192831864
% es.tEy (V/m) @ t=5.2
0
% es.tEz (V/m) @ t=5.2
4.111039501263797
% V (V) @ t=5.2
0.054018450846707214
% es.normE (V/m) @ t=5.3
5.726053888485549
% es.EX (V/m) @ t=5.3
-3.697801300894689
% es.EY (V/m) @ t=5.3
0.8216147444675017
% es.EZ (V/m) @ t=5.3
4.217193528601086
% es.tEX (V/m) @ t=5.3
-3.6978013008946746
% es.tEY (V/m) @ t=5.3
0
% es.tEZ (V/m) @ t=5.3
4.217193528601118
% es.Ex (V/m) @ t=5.3
-3.697801300894689
% es.Ey (V/m) @ t=5.3
0.8216147444675017
% es.Ez (V/m) @ t=5.3
4.217193528601086
% es.tEx (V/m) @ t=5.3
-3.6978013008946746