% Model:              1x1--2 - Copy1.mph
% Version:            COMSOL 6.1.0.252
% Date:               Apr 3 2023, 15:17
% Dimension:          0
% Nodes:              14017
% Expressions:        14017
% Description:        Electric field norm, Electric field, X component, Electric field, Y component, Electric field, Z component, Tangential electric field, X component, Tangential electric field, Y component, Tangential electric field, Z component, Electric field, x component, Electric field, y component, Electric field, z component, Tangential electric field, x component, Tangential electric field, y component, Tangential electric field, z component, Electric potential
% Length unit:        mm
% x
1.0000000000000002
% y
12.2
% z
2
% es.normE (V/m) @ t=0
0.6222427326535003
% es.EX (V/m) @ t=0
0.43221415347392744
% es.EY (V/m) @ t=0
0.06471948136821051
% es.EZ (V/m) @ t=0
-0.43158448566409713
% es.tEX (V/m) @ t=0
0.43221415347392966
% es.tEY (V/m) @ t=0
0
% es.tEZ (V/m) @ t=0
-0.4315844856640916
% es.Ex (V/m) @ t=0
0.43221415347392744
% es.Ey (V/m) @ t=0
0.06471948136821051
% es.Ez (V/m) @ t=0
-0.43158448566409713
% es.tEx (V/m) @ t=0
0.43221415347392966
% es.tEy (V/m) @ t=0
0
% es.tEz (V/m) @ t=0
-0.4315844856640916
% V (V) @ t=0
0.006663393693251036
% es.normE (V/m) @ t=0.1
0.6324411222240331
% es.EX (V/m) @ t=0.1
0.43929802618026936
% es.EY (V/m) @ t=0.1
0.06578021659972255
% es.EZ (V/m) @ t=0.1
-0.4386580381340386
% es.tEX (V/m) @ t=0.1
0.43929802618027547
% es.tEY (V/m) @ t=0.1
0
% es.tEZ (V/m) @ t=0.1
-0.43865803813403126
% es.Ex (V/m) @ t=0.1
0.43929802618026936
% es.Ey (V/m) @ t=0.1
0.06578021659972255
% es.Ez (V/m) @ t=0.1
-0.4386580381340386
% es.tEx (V/m) @ t=0.1
0.43929802618027547
% es.tEy (V/m) @ t=0.1
0
% es.tEz (V/m) @ t=0.1
-0.43865803813403126
% V (V) @ t=0.1
0.006772604894713818
% es.normE (V/m) @ t=0.2
0.6624649587697464
% es.EX (V/m) @ t=0.2
0.4601527926457022
% es.EY (V/m) @ t=0.2
0.06890300554623388
% es.EZ (V/m) @ t=0.2
-0.45948242024994257
% es.tEX (V/m) @ t=0.2
0.4601527926457045
% es.tEY (V/m) @ t=0.2
0
% es.tEZ (V/m) @ t=0.2
-0.45948242024993347
% es.Ex (V/m) @ t=0.2
0.4601527926457022
% es.Ey (V/m) @ t=0.2
0.06890300554623388
% es.Ez (V/m) @ t=0.2
-0.45948242024994257
% es.tEx (V/m) @ t=0.2
0.4601527926457045
% es.tEy (V/m) @ t=0.2
0
% es.tEz (V/m) @ t=0.2
-0.45948242024993347
% V (V) @ t=0.2
0.007094120048658204
% es.normE (V/m) @ t=0.3
0.6936308602415366
% es.EX (V/m) @ t=0.3
0.48180084464275963
% es.EY (V/m) @ t=0.3
0.07214460012999066
% es.EZ (V/m) @ t=0.3
-0.48109892730539094
% es.tEX (V/m) @ t=0.3
0.48180084464276174
% es.tEY (V/m) @ t=0.3
0
% es.tEZ (V/m) @ t=0.3
-0.48109892730538206
% es.Ex (V/m) @ t=0.3
0.48180084464275963
% es.Ey (V/m) @ t=0.3
0.07214460012999066
% es.Ez (V/m) @ t=0.3
-0.48109892730539094
% es.tEx (V/m) @ t=0.3
0.48180084464276174
% es.tEy (V/m) @ t=0.3
0
% es.tEz (V/m) @ t=0.3
-0.48109892730538206
% V (V) @ t=0.3
0.007427864595801617
% es.normE (V/m) @ t=0.4
0.7263645132395686
% es.EX (V/m) @ t=0.4
0.5045378686071421
% es.EY (V/m) @ t=0.4
0.07554923638546299
% es.EZ (V/m) @ t=0.4
-0.5038028249293041
% es.tEX (V/m) @ t=0.4
0.5045378686071449
% es.tEY (V/m) @ t=0.4
0
% es.tEZ (V/m) @ t=0.4
-0.5038028249292967
% es.Ex (V/m) @ t=0.4
0.5045378686071421
% es.Ey (V/m) @ t=0.4
0.07554923638546299
% es.Ez (V/m) @ t=0.4
-0.5038028249293041
% es.tEx (V/m) @ t=0.4
0.5045378686071449
% es.tEy (V/m) @ t=0.4
0
% es.tEz (V/m) @ t=0.4
-0.5038028249292967
% V (V) @ t=0.4
0.007778398315145514
% es.normE (V/m) @ t=0.5
0.7603319516841277
% es.EX (V/m) @ t=0.5
0.5281318892329511
% es.EY (V/m) @ t=0.5
0.07908218248554474
% es.EZ (V/m) @ t=0.5
-0.5273624746976393
% es.tEX (V/m) @ t=0.5
0.5281318892329503
% es.tEY (V/m) @ t=0.5
0
% es.tEZ (V/m) @ t=0.5
-0.5273624746976284
% es.Ex (V/m) @ t=0.5
0.5281318892329511
% es.Ey (V/m) @ t=0.5
0.07908218248554474
% es.Ez (V/m) @ t=0.5
-0.5273624746976393
% es.tEx (V/m) @ t=0.5
0.5281318892329503
% es.tEy (V/m) @ t=0.5
0
% es.tEz (V/m) @ t=0.5
-0.5273624746976284
% V (V) @ t=0.5
0.008142144762367225
% es.normE (V/m) @ t=0.6
0.7981445831874643
% es.EX (V/m) @ t=0.6
0.5543968099765416
% es.EY (V/m) @ t=0.6
0.08301501615098383
% es.EZ (V/m) @ t=0.6
-0.5535891459599382
% es.tEX (V/m) @ t=0.6
0.5543968099765422
% es.tEY (V/m) @ t=0.6
0
% es.tEZ (V/m) @ t=0.6
-0.5535891459599274
% es.Ex (V/m) @ t=0.6
0.5543968099765416
% es.Ey (V/m) @ t=0.6
0.08301501615098383
% es.Ez (V/m) @ t=0.6
-0.5535891459599382
% es.tEx (V/m) @ t=0.6
0.5543968099765422
% es.tEy (V/m) @ t=0.6
0
% es.tEz (V/m) @ t=0.6
-0.5535891459599274
% V (V) @ t=0.6
0.008547069796648554
% es.normE (V/m) @ t=0.7
0.8359572146908093
% es.EX (V/m) @ t=0.7
0.5806617307201326
% es.EY (V/m) @ t=0.7
0.08694784981643178
% es.EZ (V/m) @ t=0.7
-0.5798158172222398
% es.tEX (V/m) @ t=0.7
0.5806617307201345
% es.tEY (V/m) @ t=0.7
0
% es.tEZ (V/m) @ t=0.7
-0.5798158172222325
% es.Ex (V/m) @ t=0.7
0.5806617307201326
% es.Ey (V/m) @ t=0.7
0.08694784981643178
% es.Ez (V/m) @ t=0.7
-0.5798158172222398
% es.tEx (V/m) @ t=0.7
0.5806617307201345
% es.tEy (V/m) @ t=0.7
0
% es.tEz (V/m) @ t=0.7
-0.5798158172222325
% V (V) @ t=0.7
0.008951994830929882
% es.normE (V/m) @ t=0.8
0.8737698461941532
% es.EX (V/m) @ t=0.8
0.6069266514637273
% es.EY (V/m) @ t=0.8
0.09088068348189018
% es.EZ (V/m) @ t=0.8
-0.6060424884845246
% es.tEX (V/m) @ t=0.8
0.6069266514637288
% es.tEY (V/m) @ t=0.8
0
% es.tEZ (V/m) @ t=0.8
-0.6060424884845101
% es.Ex (V/m) @ t=0.8
0.6069266514637273
% es.Ey (V/m) @ t=0.8
0.09088068348189018
% es.Ez (V/m) @ t=0.8
-0.6060424884845246
% es.tEx (V/m) @ t=0.8
0.6069266514637288
% es.tEy (V/m) @ t=0.8
0
% es.tEz (V/m) @ t=0.8
-0.6060424884845101
% V (V) @ t=0.8
0.009356919865211206
% es.normE (V/m) @ t=0.9
0.9160312848695986
% es.EX (V/m) @ t=0.9
0.6362817418802029
% es.EY (V/m) @ t=0.9
0.09527630547573507
% es.EZ (V/m) @ t=0.9
-0.6353548111617175
% es.tEX (V/m) @ t=0.9
0.6362817418802083
% es.tEY (V/m) @ t=0.9
0
% es.tEZ (V/m) @ t=0.9
-0.6353548111616996
% es.Ex (V/m) @ t=0.9
0.6362817418802029
% es.Ey (V/m) @ t=0.9
0.09527630547573507
% es.Ez (V/m) @ t=0.9
-0.6353548111617175
% es.tEx (V/m) @ t=0.9
0.6362817418802083
% es.tEy (V/m) @ t=0.9
0
% es.tEz (V/m) @ t=0.9
-0.6353548111616996
% V (V) @ t=0.9
0.009809483474062044
% es.normE (V/m) @ t=1
0.9585170599289299
% es.EX (V/m) @ t=1
0.6657926577715039
% es.EY (V/m) @ t=1
0.09969526412052848
% es.EZ (V/m) @ t=1
-0.6648227314752195
% es.tEX (V/m) @ t=1
0.665792657771509
% es.tEY (V/m) @ t=1
0
% es.tEZ (V/m) @ t=1
-0.664822731475212
% es.Ex (V/m) @ t=1
0.6657926577715039
% es.Ey (V/m) @ t=1
0.09969526412052848
% es.Ez (V/m) @ t=1
-0.6648227314752195
% es.tEx (V/m) @ t=1
0.665792657771509
% es.tEy (V/m) @ t=1
0
% es.tEz (V/m) @ t=1
-0.664822731475212
% V (V) @ t=1
0.010264449314598611
% es.normE (V/m) @ t=1.1
1.0016232051914296
% es.EX (V/m) @ t=1.1
0.6957344870199191
% es.EY (V/m) @ t=1.1
0.10417875061232512
% es.EZ (V/m) @ t=1.1
-0.6947209366005345
% es.tEX (V/m) @ t=1.1
0.6957344870199225
% es.tEY (V/m) @ t=1.1
0
% es.tEZ (V/m) @ t=1.1
-0.6947209366005236
% es.Ex (V/m) @ t=1.1
0.6957344870199191
% es.Ey (V/m) @ t=1.1
0.10417875061232512
% es.Ez (V/m) @ t=1.1
-0.6947209366005345
% es.tEx (V/m) @ t=1.1
0.6957344870199225
% es.tEy (V/m) @ t=1.1
0
% es.tEz (V/m) @ t=1.1
-0.6947209366005236
% V (V) @ t=1.1
0.010726058393098295
% es.normE (V/m) @ t=1.2
1.049452194557583
% es.EX (V/m) @ t=1.2
0.7289568358636134
% es.EY (V/m) @ t=1.2
0.1091534840405391
% es.EZ (V/m) @ t=1.2
-0.7278948762405313
% es.tEX (V/m) @ t=1.2
0.7289568358636123
% es.tEY (V/m) @ t=1.2
0
% es.tEZ (V/m) @ t=1.2
-0.7278948762405237
% es.Ex (V/m) @ t=1.2
0.7289568358636134
% es.Ey (V/m) @ t=1.2
0.1091534840405391
% es.Ez (V/m) @ t=1.2
-0.7278948762405313
% es.tEx (V/m) @ t=1.2
0.7289568358636123
% es.tEy (V/m) @ t=1.2
0
% es.tEz (V/m) @ t=1.2
-0.7278948762405237
% V (V) @ t=1.2
0.011238242075411752
% es.normE (V/m) @ t=1.3
1.0972811839237209
% es.EX (V/m) @ t=1.3
0.7621791847072947
% es.EY (V/m) @ t=1.3
0.11412821746872942
% es.EZ (V/m) @ t=1.3
-0.7610688158805066
% es.tEX (V/m) @ t=1.3
0.7621791847072918
% es.tEY (V/m) @ t=1.3
0
% es.tEZ (V/m) @ t=1.3
-0.7610688158804955
% es.Ex (V/m) @ t=1.3
0.7621791847072947
% es.Ey (V/m) @ t=1.3
0.11412821746872942
% es.Ez (V/m) @ t=1.3
-0.7610688158805066
% es.tEx (V/m) @ t=1.3
0.7621791847072918
% es.tEy (V/m) @ t=1.3
0
% es.tEz (V/m) @ t=1.3
-0.7610688158804955
% V (V) @ t=1.3
0.011750425757725206
% es.normE (V/m) @ t=1.4
1.146821559942692
% es.EX (V/m) @ t=1.4
0.7965902749641913
% es.EY (V/m) @ t=1.4
0.11928094569236092
% es.EZ (V/m) @ t=1.4
-0.7954297667170529
% es.tEX (V/m) @ t=1.4
0.7965902749641902
% es.tEY (V/m) @ t=1.4
0
% es.tEZ (V/m) @ t=1.4
-0.7954297667170422
% es.Ex (V/m) @ t=1.4
0.7965902749641913
% es.Ey (V/m) @ t=1.4
0.11928094569236092
% es.Ez (V/m) @ t=1.4
-0.7954297667170529
% es.tEx (V/m) @ t=1.4
0.7965902749641902
% es.tEy (V/m) @ t=1.4
0
% es.tEz (V/m) @ t=1.4
-0.7954297667170422
% V (V) @ t=1.4
0.012280936338394052
% es.normE (V/m) @ t=1.5
1.2007579750956774
% es.EX (V/m) @ t=1.5
0.8340548854551006
% es.EY (V/m) @ t=1.5
0.12489088917184471
% es.EZ (V/m) @ t=1.5
-0.8328397933799319
% es.tEX (V/m) @ t=1.5
0.8340548854551062
% es.tEY (V/m) @ t=1.5
0
% es.tEZ (V/m) @ t=1.5
-0.8328397933799172
% es.Ex (V/m) @ t=1.5
0.8340548854551006
% es.Ey (V/m) @ t=1.5
0.12489088917184471
% es.Ez (V/m) @ t=1.5
-0.8328397933799319
% es.tEx (V/m) @ t=1.5
0.8340548854551062
% es.tEy (V/m) @ t=1.5
0
% es.tEz (V/m) @ t=1.5
-0.8328397933799172
% V (V) @ t=1.5
0.012858523225426882
% es.normE (V/m) @ t=1.6
1.2546943902486598
% es.EX (V/m) @ t=1.6
0.8715194959460255
% es.EY (V/m) @ t=1.6
0.1305008326513511
% es.EZ (V/m) @ t=1.6
-0.8702498200427926
% es.tEX (V/m) @ t=1.6
0.8715194959460373
% es.tEY (V/m) @ t=1.6
0
% es.tEZ (V/m) @ t=1.6
-0.870249820042778
% es.Ex (V/m) @ t=1.6
0.8715194959460255
% es.Ey (V/m) @ t=1.6
0.1305008326513511
% es.Ez (V/m) @ t=1.6
-0.8702498200427926
% es.tEx (V/m) @ t=1.6
0.8715194959460373
% es.tEy (V/m) @ t=1.6
0
% es.tEz (V/m) @ t=1.6
-0.870249820042778
% V (V) @ t=1.6
0.013436110112459711
% es.normE (V/m) @ t=1.7
1.3100915366038361
% es.EX (V/m) @ t=1.7
0.909998740753563
% es.EY (V/m) @ t=1.7
0.13626270213444808
% es.EZ (V/m) @ t=1.7
-0.9086730039685804
% es.tEX (V/m) @ t=1.7
0.9099987407535659
% es.tEY (V/m) @ t=1.7
0
% es.tEZ (V/m) @ t=1.7
-0.9086730039685627
% es.Ex (V/m) @ t=1.7
0.909998740753563
% es.Ey (V/m) @ t=1.7
0.13626270213444808
% es.Ez (V/m) @ t=1.7
-0.9086730039685804
% es.tEx (V/m) @ t=1.7
0.9099987407535659
% es.tEy (V/m) @ t=1.7
0
% es.tEz (V/m) @ t=1.7
-0.9086730039685627
% V (V) @ t=1.7
0.014029339648818622
% es.normE (V/m) @ t=1.8
1.3687630374650603
% es.EX (V/m) @ t=1.8
0.9507523755663454
% es.EY (V/m) @ t=1.8
0.1423651268092438
% es.EZ (V/m) @ t=1.8
-0.949367266956838
% es.tEX (V/m) @ t=1.8
0.9507523755663501
% es.tEY (V/m) @ t=1.8
0
% es.tEZ (V/m) @ t=1.8
-0.9493672669568198
% es.Ex (V/m) @ t=1.8
0.9507523755663454
% es.Ey (V/m) @ t=1.8
0.1423651268092438
% es.Ez (V/m) @ t=1.8
-0.949367266956838
% es.tEx (V/m) @ t=1.8
0.9507523755663501
% es.tEy (V/m) @ t=1.8
0
% es.tEz (V/m) @ t=1.8
-0.9493672669568198
% V (V) @ t=1.8
0.014657633527768953
% es.normE (V/m) @ t=1.9
1.4294390034398292
% es.EX (V/m) @ t=1.9
0.9928983261505764
% es.EY (V/m) @ t=1.9
0.14867602952135295
% es.EZ (V/m) @ t=1.9
-0.9914518188531578
% es.tEX (V/m) @ t=1.9
0.9928983261505802
% es.tEY (V/m) @ t=1.9
0
% es.tEZ (V/m) @ t=1.9
-0.9914518188531396
% es.Ex (V/m) @ t=1.9
0.9928983261505764
% es.Ey (V/m) @ t=1.9
0.14867602952135295
% es.Ez (V/m) @ t=1.9
-0.9914518188531578
% es.tEx (V/m) @ t=1.9
0.9928983261505802
% es.tEy (V/m) @ t=1.9
0
% es.tEz (V/m) @ t=1.9
-0.9914518188531396
% V (V) @ t=1.9
0.015307392782971035
% es.normE (V/m) @ t=2
1.4921194345281639
% es.EX (V/m) @ t=2
1.0364365925062609
% es.EY (V/m) @ t=2
0.15519541027079536
% es.EZ (V/m) @ t=2
-1.0349266596575721
% es.tEX (V/m) @ t=2
1.0364365925062664
% es.tEY (V/m) @ t=2
0
% es.tEZ (V/m) @ t=2
-1.0349266596575575
% es.Ex (V/m) @ t=2
1.0364365925062609
% es.Ey (V/m) @ t=2
0.15519541027079536
% es.Ez (V/m) @ t=2
-1.0349266596575721
% es.tEx (V/m) @ t=2
1.0364365925062664
% es.tEy (V/m) @ t=2
0
% es.tEz (V/m) @ t=2
-1.0349266596575575
% V (V) @ t=2
0.01597861741442486
% es.normE (V/m) @ t=2.1
1.5568043307300052
% es.EX (V/m) @ t=2.1
1.08136717463341
% es.EY (V/m) @ t=2.1
0.16192326905757876
% es.EZ (V/m) @ t=2.1
-1.0797917893699798
% es.tEX (V/m) @ t=2.1
1.0813671746334146
% es.tEY (V/m) @ t=2.1
0
% es.tEZ (V/m) @ t=2.1
-1.079791789369958
% es.Ex (V/m) @ t=2.1
1.08136717463341
% es.Ey (V/m) @ t=2.1
0.16192326905757876
% es.Ez (V/m) @ t=2.1
-1.0797917893699798
% es.tEx (V/m) @ t=2.1
1.0813671746334146
% es.tEy (V/m) @ t=2.1
0
% es.tEz (V/m) @ t=2.1
-1.079791789369958
% V (V) @ t=2.1
0.016671307422130438
% es.normE (V/m) @ t=2.2
1.6234936920454373
% es.EX (V/m) @ t=2.2
1.1276900725320071
% es.EY (V/m) @ t=2.2
0.16885960588168158
% es.EZ (V/m) @ t=2.2
-1.1260472079905202
% es.tEX (V/m) @ t=2.2
1.1276900725320114
% es.tEY (V/m) @ t=2.2
0
% es.tEZ (V/m) @ t=2.2
-1.1260472079904913
% es.Ex (V/m) @ t=2.2
1.1276900725320071
% es.Ey (V/m) @ t=2.2
0.16885960588168158
% es.Ez (V/m) @ t=2.2
-1.1260472079905202
% es.tEx (V/m) @ t=2.2
1.1276900725320114
% es.tEy (V/m) @ t=2.2
0
% es.tEz (V/m) @ t=2.2
-1.1260472079904913
% V (V) @ t=2.2
0.01738546280608776
% es.normE (V/m) @ t=2.3
1.6940693859371179
% es.EX (V/m) @ t=2.3
1.1767124473502162
% es.EY (V/m) @ t=2.3
0.17620005177973697
% es.EZ (V/m) @ t=2.3
-1.1749982007373716
% es.tEX (V/m) @ t=2.3
1.1767124473502202
% es.tEY (V/m) @ t=2.3
0
% es.tEZ (V/m) @ t=2.3
-1.174998200737357
% es.Ex (V/m) @ t=2.3
1.1767124473502162
% es.Ey (V/m) @ t=2.3
0.17620005177973697
% es.Ez (V/m) @ t=2.3
-1.1749982007373716
% es.tEx (V/m) @ t=2.3
1.1767124473502202
% es.tEy (V/m) @ t=2.3
0
% es.tEz (V/m) @ t=2.3
-1.174998200737357
% V (V) @ t=2.3
0.01814123903328501
% es.normE (V/m) @ t=2.4
1.7678736319034045
% es.EX (V/m) @ t=2.4
1.2279773991559884
% es.EY (V/m) @ t=2.4
0.18387622665384634
% es.EZ (V/m) @ t=2.4
-1.2261885233836156
% es.tEX (V/m) @ t=2.4
1.2279773991560026
% es.tEY (V/m) @ t=2.4
0
% es.tEZ (V/m) @ t=2.4
-1.2261885233835867
% es.Ex (V/m) @ t=2.4
1.2279773991559884
% es.Ey (V/m) @ t=2.4
0.18387622665384634
% es.Ez (V/m) @ t=2.4
-1.2261885233836156
% es.tEx (V/m) @ t=2.4
1.2279773991560026
% es.tEy (V/m) @ t=2.4
0
% es.tEz (V/m) @ t=2.4
-1.2261885233835867
% V (V) @ t=2.4
0.018931591041596738
% es.normE (V/m) @ t=2.5
1.84443833777982
% es.EX (V/m) @ t=2.5
1.2811597871499276
% es.EY (V/m) @ t=2.5
0.1918394696088046
% es.EZ (V/m) @ t=2.5
-1.2792935017451246
% es.tEX (V/m) @ t=2.5
1.2811597871499343
% es.tEY (V/m) @ t=2.5
0
% es.tEZ (V/m) @ t=2.5
-1.2792935017451095
% es.Ex (V/m) @ t=2.5
1.2811597871499276
% es.Ey (V/m) @ t=2.5
0.1918394696088046
% es.Ez (V/m) @ t=2.5
-1.2792935017451246
% es.tEx (V/m) @ t=2.5
1.2811597871499343
% es.tEy (V/m) @ t=2.5
0
% es.tEz (V/m) @ t=2.5
-1.2792935017451095
% V (V) @ t=2.5
0.0197515053981661
% es.normE (V/m) @ t=2.6
1.9237635035663567
% es.EX (V/m) @ t=2.6
1.336259611332022
% es.EY (V/m) @ t=2.6
0.20008978064453808
% es.EZ (V/m) @ t=2.6
-1.3343131358218856
% es.tEX (V/m) @ t=2.6
1.3362596113320322
% es.tEY (V/m) @ t=2.6
0
% es.tEZ (V/m) @ t=2.6
-1.334313135821871
% es.Ex (V/m) @ t=2.6
1.336259611332022
% es.Ey (V/m) @ t=2.6
0.20008978064453808
% es.Ez (V/m) @ t=2.6
-1.3343131358218856
% es.tEx (V/m) @ t=2.6
1.3362596113320322
% es.tEy (V/m) @ t=2.6
0
% es.tEz (V/m) @ t=2.6
-1.334313135821871
% V (V) @ t=2.6
0.02060098210299309
% es.normE (V/m) @ t=2.7
2.0058491292630816
% es.EX (V/m) @ t=2.7
1.3932768717022879
% es.EY (V/m) @ t=2.7
0.20862715976110002
% es.EZ (V/m) @ t=2.7
-1.3912474256139058
% es.tEX (V/m) @ t=2.7
1.3932768717022945
% es.tEY (V/m) @ t=2.7
0
% es.tEZ (V/m) @ t=2.7
-1.3912474256138694
% es.Ex (V/m) @ t=2.7
1.3932768717022879
% es.Ey (V/m) @ t=2.7
0.20862715976110002
% es.Ez (V/m) @ t=2.7
-1.3912474256139058
% es.tEx (V/m) @ t=2.7
1.3932768717022945
% es.tEy (V/m) @ t=2.7
0
% es.tEz (V/m) @ t=2.7
-1.3912474256138694
% V (V) @ t=2.7
0.021480021156077715
% es.normE (V/m) @ t=2.8
2.0908570236992823
% es.EX (V/m) @ t=2.8
1.452323962057847
% es.EY (V/m) @ t=2.8
0.21746844272483135
% es.EZ (V/m) @ t=2.8
-1.4502085984358501
% es.tEX (V/m) @ t=2.8
1.4523239620578554
% es.tEY (V/m) @ t=2.8
0
% es.tEZ (V/m) @ t=2.8
-1.4502085984358217
% es.Ex (V/m) @ t=2.8
1.452323962057847
% es.Ey (V/m) @ t=2.8
0.21746844272483135
% es.Ez (V/m) @ t=2.8
-1.4502085984358501
% es.tEx (V/m) @ t=2.8
1.4523239620578554
% es.tEy (V/m) @ t=2.8
0
% es.tEz (V/m) @ t=2.8
-1.4502085984358217
% V (V) @ t=2.8
0.022390355187956776
% es.normE (V/m) @ t=2.9
2.1803756229034628
% es.EX (V/m) @ t=2.9
1.5145042236536876
% es.EY (V/m) @ t=2.9
0.22677890196120376
% es.EZ (V/m) @ t=2.9
-1.512298361226481
% es.tEX (V/m) @ t=2.9
1.5145042236536925
% es.tEY (V/m) @ t=2.9
0
% es.tEZ (V/m) @ t=2.9
-1.5122983612264669
% es.Ex (V/m) @ t=2.9
1.5145042236536876
% es.Ey (V/m) @ t=2.9
0.22677890196120376
% es.Ez (V/m) @ t=2.9
-1.512298361226481
% es.tEx (V/m) @ t=2.9
1.5145042236536925
% es.tEy (V/m) @ t=2.9
0
% es.tEz (V/m) @ t=2.9
-1.5122983612264669
% V (V) @ t=2.9
0.023348992990920626
% es.normE (V/m) @ t=3
2.2732110528866807
% es.EX (V/m) @ t=3
1.578988381403129
% es.EY (V/m) @ t=3
0.23643431814609173
% es.EZ (V/m) @ t=3
-1.5766886672567795
% es.tEX (V/m) @ t=3
1.5789883814031258
% es.tEY (V/m) @ t=3
0
% es.tEZ (V/m) @ t=3
-1.576688667256743
% es.Ex (V/m) @ t=3
1.578988381403129
% es.Ey (V/m) @ t=3
0.23643431814609173
% es.Ez (V/m) @ t=3
-1.5766886672567795
% es.tEx (V/m) @ t=3
1.5789883814031258
% es.tEy (V/m) @ t=3
0
% es.tEz (V/m) @ t=3
-1.576688667256743
% V (V) @ t=3
0.024343150698112857
% es.normE (V/m) @ t=3.1
2.369363313649007
% es.EX (V/m) @ t=3.1
1.6457764353061735
% es.EY (V/m) @ t=3.1
0.24643469127946926
% es.EZ (V/m) @ t=3.1
-1.6433795165268412
% es.tEX (V/m) @ t=3.1
1.6457764353061926
% es.tEY (V/m) @ t=3.1
0
% es.tEZ (V/m) @ t=3.1
-1.643379516526819
% es.Ex (V/m) @ t=3.1
1.6457764353061735
% es.Ey (V/m) @ t=3.1
0.24643469127946926
% es.Ez (V/m) @ t=3.1
-1.6433795165268412
% es.tEx (V/m) @ t=3.1
1.6457764353061926
% es.tEy (V/m) @ t=3.1
0
% es.tEz (V/m) @ t=3.1
-1.643379516526819
% V (V) @ t=3.1
0.025372828309533475
% es.normE (V/m) @ t=3.2
2.468832405190426
% es.EX (V/m) @ t=3.2
1.7148683853628581
% es.EY (V/m) @ t=3.2
0.25678002136132116
% es.EZ (V/m) @ t=3.2
-1.7123709090365749
% es.tEX (V/m) @ t=3.2
1.714868385362867
% es.tEY (V/m) @ t=3.2
0
% es.tEZ (V/m) @ t=3.2
-1.7123709090365526
% es.Ex (V/m) @ t=3.2
1.7148683853628581
% es.Ey (V/m) @ t=3.2
0.25678002136132116
% es.Ez (V/m) @ t=3.2
-1.7123709090365749
% es.tEx (V/m) @ t=3.2
1.714868385362867
% es.tEy (V/m) @ t=3.2
0
% es.tEz (V/m) @ t=3.2
-1.7123709090365526
% V (V) @ t=3.2
0.02643802582518248
% es.normE (V/m) @ t=3.3
2.5716183275109255
% es.EX (V/m) @ t=3.3
1.7862642315731487
% es.EY (V/m) @ t=3.3
0.26747030839169095
% es.EZ (V/m) @ t=3.3
-1.7836628447860354
% es.tEX (V/m) @ t=3.3
1.78626423157315
% es.tEY (V/m) @ t=3.3
0
% es.tEZ (V/m) @ t=3.3
-1.783662844785999
% es.Ex (V/m) @ t=3.3
1.7862642315731487
% es.Ey (V/m) @ t=3.3
0.26747030839169095
% es.Ez (V/m) @ t=3.3
-1.7836628447860354
% es.tEx (V/m) @ t=3.3
1.78626423157315
% es.tEy (V/m) @ t=3.3
0
% es.tEz (V/m) @ t=3.3
-1.783662844785999
% V (V) @ t=3.3
0.027538743245059862
% es.normE (V/m) @ t=3.4
2.677886240738848
% es.EX (V/m) @ t=3.4
1.8600786689978208
% es.EY (V/m) @ t=3.4
0.2785232924846637
% es.EZ (V/m) @ t=3.4
-1.8573697221798637
% es.tEX (V/m) @ t=3.4
1.860078668997823
% es.tEY (V/m) @ t=3.4
0
% es.tEZ (V/m) @ t=3.4
-1.8573697221798344
% es.Ex (V/m) @ t=3.4
1.8600786689978208
% es.Ey (V/m) @ t=3.4
0.2785232924846637
% es.Ez (V/m) @ t=3.4
-1.8573697221798637
% es.tEx (V/m) @ t=3.4
1.860078668997823
% es.tEy (V/m) @ t=3.4
0
% es.tEz (V/m) @ t=3.4
-1.8573697221798344
% V (V) @ t=3.4
0.028676730282088572
% es.normE (V/m) @ t=3.5
2.7877810086708004
% es.EX (V/m) @ t=3.5
1.9364122979576526
% es.EY (V/m) @ t=3.5
0.2899545336927827
% es.EZ (V/m) @ t=3.5
-1.9335918813385042
% es.tEX (V/m) @ t=3.5
1.9364122979576637
% es.tEY (V/m) @ t=3.5
0
% es.tEZ (V/m) @ t=3.5
-1.9335918813384687
% es.Ex (V/m) @ t=3.5
1.9364122979576526
% es.Ey (V/m) @ t=3.5
0.2899545336927827
% es.Ez (V/m) @ t=3.5
-1.9335918813385042
% es.tEx (V/m) @ t=3.5
1.9364122979576637
% es.tEy (V/m) @ t=3.5
0
% es.tEz (V/m) @ t=3.5
-1.9335918813384687
% V (V) @ t=3.5
0.029853521629045025
% es.normE (V/m) @ t=3.6
2.9011188225560147
% es.EX (V/m) @ t=3.6
2.0151374728995024
% es.EY (V/m) @ t=3.6
0.3017442888234262
% es.EZ (V/m) @ t=3.6
-2.012202006861018
% es.tEX (V/m) @ t=3.6
2.0151374728995144
% es.tEY (V/m) @ t=3.6
0
% es.tEZ (V/m) @ t=3.6
-2.0122020068609956
% es.Ex (V/m) @ t=3.6
2.0151374728995024
% es.Ey (V/m) @ t=3.6
0.3017442888234262
% es.Ez (V/m) @ t=3.6
-2.012202006861018
% es.tEx (V/m) @ t=3.6
2.0151374728995144
% es.tEy (V/m) @ t=3.6
0
% es.tEz (V/m) @ t=3.6
-2.0122020068609956
% V (V) @ t=3.6
0.031067170008755068
% es.normE (V/m) @ t=3.7
3.0178996823954005
% es.EX (V/m) @ t=3.7
2.0962541938233996
% es.EY (V/m) @ t=3.7
0.3138925578765517
% es.EZ (V/m) @ t=3.7
-2.093200098747407
% es.tEX (V/m) @ t=3.7
2.096254193823402
% es.tEY (V/m) @ t=3.7
0
% es.tEZ (V/m) @ t=3.7
-2.0932000987473636
% es.Ex (V/m) @ t=3.7
2.0962541938233996
% es.Ey (V/m) @ t=3.7
0.3138925578765517
% es.Ez (V/m) @ t=3.7
-2.093200098747407
% es.tEx (V/m) @ t=3.7
2.096254193823402
% es.tEy (V/m) @ t=3.7
0
% es.tEz (V/m) @ t=3.7
-2.0932000987473636
% V (V) @ t=3.7
0.03231767542121869
% es.normE (V/m) @ t=3.8
3.1381235881899725
% es.EX (V/m) @ t=3.8
2.179762460729292
% es.EY (V/m) @ t=3.8
0.32639934085219824
% es.EZ (V/m) @ t=3.8
-2.176586156997705
% es.tEX (V/m) @ t=3.8
2.1797624607293162
% es.tEY (V/m) @ t=3.8
0
% es.tEZ (V/m) @ t=3.8
-2.1765861569976614
% es.Ex (V/m) @ t=3.8
2.179762460729292
% es.Ey (V/m) @ t=3.8
0.32639934085219824
% es.Ez (V/m) @ t=3.8
-2.176586156997705
% es.tEx (V/m) @ t=3.8
2.1797624607293162
% es.tEy (V/m) @ t=3.8
0
% es.tEz (V/m) @ t=3.8
-2.1765861569976614
% V (V) @ t=3.8
0.0336050378664359
% es.normE (V/m) @ t=3.9
3.261790539940834
% es.EX (V/m) @ t=3.9
2.2656622736172385
% es.EY (V/m) @ t=3.9
0.33926463775038684
% es.EZ (V/m) @ t=3.9
-2.262360181611883
% es.tEX (V/m) @ t=3.9
2.265662273617254
% es.tEY (V/m) @ t=3.9
0
% es.tEZ (V/m) @ t=3.9
-2.2623601816118395
% es.Ex (V/m) @ t=3.9
2.2656622736172385
% es.Ey (V/m) @ t=3.9
0.33926463775038684
% es.Ez (V/m) @ t=3.9
-2.262360181611883
% es.tEx (V/m) @ t=3.9
2.265662273617254
% es.tEy (V/m) @ t=3.9
0
% es.tEz (V/m) @ t=3.9
-2.2623601816118395
% V (V) @ t=3.9
0.034929257344406675
% es.normE (V/m) @ t=4
3.3877863214985453
% es.EX (V/m) @ t=4
2.3531797555690996
% es.EY (V/m) @ t=4
0.3523710536815525
% es.EZ (V/m) @ t=4
-2.349749783187181
% es.tEX (V/m) @ t=4
2.3531797555691085
% es.tEY (V/m) @ t=4
0
% es.tEZ (V/m) @ t=4
-2.3497497831871232
% es.Ex (V/m) @ t=4
2.3531797555690996
% es.Ey (V/m) @ t=4
0.3523710536815525
% es.Ez (V/m) @ t=4
-2.349749783187181
% es.tEx (V/m) @ t=4
2.3531797555691085
% es.tEy (V/m) @ t=4
0
% es.tEz (V/m) @ t=4
-2.3497497831871232
% V (V) @ t=4
0.036278452050835804
% es.normE (V/m) @ t=4.1
3.5162187597417454
% es.EX (V/m) @ t=4.1
2.442389797560267
% es.EY (V/m) @ t=4.1
0.36572994938993764
% es.EZ (V/m) @ t=4.1
-2.4388297087465967
% es.tEX (V/m) @ t=4.1
2.442389797560274
% es.tEY (V/m) @ t=4.1
0
% es.tEZ (V/m) @ t=4.1
-2.4388297087465247
% es.Ex (V/m) @ t=4.1
2.442389797560267
% es.Ey (V/m) @ t=4.1
0.36572994938993764
% es.Ez (V/m) @ t=4.1
-2.4388297087465967
% es.tEx (V/m) @ t=4.1
2.442389797560274
% es.tEy (V/m) @ t=4.1
0
% es.tEz (V/m) @ t=4.1
-2.4388297087465247
% V (V) @ t=4.1
0.03765377183254304
% es.normE (V/m) @ t=4.2
3.6472511357295705
% es.EX (V/m) @ t=4.2
2.5334058061710287
% es.EY (V/m) @ t=4.2
0.3793585283258323
% es.EZ (V/m) @ t=4.2
-2.529713146884725
% es.tEX (V/m) @ t=4.2
2.533405806171027
% es.tEY (V/m) @ t=4.2
0
% es.tEZ (V/m) @ t=4.2
-2.5297131468846814
% es.Ex (V/m) @ t=4.2
2.5334058061710287
% es.Ey (V/m) @ t=4.2
0.3793585283258323
% es.Ez (V/m) @ t=4.2
-2.529713146884725
% es.tEx (V/m) @ t=4.2
2.533405806171027
% es.tEy (V/m) @ t=4.2
0
% es.tEz (V/m) @ t=4.2
-2.5297131468846814
% V (V) @ t=4.2
0.0390569578899199
% es.normE (V/m) @ t=4.3
3.7807699604055074
% es.EX (V/m) @ t=4.3
2.6261489577712807
% es.EY (V/m) @ t=4.3
0.39324483317236725
% es.EZ (V/m) @ t=4.3
-2.622321425483146
% es.tEX (V/m) @ t=4.3
2.626148957771278
% es.tEY (V/m) @ t=4.3
0
% es.tEZ (V/m) @ t=4.3
-2.6223214254831024
% es.Ex (V/m) @ t=4.3
2.6261489577712807
% es.Ey (V/m) @ t=4.3
0.39324483317236725
% es.Ez (V/m) @ t=4.3
-2.622321425483146
% es.tEx (V/m) @ t=4.3
2.626148957771278
% es.tEy (V/m) @ t=4.3
0
% es.tEz (V/m) @ t=4.3
-2.6223214254831024
% V (V) @ t=4.3
0.040486799995700325
% es.normE (V/m) @ t=4.4
3.9166617447141103
% es.EX (V/m) @ t=4.4
2.7205404287308923
% es.EY (V/m) @ t=4.4
0.4073769066130699
% es.EZ (V/m) @ t=4.4
-2.716575872423336
% es.tEX (V/m) @ t=4.4
2.7205404287308905
% es.tEY (V/m) @ t=4.4
0
% es.tEZ (V/m) @ t=4.4
-2.7165758724232916
% es.Ex (V/m) @ t=4.4
2.7205404287308923
% es.Ey (V/m) @ t=4.4
0.4073769066130699
% es.Ez (V/m) @ t=4.4
-2.716575872423336
% es.tEx (V/m) @ t=4.4
2.7205404287308905
% es.tEy (V/m) @ t=4.4
0
% es.tEz (V/m) @ t=4.4
-2.7165758724232916
% V (V) @ t=4.4
0.04194208792261826
% es.normE (V/m) @ t=4.5
4.054604301005096
% es.EX (V/m) @ t=4.5
2.8163564154797767
% es.EY (V/m) @ t=4.5
0.421721465703381
% es.EZ (V/m) @ t=4.5
-2.812252955328079
% es.tEX (V/m) @ t=4.5
2.81635641547979
% es.tEY (V/m) @ t=4.5
0
% es.tEZ (V/m) @ t=4.5
-2.8122529553280486
% es.Ex (V/m) @ t=4.5
2.8163564154797767
% es.Ey (V/m) @ t=4.5
0.421721465703381
% es.Ez (V/m) @ t=4.5
-2.812252955328079
% es.tEx (V/m) @ t=4.5
2.81635641547979
% es.tEy (V/m) @ t=4.5
0
% es.tEz (V/m) @ t=4.5
-2.8122529553280486
% V (V) @ t=4.5
0.043419363920252904
% es.normE (V/m) @ t=4.6
4.1917254258816605
% es.EX (V/m) @ t=4.6
2.911601654860516
% es.EY (V/m) @ t=4.6
0.4359846570496999
% es.EZ (V/m) @ t=4.6
-2.907359144575347
% es.tEX (V/m) @ t=4.6
2.91160165486054
% es.tEY (V/m) @ t=4.6
0
% es.tEZ (V/m) @ t=4.6
-2.907359144575288
% es.Ex (V/m) @ t=4.6
2.911601654860516
% es.Ey (V/m) @ t=4.6
0.4359846570496999
% es.Ez (V/m) @ t=4.6
-2.907359144575347
% es.tEx (V/m) @ t=4.6
2.91160165486054
% es.tEy (V/m) @ t=4.6
0
% es.tEz (V/m) @ t=4.6
-2.907359144575288
% V (V) @ t=4.6
0.04488770853250859
% es.normE (V/m) @ t=4.7
4.3293736443785376
% es.EX (V/m) @ t=4.7
3.007212963591651
% es.EY (V/m) @ t=4.7
0.4503039175770922
% es.EZ (V/m) @ t=4.7
-3.0028305699825903
% es.tEX (V/m) @ t=4.7
3.007212963591675
% es.tEY (V/m) @ t=4.7
0
% es.tEZ (V/m) @ t=4.7
-3.0028305699825175
% es.Ex (V/m) @ t=4.7
3.007212963591651
% es.Ey (V/m) @ t=4.7
0.4503039175770922
% es.Ez (V/m) @ t=4.7
-3.0028305699825903
% es.tEx (V/m) @ t=4.7
3.007212963591675
% es.tEy (V/m) @ t=4.7
0
% es.tEz (V/m) @ t=4.7
-3.0028305699825175
% V (V) @ t=4.7
0.04636165629792035
% es.normE (V/m) @ t=4.8
4.467212683092987
% es.EX (V/m) @ t=4.8
3.102956752930891
% es.EY (V/m) @ t=4.8
0.46464452500413933
% es.EZ (V/m) @ t=4.8
-3.0984339220781827
% es.tEX (V/m) @ t=4.8
3.1029567529308864
% es.tEY (V/m) @ t=4.8
0
% es.tEZ (V/m) @ t=4.8
-3.09843392207814
% es.Ex (V/m) @ t=4.8
3.102956752930891
% es.Ey (V/m) @ t=4.8
0.46464452500413933
% es.Ez (V/m) @ t=4.8
-3.0984339220781827
% es.tEx (V/m) @ t=4.8
3.1029567529308864
% es.tEy (V/m) @ t=4.8
0
% es.tEz (V/m) @ t=4.8
-3.09843392207814
% V (V) @ t=4.8
0.04783759777334724
% es.normE (V/m) @ t=4.9
4.604906268624681
% es.EX (V/m) @ t=4.9
3.1985994341356117
% es.EY (V/m) @ t=4.9
0.47897175704982997
% es.EZ (V/m) @ t=4.9
-3.193935891389783
% es.tEX (V/m) @ t=4.9
3.198599434135607
% es.tEY (V/m) @ t=4.9
0
% es.tEZ (V/m) @ t=4.9
-3.1939358913897387
% es.Ex (V/m) @ t=4.9
3.1985994341356117
% es.Ey (V/m) @ t=4.9
0.47897175704982997
% es.Ez (V/m) @ t=4.9
-3.193935891389783
% es.tEx (V/m) @ t=4.9
3.198599434135607
% es.tEy (V/m) @ t=4.9
0
% es.tEz (V/m) @ t=4.9
-3.1939358913897387
% V (V) @ t=4.9
0.049311923515648295
% es.normE (V/m) @ t=5
4.742118127577839
% es.EX (V/m) @ t=5
3.2939074184635047
% es.EY (V/m) @ t=5
0.49325089143290723
% es.EZ (V/m) @ t=5
-3.289103168445509
% es.tEX (V/m) @ t=5
3.29390741846351
% es.tEY (V/m) @ t=5
0
% es.tEZ (V/m) @ t=5
-3.289103168445493
% es.Ex (V/m) @ t=5
3.2939074184635047
% es.Ey (V/m) @ t=5
0.49325089143290723
% es.Ez (V/m) @ t=5
-3.289103168445509
% es.tEx (V/m) @ t=5
3.29390741846351
% es.tEy (V/m) @ t=5
0
% es.tEz (V/m) @ t=5
-3.289103168445493
% V (V) @ t=5
0.050781024081682585
% es.normE (V/m) @ t=5.1
4.8775892972949775
% es.EX (V/m) @ t=5.1
3.388006361083529
% es.EY (V/m) @ t=5.1
0.5073477391784349
% es.EZ (V/m) @ t=5.1
-3.383063462856068
% es.tEX (V/m) @ t=5.1
3.388006361083521
% es.tEY (V/m) @ t=5.1
0
% es.tEZ (V/m) @ t=5.1
-3.3830634628560254
% es.Ex (V/m) @ t=5.1
3.388006361083529
% es.Ey (V/m) @ t=5.1
0.5073477391784349
% es.Ez (V/m) @ t=5.1
-3.383063462856068
% es.tEx (V/m) @ t=5.1
3.388006361083521
% es.tEy (V/m) @ t=5.1
0
% es.tEz (V/m) @ t=5.1
-3.3830634628560254
% V (V) @ t=5.1
0.05223152528731184
% es.normE (V/m) @ t=5.2
5.0097677724298
% es.EX (V/m) @ t=5.2
3.4798184154231793
% es.EY (V/m) @ t=5.2
0.521096521061102
% es.EZ (V/m) @ t=5.2
-3.4747415462777855
% es.tEX (V/m) @ t=5.2
3.479818415423198
% es.tEY (V/m) @ t=5.2
0
% es.tEZ (V/m) @ t=5.2
-3.474741546277741
% es.Ex (V/m) @ t=5.2
3.4798184154231793
% es.Ey (V/m) @ t=5.2
0.521096521061102
% es.Ez (V/m) @ t=5.2
-3.4747415462777855
% es.tEx (V/m) @ t=5.2
3.479818415423198
% es.tEy (V/m) @ t=5.2
0
% es.tEz (V/m) @ t=5.2
-3.474741546277741
% V (V) @ t=5.2
0.0536469517031085
% es.normE (V/m) @ t=5.3
5.139130278742343
% es.EX (V/m) @ t=5.3
3.5696745751921766
% es.EY (V/m) @ t=5.3
0.5345501568069997
% es.EZ (V/m) @ t=5.3
-3.5644671275539697
% es.tEX (V/m) @ t=5.3
3.569674575192167
% es.tEY (V/m) @ t=5.3
0
% es.tEZ (V/m) @ t=5.3
-3.5644671275539253
% es.Ex (V/m) @ t=5.3
3.5696745751921766
% es.Ey (V/m) @ t=5.3
0.5345501568069997
% es.Ez (V/m) @ t=5.3