% Model:              1x1--2 - Copy1.mph
% Version:            COMSOL 6.1.0.252
% Date:               Apr 3 2023, 15:19
% Dimension:          0
% Nodes:              14017
% Expressions:        14017
% Description:        Electric field norm, Electric field, X component, Electric field, Y component, Electric field, Z component, Tangential electric field, X component, Tangential electric field, Y component, Tangential electric field, Z component, Electric field, x component, Electric field, y component, Electric field, z component, Tangential electric field, x component, Tangential electric field, y component, Tangential electric field, z component, Electric potential
% Length unit:        mm
% x
1.33
% y
12.2
% z
2
% es.normE (V/m) @ t=0
1.3075318300907024
% es.EX (V/m) @ t=0
0.5211015243819348
% es.EY (V/m) @ t=0
0.13776985416912257
% es.EZ (V/m) @ t=0
-1.1902075300439945
% es.tEX (V/m) @ t=0
0.521101524381935
% es.tEY (V/m) @ t=0
0
% es.tEZ (V/m) @ t=0
-1.1902075300439972
% es.Ex (V/m) @ t=0
0.5211015243819348
% es.Ey (V/m) @ t=0
0.13776985416912257
% es.Ez (V/m) @ t=0
-1.1902075300439945
% es.tEx (V/m) @ t=0
0.521101524381935
% es.tEy (V/m) @ t=0
0
% es.tEz (V/m) @ t=0
-1.1902075300439972
% V (V) @ t=0
0.006537770033236531
% es.normE (V/m) @ t=0.1
1.3289676298242283
% es.EX (V/m) @ t=0.1
0.5296445176084517
% es.EY (V/m) @ t=0.1
0.1400284705393
% es.EZ (V/m) @ t=0.1
-1.2097199013562667
% es.tEX (V/m) @ t=0.1
0.5296445176084519
% es.tEY (V/m) @ t=0.1
0
% es.tEZ (V/m) @ t=0.1
-1.209719901356273
% es.Ex (V/m) @ t=0.1
0.5296445176084517
% es.Ey (V/m) @ t=0.1
0.1400284705393
% es.Ez (V/m) @ t=0.1
-1.2097199013562667
% es.tEx (V/m) @ t=0.1
0.5296445176084519
% es.tEy (V/m) @ t=0.1
0
% es.tEz (V/m) @ t=0.1
-1.209719901356273
% V (V) @ t=0.1
0.0066449506495311434
% es.normE (V/m) @ t=0.2
1.3920644254903702
% es.EX (V/m) @ t=0.2
0.5547910505310882
% es.EY (V/m) @ t=0.2
0.1466767823949322
% es.EZ (V/m) @ t=0.2
-1.2671550265643292
% es.tEX (V/m) @ t=0.2
0.5547910505310885
% es.tEY (V/m) @ t=0.2
0
% es.tEZ (V/m) @ t=0.2
-1.2671550265643319
% es.Ex (V/m) @ t=0.2
0.5547910505310882
% es.Ey (V/m) @ t=0.2
0.1466767823949322
% es.Ez (V/m) @ t=0.2
-1.2671550265643292
% es.tEx (V/m) @ t=0.2
0.5547910505310885
% es.tEy (V/m) @ t=0.2
0
% es.tEz (V/m) @ t=0.2
-1.2671550265643319
% V (V) @ t=0.2
0.00696043851336745
% es.normE (V/m) @ t=0.3
1.4575487635315147
% es.EX (V/m) @ t=0.3
0.5808892259960101
% es.EY (V/m) @ t=0.3
0.15357674954554845
% es.EZ (V/m) @ t=0.3
-1.3267634052278874
% es.tEX (V/m) @ t=0.3
0.5808892259960103
% es.tEY (V/m) @ t=0.3
0
% es.tEZ (V/m) @ t=0.3
-1.3267634052278918
% es.Ex (V/m) @ t=0.3
0.5808892259960101
% es.Ey (V/m) @ t=0.3
0.15357674954554845
% es.Ez (V/m) @ t=0.3
-1.3267634052278874
% es.tEx (V/m) @ t=0.3
0.5808892259960103
% es.tEy (V/m) @ t=0.3
0
% es.tEz (V/m) @ t=0.3
-1.3267634052278918
% V (V) @ t=0.3
0.007287860330592182
% es.normE (V/m) @ t=0.4
1.5263413753658976
% es.EX (V/m) @ t=0.4
0.6083057349040353
% es.EY (V/m) @ t=0.4
0.16082518961603132
% es.EZ (V/m) @ t=0.4
-1.3893832753731088
% es.tEX (V/m) @ t=0.4
0.6083057349040355
% es.tEY (V/m) @ t=0.4
0
% es.tEZ (V/m) @ t=0.4
-1.3893832753731115
% es.Ex (V/m) @ t=0.4
0.6083057349040353
% es.Ey (V/m) @ t=0.4
0.16082518961603132
% es.Ez (V/m) @ t=0.4
-1.3893832753731088
% es.tEx (V/m) @ t=0.4
0.6083057349040355
% es.tEy (V/m) @ t=0.4
0
% es.tEz (V/m) @ t=0.4
-1.3893832753731115
% V (V) @ t=0.4
0.007631828615387787
% es.normE (V/m) @ t=0.5
1.5977688100309633
% es.EX (V/m) @ t=0.5
0.6367701788947617
% es.EY (V/m) @ t=0.5
0.16834961037165597
% es.EZ (V/m) @ t=0.5
-1.4544025803256178
% es.tEX (V/m) @ t=0.5
0.636770178894762
% es.tEY (V/m) @ t=0.5
0
% es.tEZ (V/m) @ t=0.5
-1.454402580325624
% es.Ex (V/m) @ t=0.5
0.6367701788947617
% es.Ey (V/m) @ t=0.5
0.16834961037165597
% es.Ez (V/m) @ t=0.5
-1.4544025803256178
% es.tEx (V/m) @ t=0.5
0.636770178894762
% es.tEy (V/m) @ t=0.5
0
% es.tEz (V/m) @ t=0.5
-1.454402580325624
% V (V) @ t=0.5
0.007989044770515548
% es.normE (V/m) @ t=0.6
1.677192503817947
% es.EX (V/m) @ t=0.6
0.6684117001338141
% es.EY (V/m) @ t=0.6
0.17670911027310066
% es.EZ (V/m) @ t=0.6
-1.5267053404194728
% es.tEX (V/m) @ t=0.6
0.6684117001338108
% es.tEY (V/m) @ t=0.6
0
% es.tEZ (V/m) @ t=0.6
-1.526705340419479
% es.Ex (V/m) @ t=0.6
0.6684117001338141
% es.Ey (V/m) @ t=0.6
0.17670911027310066
% es.Ez (V/m) @ t=0.6
-1.5267053404194728
% es.tEx (V/m) @ t=0.6
0.6684117001338108
% es.tEy (V/m) @ t=0.6
0
% es.tEz (V/m) @ t=0.6
-1.526705340419479
% V (V) @ t=0.6
0.008386577086885758
% es.normE (V/m) @ t=0.7
1.7566161978242523
% es.EX (V/m) @ t=0.7
0.7000532213728812
% es.EY (V/m) @ t=0.7
0.1850686101745378
% es.EZ (V/m) @ t=0.7
-1.5990081005133367
% es.tEX (V/m) @ t=0.7
0.7000532213728814
% es.tEY (V/m) @ t=0.7
0
% es.tEZ (V/m) @ t=0.7
-1.5990081005133412
% es.Ex (V/m) @ t=0.7
0.7000532213728812
% es.Ey (V/m) @ t=0.7
0.1850686101745378
% es.Ez (V/m) @ t=0.7
-1.5990081005133367
% es.tEx (V/m) @ t=0.7
0.7000532213728814
% es.tEy (V/m) @ t=0.7
0
% es.tEz (V/m) @ t=0.7
-1.5990081005133412
% V (V) @ t=0.7
0.00878410940325597
% es.normE (V/m) @ t=0.8
1.836039892021399
% es.EX (V/m) @ t=0.8
0.7316947426119478
% es.EY (V/m) @ t=0.8
0.19342811007598426
% es.EZ (V/m) @ t=0.8
-1.6713108606071918
% es.tEX (V/m) @ t=0.8
0.7316947426119444
% es.tEY (V/m) @ t=0.8
0
% es.tEZ (V/m) @ t=0.8
-1.6713108606071927
% es.Ex (V/m) @ t=0.8
0.7316947426119478
% es.Ey (V/m) @ t=0.8
0.19342811007598426
% es.Ez (V/m) @ t=0.8
-1.6713108606071918
% es.tEx (V/m) @ t=0.8
0.7316947426119444
% es.tEy (V/m) @ t=0.8
0
% es.tEz (V/m) @ t=0.8
-1.6713108606071927
% V (V) @ t=0.8
0.009181641719626179
% es.normE (V/m) @ t=0.9
1.9249233833615913
% es.EX (V/m) @ t=0.9
0.7671179571545728
% es.EY (V/m) @ t=0.9
0.20279323775073088
% es.EZ (V/m) @ t=0.9
-1.7522189987644694
% es.tEX (V/m) @ t=0.9
0.7671179571545732
% es.tEY (V/m) @ t=0.9
0
% es.tEZ (V/m) @ t=0.9
-1.752218998764473
% es.Ex (V/m) @ t=0.9
0.7671179571545728
% es.Ey (V/m) @ t=0.9
0.20279323775073088
% es.Ez (V/m) @ t=0.9
-1.7522189987644694
% es.tEx (V/m) @ t=0.9
0.7671179571545732
% es.tEy (V/m) @ t=0.9
0
% es.tEz (V/m) @ t=0.9
-1.752218998764473
% V (V) @ t=0.9
0.009626075698281656
% es.normE (V/m) @ t=1
2.0141663355079684
% es.EX (V/m) @ t=1
0.8026848714504793
% es.EY (V/m) @ t=1
0.21219657805970993
% es.EZ (V/m) @ t=1
-1.833454130838346
% es.tEX (V/m) @ t=1
0.8026848714504795
% es.tEY (V/m) @ t=1
0
% es.tEZ (V/m) @ t=1
-1.8334541308383532
% es.Ex (V/m) @ t=1
0.8026848714504793
% es.Ey (V/m) @ t=1
0.21219657805970993
% es.Ez (V/m) @ t=1
-1.833454130838346
% es.tEx (V/m) @ t=1
0.8026848714504795
% es.tEy (V/m) @ t=1
0
% es.tEz (V/m) @ t=1
-1.8334541308383532
% V (V) @ t=1
0.01007229188314963
% es.normE (V/m) @ t=1.1
2.104840220645002
% es.EX (V/m) @ t=1.1
0.8388252981866628
% es.EY (V/m) @ t=1.1
0.22175316478480234
% es.EZ (V/m) @ t=1.1
-1.9159902406380533
% es.tEX (V/m) @ t=1.1
0.8388252981866633
% es.tEY (V/m) @ t=1.1
0
% es.tEZ (V/m) @ t=1.1
-1.9159902406380631
% es.Ex (V/m) @ t=1.1
0.8388252981866628
% es.Ey (V/m) @ t=1.1
0.22175316478480234
% es.Ez (V/m) @ t=1.1
-1.9159902406380533
% es.tEx (V/m) @ t=1.1
0.8388252981866633
% es.tEy (V/m) @ t=1.1
0
% es.tEz (V/m) @ t=1.1
-1.9159902406380631
% V (V) @ t=1.1
0.010525551984984748
% es.normE (V/m) @ t=1.2
2.205313838449288
% es.EX (V/m) @ t=1.2
0.8788934198834795
% es.EY (V/m) @ t=1.2
0.23235925825815862
% es.EZ (V/m) @ t=1.2
-2.00743608508148
% es.tEX (V/m) @ t=1.2
0.8788934198834797
% es.tEY (V/m) @ t=1.2
0
% es.tEZ (V/m) @ t=1.2
-2.0074360850814905
% es.Ex (V/m) @ t=1.2
0.8788934198834795
% es.Ey (V/m) @ t=1.2
0.23235925825815862
% es.Ez (V/m) @ t=1.2
-2.00743608508148
% es.tEx (V/m) @ t=1.2
0.8788934198834797
% es.tEy (V/m) @ t=1.2
0
% es.tEz (V/m) @ t=1.2
-2.0074360850814905
% V (V) @ t=1.2
0.01102705229092381
% es.normE (V/m) @ t=1.3
2.3057874571454935
% es.EX (V/m) @ t=1.3
0.918961541580283
% es.EY (V/m) @ t=1.3
0.24296535173150868
% es.EZ (V/m) @ t=1.3
-2.098881929524893
% es.tEX (V/m) @ t=1.3
0.9189615415802797
% es.tEY (V/m) @ t=1.3
0
% es.tEZ (V/m) @ t=1.3
-2.0988819295249037
% es.Ex (V/m) @ t=1.3
0.918961541580283
% es.Ey (V/m) @ t=1.3
0.24296535173150868
% es.Ez (V/m) @ t=1.3
-2.098881929524893
% es.tEx (V/m) @ t=1.3
0.9189615415802797
% es.tEy (V/m) @ t=1.3
0
% es.tEz (V/m) @ t=1.3
-2.0988819295249037
% V (V) @ t=1.3
0.01152855259686287
% es.normE (V/m) @ t=1.4
2.409996379916649
% es.EX (V/m) @ t=1.4
0.9605064938878629
% es.EY (V/m) @ t=1.4
0.2539559603678656
% es.EZ (V/m) @ t=1.4
-2.1937336172017012
% es.tEX (V/m) @ t=1.4
0.9605064938878631
% es.tEY (V/m) @ t=1.4
0
% es.tEZ (V/m) @ t=1.4
-2.1937336172017083
% es.Ex (V/m) @ t=1.4
0.9605064938878629
% es.Ey (V/m) @ t=1.4
0.2539559603678656
% es.Ez (V/m) @ t=1.4
-2.1937336172017012
% es.tEx (V/m) @ t=1.4
0.9605064938878631
% es.tEy (V/m) @ t=1.4
0
% es.tEz (V/m) @ t=1.4
-2.1937336172017083
% V (V) @ t=1.4
0.01204913574497783
% es.normE (V/m) @ t=1.5
2.523286987912618
% es.EX (V/m) @ t=1.5
1.0056420810103313
% es.EY (V/m) @ t=1.5
0.2658814450292981
% es.EZ (V/m) @ t=1.5
-2.2968659697012175
% es.tEX (V/m) @ t=1.5
1.0056420810103317
% es.tEY (V/m) @ t=1.5
0
% es.tEZ (V/m) @ t=1.5
-2.296865969701223
% es.Ex (V/m) @ t=1.5
1.0056420810103313
% es.Ey (V/m) @ t=1.5
0.2658814450292981
% es.Ez (V/m) @ t=1.5
-2.2968659697012175
% es.tEx (V/m) @ t=1.5
1.0056420810103317
% es.tEy (V/m) @ t=1.5
0
% es.tEz (V/m) @ t=1.5
-2.296865969701223
% V (V) @ t=1.5
0.012616115221137085
% es.normE (V/m) @ t=1.6
2.636577596196508
% es.EX (V/m) @ t=1.6
1.050777668132779
% es.EY (V/m) @ t=1.6
0.2778069296907484
% es.EZ (V/m) @ t=1.6
-2.3999983222007355
% es.tEX (V/m) @ t=1.6
1.0507776681327794
% es.tEY (V/m) @ t=1.6
0
% es.tEZ (V/m) @ t=1.6
-2.399998322200748
% es.Ex (V/m) @ t=1.6
1.050777668132779
% es.Ey (V/m) @ t=1.6
0.2778069296907484
% es.Ez (V/m) @ t=1.6
-2.3999983222007355
% es.tEx (V/m) @ t=1.6
1.0507776681327794
% es.tEy (V/m) @ t=1.6
0
% es.tEz (V/m) @ t=1.6
-2.399998322200748
% V (V) @ t=1.6
0.013183094697296338
% es.normE (V/m) @ t=1.7
2.7530250371230696
% es.EX (V/m) @ t=1.7
1.0971743177649596
% es.EY (V/m) @ t=1.7
0.29006729262473385
% es.EZ (V/m) @ t=1.7
-2.5060028258756244
% es.tEX (V/m) @ t=1.7
1.09717431776496
% es.tEY (V/m) @ t=1.7
0
% es.tEZ (V/m) @ t=1.7
-2.5060028258756297
% es.Ex (V/m) @ t=1.7
1.0971743177649596
% es.Ey (V/m) @ t=1.7
0.29006729262473385
% es.Ez (V/m) @ t=1.7
-2.5060028258756244
% es.tEx (V/m) @ t=1.7
1.09717431776496
% es.tEy (V/m) @ t=1.7
0
% es.tEz (V/m) @ t=1.7
-2.5060028258756297
% V (V) @ t=1.7
0.013765757579220474
% es.normE (V/m) @ t=1.8
2.87631174088819
% es.EX (V/m) @ t=1.8
1.1463030534787122
% es.EY (V/m) @ t=1.8
0.3030531677838946
% es.EZ (V/m) @ t=1.8
-2.6182298317578105
% es.tEX (V/m) @ t=1.8
1.1463030534787055
% es.tEY (V/m) @ t=1.8
0
% es.tEZ (V/m) @ t=1.8
-2.618229831757816
% es.Ex (V/m) @ t=1.8
1.1463030534787122
% es.Ey (V/m) @ t=1.8
0.3030531677838946
% es.Ez (V/m) @ t=1.8
-2.6182298317578105
% es.tEx (V/m) @ t=1.8
1.1463030534787055
% es.tEy (V/m) @ t=1.8
0
% es.tEz (V/m) @ t=1.8
-2.618229831757816
% V (V) @ t=1.8
0.014382398487032337
% es.normE (V/m) @ t=1.9
3.0038100858173786
% es.EX (V/m) @ t=1.9
1.1971142170571185
% es.EY (V/m) @ t=1.9
0.3164858158291537
% es.EZ (V/m) @ t=1.9
-2.734288675579668
% es.tEX (V/m) @ t=1.9
1.197114217057119
% es.tEY (V/m) @ t=1.9
0
% es.tEZ (V/m) @ t=1.9
-2.7342886755796734
% es.Ex (V/m) @ t=1.9
1.1971142170571185
% es.Ey (V/m) @ t=1.9
0.3164858158291537
% es.Ez (V/m) @ t=1.9
-2.734288675579668
% es.tEx (V/m) @ t=1.9
1.197114217057119
% es.tEy (V/m) @ t=1.9
0
% es.tEz (V/m) @ t=1.9
-2.7342886755796734
% V (V) @ t=1.9
0.015019963178295615
% es.normE (V/m) @ t=2
3.13552007189748
% es.EX (V/m) @ t=2
1.249607808500269
% es.EY (V/m) @ t=2
0.33036523676050766
% es.EZ (V/m) @ t=2
-2.854179357341186
% es.tEX (V/m) @ t=2
1.2496078085002695
% es.tEY (V/m) @ t=2
0
% es.tEZ (V/m) @ t=2
-2.854179357341195
% es.Ex (V/m) @ t=2
1.249607808500269
% es.Ey (V/m) @ t=2
0.33036523676050766
% es.Ez (V/m) @ t=2
-2.854179357341186
% es.tEx (V/m) @ t=2
1.2496078085002695
% es.tEy (V/m) @ t=2
0
% es.tEz (V/m) @ t=2
-2.854179357341195
% V (V) @ t=2
0.015678451653010315
% es.normE (V/m) @ t=2.1
3.2714416991592206
% es.EX (V/m) @ t=2.1
1.3037838278080867
% es.EY (V/m) @ t=2.1
0.34469143057798135
% es.EZ (V/m) @ t=2.1
-2.977901877042383
% es.tEX (V/m) @ t=2.1
1.303783827808087
% es.tEY (V/m) @ t=2.1
0
% es.tEZ (V/m) @ t=2.1
-2.9779018770423917
% es.Ex (V/m) @ t=2.1
1.3037838278080867
% es.Ey (V/m) @ t=2.1
0.34469143057798135
% es.Ez (V/m) @ t=2.1
-2.977901877042383
% es.tEx (V/m) @ t=2.1
1.303783827808087
% es.tEy (V/m) @ t=2.1
0
% es.tEz (V/m) @ t=2.1
-2.9779018770423917
% V (V) @ t=2.1
0.016357863911176433
% es.normE (V/m) @ t=2.2
3.4115749676684315
% es.EX (V/m) @ t=2.2
1.3596422749806352
% es.EY (V/m) @ t=2.2
0.3594643972815952
% es.EZ (V/m) @ t=2.2
-3.1054562346832544
% es.tEX (V/m) @ t=2.2
1.3596422749806285
% es.tEY (V/m) @ t=2.2
0
% es.tEZ (V/m) @ t=2.2
-3.1054562346832597
% es.Ex (V/m) @ t=2.2
1.3596422749806352
% es.Ey (V/m) @ t=2.2
0.3594643972815952
% es.Ez (V/m) @ t=2.2
-3.1054562346832544
% es.tEx (V/m) @ t=2.2
1.3596422749806285
% es.tEy (V/m) @ t=2.2
0
% es.tEz (V/m) @ t=2.2
-3.1054562346832597
% V (V) @ t=2.2
0.017058199952793975
% es.normE (V/m) @ t=2.3
3.559933298191134
% es.EX (V/m) @ t=2.3
1.4187717601564924
% es.EY (V/m) @ t=2.3
0.37509867554399534
% es.EZ (V/m) @ t=2.3
-3.240500982030694
% es.tEX (V/m) @ t=2.3
1.4187717601564929
% es.tEY (V/m) @ t=2.3
0
% es.tEZ (V/m) @ t=2.3
-3.240500982030703
% es.Ex (V/m) @ t=2.3
1.4187717601564924
% es.Ey (V/m) @ t=2.3
0.37509867554399534
% es.Ez (V/m) @ t=2.3
-3.240500982030694
% es.tEx (V/m) @ t=2.3
1.4187717601564929
% es.tEy (V/m) @ t=2.3
0
% es.tEz (V/m) @ t=2.3
-3.240500982030703
% V (V) @ t=2.3
0.017799900994819165
% es.normE (V/m) @ t=2.4
3.715027518464977
% es.EX (V/m) @ t=2.4
1.4805828325356774
% es.EY (V/m) @ t=2.4
0.39144045157136453
% es.EZ (V/m) @ t=2.4
-3.3816786203418996
% es.tEX (V/m) @ t=2.4
1.4805828325356778
% es.tEY (V/m) @ t=2.4
0
% es.tEZ (V/m) @ t=2.4
-3.3816786203419014
% es.Ex (V/m) @ t=2.4
1.4805828325356774
% es.Ey (V/m) @ t=2.4
0.39144045157136453
% es.Ez (V/m) @ t=2.4
-3.3816786203418996
% es.tEx (V/m) @ t=2.4
1.4805828325356778
% es.tEy (V/m) @ t=2.4
0
% es.tEz (V/m) @ t=2.4
-3.3816786203419014
% V (V) @ t=2.4
0.018575382362197888
% es.normE (V/m) @ t=2.5
3.8759203950016863
% es.EX (V/m) @ t=2.5
1.5447045121687735
% es.EY (V/m) @ t=2.5
0.4083929202810914
% es.EZ (V/m) @ t=2.5
-3.5281347868527124
% es.tEX (V/m) @ t=2.5
1.5447045121687744
% es.tEY (V/m) @ t=2.5
0
% es.tEZ (V/m) @ t=2.5
-3.528134786852725
% es.Ex (V/m) @ t=2.5
1.5447045121687735
% es.Ey (V/m) @ t=2.5
0.4083929202810914
% es.Ez (V/m) @ t=2.5
-3.5281347868527124
% es.tEx (V/m) @ t=2.5
1.5447045121687744
% es.tEy (V/m) @ t=2.5
0
% es.tEz (V/m) @ t=2.5
-3.528134786852725
% V (V) @ t=2.5
0.019379870522742378
% es.normE (V/m) @ t=2.6
4.042611927801625
% es.EX (V/m) @ t=2.6
1.6111367990557972
% es.EY (V/m) @ t=2.6
0.42595608167321153
% es.EZ (V/m) @ t=2.6
-3.679869481563175
% es.tEX (V/m) @ t=2.6
1.6111367990557977
% es.tEY (V/m) @ t=2.6
0
% es.tEZ (V/m) @ t=2.6
-3.6798694815631734
% es.Ex (V/m) @ t=2.6
1.6111367990557972
% es.Ey (V/m) @ t=2.6
0.42595608167321153
% es.Ez (V/m) @ t=2.6
-3.679869481563175
% es.tEx (V/m) @ t=2.6
1.6111367990557977
% es.tEy (V/m) @ t=2.6
0
% es.tEz (V/m) @ t=2.6
-3.6798694815631734
% V (V) @ t=2.6
0.020213365476452635
% es.normE (V/m) @ t=2.7
4.2151021168653475
% es.EX (V/m) @ t=2.7
1.6798796931967908
% es.EY (V/m) @ t=2.7
0.444129935747652
% es.EZ (V/m) @ t=2.7
-3.8368827044732665
% es.tEX (V/m) @ t=2.7
1.6798796931967912
% es.tEY (V/m) @ t=2.7
0
% es.tEZ (V/m) @ t=2.7
-3.836882704473279
% es.Ex (V/m) @ t=2.7
1.6798796931967908
% es.Ey (V/m) @ t=2.7
0.444129935747652
% es.Ez (V/m) @ t=2.7
-3.8368827044732665
% es.tEx (V/m) @ t=2.7
1.6798796931967912
% es.tEy (V/m) @ t=2.7
0
% es.tEz (V/m) @ t=2.7
-3.836882704473279
% V (V) @ t=2.7
0.02107586722332867
% es.normE (V/m) @ t=2.8
4.393768445169606
% es.EX (V/m) @ t=2.8
1.75108422528078
% es.EY (V/m) @ t=2.8
0.4629547078170049
% es.EZ (V/m) @ t=2.8
-3.999517782928791
% es.tEX (V/m) @ t=2.8
1.7510842252807732
% es.tEY (V/m) @ t=2.8
0
% es.tEZ (V/m) @ t=2.8
-3.9995177829287982
% es.Ex (V/m) @ t=2.8
1.75108422528078
% es.Ey (V/m) @ t=2.8
0.4629547078170049
% es.Ez (V/m) @ t=2.8
-3.999517782928791
% es.tEx (V/m) @ t=2.8
1.7510842252807732
% es.tEy (V/m) @ t=2.8
0
% es.tEz (V/m) @ t=2.8
-3.9995177829287982
% V (V) @ t=2.8
0.021969242988578924
% es.normE (V/m) @ t=2.9
4.581890747744932
% es.EX (V/m) @ t=2.9
1.8260626551316186
% es.EY (V/m) @ t=2.9
0.48277990341547117
% es.EZ (V/m) @ t=2.9
-4.170757784047677
% es.tEX (V/m) @ t=2.9
1.8260626551316195
% es.tEY (V/m) @ t=2.9
0
% es.tEZ (V/m) @ t=2.9
-4.170757784047691
% es.Ex (V/m) @ t=2.9
1.8260626551316186
% es.Ey (V/m) @ t=2.9
0.48277990341547117
% es.Ez (V/m) @ t=2.9
-4.170757784047677
% es.tEx (V/m) @ t=2.9
1.8260626551316195
% es.tEy (V/m) @ t=2.9
0
% es.tEz (V/m) @ t=2.9
-4.170757784047691
% V (V) @ t=2.9
0.022909716525392705
% es.normE (V/m) @ t=3
4.776982056509057
% es.EX (V/m) @ t=3
1.9038199484590241
% es.EY (V/m) @ t=3
0.5033405064351957
% es.EZ (V/m) @ t=3
-4.348340767001989
% es.tEX (V/m) @ t=3
1.9038199484590246
% es.tEY (V/m) @ t=3
0
% es.tEZ (V/m) @ t=3
-4.3483407670019965
% es.Ex (V/m) @ t=3
1.9038199484590241
% es.Ey (V/m) @ t=3
0.5033405064351957
% es.Ez (V/m) @ t=3
-4.348340767001989
% es.tEx (V/m) @ t=3
1.9038199484590246
% es.tEy (V/m) @ t=3
0
% es.tEz (V/m) @ t=3
-4.3483407670019965
% V (V) @ t=3
0.023884986008745453
% es.normE (V/m) @ t=3.1
4.9790423714746765
% es.EX (V/m) @ t=3.1
1.9843561052630942
% es.EY (V/m) @ t=3.1
0.5246365168760114
% es.EZ (V/m) @ t=3.1
-4.532266731791722
% es.tEX (V/m) @ t=3.1
1.9843561052630942
% es.tEY (V/m) @ t=3.1
0
% es.tEZ (V/m) @ t=3.1
-4.5322667317917364
% es.Ex (V/m) @ t=3.1
1.9843561052630942
% es.Ey (V/m) @ t=3.1
0.5246365168760114
% es.Ez (V/m) @ t=3.1
-4.532266731791722
% es.tEx (V/m) @ t=3.1
1.9843561052630942
% es.tEy (V/m) @ t=3.1
0
% es.tEz (V/m) @ t=3.1
-4.5322667317917364
% V (V) @ t=3.1
0.024895051438637184
% es.normE (V/m) @ t=3.2
5.188071692655763
% es.EX (V/m) @ t=3.2
2.067671125543712
% es.EY (V/m) @ t=3.2
0.5466679347380481
% es.EZ (V/m) @ t=3.2
-4.722535678416872
% es.tEX (V/m) @ t=3.2
2.067671125543699
% es.tEY (V/m) @ t=3.2
0
% es.tEZ (V/m) @ t=3.2
-4.722535678416897
% es.Ex (V/m) @ t=3.2
2.067671125543712
% es.Ey (V/m) @ t=3.2
0.5466679347380481
% es.Ez (V/m) @ t=3.2
-4.722535678416872
% es.tEx (V/m) @ t=3.2
2.067671125543699
% es.tEy (V/m) @ t=3.2
0
% es.tEz (V/m) @ t=3.2
-4.722535678416897
% V (V) @ t=3.2
0.025939912815067884
% es.normE (V/m) @ t=3.3
5.40407002006731
% es.EX (V/m) @ t=3.3
2.15376500930099
% es.EY (V/m) @ t=3.3
0.569434760021279
% es.EZ (V/m) @ t=3.3
-4.919147606877463
% es.tEX (V/m) @ t=3.3
2.153765009300976
% es.tEY (V/m) @ t=3.3
0
% es.tEZ (V/m) @ t=3.3
-4.919147606877473
% es.Ex (V/m) @ t=3.3
2.15376500930099
% es.Ey (V/m) @ t=3.3
0.569434760021279
% es.Ez (V/m) @ t=3.3
-4.919147606877463
% es.tEx (V/m) @ t=3.3
2.153765009300976
% es.tEy (V/m) @ t=3.3
0
% es.tEz (V/m) @ t=3.3
-4.919147606877473
% V (V) @ t=3.3
0.027019570138037546
% es.normE (V/m) @ t=3.4
5.627396407389833
% es.EX (V/m) @ t=3.4
2.242775634336847
% es.EY (V/m) @ t=3.4
0.5929708276934864
% es.EZ (V/m) @ t=3.4
-5.122431870606956
% es.tEX (V/m) @ t=3.4
2.242775634336848
% es.tEY (V/m) @ t=3.4
0
% es.tEZ (V/m) @ t=3.4
-5.122431870606974
% es.Ex (V/m) @ t=3.4
2.242775634336847
% es.Ey (V/m) @ t=3.4
0.5929708276934864
% es.Ez (V/m) @ t=3.4
-5.122431870606956
% es.tEx (V/m) @ t=3.4
2.242775634336848
% es.tEy (V/m) @ t=3.4
0
% es.tEz (V/m) @ t=3.4
-5.122431870606974
% V (V) @ t=3.4
0.02813599780328654
% es.normE (V/m) @ t=3.5
5.858341960720335
% es.EX (V/m) @ t=3.5
2.3348147863701803
% es.EY (V/m) @ t=3.5
0.6173035697717495
% es.EZ (V/m) @ t=3.5
-5.332655495985268
% es.tEX (V/m) @ t=3.5
2.334814786370181
% es.tEY (V/m) @ t=3.5
0
% es.tEZ (V/m) @ t=3.5
-5.332655495985286
% es.Ex (V/m) @ t=3.5
2.3348147863701803
% es.Ey (V/m) @ t=3.5
0.6173035697717495
% es.Ez (V/m) @ t=3.5
-5.332655495985268
% es.tEx (V/m) @ t=3.5
2.334814786370181
% es.tEy (V/m) @ t=3.5
0
% es.tEz (V/m) @ t=3.5
-5.332655495985286
% V (V) @ t=3.5
0.02929079657064708
% es.normE (V/m) @ t=3.6
6.096523822047439
% es.EX (V/m) @ t=3.6
2.429735446651768
% es.EY (V/m) @ t=3.6
0.6423969081158756
% es.EZ (V/m) @ t=3.6
-5.5494672942847565
% es.tEX (V/m) @ t=3.6
2.429735446651769
% es.tEY (V/m) @ t=3.6
0
% es.tEZ (V/m) @ t=3.6
-5.549467294284774
% es.Ex (V/m) @ t=3.6
2.429735446651768
% es.Ey (V/m) @ t=3.6
0.6423969081158756
% es.Ez (V/m) @ t=3.6
-5.5494672942847565
% es.tEx (V/m) @ t=3.6
2.429735446651769
% es.tEy (V/m) @ t=3.6
0
% es.tEz (V/m) @ t=3.6
-5.549467294284774
% V (V) @ t=3.6
0.030481861146967545
% es.normE (V/m) @ t=3.7
6.341941991389147
% es.EX (V/m) @ t=3.7
2.527537615181612
% es.EY (V/m) @ t=3.7
0.6682508427258931
% es.EZ (V/m) @ t=3.7
-5.772867265505287
% es.tEX (V/m) @ t=3.7
2.5275376151815987
% es.tEY (V/m) @ t=3.7
0
% es.tEZ (V/m) @ t=3.7
-5.7728672655052975
% es.Ex (V/m) @ t=3.7
2.527537615181612
% es.Ey (V/m) @ t=3.7
0.6682508427258931
% es.Ez (V/m) @ t=3.7
-5.772867265505287
% es.tEx (V/m) @ t=3.7
2.5275376151815987
% es.tEy (V/m) @ t=3.7
0
% es.tEz (V/m) @ t=3.7
-5.7728672655052975
% V (V) @ t=3.7
0.03170919153224793
% es.normE (V/m) @ t=3.8
6.594596468768994
% es.EX (V/m) @ t=3.8
2.628221291959619
% es.EY (V/m) @ t=3.8
0.6948653736017558
% es.EZ (V/m) @ t=3.8
-6.002855409646951
% es.tEX (V/m) @ t=3.8
2.628221291959621
% es.tEY (V/m) @ t=3.8
0
% es.tEZ (V/m) @ t=3.8
-6.002855409646962
% es.Ex (V/m) @ t=3.8
2.628221291959619
% es.Ey (V/m) @ t=3.8
0.6948653736017558
% es.Ez (V/m) @ t=3.8
-6.002855409646951
% es.tEx (V/m) @ t=3.8
2.628221291959621
% es.tEy (V/m) @ t=3.8
0
% es.tEz (V/m) @ t=3.8
-6.002855409646962
% V (V) @ t=3.8
0.03297278772648824
% es.normE (V/m) @ t=3.9
6.854487254214683
% es.EX (V/m) @ t=3.9
2.7317864769858913
% es.EY (V/m) @ t=3.9
0.7222405007436627
% es.EZ (V/m) @ t=3.9
-6.239431726709718
% es.tEX (V/m) @ t=3.9
2.731786476985892
% es.tEY (V/m) @ t=3.9
0
% es.tEZ (V/m) @ t=3.9
-6.239431726709739
% es.Ex (V/m) @ t=3.9
2.7317864769858913
% es.Ey (V/m) @ t=3.9
0.7222405007436627
% es.Ez (V/m) @ t=3.9
-6.239431726709718
% es.tEx (V/m) @ t=3.9
2.731786476985892
% es.tEy (V/m) @ t=3.9
0
% es.tEz (V/m) @ t=3.9
-6.239431726709739
% V (V) @ t=3.9
0.03427264972968848
% es.normE (V/m) @ t=4
7.119238847567233
% es.EX (V/m) @ t=4
2.8372930761038715
% es.EY (V/m) @ t=4
0.750131007567747
% es.EZ (V/m) @ t=4
-6.4804306692954405
% es.tEX (V/m) @ t=4
2.837293076103858
% es.tEY (V/m) @ t=4
0
% es.tEZ (V/m) @ t=4
-6.480430669295451
% es.Ex (V/m) @ t=4
2.8372930761038715
% es.Ey (V/m) @ t=4
0.750131007567747
% es.Ez (V/m) @ t=4
-6.4804306692954405
% es.tEx (V/m) @ t=4
2.837293076103858
% es.tEy (V/m) @ t=4
0
% es.tEz (V/m) @ t=4
-6.480430669295451
% V (V) @ t=4
0.03559667219289671
% es.normE (V/m) @ t=4.1
7.389136384912723
% es.EX (V/m) @ t=4.1
2.944853930730539
% es.EY (V/m) @ t=4.1
0.7785663279201085
% es.EZ (V/m) @ t=4.1
-6.726112172470447
% es.tEX (V/m) @ t=4.1
2.94485393073054
% es.tEY (V/m) @ t=4.1
0
% es.tEZ (V/m) @ t=4.1
-6.726112172470437
% es.Ex (V/m) @ t=4.1
2.944853930730539
% es.Ey (V/m) @ t=4.1
0.7785663279201085
% es.Ez (V/m) @ t=4.1
-6.726112172470447
% es.tEx (V/m) @ t=4.1
2.94485393073054
% es.tEy (V/m) @ t=4.1
0
% es.tEz (V/m) @ t=4.1
-6.726112172470437
% V (V) @ t=4.1
0.036946308145811436
% es.normE (V/m) @ t=4.2
7.664499096804412
% es.EX (V/m) @ t=4.2
3.0545953750139097
% es.EY (V/m) @ t=4.2
0.8075794151257547
% es.EZ (V/m) @ t=4.2
-6.976767252388406
% es.tEX (V/m) @ t=4.2
3.0545953750138963
% es.tEY (V/m) @ t=4.2
0
% es.tEZ (V/m) @ t=4.2
-6.97676725238842
% es.Ex (V/m) @ t=4.2
3.0545953750139097
% es.Ey (V/m) @ t=4.2
0.8075794151257547
% es.Ez (V/m) @ t=4.2
-6.976767252388406
% es.tEx (V/m) @ t=4.2
3.0545953750138963
% es.tEy (V/m) @ t=4.2
0
% es.tEz (V/m) @ t=4.2
-6.97676725238842
% V (V) @ t=4.2
0.0383231843605337
% es.normE (V/m) @ t=4.3
7.945088914193445
% es.EX (V/m) @ t=4.3
3.166423194135758
% es.EY (V/m) @ t=4.3
0.8371456939486421
% es.EZ (V/m) @ t=4.3
-7.23217888115596
% es.tEX (V/m) @ t=4.3
3.1664231941357457
% es.tEY (V/m) @ t=4.3
0
% es.tEZ (V/m) @ t=4.3
-7.23217888115596
% es.Ex (V/m) @ t=4.3
3.166423194135758
% es.Ey (V/m) @ t=4.3
0.8371456939486421
% es.Ez (V/m) @ t=4.3
-7.23217888115596
% es.tEx (V/m) @ t=4.3
3.1664231941357457
% es.tEy (V/m) @ t=4.3
0
% es.tEz (V/m) @ t=4.3
-7.23217888115596
% V (V) @ t=4.3
0.03972608765725321
% es.normE (V/m) @ t=4.4
8.230667768042743
% es.EX (V/m) @ t=4.4
3.2802431732780297
% es.EY (V/m) @ t=4.4
0.8672405891525337
% es.EZ (V/m) @ t=4.4
-7.492130030879746
% es.tEX (V/m) @ t=4.4
3.2802431732780306
% es.tEY (V/m) @ t=4.4
0
% es.tEZ (V/m) @ t=4.4
-7.492130030879771
% es.Ex (V/m) @ t=4.4
3.2802431732780297
% es.Ey (V/m) @ t=4.4
0.8672405891525337
% es.Ez (V/m) @ t=4.4
-7.492130030879746
% es.tEx (V/m) @ t=4.4
3.2802431732780306
% es.tEy (V/m) @ t=4.4
0
% es.tEz (V/m) @ t=4.4
-7.492130030879771
% V (V) @ t=4.4
0.041153804856159645
% es.normE (V/m) @ t=4.5
8.520506126216164
% es.EX (V/m) @ t=4.5
3.395764907294896
% es.EY (V/m) @ t=4.5
0.8977874938646764
% es.EZ (V/m) @ t=4.5
-7.755956465380844
% es.tEX (V/m) @ t=4.5
3.3957649072948968
% es.tEY (V/m) @ t=4.5
0
% es.tEZ (V/m) @ t=4.5
-7.755956465380869
% es.Ex (V/m) @ t=4.5
3.395764907294896
% es.Ey (V/m) @ t=4.5
0.8977874938646764
% es.Ez (V/m) @ t=4.5
-7.755956465380844
% es.tEx (V/m) @ t=4.5
3.3957649072948968
% es.tEy (V/m) @ t=4.5
0
% es.tEz (V/m) @ t=4.5
-7.755956465380869
% V (V) @ t=4.5
0.04260267651950622
% es.normE (V/m) @ t=4.6
8.808658026185624
% es.EX (V/m) @ t=4.6
3.510615610587828
% es.EY (V/m) @ t=4.6
0.9281575330916887
% es.EZ (V/m) @ t=4.6
-8.01824724254303
% es.tEX (V/m) @ t=4.6
3.510615610587829
% es.tEY (V/m) @ t=4.6
0
% es.tEZ (V/m) @ t=4.6
-8.018247242543055
% es.Ex (V/m) @ t=4.6
3.510615610587828
% es.Ey (V/m) @ t=4.6
0.9281575330916887
% es.Ez (V/m) @ t=4.6
-8.01824724254303
% es.tEx (V/m) @ t=4.6
3.510615610587829
% es.tEy (V/m) @ t=4.6
0
% es.tEz (V/m) @ t=4.6
-8.018247242543055
% V (V) @ t=4.6
0.04404307842434529
% es.normE (V/m) @ t=4.7
9.097922977229228
% es.EX (V/m) @ t=4.7
3.6259136587844427
% es.EY (V/m) @ t=4.7
0.9586477227097738
% es.EZ (V/m) @ t=4.7
-8.281549387631731
% es.tEX (V/m) @ t=4.7
3.6259136587844445
% es.tEY (V/m) @ t=4.7
0
% es.tEZ (V/m) @ t=4.7
-8.281549387631756
% es.Ex (V/m) @ t=4.7
3.6259136587844427
% es.Ey (V/m) @ t=4.7
0.9586477227097738
% es.Ez (V/m) @ t=4.7
-8.281549387631731
% es.tEx (V/m) @ t=4.7
3.6259136587844445
% es.tEy (V/m) @ t=4.7
0
% es.tEz (V/m) @ t=4.7
-8.281549387631756
% V (V) @ t=4.7
0.04548891693850569
% es.normE (V/m) @ t=4.8
9.387595718335096
% es.EX (V/m) @ t=4.8
3.7413783356748285
% es.EY (V/m) @ t=4.8
0.9891840254489424
% es.EZ (V/m) @ t=4.8
-8.545220750023336
% es.tEX (V/m) @ t=4.8
3.7413783356748294
% es.tEY (V/m) @ t=4.8
0
% es.tEZ (V/m) @ t=4.8
-8.545220750023361
% es.Ex (V/m) @ t=4.8
3.7413783356748285
% es.Ey (V/m) @ t=4.8
0.9891840254489424
% es.Ez (V/m) @ t=4.8
-8.545220750023336
% es.tEx (V/m) @ t=4.8
3.7413783356748294
% es.tEy (V/m) @ t=4.8
0
% es.tEz (V/m) @ t=4.8
-8.545220750023361
% V (V) @ t=4.8
0.04693665343364191
% es.normE (V/m) @ t=4.9
9.676970988508234
% es.EX (V/m) @ t=4.9
3.856728925049172
% es.EY (V/m) @ t=4.9
1.0196924040388033
% es.EZ (V/m) @ t=4.9
-8.808619179094592
% es.tEX (V/m) @ t=4.9
3.856728925049145
% es.tEY (V/m) @ t=4.9
0
% es.tEZ (V/m) @ t=4.9
-8.80861917909462
% es.Ex (V/m) @ t=4.9
3.856728925049172
% es.Ey (V/m) @ t=4.9
1.0196924040388033
% es.Ez (V/m) @ t=4.9
-8.808619179094592
% es.tEx (V/m) @ t=4.9
3.856728925049145
% es.tEy (V/m) @ t=4.9
0
% es.tEz (V/m) @ t=4.9
-8.80861917909462
% V (V) @ t=4.9
0.04838274928140832
% es.normE (V/m) @ t=5
9.965343526772129
% es.EX (V/m) @ t=5
3.971684710697561
% es.EY (V/m) @ t=5
1.0500988212092288
% es.EZ (V/m) @ t=5
-9.071102524221985
% es.tEX (V/m) @ t=5
3.9716847106975344
% es.tEY (V/m) @ t=5
0
% es.tEZ (V/m) @ t=5
-9.07110252422197
% es.Ex (V/m) @ t=5
3.971684710697561
% es.Ey (V/m) @ t=5
1.0500988212092288
% es.Ez (V/m) @ t=5
-9.071102524221985
% es.tEx (V/m) @ t=5
3.9716847106975344
% es.tEy (V/m) @ t=5
0
% es.tEz (V/m) @ t=5
-9.07110252422197
% V (V) @ t=5
0.04982366585345939
% es.normE (V/m) @ t=5.1
10.250003744153457
% es.EX (V/m) @ t=5.1
4.08515475256587
% es.EY (V/m) @ t=5.1
1.0801093052816881
% es.EZ (V/m) @ t=5.1
-9.330209664215651
% es.tEX (V/m) @ t=5.1
4.08515475256587
% es.tEY (V/m) @ t=5.1
0
% es.tEZ (V/m) @ t=5.1
-9.330209664215687
% es.Ex (V/m) @ t=5.1
4.08515475256587
% es.Ey (V/m) @ t=5.1
1.0801093052816881
% es.Ez (V/m) @ t=5.1
-9.330209664215651
% es.tEx (V/m) @ t=5.1
4.08515475256587
% es.tEy (V/m) @ t=5.1
0
% es.tEz (V/m) @ t=5.1
-9.330209664215687
% V (V) @ t=5.1
0.05124623470703409
% es.normE (V/m) @ t=5.2
10.527753477782975
% es.EX (V/m) @ t=5.2
4.1958506109611236
% es.EY (V/m) @ t=5.2
1.1093762735092731
% es.EZ (V/m) @ t=5.2
-9.58303608680096
% es.tEX (V/m) @ t=5.2
4.195850610961095
% es.tEY (V/m) @ t=5.2
0
% es.tEZ (V/m) @ t=5.2
-9.583036086800973
% es.Ex (V/m) @ t=5.2
4.1958506109611236
% es.Ey (V/m) @ t=5.2
1.1093762735092731
% es.Ez (V/m) @ t=5.2
-9.58303608680096
% es.tEx (V/m) @ t=5.2
4.195850610961095
% es.tEy (V/m) @ t=5.2
0
% es.tEz (V/m) @ t=5.2
-9.583036086800973
% V (V) @ t=5.2
0.05263494004205779
% es.normE (V/m) @ t=5.3
10.799577057536734
% es.EX (V/m) @ t=5.3
4.3041745651092445
% es.EY (V/m) @ t=5.3
1.1380110870124795
% es.EZ (V/m) @ t=5.3
-9.830472981311381
% es.tEX (V/m) @ t=5.3
4.304174565109246
% es.tEY (V/m) @ t=5.3
0
% es.tEZ (V/m) @ t=5.3
-9.830472981311374
% es.Ex (V/m) @ t=5.3
4.3041745651092445
% es.Ey (V/m) @ t=5.3
1.1380110870124795
% es.Ez (V/m) @ t=5.3
-9.830472981311381
% es.tEx (V/m) @ t=5.3
4.304174565109246
% es.tEy (V/m) @ t=5.3
0
% es.tEz (V/m) @ t=5.3
-9.830472981311374
% V (V) @ t=5.3
0.053994360887224445
% es.normE (V/m) @ t=5.4
11.064373538649233