% Model:              1x1--2 - Copy1.mph
% Version:            COMSOL 6.1.0.252
% Date:               Apr 3 2023, 15:15
% Dimension:          0
% Nodes:              14017
% Expressions:        14017
% Description:        Electric field norm, Electric field, X component, Electric field, Y component, Electric field, Z component, Tangential electric field, X component, Tangential electric field, Y component, Tangential electric field, Z component, Electric field, x component, Electric field, y component, Electric field, z component, Tangential electric field, x component, Tangential electric field, y component, Tangential electric field, z component, Electric potential
% Length unit:        mm
% x
2
% y
12.2
% z
1
% es.normE (V/m) @ t=0
0.6890277159953422
% es.EX (V/m) @ t=0
-0.4449650472722211
% es.EY (V/m) @ t=0
0.09886052082503444
% es.EZ (V/m) @ t=0
0.5074648886489181
% es.tEX (V/m) @ t=0
-0.4449650472722195
% es.tEY (V/m) @ t=0
0
% es.tEZ (V/m) @ t=0
0.5074648886489239
% es.Ex (V/m) @ t=0
-0.4449650472722211
% es.Ey (V/m) @ t=0
0.09886052082503444
% es.Ez (V/m) @ t=0
0.5074648886489181
% es.tEx (V/m) @ t=0
-0.4449650472722195
% es.tEy (V/m) @ t=0
0
% es.tEz (V/m) @ t=0
0.5074648886489239
% V (V) @ t=0
0.006668442374753461
% es.normE (V/m) @ t=0.1
0.700314513214561
% es.EX (V/m) @ t=0.1
-0.45225391254567104
% es.EY (V/m) @ t=0.1
0.10047993205995581
% es.EZ (V/m) @ t=0.1
0.5157775486378986
% es.tEX (V/m) @ t=0.1
-0.4522539125456677
% es.tEY (V/m) @ t=0.1
0
% es.tEZ (V/m) @ t=0.1
0.5157775486379026
% es.Ex (V/m) @ t=0.1
-0.45225391254567104
% es.Ey (V/m) @ t=0.1
0.10047993205995581
% es.Ez (V/m) @ t=0.1
0.5157775486378986
% es.tEx (V/m) @ t=0.1
-0.4522539125456677
% es.tEy (V/m) @ t=0.1
0
% es.tEz (V/m) @ t=0.1
0.5157775486379026
% V (V) @ t=0.1
0.006777676491766899
% es.normE (V/m) @ t=0.2
0.7335549960955416
% es.EX (V/m) @ t=0.2
-0.47372017959621515
% es.EY (V/m) @ t=0.2
0.10524922055508523
% es.EZ (V/m) @ t=0.2
0.540258969955818
% es.tEX (V/m) @ t=0.2
-0.4737201795962136
% es.tEY (V/m) @ t=0.2
0
% es.tEZ (V/m) @ t=0.2
0.5402589699558202
% es.Ex (V/m) @ t=0.2
-0.47372017959621515
% es.Ey (V/m) @ t=0.2
0.10524922055508523
% es.Ez (V/m) @ t=0.2
0.540258969955818
% es.tEx (V/m) @ t=0.2
-0.4737201795962136
% es.tEy (V/m) @ t=0.2
0
% es.tEz (V/m) @ t=0.2
0.5402589699558202
% V (V) @ t=0.2
0.007099379408858365
% es.normE (V/m) @ t=0.3
0.7680466373806882
% es.EX (V/m) @ t=0.3
-0.4959944290763536
% es.EY (V/m) @ t=0.3
0.11019801493345188
% es.EZ (V/m) @ t=0.3
0.5656618647148677
% es.tEX (V/m) @ t=0.3
-0.49599442907635183
% es.tEY (V/m) @ t=0.3
0
% es.tEZ (V/m) @ t=0.3
0.5656618647148717
% es.Ex (V/m) @ t=0.3
-0.4959944290763536
% es.Ey (V/m) @ t=0.3
0.11019801493345188
% es.Ez (V/m) @ t=0.3
0.5656618647148677
% es.tEx (V/m) @ t=0.3
-0.49599442907635183
% es.tEy (V/m) @ t=0.3
0
% es.tEz (V/m) @ t=0.3
0.5656618647148717
% V (V) @ t=0.3
0.007433191436127564
% es.normE (V/m) @ t=0.4
0.8042878409106384
% es.EX (V/m) @ t=0.4
-0.5193985223821691
% es.EY (V/m) @ t=0.4
0.11539783904903689
% es.EZ (V/m) @ t=0.4
0.5923533000730385
% es.tEX (V/m) @ t=0.4
-0.5193985223821691
% es.tEY (V/m) @ t=0.4
0
% es.tEZ (V/m) @ t=0.4
0.5923533000730443
% es.Ex (V/m) @ t=0.4
-0.5193985223821691
% es.Ey (V/m) @ t=0.4
0.11539783904903689
% es.Ez (V/m) @ t=0.4
0.5923533000730385
% es.tEx (V/m) @ t=0.4
-0.5193985223821691
% es.tEy (V/m) @ t=0.4
0
% es.tEz (V/m) @ t=0.4
0.5923533000730443
% V (V) @ t=0.4
0.007783935575529926
% es.normE (V/m) @ t=0.5
0.8419406141274693
% es.EX (V/m) @ t=0.5
-0.5437142243078643
% es.EY (V/m) @ t=0.5
0.1207997493761635
% es.EZ (V/m) @ t=0.5
0.6200844942442867
% es.tEX (V/m) @ t=0.5
-0.5437142243078625
% es.tEY (V/m) @ t=0.5
0
% es.tEZ (V/m) @ t=0.5
0.6200844942442938
% es.Ex (V/m) @ t=0.5
-0.5437142243078643
% es.Ey (V/m) @ t=0.5
0.1207997493761635
% es.Ez (V/m) @ t=0.5
0.6200844942442867
% es.tEx (V/m) @ t=0.5
-0.5437142243078625
% es.tEy (V/m) @ t=0.5
0
% es.tEz (V/m) @ t=0.5
0.6200844942442938
% V (V) @ t=0.5
0.008148359948736606
% es.normE (V/m) @ t=0.6
0.8837729564031036
% es.EX (V/m) @ t=0.6
-0.5707291945304853
% es.EY (V/m) @ t=0.6
0.1267993682566313
% es.EZ (V/m) @ t=0.6
0.6508945647845552
% es.tEX (V/m) @ t=0.6
-0.5707291945304833
% es.tEY (V/m) @ t=0.6
0
% es.tEZ (V/m) @ t=0.6
0.6508945647845596
% es.Ex (V/m) @ t=0.6
-0.5707291945304853
% es.Ey (V/m) @ t=0.6
0.1267993682566313
% es.Ez (V/m) @ t=0.6
0.6508945647845552
% es.tEx (V/m) @ t=0.6
-0.5707291945304833
% es.tEy (V/m) @ t=0.6
0
% es.tEz (V/m) @ t=0.6
0.6508945647845596
% V (V) @ t=0.6
0.008553318734171053
% es.normE (V/m) @ t=0.7
0.9256052986915989
% es.EX (V/m) @ t=0.7
-0.5977441647531065
% es.EY (V/m) @ t=0.7
0.13279898713709298
% es.EZ (V/m) @ t=0.7
0.6817046353247989
% es.tEX (V/m) @ t=0.7
-0.5977441647531045
% es.tEY (V/m) @ t=0.7
0
% es.tEZ (V/m) @ t=0.7
0.6817046353248024
% es.Ex (V/m) @ t=0.7
-0.5977441647531065
% es.Ey (V/m) @ t=0.7
0.13279898713709298
% es.Ez (V/m) @ t=0.7
0.6817046353247989
% es.tEx (V/m) @ t=0.7
-0.5977441647531045
% es.tEy (V/m) @ t=0.7
0
% es.tEz (V/m) @ t=0.7
0.6817046353248024
% V (V) @ t=0.7
0.0089582775196055
% es.normE (V/m) @ t=0.8
0.9674376409913181
% es.EX (V/m) @ t=0.8
-0.6247591349757278
% es.EY (V/m) @ t=0.8
0.13879860601756622
% es.EZ (V/m) @ t=0.8
0.7125147058650629
% es.tEX (V/m) @ t=0.8
-0.6247591349757291
% es.tEY (V/m) @ t=0.8
0
% es.tEZ (V/m) @ t=0.8
0.7125147058650922
% es.Ex (V/m) @ t=0.8
-0.6247591349757278
% es.Ey (V/m) @ t=0.8
0.13879860601756622
% es.Ez (V/m) @ t=0.8
0.7125147058650629
% es.tEx (V/m) @ t=0.8
-0.6247591349757291
% es.tEy (V/m) @ t=0.8
0
% es.tEz (V/m) @ t=0.8
0.7125147058650922
% V (V) @ t=0.8
0.009363236305039949
% es.normE (V/m) @ t=0.9
1.0142908252604588
% es.EX (V/m) @ t=0.9
-0.6550161650403172
% es.EY (V/m) @ t=0.9
0.14552278613028202
% es.EZ (V/m) @ t=0.9
0.7470212209839513
% es.tEX (V/m) @ t=0.9
-0.6550161650403186
% es.tEY (V/m) @ t=0.9
0
% es.tEZ (V/m) @ t=0.9
0.7470212209839655
% es.Ex (V/m) @ t=0.9
-0.6550161650403172
% es.Ey (V/m) @ t=0.9
0.14552278613028202
% es.Ez (V/m) @ t=0.9
0.7470212209839513
% es.tEx (V/m) @ t=0.9
-0.6550161650403186
% es.tEy (V/m) @ t=0.9
0
% es.tEz (V/m) @ t=0.9
0.7470212209839655
% V (V) @ t=0.9
0.009816607962083383
% es.normE (V/m) @ t=1
1.061275773679913
% es.EX (V/m) @ t=1
-0.6853582778921112
% es.EY (V/m) @ t=1
0.15226598121870616
% es.EZ (V/m) @ t=1
0.781624743506411
% es.tEX (V/m) @ t=1
-0.6853582778921088
% es.tEY (V/m) @ t=1
0
% es.tEZ (V/m) @ t=1
0.7816247435064225
% es.Ex (V/m) @ t=1
-0.6853582778921112
% es.Ey (V/m) @ t=1
0.15226598121870616
% es.Ez (V/m) @ t=1
0.781624743506411
% es.tEx (V/m) @ t=1
-0.6853582778921088
% es.tEy (V/m) @ t=1
0
% es.tEz (V/m) @ t=1
0.7816247435064225
% V (V) @ t=1
0.010271250139183091
% es.normE (V/m) @ t=1.1
1.1090753238262654
% es.EX (V/m) @ t=1.1
-0.7162264739332231
% es.EY (V/m) @ t=1.1
0.1591256801501939
% es.EZ (V/m) @ t=1.1
0.8168283441947786
% es.tEX (V/m) @ t=1.1
-0.7162264739332207
% es.tEY (V/m) @ t=1.1
0
% es.tEZ (V/m) @ t=1.1
0.8168283441947866
% es.Ex (V/m) @ t=1.1
-0.7162264739332231
% es.Ey (V/m) @ t=1.1
0.1591256801501939
% es.Ez (V/m) @ t=1.1
0.8168283441947786
% es.tEx (V/m) @ t=1.1
-0.7162264739332207
% es.tEy (V/m) @ t=1.1
0
% es.tEz (V/m) @ t=1.1
0.8168283441947866
% V (V) @ t=1.1
0.01073379249300099
% es.normE (V/m) @ t=1.2
1.16198272358488
% es.EX (V/m) @ t=1.2
-0.7503934032724089
% es.EY (V/m) @ t=1.2
0.16671590063082153
% es.EZ (V/m) @ t=1.2
0.8557946536477781
% es.tEX (V/m) @ t=1.2
-0.75039340327241
% es.tEY (V/m) @ t=1.2
0
% es.tEZ (V/m) @ t=1.2
0.855794653647779
% es.Ex (V/m) @ t=1.2
-0.7503934032724089
% es.Ey (V/m) @ t=1.2
0.16671590063082153
% es.Ez (V/m) @ t=1.2
0.8557946536477781
% es.tEx (V/m) @ t=1.2
-0.75039340327241
% es.tEy (V/m) @ t=1.2
0
% es.tEz (V/m) @ t=1.2
0.855794653647779
% V (V) @ t=1.2
0.011245871833610623
% es.normE (V/m) @ t=1.3
1.2148901233444211
% es.EX (V/m) @ t=1.3
-0.7845603326115982
% es.EY (V/m) @ t=1.3
0.1743061211114577
% es.EZ (V/m) @ t=1.3
0.8947609631007616
% es.tEX (V/m) @ t=1.3
-0.7845603326115955
% es.tEY (V/m) @ t=1.3
0
% es.tEZ (V/m) @ t=1.3
0.8947609631007722
% es.Ex (V/m) @ t=1.3
-0.7845603326115982
% es.Ey (V/m) @ t=1.3
0.1743061211114577
% es.Ez (V/m) @ t=1.3
0.8947609631007616
% es.tEx (V/m) @ t=1.3
-0.7845603326115955
% es.tEy (V/m) @ t=1.3
0
% es.tEz (V/m) @ t=1.3
0.8947609631007722
% V (V) @ t=1.3
0.01175795117422025
% es.normE (V/m) @ t=1.4
1.2698281312789812
% es.EX (V/m) @ t=1.4
-0.8200386214174373
% es.EY (V/m) @ t=1.4
0.1821877847693686
% es.EZ (V/m) @ t=1.4
0.9352227458709503
% es.tEX (V/m) @ t=1.4
-0.8200386214174382
% es.tEY (V/m) @ t=1.4
0
% es.tEZ (V/m) @ t=1.4
0.9352227458709548
% es.Ex (V/m) @ t=1.4
-0.8200386214174373
% es.Ey (V/m) @ t=1.4
0.1821877847693686
% es.Ez (V/m) @ t=1.4
0.9352227458709503
% es.tEx (V/m) @ t=1.4
-0.8200386214174382
% es.tEy (V/m) @ t=1.4
0
% es.tEz (V/m) @ t=1.4
0.9352227458709548
% V (V) @ t=1.4
0.012289676865072461
% es.normE (V/m) @ t=1.5
1.3294893282202005
% es.EX (V/m) @ t=1.5
-0.8585671287217762
% es.EY (V/m) @ t=1.5
0.19074734445295605
% es.EZ (V/m) @ t=1.5
0.9791629954477008
% es.tEX (V/m) @ t=1.5
-0.8585671287217735
% es.tEY (V/m) @ t=1.5
0
% es.tEZ (V/m) @ t=1.5
0.9791629954477088
% es.Ex (V/m) @ t=1.5
-0.8585671287217762
% es.Ey (V/m) @ t=1.5
0.19074734445295605
% es.Ez (V/m) @ t=1.5
0.9791629954477008
% es.tEx (V/m) @ t=1.5
-0.8585671287217735
% es.tEy (V/m) @ t=1.5
0
% es.tEz (V/m) @ t=1.5
0.9791629954477088
% V (V) @ t=1.5
0.012867099912341291
% es.normE (V/m) @ t=1.6
1.3891505251615213
% es.EX (V/m) @ t=1.6
-0.8970956360261191
% es.EY (V/m) @ t=1.6
0.19930690413654018
% es.EZ (V/m) @ t=1.6
1.0231032450244264
% es.tEX (V/m) @ t=1.6
-0.89709563602612
% es.tEY (V/m) @ t=1.6
0
% es.tEZ (V/m) @ t=1.6
1.0231032450244415
% es.Ex (V/m) @ t=1.6
-0.8970956360261191
% es.Ey (V/m) @ t=1.6
0.19930690413654018
% es.Ez (V/m) @ t=1.6
1.0231032450244264
% es.tEx (V/m) @ t=1.6
-0.89709563602612
% es.tEy (V/m) @ t=1.6
0
% es.tEz (V/m) @ t=1.6
1.0231032450244415
% V (V) @ t=1.6
0.013444522959610126
% es.normE (V/m) @ t=1.7
1.4505078152035404
% es.EX (V/m) @ t=1.7
-0.9367194247301884
% es.EY (V/m) @ t=1.7
0.20811011552037118
% es.EZ (V/m) @ t=1.7
1.0682925679199462
% es.tEX (V/m) @ t=1.7
-0.9367194247301849
% es.tEY (V/m) @ t=1.7
0
% es.tEZ (V/m) @ t=1.7
1.0682925679199649
% es.Ex (V/m) @ t=1.7
-0.9367194247301884
% es.Ey (V/m) @ t=1.7
0.20811011552037118
% es.Ez (V/m) @ t=1.7
1.0682925679199462
% es.tEx (V/m) @ t=1.7
-0.9367194247301849
% es.tEy (V/m) @ t=1.7
0
% es.tEz (V/m) @ t=1.7
1.0682925679199649
% V (V) @ t=1.7
0.01403834871469732
% es.normE (V/m) @ t=1.8
1.5154479889620653
% es.EX (V/m) @ t=1.8
-0.978656922445964
% es.EY (V/m) @ t=1.8
0.21742802489389135
% es.EZ (V/m) @ t=1.8
1.1161204750137168
% es.tEX (V/m) @ t=1.8
-0.9786569224459645
% es.tEY (V/m) @ t=1.8
0
% es.tEZ (V/m) @ t=1.8
1.1161204750137106
% es.Ex (V/m) @ t=1.8
-0.978656922445964
% es.Ey (V/m) @ t=1.8
0.21742802489389135
% es.Ez (V/m) @ t=1.8
1.1161204750137168
% es.tEx (V/m) @ t=1.8
-0.9786569224459645
% es.tEy (V/m) @ t=1.8
0
% es.tEz (V/m) @ t=1.8
1.1161204750137106
% V (V) @ t=1.8
0.014666824097638746
% es.normE (V/m) @ t=1.9
1.5826041529933437
% es.EX (V/m) @ t=1.9
-1.0220254341344766
% es.EY (V/m) @ t=1.9
0.2270642716258291
% es.EZ (V/m) @ t=1.9
1.165580329269722
% es.tEX (V/m) @ t=1.9
-1.0220254341344766
% es.tEY (V/m) @ t=1.9
0
% es.tEZ (V/m) @ t=1.9
1.16558032926973
% es.Ex (V/m) @ t=1.9
-1.0220254341344766
% es.Ey (V/m) @ t=1.9
0.2270642716258291
% es.Ez (V/m) @ t=1.9
1.165580329269722
% es.tEx (V/m) @ t=1.9
-1.0220254341344766
% es.tEy (V/m) @ t=1.9
0
% es.tEz (V/m) @ t=1.9
1.16558032926973
% V (V) @ t=1.9
0.015316730050007131
% es.normE (V/m) @ t=2
1.6519763072989293
% es.EX (V/m) @ t=2
-1.0668249597957278
% es.EY (V/m) @ t=2
0.23701885571623205
% es.EZ (V/m) @ t=2
1.2166721306879902
% es.tEX (V/m) @ t=2
-1.0668249597957278
% es.tEY (V/m) @ t=2
0
% es.tEZ (V/m) @ t=2
1.2166721306880053
% es.Ex (V/m) @ t=2
-1.0668249597957278
% es.Ey (V/m) @ t=2
0.23701885571623205
% es.Ez (V/m) @ t=2
1.2166721306879902
% es.tEx (V/m) @ t=2
-1.0668249597957278
% es.tEy (V/m) @ t=2
0
% es.tEz (V/m) @ t=2
1.2166721306880053
% V (V) @ t=2
0.015988066571802483
% es.normE (V/m) @ t=2.1
1.7235644518806668
% es.EX (V/m) @ t=2.1
-1.113055499429711
% es.EY (V/m) @ t=2.1
0.24729177716505424
% es.EZ (V/m) @ t=2.1
1.2693958792685276
% es.tEX (V/m) @ t=2.1
-1.1130554994297075
% es.tEY (V/m) @ t=2.1
0
% es.tEZ (V/m) @ t=2.1
1.269395879268533
% es.Ex (V/m) @ t=2.1
-1.113055499429711
% es.Ey (V/m) @ t=2.1
0.24729177716505424
% es.Ez (V/m) @ t=2.1
1.2693958792685276
% es.tEx (V/m) @ t=2.1
-1.1130554994297075
% es.tEy (V/m) @ t=2.1
0
% es.tEz (V/m) @ t=2.1
1.269395879268533
% V (V) @ t=2.1
0.016680833663024797
% es.normE (V/m) @ t=2.2
1.7973685867406104
% es.EX (V/m) @ t=2.2
-1.160717053036413
% es.EY (V/m) @ t=2.2
0.2578830359723241
% es.EZ (V/m) @ t=2.2
1.3237515750112845
% es.tEX (V/m) @ t=2.2
-1.160717053036409
% es.tEY (V/m) @ t=2.2
0
% es.tEZ (V/m) @ t=2.2
1.3237515750113005
% es.Ex (V/m) @ t=2.2
-1.160717053036413
% es.Ey (V/m) @ t=2.2
0.2578830359723241
% es.Ez (V/m) @ t=2.2
1.3237515750112845
% es.tEx (V/m) @ t=2.2
-1.160717053036409
% es.tEy (V/m) @ t=2.2
0
% es.tEz (V/m) @ t=2.2
1.3237515750113005
% V (V) @ t=2.2
0.01739503132367408
% es.normE (V/m) @ t=2.3
1.8755272766585636
% es.EX (V/m) @ t=2.3
-1.211190776282383
% es.EY (V/m) @ t=2.3
0.2690986634874566
% es.EZ (V/m) @ t=2.3
1.381314490341234
% es.tEX (V/m) @ t=2.3
-1.2111907762823861
% es.tEY (V/m) @ t=2.3
0
% es.tEZ (V/m) @ t=2.3
1.3813144903412393
% es.Ex (V/m) @ t=2.3
-1.211190776282383
% es.Ey (V/m) @ t=2.3
0.2690986634874566
% es.Ez (V/m) @ t=2.3
1.381314490341234
% es.tEx (V/m) @ t=2.3
-1.2111907762823861
% es.tEy (V/m) @ t=2.3
0
% es.tEz (V/m) @ t=2.3
1.3813144903412393
% V (V) @ t=2.3
0.01815138883211901
% es.normE (V/m) @ t=2.4
1.9572200413639855
% es.EX (V/m) @ t=2.4
-1.2639467759496923
% es.EY (V/m) @ t=2.4
0.2808212479367218
% es.EZ (V/m) @ t=2.4
1.4414802573405403
% es.tEX (V/m) @ t=2.4
-1.2639467759496883
% es.tEY (V/m) @ t=2.4
0
% es.tEZ (V/m) @ t=2.4
1.441480257340542
% es.Ex (V/m) @ t=2.4
-1.2639467759496923
% es.Ey (V/m) @ t=2.4
0.2808212479367218
% es.Ez (V/m) @ t=2.4
1.4414802573405403
% es.tEx (V/m) @ t=2.4
-1.2639467759496883
% es.tEy (V/m) @ t=2.4
0
% es.tEz (V/m) @ t=2.4
1.441480257340542
% V (V) @ t=2.4
0.018941953207905485
% es.normE (V/m) @ t=2.5
2.0419663869978386
% es.EX (V/m) @ t=2.5
-1.31867473325691
% es.EY (V/m) @ t=2.5
0.2929820300356889
% es.EZ (V/m) @ t=2.5
1.5038949429724564
% es.tEX (V/m) @ t=2.5
-1.3186747332569055
% es.tEY (V/m) @ t=2.5
0
% es.tEZ (V/m) @ t=2.5
1.5038949429724866
% es.Ex (V/m) @ t=2.5
-1.31867473325691
% es.Ey (V/m) @ t=2.5
0.2929820300356889
% es.Ez (V/m) @ t=2.5
1.5038949429724564
% es.tEx (V/m) @ t=2.5
-1.3186747332569055
% es.tEy (V/m) @ t=2.5
0
% es.tEz (V/m) @ t=2.5
1.5038949429724866
% V (V) @ t=2.5
0.019762066985869332
% es.normE (V/m) @ t=2.6
2.1297663135601343
% es.EX (V/m) @ t=2.6
-1.375374648204037
% es.EY (V/m) @ t=2.6
0.3055810097842908
% es.EZ (V/m) @ t=2.6
1.5685585472369503
% es.tEX (V/m) @ t=2.6
-1.375374648204032
% es.tEY (V/m) @ t=2.6
0
% es.tEZ (V/m) @ t=2.6
1.568558547236952
% es.Ex (V/m) @ t=2.6
-1.375374648204037
% es.Ey (V/m) @ t=2.6
0.3055810097842908
% es.Ez (V/m) @ t=2.6
1.5685585472369503
% es.tEx (V/m) @ t=2.6
-1.375374648204032
% es.tEy (V/m) @ t=2.6
0
% es.tEz (V/m) @ t=2.6
1.568558547236952
% V (V) @ t=2.6
0.02061173016601056
% es.normE (V/m) @ t=2.7
2.2206198210509283
% es.EX (V/m) @ t=2.7
-1.4340465207910724
% es.EY (V/m) @ t=2.7
0.31861818718259327
% es.EZ (V/m) @ t=2.7
1.6354710701340167
% es.tEX (V/m) @ t=2.7
-1.4340465207910746
% es.tEY (V/m) @ t=2.7
0
% es.tEZ (V/m) @ t=2.7
1.6354710701340398
% es.Ex (V/m) @ t=2.7
-1.4340465207910724
% es.Ey (V/m) @ t=2.7
0.31861818718259327
% es.Ez (V/m) @ t=2.7
1.6354710701340167
% es.tEx (V/m) @ t=2.7
-1.4340465207910746
% es.tEy (V/m) @ t=2.7
0
% es.tEz (V/m) @ t=2.7
1.6354710701340398
% V (V) @ t=2.7
0.02149094274832916
% es.normE (V/m) @ t=2.8
2.314735665275168
% es.EX (V/m) @ t=2.8
-1.494825184846842
% es.EY (V/m) @ t=2.8
0.33212322903129077
% es.EZ (V/m) @ t=2.8
1.7047863536859857
% es.tEX (V/m) @ t=2.8
-1.4948251848468366
% es.tEY (V/m) @ t=2.8
0
% es.tEZ (V/m) @ t=2.8
1.7047863536859875
% es.Ex (V/m) @ t=2.8
-1.494825184846842
% es.Ey (V/m) @ t=2.8
0.33212322903129077
% es.Ez (V/m) @ t=2.8
1.7047863536859857
% es.tEx (V/m) @ t=2.8
-1.4948251848468366
% es.tEy (V/m) @ t=2.8
0
% es.tEz (V/m) @ t=2.8
1.7047863536859875
% V (V) @ t=2.8
0.022401737346118465
% es.normE (V/m) @ t=2.9
2.4138383420169536
% es.EX (V/m) @ t=2.9
-1.5588244794307835
% es.EY (V/m) @ t=2.9
0.34634120766654886
% es.EZ (V/m) @ t=2.9
1.7777752603675534
% es.tEX (V/m) @ t=2.9
-1.558824479430771
% es.tEY (V/m) @ t=2.9
0
% es.tEZ (V/m) @ t=2.9
1.7777752603675818
% es.Ex (V/m) @ t=2.9
-1.5588244794307835
% es.Ey (V/m) @ t=2.9
0.34634120766654886
% es.Ez (V/m) @ t=2.9
1.7777752603675534
% es.tEx (V/m) @ t=2.9
-1.558824479430771
% es.tEy (V/m) @ t=2.9
0
% es.tEz (V/m) @ t=2.9
1.7777752603675818
% V (V) @ t=2.9
0.023360905028050098
% es.normE (V/m) @ t=3
2.516614908665731
% es.EX (V/m) @ t=3
-1.6251963846297555
% es.EY (V/m) @ t=3
0.3610855375854234
% es.EZ (V/m) @ t=3
1.8534702206933922
% es.tEX (V/m) @ t=3
-1.6251963846297572
% es.tEY (V/m) @ t=3
0
% es.tEZ (V/m) @ t=3
1.8534702206934437
% es.Ex (V/m) @ t=3
-1.6251963846297555
% es.Ey (V/m) @ t=3
0.3610855375854234
% es.Ez (V/m) @ t=3
1.8534702206933922
% es.tEx (V/m) @ t=3
-1.6251963846297572
% es.tEy (V/m) @ t=3
0
% es.tEz (V/m) @ t=3
1.8534702206934437
% V (V) @ t=3
0.02435566193592137
% es.normE (V/m) @ t=3.1
2.6230653652255027
% es.EX (V/m) @ t=3.1
-1.6939409004437502
% es.EY (V/m) @ t=3.1
0.37635621878778025
% es.EZ (V/m) @ t=3.1
1.9318712346635891
% es.tEX (V/m) @ t=3.1
-1.6939409004437511
% es.tEY (V/m) @ t=3.1
0
% es.tEZ (V/m) @ t=3.1
1.9318712346636193
% es.Ex (V/m) @ t=3.1
-1.6939409004437502
% es.Ey (V/m) @ t=3.1
0.37635621878778025
% es.Ez (V/m) @ t=3.1
1.9318712346635891
% es.tEx (V/m) @ t=3.1
-1.6939409004437511
% es.tEy (V/m) @ t=3.1
0
% es.tEz (V/m) @ t=3.1
1.9318712346636193
% V (V) @ t=3.1
0.025386008069732305
% es.normE (V/m) @ t=3.2
2.733189711701013
% es.EX (V/m) @ t=3.2
-1.7650580268727838
% es.EY (V/m) @ t=3.2
0.3921532512736583
% es.EZ (V/m) @ t=3.2
2.012978302278082
% es.tEX (V/m) @ t=3.2
-1.7650580268727776
% es.tEY (V/m) @ t=3.2
0
% es.tEZ (V/m) @ t=3.2
2.012978302278098
% es.Ex (V/m) @ t=3.2
-1.7650580268727838
% es.Ey (V/m) @ t=3.2
0.3921532512736583
% es.Ez (V/m) @ t=3.2
2.012978302278082
% es.tEx (V/m) @ t=3.2
-1.7650580268727776
% es.tEy (V/m) @ t=3.2
0
% es.tEz (V/m) @ t=3.2
2.012978302278098
% V (V) @ t=3.2
0.026451943429482885
% es.normE (V/m) @ t=3.3
2.8469879480976052
% es.EX (V/m) @ t=3.3
-1.838547763916817
% es.EY (V/m) @ t=3.3
0.4084766350430362
% es.EZ (V/m) @ t=3.3
2.0967914235368497
% es.tEX (V/m) @ t=3.3
-1.8385477639168117
% es.tEY (V/m) @ t=3.3
0
% es.tEZ (V/m) @ t=3.3
2.0967914235368657
% es.Ex (V/m) @ t=3.3
-1.838547763916817
% es.Ey (V/m) @ t=3.3
0.4084766350430362
% es.Ez (V/m) @ t=3.3
2.0967914235368497
% es.tEx (V/m) @ t=3.3
-1.8385477639168117
% es.tEy (V/m) @ t=3.3
0
% es.tEz (V/m) @ t=3.3
2.0967914235368657
% V (V) @ t=3.3
0.027553468015173138
% es.normE (V/m) @ t=3.4
2.964645141236957
% es.EX (V/m) @ t=3.4
-1.9145294658731293
% es.EY (V/m) @ t=3.4
0.42535493472562935
% es.EZ (V/m) @ t=3.4
2.1834462353868265
% es.tEX (V/m) @ t=3.4
-1.9145294658731222
% es.tEY (V/m) @ t=3.4
0
% es.tEZ (V/m) @ t=3.4
2.1834462353868425
% es.Ex (V/m) @ t=3.4
-1.9145294658731293
% es.Ey (V/m) @ t=3.4
0.42535493472562935
% es.Ez (V/m) @ t=3.4
2.1834462353868265
% es.tEx (V/m) @ t=3.4
-1.9145294658731222
% es.tEy (V/m) @ t=3.4
0
% es.tEz (V/m) @ t=3.4
2.1834462353868425
% V (V) @ t=3.4
0.02869228662974176
% es.normE (V/m) @ t=3.5
3.0863080470777726
% es.EX (V/m) @ t=3.5
-1.9930977793977869
% es.EY (V/m) @ t=3.5
0.44281080176119025
% es.EZ (V/m) @ t=3.5
2.273050296447648
% es.tEX (V/m) @ t=3.5
-1.9930977793977878
% es.tEY (V/m) @ t=3.5
0
% es.tEZ (V/m) @ t=3.5
2.273050296447664
% es.Ex (V/m) @ t=3.5
-1.9930977793977869
% es.Ey (V/m) @ t=3.5
0.44281080176119025
% es.Ez (V/m) @ t=3.5
2.273050296447648
% es.tEx (V/m) @ t=3.5
-1.9930977793977878
% es.tEy (V/m) @ t=3.5
0
% es.tEz (V/m) @ t=3.5
2.273050296447664
% V (V) @ t=3.5
0.029869751163327102
% es.normE (V/m) @ t=3.6
3.2117816091320375
% es.EX (V/m) @ t=3.6
-2.0741269076023725
% es.EY (V/m) @ t=3.6
0.46081412963819113
% es.EZ (V/m) @ t=3.6
2.365460648264804
% es.tEX (V/m) @ t=3.6
-2.0741269076023654
% es.tEY (V/m) @ t=3.6
0
% es.tEZ (V/m) @ t=3.6
2.3654606482648273
% es.Ex (V/m) @ t=3.6
-2.0741269076023725
% es.Ey (V/m) @ t=3.6
0.46081412963819113
% es.Ez (V/m) @ t=3.6
2.365460648264804
% es.tEx (V/m) @ t=3.6
-2.0741269076023654
% es.tEy (V/m) @ t=3.6
0
% es.tEz (V/m) @ t=3.6
2.3654606482648273
% V (V) @ t=3.6
0.03108406478992459
% es.normE (V/m) @ t=3.7
3.3410658274010063
% es.EX (V/m) @ t=3.7
-2.15761685048688
% es.EY (V/m) @ t=3.7
0.4793649183565729
% es.EZ (V/m) @ t=3.7
2.4606772908383476
% es.tEX (V/m) @ t=3.7
-2.157616850486873
% es.tEY (V/m) @ t=3.7
0
% es.tEZ (V/m) @ t=3.7
2.4606772908383476
% es.Ex (V/m) @ t=3.7
-2.15761685048688
% es.Ey (V/m) @ t=3.7
0.4793649183565729
% es.Ez (V/m) @ t=3.7
2.4606772908383476
% es.tEx (V/m) @ t=3.7
-2.157616850486873
% es.tEy (V/m) @ t=3.7
0
% es.tEz (V/m) @ t=3.7
2.4606772908383476
% V (V) @ t=3.7
0.0323352275095342
% es.normE (V/m) @ t=3.8
3.4741607018866554
% es.EX (V/m) @ t=3.8
-2.243567608051327
% es.EY (V/m) @ t=3.8
0.4984631679163438
% es.EZ (V/m) @ t=3.8
2.5587002241681844
% es.tEX (V/m) @ t=3.8
-2.243567608051319
% es.tEY (V/m) @ t=3.8
0
% es.tEZ (V/m) @ t=3.8
2.558700224168163
% es.Ex (V/m) @ t=3.8
-2.243567608051327
% es.Ey (V/m) @ t=3.8
0.4984631679163438
% es.Ez (V/m) @ t=3.8
2.5587002241681844
% es.tEx (V/m) @ t=3.8
-2.243567608051319
% es.tEy (V/m) @ t=3.8
0
% es.tEz (V/m) @ t=3.8
2.558700224168163
% V (V) @ t=3.8
0.03362323932215594
% es.normE (V/m) @ t=3.9
3.611066232591729
% es.EX (V/m) @ t=3.9
-2.3319791802956775
% es.EY (V/m) @ t=3.9
0.5181088783176107
% es.EZ (V/m) @ t=3.9
2.6595294482543927
% es.tEX (V/m) @ t=3.9
-2.3319791802956695
% es.tEY (V/m) @ t=3.9
0
% es.tEZ (V/m) @ t=3.9
2.6595294482544283
% es.Ex (V/m) @ t=3.9
-2.3319791802956775
% es.Ey (V/m) @ t=3.9
0.5181088783176107
% es.Ez (V/m) @ t=3.9
2.6595294482543927
% es.tEx (V/m) @ t=3.9
-2.3319791802956695
% es.tEy (V/m) @ t=3.9
0
% es.tEz (V/m) @ t=3.9
2.6595294482544283
% V (V) @ t=3.9
0.03494810022778981
% es.normE (V/m) @ t=4
3.750540255000975
% es.EX (V/m) @ t=4
-2.422049601094332
% es.EY (V/m) @ t=4
0.5381212147056984
% es.EZ (V/m) @ t=4
2.7622509770924033
% es.tEX (V/m) @ t=4
-2.422049601094324
% es.tEY (V/m) @ t=4
0
% es.tEZ (V/m) @ t=4
2.7622509770924495
% es.Ex (V/m) @ t=4
-2.422049601094332
% es.Ey (V/m) @ t=4
0.5381212147056984
% es.Ez (V/m) @ t=4
2.7622509770924033
% es.tEx (V/m) @ t=4
-2.422049601094324
% es.tEy (V/m) @ t=4
0
% es.tEz (V/m) @ t=4
2.7622509770924495
% V (V) @ t=4
0.036297900400917765
% es.normE (V/m) @ t=4.1
3.892735071912351
% es.EX (V/m) @ t=4.1
-2.5138772001658634
% es.EY (V/m) @ t=4.1
0.5585223493891851
% es.EZ (V/m) @ t=4.1
2.8669768752492892
% es.tEX (V/m) @ t=4.1
-2.5138772001658696
% es.tEY (V/m) @ t=4.1
0
% es.tEZ (V/m) @ t=4.1
2.866976875249346
% es.Ex (V/m) @ t=4.1
-2.5138772001658634
% es.Ey (V/m) @ t=4.1
0.5585223493891851
% es.Ez (V/m) @ t=4.1
2.8669768752492892
% es.tEx (V/m) @ t=4.1
-2.5138772001658696
% es.tEy (V/m) @ t=4.1
0
% es.tEz (V/m) @ t=4.1
2.866976875249346
% V (V) @ t=4.1
0.03767410011492959
% es.normE (V/m) @ t=4.2
4.037816141560158
% es.EX (V/m) @ t=4.2
-2.607568800637484
% es.EY (V/m) @ t=4.2
0.5793363698501861
% es.EZ (V/m) @ t=4.2
2.97382888707309
% es.tEX (V/m) @ t=4.2
-2.6075688006374893
% es.tEY (V/m) @ t=4.2
0
% es.tEZ (V/m) @ t=4.2
2.97382888707309
% es.Ex (V/m) @ t=4.2
-2.607568800637484
% es.Ey (V/m) @ t=4.2
0.5793363698501861
% es.Ez (V/m) @ t=4.2
2.97382888707309
% es.tEx (V/m) @ t=4.2
-2.6075688006374893
% es.tEy (V/m) @ t=4.2
0
% es.tEz (V/m) @ t=4.2
2.97382888707309
% V (V) @ t=4.2
0.03907828577698639
% es.normE (V/m) @ t=4.3
4.1856592575847245
% es.EX (V/m) @ t=4.3
-2.7030442124093064
% es.EY (V/m) @ t=4.3
0.6005451940716533
% es.EZ (V/m) @ t=4.3
3.0827156213858125
% es.tEX (V/m) @ t=4.3
-2.7030442124092975
% es.tEY (V/m) @ t=4.3
0
% es.tEZ (V/m) @ t=4.3
3.0827156213858267
% es.Ex (V/m) @ t=4.3
-2.7030442124093064
% es.Ey (V/m) @ t=4.3
0.6005451940716533
% es.Ez (V/m) @ t=4.3
3.0827156213858125
% es.tEx (V/m) @ t=4.3
-2.7030442124092975
% es.tEy (V/m) @ t=4.3
0
% es.tEz (V/m) @ t=4.3
3.0827156213858267
% V (V) @ t=4.3
0.040509266501256365
% es.normE (V/m) @ t=4.4
4.336140213630802
% es.EX (V/m) @ t=4.4
-2.800223245381626
% es.EY (V/m) @ t=4.4
0.6221307400368072
% es.EZ (V/m) @ t=4.4
3.193545687009575
% es.tEX (V/m) @ t=4.4
-2.8002232453816305
% es.tEY (V/m) @ t=4.4
0
% es.tEZ (V/m) @ t=4.4
3.1935456870096353
% es.Ex (V/m) @ t=4.4
-2.800223245381626
% es.Ey (V/m) @ t=4.4
0.6221307400368072
% es.Ez (V/m) @ t=4.4
3.193545687009575
% es.tEx (V/m) @ t=4.4
-2.8002232453816305
% es.tEy (V/m) @ t=4.4
0
% es.tEz (V/m) @ t=4.4
3.1935456870096353
% V (V) @ t=4.4
0.04196585140190776
% es.normE (V/m) @ t=4.5
4.488876435523446
% es.EX (V/m) @ t=4.5
-2.898858831808563
% es.EY (V/m) @ t=4.5
0.6440382021851812
% es.EZ (V/m) @ t=4.5
3.3060372917383134
% es.tEX (V/m) @ t=4.5
-2.8988588318085675
% es.tEY (V/m) @ t=4.5
0
% es.tEZ (V/m) @ t=4.5
3.3060372917383454
% es.Ex (V/m) @ t=4.5
-2.898858831808563
% es.Ey (V/m) @ t=4.5
0.6440382021851812
% es.Ez (V/m) @ t=4.5
3.3060372917383134
% es.tEx (V/m) @ t=4.5
-2.8988588318085675
% es.tEy (V/m) @ t=4.5
0
% es.tEz (V/m) @ t=4.5
3.3060372917383454
% V (V) @ t=4.5
0.043444334239616675
% es.normE (V/m) @ t=4.6
4.6407173088979095
% es.EX (V/m) @ t=4.6
-2.9969160496348017
% es.EY (V/m) @ t=4.6
0.6658193349279626
% es.EZ (V/m) @ t=4.6
3.4178687698013803
% es.tEX (V/m) @ t=4.6
-2.996916049634792
% es.tEY (V/m) @ t=4.6
0
% es.tEZ (V/m) @ t=4.6
3.4178687698014407
% es.Ex (V/m) @ t=4.6
-2.9969160496348017
% es.Ey (V/m) @ t=4.6
0.6658193349279626
% es.Ez (V/m) @ t=4.6
3.4178687698013803
% es.tEx (V/m) @ t=4.6
-2.996916049634792
% es.tEy (V/m) @ t=4.6
0
% es.tEz (V/m) @ t=4.6
3.4178687698014407
% V (V) @ t=4.6
0.04491406037490931
% es.normE (V/m) @ t=4.7
4.79314920556861
% es.EX (V/m) @ t=4.7
-3.095354967916479
% es.EY (V/m) @ t=4.7
0.6876849784764079
% es.EZ (V/m) @ t=4.7
3.530135626034358
% es.tEX (V/m) @ t=4.7
-3.0953549679164825
% es.tEY (V/m) @ t=4.7
0
% es.tEZ (V/m) @ t=4.7
3.530135626034447
% es.Ex (V/m) @ t=4.7
-3.095354967916479
% es.Ey (V/m) @ t=4.7
0.6876849784764079
% es.Ez (V/m) @ t=4.7
3.530135626034358
% es.tEx (V/m) @ t=4.7
-3.0953549679164825
% es.tEy (V/m) @ t=4.7
0
% es.tEz (V/m) @ t=4.7
3.530135626034447
% V (V) @ t=4.7
0.04638951879018645
% es.normE (V/m) @ t=4.8
4.945800575670253
% es.EX (V/m) @ t=4.8
-3.1939356394258382
% es.EY (V/m) @ t=4.8
0.7095818942300167
% es.EZ (V/m) @ t=4.8
3.642564192470477
% es.tEX (V/m) @ t=4.8
-3.1939356394258276
% es.tEY (V/m) @ t=4.8
0
% es.tEZ (V/m) @ t=4.8
3.6425641924704806
% es.Ex (V/m) @ t=4.8
-3.1939356394258382
% es.Ey (V/m) @ t=4.8
0.7095818942300167
% es.Ez (V/m) @ t=4.8
3.642564192470477
% es.tEx (V/m) @ t=4.8
-3.1939356394258276
% es.tEy (V/m) @ t=4.8
0
% es.tEz (V/m) @ t=4.8
3.6425641924704806
% V (V) @ t=4.8
0.04786711057398045
% es.normE (V/m) @ t=4.9
5.098299869337388
% es.EX (V/m) @ t=4.9
-3.2924181169351705
% es.EY (V/m) @ t=4.9
0.7314568435888109
% es.EZ (V/m) @ t=4.9
3.754880801143287
% es.tEX (V/m) @ t=4.9
-3.29241811693516
% es.tEY (V/m) @ t=4.9
0
% es.tEZ (V/m) @ t=4.9
3.7548808011433152
% es.Ex (V/m) @ t=4.9
-3.2924181169351705
% es.Ey (V/m) @ t=4.9
0.7314568435888109
% es.Ez (V/m) @ t=4.9
3.754880801143287
% es.tEx (V/m) @ t=4.9
-3.29241811693516
% es.tEy (V/m) @ t=4.9
0
% es.tEz (V/m) @ t=4.9
3.7548808011433152
% V (V) @ t=4.9
0.049343236814823686
% es.normE (V/m) @ t=5
5.25027553670381
% es.EX (V/m) @ t=5
-3.390562453216745
% es.EY (V/m) @ t=5
0.7532565879525661
% es.EZ (V/m) @ t=5
3.8668117840861385
% es.tEX (V/m) @ t=5
-3.3905624532167327
% es.tEY (V/m) @ t=5
0
% es.tEZ (V/m) @ t=5
3.8668117840862273
% es.Ex (V/m) @ t=5
-3.390562453216745
% es.Ey (V/m) @ t=5
0.7532565879525661
% es.Ez (V/m) @ t=5
3.8668117840861385
% es.tEx (V/m) @ t=5
-3.3905624532167327
% es.tEy (V/m) @ t=5
0
% es.tEz (V/m) @ t=5
3.8668117840862273
% V (V) @ t=5
0.050814298601248434
% es.normE (V/m) @ t=5.1
5.4002992175342515
% es.EX (V/m) @ t=5.1
-3.487446063040478
% es.EY (V/m) @ t=5.1
0.7747782529678879
% es.EZ (V/m) @ t=5.1
3.977304485775978
% es.tEX (V/m) @ t=5.1
-3.4874460630404656
% es.tEY (V/m) @ t=5.1
0
% es.tEZ (V/m) @ t=5.1
3.9773044857760063
% es.Ex (V/m) @ t=5.1
-3.487446063040478
% es.Ey (V/m) @ t=5.1
0.7747782529678879
% es.Ez (V/m) @ t=5.1
3.977304485775978
% es.tEx (V/m) @ t=5.1
-3.4874460630404656
% es.tEy (V/m) @ t=5.1
0
% es.tEz (V/m) @ t=5.1
3.9773044857760063
% V (V) @ t=5.1
0.052266383757703344
% es.normE (V/m) @ t=5.2
5.546666049650738
% es.EX (V/m) @ t=5.2
-3.581967757013045
% es.EY (V/m) @ t=5.2
0.7957798138549763
% es.EZ (V/m) @ t=5.2
4.085102437804714
% es.tEX (V/m) @ t=5.2
-3.581967757013034
% es.tEY (V/m) @ t=5.2
0
% es.tEZ (V/m) @ t=5.2
4.085102437804743
% es.Ex (V/m) @ t=5.2
-3.581967757013045
% es.Ey (V/m) @ t=5.2
0.7957798138549763
% es.Ez (V/m) @ t=5.2
4.085102437804714
% es.tEx (V/m) @ t=5.2
-3.581967757013034
% es.tEy (V/m) @ t=5.2
0
% es.tEz (V/m) @ t=5.2
4.085102437804743
% V (V) @ t=5.2
0.05368288176501
% es.normE (V/m) @ t=5.3
5.689905492646927
% es.EX (V/m) @ t=5.3
-3.67446958758393
% es.EY (V/m) @ t=5.3
0.8163356076249344
% es.EZ (V/m) @ t=5.3
4.190596117045111
% es.tEX (V/m) @ t=5.3
-3.674469587583916
% es.tEY (V/m) @ t=5.3
0
% es.tEZ (V/m) @ t=5.3
4.190596117045185
% es.Ex (V/m) @ t=5.3
-3.67446958758393
% es.Ey (V/m) @ t=5.3
0.8163356076249344
% es.Ez (V/m) @ t=5.3
4.190596117045111
% es.tEx (V/m) @ t=5.3
-3.674469587583916
% es.tEy (V/m) @ t=5.3
0