% Model:              1 neuron.mph
% Version:            COMSOL 6.0.0.405
% Date:               Mar 16 2023, 19:28
% Dimension:          0
% Nodes:              14017
% Expressions:        14017
% Description:        Electric field norm, Electric field, X component, Electric field, Y component, Electric field, Z component, Tangential electric field, X component, Tangential electric field, Y component, Tangential electric field, Z component, Electric field, x component, Electric field, y component, Electric field, z component, Tangential electric field, x component, Tangential electric field, y component, Tangential electric field, z component, Electric potential
% Length unit:        mm
% x
2
% y
12.2
% z
1.33
% es.normE (V/m) @ t=0
1.9458185065943445
% es.EX (V/m) @ t=0
-1.789719226271153
% es.EY (V/m) @ t=0
0.13961077392289
% es.EZ (V/m) @ t=0
0.7484957326703394
% es.tEX (V/m) @ t=0
-1.7897192262711474
% es.tEY (V/m) @ t=0
0
% es.tEZ (V/m) @ t=0
0.7484957326703388
% es.Ex (V/m) @ t=0
-1.789719226271153
% es.Ey (V/m) @ t=0
0.13961077392289
% es.Ez (V/m) @ t=0
0.7484957326703394
% es.tEx (V/m) @ t=0
-1.7897192262711474
% es.tEy (V/m) @ t=0
0
% es.tEz (V/m) @ t=0
0.7484957326703388
% V (V) @ t=0
0.010863882981646245
% es.normE (V/m) @ t=0.02
1.689960675526792
% es.EX (V/m) @ t=0.02
-1.554387060732885
% es.EY (V/m) @ t=0.02
0.1212532006485399
% es.EZ (V/m) @ t=0.02
0.6500752035557964
% es.tEX (V/m) @ t=0.02
-1.5543870607328802
% es.tEY (V/m) @ t=0.02
0
% es.tEZ (V/m) @ t=0.02
0.6500752035557937
% es.Ex (V/m) @ t=0.02
-1.554387060732885
% es.Ey (V/m) @ t=0.02
0.1212532006485399
% es.Ez (V/m) @ t=0.02
0.6500752035557964
% es.tEx (V/m) @ t=0.02
-1.5543870607328802
% es.tEy (V/m) @ t=0.02
0
% es.tEz (V/m) @ t=0.02
0.6500752035557937
% V (V) @ t=0.02
0.009435378790248724
% es.normE (V/m) @ t=0.04
1.7150213064755224
% es.EX (V/m) @ t=0.04
-1.5774372524043916
% es.EY (V/m) @ t=0.04
0.12305128104388119
% es.EZ (V/m) @ t=0.04
0.6597152512382769
% es.tEX (V/m) @ t=0.04
-1.5774372524043851
% es.tEY (V/m) @ t=0.04
0
% es.tEZ (V/m) @ t=0.04
0.6597152512382749
% es.Ex (V/m) @ t=0.04
-1.5774372524043916
% es.Ey (V/m) @ t=0.04
0.12305128104388119
% es.Ez (V/m) @ t=0.04
0.6597152512382769
% es.tEx (V/m) @ t=0.04
-1.5774372524043851
% es.tEy (V/m) @ t=0.04
0
% es.tEz (V/m) @ t=0.04
0.6597152512382749
% V (V) @ t=0.04
0.009575296976415522
% es.normE (V/m) @ t=0.06
1.7404588228506213
% es.EX (V/m) @ t=0.06
-1.600834097122479
% es.EY (V/m) @ t=0.06
0.12487639980057286
% es.EZ (V/m) @ t=0.06
0.6695002694269323
% es.tEX (V/m) @ t=0.06
-1.6008340971224673
% es.tEY (V/m) @ t=0.06
0
% es.tEZ (V/m) @ t=0.06
0.6695002694269334
% es.Ex (V/m) @ t=0.06
-1.600834097122479
% es.Ey (V/m) @ t=0.06
0.12487639980057286
% es.Ez (V/m) @ t=0.06
0.6695002694269323
% es.tEx (V/m) @ t=0.06
-1.6008340971224673
% es.tEy (V/m) @ t=0.06
0
% es.tEz (V/m) @ t=0.06
0.6695002694269334
% V (V) @ t=0.06
0.009717319646447195
% es.normE (V/m) @ t=0.08
1.7665429280336264
% es.EX (V/m) @ t=0.08
-1.6248256219352133
% es.EY (V/m) @ t=0.08
0.12674795381622428
% es.EZ (V/m) @ t=0.08
0.6795340943848163
% es.tEX (V/m) @ t=0.08
-1.6248256219351997
% es.tEY (V/m) @ t=0.08
0
% es.tEZ (V/m) @ t=0.08
0.6795340943848132
% es.Ex (V/m) @ t=0.08
-1.6248256219352133
% es.Ey (V/m) @ t=0.08
0.12674795381622428
% es.Ez (V/m) @ t=0.08
0.6795340943848163
% es.tEx (V/m) @ t=0.08
-1.6248256219351997
% es.tEy (V/m) @ t=0.08
0
% es.tEz (V/m) @ t=0.08
0.6795340943848132
% V (V) @ t=0.08
0.009862948454423396
% es.normE (V/m) @ t=0.1
1.7930823743145843
% es.EX (V/m) @ t=0.1
-1.6492359326655321
% es.EY (V/m) @ t=0.1
0.12865220849348125
% es.EZ (V/m) @ t=0.1
0.6897431341717979
% es.tEX (V/m) @ t=0.1
-1.6492359326655173
% es.tEY (V/m) @ t=0.1
0
% es.tEZ (V/m) @ t=0.1
0.6897431341718026
% es.Ex (V/m) @ t=0.1
-1.6492359326655321
% es.Ey (V/m) @ t=0.1
0.12865220849348125
% es.Ez (V/m) @ t=0.1
0.6897431341717979
% es.tEx (V/m) @ t=0.1
-1.6492359326655173
% es.tEy (V/m) @ t=0.1
0
% es.tEz (V/m) @ t=0.1
0.6897431341718026
% V (V) @ t=0.1
0.010011116778690227
% es.normE (V/m) @ t=0.12
1.819621820595566
% es.EX (V/m) @ t=0.12
-1.6736462433958492
% es.EY (V/m) @ t=0.12
0.13055646317075076
% es.EZ (V/m) @ t=0.12
0.6999521739587975
% es.tEX (V/m) @ t=0.12
-1.673646243395842
% es.tEY (V/m) @ t=0.12
0
% es.tEZ (V/m) @ t=0.12
0.699952173958792
% es.Ex (V/m) @ t=0.12
-1.6736462433958492
% es.Ey (V/m) @ t=0.12
0.13055646317075076
% es.Ez (V/m) @ t=0.12
0.6999521739587975
% es.tEx (V/m) @ t=0.12
-1.673646243395842
% es.tEy (V/m) @ t=0.12
0
% es.tEz (V/m) @ t=0.12
0.699952173958792
% V (V) @ t=0.12
0.010159285102957057
% es.normE (V/m) @ t=0.14
1.8465998496400289
% es.EX (V/m) @ t=0.14
-1.6984599689167672
% es.EY (V/m) @ t=0.14
0.13249216688422905
% es.EZ (V/m) @ t=0.14
0.7103298859402121
% es.tEX (V/m) @ t=0.14
-1.6984599689167634
% es.tEY (V/m) @ t=0.14
0
% es.tEZ (V/m) @ t=0.14
0.7103298859402116
% es.Ex (V/m) @ t=0.14
-1.6984599689167672
% es.Ey (V/m) @ t=0.14
0.13249216688422905
% es.Ez (V/m) @ t=0.14
0.7103298859402121
% es.tEx (V/m) @ t=0.14
-1.6984599689167634
% es.tEy (V/m) @ t=0.14
0
% es.tEz (V/m) @ t=0.14
0.7103298859402116
% V (V) @ t=0.14
0.010309903827060613
% es.normE (V/m) @ t=0.16
1.8755290343607012
% es.EX (V/m) @ t=0.16
-1.7250683957440132
% es.EY (V/m) @ t=0.16
0.13456778025828464
% es.EZ (V/m) @ t=0.16
0.7214579824259992
% es.tEX (V/m) @ t=0.16
-1.725068395744005
% es.tEY (V/m) @ t=0.16
0
% es.tEZ (V/m) @ t=0.16
0.7214579824260063
% es.Ex (V/m) @ t=0.16
-1.7250683957440132
% es.Ey (V/m) @ t=0.16
0.13456778025828464
% es.Ez (V/m) @ t=0.16
0.7214579824259992
% es.tEx (V/m) @ t=0.16
-1.725068395744005
% es.tEy (V/m) @ t=0.16
0
% es.tEz (V/m) @ t=0.16
0.7214579824260063
% V (V) @ t=0.16
0.010471423826701647
% es.normE (V/m) @ t=0.18
1.9044582190813761
% es.EX (V/m) @ t=0.18
-1.7516768225712605
% es.EY (V/m) @ t=0.18
0.13664339363231515
% es.EZ (V/m) @ t=0.18
0.7325860789117848
% es.tEX (V/m) @ t=0.18
-1.7516768225712571
% es.tEY (V/m) @ t=0.18
0
% es.tEZ (V/m) @ t=0.18
0.7325860789117833
% es.Ex (V/m) @ t=0.18
-1.7516768225712605
% es.Ey (V/m) @ t=0.18
0.13664339363231515
% es.Ez (V/m) @ t=0.18
0.7325860789117848
% es.tEx (V/m) @ t=0.18
-1.7516768225712571
% es.tEy (V/m) @ t=0.18
0
% es.tEz (V/m) @ t=0.18
0.7325860789117833
% V (V) @ t=0.18
0.01063294382634268
% es.normE (V/m) @ t=0.2
1.9333874038020347
% es.EX (V/m) @ t=0.2
-1.7782852493984886
% es.EY (V/m) @ t=0.2
0.1387190070063672
% es.EZ (V/m) @ t=0.2
0.7437141753975614
% es.tEX (V/m) @ t=0.2
-1.7782852493984862
% es.tEY (V/m) @ t=0.2
0
% es.tEZ (V/m) @ t=0.2
0.7437141753975531
% es.Ex (V/m) @ t=0.2
-1.7782852493984886
% es.Ey (V/m) @ t=0.2
0.1387190070063672
% es.Ez (V/m) @ t=0.2
0.7437141753975614
% es.tEx (V/m) @ t=0.2
-1.7782852493984862
% es.tEy (V/m) @ t=0.2
0
% es.tEz (V/m) @ t=0.2
0.7437141753975531
% V (V) @ t=0.2
0.010794463825983716
% es.normE (V/m) @ t=0.22
1.962316588522738
% es.EX (V/m) @ t=0.22
-1.8048936762257533
% es.EY (V/m) @ t=0.22
0.14079462038041735
% es.EZ (V/m) @ t=0.22
0.7548422718833574
% es.tEX (V/m) @ t=0.22
-1.8048936762257455
% es.tEY (V/m) @ t=0.22
0
% es.tEZ (V/m) @ t=0.22
0.7548422718833621
% es.Ex (V/m) @ t=0.22
-1.8048936762257533
% es.Ey (V/m) @ t=0.22
0.14079462038041735
% es.Ez (V/m) @ t=0.22
0.7548422718833574
% es.tEx (V/m) @ t=0.22
-1.8048936762257455
% es.tEy (V/m) @ t=0.22
0
% es.tEz (V/m) @ t=0.22
0.7548422718833621
% V (V) @ t=0.22
0.010955983825624752
% es.normE (V/m) @ t=0.24
1.991245773243407
% es.EX (V/m) @ t=0.24
-1.8315021030529854
% es.EY (V/m) @ t=0.24
0.1428702337544746
% es.EZ (V/m) @ t=0.24
0.7659703683691323
% es.tEX (V/m) @ t=0.24
-1.8315021030529781
% es.tEY (V/m) @ t=0.24
0
% es.tEZ (V/m) @ t=0.24
0.7659703683691355
% es.Ex (V/m) @ t=0.24
-1.8315021030529854
% es.Ey (V/m) @ t=0.24
0.1428702337544746
% es.Ez (V/m) @ t=0.24
0.7659703683691323
% es.tEx (V/m) @ t=0.24
-1.8315021030529781
% es.tEy (V/m) @ t=0.24
0
% es.tEz (V/m) @ t=0.24
0.7659703683691355
% V (V) @ t=0.24
0.011117503825265785
% es.normE (V/m) @ t=0.26
2.0201749579641004
% es.EX (V/m) @ t=0.26
-1.8581105298802358
% es.EY (V/m) @ t=0.26
0.14494584712851233
% es.EZ (V/m) @ t=0.26
0.7770984648549231
% es.tEX (V/m) @ t=0.26
-1.8581105298802285
% es.tEY (V/m) @ t=0.26
0
% es.tEZ (V/m) @ t=0.26
0.7770984648549195
% es.Ex (V/m) @ t=0.26
-1.8581105298802358
% es.Ey (V/m) @ t=0.26
0.14494584712851233
% es.Ez (V/m) @ t=0.26
0.7770984648549231
% es.tEx (V/m) @ t=0.26
-1.8581105298802285
% es.tEy (V/m) @ t=0.26
0
% es.tEz (V/m) @ t=0.26
0.7770984648549195
% V (V) @ t=0.26
0.01127902382490682
% es.normE (V/m) @ t=0.28
2.050076586983139
% es.EX (V/m) @ t=0.28
-1.885613373472305
% es.EY (V/m) @ t=0.28
0.14709124997874867
% es.EZ (V/m) @ t=0.28
0.788600664512533
% es.tEX (V/m) @ t=0.28
-1.8856133734722977
% es.tEY (V/m) @ t=0.28
0
% es.tEZ (V/m) @ t=0.28
0.7886006645125399
% es.Ex (V/m) @ t=0.28
-1.885613373472305
% es.Ey (V/m) @ t=0.28
0.14709124997874867
% es.Ez (V/m) @ t=0.28
0.788600664512533
% es.tEx (V/m) @ t=0.28
-1.8856133734722977
% es.tEy (V/m) @ t=0.28
0
% es.tEz (V/m) @ t=0.28
0.7886006645125399
% V (V) @ t=0.28
0.011445971594879553
% es.normE (V/m) @ t=0.3
2.0815850251121706
% es.EX (V/m) @ t=0.3
-1.914594098119664
% es.EY (V/m) @ t=0.3
0.1493519688078132
% es.EZ (V/m) @ t=0.3
0.8007210099966708
% es.tEX (V/m) @ t=0.3
-1.914594098119645
% es.tEY (V/m) @ t=0.3
0
% es.tEZ (V/m) @ t=0.3
0.8007210099966784
% es.Ex (V/m) @ t=0.3
-1.914594098119664
% es.Ey (V/m) @ t=0.3
0.1493519688078132
% es.Ez (V/m) @ t=0.3
0.8007210099966708
% es.tEx (V/m) @ t=0.3
-1.914594098119645
% es.tEy (V/m) @ t=0.3
0
% es.tEz (V/m) @ t=0.3
0.8007210099966784
% V (V) @ t=0.3
0.01162188788966214
% es.normE (V/m) @ t=0.32
2.1130934632411913
% es.EX (V/m) @ t=0.32
-1.9435748227670098
% es.EY (V/m) @ t=0.32
0.15161268763688118
% es.EZ (V/m) @ t=0.32
0.8128413554808092
% es.tEX (V/m) @ t=0.32
-1.9435748227669993
% es.tEY (V/m) @ t=0.32
0
% es.tEZ (V/m) @ t=0.32
0.8128413554808098
% es.Ex (V/m) @ t=0.32
-1.9435748227670098
% es.Ey (V/m) @ t=0.32
0.15161268763688118
% es.Ez (V/m) @ t=0.32
0.8128413554808092
% es.tEx (V/m) @ t=0.32
-1.9435748227669993
% es.tEy (V/m) @ t=0.32
0
% es.tEz (V/m) @ t=0.32
0.8128413554808098
% V (V) @ t=0.32
0.011797804184444725
% es.normE (V/m) @ t=0.34
2.144601901370233
% es.EX (V/m) @ t=0.34
-1.9725555474143757
% es.EY (V/m) @ t=0.34
0.15387340646595438
% es.EZ (V/m) @ t=0.34
0.8249617009649491
% es.tEX (V/m) @ t=0.34
-1.9725555474143537
% es.tEY (V/m) @ t=0.34
0
% es.tEZ (V/m) @ t=0.34
0.824961700964959
% es.Ex (V/m) @ t=0.34
-1.9725555474143757
% es.Ey (V/m) @ t=0.34
0.15387340646595438
% es.Ez (V/m) @ t=0.34
0.8249617009649491
% es.tEx (V/m) @ t=0.34
-1.9725555474143537
% es.tEy (V/m) @ t=0.34
0
% es.tEz (V/m) @ t=0.34
0.824961700964959
% V (V) @ t=0.34
0.011973720479227316
% es.normE (V/m) @ t=0.36
2.1761103394992656
% es.EX (V/m) @ t=0.36
-2.0015362720617285
% es.EY (V/m) @ t=0.36
0.15613412529500992
% es.EZ (V/m) @ t=0.36
0.8370820464491034
% es.tEX (V/m) @ t=0.36
-2.001536272061717
% es.tEY (V/m) @ t=0.36
0
% es.tEZ (V/m) @ t=0.36
0.8370820464491011
% es.Ex (V/m) @ t=0.36
-2.0015362720617285
% es.Ey (V/m) @ t=0.36
0.15613412529500992
% es.Ez (V/m) @ t=0.36
0.8370820464491034
% es.tEx (V/m) @ t=0.36
-2.001536272061717
% es.tEy (V/m) @ t=0.36
0
% es.tEz (V/m) @ t=0.36
0.8370820464491011
% V (V) @ t=0.36
0.012149636774009901
% es.normE (V/m) @ t=0.38
2.2076187776282774
% es.EX (V/m) @ t=0.38
-2.030516996709066
% es.EY (V/m) @ t=0.38
0.15839484412407967
% es.EZ (V/m) @ t=0.38
0.849202391933231
% es.tEX (V/m) @ t=0.38
-2.0305169967090677
% es.tEY (V/m) @ t=0.38
0
% es.tEZ (V/m) @ t=0.38
0.8492023919332361
% es.Ex (V/m) @ t=0.38
-2.030516996709066
% es.Ey (V/m) @ t=0.38
0.15839484412407967
% es.Ez (V/m) @ t=0.38
0.849202391933231
% es.tEx (V/m) @ t=0.38
-2.0305169967090677
% es.tEy (V/m) @ t=0.38
0
% es.tEz (V/m) @ t=0.38
0.8492023919332361
% V (V) @ t=0.38
0.012325553068792489
% es.normE (V/m) @ t=0.4
2.2391272157573168
% es.EX (V/m) @ t=0.4
-2.0594977213564256
% es.EY (V/m) @ t=0.4
0.1606555629531654
% es.EZ (V/m) @ t=0.4
0.8613227374173745
% es.tEX (V/m) @ t=0.4
-2.059497721356422
% es.tEY (V/m) @ t=0.4
0
% es.tEZ (V/m) @ t=0.4
0.8613227374173711
% es.Ex (V/m) @ t=0.4
-2.0594977213564256
% es.Ey (V/m) @ t=0.4
0.1606555629531654
% es.Ez (V/m) @ t=0.4
0.8613227374173745
% es.tEx (V/m) @ t=0.4
-2.059497721356422
% es.tEy (V/m) @ t=0.4
0
% es.tEz (V/m) @ t=0.4
0.8613227374173711
% V (V) @ t=0.4
0.012501469363575077
% es.normE (V/m) @ t=0.42
2.2722182371005863
% es.EX (V/m) @ t=0.42
-2.0899340720582424
% es.EY (V/m) @ t=0.42
0.1630298281108652
% es.EZ (V/m) @ t=0.42
0.8740518481229903
% es.tEX (V/m) @ t=0.42
-2.0899340720582344
% es.tEY (V/m) @ t=0.42
0
% es.tEZ (V/m) @ t=0.42
0.8740518481229813
% es.Ex (V/m) @ t=0.42
-2.0899340720582424
% es.Ey (V/m) @ t=0.42
0.1630298281108652
% es.Ez (V/m) @ t=0.42
0.8740518481229903
% es.tEx (V/m) @ t=0.42
-2.0899340720582344
% es.tEy (V/m) @ t=0.42
0
% es.tEz (V/m) @ t=0.42
0.8740518481229813
% V (V) @ t=0.42
0.012686221765315867
% es.normE (V/m) @ t=0.44
2.306500589501711
% es.EX (V/m) @ t=0.44
-2.1214661834832245
% es.EY (V/m) @ t=0.44
0.16548956824806893
% es.EZ (V/m) @ t=0.44
0.8872392228293632
% es.tEX (V/m) @ t=0.44
-2.1214661834832196
% es.tEY (V/m) @ t=0.44
0
% es.tEZ (V/m) @ t=0.44
0.8872392228293577
% es.Ex (V/m) @ t=0.44
-2.1214661834832245
% es.Ey (V/m) @ t=0.44
0.16548956824806893
% es.Ez (V/m) @ t=0.44
0.8872392228293632
% es.tEx (V/m) @ t=0.44
-2.1214661834832196
% es.tEy (V/m) @ t=0.44
0
% es.tEz (V/m) @ t=0.44
0.8872392228293577
% V (V) @ t=0.44
0.012877625778520202
% es.normE (V/m) @ t=0.46
2.340782941902833
% es.EX (V/m) @ t=0.46
-2.1529982949082003
% es.EY (V/m) @ t=0.46
0.16794930838526734
% es.EZ (V/m) @ t=0.46
0.9004265975357447
% es.tEX (V/m) @ t=0.46
-2.1529982949081976
% es.tEY (V/m) @ t=0.46
0
% es.tEZ (V/m) @ t=0.46
0.9004265975357484
% es.Ex (V/m) @ t=0.46
-2.1529982949082003
% es.Ey (V/m) @ t=0.46
0.16794930838526734
% es.Ez (V/m) @ t=0.46
0.9004265975357447
% es.tEx (V/m) @ t=0.46
-2.1529982949081976
% es.tEy (V/m) @ t=0.46
0
% es.tEz (V/m) @ t=0.46
0.9004265975357484
% V (V) @ t=0.46
0.01306902979172454
% es.normE (V/m) @ t=0.48
2.3750652943039503
% es.EX (V/m) @ t=0.48
-2.1845304063331765
% es.EY (V/m) @ t=0.48
0.1704090485224692
% es.EZ (V/m) @ t=0.48
0.913613972242112
% es.tEX (V/m) @ t=0.48
-2.184530406333172
% es.tEY (V/m) @ t=0.48
0
% es.tEZ (V/m) @ t=0.48
0.9136139722421106
% es.Ex (V/m) @ t=0.48
-2.1845304063331765
% es.Ey (V/m) @ t=0.48
0.1704090485224692
% es.Ez (V/m) @ t=0.48
0.913613972242112
% es.tEx (V/m) @ t=0.48
-2.184530406333172
% es.tEy (V/m) @ t=0.48
0
% es.tEz (V/m) @ t=0.48
0.9136139722421106
% V (V) @ t=0.48
0.013260433804928877
% es.normE (V/m) @ t=0.5
2.4093476467050925
% es.EX (V/m) @ t=0.5
-2.216062517758167
% es.EY (V/m) @ t=0.5
0.17286878865968192
% es.EZ (V/m) @ t=0.5
0.926801346948506
% es.tEX (V/m) @ t=0.5
-2.216062517758152
% es.tEY (V/m) @ t=0.5
0
% es.tEZ (V/m) @ t=0.5
0.9268013469484941
% es.Ex (V/m) @ t=0.5
-2.216062517758167
% es.Ey (V/m) @ t=0.5
0.17286878865968192
% es.Ez (V/m) @ t=0.5
0.926801346948506
% es.tEx (V/m) @ t=0.5
-2.216062517758152
% es.tEy (V/m) @ t=0.5
0
% es.tEz (V/m) @ t=0.5
0.9268013469484941
% V (V) @ t=0.5
0.013451837818133213
% es.normE (V/m) @ t=0.52
2.443629999106225
% es.EX (V/m) @ t=0.52
-2.2475946291831574
% es.EY (V/m) @ t=0.52
0.17532852879689265
% es.EZ (V/m) @ t=0.52
0.9399887216548769
% es.tEX (V/m) @ t=0.52
-2.2475946291831406
% es.tEY (V/m) @ t=0.52
0
% es.tEZ (V/m) @ t=0.52
0.9399887216548777
% es.Ex (V/m) @ t=0.52
-2.2475946291831574
% es.Ey (V/m) @ t=0.52
0.17532852879689265
% es.Ez (V/m) @ t=0.52
0.9399887216548769
% es.tEx (V/m) @ t=0.52
-2.2475946291831406
% es.tEy (V/m) @ t=0.52
0
% es.tEz (V/m) @ t=0.52
0.9399887216548777
% V (V) @ t=0.52
0.013643241831337551
% es.normE (V/m) @ t=0.54
2.477912351507335
% es.EX (V/m) @ t=0.54
-2.279126740608125
% es.EY (V/m) @ t=0.54
0.17778826893409994
% es.EZ (V/m) @ t=0.54
0.9531760963612409
% es.tEX (V/m) @ t=0.54
-2.279126740608115
% es.tEY (V/m) @ t=0.54
0
% es.tEZ (V/m) @ t=0.54
0.9531760963612328
% es.Ex (V/m) @ t=0.54
-2.279126740608125
% es.Ey (V/m) @ t=0.54
0.17778826893409994
% es.Ez (V/m) @ t=0.54
0.9531760963612409
% es.tEx (V/m) @ t=0.54
-2.279126740608115
% es.tEy (V/m) @ t=0.54
0
% es.tEz (V/m) @ t=0.54
0.9531760963612328
% V (V) @ t=0.54
0.013834645844541887
% es.normE (V/m) @ t=0.56
2.513190824443666
% es.EX (V/m) @ t=0.56
-2.3115750637639154
% es.EY (V/m) @ t=0.56
0.18031947648330393
% es.EZ (V/m) @ t=0.56
0.9667466410438904
% es.tEX (V/m) @ t=0.56
-2.311575063763909
% es.tEY (V/m) @ t=0.56
0
% es.tEZ (V/m) @ t=0.56
0.9667466410438976
% es.Ex (V/m) @ t=0.56
-2.3115750637639154
% es.Ey (V/m) @ t=0.56
0.18031947648330393
% es.Ez (V/m) @ t=0.56
0.9667466410438904
% es.tEx (V/m) @ t=0.56
-2.311575063763909
% es.tEy (V/m) @ t=0.56
0
% es.tEz (V/m) @ t=0.56
0.9667466410438976
% V (V) @ t=0.56
0.014031611694064356
% es.normE (V/m) @ t=0.58
2.5490807604860635
% es.EX (V/m) @ t=0.58
-2.34458579844616
% es.EY (V/m) @ t=0.58
0.1828945539098885
% es.EZ (V/m) @ t=0.58
0.9805523925067944
% es.tEX (V/m) @ t=0.58
-2.3445857984461504
% es.tEY (V/m) @ t=0.58
0
% es.tEZ (V/m) @ t=0.58
0.9805523925067945
% es.Ex (V/m) @ t=0.58
-2.34458579844616
% es.Ey (V/m) @ t=0.58
0.1828945539098885
% es.Ez (V/m) @ t=0.58
0.9805523925067944
% es.tEx (V/m) @ t=0.58
-2.3445857984461504
% es.tEy (V/m) @ t=0.58
0
% es.tEz (V/m) @ t=0.58
0.9805523925067945
% V (V) @ t=0.58
0.014231991646188163
% es.normE (V/m) @ t=0.6
2.5853151340244076
% es.EX (V/m) @ t=0.6
-2.377913339843219
% es.EY (V/m) @ t=0.6
0.1854943432619438
% es.EZ (V/m) @ t=0.6
0.9944906360753106
% es.tEX (V/m) @ t=0.6
-2.3779133398432126
% es.tEY (V/m) @ t=0.6
0
% es.tEZ (V/m) @ t=0.6
0.9944906360753123
% es.Ex (V/m) @ t=0.6
-2.377913339843219
% es.Ey (V/m) @ t=0.6
0.1854943432619438
% es.Ez (V/m) @ t=0.6
0.9944906360753106
% es.tEx (V/m) @ t=0.6
-2.3779133398432126
% es.tEy (V/m) @ t=0.6
0
% es.tEz (V/m) @ t=0.6
0.9944906360753123
% V (V) @ t=0.6
0.014434294764140453
% es.normE (V/m) @ t=0.62
2.621893945058714
% es.EX (V/m) @ t=0.62
-2.4115576879551073
% es.EY (V/m) @ t=0.62
0.18811884453945926
% es.EZ (V/m) @ t=0.62
1.0085613717494377
% es.tEX (V/m) @ t=0.62
-2.411557687955101
% es.tEY (V/m) @ t=0.62
0
% es.tEZ (V/m) @ t=0.62
1.0085613717494297
% es.Ex (V/m) @ t=0.62
-2.4115576879551073
% es.Ey (V/m) @ t=0.62
0.18811884453945926
% es.Ez (V/m) @ t=0.62
1.0085613717494377
% es.tEx (V/m) @ t=0.62
-2.411557687955101
% es.tEy (V/m) @ t=0.62
0
% es.tEz (V/m) @ t=0.62
1.0085613717494297
% V (V) @ t=0.62
0.014638521047921233
% es.normE (V/m) @ t=0.64
2.6588171935890004
% es.EX (V/m) @ t=0.64
-2.445518842781839
% es.EY (V/m) @ t=0.64
0.1907680577424724
% es.EZ (V/m) @ t=0.64
1.0227645995291863
% es.tEX (V/m) @ t=0.64
-2.4455188427818264
% es.tEY (V/m) @ t=0.64
0
% es.tEZ (V/m) @ t=0.64
1.0227645995291823
% es.Ex (V/m) @ t=0.64
-2.445518842781839
% es.Ey (V/m) @ t=0.64
0.1907680577424724
% es.Ez (V/m) @ t=0.64
1.0227645995291863
% es.tEx (V/m) @ t=0.64
-2.4455188427818264
% es.tEy (V/m) @ t=0.64
0
% es.tEz (V/m) @ t=0.64
1.0227645995291823
% V (V) @ t=0.64
0.014844670497530492
% es.normE (V/m) @ t=0.66
2.696084879615236
% es.EX (V/m) @ t=0.66
-2.4797968043233904
% es.EY (V/m) @ t=0.66
0.1934419828709597
% es.EZ (V/m) @ t=0.66
1.0371003194145363
% es.tEX (V/m) @ t=0.66
-2.479796804323387
% es.tEY (V/m) @ t=0.66
0
% es.tEZ (V/m) @ t=0.66
1.0371003194145416
% es.Ex (V/m) @ t=0.66
-2.4797968043233904
% es.Ey (V/m) @ t=0.66
0.1934419828709597
% es.Ez (V/m) @ t=0.66
1.0371003194145363
% es.tEx (V/m) @ t=0.66
-2.479796804323387
% es.tEy (V/m) @ t=0.66
0
% es.tEz (V/m) @ t=0.66
1.0371003194145416
% V (V) @ t=0.66
0.015052743112968238
% es.normE (V/m) @ t=0.68
2.7336970031374292
% es.EX (V/m) @ t=0.68
-2.51439157257977
% es.EY (V/m) @ t=0.68
0.19614061992491816
% es.EZ (V/m) @ t=0.68
1.05156853140549
% es.tEX (V/m) @ t=0.68
-2.514391572579761
% es.tEY (V/m) @ t=0.68
0
% es.tEZ (V/m) @ t=0.68
1.0515685314054934
% es.Ex (V/m) @ t=0.68
-2.51439157257977
% es.Ey (V/m) @ t=0.68
0.19614061992491816
% es.Ez (V/m) @ t=0.68
1.05156853140549
% es.tEx (V/m) @ t=0.68
-2.514391572579761
% es.tEy (V/m) @ t=0.68
0
% es.tEz (V/m) @ t=0.68
1.0515685314054934
% V (V) @ t=0.68
0.01526273889423447
% es.normE (V/m) @ t=0.7
2.7716535641555984
% es.EX (V/m) @ t=0.7
-2.549303147550982
% es.EY (V/m) @ t=0.7
0.19886396890436164
% es.EZ (V/m) @ t=0.7
1.0661692355020773
% es.tEX (V/m) @ t=0.7
-2.5493031475509635
% es.tEY (V/m) @ t=0.7
0
% es.tEZ (V/m) @ t=0.7
1.0661692355020733
% es.Ex (V/m) @ t=0.7
-2.549303147550982
% es.Ey (V/m) @ t=0.7
0.19886396890436164
% es.Ez (V/m) @ t=0.7
1.0661692355020773
% es.tEx (V/m) @ t=0.7
-2.5493031475509635
% es.tEy (V/m) @ t=0.7
0
% es.tEz (V/m) @ t=0.7
1.0661692355020733
% V (V) @ t=0.7
0.015474657841329186
% es.normE (V/m) @ t=0.72
2.809954562669692
% es.EX (V/m) @ t=0.72
-2.584531529236992
% es.EY (V/m) @ t=0.72
0.20161202980928117
% es.EZ (V/m) @ t=0.72
1.0809024317042573
% es.tEX (V/m) @ t=0.72
-2.584531529236987
% es.tEY (V/m) @ t=0.72
0
% es.tEZ (V/m) @ t=0.72
1.0809024317042528
% es.Ex (V/m) @ t=0.72
-2.584531529236992
% es.Ey (V/m) @ t=0.72
0.20161202980928117
% es.Ez (V/m) @ t=0.72
1.0809024317042573
% es.tEx (V/m) @ t=0.72
-2.584531529236987
% es.tEy (V/m) @ t=0.72
0
% es.tEz (V/m) @ t=0.72
1.0809024317042528
% V (V) @ t=0.72
0.015688499954252384
% es.normE (V/m) @ t=0.74
2.8485999986797776
% es.EX (V/m) @ t=0.74
-2.6200767176378577
% es.EY (V/m) @ t=0.74
0.20438480263967174
% es.EZ (V/m) @ t=0.74
1.0957681200120641
% es.tEX (V/m) @ t=0.74
-2.620076717637845
% es.tEY (V/m) @ t=0.74
0
% es.tEZ (V/m) @ t=0.74
1.0957681200120604
% es.Ex (V/m) @ t=0.74
-2.6200767176378577
% es.Ey (V/m) @ t=0.74
0.20438480263967174
% es.Ez (V/m) @ t=0.74
1.0957681200120641
% es.tEx (V/m) @ t=0.74
-2.620076717637845
% es.tEy (V/m) @ t=0.74
0
% es.tEz (V/m) @ t=0.74
1.0957681200120604
% V (V) @ t=0.74
0.015904265233004068
% es.normE (V/m) @ t=0.76
2.887589872185825
% es.EX (V/m) @ t=0.76
-2.655938712753552
% es.EY (V/m) @ t=0.76
0.20718228739553657
% es.EZ (V/m) @ t=0.76
1.1107663004254817
% es.tEX (V/m) @ t=0.76
-2.6559387127535423
% es.tEY (V/m) @ t=0.76
0
% es.tEZ (V/m) @ t=0.76
1.1107663004254746
% es.Ex (V/m) @ t=0.76
-2.655938712753552
% es.Ey (V/m) @ t=0.76
0.20718228739553657
% es.Ez (V/m) @ t=0.76
1.1107663004254817
% es.tEx (V/m) @ t=0.76
-2.6559387127535423
% es.tEy (V/m) @ t=0.76
0
% es.tEz (V/m) @ t=0.76
1.1107663004254746
% V (V) @ t=0.76
0.016121953677584237
% es.normE (V/m) @ t=0.78
2.9269241831878285
% es.EX (V/m) @ t=0.78
-2.6921175145840675
% es.EY (V/m) @ t=0.78
0.21000448407689032
% es.EZ (V/m) @ t=0.78
1.1258969729445094
% es.tEX (V/m) @ t=0.78
-2.6921175145840515
% es.tEY (V/m) @ t=0.78
0
% es.tEZ (V/m) @ t=0.78
1.125896972944517
% es.Ex (V/m) @ t=0.78
-2.6921175145840675
% es.Ey (V/m) @ t=0.78
0.21000448407689032
% es.Ez (V/m) @ t=0.78
1.1258969729445094
% es.tEx (V/m) @ t=0.78
-2.6921175145840515
% es.tEy (V/m) @ t=0.78
0
% es.tEz (V/m) @ t=0.78
1.125896972944517
% V (V) @ t=0.78
0.01634156528799289
% es.normE (V/m) @ t=0.8
2.966602931685779
% es.EX (V/m) @ t=0.8
-2.7286131231293966
% es.EY (V/m) @ t=0.8
0.21285139268370745
% es.EZ (V/m) @ t=0.8
1.14116013756915
% es.tEX (V/m) @ t=0.8
-2.7286131231293957
% es.tEY (V/m) @ t=0.8
0
% es.tEZ (V/m) @ t=0.8
1.141160137569159
% es.Ex (V/m) @ t=0.8
-2.7286131231293966
% es.Ey (V/m) @ t=0.8
0.21285139268370745
% es.Ez (V/m) @ t=0.8
1.14116013756915
% es.tEx (V/m) @ t=0.8
-2.7286131231293957
% es.tEy (V/m) @ t=0.8
0
% es.tEz (V/m) @ t=0.8
1.141160137569159
% V (V) @ t=0.8
0.01656310006423003
% es.normE (V/m) @ t=0.82
3.0067274828811836
% es.EX (V/m) @ t=0.82
-2.7655187700830575
% es.EY (V/m) @ t=0.82
0.21573028804001848
% es.EZ (V/m) @ t=0.82
1.1565947901387106
% es.tEX (V/m) @ t=0.82
-2.765518770083041
% es.tEY (V/m) @ t=0.82
0
% es.tEZ (V/m) @ t=0.82
1.156594790138712
% es.Ex (V/m) @ t=0.82
-2.7655187700830575
% es.Ey (V/m) @ t=0.82
0.21573028804001848
% es.Ez (V/m) @ t=0.82
1.1565947901387106
% es.tEx (V/m) @ t=0.82
-2.765518770083041
% es.tEy (V/m) @ t=0.82
0
% es.tEz (V/m) @ t=0.82
1.156594790138712
% V (V) @ t=0.82
0.01678712377239222
% es.normE (V/m) @ t=0.84
3.0478224521187665
% es.EX (V/m) @ t=0.84
-2.803316975839692
% es.EY (V/m) @ t=0.84
0.21867882097901803
% es.EZ (V/m) @ t=0.84
1.172402753521217
% es.tEX (V/m) @ t=0.84
-2.8033169758396745
% es.tEY (V/m) @ t=0.84
0
% es.tEZ (V/m) @ t=0.84
1.1724027535212258
% es.Ex (V/m) @ t=0.84
-2.803316975839692
% es.Ey (V/m) @ t=0.84
0.21867882097901803
% es.Ez (V/m) @ t=0.84
1.172402753521217
% es.tEx (V/m) @ t=0.84
-2.8033169758396745
% es.tEy (V/m) @ t=0.84
0
% es.tEz (V/m) @ t=0.84
1.1724027535212258
% V (V) @ t=0.84
0.01701656453348644
% es.normE (V/m) @ t=0.86
3.0893593907131516
% es.EX (V/m) @ t=0.86
-2.8415216942498858
% es.EY (V/m) @ t=0.86
0.2216590655545595
% es.EZ (V/m) @ t=0.86
1.1883807301381037
% es.tEX (V/m) @ t=0.86
-2.8415216942498773
% es.tEY (V/m) @ t=0.86
0
% es.tEZ (V/m) @ t=0.86
1.1883807301381069
% es.Ex (V/m) @ t=0.86
-2.8415216942498858
% es.Ey (V/m) @ t=0.86
0.2216590655545595
% es.Ez (V/m) @ t=0.86
1.1883807301381037
% es.tEx (V/m) @ t=0.86
-2.8415216942498773
% es.tEy (V/m) @ t=0.86
0
% es.tEz (V/m) @ t=0.86
1.1883807301381069
% V (V) @ t=0.86
0.017248472830857675
% es.normE (V/m) @ t=0.88
3.131338298664314
% es.EX (V/m) @ t=0.88
-2.880132925313648
% es.EY (V/m) @ t=0.88
0.2246710217666078
% es.EZ (V/m) @ t=0.88
1.2045287199892987
% es.tEX (V/m) @ t=0.88
-2.8801329253136387
% es.tEY (V/m) @ t=0.88
0
% es.tEZ (V/m) @ t=0.88
1.2045287199892982
% es.Ex (V/m) @ t=0.88
-2.880132925313648
% es.Ey (V/m) @ t=0.88
0.2246710217666078
% es.Ez (V/m) @ t=0.88
1.2045287199892987
% es.tEx (V/m) @ t=0.88
-2.8801329253136387
% es.tEy (V/m) @ t=0.88
0
% es.tEz (V/m) @ t=0.88
1.2045287199892982
% V (V) @ t=0.88
0.01748284866450594
% es.normE (V/m) @ t=0.9
3.1737591759722954
% es.EX (V/m) @ t=0.9
-2.919150669031007
% es.EY (V/m) @ t=0.9
0.2277146896152158
% es.EZ (V/m) @ t=0.9
1.220846723074824
% es.tEX (V/m) @ t=0.9
-2.9191506690309836
% es.tEY (V/m) @ t=0.9
0
% es.tEZ (V/m) @ t=0.9
1.2208467230748212
% es.Ex (V/m) @ t=0.9
-2.919150669031007
% es.Ey (V/m) @ t=0.9
0.2277146896152158
% es.Ez (V/m) @ t=0.9
1.220846723074824
% es.tEx (V/m) @ t=0.9
-2.9191506690309836
% es.tEy (V/m) @ t=0.9
0
% es.tEz (V/m) @ t=0.9
1.2208467230748212
% V (V) @ t=0.9
0.01771969203443122
% es.normE (V/m) @ t=0.92
3.216622022637044
% es.EX (V/m) @ t=0.92
-2.9585749254019045
% es.EY (V/m) @ t=0.92
0.23079006910034472
% es.EZ (V/m) @ t=0.92
1.2373347393946972
% es.tEX (V/m) @ t=0.92
-2.9585749254018907
% es.tEY (V/m) @ t=0.92
0
% es.tEZ (V/m) @ t=0.92
1.23733473939469
% es.Ex (V/m) @ t=0.92
-2.9585749254019045
% es.Ey (V/m) @ t=0.92
0.23079006910034472
% es.Ez (V/m) @ t=0.92
1.2373347393946972
% es.tEx (V/m) @ t=0.92
-2.9585749254018907
% es.tEy (V/m) @ t=0.92
0
% es.tEz (V/m) @ t=0.92
1.23733473939469
% V (V) @ t=0.92
0.017959002940633517
% es.normE (V/m) @ t=0.94
3.259926838658596
% es.EX (V/m) @ t=0.94
-2.9984056944263906
% es.EY (V/m) @ t=0.94
0.23389716022199436
% es.EZ (V/m) @ t=0.94
1.2539927689488932
% es.tEX (V/m) @ t=0.94
-2.998405694426374
% es.tEY (V/m) @ t=0.94
0
% es.tEZ (V/m) @ t=0.94
1.2539927689488977
% es.Ex (V/m) @ t=0.94
-2.9984056944263906
% es.Ey (V/m) @ t=0.94
0.23389716022199436
% es.Ez (V/m) @ t=0.94
1.2539927689488932
% es.tEx (V/m) @ t=0.94
-2.998405694426374
% es.tEy (V/m) @ t=0.94
0
% es.tEz (V/m) @ t=0.94
1.2539927689488977
% V (V) @ t=0.94
0.018200781383112836
% es.normE (V/m) @ t=0.96
3.3036736240369216
% es.EX (V/m) @ t=0.96
-3.03864297610442
% es.EY (V/m) @ t=0.96
0.23703596298019336
% es.EZ (V/m) @ t=0.96
1.2708208117374333
% es.tEX (V/m) @ t=0.96
-3.0386429761044056
% es.tEY (V/m) @ t=0.96
0
% es.tEZ (V/m) @ t=0.96
1.2708208117374298
% es.Ex (V/m) @ t=0.96
-3.03864297610442
% es.Ey (V/m) @ t=0.96
0.23703596298019336
% es.Ez (V/m) @ t=0.96
1.2708208117374333
% es.tEx (V/m) @ t=0.96
-3.0386429761044056
% es.tEy (V/m) @ t=0.96
0
% es.tEz (V/m) @ t=0.96
1.2708208117374298
% V (V) @ t=0.96
0.01844502736186918
% es.normE (V/m) @ t=0.98
3.3478623787720325
% es.EX (V/m) @ t=0.98
-3.0792867704360285
% es.EY (V/m) @ t=0.98
0.2402064773748741
% es.EZ (V/m) @ t=0.98
1.2878188677602749
% es.tEX (V/m) @ t=0.98
-3.0792867704359956
% es.tEY (V/m) @ t=0.98
0
% es.tEZ (V/m) @ t=0.98
1.2878188677602864
% es.Ex (V/m) @ t=0.98
-3.0792867704360285
% es.Ey (V/m) @ t=0.98
0.2402064773748741
% es.Ez (V/m) @ t=0.98
1.2878188677602749
% es.tEx (V/m) @ t=0.98
-3.0792867704359956
% es.tEy (V/m) @ t=0.98
0
% es.tEz (V/m) @ t=0.98
1.2878188677602864
% V (V) @ t=0.98
0.018691740876902535
% es.normE (V/m) @ t=1
3.3924931028639516
% es.EX (V/m) @ t=1
-3.120337077421211
% es.EY (V/m) @ t=1
0.2434087034061505
% es.EZ (V/m) @ t=1
1.3049869370174716
% es.tEX (V/m) @ t=1
-3.1203370774211976
% es.tEY (V/m) @ t=1
0
% es.tEZ (V/m) @ t=1
1.3049869370174818
% es.Ex (V/m) @ t=1
-3.120337077421211
% es.Ey (V/m) @ t=1
0.2434087034061505
% es.Ez (V/m) @ t=1
1.3049869370174716
% es.tEx (V/m) @ t=1
-3.1203370774211976
% es.tEy (V/m) @ t=1
0
% es.tEz (V/m) @ t=1
1.3049869370174818
% V (V) @ t=1
0.018940921928212912
% es.normE (V/m) @ t=1.02
3.4375657963126347
% es.EX (V/m) @ t=1.02
-3.161793897059936
% es.EY (V/m) @ t=1.02
0.24664264107391198
% es.EZ (V/m) @ t=1.02
1.3223250195090053
% es.tEX (V/m) @ t=1.02
-3.1617938970599155
% es.tEY (V/m) @ t=1.02
0
% es.tEZ (V/m) @ t=1.02
1.3223250195090088
% es.Ex (V/m) @ t=1.02
-3.161793897059936
% es.Ey (V/m) @ t=1.02
0.24664264107391198
% es.Ez (V/m) @ t=1.02
1.3223250195090053
% es.tEx (V/m) @ t=1.02
-3.1617938970599155
% es.tEy (V/m) @ t=1.02
0
% es.tEz (V/m) @ t=1.02
1.3223250195090088
% V (V) @ t=1.02
0.01919257051580031
% es.normE (V/m) @ t=1.04
3.4830804591181623
% es.EX (V/m) @ t=1.04
-3.203657229352276
% es.EY (V/m) @ t=1.04
0.24990829037824047
% es.EZ (V/m) @ t=1.04
1.3398331152348906
% es.tEX (V/m) @ t=1.04
-3.203657229352249
% es.tEY (V/m) @ t=1.04
0
% es.tEZ (V/m) @ t=1.04
1.3398331152348746