% Model:              1 neuron.mph
% Version:            COMSOL 6.0.0.405
% Date:               Mar 16 2023, 19:18
% Dimension:          0
% Nodes:              14017
% Expressions:        14017
% Description:        Electric field norm, Electric field, X component, Electric field, Y component, Electric field, Z component, Tangential electric field, X component, Tangential electric field, Y component, Tangential electric field, Z component, Electric field, x component, Electric field, y component, Electric field, z component, Tangential electric field, x component, Tangential electric field, y component, Tangential electric field, z component, Electric potential
% Length unit:        mm
% x
2
% y
12.2
% z
1.33
% es.normE (V/m) @ t=0
1.9583458951050556
% es.EX (V/m) @ t=0
-1.8012412701509026
% es.EY (V/m) @ t=0
0.14050914770693168
% es.EZ (V/m) @ t=0
0.7533155234542663
% es.tEX (V/m) @ t=0
-1.8012412701508982
% es.tEY (V/m) @ t=0
0
% es.tEZ (V/m) @ t=0
0.7533155234542654
% es.Ex (V/m) @ t=0
-1.8012412701509026
% es.Ey (V/m) @ t=0
0.14050914770693168
% es.Ez (V/m) @ t=0
0.7533155234542663
% es.tEx (V/m) @ t=0
-1.8012412701508982
% es.tEy (V/m) @ t=0
0
% es.tEz (V/m) @ t=0
0.7533155234542654
% V (V) @ t=0
0.010933837441133394
% es.normE (V/m) @ t=0.02
1.700840431168703
% es.EX (V/m) @ t=0.02
-1.5643936975421036
% es.EY (V/m) @ t=0.02
0.12203342096948294
% es.EZ (V/m) @ t=0.02
0.6542610822516943
% es.tEX (V/m) @ t=0.02
-1.5643936975420942
% es.tEY (V/m) @ t=0.02
0
% es.tEZ (V/m) @ t=0.02
0.6542610822516828
% es.Ex (V/m) @ t=0.02
-1.5643936975421036
% es.Ey (V/m) @ t=0.02
0.12203342096948294
% es.Ez (V/m) @ t=0.02
0.6542610822516943
% es.tEx (V/m) @ t=0.02
-1.5643936975420942
% es.tEy (V/m) @ t=0.02
0
% es.tEz (V/m) @ t=0.02
0.6542610822516828
% V (V) @ t=0.02
0.00949613257505166
% es.normE (V/m) @ t=0.04
1.7260611251304132
% es.EX (V/m) @ t=0.04
-1.5875911086965224
% es.EY (V/m) @ t=0.04
0.12384297805575695
% es.EZ (V/m) @ t=0.04
0.6639627085316324
% es.tEX (V/m) @ t=0.04
-1.5875911086965129
% es.tEY (V/m) @ t=0.04
0
% es.tEZ (V/m) @ t=0.04
0.6639627085316313
% es.Ex (V/m) @ t=0.04
-1.5875911086965224
% es.Ey (V/m) @ t=0.04
0.12384297805575695
% es.Ez (V/m) @ t=0.04
0.6639627085316324
% es.tEx (V/m) @ t=0.04
-1.5875911086965129
% es.tEy (V/m) @ t=0.04
0
% es.tEz (V/m) @ t=0.04
0.6639627085316313
% V (V) @ t=0.04
0.009636944755386763
% es.normE (V/m) @ t=0.06
1.751667280174083
% es.EX (V/m) @ t=0.06
-1.6111430586458135
% es.EY (V/m) @ t=0.06
0.12568018873129227
% es.EZ (V/m) @ t=0.06
0.6738126087887106
% es.tEX (V/m) @ t=0.06
-1.6111430586458066
% es.tEY (V/m) @ t=0.06
0
% es.tEZ (V/m) @ t=0.06
0.6738126087887188
% es.Ex (V/m) @ t=0.06
-1.6111430586458135
% es.Ey (V/m) @ t=0.06
0.12568018873129227
% es.Ez (V/m) @ t=0.06
0.6738126087887106
% es.tEx (V/m) @ t=0.06
-1.6111430586458066
% es.tEy (V/m) @ t=0.06
0
% es.tEz (V/m) @ t=0.06
0.6738126087887188
% V (V) @ t=0.06
0.009779909189260702
% es.normE (V/m) @ t=0.08
1.7779098833341451
% es.EX (V/m) @ t=0.08
-1.6352803989972742
% es.EY (V/m) @ t=0.08
0.12756306332031675
% es.EZ (V/m) @ t=0.08
0.6839073308231969
% es.tEX (V/m) @ t=0.08
-1.6352803989972688
% es.tEY (V/m) @ t=0.08
0
% es.tEZ (V/m) @ t=0.08
0.683907330823196
% es.Ex (V/m) @ t=0.08
-1.6352803989972742
% es.Ey (V/m) @ t=0.08
0.12756306332031675
% es.Ez (V/m) @ t=0.08
0.6839073308231969
% es.tEx (V/m) @ t=0.08
-1.6352803989972688
% es.tEy (V/m) @ t=0.08
0
% es.tEz (V/m) @ t=0.08
0.683907330823196
% V (V) @ t=0.08
0.009926427069163054
% es.normE (V/m) @ t=0.1
1.8046311906821795
% es.EX (V/m) @ t=0.1
-1.6598580404980214
% es.EY (V/m) @ t=0.1
0.1294802840030359
% es.EZ (V/m) @ t=0.1
0.694186195456505
% es.tEX (V/m) @ t=0.1
-1.6598580404980119
% es.tEY (V/m) @ t=0.1
0
% es.tEZ (V/m) @ t=0.1
0.6941861954565098
% es.Ex (V/m) @ t=0.1
-1.6598580404980214
% es.Ey (V/m) @ t=0.1
0.1294802840030359
% es.Ez (V/m) @ t=0.1
0.694186195456505
% es.tEx (V/m) @ t=0.1
-1.6598580404980119
% es.tEy (V/m) @ t=0.1
0
% es.tEz (V/m) @ t=0.1
0.6941861954565098
% V (V) @ t=0.1
0.010075617672028565
% es.normE (V/m) @ t=0.12
1.8313524980302365
% es.EX (V/m) @ t=0.12
-1.6844356819987858
% es.EY (V/m) @ t=0.12
0.1313975046857888
% es.EZ (V/m) @ t=0.12
0.7044650600898258
% es.tEX (V/m) @ t=0.12
-1.684435681998778
% es.tEY (V/m) @ t=0.12
0
% es.tEZ (V/m) @ t=0.12
0.7044650600898272
% es.Ex (V/m) @ t=0.12
-1.6844356819987858
% es.Ey (V/m) @ t=0.12
0.1313975046857888
% es.Ez (V/m) @ t=0.12
0.7044650600898258
% es.tEx (V/m) @ t=0.12
-1.684435681998778
% es.tEy (V/m) @ t=0.12
0
% es.tEz (V/m) @ t=0.12
0.7044650600898272
% V (V) @ t=0.12
0.010224808274894078
% es.normE (V/m) @ t=0.14
1.8584400293294103
% es.EX (V/m) @ t=0.14
-1.7093501659049264
% es.EY (V/m) @ t=0.14
0.13334100910380386
% es.EZ (V/m) @ t=0.14
0.7148848033871664
% es.tEX (V/m) @ t=0.14
-1.7093501659049188
% es.tEY (V/m) @ t=0.14
0
% es.tEZ (V/m) @ t=0.14
0.714884803387168
% es.Ex (V/m) @ t=0.14
-1.7093501659049264
% es.Ey (V/m) @ t=0.14
0.13334100910380386
% es.Ez (V/m) @ t=0.14
0.7148848033871664
% es.tEx (V/m) @ t=0.14
-1.7093501659049188
% es.tEy (V/m) @ t=0.14
0
% es.tEz (V/m) @ t=0.14
0.714884803387168
% V (V) @ t=0.14
0.010376043167771035
% es.normE (V/m) @ t=0.16
1.8875790969168555
% es.EX (V/m) @ t=0.16
-1.7361515947144213
% es.EY (V/m) @ t=0.16
0.1354317513979938
% es.EZ (V/m) @ t=0.16
0.7260937296164621
% es.tEX (V/m) @ t=0.16
-1.7361515947144177
% es.tEY (V/m) @ t=0.16
0
% es.tEZ (V/m) @ t=0.16
0.7260937296164514
% es.Ex (V/m) @ t=0.16
-1.7361515947144213
% es.Ey (V/m) @ t=0.16
0.1354317513979938
% es.Ez (V/m) @ t=0.16
0.7260937296164621
% es.tEx (V/m) @ t=0.16
-1.7361515947144177
% es.tEy (V/m) @ t=0.16
0
% es.tEz (V/m) @ t=0.16
0.7260937296164514
% V (V) @ t=0.16
0.010538729892592007
% es.normE (V/m) @ t=0.18
1.9167181645043054
% es.EX (V/m) @ t=0.18
-1.7629530235239166
% es.EY (V/m) @ t=0.18
0.13752249369216962
% es.EZ (V/m) @ t=0.18
0.7373026558457649
% es.tEX (V/m) @ t=0.18
-1.7629530235239024
% es.tEY (V/m) @ t=0.18
0
% es.tEZ (V/m) @ t=0.18
0.7373026558457596
% es.Ex (V/m) @ t=0.18
-1.7629530235239166
% es.Ey (V/m) @ t=0.18
0.13752249369216962
% es.Ez (V/m) @ t=0.18
0.7373026558457649
% es.tEx (V/m) @ t=0.18
-1.7629530235239024
% es.tEy (V/m) @ t=0.18
0
% es.tEz (V/m) @ t=0.18
0.7373026558457596
% V (V) @ t=0.18
0.010701416617412975
% es.normE (V/m) @ t=0.2
1.9458572320917544
% es.EX (V/m) @ t=0.2
-1.789754452333416
% es.EY (V/m) @ t=0.2
0.1396132359863329
% es.EZ (V/m) @ t=0.2
0.7485115820750534
% es.tEX (V/m) @ t=0.2
-1.789754452333412
% es.tEY (V/m) @ t=0.2
0
% es.tEZ (V/m) @ t=0.2
0.7485115820750465
% es.Ex (V/m) @ t=0.2
-1.789754452333416
% es.Ey (V/m) @ t=0.2
0.1396132359863329
% es.Ez (V/m) @ t=0.2
0.7485115820750534
% es.tEx (V/m) @ t=0.2
-1.789754452333412
% es.tEy (V/m) @ t=0.2
0
% es.tEz (V/m) @ t=0.2
0.7485115820750465
% V (V) @ t=0.2
0.010864103342233948
% es.normE (V/m) @ t=0.22
1.9749962996792099
% es.EX (V/m) @ t=0.22
-1.8165558811429143
% es.EY (V/m) @ t=0.22
0.14170397828050163
% es.EZ (V/m) @ t=0.22
0.7597205083043563
% es.tEX (V/m) @ t=0.22
-1.8165558811429037
% es.tEY (V/m) @ t=0.22
0
% es.tEZ (V/m) @ t=0.22
0.7597205083043583
% es.Ex (V/m) @ t=0.22
-1.8165558811429143
% es.Ey (V/m) @ t=0.22
0.14170397828050163
% es.Ez (V/m) @ t=0.22
0.7597205083043563
% es.tEx (V/m) @ t=0.22
-1.8165558811429037
% es.tEy (V/m) @ t=0.22
0
% es.tEz (V/m) @ t=0.22
0.7597205083043583
% V (V) @ t=0.22
0.011026790067054919
% es.normE (V/m) @ t=0.24
2.0041353672666586
% es.EX (V/m) @ t=0.24
-1.84335730995241
% es.EY (V/m) @ t=0.24
0.1437947205746738
% es.EZ (V/m) @ t=0.24
0.7709294345336415
% es.tEX (V/m) @ t=0.24
-1.8433573099524079
% es.tEY (V/m) @ t=0.24
0
% es.tEZ (V/m) @ t=0.24
0.7709294345336417
% es.Ex (V/m) @ t=0.24
-1.84335730995241
% es.Ey (V/m) @ t=0.24
0.1437947205746738
% es.Ez (V/m) @ t=0.24
0.7709294345336415
% es.tEx (V/m) @ t=0.24
-1.8433573099524079
% es.tEy (V/m) @ t=0.24
0
% es.tEz (V/m) @ t=0.24
0.7709294345336417
% V (V) @ t=0.24
0.011189476791875888
% es.normE (V/m) @ t=0.26
2.0332744348541167
% es.EX (V/m) @ t=0.26
-1.8701587387619076
% es.EY (V/m) @ t=0.26
0.14588546286883186
% es.EZ (V/m) @ t=0.26
0.7821383607629461
% es.tEX (V/m) @ t=0.26
-1.8701587387618996
% es.tEY (V/m) @ t=0.26
0
% es.tEZ (V/m) @ t=0.26
0.7821383607629464
% es.Ex (V/m) @ t=0.26
-1.8701587387619076
% es.Ey (V/m) @ t=0.26
0.14588546286883186
% es.Ez (V/m) @ t=0.26
0.7821383607629461
% es.tEx (V/m) @ t=0.26
-1.8701587387618996
% es.tEy (V/m) @ t=0.26
0
% es.tEz (V/m) @ t=0.26
0.7821383607629464
% V (V) @ t=0.26
0.011352163516696857
% es.normE (V/m) @ t=0.28
2.0632306555596234
% es.EX (V/m) @ t=0.28
-1.8977117683503442
% es.EY (V/m) @ t=0.28
0.1480348261692841
% es.EZ (V/m) @ t=0.28
0.7936616165480221
% es.tEX (V/m) @ t=0.28
-1.897711768350332
% es.tEY (V/m) @ t=0.28
0
% es.tEZ (V/m) @ t=0.28
0.7936616165480217
% es.Ex (V/m) @ t=0.28
-1.8977117683503442
% es.Ey (V/m) @ t=0.28
0.1480348261692841
% es.Ez (V/m) @ t=0.28
0.7936616165480221
% es.tEx (V/m) @ t=0.28
-1.897711768350332
% es.tEy (V/m) @ t=0.28
0
% es.tEz (V/m) @ t=0.28
0.7936616165480217
% V (V) @ t=0.28
0.011519413050960551
% es.normE (V/m) @ t=0.3
2.0949807517004615
% es.EX (V/m) @ t=0.3
-1.9269147679930203
% es.EY (V/m) @ t=0.3
0.1503128786723168
% es.EZ (V/m) @ t=0.3
0.8058749120040791
% es.tEX (V/m) @ t=0.3
-1.9269147679930079
% es.tEY (V/m) @ t=0.3
0
% es.tEZ (V/m) @ t=0.3
0.8058749120040751
% es.Ex (V/m) @ t=0.3
-1.9269147679930203
% es.Ey (V/m) @ t=0.3
0.1503128786723168
% es.Ez (V/m) @ t=0.3
0.8058749120040791
% es.tEx (V/m) @ t=0.3
-1.9269147679930079
% es.tEy (V/m) @ t=0.3
0
% es.tEz (V/m) @ t=0.3
0.8058749120040751
% V (V) @ t=0.3
0.0116966792046246
% es.normE (V/m) @ t=0.32
2.12673084784129
% es.EX (V/m) @ t=0.32
-1.956117767635689
% es.EY (V/m) @ t=0.32
0.15259093117533695
% es.EZ (V/m) @ t=0.32
0.8180882074601328
% es.tEX (V/m) @ t=0.32
-1.9561177676356785
% es.tEY (V/m) @ t=0.32
0
% es.tEZ (V/m) @ t=0.32
0.8180882074601321
% es.Ex (V/m) @ t=0.32
-1.956117767635689
% es.Ey (V/m) @ t=0.32
0.15259093117533695
% es.Ez (V/m) @ t=0.32
0.8180882074601328
% es.tEx (V/m) @ t=0.32
-1.9561177676356785
% es.tEy (V/m) @ t=0.32
0
% es.tEz (V/m) @ t=0.32
0.8180882074601321
% V (V) @ t=0.32
0.011873945358288649
% es.normE (V/m) @ t=0.34
2.1584809439821218
% es.EX (V/m) @ t=0.34
-1.9853207672783655
% es.EY (V/m) @ t=0.34
0.15486898367835722
% es.EZ (V/m) @ t=0.34
0.8303015029161722
% es.tEX (V/m) @ t=0.34
-1.9853207672783544
% es.tEY (V/m) @ t=0.34
0
% es.tEZ (V/m) @ t=0.34
0.8303015029161749
% es.Ex (V/m) @ t=0.34
-1.9853207672783655
% es.Ey (V/m) @ t=0.34
0.15486898367835722
% es.Ez (V/m) @ t=0.34
0.8303015029161722
% es.tEx (V/m) @ t=0.34
-1.9853207672783544
% es.tEy (V/m) @ t=0.34
0
% es.tEz (V/m) @ t=0.34
0.8303015029161749
% V (V) @ t=0.34
0.0120512115119527
% es.normE (V/m) @ t=0.36
2.1902310401229537
% es.EX (V/m) @ t=0.36
-2.014523766921034
% es.EY (V/m) @ t=0.36
0.15714703618140402
% es.EZ (V/m) @ t=0.36
0.8425147983722313
% es.tEX (V/m) @ t=0.36
-2.014523766921018
% es.tEY (V/m) @ t=0.36
0
% es.tEZ (V/m) @ t=0.36
0.8425147983722283
% es.Ex (V/m) @ t=0.36
-2.014523766921034
% es.Ey (V/m) @ t=0.36
0.15714703618140402
% es.Ez (V/m) @ t=0.36
0.8425147983722313
% es.tEx (V/m) @ t=0.36
-2.014523766921018
% es.tEy (V/m) @ t=0.36
0
% es.tEz (V/m) @ t=0.36
0.8425147983722283
% V (V) @ t=0.36
0.01222847766561675
% es.normE (V/m) @ t=0.38
2.221981136263791
% es.EX (V/m) @ t=0.38
-2.0437267665637098
% es.EY (V/m) @ t=0.38
0.15942508868442773
% es.EZ (V/m) @ t=0.38
0.854728093828285
% es.tEX (V/m) @ t=0.38
-2.043726766563701
% es.tEY (V/m) @ t=0.38
0
% es.tEZ (V/m) @ t=0.38
0.8547280938282853
% es.Ex (V/m) @ t=0.38
-2.0437267665637098
% es.Ey (V/m) @ t=0.38
0.15942508868442773
% es.Ez (V/m) @ t=0.38
0.854728093828285
% es.tEx (V/m) @ t=0.38
-2.043726766563701
% es.tEy (V/m) @ t=0.38
0
% es.tEz (V/m) @ t=0.38
0.8547280938282853
% V (V) @ t=0.38
0.012405743819280803
% es.normE (V/m) @ t=0.4
2.253731232404627
% es.EX (V/m) @ t=0.4
-2.0729297662063857
% es.EY (V/m) @ t=0.4
0.16170314118744444
% es.EZ (V/m) @ t=0.4
0.8669413892843402
% es.tEX (V/m) @ t=0.4
-2.0729297662063733
% es.tEY (V/m) @ t=0.4
0
% es.tEZ (V/m) @ t=0.4
0.8669413892843387
% es.Ex (V/m) @ t=0.4
-2.0729297662063857
% es.Ey (V/m) @ t=0.4
0.16170314118744444
% es.Ez (V/m) @ t=0.4
0.8669413892843402
% es.tEx (V/m) @ t=0.4
-2.0729297662063733
% es.tEy (V/m) @ t=0.4
0
% es.tEz (V/m) @ t=0.4
0.8669413892843387
% V (V) @ t=0.4
0.012583009972944852
% es.normE (V/m) @ t=0.42
2.2868139529375613
% es.EX (V/m) @ t=0.42
-2.103358480729386
% es.EY (V/m) @ t=0.42
0.16407681674655894
% es.EZ (V/m) @ t=0.42
0.8796673085451837
% es.tEX (V/m) @ t=0.42
-2.10335848072938
% es.tEY (V/m) @ t=0.42
0
% es.tEZ (V/m) @ t=0.42
0.8796673085451836
% es.Ex (V/m) @ t=0.42
-2.103358480729386
% es.Ey (V/m) @ t=0.42
0.16407681674655894
% es.Ez (V/m) @ t=0.42
0.8796673085451837
% es.tEx (V/m) @ t=0.42
-2.10335848072938
% es.tEy (V/m) @ t=0.42
0
% es.tEz (V/m) @ t=0.42
0.8796673085451836
% V (V) @ t=0.42
0.012767715960100524
% es.normE (V/m) @ t=0.44
2.321372815109577
% es.EX (V/m) @ t=0.44
-2.1351449137387224
% es.EY (V/m) @ t=0.44
0.166556413505633
% es.EZ (V/m) @ t=0.44
0.8929610587326672
% es.tEX (V/m) @ t=0.44
-2.135144913738708
% es.tEY (V/m) @ t=0.44
0
% es.tEZ (V/m) @ t=0.44
0.8929610587326593
% es.Ex (V/m) @ t=0.44
-2.1351449137387224
% es.Ey (V/m) @ t=0.44
0.166556413505633
% es.Ez (V/m) @ t=0.44
0.8929610587326672
% es.tEx (V/m) @ t=0.44
-2.135144913738708
% es.tEy (V/m) @ t=0.44
0
% es.tEz (V/m) @ t=0.44
0.8929610587326593
% V (V) @ t=0.44
0.012960663015084428
% es.normE (V/m) @ t=0.46
2.3559316772816183
% es.EX (V/m) @ t=0.46
-2.1669313467480755
% es.EY (V/m) @ t=0.46
0.1690360102647177
% es.EZ (V/m) @ t=0.46
0.906254808920172
% es.tEX (V/m) @ t=0.46
-2.1669313467480684
% es.tEY (V/m) @ t=0.46
0
% es.tEZ (V/m) @ t=0.46
0.906254808920167
% es.Ex (V/m) @ t=0.46
-2.1669313467480755
% es.Ey (V/m) @ t=0.46
0.1690360102647177
% es.Ez (V/m) @ t=0.46
0.906254808920172
% es.tEx (V/m) @ t=0.46
-2.1669313467480684
% es.tEy (V/m) @ t=0.46
0
% es.tEz (V/m) @ t=0.46
0.906254808920167
% V (V) @ t=0.46
0.013153610070068331
% es.normE (V/m) @ t=0.48
2.3904905394536415
% es.EX (V/m) @ t=0.48
-2.1987177797574153
% es.EY (V/m) @ t=0.48
0.17151560702379165
% es.EZ (V/m) @ t=0.48
0.9195485591076644
% es.tEX (V/m) @ t=0.48
-2.1987177797574073
% es.tEY (V/m) @ t=0.48
0
% es.tEZ (V/m) @ t=0.48
0.9195485591076675
% es.Ex (V/m) @ t=0.48
-2.1987177797574153
% es.Ey (V/m) @ t=0.48
0.17151560702379165
% es.Ez (V/m) @ t=0.48
0.9195485591076644
% es.tEx (V/m) @ t=0.48
-2.1987177797574073
% es.tEy (V/m) @ t=0.48
0
% es.tEz (V/m) @ t=0.48
0.9195485591076675
% V (V) @ t=0.48
0.013346557125052233
% es.normE (V/m) @ t=0.5
2.4250494016256736
% es.EX (V/m) @ t=0.5
-2.2305042127667623
% es.EY (V/m) @ t=0.5
0.17399520378286204
% es.EZ (V/m) @ t=0.5
0.932842309295162
% es.tEX (V/m) @ t=0.5
-2.2305042127667534
% es.tEY (V/m) @ t=0.5
0
% es.tEZ (V/m) @ t=0.5
0.9328423092951539
% es.Ex (V/m) @ t=0.5
-2.2305042127667623
% es.Ey (V/m) @ t=0.5
0.17399520378286204
% es.Ez (V/m) @ t=0.5
0.932842309295162
% es.tEx (V/m) @ t=0.5
-2.2305042127667534
% es.tEy (V/m) @ t=0.5
0
% es.tEz (V/m) @ t=0.5
0.9328423092951539
% V (V) @ t=0.5
0.013539504180036133
% es.normE (V/m) @ t=0.52
2.4596082637976964
% es.EX (V/m) @ t=0.52
-2.2622906457760967
% es.EY (V/m) @ t=0.52
0.17647480054195563
% es.EZ (V/m) @ t=0.52
0.9461360594826579
% es.tEX (V/m) @ t=0.52
-2.2622906457760923
% es.tEY (V/m) @ t=0.52
0
% es.tEZ (V/m) @ t=0.52
0.9461360594826473
% es.Ex (V/m) @ t=0.52
-2.2622906457760967
% es.Ey (V/m) @ t=0.52
0.17647480054195563
% es.Ez (V/m) @ t=0.52
0.9461360594826579
% es.tEx (V/m) @ t=0.52
-2.2622906457760923
% es.tEy (V/m) @ t=0.52
0
% es.tEz (V/m) @ t=0.52
0.9461360594826473
% V (V) @ t=0.52
0.013732451235020036
% es.normE (V/m) @ t=0.54
2.4941671259697333
% es.EX (V/m) @ t=0.54
-2.294077078785447
% es.EY (V/m) @ t=0.54
0.17895439730103324
% es.EZ (V/m) @ t=0.54
0.959429809670152
% es.tEX (V/m) @ t=0.54
-2.294077078785431
% es.tEY (V/m) @ t=0.54
0
% es.tEZ (V/m) @ t=0.54
0.9594298096701621
% es.Ex (V/m) @ t=0.54
-2.294077078785447
% es.Ey (V/m) @ t=0.54
0.17895439730103324
% es.Ez (V/m) @ t=0.54
0.959429809670152
% es.tEx (V/m) @ t=0.54
-2.294077078785431
% es.tEy (V/m) @ t=0.54
0
% es.tEz (V/m) @ t=0.54
0.9594298096701621
% V (V) @ t=0.54
0.01392539829000394
% es.normE (V/m) @ t=0.56
2.529551132969743
% es.EX (V/m) @ t=0.56
-2.326622462817234
% es.EY (V/m) @ t=0.56
0.18149318973537643
% es.EZ (V/m) @ t=0.56
0.9730409642352803
% es.tEX (V/m) @ t=0.56
-2.3266224628172214
% es.tEY (V/m) @ t=0.56
0
% es.tEZ (V/m) @ t=0.56
0.9730409642352811
% es.Ex (V/m) @ t=0.56
-2.326622462817234
% es.Ey (V/m) @ t=0.56
0.18149318973537643
% es.Ez (V/m) @ t=0.56
0.9730409642352803
% es.tEx (V/m) @ t=0.56
-2.3266224628172214
% es.tEy (V/m) @ t=0.56
0
% es.tEz (V/m) @ t=0.56
0.9730409642352811
% V (V) @ t=0.56
0.014122952702038978
% es.normE (V/m) @ t=0.58
2.5656915006017433
% es.EX (V/m) @ t=0.58
-2.3598635316009915
% es.EY (V/m) @ t=0.58
0.18408624328466006
% es.EZ (V/m) @ t=0.58
0.9869430643017337
% es.tEX (V/m) @ t=0.58
-2.3598635316009844
% es.tEY (V/m) @ t=0.58
0
% es.tEZ (V/m) @ t=0.58
0.9869430643017267
% es.Ex (V/m) @ t=0.58
-2.3598635316009915
% es.Ey (V/m) @ t=0.58
0.18408624328466006
% es.Ez (V/m) @ t=0.58
0.9869430643017337
% es.tEx (V/m) @ t=0.58
-2.3598635316009844
% es.tEy (V/m) @ t=0.58
0
% es.tEz (V/m) @ t=0.58
0.9869430643017267
% V (V) @ t=0.58
0.014324730401154073
% es.normE (V/m) @ t=0.6
2.6021790553118356
% es.EX (V/m) @ t=0.6
-2.3934239358261813
% es.EY (V/m) @ t=0.6
0.18670420394462428
% es.EZ (V/m) @ t=0.6
1.0009787151034328
% es.tEX (V/m) @ t=0.6
-2.393423935826169
% es.tEY (V/m) @ t=0.6
0
% es.tEZ (V/m) @ t=0.6
1.0009787151034288
% es.Ex (V/m) @ t=0.6
-2.3934239358261813
% es.Ey (V/m) @ t=0.6
0.18670420394462428
% es.Ez (V/m) @ t=0.6
1.0009787151034328
% es.tEx (V/m) @ t=0.6
-2.393423935826169
% es.tEy (V/m) @ t=0.6
0
% es.tEz (V/m) @ t=0.6
1.0009787151034288
% V (V) @ t=0.6
0.01452844668702141
% es.normE (V/m) @ t=0.62
2.6390137970999796
% es.EX (V/m) @ t=0.62
-2.427303675492783
% es.EY (V/m) @ t=0.62
0.18934707171521026
% es.EZ (V/m) @ t=0.62
1.0151479166403314
% es.tEX (V/m) @ t=0.62
-2.4273036754927713
% es.tEY (V/m) @ t=0.62
0
% es.tEZ (V/m) @ t=0.62
1.0151479166403234
% es.Ex (V/m) @ t=0.62
-2.427303675492783
% es.Ey (V/m) @ t=0.62
0.18934707171521026
% es.Ez (V/m) @ t=0.62
1.0151479166403314
% es.tEx (V/m) @ t=0.62
-2.4273036754927713
% es.tEy (V/m) @ t=0.62
0
% es.tEz (V/m) @ t=0.62
1.0151479166403234
% V (V) @ t=0.62
0.014734101559641
% es.normE (V/m) @ t=0.64
2.676195725966208
% es.EX (V/m) @ t=0.64
-2.4615027506008236
% es.EY (V/m) @ t=0.64
0.1920148465964322
% es.EZ (V/m) @ t=0.64
1.0294506689124439
% es.tEX (V/m) @ t=0.64
-2.461502750600811
% es.tEY (V/m) @ t=0.64
0
% es.tEZ (V/m) @ t=0.64
1.0294506689124532
% es.Ex (V/m) @ t=0.64
-2.4615027506008236
% es.Ey (V/m) @ t=0.64
0.1920148465964322
% es.Ez (V/m) @ t=0.64
1.0294506689124439
% es.tEx (V/m) @ t=0.64
-2.461502750600811
% es.tEy (V/m) @ t=0.64
0
% es.tEz (V/m) @ t=0.64
1.0294506689124532
% V (V) @ t=0.64
0.014941695019012833
% es.normE (V/m) @ t=0.66
2.713724841910473
% es.EX (V/m) @ t=0.66
-2.496021161150252
% es.EY (V/m) @ t=0.66
0.1947075285883133
% es.EZ (V/m) @ t=0.66
1.04388697191977
% es.tEX (V/m) @ t=0.66
-2.4960211611502476
% es.tEY (V/m) @ t=0.66
0
% es.tEZ (V/m) @ t=0.66
1.0438869719197754
% es.Ex (V/m) @ t=0.66
-2.496021161150252
% es.Ey (V/m) @ t=0.66
0.1947075285883133
% es.Ez (V/m) @ t=0.66
1.04388697191977
% es.tEx (V/m) @ t=0.66
-2.4960211611502476
% es.tEy (V/m) @ t=0.66
0
% es.tEz (V/m) @ t=0.66
1.0438869719197754
% V (V) @ t=0.66
0.015151227065136913
% es.normE (V/m) @ t=0.68
2.751601144932823
% es.EX (V/m) @ t=0.68
-2.5308589071411234
% es.EY (V/m) @ t=0.68
0.19742511769083027
% es.EZ (V/m) @ t=0.68
1.0584568256623048
% es.tEX (V/m) @ t=0.68
-2.5308589071411145
% es.tEY (V/m) @ t=0.68
0
% es.tEZ (V/m) @ t=0.68
1.0584568256623044
% es.Ex (V/m) @ t=0.68
-2.5308589071411234
% es.Ey (V/m) @ t=0.68
0.19742511769083027
% es.Ez (V/m) @ t=0.68
1.0584568256623048
% es.tEx (V/m) @ t=0.68
-2.5308589071411145
% es.tEy (V/m) @ t=0.68
0
% es.tEz (V/m) @ t=0.68
1.0584568256623044
% V (V) @ t=0.68
0.015362697698013243
% es.normE (V/m) @ t=0.7
2.789824635033219
% es.EX (V/m) @ t=0.7
-2.566015988573393
% es.EY (V/m) @ t=0.7
0.20016761390397797
% es.EZ (V/m) @ t=0.7
1.0731602301400534
% es.tEX (V/m) @ t=0.7
-2.566015988573385
% es.tEY (V/m) @ t=0.7
0
% es.tEZ (V/m) @ t=0.7
1.0731602301400542
% es.Ex (V/m) @ t=0.7
-2.566015988573393
% es.Ey (V/m) @ t=0.7
0.20016761390397797
% es.Ez (V/m) @ t=0.7
1.0731602301400534
% es.tEx (V/m) @ t=0.7
-2.566015988573385
% es.tEy (V/m) @ t=0.7
0
% es.tEz (V/m) @ t=0.7
1.0731602301400542
% V (V) @ t=0.7
0.01557610691764182
% es.normE (V/m) @ t=0.72
2.8283953122117156
% es.EX (V/m) @ t=0.72
-2.6014924054471136
% es.EY (V/m) @ t=0.72
0.2029350172278077
% es.EZ (V/m) @ t=0.72
1.0879971853530233
% es.tEX (V/m) @ t=0.72
-2.601492405447104
% es.tEY (V/m) @ t=0.72
0
% es.tEZ (V/m) @ t=0.72
1.087997185353025
% es.Ex (V/m) @ t=0.72
-2.6014924054471136
% es.Ey (V/m) @ t=0.72
0.2029350172278077
% es.Ez (V/m) @ t=0.72
1.0879971853530233
% es.tEx (V/m) @ t=0.72
-2.601492405447104
% es.tEy (V/m) @ t=0.72
0
% es.tEz (V/m) @ t=0.72
1.087997185353025
% V (V) @ t=0.72
0.015791454724022644
% es.normE (V/m) @ t=0.74
2.8673131764682425
% es.EX (V/m) @ t=0.74
-2.63728815776222
% es.EY (V/m) @ t=0.74
0.2057273276622824
% es.EZ (V/m) @ t=0.74
1.1029676913011923
% es.tEX (V/m) @ t=0.74
-2.637288157762212
% es.tEY (V/m) @ t=0.74
0
% es.tEZ (V/m) @ t=0.74
1.1029676913011954
% es.Ex (V/m) @ t=0.74
-2.63728815776222
% es.Ey (V/m) @ t=0.74
0.2057273276622824
% es.Ez (V/m) @ t=0.74
1.1029676913011923
% es.tEx (V/m) @ t=0.74
-2.637288157762212
% es.tEy (V/m) @ t=0.74
0
% es.tEz (V/m) @ t=0.74
1.1029676913011954
% V (V) @ t=0.74
0.01600874111715571
% es.normE (V/m) @ t=0.76
2.906578227802867
% es.EX (V/m) @ t=0.76
-2.6734032455187853
% es.EY (V/m) @ t=0.76
0.20854454520738408
% es.EZ (V/m) @ t=0.76
1.118071747984572
% es.tEX (V/m) @ t=0.76
-2.6734032455187737
% es.tEY (V/m) @ t=0.76
0
% es.tEZ (V/m) @ t=0.76
1.1180717479845725
% es.Ex (V/m) @ t=0.76
-2.6734032455187853
% es.Ey (V/m) @ t=0.76
0.20854454520738408
% es.Ez (V/m) @ t=0.76
1.118071747984572
% es.tEx (V/m) @ t=0.76
-2.6734032455187737
% es.tEy (V/m) @ t=0.76
0
% es.tEz (V/m) @ t=0.76
1.1180717479845725
% V (V) @ t=0.76
0.016227966097041024
% es.normE (V/m) @ t=0.78
2.946190466215512
% es.EX (V/m) @ t=0.78
-2.7098376687167205
% es.EY (V/m) @ t=0.78
0.21138666986312005
% es.EZ (V/m) @ t=0.78
1.1333093554031617
% es.tEX (V/m) @ t=0.78
-2.709837668716716
% es.tEY (V/m) @ t=0.78
0
% es.tEZ (V/m) @ t=0.78
1.1333093554031493
% es.Ex (V/m) @ t=0.78
-2.7098376687167205
% es.Ey (V/m) @ t=0.78
0.21138666986312005
% es.Ez (V/m) @ t=0.78
1.1333093554031617
% es.tEx (V/m) @ t=0.78
-2.709837668716716
% es.tEy (V/m) @ t=0.78
0
% es.tEz (V/m) @ t=0.78
1.1333093554031493
% V (V) @ t=0.78
0.01644912966367859
% es.normE (V/m) @ t=0.8
2.9861498917062415
% es.EX (V/m) @ t=0.8
-2.7465914273560923
% es.EY (V/m) @ t=0.8
0.2142537016295223
% es.EZ (V/m) @ t=0.8
1.1486805135569726
% es.tEX (V/m) @ t=0.8
-2.74659142735608
% es.tEY (V/m) @ t=0.8
0
% es.tEZ (V/m) @ t=0.8
1.1486805135569682
% es.Ex (V/m) @ t=0.8
-2.7465914273560923
% es.Ey (V/m) @ t=0.8
0.2142537016295223
% es.Ez (V/m) @ t=0.8
1.1486805135569726
% es.tEx (V/m) @ t=0.8
-2.74659142735608
% es.tEy (V/m) @ t=0.8
0
% es.tEz (V/m) @ t=0.8
1.1486805135569682
% V (V) @ t=0.8
0.016672231817068405
% es.normE (V/m) @ t=0.82
3.02645650427503
% es.EX (V/m) @ t=0.82
-2.7836645214368803
% es.EY (V/m) @ t=0.82
0.2171456405065798
% es.EZ (V/m) @ t=0.82
1.1641852224459797
% es.tEX (V/m) @ t=0.82
-2.783664521436858
% es.tEY (V/m) @ t=0.82
0
% es.tEZ (V/m) @ t=0.82
1.1641852224459868
% es.Ex (V/m) @ t=0.82
-2.7836645214368803
% es.Ey (V/m) @ t=0.82
0.2171456405065798
% es.Ez (V/m) @ t=0.82
1.1641852224459797
% es.tEx (V/m) @ t=0.82
-2.783664521436858
% es.tEy (V/m) @ t=0.82
0
% es.tEz (V/m) @ t=0.82
1.1641852224459868
% V (V) @ t=0.82
0.016897272557210463
% es.normE (V/m) @ t=0.84
3.067800008995694
% es.EX (V/m) @ t=0.84
-2.821691322295986
% es.EY (V/m) @ t=0.84
0.22011198631011542
% es.EZ (V/m) @ t=0.84
1.1800887967303577
% es.tEX (V/m) @ t=0.84
-2.821691322295969
% es.tEY (V/m) @ t=0.84
0
% es.tEZ (V/m) @ t=0.84
1.1800887967303595
% es.Ex (V/m) @ t=0.84
-2.821691322295986
% es.Ey (V/m) @ t=0.84
0.22011198631011542
% es.Ez (V/m) @ t=0.84
1.1800887967303577
% es.tEx (V/m) @ t=0.84
-2.821691322295969
% es.tEy (V/m) @ t=0.84
0
% es.tEz (V/m) @ t=0.84
1.1800887967303595
% V (V) @ t=0.84
0.017128101888454508
% es.normE (V/m) @ t=0.86
3.109616513656275
% es.EX (V/m) @ t=0.86
-2.8601531777297957
% es.EY (V/m) @ t=0.86
0.22311226875554635
% es.EZ (V/m) @ t=0.86
1.1961743192432635
% es.tEX (V/m) @ t=0.86
-2.8601531777297815
% es.tEY (V/m) @ t=0.86
0
% es.tEZ (V/m) @ t=0.86
1.196174319243255
% es.Ex (V/m) @ t=0.86
-2.8601531777297957
% es.Ey (V/m) @ t=0.86
0.22311226875554635
% es.Ez (V/m) @ t=0.86
1.1961743192432635
% es.tEx (V/m) @ t=0.86
-2.8601531777297815
% es.tEy (V/m) @ t=0.86
0
% es.tEz (V/m) @ t=0.86
1.196174319243255
% V (V) @ t=0.86
0.01736157210672921
% es.normE (V/m) @ t=0.88
3.1518784909841893
% es.EX (V/m) @ t=0.88
-2.8990247689269046
% es.EY (V/m) @ t=0.88
0.22614451222310195
% es.EZ (V/m) @ t=0.88
1.212431200836837
% es.tEX (V/m) @ t=0.88
-2.899024768926896
% es.tEY (V/m) @ t=0.88
0
% es.tEZ (V/m) @ t=0.88
1.2124312008368392
% es.Ex (V/m) @ t=0.88
-2.8990247689269046
% es.Ey (V/m) @ t=0.88
0.22614451222310195
% es.Ez (V/m) @ t=0.88
1.212431200836837
% es.tEx (V/m) @ t=0.88
-2.899024768926896
% es.tEy (V/m) @ t=0.88
0
% es.tEz (V/m) @ t=0.88
1.2124312008368392
% V (V) @ t=0.88
0.017597529551980486
% es.normE (V/m) @ t=0.9
3.1945859409795236
% es.EX (V/m) @ t=0.9
-2.9383060958873615
% es.EY (V/m) @ t=0.9
0.2292087167128748
% es.EZ (V/m) @ t=0.9
1.2288594415111596
% es.tEX (V/m) @ t=0.9
-2.938306095887363
% es.tEY (V/m) @ t=0.9
0
% es.tEZ (V/m) @ t=0.9
1.2288594415111618
% es.Ex (V/m) @ t=0.9
-2.9383060958873615
% es.Ey (V/m) @ t=0.9
0.2292087167128748
% es.Ez (V/m) @ t=0.9
1.2288594415111596
% es.tEx (V/m) @ t=0.9
-2.938306095887363
% es.tEy (V/m) @ t=0.9
0
% es.tEz (V/m) @ t=0.9
1.2288594415111618
% V (V) @ t=0.9
0.017835974224208344
% es.normE (V/m) @ t=0.92
3.237738863642281
% es.EX (V/m) @ t=0.92
-2.977997158611178
% es.EY (V/m) @ t=0.92
0.23230488222482182
% es.EZ (V/m) @ t=0.92
1.245459041266225
% es.tEX (V/m) @ t=0.92
-2.977997158611153
% es.tEY (V/m) @ t=0.92
0
% es.tEZ (V/m) @ t=0.92
1.2454590412662228
% es.Ex (V/m) @ t=0.92
-2.977997158611178
% es.Ey (V/m) @ t=0.92
0.23230488222482182
% es.Ez (V/m) @ t=0.92
1.245459041266225
% es.tEx (V/m) @ t=0.92
-2.977997158611153
% es.tEy (V/m) @ t=0.92
0
% es.tEz (V/m) @ t=0.92
1.2454590412662228
% V (V) @ t=0.92
0.018076906123412763
% es.normE (V/m) @ t=0.94
3.281337258972327
% es.EX (V/m) @ t=0.94
-3.0180979570982567
% es.EY (V/m) @ t=0.94
0.23543300875890794
% es.EZ (V/m) @ t=0.94
1.2622300001019293
% es.tEX (V/m) @ t=0.94
-3.018097957098238
% es.tEY (V/m) @ t=0.94
0
% es.tEZ (V/m) @ t=0.94
1.2622300001019298
% es.Ex (V/m) @ t=0.94
-3.0180979570982567
% es.Ey (V/m) @ t=0.94
0.23543300875890794
% es.Ez (V/m) @ t=0.94
1.2622300001019293
% es.tEx (V/m) @ t=0.94
-3.018097957098238
% es.tEy (V/m) @ t=0.94
0
% es.tEz (V/m) @ t=0.94
1.2622300001019298
% V (V) @ t=0.94
0.01832032524959376
% es.normE (V/m) @ t=0.96
3.3253811269698286
% es.EX (V/m) @ t=0.96
-3.058608491348712
% es.EY (V/m) @ t=0.96
0.23859309631518255
% es.EZ (V/m) @ t=0.96
1.2791723180184116
% es.tEX (V/m) @ t=0.96
-3.0586084913487035
% es.tEY (V/m) @ t=0.96
0
% es.tEZ (V/m) @ t=0.96
1.279172318018425
% es.Ex (V/m) @ t=0.96
-3.058608491348712
% es.Ey (V/m) @ t=0.96
0.23859309631518255
% es.Ez (V/m) @ t=0.96
1.2791723180184116
% es.tEx (V/m) @ t=0.96
-3.0586084913487035
% es.tEy (V/m) @ t=0.96
0
% es.tEz (V/m) @ t=0.96
1.279172318018425
% V (V) @ t=0.96
0.01856623160275134
% es.normE (V/m) @ t=0.98
3.3698704676347093
% es.EX (V/m) @ t=0.98
-3.09952876136248
% es.EY (V/m) @ t=0.98
0.24178514489364988
% es.EZ (V/m) @ t=0.98
1.2962859950156278
% es.tEX (V/m) @ t=0.98
-3.0995287613624782
% es.tEY (V/m) @ t=0.98
0
% es.tEZ (V/m) @ t=0.98
1.29628599501563
% es.Ex (V/m) @ t=0.98
-3.09952876136248
% es.Ey (V/m) @ t=0.98
0.24178514489364988
% es.Ez (V/m) @ t=0.98
1.2962859950156278
% es.tEx (V/m) @ t=0.98
-3.0995287613624782
% es.tEy (V/m) @ t=0.98
0
% es.tEz (V/m) @ t=0.98
1.29628599501563
% V (V) @ t=0.98
0.01881462518288548
% es.normE (V/m) @ t=1
3.414805280966955
% es.EX (V/m) @ t=1
-3.14085876713958
% es.EY (V/m) @ t=1
0.24500915449426652
% es.EZ (V/m) @ t=1
1.3135710310935087
% es.tEX (V/m) @ t=1
-3.140858767139573
% es.tEY (V/m) @ t=1
0
% es.tEZ (V/m) @ t=1
1.3135710310935096
% es.Ex (V/m) @ t=1
-3.14085876713958
% es.Ey (V/m) @ t=1
0.24500915449426652
% es.Ez (V/m) @ t=1
1.3135710310935087
% es.tEx (V/m) @ t=1
-3.140858767139573
% es.tEy (V/m) @ t=1
0
% es.tEz (V/m) @ t=1
1.3135710310935096
% V (V) @ t=1
0.019065505989996196
% es.normE (V/m) @ t=1.02
3.460185566966584
% es.EX (V/m) @ t=1.02
-3.1825985086799977
% es.EY (V/m) @ t=1.02
0.24826512511707555
% es.EZ (V/m) @ t=1.02
1.3310274262521247
% es.tEX (V/m) @ t=1.02
-3.1825985086799946
% es.tEY (V/m) @ t=1.02
0
% es.tEZ (V/m) @ t=1.02
1.3310274262521133
% es.Ex (V/m) @ t=1.02
-3.1825985086799977
% es.Ey (V/m) @ t=1.02
0.24826512511707555
% es.Ez (V/m) @ t=1.02
1.3310274262521247
% es.tEx (V/m) @ t=1.02
-3.1825985086799946
% es.tEy (V/m) @ t=1.02
0
% es.tEz (V/m) @ t=1.02
1.3310274262521133
% V (V) @ t=1.02
0.01931887402408349
% es.normE (V/m) @ t=1.04
3.5060113256336223
% es.EX (V/m) @ t=1.04
-3.224747985983755
% es.EY (V/m) @ t=1.04
0.2515530567620732
% es.EZ (V/m) @ t=1.04
1.3486551804914897
% es.tEX (V/m) @ t=1.04
-3.2247479859837256
% es.tEY (V/m) @ t=1.04
0
% es.tEZ (V/m) @ t=1.04
1.348655180491484
% es.Ex (V/m) @ t=1.04