% Model:              1 neuron.mph
% Version:            COMSOL 6.0.0.405
% Date:               Mar 16 2023, 19:12
% Dimension:          0
% Nodes:              14017
% Expressions:        14017
% Description:        Electric field norm, Electric field, X component, Electric field, Y component, Electric field, Z component, Tangential electric field, X component, Tangential electric field, Y component, Tangential electric field, Z component, Electric field, x component, Electric field, y component, Electric field, z component, Tangential electric field, x component, Tangential electric field, y component, Tangential electric field, z component, Electric potential
% Length unit:        mm
% x
1.66
% y
12.2
% z
2
% es.normE (V/m) @ t=0
2.184330066951009
% es.EX (V/m) @ t=0
-0.651629279431117
% es.EY (V/m) @ t=0
0.048673279605211214
% es.EZ (V/m) @ t=0
-2.080793181018299
% es.tEX (V/m) @ t=0
-0.6516292794311269
% es.tEY (V/m) @ t=0
0
% es.tEZ (V/m) @ t=0
-2.080793181018315
% es.Ex (V/m) @ t=0
-0.651629279431117
% es.Ey (V/m) @ t=0
0.048673279605211214
% es.Ez (V/m) @ t=0
-2.080793181018299
% es.tEx (V/m) @ t=0
-0.6516292794311269
% es.tEy (V/m) @ t=0
0
% es.tEz (V/m) @ t=0
-2.080793181018315
% V (V) @ t=0
0.0109793655477303
% es.normE (V/m) @ t=0.02
1.8971060476838382
% es.EX (V/m) @ t=0.02
-0.5659446313567282
% es.EY (V/m) @ t=0.02
0.04227309932536391
% es.EZ (V/m) @ t=0.02
-1.8071835287665716
% es.tEX (V/m) @ t=0.02
-0.5659446313567358
% es.tEY (V/m) @ t=0.02
0
% es.tEZ (V/m) @ t=0.02
-1.8071835287665863
% es.Ex (V/m) @ t=0.02
-0.5659446313567282
% es.Ey (V/m) @ t=0.02
0.04227309932536391
% es.Ez (V/m) @ t=0.02
-1.8071835287665716
% es.tEx (V/m) @ t=0.02
-0.5659446313567358
% es.tEy (V/m) @ t=0.02
0
% es.tEz (V/m) @ t=0.02
-1.8071835287665863
% V (V) @ t=0.02
0.009535655484936238
% es.normE (V/m) @ t=0.04
1.925231018000555
% es.EX (V/m) @ t=0.04
-0.5743349466904095
% es.EY (V/m) @ t=0.04
0.042899886754611136
% es.EZ (V/m) @ t=0.04
-1.8339753547023423
% es.tEX (V/m) @ t=0.04
-0.5743349466904135
% es.tEY (V/m) @ t=0.04
0
% es.tEZ (V/m) @ t=0.04
-1.833975354702356
% es.Ex (V/m) @ t=0.04
-0.5743349466904095
% es.Ey (V/m) @ t=0.04
0.042899886754611136
% es.Ez (V/m) @ t=0.04
-1.8339753547023423
% es.tEx (V/m) @ t=0.04
-0.5743349466904135
% es.tEy (V/m) @ t=0.04
0
% es.tEz (V/m) @ t=0.04
-1.833975354702356
% V (V) @ t=0.04
0.00967701854976368
% es.normE (V/m) @ t=0.06
1.9538040047333043
% es.EX (V/m) @ t=0.06
-0.5828589408950566
% es.EY (V/m) @ t=0.06
0.043536683649987154
% es.EZ (V/m) @ t=0.06
-1.8611939522730925
% es.tEX (V/m) @ t=0.06
-0.5828589408950648
% es.tEY (V/m) @ t=0.06
0
% es.tEZ (V/m) @ t=0.06
-1.861193952273112
% es.Ex (V/m) @ t=0.06
-0.5828589408950566
% es.Ey (V/m) @ t=0.06
0.043536683649987154
% es.Ez (V/m) @ t=0.06
-1.8611939522730925
% es.tEx (V/m) @ t=0.06
-0.5828589408950648
% es.tEy (V/m) @ t=0.06
0
% es.tEz (V/m) @ t=0.06
-1.861193952273112
% V (V) @ t=0.06
0.009820631827279484
% es.normE (V/m) @ t=0.08
1.983043518529362
% es.EX (V/m) @ t=0.08
-0.5915816838870973
% es.EY (V/m) @ t=0.08
0.04418823615752904
% es.EZ (V/m) @ t=0.08
-1.889047513984925
% es.tEX (V/m) @ t=0.08
-0.5915816838871031
% es.tEY (V/m) @ t=0.08
0
% es.tEZ (V/m) @ t=0.08
-1.8890475139849334
% es.Ex (V/m) @ t=0.08
-0.5915816838870973
% es.Ey (V/m) @ t=0.08
0.04418823615752904
% es.Ez (V/m) @ t=0.08
-1.889047513984925
% es.tEx (V/m) @ t=0.08
-0.5915816838871031
% es.tEy (V/m) @ t=0.08
0
% es.tEz (V/m) @ t=0.08
-1.8890475139849334
% V (V) @ t=0.08
0.009967601222979136
% es.normE (V/m) @ t=0.1
2.0128769988059676
% es.EX (V/m) @ t=0.1
-0.6004815391439999
% es.EY (V/m) @ t=0.1
0.04485293792712368
% es.EZ (V/m) @ t=0.1
-1.9174669153106492
% es.tEX (V/m) @ t=0.1
-0.6004815391440026
% es.tEY (V/m) @ t=0.1
0
% es.tEZ (V/m) @ t=0.1
-1.9174669153106532
% es.Ex (V/m) @ t=0.1
-0.6004815391439999
% es.Ey (V/m) @ t=0.1
0.04485293792712368
% es.Ez (V/m) @ t=0.1
-1.9174669153106492
% es.tEx (V/m) @ t=0.1
-0.6004815391440026
% es.tEy (V/m) @ t=0.1
0
% es.tEz (V/m) @ t=0.1
-1.9174669153106532
% V (V) @ t=0.1
0.010117561377517447
% es.normE (V/m) @ t=0.12
2.0427104790825696
% es.EX (V/m) @ t=0.12
-0.609381394400901
% es.EY (V/m) @ t=0.12
0.04551763969670429
% es.EZ (V/m) @ t=0.12
-1.9458863166363654
% es.tEX (V/m) @ t=0.12
-0.6093813944009021
% es.tEY (V/m) @ t=0.12
0
% es.tEZ (V/m) @ t=0.12
-1.9458863166363738
% es.Ex (V/m) @ t=0.12
-0.609381394400901
% es.Ey (V/m) @ t=0.12
0.04551763969670429
% es.Ez (V/m) @ t=0.12
-1.9458863166363654
% es.tEx (V/m) @ t=0.12
-0.6093813944009021
% es.tEy (V/m) @ t=0.12
0
% es.tEz (V/m) @ t=0.12
-1.9458863166363738
% V (V) @ t=0.12
0.010267521532055757
% es.normE (V/m) @ t=0.14
2.072729132311628
% es.EX (V/m) @ t=0.14
-0.6183364843358128
% es.EY (V/m) @ t=0.14
0.046186460983015626
% es.EZ (V/m) @ t=0.14
-1.9744821158240944
% es.tEX (V/m) @ t=0.14
-0.6183364843358206
% es.tEY (V/m) @ t=0.14
0
% es.tEZ (V/m) @ t=0.14
-1.9744821158241113
% es.Ex (V/m) @ t=0.14
-0.6183364843358128
% es.Ey (V/m) @ t=0.14
0.046186460983015626
% es.Ez (V/m) @ t=0.14
-1.9744821158240944
% es.tEx (V/m) @ t=0.14
-0.6183364843358206
% es.tEy (V/m) @ t=0.14
0
% es.tEz (V/m) @ t=0.14
-1.9744821158241113
% V (V) @ t=0.14
0.010418412846363882
% es.normE (V/m) @ t=0.16
2.105297605613209
% es.EX (V/m) @ t=0.16
-0.6280521523617635
% es.EY (V/m) @ t=0.16
0.04691200775916328
% es.EZ (V/m) @ t=0.16
-2.0055069026331425
% es.tEX (V/m) @ t=0.16
-0.6280521523617644
% es.tEY (V/m) @ t=0.16
0
% es.tEZ (V/m) @ t=0.16
-2.005506902633159
% es.Ex (V/m) @ t=0.16
-0.6280521523617635
% es.Ey (V/m) @ t=0.16
0.04691200775916328
% es.Ez (V/m) @ t=0.16
-2.0055069026331425
% es.tEx (V/m) @ t=0.16
-0.6280521523617644
% es.tEy (V/m) @ t=0.16
0
% es.tEz (V/m) @ t=0.16
-2.005506902633159
% V (V) @ t=0.16
0.010582126172960787
% es.normE (V/m) @ t=0.18
2.137866078914842
% es.EX (V/m) @ t=0.18
-0.637767820387731
% es.EY (V/m) @ t=0.18
0.047637554535305215
% es.EZ (V/m) @ t=0.18
-2.0365316894422127
% es.tEX (V/m) @ t=0.18
-0.6377678203877366
% es.tEY (V/m) @ t=0.18
0
% es.tEZ (V/m) @ t=0.18
-2.0365316894422367
% es.Ex (V/m) @ t=0.18
-0.637767820387731
% es.Ey (V/m) @ t=0.18
0.047637554535305215
% es.Ez (V/m) @ t=0.18
-2.0365316894422127
% es.tEx (V/m) @ t=0.18
-0.6377678203877366
% es.tEy (V/m) @ t=0.18
0
% es.tEz (V/m) @ t=0.18
-2.0365316894422367
% V (V) @ t=0.18
0.010745839499557696
% es.normE (V/m) @ t=0.2
2.1704345522165127
% es.EX (V/m) @ t=0.2
-0.6474834884136953
% es.EY (V/m) @ t=0.2
0.048363101311457754
% es.EZ (V/m) @ t=0.2
-2.067556476251296
% es.tEX (V/m) @ t=0.2
-0.6474834884137017
% es.tEY (V/m) @ t=0.2
0
% es.tEZ (V/m) @ t=0.2
-2.0675564762513083
% es.Ex (V/m) @ t=0.2
-0.6474834884136953
% es.Ey (V/m) @ t=0.2
0.048363101311457754
% es.Ez (V/m) @ t=0.2
-2.067556476251296
% es.tEx (V/m) @ t=0.2
-0.6474834884137017
% es.tEy (V/m) @ t=0.2
0
% es.tEz (V/m) @ t=0.2
-2.0675564762513083
% V (V) @ t=0.2
0.010909552826154599
% es.normE (V/m) @ t=0.22
2.2030030255181865
% es.EX (V/m) @ t=0.22
-0.6571991564396542
% es.EY (V/m) @ t=0.22
0.04908864808761386
% es.EZ (V/m) @ t=0.22
-2.0985812630603586
% es.tEX (V/m) @ t=0.22
-0.6571991564396562
% es.tEY (V/m) @ t=0.22
0
% es.tEZ (V/m) @ t=0.22
-2.0985812630603853
% es.Ex (V/m) @ t=0.22
-0.6571991564396542
% es.Ey (V/m) @ t=0.22
0.04908864808761386
% es.Ez (V/m) @ t=0.22
-2.0985812630603586
% es.tEx (V/m) @ t=0.22
-0.6571991564396562
% es.tEy (V/m) @ t=0.22
0
% es.tEz (V/m) @ t=0.22
-2.0985812630603853
% V (V) @ t=0.22
0.011073266152751508
% es.normE (V/m) @ t=0.24
2.2355714988198843
% es.EX (V/m) @ t=0.24
-0.6669148244656148
% es.EY (V/m) @ t=0.24
0.049814194863755976
% es.EZ (V/m) @ t=0.24
-2.1296060498694214
% es.tEX (V/m) @ t=0.24
-0.6669148244656178
% es.tEY (V/m) @ t=0.24
0
% es.tEZ (V/m) @ t=0.24
-2.129606049869448
% es.Ex (V/m) @ t=0.24
-0.6669148244656148
% es.Ey (V/m) @ t=0.24
0.049814194863755976
% es.Ez (V/m) @ t=0.24
-2.1296060498694214
% es.tEx (V/m) @ t=0.24
-0.6669148244656178
% es.tEy (V/m) @ t=0.24
0
% es.tEz (V/m) @ t=0.24
-2.129606049869448
% V (V) @ t=0.24
0.011236979479348413
% es.normE (V/m) @ t=0.26
2.2681399721216104
% es.EX (V/m) @ t=0.26
-0.6766304924915771
% es.EY (V/m) @ t=0.26
0.05053974163989608
% es.EZ (V/m) @ t=0.26
-2.1606308366784903
% es.tEX (V/m) @ t=0.26
-0.6766304924915794
% es.tEY (V/m) @ t=0.26
0
% es.tEZ (V/m) @ t=0.26
-2.1606308366785116
% es.Ex (V/m) @ t=0.26
-0.6766304924915771
% es.Ey (V/m) @ t=0.26
0.05053974163989608
% es.Ez (V/m) @ t=0.26
-2.1606308366784903
% es.tEx (V/m) @ t=0.26
-0.6766304924915794
% es.tEy (V/m) @ t=0.26
0
% es.tEz (V/m) @ t=0.26
-2.1606308366785116
% V (V) @ t=0.26
0.011400692805945318
% es.normE (V/m) @ t=0.28
2.301138655599607
% es.EX (V/m) @ t=0.28
-0.6864745181873758
% es.EY (V/m) @ t=0.28
0.051274893775126146
% es.EZ (V/m) @ t=0.28
-2.1920654358634026
% es.tEX (V/m) @ t=0.28
-0.6864745181873744
% es.tEY (V/m) @ t=0.28
0
% es.tEZ (V/m) @ t=0.28
-2.1920654358634186
% es.Ex (V/m) @ t=0.28
-0.6864745181873758
% es.Ey (V/m) @ t=0.28
0.051274893775126146
% es.Ez (V/m) @ t=0.28
-2.1920654358634026
% es.tEx (V/m) @ t=0.28
-0.6864745181873744
% es.tEy (V/m) @ t=0.28
0
% es.tEz (V/m) @ t=0.28
-2.1920654358634186
% V (V) @ t=0.28
0.01156656740624555
% es.normE (V/m) @ t=0.3
2.3366628829682163
% es.EX (V/m) @ t=0.3
-0.6970720661073917
% es.EY (V/m) @ t=0.3
0.052066434060231204
% es.EZ (V/m) @ t=0.3
-2.225905833886274
% es.tEX (V/m) @ t=0.3
-0.6970720661073919
% es.tEY (V/m) @ t=0.3
0
% es.tEZ (V/m) @ t=0.3
-2.225905833886289
% es.Ex (V/m) @ t=0.3
-0.6970720661073917
% es.Ey (V/m) @ t=0.3
0.052066434060231204
% es.Ez (V/m) @ t=0.3
-2.225905833886274
% es.tEx (V/m) @ t=0.3
-0.6970720661073919
% es.tEy (V/m) @ t=0.3
0
% es.tEz (V/m) @ t=0.3
-2.225905833886289
% V (V) @ t=0.3
0.01174512973895867
% es.normE (V/m) @ t=0.32
2.372187110336814
% es.EX (V/m) @ t=0.32
-0.707669614027395
% es.EY (V/m) @ t=0.32
0.052857974345352055
% es.EZ (V/m) @ t=0.32
-2.259746231909137
% es.tEX (V/m) @ t=0.32
-0.7076696140274095
% es.tEY (V/m) @ t=0.32
0
% es.tEZ (V/m) @ t=0.32
-2.2597462319091646
% es.Ex (V/m) @ t=0.32
-0.707669614027395
% es.Ey (V/m) @ t=0.32
0.052857974345352055
% es.Ez (V/m) @ t=0.32
-2.259746231909137
% es.tEx (V/m) @ t=0.32
-0.7076696140274095
% es.tEy (V/m) @ t=0.32
0
% es.tEz (V/m) @ t=0.32
-2.2597462319091646
% V (V) @ t=0.32
0.011923692071671793
% es.normE (V/m) @ t=0.34
2.40771133770545
% es.EX (V/m) @ t=0.34
-0.718267161947409
% es.EY (V/m) @ t=0.34
0.05364951463047091
% es.EZ (V/m) @ t=0.34
-2.2935866299320367
% es.tEX (V/m) @ t=0.34
-0.7182671619474128
% es.tEY (V/m) @ t=0.34
0
% es.tEZ (V/m) @ t=0.34
-2.293586629932042
% es.Ex (V/m) @ t=0.34
-0.718267161947409
% es.Ey (V/m) @ t=0.34
0.05364951463047091
% es.Ez (V/m) @ t=0.34
-2.2935866299320367
% es.tEx (V/m) @ t=0.34
-0.7182671619474128
% es.tEy (V/m) @ t=0.34
0
% es.tEz (V/m) @ t=0.34
-2.293586629932042
% V (V) @ t=0.34
0.012102254404384916
% es.normE (V/m) @ t=0.36
2.4432355650740534
% es.EX (V/m) @ t=0.36
-0.7288647098674205
% es.EY (V/m) @ t=0.36
0.054441054915584874
% es.EZ (V/m) @ t=0.36
-2.3274270279549008
% es.tEX (V/m) @ t=0.36
-0.7288647098674303
% es.tEY (V/m) @ t=0.36
0
% es.tEZ (V/m) @ t=0.36
-2.3274270279549105
% es.Ex (V/m) @ t=0.36
-0.7288647098674205
% es.Ey (V/m) @ t=0.36
0.054441054915584874
% es.Ez (V/m) @ t=0.36
-2.3274270279549008
% es.tEx (V/m) @ t=0.36
-0.7288647098674303
% es.tEy (V/m) @ t=0.36
0
% es.tEz (V/m) @ t=0.36
-2.3274270279549105
% V (V) @ t=0.36
0.012280816737098039
% es.normE (V/m) @ t=0.38
2.478759792442661
% es.EX (V/m) @ t=0.38
-0.7394622577874275
% es.EY (V/m) @ t=0.38
0.055232595200707474
% es.EZ (V/m) @ t=0.38
-2.361267425977771
% es.tEX (V/m) @ t=0.38
-0.7394622577874408
% es.tEY (V/m) @ t=0.38
0
% es.tEZ (V/m) @ t=0.38
-2.361267425977795
% es.Ex (V/m) @ t=0.38
-0.7394622577874275
% es.Ey (V/m) @ t=0.38
0.055232595200707474
% es.Ez (V/m) @ t=0.38
-2.361267425977771
% es.tEx (V/m) @ t=0.38
-0.7394622577874408
% es.tEy (V/m) @ t=0.38
0
% es.tEz (V/m) @ t=0.38
-2.361267425977795
% V (V) @ t=0.38
0.012459379069811162
% es.normE (V/m) @ t=0.4
2.5142840198112846
% es.EX (V/m) @ t=0.4
-0.750059805707445
% es.EY (V/m) @ t=0.4
0.0560241354858301
% es.EZ (V/m) @ t=0.4
-2.3951078240006556
% es.tEX (V/m) @ t=0.4
-0.7500598057074441
% es.tEY (V/m) @ t=0.4
0
% es.tEZ (V/m) @ t=0.4
-2.3951078240006725
% es.Ex (V/m) @ t=0.4
-0.750059805707445
% es.Ey (V/m) @ t=0.4
0.0560241354858301
% es.Ez (V/m) @ t=0.4
-2.3951078240006556
% es.tEx (V/m) @ t=0.4
-0.7500598057074441
% es.tEy (V/m) @ t=0.4
0
% es.tEz (V/m) @ t=0.4
-2.3951078240006725
% V (V) @ t=0.4
0.012637941402524283
% es.normE (V/m) @ t=0.42
2.5505189661618077
% es.EX (V/m) @ t=0.42
-0.7608694466956489
% es.EY (V/m) @ t=0.42
0.05683159191533005
% es.EZ (V/m) @ t=0.42
-2.429625228699522
% es.tEX (V/m) @ t=0.42
-0.7608694466956507
% es.tEY (V/m) @ t=0.42
0
% es.tEZ (V/m) @ t=0.42
-2.4296252286995514
% es.Ex (V/m) @ t=0.42
-0.7608694466956489
% es.Ey (V/m) @ t=0.42
0.05683159191533005
% es.Ez (V/m) @ t=0.42
-2.429625228699522
% es.tEx (V/m) @ t=0.42
-0.7608694466956507
% es.tEy (V/m) @ t=0.42
0
% es.tEz (V/m) @ t=0.42
-2.4296252286995514
% V (V) @ t=0.42
0.0128200713899591
% es.normE (V/m) @ t=0.44
2.5892246385158417
% es.EX (V/m) @ t=0.44
-0.7724164028141336
% es.EY (V/m) @ t=0.44
0.05769437883802876
% es.EZ (V/m) @ t=0.44
-2.4664961627700057
% es.tEX (V/m) @ t=0.44
-0.7724164028141445
% es.tEY (V/m) @ t=0.44
0
% es.tEZ (V/m) @ t=0.44
-2.4664961627699977
% es.Ex (V/m) @ t=0.44
-0.7724164028141336
% es.Ey (V/m) @ t=0.44
0.05769437883802876
% es.Ez (V/m) @ t=0.44
-2.4664961627700057
% es.tEx (V/m) @ t=0.44
-0.7724164028141445
% es.tEy (V/m) @ t=0.44
0
% es.tEz (V/m) @ t=0.44
-2.4664961627699977
% V (V) @ t=0.44
0.01301460388459675
% es.normE (V/m) @ t=0.46
2.627930310869934
% es.EX (V/m) @ t=0.46
-0.7839633589326348
% es.EY (V/m) @ t=0.46
0.05855716576074173
% es.EZ (V/m) @ t=0.46
-2.5033670968404618
% es.tEX (V/m) @ t=0.46
-0.7839633589326453
% es.tEY (V/m) @ t=0.46
0
% es.tEZ (V/m) @ t=0.46
-2.5033670968404724
% es.Ex (V/m) @ t=0.46
-0.7839633589326348
% es.Ey (V/m) @ t=0.46
0.05855716576074173
% es.Ez (V/m) @ t=0.46
-2.5033670968404618
% es.tEx (V/m) @ t=0.46
-0.7839633589326453
% es.tEy (V/m) @ t=0.46
0
% es.tEz (V/m) @ t=0.46
-2.5033670968404724
% V (V) @ t=0.46
0.013209136379234399
% es.normE (V/m) @ t=0.48
2.666635983224097
% es.EX (V/m) @ t=0.48
-0.7955103150511247
% es.EY (V/m) @ t=0.48
0.059419952683456206
% es.EZ (V/m) @ t=0.48
-2.540238030910916
% es.tEX (V/m) @ t=0.48
-0.795510315051132
% es.tEY (V/m) @ t=0.48
0
% es.tEZ (V/m) @ t=0.48
-2.5402380309109454
% es.Ex (V/m) @ t=0.48
-0.7955103150511247
% es.Ey (V/m) @ t=0.48
0.059419952683456206
% es.Ez (V/m) @ t=0.48
-2.540238030910916
% es.tEx (V/m) @ t=0.48
-0.795510315051132
% es.tEy (V/m) @ t=0.48
0
% es.tEz (V/m) @ t=0.48
-2.5402380309109454
% V (V) @ t=0.48
0.013403668873872046
% es.normE (V/m) @ t=0.5
2.7053416555783616
% es.EX (V/m) @ t=0.5
-0.807057271169618
% es.EY (V/m) @ t=0.5
0.06028273960615296
% es.EZ (V/m) @ t=0.5
-2.5771089649814005
% es.tEX (V/m) @ t=0.5
-0.8070572711696329
% es.tEY (V/m) @ t=0.5
0
% es.tEZ (V/m) @ t=0.5
-2.57710896498142
% es.Ex (V/m) @ t=0.5
-0.807057271169618
% es.Ey (V/m) @ t=0.5
0.06028273960615296
% es.Ez (V/m) @ t=0.5
-2.5771089649814005
% es.tEx (V/m) @ t=0.5
-0.8070572711696329
% es.tEy (V/m) @ t=0.5
0
% es.tEz (V/m) @ t=0.5
-2.57710896498142
% V (V) @ t=0.5
0.013598201368509697
% es.normE (V/m) @ t=0.52
2.7440473279326945
% es.EX (V/m) @ t=0.52
-0.8186042272881122
% es.EY (V/m) @ t=0.52
0.06114552652887277
% es.EZ (V/m) @ t=0.52
-2.613979899051883
% es.tEX (V/m) @ t=0.52
-0.8186042272881195
% es.tEY (V/m) @ t=0.52
0
% es.tEZ (V/m) @ t=0.52
-2.613979899051907
% es.Ex (V/m) @ t=0.52
-0.8186042272881122
% es.Ey (V/m) @ t=0.52
0.06114552652887277
% es.Ez (V/m) @ t=0.52
-2.613979899051883
% es.tEx (V/m) @ t=0.52
-0.8186042272881195
% es.tEy (V/m) @ t=0.52
0
% es.tEz (V/m) @ t=0.52
-2.613979899051907
% V (V) @ t=0.52
0.013792733863147345
% es.normE (V/m) @ t=0.54
2.7827530002870744
% es.EX (V/m) @ t=0.54
-0.8301511834066029
% es.EY (V/m) @ t=0.54
0.062008313451565975
% es.EZ (V/m) @ t=0.54
-2.6508508331223464
% es.tEX (V/m) @ t=0.54
-0.8301511834066062
% es.tEY (V/m) @ t=0.54
0
% es.tEZ (V/m) @ t=0.54
-2.6508508331223535
% es.Ex (V/m) @ t=0.54
-0.8301511834066029
% es.Ey (V/m) @ t=0.54
0.062008313451565975
% es.Ez (V/m) @ t=0.54
-2.6508508331223464
% es.tEx (V/m) @ t=0.54
-0.8301511834066062
% es.tEy (V/m) @ t=0.54
0
% es.tEz (V/m) @ t=0.54
-2.6508508331223535
% V (V) @ t=0.54
0.013987266357784993
% es.normE (V/m) @ t=0.56
2.82188149078495
% es.EX (V/m) @ t=0.56
-0.8418243440354265
% es.EY (V/m) @ t=0.56
0.06288060077920705
% es.EZ (V/m) @ t=0.56
-2.6881245200507218
% es.tEX (V/m) @ t=0.56
-0.8418243440354303
% es.tEY (V/m) @ t=0.56
0
% es.tEZ (V/m) @ t=0.56
-2.6881245200507458
% es.Ex (V/m) @ t=0.56
-0.8418243440354265
% es.Ey (V/m) @ t=0.56
0.06288060077920705
% es.Ez (V/m) @ t=0.56
-2.6881245200507218
% es.tEx (V/m) @ t=0.56
-0.8418243440354303
% es.tEy (V/m) @ t=0.56
0
% es.tEz (V/m) @ t=0.56
-2.6881245200507458
% V (V) @ t=0.56
0.01418391949822786
% es.normE (V/m) @ t=0.58
2.8622436020198876
% es.EX (V/m) @ t=0.58
-0.8538657208902074
% es.EY (V/m) @ t=0.58
0.06378060663482138
% es.EZ (V/m) @ t=0.58
-2.7265732849294624
% es.tEX (V/m) @ t=0.58
-0.8538657208902123
% es.tEY (V/m) @ t=0.58
0
% es.tEZ (V/m) @ t=0.58
-2.7265732849294935
% es.Ex (V/m) @ t=0.58
-0.8538657208902074
% es.Ey (V/m) @ t=0.58
0.06378060663482138
% es.Ez (V/m) @ t=0.58
-2.7265732849294624
% es.tEx (V/m) @ t=0.58
-0.8538657208902123
% es.tEy (V/m) @ t=0.58
0
% es.tEz (V/m) @ t=0.58
-2.7265732849294935
% V (V) @ t=0.58
0.014386759867581103
% es.normE (V/m) @ t=0.6
2.90299433725533
% es.EX (V/m) @ t=0.6
-0.8660230958458277
% es.EY (V/m) @ t=0.6
0.06468934457874037
% es.EZ (V/m) @ t=0.6
-2.7653922312424006
% es.tEX (V/m) @ t=0.6
-0.8660230958458399
% es.tEY (V/m) @ t=0.6
0
% es.tEZ (V/m) @ t=0.6
-2.7653922312424513
% es.Ex (V/m) @ t=0.6
-0.8660230958458277
% es.Ey (V/m) @ t=0.6
0.06468934457874037
% es.Ez (V/m) @ t=0.6
-2.7653922312424006
% es.tEx (V/m) @ t=0.6
-0.8660230958458399
% es.tEy (V/m) @ t=0.6
0
% es.tEz (V/m) @ t=0.6
-2.7653922312424513
% V (V) @ t=0.6
0.014591549381900498
% es.normE (V/m) @ t=0.62
2.9441336964913773
% es.EX (V/m) @ t=0.62
-0.8782964689023418
% es.EY (V/m) @ t=0.62
0.06560681461099035
% es.EZ (V/m) @ t=0.62
-2.8045813589895427
% es.tEX (V/m) @ t=0.62
-0.8782964689023416
% es.tEY (V/m) @ t=0.62
0
% es.tEZ (V/m) @ t=0.62
-2.8045813589895747
% es.Ex (V/m) @ t=0.62
-0.8782964689023418
% es.Ey (V/m) @ t=0.62
0.06560681461099035
% es.Ez (V/m) @ t=0.62
-2.8045813589895427
% es.tEx (V/m) @ t=0.62
-0.8782964689023416
% es.tEy (V/m) @ t=0.62
0
% es.tEz (V/m) @ t=0.62
-2.8045813589895747
% V (V) @ t=0.62
0.014798288041186046
% es.normE (V/m) @ t=0.64
2.985661679728125
% es.EX (V/m) @ t=0.64
-0.8906858400597149
% es.EY (V/m) @ t=0.64
0.06653301673153426
% es.EZ (V/m) @ t=0.64
-2.844140668170904
% es.tEX (V/m) @ t=0.64
-0.8906858400597315
% es.tEY (V/m) @ t=0.64
0
% es.tEZ (V/m) @ t=0.64
-2.84414066817091
% es.Ex (V/m) @ t=0.64
-0.8906858400597149
% es.Ey (V/m) @ t=0.64
0.06653301673153426
% es.Ez (V/m) @ t=0.64
-2.844140668170904
% es.tEx (V/m) @ t=0.64
-0.8906858400597315
% es.tEy (V/m) @ t=0.64
0
% es.tEz (V/m) @ t=0.64
-2.84414066817091
% V (V) @ t=0.64
0.01500697584543775
% es.normE (V/m) @ t=0.66
3.027578286965609
% es.EX (V/m) @ t=0.66
-0.903191209317955
% es.EY (V/m) @ t=0.66
0.0674679509403861
% es.EZ (V/m) @ t=0.66
-2.884070158786427
% es.tEX (V/m) @ t=0.66
-0.903191209317967
% es.tEY (V/m) @ t=0.66
0
% es.tEZ (V/m) @ t=0.66
-2.884070158786452
% es.Ex (V/m) @ t=0.66
-0.903191209317955
% es.Ey (V/m) @ t=0.66
0.0674679509403861
% es.Ez (V/m) @ t=0.66
-2.884070158786427
% es.tEx (V/m) @ t=0.66
-0.903191209317967
% es.tEy (V/m) @ t=0.66
0
% es.tEz (V/m) @ t=0.66
-2.884070158786452
% V (V) @ t=0.66
0.015217612794655609
% es.normE (V/m) @ t=0.68
3.069883518203983
% es.EX (V/m) @ t=0.68
-0.9158125766770826
% es.EY (V/m) @ t=0.68
0.06841161723757049
% es.EZ (V/m) @ t=0.68
-2.9243698308361674
% es.tEX (V/m) @ t=0.68
-0.9158125766770979
% es.tEY (V/m) @ t=0.68
0
% es.tEZ (V/m) @ t=0.68
-2.924369830836193
% es.Ex (V/m) @ t=0.68
-0.9158125766770826
% es.Ey (V/m) @ t=0.68
0.06841161723757049
% es.Ez (V/m) @ t=0.68
-2.9243698308361674
% es.tEx (V/m) @ t=0.68
-0.9158125766770979
% es.tEy (V/m) @ t=0.68
0
% es.tEz (V/m) @ t=0.68
-2.924369830836193
% V (V) @ t=0.68
0.015430198888839617
% es.normE (V/m) @ t=0.7
3.112577373443329
% es.EX (V/m) @ t=0.7
-0.9285499421370651
% es.EY (V/m) @ t=0.7
0.06936401562307033
% es.EZ (V/m) @ t=0.7
-2.9650396843201134
% es.tEX (V/m) @ t=0.7
-0.9285499421370744
% es.tEY (V/m) @ t=0.7
0
% es.tEZ (V/m) @ t=0.7
-2.9650396843201428
% es.Ex (V/m) @ t=0.7
-0.9285499421370651
% es.Ey (V/m) @ t=0.7
0.06936401562307033
% es.Ez (V/m) @ t=0.7
-2.9650396843201134
% es.tEx (V/m) @ t=0.7
-0.9285499421370744
% es.tEy (V/m) @ t=0.7
0
% es.tEz (V/m) @ t=0.7
-2.9650396843201428
% V (V) @ t=0.7
0.015644734127989786
% es.normE (V/m) @ t=0.72
3.155659852683755
% es.EX (V/m) @ t=0.72
-0.9414033056979362
% es.EY (V/m) @ t=0.72
0.07032514609687802
% es.EZ (V/m) @ t=0.72
-3.006079719238265
% es.tEX (V/m) @ t=0.72
-0.9414033056979392
% es.tEY (V/m) @ t=0.72
0
% es.tEZ (V/m) @ t=0.72
-3.0060797192382864
% es.Ex (V/m) @ t=0.72
-0.9414033056979362
% es.Ey (V/m) @ t=0.72
0.07032514609687802
% es.Ez (V/m) @ t=0.72
-3.006079719238265
% es.tEx (V/m) @ t=0.72
-0.9414033056979392
% es.tEy (V/m) @ t=0.72
0
% es.tEz (V/m) @ t=0.72
-3.0060797192382864
% V (V) @ t=0.72
0.0158612185121061
% es.normE (V/m) @ t=0.74
3.1991309559253276
% es.EX (V/m) @ t=0.74
-0.9543726673596626
% es.EY (V/m) @ t=0.74
0.07129500865897259
% es.EZ (V/m) @ t=0.74
-3.0474899355905904
% es.tEX (V/m) @ t=0.74
-0.954372667359678
% es.tEY (V/m) @ t=0.74
0
% es.tEZ (V/m) @ t=0.74
-3.047489935590626
% es.Ex (V/m) @ t=0.74
-0.9543726673596626
% es.Ey (V/m) @ t=0.74
0.07129500865897259
% es.Ez (V/m) @ t=0.74
-3.0474899355905904
% es.tEx (V/m) @ t=0.74
-0.954372667359678
% es.tEy (V/m) @ t=0.74
0
% es.tEz (V/m) @ t=0.74
-3.047489935590626
% V (V) @ t=0.74
0.01607965204118857
% es.normE (V/m) @ t=0.76
3.2429906831681894
% es.EX (V/m) @ t=0.76
-0.9674580271222509
% es.EY (V/m) @ t=0.76
0.07227360330939639
% es.EZ (V/m) @ t=0.76
-3.0892703333771214
% es.tEX (V/m) @ t=0.76
-0.9674580271222553
% es.tEY (V/m) @ t=0.76
0
% es.tEZ (V/m) @ t=0.76
-3.0892703333771614
% es.Ex (V/m) @ t=0.76
-0.9674580271222509
% es.Ey (V/m) @ t=0.76
0.07227360330939639
% es.Ez (V/m) @ t=0.76
-3.0892703333771214
% es.tEx (V/m) @ t=0.76
-0.9674580271222553
% es.tEy (V/m) @ t=0.76
0
% es.tEz (V/m) @ t=0.76
-3.0892703333771614
% V (V) @ t=0.76
0.016300034715237194
% es.normE (V/m) @ t=0.78
3.2872390344124662
% es.EX (V/m) @ t=0.78
-0.9806593849857212
% es.EY (V/m) @ t=0.78
0.07326093004813809
% es.EZ (V/m) @ t=0.78
-3.1314209125978705
% es.tEX (V/m) @ t=0.78
-0.9806593849857279
% es.tEY (V/m) @ t=0.78
0
% es.tEZ (V/m) @ t=0.78
-3.1314209125979193
% es.Ex (V/m) @ t=0.78
-0.9806593849857212
% es.Ey (V/m) @ t=0.78
0.07326093004813809
% es.Ez (V/m) @ t=0.78
-3.1314209125978705
% es.tEx (V/m) @ t=0.78
-0.9806593849857279
% es.tEy (V/m) @ t=0.78
0
% es.tEz (V/m) @ t=0.78
-3.1314209125979193
% V (V) @ t=0.78
0.016522366534251976
% es.normE (V/m) @ t=0.8
3.3318760096582434
% es.EX (V/m) @ t=0.8
-0.9939767409500586
% es.EY (V/m) @ t=0.8
0.07425698887519933
% es.EZ (V/m) @ t=0.8
-3.173941673252811
% es.tEX (V/m) @ t=0.8
-0.9939767409500675
% es.tEY (V/m) @ t=0.8
0
% es.tEZ (V/m) @ t=0.8
-3.1739416732528607
% es.Ex (V/m) @ t=0.8
-0.9939767409500586
% es.Ey (V/m) @ t=0.8
0.07425698887519933
% es.Ez (V/m) @ t=0.8
-3.173941673252811
% es.tEx (V/m) @ t=0.8
-0.9939767409500675
% es.tEy (V/m) @ t=0.8
0
% es.tEz (V/m) @ t=0.8
-3.1739416732528607
% V (V) @ t=0.8
0.016746647498232906
% es.normE (V/m) @ t=0.82
3.3769016089056594
% es.EX (V/m) @ t=0.82
-1.0074100950152673
% es.EY (V/m) @ t=0.82
0.07526177979056473
% es.EZ (V/m) @ t=0.82
-3.2168326153419695
% es.tEX (V/m) @ t=0.82
-1.0074100950152811
% es.tEY (V/m) @ t=0.82
0
% es.tEZ (V/m) @ t=0.82
-3.216832615341996
% es.Ex (V/m) @ t=0.82
-1.0074100950152673
% es.Ey (V/m) @ t=0.82
0.07526177979056473
% es.Ez (V/m) @ t=0.82
-3.2168326153419695
% es.tEx (V/m) @ t=0.82
-1.0074100950152811
% es.tEy (V/m) @ t=0.82
0
% es.tEz (V/m) @ t=0.82
-3.216832615341996
% V (V) @ t=0.82
0.01697287760717999
% es.normE (V/m) @ t=0.84
3.422675977260958
% es.EX (V/m) @ t=0.84
-1.02106651898077
% es.EY (V/m) @ t=0.84
0.07628291404572438
% es.EZ (V/m) @ t=0.84
-3.260436938601737
% es.tEX (V/m) @ t=0.84
-1.0210665189807813
% es.tEY (V/m) @ t=0.84
0
% es.tEZ (V/m) @ t=0.84
-3.2604369386017673
% es.Ex (V/m) @ t=0.84
-1.02106651898077
% es.Ey (V/m) @ t=0.84
0.07628291404572438
% es.Ez (V/m) @ t=0.84
-3.260436938601737
% es.tEx (V/m) @ t=0.84
-1.0210665189807813
% es.tEy (V/m) @ t=0.84
0
% es.tEz (V/m) @ t=0.84
-3.2604369386017673
% V (V) @ t=0.84
0.017202891452123493
% es.normE (V/m) @ t=0.86
3.4693473048681436
% es.EX (V/m) @ t=0.86
-1.0349900700478532
% es.EY (V/m) @ t=0.86
0.07732352346849933
% es.EZ (V/m) @ t=0.86
-3.304895860607183
% es.tEX (V/m) @ t=0.86
-1.0349900700478543
% es.tEY (V/m) @ t=0.86
0
% es.tEZ (V/m) @ t=0.86
-3.3048958606072247
% es.Ex (V/m) @ t=0.86
-1.0349900700478532
% es.Ey (V/m) @ t=0.86
0.07732352346849933
% es.Ez (V/m) @ t=0.86
-3.304895860607183
% es.tEx (V/m) @ t=0.86
-1.0349900700478543
% es.tEy (V/m) @ t=0.86
0
% es.tEz (V/m) @ t=0.86
-3.3048958606072247
% V (V) @ t=0.86
0.017437443918540005
% es.normE (V/m) @ t=0.88
3.5165174825191885
% es.EX (V/m) @ t=0.88
-1.049062389620191
% es.EY (V/m) @ t=0.88
0.07837519447988166
% es.EZ (V/m) @ t=0.88
-3.3498300037884556
% es.tEX (V/m) @ t=0.88
-1.0490623896201967
% es.tEY (V/m) @ t=0.88
0
% es.tEZ (V/m) @ t=0.88
-3.349830003788492
% es.Ex (V/m) @ t=0.88
-1.049062389620191
% es.Ey (V/m) @ t=0.88
0.07837519447988166
% es.Ez (V/m) @ t=0.88
-3.3498300037884556
% es.tEx (V/m) @ t=0.88
-1.0490623896201967
% es.tEy (V/m) @ t=0.88
0
% es.tEz (V/m) @ t=0.88
-3.349830003788492
% V (V) @ t=0.88
0.01767450702501511
% es.normE (V/m) @ t=0.9
3.5641865102139727
% es.EX (V/m) @ t=0.9
-1.0632834776977333
% es.EY (V/m) @ t=0.9
0.07943792707988384
% es.EZ (V/m) @ t=0.9
-3.395239368145482
% es.tEX (V/m) @ t=0.9
-1.0632834776977447
% es.tEY (V/m) @ t=0.9
0
% es.tEZ (V/m) @ t=0.9
-3.395239368145498
% es.Ex (V/m) @ t=0.9
-1.0632834776977333
% es.Ey (V/m) @ t=0.9
0.07943792707988384
% es.Ez (V/m) @ t=0.9
-3.395239368145482
% es.tEx (V/m) @ t=0.9
-1.0632834776977447
% es.tEy (V/m) @ t=0.9
0
% es.tEz (V/m) @ t=0.9
-3.395239368145498
% V (V) @ t=0.9
0.0179140807715488
% es.normE (V/m) @ t=0.92
3.61235438795253
% es.EX (V/m) @ t=0.92
-1.0776533342805394
% es.EY (V/m) @ t=0.92
0.08051172126846592
% es.EZ (V/m) @ t=0.92
-3.441123953678307
% es.tEX (V/m) @ t=0.92
-1.0776533342805479
% es.tEY (V/m) @ t=0.92
0
% es.tEZ (V/m) @ t=0.92
-3.4411239536783267
% es.Ex (V/m) @ t=0.92
-1.0776533342805394
% es.Ey (V/m) @ t=0.92
0.08051172126846592
% es.Ez (V/m) @ t=0.92
-3.441123953678307
% es.tEx (V/m) @ t=0.92
-1.0776533342805479
% es.tEy (V/m) @ t=0.92
0
% es.tEz (V/m) @ t=0.92
-3.4411239536783267
% V (V) @ t=0.92
0.018156165158141075
% es.normE (V/m) @ t=0.94
3.661021115734819
% es.EX (V/m) @ t=0.94
-1.0921719593685957
% es.EY (V/m) @ t=0.94
0.08159657704567377
% es.EZ (V/m) @ t=0.94
-3.487483760386918
% es.tEX (V/m) @ t=0.94
-1.0921719593686134
% es.tEY (V/m) @ t=0.94
0
% es.tEZ (V/m) @ t=0.94
-3.487483760386935
% es.Ex (V/m) @ t=0.94
-1.0921719593685957
% es.Ey (V/m) @ t=0.94
0.08159657704567377
% es.Ez (V/m) @ t=0.94
-3.487483760386918
% es.tEx (V/m) @ t=0.94
-1.0921719593686134
% es.tEy (V/m) @ t=0.94
0
% es.tEz (V/m) @ t=0.94
-3.487483760386935
% V (V) @ t=0.94
0.018400760184791934
% es.normE (V/m) @ t=0.96
3.710186693560738
% es.EX (V/m) @ t=0.96
-1.106839352961845
% es.EY (V/m) @ t=0.96
0.08269249441153328
% es.EZ (V/m) @ t=0.96
-3.5343187882712375
% es.tEX (V/m) @ t=0.96
-1.1068393529618632
% es.tEY (V/m) @ t=0.96
0
% es.tEZ (V/m) @ t=0.96
-3.53431878827125
% es.Ex (V/m) @ t=0.96
-1.106839352961845
% es.Ey (V/m) @ t=0.96
0.08269249441153328
% es.Ez (V/m) @ t=0.96
-3.5343187882712375
% es.tEx (V/m) @ t=0.96
-1.1068393529618632
% es.tEy (V/m) @ t=0.96
0
% es.tEz (V/m) @ t=0.96
-3.53431878827125
% V (V) @ t=0.96
0.01864786585150138
% es.normE (V/m) @ t=0.98
3.759851121430423
% es.EX (V/m) @ t=0.98
-1.1216555150603753
% es.EY (V/m) @ t=0.98
0.08379947336597982
% es.EZ (V/m) @ t=0.98
-3.5816290373313997
% es.tEX (V/m) @ t=0.98
-1.1216555150603753
% es.tEY (V/m) @ t=0.98
0
% es.tEZ (V/m) @ t=0.98
-3.5816290373314352
% es.Ex (V/m) @ t=0.98
-1.1216555150603753
% es.Ey (V/m) @ t=0.98
0.08379947336597982
% es.Ez (V/m) @ t=0.98
-3.5816290373313997
% es.tEx (V/m) @ t=0.98
-1.1216555150603753
% es.tEy (V/m) @ t=0.98
0
% es.tEz (V/m) @ t=0.98
-3.5816290373314352
% V (V) @ t=0.98
0.0188974821582694
% es.normE (V/m) @ t=1
3.8100143993437703
% es.EX (V/m) @ t=1
-1.1366204456641176
% es.EY (V/m) @ t=1
0.08491751390905511
% es.EZ (V/m) @ t=1
-3.629414507567316
% es.tEX (V/m) @ t=1
-1.1366204456641285
% es.tEY (V/m) @ t=1
0
% es.tEZ (V/m) @ t=1
-3.629414507567356
% es.Ex (V/m) @ t=1
-1.1366204456641176
% es.Ey (V/m) @ t=1
0.08491751390905511
% es.Ez (V/m) @ t=1
-3.629414507567316
% es.tEx (V/m) @ t=1
-1.1366204456641285
% es.tEy (V/m) @ t=1
0
% es.tEz (V/m) @ t=1
-3.629414507567356
% V (V) @ t=1
0.019149609105096024
% es.normE (V/m) @ t=1.02
3.860676527300801
% es.EX (V/m) @ t=1.02
-1.1517341447730964
% es.EY (V/m) @ t=1.02
0.08604661604070368
% es.EZ (V/m) @ t=1.02
-3.677675198979003
% es.tEX (V/m) @ t=1.02
-1.1517341447731013
% es.tEY (V/m) @ t=1.02
0
% es.tEZ (V/m) @ t=1.02
-3.67767519897904
% es.Ex (V/m) @ t=1.02
-1.1517341447730964
% es.Ey (V/m) @ t=1.02
0.08604661604070368
% es.Ez (V/m) @ t=1.02
-3.677675198979003
% es.tEx (V/m) @ t=1.02
-1.1517341447731013
% es.tEy (V/m) @ t=1.02
0
% es.tEz (V/m) @ t=1.02
-3.67767519897904
% V (V) @ t=1.02
0.01940424669198123
% es.normE (V/m) @ t=1.04
3.911837505301551