% Model:              1 neuron.mph
% Version:            COMSOL 6.0.0.405
% Date:               Mar 16 2023, 19:26
% Dimension:          0
% Nodes:              14017
% Expressions:        14017
% Description:        Electric field norm, Electric field, X component, Electric field, Y component, Electric field, Z component, Tangential electric field, X component, Tangential electric field, Y component, Tangential electric field, Z component, Electric field, x component, Electric field, y component, Electric field, z component, Tangential electric field, x component, Tangential electric field, y component, Tangential electric field, z component, Electric potential
% Length unit:        mm
% x
2
% y
12.2
% z
1.33
% es.normE (V/m) @ t=0
1.9660217641862088
% es.EX (V/m) @ t=0
-1.8083016647065284
% es.EY (V/m) @ t=0
0.14106026954644524
% es.EZ (V/m) @ t=0
0.7562674313735427
% es.tEX (V/m) @ t=0
-1.8083016647065229
% es.tEY (V/m) @ t=0
0
% es.tEZ (V/m) @ t=0
0.7562674313735478
% es.Ex (V/m) @ t=0
-1.8083016647065284
% es.Ey (V/m) @ t=0
0.14106026954644524
% es.Ez (V/m) @ t=0
0.7562674313735427
% es.tEx (V/m) @ t=0
-1.8083016647065229
% es.tEy (V/m) @ t=0
0
% es.tEz (V/m) @ t=0
0.7562674313735478
% V (V) @ t=0
0.010976683492590594
% es.normE (V/m) @ t=0.02
1.707506913487805
% es.EX (V/m) @ t=0.02
-1.5705256420744733
% es.EY (V/m) @ t=0.02
0.12251206463284403
% es.EZ (V/m) @ t=0.02
0.6568248086191806
% es.tEX (V/m) @ t=0.02
-1.5705256420744647
% es.tEY (V/m) @ t=0.02
0
% es.tEZ (V/m) @ t=0.02
0.6568248086191808
% es.Ex (V/m) @ t=0.02
-1.5705256420744733
% es.Ey (V/m) @ t=0.02
0.12251206463284403
% es.Ez (V/m) @ t=0.02
0.6568248086191806
% es.tEx (V/m) @ t=0.02
-1.5705256420744647
% es.tEy (V/m) @ t=0.02
0
% es.tEz (V/m) @ t=0.02
0.6568248086191808
% V (V) @ t=0.02
0.009533344554590373
% es.normE (V/m) @ t=0.04
1.7328271735506466
% es.EX (V/m) @ t=0.04
-1.5938146352292153
% es.EY (V/m) @ t=0.04
0.12432877019434635
% es.EZ (V/m) @ t=0.04
0.6665647264529756
% es.tEX (V/m) @ t=0.04
-1.5938146352292168
% es.tEY (V/m) @ t=0.04
0
% es.tEZ (V/m) @ t=0.04
0.6665647264529717
% es.Ex (V/m) @ t=0.04
-1.5938146352292153
% es.Ey (V/m) @ t=0.04
0.12432877019434635
% es.Ez (V/m) @ t=0.04
0.6665647264529756
% es.tEx (V/m) @ t=0.04
-1.5938146352292168
% es.tEy (V/m) @ t=0.04
0
% es.tEz (V/m) @ t=0.04
0.6665647264529717
% V (V) @ t=0.04
0.009674712451753983
% es.normE (V/m) @ t=0.06
1.758528274755216
% es.EX (V/m) @ t=0.06
-1.6174539179798564
% es.EY (V/m) @ t=0.06
0.12617280078079007
% es.EZ (V/m) @ t=0.06
0.6764511404636362
% es.tEX (V/m) @ t=0.06
-1.617453917979855
% es.tEY (V/m) @ t=0.06
0
% es.tEZ (V/m) @ t=0.06
0.6764511404636373
% es.Ex (V/m) @ t=0.06
-1.6174539179798564
% es.Ey (V/m) @ t=0.06
0.12617280078079007
% es.Ez (V/m) @ t=0.06
0.6764511404636362
% es.tEx (V/m) @ t=0.06
-1.617453917979855
% es.tEy (V/m) @ t=0.06
0
% es.tEz (V/m) @ t=0.06
0.6764511404636373
% V (V) @ t=0.06
0.009818206731432957
% es.normE (V/m) @ t=0.08
1.7848827402151781
% es.EX (V/m) @ t=0.08
-1.6416941493096746
% es.EY (V/m) @ t=0.08
0.12806370976152348
% es.EZ (V/m) @ t=0.08
0.6865888854015512
% es.tEX (V/m) @ t=0.08
-1.6416941493096733
% es.tEY (V/m) @ t=0.08
0
% es.tEZ (V/m) @ t=0.08
0.6865888854015445
% es.Ex (V/m) @ t=0.08
-1.6416941493096746
% es.Ey (V/m) @ t=0.08
0.12806370976152348
% es.Ez (V/m) @ t=0.08
0.6865888854015512
% es.tEx (V/m) @ t=0.08
-1.6416941493096733
% es.tEy (V/m) @ t=0.08
0
% es.tEz (V/m) @ t=0.08
0.6865888854015445
% V (V) @ t=0.08
0.009965348779808042
% es.normE (V/m) @ t=0.1
1.8116976524213992
% es.EX (V/m) @ t=0.1
-1.6663578883775776
% es.EY (V/m) @ t=0.1
0.12998765545023183
% es.EZ (V/m) @ t=0.1
0.6969037513049072
% es.tEX (V/m) @ t=0.1
-1.6663578883775685
% es.tEY (V/m) @ t=0.1
0
% es.tEZ (V/m) @ t=0.1
0.6969037513049123
% es.Ex (V/m) @ t=0.1
-1.6663578883775776
% es.Ey (V/m) @ t=0.1
0.12998765545023183
% es.Ez (V/m) @ t=0.1
0.6969037513049072
% es.tEx (V/m) @ t=0.1
-1.6663578883775685
% es.tEy (V/m) @ t=0.1
0
% es.tEz (V/m) @ t=0.1
0.6969037513049123
% V (V) @ t=0.1
0.01011506152777889
% es.normE (V/m) @ t=0.12
1.8385125646276061
% es.EX (V/m) @ t=0.12
-1.6910216274454737
% es.EY (V/m) @ t=0.12
0.1319116011389455
% es.EZ (V/m) @ t=0.12
0.7072186172082437
% es.tEX (V/m) @ t=0.12
-1.6910216274454655
% es.tEY (V/m) @ t=0.12
0
% es.tEZ (V/m) @ t=0.12
0.707218617208234
% es.Ex (V/m) @ t=0.12
-1.6910216274454737
% es.Ey (V/m) @ t=0.12
0.1319116011389455
% es.Ez (V/m) @ t=0.12
0.7072186172082437
% es.tEx (V/m) @ t=0.12
-1.6910216274454655
% es.tEy (V/m) @ t=0.12
0
% es.tEz (V/m) @ t=0.12
0.707218617208234
% V (V) @ t=0.12
0.01026477427574974
% es.normE (V/m) @ t=0.14
1.86576969844319
% es.EX (V/m) @ t=0.14
-1.7160921101101578
% es.EY (V/m) @ t=0.14
0.13386727571303147
% es.EZ (V/m) @ t=0.14
0.717703596009732
% es.tEX (V/m) @ t=0.14
-1.7160921101101572
% es.tEY (V/m) @ t=0.14
0
% es.tEZ (V/m) @ t=0.14
0.7177035960097413
% es.Ex (V/m) @ t=0.14
-1.7160921101101578
% es.Ey (V/m) @ t=0.14
0.13386727571303147
% es.Ez (V/m) @ t=0.14
0.717703596009732
% es.tEx (V/m) @ t=0.14
-1.7160921101101572
% es.tEy (V/m) @ t=0.14
0
% es.tEz (V/m) @ t=0.14
0.7177035960097413
% V (V) @ t=0.14
0.010416955848006688
% es.normE (V/m) @ t=0.16
1.8949988021285817
% es.EX (V/m) @ t=0.16
-1.7429763578659279
% es.EY (V/m) @ t=0.16
0.1359644368282542
% es.EZ (V/m) @ t=0.16
0.7289471481203813
% es.tEX (V/m) @ t=0.16
-1.7429763578659223
% es.tEY (V/m) @ t=0.16
0
% es.tEZ (V/m) @ t=0.16
0.7289471481203691
% es.Ex (V/m) @ t=0.16
-1.7429763578659279
% es.Ey (V/m) @ t=0.16
0.1359644368282542
% es.Ez (V/m) @ t=0.16
0.7289471481203813
% es.tEx (V/m) @ t=0.16
-1.7429763578659223
% es.tEy (V/m) @ t=0.16
0
% es.tEz (V/m) @ t=0.16
0.7289471481203691
% V (V) @ t=0.16
0.01058014648676517
% es.normE (V/m) @ t=0.18
1.9242279058139784
% es.EX (V/m) @ t=0.18
-1.7698606056217012
% es.EY (V/m) @ t=0.18
0.13806159794346995
% es.EZ (V/m) @ t=0.18
0.7401907002310357
% es.tEX (V/m) @ t=0.18
-1.7698606056216928
% es.tEY (V/m) @ t=0.18
0
% es.tEZ (V/m) @ t=0.18
0.7401907002310288
% es.Ex (V/m) @ t=0.18
-1.7698606056217012
% es.Ey (V/m) @ t=0.18
0.13806159794346995
% es.Ez (V/m) @ t=0.18
0.7401907002310357
% es.tEx (V/m) @ t=0.18
-1.7698606056216928
% es.tEy (V/m) @ t=0.18
0
% es.tEz (V/m) @ t=0.18
0.7401907002310288
% V (V) @ t=0.18
0.010743337125523654
% es.normE (V/m) @ t=0.2
1.9534570094993422
% es.EX (V/m) @ t=0.2
-1.7967448533774542
% es.EY (V/m) @ t=0.2
0.1401587590586928
% es.EZ (V/m) @ t=0.2
0.7514342523416512
% es.tEX (V/m) @ t=0.2
-1.7967448533774437
% es.tEY (V/m) @ t=0.2
0
% es.tEZ (V/m) @ t=0.2
0.751434252341646
% es.Ex (V/m) @ t=0.2
-1.7967448533774542
% es.Ey (V/m) @ t=0.2
0.1401587590586928
% es.Ez (V/m) @ t=0.2
0.7514342523416512
% es.tEx (V/m) @ t=0.2
-1.7967448533774437
% es.tEy (V/m) @ t=0.2
0
% es.tEz (V/m) @ t=0.2
0.751434252341646
% V (V) @ t=0.2
0.010906527764282135
% es.normE (V/m) @ t=0.22
1.982686113184743
% es.EX (V/m) @ t=0.22
-1.8236291011332277
% es.EY (V/m) @ t=0.22
0.14225592017393507
% es.EZ (V/m) @ t=0.22
0.7626778044523094
% es.tEX (V/m) @ t=0.22
-1.8236291011332249
% es.tEY (V/m) @ t=0.22
0
% es.tEZ (V/m) @ t=0.22
0.7626778044523093
% es.Ex (V/m) @ t=0.22
-1.8236291011332277
% es.Ey (V/m) @ t=0.22
0.14225592017393507
% es.Ez (V/m) @ t=0.22
0.7626778044523094
% es.tEx (V/m) @ t=0.22
-1.8236291011332249
% es.tEy (V/m) @ t=0.22
0
% es.tEz (V/m) @ t=0.22
0.7626778044523093
% V (V) @ t=0.22
0.011069718403040616
% es.normE (V/m) @ t=0.24
2.011915216870138
% es.EX (V/m) @ t=0.24
-1.8505133488890053
% es.EY (V/m) @ t=0.24
0.14435308128914537
% es.EZ (V/m) @ t=0.24
0.7739213565629479
% es.tEX (V/m) @ t=0.24
-1.8505133488889953
% es.tEY (V/m) @ t=0.24
0
% es.tEZ (V/m) @ t=0.24
0.7739213565629477
% es.Ex (V/m) @ t=0.24
-1.8505133488890053
% es.Ey (V/m) @ t=0.24
0.14435308128914537
% es.Ez (V/m) @ t=0.24
0.7739213565629479
% es.tEx (V/m) @ t=0.24
-1.8505133488889953
% es.tEy (V/m) @ t=0.24
0
% es.tEz (V/m) @ t=0.24
0.7739213565629477
% V (V) @ t=0.24
0.0112329090417991
% es.normE (V/m) @ t=0.26
2.0411443205555253
% es.EX (V/m) @ t=0.26
-1.8773975966447722
% es.EY (V/m) @ t=0.26
0.14645024240438242
% es.EZ (V/m) @ t=0.26
0.7851649086735863
% es.tEX (V/m) @ t=0.26
-1.877397596644764
% es.tEY (V/m) @ t=0.26
0
% es.tEZ (V/m) @ t=0.26
0.7851649086735968
% es.Ex (V/m) @ t=0.26
-1.8773975966447722
% es.Ey (V/m) @ t=0.26
0.14645024240438242
% es.Ez (V/m) @ t=0.26
0.7851649086735863
% es.tEx (V/m) @ t=0.26
-1.877397596644764
% es.tEy (V/m) @ t=0.26
0
% es.tEz (V/m) @ t=0.26
0.7851649086735968
% V (V) @ t=0.26
0.011396099680557582
% es.normE (V/m) @ t=0.28
2.071354226033504
% es.EX (V/m) @ t=0.28
-1.905183965294959
% es.EY (V/m) @ t=0.28
0.1486177752544663
% es.EZ (V/m) @ t=0.28
0.7967857401463347
% es.tEX (V/m) @ t=0.28
-1.905183965294956
% es.tEY (V/m) @ t=0.28
0
% es.tEZ (V/m) @ t=0.28
0.7967857401463299
% es.Ex (V/m) @ t=0.28
-1.905183965294959
% es.Ey (V/m) @ t=0.28
0.1486177752544663
% es.Ez (V/m) @ t=0.28
0.7967857401463347
% es.tEx (V/m) @ t=0.28
-1.905183965294956
% es.tEy (V/m) @ t=0.28
0
% es.tEz (V/m) @ t=0.28
0.7967857401463299
% V (V) @ t=0.28
0.011564766540018513
% es.normE (V/m) @ t=0.3
2.103189608274082
% es.EX (V/m) @ t=0.3
-1.9344654133404153
% es.EY (V/m) @ t=0.3
0.15090193474676894
% es.EZ (V/m) @ t=0.3
0.8090318343793267
% es.tEX (V/m) @ t=0.3
-1.934465413340405
% es.tEY (V/m) @ t=0.3
0
% es.tEZ (V/m) @ t=0.3
0.8090318343793257
% es.Ex (V/m) @ t=0.3
-1.9344654133404153
% es.Ey (V/m) @ t=0.3
0.15090193474676894
% es.Ez (V/m) @ t=0.3
0.8090318343793267
% es.tEx (V/m) @ t=0.3
-1.934465413340405
% es.tEy (V/m) @ t=0.3
0
% es.tEz (V/m) @ t=0.3
0.8090318343793257
% V (V) @ t=0.3
0.011742509106279664
% es.normE (V/m) @ t=0.32
2.135024990514653
% es.EX (V/m) @ t=0.32
-1.963746861385861
% es.EY (V/m) @ t=0.32
0.15318609423908236
% es.EZ (V/m) @ t=0.32
0.821277928612324
% es.tEX (V/m) @ t=0.32
-1.9637468613858537
% es.tEY (V/m) @ t=0.32
0
% es.tEZ (V/m) @ t=0.32
0.8212779286123251
% es.Ex (V/m) @ t=0.32
-1.963746861385861
% es.Ey (V/m) @ t=0.32
0.15318609423908236
% es.Ez (V/m) @ t=0.32
0.821277928612324
% es.tEx (V/m) @ t=0.32
-1.9637468613858537
% es.tEy (V/m) @ t=0.32
0
% es.tEz (V/m) @ t=0.32
0.8212779286123251
% V (V) @ t=0.32
0.011920251672540811
% es.normE (V/m) @ t=0.34
2.1668603727552167
% es.EX (V/m) @ t=0.34
-1.9930283094313037
% es.EY (V/m) @ t=0.34
0.15547025373139767
% es.EZ (V/m) @ t=0.34
0.8335240228453088
% es.tEX (V/m) @ t=0.34
-1.9930283094312973
% es.tEY (V/m) @ t=0.34
0
% es.tEZ (V/m) @ t=0.34
0.8335240228453102
% es.Ex (V/m) @ t=0.34
-1.9930283094313037
% es.Ey (V/m) @ t=0.34
0.15547025373139767
% es.Ez (V/m) @ t=0.34
0.8335240228453088
% es.tEx (V/m) @ t=0.34
-1.9930283094312973
% es.tEy (V/m) @ t=0.34
0
% es.tEz (V/m) @ t=0.34
0.8335240228453102
% V (V) @ t=0.34
0.012097994238801958
% es.normE (V/m) @ t=0.36
2.1986957549957866
% es.EX (V/m) @ t=0.36
-2.0223097574767497
% es.EY (V/m) @ t=0.36
0.15775441322371098
% es.EZ (V/m) @ t=0.36
0.8457701170783026
% es.tEX (V/m) @ t=0.36
-2.022309757476741
% es.tEY (V/m) @ t=0.36
0
% es.tEZ (V/m) @ t=0.36
0.845770117078299
% es.Ex (V/m) @ t=0.36
-2.0223097574767497
% es.Ey (V/m) @ t=0.36
0.15775441322371098
% es.Ez (V/m) @ t=0.36
0.8457701170783026
% es.tEx (V/m) @ t=0.36
-2.022309757476741
% es.tEy (V/m) @ t=0.36
0
% es.tEz (V/m) @ t=0.36
0.845770117078299
% V (V) @ t=0.36
0.012275736805063107
% es.normE (V/m) @ t=0.38
2.230531137236367
% es.EX (V/m) @ t=0.38
-2.0515912055222074
% es.EY (V/m) @ t=0.38
0.16003857271601019
% es.EZ (V/m) @ t=0.38
0.8580162113112982
% es.tEX (V/m) @ t=0.38
-2.0515912055221968
% es.tEY (V/m) @ t=0.38
0
% es.tEZ (V/m) @ t=0.38
0.8580162113113019
% es.Ex (V/m) @ t=0.38
-2.0515912055222074
% es.Ey (V/m) @ t=0.38
0.16003857271601019
% es.Ez (V/m) @ t=0.38
0.8580162113112982
% es.tEx (V/m) @ t=0.38
-2.0515912055221968
% es.tEy (V/m) @ t=0.38
0
% es.tEz (V/m) @ t=0.38
0.8580162113113019
% V (V) @ t=0.38
0.012453479371324256
% es.normE (V/m) @ t=0.4
2.2623665194769433
% es.EX (V/m) @ t=0.4
-2.0808726535676607
% es.EY (V/m) @ t=0.4
0.16232273220832183
% es.EZ (V/m) @ t=0.4
0.8702623055442918
% es.tEX (V/m) @ t=0.4
-2.0808726535676474
% es.tEY (V/m) @ t=0.4
0
% es.tEZ (V/m) @ t=0.4
0.87026230554428
% es.Ex (V/m) @ t=0.4
-2.0808726535676607
% es.Ey (V/m) @ t=0.4
0.16232273220832183
% es.Ez (V/m) @ t=0.4
0.8702623055442918
% es.tEx (V/m) @ t=0.4
-2.0808726535676474
% es.tEy (V/m) @ t=0.4
0
% es.tEz (V/m) @ t=0.4
0.87026230554428
% V (V) @ t=0.4
0.012631221937585405
% es.normE (V/m) @ t=0.42
2.2957980193216834
% es.EX (V/m) @ t=0.42
-2.1116221717033614
% es.EY (V/m) @ t=0.42
0.1647214116113832
% es.EZ (V/m) @ t=0.42
0.8831223818558288
% es.tEX (V/m) @ t=0.42
-2.111622171703349
% es.tEY (V/m) @ t=0.42
0
% es.tEZ (V/m) @ t=0.42
0.8831223818558271
% es.Ex (V/m) @ t=0.42
-2.1116221717033614
% es.Ey (V/m) @ t=0.42
0.1647214116113832
% es.Ez (V/m) @ t=0.42
0.8831223818558288
% es.tEx (V/m) @ t=0.42
-2.111622171703349
% es.tEy (V/m) @ t=0.42
0
% es.tEz (V/m) @ t=0.42
0.8831223818558271
% V (V) @ t=0.42
0.012817875697415219
% es.normE (V/m) @ t=0.44
2.330436216254701
% es.EX (V/m) @ t=0.44
-2.1434815804252416
% es.EY (V/m) @ t=0.44
0.1672066703757914
% es.EZ (V/m) @ t=0.44
0.8964466409973065
% es.tEX (V/m) @ t=0.44
-2.143481580425231
% es.tEY (V/m) @ t=0.44
0
% es.tEZ (V/m) @ t=0.44
0.8964466409973042
% es.Ex (V/m) @ t=0.44
-2.1434815804252416
% es.Ey (V/m) @ t=0.44
0.1672066703757914
% es.Ez (V/m) @ t=0.44
0.8964466409973065
% es.tEx (V/m) @ t=0.44
-2.143481580425231
% es.tEy (V/m) @ t=0.44
0
% es.tEz (V/m) @ t=0.44
0.8964466409973042
% V (V) @ t=0.44
0.013011266499242636
% es.normE (V/m) @ t=0.46
2.3650744131877373
% es.EX (V/m) @ t=0.46
-2.1753409891471316
% es.EY (V/m) @ t=0.46
0.16969192914018905
% es.EZ (V/m) @ t=0.46
0.9097709001388127
% es.tEX (V/m) @ t=0.46
-2.175340989147113
% es.tEY (V/m) @ t=0.46
0
% es.tEZ (V/m) @ t=0.46
0.9097709001388026
% es.Ex (V/m) @ t=0.46
-2.1753409891471316
% es.Ey (V/m) @ t=0.46
0.16969192914018905
% es.Ez (V/m) @ t=0.46
0.9097709001388127
% es.tEx (V/m) @ t=0.46
-2.175340989147113
% es.tEy (V/m) @ t=0.46
0
% es.tEz (V/m) @ t=0.46
0.9097709001388026
% V (V) @ t=0.46
0.01320465730107005
% es.normE (V/m) @ t=0.48
2.3997126101207584
% es.EX (V/m) @ t=0.48
-2.207200397869011
% es.EY (V/m) @ t=0.48
0.17217718790459013
% es.EZ (V/m) @ t=0.48
0.9230951592803011
% es.tEX (V/m) @ t=0.48
-2.207200397869004
% es.tEY (V/m) @ t=0.48
0
% es.tEZ (V/m) @ t=0.48
0.923095159280301
% es.Ex (V/m) @ t=0.48
-2.207200397869011
% es.Ey (V/m) @ t=0.48
0.17217718790459013
% es.Ez (V/m) @ t=0.48
0.9230951592803011
% es.tEx (V/m) @ t=0.48
-2.207200397869004
% es.tEy (V/m) @ t=0.48
0
% es.tEz (V/m) @ t=0.48
0.923095159280301
% V (V) @ t=0.48
0.013398048102897464
% es.normE (V/m) @ t=0.5
2.4343508070537636
% es.EX (V/m) @ t=0.5
-2.2390598065908796
% es.EY (V/m) @ t=0.5
0.17466244666901265
% es.EZ (V/m) @ t=0.5
0.9364194184217717
% es.tEX (V/m) @ t=0.5
-2.2390598065908645
% es.tEY (V/m) @ t=0.5
0
% es.tEZ (V/m) @ t=0.5
0.9364194184217638
% es.Ex (V/m) @ t=0.5
-2.2390598065908796
% es.Ey (V/m) @ t=0.5
0.17466244666901265
% es.Ez (V/m) @ t=0.5
0.9364194184217717
% es.tEx (V/m) @ t=0.5
-2.2390598065908645
% es.tEy (V/m) @ t=0.5
0
% es.tEz (V/m) @ t=0.5
0.9364194184217638
% V (V) @ t=0.5
0.013591438904724881
% es.normE (V/m) @ t=0.52
2.4689890039867954
% es.EX (V/m) @ t=0.52
-2.2709192153127704
% es.EY (V/m) @ t=0.52
0.17714770543341551
% es.EZ (V/m) @ t=0.52
0.9497436775632636
% es.tEX (V/m) @ t=0.52
-2.2709192153127606
% es.tEY (V/m) @ t=0.52
0
% es.tEZ (V/m) @ t=0.52
0.9497436775632622
% es.Ex (V/m) @ t=0.52
-2.2709192153127704
% es.Ey (V/m) @ t=0.52
0.17714770543341551
% es.Ez (V/m) @ t=0.52
0.9497436775632636
% es.tEx (V/m) @ t=0.52
-2.2709192153127606
% es.tEy (V/m) @ t=0.52
0
% es.tEz (V/m) @ t=0.52
0.9497436775632622
% V (V) @ t=0.52
0.013784829706552296
% es.normE (V/m) @ t=0.54
2.5036272009198193
% es.EX (V/m) @ t=0.54
-2.3027786240346497
% es.EY (V/m) @ t=0.54
0.17963296419782737
% es.EZ (V/m) @ t=0.54
0.9630679367047555
% es.tEX (V/m) @ t=0.54
-2.3027786240346337
% es.tEY (V/m) @ t=0.54
0
% es.tEZ (V/m) @ t=0.54
0.9630679367047534
% es.Ex (V/m) @ t=0.54
-2.3027786240346497
% es.Ey (V/m) @ t=0.54
0.17963296419782737
% es.Ez (V/m) @ t=0.54
0.9630679367047555
% es.tEx (V/m) @ t=0.54
-2.3027786240346337
% es.tEy (V/m) @ t=0.54
0
% es.tEz (V/m) @ t=0.54
0.9630679367047534
% V (V) @ t=0.54
0.013978220508379711
% es.normE (V/m) @ t=0.56
2.5392698422022284
% es.EX (V/m) @ t=0.56
-2.3355619019708858
% es.EY (V/m) @ t=0.56
0.18219029103369766
% es.EZ (V/m) @ t=0.56
0.9767785639876575
% es.tEX (V/m) @ t=0.56
-2.3355619019708893
% es.tEY (V/m) @ t=0.56
0
% es.tEZ (V/m) @ t=0.56
0.9767785639876578
% es.Ex (V/m) @ t=0.56
-2.3355619019708858
% es.Ey (V/m) @ t=0.56
0.18219029103369766
% es.Ez (V/m) @ t=0.56
0.9767785639876575
% es.tEx (V/m) @ t=0.56
-2.3355619019708893
% es.tEy (V/m) @ t=0.56
0
% es.tEz (V/m) @ t=0.56
0.9767785639876578
% V (V) @ t=0.56
0.014177219794682583
% es.normE (V/m) @ t=0.58
2.575531840984884
% es.EX (V/m) @ t=0.58
-2.368914853406224
% es.EY (V/m) @ t=0.58
0.1847920562703903
% es.EZ (V/m) @ t=0.58
0.9907274324497336
% es.tEX (V/m) @ t=0.58
-2.368914853406217
% es.tEY (V/m) @ t=0.58
0
% es.tEZ (V/m) @ t=0.58
0.9907274324497237
% es.Ex (V/m) @ t=0.58
-2.368914853406224
% es.Ey (V/m) @ t=0.58
0.1847920562703903
% es.Ez (V/m) @ t=0.58
0.9907274324497336
% es.tEx (V/m) @ t=0.58
-2.368914853406217
% es.tEy (V/m) @ t=0.58
0
% es.tEz (V/m) @ t=0.58
0.9907274324497237
% V (V) @ t=0.58
0.014379677368074401
% es.normE (V/m) @ t=0.6
2.6121418438177293
% es.EX (V/m) @ t=0.6
-2.402587892488664
% es.EY (V/m) @ t=0.6
0.18741879051682175
% es.EZ (V/m) @ t=0.6
1.0048101636570865
% es.tEX (V/m) @ t=0.6
-2.4025878924886523
% es.tEY (V/m) @ t=0.6
0
% es.tEZ (V/m) @ t=0.6
1.0048101636570763
% es.Ex (V/m) @ t=0.6
-2.402587892488664
% es.Ey (V/m) @ t=0.6
0.18741879051682175
% es.Ez (V/m) @ t=0.6
1.0048101636570865
% es.tEx (V/m) @ t=0.6
-2.4025878924886523
% es.tEy (V/m) @ t=0.6
0
% es.tEz (V/m) @ t=0.6
1.0048101636570763
% V (V) @ t=0.6
0.014584078080788933
% es.normE (V/m) @ t=0.62
2.649099850700706
% es.EX (V/m) @ t=0.62
-2.436581019218158
% es.EY (V/m) @ t=0.62
0.19007049377299579
% es.EZ (V/m) @ t=0.62
1.0190267576096672
% es.tEX (V/m) @ t=0.62
-2.436581019218151
% es.tEY (V/m) @ t=0.62
0
% es.tEZ (V/m) @ t=0.62
1.0190267576096659
% es.Ex (V/m) @ t=0.62
-2.436581019218158
% es.Ey (V/m) @ t=0.62
0.19007049377299579
% es.Ez (V/m) @ t=0.62
1.0190267576096672
% es.tEx (V/m) @ t=0.62
-2.436581019218151
% es.tEy (V/m) @ t=0.62
0
% es.tEz (V/m) @ t=0.62
1.0190267576096659
% V (V) @ t=0.62
0.014790421932826179
% es.normE (V/m) @ t=0.64
2.6864058616338804
% es.EX (V/m) @ t=0.64
-2.4708942335947635
% es.EY (V/m) @ t=0.64
0.19274716603893194
% es.EZ (V/m) @ t=0.64
1.0333772143075208
% es.tEX (V/m) @ t=0.64
-2.4708942335947555
% es.tEY (V/m) @ t=0.64
0
% es.tEZ (V/m) @ t=0.64
1.033377214307528
% es.Ex (V/m) @ t=0.64
-2.4708942335947635
% es.Ey (V/m) @ t=0.64
0.19274716603893194
% es.Ez (V/m) @ t=0.64
1.0333772143075208
% es.tEx (V/m) @ t=0.64
-2.4708942335947555
% es.tEy (V/m) @ t=0.64
0
% es.tEz (V/m) @ t=0.64
1.033377214307528
% V (V) @ t=0.64
0.014998708924186144
% es.normE (V/m) @ t=0.66
2.7240598766172193
% es.EX (V/m) @ t=0.66
-2.505527535618442
% es.EY (V/m) @ t=0.66
0.19544880731464442
% es.EZ (V/m) @ t=0.66
1.0478615337506407
% es.tEX (V/m) @ t=0.66
-2.5055275356184303
% es.tEY (V/m) @ t=0.66
0
% es.tEZ (V/m) @ t=0.66
1.0478615337506412
% es.Ex (V/m) @ t=0.66
-2.505527535618442
% es.Ey (V/m) @ t=0.66
0.19544880731464442
% es.Ez (V/m) @ t=0.66
1.0478615337506407
% es.tEx (V/m) @ t=0.66
-2.5055275356184303
% es.tEy (V/m) @ t=0.66
0
% es.tEz (V/m) @ t=0.66
1.0478615337506412
% V (V) @ t=0.66
0.015208939054868824
% es.normE (V/m) @ t=0.68
2.762061895650702
% es.EX (V/m) @ t=0.68
-2.5404809252891933
% es.EY (V/m) @ t=0.68
0.19817541760007273
% es.EZ (V/m) @ t=0.68
1.0624797159389878
% es.tEX (V/m) @ t=0.68
-2.5404809252891827
% es.tEY (V/m) @ t=0.68
0
% es.tEZ (V/m) @ t=0.68
1.0624797159389914
% es.Ex (V/m) @ t=0.68
-2.5404809252891933
% es.Ey (V/m) @ t=0.68
0.19817541760007273
% es.Ez (V/m) @ t=0.68
1.0624797159389878
% es.tEx (V/m) @ t=0.68
-2.5404809252891827
% es.tEy (V/m) @ t=0.68
0
% es.tEz (V/m) @ t=0.68
1.0624797159389914
% V (V) @ t=0.68
0.01542111232487422
% es.normE (V/m) @ t=0.7
2.8004119187343637
% es.EX (V/m) @ t=0.7
-2.575754402607034
% es.EY (V/m) @ t=0.7
0.2009269968952737
% es.EZ (V/m) @ t=0.7
1.0772317608726034
% es.tEX (V/m) @ t=0.7
-2.5757544026070196
% es.tEY (V/m) @ t=0.7
0
% es.tEZ (V/m) @ t=0.7
1.0772317608725928
% es.Ex (V/m) @ t=0.7
-2.575754402607034
% es.Ey (V/m) @ t=0.7
0.2009269968952737
% es.Ez (V/m) @ t=0.7
1.0772317608726034
% es.tEx (V/m) @ t=0.7
-2.5757544026070196
% es.tEy (V/m) @ t=0.7
0
% es.tEz (V/m) @ t=0.7
1.0772317608725928
% V (V) @ t=0.7
0.015635228734202332
% es.normE (V/m) @ t=0.72
2.839109945868209
% es.EX (V/m) @ t=0.72
-2.6113479675719695
% es.EY (V/m) @ t=0.72
0.2037035452002367
% es.EZ (V/m) @ t=0.72
1.0921176685514813
% es.tEX (V/m) @ t=0.72
-2.6113479675719624
% es.tEY (V/m) @ t=0.72
0
% es.tEZ (V/m) @ t=0.72
1.0921176685514808
% es.Ex (V/m) @ t=0.72
-2.6113479675719695
% es.Ey (V/m) @ t=0.72
0.2037035452002367
% es.Ez (V/m) @ t=0.72
1.0921176685514813
% es.tEx (V/m) @ t=0.72
-2.6113479675719624
% es.tEy (V/m) @ t=0.72
0
% es.tEz (V/m) @ t=0.72
1.0921176685514808
% V (V) @ t=0.72
0.015851288282853156
% es.normE (V/m) @ t=0.74
2.8781559770522156
% es.EX (V/m) @ t=0.74
-2.647261620183988
% es.EY (V/m) @ t=0.74
0.20650506251493705
% es.EZ (V/m) @ t=0.74
1.1071374389756095
% es.tEX (V/m) @ t=0.74
-2.6472616201839774
% es.tEY (V/m) @ t=0.74
0
% es.tEZ (V/m) @ t=0.74
1.107137438975613
% es.Ex (V/m) @ t=0.74
-2.647261620183988
% es.Ey (V/m) @ t=0.74
0.20650506251493705
% es.Ez (V/m) @ t=0.74
1.1071374389756095
% es.tEx (V/m) @ t=0.74
-2.6472616201839774
% es.tEy (V/m) @ t=0.74
0
% es.tEz (V/m) @ t=0.74
1.107137438975613
% V (V) @ t=0.74
0.0160692909708267
% es.normE (V/m) @ t=0.76
2.917550012286377
% es.EX (V/m) @ t=0.76
-2.6834953604430742
% es.EY (V/m) @ t=0.76
0.2093315488394245
% es.EZ (V/m) @ t=0.76
1.122291072144988
% es.tEX (V/m) @ t=0.76
-2.6834953604430662
% es.tEY (V/m) @ t=0.76
0
% es.tEZ (V/m) @ t=0.76
1.1222910721449821
% es.Ex (V/m) @ t=0.76
-2.6834953604430742
% es.Ey (V/m) @ t=0.76
0.2093315488394245
% es.Ez (V/m) @ t=0.76
1.122291072144988
% es.tEx (V/m) @ t=0.76
-2.6834953604430662
% es.tEy (V/m) @ t=0.76
0
% es.tEz (V/m) @ t=0.76
1.1222910721449821
% V (V) @ t=0.76
0.016289236798122955
% es.normE (V/m) @ t=0.78
2.9572920515706747
% es.EX (V/m) @ t=0.78
-2.72004918834923
% es.EY (V/m) @ t=0.78
0.21218300417360614
% es.EZ (V/m) @ t=0.78
1.1375785680595834
% es.tEX (V/m) @ t=0.78
-2.7200491883492184
% es.tEY (V/m) @ t=0.78
0
% es.tEZ (V/m) @ t=0.78
1.1375785680595882
% es.Ex (V/m) @ t=0.78
-2.72004918834923
% es.Ey (V/m) @ t=0.78
0.21218300417360614
% es.Ez (V/m) @ t=0.78
1.1375785680595834
% es.tEx (V/m) @ t=0.78
-2.7200491883492184
% es.tEy (V/m) @ t=0.78
0
% es.tEz (V/m) @ t=0.78
1.1375785680595882
% V (V) @ t=0.78
0.016511125764741934
% es.normE (V/m) @ t=0.8
2.9973820949052032
% es.EX (V/m) @ t=0.8
-2.7569231039025066
% es.EY (V/m) @ t=0.8
0.21505942851758564
% es.EZ (V/m) @ t=0.8
1.152999926719502
% es.tEX (V/m) @ t=0.8
-2.7569231039024906
% es.tEY (V/m) @ t=0.8
0
% es.tEZ (V/m) @ t=0.8
1.1529999267195024
% es.Ex (V/m) @ t=0.8
-2.7569231039025066
% es.Ey (V/m) @ t=0.8
0.21505942851758564
% es.Ez (V/m) @ t=0.8
1.152999926719502
% es.tEx (V/m) @ t=0.8
-2.7569231039024906
% es.tEy (V/m) @ t=0.8
0
% es.tEz (V/m) @ t=0.8
1.1529999267195024
% V (V) @ t=0.8
0.016734957870683628
% es.normE (V/m) @ t=0.82
3.037921058194505
% es.EX (V/m) @ t=0.82
-2.7942099008177204
% es.EY (V/m) @ t=0.82
0.2179680616257733
% es.EZ (V/m) @ t=0.82
1.1685940299965725
% es.tEX (V/m) @ t=0.82
-2.7942099008177017
% es.tEY (V/m) @ t=0.82
0
% es.tEZ (V/m) @ t=0.82
1.1685940299965765
% es.Ex (V/m) @ t=0.82
-2.7942099008177204
% es.Ey (V/m) @ t=0.82
0.2179680616257733
% es.Ez (V/m) @ t=0.82
1.1685940299965725
% es.tEx (V/m) @ t=0.82
-2.7942099008177017
% es.tEy (V/m) @ t=0.82
0
% es.tEz (V/m) @ t=0.82
1.1685940299965765
% V (V) @ t=0.82
0.016961293695609853
% es.normE (V/m) @ t=0.84
3.0794413811201404
% es.EX (V/m) @ t=0.84
-2.832399165510093
% es.EY (V/m) @ t=0.84
0.2209471009713051
% es.EZ (V/m) @ t=0.84
1.1845660214862748
% es.tEX (V/m) @ t=0.84
-2.832399165510079
% es.tEY (V/m) @ t=0.84
0
% es.tEZ (V/m) @ t=0.84
1.184566021486276
% es.Ex (V/m) @ t=0.84
-2.832399165510093
% es.Ey (V/m) @ t=0.84
0.2209471009713051
% es.Ez (V/m) @ t=0.84
1.1845660214862748
% es.tEx (V/m) @ t=0.84
-2.832399165510079
% es.tEy (V/m) @ t=0.84
0
% es.tEz (V/m) @ t=0.84
1.184566021486276
% V (V) @ t=0.84
0.017193090898748653
% es.normE (V/m) @ t=0.86
3.1214081918419243
% es.EX (V/m) @ t=0.86
-2.8709990751573207
% es.EY (V/m) @ t=0.86
0.2239581745968635
% es.EZ (V/m) @ t=0.86
1.2007098205071522
% es.tEX (V/m) @ t=0.86
-2.8709990751573145
% es.tEY (V/m) @ t=0.86
0
% es.tEZ (V/m) @ t=0.86
1.200709820507143
% es.Ex (V/m) @ t=0.86
-2.8709990751573207
% es.Ey (V/m) @ t=0.86
0.2239581745968635
% es.Ez (V/m) @ t=0.86
1.2007098205071522
% es.tEx (V/m) @ t=0.86
-2.8709990751573145
% es.tEy (V/m) @ t=0.86
0
% es.tEz (V/m) @ t=0.86
1.200709820507143
% V (V) @ t=0.86
0.017427378310427528
% es.normE (V/m) @ t=0.88
3.1638214903598763
% es.EX (V/m) @ t=0.88
-2.9100096297594136
% es.EY (V/m) @ t=0.88
0.22700128250241658
% es.EZ (V/m) @ t=0.88
1.2170254270591694
% es.tEX (V/m) @ t=0.88
-2.91000962975939
% es.tEY (V/m) @ t=0.88
0
% es.tEZ (V/m) @ t=0.88
1.2170254270591698
% es.Ex (V/m) @ t=0.88
-2.9100096297594136
% es.Ey (V/m) @ t=0.88
0.22700128250241658
% es.Ez (V/m) @ t=0.88
1.2170254270591694
% es.tEx (V/m) @ t=0.88
-2.91000962975939
% es.tEy (V/m) @ t=0.88
0
% es.tEz (V/m) @ t=0.88
1.2170254270591698
% V (V) @ t=0.88
0.017664155930646484
% es.normE (V/m) @ t=0.9
3.20668127667404
% es.EX (V/m) @ t=0.9
-2.9494308293163725
% es.EY (V/m) @ t=0.9
0.23007642468793954
% es.EZ (V/m) @ t=0.9
1.2335128411423684
% es.tEX (V/m) @ t=0.9
-2.949430829316352
% es.tEY (V/m) @ t=0.9
0
% es.tEZ (V/m) @ t=0.9
1.2335128411423781
% es.Ex (V/m) @ t=0.9
-2.9494308293163725
% es.Ey (V/m) @ t=0.9
0.23007642468793954
% es.Ez (V/m) @ t=0.9
1.2335128411423684
% es.tEx (V/m) @ t=0.9
-2.949430829316352
% es.tEy (V/m) @ t=0.9
0
% es.tEz (V/m) @ t=0.9
1.2335128411423781
% V (V) @ t=0.9
0.01790342375940551
% es.normE (V/m) @ t=0.92
3.249987550784436
% es.EX (V/m) @ t=0.92
-2.9892626738281844
% es.EY (V/m) @ t=0.92
0.23318360115351378
% es.EZ (V/m) @ t=0.92
1.2501720627567359
% es.tEX (V/m) @ t=0.92
-2.989262673828172
% es.tEY (V/m) @ t=0.92
0
% es.tEZ (V/m) @ t=0.92
1.2501720627567252
% es.Ex (V/m) @ t=0.92
-2.9892626738281844
% es.Ey (V/m) @ t=0.92
0.23318360115351378
% es.Ez (V/m) @ t=0.92
1.2501720627567359
% es.tEx (V/m) @ t=0.92
-2.989262673828172
% es.tEy (V/m) @ t=0.92
0
% es.tEz (V/m) @ t=0.92
1.2501720627567252
% V (V) @ t=0.92
0.018145181796704615
% es.normE (V/m) @ t=0.94
3.2937403126910905
% es.EX (V/m) @ t=0.94
-3.029505163294862
% es.EY (V/m) @ t=0.94
0.23632281189904014
% es.EZ (V/m) @ t=0.94
1.267003091902239
% es.tEX (V/m) @ t=0.94
-3.029505163294832
% es.tEY (V/m) @ t=0.94
0
% es.tEZ (V/m) @ t=0.94
1.2670030919022395
% es.Ex (V/m) @ t=0.94
-3.029505163294862
% es.Ey (V/m) @ t=0.94
0.23632281189904014
% es.Ez (V/m) @ t=0.94
1.267003091902239
% es.tEx (V/m) @ t=0.94
-3.029505163294832
% es.tEy (V/m) @ t=0.94
0
% es.tEz (V/m) @ t=0.94
1.2670030919022395
% V (V) @ t=0.94
0.0183894300425438
% es.normE (V/m) @ t=0.96
3.337939562394017
% es.EX (V/m) @ t=0.96
-3.070158297716367
% es.EY (V/m) @ t=0.96
0.23949405692458936
% es.EZ (V/m) @ t=0.96
1.2840059285789036
% es.tEX (V/m) @ t=0.96
-3.0701582977163504
% es.tEY (V/m) @ t=0.96
0
% es.tEZ (V/m) @ t=0.96
1.2840059285788996
% es.Ex (V/m) @ t=0.96
-3.070158297716367
% es.Ey (V/m) @ t=0.96
0.23949405692458936
% es.Ez (V/m) @ t=0.96
1.2840059285789036
% es.tEx (V/m) @ t=0.96
-3.0701582977163504
% es.tEy (V/m) @ t=0.96
0
% es.tEz (V/m) @ t=0.96
1.2840059285788996
% V (V) @ t=0.96
0.018636168496923063
% es.normE (V/m) @ t=0.98
3.3825852998932944
% es.EX (V/m) @ t=0.98
-3.1112220770927475
% es.EY (V/m) @ t=0.98
0.24269733623011558
% es.EZ (V/m) @ t=0.98
1.3011805727867325
% es.tEX (V/m) @ t=0.98
-3.111222077092723
% es.tEY (V/m) @ t=0.98
0
% es.tEZ (V/m) @ t=0.98
1.301180572786727
% es.Ex (V/m) @ t=0.98
-3.1112220770927475
% es.Ey (V/m) @ t=0.98
0.24269733623011558
% es.Ez (V/m) @ t=0.98
1.3011805727867325
% es.tEx (V/m) @ t=0.98
-3.111222077092723
% es.tEy (V/m) @ t=0.98
0
% es.tEz (V/m) @ t=0.98
1.301180572786727
% V (V) @ t=0.98
0.018885397159842394
% es.normE (V/m) @ t=1
3.427677525188968
% es.EX (V/m) @ t=1
-3.152696501423996
% es.EY (V/m) @ t=1
0.24593264981565077
% es.EZ (V/m) @ t=1
1.3185270245257574
% es.tEX (V/m) @ t=1
-3.1526965014239856
% es.tEY (V/m) @ t=1
0
% es.tEZ (V/m) @ t=1
1.318527024525757
% es.Ex (V/m) @ t=1
-3.152696501423996
% es.Ey (V/m) @ t=1
0.24593264981565077
% es.Ez (V/m) @ t=1
1.3185270245257574
% es.tEx (V/m) @ t=1
-3.1526965014239856
% es.tEy (V/m) @ t=1
0
% es.tEz (V/m) @ t=1
1.318527024525757
% V (V) @ t=1
0.019137116031301808
% es.normE (V/m) @ t=1.02
3.473216238281061
% es.EX (V/m) @ t=1.02
-3.1945815707101084
% es.EY (V/m) @ t=1.02
0.24919999768120882
% es.EZ (V/m) @ t=1.02
1.3360452837959402
% es.tEX (V/m) @ t=1.02
-3.194581570710085
% es.tEY (V/m) @ t=1.02
0
% es.tEZ (V/m) @ t=1.02
1.3360452837959258
% es.Ex (V/m) @ t=1.02
-3.1945815707101084
% es.Ey (V/m) @ t=1.02
0.24919999768120882
% es.Ez (V/m) @ t=1.02
1.3360452837959402
% es.tEx (V/m) @ t=1.02
-3.194581570710085
% es.tEy (V/m) @ t=1.02
0
% es.tEz (V/m) @ t=1.02
1.3360452837959258
% V (V) @ t=1.02
0.019391325111301295
% es.normE (V/m) @ t=1.04
3.5192014391695614
% es.EX (V/m) @ t=1.04
-3.2368772849510417
% es.EY (V/m) @ t=1.04
0.2524993798267756
% es.EZ (V/m) @ t=1.04
1.3537353505972591
% es.tEX (V/m) @ t=1.04
-3.236877284951021
% es.tEY (V/m) @ t=1.04
0
% es.tEZ (V/m) @ t=1.04