% Model:              1 neuron.mph
% Version:            COMSOL 6.0.0.405
% Date:               Mar 16 2023, 19:15
% Dimension:          0
% Nodes:              14017
% Expressions:        14017
% Description:        Electric field norm, Electric field, X component, Electric field, Y component, Electric field, Z component, Tangential electric field, X component, Tangential electric field, Y component, Tangential electric field, Z component, Electric field, x component, Electric field, y component, Electric field, z component, Tangential electric field, x component, Tangential electric field, y component, Tangential electric field, z component, Electric potential
% Length unit:        mm
% x
1.3300000000000003
% y
12.200000000000001
% z
1.66
% es.normE (V/m) @ t=0
11.02521769831415
% es.EX (V/m) @ t=0
6.99659956212774
% es.EY (V/m) @ t=0
2.092226964745838
% es.EZ (V/m) @ t=0
-7.663847244954269
% es.tEX (V/m) @ t=0
6.996599562127739
% es.tEY (V/m) @ t=0
0
% es.tEZ (V/m) @ t=0
-7.663847244954248
% es.Ex (V/m) @ t=0
6.99659956212774
% es.Ey (V/m) @ t=0
2.092226964745838
% es.Ez (V/m) @ t=0
-7.663847244954269
% es.tEx (V/m) @ t=0
6.996599562127739
% es.tEy (V/m) @ t=0
0
% es.tEz (V/m) @ t=0
-7.663847244954248
% V (V) @ t=0
0.009443965007087598
% es.normE (V/m) @ t=0.02
9.575488493965334
% es.EX (V/m) @ t=0.02
6.076601906707135
% es.EY (V/m) @ t=0.02
1.8171157325216605
% es.EZ (V/m) @ t=0.02
-6.656111754674338
% es.tEX (V/m) @ t=0.02
6.076601906707122
% es.tEY (V/m) @ t=0.02
0
% es.tEZ (V/m) @ t=0.02
-6.656111754674324
% es.Ex (V/m) @ t=0.02
6.076601906707135
% es.Ey (V/m) @ t=0.02
1.8171157325216605
% es.Ez (V/m) @ t=0.02
-6.656111754674338
% es.tEx (V/m) @ t=0.02
6.076601906707122
% es.tEy (V/m) @ t=0.02
0
% es.tEz (V/m) @ t=0.02
-6.656111754674324
% V (V) @ t=0.02
0.008202157529865093
% es.normE (V/m) @ t=0.04
9.717474366337939
% es.EX (V/m) @ t=0.04
6.166706128438469
% es.EY (V/m) @ t=0.04
1.844060176938724
% es.EZ (V/m) @ t=0.04
-6.7548089481894475
% es.tEX (V/m) @ t=0.04
6.166706128438458
% es.tEY (V/m) @ t=0.04
0
% es.tEZ (V/m) @ t=0.04
-6.754808948189433
% es.Ex (V/m) @ t=0.04
6.166706128438469
% es.Ey (V/m) @ t=0.04
1.844060176938724
% es.Ez (V/m) @ t=0.04
-6.7548089481894475
% es.tEx (V/m) @ t=0.04
6.166706128438458
% es.tEy (V/m) @ t=0.04
0
% es.tEz (V/m) @ t=0.04
-6.754808948189433
% V (V) @ t=0.04
0.008323778888469049
% es.normE (V/m) @ t=0.06
9.861569502288692
% es.EX (V/m) @ t=0.06
6.258148901709728
% es.EY (V/m) @ t=0.06
1.8714049533258916
% es.EZ (V/m) @ t=0.06
-6.854972332902522
% es.tEX (V/m) @ t=0.06
6.258148901709709
% es.tEY (V/m) @ t=0.06
0
% es.tEZ (V/m) @ t=0.06
-6.854972332902499
% es.Ex (V/m) @ t=0.06
6.258148901709728
% es.Ey (V/m) @ t=0.06
1.8714049533258916
% es.Ez (V/m) @ t=0.06
-6.854972332902522
% es.tEx (V/m) @ t=0.06
6.258148901709709
% es.tEy (V/m) @ t=0.06
0
% es.tEz (V/m) @ t=0.06
-6.854972332902499
% V (V) @ t=0.06
0.008447206714584278
% es.normE (V/m) @ t=0.08
10.009390406219655
% es.EX (V/m) @ t=0.08
6.351956018602648
% es.EY (V/m) @ t=0.08
1.899456632216486
% es.EZ (V/m) @ t=0.08
-6.957725572150085
% es.tEX (V/m) @ t=0.08
6.351956018602629
% es.tEY (V/m) @ t=0.08
0
% es.tEZ (V/m) @ t=0.08
-6.957725572150062
% es.Ex (V/m) @ t=0.08
6.351956018602648
% es.Ey (V/m) @ t=0.08
1.899456632216486
% es.Ez (V/m) @ t=0.08
-6.957725572150085
% es.tEx (V/m) @ t=0.08
6.351956018602629
% es.tEy (V/m) @ t=0.08
0
% es.tEz (V/m) @ t=0.08
-6.957725572150062
% V (V) @ t=0.08
0.008573826526783967
% es.normE (V/m) @ t=0.1
10.159708511649256
% es.EX (V/m) @ t=0.1
6.447347840304527
% es.EY (V/m) @ t=0.1
1.9279821135554185
% es.EZ (V/m) @ t=0.1
-7.06221466522944
% es.tEX (V/m) @ t=0.1
6.447347840304512
% es.tEY (V/m) @ t=0.1
0
% es.tEZ (V/m) @ t=0.1
-7.062214665229419
% es.Ex (V/m) @ t=0.1
6.447347840304527
% es.Ey (V/m) @ t=0.1
1.9279821135554185
% es.Ez (V/m) @ t=0.1
-7.06221466522944
% es.tEx (V/m) @ t=0.1
6.447347840304512
% es.tEy (V/m) @ t=0.1
0
% es.tEz (V/m) @ t=0.1
-7.062214665229419
% V (V) @ t=0.1
0.008702585772377272
% es.normE (V/m) @ t=0.12
10.310026617078854
% es.EX (V/m) @ t=0.12
6.5427396620064275
% es.EY (V/m) @ t=0.12
1.9565075948943158
% es.EZ (V/m) @ t=0.12
-7.166703758308771
% es.tEX (V/m) @ t=0.12
6.542739662006417
% es.tEY (V/m) @ t=0.12
0
% es.tEZ (V/m) @ t=0.12
-7.166703758308756
% es.Ex (V/m) @ t=0.12
6.5427396620064275
% es.Ey (V/m) @ t=0.12
1.9565075948943158
% es.Ez (V/m) @ t=0.12
-7.166703758308771
% es.tEx (V/m) @ t=0.12
6.542739662006417
% es.tEy (V/m) @ t=0.12
0
% es.tEz (V/m) @ t=0.12
-7.166703758308756
% V (V) @ t=0.12
0.008831345017970577
% es.normE (V/m) @ t=0.14
10.463137600036413
% es.EX (V/m) @ t=0.14
6.639903995596299
% es.EY (V/m) @ t=0.14
1.9855637784051208
% es.EZ (V/m) @ t=0.14
-7.273134239226423
% es.tEX (V/m) @ t=0.14
6.639903995596288
% es.tEY (V/m) @ t=0.14
0
% es.tEZ (V/m) @ t=0.14
-7.273134239226401
% es.Ex (V/m) @ t=0.14
6.639903995596299
% es.Ey (V/m) @ t=0.14
1.9855637784051208
% es.Ez (V/m) @ t=0.14
-7.273134239226423
% es.tEx (V/m) @ t=0.14
6.639903995596288
% es.tEy (V/m) @ t=0.14
0
% es.tEz (V/m) @ t=0.14
-7.273134239226401
% V (V) @ t=0.14
0.008962493400156313
% es.normE (V/m) @ t=0.16
10.62692443855008
% es.EX (V/m) @ t=0.16
6.743843807414395
% es.EY (V/m) @ t=0.16
2.016648586398176
% es.EZ (V/m) @ t=0.16
-7.386985731602525
% es.tEX (V/m) @ t=0.16
6.743843807414369
% es.tEY (V/m) @ t=0.16
0
% es.tEZ (V/m) @ t=0.16
-7.386985731602511
% es.Ex (V/m) @ t=0.16
6.743843807414395
% es.Ey (V/m) @ t=0.16
2.016648586398176
% es.Ez (V/m) @ t=0.16
-7.386985731602525
% es.tEx (V/m) @ t=0.16
6.743843807414369
% es.tEy (V/m) @ t=0.16
0
% es.tEz (V/m) @ t=0.16
-7.386985731602511
% V (V) @ t=0.16
0.009102774326431525
% es.normE (V/m) @ t=0.18
10.790711277066316
% es.EX (V/m) @ t=0.18
6.8477836192324535
% es.EY (V/m) @ t=0.18
2.0477333943912592
% es.EZ (V/m) @ t=0.18
-7.5008372239786
% es.tEX (V/m) @ t=0.18
6.847783619232442
% es.tEY (V/m) @ t=0.18
0
% es.tEZ (V/m) @ t=0.18
-7.500837223978586
% es.Ex (V/m) @ t=0.18
6.8477836192324535
% es.Ey (V/m) @ t=0.18
2.0477333943912592
% es.Ez (V/m) @ t=0.18
-7.5008372239786
% es.tEx (V/m) @ t=0.18
6.847783619232442
% es.tEy (V/m) @ t=0.18
0
% es.tEz (V/m) @ t=0.18
-7.500837223978586
% V (V) @ t=0.18
0.009243055252706738
% es.normE (V/m) @ t=0.2
10.95449811558509
% es.EX (V/m) @ t=0.2
6.95172343105056
% es.EY (V/m) @ t=0.2
2.0788182023843254
% es.EZ (V/m) @ t=0.2
-7.614688716354699
% es.tEX (V/m) @ t=0.2
6.951723431050545
% es.tEY (V/m) @ t=0.2
0
% es.tEZ (V/m) @ t=0.2
-7.614688716354685
% es.Ex (V/m) @ t=0.2
6.95172343105056
% es.Ey (V/m) @ t=0.2
2.0788182023843254
% es.Ez (V/m) @ t=0.2
-7.614688716354699
% es.tEx (V/m) @ t=0.2
6.951723431050545
% es.tEy (V/m) @ t=0.2
0
% es.tEz (V/m) @ t=0.2
-7.614688716354685
% V (V) @ t=0.2
0.00938333617898195
% es.normE (V/m) @ t=0.22
11.118284954106208
% es.EX (V/m) @ t=0.22
7.055663242868633
% es.EY (V/m) @ t=0.22
2.1099030103773804
% es.EZ (V/m) @ t=0.22
-7.728540208730799
% es.tEX (V/m) @ t=0.22
7.055663242868619
% es.tEY (V/m) @ t=0.22
0
% es.tEZ (V/m) @ t=0.22
-7.728540208730776
% es.Ex (V/m) @ t=0.22
7.055663242868633
% es.Ey (V/m) @ t=0.22
2.1099030103773804
% es.Ez (V/m) @ t=0.22
-7.728540208730799
% es.tEx (V/m) @ t=0.22
7.055663242868619
% es.tEy (V/m) @ t=0.22
0
% es.tEz (V/m) @ t=0.22
-7.728540208730776
% V (V) @ t=0.22
0.00952361710525716
% es.normE (V/m) @ t=0.24
11.282071792629619
% es.EX (V/m) @ t=0.24
7.159603054686728
% es.EY (V/m) @ t=0.24
2.1409878183704465
% es.EZ (V/m) @ t=0.24
-7.842391701106879
% es.tEX (V/m) @ t=0.24
7.15960305468672
% es.tEY (V/m) @ t=0.24
0
% es.tEZ (V/m) @ t=0.24
-7.842391701106864
% es.Ex (V/m) @ t=0.24
7.159603054686728
% es.Ey (V/m) @ t=0.24
2.1409878183704465
% es.Ez (V/m) @ t=0.24
-7.842391701106879
% es.tEx (V/m) @ t=0.24
7.15960305468672
% es.tEy (V/m) @ t=0.24
0
% es.tEz (V/m) @ t=0.24
-7.842391701106864
% V (V) @ t=0.24
0.009663898031532375
% es.normE (V/m) @ t=0.26
11.4458586311552
% es.EX (V/m) @ t=0.26
7.26354286650478
% es.EY (V/m) @ t=0.26
2.172072626363562
% es.EZ (V/m) @ t=0.26
-7.956243193482996
% es.tEX (V/m) @ t=0.26
7.26354286650478
% es.tEY (V/m) @ t=0.26
0
% es.tEZ (V/m) @ t=0.26
-7.956243193482981
% es.Ex (V/m) @ t=0.26
7.26354286650478
% es.Ey (V/m) @ t=0.26
2.172072626363562
% es.Ez (V/m) @ t=0.26
-7.956243193482996
% es.tEx (V/m) @ t=0.26
7.26354286650478
% es.tEy (V/m) @ t=0.26
0
% es.tEz (V/m) @ t=0.26
-7.956243193482981
% V (V) @ t=0.26
0.009804178957807587
% es.normE (V/m) @ t=0.28
11.615842790557917
% es.EX (V/m) @ t=0.28
7.3714143831611505
% es.EY (V/m) @ t=0.28
2.2043283433370244
% es.EZ (V/m) @ t=0.28
-8.074402541763043
% es.tEX (V/m) @ t=0.28
7.371414383161135
% es.tEY (V/m) @ t=0.28
0
% es.tEZ (V/m) @ t=0.28
-8.074402541763028
% es.Ex (V/m) @ t=0.28
7.3714143831611505
% es.Ey (V/m) @ t=0.28
2.2043283433370244
% es.Ez (V/m) @ t=0.28
-8.074402541763043
% es.tEx (V/m) @ t=0.28
7.371414383161135
% es.tEy (V/m) @ t=0.28
0
% es.tEz (V/m) @ t=0.28
-8.074402541763028
% V (V) @ t=0.28
0.009949791575854041
% es.normE (V/m) @ t=0.3
11.794223381306924
% es.EX (V/m) @ t=0.3
7.484612764500358
% es.EY (V/m) @ t=0.3
2.238170464669825
% es.EZ (V/m) @ t=0.3
-8.198398382459942
% es.tEX (V/m) @ t=0.3
7.4846127645003335
% es.tEY (V/m) @ t=0.3
0
% es.tEZ (V/m) @ t=0.3
-8.198398382459919
% es.Ex (V/m) @ t=0.3
7.484612764500358
% es.Ey (V/m) @ t=0.3
2.238170464669825
% es.Ez (V/m) @ t=0.3
-8.198398382459942
% es.tEx (V/m) @ t=0.3
7.4846127645003335
% es.tEy (V/m) @ t=0.3
0
% es.tEz (V/m) @ t=0.3
-8.198398382459919
% V (V) @ t=0.3
0.010102627828879319
% es.normE (V/m) @ t=0.32
11.97260397207258
% es.EX (V/m) @ t=0.32
7.5978111458395325
% es.EY (V/m) @ t=0.32
2.272012586002618
% es.EZ (V/m) @ t=0.32
-8.32239422315687
% es.tEX (V/m) @ t=0.32
7.597811145839518
% es.tEY (V/m) @ t=0.32
0
% es.tEZ (V/m) @ t=0.32
-8.322394223156856
% es.Ex (V/m) @ t=0.32
7.5978111458395325
% es.Ey (V/m) @ t=0.32
2.272012586002618
% es.Ez (V/m) @ t=0.32
-8.32239422315687
% es.tEx (V/m) @ t=0.32
7.597811145839518
% es.tEy (V/m) @ t=0.32
0
% es.tEz (V/m) @ t=0.32
-8.322394223156856
% V (V) @ t=0.32
0.010255464081904598
% es.normE (V/m) @ t=0.34
12.1509845628541
% es.EX (V/m) @ t=0.34
7.711009527178723
% es.EY (V/m) @ t=0.34
2.305854707335376
% es.EZ (V/m) @ t=0.34
-8.446390063853755
% es.tEX (V/m) @ t=0.34
7.711009527178716
% es.tEY (V/m) @ t=0.34
0
% es.tEZ (V/m) @ t=0.34
-8.44639006385374
% es.Ex (V/m) @ t=0.34
7.711009527178723
% es.Ey (V/m) @ t=0.34
2.305854707335376
% es.Ez (V/m) @ t=0.34
-8.446390063853755
% es.tEx (V/m) @ t=0.34
7.711009527178716
% es.tEy (V/m) @ t=0.34
0
% es.tEz (V/m) @ t=0.34
-8.44639006385374
% V (V) @ t=0.34
0.010408300334929881
% es.normE (V/m) @ t=0.36
12.329365153650881
% es.EX (V/m) @ t=0.36
7.824207908517942
% es.EY (V/m) @ t=0.36
2.339696828668166
% es.EZ (V/m) @ t=0.36
-8.570385904550662
% es.tEX (V/m) @ t=0.36
7.82420790851792
% es.tEY (V/m) @ t=0.36
0
% es.tEZ (V/m) @ t=0.36
-8.57038590455064
% es.Ex (V/m) @ t=0.36
7.824207908517942
% es.Ey (V/m) @ t=0.36
2.339696828668166
% es.Ez (V/m) @ t=0.36
-8.570385904550662
% es.tEx (V/m) @ t=0.36
7.82420790851792
% es.tEy (V/m) @ t=0.36
0
% es.tEz (V/m) @ t=0.36
-8.57038590455064
% V (V) @ t=0.36
0.01056113658795516
% es.normE (V/m) @ t=0.38
12.507745744462175
% es.EX (V/m) @ t=0.38
7.9374062898570985
% es.EY (V/m) @ t=0.38
2.3735389500009125
% es.EZ (V/m) @ t=0.38
-8.694381745247544
% es.tEX (V/m) @ t=0.38
7.937406289857098
% es.tEY (V/m) @ t=0.38
0
% es.tEZ (V/m) @ t=0.38
-8.69438174524752
% es.Ex (V/m) @ t=0.38
7.9374062898570985
% es.Ey (V/m) @ t=0.38
2.3735389500009125
% es.Ez (V/m) @ t=0.38
-8.694381745247544
% es.tEx (V/m) @ t=0.38
7.937406289857098
% es.tEy (V/m) @ t=0.38
0
% es.tEz (V/m) @ t=0.38
-8.69438174524752
% V (V) @ t=0.38
0.010713972840980442
% es.normE (V/m) @ t=0.4
12.686126335287497
% es.EX (V/m) @ t=0.4
8.050604671196318
% es.EY (V/m) @ t=0.4
2.4073810713337274
% es.EZ (V/m) @ t=0.4
-8.818377585944472
% es.tEX (V/m) @ t=0.4
8.050604671196302
% es.tEY (V/m) @ t=0.4
0
% es.tEZ (V/m) @ t=0.4
-8.818377585944443
% es.Ex (V/m) @ t=0.4
8.050604671196318
% es.Ey (V/m) @ t=0.4
2.4073810713337274
% es.Ez (V/m) @ t=0.4
-8.818377585944472
% es.tEx (V/m) @ t=0.4
8.050604671196302
% es.tEy (V/m) @ t=0.4
0
% es.tEz (V/m) @ t=0.4
-8.818377585944443
% V (V) @ t=0.4
0.010866809094005723
% es.normE (V/m) @ t=0.42
12.874428196259093
% es.EX (V/m) @ t=0.42
8.170106430994984
% es.EY (V/m) @ t=0.42
2.4431398413698413
% es.EZ (V/m) @ t=0.42
-8.949270060333781
% es.tEX (V/m) @ t=0.42
8.170106430994949
% es.tEY (V/m) @ t=0.42
0
% es.tEZ (V/m) @ t=0.42
-8.94927006033376
% es.Ex (V/m) @ t=0.42
8.170106430994984
% es.Ey (V/m) @ t=0.42
2.4431398413698413
% es.Ez (V/m) @ t=0.42
-8.949270060333781
% es.tEx (V/m) @ t=0.42
8.170106430994949
% es.tEy (V/m) @ t=0.42
0
% es.tEz (V/m) @ t=0.42
-8.94927006033376
% V (V) @ t=0.42
0.011027990630365428
% es.normE (V/m) @ t=0.44
13.068263648314607
% es.EX (V/m) @ t=0.44
8.293123901625886
% es.EY (V/m) @ t=0.44
2.4799676226753307
% es.EZ (V/m) @ t=0.44
-9.08400913380242
% es.tEX (V/m) @ t=0.44
8.293123901625872
% es.tEY (V/m) @ t=0.44
0
% es.tEZ (V/m) @ t=0.44
-9.084009133802398
% es.Ex (V/m) @ t=0.44
8.293123901625886
% es.Ey (V/m) @ t=0.44
2.4799676226753307
% es.Ez (V/m) @ t=0.44
-9.08400913380242
% es.tEx (V/m) @ t=0.44
8.293123901625872
% es.tEy (V/m) @ t=0.44
0
% es.tEz (V/m) @ t=0.44
-9.084009133802398
% V (V) @ t=0.44
0.011193826750486184
% es.normE (V/m) @ t=0.46
13.26209910073256
% es.EX (V/m) @ t=0.46
8.416141372256817
% es.EY (V/m) @ t=0.46
2.516795403980802
% es.EZ (V/m) @ t=0.46
-9.218748207271044
% es.tEX (V/m) @ t=0.46
8.416141372256805
% es.tEY (V/m) @ t=0.46
0
% es.tEZ (V/m) @ t=0.46
-9.218748207271037
% es.Ex (V/m) @ t=0.46
8.416141372256817
% es.Ey (V/m) @ t=0.46
2.516795403980802
% es.Ez (V/m) @ t=0.46
-9.218748207271044
% es.tEx (V/m) @ t=0.46
8.416141372256805
% es.tEy (V/m) @ t=0.46
0
% es.tEz (V/m) @ t=0.46
-9.218748207271037
% V (V) @ t=0.46
0.011359662870606942
% es.normE (V/m) @ t=0.48
13.45593455349728
% es.EX (V/m) @ t=0.48
8.539158842887758
% es.EY (V/m) @ t=0.48
2.5536231852862983
% es.EZ (V/m) @ t=0.48
-9.353487280739675
% es.tEX (V/m) @ t=0.48
8.539158842887728
% es.tEY (V/m) @ t=0.48
0
% es.tEZ (V/m) @ t=0.48
-9.353487280739646
% es.Ex (V/m) @ t=0.48
8.539158842887758
% es.Ey (V/m) @ t=0.48
2.5536231852862983
% es.Ez (V/m) @ t=0.48
-9.353487280739675
% es.tEx (V/m) @ t=0.48
8.539158842887728
% es.tEy (V/m) @ t=0.48
0
% es.tEz (V/m) @ t=0.48
-9.353487280739646
% V (V) @ t=0.48
0.011525498990727698
% es.normE (V/m) @ t=0.5
13.649770006593947
% es.EX (V/m) @ t=0.5
8.662176313518668
% es.EY (V/m) @ t=0.5
2.5904509665917623
% es.EZ (V/m) @ t=0.5
-9.488226354208328
% es.tEX (V/m) @ t=0.5
8.662176313518652
% es.tEY (V/m) @ t=0.5
0
% es.tEZ (V/m) @ t=0.5
-9.488226354208313
% es.Ex (V/m) @ t=0.5
8.662176313518668
% es.Ey (V/m) @ t=0.5
2.5904509665917623
% es.Ez (V/m) @ t=0.5
-9.488226354208328
% es.tEx (V/m) @ t=0.5
8.662176313518652
% es.tEy (V/m) @ t=0.5
0
% es.tEz (V/m) @ t=0.5
-9.488226354208313
% V (V) @ t=0.5
0.011691335110848454
% es.normE (V/m) @ t=0.52
13.84360546000864
% es.EX (V/m) @ t=0.52
8.785193784149602
% es.EY (V/m) @ t=0.52
2.627278747897227
% es.EZ (V/m) @ t=0.52
-9.622965427676924
% es.tEX (V/m) @ t=0.52
8.785193784149575
% es.tEY (V/m) @ t=0.52
0
% es.tEZ (V/m) @ t=0.52
-9.622965427676908
% es.Ex (V/m) @ t=0.52
8.785193784149602
% es.Ey (V/m) @ t=0.52
2.627278747897227
% es.Ez (V/m) @ t=0.52
-9.622965427676924
% es.tEx (V/m) @ t=0.52
8.785193784149575
% es.tEy (V/m) @ t=0.52
0
% es.tEz (V/m) @ t=0.52
-9.622965427676908
% V (V) @ t=0.52
0.011857171230969209
% es.normE (V/m) @ t=0.54
14.037440913728204
% es.EX (V/m) @ t=0.54
8.908211254780515
% es.EY (V/m) @ t=0.54
2.664106529202744
% es.EZ (V/m) @ t=0.54
-9.757704501145568
% es.tEX (V/m) @ t=0.54
8.908211254780493
% es.tEY (V/m) @ t=0.54
0
% es.tEZ (V/m) @ t=0.54
-9.757704501145547
% es.Ex (V/m) @ t=0.54
8.908211254780515
% es.Ey (V/m) @ t=0.54
2.664106529202744
% es.Ez (V/m) @ t=0.54
-9.757704501145568
% es.tEx (V/m) @ t=0.54
8.908211254780493
% es.tEy (V/m) @ t=0.54
0
% es.tEz (V/m) @ t=0.54
-9.757704501145547
% V (V) @ t=0.54
0.012023007351089968
% es.normE (V/m) @ t=0.56
14.237750743390272
% es.EX (V/m) @ t=0.56
9.035332811203574
% es.EY (V/m) @ t=0.56
2.702141917054865
% es.EZ (V/m) @ t=0.56
-9.896943941848694
% es.tEX (V/m) @ t=0.56
9.035332811203542
% es.tEY (V/m) @ t=0.56
0
% es.tEZ (V/m) @ t=0.56
-9.896943941848672
% es.Ex (V/m) @ t=0.56
9.035332811203574
% es.Ey (V/m) @ t=0.56
2.702141917054865
% es.Ez (V/m) @ t=0.56
-9.896943941848694
% es.tEx (V/m) @ t=0.56
9.035332811203542
% es.tEy (V/m) @ t=0.56
0
% es.tEz (V/m) @ t=0.56
-9.896943941848672
% V (V) @ t=0.56
0.0121944841483435
% es.normE (V/m) @ t=0.58
14.440954349540851
% es.EX (V/m) @ t=0.58
9.164288723149843
% es.EY (V/m) @ t=0.58
2.7407170547687363
% es.EZ (V/m) @ t=0.58
-10.038194859385195
% es.tEX (V/m) @ t=0.58
9.164288723149838
% es.tEY (V/m) @ t=0.58
0
% es.tEZ (V/m) @ t=0.58
-10.038194859385165
% es.Ex (V/m) @ t=0.58
9.164288723149843
% es.Ey (V/m) @ t=0.58
2.7407170547687363
% es.Ez (V/m) @ t=0.58
-10.038194859385195
% es.tEx (V/m) @ t=0.58
9.164288723149838
% es.tEy (V/m) @ t=0.58
0
% es.tEz (V/m) @ t=0.58
-10.038194859385165
% V (V) @ t=0.58
0.012368482093491446
% es.normE (V/m) @ t=0.6
14.646129949452007
% es.EX (V/m) @ t=0.6
9.294494675558976
% es.EY (V/m) @ t=0.6
2.77966001058456
% es.EZ (V/m) @ t=0.6
-10.180816518525383
% es.tEX (V/m) @ t=0.6
9.294494675558948
% es.tEY (V/m) @ t=0.6
0
% es.tEZ (V/m) @ t=0.6
-10.180816518525361
% es.Ex (V/m) @ t=0.6
9.294494675558976
% es.Ey (V/m) @ t=0.6
2.77966001058456
% es.Ez (V/m) @ t=0.6
-10.180816518525383
% es.tEx (V/m) @ t=0.6
9.294494675558948
% es.tEy (V/m) @ t=0.6
0
% es.tEz (V/m) @ t=0.6
-10.180816518525361
% V (V) @ t=0.6
0.012544198100836583
% es.normE (V/m) @ t=0.62
14.85327754311318
% es.EX (V/m) @ t=0.62
9.425950668430826
% es.EY (V/m) @ t=0.62
2.818970784502397
% es.EZ (V/m) @ t=0.62
-10.324808919269316
% es.tEX (V/m) @ t=0.62
9.425950668430806
% es.tEY (V/m) @ t=0.62
0
% es.tEZ (V/m) @ t=0.62
-10.324808919269302
% es.Ex (V/m) @ t=0.62
9.425950668430826
% es.Ey (V/m) @ t=0.62
2.818970784502397
% es.Ez (V/m) @ t=0.62
-10.324808919269316
% es.tEx (V/m) @ t=0.62
9.425950668430806
% es.tEy (V/m) @ t=0.62
0
% es.tEz (V/m) @ t=0.62
-10.324808919269302
% V (V) @ t=0.62
0.012721632170378916
% es.normE (V/m) @ t=0.64
15.062397130535093
% es.EX (V/m) @ t=0.64
9.558656701765475
% es.EY (V/m) @ t=0.64
2.858649376522179
% es.EZ (V/m) @ t=0.64
-10.470172061616978
% es.tEX (V/m) @ t=0.64
9.558656701765454
% es.tEY (V/m) @ t=0.64
0
% es.tEZ (V/m) @ t=0.64
-10.47017206161695
% es.Ex (V/m) @ t=0.64
9.558656701765475
% es.Ey (V/m) @ t=0.64
2.858649376522179
% es.Ez (V/m) @ t=0.64
-10.470172061616978
% es.tEx (V/m) @ t=0.64
9.558656701765454
% es.tEy (V/m) @ t=0.64
0
% es.tEz (V/m) @ t=0.64
-10.47017206161695
% V (V) @ t=0.64
0.012900784302118447
% es.normE (V/m) @ t=0.66
15.273488711748115
% es.EX (V/m) @ t=0.66
9.692612775562946
% es.EY (V/m) @ t=0.66
2.898695786643953
% es.EZ (V/m) @ t=0.66
-10.616905945568352
% es.tEX (V/m) @ t=0.66
9.692612775562928
% es.tEY (V/m) @ t=0.66
0
% es.tEZ (V/m) @ t=0.66
-10.616905945568336
% es.Ex (V/m) @ t=0.66
9.692612775562946
% es.Ey (V/m) @ t=0.66
2.898695786643953
% es.Ez (V/m) @ t=0.66
-10.616905945568352
% es.tEx (V/m) @ t=0.66
9.692612775562928
% es.tEy (V/m) @ t=0.66
0
% es.tEz (V/m) @ t=0.66
-10.616905945568336
% V (V) @ t=0.66
0.013081654496055167
% es.normE (V/m) @ t=0.68
15.486552286801018
% es.EX (V/m) @ t=0.68
9.827818889823185
% es.EY (V/m) @ t=0.68
2.939110014867754
% es.EZ (V/m) @ t=0.68
-10.76501057112343
% es.tEX (V/m) @ t=0.68
9.827818889823165
% es.tEY (V/m) @ t=0.68
0
% es.tEZ (V/m) @ t=0.68
-10.765010571123423
% es.Ex (V/m) @ t=0.68
9.827818889823185
% es.Ey (V/m) @ t=0.68
2.939110014867754
% es.Ez (V/m) @ t=0.68
-10.76501057112343
% es.tEx (V/m) @ t=0.68
9.827818889823165
% es.tEy (V/m) @ t=0.68
0
% es.tEz (V/m) @ t=0.68
-10.765010571123423
% V (V) @ t=0.68
0.013264242752189086
% es.normE (V/m) @ t=0.7
15.70158785575967
% es.EX (V/m) @ t=0.7
9.964275044546227
% es.EY (V/m) @ t=0.7
2.979892061193504
% es.EZ (V/m) @ t=0.7
-10.914485938282219
% es.tEX (V/m) @ t=0.7
9.9642750445462
% es.tEY (V/m) @ t=0.7
0
% es.tEZ (V/m) @ t=0.7
-10.91448593828219
% es.Ex (V/m) @ t=0.7
9.964275044546227
% es.Ey (V/m) @ t=0.7
2.979892061193504
% es.Ez (V/m) @ t=0.7
-10.914485938282219
% es.tEx (V/m) @ t=0.7
9.9642750445462
% es.tEy (V/m) @ t=0.7
0
% es.tEz (V/m) @ t=0.7
-10.91448593828219
% V (V) @ t=0.7
0.013448549070520194
% es.normE (V/m) @ t=0.72
15.918595418705744
% es.EX (V/m) @ t=0.72
10.101981239732051
% es.EY (V/m) @ t=0.72
3.0210419256212173
% es.EZ (V/m) @ t=0.72
-11.065332047044759
% es.tEX (V/m) @ t=0.72
10.101981239732034
% es.tEY (V/m) @ t=0.72
0
% es.tEZ (V/m) @ t=0.72
-11.065332047044738
% es.Ex (V/m) @ t=0.72
10.101981239732051
% es.Ey (V/m) @ t=0.72
3.0210419256212173
% es.Ez (V/m) @ t=0.72
-11.065332047044759
% es.tEx (V/m) @ t=0.72
10.101981239732034
% es.tEy (V/m) @ t=0.72
0
% es.tEz (V/m) @ t=0.72
-11.065332047044738
% V (V) @ t=0.72
0.013634573451048501
% es.normE (V/m) @ t=0.74
16.137574975735617
% es.EX (V/m) @ t=0.74
10.240937475380647
% es.EY (V/m) @ t=0.74
3.0625596081510067
% es.EZ (V/m) @ t=0.74
-11.21754889741103
% es.tEX (V/m) @ t=0.74
10.240937475380623
% es.tEY (V/m) @ t=0.74
0
% es.tEZ (V/m) @ t=0.74
-11.217548897411
% es.Ex (V/m) @ t=0.74
10.240937475380647
% es.Ey (V/m) @ t=0.74
3.0625596081510067
% es.Ez (V/m) @ t=0.74
-11.21754889741103
% es.tEx (V/m) @ t=0.74
10.240937475380623
% es.tEy (V/m) @ t=0.74
0
% es.tEz (V/m) @ t=0.74
-11.217548897411
% V (V) @ t=0.74
0.013822315893774001
% es.normE (V/m) @ t=0.76
16.358526526959267
% es.EX (V/m) @ t=0.76
10.381143751492056
% es.EY (V/m) @ t=0.76
3.104445108782728
% es.EZ (V/m) @ t=0.76
-11.371136489381001
% es.tEX (V/m) @ t=0.76
10.381143751492022
% es.tEY (V/m) @ t=0.76
0
% es.tEZ (V/m) @ t=0.76
-11.371136489380971
% es.Ex (V/m) @ t=0.76
10.381143751492056
% es.Ey (V/m) @ t=0.76
3.104445108782728
% es.Ez (V/m) @ t=0.76
-11.371136489381001
% es.tEx (V/m) @ t=0.76
10.381143751492022
% es.tEy (V/m) @ t=0.76
0
% es.tEz (V/m) @ t=0.76
-11.371136489380971
% V (V) @ t=0.76
0.014011776398696697
% es.normE (V/m) @ t=0.78
16.581450072499205
% es.EX (V/m) @ t=0.78
10.522600068066257
% es.EY (V/m) @ t=0.78
3.1466984275164376
% es.EZ (V/m) @ t=0.78
-11.526094822954667
% es.tEX (V/m) @ t=0.78
10.522600068066229
% es.tEY (V/m) @ t=0.78
0
% es.tEZ (V/m) @ t=0.78
-11.526094822954636
% es.Ex (V/m) @ t=0.78
10.522600068066257
% es.Ey (V/m) @ t=0.78
3.1466984275164376
% es.Ez (V/m) @ t=0.78
-11.526094822954667
% es.tEx (V/m) @ t=0.78
10.522600068066229
% es.tEy (V/m) @ t=0.78
0
% es.tEz (V/m) @ t=0.78
-11.526094822954636
% V (V) @ t=0.78
0.014202954965816587
% es.normE (V/m) @ t=0.8
16.806345612489608
% es.EX (V/m) @ t=0.8
10.665306425103223
% es.EY (V/m) @ t=0.8
3.189319564352095
% es.EZ (V/m) @ t=0.8
-11.682423898132077
% es.tEX (V/m) @ t=0.8
10.665306425103218
% es.tEY (V/m) @ t=0.8
0
% es.tEZ (V/m) @ t=0.8
-11.682423898132047
% es.Ex (V/m) @ t=0.8
10.665306425103223
% es.Ey (V/m) @ t=0.8
3.189319564352095
% es.Ez (V/m) @ t=0.8
-11.682423898132077
% es.tEx (V/m) @ t=0.8
10.665306425103218
% es.tEy (V/m) @ t=0.8
0
% es.tEz (V/m) @ t=0.8
-11.682423898132047
% V (V) @ t=0.8
0.014395851595133666
% es.normE (V/m) @ t=0.82
17.034271928717434
% es.EX (V/m) @ t=0.82
10.809938680853577
% es.EY (V/m) @ t=0.82
3.2325277097413805
% es.EZ (V/m) @ t=0.82
-11.840859782362237
% es.tEX (V/m) @ t=0.82
10.80993868085356
% es.tEY (V/m) @ t=0.82
0
% es.tEZ (V/m) @ t=0.82
-11.840859782362223
% es.Ex (V/m) @ t=0.82
10.809938680853577
% es.Ey (V/m) @ t=0.82
3.2325277097413805
% es.Ez (V/m) @ t=0.82
-11.840859782362237
% es.tEx (V/m) @ t=0.82
10.80993868085356
% es.tEy (V/m) @ t=0.82
0
% es.tEz (V/m) @ t=0.82
-11.840859782362223
% V (V) @ t=0.82
0.014591290767620807
% es.normE (V/m) @ t=0.84
17.26705112161499
% es.EX (V/m) @ t=0.84
10.957659947476076
% es.EY (V/m) @ t=0.84
3.2767000775144446
% es.EZ (V/m) @ t=0.84
-12.002669204281137
% es.tEX (V/m) @ t=0.84
10.957659947476056
% es.tEY (V/m) @ t=0.84
0
% es.tEZ (V/m) @ t=0.84
-12.002669204281109
% es.Ex (V/m) @ t=0.84
10.957659947476076
% es.Ey (V/m) @ t=0.84
3.2767000775144446
% es.Ez (V/m) @ t=0.84
-12.002669204281137
% es.tEx (V/m) @ t=0.84
10.957659947476056
% es.tEy (V/m) @ t=0.84
0
% es.tEz (V/m) @ t=0.84
-12.002669204281109
% V (V) @ t=0.84
0.01479069136636997
% es.normE (V/m) @ t=0.86
17.50232229037571
% es.EX (V/m) @ t=0.86
11.106963177541145
% es.EY (V/m) @ t=0.86
3.3213479107367654
% es.EZ (V/m) @ t=0.86
-12.166210860322042
% es.tEX (V/m) @ t=0.86
11.106963177541125
% es.tEY (V/m) @ t=0.86
0
% es.tEZ (V/m) @ t=0.86
-12.166210860322012
% es.Ex (V/m) @ t=0.86
11.106963177541145
% es.Ey (V/m) @ t=0.86
3.3213479107367654
% es.Ez (V/m) @ t=0.86
-12.166210860322042
% es.tEx (V/m) @ t=0.86
11.106963177541125
% es.tEy (V/m) @ t=0.86
0
% es.tEz (V/m) @ t=0.86
-12.166210860322012
% V (V) @ t=0.86
0.014992214940892557
% es.normE (V/m) @ t=0.88
17.740085435000946
% es.EX (V/m) @ t=0.88
11.257848371048704
% es.EY (V/m) @ t=0.88
3.3664712094084175
% es.EZ (V/m) @ t=0.88
-12.3314847504849
% es.tEX (V/m) @ t=0.88
11.257848371048677
% es.tEY (V/m) @ t=0.88
0
% es.tEZ (V/m) @ t=0.88
-12.331484750484858
% es.Ex (V/m) @ t=0.88
11.257848371048704
% es.Ey (V/m) @ t=0.88
3.3664712094084175
% es.Ez (V/m) @ t=0.88
-12.3314847504849
% es.tEx (V/m) @ t=0.88
11.257848371048677
% es.tEy (V/m) @ t=0.88
0
% es.tEz (V/m) @ t=0.88
-12.331484750484858
% V (V) @ t=0.88
0.015195861491188581
% es.normE (V/m) @ t=0.9
17.980340555494998
% es.EX (V/m) @ t=0.9
11.410315527998842
% es.EY (V/m) @ t=0.9
3.412069973529343
% es.EZ (V/m) @ t=0.9
-12.498490874769821
% es.tEX (V/m) @ t=0.9
11.410315527998822
% es.tEY (V/m) @ t=0.9
0
% es.tEZ (V/m) @ t=0.9
-12.498490874769793
% es.Ex (V/m) @ t=0.9
11.410315527998842
% es.Ey (V/m) @ t=0.9
3.412069973529343
% es.Ez (V/m) @ t=0.9
-12.498490874769821
% es.tEx (V/m) @ t=0.9
11.410315527998822
% es.tEy (V/m) @ t=0.9
0
% es.tEz (V/m) @ t=0.9
-12.498490874769793
% V (V) @ t=0.9
0.015401631017258024
% es.normE (V/m) @ t=0.92
18.223087651864383
% es.EX (V/m) @ t=0.92
11.56436464839153
% es.EY (V/m) @ t=0.92
3.4581442030995557
% es.EZ (V/m) @ t=0.92
-12.6672292331767
% es.tEX (V/m) @ t=0.92
11.56436464839149
% es.tEY (V/m) @ t=0.92
0
% es.tEZ (V/m) @ t=0.92
-12.667229233176672
% es.Ex (V/m) @ t=0.92
11.56436464839153
% es.Ey (V/m) @ t=0.92
3.4581442030995557
% es.Ez (V/m) @ t=0.92
-12.6672292331767
% es.tEx (V/m) @ t=0.92
11.56436464839149
% es.tEy (V/m) @ t=0.92
0
% es.tEz (V/m) @ t=0.92
-12.667229233176672
% V (V) @ t=0.92
0.015609523519100903
% es.normE (V/m) @ t=0.94
18.468326724118093
% es.EX (V/m) @ t=0.94
11.719995732226748
% es.EY (V/m) @ t=0.94
3.504693898119049
% es.EZ (V/m) @ t=0.94
-12.83769982570561
% es.tEX (V/m) @ t=0.94
11.7199957322267
% es.tEY (V/m) @ t=0.94
0
% es.tEZ (V/m) @ t=0.94
-12.837699825705567
% es.Ex (V/m) @ t=0.94
11.719995732226748
% es.Ey (V/m) @ t=0.94
3.504693898119049
% es.Ez (V/m) @ t=0.94
-12.83769982570561
% es.tEx (V/m) @ t=0.94
11.7199957322267
% es.tEy (V/m) @ t=0.94
0
% es.tEz (V/m) @ t=0.94
-12.837699825705567
% V (V) @ t=0.94
0.01581953899671721
% es.normE (V/m) @ t=0.96
18.71605777226719
% es.EX (V/m) @ t=0.96
11.877208779504468
% es.EY (V/m) @ t=0.96
3.5517190585878424
% es.EZ (V/m) @ t=0.96
-13.009902652356491
% es.tEX (V/m) @ t=0.96
11.877208779504446
% es.tEY (V/m) @ t=0.96
0
% es.tEZ (V/m) @ t=0.96
-13.009902652356462
% es.Ex (V/m) @ t=0.96
11.877208779504468
% es.Ey (V/m) @ t=0.96
3.5517190585878424
% es.Ez (V/m) @ t=0.96
-13.009902652356491
% es.tEx (V/m) @ t=0.96
11.877208779504446
% es.tEy (V/m) @ t=0.96
0
% es.tEz (V/m) @ t=0.96
-13.009902652356462
% V (V) @ t=0.96
0.016031677450106935
% es.normE (V/m) @ t=0.98
18.966280796324906
% es.EX (V/m) @ t=0.98
12.036003790224758
% es.EY (V/m) @ t=0.98
3.599219684506016
% es.EZ (V/m) @ t=0.98
-13.183837713129428
% es.tEX (V/m) @ t=0.98
12.036003790224724
% es.tEY (V/m) @ t=0.98
0
% es.tEZ (V/m) @ t=0.98
-13.183837713129412
% es.Ex (V/m) @ t=0.98
12.036003790224758
% es.Ey (V/m) @ t=0.98
3.599219684506016
% es.Ez (V/m) @ t=0.98
-13.183837713129428
% es.tEx (V/m) @ t=0.98
12.036003790224724
% es.tEy (V/m) @ t=0.98
0
% es.tEz (V/m) @ t=0.98
-13.183837713129412
% V (V) @ t=0.98
0.0162459388792701
% es.normE (V/m) @ t=1
19.218995796306125
% es.EX (V/m) @ t=1
12.19638076438757
% es.EY (V/m) @ t=1
3.6471957758734064
% es.EZ (V/m) @ t=1
-13.359505008024332
% es.tEX (V/m) @ t=1
12.196380764387555
% es.tEY (V/m) @ t=1
0
% es.tEZ (V/m) @ t=1
-13.359505008024318
% es.Ex (V/m) @ t=1
12.19638076438757
% es.Ey (V/m) @ t=1
3.6471957758734064
% es.Ez (V/m) @ t=1
-13.359505008024332
% es.tEx (V/m) @ t=1
12.196380764387555
% es.tEy (V/m) @ t=1
0
% es.tEz (V/m) @ t=1
-13.359505008024318
% V (V) @ t=1
0.016462323284206683
% es.normE (V/m) @ t=1.02
19.474202772227613
% es.EX (V/m) @ t=1.02
12.358339701992934
% es.EY (V/m) @ t=1.02
3.6956473326900756
% es.EZ (V/m) @ t=1.02
-13.536904537041256
% es.tEX (V/m) @ t=1.02
12.35833970199291
% es.tEY (V/m) @ t=1.02
0
% es.tEZ (V/m) @ t=1.02
-13.536904537041227
% es.Ex (V/m) @ t=1.02
12.358339701992934
% es.Ey (V/m) @ t=1.02
3.6956473326900756
% es.Ez (V/m) @ t=1.02
-13.536904537041256
% es.tEx (V/m) @ t=1.02
12.35833970199291
% es.tEy (V/m) @ t=1.02
0
% es.tEz (V/m) @ t=1.02
-13.536904537041227
% V (V) @ t=1.02
0.016680830664916702
% es.normE (V/m) @ t=1.04
19.73190172410763
% es.EX (V/m) @ t=1.04
12.52188060304083
% es.EY (V/m) @ t=1.04
3.744574354956005
% es.EZ (V/m) @ t=1.04
-13.716036300180185
% es.tEX (V/m) @ t=1.04
12.521880603040806
% es.tEY (V/m) @ t=1.04
0
% es.tEZ (V/m) @ t=1.04
-13.716036300180157
% es.Ex (V/m) @ t=1.04
12.52188060304083
% es.Ey (V/m) @ t=1.04
3.744574354956005
% es.Ez (V/m) @ t=1.04
-13.716036300180185
% es.tEx (V/m) @ t=1.04
12.521880603040806
% es.tEy (V/m) @ t=1.04
0
% es.tEz (V/m) @ t=1.04
-13.716036300180157
% V (V) @ t=1.04
0.01690146102140015