% Model:              1 neuron.mph
% Version:            COMSOL 6.0.0.405
% Date:               Mar 16 2023, 19:25
% Dimension:          0
% Nodes:              14017
% Expressions:        14017
% Description:        Electric field norm, Electric field, X component, Electric field, Y component, Electric field, Z component, Tangential electric field, X component, Tangential electric field, Y component, Tangential electric field, Z component, Electric field, x component, Electric field, y component, Electric field, z component, Tangential electric field, x component, Tangential electric field, y component, Tangential electric field, z component, Electric potential
% Length unit:        mm
% x
1.3300000000000003
% y
12.200000000000001
% z
1.66
% es.normE (V/m) @ t=0
10.966503024095235
% es.EX (V/m) @ t=0
6.9593375520060885
% es.EY (V/m) @ t=0
2.0810849477192064
% es.EZ (V/m) @ t=0
-7.623034746172617
% es.tEX (V/m) @ t=0
6.959337552006081
% es.tEY (V/m) @ t=0
0
% es.tEZ (V/m) @ t=0
-7.6230347461725945
% es.Ex (V/m) @ t=0
6.9593375520060885
% es.Ey (V/m) @ t=0
2.0810849477192064
% es.Ez (V/m) @ t=0
-7.623034746172617
% es.tEx (V/m) @ t=0
6.959337552006081
% es.tEy (V/m) @ t=0
0
% es.tEz (V/m) @ t=0
-7.6230347461725945
% V (V) @ t=0
0.009393672393847152
% es.normE (V/m) @ t=0.02
9.524501559251437
% es.EX (V/m) @ t=0.02
6.044244199551247
% es.EY (V/m) @ t=0.02
1.807440090091096
% es.EZ (V/m) @ t=0.02
-6.62067072376168
% es.tEX (V/m) @ t=0.02
6.044244199551233
% es.tEY (V/m) @ t=0.02
0
% es.tEZ (V/m) @ t=0.02
-6.620670723761665
% es.Ex (V/m) @ t=0.02
6.044244199551247
% es.Ey (V/m) @ t=0.02
1.807440090091096
% es.Ez (V/m) @ t=0.02
-6.62067072376168
% es.tEx (V/m) @ t=0.02
6.044244199551233
% es.tEy (V/m) @ t=0.02
0
% es.tEz (V/m) @ t=0.02
-6.620670723761665
% V (V) @ t=0.02
0.008158484453942863
% es.normE (V/m) @ t=0.04
9.665733293345276
% es.EX (V/m) @ t=0.04
6.133869974245329
% es.EY (V/m) @ t=0.04
1.8342413466671177
% es.EZ (V/m) @ t=0.04
-6.718843554913947
% es.tEX (V/m) @ t=0.04
6.1338699742453215
% es.tEY (V/m) @ t=0.04
0
% es.tEZ (V/m) @ t=0.04
-6.718843554913932
% es.Ex (V/m) @ t=0.04
6.133869974245329
% es.Ey (V/m) @ t=0.04
1.8342413466671177
% es.Ez (V/m) @ t=0.04
-6.718843554913947
% es.tEx (V/m) @ t=0.04
6.1338699742453215
% es.tEy (V/m) @ t=0.04
0
% es.tEz (V/m) @ t=0.04
-6.718843554913932
% V (V) @ t=0.04
0.008279459959614727
% es.normE (V/m) @ t=0.06
9.809123570926749
% es.EX (V/m) @ t=0.06
6.224865100436542
% es.EY (V/m) @ t=0.06
1.861452038236191
% es.EZ (V/m) @ t=0.06
-6.818517234021771
% es.tEX (V/m) @ t=0.06
6.224865100436527
% es.tEY (V/m) @ t=0.06
0
% es.tEZ (V/m) @ t=0.06
-6.818517234021757
% es.Ex (V/m) @ t=0.06
6.224865100436542
% es.Ey (V/m) @ t=0.06
1.861452038236191
% es.Ez (V/m) @ t=0.06
-6.818517234021771
% es.tEx (V/m) @ t=0.06
6.224865100436527
% es.tEy (V/m) @ t=0.06
0
% es.tEz (V/m) @ t=0.06
-6.818517234021757
% V (V) @ t=0.06
0.008402285886163305
% es.normE (V/m) @ t=0.08
9.95608031441503
% es.EX (V/m) @ t=0.08
6.31812377246682
% es.EY (V/m) @ t=0.08
1.8893396369805195
% es.EZ (V/m) @ t=0.08
-6.9206698003165
% es.tEX (V/m) @ t=0.08
6.318123772466805
% es.tEY (V/m) @ t=0.08
0
% es.tEZ (V/m) @ t=0.08
-6.920669800316485
% es.Ex (V/m) @ t=0.08
6.31812377246682
% es.Ey (V/m) @ t=0.08
1.8893396369805195
% es.Ez (V/m) @ t=0.08
-6.9206698003165
% es.tEx (V/m) @ t=0.08
6.318123772466805
% es.tEy (V/m) @ t=0.08
0
% es.tEz (V/m) @ t=0.08
-6.920669800316485
% V (V) @ t=0.08
0.008528165917112536
% es.normE (V/m) @ t=0.1
10.105712400312846
% es.EX (V/m) @ t=0.1
6.413080416758021
% es.EY (V/m) @ t=0.1
1.9177350096726613
% es.EZ (V/m) @ t=0.1
-7.024681874648817
% es.tEX (V/m) @ t=0.1
6.413080416758006
% es.tEY (V/m) @ t=0.1
0
% es.tEZ (V/m) @ t=0.1
-7.0246818746488024
% es.Ex (V/m) @ t=0.1
6.413080416758021
% es.Ey (V/m) @ t=0.1
1.9177350096726613
% es.Ez (V/m) @ t=0.1
-7.024681874648817
% es.tEx (V/m) @ t=0.1
6.413080416758006
% es.tEy (V/m) @ t=0.1
0
% es.tEz (V/m) @ t=0.1
-7.0246818746488024
% V (V) @ t=0.1
0.008656336948519819
% es.normE (V/m) @ t=0.12
10.25534448621065
% es.EX (V/m) @ t=0.12
6.508037061049215
% es.EY (V/m) @ t=0.12
1.9461303823647884
% es.EZ (V/m) @ t=0.12
-7.128693948981098
% es.tEX (V/m) @ t=0.12
6.508037061049205
% es.tEY (V/m) @ t=0.12
0
% es.tEZ (V/m) @ t=0.12
-7.128693948981083
% es.Ex (V/m) @ t=0.12
6.508037061049215
% es.Ey (V/m) @ t=0.12
1.9461303823647884
% es.Ez (V/m) @ t=0.12
-7.128693948981098
% es.tEx (V/m) @ t=0.12
6.508037061049205
% es.tEy (V/m) @ t=0.12
0
% es.tEz (V/m) @ t=0.12
-7.128693948981083
% V (V) @ t=0.12
0.008784507979927102
% es.normE (V/m) @ t=0.14
10.40703871098125
% es.EX (V/m) @ t=0.14
6.604304286309919
% es.EY (V/m) @ t=0.14
1.974917867877986
% es.EZ (V/m) @ t=0.14
-7.2341377551777155
% es.tEX (V/m) @ t=0.14
6.604304286309901
% es.tEY (V/m) @ t=0.14
0
% es.tEZ (V/m) @ t=0.14
-7.2341377551777
% es.Ex (V/m) @ t=0.14
6.604304286309919
% es.Ey (V/m) @ t=0.14
1.974917867877986
% es.Ez (V/m) @ t=0.14
-7.2341377551777155
% es.tEx (V/m) @ t=0.14
6.604304286309901
% es.tEy (V/m) @ t=0.14
0
% es.tEz (V/m) @ t=0.14
-7.2341377551777
% V (V) @ t=0.14
0.008914439191976419
% es.normE (V/m) @ t=0.16
10.570168032512782
% es.EX (V/m) @ t=0.16
6.707839024138446
% es.EY (V/m) @ t=0.16
2.0058797210352854
% es.EZ (V/m) @ t=0.16
-7.347520887184631
% es.tEX (V/m) @ t=0.16
6.707839024138434
% es.tEY (V/m) @ t=0.16
0
% es.tEZ (V/m) @ t=0.16
-7.347520887184623
% es.Ex (V/m) @ t=0.16
6.707839024138446
% es.Ey (V/m) @ t=0.16
2.0058797210352854
% es.Ez (V/m) @ t=0.16
-7.347520887184631
% es.tEx (V/m) @ t=0.16
6.707839024138434
% es.tEy (V/m) @ t=0.16
0
% es.tEz (V/m) @ t=0.16
-7.347520887184623
% V (V) @ t=0.16
0.009054131063790511
% es.normE (V/m) @ t=0.18
10.73329735407599
% es.EX (V/m) @ t=0.18
6.81137376196696
% es.EY (V/m) @ t=0.18
2.036841574192649
% es.EZ (V/m) @ t=0.18
-7.4609040191915454
% es.tEX (V/m) @ t=0.18
6.811373761966939
% es.tEY (V/m) @ t=0.18
0
% es.tEZ (V/m) @ t=0.18
-7.46090401919153
% es.Ex (V/m) @ t=0.18
6.81137376196696
% es.Ey (V/m) @ t=0.18
2.036841574192649
% es.Ez (V/m) @ t=0.18
-7.4609040191915454
% es.tEx (V/m) @ t=0.18
6.811373761966939
% es.tEy (V/m) @ t=0.18
0
% es.tEz (V/m) @ t=0.18
-7.46090401919153
% V (V) @ t=0.18
0.009193822935604603
% es.normE (V/m) @ t=0.2
10.896426675669487
% es.EX (V/m) @ t=0.2
6.9149084997955015
% es.EY (V/m) @ t=0.2
2.06780342734997
% es.EZ (V/m) @ t=0.2
-7.574287151198488
% es.tEX (V/m) @ t=0.2
6.9149084997954935
% es.tEY (V/m) @ t=0.2
0
% es.tEZ (V/m) @ t=0.2
-7.574287151198473
% es.Ex (V/m) @ t=0.2
6.9149084997955015
% es.Ey (V/m) @ t=0.2
2.06780342734997
% es.Ez (V/m) @ t=0.2
-7.574287151198488
% es.tEx (V/m) @ t=0.2
6.9149084997954935
% es.tEy (V/m) @ t=0.2
0
% es.tEz (V/m) @ t=0.2
-7.574287151198473
% V (V) @ t=0.2
0.009333514807418695
% es.normE (V/m) @ t=0.22
11.059555997291863
% es.EX (V/m) @ t=0.22
7.018443237624005
% es.EY (V/m) @ t=0.22
2.0987652805073127
% es.EZ (V/m) @ t=0.22
-7.687670283205417
% es.tEX (V/m) @ t=0.22
7.01844323762399
% es.tEY (V/m) @ t=0.22
0
% es.tEZ (V/m) @ t=0.22
-7.687670283205388
% es.Ex (V/m) @ t=0.22
7.018443237624005
% es.Ey (V/m) @ t=0.22
2.0987652805073127
% es.Ez (V/m) @ t=0.22
-7.687670283205417
% es.tEx (V/m) @ t=0.22
7.01844323762399
% es.tEy (V/m) @ t=0.22
0
% es.tEz (V/m) @ t=0.22
-7.687670283205388
% V (V) @ t=0.22
0.009473206679232788
% es.normE (V/m) @ t=0.24
11.222685318941895
% es.EX (V/m) @ t=0.24
7.1219779754525465
% es.EY (V/m) @ t=0.24
2.12972713366464
% es.EZ (V/m) @ t=0.24
-7.801053415212328
% es.tEX (V/m) @ t=0.24
7.121977975452524
% es.tEY (V/m) @ t=0.24
0
% es.tEZ (V/m) @ t=0.24
-7.801053415212314
% es.Ex (V/m) @ t=0.24
7.1219779754525465
% es.Ey (V/m) @ t=0.24
2.12972713366464
% es.Ez (V/m) @ t=0.24
-7.801053415212328
% es.tEx (V/m) @ t=0.24
7.121977975452524
% es.tEy (V/m) @ t=0.24
0
% es.tEz (V/m) @ t=0.24
-7.801053415212314
% V (V) @ t=0.24
0.009612898551046882
% es.normE (V/m) @ t=0.26
11.385814640618399
% es.EX (V/m) @ t=0.26
7.225512713281058
% es.EY (V/m) @ t=0.26
2.1606889868219827
% es.EZ (V/m) @ t=0.26
-7.91443654721926
% es.tEX (V/m) @ t=0.26
7.225512713281043
% es.tEY (V/m) @ t=0.26
0
% es.tEZ (V/m) @ t=0.26
-7.914436547219246
% es.Ex (V/m) @ t=0.26
7.225512713281058
% es.Ey (V/m) @ t=0.26
2.1606889868219827
% es.Ez (V/m) @ t=0.26
-7.91443654721926
% es.tEx (V/m) @ t=0.26
7.225512713281043
% es.tEy (V/m) @ t=0.26
0
% es.tEz (V/m) @ t=0.26
-7.914436547219246
% V (V) @ t=0.26
0.009752590422860974
% es.normE (V/m) @ t=0.28
11.553610979390438
% es.EX (V/m) @ t=0.28
7.331990863326382
% es.EY (V/m) @ t=0.28
2.192529125472837
% es.EZ (V/m) @ t=0.28
-8.031079774563125
% es.tEX (V/m) @ t=0.28
7.331990863326374
% es.tEY (V/m) @ t=0.28
0
% es.tEZ (V/m) @ t=0.28
-8.031079774563104
% es.Ex (V/m) @ t=0.28
7.331990863326382
% es.Ey (V/m) @ t=0.28
2.192529125472837
% es.Ez (V/m) @ t=0.28
-8.031079774563125
% es.tEx (V/m) @ t=0.28
7.331990863326374
% es.tEy (V/m) @ t=0.28
0
% es.tEz (V/m) @ t=0.28
-8.031079774563104
% V (V) @ t=0.28
0.00989633816643415
% es.normE (V/m) @ t=0.3
11.731528995833841
% es.EX (V/m) @ t=0.3
7.444852591685047
% es.EY (V/m) @ t=0.3
2.2262740616228007
% es.EZ (V/m) @ t=0.3
-8.154793392446681
% es.tEX (V/m) @ t=0.3
7.4448525916850175
% es.tEY (V/m) @ t=0.3
0
% es.tEZ (V/m) @ t=0.3
-8.154793392446665
% es.Ex (V/m) @ t=0.3
7.444852591685047
% es.Ey (V/m) @ t=0.3
2.2262740616228007
% es.Ez (V/m) @ t=0.3
-8.154793392446681
% es.tEx (V/m) @ t=0.3
7.4448525916850175
% es.tEy (V/m) @ t=0.3
0
% es.tEz (V/m) @ t=0.3
-8.154793392446665
% V (V) @ t=0.3
0.010048882155010035
% es.normE (V/m) @ t=0.32
11.909447012641476
% es.EX (V/m) @ t=0.32
7.55771432004371
% es.EY (V/m) @ t=0.32
2.260018997772736
% es.EZ (V/m) @ t=0.32
-8.278507010330273
% es.tEX (V/m) @ t=0.32
7.5577143200436945
% es.tEY (V/m) @ t=0.32
0
% es.tEZ (V/m) @ t=0.32
-8.278507010330266
% es.Ex (V/m) @ t=0.32
7.55771432004371
% es.Ey (V/m) @ t=0.32
2.260018997772736
% es.Ez (V/m) @ t=0.32
-8.278507010330273
% es.tEx (V/m) @ t=0.32
7.5577143200436945
% es.tEy (V/m) @ t=0.32
0
% es.tEz (V/m) @ t=0.32
-8.278507010330266
% V (V) @ t=0.32
0.010201426143585919
% es.normE (V/m) @ t=0.34
12.087365029797251
% es.EX (V/m) @ t=0.34
7.670576048402388
% es.EY (V/m) @ t=0.34
2.2937639339226497
% es.EZ (V/m) @ t=0.34
-8.402220628213861
% es.tEX (V/m) @ t=0.34
7.670576048402366
% es.tEY (V/m) @ t=0.34
0
% es.tEZ (V/m) @ t=0.34
-8.40222062821384
% es.Ex (V/m) @ t=0.34
7.670576048402388
% es.Ey (V/m) @ t=0.34
2.2937639339226497
% es.Ez (V/m) @ t=0.34
-8.402220628213861
% es.tEx (V/m) @ t=0.34
7.670576048402366
% es.tEy (V/m) @ t=0.34
0
% es.tEz (V/m) @ t=0.34
-8.40222062821384
% V (V) @ t=0.34
0.010353970132161803
% es.normE (V/m) @ t=0.36
12.265283047285987
% es.EX (V/m) @ t=0.36
7.783437776761044
% es.EY (V/m) @ t=0.36
2.3275088700726094
% es.EZ (V/m) @ t=0.36
-8.52593424609745
% es.tEX (V/m) @ t=0.36
7.783437776761029
% es.tEY (V/m) @ t=0.36
0
% es.tEZ (V/m) @ t=0.36
-8.525934246097433
% es.Ex (V/m) @ t=0.36
7.783437776761044
% es.Ey (V/m) @ t=0.36
2.3275088700726094
% es.Ez (V/m) @ t=0.36
-8.52593424609745
% es.tEx (V/m) @ t=0.36
7.783437776761029
% es.tEy (V/m) @ t=0.36
0
% es.tEz (V/m) @ t=0.36
-8.525934246097433
% V (V) @ t=0.36
0.010506514120737689
% es.normE (V/m) @ t=0.38
12.443201065093401
% es.EX (V/m) @ t=0.38
7.896299505119701
% es.EY (V/m) @ t=0.38
2.3612538062225727
% es.EZ (V/m) @ t=0.38
-8.649647863981023
% es.tEX (V/m) @ t=0.38
7.896299505119686
% es.tEY (V/m) @ t=0.38
0
% es.tEZ (V/m) @ t=0.38
-8.64964786398101
% es.Ex (V/m) @ t=0.38
7.896299505119701
% es.Ey (V/m) @ t=0.38
2.3612538062225727
% es.Ez (V/m) @ t=0.38
-8.649647863981023
% es.tEx (V/m) @ t=0.38
7.896299505119686
% es.tEy (V/m) @ t=0.38
0
% es.tEz (V/m) @ t=0.38
-8.64964786398101
% V (V) @ t=0.38
0.010659058109313573
% es.normE (V/m) @ t=0.4
12.621119083206061
% es.EX (V/m) @ t=0.4
8.009161233478363
% es.EY (V/m) @ t=0.4
2.3949987423725263
% es.EZ (V/m) @ t=0.4
-8.773361481864622
% es.tEX (V/m) @ t=0.4
8.009161233478334
% es.tEY (V/m) @ t=0.4
0
% es.tEZ (V/m) @ t=0.4
-8.773361481864601
% es.Ex (V/m) @ t=0.4
8.009161233478363
% es.Ey (V/m) @ t=0.4
2.3949987423725263
% es.Ez (V/m) @ t=0.4
-8.773361481864622
% es.tEx (V/m) @ t=0.4
8.009161233478334
% es.tEy (V/m) @ t=0.4
0
% es.tEz (V/m) @ t=0.4
-8.773361481864601
% V (V) @ t=0.4
0.010811602097889457
% es.normE (V/m) @ t=0.42
12.806475538663168
% es.EX (V/m) @ t=0.42
8.126771849256615
% es.EY (V/m) @ t=0.42
2.4301667058302154
% es.EZ (V/m) @ t=0.42
-8.902220858030864
% es.tEX (V/m) @ t=0.42
8.126771849256595
% es.tEY (V/m) @ t=0.42
0
% es.tEZ (V/m) @ t=0.42
-8.902220858030848
% es.Ex (V/m) @ t=0.42
8.126771849256615
% es.Ey (V/m) @ t=0.42
2.4301667058302154
% es.Ez (V/m) @ t=0.42
-8.902220858030864
% es.tEx (V/m) @ t=0.42
8.126771849256595
% es.tEy (V/m) @ t=0.42
0
% es.tEz (V/m) @ t=0.42
-8.902220858030848
% V (V) @ t=0.42
0.010970427025323633
% es.normE (V/m) @ t=0.44
12.999942851037057
% es.EX (V/m) @ t=0.44
8.249560642328522
% es.EY (V/m) @ t=0.44
2.4668863354029518
% es.EZ (V/m) @ t=0.44
-9.036691158681869
% es.tEX (V/m) @ t=0.44
8.2495606423285
% es.tEY (V/m) @ t=0.44
0
% es.tEZ (V/m) @ t=0.44
-9.036691158681855
% es.Ex (V/m) @ t=0.44
8.249560642328522
% es.Ey (V/m) @ t=0.44
2.4668863354029518
% es.Ez (V/m) @ t=0.44
-9.036691158681869
% es.tEx (V/m) @ t=0.44
8.2495606423285
% es.tEy (V/m) @ t=0.44
0
% es.tEz (V/m) @ t=0.44
-9.036691158681855
% V (V) @ t=0.44
0.011136100675859684
% es.normE (V/m) @ t=0.46
13.193410163459562
% es.EX (V/m) @ t=0.46
8.372349435400428
% es.EY (V/m) @ t=0.46
2.5036059649757942
% es.EZ (V/m) @ t=0.46
-9.171161459332918
% es.tEX (V/m) @ t=0.46
8.372349435400405
% es.tEY (V/m) @ t=0.46
0
% es.tEZ (V/m) @ t=0.46
-9.171161459332897
% es.Ex (V/m) @ t=0.46
8.372349435400428
% es.Ey (V/m) @ t=0.46
2.5036059649757942
% es.Ez (V/m) @ t=0.46
-9.171161459332918
% es.tEx (V/m) @ t=0.46
8.372349435400405
% es.tEy (V/m) @ t=0.46
0
% es.tEz (V/m) @ t=0.46
-9.171161459332897
% V (V) @ t=0.46
0.011301774326395732
% es.normE (V/m) @ t=0.48
13.386877475928465
% es.EX (V/m) @ t=0.48
8.495138228472324
% es.EY (V/m) @ t=0.48
2.540325594548541
% es.EZ (V/m) @ t=0.48
-9.305631759983939
% es.tEX (V/m) @ t=0.48
8.495138228472303
% es.tEY (V/m) @ t=0.48
0
% es.tEZ (V/m) @ t=0.48
-9.305631759983916
% es.Ex (V/m) @ t=0.48
8.495138228472324
% es.Ey (V/m) @ t=0.48
2.540325594548541
% es.Ez (V/m) @ t=0.48
-9.305631759983939
% es.tEx (V/m) @ t=0.48
8.495138228472303
% es.tEy (V/m) @ t=0.48
0
% es.tEz (V/m) @ t=0.48
-9.305631759983916
% V (V) @ t=0.48
0.011467447976931782
% es.normE (V/m) @ t=0.5
13.580344788441838
% es.EX (V/m) @ t=0.5
8.617927021544238
% es.EY (V/m) @ t=0.5
2.57704522412133
% es.EZ (V/m) @ t=0.5
-9.44010206063496
% es.tEX (V/m) @ t=0.5
8.617927021544222
% es.tEY (V/m) @ t=0.5
0
% es.tEZ (V/m) @ t=0.5
-9.440102060634944
% es.Ex (V/m) @ t=0.5
8.617927021544238
% es.Ey (V/m) @ t=0.5
2.57704522412133
% es.Ez (V/m) @ t=0.5
-9.44010206063496
% es.tEx (V/m) @ t=0.5
8.617927021544222
% es.tEy (V/m) @ t=0.5
0
% es.tEz (V/m) @ t=0.5
-9.440102060634944
% V (V) @ t=0.5
0.011633121627467834
% es.normE (V/m) @ t=0.52
13.77381210099783
% es.EX (V/m) @ t=0.52
8.74071581461615
% es.EY (V/m) @ t=0.52
2.6137648536941156
% es.EZ (V/m) @ t=0.52
-9.574572361286021
% es.tEX (V/m) @ t=0.52
8.740715814616127
% es.tEY (V/m) @ t=0.52
0
% es.tEZ (V/m) @ t=0.52
-9.574572361286005
% es.Ex (V/m) @ t=0.52
8.74071581461615
% es.Ey (V/m) @ t=0.52
2.6137648536941156
% es.Ez (V/m) @ t=0.52
-9.574572361286021
% es.tEx (V/m) @ t=0.52
8.740715814616127
% es.tEy (V/m) @ t=0.52
0
% es.tEz (V/m) @ t=0.52
-9.574572361286005
% V (V) @ t=0.52
0.011798795278003885
% es.normE (V/m) @ t=0.54
13.967279413594603
% es.EX (V/m) @ t=0.54
8.863504607688062
% es.EY (V/m) @ t=0.54
2.650484483266859
% es.EZ (V/m) @ t=0.54
-9.70904266193704
% es.tEX (V/m) @ t=0.54
8.863504607688032
% es.tEY (V/m) @ t=0.54
0
% es.tEZ (V/m) @ t=0.54
-9.70904266193702
% es.Ex (V/m) @ t=0.54
8.863504607688062
% es.Ey (V/m) @ t=0.54
2.650484483266859
% es.Ez (V/m) @ t=0.54
-9.70904266193704
% es.tEx (V/m) @ t=0.54
8.863504607688032
% es.tEy (V/m) @ t=0.54
0
% es.tEz (V/m) @ t=0.54
-9.70904266193702
% V (V) @ t=0.54
0.011964468928539933
% es.normE (V/m) @ t=0.56
14.165416833387377
% es.EX (V/m) @ t=0.56
8.989253901322687
% es.EY (V/m) @ t=0.56
2.688089082355744
% es.EZ (V/m) @ t=0.56
-9.846761994426352
% es.tEX (V/m) @ t=0.56
8.989253901322659
% es.tEY (V/m) @ t=0.56
0
% es.tEZ (V/m) @ t=0.56
-9.846761994426329
% es.Ex (V/m) @ t=0.56
8.989253901322687
% es.Ey (V/m) @ t=0.56
2.688089082355744
% es.Ez (V/m) @ t=0.56
-9.846761994426352
% es.tEx (V/m) @ t=0.56
8.989253901322659
% es.tEy (V/m) @ t=0.56
0
% es.tEz (V/m) @ t=0.56
-9.846761994426329
% V (V) @ t=0.56
0.012134152925867447
% es.normE (V/m) @ t=0.58
14.367766254247282
% es.EX (V/m) @ t=0.58
9.11767329032122
% es.EY (V/m) @ t=0.58
2.726491841401758
% es.EZ (V/m) @ t=0.58
-9.987411650577148
% es.tEX (V/m) @ t=0.58
9.117673290321218
% es.tEY (V/m) @ t=0.58
0
% es.tEZ (V/m) @ t=0.58
-9.987411650577139
% es.Ex (V/m) @ t=0.58
9.11767329032122
% es.Ey (V/m) @ t=0.58
2.726491841401758
% es.Ez (V/m) @ t=0.58
-9.987411650577148
% es.tEx (V/m) @ t=0.58
9.117673290321218
% es.tEy (V/m) @ t=0.58
0
% es.tEz (V/m) @ t=0.58
-9.987411650577139
% V (V) @ t=0.58
0.012307453881931786
% es.normE (V/m) @ t=0.6
14.572063601263082
% es.EX (V/m) @ t=0.6
9.247327519603747
% es.EY (V/m) @ t=0.6
2.765263725866059
% es.EZ (V/m) @ t=0.6
-10.129416494917532
% es.tEX (V/m) @ t=0.6
9.247327519603726
% es.tEY (V/m) @ t=0.6
0
% es.tEZ (V/m) @ t=0.6
-10.129416494917518
% es.Ex (V/m) @ t=0.6
9.247327519603747
% es.Ey (V/m) @ t=0.6
2.765263725866059
% es.Ez (V/m) @ t=0.6
-10.129416494917532
% es.tEx (V/m) @ t=0.6
9.247327519603726
% es.tEy (V/m) @ t=0.6
0
% es.tEz (V/m) @ t=0.6
-10.129416494917518
% V (V) @ t=0.6
0.012482427574638393
% es.normE (V/m) @ t=0.62
14.778308874429431
% es.EX (V/m) @ t=0.62
9.378216589170204
% es.EY (V/m) @ t=0.62
2.80440473574864
% es.EZ (V/m) @ t=0.62
-10.272776527447446
% es.tEX (V/m) @ t=0.62
9.378216589170172
% es.tEY (V/m) @ t=0.62
0
% es.tEZ (V/m) @ t=0.62
-10.272776527447425
% es.Ex (V/m) @ t=0.62
9.378216589170204
% es.Ey (V/m) @ t=0.62
2.80440473574864
% es.Ez (V/m) @ t=0.62
-10.272776527447446
% es.tEx (V/m) @ t=0.62
9.378216589170172
% es.tEy (V/m) @ t=0.62
0
% es.tEz (V/m) @ t=0.62
-10.272776527447425
% V (V) @ t=0.62
0.012659074003987279
% es.normE (V/m) @ t=0.64
14.98650207374208
% es.EX (V/m) @ t=0.64
9.510340499020597
% es.EY (V/m) @ t=0.64
2.8439148710495226
% es.EZ (V/m) @ t=0.64
-10.417491748166945
% es.tEX (V/m) @ t=0.64
9.510340499020565
% es.tEY (V/m) @ t=0.64
0
% es.tEZ (V/m) @ t=0.64
-10.417491748166915
% es.Ex (V/m) @ t=0.64
9.510340499020597
% es.Ey (V/m) @ t=0.64
2.8439148710495226
% es.Ez (V/m) @ t=0.64
-10.417491748166945
% es.tEx (V/m) @ t=0.64
9.510340499020565
% es.tEy (V/m) @ t=0.64
0
% es.tEz (V/m) @ t=0.64
-10.417491748166915
% V (V) @ t=0.64
0.01283739316997843
% es.normE (V/m) @ t=0.66
15.196643199197656
% es.EX (V/m) @ t=0.66
9.643699249154992
% es.EY (V/m) @ t=0.66
2.8837941317686533
% es.EZ (V/m) @ t=0.66
-10.563562157076005
% es.tEX (V/m) @ t=0.66
9.643699249154968
% es.tEY (V/m) @ t=0.66
0
% es.tEZ (V/m) @ t=0.66
-10.563562157075982
% es.Ex (V/m) @ t=0.66
9.643699249154992
% es.Ey (V/m) @ t=0.66
2.8837941317686533
% es.Ez (V/m) @ t=0.66
-10.563562157076005
% es.tEx (V/m) @ t=0.66
9.643699249154968
% es.tEy (V/m) @ t=0.66
0
% es.tEz (V/m) @ t=0.66
-10.563562157075982
% V (V) @ t=0.66
0.013017385072611853
% es.normE (V/m) @ t=0.68
15.40873225079358
% es.EX (V/m) @ t=0.68
9.7782928395733
% es.EY (V/m) @ t=0.68
2.9240425179061633
% es.EZ (V/m) @ t=0.68
-10.710987754174607
% es.tEX (V/m) @ t=0.68
9.778292839573279
% es.tEY (V/m) @ t=0.68
0
% es.tEZ (V/m) @ t=0.68
-10.710987754174585
% es.Ex (V/m) @ t=0.68
9.7782928395733
% es.Ey (V/m) @ t=0.68
2.9240425179061633
% es.Ez (V/m) @ t=0.68
-10.710987754174607
% es.tEx (V/m) @ t=0.68
9.778292839573279
% es.tEy (V/m) @ t=0.68
0
% es.tEz (V/m) @ t=0.68
-10.710987754174585
% V (V) @ t=0.68
0.013199049711887548
% es.normE (V/m) @ t=0.7
15.622769228528169
% es.EX (V/m) @ t=0.7
9.914121270275558
% es.EY (V/m) @ t=0.7
2.964660029461862
% es.EZ (V/m) @ t=0.7
-10.859768539462756
% es.tEX (V/m) @ t=0.7
9.91412127027554
% es.tEY (V/m) @ t=0.7
0
% es.tEZ (V/m) @ t=0.7
-10.859768539462735
% es.Ex (V/m) @ t=0.7
9.914121270275558
% es.Ey (V/m) @ t=0.7
2.964660029461862
% es.Ez (V/m) @ t=0.7
-10.859768539462756
% es.tEx (V/m) @ t=0.7
9.91412127027554
% es.tEy (V/m) @ t=0.7
0
% es.tEz (V/m) @ t=0.7
-10.859768539462735
% V (V) @ t=0.7
0.013382387087805519
% es.normE (V/m) @ t=0.72
15.838754132400485
% es.EX (V/m) @ t=0.72
10.0511845412618
% es.EY (V/m) @ t=0.72
3.0056466664358723
% es.EZ (V/m) @ t=0.72
-11.009904512940462
% es.tEX (V/m) @ t=0.72
10.051184541261778
% es.tEY (V/m) @ t=0.72
0
% es.tEZ (V/m) @ t=0.72
-11.009904512940441
% es.Ex (V/m) @ t=0.72
10.0511845412618
% es.Ey (V/m) @ t=0.72
3.0056466664358723
% es.Ez (V/m) @ t=0.72
-11.009904512940462
% es.tEx (V/m) @ t=0.72
10.051184541261778
% es.tEy (V/m) @ t=0.72
0
% es.tEz (V/m) @ t=0.72
-11.009904512940441
% V (V) @ t=0.72
0.013567397200365755
% es.normE (V/m) @ t=0.74
16.05668696241028
% es.EX (V/m) @ t=0.74
10.189482652531954
% es.EY (V/m) @ t=0.74
3.047002428828248
% es.EZ (V/m) @ t=0.74
-11.161395674607768
% es.tEX (V/m) @ t=0.74
10.189482652531934
% es.tEY (V/m) @ t=0.74
0
% es.tEZ (V/m) @ t=0.74
-11.161395674607746
% es.Ex (V/m) @ t=0.74
10.189482652531954
% es.Ey (V/m) @ t=0.74
3.047002428828248
% es.Ez (V/m) @ t=0.74
-11.161395674607768
% es.tEx (V/m) @ t=0.74
10.189482652531934
% es.tEy (V/m) @ t=0.74
0
% es.tEz (V/m) @ t=0.74
-11.161395674607746
% V (V) @ t=0.74
0.013754080049568265
% es.normE (V/m) @ t=0.76
16.276567718557953
% es.EX (V/m) @ t=0.76
10.329015604086077
% es.EY (V/m) @ t=0.76
3.088727316638872
% es.EZ (V/m) @ t=0.76
-11.314242024464585
% es.tEX (V/m) @ t=0.76
10.32901560408606
% es.tEY (V/m) @ t=0.76
0
% es.tEZ (V/m) @ t=0.76
-11.314242024464555
% es.Ex (V/m) @ t=0.76
10.329015604086077
% es.Ey (V/m) @ t=0.76
3.088727316638872
% es.Ez (V/m) @ t=0.76
-11.314242024464585
% es.tEx (V/m) @ t=0.76
10.32901560408606
% es.tEy (V/m) @ t=0.76
0
% es.tEz (V/m) @ t=0.76
-11.314242024464555
% V (V) @ t=0.76
0.013942435635413048
% es.normE (V/m) @ t=0.78
16.498396400844584
% es.EX (V/m) @ t=0.78
10.469783395924164
% es.EY (V/m) @ t=0.78
3.130821329867755
% es.EZ (V/m) @ t=0.78
-11.468443562511007
% es.tEX (V/m) @ t=0.78
10.46978339592413
% es.tEY (V/m) @ t=0.78
0
% es.tEZ (V/m) @ t=0.78
-11.468443562510993
% es.Ex (V/m) @ t=0.78
10.469783395924164
% es.Ey (V/m) @ t=0.78
3.130821329867755
% es.Ez (V/m) @ t=0.78
-11.468443562511007
% es.tEx (V/m) @ t=0.78
10.46978339592413
% es.tEy (V/m) @ t=0.78
0
% es.tEz (V/m) @ t=0.78
-11.468443562510993
% V (V) @ t=0.78
0.014132463957900106
% es.normE (V/m) @ t=0.8
16.722173009271714
% es.EX (V/m) @ t=0.8
10.611786028046174
% es.EY (V/m) @ t=0.8
3.1732844685149466
% es.EZ (V/m) @ t=0.8
-11.624000288746977
% es.tEX (V/m) @ t=0.8
10.611786028046154
% es.tEY (V/m) @ t=0.8
0
% es.tEZ (V/m) @ t=0.8
-11.624000288746949
% es.Ex (V/m) @ t=0.8
10.611786028046174
% es.Ey (V/m) @ t=0.8
3.1732844685149466
% es.Ez (V/m) @ t=0.8
-11.624000288746977
% es.tEx (V/m) @ t=0.8
10.611786028046154
% es.tEy (V/m) @ t=0.8
0
% es.tEz (V/m) @ t=0.8
-11.624000288746949
% V (V) @ t=0.8
0.014324165017029431
% es.normE (V/m) @ t=0.82
16.94789754384152
% es.EX (V/m) @ t=0.82
10.755023500452147
% es.EY (V/m) @ t=0.82
3.2161167325804465
% es.EZ (V/m) @ t=0.82
-11.780912203172505
% es.tEX (V/m) @ t=0.82
10.755023500452143
% es.tEY (V/m) @ t=0.82
0
% es.tEZ (V/m) @ t=0.82
-11.780912203172484
% es.Ex (V/m) @ t=0.82
10.755023500452147
% es.Ey (V/m) @ t=0.82
3.2161167325804465
% es.Ez (V/m) @ t=0.82
-11.780912203172505
% es.tEx (V/m) @ t=0.82
10.755023500452143
% es.tEy (V/m) @ t=0.82
0
% es.tEz (V/m) @ t=0.82
-11.780912203172484
% V (V) @ t=0.82
0.014517538812801028
% es.normE (V/m) @ t=0.84
17.17942502683004
% es.EX (V/m) @ t=0.84
10.901955691477973
% es.EY (V/m) @ t=0.84
3.260055104762917
% es.EZ (V/m) @ t=0.84
-11.941847236588345
% es.tEX (V/m) @ t=0.84
10.901955691477946
% es.tEY (V/m) @ t=0.84
0
% es.tEZ (V/m) @ t=0.84
-11.941847236588314
% es.Ex (V/m) @ t=0.84
10.901955691477973
% es.Ey (V/m) @ t=0.84
3.260055104762917
% es.Ez (V/m) @ t=0.84
-11.941847236588345
% es.tEx (V/m) @ t=0.84
10.901955691477946
% es.tEy (V/m) @ t=0.84
0
% es.tEz (V/m) @ t=0.84
-11.941847236588314
% V (V) @ t=0.84
0.014715844513312731
% es.normE (V/m) @ t=0.86
17.413568587227594
% es.EX (V/m) @ t=0.86
11.050549068136492
% es.EY (V/m) @ t=0.86
3.3044903359759914
% es.EZ (V/m) @ t=0.86
-12.104599863130957
% es.tEX (V/m) @ t=0.86
11.050549068136458
% es.tEY (V/m) @ t=0.86
0
% es.tEZ (V/m) @ t=0.86
-12.104599863130929
% es.Ex (V/m) @ t=0.86
11.050549068136492
% es.Ey (V/m) @ t=0.86
3.3044903359759914
% es.Ez (V/m) @ t=0.86
-12.104599863130957
% es.tEx (V/m) @ t=0.86
11.050549068136458
% es.tEy (V/m) @ t=0.86
0
% es.tEz (V/m) @ t=0.86
-12.104599863130929
% V (V) @ t=0.86
0.014916387828468547
% es.normE (V/m) @ t=0.88
17.650204773686653
% es.EX (V/m) @ t=0.88
11.200724856486282
% es.EY (V/m) @ t=0.88
3.349398825445909
% es.EZ (V/m) @ t=0.88
-12.269084646288544
% es.tEX (V/m) @ t=0.88
11.200724856486264
% es.tEY (V/m) @ t=0.88
0
% es.tEZ (V/m) @ t=0.88
-12.26908464628853
% es.Ex (V/m) @ t=0.88
11.200724856486282
% es.Ey (V/m) @ t=0.88
3.349398825445909
% es.Ez (V/m) @ t=0.88
-12.269084646288544
% es.tEx (V/m) @ t=0.88
11.200724856486264
% es.tEy (V/m) @ t=0.88
0
% es.tEz (V/m) @ t=0.88
-12.26908464628853
% V (V) @ t=0.88
0.015119064388262446
% es.normE (V/m) @ t=0.9
17.88933358620858
% es.EX (V/m) @ t=0.9
11.352483056527316
% es.EY (V/m) @ t=0.9
3.394780573172784
% es.EZ (V/m) @ t=0.9
-12.435301586061097
% es.tEX (V/m) @ t=0.9
11.352483056527298
% es.tEY (V/m) @ t=0.9
0
% es.tEZ (V/m) @ t=0.9
-12.435301586061076
% es.Ex (V/m) @ t=0.9
11.352483056527316
% es.Ey (V/m) @ t=0.9
3.394780573172784
% es.Ez (V/m) @ t=0.9
-12.435301586061097
% es.tEx (V/m) @ t=0.9
11.352483056527298
% es.tEy (V/m) @ t=0.9
0
% es.tEz (V/m) @ t=0.9
-12.435301586061076
% V (V) @ t=0.9
0.015323874192694435
% es.normE (V/m) @ t=0.92
18.130955024794808
% es.EX (V/m) @ t=0.92
11.505823668259636
% es.EY (V/m) @ t=0.92
3.440635579156531
% es.EZ (V/m) @ t=0.92
-12.603250682448639
% es.tEX (V/m) @ t=0.92
11.505823668259605
% es.tEY (V/m) @ t=0.92
0
% es.tEZ (V/m) @ t=0.92
-12.60325068244861
% es.Ex (V/m) @ t=0.92
11.505823668259636
% es.Ey (V/m) @ t=0.92
3.440635579156531
% es.Ez (V/m) @ t=0.92
-12.603250682448639
% es.tEx (V/m) @ t=0.92
11.505823668259605
% es.tEy (V/m) @ t=0.92
0
% es.tEz (V/m) @ t=0.92
-12.60325068244861
% V (V) @ t=0.92
0.015530817241764507
% es.normE (V/m) @ t=0.94
18.375069089446843
% es.EX (V/m) @ t=0.94
11.660746691683187
% es.EY (V/m) @ t=0.94
3.486963843397186
% es.EZ (V/m) @ t=0.94
-12.772931935451211
% es.tEX (V/m) @ t=0.94
11.660746691683167
% es.tEY (V/m) @ t=0.94
0
% es.tEZ (V/m) @ t=0.94
-12.772931935451183
% es.Ex (V/m) @ t=0.94
11.660746691683187
% es.Ey (V/m) @ t=0.94
3.486963843397186
% es.Ez (V/m) @ t=0.94
-12.772931935451211
% es.tEx (V/m) @ t=0.94
11.660746691683167
% es.tEy (V/m) @ t=0.94
0
% es.tEz (V/m) @ t=0.94
-12.772931935451183
% V (V) @ t=0.94
0.01573989353547266
% es.normE (V/m) @ t=0.96
18.621675780166125
% es.EX (V/m) @ t=0.96
11.817252126798035
% es.EY (V/m) @ t=0.96
3.533765365894755
% es.EZ (V/m) @ t=0.96
-12.944345345068678
% es.tEX (V/m) @ t=0.96
11.81725212679801
% es.tEY (V/m) @ t=0.96
0
% es.tEZ (V/m) @ t=0.96
-12.94434534506865
% es.Ex (V/m) @ t=0.96
11.817252126798035
% es.Ey (V/m) @ t=0.96
3.533765365894755
% es.Ez (V/m) @ t=0.96
-12.944345345068678
% es.tEx (V/m) @ t=0.96
11.81725212679801
% es.tEy (V/m) @ t=0.96
0
% es.tEz (V/m) @ t=0.96
-12.94434534506865
% V (V) @ t=0.96
0.015951103073818907
% es.normE (V/m) @ t=0.98
18.870775096954254
% es.EX (V/m) @ t=0.98
11.97533997360412
% es.EY (V/m) @ t=0.98
3.5810401466491806
% es.EZ (V/m) @ t=0.98
-13.117490911301177
% es.tEX (V/m) @ t=0.98
11.9753399736041
% es.tEY (V/m) @ t=0.98
0
% es.tEZ (V/m) @ t=0.98
-13.11749091130116
% es.Ex (V/m) @ t=0.98
11.97533997360412
% es.Ey (V/m) @ t=0.98
3.5810401466491806
% es.Ez (V/m) @ t=0.98
-13.117490911301177
% es.tEx (V/m) @ t=0.98
11.9753399736041
% es.tEy (V/m) @ t=0.98
0
% es.tEz (V/m) @ t=0.98
-13.11749091130116
% V (V) @ t=0.98
0.016164445856803242
% es.normE (V/m) @ t=1
19.12236703981275
% es.EX (V/m) @ t=1
12.135010232101482
% es.EY (V/m) @ t=1
3.6287881856605075
% es.EZ (V/m) @ t=1
-13.292368634148627
% es.tEX (V/m) @ t=1
12.135010232101456
% es.tEY (V/m) @ t=1
0
% es.tEZ (V/m) @ t=1
-13.292368634148596
% es.Ex (V/m) @ t=1
12.135010232101482
% es.Ey (V/m) @ t=1
3.6287881856605075
% es.Ez (V/m) @ t=1
-13.292368634148627
% es.tEx (V/m) @ t=1
12.135010232101456
% es.tEy (V/m) @ t=1
0
% es.tEz (V/m) @ t=1
-13.292368634148596
% V (V) @ t=1
0.016379921884425656
% es.normE (V/m) @ t=1.02
19.376451608743185
% es.EX (V/m) @ t=1.02
12.296262902290056
% es.EY (V/m) @ t=1.02
3.6770094829287565
% es.EZ (V/m) @ t=1.02
-13.46897851361107
% es.tEX (V/m) @ t=1.02
12.296262902290021
% es.tEY (V/m) @ t=1.02
0
% es.tEZ (V/m) @ t=1.02
-13.468978513611054
% es.Ex (V/m) @ t=1.02
12.296262902290056
% es.Ey (V/m) @ t=1.02
3.6770094829287565
% es.Ez (V/m) @ t=1.02
-13.46897851361107
% es.tEx (V/m) @ t=1.02
12.296262902290021
% es.tEy (V/m) @ t=1.02
0
% es.tEz (V/m) @ t=1.02
-13.468978513611054
% V (V) @ t=1.02
0.01659753115668616
% es.normE (V/m) @ t=1.04
19.63302880374727
% es.EX (V/m) @ t=1.04
12.45909798416994
% es.EY (V/m) @ t=1.04
3.725704038453884
% es.EZ (V/m) @ t=1.04
-13.647320549688466
% es.tEX (V/m) @ t=1.04
12.459097984169926
% es.tEY (V/m) @ t=1.04
0
% es.tEZ (V/m) @ t=1.04
-13.647320549688438
% es.Ex (V/m) @ t=1.04
12.45909798416994
% es.Ey (V/m) @ t=1.04
3.725704038453884
% es.Ez (V/m) @ t=1.04
-13.647320549688466
% es.tEx (V/m) @ t=1.04
12.459097984169926
% es.tEy (V/m) @ t=1.04
0
% es.tEz (V/m) @ t=1.04
-13.647320549688438
% V (V) @ t=1.04
0.01681727367358475