% Model:              1 neuron.mph
% Version:            COMSOL 6.0.0.405
% Date:               Mar 16 2023, 19:13
% Dimension:          0
% Nodes:              14017
% Expressions:        14017
% Description:        Electric field norm, Electric field, X component, Electric field, Y component, Electric field, Z component, Tangential electric field, X component, Tangential electric field, Y component, Tangential electric field, Z component, Electric field, x component, Electric field, y component, Electric field, z component, Tangential electric field, x component, Tangential electric field, y component, Tangential electric field, z component, Electric potential
% Length unit:        mm
% x
2
% y
12.2
% z
1.6599999999999997
% es.normE (V/m) @ t=0
1.9131051402558676
% es.EX (V/m) @ t=0
-1.8485658564507794
% es.EY (V/m) @ t=0
0.14240655026717963
% es.EZ (V/m) @ t=0
-0.4711480453518653
% es.tEX (V/m) @ t=0
-1.8485658564507919
% es.tEY (V/m) @ t=0
0
% es.tEZ (V/m) @ t=0
-0.4711480453518675
% es.Ex (V/m) @ t=0
-1.8485658564507794
% es.Ey (V/m) @ t=0
0.14240655026717963
% es.Ez (V/m) @ t=0
-0.4711480453518653
% es.tEx (V/m) @ t=0
-1.8485658564507919
% es.tEy (V/m) @ t=0
0
% es.tEz (V/m) @ t=0
-0.4711480453518675
% V (V) @ t=0
0.011086852250906151
% es.normE (V/m) @ t=0.02
1.6615452508559745
% es.EX (V/m) @ t=0.02
-1.6054924313387477
% es.EY (V/m) @ t=0.02
0.12368109165699737
% es.EZ (V/m) @ t=0.02
-0.40919537900663183
% es.tEX (V/m) @ t=0.02
-1.6054924313387637
% es.tEY (V/m) @ t=0.02
0
% es.tEZ (V/m) @ t=0.02
-0.4091953790066327
% es.Ex (V/m) @ t=0.02
-1.6054924313387477
% es.Ey (V/m) @ t=0.02
0.12368109165699737
% es.Ez (V/m) @ t=0.02
-0.40919537900663183
% es.tEx (V/m) @ t=0.02
-1.6054924313387637
% es.tEy (V/m) @ t=0.02
0
% es.tEz (V/m) @ t=0.02
-0.4091953790066327
% V (V) @ t=0.02
0.009629008590003778
% es.normE (V/m) @ t=0.04
1.6861808642601908
% es.EX (V/m) @ t=0.04
-1.6292969544669509
% es.EY (V/m) @ t=0.04
0.12551490414118216
% es.EZ (V/m) @ t=0.04
-0.41526248589497117
% es.tEX (V/m) @ t=0.04
-1.6292969544669713
% es.tEY (V/m) @ t=0.04
0
% es.tEZ (V/m) @ t=0.04
-0.41526248589497783
% es.Ex (V/m) @ t=0.04
-1.6292969544669509
% es.Ey (V/m) @ t=0.04
0.12551490414118216
% es.Ez (V/m) @ t=0.04
-0.41526248589497117
% es.tEx (V/m) @ t=0.04
-1.6292969544669713
% es.tEy (V/m) @ t=0.04
0
% es.tEz (V/m) @ t=0.04
-0.41526248589497783
% V (V) @ t=0.04
0.009771776947886779
% es.normE (V/m) @ t=0.06
1.7111850009082095
% es.EX (V/m) @ t=0.06
-1.6534575667802072
% es.EY (V/m) @ t=0.06
0.1273761451024219
% es.EZ (V/m) @ t=0.06
-0.4214203583326306
% es.tEX (V/m) @ t=0.06
-1.653457566780192
% es.tEY (V/m) @ t=0.06
0
% es.tEZ (V/m) @ t=0.06
-0.42142035833262703
% es.Ex (V/m) @ t=0.06
-1.6534575667802072
% es.Ey (V/m) @ t=0.06
0.1273761451024219
% es.Ez (V/m) @ t=0.06
-0.4214203583326306
% es.tEx (V/m) @ t=0.06
-1.653457566780192
% es.tEy (V/m) @ t=0.06
0
% es.tEz (V/m) @ t=0.06
-0.42142035833262703
% V (V) @ t=0.06
0.009916681513008145
% es.normE (V/m) @ t=0.08
1.7368296562728924
% es.EX (V/m) @ t=0.08
-1.6782370894411835
% es.EY (V/m) @ t=0.08
0.12928506429245723
% es.EZ (V/m) @ t=0.08
-0.4277359748876246
% es.tEX (V/m) @ t=0.08
-1.6782370894411898
% es.tEY (V/m) @ t=0.08
0
% es.tEZ (V/m) @ t=0.08
-0.4277359748876197
% es.Ex (V/m) @ t=0.08
-1.6782370894411835
% es.Ey (V/m) @ t=0.08
0.12928506429245723
% es.Ez (V/m) @ t=0.08
-0.4277359748876246
% es.tEx (V/m) @ t=0.08
-1.6782370894411898
% es.tEy (V/m) @ t=0.08
0
% es.tEz (V/m) @ t=0.08
-0.4277359748876197
% V (V) @ t=0.08
0.010065298079023842
% es.normE (V/m) @ t=0.1
1.76291567610326
% es.EX (V/m) @ t=0.1
-1.703443086813694
% es.EY (V/m) @ t=0.1
0.13122683728592932
% es.EZ (V/m) @ t=0.1
-0.43416028873165313
% es.tEX (V/m) @ t=0.1
-1.703443086813678
% es.tEY (V/m) @ t=0.1
0
% es.tEZ (V/m) @ t=0.1
-0.43416028873165224
% es.Ex (V/m) @ t=0.1
-1.703443086813694
% es.Ey (V/m) @ t=0.1
0.13122683728592932
% es.Ez (V/m) @ t=0.1
-0.43416028873165313
% es.tEx (V/m) @ t=0.1
-1.703443086813678
% es.tEy (V/m) @ t=0.1
0
% es.tEz (V/m) @ t=0.1
-0.43416028873165224
% V (V) @ t=0.1
0.010216472486439936
% es.normE (V/m) @ t=0.12
1.7890016959336128
% es.EX (V/m) @ t=0.12
-1.728649084186194
% es.EY (V/m) @ t=0.12
0.13316861027935445
% es.EZ (V/m) @ t=0.12
-0.44058460257567855
% es.tEX (V/m) @ t=0.12
-1.728649084186225
% es.tEY (V/m) @ t=0.12
0
% es.tEZ (V/m) @ t=0.12
-0.4405846025756741
% es.Ex (V/m) @ t=0.12
-1.728649084186194
% es.Ey (V/m) @ t=0.12
0.13316861027935445
% es.Ez (V/m) @ t=0.12
-0.44058460257567855
% es.tEx (V/m) @ t=0.12
-1.728649084186225
% es.tEy (V/m) @ t=0.12
0
% es.tEz (V/m) @ t=0.12
-0.4405846025756741
% V (V) @ t=0.12
0.01036764689385603
% es.normE (V/m) @ t=0.14
1.8155425963204737
% es.EX (V/m) @ t=0.14
-1.754294617431297
% es.EY (V/m) @ t=0.14
0.13514424484969978
% es.EZ (V/m) @ t=0.14
-0.44712093790880214
% es.tEX (V/m) @ t=0.14
-1.75429461743129
% es.tEY (V/m) @ t=0.14
0
% es.tEZ (V/m) @ t=0.14
-0.4471209379088048
% es.Ex (V/m) @ t=0.14
-1.754294617431297
% es.Ey (V/m) @ t=0.14
0.13514424484969978
% es.Ez (V/m) @ t=0.14
-0.44712093790880214
% es.tEx (V/m) @ t=0.14
-1.75429461743129
% es.tEy (V/m) @ t=0.14
0
% es.tEz (V/m) @ t=0.14
-0.4471209379088048
% V (V) @ t=0.14
0.01052145718855265
% es.normE (V/m) @ t=0.16
1.8439729239013478
% es.EX (V/m) @ t=0.16
-1.781765841000026
% es.EY (V/m) @ t=0.16
0.13726052949484968
% es.EZ (V/m) @ t=0.16
-0.4541225743959276
% es.tEX (V/m) @ t=0.16
-1.7817658410000163
% es.tEY (V/m) @ t=0.16
0
% es.tEZ (V/m) @ t=0.16
-0.4541225743959387
% es.Ex (V/m) @ t=0.16
-1.781765841000026
% es.Ey (V/m) @ t=0.16
0.13726052949484968
% es.Ez (V/m) @ t=0.16
-0.4541225743959276
% es.tEx (V/m) @ t=0.16
-1.7817658410000163
% es.tEy (V/m) @ t=0.16
0
% es.tEz (V/m) @ t=0.16
-0.4541225743959387
% V (V) @ t=0.16
0.010686216109295245
% es.normE (V/m) @ t=0.18
1.8724032514822224
% es.EX (V/m) @ t=0.18
-1.8092370645687623
% es.EY (V/m) @ t=0.18
0.1393768141399765
% es.EZ (V/m) @ t=0.18
-0.461124210883034
% es.tEX (V/m) @ t=0.18
-1.8092370645687552
% es.tEY (V/m) @ t=0.18
0
% es.tEZ (V/m) @ t=0.18
-0.4611242108830371
% es.Ex (V/m) @ t=0.18
-1.8092370645687623
% es.Ey (V/m) @ t=0.18
0.1393768141399765
% es.Ez (V/m) @ t=0.18
-0.461124210883034
% es.tEx (V/m) @ t=0.18
-1.8092370645687552
% es.tEy (V/m) @ t=0.18
0
% es.tEz (V/m) @ t=0.18
-0.4611242108830371
% V (V) @ t=0.18
0.010850975030037839
% es.normE (V/m) @ t=0.2
1.9008335790630997
% es.EX (V/m) @ t=0.2
-1.8367082881375012
% es.EY (V/m) @ t=0.2
0.14149309878509098
% es.EZ (V/m) @ t=0.2
-0.46812584737014307
% es.tEX (V/m) @ t=0.2
-1.836708288137503
% es.tEY (V/m) @ t=0.2
0
% es.tEZ (V/m) @ t=0.2
-0.4681258473701426
% es.Ex (V/m) @ t=0.2
-1.8367082881375012
% es.Ey (V/m) @ t=0.2
0.14149309878509098
% es.Ez (V/m) @ t=0.2
-0.46812584737014307
% es.tEx (V/m) @ t=0.2
-1.836708288137503
% es.tEy (V/m) @ t=0.2
0
% es.tEz (V/m) @ t=0.2
-0.4681258473701426
% V (V) @ t=0.2
0.011015733950780433
% es.normE (V/m) @ t=0.22
1.9292639066439738
% es.EX (V/m) @ t=0.22
-1.8641795117062285
% es.EY (V/m) @ t=0.22
0.14360938343020802
% es.EZ (V/m) @ t=0.22
-0.4751274838572841
% es.tEX (V/m) @ t=0.22
-1.8641795117062347
% es.tEY (V/m) @ t=0.22
0
% es.tEZ (V/m) @ t=0.22
-0.47512748385726233
% es.Ex (V/m) @ t=0.22
-1.8641795117062285
% es.Ey (V/m) @ t=0.22
0.14360938343020802
% es.Ez (V/m) @ t=0.22
-0.4751274838572841
% es.tEx (V/m) @ t=0.22
-1.8641795117062347
% es.tEy (V/m) @ t=0.22
0
% es.tEz (V/m) @ t=0.22
-0.47512748385726233
% V (V) @ t=0.22
0.011180492871523026
% es.normE (V/m) @ t=0.24
1.957694234224849
% es.EX (V/m) @ t=0.24
-1.8916507352749665
% es.EY (V/m) @ t=0.24
0.14572566807534382
% es.EZ (V/m) @ t=0.24
-0.48212912034437894
% es.tEX (V/m) @ t=0.24
-1.8916507352749505
% es.tEY (V/m) @ t=0.24
0
% es.tEZ (V/m) @ t=0.24
-0.4821291203443696
% es.Ex (V/m) @ t=0.24
-1.8916507352749665
% es.Ey (V/m) @ t=0.24
0.14572566807534382
% es.Ez (V/m) @ t=0.24
-0.48212912034437894
% es.tEx (V/m) @ t=0.24
-1.8916507352749505
% es.tEy (V/m) @ t=0.24
0
% es.tEz (V/m) @ t=0.24
-0.4821291203443696
% V (V) @ t=0.24
0.01134525179226562
% es.normE (V/m) @ t=0.26
1.9861245618057324
% es.EX (V/m) @ t=0.26
-1.9191219588437107
% es.EY (V/m) @ t=0.26
0.14784195272046707
% es.EZ (V/m) @ t=0.26
-0.4891307568314893
% es.tEX (V/m) @ t=0.26
-1.9191219588437125
% es.tEY (V/m) @ t=0.26
0
% es.tEZ (V/m) @ t=0.26
-0.4891307568314822
% es.Ex (V/m) @ t=0.26
-1.9191219588437107
% es.Ey (V/m) @ t=0.26
0.14784195272046707
% es.Ez (V/m) @ t=0.26
-0.4891307568314893
% es.tEx (V/m) @ t=0.26
-1.9191219588437125
% es.tEy (V/m) @ t=0.26
0
% es.tEz (V/m) @ t=0.26
-0.4891307568314822
% V (V) @ t=0.26
0.011510010713008214
% es.normE (V/m) @ t=0.28
2.0155621751483377
% es.EX (V/m) @ t=0.28
-1.9475664875474594
% es.EY (V/m) @ t=0.28
0.15003321811961545
% es.EZ (V/m) @ t=0.28
-0.49638045933083585
% es.tEX (V/m) @ t=0.28
-1.947566487547478
% es.tEY (V/m) @ t=0.28
0
% es.tEZ (V/m) @ t=0.28
-0.49638045933083497
% es.Ex (V/m) @ t=0.28
-1.9475664875474594
% es.Ey (V/m) @ t=0.28
0.15003321811961545
% es.Ez (V/m) @ t=0.28
-0.49638045933083585
% es.tEx (V/m) @ t=0.28
-1.947566487547478
% es.tEy (V/m) @ t=0.28
0
% es.tEz (V/m) @ t=0.28
-0.49638045933083497
% V (V) @ t=0.28
0.011680606912235237
% es.normE (V/m) @ t=0.3
2.046523196735861
% es.EX (V/m) @ t=0.3
-1.9774830325586326
% es.EY (V/m) @ t=0.3
0.15233788361158473
% es.EZ (V/m) @ t=0.3
-0.5040053342218482
% es.tEX (V/m) @ t=0.3
-1.9774830325586557
% es.tEY (V/m) @ t=0.3
0
% es.tEZ (V/m) @ t=0.3
-0.5040053342218531
% es.Ex (V/m) @ t=0.3
-1.9774830325586326
% es.Ey (V/m) @ t=0.3
0.15233788361158473
% es.Ez (V/m) @ t=0.3
-0.5040053342218482
% es.tEx (V/m) @ t=0.3
-1.9774830325586557
% es.tEy (V/m) @ t=0.3
0
% es.tEz (V/m) @ t=0.3
-0.5040053342218531
% V (V) @ t=0.3
0.011860031349196313
% es.normE (V/m) @ t=0.32
2.0774842183233933
% es.EX (V/m) @ t=0.32
-2.0073995775698137
% es.EY (V/m) @ t=0.32
0.15464254910358954
% es.EZ (V/m) @ t=0.32
-0.511630209112854
% es.tEX (V/m) @ t=0.32
-2.007399577569819
% es.tEY (V/m) @ t=0.32
0
% es.tEZ (V/m) @ t=0.32
-0.5116302091128428
% es.Ex (V/m) @ t=0.32
-2.0073995775698137
% es.Ey (V/m) @ t=0.32
0.15464254910358954
% es.Ez (V/m) @ t=0.32
-0.511630209112854
% es.tEx (V/m) @ t=0.32
-2.007399577569819
% es.tEy (V/m) @ t=0.32
0
% es.tEz (V/m) @ t=0.32
-0.5116302091128428
% V (V) @ t=0.32
0.01203945578615739
% es.normE (V/m) @ t=0.34
2.1084452399109512
% es.EX (V/m) @ t=0.34
-2.0373161225810152
% es.EY (V/m) @ t=0.34
0.15694721459559602
% es.EZ (V/m) @ t=0.34
-0.519255084003881
% es.tEX (V/m) @ t=0.34
-2.0373161225810392
% es.tEY (V/m) @ t=0.34
0
% es.tEZ (V/m) @ t=0.34
-0.5192550840038752
% es.Ex (V/m) @ t=0.34
-2.0373161225810152
% es.Ey (V/m) @ t=0.34
0.15694721459559602
% es.Ez (V/m) @ t=0.34
-0.519255084003881
% es.tEx (V/m) @ t=0.34
-2.0373161225810392
% es.tEy (V/m) @ t=0.34
0
% es.tEz (V/m) @ t=0.34
-0.5192550840038752
% V (V) @ t=0.34
0.01221888022311847
% es.normE (V/m) @ t=0.36
2.139406261498462
% es.EX (V/m) @ t=0.36
-2.0672326675921795
% es.EY (V/m) @ t=0.36
0.15925188008757418
% es.EZ (V/m) @ t=0.36
-0.5268799588948743
% es.tEX (V/m) @ t=0.36
-2.067232667592158
% es.tEY (V/m) @ t=0.36
0
% es.tEZ (V/m) @ t=0.36
-0.5268799588948703
% es.Ex (V/m) @ t=0.36
-2.0672326675921795
% es.Ey (V/m) @ t=0.36
0.15925188008757418
% es.Ez (V/m) @ t=0.36
-0.5268799588948743
% es.tEx (V/m) @ t=0.36
-2.067232667592158
% es.tEy (V/m) @ t=0.36
0
% es.tEz (V/m) @ t=0.36
-0.5268799588948703
% V (V) @ t=0.36
0.012398304660079549
% es.normE (V/m) @ t=0.38
2.1703672830859877
% es.EX (V/m) @ t=0.38
-2.0971492126033535
% es.EY (V/m) @ t=0.38
0.1615565455795399
% es.EZ (V/m) @ t=0.38
-0.5345048337858889
% es.tEX (V/m) @ t=0.38
-2.0971492126033553
% es.tEY (V/m) @ t=0.38
0
% es.tEZ (V/m) @ t=0.38
-0.5345048337859009
% es.Ex (V/m) @ t=0.38
-2.0971492126033535
% es.Ey (V/m) @ t=0.38
0.1615565455795399
% es.Ez (V/m) @ t=0.38
-0.5345048337858889
% es.tEx (V/m) @ t=0.38
-2.0971492126033553
% es.tEy (V/m) @ t=0.38
0
% es.tEz (V/m) @ t=0.38
-0.5345048337859009
% V (V) @ t=0.38
0.01257772909704063
% es.normE (V/m) @ t=0.4
2.201328304673522
% es.EX (V/m) @ t=0.4
-2.12706575761454
% es.EY (V/m) @ t=0.4
0.16386121107154472
% es.EZ (V/m) @ t=0.4
-0.5421297086768804
% es.tEX (V/m) @ t=0.4
-2.127065757614517
% es.tEY (V/m) @ t=0.4
0
% es.tEZ (V/m) @ t=0.4
-0.5421297086768835
% es.Ex (V/m) @ t=0.4
-2.12706575761454
% es.Ey (V/m) @ t=0.4
0.16386121107154472
% es.Ez (V/m) @ t=0.4
-0.5421297086768804
% es.tEx (V/m) @ t=0.4
-2.127065757614517
% es.tEy (V/m) @ t=0.4
0
% es.tEz (V/m) @ t=0.4
-0.5421297086768835
% V (V) @ t=0.4
0.012757153534001706
% es.normE (V/m) @ t=0.42
2.233927587469846
% es.EX (V/m) @ t=0.42
-2.1585652982580195
% es.EY (V/m) @ t=0.42
0.16628782748391913
% es.EZ (V/m) @ t=0.42
-0.5501580371338273
% es.tEX (V/m) @ t=0.42
-2.1585652982580434
% es.tEY (V/m) @ t=0.42
0
% es.tEZ (V/m) @ t=0.42
-0.5501580371338228
% es.Ex (V/m) @ t=0.42
-2.1585652982580195
% es.Ey (V/m) @ t=0.42
0.16628782748391913
% es.Ez (V/m) @ t=0.42
-0.5501580371338273
% es.tEx (V/m) @ t=0.42
-2.1585652982580434
% es.tEy (V/m) @ t=0.42
0
% es.tEz (V/m) @ t=0.42
-0.5501580371338228
% V (V) @ t=0.42
0.012946071548632235
% es.normE (V/m) @ t=0.44
2.267609888354604
% es.EX (V/m) @ t=0.44
-2.191111322145135
% es.EY (V/m) @ t=0.44
0.16879506294046653
% es.EZ (V/m) @ t=0.44
-0.5584530797797922
% es.tEX (V/m) @ t=0.44
-2.1911113221451544
% es.tEY (V/m) @ t=0.44
0
% es.tEZ (V/m) @ t=0.44
-0.5584530797797846
% es.Ex (V/m) @ t=0.44
-2.191111322145135
% es.Ey (V/m) @ t=0.44
0.16879506294046653
% es.Ez (V/m) @ t=0.44
-0.5584530797797922
% es.tEx (V/m) @ t=0.44
-2.1911113221451544
% es.tEy (V/m) @ t=0.44
0
% es.tEz (V/m) @ t=0.44
-0.5584530797797846
% V (V) @ t=0.44
0.013141265556544197
% es.normE (V/m) @ t=0.46
2.301292189239356
% es.EX (V/m) @ t=0.46
-2.2236573460322484
% es.EY (V/m) @ t=0.46
0.17130229839697475
% es.EZ (V/m) @ t=0.46
-0.56674812242575
% es.tEX (V/m) @ t=0.46
-2.2236573460322333
% es.tEY (V/m) @ t=0.46
0
% es.tEZ (V/m) @ t=0.46
-0.5667481224257571
% es.Ex (V/m) @ t=0.46
-2.2236573460322484
% es.Ey (V/m) @ t=0.46
0.17130229839697475
% es.Ez (V/m) @ t=0.46
-0.56674812242575
% es.tEx (V/m) @ t=0.46
-2.2236573460322333
% es.tEy (V/m) @ t=0.46
0
% es.tEz (V/m) @ t=0.46
-0.5667481224257571
% V (V) @ t=0.46
0.013336459564456159
% es.normE (V/m) @ t=0.48
2.3349744901240603
% es.EX (V/m) @ t=0.48
-2.256203369919307
% es.EY (V/m) @ t=0.48
0.1738095338535275
% es.EZ (V/m) @ t=0.48
-0.5750431650717149
% es.tEX (V/m) @ t=0.48
-2.2562033699193123
% es.tEY (V/m) @ t=0.48
0
% es.tEZ (V/m) @ t=0.48
-0.5750431650717154
% es.Ex (V/m) @ t=0.48
-2.256203369919307
% es.Ey (V/m) @ t=0.48
0.1738095338535275
% es.Ez (V/m) @ t=0.48
-0.5750431650717149
% es.tEx (V/m) @ t=0.48
-2.2562033699193123
% es.tEy (V/m) @ t=0.48
0
% es.tEz (V/m) @ t=0.48
-0.5750431650717154
% V (V) @ t=0.48
0.013531653572368121
% es.normE (V/m) @ t=0.5
2.36865679100882
% es.EX (V/m) @ t=0.5
-2.2887493938064223
% es.EY (V/m) @ t=0.5
0.17631676931004459
% es.EZ (V/m) @ t=0.5
-0.5833382077176901
% es.tEX (V/m) @ t=0.5
-2.2887493938064374
% es.tEY (V/m) @ t=0.5
0
% es.tEZ (V/m) @ t=0.5
-0.5833382077176879
% es.Ex (V/m) @ t=0.5
-2.2887493938064223
% es.Ey (V/m) @ t=0.5
0.17631676931004459
% es.Ez (V/m) @ t=0.5
-0.5833382077176901
% es.tEx (V/m) @ t=0.5
-2.2887493938064374
% es.tEy (V/m) @ t=0.5
0
% es.tEz (V/m) @ t=0.5
-0.5833382077176879
% V (V) @ t=0.5
0.013726847580280081
% es.normE (V/m) @ t=0.52
2.4023390918935705
% es.EX (V/m) @ t=0.52
-2.3212954176935305
% es.EY (V/m) @ t=0.52
0.1788240047665849
% es.EZ (V/m) @ t=0.52
-0.5916332503636497
% es.tEX (V/m) @ t=0.52
-2.321295417693534
% es.tEY (V/m) @ t=0.52
0
% es.tEZ (V/m) @ t=0.52
-0.5916332503636355
% es.Ex (V/m) @ t=0.52
-2.3212954176935305
% es.Ey (V/m) @ t=0.52
0.1788240047665849
% es.Ez (V/m) @ t=0.52
-0.5916332503636497
% es.tEx (V/m) @ t=0.52
-2.321295417693534
% es.tEy (V/m) @ t=0.52
0
% es.tEz (V/m) @ t=0.52
-0.5916332503636355
% V (V) @ t=0.52
0.013922041588192043
% es.normE (V/m) @ t=0.54
2.4360213927782874
% es.EX (V/m) @ t=0.54
-2.3538414415806033
% es.EY (V/m) @ t=0.54
0.18133124022314284
% es.EZ (V/m) @ t=0.54
-0.5999282930096004
% es.tEX (V/m) @ t=0.54
-2.353841441580613
% es.tEY (V/m) @ t=0.54
0
% es.tEZ (V/m) @ t=0.54
-0.5999282930096008
% es.Ex (V/m) @ t=0.54
-2.3538414415806033
% es.Ey (V/m) @ t=0.54
0.18133124022314284
% es.Ez (V/m) @ t=0.54
-0.5999282930096004
% es.tEx (V/m) @ t=0.54
-2.353841441580613
% es.tEy (V/m) @ t=0.54
0
% es.tEz (V/m) @ t=0.54
-0.5999282930096008
% V (V) @ t=0.54
0.014117235596104007
% es.normE (V/m) @ t=0.56
2.470740459825759
% es.EX (V/m) @ t=0.56
-2.387389256254849
% es.EY (V/m) @ t=0.56
0.1839156508408527
% es.EZ (V/m) @ t=0.56
-0.6084786627652132
% es.tEX (V/m) @ t=0.56
-2.3873892562548455
% es.tEY (V/m) @ t=0.56
0
% es.tEZ (V/m) @ t=0.56
-0.6084786627652079
% es.Ex (V/m) @ t=0.56
-2.387389256254849
% es.Ey (V/m) @ t=0.56
0.1839156508408527
% es.Ez (V/m) @ t=0.56
-0.6084786627652132
% es.tEx (V/m) @ t=0.56
-2.3873892562548455
% es.tEy (V/m) @ t=0.56
0
% es.tEz (V/m) @ t=0.56
-0.6084786627652079
% V (V) @ t=0.56
0.014318437759479398
% es.normE (V/m) @ t=0.58
2.5060146397240133
% es.EX (V/m) @ t=0.58
-2.4214734570108742
% es.EY (V/m) @ t=0.58
0.18654138314255642
% es.EZ (V/m) @ t=0.58
-0.6171657416118261
% es.tEX (V/m) @ t=0.58
-2.421473457010876
% es.tEY (V/m) @ t=0.58
0
% es.tEZ (V/m) @ t=0.58
-0.6171657416118173
% es.Ex (V/m) @ t=0.58
-2.4214734570108742
% es.Ey (V/m) @ t=0.58
0.18654138314255642
% es.Ez (V/m) @ t=0.58
-0.6171657416118261
% es.tEx (V/m) @ t=0.58
-2.421473457010876
% es.tEy (V/m) @ t=0.58
0
% es.tEz (V/m) @ t=0.58
-0.6171657416118173
% V (V) @ t=0.58
0.014522856852985757
% es.normE (V/m) @ t=0.6
2.5416272282398147
% es.EX (V/m) @ t=0.6
-2.45588465014718
% es.EY (V/m) @ t=0.6
0.18919230602293813
% es.EZ (V/m) @ t=0.6
-0.6259361612322101
% es.tEX (V/m) @ t=0.6
-2.4558846501471905
% es.tEY (V/m) @ t=0.6
0
% es.tEZ (V/m) @ t=0.6
-0.6259361612322181
% es.Ex (V/m) @ t=0.6
-2.45588465014718
% es.Ey (V/m) @ t=0.6
0.18919230602293813
% es.Ez (V/m) @ t=0.6
-0.6259361612322101
% es.tEx (V/m) @ t=0.6
-2.4558846501471905
% es.tEy (V/m) @ t=0.6
0
% es.tEz (V/m) @ t=0.6
-0.6259361612322181
% V (V) @ t=0.6
0.014729237055619125
% es.normE (V/m) @ t=0.62
2.577578225373145
% es.EX (V/m) @ t=0.62
-2.4906228356637587
% es.EY (V/m) @ t=0.62
0.19186841948201905
% es.EZ (V/m) @ t=0.62
-0.6347899216263091
% es.tEX (V/m) @ t=0.62
-2.4906228356637428
% es.tEY (V/m) @ t=0.62
0
% es.tEZ (V/m) @ t=0.62
-0.6347899216263073
% es.Ex (V/m) @ t=0.62
-2.4906228356637587
% es.Ey (V/m) @ t=0.62
0.19186841948201905
% es.Ez (V/m) @ t=0.62
-0.6347899216263091
% es.tEx (V/m) @ t=0.62
-2.4906228356637428
% es.tEy (V/m) @ t=0.62
0
% es.tEz (V/m) @ t=0.62
-0.6347899216263073
% V (V) @ t=0.62
0.01493757836737951
% es.normE (V/m) @ t=0.64
2.613867631124039
% es.EX (V/m) @ t=0.64
-2.5256880135606448
% es.EY (V/m) @ t=0.64
0.19456972351977286
% es.EZ (V/m) @ t=0.64
-0.6437270227941436
% es.tEX (V/m) @ t=0.64
-2.525688013560668
% es.tEY (V/m) @ t=0.64
0
% es.tEZ (V/m) @ t=0.64
-0.6437270227941418
% es.Ex (V/m) @ t=0.64
-2.5256880135606448
% es.Ey (V/m) @ t=0.64
0.19456972351977286
% es.Ez (V/m) @ t=0.64
-0.6437270227941436
% es.tEx (V/m) @ t=0.64
-2.525688013560668
% es.tEy (V/m) @ t=0.64
0
% es.tEz (V/m) @ t=0.64
-0.6437270227941418
% V (V) @ t=0.64
0.015147880788266907
% es.normE (V/m) @ t=0.66
2.6504954454924046
% es.EX (V/m) @ t=0.66
-2.5610801838377366
% es.EY (V/m) @ t=0.66
0.1972962181361977
% es.EZ (V/m) @ t=0.66
-0.6527474647357359
% es.tEX (V/m) @ t=0.66
-2.5610801838377313
% es.tEY (V/m) @ t=0.66
0
% es.tEZ (V/m) @ t=0.66
-0.6527474647357359
% es.Ex (V/m) @ t=0.66
-2.5610801838377366
% es.Ey (V/m) @ t=0.66
0.1972962181361977
% es.Ez (V/m) @ t=0.66
-0.6527474647357359
% es.tEx (V/m) @ t=0.66
-2.5610801838377313
% es.tEy (V/m) @ t=0.66
0
% es.tEz (V/m) @ t=0.66
-0.6527474647357359
% V (V) @ t=0.66
0.015360144318281319
% es.normE (V/m) @ t=0.68
2.6874616684783383
% es.EX (V/m) @ t=0.68
-2.5967993464951284
% es.EY (V/m) @ t=0.68
0.20004790333142286
% es.EZ (V/m) @ t=0.68
-0.6618512474510654
% es.tEX (V/m) @ t=0.68
-2.596799346495139
% es.tEY (V/m) @ t=0.68
0
% es.tEZ (V/m) @ t=0.68
-0.6618512474510716
% es.Ex (V/m) @ t=0.68
-2.5967993464951284
% es.Ey (V/m) @ t=0.68
0.20004790333142286
% es.Ez (V/m) @ t=0.68
-0.6618512474510654
% es.tEx (V/m) @ t=0.68
-2.596799346495139
% es.tEy (V/m) @ t=0.68
0
% es.tEz (V/m) @ t=0.68
-0.6618512474510716
% V (V) @ t=0.68
0.015574368957422743
% es.normE (V/m) @ t=0.7
2.7247663000817277
% es.EX (V/m) @ t=0.7
-2.6328455015327243
% es.EY (V/m) @ t=0.7
0.20282477910521624
% es.EZ (V/m) @ t=0.7
-0.6710383709401304
% es.tEX (V/m) @ t=0.7
-2.632845501532742
% es.tEY (V/m) @ t=0.7
0
% es.tEZ (V/m) @ t=0.7
-0.6710383709401277
% es.Ex (V/m) @ t=0.7
-2.6328455015327243
% es.Ey (V/m) @ t=0.7
0.20282477910521624
% es.Ez (V/m) @ t=0.7
-0.6710383709401304
% es.tEx (V/m) @ t=0.7
-2.632845501532742
% es.tEy (V/m) @ t=0.7
0
% es.tEz (V/m) @ t=0.7
-0.6710383709401277
% V (V) @ t=0.7
0.015790554705691184
% es.normE (V/m) @ t=0.72
2.7624093403027254
% es.EX (V/m) @ t=0.72
-2.66921864895067
% es.EY (V/m) @ t=0.72
0.20562684545774068
% es.EZ (V/m) @ t=0.72
-0.6803088352029216
% es.tEX (V/m) @ t=0.72
-2.669218648950679
% es.tEY (V/m) @ t=0.72
0
% es.tEZ (V/m) @ t=0.72
-0.6803088352029292
% es.Ex (V/m) @ t=0.72
-2.66921864895067
% es.Ey (V/m) @ t=0.72
0.20562684545774068
% es.Ez (V/m) @ t=0.72
-0.6803088352029216
% es.tEx (V/m) @ t=0.72
-2.669218648950679
% es.tEy (V/m) @ t=0.72
0
% es.tEz (V/m) @ t=0.72
-0.6803088352029292
% V (V) @ t=0.72
0.016008701563086633
% es.normE (V/m) @ t=0.74
2.8003907891411846
% es.EX (V/m) @ t=0.74
-2.7059187887488125
% es.EY (V/m) @ t=0.74
0.20845410238895035
% es.EZ (V/m) @ t=0.74
-0.689662640239463
% es.tEX (V/m) @ t=0.74
-2.705918788748807
% es.tEY (V/m) @ t=0.74
0
% es.tEZ (V/m) @ t=0.74
-0.6896626402394688
% es.Ex (V/m) @ t=0.74
-2.7059187887488125
% es.Ey (V/m) @ t=0.74
0.20845410238895035
% es.Ez (V/m) @ t=0.74
-0.689662640239463
% es.tEx (V/m) @ t=0.74
-2.705918788748807
% es.tEy (V/m) @ t=0.74
0
% es.tEz (V/m) @ t=0.74
-0.6896626402394688
% V (V) @ t=0.74
0.016228809529609103
% es.normE (V/m) @ t=0.76
2.8387106465972245
% es.EX (V/m) @ t=0.76
-2.7429459209272764
% es.EY (V/m) @ t=0.76
0.21130654989886122
% es.EZ (V/m) @ t=0.76
-0.699099786049743
% es.tEX (V/m) @ t=0.76
-2.7429459209272586
% es.tEY (V/m) @ t=0.76
0
% es.tEZ (V/m) @ t=0.76
-0.6990997860497323
% es.Ex (V/m) @ t=0.76
-2.7429459209272764
% es.Ey (V/m) @ t=0.76
0.21130654989886122
% es.Ez (V/m) @ t=0.76
-0.699099786049743
% es.tEx (V/m) @ t=0.76
-2.7429459209272586
% es.tEy (V/m) @ t=0.76
0
% es.tEz (V/m) @ t=0.76
-0.6990997860497323
% V (V) @ t=0.76
0.01645087860525859
% es.normE (V/m) @ t=0.78
2.8773689126707334
% es.EX (V/m) @ t=0.78
-2.7803000454859497
% es.EY (V/m) @ t=0.78
0.2141841879874289
% es.EZ (V/m) @ t=0.78
-0.7086202726337603
% es.tEX (V/m) @ t=0.78
-2.780300045485955
% es.tEY (V/m) @ t=0.78
0
% es.tEZ (V/m) @ t=0.78
-0.7086202726337696
% es.Ex (V/m) @ t=0.78
-2.7803000454859497
% es.Ey (V/m) @ t=0.78
0.2141841879874289
% es.Ez (V/m) @ t=0.78
-0.7086202726337603
% es.tEx (V/m) @ t=0.78
-2.780300045485955
% es.tEy (V/m) @ t=0.78
0
% es.tEz (V/m) @ t=0.78
-0.7086202726337696
% V (V) @ t=0.78
0.016674908790035074
% es.normE (V/m) @ t=0.8
2.916365587361816
% es.EX (V/m) @ t=0.8
-2.8179811624249265
% es.EY (V/m) @ t=0.8
0.2170870166547082
% es.EZ (V/m) @ t=0.8
-0.7182240999915499
% es.tEX (V/m) @ t=0.8
-2.8179811624249425
% es.tEY (V/m) @ t=0.8
0
% es.tEZ (V/m) @ t=0.8
-0.7182240999915521
% es.Ex (V/m) @ t=0.8
-2.8179811624249265
% es.Ey (V/m) @ t=0.8
0.2170870166547082
% es.Ez (V/m) @ t=0.8
-0.7182240999915499
% es.tEx (V/m) @ t=0.8
-2.8179811624249425
% es.tEy (V/m) @ t=0.8
0
% es.tEz (V/m) @ t=0.8
-0.7182240999915521
% V (V) @ t=0.8
0.01690090008393859
% es.normE (V/m) @ t=0.82
2.955842278879794
% es.EX (V/m) @ t=0.82
-2.856126100434931
% es.EY (V/m) @ t=0.82
0.22002557216306784
% es.EZ (V/m) @ t=0.82
-0.7279461527462421
% es.tEX (V/m) @ t=0.82
-2.856126100434931
% es.tEY (V/m) @ t=0.82
0
% es.tEZ (V/m) @ t=0.82
-0.7279461527462239
% es.Ex (V/m) @ t=0.82
-2.856126100434931
% es.Ey (V/m) @ t=0.82
0.22002557216306784
% es.Ez (V/m) @ t=0.82
-0.7279461527462421
% es.tEx (V/m) @ t=0.82
-2.856126100434931
% es.tEy (V/m) @ t=0.82
0
% es.tEz (V/m) @ t=0.82
-0.7279461527462239
% V (V) @ t=0.82
0.01712967384853769
% es.normE (V/m) @ t=0.84
2.996235702756302
% es.EX (V/m) @ t=0.84
-2.895156835153445
% es.EY (V/m) @ t=0.84
0.2230323480342984
% es.EZ (V/m) @ t=0.84
-0.7378940140446417
% es.tEX (V/m) @ t=0.84
-2.8951568351534362
% es.tEY (V/m) @ t=0.84
0
% es.tEZ (V/m) @ t=0.84
-0.7378940140446275
% es.Ex (V/m) @ t=0.84
-2.895156835153445
% es.Ey (V/m) @ t=0.84
0.2230323480342984
% es.Ez (V/m) @ t=0.84
-0.7378940140446417
% es.tEx (V/m) @ t=0.84
-2.8951568351534362
% es.tEy (V/m) @ t=0.84
0
% es.tEz (V/m) @ t=0.84
-0.7378940140446275
% V (V) @ t=0.84
0.017363763138627666
% es.normE (V/m) @ t=0.86
3.0370633983424984
% es.EX (V/m) @ t=0.86
-2.9346071898015005
% es.EY (V/m) @ t=0.86
0.22607144711226423
% es.EZ (V/m) @ t=0.86
-0.7479488316110277
% es.tEX (V/m) @ t=0.86
-2.934607189801479
% es.tEY (V/m) @ t=0.86
0
% es.tEZ (V/m) @ t=0.86
-0.747948831611037
% es.Ex (V/m) @ t=0.86
-2.9346071898015005
% es.Ey (V/m) @ t=0.86
0.22607144711226423
% es.Ez (V/m) @ t=0.86
-0.7479488316110277
% es.tEx (V/m) @ t=0.86
-2.934607189801479
% es.tEy (V/m) @ t=0.86
0
% es.tEz (V/m) @ t=0.86
-0.747948831611037
% V (V) @ t=0.86
0.01760036956676442
% es.normE (V/m) @ t=0.88
3.0783253656383187
% es.EX (V/m) @ t=0.88
-2.9744771643790457
% es.EY (V/m) @ t=0.88
0.2291428693970381
% es.EZ (V/m) @ t=0.88
-0.7581106054453208
% es.tEX (V/m) @ t=0.88
-2.9744771643790315
% es.tEY (V/m) @ t=0.88
0
% es.tEZ (V/m) @ t=0.88
-0.7581106054453102
% es.Ex (V/m) @ t=0.88
-2.9744771643790457
% es.Ey (V/m) @ t=0.88
0.2291428693970381
% es.Ez (V/m) @ t=0.88
-0.7581106054453208
% es.tEx (V/m) @ t=0.88
-2.9744771643790315
% es.tEy (V/m) @ t=0.88
0
% es.tEz (V/m) @ t=0.88
-0.7581106054453102
% V (V) @ t=0.88
0.01783949313294795
% es.normE (V/m) @ t=0.9
3.1200216046437212
% es.EX (V/m) @ t=0.9
-3.0147667588860223
% es.EY (V/m) @ t=0.9
0.2322466148886233
% es.EZ (V/m) @ t=0.9
-0.768379335547575
% es.tEX (V/m) @ t=0.9
-3.014766758886058
% es.tEY (V/m) @ t=0.9
0
% es.tEZ (V/m) @ t=0.9
-0.7683793355475856
% es.Ex (V/m) @ t=0.9
-3.0147667588860223
% es.Ey (V/m) @ t=0.9
0.2322466148886233
% es.Ez (V/m) @ t=0.9
-0.768379335547575
% es.tEx (V/m) @ t=0.9
-3.014766758886058
% es.tEy (V/m) @ t=0.9
0
% es.tEz (V/m) @ t=0.9
-0.7683793355475856
% V (V) @ t=0.9
0.01808113383717825
% es.normE (V/m) @ t=0.92
3.1621521153588366
% es.EX (V/m) @ t=0.92
-3.0554759733225687
% es.EY (V/m) @ t=0.92
0.23538268358696024
% es.EZ (V/m) @ t=0.92
-0.7787550219177977
% es.tEX (V/m) @ t=0.92
-3.055475973322565
% es.tEY (V/m) @ t=0.92
0
% es.tEZ (V/m) @ t=0.92
-0.7787550219177852
% es.Ex (V/m) @ t=0.92
-3.0554759733225687
% es.Ey (V/m) @ t=0.92
0.23538268358696024
% es.Ez (V/m) @ t=0.92
-0.7787550219177977
% es.tEx (V/m) @ t=0.92
-3.055475973322565
% es.tEy (V/m) @ t=0.92
0
% es.tEz (V/m) @ t=0.92
-0.7787550219177852
% V (V) @ t=0.92
0.018325291679455326
% es.normE (V/m) @ t=0.94
3.2047168977836202
% es.EX (V/m) @ t=0.94
-3.0966048076886388
% es.EY (V/m) @ t=0.94
0.23855107549209564
% es.EZ (V/m) @ t=0.94
-0.7892376645559711
% es.tEX (V/m) @ t=0.94
-3.096604807688646
% es.tEY (V/m) @ t=0.94
0
% es.tEZ (V/m) @ t=0.94
-0.7892376645559516
% es.Ex (V/m) @ t=0.94
-3.0966048076886388
% es.Ey (V/m) @ t=0.94
0.23855107549209564
% es.Ez (V/m) @ t=0.94
-0.7892376645559711
% es.tEx (V/m) @ t=0.94
-3.096604807688646
% es.tEy (V/m) @ t=0.94
0
% es.tEz (V/m) @ t=0.94
-0.7892376645559516
% V (V) @ t=0.94
0.018571966659779175
% es.normE (V/m) @ t=0.96
3.247715951918102
% es.EX (V/m) @ t=0.96
-3.1381532619842663
% es.EY (V/m) @ t=0.96
0.24175179060403185
% es.EZ (V/m) @ t=0.96
-0.7998272634620784
% es.tEX (V/m) @ t=0.96
-3.138153261984254
% es.tEY (V/m) @ t=0.96
0
% es.tEZ (V/m) @ t=0.96
-0.7998272634620669
% es.Ex (V/m) @ t=0.96
-3.1381532619842663
% es.Ey (V/m) @ t=0.96
0.24175179060403185
% es.Ez (V/m) @ t=0.96
-0.7998272634620784
% es.tEx (V/m) @ t=0.96
-3.138153261984254
% es.tEy (V/m) @ t=0.96
0
% es.tEz (V/m) @ t=0.96
-0.7998272634620669
% V (V) @ t=0.96
0.018821158778149806
% es.normE (V/m) @ t=0.98
3.2911492777622344
% es.EX (V/m) @ t=0.98
-3.1801213362093925
% es.EY (V/m) @ t=0.98
0.24498482892269458
% es.EZ (V/m) @ t=0.98
-0.8105238186361836
% es.tEX (V/m) @ t=0.98
-3.180121336209389
% es.tEY (V/m) @ t=0.98
0
% es.tEZ (V/m) @ t=0.98
-0.810523818636188
% es.Ex (V/m) @ t=0.98
-3.1801213362093925
% es.Ey (V/m) @ t=0.98
0.24498482892269458
% es.Ez (V/m) @ t=0.98
-0.8105238186361836
% es.tEx (V/m) @ t=0.98
-3.180121336209389
% es.tEy (V/m) @ t=0.98
0
% es.tEz (V/m) @ t=0.98
-0.810523818636188
% V (V) @ t=0.98
0.019072868034567207
% es.normE (V/m) @ t=1
3.335016875315992
% es.EX (V/m) @ t=1
-3.2225090303640176
% es.EY (V/m) @ t=1
0.24825019044818109
% es.EZ (V/m) @ t=1
-0.8213273300781472
% es.tEX (V/m) @ t=1
-3.222509030364023
% es.tEY (V/m) @ t=1
0
% es.tEZ (V/m) @ t=1
-0.821327330078141
% es.Ex (V/m) @ t=1
-3.2225090303640176
% es.Ey (V/m) @ t=1
0.24825019044818109
% es.Ez (V/m) @ t=1
-0.8213273300781472
% es.tEx (V/m) @ t=1
-3.222509030364023
% es.tEy (V/m) @ t=1
0
% es.tEz (V/m) @ t=1
-0.821327330078141
% V (V) @ t=1
0.01932709442903138
% es.normE (V/m) @ t=1.02
3.379318744579429
% es.EX (V/m) @ t=1.02
-3.265316344448152
% es.EY (V/m) @ t=1.02
0.25154787518046007
% es.EZ (V/m) @ t=1.02
-0.8322377977881548
% es.tEX (V/m) @ t=1.02
-3.265316344448177
% es.tEY (V/m) @ t=1.02
0
% es.tEZ (V/m) @ t=1.02
-0.8322377977881423
% es.Ex (V/m) @ t=1.02
-3.265316344448152
% es.Ey (V/m) @ t=1.02
0.25154787518046007
% es.Ez (V/m) @ t=1.02
-0.8322377977881548
% es.tEx (V/m) @ t=1.02
-3.265316344448177
% es.tEy (V/m) @ t=1.02
0
% es.tEz (V/m) @ t=1.02
-0.8322377977881423
% V (V) @ t=1.02
0.019583837961542325
% es.normE (V/m) @ t=1.04