% Model:              1 neuron.mph
% Version:            COMSOL 6.0.0.405
% Date:               Mar 16 2023, 19:18
% Dimension:          0
% Nodes:              14017
% Expressions:        14017
% Description:        Electric field norm, Electric field, X component, Electric field, Y component, Electric field, Z component, Tangential electric field, X component, Tangential electric field, Y component, Tangential electric field, Z component, Electric field, x component, Electric field, y component, Electric field, z component, Tangential electric field, x component, Tangential electric field, y component, Tangential electric field, z component, Electric potential
% Length unit:        mm
% x
2
% y
12.2
% z
1
% es.normE (V/m) @ t=0
1.159533125175705
% es.EX (V/m) @ t=0
-0.7488097101586824
% es.EY (V/m) @ t=0
0.16636826496589152
% es.EZ (V/m) @ t=0
0.8539905969859527
% es.tEX (V/m) @ t=0
-0.7488097101586833
% es.tEY (V/m) @ t=0
0
% es.tEZ (V/m) @ t=0
0.8539905969859607
% es.Ex (V/m) @ t=0
-0.7488097101586824
% es.Ey (V/m) @ t=0
0.16636826496589152
% es.Ez (V/m) @ t=0
0.8539905969859527
% es.tEx (V/m) @ t=0
-0.7488097101586833
% es.tEy (V/m) @ t=0
0
% es.tEz (V/m) @ t=0
0.8539905969859607
% V (V) @ t=0
0.011221998051442021
% es.normE (V/m) @ t=0.02
1.0070645946102945
% es.EX (V/m) @ t=0.02
-0.6503477401740883
% es.EY (V/m) @ t=0.02
0.14449228660251978
% es.EZ (V/m) @ t=0.02
0.7416982525799085
% es.tEX (V/m) @ t=0.02
-0.6503477401740896
% es.tEY (V/m) @ t=0.02
0
% es.tEZ (V/m) @ t=0.02
0.741698252579913
% es.Ex (V/m) @ t=0.02
-0.6503477401740883
% es.Ey (V/m) @ t=0.02
0.14449228660251978
% es.Ez (V/m) @ t=0.02
0.7416982525799085
% es.tEx (V/m) @ t=0.02
-0.6503477401740896
% es.tEy (V/m) @ t=0.02
0
% es.tEz (V/m) @ t=0.02
0.741698252579913
% V (V) @ t=0.02
0.009746402569443051
% es.normE (V/m) @ t=0.04
1.0219977228824186
% es.EX (V/m) @ t=0.04
-0.6599913382523941
% es.EY (V/m) @ t=0.04
0.14663487214130044
% es.EZ (V/m) @ t=0.04
0.7526964300377559
% es.tEX (V/m) @ t=0.04
-0.6599913382523919
% es.tEY (V/m) @ t=0.04
0
% es.tEZ (V/m) @ t=0.04
0.7526964300377639
% es.Ex (V/m) @ t=0.04
-0.6599913382523941
% es.Ey (V/m) @ t=0.04
0.14663487214130044
% es.Ez (V/m) @ t=0.04
0.7526964300377559
% es.tEx (V/m) @ t=0.04
-0.6599913382523919
% es.tEy (V/m) @ t=0.04
0
% es.tEz (V/m) @ t=0.04
0.7526964300377639
% V (V) @ t=0.04
0.009890925846256251
% es.normE (V/m) @ t=0.06
1.037159083134081
% es.EX (V/m) @ t=0.06
-0.6697823250981212
% es.EY (V/m) @ t=0.06
0.14881020233525533
% es.EZ (V/m) @ t=0.06
0.7638627000133953
% es.tEX (V/m) @ t=0.06
-0.6697823250981223
% es.tEY (V/m) @ t=0.06
0
% es.tEZ (V/m) @ t=0.06
0.7638627000134033
% es.Ex (V/m) @ t=0.06
-0.6697823250981212
% es.Ey (V/m) @ t=0.06
0.14881020233525533
% es.Ez (V/m) @ t=0.06
0.7638627000133953
% es.tEx (V/m) @ t=0.06
-0.6697823250981223
% es.tEy (V/m) @ t=0.06
0
% es.tEz (V/m) @ t=0.06
0.7638627000134033
% V (V) @ t=0.06
0.010037658095378156
% es.normE (V/m) @ t=0.08
1.052697283473028
% es.EX (V/m) @ t=0.08
-0.6798166697852832
% es.EY (V/m) @ t=0.08
0.1510396007209398
% es.EZ (V/m) @ t=0.08
0.7753065110574129
% es.tEX (V/m) @ t=0.08
-0.6798166697852808
% es.tEY (V/m) @ t=0.08
0
% es.tEZ (V/m) @ t=0.08
0.7753065110574271
% es.Ex (V/m) @ t=0.08
-0.6798166697852832
% es.Ey (V/m) @ t=0.08
0.1510396007209398
% es.Ez (V/m) @ t=0.08
0.7753065110574129
% es.tEx (V/m) @ t=0.08
-0.6798166697852808
% es.tEy (V/m) @ t=0.08
0
% es.tEz (V/m) @ t=0.08
0.7753065110574271
% V (V) @ t=0.08
0.010188037440648473
% es.normE (V/m) @ t=0.1
1.0685189239279975
% es.EX (V/m) @ t=0.1
-0.6900340559723903
% es.EY (V/m) @ t=0.1
0.15330966647468658
% es.EZ (V/m) @ t=0.1
0.7869590745013806
% es.tEX (V/m) @ t=0.1
-0.6900340559723843
% es.tEY (V/m) @ t=0.1
0
% es.tEZ (V/m) @ t=0.1
0.786959074501385
% es.Ex (V/m) @ t=0.1
-0.6900340559723903
% es.Ey (V/m) @ t=0.1
0.15330966647468658
% es.Ez (V/m) @ t=0.1
0.7869590745013806
% es.tEx (V/m) @ t=0.1
-0.6900340559723843
% es.tEy (V/m) @ t=0.1
0
% es.tEz (V/m) @ t=0.1
0.786959074501385
% V (V) @ t=0.1
0.010341159947781047
% es.normE (V/m) @ t=0.12
1.0843405643829716
% es.EX (V/m) @ t=0.12
-0.7002514421594912
% es.EY (V/m) @ t=0.12
0.155579732228453
% es.EZ (V/m) @ t=0.12
0.7986116379453554
% es.tEX (V/m) @ t=0.12
-0.7002514421594923
% es.tEY (V/m) @ t=0.12
0
% es.tEZ (V/m) @ t=0.12
0.7986116379453634
% es.Ex (V/m) @ t=0.12
-0.7002514421594912
% es.Ey (V/m) @ t=0.12
0.155579732228453
% es.Ez (V/m) @ t=0.12
0.7986116379453554
% es.tEx (V/m) @ t=0.12
-0.7002514421594923
% es.tEy (V/m) @ t=0.12
0
% es.tEz (V/m) @ t=0.12
0.7986116379453634
% V (V) @ t=0.12
0.010494282454913623
% es.normE (V/m) @ t=0.14
1.100379041436658
% es.EX (V/m) @ t=0.14
-0.7106088587807233
% es.EY (V/m) @ t=0.14
0.15788091394586146
% es.EZ (V/m) @ t=0.14
0.8104238984033296
% es.tEX (V/m) @ t=0.14
-0.7106088587807244
% es.tEY (V/m) @ t=0.14
0
% es.tEZ (V/m) @ t=0.14
0.8104238984033447
% es.Ex (V/m) @ t=0.14
-0.7106088587807233
% es.Ey (V/m) @ t=0.14
0.15788091394586146
% es.Ez (V/m) @ t=0.14
0.8104238984033296
% es.tEx (V/m) @ t=0.14
-0.7106088587807244
% es.tEy (V/m) @ t=0.14
0
% es.tEz (V/m) @ t=0.14
0.8104238984033447
% V (V) @ t=0.14
0.010649503139658519
% es.normE (V/m) @ t=0.16
1.117632207342646
% es.EX (V/m) @ t=0.16
-0.7217507066664359
% es.EY (V/m) @ t=0.16
0.1603564030191834
% es.EZ (V/m) @ t=0.16
0.8231307596058386
% es.tEX (V/m) @ t=0.16
-0.7217507066664299
% es.tEY (V/m) @ t=0.16
0
% es.tEZ (V/m) @ t=0.16
0.8231307596058537
% es.Ex (V/m) @ t=0.16
-0.7217507066664359
% es.Ey (V/m) @ t=0.16
0.1603564030191834
% es.Ez (V/m) @ t=0.16
0.8231307596058386
% es.tEx (V/m) @ t=0.16
-0.7217507066664299
% es.tEy (V/m) @ t=0.16
0
% es.tEz (V/m) @ t=0.16
0.8231307596058537
% V (V) @ t=0.16
0.010816477527288289
% es.normE (V/m) @ t=0.18
1.1348853732486592
% es.EX (V/m) @ t=0.18
-0.7328925545521523
% es.EY (V/m) @ t=0.18
0.16283189209252302
% es.EZ (V/m) @ t=0.18
0.835837620808376
% es.tEX (V/m) @ t=0.18
-0.7328925545521499
% es.tEY (V/m) @ t=0.18
0
% es.tEZ (V/m) @ t=0.18
0.8358376208083698
% es.Ex (V/m) @ t=0.18
-0.7328925545521523
% es.Ey (V/m) @ t=0.18
0.16283189209252302
% es.Ez (V/m) @ t=0.18
0.835837620808376
% es.tEx (V/m) @ t=0.18
-0.7328925545521499
% es.tEy (V/m) @ t=0.18
0
% es.tEz (V/m) @ t=0.18
0.8358376208083698
% V (V) @ t=0.18
0.010983451914918056
% es.normE (V/m) @ t=0.2
1.1521385391546382
% es.EX (V/m) @ t=0.2
-0.7440344024378613
% es.EY (V/m) @ t=0.2
0.16530738116584676
% es.EZ (V/m) @ t=0.2
0.8485444820108778
% es.tEX (V/m) @ t=0.2
-0.7440344024378625
% es.tEY (V/m) @ t=0.2
0
% es.tEZ (V/m) @ t=0.2
0.8485444820108787
% es.Ex (V/m) @ t=0.2
-0.7440344024378613
% es.Ey (V/m) @ t=0.2
0.16530738116584676
% es.Ez (V/m) @ t=0.2
0.8485444820108778
% es.tEx (V/m) @ t=0.2
-0.7440344024378625
% es.tEy (V/m) @ t=0.2
0
% es.tEz (V/m) @ t=0.2
0.8485444820108787
% V (V) @ t=0.2
0.011150426302547827
% es.normE (V/m) @ t=0.22
1.1693917050606546
% es.EX (V/m) @ t=0.22
-0.755176250323577
% es.EY (V/m) @ t=0.22
0.1677828702391846
% es.EZ (V/m) @ t=0.22
0.8612513432134152
% es.tEX (V/m) @ t=0.22
-0.7551762503235746
% es.tEY (V/m) @ t=0.22
0
% es.tEZ (V/m) @ t=0.22
0.8612513432134161
% es.Ex (V/m) @ t=0.22
-0.755176250323577
% es.Ey (V/m) @ t=0.22
0.1677828702391846
% es.Ez (V/m) @ t=0.22
0.8612513432134152
% es.tEx (V/m) @ t=0.22
-0.7551762503235746
% es.tEy (V/m) @ t=0.22
0
% es.tEz (V/m) @ t=0.22
0.8612513432134161
% V (V) @ t=0.22
0.011317400690177597
% es.normE (V/m) @ t=0.24
1.1866448709666482
% es.EX (V/m) @ t=0.24
-0.7663180982092901
% es.EY (V/m) @ t=0.24
0.17025835931252797
% es.EZ (V/m) @ t=0.24
0.8739582044159242
% es.tEX (V/m) @ t=0.24
-0.7663180982092874
% es.tEY (V/m) @ t=0.24
0
% es.tEZ (V/m) @ t=0.24
0.8739582044159384
% es.Ex (V/m) @ t=0.24
-0.7663180982092901
% es.Ey (V/m) @ t=0.24
0.17025835931252797
% es.Ez (V/m) @ t=0.24
0.8739582044159242
% es.tEx (V/m) @ t=0.24
-0.7663180982092874
% es.tEy (V/m) @ t=0.24
0
% es.tEz (V/m) @ t=0.24
0.8739582044159384
% V (V) @ t=0.24
0.011484375077807363
% es.normE (V/m) @ t=0.26
1.2038980368726522
% es.EX (V/m) @ t=0.26
-0.7774599460950096
% es.EY (V/m) @ t=0.26
0.17273384838584804
% es.EZ (V/m) @ t=0.26
0.8866650656184438
% es.tEX (V/m) @ t=0.26
-0.7774599460950069
% es.tEY (V/m) @ t=0.26
0
% es.tEZ (V/m) @ t=0.26
0.8866650656184412
% es.Ex (V/m) @ t=0.26
-0.7774599460950096
% es.Ey (V/m) @ t=0.26
0.17273384838584804
% es.Ez (V/m) @ t=0.26
0.8866650656184438
% es.tEx (V/m) @ t=0.26
-0.7774599460950069
% es.tEy (V/m) @ t=0.26
0
% es.tEz (V/m) @ t=0.26
0.8866650656184412
% V (V) @ t=0.26
0.011651349465437133
% es.normE (V/m) @ t=0.28
1.2216350423059907
% es.EX (V/m) @ t=0.28
-0.7889142499616266
% es.EY (V/m) @ t=0.28
0.17527875282397642
% es.EZ (V/m) @ t=0.28
0.8997282747706903
% es.tEX (V/m) @ t=0.28
-0.7889142499616204
% es.tEY (V/m) @ t=0.28
0
% es.tEZ (V/m) @ t=0.28
0.8997282747707054
% es.Ex (V/m) @ t=0.28
-0.7889142499616266
% es.Ey (V/m) @ t=0.28
0.17527875282397642
% es.Ez (V/m) @ t=0.28
0.8997282747706903
% es.tEx (V/m) @ t=0.28
-0.7889142499616204
% es.tEy (V/m) @ t=0.28
0
% es.tEz (V/m) @ t=0.28
0.8997282747707054
% V (V) @ t=0.28
0.011823006902873336
% es.normE (V/m) @ t=0.3
1.240434208335139
% es.EX (V/m) @ t=0.3
-0.8010544804879971
% es.EY (V/m) @ t=0.3
0.17797604304510828
% es.EZ (V/m) @ t=0.3
0.9135737655043616
% es.tEX (V/m) @ t=0.3
-0.801054480487994
% es.tEY (V/m) @ t=0.3
0
% es.tEZ (V/m) @ t=0.3
0.9135737655043767
% es.Ex (V/m) @ t=0.3
-0.8010544804879971
% es.Ey (V/m) @ t=0.3
0.17797604304510828
% es.Ez (V/m) @ t=0.3
0.9135737655043616
% es.tEx (V/m) @ t=0.3
-0.801054480487994
% es.tEy (V/m) @ t=0.3
0
% es.tEz (V/m) @ t=0.3
0.9135737655043767
% V (V) @ t=0.3
0.012004944920319024
% es.normE (V/m) @ t=0.32
1.2592333743643016
% es.EX (V/m) @ t=0.32
-0.8131947110143742
% es.EY (V/m) @ t=0.32
0.1806733332662489
% es.EZ (V/m) @ t=0.32
0.927419256238041
% es.tEX (V/m) @ t=0.32
-0.813194711014368
% es.tEY (V/m) @ t=0.32
0
% es.tEZ (V/m) @ t=0.32
0.927419256238049
% es.Ex (V/m) @ t=0.32
-0.8131947110143742
% es.Ey (V/m) @ t=0.32
0.1806733332662489
% es.Ez (V/m) @ t=0.32
0.927419256238041
% es.tEx (V/m) @ t=0.32
-0.813194711014368
% es.tEy (V/m) @ t=0.32
0
% es.tEz (V/m) @ t=0.32
0.927419256238049
% V (V) @ t=0.32
0.012186882937764713
% es.normE (V/m) @ t=0.34
1.2780325403934483
% es.EX (V/m) @ t=0.34
-0.8253349415407376
% es.EY (V/m) @ t=0.34
0.18337062348739686
% es.EZ (V/m) @ t=0.34
0.9412647469717124
% es.tEX (V/m) @ t=0.34
-0.825334941540738
% es.tEY (V/m) @ t=0.34
0
% es.tEZ (V/m) @ t=0.34
0.9412647469717053
% es.Ex (V/m) @ t=0.34
-0.8253349415407376
% es.Ey (V/m) @ t=0.34
0.18337062348739686
% es.Ez (V/m) @ t=0.34
0.9412647469717124
% es.tEx (V/m) @ t=0.34
-0.825334941540738
% es.tEy (V/m) @ t=0.34
0
% es.tEz (V/m) @ t=0.34
0.9412647469717053
% V (V) @ t=0.34
0.012368820955210401
% es.normE (V/m) @ t=0.36
1.2968317064226036
% es.EX (V/m) @ t=0.36
-0.8374751720671183
% es.EY (V/m) @ t=0.36
0.18606791370851794
% es.EZ (V/m) @ t=0.36
0.9551102377053846
% es.tEX (V/m) @ t=0.36
-0.8374751720671156
% es.tEY (V/m) @ t=0.36
0
% es.tEZ (V/m) @ t=0.36
0.9551102377053926
% es.Ex (V/m) @ t=0.36
-0.8374751720671183
% es.Ey (V/m) @ t=0.36
0.18606791370851794
% es.Ez (V/m) @ t=0.36
0.9551102377053846
% es.tEx (V/m) @ t=0.36
-0.8374751720671156
% es.tEy (V/m) @ t=0.36
0
% es.tEz (V/m) @ t=0.36
0.9551102377053926
% V (V) @ t=0.36
0.01255075897265609
% es.normE (V/m) @ t=0.38
1.3156308724517518
% es.EX (V/m) @ t=0.38
-0.8496154025934857
% es.EY (V/m) @ t=0.38
0.18876520392965324
% es.EZ (V/m) @ t=0.38
0.968955728439056
% es.tEX (V/m) @ t=0.38
-0.8496154025934861
% es.tEY (V/m) @ t=0.38
0
% es.tEZ (V/m) @ t=0.38
0.968955728439064
% es.Ex (V/m) @ t=0.38
-0.8496154025934857
% es.Ey (V/m) @ t=0.38
0.18876520392965324
% es.Ez (V/m) @ t=0.38
0.968955728439056
% es.tEx (V/m) @ t=0.38
-0.8496154025934861
% es.tEy (V/m) @ t=0.38
0
% es.tEz (V/m) @ t=0.38
0.968955728439064
% V (V) @ t=0.38
0.01273269699010178
% es.normE (V/m) @ t=0.4
1.3344300384809098
% es.EX (V/m) @ t=0.4
-0.8617556331198624
% es.EY (V/m) @ t=0.4
0.19146249415079208
% es.EZ (V/m) @ t=0.4
0.9828012191727282
% es.tEX (V/m) @ t=0.4
-0.8617556331198597
% es.tEY (V/m) @ t=0.4
0
% es.tEZ (V/m) @ t=0.4
0.9828012191727433
% es.Ex (V/m) @ t=0.4
-0.8617556331198624
% es.Ey (V/m) @ t=0.4
0.19146249415079208
% es.Ez (V/m) @ t=0.4
0.9828012191727282
% es.tEx (V/m) @ t=0.4
-0.8617556331198597
% es.tEy (V/m) @ t=0.4
0
% es.tEz (V/m) @ t=0.4
0.9828012191727433
% V (V) @ t=0.4
0.012914635007547469
% es.normE (V/m) @ t=0.42
1.354018244454949
% es.EX (V/m) @ t=0.42
-0.8744054148032565
% es.EY (V/m) @ t=0.42
0.19427299999487624
% es.EZ (V/m) @ t=0.42
0.9972278316194032
% es.tEX (V/m) @ t=0.42
-0.874405414803257
% es.tEY (V/m) @ t=0.42
0
% es.tEZ (V/m) @ t=0.42
0.9972278316194112
% es.Ex (V/m) @ t=0.42
-0.8744054148032565
% es.Ey (V/m) @ t=0.42
0.19427299999487624
% es.Ez (V/m) @ t=0.42
0.9972278316194032
% es.tEx (V/m) @ t=0.42
-0.874405414803257
% es.tEy (V/m) @ t=0.42
0
% es.tEz (V/m) @ t=0.42
0.9972278316194112
% V (V) @ t=0.42
0.013104208946921493
% es.normE (V/m) @ t=0.44
1.374480466186522
% es.EX (V/m) @ t=0.44
-0.8876196238561169
% es.EY (V/m) @ t=0.44
0.19720891424077547
% es.EZ (V/m) @ t=0.44
1.0122981497967043
% es.tEX (V/m) @ t=0.44
-0.8876196238561178
% es.tEY (V/m) @ t=0.44
0
% es.tEZ (V/m) @ t=0.44
1.0122981497967194
% es.Ex (V/m) @ t=0.44
-0.8876196238561169
% es.Ey (V/m) @ t=0.44
0.19720891424077547
% es.Ez (V/m) @ t=0.44
1.0122981497967043
% es.tEx (V/m) @ t=0.44
-0.8876196238561178
% es.tEy (V/m) @ t=0.44
0
% es.tEz (V/m) @ t=0.44
1.0122981497967194
% V (V) @ t=0.44
0.013302241160343365
% es.normE (V/m) @ t=0.46
1.3949426879180886
% es.EX (V/m) @ t=0.46
-0.9008338329089742
% es.EY (V/m) @ t=0.46
0.20014482848668003
% es.EZ (V/m) @ t=0.46
1.0273684679739956
% es.tEX (V/m) @ t=0.46
-0.9008338329089751
% es.tEY (V/m) @ t=0.46
0
% es.tEZ (V/m) @ t=0.46
1.027368467974
% es.Ex (V/m) @ t=0.46
-0.9008338329089742
% es.Ey (V/m) @ t=0.46
0.20014482848668003
% es.Ez (V/m) @ t=0.46
1.0273684679739956
% es.tEx (V/m) @ t=0.46
-0.9008338329089751
% es.tEy (V/m) @ t=0.46
0
% es.tEz (V/m) @ t=0.46
1.027368467974
% V (V) @ t=0.46
0.013500273373765232
% es.normE (V/m) @ t=0.48
1.4154049096496726
% es.EX (V/m) @ t=0.48
-0.9140480419618395
% es.EY (V/m) @ t=0.48
0.2030807427325828
% es.EZ (V/m) @ t=0.48
1.042438786151302
% es.tEX (V/m) @ t=0.48
-0.914048041961836
% es.tEY (V/m) @ t=0.48
0
% es.tEZ (V/m) @ t=0.48
1.042438786151295
% es.Ex (V/m) @ t=0.48
-0.9140480419618395
% es.Ey (V/m) @ t=0.48
0.2030807427325828
% es.Ez (V/m) @ t=0.48
1.042438786151302
% es.tEx (V/m) @ t=0.48
-0.914048041961836
% es.tEy (V/m) @ t=0.48
0
% es.tEz (V/m) @ t=0.48
1.042438786151295
% V (V) @ t=0.48
0.0136983055871871
% es.normE (V/m) @ t=0.5
1.4358671313812414
% es.EX (V/m) @ t=0.5
-0.9272622510146973
% es.EY (V/m) @ t=0.5
0.20601665697848037
% es.EZ (V/m) @ t=0.5
1.0575091043285951
% es.tEX (V/m) @ t=0.5
-0.9272622510146937
% es.tEY (V/m) @ t=0.5
0
% es.tEZ (V/m) @ t=0.5
1.057509104328589
% es.Ex (V/m) @ t=0.5
-0.9272622510146973
% es.Ey (V/m) @ t=0.5
0.20601665697848037
% es.Ez (V/m) @ t=0.5
1.0575091043285951
% es.tEx (V/m) @ t=0.5
-0.9272622510146937
% es.tEy (V/m) @ t=0.5
0
% es.tEz (V/m) @ t=0.5
1.057509104328589
% V (V) @ t=0.5
0.013896337800608971
% es.normE (V/m) @ t=0.52
1.4563293531128187
% es.EX (V/m) @ t=0.52
-0.9404764600675688
% es.EY (V/m) @ t=0.52
0.20895257122438837
% es.EZ (V/m) @ t=0.52
1.0725794225058864
% es.tEX (V/m) @ t=0.52
-0.9404764600675652
% es.tEY (V/m) @ t=0.52
0
% es.tEZ (V/m) @ t=0.52
1.072579422505898
% es.Ex (V/m) @ t=0.52
-0.9404764600675688
% es.Ey (V/m) @ t=0.52
0.20895257122438837
% es.Ez (V/m) @ t=0.52
1.0725794225058864
% es.tEx (V/m) @ t=0.52
-0.9404764600675652
% es.tEy (V/m) @ t=0.52
0
% es.tEz (V/m) @ t=0.52
1.072579422505898
% V (V) @ t=0.52
0.014094370014030843
% es.normE (V/m) @ t=0.54
1.4767915748443796
% es.EX (V/m) @ t=0.54
-0.9536906691204301
% es.EY (V/m) @ t=0.54
0.2118884854702825
% es.EZ (V/m) @ t=0.54
1.0876497406831689
% es.tEX (V/m) @ t=0.54
-0.9536906691204301
% es.tEY (V/m) @ t=0.54
0
% es.tEZ (V/m) @ t=0.54
1.087649740683184
% es.Ex (V/m) @ t=0.54
-0.9536906691204301
% es.Ey (V/m) @ t=0.54
0.2118884854702825
% es.Ez (V/m) @ t=0.54
1.0876497406831689
% es.tEx (V/m) @ t=0.54
-0.9536906691204301
% es.tEy (V/m) @ t=0.54
0
% es.tEz (V/m) @ t=0.54
1.087649740683184
% V (V) @ t=0.54
0.014292402227452707
% es.normE (V/m) @ t=0.56
1.4977423672587968
% es.EX (V/m) @ t=0.56
-0.9672203895647327
% es.EY (V/m) @ t=0.56
0.21489449464303634
% es.EZ (V/m) @ t=0.56
1.1030798909223716
% es.tEX (V/m) @ t=0.56
-0.9672203895647327
% es.tEY (V/m) @ t=0.56
0
% es.tEZ (V/m) @ t=0.56
1.1030798909223751
% es.Ex (V/m) @ t=0.56
-0.9672203895647327
% es.Ey (V/m) @ t=0.56
0.21489449464303634
% es.Ez (V/m) @ t=0.56
1.1030798909223716
% es.tEx (V/m) @ t=0.56
-0.9672203895647327
% es.tEy (V/m) @ t=0.56
0
% es.tEz (V/m) @ t=0.56
1.1030798909223751
% V (V) @ t=0.56
0.014495163214162839
% es.normE (V/m) @ t=0.58
1.519141003031027
% es.EX (V/m) @ t=0.58
-0.981039320323811
% es.EY (V/m) @ t=0.58
0.2179647556190436
% es.EZ (V/m) @ t=0.58
1.118839877569103
% es.tEX (V/m) @ t=0.58
-0.981039320323811
% es.tEY (V/m) @ t=0.58
0
% es.tEZ (V/m) @ t=0.58
1.118839877569111
% es.Ex (V/m) @ t=0.58
-0.981039320323811
% es.Ey (V/m) @ t=0.58
0.2179647556190436
% es.Ez (V/m) @ t=0.58
1.118839877569103
% es.tEx (V/m) @ t=0.58
-0.981039320323811
% es.tEy (V/m) @ t=0.58
0
% es.tEz (V/m) @ t=0.58
1.118839877569111
% V (V) @ t=0.58
0.014702258782914512
% es.normE (V/m) @ t=0.6
1.5407452092947085
% es.EX (V/m) @ t=0.6
-0.9949910053272029
% es.EY (V/m) @ t=0.6
0.22106450966346392
% es.EZ (V/m) @ t=0.6
1.1347512667792747
% es.tEX (V/m) @ t=0.6
-0.9949910053271993
% es.tEY (V/m) @ t=0.6
0
% es.tEZ (V/m) @ t=0.6
1.1347512667792827
% es.Ex (V/m) @ t=0.6
-0.9949910053272029
% es.Ey (V/m) @ t=0.6
0.22106450966346392
% es.Ez (V/m) @ t=0.6
1.1347512667792747
% es.tEx (V/m) @ t=0.6
-0.9949910053271993
% es.tEy (V/m) @ t=0.6
0
% es.tEz (V/m) @ t=0.6
1.1347512667792827
% V (V) @ t=0.6
0.01491134402538786
% es.normE (V/m) @ t=0.62
1.5625549860498231
% es.EX (V/m) @ t=0.62
-1.0090754445749237
% es.EY (V/m) @ t=0.62
0.2241937567762421
% es.EZ (V/m) @ t=0.62
1.1508140585528688
% es.tEX (V/m) @ t=0.62
-1.0090754445749202
% es.tEY (V/m) @ t=0.62
0
% es.tEZ (V/m) @ t=0.62
1.1508140585528839
% es.Ex (V/m) @ t=0.62
-1.0090754445749237
% es.Ey (V/m) @ t=0.62
0.2241937567762421
% es.Ez (V/m) @ t=0.62
1.1508140585528688
% es.tEx (V/m) @ t=0.62
-1.0090754445749202
% es.tEy (V/m) @ t=0.62
0
% es.tEz (V/m) @ t=0.62
1.1508140585528839
% V (V) @ t=0.62
0.015122418941582876
% es.normE (V/m) @ t=0.64
1.5845703332963954
% es.EX (V/m) @ t=0.64
-1.0232926380669478
% es.EY (V/m) @ t=0.64
0.22735249695741555
% es.EZ (V/m) @ t=0.64
1.1670282528899207
% es.tEX (V/m) @ t=0.64
-1.0232926380669443
% es.tEY (V/m) @ t=0.64
0
% es.tEZ (V/m) @ t=0.64
1.1670282528899358
% es.Ex (V/m) @ t=0.64
-1.0232926380669478
% es.Ey (V/m) @ t=0.64
0.22735249695741555
% es.Ez (V/m) @ t=0.64
1.1670282528899207
% es.tEx (V/m) @ t=0.64
-1.0232926380669443
% es.tEy (V/m) @ t=0.64
0
% es.tEz (V/m) @ t=0.64
1.1670282528899358
% V (V) @ t=0.64
0.015335483531499565
% es.normE (V/m) @ t=0.66
1.6067912510344098
% es.EX (V/m) @ t=0.66
-1.0376425858032974
% es.EY (V/m) @ t=0.66
0.23054073020697008
% es.EZ (V/m) @ t=0.66
1.183393849790403
% es.tEX (V/m) @ t=0.66
-1.0376425858032938
% es.tEY (V/m) @ t=0.66
0
% es.tEZ (V/m) @ t=0.66
1.1833938497904182
% es.Ex (V/m) @ t=0.66
-1.0376425858032974
% es.Ey (V/m) @ t=0.66
0.23054073020697008
% es.Ez (V/m) @ t=0.66
1.183393849790403
% es.tEx (V/m) @ t=0.66
-1.0376425858032938
% es.tEy (V/m) @ t=0.66
0
% es.tEz (V/m) @ t=0.66
1.1833938497904182
% V (V) @ t=0.66
0.015550537795137927
% es.normE (V/m) @ t=0.68
1.629217739263877
% es.EX (V/m) @ t=0.68
-1.0521252877839617
% es.EY (V/m) @ t=0.68
0.23375845652489669
% es.EZ (V/m) @ t=0.68
1.1999108492543424
% es.tEX (V/m) @ t=0.68
-1.0521252877839582
% es.tEY (V/m) @ t=0.68
0
% es.tEZ (V/m) @ t=0.68
1.1999108492543504
% es.Ex (V/m) @ t=0.68
-1.0521252877839617
% es.Ey (V/m) @ t=0.68
0.23375845652489669
% es.Ez (V/m) @ t=0.68
1.1999108492543424
% es.tEx (V/m) @ t=0.68
-1.0521252877839582
% es.tEy (V/m) @ t=0.68
0
% es.tEz (V/m) @ t=0.68
1.1999108492543504
% V (V) @ t=0.68
0.015767581732497957
% es.normE (V/m) @ t=0.7
1.6518497979847924
% es.EX (V/m) @ t=0.7
-1.0667407440089436
% es.EY (V/m) @ t=0.7
0.23700567591120802
% es.EZ (V/m) @ t=0.7
1.2165792512817175
% es.tEX (V/m) @ t=0.7
-1.06674074400894
% es.tEY (V/m) @ t=0.7
0
% es.tEZ (V/m) @ t=0.7
1.2165792512817184
% es.Ex (V/m) @ t=0.7
-1.0667407440089436
% es.Ey (V/m) @ t=0.7
0.23700567591120802
% es.Ez (V/m) @ t=0.7
1.2165792512817175
% es.tEx (V/m) @ t=0.7
-1.06674074400894
% es.tEy (V/m) @ t=0.7
0
% es.tEz (V/m) @ t=0.7
1.2165792512817184
% V (V) @ t=0.7
0.01598661534357966
% es.normE (V/m) @ t=0.72
1.6746874271971244
% es.EX (V/m) @ t=0.72
-1.0814889544782407
% es.EY (V/m) @ t=0.72
0.24028238836591265
% es.EZ (V/m) @ t=0.72
1.2333990558724945
% es.tEX (V/m) @ t=0.72
-1.0814889544782336
% es.tEY (V/m) @ t=0.72
0
% es.tEZ (V/m) @ t=0.72
1.2333990558725247
% es.Ex (V/m) @ t=0.72
-1.0814889544782407
% es.Ey (V/m) @ t=0.72
0.24028238836591265
% es.Ez (V/m) @ t=0.72
1.2333990558724945
% es.tEx (V/m) @ t=0.72
-1.0814889544782336
% es.tEy (V/m) @ t=0.72
0
% es.tEz (V/m) @ t=0.72
1.2333990558725247
% V (V) @ t=0.72
0.016207638628383036
% es.normE (V/m) @ t=0.74
1.6977306269009484
% es.EX (V/m) @ t=0.74
-1.0963699191918574
% es.EY (V/m) @ t=0.74
0.24358859388899645
% es.EZ (V/m) @ t=0.74
1.2503702630267703
% es.tEX (V/m) @ t=0.74
-1.0963699191918574
% es.tEY (V/m) @ t=0.74
0
% es.tEZ (V/m) @ t=0.74
1.2503702630267686
% es.Ex (V/m) @ t=0.74
-1.0963699191918574
% es.Ey (V/m) @ t=0.74
0.24358859388899645
% es.Ez (V/m) @ t=0.74
1.2503702630267703
% es.tEx (V/m) @ t=0.74
-1.0963699191918574
% es.tEy (V/m) @ t=0.74
0
% es.tEz (V/m) @ t=0.74
1.2503702630267686
% V (V) @ t=0.74
0.016430651586908086
% es.normE (V/m) @ t=0.76
1.7209793970961849
% es.EX (V/m) @ t=0.76
-1.1113836381497793
% es.EY (V/m) @ t=0.76
0.24692429248044545
% es.EZ (V/m) @ t=0.76
1.2674928727444499
% es.tEX (V/m) @ t=0.76
-1.1113836381497793
% es.tEY (V/m) @ t=0.76
0
% es.tEZ (V/m) @ t=0.76
1.2674928727444552
% es.Ex (V/m) @ t=0.76
-1.1113836381497793
% es.Ey (V/m) @ t=0.76
0.24692429248044545
% es.Ez (V/m) @ t=0.76
1.2674928727444499
% es.tEx (V/m) @ t=0.76
-1.1113836381497793
% es.tEy (V/m) @ t=0.76
0
% es.tEz (V/m) @ t=0.76
1.2674928727444552
% V (V) @ t=0.76
0.016655654219154804
% es.normE (V/m) @ t=0.78
1.744433737782874
% es.EX (V/m) @ t=0.78
-1.1265301113520296
% es.EY (V/m) @ t=0.78
0.25028948414028795
% es.EZ (V/m) @ t=0.78
1.2847668850255722
% es.tEX (V/m) @ t=0.78
-1.1265301113520256
% es.tEY (V/m) @ t=0.78
0
% es.tEZ (V/m) @ t=0.78
1.2847668850255776
% es.Ex (V/m) @ t=0.78
-1.1265301113520296
% es.Ey (V/m) @ t=0.78
0.25028948414028795
% es.Ez (V/m) @ t=0.78
1.2847668850255722
% es.tEx (V/m) @ t=0.78
-1.1265301113520256
% es.tEy (V/m) @ t=0.78
0
% es.tEz (V/m) @ t=0.78
1.2847668850255776
% V (V) @ t=0.78
0.016882646525123196
% es.normE (V/m) @ t=0.8
1.768093648961013
% es.EX (V/m) @ t=0.8
-1.1418093387985917
% es.EY (V/m) @ t=0.8
0.2536841688685151
% es.EZ (V/m) @ t=0.8
1.3021922998701339
% es.tEX (V/m) @ t=0.8
-1.1418093387985877
% es.tEY (V/m) @ t=0.8
0
% es.tEZ (V/m) @ t=0.8
1.3021922998701427
% es.Ex (V/m) @ t=0.8
-1.1418093387985917
% es.Ey (V/m) @ t=0.8
0.2536841688685151
% es.Ez (V/m) @ t=0.8
1.3021922998701339
% es.tEx (V/m) @ t=0.8
-1.1418093387985877
% es.tEy (V/m) @ t=0.8
0
% es.tEz (V/m) @ t=0.8
1.3021922998701427
% V (V) @ t=0.8
0.017111628504813264
% es.normE (V/m) @ t=0.82
1.7919591306306184
% es.EX (V/m) @ t=0.82
-1.157221320489481
% es.EY (V/m) @ t=0.82
0.2571083466651196
% es.EZ (V/m) @ t=0.82
1.3197691172781614
% es.tEX (V/m) @ t=0.82
-1.1572213204894841
% es.tEY (V/m) @ t=0.82
0
% es.tEZ (V/m) @ t=0.82
1.319769117278181
% es.Ex (V/m) @ t=0.82
-1.157221320489481
% es.Ey (V/m) @ t=0.82
0.2571083466651196
% es.Ez (V/m) @ t=0.82
1.3197691172781614
% es.tEx (V/m) @ t=0.82
-1.1572213204894841
% es.tEy (V/m) @ t=0.82
0
% es.tEz (V/m) @ t=0.82
1.319769117278181
% V (V) @ t=0.82
0.017342600158225
% es.normE (V/m) @ t=0.84
1.8164385488686277
% es.EX (V/m) @ t=0.84
-1.1730297741736426
% es.EY (V/m) @ t=0.84
0.2606206180125782
% es.EZ (V/m) @ t=0.84
1.3377980929976232
% es.tEX (V/m) @ t=0.84
-1.1730297741736386
% es.tEY (V/m) @ t=0.84
0
% es.tEZ (V/m) @ t=0.84
1.337798092997632
% es.Ex (V/m) @ t=0.84
-1.1730297741736426
% es.Ey (V/m) @ t=0.84
0.2606206180125782
% es.Ez (V/m) @ t=0.84
1.3377980929976232
% es.tEx (V/m) @ t=0.84
-1.1730297741736386
% es.tEy (V/m) @ t=0.84
0
% es.tEz (V/m) @ t=0.84
1.337798092997632
% V (V) @ t=0.84
0.017579512975571063
% es.normE (V/m) @ t=0.86
1.8411980298800399
% es.EX (V/m) @ t=0.86
-1.189019088294124
% es.EY (V/m) @ t=0.86
0.2641730720618045
% es.EZ (V/m) @ t=0.86
1.3560333337758532
% es.tEX (V/m) @ t=0.86
-1.1890190882941196
% es.tEY (V/m) @ t=0.86
0
% es.tEZ (V/m) @ t=0.86
1.3560333337758603
% es.Ex (V/m) @ t=0.86
-1.189019088294124
% es.Ey (V/m) @ t=0.86
0.2641730720618045
% es.Ez (V/m) @ t=0.86
1.3560333337758532
% es.tEx (V/m) @ t=0.86
-1.1890190882941196
% es.tEy (V/m) @ t=0.86
0
% es.tEz (V/m) @ t=0.86
1.3560333337758603
% V (V) @ t=0.86
0.017819136279506625
% es.normE (V/m) @ t=0.88
1.8662212750979488
% es.EX (V/m) @ t=0.88
-1.205178737438553
% es.EY (V/m) @ t=0.88
0.26776336997044736
% es.EZ (V/m) @ t=0.88
1.3744628359524675
% es.tEX (V/m) @ t=0.88
-1.205178737438556
% es.tEY (V/m) @ t=0.88
0
% es.tEZ (V/m) @ t=0.88
1.3744628359524764
% es.Ex (V/m) @ t=0.88
-1.205178737438553
% es.Ey (V/m) @ t=0.88
0.26776336997044736
% es.Ez (V/m) @ t=0.88
1.3744628359524675
% es.tEx (V/m) @ t=0.88
-1.205178737438556
% es.tEy (V/m) @ t=0.88
0
% es.tEz (V/m) @ t=0.88
1.3744628359524764
% V (V) @ t=0.88
0.01806131235950862
% es.normE (V/m) @ t=0.9
1.8915082845223914
% es.EX (V/m) @ t=0.9
-1.2215087216068925
% es.EY (V/m) @ t=0.9
0.2713915117385297
% es.EZ (V/m) @ t=0.9
1.3930865995275497
% es.tEX (V/m) @ t=0.9
-1.221508721606888
% es.tEY (V/m) @ t=0.9
0
% es.tEZ (V/m) @ t=0.9
1.3930865995275532
% es.Ex (V/m) @ t=0.9
-1.2215087216068925
% es.Ey (V/m) @ t=0.9
0.2713915117385297
% es.Ez (V/m) @ t=0.9
1.3930865995275497
% es.tEx (V/m) @ t=0.9
-1.221508721606888
% es.tEy (V/m) @ t=0.9
0
% es.tEz (V/m) @ t=0.9
1.3930865995275532
% V (V) @ t=0.9
0.018306041215577055
% es.normE (V/m) @ t=0.92
1.9170590581532843
% es.EX (V/m) @ t=0.92
-1.2380090407991502
% es.EY (V/m) @ t=0.92
0.2750574973660407
% es.EZ (V/m) @ t=0.92
1.4119046245009752
% es.tEX (V/m) @ t=0.92
-1.2380090407991458
% es.tEY (V/m) @ t=0.92
0
% es.tEZ (V/m) @ t=0.92
1.4119046245009983
% es.Ex (V/m) @ t=0.92
-1.2380090407991502
% es.Ey (V/m) @ t=0.92
0.2750574973660407
% es.Ez (V/m) @ t=0.92
1.4119046245009752
% es.tEx (V/m) @ t=0.92
-1.2380090407991458
% es.tEy (V/m) @ t=0.92
0
% es.tEz (V/m) @ t=0.92
1.4119046245009983
% V (V) @ t=0.92
0.018553322847711926
% es.normE (V/m) @ t=0.94
1.9428735959906946
% es.EX (V/m) @ t=0.94
-1.2546796950153358
% es.EY (V/m) @ t=0.94
0.27876132685298827
% es.EZ (V/m) @ t=0.94
1.430916910872833
% es.tEX (V/m) @ t=0.94
-1.2546796950153314
% es.tEY (V/m) @ t=0.94
0
% es.tEZ (V/m) @ t=0.94
1.4309169108728401
% es.Ex (V/m) @ t=0.94
-1.2546796950153358
% es.Ey (V/m) @ t=0.94
0.27876132685298827
% es.Ez (V/m) @ t=0.94
1.430916910872833
% es.tEx (V/m) @ t=0.94
-1.2546796950153314
% es.tEy (V/m) @ t=0.94
0
% es.tEz (V/m) @ t=0.94
1.4309169108728401
% V (V) @ t=0.94
0.01880315725591323
% es.normE (V/m) @ t=0.96
1.9689518980346308
% es.EX (V/m) @ t=0.96
-1.2715206842554378
% es.EY (V/m) @ t=0.96
0.28250300019932006
% es.EZ (V/m) @ t=0.96
1.4501234586431462
% es.tEX (V/m) @ t=0.96
-1.2715206842554405
% es.tEY (V/m) @ t=0.96
0
% es.tEZ (V/m) @ t=0.96
1.4501234586431462
% es.Ex (V/m) @ t=0.96
-1.2715206842554378
% es.Ey (V/m) @ t=0.96
0.28250300019932006
% es.Ez (V/m) @ t=0.96
1.4501234586431462
% es.tEx (V/m) @ t=0.96
-1.2715206842554405
% es.tEy (V/m) @ t=0.96
0
% es.tEz (V/m) @ t=0.96
1.4501234586431462
% V (V) @ t=0.96
0.01905554444018097
% es.normE (V/m) @ t=0.98
1.995293964285024
% es.EX (V/m) @ t=0.98
-1.288532008519451
% es.EY (V/m) @ t=0.98
0.2862825174051
% es.EZ (V/m) @ t=0.98
1.4695242678118259
% es.tEX (V/m) @ t=0.98
-1.288532008519454
% es.tEY (V/m) @ t=0.98
0
% es.tEZ (V/m) @ t=0.98
1.4695242678118259
% es.Ex (V/m) @ t=0.98
-1.288532008519451
% es.Ey (V/m) @ t=0.98
0.2862825174051
% es.Ez (V/m) @ t=0.98
1.4695242678118259
% es.tEx (V/m) @ t=0.98
-1.288532008519454
% es.tEy (V/m) @ t=0.98
0
% es.tEz (V/m) @ t=0.98
1.4695242678118259
% V (V) @ t=0.98
0.01931048440051515
% es.normE (V/m) @ t=1
2.021899794741972
% es.EX (V/m) @ t=1
-1.3057136678074315
% es.EY (V/m) @ t=1
0.2900998784702913
% es.EZ (V/m) @ t=1
1.489119338378952
% es.tEX (V/m) @ t=1
-1.30571366780742
% es.tEY (V/m) @ t=1
0
% es.tEZ (V/m) @ t=1
1.4891193383789663
% es.Ex (V/m) @ t=1
-1.3057136678074315
% es.Ey (V/m) @ t=1
0.2900998784702913
% es.Ez (V/m) @ t=1
1.489119338378952
% es.tEx (V/m) @ t=1
-1.30571366780742
% es.tEy (V/m) @ t=1
0
% es.tEz (V/m) @ t=1
1.4891193383789663
% V (V) @ t=1
0.019567977136915767
% es.normE (V/m) @ t=1.02
2.0487693894053787
% es.EX (V/m) @ t=1.02
-1.3230656621192978
% es.EY (V/m) @ t=1.02
0.2939550833949507
% es.EZ (V/m) @ t=1.02
1.5089086703444483
% es.tEX (V/m) @ t=1.02
-1.3230656621192933
% es.tEY (V/m) @ t=1.02
0
% es.tEZ (V/m) @ t=1.02
1.50890867034445
% es.Ex (V/m) @ t=1.02
-1.3230656621192978
% es.Ey (V/m) @ t=1.02
0.2939550833949507
% es.Ez (V/m) @ t=1.02
1.5089086703444483
% es.tEx (V/m) @ t=1.02
-1.3230656621192933
% es.tEy (V/m) @ t=1.02
0
% es.tEz (V/m) @ t=1.02
1.50890867034445
% V (V) @ t=1.02
0.019828022649382826
% es.normE (V/m) @ t=1.04
2.0759027482752925
% es.EX (V/m) @ t=1.04
-1.3405879914550805
% es.EY (V/m) @ t=1.04
0.297848132178989
% es.EZ (V/m) @ t=1.04
1.5288922637083928
% es.tEX (V/m) @ t=1.04
-1.3405879914550756
% es.tEY (V/m) @ t=1.04
0
% es.tEZ (V/m) @ t=1.04