% Model:              1 neuron.mph
% Version:            COMSOL 6.0.0.405
% Date:               Mar 16 2023, 19:20
% Dimension:          0
% Nodes:              14017
% Expressions:        14017
% Description:        Electric field norm, Electric field, X component, Electric field, Y component, Electric field, Z component, Tangential electric field, X component, Tangential electric field, Y component, Tangential electric field, Z component, Electric field, x component, Electric field, y component, Electric field, z component, Tangential electric field, x component, Tangential electric field, y component, Tangential electric field, z component, Electric potential
% Length unit:        mm
% x
1.66
% y
12.2
% z
1
% es.normE (V/m) @ t=0
2.2902455218216895
% es.EX (V/m) @ t=0
-0.8163281943600053
% es.EY (V/m) @ t=0
0.25934436608291445
% es.EZ (V/m) @ t=0
2.117467703318841
% es.tEX (V/m) @ t=0
-0.8163281943600124
% es.tEY (V/m) @ t=0
0
% es.tEZ (V/m) @ t=0
2.117467703318839
% es.Ex (V/m) @ t=0
-0.8163281943600053
% es.Ey (V/m) @ t=0
0.25934436608291445
% es.Ez (V/m) @ t=0
2.117467703318841
% es.tEx (V/m) @ t=0
-0.8163281943600124
% es.tEy (V/m) @ t=0
0
% es.tEz (V/m) @ t=0
2.117467703318839
% V (V) @ t=0
0.01115071856097542
% es.normE (V/m) @ t=0.02
1.989096360609831
% es.EX (V/m) @ t=0.02
-0.7089875009783697
% es.EY (V/m) @ t=0.02
0.22524263616139883
% es.EZ (V/m) @ t=0.02
1.8390374566147845
% es.tEX (V/m) @ t=0.02
-0.7089875009783733
% es.tEY (V/m) @ t=0.02
0
% es.tEZ (V/m) @ t=0.02
1.839037456614788
% es.Ex (V/m) @ t=0.02
-0.7089875009783697
% es.Ey (V/m) @ t=0.02
0.22524263616139883
% es.Ez (V/m) @ t=0.02
1.8390374566147845
% es.tEx (V/m) @ t=0.02
-0.7089875009783733
% es.tEy (V/m) @ t=0.02
0
% es.tEz (V/m) @ t=0.02
1.839037456614788
% V (V) @ t=0.02
0.00968448704466182
% es.normE (V/m) @ t=0.04
2.0185905837518785
% es.EX (V/m) @ t=0.04
-0.7195003411594051
% es.EY (V/m) @ t=0.04
0.22858252687163927
% es.EZ (V/m) @ t=0.04
1.866306610902984
% es.tEX (V/m) @ t=0.04
-0.7195003411594122
% es.tEY (V/m) @ t=0.04
0
% es.tEZ (V/m) @ t=0.04
1.8663066109029796
% es.Ex (V/m) @ t=0.04
-0.7195003411594051
% es.Ey (V/m) @ t=0.04
0.22858252687163927
% es.Ez (V/m) @ t=0.04
1.866306610902984
% es.tEx (V/m) @ t=0.04
-0.7195003411594122
% es.tEy (V/m) @ t=0.04
0
% es.tEz (V/m) @ t=0.04
1.8663066109029796
% V (V) @ t=0.04
0.009828087544043443
% es.normE (V/m) @ t=0.06
2.048526020589219
% es.EX (V/m) @ t=0.06
-0.7301704325230587
% es.EY (V/m) @ t=0.06
0.2319723736079009
% es.EZ (V/m) @ t=0.06
1.8939836979819198
% es.tEX (V/m) @ t=0.06
-0.7301704325230729
% es.tEY (V/m) @ t=0.06
0
% es.tEZ (V/m) @ t=0.06
1.893983697981918
% es.Ex (V/m) @ t=0.06
-0.7301704325230587
% es.Ey (V/m) @ t=0.06
0.2319723736079009
% es.Ez (V/m) @ t=0.06
1.8939836979819198
% es.tEx (V/m) @ t=0.06
-0.7301704325230729
% es.tEy (V/m) @ t=0.06
0
% es.tEz (V/m) @ t=0.06
1.893983697981918
% V (V) @ t=0.06
0.009973837201827717
% es.normE (V/m) @ t=0.08
2.079228542749899
% es.EX (V/m) @ t=0.08
-0.7411139454047913
% es.EY (V/m) @ t=0.08
0.2354490859906193
% es.EZ (V/m) @ t=0.08
1.922369999580459
% es.tEX (V/m) @ t=0.08
-0.7411139454048019
% es.tEY (V/m) @ t=0.08
0
% es.tEZ (V/m) @ t=0.08
1.9223699995804626
% es.Ex (V/m) @ t=0.08
-0.7411139454047913
% es.Ey (V/m) @ t=0.08
0.2354490859906193
% es.Ez (V/m) @ t=0.08
1.922369999580459
% es.tEx (V/m) @ t=0.08
-0.7411139454048019
% es.tEy (V/m) @ t=0.08
0
% es.tEz (V/m) @ t=0.08
1.9223699995804626
% V (V) @ t=0.08
0.01012332135136599
% es.normE (V/m) @ t=0.1
2.1104588821576327
% es.EX (V/m) @ t=0.1
-0.7522455945844959
% es.EY (V/m) @ t=0.1
0.23898556902072232
% es.EZ (V/m) @ t=0.1
1.9512442985945633
% es.tEX (V/m) @ t=0.1
-0.7522455945845066
% es.tEY (V/m) @ t=0.1
0
% es.tEZ (V/m) @ t=0.1
1.9512442985945615
% es.Ex (V/m) @ t=0.1
-0.7522455945844959
% es.Ey (V/m) @ t=0.1
0.23898556902072232
% es.Ez (V/m) @ t=0.1
1.9512442985945633
% es.tEx (V/m) @ t=0.1
-0.7522455945845066
% es.tEy (V/m) @ t=0.1
0
% es.tEz (V/m) @ t=0.1
1.9512442985945615
% V (V) @ t=0.1
0.01027537513572428
% es.normE (V/m) @ t=0.12
2.141689221565371
% es.EX (V/m) @ t=0.12
-0.763377243764197
% es.EY (V/m) @ t=0.12
0.24252205205083244
% es.EZ (V/m) @ t=0.12
1.9801185976086737
% es.tEX (V/m) @ t=0.12
-0.7633772437642112
% es.tEY (V/m) @ t=0.12
0
% es.tEZ (V/m) @ t=0.12
1.9801185976086728
% es.Ex (V/m) @ t=0.12
-0.763377243764197
% es.Ey (V/m) @ t=0.12
0.24252205205083244
% es.Ez (V/m) @ t=0.12
1.9801185976086737
% es.tEx (V/m) @ t=0.12
-0.7633772437642112
% es.tEy (V/m) @ t=0.12
0
% es.tEz (V/m) @ t=0.12
1.9801185976086728
% V (V) @ t=0.12
0.010427428920082572
% es.normE (V/m) @ t=0.14
2.173465714488934
% es.EX (V/m) @ t=0.14
-0.7747035911797443
% es.EY (V/m) @ t=0.14
0.24612039412111542
% es.EZ (V/m) @ t=0.14
2.009497838248407
% es.tEX (V/m) @ t=0.14
-0.774703591179755
% es.tEY (V/m) @ t=0.14
0
% es.tEZ (V/m) @ t=0.14
2.0094978382484054
% es.Ex (V/m) @ t=0.14
-0.7747035911797443
% es.Ey (V/m) @ t=0.14
0.24612039412111542
% es.Ez (V/m) @ t=0.14
2.009497838248407
% es.tEx (V/m) @ t=0.14
-0.774703591179755
% es.tEy (V/m) @ t=0.14
0
% es.tEz (V/m) @ t=0.14
2.0094978382484054
% V (V) @ t=0.14
0.010582139739039185
% es.normE (V/m) @ t=0.16
2.2075007105820066
% es.EX (V/m) @ t=0.16
-0.7868350722618831
% es.EY (V/m) @ t=0.16
0.24997454126132035
% es.EZ (V/m) @ t=0.16
2.0409651589404474
% es.tEX (V/m) @ t=0.16
-0.7868350722618902
% es.tEY (V/m) @ t=0.16
0
% es.tEZ (V/m) @ t=0.16
2.040965158940452
% es.Ex (V/m) @ t=0.16
-0.7868350722618831
% es.Ey (V/m) @ t=0.16
0.24997454126132035
% es.Ez (V/m) @ t=0.16
2.0409651589404474
% es.tEx (V/m) @ t=0.16
-0.7868350722618902
% es.tEy (V/m) @ t=0.16
0
% es.tEz (V/m) @ t=0.16
2.040965158940452
% V (V) @ t=0.16
0.010747838166585583
% es.normE (V/m) @ t=0.18
2.241535706675112
% es.EX (V/m) @ t=0.18
-0.7989665533440393
% es.EY (V/m) @ t=0.18
0.2538286884015106
% es.EZ (V/m) @ t=0.18
2.072432479632485
% es.tEX (V/m) @ t=0.18
-0.7989665533440464
% es.tEY (V/m) @ t=0.18
0
% es.tEZ (V/m) @ t=0.18
2.072432479632486
% es.Ex (V/m) @ t=0.18
-0.7989665533440393
% es.Ey (V/m) @ t=0.18
0.2538286884015106
% es.Ez (V/m) @ t=0.18
2.072432479632485
% es.tEx (V/m) @ t=0.18
-0.7989665533440464
% es.tEy (V/m) @ t=0.18
0
% es.tEz (V/m) @ t=0.18
2.072432479632486
% V (V) @ t=0.18
0.010913536594131981
% es.normE (V/m) @ t=0.2
2.275570702768243
% es.EX (V/m) @ t=0.2
-0.8110980344261852
% es.EY (V/m) @ t=0.2
0.25768283554169313
% es.EZ (V/m) @ t=0.2
2.1038998003245224
% es.tEX (V/m) @ t=0.2
-0.8110980344261959
% es.tEY (V/m) @ t=0.2
0
% es.tEZ (V/m) @ t=0.2
2.103899800324527
% es.Ex (V/m) @ t=0.2
-0.8110980344261852
% es.Ey (V/m) @ t=0.2
0.25768283554169313
% es.Ez (V/m) @ t=0.2
2.1038998003245224
% es.tEx (V/m) @ t=0.2
-0.8110980344261959
% es.tEy (V/m) @ t=0.2
0
% es.tEz (V/m) @ t=0.2
2.103899800324527
% V (V) @ t=0.2
0.01107923502167838
% es.normE (V/m) @ t=0.22
2.3096056988614153
% es.EX (V/m) @ t=0.22
-0.8232295155083381
% es.EY (V/m) @ t=0.22
0.26153698268189696
% es.EZ (V/m) @ t=0.22
2.135367121016568
% es.tEX (V/m) @ t=0.22
-0.8232295155083523
% es.tEY (V/m) @ t=0.22
0
% es.tEZ (V/m) @ t=0.22
2.1353671210165714
% es.Ex (V/m) @ t=0.22
-0.8232295155083381
% es.Ey (V/m) @ t=0.22
0.26153698268189696
% es.Ez (V/m) @ t=0.22
2.135367121016568
% es.tEx (V/m) @ t=0.22
-0.8232295155083523
% es.tEy (V/m) @ t=0.22
0
% es.tEz (V/m) @ t=0.22
2.1353671210165714
% V (V) @ t=0.22
0.01124493344922478
% es.normE (V/m) @ t=0.24
2.343640694954612
% es.EX (V/m) @ t=0.24
-0.8353609965904804
% es.EY (V/m) @ t=0.24
0.26539112982210167
% es.EZ (V/m) @ t=0.24
2.1668344417086125
% es.tEX (V/m) @ t=0.24
-0.8353609965904946
% es.tEY (V/m) @ t=0.24
0
% es.tEZ (V/m) @ t=0.24
2.1668344417086107
% es.Ex (V/m) @ t=0.24
-0.8353609965904804
% es.Ey (V/m) @ t=0.24
0.26539112982210167
% es.Ez (V/m) @ t=0.24
2.1668344417086125
% es.tEx (V/m) @ t=0.24
-0.8353609965904946
% es.tEy (V/m) @ t=0.24
0
% es.tEz (V/m) @ t=0.24
2.1668344417086107
% V (V) @ t=0.24
0.011410631876771177
% es.normE (V/m) @ t=0.26
2.3776756910478256
% es.EX (V/m) @ t=0.26
-0.8474924776726263
% es.EY (V/m) @ t=0.26
0.26924527696230105
% es.EZ (V/m) @ t=0.26
2.19830176240065
% es.tEX (V/m) @ t=0.26
-0.847492477672644
% es.tEY (V/m) @ t=0.26
0
% es.tEZ (V/m) @ t=0.26
2.1983017624006447
% es.Ex (V/m) @ t=0.26
-0.8474924776726263
% es.Ey (V/m) @ t=0.26
0.26924527696230105
% es.Ez (V/m) @ t=0.26
2.19830176240065
% es.tEx (V/m) @ t=0.26
-0.847492477672644
% es.tEy (V/m) @ t=0.26
0
% es.tEz (V/m) @ t=0.26
2.1983017624006447
% V (V) @ t=0.26
0.011576330304317577
% es.normE (V/m) @ t=0.28
2.412923025168178
% es.EX (V/m) @ t=0.28
-0.8600559078178022
% es.EY (V/m) @ t=0.28
0.27323662872540466
% es.EZ (V/m) @ t=0.28
2.2308900190692915
% es.tEX (V/m) @ t=0.28
-0.8600559078178164
% es.tEY (V/m) @ t=0.28
0
% es.tEZ (V/m) @ t=0.28
2.2308900190692924
% es.Ex (V/m) @ t=0.28
-0.8600559078178022
% es.Ey (V/m) @ t=0.28
0.27323662872540466
% es.Ez (V/m) @ t=0.28
2.2308900190692915
% es.tEx (V/m) @ t=0.28
-0.8600559078178164
% es.tEy (V/m) @ t=0.28
0
% es.tEz (V/m) @ t=0.28
2.2308900190692924
% V (V) @ t=0.28
0.011747943772481964
% es.normE (V/m) @ t=0.3
2.449993297727386
% es.EX (V/m) @ t=0.3
-0.8732688404391709
% es.EY (V/m) @ t=0.3
0.27743428893999766
% es.EZ (V/m) @ t=0.3
2.265163777003627
% es.tEX (V/m) @ t=0.3
-0.873268840439178
% es.tEY (V/m) @ t=0.3
0
% es.tEZ (V/m) @ t=0.3
2.26516377700362
% es.Ex (V/m) @ t=0.3
-0.8732688404391709
% es.Ey (V/m) @ t=0.3
0.27743428893999766
% es.Ez (V/m) @ t=0.3
2.265163777003627
% es.tEx (V/m) @ t=0.3
-0.873268840439178
% es.tEy (V/m) @ t=0.3
0
% es.tEz (V/m) @ t=0.3
2.26516377700362
% V (V) @ t=0.3
0.011928451422523242
% es.normE (V/m) @ t=0.32
2.4870635702866952
% es.EX (V/m) @ t=0.32
-0.8864817730605288
% es.EY (V/m) @ t=0.32
0.28163194915459155
% es.EZ (V/m) @ t=0.32
2.299437534937957
% es.tEX (V/m) @ t=0.32
-0.8864817730605465
% es.tEY (V/m) @ t=0.32
0
% es.tEZ (V/m) @ t=0.32
2.299437534937951
% es.Ex (V/m) @ t=0.32
-0.8864817730605288
% es.Ey (V/m) @ t=0.32
0.28163194915459155
% es.Ez (V/m) @ t=0.32
2.299437534937957
% es.tEx (V/m) @ t=0.32
-0.8864817730605465
% es.tEy (V/m) @ t=0.32
0
% es.tEz (V/m) @ t=0.32
2.299437534937951
% V (V) @ t=0.32
0.012108959072564521
% es.normE (V/m) @ t=0.34
2.5241338428461253
% es.EX (V/m) @ t=0.34
-0.8996947056819011
% es.EY (V/m) @ t=0.34
0.2858296093691961
% es.EZ (V/m) @ t=0.34
2.3337112928722936
% es.tEX (V/m) @ t=0.34
-0.8996947056819082
% es.tEY (V/m) @ t=0.34
0
% es.tEZ (V/m) @ t=0.34
2.3337112928722945
% es.Ex (V/m) @ t=0.34
-0.8996947056819011
% es.Ey (V/m) @ t=0.34
0.2858296093691961
% es.Ez (V/m) @ t=0.34
2.3337112928722936
% es.tEx (V/m) @ t=0.34
-0.8996947056819082
% es.tEy (V/m) @ t=0.34
0
% es.tEz (V/m) @ t=0.34
2.3337112928722945
% V (V) @ t=0.34
0.012289466722605795
% es.normE (V/m) @ t=0.36
2.5612041154056526
% es.EX (V/m) @ t=0.36
-0.912907638303277
% es.EY (V/m) @ t=0.36
0.290027269583774
% es.EZ (V/m) @ t=0.36
2.3679850508066274
% es.tEX (V/m) @ t=0.36
-0.9129076383032912
% es.tEY (V/m) @ t=0.36
0
% es.tEZ (V/m) @ t=0.36
2.367985050806631
% es.Ex (V/m) @ t=0.36
-0.912907638303277
% es.Ey (V/m) @ t=0.36
0.290027269583774
% es.Ez (V/m) @ t=0.36
2.3679850508066274
% es.tEx (V/m) @ t=0.36
-0.9129076383032912
% es.tEy (V/m) @ t=0.36
0
% es.tEz (V/m) @ t=0.36
2.367985050806631
% V (V) @ t=0.36
0.012469974372647078
% es.normE (V/m) @ t=0.38
2.598274387965281
% es.EX (V/m) @ t=0.38
-0.9261205709246418
% es.EY (V/m) @ t=0.38
0.29422492979837633
% es.EZ (V/m) @ t=0.38
2.402258808740963
% es.tEX (V/m) @ t=0.38
-0.9261205709246454
% es.tEY (V/m) @ t=0.38
0
% es.tEZ (V/m) @ t=0.38
2.4022588087409638
% es.Ex (V/m) @ t=0.38
-0.9261205709246418
% es.Ey (V/m) @ t=0.38
0.29422492979837633
% es.Ez (V/m) @ t=0.38
2.402258808740963
% es.tEx (V/m) @ t=0.38
-0.9261205709246454
% es.tEy (V/m) @ t=0.38
0
% es.tEz (V/m) @ t=0.38
2.4022588087409638
% V (V) @ t=0.38
0.012650482022688356
% es.normE (V/m) @ t=0.4
2.6353446605249946
% es.EX (V/m) @ t=0.4
-0.9393335035459964
% es.EY (V/m) @ t=0.4
0.29842259001296423
% es.EZ (V/m) @ t=0.4
2.436532566675295
% es.tEX (V/m) @ t=0.4
-0.9393335035460142
% es.tEY (V/m) @ t=0.4
0
% es.tEZ (V/m) @ t=0.4
2.4365325666752877
% es.Ex (V/m) @ t=0.4
-0.9393335035459964
% es.Ey (V/m) @ t=0.4
0.29842259001296423
% es.Ez (V/m) @ t=0.4
2.436532566675295
% es.tEx (V/m) @ t=0.4
-0.9393335035460142
% es.tEy (V/m) @ t=0.4
0
% es.tEz (V/m) @ t=0.4
2.4365325666752877
% V (V) @ t=0.4
0.012830989672729635
% es.normE (V/m) @ t=0.42
2.6743709729779033
% es.EX (V/m) @ t=0.42
-0.9532445295738285
% es.EY (V/m) @ t=0.42
0.30284215396944725
% es.EZ (V/m) @ t=0.42
2.472614503698753
% es.tEX (V/m) @ t=0.42
-0.9532445295738428
% es.tEY (V/m) @ t=0.42
0
% es.tEZ (V/m) @ t=0.42
2.472614503698754
% es.Ex (V/m) @ t=0.42
-0.9532445295738285
% es.Ey (V/m) @ t=0.42
0.30284215396944725
% es.Ez (V/m) @ t=0.42
2.472614503698753
% es.tEx (V/m) @ t=0.42
-0.9532445295738428
% es.tEy (V/m) @ t=0.42
0
% es.tEz (V/m) @ t=0.42
2.472614503698754
% V (V) @ t=0.42
0.013020957035562842
% es.normE (V/m) @ t=0.44
2.714679180428634
% es.EX (V/m) @ t=0.44
-0.9676130526332789
% es.EY (V/m) @ t=0.44
0.3074071430255845
% es.EZ (V/m) @ t=0.44
2.5098814348193192
% es.tEX (V/m) @ t=0.44
-0.9676130526332931
% es.tEY (V/m) @ t=0.44
0
% es.tEZ (V/m) @ t=0.44
2.5098814348193166
% es.Ex (V/m) @ t=0.44
-0.9676130526332789
% es.Ey (V/m) @ t=0.44
0.3074071430255845
% es.Ez (V/m) @ t=0.44
2.5098814348193192
% es.tEx (V/m) @ t=0.44
-0.9676130526332931
% es.tEy (V/m) @ t=0.44
0
% es.tEz (V/m) @ t=0.44
2.5098814348193166
% V (V) @ t=0.44
0.013217123841739974
% es.normE (V/m) @ t=0.46
2.7549873878809734
% es.EX (V/m) @ t=0.46
-0.9819815756927115
% es.EY (V/m) @ t=0.46
0.311972132081749
% es.EZ (V/m) @ t=0.46
2.547148365939866
% es.tEX (V/m) @ t=0.46
-0.9819815756927293
% es.tEY (V/m) @ t=0.46
0
% es.tEZ (V/m) @ t=0.46
2.5471483659398704
% es.Ex (V/m) @ t=0.46
-0.9819815756927115
% es.Ey (V/m) @ t=0.46
0.311972132081749
% es.Ez (V/m) @ t=0.46
2.547148365939866
% es.tEx (V/m) @ t=0.46
-0.9819815756927293
% es.tEy (V/m) @ t=0.46
0
% es.tEz (V/m) @ t=0.46
2.5471483659398704
% V (V) @ t=0.46
0.013413290647917103
% es.normE (V/m) @ t=0.48
2.7952955953348706
% es.EX (V/m) @ t=0.48
-0.9963500987521403
% es.EY (V/m) @ t=0.48
0.31653712113787624
% es.EZ (V/m) @ t=0.48
2.584415297060419
% es.tEX (V/m) @ t=0.48
-0.9963500987521581
% es.tEY (V/m) @ t=0.48
0
% es.tEZ (V/m) @ t=0.48
2.5844152970604224
% es.Ex (V/m) @ t=0.48
-0.9963500987521403
% es.Ey (V/m) @ t=0.48
0.31653712113787624
% es.Ez (V/m) @ t=0.48
2.584415297060419
% es.tEx (V/m) @ t=0.48
-0.9963500987521581
% es.tEy (V/m) @ t=0.48
0
% es.tEz (V/m) @ t=0.48
2.5844152970604224
% V (V) @ t=0.48
0.013609457454094233
% es.normE (V/m) @ t=0.5
2.835603802790273
% es.EX (V/m) @ t=0.5
-1.0107186218115731
% es.EY (V/m) @ t=0.5
0.32110211019402946
% es.EZ (V/m) @ t=0.5
2.6216822281809797
% es.tEX (V/m) @ t=0.5
-1.0107186218115873
% es.tEY (V/m) @ t=0.5
0
% es.tEZ (V/m) @ t=0.5
2.6216822281809815
% es.Ex (V/m) @ t=0.5
-1.0107186218115731
% es.Ey (V/m) @ t=0.5
0.32110211019402946
% es.Ez (V/m) @ t=0.5
2.6216822281809797
% es.tEx (V/m) @ t=0.5
-1.0107186218115873
% es.tEy (V/m) @ t=0.5
0
% es.tEz (V/m) @ t=0.5
2.6216822281809815
% V (V) @ t=0.5
0.013805624260271362
% es.normE (V/m) @ t=0.52
2.8759120102471094
% es.EX (V/m) @ t=0.52
-1.0250871448710093
% es.EY (V/m) @ t=0.52
0.3256670992501789
% es.EZ (V/m) @ t=0.52
2.658949159301547
% es.tEX (V/m) @ t=0.52
-1.0250871448710235
% es.tEY (V/m) @ t=0.52
0
% es.tEZ (V/m) @ t=0.52
2.6589491593015477
% es.Ex (V/m) @ t=0.52
-1.0250871448710093
% es.Ey (V/m) @ t=0.52
0.3256670992501789
% es.Ez (V/m) @ t=0.52
2.658949159301547
% es.tEx (V/m) @ t=0.52
-1.0250871448710235
% es.tEy (V/m) @ t=0.52
0
% es.tEz (V/m) @ t=0.52
2.6589491593015477
% V (V) @ t=0.52
0.014001791066448496
% es.normE (V/m) @ t=0.54
2.916220217705301
% es.EX (V/m) @ t=0.54
-1.0394556679304452
% es.EY (V/m) @ t=0.54
0.33023208830631234
% es.EZ (V/m) @ t=0.54
2.696216090422099
% es.tEX (V/m) @ t=0.54
-1.0394556679304594
% es.tEY (V/m) @ t=0.54
0
% es.tEZ (V/m) @ t=0.54
2.6962160904220944
% es.Ex (V/m) @ t=0.54
-1.0394556679304452
% es.Ey (V/m) @ t=0.54
0.33023208830631234
% es.Ez (V/m) @ t=0.54
2.696216090422099
% es.tEx (V/m) @ t=0.54
-1.0394556679304594
% es.tEy (V/m) @ t=0.54
0
% es.tEz (V/m) @ t=0.54
2.6962160904220944
% V (V) @ t=0.54
0.014197957872625625
% es.normE (V/m) @ t=0.56
2.9577817994262574
% es.EX (V/m) @ t=0.56
-1.0542703704849397
% es.EY (V/m) @ t=0.56
0.3349387480532806
% es.EZ (V/m) @ t=0.56
2.734642029947336
% es.tEX (V/m) @ t=0.56
-1.0542703704849468
% es.tEY (V/m) @ t=0.56
0
% es.tEZ (V/m) @ t=0.56
2.7346420299473397
% es.Ex (V/m) @ t=0.56
-1.0542703704849397
% es.Ey (V/m) @ t=0.56
0.3349387480532806
% es.Ez (V/m) @ t=0.56
2.734642029947336
% es.tEx (V/m) @ t=0.56
-1.0542703704849468
% es.tEy (V/m) @ t=0.56
0
% es.tEz (V/m) @ t=0.56
2.7346420299473397
% V (V) @ t=0.56
0.014400267986007279
% es.normE (V/m) @ t=0.58
3.000008331346412
% es.EX (V/m) @ t=0.58
-1.0693217837755062
% es.EY (V/m) @ t=0.58
0.3397205680751112
% es.EZ (V/m) @ t=0.58
2.7736828559378344
% es.tEX (V/m) @ t=0.58
-1.0693217837755205
% es.tEY (V/m) @ t=0.58
0
% es.tEZ (V/m) @ t=0.58
2.7736828559378353
% es.Ex (V/m) @ t=0.58
-1.0693217837755062
% es.Ey (V/m) @ t=0.58
0.3397205680751112
% es.Ez (V/m) @ t=0.58
2.7736828559378344
% es.tEx (V/m) @ t=0.58
-1.0693217837755205
% es.tEy (V/m) @ t=0.58
0
% es.tEz (V/m) @ t=0.58
2.7736828559378353
% V (V) @ t=0.58
0.014605837296161618
% es.normE (V/m) @ t=0.6
3.042642458604297
% es.EX (V/m) @ t=0.6
-1.084518293935816
% es.EY (V/m) @ t=0.6
0.34454845918270727
% es.EZ (V/m) @ t=0.6
2.8131005896378856
% es.tEX (V/m) @ t=0.6
-1.0845182939358302
% es.tEY (V/m) @ t=0.6
0
% es.tEZ (V/m) @ t=0.6
2.813100589637882
% es.Ex (V/m) @ t=0.6
-1.084518293935816
% es.Ey (V/m) @ t=0.6
0.34454845918270727
% es.Ez (V/m) @ t=0.6
2.8131005896378856
% es.tEx (V/m) @ t=0.6
-1.0845182939358302
% es.tEy (V/m) @ t=0.6
0
% es.tEz (V/m) @ t=0.6
2.813100589637882
% V (V) @ t=0.6
0.01481340440015259
% es.normE (V/m) @ t=0.62
3.0856841811998983
% es.EX (V/m) @ t=0.62
-1.0998599009658896
% es.EY (V/m) @ t=0.62
0.34942242137600443
% es.EZ (V/m) @ t=0.62
2.8528952310474835
% es.tEX (V/m) @ t=0.62
-1.0998599009659038
% es.tEY (V/m) @ t=0.62
0
% es.tEZ (V/m) @ t=0.62
2.85289523104748
% es.Ex (V/m) @ t=0.62
-1.0998599009658896
% es.Ey (V/m) @ t=0.62
0.34942242137600443
% es.Ez (V/m) @ t=0.62
2.8528952310474835
% es.tEx (V/m) @ t=0.62
-1.0998599009659038
% es.tEy (V/m) @ t=0.62
0
% es.tEz (V/m) @ t=0.62
2.85289523104748
% V (V) @ t=0.62
0.015022969297980191
% es.normE (V/m) @ t=0.64
3.129133499133293
% es.EX (V/m) @ t=0.64
-1.1153466048657277
% es.EY (V/m) @ t=0.64
0.35434245465503933
% es.EZ (V/m) @ t=0.64
2.893066780166608
% es.tEX (V/m) @ t=0.64
-1.1153466048657419
% es.tEY (V/m) @ t=0.64
0
% es.tEZ (V/m) @ t=0.64
2.8930667801666097
% es.Ex (V/m) @ t=0.64
-1.1153466048657277
% es.Ey (V/m) @ t=0.64
0.35434245465503933
% es.Ez (V/m) @ t=0.64
2.893066780166608
% es.tEx (V/m) @ t=0.64
-1.1153466048657419
% es.tEy (V/m) @ t=0.64
0
% es.tEz (V/m) @ t=0.64
2.8930667801666097
% V (V) @ t=0.64
0.015234531989644421
% es.normE (V/m) @ t=0.66
3.172990412404685
% es.EX (V/m) @ t=0.66
-1.1309784056352867
% es.EY (V/m) @ t=0.66
0.35930855901981285
% es.EZ (V/m) @ t=0.66
2.933615236995281
% es.tEX (V/m) @ t=0.66
-1.130978405635301
% es.tEY (V/m) @ t=0.66
0
% es.tEZ (V/m) @ t=0.66
2.9336152369952835
% es.Ex (V/m) @ t=0.66
-1.1309784056352867
% es.Ey (V/m) @ t=0.66
0.35930855901981285
% es.Ez (V/m) @ t=0.66
2.933615236995281
% es.tEx (V/m) @ t=0.66
-1.130978405635301
% es.tEy (V/m) @ t=0.66
0
% es.tEz (V/m) @ t=0.66
2.9336152369952835
% V (V) @ t=0.66
0.015448092475145286
% es.normE (V/m) @ t=0.68
3.217254921014373
% es.EX (V/m) @ t=0.68
-1.1467553032745748
% es.EY (V/m) @ t=0.68
0.3643207344703234
% es.EZ (V/m) @ t=0.68
2.9745406015335103
% es.tEX (V/m) @ t=0.68
-1.146755303274596
% es.tEY (V/m) @ t=0.68
0
% es.tEZ (V/m) @ t=0.68
2.9745406015335156
% es.Ex (V/m) @ t=0.68
-1.1467553032745748
% es.Ey (V/m) @ t=0.68
0.3643207344703234
% es.Ez (V/m) @ t=0.68
2.9745406015335103
% es.tEx (V/m) @ t=0.68
-1.146755303274596
% es.tEy (V/m) @ t=0.68
0
% es.tEz (V/m) @ t=0.68
2.9745406015335156
% V (V) @ t=0.68
0.015663650754482773
% es.normE (V/m) @ t=0.7
3.2619270249627172
% es.EX (V/m) @ t=0.7
-1.162677297783627
% es.EY (V/m) @ t=0.7
0.3693789810065504
% es.EZ (V/m) @ t=0.7
3.0158428737812697
% es.tEX (V/m) @ t=0.7
-1.1626772977836413
% es.tEY (V/m) @ t=0.7
0
% es.tEZ (V/m) @ t=0.7
3.0158428737812617
% es.Ex (V/m) @ t=0.7
-1.162677297783627
% es.Ey (V/m) @ t=0.7
0.3693789810065504
% es.Ez (V/m) @ t=0.7
3.0158428737812697
% es.tEx (V/m) @ t=0.7
-1.1626772977836413
% es.tEy (V/m) @ t=0.7
0
% es.tEz (V/m) @ t=0.7
3.0158428737812617
% V (V) @ t=0.7
0.015881206827656893
% es.normE (V/m) @ t=0.72
3.30700672425019
% es.EX (V/m) @ t=0.72
-1.1787443891624358
% es.EY (V/m) @ t=0.72
0.37448329862854535
% es.EZ (V/m) @ t=0.72
3.0575220537385706
% es.tEX (V/m) @ t=0.72
-1.17874438916245
% es.tEY (V/m) @ t=0.72
0
% es.tEZ (V/m) @ t=0.72
3.0575220537385714
% es.Ex (V/m) @ t=0.72
-1.1787443891624358
% es.Ey (V/m) @ t=0.72
0.37448329862854535
% es.Ez (V/m) @ t=0.72
3.0575220537385706
% es.tEx (V/m) @ t=0.72
-1.17874438916245
% es.tEy (V/m) @ t=0.72
0
% es.tEz (V/m) @ t=0.72
3.0575220537385714
% V (V) @ t=0.72
0.01610076069466764
% es.normE (V/m) @ t=0.74
3.3524940188773025
% es.EX (V/m) @ t=0.74
-1.1949565774109807
% es.EY (V/m) @ t=0.74
0.3796336873362516
% es.EZ (V/m) @ t=0.74
3.0995781414054138
% es.tEX (V/m) @ t=0.74
-1.194956577410995
% es.tEY (V/m) @ t=0.74
0
% es.tEZ (V/m) @ t=0.74
3.099578141405404
% es.Ex (V/m) @ t=0.74
-1.1949565774109807
% es.Ey (V/m) @ t=0.74
0.3796336873362516
% es.Ez (V/m) @ t=0.74
3.0995781414054138
% es.tEx (V/m) @ t=0.74
-1.194956577410995
% es.tEy (V/m) @ t=0.74
0
% es.tEz (V/m) @ t=0.74
3.099578141405404
% V (V) @ t=0.74
0.016322312355515022
% es.normE (V/m) @ t=0.76
3.398388908844674
% es.EX (V/m) @ t=0.76
-1.2113138625292754
% es.EY (V/m) @ t=0.76
0.3848301471296782
% es.EZ (V/m) @ t=0.76
3.1420111367818047
% es.tEX (V/m) @ t=0.76
-1.2113138625292896
% es.tEY (V/m) @ t=0.76
0
% es.tEZ (V/m) @ t=0.76
3.142011136781795
% es.Ex (V/m) @ t=0.76
-1.2113138625292754
% es.Ey (V/m) @ t=0.76
0.3848301471296782
% es.Ez (V/m) @ t=0.76
3.1420111367818047
% es.tEx (V/m) @ t=0.76
-1.2113138625292896
% es.tEy (V/m) @ t=0.76
0
% es.tEz (V/m) @ t=0.76
3.142011136781795
% V (V) @ t=0.76
0.016545861810199035
% es.normE (V/m) @ t=0.78
3.44469139415296
% es.EX (V/m) @ t=0.78
-1.22781624451732
% es.EY (V/m) @ t=0.78
0.39007267800887035
% es.EZ (V/m) @ t=0.78
3.184821039867738
% es.tEX (V/m) @ t=0.78
-1.2278162445173342
% es.tEY (V/m) @ t=0.78
0
% es.tEZ (V/m) @ t=0.78
3.184821039867737
% es.Ex (V/m) @ t=0.78
-1.22781624451732
% es.Ey (V/m) @ t=0.78
0.39007267800887035
% es.Ez (V/m) @ t=0.78
3.184821039867738
% es.tEx (V/m) @ t=0.78
-1.2278162445173342
% es.tEy (V/m) @ t=0.78
0
% es.tEz (V/m) @ t=0.78
3.184821039867737
% V (V) @ t=0.78
0.016771409058719672
% es.normE (V/m) @ t=0.8
3.4914014748028706
% es.EX (V/m) @ t=0.8
-1.2444637233751075
% es.EY (V/m) @ t=0.8
0.39536127997378445
% es.EZ (V/m) @ t=0.8
3.228007850663208
% es.tEX (V/m) @ t=0.8
-1.2444637233751288
% es.tEY (V/m) @ t=0.8
0
% es.tEZ (V/m) @ t=0.8
3.228007850663209
% es.Ex (V/m) @ t=0.8
-1.2444637233751075
% es.Ey (V/m) @ t=0.8
0.39536127997378445
% es.Ez (V/m) @ t=0.8
3.228007850663208
% es.tEx (V/m) @ t=0.8
-1.2444637233751288
% es.tEy (V/m) @ t=0.8
0
% es.tEz (V/m) @ t=0.8
3.228007850663209
% V (V) @ t=0.8
0.016998954101076946
% es.normE (V/m) @ t=0.82
3.5386854802978527
% es.EX (V/m) @ t=0.82
-1.261316072625736
% es.EY (V/m) @ t=0.82
0.4007150102026702
% es.EZ (V/m) @ t=0.82
3.2717251883245355
% es.tEX (V/m) @ t=0.82
-1.2613160726257502
% es.tEY (V/m) @ t=0.82
0
% es.tEZ (V/m) @ t=0.82
3.2717251883245364
% es.Ex (V/m) @ t=0.82
-1.261316072625736
% es.Ey (V/m) @ t=0.82
0.4007150102026702
% es.Ez (V/m) @ t=0.82
3.2717251883245355
% es.tEx (V/m) @ t=0.82
-1.2613160726257502
% es.tEy (V/m) @ t=0.82
0
% es.tEz (V/m) @ t=0.82
3.2717251883245364
% V (V) @ t=0.82
0.017229271745874436
% es.normE (V/m) @ t=0.84
3.587040443555346
% es.EX (V/m) @ t=0.84
-1.2785519100621359
% es.EY (V/m) @ t=0.84
0.40619081616888186
% es.EZ (V/m) @ t=0.84
3.3164321041710894
% es.tEX (V/m) @ t=0.84
-1.27855191006215
% es.tEY (V/m) @ t=0.84
0
% es.tEZ (V/m) @ t=0.84
3.3164321041710956
% es.Ex (V/m) @ t=0.84
-1.2785519100621359
% es.Ey (V/m) @ t=0.84
0.40619081616888186
% es.Ez (V/m) @ t=0.84
3.3164321041710894
% es.tEx (V/m) @ t=0.84
-1.27855191006215
% es.tEy (V/m) @ t=0.84
0
% es.tEz (V/m) @ t=0.84
3.3164321041710956
% V (V) @ t=0.84
0.017464677309250234
% es.normE (V/m) @ t=0.86
3.6359134293984576
% es.EX (V/m) @ t=0.86
-1.2959725284015706
% es.EY (V/m) @ t=0.86
0.4117253454062082
% es.EZ (V/m) @ t=0.86
3.361617916490723
% es.tEX (V/m) @ t=0.86
-1.2959725284015848
% es.tEY (V/m) @ t=0.86
0
% es.tEZ (V/m) @ t=0.86
3.361617916490724
% es.Ex (V/m) @ t=0.86
-1.2959725284015706
% es.Ey (V/m) @ t=0.86
0.4117253454062082
% es.Ez (V/m) @ t=0.86
3.361617916490723
% es.tEx (V/m) @ t=0.86
-1.2959725284015848
% es.tEy (V/m) @ t=0.86
0
% es.tEz (V/m) @ t=0.86
3.361617916490724
% V (V) @ t=0.86
0.017702595066966746
% es.normE (V/m) @ t=0.88
3.6853044378273294
% es.EX (V/m) @ t=0.88
-1.3135779276439974
% es.EY (V/m) @ t=0.88
0.41731859791468784
% es.EZ (V/m) @ t=0.88
3.4072826252834014
% es.tEX (V/m) @ t=0.88
-1.3135779276440258
% es.tEY (V/m) @ t=0.88
0
% es.tEZ (V/m) @ t=0.88
3.4072826252834005
% es.Ex (V/m) @ t=0.88
-1.3135779276439974
% es.Ey (V/m) @ t=0.88
0.41731859791468784
% es.Ez (V/m) @ t=0.88
3.4072826252834014
% es.tEx (V/m) @ t=0.88
-1.3135779276440258
% es.tEy (V/m) @ t=0.88
0
% es.tEz (V/m) @ t=0.88
3.4072826252834005
% V (V) @ t=0.88
0.017943025019023964
% es.normE (V/m) @ t=0.9
3.7352134688422245
% es.EX (V/m) @ t=0.9
-1.3313681077895299
% es.EY (V/m) @ t=0.9
0.4229705736942422
% es.EZ (V/m) @ t=0.9
3.453426230549142
% es.tEX (V/m) @ t=0.9
-1.331368107789544
% es.tEY (V/m) @ t=0.9
0
% es.tEZ (V/m) @ t=0.9
3.4534262305491463
% es.Ex (V/m) @ t=0.9
-1.3313681077895299
% es.Ey (V/m) @ t=0.9
0.4229705736942422
% es.Ez (V/m) @ t=0.9
3.453426230549142
% es.tEx (V/m) @ t=0.9
-1.331368107789544
% es.tEy (V/m) @ t=0.9
0
% es.tEz (V/m) @ t=0.9
3.4534262305491463
% V (V) @ t=0.9
0.018185967165421892
% es.normE (V/m) @ t=0.92
3.7856405224433782
% es.EX (V/m) @ t=0.92
-1.349343068838076
% es.EY (V/m) @ t=0.92
0.42868127274491474
% es.EZ (V/m) @ t=0.92
3.5000487322879543
% es.tEX (V/m) @ t=0.92
-1.3493430688381116
% es.tEY (V/m) @ t=0.92
0
% es.tEZ (V/m) @ t=0.92
3.5000487322879543
% es.Ex (V/m) @ t=0.92
-1.349343068838076
% es.Ey (V/m) @ t=0.92
0.42868127274491474
% es.Ez (V/m) @ t=0.92
3.5000487322879543
% es.tEx (V/m) @ t=0.92
-1.3493430688381116
% es.tEy (V/m) @ t=0.92
0
% es.tEz (V/m) @ t=0.92
3.5000487322879543
% V (V) @ t=0.92
0.01843142150616053
% es.normE (V/m) @ t=0.94
3.8365855986310886
% es.EX (V/m) @ t=0.94
-1.3675028107896567
% es.EY (V/m) @ t=0.94
0.4344506950667424
% es.EZ (V/m) @ t=0.94
3.5471501304998405
% es.tEX (V/m) @ t=0.94
-1.3675028107896852
% es.tEY (V/m) @ t=0.94
0
% es.tEZ (V/m) @ t=0.94
3.5471501304998405
% es.Ex (V/m) @ t=0.94
-1.3675028107896567
% es.Ey (V/m) @ t=0.94
0.4344506950667424
% es.Ez (V/m) @ t=0.94
3.5471501304998405
% es.tEx (V/m) @ t=0.94
-1.3675028107896852
% es.tEy (V/m) @ t=0.94
0
% es.tEz (V/m) @ t=0.94
3.5471501304998405
% V (V) @ t=0.94
0.01867938804123988
% es.normE (V/m) @ t=0.96
3.8880486974056394
% es.EX (V/m) @ t=0.96
-1.3858473336442794
% es.EY (V/m) @ t=0.96
0.4402788406596736
% es.EZ (V/m) @ t=0.96
3.5947304251847587
% es.tEX (V/m) @ t=0.96
-1.3858473336442936
% es.tEY (V/m) @ t=0.96
0
% es.tEZ (V/m) @ t=0.96
3.59473042518475
% es.Ex (V/m) @ t=0.96
-1.3858473336442794
% es.Ey (V/m) @ t=0.96
0.4402788406596736
% es.Ez (V/m) @ t=0.96
3.5947304251847587
% es.tEx (V/m) @ t=0.96
-1.3858473336442936
% es.tEy (V/m) @ t=0.96
0
% es.tEz (V/m) @ t=0.96
3.59473042518475
% V (V) @ t=0.96
0.01892986677065994
% es.normE (V/m) @ t=0.98
3.940029818767429
% es.EX (V/m) @ t=0.98
-1.4043766374019298
% es.EY (V/m) @ t=0.98
0.446165709523735
% es.EZ (V/m) @ t=0.98
3.6427896163427658
% es.tEX (V/m) @ t=0.98
-1.4043766374019653
% es.tEY (V/m) @ t=0.98
0
% es.tEZ (V/m) @ t=0.98
3.6427896163427675
% es.Ex (V/m) @ t=0.98
-1.4043766374019298
% es.Ey (V/m) @ t=0.98
0.446165709523735
% es.Ez (V/m) @ t=0.98
3.6427896163427658
% es.tEx (V/m) @ t=0.98
-1.4043766374019653
% es.tEy (V/m) @ t=0.98
0
% es.tEz (V/m) @ t=0.98
3.6427896163427675
% V (V) @ t=0.98
0.0191828576944207
% es.normE (V/m) @ t=1
3.9925289627168157
% es.EX (V/m) @ t=1
-1.4230907220626434
% es.EY (V/m) @ t=1
0.4521113016589129
% es.EZ (V/m) @ t=1
3.6913277039738333
% es.tEX (V/m) @ t=1
-1.4230907220626718
% es.tEY (V/m) @ t=1
0
% es.tEZ (V/m) @ t=1
3.6913277039738333
% es.Ex (V/m) @ t=1
-1.4230907220626434
% es.Ey (V/m) @ t=1
0.4521113016589129
% es.Ez (V/m) @ t=1
3.6913277039738333
% es.tEx (V/m) @ t=1
-1.4230907220626718
% es.tEy (V/m) @ t=1
0
% es.tEz (V/m) @ t=1
3.6913277039738333
% V (V) @ t=1
0.019438360812522187
% es.normE (V/m) @ t=1.02
4.045546129254175
% es.EX (V/m) @ t=1.02
-1.4419895876263702
% es.EY (V/m) @ t=1.02
0.45811561706520987
% es.EZ (V/m) @ t=1.02
3.740344688077945
% es.tEX (V/m) @ t=1.02
-1.4419895876263844
% es.tEY (V/m) @ t=1.02
0
% es.tEZ (V/m) @ t=1.02
3.7403446880779434
% es.Ex (V/m) @ t=1.02
-1.4419895876263702
% es.Ey (V/m) @ t=1.02
0.45811561706520987
% es.Ez (V/m) @ t=1.02
3.740344688077945
% es.tEx (V/m) @ t=1.02
-1.4419895876263844
% es.tEy (V/m) @ t=1.02
0
% es.tEz (V/m) @ t=1.02
3.7403446880779434
% V (V) @ t=1.02
0.019696376124964374
% es.normE (V/m) @ t=1.04
4.099081318379962
% es.EX (V/m) @ t=1.04
-1.461073234093132
% es.EY (V/m) @ t=1.04
0.46417865574262507
% es.EZ (V/m) @ t=1.04
3.78984056865513
% es.tEX (V/m) @ t=1.04
-1.4610732340931463
% es.tEY (V/m) @ t=1.04
0
% es.tEZ (V/m) @ t=1.04
3.7898405686551264
% es.Ex (V/m) @ t=1.04
-1.461073234093132