% Model:              1 neuron.mph
% Version:            COMSOL 6.0.0.405
% Date:               Mar 16 2023, 19:28
% Dimension:          0
% Nodes:              14017
% Expressions:        14017
% Description:        Electric field norm, Electric field, X component, Electric field, Y component, Electric field, Z component, Tangential electric field, X component, Tangential electric field, Y component, Tangential electric field, Z component, Electric field, x component, Electric field, y component, Electric field, z component, Tangential electric field, x component, Tangential electric field, y component, Tangential electric field, z component, Electric potential
% Length unit:        mm
% x
1
% y
12.2
% z
1
% es.normE (V/m) @ t=0
1.1886296195304151
% es.EX (V/m) @ t=0
0.8070922140621271
% es.EY (V/m) @ t=0
0.22922527886485256
% es.EZ (V/m) @ t=0
0.8200472321501273
% es.tEX (V/m) @ t=0
0.8070922140620951
% es.tEY (V/m) @ t=0
0
% es.tEZ (V/m) @ t=0
0.8200472321501024
% es.Ex (V/m) @ t=0
0.8070922140621271
% es.Ey (V/m) @ t=0
0.22922527886485256
% es.Ez (V/m) @ t=0
0.8200472321501273
% es.tEx (V/m) @ t=0
0.8070922140620951
% es.tEy (V/m) @ t=0
0
% es.tEz (V/m) @ t=0
0.8200472321501024
% V (V) @ t=0
0.011146113921034595
% es.normE (V/m) @ t=0.02
1.032335395164816
% es.EX (V/m) @ t=0.02
0.7009667646777515
% es.EY (V/m) @ t=0.02
0.19908419535586575
% es.EZ (V/m) @ t=0.02
0.712218313367881
% es.tEX (V/m) @ t=0.02
0.7009667646777302
% es.tEY (V/m) @ t=0.02
0
% es.tEZ (V/m) @ t=0.02
0.7122183133678632
% es.Ex (V/m) @ t=0.02
0.7009667646777515
% es.Ey (V/m) @ t=0.02
0.19908419535586575
% es.Ez (V/m) @ t=0.02
0.712218313367881
% es.tEx (V/m) @ t=0.02
0.7009667646777302
% es.tEy (V/m) @ t=0.02
0
% es.tEz (V/m) @ t=0.02
0.7122183133678632
% V (V) @ t=0.02
0.009680498871074788
% es.normE (V/m) @ t=0.04
1.0476440224639778
% es.EX (V/m) @ t=0.04
0.711361485363124
% es.EY (V/m) @ t=0.04
0.20203644136380383
% es.EZ (V/m) @ t=0.04
0.7227798849755729
% es.tEX (V/m) @ t=0.04
0.7113614853630992
% es.tEY (V/m) @ t=0.04
0
% es.tEZ (V/m) @ t=0.04
0.7227798849755587
% es.Ex (V/m) @ t=0.04
0.711361485363124
% es.Ey (V/m) @ t=0.04
0.20203644136380383
% es.Ez (V/m) @ t=0.04
0.7227798849755729
% es.tEx (V/m) @ t=0.04
0.7113614853630992
% es.tEy (V/m) @ t=0.04
0
% es.tEz (V/m) @ t=0.04
0.7227798849755587
% V (V) @ t=0.04
0.009824051972853777
% es.normE (V/m) @ t=0.06
1.0631828738493776
% es.EX (V/m) @ t=0.06
0.7219125318197577
% es.EY (V/m) @ t=0.06
0.20503308260826358
% es.EZ (V/m) @ t=0.06
0.7335002911419579
% es.tEX (V/m) @ t=0.06
0.7219125318197683
% es.tEY (V/m) @ t=0.06
0
% es.tEZ (V/m) @ t=0.06
0.7335002911419508
% es.Ex (V/m) @ t=0.06
0.7219125318197577
% es.Ey (V/m) @ t=0.06
0.20503308260826358
% es.Ez (V/m) @ t=0.06
0.7335002911419579
% es.tEx (V/m) @ t=0.06
0.7219125318197683
% es.tEy (V/m) @ t=0.06
0
% es.tEz (V/m) @ t=0.06
0.7335002911419508
% V (V) @ t=0.06
0.009969764223326072
% es.normE (V/m) @ t=0.08
1.0791167254635579
% es.EX (V/m) @ t=0.08
0.7327317705559615
% es.EY (V/m) @ t=0.08
0.20810594510263947
% es.EZ (V/m) @ t=0.08
0.7444932010611014
% es.tEX (V/m) @ t=0.08
0.7327317705559722
% es.tEY (V/m) @ t=0.08
0
% es.tEZ (V/m) @ t=0.08
0.7444932010610898
% es.Ex (V/m) @ t=0.08
0.7327317705559615
% es.Ey (V/m) @ t=0.08
0.20810594510263947
% es.Ez (V/m) @ t=0.08
0.7444932010611014
% es.tEx (V/m) @ t=0.08
0.7327317705559722
% es.tEy (V/m) @ t=0.08
0
% es.tEz (V/m) @ t=0.08
0.7444932010610898
% V (V) @ t=0.08
0.010119176403050174
% es.normE (V/m) @ t=0.1
1.0953287443389916
% es.EX (V/m) @ t=0.1
0.7437398757951641
% es.EY (V/m) @ t=0.1
0.2112324841642934
% es.EZ (V/m) @ t=0.1
0.7556780137110835
% es.tEX (V/m) @ t=0.1
0.7437398757951428
% es.tEY (V/m) @ t=0.1
0
% es.tEZ (V/m) @ t=0.1
0.7556780137110621
% es.Ex (V/m) @ t=0.1
0.7437398757951641
% es.Ey (V/m) @ t=0.1
0.2112324841642934
% es.Ez (V/m) @ t=0.1
0.7556780137110835
% es.tEx (V/m) @ t=0.1
0.7437398757951428
% es.tEy (V/m) @ t=0.1
0
% es.tEz (V/m) @ t=0.1
0.7556780137110621
% V (V) @ t=0.1
0.010271194148826835
% es.normE (V/m) @ t=0.12
1.1115407632144216
% es.EX (V/m) @ t=0.12
0.7547479810343347
% es.EY (V/m) @ t=0.12
0.21435902322600064
% es.EZ (V/m) @ t=0.12
0.7668628263610593
% es.tEX (V/m) @ t=0.12
0.7547479810343134
% es.tEY (V/m) @ t=0.12
0
% es.tEZ (V/m) @ t=0.12
0.7668628263610486
% es.Ex (V/m) @ t=0.12
0.7547479810343347
% es.Ey (V/m) @ t=0.12
0.21435902322600064
% es.Ez (V/m) @ t=0.12
0.7668628263610593
% es.tEx (V/m) @ t=0.12
0.7547479810343134
% es.tEy (V/m) @ t=0.12
0
% es.tEz (V/m) @ t=0.12
0.7668628263610486
% V (V) @ t=0.12
0.010423211894603497
% es.normE (V/m) @ t=0.14
1.1280206863861173
% es.EX (V/m) @ t=0.14
0.7659380036510228
% es.EY (V/m) @ t=0.14
0.21753720698272616
% es.EZ (V/m) @ t=0.14
0.7782324735400357
% es.tEX (V/m) @ t=0.14
0.7659380036510015
% es.tEY (V/m) @ t=0.14
0
% es.tEZ (V/m) @ t=0.14
0.7782324735400223
% es.Ex (V/m) @ t=0.14
0.7659380036510228
% es.Ey (V/m) @ t=0.14
0.21753720698272616
% es.Ez (V/m) @ t=0.14
0.7782324735400357
% es.tEx (V/m) @ t=0.14
0.7659380036510015
% es.tEy (V/m) @ t=0.14
0
% es.tEz (V/m) @ t=0.14
0.7782324735400223
% V (V) @ t=0.14
0.010577743651335049
% es.normE (V/m) @ t=0.16
1.145692455274871
% es.EX (V/m) @ t=0.16
0.7779373356003241
% es.EY (V/m) @ t=0.16
0.2209451463256915
% es.EZ (V/m) @ t=0.16
0.7904244078001934
% es.tEX (V/m) @ t=0.16
0.7779373356002992
% es.tEY (V/m) @ t=0.16
0
% es.tEZ (V/m) @ t=0.16
0.7904244078001881
% es.Ex (V/m) @ t=0.16
0.7779373356003241
% es.Ey (V/m) @ t=0.16
0.2209451463256915
% es.Ez (V/m) @ t=0.16
0.7904244078001934
% es.tEx (V/m) @ t=0.16
0.7779373356002992
% es.tEy (V/m) @ t=0.16
0
% es.tEz (V/m) @ t=0.16
0.7904244078001881
% V (V) @ t=0.16
0.010743459675104445
% es.normE (V/m) @ t=0.18
1.1633642241636388
% es.EX (V/m) @ t=0.18
0.7899366675496289
% es.EY (V/m) @ t=0.18
0.22435308566866752
% es.EZ (V/m) @ t=0.18
0.8026163420603547
% es.tEX (V/m) @ t=0.18
0.7899366675496253
% es.tEY (V/m) @ t=0.18
0
% es.tEZ (V/m) @ t=0.18
0.8026163420603467
% es.Ex (V/m) @ t=0.18
0.7899366675496289
% es.Ey (V/m) @ t=0.18
0.22435308566866752
% es.Ez (V/m) @ t=0.18
0.8026163420603547
% es.tEx (V/m) @ t=0.18
0.7899366675496253
% es.tEy (V/m) @ t=0.18
0
% es.tEz (V/m) @ t=0.18
0.8026163420603467
% V (V) @ t=0.18
0.01090917569887384
% es.normE (V/m) @ t=0.2
1.1810359930524401
% es.EX (V/m) @ t=0.2
0.8019359994989941
% es.EY (V/m) @ t=0.2
0.22776102501159556
% es.EZ (V/m) @ t=0.2
0.8148082763205187
% es.tEX (V/m) @ t=0.2
0.8019359994989799
% es.tEY (V/m) @ t=0.2
0
% es.tEZ (V/m) @ t=0.2
0.8148082763205124
% es.Ex (V/m) @ t=0.2
0.8019359994989941
% es.Ey (V/m) @ t=0.2
0.22776102501159556
% es.Ez (V/m) @ t=0.2
0.8148082763205187
% es.tEx (V/m) @ t=0.2
0.8019359994989799
% es.tEy (V/m) @ t=0.2
0
% es.tEz (V/m) @ t=0.2
0.8148082763205124
% V (V) @ t=0.2
0.011074891722643237
% es.normE (V/m) @ t=0.22
1.1987077619411988
% es.EX (V/m) @ t=0.22
0.8139353314482882
% es.EY (V/m) @ t=0.22
0.23116896435458933
% es.EZ (V/m) @ t=0.22
0.8270002105806675
% es.tEX (V/m) @ t=0.22
0.8139353314482491
% es.tEY (V/m) @ t=0.22
0
% es.tEZ (V/m) @ t=0.22
0.8270002105806569
% es.Ex (V/m) @ t=0.22
0.8139353314482882
% es.Ey (V/m) @ t=0.22
0.23116896435458933
% es.Ez (V/m) @ t=0.22
0.8270002105806675
% es.tEx (V/m) @ t=0.22
0.8139353314482491
% es.tEy (V/m) @ t=0.22
0
% es.tEz (V/m) @ t=0.22
0.8270002105806569
% V (V) @ t=0.22
0.011240607746412633
% es.normE (V/m) @ t=0.24
1.2163795308300003
% es.EX (V/m) @ t=0.24
0.8259346633976108
% es.EY (V/m) @ t=0.24
0.23457690369752626
% es.EZ (V/m) @ t=0.24
0.8391921448408572
% es.tEX (V/m) @ t=0.24
0.8259346633976321
% es.tEY (V/m) @ t=0.24
0
% es.tEZ (V/m) @ t=0.24
0.8391921448408368
% es.Ex (V/m) @ t=0.24
0.8259346633976108
% es.Ey (V/m) @ t=0.24
0.23457690369752626
% es.Ez (V/m) @ t=0.24
0.8391921448408572
% es.tEx (V/m) @ t=0.24
0.8259346633976321
% es.tEy (V/m) @ t=0.24
0
% es.tEz (V/m) @ t=0.24
0.8391921448408368
% V (V) @ t=0.24
0.01140632377018203
% es.normE (V/m) @ t=0.26
1.2340512997187978
% es.EX (V/m) @ t=0.26
0.8379339953469618
% es.EY (V/m) @ t=0.26
0.2379848430404703
% es.EZ (V/m) @ t=0.26
0.8513840791010221
% es.tEX (V/m) @ t=0.26
0.837933995346944
% es.tEY (V/m) @ t=0.26
0
% es.tEZ (V/m) @ t=0.26
0.8513840791010097
% es.Ex (V/m) @ t=0.26
0.8379339953469618
% es.Ey (V/m) @ t=0.26
0.2379848430404703
% es.Ez (V/m) @ t=0.26
0.8513840791010221
% es.tEx (V/m) @ t=0.26
0.837933995346944
% es.tEy (V/m) @ t=0.26
0
% es.tEz (V/m) @ t=0.26
0.8513840791010097
% V (V) @ t=0.26
0.011572039793951425
% es.normE (V/m) @ t=0.28
1.2523171085414169
% es.EX (V/m) @ t=0.28
0.8503366798028296
% es.EY (V/m) @ t=0.28
0.24150736067949907
% es.EZ (V/m) @ t=0.28
0.8639858430106537
% es.tEX (V/m) @ t=0.28
0.8503366798028082
% es.tEY (V/m) @ t=0.28
0
% es.tEZ (V/m) @ t=0.28
0.8639858430106457
% es.Ex (V/m) @ t=0.28
0.8503366798028296
% es.Ey (V/m) @ t=0.28
0.24150736067949907
% es.Ez (V/m) @ t=0.28
0.8639858430106537
% es.tEx (V/m) @ t=0.28
0.8503366798028082
% es.tEy (V/m) @ t=0.28
0
% es.tEz (V/m) @ t=0.28
0.8639858430106457
% V (V) @ t=0.28
0.011743324638873965
% es.normE (V/m) @ t=0.3
1.2715644736125826
% es.EX (V/m) @ t=0.3
0.8634058399459761
% es.EY (V/m) @ t=0.3
0.2452192006788465
% es.EZ (V/m) @ t=0.3
0.8772647850532715
% es.tEX (V/m) @ t=0.3
0.863405839945969
% es.tEY (V/m) @ t=0.3
0
% es.tEZ (V/m) @ t=0.3
0.8772647850532564
% es.Ex (V/m) @ t=0.3
0.8634058399459761
% es.Ey (V/m) @ t=0.3
0.2452192006788465
% es.Ez (V/m) @ t=0.3
0.8772647850532715
% es.tEx (V/m) @ t=0.3
0.863405839945969
% es.tEy (V/m) @ t=0.3
0
% es.tEz (V/m) @ t=0.3
0.8772647850532564
% V (V) @ t=0.3
0.01192381107259291
% es.normE (V/m) @ t=0.32
1.2908118386837533
% es.EX (V/m) @ t=0.32
0.8764750000891368
% es.EY (V/m) @ t=0.32
0.2489310406781886
% es.EZ (V/m) @ t=0.32
0.8905437270958778
% es.tEX (V/m) @ t=0.32
0.8764750000891155
% es.tEY (V/m) @ t=0.32
0
% es.tEZ (V/m) @ t=0.32
0.89054372709586
% es.Ex (V/m) @ t=0.32
0.8764750000891368
% es.Ey (V/m) @ t=0.32
0.2489310406781886
% es.Ez (V/m) @ t=0.32
0.8905437270958778
% es.tEx (V/m) @ t=0.32
0.8764750000891155
% es.tEy (V/m) @ t=0.32
0
% es.tEz (V/m) @ t=0.32
0.89054372709586
% V (V) @ t=0.32
0.012104297506311854
% es.normE (V/m) @ t=0.34
1.310059203754923
% es.EX (V/m) @ t=0.34
0.8895441602322869
% es.EY (V/m) @ t=0.34
0.2526428806775112
% es.EZ (V/m) @ t=0.34
0.9038226691385045
% es.tEX (V/m) @ t=0.34
0.8895441602322762
% es.tEY (V/m) @ t=0.34
0
% es.tEZ (V/m) @ t=0.34
0.9038226691384779
% es.Ex (V/m) @ t=0.34
0.8895441602322869
% es.Ey (V/m) @ t=0.34
0.2526428806775112
% es.Ez (V/m) @ t=0.34
0.9038226691385045
% es.tEx (V/m) @ t=0.34
0.8895441602322762
% es.tEy (V/m) @ t=0.34
0
% es.tEz (V/m) @ t=0.34
0.9038226691384779
% V (V) @ t=0.34
0.0122847839400308
% es.normE (V/m) @ t=0.36
1.329306568826075
% es.EX (V/m) @ t=0.36
0.9026133203754547
% es.EY (V/m) @ t=0.36
0.2563547206767929
% es.EZ (V/m) @ t=0.36
0.9171016111811028
% es.tEX (V/m) @ t=0.36
0.9026133203754512
% es.tEY (V/m) @ t=0.36
0
% es.tEZ (V/m) @ t=0.36
0.9171016111811028
% es.Ex (V/m) @ t=0.36
0.9026133203754547
% es.Ey (V/m) @ t=0.36
0.2563547206767929
% es.Ez (V/m) @ t=0.36
0.9171016111811028
% es.tEx (V/m) @ t=0.36
0.9026133203754512
% es.tEy (V/m) @ t=0.36
0
% es.tEz (V/m) @ t=0.36
0.9171016111811028
% V (V) @ t=0.36
0.012465270373749743
% es.normE (V/m) @ t=0.38
1.348553933897298
% es.EX (V/m) @ t=0.38
0.9156824805186261
% es.EY (V/m) @ t=0.38
0.2600665606761847
% es.EZ (V/m) @ t=0.38
0.930380553223749
% es.tEX (V/m) @ t=0.38
0.9156824805186261
% es.tEY (V/m) @ t=0.38
0
% es.tEZ (V/m) @ t=0.38
0.9303805532237348
% es.Ex (V/m) @ t=0.38
0.9156824805186261
% es.Ey (V/m) @ t=0.38
0.2600665606761847
% es.Ez (V/m) @ t=0.38
0.930380553223749
% es.tEx (V/m) @ t=0.38
0.9156824805186261
% es.tEy (V/m) @ t=0.38
0
% es.tEz (V/m) @ t=0.38
0.9303805532237348
% V (V) @ t=0.38
0.012645756807468692
% es.normE (V/m) @ t=0.4
1.3678012989684376
% es.EX (V/m) @ t=0.4
0.9287516406617549
% es.EY (V/m) @ t=0.4
0.26377840067555525
% es.EZ (V/m) @ t=0.4
0.9436594952663295
% es.tEX (V/m) @ t=0.4
0.9287516406617442
% es.tEY (V/m) @ t=0.4
0
% es.tEZ (V/m) @ t=0.4
0.9436594952663171
% es.Ex (V/m) @ t=0.4
0.9287516406617549
% es.Ey (V/m) @ t=0.4
0.26377840067555525
% es.Ez (V/m) @ t=0.4
0.9436594952663295
% es.tEx (V/m) @ t=0.4
0.9287516406617442
% es.tEy (V/m) @ t=0.4
0
% es.tEz (V/m) @ t=0.4
0.9436594952663171
% V (V) @ t=0.4
0.012826243241187637
% es.normE (V/m) @ t=0.42
1.3880154051158216
% es.EX (V/m) @ t=0.42
0.9424772294063928
% es.EY (V/m) @ t=0.42
0.2676766722924455
% es.EZ (V/m) @ t=0.42
0.9576054020804481
% es.tEX (V/m) @ t=0.42
0.9424772294063786
% es.tEY (V/m) @ t=0.42
0
% es.tEZ (V/m) @ t=0.42
0.9576054020804321
% es.Ex (V/m) @ t=0.42
0.9424772294063928
% es.Ey (V/m) @ t=0.42
0.2676766722924455
% es.Ez (V/m) @ t=0.42
0.9576054020804481
% es.tEx (V/m) @ t=0.42
0.9424772294063786
% es.tEy (V/m) @ t=0.42
0
% es.tEz (V/m) @ t=0.42
0.9576054020804321
% V (V) @ t=0.42
0.01301579532698759
% es.normE (V/m) @ t=0.44
1.4089572509855897
% es.EX (V/m) @ t=0.44
0.9566969620123125
% es.EY (V/m) @ t=0.44
0.2717152852032161
% es.EZ (V/m) @ t=0.44
0.9720533841343517
% es.tEX (V/m) @ t=0.44
0.9566969620123018
% es.tEY (V/m) @ t=0.44
0
% es.tEZ (V/m) @ t=0.44
0.9720533841343411
% es.Ex (V/m) @ t=0.44
0.9566969620123125
% es.Ey (V/m) @ t=0.44
0.2717152852032161
% es.Ez (V/m) @ t=0.44
0.9720533841343517
% es.tEx (V/m) @ t=0.44
0.9566969620123018
% es.tEy (V/m) @ t=0.44
0
% es.tEz (V/m) @ t=0.44
0.9720533841343411
% V (V) @ t=0.44
0.01321217182036792
% es.normE (V/m) @ t=0.46
1.4298990968553893
% es.EX (V/m) @ t=0.46
0.9709166946182641
% es.EY (V/m) @ t=0.46
0.27575389811395645
% es.EZ (V/m) @ t=0.46
0.9865013661882909
% es.tEX (V/m) @ t=0.46
0.9709166946182535
% es.tEY (V/m) @ t=0.46
0
% es.tEZ (V/m) @ t=0.46
0.9865013661882784
% es.Ex (V/m) @ t=0.46
0.9709166946182641
% es.Ey (V/m) @ t=0.46
0.27575389811395645
% es.Ez (V/m) @ t=0.46
0.9865013661882909
% es.tEx (V/m) @ t=0.46
0.9709166946182535
% es.tEy (V/m) @ t=0.46
0
% es.tEz (V/m) @ t=0.46
0.9865013661882784
% V (V) @ t=0.46
0.013408548313748249
% es.normE (V/m) @ t=0.48
1.4508409427251594
% es.EX (V/m) @ t=0.48
0.9851364272241732
% es.EY (V/m) @ t=0.48
0.27979251102474834
% es.EZ (V/m) @ t=0.48
1.0009493482421998
% es.tEX (V/m) @ t=0.48
0.9851364272241625
% es.tEY (V/m) @ t=0.48
0
% es.tEZ (V/m) @ t=0.48
1.0009493482421874
% es.Ex (V/m) @ t=0.48
0.9851364272241732
% es.Ey (V/m) @ t=0.48
0.27979251102474834
% es.Ez (V/m) @ t=0.48
1.0009493482421998
% es.tEx (V/m) @ t=0.48
0.9851364272241625
% es.tEy (V/m) @ t=0.48
0
% es.tEz (V/m) @ t=0.48
1.0009493482421874
% V (V) @ t=0.48
0.013604924807128577
% es.normE (V/m) @ t=0.5
1.4717827885949768
% es.EX (V/m) @ t=0.5
0.9993561598300964
% es.EY (V/m) @ t=0.5
0.2838311239355775
% es.EZ (V/m) @ t=0.5
1.0153973302961479
% es.tEX (V/m) @ t=0.5
0.9993561598300715
% es.tEY (V/m) @ t=0.5
0
% es.tEZ (V/m) @ t=0.5
1.0153973302961319
% es.Ex (V/m) @ t=0.5
0.9993561598300964
% es.Ey (V/m) @ t=0.5
0.2838311239355775
% es.Ez (V/m) @ t=0.5
1.0153973302961479
% es.tEx (V/m) @ t=0.5
0.9993561598300715
% es.tEy (V/m) @ t=0.5
0
% es.tEz (V/m) @ t=0.5
1.0153973302961319
% V (V) @ t=0.5
0.013801301300508908
% es.normE (V/m) @ t=0.52
1.492724634464756
% es.EX (V/m) @ t=0.52
1.0135758924360019
% es.EY (V/m) @ t=0.52
0.2878697368463854
% es.EZ (V/m) @ t=0.52
1.0298453123500657
% es.tEX (V/m) @ t=0.52
1.0135758924359806
% es.tEY (V/m) @ t=0.52
0
% es.tEZ (V/m) @ t=0.52
1.029845312350055
% es.Ex (V/m) @ t=0.52
1.0135758924360019
% es.Ey (V/m) @ t=0.52
0.2878697368463854
% es.Ez (V/m) @ t=0.52
1.0298453123500657
% es.tEx (V/m) @ t=0.52
1.0135758924359806
% es.tEy (V/m) @ t=0.52
0
% es.tEz (V/m) @ t=0.52
1.029845312350055
% V (V) @ t=0.52
0.013997677793889237
% es.normE (V/m) @ t=0.54
1.5136664803345399
% es.EX (V/m) @ t=0.54
1.0277956250419358
% es.EY (V/m) @ t=0.54
0.2919083497571613
% es.EZ (V/m) @ t=0.54
1.0442932944039782
% es.tEX (V/m) @ t=0.54
1.0277956250419322
% es.tEY (V/m) @ t=0.54
0
% es.tEZ (V/m) @ t=0.54
1.0442932944039711
% es.Ex (V/m) @ t=0.54
1.0277956250419358
% es.Ey (V/m) @ t=0.54
0.2919083497571613
% es.Ez (V/m) @ t=0.54
1.0442932944039782
% es.tEx (V/m) @ t=0.54
1.0277956250419322
% es.tEy (V/m) @ t=0.54
0
% es.tEz (V/m) @ t=0.54
1.0442932944039711
% V (V) @ t=0.54
0.014194054287269567
% es.normE (V/m) @ t=0.56
1.5352168181085402
% es.EX (V/m) @ t=0.56
1.042428531498473
% es.EY (V/m) @ t=0.56
0.296064305738593
% es.EZ (V/m) @ t=0.56
1.0591610818079662
% es.tEX (V/m) @ t=0.56
1.0424285314984587
% es.tEY (V/m) @ t=0.56
0
% es.tEZ (V/m) @ t=0.56
1.0591610818079502
% es.Ex (V/m) @ t=0.56
1.042428531498473
% es.Ey (V/m) @ t=0.56
0.296064305738593
% es.Ez (V/m) @ t=0.56
1.0591610818079662
% es.tEx (V/m) @ t=0.56
1.0424285314984587
% es.tEy (V/m) @ t=0.56
0
% es.tEz (V/m) @ t=0.56
1.0591610818079502
% V (V) @ t=0.56
0.01439613709861402
% es.normE (V/m) @ t=0.58
1.5571406752877266
% es.EX (V/m) @ t=0.58
1.0573150624483993
% es.EY (V/m) @ t=0.58
0.30029229211783104
% es.EZ (V/m) @ t=0.58
1.074286564414754
% es.tEX (V/m) @ t=0.58
1.0573150624483674
% es.tEY (V/m) @ t=0.58
0
% es.tEZ (V/m) @ t=0.58
1.0742865644147486
% es.Ex (V/m) @ t=0.58
1.0573150624483993
% es.Ey (V/m) @ t=0.58
0.30029229211783104
% es.Ez (V/m) @ t=0.58
1.074286564414754
% es.tEx (V/m) @ t=0.58
1.0573150624483674
% es.tEy (V/m) @ t=0.58
0
% es.tEz (V/m) @ t=0.58
1.0742865644147486
% V (V) @ t=0.58
0.014601722701822722
% es.normE (V/m) @ t=0.6
1.5792749361482592
% es.EX (V/m) @ t=0.6
1.0723444602114363
% es.EY (V/m) @ t=0.6
0.30456085325884885
% es.EZ (V/m) @ t=0.6
1.0895572068675925
% es.tEX (V/m) @ t=0.6
1.0723444602114114
% es.tEY (V/m) @ t=0.6
0
% es.tEZ (V/m) @ t=0.6
1.0895572068675747
% es.Ex (V/m) @ t=0.6
1.0723444602114363
% es.Ey (V/m) @ t=0.6
0.30456085325884885
% es.Ez (V/m) @ t=0.6
1.0895572068675925
% es.tEx (V/m) @ t=0.6
1.0723444602114114
% es.tEy (V/m) @ t=0.6
0
% es.tEz (V/m) @ t=0.6
1.0895572068675747
% V (V) @ t=0.6
0.014809281429569318
% es.normE (V/m) @ t=0.62
1.6016196006903716
% es.EX (V/m) @ t=0.62
1.0875167247878927
% es.EY (V/m) @ t=0.62
0.30886998916160024
% es.EZ (V/m) @ t=0.62
1.104973009166537
% es.tEX (V/m) @ t=0.62
1.0875167247878892
% es.tEY (V/m) @ t=0.62
0
% es.tEZ (V/m) @ t=0.62
1.104973009166521
% es.Ex (V/m) @ t=0.62
1.0875167247878927
% es.Ey (V/m) @ t=0.62
0.30886998916160024
% es.Ez (V/m) @ t=0.62
1.104973009166537
% es.tEx (V/m) @ t=0.62
1.0875167247878892
% es.tEy (V/m) @ t=0.62
0
% es.tEz (V/m) @ t=0.62
1.104973009166521
% V (V) @ t=0.62
0.015018813281853814
% es.normE (V/m) @ t=0.64
1.6241746689139165
% es.EX (V/m) @ t=0.64
1.1028318561775592
% es.EY (V/m) @ t=0.64
0.31321969982616693
% es.EZ (V/m) @ t=0.64
1.1205339713115574
% es.tEX (V/m) @ t=0.64
1.102831856177545
% es.tEY (V/m) @ t=0.64
0
% es.tEZ (V/m) @ t=0.64
1.1205339713115379
% es.Ex (V/m) @ t=0.64
1.1028318561775592
% es.Ey (V/m) @ t=0.64
0.31321969982616693
% es.Ez (V/m) @ t=0.64
1.1205339713115574
% es.tEx (V/m) @ t=0.64
1.102831856177545
% es.tEy (V/m) @ t=0.64
0
% es.tEz (V/m) @ t=0.64
1.1205339713115379
% V (V) @ t=0.64
0.015230318258676207
% es.normE (V/m) @ t=0.66
1.646940140818925
% es.EX (V/m) @ t=0.66
1.1182898543804995
% es.EY (V/m) @ t=0.66
0.3176099852525418
% es.EZ (V/m) @ t=0.66
1.136240093302641
% es.tEX (V/m) @ t=0.66
1.118289854380464
% es.tEY (V/m) @ t=0.66
0
% es.tEZ (V/m) @ t=0.66
1.136240093302625
% es.Ex (V/m) @ t=0.66
1.1182898543804995
% es.Ey (V/m) @ t=0.66
0.3176099852525418
% es.Ez (V/m) @ t=0.66
1.136240093302641
% es.tEx (V/m) @ t=0.66
1.118289854380464
% es.tEy (V/m) @ t=0.66
0
% es.tEz (V/m) @ t=0.66
1.136240093302625
% V (V) @ t=0.66
0.0154437963600365
% es.normE (V/m) @ t=0.68
1.6699160164054518
% es.EX (V/m) @ t=0.68
1.1338907193967742
% es.EY (V/m) @ t=0.68
0.3220408454406183
% es.EZ (V/m) @ t=0.68
1.1520913751398325
% es.tEX (V/m) @ t=0.68
1.13389071939676
% es.tEY (V/m) @ t=0.68
0
% es.tEZ (V/m) @ t=0.68
1.1520913751398183
% es.Ex (V/m) @ t=0.68
1.1338907193967742
% es.Ey (V/m) @ t=0.68
0.3220408454406183
% es.Ez (V/m) @ t=0.68
1.1520913751398325
% es.tEx (V/m) @ t=0.68
1.13389071939676
% es.tEy (V/m) @ t=0.68
0
% es.tEz (V/m) @ t=0.68
1.1520913751398183
% V (V) @ t=0.68
0.01565924758593469
% es.normE (V/m) @ t=0.7
1.6931022956734156
% es.EX (V/m) @ t=0.7
1.1496344512262908
% es.EY (V/m) @ t=0.7
0.32651228039042834
% es.EZ (V/m) @ t=0.7
1.1680878168231192
% es.tEX (V/m) @ t=0.7
1.149634451226234
% es.tEY (V/m) @ t=0.7
0
% es.tEZ (V/m) @ t=0.7
1.1680878168231033
% es.Ex (V/m) @ t=0.7
1.1496344512262908
% es.Ey (V/m) @ t=0.7
0.32651228039042834
% es.Ez (V/m) @ t=0.7
1.1680878168231192
% es.tEx (V/m) @ t=0.7
1.149634451226234
% es.tEy (V/m) @ t=0.7
0
% es.tEz (V/m) @ t=0.7
1.1680878168231033
% V (V) @ t=0.7
0.015876671936370778
% es.normE (V/m) @ t=0.72
1.7164989786228415
% es.EX (V/m) @ t=0.72
1.165521049869021
% es.EY (V/m) @ t=0.72
0.33102429010213896
% es.EZ (V/m) @ t=0.72
1.1842294183524693
% es.tEX (V/m) @ t=0.72
1.1655210498689712
% es.tEY (V/m) @ t=0.72
0
% es.tEZ (V/m) @ t=0.72
1.1842294183524587
% es.Ex (V/m) @ t=0.72
1.165521049869021
% es.Ey (V/m) @ t=0.72
0.33102429010213896
% es.Ez (V/m) @ t=0.72
1.1842294183524693
% es.tEx (V/m) @ t=0.72
1.1655210498689712
% es.tEy (V/m) @ t=0.72
0
% es.tEz (V/m) @ t=0.72
1.1842294183524587
% V (V) @ t=0.72
0.01609606941134476
% es.normE (V/m) @ t=0.74
1.7401060652537494
% es.EX (V/m) @ t=0.74
1.1815505153250925
% es.EY (V/m) @ t=0.74
0.33557687457548013
% es.EZ (V/m) @ t=0.74
1.2005161797279147
% es.tEX (V/m) @ t=0.74
1.1815505153250854
% es.tEY (V/m) @ t=0.74
0
% es.tEZ (V/m) @ t=0.74
1.2005161797278987
% es.Ex (V/m) @ t=0.74
1.1815505153250925
% es.Ey (V/m) @ t=0.74
0.33557687457548013
% es.Ez (V/m) @ t=0.74
1.2005161797279147
% es.tEx (V/m) @ t=0.74
1.1815505153250854
% es.tEy (V/m) @ t=0.74
0
% es.tEz (V/m) @ t=0.74
1.2005161797278987
% V (V) @ t=0.74
0.01631744001085665
% es.normE (V/m) @ t=0.76
1.7639235555661372
% es.EX (V/m) @ t=0.76
1.1977228475943917
% es.EY (V/m) @ t=0.76
0.34017003381067923
% es.EZ (V/m) @ t=0.76
1.2169481009494625
% es.tEX (V/m) @ t=0.76
1.1977228475943775
% es.tEY (V/m) @ t=0.76
0
% es.tEZ (V/m) @ t=0.76
1.2169481009494447
% es.Ex (V/m) @ t=0.76
1.1977228475943917
% es.Ey (V/m) @ t=0.76
0.34017003381067923
% es.Ez (V/m) @ t=0.76
1.2169481009494625
% es.tEx (V/m) @ t=0.76
1.1977228475943775
% es.tEy (V/m) @ t=0.76
0
% es.tEz (V/m) @ t=0.76
1.2169481009494447
% V (V) @ t=0.76
0.01654078373490643
% es.normE (V/m) @ t=0.78
1.7879514495599622
% es.EX (V/m) @ t=0.78
1.2140380466769543
% es.EY (V/m) @ t=0.78
0.3448037678076865
% es.EZ (V/m) @ t=0.78
1.2335251820170363
% es.tEX (V/m) @ t=0.78
1.2140380466769614
% es.tEY (V/m) @ t=0.78
0
% es.tEZ (V/m) @ t=0.78
1.2335251820170186
% es.Ex (V/m) @ t=0.78
1.2140380466769543
% es.Ey (V/m) @ t=0.78
0.3448037678076865
% es.Ez (V/m) @ t=0.78
1.2335251820170363
% es.tEx (V/m) @ t=0.78
1.2140380466769614
% es.tEy (V/m) @ t=0.78
0
% es.tEz (V/m) @ t=0.78
1.2335251820170186
% V (V) @ t=0.78
0.01676610058349411
% es.normE (V/m) @ t=0.8
1.8121897472352892
% es.EX (V/m) @ t=0.8
1.2304961125728155
% es.EY (V/m) @ t=0.8
0.34947807656631724
% es.EZ (V/m) @ t=0.8
1.2502474229307783
% es.tEX (V/m) @ t=0.8
1.2304961125728084
% es.tEY (V/m) @ t=0.8
0
% es.tEZ (V/m) @ t=0.8
1.250247422930748
% es.Ex (V/m) @ t=0.8
1.2304961125728155
% es.Ey (V/m) @ t=0.8
0.34947807656631724
% es.Ez (V/m) @ t=0.8
1.2502474229307783
% es.tEx (V/m) @ t=0.8
1.2304961125728084
% es.tEy (V/m) @ t=0.8
0
% es.tEz (V/m) @ t=0.8
1.250247422930748
% V (V) @ t=0.8
0.01699339055661969
% es.normE (V/m) @ t=0.82
1.836700369981135
% es.EX (V/m) @ t=0.82
1.2471390897822445
% es.EY (V/m) @ t=0.82
0.35420490362202983
% es.EZ (V/m) @ t=0.82
1.267157543390864
% es.tEX (V/m) @ t=0.82
1.2471390897822232
% es.tEY (V/m) @ t=0.82
0
% es.tEZ (V/m) @ t=0.82
1.2671575433908373
% es.Ex (V/m) @ t=0.82
1.2471390897822445
% es.Ey (V/m) @ t=0.82
0.35420490362202983
% es.Ez (V/m) @ t=0.82
1.267157543390864
% es.tEx (V/m) @ t=0.82
1.2471390897822232
% es.tEy (V/m) @ t=0.82
0
% es.tEz (V/m) @ t=0.82
1.2671575433908373
% V (V) @ t=0.82
0.01722323412316553
% es.normE (V/m) @ t=0.84
1.8618037917900785
% es.EX (V/m) @ t=0.84
1.2641845795097808
% es.EY (V/m) @ t=0.84
0.3590460627110801
% es.EZ (V/m) @ t=0.84
1.2844766390987647
% es.tEX (V/m) @ t=0.84
1.2641845795097595
% es.tEY (V/m) @ t=0.84
0
% es.tEZ (V/m) @ t=0.84
1.2844766390987417
% es.Ex (V/m) @ t=0.84
1.2641845795097808
% es.Ey (V/m) @ t=0.84
0.3590460627110801
% es.Ez (V/m) @ t=0.84
1.2844766390987647
% es.tEx (V/m) @ t=0.84
1.2641845795097595
% es.tEy (V/m) @ t=0.84
0
% es.tEz (V/m) @ t=0.84
1.2844766390987417
% V (V) @ t=0.84
0.017458635498369433
% es.normE (V/m) @ t=0.86
1.8871771969804647
% es.EX (V/m) @ t=0.86
1.2814133905485434
% es.EY (V/m) @ t=0.86
0.3639392884269981
% es.EZ (V/m) @ t=0.86
1.3019819988167551
% es.tEX (V/m) @ t=0.86
1.2814133905484937
% es.tEY (V/m) @ t=0.86
0
% es.tEZ (V/m) @ t=0.86
1.3019819988167285
% es.Ex (V/m) @ t=0.86
1.2814133905485434
% es.Ey (V/m) @ t=0.86
0.3639392884269981
% es.Ez (V/m) @ t=0.86
1.3019819988167551
% es.tEx (V/m) @ t=0.86
1.2814133905484937
% es.tEy (V/m) @ t=0.86
0
% es.tEz (V/m) @ t=0.86
1.3019819988167285
% V (V) @ t=0.86
0.01769656851532845
% es.normE (V/m) @ t=0.88
1.9128205855523728
% es.EX (V/m) @ t=0.88
1.2988255228987455
% es.EY (V/m) @ t=0.88
0.3688845807694996
% es.EZ (V/m) @ t=0.88
1.3196736225448475
% es.tEX (V/m) @ t=0.88
1.2988255228986816
% es.tEY (V/m) @ t=0.88
0
% es.tEZ (V/m) @ t=0.88
1.319673622544812
% es.Ex (V/m) @ t=0.88
1.2988255228987455
% es.Ey (V/m) @ t=0.88
0.3688845807694996
% es.Ez (V/m) @ t=0.88
1.3196736225448475
% es.tEx (V/m) @ t=0.88
1.2988255228986816
% es.tEy (V/m) @ t=0.88
0
% es.tEz (V/m) @ t=0.88
1.319673622544812
% V (V) @ t=0.88
0.017937033174042594
% es.normE (V/m) @ t=0.9
1.9387339575056524
% es.EX (V/m) @ t=0.9
1.316420976560046
% es.EY (V/m) @ t=0.9
0.37388193973899675
% es.EZ (V/m) @ t=0.9
1.3375515102829993
% es.tEX (V/m) @ t=0.9
1.316420976560039
% es.tEY (V/m) @ t=0.9
0
% es.tEZ (V/m) @ t=0.9
1.337551510282978
% es.Ex (V/m) @ t=0.9
1.316420976560046
% es.Ey (V/m) @ t=0.9
0.37388193973899675
% es.Ez (V/m) @ t=0.9
1.3375515102829993
% es.tEx (V/m) @ t=0.9
1.316420976560039
% es.tEy (V/m) @ t=0.9
0
% es.tEz (V/m) @ t=0.9
1.337551510282978
% V (V) @ t=0.9
0.01818002947451185
% es.normE (V/m) @ t=0.92
1.9649173128404243
% es.EX (V/m) @ t=0.92
1.3341997515326511
% es.EY (V/m) @ t=0.92
0.3789313653352515
% es.EZ (V/m) @ t=0.92
1.355615662031287
% es.tEX (V/m) @ t=0.92
1.3341997515326511
% es.tEY (V/m) @ t=0.92
0
% es.tEZ (V/m) @ t=0.92
1.3556156620312692
% es.Ex (V/m) @ t=0.92
1.3341997515326511
% es.Ey (V/m) @ t=0.92
0.3789313653352515
% es.Ez (V/m) @ t=0.92
1.355615662031287
% es.tEx (V/m) @ t=0.92
1.3341997515326511
% es.tEy (V/m) @ t=0.92
0
% es.tEz (V/m) @ t=0.92
1.3556156620312692
% V (V) @ t=0.92
0.018425557416736224
% es.normE (V/m) @ t=0.94
1.9913706515566587
% es.EX (V/m) @ t=0.94
1.3521618478165465
% es.EY (V/m) @ t=0.94
0.38403285755827454
% es.EZ (V/m) @ t=0.94
1.373866077789657
% es.tEX (V/m) @ t=0.94
1.352161847816518
% es.tEY (V/m) @ t=0.94
0
% es.tEZ (V/m) @ t=0.94
1.3738660777896428
% es.Ex (V/m) @ t=0.94
1.3521618478165465
% es.Ey (V/m) @ t=0.94
0.38403285755827454
% es.Ez (V/m) @ t=0.94
1.373866077789657
% es.tEx (V/m) @ t=0.94
1.352161847816518
% es.tEy (V/m) @ t=0.94
0
% es.tEz (V/m) @ t=0.94
1.3738660777896428
% V (V) @ t=0.94
0.018673617000715716
% es.normE (V/m) @ t=0.96
2.0180939736544348
% es.EX (V/m) @ t=0.96
1.3703072654118031
% es.EY (V/m) @ t=0.96
0.38918641640806584
% es.EZ (V/m) @ t=0.96
1.3923027575581752
% es.tEX (V/m) @ t=0.96
1.3703072654118102
% es.tEY (V/m) @ t=0.96
0
% es.tEZ (V/m) @ t=0.96
1.3923027575581557
% es.Ex (V/m) @ t=0.96
1.3703072654118031
% es.Ey (V/m) @ t=0.96
0.38918641640806584
% es.Ez (V/m) @ t=0.96
1.3923027575581752
% es.tEx (V/m) @ t=0.96
1.3703072654118102
% es.tEy (V/m) @ t=0.96
0
% es.tEz (V/m) @ t=0.96
1.3923027575581557
% V (V) @ t=0.96
0.01892420822645033
% es.normE (V/m) @ t=0.98
2.04508727913363
% es.EX (V/m) @ t=0.98
1.388636004318343
% es.EY (V/m) @ t=0.98
0.3943920418846254
% es.EZ (V/m) @ t=0.98
1.4109257013367404
% es.tEX (V/m) @ t=0.98
1.3886360043183288
% es.tEY (V/m) @ t=0.98
0
% es.tEZ (V/m) @ t=0.98
1.4109257013367227
% es.Ex (V/m) @ t=0.98
1.388636004318343
% es.Ey (V/m) @ t=0.98
0.3943920418846254
% es.Ez (V/m) @ t=0.98
1.4109257013367404
% es.tEx (V/m) @ t=0.98
1.3886360043183288
% es.tEy (V/m) @ t=0.98
0
% es.tEz (V/m) @ t=0.98
1.4109257013367227
% V (V) @ t=0.98
0.019177331093940056
% es.normE (V/m) @ t=1
2.0723505679942544
% es.EX (V/m) @ t=1
1.4071480645360381
% es.EY (V/m) @ t=1
0.39964973398808823
% es.EZ (V/m) @ t=1
1.4297349091254166
% es.tEX (V/m) @ t=1
1.4071480645360452
% es.tEY (V/m) @ t=1
0
% es.tEZ (V/m) @ t=1
1.4297349091254006
% es.Ex (V/m) @ t=1
1.4071480645360381
% es.Ey (V/m) @ t=1
0.39964973398808823
% es.Ez (V/m) @ t=1
1.4297349091254166
% es.tEx (V/m) @ t=1
1.4071480645360452
% es.tEy (V/m) @ t=1
0
% es.tEz (V/m) @ t=1
1.4297349091254006
% V (V) @ t=1
0.019432985603184905
% es.normE (V/m) @ t=1.02
2.0998838402364264
% es.EX (V/m) @ t=1.02
1.4258434460651301
% es.EY (V/m) @ t=1.02
0.40495949271828735
% es.EZ (V/m) @ t=1.02
1.4487303809242125
% es.tEX (V/m) @ t=1.02
1.4258434460651017
% es.tEY (V/m) @ t=1.02
0
% es.tEZ (V/m) @ t=1.02
1.4487303809241894
% es.Ex (V/m) @ t=1.02
1.4258434460651301
% es.Ey (V/m) @ t=1.02
0.40495949271828735
% es.Ez (V/m) @ t=1.02
1.4487303809242125
% es.tEx (V/m) @ t=1.02
1.4258434460651017
% es.tEy (V/m) @ t=1.02
0
% es.tEz (V/m) @ t=1.02
1.4487303809241894
% V (V) @ t=1.02
0.01969117175418487
% es.normE (V/m) @ t=1.04
2.1276870958599794
% es.EX (V/m) @ t=1.04
1.4447221489053987
% es.EY (V/m) @ t=1.04
0.41032131807532934
% es.EZ (V/m) @ t=1.04
1.4679121167330873
% es.tEX (V/m) @ t=1.04
1.4447221489053845
% es.tEY (V/m) @ t=1.04
0
% es.tEZ (V/m) @ t=1.04
1.4679121167330607
% es.Ex (V/m) @ t=1.04
1.4447221489053987
% es.Ey (V/m) @ t=1.04
0.41032131807532934
% es.Ez (V/m) @ t=1.04
1.4679121167330873
% es.tEx (V/m) @ t=1.04
1.4447221489053845