% Model:              1 neuron.mph
% Version:            COMSOL 6.0.0.405
% Date:               Mar 16 2023, 19:25
% Dimension:          0
% Nodes:              14017
% Expressions:        14017
% Description:        Electric field norm, Electric field, X component, Electric field, Y component, Electric field, Z component, Tangential electric field, X component, Tangential electric field, Y component, Tangential electric field, Z component, Electric field, x component, Electric field, y component, Electric field, z component, Tangential electric field, x component, Tangential electric field, y component, Tangential electric field, z component, Electric potential
% Length unit:        mm
% x
1
% y
12.2
% z
1.6599999999999997
% es.normE (V/m) @ t=0
2.4132520828388078
% es.EX (V/m) @ t=0
2.160367131255516
% es.EY (V/m) @ t=0
0.08312048121326815
% es.EZ (V/m) @ t=0
-1.0722361591402956
% es.tEX (V/m) @ t=0
2.1603671312555166
% es.tEY (V/m) @ t=0
0
% es.tEZ (V/m) @ t=0
-1.0722361591402887
% es.Ex (V/m) @ t=0
2.160367131255516
% es.Ey (V/m) @ t=0
0.08312048121326815
% es.Ez (V/m) @ t=0
-1.0722361591402956
% es.tEx (V/m) @ t=0
2.1603671312555166
% es.tEy (V/m) @ t=0
0
% es.tEz (V/m) @ t=0
-1.0722361591402887
% V (V) @ t=0
0.01094891412598855
% es.normE (V/m) @ t=0.02
2.095930056846732
% es.EX (V/m) @ t=0.02
1.8762973194457504
% es.EY (V/m) @ t=0.02
0.0721908598632347
% es.EZ (V/m) @ t=0.02
-0.9312462579971059
% es.tEX (V/m) @ t=0.02
1.8762973194457473
% es.tEY (V/m) @ t=0.02
0
% es.tEZ (V/m) @ t=0.02
-0.9312462579970884
% es.Ex (V/m) @ t=0.02
1.8762973194457504
% es.Ey (V/m) @ t=0.02
0.0721908598632347
% es.Ez (V/m) @ t=0.02
-0.9312462579971059
% es.tEx (V/m) @ t=0.02
1.8762973194457473
% es.tEy (V/m) @ t=0.02
0
% es.tEz (V/m) @ t=0.02
-0.9312462579970884
% V (V) @ t=0.02
0.009509225194003207
% es.normE (V/m) @ t=0.04
2.1270090579405747
% es.EX (V/m) @ t=0.04
1.9041195573795315
% es.EY (V/m) @ t=0.04
0.07326135069322123
% es.EZ (V/m) @ t=0.04
-0.9450550023889897
% es.tEX (V/m) @ t=0.04
1.904119557379528
% es.tEY (V/m) @ t=0.04
0
% es.tEZ (V/m) @ t=0.04
-0.9450550023889832
% es.Ex (V/m) @ t=0.04
1.9041195573795315
% es.Ey (V/m) @ t=0.04
0.07326135069322123
% es.Ez (V/m) @ t=0.04
-0.9450550023889897
% es.tEx (V/m) @ t=0.04
1.904119557379528
% es.tEy (V/m) @ t=0.04
0
% es.tEz (V/m) @ t=0.04
-0.9450550023889832
% V (V) @ t=0.04
0.009650229848687526
% es.normE (V/m) @ t=0.06
2.158563017999679
% es.EX (V/m) @ t=0.06
1.932366961769597
% es.EY (V/m) @ t=0.06
0.07434813401909021
% es.EZ (V/m) @ t=0.06
-0.9590748251208568
% es.tEX (V/m) @ t=0.06
1.9323669617695964
% es.tEY (V/m) @ t=0.06
0
% es.tEZ (V/m) @ t=0.06
-0.9590748251208439
% es.Ex (V/m) @ t=0.06
1.932366961769597
% es.Ey (V/m) @ t=0.06
0.07434813401909021
% es.Ez (V/m) @ t=0.06
-0.9590748251208568
% es.tEx (V/m) @ t=0.06
1.9323669617695964
% es.tEy (V/m) @ t=0.06
0
% es.tEz (V/m) @ t=0.06
-0.9590748251208439
% V (V) @ t=0.06
0.009793390989344121
% es.normE (V/m) @ t=0.08
2.190901828283063
% es.EX (V/m) @ t=0.08
1.961316984228725
% es.EY (V/m) @ t=0.08
0.07546198998513304
% es.EZ (V/m) @ t=0.08
-0.9734433379533223
% es.tEX (V/m) @ t=0.08
1.9613169842287173
% es.tEY (V/m) @ t=0.08
0
% es.tEZ (V/m) @ t=0.08
-0.973443337953313
% es.Ex (V/m) @ t=0.08
1.961316984228725
% es.Ey (V/m) @ t=0.08
0.07546198998513304
% es.Ez (V/m) @ t=0.08
-0.9734433379533223
% es.tEx (V/m) @ t=0.08
1.9613169842287173
% es.tEy (V/m) @ t=0.08
0
% es.tEz (V/m) @ t=0.08
-0.973443337953313
% V (V) @ t=0.08
0.009940112053309873
% es.normE (V/m) @ t=0.1
2.2238293847215767
% es.EX (V/m) @ t=0.1
1.9907940673599271
% es.EY (V/m) @ t=0.1
0.07659615417347099
% es.EZ (V/m) @ t=0.1
-0.9880734165593643
% es.tEX (V/m) @ t=0.1
1.9907940673599267
% es.tEY (V/m) @ t=0.1
0
% es.tEZ (V/m) @ t=0.1
-0.9880734165593665
% es.Ex (V/m) @ t=0.1
1.9907940673599271
% es.Ey (V/m) @ t=0.1
0.07659615417347099
% es.Ez (V/m) @ t=0.1
-0.9880734165593643
% es.tEx (V/m) @ t=0.1
1.9907940673599267
% es.tEy (V/m) @ t=0.1
0
% es.tEz (V/m) @ t=0.1
-0.9880734165593665
% V (V) @ t=0.1
0.010089503551832527
% es.normE (V/m) @ t=0.12
2.256756941160111
% es.EX (V/m) @ t=0.12
2.020271150491147
% es.EY (V/m) @ t=0.12
0.07773031836181338
% es.EZ (V/m) @ t=0.12
-1.002703495165417
% es.tEX (V/m) @ t=0.12
2.0202711504911486
% es.tEY (V/m) @ t=0.12
0
% es.tEZ (V/m) @ t=0.12
-1.0027034951654201
% es.Ex (V/m) @ t=0.12
2.020271150491147
% es.Ey (V/m) @ t=0.12
0.07773031836181338
% es.Ez (V/m) @ t=0.12
-1.002703495165417
% es.tEx (V/m) @ t=0.12
2.0202711504911486
% es.tEy (V/m) @ t=0.12
0
% es.tEz (V/m) @ t=0.12
-1.0027034951654201
% V (V) @ t=0.12
0.010238895050355181
% es.normE (V/m) @ t=0.14
2.2901384710051067
% es.EX (V/m) @ t=0.14
2.0501547251068866
% es.EY (V/m) @ t=0.14
0.07888040787051107
% es.EZ (V/m) @ t=0.14
-1.0175350756959778
% es.tEX (V/m) @ t=0.14
2.050154725106884
% es.tEY (V/m) @ t=0.14
0
% es.tEZ (V/m) @ t=0.14
-1.0175350756959745
% es.Ex (V/m) @ t=0.14
2.0501547251068866
% es.Ey (V/m) @ t=0.14
0.07888040787051107
% es.Ez (V/m) @ t=0.14
-1.0175350756959778
% es.tEx (V/m) @ t=0.14
2.050154725106884
% es.tEy (V/m) @ t=0.14
0
% es.tEz (V/m) @ t=0.14
-1.0175350756959745
% V (V) @ t=0.14
0.010390339407279361
% es.normE (V/m) @ t=0.16
2.326037401541818
% es.EX (V/m) @ t=0.16
2.0822924007978543
% es.EY (V/m) @ t=0.16
0.08011880742520144
% es.EZ (V/m) @ t=0.16
-1.03348403684084
% es.tEX (V/m) @ t=0.16
2.0822924007978525
% es.tEY (V/m) @ t=0.16
0
% es.tEZ (V/m) @ t=0.16
-1.0334840368408251
% es.Ex (V/m) @ t=0.16
2.0822924007978543
% es.Ey (V/m) @ t=0.16
0.08011880742520144
% es.Ez (V/m) @ t=0.16
-1.03348403684084
% es.tEx (V/m) @ t=0.16
2.0822924007978525
% es.tEy (V/m) @ t=0.16
0
% es.tEz (V/m) @ t=0.16
-1.0334840368408251
% V (V) @ t=0.16
0.010553167398317038
% es.normE (V/m) @ t=0.18
2.3619363320813735
% es.EX (V/m) @ t=0.18
2.114430076488823
% es.EY (V/m) @ t=0.18
0.08135720697989804
% es.EZ (V/m) @ t=0.18
-1.0494329979857056
% es.tEX (V/m) @ t=0.18
2.114430076488813
% es.tEY (V/m) @ t=0.18
0
% es.tEZ (V/m) @ t=0.18
-1.0494329979857042
% es.Ex (V/m) @ t=0.18
2.114430076488823
% es.Ey (V/m) @ t=0.18
0.08135720697989804
% es.Ez (V/m) @ t=0.18
-1.0494329979857056
% es.tEx (V/m) @ t=0.18
2.114430076488813
% es.tEy (V/m) @ t=0.18
0
% es.tEz (V/m) @ t=0.18
-1.0494329979857042
% V (V) @ t=0.18
0.010715995389354714
% es.normE (V/m) @ t=0.2
2.397835262623662
% es.EX (V/m) @ t=0.2
2.1465677521798012
% es.EY (V/m) @ t=0.2
0.08259560653461415
% es.EZ (V/m) @ t=0.2
-1.065381959130589
% es.tEX (V/m) @ t=0.2
2.146567752179788
% es.tEY (V/m) @ t=0.2
0
% es.tEZ (V/m) @ t=0.2
-1.065381959130569
% es.Ex (V/m) @ t=0.2
2.1465677521798012
% es.Ey (V/m) @ t=0.2
0.08259560653461415
% es.Ez (V/m) @ t=0.2
-1.065381959130589
% es.tEx (V/m) @ t=0.2
2.146567752179788
% es.tEy (V/m) @ t=0.2
0
% es.tEz (V/m) @ t=0.2
-1.065381959130569
% V (V) @ t=0.2
0.01087882338039239
% es.normE (V/m) @ t=0.22
2.433734193168524
% es.EX (V/m) @ t=0.22
2.1787054278707614
% es.EY (V/m) @ t=0.22
0.08383400608930186
% es.EZ (V/m) @ t=0.22
-1.0813309202754655
% es.tEX (V/m) @ t=0.22
2.178705427870762
% es.tEY (V/m) @ t=0.22
0
% es.tEZ (V/m) @ t=0.22
-1.0813309202754624
% es.Ex (V/m) @ t=0.22
2.1787054278707614
% es.Ey (V/m) @ t=0.22
0.08383400608930186
% es.Ez (V/m) @ t=0.22
-1.0813309202754655
% es.tEx (V/m) @ t=0.22
2.178705427870762
% es.tEy (V/m) @ t=0.22
0
% es.tEz (V/m) @ t=0.22
-1.0813309202754624
% V (V) @ t=0.22
0.011041651371430063
% es.normE (V/m) @ t=0.24
2.469633123715874
% es.EX (V/m) @ t=0.24
2.210843103561733
% es.EY (V/m) @ t=0.24
0.08507240564401708
% es.EZ (V/m) @ t=0.24
-1.097279881420331
% es.tEX (V/m) @ t=0.24
2.2108431035617313
% es.tEY (V/m) @ t=0.24
0
% es.tEZ (V/m) @ t=0.24
-1.0972798814203273
% es.Ex (V/m) @ t=0.24
2.210843103561733
% es.Ey (V/m) @ t=0.24
0.08507240564401708
% es.Ez (V/m) @ t=0.24
-1.097279881420331
% es.tEx (V/m) @ t=0.24
2.2108431035617313
% es.tEy (V/m) @ t=0.24
0
% es.tEz (V/m) @ t=0.24
-1.0972798814203273
% V (V) @ t=0.24
0.01120447936246774
% es.normE (V/m) @ t=0.26
2.505532054265604
% es.EX (V/m) @ t=0.26
2.242980779252705
% es.EY (V/m) @ t=0.26
0.08631080519869769
% es.EZ (V/m) @ t=0.26
-1.113228842565211
% es.tEX (V/m) @ t=0.26
2.242980779252706
% es.tEY (V/m) @ t=0.26
0
% es.tEZ (V/m) @ t=0.26
-1.1132288425651922
% es.Ex (V/m) @ t=0.26
2.242980779252705
% es.Ey (V/m) @ t=0.26
0.08631080519869769
% es.Ez (V/m) @ t=0.26
-1.113228842565211
% es.tEx (V/m) @ t=0.26
2.242980779252706
% es.tEy (V/m) @ t=0.26
0
% es.tEz (V/m) @ t=0.26
-1.1132288425651922
% V (V) @ t=0.26
0.011367307353505416
% es.normE (V/m) @ t=0.28
2.5424562409178844
% es.EX (V/m) @ t=0.28
2.276035432821609
% es.EY (V/m) @ t=0.28
0.08758179674088079
% es.EZ (V/m) @ t=0.28
-1.1296352438997332
% es.tEX (V/m) @ t=0.28
2.276035432821609
% es.tEY (V/m) @ t=0.28
0
% es.tEZ (V/m) @ t=0.28
-1.1296352438997417
% es.Ex (V/m) @ t=0.28
2.276035432821609
% es.Ey (V/m) @ t=0.28
0.08758179674088079
% es.Ez (V/m) @ t=0.28
-1.1296352438997332
% es.tEx (V/m) @ t=0.28
2.276035432821609
% es.tEy (V/m) @ t=0.28
0
% es.tEz (V/m) @ t=0.28
-1.1296352438997417
% V (V) @ t=0.28
0.011534850917954795
% es.normE (V/m) @ t=0.3
2.5816039702457596
% es.EX (V/m) @ t=0.3
2.3110787986959664
% es.EY (V/m) @ t=0.3
0.08892347274359197
% es.EZ (V/m) @ t=0.3
-1.147033726893027
% es.tEX (V/m) @ t=0.3
2.311078798695963
% es.tEY (V/m) @ t=0.3
0
% es.tEZ (V/m) @ t=0.3
-1.147033726893028
% es.Ex (V/m) @ t=0.3
2.3110787986959664
% es.Ey (V/m) @ t=0.3
0.08892347274359197
% es.Ez (V/m) @ t=0.3
-1.147033726893027
% es.tEx (V/m) @ t=0.3
2.311078798695963
% es.tEy (V/m) @ t=0.3
0
% es.tEz (V/m) @ t=0.3
-1.147033726893028
% V (V) @ t=0.3
0.011712621467260063
% es.normE (V/m) @ t=0.32
2.620751699606555
% es.EX (V/m) @ t=0.32
2.3461221645703056
% es.EY (V/m) @ t=0.32
0.09026514874626407
% es.EZ (V/m) @ t=0.32
-1.1644322098863102
% es.tEX (V/m) @ t=0.32
2.3461221645703016
% es.tEY (V/m) @ t=0.32
0
% es.tEZ (V/m) @ t=0.32
-1.1644322098863071
% es.Ex (V/m) @ t=0.32
2.3461221645703056
% es.Ey (V/m) @ t=0.32
0.09026514874626407
% es.Ez (V/m) @ t=0.32
-1.1644322098863102
% es.tEx (V/m) @ t=0.32
2.3461221645703016
% es.tEy (V/m) @ t=0.32
0
% es.tEz (V/m) @ t=0.32
-1.1644322098863071
% V (V) @ t=0.32
0.011890392016565329
% es.normE (V/m) @ t=0.34
2.6598994289988522
% es.EX (V/m) @ t=0.34
2.38116553044466
% es.EY (V/m) @ t=0.34
0.09160682474894594
% es.EZ (V/m) @ t=0.34
-1.1818306928795899
% es.tEX (V/m) @ t=0.34
2.3811655304446493
% es.tEY (V/m) @ t=0.34
0
% es.tEZ (V/m) @ t=0.34
-1.1818306928796005
% es.Ex (V/m) @ t=0.34
2.38116553044466
% es.Ey (V/m) @ t=0.34
0.09160682474894594
% es.Ez (V/m) @ t=0.34
-1.1818306928795899
% es.tEx (V/m) @ t=0.34
2.3811655304446493
% es.tEy (V/m) @ t=0.34
0
% es.tEz (V/m) @ t=0.34
-1.1818306928796005
% V (V) @ t=0.34
0.012068162565870596
% es.normE (V/m) @ t=0.36
2.699047158421286
% es.EX (V/m) @ t=0.36
2.4162088963190165
% es.EY (V/m) @ t=0.36
0.09294850075165889
% es.EZ (V/m) @ t=0.36
-1.1992291758729052
% es.tEX (V/m) @ t=0.36
2.4162088963190094
% es.tEY (V/m) @ t=0.36
0
% es.tEZ (V/m) @ t=0.36
-1.1992291758728726
% es.Ex (V/m) @ t=0.36
2.4162088963190165
% es.Ey (V/m) @ t=0.36
0.09294850075165889
% es.Ez (V/m) @ t=0.36
-1.1992291758729052
% es.tEx (V/m) @ t=0.36
2.4162088963190094
% es.tEy (V/m) @ t=0.36
0
% es.tEz (V/m) @ t=0.36
-1.1992291758728726
% V (V) @ t=0.36
0.012245933115175864
% es.normE (V/m) @ t=0.38
2.738194887872504
% es.EX (V/m) @ t=0.38
2.451252262193349
% es.EY (V/m) @ t=0.38
0.09429017675436208
% es.EZ (V/m) @ t=0.38
-1.2166276588661742
% es.tEX (V/m) @ t=0.38
2.451252262193349
% es.tEY (V/m) @ t=0.38
0
% es.tEZ (V/m) @ t=0.38
-1.2166276588661589
% es.Ex (V/m) @ t=0.38
2.451252262193349
% es.Ey (V/m) @ t=0.38
0.09429017675436208
% es.Ez (V/m) @ t=0.38
-1.2166276588661742
% es.tEx (V/m) @ t=0.38
2.451252262193349
% es.tEy (V/m) @ t=0.38
0
% es.tEz (V/m) @ t=0.38
-1.2166276588661589
% V (V) @ t=0.38
0.012423703664481131
% es.normE (V/m) @ t=0.4
2.7773426173513553
% es.EX (V/m) @ t=0.4
2.486295628067706
% es.EY (V/m) @ t=0.4
0.09563185275705105
% es.EZ (V/m) @ t=0.4
-1.234026141859454
% es.tEX (V/m) @ t=0.4
2.486295628067688
% es.tEY (V/m) @ t=0.4
0
% es.tEZ (V/m) @ t=0.4
-1.2340261418594594
% es.Ex (V/m) @ t=0.4
2.486295628067706
% es.Ey (V/m) @ t=0.4
0.09563185275705105
% es.Ez (V/m) @ t=0.4
-1.234026141859454
% es.tEx (V/m) @ t=0.4
2.486295628067688
% es.tEy (V/m) @ t=0.4
0
% es.tEz (V/m) @ t=0.4
-1.2340261418594594
% V (V) @ t=0.4
0.012601474213786398
% es.normE (V/m) @ t=0.42
2.81812996205776
% es.EX (V/m) @ t=0.42
2.522808101379524
% es.EY (V/m) @ t=0.42
0.09703425335092997
% es.EZ (V/m) @ t=0.42
-1.2521501604259564
% es.tEX (V/m) @ t=0.42
2.5228081013795203
% es.tEY (V/m) @ t=0.42
0
% es.tEZ (V/m) @ t=0.42
-1.2521501604259626
% es.Ex (V/m) @ t=0.42
2.522808101379524
% es.Ey (V/m) @ t=0.42
0.09703425335092997
% es.Ez (V/m) @ t=0.42
-1.2521501604259564
% es.tEx (V/m) @ t=0.42
2.5228081013795203
% es.tEy (V/m) @ t=0.42
0
% es.tEz (V/m) @ t=0.42
-1.2521501604259626
% V (V) @ t=0.42
0.01278658397277498
% es.normE (V/m) @ t=0.44
2.860705139892846
% es.EX (V/m) @ t=0.44
2.560922486487228
% es.EY (V/m) @ t=0.44
0.09850286791699614
% es.EZ (V/m) @ t=0.44
-1.2710653015226852
% es.tEX (V/m) @ t=0.44
2.560922486487221
% es.tEY (V/m) @ t=0.44
0
% es.tEZ (V/m) @ t=0.44
-1.2710653015226754
% es.Ex (V/m) @ t=0.44
2.560922486487228
% es.Ey (V/m) @ t=0.44
0.09850286791699614
% es.Ez (V/m) @ t=0.44
-1.2710653015226852
% es.tEx (V/m) @ t=0.44
2.560922486487221
% es.tEy (V/m) @ t=0.44
0
% es.tEz (V/m) @ t=0.44
-1.2710653015226754
% V (V) @ t=0.44
0.012979696391245157
% es.normE (V/m) @ t=0.46
2.9032803177323503
% es.EX (V/m) @ t=0.46
2.599036871594927
% es.EY (V/m) @ t=0.46
0.0999714824830677
% es.EZ (V/m) @ t=0.46
-1.2899804426193784
% es.tEX (V/m) @ t=0.46
2.5990368715949224
% es.tEY (V/m) @ t=0.46
0
% es.tEZ (V/m) @ t=0.46
-1.289980442619374
% es.Ex (V/m) @ t=0.46
2.599036871594927
% es.Ey (V/m) @ t=0.46
0.0999714824830677
% es.Ez (V/m) @ t=0.46
-1.2899804426193784
% es.tEx (V/m) @ t=0.46
2.5990368715949224
% es.tEy (V/m) @ t=0.46
0
% es.tEz (V/m) @ t=0.46
-1.289980442619374
% V (V) @ t=0.46
0.013172808809715334
% es.normE (V/m) @ t=0.48
2.945855495576113
% es.EX (V/m) @ t=0.48
2.637151256702631
% es.EY (V/m) @ t=0.48
0.10144009704912144
% es.EZ (V/m) @ t=0.48
-1.3088955837160894
% es.tEX (V/m) @ t=0.48
2.637151256702631
% es.tEY (V/m) @ t=0.48
0
% es.tEZ (V/m) @ t=0.48
-1.3088955837160796
% es.Ex (V/m) @ t=0.48
2.637151256702631
% es.Ey (V/m) @ t=0.48
0.10144009704912144
% es.Ez (V/m) @ t=0.48
-1.3088955837160894
% es.tEx (V/m) @ t=0.48
2.637151256702631
% es.tEy (V/m) @ t=0.48
0
% es.tEz (V/m) @ t=0.48
-1.3088955837160796
% V (V) @ t=0.48
0.013365921228185512
% es.normE (V/m) @ t=0.5
2.9884306734239106
% es.EX (V/m) @ t=0.5
2.6752656418103156
% es.EY (V/m) @ t=0.5
0.10290871161519838
% es.EZ (V/m) @ t=0.5
-1.327810724812772
% es.tEX (V/m) @ t=0.5
2.675265641810304
% es.tEY (V/m) @ t=0.5
0
% es.tEZ (V/m) @ t=0.5
-1.327810724812764
% es.Ex (V/m) @ t=0.5
2.6752656418103156
% es.Ey (V/m) @ t=0.5
0.10290871161519838
% es.Ez (V/m) @ t=0.5
-1.327810724812772
% es.tEx (V/m) @ t=0.5
2.675265641810304
% es.tEy (V/m) @ t=0.5
0
% es.tEz (V/m) @ t=0.5
-1.327810724812764
% V (V) @ t=0.5
0.013559033646655687
% es.normE (V/m) @ t=0.52
3.0310058512756215
% es.EX (V/m) @ t=0.52
2.7133800269180126
% es.EY (V/m) @ t=0.52
0.10437732618122014
% es.EZ (V/m) @ t=0.52
-1.3467258659094758
% es.tEX (V/m) @ t=0.52
2.7133800269180055
% es.tEY (V/m) @ t=0.52
0
% es.tEZ (V/m) @ t=0.52
-1.3467258659094696
% es.Ex (V/m) @ t=0.52
2.7133800269180126
% es.Ey (V/m) @ t=0.52
0.10437732618122014
% es.Ez (V/m) @ t=0.52
-1.3467258659094758
% es.tEx (V/m) @ t=0.52
2.7133800269180055
% es.tEy (V/m) @ t=0.52
0
% es.tEz (V/m) @ t=0.52
-1.3467258659094696
% V (V) @ t=0.52
0.013752146065125866
% es.normE (V/m) @ t=0.54
3.0735810291310726
% es.EX (V/m) @ t=0.54
2.751494412025714
% es.EY (V/m) @ t=0.54
0.10584594074726683
% es.EZ (V/m) @ t=0.54
-1.3656410070061904
% es.tEX (V/m) @ t=0.54
2.7514944120257203
% es.tEY (V/m) @ t=0.54
0
% es.tEZ (V/m) @ t=0.54
-1.3656410070061682
% es.Ex (V/m) @ t=0.54
2.751494412025714
% es.Ey (V/m) @ t=0.54
0.10584594074726683
% es.Ez (V/m) @ t=0.54
-1.3656410070061904
% es.tEx (V/m) @ t=0.54
2.7514944120257203
% es.tEy (V/m) @ t=0.54
0
% es.tEz (V/m) @ t=0.54
-1.3656410070061682
% V (V) @ t=0.54
0.013945258483596042
% es.normE (V/m) @ t=0.56
3.1171835907565812
% es.EX (V/m) @ t=0.56
2.7905283771820324
% es.EY (V/m) @ t=0.56
0.1073494692459328
% es.EZ (V/m) @ t=0.56
-1.3850129536869966
% es.tEX (V/m) @ t=0.56
2.7905283771820333
% es.tEY (V/m) @ t=0.56
0
% es.tEZ (V/m) @ t=0.56
-1.3850129536870028
% es.Ex (V/m) @ t=0.56
2.7905283771820324
% es.Ey (V/m) @ t=0.56
0.1073494692459328
% es.Ez (V/m) @ t=0.56
-1.3850129536869966
% es.tEx (V/m) @ t=0.56
2.7905283771820333
% es.tEy (V/m) @ t=0.56
0
% es.tEz (V/m) @ t=0.56
-1.3850129536870028
% V (V) @ t=0.56
0.014143043178512255
% es.normE (V/m) @ t=0.58
3.1617127567111707
% es.EX (V/m) @ t=0.58
2.8303917177675153
% es.EY (V/m) @ t=0.58
0.10888448685519564
% es.EZ (V/m) @ t=0.58
-1.4047968963957367
% es.tEX (V/m) @ t=0.58
2.830391717767492
% es.tEY (V/m) @ t=0.58
0
% es.tEZ (V/m) @ t=0.58
-1.4047968963957231
% es.Ex (V/m) @ t=0.58
2.8303917177675153
% es.Ey (V/m) @ t=0.58
0.10888448685519564
% es.Ez (V/m) @ t=0.58
-1.4047968963957367
% es.tEx (V/m) @ t=0.58
2.830391717767492
% es.tEy (V/m) @ t=0.58
0
% es.tEz (V/m) @ t=0.58
-1.4047968963957231
% V (V) @ t=0.58
0.014345041830971563
% es.normE (V/m) @ t=0.6
3.206670449814472
% es.EX (V/m) @ t=0.6
2.870638620005582
% es.EY (V/m) @ t=0.6
0.11043406724848148
% es.EZ (V/m) @ t=0.6
-1.4247713751051436
% es.tEX (V/m) @ t=0.6
2.8706386200055825
% es.tEY (V/m) @ t=0.6
0
% es.tEZ (V/m) @ t=0.6
-1.4247713751051165
% es.Ex (V/m) @ t=0.6
2.870638620005582
% es.Ey (V/m) @ t=0.6
0.11043406724848148
% es.Ez (V/m) @ t=0.6
-1.4247713751051436
% es.tEx (V/m) @ t=0.6
2.8706386200055825
% es.tEy (V/m) @ t=0.6
0
% es.tEz (V/m) @ t=0.6
-1.4247713751051165
% V (V) @ t=0.6
0.014548989314397498
% es.normE (V/m) @ t=0.62
3.2520566700660227
% es.EX (V/m) @ t=0.62
2.911269083896262
% es.EY (V/m) @ t=0.62
0.11199821042587194
% es.EZ (V/m) @ t=0.62
-1.4449363898152028
% es.tEX (V/m) @ t=0.62
2.911269083896265
% es.tEY (V/m) @ t=0.62
0
% es.tEZ (V/m) @ t=0.62
-1.444936389815183
% es.Ex (V/m) @ t=0.62
2.911269083896262
% es.Ey (V/m) @ t=0.62
0.11199821042587194
% es.Ez (V/m) @ t=0.62
-1.4449363898152028
% es.tEx (V/m) @ t=0.62
2.911269083896265
% es.tEy (V/m) @ t=0.62
0
% es.tEz (V/m) @ t=0.62
-1.444936389815183
% V (V) @ t=0.62
0.014754885628790055
% es.normE (V/m) @ t=0.64
3.2978714174654318
% es.EX (V/m) @ t=0.64
2.952283109439551
% es.EY (V/m) @ t=0.64
0.11357691638731388
% es.EZ (V/m) @ t=0.64
-1.4652919405259253
% es.tEX (V/m) @ t=0.64
2.952283109439545
% es.tEY (V/m) @ t=0.64
0
% es.tEZ (V/m) @ t=0.64
-1.4652919405259084
% es.Ex (V/m) @ t=0.64
2.952283109439551
% es.Ey (V/m) @ t=0.64
0.11357691638731388
% es.Ez (V/m) @ t=0.64
-1.4652919405259253
% es.tEx (V/m) @ t=0.64
2.952283109439545
% es.tEy (V/m) @ t=0.64
0
% es.tEz (V/m) @ t=0.64
-1.4652919405259084
% V (V) @ t=0.64
0.014962730774149238
% es.normE (V/m) @ t=0.66
3.3441146920123823
% es.EX (V/m) @ t=0.66
2.9936806966354306
% es.EY (V/m) @ t=0.66
0.11517018513285332
% es.EZ (V/m) @ t=0.66
-1.4858380272373322
% es.tEX (V/m) @ t=0.66
2.9936806966354244
% es.tEY (V/m) @ t=0.66
0
% es.tEZ (V/m) @ t=0.66
-1.4858380272373282
% es.Ex (V/m) @ t=0.66
2.9936806966354306
% es.Ey (V/m) @ t=0.66
0.11517018513285332
% es.Ez (V/m) @ t=0.66
-1.4858380272373322
% es.tEx (V/m) @ t=0.66
2.9936806966354244
% es.tEy (V/m) @ t=0.66
0
% es.tEz (V/m) @ t=0.66
-1.4858380272373282
% V (V) @ t=0.66
0.015172524750475043
% es.normE (V/m) @ t=0.68
3.3907864937066705
% es.EX (V/m) @ t=0.68
3.035461845483928
% es.EY (V/m) @ t=0.68
0.11677801666246018
% es.EZ (V/m) @ t=0.68
-1.5065746499494272
% es.tEX (V/m) @ t=0.68
3.0354618454839226
% es.tEY (V/m) @ t=0.68
0
% es.tEZ (V/m) @ t=0.68
-1.506574649949414
% es.Ex (V/m) @ t=0.68
3.035461845483928
% es.Ey (V/m) @ t=0.68
0.11677801666246018
% es.Ez (V/m) @ t=0.68
-1.5065746499494272
% es.tEx (V/m) @ t=0.68
3.0354618454839226
% es.tEy (V/m) @ t=0.68
0
% es.tEz (V/m) @ t=0.68
-1.506574649949414
% V (V) @ t=0.68
0.015384267557767468
% es.normE (V/m) @ t=0.7
3.4378868225481485
% es.EX (V/m) @ t=0.7
3.077626555985051
% es.EY (V/m) @ t=0.7
0.1184004109761655
% es.EZ (V/m) @ t=0.7
-1.52750180866221
% es.tEX (V/m) @ t=0.7
3.0776265559850557
% es.tEY (V/m) @ t=0.7
0
% es.tEZ (V/m) @ t=0.7
-1.5275018086622012
% es.Ex (V/m) @ t=0.7
3.077626555985051
% es.Ey (V/m) @ t=0.7
0.1184004109761655
% es.Ez (V/m) @ t=0.7
-1.52750180866221
% es.tEx (V/m) @ t=0.7
3.0776265559850557
% es.tEy (V/m) @ t=0.7
0
% es.tEz (V/m) @ t=0.7
-1.5275018086622012
% V (V) @ t=0.7
0.015597959196026523
% es.normE (V/m) @ t=0.72
3.485415678536667
% es.EX (V/m) @ t=0.72
3.120174828138758
% es.EY (V/m) @ t=0.72
0.12003736807390081
% es.EZ (V/m) @ t=0.72
-1.5486195033756314
% es.tEX (V/m) @ t=0.72
3.120174828138749
% es.tEY (V/m) @ t=0.72
0
% es.tEZ (V/m) @ t=0.72
-1.5486195033756118
% es.Ex (V/m) @ t=0.72
3.120174828138758
% es.Ey (V/m) @ t=0.72
0.12003736807390081
% es.Ez (V/m) @ t=0.72
-1.5486195033756314
% es.tEx (V/m) @ t=0.72
3.120174828138749
% es.tEy (V/m) @ t=0.72
0
% es.tEz (V/m) @ t=0.72
-1.5486195033756118
% V (V) @ t=0.72
0.015813599665252198
% es.normE (V/m) @ t=0.74
3.533373061672237
% es.EX (V/m) @ t=0.74
3.163106661945054
% es.EY (V/m) @ t=0.74
0.12168888795571065
% es.EZ (V/m) @ t=0.74
-1.5699277340897515
% es.tEX (V/m) @ t=0.74
3.1631066619450525
% es.tEY (V/m) @ t=0.74
0
% es.tEZ (V/m) @ t=0.74
-1.5699277340897382
% es.Ex (V/m) @ t=0.74
3.163106661945054
% es.Ey (V/m) @ t=0.74
0.12168888795571065
% es.Ez (V/m) @ t=0.74
-1.5699277340897515
% es.tEx (V/m) @ t=0.74
3.1631066619450525
% es.tEy (V/m) @ t=0.74
0
% es.tEz (V/m) @ t=0.74
-1.5699277340897382
% V (V) @ t=0.74
0.01603118896544449
% es.normE (V/m) @ t=0.76
3.5817589719549394
% es.EX (V/m) @ t=0.76
3.206422057404004
% es.EY (V/m) @ t=0.76
0.12335497062162604
% es.EZ (V/m) @ t=0.76
-1.591426500804531
% es.tEX (V/m) @ t=0.76
3.2064220574040068
% es.tEY (V/m) @ t=0.76
0
% es.tEZ (V/m) @ t=0.76
-1.5914265008045234
% es.Ex (V/m) @ t=0.76
3.206422057404004
% es.Ey (V/m) @ t=0.76
0.12335497062162604
% es.Ez (V/m) @ t=0.76
-1.591426500804531
% es.tEx (V/m) @ t=0.76
3.2064220574040068
% es.tEy (V/m) @ t=0.76
0
% es.tEz (V/m) @ t=0.76
-1.5914265008045234
% V (V) @ t=0.76
0.016250727096603416
% es.normE (V/m) @ t=0.78
3.6305734093847994
% es.EX (V/m) @ t=0.78
3.2501210145155177
% es.EY (V/m) @ t=0.78
0.12503561607160257
% es.EZ (V/m) @ t=0.78
-1.6131158035200022
% es.tEX (V/m) @ t=0.78
3.2501210145155195
% es.tEY (V/m) @ t=0.78
0
% es.tEZ (V/m) @ t=0.78
-1.613115803519996
% es.Ex (V/m) @ t=0.78
3.2501210145155177
% es.Ey (V/m) @ t=0.78
0.12503561607160257
% es.Ez (V/m) @ t=0.78
-1.6131158035200022
% es.tEx (V/m) @ t=0.78
3.2501210145155195
% es.tEy (V/m) @ t=0.78
0
% es.tEz (V/m) @ t=0.78
-1.613115803519996
% V (V) @ t=0.78
0.01647221405872896
% es.normE (V/m) @ t=0.8
3.679816373962031
% es.EX (V/m) @ t=0.8
3.294203533279668
% es.EY (V/m) @ t=0.8
0.12673082430568483
% es.EZ (V/m) @ t=0.8
-1.6349956422361611
% es.tEX (V/m) @ t=0.8
3.294203533279669
% es.tEY (V/m) @ t=0.8
0
% es.tEZ (V/m) @ t=0.8
-1.6349956422361416
% es.Ex (V/m) @ t=0.8
3.294203533279668
% es.Ey (V/m) @ t=0.8
0.12673082430568483
% es.Ez (V/m) @ t=0.8
-1.6349956422361611
% es.tEx (V/m) @ t=0.8
3.294203533279669
% es.tEy (V/m) @ t=0.8
0
% es.tEz (V/m) @ t=0.8
-1.6349956422361416
% V (V) @ t=0.8
0.016695649851821127
% es.normE (V/m) @ t=0.82
3.729487865686748
% es.EX (V/m) @ t=0.82
3.3386696136963927
% es.EY (V/m) @ t=0.82
0.12844059532376145
% es.EZ (V/m) @ t=0.82
-1.6570660169529585
% es.tEX (V/m) @ t=0.82
3.3386696136964
% es.tEY (V/m) @ t=0.82
0
% es.tEZ (V/m) @ t=0.82
-1.657066016952946
% es.Ex (V/m) @ t=0.82
3.3386696136963927
% es.Ey (V/m) @ t=0.82
0.12844059532376145
% es.Ez (V/m) @ t=0.82
-1.6570660169529585
% es.tEx (V/m) @ t=0.82
3.3386696136964
% es.tEy (V/m) @ t=0.82
0
% es.tEz (V/m) @ t=0.82
-1.657066016952946
% V (V) @ t=0.82
0.01692103447587992
% es.normE (V/m) @ t=0.84
3.7804375063107174
% es.EX (V/m) @ t=0.84
3.384280464624654
% es.EY (V/m) @ t=0.84
0.13019620906166918
% es.EZ (V/m) @ t=0.84
-1.6797030207271773
% es.tEX (V/m) @ t=0.84
3.384280464624652
% es.tEY (V/m) @ t=0.84
0
% es.tEZ (V/m) @ t=0.84
-1.6797030207271675
% es.Ex (V/m) @ t=0.84
3.384280464624654
% es.Ey (V/m) @ t=0.84
0.13019620906166918
% es.Ez (V/m) @ t=0.84
-1.6797030207271773
% es.tEx (V/m) @ t=0.84
3.384280464624652
% es.tEy (V/m) @ t=0.84
0
% es.tEz (V/m) @ t=0.84
-1.6797030207271675
% V (V) @ t=0.84
0.01715217540568747
% es.normE (V/m) @ t=0.86
3.831962930260548
% es.EX (V/m) @ t=0.86
3.4304068096884004
% es.EY (V/m) @ t=0.86
0.13197180701246802
% es.EZ (V/m) @ t=0.86
-1.7025957448338516
% es.tEX (V/m) @ t=0.86
3.4304068096883977
% es.tEY (V/m) @ t=0.86
0
% es.tEZ (V/m) @ t=0.86
-1.702595744833836
% es.Ex (V/m) @ t=0.86
3.4304068096884004
% es.Ey (V/m) @ t=0.86
0.13197180701246802
% es.Ez (V/m) @ t=0.86
-1.7025957448338516
% es.tEx (V/m) @ t=0.86
3.4304068096883977
% es.tEy (V/m) @ t=0.86
0
% es.tEz (V/m) @ t=0.86
-1.702595744833836
% V (V) @ t=0.86
0.017385925076807602
% es.normE (V/m) @ t=0.88
3.8840369296647
% es.EX (V/m) @ t=0.88
3.4770242723072586
% es.EY (V/m) @ t=0.88
0.1337663874826322
% es.EZ (V/m) @ t=0.88
-1.7257321454527248
% es.tEX (V/m) @ t=0.88
3.4770242723072418
% es.tEY (V/m) @ t=0.88
0
% es.tEZ (V/m) @ t=0.88
-1.7257321454527101
% es.Ex (V/m) @ t=0.88
3.4770242723072586
% es.Ey (V/m) @ t=0.88
0.1337663874826322
% es.Ez (V/m) @ t=0.88
-1.7257321454527248
% es.tEx (V/m) @ t=0.88
3.4770242723072418
% es.tEy (V/m) @ t=0.88
0
% es.tEz (V/m) @ t=0.88
-1.7257321454527101
% V (V) @ t=0.88
0.017622161560529065
% es.normE (V/m) @ t=0.9
3.936659504523162
% es.EX (V/m) @ t=0.9
3.524132852481112
% es.EY (V/m) @ t=0.9
0.13557995047224963
% es.EZ (V/m) @ t=0.9
-1.7491122225837181
% es.tEX (V/m) @ t=0.9
3.524132852481097
% es.tEY (V/m) @ t=0.9
0
% es.tEZ (V/m) @ t=0.9
-1.7491122225837046
% es.Ex (V/m) @ t=0.9
3.524132852481112
% es.Ey (V/m) @ t=0.9
0.13557995047224963
% es.Ez (V/m) @ t=0.9
-1.7491122225837181
% es.tEx (V/m) @ t=0.9
3.524132852481097
% es.tEy (V/m) @ t=0.9
0
% es.tEz (V/m) @ t=0.9
-1.7491122225837046
% V (V) @ t=0.9
0.017860884856851847
% es.normE (V/m) @ t=0.92
3.9898306548361857
% es.EX (V/m) @ t=0.92
3.571732550210041
% es.EY (V/m) @ t=0.92
0.1374124959813327
% es.EZ (V/m) @ t=0.92
-1.7727359762269492
% es.tEX (V/m) @ t=0.92
3.5717325502100365
% es.tEY (V/m) @ t=0.92
0
% es.tEZ (V/m) @ t=0.92
-1.7727359762269401
% es.Ex (V/m) @ t=0.92
3.571732550210041
% es.Ey (V/m) @ t=0.92
0.1374124959813327
% es.Ez (V/m) @ t=0.92
-1.7727359762269492
% es.tEx (V/m) @ t=0.92
3.5717325502100365
% es.tEy (V/m) @ t=0.92
0
% es.tEz (V/m) @ t=0.92
-1.7727359762269401
% V (V) @ t=0.92
0.01810209496577595
% es.normE (V/m) @ t=0.94
4.043550380603886
% es.EX (V/m) @ t=0.94
3.6198233654940517
% es.EY (V/m) @ t=0.94
0.13926402400985827
% es.EZ (V/m) @ t=0.94
-1.7966034063823682
% es.tEX (V/m) @ t=0.94
3.619823365494046
% es.tEY (V/m) @ t=0.94
0
% es.tEZ (V/m) @ t=0.94
-1.7966034063823315
% es.Ex (V/m) @ t=0.94
3.6198233654940517
% es.Ey (V/m) @ t=0.94
0.13926402400985827
% es.Ez (V/m) @ t=0.94
-1.7966034063823682
% es.tEx (V/m) @ t=0.94
3.619823365494046
% es.tEy (V/m) @ t=0.94
0
% es.tEz (V/m) @ t=0.94
-1.7966034063823315
% V (V) @ t=0.94
0.01834579188730138
% es.normE (V/m) @ t=0.96
4.097818681826345
% es.EX (V/m) @ t=0.96
3.6684052983331
% es.EY (V/m) @ t=0.96
0.14113453455783448
% es.EZ (V/m) @ t=0.96
-1.8207145130499467
% es.tEX (V/m) @ t=0.96
3.6684052983330933
% es.tEY (V/m) @ t=0.96
0
% es.tEZ (V/m) @ t=0.96
-1.8207145130499214
% es.Ex (V/m) @ t=0.96
3.6684052983331
% es.Ey (V/m) @ t=0.96
0.14113453455783448
% es.Ez (V/m) @ t=0.96
-1.8207145130499467
% es.tEx (V/m) @ t=0.96
3.6684052983330933
% es.tEy (V/m) @ t=0.96
0
% es.tEz (V/m) @ t=0.96
-1.8207145130499214
% V (V) @ t=0.96
0.018591975621428135
% es.normE (V/m) @ t=0.98
4.152635558503757
% es.EX (V/m) @ t=0.98
3.7174783487272545
% es.EY (V/m) @ t=0.98
0.14302402762526745
% es.EZ (V/m) @ t=0.98
-1.8450692962296706
% es.tEX (V/m) @ t=0.98
3.71747834872723
% es.tEY (V/m) @ t=0.98
0
% es.tEZ (V/m) @ t=0.98
-1.845069296229667
% es.Ex (V/m) @ t=0.98
3.7174783487272545
% es.Ey (V/m) @ t=0.98
0.14302402762526745
% es.Ez (V/m) @ t=0.98
-1.8450692962296706
% es.tEx (V/m) @ t=0.98
3.71747834872723
% es.tEy (V/m) @ t=0.98
0
% es.tEz (V/m) @ t=0.98
-1.845069296229667
% V (V) @ t=0.98
0.018840646168156207
% es.normE (V/m) @ t=1
4.208001010636217
% es.EX (V/m) @ t=1
3.767042516676424
% es.EY (V/m) @ t=1
0.1449325032120879
% es.EZ (V/m) @ t=1
-1.8696677559216213
% es.tEX (V/m) @ t=1
3.767042516676417
% es.tEY (V/m) @ t=1
0
% es.tEZ (V/m) @ t=1
-1.8696677559216113
% es.Ex (V/m) @ t=1
3.767042516676424
% es.Ey (V/m) @ t=1
0.1449325032120879
% es.Ez (V/m) @ t=1
-1.8696677559216213
% es.tEx (V/m) @ t=1
3.767042516676417
% es.tEy (V/m) @ t=1
0
% es.tEz (V/m) @ t=1
-1.8696677559216113
% V (V) @ t=1
0.019091803527485608
% es.normE (V/m) @ t=1.02
4.263915038223989
% es.EX (V/m) @ t=1.02
3.8170978021807325
% es.EY (V/m) @ t=1.02
0.14685996131839624
% es.EZ (V/m) @ t=1.02
-1.894509892125824
% es.tEX (V/m) @ t=1.02
3.8170978021807294
% es.tEY (V/m) @ t=1.02
0
% es.tEZ (V/m) @ t=1.02
-1.894509892125825
% es.Ex (V/m) @ t=1.02
3.8170978021807325
% es.Ey (V/m) @ t=1.02
0.14685996131839624
% es.Ez (V/m) @ t=1.02
-1.894509892125824
% es.tEx (V/m) @ t=1.02
3.8170978021807294
% es.tEy (V/m) @ t=1.02
0
% es.tEz (V/m) @ t=1.02
-1.894509892125825
% V (V) @ t=1.02
0.019345447699416336
% es.normE (V/m) @ t=1.04
4.320377641266985
% es.EX (V/m) @ t=1.04
3.867644205240009
% es.EY (V/m) @ t=1.04
0.14880640194409112
% es.EZ (V/m) @ t=1.04
-1.9195957048421008
% es.tEX (V/m) @ t=1.04
3.8676442052400155
% es.tEY (V/m) @ t=1.04
0
% es.tEZ (V/m) @ t=1.04
-1.9195957048421093
% es.Ex (V/m) @ t=1.04