% Model:              1 neuron.mph
% Version:            COMSOL 6.0.0.405
% Date:               Mar 16 2023, 19:28
% Dimension:          0
% Nodes:              14017
% Expressions:        14017
% Description:        Electric field norm, Electric field, X component, Electric field, Y component, Electric field, Z component, Tangential electric field, X component, Tangential electric field, Y component, Tangential electric field, Z component, Electric field, x component, Electric field, y component, Electric field, z component, Tangential electric field, x component, Tangential electric field, y component, Tangential electric field, z component, Electric potential
% Length unit:        mm
% x
1
% y
12.2
% z
1.33
% es.normE (V/m) @ t=0
2.1796000848001187
% es.EX (V/m) @ t=0
2.014234677721481
% es.EY (V/m) @ t=0
0.12682821264163158
% es.EZ (V/m) @ t=0
0.8142830016422653
% es.tEX (V/m) @ t=0
2.0142346777214772
% es.tEY (V/m) @ t=0
0
% es.tEZ (V/m) @ t=0
0.8142830016422669
% es.Ex (V/m) @ t=0
2.014234677721481
% es.Ey (V/m) @ t=0
0.12682821264163158
% es.Ez (V/m) @ t=0
0.8142830016422653
% es.tEx (V/m) @ t=0
2.0142346777214772
% es.tEy (V/m) @ t=0
0
% es.tEz (V/m) @ t=0
0.8142830016422669
% V (V) @ t=0
0.010872206390917603
% es.normE (V/m) @ t=0.02
1.8930020585328666
% es.EX (V/m) @ t=0.02
1.7493807309618061
% es.EY (V/m) @ t=0.02
0.11015143361041635
% es.EZ (V/m) @ t=0.02
0.7072120309839802
% es.tEX (V/m) @ t=0.02
1.7493807309618052
% es.tEY (V/m) @ t=0.02
0
% es.tEZ (V/m) @ t=0.02
0.7072120309839747
% es.Ex (V/m) @ t=0.02
1.7493807309618061
% es.Ey (V/m) @ t=0.02
0.11015143361041635
% es.Ez (V/m) @ t=0.02
0.7072120309839802
% es.tEx (V/m) @ t=0.02
1.7493807309618052
% es.tEy (V/m) @ t=0.02
0
% es.tEz (V/m) @ t=0.02
0.7072120309839747
% V (V) @ t=0.02
0.009442607744898206
% es.normE (V/m) @ t=0.04
1.9210736181816952
% es.EX (V/m) @ t=0.04
1.7753225115231102
% es.EY (V/m) @ t=0.04
0.11178488573239642
% es.EZ (V/m) @ t=0.04
0.7176993669379952
% es.tEX (V/m) @ t=0.04
1.7753225115231164
% es.tEY (V/m) @ t=0.04
0
% es.tEZ (V/m) @ t=0.04
0.7176993669379979
% es.Ex (V/m) @ t=0.04
1.7753225115231102
% es.Ey (V/m) @ t=0.04
0.11178488573239642
% es.Ez (V/m) @ t=0.04
0.7176993669379952
% es.tEx (V/m) @ t=0.04
1.7753225115231164
% es.tEy (V/m) @ t=0.04
0
% es.tEz (V/m) @ t=0.04
0.7176993669379979
% V (V) @ t=0.04
0.00958263312981227
% es.normE (V/m) @ t=0.06
1.9495673395040343
% es.EX (V/m) @ t=0.06
1.8016544256345082
% es.EY (V/m) @ t=0.06
0.1134428987283056
% es.EZ (V/m) @ t=0.06
0.7283444166759807
% es.tEX (V/m) @ t=0.06
1.8016544256345224
% es.tEY (V/m) @ t=0.06
0
% es.tEZ (V/m) @ t=0.06
0.7283444166759834
% es.Ex (V/m) @ t=0.06
1.8016544256345082
% es.Ey (V/m) @ t=0.06
0.1134428987283056
% es.Ez (V/m) @ t=0.06
0.7283444166759807
% es.tEx (V/m) @ t=0.06
1.8016544256345224
% es.tEy (V/m) @ t=0.06
0
% es.tEz (V/m) @ t=0.06
0.7283444166759834
% V (V) @ t=0.06
0.009724764611162198
% es.normE (V/m) @ t=0.08
1.9787854082292888
% es.EX (V/m) @ t=0.08
1.8286557142540518
% es.EY (V/m) @ t=0.08
0.11514312336646026
% es.EZ (V/m) @ t=0.08
0.7392601198573805
% es.tEX (V/m) @ t=0.08
1.8286557142540474
% es.tEY (V/m) @ t=0.08
0
% es.tEZ (V/m) @ t=0.08
0.7392601198573794
% es.Ex (V/m) @ t=0.08
1.8286557142540518
% es.Ey (V/m) @ t=0.08
0.11514312336646026
% es.Ez (V/m) @ t=0.08
0.7392601198573805
% es.tEx (V/m) @ t=0.08
1.8286557142540474
% es.tEy (V/m) @ t=0.08
0
% es.tEz (V/m) @ t=0.08
0.7392601198573794
% V (V) @ t=0.08
0.009870504989942491
% es.normE (V/m) @ t=0.1
2.0085135772496208
% es.EX (V/m) @ t=0.1
1.8561283901288599
% es.EY (V/m) @ t=0.1
0.11687307430871552
% es.EZ (V/m) @ t=0.1
0.7503664227438078
% es.tEX (V/m) @ t=0.1
1.8561283901288608
% es.tEY (V/m) @ t=0.1
0
% es.tEZ (V/m) @ t=0.1
0.7503664227438107
% es.Ex (V/m) @ t=0.1
1.8561283901288599
% es.Ey (V/m) @ t=0.1
0.11687307430871552
% es.Ez (V/m) @ t=0.1
0.7503664227438078
% es.tEx (V/m) @ t=0.1
1.8561283901288608
% es.tEy (V/m) @ t=0.1
0
% es.tEz (V/m) @ t=0.1
0.7503664227438107
% V (V) @ t=0.1
0.010018786828299925
% es.normE (V/m) @ t=0.12
2.0382417462699887
% es.EX (V/m) @ t=0.12
1.8836010660036875
% es.EY (V/m) @ t=0.12
0.11860302525097688
% es.EZ (V/m) @ t=0.12
0.7614727256302427
% es.tEX (V/m) @ t=0.12
1.883601066003699
% es.tEY (V/m) @ t=0.12
0
% es.tEZ (V/m) @ t=0.12
0.7614727256302465
% es.Ex (V/m) @ t=0.12
1.8836010660036875
% es.Ey (V/m) @ t=0.12
0.11860302525097688
% es.Ez (V/m) @ t=0.12
0.7614727256302427
% es.tEx (V/m) @ t=0.12
1.883601066003699
% es.tEy (V/m) @ t=0.12
0
% es.tEz (V/m) @ t=0.12
0.7614727256302465
% V (V) @ t=0.12
0.010167068666657357
% es.normE (V/m) @ t=0.14
2.0684611595004645
% es.EX (V/m) @ t=0.14
1.9115277230211118
% es.EY (V/m) @ t=0.14
0.12036153356404378
% es.EZ (V/m) @ t=0.14
0.7727625352041072
% es.tEX (V/m) @ t=0.14
1.9115277230211198
% es.tEY (V/m) @ t=0.14
0
% es.tEZ (V/m) @ t=0.14
0.7727625352041101
% es.Ex (V/m) @ t=0.14
1.9115277230211118
% es.Ey (V/m) @ t=0.14
0.12036153356404378
% es.Ez (V/m) @ t=0.14
0.7727625352041072
% es.tEx (V/m) @ t=0.14
1.9115277230211198
% es.tEy (V/m) @ t=0.14
0
% es.tEz (V/m) @ t=0.14
0.7727625352041101
% V (V) @ t=0.14
0.010317802783710578
% es.normE (V/m) @ t=0.16
2.1008660072915313
% es.EX (V/m) @ t=0.16
1.941474039626394
% es.EY (V/m) @ t=0.16
0.12224708717118116
% es.EZ (V/m) @ t=0.16
0.7848687245917934
% es.tEX (V/m) @ t=0.16
1.9414740396263905
% es.tEY (V/m) @ t=0.16
0
% es.tEZ (V/m) @ t=0.16
0.784868724591786
% es.Ex (V/m) @ t=0.16
1.941474039626394
% es.Ey (V/m) @ t=0.16
0.12224708717118116
% es.Ez (V/m) @ t=0.16
0.7848687245917934
% es.tEx (V/m) @ t=0.16
1.9414740396263905
% es.tEy (V/m) @ t=0.16
0
% es.tEz (V/m) @ t=0.16
0.784868724591786
% V (V) @ t=0.16
0.010479446534920956
% es.normE (V/m) @ t=0.18
2.1332708550825847
% es.EX (V/m) @ t=0.18
1.9714203562316612
% es.EY (V/m) @ t=0.18
0.12413264077831465
% es.EZ (V/m) @ t=0.18
0.7969749139794755
% es.tEX (V/m) @ t=0.18
1.9714203562316612
% es.tEY (V/m) @ t=0.18
0
% es.tEZ (V/m) @ t=0.18
0.7969749139794771
% es.Ex (V/m) @ t=0.18
1.9714203562316612
% es.Ey (V/m) @ t=0.18
0.12413264077831465
% es.Ez (V/m) @ t=0.18
0.7969749139794755
% es.tEx (V/m) @ t=0.18
1.9714203562316612
% es.tEy (V/m) @ t=0.18
0
% es.tEz (V/m) @ t=0.18
0.7969749139794771
% V (V) @ t=0.18
0.010641090286131336
% es.normE (V/m) @ t=0.2
2.165675702873643
% es.EX (V/m) @ t=0.2
2.0013666728369284
% es.EY (V/m) @ t=0.2
0.1260181943854598
% es.EZ (V/m) @ t=0.2
0.8090811033671597
% es.tEX (V/m) @ t=0.2
2.0013666728369355
% es.tEY (V/m) @ t=0.2
0
% es.tEZ (V/m) @ t=0.2
0.8090811033671605
% es.Ex (V/m) @ t=0.2
2.0013666728369284
% es.Ey (V/m) @ t=0.2
0.1260181943854598
% es.Ez (V/m) @ t=0.2
0.8090811033671597
% es.tEx (V/m) @ t=0.2
2.0013666728369355
% es.tEy (V/m) @ t=0.2
0
% es.tEz (V/m) @ t=0.2
0.8090811033671605
% V (V) @ t=0.2
0.010802734037341714
% es.normE (V/m) @ t=0.22
2.1980805506647143
% es.EX (V/m) @ t=0.22
2.0313129894422097
% es.EY (V/m) @ t=0.22
0.12790374799258986
% es.EZ (V/m) @ t=0.22
0.8211872927548367
% es.tEX (V/m) @ t=0.22
2.031312989442199
% es.tEY (V/m) @ t=0.22
0
% es.tEZ (V/m) @ t=0.22
0.8211872927548338
% es.Ex (V/m) @ t=0.22
2.0313129894422097
% es.Ey (V/m) @ t=0.22
0.12790374799258986
% es.Ez (V/m) @ t=0.22
0.8211872927548367
% es.tEx (V/m) @ t=0.22
2.031312989442199
% es.tEy (V/m) @ t=0.22
0
% es.tEz (V/m) @ t=0.22
0.8211872927548338
% V (V) @ t=0.22
0.010964377788552093
% es.normE (V/m) @ t=0.24
2.2304853984557758
% es.EX (V/m) @ t=0.24
2.061259306047474
% es.EY (V/m) @ t=0.24
0.12978930159972535
% es.EZ (V/m) @ t=0.24
0.8332934821425206
% es.tEX (V/m) @ t=0.24
2.061259306047477
% es.tEY (V/m) @ t=0.24
0
% es.tEZ (V/m) @ t=0.24
0.8332934821425244
% es.Ex (V/m) @ t=0.24
2.061259306047474
% es.Ey (V/m) @ t=0.24
0.12978930159972535
% es.Ez (V/m) @ t=0.24
0.8332934821425206
% es.tEx (V/m) @ t=0.24
2.061259306047477
% es.tEy (V/m) @ t=0.24
0
% es.tEz (V/m) @ t=0.24
0.8332934821425244
% V (V) @ t=0.24
0.011126021539762474
% es.normE (V/m) @ t=0.26
2.2628902462468545
% es.EX (V/m) @ t=0.26
2.0912056226527485
% es.EY (V/m) @ t=0.26
0.13167485520686428
% es.EZ (V/m) @ t=0.26
0.8453996715302206
% es.tEX (V/m) @ t=0.26
2.0912056226527405
% es.tEY (V/m) @ t=0.26
0
% es.tEZ (V/m) @ t=0.26
0.845399671530219
% es.Ex (V/m) @ t=0.26
2.0912056226527485
% es.Ey (V/m) @ t=0.26
0.13167485520686428
% es.Ez (V/m) @ t=0.26
0.8453996715302206
% es.tEx (V/m) @ t=0.26
2.0912056226527405
% es.tEy (V/m) @ t=0.26
0
% es.tEz (V/m) @ t=0.26
0.845399671530219
% V (V) @ t=0.26
0.011287665290972854
% es.normE (V/m) @ t=0.28
2.2963844030907774
% es.EX (V/m) @ t=0.28
2.122158595975077
% es.EY (V/m) @ t=0.28
0.13362381975101734
% es.EZ (V/m) @ t=0.28
0.8579128362318322
% es.tEX (V/m) @ t=0.28
2.122158595975076
% es.tEY (V/m) @ t=0.28
0
% es.tEZ (V/m) @ t=0.28
0.8579128362318413
% es.Ex (V/m) @ t=0.28
2.122158595975077
% es.Ey (V/m) @ t=0.28
0.13362381975101734
% es.Ez (V/m) @ t=0.28
0.8579128362318322
% es.tEx (V/m) @ t=0.28
2.122158595975076
% es.tEy (V/m) @ t=0.28
0
% es.tEz (V/m) @ t=0.28
0.8579128362318413
% V (V) @ t=0.28
0.011454740969634175
% es.normE (V/m) @ t=0.3
2.3316784694130286
% es.EX (V/m) @ t=0.3
2.1547749089728674
% es.EY (V/m) @ t=0.3
0.13567756075530713
% es.EZ (V/m) @ t=0.3
0.871098462732123
% es.tEX (V/m) @ t=0.3
2.15477490897287
% es.tEY (V/m) @ t=0.3
0
% es.tEZ (V/m) @ t=0.3
0.8710984627321205
% es.Ex (V/m) @ t=0.3
2.1547749089728674
% es.Ey (V/m) @ t=0.3
0.13567756075530713
% es.Ez (V/m) @ t=0.3
0.871098462732123
% es.tEx (V/m) @ t=0.3
2.15477490897287
% es.tEy (V/m) @ t=0.3
0
% es.tEz (V/m) @ t=0.3
0.8710984627321205
% V (V) @ t=0.3
0.011630792042081884
% es.normE (V/m) @ t=0.32
2.3669725357352718
% es.EX (V/m) @ t=0.32
2.1873912219706533
% es.EY (V/m) @ t=0.32
0.1377313017595977
% es.EZ (V/m) @ t=0.32
0.884284089232402
% es.tEX (V/m) @ t=0.32
2.187391221970664
% es.tEY (V/m) @ t=0.32
0
% es.tEZ (V/m) @ t=0.32
0.8842840892324038
% es.Ex (V/m) @ t=0.32
2.1873912219706533
% es.Ey (V/m) @ t=0.32
0.1377313017595977
% es.Ez (V/m) @ t=0.32
0.884284089232402
% es.tEx (V/m) @ t=0.32
2.187391221970664
% es.tEy (V/m) @ t=0.32
0
% es.tEz (V/m) @ t=0.32
0.8842840892324038
% V (V) @ t=0.32
0.011806843114529597
% es.normE (V/m) @ t=0.34
2.4022666020575256
% es.EX (V/m) @ t=0.34
2.22000753496844
% es.EY (V/m) @ t=0.34
0.13978504276389536
% es.EZ (V/m) @ t=0.34
0.8974697157327094
% es.tEX (V/m) @ t=0.34
2.2200075349684365
% es.tEY (V/m) @ t=0.34
0
% es.tEZ (V/m) @ t=0.34
0.8974697157327096
% es.Ex (V/m) @ t=0.34
2.22000753496844
% es.Ey (V/m) @ t=0.34
0.13978504276389536
% es.Ez (V/m) @ t=0.34
0.8974697157327094
% es.tEx (V/m) @ t=0.34
2.2200075349684365
% es.tEy (V/m) @ t=0.34
0
% es.tEz (V/m) @ t=0.34
0.8974697157327096
% V (V) @ t=0.34
0.011982894186977308
% es.normE (V/m) @ t=0.36
2.43756066837976
% es.EX (V/m) @ t=0.36
2.2526238479662197
% es.EY (V/m) @ t=0.36
0.14183878376818182
% es.EZ (V/m) @ t=0.36
0.910655342232976
% es.tEX (V/m) @ t=0.36
2.252623847966225
% es.tEY (V/m) @ t=0.36
0
% es.tEZ (V/m) @ t=0.36
0.9106553422329751
% es.Ex (V/m) @ t=0.36
2.2526238479662197
% es.Ey (V/m) @ t=0.36
0.14183878376818182
% es.Ez (V/m) @ t=0.36
0.910655342232976
% es.tEx (V/m) @ t=0.36
2.252623847966225
% es.tEy (V/m) @ t=0.36
0
% es.tEz (V/m) @ t=0.36
0.9106553422329751
% V (V) @ t=0.36
0.012158945259425019
% es.normE (V/m) @ t=0.38
2.4728547347020156
% es.EX (V/m) @ t=0.38
2.2852401609640136
% es.EY (V/m) @ t=0.38
0.1438925247724857
% es.EZ (V/m) @ t=0.38
0.9238409687332649
% es.tEX (V/m) @ t=0.38
2.2852401609640083
% es.tEY (V/m) @ t=0.38
0
% es.tEZ (V/m) @ t=0.38
0.9238409687332645
% es.Ex (V/m) @ t=0.38
2.2852401609640136
% es.Ey (V/m) @ t=0.38
0.1438925247724857
% es.Ez (V/m) @ t=0.38
0.9238409687332649
% es.tEx (V/m) @ t=0.38
2.2852401609640083
% es.tEy (V/m) @ t=0.38
0
% es.tEz (V/m) @ t=0.38
0.9238409687332645
% V (V) @ t=0.38
0.01233499633187273
% es.normE (V/m) @ t=0.4
2.5081488010242685
% es.EX (V/m) @ t=0.4
2.3178564739617977
% es.EY (V/m) @ t=0.4
0.14594626577678071
% es.EZ (V/m) @ t=0.4
0.9370265952335686
% es.tEX (V/m) @ t=0.4
2.3178564739617986
% es.tEY (V/m) @ t=0.4
0
% es.tEZ (V/m) @ t=0.4
0.9370265952335624
% es.Ex (V/m) @ t=0.4
2.3178564739617977
% es.Ey (V/m) @ t=0.4
0.14594626577678071
% es.Ez (V/m) @ t=0.4
0.9370265952335686
% es.tEx (V/m) @ t=0.4
2.3178564739617986
% es.tEy (V/m) @ t=0.4
0
% es.tEz (V/m) @ t=0.4
0.9370265952335624
% V (V) @ t=0.4
0.01251104740432044
% es.normE (V/m) @ t=0.42
2.5452155865573465
% es.EX (V/m) @ t=0.42
2.352111011715131
% es.EY (V/m) @ t=0.42
0.1481031552869002
% es.EZ (V/m) @ t=0.42
0.9508744942978655
% es.tEX (V/m) @ t=0.42
2.3521110117151256
% es.tEY (V/m) @ t=0.42
0
% es.tEZ (V/m) @ t=0.42
0.9508744942978646
% es.Ex (V/m) @ t=0.42
2.352111011715131
% es.Ey (V/m) @ t=0.42
0.1481031552869002
% es.Ez (V/m) @ t=0.42
0.9508744942978655
% es.tEx (V/m) @ t=0.42
2.3521110117151256
% es.tEy (V/m) @ t=0.42
0
% es.tEz (V/m) @ t=0.42
0.9508744942978646
% V (V) @ t=0.42
0.012695941353771212
% es.normE (V/m) @ t=0.44
2.583616833010862
% es.EX (V/m) @ t=0.44
2.3875987661571516
% es.EY (V/m) @ t=0.44
0.15033769254248242
% es.EZ (V/m) @ t=0.44
0.965220936419624
% es.tEX (V/m) @ t=0.44
2.387598766157156
% es.tEY (V/m) @ t=0.44
0
% es.tEZ (V/m) @ t=0.44
0.9652209364196267
% es.Ex (V/m) @ t=0.44
2.3875987661571516
% es.Ey (V/m) @ t=0.44
0.15033769254248242
% es.Ez (V/m) @ t=0.44
0.965220936419624
% es.tEx (V/m) @ t=0.44
2.387598766157156
% es.tEy (V/m) @ t=0.44
0
% es.tEz (V/m) @ t=0.44
0.9652209364196267
% V (V) @ t=0.44
0.012887492011014511
% es.normE (V/m) @ t=0.46
2.6220180794643877
% es.EX (V/m) @ t=0.46
2.423086520599181
% es.EY (V/m) @ t=0.46
0.15257222979806473
% es.EZ (V/m) @ t=0.46
0.9795673785413892
% es.tEX (V/m) @ t=0.46
2.423086520599176
% es.tEY (V/m) @ t=0.46
0
% es.tEZ (V/m) @ t=0.46
0.9795673785413808
% es.Ex (V/m) @ t=0.46
2.423086520599181
% es.Ey (V/m) @ t=0.46
0.15257222979806473
% es.Ez (V/m) @ t=0.46
0.9795673785413892
% es.tEx (V/m) @ t=0.46
2.423086520599176
% es.tEy (V/m) @ t=0.46
0
% es.tEz (V/m) @ t=0.46
0.9795673785413808
% V (V) @ t=0.46
0.01307904266825781
% es.normE (V/m) @ t=0.48
2.6604193259178945
% es.EX (V/m) @ t=0.48
2.458574275041201
% es.EY (V/m) @ t=0.48
0.15480676705363883
% es.EZ (V/m) @ t=0.48
0.9939138206631286
% es.tEX (V/m) @ t=0.48
2.4585742750411974
% es.tEY (V/m) @ t=0.48
0
% es.tEZ (V/m) @ t=0.48
0.9939138206631268
% es.Ex (V/m) @ t=0.48
2.458574275041201
% es.Ey (V/m) @ t=0.48
0.15480676705363883
% es.Ez (V/m) @ t=0.48
0.9939138206631286
% es.tEx (V/m) @ t=0.48
2.4585742750411974
% es.tEy (V/m) @ t=0.48
0
% es.tEz (V/m) @ t=0.48
0.9939138206631268
% V (V) @ t=0.48
0.01327059332550111
% es.normE (V/m) @ t=0.5
2.698820572371406
% es.EX (V/m) @ t=0.5
2.494062029483217
% es.EY (V/m) @ t=0.5
0.15704130430921304
% es.EZ (V/m) @ t=0.5
1.0082602627848862
% es.tEX (V/m) @ t=0.5
2.494062029483219
% es.tEY (V/m) @ t=0.5
0
% es.tEZ (V/m) @ t=0.5
1.008260262784888
% es.Ex (V/m) @ t=0.5
2.494062029483217
% es.Ey (V/m) @ t=0.5
0.15704130430921304
% es.Ez (V/m) @ t=0.5
1.0082602627848862
% es.tEx (V/m) @ t=0.5
2.494062029483219
% es.tEy (V/m) @ t=0.5
0
% es.tEz (V/m) @ t=0.5
1.008260262784888
% V (V) @ t=0.5
0.01346214398274441
% es.normE (V/m) @ t=0.52
2.737221818824933
% es.EX (V/m) @ t=0.52
2.5295497839252494
% es.EY (V/m) @ t=0.52
0.15927584156479446
% es.EZ (V/m) @ t=0.52
1.0226067049066483
% es.tEX (V/m) @ t=0.52
2.5295497839252388
% es.tEY (V/m) @ t=0.52
0
% es.tEZ (V/m) @ t=0.52
1.022606704906642
% es.Ex (V/m) @ t=0.52
2.5295497839252494
% es.Ey (V/m) @ t=0.52
0.15927584156479446
% es.Ez (V/m) @ t=0.52
1.0226067049066483
% es.tEx (V/m) @ t=0.52
2.5295497839252388
% es.tEy (V/m) @ t=0.52
0
% es.tEz (V/m) @ t=0.52
1.022606704906642
% V (V) @ t=0.52
0.013653694639987711
% es.normE (V/m) @ t=0.54
2.775623065278442
% es.EX (V/m) @ t=0.54
2.5650375383672674
% es.EY (V/m) @ t=0.54
0.16151037882037567
% es.EZ (V/m) @ t=0.54
1.0369531470283961
% es.tEX (V/m) @ t=0.54
2.5650375383672674
% es.tEY (V/m) @ t=0.54
0
% es.tEZ (V/m) @ t=0.54
1.0369531470283908
% es.Ex (V/m) @ t=0.54
2.5650375383672674
% es.Ey (V/m) @ t=0.54
0.16151037882037567
% es.Ez (V/m) @ t=0.54
1.0369531470283961
% es.tEx (V/m) @ t=0.54
2.5650375383672674
% es.tEy (V/m) @ t=0.54
0
% es.tEz (V/m) @ t=0.54
1.0369531470283908
% V (V) @ t=0.54
0.013845245297231006
% es.normE (V/m) @ t=0.56
2.81514010601525
% es.EX (V/m) @ t=0.56
2.6015564335116235
% es.EY (V/m) @ t=0.56
0.16380983785552883
% es.EZ (V/m) @ t=0.56
1.0517164386750157
% es.tEX (V/m) @ t=0.56
2.60155643351162
% es.tEY (V/m) @ t=0.56
0
% es.tEZ (V/m) @ t=0.56
1.0517164386750126
% es.Ex (V/m) @ t=0.56
2.6015564335116235
% es.Ey (V/m) @ t=0.56
0.16380983785552883
% es.Ez (V/m) @ t=0.56
1.0517164386750157
% es.tEx (V/m) @ t=0.56
2.60155643351162
% es.tEy (V/m) @ t=0.56
0
% es.tEz (V/m) @ t=0.56
1.0517164386750126
% V (V) @ t=0.56
0.014042362052315047
% es.normE (V/m) @ t=0.58
2.8553420709294928
% es.EX (V/m) @ t=0.58
2.638708288698833
% es.EY (V/m) @ t=0.58
0.16614914876762477
% es.EZ (V/m) @ t=0.58
1.0667356111073723
% es.tEX (V/m) @ t=0.58
2.638708288698833
% es.tEY (V/m) @ t=0.58
0
% es.tEZ (V/m) @ t=0.58
1.066735611107366
% es.Ex (V/m) @ t=0.58
2.638708288698833
% es.Ey (V/m) @ t=0.58
0.16614914876762477
% es.Ez (V/m) @ t=0.58
1.0667356111073723
% es.tEx (V/m) @ t=0.58
2.638708288698833
% es.tEy (V/m) @ t=0.58
0
% es.tEz (V/m) @ t=0.58
1.066735611107366
% V (V) @ t=0.58
0.014242895525912621
% es.normE (V/m) @ t=0.6
2.895929854000629
% es.EX (V/m) @ t=0.6
2.6762166906180305
% es.EY (V/m) @ t=0.6
0.1685109082633972
% es.EZ (V/m) @ t=0.6
1.0818989213237078
% es.tEX (V/m) @ t=0.6
2.6762166906180234
% es.tEY (V/m) @ t=0.6
0
% es.tEZ (V/m) @ t=0.6
1.0818989213237078
% es.Ex (V/m) @ t=0.6
2.6762166906180305
% es.Ey (V/m) @ t=0.6
0.1685109082633972
% es.Ez (V/m) @ t=0.6
1.0818989213237078
% es.tEx (V/m) @ t=0.6
2.6762166906180234
% es.tEy (V/m) @ t=0.6
0
% es.tEz (V/m) @ t=0.6
1.0818989213237078
% V (V) @ t=0.6
0.014445353638883414
% es.normE (V/m) @ t=0.62
2.936903455228661
% es.EX (V/m) @ t=0.62
2.71408163926921
% es.EY (V/m) @ t=0.62
0.17089511634285703
% es.EZ (V/m) @ t=0.62
1.0972063693240433
% es.tEX (V/m) @ t=0.62
2.7140816392691995
% es.tEY (V/m) @ t=0.62
0
% es.tEZ (V/m) @ t=0.62
1.097206369324038
% es.Ex (V/m) @ t=0.62
2.71408163926921
% es.Ey (V/m) @ t=0.62
0.17089511634285703
% es.Ez (V/m) @ t=0.62
1.0972063693240433
% es.tEx (V/m) @ t=0.62
2.7140816392691995
% es.tEy (V/m) @ t=0.62
0
% es.tEz (V/m) @ t=0.62
1.097206369324038
% V (V) @ t=0.62
0.014649736391227446
% es.normE (V/m) @ t=0.64
2.97826287461361
% es.EX (V/m) @ t=0.64
2.7523031346524007
% es.EY (V/m) @ t=0.64
0.17330177300598093
% es.EZ (V/m) @ t=0.64
1.1126579551083626
% es.tEX (V/m) @ t=0.64
2.752303134652397
% es.tEY (V/m) @ t=0.64
0
% es.tEZ (V/m) @ t=0.64
1.1126579551083662
% es.Ex (V/m) @ t=0.64
2.7523031346524007
% es.Ey (V/m) @ t=0.64
0.17330177300598093
% es.Ez (V/m) @ t=0.64
1.1126579551083626
% es.tEx (V/m) @ t=0.64
2.752303134652397
% es.tEy (V/m) @ t=0.64
0
% es.tEz (V/m) @ t=0.64
1.1126579551083662
% V (V) @ t=0.64
0.014856043782944693
% es.normE (V/m) @ t=0.66
3.0200081121554327
% es.EX (V/m) @ t=0.66
2.790881176767556
% es.EY (V/m) @ t=0.66
0.17573087825280664
% es.EZ (V/m) @ t=0.66
1.1282536786766642
% es.tEX (V/m) @ t=0.66
2.790881176767561
% es.tEY (V/m) @ t=0.66
0
% es.tEZ (V/m) @ t=0.66
1.1282536786766677
% es.Ex (V/m) @ t=0.66
2.790881176767556
% es.Ey (V/m) @ t=0.66
0.17573087825280664
% es.Ez (V/m) @ t=0.66
1.1282536786766642
% es.tEx (V/m) @ t=0.66
2.790881176767561
% es.tEy (V/m) @ t=0.66
0
% es.tEz (V/m) @ t=0.66
1.1282536786766677
% V (V) @ t=0.66
0.015064275814035171
% es.normE (V/m) @ t=0.68
3.062139167854186
% es.EX (V/m) @ t=0.68
2.829815765614729
% es.EY (V/m) @ t=0.68
0.17818243208328588
% es.EZ (V/m) @ t=0.68
1.143993540028971
% es.tEX (V/m) @ t=0.68
2.829815765614729
% es.tEY (V/m) @ t=0.68
0
% es.tEZ (V/m) @ t=0.68
1.1439935400289745
% es.Ex (V/m) @ t=0.68
2.829815765614729
% es.Ey (V/m) @ t=0.68
0.17818243208328588
% es.Ez (V/m) @ t=0.68
1.143993540028971
% es.tEx (V/m) @ t=0.68
2.829815765614729
% es.tEy (V/m) @ t=0.68
0
% es.tEz (V/m) @ t=0.68
1.1439935400289745
% V (V) @ t=0.68
0.015274432484498876
% es.normE (V/m) @ t=0.7
3.104656041709845
% es.EX (V/m) @ t=0.7
2.8691069011938914
% es.EY (V/m) @ t=0.7
0.18065643449748625
% es.EZ (V/m) @ t=0.7
1.1598775391652811
% es.tEX (V/m) @ t=0.7
2.869106901193888
% es.tEY (V/m) @ t=0.7
0
% es.tEZ (V/m) @ t=0.7
1.159877539165283
% es.Ex (V/m) @ t=0.7
2.8691069011938914
% es.Ey (V/m) @ t=0.7
0.18065643449748625
% es.Ez (V/m) @ t=0.7
1.1598775391652811
% es.tEx (V/m) @ t=0.7
2.869106901193888
% es.tEy (V/m) @ t=0.7
0
% es.tEz (V/m) @ t=0.7
1.159877539165283
% V (V) @ t=0.7
0.015486513794335806
% es.normE (V/m) @ t=0.72
3.1475587337224042
% es.EX (V/m) @ t=0.72
2.908754583505047
% es.EY (V/m) @ t=0.72
0.18315288549533815
% es.EZ (V/m) @ t=0.72
1.175905676085585
% es.tEX (V/m) @ t=0.72
2.9087545835050523
% es.tEY (V/m) @ t=0.72
0
% es.tEZ (V/m) @ t=0.72
1.1759056760855833
% es.Ex (V/m) @ t=0.72
2.908754583505047
% es.Ey (V/m) @ t=0.72
0.18315288549533815
% es.Ez (V/m) @ t=0.72
1.175905676085585
% es.tEx (V/m) @ t=0.72
2.9087545835050523
% es.tEy (V/m) @ t=0.72
0
% es.tEz (V/m) @ t=0.72
1.1759056760855833
% V (V) @ t=0.72
0.015700519743545964
% es.normE (V/m) @ t=0.74
3.1908472438918367
% es.EX (V/m) @ t=0.74
2.948758812548169
% es.EY (V/m) @ t=0.74
0.18567178507687232
% es.EZ (V/m) @ t=0.74
1.1920779507898587
% es.tEX (V/m) @ t=0.74
2.948758812548169
% es.tEY (V/m) @ t=0.74
0
% es.tEZ (V/m) @ t=0.74
1.1920779507898587
% es.Ex (V/m) @ t=0.74
2.948758812548169
% es.Ey (V/m) @ t=0.74
0.18567178507687232
% es.Ez (V/m) @ t=0.74
1.1920779507898587
% es.tEx (V/m) @ t=0.74
2.948758812548169
% es.tEy (V/m) @ t=0.74
0
% es.tEz (V/m) @ t=0.74
1.1920779507898587
% V (V) @ t=0.74
0.015916450332129344
% es.normE (V/m) @ t=0.76
3.234521572218214
% es.EX (V/m) @ t=0.76
2.989119588323316
% es.EY (V/m) @ t=0.76
0.18821313324207756
% es.EZ (V/m) @ t=0.76
1.2083943632781606
% es.tEX (V/m) @ t=0.76
2.9891195883233213
% es.tEY (V/m) @ t=0.76
0
% es.tEZ (V/m) @ t=0.76
1.2083943632781642
% es.Ex (V/m) @ t=0.76
2.989119588323316
% es.Ey (V/m) @ t=0.76
0.18821313324207756
% es.Ez (V/m) @ t=0.76
1.2083943632781606
% es.tEx (V/m) @ t=0.76
2.9891195883233213
% es.tEy (V/m) @ t=0.76
0
% es.tEz (V/m) @ t=0.76
1.2083943632781642
% V (V) @ t=0.76
0.016134305560085955
% es.normE (V/m) @ t=0.78
3.278581718701475
% es.EX (V/m) @ t=0.78
3.0298369108304524
% es.EY (V/m) @ t=0.78
0.19077692999098084
% es.EZ (V/m) @ t=0.78
1.2248549135504074
% es.tEX (V/m) @ t=0.78
3.0298369108304524
% es.tEY (V/m) @ t=0.78
0
% es.tEZ (V/m) @ t=0.78
1.2248549135504057
% es.Ex (V/m) @ t=0.78
3.0298369108304524
% es.Ey (V/m) @ t=0.78
0.19077692999098084
% es.Ez (V/m) @ t=0.78
1.2248549135504074
% es.tEx (V/m) @ t=0.78
3.0298369108304524
% es.tEy (V/m) @ t=0.78
0
% es.tEz (V/m) @ t=0.78
1.2248549135504057
% V (V) @ t=0.78
0.016354085427415788
% es.normE (V/m) @ t=0.8
3.323027683341622
% es.EX (V/m) @ t=0.8
3.0709107800695534
% es.EY (V/m) @ t=0.8
0.19336317532355562
% es.EZ (V/m) @ t=0.8
1.2414596016066746
% es.tEX (V/m) @ t=0.8
3.07091078006955
% es.tEY (V/m) @ t=0.8
0
% es.tEZ (V/m) @ t=0.8
1.2414596016066817
% es.Ex (V/m) @ t=0.8
3.0709107800695534
% es.Ey (V/m) @ t=0.8
0.19336317532355562
% es.Ez (V/m) @ t=0.8
1.2414596016066746
% es.tEx (V/m) @ t=0.8
3.07091078006955
% es.tEy (V/m) @ t=0.8
0
% es.tEz (V/m) @ t=0.8
1.2414596016066817
% V (V) @ t=0.8
0.016575789934118856
% es.normE (V/m) @ t=0.82
3.367973013299746
% es.EX (V/m) @ t=0.82
3.112446127674004
% es.EY (V/m) @ t=0.82
0.19597847926036183
% es.EZ (V/m) @ t=0.82
1.2582508497251306
% es.tEX (V/m) @ t=0.82
3.112446127674012
% es.tEY (V/m) @ t=0.82
0
% es.tEZ (V/m) @ t=0.82
1.258250849725127
% es.Ex (V/m) @ t=0.82
3.112446127674004
% es.Ey (V/m) @ t=0.82
0.19597847926036183
% es.Ez (V/m) @ t=0.82
1.2582508497251306
% es.tEx (V/m) @ t=0.82
3.112446127674012
% es.tEy (V/m) @ t=0.82
0
% es.tEz (V/m) @ t=0.82
1.258250849725127
% V (V) @ t=0.82
0.01679998527957662
% es.normE (V/m) @ t=0.84
3.414005371621812
% es.EX (V/m) @ t=0.84
3.1549860270477836
% es.EY (V/m) @ t=0.84
0.19865705194613859
% es.EZ (V/m) @ t=0.84
1.2754482142996797
% es.tEX (V/m) @ t=0.84
3.1549860270477907
% es.tEY (V/m) @ t=0.84
0
% es.tEZ (V/m) @ t=0.84
1.2754482142996846
% es.Ex (V/m) @ t=0.84
3.1549860270477836
% es.Ey (V/m) @ t=0.84
0.19865705194613859
% es.Ez (V/m) @ t=0.84
1.2754482142996797
% es.tEx (V/m) @ t=0.84
3.1549860270477907
% es.tEy (V/m) @ t=0.84
0
% es.tEz (V/m) @ t=0.84
1.2754482142996846
% V (V) @ t=0.84
0.01702960182726101
% es.normE (V/m) @ t=0.86
3.460532801234458
% es.EX (V/m) @ t=0.86
3.1979834365740345
% es.EY (V/m) @ t=0.86
0.2013644332641371
% es.EZ (V/m) @ t=0.86
1.2928305346477114
% es.tEX (V/m) @ t=0.86
3.1979834365740416
% es.tEY (V/m) @ t=0.86
0
% es.tEZ (V/m) @ t=0.86
1.2928305346477131
% es.Ex (V/m) @ t=0.86
3.1979834365740345
% es.Ey (V/m) @ t=0.86
0.2013644332641371
% es.Ez (V/m) @ t=0.86
1.2928305346477114
% es.tEx (V/m) @ t=0.86
3.1979834365740416
% es.tEy (V/m) @ t=0.86
0
% es.tEz (V/m) @ t=0.86
1.2928305346477131
% V (V) @ t=0.86
0.017261687801666474
% es.normE (V/m) @ t=0.88
3.5075553021377335
% es.EX (V/m) @ t=0.88
3.241438356252786
% es.EY (V/m) @ t=0.88
0.20410062321439892
% es.EZ (V/m) @ t=0.88
1.3103978107692846
% es.tEX (V/m) @ t=0.88
3.241438356252793
% es.tEY (V/m) @ t=0.88
0
% es.tEZ (V/m) @ t=0.88
1.3103978107692758
% es.Ex (V/m) @ t=0.88
3.241438356252786
% es.Ey (V/m) @ t=0.88
0.20410062321439892
% es.Ez (V/m) @ t=0.88
1.3103978107692846
% es.tEx (V/m) @ t=0.88
3.241438356252793
% es.tEy (V/m) @ t=0.88
0
% es.tEz (V/m) @ t=0.88
1.3103978107692758
% V (V) @ t=0.88
0.017496243202793027
% es.normE (V/m) @ t=0.9
3.555072874331639
% es.EX (V/m) @ t=0.9
3.2853507860840487
% es.EY (V/m) @ t=0.9
0.20686562179691226
% es.EZ (V/m) @ t=0.9
1.3281500426643649
% es.tEX (V/m) @ t=0.9
3.2853507860840487
% es.tEY (V/m) @ t=0.9
0
% es.tEZ (V/m) @ t=0.9
1.3281500426643644
% es.Ex (V/m) @ t=0.9
3.2853507860840487
% es.Ey (V/m) @ t=0.9
0.20686562179691226
% es.Ez (V/m) @ t=0.9
1.3281500426643649
% es.tEx (V/m) @ t=0.9
3.2853507860840487
% es.tEy (V/m) @ t=0.9
0
% es.tEz (V/m) @ t=0.9
1.3281500426643644
% V (V) @ t=0.9
0.01773326803064065
% es.normE (V/m) @ t=0.92
3.603085517816166
% es.EX (V/m) @ t=0.92
3.3297207260677855
% es.EY (V/m) @ t=0.92
0.20965942901168533
% es.EZ (V/m) @ t=0.92
1.346087230333033
% es.tEX (V/m) @ t=0.92
3.3297207260677997
% es.tEY (V/m) @ t=0.92
0
% es.tEZ (V/m) @ t=0.92
1.3460872303330254
% es.Ex (V/m) @ t=0.92
3.3297207260677855
% es.Ey (V/m) @ t=0.92
0.20965942901168533
% es.Ez (V/m) @ t=0.92
1.346087230333033
% es.tEx (V/m) @ t=0.92
3.3297207260677997
% es.tEy (V/m) @ t=0.92
0
% es.tEz (V/m) @ t=0.92
1.3460872303330254
% V (V) @ t=0.92
0.017972762285209356
% es.normE (V/m) @ t=0.94
3.6515932325912743
% es.EX (V/m) @ t=0.94
3.374548176203988
% es.EY (V/m) @ t=0.94
0.21248204485872968
% es.EZ (V/m) @ t=0.94
1.3642093737751875
% es.tEX (V/m) @ t=0.94
3.3745481762040015
% es.tEY (V/m) @ t=0.94
0
% es.tEZ (V/m) @ t=0.94
1.3642093737751928
% es.Ex (V/m) @ t=0.94
3.374548176203988
% es.Ey (V/m) @ t=0.94
0.21248204485872968
% es.Ez (V/m) @ t=0.94
1.3642093737751875
% es.tEx (V/m) @ t=0.94
3.3745481762040015
% es.tEy (V/m) @ t=0.94
0
% es.tEz (V/m) @ t=0.94
1.3642093737751928
% V (V) @ t=0.94
0.01821472596649914
% es.normE (V/m) @ t=0.96
3.700596018657049
% es.EX (V/m) @ t=0.96
3.41983313649275
% es.EY (V/m) @ t=0.96
0.21533346933799247
% es.EZ (V/m) @ t=0.96
1.3825164729908468
% es.tEX (V/m) @ t=0.96
3.4198331364927554
% es.tEY (V/m) @ t=0.96
0
% es.tEZ (V/m) @ t=0.96
1.38251647299085
% es.Ex (V/m) @ t=0.96
3.41983313649275
% es.Ey (V/m) @ t=0.96
0.21533346933799247
% es.Ez (V/m) @ t=0.96
1.3825164729908468
% es.tEx (V/m) @ t=0.96
3.4198331364927554
% es.tEy (V/m) @ t=0.96
0
% es.tEz (V/m) @ t=0.96
1.38251647299085
% V (V) @ t=0.96
0.01845915907451
% es.normE (V/m) @ t=0.98
3.7500938760134335
% es.EX (V/m) @ t=0.98
3.4655756069339834
% es.EY (V/m) @ t=0.98
0.2182137024495323
% es.EZ (V/m) @ t=0.98
1.4010085279800566
% es.tEX (V/m) @ t=0.98
3.465575606933971
% es.tEY (V/m) @ t=0.98
0
% es.tEZ (V/m) @ t=0.98
1.4010085279800633
% es.Ex (V/m) @ t=0.98
3.4655756069339834
% es.Ey (V/m) @ t=0.98
0.2182137024495323
% es.Ez (V/m) @ t=0.98
1.4010085279800566
% es.tEx (V/m) @ t=0.98
3.465575606933971
% es.tEy (V/m) @ t=0.98
0
% es.tEz (V/m) @ t=0.98
1.4010085279800633
% V (V) @ t=0.98
0.018706061609241945
% es.normE (V/m) @ t=1
3.800086804660376
% es.EX (V/m) @ t=1
3.5117755875276497
% es.EY (V/m) @ t=1
0.22112274419328148
% es.EZ (V/m) @ t=1
1.4196855387427911
% es.tEX (V/m) @ t=1
3.5117755875276373
% es.tEY (V/m) @ t=1
0
% es.tEZ (V/m) @ t=1
1.4196855387427876
% es.Ex (V/m) @ t=1
3.5117755875276497
% es.Ey (V/m) @ t=1
0.22112274419328148
% es.Ez (V/m) @ t=1
1.4196855387427911
% es.tEx (V/m) @ t=1
3.5117755875276373
% es.tEy (V/m) @ t=1
0
% es.tEz (V/m) @ t=1
1.4196855387427876
% V (V) @ t=1
0.01895543357069497
% es.normE (V/m) @ t=1.02
3.8505748045979864
% es.EX (V/m) @ t=1.02
3.5584330782738665
% es.EY (V/m) @ t=1.02
0.2240605945693046
% es.EZ (V/m) @ t=1.02
1.4385475052790393
% es.tEX (V/m) @ t=1.02
3.5584330782738682
% es.tEY (V/m) @ t=1.02
0
% es.tEZ (V/m) @ t=1.02
1.4385475052790335
% es.Ex (V/m) @ t=1.02
3.5584330782738665
% es.Ey (V/m) @ t=1.02
0.2240605945693046
% es.Ez (V/m) @ t=1.02
1.4385475052790393
% es.tEx (V/m) @ t=1.02
3.5584330782738682
% es.tEy (V/m) @ t=1.02
0
% es.tEz (V/m) @ t=1.02
1.4385475052790335
% V (V) @ t=1.02
0.019207274958869067
% es.normE (V/m) @ t=1.04
3.9015578758261955
% es.EX (V/m) @ t=1.04
3.605548079172541
% es.EY (V/m) @ t=1.04
0.2270272535775706
% es.EZ (V/m) @ t=1.04
1.4575944275888486
% es.tEX (V/m) @ t=1.04
3.6055480791725323
% es.tEY (V/m) @ t=1.04
0
% es.tEZ (V/m) @ t=1.04
1.457594427588849
% es.Ex (V/m) @ t=1.04
3.605548079172541
% es.Ey (V/m) @ t=1.04
0.2270272535775706
% es.Ez (V/m) @ t=1.04
1.4575944275888486
% es.tEx (V/m) @ t=1.04
3.6055480791725323
% es.tEy (V/m) @ t=1.04
0
% es.tEz (V/m) @ t=1.04