% Model:              1 neuron.mph
% Version:            COMSOL 6.0.0.405
% Date:               Mar 16 2023, 19:21
% Dimension:          0
% Nodes:              14017
% Expressions:        14017
% Description:        Electric field norm, Electric field, X component, Electric field, Y component, Electric field, Z component, Tangential electric field, X component, Tangential electric field, Y component, Tangential electric field, Z component, Electric field, x component, Electric field, y component, Electric field, z component, Tangential electric field, x component, Tangential electric field, y component, Tangential electric field, z component, Electric potential
% Length unit:        mm
% x
1
% y
12.2
% z
1.33
% es.normE (V/m) @ t=0
2.220084839760906
% es.EX (V/m) @ t=0
2.0516481092062593
% es.EY (V/m) @ t=0
0.12918429933046616
% es.EZ (V/m) @ t=0
0.8294072494693829
% es.tEX (V/m) @ t=0
2.051648109206262
% es.tEY (V/m) @ t=0
0
% es.tEZ (V/m) @ t=0
0.82940724946938
% es.Ex (V/m) @ t=0
2.0516481092062593
% es.Ey (V/m) @ t=0
0.12918429933046616
% es.Ez (V/m) @ t=0
0.8294072494693829
% es.tEx (V/m) @ t=0
2.051648109206262
% es.tEy (V/m) @ t=0
0
% es.tEz (V/m) @ t=0
0.82940724946938
% V (V) @ t=0
0.011074144380297394
% es.normE (V/m) @ t=0.02
1.9281606397293438
% es.EX (V/m) @ t=0.02
1.7818720526102974
% es.EY (V/m) @ t=0.02
0.11219754944075633
% es.EZ (V/m) @ t=0.02
0.7203465311734558
% es.tEX (V/m) @ t=0.02
1.7818720526103
% es.tEY (V/m) @ t=0.02
0
% es.tEZ (V/m) @ t=0.02
0.7203465311734574
% es.Ex (V/m) @ t=0.02
1.7818720526102974
% es.Ey (V/m) @ t=0.02
0.11219754944075633
% es.Ez (V/m) @ t=0.02
0.7203465311734558
% es.tEx (V/m) @ t=0.02
1.7818720526103
% es.tEy (V/m) @ t=0.02
0
% es.tEz (V/m) @ t=0.02
0.7203465311734574
% V (V) @ t=0.02
0.009617978776966072
% es.normE (V/m) @ t=0.04
1.9567502233769738
% es.EX (V/m) @ t=0.04
1.8082925581434761
% es.EY (V/m) @ t=0.04
0.11386114099540301
% es.EZ (V/m) @ t=0.04
0.7310273887427017
% es.tEX (V/m) @ t=0.04
1.808292558143485
% es.tEY (V/m) @ t=0.04
0
% es.tEZ (V/m) @ t=0.04
0.7310273887427052
% es.Ex (V/m) @ t=0.04
1.8082925581434761
% es.Ey (V/m) @ t=0.04
0.11386114099540301
% es.Ez (V/m) @ t=0.04
0.7310273887427017
% es.tEx (V/m) @ t=0.04
1.808292558143485
% es.tEy (V/m) @ t=0.04
0
% es.tEz (V/m) @ t=0.04
0.7310273887427052
% V (V) @ t=0.04
0.009760587453804776
% es.normE (V/m) @ t=0.06
1.9857722790194807
% es.EX (V/m) @ t=0.06
1.8351127224865236
% es.EY (V/m) @ t=0.06
0.11554988446812942
% es.EZ (V/m) @ t=0.06
0.7418698171374734
% es.tEX (V/m) @ t=0.06
1.8351127224865227
% es.tEY (V/m) @ t=0.06
0
% es.tEZ (V/m) @ t=0.06
0.7418698171374758
% es.Ex (V/m) @ t=0.06
1.8351127224865236
% es.Ey (V/m) @ t=0.06
0.11554988446812942
% es.Ez (V/m) @ t=0.06
0.7418698171374734
% es.tEx (V/m) @ t=0.06
1.8351127224865227
% es.tEy (V/m) @ t=0.06
0
% es.tEz (V/m) @ t=0.06
0.7418698171374758
% V (V) @ t=0.06
0.0099053512058287
% es.normE (V/m) @ t=0.08
2.0155261194634195
% es.EX (V/m) @ t=0.08
1.862609154648596
% es.EY (V/m) @ t=0.08
0.11728123336159213
% es.EZ (V/m) @ t=0.08
0.7529856303807929
% es.tEX (V/m) @ t=0.08
1.8626091546485934
% es.tEY (V/m) @ t=0.08
0
% es.tEZ (V/m) @ t=0.08
0.7529856303807887
% es.Ex (V/m) @ t=0.08
1.862609154648596
% es.Ey (V/m) @ t=0.08
0.11728123336159213
% es.Ez (V/m) @ t=0.08
0.7529856303807929
% es.tEx (V/m) @ t=0.08
1.8626091546485934
% es.tEy (V/m) @ t=0.08
0
% es.tEz (V/m) @ t=0.08
0.7529856303807887
% V (V) @ t=0.08
0.010053769100795204
% es.normE (V/m) @ t=0.1
2.0458095855507925
% es.EX (V/m) @ t=0.1
1.8905950323117047
% es.EY (V/m) @ t=0.1
0.11904341771835436
% es.EZ (V/m) @ t=0.1
0.7642993045608628
% es.tEX (V/m) @ t=0.1
1.8905950323117118
% es.tEY (V/m) @ t=0.1
0
% es.tEZ (V/m) @ t=0.1
0.7642993045608639
% es.Ex (V/m) @ t=0.1
1.8905950323117047
% es.Ey (V/m) @ t=0.1
0.11904341771835436
% es.Ez (V/m) @ t=0.1
0.7642993045608628
% es.tEx (V/m) @ t=0.1
1.8905950323117118
% es.tEy (V/m) @ t=0.1
0
% es.tEz (V/m) @ t=0.1
0.7642993045608639
% V (V) @ t=0.1
0.010204831663707016
% es.normE (V/m) @ t=0.12
2.076093051638159
% es.EX (V/m) @ t=0.12
1.9185809099748052
% es.EY (V/m) @ t=0.12
0.12080560207509272
% es.EZ (V/m) @ t=0.12
0.7756129787409336
% es.tEX (V/m) @ t=0.12
1.9185809099748052
% es.tEY (V/m) @ t=0.12
0
% es.tEZ (V/m) @ t=0.12
0.7756129787409409
% es.Ex (V/m) @ t=0.12
1.9185809099748052
% es.Ey (V/m) @ t=0.12
0.12080560207509272
% es.Ez (V/m) @ t=0.12
0.7756129787409336
% es.tEx (V/m) @ t=0.12
1.9185809099748052
% es.tEy (V/m) @ t=0.12
0
% es.tEz (V/m) @ t=0.12
0.7756129787409409
% V (V) @ t=0.12
0.010355894226618825
% es.normE (V/m) @ t=0.14
2.106840005087077
% es.EX (V/m) @ t=0.14
1.9469951018038065
% es.EY (V/m) @ t=0.14
0.12259469279754387
% es.EZ (V/m) @ t=0.14
0.7870998209593727
% es.tEX (V/m) @ t=0.14
1.9469951018038039
% es.tEY (V/m) @ t=0.14
0
% es.tEZ (V/m) @ t=0.14
0.7870998209593769
% es.Ex (V/m) @ t=0.14
1.9469951018038065
% es.Ey (V/m) @ t=0.14
0.12259469279754387
% es.Ez (V/m) @ t=0.14
0.7870998209593727
% es.tEx (V/m) @ t=0.14
1.9469951018038039
% es.tEy (V/m) @ t=0.14
0
% es.tEz (V/m) @ t=0.14
0.7870998209593769
% V (V) @ t=0.14
0.010509258471670061
% es.normE (V/m) @ t=0.16
2.139845795895871
% es.EX (V/m) @ t=0.16
1.9774967120176186
% es.EY (V/m) @ t=0.16
0.12451491353368704
% es.EZ (V/m) @ t=0.16
0.799430609457737
% es.tEX (V/m) @ t=0.16
1.9774967120176292
% es.tEY (V/m) @ t=0.16
0
% es.tEZ (V/m) @ t=0.16
0.7994306094577377
% es.Ex (V/m) @ t=0.16
1.9774967120176186
% es.Ey (V/m) @ t=0.16
0.12451491353368704
% es.Ez (V/m) @ t=0.16
0.799430609457737
% es.tEx (V/m) @ t=0.16
1.9774967120176292
% es.tEy (V/m) @ t=0.16
0
% es.tEz (V/m) @ t=0.16
0.7994306094577377
% V (V) @ t=0.16
0.01067384012206648
% es.normE (V/m) @ t=0.18
2.1728515867049856
% es.EX (V/m) @ t=0.18
2.0079983222314643
% es.EY (V/m) @ t=0.18
0.1264351342698251
% es.EZ (V/m) @ t=0.18
0.8117613979561249
% es.tEX (V/m) @ t=0.18
2.007998322231458
% es.tEY (V/m) @ t=0.18
0
% es.tEZ (V/m) @ t=0.18
0.8117613979561251
% es.Ex (V/m) @ t=0.18
2.0079983222314643
% es.Ey (V/m) @ t=0.18
0.1264351342698251
% es.Ez (V/m) @ t=0.18
0.8117613979561249
% es.tEx (V/m) @ t=0.18
2.007998322231458
% es.tEy (V/m) @ t=0.18
0
% es.tEz (V/m) @ t=0.18
0.8117613979561251
% V (V) @ t=0.18
0.010838421772462904
% es.normE (V/m) @ t=0.2
2.205857377514334
% es.EX (V/m) @ t=0.2
2.038499932445281
% es.EY (V/m) @ t=0.2
0.12835535500597373
% es.EZ (V/m) @ t=0.2
0.8240921864544946
% es.tEX (V/m) @ t=0.2
2.0384999324452835
% es.tEY (V/m) @ t=0.2
0
% es.tEZ (V/m) @ t=0.2
0.8240921864545006
% es.Ex (V/m) @ t=0.2
2.038499932445281
% es.Ey (V/m) @ t=0.2
0.12835535500597373
% es.Ez (V/m) @ t=0.2
0.8240921864544946
% es.tEx (V/m) @ t=0.2
2.0384999324452835
% es.tEy (V/m) @ t=0.2
0
% es.tEz (V/m) @ t=0.2
0.8240921864545006
% V (V) @ t=0.2
0.011003003422859325
% es.normE (V/m) @ t=0.22
2.238863168323948
% es.EX (V/m) @ t=0.22
2.069001542659106
% es.EY (V/m) @ t=0.22
0.13027557574211335
% es.EZ (V/m) @ t=0.22
0.8364229749528647
% es.tEX (V/m) @ t=0.22
2.0690015426591
% es.tEY (V/m) @ t=0.22
0
% es.tEZ (V/m) @ t=0.22
0.8364229749528631
% es.Ex (V/m) @ t=0.22
2.069001542659106
% es.Ey (V/m) @ t=0.22
0.13027557574211335
% es.Ez (V/m) @ t=0.22
0.8364229749528647
% es.tEx (V/m) @ t=0.22
2.0690015426591
% es.tEy (V/m) @ t=0.22
0
% es.tEz (V/m) @ t=0.22
0.8364229749528631
% V (V) @ t=0.22
0.011167585073255746
% es.normE (V/m) @ t=0.24
2.2718689591338017
% es.EX (V/m) @ t=0.24
2.099503152872929
% es.EY (V/m) @ t=0.24
0.13219579647825674
% es.EZ (V/m) @ t=0.24
0.8487537634512325
% es.tEX (V/m) @ t=0.24
2.0995031528729253
% es.tEY (V/m) @ t=0.24
0
% es.tEZ (V/m) @ t=0.24
0.8487537634512345
% es.Ex (V/m) @ t=0.24
2.099503152872929
% es.Ey (V/m) @ t=0.24
0.13219579647825674
% es.Ez (V/m) @ t=0.24
0.8487537634512325
% es.tEx (V/m) @ t=0.24
2.0995031528729253
% es.tEy (V/m) @ t=0.24
0
% es.tEz (V/m) @ t=0.24
0.8487537634512345
% V (V) @ t=0.24
0.011332166723652167
% es.normE (V/m) @ t=0.26
2.304874749943898
% es.EX (V/m) @ t=0.26
2.130004763086756
% es.EY (V/m) @ t=0.26
0.13411601721440247
% es.EZ (V/m) @ t=0.26
0.8610845519496089
% es.tEX (V/m) @ t=0.26
2.130004763086765
% es.tEY (V/m) @ t=0.26
0
% es.tEZ (V/m) @ t=0.26
0.86108455194961
% es.Ex (V/m) @ t=0.26
2.130004763086756
% es.Ey (V/m) @ t=0.26
0.13411601721440247
% es.Ez (V/m) @ t=0.26
0.8610845519496089
% es.tEx (V/m) @ t=0.26
2.130004763086765
% es.tEy (V/m) @ t=0.26
0
% es.tEz (V/m) @ t=0.26
0.86108455194961
% V (V) @ t=0.26
0.011496748374048588
% es.normE (V/m) @ t=0.28
2.338930145687182
% es.EX (V/m) @ t=0.28
2.161476429397881
% es.EY (V/m) @ t=0.28
0.13609793160333383
% es.EZ (V/m) @ t=0.28
0.8738073424350297
% es.tEX (V/m) @ t=0.28
2.161476429397881
% es.tEY (V/m) @ t=0.28
0
% es.tEZ (V/m) @ t=0.28
0.8738073424350383
% es.Ex (V/m) @ t=0.28
2.161476429397881
% es.Ey (V/m) @ t=0.28
0.13609793160333383
% es.Ez (V/m) @ t=0.28
0.8738073424350297
% es.tEx (V/m) @ t=0.28
2.161476429397881
% es.tEy (V/m) @ t=0.28
0
% es.tEz (V/m) @ t=0.28
0.8738073424350383
% V (V) @ t=0.28
0.01166666568274703
% es.normE (V/m) @ t=0.3
2.3749305435665384
% es.EX (V/m) @ t=0.3
2.194745687468643
% es.EY (V/m) @ t=0.3
0.13819416927951533
% es.EZ (V/m) @ t=0.3
0.8872565440461804
% es.tEX (V/m) @ t=0.3
2.1947456874686466
% es.tEY (V/m) @ t=0.3
0
% es.tEZ (V/m) @ t=0.3
0.8872565440461839
% es.Ex (V/m) @ t=0.3
2.194745687468643
% es.Ey (V/m) @ t=0.3
0.13819416927951533
% es.Ez (V/m) @ t=0.3
0.8872565440461804
% es.tEx (V/m) @ t=0.3
2.1947456874686466
% es.tEy (V/m) @ t=0.3
0
% es.tEz (V/m) @ t=0.3
0.8872565440461839
% V (V) @ t=0.3
0.011846470394269592
% es.normE (V/m) @ t=0.32
2.4109309414501983
% es.EX (V/m) @ t=0.32
2.228014945539405
% es.EY (V/m) @ t=0.32
0.1402904069556944
% es.EZ (V/m) @ t=0.32
0.9007057456573442
% es.tEX (V/m) @ t=0.32
2.228014945539403
% es.tEY (V/m) @ t=0.32
0
% es.tEZ (V/m) @ t=0.32
0.9007057456573406
% es.Ex (V/m) @ t=0.32
2.228014945539405
% es.Ey (V/m) @ t=0.32
0.1402904069556944
% es.Ez (V/m) @ t=0.32
0.9007057456573442
% es.tEx (V/m) @ t=0.32
2.228014945539403
% es.tEy (V/m) @ t=0.32
0
% es.tEz (V/m) @ t=0.32
0.9007057456573406
% V (V) @ t=0.32
0.012026275105792154
% es.normE (V/m) @ t=0.34
2.446931339337966
% es.EX (V/m) @ t=0.34
2.261284203610167
% es.EY (V/m) @ t=0.34
0.1423866446318811
% es.EZ (V/m) @ t=0.34
0.9141549472685002
% es.tEX (V/m) @ t=0.34
2.2612842036101686
% es.tEY (V/m) @ t=0.34
0
% es.tEZ (V/m) @ t=0.34
0.914154947268504
% es.Ex (V/m) @ t=0.34
2.261284203610167
% es.Ey (V/m) @ t=0.34
0.1423866446318811
% es.Ez (V/m) @ t=0.34
0.9141549472685002
% es.tEx (V/m) @ t=0.34
2.2612842036101686
% es.tEy (V/m) @ t=0.34
0
% es.tEz (V/m) @ t=0.34
0.914154947268504
% V (V) @ t=0.34
0.012206079817314718
% es.normE (V/m) @ t=0.36
2.482931737229671
% es.EX (V/m) @ t=0.36
2.2945534616809375
% es.EY (V/m) @ t=0.36
0.14448288230806183
% es.EZ (V/m) @ t=0.36
0.9276041488796531
% es.tEX (V/m) @ t=0.36
2.2945534616809393
% es.tEY (V/m) @ t=0.36
0
% es.tEZ (V/m) @ t=0.36
0.927604148879646
% es.Ex (V/m) @ t=0.36
2.2945534616809375
% es.Ey (V/m) @ t=0.36
0.14448288230806183
% es.Ez (V/m) @ t=0.36
0.9276041488796531
% es.tEx (V/m) @ t=0.36
2.2945534616809393
% es.tEy (V/m) @ t=0.36
0
% es.tEz (V/m) @ t=0.36
0.927604148879646
% V (V) @ t=0.36
0.012385884528837276
% es.normE (V/m) @ t=0.38
2.5189321351251164
% es.EX (V/m) @ t=0.38
2.3278227197516825
% es.EY (V/m) @ t=0.38
0.14657911998424067
% es.EZ (V/m) @ t=0.38
0.9410533504908107
% es.tEX (V/m) @ t=0.38
2.3278227197516905
% es.tEY (V/m) @ t=0.38
0
% es.tEZ (V/m) @ t=0.38
0.9410533504908125
% es.Ex (V/m) @ t=0.38
2.3278227197516825
% es.Ey (V/m) @ t=0.38
0.14657911998424067
% es.Ez (V/m) @ t=0.38
0.9410533504908107
% es.tEx (V/m) @ t=0.38
2.3278227197516905
% es.tEy (V/m) @ t=0.38
0
% es.tEz (V/m) @ t=0.38
0.9410533504908125
% V (V) @ t=0.38
0.012565689240359841
% es.normE (V/m) @ t=0.4
2.5549325330241897
% es.EX (V/m) @ t=0.4
2.3610919778224524
% es.EY (V/m) @ t=0.4
0.14867535766043383
% es.EZ (V/m) @ t=0.4
0.9545025521019705
% es.tEX (V/m) @ t=0.4
2.361091977822447
% es.tEY (V/m) @ t=0.4
0
% es.tEZ (V/m) @ t=0.4
0.9545025521019674
% es.Ex (V/m) @ t=0.4
2.3610919778224524
% es.Ey (V/m) @ t=0.4
0.14867535766043383
% es.Ez (V/m) @ t=0.4
0.9545025521019705
% es.tEx (V/m) @ t=0.4
2.361091977822447
% es.tEy (V/m) @ t=0.4
0
% es.tEz (V/m) @ t=0.4
0.9545025521019674
% V (V) @ t=0.4
0.012745493951882401
% es.normE (V/m) @ t=0.42
2.592592954536984
% es.EX (V/m) @ t=0.42
2.3958951880625534
% es.EY (V/m) @ t=0.42
0.15086726200583844
% es.EZ (V/m) @ t=0.42
0.968572110166543
% es.tEX (V/m) @ t=0.42
2.3958951880625463
% es.tEY (V/m) @ t=0.42
0
% es.tEZ (V/m) @ t=0.42
0.9685721101665434
% es.Ex (V/m) @ t=0.42
2.3958951880625534
% es.Ey (V/m) @ t=0.42
0.15086726200583844
% es.Ez (V/m) @ t=0.42
0.968572110166543
% es.tEx (V/m) @ t=0.42
2.3958951880625463
% es.tEy (V/m) @ t=0.42
0
% es.tEz (V/m) @ t=0.42
0.9685721101665434
% V (V) @ t=0.42
0.012933428856948558
% es.normE (V/m) @ t=0.44
2.6317210906038833
% es.EX (V/m) @ t=0.44
2.4320546464358994
% es.EY (V/m) @ t=0.44
0.1531437503064219
% es.EZ (V/m) @ t=0.44
0.9831901581375821
% es.tEX (V/m) @ t=0.44
2.4320546464358905
% es.tEY (V/m) @ t=0.44
0
% es.tEZ (V/m) @ t=0.44
0.9831901581375835
% es.Ex (V/m) @ t=0.44
2.4320546464358994
% es.Ey (V/m) @ t=0.44
0.1531437503064219
% es.Ez (V/m) @ t=0.44
0.9831901581375821
% es.tEx (V/m) @ t=0.44
2.4320546464358905
% es.tEy (V/m) @ t=0.44
0
% es.tEz (V/m) @ t=0.44
0.9831901581375835
% V (V) @ t=0.44
0.013128552095547499
% es.normE (V/m) @ t=0.46
2.670849226671144
% es.EX (V/m) @ t=0.46
2.468214104809242
% es.EY (V/m) @ t=0.46
0.1554202386069945
% es.EZ (V/m) @ t=0.46
0.9978082061086173
% es.tEX (V/m) @ t=0.46
2.4682141048092365
% es.tEY (V/m) @ t=0.46
0
% es.tEZ (V/m) @ t=0.46
0.9978082061086093
% es.Ex (V/m) @ t=0.46
2.468214104809242
% es.Ey (V/m) @ t=0.46
0.1554202386069945
% es.Ez (V/m) @ t=0.46
0.9978082061086173
% es.tEx (V/m) @ t=0.46
2.4682141048092365
% es.tEy (V/m) @ t=0.46
0
% es.tEz (V/m) @ t=0.46
0.9978082061086093
% V (V) @ t=0.46
0.013323675334146442
% es.normE (V/m) @ t=0.48
2.70997736273876
% es.EX (V/m) @ t=0.48
2.5043735631825887
% es.EY (V/m) @ t=0.48
0.1576967269075814
% es.EZ (V/m) @ t=0.48
1.012426254079661
% es.tEX (V/m) @ t=0.48
2.5043735631825896
% es.tEY (V/m) @ t=0.48
0
% es.tEZ (V/m) @ t=0.48
1.01242625407966
% es.Ex (V/m) @ t=0.48
2.5043735631825887
% es.Ey (V/m) @ t=0.48
0.1576967269075814
% es.Ez (V/m) @ t=0.48
1.012426254079661
% es.tEx (V/m) @ t=0.48
2.5043735631825896
% es.tEy (V/m) @ t=0.48
0
% es.tEz (V/m) @ t=0.48
1.01242625407966
% V (V) @ t=0.48
0.013518798572745386
% es.normE (V/m) @ t=0.5
2.749105498806703
% es.EX (V/m) @ t=0.5
2.5405330215559268
% es.EY (V/m) @ t=0.5
0.15997321520818597
% es.EZ (V/m) @ t=0.5
1.027044302050701
% es.tEX (V/m) @ t=0.5
2.540533021555932
% es.tEY (V/m) @ t=0.5
0
% es.tEZ (V/m) @ t=0.5
1.0270443020507027
% es.Ex (V/m) @ t=0.5
2.5405330215559268
% es.Ey (V/m) @ t=0.5
0.15997321520818597
% es.Ez (V/m) @ t=0.5
1.027044302050701
% es.tEx (V/m) @ t=0.5
2.540533021555932
% es.tEy (V/m) @ t=0.5
0
% es.tEz (V/m) @ t=0.5
1.0270443020507027
% V (V) @ t=0.5
0.013713921811344327
% es.normE (V/m) @ t=0.52
2.78823363487499
% es.EX (V/m) @ t=0.52
2.5766924799292887
% es.EY (V/m) @ t=0.52
0.16224970350876577
% es.EZ (V/m) @ t=0.52
1.0416623500217481
% es.tEX (V/m) @ t=0.52
2.576692479929285
% es.tEY (V/m) @ t=0.52
0
% es.tEZ (V/m) @ t=0.52
1.0416623500217463
% es.Ex (V/m) @ t=0.52
2.5766924799292887
% es.Ey (V/m) @ t=0.52
0.16224970350876577
% es.Ez (V/m) @ t=0.52
1.0416623500217481
% es.tEx (V/m) @ t=0.52
2.576692479929285
% es.tEy (V/m) @ t=0.52
0
% es.tEz (V/m) @ t=0.52
1.0416623500217463
% V (V) @ t=0.52
0.01390904504994327
% es.normE (V/m) @ t=0.54
2.8273617709435532
% es.EX (V/m) @ t=0.54
2.612851938302624
% es.EY (V/m) @ t=0.54
0.16452619180935069
% es.EZ (V/m) @ t=0.54
1.0562803979927748
% es.tEX (V/m) @ t=0.54
2.612851938302615
% es.tEY (V/m) @ t=0.54
0
% es.tEZ (V/m) @ t=0.54
1.0562803979927766
% es.Ex (V/m) @ t=0.54
2.612851938302624
% es.Ey (V/m) @ t=0.54
0.16452619180935069
% es.Ez (V/m) @ t=0.54
1.0562803979927748
% es.tEx (V/m) @ t=0.54
2.612851938302615
% es.tEy (V/m) @ t=0.54
0
% es.tEz (V/m) @ t=0.54
1.0562803979927766
% V (V) @ t=0.54
0.01410416828854221
% es.normE (V/m) @ t=0.56
2.8675433872987117
% es.EX (V/m) @ t=0.56
2.6499849543683247
% es.EY (V/m) @ t=0.56
0.16686401366874726
% es.EZ (V/m) @ t=0.56
1.0712920119653262
% es.tEX (V/m) @ t=0.56
2.6499849543683194
% es.tEY (V/m) @ t=0.56
0
% es.tEZ (V/m) @ t=0.56
1.071292011965328
% es.Ex (V/m) @ t=0.56
2.6499849543683247
% es.Ey (V/m) @ t=0.56
0.16686401366874726
% es.Ez (V/m) @ t=0.56
1.0712920119653262
% es.tEx (V/m) @ t=0.56
2.6499849543683194
% es.tEy (V/m) @ t=0.56
0
% es.tEz (V/m) @ t=0.56
1.071292011965328
% V (V) @ t=0.56
0.01430455176337918
% es.normE (V/m) @ t=0.58
2.908489885630984
% es.EX (V/m) @ t=0.58
2.6878248244131884
% es.EY (V/m) @ t=0.58
0.1692463669107983
% es.EZ (V/m) @ t=0.58
1.0865893755102354
% es.tEX (V/m) @ t=0.58
2.6878248244131875
% es.tEY (V/m) @ t=0.58
0
% es.tEZ (V/m) @ t=0.58
1.086589375510239
% es.Ex (V/m) @ t=0.58
2.6878248244131884
% es.Ey (V/m) @ t=0.58
0.1692463669107983
% es.Ez (V/m) @ t=0.58
1.0865893755102354
% es.tEx (V/m) @ t=0.58
2.6878248244131875
% es.tEy (V/m) @ t=0.58
0
% es.tEz (V/m) @ t=0.58
1.086589375510239
% V (V) @ t=0.58
0.014508754445794128
% es.normE (V/m) @ t=0.6
2.949829895228042
% es.EX (V/m) @ t=0.6
2.7260283518740174
% es.EY (V/m) @ t=0.6
0.1716516303549619
% es.EZ (V/m) @ t=0.6
1.1020337495469006
% es.tEX (V/m) @ t=0.6
2.7260283518740227
% es.tEY (V/m) @ t=0.6
0
% es.tEZ (V/m) @ t=0.6
1.1020337495468988
% es.Ex (V/m) @ t=0.6
2.7260283518740174
% es.Ey (V/m) @ t=0.6
0.1716516303549619
% es.Ez (V/m) @ t=0.6
1.1020337495469006
% es.tEx (V/m) @ t=0.6
2.7260283518740227
% es.tEy (V/m) @ t=0.6
0
% es.tEz (V/m) @ t=0.6
1.1020337495468988
% V (V) @ t=0.6
0.014714922008084844
% es.normE (V/m) @ t=0.62
2.9915634160898312
% es.EX (V/m) @ t=0.62
2.764595536750776
% es.EY (V/m) @ t=0.62
0.17407980400123668
% es.EZ (V/m) @ t=0.62
1.1176251340753334
% es.tEX (V/m) @ t=0.62
2.7645955367507664
% es.tEY (V/m) @ t=0.62
0
% es.tEZ (V/m) @ t=0.62
1.1176251340753316
% es.Ex (V/m) @ t=0.62
2.764595536750776
% es.Ey (V/m) @ t=0.62
0.17407980400123668
% es.Ez (V/m) @ t=0.62
1.1176251340753334
% es.tEx (V/m) @ t=0.62
2.7645955367507664
% es.tEy (V/m) @ t=0.62
0
% es.tEz (V/m) @ t=0.62
1.1176251340753316
% V (V) @ t=0.62
0.014923054450251315
% es.normE (V/m) @ t=0.64
3.0336904482163494
% es.EX (V/m) @ t=0.64
2.8035263790434968
% es.EY (V/m) @ t=0.64
0.17653088784964743
% es.EZ (V/m) @ t=0.64
1.1333635290955222
% es.tEX (V/m) @ t=0.64
2.803526379043495
% es.tEY (V/m) @ t=0.64
0
% es.tEZ (V/m) @ t=0.64
1.1333635290955186
% es.Ex (V/m) @ t=0.64
2.8035263790434968
% es.Ey (V/m) @ t=0.64
0.17653088784964743
% es.Ez (V/m) @ t=0.64
1.1333635290955222
% es.tEx (V/m) @ t=0.64
2.803526379043495
% es.tEy (V/m) @ t=0.64
0
% es.tEz (V/m) @ t=0.64
1.1333635290955186
% V (V) @ t=0.64
0.015133151772293555
% es.normE (V/m) @ t=0.66
3.076210991607548
% es.EX (V/m) @ t=0.66
2.8428208787521516
% es.EY (V/m) @ t=0.66
0.17900488190019204
% es.EZ (V/m) @ t=0.66
1.149248934607467
% es.tEX (V/m) @ t=0.66
2.8428208787521516
% es.tEY (V/m) @ t=0.66
0
% es.tEZ (V/m) @ t=0.66
1.1492489346074688
% es.Ex (V/m) @ t=0.66
2.8428208787521516
% es.Ey (V/m) @ t=0.66
0.17900488190019204
% es.Ez (V/m) @ t=0.66
1.149248934607467
% es.tEx (V/m) @ t=0.66
2.8428208787521516
% es.tEy (V/m) @ t=0.66
0
% es.tEz (V/m) @ t=0.66
1.1492489346074688
% V (V) @ t=0.66
0.015345213974211555
% es.normE (V/m) @ t=0.68
3.1191250462634597
% es.EX (V/m) @ t=0.68
2.882479035876786
% es.EY (V/m) @ t=0.68
0.1815017861528445
% es.EZ (V/m) @ t=0.68
1.1652813506112003
% es.tEX (V/m) @ t=0.68
2.882479035876793
% es.tEY (V/m) @ t=0.68
0
% es.tEZ (V/m) @ t=0.68
1.1652813506111972
% es.Ex (V/m) @ t=0.68
2.882479035876786
% es.Ey (V/m) @ t=0.68
0.1815017861528445
% es.Ez (V/m) @ t=0.68
1.1652813506112003
% es.tEx (V/m) @ t=0.68
2.882479035876793
% es.tEy (V/m) @ t=0.68
0
% es.tEz (V/m) @ t=0.68
1.1652813506111972
% V (V) @ t=0.68
0.01555924105600532
% es.normE (V/m) @ t=0.7
3.1624326121840047
% es.EX (V/m) @ t=0.7
2.9225008504173413
% es.EY (V/m) @ t=0.7
0.1840216006076203
% es.EZ (V/m) @ t=0.7
1.18146077710671
% es.tEX (V/m) @ t=0.7
2.9225008504173413
% es.tEY (V/m) @ t=0.7
0
% es.tEZ (V/m) @ t=0.7
1.1814607771067065
% es.Ex (V/m) @ t=0.7
2.9225008504173413
% es.Ey (V/m) @ t=0.7
0.1840216006076203
% es.Ez (V/m) @ t=0.7
1.18146077710671
% es.tEx (V/m) @ t=0.7
2.9225008504173413
% es.tEy (V/m) @ t=0.7
0
% es.tEz (V/m) @ t=0.7
1.1814607771067065
% V (V) @ t=0.7
0.01577523301767485
% es.normE (V/m) @ t=0.72
3.206133689369178
% es.EX (V/m) @ t=0.72
2.962886322373844
% es.EY (V/m) @ t=0.72
0.18656432526452837
% es.EZ (V/m) @ t=0.72
1.197787214093963
% es.tEX (V/m) @ t=0.72
2.9628863223738513
% es.tEY (V/m) @ t=0.72
0
% es.tEZ (V/m) @ t=0.72
1.1977872140939612
% es.Ex (V/m) @ t=0.72
2.962886322373844
% es.Ey (V/m) @ t=0.72
0.18656432526452837
% es.Ez (V/m) @ t=0.72
1.197787214093963
% es.tEx (V/m) @ t=0.72
2.9628863223738513
% es.tEy (V/m) @ t=0.72
0
% es.tEz (V/m) @ t=0.72
1.1977872140939612
% V (V) @ t=0.72
0.015993189859220137
% es.normE (V/m) @ t=0.74
3.250228277819005
% es.EX (V/m) @ t=0.74
3.00363545174633
% es.EY (V/m) @ t=0.74
0.189129960123542
% es.EZ (V/m) @ t=0.74
1.2142606615729852
% es.tEX (V/m) @ t=0.74
3.0036354517463266
% es.tEY (V/m) @ t=0.74
0
% es.tEZ (V/m) @ t=0.74
1.2142606615729834
% es.Ex (V/m) @ t=0.74
3.00363545174633
% es.Ey (V/m) @ t=0.74
0.189129960123542
% es.Ez (V/m) @ t=0.74
1.2142606615729852
% es.tEx (V/m) @ t=0.74
3.0036354517463266
% es.tEy (V/m) @ t=0.74
0
% es.tEz (V/m) @ t=0.74
1.2142606615729834
% V (V) @ t=0.74
0.01621311158064119
% es.normE (V/m) @ t=0.76
3.294716377533392
% es.EX (V/m) @ t=0.76
3.044748238534714
% es.EY (V/m) @ t=0.76
0.19171850518471134
% es.EZ (V/m) @ t=0.76
1.2308811195437777
% es.tEX (V/m) @ t=0.76
3.0447482385347193
% es.tEY (V/m) @ t=0.76
0
% es.tEZ (V/m) @ t=0.76
1.230881119543774
% es.Ex (V/m) @ t=0.76
3.044748238534714
% es.Ey (V/m) @ t=0.76
0.19171850518471134
% es.Ez (V/m) @ t=0.76
1.2308811195437777
% es.tEx (V/m) @ t=0.76
3.0447482385347193
% es.tEy (V/m) @ t=0.76
0
% es.tEz (V/m) @ t=0.76
1.230881119543774
% V (V) @ t=0.76
0.01643499818193801
% es.normE (V/m) @ t=0.78
3.3395979885124047
% es.EX (V/m) @ t=0.78
3.0862246827390862
% es.EY (V/m) @ t=0.78
0.1943299604480111
% es.EZ (V/m) @ t=0.78
1.2476485880063297
% es.tEX (V/m) @ t=0.78
3.0862246827390845
% es.tEY (V/m) @ t=0.78
0
% es.tEZ (V/m) @ t=0.78
1.2476485880063297
% es.Ex (V/m) @ t=0.78
3.0862246827390862
% es.Ey (V/m) @ t=0.78
0.1943299604480111
% es.Ez (V/m) @ t=0.78
1.2476485880063297
% es.tEx (V/m) @ t=0.78
3.0862246827390845
% es.tEy (V/m) @ t=0.78
0
% es.tEz (V/m) @ t=0.78
1.2476485880063297
% V (V) @ t=0.78
0.01665884966311059
% es.normE (V/m) @ t=0.8
3.3848731107559624
% es.EX (V/m) @ t=0.8
3.128064784359367
% es.EY (V/m) @ t=0.8
0.19696432591340596
% es.EZ (V/m) @ t=0.8
1.2645630669606591
% es.tEX (V/m) @ t=0.8
3.128064784359374
% es.tEY (V/m) @ t=0.8
0
% es.tEZ (V/m) @ t=0.8
1.264563066960661
% es.Ex (V/m) @ t=0.8
3.128064784359367
% es.Ey (V/m) @ t=0.8
0.19696432591340596
% es.Ez (V/m) @ t=0.8
1.2645630669606591
% es.tEx (V/m) @ t=0.8
3.128064784359374
% es.tEy (V/m) @ t=0.8
0
% es.tEz (V/m) @ t=0.8
1.264563066960661
% V (V) @ t=0.8
0.01688466602415893
% es.normE (V/m) @ t=0.82
3.4305959796320677
% es.EX (V/m) @ t=0.82
3.1703186622978885
% es.EY (V/m) @ t=0.82
0.199624745291336
% es.EZ (V/m) @ t=0.82
1.2816448207460494
% es.tEX (V/m) @ t=0.82
3.1703186622978965
% es.tEY (V/m) @ t=0.82
0
% es.tEZ (V/m) @ t=0.82
1.2816448207460445
% es.Ex (V/m) @ t=0.82
3.1703186622978885
% es.Ey (V/m) @ t=0.82
0.199624745291336
% es.Ez (V/m) @ t=0.82
1.2816448207460494
% es.tEx (V/m) @ t=0.82
3.1703186622978965
% es.tEy (V/m) @ t=0.82
0
% es.tEz (V/m) @ t=0.82
1.2816448207460445
% V (V) @ t=0.82
0.017112715825592113
% es.normE (V/m) @ t=0.84
3.477476225695093
% es.EX (V/m) @ t=0.84
3.213642086133402
% es.EY (V/m) @ t=0.84
0.20235235175823396
% es.EZ (V/m) @ t=0.84
1.2991589935822936
% es.tEX (V/m) @ t=0.84
3.2136420861334027
% es.tEY (V/m) @ t=0.84
0
% es.tEZ (V/m) @ t=0.84
1.2991589935822958
% es.Ex (V/m) @ t=0.84
3.213642086133402
% es.Ey (V/m) @ t=0.84
0.20235235175823396
% es.Ez (V/m) @ t=0.84
1.2991589935822936
% es.tEx (V/m) @ t=0.84
3.2136420861334027
% es.tEy (V/m) @ t=0.84
0
% es.tEz (V/m) @ t=0.84
1.2991589935822958
% V (V) @ t=0.84
0.017346512987388124
% es.normE (V/m) @ t=0.86
3.5248606684168147
% es.EX (V/m) @ t=0.86
3.257431451754889
% es.EY (V/m) @ t=0.86
0.20510928421897567
% es.EZ (V/m) @ t=0.86
1.3168615330670481
% es.tEX (V/m) @ t=0.86
3.257431451754883
% es.tEY (V/m) @ t=0.86
0
% es.tEZ (V/m) @ t=0.86
1.3168615330670486
% es.Ex (V/m) @ t=0.86
3.257431451754889
% es.Ey (V/m) @ t=0.86
0.20510928421897567
% es.Ez (V/m) @ t=0.86
1.3168615330670481
% es.tEx (V/m) @ t=0.86
3.257431451754883
% es.tEy (V/m) @ t=0.86
0
% es.tEz (V/m) @ t=0.86
1.3168615330670486
% V (V) @ t=0.86
0.017582823116532916
% es.normE (V/m) @ t=0.88
3.5727493077972494
% es.EX (V/m) @ t=0.88
3.3016867591623553
% es.EY (V/m) @ t=0.88
0.20789554267360932
% es.EZ (V/m) @ t=0.88
1.3347524392003267
% es.tEX (V/m) @ t=0.88
3.3016867591623615
% es.tEY (V/m) @ t=0.88
0
% es.tEZ (V/m) @ t=0.88
1.3347524392003267
% es.Ex (V/m) @ t=0.88
3.3016867591623553
% es.Ey (V/m) @ t=0.88
0.20789554267360932
% es.Ez (V/m) @ t=0.88
1.3347524392003267
% es.tEx (V/m) @ t=0.88
3.3016867591623615
% es.tEy (V/m) @ t=0.88
0
% es.tEz (V/m) @ t=0.88
1.3347524392003267
% V (V) @ t=0.88
0.01782164621302651
% es.normE (V/m) @ t=0.9
3.6211421438364058
% es.EX (V/m) @ t=0.9
3.346408008355798
% es.EY (V/m) @ t=0.9
0.21071112712207185
% es.EZ (V/m) @ t=0.9
1.3528317119821143
% es.tEX (V/m) @ t=0.9
3.346408008355798
% es.tEY (V/m) @ t=0.9
0
% es.tEZ (V/m) @ t=0.9
1.3528317119821107
% es.Ex (V/m) @ t=0.9
3.346408008355798
% es.Ey (V/m) @ t=0.9
0.21071112712207185
% es.Ez (V/m) @ t=0.9
1.3528317119821143
% es.tEx (V/m) @ t=0.9
3.346408008355798
% es.tEy (V/m) @ t=0.9
0
% es.tEz (V/m) @ t=0.9
1.3528317119821107
% V (V) @ t=0.9
0.018062982276868894
% es.normE (V/m) @ t=0.92
3.6700391765343534
% es.EX (V/m) @ t=0.92
3.391595199335267
% es.EY (V/m) @ t=0.92
0.21355603756438613
% es.EZ (V/m) @ t=0.92
1.3710993514124543
% es.tEX (V/m) @ t=0.92
3.3915951993352778
% es.tEY (V/m) @ t=0.92
0
% es.tEZ (V/m) @ t=0.92
1.3710993514124619
% es.Ex (V/m) @ t=0.92
3.391595199335267
% es.Ey (V/m) @ t=0.92
0.21355603756438613
% es.Ez (V/m) @ t=0.92
1.3710993514124543
% es.tEx (V/m) @ t=0.92
3.3915951993352778
% es.tEy (V/m) @ t=0.92
0
% es.tEz (V/m) @ t=0.92
1.3710993514124619
% V (V) @ t=0.92
0.018306831308060073
% es.normE (V/m) @ t=0.94
3.7194404058910258
% es.EX (V/m) @ t=0.94
3.4372483321007063
% es.EY (V/m) @ t=0.94
0.21643027400055592
% es.EZ (V/m) @ t=0.94
1.3895553574912705
% es.tEX (V/m) @ t=0.94
3.4372483321007294
% es.tEY (V/m) @ t=0.94
0
% es.tEZ (V/m) @ t=0.94
1.3895553574912558
% es.Ex (V/m) @ t=0.94
3.4372483321007063
% es.Ey (V/m) @ t=0.94
0.21643027400055592
% es.Ez (V/m) @ t=0.94
1.3895553574912705
% es.tEx (V/m) @ t=0.94
3.4372483321007294
% es.tEy (V/m) @ t=0.94
0
% es.tEz (V/m) @ t=0.94
1.3895553574912558
% V (V) @ t=0.94
0.01855319330660005
% es.normE (V/m) @ t=0.96
3.769345831906517
% es.EX (V/m) @ t=0.96
3.4833674066521585
% es.EY (V/m) @ t=0.96
0.21933383643059523
% es.EZ (V/m) @ t=0.96
1.4081997302186706
% es.tEX (V/m) @ t=0.96
3.483367406652139
% es.tEY (V/m) @ t=0.96
0
% es.tEZ (V/m) @ t=0.96
1.4081997302186622
% es.Ex (V/m) @ t=0.96
3.4833674066521585
% es.Ey (V/m) @ t=0.96
0.21933383643059523
% es.Ez (V/m) @ t=0.96
1.4081997302186706
% es.tEx (V/m) @ t=0.96
3.483367406652139
% es.tEy (V/m) @ t=0.96
0
% es.tEz (V/m) @ t=0.96
1.4081997302186622
% V (V) @ t=0.96
0.01880206827248882
% es.normE (V/m) @ t=0.98
3.8197554545807346
% es.EX (V/m) @ t=0.98
3.5299524229895596
% es.EY (V/m) @ t=0.98
0.2222667248544794
% es.EZ (V/m) @ t=0.98
1.4270324695945433
% es.tEX (V/m) @ t=0.98
3.5299524229895596
% es.tEY (V/m) @ t=0.98
0
% es.tEZ (V/m) @ t=0.98
1.4270324695945398
% es.Ex (V/m) @ t=0.98
3.5299524229895596
% es.Ey (V/m) @ t=0.98
0.2222667248544794
% es.Ez (V/m) @ t=0.98
1.4270324695945433
% es.tEx (V/m) @ t=0.98
3.5299524229895596
% es.tEy (V/m) @ t=0.98
0
% es.tEz (V/m) @ t=0.98
1.4270324695945398
% V (V) @ t=0.98
0.019053456205726377
% es.normE (V/m) @ t=1
3.8706692739137423
% es.EX (V/m) @ t=1
3.5770033811129434
% es.EY (V/m) @ t=1
0.22522893927223087
% es.EZ (V/m) @ t=1
1.446053575618937
% es.tEX (V/m) @ t=1
3.5770033811129665
% es.tEY (V/m) @ t=1
0
% es.tEZ (V/m) @ t=1
1.4460535756189294
% es.Ex (V/m) @ t=1
3.5770033811129434
% es.Ey (V/m) @ t=1
0.22522893927223087
% es.Ez (V/m) @ t=1
1.446053575618937
% es.tEx (V/m) @ t=1
3.5770033811129665
% es.tEy (V/m) @ t=1
0
% es.tEz (V/m) @ t=1
1.4460535756189294
% V (V) @ t=1
0.019307357106312737
% es.normE (V/m) @ t=1.02
3.9220872899056145
% es.EX (V/m) @ t=1.02
3.624520281022379
% es.EY (V/m) @ t=1.02
0.22822047968380388
% es.EZ (V/m) @ t=1.02
1.465263048291857
% es.tEX (V/m) @ t=1.02
3.624520281022374
% es.tEY (V/m) @ t=1.02
0
% es.tEZ (V/m) @ t=1.02
1.4652630482918516
% es.Ex (V/m) @ t=1.02
3.624520281022379
% es.Ey (V/m) @ t=1.02
0.22822047968380388
% es.Ez (V/m) @ t=1.02
1.465263048291857
% es.tEx (V/m) @ t=1.02
3.624520281022374
% es.tEy (V/m) @ t=1.02
0
% es.tEz (V/m) @ t=1.02
1.4652630482918516
% V (V) @ t=1.02
0.019563770974247878
% es.normE (V/m) @ t=1.04
3.974009502556297
% es.EX (V/m) @ t=1.04
3.6725031227177922
% es.EY (V/m) @ t=1.04
0.2312413460892433
% es.EZ (V/m) @ t=1.04
1.4846608876133125
% es.tEX (V/m) @ t=1.04
3.672503122717771
% es.tEY (V/m) @ t=1.04
0
% es.tEZ (V/m) @ t=1.04
1.4846608876133072
% es.Ex (V/m) @ t=1.04
3.6725031227177922
% es.Ey (V/m) @ t=1.04
0.2312413460892433
% es.Ez (V/m) @ t=1.04
1.4846608876133125
% es.tEx (V/m) @ t=1.04
3.672503122717771
% es.tEy (V/m) @ t=1.04
0
% es.tEz (V/m) @ t=1.04
1.4846608876133072