% Model:              1 neuron.mph
% Version:            COMSOL 6.0.0.405
% Date:               Mar 16 2023, 19:18
% Dimension:          0
% Nodes:              14017
% Expressions:        14017
% Description:        Electric field norm, Electric field, X component, Electric field, Y component, Electric field, Z component, Tangential electric field, X component, Tangential electric field, Y component, Tangential electric field, Z component, Electric field, x component, Electric field, y component, Electric field, z component, Tangential electric field, x component, Tangential electric field, y component, Tangential electric field, z component, Electric potential
% Length unit:        mm
% x
1.66
% y
12.2
% z
1.33
% es.normE (V/m) @ t=0
11.42867488602613
% es.EX (V/m) @ t=0
-6.350233035801381
% es.EY (V/m) @ t=0
-0.6854523797755101
% es.EZ (V/m) @ t=0
8.50292217956288
% es.tEX (V/m) @ t=0
-6.350233035801387
% es.tEY (V/m) @ t=0
0
% es.tEZ (V/m) @ t=0
8.502922179562868
% es.Ex (V/m) @ t=0
-6.350233035801381
% es.Ey (V/m) @ t=0
-0.6854523797755101
% es.Ez (V/m) @ t=0
8.50292217956288
% es.tEx (V/m) @ t=0
-6.350233035801387
% es.tEy (V/m) @ t=0
0
% es.tEz (V/m) @ t=0
8.502922179562868
% V (V) @ t=0
0.009385970341028574
% es.normE (V/m) @ t=0.02
9.925903408602078
% es.EX (V/m) @ t=0.02
-5.515232658093004
% es.EY (V/m) @ t=0.02
-0.5953212683028455
% es.EZ (V/m) @ t=0.02
7.384861727664704
% es.tEX (V/m) @ t=0.02
-5.515232658093014
% es.tEY (V/m) @ t=0.02
0
% es.tEZ (V/m) @ t=0.02
7.384861727664691
% es.Ex (V/m) @ t=0.02
-5.515232658093004
% es.Ey (V/m) @ t=0.02
-0.5953212683028455
% es.Ez (V/m) @ t=0.02
7.384861727664704
% es.tEx (V/m) @ t=0.02
-5.515232658093014
% es.tEy (V/m) @ t=0.02
0
% es.tEz (V/m) @ t=0.02
7.384861727664691
% V (V) @ t=0.02
0.008151796548093768
% es.normE (V/m) @ t=0.04
10.07308839171191
% es.EX (V/m) @ t=0.04
-5.597014577494078
% es.EY (V/m) @ t=0.04
-0.6041489129825743
% es.EZ (V/m) @ t=0.04
7.494367200145163
% es.tEX (V/m) @ t=0.04
-5.597014577494077
% es.tEY (V/m) @ t=0.04
0
% es.tEZ (V/m) @ t=0.04
7.4943672001451445
% es.Ex (V/m) @ t=0.04
-5.597014577494078
% es.Ey (V/m) @ t=0.04
-0.6041489129825743
% es.Ez (V/m) @ t=0.04
7.494367200145163
% es.tEx (V/m) @ t=0.04
-5.597014577494077
% es.tEy (V/m) @ t=0.04
0
% es.tEz (V/m) @ t=0.04
7.4943672001451445
% V (V) @ t=0.04
0.008272674414298287
% es.normE (V/m) @ t=0.06
10.22252291523603
% es.EX (V/m) @ t=0.06
-5.680046374949538
% es.EY (V/m) @ t=0.06
-0.6131115180090485
% es.EZ (V/m) @ t=0.06
7.605546351279123
% es.tEX (V/m) @ t=0.06
-5.680046374949544
% es.tEY (V/m) @ t=0.06
0
% es.tEZ (V/m) @ t=0.06
7.605546351279117
% es.Ex (V/m) @ t=0.06
-5.680046374949538
% es.Ey (V/m) @ t=0.06
-0.6131115180090485
% es.Ez (V/m) @ t=0.06
7.605546351279123
% es.tEx (V/m) @ t=0.06
-5.680046374949544
% es.tEy (V/m) @ t=0.06
0
% es.tEz (V/m) @ t=0.06
7.605546351279117
% V (V) @ t=0.06
0.008395399865836465
% es.normE (V/m) @ t=0.08
10.375671681288681
% es.EX (V/m) @ t=0.08
-5.765141944280196
% es.EY (V/m) @ t=0.08
-0.6222968985305402
% es.EZ (V/m) @ t=0.08
7.719488899313089
% es.tEX (V/m) @ t=0.08
-5.765141944280202
% es.tEY (V/m) @ t=0.08
0
% es.tEZ (V/m) @ t=0.08
7.719488899313072
% es.Ex (V/m) @ t=0.08
-5.765141944280196
% es.Ey (V/m) @ t=0.08
-0.6222968985305402
% es.Ez (V/m) @ t=0.08
7.719488899313089
% es.tEx (V/m) @ t=0.08
-5.765141944280202
% es.tEy (V/m) @ t=0.08
0
% es.tEz (V/m) @ t=0.08
7.719488899313072
% V (V) @ t=0.08
0.008521175717587901
% es.normE (V/m) @ t=0.1
10.531614113325631
% es.EX (V/m) @ t=0.1
-5.851789778774745
% es.EY (V/m) @ t=0.1
-0.6316498395486008
% es.EZ (V/m) @ t=0.1
7.835509935184436
% es.tEX (V/m) @ t=0.1
-5.851789778774755
% es.tEY (V/m) @ t=0.1
0
% es.tEZ (V/m) @ t=0.1
7.835509935184428
% es.Ex (V/m) @ t=0.1
-5.851789778774745
% es.Ey (V/m) @ t=0.1
-0.6316498395486008
% es.Ez (V/m) @ t=0.1
7.835509935184436
% es.tEx (V/m) @ t=0.1
-5.851789778774755
% es.tEy (V/m) @ t=0.1
0
% es.tEz (V/m) @ t=0.1
7.835509935184428
% V (V) @ t=0.1
0.008649245926600326
% es.normE (V/m) @ t=0.12
10.687556545362614
% es.EX (V/m) @ t=0.12
-5.938437613269287
% es.EY (V/m) @ t=0.12
-0.6410027805667118
% es.EZ (V/m) @ t=0.12
7.951530971055818
% es.tEX (V/m) @ t=0.12
-5.9384376132692855
% es.tEY (V/m) @ t=0.12
0
% es.tEZ (V/m) @ t=0.12
7.951530971055805
% es.Ex (V/m) @ t=0.12
-5.938437613269287
% es.Ey (V/m) @ t=0.12
-0.6410027805667118
% es.Ez (V/m) @ t=0.12
7.951530971055818
% es.tEx (V/m) @ t=0.12
-5.9384376132692855
% es.tEy (V/m) @ t=0.12
0
% es.tEz (V/m) @ t=0.12
7.951530971055805
% V (V) @ t=0.12
0.008777316135612752
% es.normE (V/m) @ t=0.14
10.84563612066107
% es.EX (V/m) @ t=0.14
-6.026273092027172
% es.EY (V/m) @ t=0.14
-0.650483784853124
% es.EZ (V/m) @ t=0.14
8.069141975906827
% es.tEX (V/m) @ t=0.14
-6.0262730920271785
% es.tEY (V/m) @ t=0.14
0
% es.tEZ (V/m) @ t=0.14
8.069141975906815
% es.Ex (V/m) @ t=0.14
-6.026273092027172
% es.Ey (V/m) @ t=0.14
-0.650483784853124
% es.Ez (V/m) @ t=0.14
8.069141975906827
% es.tEx (V/m) @ t=0.14
-6.0262730920271785
% es.tEy (V/m) @ t=0.14
0
% es.tEz (V/m) @ t=0.14
8.069141975906815
% V (V) @ t=0.14
0.008907141177503013
% es.normE (V/m) @ t=0.16
11.015687679060711
% es.EX (V/m) @ t=0.16
-6.1207615908736726
% es.EY (V/m) @ t=0.16
-0.6606821819842839
% es.EZ (V/m) @ t=0.16
8.195659768664083
% es.tEX (V/m) @ t=0.16
-6.120761590873693
% es.tEY (V/m) @ t=0.16
0
% es.tEZ (V/m) @ t=0.16
8.195659768664072
% es.Ex (V/m) @ t=0.16
-6.1207615908736726
% es.Ey (V/m) @ t=0.16
-0.6606821819842839
% es.Ez (V/m) @ t=0.16
8.195659768664083
% es.tEx (V/m) @ t=0.16
-6.120761590873693
% es.tEy (V/m) @ t=0.16
0
% es.tEz (V/m) @ t=0.16
8.195659768664072
% V (V) @ t=0.16
0.009046796552219962
% es.normE (V/m) @ t=0.18
11.18573923746055
% es.EX (V/m) @ t=0.18
-6.215250089720208
% es.EY (V/m) @ t=0.18
-0.6708805791154564
% es.EZ (V/m) @ t=0.18
8.32217756142137
% es.tEX (V/m) @ t=0.18
-6.215250089720217
% es.tEY (V/m) @ t=0.18
0
% es.tEZ (V/m) @ t=0.18
8.32217756142136
% es.Ex (V/m) @ t=0.18
-6.215250089720208
% es.Ey (V/m) @ t=0.18
-0.6708805791154564
% es.Ez (V/m) @ t=0.18
8.32217756142137
% es.tEx (V/m) @ t=0.18
-6.215250089720217
% es.tEy (V/m) @ t=0.18
0
% es.tEz (V/m) @ t=0.18
8.32217756142136
% V (V) @ t=0.18
0.009186451926936907
% es.normE (V/m) @ t=0.2
11.355790795860525
% es.EX (V/m) @ t=0.2
-6.3097385885667165
% es.EY (V/m) @ t=0.2
-0.6810789762466414
% es.EZ (V/m) @ t=0.2
8.448695354178632
% es.tEX (V/m) @ t=0.2
-6.309738588566729
% es.tEY (V/m) @ t=0.2
0
% es.tEZ (V/m) @ t=0.2
8.448695354178621
% es.Ex (V/m) @ t=0.2
-6.3097385885667165
% es.Ey (V/m) @ t=0.2
-0.6810789762466414
% es.Ez (V/m) @ t=0.2
8.448695354178632
% es.tEx (V/m) @ t=0.2
-6.309738588566729
% es.tEy (V/m) @ t=0.2
0
% es.tEz (V/m) @ t=0.2
8.448695354178621
% V (V) @ t=0.2
0.009326107301653855
% es.normE (V/m) @ t=0.22
11.525842354260671
% es.EX (V/m) @ t=0.22
-6.404227087413241
% es.EY (V/m) @ t=0.22
-0.6912773733778388
% es.EZ (V/m) @ t=0.22
8.575213146935901
% es.tEX (V/m) @ t=0.22
-6.404227087413254
% es.tEY (V/m) @ t=0.22
0
% es.tEZ (V/m) @ t=0.22
8.575213146935894
% es.Ex (V/m) @ t=0.22
-6.404227087413241
% es.Ey (V/m) @ t=0.22
-0.6912773733778388
% es.Ez (V/m) @ t=0.22
8.575213146935901
% es.tEx (V/m) @ t=0.22
-6.404227087413254
% es.tEy (V/m) @ t=0.22
0
% es.tEz (V/m) @ t=0.22
8.575213146935894
% V (V) @ t=0.22
0.009465762676370806
% es.normE (V/m) @ t=0.24
11.695893912660933
% es.EX (V/m) @ t=0.24
-6.4987155862597525
% es.EY (V/m) @ t=0.24
-0.7014757705090182
% es.EZ (V/m) @ t=0.24
8.701730939693158
% es.tEX (V/m) @ t=0.24
-6.498715586259762
% es.tEY (V/m) @ t=0.24
0
% es.tEZ (V/m) @ t=0.24
8.701730939693146
% es.Ex (V/m) @ t=0.24
-6.4987155862597525
% es.Ey (V/m) @ t=0.24
-0.7014757705090182
% es.Ez (V/m) @ t=0.24
8.701730939693158
% es.tEx (V/m) @ t=0.24
-6.498715586259762
% es.tEy (V/m) @ t=0.24
0
% es.tEz (V/m) @ t=0.24
8.701730939693146
% V (V) @ t=0.24
0.00960541805108775
% es.normE (V/m) @ t=0.26
11.865945471061345
% es.EX (V/m) @ t=0.26
-6.593204085106253
% es.EY (V/m) @ t=0.26
-0.7116741676401643
% es.EZ (V/m) @ t=0.26
8.828248732450433
% es.tEX (V/m) @ t=0.26
-6.593204085106262
% es.tEY (V/m) @ t=0.26
0
% es.tEZ (V/m) @ t=0.26
8.828248732450422
% es.Ex (V/m) @ t=0.26
-6.593204085106253
% es.Ey (V/m) @ t=0.26
-0.7116741676401643
% es.Ez (V/m) @ t=0.26
8.828248732450433
% es.tEx (V/m) @ t=0.26
-6.593204085106262
% es.tEy (V/m) @ t=0.26
0
% es.tEz (V/m) @ t=0.26
8.828248732450422
% V (V) @ t=0.26
0.009745073425804699
% es.normE (V/m) @ t=0.28
12.04076595068252
% es.EX (V/m) @ t=0.28
-6.690342201144774
% es.EY (V/m) @ t=0.28
-0.7221587224788353
% es.EZ (V/m) @ t=0.28
8.958314671468187
% es.tEX (V/m) @ t=0.28
-6.69034220114479
% es.tEY (V/m) @ t=0.28
0
% es.tEZ (V/m) @ t=0.28
8.958314671468173
% es.Ex (V/m) @ t=0.28
-6.690342201144774
% es.Ey (V/m) @ t=0.28
-0.7221587224788353
% es.Ez (V/m) @ t=0.28
8.958314671468187
% es.tEx (V/m) @ t=0.28
-6.69034220114479
% es.tEy (V/m) @ t=0.28
0
% es.tEz (V/m) @ t=0.28
8.958314671468173
% V (V) @ t=0.28
0.009888645730855211
% es.normE (V/m) @ t=0.3
12.226055521642483
% es.EX (V/m) @ t=0.3
-6.793296954345551
% es.EY (V/m) @ t=0.3
-0.7332714720471865
% es.EZ (V/m) @ t=0.3
9.096169765635688
% es.tEX (V/m) @ t=0.3
-6.793296954345564
% es.tEY (V/m) @ t=0.3
0
% es.tEZ (V/m) @ t=0.3
9.096169765635677
% es.Ex (V/m) @ t=0.3
-6.793296954345551
% es.Ey (V/m) @ t=0.3
-0.7332714720471865
% es.Ez (V/m) @ t=0.3
9.096169765635688
% es.tEx (V/m) @ t=0.3
-6.793296954345564
% es.tEy (V/m) @ t=0.3
0
% es.tEz (V/m) @ t=0.3
9.096169765635677
% V (V) @ t=0.3
0.01004081677334185
% es.normE (V/m) @ t=0.32
12.41134509260247
% es.EX (V/m) @ t=0.32
-6.896251707546332
% es.EY (V/m) @ t=0.32
-0.744384221615519
% es.EZ (V/m) @ t=0.32
9.23402485980319
% es.tEX (V/m) @ t=0.32
-6.8962517075463445
% es.tEY (V/m) @ t=0.32
0
% es.tEZ (V/m) @ t=0.32
9.234024859803174
% es.Ex (V/m) @ t=0.32
-6.896251707546332
% es.Ey (V/m) @ t=0.32
-0.744384221615519
% es.Ez (V/m) @ t=0.32
9.23402485980319
% es.tEx (V/m) @ t=0.32
-6.8962517075463445
% es.tEy (V/m) @ t=0.32
0
% es.tEz (V/m) @ t=0.32
9.234024859803174
% V (V) @ t=0.32
0.010192987815828487
% es.normE (V/m) @ t=0.34
12.596634663562444
% es.EX (V/m) @ t=0.34
-6.999206460747111
% es.EY (V/m) @ t=0.34
-0.7554969711838235
% es.EZ (V/m) @ t=0.34
9.37187995397071
% es.tEX (V/m) @ t=0.34
-6.999206460747125
% es.tEY (V/m) @ t=0.34
0
% es.tEZ (V/m) @ t=0.34
9.371879953970694
% es.Ex (V/m) @ t=0.34
-6.999206460747111
% es.Ey (V/m) @ t=0.34
-0.7554969711838235
% es.Ez (V/m) @ t=0.34
9.37187995397071
% es.tEx (V/m) @ t=0.34
-6.999206460747125
% es.tEy (V/m) @ t=0.34
0
% es.tEz (V/m) @ t=0.34
9.371879953970694
% V (V) @ t=0.34
0.010345158858315127
% es.normE (V/m) @ t=0.36
12.781924234522439
% es.EX (V/m) @ t=0.36
-7.1021612139479
% es.EY (V/m) @ t=0.36
-0.766609720752176
% es.EZ (V/m) @ t=0.36
9.509735048138175
% es.tEX (V/m) @ t=0.36
-7.1021612139479195
% es.tEY (V/m) @ t=0.36
0
% es.tEZ (V/m) @ t=0.36
9.509735048138154
% es.Ex (V/m) @ t=0.36
-7.1021612139479
% es.Ey (V/m) @ t=0.36
-0.766609720752176
% es.Ez (V/m) @ t=0.36
9.509735048138175
% es.tEx (V/m) @ t=0.36
-7.1021612139479195
% es.tEy (V/m) @ t=0.36
0
% es.tEz (V/m) @ t=0.36
9.509735048138154
% V (V) @ t=0.36
0.010497329900801764
% es.normE (V/m) @ t=0.38
12.967213805482452
% es.EX (V/m) @ t=0.38
-7.20511596714868
% es.EY (V/m) @ t=0.38
-0.7777224703205212
% es.EZ (V/m) @ t=0.38
9.647590142305686
% es.tEX (V/m) @ t=0.38
-7.205115967148679
% es.tEY (V/m) @ t=0.38
0
% es.tEZ (V/m) @ t=0.38
9.647590142305674
% es.Ex (V/m) @ t=0.38
-7.20511596714868
% es.Ey (V/m) @ t=0.38
-0.7777224703205212
% es.Ez (V/m) @ t=0.38
9.647590142305686
% es.tEx (V/m) @ t=0.38
-7.205115967148679
% es.tEy (V/m) @ t=0.38
0
% es.tEz (V/m) @ t=0.38
9.647590142305674
% V (V) @ t=0.38
0.010649500943288403
% es.normE (V/m) @ t=0.4
13.152503376442464
% es.EX (V/m) @ t=0.4
-7.308070720349454
% es.EY (V/m) @ t=0.4
-0.7888352198888384
% es.EZ (V/m) @ t=0.4
9.785445236473175
% es.tEX (V/m) @ t=0.4
-7.308070720349466
% es.tEY (V/m) @ t=0.4
0
% es.tEZ (V/m) @ t=0.4
9.785445236473162
% es.Ex (V/m) @ t=0.4
-7.308070720349454
% es.Ey (V/m) @ t=0.4
-0.7888352198888384
% es.Ez (V/m) @ t=0.4
9.785445236473175
% es.tEx (V/m) @ t=0.4
-7.308070720349466
% es.tEy (V/m) @ t=0.4
0
% es.tEz (V/m) @ t=0.4
9.785445236473162
% V (V) @ t=0.4
0.010801671985775044
% es.normE (V/m) @ t=0.42
13.345569874388492
% es.EX (V/m) @ t=0.42
-7.415346834204337
% es.EY (V/m) @ t=0.42
-0.8004142695401479
% es.EZ (V/m) @ t=0.42
9.929086283076579
% es.tEX (V/m) @ t=0.42
-7.41534683420435
% es.tEY (V/m) @ t=0.42
0
% es.tEZ (V/m) @ t=0.42
9.929086283076568
% es.Ex (V/m) @ t=0.42
-7.415346834204337
% es.Ey (V/m) @ t=0.42
-0.8004142695401479
% es.Ez (V/m) @ t=0.42
9.929086283076579
% es.tEx (V/m) @ t=0.42
-7.41534683420435
% es.tEy (V/m) @ t=0.42
0
% es.tEz (V/m) @ t=0.42
9.929086283076568
% V (V) @ t=0.42
0.010960229567093565
% es.normE (V/m) @ t=0.44
13.547250837007581
% es.EX (V/m) @ t=0.44
-7.527409698502055
% es.EY (V/m) @ t=0.44
-0.8125098375539324
% es.EZ (V/m) @ t=0.44
10.079136401405666
% es.tEX (V/m) @ t=0.44
-7.52740969850206
% es.tEY (V/m) @ t=0.44
0
% es.tEZ (V/m) @ t=0.44
10.079136401405648
% es.Ex (V/m) @ t=0.44
-7.527409698502055
% es.Ey (V/m) @ t=0.44
-0.8125098375539324
% es.Ez (V/m) @ t=0.44
10.079136401405666
% es.tEx (V/m) @ t=0.44
-7.52740969850206
% es.tEy (V/m) @ t=0.44
0
% es.tEz (V/m) @ t=0.44
10.079136401405648
% V (V) @ t=0.44
0.01112586148680426
% es.normE (V/m) @ t=0.46
13.748931799626739
% es.EX (V/m) @ t=0.46
-7.639472562799758
% es.EY (V/m) @ t=0.46
-0.8246054055677239
% es.EZ (V/m) @ t=0.46
10.229186519734776
% es.tEX (V/m) @ t=0.46
-7.639472562799771
% es.tEY (V/m) @ t=0.46
0
% es.tEZ (V/m) @ t=0.46
10.229186519734762
% es.Ex (V/m) @ t=0.46
-7.639472562799758
% es.Ey (V/m) @ t=0.46
-0.8246054055677239
% es.Ez (V/m) @ t=0.46
10.229186519734776
% es.tEx (V/m) @ t=0.46
-7.639472562799771
% es.tEy (V/m) @ t=0.46
0
% es.tEz (V/m) @ t=0.46
10.229186519734762
% V (V) @ t=0.46
0.01129149340651496
% es.normE (V/m) @ t=0.48
13.950612762245914
% es.EX (V/m) @ t=0.48
-7.751535427097432
% es.EY (V/m) @ t=0.48
-0.8367009735815123
% es.EZ (V/m) @ t=0.48
10.379236638063874
% es.tEX (V/m) @ t=0.48
-7.751535427097446
% es.tEY (V/m) @ t=0.48
0
% es.tEZ (V/m) @ t=0.48
10.379236638063862
% es.Ex (V/m) @ t=0.48
-7.751535427097432
% es.Ey (V/m) @ t=0.48
-0.8367009735815123
% es.Ez (V/m) @ t=0.48
10.379236638063874
% es.tEx (V/m) @ t=0.48
-7.751535427097446
% es.tEy (V/m) @ t=0.48
0
% es.tEz (V/m) @ t=0.48
10.379236638063862
% V (V) @ t=0.48
0.011457125326225658
% es.normE (V/m) @ t=0.5
14.152293724865174
% es.EX (V/m) @ t=0.5
-7.863598291395149
% es.EY (V/m) @ t=0.5
-0.8487965415952794
% es.EZ (V/m) @ t=0.5
10.529286756392983
% es.tEX (V/m) @ t=0.5
-7.86359829139519
% es.tEY (V/m) @ t=0.5
0
% es.tEZ (V/m) @ t=0.5
10.529286756392967
% es.Ex (V/m) @ t=0.5
-7.863598291395149
% es.Ey (V/m) @ t=0.5
-0.8487965415952794
% es.Ez (V/m) @ t=0.5
10.529286756392983
% es.tEx (V/m) @ t=0.5
-7.86359829139519
% es.tEy (V/m) @ t=0.5
0
% es.tEz (V/m) @ t=0.5
10.529286756392967
% V (V) @ t=0.5
0.011622757245936354
% es.normE (V/m) @ t=0.52
14.353974687484454
% es.EX (V/m) @ t=0.52
-7.975661155692851
% es.EY (V/m) @ t=0.52
-0.8608921096090749
% es.EZ (V/m) @ t=0.52
10.679336874722054
% es.tEX (V/m) @ t=0.52
-7.975661155692871
% es.tEY (V/m) @ t=0.52
0
% es.tEZ (V/m) @ t=0.52
10.679336874722047
% es.Ex (V/m) @ t=0.52
-7.975661155692851
% es.Ey (V/m) @ t=0.52
-0.8608921096090749
% es.Ez (V/m) @ t=0.52
10.679336874722054
% es.tEx (V/m) @ t=0.52
-7.975661155692871
% es.tEy (V/m) @ t=0.52
0
% es.tEz (V/m) @ t=0.52
10.679336874722047
% V (V) @ t=0.52
0.011788389165647051
% es.normE (V/m) @ t=0.54
14.555655650103834
% es.EX (V/m) @ t=0.54
-8.087724019990569
% es.EY (V/m) @ t=0.54
-0.8729876776228838
% es.EZ (V/m) @ t=0.54
10.829386993051175
% es.tEX (V/m) @ t=0.54
-8.087724019990588
% es.tEY (V/m) @ t=0.54
0
% es.tEZ (V/m) @ t=0.54
10.829386993051166
% es.Ex (V/m) @ t=0.54
-8.087724019990569
% es.Ey (V/m) @ t=0.54
-0.8729876776228838
% es.Ez (V/m) @ t=0.54
10.829386993051175
% es.tEx (V/m) @ t=0.54
-8.087724019990588
% es.tEy (V/m) @ t=0.54
0
% es.tEz (V/m) @ t=0.54
10.829386993051166
% V (V) @ t=0.54
0.011954021085357747
% es.normE (V/m) @ t=0.56
14.762152155651929
% es.EX (V/m) @ t=0.56
-8.202462434260006
% es.EY (V/m) @ t=0.56
-0.885372179497252
% es.EZ (V/m) @ t=0.56
10.983019933321172
% es.tEX (V/m) @ t=0.56
-8.202462434260013
% es.tEY (V/m) @ t=0.56
0
% es.tEZ (V/m) @ t=0.56
10.983019933321156
% es.Ex (V/m) @ t=0.56
-8.202462434260006
% es.Ey (V/m) @ t=0.56
-0.885372179497252
% es.Ez (V/m) @ t=0.56
10.983019933321172
% es.tEx (V/m) @ t=0.56
-8.202462434260013
% es.tEy (V/m) @ t=0.56
0
% es.tEz (V/m) @ t=0.56
10.983019933321156
% V (V) @ t=0.56
0.012123608167217133
% es.normE (V/m) @ t=0.58
14.97306277975185
% es.EX (V/m) @ t=0.58
-8.31965336425639
% es.EY (V/m) @ t=0.58
-0.8980215296625214
% es.EZ (V/m) @ t=0.58
11.1399370309606
% es.tEX (V/m) @ t=0.58
-8.319653364256402
% es.tEY (V/m) @ t=0.58
0
% es.tEZ (V/m) @ t=0.58
11.139937030960585
% es.Ex (V/m) @ t=0.58
-8.31965336425639
% es.Ey (V/m) @ t=0.58
-0.8980215296625214
% es.Ez (V/m) @ t=0.58
11.1399370309606
% es.tEx (V/m) @ t=0.58
-8.319653364256402
% es.tEy (V/m) @ t=0.58
0
% es.tEz (V/m) @ t=0.58
11.139937030960585
% V (V) @ t=0.58
0.012296820708318477
% es.normE (V/m) @ t=0.6
15.185999586676946
% es.EX (V/m) @ t=0.6
-8.437970055871116
% es.EY (V/m) @ t=0.6
-0.9107924513379069
% es.EZ (V/m) @ t=0.6
11.298361633026772
% es.tEX (V/m) @ t=0.6
-8.437970055871135
% es.tEY (V/m) @ t=0.6
0
% es.tEZ (V/m) @ t=0.6
11.298361633026765
% es.Ex (V/m) @ t=0.6
-8.437970055871116
% es.Ey (V/m) @ t=0.6
-0.9107924513379069
% es.Ez (V/m) @ t=0.6
11.298361633026772
% es.tEx (V/m) @ t=0.6
-8.437970055871135
% es.tEy (V/m) @ t=0.6
0
% es.tEz (V/m) @ t=0.6
11.298361633026765
% V (V) @ t=0.6
0.012471697419324461
% es.normE (V/m) @ t=0.62
15.40096257642723
% es.EX (V/m) @ t=0.62
-8.55741250910418
% es.EY (V/m) @ t=0.62
-0.9236849445234077
% es.EZ (V/m) @ t=0.62
11.458293739519743
% es.tEX (V/m) @ t=0.62
-8.557412509104186
% es.tEY (V/m) @ t=0.62
0
% es.tEZ (V/m) @ t=0.62
11.45829373951973
% es.Ex (V/m) @ t=0.62
-8.55741250910418
% es.Ey (V/m) @ t=0.62
-0.9236849445234077
% es.Ez (V/m) @ t=0.62
11.458293739519743
% es.tEx (V/m) @ t=0.62
-8.557412509104186
% es.tEy (V/m) @ t=0.62
0
% es.tEz (V/m) @ t=0.62
11.45829373951973
% V (V) @ t=0.62
0.012648238300235086
% es.normE (V/m) @ t=0.64
15.617951749002685
% es.EX (V/m) @ t=0.64
-8.677980723955601
% es.EY (V/m) @ t=0.64
-0.936699009219085
% es.EZ (V/m) @ t=0.64
11.619733350439457
% es.tEX (V/m) @ t=0.64
-8.677980723955606
% es.tEY (V/m) @ t=0.64
0
% es.tEZ (V/m) @ t=0.64
11.619733350439443
% es.Ex (V/m) @ t=0.64
-8.677980723955601
% es.Ey (V/m) @ t=0.64
-0.936699009219085
% es.Ez (V/m) @ t=0.64
11.619733350439457
% es.tEx (V/m) @ t=0.64
-8.677980723955606
% es.tEy (V/m) @ t=0.64
0
% es.tEz (V/m) @ t=0.64
11.619733350439443
% V (V) @ t=0.64
0.012826443351050352
% es.normE (V/m) @ t=0.66
15.836967104403339
% es.EX (V/m) @ t=0.66
-8.799674700425333
% es.EY (V/m) @ t=0.66
-0.949834645424906
% es.EZ (V/m) @ t=0.66
11.782680465785994
% es.tEX (V/m) @ t=0.66
-8.799674700425346
% es.tEY (V/m) @ t=0.66
0
% es.tEZ (V/m) @ t=0.66
11.78268046578598
% es.Ex (V/m) @ t=0.66
-8.799674700425333
% es.Ey (V/m) @ t=0.66
-0.949834645424906
% es.Ez (V/m) @ t=0.66
11.782680465785994
% es.tEx (V/m) @ t=0.66
-8.799674700425346
% es.tEy (V/m) @ t=0.66
0
% es.tEz (V/m) @ t=0.66
11.78268046578598
% V (V) @ t=0.66
0.013006312571770257
% es.normE (V/m) @ t=0.68
16.058008642629115
% es.EX (V/m) @ t=0.68
-8.92249443851343
% es.EY (V/m) @ t=0.68
-0.9630918531407935
% es.EZ (V/m) @ t=0.68
11.947135085559221
% es.tEX (V/m) @ t=0.68
-8.922494438513443
% es.tEY (V/m) @ t=0.68
0
% es.tEZ (V/m) @ t=0.68
11.947135085559207
% es.Ex (V/m) @ t=0.68
-8.92249443851343
% es.Ey (V/m) @ t=0.68
-0.9630918531407935
% es.Ez (V/m) @ t=0.68
11.947135085559221
% es.tEx (V/m) @ t=0.68
-8.922494438513443
% es.tEy (V/m) @ t=0.68
0
% es.tEz (V/m) @ t=0.68
11.947135085559207
% V (V) @ t=0.68
0.013187845962394801
% es.normE (V/m) @ t=0.7
16.281076363680075
% es.EX (V/m) @ t=0.7
-9.046439938219832
% es.EY (V/m) @ t=0.7
-0.9764706323668748
% es.EZ (V/m) @ t=0.7
12.113097209759244
% es.tEX (V/m) @ t=0.7
-9.046439938219866
% es.tEY (V/m) @ t=0.7
0
% es.tEZ (V/m) @ t=0.7
12.113097209759228
% es.Ex (V/m) @ t=0.7
-9.046439938219832
% es.Ey (V/m) @ t=0.7
-0.9764706323668748
% es.Ez (V/m) @ t=0.7
12.113097209759244
% es.tEx (V/m) @ t=0.7
-9.046439938219866
% es.tEy (V/m) @ t=0.7
0
% es.tEz (V/m) @ t=0.7
12.113097209759228
% V (V) @ t=0.7
0.013371043522923984
% es.normE (V/m) @ t=0.72
16.506170267556257
% es.EX (V/m) @ t=0.72
-9.171511199544621
% es.EY (V/m) @ t=0.72
-0.9899709831030679
% es.EZ (V/m) @ t=0.72
12.28056683838605
% es.tEX (V/m) @ t=0.72
-9.171511199544634
% es.tEY (V/m) @ t=0.72
0
% es.tEZ (V/m) @ t=0.72
12.28056683838605
% es.Ex (V/m) @ t=0.72
-9.171511199544621
% es.Ey (V/m) @ t=0.72
-0.9899709831030679
% es.Ez (V/m) @ t=0.72
12.28056683838605
% es.tEx (V/m) @ t=0.72
-9.171511199544634
% es.tEy (V/m) @ t=0.72
0
% es.tEz (V/m) @ t=0.72
12.28056683838605
% V (V) @ t=0.72
0.013555905253357807
% es.normE (V/m) @ t=0.74
16.733290354257576
% es.EX (V/m) @ t=0.74
-9.29770822248773
% es.EY (V/m) @ t=0.74
-1.0035929053494197
% es.EZ (V/m) @ t=0.74
12.449543971439597
% es.tEX (V/m) @ t=0.74
-9.29770822248775
% es.tEY (V/m) @ t=0.74
0
% es.tEZ (V/m) @ t=0.74
12.449543971439581
% es.Ex (V/m) @ t=0.74
-9.29770822248773
% es.Ey (V/m) @ t=0.74
-1.0035929053494197
% es.Ez (V/m) @ t=0.74
12.449543971439597
% es.tEx (V/m) @ t=0.74
-9.29770822248775
% es.tEy (V/m) @ t=0.74
0
% es.tEz (V/m) @ t=0.74
12.449543971439581
% V (V) @ t=0.74
0.013742431153696274
% es.normE (V/m) @ t=0.76
16.962436623784065
% es.EX (V/m) @ t=0.76
-9.425031007049181
% es.EY (V/m) @ t=0.76
-1.0173363991058553
% es.EZ (V/m) @ t=0.76
12.620028608919885
% es.tEX (V/m) @ t=0.76
-9.425031007049201
% es.tEY (V/m) @ t=0.76
0
% es.tEZ (V/m) @ t=0.76
12.620028608919885
% es.Ex (V/m) @ t=0.76
-9.425031007049181
% es.Ey (V/m) @ t=0.76
-1.0173363991058553
% es.Ez (V/m) @ t=0.76
12.620028608919885
% es.tEx (V/m) @ t=0.76
-9.425031007049201
% es.tEy (V/m) @ t=0.76
0
% es.tEz (V/m) @ t=0.76
12.620028608919885
% V (V) @ t=0.76
0.013930621223939375
% es.normE (V/m) @ t=0.78
17.1936090761358
% es.EX (V/m) @ t=0.78
-9.553479553228986
% es.EY (V/m) @ t=0.78
-1.0312014643724492
% es.EZ (V/m) @ t=0.78
12.79202075082697
% es.tEX (V/m) @ t=0.78
-9.553479553229012
% es.tEY (V/m) @ t=0.78
0
% es.tEZ (V/m) @ t=0.78
12.79202075082695
% es.Ex (V/m) @ t=0.78
-9.553479553228986
% es.Ey (V/m) @ t=0.78
-1.0312014643724492
% es.Ez (V/m) @ t=0.78
12.79202075082697
% es.tEx (V/m) @ t=0.78
-9.553479553229012
% es.tEy (V/m) @ t=0.78
0
% es.tEz (V/m) @ t=0.78
12.79202075082695
% V (V) @ t=0.78
0.014120475464087118
% es.normE (V/m) @ t=0.8
17.42680771131269
% es.EX (V/m) @ t=0.8
-9.683053861027105
% es.EY (V/m) @ t=0.8
-1.045188101149166
% es.EZ (V/m) @ t=0.8
12.965520397160795
% es.tEX (V/m) @ t=0.8
-9.683053861027116
% es.tEY (V/m) @ t=0.8
0
% es.tEZ (V/m) @ t=0.8
12.965520397160779
% es.Ex (V/m) @ t=0.8
-9.683053861027105
% es.Ey (V/m) @ t=0.8
-1.045188101149166
% es.Ez (V/m) @ t=0.8
12.965520397160795
% es.tEx (V/m) @ t=0.8
-9.683053861027116
% es.tEy (V/m) @ t=0.8
0
% es.tEz (V/m) @ t=0.8
12.965520397160779
% V (V) @ t=0.8
0.014311993874139502
% es.normE (V/m) @ t=0.82
17.662032529314896
% es.EX (V/m) @ t=0.82
-9.813753930443573
% es.EY (V/m) @ t=0.82
-1.05929630943603
% es.EZ (V/m) @ t=0.82
13.140527547921488
% es.tEX (V/m) @ t=0.82
-9.813753930443585
% es.tEY (V/m) @ t=0.82
0
% es.tEZ (V/m) @ t=0.82
13.140527547921467
% es.Ex (V/m) @ t=0.82
-9.813753930443573
% es.Ey (V/m) @ t=0.82
-1.05929630943603
% es.Ez (V/m) @ t=0.82
13.140527547921488
% es.tEx (V/m) @ t=0.82
-9.813753930443585
% es.tEy (V/m) @ t=0.82
0
% es.tEz (V/m) @ t=0.82
13.140527547921467
% V (V) @ t=0.82
0.014505176454096526
% es.normE (V/m) @ t=0.84
17.903308391312294
% es.EX (V/m) @ t=0.84
-9.94781643472062
% es.EY (V/m) @ t=0.84
-1.073767274398298
% es.EZ (V/m) @ t=0.84
13.32003657759151
% es.tEX (V/m) @ t=0.84
-9.947816434720625
% es.tEY (V/m) @ t=0.84
0
% es.tEZ (V/m) @ t=0.84
13.3200365775915
% es.Ex (V/m) @ t=0.84
-9.94781643472062
% es.Ey (V/m) @ t=0.84
-1.073767274398298
% es.Ez (V/m) @ t=0.84
13.32003657759151
% es.tEx (V/m) @ t=0.84
-9.947816434720625
% es.tEy (V/m) @ t=0.84
0
% es.tEz (V/m) @ t=0.84
13.3200365775915
% V (V) @ t=0.84
0.014703328076821641
% es.normE (V/m) @ t=0.86
18.147344632998994
% es.EX (V/m) @ t=0.86
-10.08341270437339
% es.EY (V/m) @ t=0.86
-1.0884038067712898
% es.EZ (V/m) @ t=0.86
13.501599331858984
% es.tEX (V/m) @ t=0.86
-10.083412704373417
% es.tEY (V/m) @ t=0.86
0
% es.tEZ (V/m) @ t=0.86
13.501599331858968
% es.Ex (V/m) @ t=0.86
-10.08341270437339
% es.Ey (V/m) @ t=0.86
-1.0884038067712898
% es.Ez (V/m) @ t=0.86
13.501599331858984
% es.tEx (V/m) @ t=0.86
-10.083412704373417
% es.tEy (V/m) @ t=0.86
0
% es.tEz (V/m) @ t=0.86
13.501599331858968
% V (V) @ t=0.86
0.014903746729324072
% es.normE (V/m) @ t=0.88
18.393980615495426
% es.EX (V/m) @ t=0.88
-10.22045347006606
% es.EY (V/m) @ t=0.88
-1.1031962804554083
% es.EZ (V/m) @ t=0.88
13.685096300275772
% es.tEX (V/m) @ t=0.88
-10.220453470066087
% es.tEY (V/m) @ t=0.88
0
% es.tEZ (V/m) @ t=0.88
13.685096300275754
% es.Ex (V/m) @ t=0.88
-10.22045347006606
% es.Ey (V/m) @ t=0.88
-1.1031962804554083
% es.Ez (V/m) @ t=0.88
13.685096300275772
% es.tEx (V/m) @ t=0.88
-10.220453470066087
% es.tEy (V/m) @ t=0.88
0
% es.tEz (V/m) @ t=0.88
13.685096300275754
% V (V) @ t=0.88
0.015106300508650788
% es.normE (V/m) @ t=0.9
18.643216338801608
% es.EX (V/m) @ t=0.9
-10.358938731798613
% es.EY (V/m) @ t=0.9
-1.118144695450595
% es.EZ (V/m) @ t=0.9
13.8705274828419
% es.tEX (V/m) @ t=0.9
-10.358938731798625
% es.tEY (V/m) @ t=0.9
0
% es.tEZ (V/m) @ t=0.9
13.87052748284188
% es.Ex (V/m) @ t=0.9
-10.358938731798613
% es.Ey (V/m) @ t=0.9
-1.118144695450595
% es.Ez (V/m) @ t=0.9
13.8705274828419
% es.tEx (V/m) @ t=0.9
-10.358938731798625
% es.tEy (V/m) @ t=0.9
0
% es.tEz (V/m) @ t=0.9
13.87052748284188
% V (V) @ t=0.9
0.01531098941480179
% es.normE (V/m) @ t=0.92
18.89505180291745
% es.EX (V/m) @ t=0.92
-10.49886848957104
% es.EY (V/m) @ t=0.92
-1.1332490517568288
% es.EZ (V/m) @ t=0.92
14.057892879557295
% es.tEX (V/m) @ t=0.92
-10.498868489571052
% es.tEY (V/m) @ t=0.92
0
% es.tEZ (V/m) @ t=0.92
14.057892879557274
% es.Ex (V/m) @ t=0.92
-10.49886848957104
% es.Ey (V/m) @ t=0.92
-1.1332490517568288
% es.Ez (V/m) @ t=0.92
14.057892879557295
% es.tEx (V/m) @ t=0.92
-10.498868489571052
% es.tEy (V/m) @ t=0.92
0
% es.tEz (V/m) @ t=0.92
14.057892879557274
% V (V) @ t=0.92
0.015517813447777076
% es.normE (V/m) @ t=0.94
19.149487007843106
% es.EX (V/m) @ t=0.94
-10.640242743383384
% es.EY (V/m) @ t=0.94
-1.1485093493742027
% es.EZ (V/m) @ t=0.94
14.247192490422037
% es.tEX (V/m) @ t=0.94
-10.64024274338341
% es.tEY (V/m) @ t=0.94
0
% es.tEZ (V/m) @ t=0.94
14.247192490422016
% es.Ex (V/m) @ t=0.94
-10.640242743383384
% es.Ey (V/m) @ t=0.94
-1.1485093493742027
% es.Ez (V/m) @ t=0.94
14.247192490422037
% es.tEx (V/m) @ t=0.94
-10.64024274338341
% es.tEy (V/m) @ t=0.94
0
% es.tEz (V/m) @ t=0.94
14.247192490422016
% V (V) @ t=0.94
0.01572677260757665
% es.normE (V/m) @ t=0.96
19.406521953578462
% es.EX (V/m) @ t=0.96
-10.783061493235577
% es.EY (V/m) @ t=0.96
-1.1639255883026878
% es.EZ (V/m) @ t=0.96
14.438426315436109
% es.tEX (V/m) @ t=0.96
-10.783061493235603
% es.tEY (V/m) @ t=0.96
0
% es.tEZ (V/m) @ t=0.96
14.438426315436097
% es.Ex (V/m) @ t=0.96
-10.783061493235577
% es.Ey (V/m) @ t=0.96
-1.1639255883026878
% es.Ez (V/m) @ t=0.96
14.438426315436109
% es.tEx (V/m) @ t=0.96
-10.783061493235603
% es.tEy (V/m) @ t=0.96
0
% es.tEz (V/m) @ t=0.96
14.438426315436097
% V (V) @ t=0.96
0.0159378668942005
% es.normE (V/m) @ t=0.98
19.66615664012353
% es.EX (V/m) @ t=0.98
-10.927324739127638
% es.EY (V/m) @ t=0.98
-1.1794977685422063
% es.EZ (V/m) @ t=0.98
14.631594354599452
% es.tEX (V/m) @ t=0.98
-10.927324739127657
% es.tEY (V/m) @ t=0.98
0
% es.tEZ (V/m) @ t=0.98
14.631594354599422
% es.Ex (V/m) @ t=0.98
-10.927324739127638
% es.Ey (V/m) @ t=0.98
-1.1794977685422063
% es.Ez (V/m) @ t=0.98
14.631594354599452
% es.tEx (V/m) @ t=0.98
-10.927324739127657
% es.tEy (V/m) @ t=0.98
0
% es.tEz (V/m) @ t=0.98
14.631594354599422
% V (V) @ t=0.98
0.016151096307648643
% es.normE (V/m) @ t=1
19.9283910674784
% es.EX (V/m) @ t=1
-11.073032481059672
% es.EY (V/m) @ t=1
-1.1952258900928427
% es.EZ (V/m) @ t=1
14.826696607912183
% es.tEX (V/m) @ t=1
-11.073032481059677
% es.tEY (V/m) @ t=1
0
% es.tEZ (V/m) @ t=1
14.826696607912165
% es.Ex (V/m) @ t=1
-11.073032481059672
% es.Ey (V/m) @ t=1
-1.1952258900928427
% es.Ez (V/m) @ t=1
14.826696607912183
% es.tEx (V/m) @ t=1
-11.073032481059677
% es.tEy (V/m) @ t=1
0
% es.tEz (V/m) @ t=1
14.826696607912165
% V (V) @ t=1
0.01636646084792107
% es.normE (V/m) @ t=1.02
20.19322523564297
% es.EX (V/m) @ t=1.02
-11.22018471903149
% es.EY (V/m) @ t=1.02
-1.211109952954578
% es.EZ (V/m) @ t=1.02
15.023733075374189
% es.tEX (V/m) @ t=1.02
-11.220184719031536
% es.tEY (V/m) @ t=1.02
0
% es.tEZ (V/m) @ t=1.02
15.023733075374167
% es.Ex (V/m) @ t=1.02
-11.22018471903149
% es.Ey (V/m) @ t=1.02
-1.211109952954578
% es.Ez (V/m) @ t=1.02
15.023733075374189
% es.tEx (V/m) @ t=1.02
-11.220184719031536
% es.tEy (V/m) @ t=1.02
0
% es.tEz (V/m) @ t=1.02
15.023733075374167
% V (V) @ t=1.02
0.016583960515017773
% es.normE (V/m) @ t=1.04
20.460659144617306
% es.EX (V/m) @ t=1.04
-11.368781453043253
% es.EY (V/m) @ t=1.04
-1.227149957127402
% es.EZ (V/m) @ t=1.04
15.222703756985497
% es.tEX (V/m) @ t=1.04
-11.368781453043272
% es.tEY (V/m) @ t=1.04
0
% es.tEZ (V/m) @ t=1.04
15.222703756985478
% es.Ex (V/m) @ t=1.04
-11.368781453043253
% es.Ey (V/m) @ t=1.04
-1.227149957127402
% es.Ez (V/m) @ t=1.04
15.222703756985497
% es.tEx (V/m) @ t=1.04
-11.368781453043272