% Model:              1 neuron.mph
% Version:            COMSOL 6.0.0.405
% Date:               Mar 16 2023, 19:21
% Dimension:          0
% Nodes:              14017
% Expressions:        14017
% Description:        Electric field norm, Electric field, X component, Electric field, Y component, Electric field, Z component, Tangential electric field, X component, Tangential electric field, Y component, Tangential electric field, Z component, Electric field, x component, Electric field, y component, Electric field, z component, Tangential electric field, x component, Tangential electric field, y component, Tangential electric field, z component, Electric potential
% Length unit:        mm
% x
1.0000000000000002
% y
12.2
% z
2
% es.normE (V/m) @ t=0
1.0607752826541454
% es.EX (V/m) @ t=0
0.7368236788075921
% es.EY (V/m) @ t=0
0.11032995966904974
% es.EZ (V/m) @ t=0
-0.735747142263278
% es.tEX (V/m) @ t=0
0.7368236788075944
% es.tEY (V/m) @ t=0
0
% es.tEZ (V/m) @ t=0
-0.7357471422632633
% es.Ex (V/m) @ t=0
0.7368236788075921
% es.Ey (V/m) @ t=0
0.11032995966904974
% es.Ez (V/m) @ t=0
-0.735747142263278
% es.tEx (V/m) @ t=0
0.7368236788075944
% es.tEy (V/m) @ t=0
0
% es.tEz (V/m) @ t=0
-0.7357471422632633
% V (V) @ t=0
0.011359542239040918
% es.normE (V/m) @ t=0.02
0.9212914360758029
% es.EX (V/m) @ t=0.02
0.6399369912314243
% es.EY (V/m) @ t=0.02
0.09582241378523948
% es.EZ (V/m) @ t=0.02
-0.639002015318969
% es.tEX (V/m) @ t=0.02
0.6399369912314259
% es.tEY (V/m) @ t=0.02
0
% es.tEZ (V/m) @ t=0.02
-0.6390020153189546
% es.Ex (V/m) @ t=0.02
0.6399369912314243
% es.Ey (V/m) @ t=0.02
0.09582241378523948
% es.Ez (V/m) @ t=0.02
-0.639002015318969
% es.tEx (V/m) @ t=0.02
0.6399369912314259
% es.tEy (V/m) @ t=0.02
0
% es.tEz (V/m) @ t=0.02
-0.6390020153189546
% V (V) @ t=0.02
0.009865848998186239
% es.normE (V/m) @ t=0.04
0.9349517853871674
% es.EX (V/m) @ t=0.04
0.6494255785235612
% es.EY (V/m) @ t=0.04
0.09724321447504253
% es.EZ (V/m) @ t=0.04
-0.6484767569269412
% es.tEX (V/m) @ t=0.04
0.6494255785235667
% es.tEY (V/m) @ t=0.04
0
% es.tEZ (V/m) @ t=0.04
-0.6484767569269301
% es.Ex (V/m) @ t=0.04
0.6494255785235612
% es.Ey (V/m) @ t=0.04
0.09724321447504253
% es.Ez (V/m) @ t=0.04
-0.6484767569269412
% es.tEx (V/m) @ t=0.04
0.6494255785235667
% es.tEy (V/m) @ t=0.04
0
% es.tEz (V/m) @ t=0.04
-0.6484767569269301
% V (V) @ t=0.04
0.010012132947226306
% es.normE (V/m) @ t=0.06
0.9488187864155788
% es.EX (V/m) @ t=0.06
0.6590576828383548
% es.EY (V/m) @ t=0.06
0.09868551986371155
% es.EZ (V/m) @ t=0.06
-0.6580948528878399
% es.tEX (V/m) @ t=0.06
0.6590576828383563
% es.tEY (V/m) @ t=0.06
0
% es.tEZ (V/m) @ t=0.06
-0.6580948528878254
% es.Ex (V/m) @ t=0.06
0.6590576828383548
% es.Ey (V/m) @ t=0.06
0.09868551986371155
% es.Ez (V/m) @ t=0.06
-0.6580948528878399
% es.tEx (V/m) @ t=0.06
0.6590576828383563
% es.tEy (V/m) @ t=0.06
0
% es.tEz (V/m) @ t=0.06
-0.6580948528878254
% V (V) @ t=0.06
0.010160627579019279
% es.normE (V/m) @ t=0.08
0.963035417077615
% es.EX (V/m) @ t=0.08
0.6689326879571433
% es.EY (V/m) @ t=0.08
0.10016416994674582
% es.EZ (V/m) @ t=0.08
-0.6679554101765517
% es.tEX (V/m) @ t=0.08
0.6689326879571467
% es.tEY (V/m) @ t=0.08
0
% es.tEZ (V/m) @ t=0.08
-0.6679554101765408
% es.Ex (V/m) @ t=0.08
0.6689326879571433
% es.Ey (V/m) @ t=0.08
0.10016416994674582
% es.Ez (V/m) @ t=0.08
-0.6679554101765517
% es.tEx (V/m) @ t=0.08
0.6689326879571467
% es.tEy (V/m) @ t=0.08
0
% es.tEz (V/m) @ t=0.08
-0.6679554101765408
% V (V) @ t=0.08
0.01031287040487071
% es.normE (V/m) @ t=0.1
0.9775050904638352
% es.EX (V/m) @ t=0.1
0.6789834913356925
% es.EY (V/m) @ t=0.1
0.1016691243232572
% es.EZ (V/m) @ t=0.1
-0.6779914476562741
% es.tEX (V/m) @ t=0.1
0.6789834913356954
% es.tEY (V/m) @ t=0.1
0
% es.tEZ (V/m) @ t=0.1
-0.6779914476562667
% es.Ex (V/m) @ t=0.1
0.6789834913356925
% es.Ey (V/m) @ t=0.1
0.1016691243232572
% es.Ez (V/m) @ t=0.1
-0.6779914476562741
% es.tEx (V/m) @ t=0.1
0.6789834913356954
% es.tEy (V/m) @ t=0.1
0
% es.tEz (V/m) @ t=0.1
-0.6779914476562667
% V (V) @ t=0.1
0.010467825967699037
% es.normE (V/m) @ t=0.12
0.9919747638500749
% es.EX (V/m) @ t=0.12
0.6890342947142452
% es.EY (V/m) @ t=0.12
0.10317407869975187
% es.EZ (V/m) @ t=0.12
-0.6880274851360231
% es.tEX (V/m) @ t=0.12
0.6890342947142485
% es.tEY (V/m) @ t=0.12
0
% es.tEZ (V/m) @ t=0.12
-0.6880274851360122
% es.Ex (V/m) @ t=0.12
0.6890342947142452
% es.Ey (V/m) @ t=0.12
0.10317407869975187
% es.Ez (V/m) @ t=0.12
-0.6880274851360231
% es.tEx (V/m) @ t=0.12
0.6890342947142485
% es.tEy (V/m) @ t=0.12
0
% es.tEz (V/m) @ t=0.12
-0.6880274851360122
% V (V) @ t=0.12
0.01062278153052736
% es.normE (V/m) @ t=0.14
1.0066659582323862
% es.EX (V/m) @ t=0.14
0.699238847971718
% es.EY (V/m) @ t=0.14
0.10470212541306084
% es.EZ (V/m) @ t=0.14
-0.6982172745650237
% es.tEX (V/m) @ t=0.14
0.6992388479717229
% es.tEY (V/m) @ t=0.14
0
% es.tEZ (V/m) @ t=0.14
-0.6982172745650126
% es.Ex (V/m) @ t=0.14
0.699238847971718
% es.Ey (V/m) @ t=0.14
0.10470212541306084
% es.Ez (V/m) @ t=0.14
-0.6982172745650237
% es.tEx (V/m) @ t=0.14
0.6992388479717229
% es.tEy (V/m) @ t=0.14
0
% es.tEz (V/m) @ t=0.14
-0.6982172745650126
% V (V) @ t=0.14
0.010780098415983137
% es.normE (V/m) @ t=0.16
1.0224367503419733
% es.EX (V/m) @ t=0.16
0.7101927117808831
% es.EY (V/m) @ t=0.16
0.10634271420934976
% es.EZ (V/m) @ t=0.16
-0.7091563846356155
% es.tEX (V/m) @ t=0.16
0.710192711780882
% es.tEY (V/m) @ t=0.16
0
% es.tEZ (V/m) @ t=0.16
-0.7091563846356044
% es.Ex (V/m) @ t=0.16
0.7101927117808831
% es.Ey (V/m) @ t=0.16
0.10634271420934976
% es.Ez (V/m) @ t=0.16
-0.7091563846356155
% es.tEx (V/m) @ t=0.16
0.710192711780882
% es.tEy (V/m) @ t=0.16
0
% es.tEz (V/m) @ t=0.16
-0.7091563846356044
% V (V) @ t=0.16
0.010948923368781992
% es.normE (V/m) @ t=0.18
1.0382075424523975
% es.EX (V/m) @ t=0.18
0.7211465755900319
% es.EY (V/m) @ t=0.18
0.10798330300562337
% es.EZ (V/m) @ t=0.18
-0.7200954947062113
% es.tEX (V/m) @ t=0.18
0.7211465755900326
% es.tEY (V/m) @ t=0.18
0
% es.tEZ (V/m) @ t=0.18
-0.7200954947062037
% es.Ex (V/m) @ t=0.18
0.7211465755900319
% es.Ey (V/m) @ t=0.18
0.10798330300562337
% es.Ez (V/m) @ t=0.18
-0.7200954947062113
% es.tEx (V/m) @ t=0.18
0.7211465755900326
% es.tEy (V/m) @ t=0.18
0
% es.tEz (V/m) @ t=0.18
-0.7200954947062037
% V (V) @ t=0.18
0.011117748321580847
% es.normE (V/m) @ t=0.2
1.0539783345636475
% es.EX (V/m) @ t=0.2
0.7321004393991986
% es.EY (V/m) @ t=0.2
0.10962389180190696
% es.EZ (V/m) @ t=0.2
-0.7310346047768248
% es.tEX (V/m) @ t=0.2
0.7321004393991974
% es.tEY (V/m) @ t=0.2
0
% es.tEZ (V/m) @ t=0.2
-0.7310346047768101
% es.Ex (V/m) @ t=0.2
0.7321004393991986
% es.Ey (V/m) @ t=0.2
0.10962389180190696
% es.Ez (V/m) @ t=0.2
-0.7310346047768248
% es.tEx (V/m) @ t=0.2
0.7321004393991974
% es.tEy (V/m) @ t=0.2
0
% es.tEz (V/m) @ t=0.2
-0.7310346047768101
% V (V) @ t=0.2
0.011286573274379704
% es.normE (V/m) @ t=0.22
1.0697491266756436
% es.EX (V/m) @ t=0.22
0.7430543032083514
% es.EY (V/m) @ t=0.22
0.11126448059819588
% es.EZ (V/m) @ t=0.22
-0.741973714847413
% es.tEX (V/m) @ t=0.22
0.7430543032083539
% es.tEY (V/m) @ t=0.22
0
% es.tEZ (V/m) @ t=0.22
-0.7419737148473953
% es.Ex (V/m) @ t=0.22
0.7430543032083514
% es.Ey (V/m) @ t=0.22
0.11126448059819588
% es.Ez (V/m) @ t=0.22
-0.741973714847413
% es.tEx (V/m) @ t=0.22
0.7430543032083539
% es.tEy (V/m) @ t=0.22
0
% es.tEz (V/m) @ t=0.22
-0.7419737148473953
% V (V) @ t=0.22
0.01145539822717856
% es.normE (V/m) @ t=0.24
1.0855199187883833
% es.EX (V/m) @ t=0.24
0.7540081670175043
% es.EY (V/m) @ t=0.24
0.11290506939446093
% es.EZ (V/m) @ t=0.24
-0.7529128249180217
% es.tEX (V/m) @ t=0.24
0.7540081670175085
% es.tEY (V/m) @ t=0.24
0
% es.tEZ (V/m) @ t=0.24
-0.7529128249180141
% es.Ex (V/m) @ t=0.24
0.7540081670175043
% es.Ey (V/m) @ t=0.24
0.11290506939446093
% es.Ez (V/m) @ t=0.24
-0.7529128249180217
% es.tEx (V/m) @ t=0.24
0.7540081670175085
% es.tEy (V/m) @ t=0.24
0
% es.tEz (V/m) @ t=0.24
-0.7529128249180141
% V (V) @ t=0.24
0.011624223179977413
% es.normE (V/m) @ t=0.26
1.101290710901824
% es.EX (V/m) @ t=0.26
0.7649620308266629
% es.EY (V/m) @ t=0.26
0.11454565819075235
% es.EZ (V/m) @ t=0.26
-0.7638519349886108
% es.tEX (V/m) @ t=0.26
0.7649620308266671
% es.tEY (V/m) @ t=0.26
0
% es.tEZ (V/m) @ t=0.26
-0.7638519349886002
% es.Ex (V/m) @ t=0.26
0.7649620308266629
% es.Ey (V/m) @ t=0.26
0.11454565819075235
% es.Ez (V/m) @ t=0.26
-0.7638519349886108
% es.tEx (V/m) @ t=0.26
0.7649620308266671
% es.tEy (V/m) @ t=0.26
0
% es.tEz (V/m) @ t=0.26
-0.7638519349886002
% V (V) @ t=0.26
0.01179304813277627
% es.normE (V/m) @ t=0.28
1.1175624009658458
% es.EX (V/m) @ t=0.28
0.7762649970744337
% es.EY (V/m) @ t=0.28
0.11623783605568033
% es.EZ (V/m) @ t=0.28
-0.7751374283365169
% es.tEX (V/m) @ t=0.28
0.7762649970744371
% es.tEY (V/m) @ t=0.28
0
% es.tEZ (V/m) @ t=0.28
-0.7751374283365022
% es.Ex (V/m) @ t=0.28
0.7762649970744337
% es.Ey (V/m) @ t=0.28
0.11623783605568033
% es.Ez (V/m) @ t=0.28
-0.7751374283365169
% es.tEx (V/m) @ t=0.28
0.7762649970744371
% es.tEy (V/m) @ t=0.28
0
% es.tEz (V/m) @ t=0.28
-0.7751374283365022
% V (V) @ t=0.28
0.011967343108773272
% es.normE (V/m) @ t=0.3
1.1347622951189504
% es.EX (V/m) @ t=0.3
0.7882148781435814
% es.EY (V/m) @ t=0.3
0.11802561260292321
% es.EZ (V/m) @ t=0.3
-0.7870647976818206
% es.tEX (V/m) @ t=0.3
0.7882148781435849
% es.tEY (V/m) @ t=0.3
0
% es.tEZ (V/m) @ t=0.3
-0.7870647976818059
% es.Ex (V/m) @ t=0.3
0.7882148781435814
% es.Ey (V/m) @ t=0.3
0.11802561260292321
% es.Ez (V/m) @ t=0.3
-0.7870647976818206
% es.tEx (V/m) @ t=0.3
0.7882148781435849
% es.tEy (V/m) @ t=0.3
0
% es.tEz (V/m) @ t=0.3
-0.7870647976818059
% V (V) @ t=0.3
0.012151774476524766
% es.normE (V/m) @ t=0.32
1.1519621892849587
% es.EX (V/m) @ t=0.32
0.8001647592127321
% es.EY (V/m) @ t=0.32
0.11981338915017098
% es.EZ (V/m) @ t=0.32
-0.7989921670270888
% es.tEX (V/m) @ t=0.32
0.8001647592127337
% es.tEY (V/m) @ t=0.32
0
% es.tEZ (V/m) @ t=0.32
-0.7989921670270741
% es.Ex (V/m) @ t=0.32
0.8001647592127321
% es.Ey (V/m) @ t=0.32
0.11981338915017098
% es.Ez (V/m) @ t=0.32
-0.7989921670270888
% es.tEx (V/m) @ t=0.32
0.8001647592127337
% es.tEy (V/m) @ t=0.32
0
% es.tEz (V/m) @ t=0.32
-0.7989921670270741
% V (V) @ t=0.32
0.012336205844276261
% es.normE (V/m) @ t=0.34
1.1691620834633372
% es.EX (V/m) @ t=0.34
0.812114640281884
% es.EY (V/m) @ t=0.34
0.12160116569741541
% es.EZ (V/m) @ t=0.34
-0.8109195363723889
% es.tEX (V/m) @ t=0.34
0.8121146402818855
% es.tEY (V/m) @ t=0.34
0
% es.tEZ (V/m) @ t=0.34
-0.8109195363723778
% es.Ex (V/m) @ t=0.34
0.812114640281884
% es.Ey (V/m) @ t=0.34
0.12160116569741541
% es.Ez (V/m) @ t=0.34
-0.8109195363723889
% es.tEx (V/m) @ t=0.34
0.8121146402818855
% es.tEy (V/m) @ t=0.34
0
% es.tEz (V/m) @ t=0.34
-0.8109195363723778
% V (V) @ t=0.34
0.012520637212027758
% es.normE (V/m) @ t=0.36
1.1863619776535188
% es.EX (V/m) @ t=0.36
0.8240645213510331
% es.EY (V/m) @ t=0.36
0.1233889422446775
% es.EZ (V/m) @ t=0.36
-0.8228469057176726
% es.tEX (V/m) @ t=0.36
0.8240645213510338
% es.tEY (V/m) @ t=0.36
0
% es.tEZ (V/m) @ t=0.36
-0.8228469057176548
% es.Ex (V/m) @ t=0.36
0.8240645213510331
% es.Ey (V/m) @ t=0.36
0.1233889422446775
% es.Ez (V/m) @ t=0.36
-0.8228469057176726
% es.tEx (V/m) @ t=0.36
0.8240645213510338
% es.tEy (V/m) @ t=0.36
0
% es.tEz (V/m) @ t=0.36
-0.8228469057176548
% V (V) @ t=0.36
0.012705068579779252
% es.normE (V/m) @ t=0.38
1.2035618718550127
% es.EX (V/m) @ t=0.38
0.8360144024201792
% es.EY (V/m) @ t=0.38
0.1251767187919297
% es.EZ (V/m) @ t=0.38
-0.8347742750629696
% es.tEX (V/m) @ t=0.38
0.8360144024201879
% es.tEY (V/m) @ t=0.38
0
% es.tEZ (V/m) @ t=0.38
-0.8347742750629585
% es.Ex (V/m) @ t=0.38
0.8360144024201792
% es.Ey (V/m) @ t=0.38
0.1251767187919297
% es.Ez (V/m) @ t=0.38
-0.8347742750629696
% es.tEx (V/m) @ t=0.38
0.8360144024201879
% es.tEy (V/m) @ t=0.38
0
% es.tEz (V/m) @ t=0.38
-0.8347742750629585
% V (V) @ t=0.38
0.012889499947530747
% es.normE (V/m) @ t=0.4
1.2207617660673344
% es.EX (V/m) @ t=0.4
0.8479642834893308
% es.EY (V/m) @ t=0.4
0.12696449533917237
% es.EZ (V/m) @ t=0.4
-0.8467016444082556
% es.tEX (V/m) @ t=0.4
0.8479642834893357
% es.tEY (V/m) @ t=0.4
0
% es.tEZ (V/m) @ t=0.4
-0.8467016444082409
% es.Ex (V/m) @ t=0.4
0.8479642834893308
% es.Ey (V/m) @ t=0.4
0.12696449533917237
% es.Ez (V/m) @ t=0.4
-0.8467016444082556
% es.tEx (V/m) @ t=0.4
0.8479642834893357
% es.tEy (V/m) @ t=0.4
0
% es.tEz (V/m) @ t=0.4
-0.8467016444082409
% V (V) @ t=0.4
0.013073931315282245
% es.normE (V/m) @ t=0.42
1.2387557525229715
% es.EX (V/m) @ t=0.42
0.8604639846006454
% es.EY (V/m) @ t=0.42
0.12883562863789116
% es.EZ (V/m) @ t=0.42
-0.8591813472664049
% es.tEX (V/m) @ t=0.42
0.8604639846006501
% es.tEY (V/m) @ t=0.42
0
% es.tEZ (V/m) @ t=0.42
-0.8591813472663903
% es.Ex (V/m) @ t=0.42
0.8604639846006454
% es.Ey (V/m) @ t=0.42
0.12883562863789116
% es.Ez (V/m) @ t=0.42
-0.8591813472664049
% es.tEx (V/m) @ t=0.42
0.8604639846006501
% es.tEy (V/m) @ t=0.42
0
% es.tEz (V/m) @ t=0.42
-0.8591813472663903
% V (V) @ t=0.42
0.013266707124957575
% es.normE (V/m) @ t=0.44
1.2574518378673918
% es.EX (V/m) @ t=0.44
0.8734498106516455
% es.EY (V/m) @ t=0.44
0.13078046204333643
% es.EZ (V/m) @ t=0.44
-0.872149397356448
% es.tEX (V/m) @ t=0.44
0.8734498106516488
% es.tEY (V/m) @ t=0.44
0
% es.tEZ (V/m) @ t=0.44
-0.8721493973564369
% es.Ex (V/m) @ t=0.44
0.8734498106516455
% es.Ey (V/m) @ t=0.44
0.13078046204333643
% es.Ez (V/m) @ t=0.44
-0.872149397356448
% es.tEx (V/m) @ t=0.44
0.8734498106516488
% es.tEy (V/m) @ t=0.44
0
% es.tEz (V/m) @ t=0.44
-0.8721493973564369
% V (V) @ t=0.44
0.01346686069647485
% es.normE (V/m) @ t=0.46
1.2761479232129296
% es.EX (V/m) @ t=0.46
0.8864356367026585
% es.EY (V/m) @ t=0.46
0.1327252954487969
% es.EZ (V/m) @ t=0.46
-0.8851174474465062
% es.tEX (V/m) @ t=0.46
0.8864356367026596
% es.tEY (V/m) @ t=0.46
0
% es.tEZ (V/m) @ t=0.46
-0.885117447446488
% es.Ex (V/m) @ t=0.46
0.8864356367026585
% es.Ey (V/m) @ t=0.46
0.1327252954487969
% es.Ez (V/m) @ t=0.46
-0.8851174474465062
% es.tEx (V/m) @ t=0.46
0.8864356367026596
% es.tEy (V/m) @ t=0.46
0
% es.tEz (V/m) @ t=0.46
-0.885117447446488
% V (V) @ t=0.46
0.013667014267992123
% es.normE (V/m) @ t=0.48
1.2948440085595063
% es.EX (V/m) @ t=0.48
0.8994214627536639
% es.EY (V/m) @ t=0.48
0.13467012885424284
% es.EZ (V/m) @ t=0.48
-0.8980854975365458
% es.tEX (V/m) @ t=0.48
0.8994214627536619
% es.tEY (V/m) @ t=0.48
0
% es.tEZ (V/m) @ t=0.48
-0.8980854975365347
% es.Ex (V/m) @ t=0.48
0.8994214627536639
% es.Ey (V/m) @ t=0.48
0.13467012885424284
% es.Ez (V/m) @ t=0.48
-0.8980854975365458
% es.tEx (V/m) @ t=0.48
0.8994214627536619
% es.tEy (V/m) @ t=0.48
0
% es.tEz (V/m) @ t=0.48
-0.8980854975365347
% V (V) @ t=0.48
0.0138671678395094
% es.normE (V/m) @ t=0.5
1.3135400939070827
% es.EX (V/m) @ t=0.5
0.9124072888046628
% es.EY (V/m) @ t=0.5
0.13661496225968384
% es.EZ (V/m) @ t=0.5
-0.9110535476265906
% es.tEX (V/m) @ t=0.5
0.9124072888046673
% es.tEY (V/m) @ t=0.5
0
% es.tEZ (V/m) @ t=0.5
-0.9110535476265795
% es.Ex (V/m) @ t=0.5
0.9124072888046628
% es.Ey (V/m) @ t=0.5
0.13661496225968384
% es.Ez (V/m) @ t=0.5
-0.9110535476265906
% es.tEx (V/m) @ t=0.5
0.9124072888046673
% es.tEy (V/m) @ t=0.5
0
% es.tEz (V/m) @ t=0.5
-0.9110535476265795
% V (V) @ t=0.5
0.014067321411026673
% es.normE (V/m) @ t=0.52
1.3322361792556268
% es.EX (V/m) @ t=0.52
0.9253931148556716
% es.EY (V/m) @ t=0.52
0.1385597956651335
% es.EZ (V/m) @ t=0.52
-0.9240215977166293
% es.tEX (V/m) @ t=0.52
0.925393114855674
% es.tEY (V/m) @ t=0.52
0
% es.tEZ (V/m) @ t=0.52
-0.9240215977166111
% es.Ex (V/m) @ t=0.52
0.9253931148556716
% es.Ey (V/m) @ t=0.52
0.1385597956651335
% es.Ez (V/m) @ t=0.52
-0.9240215977166293
% es.tEx (V/m) @ t=0.52
0.925393114855674
% es.tEy (V/m) @ t=0.52
0
% es.tEz (V/m) @ t=0.52
-0.9240215977166111
% V (V) @ t=0.52
0.014267474982543946
% es.normE (V/m) @ t=0.54
1.3509322646051136
% es.EX (V/m) @ t=0.54
0.9383789409066805
% es.EY (V/m) @ t=0.54
0.14050462907060451
% es.EZ (V/m) @ t=0.54
-0.9369896478066893
% es.tEX (V/m) @ t=0.54
0.9383789409066834
% es.tEY (V/m) @ t=0.54
0
% es.tEZ (V/m) @ t=0.54
-0.936989647806671
% es.Ex (V/m) @ t=0.54
0.9383789409066805
% es.Ey (V/m) @ t=0.54
0.14050462907060451
% es.Ez (V/m) @ t=0.54
-0.9369896478066893
% es.tEx (V/m) @ t=0.54
0.9383789409066834
% es.tEy (V/m) @ t=0.54
0
% es.tEz (V/m) @ t=0.54
-0.936989647806671
% V (V) @ t=0.54
0.014467628554061222
% es.normE (V/m) @ t=0.56
1.3701316793830856
% es.EX (V/m) @ t=0.56
0.95171444607107
% es.EY (V/m) @ t=0.56
0.1425017861537834
% es.EZ (V/m) @ t=0.56
-0.9503067492507999
% es.tEX (V/m) @ t=0.56
0.9517144460710738
% es.tEY (V/m) @ t=0.56
0
% es.tEZ (V/m) @ t=0.56
-0.9503067492507888
% es.Ex (V/m) @ t=0.56
0.95171444607107
% es.Ey (V/m) @ t=0.56
0.1425017861537834
% es.Ez (V/m) @ t=0.56
-0.9503067492507999
% es.tEx (V/m) @ t=0.56
0.9517144460710738
% es.tEy (V/m) @ t=0.56
0
% es.tEz (V/m) @ t=0.56
-0.9503067492507888
% V (V) @ t=0.56
0.014673177759623826
% es.normE (V/m) @ t=0.58
1.3896965377421362
% es.EX (V/m) @ t=0.58
0.9653038366237439
% es.EY (V/m) @ t=0.58
0.1445369329731198
% es.EZ (V/m) @ t=0.58
-0.9638772802970483
% es.tEX (V/m) @ t=0.58
0.9653038366237481
% es.tEY (V/m) @ t=0.58
0
% es.tEZ (V/m) @ t=0.58
-0.9638772802970372
% es.Ex (V/m) @ t=0.58
0.9653038366237439
% es.Ey (V/m) @ t=0.58
0.1445369329731198
% es.Ez (V/m) @ t=0.58
-0.9638772802970483
% es.tEx (V/m) @ t=0.58
0.9653038366237481
% es.tEy (V/m) @ t=0.58
0
% es.tEz (V/m) @ t=0.58
-0.9638772802970372
% V (V) @ t=0.58
0.014882644478678504
% es.normE (V/m) @ t=0.6
1.4094494070234005
% es.EX (V/m) @ t=0.6
0.9790238444000188
% es.EY (V/m) @ t=0.6
0.146591624492869
% es.EZ (V/m) @ t=0.6
-0.9775781940770929
% es.tEX (V/m) @ t=0.6
0.9790238444000225
% es.tEY (V/m) @ t=0.6
0
% es.tEZ (V/m) @ t=0.6
-0.9775781940770818
% es.Ex (V/m) @ t=0.6
0.9790238444000188
% es.Ey (V/m) @ t=0.6
0.146591624492869
% es.Ez (V/m) @ t=0.6
-0.9775781940770929
% es.tEx (V/m) @ t=0.6
0.9790238444000225
% es.tEy (V/m) @ t=0.6
0
% es.tEz (V/m) @ t=0.6
-0.9775781940770818
% V (V) @ t=0.6
0.015094126653365387
% es.normE (V/m) @ t=0.62
1.4293902872268216
% es.EX (V/m) @ t=0.62
0.9928744693998903
% es.EY (V/m) @ t=0.62
0.14866586071302912
% es.EZ (V/m) @ t=0.62
-0.9914094905909789
% es.tEX (V/m) @ t=0.62
0.992874469399895
% es.tEY (V/m) @ t=0.62
0
% es.tEZ (V/m) @ t=0.62
-0.9914094905909607
% es.Ex (V/m) @ t=0.62
0.9928744693998903
% es.Ey (V/m) @ t=0.62
0.14866586071302912
% es.Ez (V/m) @ t=0.62
-0.9914094905909789
% es.tEx (V/m) @ t=0.62
0.992874469399895
% es.tEy (V/m) @ t=0.62
0
% es.tEz (V/m) @ t=0.62
-0.9914094905909607
% V (V) @ t=0.62
0.015307624283684476
% es.normE (V/m) @ t=0.64
1.4495191783523267
% es.EX (V/m) @ t=0.64
1.0068557116233496
% es.EY (V/m) @ t=0.64
0.15075964163363192
% es.EZ (V/m) @ t=0.64
-1.0053711698387056
% es.tEX (V/m) @ t=0.64
1.0068557116233552
% es.tEY (V/m) @ t=0.64
0
% es.tEZ (V/m) @ t=0.64
-1.0053711698386874
% es.Ex (V/m) @ t=0.64
1.0068557116233496
% es.Ey (V/m) @ t=0.64
0.15075964163363192
% es.Ez (V/m) @ t=0.64
-1.0053711698387056
% es.tEx (V/m) @ t=0.64
1.0068557116233552
% es.tEy (V/m) @ t=0.64
0
% es.tEz (V/m) @ t=0.64
-1.0053711698386874
% V (V) @ t=0.64
0.015523137369635768
% es.normE (V/m) @ t=0.66
1.4698360803998223
% es.EX (V/m) @ t=0.66
1.0209675710704131
% es.EY (V/m) @ t=0.66
0.1528729672546536
% es.EZ (V/m) @ t=0.66
-1.0194632318202337
% es.tEX (V/m) @ t=0.66
1.0209675710704187
% es.tEY (V/m) @ t=0.66
0
% es.tEZ (V/m) @ t=0.66
-1.019463231820212
% es.Ex (V/m) @ t=0.66
1.0209675710704131
% es.Ey (V/m) @ t=0.66
0.1528729672546536
% es.Ez (V/m) @ t=0.66
-1.0194632318202337
% es.tEx (V/m) @ t=0.66
1.0209675710704187
% es.tEy (V/m) @ t=0.66
0
% es.tEz (V/m) @ t=0.66
-1.019463231820212
% V (V) @ t=0.66
0.015740665911219268
% es.normE (V/m) @ t=0.68
1.490340993369263
% es.EX (V/m) @ t=0.68
1.0352100477410786
% es.EY (V/m) @ t=0.68
0.15500583757612169
% es.EZ (V/m) @ t=0.68
-1.0336856765355988
% es.tEX (V/m) @ t=0.68
1.0352100477410842
% es.tEY (V/m) @ t=0.68
0
% es.tEZ (V/m) @ t=0.68
-1.033685676535577
% es.Ex (V/m) @ t=0.68
1.0352100477410786
% es.Ey (V/m) @ t=0.68
0.15500583757612169
% es.Ez (V/m) @ t=0.68
-1.0336856765355988
% es.tEx (V/m) @ t=0.68
1.0352100477410842
% es.tEy (V/m) @ t=0.68
0
% es.tEz (V/m) @ t=0.68
-1.033685676535577
% V (V) @ t=0.68
0.01596020990843497
% es.normE (V/m) @ t=0.7
1.511033917260562
% es.EX (V/m) @ t=0.7
1.049583141635323
% es.EY (V/m) @ t=0.7
0.1571582525979634
% es.EZ (V/m) @ t=0.7
-1.0480385039847904
% es.tEX (V/m) @ t=0.7
1.049583141635325
% es.tEY (V/m) @ t=0.7
0
% es.tEZ (V/m) @ t=0.7
-1.0480385039847686
% es.Ex (V/m) @ t=0.7
1.049583141635323
% es.Ey (V/m) @ t=0.7
0.1571582525979634
% es.Ez (V/m) @ t=0.7
-1.0480385039847904
% es.tEx (V/m) @ t=0.7
1.049583141635325
% es.tEy (V/m) @ t=0.7
0
% es.tEz (V/m) @ t=0.7
-1.0480385039847686
% V (V) @ t=0.7
0.016181769361282874
% es.normE (V/m) @ t=0.72
1.5319148520736874
% es.EX (V/m) @ t=0.72
1.064086852753184
% es.EY (V/m) @ t=0.72
0.15933021232028977
% es.EZ (V/m) @ t=0.72
-1.0625217141677807
% es.tEX (V/m) @ t=0.72
1.0640868527531895
% es.tEY (V/m) @ t=0.72
0
% es.tEZ (V/m) @ t=0.72
-1.062521714167766
% es.Ex (V/m) @ t=0.72
1.064086852753184
% es.Ey (V/m) @ t=0.72
0.15933021232028977
% es.Ez (V/m) @ t=0.72
-1.0625217141677807
% es.tEx (V/m) @ t=0.72
1.0640868527531895
% es.tEy (V/m) @ t=0.72
0
% es.tEz (V/m) @ t=0.72
-1.062521714167766
% V (V) @ t=0.72
0.01640534426976298
% es.normE (V/m) @ t=0.74
1.5529837978086047
% es.EX (V/m) @ t=0.74
1.0787211810946398
% es.EY (V/m) @ t=0.74
0.16152171674299937
% es.EZ (V/m) @ t=0.74
-1.0771353070846383
% es.tEX (V/m) @ t=0.74
1.0787211810946484
% es.tEY (V/m) @ t=0.74
0
% es.tEZ (V/m) @ t=0.74
-1.0771353070846166
% es.Ex (V/m) @ t=0.74
1.0787211810946398
% es.Ey (V/m) @ t=0.74
0.16152171674299937
% es.Ez (V/m) @ t=0.74
-1.0771353070846383
% es.tEx (V/m) @ t=0.74
1.0787211810946484
% es.tEy (V/m) @ t=0.74
0
% es.tEz (V/m) @ t=0.74
-1.0771353070846166
% V (V) @ t=0.74
0.0166309346338753
% es.normE (V/m) @ t=0.76
1.57424075446523
% es.EX (V/m) @ t=0.76
1.0934861266596838
% es.EY (V/m) @ t=0.76
0.1637327658661608
% es.EZ (V/m) @ t=0.76
-1.0918792827352948
% es.tEX (V/m) @ t=0.76
1.093486126659685
% es.tEY (V/m) @ t=0.76
0
% es.tEZ (V/m) @ t=0.76
-1.091879282735266
% es.Ex (V/m) @ t=0.76
1.0934861266596838
% es.Ey (V/m) @ t=0.76
0.1637327658661608
% es.Ez (V/m) @ t=0.76
-1.0918792827352948
% es.tEx (V/m) @ t=0.76
1.093486126659685
% es.tEy (V/m) @ t=0.76
0
% es.tEz (V/m) @ t=0.76
-1.091879282735266
% V (V) @ t=0.76
0.01685854045361982
% es.normE (V/m) @ t=0.78
1.5956857220435328
% es.EX (V/m) @ t=0.78
1.1083816894483196
% es.EY (V/m) @ t=0.78
0.16596335968974074
% es.EZ (V/m) @ t=0.78
-1.1067536411197865
% es.tEX (V/m) @ t=0.78
1.1083816894483278
% es.tEY (V/m) @ t=0.78
0
% es.tEZ (V/m) @ t=0.78
-1.1067536411197647
% es.Ex (V/m) @ t=0.78
1.1083816894483196
% es.Ey (V/m) @ t=0.78
0.16596335968974074
% es.Ez (V/m) @ t=0.78
-1.1067536411197865
% es.tEx (V/m) @ t=0.78
1.1083816894483278
% es.tEy (V/m) @ t=0.78
0
% es.tEz (V/m) @ t=0.78
-1.1067536411197647
% V (V) @ t=0.78
0.017088161728996548
% es.normE (V/m) @ t=0.8
1.6173187005434944
% es.EX (V/m) @ t=0.8
1.1234078694605691
% es.EY (V/m) @ t=0.8
0.1682134982137488
% es.EZ (V/m) @ t=0.8
-1.1217583822381099
% es.tEX (V/m) @ t=0.8
1.1234078694605776
% es.tEY (V/m) @ t=0.8
0
% es.tEZ (V/m) @ t=0.8
-1.121758382238088
% es.Ex (V/m) @ t=0.8
1.1234078694605691
% es.Ey (V/m) @ t=0.8
0.1682134982137488
% es.Ez (V/m) @ t=0.8
-1.1217583822381099
% es.tEx (V/m) @ t=0.8
1.1234078694605776
% es.tEy (V/m) @ t=0.8
0
% es.tEz (V/m) @ t=0.8
-1.121758382238088
% V (V) @ t=0.8
0.017319798460005472
% es.normE (V/m) @ t=0.82
1.6391656161423762
% es.EX (V/m) @ t=0.82
1.1385826520902336
% es.EY (V/m) @ t=0.82
0.1704858880330502
% es.EZ (V/m) @ t=0.82
-1.1369115087530512
% es.tEX (V/m) @ t=0.82
1.1385826520902378
% es.tEY (V/m) @ t=0.82
0
% es.tEZ (V/m) @ t=0.82
-1.1369115087530366
% es.Ex (V/m) @ t=0.82
1.1385826520902336
% es.Ey (V/m) @ t=0.82
0.1704858880330502
% es.Ez (V/m) @ t=0.82
-1.1369115087530512
% es.tEx (V/m) @ t=0.82
1.1385826520902378
% es.tEy (V/m) @ t=0.82
0
% es.tEz (V/m) @ t=0.82
-1.1369115087530366
% V (V) @ t=0.82
0.017553726190394324
% es.normE (V/m) @ t=0.84
1.6615656941147932
% es.EX (V/m) @ t=0.84
1.1541413632043176
% es.EY (V/m) @ t=0.84
0.17281594298330988
% es.EZ (V/m) @ t=0.84
-1.1524485724837534
% es.tEX (V/m) @ t=0.84
1.1541413632043258
% es.tEY (V/m) @ t=0.84
0
% es.tEZ (V/m) @ t=0.84
-1.1524485724837383
% es.Ex (V/m) @ t=0.84
1.1541413632043176
% es.Ey (V/m) @ t=0.84
0.17281594298330988
% es.Ez (V/m) @ t=0.84
-1.1524485724837534
% es.tEx (V/m) @ t=0.84
1.1541413632043258
% es.tEy (V/m) @ t=0.84
0
% es.tEz (V/m) @ t=0.84
-1.1524485724837383
% V (V) @ t=0.84
0.017793550210766857
% es.normE (V/m) @ t=0.86
1.684206694038668
% es.EX (V/m) @ t=0.86
1.1698673967488826
% es.EY (V/m) @ t=0.86
0.17517106634544405
% es.EZ (V/m) @ t=0.86
-1.168152759398335
% es.tEX (V/m) @ t=0.86
1.1698673967488835
% es.tEY (V/m) @ t=0.86
0
% es.tEZ (V/m) @ t=0.86
-1.168152759398306
% es.Ex (V/m) @ t=0.86
1.1698673967488826
% es.Ey (V/m) @ t=0.86
0.17517106634544405
% es.Ez (V/m) @ t=0.86
-1.168152759398335
% es.tEx (V/m) @ t=0.86
1.1698673967488835
% es.tEy (V/m) @ t=0.86
0
% es.tEz (V/m) @ t=0.86
-1.168152759398306
% V (V) @ t=0.86
0.018035952025876906
% es.normE (V/m) @ t=0.88
1.7070886159139937
% es.EX (V/m) @ t=0.88
1.1857607527239318
% es.EY (V/m) @ t=0.88
0.17755125811930345
% es.EZ (V/m) @ t=0.88
-1.1840240694967323
% es.tEX (V/m) @ t=0.88
1.1857607527239464
% es.tEY (V/m) @ t=0.88
0
% es.tEZ (V/m) @ t=0.88
-1.1840240694967106
% es.Ex (V/m) @ t=0.88
1.1857607527239318
% es.Ey (V/m) @ t=0.88
0.17755125811930345
% es.Ez (V/m) @ t=0.88
-1.1840240694967323
% es.tEx (V/m) @ t=0.88
1.1857607527239464
% es.tEy (V/m) @ t=0.88
0
% es.tEz (V/m) @ t=0.88
-1.1840240694967106
% V (V) @ t=0.88
0.01828093163572447
% es.normE (V/m) @ t=0.9
1.7302114597408775
% es.EX (V/m) @ t=0.9
1.201821431129515
% es.EY (V/m) @ t=0.9
0.1799565183050103
% es.EZ (V/m) @ t=0.9
-1.2000625027789886
% es.tEX (V/m) @ t=0.9
1.2018214311295123
% es.tEY (V/m) @ t=0.9
0
% es.tEZ (V/m) @ t=0.9
-1.2000625027789669
% es.Ex (V/m) @ t=0.9
1.201821431129515
% es.Ey (V/m) @ t=0.9
0.1799565183050103
% es.Ez (V/m) @ t=0.9
-1.2000625027789886
% es.tEx (V/m) @ t=0.9
1.2018214311295123
% es.tEy (V/m) @ t=0.9
0
% es.tEz (V/m) @ t=0.9
-1.2000625027789669
% V (V) @ t=0.9
0.018528489040309553
% es.normE (V/m) @ t=0.92
1.7535752255192674
% es.EX (V/m) @ t=0.92
1.2180494319655404
% es.EY (V/m) @ t=0.92
0.18238684690246298
% es.EZ (V/m) @ t=0.92
-1.216268059245091
% es.tEX (V/m) @ t=0.92
1.2180494319655377
% es.tEY (V/m) @ t=0.92
0
% es.tEZ (V/m) @ t=0.92
-1.2162680592450759
% es.Ex (V/m) @ t=0.92
1.2180494319655404
% es.Ey (V/m) @ t=0.92
0.18238684690246298
% es.Ez (V/m) @ t=0.92
-1.216268059245091
% es.tEx (V/m) @ t=0.92
1.2180494319655377
% es.tEy (V/m) @ t=0.92
0
% es.tEz (V/m) @ t=0.92
-1.2162680592450759
% V (V) @ t=0.92
0.018778624239632145
% es.normE (V/m) @ t=0.94
1.777179913249268
% es.EX (V/m) @ t=0.94
1.2344447552320732
% es.EY (V/m) @ t=0.94
0.1848422439117311
% es.EZ (V/m) @ t=0.94
-1.2326407388950522
% es.tEX (V/m) @ t=0.94
1.2344447552320768
% es.tEY (V/m) @ t=0.94
0
% es.tEZ (V/m) @ t=0.94
-1.2326407388950233
% es.Ex (V/m) @ t=0.94
1.2344447552320732
% es.Ey (V/m) @ t=0.94
0.1848422439117311
% es.Ez (V/m) @ t=0.94
-1.2326407388950522
% es.tEx (V/m) @ t=0.94
1.2344447552320768
% es.tEy (V/m) @ t=0.94
0
% es.tEz (V/m) @ t=0.94
-1.2326407388950233
% V (V) @ t=0.94
0.01903133723369226
% es.normE (V/m) @ t=0.96
1.8010255229308703
% es.EX (V/m) @ t=0.96
1.25100740092909
% es.EY (V/m) @ t=0.96
0.18732270933277717
% es.EZ (V/m) @ t=0.96
-1.2491805417288324
% es.tEX (V/m) @ t=0.96
1.2510074009290975
% es.tEY (V/m) @ t=0.96
0
% es.tEZ (V/m) @ t=0.96
-1.2491805417288102
% es.Ex (V/m) @ t=0.96
1.25100740092909
% es.Ey (V/m) @ t=0.96
0.18732270933277717
% es.Ez (V/m) @ t=0.96
-1.2491805417288324
% es.tEx (V/m) @ t=0.96
1.2510074009290975
% es.tEy (V/m) @ t=0.96
0
% es.tEz (V/m) @ t=0.96
-1.2491805417288102
% V (V) @ t=0.96
0.019286628022489885
% es.normE (V/m) @ t=0.98
1.8251120545641357
% es.EX (V/m) @ t=0.98
1.2677373690565856
% es.EY (V/m) @ t=0.98
0.18982824316561808
% es.EZ (V/m) @ t=0.98
-1.265887467746476
% es.tEX (V/m) @ t=0.98
1.2677373690565892
% es.tEY (V/m) @ t=0.98
0
% es.tEZ (V/m) @ t=0.98
-1.2658874677464471
% es.Ex (V/m) @ t=0.98
1.2677373690565856
% es.Ey (V/m) @ t=0.98
0.18982824316561808
% es.Ez (V/m) @ t=0.98
-1.265887467746476
% es.tEx (V/m) @ t=0.98
1.2677373690565892
% es.tEy (V/m) @ t=0.98
0
% es.tEz (V/m) @ t=0.98
-1.2658874677464471
% V (V) @ t=0.98
0.01954449660602503
% es.normE (V/m) @ t=1
1.849439508149103
% es.EX (V/m) @ t=1
1.2846346596145675
% es.EY (V/m) @ t=1
0.1923588454102546
% es.EZ (V/m) @ t=1
-1.2827615169479896
% es.tEX (V/m) @ t=1
1.2846346596145741
% es.tEY (V/m) @ t=1
0
% es.tEZ (V/m) @ t=1
-1.2827615169479678
% es.Ex (V/m) @ t=1
1.2846346596145675
% es.Ey (V/m) @ t=1
0.1923588454102546
% es.Ez (V/m) @ t=1
-1.2827615169479896
% es.tEx (V/m) @ t=1
1.2846346596145741
% es.tEy (V/m) @ t=1
0
% es.tEz (V/m) @ t=1
-1.2827615169479678
% V (V) @ t=1
0.019804942984297694
% es.normE (V/m) @ t=1.02
1.8740078836857863
% es.EX (V/m) @ t=1.02
1.3016992726030687
% es.EY (V/m) @ t=1.02
0.19491451606672727
% es.EZ (V/m) @ t=1.02
-1.2998026893333088
% es.tEX (V/m) @ t=1.02
1.301699272603079
% es.tEY (V/m) @ t=1.02
0
% es.tEZ (V/m) @ t=1.02
-1.2998026893332941
% es.Ex (V/m) @ t=1.02
1.3016992726030687
% es.Ey (V/m) @ t=1.02
0.19491451606672727
% es.Ez (V/m) @ t=1.02
-1.2998026893333088
% es.tEx (V/m) @ t=1.02
1.301699272603079
% es.tEy (V/m) @ t=1.02
0
% es.tEz (V/m) @ t=1.02
-1.2998026893332941
% V (V) @ t=1.02
0.020067967157307874
% es.normE (V/m) @ t=1.04
1.8988171811742358
% es.EX (V/m) @ t=1.04
1.318931208022045
% es.EY (V/m) @ t=1.04
0.1974952551349718
% es.EZ (V/m) @ t=1.04
-1.3170109849024985
% es.tEX (V/m) @ t=1.04
1.318931208022052