% Model:              1 neuron.mph
% Version:            COMSOL 6.0.0.405
% Date:               Mar 16 2023, 19:26
% Dimension:          0
% Nodes:              14017
% Expressions:        14017
% Description:        Electric field norm, Electric field, X component, Electric field, Y component, Electric field, Z component, Tangential electric field, X component, Tangential electric field, Y component, Tangential electric field, Z component, Electric field, x component, Electric field, y component, Electric field, z component, Tangential electric field, x component, Tangential electric field, y component, Tangential electric field, z component, Electric potential
% Length unit:        mm
% x
1.66
% y
12.2
% z
1
% es.normE (V/m) @ t=0
2.2494376316589633
% es.EX (V/m) @ t=0
-0.8017844129942169
% es.EY (V/m) @ t=0
0.25472338088750557
% es.EZ (V/m) @ t=0
2.079737761493644
% es.tEX (V/m) @ t=0
-0.8017844129942346
% es.tEY (V/m) @ t=0
0
% es.tEZ (V/m) @ t=0
2.07973776149365
% es.Ex (V/m) @ t=0
-0.8017844129942169
% es.Ey (V/m) @ t=0
0.25472338088750557
% es.Ez (V/m) @ t=0
2.079737761493644
% es.tEx (V/m) @ t=0
-0.8017844129942346
% es.tEy (V/m) @ t=0
0
% es.tEz (V/m) @ t=0
2.07973776149365
% V (V) @ t=0
0.01095203067998986
% es.normE (V/m) @ t=0.02
1.9536560473374953
% es.EX (V/m) @ t=0.02
-0.6963567012651809
% es.EY (V/m) @ t=0.02
0.22122945962637997
% es.EZ (V/m) @ t=0.02
1.8062702414349623
% es.tEX (V/m) @ t=0.02
-0.696356701265188
% es.tEY (V/m) @ t=0.02
0
% es.tEZ (V/m) @ t=0.02
1.8062702414349658
% es.Ex (V/m) @ t=0.02
-0.6963567012651809
% es.Ey (V/m) @ t=0.02
0.22122945962637997
% es.Ez (V/m) @ t=0.02
1.8062702414349623
% es.tEx (V/m) @ t=0.02
-0.696356701265188
% es.tEy (V/m) @ t=0.02
0
% es.tEz (V/m) @ t=0.02
1.8062702414349658
% V (V) @ t=0.02
0.009511933373632504
% es.normE (V/m) @ t=0.04
1.9826264021227527
% es.EX (V/m) @ t=0.04
-0.7066828296932063
% es.EY (V/m) @ t=0.04
0.2245100234941655
% es.EZ (V/m) @ t=0.04
1.8330550426552046
% es.tEX (V/m) @ t=0.04
-0.706682829693224
% es.tEY (V/m) @ t=0.04
0
% es.tEZ (V/m) @ t=0.04
1.8330550426552072
% es.Ex (V/m) @ t=0.04
-0.7066828296932063
% es.Ey (V/m) @ t=0.04
0.2245100234941655
% es.Ez (V/m) @ t=0.04
1.8330550426552046
% es.tEx (V/m) @ t=0.04
-0.706682829693224
% es.tEy (V/m) @ t=0.04
0
% es.tEz (V/m) @ t=0.04
1.8330550426552072
% V (V) @ t=0.04
0.00965298376905655
% es.normE (V/m) @ t=0.06
2.0120324977158512
% es.EX (V/m) @ t=0.06
-0.7171642710106917
% es.EY (V/m) @ t=0.06
0.22783993164057947
% es.EZ (V/m) @ t=0.06
1.860242712469117
% es.tEX (V/m) @ t=0.06
-0.7171642710107095
% es.tEY (V/m) @ t=0.06
0
% es.tEZ (V/m) @ t=0.06
1.8602427124691232
% es.Ex (V/m) @ t=0.06
-0.7171642710106917
% es.Ey (V/m) @ t=0.06
0.22783993164057947
% es.Ez (V/m) @ t=0.06
1.860242712469117
% es.tEx (V/m) @ t=0.06
-0.7171642710107095
% es.tEy (V/m) @ t=0.06
0
% es.tEz (V/m) @ t=0.06
1.8602427124691232
% V (V) @ t=0.06
0.009796155771247499
% es.normE (V/m) @ t=0.08
2.0421861464466184
% es.EX (V/m) @ t=0.08
-0.7279121705627465
% es.EY (V/m) @ t=0.08
0.23125448986511277
% es.EZ (V/m) @ t=0.08
1.888121538542129
% es.tEX (V/m) @ t=0.08
-0.7279121705627607
% es.tEY (V/m) @ t=0.08
0
% es.tEZ (V/m) @ t=0.08
1.8881215385421335
% es.Ex (V/m) @ t=0.08
-0.7279121705627465
% es.Ey (V/m) @ t=0.08
0.23125448986511277
% es.Ez (V/m) @ t=0.08
1.888121538542129
% es.tEx (V/m) @ t=0.08
-0.7279121705627607
% es.tEy (V/m) @ t=0.08
0
% es.tEz (V/m) @ t=0.08
1.8881215385421335
% V (V) @ t=0.08
0.009942967349558676
% es.normE (V/m) @ t=0.1
2.0728666198499353
% es.EX (V/m) @ t=0.1
-0.7388478517788698
% es.EY (V/m) @ t=0.1
0.23472870371471233
% es.EZ (V/m) @ t=0.1
1.916487444598535
% es.tEX (V/m) @ t=0.1
-0.7388478517788769
% es.tEY (V/m) @ t=0.1
0
% es.tEZ (V/m) @ t=0.1
1.9164874445985358
% es.Ex (V/m) @ t=0.1
-0.7388478517788698
% es.Ey (V/m) @ t=0.1
0.23472870371471233
% es.Ez (V/m) @ t=0.1
1.916487444598535
% es.tEx (V/m) @ t=0.1
-0.7388478517788769
% es.tEy (V/m) @ t=0.1
0
% es.tEz (V/m) @ t=0.1
1.9164874445985358
% V (V) @ t=0.1
0.010092343853894632
% es.normE (V/m) @ t=0.12
2.1035470932532423
% es.EX (V/m) @ t=0.12
-0.7497835329949897
% es.EY (V/m) @ t=0.12
0.2382029175642968
% es.EZ (V/m) @ t=0.12
1.9448533506549337
% es.tEX (V/m) @ t=0.12
-0.7497835329949932
% es.tEY (V/m) @ t=0.12
0
% es.tEZ (V/m) @ t=0.12
1.9448533506549328
% es.Ex (V/m) @ t=0.12
-0.7497835329949897
% es.Ey (V/m) @ t=0.12
0.2382029175642968
% es.Ez (V/m) @ t=0.12
1.9448533506549337
% es.tEx (V/m) @ t=0.12
-0.7497835329949932
% es.tEy (V/m) @ t=0.12
0
% es.tEz (V/m) @ t=0.12
1.9448533506549328
% V (V) @ t=0.12
0.010241720358230589
% es.normE (V/m) @ t=0.14
2.1347335407884405
% es.EX (V/m) @ t=0.14
-0.7608995664756515
% es.EY (V/m) @ t=0.14
0.241734423198672
% es.EZ (V/m) @ t=0.14
1.973687058326008
% es.tEX (V/m) @ t=0.14
-0.7608995664756657
% es.tEY (V/m) @ t=0.14
0
% es.tEZ (V/m) @ t=0.14
1.9736870583260178
% es.Ex (V/m) @ t=0.14
-0.7608995664756515
% es.Ey (V/m) @ t=0.14
0.241734423198672
% es.Ez (V/m) @ t=0.14
1.973687058326008
% es.tEx (V/m) @ t=0.14
-0.7608995664756657
% es.tEy (V/m) @ t=0.14
0
% es.tEz (V/m) @ t=0.14
1.9736870583260178
% V (V) @ t=0.14
0.010393560142193788
% es.normE (V/m) @ t=0.16
2.168176245643078
% es.EX (V/m) @ t=0.16
-0.7728198330016544
% es.EY (V/m) @ t=0.16
0.24552140633795871
% es.EZ (V/m) @ t=0.16
2.004606803109721
% es.tEX (V/m) @ t=0.16
-0.7728198330016615
% es.tEY (V/m) @ t=0.16
0
% es.tEZ (V/m) @ t=0.16
2.00460680310972
% es.Ex (V/m) @ t=0.16
-0.7728198330016544
% es.Ey (V/m) @ t=0.16
0.24552140633795871
% es.Ez (V/m) @ t=0.16
2.004606803109721
% es.tEx (V/m) @ t=0.16
-0.7728198330016615
% es.tEy (V/m) @ t=0.16
0
% es.tEz (V/m) @ t=0.16
2.00460680310972
% V (V) @ t=0.16
0.010556384267724275
% es.normE (V/m) @ t=0.18
2.201618950497714
% es.EX (V/m) @ t=0.18
-0.7847400995276502
% es.EY (V/m) @ t=0.18
0.24930838947724476
% es.EZ (V/m) @ t=0.18
2.035526547893431
% es.tEX (V/m) @ t=0.18
-0.7847400995276644
% es.tEY (V/m) @ t=0.18
0
% es.tEZ (V/m) @ t=0.18
2.0355265478934257
% es.Ex (V/m) @ t=0.18
-0.7847400995276502
% es.Ey (V/m) @ t=0.18
0.24930838947724476
% es.Ez (V/m) @ t=0.18
2.035526547893431
% es.tEx (V/m) @ t=0.18
-0.7847400995276644
% es.tEy (V/m) @ t=0.18
0
% es.tEz (V/m) @ t=0.18
2.0355265478934257
% V (V) @ t=0.18
0.010719208393254768
% es.normE (V/m) @ t=0.2
2.2350616553523466
% es.EX (V/m) @ t=0.2
-0.7966603660536284
% es.EY (V/m) @ t=0.2
0.25309537261652526
% es.EZ (V/m) @ t=0.2
2.0664462926771483
% es.tEX (V/m) @ t=0.2
-0.796660366053632
% es.tEY (V/m) @ t=0.2
0
% es.tEZ (V/m) @ t=0.2
2.066446292677151
% es.Ex (V/m) @ t=0.2
-0.7966603660536284
% es.Ey (V/m) @ t=0.2
0.25309537261652526
% es.Ez (V/m) @ t=0.2
2.0664462926771483
% es.tEx (V/m) @ t=0.2
-0.796660366053632
% es.tEy (V/m) @ t=0.2
0
% es.tEz (V/m) @ t=0.2
2.066446292677151
% V (V) @ t=0.2
0.010882032518785263
% es.normE (V/m) @ t=0.22
2.268504360206987
% es.EX (V/m) @ t=0.22
-0.8085806325796278
% es.EY (V/m) @ t=0.22
0.25688235575580665
% es.EZ (V/m) @ t=0.22
2.097366037460861
% es.tEX (V/m) @ t=0.22
-0.8085806325796349
% es.tEY (V/m) @ t=0.22
0
% es.tEZ (V/m) @ t=0.22
2.0973660374608603
% es.Ex (V/m) @ t=0.22
-0.8085806325796278
% es.Ey (V/m) @ t=0.22
0.25688235575580665
% es.Ez (V/m) @ t=0.22
2.097366037460861
% es.tEx (V/m) @ t=0.22
-0.8085806325796349
% es.tEy (V/m) @ t=0.22
0
% es.tEz (V/m) @ t=0.22
2.0973660374608603
% V (V) @ t=0.22
0.011044856644315754
% es.normE (V/m) @ t=0.24
2.3019470650616163
% es.EX (V/m) @ t=0.24
-0.8205008991056096
% es.EY (V/m) @ t=0.24
0.26066933889510535
% es.EZ (V/m) @ t=0.24
2.1282857822445687
% es.tEX (V/m) @ t=0.24
-0.8205008991056238
% es.tEY (V/m) @ t=0.24
0
% es.tEZ (V/m) @ t=0.24
2.1282857822445678
% es.Ex (V/m) @ t=0.24
-0.8205008991056096
% es.Ey (V/m) @ t=0.24
0.26066933889510535
% es.Ez (V/m) @ t=0.24
2.1282857822445687
% es.tEx (V/m) @ t=0.24
-0.8205008991056238
% es.tEy (V/m) @ t=0.24
0
% es.tEz (V/m) @ t=0.24
2.1282857822445678
% V (V) @ t=0.24
0.011207680769846247
% es.normE (V/m) @ t=0.26
2.3353897699162665
% es.EX (V/m) @ t=0.26
-0.8324211656316056
% es.EY (V/m) @ t=0.26
0.2644563220344003
% es.EZ (V/m) @ t=0.26
2.1592055270282904
% es.tEX (V/m) @ t=0.26
-0.8324211656316198
% es.tEY (V/m) @ t=0.26
0
% es.tEZ (V/m) @ t=0.26
2.1592055270282895
% es.Ex (V/m) @ t=0.26
-0.8324211656316056
% es.Ey (V/m) @ t=0.26
0.2644563220344003
% es.Ez (V/m) @ t=0.26
2.1592055270282904
% es.tEx (V/m) @ t=0.26
-0.8324211656316198
% es.tEy (V/m) @ t=0.26
0
% es.tEz (V/m) @ t=0.26
2.1592055270282895
% V (V) @ t=0.26
0.011370504895376738
% es.normE (V/m) @ t=0.28
2.369954662350935
% es.EX (V/m) @ t=0.28
-0.8447414175179666
% es.EY (V/m) @ t=0.28
0.268370384868299
% es.EZ (V/m) @ t=0.28
2.1911628019351337
% es.tEX (V/m) @ t=0.28
-0.8447414175179737
% es.tEY (V/m) @ t=0.28
0
% es.tEZ (V/m) @ t=0.28
2.1911628019351284
% es.Ex (V/m) @ t=0.28
-0.8447414175179666
% es.Ey (V/m) @ t=0.28
0.268370384868299
% es.Ez (V/m) @ t=0.28
2.1911628019351337
% es.tEx (V/m) @ t=0.28
-0.8447414175179737
% es.tEy (V/m) @ t=0.28
0
% es.tEz (V/m) @ t=0.28
2.1911628019351284
% V (V) @ t=0.28
0.011538792942278683
% es.normE (V/m) @ t=0.3
2.4063793493418393
% es.EX (V/m) @ t=0.3
-0.8577245626755159
% es.EY (V/m) @ t=0.3
0.27249505609643565
% es.EZ (V/m) @ t=0.3
2.2248395691169405
% es.tEX (V/m) @ t=0.3
-0.857724562675523
% es.tEY (V/m) @ t=0.3
0
% es.tEZ (V/m) @ t=0.3
2.224839569116945
% es.Ex (V/m) @ t=0.3
-0.8577245626755159
% es.Ey (V/m) @ t=0.3
0.27249505609643565
% es.Ez (V/m) @ t=0.3
2.2248395691169405
% es.tEx (V/m) @ t=0.3
-0.857724562675523
% es.tEy (V/m) @ t=0.3
0
% es.tEz (V/m) @ t=0.3
2.224839569116945
% V (V) @ t=0.3
0.011716136312375424
% es.normE (V/m) @ t=0.32
2.4428040363327517
% es.EX (V/m) @ t=0.32
-0.8707077078330545
% es.EY (V/m) @ t=0.32
0.2766197273245732
% es.EZ (V/m) @ t=0.32
2.258516336298758
% es.tEX (V/m) @ t=0.32
-0.8707077078330723
% es.tEY (V/m) @ t=0.32
0
% es.tEZ (V/m) @ t=0.32
2.2585163362987615
% es.Ex (V/m) @ t=0.32
-0.8707077078330545
% es.Ey (V/m) @ t=0.32
0.2766197273245732
% es.Ez (V/m) @ t=0.32
2.258516336298758
% es.tEx (V/m) @ t=0.32
-0.8707077078330723
% es.tEy (V/m) @ t=0.32
0
% es.tEz (V/m) @ t=0.32
2.2585163362987615
% V (V) @ t=0.32
0.01189347968247217
% es.normE (V/m) @ t=0.34
2.47922872332366
% es.EX (V/m) @ t=0.34
-0.8836908529906076
% es.EY (V/m) @ t=0.34
0.2807443985526943
% es.EZ (V/m) @ t=0.34
2.2921931034805683
% es.tEX (V/m) @ t=0.34
-0.8836908529906218
% es.tEY (V/m) @ t=0.34
0
% es.tEZ (V/m) @ t=0.34
2.2921931034805674
% es.Ex (V/m) @ t=0.34
-0.8836908529906076
% es.Ey (V/m) @ t=0.34
0.2807443985526943
% es.Ez (V/m) @ t=0.34
2.2921931034805683
% es.tEx (V/m) @ t=0.34
-0.8836908529906218
% es.tEy (V/m) @ t=0.34
0
% es.tEz (V/m) @ t=0.34
2.2921931034805674
% V (V) @ t=0.34
0.012070823052568912
% es.normE (V/m) @ t=0.36
2.5156534103145747
% es.EX (V/m) @ t=0.36
-0.8966739981481602
% es.EY (V/m) @ t=0.36
0.28486906978083226
% es.EZ (V/m) @ t=0.36
2.325869870662383
% es.tEX (V/m) @ t=0.36
-0.8966739981481708
% es.tEY (V/m) @ t=0.36
0
% es.tEZ (V/m) @ t=0.36
2.3258698706623804
% es.Ex (V/m) @ t=0.36
-0.8966739981481602
% es.Ey (V/m) @ t=0.36
0.28486906978083226
% es.Ez (V/m) @ t=0.36
2.325869870662383
% es.tEx (V/m) @ t=0.36
-0.8966739981481708
% es.tEy (V/m) @ t=0.36
0
% es.tEz (V/m) @ t=0.36
2.3258698706623804
% V (V) @ t=0.36
0.012248166422665657
% es.normE (V/m) @ t=0.38
2.5520780973054835
% es.EX (V/m) @ t=0.38
-0.9096571433056955
% es.EY (V/m) @ t=0.38
0.28899374100896025
% es.EZ (V/m) @ t=0.38
2.3595466378441987
% es.tEX (V/m) @ t=0.38
-0.9096571433057132
% es.tEY (V/m) @ t=0.38
0
% es.tEZ (V/m) @ t=0.38
2.359546637844204
% es.Ex (V/m) @ t=0.38
-0.9096571433056955
% es.Ey (V/m) @ t=0.38
0.28899374100896025
% es.Ez (V/m) @ t=0.38
2.3595466378441987
% es.tEx (V/m) @ t=0.38
-0.9096571433057132
% es.tEy (V/m) @ t=0.38
0
% es.tEz (V/m) @ t=0.38
2.359546637844204
% V (V) @ t=0.38
0.0124255097927624
% es.normE (V/m) @ t=0.4
2.5885027842963995
% es.EX (V/m) @ t=0.4
-0.9226402884632554
% es.EY (V/m) @ t=0.4
0.29311841223710133
% es.EZ (V/m) @ t=0.4
2.3932234050260117
% es.tEX (V/m) @ t=0.4
-0.9226402884632696
% es.tEY (V/m) @ t=0.4
0
% es.tEZ (V/m) @ t=0.4
2.3932234050260135
% es.Ex (V/m) @ t=0.4
-0.9226402884632554
% es.Ey (V/m) @ t=0.4
0.29311841223710133
% es.Ez (V/m) @ t=0.4
2.3932234050260117
% es.tEx (V/m) @ t=0.4
-0.9226402884632696
% es.tEy (V/m) @ t=0.4
0
% es.tEz (V/m) @ t=0.4
2.3932234050260135
% V (V) @ t=0.4
0.012602853162859145
% es.normE (V/m) @ t=0.42
2.6267536847275963
% es.EX (V/m) @ t=0.42
-0.9362743702504293
% es.EY (V/m) @ t=0.42
0.29744987622530394
% es.EZ (V/m) @ t=0.42
2.4285886125040967
% es.tEX (V/m) @ t=0.42
-0.936274370250447
% es.tEY (V/m) @ t=0.42
0
% es.tEZ (V/m) @ t=0.42
2.428588612504102
% es.Ex (V/m) @ t=0.42
-0.9362743702504293
% es.Ey (V/m) @ t=0.42
0.29744987622530394
% es.Ez (V/m) @ t=0.42
2.4285886125040967
% es.tEx (V/m) @ t=0.42
-0.936274370250447
% es.tEy (V/m) @ t=0.42
0
% es.tEz (V/m) @ t=0.42
2.428588612504102
% V (V) @ t=0.42
0.01278908771282345
% es.normE (V/m) @ t=0.44
2.666385239338161
% es.EX (V/m) @ t=0.44
-0.9504005732532137
% es.EY (V/m) @ t=0.44
0.30193767970932517
% es.EZ (V/m) @ t=0.44
2.4652303148870107
% es.tEX (V/m) @ t=0.44
-0.9504005732532315
% es.tEY (V/m) @ t=0.44
0
% es.tEZ (V/m) @ t=0.44
2.4652303148870143
% es.Ex (V/m) @ t=0.44
-0.9504005732532137
% es.Ey (V/m) @ t=0.44
0.30193767970932517
% es.Ez (V/m) @ t=0.44
2.4652303148870107
% es.tEx (V/m) @ t=0.44
-0.9504005732532315
% es.tEy (V/m) @ t=0.44
0
% es.tEz (V/m) @ t=0.44
2.4652303148870143
% V (V) @ t=0.44
0.012982044174023823
% es.normE (V/m) @ t=0.46
2.7060167939487227
% es.EX (V/m) @ t=0.46
-0.9645267762560017
% es.EY (V/m) @ t=0.46
0.30642548319334395
% es.EZ (V/m) @ t=0.46
2.5018720172699194
% es.tEX (V/m) @ t=0.46
-0.9645267762560159
% es.tEY (V/m) @ t=0.46
0
% es.tEZ (V/m) @ t=0.46
2.5018720172699247
% es.Ex (V/m) @ t=0.46
-0.9645267762560017
% es.Ey (V/m) @ t=0.46
0.30642548319334395
% es.Ez (V/m) @ t=0.46
2.5018720172699194
% es.tEx (V/m) @ t=0.46
-0.9645267762560159
% es.tEy (V/m) @ t=0.46
0
% es.tEz (V/m) @ t=0.46
2.5018720172699247
% V (V) @ t=0.46
0.013175000635224195
% es.normE (V/m) @ t=0.48
2.745648348559296
% es.EX (V/m) @ t=0.48
-0.9786529792588001
% es.EY (V/m) @ t=0.48
0.31091328667734364
% es.EZ (V/m) @ t=0.48
2.538513719652838
% es.tEX (V/m) @ t=0.48
-0.9786529792588143
% es.tEY (V/m) @ t=0.48
0
% es.tEZ (V/m) @ t=0.48
2.5385137196528405
% es.Ex (V/m) @ t=0.48
-0.9786529792588001
% es.Ey (V/m) @ t=0.48
0.31091328667734364
% es.Ez (V/m) @ t=0.48
2.538513719652838
% es.tEx (V/m) @ t=0.48
-0.9786529792588143
% es.tEy (V/m) @ t=0.48
0
% es.tEz (V/m) @ t=0.48
2.5385137196528405
% V (V) @ t=0.48
0.013367957096424564
% es.normE (V/m) @ t=0.5
2.785279903169868
% es.EX (V/m) @ t=0.5
-0.9927791822615881
% es.EY (V/m) @ t=0.5
0.31540109016137996
% es.EZ (V/m) @ t=0.5
2.5751554220357544
% es.tEX (V/m) @ t=0.5
-0.9927791822616059
% es.tEY (V/m) @ t=0.5
0
% es.tEZ (V/m) @ t=0.5
2.575155422035756
% es.Ex (V/m) @ t=0.5
-0.9927791822615881
% es.Ey (V/m) @ t=0.5
0.31540109016137996
% es.Ez (V/m) @ t=0.5
2.5751554220357544
% es.tEx (V/m) @ t=0.5
-0.9927791822616059
% es.tEy (V/m) @ t=0.5
0
% es.tEz (V/m) @ t=0.5
2.575155422035756
% V (V) @ t=0.5
0.013560913557624938
% es.normE (V/m) @ t=0.52
2.8249114577804413
% es.EX (V/m) @ t=0.52
-1.0069053852643868
% es.EY (V/m) @ t=0.52
0.31988889364537987
% es.EZ (V/m) @ t=0.52
2.6117971244186737
% es.tEX (V/m) @ t=0.52
-1.0069053852643974
% es.tEY (V/m) @ t=0.52
0
% es.tEZ (V/m) @ t=0.52
2.61179712441867
% es.Ex (V/m) @ t=0.52
-1.0069053852643868
% es.Ey (V/m) @ t=0.52
0.31988889364537987
% es.Ez (V/m) @ t=0.52
2.6117971244186737
% es.tEx (V/m) @ t=0.52
-1.0069053852643974
% es.tEy (V/m) @ t=0.52
0
% es.tEz (V/m) @ t=0.52
2.61179712441867
% V (V) @ t=0.52
0.01375387001882531
% es.normE (V/m) @ t=0.54
2.8645430123910094
% es.EX (V/m) @ t=0.54
-1.0210315882671854
% es.EY (V/m) @ t=0.54
0.324376697129396
% es.EZ (V/m) @ t=0.54
2.6484388268015833
% es.tEX (V/m) @ t=0.54
-1.0210315882672032
% es.tEY (V/m) @ t=0.54
0
% es.tEZ (V/m) @ t=0.54
2.6484388268015877
% es.Ex (V/m) @ t=0.54
-1.0210315882671854
% es.Ey (V/m) @ t=0.54
0.324376697129396
% es.Ez (V/m) @ t=0.54
2.6484388268015833
% es.tEx (V/m) @ t=0.54
-1.0210315882672032
% es.tEy (V/m) @ t=0.54
0
% es.tEz (V/m) @ t=0.54
2.6484388268015877
% V (V) @ t=0.54
0.013946826480025681
% es.normE (V/m) @ t=0.56
2.905323800693769
% es.EX (V/m) @ t=0.56
-1.035567411148963
% es.EY (V/m) @ t=0.56
0.3289946486246573
% es.EZ (V/m) @ t=0.56
2.686143066924889
% es.tEX (V/m) @ t=0.56
-1.0355674111489772
% es.tEY (V/m) @ t=0.56
0
% es.tEZ (V/m) @ t=0.56
2.6861430669248936
% es.Ex (V/m) @ t=0.56
-1.035567411148963
% es.Ey (V/m) @ t=0.56
0.3289946486246573
% es.Ez (V/m) @ t=0.56
2.686143066924889
% es.tEx (V/m) @ t=0.56
-1.0355674111489772
% es.tEy (V/m) @ t=0.56
0
% es.tEz (V/m) @ t=0.56
2.6861430669248936
% V (V) @ t=0.56
0.014145378829115958
% es.normE (V/m) @ t=0.58
2.946813226072619
% es.EX (V/m) @ t=0.58
-1.0503558126275299
% es.EY (V/m) @ t=0.58
0.3336928516012163
% es.EZ (V/m) @ t=0.58
2.7245024859232156
% es.tEX (V/m) @ t=0.58
-1.050355812627544
% es.tEY (V/m) @ t=0.58
0
% es.tEZ (V/m) @ t=0.58
2.7245024859232227
% es.Ex (V/m) @ t=0.58
-1.0503558126275299
% es.Ey (V/m) @ t=0.58
0.3336928516012163
% es.Ez (V/m) @ t=0.58
2.7245024859232156
% es.tEx (V/m) @ t=0.58
-1.050355812627544
% es.tEy (V/m) @ t=0.58
0
% es.tEz (V/m) @ t=0.58
2.7245024859232227
% V (V) @ t=0.58
0.014347381698025897
% es.normE (V/m) @ t=0.6
2.9887008198315606
% es.EX (V/m) @ t=0.6
-1.0652861327470242
% es.EY (V/m) @ t=0.6
0.3384361462098222
% es.EZ (V/m) @ t=0.6
2.763230036254396
% es.tEX (V/m) @ t=0.6
-1.065286132747042
% es.tEY (V/m) @ t=0.6
0
% es.tEZ (V/m) @ t=0.6
2.763230036254397
% es.Ex (V/m) @ t=0.6
-1.0652861327470242
% es.Ey (V/m) @ t=0.6
0.3384361462098222
% es.Ez (V/m) @ t=0.6
2.763230036254396
% es.tEx (V/m) @ t=0.6
-1.065286132747042
% es.tEy (V/m) @ t=0.6
0
% es.tEz (V/m) @ t=0.6
2.763230036254397
% V (V) @ t=0.6
0.01455132334199208
% es.normE (V/m) @ t=0.62
3.03098658197057
% es.EX (V/m) @ t=0.62
-1.080358371507385
% es.EY (V/m) @ t=0.62
0.3432245324505163
% es.EZ (V/m) @ t=0.62
2.8023257179184258
% es.tEX (V/m) @ t=0.62
-1.0803583715073992
% es.tEY (V/m) @ t=0.62
0
% es.tEZ (V/m) @ t=0.62
2.80232571791843
% es.Ex (V/m) @ t=0.62
-1.080358371507385
% es.Ey (V/m) @ t=0.62
0.3432245324505163
% es.Ez (V/m) @ t=0.62
2.8023257179184258
% es.tEx (V/m) @ t=0.62
-1.0803583715073992
% es.tEy (V/m) @ t=0.62
0
% es.tEz (V/m) @ t=0.62
2.80232571791843
% V (V) @ t=0.62
0.014757203761014517
% es.normE (V/m) @ t=0.64
3.0736705124896577
% es.EX (V/m) @ t=0.64
-1.0955725289086444
% es.EY (V/m) @ t=0.64
0.34805801032326467
% es.EZ (V/m) @ t=0.64
2.841789530915305
% es.tEX (V/m) @ t=0.64
-1.0955725289086586
% es.tEY (V/m) @ t=0.64
0
% es.tEZ (V/m) @ t=0.64
2.8417895309153103
% es.Ex (V/m) @ t=0.64
-1.0955725289086444
% es.Ey (V/m) @ t=0.64
0.34805801032326467
% es.Ez (V/m) @ t=0.64
2.841789530915305
% es.tEx (V/m) @ t=0.64
-1.0955725289086586
% es.tEy (V/m) @ t=0.64
0
% es.tEz (V/m) @ t=0.64
2.8417895309153103
% V (V) @ t=0.64
0.014965022955093202
% es.normE (V/m) @ t=0.66
3.1167526113888453
% es.EX (V/m) @ t=0.66
-1.1109286049508205
% es.EY (V/m) @ t=0.66
0.3529365798280837
% es.EZ (V/m) @ t=0.66
2.8816214752450504
% es.tEX (V/m) @ t=0.66
-1.1109286049508347
% es.tEY (V/m) @ t=0.66
0
% es.tEZ (V/m) @ t=0.66
2.881621475245055
% es.Ex (V/m) @ t=0.66
-1.1109286049508205
% es.Ey (V/m) @ t=0.66
0.3529365798280837
% es.Ez (V/m) @ t=0.66
2.8816214752450504
% es.tEx (V/m) @ t=0.66
-1.1109286049508347
% es.tEy (V/m) @ t=0.66
0
% es.tEz (V/m) @ t=0.66
2.881621475245055
% V (V) @ t=0.66
0.015174780924228137
% es.normE (V/m) @ t=0.68
3.1602328786680998
% es.EX (V/m) @ t=0.68
-1.1264265996338845
% es.EY (V/m) @ t=0.68
0.35786024096497115
% es.EZ (V/m) @ t=0.68
2.9218215509076355
% es.tEX (V/m) @ t=0.68
-1.1264265996338987
% es.tEY (V/m) @ t=0.68
0
% es.tEZ (V/m) @ t=0.68
2.921821550907646
% es.Ex (V/m) @ t=0.68
-1.1264265996338845
% es.Ey (V/m) @ t=0.68
0.35786024096497115
% es.Ez (V/m) @ t=0.68
2.9218215509076355
% es.tEx (V/m) @ t=0.68
-1.1264265996338987
% es.tEy (V/m) @ t=0.68
0
% es.tEz (V/m) @ t=0.68
2.921821550907646
% V (V) @ t=0.68
0.015386477668419322
% es.normE (V/m) @ t=0.7
3.204111314327447
% es.EX (V/m) @ t=0.7
-1.1420665129578362
% es.EY (V/m) @ t=0.7
0.3628289937339211
% es.EZ (V/m) @ t=0.7
2.962389757903087
% es.tEX (V/m) @ t=0.7
-1.1420665129578504
% es.tEY (V/m) @ t=0.7
0
% es.tEZ (V/m) @ t=0.7
2.962389757903088
% es.Ex (V/m) @ t=0.7
-1.1420665129578362
% es.Ey (V/m) @ t=0.7
0.3628289937339211
% es.Ez (V/m) @ t=0.7
2.962389757903087
% es.tEx (V/m) @ t=0.7
-1.1420665129578504
% es.tEy (V/m) @ t=0.7
0
% es.tEz (V/m) @ t=0.7
2.962389757903088
% V (V) @ t=0.7
0.01560011318766676
% es.normE (V/m) @ t=0.72
3.2483879183668813
% es.EX (V/m) @ t=0.72
-1.1578483449227048
% es.EY (V/m) @ t=0.72
0.3678428381349461
% es.EZ (V/m) @ t=0.72
3.003326096231393
% es.tEX (V/m) @ t=0.72
-1.157848344922719
% es.tEY (V/m) @ t=0.72
0
% es.tEZ (V/m) @ t=0.72
3.003326096231403
% es.Ex (V/m) @ t=0.72
-1.1578483449227048
% es.Ey (V/m) @ t=0.72
0.3678428381349461
% es.Ez (V/m) @ t=0.72
3.003326096231393
% es.tEx (V/m) @ t=0.72
-1.157848344922719
% es.tEy (V/m) @ t=0.72
0
% es.tEz (V/m) @ t=0.72
3.003326096231403
% V (V) @ t=0.72
0.015815687481970445
% es.normE (V/m) @ t=0.74
3.2930626907863907
% es.EX (V/m) @ t=0.74
-1.1737720955284612
% es.EY (V/m) @ t=0.74
0.37290177416802717
% es.EZ (V/m) @ t=0.74
3.0446305658925477
% es.tEX (V/m) @ t=0.74
-1.1737720955284754
% es.tEY (V/m) @ t=0.74
0
% es.tEZ (V/m) @ t=0.74
3.0446305658925468
% es.Ex (V/m) @ t=0.74
-1.1737720955284612
% es.Ey (V/m) @ t=0.74
0.37290177416802717
% es.Ez (V/m) @ t=0.74
3.0446305658925477
% es.tEx (V/m) @ t=0.74
-1.1737720955284754
% es.tEy (V/m) @ t=0.74
0
% es.tEz (V/m) @ t=0.74
3.0446305658925468
% V (V) @ t=0.74
0.016033200551330378
% es.normE (V/m) @ t=0.76
3.3381356315859914
% es.EX (V/m) @ t=0.76
-1.1898377647751128
% es.EY (V/m) @ t=0.76
0.37800580183320465
% es.EZ (V/m) @ t=0.76
3.0863031668865615
% es.tEX (V/m) @ t=0.76
-1.18983776477512
% es.tEY (V/m) @ t=0.76
0
% es.tEZ (V/m) @ t=0.76
3.0863031668865606
% es.Ex (V/m) @ t=0.76
-1.1898377647751128
% es.Ey (V/m) @ t=0.76
0.37800580183320465
% es.Ez (V/m) @ t=0.76
3.0863031668865615
% es.tEx (V/m) @ t=0.76
-1.18983776477512
% es.tEy (V/m) @ t=0.76
0
% es.tEz (V/m) @ t=0.76
3.0863031668865606
% V (V) @ t=0.76
0.016252652395746563
% es.normE (V/m) @ t=0.78
3.383606740765657
% es.EX (V/m) @ t=0.78
-1.2060453526626667
% es.EY (V/m) @ t=0.78
0.3831549211304428
% es.EZ (V/m) @ t=0.78
3.1283438992134087
% es.tEX (V/m) @ t=0.78
-1.2060453526626809
% es.tEY (V/m) @ t=0.78
0
% es.tEZ (V/m) @ t=0.78
3.128343899213414
% es.Ex (V/m) @ t=0.78
-1.2060453526626667
% es.Ey (V/m) @ t=0.78
0.3831549211304428
% es.Ez (V/m) @ t=0.78
3.1283438992134087
% es.tEx (V/m) @ t=0.78
-1.2060453526626809
% es.tEy (V/m) @ t=0.78
0
% es.tEz (V/m) @ t=0.78
3.128343899213414
% V (V) @ t=0.78
0.016474043015219004
% es.normE (V/m) @ t=0.8
3.4294760183254116
% es.EX (V/m) @ t=0.8
-1.2223948591911082
% es.EY (V/m) @ t=0.8
0.38834913205970567
% es.EZ (V/m) @ t=0.8
3.1707527628731222
% es.tEX (V/m) @ t=0.8
-1.2223948591911296
% es.tEY (V/m) @ t=0.8
0
% es.tEZ (V/m) @ t=0.8
3.1707527628731267
% es.Ex (V/m) @ t=0.8
-1.2223948591911082
% es.Ey (V/m) @ t=0.8
0.38834913205970567
% es.Ez (V/m) @ t=0.8
3.1707527628731222
% es.tEx (V/m) @ t=0.8
-1.2223948591911296
% es.tEy (V/m) @ t=0.8
0
% es.tEz (V/m) @ t=0.8
3.1707527628731267
% V (V) @ t=0.8
0.01669737240974769
% es.normE (V/m) @ t=0.82
3.475858977311828
% es.EX (V/m) @ t=0.82
-1.23892751928499
% es.EY (V/m) @ t=0.82
0.39360145312885897
% es.EZ (V/m) @ t=0.82
3.2136365362263417
% es.tEX (V/m) @ t=0.82
-1.2389275192850042
% es.tEY (V/m) @ t=0.82
0
% es.tEZ (V/m) @ t=0.82
3.213636536226346
% es.Ex (V/m) @ t=0.82
-1.23892751928499
% es.Ey (V/m) @ t=0.82
0.39360145312885897
% es.Ez (V/m) @ t=0.82
3.2136365362263417
% es.tEx (V/m) @ t=0.82
-1.2389275192850042
% es.tEy (V/m) @ t=0.82
0
% es.tEz (V/m) @ t=0.82
3.213636536226346
% V (V) @ t=0.82
0.01692319990230971
% es.normE (V/m) @ t=0.84
3.5233650729930868
% es.EX (V/m) @ t=0.84
-1.2558608914170437
% es.EY (V/m) @ t=0.84
0.3989805709354799
% es.EZ (V/m) @ t=0.84
3.2575585897004773
% es.tEX (V/m) @ t=0.84
-1.255860891417058
% es.tEY (V/m) @ t=0.84
0
% es.tEZ (V/m) @ t=0.84
3.257558589700473
% es.Ex (V/m) @ t=0.84
-1.2558608914170437
% es.Ey (V/m) @ t=0.84
0.3989805709354799
% es.Ez (V/m) @ t=0.84
3.2575585897004773
% es.tEx (V/m) @ t=0.84
-1.255860891417058
% es.tEy (V/m) @ t=0.84
0
% es.tEz (V/m) @ t=0.84
3.257558589700473
% V (V) @ t=0.84
0.017154476521772734
% es.normE (V/m) @ t=0.86
3.5713820661389244
% es.EX (V/m) @ t=0.86
-1.272976423317911
% es.EY (V/m) @ t=0.86
0.40441748512494735
% es.EZ (V/m) @ t=0.86
3.3019529794192026
% es.tEX (V/m) @ t=0.86
-1.2729764233179253
% es.tEY (V/m) @ t=0.86
0
% es.tEZ (V/m) @ t=0.86
3.3019529794192053
% es.Ex (V/m) @ t=0.86
-1.272976423317911
% es.Ey (V/m) @ t=0.86
0.40441748512494735
% es.Ez (V/m) @ t=0.86
3.3019529794192026
% es.tEx (V/m) @ t=0.86
-1.2729764233179253
% es.tEy (V/m) @ t=0.86
0
% es.tEz (V/m) @ t=0.86
3.3019529794192053
% V (V) @ t=0.86
0.017388237759111812
% es.normE (V/m) @ t=0.88
3.61990995674942
% es.EX (V/m) @ t=0.88
-1.290274114987663
% es.EY (V/m) @ t=0.88
0.40991219569715076
% es.EZ (V/m) @ t=0.88
3.3468197053825355
% es.tEX (V/m) @ t=0.88
-1.2902741149876915
% es.tEY (V/m) @ t=0.88
0
% es.tEZ (V/m) @ t=0.88
3.346819705382538
% es.Ex (V/m) @ t=0.88
-1.290274114987663
% es.Ey (V/m) @ t=0.88
0.40991219569715076
% es.Ez (V/m) @ t=0.88
3.3468197053825355
% es.tEx (V/m) @ t=0.88
-1.2902741149876915
% es.tEy (V/m) @ t=0.88
0
% es.tEz (V/m) @ t=0.88
3.346819705382538
% V (V) @ t=0.88
0.01762448361432694
% es.normE (V/m) @ t=0.9
3.6689487448246054
% es.EX (V/m) @ t=0.9
-1.307753966426243
% es.EY (V/m) @ t=0.9
0.4154647026521747
% es.EZ (V/m) @ t=0.9
3.3921587675904545
% es.tEX (V/m) @ t=0.9
-1.3077539664262572
% es.tEY (V/m) @ t=0.9
0
% es.tEZ (V/m) @ t=0.9
3.3921587675904536
% es.Ex (V/m) @ t=0.9
-1.307753966426243
% es.Ey (V/m) @ t=0.9
0.4154647026521747
% es.Ez (V/m) @ t=0.9
3.3921587675904545
% es.tEx (V/m) @ t=0.9
-1.3077539664262572
% es.tEy (V/m) @ t=0.9
0
% es.tEz (V/m) @ t=0.9
3.3921587675904536
% V (V) @ t=0.9
0.017863214087418113
% es.normE (V/m) @ t=0.92
3.7184984303645625
% es.EX (V/m) @ t=0.92
-1.325415977633651
% es.EY (V/m) @ t=0.92
0.4210750059899966
% es.EZ (V/m) @ t=0.92
3.437970166042983
% es.tEX (V/m) @ t=0.92
-1.3254159776336794
% es.tEY (V/m) @ t=0.92
0
% es.tEZ (V/m) @ t=0.92
3.4379701660429767
% es.Ex (V/m) @ t=0.92
-1.325415977633651
% es.Ey (V/m) @ t=0.92
0.4210750059899966
% es.Ez (V/m) @ t=0.92
3.437970166042983
% es.tEx (V/m) @ t=0.92
-1.3254159776336794
% es.tEy (V/m) @ t=0.92
0
% es.tEz (V/m) @ t=0.92
3.4379701660429767
% V (V) @ t=0.92
0.01810442917838533
% es.normE (V/m) @ t=0.94
3.7685590133693454
% es.EX (V/m) @ t=0.94
-1.3432601486099438
% es.EY (V/m) @ t=0.94
0.4267431057105795
% es.EZ (V/m) @ t=0.94
3.4842539007400903
% es.tEX (V/m) @ t=0.94
-1.343260148609958
% es.tEY (V/m) @ t=0.94
0
% es.tEZ (V/m) @ t=0.94
3.484253900740093
% es.Ex (V/m) @ t=0.94
-1.3432601486099438
% es.Ey (V/m) @ t=0.94
0.4267431057105795
% es.Ez (V/m) @ t=0.94
3.4842539007400903
% es.tEx (V/m) @ t=0.94
-1.343260148609958
% es.tEy (V/m) @ t=0.94
0
% es.tEz (V/m) @ t=0.94
3.484253900740093
% V (V) @ t=0.94
0.018348128887228605
% es.normE (V/m) @ t=0.96
3.8191304938390163
% es.EX (V/m) @ t=0.96
-1.361286479354993
% es.EY (V/m) @ t=0.96
0.4324690018140074
% es.EZ (V/m) @ t=0.96
3.5310099716818097
% es.tEX (V/m) @ t=0.96
-1.3612864793550215
% es.tEY (V/m) @ t=0.96
0
% es.tEZ (V/m) @ t=0.96
3.531009971681808
% es.Ex (V/m) @ t=0.96
-1.361286479354993
% es.Ey (V/m) @ t=0.96
0.4324690018140074
% es.Ez (V/m) @ t=0.96
3.5310099716818097
% es.tEx (V/m) @ t=0.96
-1.3612864793550215
% es.tEy (V/m) @ t=0.96
0
% es.tEz (V/m) @ t=0.96
3.531009971681808
% V (V) @ t=0.96
0.018594313213947923
% es.normE (V/m) @ t=0.98
3.870212871773674
% es.EX (V/m) @ t=0.98
-1.3794949698689625
% es.EY (V/m) @ t=0.98
0.43825269430017055
% es.EZ (V/m) @ t=0.98
3.578238378868118
% es.tEX (V/m) @ t=0.98
-1.379494969868998
% es.tEY (V/m) @ t=0.98
0
% es.tEZ (V/m) @ t=0.98
3.578238378868118
% es.Ex (V/m) @ t=0.98
-1.3794949698689625
% es.Ey (V/m) @ t=0.98
0.43825269430017055
% es.Ez (V/m) @ t=0.98
3.578238378868118
% es.tEx (V/m) @ t=0.98
-1.379494969868998
% es.tEy (V/m) @ t=0.98
0
% es.tEz (V/m) @ t=0.98
3.578238378868118
% V (V) @ t=0.98
0.01884298215854329
% es.normE (V/m) @ t=1
3.921806147173368
% es.EX (V/m) @ t=1
-1.3978856201517316
% es.EY (V/m) @ t=1
0.4440941831691587
% es.EZ (V/m) @ t=1
3.6259391222990214
% es.tEX (V/m) @ t=1
-1.3978856201517458
% es.tEY (V/m) @ t=1
0
% es.tEZ (V/m) @ t=1
3.6259391222990303
% es.Ex (V/m) @ t=1
-1.3978856201517316
% es.Ey (V/m) @ t=1
0.4440941831691587
% es.Ez (V/m) @ t=1
3.6259391222990214
% es.tEx (V/m) @ t=1
-1.3978856201517458
% es.tEy (V/m) @ t=1
0
% es.tEz (V/m) @ t=1
3.6259391222990303
% V (V) @ t=1
0.019094135721014708
% es.normE (V/m) @ t=1.02
3.9739103200381987
% es.EX (V/m) @ t=1.02
-1.4164584302033927
% es.EY (V/m) @ t=1.02
0.4499934684209217
% es.EZ (V/m) @ t=1.02
3.674112201974518
% es.tEX (V/m) @ t=1.02
-1.416458430203421
% es.tEY (V/m) @ t=1.02
0
% es.tEZ (V/m) @ t=1.02
3.67411220197452
% es.Ex (V/m) @ t=1.02
-1.4164584302033927
% es.Ey (V/m) @ t=1.02
0.4499934684209217
% es.Ez (V/m) @ t=1.02
3.674112201974518
% es.tEx (V/m) @ t=1.02
-1.416458430203421
% es.tEy (V/m) @ t=1.02
0
% es.tEz (V/m) @ t=1.02
3.67411220197452
% V (V) @ t=1.02
0.019347773901362175
% es.normE (V/m) @ t=1.04
4.026525390368221
% es.EX (V/m) @ t=1.04
-1.4352134000238386
% es.EY (V/m) @ t=1.04
0.4559505500554626
% es.EZ (V/m) @ t=1.04
3.722757617894615
% es.tEX (V/m) @ t=1.04
-1.4352134000238528
% es.tEY (V/m) @ t=1.04
0
% es.tEZ (V/m) @ t=1.04
3.722757617894615
% es.Ex (V/m) @ t=1.04
-1.4352134000238386