% Model:              1 neuron.mph
% Version:            COMSOL 6.0.0.405
% Date:               Mar 16 2023, 19:12
% Dimension:          0
% Nodes:              14017
% Expressions:        14017
% Description:        Electric field norm, Electric field, X component, Electric field, Y component, Electric field, Z component, Tangential electric field, X component, Tangential electric field, Y component, Tangential electric field, Z component, Electric field, x component, Electric field, y component, Electric field, z component, Tangential electric field, x component, Tangential electric field, y component, Tangential electric field, z component, Electric potential
% Length unit:        mm
% x
1.3300000000000003
% y
12.200000000000001
% z
1.66
% es.normE (V/m) @ t=0
10.981612334460443
% es.EX (V/m) @ t=0
6.9689281377504955
% es.EY (V/m) @ t=0
2.083952052455973
% es.EZ (V/m) @ t=0
-7.633535910751892
% es.tEX (V/m) @ t=0
6.968928137750474
% es.tEY (V/m) @ t=0
0
% es.tEZ (V/m) @ t=0
-7.633535910751878
% es.Ex (V/m) @ t=0
6.9689281377504955
% es.Ey (V/m) @ t=0
2.083952052455973
% es.Ez (V/m) @ t=0
-7.633535910751892
% es.tEx (V/m) @ t=0
6.968928137750474
% es.tEy (V/m) @ t=0
0
% es.tEz (V/m) @ t=0
-7.633535910751878
% V (V) @ t=0
0.009406613240840413
% es.normE (V/m) @ t=0.02
9.537607225169179
% es.EX (V/m) @ t=0.02
6.052563056431738
% es.EY (V/m) @ t=0.02
1.8099269674503482
% es.EZ (V/m) @ t=0.02
-6.629779281646414
% es.tEX (V/m) @ t=0.02
6.052563056431715
% es.tEY (V/m) @ t=0.02
0
% es.tEZ (V/m) @ t=0.02
-6.6297792816463925
% es.Ex (V/m) @ t=0.02
6.052563056431738
% es.Ey (V/m) @ t=0.02
1.8099269674503482
% es.Ez (V/m) @ t=0.02
-6.629779281646414
% es.tEx (V/m) @ t=0.02
6.052563056431715
% es.tEy (V/m) @ t=0.02
0
% es.tEz (V/m) @ t=0.02
-6.6297792816463925
% V (V) @ t=0.02
0.008169709070902071
% es.normE (V/m) @ t=0.04
9.679001549118365
% es.EX (V/m) @ t=0.04
6.142292810225922
% es.EY (V/m) @ t=0.04
1.8367590883520353
% es.EZ (V/m) @ t=0.04
-6.728064554730695
% es.tEX (V/m) @ t=0.04
6.142292810225904
% es.tEY (V/m) @ t=0.04
0
% es.tEZ (V/m) @ t=0.04
-6.72806455473068
% es.Ex (V/m) @ t=0.04
6.142292810225922
% es.Ey (V/m) @ t=0.04
1.8367590883520353
% es.Ez (V/m) @ t=0.04
-6.728064554730695
% es.tEx (V/m) @ t=0.04
6.142292810225904
% es.tEy (V/m) @ t=0.04
0
% es.tEz (V/m) @ t=0.04
-6.72806455473068
% V (V) @ t=0.04
0.00829082195989693
% es.normE (V/m) @ t=0.06
9.822647357327272
% es.EX (V/m) @ t=0.06
6.2334516881850455
% es.EY (V/m) @ t=0.06
1.864018496922344
% es.EZ (V/m) @ t=0.06
-6.827914628300729
% es.tEX (V/m) @ t=0.06
6.233451688185035
% es.tEY (V/m) @ t=0.06
0
% es.tEZ (V/m) @ t=0.06
-6.8279146283007215
% es.Ex (V/m) @ t=0.06
6.2334516881850455
% es.Ey (V/m) @ t=0.06
1.864018496922344
% es.Ez (V/m) @ t=0.06
-6.827914628300729
% es.tEx (V/m) @ t=0.06
6.233451688185035
% es.tEy (V/m) @ t=0.06
0
% es.tEz (V/m) @ t=0.06
-6.8279146283007215
% V (V) @ t=0.06
0.008413862568855205
% es.normE (V/m) @ t=0.08
9.969647186227663
% es.EX (V/m) @ t=0.08
6.326737886003675
% es.EY (V/m) @ t=0.08
1.8919142849074841
% es.EZ (V/m) @ t=0.08
-6.930097005189227
% es.tEX (V/m) @ t=0.08
6.326737886003657
% es.tEY (V/m) @ t=0.08
0
% es.tEZ (V/m) @ t=0.08
-6.930097005189213
% es.Ex (V/m) @ t=0.08
6.326737886003675
% es.Ey (V/m) @ t=0.08
1.8919142849074841
% es.Ez (V/m) @ t=0.08
-6.930097005189227
% es.tEx (V/m) @ t=0.08
6.326737886003657
% es.tEy (V/m) @ t=0.08
0
% es.tEz (V/m) @ t=0.08
-6.930097005189213
% V (V) @ t=0.08
0.008539779088437675
% es.normE (V/m) @ t=0.1
10.119635904814961
% es.EX (V/m) @ t=0.1
6.4219198158329185
% es.EY (V/m) @ t=0.1
1.9203771737082187
% es.EZ (V/m) @ t=0.1
-7.0343577822954515
% es.tEX (V/m) @ t=0.1
6.421919815832908
% es.tEY (V/m) @ t=0.1
0
% es.tEZ (V/m) @ t=0.1
-7.034357782295437
% es.Ex (V/m) @ t=0.1
6.4219198158329185
% es.Ey (V/m) @ t=0.1
1.9203771737082187
% es.Ez (V/m) @ t=0.1
-7.0343577822954515
% es.tEx (V/m) @ t=0.1
6.421919815832908
% es.tEy (V/m) @ t=0.1
0
% es.tEz (V/m) @ t=0.1
-7.034357782295437
% V (V) @ t=0.1
0.008668258436456853
% es.normE (V/m) @ t=0.12
10.2696246234024
% es.EX (V/m) @ t=0.12
6.517101745662159
% es.EY (V/m) @ t=0.12
1.9488400625090039
% es.EZ (V/m) @ t=0.12
-7.13861855940168
% es.tEX (V/m) @ t=0.12
6.517101745662151
% es.tEY (V/m) @ t=0.12
0
% es.tEZ (V/m) @ t=0.12
-7.138618559401666
% es.Ex (V/m) @ t=0.12
6.517101745662159
% es.Ey (V/m) @ t=0.12
1.9488400625090039
% es.Ez (V/m) @ t=0.12
-7.13861855940168
% es.tEx (V/m) @ t=0.12
6.517101745662151
% es.tEy (V/m) @ t=0.12
0
% es.tEz (V/m) @ t=0.12
-7.138618559401666
% V (V) @ t=0.12
0.008796737784476032
% es.normE (V/m) @ t=0.14
10.420544501618695
% es.EX (V/m) @ t=0.14
6.612874511023259
% es.EY (V/m) @ t=0.14
1.9774796478609007
% es.EZ (V/m) @ t=0.14
-7.243526662655904
% es.tEX (V/m) @ t=0.14
6.612874511023247
% es.tEY (V/m) @ t=0.14
0
% es.tEZ (V/m) @ t=0.14
-7.243526662655881
% es.Ex (V/m) @ t=0.14
6.612874511023259
% es.Ey (V/m) @ t=0.14
1.9774796478609007
% es.Ez (V/m) @ t=0.14
-7.243526662655904
% es.tEx (V/m) @ t=0.14
6.612874511023247
% es.tEy (V/m) @ t=0.14
0
% es.tEz (V/m) @ t=0.14
-7.243526662655881
% V (V) @ t=0.14
0.008926014944405722
% es.normE (V/m) @ t=0.16
10.584286390181505
% es.EX (V/m) @ t=0.16
6.716783045019907
% es.EY (V/m) @ t=0.16
2.008552333764494
% es.EZ (V/m) @ t=0.16
-7.357348406827347
% es.tEX (V/m) @ t=0.16
6.716783045019892
% es.tEY (V/m) @ t=0.16
0
% es.tEZ (V/m) @ t=0.16
-7.357348406827332
% es.Ex (V/m) @ t=0.16
6.716783045019907
% es.Ey (V/m) @ t=0.16
2.008552333764494
% es.Ez (V/m) @ t=0.16
-7.357348406827347
% es.tEx (V/m) @ t=0.16
6.716783045019892
% es.tEy (V/m) @ t=0.16
0
% es.tEz (V/m) @ t=0.16
-7.357348406827332
% V (V) @ t=0.16
0.009066277924870532
% es.normE (V/m) @ t=0.18
10.748028278744988
% es.EX (V/m) @ t=0.18
6.82069157901655
% es.EY (V/m) @ t=0.18
2.0396250196680947
% es.EZ (V/m) @ t=0.18
-7.4711701509988035
% es.tEX (V/m) @ t=0.18
6.820691579016532
% es.tEY (V/m) @ t=0.18
0
% es.tEZ (V/m) @ t=0.18
-7.471170150998782
% es.Ex (V/m) @ t=0.18
6.82069157901655
% es.Ey (V/m) @ t=0.18
2.0396250196680947
% es.Ez (V/m) @ t=0.18
-7.4711701509988035
% es.tEx (V/m) @ t=0.18
6.820691579016532
% es.tEy (V/m) @ t=0.18
0
% es.tEz (V/m) @ t=0.18
-7.471170150998782
% V (V) @ t=0.18
0.009206540905335346
% es.normE (V/m) @ t=0.2
10.911770167309122
% es.EX (V/m) @ t=0.2
6.924600113013213
% es.EY (V/m) @ t=0.2
2.0706977055716913
% es.EZ (V/m) @ t=0.2
-7.584991895170248
% es.tEX (V/m) @ t=0.2
6.9246001130131845
% es.tEY (V/m) @ t=0.2
0
% es.tEZ (V/m) @ t=0.2
-7.5849918951702255
% es.Ex (V/m) @ t=0.2
6.924600113013213
% es.Ey (V/m) @ t=0.2
2.0706977055716913
% es.Ez (V/m) @ t=0.2
-7.584991895170248
% es.tEx (V/m) @ t=0.2
6.9246001130131845
% es.tEy (V/m) @ t=0.2
0
% es.tEz (V/m) @ t=0.2
-7.5849918951702255
% V (V) @ t=0.2
0.009346803885800158
% es.normE (V/m) @ t=0.22
11.075512055873844
% es.EX (V/m) @ t=0.22
7.028508647009845
% es.EY (V/m) @ t=0.22
2.1017703914752737
% es.EZ (V/m) @ t=0.22
-7.69881363934169
% es.tEX (V/m) @ t=0.22
7.02850864700983
% es.tEY (V/m) @ t=0.22
0
% es.tEZ (V/m) @ t=0.22
-7.698813639341676
% es.Ex (V/m) @ t=0.22
7.028508647009845
% es.Ey (V/m) @ t=0.22
2.1017703914752737
% es.Ez (V/m) @ t=0.22
-7.69881363934169
% es.tEx (V/m) @ t=0.22
7.02850864700983
% es.tEy (V/m) @ t=0.22
0
% es.tEz (V/m) @ t=0.22
-7.698813639341676
% V (V) @ t=0.22
0.009487066866264968
% es.normE (V/m) @ t=0.24
11.23925394443918
% es.EX (V/m) @ t=0.24
7.132417181006492
% es.EY (V/m) @ t=0.24
2.132843077378878
% es.EZ (V/m) @ t=0.24
-7.812635383513159
% es.tEX (V/m) @ t=0.24
7.13241718100647
% es.tEY (V/m) @ t=0.24
0
% es.tEZ (V/m) @ t=0.24
-7.812635383513137
% es.Ex (V/m) @ t=0.24
7.132417181006492
% es.Ey (V/m) @ t=0.24
2.132843077378878
% es.Ez (V/m) @ t=0.24
-7.812635383513159
% es.tEx (V/m) @ t=0.24
7.13241718100647
% es.tEy (V/m) @ t=0.24
0
% es.tEz (V/m) @ t=0.24
-7.812635383513137
% V (V) @ t=0.24
0.009627329846729782
% es.normE (V/m) @ t=0.26
11.402995833005063
% es.EX (V/m) @ t=0.26
7.236325715003122
% es.EY (V/m) @ t=0.26
2.1639157632824713
% es.EZ (V/m) @ t=0.26
-7.926457127684616
% es.tEX (V/m) @ t=0.26
7.236325715003108
% es.tEY (V/m) @ t=0.26
0
% es.tEZ (V/m) @ t=0.26
-7.926457127684602
% es.Ex (V/m) @ t=0.26
7.236325715003122
% es.Ey (V/m) @ t=0.26
2.1639157632824713
% es.Ez (V/m) @ t=0.26
-7.926457127684616
% es.tEx (V/m) @ t=0.26
7.236325715003108
% es.tEy (V/m) @ t=0.26
0
% es.tEz (V/m) @ t=0.26
-7.926457127684602
% V (V) @ t=0.26
0.009767592827194593
% es.normE (V/m) @ t=0.28
11.568899980002506
% es.EX (V/m) @ t=0.28
7.341606639787139
% es.EY (V/m) @ t=0.28
2.1953987958121575
% es.EZ (V/m) @ t=0.28
-8.041781733557329
% es.tEX (V/m) @ t=0.28
7.341606639787117
% es.tEY (V/m) @ t=0.28
0
% es.tEZ (V/m) @ t=0.28
-8.041781733557308
% es.Ex (V/m) @ t=0.28
7.341606639787139
% es.Ey (V/m) @ t=0.28
2.1953987958121575
% es.Ez (V/m) @ t=0.28
-8.041781733557329
% es.tEx (V/m) @ t=0.28
7.341606639787117
% es.tEy (V/m) @ t=0.28
0
% es.tEz (V/m) @ t=0.28
-8.041781733557308
% V (V) @ t=0.28
0.009909707381223515
% es.normE (V/m) @ t=0.3
11.747497640245573
% es.EX (V/m) @ t=0.3
7.454944168900829
% es.EY (V/m) @ t=0.3
2.2292907634899377
% es.EZ (V/m) @ t=0.3
-8.165928871758943
% es.tEX (V/m) @ t=0.3
7.454944168900793
% es.tEY (V/m) @ t=0.3
0
% es.tEZ (V/m) @ t=0.3
-8.16592887175892
% es.Ex (V/m) @ t=0.3
7.454944168900829
% es.Ey (V/m) @ t=0.3
2.2292907634899377
% es.Ez (V/m) @ t=0.3
-8.165928871758943
% es.tEx (V/m) @ t=0.3
7.454944168900793
% es.tEy (V/m) @ t=0.3
0
% es.tEz (V/m) @ t=0.3
-8.16592887175892
% V (V) @ t=0.3
0.010062691576560734
% es.normE (V/m) @ t=0.32
11.926095300488651
% es.EX (V/m) @ t=0.32
7.568281698014539
% es.EY (V/m) @ t=0.32
2.2631827311677255
% es.EZ (V/m) @ t=0.32
-8.29007600996054
% es.tEX (V/m) @ t=0.32
7.568281698014524
% es.tEY (V/m) @ t=0.32
0
% es.tEZ (V/m) @ t=0.32
-8.290076009960533
% es.Ex (V/m) @ t=0.32
7.568281698014539
% es.Ey (V/m) @ t=0.32
2.2631827311677255
% es.Ez (V/m) @ t=0.32
-8.29007600996054
% es.tEx (V/m) @ t=0.32
7.568281698014524
% es.tEy (V/m) @ t=0.32
0
% es.tEz (V/m) @ t=0.32
-8.290076009960533
% V (V) @ t=0.32
0.010215675771897954
% es.normE (V/m) @ t=0.34
12.104692960731752
% es.EX (V/m) @ t=0.34
7.681619227128264
% es.EY (V/m) @ t=0.34
2.2970746988454636
% es.EZ (V/m) @ t=0.34
-8.414223148162138
% es.tEX (V/m) @ t=0.34
7.681619227128249
% es.tEY (V/m) @ t=0.34
0
% es.tEZ (V/m) @ t=0.34
-8.414223148162124
% es.Ex (V/m) @ t=0.34
7.681619227128264
% es.Ey (V/m) @ t=0.34
2.2970746988454636
% es.Ez (V/m) @ t=0.34
-8.414223148162138
% es.tEx (V/m) @ t=0.34
7.681619227128249
% es.tEy (V/m) @ t=0.34
0
% es.tEz (V/m) @ t=0.34
-8.414223148162124
% V (V) @ t=0.34
0.010368659967235174
% es.normE (V/m) @ t=0.36
12.28329062097486
% es.EX (V/m) @ t=0.36
7.794956756241964
% es.EY (V/m) @ t=0.36
2.330966666523194
% es.EZ (V/m) @ t=0.36
-8.538370286363755
% es.tEX (V/m) @ t=0.36
7.794956756241946
% es.tEY (V/m) @ t=0.36
0
% es.tEZ (V/m) @ t=0.36
-8.538370286363733
% es.Ex (V/m) @ t=0.36
7.794956756241964
% es.Ey (V/m) @ t=0.36
2.330966666523194
% es.Ez (V/m) @ t=0.36
-8.538370286363755
% es.tEx (V/m) @ t=0.36
7.794956756241946
% es.tEy (V/m) @ t=0.36
0
% es.tEz (V/m) @ t=0.36
-8.538370286363733
% V (V) @ t=0.36
0.010521644162572393
% es.normE (V/m) @ t=0.38
12.461888281217952
% es.EX (V/m) @ t=0.38
7.908294285355657
% es.EY (V/m) @ t=0.38
2.364858634200999
% es.EZ (V/m) @ t=0.38
-8.662517424565335
% es.tEX (V/m) @ t=0.38
7.908294285355656
% es.tEY (V/m) @ t=0.38
0
% es.tEZ (V/m) @ t=0.38
-8.662517424565328
% es.Ex (V/m) @ t=0.38
7.908294285355657
% es.Ey (V/m) @ t=0.38
2.364858634200999
% es.Ez (V/m) @ t=0.38
-8.662517424565335
% es.tEx (V/m) @ t=0.38
7.908294285355656
% es.tEy (V/m) @ t=0.38
0
% es.tEz (V/m) @ t=0.38
-8.662517424565328
% V (V) @ t=0.38
0.010674628357909614
% es.normE (V/m) @ t=0.4
12.64048594146108
% es.EX (V/m) @ t=0.4
8.021631814469362
% es.EY (V/m) @ t=0.4
2.3987506018787688
% es.EZ (V/m) @ t=0.4
-8.786664562766944
% es.tEX (V/m) @ t=0.4
8.021631814469346
% es.tEY (V/m) @ t=0.4
0
% es.tEZ (V/m) @ t=0.4
-8.786664562766937
% es.Ex (V/m) @ t=0.4
8.021631814469362
% es.Ey (V/m) @ t=0.4
2.3987506018787688
% es.Ez (V/m) @ t=0.4
-8.786664562766944
% es.tEx (V/m) @ t=0.4
8.021631814469346
% es.tEy (V/m) @ t=0.4
0
% es.tEz (V/m) @ t=0.4
-8.786664562766937
% V (V) @ t=0.4
0.010827612553246832
% es.normE (V/m) @ t=0.42
12.822654222749215
% es.EX (V/m) @ t=0.42
8.137236174412678
% es.EY (V/m) @ t=0.42
2.433320241910108
% es.EZ (V/m) @ t=0.42
-8.913293022725668
% es.tEX (V/m) @ t=0.42
8.13723617441267
% es.tEY (V/m) @ t=0.42
0
% es.tEZ (V/m) @ t=0.42
-8.913293022725645
% es.Ex (V/m) @ t=0.42
8.137236174412678
% es.Ey (V/m) @ t=0.42
2.433320241910108
% es.Ez (V/m) @ t=0.42
-8.913293022725668
% es.tEx (V/m) @ t=0.42
8.13723617441267
% es.tEy (V/m) @ t=0.42
0
% es.tEz (V/m) @ t=0.42
-8.913293022725645
% V (V) @ t=0.42
0.010983652913722356
% es.normE (V/m) @ t=0.44
13.017235323294791
% es.EX (V/m) @ t=0.44
8.2607208893469
% es.EY (V/m) @ t=0.44
2.470245725458167
% es.EZ (V/m) @ t=0.44
-9.048547488664566
% es.tEX (V/m) @ t=0.44
8.260720889346887
% es.tEY (V/m) @ t=0.44
0
% es.tEZ (V/m) @ t=0.44
-9.048547488664545
% es.Ex (V/m) @ t=0.44
8.2607208893469
% es.Ey (V/m) @ t=0.44
2.470245725458167
% es.Ez (V/m) @ t=0.44
-9.048547488664566
% es.tEx (V/m) @ t=0.44
8.260720889346887
% es.tEy (V/m) @ t=0.44
0
% es.tEz (V/m) @ t=0.44
-9.048547488664545
% V (V) @ t=0.44
0.01115031765158237
% es.normE (V/m) @ t=0.46
13.211816423842384
% es.EX (V/m) @ t=0.46
8.384205604281107
% es.EY (V/m) @ t=0.46
2.5071712090062612
% es.EZ (V/m) @ t=0.46
-9.183801954603508
% es.tEX (V/m) @ t=0.46
8.384205604281089
% es.tEY (V/m) @ t=0.46
0
% es.tEZ (V/m) @ t=0.46
-9.183801954603487
% es.Ex (V/m) @ t=0.46
8.384205604281107
% es.Ey (V/m) @ t=0.46
2.5071712090062612
% es.Ez (V/m) @ t=0.46
-9.183801954603508
% es.tEx (V/m) @ t=0.46
8.384205604281089
% es.tEy (V/m) @ t=0.46
0
% es.tEz (V/m) @ t=0.46
-9.183801954603487
% V (V) @ t=0.46
0.011316982389442384
% es.normE (V/m) @ t=0.48
13.406397524391867
% es.EX (V/m) @ t=0.48
8.507690319215339
% es.EY (V/m) @ t=0.48
2.5440966925543167
% es.EZ (V/m) @ t=0.48
-9.319056420542408
% es.tEX (V/m) @ t=0.48
8.507690319215333
% es.tEY (V/m) @ t=0.48
0
% es.tEZ (V/m) @ t=0.48
-9.319056420542378
% es.Ex (V/m) @ t=0.48
8.507690319215339
% es.Ey (V/m) @ t=0.48
2.5440966925543167
% es.Ez (V/m) @ t=0.48
-9.319056420542408
% es.tEx (V/m) @ t=0.48
8.507690319215333
% es.tEy (V/m) @ t=0.48
0
% es.tEz (V/m) @ t=0.48
-9.319056420542378
% V (V) @ t=0.48
0.011483647127302397
% es.normE (V/m) @ t=0.5
13.600978624943188
% es.EX (V/m) @ t=0.5
8.63117503414957
% es.EY (V/m) @ t=0.5
2.581022176102425
% es.EZ (V/m) @ t=0.5
-9.454310886481329
% es.tEX (V/m) @ t=0.5
8.631175034149535
% es.tEY (V/m) @ t=0.5
0
% es.tEZ (V/m) @ t=0.5
-9.454310886481313
% es.Ex (V/m) @ t=0.5
8.63117503414957
% es.Ey (V/m) @ t=0.5
2.581022176102425
% es.Ez (V/m) @ t=0.5
-9.454310886481329
% es.tEx (V/m) @ t=0.5
8.631175034149535
% es.tEy (V/m) @ t=0.5
0
% es.tEz (V/m) @ t=0.5
-9.454310886481313
% V (V) @ t=0.5
0.011650311865162414
% es.normE (V/m) @ t=0.52
13.795559725496226
% es.EX (V/m) @ t=0.52
8.754659749083771
% es.EY (V/m) @ t=0.52
2.6179476596505373
% es.EZ (V/m) @ t=0.52
-9.589565352420227
% es.tEX (V/m) @ t=0.52
8.75465974908374
% es.tEY (V/m) @ t=0.52
0
% es.tEZ (V/m) @ t=0.52
-9.589565352420198
% es.Ex (V/m) @ t=0.52
8.754659749083771
% es.Ey (V/m) @ t=0.52
2.6179476596505373
% es.Ez (V/m) @ t=0.52
-9.589565352420227
% es.tEx (V/m) @ t=0.52
8.75465974908374
% es.tEy (V/m) @ t=0.52
0
% es.tEz (V/m) @ t=0.52
-9.589565352420198
% V (V) @ t=0.52
0.011816976603022427
% es.normE (V/m) @ t=0.54
13.990140826050977
% es.EX (V/m) @ t=0.54
8.878144464017987
% es.EY (V/m) @ t=0.54
2.6548731431985853
% es.EZ (V/m) @ t=0.54
-9.724819818359169
% es.tEX (V/m) @ t=0.54
8.878144464017968
% es.tEY (V/m) @ t=0.54
0
% es.tEZ (V/m) @ t=0.54
-9.72481981835914
% es.Ex (V/m) @ t=0.54
8.878144464017987
% es.Ey (V/m) @ t=0.54
2.6548731431985853
% es.Ez (V/m) @ t=0.54
-9.724819818359169
% es.tEx (V/m) @ t=0.54
8.878144464017968
% es.tEy (V/m) @ t=0.54
0
% es.tEz (V/m) @ t=0.54
-9.72481981835914
% V (V) @ t=0.54
0.01198364134088244
% es.normE (V/m) @ t=0.56
14.186845193009777
% es.EX (V/m) @ t=0.56
9.002977498199986
% es.EY (V/m) @ t=0.56
2.6922016372547244
% es.EZ (V/m) @ t=0.56
-9.861549537216998
% es.tEX (V/m) @ t=0.56
9.00297749819996
% es.tEY (V/m) @ t=0.56
0
% es.tEZ (V/m) @ t=0.56
-9.861549537216968
% es.Ex (V/m) @ t=0.56
9.002977498199986
% es.Ey (V/m) @ t=0.56
2.6922016372547244
% es.Ez (V/m) @ t=0.56
-9.861549537216998
% es.tEx (V/m) @ t=0.56
9.00297749819996
% es.tEy (V/m) @ t=0.56
0
% es.tEz (V/m) @ t=0.56
-9.861549537216968
% V (V) @ t=0.56
0.012152122523146161
% es.normE (V/m) @ t=0.58
14.38974443477833
% es.EX (V/m) @ t=0.58
9.131744409415832
% es.EY (V/m) @ t=0.58
2.7307059609853557
% es.EZ (V/m) @ t=0.58
-10.002583476745585
% es.tEX (V/m) @ t=0.58
9.131744409415827
% es.tEY (V/m) @ t=0.58
0
% es.tEZ (V/m) @ t=0.58
-10.002583476745563
% es.Ex (V/m) @ t=0.58
9.131744409415832
% es.Ey (V/m) @ t=0.58
2.7307059609853557
% es.Ez (V/m) @ t=0.58
-10.002583476745585
% es.tEx (V/m) @ t=0.58
9.131744409415827
% es.tEy (V/m) @ t=0.58
0
% es.tEz (V/m) @ t=0.58
-10.002583476745563
% V (V) @ t=0.58
0.01232590339161916
% es.normE (V/m) @ t=0.6
14.594595230184796
% es.EX (V/m) @ t=0.6
9.261750598623387
% es.EY (V/m) @ t=0.6
2.7695807029636454
% es.EZ (V/m) @ t=0.6
-10.144973362558854
% es.tEX (V/m) @ t=0.6
9.261750598623353
% es.tEY (V/m) @ t=0.6
0
% es.tEZ (V/m) @ t=0.6
-10.144973362558826
% es.Ex (V/m) @ t=0.6
9.261750598623387
% es.Ey (V/m) @ t=0.6
2.7695807029636454
% es.Ez (V/m) @ t=0.6
-10.144973362558854
% es.tEx (V/m) @ t=0.6
9.261750598623353
% es.tEy (V/m) @ t=0.6
0
% es.tEz (V/m) @ t=0.6
-10.144973362558826
% V (V) @ t=0.6
0.01250135380502846
% es.normE (V/m) @ t=0.62
14.801397579231203
% es.EX (V/m) @ t=0.62
9.392996065822617
% es.EY (V/m) @ t=0.62
2.8088258631896266
% es.EZ (V/m) @ t=0.62
-10.288719194656807
% es.tEX (V/m) @ t=0.62
9.392996065822597
% es.tEY (V/m) @ t=0.62
0
% es.tEZ (V/m) @ t=0.62
-10.288719194656792
% es.Ex (V/m) @ t=0.62
9.392996065822617
% es.Ey (V/m) @ t=0.62
2.8088258631896266
% es.Ez (V/m) @ t=0.62
-10.288719194656807
% es.tEx (V/m) @ t=0.62
9.392996065822597
% es.tEy (V/m) @ t=0.62
0
% es.tEz (V/m) @ t=0.62
-10.288719194656792
% V (V) @ t=0.62
0.012678473763374054
% es.normE (V/m) @ t=0.64
15.010151481919703
% es.EX (V/m) @ t=0.64
9.525480811013527
% es.EY (V/m) @ t=0.64
2.848441441663269
% es.EZ (V/m) @ t=0.64
-10.43382097303948
% es.tEX (V/m) @ t=0.64
9.525480811013496
% es.tEY (V/m) @ t=0.64
0
% es.tEZ (V/m) @ t=0.64
-10.43382097303946
% es.Ex (V/m) @ t=0.64
9.525480811013527
% es.Ey (V/m) @ t=0.64
2.848441441663269
% es.Ez (V/m) @ t=0.64
-10.43382097303948
% es.tEx (V/m) @ t=0.64
9.525480811013496
% es.tEy (V/m) @ t=0.64
0
% es.tEz (V/m) @ t=0.64
-10.43382097303946
% V (V) @ t=0.64
0.012857263266655945
% es.normE (V/m) @ t=0.66
15.220856938252552
% es.EX (V/m) @ t=0.66
9.659204834196093
% es.EY (V/m) @ t=0.66
2.8884274383845954
% es.EZ (V/m) @ t=0.66
-10.580278697706857
% es.tEX (V/m) @ t=0.66
9.659204834196087
% es.tEY (V/m) @ t=0.66
0
% es.tEZ (V/m) @ t=0.66
-10.580278697706829
% es.Ex (V/m) @ t=0.66
9.659204834196093
% es.Ey (V/m) @ t=0.66
2.8884274383845954
% es.Ez (V/m) @ t=0.66
-10.580278697706857
% es.tEx (V/m) @ t=0.66
9.659204834196087
% es.tEy (V/m) @ t=0.66
0
% es.tEz (V/m) @ t=0.66
-10.580278697706829
% V (V) @ t=0.66
0.013037722314874128
% es.normE (V/m) @ t=0.68
15.433513948232111
% es.EX (V/m) @ t=0.68
9.794168135370358
% es.EY (V/m) @ t=0.68
2.928783853353623
% es.EZ (V/m) @ t=0.68
-10.728092368658888
% es.tEX (V/m) @ t=0.68
9.794168135370327
% es.tEY (V/m) @ t=0.68
0
% es.tEZ (V/m) @ t=0.68
-10.728092368658867
% es.Ex (V/m) @ t=0.68
9.794168135370358
% es.Ey (V/m) @ t=0.68
2.928783853353623
% es.Ez (V/m) @ t=0.68
-10.728092368658888
% es.tEx (V/m) @ t=0.68
9.794168135370327
% es.tEy (V/m) @ t=0.68
0
% es.tEz (V/m) @ t=0.68
-10.728092368658867
% V (V) @ t=0.68
0.013219850908028609
% es.normE (V/m) @ t=0.7
15.648122511860853
% es.EX (V/m) @ t=0.7
9.930370714536288
% es.EY (V/m) @ t=0.7
2.9695106865703487
% es.EZ (V/m) @ t=0.7
-10.877261985895661
% es.tEX (V/m) @ t=0.7
9.930370714536263
% es.tEY (V/m) @ t=0.7
0
% es.tEZ (V/m) @ t=0.7
-10.87726198589564
% es.Ex (V/m) @ t=0.7
9.930370714536288
% es.Ey (V/m) @ t=0.7
2.9695106865703487
% es.Ez (V/m) @ t=0.7
-10.877261985895661
% es.tEx (V/m) @ t=0.7
9.930370714536263
% es.tEy (V/m) @ t=0.7
0
% es.tEz (V/m) @ t=0.7
-10.87726198589564
% V (V) @ t=0.7
0.013403649046119386
% es.normE (V/m) @ t=0.72
15.864682629141292
% es.EX (V/m) @ t=0.72
10.067812571693889
% es.EY (V/m) @ t=0.72
3.0106079380347324
% es.EZ (V/m) @ t=0.72
-11.02778754941708
% es.tEX (V/m) @ t=0.72
10.067812571693857
% es.tEY (V/m) @ t=0.72
0
% es.tEZ (V/m) @ t=0.72
-11.02778754941706
% es.Ex (V/m) @ t=0.72
10.067812571693889
% es.Ey (V/m) @ t=0.72
3.0106079380347324
% es.Ez (V/m) @ t=0.72
-11.02778754941708
% es.tEx (V/m) @ t=0.72
10.067812571693857
% es.tEy (V/m) @ t=0.72
0
% es.tEz (V/m) @ t=0.72
-11.02778754941706
% V (V) @ t=0.72
0.013589116729146459
% es.normE (V/m) @ t=0.74
16.083194300076062
% es.EX (V/m) @ t=0.74
10.206493706843162
% es.EY (V/m) @ t=0.74
3.0520756077468354
% es.EZ (V/m) @ t=0.74
-11.179669059223214
% es.tEX (V/m) @ t=0.74
10.20649370684313
% es.tEY (V/m) @ t=0.74
0
% es.tEZ (V/m) @ t=0.74
-11.179669059223183
% es.Ex (V/m) @ t=0.74
10.206493706843162
% es.Ey (V/m) @ t=0.74
3.0520756077468354
% es.Ez (V/m) @ t=0.74
-11.179669059223214
% es.tEx (V/m) @ t=0.74
10.20649370684313
% es.tEy (V/m) @ t=0.74
0
% es.tEz (V/m) @ t=0.74
-11.179669059223183
% V (V) @ t=0.74
0.013776253957109828
% es.normE (V/m) @ t=0.76
16.30365752466785
% es.EX (V/m) @ t=0.76
10.346414119984113
% es.EY (V/m) @ t=0.76
3.093913695706551
% es.EZ (V/m) @ t=0.76
-11.332906515314056
% es.tEX (V/m) @ t=0.76
10.346414119984086
% es.tEY (V/m) @ t=0.76
0
% es.tEZ (V/m) @ t=0.76
-11.332906515314027
% es.Ex (V/m) @ t=0.76
10.346414119984113
% es.Ey (V/m) @ t=0.76
3.093913695706551
% es.Ez (V/m) @ t=0.76
-11.332906515314056
% es.tEx (V/m) @ t=0.76
10.346414119984086
% es.tEy (V/m) @ t=0.76
0
% es.tEz (V/m) @ t=0.76
-11.332906515314027
% V (V) @ t=0.76
0.013965060730009492
% es.normE (V/m) @ t=0.78
16.526072302919378
% es.EX (V/m) @ t=0.78
10.487573811116736
% es.EY (V/m) @ t=0.78
3.136122201914014
% es.EZ (V/m) @ t=0.78
-11.487499917689561
% es.tEX (V/m) @ t=0.78
10.487573811116718
% es.tEY (V/m) @ t=0.78
0
% es.tEZ (V/m) @ t=0.78
-11.487499917689533
% es.Ex (V/m) @ t=0.78
10.487573811116736
% es.Ey (V/m) @ t=0.78
3.136122201914014
% es.Ez (V/m) @ t=0.78
-11.487499917689561
% es.tEx (V/m) @ t=0.78
10.487573811116718
% es.tEy (V/m) @ t=0.78
0
% es.tEz (V/m) @ t=0.78
-11.487499917689533
% V (V) @ t=0.78
0.014155537047845449
% es.normE (V/m) @ t=0.8
16.75043863483348
% es.EX (V/m) @ t=0.8
10.629972780241046
% es.EY (V/m) @ t=0.8
3.178701126369139
% es.EZ (V/m) @ t=0.8
-11.64344926634978
% es.tEX (V/m) @ t=0.8
10.629972780241012
% es.tEY (V/m) @ t=0.8
0
% es.tEZ (V/m) @ t=0.8
-11.643449266349764
% es.Ex (V/m) @ t=0.8
10.629972780241046
% es.Ey (V/m) @ t=0.8
3.178701126369139
% es.Ez (V/m) @ t=0.8
-11.64344926634978
% es.tEx (V/m) @ t=0.8
10.629972780241012
% es.tEy (V/m) @ t=0.8
0
% es.tEz (V/m) @ t=0.8
-11.643449266349764
% V (V) @ t=0.8
0.014347682910617708
% es.normE (V/m) @ t=0.82
16.976756520412973
% es.EX (V/m) @ t=0.82
10.773611027357013
% es.EY (V/m) @ t=0.82
3.2216504690719265
% es.EZ (V/m) @ t=0.82
-11.80075456129472
% es.tEX (V/m) @ t=0.82
10.773611027356996
% es.tEY (V/m) @ t=0.82
0
% es.tEZ (V/m) @ t=0.82
-11.800754561294706
% es.Ex (V/m) @ t=0.82
10.773611027357013
% es.Ey (V/m) @ t=0.82
3.2216504690719265
% es.Ez (V/m) @ t=0.82
-11.80075456129472
% es.tEx (V/m) @ t=0.82
10.773611027356996
% es.tEy (V/m) @ t=0.82
0
% es.tEz (V/m) @ t=0.82
-11.800754561294706
% V (V) @ t=0.82
0.014541498318326258
% es.normE (V/m) @ t=0.84
17.206849391910946
% es.EX (V/m) @ t=0.84
10.919640980720265
% es.EY (V/m) @ t=0.84
3.265315817239017
% es.EZ (V/m) @ t=0.84
-11.960686849684915
% es.tEX (V/m) @ t=0.84
10.919640980720246
% es.tEY (V/m) @ t=0.84
0
% es.tEZ (V/m) @ t=0.84
-11.960686849684873
% es.Ex (V/m) @ t=0.84
10.919640980720265
% es.Ey (V/m) @ t=0.84
3.265315817239017
% es.Ez (V/m) @ t=0.84
-11.960686849684915
% es.tEx (V/m) @ t=0.84
10.919640980720246
% es.tEy (V/m) @ t=0.84
0
% es.tEz (V/m) @ t=0.84
-11.960686849684873
% V (V) @ t=0.84
0.014738557315960962
% es.normE (V/m) @ t=0.86
17.441467543247878
% es.EX (V/m) @ t=0.86
11.068536833945918
% es.EY (V/m) @ t=0.86
3.309839370830149
% es.EZ (V/m) @ t=0.86
-12.123769133664082
% es.tEX (V/m) @ t=0.86
11.068536833945892
% es.tEY (V/m) @ t=0.86
0
% es.tEZ (V/m) @ t=0.86
-12.123769133664052
% es.Ex (V/m) @ t=0.86
11.068536833945918
% es.Ey (V/m) @ t=0.86
3.309839370830149
% es.Ez (V/m) @ t=0.86
-12.123769133664082
% es.tEx (V/m) @ t=0.86
11.068536833945892
% es.tEy (V/m) @ t=0.86
0
% es.tEz (V/m) @ t=0.86
-12.123769133664052
% V (V) @ t=0.86
0.0149395075812237
% es.normE (V/m) @ t=0.88
17.678595328066883
% es.EX (V/m) @ t=0.88
11.219024677456733
% es.EY (V/m) @ t=0.88
3.3548391131229867
% es.EZ (V/m) @ t=0.88
-12.288596380733942
% es.tEX (V/m) @ t=0.88
11.219024677456702
% es.tEY (V/m) @ t=0.88
0
% es.tEZ (V/m) @ t=0.88
-12.288596380733921
% es.Ex (V/m) @ t=0.88
11.219024677456733
% es.Ey (V/m) @ t=0.88
3.3548391131229867
% es.Ez (V/m) @ t=0.88
-12.288596380733942
% es.tEx (V/m) @ t=0.88
11.219024677456702
% es.tEy (V/m) @ t=0.88
0
% es.tEz (V/m) @ t=0.88
-12.288596380733921
% V (V) @ t=0.88
0.01514260914377107
% es.normE (V/m) @ t=0.9
17.91823274636711
% es.EX (V/m) @ t=0.9
11.371104511252737
% es.EY (V/m) @ t=0.9
3.4003150441174492
% es.EZ (V/m) @ t=0.9
-12.455168590894521
% es.tEX (V/m) @ t=0.9
11.37110451125271
% es.tEY (V/m) @ t=0.9
0
% es.tEZ (V/m) @ t=0.9
-12.455168590894491
% es.Ex (V/m) @ t=0.9
11.371104511252737
% es.Ey (V/m) @ t=0.9
3.4003150441174492
% es.Ez (V/m) @ t=0.9
-12.455168590894521
% es.tEx (V/m) @ t=0.9
11.37110451125271
% es.tEy (V/m) @ t=0.9
0
% es.tEz (V/m) @ t=0.9
-12.455168590894491
% V (V) @ t=0.9
0.015347862003603076
% es.normE (V/m) @ t=0.92
18.160379798147794
% es.EX (V/m) @ t=0.92
11.524776335333854
% es.EY (V/m) @ t=0.92
3.4462671638135447
% es.EZ (V/m) @ t=0.92
-12.623485764145805
% es.tEX (V/m) @ t=0.92
11.524776335333831
% es.tEY (V/m) @ t=0.92
0
% es.tEZ (V/m) @ t=0.92
-12.623485764145789
% es.Ex (V/m) @ t=0.92
11.524776335333854
% es.Ey (V/m) @ t=0.92
3.4462671638135447
% es.Ez (V/m) @ t=0.92
-12.623485764145805
% es.tEx (V/m) @ t=0.92
11.524776335333831
% es.tEy (V/m) @ t=0.92
0
% es.tEz (V/m) @ t=0.92
-12.623485764145789
% V (V) @ t=0.92
0.01555526616071972
% es.normE (V/m) @ t=0.94
18.405036483408473
% es.EX (V/m) @ t=0.94
11.680040149700162
% es.EY (V/m) @ t=0.94
3.4926954722113877
% es.EZ (V/m) @ t=0.94
-12.793547900487804
% es.tEX (V/m) @ t=0.94
11.680040149700142
% es.tEY (V/m) @ t=0.94
0
% es.tEZ (V/m) @ t=0.94
-12.793547900487775
% es.Ex (V/m) @ t=0.94
11.680040149700162
% es.Ey (V/m) @ t=0.94
3.4926954722113877
% es.Ez (V/m) @ t=0.94
-12.793547900487804
% es.tEx (V/m) @ t=0.94
11.680040149700142
% es.tEy (V/m) @ t=0.94
0
% es.tEz (V/m) @ t=0.94
-12.793547900487775
% V (V) @ t=0.94
0.015764821615121
% es.normE (V/m) @ t=0.96
18.65220280214868
% es.EX (V/m) @ t=0.96
11.836895954351608
% es.EY (V/m) @ t=0.96
3.5395999693107862
% es.EZ (V/m) @ t=0.96
-12.965354999920542
% es.tEX (V/m) @ t=0.96
11.83689595435159
% es.tEY (V/m) @ t=0.96
0
% es.tEZ (V/m) @ t=0.96
-12.9653549999205
% es.Ex (V/m) @ t=0.96
11.836895954351608
% es.Ey (V/m) @ t=0.96
3.5395999693107862
% es.Ez (V/m) @ t=0.96
-12.965354999920542
% es.tEx (V/m) @ t=0.96
11.83689595435159
% es.tEy (V/m) @ t=0.96
0
% es.tEz (V/m) @ t=0.96
-12.9653549999205
% V (V) @ t=0.96
0.01597652836680692
% es.normE (V/m) @ t=0.98
18.901878754368138
% es.EX (V/m) @ t=0.98
11.995343749288264
% es.EY (V/m) @ t=0.98
3.5869806551118746
% es.EZ (V/m) @ t=0.98
-13.138907062443906
% es.tEX (V/m) @ t=0.98
11.995343749288239
% es.tEY (V/m) @ t=0.98
0
% es.tEZ (V/m) @ t=0.98
-13.138907062443877
% es.Ex (V/m) @ t=0.98
11.995343749288264
% es.Ey (V/m) @ t=0.98
3.5869806551118746
% es.Ez (V/m) @ t=0.98
-13.138907062443906
% es.tEx (V/m) @ t=0.98
11.995343749288239
% es.tEy (V/m) @ t=0.98
0
% es.tEz (V/m) @ t=0.98
-13.138907062443877
% V (V) @ t=0.98
0.016190386415777473
% es.normE (V/m) @ t=1
19.154064340066768
% es.EX (V/m) @ t=1
12.155383534510026
% es.EY (V/m) @ t=1
3.6348375296146465
% es.EZ (V/m) @ t=1
-13.314204088058002
% es.tEX (V/m) @ t=1
12.155383534509994
% es.tEY (V/m) @ t=1
0
% es.tEZ (V/m) @ t=1
-13.314204088057974
% es.Ex (V/m) @ t=1
12.155383534510026
% es.Ey (V/m) @ t=1
3.6348375296146465
% es.Ez (V/m) @ t=1
-13.314204088058002
% es.tEx (V/m) @ t=1
12.155383534509994
% es.tEy (V/m) @ t=1
0
% es.tEz (V/m) @ t=1
-13.314204088057974
% V (V) @ t=1
0.016406395762032663
% es.normE (V/m) @ t=1.02
19.408759559244587
% es.EX (V/m) @ t=1.02
12.317015310016957
% es.EY (V/m) @ t=1.02
3.683170592819115
% es.EZ (V/m) @ t=1.02
-13.491246076762836
% es.tEX (V/m) @ t=1.02
12.317015310016941
% es.tEY (V/m) @ t=1.02
0
% es.tEZ (V/m) @ t=1.02
-13.491246076762806
% es.Ex (V/m) @ t=1.02
12.317015310016957
% es.Ey (V/m) @ t=1.02
3.683170592819115
% es.Ez (V/m) @ t=1.02
-13.491246076762836
% es.tEx (V/m) @ t=1.02
12.317015310016941
% es.tEy (V/m) @ t=1.02
0
% es.tEz (V/m) @ t=1.02
-13.491246076762806
% V (V) @ t=1.02
0.01662455640557249
% es.normE (V/m) @ t=1.04
19.665964411901676
% es.EX (V/m) @ t=1.04
12.480239075809093
% es.EY (V/m) @ t=1.04
3.731979844725111
% es.EZ (V/m) @ t=1.04
-13.670033028558326
% es.tEX (V/m) @ t=1.04
12.480239075809084
% es.tEY (V/m) @ t=1.04
0
% es.tEZ (V/m) @ t=1.04
-13.670033028558295
% es.Ex (V/m) @ t=1.04
12.480239075809093
% es.Ey (V/m) @ t=1.04
3.731979844725111
% es.Ez (V/m) @ t=1.04
-13.670033028558326
% es.tEx (V/m) @ t=1.04
12.480239075809084
% es.tEy (V/m) @ t=1.04
0
% es.tEz (V/m) @ t=1.04
-13.670033028558295
% V (V) @ t=1.04