% Model:              1 neuron.mph
% Version:            COMSOL 6.0.0.405
% Date:               Mar 16 2023, 19:20
% Dimension:          0
% Nodes:              14017
% Expressions:        14017
% Description:        Electric field norm, Electric field, X component, Electric field, Y component, Electric field, Z component, Tangential electric field, X component, Tangential electric field, Y component, Tangential electric field, Z component, Electric field, x component, Electric field, y component, Electric field, z component, Tangential electric field, x component, Tangential electric field, y component, Tangential electric field, z component, Electric potential
% Length unit:        mm
% x
1.33
% y
12.2
% z
2
% es.normE (V/m) @ t=0
2.2352775589242437
% es.EX (V/m) @ t=0
0.8908448698264384
% es.EY (V/m) @ t=0
0.23552220919419398
% es.EZ (V/m) @ t=0
-2.034706554174515
% es.tEX (V/m) @ t=0
0.8908448698264353
% es.tEY (V/m) @ t=0
0
% es.tEZ (V/m) @ t=0
-2.0347065541745213
% es.Ex (V/m) @ t=0
0.8908448698264384
% es.Ey (V/m) @ t=0
0.23552220919419398
% es.Ez (V/m) @ t=0
-2.034706554174515
% es.tEx (V/m) @ t=0
0.8908448698264353
% es.tEy (V/m) @ t=0
0
% es.tEz (V/m) @ t=0
-2.0347065541745213
% V (V) @ t=0
0.011176597467324169
% es.normE (V/m) @ t=0.02
1.9413562828569684
% es.EX (V/m) @ t=0.02
0.7737058314477032
% es.EY (V/m) @ t=0.02
0.20455292763028687
% es.EZ (V/m) @ t=0.02
-1.7671587737031613
% es.tEX (V/m) @ t=0.02
0.7737058314477001
% es.tEY (V/m) @ t=0.02
0
% es.tEZ (V/m) @ t=0.02
-1.7671587737031658
% es.Ex (V/m) @ t=0.02
0.7737058314477032
% es.Ey (V/m) @ t=0.02
0.20455292763028687
% es.Ez (V/m) @ t=0.02
-1.7671587737031613
% es.tEx (V/m) @ t=0.02
0.7737058314477001
% es.tEy (V/m) @ t=0.02
0
% es.tEz (V/m) @ t=0.02
-1.7671587737031658
% V (V) @ t=0.02
0.009706963072440435
% es.normE (V/m) @ t=0.04
1.97014269123379
% es.EX (V/m) @ t=0.04
0.7851783297164827
% es.EY (V/m) @ t=0.04
0.20758608356260044
% es.EZ (V/m) @ t=0.04
-1.7933621806747349
% es.tEX (V/m) @ t=0.04
0.7851783297164832
% es.tEY (V/m) @ t=0.04
0
% es.tEZ (V/m) @ t=0.04
-1.793362180674734
% es.Ex (V/m) @ t=0.04
0.7851783297164827
% es.Ey (V/m) @ t=0.04
0.20758608356260044
% es.Ez (V/m) @ t=0.04
-1.7933621806747349
% es.tEx (V/m) @ t=0.04
0.7851783297164832
% es.tEy (V/m) @ t=0.04
0
% es.tEz (V/m) @ t=0.04
-1.793362180674734
% V (V) @ t=0.04
0.009850896829425875
% es.normE (V/m) @ t=0.06
1.9993596042543542
% es.EX (V/m) @ t=0.06
0.7968224054070852
% es.EY (V/m) @ t=0.06
0.21066452212355546
% es.EZ (V/m) @ t=0.06
-1.819957467722749
% es.tEX (V/m) @ t=0.06
0.7968224054070818
% es.tEY (V/m) @ t=0.06
0
% es.tEZ (V/m) @ t=0.06
-1.81995746772275
% es.Ex (V/m) @ t=0.06
0.7968224054070852
% es.Ey (V/m) @ t=0.06
0.21066452212355546
% es.Ez (V/m) @ t=0.06
-1.819957467722749
% es.tEx (V/m) @ t=0.06
0.7968224054070818
% es.tEy (V/m) @ t=0.06
0
% es.tEz (V/m) @ t=0.06
-1.81995746772275
% V (V) @ t=0.06
0.009996984756371532
% es.normE (V/m) @ t=0.08
2.0293252267022455
% es.EX (V/m) @ t=0.08
0.8087648694910639
% es.EY (V/m) @ t=0.08
0.2138218717876592
% es.EZ (V/m) @ t=0.08
-1.8472342813545426
% es.tEX (V/m) @ t=0.08
0.8087648694910641
% es.tEY (V/m) @ t=0.08
0
% es.tEZ (V/m) @ t=0.08
-1.8472342813545435
% es.Ex (V/m) @ t=0.08
0.8087648694910639
% es.Ey (V/m) @ t=0.08
0.2138218717876592
% es.Ez (V/m) @ t=0.08
-1.8472342813545426
% es.tEx (V/m) @ t=0.08
0.8087648694910641
% es.tEy (V/m) @ t=0.08
0
% es.tEz (V/m) @ t=0.08
-1.8472342813545435
% V (V) @ t=0.08
0.010146815835266849
% es.normE (V/m) @ t=0.1
2.059806022282448
% es.EX (V/m) @ t=0.1
0.8209126491189
% es.EY (V/m) @ t=0.1
0.21703351872474475
% es.EZ (V/m) @ t=0.1
-1.8749800408445099
% es.tEX (V/m) @ t=0.1
0.8209126491189003
% es.tEY (V/m) @ t=0.1
0
% es.tEZ (V/m) @ t=0.1
-1.8749800408445125
% es.Ex (V/m) @ t=0.1
0.8209126491189
% es.Ey (V/m) @ t=0.1
0.21703351872474475
% es.Ez (V/m) @ t=0.1
-1.8749800408445099
% es.tEx (V/m) @ t=0.1
0.8209126491189003
% es.tEy (V/m) @ t=0.1
0
% es.tEz (V/m) @ t=0.1
-1.8749800408445125
% V (V) @ t=0.1
0.010299222507902916
% es.normE (V/m) @ t=0.12
2.0902868178626663
% es.EX (V/m) @ t=0.12
0.8330604287467465
% es.EY (V/m) @ t=0.12
0.2202451656618276
% es.EZ (V/m) @ t=0.12
-1.9027258003344905
% es.tEX (V/m) @ t=0.12
0.8330604287467431
% es.tEY (V/m) @ t=0.12
0
% es.tEZ (V/m) @ t=0.12
-1.9027258003345011
% es.Ex (V/m) @ t=0.12
0.8330604287467465
% es.Ey (V/m) @ t=0.12
0.2202451656618276
% es.Ez (V/m) @ t=0.12
-1.9027258003344905
% es.tEx (V/m) @ t=0.12
0.8330604287467431
% es.tEy (V/m) @ t=0.12
0
% es.tEz (V/m) @ t=0.12
-1.9027258003345011
% V (V) @ t=0.12
0.010451629180538985
% es.normE (V/m) @ t=0.14
2.121300910790942
% es.EX (V/m) @ t=0.14
0.8454207383092647
% es.EY (V/m) @ t=0.14
0.2235131680502942
% es.EZ (V/m) @ t=0.14
-1.930956994999729
% es.tEX (V/m) @ t=0.14
0.8454207383092651
% es.tEY (V/m) @ t=0.14
0
% es.tEZ (V/m) @ t=0.14
-1.9309569949997307
% es.Ex (V/m) @ t=0.14
0.8454207383092647
% es.Ey (V/m) @ t=0.14
0.2235131680502942
% es.Ez (V/m) @ t=0.14
-1.930956994999729
% es.tEx (V/m) @ t=0.14
0.8454207383092651
% es.tEy (V/m) @ t=0.14
0
% es.tEz (V/m) @ t=0.14
-1.9309569949997307
% V (V) @ t=0.14
0.010606699004244524
% es.normE (V/m) @ t=0.16
2.1545203429071025
% es.EX (V/m) @ t=0.16
0.8586599207842138
% es.EY (V/m) @ t=0.16
0.22701421657302756
% es.EZ (V/m) @ t=0.16
-1.9611956048882258
% es.tEX (V/m) @ t=0.16
0.858659920784214
% es.tEY (V/m) @ t=0.16
0
% es.tEZ (V/m) @ t=0.16
-1.9611956048882284
% es.Ex (V/m) @ t=0.16
0.8586599207842138
% es.Ey (V/m) @ t=0.16
0.22701421657302756
% es.Ez (V/m) @ t=0.16
-1.9611956048882258
% es.tEx (V/m) @ t=0.16
0.858659920784214
% es.tEy (V/m) @ t=0.16
0
% es.tEz (V/m) @ t=0.16
-1.9611956048882284
% V (V) @ t=0.16
0.010772781729921823
% es.normE (V/m) @ t=0.18
2.187739775023763
% es.EX (V/m) @ t=0.18
0.8718991032591525
% es.EY (V/m) @ t=0.18
0.23051526509573872
% es.EZ (V/m) @ t=0.18
-1.991434214776719
% es.tEX (V/m) @ t=0.18
0.8718991032591563
% es.tEY (V/m) @ t=0.18
0
% es.tEZ (V/m) @ t=0.18
-1.991434214776726
% es.Ex (V/m) @ t=0.18
0.8718991032591525
% es.Ey (V/m) @ t=0.18
0.23051526509573872
% es.Ez (V/m) @ t=0.18
-1.991434214776719
% es.tEx (V/m) @ t=0.18
0.8718991032591563
% es.tEy (V/m) @ t=0.18
0
% es.tEz (V/m) @ t=0.18
-1.991434214776726
% V (V) @ t=0.18
0.010938864455599122
% es.normE (V/m) @ t=0.2
2.220959207140903
% es.EX (V/m) @ t=0.2
0.885138285734091
% es.EY (V/m) @ t=0.2
0.23401631361845965
% es.EZ (V/m) @ t=0.2
-2.0216728246652034
% es.tEX (V/m) @ t=0.2
0.8851382857340915
% es.tEY (V/m) @ t=0.2
0
% es.tEZ (V/m) @ t=0.2
-2.0216728246652096
% es.Ex (V/m) @ t=0.2
0.885138285734091
% es.Ey (V/m) @ t=0.2
0.23401631361845965
% es.Ez (V/m) @ t=0.2
-2.0216728246652034
% es.tEx (V/m) @ t=0.2
0.8851382857340915
% es.tEy (V/m) @ t=0.2
0
% es.tEz (V/m) @ t=0.2
-2.0216728246652096
% V (V) @ t=0.2
0.011104947181276425
% es.normE (V/m) @ t=0.22
2.25417863925852
% es.EX (V/m) @ t=0.22
0.8983774682090186
% es.EY (V/m) @ t=0.22
0.23751736214118058
% es.EZ (V/m) @ t=0.22
-2.0519114345537055
% es.tEX (V/m) @ t=0.22
0.8983774682090191
% es.tEY (V/m) @ t=0.22
0
% es.tEZ (V/m) @ t=0.22
-2.0519114345537126
% es.Ex (V/m) @ t=0.22
0.8983774682090186
% es.Ey (V/m) @ t=0.22
0.23751736214118058
% es.Ez (V/m) @ t=0.22
-2.0519114345537055
% es.tEx (V/m) @ t=0.22
0.8983774682090191
% es.tEy (V/m) @ t=0.22
0
% es.tEz (V/m) @ t=0.22
-2.0519114345537126
% V (V) @ t=0.22
0.011271029906953724
% es.normE (V/m) @ t=0.24
2.287398071376579
% es.EX (V/m) @ t=0.24
0.9116166506839605
% es.EY (V/m) @ t=0.24
0.24101841066390772
% es.EZ (V/m) @ t=0.24
-2.082150044442197
% es.tEX (V/m) @ t=0.24
0.9116166506839609
% es.tEY (V/m) @ t=0.24
0
% es.tEZ (V/m) @ t=0.24
-2.082150044442196
% es.Ex (V/m) @ t=0.24
0.9116166506839605
% es.Ey (V/m) @ t=0.24
0.24101841066390772
% es.Ez (V/m) @ t=0.24
-2.082150044442197
% es.tEx (V/m) @ t=0.24
0.9116166506839609
% es.tEy (V/m) @ t=0.24
0
% es.tEz (V/m) @ t=0.24
-2.082150044442196
% V (V) @ t=0.24
0.011437112632631023
% es.normE (V/m) @ t=0.26
2.320617503495069
% es.EX (V/m) @ t=0.26
0.9248558331589172
% es.EY (V/m) @ t=0.26
0.24451945918660822
% es.EZ (V/m) @ t=0.26
-2.1123886543306902
% es.tEX (V/m) @ t=0.26
0.9248558331589174
% es.tEY (V/m) @ t=0.26
0
% es.tEZ (V/m) @ t=0.26
-2.1123886543306973
% es.Ex (V/m) @ t=0.26
0.9248558331589172
% es.Ey (V/m) @ t=0.26
0.24451945918660822
% es.Ez (V/m) @ t=0.26
-2.1123886543306902
% es.tEx (V/m) @ t=0.26
0.9248558331589174
% es.tEy (V/m) @ t=0.26
0
% es.tEz (V/m) @ t=0.26
-2.1123886543306973
% V (V) @ t=0.26
0.011603195358308324
% es.normE (V/m) @ t=0.28
2.3550186584006
% es.EX (V/m) @ t=0.28
0.9385660370913858
% es.EY (V/m) @ t=0.28
0.2481440365457912
% es.EZ (V/m) @ t=0.28
-2.14370300811526
% es.tEX (V/m) @ t=0.28
0.9385660370913862
% es.tEY (V/m) @ t=0.28
0
% es.tEZ (V/m) @ t=0.28
-2.143703008115267
% es.Ex (V/m) @ t=0.28
0.9385660370913858
% es.Ey (V/m) @ t=0.28
0.2481440365457912
% es.Ez (V/m) @ t=0.28
-2.14370300811526
% es.tEx (V/m) @ t=0.28
0.9385660370913862
% es.tEy (V/m) @ t=0.28
0
% es.tEz (V/m) @ t=0.28
-2.143703008115267
% V (V) @ t=0.28
0.011775207153931664
% es.normE (V/m) @ t=0.3
2.391196716979313
% es.EX (V/m) @ t=0.3
0.9529844949111492
% es.EY (V/m) @ t=0.3
0.2519543586884163
% es.EZ (V/m) @ t=0.3
-2.176634909856414
% es.tEX (V/m) @ t=0.3
0.9529844949111426
% es.tEY (V/m) @ t=0.3
0
% es.tEZ (V/m) @ t=0.3
-2.1766349098564177
% es.Ex (V/m) @ t=0.3
0.9529844949111492
% es.Ey (V/m) @ t=0.3
0.2519543586884163
% es.Ez (V/m) @ t=0.3
-2.176634909856414
% es.tEx (V/m) @ t=0.3
0.9529844949111426
% es.tEy (V/m) @ t=0.3
0
% es.tEz (V/m) @ t=0.3
-2.1766349098564177
% V (V) @ t=0.3
0.01195613422670467
% es.normE (V/m) @ t=0.32
2.4273747755598585
% es.EX (V/m) @ t=0.32
0.9674029527309131
% es.EY (V/m) @ t=0.32
0.25576468083103165
% es.EZ (V/m) @ t=0.32
-2.209566811597563
% es.tEX (V/m) @ t=0.32
0.9674029527309136
% es.tEY (V/m) @ t=0.32
0
% es.tEZ (V/m) @ t=0.32
-2.2095668115975613
% es.Ex (V/m) @ t=0.32
0.9674029527309131
% es.Ey (V/m) @ t=0.32
0.25576468083103165
% es.Ez (V/m) @ t=0.32
-2.209566811597563
% es.tEx (V/m) @ t=0.32
0.9674029527309136
% es.tEy (V/m) @ t=0.32
0
% es.tEz (V/m) @ t=0.32
-2.2095668115975613
% V (V) @ t=0.32
0.012137061299477676
% es.normE (V/m) @ t=0.34
2.463552834142165
% es.EX (V/m) @ t=0.34
0.9818214105506837
% es.EY (V/m) @ t=0.34
0.25957500297362746
% es.EZ (V/m) @ t=0.34
-2.2424987133387155
% es.tEX (V/m) @ t=0.34
0.9818214105506842
% es.tEY (V/m) @ t=0.34
0
% es.tEZ (V/m) @ t=0.34
-2.2424987133387155
% es.Ex (V/m) @ t=0.34
0.9818214105506837
% es.Ey (V/m) @ t=0.34
0.25957500297362746
% es.Ez (V/m) @ t=0.34
-2.2424987133387155
% es.tEx (V/m) @ t=0.34
0.9818214105506842
% es.tEy (V/m) @ t=0.34
0
% es.tEz (V/m) @ t=0.34
-2.2424987133387155
% V (V) @ t=0.34
0.012317988372250687
% es.normE (V/m) @ t=0.36
2.4997308927261477
% es.EX (V/m) @ t=0.36
0.9962398683704543
% es.EY (V/m) @ t=0.36
0.26338532511623747
% es.EZ (V/m) @ t=0.36
-2.2754306150798627
% es.tEX (V/m) @ t=0.36
0.9962398683704548
% es.tEY (V/m) @ t=0.36
0
% es.tEZ (V/m) @ t=0.36
-2.275430615079859
% es.Ex (V/m) @ t=0.36
0.9962398683704543
% es.Ey (V/m) @ t=0.36
0.26338532511623747
% es.Ez (V/m) @ t=0.36
-2.2754306150798627
% es.tEx (V/m) @ t=0.36
0.9962398683704548
% es.tEy (V/m) @ t=0.36
0
% es.tEz (V/m) @ t=0.36
-2.275430615079859
% V (V) @ t=0.36
0.01249891544502369
% es.normE (V/m) @ t=0.38
2.535908951311728
% es.EX (V/m) @ t=0.38
1.0106583261902107
% es.EY (V/m) @ t=0.38
0.26719564725884926
% es.EZ (V/m) @ t=0.38
-2.308362516821001
% es.tEX (V/m) @ t=0.38
1.0106583261902111
% es.tEY (V/m) @ t=0.38
0
% es.tEZ (V/m) @ t=0.38
-2.30836251682101
% es.Ex (V/m) @ t=0.38
1.0106583261902107
% es.Ey (V/m) @ t=0.38
0.26719564725884926
% es.Ez (V/m) @ t=0.38
-2.308362516821001
% es.tEx (V/m) @ t=0.38
1.0106583261902111
% es.tEy (V/m) @ t=0.38
0
% es.tEz (V/m) @ t=0.38
-2.30836251682101
% V (V) @ t=0.38
0.012679842517796698
% es.normE (V/m) @ t=0.4
2.5720870098988784
% es.EX (V/m) @ t=0.4
1.0250767840099893
% es.EY (V/m) @ t=0.4
0.27100596940146815
% es.EZ (V/m) @ t=0.4
-2.3412944185621622
% es.tEX (V/m) @ t=0.4
1.0250767840099968
% es.tEY (V/m) @ t=0.4
0
% es.tEZ (V/m) @ t=0.4
-2.341294418562171
% es.Ex (V/m) @ t=0.4
1.0250767840099893
% es.Ey (V/m) @ t=0.4
0.27100596940146815
% es.Ez (V/m) @ t=0.4
-2.3412944185621622
% es.tEx (V/m) @ t=0.4
1.0250767840099968
% es.tEy (V/m) @ t=0.4
0
% es.tEz (V/m) @ t=0.4
-2.341294418562171
% V (V) @ t=0.4
0.012860769590569705
% es.normE (V/m) @ t=0.42
2.61018196587818
% es.EX (V/m) @ t=0.42
1.0402588960052737
% es.EY (V/m) @ t=0.42
0.2750233254518637
% es.EZ (V/m) @ t=0.42
-2.375970922990545
% es.tEX (V/m) @ t=0.42
1.040258896005274
% es.tEY (V/m) @ t=0.42
0
% es.tEZ (V/m) @ t=0.42
-2.375970922990554
% es.Ex (V/m) @ t=0.42
1.0402588960052737
% es.Ey (V/m) @ t=0.42
0.2750233254518637
% es.Ez (V/m) @ t=0.42
-2.375970922990545
% es.tEx (V/m) @ t=0.42
1.040258896005274
% es.tEy (V/m) @ t=0.42
0
% es.tEz (V/m) @ t=0.42
-2.375970922990554
% V (V) @ t=0.42
0.013051176780280498
% es.normE (V/m) @ t=0.44
2.649533164752294
% es.EX (V/m) @ t=0.44
1.0559414704246817
% es.EY (V/m) @ t=0.44
0.2791763616238221
% es.EZ (V/m) @ t=0.44
-2.411790756582846
% es.tEX (V/m) @ t=0.44
1.0559414704246821
% es.tEY (V/m) @ t=0.44
0
% es.tEZ (V/m) @ t=0.44
-2.411790756582846
% es.Ex (V/m) @ t=0.44
1.0559414704246817
% es.Ey (V/m) @ t=0.44
0.2791763616238221
% es.Ez (V/m) @ t=0.44
-2.411790756582846
% es.tEx (V/m) @ t=0.44
1.0559414704246821
% es.tEy (V/m) @ t=0.44
0
% es.tEz (V/m) @ t=0.44
-2.411790756582846
% V (V) @ t=0.44
0.013247796785236559
% es.normE (V/m) @ t=0.46
2.6888843636529547
% es.EX (V/m) @ t=0.46
1.0716240448441177
% es.EY (V/m) @ t=0.46
0.28332939779579736
% es.EZ (V/m) @ t=0.46
-2.44761059017514
% es.tEX (V/m) @ t=0.46
1.0716240448441177
% es.tEY (V/m) @ t=0.46
0
% es.tEZ (V/m) @ t=0.46
-2.447610590175149
% es.Ex (V/m) @ t=0.46
1.0716240448441177
% es.Ey (V/m) @ t=0.46
0.28332939779579736
% es.Ez (V/m) @ t=0.46
-2.44761059017514
% es.tEx (V/m) @ t=0.46
1.0716240448441177
% es.tEy (V/m) @ t=0.46
0
% es.tEz (V/m) @ t=0.46
-2.447610590175149
% V (V) @ t=0.46
0.013444416790192624
% es.normE (V/m) @ t=0.48
2.7282355625789916
% es.EX (V/m) @ t=0.48
1.0873066192635394
% es.EY (V/m) @ t=0.48
0.28748243396776374
% es.EZ (V/m) @ t=0.48
-2.483430423767425
% es.tEX (V/m) @ t=0.48
1.0873066192635399
% es.tEY (V/m) @ t=0.48
0
% es.tEZ (V/m) @ t=0.48
-2.4834304237674374
% es.Ex (V/m) @ t=0.48
1.0873066192635394
% es.Ey (V/m) @ t=0.48
0.28748243396776374
% es.Ez (V/m) @ t=0.48
-2.483430423767425
% es.tEx (V/m) @ t=0.48
1.0873066192635399
% es.tEy (V/m) @ t=0.48
0
% es.tEz (V/m) @ t=0.48
-2.4834304237674374
% V (V) @ t=0.48
0.013641036795148685
% es.normE (V/m) @ t=0.5
2.767586761529345
% es.EX (V/m) @ t=0.5
1.1029891936829617
% es.EY (V/m) @ t=0.5
0.2916354701397026
% es.EZ (V/m) @ t=0.5
-2.5192502573597206
% es.tEX (V/m) @ t=0.5
1.102989193682962
% es.tEY (V/m) @ t=0.5
0
% es.tEZ (V/m) @ t=0.5
-2.519250257359726
% es.Ex (V/m) @ t=0.5
1.1029891936829617
% es.Ey (V/m) @ t=0.5
0.2916354701397026
% es.Ez (V/m) @ t=0.5
-2.5192502573597206
% es.tEx (V/m) @ t=0.5
1.102989193682962
% es.tEy (V/m) @ t=0.5
0
% es.tEz (V/m) @ t=0.5
-2.519250257359726
% V (V) @ t=0.5
0.013837656800104745
% es.normE (V/m) @ t=0.52
2.806937960502995
% es.EX (V/m) @ t=0.52
1.118671768102384
% es.EY (V/m) @ t=0.52
0.29578850631169296
% es.EZ (V/m) @ t=0.52
-2.5550700909520234
% es.tEX (V/m) @ t=0.52
1.1186717681023843
% es.tEY (V/m) @ t=0.52
0
% es.tEZ (V/m) @ t=0.52
-2.5550700909520323
% es.Ex (V/m) @ t=0.52
1.118671768102384
% es.Ey (V/m) @ t=0.52
0.29578850631169296
% es.Ez (V/m) @ t=0.52
-2.5550700909520234
% es.tEx (V/m) @ t=0.52
1.1186717681023843
% es.tEy (V/m) @ t=0.52
0
% es.tEz (V/m) @ t=0.52
-2.5550700909520323
% V (V) @ t=0.52
0.014034276805060808
% es.normE (V/m) @ t=0.54
2.846289159498952
% es.EX (V/m) @ t=0.54
1.1343543425218052
% es.EY (V/m) @ t=0.54
0.2999415424836407
% es.EZ (V/m) @ t=0.54
-2.5908899245443155
% es.tEX (V/m) @ t=0.54
1.1343543425218057
% es.tEY (V/m) @ t=0.54
0
% es.tEZ (V/m) @ t=0.54
-2.590889924544321
% es.Ex (V/m) @ t=0.54
1.1343543425218052
% es.Ey (V/m) @ t=0.54
0.2999415424836407
% es.Ez (V/m) @ t=0.54
-2.5908899245443155
% es.tEx (V/m) @ t=0.54
1.1343543425218057
% es.tEy (V/m) @ t=0.54
0
% es.tEz (V/m) @ t=0.54
-2.590889924544321
% V (V) @ t=0.54
0.01423089681001687
% es.normE (V/m) @ t=0.56
2.8868586530887788
% es.EX (V/m) @ t=0.56
1.1505226491121303
% es.EY (V/m) @ t=0.56
0.3042197047591868
% es.EZ (V/m) @ t=0.56
-2.6278189225617457
% es.tEX (V/m) @ t=0.56
1.1505226491121308
% es.tEY (V/m) @ t=0.56
0
% es.tEZ (V/m) @ t=0.56
-2.627818922561751
% es.Ex (V/m) @ t=0.56
1.1505226491121303
% es.Ey (V/m) @ t=0.56
0.3042197047591868
% es.Ez (V/m) @ t=0.56
-2.6278189225617457
% es.tEx (V/m) @ t=0.56
1.1505226491121308
% es.tEy (V/m) @ t=0.56
0
% es.tEz (V/m) @ t=0.56
-2.627818922561751
% V (V) @ t=0.56
0.01443367537241577
% es.normE (V/m) @ t=0.58
2.928074486122939
% es.EX (V/m) @ t=0.58
1.166948650242397
% es.EY (V/m) @ t=0.58
0.3085642499420578
% es.EZ (V/m) @ t=0.58
-2.6653363634153227
% es.tEX (V/m) @ t=0.58
1.1669486502423903
% es.tEY (V/m) @ t=0.58
0
% es.tEZ (V/m) @ t=0.58
-2.665336363415335
% es.Ex (V/m) @ t=0.58
1.166948650242397
% es.Ey (V/m) @ t=0.58
0.3085642499420578
% es.Ez (V/m) @ t=0.58
-2.6653363634153227
% es.tEx (V/m) @ t=0.58
1.1669486502423903
% es.tEy (V/m) @ t=0.58
0
% es.tEz (V/m) @ t=0.58
-2.665336363415335
% V (V) @ t=0.58
0.014639721222266497
% es.normE (V/m) @ t=0.6
2.9696865066357825
% es.EX (V/m) @ t=0.6
1.1835326107103898
% es.EY (V/m) @ t=0.6
0.31294948593695526
% es.EZ (V/m) @ t=0.6
-2.7032145027947276
% es.tEX (V/m) @ t=0.6
1.1835326107103832
% es.tEY (V/m) @ t=0.6
0
% es.tEZ (V/m) @ t=0.6
-2.7032145027947365
% es.Ex (V/m) @ t=0.6
1.1835326107103898
% es.Ey (V/m) @ t=0.6
0.31294948593695526
% es.Ez (V/m) @ t=0.6
-2.7032145027947276
% es.tEx (V/m) @ t=0.6
1.1835326107103832
% es.tEy (V/m) @ t=0.6
0
% es.tEz (V/m) @ t=0.6
-2.7032145027947365
% V (V) @ t=0.6
0.014847769825307363
% es.normE (V/m) @ t=0.62
3.0116947146270743
% es.EX (V/m) @ t=0.62
1.200274530516046
% es.EY (V/m) @ t=0.62
0.3173754127438544
% es.EZ (V/m) @ t=0.62
-2.7414533406999464
% es.tEX (V/m) @ t=0.62
1.2002745305160394
% es.tEY (V/m) @ t=0.62
0
% es.tEZ (V/m) @ t=0.62
-2.7414533406999553
% es.Ex (V/m) @ t=0.62
1.200274530516046
% es.Ey (V/m) @ t=0.62
0.3173754127438544
% es.Ez (V/m) @ t=0.62
-2.7414533406999464
% es.tEx (V/m) @ t=0.62
1.2002745305160394
% es.tEy (V/m) @ t=0.62
0
% es.tEz (V/m) @ t=0.62
-2.7414533406999553
% V (V) @ t=0.62
0.015057821181538356
% es.normE (V/m) @ t=0.64
3.0540991100983734
% es.EX (V/m) @ t=0.64
1.2171744096593726
% es.EY (V/m) @ t=0.64
0.3218420303627383
% es.EZ (V/m) @ t=0.64
-2.7800528771309825
% es.tEX (V/m) @ t=0.64
1.217174409659373
% es.tEY (V/m) @ t=0.64
0
% es.tEZ (V/m) @ t=0.64
-2.780052877130988
% es.Ex (V/m) @ t=0.64
1.2171744096593726
% es.Ey (V/m) @ t=0.64
0.3218420303627383
% es.Ez (V/m) @ t=0.64
-2.7800528771309825
% es.tEx (V/m) @ t=0.64
1.217174409659373
% es.tEy (V/m) @ t=0.64
0
% es.tEz (V/m) @ t=0.64
-2.780052877130988
% V (V) @ t=0.64
0.01526987529095949
% es.normE (V/m) @ t=0.66
3.09689969305293
% es.EX (V/m) @ t=0.66
1.2342322481404673
% es.EY (V/m) @ t=0.66
0.3263493387936194
% es.EZ (V/m) @ t=0.66
-2.819013112087857
% es.tEX (V/m) @ t=0.66
1.2342322481404677
% es.tEY (V/m) @ t=0.66
0
% es.tEZ (V/m) @ t=0.66
-2.8190131120878696
% es.Ex (V/m) @ t=0.66
1.2342322481404673
% es.Ey (V/m) @ t=0.66
0.3263493387936194
% es.Ez (V/m) @ t=0.66
-2.819013112087857
% es.tEx (V/m) @ t=0.66
1.2342322481404677
% es.tEy (V/m) @ t=0.66
0
% es.tEz (V/m) @ t=0.66
-2.8190131120878696
% V (V) @ t=0.66
0.015483932153570752
% es.normE (V/m) @ t=0.68
3.1400964634953628
% es.EX (V/m) @ t=0.68
1.2514480459591897
% es.EY (V/m) @ t=0.68
0.33089733803650034
% es.EZ (V/m) @ t=0.68
-2.858334045570535
% es.tEX (V/m) @ t=0.68
1.251448045959183
% es.tEY (V/m) @ t=0.68
0
% es.tEZ (V/m) @ t=0.68
-2.8583340455705404
% es.Ex (V/m) @ t=0.68
1.2514480459591897
% es.Ey (V/m) @ t=0.68
0.33089733803650034
% es.Ez (V/m) @ t=0.68
-2.858334045570535
% es.tEx (V/m) @ t=0.68
1.251448045959183
% es.tEy (V/m) @ t=0.68
0
% es.tEz (V/m) @ t=0.68
-2.8583340455705404
% V (V) @ t=0.68
0.015699991769372146
% es.normE (V/m) @ t=0.7
3.183689421431843
% es.EX (V/m) @ t=0.7
1.2688218031156446
% es.EY (V/m) @ t=0.7
0.33548602809140604
% es.EZ (V/m) @ t=0.7
-2.8980156775790302
% es.tEX (V/m) @ t=0.7
1.268821803115645
% es.tEY (V/m) @ t=0.7
0
% es.tEZ (V/m) @ t=0.7
-2.8980156775790356
% es.Ex (V/m) @ t=0.7
1.2688218031156446
% es.Ey (V/m) @ t=0.7
0.33548602809140604
% es.Ez (V/m) @ t=0.7
-2.8980156775790302
% es.tEx (V/m) @ t=0.7
1.268821803115645
% es.tEy (V/m) @ t=0.7
0
% es.tEz (V/m) @ t=0.7
-2.8980156775790356
% V (V) @ t=0.7
0.015918054138363676
% es.normE (V/m) @ t=0.72
3.2276785668697925
% es.EX (V/m) @ t=0.72
1.2863535196097975
% es.EY (V/m) @ t=0.72
0.34011540895830183
% es.EZ (V/m) @ t=0.72
-2.9380580081133605
% es.tEX (V/m) @ t=0.72
1.286353519609798
% es.tEY (V/m) @ t=0.72
0
% es.tEZ (V/m) @ t=0.72
-2.938058008113373
% es.Ex (V/m) @ t=0.72
1.2863535196097975
% es.Ey (V/m) @ t=0.72
0.34011540895830183
% es.Ez (V/m) @ t=0.72
-2.9380580081133605
% es.tEx (V/m) @ t=0.72
1.286353519609798
% es.tEy (V/m) @ t=0.72
0
% es.tEz (V/m) @ t=0.72
-2.938058008113373
% V (V) @ t=0.72
0.016138119260545335
% es.normE (V/m) @ t=0.74
3.27206389981783
% es.EX (V/m) @ t=0.74
1.3040431954416358
% es.EY (V/m) @ t=0.74
0.34478548063718417
% es.EZ (V/m) @ t=0.74
-2.9784610371735116
% es.tEX (V/m) @ t=0.74
1.3040431954416292
% es.tEY (V/m) @ t=0.74
0
% es.tEZ (V/m) @ t=0.74
-2.9784610371735205
% es.Ex (V/m) @ t=0.74
1.3040431954416358
% es.Ey (V/m) @ t=0.74
0.34478548063718417
% es.Ez (V/m) @ t=0.74
-2.9784610371735116
% es.tEx (V/m) @ t=0.74
1.3040431954416292
% es.tEy (V/m) @ t=0.74
0
% es.tEz (V/m) @ t=0.74
-2.9784610371735205
% V (V) @ t=0.74
0.01636018713591713
% es.normE (V/m) @ t=0.76
3.3168454202856967
% es.EX (V/m) @ t=0.76
1.3218908306111503
% es.EY (V/m) @ t=0.76
0.3494962431280788
% es.EZ (V/m) @ t=0.76
-3.0192247647594694
% es.tEX (V/m) @ t=0.76
1.3218908306111512
% es.tEY (V/m) @ t=0.76
0
% es.tEZ (V/m) @ t=0.76
-3.0192247647594748
% es.Ex (V/m) @ t=0.76
1.3218908306111503
% es.Ey (V/m) @ t=0.76
0.3494962431280788
% es.Ez (V/m) @ t=0.76
-3.0192247647594694
% es.tEx (V/m) @ t=0.76
1.3218908306111512
% es.tEy (V/m) @ t=0.76
0
% es.tEz (V/m) @ t=0.76
-3.0192247647594748
% V (V) @ t=0.76
0.016584257764479065
% es.normE (V/m) @ t=0.78
3.3620231282842234
% es.EX (V/m) @ t=0.78
1.3398964251183636
% es.EY (V/m) @ t=0.78
0.35424769643097775
% es.EZ (V/m) @ t=0.78
-3.0603491908712694
% es.tEX (V/m) @ t=0.78
1.339896425118364
% es.tEY (V/m) @ t=0.78
0
% es.tEZ (V/m) @ t=0.78
-3.060349190871271
% es.Ex (V/m) @ t=0.78
1.3398964251183636
% es.Ey (V/m) @ t=0.78
0.35424769643097775
% es.Ez (V/m) @ t=0.78
-3.0603491908712694
% es.tEx (V/m) @ t=0.78
1.339896425118364
% es.tEy (V/m) @ t=0.78
0
% es.tEz (V/m) @ t=0.78
-3.060349190871271
% V (V) @ t=0.78
0.016810331146231122
% es.normE (V/m) @ t=0.8
3.4075970238251365
% es.EX (V/m) @ t=0.8
1.3580599789632957
% es.EY (V/m) @ t=0.8
0.3590398405458819
% es.EZ (V/m) @ t=0.8
-3.1018343155088797
% es.tEX (V/m) @ t=0.8
1.358059978963296
% es.tEY (V/m) @ t=0.8
0
% es.tEZ (V/m) @ t=0.8
-3.1018343155088814
% es.Ex (V/m) @ t=0.8
1.3580599789632957
% es.Ey (V/m) @ t=0.8
0.3590398405458819
% es.Ez (V/m) @ t=0.8
-3.1018343155088797
% es.tEx (V/m) @ t=0.8
1.358059978963296
% es.tEy (V/m) @ t=0.8
0
% es.tEz (V/m) @ t=0.8
-3.1018343155088814
% V (V) @ t=0.8
0.01703840728117332
% es.normE (V/m) @ t=0.82
3.4537337238411974
% es.EX (V/m) @ t=0.82
1.3764477289105783
% es.EY (V/m) @ t=0.82
0.3638930059759824
% es.EZ (V/m) @ t=0.82
-3.143831644924708
% es.tEX (V/m) @ t=0.82
1.3764477289105717
% es.tEY (V/m) @ t=0.82
0
% es.tEZ (V/m) @ t=0.82
-3.143831644924717
% es.Ex (V/m) @ t=0.82
1.3764477289105783
% es.Ey (V/m) @ t=0.82
0.3638930059759824
% es.Ez (V/m) @ t=0.82
-3.143831644924708
% es.tEx (V/m) @ t=0.82
1.3764477289105717
% es.tEy (V/m) @ t=0.82
0
% es.tEz (V/m) @ t=0.82
-3.143831644924717
% V (V) @ t=0.82
0.017269261926041658
% es.normE (V/m) @ t=0.84
3.5009311201018
% es.EX (V/m) @ t=0.84
1.3952576064871693
% es.EY (V/m) @ t=0.84
0.3688679451987351
% es.EZ (V/m) @ t=0.84
-3.186793916568382
% es.tEX (V/m) @ t=0.84
1.3952576064871698
% es.tEY (V/m) @ t=0.84
0
% es.tEZ (V/m) @ t=0.84
-3.1867939165683907
% es.Ex (V/m) @ t=0.84
1.3952576064871693
% es.Ey (V/m) @ t=0.84
0.3688679451987351
% es.Ez (V/m) @ t=0.84
-3.186793916568382
% es.tEx (V/m) @ t=0.84
1.3952576064871698
% es.tEy (V/m) @ t=0.84
0
% es.tEz (V/m) @ t=0.84
-3.1867939165683907
% V (V) @ t=0.84
0.01750521323022399
% es.normE (V/m) @ t=0.86
3.548635321941262
% es.EX (V/m) @ t=0.86
1.414269418423142
% es.EY (V/m) @ t=0.86
0.37389707278764117
% es.EZ (V/m) @ t=0.86
-3.23021747273064
% es.tEX (V/m) @ t=0.86
1.4142694184231424
% es.tEY (V/m) @ t=0.86
0
% es.tEZ (V/m) @ t=0.86
-3.2302174727306365
% es.Ex (V/m) @ t=0.86
1.414269418423142
% es.Ey (V/m) @ t=0.86
0.37389707278764117
% es.Ez (V/m) @ t=0.86
-3.23021747273064
% es.tEx (V/m) @ t=0.86
1.4142694184231424
% es.tEy (V/m) @ t=0.86
0
% es.tEz (V/m) @ t=0.86
-3.2302174727306365
% V (V) @ t=0.86
0.017743682317571854
% es.normE (V/m) @ t=0.88
3.596846329362452
% es.EX (V/m) @ t=0.88
1.433483164718448
% es.EY (V/m) @ t=0.88
0.3789803887427352
% es.EZ (V/m) @ t=0.88
-3.2741023134114933
% es.tEX (V/m) @ t=0.88
1.4334831647184485
% es.tEY (V/m) @ t=0.88
0
% es.tEZ (V/m) @ t=0.88
-3.2741023134115004
% es.Ex (V/m) @ t=0.88
1.433483164718448
% es.Ey (V/m) @ t=0.88
0.3789803887427352
% es.Ez (V/m) @ t=0.88
-3.2741023134114933
% es.tEx (V/m) @ t=0.88
1.4334831647184485
% es.tEy (V/m) @ t=0.88
0
% es.tEz (V/m) @ t=0.88
-3.2741023134115004
% V (V) @ t=0.88
0.017984669188085257
% es.normE (V/m) @ t=0.9
3.6455641423688947
% es.EX (V/m) @ t=0.9
1.4528988453730656
% es.EY (V/m) @ t=0.9
0.38411789306399946
% es.EZ (V/m) @ t=0.9
-3.318448438610938
% es.tEX (V/m) @ t=0.9
1.452898845373059
% es.tEY (V/m) @ t=0.9
0
% es.tEZ (V/m) @ t=0.9
-3.3184484386109396
% es.Ex (V/m) @ t=0.9
1.4528988453730656
% es.Ey (V/m) @ t=0.9
0.38411789306399946
% es.Ez (V/m) @ t=0.9
-3.318448438610938
% es.tEx (V/m) @ t=0.9
1.452898845373059
% es.tEy (V/m) @ t=0.9
0
% es.tEz (V/m) @ t=0.9
-3.3184484386109396
% V (V) @ t=0.9
0.01822817384176419
% es.normE (V/m) @ t=0.92
3.694788760964762
% es.EX (V/m) @ t=0.92
1.4725164603870993
% es.EY (V/m) @ t=0.92
0.3893095857514055
% es.EZ (V/m) @ t=0.92
-3.3632558483289667
% es.tEX (V/m) @ t=0.92
1.4725164603870997
% es.tEY (V/m) @ t=0.92
0
% es.tEZ (V/m) @ t=0.92
-3.3632558483289756
% es.Ex (V/m) @ t=0.92
1.4725164603870993
% es.Ey (V/m) @ t=0.92
0.3893095857514055
% es.Ez (V/m) @ t=0.92
-3.3632558483289667
% es.tEx (V/m) @ t=0.92
1.4725164603870997
% es.tEy (V/m) @ t=0.92
0
% es.tEz (V/m) @ t=0.92
-3.3632558483289756
% V (V) @ t=0.92
0.01847419627860866
% es.normE (V/m) @ t=0.94
3.7445201851546877
% es.EX (V/m) @ t=0.94
1.492336009760387
% es.EY (V/m) @ t=0.94
0.3945554668050395
% es.EZ (V/m) @ t=0.94
-3.4085245425655675
% es.tEX (V/m) @ t=0.94
1.492336009760388
% es.tEY (V/m) @ t=0.94
0
% es.tEZ (V/m) @ t=0.94
-3.4085245425655764
% es.Ex (V/m) @ t=0.94
1.492336009760387
% es.Ey (V/m) @ t=0.94
0.3945554668050395
% es.Ez (V/m) @ t=0.94
-3.4085245425655675
% es.tEx (V/m) @ t=0.94
1.492336009760388
% es.tEy (V/m) @ t=0.94
0
% es.tEz (V/m) @ t=0.94
-3.4085245425655764
% V (V) @ t=0.94
0.018722736498618654
% es.normE (V/m) @ t=0.96
3.7947584149439666
% es.EX (V/m) @ t=0.96
1.5123574934930786
% es.EY (V/m) @ t=0.96
0.3998555362247984
% es.EZ (V/m) @ t=0.96
-3.4542545213207667
% es.tEX (V/m) @ t=0.96
1.512357493493079
% es.tEY (V/m) @ t=0.96
0
% es.tEZ (V/m) @ t=0.96
-3.4542545213207774
% es.Ex (V/m) @ t=0.96
1.5123574934930786
% es.Ey (V/m) @ t=0.96
0.3998555362247984
% es.Ez (V/m) @ t=0.96
-3.4542545213207667
% es.tEx (V/m) @ t=0.96
1.512357493493079
% es.tEy (V/m) @ t=0.96
0
% es.tEz (V/m) @ t=0.96
-3.4542545213207774
% V (V) @ t=0.96
0.01897379450179419
% es.normE (V/m) @ t=0.98
3.845503450338266
% es.EX (V/m) @ t=0.98
1.5325809115850606
% es.EY (V/m) @ t=0.98
0.4052097940107551
% es.EZ (V/m) @ t=0.98
-3.50044578459457
% es.tEX (V/m) @ t=0.98
1.532580911585061
% es.tEY (V/m) @ t=0.98
0
% es.tEZ (V/m) @ t=0.98
-3.5004457845945716
% es.Ex (V/m) @ t=0.98
1.5325809115850606
% es.Ey (V/m) @ t=0.98
0.4052097940107551
% es.Ez (V/m) @ t=0.98
-3.50044578459457
% es.tEx (V/m) @ t=0.98
1.532580911585061
% es.tEy (V/m) @ t=0.98
0
% es.tEz (V/m) @ t=0.98
-3.5004457845945716
% V (V) @ t=0.98
0.019227370288135252
% es.normE (V/m) @ t=1
3.896755291343741
% es.EX (V/m) @ t=1
1.5530062640364162
% es.EY (V/m) @ t=1
0.41061824016288995
% es.EZ (V/m) @ t=1
-3.547098332386957
% es.tEX (V/m) @ t=1
1.5530062640364166
% es.tEY (V/m) @ t=1
0
% es.tEZ (V/m) @ t=1
-3.547098332386966
% es.Ex (V/m) @ t=1
1.5530062640364162
% es.Ey (V/m) @ t=1
0.41061824016288995
% es.Ez (V/m) @ t=1
-3.547098332386957
% es.tEx (V/m) @ t=1
1.5530062640364166
% es.tEy (V/m) @ t=1
0
% es.tEz (V/m) @ t=1
-3.547098332386966
% V (V) @ t=1
0.019483463857641853
% es.normE (V/m) @ t=1.02
3.9485139379669008
% es.EX (V/m) @ t=1.02
1.5736335508470973
% es.EY (V/m) @ t=1.02
0.4160808746811995
% es.EZ (V/m) @ t=1.02
-3.5942121646979164
% es.tEX (V/m) @ t=1.02
1.5736335508471049
% es.tEY (V/m) @ t=1.02
0
% es.tEZ (V/m) @ t=1.02
-3.5942121646979146
% es.Ex (V/m) @ t=1.02
1.5736335508470973
% es.Ey (V/m) @ t=1.02
0.4160808746811995
% es.Ez (V/m) @ t=1.02
-3.5942121646979164
% es.tEx (V/m) @ t=1.02
1.5736335508471049
% es.tEy (V/m) @ t=1.02
0
% es.tEz (V/m) @ t=1.02
-3.5942121646979146
% V (V) @ t=1.02
0.019742075210313986
% es.normE (V/m) @ t=1.04
4.000779390214701
% es.EX (V/m) @ t=1.04
1.5944627720171263
% es.EY (V/m) @ t=1.04
0.4215976975656801
% es.EZ (V/m) @ t=1.04
-3.641787281527483
% es.tEX (V/m) @ t=1.04
1.5944627720171267
% es.tEY (V/m) @ t=1.04
0
% es.tEZ (V/m) @ t=1.04
-3.6417872815274883
% es.Ex (V/m) @ t=1.04
1.5944627720171263