% Model:              1 neuron.mph
% Version:            COMSOL 6.0.0.405
% Date:               Mar 16 2023, 19:23
% Dimension:          0
% Nodes:              14017
% Expressions:        14017
% Description:        Electric field norm, Electric field, X component, Electric field, Y component, Electric field, Z component, Tangential electric field, X component, Tangential electric field, Y component, Tangential electric field, Z component, Electric field, x component, Electric field, y component, Electric field, z component, Tangential electric field, x component, Tangential electric field, y component, Tangential electric field, z component, Electric potential
% Length unit:        mm
% x
1.66
% y
12.200000000000001
% z
1.66
% es.normE (V/m) @ t=0
30.947850965440963
% es.EX (V/m) @ t=0
-14.615358116540499
% es.EY (V/m) @ t=0
11.726039453413144
% es.EZ (V/m) @ t=0
14.056646841833984
% es.tEX (V/m) @ t=0
-14.615358116540492
% es.tEY (V/m) @ t=0
0
% es.tEZ (V/m) @ t=0
14.056646841833981
% es.Ex (V/m) @ t=0
-14.615358116540499
% es.Ey (V/m) @ t=0
11.726039453413144
% es.Ez (V/m) @ t=0
14.056646841833984
% es.tEx (V/m) @ t=0
-14.615358116540492
% es.tEy (V/m) @ t=0
0
% es.tEz (V/m) @ t=0
14.056646841833981
% V (V) @ t=0
0.009712848712485886
% es.normE (V/m) @ t=0.02
26.878437700084515
% es.EX (V/m) @ t=0.02
-12.69354675884712
% es.EY (V/m) @ t=0.02
10.184152080672497
% es.EZ (V/m) @ t=0.02
12.20830183010279
% es.tEX (V/m) @ t=0.02
-12.693546758847106
% es.tEY (V/m) @ t=0.02
0
% es.tEZ (V/m) @ t=0.02
12.208301830102783
% es.Ex (V/m) @ t=0.02
-12.69354675884712
% es.Ey (V/m) @ t=0.02
10.184152080672497
% es.Ez (V/m) @ t=0.02
12.20830183010279
% es.tEx (V/m) @ t=0.02
-12.693546758847106
% es.tEy (V/m) @ t=0.02
0
% es.tEz (V/m) @ t=0.02
12.208301830102783
% V (V) @ t=0.02
0.008435681024209702
% es.normE (V/m) @ t=0.04
27.276968361533015
% es.EX (V/m) @ t=0.04
-12.881755863779823
% es.EY (V/m) @ t=0.04
10.33515404931413
% es.EZ (V/m) @ t=0.04
12.389316205930683
% es.tEX (V/m) @ t=0.04
-12.881755863779809
% es.tEY (V/m) @ t=0.04
0
% es.tEZ (V/m) @ t=0.04
12.389316205930669
% es.Ex (V/m) @ t=0.04
-12.881755863779823
% es.Ey (V/m) @ t=0.04
10.33515404931413
% es.Ez (V/m) @ t=0.04
12.389316205930683
% es.tEx (V/m) @ t=0.04
-12.881755863779809
% es.tEy (V/m) @ t=0.04
0
% es.tEz (V/m) @ t=0.04
12.389316205930669
% V (V) @ t=0.04
0.008560758137235738
% es.normE (V/m) @ t=0.06
27.68154477719491
% es.EX (V/m) @ t=0.06
-13.072820024206244
% es.EY (V/m) @ t=0.06
10.488446750192015
% es.EZ (V/m) @ t=0.06
12.573076702889772
% es.tEX (V/m) @ t=0.06
-13.072820024206223
% es.tEY (V/m) @ t=0.06
0
% es.tEZ (V/m) @ t=0.06
12.573076702889779
% es.Ex (V/m) @ t=0.06
-13.072820024206244
% es.Ey (V/m) @ t=0.06
10.488446750192015
% es.Ez (V/m) @ t=0.06
12.573076702889772
% es.tEx (V/m) @ t=0.06
-13.072820024206223
% es.tEy (V/m) @ t=0.06
0
% es.tEz (V/m) @ t=0.06
12.573076702889779
% V (V) @ t=0.06
0.008687732667527495
% es.normE (V/m) @ t=0.08
28.09628934671229
% es.EX (V/m) @ t=0.08
-13.268685912501908
% es.EY (V/m) @ t=0.08
10.645592173061978
% es.EZ (V/m) @ t=0.08
12.76145592001713
% es.tEX (V/m) @ t=0.08
-13.268685912501887
% es.tEY (V/m) @ t=0.08
0
% es.tEZ (V/m) @ t=0.08
12.761455920017141
% es.Ex (V/m) @ t=0.08
-13.268685912501908
% es.Ey (V/m) @ t=0.08
10.645592173061978
% es.Ez (V/m) @ t=0.08
12.76145592001713
% es.tEx (V/m) @ t=0.08
-13.268685912501887
% es.tEy (V/m) @ t=0.08
0
% es.tEz (V/m) @ t=0.08
12.761455920017141
% V (V) @ t=0.08
0.00881789838512016
% es.normE (V/m) @ t=0.1
28.518448086266467
% es.EX (V/m) @ t=0.1
-13.468053009315689
% es.EY (V/m) @ t=0.1
10.805546831154054
% es.EZ (V/m) @ t=0.1
12.953202904505833
% es.tEX (V/m) @ t=0.1
-13.468053009315696
% es.tEY (V/m) @ t=0.1
0
% es.tEZ (V/m) @ t=0.1
12.953202904505815
% es.Ex (V/m) @ t=0.1
-13.468053009315689
% es.Ey (V/m) @ t=0.1
10.805546831154054
% es.Ez (V/m) @ t=0.1
12.953202904505833
% es.tEx (V/m) @ t=0.1
-13.468053009315696
% es.tEy (V/m) @ t=0.1
0
% es.tEz (V/m) @ t=0.1
12.953202904505815
% V (V) @ t=0.1
0.008950390975968794
% es.normE (V/m) @ t=0.12
28.94060682582077
% es.EX (V/m) @ t=0.12
-13.66742010612954
% es.EY (V/m) @ t=0.12
10.96550148924618
% es.EZ (V/m) @ t=0.12
13.144949888994553
% es.tEX (V/m) @ t=0.12
-13.667420106129526
% es.tEY (V/m) @ t=0.12
0
% es.tEZ (V/m) @ t=0.12
13.144949888994546
% es.Ex (V/m) @ t=0.12
-13.66742010612954
% es.Ey (V/m) @ t=0.12
10.96550148924618
% es.Ez (V/m) @ t=0.12
13.144949888994553
% es.tEx (V/m) @ t=0.12
-13.667420106129526
% es.tEy (V/m) @ t=0.12
0
% es.tEz (V/m) @ t=0.12
13.144949888994546
% V (V) @ t=0.12
0.00908288356681743
% es.normE (V/m) @ t=0.14
29.369111822379608
% es.EX (V/m) @ t=0.14
-13.869784607081854
% es.EY (V/m) @ t=0.14
11.12786066939864
% es.EZ (V/m) @ t=0.14
13.339578981871657
% es.tEX (V/m) @ t=0.14
-13.869784607081854
% es.tEY (V/m) @ t=0.14
0
% es.tEZ (V/m) @ t=0.14
13.339578981871682
% es.Ex (V/m) @ t=0.14
-13.869784607081854
% es.Ey (V/m) @ t=0.14
11.12786066939864
% es.Ez (V/m) @ t=0.14
13.339578981871657
% es.tEx (V/m) @ t=0.14
-13.869784607081854
% es.tEy (V/m) @ t=0.14
0
% es.tEz (V/m) @ t=0.14
13.339578981871682
% V (V) @ t=0.14
0.009217367959269718
% es.normE (V/m) @ t=0.16
29.829356747095588
% es.EX (V/m) @ t=0.16
-14.08714021096992
% es.EY (V/m) @ t=0.16
11.302245734634845
% es.EZ (V/m) @ t=0.16
13.54862254190996
% es.tEX (V/m) @ t=0.16
-14.087140210969949
% es.tEY (V/m) @ t=0.16
0
% es.tEZ (V/m) @ t=0.16
13.548622541909964
% es.Ex (V/m) @ t=0.16
-14.08714021096992
% es.Ey (V/m) @ t=0.16
11.302245734634845
% es.Ez (V/m) @ t=0.16
13.54862254190996
% es.tEx (V/m) @ t=0.16
-14.087140210969949
% es.tEy (V/m) @ t=0.16
0
% es.tEz (V/m) @ t=0.16
13.548622541909964
% V (V) @ t=0.16
0.009361814072427147
% es.normE (V/m) @ t=0.18
30.289601671811717
% es.EX (V/m) @ t=0.18
-14.30449581485793
% es.EY (V/m) @ t=0.18
11.476630799871138
% es.EZ (V/m) @ t=0.18
13.757666101948224
% es.tEX (V/m) @ t=0.18
-14.30449581485793
% es.tEY (V/m) @ t=0.18
0
% es.tEZ (V/m) @ t=0.18
13.757666101948246
% es.Ex (V/m) @ t=0.18
-14.30449581485793
% es.Ey (V/m) @ t=0.18
11.476630799871138
% es.Ez (V/m) @ t=0.18
13.757666101948224
% es.tEx (V/m) @ t=0.18
-14.30449581485793
% es.tEy (V/m) @ t=0.18
0
% es.tEz (V/m) @ t=0.18
13.757666101948246
% V (V) @ t=0.18
0.009506260185584576
% es.normE (V/m) @ t=0.2
30.74984659652806
% es.EX (V/m) @ t=0.2
-14.521851418745996
% es.EY (V/m) @ t=0.2
11.651015865107347
% es.EZ (V/m) @ t=0.2
13.966709661986556
% es.tEX (V/m) @ t=0.2
-14.521851418745996
% es.tEY (V/m) @ t=0.2
0
% es.tEZ (V/m) @ t=0.2
13.966709661986556
% es.Ex (V/m) @ t=0.2
-14.521851418745996
% es.Ey (V/m) @ t=0.2
11.651015865107347
% es.Ez (V/m) @ t=0.2
13.966709661986556
% es.tEx (V/m) @ t=0.2
-14.521851418745996
% es.tEy (V/m) @ t=0.2
0
% es.tEz (V/m) @ t=0.2
13.966709661986556
% V (V) @ t=0.2
0.009650706298742005
% es.normE (V/m) @ t=0.22
31.210091521244546
% es.EX (V/m) @ t=0.22
-14.739207022634027
% es.EY (V/m) @ t=0.22
11.825400930343605
% es.EZ (V/m) @ t=0.22
14.175753222024841
% es.tEX (V/m) @ t=0.22
-14.739207022634027
% es.tEY (V/m) @ t=0.22
0
% es.tEZ (V/m) @ t=0.22
14.175753222024866
% es.Ex (V/m) @ t=0.22
-14.739207022634027
% es.Ey (V/m) @ t=0.22
11.825400930343605
% es.Ez (V/m) @ t=0.22
14.175753222024841
% es.tEx (V/m) @ t=0.22
-14.739207022634027
% es.tEy (V/m) @ t=0.22
0
% es.tEz (V/m) @ t=0.22
14.175753222024866
% V (V) @ t=0.22
0.009795152411899434
% es.normE (V/m) @ t=0.24
31.67033644596116
% es.EX (V/m) @ t=0.24
-14.956562626522086
% es.EY (V/m) @ t=0.24
11.999785995579813
% es.EZ (V/m) @ t=0.24
14.384796782063074
% es.tEX (V/m) @ t=0.24
-14.956562626522057
% es.tEY (V/m) @ t=0.24
0
% es.tEZ (V/m) @ t=0.24
14.384796782063063
% es.Ex (V/m) @ t=0.24
-14.956562626522086
% es.Ey (V/m) @ t=0.24
11.999785995579813
% es.Ez (V/m) @ t=0.24
14.384796782063074
% es.tEx (V/m) @ t=0.24
-14.956562626522057
% es.tEy (V/m) @ t=0.24
0
% es.tEz (V/m) @ t=0.24
14.384796782063063
% V (V) @ t=0.24
0.009939598525056863
% es.normE (V/m) @ t=0.26
32.13058137067796
% es.EX (V/m) @ t=0.26
-15.17391823041008
% es.EY (V/m) @ t=0.26
12.174171060816093
% es.EZ (V/m) @ t=0.26
14.593840342101373
% es.tEX (V/m) @ t=0.26
-15.173918230410102
% es.tEY (V/m) @ t=0.26
0
% es.tEZ (V/m) @ t=0.26
14.593840342101345
% es.Ex (V/m) @ t=0.26
-15.17391823041008
% es.Ey (V/m) @ t=0.26
12.174171060816093
% es.Ez (V/m) @ t=0.26
14.593840342101373
% es.tEx (V/m) @ t=0.26
-15.173918230410102
% es.tEy (V/m) @ t=0.26
0
% es.tEz (V/m) @ t=0.26
14.593840342101345
% V (V) @ t=0.26
0.010084044638214294
% es.normE (V/m) @ t=0.28
32.604952023942516
% es.EX (V/m) @ t=0.28
-15.39794449909752
% es.EY (V/m) @ t=0.28
12.353908369437747
% es.EZ (V/m) @ t=0.28
14.809300236716865
% es.tEX (V/m) @ t=0.28
-15.397944499097541
% es.tEY (V/m) @ t=0.28
0
% es.tEZ (V/m) @ t=0.28
14.809300236716837
% es.Ex (V/m) @ t=0.28
-15.39794449909752
% es.Ey (V/m) @ t=0.28
12.353908369437747
% es.Ez (V/m) @ t=0.28
14.809300236716865
% es.tEx (V/m) @ t=0.28
-15.397944499097541
% es.tEy (V/m) @ t=0.28
0
% es.tEz (V/m) @ t=0.28
14.809300236716837
% V (V) @ t=0.28
0.010232923996602496
% es.normE (V/m) @ t=0.3
33.106349492109125
% es.EX (V/m) @ t=0.3
-15.634733778357955
% es.EY (V/m) @ t=0.3
12.54388614748376
% es.EZ (V/m) @ t=0.3
15.037036530838499
% es.tEX (V/m) @ t=0.3
-15.63473377835792
% es.tEY (V/m) @ t=0.3
0
% es.tEZ (V/m) @ t=0.3
15.037036530838492
% es.Ex (V/m) @ t=0.3
-15.634733778357955
% es.Ey (V/m) @ t=0.3
12.54388614748376
% es.Ez (V/m) @ t=0.3
15.037036530838499
% es.tEx (V/m) @ t=0.3
-15.63473377835792
% es.tEy (V/m) @ t=0.3
0
% es.tEz (V/m) @ t=0.3
15.037036530838492
% V (V) @ t=0.3
0.010390285501441655
% es.normE (V/m) @ t=0.32
33.60774696027563
% es.EX (V/m) @ t=0.32
-15.871523057618347
% es.EY (V/m) @ t=0.32
12.73386392552976
% es.EZ (V/m) @ t=0.32
15.264772824960104
% es.tEX (V/m) @ t=0.32
-15.871523057618326
% es.tEY (V/m) @ t=0.32
0
% es.tEZ (V/m) @ t=0.32
15.26477282496009
% es.Ex (V/m) @ t=0.32
-15.871523057618347
% es.Ey (V/m) @ t=0.32
12.73386392552976
% es.Ez (V/m) @ t=0.32
15.264772824960104
% es.tEx (V/m) @ t=0.32
-15.871523057618326
% es.tEy (V/m) @ t=0.32
0
% es.tEz (V/m) @ t=0.32
15.26477282496009
% V (V) @ t=0.32
0.010547647006280813
% es.normE (V/m) @ t=0.34
34.109144428442136
% es.EX (V/m) @ t=0.34
-16.10831233687874
% es.EY (V/m) @ t=0.34
12.923841703575796
% es.EZ (V/m) @ t=0.34
15.492509119081618
% es.tEX (V/m) @ t=0.34
-16.108312336878747
% es.tEY (V/m) @ t=0.34
0
% es.tEZ (V/m) @ t=0.34
15.492509119081603
% es.Ex (V/m) @ t=0.34
-16.10831233687874
% es.Ey (V/m) @ t=0.34
12.923841703575796
% es.Ez (V/m) @ t=0.34
15.492509119081618
% es.tEx (V/m) @ t=0.34
-16.108312336878747
% es.tEy (V/m) @ t=0.34
0
% es.tEz (V/m) @ t=0.34
15.492509119081603
% V (V) @ t=0.34
0.010705008511119973
% es.normE (V/m) @ t=0.36
34.61054189660884
% es.EX (V/m) @ t=0.36
-16.345101616139218
% es.EY (V/m) @ t=0.36
13.113819481621782
% es.EZ (V/m) @ t=0.36
15.720245413203365
% es.tEX (V/m) @ t=0.36
-16.34510161613921
% es.tEY (V/m) @ t=0.36
0
% es.tEZ (V/m) @ t=0.36
15.720245413203372
% es.Ex (V/m) @ t=0.36
-16.345101616139218
% es.Ey (V/m) @ t=0.36
13.113819481621782
% es.Ez (V/m) @ t=0.36
15.720245413203365
% es.tEx (V/m) @ t=0.36
-16.34510161613921
% es.tEy (V/m) @ t=0.36
0
% es.tEz (V/m) @ t=0.36
15.720245413203372
% V (V) @ t=0.36
0.01086237001595913
% es.normE (V/m) @ t=0.38
35.11193936477531
% es.EX (V/m) @ t=0.38
-16.581890895399596
% es.EY (V/m) @ t=0.38
13.303797259667768
% es.EZ (V/m) @ t=0.38
15.9479817073249
% es.tEX (V/m) @ t=0.38
-16.58189089539961
% es.tEY (V/m) @ t=0.38
0
% es.tEZ (V/m) @ t=0.38
15.94798170732497
% es.Ex (V/m) @ t=0.38
-16.581890895399596
% es.Ey (V/m) @ t=0.38
13.303797259667768
% es.Ez (V/m) @ t=0.38
15.9479817073249
% es.tEx (V/m) @ t=0.38
-16.58189089539961
% es.tEy (V/m) @ t=0.38
0
% es.tEz (V/m) @ t=0.38
15.94798170732497
% V (V) @ t=0.38
0.01101973152079829
% es.normE (V/m) @ t=0.4
35.61333683294191
% es.EX (V/m) @ t=0.4
-16.818680174659974
% es.EY (V/m) @ t=0.4
13.493775037713796
% es.EZ (V/m) @ t=0.4
16.175718001446533
% es.tEX (V/m) @ t=0.4
-16.81868017465999
% es.tEY (V/m) @ t=0.4
0
% es.tEZ (V/m) @ t=0.4
16.17571800144657
% es.Ex (V/m) @ t=0.4
-16.818680174659974
% es.Ey (V/m) @ t=0.4
13.493775037713796
% es.Ez (V/m) @ t=0.4
16.175718001446533
% es.tEx (V/m) @ t=0.4
-16.81868017465999
% es.tEy (V/m) @ t=0.4
0
% es.tEz (V/m) @ t=0.4
16.17571800144657
% V (V) @ t=0.4
0.01117709302563745
% es.normE (V/m) @ t=0.42
36.137738324416375
% es.EX (V/m) @ t=0.42
-17.066333588699138
% es.EY (V/m) @ t=0.42
13.692468915169144
% es.EZ (V/m) @ t=0.42
16.413902463330736
% es.tEX (V/m) @ t=0.42
-17.06633358869913
% es.tEY (V/m) @ t=0.42
0
% es.tEZ (V/m) @ t=0.42
16.41390246333077
% es.Ex (V/m) @ t=0.42
-17.066333588699138
% es.Ey (V/m) @ t=0.42
13.692468915169144
% es.Ez (V/m) @ t=0.42
16.413902463330736
% es.tEx (V/m) @ t=0.42
-17.06633358869913
% es.tEy (V/m) @ t=0.42
0
% es.tEz (V/m) @ t=0.42
16.41390246333077
% V (V) @ t=0.42
0.011341674295335693
% es.normE (V/m) @ t=0.44
36.68338477478801
% es.EX (V/m) @ t=0.44
-17.324020382279727
% es.EY (V/m) @ t=0.44
13.89921239208875
% es.EZ (V/m) @ t=0.44
16.66173614577491
% es.tEX (V/m) @ t=0.44
-17.32402038227974
% es.tEY (V/m) @ t=0.44
0
% es.tEZ (V/m) @ t=0.44
16.661736145774853
% es.Ex (V/m) @ t=0.44
-17.324020382279727
% es.Ey (V/m) @ t=0.44
13.89921239208875
% es.Ez (V/m) @ t=0.44
16.66173614577491
% es.tEx (V/m) @ t=0.44
-17.32402038227974
% es.tEy (V/m) @ t=0.44
0
% es.tEz (V/m) @ t=0.44
16.661736145774853
% V (V) @ t=0.44
0.01151292325118717
% es.normE (V/m) @ t=0.46
37.22903122515971
% es.EX (V/m) @ t=0.46
-17.581707175860345
% es.EY (V/m) @ t=0.46
14.105955869008369
% es.EZ (V/m) @ t=0.46
16.90956982821912
% es.tEX (V/m) @ t=0.46
-17.581707175860316
% es.tEY (V/m) @ t=0.46
0
% es.tEZ (V/m) @ t=0.46
16.909569828219105
% es.Ex (V/m) @ t=0.46
-17.581707175860345
% es.Ey (V/m) @ t=0.46
14.105955869008369
% es.Ez (V/m) @ t=0.46
16.90956982821912
% es.tEx (V/m) @ t=0.46
-17.581707175860316
% es.tEy (V/m) @ t=0.46
0
% es.tEz (V/m) @ t=0.46
16.909569828219105
% V (V) @ t=0.46
0.011684172207038646
% es.normE (V/m) @ t=0.48
37.77467767553141
% es.EX (V/m) @ t=0.48
-17.839393969440863
% es.EY (V/m) @ t=0.48
14.312699345927967
% es.EZ (V/m) @ t=0.48
17.157403510663357
% es.tEX (V/m) @ t=0.48
-17.83939396944087
% es.tEY (V/m) @ t=0.48
0
% es.tEZ (V/m) @ t=0.48
17.157403510663357
% es.Ex (V/m) @ t=0.48
-17.839393969440863
% es.Ey (V/m) @ t=0.48
14.312699345927967
% es.Ez (V/m) @ t=0.48
17.157403510663357
% es.tEx (V/m) @ t=0.48
-17.83939396944087
% es.tEy (V/m) @ t=0.48
0
% es.tEz (V/m) @ t=0.48
17.157403510663357
% V (V) @ t=0.48
0.011855421162890118
% es.normE (V/m) @ t=0.5
38.3203241259031
% es.EX (V/m) @ t=0.5
-18.097080763021395
% es.EY (V/m) @ t=0.5
14.519442822847616
% es.EZ (V/m) @ t=0.5
17.405237193107446
% es.tEX (V/m) @ t=0.5
-18.097080763021395
% es.tEY (V/m) @ t=0.5
0
% es.tEZ (V/m) @ t=0.5
17.40523719310744
% es.Ex (V/m) @ t=0.5
-18.097080763021395
% es.Ey (V/m) @ t=0.5
14.519442822847616
% es.Ez (V/m) @ t=0.5
17.405237193107446
% es.tEx (V/m) @ t=0.5
-18.097080763021395
% es.tEy (V/m) @ t=0.5
0
% es.tEz (V/m) @ t=0.5
17.40523719310744
% V (V) @ t=0.5
0.012026670118741594
% es.normE (V/m) @ t=0.52
38.865970576275004
% es.EX (V/m) @ t=0.52
-18.354767556602
% es.EY (V/m) @ t=0.52
14.726186299767264
% es.EZ (V/m) @ t=0.52
17.65307087555172
% es.tEX (V/m) @ t=0.52
-18.354767556602027
% es.tEY (V/m) @ t=0.52
0
% es.tEZ (V/m) @ t=0.52
17.653070875551748
% es.Ex (V/m) @ t=0.52
-18.354767556602
% es.Ey (V/m) @ t=0.52
14.726186299767264
% es.Ez (V/m) @ t=0.52
17.65307087555172
% es.tEx (V/m) @ t=0.52
-18.354767556602027
% es.tEy (V/m) @ t=0.52
0
% es.tEz (V/m) @ t=0.52
17.653070875551748
% V (V) @ t=0.52
0.012197919074593068
% es.normE (V/m) @ t=0.54
39.411617026646944
% es.EX (V/m) @ t=0.54
-18.612454350182574
% es.EY (V/m) @ t=0.54
14.932929776686898
% es.EZ (V/m) @ t=0.54
17.900904557995922
% es.tEX (V/m) @ t=0.54
-18.612454350182567
% es.tEY (V/m) @ t=0.54
0
% es.tEZ (V/m) @ t=0.54
17.900904557995887
% es.Ex (V/m) @ t=0.54
-18.612454350182574
% es.Ey (V/m) @ t=0.54
14.932929776686898
% es.Ez (V/m) @ t=0.54
17.900904557995922
% es.tEx (V/m) @ t=0.54
-18.612454350182567
% es.tEy (V/m) @ t=0.54
0
% es.tEz (V/m) @ t=0.54
17.900904557995887
% V (V) @ t=0.54
0.012369168030444544
% es.normE (V/m) @ t=0.56
39.97162419773372
% es.EX (V/m) @ t=0.56
-18.876922537242734
% es.EY (V/m) @ t=0.56
15.145114574598836
% es.EZ (V/m) @ t=0.56
18.155261596640308
% es.tEX (V/m) @ t=0.56
-18.87692253724272
% es.tEY (V/m) @ t=0.56
0
% es.tEZ (V/m) @ t=0.56
18.155261596640287
% es.Ex (V/m) @ t=0.56
-18.876922537242734
% es.Ey (V/m) @ t=0.56
15.145114574598836
% es.Ez (V/m) @ t=0.56
18.155261596640308
% es.tEx (V/m) @ t=0.56
-18.87692253724272
% es.tEy (V/m) @ t=0.56
0
% es.tEz (V/m) @ t=0.56
18.155261596640287
% V (V) @ t=0.56
0.012544923941152204
% es.normE (V/m) @ t=0.58
40.542540580711346
% es.EX (V/m) @ t=0.58
-19.14654225254806
% es.EY (V/m) @ t=0.58
15.361432906255281
% es.EZ (V/m) @ t=0.58
18.4145741438863
% es.tEX (V/m) @ t=0.58
-19.1465422525481
% es.tEY (V/m) @ t=0.58
0
% es.tEZ (V/m) @ t=0.58
18.414574143886284
% es.Ex (V/m) @ t=0.58
-19.14654225254806
% es.Ey (V/m) @ t=0.58
15.361432906255281
% es.Ez (V/m) @ t=0.58
18.4145741438863
% es.tEx (V/m) @ t=0.58
-19.1465422525481
% es.tEy (V/m) @ t=0.58
0
% es.tEz (V/m) @ t=0.58
18.414574143886284
% V (V) @ t=0.58
0.01272410358848737
% es.normE (V/m) @ t=0.6
41.11894066523382
% es.EX (V/m) @ t=0.6
-19.418751471447223
% es.EY (V/m) @ t=0.6
15.579829029195558
% es.EZ (V/m) @ t=0.6
18.676377662106688
% es.tEX (V/m) @ t=0.6
-19.418751471447194
% es.tEY (V/m) @ t=0.6
0
% es.tEZ (V/m) @ t=0.6
18.676377662106688
% es.Ex (V/m) @ t=0.6
-19.418751471447223
% es.Ey (V/m) @ t=0.6
15.579829029195558
% es.Ez (V/m) @ t=0.6
18.676377662106688
% es.tEx (V/m) @ t=0.6
-19.418751471447194
% es.tEy (V/m) @ t=0.6
0
% es.tEz (V/m) @ t=0.6
18.676377662106688
% V (V) @ t=0.6
0.012905004235471335
% es.normE (V/m) @ t=0.62
41.700824451300754
% es.EX (V/m) @ t=0.62
-19.69355019394
% es.EY (V/m) @ t=0.62
15.800302943419567
% es.EZ (V/m) @ t=0.62
18.94067215130127
% es.tEX (V/m) @ t=0.62
-19.693550193939977
% es.tEY (V/m) @ t=0.62
0
% es.tEZ (V/m) @ t=0.62
18.940672151301328
% es.Ex (V/m) @ t=0.62
-19.69355019394
% es.Ey (V/m) @ t=0.62
15.800302943419567
% es.Ez (V/m) @ t=0.62
18.94067215130127
% es.tEx (V/m) @ t=0.62
-19.693550193939977
% es.tEy (V/m) @ t=0.62
0
% es.tEz (V/m) @ t=0.62
18.940672151301328
% V (V) @ t=0.62
0.013087625882104098
% es.normE (V/m) @ t=0.64
42.288191938912625
% es.EX (V/m) @ t=0.64
-19.970938420026442
% es.EY (V/m) @ t=0.64
16.022854648927456
% es.EZ (V/m) @ t=0.64
19.20745761147039
% es.tEX (V/m) @ t=0.64
-19.970938420026485
% es.tEY (V/m) @ t=0.64
0
% es.tEZ (V/m) @ t=0.64
19.20745761147043
% es.Ex (V/m) @ t=0.64
-19.970938420026442
% es.Ey (V/m) @ t=0.64
16.022854648927456
% es.Ez (V/m) @ t=0.64
19.20745761147039
% es.tEx (V/m) @ t=0.64
-19.970938420026485
% es.tEy (V/m) @ t=0.64
0
% es.tEz (V/m) @ t=0.64
19.20745761147043
% V (V) @ t=0.64
0.01327196852838566
% es.normE (V/m) @ t=0.66
42.88104312806917
% es.EX (V/m) @ t=0.66
-20.250916149706583
% es.EY (V/m) @ t=0.66
16.247484145719163
% es.EZ (V/m) @ t=0.66
19.476734042613685
% es.tEX (V/m) @ t=0.66
-20.25091614970657
% es.tEY (V/m) @ t=0.66
0
% es.tEZ (V/m) @ t=0.66
19.476734042613657
% es.Ex (V/m) @ t=0.66
-20.250916149706583
% es.Ey (V/m) @ t=0.66
16.247484145719163
% es.Ez (V/m) @ t=0.66
19.476734042613685
% es.tEx (V/m) @ t=0.66
-20.25091614970657
% es.tEy (V/m) @ t=0.66
0
% es.tEz (V/m) @ t=0.66
19.476734042613657
% V (V) @ t=0.66
0.013458032174316022
% es.normE (V/m) @ t=0.68
43.47937801877056
% es.EX (V/m) @ t=0.68
-20.533483382980435
% es.EY (V/m) @ t=0.68
16.47419143379461
% es.EZ (V/m) @ t=0.68
19.74850144473146
% es.tEX (V/m) @ t=0.68
-20.533483382980435
% es.tEY (V/m) @ t=0.68
0
% es.tEZ (V/m) @ t=0.68
19.74850144473146
% es.Ex (V/m) @ t=0.68
-20.533483382980435
% es.Ey (V/m) @ t=0.68
16.47419143379461
% es.Ez (V/m) @ t=0.68
19.74850144473146
% es.tEx (V/m) @ t=0.68
-20.533483382980435
% es.tEy (V/m) @ t=0.68
0
% es.tEz (V/m) @ t=0.68
19.74850144473146
% V (V) @ t=0.68
0.01364581681989518
% es.normE (V/m) @ t=0.7
44.08319661101679
% es.EX (V/m) @ t=0.7
-20.818640119847956
% es.EY (V/m) @ t=0.7
16.70297651315387
% es.EZ (V/m) @ t=0.7
20.022759817823555
% es.tEX (V/m) @ t=0.7
-20.81864011984794
% es.tEY (V/m) @ t=0.7
0
% es.tEZ (V/m) @ t=0.7
20.022759817823555
% es.Ex (V/m) @ t=0.7
-20.818640119847956
% es.Ey (V/m) @ t=0.7
16.70297651315387
% es.Ez (V/m) @ t=0.7
20.022759817823555
% es.tEx (V/m) @ t=0.7
-20.81864011984794
% es.tEy (V/m) @ t=0.7
0
% es.tEz (V/m) @ t=0.7
20.022759817823555
% V (V) @ t=0.7
0.013835322465123137
% es.normE (V/m) @ t=0.72
44.69249890480802
% es.EX (V/m) @ t=0.72
-21.10638636030926
% es.EY (V/m) @ t=0.72
16.933839383797093
% es.EZ (V/m) @ t=0.72
20.299509161890015
% es.tEX (V/m) @ t=0.72
-21.10638636030923
% es.tEY (V/m) @ t=0.72
0
% es.tEZ (V/m) @ t=0.72
20.299509161890057
% es.Ex (V/m) @ t=0.72
-21.10638636030926
% es.Ey (V/m) @ t=0.72
16.933839383797093
% es.Ez (V/m) @ t=0.72
20.299509161890015
% es.tEx (V/m) @ t=0.72
-21.10638636030923
% es.tEy (V/m) @ t=0.72
0
% es.tEz (V/m) @ t=0.72
20.299509161890057
% V (V) @ t=0.72
0.01402654910999989
% es.normE (V/m) @ t=0.74
45.307284900144055
% es.EX (V/m) @ t=0.74
-21.396722104364216
% es.EY (V/m) @ t=0.74
17.166780045723954
% es.EZ (V/m) @ t=0.74
20.578749476930817
% es.tEX (V/m) @ t=0.74
-21.396722104364216
% es.tEY (V/m) @ t=0.74
0
% es.tEZ (V/m) @ t=0.74
20.578749476930795
% es.Ex (V/m) @ t=0.74
-21.396722104364216
% es.Ey (V/m) @ t=0.74
17.166780045723954
% es.Ez (V/m) @ t=0.74
20.578749476930817
% es.tEx (V/m) @ t=0.74
-21.396722104364216
% es.tEy (V/m) @ t=0.74
0
% es.tEz (V/m) @ t=0.74
20.578749476930795
% V (V) @ t=0.74
0.014219496754525445
% es.normE (V/m) @ t=0.76
45.927554597025235
% es.EX (V/m) @ t=0.76
-21.689647352012884
% es.EY (V/m) @ t=0.76
17.401798498934596
% es.EZ (V/m) @ t=0.76
20.860480762946096
% es.tEX (V/m) @ t=0.76
-21.689647352012898
% es.tEY (V/m) @ t=0.76
0
% es.tEZ (V/m) @ t=0.76
20.86048076294611
% es.Ex (V/m) @ t=0.76
-21.689647352012884
% es.Ey (V/m) @ t=0.76
17.401798498934596
% es.Ez (V/m) @ t=0.76
20.860480762946096
% es.tEx (V/m) @ t=0.76
-21.689647352012898
% es.tEy (V/m) @ t=0.76
0
% es.tEz (V/m) @ t=0.76
20.86048076294611
% V (V) @ t=0.76
0.014414165398699798
% es.normE (V/m) @ t=0.78
46.55330799545142
% es.EX (V/m) @ t=0.78
-21.98516210325525
% es.EY (V/m) @ t=0.78
17.638894743429212
% es.EZ (V/m) @ t=0.78
21.144703019935505
% es.tEX (V/m) @ t=0.78
-21.98516210325522
% es.tEY (V/m) @ t=0.78
0
% es.tEZ (V/m) @ t=0.78
21.14470301993549
% es.Ex (V/m) @ t=0.78
-21.98516210325525
% es.Ey (V/m) @ t=0.78
17.638894743429212
% es.Ez (V/m) @ t=0.78
21.144703019935505
% es.tEx (V/m) @ t=0.78
-21.98516210325522
% es.tEy (V/m) @ t=0.78
0
% es.tEz (V/m) @ t=0.78
21.14470301993549
% V (V) @ t=0.78
0.01461055504252295
% es.normE (V/m) @ t=0.8
47.18454509542276
% es.EX (V/m) @ t=0.8
-22.28326635809131
% es.EY (V/m) @ t=0.8
17.87806877920754
% es.EZ (V/m) @ t=0.8
21.43141624789947
% es.tEX (V/m) @ t=0.8
-22.283266358091325
% es.tEY (V/m) @ t=0.8
0
% es.tEZ (V/m) @ t=0.8
21.431416247899392
% es.Ex (V/m) @ t=0.8
-22.28326635809131
% es.Ey (V/m) @ t=0.8
17.87806877920754
% es.Ez (V/m) @ t=0.8
21.43141624789947
% es.tEx (V/m) @ t=0.8
-22.283266358091325
% es.tEy (V/m) @ t=0.8
0
% es.tEz (V/m) @ t=0.8
21.431416247899392
% V (V) @ t=0.8
0.014808665685994898
% es.normE (V/m) @ t=0.82
47.821793616665644
% es.EX (V/m) @ t=0.82
-22.584209468846296
% es.EY (V/m) @ t=0.82
18.11952053624413
% es.EZ (V/m) @ t=0.82
21.720859985875222
% es.tEX (V/m) @ t=0.82
-22.584209468846282
% es.tEY (V/m) @ t=0.82
0
% es.tEZ (V/m) @ t=0.82
21.720859985875222
% es.Ex (V/m) @ t=0.82
-22.584209468846296
% es.Ey (V/m) @ t=0.82
18.11952053624413
% es.Ez (V/m) @ t=0.82
21.720859985875222
% es.tEx (V/m) @ t=0.82
-22.584209468846282
% es.tEy (V/m) @ t=0.82
0
% es.tEz (V/m) @ t=0.82
21.720859985875222
% V (V) @ t=0.82
0.015008662973926867
% es.normE (V/m) @ t=0.84
48.47541878129835
% es.EX (V/m) @ t=0.84
-22.892889096357237
% es.EY (V/m) @ t=0.84
18.367176944859573
% es.EZ (V/m) @ t=0.84
22.017739146729454
% es.tEX (V/m) @ t=0.84
-22.89288909635723
% es.tEY (V/m) @ t=0.84
0
% es.tEZ (V/m) @ t=0.84
22.01773914672947
% es.Ex (V/m) @ t=0.84
-22.892889096357237
% es.Ey (V/m) @ t=0.84
18.367176944859573
% es.Ez (V/m) @ t=0.84
22.017739146729454
% es.tEx (V/m) @ t=0.84
-22.89288909635723
% es.tEy (V/m) @ t=0.84
0
% es.tEz (V/m) @ t=0.84
22.01773914672947
% V (V) @ t=0.84
0.015213800423621724
% es.normE (V/m) @ t=0.86
49.13607660557247
% es.EX (V/m) @ t=0.86
-23.204890124117952
% es.EY (V/m) @ t=0.86
18.617497977384573
% es.EZ (V/m) @ t=0.86
22.317812371342356
% es.tEX (V/m) @ t=0.86
-23.204890124117945
% es.tEY (V/m) @ t=0.86
0
% es.tEZ (V/m) @ t=0.86
22.317812371342256
% es.Ex (V/m) @ t=0.86
-23.204890124117952
% es.Ey (V/m) @ t=0.86
18.617497977384573
% es.Ez (V/m) @ t=0.86
22.317812371342356
% es.tEx (V/m) @ t=0.86
-23.204890124117945
% es.tEy (V/m) @ t=0.86
0
% es.tEz (V/m) @ t=0.86
22.317812371342256
% V (V) @ t=0.86
0.015421145072094682
% es.normE (V/m) @ t=0.88
49.80376708948826
% es.EX (V/m) @ t=0.88
-23.5202125521285
% es.EY (V/m) @ t=0.88
18.87048363381959
% es.EZ (V/m) @ t=0.88
22.621079659713764
% es.tEX (V/m) @ t=0.88
-23.5202125521285
% es.tEY (V/m) @ t=0.88
0
% es.tEZ (V/m) @ t=0.88
22.621079659713757
% es.Ex (V/m) @ t=0.88
-23.5202125521285
% es.Ey (V/m) @ t=0.88
18.87048363381959
% es.Ez (V/m) @ t=0.88
22.621079659713764
% es.tEx (V/m) @ t=0.88
-23.5202125521285
% es.tEy (V/m) @ t=0.88
0
% es.tEz (V/m) @ t=0.88
22.621079659713757
% V (V) @ t=0.88
0.01563069691934574
% es.normE (V/m) @ t=0.9
50.47849023304553
% es.EX (V/m) @ t=0.9
-23.83885638038882
% es.EY (V/m) @ t=0.9
19.126133914164228
% es.EZ (V/m) @ t=0.9
22.92754101184378
% es.tEX (V/m) @ t=0.9
-23.838856380388805
% es.tEY (V/m) @ t=0.9
0
% es.tEZ (V/m) @ t=0.9
22.9275410118438
% es.Ex (V/m) @ t=0.9
-23.83885638038882
% es.Ey (V/m) @ t=0.9
19.126133914164228
% es.Ez (V/m) @ t=0.9
22.92754101184378
% es.tEx (V/m) @ t=0.9
-23.838856380388805
% es.tEy (V/m) @ t=0.9
0
% es.tEz (V/m) @ t=0.9
22.9275410118438
% V (V) @ t=0.9
0.0158424559653749
% es.normE (V/m) @ t=0.92
51.16024603624433
% es.EX (V/m) @ t=0.92
-24.160821608898857
% es.EY (V/m) @ t=0.92
19.38444881841872
% es.EZ (V/m) @ t=0.92
23.237196427732385
% es.tEX (V/m) @ t=0.92
-24.160821608898857
% es.tEY (V/m) @ t=0.92
0
% es.tEZ (V/m) @ t=0.92
23.23719642773233
% es.Ex (V/m) @ t=0.92
-24.160821608898857
% es.Ey (V/m) @ t=0.92
19.38444881841872
% es.Ez (V/m) @ t=0.92
23.237196427732385
% es.tEx (V/m) @ t=0.92
-24.160821608898857
% es.tEy (V/m) @ t=0.92
0
% es.tEz (V/m) @ t=0.92
23.23719642773233
% V (V) @ t=0.92
0.01605642221018216
% es.normE (V/m) @ t=0.94
51.84903449908503
% es.EX (V/m) @ t=0.94
-24.486108237658925
% es.EY (V/m) @ t=0.94
19.645428346583074
% es.EZ (V/m) @ t=0.94
23.55004590737972
% es.tEX (V/m) @ t=0.94
-24.48610823765887
% es.tEY (V/m) @ t=0.94
0
% es.tEZ (V/m) @ t=0.94
23.55004590737974
% es.Ex (V/m) @ t=0.94
-24.486108237658925
% es.Ey (V/m) @ t=0.94
19.645428346583074
% es.Ez (V/m) @ t=0.94
23.55004590737972
% es.tEx (V/m) @ t=0.94
-24.48610823765887
% es.tEy (V/m) @ t=0.94
0
% es.tEz (V/m) @ t=0.94
23.55004590737974
% V (V) @ t=0.94
0.016272595653767524
% es.normE (V/m) @ t=0.96
52.54485562156711
% es.EX (V/m) @ t=0.96
-24.81471626666861
% es.EY (V/m) @ t=0.96
19.909072498657117
% es.EZ (V/m) @ t=0.96
23.866089450785537
% es.tEX (V/m) @ t=0.96
-24.81471626666861
% es.tEY (V/m) @ t=0.96
0
% es.tEZ (V/m) @ t=0.96
23.866089450785523
% es.Ex (V/m) @ t=0.96
-24.81471626666861
% es.Ey (V/m) @ t=0.96
19.909072498657117
% es.Ez (V/m) @ t=0.96
23.866089450785537
% es.tEx (V/m) @ t=0.96
-24.81471626666861
% es.tEy (V/m) @ t=0.96
0
% es.tEz (V/m) @ t=0.96
23.866089450785523
% V (V) @ t=0.96
0.016490976296130985
% es.normE (V/m) @ t=0.98
53.24770940369105
% es.EX (V/m) @ t=0.98
-25.14664569592823
% es.EY (V/m) @ t=0.98
20.175381274640998
% es.EZ (V/m) @ t=0.98
24.185327057950104
% es.tEX (V/m) @ t=0.98
-25.14664569592823
% es.tEY (V/m) @ t=0.98
0
% es.tEZ (V/m) @ t=0.98
24.185327057950133
% es.Ex (V/m) @ t=0.98
-25.14664569592823
% es.Ey (V/m) @ t=0.98
20.175381274640998
% es.Ez (V/m) @ t=0.98
24.185327057950104
% es.tEx (V/m) @ t=0.98
-25.14664569592823
% es.tEy (V/m) @ t=0.98
0
% es.tEz (V/m) @ t=0.98
24.185327057950133
% V (V) @ t=0.98
0.016711564137272546
% es.normE (V/m) @ t=1
53.95759584545641
% es.EX (V/m) @ t=1
-25.481896525437463
% es.EY (V/m) @ t=1
20.44435467453463
% es.EZ (V/m) @ t=1
24.5077587288731
% es.tEX (V/m) @ t=1
-25.48189652543749
% es.tEY (V/m) @ t=1
0
% es.tEZ (V/m) @ t=1
24.507758728873114
% es.Ex (V/m) @ t=1
-25.481896525437463
% es.Ey (V/m) @ t=1
20.44435467453463
% es.Ez (V/m) @ t=1
24.5077587288731
% es.tEx (V/m) @ t=1
-25.48189652543749
% es.tEy (V/m) @ t=1
0
% es.tEz (V/m) @ t=1
24.507758728873114
% V (V) @ t=1
0.01693435917719221
% es.normE (V/m) @ t=1.02
54.67451494686373
% es.EX (V/m) @ t=1.02
-25.820468755196657
% es.EY (V/m) @ t=1.02
20.71599269833809
% es.EZ (V/m) @ t=1.02
24.83338446355488
% es.tEX (V/m) @ t=1.02
-25.820468755196714
% es.tEY (V/m) @ t=1.02
0
% es.tEZ (V/m) @ t=1.02
24.833384463554864
% es.Ex (V/m) @ t=1.02
-25.820468755196657
% es.Ey (V/m) @ t=1.02
20.71599269833809
% es.Ez (V/m) @ t=1.02
24.83338446355488
% es.tEx (V/m) @ t=1.02
-25.820468755196714
% es.tEy (V/m) @ t=1.02
0
% es.tEz (V/m) @ t=1.02
24.833384463554864
% V (V) @ t=1.02
0.017159361415889973
% es.normE (V/m) @ t=1.04
55.39846670791273
% es.EX (V/m) @ t=1.04
-26.162362385205626
% es.EY (V/m) @ t=1.04
20.99029534605146
% es.EZ (V/m) @ t=1.04
25.16220426199513
% es.tEX (V/m) @ t=1.04
-26.162362385205583
% es.tEY (V/m) @ t=1.04
0
% es.tEZ (V/m) @ t=1.04
25.162204261995157
% es.Ex (V/m) @ t=1.04
-26.162362385205626
% es.Ey (V/m) @ t=1.04
20.99029534605146
% es.Ez (V/m) @ t=1.04
25.16220426199513