% Model:              1 neuron.mph
% Version:            COMSOL 6.0.0.405
% Date:               Mar 16 2023, 19:21
% Dimension:          0
% Nodes:              14017
% Expressions:        14017
% Description:        Electric field norm, Electric field, X component, Electric field, Y component, Electric field, Z component, Tangential electric field, X component, Tangential electric field, Y component, Tangential electric field, Z component, Electric field, x component, Electric field, y component, Electric field, z component, Tangential electric field, x component, Tangential electric field, y component, Tangential electric field, z component, Electric potential
% Length unit:        mm
% x
1.33
% y
12.2
% z
2
% es.normE (V/m) @ t=0
2.2132455065451877
% es.EX (V/m) @ t=0
0.8820638233925784
% es.EY (V/m) @ t=0
0.2332007683554833
% es.EZ (V/m) @ t=0
-2.014651616090383
% es.tEX (V/m) @ t=0
0.8820638233925786
% es.tEY (V/m) @ t=0
0
% es.tEZ (V/m) @ t=0
-2.0146516160903865
% es.Ex (V/m) @ t=0
0.8820638233925784
% es.Ey (V/m) @ t=0
0.2332007683554833
% es.Ez (V/m) @ t=0
-2.014651616090383
% es.tEx (V/m) @ t=0
0.8820638233925786
% es.tEy (V/m) @ t=0
0
% es.tEz (V/m) @ t=0
-2.0146516160903865
% V (V) @ t=0
0.011066436041414166
% es.normE (V/m) @ t=0.02
1.9222206319288255
% es.EX (V/m) @ t=0.02
0.7660791688761976
% es.EY (V/m) @ t=0.02
0.20253664998367782
% es.EZ (V/m) @ t=0.02
-1.7497403210549392
% es.tEX (V/m) @ t=0.02
0.7660791688761979
% es.tEY (V/m) @ t=0.02
0
% es.tEZ (V/m) @ t=0.02
-1.7497403210549365
% es.Ex (V/m) @ t=0.02
0.7660791688761976
% es.Ey (V/m) @ t=0.02
0.20253664998367782
% es.Ez (V/m) @ t=0.02
-1.7497403210549392
% es.tEx (V/m) @ t=0.02
0.7660791688761979
% es.tEy (V/m) @ t=0.02
0
% es.tEz (V/m) @ t=0.02
-1.7497403210549365
% V (V) @ t=0.02
0.009611284026896282
% es.normE (V/m) @ t=0.04
1.9507221625609246
% es.EX (V/m) @ t=0.04
0.7774381263395254
% es.EY (V/m) @ t=0.04
0.20553974557220478
% es.EZ (V/m) @ t=0.04
-1.7756844185497629
% es.tEX (V/m) @ t=0.04
0.7774381263395256
% es.tEY (V/m) @ t=0.04
0
% es.tEZ (V/m) @ t=0.04
-1.775684418549769
% es.Ex (V/m) @ t=0.04
0.7774381263395254
% es.Ey (V/m) @ t=0.04
0.20553974557220478
% es.Ez (V/m) @ t=0.04
-1.7756844185497629
% es.tEx (V/m) @ t=0.04
0.7774381263395256
% es.tEy (V/m) @ t=0.04
0
% es.tEz (V/m) @ t=0.04
-1.775684418549769
% V (V) @ t=0.04
0.009753793442694083
% es.normE (V/m) @ t=0.06
1.9796548913256817
% es.EX (V/m) @ t=0.06
0.7889689238859601
% es.EY (V/m) @ t=0.06
0.2085882854276493
% es.EZ (V/m) @ t=0.06
-1.802021025846515
% es.tEX (V/m) @ t=0.06
0.7889689238859603
% es.tEY (V/m) @ t=0.06
0
% es.tEZ (V/m) @ t=0.06
-1.8020210258465141
% es.Ex (V/m) @ t=0.06
0.7889689238859601
% es.Ey (V/m) @ t=0.06
0.2085882854276493
% es.Ez (V/m) @ t=0.06
-1.802021025846515
% es.tEx (V/m) @ t=0.06
0.7889689238859603
% es.tEy (V/m) @ t=0.06
0
% es.tEz (V/m) @ t=0.06
-1.8020210258465141
% V (V) @ t=0.06
0.00989845644436614
% es.normE (V/m) @ t=0.08
2.0093170452754396
% es.EX (V/m) @ t=0.08
0.8007904417563312
% es.EY (V/m) @ t=0.08
0.21171366284925686
% es.EZ (V/m) @ t=0.08
-1.8290216018985994
% es.tEX (V/m) @ t=0.08
0.8007904417563316
% es.tEY (V/m) @ t=0.08
0
% es.tEZ (V/m) @ t=0.08
-1.8290216018986012
% es.Ex (V/m) @ t=0.08
0.8007904417563312
% es.Ey (V/m) @ t=0.08
0.21171366284925686
% es.Ez (V/m) @ t=0.08
-1.8290216018985994
% es.tEx (V/m) @ t=0.08
0.8007904417563316
% es.tEy (V/m) @ t=0.08
0
% es.tEz (V/m) @ t=0.08
-1.8290216018986012
% V (V) @ t=0.08
0.010046771026136173
% es.normE (V/m) @ t=0.1
2.0395071171078873
% es.EX (V/m) @ t=0.1
0.8128223670283512
% es.EY (V/m) @ t=0.1
0.21489465108068195
% es.EZ (V/m) @ t=0.1
-1.856502722064998
% es.tEX (V/m) @ t=0.1
0.8128223670283514
% es.tEY (V/m) @ t=0.1
0
% es.tEZ (V/m) @ t=0.1
-1.856502722065004
% es.Ex (V/m) @ t=0.1
0.8128223670283512
% es.Ey (V/m) @ t=0.1
0.21489465108068195
% es.Ez (V/m) @ t=0.1
-1.856502722064998
% es.tEx (V/m) @ t=0.1
0.8128223670283514
% es.tEy (V/m) @ t=0.1
0
% es.tEz (V/m) @ t=0.1
-1.856502722065004
% V (V) @ t=0.1
0.010197728421005353
% es.normE (V/m) @ t=0.12
2.0696971889403413
% es.EX (V/m) @ t=0.12
0.824854292300365
% es.EY (V/m) @ t=0.12
0.2180756393120724
% es.EZ (V/m) @ t=0.12
-1.8839838422314097
% es.tEX (V/m) @ t=0.12
0.8248542923003654
% es.tEY (V/m) @ t=0.12
0
% es.tEZ (V/m) @ t=0.12
-1.8839838422314195
% es.Ex (V/m) @ t=0.12
0.824854292300365
% es.Ey (V/m) @ t=0.12
0.2180756393120724
% es.Ez (V/m) @ t=0.12
-1.8839838422314097
% es.tEx (V/m) @ t=0.12
0.8248542923003654
% es.tEy (V/m) @ t=0.12
0
% es.tEz (V/m) @ t=0.12
-1.8839838422314195
% V (V) @ t=0.12
0.010348685815874534
% es.normE (V/m) @ t=0.14
2.100349603242023
% es.EX (V/m) @ t=0.14
0.8370704357176242
% es.EY (V/m) @ t=0.14
0.22130539241490688
% es.EZ (V/m) @ t=0.14
-1.911885833241655
% es.tEX (V/m) @ t=0.14
0.8370704357176244
% es.tEY (V/m) @ t=0.14
0
% es.tEZ (V/m) @ t=0.14
-1.9118858332416657
% es.Ex (V/m) @ t=0.14
0.8370704357176242
% es.Ey (V/m) @ t=0.14
0.22130539241490688
% es.Ez (V/m) @ t=0.14
-1.911885833241655
% es.tEx (V/m) @ t=0.14
0.8370704357176244
% es.tEy (V/m) @ t=0.14
0
% es.tEz (V/m) @ t=0.14
-1.9118858332416657
% V (V) @ t=0.14
0.010501943342092628
% es.normE (V/m) @ t=0.16
2.133255275192557
% es.EX (V/m) @ t=0.16
0.8501843788665746
% es.EY (V/m) @ t=0.16
0.22477280445415015
% es.EZ (V/m) @ t=0.16
-1.9418389670976408
% es.tEX (V/m) @ t=0.16
0.850184378866575
% es.tEY (V/m) @ t=0.16
0
% es.tEZ (V/m) @ t=0.16
-1.941838967097647
% es.Ex (V/m) @ t=0.16
0.8501843788665746
% es.Ey (V/m) @ t=0.16
0.22477280445415015
% es.Ez (V/m) @ t=0.16
-1.9418389670976408
% es.tEx (V/m) @ t=0.16
0.850184378866575
% es.tEy (V/m) @ t=0.16
0
% es.tEz (V/m) @ t=0.16
-1.941838967097647
% V (V) @ t=0.16
0.010666410715772252
% es.normE (V/m) @ t=0.18
2.166160947143169
% es.EX (V/m) @ t=0.18
0.8632983220155246
% es.EY (V/m) @ t=0.18
0.22824021649339432
% es.EZ (V/m) @ t=0.18
-1.9717921009536354
% es.tEX (V/m) @ t=0.18
0.8632983220155248
% es.tEY (V/m) @ t=0.18
0
% es.tEZ (V/m) @ t=0.18
-1.971792100953639
% es.Ex (V/m) @ t=0.18
0.8632983220155246
% es.Ey (V/m) @ t=0.18
0.22824021649339432
% es.Ez (V/m) @ t=0.18
-1.9717921009536354
% es.tEx (V/m) @ t=0.18
0.8632983220155248
% es.tEy (V/m) @ t=0.18
0
% es.tEz (V/m) @ t=0.18
-1.971792100953639
% V (V) @ t=0.18
0.010830878089451879
% es.normE (V/m) @ t=0.2
2.1990666190938346
% es.EX (V/m) @ t=0.2
0.8764122651644712
% es.EY (V/m) @ t=0.2
0.23170762853264026
% es.EZ (V/m) @ t=0.2
-2.001745234809614
% es.tEX (V/m) @ t=0.2
0.8764122651644679
% es.tEY (V/m) @ t=0.2
0
% es.tEZ (V/m) @ t=0.2
-2.0017452348096203
% es.Ex (V/m) @ t=0.2
0.8764122651644712
% es.Ey (V/m) @ t=0.2
0.23170762853264026
% es.Ez (V/m) @ t=0.2
-2.001745234809614
% es.tEx (V/m) @ t=0.2
0.8764122651644679
% es.tEy (V/m) @ t=0.2
0
% es.tEz (V/m) @ t=0.2
-2.0017452348096203
% V (V) @ t=0.2
0.010995345463131502
% es.normE (V/m) @ t=0.22
2.2319722910445794
% es.EX (V/m) @ t=0.22
0.8895262083134252
% es.EY (V/m) @ t=0.22
0.23517504057189598
% es.EZ (V/m) @ t=0.22
-2.0316983686656034
% es.tEX (V/m) @ t=0.22
0.8895262083134257
% es.tEY (V/m) @ t=0.22
0
% es.tEZ (V/m) @ t=0.22
-2.0316983686656034
% es.Ex (V/m) @ t=0.22
0.8895262083134252
% es.Ey (V/m) @ t=0.22
0.23517504057189598
% es.Ez (V/m) @ t=0.22
-2.0316983686656034
% es.tEx (V/m) @ t=0.22
0.8895262083134257
% es.tEy (V/m) @ t=0.22
0
% es.tEz (V/m) @ t=0.22
-2.0316983686656034
% V (V) @ t=0.22
0.011159812836811127
% es.normE (V/m) @ t=0.24
2.2648779629953992
% es.EX (V/m) @ t=0.24
0.9026401514623905
% es.EY (V/m) @ t=0.24
0.2386424526111206
% es.EZ (V/m) @ t=0.24
-2.061651502521606
% es.tEX (V/m) @ t=0.24
0.902640151462391
% es.tEY (V/m) @ t=0.24
0
% es.tEZ (V/m) @ t=0.24
-2.061651502521606
% es.Ex (V/m) @ t=0.24
0.9026401514623905
% es.Ey (V/m) @ t=0.24
0.2386424526111206
% es.Ez (V/m) @ t=0.24
-2.061651502521606
% es.tEx (V/m) @ t=0.24
0.902640151462391
% es.tEy (V/m) @ t=0.24
0
% es.tEz (V/m) @ t=0.24
-2.061651502521606
% V (V) @ t=0.24
0.011324280210490752
% es.normE (V/m) @ t=0.26
2.2977836349462457
% es.EX (V/m) @ t=0.26
0.9157540946113261
% es.EY (V/m) @ t=0.26
0.24210986465035944
% es.EZ (V/m) @ t=0.26
-2.091604636377583
% es.tEX (V/m) @ t=0.26
0.9157540946113265
% es.tEY (V/m) @ t=0.26
0
% es.tEZ (V/m) @ t=0.26
-2.0916046363775926
% es.Ex (V/m) @ t=0.26
0.9157540946113261
% es.Ey (V/m) @ t=0.26
0.24210986465035944
% es.Ez (V/m) @ t=0.26
-2.091604636377583
% es.tEx (V/m) @ t=0.26
0.9157540946113265
% es.tEy (V/m) @ t=0.26
0
% es.tEz (V/m) @ t=0.26
-2.0916046363775926
% V (V) @ t=0.26
0.01148874758417038
% es.normE (V/m) @ t=0.28
2.331732921220857
% es.EX (V/m) @ t=0.28
0.929284379232616
% es.EY (V/m) @ t=0.28
0.24568675368632586
% es.EZ (V/m) @ t=0.28
-2.122507602646409
% es.tEX (V/m) @ t=0.28
0.92928437923262
% es.tEY (V/m) @ t=0.28
0
% es.tEZ (V/m) @ t=0.28
-2.1225076026464116
% es.Ex (V/m) @ t=0.28
0.929284379232616
% es.Ey (V/m) @ t=0.28
0.24568675368632586
% es.Ez (V/m) @ t=0.28
-2.122507602646409
% es.tEx (V/m) @ t=0.28
0.92928437923262
% es.tEy (V/m) @ t=0.28
0
% es.tEz (V/m) @ t=0.28
-2.1225076026464116
% V (V) @ t=0.28
0.011658546401969123
% es.normE (V/m) @ t=0.3
2.3676161085497154
% es.EX (V/m) @ t=0.3
0.9435861779982126
% es.EY (V/m) @ t=0.3
0.2494665123787101
% es.EZ (V/m) @ t=0.3
-2.1551706845653493
% es.tEX (V/m) @ t=0.3
0.9435861779982129
% es.tEY (V/m) @ t=0.3
0
% es.tEZ (V/m) @ t=0.3
-2.155170684565359
% es.Ex (V/m) @ t=0.3
0.9435861779982126
% es.Ey (V/m) @ t=0.3
0.2494665123787101
% es.Ez (V/m) @ t=0.3
-2.1551706845653493
% es.tEx (V/m) @ t=0.3
0.9435861779982129
% es.tEy (V/m) @ t=0.3
0
% es.tEz (V/m) @ t=0.3
-2.155170684565359
% V (V) @ t=0.3
0.01183822481337304
% es.normE (V/m) @ t=0.32
2.40349929587968
% es.EX (V/m) @ t=0.32
0.9578879767637982
% es.EY (V/m) @ t=0.32
0.25324627107110675
% es.EZ (V/m) @ t=0.32
-2.1878337664842986
% es.tEX (V/m) @ t=0.32
0.9578879767638058
% es.tEY (V/m) @ t=0.32
0
% es.tEZ (V/m) @ t=0.32
-2.1878337664843013
% es.Ex (V/m) @ t=0.32
0.9578879767637982
% es.Ey (V/m) @ t=0.32
0.25324627107110675
% es.Ez (V/m) @ t=0.32
-2.1878337664842986
% es.tEx (V/m) @ t=0.32
0.9578879767638058
% es.tEy (V/m) @ t=0.32
0
% es.tEz (V/m) @ t=0.32
-2.1878337664843013
% V (V) @ t=0.32
0.012017903224776963
% es.normE (V/m) @ t=0.34
2.4393824832107143
% es.EX (V/m) @ t=0.34
0.9721897755294129
% es.EY (V/m) @ t=0.34
0.2570260297634892
% es.EZ (V/m) @ t=0.34
-2.220496848403254
% es.tEX (V/m) @ t=0.34
0.9721897755294062
% es.tEY (V/m) @ t=0.34
0
% es.tEZ (V/m) @ t=0.34
-2.2204968484032577
% es.Ex (V/m) @ t=0.34
0.9721897755294129
% es.Ey (V/m) @ t=0.34
0.2570260297634892
% es.Ez (V/m) @ t=0.34
-2.220496848403254
% es.tEx (V/m) @ t=0.34
0.9721897755294062
% es.tEy (V/m) @ t=0.34
0
% es.tEz (V/m) @ t=0.34
-2.2204968484032577
% V (V) @ t=0.34
0.012197581636180878
% es.normE (V/m) @ t=0.36
2.4752656705427416
% es.EX (V/m) @ t=0.36
0.9864915742950049
% es.EY (V/m) @ t=0.36
0.2608057884558823
% es.EZ (V/m) @ t=0.36
-2.2531599303222016
% es.tEX (V/m) @ t=0.36
0.9864915742950053
% es.tEY (V/m) @ t=0.36
0
% es.tEZ (V/m) @ t=0.36
-2.2531599303222123
% es.Ex (V/m) @ t=0.36
0.9864915742950049
% es.Ey (V/m) @ t=0.36
0.2608057884558823
% es.Ez (V/m) @ t=0.36
-2.2531599303222016
% es.tEx (V/m) @ t=0.36
0.9864915742950053
% es.tEy (V/m) @ t=0.36
0
% es.tEz (V/m) @ t=0.36
-2.2531599303222123
% V (V) @ t=0.36
0.0123772600475848
% es.normE (V/m) @ t=0.38
2.511148857875723
% es.EX (V/m) @ t=0.38
1.000793373060605
% es.EY (V/m) @ t=0.38
0.2645855471482683
% es.EZ (V/m) @ t=0.38
-2.2858230122411367
% es.tEX (V/m) @ t=0.38
1.0007933730606053
% es.tEY (V/m) @ t=0.38
0
% es.tEZ (V/m) @ t=0.38
-2.285823012241142
% es.Ex (V/m) @ t=0.38
1.000793373060605
% es.Ey (V/m) @ t=0.38
0.2645855471482683
% es.Ez (V/m) @ t=0.38
-2.2858230122411367
% es.tEx (V/m) @ t=0.38
1.0007933730606053
% es.tEy (V/m) @ t=0.38
0
% es.tEz (V/m) @ t=0.38
-2.285823012241142
% V (V) @ t=0.38
0.012556938458988719
% es.normE (V/m) @ t=0.4
2.54703204520965
% es.EX (V/m) @ t=0.4
1.015095171826212
% es.EY (V/m) @ t=0.4
0.26836530584066676
% es.EZ (V/m) @ t=0.4
-2.3184860941600913
% es.tEX (V/m) @ t=0.4
1.0150951718262125
% es.tEY (V/m) @ t=0.4
0
% es.tEZ (V/m) @ t=0.4
-2.3184860941601
% es.Ex (V/m) @ t=0.4
1.015095171826212
% es.Ey (V/m) @ t=0.4
0.26836530584066676
% es.Ez (V/m) @ t=0.4
-2.3184860941600913
% es.tEx (V/m) @ t=0.4
1.0150951718262125
% es.tEy (V/m) @ t=0.4
0
% es.tEz (V/m) @ t=0.4
-2.3184860941601
% V (V) @ t=0.4
0.012736616870392637
% es.normE (V/m) @ t=0.42
2.584574281417941
% es.EX (V/m) @ t=0.42
1.0300575336685367
% es.EY (V/m) @ t=0.42
0.272320599684166
% es.EZ (V/m) @ t=0.42
-2.3526595672173993
% es.tEX (V/m) @ t=0.42
1.0300575336685442
% es.tEY (V/m) @ t=0.42
0
% es.tEZ (V/m) @ t=0.42
-2.352659567217408
% es.Ex (V/m) @ t=0.42
1.0300575336685367
% es.Ey (V/m) @ t=0.42
0.272320599684166
% es.Ez (V/m) @ t=0.42
-2.3526595672173993
% es.tEx (V/m) @ t=0.42
1.0300575336685442
% es.tEy (V/m) @ t=0.42
0
% es.tEz (V/m) @ t=0.42
-2.352659567217408
% V (V) @ t=0.42
0.012924420567365523
% es.normE (V/m) @ t=0.44
2.62358337036324
% es.EX (V/m) @ t=0.44
1.0456039342166044
% es.EY (V/m) @ t=0.44
0.2764310934261385
% es.EZ (V/m) @ t=0.44
-2.38816845685602
% es.tEX (V/m) @ t=0.44
1.0456039342166044
% es.tEY (V/m) @ t=0.44
0
% es.tEZ (V/m) @ t=0.44
-2.3881684568560217
% es.Ex (V/m) @ t=0.44
1.0456039342166044
% es.Ey (V/m) @ t=0.44
0.2764310934261385
% es.Ez (V/m) @ t=0.44
-2.38816845685602
% es.tEx (V/m) @ t=0.44
1.0456039342166044
% es.tEy (V/m) @ t=0.44
0
% es.tEz (V/m) @ t=0.44
-2.3881684568560217
% V (V) @ t=0.44
0.01311940825847161
% es.normE (V/m) @ t=0.46
2.662592459308641
% es.EX (V/m) @ t=0.46
1.061150334764681
% es.EY (V/m) @ t=0.46
0.28054158716811095
% es.EZ (V/m) @ t=0.46
-2.423677346494644
% es.tEX (V/m) @ t=0.46
1.0611503347646813
% es.tEY (V/m) @ t=0.46
0
% es.tEZ (V/m) @ t=0.46
-2.4236773464946495
% es.Ex (V/m) @ t=0.46
1.061150334764681
% es.Ey (V/m) @ t=0.46
0.28054158716811095
% es.Ez (V/m) @ t=0.46
-2.423677346494644
% es.tEx (V/m) @ t=0.46
1.0611503347646813
% es.tEy (V/m) @ t=0.46
0
% es.tEz (V/m) @ t=0.46
-2.4236773464946495
% V (V) @ t=0.46
0.01331439594957769
% es.normE (V/m) @ t=0.48
2.7016015482541564
% es.EX (V/m) @ t=0.48
1.0766967353127845
% es.EY (V/m) @ t=0.48
0.2846520809100861
% es.EZ (V/m) @ t=0.48
-2.4591862361332826
% es.tEX (V/m) @ t=0.48
1.076696735312785
% es.tEY (V/m) @ t=0.48
0
% es.tEZ (V/m) @ t=0.48
-2.4591862361332844
% es.Ex (V/m) @ t=0.48
1.0766967353127845
% es.Ey (V/m) @ t=0.48
0.2846520809100861
% es.Ez (V/m) @ t=0.48
-2.4591862361332826
% es.tEx (V/m) @ t=0.48
1.076696735312785
% es.tEy (V/m) @ t=0.48
0
% es.tEz (V/m) @ t=0.48
-2.4591862361332844
% V (V) @ t=0.48
0.013509383640683771
% es.normE (V/m) @ t=0.5
2.7406106371997323
% es.EX (V/m) @ t=0.5
1.0922431358608669
% es.EY (V/m) @ t=0.5
0.28876257465206656
% es.EZ (V/m) @ t=0.5
-2.494695125771903
% es.tEX (V/m) @ t=0.5
1.0922431358608602
% es.tEY (V/m) @ t=0.5
0
% es.tEZ (V/m) @ t=0.5
-2.494695125771905
% es.Ex (V/m) @ t=0.5
1.0922431358608669
% es.Ey (V/m) @ t=0.5
0.28876257465206656
% es.Ez (V/m) @ t=0.5
-2.494695125771903
% es.tEx (V/m) @ t=0.5
1.0922431358608602
% es.tEy (V/m) @ t=0.5
0
% es.tEz (V/m) @ t=0.5
-2.494695125771905
% V (V) @ t=0.5
0.013704371331789854
% es.normE (V/m) @ t=0.52
2.779619726145393
% es.EX (V/m) @ t=0.52
1.1077895364089358
% es.EY (V/m) @ t=0.52
0.292873068394055
% es.EZ (V/m) @ t=0.52
-2.530204015410531
% es.tEX (V/m) @ t=0.52
1.1077895364089363
% es.tEY (V/m) @ t=0.52
0
% es.tEZ (V/m) @ t=0.52
-2.5302040154105327
% es.Ex (V/m) @ t=0.52
1.1077895364089358
% es.Ey (V/m) @ t=0.52
0.292873068394055
% es.Ez (V/m) @ t=0.52
-2.530204015410531
% es.tEx (V/m) @ t=0.52
1.1077895364089363
% es.tEy (V/m) @ t=0.52
0
% es.tEz (V/m) @ t=0.52
-2.5302040154105327
% V (V) @ t=0.52
0.013899359022895935
% es.normE (V/m) @ t=0.54
2.818628815091138
% es.EX (V/m) @ t=0.54
1.1233359369570395
% es.EY (V/m) @ t=0.54
0.2969835621360506
% es.EZ (V/m) @ t=0.54
-2.565712905049148
% es.tEX (V/m) @ t=0.54
1.12333593695704
% es.tEY (V/m) @ t=0.54
0
% es.tEZ (V/m) @ t=0.54
-2.56571290504915
% es.Ex (V/m) @ t=0.54
1.1233359369570395
% es.Ey (V/m) @ t=0.54
0.2969835621360506
% es.Ez (V/m) @ t=0.54
-2.565712905049148
% es.tEx (V/m) @ t=0.54
1.12333593695704
% es.tEy (V/m) @ t=0.54
0
% es.tEz (V/m) @ t=0.54
-2.56571290504915
% V (V) @ t=0.54
0.01409434671400202
% es.normE (V/m) @ t=0.56
2.858687993163962
% es.EX (V/m) @ t=0.56
1.1393008608768134
% es.EY (V/m) @ t=0.56
0.3012046737761169
% es.EZ (V/m) @ t=0.56
-2.6021776522763798
% es.tEX (V/m) @ t=0.56
1.1393008608768067
% es.tEY (V/m) @ t=0.56
0
% es.tEZ (V/m) @ t=0.56
-2.602177652276385
% es.Ex (V/m) @ t=0.56
1.1393008608768134
% es.Ey (V/m) @ t=0.56
0.3012046737761169
% es.Ez (V/m) @ t=0.56
-2.6021776522763798
% es.tEx (V/m) @ t=0.56
1.1393008608768067
% es.tEy (V/m) @ t=0.56
0
% es.tEz (V/m) @ t=0.56
-2.602177652276385
% V (V) @ t=0.56
0.014294590953368673
% es.normE (V/m) @ t=0.58
2.8995095910540782
% es.EX (V/m) @ t=0.58
1.15556965472947
% es.EY (V/m) @ t=0.58
0.30550609981570087
% es.EZ (V/m) @ t=0.58
-2.639336402278486
% es.tEX (V/m) @ t=0.58
1.1555696547294634
% es.tEY (V/m) @ t=0.58
0
% es.tEZ (V/m) @ t=0.58
-2.639336402278488
% es.Ex (V/m) @ t=0.58
1.15556965472947
% es.Ey (V/m) @ t=0.58
0.30550609981570087
% es.Ez (V/m) @ t=0.58
-2.639336402278486
% es.tEx (V/m) @ t=0.58
1.1555696547294634
% es.tEy (V/m) @ t=0.58
0
% es.tEz (V/m) @ t=0.58
-2.639336402278488
% V (V) @ t=0.58
0.014498651722648127
% es.normE (V/m) @ t=0.6
2.9407234334937313
% es.EX (V/m) @ t=0.6
1.1719947815134497
% es.EY (V/m) @ t=0.6
0.30984884545991864
% es.EZ (V/m) @ t=0.6
-2.676852198096592
% es.tEX (V/m) @ t=0.6
1.1719947815134502
% es.tEY (V/m) @ t=0.6
0
% es.tEZ (V/m) @ t=0.6
-2.6768521980966042
% es.Ex (V/m) @ t=0.6
1.1719947815134497
% es.Ey (V/m) @ t=0.6
0.30984884545991864
% es.Ez (V/m) @ t=0.6
-2.676852198096592
% es.tEx (V/m) @ t=0.6
1.1719947815134502
% es.tEy (V/m) @ t=0.6
0
% es.tEz (V/m) @ t=0.6
-2.6768521980966042
% V (V) @ t=0.6
0.014704675994216413
% es.normE (V/m) @ t=0.62
2.9823295204829154
% es.EX (V/m) @ t=0.62
1.188576241228763
% es.EY (V/m) @ t=0.62
0.3142329107088315
% es.EZ (V/m) @ t=0.62
-2.714725039730686
% es.tEX (V/m) @ t=0.62
1.1885762412287635
% es.tEY (V/m) @ t=0.62
0
% es.tEZ (V/m) @ t=0.62
-2.714725039730695
% es.Ex (V/m) @ t=0.62
1.188576241228763
% es.Ey (V/m) @ t=0.62
0.3142329107088315
% es.Ez (V/m) @ t=0.62
-2.714725039730686
% es.tEx (V/m) @ t=0.62
1.1885762412287635
% es.tEy (V/m) @ t=0.62
0
% es.tEz (V/m) @ t=0.62
-2.714725039730695
% V (V) @ t=0.62
0.014912663768073535
% es.normE (V/m) @ t=0.64
3.0243278520216323
% es.EX (V/m) @ t=0.64
1.2053140338754047
% es.EY (V/m) @ t=0.64
0.31865829556240133
% es.EZ (V/m) @ t=0.64
-2.7529549271807863
% es.tEX (V/m) @ t=0.64
1.2053140338754051
% es.tEY (V/m) @ t=0.64
0
% es.tEZ (V/m) @ t=0.64
-2.7529549271807916
% es.Ex (V/m) @ t=0.64
1.2053140338754047
% es.Ey (V/m) @ t=0.64
0.31865829556240133
% es.Ez (V/m) @ t=0.64
-2.7529549271807863
% es.tEx (V/m) @ t=0.64
1.2053140338754051
% es.tEy (V/m) @ t=0.64
0
% es.tEz (V/m) @ t=0.64
-2.7529549271807916
% V (V) @ t=0.64
0.015122615044219493
% es.normE (V/m) @ t=0.66
3.066718428109853
% es.EX (V/m) @ t=0.66
1.2222081594533516
% es.EY (V/m) @ t=0.66
0.3231250000206449
% es.EZ (V/m) @ t=0.66
-2.791541860446875
% es.tEX (V/m) @ t=0.66
1.222208159453345
% es.tEY (V/m) @ t=0.66
0
% es.tEZ (V/m) @ t=0.66
-2.7915418604468805
% es.Ex (V/m) @ t=0.66
1.2222081594533516
% es.Ey (V/m) @ t=0.66
0.3231250000206449
% es.Ez (V/m) @ t=0.66
-2.791541860446875
% es.tEx (V/m) @ t=0.66
1.222208159453345
% es.tEy (V/m) @ t=0.66
0
% es.tEz (V/m) @ t=0.66
-2.7915418604468805
% V (V) @ t=0.66
0.015334529822654284
% es.normE (V/m) @ t=0.68
3.109501248747584
% es.EX (V/m) @ t=0.68
1.239258617962641
% es.EY (V/m) @ t=0.68
0.32763302408359163
% es.EZ (V/m) @ t=0.68
-2.8304858395289454
% es.tEX (V/m) @ t=0.68
1.2392586179626415
% es.tEY (V/m) @ t=0.68
0
% es.tEZ (V/m) @ t=0.68
-2.8304858395289507
% es.Ex (V/m) @ t=0.68
1.239258617962641
% es.Ey (V/m) @ t=0.68
0.32763302408359163
% es.Ez (V/m) @ t=0.68
-2.8304858395289454
% es.tEx (V/m) @ t=0.68
1.2392586179626415
% es.tEy (V/m) @ t=0.68
0
% es.tEz (V/m) @ t=0.68
-2.8304858395289507
% V (V) @ t=0.68
0.015548408103377912
% es.normE (V/m) @ t=0.7
3.1526763139348173
% es.EX (V/m) @ t=0.7
1.2564654094032446
% es.EY (V/m) @ t=0.7
0.33218236775117216
% es.EZ (V/m) @ t=0.7
-2.869786864427015
% es.tEX (V/m) @ t=0.7
1.256465409403238
% es.tEY (V/m) @ t=0.7
0
% es.tEZ (V/m) @ t=0.7
-2.869786864427031
% es.Ex (V/m) @ t=0.7
1.2564654094032446
% es.Ey (V/m) @ t=0.7
0.33218236775117216
% es.Ez (V/m) @ t=0.7
-2.869786864427015
% es.tEx (V/m) @ t=0.7
1.256465409403238
% es.tEy (V/m) @ t=0.7
0
% es.tEz (V/m) @ t=0.7
-2.869786864427031
% V (V) @ t=0.7
0.015764249886390375
% es.normE (V/m) @ t=0.72
3.1962436236715606
% es.EX (V/m) @ t=0.72
1.273828533775189
% es.EY (V/m) @ t=0.72
0.33677303102345313
% es.EZ (V/m) @ t=0.72
-2.909444935141078
% es.tEX (V/m) @ t=0.72
1.2738285337751893
% es.tEY (V/m) @ t=0.72
0
% es.tEZ (V/m) @ t=0.72
-2.9094449351410887
% es.Ex (V/m) @ t=0.72
1.273828533775189
% es.Ey (V/m) @ t=0.72
0.33677303102345313
% es.Ez (V/m) @ t=0.72
-2.909444935141078
% es.tEx (V/m) @ t=0.72
1.2738285337751893
% es.tEy (V/m) @ t=0.72
0
% es.tEz (V/m) @ t=0.72
-2.9094449351410887
% V (V) @ t=0.72
0.015982055171691673
% es.normE (V/m) @ t=0.74
3.240203177957794
% es.EX (V/m) @ t=0.74
1.2913479910784411
% es.EY (V/m) @ t=0.74
0.34140501390038924
% es.EZ (V/m) @ t=0.74
-2.949460051671137
% es.tEX (V/m) @ t=0.74
1.2913479910784416
% es.tEY (V/m) @ t=0.74
0
% es.tEZ (V/m) @ t=0.74
-2.9494600516711422
% es.Ex (V/m) @ t=0.74
1.2913479910784411
% es.Ey (V/m) @ t=0.74
0.34140501390038924
% es.Ez (V/m) @ t=0.74
-2.949460051671137
% es.tEx (V/m) @ t=0.74
1.2913479910784416
% es.tEy (V/m) @ t=0.74
0
% es.tEz (V/m) @ t=0.74
-2.9494600516711422
% V (V) @ t=0.74
0.016201823959281804
% es.normE (V/m) @ t=0.76
3.2845549767935216
% es.EX (V/m) @ t=0.76
1.3090237813130199
% es.EY (V/m) @ t=0.76
0.3460783163820347
% es.EZ (V/m) @ t=0.76
-2.989832214017186
% es.tEX (V/m) @ t=0.76
1.3090237813130203
% es.tEY (V/m) @ t=0.76
0
% es.tEZ (V/m) @ t=0.76
-2.9898322140171913
% es.Ex (V/m) @ t=0.76
1.3090237813130199
% es.Ey (V/m) @ t=0.76
0.3460783163820347
% es.Ez (V/m) @ t=0.76
-2.989832214017186
% es.tEx (V/m) @ t=0.76
1.3090237813130203
% es.tEy (V/m) @ t=0.76
0
% es.tEz (V/m) @ t=0.76
-2.9898322140171913
% V (V) @ t=0.76
0.016423556249160767
% es.normE (V/m) @ t=0.78
3.329299020178741
% es.EX (V/m) @ t=0.78
1.3268559044789399
% es.EY (V/m) @ t=0.78
0.35079293846830684
% es.EZ (V/m) @ t=0.78
-3.0305614221792307
% es.tEX (V/m) @ t=0.78
1.3268559044789408
% es.tEY (V/m) @ t=0.78
0
% es.tEZ (V/m) @ t=0.78
-3.030561422179229
% es.Ex (V/m) @ t=0.78
1.3268559044789399
% es.Ey (V/m) @ t=0.78
0.35079293846830684
% es.Ez (V/m) @ t=0.78
-3.0305614221792307
% es.tEx (V/m) @ t=0.78
1.3268559044789408
% es.tEy (V/m) @ t=0.78
0
% es.tEz (V/m) @ t=0.78
-3.030561422179229
% V (V) @ t=0.78
0.016647252041328574
% es.normE (V/m) @ t=0.8
3.3744353081134273
% es.EX (V/m) @ t=0.8
1.3448443605761606
% es.EY (V/m) @ t=0.8
0.3555488801592892
% es.EZ (V/m) @ t=0.8
-3.0716476761572533
% es.tEX (V/m) @ t=0.8
1.344844360576161
% es.tEY (V/m) @ t=0.8
0
% es.tEZ (V/m) @ t=0.8
-3.0716476761572586
% es.Ex (V/m) @ t=0.8
1.3448443605761606
% es.Ey (V/m) @ t=0.8
0.3555488801592892
% es.Ez (V/m) @ t=0.8
-3.0716476761572533
% es.tEx (V/m) @ t=0.8
1.344844360576161
% es.tEy (V/m) @ t=0.8
0
% es.tEz (V/m) @ t=0.8
-3.0716476761572586
% V (V) @ t=0.8
0.01687291133578521
% es.normE (V/m) @ t=0.82
3.420017963213884
% es.EX (V/m) @ t=0.82
1.3630107112561323
% es.EY (V/m) @ t=0.82
0.36035185371067513
% es.EZ (V/m) @ t=0.82
-3.1131402448951686
% es.tEX (V/m) @ t=0.82
1.3630107112561332
% es.tEY (V/m) @ t=0.82
0
% es.tEZ (V/m) @ t=0.82
-3.1131402448951775
% es.Ex (V/m) @ t=0.82
1.3630107112561323
% es.Ey (V/m) @ t=0.82
0.36035185371067513
% es.Ez (V/m) @ t=0.82
-3.1131402448951686
% es.tEx (V/m) @ t=0.82
1.3630107112561332
% es.tEy (V/m) @ t=0.82
0
% es.tEz (V/m) @ t=0.82
-3.1131402448951775
% V (V) @ t=0.82
0.017100802515971566
% es.normE (V/m) @ t=0.84
3.466755140760359
% es.EX (V/m) @ t=0.84
1.3816370751292033
% es.EY (V/m) @ t=0.84
0.365276599856319
% es.EZ (V/m) @ t=0.84
-3.1556837768813697
% es.tEX (V/m) @ t=0.84
1.3816370751292038
% es.tEY (V/m) @ t=0.84
0
% es.tEZ (V/m) @ t=0.84
-3.155683776881368
% es.Ex (V/m) @ t=0.84
1.3816370751292033
% es.Ey (V/m) @ t=0.84
0.365276599856319
% es.Ez (V/m) @ t=0.84
-3.1556837768813697
% es.tEx (V/m) @ t=0.84
1.3816370751292038
% es.tEy (V/m) @ t=0.84
0
% es.tEz (V/m) @ t=0.84
-3.155683776881368
% V (V) @ t=0.84
0.017334437185056478
% es.normE (V/m) @ t=0.86
3.5139950181429604
% es.EX (V/m) @ t=0.86
1.400463775689381
% es.EY (V/m) @ t=0.86
0.3702543233734721
% es.EZ (V/m) @ t=0.86
-3.198684904429536
% es.tEX (V/m) @ t=0.86
1.4004637756893814
% es.tEY (V/m) @ t=0.86
0
% es.tEZ (V/m) @ t=0.86
-3.1986849044295447
% es.Ex (V/m) @ t=0.86
1.400463775689381
% es.Ey (V/m) @ t=0.86
0.3702543233734721
% es.Ez (V/m) @ t=0.86
-3.198684904429536
% es.tEx (V/m) @ t=0.86
1.4004637756893814
% es.tEy (V/m) @ t=0.86
0
% es.tEz (V/m) @ t=0.86
-3.1986849044295447
% V (V) @ t=0.86
0.017570583082536437
% es.normE (V/m) @ t=0.88
3.5617375953616257
% es.EX (V/m) @ t=0.88
1.4194908129365804
% es.EY (V/m) @ t=0.88
0.3752850242622232
% es.EZ (V/m) @ t=0.88
-3.2421436275396207
% es.tEX (V/m) @ t=0.88
1.4194908129365809
% es.tEY (V/m) @ t=0.88
0
% es.tEZ (V/m) @ t=0.88
-3.242143627539633
% es.Ex (V/m) @ t=0.88
1.4194908129365804
% es.Ey (V/m) @ t=0.88
0.3752850242622232
% es.Ez (V/m) @ t=0.88
-3.2421436275396207
% es.tEx (V/m) @ t=0.88
1.4194908129365809
% es.tEy (V/m) @ t=0.88
0
% es.tEz (V/m) @ t=0.88
-3.242143627539633
% V (V) @ t=0.88
0.01780924020841145
% es.normE (V/m) @ t=0.9
3.6099828724163574
% es.EX (V/m) @ t=0.9
1.438718186870799
% es.EY (V/m) @ t=0.9
0.3803687025225493
% es.EZ (V/m) @ t=0.9
-3.286059946211628
% es.tEX (V/m) @ t=0.9
1.4387181868707994
% es.tEY (V/m) @ t=0.9
0
% es.tEZ (V/m) @ t=0.9
-3.286059946211637
% es.Ex (V/m) @ t=0.9
1.438718186870799
% es.Ey (V/m) @ t=0.9
0.3803687025225493
% es.Ez (V/m) @ t=0.9
-3.286059946211628
% es.tEx (V/m) @ t=0.9
1.4387181868707994
% es.tEy (V/m) @ t=0.9
0
% es.tEz (V/m) @ t=0.9
-3.286059946211637
% V (V) @ t=0.9
0.018050408562681503
% es.normE (V/m) @ t=0.92
3.6587308493071204
% es.EX (V/m) @ t=0.92
1.4581458974919816
% es.EY (V/m) @ t=0.92
0.38550535815440057
% es.EZ (V/m) @ t=0.92
-3.330433860445547
% es.tEX (V/m) @ t=0.92
1.458145897491982
% es.tEY (V/m) @ t=0.92
0
% es.tEZ (V/m) @ t=0.92
-3.3304338604455666
% es.Ex (V/m) @ t=0.92
1.4581458974919816
% es.Ey (V/m) @ t=0.92
0.38550535815440057
% es.Ez (V/m) @ t=0.92
-3.330433860445547
% es.tEx (V/m) @ t=0.92
1.458145897491982
% es.tEy (V/m) @ t=0.92
0
% es.tEz (V/m) @ t=0.92
-3.3304338604455666
% V (V) @ t=0.92
0.01829408814534661
% es.normE (V/m) @ t=0.94
3.707981526033996
% es.EX (V/m) @ t=0.94
1.4777739448002545
% es.EY (V/m) @ t=0.94
0.3906949911578419
% es.EZ (V/m) @ t=0.94
-3.375265370241399
% es.tEX (V/m) @ t=0.94
1.477773944800255
% es.tEY (V/m) @ t=0.94
0
% es.tEZ (V/m) @ t=0.94
-3.375265370241415
% es.Ex (V/m) @ t=0.94
1.4777739448002545
% es.Ey (V/m) @ t=0.94
0.3906949911578419
% es.Ez (V/m) @ t=0.94
-3.375265370241399
% es.tEx (V/m) @ t=0.94
1.477773944800255
% es.tEy (V/m) @ t=0.94
0
% es.tEz (V/m) @ t=0.94
-3.375265370241415
% V (V) @ t=0.94
0.018540278956406767
% es.normE (V/m) @ t=0.96
3.7577349025969333
% es.EX (V/m) @ t=0.96
1.4976023287955331
% es.EY (V/m) @ t=0.96
0.39593760153282
% es.EZ (V/m) @ t=0.96
-3.42055447559917
% es.tEX (V/m) @ t=0.96
1.4976023287955336
% es.tEY (V/m) @ t=0.96
0
% es.tEZ (V/m) @ t=0.96
-3.420554475599186
% es.Ex (V/m) @ t=0.96
1.4976023287955331
% es.Ey (V/m) @ t=0.96
0.39593760153282
% es.Ez (V/m) @ t=0.96
-3.42055447559917
% es.tEx (V/m) @ t=0.96
1.4976023287955336
% es.tEy (V/m) @ t=0.96
0
% es.tEz (V/m) @ t=0.96
-3.420554475599186
% V (V) @ t=0.96
0.01878898099586197
% es.normE (V/m) @ t=0.98
3.8079909789960005
% es.EX (V/m) @ t=0.98
1.5176310494778904
% es.EY (V/m) @ t=0.98
0.40123318927932594
% es.EZ (V/m) @ t=0.98
-3.4663011765188987
% es.tEX (V/m) @ t=0.98
1.5176310494778908
% es.tEY (V/m) @ t=0.98
0
% es.tEZ (V/m) @ t=0.98
-3.466301176518911
% es.Ex (V/m) @ t=0.98
1.5176310494778904
% es.Ey (V/m) @ t=0.98
0.40123318927932594
% es.Ez (V/m) @ t=0.98
-3.4663011765188987
% es.tEx (V/m) @ t=0.98
1.5176310494778908
% es.tEy (V/m) @ t=0.98
0
% es.tEz (V/m) @ t=0.98
-3.466301176518911
% V (V) @ t=0.98
0.019040194263712226
% es.normE (V/m) @ t=1
3.858749755231135
% es.EX (V/m) @ t=1
1.537860106847258
% es.EY (V/m) @ t=1
0.4065817543974113
% es.EZ (V/m) @ t=1
-3.512505473000539
% es.tEX (V/m) @ t=1
1.5378601068472513
% es.tEY (V/m) @ t=1
0
% es.tEZ (V/m) @ t=1
-3.512505473000548
% es.Ex (V/m) @ t=1
1.537860106847258
% es.Ey (V/m) @ t=1
0.4065817543974113
% es.Ez (V/m) @ t=1
-3.512505473000539
% es.tEx (V/m) @ t=1
1.5378601068472513
% es.tEy (V/m) @ t=1
0
% es.tEz (V/m) @ t=1
-3.512505473000548
% V (V) @ t=1
0.01929391875995753
% es.normE (V/m) @ t=1.02
3.9100112313023443
% es.EX (V/m) @ t=1.02
1.558289500903621
% es.EY (V/m) @ t=1.02
0.41198329688707425
% es.EZ (V/m) @ t=1.02
-3.5591673650441003
% es.tEX (V/m) @ t=1.02
1.558289500903622
% es.tEY (V/m) @ t=1.02
0
% es.tEZ (V/m) @ t=1.02
-3.559167365044104
% es.Ex (V/m) @ t=1.02
1.558289500903621
% es.Ey (V/m) @ t=1.02
0.41198329688707425
% es.Ez (V/m) @ t=1.02
-3.5591673650441003
% es.tEx (V/m) @ t=1.02
1.558289500903622
% es.tEy (V/m) @ t=1.02
0
% es.tEz (V/m) @ t=1.02
-3.559167365044104
% V (V) @ t=1.02
0.01955015448459788
% es.normE (V/m) @ t=1.04
3.9617754072096245
% es.EX (V/m) @ t=1.04
1.5789192316470078
% es.EY (V/m) @ t=1.04
0.41743781674832015
% es.EZ (V/m) @ t=1.04
-3.6062868526495624
% es.tEX (V/m) @ t=1.04
1.5789192316470082
% es.tEY (V/m) @ t=1.04
0
% es.tEZ (V/m) @ t=1.04
-3.606286852649575
% es.Ex (V/m) @ t=1.04
1.5789192316470078
% es.Ey (V/m) @ t=1.04
0.41743781674832015