% Model:              1 neuron.mph
% Version:            COMSOL 6.0.0.405
% Date:               Mar 16 2023, 19:26
% Dimension:          0
% Nodes:              14017
% Expressions:        14017
% Description:        Electric field norm, Electric field, X component, Electric field, Y component, Electric field, Z component, Tangential electric field, X component, Tangential electric field, Y component, Tangential electric field, Z component, Electric field, x component, Electric field, y component, Electric field, z component, Tangential electric field, x component, Tangential electric field, y component, Tangential electric field, z component, Electric potential
% Length unit:        mm
% x
2
% y
12.2
% z
1
% es.normE (V/m) @ t=0
1.1640783067721827
% es.EX (V/m) @ t=0
-0.7517460553536184
% es.EY (V/m) @ t=0
0.16702074374178633
% es.EZ (V/m) @ t=0
0.8573369910861279
% es.tEX (V/m) @ t=0
-0.7517460553536157
% es.tEY (V/m) @ t=0
0
% es.tEZ (V/m) @ t=0
0.8573369910861217
% es.Ex (V/m) @ t=0
-0.7517460553536184
% es.Ey (V/m) @ t=0
0.16702074374178633
% es.Ez (V/m) @ t=0
0.8573369910861279
% es.tEx (V/m) @ t=0
-0.7517460553536157
% es.tEy (V/m) @ t=0
0
% es.tEz (V/m) @ t=0
0.8573369910861217
% V (V) @ t=0
0.011265973271149796
% es.normE (V/m) @ t=0.02
1.0110120814599248
% es.EX (V/m) @ t=0.02
-0.6528979534367951
% es.EY (V/m) @ t=0.02
0.1450589610640859
% es.EZ (V/m) @ t=0.02
0.7446045947269058
% es.tEX (V/m) @ t=0.02
-0.6528979534367962
% es.tEY (V/m) @ t=0.02
0
% es.tEZ (V/m) @ t=0.02
0.7446045947269093
% es.Ex (V/m) @ t=0.02
-0.6528979534367951
% es.Ey (V/m) @ t=0.02
0.1450589610640859
% es.Ez (V/m) @ t=0.02
0.7446045947269058
% es.tEx (V/m) @ t=0.02
-0.6528979534367962
% es.tEy (V/m) @ t=0.02
0
% es.tEz (V/m) @ t=0.02
0.7446045947269093
% V (V) @ t=0.02
0.009784595230512791
% es.normE (V/m) @ t=0.04
1.026004165965654
% es.EX (V/m) @ t=0.04
-0.6625796391890404
% es.EY (V/m) @ t=0.04
0.14721000975143173
% es.EZ (V/m) @ t=0.04
0.7556461788720821
% es.tEX (V/m) @ t=0.04
-0.6625796391890417
% es.tEY (V/m) @ t=0.04
0
% es.tEZ (V/m) @ t=0.04
0.7556461788720821
% es.Ex (V/m) @ t=0.04
-0.6625796391890404
% es.Ey (V/m) @ t=0.04
0.14721000975143173
% es.Ez (V/m) @ t=0.04
0.7556461788720821
% es.tEx (V/m) @ t=0.04
-0.6625796391890417
% es.tEy (V/m) @ t=0.04
0
% es.tEz (V/m) @ t=0.04
0.7556461788720821
% V (V) @ t=0.04
0.009929688871179032
% es.normE (V/m) @ t=0.06
1.0412217465929763
% es.EX (V/m) @ t=0.06
-0.6724069473332552
% es.EY (V/m) @ t=0.06
0.14939341239546422
% es.EZ (V/m) @ t=0.06
0.7668538396594116
% es.tEX (V/m) @ t=0.06
-0.6724069473332563
% es.tEY (V/m) @ t=0.06
0
% es.tEZ (V/m) @ t=0.06
0.7668538396594125
% es.Ex (V/m) @ t=0.06
-0.6724069473332552
% es.Ey (V/m) @ t=0.06
0.14939341239546422
% es.Ez (V/m) @ t=0.06
0.7668538396594116
% es.tEx (V/m) @ t=0.06
-0.6724069473332563
% es.tEy (V/m) @ t=0.06
0
% es.tEz (V/m) @ t=0.06
0.7668538396594125
% V (V) @ t=0.06
0.010076964932885204
% es.normE (V/m) @ t=0.08
1.0568261822739444
% es.EX (V/m) @ t=0.08
-0.6824840811808621
% es.EY (V/m) @ t=0.08
0.15163232065304255
% es.EZ (V/m) @ t=0.08
0.778346416910157
% es.tEX (V/m) @ t=0.08
-0.6824840811808599
% es.tEY (V/m) @ t=0.08
0
% es.tEZ (V/m) @ t=0.08
0.7783464169101579
% es.Ex (V/m) @ t=0.08
-0.6824840811808621
% es.Ey (V/m) @ t=0.08
0.15163232065304255
% es.Ez (V/m) @ t=0.08
0.778346416910157
% es.tEx (V/m) @ t=0.08
-0.6824840811808599
% es.tEy (V/m) @ t=0.08
0
% es.tEz (V/m) @ t=0.08
0.7783464169101579
% V (V) @ t=0.08
0.010227984902718366
% es.normE (V/m) @ t=0.1
1.072703247118877
% es.EX (V/m) @ t=0.1
-0.6927372752143575
% es.EY (V/m) @ t=0.1
0.1539103454967199
% es.EZ (V/m) @ t=0.1
0.7900397839308306
% es.tEX (V/m) @ t=0.1
-0.6927372752143515
% es.tEY (V/m) @ t=0.1
0
% es.tEZ (V/m) @ t=0.1
0.7900397839308271
% es.Ex (V/m) @ t=0.1
-0.6927372752143575
% es.Ey (V/m) @ t=0.1
0.1539103454967199
% es.Ez (V/m) @ t=0.1
0.7900397839308306
% es.tEx (V/m) @ t=0.1
-0.6927372752143515
% es.tEy (V/m) @ t=0.1
0
% es.tEz (V/m) @ t=0.1
0.7900397839308271
% V (V) @ t=0.1
0.010381643324687733
% es.normE (V/m) @ t=0.12
1.088580311963815
% es.EX (V/m) @ t=0.12
-0.702990469247849
% es.EY (V/m) @ t=0.12
0.15618837034039923
% es.EZ (V/m) @ t=0.12
0.8017331509515166
% es.tEX (V/m) @ t=0.12
-0.7029904692478501
% es.tEY (V/m) @ t=0.12
0
% es.tEZ (V/m) @ t=0.12
0.8017331509515317
% es.Ex (V/m) @ t=0.12
-0.702990469247849
% es.Ey (V/m) @ t=0.12
0.15618837034039923
% es.Ez (V/m) @ t=0.12
0.8017331509515166
% es.tEx (V/m) @ t=0.12
-0.7029904692478501
% es.tEy (V/m) @ t=0.12
0
% es.tEz (V/m) @ t=0.12
0.8017331509515317
% V (V) @ t=0.12
0.010535301746657098
% es.normE (V/m) @ t=0.14
1.1047192137176456
% es.EX (V/m) @ t=0.14
-0.713412753930492
% es.EY (V/m) @ t=0.14
0.15850396322655302
% es.EZ (V/m) @ t=0.14
0.8136193592407608
% es.tEX (V/m) @ t=0.14
-0.7134127539304895
% es.tEY (V/m) @ t=0.14
0
% es.tEZ (V/m) @ t=0.14
0.8136193592407652
% es.Ex (V/m) @ t=0.14
-0.713412753930492
% es.Ey (V/m) @ t=0.14
0.15850396322655302
% es.Ez (V/m) @ t=0.14
0.8136193592407608
% es.tEx (V/m) @ t=0.14
-0.7134127539304895
% es.tEy (V/m) @ t=0.14
0
% es.tEz (V/m) @ t=0.14
0.8136193592407652
% V (V) @ t=0.14
0.010691494064141676
% es.normE (V/m) @ t=0.16
1.1220257076564422
% es.EX (V/m) @ t=0.16
-0.7245890534742929
% es.EY (V/m) @ t=0.16
0.16098708082480384
% es.EZ (V/m) @ t=0.16
0.8263654919732613
% es.tEX (V/m) @ t=0.16
-0.7245890534742905
% es.tEY (V/m) @ t=0.16
0
% es.tEZ (V/m) @ t=0.16
0.8263654919732621
% es.Ex (V/m) @ t=0.16
-0.7245890534742929
% es.Ey (V/m) @ t=0.16
0.16098708082480384
% es.Ez (V/m) @ t=0.16
0.8263654919732613
% es.tEx (V/m) @ t=0.16
-0.7245890534742905
% es.tEy (V/m) @ t=0.16
0
% es.tEz (V/m) @ t=0.16
0.8263654919732621
% V (V) @ t=0.16
0.010858985615999465
% es.normE (V/m) @ t=0.18
1.139332201595236
% es.EX (V/m) @ t=0.18
-0.7357653530180872
% es.EY (V/m) @ t=0.18
0.16347019842306354
% es.EZ (V/m) @ t=0.18
0.8391116247057644
% es.tEX (V/m) @ t=0.18
-0.7357653530180883
% es.tEY (V/m) @ t=0.18
0
% es.tEZ (V/m) @ t=0.18
0.8391116247057653
% es.Ex (V/m) @ t=0.18
-0.7357653530180872
% es.Ey (V/m) @ t=0.18
0.16347019842306354
% es.Ez (V/m) @ t=0.18
0.8391116247057644
% es.tEx (V/m) @ t=0.18
-0.7357653530180883
% es.tEy (V/m) @ t=0.18
0
% es.tEz (V/m) @ t=0.18
0.8391116247057653
% V (V) @ t=0.18
0.011026477167857252
% es.normE (V/m) @ t=0.2
1.1566386955340238
% es.EX (V/m) @ t=0.2
-0.746941652561885
% es.EY (V/m) @ t=0.2
0.16595331602132157
% es.EZ (V/m) @ t=0.2
0.8518577574382569
% es.tEX (V/m) @ t=0.2
-0.7469416525618788
% es.tEY (V/m) @ t=0.2
0
% es.tEZ (V/m) @ t=0.2
0.8518577574382684
% es.Ex (V/m) @ t=0.2
-0.746941652561885
% es.Ey (V/m) @ t=0.2
0.16595331602132157
% es.Ez (V/m) @ t=0.2
0.8518577574382569
% es.tEx (V/m) @ t=0.2
-0.7469416525618788
% es.tEy (V/m) @ t=0.2
0
% es.tEz (V/m) @ t=0.2
0.8518577574382684
% V (V) @ t=0.2
0.011193968719715041
% es.normE (V/m) @ t=0.22
1.1739451894728166
% es.EX (V/m) @ t=0.22
-0.7581179521056827
% es.EY (V/m) @ t=0.22
0.1684364336195937
% es.EZ (V/m) @ t=0.22
0.8646038901707502
% es.tEX (V/m) @ t=0.22
-0.7581179521056836
% es.tEY (V/m) @ t=0.22
0
% es.tEZ (V/m) @ t=0.22
0.8646038901707511
% es.Ex (V/m) @ t=0.22
-0.7581179521056827
% es.Ey (V/m) @ t=0.22
0.1684364336195937
% es.Ez (V/m) @ t=0.22
0.8646038901707502
% es.tEx (V/m) @ t=0.22
-0.7581179521056836
% es.tEy (V/m) @ t=0.22
0
% es.tEz (V/m) @ t=0.22
0.8646038901707511
% V (V) @ t=0.22
0.011361460271572825
% es.normE (V/m) @ t=0.24
1.1912516834115938
% es.EX (V/m) @ t=0.24
-0.769294251649481
% es.EY (V/m) @ t=0.24
0.17091955121785185
% es.EZ (V/m) @ t=0.24
0.8773500229032312
% es.tEX (V/m) @ t=0.24
-0.7692942516494783
% es.tEY (V/m) @ t=0.24
0
% es.tEZ (V/m) @ t=0.24
0.8773500229032534
% es.Ex (V/m) @ t=0.24
-0.769294251649481
% es.Ey (V/m) @ t=0.24
0.17091955121785185
% es.Ez (V/m) @ t=0.24
0.8773500229032312
% es.tEx (V/m) @ t=0.24
-0.7692942516494783
% es.tEy (V/m) @ t=0.24
0
% es.tEz (V/m) @ t=0.24
0.8773500229032534
% V (V) @ t=0.24
0.011528951823430614
% es.normE (V/m) @ t=0.26
1.2085581773503995
% es.EX (V/m) @ t=0.26
-0.780470551193275
% es.EY (V/m) @ t=0.26
0.17340266881611688
% es.EZ (V/m) @ t=0.26
0.8900961556357485
% es.tEX (V/m) @ t=0.26
-0.7804705511932759
% es.tEY (V/m) @ t=0.26
0
% es.tEZ (V/m) @ t=0.26
0.8900961556357636
% es.Ex (V/m) @ t=0.26
-0.780470551193275
% es.Ey (V/m) @ t=0.26
0.17340266881611688
% es.Ez (V/m) @ t=0.26
0.8900961556357485
% es.tEx (V/m) @ t=0.26
-0.7804705511932759
% es.tEy (V/m) @ t=0.26
0
% es.tEz (V/m) @ t=0.26
0.8900961556357636
% V (V) @ t=0.26
0.011696443375288404
% es.normE (V/m) @ t=0.28
1.2264454044875128
% es.EX (V/m) @ t=0.28
-0.7920218805045032
% es.EY (V/m) @ t=0.28
0.1759691094450292
% es.EZ (V/m) @ t=0.28
0.9032699951658412
% es.tEX (V/m) @ t=0.28
-0.7920218805045001
% es.tEY (V/m) @ t=0.28
0
% es.tEZ (V/m) @ t=0.28
0.9032699951658456
% es.Ex (V/m) @ t=0.28
-0.7920218805045032
% es.Ey (V/m) @ t=0.28
0.1759691094450292
% es.Ez (V/m) @ t=0.28
0.9032699951658412
% es.tEx (V/m) @ t=0.28
-0.7920218805045001
% es.tEy (V/m) @ t=0.28
0
% es.tEz (V/m) @ t=0.28
0.9032699951658456
% V (V) @ t=0.28
0.011869555466948064
% es.normE (V/m) @ t=0.3
1.2452950771730071
% es.EX (V/m) @ t=0.3
-0.8041947443366162
% es.EY (V/m) @ t=0.3
0.178673640818786
% es.EZ (V/m) @ t=0.3
0.9171526705340565
% es.tEX (V/m) @ t=0.3
-0.8041947443366135
% es.tEY (V/m) @ t=0.3
0
% es.tEZ (V/m) @ t=0.3
0.9171526705340636
% es.Ex (V/m) @ t=0.3
-0.8041947443366162
% es.Ey (V/m) @ t=0.3
0.178673640818786
% es.Ez (V/m) @ t=0.3
0.9171526705340565
% es.tEx (V/m) @ t=0.3
-0.8041947443366135
% es.tEy (V/m) @ t=0.3
0
% es.tEz (V/m) @ t=0.3
0.9171526705340636
% V (V) @ t=0.3
0.012051982444561453
% es.normE (V/m) @ t=0.32
1.2641447498585086
% es.EX (V/m) @ t=0.32
-0.8163676081687226
% es.EY (V/m) @ t=0.32
0.18137817219253383
% es.EZ (V/m) @ t=0.32
0.9310353459022895
% es.tEX (V/m) @ t=0.32
-0.8163676081687194
% es.tEY (V/m) @ t=0.32
0
% es.tEZ (V/m) @ t=0.32
0.9310353459022895
% es.Ex (V/m) @ t=0.32
-0.8163676081687226
% es.Ey (V/m) @ t=0.32
0.18137817219253383
% es.Ez (V/m) @ t=0.32
0.9310353459022895
% es.tEx (V/m) @ t=0.32
-0.8163676081687194
% es.tEy (V/m) @ t=0.32
0
% es.tEz (V/m) @ t=0.32
0.9310353459022895
% V (V) @ t=0.32
0.012234409422174845
% es.normE (V/m) @ t=0.34
1.2829944225440064
% es.EX (V/m) @ t=0.34
-0.8285404720008325
% es.EY (V/m) @ t=0.34
0.18408270356630319
% es.EZ (V/m) @ t=0.34
0.9449180212705075
% es.tEX (V/m) @ t=0.34
-0.8285404720008294
% es.tEY (V/m) @ t=0.34
0
% es.tEZ (V/m) @ t=0.34
0.9449180212705075
% es.Ex (V/m) @ t=0.34
-0.8285404720008325
% es.Ey (V/m) @ t=0.34
0.18408270356630319
% es.Ez (V/m) @ t=0.34
0.9449180212705075
% es.tEx (V/m) @ t=0.34
-0.8285404720008294
% es.tEy (V/m) @ t=0.34
0
% es.tEz (V/m) @ t=0.34
0.9449180212705075
% V (V) @ t=0.34
0.012416836399788234
% es.normE (V/m) @ t=0.36
1.3018440952294839
% es.EX (V/m) @ t=0.36
-0.840713335832934
% es.EY (V/m) @ t=0.36
0.1867872349400651
% es.EZ (V/m) @ t=0.36
0.9588006966387104
% es.tEX (V/m) @ t=0.36
-0.8407133358329313
% es.tEY (V/m) @ t=0.36
0
% es.tEZ (V/m) @ t=0.36
0.9588006966387281
% es.Ex (V/m) @ t=0.36
-0.840713335832934
% es.Ey (V/m) @ t=0.36
0.1867872349400651
% es.Ez (V/m) @ t=0.36
0.9588006966387104
% es.tEx (V/m) @ t=0.36
-0.8407133358329313
% es.tEy (V/m) @ t=0.36
0
% es.tEz (V/m) @ t=0.36
0.9588006966387281
% V (V) @ t=0.36
0.012599263377401625
% es.normE (V/m) @ t=0.38
1.320693767914992
% es.EX (V/m) @ t=0.38
-0.8528861996650408
% es.EY (V/m) @ t=0.38
0.18949176631383446
% es.EZ (V/m) @ t=0.38
0.9726833720069452
% es.tEX (V/m) @ t=0.38
-0.8528861996650412
% es.tEY (V/m) @ t=0.38
0
% es.tEZ (V/m) @ t=0.38
0.972683372006939
% es.Ex (V/m) @ t=0.38
-0.8528861996650408
% es.Ey (V/m) @ t=0.38
0.18949176631383446
% es.Ez (V/m) @ t=0.38
0.9726833720069452
% es.tEx (V/m) @ t=0.38
-0.8528861996650412
% es.tEy (V/m) @ t=0.38
0
% es.tEz (V/m) @ t=0.38
0.972683372006939
% V (V) @ t=0.38
0.012781690355015016
% es.normE (V/m) @ t=0.4
1.339543440600475
% es.EX (V/m) @ t=0.4
-0.8650590634971542
% es.EY (V/m) @ t=0.4
0.19219629768758595
% es.EZ (V/m) @ t=0.4
0.9865660473751463
% es.tEX (V/m) @ t=0.4
-0.8650590634971547
% es.tEY (V/m) @ t=0.4
0
% es.tEZ (V/m) @ t=0.4
0.9865660473751507
% es.Ex (V/m) @ t=0.4
-0.8650590634971542
% es.Ey (V/m) @ t=0.4
0.19219629768758595
% es.Ez (V/m) @ t=0.4
0.9865660473751463
% es.tEx (V/m) @ t=0.4
-0.8650590634971547
% es.tEy (V/m) @ t=0.4
0
% es.tEz (V/m) @ t=0.4
0.9865660473751507
% V (V) @ t=0.4
0.012964117332628406
% es.normE (V/m) @ t=0.42
1.3593381695820321
% es.EX (V/m) @ t=0.42
-0.8778422317913517
% es.EY (V/m) @ t=0.42
0.1950364247271532
% es.EZ (V/m) @ t=0.42
1.0011447511338671
% es.tEX (V/m) @ t=0.42
-0.8778422317913486
% es.tEY (V/m) @ t=0.42
0
% es.tEZ (V/m) @ t=0.42
1.001144751133868
% es.Ex (V/m) @ t=0.42
-0.8778422317913517
% es.Ey (V/m) @ t=0.42
0.1950364247271532
% es.Ez (V/m) @ t=0.42
1.0011447511338671
% es.tEx (V/m) @ t=0.42
-0.8778422317913486
% es.tEy (V/m) @ t=0.42
0
% es.tEz (V/m) @ t=0.42
1.001144751133868
% V (V) @ t=0.42
0.013155690364974824
% es.normE (V/m) @ t=0.44
1.3798473801767854
% es.EX (V/m) @ t=0.44
-0.8910868025633087
% es.EY (V/m) @ t=0.44
0.19797906482380145
% es.EZ (V/m) @ t=0.44
1.0162496663884966
% es.tEX (V/m) @ t=0.44
-0.8910868025633056
% es.tEY (V/m) @ t=0.44
0
% es.tEZ (V/m) @ t=0.44
1.0162496663884975
% es.Ex (V/m) @ t=0.44
-0.8910868025633087
% es.Ey (V/m) @ t=0.44
0.19797906482380145
% es.Ez (V/m) @ t=0.44
1.0162496663884966
% es.tEx (V/m) @ t=0.44
-0.8910868025633056
% es.tEy (V/m) @ t=0.44
0
% es.tEz (V/m) @ t=0.44
1.0162496663884975
% V (V) @ t=0.44
0.013354177999094169
% es.normE (V/m) @ t=0.46
1.4003565907715374
% es.EX (V/m) @ t=0.46
-0.9043313733352809
% es.EY (V/m) @ t=0.46
0.20092170492043737
% es.EZ (V/m) @ t=0.46
1.031354581643118
% es.tEX (V/m) @ t=0.46
-0.9043313733352778
% es.tEY (V/m) @ t=0.46
0
% es.tEZ (V/m) @ t=0.46
1.0313545816431189
% es.Ex (V/m) @ t=0.46
-0.9043313733352809
% es.Ey (V/m) @ t=0.46
0.20092170492043737
% es.Ez (V/m) @ t=0.46
1.031354581643118
% es.tEx (V/m) @ t=0.46
-0.9043313733352778
% es.tEy (V/m) @ t=0.46
0
% es.tEz (V/m) @ t=0.46
1.0313545816431189
% V (V) @ t=0.46
0.01355266563321351
% es.normE (V/m) @ t=0.48
1.4208658013662947
% es.EX (V/m) @ t=0.48
-0.9175759441072344
% es.EY (V/m) @ t=0.48
0.20386434501708928
% es.EZ (V/m) @ t=0.48
1.0464594968977545
% es.tEX (V/m) @ t=0.48
-0.9175759441072318
% es.tEY (V/m) @ t=0.48
0
% es.tEZ (V/m) @ t=0.48
1.0464594968977696
% es.Ex (V/m) @ t=0.48
-0.9175759441072344
% es.Ey (V/m) @ t=0.48
0.20386434501708928
% es.Ez (V/m) @ t=0.48
1.0464594968977545
% es.tEx (V/m) @ t=0.48
-0.9175759441072318
% es.tEy (V/m) @ t=0.48
0
% es.tEz (V/m) @ t=0.48
1.0464594968977696
% V (V) @ t=0.48
0.01375115326733285
% es.normE (V/m) @ t=0.5
1.4413750119610456
% es.EX (V/m) @ t=0.5
-0.9308205148791995
% es.EY (V/m) @ t=0.5
0.2068069851137393
% es.EZ (V/m) @ t=0.5
1.0615644121523768
% es.tEX (V/m) @ t=0.5
-0.9308205148791959
% es.tEY (V/m) @ t=0.5
0
% es.tEZ (V/m) @ t=0.5
1.0615644121524062
% es.Ex (V/m) @ t=0.5
-0.9308205148791995
% es.Ey (V/m) @ t=0.5
0.2068069851137393
% es.Ez (V/m) @ t=0.5
1.0615644121523768
% es.tEx (V/m) @ t=0.5
-0.9308205148791959
% es.tEy (V/m) @ t=0.5
0
% es.tEz (V/m) @ t=0.5
1.0615644121524062
% V (V) @ t=0.5
0.013949640901452195
% es.normE (V/m) @ t=0.52
1.4618842225558057
% es.EX (V/m) @ t=0.52
-0.944065085651161
% es.EY (V/m) @ t=0.52
0.2097496252104054
% es.EZ (V/m) @ t=0.52
1.076669327407009
% es.tEX (V/m) @ t=0.52
-0.9440650856511574
% es.tEY (V/m) @ t=0.52
0
% es.tEZ (V/m) @ t=0.52
1.0766693274070205
% es.Ex (V/m) @ t=0.52
-0.944065085651161
% es.Ey (V/m) @ t=0.52
0.2097496252104054
% es.Ez (V/m) @ t=0.52
1.076669327407009
% es.tEx (V/m) @ t=0.52
-0.9440650856511574
% es.tEy (V/m) @ t=0.52
0
% es.tEz (V/m) @ t=0.52
1.0766693274070205
% V (V) @ t=0.52
0.014148128535571534
% es.normE (V/m) @ t=0.54
1.4823934331505733
% es.EX (V/m) @ t=0.54
-0.9573096564231252
% es.EY (V/m) @ t=0.54
0.21269226530705032
% es.EZ (V/m) @ t=0.54
1.0917742426616552
% es.tEX (V/m) @ t=0.54
-0.957309656423122
% es.tEY (V/m) @ t=0.54
0
% es.tEZ (V/m) @ t=0.54
1.0917742426616561
% es.Ex (V/m) @ t=0.54
-0.9573096564231252
% es.Ey (V/m) @ t=0.54
0.21269226530705032
% es.Ez (V/m) @ t=0.54
1.0917742426616552
% es.tEx (V/m) @ t=0.54
-0.957309656423122
% es.tEy (V/m) @ t=0.54
0
% es.tEz (V/m) @ t=0.54
1.0917742426616561
% V (V) @ t=0.54
0.014346616169690879
% es.normE (V/m) @ t=0.56
1.5034973782533663
% es.EX (V/m) @ t=0.56
-0.9709382989875208
% es.EY (V/m) @ t=0.56
0.21572023733465717
% es.EZ (V/m) @ t=0.56
1.1073171767535817
% es.tEX (V/m) @ t=0.56
-0.9709382989875213
% es.tEY (V/m) @ t=0.56
0
% es.tEZ (V/m) @ t=0.56
1.107317176753586
% es.Ex (V/m) @ t=0.56
-0.9709382989875208
% es.Ey (V/m) @ t=0.56
0.21572023733465717
% es.Ez (V/m) @ t=0.56
1.1073171767535817
% es.tEx (V/m) @ t=0.56
-0.9709382989875213
% es.tEy (V/m) @ t=0.56
0
% es.tEz (V/m) @ t=0.56
1.107317176753586
% V (V) @ t=0.56
0.014550860085348755
% es.normE (V/m) @ t=0.58
1.524968046787353
% es.EX (V/m) @ t=0.58
-0.9848037667632354
% es.EY (V/m) @ t=0.58
0.21880082648485577
% es.EZ (V/m) @ t=0.58
1.1231302007238817
% es.tEX (V/m) @ t=0.58
-0.9848037667632354
% es.tEY (V/m) @ t=0.58
0
% es.tEZ (V/m) @ t=0.58
1.1231302007238897
% es.Ex (V/m) @ t=0.58
-0.9848037667632354
% es.Ey (V/m) @ t=0.58
0.21880082648485577
% es.Ez (V/m) @ t=0.58
1.1231302007238817
% es.tEx (V/m) @ t=0.58
-0.9848037667632354
% es.tEy (V/m) @ t=0.58
0
% es.tEz (V/m) @ t=0.58
1.1231302007238897
% V (V) @ t=0.58
0.014758653422282926
% es.normE (V/m) @ t=0.6
1.5466447695618735
% es.EX (V/m) @ t=0.6
-0.9988023016814038
% es.EY (V/m) @ t=0.6
0.22191098009783206
% es.EZ (V/m) @ t=0.6
1.1390949825586336
% es.tEX (V/m) @ t=0.6
-0.9988023016814003
% es.tEY (V/m) @ t=0.6
0
% es.tEZ (V/m) @ t=0.6
1.1390949825586416
% es.Ex (V/m) @ t=0.6
-0.9988023016814038
% es.Ey (V/m) @ t=0.6
0.22191098009783206
% es.Ez (V/m) @ t=0.6
1.1390949825586336
% es.tEx (V/m) @ t=0.6
-0.9988023016814003
% es.tEy (V/m) @ t=0.6
0
% es.tEz (V/m) @ t=0.6
1.1390949825586416
% V (V) @ t=0.6
0.014968441104937252
% es.normE (V/m) @ t=0.62
1.568527546576899
% es.EX (V/m) @ t=0.62
-1.012933903742013
% es.EY (V/m) @ t=0.62
0.22505069817358936
% es.EZ (V/m) @ t=0.62
1.1552115222578152
% es.tEX (V/m) @ t=0.62
-1.012933903742013
% es.tEY (V/m) @ t=0.62
0
% es.tEZ (V/m) @ t=0.62
1.1552115222578445
% es.Ex (V/m) @ t=0.62
-1.012933903742013
% es.Ey (V/m) @ t=0.62
0.22505069817358936
% es.Ez (V/m) @ t=0.62
1.1552115222578152
% es.tEx (V/m) @ t=0.62
-1.012933903742013
% es.tEy (V/m) @ t=0.62
0
% es.tEz (V/m) @ t=0.62
1.1552115222578445
% V (V) @ t=0.62
0.015180223133311719
% es.normE (V/m) @ t=0.64
1.5906163778325049
% es.EX (V/m) @ t=0.64
-1.0271985729450854
% es.EY (V/m) @ t=0.64
0.2282199807121439
% es.EZ (V/m) @ t=0.64
1.1714798198214957
% es.tEX (V/m) @ t=0.64
-1.0271985729450819
% es.tEY (V/m) @ t=0.64
0
% es.tEZ (V/m) @ t=0.64
1.1714798198215108
% es.Ex (V/m) @ t=0.64
-1.0271985729450854
% es.Ey (V/m) @ t=0.64
0.2282199807121439
% es.Ez (V/m) @ t=0.64
1.1714798198214957
% es.tEx (V/m) @ t=0.64
-1.0271985729450819
% es.tEy (V/m) @ t=0.64
0
% es.tEz (V/m) @ t=0.64
1.1714798198215108
% V (V) @ t=0.64
0.015393999507406336
% es.normE (V/m) @ t=0.66
1.612911263328627
% es.EX (V/m) @ t=0.66
-1.041596309290608
% es.EY (V/m) @ t=0.66
0.23141882771346545
% es.EZ (V/m) @ t=0.66
1.1878998752496175
% es.tEX (V/m) @ t=0.66
-1.0415963092906044
% es.tEY (V/m) @ t=0.66
0
% es.tEZ (V/m) @ t=0.66
1.1878998752496326
% es.Ex (V/m) @ t=0.66
-1.041596309290608
% es.Ey (V/m) @ t=0.66
0.23141882771346545
% es.Ez (V/m) @ t=0.66
1.1878998752496175
% es.tEx (V/m) @ t=0.66
-1.0415963092906044
% es.tEy (V/m) @ t=0.66
0
% es.tEz (V/m) @ t=0.66
1.1878998752496326
% V (V) @ t=0.66
0.015609770227221102
% es.normE (V/m) @ t=0.68
1.6354122030653047
% es.EX (V/m) @ t=0.68
-1.056127112778571
% es.EY (V/m) @ t=0.68
0.2346472391775839
% es.EZ (V/m) @ t=0.68
1.204471688542223
% es.tEX (V/m) @ t=0.68
-1.0561271127785674
% es.tEY (V/m) @ t=0.68
0
% es.tEZ (V/m) @ t=0.68
1.2044716885422346
% es.Ex (V/m) @ t=0.68
-1.056127112778571
% es.Ey (V/m) @ t=0.68
0.2346472391775839
% es.Ez (V/m) @ t=0.68
1.204471688542223
% es.tEx (V/m) @ t=0.68
-1.0561271127785674
% es.tEy (V/m) @ t=0.68
0
% es.tEz (V/m) @ t=0.68
1.2044716885422346
% V (V) @ t=0.68
0.01582753529275601
% es.normE (V/m) @ t=0.7
1.6581191970424949
% es.EX (V/m) @ t=0.7
-1.0707909834089904
% es.EY (V/m) @ t=0.7
0.23790521510445517
% es.EZ (V/m) @ t=0.7
1.2211952596992575
% es.tEX (V/m) @ t=0.7
-1.07079098340899
% es.tEY (V/m) @ t=0.7
0
% es.tEZ (V/m) @ t=0.7
1.2211952596992655
% es.Ex (V/m) @ t=0.7
-1.0707909834089904
% es.Ey (V/m) @ t=0.7
0.23790521510445517
% es.Ez (V/m) @ t=0.7
1.2211952596992575
% es.tEx (V/m) @ t=0.7
-1.07079098340899
% es.tEy (V/m) @ t=0.7
0
% es.tEz (V/m) @ t=0.7
1.2211952596992655
% V (V) @ t=0.7
0.01604729470401107
% es.normE (V/m) @ t=0.72
1.6810322452602362
% es.EX (V/m) @ t=0.72
-1.0855879211818737
% es.EY (V/m) @ t=0.72
0.24119275549413965
% es.EZ (V/m) @ t=0.72
1.238070588720758
% es.tEX (V/m) @ t=0.72
-1.0855879211818666
% es.tEY (V/m) @ t=0.72
0
% es.tEZ (V/m) @ t=0.72
1.238070588720758
% es.Ex (V/m) @ t=0.72
-1.0855879211818737
% es.Ey (V/m) @ t=0.72
0.24119275549413965
% es.Ez (V/m) @ t=0.72
1.238070588720758
% es.tEx (V/m) @ t=0.72
-1.0855879211818666
% es.tEy (V/m) @ t=0.72
0
% es.tEz (V/m) @ t=0.72
1.238070588720758
% V (V) @ t=0.72
0.01626904846098627
% es.normE (V/m) @ t=0.74
1.7041513477184993
% es.EX (V/m) @ t=0.74
-1.100517926097191
% es.EY (V/m) @ t=0.74
0.2445098603465803
% es.EZ (V/m) @ t=0.74
1.2550976756067094
% es.tEX (V/m) @ t=0.74
-1.1005179260971873
% es.tEY (V/m) @ t=0.74
0
% es.tEZ (V/m) @ t=0.74
1.2550976756067307
% es.Ex (V/m) @ t=0.74
-1.100517926097191
% es.Ey (V/m) @ t=0.74
0.2445098603465803
% es.Ez (V/m) @ t=0.74
1.2550976756067094
% es.tEx (V/m) @ t=0.74
-1.1005179260971873
% es.tEy (V/m) @ t=0.74
0
% es.tEz (V/m) @ t=0.74
1.2550976756067307
% V (V) @ t=0.74
0.016492796563681626
% es.normE (V/m) @ t=0.76
1.7274765044173153
% es.EX (V/m) @ t=0.76
-1.115580998154969
% es.EY (V/m) @ t=0.76
0.2478565296618288
% es.EZ (V/m) @ t=0.76
1.2722765203571296
% es.tEX (V/m) @ t=0.76
-1.1155809981549685
% es.tEY (V/m) @ t=0.76
0
% es.tEZ (V/m) @ t=0.76
1.2722765203571669
% es.Ex (V/m) @ t=0.76
-1.115580998154969
% es.Ey (V/m) @ t=0.76
0.2478565296618288
% es.Ez (V/m) @ t=0.76
1.2722765203571296
% es.tEx (V/m) @ t=0.76
-1.1155809981549685
% es.tEy (V/m) @ t=0.76
0
% es.tEz (V/m) @ t=0.76
1.2722765203571669
% V (V) @ t=0.76
0.016718539012097126
% es.normE (V/m) @ t=0.78
1.7510077153566828
% es.EX (V/m) @ t=0.78
-1.1307771373552096
% es.EY (V/m) @ t=0.78
0.25123276343984247
% es.EZ (V/m) @ t=0.78
1.2896071229720292
% es.tEX (V/m) @ t=0.78
-1.1307771373552127
% es.tEY (V/m) @ t=0.78
0
% es.tEZ (V/m) @ t=0.78
1.2896071229720292
% es.Ex (V/m) @ t=0.78
-1.1307771373552096
% es.Ey (V/m) @ t=0.78
0.25123276343984247
% es.Ez (V/m) @ t=0.78
1.2896071229720292
% es.tEx (V/m) @ t=0.78
-1.1307771373552127
% es.tEy (V/m) @ t=0.78
0
% es.tEz (V/m) @ t=0.78
1.2896071229720292
% V (V) @ t=0.78
0.016946275806232772
% es.normE (V/m) @ t=0.8
1.7747449805365876
% es.EX (V/m) @ t=0.8
-1.1461063436978915
% es.EY (V/m) @ t=0.8
0.25463856168065313
% es.EZ (V/m) @ t=0.8
1.3070894834513869
% es.tEX (V/m) @ t=0.8
-1.1461063436978876
% es.tEY (V/m) @ t=0.8
0
% es.tEZ (V/m) @ t=0.8
1.3070894834513798
% es.Ex (V/m) @ t=0.8
-1.1461063436978915
% es.Ey (V/m) @ t=0.8
0.25463856168065313
% es.Ez (V/m) @ t=0.8
1.3070894834513869
% es.tEx (V/m) @ t=0.8
-1.1461063436978876
% es.tEy (V/m) @ t=0.8
0
% es.tEz (V/m) @ t=0.8
1.3070894834513798
% V (V) @ t=0.8
0.017176006946088562
% es.normE (V/m) @ t=0.82
1.7987480238580433
% es.EX (V/m) @ t=0.82
-1.1616071843618903
% es.EY (V/m) @ t=0.82
0.25808249302418385
% es.EZ (V/m) @ t=0.82
1.3247675864588544
% es.tEX (V/m) @ t=0.82
-1.1616071843618863
% es.tEY (V/m) @ t=0.82
0
% es.tEZ (V/m) @ t=0.82
1.3247675864588757
% es.Ex (V/m) @ t=0.82
-1.1616071843618903
% es.Ey (V/m) @ t=0.82
0.25808249302418385
% es.Ez (V/m) @ t=0.82
1.3247675864588544
% es.tEx (V/m) @ t=0.82
-1.1616071843618863
% es.tEy (V/m) @ t=0.82
0
% es.tEz (V/m) @ t=0.82
1.3247675864588757
% V (V) @ t=0.82
0.01740830787054561
% es.normE (V/m) @ t=0.84
1.8233319529838108
% es.EX (V/m) @ t=0.84
-1.1774831425989762
% es.EY (V/m) @ t=0.84
0.26160976624050924
% es.EZ (V/m) @ t=0.84
1.3428734982916684
% es.tEX (V/m) @ t=0.84
-1.1774831425989722
% es.tEY (V/m) @ t=0.84
0
% es.tEZ (V/m) @ t=0.84
1.3428734982916755
% es.Ex (V/m) @ t=0.84
-1.1774831425989762
% es.Ey (V/m) @ t=0.84
0.26160976624050924
% es.Ez (V/m) @ t=0.84
1.3428734982916684
% es.tEx (V/m) @ t=0.84
-1.1774831425989722
% es.tEy (V/m) @ t=0.84
0
% es.tEz (V/m) @ t=0.84
1.3428734982916755
% V (V) @ t=0.84
0.017646214637157917
% es.normE (V/m) @ t=0.86
1.848180220854584
% es.EX (V/m) @ t=0.86
-1.193529805655709
% es.EY (V/m) @ t=0.86
0.2651749660480667
% es.EZ (V/m) @ t=0.86
1.3611740925850064
% es.tEX (V/m) @ t=0.86
-1.193529805655705
% es.tEY (V/m) @ t=0.86
0
% es.tEZ (V/m) @ t=0.86
1.3611740925850278
% es.Ex (V/m) @ t=0.86
-1.193529805655709
% es.Ey (V/m) @ t=0.86
0.2651749660480667
% es.Ez (V/m) @ t=0.86
1.3611740925850064
% es.tEx (V/m) @ t=0.86
-1.193529805655705
% es.tEy (V/m) @ t=0.86
0
% es.tEz (V/m) @ t=0.86
1.3611740925850278
% V (V) @ t=0.86
0.017886677319807247
% es.normE (V/m) @ t=0.88
1.8732928274703329
% es.EX (V/m) @ t=0.88
-1.2097471735320768
% es.EY (V/m) @ t=0.88
0.26877809244688655
% es.EZ (V/m) @ t=0.88
1.3796693693388224
% es.tEX (V/m) @ t=0.88
-1.2097471735320724
% es.tEY (V/m) @ t=0.88
0
% es.tEZ (V/m) @ t=0.88
1.379669369338826
% es.Ex (V/m) @ t=0.88
-1.2097471735320768
% es.Ey (V/m) @ t=0.88
0.26877809244688655
% es.Ez (V/m) @ t=0.88
1.3796693693388224
% es.tEx (V/m) @ t=0.88
-1.2097471735320724
% es.tEy (V/m) @ t=0.88
0
% es.tEz (V/m) @ t=0.88
1.379669369338826
% V (V) @ t=0.88
0.018129695918493612
% es.normE (V/m) @ t=0.9
1.8986697728311093
% es.EX (V/m) @ t=0.9
-1.2261352462281048
% es.EY (V/m) @ t=0.9
0.2724191454369689
% es.EZ (V/m) @ t=0.9
1.3983593285531555
% es.tEX (V/m) @ t=0.9
-1.2261352462281079
% es.tEY (V/m) @ t=0.9
0
% es.tEZ (V/m) @ t=0.9
1.3983593285531555
% es.Ex (V/m) @ t=0.9
-1.2261352462281048
% es.Ey (V/m) @ t=0.9
0.2724191454369689
% es.Ez (V/m) @ t=0.9
1.3983593285531555
% es.tEx (V/m) @ t=0.9
-1.2261352462281079
% es.tEy (V/m) @ t=0.9
0
% es.tEz (V/m) @ t=0.9
1.3983593285531555
% V (V) @ t=0.9
0.01837527043321701
% es.normE (V/m) @ t=0.92
1.9243110569369062
% es.EX (V/m) @ t=0.92
-1.242694023743796
% es.EY (V/m) @ t=0.92
0.2760981250183421
% es.EZ (V/m) @ t=0.92
1.4172439702280002
% es.tEX (V/m) @ t=0.92
-1.2426940237437991
% es.tEY (V/m) @ t=0.92
0
% es.tEZ (V/m) @ t=0.92
1.4172439702280162
% es.Ex (V/m) @ t=0.92
-1.242694023743796
% es.Ey (V/m) @ t=0.92
0.2760981250183421
% es.Ez (V/m) @ t=0.92
1.4172439702280002
% es.tEx (V/m) @ t=0.92
-1.2426940237437991
% es.tEy (V/m) @ t=0.92
0
% es.tEz (V/m) @ t=0.92
1.4172439702280162
% V (V) @ t=0.92
0.018623400863977436
% es.normE (V/m) @ t=0.94
1.9502166797876959
% es.EX (V/m) @ t=0.94
-1.2594235060791221
% es.EY (V/m) @ t=0.94
0.27981503119095286
% es.EZ (V/m) @ t=0.94
1.4363232943633406
% es.tEX (V/m) @ t=0.94
-1.2594235060791177
% es.tEY (V/m) @ t=0.94
0
% es.tEZ (V/m) @ t=0.94
1.4363232943633566
% es.Ex (V/m) @ t=0.94
-1.2594235060791221
% es.Ey (V/m) @ t=0.94
0.27981503119095286
% es.Ez (V/m) @ t=0.94
1.4363232943633406
% es.tEx (V/m) @ t=0.94
-1.2594235060791177
% es.tEy (V/m) @ t=0.94
0
% es.tEz (V/m) @ t=0.94
1.4363232943633566
% V (V) @ t=0.94
0.0188740872107749
% es.normE (V/m) @ t=0.96
1.9763866413834739
% es.EX (V/m) @ t=0.96
-1.2763236932341155
% es.EY (V/m) @ t=0.96
0.28356986395480077
% es.EZ (V/m) @ t=0.96
1.4555973009591376
% es.tEX (V/m) @ t=0.96
-1.2763236932341182
% es.tEY (V/m) @ t=0.96
0
% es.tEZ (V/m) @ t=0.96
1.4555973009591536
% es.Ex (V/m) @ t=0.96
-1.2763236932341155
% es.Ey (V/m) @ t=0.96
0.28356986395480077
% es.Ez (V/m) @ t=0.96
1.4555973009591376
% es.tEx (V/m) @ t=0.96
-1.2763236932341182
% es.tEy (V/m) @ t=0.96
0
% es.tEz (V/m) @ t=0.96
1.4555973009591536
% V (V) @ t=0.96
0.019127329473609393
% es.normE (V/m) @ t=0.98
2.0028209417243024
% es.EX (V/m) @ t=0.98
-1.2933945852087643
% es.EY (V/m) @ t=0.98
0.28736262330988804
% es.EZ (V/m) @ t=0.98
1.47506599001548
% es.tEX (V/m) @ t=0.98
-1.2933945852087598
% es.tEY (V/m) @ t=0.98
0
% es.tEZ (V/m) @ t=0.98
1.4750659900154872
% es.Ex (V/m) @ t=0.98
-1.2933945852087643
% es.Ey (V/m) @ t=0.98
0.28736262330988804
% es.Ez (V/m) @ t=0.98
1.47506599001548
% es.tEx (V/m) @ t=0.98
-1.2933945852087598
% es.tEy (V/m) @ t=0.98
0
% es.tEz (V/m) @ t=0.98
1.4750659900154872
% V (V) @ t=0.98
0.019383127652480917
% es.normE (V/m) @ t=1
2.0295195808101347
% es.EX (V/m) @ t=1
-1.3106361820030394
% es.EY (V/m) @ t=1
0.29119330925626974
% es.EZ (V/m) @ t=1
1.4947293615323147
% es.tEX (V/m) @ t=1
-1.310636182003035
% es.tEY (V/m) @ t=1
0
% es.tEZ (V/m) @ t=1
1.4947293615323307
% es.Ex (V/m) @ t=1
-1.3106361820030394
% es.Ey (V/m) @ t=1
0.29119330925626974
% es.Ez (V/m) @ t=1
1.4947293615323147
% es.tEx (V/m) @ t=1
-1.310636182003035
% es.tEy (V/m) @ t=1
0
% es.tEz (V/m) @ t=1
1.4947293615323307
% V (V) @ t=1
0.019641481747389472
% es.normE (V/m) @ t=1.02
2.056482558640985
% es.EX (V/m) @ t=1.02
-1.3280484836169704
% es.EY (V/m) @ t=1.02
0.29506192179389257
% es.EZ (V/m) @ t=1.02
1.5145874155096397
% es.tEX (V/m) @ t=1.02
-1.328048483616966
% es.tEY (V/m) @ t=1.02
0
% es.tEZ (V/m) @ t=1.02
1.5145874155096841
% es.Ex (V/m) @ t=1.02
-1.3280484836169704
% es.Ey (V/m) @ t=1.02
0.29506192179389257
% es.Ez (V/m) @ t=1.02
1.5145874155096397
% es.tEx (V/m) @ t=1.02
-1.328048483616966
% es.tEy (V/m) @ t=1.02
0
% es.tEz (V/m) @ t=1.02
1.5145874155096841
% V (V) @ t=1.02
0.01990239175833506
% es.normE (V/m) @ t=1.04
2.0837098752168783
% es.EX (V/m) @ t=1.04
-1.3456314900505761
% es.EY (V/m) @ t=1.04
0.2989684609227776
% es.EZ (V/m) @ t=1.04
1.5346401519474622
% es.tEX (V/m) @ t=1.04
-1.3456314900505788