% Model:              1 neuron.mph
% Version:            COMSOL 6.0.0.405
% Date:               Mar 16 2023, 19:15
% Dimension:          0
% Nodes:              14017
% Expressions:        14017
% Description:        Electric field norm, Electric field, X component, Electric field, Y component, Electric field, Z component, Tangential electric field, X component, Tangential electric field, Y component, Tangential electric field, Z component, Electric field, x component, Electric field, y component, Electric field, z component, Tangential electric field, x component, Tangential electric field, y component, Tangential electric field, z component, Electric potential
% Length unit:        mm
% x
1.33
% y
12.2
% z
2
% es.normE (V/m) @ t=0
2.202592315065829
% es.EX (V/m) @ t=0
0.8778197461504957
% es.EY (V/m) @ t=0
0.23207833345311535
% es.EZ (V/m) @ t=0
-2.0049536202262157
% es.tEX (V/m) @ t=0
0.8778197461504926
% es.tEY (V/m) @ t=0
0
% es.tEZ (V/m) @ t=0
-2.0049536202262193
% es.Ex (V/m) @ t=0
0.8778197461504957
% es.Ey (V/m) @ t=0
0.23207833345311535
% es.Ez (V/m) @ t=0
-2.0049536202262157
% es.tEx (V/m) @ t=0
0.8778197461504926
% es.tEy (V/m) @ t=0
0
% es.tEz (V/m) @ t=0
-2.0049536202262193
% V (V) @ t=0
0.01101316550428955
% es.normE (V/m) @ t=0.02
1.9129688394514224
% es.EX (V/m) @ t=0.02
0.7623933889854604
% es.EY (V/m) @ t=0.02
0.20156189754754816
% es.EZ (V/m) @ t=0.02
-1.7413180686590053
% es.tEX (V/m) @ t=0.02
0.7623933889854606
% es.tEY (V/m) @ t=0.02
0
% es.tEZ (V/m) @ t=0.02
-1.741318068659007
% es.Ex (V/m) @ t=0.02
0.7623933889854604
% es.Ey (V/m) @ t=0.02
0.20156189754754816
% es.Ez (V/m) @ t=0.02
-1.7413180686590053
% es.tEx (V/m) @ t=0.02
0.7623933889854606
% es.tEy (V/m) @ t=0.02
0
% es.tEz (V/m) @ t=0.02
-1.741318068659007
% V (V) @ t=0.02
0.009565020546656283
% es.normE (V/m) @ t=0.04
1.9413345093455685
% es.EX (V/m) @ t=0.04
0.7736982242693784
% es.EY (V/m) @ t=0.04
0.20455071370991806
% es.EZ (V/m) @ t=0.04
-1.7671384835682007
% es.tEX (V/m) @ t=0.04
0.7736982242693786
% es.tEY (V/m) @ t=0.04
0
% es.tEZ (V/m) @ t=0.04
-1.767138483568207
% es.Ex (V/m) @ t=0.04
0.7736982242693784
% es.Ey (V/m) @ t=0.04
0.20455071370991806
% es.Ez (V/m) @ t=0.04
-1.7671384835682007
% es.tEx (V/m) @ t=0.04
0.7736982242693786
% es.tEy (V/m) @ t=0.04
0
% es.tEz (V/m) @ t=0.04
-1.767138483568207
% V (V) @ t=0.04
0.009706850530513551
% es.normE (V/m) @ t=0.06
1.970121588631494
% es.EX (V/m) @ t=0.06
0.7851710074480072
% es.EY (V/m) @ t=0.06
0.20758394799467972
% es.EZ (V/m) @ t=0.06
-1.7933424938473141
% es.tEX (V/m) @ t=0.06
0.7851710074480076
% es.tEY (V/m) @ t=0.06
0
% es.tEZ (V/m) @ t=0.06
-1.7933424938473266
% es.Ex (V/m) @ t=0.06
0.7851710074480072
% es.Ey (V/m) @ t=0.06
0.20758394799467972
% es.Ez (V/m) @ t=0.06
-1.7933424938473141
% es.tEx (V/m) @ t=0.06
0.7851710074480076
% es.tEy (V/m) @ t=0.06
0
% es.tEz (V/m) @ t=0.06
-1.7933424938473266
% V (V) @ t=0.06
0.009850787196841166
% es.normE (V/m) @ t=0.08
1.9996529411692778
% es.EX (V/m) @ t=0.08
0.79694041350225
% es.EY (V/m) @ t=0.08
0.21069557108388093
% es.EZ (V/m) @ t=0.08
-1.8202239956201973
% es.tEX (V/m) @ t=0.08
0.7969404135022504
% es.tEY (V/m) @ t=0.08
0
% es.tEZ (V/m) @ t=0.08
-1.8202239956202035
% es.Ex (V/m) @ t=0.08
0.79694041350225
% es.Ey (V/m) @ t=0.08
0.21069557108388093
% es.Ez (V/m) @ t=0.08
-1.8202239956201973
% es.tEx (V/m) @ t=0.08
0.7969404135022504
% es.tEy (V/m) @ t=0.08
0
% es.tEz (V/m) @ t=0.08
-1.8202239956202035
% V (V) @ t=0.08
0.009998446117153639
% es.normE (V/m) @ t=0.1
2.029683143954802
% es.EX (V/m) @ t=0.1
0.8089086314775573
% es.EY (V/m) @ t=0.1
0.21385973438517247
% es.EZ (V/m) @ t=0.1
-1.8475595870686972
% es.tEX (V/m) @ t=0.1
0.8089086314775575
% es.tEY (V/m) @ t=0.1
0
% es.tEZ (V/m) @ t=0.1
-1.847559587068698
% es.Ex (V/m) @ t=0.1
0.8089086314775573
% es.Ey (V/m) @ t=0.1
0.21385973438517247
% es.Ez (V/m) @ t=0.1
-1.8475595870686972
% es.tEx (V/m) @ t=0.1
0.8089086314775575
% es.tEy (V/m) @ t=0.1
0
% es.tEz (V/m) @ t=0.1
-1.847559587068698
% V (V) @ t=0.1
0.010148599883704153
% es.normE (V/m) @ t=0.12
2.0597133467403053
% es.EX (V/m) @ t=0.12
0.820876849452836
% es.EY (V/m) @ t=0.12
0.21702389768647112
% es.EZ (V/m) @ t=0.12
-1.8748951785171846
% es.tEX (V/m) @ t=0.12
0.8208768494528362
% es.tEY (V/m) @ t=0.12
0
% es.tEZ (V/m) @ t=0.12
-1.8748951785171943
% es.Ex (V/m) @ t=0.12
0.820876849452836
% es.Ey (V/m) @ t=0.12
0.21702389768647112
% es.Ez (V/m) @ t=0.12
-1.8748951785171846
% es.tEx (V/m) @ t=0.12
0.8208768494528362
% es.tEy (V/m) @ t=0.12
0
% es.tEz (V/m) @ t=0.12
-1.8748951785171943
% V (V) @ t=0.12
0.010298753650254663
% es.normE (V/m) @ t=0.14
2.0903017927821717
% es.EX (V/m) @ t=0.14
0.8330675455430507
% es.EY (V/m) @ t=0.14
0.22024705977808345
% es.EZ (V/m) @ t=0.14
-1.902738911455499
% es.tEX (V/m) @ t=0.14
0.833067545543051
% es.tEY (V/m) @ t=0.14
0
% es.tEZ (V/m) @ t=0.14
-1.9027389114555096
% es.Ex (V/m) @ t=0.14
0.8330675455430507
% es.Ey (V/m) @ t=0.14
0.22024705977808345
% es.Ez (V/m) @ t=0.14
-1.902738911455499
% es.tEx (V/m) @ t=0.14
0.833067545543051
% es.tEy (V/m) @ t=0.14
0
% es.tEz (V/m) @ t=0.14
-1.9027389114555096
% V (V) @ t=0.14
0.010451694138417409
% es.normE (V/m) @ t=0.16
2.123024139903025
% es.EX (V/m) @ t=0.16
0.846108670696198
% es.EY (V/m) @ t=0.16
0.22369574646109847
% es.EZ (V/m) @ t=0.16
-1.9325250300130214
% es.tEX (V/m) @ t=0.16
0.8461086706962018
% es.tEY (V/m) @ t=0.16
0
% es.tEZ (V/m) @ t=0.16
-1.932525030013025
% es.Ex (V/m) @ t=0.16
0.846108670696198
% es.Ey (V/m) @ t=0.16
0.22369574646109847
% es.Ez (V/m) @ t=0.16
-1.9325250300130214
% es.tEx (V/m) @ t=0.16
0.8461086706962018
% es.tEy (V/m) @ t=0.16
0
% es.tEz (V/m) @ t=0.16
-1.932525030013025
% V (V) @ t=0.16
0.010615286950967737
% es.normE (V/m) @ t=0.18
2.1557464870246417
% es.EX (V/m) @ t=0.18
0.8591497958493379
% es.EY (V/m) @ t=0.18
0.2271444331441428
% es.EZ (V/m) @ t=0.18
-1.9623111485705405
% es.tEX (V/m) @ t=0.18
0.8591497958493384
% es.tEY (V/m) @ t=0.18
0
% es.tEZ (V/m) @ t=0.18
-1.9623111485705511
% es.Ex (V/m) @ t=0.18
0.8591497958493379
% es.Ey (V/m) @ t=0.18
0.2271444331441428
% es.Ez (V/m) @ t=0.18
-1.9623111485705405
% es.tEx (V/m) @ t=0.18
0.8591497958493384
% es.tEy (V/m) @ t=0.18
0
% es.tEz (V/m) @ t=0.18
-1.9623111485705511
% V (V) @ t=0.18
0.010778879763518063
% es.normE (V/m) @ t=0.2
2.188468834146991
% es.EX (V/m) @ t=0.2
0.872190921002485
% es.EY (V/m) @ t=0.2
0.2305931198271507
% es.EZ (V/m) @ t=0.2
-1.992097267128063
% es.tEX (V/m) @ t=0.2
0.8721909210024816
% es.tEY (V/m) @ t=0.2
0
% es.tEZ (V/m) @ t=0.2
-1.9920972671280666
% es.Ex (V/m) @ t=0.2
0.872190921002485
% es.Ey (V/m) @ t=0.2
0.2305931198271507
% es.Ez (V/m) @ t=0.2
-1.992097267128063
% es.tEx (V/m) @ t=0.2
0.8721909210024816
% es.tEy (V/m) @ t=0.2
0
% es.tEz (V/m) @ t=0.2
-1.9920972671280666
% V (V) @ t=0.2
0.010942472576068387
% es.normE (V/m) @ t=0.22
2.2211911812700285
% es.EX (V/m) @ t=0.22
0.8852320461556107
% es.EY (V/m) @ t=0.22
0.23404180651019324
% es.EZ (V/m) @ t=0.22
-2.0218833856855785
% es.tEX (V/m) @ t=0.22
0.8852320461556111
% es.tEY (V/m) @ t=0.22
0
% es.tEZ (V/m) @ t=0.22
-2.0218833856855856
% es.Ex (V/m) @ t=0.22
0.8852320461556107
% es.Ey (V/m) @ t=0.22
0.23404180651019324
% es.Ez (V/m) @ t=0.22
-2.0218833856855785
% es.tEx (V/m) @ t=0.22
0.8852320461556111
% es.tEy (V/m) @ t=0.22
0
% es.tEz (V/m) @ t=0.22
-2.0218833856855856
% V (V) @ t=0.22
0.011106065388618717
% es.normE (V/m) @ t=0.24
2.2539135283937597
% es.EX (V/m) @ t=0.24
0.8982731713087679
% es.EY (V/m) @ t=0.24
0.2374904931932127
% es.EZ (V/m) @ t=0.24
-2.05166950424311
% es.tEX (V/m) @ t=0.24
0.8982731713087682
% es.tEY (V/m) @ t=0.24
0
% es.tEZ (V/m) @ t=0.24
-2.0516695042431135
% es.Ex (V/m) @ t=0.24
0.8982731713087679
% es.Ey (V/m) @ t=0.24
0.2374904931932127
% es.Ez (V/m) @ t=0.24
-2.05166950424311
% es.tEx (V/m) @ t=0.24
0.8982731713087682
% es.tEy (V/m) @ t=0.24
0
% es.tEz (V/m) @ t=0.24
-2.0516695042431135
% V (V) @ t=0.24
0.011269658201169043
% es.normE (V/m) @ t=0.26
2.286635875518108
% es.EX (V/m) @ t=0.26
0.9113142964619048
% es.EY (V/m) @ t=0.26
0.2409391798762588
% es.EZ (V/m) @ t=0.26
-2.0814556228006245
% es.tEX (V/m) @ t=0.26
0.9113142964619052
% es.tEY (V/m) @ t=0.26
0
% es.tEZ (V/m) @ t=0.26
-2.0814556228006342
% es.Ex (V/m) @ t=0.26
0.9113142964619048
% es.Ey (V/m) @ t=0.26
0.2409391798762588
% es.Ez (V/m) @ t=0.26
-2.0814556228006245
% es.tEx (V/m) @ t=0.26
0.9113142964619052
% es.tEy (V/m) @ t=0.26
0
% es.tEz (V/m) @ t=0.26
-2.0814556228006342
% V (V) @ t=0.26
0.011433251013719371
% es.normE (V/m) @ t=0.28
2.320594204439035
% es.EX (V/m) @ t=0.28
0.9248480367500642
% es.EY (V/m) @ t=0.28
0.24451679244177438
% es.EZ (V/m) @ t=0.28
-2.112366895566778
% es.tEX (V/m) @ t=0.28
0.9248480367500611
% es.tEY (V/m) @ t=0.28
0
% es.tEZ (V/m) @ t=0.28
-2.1123668955667885
% es.Ex (V/m) @ t=0.28
0.9248480367500642
% es.Ey (V/m) @ t=0.28
0.24451679244177438
% es.Ez (V/m) @ t=0.28
-2.112366895566778
% es.tEx (V/m) @ t=0.28
0.9248480367500611
% es.tEy (V/m) @ t=0.28
0
% es.tEz (V/m) @ t=0.28
-2.1123668955667885
% V (V) @ t=0.28
0.01160305699259568
% es.normE (V/m) @ t=0.3
2.356227101534137
% es.EX (V/m) @ t=0.3
0.9390491959500782
% es.EY (V/m) @ t=0.3
0.248269080055036
% es.EZ (V/m) @ t=0.3
-2.1448025819049787
% es.tEX (V/m) @ t=0.3
0.9390491959500751
% es.tEY (V/m) @ t=0.3
0
% es.tEZ (V/m) @ t=0.3
-2.1448025819049814
% es.Ex (V/m) @ t=0.3
0.9390491959500782
% es.Ey (V/m) @ t=0.3
0.248269080055036
% es.Ez (V/m) @ t=0.3
-2.1448025819049787
% es.tEx (V/m) @ t=0.3
0.9390491959500751
% es.tEy (V/m) @ t=0.3
0
% es.tEz (V/m) @ t=0.3
-2.1448025819049814
% V (V) @ t=0.3
0.011781280870991935
% es.normE (V/m) @ t=0.32
2.3918599986341436
% es.EX (V/m) @ t=0.32
0.9532503551501161
% es.EY (V/m) @ t=0.32
0.2520213676682648
% es.EZ (V/m) @ t=0.32
-2.1772382682431877
% es.tEX (V/m) @ t=0.32
0.9532503551501166
% es.tEY (V/m) @ t=0.32
0
% es.tEZ (V/m) @ t=0.32
-2.1772382682431974
% es.Ex (V/m) @ t=0.32
0.9532503551501161
% es.Ey (V/m) @ t=0.32
0.2520213676682648
% es.Ez (V/m) @ t=0.32
-2.1772382682431877
% es.tEx (V/m) @ t=0.32
0.9532503551501166
% es.tEy (V/m) @ t=0.32
0
% es.tEz (V/m) @ t=0.32
-2.1772382682431974
% V (V) @ t=0.32
0.01195950474938819
% es.normE (V/m) @ t=0.34
2.427492895738829
% es.EX (V/m) @ t=0.34
0.967451514350159
% es.EY (V/m) @ t=0.34
0.25577365528150864
% es.EZ (V/m) @ t=0.34
-2.2096739545813975
% es.tEX (V/m) @ t=0.34
0.9674515143501594
% es.tEY (V/m) @ t=0.34
0
% es.tEZ (V/m) @ t=0.34
-2.209673954581401
% es.Ex (V/m) @ t=0.34
0.967451514350159
% es.Ey (V/m) @ t=0.34
0.25577365528150864
% es.Ez (V/m) @ t=0.34
-2.2096739545813975
% es.tEx (V/m) @ t=0.34
0.9674515143501594
% es.tEy (V/m) @ t=0.34
0
% es.tEz (V/m) @ t=0.34
-2.209673954581401
% V (V) @ t=0.34
0.012137728627784446
% es.normE (V/m) @ t=0.36
2.463125792847974
% es.EX (V/m) @ t=0.36
0.98165267355018
% es.EY (V/m) @ t=0.36
0.2595259428947436
% es.EZ (V/m) @ t=0.36
-2.2421096409196046
% es.tEX (V/m) @ t=0.36
0.9816526735501805
% es.tEY (V/m) @ t=0.36
0
% es.tEZ (V/m) @ t=0.36
-2.242109640919608
% es.Ex (V/m) @ t=0.36
0.98165267355018
% es.Ey (V/m) @ t=0.36
0.2595259428947436
% es.Ez (V/m) @ t=0.36
-2.2421096409196046
% es.tEx (V/m) @ t=0.36
0.9816526735501805
% es.tEy (V/m) @ t=0.36
0
% es.tEz (V/m) @ t=0.36
-2.242109640919608
% V (V) @ t=0.36
0.012315952506180701
% es.normE (V/m) @ t=0.38
2.4987586899614103
% es.EX (V/m) @ t=0.38
0.9958538327502366
% es.EY (V/m) @ t=0.38
0.26327823050797683
% es.EZ (V/m) @ t=0.38
-2.2745453272578082
% es.tEX (V/m) @ t=0.38
0.9958538327502371
% es.tEY (V/m) @ t=0.38
0
% es.tEZ (V/m) @ t=0.38
-2.2745453272578153
% es.Ex (V/m) @ t=0.38
0.9958538327502366
% es.Ey (V/m) @ t=0.38
0.26327823050797683
% es.Ez (V/m) @ t=0.38
-2.2745453272578082
% es.tEx (V/m) @ t=0.38
0.9958538327502371
% es.tEy (V/m) @ t=0.38
0
% es.tEz (V/m) @ t=0.38
-2.2745453272578153
% V (V) @ t=0.38
0.012494176384576958
% es.normE (V/m) @ t=0.4
2.534391587078937
% es.EX (V/m) @ t=0.4
1.0100549919502573
% es.EY (V/m) @ t=0.4
0.2670305181212198
% es.EZ (V/m) @ t=0.4
-2.3069810135960154
% es.tEX (V/m) @ t=0.4
1.0100549919502573
% es.tEY (V/m) @ t=0.4
0
% es.tEZ (V/m) @ t=0.4
-2.3069810135960225
% es.Ex (V/m) @ t=0.4
1.0100549919502573
% es.Ey (V/m) @ t=0.4
0.2670305181212198
% es.Ez (V/m) @ t=0.4
-2.3069810135960154
% es.tEx (V/m) @ t=0.4
1.0100549919502573
% es.tEy (V/m) @ t=0.4
0
% es.tEz (V/m) @ t=0.4
-2.3069810135960225
% V (V) @ t=0.4
0.012672400262973211
% es.normE (V/m) @ t=0.42
2.5720204175558807
% es.EX (V/m) @ t=0.42
1.025051426254238
% es.EY (V/m) @ t=0.42
0.27100171661068195
% es.EZ (V/m) @ t=0.42
-2.341233029435836
% es.tEX (V/m) @ t=0.42
1.0250514262542385
% es.tEY (V/m) @ t=0.42
0
% es.tEZ (V/m) @ t=0.42
-2.3412330294358377
% es.Ex (V/m) @ t=0.42
1.025051426254238
% es.Ey (V/m) @ t=0.42
0.27100171661068195
% es.Ez (V/m) @ t=0.42
-2.341233029435836
% es.tEx (V/m) @ t=0.42
1.0250514262542385
% es.tEy (V/m) @ t=0.42
0
% es.tEz (V/m) @ t=0.42
-2.3412330294358377
% V (V) @ t=0.42
0.012860385326261355
% es.normE (V/m) @ t=0.44
2.6107624804273484
% es.EX (V/m) @ t=0.44
1.0404914254362576
% es.EY (V/m) @ t=0.44
0.27509501269332226
% es.EZ (V/m) @ t=0.44
-2.3764981034863997
% es.tEX (V/m) @ t=0.44
1.040491425436258
% es.tEY (V/m) @ t=0.44
0
% es.tEZ (V/m) @ t=0.44
-2.3764981034864014
% es.Ex (V/m) @ t=0.44
1.0404914254362576
% es.Ey (V/m) @ t=0.44
0.27509501269332226
% es.Ez (V/m) @ t=0.44
-2.3764981034863997
% es.tEx (V/m) @ t=0.44
1.040491425436258
% es.tEy (V/m) @ t=0.44
0
% es.tEz (V/m) @ t=0.44
-2.3764981034864014
% V (V) @ t=0.44
0.013053814692740374
% es.normE (V/m) @ t=0.46
2.649504543405339
% es.EX (V/m) @ t=0.46
1.0559314246182914
% es.EY (V/m) @ t=0.46
0.27918830877595635
% es.EZ (V/m) @ t=0.46
-2.4117631775369794
% es.tEX (V/m) @ t=0.46
1.0559314246182918
% es.tEY (V/m) @ t=0.46
0
% es.tEZ (V/m) @ t=0.46
-2.411763177536983
% es.Ex (V/m) @ t=0.46
1.0559314246182914
% es.Ey (V/m) @ t=0.46
0.27918830877595635
% es.Ez (V/m) @ t=0.46
-2.4117631775369794
% es.tEx (V/m) @ t=0.46
1.0559314246182918
% es.tEy (V/m) @ t=0.46
0
% es.tEz (V/m) @ t=0.46
-2.411763177536983
% V (V) @ t=0.46
0.013247244059219399
% es.normE (V/m) @ t=0.48
2.688246606485214
% es.EX (V/m) @ t=0.48
1.071371423800318
% es.EY (V/m) @ t=0.48
0.2832816048585922
% es.EZ (V/m) @ t=0.48
-2.447028251587545
% es.tEX (V/m) @ t=0.48
1.0713714238003114
% es.tEY (V/m) @ t=0.48
0
% es.tEZ (V/m) @ t=0.48
-2.447028251587561
% es.Ex (V/m) @ t=0.48
1.071371423800318
% es.Ey (V/m) @ t=0.48
0.2832816048585922
% es.Ez (V/m) @ t=0.48
-2.447028251587545
% es.tEx (V/m) @ t=0.48
1.0713714238003114
% es.tEy (V/m) @ t=0.48
0
% es.tEz (V/m) @ t=0.48
-2.447028251587561
% V (V) @ t=0.48
0.013440673425698418
% es.normE (V/m) @ t=0.5
2.7269886696626466
% es.EX (V/m) @ t=0.5
1.086811422982351
% es.EY (V/m) @ t=0.5
0.2873749009412343
% es.EZ (V/m) @ t=0.5
-2.482293325638109
% es.tEX (V/m) @ t=0.5
1.0868114229823584
% es.tEY (V/m) @ t=0.5
0
% es.tEZ (V/m) @ t=0.5
-2.4822933256381106
% es.Ex (V/m) @ t=0.5
1.086811422982351
% es.Ey (V/m) @ t=0.5
0.2873749009412343
% es.Ez (V/m) @ t=0.5
-2.482293325638109
% es.tEx (V/m) @ t=0.5
1.0868114229823584
% es.tEy (V/m) @ t=0.5
0
% es.tEz (V/m) @ t=0.5
-2.4822933256381106
% V (V) @ t=0.5
0.01363410279217744
% es.normE (V/m) @ t=0.52
2.7657307329335348
% es.EX (V/m) @ t=0.52
1.1022514221643642
% es.EY (V/m) @ t=0.52
0.29146819702387283
% es.EZ (V/m) @ t=0.52
-2.5175583996886797
% es.tEX (V/m) @ t=0.52
1.1022514221643647
% es.tEY (V/m) @ t=0.52
0
% es.tEZ (V/m) @ t=0.52
-2.517558399688685
% es.Ex (V/m) @ t=0.52
1.1022514221643642
% es.Ey (V/m) @ t=0.52
0.29146819702387283
% es.Ez (V/m) @ t=0.52
-2.5175583996886797
% es.tEx (V/m) @ t=0.52
1.1022514221643647
% es.tEy (V/m) @ t=0.52
0
% es.tEz (V/m) @ t=0.52
-2.517558399688685
% V (V) @ t=0.52
0.013827532158656458
% es.normE (V/m) @ t=0.54
2.8044727962940135
% es.EX (V/m) @ t=0.54
1.117691421346398
% es.EY (V/m) @ t=0.54
0.29556149310651847
% es.EZ (V/m) @ t=0.54
-2.5528234737392506
% es.tEX (V/m) @ t=0.54
1.1176914213463984
% es.tEY (V/m) @ t=0.54
0
% es.tEZ (V/m) @ t=0.54
-2.552823473739256
% es.Ex (V/m) @ t=0.54
1.117691421346398
% es.Ey (V/m) @ t=0.54
0.29556149310651847
% es.Ez (V/m) @ t=0.54
-2.5528234737392506
% es.tEx (V/m) @ t=0.54
1.1176914213463984
% es.tEy (V/m) @ t=0.54
0
% es.tEz (V/m) @ t=0.54
-2.552823473739256
% V (V) @ t=0.54
0.014020961525135484
% es.normE (V/m) @ t=0.56
2.844499689698444
% es.EX (V/m) @ t=0.56
1.133643589323404
% es.EY (V/m) @ t=0.56
0.29978483206754625
% es.EZ (V/m) @ t=0.56
-2.5892584054890104
% es.tEX (V/m) @ t=0.56
1.1336435893234045
% es.tEY (V/m) @ t=0.56
0
% es.tEZ (V/m) @ t=0.56
-2.5892584054890158
% es.Ex (V/m) @ t=0.56
1.133643589323404
% es.Ey (V/m) @ t=0.56
0.29978483206754625
% es.Ez (V/m) @ t=0.56
-2.5892584054890104
% es.tEx (V/m) @ t=0.56
1.1336435893234045
% es.tEy (V/m) @ t=0.56
0
% es.tEz (V/m) @ t=0.56
-2.5892584054890158
% V (V) @ t=0.56
0.014220950685752186
% es.normE (V/m) @ t=0.58
2.8851008486323035
% es.EX (V/m) @ t=0.58
1.1498246754335555
% es.EY (V/m) @ t=0.58
0.30406629478235647
% es.EZ (V/m) @ t=0.58
-2.6262162149369335
% es.tEX (V/m) @ t=0.58
1.149824675433556
% es.tEY (V/m) @ t=0.58
0
% es.tEZ (V/m) @ t=0.58
-2.626216214936939
% es.Ex (V/m) @ t=0.58
1.1498246754335555
% es.Ey (V/m) @ t=0.58
0.30406629478235647
% es.Ez (V/m) @ t=0.58
-2.6262162149369335
% es.tEx (V/m) @ t=0.58
1.149824675433556
% es.tEy (V/m) @ t=0.58
0
% es.tEz (V/m) @ t=0.58
-2.626216214936939
% V (V) @ t=0.58
0.01442387180130776
% es.normE (V/m) @ t=0.6
2.92609334671663
% es.EX (V/m) @ t=0.6
1.166161760163123
% es.EY (V/m) @ t=0.6
0.30838736652783627
% es.EZ (V/m) @ t=0.6
-2.6635303447771843
% es.tEX (V/m) @ t=0.6
1.1661617601631162
% es.tEY (V/m) @ t=0.6
0
% es.tEZ (V/m) @ t=0.6
-2.6635303447771967
% es.Ex (V/m) @ t=0.6
1.166161760163123
% es.Ey (V/m) @ t=0.6
0.30838736652783627
% es.Ez (V/m) @ t=0.6
-2.6635303447771843
% es.tEx (V/m) @ t=0.6
1.1661617601631162
% es.tEy (V/m) @ t=0.6
0
% es.tEz (V/m) @ t=0.6
-2.6635303447771967
% V (V) @ t=0.6
0.01462879092775175
% es.normE (V/m) @ t=0.62
2.9674771839483354
% es.EX (V/m) @ t=0.62
1.182654843512084
% es.EY (V/m) @ t=0.62
0.31274804730392614
% es.EZ (V/m) @ t=0.62
-2.7012007950097843
% es.tEX (V/m) @ t=0.62
1.1826548435120845
% es.tEY (V/m) @ t=0.62
0
% es.tEZ (V/m) @ t=0.62
-2.7012007950097967
% es.Ex (V/m) @ t=0.62
1.182654843512084
% es.Ey (V/m) @ t=0.62
0.31274804730392614
% es.Ez (V/m) @ t=0.62
-2.7012007950097843
% es.tEx (V/m) @ t=0.62
1.1826548435120845
% es.tEy (V/m) @ t=0.62
0
% es.tEz (V/m) @ t=0.62
-2.7012007950097967
% V (V) @ t=0.62
0.014835708065084155
% es.normE (V/m) @ t=0.64
3.009252360330593
% es.EX (V/m) @ t=0.64
1.1993039254804745
% es.EY (V/m) @ t=0.64
0.31714833711066426
% es.EZ (V/m) @ t=0.64
-2.7392275656347547
% es.tEX (V/m) @ t=0.64
1.199303925480475
% es.tEY (V/m) @ t=0.64
0
% es.tEZ (V/m) @ t=0.64
-2.7392275656347564
% es.Ex (V/m) @ t=0.64
1.1993039254804745
% es.Ey (V/m) @ t=0.64
0.31714833711066426
% es.Ez (V/m) @ t=0.64
-2.7392275656347547
% es.tEx (V/m) @ t=0.64
1.199303925480475
% es.tEy (V/m) @ t=0.64
0
% es.tEz (V/m) @ t=0.64
-2.7392275656347564
% V (V) @ t=0.64
0.015044623213304976
% es.normE (V/m) @ t=0.66
3.0514188758722787
% es.EX (V/m) @ t=0.66
1.2161090060682294
% es.EY (V/m) @ t=0.66
0.32158823594804087
% es.EZ (V/m) @ t=0.66
-2.77761065665206
% es.tEX (V/m) @ t=0.66
1.2161090060682298
% es.tEY (V/m) @ t=0.66
0
% es.tEZ (V/m) @ t=0.66
-2.7776106566520617
% es.Ex (V/m) @ t=0.66
1.2161090060682294
% es.Ey (V/m) @ t=0.66
0.32158823594804087
% es.Ez (V/m) @ t=0.66
-2.77761065665206
% es.tEx (V/m) @ t=0.66
1.2161090060682298
% es.tEy (V/m) @ t=0.66
0
% es.tEz (V/m) @ t=0.66
-2.7776106566520617
% V (V) @ t=0.66
0.015255536372414223
% es.normE (V/m) @ t=0.68
3.093976730587788
% es.EX (V/m) @ t=0.68
1.2330700852754233
% es.EY (V/m) @ t=0.68
0.3260677438160462
% es.EZ (V/m) @ t=0.68
-2.8163500680617393
% es.tEX (V/m) @ t=0.68
1.2330700852754237
% es.tEY (V/m) @ t=0.68
0
% es.tEZ (V/m) @ t=0.68
-2.8163500680617375
% es.Ex (V/m) @ t=0.68
1.2330700852754233
% es.Ey (V/m) @ t=0.68
0.3260677438160462
% es.Ez (V/m) @ t=0.68
-2.8163500680617393
% es.tEx (V/m) @ t=0.68
1.2330700852754237
% es.tEy (V/m) @ t=0.68
0
% es.tEz (V/m) @ t=0.68
-2.8163500680617375
% V (V) @ t=0.68
0.015468447542411876
% es.normE (V/m) @ t=0.7
3.1369259244964374
% es.EX (V/m) @ t=0.7
1.2501871631020234
% es.EY (V/m) @ t=0.7
0.33058686071469534
% es.EZ (V/m) @ t=0.7
-2.8554457998637712
% es.tEX (V/m) @ t=0.7
1.2501871631020238
% es.tEY (V/m) @ t=0.7
0
% es.tEZ (V/m) @ t=0.7
-2.855445799863773
% es.Ex (V/m) @ t=0.7
1.2501871631020234
% es.Ey (V/m) @ t=0.7
0.33058686071469534
% es.Ez (V/m) @ t=0.7
-2.8554457998637712
% es.tEx (V/m) @ t=0.7
1.2501871631020238
% es.tEy (V/m) @ t=0.7
0
% es.tEz (V/m) @ t=0.7
-2.855445799863773
% V (V) @ t=0.7
0.015683356723297952
% es.normE (V/m) @ t=0.72
3.180266457622218
% es.EX (V/m) @ t=0.72
1.2674602395480172
% es.EY (V/m) @ t=0.72
0.3351455866439794
% es.EZ (V/m) @ t=0.72
-2.8948978520581488
% es.tEX (V/m) @ t=0.72
1.2674602395480177
% es.tEY (V/m) @ t=0.72
0
% es.tEZ (V/m) @ t=0.72
-2.8948978520581505
% es.Ex (V/m) @ t=0.72
1.2674602395480172
% es.Ey (V/m) @ t=0.72
0.3351455866439794
% es.Ez (V/m) @ t=0.72
-2.8948978520581488
% es.tEx (V/m) @ t=0.72
1.2674602395480177
% es.tEy (V/m) @ t=0.72
0
% es.tEz (V/m) @ t=0.72
-2.8948978520581505
% V (V) @ t=0.72
0.015900263915072443
% es.normE (V/m) @ t=0.74
3.223998329993472
% es.EX (V/m) @ t=0.74
1.284889314613435
% es.EY (V/m) @ t=0.74
0.33974392160386735
% es.EZ (V/m) @ t=0.74
-2.934706224644886
% es.tEX (V/m) @ t=0.74
1.2848893146134355
% es.tEY (V/m) @ t=0.74
0
% es.tEZ (V/m) @ t=0.74
-2.9347062246448914
% es.Ex (V/m) @ t=0.74
1.284889314613435
% es.Ey (V/m) @ t=0.74
0.33974392160386735
% es.Ez (V/m) @ t=0.74
-2.934706224644886
% es.tEx (V/m) @ t=0.74
1.2848893146134355
% es.tEy (V/m) @ t=0.74
0
% es.tEz (V/m) @ t=0.74
-2.9347062246448914
% V (V) @ t=0.74
0.016119169117735352
% es.normE (V/m) @ t=0.76
3.2681215416424982
% es.EX (V/m) @ t=0.76
1.302474388298231
% es.EY (V/m) @ t=0.76
0.3443818655944204
% es.EZ (V/m) @ t=0.76
-2.9748709176239725
% es.tEX (V/m) @ t=0.76
1.302474388298232
% es.tEY (V/m) @ t=0.76
0
% es.tEZ (V/m) @ t=0.76
-2.974870917623978
% es.Ex (V/m) @ t=0.76
1.302474388298231
% es.Ey (V/m) @ t=0.76
0.3443818655944204
% es.Ez (V/m) @ t=0.76
-2.9748709176239725
% es.tEx (V/m) @ t=0.76
1.302474388298232
% es.tEy (V/m) @ t=0.76
0
% es.tEz (V/m) @ t=0.76
-2.974870917623978
% V (V) @ t=0.76
0.016340072331286676
% es.normE (V/m) @ t=0.78
3.3126360926053153
% es.EX (V/m) @ t=0.78
1.3202154606024288
% es.EY (V/m) @ t=0.78
0.34905941861562084
% es.EZ (V/m) @ t=0.78
-3.015391930995408
% es.tEX (V/m) @ t=0.78
1.3202154606024221
% es.tEY (V/m) @ t=0.78
0
% es.tEZ (V/m) @ t=0.78
-3.0153919309954134
% es.Ex (V/m) @ t=0.78
1.3202154606024288
% es.Ey (V/m) @ t=0.78
0.34905941861562084
% es.Ez (V/m) @ t=0.78
-3.015391930995408
% es.tEx (V/m) @ t=0.78
1.3202154606024221
% es.tEy (V/m) @ t=0.78
0
% es.tEz (V/m) @ t=0.78
-3.0153919309954134
% V (V) @ t=0.78
0.01656297355572642
% es.normE (V/m) @ t=0.8
3.3575419829213486
% es.EX (V/m) @ t=0.8
1.3381125315260278
% es.EY (V/m) @ t=0.8
0.35377658066743756
% es.EZ (V/m) @ t=0.8
-3.0562692647591962
% es.tEX (V/m) @ t=0.8
1.3381125315260212
% es.tEY (V/m) @ t=0.8
0
% es.tEZ (V/m) @ t=0.8
-3.0562692647592087
% es.Ex (V/m) @ t=0.8
1.3381125315260278
% es.Ey (V/m) @ t=0.8
0.35377658066743756
% es.Ez (V/m) @ t=0.8
-3.0562692647591962
% es.tEx (V/m) @ t=0.8
1.3381125315260212
% es.tEy (V/m) @ t=0.8
0
% es.tEz (V/m) @ t=0.8
-3.0562692647592087
% V (V) @ t=0.8
0.016787872791054582
% es.normE (V/m) @ t=0.82
3.4030582128768145
% es.EX (V/m) @ t=0.82
1.3562527827693578
% es.EY (V/m) @ t=0.82
0.3585610632777998
% es.EZ (V/m) @ t=0.82
-3.0977019942572728
% es.tEX (V/m) @ t=0.82
1.3562527827693511
% es.tEY (V/m) @ t=0.82
0
% es.tEZ (V/m) @ t=0.82
-3.0977019942572745
% es.Ex (V/m) @ t=0.82
1.3562527827693578
% es.Ey (V/m) @ t=0.82
0.3585610632777998
% es.Ez (V/m) @ t=0.82
-3.0977019942572728
% es.tEx (V/m) @ t=0.82
1.3562527827693511
% es.tEy (V/m) @ t=0.82
0
% es.tEz (V/m) @ t=0.82
-3.0977019942572745
% V (V) @ t=0.82
0.017015747272685785
% es.normE (V/m) @ t=0.84
3.4495616688821222
% es.EX (V/m) @ t=0.84
1.3747862488929825
% es.EY (V/m) @ t=0.84
0.36346055635059393
% es.EZ (V/m) @ t=0.84
-3.140032716403306
% es.tEX (V/m) @ t=0.84
1.374786248892983
% es.tEY (V/m) @ t=0.84
0
% es.tEZ (V/m) @ t=0.84
-3.1400327164033044
% es.Ex (V/m) @ t=0.84
1.3747862488929825
% es.Ey (V/m) @ t=0.84
0.36346055635059393
% es.Ez (V/m) @ t=0.84
-3.140032716403306
% es.tEx (V/m) @ t=0.84
1.374786248892983
% es.tEy (V/m) @ t=0.84
0
% es.tEz (V/m) @ t=0.84
-3.1400327164033044
% V (V) @ t=0.84
0.01724827876509044
% es.normE (V/m) @ t=0.86
3.496564018074434
% es.EX (V/m) @ t=0.86
1.3935185297290755
% es.EY (V/m) @ t=0.86
0.36841326795412677
% es.EZ (V/m) @ t=0.86
-3.1828175274909825
% es.tEX (V/m) @ t=0.86
1.393518529729076
% es.tEY (V/m) @ t=0.86
0
% es.tEZ (V/m) @ t=0.86
-3.182817527490993
% es.Ex (V/m) @ t=0.86
1.3935185297290755
% es.Ey (V/m) @ t=0.86
0.36841326795412677
% es.Ez (V/m) @ t=0.86
-3.1828175274909825
% es.tEx (V/m) @ t=0.86
1.393518529729076
% es.tEy (V/m) @ t=0.86
0
% es.tEz (V/m) @ t=0.86
-3.182817527490993
% V (V) @ t=0.86
0.017483288201698637
% es.normE (V/m) @ t=0.88
3.544065260454186
% es.EX (V/m) @ t=0.88
1.412449625277628
% es.EY (V/m) @ t=0.88
0.3734191980883068
% es.EZ (V/m) @ t=0.88
-3.2260564275203283
% es.tEX (V/m) @ t=0.88
1.4124496252776284
% es.tEY (V/m) @ t=0.88
0
% es.tEZ (V/m) @ t=0.88
-3.2260564275203407
% es.Ex (V/m) @ t=0.88
1.412449625277628
% es.Ey (V/m) @ t=0.88
0.3734191980883068
% es.Ez (V/m) @ t=0.88
-3.2260564275203283
% es.tEx (V/m) @ t=0.88
1.4124496252776284
% es.tEy (V/m) @ t=0.88
0
% es.tEz (V/m) @ t=0.88
-3.2260564275203407
% V (V) @ t=0.88
0.01772077558251037
% es.normE (V/m) @ t=0.9
3.5920653960225977
% es.EX (V/m) @ t=0.9
1.4315795355386691
% es.EY (V/m) @ t=0.9
0.3784783467531936
% es.EZ (V/m) @ t=0.9
-3.2697494164913277
% es.tEX (V/m) @ t=0.9
1.4315795355386696
% es.tEY (V/m) @ t=0.9
0
% es.tEZ (V/m) @ t=0.9
-3.26974941649134
% es.Ex (V/m) @ t=0.9
1.4315795355386691
% es.Ey (V/m) @ t=0.9
0.3784783467531936
% es.Ez (V/m) @ t=0.9
-3.2697494164913277
% es.tEx (V/m) @ t=0.9
1.4315795355386696
% es.tEy (V/m) @ t=0.9
0
% es.tEz (V/m) @ t=0.9
-3.26974941649134
% V (V) @ t=0.9
0.017960740907525637
% es.normE (V/m) @ t=0.92
3.640564424781565
% es.EX (V/m) @ t=0.92
1.4509082605120978
% es.EY (V/m) @ t=0.92
0.3835907139488688
% es.EZ (V/m) @ t=0.92
-3.3138964944039575
% es.tEX (V/m) @ t=0.92
1.4509082605120982
% es.tEY (V/m) @ t=0.92
0
% es.tEZ (V/m) @ t=0.92
-3.313896494403952
% es.Ex (V/m) @ t=0.92
1.4509082605120978
% es.Ey (V/m) @ t=0.92
0.3835907139488688
% es.Ez (V/m) @ t=0.92
-3.3138964944039575
% es.tEx (V/m) @ t=0.92
1.4509082605120982
% es.tEy (V/m) @ t=0.92
0
% es.tEz (V/m) @ t=0.92
-3.313896494403952
% V (V) @ t=0.92
0.01820318417674444
% es.normE (V/m) @ t=0.94
3.6895623467337746
% es.EX (V/m) @ t=0.94
1.4704358001980364
% es.EY (V/m) @ t=0.94
0.3887562996752001
% es.EZ (V/m) @ t=0.94
-3.3584976612582427
% es.tEX (V/m) @ t=0.94
1.4704358001980298
% es.tEY (V/m) @ t=0.94
0
% es.tEZ (V/m) @ t=0.94
-3.3584976612582373
% es.Ex (V/m) @ t=0.94
1.4704358001980364
% es.Ey (V/m) @ t=0.94
0.3887562996752001
% es.Ez (V/m) @ t=0.94
-3.3584976612582427
% es.tEx (V/m) @ t=0.94
1.4704358001980298
% es.tEy (V/m) @ t=0.94
0
% es.tEz (V/m) @ t=0.94
-3.3584976612582373
% V (V) @ t=0.94
0.018448105390166787
% es.normE (V/m) @ t=0.96
3.739059161882494
% es.EX (V/m) @ t=0.96
1.490162154596415
% es.EY (V/m) @ t=0.96
0.3939751039322843
% es.EZ (V/m) @ t=0.96
-3.403552917054201
% es.tEX (V/m) @ t=0.96
1.4901621545964083
% es.tEY (V/m) @ t=0.96
0
% es.tEZ (V/m) @ t=0.96
-3.4035529170541956
% es.Ex (V/m) @ t=0.96
1.490162154596415
% es.Ey (V/m) @ t=0.96
0.3939751039322843
% es.Ez (V/m) @ t=0.96
-3.403552917054201
% es.tEx (V/m) @ t=0.96
1.4901621545964083
% es.tEy (V/m) @ t=0.96
0
% es.tEz (V/m) @ t=0.96
-3.4035529170541956
% V (V) @ t=0.96
0.018695504547792664
% es.normE (V/m) @ t=0.98
3.789054870231513
% es.EX (V/m) @ t=0.98
1.5100873237072308
% es.EY (V/m) @ t=0.98
0.3992471267200113
% es.EZ (V/m) @ t=0.98
-3.4490622617917754
% es.tEX (V/m) @ t=0.98
1.5100873237072312
% es.tEY (V/m) @ t=0.98
0
% es.tEZ (V/m) @ t=0.98
-3.4490622617917808
% es.Ex (V/m) @ t=0.98
1.5100873237072308
% es.Ey (V/m) @ t=0.98
0.3992471267200113
% es.Ez (V/m) @ t=0.98
-3.4490622617917754
% es.tEx (V/m) @ t=0.98
1.5100873237072312
% es.tEy (V/m) @ t=0.98
0
% es.tEz (V/m) @ t=0.98
-3.4490622617917808
% V (V) @ t=0.98
0.01894538164962209
% es.normE (V/m) @ t=1
3.8395494717853067
% es.EX (V/m) @ t=1
1.5302113075304997
% es.EY (V/m) @ t=1
0.4045723680385258
% es.EZ (V/m) @ t=1
-3.495025695471016
% es.tEX (V/m) @ t=1
1.5302113075305002
% es.tEY (V/m) @ t=1
0
% es.tEZ (V/m) @ t=1
-3.4950256954710177
% es.Ex (V/m) @ t=1
1.5302113075304997
% es.Ey (V/m) @ t=1
0.4045723680385258
% es.Ez (V/m) @ t=1
-3.495025695471016
% es.tEx (V/m) @ t=1
1.5302113075305002
% es.tEy (V/m) @ t=1
0
% es.tEz (V/m) @ t=1
-3.4950256954710177
% V (V) @ t=1
0.01919773669565504
% es.normE (V/m) @ t=1.02
3.890542966548775
% es.EX (V/m) @ t=1.02
1.5505341060662579
% es.EY (V/m) @ t=1.02
0.4099508278876929
% es.EZ (V/m) @ t=1.02
-3.541443218091919
% es.tEX (V/m) @ t=1.02
1.5505341060662587
% es.tEY (V/m) @ t=1.02
0
% es.tEZ (V/m) @ t=1.02
-3.541443218091917
% es.Ex (V/m) @ t=1.02
1.5505341060662579
% es.Ey (V/m) @ t=1.02
0.4099508278876929
% es.Ez (V/m) @ t=1.02
-3.541443218091919
% es.tEx (V/m) @ t=1.02
1.5505341060662587
% es.tEy (V/m) @ t=1.02
0
% es.tEz (V/m) @ t=1.02
-3.541443218091917
% V (V) @ t=1.02
0.01945256968589153
% es.normE (V/m) @ t=1.04
3.9420353545272713
% es.EX (V/m) @ t=1.04
1.5710557193144532
% es.EY (V/m) @ t=1.04
0.41538250626757467
% es.EZ (V/m) @ t=1.04
-3.58831482965447
% es.tEX (V/m) @ t=1.04
1.5710557193144465
% es.tEY (V/m) @ t=1.04
0
% es.tEZ (V/m) @ t=1.04
-3.5883148296544682
% es.Ex (V/m) @ t=1.04