% Model:              1 neuron.mph
% Version:            COMSOL 6.1.0.252
% Date:               Mar 22 2023, 18:23
% Dimension:          0
% Nodes:              14017
% Expressions:        14017
% Description:        Electric field norm, Electric field, X component, Electric field, Y component, Electric field, Z component, Tangential electric field, X component, Tangential electric field, Y component, Tangential electric field, Z component, Electric field, x component, Electric field, y component, Electric field, z component, Tangential electric field, x component, Tangential electric field, y component, Tangential electric field, z component, Electric potential
% Length unit:        mm
% x
1.66
% y
12.2
% z
2
% es.normE (V/m) @ t=0
2.64727473413363
% es.EX (V/m) @ t=0
-0.7897371999150421
% es.EY (V/m) @ t=0
0.05899040045491394
% es.EZ (V/m) @ t=0
-2.521793543677564
% es.tEX (V/m) @ t=0
-0.7897371999150451
% es.tEY (V/m) @ t=0
0
% es.tEZ (V/m) @ t=0
-2.521793543677571
% es.Ex (V/m) @ t=0
-0.7897371999150421
% es.Ey (V/m) @ t=0
0.05899040045491394
% es.Ez (V/m) @ t=0
-2.521793543677564
% es.tEx (V/m) @ t=0
-0.7897371999150451
% es.tEy (V/m) @ t=0
0
% es.tEz (V/m) @ t=0
-2.521793543677571
% V (V) @ t=0
0.013306297162047016
% es.normE (V/m) @ t=0.02
2.28647949138466
% es.EX (V/m) @ t=0.02
-0.6821044631769465
% es.EY (V/m) @ t=0.02
0.05095063975959073
% es.EZ (V/m) @ t=0.02
-2.178100045560474
% es.tEX (V/m) @ t=0.02
-0.6821044631769517
% es.tEY (V/m) @ t=0.02
0
% es.tEZ (V/m) @ t=0.02
-2.1781000455605
% es.Ex (V/m) @ t=0.02
-0.6821044631769465
% es.Ey (V/m) @ t=0.02
0.05095063975959073
% es.Ez (V/m) @ t=0.02
-2.178100045560474
% es.tEx (V/m) @ t=0.02
-0.6821044631769517
% es.tEy (V/m) @ t=0.02
0
% es.tEz (V/m) @ t=0.02
-2.1781000455605
% V (V) @ t=0.02
0.011492791113903817
% es.normE (V/m) @ t=0.04
2.307515013907286
% es.EX (V/m) @ t=0.04
-0.6883797978323052
% es.EY (V/m) @ t=0.04
0.051419383871475835
% es.EZ (V/m) @ t=0.04
-2.1981384813522364
% es.tEX (V/m) @ t=0.04
-0.6883797978323081
% es.tEY (V/m) @ t=0.04
0
% es.tEZ (V/m) @ t=0.04
-2.198138481352263
% es.Ex (V/m) @ t=0.04
-0.6883797978323052
% es.Ey (V/m) @ t=0.04
0.051419383871475835
% es.Ez (V/m) @ t=0.04
-2.1981384813522364
% es.tEx (V/m) @ t=0.04
-0.6883797978323081
% es.tEy (V/m) @ t=0.04
0
% es.tEz (V/m) @ t=0.04
-2.198138481352263
% V (V) @ t=0.04
0.011598524335193433
% es.normE (V/m) @ t=0.06
2.328702063164026
% es.EX (V/m) @ t=0.06
-0.6947003356931585
% es.EY (V/m) @ t=0.06
0.051891503727765506
% es.EZ (V/m) @ t=0.06
-2.218321261653977
% es.tEX (V/m) @ t=0.06
-0.6947003356931667
% es.tEY (V/m) @ t=0.06
0
% es.tEZ (V/m) @ t=0.06
-2.218321261653994
% es.Ex (V/m) @ t=0.06
-0.6947003356931585
% es.Ey (V/m) @ t=0.06
0.051891503727765506
% es.Ez (V/m) @ t=0.06
-2.218321261653977
% es.tEx (V/m) @ t=0.06
-0.6947003356931667
% es.tEy (V/m) @ t=0.06
0
% es.tEz (V/m) @ t=0.06
-2.218321261653994
% V (V) @ t=0.06
0.011705019236514921
% es.normE (V/m) @ t=0.08
2.350299166821375
% es.EX (V/m) @ t=0.08
-0.7011432015765808
% es.EY (V/m) @ t=0.08
0.05237276151338023
% es.EZ (V/m) @ t=0.08
-2.2388946596119075
% es.tEX (V/m) @ t=0.08
-0.7011432015765813
% es.tEY (V/m) @ t=0.08
0
% es.tEZ (V/m) @ t=0.08
-2.238894659611929
% es.Ex (V/m) @ t=0.08
-0.7011432015765808
% es.Ey (V/m) @ t=0.08
0.05237276151338023
% es.Ez (V/m) @ t=0.08
-2.2388946596119075
% es.tEx (V/m) @ t=0.08
-0.7011432015765813
% es.tEy (V/m) @ t=0.08
0
% es.tEz (V/m) @ t=0.08
-2.238894659611929
% V (V) @ t=0.08
0.01181357521193143
% es.normE (V/m) @ t=0.1
2.3720006329067447
% es.EX (V/m) @ t=0.1
-0.7076172010106304
% es.EY (V/m) @ t=0.1
0.05285634498186506
% es.EZ (V/m) @ t=0.1
-2.259567473176575
% es.tEX (V/m) @ t=0.1
-0.7076172010106347
% es.tEY (V/m) @ t=0.1
0
% es.tEZ (V/m) @ t=0.1
-2.259567473176599
% es.Ex (V/m) @ t=0.1
-0.7076172010106304
% es.Ey (V/m) @ t=0.1
0.05285634498186506
% es.Ez (V/m) @ t=0.1
-2.259567473176575
% es.tEx (V/m) @ t=0.1
-0.7076172010106347
% es.tEy (V/m) @ t=0.1
0
% es.tEz (V/m) @ t=0.1
-2.259567473176599
% V (V) @ t=0.1
0.011922655748714588
% es.normE (V/m) @ t=0.12
2.393702098992109
% es.EX (V/m) @ t=0.12
-0.7140912004446857
% es.EY (V/m) @ t=0.12
0.05333992845035582
% es.EZ (V/m) @ t=0.12
-2.2802402867412335
% es.tEX (V/m) @ t=0.12
-0.7140912004446882
% es.tEY (V/m) @ t=0.12
0
% es.tEZ (V/m) @ t=0.12
-2.2802402867412486
% es.Ex (V/m) @ t=0.12
-0.7140912004446857
% es.Ey (V/m) @ t=0.12
0.05333992845035582
% es.Ez (V/m) @ t=0.12
-2.2802402867412335
% es.tEx (V/m) @ t=0.12
-0.7140912004446882
% es.tEy (V/m) @ t=0.12
0
% es.tEz (V/m) @ t=0.12
-2.2802402867412486
% V (V) @ t=0.12
0.01203173628549774
% es.normE (V/m) @ t=0.14
2.416054875830847
% es.EX (V/m) @ t=0.14
-0.7207594994052879
% es.EY (V/m) @ t=0.14
0.05383802528738145
% es.EZ (V/m) @ t=0.14
-2.3015335388556935
% es.tEX (V/m) @ t=0.14
-0.7207594994052968
% es.tEY (V/m) @ t=0.14
0
% es.tEZ (V/m) @ t=0.14
-2.3015335388557094
% es.Ex (V/m) @ t=0.14
-0.7207594994052879
% es.Ey (V/m) @ t=0.14
0.05383802528738145
% es.Ez (V/m) @ t=0.14
-2.3015335388556935
% es.tEx (V/m) @ t=0.14
-0.7207594994052968
% es.tEy (V/m) @ t=0.14
0
% es.tEz (V/m) @ t=0.14
-2.3015335388557094
% V (V) @ t=0.14
0.012144090583881053
% es.normE (V/m) @ t=0.16
2.43884096867522
% es.EX (V/m) @ t=0.16
-0.7275570655310681
% es.EY (V/m) @ t=0.16
0.054345777845334925
% es.EZ (V/m) @ t=0.16
-2.323239567747983
% es.tEX (V/m) @ t=0.16
-0.7275570655310695
% es.tEY (V/m) @ t=0.16
0
% es.tEZ (V/m) @ t=0.16
-2.323239567748012
% es.Ex (V/m) @ t=0.16
-0.7275570655310681
% es.Ey (V/m) @ t=0.16
0.054345777845334925
% es.Ez (V/m) @ t=0.16
-2.323239567747983
% es.tEx (V/m) @ t=0.16
-0.7275570655310695
% es.tEy (V/m) @ t=0.16
0
% es.tEz (V/m) @ t=0.16
-2.323239567748012
% V (V) @ t=0.16
0.012258622910636684
% es.normE (V/m) @ t=0.18
2.4616270615196245
% es.EX (V/m) @ t=0.18
-0.7343546316568608
% es.EY (V/m) @ t=0.18
0.05485353040331323
% es.EZ (V/m) @ t=0.18
-2.3449455966403008
% es.tEX (V/m) @ t=0.18
-0.734354631656867
% es.tEY (V/m) @ t=0.18
0
% es.tEZ (V/m) @ t=0.18
-2.344945596640323
% es.Ex (V/m) @ t=0.18
-0.7343546316568608
% es.Ey (V/m) @ t=0.18
0.05485353040331323
% es.Ez (V/m) @ t=0.18
-2.3449455966403008
% es.tEx (V/m) @ t=0.18
-0.734354631656867
% es.tEy (V/m) @ t=0.18
0
% es.tEz (V/m) @ t=0.18
-2.344945596640323
% V (V) @ t=0.18
0.012373155237392314
% es.normE (V/m) @ t=0.2
2.484413154364017
% es.EX (V/m) @ t=0.2
-0.741152197782655
% es.EY (V/m) @ t=0.2
0.055361282961281205
% es.EZ (V/m) @ t=0.2
-2.366651625532606
% es.tEX (V/m) @ t=0.2
-0.7411521977826538
% es.tEY (V/m) @ t=0.2
0
% es.tEZ (V/m) @ t=0.2
-2.3666516255326204
% es.Ex (V/m) @ t=0.2
-0.741152197782655
% es.Ey (V/m) @ t=0.2
0.055361282961281205
% es.Ez (V/m) @ t=0.2
-2.366651625532606
% es.tEx (V/m) @ t=0.2
-0.7411521977826538
% es.tEy (V/m) @ t=0.2
0
% es.tEz (V/m) @ t=0.2
-2.3666516255326204
% V (V) @ t=0.2
0.012487687564147943
% es.normE (V/m) @ t=0.22
2.5071992472084053
% es.EX (V/m) @ t=0.22
-0.7479497639084353
% es.EY (V/m) @ t=0.22
0.05586903551924709
% es.EZ (V/m) @ t=0.22
-2.38835765442491
% es.tEX (V/m) @ t=0.22
-0.7479497639084443
% es.tEY (V/m) @ t=0.22
0
% es.tEZ (V/m) @ t=0.22
-2.3883576544249303
% es.Ex (V/m) @ t=0.22
-0.7479497639084353
% es.Ey (V/m) @ t=0.22
0.05586903551924709
% es.Ez (V/m) @ t=0.22
-2.38835765442491
% es.tEx (V/m) @ t=0.22
-0.7479497639084443
% es.tEy (V/m) @ t=0.22
0
% es.tEz (V/m) @ t=0.22
-2.3883576544249303
% V (V) @ t=0.22
0.012602219890903576
% es.normE (V/m) @ t=0.24
2.529985340052809
% es.EX (V/m) @ t=0.24
-0.7547473300342259
% es.EY (V/m) @ t=0.24
0.05637678807720571
% es.EZ (V/m) @ t=0.24
-2.4100636833172286
% es.tEX (V/m) @ t=0.24
-0.7547473300342311
% es.tEY (V/m) @ t=0.24
0
% es.tEZ (V/m) @ t=0.24
-2.4100636833172624
% es.Ex (V/m) @ t=0.24
-0.7547473300342259
% es.Ey (V/m) @ t=0.24
0.05637678807720571
% es.Ez (V/m) @ t=0.24
-2.4100636833172286
% es.tEx (V/m) @ t=0.24
-0.7547473300342311
% es.tEy (V/m) @ t=0.24
0
% es.tEz (V/m) @ t=0.24
-2.4100636833172624
% V (V) @ t=0.24
0.012716752217659208
% es.normE (V/m) @ t=0.26
2.5532732642961395
% es.EX (V/m) @ t=0.26
-0.7616946021568798
% es.EY (V/m) @ t=0.26
0.056895721210919986
% es.EZ (V/m) @ t=0.26
-2.432247757079658
% es.tEX (V/m) @ t=0.26
-0.7616946021568864
% es.tEY (V/m) @ t=0.26
0
% es.tEZ (V/m) @ t=0.26
-2.4322477570796828
% es.Ex (V/m) @ t=0.26
-0.7616946021568798
% es.Ey (V/m) @ t=0.26
0.056895721210919986
% es.Ez (V/m) @ t=0.26
-2.432247757079658
% es.tEx (V/m) @ t=0.26
-0.7616946021568864
% es.tEy (V/m) @ t=0.26
0
% es.tEz (V/m) @ t=0.26
-2.4322477570796828
% V (V) @ t=0.26
0.012833807056170288
% es.normE (V/m) @ t=0.28
2.578480979988279
% es.EX (V/m) @ t=0.28
-0.7692145851406683
% es.EY (V/m) @ t=0.28
0.057457426426453434
% es.EZ (V/m) @ t=0.28
-2.4562606252454433
% es.tEX (V/m) @ t=0.28
-0.7692145851406806
% es.tEY (V/m) @ t=0.28
0
% es.tEZ (V/m) @ t=0.28
-2.45626062524547
% es.Ex (V/m) @ t=0.28
-0.7692145851406683
% es.Ey (V/m) @ t=0.28
0.057457426426453434
% es.Ez (V/m) @ t=0.28
-2.4562606252454433
% es.tEx (V/m) @ t=0.28
-0.7692145851406806
% es.tEy (V/m) @ t=0.28
0
% es.tEz (V/m) @ t=0.28
-2.45626062524547
% V (V) @ t=0.28
0.012960511941505824
% es.normE (V/m) @ t=0.3
2.603688695680429
% es.EX (V/m) @ t=0.3
-0.7767345681244477
% es.EY (V/m) @ t=0.3
0.05801913164200645
% es.EZ (V/m) @ t=0.3
-2.480273493411242
% es.tEX (V/m) @ t=0.3
-0.7767345681244535
% es.tEY (V/m) @ t=0.3
0
% es.tEZ (V/m) @ t=0.3
-2.480273493411257
% es.Ex (V/m) @ t=0.3
-0.7767345681244477
% es.Ey (V/m) @ t=0.3
0.05801913164200645
% es.Ez (V/m) @ t=0.3
-2.480273493411242
% es.tEx (V/m) @ t=0.3
-0.7767345681244535
% es.tEy (V/m) @ t=0.3
0
% es.tEz (V/m) @ t=0.3
-2.480273493411257
% V (V) @ t=0.3
0.01308721682684136
% es.normE (V/m) @ t=0.32
2.628896411372568
% es.EX (V/m) @ t=0.32
-0.7842545511082343
% es.EY (V/m) @ t=0.32
0.05858083685755769
% es.EZ (V/m) @ t=0.32
-2.5042863615770274
% es.tEX (V/m) @ t=0.32
-0.7842545511082406
% es.tEY (V/m) @ t=0.32
0
% es.tEZ (V/m) @ t=0.32
-2.5042863615770568
% es.Ex (V/m) @ t=0.32
-0.7842545511082343
% es.Ey (V/m) @ t=0.32
0.05858083685755769
% es.Ez (V/m) @ t=0.32
-2.5042863615770274
% es.tEx (V/m) @ t=0.32
-0.7842545511082406
% es.tEy (V/m) @ t=0.32
0
% es.tEz (V/m) @ t=0.32
-2.5042863615770568
% V (V) @ t=0.32
0.013213921712176896
% es.normE (V/m) @ t=0.34
2.6541041270647403
% es.EX (V/m) @ t=0.34
-0.7917745340920166
% es.EY (V/m) @ t=0.34
0.05914254207311245
% es.EZ (V/m) @ t=0.34
-2.5282992297428484
% es.tEX (V/m) @ t=0.34
-0.7917745340920206
% es.tEY (V/m) @ t=0.34
0
% es.tEZ (V/m) @ t=0.34
-2.5282992297428724
% es.Ex (V/m) @ t=0.34
-0.7917745340920166
% es.Ey (V/m) @ t=0.34
0.05914254207311245
% es.Ez (V/m) @ t=0.34
-2.5282992297428484
% es.tEx (V/m) @ t=0.34
-0.7917745340920206
% es.tEy (V/m) @ t=0.34
0
% es.tEz (V/m) @ t=0.34
-2.5282992297428724
% V (V) @ t=0.34
0.013340626597512433
% es.normE (V/m) @ t=0.36
2.6793118427568725
% es.EX (V/m) @ t=0.36
-0.7992945170758039
% es.EY (V/m) @ t=0.36
0.05970424728866193
% es.EZ (V/m) @ t=0.36
-2.552312097908626
% es.tEX (V/m) @ t=0.36
-0.7992945170758148
% es.tEY (V/m) @ t=0.36
0
% es.tEZ (V/m) @ t=0.36
-2.5523120979086737
% es.Ex (V/m) @ t=0.36
-0.7992945170758039
% es.Ey (V/m) @ t=0.36
0.05970424728866193
% es.Ez (V/m) @ t=0.36
-2.552312097908626
% es.tEx (V/m) @ t=0.36
-0.7992945170758148
% es.tEy (V/m) @ t=0.36
0
% es.tEz (V/m) @ t=0.36
-2.5523120979086737
% V (V) @ t=0.36
0.013467331482847967
% es.normE (V/m) @ t=0.38
2.7045195584490376
% es.EX (V/m) @ t=0.38
-0.806814500059587
% es.EY (V/m) @ t=0.38
0.060265952504218526
% es.EZ (V/m) @ t=0.38
-2.5763249660744396
% es.tEX (V/m) @ t=0.38
-0.8068145000595877
% es.tEY (V/m) @ t=0.38
0
% es.tEZ (V/m) @ t=0.38
-2.576324966074459
% es.Ex (V/m) @ t=0.38
-0.806814500059587
% es.Ey (V/m) @ t=0.38
0.060265952504218526
% es.Ez (V/m) @ t=0.38
-2.5763249660744396
% es.tEx (V/m) @ t=0.38
-0.8068145000595877
% es.tEy (V/m) @ t=0.38
0
% es.tEz (V/m) @ t=0.38
-2.576324966074459
% V (V) @ t=0.38
0.013594036368183507
% es.normE (V/m) @ t=0.4
2.729727274141184
% es.EX (V/m) @ t=0.4
-0.8143344830433755
% es.EY (V/m) @ t=0.4
0.060827657719760786
% es.EZ (V/m) @ t=0.4
-2.6003378342402312
% es.tEX (V/m) @ t=0.4
-0.8143344830433747
% es.tEY (V/m) @ t=0.4
0
% es.tEZ (V/m) @ t=0.4
-2.600337834240248
% es.Ex (V/m) @ t=0.4
-0.8143344830433755
% es.Ey (V/m) @ t=0.4
0.060827657719760786
% es.Ez (V/m) @ t=0.4
-2.6003378342402312
% es.tEx (V/m) @ t=0.4
-0.8143344830433747
% es.tEy (V/m) @ t=0.4
0
% es.tEz (V/m) @ t=0.4
-2.600337834240248
% V (V) @ t=0.4
0.013720741253519042
% es.normE (V/m) @ t=0.42
2.7549349898333144
% es.EX (V/m) @ t=0.42
-0.8218544660271567
% es.EY (V/m) @ t=0.42
0.061389362935306724
% es.EZ (V/m) @ t=0.42
-2.6243507024060095
% es.tEX (V/m) @ t=0.42
-0.8218544660271618
% es.tEY (V/m) @ t=0.42
0
% es.tEZ (V/m) @ t=0.42
-2.6243507024060335
% es.Ex (V/m) @ t=0.42
-0.8218544660271567
% es.Ey (V/m) @ t=0.42
0.061389362935306724
% es.Ez (V/m) @ t=0.42
-2.6243507024060095
% es.tEx (V/m) @ t=0.42
-0.8218544660271618
% es.tEy (V/m) @ t=0.42
0
% es.tEz (V/m) @ t=0.42
-2.6243507024060335
% V (V) @ t=0.42
0.013847446138854577
% es.normE (V/m) @ t=0.44
2.7801427055255084
% es.EX (V/m) @ t=0.44
-0.8293744490109434
% es.EY (V/m) @ t=0.44
0.061951068150861266
% es.EZ (V/m) @ t=0.44
-2.648363570571851
% es.tEX (V/m) @ t=0.44
-0.8293744490109489
% es.tEY (V/m) @ t=0.44
0
% es.tEZ (V/m) @ t=0.44
-2.6483635705718775
% es.Ex (V/m) @ t=0.44
-0.8293744490109434
% es.Ey (V/m) @ t=0.44
0.061951068150861266
% es.Ez (V/m) @ t=0.44
-2.648363570571851
% es.tEx (V/m) @ t=0.44
-0.8293744490109489
% es.tEy (V/m) @ t=0.44
0
% es.tEz (V/m) @ t=0.44
-2.6483635705718775
% V (V) @ t=0.44
0.013974151024190116
% es.normE (V/m) @ t=0.46
2.805350421217638
% es.EX (V/m) @ t=0.46
-0.8368944319947211
% es.EY (V/m) @ t=0.46
0.06251277336639852
% es.EZ (V/m) @ t=0.46
-2.672376438737629
% es.tEX (V/m) @ t=0.46
-0.836894431994736
% es.tEY (V/m) @ t=0.46
0
% es.tEZ (V/m) @ t=0.46
-2.6723764387376505
% es.Ex (V/m) @ t=0.46
-0.8368944319947211
% es.Ey (V/m) @ t=0.46
0.06251277336639852
% es.Ez (V/m) @ t=0.46
-2.672376438737629
% es.tEx (V/m) @ t=0.46
-0.836894431994736
% es.tEy (V/m) @ t=0.46
0
% es.tEz (V/m) @ t=0.46
-2.6723764387376505
% V (V) @ t=0.46
0.014100855909525652
% es.normE (V/m) @ t=0.48
2.830558136909786
% es.EX (V/m) @ t=0.48
-0.8444144149785093
% es.EY (V/m) @ t=0.48
0.06307447858195132
% es.EZ (V/m) @ t=0.48
-2.6963893069034217
% es.tEX (V/m) @ t=0.48
-0.844414414978516
% es.tEY (V/m) @ t=0.48
0
% es.tEZ (V/m) @ t=0.48
-2.6963893069034377
% es.Ex (V/m) @ t=0.48
-0.8444144149785093
% es.Ey (V/m) @ t=0.48
0.06307447858195132
% es.Ez (V/m) @ t=0.48
-2.6963893069034217
% es.tEx (V/m) @ t=0.48
-0.844414414978516
% es.tEy (V/m) @ t=0.48
0
% es.tEz (V/m) @ t=0.48
-2.6963893069034377
% V (V) @ t=0.48
0.014227560794861187
% es.normE (V/m) @ t=0.5
2.8557658526019383
% es.EX (V/m) @ t=0.5
-0.8519343979622925
% es.EY (V/m) @ t=0.5
0.06363618379750983
% es.EZ (V/m) @ t=0.5
-2.7204021750692204
% es.tEX (V/m) @ t=0.5
-0.8519343979623102
% es.tEY (V/m) @ t=0.5
0
% es.tEZ (V/m) @ t=0.5
-2.720402175069239
% es.Ex (V/m) @ t=0.5
-0.8519343979622925
% es.Ey (V/m) @ t=0.5
0.06363618379750983
% es.Ez (V/m) @ t=0.5
-2.7204021750692204
% es.tEx (V/m) @ t=0.5
-0.8519343979623102
% es.tEy (V/m) @ t=0.5
0
% es.tEz (V/m) @ t=0.5
-2.720402175069239
% V (V) @ t=0.5
0.014354265680196723
% es.normE (V/m) @ t=0.52
2.882118794391976
% es.EX (V/m) @ t=0.52
-0.8597960270311561
% es.EY (V/m) @ t=0.52
0.06422341197975119
% es.EZ (V/m) @ t=0.52
-2.745505984864476
% es.tEX (V/m) @ t=0.52
-0.8597960270311731
% es.tEY (V/m) @ t=0.52
0
% es.tEZ (V/m) @ t=0.52
-2.7455059848645043
% es.Ex (V/m) @ t=0.52
-0.8597960270311561
% es.Ey (V/m) @ t=0.52
0.06422341197975119
% es.Ez (V/m) @ t=0.52
-2.745505984864476
% es.tEx (V/m) @ t=0.52
-0.8597960270311731
% es.tEy (V/m) @ t=0.52
0
% es.tEz (V/m) @ t=0.52
-2.7455059848645043
% V (V) @ t=0.52
0.014486726775293092
% es.normE (V/m) @ t=0.54
2.9100486877996357
% es.EX (V/m) @ t=0.54
-0.8681280953849109
% es.EY (V/m) @ t=0.54
0.06484578473625757
% es.EZ (V/m) @ t=0.54
-2.7721119977360287
% es.tEX (V/m) @ t=0.54
-0.8681280953849253
% es.tEY (V/m) @ t=0.54
0
% es.tEZ (V/m) @ t=0.54
-2.772111997736067
% es.Ex (V/m) @ t=0.54
-0.8681280953849109
% es.Ey (V/m) @ t=0.54
0.06484578473625757
% es.Ez (V/m) @ t=0.54
-2.7721119977360287
% es.tEx (V/m) @ t=0.54
-0.8681280953849253
% es.tEy (V/m) @ t=0.54
0
% es.tEz (V/m) @ t=0.54
-2.772111997736067
% V (V) @ t=0.54
0.01462711404698488
% es.normE (V/m) @ t=0.56
2.937978581207296
% es.EX (V/m) @ t=0.56
-0.8764601637386586
% es.EY (V/m) @ t=0.56
0.06546815749274747
% es.EZ (V/m) @ t=0.56
-2.7987180106075815
% es.tEX (V/m) @ t=0.56
-0.8764601637386562
% es.tEY (V/m) @ t=0.56
0
% es.tEZ (V/m) @ t=0.56
-2.7987180106075993
% es.Ex (V/m) @ t=0.56
-0.8764601637386586
% es.Ey (V/m) @ t=0.56
0.06546815749274747
% es.Ez (V/m) @ t=0.56
-2.7987180106075815
% es.tEx (V/m) @ t=0.56
-0.8764601637386562
% es.tEy (V/m) @ t=0.56
0
% es.tEz (V/m) @ t=0.56
-2.7987180106075993
% V (V) @ t=0.56
0.014767501318676669
% es.normE (V/m) @ t=0.58
2.9659084746149516
% es.EX (V/m) @ t=0.58
-0.8847922320924009
% es.EY (V/m) @ t=0.58
0.06609053024925557
% es.EZ (V/m) @ t=0.58
-2.8253240234791344
% es.tEX (V/m) @ t=0.58
-0.8847922320924084
% es.tEY (V/m) @ t=0.58
0
% es.tEZ (V/m) @ t=0.58
-2.82532402347916
% es.Ex (V/m) @ t=0.58
-0.8847922320924009
% es.Ey (V/m) @ t=0.58
0.06609053024925557
% es.Ez (V/m) @ t=0.58
-2.8253240234791344
% es.tEx (V/m) @ t=0.58
-0.8847922320924084
% es.tEy (V/m) @ t=0.58
0
% es.tEz (V/m) @ t=0.58
-2.82532402347916
% V (V) @ t=0.58
0.014907888590368457
% es.normE (V/m) @ t=0.6
2.993838368022597
% es.EX (V/m) @ t=0.6
-0.8931243004461487
% es.EY (V/m) @ t=0.6
0.06671290300574235
% es.EZ (V/m) @ t=0.6
-2.851930036350673
% es.tEX (V/m) @ t=0.6
-0.8931243004461606
% es.tEY (V/m) @ t=0.6
0
% es.tEZ (V/m) @ t=0.6
-2.8519300363507067
% es.Ex (V/m) @ t=0.6
-0.8931243004461487
% es.Ey (V/m) @ t=0.6
0.06671290300574235
% es.Ez (V/m) @ t=0.6
-2.851930036350673
% es.tEx (V/m) @ t=0.6
-0.8931243004461606
% es.tEy (V/m) @ t=0.6
0
% es.tEz (V/m) @ t=0.6
-2.8519300363507067
% V (V) @ t=0.6
0.015048275862060248
% es.normE (V/m) @ t=0.62
3.0217682614302577
% es.EX (V/m) @ t=0.62
-0.9014563687998995
% es.EY (V/m) @ t=0.62
0.06733527576222027
% es.EZ (V/m) @ t=0.62
-2.8785360492222267
% es.tEX (V/m) @ t=0.62
-0.9014563687999058
% es.tEY (V/m) @ t=0.62
0
% es.tEZ (V/m) @ t=0.62
-2.8785360492222534
% es.Ex (V/m) @ t=0.62
-0.9014563687998995
% es.Ey (V/m) @ t=0.62
0.06733527576222027
% es.Ez (V/m) @ t=0.62
-2.8785360492222267
% es.tEx (V/m) @ t=0.62
-0.9014563687999058
% es.tEy (V/m) @ t=0.62
0
% es.tEz (V/m) @ t=0.62
-2.8785360492222534
% V (V) @ t=0.62
0.015188663133752039
% es.normE (V/m) @ t=0.64
3.04969815483793
% es.EX (V/m) @ t=0.64
-0.9097884371536475
% es.EY (V/m) @ t=0.64
0.06795764851873318
% es.EZ (V/m) @ t=0.64
-2.905142062093793
% es.tEX (V/m) @ t=0.64
-0.909788437153658
% es.tEY (V/m) @ t=0.64
0
% es.tEZ (V/m) @ t=0.64
-2.905142062093816
% es.Ex (V/m) @ t=0.64
-0.9097884371536475
% es.Ey (V/m) @ t=0.64
0.06795764851873318
% es.Ez (V/m) @ t=0.64
-2.905142062093793
% es.tEx (V/m) @ t=0.64
-0.909788437153658
% es.tEy (V/m) @ t=0.64
0
% es.tEz (V/m) @ t=0.64
-2.905142062093816
% V (V) @ t=0.64
0.015329050405443825
% es.normE (V/m) @ t=0.66
3.077628048245545
% es.EX (V/m) @ t=0.66
-0.9181205055073864
% es.EY (V/m) @ t=0.66
0.06858002127520575
% es.EZ (V/m) @ t=0.66
-2.931748074965303
% es.tEX (V/m) @ t=0.66
-0.918120505507396
% es.tEY (V/m) @ t=0.66
0
% es.tEZ (V/m) @ t=0.66
-2.931748074965334
% es.Ex (V/m) @ t=0.66
-0.9181205055073864
% es.Ey (V/m) @ t=0.66
0.06858002127520575
% es.Ez (V/m) @ t=0.66
-2.931748074965303
% es.tEx (V/m) @ t=0.66
-0.918120505507396
% es.tEy (V/m) @ t=0.66
0
% es.tEz (V/m) @ t=0.66
-2.931748074965334
% V (V) @ t=0.66
0.015469437677135616
% es.normE (V/m) @ t=0.68
3.105557941653233
% es.EX (V/m) @ t=0.68
-0.9264525738611411
% es.EY (V/m) @ t=0.68
0.06920239403172407
% es.EZ (V/m) @ t=0.68
-2.9583540878368844
% es.tEX (V/m) @ t=0.68
-0.9264525738611482
% es.tEY (V/m) @ t=0.68
0
% es.tEZ (V/m) @ t=0.68
-2.9583540878369075
% es.Ex (V/m) @ t=0.68
-0.9264525738611411
% es.Ey (V/m) @ t=0.68
0.06920239403172407
% es.Ez (V/m) @ t=0.68
-2.9583540878368844
% es.tEx (V/m) @ t=0.68
-0.9264525738611482
% es.tEy (V/m) @ t=0.68
0
% es.tEz (V/m) @ t=0.68
-2.9583540878369075
% V (V) @ t=0.68
0.015609824948827403
% es.normE (V/m) @ t=0.7
3.133487835060892
% es.EX (V/m) @ t=0.7
-0.9347846422148924
% es.EY (V/m) @ t=0.7
0.06982476678822151
% es.EZ (V/m) @ t=0.7
-2.984960100708437
% es.tEX (V/m) @ t=0.7
-0.9347846422148933
% es.tEY (V/m) @ t=0.7
0
% es.tEZ (V/m) @ t=0.7
-2.98496010070847
% es.Ex (V/m) @ t=0.7
-0.9347846422148924
% es.Ey (V/m) @ t=0.7
0.06982476678822151
% es.Ez (V/m) @ t=0.7
-2.984960100708437
% es.tEx (V/m) @ t=0.7
-0.9347846422148933
% es.tEy (V/m) @ t=0.7
0
% es.tEz (V/m) @ t=0.7
-2.98496010070847
% V (V) @ t=0.7
0.015750212220519193
% es.normE (V/m) @ t=0.72
3.161417728468524
% es.EX (V/m) @ t=0.72
-0.9431167105686435
% es.EY (V/m) @ t=0.72
0.07044713954469059
% es.EZ (V/m) @ t=0.72
-3.0115661135799616
% es.tEX (V/m) @ t=0.72
-0.9431167105686526
% es.tEY (V/m) @ t=0.72
0
% es.tEZ (V/m) @ t=0.72
-3.0115661135799883
% es.Ex (V/m) @ t=0.72
-0.9431167105686435
% es.Ey (V/m) @ t=0.72
0.07044713954469059
% es.Ez (V/m) @ t=0.72
-3.0115661135799616
% es.tEx (V/m) @ t=0.72
-0.9431167105686526
% es.tEy (V/m) @ t=0.72
0
% es.tEz (V/m) @ t=0.72
-3.0115661135799883
% V (V) @ t=0.72
0.015890599492210982
% es.normE (V/m) @ t=0.74
3.189347621876194
% es.EX (V/m) @ t=0.74
-0.9514487789223789
% es.EY (V/m) @ t=0.74
0.07106951230120535
% es.EZ (V/m) @ t=0.74
-3.0381721264515287
% es.tEX (V/m) @ t=0.74
-0.9514487789223907
% es.tEY (V/m) @ t=0.74
0
% es.tEZ (V/m) @ t=0.74
-3.038172126451549
% es.Ex (V/m) @ t=0.74
-0.9514487789223789
% es.Ey (V/m) @ t=0.74
0.07106951230120535
% es.Ez (V/m) @ t=0.74
-3.0381721264515287
% es.tEx (V/m) @ t=0.74
-0.9514487789223907
% es.tEy (V/m) @ t=0.74
0
% es.tEz (V/m) @ t=0.74
-3.038172126451549
% V (V) @ t=0.74
0.01603098676390277
% es.normE (V/m) @ t=0.76
3.217277515283837
% es.EX (V/m) @ t=0.76
-0.9597808472761287
% es.EY (V/m) @ t=0.76
0.07169188505768895
% es.EZ (V/m) @ t=0.76
-3.0647781393230664
% es.tEX (V/m) @ t=0.76
-0.9597808472761358
% es.tEY (V/m) @ t=0.76
0
% es.tEZ (V/m) @ t=0.76
-3.0647781393230957
% es.Ex (V/m) @ t=0.76
-0.9597808472761287
% es.Ey (V/m) @ t=0.76
0.07169188505768895
% es.Ez (V/m) @ t=0.76
-3.0647781393230664
% es.tEx (V/m) @ t=0.76
-0.9597808472761358
% es.tEy (V/m) @ t=0.76
0
% es.tEz (V/m) @ t=0.76
-3.0647781393230957
% V (V) @ t=0.76
0.016171374035594557
% es.normE (V/m) @ t=0.78
3.24715147794122
% es.EX (V/m) @ t=0.78
-0.9686928718914518
% es.EY (V/m) @ t=0.78
0.07235757800537987
% es.EZ (V/m) @ t=0.78
-3.093236072340644
% es.tEX (V/m) @ t=0.78
-0.9686928718914558
% es.tEY (V/m) @ t=0.78
0
% es.tEZ (V/m) @ t=0.78
-3.0932360723406642
% es.Ex (V/m) @ t=0.78
-0.9686928718914518
% es.Ey (V/m) @ t=0.78
0.07235757800537987
% es.Ez (V/m) @ t=0.78
-3.093236072340644
% es.tEx (V/m) @ t=0.78
-0.9686928718914558
% es.tEy (V/m) @ t=0.78
0
% es.tEz (V/m) @ t=0.78
-3.0932360723406642
% V (V) @ t=0.78
0.016321533019084532
% es.normE (V/m) @ t=0.8
3.278146880571194
% es.EX (V/m) @ t=0.8
-0.9779394453579418
% es.EY (V/m) @ t=0.8
0.07304826028613305
% es.EZ (V/m) @ t=0.8
-3.1227622889484765
% es.tEX (V/m) @ t=0.8
-0.9779394453579471
% es.tEY (V/m) @ t=0.8
0
% es.tEZ (V/m) @ t=0.8
-3.1227622889485165
% es.Ex (V/m) @ t=0.8
-0.9779394453579418
% es.Ey (V/m) @ t=0.8
0.07304826028613305
% es.Ez (V/m) @ t=0.8
-3.1227622889484765
% es.tEx (V/m) @ t=0.8
-0.9779394453579471
% es.tEy (V/m) @ t=0.8
0
% es.tEz (V/m) @ t=0.8
-3.1227622889485165
% V (V) @ t=0.8
0.016477328832750524
% es.normE (V/m) @ t=0.82
3.309142283201156
% es.EX (V/m) @ t=0.82
-0.9871860188244349
% es.EY (V/m) @ t=0.82
0.07373894256686854
% es.EZ (V/m) @ t=0.82
-3.152288505556297
% es.tEX (V/m) @ t=0.82
-0.9871860188244455
% es.tEY (V/m) @ t=0.82
0
% es.tEZ (V/m) @ t=0.82
-3.152288505556344
% es.Ex (V/m) @ t=0.82
-0.9871860188244349
% es.Ey (V/m) @ t=0.82
0.07373894256686854
% es.Ez (V/m) @ t=0.82
-3.152288505556297
% es.tEx (V/m) @ t=0.82
-0.9871860188244455
% es.tEy (V/m) @ t=0.82
0
% es.tEz (V/m) @ t=0.82
-3.152288505556344
% V (V) @ t=0.82
0.016633124646416506
% es.normE (V/m) @ t=0.84
3.3401376858311442
% es.EX (V/m) @ t=0.84
-0.9964325922909231
% es.EY (V/m) @ t=0.84
0.07442962484762215
% es.EZ (V/m) @ t=0.84
-3.1818147221641446
% es.tEX (V/m) @ t=0.84
-0.9964325922909296
% es.tEY (V/m) @ t=0.84
0
% es.tEZ (V/m) @ t=0.84
-3.181814722164166
% es.Ex (V/m) @ t=0.84
-0.9964325922909231
% es.Ey (V/m) @ t=0.84
0.07442962484762215
% es.Ez (V/m) @ t=0.84
-3.1818147221641446
% es.tEx (V/m) @ t=0.84
-0.9964325922909296
% es.tEy (V/m) @ t=0.84
0
% es.tEz (V/m) @ t=0.84
-3.181814722164166
% V (V) @ t=0.84
0.016788920460082495
% es.normE (V/m) @ t=0.86
3.371133088461101
% es.EX (V/m) @ t=0.86
-1.0056791657573987
% es.EY (V/m) @ t=0.86
0.07512030712837932
% es.EZ (V/m) @ t=0.86
-3.211340938771963
% es.tEX (V/m) @ t=0.86
-1.0056791657574067
% es.tEY (V/m) @ t=0.86
0
% es.tEZ (V/m) @ t=0.86
-3.211340938772004
% es.Ex (V/m) @ t=0.86
-1.0056791657573987
% es.Ey (V/m) @ t=0.86
0.07512030712837932
% es.Ez (V/m) @ t=0.86
-3.211340938771963
% es.tEx (V/m) @ t=0.86
-1.0056791657574067
% es.tEy (V/m) @ t=0.86
0
% es.tEz (V/m) @ t=0.86
-3.211340938772004
% V (V) @ t=0.86
0.016944716273748484
% es.normE (V/m) @ t=0.88
3.4021284910910934
% es.EX (V/m) @ t=0.88
-1.014925739223899
% es.EY (V/m) @ t=0.88
0.07581098940912946
% es.EZ (V/m) @ t=0.88
-3.240867155379812
% es.tEX (V/m) @ t=0.88
-1.014925739223905
% es.tEY (V/m) @ t=0.88
0
% es.tEZ (V/m) @ t=0.88
-3.2408671553798296
% es.Ex (V/m) @ t=0.88
-1.014925739223899
% es.Ey (V/m) @ t=0.88
0.07581098940912946
% es.Ez (V/m) @ t=0.88
-3.240867155379812
% es.tEx (V/m) @ t=0.88
-1.014925739223905
% es.tEy (V/m) @ t=0.88
0
% es.tEz (V/m) @ t=0.88
-3.2408671553798296
% V (V) @ t=0.88
0.017100512087414473
% es.normE (V/m) @ t=0.9
3.4331238937210684
% es.EX (V/m) @ t=0.9
-1.0241723126903926
% es.EY (V/m) @ t=0.9
0.0765016716898933
% es.EZ (V/m) @ t=0.9
-3.2703933719876455
% es.tEX (V/m) @ t=0.9
-1.0241723126904105
% es.tEY (V/m) @ t=0.9
0
% es.tEZ (V/m) @ t=0.9
-3.2703933719876677
% es.Ex (V/m) @ t=0.9
-1.0241723126903926
% es.Ey (V/m) @ t=0.9
0.0765016716898933
% es.Ez (V/m) @ t=0.9
-3.2703933719876455
% es.tEx (V/m) @ t=0.9
-1.0241723126904105
% es.tEy (V/m) @ t=0.9
0
% es.tEz (V/m) @ t=0.9
-3.2703933719876677
% V (V) @ t=0.9
0.017256307901080462
% es.normE (V/m) @ t=0.92
3.4641192963510417
% es.EX (V/m) @ t=0.92
-1.033418886156886
% es.EY (V/m) @ t=0.92
0.07719235397063981
% es.EZ (V/m) @ t=0.92
-3.299919588595478
% es.tEX (V/m) @ t=0.92
-1.0334188861569018
% es.tEY (V/m) @ t=0.92
0
% es.tEZ (V/m) @ t=0.92
-3.2999195885955057
% es.Ex (V/m) @ t=0.92
-1.033418886156886
% es.Ey (V/m) @ t=0.92
0.07719235397063981
% es.Ez (V/m) @ t=0.92
-3.299919588595478
% es.tEx (V/m) @ t=0.92
-1.0334188861569018
% es.tEy (V/m) @ t=0.92
0
% es.tEz (V/m) @ t=0.92
-3.2999195885955057
% V (V) @ t=0.92
0.017412103714746448
% es.normE (V/m) @ t=0.94
3.4951146989810304
% es.EX (V/m) @ t=0.94
-1.0426654596233742
% es.EY (V/m) @ t=0.94
0.07788303625138981
% es.EZ (V/m) @ t=0.94
-3.329445805203326
% es.tEX (V/m) @ t=0.94
-1.042665459623393
% es.tEY (V/m) @ t=0.94
0
% es.tEZ (V/m) @ t=0.94
-3.3294458052033455
% es.Ex (V/m) @ t=0.94
-1.0426654596233742
% es.Ey (V/m) @ t=0.94
0.07788303625138981
% es.Ez (V/m) @ t=0.94
-3.329445805203326
% es.tEx (V/m) @ t=0.94
-1.042665459623393
% es.tEy (V/m) @ t=0.94
0
% es.tEz (V/m) @ t=0.94
-3.3294458052033455
% V (V) @ t=0.94
0.01756789952841243
% es.normE (V/m) @ t=0.96
3.526110101610992
% es.EX (V/m) @ t=0.96
-1.0519120330898677
% es.EY (V/m) @ t=0.96
0.07857371853213943
% es.EZ (V/m) @ t=0.96
-3.3589720218111445
% es.tEX (V/m) @ t=0.96
-1.0519120330898772
% es.tEY (V/m) @ t=0.96
0
% es.tEZ (V/m) @ t=0.96
-3.3589720218111836
% es.Ex (V/m) @ t=0.96
-1.0519120330898677
% es.Ey (V/m) @ t=0.96
0.07857371853213943
% es.Ez (V/m) @ t=0.96
-3.3589720218111445
% es.tEx (V/m) @ t=0.96
-1.0519120330898772
% es.tEy (V/m) @ t=0.96
0
% es.tEz (V/m) @ t=0.96
-3.3589720218111836
% V (V) @ t=0.96
0.01772369534207842
% es.normE (V/m) @ t=0.98
3.557105504240991
% es.EX (V/m) @ t=0.98
-1.061158606556347
% es.EY (V/m) @ t=0.98
0.07926440081287485
% es.EZ (V/m) @ t=0.98
-3.3884982384190065
% es.tEX (V/m) @ t=0.98
-1.0611586065563543
% es.tEY (V/m) @ t=0.98
0
% es.tEZ (V/m) @ t=0.98
-3.3884982384190074
% es.Ex (V/m) @ t=0.98
-1.061158606556347
% es.Ey (V/m) @ t=0.98
0.07926440081287485
% es.Ez (V/m) @ t=0.98
-3.3884982384190065
% es.tEx (V/m) @ t=0.98
-1.0611586065563543
% es.tEy (V/m) @ t=0.98
0
% es.tEz (V/m) @ t=0.98
-3.3884982384190074
% V (V) @ t=0.98
0.017879491155744408
% es.normE (V/m) @ t=1
3.5881009068709404
% es.EX (V/m) @ t=1
-1.0704051800228402
% es.EY (V/m) @ t=1
0.07995508309363919
% es.EZ (V/m) @ t=1
-3.4180244550268126
% es.tEX (V/m) @ t=1
-1.0704051800228456
% es.tEY (V/m) @ t=1
0
% es.tEZ (V/m) @ t=1
-3.4180244550268455
% es.Ex (V/m) @ t=1
-1.0704051800228402
% es.Ey (V/m) @ t=1
0.07995508309363919
% es.Ez (V/m) @ t=1
-3.4180244550268126
% es.tEx (V/m) @ t=1
-1.0704051800228456
% es.tEy (V/m) @ t=1
0
% es.tEz (V/m) @ t=1
-3.4180244550268455
% V (V) @ t=1
0.018035286969410397
% es.normE (V/m) @ t=1.02
3.619096309500911
% es.EX (V/m) @ t=1.02
-1.0796517534893177
% es.EY (V/m) @ t=1.02
0.08064576537439283
% es.EZ (V/m) @ t=1.02
-3.4475506716346453
% es.tEX (V/m) @ t=1.02
-1.0796517534893226
% es.tEY (V/m) @ t=1.02
0
% es.tEZ (V/m) @ t=1.02
-3.4475506716346693
% es.Ex (V/m) @ t=1.02
-1.0796517534893177
% es.Ey (V/m) @ t=1.02
0.08064576537439283
% es.Ez (V/m) @ t=1.02
-3.4475506716346453
% es.tEx (V/m) @ t=1.02
-1.0796517534893226
% es.tEy (V/m) @ t=1.02
0
% es.tEz (V/m) @ t=1.02
-3.4475506716346693
% V (V) @ t=1.02
0.018191082783076386
% es.normE (V/m) @ t=1.04
3.651367776471865