% Model:              1 neuron.mph
% Version:            COMSOL 6.1.0.252
% Date:               Mar 22 2023, 18:08
% Dimension:          0
% Nodes:              14017
% Expressions:        14017
% Description:        Electric field norm, Electric field, X component, Electric field, Y component, Electric field, Z component, Tangential electric field, X component, Tangential electric field, Y component, Tangential electric field, Z component, Electric field, x component, Electric field, y component, Electric field, z component, Tangential electric field, x component, Tangential electric field, y component, Tangential electric field, z component, Electric potential
% Length unit:        mm
% x
2
% y
12.2
% z
1
% es.normE (V/m) @ t=0
1.4083808226257495
% es.EX (V/m) @ t=0
-0.909513698851327
% es.EY (V/m) @ t=0
0.20207267252594163
% es.EZ (V/m) @ t=0
1.0372641585308386
% es.tEX (V/m) @ t=0
-0.9095136988513239
% es.tEY (V/m) @ t=0
0
% es.tEZ (V/m) @ t=0
1.037264158530843
% es.Ex (V/m) @ t=0
-0.909513698851327
% es.Ey (V/m) @ t=0
0.20207267252594163
% es.Ez (V/m) @ t=0
1.0372641585308386
% es.tEx (V/m) @ t=0
-0.9095136988513239
% es.tEy (V/m) @ t=0
0
% es.tEz (V/m) @ t=0
1.037264158530843
% V (V) @ t=0
0.013630348429352521
% es.normE (V/m) @ t=0.02
1.2164337069150637
% es.EX (V/m) @ t=0.02
-0.785556791414443
% es.EY (V/m) @ t=0.02
0.1745323472044611
% es.EZ (V/m) @ t=0.02
0.8958962412417764
% es.tEX (V/m) @ t=0.02
-0.7855567914144439
% es.tEY (V/m) @ t=0.02
0
% es.tEZ (V/m) @ t=0.02
0.8958962412417879
% es.Ex (V/m) @ t=0.02
-0.785556791414443
% es.Ey (V/m) @ t=0.02
0.1745323472044611
% es.Ez (V/m) @ t=0.02
0.8958962412417764
% es.tEx (V/m) @ t=0.02
-0.7855567914144439
% es.tEy (V/m) @ t=0.02
0
% es.tEz (V/m) @ t=0.02
0.8958962412417879
% V (V) @ t=0.02
0.01177267891918184
% es.normE (V/m) @ t=0.04
1.2276249163594963
% es.EX (V/m) @ t=0.04
-0.7927839262829157
% es.EY (V/m) @ t=0.04
0.17613804846809034
% es.EZ (V/m) @ t=0.04
0.9041385006405429
% es.tEX (V/m) @ t=0.04
-0.792783926282913
% es.tEY (V/m) @ t=0.04
0
% es.tEZ (V/m) @ t=0.04
0.904138500640558
% es.Ex (V/m) @ t=0.04
-0.7927839262829157
% es.Ey (V/m) @ t=0.04
0.17613804846809034
% es.Ez (V/m) @ t=0.04
0.9041385006405429
% es.tEx (V/m) @ t=0.04
-0.792783926282913
% es.tEy (V/m) @ t=0.04
0
% es.tEz (V/m) @ t=0.04
0.904138500640558
% V (V) @ t=0.04
0.011880987687036871
% es.normE (V/m) @ t=0.06
1.238897147013276
% es.EX (V/m) @ t=0.06
-0.8000633836196962
% es.EY (V/m) @ t=0.06
0.17775537416188236
% es.EZ (V/m) @ t=0.06
0.9124404317981503
% es.tEX (V/m) @ t=0.06
-0.8000633836196935
% es.tEY (V/m) @ t=0.06
0
% es.tEZ (V/m) @ t=0.06
0.9124404317981618
% es.Ex (V/m) @ t=0.06
-0.8000633836196962
% es.Ey (V/m) @ t=0.06
0.17775537416188236
% es.Ez (V/m) @ t=0.06
0.9124404317981503
% es.tEx (V/m) @ t=0.06
-0.8000633836196935
% es.tEy (V/m) @ t=0.06
0
% es.tEz (V/m) @ t=0.06
0.9124404317981618
% V (V) @ t=0.06
0.011990080609122804
% es.normE (V/m) @ t=0.08
1.2503866408926387
% es.EX (V/m) @ t=0.08
-0.8074831467682344
% es.EY (V/m) @ t=0.08
0.17940387168551986
% es.EZ (V/m) @ t=0.08
0.9209023762791162
% es.tEX (V/m) @ t=0.08
-0.8074831467682313
% es.tEY (V/m) @ t=0.08
0
% es.tEZ (V/m) @ t=0.08
0.9209023762791375
% es.Ex (V/m) @ t=0.08
-0.8074831467682344
% es.Ey (V/m) @ t=0.08
0.17940387168551986
% es.Ez (V/m) @ t=0.08
0.9209023762791162
% es.tEx (V/m) @ t=0.08
-0.8074831467682313
% es.tEy (V/m) @ t=0.08
0
% es.tEz (V/m) @ t=0.08
0.9209023762791375
% V (V) @ t=0.08
0.012101276270206986
% es.normE (V/m) @ t=0.1
1.2619329624815627
% es.EX (V/m) @ t=0.1
-0.8149396085246439
% es.EY (V/m) @ t=0.1
0.18106052256179384
% es.EZ (V/m) @ t=0.1
0.9294061740955506
% es.tEX (V/m) @ t=0.1
-0.8149396085246408
% es.tEY (V/m) @ t=0.1
0
% es.tEZ (V/m) @ t=0.1
0.9294061740955692
% es.Ex (V/m) @ t=0.1
-0.8149396085246439
% es.Ey (V/m) @ t=0.1
0.18106052256179384
% es.Ez (V/m) @ t=0.1
0.9294061740955506
% es.tEx (V/m) @ t=0.1
-0.8149396085246408
% es.tEy (V/m) @ t=0.1
0
% es.tEz (V/m) @ t=0.1
0.9294061740955692
% V (V) @ t=0.1
0.012213021926996599
% es.normE (V/m) @ t=0.12
1.2734792840704636
% es.EX (V/m) @ t=0.12
-0.8223960702810391
% es.EY (V/m) @ t=0.12
0.1827171734380697
% es.EZ (V/m) @ t=0.12
0.9379099719119646
% es.tEX (V/m) @ t=0.12
-0.822396070281036
% es.tEY (V/m) @ t=0.12
0
% es.tEZ (V/m) @ t=0.12
0.9379099719119655
% es.Ex (V/m) @ t=0.12
-0.8223960702810391
% es.Ey (V/m) @ t=0.12
0.1827171734380697
% es.Ez (V/m) @ t=0.12
0.9379099719119646
% es.tEx (V/m) @ t=0.12
-0.822396070281036
% es.tEy (V/m) @ t=0.12
0
% es.tEz (V/m) @ t=0.12
0.9379099719119655
% V (V) @ t=0.12
0.012324767583786214
% es.normE (V/m) @ t=0.14
1.2853675112782867
% es.EX (V/m) @ t=0.14
-0.83007332952331
% es.EY (V/m) @ t=0.14
0.18442288621464287
% es.EZ (V/m) @ t=0.14
0.9466655794819312
% es.tEX (V/m) @ t=0.14
-0.8300733295233069
% es.tEY (V/m) @ t=0.14
0
% es.tEZ (V/m) @ t=0.14
0.946665579481957
% es.Ex (V/m) @ t=0.14
-0.83007332952331
% es.Ey (V/m) @ t=0.14
0.18442288621464287
% es.Ez (V/m) @ t=0.14
0.9466655794819312
% es.tEx (V/m) @ t=0.14
-0.8300733295233069
% es.tEy (V/m) @ t=0.14
0
% es.tEz (V/m) @ t=0.14
0.946665579481957
% V (V) @ t=0.14
0.012439821789976976
% es.normE (V/m) @ t=0.16
1.297491777455336
% es.EX (V/m) @ t=0.16
-0.837903019167678
% es.EY (V/m) @ t=0.16
0.18616246950905435
% es.EZ (V/m) @ t=0.16
0.9555950271743905
% es.tEX (V/m) @ t=0.16
-0.8379030191676748
% es.tEY (V/m) @ t=0.16
0
% es.tEZ (V/m) @ t=0.16
0.9555950271744127
% es.Ex (V/m) @ t=0.16
-0.837903019167678
% es.Ey (V/m) @ t=0.16
0.18616246950905435
% es.Ez (V/m) @ t=0.16
0.9555950271743905
% es.tEx (V/m) @ t=0.16
-0.8379030191676748
% es.tEy (V/m) @ t=0.16
0
% es.tEz (V/m) @ t=0.16
0.9555950271744127
% V (V) @ t=0.16
0.012557160096068705
% es.normE (V/m) @ t=0.18
1.309616043632386
% es.EX (V/m) @ t=0.18
-0.845732708812049
% es.EY (V/m) @ t=0.18
0.18790205280346572
% es.EZ (V/m) @ t=0.18
0.9645244748668436
% es.tEX (V/m) @ t=0.18
-0.8457327088120499
% es.tEY (V/m) @ t=0.18
0
% es.tEZ (V/m) @ t=0.18
0.964524474866848
% es.Ex (V/m) @ t=0.18
-0.845732708812049
% es.Ey (V/m) @ t=0.18
0.18790205280346572
% es.Ez (V/m) @ t=0.18
0.9645244748668436
% es.tEx (V/m) @ t=0.18
-0.8457327088120499
% es.tEy (V/m) @ t=0.18
0
% es.tEz (V/m) @ t=0.18
0.964524474866848
% V (V) @ t=0.18
0.01267449840216043
% es.normE (V/m) @ t=0.2
1.3217403098094405
% es.EX (V/m) @ t=0.2
-0.8535623984564134
% es.EY (V/m) @ t=0.2
0.18964163609788964
% es.EZ (V/m) @ t=0.2
0.97345392255931
% es.tEX (V/m) @ t=0.2
-0.8535623984564102
% es.tEY (V/m) @ t=0.2
0
% es.tEZ (V/m) @ t=0.2
0.9734539225593251
% es.Ex (V/m) @ t=0.2
-0.8535623984564134
% es.Ey (V/m) @ t=0.2
0.18964163609788964
% es.Ez (V/m) @ t=0.2
0.97345392255931
% es.tEx (V/m) @ t=0.2
-0.8535623984564102
% es.tEy (V/m) @ t=0.2
0
% es.tEz (V/m) @ t=0.2
0.9734539225593251
% V (V) @ t=0.2
0.01279183670825216
% es.normE (V/m) @ t=0.22
1.3338645759864844
% es.EX (V/m) @ t=0.22
-0.8613920881007782
% es.EY (V/m) @ t=0.22
0.19138121939231534
% es.EZ (V/m) @ t=0.22
0.9823833702517577
% es.tEX (V/m) @ t=0.22
-0.8613920881007755
% es.tEY (V/m) @ t=0.22
0
% es.tEZ (V/m) @ t=0.22
0.9823833702517657
% es.Ex (V/m) @ t=0.22
-0.8613920881007782
% es.Ey (V/m) @ t=0.22
0.19138121939231534
% es.Ez (V/m) @ t=0.22
0.9823833702517577
% es.tEx (V/m) @ t=0.22
-0.8613920881007755
% es.tEy (V/m) @ t=0.22
0
% es.tEz (V/m) @ t=0.22
0.9823833702517657
% V (V) @ t=0.22
0.01290917501434388
% es.normE (V/m) @ t=0.24
1.345988842163522
% es.EX (V/m) @ t=0.24
-0.8692217777451492
% es.EY (V/m) @ t=0.24
0.19312080268673026
% es.EZ (V/m) @ t=0.24
0.9913128179441939
% es.tEX (V/m) @ t=0.24
-0.8692217777451465
% es.tEY (V/m) @ t=0.24
0
% es.tEZ (V/m) @ t=0.24
0.9913128179442152
% es.Ex (V/m) @ t=0.24
-0.8692217777451492
% es.Ey (V/m) @ t=0.24
0.19312080268673026
% es.Ez (V/m) @ t=0.24
0.9913128179441939
% es.tEx (V/m) @ t=0.24
-0.8692217777451465
% es.tEy (V/m) @ t=0.24
0
% es.tEz (V/m) @ t=0.24
0.9913128179442152
% V (V) @ t=0.24
0.013026513320435609
% es.normE (V/m) @ t=0.26
1.3583574856741019
% es.EX (V/m) @ t=0.26
-0.8772092815594701
% es.EY (V/m) @ t=0.26
0.1948954622694803
% es.EZ (V/m) @ t=0.26
1.0004222440876367
% es.tEX (V/m) @ t=0.26
-0.8772092815594665
% es.tEY (V/m) @ t=0.26
0
% es.tEZ (V/m) @ t=0.26
1.0004222440876447
% es.Ex (V/m) @ t=0.26
-0.8772092815594701
% es.Ey (V/m) @ t=0.26
0.1948954622694803
% es.Ez (V/m) @ t=0.26
1.0004222440876367
% es.tEx (V/m) @ t=0.26
-0.8772092815594665
% es.tEy (V/m) @ t=0.26
0
% es.tEz (V/m) @ t=0.26
1.0004222440876447
% V (V) @ t=0.26
0.01314621573109601
% es.normE (V/m) @ t=0.28
1.371771818796308
% es.EX (V/m) @ t=0.28
-0.8858720715621979
% es.EY (V/m) @ t=0.28
0.19682021314667442
% es.EZ (V/m) @ t=0.28
1.010301797287414
% es.tEX (V/m) @ t=0.28
-0.8858720715621948
% es.tEY (V/m) @ t=0.28
0
% es.tEZ (V/m) @ t=0.28
1.010301797287414
% es.Ex (V/m) @ t=0.28
-0.8858720715621979
% es.Ey (V/m) @ t=0.28
0.19682021314667442
% es.Ez (V/m) @ t=0.28
1.010301797287414
% es.tEx (V/m) @ t=0.28
-0.8858720715621948
% es.tEy (V/m) @ t=0.28
0
% es.tEz (V/m) @ t=0.28
1.010301797287414
% V (V) @ t=0.28
0.01327603413554599
% es.normE (V/m) @ t=0.3
1.3851861519185225
% es.EX (V/m) @ t=0.3
-0.8945348615649271
% es.EY (V/m) @ t=0.3
0.19874496402386688
% es.EZ (V/m) @ t=0.3
1.0201813504871904
% es.tEX (V/m) @ t=0.3
-0.8945348615649236
% es.tEY (V/m) @ t=0.3
0
% es.tEZ (V/m) @ t=0.3
1.0201813504871913
% es.Ex (V/m) @ t=0.3
-0.8945348615649271
% es.Ey (V/m) @ t=0.3
0.19874496402386688
% es.Ez (V/m) @ t=0.3
1.0201813504871904
% es.tEx (V/m) @ t=0.3
-0.8945348615649236
% es.tEy (V/m) @ t=0.3
0
% es.tEz (V/m) @ t=0.3
1.0201813504871913
% V (V) @ t=0.3
0.013405852539995967
% es.normE (V/m) @ t=0.32
1.3986004850407463
% es.EX (V/m) @ t=0.32
-0.9031976515676625
% es.EY (V/m) @ t=0.32
0.20066971490104513
% es.EZ (V/m) @ t=0.32
1.0300609036869668
% es.tEX (V/m) @ t=0.32
-0.903197651567663
% es.tEY (V/m) @ t=0.32
0
% es.tEZ (V/m) @ t=0.32
1.0300609036869748
% es.Ex (V/m) @ t=0.32
-0.9031976515676625
% es.Ey (V/m) @ t=0.32
0.20066971490104513
% es.Ez (V/m) @ t=0.32
1.0300609036869668
% es.tEx (V/m) @ t=0.32
-0.903197651567663
% es.tEy (V/m) @ t=0.32
0
% es.tEz (V/m) @ t=0.32
1.0300609036869748
% V (V) @ t=0.32
0.013535670944445945
% es.normE (V/m) @ t=0.34
1.4120148181629744
% es.EX (V/m) @ t=0.34
-0.9118604415703873
% es.EY (V/m) @ t=0.34
0.20259446577823392
% es.EZ (V/m) @ t=0.34
1.0399404568867405
% es.tEX (V/m) @ t=0.34
-0.9118604415703842
% es.tEY (V/m) @ t=0.34
0
% es.tEZ (V/m) @ t=0.34
1.039940456886745
% es.Ex (V/m) @ t=0.34
-0.9118604415703873
% es.Ey (V/m) @ t=0.34
0.20259446577823392
% es.Ez (V/m) @ t=0.34
1.0399404568867405
% es.tEx (V/m) @ t=0.34
-0.9118604415703842
% es.tEy (V/m) @ t=0.34
0
% es.tEz (V/m) @ t=0.34
1.039940456886745
% V (V) @ t=0.34
0.013665489348895922
% es.normE (V/m) @ t=0.36
1.4254291512852162
% es.EX (V/m) @ t=0.36
-0.9205232315731262
% es.EY (V/m) @ t=0.36
0.2045192166554477
% es.EZ (V/m) @ t=0.36
1.0498200100865027
% es.tEX (V/m) @ t=0.36
-0.9205232315731231
% es.tEY (V/m) @ t=0.36
0
% es.tEZ (V/m) @ t=0.36
1.0498200100865214
% es.Ex (V/m) @ t=0.36
-0.9205232315731262
% es.Ey (V/m) @ t=0.36
0.2045192166554477
% es.Ez (V/m) @ t=0.36
1.0498200100865027
% es.tEx (V/m) @ t=0.36
-0.9205232315731231
% es.tEy (V/m) @ t=0.36
0
% es.tEz (V/m) @ t=0.36
1.0498200100865214
% V (V) @ t=0.36
0.013795307753345904
% es.normE (V/m) @ t=0.38
1.4388434844074554
% es.EX (V/m) @ t=0.38
-0.9291860215758403
% es.EY (V/m) @ t=0.38
0.20644396753263117
% es.EZ (V/m) @ t=0.38
1.05969956328628
% es.tEX (V/m) @ t=0.38
-0.9291860215758372
% es.tEY (V/m) @ t=0.38
0
% es.tEZ (V/m) @ t=0.38
1.0596995632862907
% es.Ex (V/m) @ t=0.38
-0.9291860215758403
% es.Ey (V/m) @ t=0.38
0.20644396753263117
% es.Ez (V/m) @ t=0.38
1.05969956328628
% es.tEx (V/m) @ t=0.38
-0.9291860215758372
% es.tEy (V/m) @ t=0.38
0
% es.tEz (V/m) @ t=0.38
1.0596995632862907
% V (V) @ t=0.38
0.013925126157795885
% es.normE (V/m) @ t=0.4
1.452257817529713
% es.EX (V/m) @ t=0.4
-0.9378488115785792
% es.EY (V/m) @ t=0.4
0.2083687184098183
% es.EZ (V/m) @ t=0.4
1.0695791164860458
% es.tEX (V/m) @ t=0.4
-0.9378488115785766
% es.tEY (V/m) @ t=0.4
0
% es.tEZ (V/m) @ t=0.4
1.069579116486068
% es.Ex (V/m) @ t=0.4
-0.9378488115785792
% es.Ey (V/m) @ t=0.4
0.2083687184098183
% es.Ez (V/m) @ t=0.4
1.0695791164860458
% es.tEx (V/m) @ t=0.4
-0.9378488115785766
% es.tEy (V/m) @ t=0.4
0
% es.tEz (V/m) @ t=0.4
1.069579116486068
% V (V) @ t=0.4
0.014054944562245862
% es.normE (V/m) @ t=0.42
1.4656721506519834
% es.EX (V/m) @ t=0.42
-0.9465116015813044
% es.EY (V/m) @ t=0.42
0.21029346928700365
% es.EZ (V/m) @ t=0.42
1.0794586696858364
% es.tEX (V/m) @ t=0.42
-0.9465116015813013
% es.tEY (V/m) @ t=0.42
0
% es.tEZ (V/m) @ t=0.42
1.0794586696858586
% es.Ex (V/m) @ t=0.42
-0.9465116015813044
% es.Ey (V/m) @ t=0.42
0.21029346928700365
% es.Ez (V/m) @ t=0.42
1.0794586696858364
% es.tEx (V/m) @ t=0.42
-0.9465116015813013
% es.tEy (V/m) @ t=0.42
0
% es.tEz (V/m) @ t=0.42
1.0794586696858586
% V (V) @ t=0.42
0.01418476296669584
% es.normE (V/m) @ t=0.44
1.4790864837742634
% es.EX (V/m) @ t=0.44
-0.9551743915840367
% es.EY (V/m) @ t=0.44
0.21221822016420666
% es.EZ (V/m) @ t=0.44
1.0893382228856137
% es.tEX (V/m) @ t=0.44
-0.9551743915840372
% es.tEY (V/m) @ t=0.44
0
% es.tEZ (V/m) @ t=0.44
1.0893382228856359
% es.Ex (V/m) @ t=0.44
-0.9551743915840367
% es.Ey (V/m) @ t=0.44
0.21221822016420666
% es.Ez (V/m) @ t=0.44
1.0893382228856137
% es.tEx (V/m) @ t=0.44
-0.9551743915840372
% es.tEy (V/m) @ t=0.44
0
% es.tEz (V/m) @ t=0.44
1.0893382228856359
% V (V) @ t=0.44
0.01431458137114582
% es.normE (V/m) @ t=0.46
1.4925008168965428
% es.EX (V/m) @ t=0.46
-0.963837181586765
% es.EY (V/m) @ t=0.46
0.21414297104139557
% es.EZ (V/m) @ t=0.46
1.0992177760853865
% es.tEX (V/m) @ t=0.46
-0.9638371815867655
% es.tEY (V/m) @ t=0.46
0
% es.tEZ (V/m) @ t=0.46
1.0992177760854123
% es.Ex (V/m) @ t=0.46
-0.963837181586765
% es.Ey (V/m) @ t=0.46
0.21414297104139557
% es.Ez (V/m) @ t=0.46
1.0992177760853865
% es.tEx (V/m) @ t=0.46
-0.9638371815867655
% es.tEy (V/m) @ t=0.46
0
% es.tEz (V/m) @ t=0.46
1.0992177760854123
% V (V) @ t=0.46
0.014444399775595801
% es.normE (V/m) @ t=0.48
1.5059151500188301
% es.EX (V/m) @ t=0.48
-0.9724999715895009
% es.EY (V/m) @ t=0.48
0.21606772191859858
% es.EZ (V/m) @ t=0.48
1.1090973292851531
% es.tEX (V/m) @ t=0.48
-0.9724999715895009
% es.tEY (V/m) @ t=0.48
0
% es.tEZ (V/m) @ t=0.48
1.1090973292851753
% es.Ex (V/m) @ t=0.48
-0.9724999715895009
% es.Ey (V/m) @ t=0.48
0.21606772191859858
% es.Ez (V/m) @ t=0.48
1.1090973292851531
% es.tEx (V/m) @ t=0.48
-0.9724999715895009
% es.tEy (V/m) @ t=0.48
0
% es.tEz (V/m) @ t=0.48
1.1090973292851753
% V (V) @ t=0.48
0.014574218180045779
% es.normE (V/m) @ t=0.5
1.5193294831411324
% es.EX (V/m) @ t=0.5
-0.9811627615922256
% es.EY (V/m) @ t=0.5
0.21799247279579104
% es.EZ (V/m) @ t=0.5
1.1189768824849402
% es.tEX (V/m) @ t=0.5
-0.9811627615922256
% es.tEY (V/m) @ t=0.5
0
% es.tEZ (V/m) @ t=0.5
1.1189768824849518
% es.Ex (V/m) @ t=0.5
-0.9811627615922256
% es.Ey (V/m) @ t=0.5
0.21799247279579104
% es.Ez (V/m) @ t=0.5
1.1189768824849402
% es.tEx (V/m) @ t=0.5
-0.9811627615922256
% es.tEy (V/m) @ t=0.5
0
% es.tEz (V/m) @ t=0.5
1.1189768824849518
% V (V) @ t=0.5
0.01470403658449576
% es.normE (V/m) @ t=0.52
1.533302659363187
% es.EX (V/m) @ t=0.52
-0.9901864497869366
% es.EY (V/m) @ t=0.52
0.2199973633741531
% es.EZ (V/m) @ t=0.52
1.129268033058148
% es.tEX (V/m) @ t=0.52
-0.9901864497869335
% es.tEY (V/m) @ t=0.52
0
% es.tEZ (V/m) @ t=0.52
1.129268033058163
% es.Ex (V/m) @ t=0.52
-0.9901864497869366
% es.Ey (V/m) @ t=0.52
0.2199973633741531
% es.Ez (V/m) @ t=0.52
1.129268033058148
% es.tEx (V/m) @ t=0.52
-0.9901864497869335
% es.tEy (V/m) @ t=0.52
0
% es.tEz (V/m) @ t=0.52
1.129268033058163
% V (V) @ t=0.52
0.014839266620267681
% es.normE (V/m) @ t=0.54
1.548168110732261
% es.EX (V/m) @ t=0.54
-0.999786364989629
% es.EY (V/m) @ t=0.54
0.22213020876429757
% es.EZ (V/m) @ t=0.54
1.1402163593342713
% es.tEX (V/m) @ t=0.54
-0.9997863649896255
% es.tEY (V/m) @ t=0.54
0
% es.tEZ (V/m) @ t=0.54
1.1402163593342864
% es.Ex (V/m) @ t=0.54
-0.999786364989629
% es.Ey (V/m) @ t=0.54
0.22213020876429757
% es.Ez (V/m) @ t=0.54
1.1402163593342713
% es.tEx (V/m) @ t=0.54
-0.9997863649896255
% es.tEy (V/m) @ t=0.54
0
% es.tEz (V/m) @ t=0.54
1.1402163593342864
% V (V) @ t=0.54
0.014983137120841874
% es.normE (V/m) @ t=0.56
1.5630335621013305
% es.EX (V/m) @ t=0.56
-1.009386280192317
% es.EY (V/m) @ t=0.56
0.22426305415444192
% es.EZ (V/m) @ t=0.56
1.1511646856103894
% es.tEX (V/m) @ t=0.56
-1.0093862801923135
% es.tEY (V/m) @ t=0.56
0
% es.tEZ (V/m) @ t=0.56
1.1511646856104045
% es.Ex (V/m) @ t=0.56
-1.009386280192317
% es.Ey (V/m) @ t=0.56
0.22426305415444192
% es.Ez (V/m) @ t=0.56
1.1511646856103894
% es.tEx (V/m) @ t=0.56
-1.0093862801923135
% es.tEy (V/m) @ t=0.56
0
% es.tEz (V/m) @ t=0.56
1.1511646856104045
% V (V) @ t=0.56
0.015127007621416068
% es.normE (V/m) @ t=0.58
1.5778990134704147
% es.EX (V/m) @ t=0.58
-1.0189861953950166
% es.EY (V/m) @ t=0.58
0.22639589954460582
% es.EZ (V/m) @ t=0.58
1.1621130118865093
% es.tEX (V/m) @ t=0.58
-1.018986195395013
% es.tEY (V/m) @ t=0.58
0
% es.tEZ (V/m) @ t=0.58
1.1621130118865137
% es.Ex (V/m) @ t=0.58
-1.0189861953950166
% es.Ey (V/m) @ t=0.58
0.22639589954460582
% es.Ez (V/m) @ t=0.58
1.1621130118865093
% es.tEx (V/m) @ t=0.58
-1.018986195395013
% es.tEy (V/m) @ t=0.58
0
% es.tEz (V/m) @ t=0.58
1.1621130118865137
% V (V) @ t=0.58
0.01527087812199026
% es.normE (V/m) @ t=0.6
1.5927644648395032
% es.EX (V/m) @ t=0.6
-1.0285861105977125
% es.EY (V/m) @ t=0.6
0.2285287449347574
% es.EZ (V/m) @ t=0.6
1.1730613381626371
% es.tEX (V/m) @ t=0.6
-1.0285861105977125
% es.tEY (V/m) @ t=0.6
0
% es.tEZ (V/m) @ t=0.6
1.1730613381626451
% es.Ex (V/m) @ t=0.6
-1.0285861105977125
% es.Ey (V/m) @ t=0.6
0.2285287449347574
% es.Ez (V/m) @ t=0.6
1.1730613381626371
% es.tEx (V/m) @ t=0.6
-1.0285861105977125
% es.tEy (V/m) @ t=0.6
0
% es.tEz (V/m) @ t=0.6
1.1730613381626451
% V (V) @ t=0.6
0.015414748622564454
% es.normE (V/m) @ t=0.62
1.6076299162085703
% es.EX (V/m) @ t=0.62
-1.0381860258004014
% es.EY (V/m) @ t=0.62
0.2306615903249124
% es.EZ (V/m) @ t=0.62
1.1840096644387401
% es.tEX (V/m) @ t=0.62
-1.0381860258003979
% es.tEY (V/m) @ t=0.62
0
% es.tEZ (V/m) @ t=0.62
1.1840096644387552
% es.Ex (V/m) @ t=0.62
-1.0381860258004014
% es.Ey (V/m) @ t=0.62
0.2306615903249124
% es.Ez (V/m) @ t=0.62
1.1840096644387401
% es.tEx (V/m) @ t=0.62
-1.0381860258003979
% es.tEy (V/m) @ t=0.62
0
% es.tEz (V/m) @ t=0.62
1.1840096644387552
% V (V) @ t=0.62
0.015558619123138648
% es.normE (V/m) @ t=0.64
1.6224953675776592
% es.EX (V/m) @ t=0.64
-1.0477859410030996
% es.EY (V/m) @ t=0.64
0.23279443571504965
% es.EZ (V/m) @ t=0.64
1.1949579907148653
% es.tEX (V/m) @ t=0.64
-1.047785941003096
% es.tEY (V/m) @ t=0.64
0
% es.tEZ (V/m) @ t=0.64
1.1949579907148662
% es.Ex (V/m) @ t=0.64
-1.0477859410030996
% es.Ey (V/m) @ t=0.64
0.23279443571504965
% es.Ez (V/m) @ t=0.64
1.1949579907148653
% es.tEx (V/m) @ t=0.64
-1.047785941003096
% es.tEy (V/m) @ t=0.64
0
% es.tEz (V/m) @ t=0.64
1.1949579907148662
% V (V) @ t=0.64
0.015702489623712842
% es.normE (V/m) @ t=0.66
1.6373608189467408
% es.EX (V/m) @ t=0.66
-1.057385856205781
% es.EY (V/m) @ t=0.66
0.23492728110520833
% es.EZ (V/m) @ t=0.66
1.2059063169909887
% es.tEX (V/m) @ t=0.66
-1.0573858562057774
% es.tEY (V/m) @ t=0.66
0
% es.tEZ (V/m) @ t=0.66
1.2059063169909896
% es.Ex (V/m) @ t=0.66
-1.057385856205781
% es.Ey (V/m) @ t=0.66
0.23492728110520833
% es.Ez (V/m) @ t=0.66
1.2059063169909887
% es.tEx (V/m) @ t=0.66
-1.0573858562057774
% es.tEy (V/m) @ t=0.66
0
% es.tEz (V/m) @ t=0.66
1.2059063169909896
% V (V) @ t=0.66
0.015846360124287036
% es.normE (V/m) @ t=0.68
1.6522262703158206
% es.EX (V/m) @ t=0.68
-1.0669857714084845
% es.EY (V/m) @ t=0.68
0.23706012649537223
% es.EZ (V/m) @ t=0.68
1.2168546432670837
% es.tEX (V/m) @ t=0.68
-1.0669857714084845
% es.tEY (V/m) @ t=0.68
0
% es.tEZ (V/m) @ t=0.68
1.2168546432670917
% es.Ex (V/m) @ t=0.68
-1.0669857714084845
% es.Ey (V/m) @ t=0.68
0.23706012649537223
% es.Ez (V/m) @ t=0.68
1.2168546432670837
% es.tEx (V/m) @ t=0.68
-1.0669857714084845
% es.tEy (V/m) @ t=0.68
0
% es.tEz (V/m) @ t=0.68
1.2168546432670917
% V (V) @ t=0.68
0.015990230624861226
% es.normE (V/m) @ t=0.7
1.6670917216849181
% es.EX (V/m) @ t=0.7
-1.0765856866111725
% es.EY (V/m) @ t=0.7
0.23919297188551658
% es.EZ (V/m) @ t=0.7
1.227802969543223
% es.tEX (V/m) @ t=0.7
-1.0765856866111654
% es.tEY (V/m) @ t=0.7
0
% es.tEZ (V/m) @ t=0.7
1.2278029695432444
% es.Ex (V/m) @ t=0.7
-1.0765856866111725
% es.Ey (V/m) @ t=0.7
0.23919297188551658
% es.Ez (V/m) @ t=0.7
1.227802969543223
% es.tEx (V/m) @ t=0.7
-1.0765856866111654
% es.tEy (V/m) @ t=0.7
0
% es.tEz (V/m) @ t=0.7
1.2278029695432444
% V (V) @ t=0.7
0.01613410112543542
% es.normE (V/m) @ t=0.72
1.6819571730540095
% es.EX (V/m) @ t=0.72
-1.0861856018138725
% es.EY (V/m) @ t=0.72
0.2413258172756646
% es.EZ (V/m) @ t=0.72
1.2387512958193359
% es.tEX (V/m) @ t=0.72
-1.086185601813872
% es.tEY (V/m) @ t=0.72
0
% es.tEZ (V/m) @ t=0.72
1.2387512958193394
% es.Ex (V/m) @ t=0.72
-1.0861856018138725
% es.Ey (V/m) @ t=0.72
0.2413258172756646
% es.Ez (V/m) @ t=0.72
1.2387512958193359
% es.tEx (V/m) @ t=0.72
-1.086185601813872
% es.tEy (V/m) @ t=0.72
0
% es.tEz (V/m) @ t=0.72
1.2387512958193394
% V (V) @ t=0.72
0.016277971626009614
% es.normE (V/m) @ t=0.74
1.6968226244231197
% es.EX (V/m) @ t=0.74
-1.0957855170165645
% es.EY (V/m) @ t=0.74
0.2434586626658285
% es.EZ (V/m) @ t=0.74
1.2496996220954735
% es.tEX (V/m) @ t=0.74
-1.0957855170165605
% es.tEY (V/m) @ t=0.74
0
% es.tEZ (V/m) @ t=0.74
1.2496996220954717
% es.Ex (V/m) @ t=0.74
-1.0957855170165645
% es.Ey (V/m) @ t=0.74
0.2434586626658285
% es.Ez (V/m) @ t=0.74
1.2496996220954735
% es.tEx (V/m) @ t=0.74
-1.0957855170165605
% es.tEy (V/m) @ t=0.74
0
% es.tEz (V/m) @ t=0.74
1.2496996220954717
% V (V) @ t=0.74
0.01642184212658381
% es.normE (V/m) @ t=0.76
1.7116880757921922
% es.EX (V/m) @ t=0.76
-1.1053854322192596
% es.EY (V/m) @ t=0.76
0.24559150805596752
% es.EZ (V/m) @ t=0.76
1.2606479483715667
% es.tEX (V/m) @ t=0.76
-1.1053854322192556
% es.tEY (V/m) @ t=0.76
0
% es.tEZ (V/m) @ t=0.76
1.2606479483715898
% es.Ex (V/m) @ t=0.76
-1.1053854322192596
% es.Ey (V/m) @ t=0.76
0.24559150805596752
% es.Ez (V/m) @ t=0.76
1.2606479483715667
% es.tEx (V/m) @ t=0.76
-1.1053854322192556
% es.tEy (V/m) @ t=0.76
0
% es.tEz (V/m) @ t=0.76
1.2606479483715898
% V (V) @ t=0.76
0.016565712627158002
% es.normE (V/m) @ t=0.78
1.7275025357075107
% es.EX (V/m) @ t=0.78
-1.1155981987289887
% es.EY (V/m) @ t=0.78
0.24786056840689896
% es.EZ (V/m) @ t=0.78
1.2722951981145645
% es.tEX (V/m) @ t=0.78
-1.1155981987289882
% es.tEY (V/m) @ t=0.78
0
% es.tEZ (V/m) @ t=0.78
1.2722951981145698
% es.Ex (V/m) @ t=0.78
-1.1155981987289887
% es.Ey (V/m) @ t=0.78
0.24786056840689896
% es.Ez (V/m) @ t=0.78
1.2722951981145645
% es.tEx (V/m) @ t=0.78
-1.1155981987289882
% es.tEy (V/m) @ t=0.78
0
% es.tEz (V/m) @ t=0.78
1.2722951981145698
% V (V) @ t=0.78
0.016718763784688794
% es.normE (V/m) @ t=0.8
1.7440019715428163
% es.EX (V/m) @ t=0.8
-1.1262533093983667
% es.EY (V/m) @ t=0.8
0.2502279460685367
% es.EZ (V/m) @ t=0.8
1.2844469172288946
% es.tEX (V/m) @ t=0.8
-1.1262533093983627
% es.tEY (V/m) @ t=0.8
0
% es.tEZ (V/m) @ t=0.8
1.2844469172289017
% es.Ex (V/m) @ t=0.8
-1.1262533093983667
% es.Ey (V/m) @ t=0.8
0.2502279460685367
% es.Ez (V/m) @ t=0.8
1.2844469172288946
% es.tEx (V/m) @ t=0.8
-1.1262533093983627
% es.tEy (V/m) @ t=0.8
0
% es.tEz (V/m) @ t=0.8
1.2844469172289017
% V (V) @ t=0.8
0.016878441361939583
% es.normE (V/m) @ t=0.82
1.7605014073781429
% es.EX (V/m) @ t=0.82
-1.1369084200677424
% es.EY (V/m) @ t=0.82
0.252595323730176
% es.EZ (V/m) @ t=0.82
1.2965986363432425
% es.tEX (V/m) @ t=0.82
-1.1369084200677384
% es.tEY (V/m) @ t=0.82
0
% es.tEZ (V/m) @ t=0.82
1.2965986363432513
% es.Ex (V/m) @ t=0.82
-1.1369084200677424
% es.Ey (V/m) @ t=0.82
0.252595323730176
% es.Ez (V/m) @ t=0.82
1.2965986363432425
% es.tEx (V/m) @ t=0.82
-1.1369084200677384
% es.tEy (V/m) @ t=0.82
0
% es.tEz (V/m) @ t=0.82
1.2965986363432513
% V (V) @ t=0.82
0.017038118939190376
% es.normE (V/m) @ t=0.84
1.7770008432134579
% es.EX (V/m) @ t=0.84
-1.1475635307371124
% es.EY (V/m) @ t=0.84
0.2549627013917939
% es.EZ (V/m) @ t=0.84
1.3087503554575832
% es.tEX (V/m) @ t=0.84
-1.1475635307371084
% es.tEY (V/m) @ t=0.84
0
% es.tEZ (V/m) @ t=0.84
1.308750355457585
% es.Ex (V/m) @ t=0.84
-1.1475635307371124
% es.Ey (V/m) @ t=0.84
0.2549627013917939
% es.Ez (V/m) @ t=0.84
1.3087503554575832
% es.tEx (V/m) @ t=0.84
-1.1475635307371084
% es.tEy (V/m) @ t=0.84
0
% es.tEz (V/m) @ t=0.84
1.308750355457585
% V (V) @ t=0.84
0.017197796516441162
% es.normE (V/m) @ t=0.86
1.7935002790487644
% es.EX (V/m) @ t=0.86
-1.1582186414064757
% es.EY (V/m) @ t=0.86
0.25733007905343697
% es.EZ (V/m) @ t=0.86
1.3209020745719098
% es.tEX (V/m) @ t=0.86
-1.1582186414064788
% es.tEY (V/m) @ t=0.86
0
% es.tEZ (V/m) @ t=0.86
1.320902074571924
% es.Ex (V/m) @ t=0.86
-1.1582186414064757
% es.Ey (V/m) @ t=0.86
0.25733007905343697
% es.Ez (V/m) @ t=0.86
1.3209020745719098
% es.tEx (V/m) @ t=0.86
-1.1582186414064788
% es.tEy (V/m) @ t=0.86
0
% es.tEz (V/m) @ t=0.86
1.320902074571924
% V (V) @ t=0.86
0.01735747409369195
% es.normE (V/m) @ t=0.88
1.8099997148840783
% es.EX (V/m) @ t=0.88
-1.1688737520758665
% es.EY (V/m) @ t=0.88
0.25969745671506206
% es.EZ (V/m) @ t=0.88
1.3330537936862221
% es.tEX (V/m) @ t=0.88
-1.1688737520758625
% es.tEY (V/m) @ t=0.88
0
% es.tEZ (V/m) @ t=0.88
1.3330537936862594
% es.Ex (V/m) @ t=0.88
-1.1688737520758665
% es.Ey (V/m) @ t=0.88
0.25969745671506206
% es.Ez (V/m) @ t=0.88
1.3330537936862221
% es.tEx (V/m) @ t=0.88
-1.1688737520758625
% es.tEy (V/m) @ t=0.88
0
% es.tEz (V/m) @ t=0.88
1.3330537936862594
% V (V) @ t=0.88
0.017517151670942744
% es.normE (V/m) @ t=0.9
1.826499150719427
% es.EX (V/m) @ t=0.9
-1.1795288627452498
% es.EY (V/m) @ t=0.9
0.26206483437669426
% es.EZ (V/m) @ t=0.9
1.3452055128005842
% es.tEX (V/m) @ t=0.9
-1.1795288627452387
% es.tEY (V/m) @ t=0.9
0
% es.tEZ (V/m) @ t=0.9
1.3452055128006073
% es.Ex (V/m) @ t=0.9
-1.1795288627452498
% es.Ey (V/m) @ t=0.9
0.26206483437669426
% es.Ez (V/m) @ t=0.9
1.3452055128005842
% es.tEx (V/m) @ t=0.9
-1.1795288627452387
% es.tEy (V/m) @ t=0.9
0
% es.tEz (V/m) @ t=0.9
1.3452055128006073
% V (V) @ t=0.9
0.01767682924819353
% es.normE (V/m) @ t=0.92
1.842998586554746
% es.EX (V/m) @ t=0.92
-1.1901839734146202
% es.EY (V/m) @ t=0.92
0.2644322120383443
% es.EZ (V/m) @ t=0.92
1.3573572319149037
% es.tEX (V/m) @ t=0.92
-1.1901839734146162
% es.tEY (V/m) @ t=0.92
0
% es.tEZ (V/m) @ t=0.92
1.357357231914932
% es.Ex (V/m) @ t=0.92
-1.1901839734146202
% es.Ey (V/m) @ t=0.92
0.2644322120383443
% es.Ez (V/m) @ t=0.92
1.3573572319149037
% es.tEx (V/m) @ t=0.92
-1.1901839734146162
% es.tEy (V/m) @ t=0.92
0
% es.tEz (V/m) @ t=0.92
1.357357231914932
% V (V) @ t=0.92
0.017836506825444323
% es.normE (V/m) @ t=0.94
1.8594980223900903
% es.EX (V/m) @ t=0.94
-1.200839084083991
% es.EY (V/m) @ t=0.94
0.2667995896999572
% es.EZ (V/m) @ t=0.94
1.369508951029264
% es.tEX (V/m) @ t=0.94
-1.2008390840839938
% es.tEY (V/m) @ t=0.94
0
% es.tEZ (V/m) @ t=0.94
1.36950895102928
% es.Ex (V/m) @ t=0.94
-1.200839084083991
% es.Ey (V/m) @ t=0.94
0.2667995896999572
% es.Ez (V/m) @ t=0.94
1.369508951029264
% es.tEx (V/m) @ t=0.94
-1.2008390840839938
% es.tEy (V/m) @ t=0.94
0
% es.tEz (V/m) @ t=0.94
1.36950895102928
% V (V) @ t=0.94
0.01799618440269511
% es.normE (V/m) @ t=0.96
1.875997458225418
% es.EX (V/m) @ t=0.96
-1.2114941947533682
% es.EY (V/m) @ t=0.96
0.2691669673615946
% es.EZ (V/m) @ t=0.96
1.3816606701435887
% es.tEX (V/m) @ t=0.96
-1.2114941947533637
% es.tEY (V/m) @ t=0.96
0
% es.tEZ (V/m) @ t=0.96
1.3816606701435994
% es.Ex (V/m) @ t=0.96
-1.2114941947533682
% es.Ey (V/m) @ t=0.96
0.2691669673615946
% es.Ez (V/m) @ t=0.96
1.3816606701435887
% es.tEx (V/m) @ t=0.96
-1.2114941947533637
% es.tEy (V/m) @ t=0.96
0
% es.tEz (V/m) @ t=0.96
1.3816606701435994
% V (V) @ t=0.96
0.0181558619799459
% es.normE (V/m) @ t=0.98
1.8924968940607614
% es.EX (V/m) @ t=0.98
-1.2221493054227364
% es.EY (V/m) @ t=0.98
0.2715343450232126
% es.EZ (V/m) @ t=0.98
1.3938123892579402
% es.tEX (V/m) @ t=0.98
-1.2221493054227395
% es.tEY (V/m) @ t=0.98
0
% es.tEZ (V/m) @ t=0.98
1.3938123892579632
% es.Ex (V/m) @ t=0.98
-1.2221493054227364
% es.Ey (V/m) @ t=0.98
0.2715343450232126
% es.Ez (V/m) @ t=0.98
1.3938123892579402
% es.tEx (V/m) @ t=0.98
-1.2221493054227395
% es.tEy (V/m) @ t=0.98
0
% es.tEz (V/m) @ t=0.98
1.3938123892579632
% V (V) @ t=0.98
0.01831553955719669
% es.normE (V/m) @ t=1
1.9089963298961077
% es.EX (V/m) @ t=1
-1.2328044160921285
% es.EY (V/m) @ t=1
0.27390172268484325
% es.EZ (V/m) @ t=1
1.405964108372272
% es.tEX (V/m) @ t=1
-1.2328044160921245
% es.tEY (V/m) @ t=1
0
% es.tEZ (V/m) @ t=1
1.4059641083722667
% es.Ex (V/m) @ t=1
-1.2328044160921285
% es.Ey (V/m) @ t=1
0.27390172268484325
% es.Ez (V/m) @ t=1
1.405964108372272
% es.tEx (V/m) @ t=1
-1.2328044160921245
% es.tEy (V/m) @ t=1
0
% es.tEz (V/m) @ t=1
1.4059641083722667
% V (V) @ t=1
0.01847521713444748
% es.normE (V/m) @ t=1.02
1.9254957657314657
% es.EX (V/m) @ t=1.02
-1.243459526761491
% es.EY (V/m) @ t=1.02
0.27626910034650387
% es.EZ (V/m) @ t=1.02
1.418115827486636
% es.tEX (V/m) @ t=1.02
-1.2434595267614865
% es.tEY (V/m) @ t=1.02
0
% es.tEZ (V/m) @ t=1.02
1.418115827486636
% es.Ex (V/m) @ t=1.02
-1.243459526761491
% es.Ey (V/m) @ t=1.02
0.27626910034650387
% es.Ez (V/m) @ t=1.02
1.418115827486636
% es.tEx (V/m) @ t=1.02
-1.2434595267614865
% es.tEy (V/m) @ t=1.02
0
% es.tEz (V/m) @ t=1.02
1.418115827486636
% V (V) @ t=1.02
0.01863489471169827
% es.normE (V/m) @ t=1.04
1.9426153463504656
% es.EX (V/m) @ t=1.04
-1.254515121830369
% es.EY (V/m) @ t=1.04
0.2787254276524487
% es.EZ (V/m) @ t=1.04
1.4307242879621231
% es.tEX (V/m) @ t=1.04
-1.254515121830365
% es.tEY (V/m) @ t=1.04
0
% es.tEZ (V/m) @ t=1.04