% Model:              1 neuron.mph
% Version:            COMSOL 6.1.0.252
% Date:               Mar 22 2023, 17:54
% Dimension:          0
% Nodes:              14017
% Expressions:        14017
% Description:        Electric field norm, Electric field, X component, Electric field, Y component, Electric field, Z component, Tangential electric field, X component, Tangential electric field, Y component, Tangential electric field, Z component, Electric field, x component, Electric field, y component, Electric field, z component, Tangential electric field, x component, Tangential electric field, y component, Tangential electric field, z component, Electric potential
% Length unit:        mm
% x
2
% y
12.2
% z
1
% es.normE (V/m) @ t=0
1.413213285958981
% es.EX (V/m) @ t=0
-0.9126338466617754
% es.EY (V/m) @ t=0
0.20276618784268374
% es.EZ (V/m) @ t=0
1.0408237014354738
% es.tEX (V/m) @ t=0
-0.9126338466617687
% es.tEY (V/m) @ t=0
0
% es.tEZ (V/m) @ t=0
1.0408237014354782
% es.Ex (V/m) @ t=0
-0.9126338466617754
% es.Ey (V/m) @ t=0
0.20276618784268374
% es.Ez (V/m) @ t=0
1.0408237014354738
% es.tEx (V/m) @ t=0
-0.9126338466617687
% es.tEy (V/m) @ t=0
0
% es.tEz (V/m) @ t=0
1.0408237014354782
% V (V) @ t=0
0.013677108905316655
% es.normE (V/m) @ t=0.02
1.2206065318364474
% es.EX (V/m) @ t=0.02
-0.7882510342530025
% es.EY (V/m) @ t=0.02
0.1751311962796982
% es.EZ (V/m) @ t=0.02
0.8989699015449686
% es.tEX (V/m) @ t=0.02
-0.7882510342529994
% es.tEY (V/m) @ t=0.02
0
% es.tEZ (V/m) @ t=0.02
0.8989699015449837
% es.Ex (V/m) @ t=0.02
-0.7882510342530025
% es.Ey (V/m) @ t=0.02
0.1751311962796982
% es.Ez (V/m) @ t=0.02
0.8989699015449686
% es.tEx (V/m) @ t=0.02
-0.7882510342529994
% es.tEy (V/m) @ t=0.02
0
% es.tEz (V/m) @ t=0.02
0.8989699015449837
% V (V) @ t=0.02
0.011813056527981019
% es.normE (V/m) @ t=0.04
1.2318348601642781
% es.EX (V/m) @ t=0.04
-0.7955021350687872
% es.EY (V/m) @ t=0.04
0.17674222380291604
% es.EZ (V/m) @ t=0.04
0.9072395029147877
% es.tEX (V/m) @ t=0.04
-0.795502135068781
% es.tEY (V/m) @ t=0.04
0
% es.tEZ (V/m) @ t=0.04
0.9072395029148028
% es.Ex (V/m) @ t=0.04
-0.7955021350687872
% es.Ey (V/m) @ t=0.04
0.17674222380291604
% es.Ez (V/m) @ t=0.04
0.9072395029147877
% es.tEx (V/m) @ t=0.04
-0.795502135068781
% es.tEy (V/m) @ t=0.04
0
% es.tEz (V/m) @ t=0.04
0.9072395029148028
% V (V) @ t=0.04
0.011921724450334015
% es.normE (V/m) @ t=0.06
1.2431478717655162
% es.EX (V/m) @ t=0.06
-0.8028079229940785
% es.EY (V/m) @ t=0.06
0.17836540164562154
% es.EZ (V/m) @ t=0.06
0.9155714731594644
% es.tEX (V/m) @ t=0.06
-0.8028079229940723
% es.tEY (V/m) @ t=0.06
0
% es.tEZ (V/m) @ t=0.06
0.9155714731594653
% es.Ex (V/m) @ t=0.06
-0.8028079229940785
% es.Ey (V/m) @ t=0.06
0.17836540164562154
% es.Ez (V/m) @ t=0.06
0.9155714731594644
% es.tEx (V/m) @ t=0.06
-0.8028079229940723
% es.tEy (V/m) @ t=0.06
0
% es.tEz (V/m) @ t=0.06
0.9155714731594653
% V (V) @ t=0.06
0.012031211890364334
% es.normE (V/m) @ t=0.08
1.254671489443858
% es.EX (V/m) @ t=0.08
-0.810249718274425
% es.EY (V/m) @ t=0.08
0.1800187966810619
% es.EZ (V/m) @ t=0.08
0.9240585531218155
% es.tEX (V/m) @ t=0.08
-0.8102497182744259
% es.tEY (V/m) @ t=0.08
0
% es.tEZ (V/m) @ t=0.08
0.9240585531218226
% es.Ex (V/m) @ t=0.08
-0.810249718274425
% es.Ey (V/m) @ t=0.08
0.1800187966810619
% es.Ez (V/m) @ t=0.08
0.9240585531218155
% es.tEx (V/m) @ t=0.08
-0.8102497182744259
% es.tEy (V/m) @ t=0.08
0
% es.tEz (V/m) @ t=0.08
0.9240585531218226
% V (V) @ t=0.08
0.012142737790967455
% es.normE (V/m) @ t=0.1
1.2662623881280883
% es.EX (V/m) @ t=0.1
-0.8177349629736161
% es.EY (V/m) @ t=0.1
0.18168184501402151
% es.EZ (V/m) @ t=0.1
0.932595185015308
% es.tEX (V/m) @ t=0.1
-0.817734962973617
% es.tEY (V/m) @ t=0.1
0
% es.tEZ (V/m) @ t=0.1
0.932595185015316
% es.Ex (V/m) @ t=0.1
-0.8177349629736161
% es.Ey (V/m) @ t=0.1
0.18168184501402151
% es.Ez (V/m) @ t=0.1
0.932595185015308
% es.tEx (V/m) @ t=0.1
-0.817734962973617
% es.tEy (V/m) @ t=0.1
0
% es.tEz (V/m) @ t=0.1
0.932595185015316
% V (V) @ t=0.1
0.012254914905816911
% es.normE (V/m) @ t=0.12
1.2778532868123076
% es.EX (V/m) @ t=0.12
-0.8252202076728068
% es.EY (V/m) @ t=0.12
0.18334489334697746
% es.EZ (V/m) @ t=0.12
0.9411318169087846
% es.tEX (V/m) @ t=0.12
-0.8252202076728077
% es.tEY (V/m) @ t=0.12
0
% es.tEZ (V/m) @ t=0.12
0.9411318169087961
% es.Ex (V/m) @ t=0.12
-0.8252202076728068
% es.Ey (V/m) @ t=0.12
0.18334489334697746
% es.Ez (V/m) @ t=0.12
0.9411318169087846
% es.tEx (V/m) @ t=0.12
-0.8252202076728077
% es.tEy (V/m) @ t=0.12
0
% es.tEz (V/m) @ t=0.12
0.9411318169087961
% V (V) @ t=0.12
0.012367092020666364
% es.normE (V/m) @ t=0.14
1.289752080512735
% es.EX (V/m) @ t=0.14
-0.8329042850154198
% es.EY (V/m) @ t=0.14
0.18505211902205332
% es.EZ (V/m) @ t=0.14
0.9498952127130194
% es.tEX (V/m) @ t=0.14
-0.8329042850154167
% es.tEY (V/m) @ t=0.14
0
% es.tEZ (V/m) @ t=0.14
0.9498952127130345
% es.Ex (V/m) @ t=0.14
-0.8329042850154198
% es.Ey (V/m) @ t=0.14
0.18505211902205332
% es.Ez (V/m) @ t=0.14
0.9498952127130194
% es.tEx (V/m) @ t=0.14
-0.8329042850154167
% es.tEy (V/m) @ t=0.14
0
% es.tEz (V/m) @ t=0.14
0.9498952127130345
% V (V) @ t=0.14
0.012482248500037312
% es.normE (V/m) @ t=0.16
1.301929180212145
% es.EX (V/m) @ t=0.16
-0.8407680869867065
% es.EY (V/m) @ t=0.16
0.18679927655276174
% es.EZ (V/m) @ t=0.16
0.9588635801906973
% es.tEX (V/m) @ t=0.16
-0.8407680869867074
% es.tEY (V/m) @ t=0.16
0
% es.tEZ (V/m) @ t=0.16
0.9588635801906982
% es.Ex (V/m) @ t=0.16
-0.8407680869867065
% es.Ey (V/m) @ t=0.16
0.18679927655276174
% es.Ez (V/m) @ t=0.16
0.9588635801906973
% es.tEx (V/m) @ t=0.16
-0.8407680869867074
% es.tEy (V/m) @ t=0.16
0
% es.tEz (V/m) @ t=0.16
0.9588635801906982
% V (V) @ t=0.16
0.012600098024036608
% es.normE (V/m) @ t=0.18
1.3141062799115404
% es.EX (V/m) @ t=0.18
-0.8486318889579905
% es.EY (V/m) @ t=0.18
0.18854643408347194
% es.EZ (V/m) @ t=0.18
0.9678319476683539
% es.tEX (V/m) @ t=0.18
-0.8486318889579914
% es.tEY (V/m) @ t=0.18
0
% es.tEZ (V/m) @ t=0.18
0.9678319476683548
% es.Ex (V/m) @ t=0.18
-0.8486318889579905
% es.Ey (V/m) @ t=0.18
0.18854643408347194
% es.Ez (V/m) @ t=0.18
0.9678319476683539
% es.tEx (V/m) @ t=0.18
-0.8486318889579914
% es.tEy (V/m) @ t=0.18
0
% es.tEz (V/m) @ t=0.18
0.9678319476683548
% V (V) @ t=0.18
0.012717947548035907
% es.normE (V/m) @ t=0.2
1.3262833796109397
% es.EX (V/m) @ t=0.2
-0.8564956909292802
% es.EY (V/m) @ t=0.2
0.19029359161418546
% es.EZ (V/m) @ t=0.2
0.9768003151460123
% es.tEX (V/m) @ t=0.2
-0.8564956909292807
% es.tEY (V/m) @ t=0.2
0
% es.tEZ (V/m) @ t=0.2
0.9768003151460265
% es.Ex (V/m) @ t=0.2
-0.8564956909292802
% es.Ey (V/m) @ t=0.2
0.19029359161418546
% es.Ez (V/m) @ t=0.2
0.9768003151460123
% es.tEx (V/m) @ t=0.2
-0.8564956909292807
% es.tEy (V/m) @ t=0.2
0
% es.tEz (V/m) @ t=0.2
0.9768003151460265
% V (V) @ t=0.2
0.012835797072035204
% es.normE (V/m) @ t=0.22
1.338460479310342
% es.EX (V/m) @ t=0.22
-0.8643594929005602
% es.EY (V/m) @ t=0.22
0.19204074914489222
% es.EZ (V/m) @ t=0.22
0.9857686826236822
% es.tEX (V/m) @ t=0.22
-0.8643594929005576
% es.tEY (V/m) @ t=0.22
0
% es.tEZ (V/m) @ t=0.22
0.9857686826236831
% es.Ex (V/m) @ t=0.22
-0.8643594929005602
% es.Ey (V/m) @ t=0.22
0.19204074914489222
% es.Ez (V/m) @ t=0.22
0.9857686826236822
% es.tEx (V/m) @ t=0.22
-0.8643594929005576
% es.tEy (V/m) @ t=0.22
0
% es.tEz (V/m) @ t=0.22
0.9857686826236831
% V (V) @ t=0.22
0.012953646596034502
% es.normE (V/m) @ t=0.24
1.3506375790097394
% es.EX (V/m) @ t=0.24
-0.8722232948718478
% es.EY (V/m) @ t=0.24
0.19378790667560586
% es.EZ (V/m) @ t=0.24
0.9947370501013362
% es.tEX (V/m) @ t=0.24
-0.8722232948718514
% es.tEY (V/m) @ t=0.24
0
% es.tEZ (V/m) @ t=0.24
0.9947370501013477
% es.Ex (V/m) @ t=0.24
-0.8722232948718478
% es.Ey (V/m) @ t=0.24
0.19378790667560586
% es.Ez (V/m) @ t=0.24
0.9947370501013362
% es.tEx (V/m) @ t=0.24
-0.8722232948718514
% es.tEy (V/m) @ t=0.24
0
% es.tEz (V/m) @ t=0.24
0.9947370501013477
% V (V) @ t=0.24
0.0130714961200338
% es.normE (V/m) @ t=0.26
1.362893207701463
% es.EX (V/m) @ t=0.26
-0.8801378086853449
% es.EY (V/m) @ t=0.26
0.19554633203880978
% es.EZ (V/m) @ t=0.26
1.0037632543434718
% es.tEX (V/m) @ t=0.26
-0.8801378086853493
% es.tEY (V/m) @ t=0.26
0
% es.tEZ (V/m) @ t=0.26
1.003763254343494
% es.Ex (V/m) @ t=0.26
-0.8801378086853449
% es.Ey (V/m) @ t=0.26
0.19554633203880978
% es.Ez (V/m) @ t=0.26
1.0037632543434718
% es.tEx (V/m) @ t=0.26
-0.8801378086853493
% es.tEy (V/m) @ t=0.26
0
% es.tEz (V/m) @ t=0.26
1.003763254343494
% V (V) @ t=0.26
0.013190105365585576
% es.normE (V/m) @ t=0.28
1.3763802913437315
% es.EX (V/m) @ t=0.28
-0.888847561903908
% es.EY (V/m) @ t=0.28
0.19748145428421926
% es.EZ (V/m) @ t=0.28
1.013696427691272
% es.tEX (V/m) @ t=0.28
-0.888847561903912
% es.tEY (V/m) @ t=0.28
0
% es.tEZ (V/m) @ t=0.28
1.013696427691273
% es.Ex (V/m) @ t=0.28
-0.888847561903908
% es.Ey (V/m) @ t=0.28
0.19748145428421926
% es.Ez (V/m) @ t=0.28
1.013696427691272
% es.tEx (V/m) @ t=0.28
-0.888847561903912
% es.tEy (V/m) @ t=0.28
0
% es.tEz (V/m) @ t=0.28
1.013696427691273
% V (V) @ t=0.28
0.013320628209402356
% es.normE (V/m) @ t=0.3
1.389867374985978
% es.EX (V/m) @ t=0.3
-0.8975573151224752
% es.EY (V/m) @ t=0.3
0.19941657652958433
% es.EZ (V/m) @ t=0.3
1.0236296010390493
% es.tEX (V/m) @ t=0.3
-0.8975573151224716
% es.tEY (V/m) @ t=0.3
0
% es.tEZ (V/m) @ t=0.3
1.0236296010390502
% es.Ex (V/m) @ t=0.3
-0.8975573151224752
% es.Ey (V/m) @ t=0.3
0.19941657652958433
% es.Ez (V/m) @ t=0.3
1.0236296010390493
% es.tEx (V/m) @ t=0.3
-0.8975573151224716
% es.tEy (V/m) @ t=0.3
0
% es.tEz (V/m) @ t=0.3
1.0236296010390502
% V (V) @ t=0.3
0.013451151053219139
% es.normE (V/m) @ t=0.32
1.4033544586282292
% es.EX (V/m) @ t=0.32
-0.906267068341045
% es.EY (V/m) @ t=0.32
0.20135169877498482
% es.EZ (V/m) @ t=0.32
1.0335627743868212
% es.tEX (V/m) @ t=0.32
-0.9062670683410414
% es.tEY (V/m) @ t=0.32
0
% es.tEZ (V/m) @ t=0.32
1.0335627743868292
% es.Ex (V/m) @ t=0.32
-0.906267068341045
% es.Ey (V/m) @ t=0.32
0.20135169877498482
% es.Ez (V/m) @ t=0.32
1.0335627743868212
% es.tEx (V/m) @ t=0.32
-0.9062670683410414
% es.tEy (V/m) @ t=0.32
0
% es.tEz (V/m) @ t=0.32
1.0335627743868292
% V (V) @ t=0.32
0.013581673897035917
% es.normE (V/m) @ t=0.34
1.4168415422704823
% es.EX (V/m) @ t=0.34
-0.9149768215596046
% es.EY (V/m) @ t=0.34
0.20328682102037843
% es.EZ (V/m) @ t=0.34
1.0434959477346055
% es.tEX (V/m) @ t=0.34
-0.914976821559605
% es.tEY (V/m) @ t=0.34
0
% es.tEZ (V/m) @ t=0.34
1.0434959477346135
% es.Ex (V/m) @ t=0.34
-0.9149768215596046
% es.Ey (V/m) @ t=0.34
0.20328682102037843
% es.Ez (V/m) @ t=0.34
1.0434959477346055
% es.tEx (V/m) @ t=0.34
-0.914976821559605
% es.tEy (V/m) @ t=0.34
0
% es.tEz (V/m) @ t=0.34
1.0434959477346135
% V (V) @ t=0.34
0.013712196740852698
% es.normE (V/m) @ t=0.36
1.430328625912738
% es.EX (V/m) @ t=0.36
-0.9236865747781748
% es.EY (V/m) @ t=0.36
0.20522194326576304
% es.EZ (V/m) @ t=0.36
1.0534291210823845
% es.tEX (V/m) @ t=0.36
-0.9236865747781753
% es.tEY (V/m) @ t=0.36
0
% es.tEZ (V/m) @ t=0.36
1.0534291210823925
% es.Ex (V/m) @ t=0.36
-0.9236865747781748
% es.Ey (V/m) @ t=0.36
0.20522194326576304
% es.Ez (V/m) @ t=0.36
1.0534291210823845
% es.tEx (V/m) @ t=0.36
-0.9236865747781753
% es.tEy (V/m) @ t=0.36
0
% es.tEz (V/m) @ t=0.36
1.0534291210823925
% V (V) @ t=0.36
0.01384271958466948
% es.normE (V/m) @ t=0.38
1.4438157095549986
% es.EX (V/m) @ t=0.38
-0.932396327996742
% es.EY (V/m) @ t=0.38
0.20715706551116364
% es.EZ (V/m) @ t=0.38
1.0633622944301688
% es.tEX (V/m) @ t=0.38
-0.9323963279967389
% es.tEY (V/m) @ t=0.38
0
% es.tEZ (V/m) @ t=0.38
1.0633622944301626
% es.Ex (V/m) @ t=0.38
-0.932396327996742
% es.Ey (V/m) @ t=0.38
0.20715706551116364
% es.Ez (V/m) @ t=0.38
1.0633622944301688
% es.tEx (V/m) @ t=0.38
-0.9323963279967389
% es.tEy (V/m) @ t=0.38
0
% es.tEz (V/m) @ t=0.38
1.0633622944301626
% V (V) @ t=0.38
0.01397324242848626
% es.normE (V/m) @ t=0.4
1.457302793197246
% es.EX (V/m) @ t=0.4
-0.9411060812153043
% es.EY (V/m) @ t=0.4
0.20909218775654992
% es.EZ (V/m) @ t=0.4
1.0732954677779407
% es.tEX (V/m) @ t=0.4
-0.9411060812153051
% es.tEY (V/m) @ t=0.4
0
% es.tEZ (V/m) @ t=0.4
1.0732954677779558
% es.Ex (V/m) @ t=0.4
-0.9411060812153043
% es.Ey (V/m) @ t=0.4
0.20909218775654992
% es.Ez (V/m) @ t=0.4
1.0732954677779407
% es.tEx (V/m) @ t=0.4
-0.9411060812153051
% es.tEy (V/m) @ t=0.4
0
% es.tEz (V/m) @ t=0.4
1.0732954677779558
% V (V) @ t=0.4
0.014103765272303039
% es.normE (V/m) @ t=0.42
1.4707898768394911
% es.EX (V/m) @ t=0.42
-0.9498158344338679
% es.EY (V/m) @ t=0.42
0.21102731000194708
% es.EZ (V/m) @ t=0.42
1.0832286411257046
% es.tEX (V/m) @ t=0.42
-0.9498158344338683
% es.tEY (V/m) @ t=0.42
0
% es.tEZ (V/m) @ t=0.42
1.0832286411257188
% es.Ex (V/m) @ t=0.42
-0.9498158344338679
% es.Ey (V/m) @ t=0.42
0.21102731000194708
% es.Ez (V/m) @ t=0.42
1.0832286411257046
% es.tEx (V/m) @ t=0.42
-0.9498158344338683
% es.tEy (V/m) @ t=0.42
0
% es.tEz (V/m) @ t=0.42
1.0832286411257188
% V (V) @ t=0.42
0.014234288116119825
% es.normE (V/m) @ t=0.44
1.4842769604817527
% es.EX (V/m) @ t=0.44
-0.958525587652431
% es.EY (V/m) @ t=0.44
0.21296243224733524
% es.EZ (V/m) @ t=0.44
1.093161814473497
% es.tEX (V/m) @ t=0.44
-0.958525587652431
% es.tEY (V/m) @ t=0.44
0
% es.tEZ (V/m) @ t=0.44
1.093161814473505
% es.Ex (V/m) @ t=0.44
-0.958525587652431
% es.Ey (V/m) @ t=0.44
0.21296243224733524
% es.Ez (V/m) @ t=0.44
1.093161814473497
% es.tEx (V/m) @ t=0.44
-0.958525587652431
% es.tEy (V/m) @ t=0.44
0
% es.tEz (V/m) @ t=0.44
1.093161814473505
% V (V) @ t=0.44
0.014364810959936605
% es.normE (V/m) @ t=0.46
1.4977640441240083
% es.EX (V/m) @ t=0.46
-0.9672353408710048
% es.EY (V/m) @ t=0.46
0.21489755449273584
% es.EZ (V/m) @ t=0.46
1.10309498782126
% es.tEX (V/m) @ t=0.46
-0.9672353408710013
% es.tEY (V/m) @ t=0.46
0
% es.tEZ (V/m) @ t=0.46
1.103094987821275
% es.Ex (V/m) @ t=0.46
-0.9672353408710048
% es.Ey (V/m) @ t=0.46
0.21489755449273584
% es.Ez (V/m) @ t=0.46
1.10309498782126
% es.tEx (V/m) @ t=0.46
-0.9672353408710013
% es.tEy (V/m) @ t=0.46
0
% es.tEz (V/m) @ t=0.46
1.103094987821275
% V (V) @ t=0.46
0.014495333803753384
% es.normE (V/m) @ t=0.48
1.5112511277662648
% es.EX (V/m) @ t=0.48
-0.975945094089564
% es.EY (V/m) @ t=0.48
0.216832676738131
% es.EZ (V/m) @ t=0.48
1.1130281611690425
% es.tEX (V/m) @ t=0.48
-0.975945094089564
% es.tEY (V/m) @ t=0.48
0
% es.tEZ (V/m) @ t=0.48
1.113028161169047
% es.Ex (V/m) @ t=0.48
-0.975945094089564
% es.Ey (V/m) @ t=0.48
0.216832676738131
% es.Ez (V/m) @ t=0.48
1.1130281611690425
% es.tEx (V/m) @ t=0.48
-0.975945094089564
% es.tEy (V/m) @ t=0.48
0
% es.tEz (V/m) @ t=0.48
1.113028161169047
% V (V) @ t=0.48
0.014625856647570164
% es.normE (V/m) @ t=0.5
1.5247382114085275
% es.EX (V/m) @ t=0.5
-0.9846548473081311
% es.EY (V/m) @ t=0.5
0.21876779898352816
% es.EZ (V/m) @ t=0.5
1.1229613345168241
% es.tEX (V/m) @ t=0.5
-0.9846548473081276
% es.tEY (V/m) @ t=0.5
0
% es.tEZ (V/m) @ t=0.5
1.122961334516832
% es.Ex (V/m) @ t=0.5
-0.9846548473081311
% es.Ey (V/m) @ t=0.5
0.21876779898352816
% es.Ez (V/m) @ t=0.5
1.1229613345168241
% es.tEx (V/m) @ t=0.5
-0.9846548473081276
% es.tEy (V/m) @ t=0.5
0
% es.tEz (V/m) @ t=0.5
1.122961334516832
% V (V) @ t=0.5
0.014756379491386947
% es.normE (V/m) @ t=0.52
1.5384161812242634
% es.EX (V/m) @ t=0.52
-0.9934878758730714
% es.EY (V/m) @ t=0.52
0.22073030738914257
% es.EZ (V/m) @ t=0.52
1.1330350924968604
% es.tEX (V/m) @ t=0.52
-0.9934878758730714
% es.tEY (V/m) @ t=0.52
0
% es.tEZ (V/m) @ t=0.52
1.1330350924968675
% es.Ex (V/m) @ t=0.52
-0.9934878758730714
% es.Ey (V/m) @ t=0.52
0.22073030738914257
% es.Ez (V/m) @ t=0.52
1.1330350924968604
% es.tEx (V/m) @ t=0.52
-0.9934878758730714
% es.tEy (V/m) @ t=0.52
0
% es.tEz (V/m) @ t=0.52
1.1330350924968675
% V (V) @ t=0.52
0.014888750674154115
% es.normE (V/m) @ t=0.54
1.5533788424016046
% es.EX (V/m) @ t=0.54
-1.0031505652233101
% es.EY (V/m) @ t=0.54
0.22287712858625064
% es.EZ (V/m) @ t=0.54
1.1440550052420004
% es.tEX (V/m) @ t=0.54
-1.003150565223307
% es.tEY (V/m) @ t=0.54
0
% es.tEZ (V/m) @ t=0.54
1.1440550052420084
% es.Ex (V/m) @ t=0.54
-1.0031505652233101
% es.Ey (V/m) @ t=0.54
0.22287712858625064
% es.Ez (V/m) @ t=0.54
1.1440550052420004
% es.tEx (V/m) @ t=0.54
-1.003150565223307
% es.tEy (V/m) @ t=0.54
0
% es.tEz (V/m) @ t=0.54
1.1440550052420084
% V (V) @ t=0.54
0.015033561443506824
% es.normE (V/m) @ t=0.56
1.5683415035789616
% es.EX (V/m) @ t=0.56
-1.01281325457356
% es.EY (V/m) @ t=0.56
0.22502394978334284
% es.EZ (V/m) @ t=0.56
1.1550749179871627
% es.tEX (V/m) @ t=0.56
-1.0128132545735564
% es.tEY (V/m) @ t=0.56
0
% es.tEZ (V/m) @ t=0.56
1.1550749179871707
% es.Ex (V/m) @ t=0.56
-1.01281325457356
% es.Ey (V/m) @ t=0.56
0.22502394978334284
% es.Ez (V/m) @ t=0.56
1.1550749179871627
% es.tEx (V/m) @ t=0.56
-1.0128132545735564
% es.tEy (V/m) @ t=0.56
0
% es.tEz (V/m) @ t=0.56
1.1550749179871707
% V (V) @ t=0.56
0.015178372212859526
% es.normE (V/m) @ t=0.58
1.583304164756293
% es.EX (V/m) @ t=0.58
-1.0224759439237947
% es.EY (V/m) @ t=0.58
0.22717077098043115
% es.EZ (V/m) @ t=0.58
1.1660948307322982
% es.tEX (V/m) @ t=0.58
-1.0224759439237912
% es.tEY (V/m) @ t=0.58
0
% es.tEZ (V/m) @ t=0.58
1.1660948307323205
% es.Ex (V/m) @ t=0.58
-1.0224759439237947
% es.Ey (V/m) @ t=0.58
0.22717077098043115
% es.Ez (V/m) @ t=0.58
1.1660948307322982
% es.tEx (V/m) @ t=0.58
-1.0224759439237912
% es.tEy (V/m) @ t=0.58
0
% es.tEz (V/m) @ t=0.58
1.1660948307323205
% V (V) @ t=0.58
0.015323182982212231
% es.normE (V/m) @ t=0.6
1.5982668259336448
% es.EX (V/m) @ t=0.6
-1.0321386332740379
% es.EY (V/m) @ t=0.6
0.22931759217753045
% es.EZ (V/m) @ t=0.6
1.1771147434774516
% es.tEX (V/m) @ t=0.6
-1.0321386332740379
% es.tEY (V/m) @ t=0.6
0
% es.tEZ (V/m) @ t=0.6
1.1771147434774667
% es.Ex (V/m) @ t=0.6
-1.0321386332740379
% es.Ey (V/m) @ t=0.6
0.22931759217753045
% es.Ez (V/m) @ t=0.6
1.1771147434774516
% es.tEx (V/m) @ t=0.6
-1.0321386332740379
% es.tEy (V/m) @ t=0.6
0
% es.tEz (V/m) @ t=0.6
1.1771147434774667
% V (V) @ t=0.6
0.015467993751564935
% es.normE (V/m) @ t=0.62
1.61322948711098
% es.EX (V/m) @ t=0.62
-1.0418013226242802
% es.EY (V/m) @ t=0.62
0.23146441337462254
% es.EZ (V/m) @ t=0.62
1.1881346562225863
% es.tEX (V/m) @ t=0.62
-1.0418013226242802
% es.tEY (V/m) @ t=0.62
0
% es.tEZ (V/m) @ t=0.62
1.1881346562226014
% es.Ex (V/m) @ t=0.62
-1.0418013226242802
% es.Ey (V/m) @ t=0.62
0.23146441337462254
% es.Ez (V/m) @ t=0.62
1.1881346562225863
% es.tEx (V/m) @ t=0.62
-1.0418013226242802
% es.tEy (V/m) @ t=0.62
0
% es.tEz (V/m) @ t=0.62
1.1881346562226014
% V (V) @ t=0.62
0.015612804520917643
% es.normE (V/m) @ t=0.64
1.6281921482883464
% es.EX (V/m) @ t=0.64
-1.05146401197453
% es.EY (V/m) @ t=0.64
0.23361123457173416
% es.EZ (V/m) @ t=0.64
1.199154568967752
% es.tEX (V/m) @ t=0.64
-1.05146401197453
% es.tEY (V/m) @ t=0.64
0
% es.tEZ (V/m) @ t=0.64
1.1991545689677565
% es.Ex (V/m) @ t=0.64
-1.05146401197453
% es.Ey (V/m) @ t=0.64
0.23361123457173416
% es.Ez (V/m) @ t=0.64
1.199154568967752
% es.tEx (V/m) @ t=0.64
-1.05146401197453
% es.tEy (V/m) @ t=0.64
0
% es.tEz (V/m) @ t=0.64
1.1991545689677565
% V (V) @ t=0.64
0.015757615290270345
% es.normE (V/m) @ t=0.66
1.6431548094656858
% es.EX (V/m) @ t=0.66
-1.0611267013247687
% es.EY (V/m) @ t=0.66
0.23575805576882092
% es.EZ (V/m) @ t=0.66
1.2101744817128965
% es.tEX (V/m) @ t=0.66
-1.0611267013247652
% es.tEY (V/m) @ t=0.66
0
% es.tEZ (V/m) @ t=0.66
1.2101744817129116
% es.Ex (V/m) @ t=0.66
-1.0611267013247687
% es.Ey (V/m) @ t=0.66
0.23575805576882092
% es.Ez (V/m) @ t=0.66
1.2101744817128965
% es.tEx (V/m) @ t=0.66
-1.0611267013247652
% es.tEy (V/m) @ t=0.66
0
% es.tEz (V/m) @ t=0.66
1.2101744817129116
% V (V) @ t=0.66
0.01590242605962305
% es.normE (V/m) @ t=0.68
1.6581174706430342
% es.EX (V/m) @ t=0.68
-1.0707893906750154
% es.EY (V/m) @ t=0.68
0.23790487696590412
% es.EZ (V/m) @ t=0.68
1.2211943944580472
% es.tEX (V/m) @ t=0.68
-1.070789390675015
% es.tEY (V/m) @ t=0.68
0
% es.tEZ (V/m) @ t=0.68
1.2211943944580446
% es.Ex (V/m) @ t=0.68
-1.0707893906750154
% es.Ey (V/m) @ t=0.68
0.23790487696590412
% es.Ez (V/m) @ t=0.68
1.2211943944580472
% es.tEx (V/m) @ t=0.68
-1.070789390675015
% es.tEy (V/m) @ t=0.68
0
% es.tEz (V/m) @ t=0.68
1.2211943944580446
% V (V) @ t=0.68
0.016047236828975756
% es.normE (V/m) @ t=0.7
1.6730801318203885
% es.EX (V/m) @ t=0.7
-1.0804520800252568
% es.EY (V/m) @ t=0.7
0.24005169816301208
% es.EZ (V/m) @ t=0.7
1.2322143072032006
% es.tEX (V/m) @ t=0.7
-1.0804520800252533
% es.tEY (V/m) @ t=0.7
0
% es.tEZ (V/m) @ t=0.7
1.2322143072032166
% es.Ex (V/m) @ t=0.7
-1.0804520800252568
% es.Ey (V/m) @ t=0.7
0.24005169816301208
% es.Ez (V/m) @ t=0.7
1.2322143072032006
% es.tEx (V/m) @ t=0.7
-1.0804520800252533
% es.tEy (V/m) @ t=0.7
0
% es.tEz (V/m) @ t=0.7
1.2322143072032166
% V (V) @ t=0.7
0.016192047598328457
% es.normE (V/m) @ t=0.72
1.6880427929977242
% es.EX (V/m) @ t=0.72
-1.0901147693754956
% es.EY (V/m) @ t=0.72
0.24219851936010772
% es.EZ (V/m) @ t=0.72
1.243234219948338
% es.tEX (V/m) @ t=0.72
-1.0901147693754956
% es.tEY (V/m) @ t=0.72
0
% es.tEZ (V/m) @ t=0.72
1.2432342199483557
% es.Ex (V/m) @ t=0.72
-1.0901147693754956
% es.Ey (V/m) @ t=0.72
0.24219851936010772
% es.Ez (V/m) @ t=0.72
1.243234219948338
% es.tEx (V/m) @ t=0.72
-1.0901147693754956
% es.tEy (V/m) @ t=0.72
0
% es.tEz (V/m) @ t=0.72
1.2432342199483557
% V (V) @ t=0.72
0.016336858367681166
% es.normE (V/m) @ t=0.74
1.703005454175071
% es.EX (V/m) @ t=0.74
-1.0997774587257383
% es.EY (V/m) @ t=0.74
0.2443453405572087
% es.EZ (V/m) @ t=0.74
1.2542541326934824
% es.tEX (V/m) @ t=0.74
-1.0997774587257383
% es.tEY (V/m) @ t=0.74
0
% es.tEZ (V/m) @ t=0.74
1.2542541326934966
% es.Ex (V/m) @ t=0.74
-1.0997774587257383
% es.Ey (V/m) @ t=0.74
0.2443453405572087
% es.Ez (V/m) @ t=0.74
1.2542541326934824
% es.tEx (V/m) @ t=0.74
-1.0997774587257383
% es.tEy (V/m) @ t=0.74
0
% es.tEz (V/m) @ t=0.74
1.2542541326934966
% V (V) @ t=0.74
0.016481669137033875
% es.normE (V/m) @ t=0.76
1.7179681153524333
% es.EX (V/m) @ t=0.76
-1.1094401480759846
% es.EY (V/m) @ t=0.76
0.24649216175430255
% es.EZ (V/m) @ t=0.76
1.2652740454386517
% es.tEX (V/m) @ t=0.76
-1.1094401480759841
% es.tEY (V/m) @ t=0.76
0
% es.tEZ (V/m) @ t=0.76
1.2652740454386517
% es.Ex (V/m) @ t=0.76
-1.1094401480759846
% es.Ey (V/m) @ t=0.76
0.24649216175430255
% es.Ez (V/m) @ t=0.76
1.2652740454386517
% es.tEx (V/m) @ t=0.76
-1.1094401480759841
% es.tEy (V/m) @ t=0.76
0
% es.tEz (V/m) @ t=0.76
1.2652740454386517
% V (V) @ t=0.76
0.016626479906386576
% es.normE (V/m) @ t=0.78
1.733261462983807
% es.EX (V/m) @ t=0.78
-1.1193163864221867
% es.EY (V/m) @ t=0.78
0.24868643154188852
% es.EZ (V/m) @ t=0.78
1.2765375089434166
% es.tEX (V/m) @ t=0.78
-1.1193163864221796
% es.tEY (V/m) @ t=0.78
0
% es.tEZ (V/m) @ t=0.78
1.2765375089434325
% es.Ex (V/m) @ t=0.78
-1.1193163864221867
% es.Ey (V/m) @ t=0.78
0.24868643154188852
% es.Ez (V/m) @ t=0.78
1.2765375089434166
% es.tEx (V/m) @ t=0.78
-1.1193163864221796
% es.tEy (V/m) @ t=0.78
0
% es.tEz (V/m) @ t=0.78
1.2765375089434325
% V (V) @ t=0.78
0.016774490089773077
% es.normE (V/m) @ t=0.8
1.7498876969486403
% es.EX (V/m) @ t=0.8
-1.1300533692433503
% es.EY (V/m) @ t=0.8
0.25107195070490373
% es.EZ (V/m) @ t=0.8
1.2887826439833763
% es.tEX (V/m) @ t=0.8
-1.1300533692433463
% es.tEY (V/m) @ t=0.8
0
% es.tEZ (V/m) @ t=0.8
1.2887826439833816
% es.Ex (V/m) @ t=0.8
-1.1300533692433503
% es.Ey (V/m) @ t=0.8
0.25107195070490373
% es.Ez (V/m) @ t=0.8
1.2887826439833763
% es.tEx (V/m) @ t=0.8
-1.1300533692433463
% es.tEy (V/m) @ t=0.8
0
% es.tEz (V/m) @ t=0.8
1.2887826439833816
% V (V) @ t=0.8
0.01693539603949294
% es.normE (V/m) @ t=0.82
1.7665139309134745
% es.EX (V/m) @ t=0.82
-1.1407903520644918
% es.EY (V/m) @ t=0.82
0.2534574698678904
% es.EZ (V/m) @ t=0.82
1.3010277790233697
% es.tEX (V/m) @ t=0.82
-1.1407903520644878
% es.tEY (V/m) @ t=0.82
0
% es.tEZ (V/m) @ t=0.82
1.3010277790233733
% es.Ex (V/m) @ t=0.82
-1.1407903520644918
% es.Ey (V/m) @ t=0.82
0.2534574698678904
% es.Ez (V/m) @ t=0.82
1.3010277790233697
% es.tEx (V/m) @ t=0.82
-1.1407903520644878
% es.tEy (V/m) @ t=0.82
0
% es.tEz (V/m) @ t=0.82
1.3010277790233733
% V (V) @ t=0.82
0.017096301989212803
% es.normE (V/m) @ t=0.84
1.783140164878315
% es.EX (V/m) @ t=0.84
-1.1515273348856483
% es.EY (V/m) @ t=0.84
0.25584298903088964
% es.EZ (V/m) @ t=0.84
1.3132729140633472
% es.tEX (V/m) @ t=0.84
-1.1515273348856514
% es.tEY (V/m) @ t=0.84
0
% es.tEZ (V/m) @ t=0.84
1.313272914063365
% es.Ex (V/m) @ t=0.84
-1.1515273348856483
% es.Ey (V/m) @ t=0.84
0.25584298903088964
% es.Ez (V/m) @ t=0.84
1.3132729140633472
% es.tEx (V/m) @ t=0.84
-1.1515273348856514
% es.tEy (V/m) @ t=0.84
0
% es.tEz (V/m) @ t=0.84
1.313272914063365
% V (V) @ t=0.84
0.017257207938932664
% es.normE (V/m) @ t=0.86
1.799766398843156
% es.EX (V/m) @ t=0.86
-1.1622643177067977
% es.EY (V/m) @ t=0.86
0.2582285081939121
% es.EZ (V/m) @ t=0.86
1.3255180491033336
% es.tEX (V/m) @ t=0.86
-1.1622643177067942
% es.tEY (V/m) @ t=0.86
0
% es.tEZ (V/m) @ t=0.86
1.3255180491033567
% es.Ex (V/m) @ t=0.86
-1.1622643177067977
% es.Ey (V/m) @ t=0.86
0.2582285081939121
% es.Ez (V/m) @ t=0.86
1.3255180491033336
% es.tEx (V/m) @ t=0.86
-1.1622643177067942
% es.tEy (V/m) @ t=0.86
0
% es.tEz (V/m) @ t=0.86
1.3255180491033567
% V (V) @ t=0.86
0.017418113888652532
% es.normE (V/m) @ t=0.88
1.8163926328079782
% es.EX (V/m) @ t=0.88
-1.1730013005279467
% es.EY (V/m) @ t=0.88
0.26061402735692185
% es.EZ (V/m) @ t=0.88
1.3377631841432915
% es.tEX (V/m) @ t=0.88
-1.1730013005279498
% es.tEY (V/m) @ t=0.88
0
% es.tEZ (V/m) @ t=0.88
1.3377631841433075
% es.Ex (V/m) @ t=0.88
-1.1730013005279467
% es.Ey (V/m) @ t=0.88
0.26061402735692185
% es.Ez (V/m) @ t=0.88
1.3377631841432915
% es.tEx (V/m) @ t=0.88
-1.1730013005279498
% es.tEy (V/m) @ t=0.88
0
% es.tEz (V/m) @ t=0.88
1.3377631841433075
% V (V) @ t=0.88
0.017579019838372397
% es.normE (V/m) @ t=0.9
1.8330188667728258
% es.EX (V/m) @ t=0.9
-1.1837382833491104
% es.EY (V/m) @ t=0.9
0.26299954651992463
% es.EZ (V/m) @ t=0.9
1.3500083191832761
% es.tEX (V/m) @ t=0.9
-1.1837382833490993
% es.tEY (V/m) @ t=0.9
0
% es.tEZ (V/m) @ t=0.9
1.3500083191832974
% es.Ex (V/m) @ t=0.9
-1.1837382833491104
% es.Ey (V/m) @ t=0.9
0.26299954651992463
% es.Ez (V/m) @ t=0.9
1.3500083191832761
% es.tEx (V/m) @ t=0.9
-1.1837382833490993
% es.tEy (V/m) @ t=0.9
0
% es.tEz (V/m) @ t=0.9
1.3500083191832974
% V (V) @ t=0.9
0.017739925788092258
% es.normE (V/m) @ t=0.92
1.8496451007376935
% es.EX (V/m) @ t=0.92
-1.1944752661702598
% es.EY (V/m) @ t=0.92
0.26538506568293097
% es.EZ (V/m) @ t=0.92
1.3622534542232962
% es.tEX (V/m) @ t=0.92
-1.1944752661702558
% es.tEY (V/m) @ t=0.92
0
% es.tEZ (V/m) @ t=0.92
1.3622534542233034
% es.Ex (V/m) @ t=0.92
-1.1944752661702598
% es.Ey (V/m) @ t=0.92
0.26538506568293097
% es.Ez (V/m) @ t=0.92
1.3622534542232962
% es.tEx (V/m) @ t=0.92
-1.1944752661702558
% es.tEy (V/m) @ t=0.92
0
% es.tEz (V/m) @ t=0.92
1.3622534542233034
% V (V) @ t=0.92
0.017900831737812123
% es.normE (V/m) @ t=0.94
1.86627133470251
% es.EX (V/m) @ t=0.94
-1.2052122489914097
% es.EY (V/m) @ t=0.94
0.26777058484595695
% es.EZ (V/m) @ t=0.94
1.3744985892632435
% es.tEX (V/m) @ t=0.94
-1.2052122489914123
% es.tEY (V/m) @ t=0.94
0
% es.tEZ (V/m) @ t=0.94
1.3744985892632666
% es.Ex (V/m) @ t=0.94
-1.2052122489914097
% es.Ey (V/m) @ t=0.94
0.26777058484595695
% es.Ez (V/m) @ t=0.94
1.3744985892632435
% es.tEx (V/m) @ t=0.94
-1.2052122489914123
% es.tEy (V/m) @ t=0.94
0
% es.tEz (V/m) @ t=0.94
1.3744985892632666
% V (V) @ t=0.94
0.018061737687531984
% es.normE (V/m) @ t=0.96
1.8828975686673548
% es.EX (V/m) @ t=0.96
-1.2159492318125582
% es.EY (V/m) @ t=0.96
0.2701561040089542
% es.EZ (V/m) @ t=0.96
1.386743724303237
% es.tEX (V/m) @ t=0.96
-1.2159492318125542
% es.tEY (V/m) @ t=0.96
0
% es.tEZ (V/m) @ t=0.96
1.3867437243032459
% es.Ex (V/m) @ t=0.96
-1.2159492318125582
% es.Ey (V/m) @ t=0.96
0.2701561040089542
% es.Ez (V/m) @ t=0.96
1.386743724303237
% es.tEx (V/m) @ t=0.96
-1.2159492318125542
% es.tEy (V/m) @ t=0.96
0
% es.tEz (V/m) @ t=0.96
1.3867437243032459
% V (V) @ t=0.96
0.018222643637251852
% es.normE (V/m) @ t=0.98
1.899523802632201
% es.EX (V/m) @ t=0.98
-1.2266862146337147
% es.EY (V/m) @ t=0.98
0.2725416231719624
% es.EZ (V/m) @ t=0.98
1.3989888593432251
% es.tEX (V/m) @ t=0.98
-1.2266862146337179
% es.tEY (V/m) @ t=0.98
0
% es.tEZ (V/m) @ t=0.98
1.3989888593432287
% es.Ex (V/m) @ t=0.98
-1.2266862146337147
% es.Ey (V/m) @ t=0.98
0.2725416231719624
% es.Ez (V/m) @ t=0.98
1.3989888593432251
% es.tEx (V/m) @ t=0.98
-1.2266862146337179
% es.tEy (V/m) @ t=0.98
0
% es.tEz (V/m) @ t=0.98
1.3989888593432287
% V (V) @ t=0.98
0.018383549586971713
% es.normE (V/m) @ t=1
1.9161500365970474
% es.EX (V/m) @ t=1
-1.2374231974548775
% es.EY (V/m) @ t=1
0.2749271423349757
% es.EZ (V/m) @ t=1
1.4112339943832026
% es.tEX (V/m) @ t=1
-1.237423197454866
% es.tEY (V/m) @ t=1
0
% es.tEZ (V/m) @ t=1
1.4112339943832222
% es.Ex (V/m) @ t=1
-1.2374231974548775
% es.Ey (V/m) @ t=1
0.2749271423349757
% es.Ez (V/m) @ t=1
1.4112339943832026
% es.tEx (V/m) @ t=1
-1.237423197454866
% es.tEy (V/m) @ t=1
0
% es.tEz (V/m) @ t=1
1.4112339943832222
% V (V) @ t=1
0.01854445553669158
% es.normE (V/m) @ t=1.02
1.9327762705618765
% es.EX (V/m) @ t=1.02
-1.2481601802760203
% es.EY (V/m) @ t=1.02
0.2773126614979946
% es.EZ (V/m) @ t=1.02
1.4234791294231766
% es.tEX (V/m) @ t=1.02
-1.248160180276023
% es.tEY (V/m) @ t=1.02
0
% es.tEZ (V/m) @ t=1.02
1.4234791294231925
% es.Ex (V/m) @ t=1.02
-1.2481601802760203
% es.Ey (V/m) @ t=1.02
0.2773126614979946
% es.Ez (V/m) @ t=1.02
1.4234791294231766
% es.tEx (V/m) @ t=1.02
-1.248160180276023
% es.tEy (V/m) @ t=1.02
0
% es.tEz (V/m) @ t=1.02
1.4234791294231925
% V (V) @ t=1.02
0.018705361486411443
% es.normE (V/m) @ t=1.04
1.9496127668374288
% es.EX (V/m) @ t=1.04
-1.2590329497660413
% es.EY (V/m) @ t=1.04
0.27972834770509425
% es.EZ (V/m) @ t=1.04
1.4358791203309043
% es.tEX (V/m) @ t=1.04
-1.2590329497660369