% Model:              1 neuron.mph
% Version:            COMSOL 6.1.0.252
% Date:               Mar 22 2023, 18:04
% Dimension:          0
% Nodes:              14017
% Expressions:        14017
% Description:        Electric field norm, Electric field, X component, Electric field, Y component, Electric field, Z component, Tangential electric field, X component, Tangential electric field, Y component, Tangential electric field, Z component, Electric field, x component, Electric field, y component, Electric field, z component, Tangential electric field, x component, Tangential electric field, y component, Tangential electric field, z component, Electric potential
% Length unit:        mm
% x
1.66
% y
12.2
% z
1
% es.normE (V/m) @ t=0
2.7307374156074307
% es.EX (V/m) @ t=0
-0.9733377476812666
% es.EY (V/m) @ t=0
0.3092249089989825
% es.EZ (V/m) @ t=0
2.5247278218190683
% es.tEX (V/m) @ t=0
-0.9733377476812808
% es.tEY (V/m) @ t=0
0
% es.tEZ (V/m) @ t=0
2.5247278218190665
% es.Ex (V/m) @ t=0
-0.9733377476812666
% es.Ey (V/m) @ t=0
0.3092249089989825
% es.Ez (V/m) @ t=0
2.5247278218190683
% es.tEx (V/m) @ t=0
-0.9733377476812808
% es.tEy (V/m) @ t=0
0
% es.tEz (V/m) @ t=0
2.5247278218190665
% V (V) @ t=0
0.013295381860728766
% es.normE (V/m) @ t=0.02
2.3585617029061963
% es.EX (V/m) @ t=0.02
-0.8406802947244344
% es.EY (V/m) @ t=0.02
0.2670802483408057
% es.EZ (V/m) @ t=0.02
2.1806294215305986
% es.tEX (V/m) @ t=0.02
-0.8406802947244486
% es.tEY (V/m) @ t=0.02
0
% es.tEZ (V/m) @ t=0.02
2.180629421530597
% es.Ex (V/m) @ t=0.02
-0.8406802947244344
% es.Ey (V/m) @ t=0.02
0.2670802483408057
% es.Ez (V/m) @ t=0.02
2.1806294215305986
% es.tEx (V/m) @ t=0.02
-0.8406802947244486
% es.tEy (V/m) @ t=0.02
0
% es.tEz (V/m) @ t=0.02
2.180629421530597
% V (V) @ t=0.02
0.011483337130368965
% es.normE (V/m) @ t=0.04
2.380254899225706
% es.EX (V/m) @ t=0.04
-0.8484125673572007
% es.EY (V/m) @ t=0.04
0.26953675507138275
% es.EZ (V/m) @ t=0.04
2.2006860612823385
% es.tEX (V/m) @ t=0.04
-0.8484125673572149
% es.tEY (V/m) @ t=0.04
0
% es.tEZ (V/m) @ t=0.04
2.2006860612823367
% es.Ex (V/m) @ t=0.04
-0.8484125673572007
% es.Ey (V/m) @ t=0.04
0.26953675507138275
% es.Ez (V/m) @ t=0.04
2.2006860612823385
% es.tEx (V/m) @ t=0.04
-0.8484125673572149
% es.tEy (V/m) @ t=0.04
0
% es.tEz (V/m) @ t=0.04
2.2006860612823367
% V (V) @ t=0.04
0.011588956605848286
% es.normE (V/m) @ t=0.06
2.4021032390153287
% es.EX (V/m) @ t=0.06
-0.8562001393543932
% es.EY (V/m) @ t=0.06
0.27201083109924773
% es.EZ (V/m) @ t=0.06
2.2208861401432083
% es.tEX (V/m) @ t=0.06
-0.8562001393544074
% es.tEY (V/m) @ t=0.06
0
% es.tEZ (V/m) @ t=0.06
2.2208861401432127
% es.Ex (V/m) @ t=0.06
-0.8562001393543932
% es.Ey (V/m) @ t=0.06
0.27201083109924773
% es.Ez (V/m) @ t=0.06
2.2208861401432083
% es.tEx (V/m) @ t=0.06
-0.8562001393544074
% es.tEy (V/m) @ t=0.06
0
% es.tEz (V/m) @ t=0.06
2.2208861401432127
% V (V) @ t=0.06
0.011695331601072742
% es.normE (V/m) @ t=0.08
2.4243768674058783
% es.EX (V/m) @ t=0.08
-0.8641393001234473
% es.EY (V/m) @ t=0.08
0.27453306589463944
% es.EZ (V/m) @ t=0.08
2.241479423457024
% es.tEX (V/m) @ t=0.08
-0.8641393001234544
% es.tEY (V/m) @ t=0.08
0
% es.tEZ (V/m) @ t=0.08
2.2414794234570277
% es.Ex (V/m) @ t=0.08
-0.8641393001234473
% es.Ey (V/m) @ t=0.08
0.27453306589463944
% es.Ez (V/m) @ t=0.08
2.241479423457024
% es.tEx (V/m) @ t=0.08
-0.8641393001234544
% es.tEy (V/m) @ t=0.08
0
% es.tEz (V/m) @ t=0.08
2.2414794234570277
% V (V) @ t=0.08
0.01180377718711656
% es.normE (V/m) @ t=0.1
2.446754560520188
% es.EX (V/m) @ t=0.1
-0.8721155534541984
% es.EY (V/m) @ t=0.1
0.2770670847557868
% es.EZ (V/m) @ t=0.1
2.2621689207598523
% es.tEX (V/m) @ t=0.1
-0.8721155534542127
% es.tEY (V/m) @ t=0.1
0
% es.tEZ (V/m) @ t=0.1
2.262168920759853
% es.Ex (V/m) @ t=0.1
-0.8721155534541984
% es.Ey (V/m) @ t=0.1
0.2770670847557868
% es.Ez (V/m) @ t=0.1
2.2621689207598523
% es.tEx (V/m) @ t=0.1
-0.8721155534542127
% es.tEy (V/m) @ t=0.1
0
% es.tEz (V/m) @ t=0.1
2.262168920759853
% V (V) @ t=0.1
0.011912729430195551
% es.normE (V/m) @ t=0.12
2.4691322536344904
% es.EX (V/m) @ t=0.12
-0.8800918067849601
% es.EY (V/m) @ t=0.12
0.27960110361692014
% es.EZ (V/m) @ t=0.12
2.2828584180626734
% es.tEX (V/m) @ t=0.12
-0.8800918067849779
% es.tEY (V/m) @ t=0.12
0
% es.tEZ (V/m) @ t=0.12
2.2828584180626823
% es.Ex (V/m) @ t=0.12
-0.8800918067849601
% es.Ey (V/m) @ t=0.12
0.27960110361692014
% es.Ez (V/m) @ t=0.12
2.2828584180626734
% es.tEx (V/m) @ t=0.12
-0.8800918067849779
% es.tEy (V/m) @ t=0.12
0
% es.tEz (V/m) @ t=0.12
2.2828584180626823
% V (V) @ t=0.12
0.012021681673274545
% es.normE (V/m) @ t=0.14
2.4921940918924577
% es.EX (V/m) @ t=0.14
-0.8883119148210363
% es.EY (V/m) @ t=0.14
0.2822125930492474
% es.EZ (V/m) @ t=0.14
2.304180448094561
% es.tEX (V/m) @ t=0.14
-0.8883119148210399
% es.tEY (V/m) @ t=0.14
0
% es.tEZ (V/m) @ t=0.14
2.304180448094556
% es.Ex (V/m) @ t=0.14
-0.8883119148210363
% es.Ey (V/m) @ t=0.14
0.2822125930492474
% es.Ez (V/m) @ t=0.14
2.304180448094561
% es.tEx (V/m) @ t=0.14
-0.8883119148210399
% es.tEy (V/m) @ t=0.14
0
% es.tEz (V/m) @ t=0.14
2.304180448094556
% V (V) @ t=0.14
0.012133964690819477
% es.normE (V/m) @ t=0.16
2.515687746630568
% es.EX (V/m) @ t=0.16
-0.8966859382674603
% es.EY (V/m) @ t=0.16
0.28487298010171713
% es.EZ (V/m) @ t=0.16
2.3259017180526103
% es.tEX (V/m) @ t=0.16
-0.8966859382674675
% es.tEY (V/m) @ t=0.16
0
% es.tEZ (V/m) @ t=0.16
2.3259017180526094
% es.Ex (V/m) @ t=0.16
-0.8966859382674603
% es.Ey (V/m) @ t=0.16
0.28487298010171713
% es.Ez (V/m) @ t=0.16
2.3259017180526103
% es.tEx (V/m) @ t=0.16
-0.8966859382674675
% es.tEy (V/m) @ t=0.16
0
% es.tEz (V/m) @ t=0.16
2.3259017180526094
% V (V) @ t=0.16
0.012248350015629756
% es.normE (V/m) @ t=0.18
2.539181401368677
% es.EX (V/m) @ t=0.18
-0.9050599617138668
% es.EY (V/m) @ t=0.18
0.28753336715419797
% es.EZ (V/m) @ t=0.18
2.347622988010663
% es.tEX (V/m) @ t=0.18
-0.9050599617138739
% es.tEY (V/m) @ t=0.18
0
% es.tEZ (V/m) @ t=0.18
2.3476229880106594
% es.Ex (V/m) @ t=0.18
-0.9050599617138668
% es.Ey (V/m) @ t=0.18
0.28753336715419797
% es.Ez (V/m) @ t=0.18
2.347622988010663
% es.tEx (V/m) @ t=0.18
-0.9050599617138739
% es.tEy (V/m) @ t=0.18
0
% es.tEz (V/m) @ t=0.18
2.3476229880106594
% V (V) @ t=0.18
0.012362735340440039
% es.normE (V/m) @ t=0.2
2.5626750561067855
% es.EX (V/m) @ t=0.2
-0.913433985160266
% es.EY (V/m) @ t=0.2
0.2901937542066706
% es.EZ (V/m) @ t=0.2
2.36934425796872
% es.tEX (V/m) @ t=0.2
-0.9134339851602731
% es.tEY (V/m) @ t=0.2
0
% es.tEZ (V/m) @ t=0.2
2.3693442579687165
% es.Ex (V/m) @ t=0.2
-0.913433985160266
% es.Ey (V/m) @ t=0.2
0.2901937542066706
% es.Ez (V/m) @ t=0.2
2.36934425796872
% es.tEx (V/m) @ t=0.2
-0.9134339851602731
% es.tEy (V/m) @ t=0.2
0
% es.tEz (V/m) @ t=0.2
2.3693442579687165
% V (V) @ t=0.2
0.012477120665250325
% es.normE (V/m) @ t=0.22
2.586168710844909
% es.EX (V/m) @ t=0.22
-0.9218080086066864
% es.EY (V/m) @ t=0.22
0.29285414125913944
% es.EZ (V/m) @ t=0.22
2.391065527926785
% es.tEX (V/m) @ t=0.22
-0.9218080086067006
% es.tEY (V/m) @ t=0.22
0
% es.tEZ (V/m) @ t=0.22
2.3910655279267914
% es.Ex (V/m) @ t=0.22
-0.9218080086066864
% es.Ey (V/m) @ t=0.22
0.29285414125913944
% es.Ez (V/m) @ t=0.22
2.391065527926785
% es.tEx (V/m) @ t=0.22
-0.9218080086067006
% es.tEy (V/m) @ t=0.22
0
% es.tEz (V/m) @ t=0.22
2.3910655279267914
% V (V) @ t=0.22
0.012591505990060606
% es.normE (V/m) @ t=0.24
2.609662365583017
% es.EX (V/m) @ t=0.24
-0.9301820320531
% es.EY (V/m) @ t=0.24
0.2955145283116165
% es.EZ (V/m) @ t=0.24
2.4127867978848334
% es.tEX (V/m) @ t=0.24
-0.9301820320531142
% es.tEY (V/m) @ t=0.24
0
% es.tEZ (V/m) @ t=0.24
2.4127867978848343
% es.Ex (V/m) @ t=0.24
-0.9301820320531
% es.Ey (V/m) @ t=0.24
0.2955145283116165
% es.Ez (V/m) @ t=0.24
2.4127867978848334
% es.tEx (V/m) @ t=0.24
-0.9301820320531142
% es.tEy (V/m) @ t=0.24
0
% es.tEz (V/m) @ t=0.24
2.4127867978848343
% V (V) @ t=0.24
0.012705891314870888
% es.normE (V/m) @ t=0.26
2.6337349625427837
% es.EX (V/m) @ t=0.26
-0.9387624168536051
% es.EY (V/m) @ t=0.26
0.29824048616036936
% es.EZ (V/m) @ t=0.26
2.4350433320122438
% es.tEX (V/m) @ t=0.26
-0.9387624168536193
% es.tEY (V/m) @ t=0.26
0
% es.tEZ (V/m) @ t=0.26
2.4350433320122438
% es.Ex (V/m) @ t=0.26
-0.9387624168536051
% es.Ey (V/m) @ t=0.26
0.29824048616036936
% es.Ez (V/m) @ t=0.26
2.4350433320122438
% es.tEx (V/m) @ t=0.26
-0.9387624168536193
% es.tEy (V/m) @ t=0.26
0
% es.tEz (V/m) @ t=0.26
2.4350433320122438
% V (V) @ t=0.26
0.01282309745503102
% es.normE (V/m) @ t=0.28
2.659720407261358
% es.EX (V/m) @ t=0.28
-0.9480246276445421
% es.EY (V/m) @ t=0.28
0.3011830924862895
% es.EZ (V/m) @ t=0.28
2.4590683999042016
% es.tEX (V/m) @ t=0.28
-0.9480246276445563
% es.tEY (V/m) @ t=0.28
0
% es.tEZ (V/m) @ t=0.28
2.459068399904206
% es.Ex (V/m) @ t=0.28
-0.9480246276445421
% es.Ey (V/m) @ t=0.28
0.3011830924862895
% es.Ez (V/m) @ t=0.28
2.4590683999042016
% es.tEx (V/m) @ t=0.28
-0.9480246276445563
% es.tEy (V/m) @ t=0.28
0
% es.tEz (V/m) @ t=0.28
2.459068399904206
% V (V) @ t=0.28
0.012949623679507024
% es.normE (V/m) @ t=0.3
2.685705851979926
% es.EX (V/m) @ t=0.3
-0.9572868384354933
% es.EY (V/m) @ t=0.3
0.30412569881221185
% es.EZ (V/m) @ t=0.3
2.483093467796146
% es.tEX (V/m) @ t=0.3
-0.9572868384355004
% es.tEY (V/m) @ t=0.3
0
% es.tEZ (V/m) @ t=0.3
2.48309346779614
% es.Ex (V/m) @ t=0.3
-0.9572868384354933
% es.Ey (V/m) @ t=0.3
0.30412569881221185
% es.Ez (V/m) @ t=0.3
2.483093467796146
% es.tEx (V/m) @ t=0.3
-0.9572868384355004
% es.tEy (V/m) @ t=0.3
0
% es.tEz (V/m) @ t=0.3
2.48309346779614
% V (V) @ t=0.3
0.013076149903983026
% es.normE (V/m) @ t=0.32
2.711691296698487
% es.EX (V/m) @ t=0.32
-0.9665490492264159
% es.EY (V/m) @ t=0.32
0.3070683051381231
% es.EZ (V/m) @ t=0.32
2.5071185356880923
% es.tEX (V/m) @ t=0.32
-0.9665490492264301
% es.tEY (V/m) @ t=0.32
0
% es.tEZ (V/m) @ t=0.32
2.5071185356880896
% es.Ex (V/m) @ t=0.32
-0.9665490492264159
% es.Ey (V/m) @ t=0.32
0.3070683051381231
% es.Ez (V/m) @ t=0.32
2.5071185356880923
% es.tEx (V/m) @ t=0.32
-0.9665490492264301
% es.tEy (V/m) @ t=0.32
0
% es.tEz (V/m) @ t=0.32
2.5071185356880896
% V (V) @ t=0.32
0.01320267612845903
% es.normE (V/m) @ t=0.34
2.7376767414170646
% es.EX (V/m) @ t=0.34
-0.9758112600173565
% es.EY (V/m) @ t=0.34
0.31001091146404347
% es.EZ (V/m) @ t=0.34
2.5311436035800456
% es.tEX (V/m) @ t=0.34
-0.9758112600173743
% es.tEY (V/m) @ t=0.34
0
% es.tEZ (V/m) @ t=0.34
2.5311436035800448
% es.Ex (V/m) @ t=0.34
-0.9758112600173565
% es.Ey (V/m) @ t=0.34
0.31001091146404347
% es.Ez (V/m) @ t=0.34
2.5311436035800456
% es.tEx (V/m) @ t=0.34
-0.9758112600173743
% es.tEy (V/m) @ t=0.34
0
% es.tEz (V/m) @ t=0.34
2.5311436035800448
% V (V) @ t=0.34
0.013329202352935034
% es.normE (V/m) @ t=0.36
2.763662186135636
% es.EX (V/m) @ t=0.36
-0.9850734708082933
% es.EY (V/m) @ t=0.36
0.31295351778997627
% es.EZ (V/m) @ t=0.36
2.5551686714719892
% es.tEX (V/m) @ t=0.36
-0.9850734708083111
% es.tEY (V/m) @ t=0.36
0
% es.tEZ (V/m) @ t=0.36
2.555168671471993
% es.Ex (V/m) @ t=0.36
-0.9850734708082933
% es.Ey (V/m) @ t=0.36
0.31295351778997627
% es.Ez (V/m) @ t=0.36
2.5551686714719892
% es.tEx (V/m) @ t=0.36
-0.9850734708083111
% es.tEy (V/m) @ t=0.36
0
% es.tEz (V/m) @ t=0.36
2.555168671471993
% V (V) @ t=0.36
0.013455728577411036
% es.normE (V/m) @ t=0.38
2.789647630854207
% es.EX (V/m) @ t=0.38
-0.9943356815992339
% es.EY (V/m) @ t=0.38
0.31589612411589485
% es.EZ (V/m) @ t=0.38
2.579193739363931
% es.tEX (V/m) @ t=0.38
-0.9943356815992481
% es.tEY (V/m) @ t=0.38
0
% es.tEZ (V/m) @ t=0.38
2.57919373936393
% es.Ex (V/m) @ t=0.38
-0.9943356815992339
% es.Ey (V/m) @ t=0.38
0.31589612411589485
% es.Ez (V/m) @ t=0.38
2.579193739363931
% es.tEx (V/m) @ t=0.38
-0.9943356815992481
% es.tEy (V/m) @ t=0.38
0
% es.tEz (V/m) @ t=0.38
2.57919373936393
% V (V) @ t=0.38
0.013582254801887038
% es.normE (V/m) @ t=0.4
2.8156330755727925
% es.EX (V/m) @ t=0.4
-1.0035978923901636
% es.EY (V/m) @ t=0.4
0.31883873044182764
% es.EZ (V/m) @ t=0.4
2.603218807255888
% es.tEX (V/m) @ t=0.4
-1.0035978923901778
% es.tEY (V/m) @ t=0.4
0
% es.tEZ (V/m) @ t=0.4
2.6032188072558835
% es.Ex (V/m) @ t=0.4
-1.0035978923901636
% es.Ey (V/m) @ t=0.4
0.31883873044182764
% es.Ez (V/m) @ t=0.4
2.603218807255888
% es.tEx (V/m) @ t=0.4
-1.0035978923901778
% es.tEy (V/m) @ t=0.4
0
% es.tEz (V/m) @ t=0.4
2.6032188072558835
% V (V) @ t=0.4
0.013708781026363042
% es.normE (V/m) @ t=0.42
2.841618520291378
% es.EX (V/m) @ t=0.42
-1.0128601031811149
% es.EY (V/m) @ t=0.42
0.3217813367677551
% es.EZ (V/m) @ t=0.42
2.627243875147835
% es.tEX (V/m) @ t=0.42
-1.012860103181129
% es.tEY (V/m) @ t=0.42
0
% es.tEZ (V/m) @ t=0.42
2.627243875147835
% es.Ex (V/m) @ t=0.42
-1.0128601031811149
% es.Ey (V/m) @ t=0.42
0.3217813367677551
% es.Ez (V/m) @ t=0.42
2.627243875147835
% es.tEx (V/m) @ t=0.42
-1.012860103181129
% es.tEy (V/m) @ t=0.42
0
% es.tEz (V/m) @ t=0.42
2.627243875147835
% V (V) @ t=0.42
0.013835307250839047
% es.normE (V/m) @ t=0.44
2.8676039650099523
% es.EX (V/m) @ t=0.44
-1.0221223139720481
% es.EY (V/m) @ t=0.44
0.32472394309366925
% es.EZ (V/m) @ t=0.44
2.651268943039777
% es.tEX (V/m) @ t=0.44
-1.0221223139720517
% es.tEY (V/m) @ t=0.44
0
% es.tEZ (V/m) @ t=0.44
2.6512689430397813
% es.Ex (V/m) @ t=0.44
-1.0221223139720481
% es.Ey (V/m) @ t=0.44
0.32472394309366925
% es.Ez (V/m) @ t=0.44
2.651268943039777
% es.tEx (V/m) @ t=0.44
-1.0221223139720517
% es.tEy (V/m) @ t=0.44
0
% es.tEz (V/m) @ t=0.44
2.6512689430397813
% V (V) @ t=0.44
0.013961833475315046
% es.normE (V/m) @ t=0.46
2.8935894097285413
% es.EX (V/m) @ t=0.46
-1.031384524762978
% es.EY (V/m) @ t=0.46
0.32766654941959583
% es.EZ (V/m) @ t=0.46
2.675294010931731
% es.tEX (V/m) @ t=0.46
-1.0313845247629958
% es.tEY (V/m) @ t=0.46
0
% es.tEZ (V/m) @ t=0.46
2.6752940109317347
% es.Ex (V/m) @ t=0.46
-1.031384524762978
% es.Ey (V/m) @ t=0.46
0.32766654941959583
% es.Ez (V/m) @ t=0.46
2.675294010931731
% es.tEx (V/m) @ t=0.46
-1.0313845247629958
% es.tEy (V/m) @ t=0.46
0
% es.tEz (V/m) @ t=0.46
2.6752940109317347
% V (V) @ t=0.46
0.014088359699791053
% es.normE (V/m) @ t=0.48
2.91957485444713
% es.EX (V/m) @ t=0.48
-1.0406467355539255
% es.EY (V/m) @ t=0.48
0.3306091557455133
% es.EZ (V/m) @ t=0.48
2.6993190788236774
% es.tEX (V/m) @ t=0.48
-1.0406467355539397
% es.tEY (V/m) @ t=0.48
0
% es.tEZ (V/m) @ t=0.48
2.699319078823681
% es.Ex (V/m) @ t=0.48
-1.0406467355539255
% es.Ey (V/m) @ t=0.48
0.3306091557455133
% es.Ez (V/m) @ t=0.48
2.6993190788236774
% es.tEx (V/m) @ t=0.48
-1.0406467355539397
% es.tEy (V/m) @ t=0.48
0
% es.tEz (V/m) @ t=0.48
2.699319078823681
% V (V) @ t=0.48
0.014214885924267054
% es.normE (V/m) @ t=0.5
2.9455602991657193
% es.EX (V/m) @ t=0.5
-1.049908946344866
% es.EY (V/m) @ t=0.5
0.33355176207144366
% es.EZ (V/m) @ t=0.5
2.7233441467156245
% es.tEX (V/m) @ t=0.5
-1.0499089463448839
% es.tEY (V/m) @ t=0.5
0
% es.tEZ (V/m) @ t=0.5
2.7233441467156254
% es.Ex (V/m) @ t=0.5
-1.049908946344866
% es.Ey (V/m) @ t=0.5
0.33355176207144366
% es.Ez (V/m) @ t=0.5
2.7233441467156245
% es.tEx (V/m) @ t=0.5
-1.0499089463448839
% es.tEy (V/m) @ t=0.5
0
% es.tEz (V/m) @ t=0.5
2.7233441467156254
% V (V) @ t=0.5
0.014341412148743057
% es.normE (V/m) @ t=0.52
2.9728641219452685
% es.EX (V/m) @ t=0.52
-1.059641077796348
% es.EY (V/m) @ t=0.52
0.3366436621958888
% es.EZ (V/m) @ t=0.52
2.748588132440757
% es.tEX (V/m) @ t=0.52
-1.0596410777963658
% es.tEY (V/m) @ t=0.52
0
% es.tEZ (V/m) @ t=0.52
2.748588132440762
% es.Ex (V/m) @ t=0.52
-1.059641077796348
% es.Ey (V/m) @ t=0.52
0.3366436621958888
% es.Ez (V/m) @ t=0.52
2.748588132440757
% es.tEx (V/m) @ t=0.52
-1.0596410777963658
% es.tEy (V/m) @ t=0.52
0
% es.tEz (V/m) @ t=0.52
2.748588132440762
% V (V) @ t=0.52
0.0144743577369171
% es.normE (V/m) @ t=0.54
3.0016492001073916
% es.EX (V/m) @ t=0.54
-1.0699011856519267
% es.EY (V/m) @ t=0.54
0.3399033004291403
% es.EZ (V/m) @ t=0.54
2.775201625634776
% es.tEX (V/m) @ t=0.54
-1.0699011856519445
% es.tEY (V/m) @ t=0.54
0
% es.tEZ (V/m) @ t=0.54
2.7752016256347805
% es.Ex (V/m) @ t=0.54
-1.0699011856519267
% es.Ey (V/m) @ t=0.54
0.3399033004291403
% es.Ez (V/m) @ t=0.54
2.775201625634776
% es.tEx (V/m) @ t=0.54
-1.0699011856519445
% es.tEy (V/m) @ t=0.54
0
% es.tEz (V/m) @ t=0.54
2.7752016256347805
% V (V) @ t=0.54
0.014614515760819442
% es.normE (V/m) @ t=0.56
3.0304342782694977
% es.EX (V/m) @ t=0.56
-1.0801612935074698
% es.EY (V/m) @ t=0.56
0.343162938662406
% es.EZ (V/m) @ t=0.56
2.8018151188287854
% es.tEX (V/m) @ t=0.56
-1.0801612935074805
% es.tEY (V/m) @ t=0.56
0
% es.tEZ (V/m) @ t=0.56
2.8018151188287845
% es.Ex (V/m) @ t=0.56
-1.0801612935074698
% es.Ey (V/m) @ t=0.56
0.343162938662406
% es.Ez (V/m) @ t=0.56
2.8018151188287854
% es.tEx (V/m) @ t=0.56
-1.0801612935074805
% es.tEy (V/m) @ t=0.56
0
% es.tEz (V/m) @ t=0.56
2.8018151188287845
% V (V) @ t=0.56
0.01475467378472179
% es.normE (V/m) @ t=0.58
3.059219356431626
% es.EX (V/m) @ t=0.58
-1.0904214013630449
% es.EY (V/m) @ t=0.58
0.34642257689566813
% es.EZ (V/m) @ t=0.58
2.8284286120228046
% es.tEX (V/m) @ t=0.58
-1.090421401363059
% es.tEY (V/m) @ t=0.58
0
% es.tEZ (V/m) @ t=0.58
2.8284286120227993
% es.Ex (V/m) @ t=0.58
-1.0904214013630449
% es.Ey (V/m) @ t=0.58
0.34642257689566813
% es.Ez (V/m) @ t=0.58
2.8284286120228046
% es.tEx (V/m) @ t=0.58
-1.090421401363059
% es.tEy (V/m) @ t=0.58
0
% es.tEz (V/m) @ t=0.58
2.8284286120227993
% V (V) @ t=0.58
0.014894831808624137
% es.normE (V/m) @ t=0.6
3.088004434593733
% es.EX (V/m) @ t=0.6
-1.1006815092186093
% es.EY (V/m) @ t=0.6
0.3496822151289256
% es.EZ (V/m) @ t=0.6
2.855042105216805
% es.tEX (V/m) @ t=0.6
-1.1006815092186235
% es.tEY (V/m) @ t=0.6
0
% es.tEZ (V/m) @ t=0.6
2.8550421052168087
% es.Ex (V/m) @ t=0.6
-1.1006815092186093
% es.Ey (V/m) @ t=0.6
0.3496822151289256
% es.Ez (V/m) @ t=0.6
2.855042105216805
% es.tEx (V/m) @ t=0.6
-1.1006815092186235
% es.tEy (V/m) @ t=0.6
0
% es.tEz (V/m) @ t=0.6
2.8550421052168087
% V (V) @ t=0.6
0.015034989832526482
% es.normE (V/m) @ t=0.62
3.116789512755853
% es.EX (V/m) @ t=0.62
-1.1109416170741595
% es.EY (V/m) @ t=0.62
0.35294185336218
% es.EZ (V/m) @ t=0.62
2.8816555984108208
% es.tEX (V/m) @ t=0.62
-1.1109416170741737
% es.tEY (V/m) @ t=0.62
0
% es.tEZ (V/m) @ t=0.62
2.88165559841082
% es.Ex (V/m) @ t=0.62
-1.1109416170741595
% es.Ey (V/m) @ t=0.62
0.35294185336218
% es.Ez (V/m) @ t=0.62
2.8816555984108208
% es.tEx (V/m) @ t=0.62
-1.1109416170741737
% es.tEy (V/m) @ t=0.62
0
% es.tEz (V/m) @ t=0.62
2.88165559841082
% V (V) @ t=0.62
0.015175147856428827
% es.normE (V/m) @ t=0.64
3.145574590917998
% es.EX (V/m) @ t=0.64
-1.1212017249297523
% es.EY (V/m) @ t=0.64
0.35620149159542525
% es.EZ (V/m) @ t=0.64
2.908269091604847
% es.tEX (V/m) @ t=0.64
-1.1212017249297666
% es.tEY (V/m) @ t=0.64
0
% es.tEZ (V/m) @ t=0.64
2.908269091604838
% es.Ex (V/m) @ t=0.64
-1.1212017249297523
% es.Ey (V/m) @ t=0.64
0.35620149159542525
% es.Ez (V/m) @ t=0.64
2.908269091604847
% es.tEx (V/m) @ t=0.64
-1.1212017249297666
% es.tEy (V/m) @ t=0.64
0
% es.tEz (V/m) @ t=0.64
2.908269091604838
% V (V) @ t=0.64
0.015315305880331174
% es.normE (V/m) @ t=0.66
3.1743596690801175
% es.EX (V/m) @ t=0.66
-1.1314618327853099
% es.EY (V/m) @ t=0.66
0.3594611298287045
% es.EZ (V/m) @ t=0.66
2.934882584798853
% es.tEX (V/m) @ t=0.66
-1.131461832785317
% es.tEY (V/m) @ t=0.66
0
% es.tEZ (V/m) @ t=0.66
2.9348825847988564
% es.Ex (V/m) @ t=0.66
-1.1314618327853099
% es.Ey (V/m) @ t=0.66
0.3594611298287045
% es.Ez (V/m) @ t=0.66
2.934882584798853
% es.tEx (V/m) @ t=0.66
-1.131461832785317
% es.tEy (V/m) @ t=0.66
0
% es.tEz (V/m) @ t=0.66
2.9348825847988564
% V (V) @ t=0.66
0.015455463904233522
% es.normE (V/m) @ t=0.68
3.2031447472422476
% es.EX (V/m) @ t=0.68
-1.141721940640874
% es.EY (V/m) @ t=0.68
0.36272076806194153
% es.EZ (V/m) @ t=0.68
2.961496077992871
% es.tEX (V/m) @ t=0.68
-1.1417219406408812
% es.tEY (V/m) @ t=0.68
0
% es.tEZ (V/m) @ t=0.68
2.961496077992871
% es.Ex (V/m) @ t=0.68
-1.141721940640874
% es.Ey (V/m) @ t=0.68
0.36272076806194153
% es.Ez (V/m) @ t=0.68
2.961496077992871
% es.tEx (V/m) @ t=0.68
-1.1417219406408812
% es.tEy (V/m) @ t=0.68
0
% es.tEz (V/m) @ t=0.68
2.961496077992871
% V (V) @ t=0.68
0.015595621928135864
% es.normE (V/m) @ t=0.7
3.2319298254043787
% es.EX (V/m) @ t=0.7
-1.1519820484964316
% es.EY (V/m) @ t=0.7
0.3659804062952101
% es.EZ (V/m) @ t=0.7
2.988109571186887
% es.tEX (V/m) @ t=0.7
-1.15198204849646
% es.tEY (V/m) @ t=0.7
0
% es.tEZ (V/m) @ t=0.7
2.9881095711868895
% es.Ex (V/m) @ t=0.7
-1.1519820484964316
% es.Ey (V/m) @ t=0.7
0.3659804062952101
% es.Ez (V/m) @ t=0.7
2.988109571186887
% es.tEx (V/m) @ t=0.7
-1.15198204849646
% es.tEy (V/m) @ t=0.7
0
% es.tEz (V/m) @ t=0.7
2.9881095711868895
% V (V) @ t=0.7
0.01573577995203821
% es.normE (V/m) @ t=0.72
3.2607149035665204
% es.EX (V/m) @ t=0.72
-1.162242156352017
% es.EY (V/m) @ t=0.72
0.36924004452847736
% es.EZ (V/m) @ t=0.72
3.0147230643809033
% es.tEX (V/m) @ t=0.72
-1.1622421563520384
% es.tEY (V/m) @ t=0.72
0
% es.tEZ (V/m) @ t=0.72
3.0147230643809095
% es.Ex (V/m) @ t=0.72
-1.162242156352017
% es.Ey (V/m) @ t=0.72
0.36924004452847736
% es.Ez (V/m) @ t=0.72
3.0147230643809033
% es.tEx (V/m) @ t=0.72
-1.1622421563520384
% es.tEy (V/m) @ t=0.72
0
% es.tEz (V/m) @ t=0.72
3.0147230643809095
% V (V) @ t=0.72
0.015875937975940557
% es.normE (V/m) @ t=0.74
3.2894999817286434
% es.EX (V/m) @ t=0.74
-1.1725022642075673
% es.EY (V/m) @ t=0.74
0.37249968276172685
% es.EZ (V/m) @ t=0.74
3.041336557574911
% es.tEX (V/m) @ t=0.74
-1.1725022642075886
% es.tEY (V/m) @ t=0.74
0
% es.tEZ (V/m) @ t=0.74
3.04133655757491
% es.Ex (V/m) @ t=0.74
-1.1725022642075673
% es.Ey (V/m) @ t=0.74
0.37249968276172685
% es.Ez (V/m) @ t=0.74
3.041336557574911
% es.tEx (V/m) @ t=0.74
-1.1725022642075886
% es.tEy (V/m) @ t=0.74
0
% es.tEz (V/m) @ t=0.74
3.04133655757491
% V (V) @ t=0.74
0.016016095999842904
% es.normE (V/m) @ t=0.76
3.318285059890775
% es.EX (V/m) @ t=0.76
-1.1827623720631177
% es.EY (V/m) @ t=0.76
0.3757593209949821
% es.EZ (V/m) @ t=0.76
3.0679500507689275
% es.tEX (V/m) @ t=0.76
-1.1827623720631533
% es.tEY (V/m) @ t=0.76
0
% es.tEZ (V/m) @ t=0.76
3.0679500507689177
% es.Ex (V/m) @ t=0.76
-1.1827623720631177
% es.Ey (V/m) @ t=0.76
0.3757593209949821
% es.Ez (V/m) @ t=0.76
3.0679500507689275
% es.tEx (V/m) @ t=0.76
-1.1827623720631533
% es.tEy (V/m) @ t=0.76
0
% es.tEz (V/m) @ t=0.76
3.0679500507689177
% V (V) @ t=0.76
0.016156254023745254
% es.normE (V/m) @ t=0.78
3.349306195910671
% es.EX (V/m) @ t=0.78
-1.1938194919263407
% es.EY (V/m) @ t=0.78
0.37927215852910057
% es.EZ (V/m) @ t=0.78
3.09663091285313
% es.tEX (V/m) @ t=0.78
-1.193819491926355
% es.tEY (V/m) @ t=0.78
0
% es.tEZ (V/m) @ t=0.78
3.0966309128531275
% es.Ex (V/m) @ t=0.78
-1.1938194919263407
% es.Ey (V/m) @ t=0.78
0.37927215852910057
% es.Ez (V/m) @ t=0.78
3.09663091285313
% es.tEx (V/m) @ t=0.78
-1.193819491926355
% es.tEy (V/m) @ t=0.78
0
% es.tEz (V/m) @ t=0.78
3.0966309128531275
% V (V) @ t=0.78
0.01630729743313842
% es.normE (V/m) @ t=0.8
3.381242950653833
% es.EX (V/m) @ t=0.8
-1.2052029714650545
% es.EY (V/m) @ t=0.8
0.38288867585833475
% es.EZ (V/m) @ t=0.8
3.1261583190717808
% es.tEX (V/m) @ t=0.8
-1.2052029714650758
% es.tEY (V/m) @ t=0.8
0
% es.tEZ (V/m) @ t=0.8
3.1261583190717808
% es.Ex (V/m) @ t=0.8
-1.2052029714650545
% es.Ey (V/m) @ t=0.8
0.38288867585833475
% es.Ez (V/m) @ t=0.8
3.1261583190717808
% es.tEx (V/m) @ t=0.8
-1.2052029714650758
% es.tEy (V/m) @ t=0.8
0
% es.tEz (V/m) @ t=0.8
3.1261583190717808
% V (V) @ t=0.8
0.016462798179237285
% es.normE (V/m) @ t=0.82
3.4131797053969857
% es.EX (V/m) @ t=0.82
-1.2165864510037685
% es.EY (V/m) @ t=0.82
0.3865051931875727
% es.EZ (V/m) @ t=0.82
3.1556857252904207
% es.tEX (V/m) @ t=0.82
-1.2165864510037827
% es.tEY (V/m) @ t=0.82
0
% es.tEZ (V/m) @ t=0.82
3.155685725290425
% es.Ex (V/m) @ t=0.82
-1.2165864510037685
% es.Ey (V/m) @ t=0.82
0.3865051931875727
% es.Ez (V/m) @ t=0.82
3.1556857252904207
% es.tEx (V/m) @ t=0.82
-1.2165864510037827
% es.tEy (V/m) @ t=0.82
0
% es.tEz (V/m) @ t=0.82
3.155685725290425
% V (V) @ t=0.82
0.01661829892533615
% es.normE (V/m) @ t=0.84
3.4451164601401487
% es.EX (V/m) @ t=0.84
-1.227969930542461
% es.EY (V/m) @ t=0.84
0.3901217105168131
% es.EZ (V/m) @ t=0.84
3.1852131315090793
% es.tEX (V/m) @ t=0.84
-1.2279699305424752
% es.tEY (V/m) @ t=0.84
0
% es.tEZ (V/m) @ t=0.84
3.1852131315090766
% es.Ex (V/m) @ t=0.84
-1.227969930542461
% es.Ey (V/m) @ t=0.84
0.3901217105168131
% es.Ez (V/m) @ t=0.84
3.1852131315090793
% es.tEx (V/m) @ t=0.84
-1.2279699305424752
% es.tEy (V/m) @ t=0.84
0
% es.tEz (V/m) @ t=0.84
3.1852131315090766
% V (V) @ t=0.84
0.016773799671435018
% es.normE (V/m) @ t=0.86
3.477053214883316
% es.EX (V/m) @ t=0.86
-1.2393534100811963
% es.EY (V/m) @ t=0.86
0.39373822784605106
% es.EZ (V/m) @ t=0.86
3.2147405377277236
% es.tEX (V/m) @ t=0.86
-1.2393534100812105
% es.tEY (V/m) @ t=0.86
0
% es.tEZ (V/m) @ t=0.86
3.2147405377277245
% es.Ex (V/m) @ t=0.86
-1.2393534100811963
% es.Ey (V/m) @ t=0.86
0.39373822784605106
% es.Ez (V/m) @ t=0.86
3.2147405377277236
% es.tEx (V/m) @ t=0.86
-1.2393534100812105
% es.tEy (V/m) @ t=0.86
0
% es.tEz (V/m) @ t=0.86
3.2147405377277245
% V (V) @ t=0.86
0.016929300417533884
% es.normE (V/m) @ t=0.88
3.5089899696264766
% es.EX (V/m) @ t=0.88
-1.2507368896198892
% es.EY (V/m) @ t=0.88
0.39735474517527924
% es.EZ (V/m) @ t=0.88
3.2442679439463795
% es.tEX (V/m) @ t=0.88
-1.2507368896199034
% es.tEY (V/m) @ t=0.88
0
% es.tEZ (V/m) @ t=0.88
3.2442679439463813
% es.Ex (V/m) @ t=0.88
-1.2507368896198892
% es.Ey (V/m) @ t=0.88
0.39735474517527924
% es.Ez (V/m) @ t=0.88
3.2442679439463795
% es.tEx (V/m) @ t=0.88
-1.2507368896199034
% es.tEy (V/m) @ t=0.88
0
% es.tEz (V/m) @ t=0.88
3.2442679439463813
% V (V) @ t=0.88
0.01708480116363275
% es.normE (V/m) @ t=0.9
3.540926724369645
% es.EX (V/m) @ t=0.9
-1.262120369158624
% es.EY (V/m) @ t=0.9
0.4009712625045383
% es.EZ (V/m) @ t=0.9
3.273795350165023
% es.tEX (V/m) @ t=0.9
-1.2621203691586382
% es.tEY (V/m) @ t=0.9
0
% es.tEZ (V/m) @ t=0.9
3.2737953501650185
% es.Ex (V/m) @ t=0.9
-1.262120369158624
% es.Ey (V/m) @ t=0.9
0.4009712625045383
% es.Ez (V/m) @ t=0.9
3.273795350165023
% es.tEx (V/m) @ t=0.9
-1.2621203691586382
% es.tEy (V/m) @ t=0.9
0
% es.tEz (V/m) @ t=0.9
3.2737953501650185
% V (V) @ t=0.9
0.01724030190973162
% es.normE (V/m) @ t=0.92
3.572863479112799
% es.EX (V/m) @ t=0.92
-1.2735038486973165
% es.EY (V/m) @ t=0.92
0.4045877798337649
% es.EZ (V/m) @ t=0.92
3.303322756383669
% es.tEX (V/m) @ t=0.92
-1.2735038486973307
% es.tEY (V/m) @ t=0.92
0
% es.tEZ (V/m) @ t=0.92
3.3033227563836682
% es.Ex (V/m) @ t=0.92
-1.2735038486973165
% es.Ey (V/m) @ t=0.92
0.4045877798337649
% es.Ez (V/m) @ t=0.92
3.303322756383669
% es.tEx (V/m) @ t=0.92
-1.2735038486973307
% es.tEy (V/m) @ t=0.92
0
% es.tEz (V/m) @ t=0.92
3.3033227563836682
% V (V) @ t=0.92
0.01739580265583049
% es.normE (V/m) @ t=0.94
3.60480023385597
% es.EX (V/m) @ t=0.94
-1.2848873282360518
% es.EY (V/m) @ t=0.94
0.40820429716297557
% es.EZ (V/m) @ t=0.94
3.3328501626023206
% es.tEX (V/m) @ t=0.94
-1.284887328236066
% es.tEY (V/m) @ t=0.94
0
% es.tEZ (V/m) @ t=0.94
3.332850162602316
% es.Ex (V/m) @ t=0.94
-1.2848873282360518
% es.Ey (V/m) @ t=0.94
0.40820429716297557
% es.Ez (V/m) @ t=0.94
3.3328501626023206
% es.tEx (V/m) @ t=0.94
-1.284887328236066
% es.tEy (V/m) @ t=0.94
0
% es.tEz (V/m) @ t=0.94
3.332850162602316
% V (V) @ t=0.94
0.01755130340192935
% es.normE (V/m) @ t=0.96
3.6367369885991225
% es.EX (V/m) @ t=0.96
-1.2962708077747158
% es.EY (V/m) @ t=0.96
0.4118208144922151
% es.EZ (V/m) @ t=0.96
3.362377568820974
% es.tEX (V/m) @ t=0.96
-1.29627080777473
% es.tEY (V/m) @ t=0.96
0
% es.tEZ (V/m) @ t=0.96
3.3623775688209676
% es.Ex (V/m) @ t=0.96
-1.2962708077747158
% es.Ey (V/m) @ t=0.96
0.4118208144922151
% es.Ez (V/m) @ t=0.96
3.362377568820974
% es.tEx (V/m) @ t=0.96
-1.29627080777473
% es.tEy (V/m) @ t=0.96
0
% es.tEz (V/m) @ t=0.96
3.3623775688209676
% V (V) @ t=0.96
0.017706804148028218
% es.normE (V/m) @ t=0.98
3.6686737433422927
% es.EX (V/m) @ t=0.98
-1.307654287313458
% es.EY (V/m) @ t=0.98
0.4154373318214546
% es.EZ (V/m) @ t=0.98
3.3919049750396164
% es.tEX (V/m) @ t=0.98
-1.3076542873134793
% es.tEY (V/m) @ t=0.98
0
% es.tEZ (V/m) @ t=0.98
3.3919049750396137
% es.Ex (V/m) @ t=0.98
-1.307654287313458
% es.Ey (V/m) @ t=0.98
0.4154373318214546
% es.Ez (V/m) @ t=0.98
3.3919049750396164
% es.tEx (V/m) @ t=0.98
-1.3076542873134793
% es.tEy (V/m) @ t=0.98
0
% es.tEz (V/m) @ t=0.98
3.3919049750396137
% V (V) @ t=0.98
0.01786230489412709
% es.normE (V/m) @ t=1
3.7006104980854615
% es.EX (V/m) @ t=1
-1.319037766852165
% es.EY (V/m) @ t=1
0.4190538491506923
% es.EZ (V/m) @ t=1
3.4214323812582697
% es.tEX (V/m) @ t=1
-1.3190377668521862
% es.tEY (V/m) @ t=1
0
% es.tEZ (V/m) @ t=1
3.421432381258265
% es.Ex (V/m) @ t=1
-1.319037766852165
% es.Ey (V/m) @ t=1
0.4190538491506923
% es.Ez (V/m) @ t=1
3.4214323812582697
% es.tEx (V/m) @ t=1
-1.3190377668521862
% es.tEy (V/m) @ t=1
0
% es.tEz (V/m) @ t=1
3.421432381258265
% V (V) @ t=1
0.018017805640225953
% es.normE (V/m) @ t=1.02
3.7325472528286348
% es.EX (V/m) @ t=1.02
-1.330421246390886
% es.EY (V/m) @ t=1.02
0.4226703664799376
% es.EZ (V/m) @ t=1.02
3.4509597874769193
% es.tEX (V/m) @ t=1.02
-1.3304212463909073
% es.tEY (V/m) @ t=1.02
0
% es.tEZ (V/m) @ t=1.02
3.4509597874769167
% es.Ex (V/m) @ t=1.02
-1.330421246390886
% es.Ey (V/m) @ t=1.02
0.4226703664799376
% es.Ez (V/m) @ t=1.02
3.4509597874769193
% es.tEx (V/m) @ t=1.02
-1.3304212463909073
% es.tEy (V/m) @ t=1.02
0
% es.tEz (V/m) @ t=1.02
3.4509597874769167
% V (V) @ t=1.02
0.01817330638632482
% es.normE (V/m) @ t=1.04
3.765961381858074
% es.EX (V/m) @ t=1.04
-1.3423313027579622
% es.EY (V/m) @ t=1.04
0.4264541393079746
% es.EZ (V/m) @ t=1.04
3.481853120229732
% es.tEX (V/m) @ t=1.04
-1.3423313027579906
% es.tEY (V/m) @ t=1.04
0
% es.tEZ (V/m) @ t=1.04
3.4818531202297347
% es.Ex (V/m) @ t=1.04
-1.3423313027579622