% Model:              1 neuron.mph
% Version:            COMSOL 6.1.0.252
% Date:               Mar 22 2023, 18:15
% Dimension:          0
% Nodes:              14017
% Expressions:        14017
% Description:        Electric field norm, Electric field, X component, Electric field, Y component, Electric field, Z component, Tangential electric field, X component, Tangential electric field, Y component, Tangential electric field, Z component, Electric field, x component, Electric field, y component, Electric field, z component, Tangential electric field, x component, Tangential electric field, y component, Tangential electric field, z component, Electric potential
% Length unit:        mm
% x
2
% y
12.2
% z
1.6599999999999997
% es.normE (V/m) @ t=0
2.3007957121485387
% es.EX (V/m) @ t=0
-2.2231769045533465
% es.EY (V/m) @ t=0
0.17126601928080387
% es.EZ (V/m) @ t=0
-0.5666284898735197
% es.tEX (V/m) @ t=0
-2.2231769045533447
% es.tEY (V/m) @ t=0
0
% es.tEZ (V/m) @ t=0
-0.5666284898735334
% es.Ex (V/m) @ t=0
-2.2231769045533465
% es.Ey (V/m) @ t=0
0.17126601928080387
% es.Ez (V/m) @ t=0
-0.5666284898735197
% es.tEx (V/m) @ t=0
-2.2231769045533447
% es.tEy (V/m) @ t=0
0
% es.tEz (V/m) @ t=0
-0.5666284898735334
% V (V) @ t=0
0.013333581613502834
% es.normE (V/m) @ t=0.02
1.9872204573763197
% es.EX (V/m) @ t=0.02
-1.9201803105015074
% es.EY (V/m) @ t=0.02
0.14792418801222185
% es.EZ (V/m) @ t=0.02
-0.48940274066959777
% es.tEX (V/m) @ t=0.02
-1.9201803105015074
% es.tEY (V/m) @ t=0.02
0
% es.tEZ (V/m) @ t=0.02
-0.48940274066959866
% es.Ex (V/m) @ t=0.02
-1.9201803105015074
% es.Ey (V/m) @ t=0.02
0.14792418801222185
% es.Ez (V/m) @ t=0.02
-0.48940274066959777
% es.tEx (V/m) @ t=0.02
-1.9201803105015074
% es.tEy (V/m) @ t=0.02
0
% es.tEz (V/m) @ t=0.02
-0.48940274066959866
% V (V) @ t=0.02
0.011516348883132497
% es.normE (V/m) @ t=0.04
2.0055014087639376
% es.EX (V/m) @ t=0.04
-1.9378445423229902
% es.EY (V/m) @ t=0.04
0.1492849806998987
% es.EZ (V/m) @ t=0.04
-0.4939048822918468
% es.tEX (V/m) @ t=0.04
-1.9378445423229973
% es.tEY (V/m) @ t=0.04
0
% es.tEZ (V/m) @ t=0.04
-0.49390488229184193
% es.Ex (V/m) @ t=0.04
-1.9378445423229902
% es.Ey (V/m) @ t=0.04
0.1492849806998987
% es.Ez (V/m) @ t=0.04
-0.4939048822918468
% es.tEx (V/m) @ t=0.04
-1.9378445423229973
% es.tEy (V/m) @ t=0.04
0
% es.tEz (V/m) @ t=0.04
-0.49390488229184193
% V (V) @ t=0.04
0.011622290728581015
% es.normE (V/m) @ t=0.06
2.02391338674359
% es.EX (V/m) @ t=0.06
-1.9556353807044635
% es.EY (V/m) @ t=0.06
0.15065552615704447
% es.EZ (V/m) @ t=0.06
-0.4984392917661209
% es.tEX (V/m) @ t=0.06
-1.9556353807044644
% es.tEY (V/m) @ t=0.06
0
% es.tEZ (V/m) @ t=0.06
-0.4984392917661147
% es.Ex (V/m) @ t=0.06
-1.9556353807044635
% es.Ey (V/m) @ t=0.06
0.15065552615704447
% es.Ez (V/m) @ t=0.06
-0.4984392917661209
% es.tEx (V/m) @ t=0.06
-1.9556353807044644
% es.tEy (V/m) @ t=0.06
0
% es.tEz (V/m) @ t=0.06
-0.4984392917661147
% V (V) @ t=0.06
0.011728991937350702
% es.normE (V/m) @ t=0.08
2.0426831481199947
% es.EX (V/m) @ t=0.08
-1.9737719324414753
% es.EY (V/m) @ t=0.08
0.15205270418514827
% es.EZ (V/m) @ t=0.08
-0.5030618143196852
% es.tEX (V/m) @ t=0.08
-1.9737719324414709
% es.tEY (V/m) @ t=0.08
0
% es.tEZ (V/m) @ t=0.08
-0.5030618143196754
% es.Ex (V/m) @ t=0.08
-1.9737719324414753
% es.Ey (V/m) @ t=0.08
0.15205270418514827
% es.Ez (V/m) @ t=0.08
-0.5030618143196852
% es.tEx (V/m) @ t=0.08
-1.9737719324414709
% es.tEy (V/m) @ t=0.08
0
% es.tEz (V/m) @ t=0.08
-0.5030618143196754
% V (V) @ t=0.08
0.011837766575548503
% es.normE (V/m) @ t=0.1
2.061541549650869
% es.EX (V/m) @ t=0.1
-1.9919941340032619
% es.EY (V/m) @ t=0.1
0.15345648038187099
% es.EZ (V/m) @ t=0.1
-0.5077061667206668
% es.tEX (V/m) @ t=0.1
-1.9919941340032672
% es.tEY (V/m) @ t=0.1
0
% es.tEZ (V/m) @ t=0.1
-0.5077061667206664
% es.Ex (V/m) @ t=0.1
-1.9919941340032619
% es.Ey (V/m) @ t=0.1
0.15345648038187099
% es.Ez (V/m) @ t=0.1
-0.5077061667206668
% es.tEx (V/m) @ t=0.1
-1.9919941340032672
% es.tEy (V/m) @ t=0.1
0
% es.tEz (V/m) @ t=0.1
-0.5077061667206664
% V (V) @ t=0.1
0.011947054901934298
% es.normE (V/m) @ t=0.12
2.0803999511817692
% es.EX (V/m) @ t=0.12
-2.010216335565074
% es.EY (V/m) @ t=0.12
0.1548602565786381
% es.EZ (V/m) @ t=0.12
-0.5123505191216373
% es.tEX (V/m) @ t=0.12
-2.0102163355650617
% es.tEY (V/m) @ t=0.12
0
% es.tEZ (V/m) @ t=0.12
-0.5123505191216378
% es.Ex (V/m) @ t=0.12
-2.010216335565074
% es.Ey (V/m) @ t=0.12
0.1548602565786381
% es.Ez (V/m) @ t=0.12
-0.5123505191216373
% es.tEx (V/m) @ t=0.12
-2.0102163355650617
% es.tEy (V/m) @ t=0.12
0
% es.tEz (V/m) @ t=0.12
-0.5123505191216378
% V (V) @ t=0.12
0.012056343228320096
% es.normE (V/m) @ t=0.14
2.0998316548842477
% es.EX (V/m) @ t=0.14
-2.028992497816273
% es.EY (V/m) @ t=0.14
0.15630670985574624
% es.EZ (V/m) @ t=0.14
-0.5171360639155891
% es.tEX (V/m) @ t=0.14
-2.0289924978162848
% es.tEY (V/m) @ t=0.14
0
% es.tEZ (V/m) @ t=0.14
-0.5171360639155829
% es.Ex (V/m) @ t=0.14
-2.028992497816273
% es.Ey (V/m) @ t=0.14
0.15630670985574624
% es.Ez (V/m) @ t=0.14
-0.5171360639155891
% es.tEx (V/m) @ t=0.14
-2.0289924978162848
% es.tEy (V/m) @ t=0.14
0
% es.tEz (V/m) @ t=0.14
-0.5171360639155829
% V (V) @ t=0.14
0.01216895383435299
% es.normE (V/m) @ t=0.16
2.119631249747317
% es.EX (V/m) @ t=0.16
-2.0481241396924252
% es.EY (V/m) @ t=0.16
0.15778054925035634
% es.EZ (V/m) @ t=0.16
-0.522012212645651
% es.tEX (V/m) @ t=0.16
-2.048124139692419
% es.tEY (V/m) @ t=0.16
0
% es.tEZ (V/m) @ t=0.16
-0.5220122126456506
% es.Ex (V/m) @ t=0.16
-2.0481241396924252
% es.Ey (V/m) @ t=0.16
0.15778054925035634
% es.Ez (V/m) @ t=0.16
-0.522012212645651
% es.tEx (V/m) @ t=0.16
-2.048124139692419
% es.tEy (V/m) @ t=0.16
0
% es.tEz (V/m) @ t=0.16
-0.5220122126456506
% V (V) @ t=0.16
0.01228369636553016
% es.normE (V/m) @ t=0.18
2.1394308446103683
% es.EX (V/m) @ t=0.18
-2.0672557815685657
% es.EY (V/m) @ t=0.18
0.1592543886449469
% es.EZ (V/m) @ t=0.18
-0.5268883613756916
% es.tEX (V/m) @ t=0.18
-2.067255781568562
% es.tEY (V/m) @ t=0.18
0
% es.tEZ (V/m) @ t=0.18
-0.5268883613756845
% es.Ex (V/m) @ t=0.18
-2.0672557815685657
% es.Ey (V/m) @ t=0.18
0.1592543886449469
% es.Ez (V/m) @ t=0.18
-0.5268883613756916
% es.tEx (V/m) @ t=0.18
-2.067255781568562
% es.tEy (V/m) @ t=0.18
0
% es.tEz (V/m) @ t=0.18
-0.5268883613756845
% V (V) @ t=0.18
0.012398438896707328
% es.normE (V/m) @ t=0.2
2.159230439473429
% es.EX (V/m) @ t=0.2
-2.086387423444722
% es.EY (V/m) @ t=0.2
0.16072822803951803
% es.EZ (V/m) @ t=0.2
-0.5317645101057114
% es.tEX (V/m) @ t=0.2
-2.086387423444723
% es.tEY (V/m) @ t=0.2
0
% es.tEZ (V/m) @ t=0.2
-0.5317645101057185
% es.Ex (V/m) @ t=0.2
-2.086387423444722
% es.Ey (V/m) @ t=0.2
0.16072822803951803
% es.Ez (V/m) @ t=0.2
-0.5317645101057114
% es.tEx (V/m) @ t=0.2
-2.086387423444723
% es.tEy (V/m) @ t=0.2
0
% es.tEz (V/m) @ t=0.2
-0.5317645101057185
% V (V) @ t=0.2
0.012513181427884502
% es.normE (V/m) @ t=0.22
2.1790300343364644
% es.EX (V/m) @ t=0.22
-2.1055190653208458
% es.EY (V/m) @ t=0.22
0.16220206743411902
% es.EZ (V/m) @ t=0.22
-0.5366406588357502
% es.tEX (V/m) @ t=0.22
-2.1055190653208555
% es.tEY (V/m) @ t=0.22
0
% es.tEZ (V/m) @ t=0.22
-0.5366406588357684
% es.Ex (V/m) @ t=0.22
-2.1055190653208458
% es.Ey (V/m) @ t=0.22
0.16220206743411902
% es.Ez (V/m) @ t=0.22
-0.5366406588357502
% es.tEx (V/m) @ t=0.22
-2.1055190653208555
% es.tEy (V/m) @ t=0.22
0
% es.tEz (V/m) @ t=0.22
-0.5366406588357684
% V (V) @ t=0.22
0.01262792395906167
% es.normE (V/m) @ t=0.24
2.198829629199529
% es.EX (V/m) @ t=0.24
-2.124650707196997
% es.EY (V/m) @ t=0.24
0.16367590682871147
% es.EZ (V/m) @ t=0.24
-0.5415168075657997
% es.tEX (V/m) @ t=0.24
-2.124650707196988
% es.tEY (V/m) @ t=0.24
0
% es.tEZ (V/m) @ t=0.24
-0.5415168075657988
% es.Ex (V/m) @ t=0.24
-2.124650707196997
% es.Ey (V/m) @ t=0.24
0.16367590682871147
% es.Ez (V/m) @ t=0.24
-0.5415168075657997
% es.tEx (V/m) @ t=0.24
-2.124650707196988
% es.tEy (V/m) @ t=0.24
0
% es.tEz (V/m) @ t=0.24
-0.5415168075657988
% V (V) @ t=0.24
0.012742666490238842
% es.normE (V/m) @ t=0.26
2.219100875781285
% es.EX (V/m) @ t=0.26
-2.1442380978407627
% es.EY (V/m) @ t=0.26
0.16518483521696636
% es.EZ (V/m) @ t=0.26
-0.5465090858129558
% es.tEX (V/m) @ t=0.26
-2.1442380978407805
% es.tEY (V/m) @ t=0.26
0
% es.tEZ (V/m) @ t=0.26
-0.5465090858129553
% es.Ex (V/m) @ t=0.26
-2.1442380978407627
% es.Ey (V/m) @ t=0.26
0.16518483521696636
% es.Ez (V/m) @ t=0.26
-0.5465090858129558
% es.tEx (V/m) @ t=0.26
-2.1442380978407805
% es.tEy (V/m) @ t=0.26
0
% es.tEz (V/m) @ t=0.26
-0.5465090858129553
% V (V) @ t=0.26
0.01286014371112111
% es.normE (V/m) @ t=0.28
2.241001553618174
% es.EX (V/m) @ t=0.28
-2.165399979272986
% es.EY (V/m) @ t=0.28
0.1668149867465235
% es.EZ (V/m) @ t=0.28
-0.551902560657751
% es.tEX (V/m) @ t=0.28
-2.1653999792729905
% es.tEY (V/m) @ t=0.28
0
% es.tEZ (V/m) @ t=0.28
-0.5519025606577461
% es.Ex (V/m) @ t=0.28
-2.165399979272986
% es.Ey (V/m) @ t=0.28
0.1668149867465235
% es.Ez (V/m) @ t=0.28
-0.551902560657751
% es.tEx (V/m) @ t=0.28
-2.1653999792729905
% es.tEy (V/m) @ t=0.28
0
% es.tEz (V/m) @ t=0.28
-0.5519025606577461
% V (V) @ t=0.28
0.01298706855765939
% es.normE (V/m) @ t=0.3
2.2629022314550626
% es.EX (V/m) @ t=0.3
-2.186561860705188
% es.EY (V/m) @ t=0.3
0.16844513827617036
% es.EZ (V/m) @ t=0.3
-0.5572960355025476
% es.tEX (V/m) @ t=0.3
-2.1865618607052006
% es.tEY (V/m) @ t=0.3
0
% es.tEZ (V/m) @ t=0.3
-0.5572960355025423
% es.Ex (V/m) @ t=0.3
-2.186561860705188
% es.Ey (V/m) @ t=0.3
0.16844513827617036
% es.Ez (V/m) @ t=0.3
-0.5572960355025476
% es.tEx (V/m) @ t=0.3
-2.1865618607052006
% es.tEy (V/m) @ t=0.3
0
% es.tEz (V/m) @ t=0.3
-0.5572960355025423
% V (V) @ t=0.3
0.013113993404197664
% es.normE (V/m) @ t=0.32
2.2848029092919537
% es.EX (V/m) @ t=0.32
-2.207723742137383
% es.EY (V/m) @ t=0.32
0.17007528980578168
% es.EZ (V/m) @ t=0.32
-0.5626895103473424
% es.tEX (V/m) @ t=0.32
-2.2077237421373646
% es.tEY (V/m) @ t=0.32
0
% es.tEZ (V/m) @ t=0.32
-0.5626895103473437
% es.Ex (V/m) @ t=0.32
-2.207723742137383
% es.Ey (V/m) @ t=0.32
0.17007528980578168
% es.Ez (V/m) @ t=0.32
-0.5626895103473424
% es.tEx (V/m) @ t=0.32
-2.2077237421373646
% es.tEy (V/m) @ t=0.32
0
% es.tEz (V/m) @ t=0.32
-0.5626895103473437
% V (V) @ t=0.32
0.01324091825073594
% es.normE (V/m) @ t=0.34
2.30670358712885
% es.EX (V/m) @ t=0.34
-2.228885623569571
% es.EY (V/m) @ t=0.34
0.17170544133538956
% es.EZ (V/m) @ t=0.34
-0.5680829851921403
% es.tEX (V/m) @ t=0.34
-2.2288856235695746
% es.tEY (V/m) @ t=0.34
0
% es.tEZ (V/m) @ t=0.34
-0.5680829851921452
% es.Ex (V/m) @ t=0.34
-2.228885623569571
% es.Ey (V/m) @ t=0.34
0.17170544133538956
% es.Ez (V/m) @ t=0.34
-0.5680829851921403
% es.tEx (V/m) @ t=0.34
-2.2288856235695746
% es.tEy (V/m) @ t=0.34
0
% es.tEz (V/m) @ t=0.34
-0.5680829851921452
% V (V) @ t=0.34
0.013367843097274217
% es.normE (V/m) @ t=0.36
2.3286042649657825
% es.EX (V/m) @ t=0.36
-2.250047505001782
% es.EY (V/m) @ t=0.36
0.17333559286502398
% es.EZ (V/m) @ t=0.36
-0.5734764600369351
% es.tEX (V/m) @ t=0.36
-2.250047505001774
% es.tEY (V/m) @ t=0.36
0
% es.tEZ (V/m) @ t=0.36
-0.5734764600369395
% es.Ex (V/m) @ t=0.36
-2.250047505001782
% es.Ey (V/m) @ t=0.36
0.17333559286502398
% es.Ez (V/m) @ t=0.36
-0.5734764600369351
% es.tEx (V/m) @ t=0.36
-2.250047505001774
% es.tEy (V/m) @ t=0.36
0
% es.tEz (V/m) @ t=0.36
-0.5734764600369395
% V (V) @ t=0.36
0.013494767943812491
% es.normE (V/m) @ t=0.38
2.3505049428027114
% es.EX (V/m) @ t=0.38
-2.271209386433971
% es.EY (V/m) @ t=0.38
0.17496574439463886
% es.EZ (V/m) @ t=0.38
-0.5788699348817654
% es.tEX (V/m) @ t=0.38
-2.271209386433984
% es.tEY (V/m) @ t=0.38
0
% es.tEZ (V/m) @ t=0.38
-0.5788699348817481
% es.Ex (V/m) @ t=0.38
-2.271209386433971
% es.Ey (V/m) @ t=0.38
0.17496574439463886
% es.Ez (V/m) @ t=0.38
-0.5788699348817654
% es.tEx (V/m) @ t=0.38
-2.271209386433984
% es.tEy (V/m) @ t=0.38
0
% es.tEz (V/m) @ t=0.38
-0.5788699348817481
% V (V) @ t=0.38
0.013621692790350769
% es.normE (V/m) @ t=0.4
2.3724056206396664
% es.EX (V/m) @ t=0.4
-2.292371267866189
% es.EY (V/m) @ t=0.4
0.17659589592424663
% es.EZ (V/m) @ t=0.4
-0.584263409726542
% es.tEX (V/m) @ t=0.4
-2.29237126786618
% es.tEY (V/m) @ t=0.4
0
% es.tEZ (V/m) @ t=0.4
-0.5842634097265389
% es.Ex (V/m) @ t=0.4
-2.292371267866189
% es.Ey (V/m) @ t=0.4
0.17659589592424663
% es.Ez (V/m) @ t=0.4
-0.584263409726542
% es.tEx (V/m) @ t=0.4
-2.29237126786618
% es.tEy (V/m) @ t=0.4
0
% es.tEz (V/m) @ t=0.4
-0.5842634097265389
% V (V) @ t=0.4
0.013748617636889048
% es.normE (V/m) @ t=0.42
2.3943062984765984
% es.EX (V/m) @ t=0.42
-2.3135331492983626
% es.EY (V/m) @ t=0.42
0.17822604745387927
% es.EZ (V/m) @ t=0.42
-0.5896568845713492
% es.tEX (V/m) @ t=0.42
-2.313533149298376
% es.tEY (V/m) @ t=0.42
0
% es.tEZ (V/m) @ t=0.42
-0.589656884571351
% es.Ex (V/m) @ t=0.42
-2.3135331492983626
% es.Ey (V/m) @ t=0.42
0.17822604745387927
% es.Ez (V/m) @ t=0.42
-0.5896568845713492
% es.tEx (V/m) @ t=0.42
-2.313533149298376
% es.tEy (V/m) @ t=0.42
0
% es.tEz (V/m) @ t=0.42
-0.589656884571351
% V (V) @ t=0.42
0.013875542483427322
% es.normE (V/m) @ t=0.44
2.416206976313586
% es.EX (V/m) @ t=0.44
-2.334695030730588
% es.EY (V/m) @ t=0.44
0.17985619898348348
% es.EZ (V/m) @ t=0.44
-0.5950503594161476
% es.tEX (V/m) @ t=0.44
-2.334695030730586
% es.tEY (V/m) @ t=0.44
0
% es.tEZ (V/m) @ t=0.44
-0.5950503594161631
% es.Ex (V/m) @ t=0.44
-2.334695030730588
% es.Ey (V/m) @ t=0.44
0.17985619898348348
% es.Ez (V/m) @ t=0.44
-0.5950503594161476
% es.tEx (V/m) @ t=0.44
-2.334695030730586
% es.tEy (V/m) @ t=0.44
0
% es.tEz (V/m) @ t=0.44
-0.5950503594161631
% V (V) @ t=0.44
0.014002467329965598
% es.normE (V/m) @ t=0.46
2.438107654150545
% es.EX (V/m) @ t=0.46
-2.3558569121627686
% es.EY (V/m) @ t=0.46
0.18148635051312145
% es.EZ (V/m) @ t=0.46
-0.6004438342609513
% es.tEX (V/m) @ t=0.46
-2.355856912162796
% es.tEY (V/m) @ t=0.46
0
% es.tEZ (V/m) @ t=0.46
-0.600443834260961
% es.Ex (V/m) @ t=0.46
-2.3558569121627686
% es.Ey (V/m) @ t=0.46
0.18148635051312145
% es.Ez (V/m) @ t=0.46
-0.6004438342609513
% es.tEx (V/m) @ t=0.46
-2.355856912162796
% es.tEy (V/m) @ t=0.46
0
% es.tEz (V/m) @ t=0.46
-0.600443834260961
% V (V) @ t=0.46
0.014129392176503877
% es.normE (V/m) @ t=0.48
2.460008331987529
% es.EX (V/m) @ t=0.48
-2.3770187935949707
% es.EY (V/m) @ t=0.48
0.1831165020426918
% es.EZ (V/m) @ t=0.48
-0.6058373091057532
% es.tEX (V/m) @ t=0.48
-2.37701879359496
% es.tEY (V/m) @ t=0.48
0
% es.tEZ (V/m) @ t=0.48
-0.6058373091057554
% es.Ex (V/m) @ t=0.48
-2.3770187935949707
% es.Ey (V/m) @ t=0.48
0.1831165020426918
% es.Ez (V/m) @ t=0.48
-0.6058373091057532
% es.tEx (V/m) @ t=0.48
-2.37701879359496
% es.tEy (V/m) @ t=0.48
0
% es.tEz (V/m) @ t=0.48
-0.6058373091057554
% V (V) @ t=0.48
0.014256317023042153
% es.normE (V/m) @ t=0.5
2.4819090098245336
% es.EX (V/m) @ t=0.5
-2.3981806750271755
% es.EY (V/m) @ t=0.5
0.1847466535723281
% es.EZ (V/m) @ t=0.5
-0.6112307839505671
% es.tEX (V/m) @ t=0.5
-2.398180675027188
% es.tEY (V/m) @ t=0.5
0
% es.tEZ (V/m) @ t=0.5
-0.6112307839505675
% es.Ex (V/m) @ t=0.5
-2.3981806750271755
% es.Ey (V/m) @ t=0.5
0.1847466535723281
% es.Ez (V/m) @ t=0.5
-0.6112307839505671
% es.tEx (V/m) @ t=0.5
-2.398180675027188
% es.tEy (V/m) @ t=0.5
0
% es.tEz (V/m) @ t=0.5
-0.6112307839505675
% V (V) @ t=0.5
0.014383241869580426
% es.normE (V/m) @ t=0.52
2.5048845146557137
% es.EX (V/m) @ t=0.52
-2.42038111403534
% es.EY (V/m) @ t=0.52
0.1864568346071781
% es.EZ (V/m) @ t=0.52
-0.6168889912249238
% es.tEX (V/m) @ t=0.52
-2.42038111403534
% es.tEY (V/m) @ t=0.52
0
% es.tEZ (V/m) @ t=0.52
-0.6168889912249185
% es.Ex (V/m) @ t=0.52
-2.42038111403534
% es.Ey (V/m) @ t=0.52
0.1864568346071781
% es.Ez (V/m) @ t=0.52
-0.6168889912249238
% es.tEx (V/m) @ t=0.52
-2.42038111403534
% es.tEy (V/m) @ t=0.52
0
% es.tEz (V/m) @ t=0.52
-0.6168889912249185
% V (V) @ t=0.52
0.014516394037456144
% es.normE (V/m) @ t=0.54
2.5291464346230184
% es.EX (V/m) @ t=0.54
-2.4438245588413583
% es.EY (V/m) @ t=0.54
0.18826279958444114
% es.EZ (V/m) @ t=0.54
-0.6228640455883916
% es.tEX (V/m) @ t=0.54
-2.4438245588413707
% es.tEY (V/m) @ t=0.54
0
% es.tEZ (V/m) @ t=0.54
-0.6228640455883898
% es.Ex (V/m) @ t=0.54
-2.4438245588413583
% es.Ey (V/m) @ t=0.54
0.18826279958444114
% es.Ez (V/m) @ t=0.54
-0.6228640455883916
% es.tEx (V/m) @ t=0.54
-2.4438245588413707
% es.tEy (V/m) @ t=0.54
0
% es.tEz (V/m) @ t=0.54
-0.6228640455883898
% V (V) @ t=0.54
0.014656999423821178
% es.normE (V/m) @ t=0.56
2.553408354590338
% es.EX (V/m) @ t=0.56
-2.46726800364738
% es.EY (V/m) @ t=0.56
0.1900687645617024
% es.EZ (V/m) @ t=0.56
-0.6288390999519038
% es.tEX (V/m) @ t=0.56
-2.467268003647387
% es.tEY (V/m) @ t=0.56
0
% es.tEZ (V/m) @ t=0.56
-0.6288390999519073
% es.Ex (V/m) @ t=0.56
-2.46726800364738
% es.Ey (V/m) @ t=0.56
0.1900687645617024
% es.Ez (V/m) @ t=0.56
-0.6288390999519038
% es.tEx (V/m) @ t=0.56
-2.467268003647387
% es.tEy (V/m) @ t=0.56
0
% es.tEz (V/m) @ t=0.56
-0.6288390999519073
% V (V) @ t=0.56
0.014797604810186212
% es.normE (V/m) @ t=0.58
2.5776702745576614
% es.EX (V/m) @ t=0.58
-2.4907114484534176
% es.EY (V/m) @ t=0.58
0.1918747295389175
% es.EZ (V/m) @ t=0.58
-0.6348141543153769
% es.tEX (V/m) @ t=0.58
-2.490711448453414
% es.tEY (V/m) @ t=0.58
0
% es.tEZ (V/m) @ t=0.58
-0.6348141543153751
% es.Ex (V/m) @ t=0.58
-2.4907114484534176
% es.Ey (V/m) @ t=0.58
0.1918747295389175
% es.Ez (V/m) @ t=0.58
-0.6348141543153769
% es.tEx (V/m) @ t=0.58
-2.490711448453414
% es.tEy (V/m) @ t=0.58
0
% es.tEz (V/m) @ t=0.58
-0.6348141543153751
% V (V) @ t=0.58
0.014938210196551241
% es.normE (V/m) @ t=0.6
2.6019321945249767
% es.EX (V/m) @ t=0.6
-2.5141548932594375
% es.EY (V/m) @ t=0.6
0.19368069451619296
% es.EZ (V/m) @ t=0.6
-0.6407892086788647
% es.tEX (V/m) @ t=0.6
-2.514154893259441
% es.tEY (V/m) @ t=0.6
0
% es.tEZ (V/m) @ t=0.6
-0.6407892086788713
% es.Ex (V/m) @ t=0.6
-2.5141548932594375
% es.Ey (V/m) @ t=0.6
0.19368069451619296
% es.Ez (V/m) @ t=0.6
-0.6407892086788647
% es.tEx (V/m) @ t=0.6
-2.514154893259441
% es.tEy (V/m) @ t=0.6
0
% es.tEz (V/m) @ t=0.6
-0.6407892086788713
% V (V) @ t=0.6
0.015078815582916278
% es.normE (V/m) @ t=0.62
2.6261941144922787
% es.EX (V/m) @ t=0.62
-2.5375983380654468
% es.EY (V/m) @ t=0.62
0.19548665949343114
% es.EZ (V/m) @ t=0.62
-0.6467642630423502
% es.tEX (V/m) @ t=0.62
-2.5375983380654574
% es.tEY (V/m) @ t=0.62
0
% es.tEZ (V/m) @ t=0.62
-0.6467642630423427
% es.Ex (V/m) @ t=0.62
-2.5375983380654468
% es.Ey (V/m) @ t=0.62
0.19548665949343114
% es.Ez (V/m) @ t=0.62
-0.6467642630423502
% es.tEx (V/m) @ t=0.62
-2.5375983380654574
% es.tEy (V/m) @ t=0.62
0
% es.tEz (V/m) @ t=0.62
-0.6467642630423427
% V (V) @ t=0.62
0.015219420969281309
% es.normE (V/m) @ t=0.64
2.650456034459585
% es.EX (V/m) @ t=0.64
-2.5610417828714542
% es.EY (V/m) @ t=0.64
0.19729262447070306
% es.EZ (V/m) @ t=0.64
-0.6527393174058429
% es.tEX (V/m) @ t=0.64
-2.5610417828714667
% es.tEY (V/m) @ t=0.64
0
% es.tEZ (V/m) @ t=0.64
-0.6527393174058496
% es.Ex (V/m) @ t=0.64
-2.5610417828714542
% es.Ey (V/m) @ t=0.64
0.19729262447070306
% es.Ez (V/m) @ t=0.64
-0.6527393174058429
% es.tEx (V/m) @ t=0.64
-2.5610417828714667
% es.tEy (V/m) @ t=0.64
0
% es.tEz (V/m) @ t=0.64
-0.6527393174058496
% V (V) @ t=0.64
0.015360026355646343
% es.normE (V/m) @ t=0.66
2.6747179544269173
% es.EX (V/m) @ t=0.66
-2.584485227677499
% es.EY (V/m) @ t=0.66
0.19909858944788794
% es.EZ (V/m) @ t=0.66
-0.65871437176932
% es.tEX (V/m) @ t=0.66
-2.584485227677483
% es.tEY (V/m) @ t=0.66
0
% es.tEZ (V/m) @ t=0.66
-0.658714371769328
% es.Ex (V/m) @ t=0.66
-2.584485227677499
% es.Ey (V/m) @ t=0.66
0.19909858944788794
% es.Ez (V/m) @ t=0.66
-0.65871437176932
% es.tEx (V/m) @ t=0.66
-2.584485227677483
% es.tEy (V/m) @ t=0.66
0
% es.tEz (V/m) @ t=0.66
-0.658714371769328
% V (V) @ t=0.66
0.015500631742011373
% es.normE (V/m) @ t=0.68
2.6989798743942046
% es.EX (V/m) @ t=0.68
-2.607928672483487
% es.EY (V/m) @ t=0.68
0.2009045544251865
% es.EZ (V/m) @ t=0.68
-0.6646894261327949
% es.tEX (V/m) @ t=0.68
-2.607928672483485
% es.tEY (V/m) @ t=0.68
0
% es.tEZ (V/m) @ t=0.68
-0.6646894261327994
% es.Ex (V/m) @ t=0.68
-2.607928672483487
% es.Ey (V/m) @ t=0.68
0.2009045544251865
% es.Ez (V/m) @ t=0.68
-0.6646894261327949
% es.tEx (V/m) @ t=0.68
-2.607928672483485
% es.tEy (V/m) @ t=0.68
0
% es.tEz (V/m) @ t=0.68
-0.6646894261327994
% V (V) @ t=0.68
0.015641237128376406
% es.normE (V/m) @ t=0.7
2.723241794361512
% es.EX (V/m) @ t=0.7
-2.631372117289496
% es.EY (V/m) @ t=0.7
0.2027105194024158
% es.EZ (V/m) @ t=0.7
-0.6706644804962898
% es.tEX (V/m) @ t=0.7
-2.631372117289498
% es.tEY (V/m) @ t=0.7
0
% es.tEZ (V/m) @ t=0.7
-0.6706644804962778
% es.Ex (V/m) @ t=0.7
-2.631372117289496
% es.Ey (V/m) @ t=0.7
0.2027105194024158
% es.Ez (V/m) @ t=0.7
-0.6706644804962898
% es.tEx (V/m) @ t=0.7
-2.631372117289498
% es.tEy (V/m) @ t=0.7
0
% es.tEz (V/m) @ t=0.7
-0.6706644804962778
% V (V) @ t=0.7
0.01578184251474144
% es.normE (V/m) @ t=0.72
2.7475037143288956
% es.EX (V/m) @ t=0.72
-2.65481556209558
% es.EY (V/m) @ t=0.72
0.20451648437968617
% es.EZ (V/m) @ t=0.72
-0.676639534859778
% es.tEX (V/m) @ t=0.72
-2.6548155620955995
% es.tEY (V/m) @ t=0.72
0
% es.tEZ (V/m) @ t=0.72
-0.6766395348597847
% es.Ex (V/m) @ t=0.72
-2.65481556209558
% es.Ey (V/m) @ t=0.72
0.20451648437968617
% es.Ez (V/m) @ t=0.72
-0.676639534859778
% es.tEx (V/m) @ t=0.72
-2.6548155620955995
% es.tEy (V/m) @ t=0.72
0
% es.tEz (V/m) @ t=0.72
-0.6766395348597847
% V (V) @ t=0.72
0.01592244790110647
% es.normE (V/m) @ t=0.74
2.7717656342961776
% es.EX (V/m) @ t=0.74
-2.6782590069015644
% es.EY (V/m) @ t=0.74
0.2063224493569279
% es.EZ (V/m) @ t=0.74
-0.6826145892232569
% es.tEX (V/m) @ t=0.74
-2.6782590069015804
% es.tEY (V/m) @ t=0.74
0
% es.tEZ (V/m) @ t=0.74
-0.6826145892232596
% es.Ex (V/m) @ t=0.74
-2.6782590069015644
% es.Ey (V/m) @ t=0.74
0.2063224493569279
% es.Ez (V/m) @ t=0.74
-0.6826145892232569
% es.tEx (V/m) @ t=0.74
-2.6782590069015804
% es.tEy (V/m) @ t=0.74
0
% es.tEz (V/m) @ t=0.74
-0.6826145892232596
% V (V) @ t=0.74
0.016063053287471506
% es.normE (V/m) @ t=0.76
2.796027554263498
% es.EX (V/m) @ t=0.76
-2.701702451707579
% es.EY (V/m) @ t=0.76
0.20812841433416962
% es.EZ (V/m) @ t=0.76
-0.6885896435867656
% es.tEX (V/m) @ t=0.76
-2.701702451707579
% es.tEY (V/m) @ t=0.76
0
% es.tEZ (V/m) @ t=0.76
-0.6885896435867487
% es.Ex (V/m) @ t=0.76
-2.701702451707579
% es.Ey (V/m) @ t=0.76
0.20812841433416962
% es.Ez (V/m) @ t=0.76
-0.6885896435867656
% es.tEx (V/m) @ t=0.76
-2.701702451707579
% es.tEy (V/m) @ t=0.76
0
% es.tEz (V/m) @ t=0.76
-0.6885896435867487
% V (V) @ t=0.76
0.016203658673836534
% es.normE (V/m) @ t=0.78
2.82211305674302
% es.EX (V/m) @ t=0.78
-2.726907952248755
% es.EY (V/m) @ t=0.78
0.21007013901378468
% es.EZ (V/m) @ t=0.78
-0.6950138227193121
% es.tEX (V/m) @ t=0.78
-2.726907952248741
% es.tEY (V/m) @ t=0.78
0
% es.tEZ (V/m) @ t=0.78
-0.6950138227193143
% es.Ex (V/m) @ t=0.78
-2.726907952248755
% es.Ey (V/m) @ t=0.78
0.21007013901378468
% es.Ez (V/m) @ t=0.78
-0.6950138227193121
% es.tEx (V/m) @ t=0.78
-2.726907952248741
% es.tEy (V/m) @ t=0.78
0
% es.tEz (V/m) @ t=0.78
-0.6950138227193143
% V (V) @ t=0.78
0.016354830957547816
% es.normE (V/m) @ t=0.8
2.8490336056469925
% es.EX (V/m) @ t=0.8
-2.7529203251587404
% es.EY (V/m) @ t=0.8
0.21207403014494874
% es.EZ (V/m) @ t=0.8
-0.7016436629777076
% es.tEX (V/m) @ t=0.8
-2.752920325158751
% es.tEY (V/m) @ t=0.8
0
% es.tEZ (V/m) @ t=0.8
-0.7016436629777054
% es.Ex (V/m) @ t=0.8
-2.7529203251587404
% es.Ey (V/m) @ t=0.8
0.21207403014494874
% es.Ez (V/m) @ t=0.8
-0.7016436629777076
% es.tEx (V/m) @ t=0.8
-2.752920325158751
% es.tEy (V/m) @ t=0.8
0
% es.tEz (V/m) @ t=0.8
-0.7016436629777054
% V (V) @ t=0.8
0.016510841985756204
% es.normE (V/m) @ t=0.82
2.8759541545509104
% es.EX (V/m) @ t=0.82
-2.778932698068676
% es.EY (V/m) @ t=0.82
0.21407792127609837
% es.EZ (V/m) @ t=0.82
-0.7082735032360779
% es.tEX (V/m) @ t=0.82
-2.7789326980686866
% es.tEY (V/m) @ t=0.82
0
% es.tEZ (V/m) @ t=0.82
-0.7082735032360681
% es.Ex (V/m) @ t=0.82
-2.778932698068676
% es.Ey (V/m) @ t=0.82
0.21407792127609837
% es.Ez (V/m) @ t=0.82
-0.7082735032360779
% es.tEx (V/m) @ t=0.82
-2.7789326980686866
% es.tEy (V/m) @ t=0.82
0
% es.tEz (V/m) @ t=0.82
-0.7082735032360681
% V (V) @ t=0.82
0.016666853013964592
% es.normE (V/m) @ t=0.84
2.902874703454863
% es.EX (V/m) @ t=0.84
-2.8049450709786488
% es.EY (V/m) @ t=0.84
0.21608181240726598
% es.EZ (V/m) @ t=0.84
-0.7149033434944378
% es.tEX (V/m) @ t=0.84
-2.804945070978654
% es.tEY (V/m) @ t=0.84
0
% es.tEZ (V/m) @ t=0.84
-0.7149033434944414
% es.Ex (V/m) @ t=0.84
-2.8049450709786488
% es.Ey (V/m) @ t=0.84
0.21608181240726598
% es.Ez (V/m) @ t=0.84
-0.7149033434944378
% es.tEx (V/m) @ t=0.84
-2.804945070978654
% es.tEy (V/m) @ t=0.84
0
% es.tEz (V/m) @ t=0.84
-0.7149033434944414
% V (V) @ t=0.84
0.016822864042172977
% es.normE (V/m) @ t=0.86
2.929795252358777
% es.EX (V/m) @ t=0.86
-2.8309574438885576
% es.EY (V/m) @ t=0.86
0.2180857035384831
% es.EZ (V/m) @ t=0.86
-0.7215331837528773
% es.tEX (V/m) @ t=0.86
-2.8309574438885754
% es.tEY (V/m) @ t=0.86
0
% es.tEZ (V/m) @ t=0.86
-0.7215331837528645
% es.Ex (V/m) @ t=0.86
-2.8309574438885576
% es.Ey (V/m) @ t=0.86
0.2180857035384831
% es.Ez (V/m) @ t=0.86
-0.7215331837528773
% es.tEx (V/m) @ t=0.86
-2.8309574438885754
% es.tEy (V/m) @ t=0.86
0
% es.tEz (V/m) @ t=0.86
-0.7215331837528645
% V (V) @ t=0.86
0.016978875070381365
% es.normE (V/m) @ t=0.88
2.9567158012627086
% es.EX (V/m) @ t=0.88
-2.8569698167985003
% es.EY (V/m) @ t=0.88
0.22008959466968614
% es.EZ (V/m) @ t=0.88
-0.7281630240112578
% es.tEX (V/m) @ t=0.88
-2.856969816798511
% es.tEY (V/m) @ t=0.88
0
% es.tEZ (V/m) @ t=0.88
-0.7281630240112555
% es.Ex (V/m) @ t=0.88
-2.8569698167985003
% es.Ey (V/m) @ t=0.88
0.22008959466968614
% es.Ez (V/m) @ t=0.88
-0.7281630240112578
% es.tEx (V/m) @ t=0.88
-2.856969816798511
% es.tEy (V/m) @ t=0.88
0
% es.tEz (V/m) @ t=0.88
-0.7281630240112555
% V (V) @ t=0.88
0.017134886098589753
% es.normE (V/m) @ t=0.9
2.9836363501666456
% es.EX (V/m) @ t=0.9
-2.8829821897084518
% es.EY (V/m) @ t=0.9
0.2220934858008624
% es.EZ (V/m) @ t=0.9
-0.7347928642696369
% es.tEX (V/m) @ t=0.9
-2.8829821897084607
% es.tEY (V/m) @ t=0.9
0
% es.tEZ (V/m) @ t=0.9
-0.7347928642696466
% es.Ex (V/m) @ t=0.9
-2.8829821897084518
% es.Ey (V/m) @ t=0.9
0.2220934858008624
% es.Ez (V/m) @ t=0.9
-0.7347928642696369
% es.tEx (V/m) @ t=0.9
-2.8829821897084607
% es.tEy (V/m) @ t=0.9
0
% es.tEz (V/m) @ t=0.9
-0.7347928642696466
% V (V) @ t=0.9
0.01729089712679814
% es.normE (V/m) @ t=0.92
3.010556899070588
% es.EX (V/m) @ t=0.92
-2.9089945626184033
% es.EY (V/m) @ t=0.92
0.224097376932046
% es.EZ (V/m) @ t=0.92
-0.7414227045280324
% es.tEX (V/m) @ t=0.92
-2.908994562618396
% es.tEY (V/m) @ t=0.92
0
% es.tEZ (V/m) @ t=0.92
-0.7414227045280413
% es.Ex (V/m) @ t=0.92
-2.9089945626184033
% es.Ey (V/m) @ t=0.92
0.224097376932046
% es.Ez (V/m) @ t=0.92
-0.7414227045280324
% es.tEx (V/m) @ t=0.92
-2.908994562618396
% es.tEy (V/m) @ t=0.92
0
% es.tEz (V/m) @ t=0.92
-0.7414227045280413
% V (V) @ t=0.92
0.01744690815500653
% es.normE (V/m) @ t=0.94
3.0374774479745286
% es.EX (V/m) @ t=0.94
-2.9350069355283477
% es.EY (V/m) @ t=0.94
0.22610126806323672
% es.EZ (V/m) @ t=0.94
-0.7480525447864479
% es.tEX (V/m) @ t=0.94
-2.935006935528353
% es.tEY (V/m) @ t=0.94
0
% es.tEZ (V/m) @ t=0.94
-0.748052544786443
% es.Ex (V/m) @ t=0.94
-2.9350069355283477
% es.Ey (V/m) @ t=0.94
0.22610126806323672
% es.Ez (V/m) @ t=0.94
-0.7480525447864479
% es.tEx (V/m) @ t=0.94
-2.935006935528353
% es.tEy (V/m) @ t=0.94
0
% es.tEz (V/m) @ t=0.94
-0.748052544786443
% V (V) @ t=0.94
0.01760291918321492
% es.normE (V/m) @ t=0.96
3.0643979968784403
% es.EX (V/m) @ t=0.96
-2.961019308438276
% es.EY (V/m) @ t=0.96
0.2281051591944201
% es.EZ (V/m) @ t=0.96
-0.7546823850448123
% es.tEX (V/m) @ t=0.96
-2.9610193084382743
% es.tEY (V/m) @ t=0.96
0
% es.tEZ (V/m) @ t=0.96
-0.7546823850448057
% es.Ex (V/m) @ t=0.96
-2.961019308438276
% es.Ey (V/m) @ t=0.96
0.2281051591944201
% es.Ez (V/m) @ t=0.96
-0.7546823850448123
% es.tEx (V/m) @ t=0.96
-2.9610193084382743
% es.tEy (V/m) @ t=0.96
0
% es.tEz (V/m) @ t=0.96
-0.7546823850448057
% V (V) @ t=0.96
0.01775893021142331
% es.normE (V/m) @ t=0.98
3.0913185457823973
% es.EX (V/m) @ t=0.98
-2.987031681348242
% es.EY (V/m) @ t=0.98
0.23010905032562656
% es.EZ (V/m) @ t=0.98
-0.7613122253032056
% es.tEX (V/m) @ t=0.98
-2.9870316813482525
% es.tEY (V/m) @ t=0.98
0
% es.tEZ (V/m) @ t=0.98
-0.761312225303211
% es.Ex (V/m) @ t=0.98
-2.987031681348242
% es.Ey (V/m) @ t=0.98
0.23010905032562656
% es.Ez (V/m) @ t=0.98
-0.7613122253032056
% es.tEx (V/m) @ t=0.98
-2.9870316813482525
% es.tEy (V/m) @ t=0.98
0
% es.tEz (V/m) @ t=0.98
-0.761312225303211
% V (V) @ t=0.98
0.017914941239631697
% es.normE (V/m) @ t=1
3.118239094686334
% es.EX (V/m) @ t=1
-3.0130440542581916
% es.EY (V/m) @ t=1
0.23211294145679062
% es.EZ (V/m) @ t=1
-0.7679420655615923
% es.tEX (V/m) @ t=1
-3.0130440542582164
% es.tEY (V/m) @ t=1
0
% es.tEZ (V/m) @ t=1
-0.7679420655616056
% es.Ex (V/m) @ t=1
-3.0130440542581916
% es.Ey (V/m) @ t=1
0.23211294145679062
% es.Ez (V/m) @ t=1
-0.7679420655615923
% es.tEx (V/m) @ t=1
-3.0130440542582164
% es.tEy (V/m) @ t=1
0
% es.tEz (V/m) @ t=1
-0.7679420655616056
% V (V) @ t=1
0.01807095226784008
% es.normE (V/m) @ t=1.02
3.1451596435903015
% es.EX (V/m) @ t=1.02
-3.039056427168168
% es.EY (V/m) @ t=1.02
0.23411683258797233
% es.EZ (V/m) @ t=1.02
-0.7745719058199976
% es.tEX (V/m) @ t=1.02
-3.039056427168184
% es.tEY (V/m) @ t=1.02
0
% es.tEZ (V/m) @ t=1.02
-0.7745719058199931
% es.Ex (V/m) @ t=1.02
-3.039056427168168
% es.Ey (V/m) @ t=1.02
0.23411683258797233
% es.Ez (V/m) @ t=1.02
-0.7745719058199976
% es.tEx (V/m) @ t=1.02
-3.039056427168184
% es.tEy (V/m) @ t=1.02
0
% es.tEz (V/m) @ t=1.02
-0.7745719058199931
% V (V) @ t=1.02
0.01822696329604847
% es.normE (V/m) @ t=1.04
3.1732827686287877
% es.EX (V/m) @ t=1.04
-3.066230795035956