% Model:              1 neuron.mph
% Version:            COMSOL 6.1.0.252
% Date:               Mar 22 2023, 17:58
% Dimension:          0
% Nodes:              14017
% Expressions:        14017
% Description:        Electric field norm, Electric field, X component, Electric field, Y component, Electric field, Z component, Tangential electric field, X component, Tangential electric field, Y component, Tangential electric field, Z component, Electric field, x component, Electric field, y component, Electric field, z component, Tangential electric field, x component, Tangential electric field, y component, Tangential electric field, z component, Electric potential
% Length unit:        mm
% x
1.33
% y
12.2
% z
1
% es.normE (V/m) @ t=0
2.8296100886461613
% es.EX (V/m) @ t=0
0.8733952781792813
% es.EY (V/m) @ t=0
0.21159257286443478
% es.EZ (V/m) @ t=0
2.6830949484644737
% es.tEX (V/m) @ t=0
0.8733952781792809
% es.tEY (V/m) @ t=0
0
% es.tEZ (V/m) @ t=0
2.6830949484644897
% es.Ex (V/m) @ t=0
0.8733952781792813
% es.Ey (V/m) @ t=0
0.21159257286443478
% es.Ez (V/m) @ t=0
2.6830949484644737
% es.tEx (V/m) @ t=0
0.8733952781792809
% es.tEy (V/m) @ t=0
0
% es.tEz (V/m) @ t=0
2.6830949484644897
% V (V) @ t=0
0.013234153965706893
% es.normE (V/m) @ t=0.02
2.443960122928659
% es.EX (V/m) @ t=0.02
0.7543594928301167
% es.EY (V/m) @ t=0.02
0.18275444117867334
% es.EZ (V/m) @ t=0.02
2.3174136558235845
% es.tEX (V/m) @ t=0.02
0.7543594928301118
% es.tEY (V/m) @ t=0.02
0
% es.tEZ (V/m) @ t=0.02
2.317413655823586
% es.Ex (V/m) @ t=0.02
0.7543594928301167
% es.Ey (V/m) @ t=0.02
0.18275444117867334
% es.Ez (V/m) @ t=0.02
2.3174136558235845
% es.tEx (V/m) @ t=0.02
0.7543594928301118
% es.tEy (V/m) @ t=0.02
0
% es.tEz (V/m) @ t=0.02
2.317413655823586
% V (V) @ t=0.02
0.011430459866347165
% es.normE (V/m) @ t=0.04
2.466439989874236
% es.EX (V/m) @ t=0.04
0.761298190729316
% es.EY (V/m) @ t=0.04
0.18443544063764805
% es.EZ (V/m) @ t=0.04
2.338729531709342
% es.tEX (V/m) @ t=0.04
0.7612981907293204
% es.tEY (V/m) @ t=0.04
0
% es.tEZ (V/m) @ t=0.04
2.338729531709351
% es.Ex (V/m) @ t=0.04
0.761298190729316
% es.Ey (V/m) @ t=0.04
0.18443544063764805
% es.Ez (V/m) @ t=0.04
2.338729531709342
% es.tEx (V/m) @ t=0.04
0.7612981907293204
% es.tEy (V/m) @ t=0.04
0
% es.tEz (V/m) @ t=0.04
2.338729531709351
% V (V) @ t=0.04
0.0115355987422334
% es.normE (V/m) @ t=0.06
2.489081673143784
% es.EX (V/m) @ t=0.06
0.7682868353602256
% es.EY (V/m) @ t=0.06
0.1861285402646422
% es.EZ (V/m) @ t=0.06
2.3601988451795273
% es.tEX (V/m) @ t=0.06
0.7682868353602288
% es.tEY (V/m) @ t=0.06
0
% es.tEZ (V/m) @ t=0.06
2.3601988451795357
% es.Ex (V/m) @ t=0.06
0.7682868353602256
% es.Ey (V/m) @ t=0.06
0.1861285402646422
% es.Ez (V/m) @ t=0.06
2.3601988451795273
% es.tEx (V/m) @ t=0.06
0.7682868353602288
% es.tEy (V/m) @ t=0.06
0
% es.tEz (V/m) @ t=0.06
2.3601988451795357
% V (V) @ t=0.06
0.011641494433377149
% es.normE (V/m) @ t=0.08
2.512161762298585
% es.EX (V/m) @ t=0.08
0.7754107995418335
% es.EY (V/m) @ t=0.08
0.18785442306197953
% es.EZ (V/m) @ t=0.08
2.382083864202082
% es.tEX (V/m) @ t=0.08
0.775410799541838
% es.tEY (V/m) @ t=0.08
0
% es.tEZ (V/m) @ t=0.08
2.3820838642021
% es.Ex (V/m) @ t=0.08
0.7754107995418335
% es.Ey (V/m) @ t=0.08
0.18785442306197953
% es.Ez (V/m) @ t=0.08
2.382083864202082
% es.tEx (V/m) @ t=0.08
0.775410799541838
% es.tEy (V/m) @ t=0.08
0
% es.tEz (V/m) @ t=0.08
2.3820838642021
% V (V) @ t=0.08
0.0117494405611103
% es.normE (V/m) @ t=0.1
2.5353530549641317
% es.EX (V/m) @ t=0.1
0.782569088100951
% es.EY (V/m) @ t=0.1
0.18958862144941968
% es.EZ (V/m) @ t=0.1
2.404074328699745
% es.tEX (V/m) @ t=0.1
0.7825690881009493
% es.tEY (V/m) @ t=0.1
0
% es.tEZ (V/m) @ t=0.1
2.4040743286997444
% es.Ex (V/m) @ t=0.1
0.782569088100951
% es.Ey (V/m) @ t=0.1
0.18958862144941968
% es.Ez (V/m) @ t=0.1
2.404074328699745
% es.tEx (V/m) @ t=0.1
0.7825690881009493
% es.tEy (V/m) @ t=0.1
0
% es.tEz (V/m) @ t=0.1
2.4040743286997444
% V (V) @ t=0.1
0.011857906790774135
% es.normE (V/m) @ t=0.12
2.558544347629664
% es.EX (V/m) @ t=0.12
0.7897273766600643
% es.EY (V/m) @ t=0.12
0.19132281983686406
% es.EZ (V/m) @ t=0.12
2.4260647931973933
% es.tEX (V/m) @ t=0.12
0.7897273766600748
% es.tEY (V/m) @ t=0.12
0
% es.tEZ (V/m) @ t=0.12
2.4260647931973924
% es.Ex (V/m) @ t=0.12
0.7897273766600643
% es.Ey (V/m) @ t=0.12
0.19132281983686406
% es.Ez (V/m) @ t=0.12
2.4260647931973933
% es.tEx (V/m) @ t=0.12
0.7897273766600748
% es.tEy (V/m) @ t=0.12
0
% es.tEz (V/m) @ t=0.12
2.4260647931973924
% V (V) @ t=0.12
0.011966373020437971
% es.normE (V/m) @ t=0.14
2.5824327026009763
% es.EX (V/m) @ t=0.14
0.7971008225224447
% es.EY (V/m) @ t=0.14
0.19310914289556658
% es.EZ (V/m) @ t=0.14
2.448716226603451
% es.tEX (V/m) @ t=0.14
0.7971008225224452
% es.tEY (V/m) @ t=0.14
0
% es.tEZ (V/m) @ t=0.14
2.448716226603464
% es.Ex (V/m) @ t=0.14
0.7971008225224447
% es.Ey (V/m) @ t=0.14
0.19310914289556658
% es.Ez (V/m) @ t=0.14
2.448716226603451
% es.tEx (V/m) @ t=0.14
0.7971008225224452
% es.tEy (V/m) @ t=0.14
0
% es.tEz (V/m) @ t=0.14
2.448716226603464
% V (V) @ t=0.14
0.012078099420055452
% es.normE (V/m) @ t=0.16
2.6067827172331004
% es.EX (V/m) @ t=0.16
0.8046167656147325
% es.EY (V/m) @ t=0.16
0.19492998777227288
% es.EZ (V/m) @ t=0.16
2.471805415256828
% es.tEX (V/m) @ t=0.16
0.8046167656147318
% es.tEY (V/m) @ t=0.16
0
% es.tEZ (V/m) @ t=0.16
2.471805415256826
% es.Ex (V/m) @ t=0.16
0.8046167656147325
% es.Ey (V/m) @ t=0.16
0.19492998777227288
% es.Ez (V/m) @ t=0.16
2.471805415256828
% es.tEx (V/m) @ t=0.16
0.8046167656147318
% es.tEy (V/m) @ t=0.16
0
% es.tEz (V/m) @ t=0.16
2.471805415256826
% V (V) @ t=0.16
0.012191985008231251
% es.normE (V/m) @ t=0.18
2.631132731865233
% es.EX (V/m) @ t=0.18
0.8121327087070218
% es.EY (V/m) @ t=0.18
0.19675083264897575
% es.EZ (V/m) @ t=0.18
2.494894603910213
% es.tEX (V/m) @ t=0.18
0.8121327087070256
% es.tEY (V/m) @ t=0.18
0
% es.tEZ (V/m) @ t=0.18
2.4948946039102164
% es.Ex (V/m) @ t=0.18
0.8121327087070218
% es.Ey (V/m) @ t=0.18
0.19675083264897575
% es.Ez (V/m) @ t=0.18
2.494894603910213
% es.tEx (V/m) @ t=0.18
0.8121327087070256
% es.tEy (V/m) @ t=0.18
0
% es.tEz (V/m) @ t=0.18
2.4948946039102164
% V (V) @ t=0.18
0.012305870596407052
% es.normE (V/m) @ t=0.2
2.6554827464973734
% es.EX (V/m) @ t=0.2
0.8196486517993065
% es.EY (V/m) @ t=0.2
0.19857167752568905
% es.EZ (V/m) @ t=0.2
2.517983792563607
% es.tEX (V/m) @ t=0.2
0.8196486517993122
% es.tEY (V/m) @ t=0.2
0
% es.tEZ (V/m) @ t=0.2
2.5179837925635926
% es.Ex (V/m) @ t=0.2
0.8196486517993065
% es.Ey (V/m) @ t=0.2
0.19857167752568905
% es.Ez (V/m) @ t=0.2
2.517983792563607
% es.tEx (V/m) @ t=0.2
0.8196486517993122
% es.tEy (V/m) @ t=0.2
0
% es.tEz (V/m) @ t=0.2
2.5179837925635926
% V (V) @ t=0.2
0.012419756184582851
% es.normE (V/m) @ t=0.22
2.6798327611294797
% es.EX (V/m) @ t=0.22
0.8271645948915944
% es.EY (V/m) @ t=0.22
0.20039252240238126
% es.EZ (V/m) @ t=0.22
2.5410729812169657
% es.tEX (V/m) @ t=0.22
0.827164594891606
% es.tEY (V/m) @ t=0.22
0
% es.tEZ (V/m) @ t=0.22
2.541072981216969
% es.Ex (V/m) @ t=0.22
0.8271645948915944
% es.Ey (V/m) @ t=0.22
0.20039252240238126
% es.Ez (V/m) @ t=0.22
2.5410729812169657
% es.tEx (V/m) @ t=0.22
0.827164594891606
% es.tEy (V/m) @ t=0.22
0
% es.tEz (V/m) @ t=0.22
2.541072981216969
% V (V) @ t=0.22
0.012533641772758649
% es.normE (V/m) @ t=0.24
2.7041827757615797
% es.EX (V/m) @ t=0.24
0.8346805379838789
% es.EY (V/m) @ t=0.24
0.2022133672791021
% es.EZ (V/m) @ t=0.24
2.564162169870317
% es.tEX (V/m) @ t=0.24
0.8346805379838855
% es.tEY (V/m) @ t=0.24
0
% es.tEZ (V/m) @ t=0.24
2.5641621698703183
% es.Ex (V/m) @ t=0.24
0.8346805379838789
% es.Ey (V/m) @ t=0.24
0.2022133672791021
% es.Ez (V/m) @ t=0.24
2.564162169870317
% es.tEx (V/m) @ t=0.24
0.8346805379838855
% es.tEy (V/m) @ t=0.24
0
% es.tEz (V/m) @ t=0.24
2.5641621698703183
% V (V) @ t=0.24
0.01264752736093445
% es.normE (V/m) @ t=0.26
2.729074523112207
% es.EX (V/m) @ t=0.26
0.8423636937237524
% es.EY (V/m) @ t=0.26
0.20407472199959276
% es.EZ (V/m) @ t=0.26
2.587765040729945
% es.tEX (V/m) @ t=0.26
0.8423636937237546
% es.tEY (V/m) @ t=0.26
0
% es.tEZ (V/m) @ t=0.26
2.58776504072995
% es.Ex (V/m) @ t=0.26
0.8423636937237524
% es.Ey (V/m) @ t=0.26
0.20407472199959276
% es.Ez (V/m) @ t=0.26
2.587765040729945
% es.tEx (V/m) @ t=0.26
0.8423636937237546
% es.tEy (V/m) @ t=0.26
0
% es.tEz (V/m) @ t=0.26
2.58776504072995
% V (V) @ t=0.26
0.012763946649475163
% es.normE (V/m) @ t=0.28
2.7560116150921674
% es.EX (V/m) @ t=0.28
0.8506781709234656
% es.EY (V/m) @ t=0.28
0.2060890240842388
% es.EZ (V/m) @ t=0.28
2.6133073498141077
% es.tEX (V/m) @ t=0.28
0.8506781709234588
% es.tEY (V/m) @ t=0.28
0
% es.tEZ (V/m) @ t=0.28
2.6133073498141073
% es.Ex (V/m) @ t=0.28
0.8506781709234656
% es.Ey (V/m) @ t=0.28
0.2060890240842388
% es.Ez (V/m) @ t=0.28
2.6133073498141077
% es.tEx (V/m) @ t=0.28
0.8506781709234588
% es.tEy (V/m) @ t=0.28
0
% es.tEz (V/m) @ t=0.28
2.6133073498141073
% V (V) @ t=0.28
0.012889932076919556
% es.normE (V/m) @ t=0.3
2.782948707072076
% es.EX (V/m) @ t=0.3
0.8589926481231653
% es.EY (V/m) @ t=0.3
0.20810332616890226
% es.EZ (V/m) @ t=0.3
2.638849658898219
% es.tEX (V/m) @ t=0.3
0.85899264812317
% es.tEY (V/m) @ t=0.3
0
% es.tEZ (V/m) @ t=0.3
2.6388496588982218
% es.Ex (V/m) @ t=0.3
0.8589926481231653
% es.Ey (V/m) @ t=0.3
0.20810332616890226
% es.Ez (V/m) @ t=0.3
2.638849658898219
% es.tEx (V/m) @ t=0.3
0.85899264812317
% es.tEy (V/m) @ t=0.3
0
% es.tEz (V/m) @ t=0.3
2.6388496588982218
% V (V) @ t=0.3
0.013015917504363947
% es.normE (V/m) @ t=0.32
2.809885799052033
% es.EX (V/m) @ t=0.32
0.8673071253228879
% es.EY (V/m) @ t=0.32
0.21011762825355507
% es.EZ (V/m) @ t=0.32
2.6643919679823744
% es.tEX (V/m) @ t=0.32
0.8673071253228883
% es.tEY (V/m) @ t=0.32
0
% es.tEZ (V/m) @ t=0.32
2.664391967982379
% es.Ex (V/m) @ t=0.32
0.8673071253228879
% es.Ey (V/m) @ t=0.32
0.21011762825355507
% es.Ez (V/m) @ t=0.32
2.6643919679823744
% es.tEx (V/m) @ t=0.32
0.8673071253228883
% es.tEy (V/m) @ t=0.32
0
% es.tEz (V/m) @ t=0.32
2.664391967982379
% V (V) @ t=0.32
0.01314190293180834
% es.normE (V/m) @ t=0.34
2.8368228910319493
% es.EX (V/m) @ t=0.34
0.8756216025225902
% es.EY (V/m) @ t=0.34
0.2121319303382121
% es.EZ (V/m) @ t=0.34
2.6899342770664934
% es.tEX (V/m) @ t=0.34
0.8756216025225925
% es.tEY (V/m) @ t=0.34
0
% es.tEZ (V/m) @ t=0.34
2.689934277066506
% es.Ex (V/m) @ t=0.34
0.8756216025225902
% es.Ey (V/m) @ t=0.34
0.2121319303382121
% es.Ez (V/m) @ t=0.34
2.6899342770664934
% es.tEx (V/m) @ t=0.34
0.8756216025225925
% es.tEy (V/m) @ t=0.34
0
% es.tEz (V/m) @ t=0.34
2.689934277066506
% V (V) @ t=0.34
0.01326788835925273
% es.normE (V/m) @ t=0.36
2.8637599830119007
% es.EX (V/m) @ t=0.36
0.883936079722301
% es.EY (V/m) @ t=0.36
0.21414623242285424
% es.EZ (V/m) @ t=0.36
2.715476586150648
% es.tEX (V/m) @ t=0.36
0.8839360797223037
% es.tEY (V/m) @ t=0.36
0
% es.tEZ (V/m) @ t=0.36
2.715476586150661
% es.Ex (V/m) @ t=0.36
0.883936079722301
% es.Ey (V/m) @ t=0.36
0.21414623242285424
% es.Ez (V/m) @ t=0.36
2.715476586150648
% es.tEx (V/m) @ t=0.36
0.8839360797223037
% es.tEy (V/m) @ t=0.36
0
% es.tEz (V/m) @ t=0.36
2.715476586150661
% V (V) @ t=0.36
0.013393873786697121
% es.normE (V/m) @ t=0.38
2.890697074991832
% es.EX (V/m) @ t=0.38
0.8922505569220089
% es.EY (V/m) @ t=0.38
0.21616053450751438
% es.EZ (V/m) @ t=0.38
2.741018895234781
% es.tEX (V/m) @ t=0.38
0.892250556922022
% es.tEY (V/m) @ t=0.38
0
% es.tEZ (V/m) @ t=0.38
2.7410188952347916
% es.Ex (V/m) @ t=0.38
0.8922505569220089
% es.Ey (V/m) @ t=0.38
0.21616053450751438
% es.Ez (V/m) @ t=0.38
2.741018895234781
% es.tEx (V/m) @ t=0.38
0.892250556922022
% es.tEy (V/m) @ t=0.38
0
% es.tEz (V/m) @ t=0.38
2.7410188952347916
% V (V) @ t=0.38
0.013519859214141512
% es.normE (V/m) @ t=0.4
2.9176341669717543
% es.EX (V/m) @ t=0.4
0.9005650341217071
% es.EY (V/m) @ t=0.4
0.2181748365921783
% es.EZ (V/m) @ t=0.4
2.766561204318907
% es.tEX (V/m) @ t=0.4
0.9005650341217049
% es.tEY (V/m) @ t=0.4
0
% es.tEZ (V/m) @ t=0.4
2.7665612043189185
% es.Ex (V/m) @ t=0.4
0.9005650341217071
% es.Ey (V/m) @ t=0.4
0.2181748365921783
% es.Ez (V/m) @ t=0.4
2.766561204318907
% es.tEx (V/m) @ t=0.4
0.9005650341217049
% es.tEy (V/m) @ t=0.4
0
% es.tEz (V/m) @ t=0.4
2.7665612043189185
% V (V) @ t=0.4
0.013645844641585907
% es.normE (V/m) @ t=0.42
2.9445712589517243
% es.EX (V/m) @ t=0.42
0.9088795113214205
% es.EY (V/m) @ t=0.42
0.22018913867686618
% es.EZ (V/m) @ t=0.42
2.7921035134030765
% es.tEX (V/m) @ t=0.42
0.9088795113214303
% es.tEY (V/m) @ t=0.42
0
% es.tEZ (V/m) @ t=0.42
2.792103513403088
% es.Ex (V/m) @ t=0.42
0.9088795113214205
% es.Ey (V/m) @ t=0.42
0.22018913867686618
% es.Ez (V/m) @ t=0.42
2.7921035134030765
% es.tEx (V/m) @ t=0.42
0.9088795113214303
% es.tEy (V/m) @ t=0.42
0
% es.tEz (V/m) @ t=0.42
2.792103513403088
% V (V) @ t=0.42
0.013771830069030298
% es.normE (V/m) @ t=0.44
2.971508350931653
% es.EX (V/m) @ t=0.44
0.917193988521122
% es.EY (V/m) @ t=0.44
0.22220344076151588
% es.EZ (V/m) @ t=0.44
2.8176458224872096
% es.tEX (V/m) @ t=0.44
0.9171939885211344
% es.tEY (V/m) @ t=0.44
0
% es.tEZ (V/m) @ t=0.44
2.8176458224872043
% es.Ex (V/m) @ t=0.44
0.917193988521122
% es.Ey (V/m) @ t=0.44
0.22220344076151588
% es.Ez (V/m) @ t=0.44
2.8176458224872096
% es.tEx (V/m) @ t=0.44
0.9171939885211344
% es.tEy (V/m) @ t=0.44
0
% es.tEz (V/m) @ t=0.44
2.8176458224872043
% V (V) @ t=0.44
0.013897815496474689
% es.normE (V/m) @ t=0.46
2.998445442911586
% es.EX (V/m) @ t=0.46
0.925508465720833
% es.EY (V/m) @ t=0.46
0.22421774284616136
% es.EZ (V/m) @ t=0.46
2.8431881315713436
% es.tEX (V/m) @ t=0.46
0.9255084657208386
% es.tEY (V/m) @ t=0.46
0
% es.tEZ (V/m) @ t=0.46
2.8431881315713596
% es.Ex (V/m) @ t=0.46
0.925508465720833
% es.Ey (V/m) @ t=0.46
0.22421774284616136
% es.Ez (V/m) @ t=0.46
2.8431881315713436
% es.tEx (V/m) @ t=0.46
0.9255084657208386
% es.tEy (V/m) @ t=0.46
0
% es.tEz (V/m) @ t=0.46
2.8431881315713596
% V (V) @ t=0.46
0.014023800923919081
% es.normE (V/m) @ t=0.48
3.025382534891518
% es.EX (V/m) @ t=0.48
0.9338229429205487
% es.EY (V/m) @ t=0.48
0.22623204493079707
% es.EZ (V/m) @ t=0.48
2.8687304406554768
% es.tEX (V/m) @ t=0.48
0.9338229429205427
% es.tEY (V/m) @ t=0.48
0
% es.tEZ (V/m) @ t=0.48
2.8687304406554865
% es.Ex (V/m) @ t=0.48
0.9338229429205487
% es.Ey (V/m) @ t=0.48
0.22623204493079707
% es.Ez (V/m) @ t=0.48
2.8687304406554768
% es.tEx (V/m) @ t=0.48
0.9338229429205427
% es.tEy (V/m) @ t=0.48
0
% es.tEz (V/m) @ t=0.48
2.8687304406554865
% V (V) @ t=0.48
0.014149786351363472
% es.normE (V/m) @ t=0.5
3.052319626871469
% es.EX (V/m) @ t=0.5
0.9421374201202541
% es.EY (V/m) @ t=0.5
0.22824634701545787
% es.EZ (V/m) @ t=0.5
2.8942727497396312
% es.tEX (V/m) @ t=0.5
0.9421374201202468
% es.tEY (V/m) @ t=0.5
0
% es.tEZ (V/m) @ t=0.5
2.8942727497396312
% es.Ex (V/m) @ t=0.5
0.9421374201202541
% es.Ey (V/m) @ t=0.5
0.22824634701545787
% es.Ez (V/m) @ t=0.5
2.8942727497396312
% es.tEx (V/m) @ t=0.5
0.9421374201202468
% es.tEy (V/m) @ t=0.5
0
% es.tEz (V/m) @ t=0.5
2.8942727497396312
% V (V) @ t=0.5
0.014275771778807863
% es.normE (V/m) @ t=0.52
3.0804928096975406
% es.EX (V/m) @ t=0.52
0.9508334325979657
% es.EY (V/m) @ t=0.52
0.23035308135751986
% es.EZ (V/m) @ t=0.52
2.9209871457820427
% es.tEX (V/m) @ t=0.52
0.9508334325979604
% es.tEY (V/m) @ t=0.52
0
% es.tEZ (V/m) @ t=0.52
2.920987145782046
% es.Ex (V/m) @ t=0.52
0.9508334325979657
% es.Ey (V/m) @ t=0.52
0.23035308135751986
% es.Ez (V/m) @ t=0.52
2.9209871457820427
% es.tEx (V/m) @ t=0.52
0.9508334325979604
% es.tEy (V/m) @ t=0.52
0
% es.tEz (V/m) @ t=0.52
2.920987145782046
% V (V) @ t=0.52
0.014407538430588113
% es.normE (V/m) @ t=0.54
3.110338067613724
% es.EX (V/m) @ t=0.54
0.9600455524769778
% es.EY (V/m) @ t=0.54
0.2325848499359935
% es.EZ (V/m) @ t=0.54
2.949287038078632
% es.tEX (V/m) @ t=0.54
0.96004555247697
% es.tEY (V/m) @ t=0.54
0
% es.tEZ (V/m) @ t=0.54
2.9492870380786336
% es.Ex (V/m) @ t=0.54
0.9600455524769778
% es.Ey (V/m) @ t=0.54
0.2325848499359935
% es.Ez (V/m) @ t=0.54
2.949287038078632
% es.tEx (V/m) @ t=0.54
0.96004555247697
% es.tEy (V/m) @ t=0.54
0
% es.tEz (V/m) @ t=0.54
2.9492870380786336
% V (V) @ t=0.54
0.01454712541469463
% es.normE (V/m) @ t=0.56
3.1401833255299145
% es.EX (V/m) @ t=0.56
0.9692576723559672
% es.EY (V/m) @ t=0.56
0.23481661851446778
% es.EZ (V/m) @ t=0.56
2.977586930375236
% es.tEX (V/m) @ t=0.56
0.9692576723559796
% es.tEY (V/m) @ t=0.56
0
% es.tEZ (V/m) @ t=0.56
2.9775869303752316
% es.Ex (V/m) @ t=0.56
0.9692576723559672
% es.Ey (V/m) @ t=0.56
0.23481661851446778
% es.Ez (V/m) @ t=0.56
2.977586930375236
% es.tEx (V/m) @ t=0.56
0.9692576723559796
% es.tEy (V/m) @ t=0.56
0
% es.tEz (V/m) @ t=0.56
2.9775869303752316
% V (V) @ t=0.56
0.014686712398801146
% es.normE (V/m) @ t=0.58
3.170028583446091
% es.EX (V/m) @ t=0.58
0.9784697922349774
% es.EY (V/m) @ t=0.58
0.2370483870929525
% es.EZ (V/m) @ t=0.58
3.005886822671817
% es.tEX (V/m) @ t=0.58
0.978469792234975
% es.tEY (V/m) @ t=0.58
0
% es.tEZ (V/m) @ t=0.58
3.0058868226718296
% es.Ex (V/m) @ t=0.58
0.9784697922349774
% es.Ey (V/m) @ t=0.58
0.2370483870929525
% es.Ez (V/m) @ t=0.58
3.005886822671817
% es.tEx (V/m) @ t=0.58
0.978469792234975
% es.tEy (V/m) @ t=0.58
0
% es.tEz (V/m) @ t=0.58
3.0058868226718296
% V (V) @ t=0.58
0.014826299382907665
% es.normE (V/m) @ t=0.6
3.199873841362254
% es.EX (V/m) @ t=0.6
0.987681912113981
% es.EY (V/m) @ t=0.6
0.239280155671437
% es.EZ (V/m) @ t=0.6
3.0341867149683868
% es.tEX (V/m) @ t=0.6
0.9876819121139704
% es.tEY (V/m) @ t=0.6
0
% es.tEZ (V/m) @ t=0.6
3.0341867149683885
% es.Ex (V/m) @ t=0.6
0.987681912113981
% es.Ey (V/m) @ t=0.6
0.239280155671437
% es.Ez (V/m) @ t=0.6
3.0341867149683868
% es.tEx (V/m) @ t=0.6
0.9876819121139704
% es.tEy (V/m) @ t=0.6
0
% es.tEz (V/m) @ t=0.6
3.0341867149683885
% V (V) @ t=0.6
0.01496588636701418
% es.normE (V/m) @ t=0.62
3.229719099278441
% es.EX (V/m) @ t=0.62
0.99689403199297
% es.EY (V/m) @ t=0.62
0.24151192424990042
% es.EZ (V/m) @ t=0.62
3.0624866072649883
% es.tEX (V/m) @ t=0.62
0.9968940319929658
% es.tEY (V/m) @ t=0.62
0
% es.tEZ (V/m) @ t=0.62
3.0624866072649866
% es.Ex (V/m) @ t=0.62
0.99689403199297
% es.Ey (V/m) @ t=0.62
0.24151192424990042
% es.Ez (V/m) @ t=0.62
3.0624866072649883
% es.tEx (V/m) @ t=0.62
0.9968940319929658
% es.tEy (V/m) @ t=0.62
0
% es.tEz (V/m) @ t=0.62
3.0624866072649866
% V (V) @ t=0.62
0.015105473351120698
% es.normE (V/m) @ t=0.64
3.259564357194618
% es.EX (V/m) @ t=0.64
1.0061061518719814
% es.EY (V/m) @ t=0.64
0.24374369282838848
% es.EZ (V/m) @ t=0.64
3.0907864995615704
% es.tEX (V/m) @ t=0.64
1.0061061518719896
% es.tEY (V/m) @ t=0.64
0
% es.tEZ (V/m) @ t=0.64
3.0907864995615704
% es.Ex (V/m) @ t=0.64
1.0061061518719814
% es.Ey (V/m) @ t=0.64
0.24374369282838848
% es.Ez (V/m) @ t=0.64
3.0907864995615704
% es.tEx (V/m) @ t=0.64
1.0061061518719896
% es.tEy (V/m) @ t=0.64
0
% es.tEz (V/m) @ t=0.64
3.0907864995615704
% V (V) @ t=0.64
0.015245060335227214
% es.normE (V/m) @ t=0.66
3.2894096151108054
% es.EX (V/m) @ t=0.66
1.0153182717509783
% es.EY (V/m) @ t=0.66
0.24597546140688453
% es.EZ (V/m) @ t=0.66
3.1190863918581666
% es.tEX (V/m) @ t=0.66
1.015318271750985
% es.tEY (V/m) @ t=0.66
0
% es.tEZ (V/m) @ t=0.66
3.119086391858172
% es.Ex (V/m) @ t=0.66
1.0153182717509783
% es.Ey (V/m) @ t=0.66
0.24597546140688453
% es.Ez (V/m) @ t=0.66
3.1190863918581666
% es.tEx (V/m) @ t=0.66
1.015318271750985
% es.tEy (V/m) @ t=0.66
0
% es.tEz (V/m) @ t=0.66
3.119086391858172
% V (V) @ t=0.66
0.015384647319333733
% es.normE (V/m) @ t=0.68
3.319254873026968
% es.EX (V/m) @ t=0.68
1.024530391629975
% es.EY (V/m) @ t=0.68
0.2482072299853113
% es.EZ (V/m) @ t=0.68
3.1473862841547424
% es.tEX (V/m) @ t=0.68
1.0245303916299804
% es.tEY (V/m) @ t=0.68
0
% es.tEZ (V/m) @ t=0.68
3.1473862841547415
% es.Ex (V/m) @ t=0.68
1.024530391629975
% es.Ey (V/m) @ t=0.68
0.2482072299853113
% es.Ez (V/m) @ t=0.68
3.1473862841547424
% es.tEx (V/m) @ t=0.68
1.0245303916299804
% es.tEy (V/m) @ t=0.68
0
% es.tEz (V/m) @ t=0.68
3.1473862841547415
% V (V) @ t=0.68
0.015524234303440248
% es.normE (V/m) @ t=0.7
3.3491001309431585
% es.EX (V/m) @ t=0.7
1.033742511508986
% es.EY (V/m) @ t=0.7
0.2504389985637854
% es.EZ (V/m) @ t=0.7
3.1756861764513395
% es.tEX (V/m) @ t=0.7
1.0337425115089758
% es.tEY (V/m) @ t=0.7
0
% es.tEZ (V/m) @ t=0.7
3.1756861764513538
% es.Ex (V/m) @ t=0.7
1.033742511508986
% es.Ey (V/m) @ t=0.7
0.2504389985637854
% es.Ez (V/m) @ t=0.7
3.1756861764513395
% es.tEx (V/m) @ t=0.7
1.0337425115089758
% es.tEy (V/m) @ t=0.7
0
% es.tEz (V/m) @ t=0.7
3.1756861764513538
% V (V) @ t=0.7
0.015663821287546766
% es.normE (V/m) @ t=0.72
3.378945388859358
% es.EX (V/m) @ t=0.72
1.0429546313879963
% es.EY (V/m) @ t=0.72
0.2526707671423125
% es.EZ (V/m) @ t=0.72
3.203986068747942
% es.tEX (V/m) @ t=0.72
1.0429546313879854
% es.tEY (V/m) @ t=0.72
0
% es.tEZ (V/m) @ t=0.72
3.2039860687479447
% es.Ex (V/m) @ t=0.72
1.0429546313879963
% es.Ey (V/m) @ t=0.72
0.2526707671423125
% es.Ez (V/m) @ t=0.72
3.203986068747942
% es.tEx (V/m) @ t=0.72
1.0429546313879854
% es.tEy (V/m) @ t=0.72
0
% es.tEz (V/m) @ t=0.72
3.2039860687479447
% V (V) @ t=0.72
0.01580340827165328
% es.normE (V/m) @ t=0.74
3.4087906467755267
% es.EX (V/m) @ t=0.74
1.0521667512669861
% es.EY (V/m) @ t=0.74
0.25490253572075816
% es.EZ (V/m) @ t=0.74
3.232285961044525
% es.tEX (V/m) @ t=0.74
1.052166751266995
% es.tEY (V/m) @ t=0.74
0
% es.tEZ (V/m) @ t=0.74
3.2322859610445285
% es.Ex (V/m) @ t=0.74
1.0521667512669861
% es.Ey (V/m) @ t=0.74
0.25490253572075816
% es.Ez (V/m) @ t=0.74
3.232285961044525
% es.tEx (V/m) @ t=0.74
1.052166751266995
% es.tEy (V/m) @ t=0.74
0
% es.tEz (V/m) @ t=0.74
3.2322859610445285
% V (V) @ t=0.74
0.0159429952557598
% es.normE (V/m) @ t=0.76
3.438635904691688
% es.EX (V/m) @ t=0.76
1.0613788711459684
% es.EY (V/m) @ t=0.76
0.25713430429925066
% es.EZ (V/m) @ t=0.76
3.260585853341099
% es.tEX (V/m) @ t=0.76
1.0613788711459762
% es.tEY (V/m) @ t=0.76
0
% es.tEZ (V/m) @ t=0.76
3.2605858533410945
% es.Ex (V/m) @ t=0.76
1.0613788711459684
% es.Ey (V/m) @ t=0.76
0.25713430429925066
% es.Ez (V/m) @ t=0.76
3.260585853341099
% es.tEx (V/m) @ t=0.76
1.0613788711459762
% es.tEy (V/m) @ t=0.76
0
% es.tEz (V/m) @ t=0.76
3.2605858533410945
% V (V) @ t=0.76
0.016082582239866316
% es.normE (V/m) @ t=0.78
3.4705793226685024
% es.EX (V/m) @ t=0.78
1.0712386149158561
% es.EY (V/m) @ t=0.78
0.2595229690762053
% es.EZ (V/m) @ t=0.78
3.2908752645053383
% es.tEX (V/m) @ t=0.78
1.0712386149158704
% es.tEY (V/m) @ t=0.78
0
% es.tEZ (V/m) @ t=0.78
3.290875264505342
% es.Ex (V/m) @ t=0.78
1.0712386149158561
% es.Ey (V/m) @ t=0.78
0.2595229690762053
% es.Ez (V/m) @ t=0.78
3.2908752645053383
% es.tEx (V/m) @ t=0.78
1.0712386149158704
% es.tEy (V/m) @ t=0.78
0
% es.tEz (V/m) @ t=0.78
3.290875264505342
% V (V) @ t=0.78
0.016231982368700573
% es.normE (V/m) @ t=0.8
3.5036994595282027
% es.EX (V/m) @ t=0.8
1.0814615679926503
% es.EY (V/m) @ t=0.8
0.2619996265296545
% es.EZ (V/m) @ t=0.8
3.3222804649095625
% es.tEX (V/m) @ t=0.8
1.0814615679926618
% es.tEY (V/m) @ t=0.8
0
% es.tEZ (V/m) @ t=0.8
3.322280464909568
% es.Ex (V/m) @ t=0.8
1.0814615679926503
% es.Ey (V/m) @ t=0.8
0.2619996265296545
% es.Ez (V/m) @ t=0.8
3.3222804649095625
% es.tEx (V/m) @ t=0.8
1.0814615679926618
% es.tEy (V/m) @ t=0.8
0
% es.tEz (V/m) @ t=0.8
3.322280464909568
% V (V) @ t=0.8
0.01638688603986154
% es.normE (V/m) @ t=0.82
3.536819596387873
% es.EX (V/m) @ t=0.82
1.0916845210694048
% es.EY (V/m) @ t=0.82
0.2644762839830772
% es.EZ (V/m) @ t=0.82
3.35368566531377
% es.tEX (V/m) @ t=0.82
1.0916845210694106
% es.tEY (V/m) @ t=0.82
0
% es.tEZ (V/m) @ t=0.82
3.3536856653137725
% es.Ex (V/m) @ t=0.82
1.0916845210694048
% es.Ey (V/m) @ t=0.82
0.2644762839830772
% es.Ez (V/m) @ t=0.82
3.35368566531377
% es.tEx (V/m) @ t=0.82
1.0916845210694106
% es.tEy (V/m) @ t=0.82
0
% es.tEz (V/m) @ t=0.82
3.3536856653137725
% V (V) @ t=0.82
0.01654178971102251
% es.normE (V/m) @ t=0.84
3.569939733247592
% es.EX (V/m) @ t=0.84
1.1019074741462014
% es.EY (V/m) @ t=0.84
0.26695294143651527
% es.EZ (V/m) @ t=0.84
3.3850908657180145
% es.tEX (V/m) @ t=0.84
1.101907474146202
% es.tEY (V/m) @ t=0.84
0
% es.tEZ (V/m) @ t=0.84
3.3850908657180128
% es.Ex (V/m) @ t=0.84
1.1019074741462014
% es.Ey (V/m) @ t=0.84
0.26695294143651527
% es.Ez (V/m) @ t=0.84
3.3850908657180145
% es.tEx (V/m) @ t=0.84
1.101907474146202
% es.tEy (V/m) @ t=0.84
0
% es.tEz (V/m) @ t=0.84
3.3850908657180128
% V (V) @ t=0.84
0.016696693382183478
% es.normE (V/m) @ t=0.86
3.6030598701072973
% es.EX (V/m) @ t=0.86
1.1121304272229924
% es.EY (V/m) @ t=0.86
0.26942959888995555
% es.EZ (V/m) @ t=0.86
3.416496066122245
% es.tEX (V/m) @ t=0.86
1.1121304272229935
% es.tEY (V/m) @ t=0.86
0
% es.tEZ (V/m) @ t=0.86
3.4164960661222494
% es.Ex (V/m) @ t=0.86
1.1121304272229924
% es.Ey (V/m) @ t=0.86
0.26942959888995555
% es.Ez (V/m) @ t=0.86
3.416496066122245
% es.tEx (V/m) @ t=0.86
1.1121304272229935
% es.tEy (V/m) @ t=0.86
0
% es.tEz (V/m) @ t=0.86
3.4164960661222494
% V (V) @ t=0.86
0.016851597053344446
% es.normE (V/m) @ t=0.88
3.6361800069669914
% es.EX (V/m) @ t=0.88
1.1223533802997965
% es.EY (V/m) @ t=0.88
0.27190625634338206
% es.EZ (V/m) @ t=0.88
3.4479012665264612
% es.tEX (V/m) @ t=0.88
1.122353380299785
% es.tEY (V/m) @ t=0.88
0
% es.tEZ (V/m) @ t=0.88
3.4479012665264754
% es.Ex (V/m) @ t=0.88
1.1223533802997965
% es.Ey (V/m) @ t=0.88
0.27190625634338206
% es.Ez (V/m) @ t=0.88
3.4479012665264612
% es.tEx (V/m) @ t=0.88
1.122353380299785
% es.tEy (V/m) @ t=0.88
0
% es.tEz (V/m) @ t=0.88
3.4479012665264754
% V (V) @ t=0.88
0.017006500724505418
% es.normE (V/m) @ t=0.9
3.669300143826702
% es.EX (V/m) @ t=0.9
1.132576333376573
% es.EY (V/m) @ t=0.9
0.27438291379679214
% es.EZ (V/m) @ t=0.9
3.479306466930705
% es.tEX (V/m) @ t=0.9
1.1325763333765764
% es.tEY (V/m) @ t=0.9
0
% es.tEZ (V/m) @ t=0.9
3.4793064669307228
% es.Ex (V/m) @ t=0.9
1.132576333376573
% es.Ey (V/m) @ t=0.9
0.27438291379679214
% es.Ez (V/m) @ t=0.9
3.479306466930705
% es.tEx (V/m) @ t=0.9
1.1325763333765764
% es.tEy (V/m) @ t=0.9
0
% es.tEz (V/m) @ t=0.9
3.4793064669307228
% V (V) @ t=0.9
0.017161404395666387
% es.normE (V/m) @ t=0.92
3.702420280686381
% es.EX (V/m) @ t=0.92
1.1427992864533523
% es.EY (V/m) @ t=0.92
0.2768595712502042
% es.EZ (V/m) @ t=0.92
3.510711667334914
% es.tEX (V/m) @ t=0.92
1.1427992864533536
% es.tEY (V/m) @ t=0.92
0
% es.tEZ (V/m) @ t=0.92
3.510711667334931
% es.Ex (V/m) @ t=0.92
1.1427992864533523
% es.Ey (V/m) @ t=0.92
0.2768595712502042
% es.Ez (V/m) @ t=0.92
3.510711667334914
% es.tEx (V/m) @ t=0.92
1.1427992864533536
% es.tEy (V/m) @ t=0.92
0
% es.tEz (V/m) @ t=0.92
3.510711667334931
% V (V) @ t=0.92
0.017316308066827355
% es.normE (V/m) @ t=0.94
3.73554041754608
% es.EX (V/m) @ t=0.94
1.1530222395301357
% es.EY (V/m) @ t=0.94
0.2793362287036809
% es.EZ (V/m) @ t=0.94
3.5421168677391384
% es.tEX (V/m) @ t=0.94
1.153022239530145
% es.tEY (V/m) @ t=0.94
0
% es.tEZ (V/m) @ t=0.94
3.542116867739157
% es.Ex (V/m) @ t=0.94
1.1530222395301357
% es.Ey (V/m) @ t=0.94
0.2793362287036809
% es.Ez (V/m) @ t=0.94
3.5421168677391384
% es.tEx (V/m) @ t=0.94
1.153022239530145
% es.tEy (V/m) @ t=0.94
0
% es.tEz (V/m) @ t=0.94
3.542116867739157
% V (V) @ t=0.94
0.017471211737988327
% es.normE (V/m) @ t=0.96
3.768660554405794
% es.EX (V/m) @ t=0.96
1.163245192606922
% es.EY (V/m) @ t=0.96
0.28181288615709676
% es.EZ (V/m) @ t=0.96
3.573522068143382
% es.tEX (V/m) @ t=0.96
1.1632451926069223
% es.tEY (V/m) @ t=0.96
0
% es.tEZ (V/m) @ t=0.96
3.5735220681433937
% es.Ex (V/m) @ t=0.96
1.163245192606922
% es.Ey (V/m) @ t=0.96
0.28181288615709676
% es.Ez (V/m) @ t=0.96
3.573522068143382
% es.tEx (V/m) @ t=0.96
1.1632451926069223
% es.tEy (V/m) @ t=0.96
0
% es.tEz (V/m) @ t=0.96
3.5735220681433937
% V (V) @ t=0.96
0.017626115409149292
% es.normE (V/m) @ t=0.98
3.801780691265513
% es.EX (V/m) @ t=0.98
1.1734681456837266
% es.EY (V/m) @ t=0.98
0.2842895436105213
% es.EZ (V/m) @ t=0.98
3.604927268547625
% es.tEX (V/m) @ t=0.98
1.1734681456837421
% es.tEY (V/m) @ t=0.98
0
% es.tEZ (V/m) @ t=0.98
3.604927268547634
% es.Ex (V/m) @ t=0.98
1.1734681456837266
% es.Ey (V/m) @ t=0.98
0.2842895436105213
% es.Ez (V/m) @ t=0.98
3.604927268547625
% es.tEx (V/m) @ t=0.98
1.1734681456837421
% es.tEy (V/m) @ t=0.98
0
% es.tEz (V/m) @ t=0.98
3.604927268547634
% V (V) @ t=0.98
0.01778101908031026
% es.normE (V/m) @ t=1
3.8349008281252064
% es.EX (V/m) @ t=1
1.1836910987605032
% es.EY (V/m) @ t=1
0.2867662010639582
% es.EZ (V/m) @ t=1
3.6363324689518484
% es.tEX (V/m) @ t=1
1.1836910987605052
% es.tEY (V/m) @ t=1
0
% es.tEZ (V/m) @ t=1
3.636332468951842
% es.Ex (V/m) @ t=1
1.1836910987605032
% es.Ey (V/m) @ t=1
0.2867662010639582
% es.Ez (V/m) @ t=1
3.6363324689518484
% es.tEx (V/m) @ t=1
1.1836910987605052
% es.tEy (V/m) @ t=1
0
% es.tEz (V/m) @ t=1
3.636332468951842
% V (V) @ t=1
0.017935922751471232
% es.normE (V/m) @ t=1.02
3.8680209649849138
% es.EX (V/m) @ t=1.02
1.1939140518372833
% es.EY (V/m) @ t=1.02
0.2892428585173772
% es.EZ (V/m) @ t=1.02
3.667737669356087
% es.tEX (V/m) @ t=1.02
1.1939140518372824
% es.tEY (V/m) @ t=1.02
0
% es.tEZ (V/m) @ t=1.02
3.667737669356079
% es.Ex (V/m) @ t=1.02
1.1939140518372833
% es.Ey (V/m) @ t=1.02
0.2892428585173772
% es.Ez (V/m) @ t=1.02
3.667737669356087
% es.tEx (V/m) @ t=1.02
1.1939140518372824
% es.tEy (V/m) @ t=1.02
0
% es.tEz (V/m) @ t=1.02
3.667737669356079
% V (V) @ t=1.02
0.0180908264226322
% es.normE (V/m) @ t=1.04
3.902519178612056
% es.EX (V/m) @ t=1.04
1.2045623658968783
% es.EY (V/m) @ t=1.04
0.29182256580465205
% es.EZ (V/m) @ t=1.04
3.7004495907214343
% es.tEX (V/m) @ t=1.04
1.2045623658968907
% es.tEY (V/m) @ t=1.04
0
% es.tEZ (V/m) @ t=1.04
3.700449590721451
% es.Ex (V/m) @ t=1.04
1.2045623658968783
% es.Ey (V/m) @ t=1.04
0.29182256580465205
% es.Ez (V/m) @ t=1.04
3.7004495907214343
% es.tEx (V/m) @ t=1.04
1.2045623658968907
% es.tEy (V/m) @ t=1.04
0
% es.tEz (V/m) @ t=1.04
3.700449590721451
% V (V) @ t=1.04