% Model:              1 neuron.mph
% Version:            COMSOL 6.1.0.252
% Date:               Mar 22 2023, 17:54
% Dimension:          0
% Nodes:              14017
% Expressions:        14017
% Description:        Electric field norm, Electric field, X component, Electric field, Y component, Electric field, Z component, Tangential electric field, X component, Tangential electric field, Y component, Tangential electric field, Z component, Electric field, x component, Electric field, y component, Electric field, z component, Tangential electric field, x component, Tangential electric field, y component, Tangential electric field, z component, Electric potential
% Length unit:        mm
% x
1
% y
12.2
% z
1
% es.normE (V/m) @ t=0
1.4580031397875552
% es.EX (V/m) @ t=0
0.9900011850916748
% es.EY (V/m) @ t=0
0.28117364666485223
% es.EZ (V/m) @ t=0
1.0058891391284277
% es.tEX (V/m) @ t=0
0.9900011850916712
% es.tEY (V/m) @ t=0
0
% es.tEZ (V/m) @ t=0
1.0058891391284135
% es.Ex (V/m) @ t=0
0.9900011850916748
% es.Ey (V/m) @ t=0
0.28117364666485223
% es.Ez (V/m) @ t=0
1.0058891391284277
% es.tEx (V/m) @ t=0
0.9900011850916712
% es.tEy (V/m) @ t=0
0
% es.tEz (V/m) @ t=0
1.0058891391284135
% V (V) @ t=0
0.013672098217498714
% es.normE (V/m) @ t=0.02
1.25929197864351
% es.EX (V/m) @ t=0.02
0.8550739825305058
% es.EY (V/m) @ t=0.02
0.24285250716635431
% es.EZ (V/m) @ t=0.02
0.8687965681323053
% es.tEX (V/m) @ t=0.02
0.8550739825304987
% es.tEY (V/m) @ t=0.02
0
% es.tEZ (V/m) @ t=0.02
0.8687965681322893
% es.Ex (V/m) @ t=0.02
0.8550739825305058
% es.Ey (V/m) @ t=0.02
0.24285250716635431
% es.Ez (V/m) @ t=0.02
0.8687965681323053
% es.tEx (V/m) @ t=0.02
0.8550739825304987
% es.tEy (V/m) @ t=0.02
0
% es.tEz (V/m) @ t=0.02
0.8687965681322893
% V (V) @ t=0.02
0.011808728746612727
% es.normE (V/m) @ t=0.04
1.2708761715330898
% es.EX (V/m) @ t=0.04
0.8629397851087042
% es.EY (V/m) @ t=0.04
0.24508650105324037
% es.EZ (V/m) @ t=0.04
0.8767886039680315
% es.tEX (V/m) @ t=0.04
0.8629397851086793
% es.tEY (V/m) @ t=0.04
0
% es.tEZ (V/m) @ t=0.04
0.8767886039680235
% es.Ex (V/m) @ t=0.04
0.8629397851087042
% es.Ey (V/m) @ t=0.04
0.24508650105324037
% es.Ez (V/m) @ t=0.04
0.8767886039680315
% es.tEx (V/m) @ t=0.04
0.8629397851086793
% es.tEy (V/m) @ t=0.04
0
% es.tEz (V/m) @ t=0.04
0.8767886039680235
% V (V) @ t=0.04
0.011917356858185336
% es.normE (V/m) @ t=0.06
1.2825477305060478
% es.EX (V/m) @ t=0.06
0.8708649103477555
% es.EY (V/m) @ t=0.06
0.24733734348409442
% es.EZ (V/m) @ t=0.06
0.8848409142430667
% es.tEX (V/m) @ t=0.06
0.8708649103477484
% es.tEY (V/m) @ t=0.06
0
% es.tEZ (V/m) @ t=0.06
0.8848409142430569
% es.Ex (V/m) @ t=0.06
0.8708649103477555
% es.Ey (V/m) @ t=0.06
0.24733734348409442
% es.Ez (V/m) @ t=0.06
0.8848409142430667
% es.tEx (V/m) @ t=0.06
0.8708649103477484
% es.tEy (V/m) @ t=0.06
0
% es.tEz (V/m) @ t=0.06
0.8848409142430569
% V (V) @ t=0.06
0.012026804187399725
% es.normE (V/m) @ t=0.08
1.2944365751406122
% es.EX (V/m) @ t=0.08
0.8789375748060806
% es.EY (V/m) @ t=0.08
0.24963008850512658
% es.EZ (V/m) @ t=0.08
0.8930431326217363
% es.tEX (V/m) @ t=0.08
0.8789375748060593
% es.tEY (V/m) @ t=0.08
0
% es.tEZ (V/m) @ t=0.08
0.8930431326217203
% es.Ex (V/m) @ t=0.08
0.8789375748060806
% es.Ey (V/m) @ t=0.08
0.24963008850512658
% es.Ez (V/m) @ t=0.08
0.8930431326217363
% es.tEx (V/m) @ t=0.08
0.8789375748060593
% es.tEy (V/m) @ t=0.08
0
% es.tEz (V/m) @ t=0.08
0.8930431326217203
% V (V) @ t=0.08
0.012138289229526646
% es.normE (V/m) @ t=0.1
1.306394834666086
% es.EX (V/m) @ t=0.1
0.8870573726957431
% es.EY (V/m) @ t=0.1
0.25193621988441706
% es.EZ (V/m) @ t=0.1
0.9012932412044368
% es.tEX (V/m) @ t=0.1
0.8870573726957502
% es.tEY (V/m) @ t=0.1
0
% es.tEZ (V/m) @ t=0.1
0.9012932412044208
% es.Ex (V/m) @ t=0.1
0.8870573726957431
% es.Ey (V/m) @ t=0.1
0.25193621988441706
% es.Ez (V/m) @ t=0.1
0.9012932412044368
% es.tEx (V/m) @ t=0.1
0.8870573726957502
% es.tEy (V/m) @ t=0.1
0
% es.tEz (V/m) @ t=0.1
0.9012932412044208
% V (V) @ t=0.1
0.012250425247049548
% es.normE (V/m) @ t=0.12
1.3183530941915373
% es.EX (V/m) @ t=0.12
0.8951771705853595
% es.EY (V/m) @ t=0.12
0.2542423512638159
% es.EZ (V/m) @ t=0.12
0.9095433497871142
% es.tEX (V/m) @ t=0.12
0.895177170585356
% es.tEY (V/m) @ t=0.12
0
% es.tEZ (V/m) @ t=0.12
0.909543349787107
% es.Ex (V/m) @ t=0.12
0.8951771705853595
% es.Ey (V/m) @ t=0.12
0.2542423512638159
% es.Ez (V/m) @ t=0.12
0.9095433497871142
% es.tEx (V/m) @ t=0.12
0.895177170585356
% es.tEy (V/m) @ t=0.12
0
% es.tEz (V/m) @ t=0.12
0.909543349787107
% V (V) @ t=0.12
0.012362561264572454
% es.normE (V/m) @ t=0.14
1.3306289973212988
% es.EX (V/m) @ t=0.14
0.9035126527728821
% es.EY (V/m) @ t=0.14
0.2566097412800108
% es.EZ (V/m) @ t=0.14
0.9180126016388588
% es.tEX (V/m) @ t=0.14
0.9035126527728607
% es.tEY (V/m) @ t=0.14
0
% es.tEZ (V/m) @ t=0.14
0.9180126016388499
% es.Ex (V/m) @ t=0.14
0.9035126527728821
% es.Ey (V/m) @ t=0.14
0.2566097412800108
% es.Ez (V/m) @ t=0.14
0.9180126016388588
% es.tEx (V/m) @ t=0.14
0.9035126527728607
% es.tEy (V/m) @ t=0.14
0
% es.tEz (V/m) @ t=0.14
0.9180126016388499
% V (V) @ t=0.14
0.012477675556939414
% es.normE (V/m) @ t=0.16
1.3431920181890749
% es.EX (V/m) @ t=0.16
0.9120430917826816
% es.EY (V/m) @ t=0.16
0.2590325029171172
% es.EZ (V/m) @ t=0.16
0.9266799368736223
% es.tEX (V/m) @ t=0.16
0.9120430917826639
% es.tEY (V/m) @ t=0.16
0
% es.tEZ (V/m) @ t=0.16
0.9266799368736116
% es.Ex (V/m) @ t=0.16
0.9120430917826816
% es.Ey (V/m) @ t=0.16
0.2590325029171172
% es.Ez (V/m) @ t=0.16
0.9266799368736223
% es.tEx (V/m) @ t=0.16
0.9120430917826639
% es.tEy (V/m) @ t=0.16
0
% es.tEz (V/m) @ t=0.16
0.9266799368736116
% V (V) @ t=0.16
0.012595481908976377
% es.normE (V/m) @ t=0.18
1.3557550390569044
% es.EX (V/m) @ t=0.18
0.9205735307925877
% es.EY (V/m) @ t=0.18
0.26145526455416856
% es.EZ (V/m) @ t=0.18
0.935347272108384
% es.tEX (V/m) @ t=0.18
0.9205735307925664
% es.tEY (V/m) @ t=0.18
0
% es.tEZ (V/m) @ t=0.18
0.9353472721083733
% es.Ex (V/m) @ t=0.18
0.9205735307925877
% es.Ey (V/m) @ t=0.18
0.26145526455416856
% es.Ez (V/m) @ t=0.18
0.935347272108384
% es.tEx (V/m) @ t=0.18
0.9205735307925664
% es.tEy (V/m) @ t=0.18
0
% es.tEz (V/m) @ t=0.18
0.9353472721083733
% V (V) @ t=0.18
0.012713288261013343
% es.normE (V/m) @ t=0.2
1.3683180599246734
% es.EX (V/m) @ t=0.2
0.929103969802398
% es.EY (V/m) @ t=0.2
0.263878026191275
% es.EZ (V/m) @ t=0.2
0.9440146073431332
% es.tEX (V/m) @ t=0.2
0.929103969802398
% es.tEY (V/m) @ t=0.2
0
% es.tEZ (V/m) @ t=0.2
0.9440146073431137
% es.Ex (V/m) @ t=0.2
0.929103969802398
% es.Ey (V/m) @ t=0.2
0.263878026191275
% es.Ez (V/m) @ t=0.2
0.9440146073431332
% es.tEx (V/m) @ t=0.2
0.929103969802398
% es.tEy (V/m) @ t=0.2
0
% es.tEz (V/m) @ t=0.2
0.9440146073431137
% V (V) @ t=0.2
0.012831094613050306
% es.normE (V/m) @ t=0.22
1.3808810807924599
% es.EX (V/m) @ t=0.22
0.9376344088122437
% es.EY (V/m) @ t=0.22
0.2663007878283512
% es.EZ (V/m) @ t=0.22
0.9526819425778879
% es.tEX (V/m) @ t=0.22
0.9376344088122437
% es.tEY (V/m) @ t=0.22
0
% es.tEZ (V/m) @ t=0.22
0.9526819425778683
% es.Ex (V/m) @ t=0.22
0.9376344088122437
% es.Ey (V/m) @ t=0.22
0.2663007878283512
% es.Ez (V/m) @ t=0.22
0.9526819425778879
% es.tEx (V/m) @ t=0.22
0.9376344088122437
% es.tEy (V/m) @ t=0.22
0
% es.tEz (V/m) @ t=0.22
0.9526819425778683
% V (V) @ t=0.22
0.01294890096508727
% es.normE (V/m) @ t=0.24
1.3934441016602537
% es.EX (V/m) @ t=0.24
0.946164847822125
% es.EY (V/m) @ t=0.24
0.2687235494654292
% es.EZ (V/m) @ t=0.24
0.9613492778126123
% es.tEX (V/m) @ t=0.24
0.9461648478221178
% es.tEY (V/m) @ t=0.24
0
% es.tEZ (V/m) @ t=0.24
0.9613492778126016
% es.Ex (V/m) @ t=0.24
0.946164847822125
% es.Ey (V/m) @ t=0.24
0.2687235494654292
% es.Ez (V/m) @ t=0.24
0.9613492778126123
% es.tEx (V/m) @ t=0.24
0.9461648478221178
% es.tEy (V/m) @ t=0.24
0
% es.tEz (V/m) @ t=0.24
0.9613492778126016
% V (V) @ t=0.24
0.013066707317124233
% es.normE (V/m) @ t=0.26
1.4060881342176208
% es.EX (V/m) @ t=0.26
0.954750295084466
% es.EY (V/m) @ t=0.26
0.27116193505680286
% es.EZ (V/m) @ t=0.26
0.970072502560372
% es.tEX (V/m) @ t=0.26
0.9547502950844517
% es.tEY (V/m) @ t=0.26
0
% es.tEZ (V/m) @ t=0.26
0.970072502560356
% es.Ex (V/m) @ t=0.26
0.954750295084466
% es.Ey (V/m) @ t=0.26
0.27116193505680286
% es.Ez (V/m) @ t=0.26
0.970072502560372
% es.tEx (V/m) @ t=0.26
0.9547502950844517
% es.tEy (V/m) @ t=0.26
0
% es.tEz (V/m) @ t=0.26
0.970072502560356
% V (V) @ t=0.26
0.013185273113543498
% es.normE (V/m) @ t=0.28
1.420002554223481
% es.EX (V/m) @ t=0.28
0.9641983560499732
% es.EY (V/m) @ t=0.28
0.2738453281960975
% es.EZ (V/m) @ t=0.28
0.979672160526361
% es.tEX (V/m) @ t=0.28
0.9641983560499625
% es.tEY (V/m) @ t=0.28
0
% es.tEZ (V/m) @ t=0.28
0.9796721605263414
% es.Ex (V/m) @ t=0.28
0.9641983560499732
% es.Ey (V/m) @ t=0.28
0.2738453281960975
% es.Ez (V/m) @ t=0.28
0.979672160526361
% es.tEx (V/m) @ t=0.28
0.9641983560499625
% es.tEy (V/m) @ t=0.28
0
% es.tEz (V/m) @ t=0.28
0.9796721605263414
% V (V) @ t=0.28
0.013315748161774683
% es.normE (V/m) @ t=0.3
1.4339169742293345
% es.EX (V/m) @ t=0.3
0.9736464170154804
% es.EY (V/m) @ t=0.3
0.2765287213354046
% es.EZ (V/m) @ t=0.3
0.9892718184923339
% es.tEX (V/m) @ t=0.3
0.9736464170155017
% es.tEY (V/m) @ t=0.3
0
% es.tEZ (V/m) @ t=0.3
0.9892718184923197
% es.Ex (V/m) @ t=0.3
0.9736464170154804
% es.Ey (V/m) @ t=0.3
0.2765287213354046
% es.Ez (V/m) @ t=0.3
0.9892718184923339
% es.tEx (V/m) @ t=0.3
0.9736464170155017
% es.tEy (V/m) @ t=0.3
0
% es.tEz (V/m) @ t=0.3
0.9892718184923197
% V (V) @ t=0.3
0.013446223210005862
% es.normE (V/m) @ t=0.32
1.4478313942352217
% es.EX (V/m) @ t=0.32
0.9830944779810373
% es.EY (V/m) @ t=0.32
0.27921211447461936
% es.EZ (V/m) @ t=0.32
0.9988714764583371
% es.tEX (V/m) @ t=0.32
0.9830944779810267
% es.tEY (V/m) @ t=0.32
0
% es.tEZ (V/m) @ t=0.32
0.9988714764583122
% es.Ex (V/m) @ t=0.32
0.9830944779810373
% es.Ey (V/m) @ t=0.32
0.27921211447461936
% es.Ez (V/m) @ t=0.32
0.9988714764583371
% es.tEx (V/m) @ t=0.32
0.9830944779810267
% es.tEy (V/m) @ t=0.32
0
% es.tEz (V/m) @ t=0.32
0.9988714764583122
% V (V) @ t=0.32
0.013576698258237043
% es.normE (V/m) @ t=0.34
1.4617458142411133
% es.EX (V/m) @ t=0.34
0.9925425389465943
% es.EY (V/m) @ t=0.34
0.2818955076139158
% es.EZ (V/m) @ t=0.34
1.0084711344243171
% es.tEX (V/m) @ t=0.34
0.9925425389465659
% es.tEY (V/m) @ t=0.34
0
% es.tEZ (V/m) @ t=0.34
1.0084711344242976
% es.Ex (V/m) @ t=0.34
0.9925425389465943
% es.Ey (V/m) @ t=0.34
0.2818955076139158
% es.Ez (V/m) @ t=0.34
1.0084711344243171
% es.tEx (V/m) @ t=0.34
0.9925425389465659
% es.tEy (V/m) @ t=0.34
0
% es.tEz (V/m) @ t=0.34
1.0084711344242976
% V (V) @ t=0.34
0.013707173306468225
% es.normE (V/m) @ t=0.36
1.475660234246928
% es.EX (V/m) @ t=0.36
1.0019905999120553
% es.EY (V/m) @ t=0.36
0.2845789007532318
% es.EZ (V/m) @ t=0.36
1.0180707923902723
% es.tEX (V/m) @ t=0.36
1.0019905999120482
% es.tEY (V/m) @ t=0.36
0
% es.tEZ (V/m) @ t=0.36
1.0180707923902474
% es.Ex (V/m) @ t=0.36
1.0019905999120553
% es.Ey (V/m) @ t=0.36
0.2845789007532318
% es.Ez (V/m) @ t=0.36
1.0180707923902723
% es.tEx (V/m) @ t=0.36
1.0019905999120482
% es.tEy (V/m) @ t=0.36
0
% es.tEz (V/m) @ t=0.36
1.0180707923902474
% V (V) @ t=0.36
0.013837648354699403
% es.normE (V/m) @ t=0.38
1.489574654252808
% es.EX (V/m) @ t=0.38
1.0114386608775838
% es.EY (V/m) @ t=0.38
0.28726229389251046
% es.EZ (V/m) @ t=0.38
1.027670450356263
% es.tEX (V/m) @ t=0.38
1.0114386608775732
% es.tEY (V/m) @ t=0.38
0
% es.tEZ (V/m) @ t=0.38
1.02767045035624
% es.Ex (V/m) @ t=0.38
1.0114386608775838
% es.Ey (V/m) @ t=0.38
0.28726229389251046
% es.Ez (V/m) @ t=0.38
1.027670450356263
% es.tEx (V/m) @ t=0.38
1.0114386608775732
% es.tEy (V/m) @ t=0.38
0
% es.tEz (V/m) @ t=0.38
1.02767045035624
% V (V) @ t=0.38
0.013968123402930585
% es.normE (V/m) @ t=0.4
1.5034890742586957
% es.EX (V/m) @ t=0.4
1.0208867218431479
% es.EY (V/m) @ t=0.4
0.28994568703176427
% es.EZ (V/m) @ t=0.4
1.0372701083222449
% es.tEX (V/m) @ t=0.4
1.0208867218431266
% es.tEY (V/m) @ t=0.4
0
% es.tEZ (V/m) @ t=0.4
1.0372701083222253
% es.Ex (V/m) @ t=0.4
1.0208867218431479
% es.Ey (V/m) @ t=0.4
0.28994568703176427
% es.Ez (V/m) @ t=0.4
1.0372701083222449
% es.tEx (V/m) @ t=0.4
1.0208867218431266
% es.tEy (V/m) @ t=0.4
0
% es.tEz (V/m) @ t=0.4
1.0372701083222253
% V (V) @ t=0.4
0.014098598451161765
% es.normE (V/m) @ t=0.42
1.5174034942645616
% es.EX (V/m) @ t=0.42
1.030334782808648
% es.EY (V/m) @ t=0.42
0.29262908017103584
% es.EZ (V/m) @ t=0.42
1.046869766288225
% es.tEX (V/m) @ t=0.42
1.0303347828086231
% es.tEY (V/m) @ t=0.42
0
% es.tEZ (V/m) @ t=0.42
1.0468697662882107
% es.Ex (V/m) @ t=0.42
1.030334782808648
% es.Ey (V/m) @ t=0.42
0.29262908017103584
% es.Ez (V/m) @ t=0.42
1.046869766288225
% es.tEx (V/m) @ t=0.42
1.0303347828086231
% es.tEy (V/m) @ t=0.42
0
% es.tEz (V/m) @ t=0.42
1.0468697662882107
% V (V) @ t=0.42
0.014229073499392945
% es.normE (V/m) @ t=0.44
1.531317914270427
% es.EX (V/m) @ t=0.44
1.0397828437741872
% es.EY (V/m) @ t=0.44
0.29531247331029675
% es.EZ (V/m) @ t=0.44
1.0564694242541908
% es.tEX (V/m) @ t=0.44
1.0397828437741623
% es.tEY (V/m) @ t=0.44
0
% es.tEZ (V/m) @ t=0.44
1.0564694242541748
% es.Ex (V/m) @ t=0.44
1.0397828437741872
% es.Ey (V/m) @ t=0.44
0.29531247331029675
% es.Ez (V/m) @ t=0.44
1.0564694242541908
% es.tEx (V/m) @ t=0.44
1.0397828437741623
% es.tEy (V/m) @ t=0.44
0
% es.tEz (V/m) @ t=0.44
1.0564694242541748
% V (V) @ t=0.44
0.014359548547624128
% es.normE (V/m) @ t=0.46
1.5452323342762972
% es.EX (V/m) @ t=0.46
1.0492309047396908
% es.EY (V/m) @ t=0.46
0.2979958664495932
% es.EZ (V/m) @ t=0.46
1.0660690822201797
% es.tEX (V/m) @ t=0.46
1.0492309047396589
% es.tEY (V/m) @ t=0.46
0
% es.tEZ (V/m) @ t=0.46
1.0660690822201673
% es.Ex (V/m) @ t=0.46
1.0492309047396908
% es.Ey (V/m) @ t=0.46
0.2979958664495932
% es.Ez (V/m) @ t=0.46
1.0660690822201797
% es.tEx (V/m) @ t=0.46
1.0492309047396589
% es.tEy (V/m) @ t=0.46
0
% es.tEz (V/m) @ t=0.46
1.0660690822201673
% V (V) @ t=0.46
0.01449002359585531
% es.normE (V/m) @ t=0.48
1.5591467542821627
% es.EX (V/m) @ t=0.48
1.0586789657052016
% es.EY (V/m) @ t=0.48
0.3006792595888932
% es.EZ (V/m) @ t=0.48
1.0756687401861402
% es.tEX (V/m) @ t=0.48
1.0586789657051838
% es.tEY (V/m) @ t=0.48
0
% es.tEZ (V/m) @ t=0.48
1.07566874018611
% es.Ex (V/m) @ t=0.48
1.0586789657052016
% es.Ey (V/m) @ t=0.48
0.3006792595888932
% es.Ez (V/m) @ t=0.48
1.0756687401861402
% es.tEx (V/m) @ t=0.48
1.0586789657051838
% es.tEy (V/m) @ t=0.48
0
% es.tEz (V/m) @ t=0.48
1.07566874018611
% V (V) @ t=0.48
0.014620498644086488
% es.normE (V/m) @ t=0.5
1.5730611742880318
% es.EX (V/m) @ t=0.5
1.0681270266707124
% es.EY (V/m) @ t=0.5
0.3033626527281541
% es.EZ (V/m) @ t=0.5
1.085268398152131
% es.tEX (V/m) @ t=0.5
1.0681270266706804
% es.tEY (V/m) @ t=0.5
0
% es.tEZ (V/m) @ t=0.5
1.0852683981521167
% es.Ex (V/m) @ t=0.5
1.0681270266707124
% es.Ey (V/m) @ t=0.5
0.3033626527281541
% es.Ez (V/m) @ t=0.5
1.085268398152131
% es.tEx (V/m) @ t=0.5
1.0681270266706804
% es.tEy (V/m) @ t=0.5
0
% es.tEz (V/m) @ t=0.5
1.0852683981521167
% V (V) @ t=0.5
0.014750973692317669
% es.normE (V/m) @ t=0.52
1.5871725506193801
% es.EX (V/m) @ t=0.52
1.0777088220836504
% es.EY (V/m) @ t=0.52
0.30608402531319356
% es.EZ (V/m) @ t=0.52
1.0950039418570956
% es.tEX (V/m) @ t=0.52
1.0777088220836504
% es.tEY (V/m) @ t=0.52
0
% es.tEZ (V/m) @ t=0.52
1.0950039418570796
% es.Ex (V/m) @ t=0.52
1.0777088220836504
% es.Ey (V/m) @ t=0.52
0.30608402531319356
% es.Ez (V/m) @ t=0.52
1.0950039418570956
% es.tEx (V/m) @ t=0.52
1.0777088220836504
% es.tEy (V/m) @ t=0.52
0
% es.tEz (V/m) @ t=0.52
1.0950039418570796
% V (V) @ t=0.52
0.014883296398529575
% es.normE (V/m) @ t=0.54
1.6026094713070487
% es.EX (V/m) @ t=0.54
1.08819066953399
% es.EY (V/m) @ t=0.54
0.3090610050226914
% es.EZ (V/m) @ t=0.54
1.1056540161006243
% es.tEX (V/m) @ t=0.54
1.088190669533958
% es.tEY (V/m) @ t=0.54
0
% es.tEZ (V/m) @ t=0.54
1.1056540161006083
% es.Ex (V/m) @ t=0.54
1.08819066953399
% es.Ey (V/m) @ t=0.54
0.3090610050226914
% es.Ez (V/m) @ t=0.54
1.1056540161006243
% es.tEx (V/m) @ t=0.54
1.088190669533958
% es.tEy (V/m) @ t=0.54
0
% es.tEz (V/m) @ t=0.54
1.1056540161006083
% V (V) @ t=0.54
0.015028054108303351
% es.normE (V/m) @ t=0.56
1.618046391994688
% es.EX (V/m) @ t=0.56
1.0986725169842728
% es.EY (V/m) @ t=0.56
0.3120379847322212
% es.EZ (V/m) @ t=0.56
1.1163040903441512
% es.tEX (V/m) @ t=0.56
1.0986725169842373
% es.tEY (V/m) @ t=0.56
0
% es.tEZ (V/m) @ t=0.56
1.1163040903441441
% es.Ex (V/m) @ t=0.56
1.0986725169842728
% es.Ey (V/m) @ t=0.56
0.3120379847322212
% es.Ez (V/m) @ t=0.56
1.1163040903441512
% es.tEx (V/m) @ t=0.56
1.0986725169842373
% es.tEy (V/m) @ t=0.56
0
% es.tEz (V/m) @ t=0.56
1.1163040903441441
% V (V) @ t=0.56
0.015172811818077128
% es.normE (V/m) @ t=0.58
1.633483312682363
% es.EX (V/m) @ t=0.58
1.1091543644345876
% es.EY (V/m) @ t=0.58
0.3150149644416729
% es.EZ (V/m) @ t=0.58
1.126954164587712
% es.tEX (V/m) @ t=0.58
1.1091543644345734
% es.tEY (V/m) @ t=0.58
0
% es.tEZ (V/m) @ t=0.58
1.126954164587687
% es.Ex (V/m) @ t=0.58
1.1091543644345876
% es.Ey (V/m) @ t=0.58
0.3150149644416729
% es.Ez (V/m) @ t=0.58
1.126954164587712
% es.tEx (V/m) @ t=0.58
1.1091543644345734
% es.tEy (V/m) @ t=0.58
0
% es.tEz (V/m) @ t=0.58
1.126954164587687
% V (V) @ t=0.58
0.015317569527850908
% es.normE (V/m) @ t=0.6
1.648920233370042
% es.EX (V/m) @ t=0.6
1.1196362118849166
% es.EY (V/m) @ t=0.6
0.3179919441512169
% es.EZ (V/m) @ t=0.6
1.1376042388312513
% es.tEX (V/m) @ t=0.6
1.119636211884881
% es.tEY (V/m) @ t=0.6
0
% es.tEZ (V/m) @ t=0.6
1.1376042388312229
% es.Ex (V/m) @ t=0.6
1.1196362118849166
% es.Ey (V/m) @ t=0.6
0.3179919441512169
% es.Ez (V/m) @ t=0.6
1.1376042388312513
% es.tEx (V/m) @ t=0.6
1.119636211884881
% es.tEy (V/m) @ t=0.6
0
% es.tEz (V/m) @ t=0.6
1.1376042388312229
% V (V) @ t=0.6
0.015462327237624689
% es.normE (V/m) @ t=0.62
1.6643571540576823
% es.EX (V/m) @ t=0.62
1.13011805933521
% es.EY (V/m) @ t=0.62
0.320968923860665
% es.EZ (V/m) @ t=0.62
1.1482543130747995
% es.tEX (V/m) @ t=0.62
1.1301180593352171
% es.tEY (V/m) @ t=0.62
0
% es.tEZ (V/m) @ t=0.62
1.14825431307478
% es.Ex (V/m) @ t=0.62
1.13011805933521
% es.Ey (V/m) @ t=0.62
0.320968923860665
% es.Ez (V/m) @ t=0.62
1.1482543130747995
% es.tEx (V/m) @ t=0.62
1.1301180593352171
% es.tEy (V/m) @ t=0.62
0
% es.tEz (V/m) @ t=0.62
1.14825431307478
% V (V) @ t=0.62
0.015607084947398467
% es.normE (V/m) @ t=0.64
1.6797940747453748
% es.EX (V/m) @ t=0.64
1.140599906785532
% es.EY (V/m) @ t=0.64
0.32394590357017705
% es.EZ (V/m) @ t=0.64
1.158904387318362
% es.tEX (V/m) @ t=0.64
1.1405999067855248
% es.tEY (V/m) @ t=0.64
0
% es.tEZ (V/m) @ t=0.64
1.1589043873183442
% es.Ex (V/m) @ t=0.64
1.140599906785532
% es.Ey (V/m) @ t=0.64
0.32394590357017705
% es.Ez (V/m) @ t=0.64
1.158904387318362
% es.tEx (V/m) @ t=0.64
1.1405999067855248
% es.tEy (V/m) @ t=0.64
0
% es.tEz (V/m) @ t=0.64
1.1589043873183442
% V (V) @ t=0.64
0.01575184265717225
% es.normE (V/m) @ t=0.66
1.6952309954330045
% es.EX (V/m) @ t=0.66
1.151081754235861
% es.EY (V/m) @ t=0.66
0.3269228832796429
% es.EZ (V/m) @ t=0.66
1.1695544615618712
% es.tEX (V/m) @ t=0.66
1.1510817542358325
% es.tEY (V/m) @ t=0.66
0
% es.tEZ (V/m) @ t=0.66
1.1695544615618445
% es.Ex (V/m) @ t=0.66
1.151081754235861
% es.Ey (V/m) @ t=0.66
0.3269228832796429
% es.Ez (V/m) @ t=0.66
1.1695544615618712
% es.tEx (V/m) @ t=0.66
1.1510817542358325
% es.tEy (V/m) @ t=0.66
0
% es.tEz (V/m) @ t=0.66
1.1695544615618445
% V (V) @ t=0.66
0.015896600366946022
% es.normE (V/m) @ t=0.68
1.7106679161206904
% es.EX (V/m) @ t=0.68
1.1615636016861686
% es.EY (V/m) @ t=0.68
0.3298998629891443
% es.EZ (V/m) @ t=0.68
1.180204535805439
% es.tEX (V/m) @ t=0.68
1.1615636016861401
% es.tEY (V/m) @ t=0.68
0
% es.tEZ (V/m) @ t=0.68
1.1802045358054158
% es.Ex (V/m) @ t=0.68
1.1615636016861686
% es.Ey (V/m) @ t=0.68
0.3298998629891443
% es.Ez (V/m) @ t=0.68
1.180204535805439
% es.tEx (V/m) @ t=0.68
1.1615636016861401
% es.tEy (V/m) @ t=0.68
0
% es.tEz (V/m) @ t=0.68
1.1802045358054158
% V (V) @ t=0.68
0.016041358076719803
% es.normE (V/m) @ t=0.7
1.7261048368083332
% es.EX (V/m) @ t=0.7
1.1720454491364833
% es.EY (V/m) @ t=0.7
0.3328768426986173
% es.EZ (V/m) @ t=0.7
1.1908546100489552
% es.tEX (V/m) @ t=0.7
1.1720454491364762
% es.tEY (V/m) @ t=0.7
0
% es.tEZ (V/m) @ t=0.7
1.1908546100489446
% es.Ex (V/m) @ t=0.7
1.1720454491364833
% es.Ey (V/m) @ t=0.7
0.3328768426986173
% es.Ez (V/m) @ t=0.7
1.1908546100489552
% es.tEx (V/m) @ t=0.7
1.1720454491364762
% es.tEy (V/m) @ t=0.7
0
% es.tEz (V/m) @ t=0.7
1.1908546100489446
% V (V) @ t=0.7
0.016186115786493583
% es.normE (V/m) @ t=0.72
1.7415417574960061
% es.EX (V/m) @ t=0.72
1.182527296586791
% es.EY (V/m) @ t=0.72
0.3358538224080796
% es.EZ (V/m) @ t=0.72
1.20150468429253
% es.tEX (V/m) @ t=0.72
1.1825272965867555
% es.tEY (V/m) @ t=0.72
0
% es.tEZ (V/m) @ t=0.72
1.201504684292516
% es.Ex (V/m) @ t=0.72
1.182527296586791
% es.Ey (V/m) @ t=0.72
0.3358538224080796
% es.Ez (V/m) @ t=0.72
1.20150468429253
% es.tEx (V/m) @ t=0.72
1.1825272965867555
% es.tEy (V/m) @ t=0.72
0
% es.tEz (V/m) @ t=0.72
1.201504684292516
% V (V) @ t=0.72
0.01633087349626736
% es.normE (V/m) @ t=0.74
1.7569786781836423
% es.EX (V/m) @ t=0.74
1.1930091440370845
% es.EY (V/m) @ t=0.74
0.3388308021176307
% es.EZ (V/m) @ t=0.74
1.2121547585360375
% es.tEX (V/m) @ t=0.74
1.1930091440370632
% es.tEY (V/m) @ t=0.74
0
% es.tEZ (V/m) @ t=0.74
1.2121547585360162
% es.Ex (V/m) @ t=0.74
1.1930091440370845
% es.Ey (V/m) @ t=0.74
0.3388308021176307
% es.Ez (V/m) @ t=0.74
1.2121547585360375
% es.tEx (V/m) @ t=0.74
1.1930091440370632
% es.tEy (V/m) @ t=0.74
0
% es.tEz (V/m) @ t=0.74
1.2121547585360162
% V (V) @ t=0.74
0.01647563120604114
% es.normE (V/m) @ t=0.76
1.7724155988713473
% es.EX (V/m) @ t=0.76
1.2034909914873992
% es.EY (V/m) @ t=0.76
0.34180778182710014
% es.EZ (V/m) @ t=0.76
1.222804832779639
% es.tEX (V/m) @ t=0.76
1.2034909914873992
% es.tEY (V/m) @ t=0.76
0
% es.tEZ (V/m) @ t=0.76
1.222804832779616
% es.Ex (V/m) @ t=0.76
1.2034909914873992
% es.Ey (V/m) @ t=0.76
0.34180778182710014
% es.Ez (V/m) @ t=0.76
1.222804832779639
% es.tEx (V/m) @ t=0.76
1.2034909914873992
% es.tEy (V/m) @ t=0.76
0
% es.tEz (V/m) @ t=0.76
1.222804832779616
% V (V) @ t=0.76
0.01662038891581492
% es.normE (V/m) @ t=0.78
1.7881936657460686
% es.EX (V/m) @ t=0.78
1.214204482418161
% es.EY (V/m) @ t=0.78
0.3448505545285947
% es.EZ (V/m) @ t=0.78
1.2336902627606996
% es.tEX (V/m) @ t=0.78
1.214204482418154
% es.tEY (V/m) @ t=0.78
0
% es.tEZ (V/m) @ t=0.78
1.233690262760689
% es.Ex (V/m) @ t=0.78
1.214204482418161
% es.Ey (V/m) @ t=0.78
0.3448505545285947
% es.Ez (V/m) @ t=0.78
1.2336902627606996
% es.tEx (V/m) @ t=0.78
1.214204482418154
% es.tEy (V/m) @ t=0.78
0
% es.tEz (V/m) @ t=0.78
1.233690262760689
% V (V) @ t=0.78
0.016768344871460034
% es.normE (V/m) @ t=0.8
1.805346778634855
% es.EX (V/m) @ t=0.8
1.2258516506303394
% es.EY (V/m) @ t=0.8
0.3481585167435348
% es.EZ (V/m) @ t=0.8
1.2455243328879728
% es.tEX (V/m) @ t=0.8
1.225851650630318
% es.tEY (V/m) @ t=0.8
0
% es.tEZ (V/m) @ t=0.8
1.2455243328879533
% es.Ex (V/m) @ t=0.8
1.2258516506303394
% es.Ey (V/m) @ t=0.8
0.3481585167435348
% es.Ez (V/m) @ t=0.8
1.2455243328879728
% es.tEx (V/m) @ t=0.8
1.225851650630318
% es.tEy (V/m) @ t=0.8
0
% es.tEz (V/m) @ t=0.8
1.2455243328879533
% V (V) @ t=0.8
0.0169291918849669
% es.normE (V/m) @ t=0.82
1.8224998915236166
% es.EX (V/m) @ t=0.82
1.2374988188424894
% es.EY (V/m) @ t=0.82
0.35146647895833993
% es.EZ (V/m) @ t=0.82
1.2573584030152833
% es.tEX (V/m) @ t=0.82
1.2374988188424823
% es.tEY (V/m) @ t=0.82
0
% es.tEZ (V/m) @ t=0.82
1.2573584030152674
% es.Ex (V/m) @ t=0.82
1.2374988188424894
% es.Ey (V/m) @ t=0.82
0.35146647895833993
% es.Ez (V/m) @ t=0.82
1.2573584030152833
% es.tEx (V/m) @ t=0.82
1.2374988188424823
% es.tEy (V/m) @ t=0.82
0
% es.tEz (V/m) @ t=0.82
1.2573584030152674
% V (V) @ t=0.82
0.01709003889847377
% es.normE (V/m) @ t=0.84
1.8396530044123618
% es.EX (V/m) @ t=0.84
1.249145987054618
% es.EY (V/m) @ t=0.84
0.3547744411732374
% es.EZ (V/m) @ t=0.84
1.2691924731425566
% es.tEX (V/m) @ t=0.84
1.249145987054618
% es.tEY (V/m) @ t=0.84
0
% es.tEZ (V/m) @ t=0.84
1.2691924731425388
% es.Ex (V/m) @ t=0.84
1.249145987054618
% es.Ey (V/m) @ t=0.84
0.3547744411732374
% es.Ez (V/m) @ t=0.84
1.2691924731425566
% es.tEx (V/m) @ t=0.84
1.249145987054618
% es.tEy (V/m) @ t=0.84
0
% es.tEz (V/m) @ t=0.84
1.2691924731425388
% V (V) @ t=0.84
0.017250885911980634
% es.normE (V/m) @ t=0.86
1.856806117301189
% es.EX (V/m) @ t=0.86
1.2607931552667822
% es.EY (V/m) @ t=0.86
0.35808240338819886
% es.EZ (V/m) @ t=0.86
1.2810265432698849
% es.tEX (V/m) @ t=0.86
1.2607931552667537
% es.tEY (V/m) @ t=0.86
0
% es.tEZ (V/m) @ t=0.86
1.2810265432698458
% es.Ex (V/m) @ t=0.86
1.2607931552667822
% es.Ey (V/m) @ t=0.86
0.35808240338819886
% es.Ez (V/m) @ t=0.86
1.2810265432698849
% es.tEx (V/m) @ t=0.86
1.2607931552667537
% es.tEy (V/m) @ t=0.86
0
% es.tEz (V/m) @ t=0.86
1.2810265432698458
% V (V) @ t=0.86
0.017411732925487502
% es.normE (V/m) @ t=0.88
1.873959230189943
% es.EX (V/m) @ t=0.88
1.272440323478918
% es.EY (V/m) @ t=0.88
0.3613903656030395
% es.EZ (V/m) @ t=0.88
1.2928606133971812
% es.tEX (V/m) @ t=0.88
1.272440323478918
% es.tEY (V/m) @ t=0.88
0
% es.tEZ (V/m) @ t=0.88
1.292860613397167
% es.Ex (V/m) @ t=0.88
1.272440323478918
% es.Ey (V/m) @ t=0.88
0.3613903656030395
% es.Ez (V/m) @ t=0.88
1.2928606133971812
% es.tEx (V/m) @ t=0.88
1.272440323478918
% es.tEy (V/m) @ t=0.88
0
% es.tEz (V/m) @ t=0.88
1.292860613397167
% V (V) @ t=0.88
0.01757257993899437
% es.normE (V/m) @ t=0.9
1.8911123430787202
% es.EX (V/m) @ t=0.9
1.2840874916910607
% es.EY (V/m) @ t=0.9
0.36469832781803646
% es.EZ (V/m) @ t=0.9
1.3046946835244562
% es.tEX (V/m) @ t=0.9
1.2840874916910252
% es.tEY (V/m) @ t=0.9
0
% es.tEZ (V/m) @ t=0.9
1.3046946835244313
% es.Ex (V/m) @ t=0.9
1.2840874916910607
% es.Ey (V/m) @ t=0.9
0.36469832781803646
% es.Ez (V/m) @ t=0.9
1.3046946835244562
% es.tEx (V/m) @ t=0.9
1.2840874916910252
% es.tEy (V/m) @ t=0.9
0
% es.tEz (V/m) @ t=0.9
1.3046946835244313
% V (V) @ t=0.9
0.01773342695250124
% es.normE (V/m) @ t=0.92
1.9082654559675194
% es.EX (V/m) @ t=0.92
1.2957346599032533
% es.EY (V/m) @ t=0.92
0.3680062900329091
% es.EZ (V/m) @ t=0.92
1.316528753651749
% es.tEX (V/m) @ t=0.92
1.2957346599032462
% es.tEY (V/m) @ t=0.92
0
% es.tEZ (V/m) @ t=0.92
1.316528753651724
% es.Ex (V/m) @ t=0.92
1.2957346599032533
% es.Ey (V/m) @ t=0.92
0.3680062900329091
% es.Ez (V/m) @ t=0.92
1.316528753651749
% es.tEx (V/m) @ t=0.92
1.2957346599032462
% es.tEy (V/m) @ t=0.92
0
% es.tEz (V/m) @ t=0.92
1.316528753651724
% V (V) @ t=0.92
0.01789427396600811
% es.normE (V/m) @ t=0.94
1.9254185688562444
% es.EX (V/m) @ t=0.94
1.3073818281153322
% es.EY (V/m) @ t=0.94
0.37131425224783854
% es.EZ (V/m) @ t=0.94
1.3283628237790257
% es.tEX (V/m) @ t=0.94
1.307381828115325
% es.tEY (V/m) @ t=0.94
0
% es.tEZ (V/m) @ t=0.94
1.3283628237790026
% es.Ex (V/m) @ t=0.94
1.3073818281153322
% es.Ey (V/m) @ t=0.94
0.37131425224783854
% es.Ez (V/m) @ t=0.94
1.3283628237790257
% es.tEx (V/m) @ t=0.94
1.307381828115325
% es.tEy (V/m) @ t=0.94
0
% es.tEz (V/m) @ t=0.94
1.3283628237790026
% V (V) @ t=0.94
0.018055120979514973
% es.normE (V/m) @ t=0.96
1.9425716817449978
% es.EX (V/m) @ t=0.96
1.3190289963274608
% es.EY (V/m) @ t=0.96
0.37462221446268984
% es.EZ (V/m) @ t=0.96
1.3401968939063238
% es.tEX (V/m) @ t=0.96
1.3190289963274608
% es.tEY (V/m) @ t=0.96
0
% es.tEZ (V/m) @ t=0.96
1.3401968939063096
% es.Ex (V/m) @ t=0.96
1.3190289963274608
% es.Ey (V/m) @ t=0.96
0.37462221446268984
% es.Ez (V/m) @ t=0.96
1.3401968939063238
% es.tEx (V/m) @ t=0.96
1.3190289963274608
% es.tEy (V/m) @ t=0.96
0
% es.tEz (V/m) @ t=0.96
1.3401968939063096
% V (V) @ t=0.96
0.018215967993021838
% es.normE (V/m) @ t=0.98
1.9597247946338427
% es.EX (V/m) @ t=0.98
1.3306761645396605
% es.EY (V/m) @ t=0.98
0.37793017667762996
% es.EZ (V/m) @ t=0.98
1.3520309640336432
% es.tEX (V/m) @ t=0.98
1.3306761645396534
% es.tEY (V/m) @ t=0.98
0
% es.tEZ (V/m) @ t=0.98
1.3520309640336166
% es.Ex (V/m) @ t=0.98
1.3306761645396605
% es.Ey (V/m) @ t=0.98
0.37793017667762996
% es.Ez (V/m) @ t=0.98
1.3520309640336432
% es.tEx (V/m) @ t=0.98
1.3306761645396534
% es.tEy (V/m) @ t=0.98
0
% es.tEz (V/m) @ t=0.98
1.3520309640336166
% V (V) @ t=0.98
0.018376815006528706
% es.normE (V/m) @ t=1
1.9768779075226623
% es.EX (V/m) @ t=1
1.3423233327518957
% es.EY (V/m) @ t=1
0.38123813889245284
% es.EZ (V/m) @ t=1
1.3638650341609484
% es.tEX (V/m) @ t=1
1.3423233327518744
% es.tEY (V/m) @ t=1
0
% es.tEZ (V/m) @ t=1
1.3638650341609377
% es.Ex (V/m) @ t=1
1.3423233327518957
% es.Ey (V/m) @ t=1
0.38123813889245284
% es.Ez (V/m) @ t=1
1.3638650341609484
% es.tEx (V/m) @ t=1
1.3423233327518744
% es.tEy (V/m) @ t=1
0
% es.tEz (V/m) @ t=1
1.3638650341609377
% V (V) @ t=1
0.018537662020035577
% es.normE (V/m) @ t=1.02
1.9940310204113896
% es.EX (V/m) @ t=1.02
1.3539705009639889
% es.EY (V/m) @ t=1.02
0.3845461011073503
% es.EZ (V/m) @ t=1.02
1.3756991042882287
% es.tEX (V/m) @ t=1.02
1.3539705009639817
% es.tEY (V/m) @ t=1.02
0
% es.tEZ (V/m) @ t=1.02
1.375699104288202
% es.Ex (V/m) @ t=1.02
1.3539705009639889
% es.Ey (V/m) @ t=1.02
0.3845461011073503
% es.Ez (V/m) @ t=1.02
1.3756991042882287
% es.tEx (V/m) @ t=1.02
1.3539705009639817
% es.tEy (V/m) @ t=1.02
0
% es.tEz (V/m) @ t=1.02
1.375699104288202
% V (V) @ t=1.02
0.018698509033542445
% es.normE (V/m) @ t=1.04
2.011401071446823
% es.EX (V/m) @ t=1.04
1.3657649720118599
% es.EY (V/m) @ t=1.04
0.38789589759718623
% es.EZ (V/m) @ t=1.04
1.3876828441899907
% es.tEX (V/m) @ t=1.04
1.3657649720118172
% es.tEY (V/m) @ t=1.04
0
% es.tEZ (V/m) @ t=1.04
1.3876828441899818
% es.Ex (V/m) @ t=1.04
1.3657649720118599
% es.Ey (V/m) @ t=1.04
0.38789589759718623
% es.Ez (V/m) @ t=1.04
1.3876828441899907
% es.tEx (V/m) @ t=1.04
1.3657649720118172
% es.tEy (V/m) @ t=1.04
0
% es.tEz (V/m) @ t=1.04