% Model:              1 neuron.mph
% Version:            COMSOL 6.1.0.252
% Date:               Mar 22 2023, 18:08
% Dimension:          0
% Nodes:              14017
% Expressions:        14017
% Description:        Electric field norm, Electric field, X component, Electric field, Y component, Electric field, Z component, Tangential electric field, X component, Tangential electric field, Y component, Tangential electric field, Z component, Electric field, x component, Electric field, y component, Electric field, z component, Tangential electric field, x component, Tangential electric field, y component, Tangential electric field, z component, Electric potential
% Length unit:        mm
% x
1
% y
12.2
% z
1
% es.normE (V/m) @ t=0
1.4530175757315256
% es.EX (V/m) @ t=0
0.9866165318017082
% es.EY (V/m) @ t=0
0.28021207022558237
% es.EZ (V/m) @ t=0
1.002449029419049
% es.tEX (V/m) @ t=0
0.9866165318017011
% es.tEY (V/m) @ t=0
0
% es.tEZ (V/m) @ t=0
1.0024490294190258
% es.Ex (V/m) @ t=0
0.9866165318017082
% es.Ey (V/m) @ t=0
0.28021207022558237
% es.Ez (V/m) @ t=0
1.002449029419049
% es.tEx (V/m) @ t=0
0.9866165318017011
% es.tEy (V/m) @ t=0
0
% es.tEz (V/m) @ t=0
1.0024490294190258
% V (V) @ t=0
0.013625354873887194
% es.normE (V/m) @ t=0.02
1.2549869515268506
% es.EX (V/m) @ t=0.02
0.8521513395870493
% es.EY (V/m) @ t=0.02
0.24202218757275595
% es.EZ (V/m) @ t=0.02
0.8658260383203089
% es.tEX (V/m) @ t=0.02
0.8521513395870528
% es.tEY (V/m) @ t=0.02
0
% es.tEZ (V/m) @ t=0.02
0.8658260383202929
% es.Ex (V/m) @ t=0.02
0.8521513395870493
% es.Ey (V/m) @ t=0.02
0.24202218757275595
% es.Ez (V/m) @ t=0.02
0.8658260383203089
% es.tEx (V/m) @ t=0.02
0.8521513395870528
% es.tEy (V/m) @ t=0.02
0
% es.tEz (V/m) @ t=0.02
0.8658260383202929
% V (V) @ t=0.02
0.011768365931396733
% es.normE (V/m) @ t=0.04
1.2665328504575752
% es.EX (V/m) @ t=0.04
0.859991144833959
% es.EY (V/m) @ t=0.04
0.24424879601148497
% es.EZ (V/m) @ t=0.04
0.873791650571687
% es.tEX (V/m) @ t=0.04
0.859991144833927
% es.tEY (V/m) @ t=0.04
0
% es.tEZ (V/m) @ t=0.04
0.8737916505716825
% es.Ex (V/m) @ t=0.04
0.859991144833959
% es.Ey (V/m) @ t=0.04
0.24424879601148497
% es.Ez (V/m) @ t=0.04
0.873791650571687
% es.tEx (V/m) @ t=0.04
0.859991144833927
% es.tEy (V/m) @ t=0.04
0
% es.tEz (V/m) @ t=0.04
0.8737916505716825
% V (V) @ t=0.04
0.011876635019551246
% es.normE (V/m) @ t=0.06
1.2781623388945729
% es.EX (V/m) @ t=0.06
0.8678877083433818
% es.EY (V/m) @ t=0.06
0.24649152427600463
% es.EZ (V/m) @ t=0.06
0.8818149321011948
% es.tEX (V/m) @ t=0.06
0.8678877083433463
% es.tEY (V/m) @ t=0.06
0
% es.tEZ (V/m) @ t=0.06
0.8818149321011788
% es.Ex (V/m) @ t=0.06
0.8678877083433818
% es.Ey (V/m) @ t=0.06
0.24649152427600463
% es.Ez (V/m) @ t=0.06
0.8818149321011948
% es.tEx (V/m) @ t=0.06
0.8678877083433463
% es.tEy (V/m) @ t=0.06
0
% es.tEz (V/m) @ t=0.06
0.8818149321011788
% V (V) @ t=0.06
0.011985687974732578
% es.normE (V/m) @ t=0.08
1.2900159773034967
% es.EX (V/m) @ t=0.08
0.8759364723751837
% es.EY (V/m) @ t=0.08
0.248777478885712
% es.EZ (V/m) @ t=0.08
0.8899928569332509
% es.tEX (V/m) @ t=0.08
0.8759364723751588
% es.tEY (V/m) @ t=0.08
0
% es.tEZ (V/m) @ t=0.08
0.8899928569332403
% es.Ex (V/m) @ t=0.08
0.8759364723751837
% es.Ey (V/m) @ t=0.08
0.248777478885712
% es.Ez (V/m) @ t=0.08
0.8899928569332509
% es.tEx (V/m) @ t=0.08
0.8759364723751588
% es.tEy (V/m) @ t=0.08
0
% es.tEz (V/m) @ t=0.08
0.8899928569332403
% V (V) @ t=0.08
0.012096842898712962
% es.normE (V/m) @ t=0.1
1.301928244730136
% es.EX (V/m) @ t=0.1
0.88402504621396
% es.EY (V/m) @ t=0.1
0.25107473984598094
% es.EZ (V/m) @ t=0.1
0.8982112305097276
% es.tEX (V/m) @ t=0.1
0.8840250462139352
% es.tEY (V/m) @ t=0.1
0
% es.tEZ (V/m) @ t=0.1
0.898211230509709
% es.Ex (V/m) @ t=0.1
0.88402504621396
% es.Ey (V/m) @ t=0.1
0.25107473984598094
% es.Ez (V/m) @ t=0.1
0.8982112305097276
% es.tEx (V/m) @ t=0.1
0.8840250462139352
% es.tEy (V/m) @ t=0.1
0
% es.tEz (V/m) @ t=0.1
0.898211230509709
% V (V) @ t=0.1
0.01220854761694427
% es.normE (V/m) @ t=0.12
1.313840512156772
% es.EX (V/m) @ t=0.12
0.8921136200527542
% es.EY (V/m) @ t=0.12
0.2533720008062321
% es.EZ (V/m) @ t=0.12
0.9064296040862043
% es.tEX (V/m) @ t=0.12
0.89211362005274
% es.tEY (V/m) @ t=0.12
0
% es.tEZ (V/m) @ t=0.12
0.906429604086199
% es.Ex (V/m) @ t=0.12
0.8921136200527542
% es.Ey (V/m) @ t=0.12
0.2533720008062321
% es.Ez (V/m) @ t=0.12
0.9064296040862043
% es.tEx (V/m) @ t=0.12
0.89211362005274
% es.tEy (V/m) @ t=0.12
0
% es.tEz (V/m) @ t=0.12
0.906429604086199
% V (V) @ t=0.12
0.012320252335175582
% es.normE (V/m) @ t=0.14
1.3261055150234222
% es.EX (V/m) @ t=0.14
0.9004417058649175
% es.EY (V/m) @ t=0.14
0.2557372902626973
% es.EZ (V/m) @ t=0.14
0.9148913302453341
% es.tEX (V/m) @ t=0.14
0.9004417058648926
% es.tEY (V/m) @ t=0.14
0
% es.tEZ (V/m) @ t=0.14
0.9148913302453252
% es.Ex (V/m) @ t=0.14
0.9004417058649175
% es.Ey (V/m) @ t=0.14
0.2557372902626973
% es.Ez (V/m) @ t=0.14
0.9148913302453341
% es.tEx (V/m) @ t=0.14
0.9004417058648926
% es.tEy (V/m) @ t=0.14
0
% es.tEz (V/m) @ t=0.14
0.9148913302453252
% V (V) @ t=0.14
0.012435264389587558
% es.normE (V/m) @ t=0.16
1.3386140333664485
% es.EX (V/m) @ t=0.16
0.9089351418678326
% es.EY (V/m) @ t=0.16
0.25814954407198165
% es.EZ (V/m) @ t=0.16
0.923521058009575
% es.tEX (V/m) @ t=0.16
0.9089351418678007
% es.tEY (V/m) @ t=0.16
0
% es.tEZ (V/m) @ t=0.16
0.9235210580095554
% es.Ex (V/m) @ t=0.16
0.9089351418678326
% es.Ey (V/m) @ t=0.16
0.25814954407198165
% es.Ez (V/m) @ t=0.16
0.923521058009575
% es.tEx (V/m) @ t=0.16
0.9089351418678007
% es.tEy (V/m) @ t=0.16
0
% es.tEz (V/m) @ t=0.16
0.9235210580095554
% V (V) @ t=0.16
0.012552559706338031
% es.normE (V/m) @ t=0.18
1.3511225517094596
% es.EX (V/m) @ t=0.18
0.9174285778707301
% es.EY (V/m) @ t=0.18
0.26056179788128553
% es.EZ (V/m) @ t=0.18
0.9321507857738016
% es.tEX (V/m) @ t=0.18
0.9174285778707372
% es.tEY (V/m) @ t=0.18
0
% es.tEZ (V/m) @ t=0.18
0.9321507857737927
% es.Ex (V/m) @ t=0.18
0.9174285778707301
% es.Ey (V/m) @ t=0.18
0.26056179788128553
% es.Ez (V/m) @ t=0.18
0.9321507857738016
% es.tEx (V/m) @ t=0.18
0.9174285778707372
% es.tEy (V/m) @ t=0.18
0
% es.tEz (V/m) @ t=0.18
0.9321507857737927
% V (V) @ t=0.18
0.012669855023088504
% es.normE (V/m) @ t=0.2
1.3636310700524579
% es.EX (V/m) @ t=0.2
0.9259220138735955
% es.EY (V/m) @ t=0.2
0.26297405169059296
% es.EZ (V/m) @ t=0.2
0.9407805135380354
% es.tEX (V/m) @ t=0.2
0.9259220138735742
% es.tEY (V/m) @ t=0.2
0
% es.tEZ (V/m) @ t=0.2
0.9407805135380158
% es.Ex (V/m) @ t=0.2
0.9259220138735955
% es.Ey (V/m) @ t=0.2
0.26297405169059296
% es.Ez (V/m) @ t=0.2
0.9407805135380354
% es.tEx (V/m) @ t=0.2
0.9259220138735742
% es.tEy (V/m) @ t=0.2
0
% es.tEz (V/m) @ t=0.2
0.9407805135380158
% V (V) @ t=0.2
0.012787150339838974
% es.normE (V/m) @ t=0.22
1.376139588395499
% es.EX (V/m) @ t=0.22
0.9344154498765143
% es.EY (V/m) @ t=0.22
0.2653863054999217
% es.EZ (V/m) @ t=0.22
0.9494102413022727
% es.tEX (V/m) @ t=0.22
0.9344154498765391
% es.tEY (V/m) @ t=0.22
0
% es.tEZ (V/m) @ t=0.22
0.9494102413022674
% es.Ex (V/m) @ t=0.22
0.9344154498765143
% es.Ey (V/m) @ t=0.22
0.2653863054999217
% es.Ez (V/m) @ t=0.22
0.9494102413022727
% es.tEx (V/m) @ t=0.22
0.9344154498765391
% es.tEy (V/m) @ t=0.22
0
% es.tEz (V/m) @ t=0.22
0.9494102413022674
% V (V) @ t=0.22
0.01290444565658945
% es.normE (V/m) @ t=0.24
1.3886481067385472
% es.EX (V/m) @ t=0.24
0.9429088858794685
% es.EY (V/m) @ t=0.24
0.26779855930916874
% es.EZ (V/m) @ t=0.24
0.9580399690665082
% es.tEX (V/m) @ t=0.24
0.9429088858794472
% es.tEY (V/m) @ t=0.24
0
% es.tEZ (V/m) @ t=0.24
0.9580399690664905
% es.Ex (V/m) @ t=0.24
0.9429088858794685
% es.Ey (V/m) @ t=0.24
0.26779855930916874
% es.Ez (V/m) @ t=0.24
0.9580399690665082
% es.tEx (V/m) @ t=0.24
0.9429088858794472
% es.tEy (V/m) @ t=0.24
0
% es.tEz (V/m) @ t=0.24
0.9580399690664905
% V (V) @ t=0.24
0.013021740973339923
% es.normE (V/m) @ t=0.26
1.4014087325725775
% es.EX (V/m) @ t=0.26
0.951573506755576
% es.EY (V/m) @ t=0.26
0.27025944100307875
% es.EZ (V/m) @ t=0.26
0.9668436219128544
% es.tEX (V/m) @ t=0.26
0.9515735067555653
% es.tEY (V/m) @ t=0.26
0
% es.tEZ (V/m) @ t=0.26
0.9668436219128438
% es.Ex (V/m) @ t=0.26
0.951573506755576
% es.Ey (V/m) @ t=0.26
0.27025944100307875
% es.Ez (V/m) @ t=0.26
0.9668436219128544
% es.tEx (V/m) @ t=0.26
0.9515735067555653
% es.tEy (V/m) @ t=0.26
0
% es.tEz (V/m) @ t=0.26
0.9668436219128438
% V (V) @ t=0.26
0.0131413995259411
% es.normE (V/m) @ t=0.28
1.4152481253304479
% es.EX (V/m) @ t=0.28
0.9609706270046168
% es.EY (V/m) @ t=0.28
0.27292840121653406
% es.EZ (V/m) @ t=0.28
0.9763914994748433
% es.tEX (V/m) @ t=0.28
0.9609706270046132
% es.tEY (V/m) @ t=0.28
0
% es.tEZ (V/m) @ t=0.28
0.9763914994748291
% es.Ex (V/m) @ t=0.28
0.9609706270046168
% es.Ey (V/m) @ t=0.28
0.27292840121653406
% es.Ez (V/m) @ t=0.28
0.9763914994748433
% es.tEx (V/m) @ t=0.28
0.9609706270046132
% es.tEy (V/m) @ t=0.28
0
% es.tEz (V/m) @ t=0.28
0.9763914994748291
% V (V) @ t=0.28
0.013271170355091202
% es.normE (V/m) @ t=0.3
1.4290875180883502
% es.EX (V/m) @ t=0.3
0.9703677472536505
% es.EY (V/m) @ t=0.3
0.2755973614300178
% es.EZ (V/m) @ t=0.3
0.985939377036857
% es.tEX (V/m) @ t=0.3
0.9703677472536469
% es.tEY (V/m) @ t=0.3
0
% es.tEZ (V/m) @ t=0.3
0.9859393770368499
% es.Ex (V/m) @ t=0.3
0.9703677472536505
% es.Ey (V/m) @ t=0.3
0.2755973614300178
% es.Ez (V/m) @ t=0.3
0.985939377036857
% es.tEx (V/m) @ t=0.3
0.9703677472536469
% es.tEy (V/m) @ t=0.3
0
% es.tEz (V/m) @ t=0.3
0.9859393770368499
% V (V) @ t=0.3
0.013400941184241308
% es.normE (V/m) @ t=0.32
1.442926910846233
% es.EX (V/m) @ t=0.32
0.97976486750267
% es.EY (V/m) @ t=0.32
0.2782663216435797
% es.EZ (V/m) @ t=0.32
0.9954872545988245
% es.tEX (V/m) @ t=0.32
0.9797648675026664
% es.tEY (V/m) @ t=0.32
0
% es.tEZ (V/m) @ t=0.32
0.9954872545988067
% es.Ex (V/m) @ t=0.32
0.97976486750267
% es.Ey (V/m) @ t=0.32
0.2782663216435797
% es.Ez (V/m) @ t=0.32
0.9954872545988245
% es.tEx (V/m) @ t=0.32
0.9797648675026664
% es.tEy (V/m) @ t=0.32
0
% es.tEz (V/m) @ t=0.32
0.9954872545988067
% V (V) @ t=0.32
0.013530712013391413
% es.normE (V/m) @ t=0.34
1.45676630360414
% es.EX (V/m) @ t=0.34
0.9891619877517037
% es.EY (V/m) @ t=0.34
0.28093528185707584
% es.EZ (V/m) @ t=0.34
1.005035132160824
% es.tEX (V/m) @ t=0.34
0.9891619877517286
% es.tEY (V/m) @ t=0.34
0
% es.tEZ (V/m) @ t=0.34
1.0050351321608133
% es.Ex (V/m) @ t=0.34
0.9891619877517037
% es.Ey (V/m) @ t=0.34
0.28093528185707584
% es.Ez (V/m) @ t=0.34
1.005035132160824
% es.tEx (V/m) @ t=0.34
0.9891619877517286
% es.tEy (V/m) @ t=0.34
0
% es.tEz (V/m) @ t=0.34
1.0050351321608133
% V (V) @ t=0.34
0.013660482842541517
% es.normE (V/m) @ t=0.36
1.4706056963620626
% es.EX (V/m) @ t=0.36
0.9985591080007872
% es.EY (V/m) @ t=0.36
0.2836042420705631
% es.EZ (V/m) @ t=0.36
1.0145830097228004
% es.tEX (V/m) @ t=0.36
0.9985591080007765
% es.tEY (V/m) @ t=0.36
0
% es.tEZ (V/m) @ t=0.36
1.0145830097227915
% es.Ex (V/m) @ t=0.36
0.9985591080007872
% es.Ey (V/m) @ t=0.36
0.2836042420705631
% es.Ez (V/m) @ t=0.36
1.0145830097228004
% es.tEx (V/m) @ t=0.36
0.9985591080007765
% es.tEy (V/m) @ t=0.36
0
% es.tEz (V/m) @ t=0.36
1.0145830097227915
% V (V) @ t=0.36
0.013790253671691621
% es.normE (V/m) @ t=0.38
1.484445089119913
% es.EX (V/m) @ t=0.38
1.007956228249757
% es.EY (V/m) @ t=0.38
0.2862732022840788
% es.EZ (V/m) @ t=0.38
1.0241308872847679
% es.tEX (V/m) @ t=0.38
1.0079562282497534
% es.tEY (V/m) @ t=0.38
0
% es.tEZ (V/m) @ t=0.38
1.0241308872847483
% es.Ex (V/m) @ t=0.38
1.007956228249757
% es.Ey (V/m) @ t=0.38
0.2862732022840788
% es.Ez (V/m) @ t=0.38
1.0241308872847679
% es.tEx (V/m) @ t=0.38
1.0079562282497534
% es.tEy (V/m) @ t=0.38
0
% es.tEz (V/m) @ t=0.38
1.0241308872847483
% V (V) @ t=0.38
0.013920024500841722
% es.normE (V/m) @ t=0.4
1.4982844818778416
% es.EX (V/m) @ t=0.4
1.0173533484988013
% es.EY (V/m) @ t=0.4
0.28894216249750215
% es.EZ (V/m) @ t=0.4
1.033678764846794
% es.tEX (V/m) @ t=0.4
1.0173533484987871
% es.tEY (V/m) @ t=0.4
0
% es.tEZ (V/m) @ t=0.4
1.0336787648467762
% es.Ex (V/m) @ t=0.4
1.0173533484988013
% es.Ey (V/m) @ t=0.4
0.28894216249750215
% es.Ez (V/m) @ t=0.4
1.033678764846794
% es.tEx (V/m) @ t=0.4
1.0173533484987871
% es.tEy (V/m) @ t=0.4
0
% es.tEz (V/m) @ t=0.4
1.0336787648467762
% V (V) @ t=0.4
0.01404979532999183
% es.normE (V/m) @ t=0.42
1.5121238746357597
% es.EX (V/m) @ t=0.42
1.0267504687478635
% es.EY (V/m) @ t=0.42
0.29161112271102496
% es.EZ (V/m) @ t=0.42
1.0432266424087508
% es.tEX (V/m) @ t=0.42
1.0267504687478493
% es.tEY (V/m) @ t=0.42
0
% es.tEZ (V/m) @ t=0.42
1.043226642408733
% es.Ex (V/m) @ t=0.42
1.0267504687478635
% es.Ey (V/m) @ t=0.42
0.29161112271102496
% es.Ez (V/m) @ t=0.42
1.0432266424087508
% es.tEx (V/m) @ t=0.42
1.0267504687478493
% es.tEy (V/m) @ t=0.42
0
% es.tEz (V/m) @ t=0.42
1.043226642408733
% V (V) @ t=0.42
0.01417956615914193
% es.normE (V/m) @ t=0.44
1.5259632673937014
% es.EX (V/m) @ t=0.44
1.0361475889969256
% es.EY (V/m) @ t=0.44
0.2942800829244874
% es.EZ (V/m) @ t=0.44
1.0527745199707557
% es.tEX (V/m) @ t=0.44
1.0361475889969114
% es.tEY (V/m) @ t=0.44
0
% es.tEZ (V/m) @ t=0.44
1.0527745199707397
% es.Ex (V/m) @ t=0.44
1.0361475889969256
% es.Ey (V/m) @ t=0.44
0.2942800829244874
% es.Ez (V/m) @ t=0.44
1.0527745199707557
% es.tEx (V/m) @ t=0.44
1.0361475889969114
% es.tEy (V/m) @ t=0.44
0
% es.tEz (V/m) @ t=0.44
1.0527745199707397
% V (V) @ t=0.44
0.014309336988292036
% es.normE (V/m) @ t=0.46
1.5398026601516257
% es.EX (V/m) @ t=0.46
1.0455447092459522
% es.EY (V/m) @ t=0.46
0.2969490431379995
% es.EZ (V/m) @ t=0.46
1.0623223975327356
% es.tEX (V/m) @ t=0.46
1.0455447092459451
% es.tEY (V/m) @ t=0.46
0
% es.tEZ (V/m) @ t=0.46
1.0623223975327178
% es.Ex (V/m) @ t=0.46
1.0455447092459522
% es.Ey (V/m) @ t=0.46
0.2969490431379995
% es.Ez (V/m) @ t=0.46
1.0623223975327356
% es.tEx (V/m) @ t=0.46
1.0455447092459451
% es.tEy (V/m) @ t=0.46
0
% es.tEz (V/m) @ t=0.46
1.0623223975327178
% V (V) @ t=0.46
0.014439107817442141
% es.normE (V/m) @ t=0.48
1.5536420529095833
% es.EX (V/m) @ t=0.48
1.0549418294949966
% es.EY (V/m) @ t=0.48
0.299618003351501
% es.EZ (V/m) @ t=0.48
1.0718702750947546
% es.tEX (V/m) @ t=0.48
1.054941829494993
% es.tEY (V/m) @ t=0.48
0
% es.tEZ (V/m) @ t=0.48
1.0718702750947386
% es.Ex (V/m) @ t=0.48
1.0549418294949966
% es.Ey (V/m) @ t=0.48
0.299618003351501
% es.Ez (V/m) @ t=0.48
1.0718702750947546
% es.tEx (V/m) @ t=0.48
1.054941829494993
% es.tEy (V/m) @ t=0.48
0
% es.tEz (V/m) @ t=0.48
1.0718702750947386
% V (V) @ t=0.48
0.014568878646592244
% es.normE (V/m) @ t=0.5
1.5674814456675221
% es.EX (V/m) @ t=0.5
1.0643389497440516
% es.EY (V/m) @ t=0.5
0.3022869635649492
% es.EZ (V/m) @ t=0.5
1.0814181526567417
% es.tEX (V/m) @ t=0.5
1.0643389497440126
% es.tEY (V/m) @ t=0.5
0
% es.tEZ (V/m) @ t=0.5
1.081418152656731
% es.Ex (V/m) @ t=0.5
1.0643389497440516
% es.Ey (V/m) @ t=0.5
0.3022869635649492
% es.Ez (V/m) @ t=0.5
1.0814181526567417
% es.tEx (V/m) @ t=0.5
1.0643389497440126
% es.tEy (V/m) @ t=0.5
0
% es.tEz (V/m) @ t=0.5
1.081418152656731
% V (V) @ t=0.5
0.01469864947574235
% es.normE (V/m) @ t=0.52
1.5818974410120519
% es.EX (V/m) @ t=0.52
1.0741275875565464
% es.EY (V/m) @ t=0.52
0.3050670907783264
% es.EZ (V/m) @ t=0.52
1.0913638522005868
% es.tEX (V/m) @ t=0.52
1.074127587556518
% es.tEY (V/m) @ t=0.52
0
% es.tEZ (V/m) @ t=0.52
1.0913638522005655
% es.Ex (V/m) @ t=0.52
1.0741275875565464
% es.Ey (V/m) @ t=0.52
0.3050670907783264
% es.Ez (V/m) @ t=0.52
1.0913638522005868
% es.tEx (V/m) @ t=0.52
1.074127587556518
% es.tEy (V/m) @ t=0.52
0
% es.tEz (V/m) @ t=0.52
1.0913638522005655
% V (V) @ t=0.52
0.014833829961914487
% es.normE (V/m) @ t=0.54
1.5972340671346386
% es.EX (V/m) @ t=0.54
1.0845413407040922
% es.EY (V/m) @ t=0.54
0.30802471244616925
% es.EZ (V/m) @ t=0.54
1.1019447330099812
% es.tEX (V/m) @ t=0.54
1.084541340704078
% es.tEY (V/m) @ t=0.54
0
% es.tEZ (V/m) @ t=0.54
1.101944733009958
% es.Ex (V/m) @ t=0.54
1.0845413407040922
% es.Ey (V/m) @ t=0.54
0.30802471244616925
% es.Ez (V/m) @ t=0.54
1.1019447330099812
% es.tEx (V/m) @ t=0.54
1.084541340704078
% es.tEy (V/m) @ t=0.54
0
% es.tEz (V/m) @ t=0.54
1.101944733009958
% V (V) @ t=0.54
0.014977647760628902
% es.normE (V/m) @ t=0.56
1.6125706932572488
% es.EX (V/m) @ t=0.56
1.0949550938516808
% es.EY (V/m) @ t=0.56
0.31098233411402987
% es.EZ (V/m) @ t=0.56
1.1125256138193524
% es.tEX (V/m) @ t=0.56
1.0949550938516666
% es.tEY (V/m) @ t=0.56
0
% es.tEZ (V/m) @ t=0.56
1.1125256138193365
% es.Ex (V/m) @ t=0.56
1.0949550938516808
% es.Ey (V/m) @ t=0.56
0.31098233411402987
% es.Ez (V/m) @ t=0.56
1.1125256138193524
% es.tEx (V/m) @ t=0.56
1.0949550938516666
% es.tEy (V/m) @ t=0.56
0
% es.tEz (V/m) @ t=0.56
1.1125256138193365
% V (V) @ t=0.56
0.015121465559343319
% es.normE (V/m) @ t=0.58
1.6279073193798257
% es.EX (V/m) @ t=0.58
1.1053688469991982
% es.EY (V/m) @ t=0.58
0.31393995578188694
% es.EZ (V/m) @ t=0.58
1.1231064946287397
% es.tEX (V/m) @ t=0.58
1.1053688469991982
% es.tEY (V/m) @ t=0.58
0
% es.tEZ (V/m) @ t=0.58
1.1231064946287361
% es.Ex (V/m) @ t=0.58
1.1053688469991982
% es.Ey (V/m) @ t=0.58
0.31393995578188694
% es.Ez (V/m) @ t=0.58
1.1231064946287397
% es.tEx (V/m) @ t=0.58
1.1053688469991982
% es.tEy (V/m) @ t=0.58
0
% es.tEz (V/m) @ t=0.58
1.1231064946287361
% V (V) @ t=0.58
0.015265283358057734
% es.normE (V/m) @ t=0.6
1.643243945502431
% es.EX (V/m) @ t=0.6
1.11578260014673
% es.EY (V/m) @ t=0.6
0.31689757744974045
% es.EZ (V/m) @ t=0.6
1.1336873754381553
% es.tEX (V/m) @ t=0.6
1.11578260014673
% es.tEY (V/m) @ t=0.6
0
% es.tEZ (V/m) @ t=0.6
1.1336873754381358
% es.Ex (V/m) @ t=0.6
1.11578260014673
% es.Ey (V/m) @ t=0.6
0.31689757744974045
% es.Ez (V/m) @ t=0.6
1.1336873754381553
% es.tEx (V/m) @ t=0.6
1.11578260014673
% es.tEy (V/m) @ t=0.6
0
% es.tEz (V/m) @ t=0.6
1.1336873754381358
% V (V) @ t=0.6
0.015409101156772149
% es.normE (V/m) @ t=0.62
1.6585805716250128
% es.EX (V/m) @ t=0.62
1.126196353294283
% es.EY (V/m) @ t=0.62
0.31985519911755134
% es.EZ (V/m) @ t=0.62
1.1442682562475408
% es.tEX (V/m) @ t=0.62
1.1261963532942616
% es.tEY (V/m) @ t=0.62
0
% es.tEZ (V/m) @ t=0.62
1.1442682562475284
% es.Ex (V/m) @ t=0.62
1.126196353294283
% es.Ey (V/m) @ t=0.62
0.31985519911755134
% es.Ez (V/m) @ t=0.62
1.1442682562475408
% es.tEx (V/m) @ t=0.62
1.1261963532942616
% es.tEy (V/m) @ t=0.62
0
% es.tEz (V/m) @ t=0.62
1.1442682562475284
% V (V) @ t=0.62
0.015552918955486564
% es.normE (V/m) @ t=0.64
1.67391719774762
% es.EX (V/m) @ t=0.64
1.1366101064418501
% es.EY (V/m) @ t=0.64
0.32281282078539064
% es.EZ (V/m) @ t=0.64
1.154849137056921
% es.tEX (V/m) @ t=0.64
1.1366101064418501
% es.tEY (V/m) @ t=0.64
0
% es.tEZ (V/m) @ t=0.64
1.1548491370568925
% es.Ex (V/m) @ t=0.64
1.1366101064418501
% es.Ey (V/m) @ t=0.64
0.32281282078539064
% es.Ez (V/m) @ t=0.64
1.154849137056921
% es.tEx (V/m) @ t=0.64
1.1366101064418501
% es.tEy (V/m) @ t=0.64
0
% es.tEz (V/m) @ t=0.64
1.1548491370568925
% V (V) @ t=0.64
0.015696736754200982
% es.normE (V/m) @ t=0.66
1.6892538238702364
% es.EX (V/m) @ t=0.66
1.1470238595894173
% es.EY (V/m) @ t=0.66
0.32577044245321574
% es.EZ (V/m) @ t=0.66
1.1654300178663277
% es.tEX (V/m) @ t=0.66
1.1470238595893818
% es.tEY (V/m) @ t=0.66
0
% es.tEZ (V/m) @ t=0.66
1.1654300178663135
% es.Ex (V/m) @ t=0.66
1.1470238595894173
% es.Ey (V/m) @ t=0.66
0.32577044245321574
% es.Ez (V/m) @ t=0.66
1.1654300178663277
% es.tEx (V/m) @ t=0.66
1.1470238595893818
% es.tEy (V/m) @ t=0.66
0
% es.tEz (V/m) @ t=0.66
1.1654300178663135
% V (V) @ t=0.66
0.015840554552915397
% es.normE (V/m) @ t=0.68
1.704590449992799
% es.EX (V/m) @ t=0.68
1.1574376127369135
% es.EY (V/m) @ t=0.68
0.3287280641210799
% es.EZ (V/m) @ t=0.68
1.1760108986757078
% es.tEX (V/m) @ t=0.68
1.157437612736885
% es.tEY (V/m) @ t=0.68
0
% es.tEZ (V/m) @ t=0.68
1.176010898675699
% es.Ex (V/m) @ t=0.68
1.1574376127369135
% es.Ey (V/m) @ t=0.68
0.3287280641210799
% es.Ez (V/m) @ t=0.68
1.1760108986757078
% es.tEx (V/m) @ t=0.68
1.157437612736885
% es.tEy (V/m) @ t=0.68
0
% es.tEz (V/m) @ t=0.68
1.176010898675699
% V (V) @ t=0.68
0.015984372351629812
% es.normE (V/m) @ t=0.7
1.719927076115379
% es.EX (V/m) @ t=0.7
1.1678513658844096
% es.EY (V/m) @ t=0.7
0.3316856857889583
% es.EZ (V/m) @ t=0.7
1.1865917794851093
% es.tEX (V/m) @ t=0.7
1.1678513658844167
% es.tEY (V/m) @ t=0.7
0
% es.tEZ (V/m) @ t=0.7
1.1865917794850844
% es.Ex (V/m) @ t=0.7
1.1678513658844096
% es.Ey (V/m) @ t=0.7
0.3316856857889583
% es.Ez (V/m) @ t=0.7
1.1865917794851093
% es.tEx (V/m) @ t=0.7
1.1678513658844167
% es.tEy (V/m) @ t=0.7
0
% es.tEz (V/m) @ t=0.7
1.1865917794850844
% V (V) @ t=0.7
0.016128190150344227
% es.normE (V/m) @ t=0.72
1.735263702238032
% es.EX (V/m) @ t=0.72
1.178265119032048
% es.EY (V/m) @ t=0.72
0.3346433074567514
% es.EZ (V/m) @ t=0.72
1.1971726602944948
% es.tEX (V/m) @ t=0.72
1.1782651190320337
% es.tEY (V/m) @ t=0.72
0
% es.tEZ (V/m) @ t=0.72
1.197172660294477
% es.Ex (V/m) @ t=0.72
1.178265119032048
% es.Ey (V/m) @ t=0.72
0.3346433074567514
% es.Ez (V/m) @ t=0.72
1.1971726602944948
% es.tEx (V/m) @ t=0.72
1.1782651190320337
% es.tEy (V/m) @ t=0.72
0
% es.tEz (V/m) @ t=0.72
1.197172660294477
% V (V) @ t=0.72
0.016272007949058646
% es.normE (V/m) @ t=0.74
1.7506003283606204
% es.EX (V/m) @ t=0.74
1.1886788721795725
% es.EY (V/m) @ t=0.74
0.33760092912458006
% es.EZ (V/m) @ t=0.74
1.2077535411039069
% es.tEX (V/m) @ t=0.74
1.1886788721795654
% es.tEY (V/m) @ t=0.74
0
% es.tEZ (V/m) @ t=0.74
1.2077535411038909
% es.Ex (V/m) @ t=0.74
1.1886788721795725
% es.Ey (V/m) @ t=0.74
0.33760092912458006
% es.Ez (V/m) @ t=0.74
1.2077535411039069
% es.tEx (V/m) @ t=0.74
1.1886788721795654
% es.tEy (V/m) @ t=0.74
0
% es.tEz (V/m) @ t=0.74
1.2077535411038909
% V (V) @ t=0.74
0.01641582574777306
% es.normE (V/m) @ t=0.76
1.7659369544832215
% es.EX (V/m) @ t=0.76
1.19909262532709
% es.EY (V/m) @ t=0.76
0.34055855079250463
% es.EZ (V/m) @ t=0.76
1.2183344219132888
% es.tEX (V/m) @ t=0.76
1.199092625327097
% es.tEY (V/m) @ t=0.76
0
% es.tEZ (V/m) @ t=0.76
1.2183344219132763
% es.Ex (V/m) @ t=0.76
1.19909262532709
% es.Ey (V/m) @ t=0.76
0.34055855079250463
% es.Ez (V/m) @ t=0.76
1.2183344219132888
% es.tEx (V/m) @ t=0.76
1.199092625327097
% es.tEy (V/m) @ t=0.76
0
% es.tEz (V/m) @ t=0.76
1.2183344219132763
% V (V) @ t=0.76
0.016559643546487476
% es.normE (V/m) @ t=0.78
1.7822526079190275
% es.EX (V/m) @ t=0.78
1.210171152952931
% es.EY (V/m) @ t=0.78
0.3437050134013404
% es.EZ (V/m) @ t=0.78
1.229590718410492
% es.tEX (V/m) @ t=0.78
1.2101711529529382
% es.tEY (V/m) @ t=0.78
0
% es.tEZ (V/m) @ t=0.78
1.2295907184104706
% es.Ex (V/m) @ t=0.78
1.210171152952931
% es.Ey (V/m) @ t=0.78
0.3437050134013404
% es.Ez (V/m) @ t=0.78
1.229590718410492
% es.tEx (V/m) @ t=0.78
1.2101711529529382
% es.tEy (V/m) @ t=0.78
0
% es.tEz (V/m) @ t=0.78
1.2295907184104706
% V (V) @ t=0.78
0.016712638628570635
% es.normE (V/m) @ t=0.8
1.7992749042372767
% es.EX (V/m) @ t=0.8
1.2217295018740728
% es.EY (V/m) @ t=0.8
0.346987777730309
% es.EZ (V/m) @ t=0.8
1.2413345168210945
% es.tEX (V/m) @ t=0.8
1.22172950187408
% es.tEY (V/m) @ t=0.8
0
% es.tEZ (V/m) @ t=0.8
1.2413345168210768
% es.Ex (V/m) @ t=0.8
1.2217295018740728
% es.Ey (V/m) @ t=0.8
0.346987777730309
% es.Ez (V/m) @ t=0.8
1.2413345168210945
% es.tEx (V/m) @ t=0.8
1.22172950187408
% es.tEy (V/m) @ t=0.8
0
% es.tEz (V/m) @ t=0.8
1.2413345168210768
% V (V) @ t=0.8
0.016872257695383662
% es.normE (V/m) @ t=0.82
1.816297200555555
% es.EX (V/m) @ t=0.82
1.233287850795179
% es.EY (V/m) @ t=0.82
0.3502705420592349
% es.EZ (V/m) @ t=0.82
1.2530783152317735
% es.tEX (V/m) @ t=0.82
1.2332878507951932
% es.tEY (V/m) @ t=0.82
0
% es.tEZ (V/m) @ t=0.82
1.253078315231754
% es.Ex (V/m) @ t=0.82
1.233287850795179
% es.Ey (V/m) @ t=0.82
0.3502705420592349
% es.Ez (V/m) @ t=0.82
1.2530783152317735
% es.tEx (V/m) @ t=0.82
1.2332878507951932
% es.tEy (V/m) @ t=0.82
0
% es.tEz (V/m) @ t=0.82
1.253078315231754
% V (V) @ t=0.82
0.01703187676219669
% es.normE (V/m) @ t=0.84
1.8333194968737645
% es.EX (V/m) @ t=0.84
1.2448461997163065
% es.EY (V/m) @ t=0.84
0.3535533063881431
% es.EZ (V/m) @ t=0.84
1.264822113642353
% es.tEX (V/m) @ t=0.84
1.244846199716278
% es.tEY (V/m) @ t=0.84
0
% es.tEZ (V/m) @ t=0.84
1.2648221136423317
% es.Ex (V/m) @ t=0.84
1.2448461997163065
% es.Ey (V/m) @ t=0.84
0.3535533063881431
% es.Ez (V/m) @ t=0.84
1.264822113642353
% es.tEx (V/m) @ t=0.84
1.244846199716278
% es.tEy (V/m) @ t=0.84
0
% es.tEz (V/m) @ t=0.84
1.2648221136423317
% V (V) @ t=0.84
0.01719149582900971
% es.normE (V/m) @ t=0.86
1.8503417931921018
% es.EX (V/m) @ t=0.86
1.256404548637498
% es.EY (V/m) @ t=0.86
0.35683607071711876
% es.EZ (V/m) @ t=0.86
1.2765659120530142
% es.tEX (V/m) @ t=0.86
1.2564045486374482
% es.tEY (V/m) @ t=0.86
0
% es.tEZ (V/m) @ t=0.86
1.2765659120530017
% es.Ex (V/m) @ t=0.86
1.256404548637498
% es.Ey (V/m) @ t=0.86
0.35683607071711876
% es.Ez (V/m) @ t=0.86
1.2765659120530142
% es.tEx (V/m) @ t=0.86
1.2564045486374482
% es.tEy (V/m) @ t=0.86
0
% es.tEz (V/m) @ t=0.86
1.2765659120530017
% V (V) @ t=0.86
0.017351114895822736
% es.normE (V/m) @ t=0.88
1.8673640895103576
% es.EX (V/m) @ t=0.88
1.26796289755859
% es.EY (V/m) @ t=0.88
0.3601188350460731
% es.EZ (V/m) @ t=0.88
1.2883097104636647
% es.tEX (V/m) @ t=0.88
1.2679628975585615
% es.tEY (V/m) @ t=0.88
0
% es.tEZ (V/m) @ t=0.88
1.2883097104636505
% es.Ex (V/m) @ t=0.88
1.26796289755859
% es.Ey (V/m) @ t=0.88
0.3601188350460731
% es.Ez (V/m) @ t=0.88
1.2883097104636647
% es.tEx (V/m) @ t=0.88
1.2679628975585615
% es.tEy (V/m) @ t=0.88
0
% es.tEz (V/m) @ t=0.88
1.2883097104636505
% V (V) @ t=0.88
0.017510733962635763
% es.normE (V/m) @ t=0.9
1.8843863858286234
% es.EX (V/m) @ t=0.9
1.2795212464796961
% es.EY (V/m) @ t=0.9
0.36340159937502037
% es.EZ (V/m) @ t=0.9
1.3000535088743241
% es.tEX (V/m) @ t=0.9
1.2795212464796748
% es.tEY (V/m) @ t=0.9
0
% es.tEZ (V/m) @ t=0.9
1.3000535088743135
% es.Ex (V/m) @ t=0.9
1.2795212464796961
% es.Ey (V/m) @ t=0.9
0.36340159937502037
% es.Ez (V/m) @ t=0.9
1.3000535088743241
% es.tEx (V/m) @ t=0.9
1.2795212464796748
% es.tEy (V/m) @ t=0.9
0
% es.tEz (V/m) @ t=0.9
1.3000535088743135
% V (V) @ t=0.9
0.017670353029448787
% es.normE (V/m) @ t=0.92
1.9014086821468674
% es.EX (V/m) @ t=0.92
1.2910795954008094
% es.EY (V/m) @ t=0.92
0.36668436370396407
% es.EZ (V/m) @ t=0.92
1.311797307284932
% es.tEX (V/m) @ t=0.92
1.2910795954008165
% es.tEY (V/m) @ t=0.92
0
% es.tEZ (V/m) @ t=0.92
1.3117973072849196
% es.Ex (V/m) @ t=0.92
1.2910795954008094
% es.Ey (V/m) @ t=0.92
0.36668436370396407
% es.Ez (V/m) @ t=0.92
1.311797307284932
% es.tEx (V/m) @ t=0.92
1.2910795954008165
% es.tEy (V/m) @ t=0.92
0
% es.tEz (V/m) @ t=0.92
1.3117973072849196
% V (V) @ t=0.92
0.017829972096261814
% es.normE (V/m) @ t=0.94
1.9184309784651936
% es.EX (V/m) @ t=0.94
1.3026379443219938
% es.EY (V/m) @ t=0.94
0.3699671280329184
% es.EZ (V/m) @ t=0.94
1.3235411056955861
% es.tEX (V/m) @ t=0.94
1.3026379443219867
% es.tEY (V/m) @ t=0.94
0
% es.tEZ (V/m) @ t=0.94
1.3235411056955684
% es.Ex (V/m) @ t=0.94
1.3026379443219938
% es.Ey (V/m) @ t=0.94
0.3699671280329184
% es.Ez (V/m) @ t=0.94
1.3235411056955861
% es.tEx (V/m) @ t=0.94
1.3026379443219867
% es.tEy (V/m) @ t=0.94
0
% es.tEz (V/m) @ t=0.94
1.3235411056955684
% V (V) @ t=0.94
0.017989591163074838
% es.normE (V/m) @ t=0.96
1.935453274783419
% es.EX (V/m) @ t=0.96
1.3141962932430502
% es.EY (V/m) @ t=0.96
0.37324989236191897
% es.EZ (V/m) @ t=0.96
1.3352849041061994
% es.tEX (V/m) @ t=0.96
1.314196293243043
% es.tEY (V/m) @ t=0.96
0
% es.tEZ (V/m) @ t=0.96
1.3352849041061745
% es.Ex (V/m) @ t=0.96
1.3141962932430502
% es.Ey (V/m) @ t=0.96
0.37324989236191897
% es.Ez (V/m) @ t=0.96
1.3352849041061994
% es.tEx (V/m) @ t=0.96
1.314196293243043
% es.tEy (V/m) @ t=0.96
0
% es.tEz (V/m) @ t=0.96
1.3352849041061745
% V (V) @ t=0.96
0.018149210229887865
% es.normE (V/m) @ t=0.98
1.9524755711016808
% es.EX (V/m) @ t=0.98
1.3257546421641635
% es.EY (V/m) @ t=0.98
0.3765326566908769
% es.EZ (V/m) @ t=0.98
1.347028702516825
% es.tEX (V/m) @ t=0.98
1.3257546421641564
% es.tEY (V/m) @ t=0.98
0
% es.tEZ (V/m) @ t=0.98
1.3470287025167949
% es.Ex (V/m) @ t=0.98
1.3257546421641635
% es.Ey (V/m) @ t=0.98
0.3765326566908769
% es.Ez (V/m) @ t=0.98
1.347028702516825
% es.tEx (V/m) @ t=0.98
1.3257546421641564
% es.tEy (V/m) @ t=0.98
0
% es.tEz (V/m) @ t=0.98
1.3470287025167949
% V (V) @ t=0.98
0.01830882929670089
% es.normE (V/m) @ t=1
1.9694978674199337
% es.EX (V/m) @ t=1
1.3373129910852413
% es.EY (V/m) @ t=1
0.3798154210198419
% es.EZ (V/m) @ t=1
1.3587725009274685
% es.tEX (V/m) @ t=1
1.3373129910852697
% es.tEY (V/m) @ t=1
0
% es.tEZ (V/m) @ t=1
1.3587725009274436
% es.Ex (V/m) @ t=1
1.3373129910852413
% es.Ey (V/m) @ t=1
0.3798154210198419
% es.Ez (V/m) @ t=1
1.3587725009274685
% es.tEx (V/m) @ t=1
1.3373129910852697
% es.tEy (V/m) @ t=1
0
% es.tEz (V/m) @ t=1
1.3587725009274436
% V (V) @ t=1
0.018468448363513912
% es.normE (V/m) @ t=1.02
1.9865201637382373
% es.EX (V/m) @ t=1.02
1.3488713400064114
% es.EY (V/m) @ t=1.02
0.38309818534881046
% es.EZ (V/m) @ t=1.02
1.3705162993380817
% es.tEX (V/m) @ t=1.02
1.348871340006383
% es.tEY (V/m) @ t=1.02
0
% es.tEZ (V/m) @ t=1.02
1.3705162993380213
% es.Ex (V/m) @ t=1.02
1.3488713400064114
% es.Ey (V/m) @ t=1.02
0.38309818534881046
% es.Ez (V/m) @ t=1.02
1.3705162993380817
% es.tEx (V/m) @ t=1.02
1.348871340006383
% es.tEy (V/m) @ t=1.02
0
% es.tEz (V/m) @ t=1.02
1.3705162993380213
% V (V) @ t=1.02
0.01862806743032694
% es.normE (V/m) @ t=1.04
2.0041822909533202
% es.EX (V/m) @ t=1.04
1.3608641401506887
% es.EY (V/m) @ t=1.04
0.3865043203562166
% es.EZ (V/m) @ t=1.04
1.382701534989348
% es.tEX (V/m) @ t=1.04
1.3608641401506532
% es.tEY (V/m) @ t=1.04
0
% es.tEZ (V/m) @ t=1.04
1.3827015349893088
% es.Ex (V/m) @ t=1.04
1.3608641401506887
% es.Ey (V/m) @ t=1.04
0.3865043203562166
% es.Ez (V/m) @ t=1.04
1.382701534989348
% es.tEx (V/m) @ t=1.04
1.3608641401506532
% es.tEy (V/m) @ t=1.04
0
% es.tEz (V/m) @ t=1.04