% Model:              1 neuron.mph
% Version:            COMSOL 6.1.0.252
% Date:               Mar 22 2023, 18:04
% Dimension:          0
% Nodes:              14017
% Expressions:        14017
% Description:        Electric field norm, Electric field, X component, Electric field, Y component, Electric field, Z component, Tangential electric field, X component, Tangential electric field, Y component, Tangential electric field, Z component, Electric field, x component, Electric field, y component, Electric field, z component, Tangential electric field, x component, Tangential electric field, y component, Tangential electric field, z component, Electric potential
% Length unit:        mm
% x
1.33
% y
12.2
% z
2
% es.normE (V/m) @ t=0
2.665200234597628
% es.EX (V/m) @ t=0
1.062184039721679
% es.EY (V/m) @ t=0
0.280821989561165
% es.EZ (V/m) @ t=0
-2.4260530698709957
% es.tEX (V/m) @ t=0
1.0621840397216795
% es.tEY (V/m) @ t=0
0
% es.tEZ (V/m) @ t=0
-2.4260530698710028
% es.Ex (V/m) @ t=0
1.062184039721679
% es.Ey (V/m) @ t=0
0.280821989561165
% es.Ez (V/m) @ t=0
-2.4260530698709957
% es.tEx (V/m) @ t=0
1.0621840397216795
% es.tEy (V/m) @ t=0
0
% es.tEz (V/m) @ t=0
-2.4260530698710028
% V (V) @ t=0
0.01332624009908489
% es.normE (V/m) @ t=0.02
2.3019566702094227
% es.EX (V/m) @ t=0.02
0.9174176126260394
% es.EY (V/m) @ t=0.02
0.24254840106743902
% es.EZ (V/m) @ t=0.02
-2.095403179545534
% es.tEX (V/m) @ t=0.02
0.9174176126260396
% es.tEY (V/m) @ t=0.02
0
% es.tEZ (V/m) @ t=0.02
-2.0954031795455474
% es.Ex (V/m) @ t=0.02
0.9174176126260394
% es.Ey (V/m) @ t=0.02
0.24254840106743902
% es.Ez (V/m) @ t=0.02
-2.095403179545534
% es.tEx (V/m) @ t=0.02
0.9174176126260396
% es.tEy (V/m) @ t=0.02
0
% es.tEz (V/m) @ t=0.02
-2.0954031795455474
% V (V) @ t=0.02
0.011509989659417703
% es.normE (V/m) @ t=0.04
2.3231292376005563
% es.EX (V/m) @ t=0.04
0.9258556899837653
% es.EY (V/m) @ t=0.04
0.2447792766356338
% es.EZ (V/m) @ t=0.04
-2.1146759417716368
% es.tEX (V/m) @ t=0.04
0.9258556899837656
% es.tEY (V/m) @ t=0.04
0
% es.tEZ (V/m) @ t=0.04
-2.114675941771633
% es.Ex (V/m) @ t=0.04
0.9258556899837653
% es.Ey (V/m) @ t=0.04
0.2447792766356338
% es.Ez (V/m) @ t=0.04
-2.1146759417716368
% es.tEx (V/m) @ t=0.04
0.9258556899837656
% es.tEy (V/m) @ t=0.04
0
% es.tEz (V/m) @ t=0.04
-2.114675941771633
% V (V) @ t=0.04
0.011615854274472072
% es.normE (V/m) @ t=0.06
2.344453219236774
% es.EX (V/m) @ t=0.06
0.934354110170077
% es.EY (V/m) @ t=0.06
0.2470261016652353
% es.EZ (V/m) @ t=0.06
-2.1340865329228516
% es.tEX (V/m) @ t=0.06
0.9343541101700774
% es.tEY (V/m) @ t=0.06
0
% es.tEZ (V/m) @ t=0.06
-2.134086532922847
% es.Ex (V/m) @ t=0.06
0.934354110170077
% es.Ey (V/m) @ t=0.06
0.2470261016652353
% es.Ez (V/m) @ t=0.06
-2.1340865329228516
% es.tEx (V/m) @ t=0.06
0.9343541101700774
% es.tEy (V/m) @ t=0.06
0
% es.tEz (V/m) @ t=0.06
-2.134086532922847
% V (V) @ t=0.06
0.011722476163609934
% es.normE (V/m) @ t=0.08
2.3661922844186174
% es.EX (V/m) @ t=0.08
0.943017957474402
% es.EY (V/m) @ t=0.08
0.2493166638628077
% es.EZ (V/m) @ t=0.08
-2.1538749620525444
% es.tEX (V/m) @ t=0.08
0.9430179574743986
% es.tEY (V/m) @ t=0.08
0
% es.tEZ (V/m) @ t=0.08
-2.153874962052548
% es.Ex (V/m) @ t=0.08
0.943017957474402
% es.Ey (V/m) @ t=0.08
0.2493166638628077
% es.Ez (V/m) @ t=0.08
-2.1538749620525444
% es.tEx (V/m) @ t=0.08
0.9430179574743986
% es.tEy (V/m) @ t=0.08
0
% es.tEz (V/m) @ t=0.08
-2.153874962052548
% V (V) @ t=0.08
0.011831173449111653
% es.normE (V/m) @ t=0.1
2.3880329172286854
% es.EX (V/m) @ t=0.1
0.9517222834731927
% es.EY (V/m) @ t=0.1
0.25161792819603157
% es.EZ (V/m) @ t=0.1
-2.1737558451176735
% es.tEX (V/m) @ t=0.1
0.9517222834731931
% es.tEY (V/m) @ t=0.1
0
% es.tEZ (V/m) @ t=0.1
-2.173755845117677
% es.Ex (V/m) @ t=0.1
0.9517222834731927
% es.Ey (V/m) @ t=0.1
0.25161792819603157
% es.Ez (V/m) @ t=0.1
-2.1737558451176735
% es.tEx (V/m) @ t=0.1
0.9517222834731931
% es.tEy (V/m) @ t=0.1
0
% es.tEz (V/m) @ t=0.1
-2.173755845117677
% V (V) @ t=0.1
0.0119403785675269
% es.normE (V/m) @ t=0.12
2.4098735500387534
% es.EX (V/m) @ t=0.12
0.9604266094719729
% es.EY (V/m) @ t=0.12
0.2539191925292874
% es.EZ (V/m) @ t=0.12
-2.1936367281828026
% es.tEX (V/m) @ t=0.12
0.9604266094719733
% es.tEY (V/m) @ t=0.12
0
% es.tEZ (V/m) @ t=0.12
-2.1936367281828133
% es.Ex (V/m) @ t=0.12
0.9604266094719729
% es.Ey (V/m) @ t=0.12
0.2539191925292874
% es.Ez (V/m) @ t=0.12
-2.1936367281828026
% es.tEx (V/m) @ t=0.12
0.9604266094719733
% es.tEy (V/m) @ t=0.12
0
% es.tEz (V/m) @ t=0.12
-2.1936367281828133
% V (V) @ t=0.12
0.012049583685942146
% es.normE (V/m) @ t=0.14
2.432381915216602
% es.EX (V/m) @ t=0.14
0.9693970541371102
% es.EY (V/m) @ t=0.14
0.2562908185780506
% es.EZ (V/m) @ t=0.14
-2.2141254271024984
% es.tEX (V/m) @ t=0.14
0.9693970541371106
% es.tEY (V/m) @ t=0.14
0
% es.tEZ (V/m) @ t=0.14
-2.2141254271024984
% es.Ex (V/m) @ t=0.14
0.9693970541371102
% es.Ey (V/m) @ t=0.14
0.2562908185780506
% es.Ez (V/m) @ t=0.14
-2.2141254271024984
% es.tEx (V/m) @ t=0.14
0.9693970541371106
% es.tEy (V/m) @ t=0.14
0
% es.tEz (V/m) @ t=0.14
-2.2141254271024984
% V (V) @ t=0.14
0.012162127308583586
% es.normE (V/m) @ t=0.16
2.45531173751274
% es.EX (V/m) @ t=0.16
0.9785354667062225
% es.EY (V/m) @ t=0.16
0.25870685530283044
% es.EZ (V/m) @ t=0.16
-2.2349977652328743
% es.tEX (V/m) @ t=0.16
0.9785354667062229
% es.tEY (V/m) @ t=0.16
0
% es.tEZ (V/m) @ t=0.16
-2.2349977652328796
% es.Ex (V/m) @ t=0.16
0.9785354667062225
% es.Ey (V/m) @ t=0.16
0.25870685530283044
% es.Ez (V/m) @ t=0.16
-2.2349977652328743
% es.tEx (V/m) @ t=0.16
0.9785354667062229
% es.tEy (V/m) @ t=0.16
0
% es.tEz (V/m) @ t=0.16
-2.2349977652328796
% V (V) @ t=0.16
0.012276778117335015
% es.normE (V/m) @ t=0.18
2.4782415598088696
% es.EX (V/m) @ t=0.18
0.9876738792753215
% es.EY (V/m) @ t=0.18
0.26112289202760763
% es.EZ (V/m) @ t=0.18
-2.2558701033632484
% es.tEX (V/m) @ t=0.18
0.9876738792753219
% es.tEY (V/m) @ t=0.18
0
% es.tEZ (V/m) @ t=0.18
-2.2558701033632573
% es.Ex (V/m) @ t=0.18
0.9876738792753215
% es.Ey (V/m) @ t=0.18
0.26112289202760763
% es.Ez (V/m) @ t=0.18
-2.2558701033632484
% es.tEx (V/m) @ t=0.18
0.9876738792753219
% es.tEy (V/m) @ t=0.18
0
% es.tEz (V/m) @ t=0.18
-2.2558701033632573
% V (V) @ t=0.18
0.012391428926086447
% es.normE (V/m) @ t=0.2
2.501171382105011
% es.EX (V/m) @ t=0.2
0.9968122918444329
% es.EY (V/m) @ t=0.2
0.2635389287524106
% es.EZ (V/m) @ t=0.2
-2.276742441493628
% es.tEX (V/m) @ t=0.2
0.9968122918444262
% es.tEY (V/m) @ t=0.2
0
% es.tEZ (V/m) @ t=0.2
-2.2767424414936315
% es.Ex (V/m) @ t=0.2
0.9968122918444329
% es.Ey (V/m) @ t=0.2
0.2635389287524106
% es.Ez (V/m) @ t=0.2
-2.276742441493628
% es.tEx (V/m) @ t=0.2
0.9968122918444262
% es.tEy (V/m) @ t=0.2
0
% es.tEz (V/m) @ t=0.2
-2.2767424414936315
% V (V) @ t=0.2
0.012506079734837878
% es.normE (V/m) @ t=0.22
2.524101204401128
% es.EX (V/m) @ t=0.22
1.0059507044135318
% es.EY (V/m) @ t=0.22
0.265954965477186
% es.EZ (V/m) @ t=0.22
-2.297614779623988
% es.tEX (V/m) @ t=0.22
1.0059507044135323
% es.tEY (V/m) @ t=0.22
0
% es.tEZ (V/m) @ t=0.22
-2.297614779623995
% es.Ex (V/m) @ t=0.22
1.0059507044135318
% es.Ey (V/m) @ t=0.22
0.265954965477186
% es.Ez (V/m) @ t=0.22
-2.297614779623988
% es.tEx (V/m) @ t=0.22
1.0059507044135323
% es.tEy (V/m) @ t=0.22
0
% es.tEz (V/m) @ t=0.22
-2.297614779623995
% V (V) @ t=0.22
0.012620730543589307
% es.normE (V/m) @ t=0.24
2.5470310266972698
% es.EX (V/m) @ t=0.24
1.015089116982637
% es.EY (V/m) @ t=0.24
0.2683710022019783
% es.EZ (V/m) @ t=0.24
-2.318487117754371
% es.tEX (V/m) @ t=0.24
1.0150891169826375
% es.tEY (V/m) @ t=0.24
0
% es.tEZ (V/m) @ t=0.24
-2.3184871177543727
% es.Ex (V/m) @ t=0.24
1.015089116982637
% es.Ey (V/m) @ t=0.24
0.2683710022019783
% es.Ez (V/m) @ t=0.24
-2.318487117754371
% es.tEx (V/m) @ t=0.24
1.0150891169826375
% es.tEy (V/m) @ t=0.24
0
% es.tEz (V/m) @ t=0.24
-2.3184871177543727
% V (V) @ t=0.24
0.012735381352340739
% es.normE (V/m) @ t=0.26
2.5705258230033134
% es.EX (V/m) @ t=0.26
1.0244526725414729
% es.EY (V/m) @ t=0.26
0.27084650844395153
% es.EZ (V/m) @ t=0.26
-2.339873748640221
% es.tEX (V/m) @ t=0.26
1.0244526725414733
% es.tEY (V/m) @ t=0.26
0
% es.tEZ (V/m) @ t=0.26
-2.3398737486402226
% es.Ex (V/m) @ t=0.26
1.0244526725414729
% es.Ey (V/m) @ t=0.26
0.27084650844395153
% es.Ez (V/m) @ t=0.26
-2.339873748640221
% es.tEx (V/m) @ t=0.26
1.0244526725414733
% es.tEy (V/m) @ t=0.26
0
% es.tEz (V/m) @ t=0.26
-2.3398737486402226
% V (V) @ t=0.26
0.012852859533325548
% es.normE (V/m) @ t=0.28
2.5958873155498785
% es.EX (V/m) @ t=0.28
1.0345601093499934
% es.EY (V/m) @ t=0.28
0.2735185042981856
% es.EZ (V/m) @ t=0.28
-2.36295962291835
% es.tEX (V/m) @ t=0.28
1.0345601093499939
% es.tEY (V/m) @ t=0.28
0
% es.tEZ (V/m) @ t=0.28
-2.3629596229183605
% es.Ex (V/m) @ t=0.28
1.0345601093499934
% es.Ey (V/m) @ t=0.28
0.2735185042981856
% es.Ez (V/m) @ t=0.28
-2.36295962291835
% es.tEx (V/m) @ t=0.28
1.0345601093499939
% es.tEy (V/m) @ t=0.28
0
% es.tEz (V/m) @ t=0.28
-2.3629596229183605
% V (V) @ t=0.28
0.012979679462826032
% es.normE (V/m) @ t=0.3
2.621248808096505
% es.EX (V/m) @ t=0.3
1.0446675461585149
% es.EY (V/m) @ t=0.3
0.27619050015236635
% es.EZ (V/m) @ t=0.3
-2.3860454971964984
% es.tEX (V/m) @ t=0.3
1.0446675461585153
% es.tEY (V/m) @ t=0.3
0
% es.tEZ (V/m) @ t=0.3
-2.386045497196502
% es.Ex (V/m) @ t=0.3
1.0446675461585149
% es.Ey (V/m) @ t=0.3
0.27619050015236635
% es.Ez (V/m) @ t=0.3
-2.3860454971964984
% es.tEx (V/m) @ t=0.3
1.0446675461585153
% es.tEy (V/m) @ t=0.3
0
% es.tEz (V/m) @ t=0.3
-2.386045497196502
% V (V) @ t=0.3
0.01310649939232651
% es.normE (V/m) @ t=0.32
2.646610300643152
% es.EX (V/m) @ t=0.32
1.0547749829670088
% es.EY (V/m) @ t=0.32
0.27886249600657376
% es.EZ (V/m) @ t=0.32
-2.4091313714746274
% es.tEX (V/m) @ t=0.32
1.0547749829670092
% es.tEY (V/m) @ t=0.32
0
% es.tEZ (V/m) @ t=0.32
-2.4091313714746327
% es.Ex (V/m) @ t=0.32
1.0547749829670088
% es.Ey (V/m) @ t=0.32
0.27886249600657376
% es.Ez (V/m) @ t=0.32
-2.4091313714746274
% es.tEx (V/m) @ t=0.32
1.0547749829670092
% es.tEy (V/m) @ t=0.32
0
% es.tEz (V/m) @ t=0.32
-2.4091313714746327
% V (V) @ t=0.32
0.013233319321826992
% es.normE (V/m) @ t=0.34
2.6719717931898486
% es.EX (V/m) @ t=0.34
1.064882419775516
% es.EY (V/m) @ t=0.34
0.28153449186078205
% es.EZ (V/m) @ t=0.34
-2.4322172457527547
% es.tEX (V/m) @ t=0.34
1.0648824197755165
% es.tEY (V/m) @ t=0.34
0
% es.tEZ (V/m) @ t=0.34
-2.432217245752767
% es.Ex (V/m) @ t=0.34
1.064882419775516
% es.Ey (V/m) @ t=0.34
0.28153449186078205
% es.Ez (V/m) @ t=0.34
-2.4322172457527547
% es.tEx (V/m) @ t=0.34
1.0648824197755165
% es.tEy (V/m) @ t=0.34
0
% es.tEz (V/m) @ t=0.34
-2.432217245752767
% V (V) @ t=0.34
0.013360139251327471
% es.normE (V/m) @ t=0.36
2.6973332857365966
% es.EX (V/m) @ t=0.36
1.0749898565840028
% es.EY (V/m) @ t=0.36
0.2842064877150108
% es.EZ (V/m) @ t=0.36
-2.455303120030896
% es.tEX (V/m) @ t=0.36
1.0749898565839962
% es.tEY (V/m) @ t=0.36
0
% es.tEZ (V/m) @ t=0.36
-2.455303120030898
% es.Ex (V/m) @ t=0.36
1.0749898565840028
% es.Ey (V/m) @ t=0.36
0.2842064877150108
% es.Ez (V/m) @ t=0.36
-2.455303120030896
% es.tEx (V/m) @ t=0.36
1.0749898565839962
% es.tEy (V/m) @ t=0.36
0
% es.tEz (V/m) @ t=0.36
-2.455303120030898
% V (V) @ t=0.36
0.013486959180827951
% es.normE (V/m) @ t=0.38
2.722694778283394
% es.EX (V/m) @ t=0.38
1.0850972933925171
% es.EY (V/m) @ t=0.38
0.2868784835692404
% es.EZ (V/m) @ t=0.38
-2.478388994309034
% es.tEX (V/m) @ t=0.38
1.0850972933925176
% es.tEY (V/m) @ t=0.38
0
% es.tEZ (V/m) @ t=0.38
-2.4783889943090394
% es.Ex (V/m) @ t=0.38
1.0850972933925171
% es.Ey (V/m) @ t=0.38
0.2868784835692404
% es.Ez (V/m) @ t=0.38
-2.478388994309034
% es.tEx (V/m) @ t=0.38
1.0850972933925176
% es.tEy (V/m) @ t=0.38
0
% es.tEz (V/m) @ t=0.38
-2.4783889943090394
% V (V) @ t=0.38
0.013613779110328433
% es.normE (V/m) @ t=0.4
2.7480562708302236
% es.EX (V/m) @ t=0.4
1.0952047302010244
% es.EY (V/m) @ t=0.4
0.2895504794234407
% es.EZ (V/m) @ t=0.4
-2.5014748685871666
% es.tEX (V/m) @ t=0.4
1.0952047302010248
% es.tEY (V/m) @ t=0.4
0
% es.tEZ (V/m) @ t=0.4
-2.5014748685871666
% es.Ex (V/m) @ t=0.4
1.0952047302010244
% es.Ey (V/m) @ t=0.4
0.2895504794234407
% es.Ez (V/m) @ t=0.4
-2.5014748685871666
% es.tEx (V/m) @ t=0.4
1.0952047302010248
% es.tEy (V/m) @ t=0.4
0
% es.tEz (V/m) @ t=0.4
-2.5014748685871666
% V (V) @ t=0.4
0.013740599039828914
% es.normE (V/m) @ t=0.42
2.773417763377102
% es.EX (V/m) @ t=0.42
1.1053121670095387
% es.EY (V/m) @ t=0.42
0.2922224752776641
% es.EZ (V/m) @ t=0.42
-2.5245607428653027
% es.tEX (V/m) @ t=0.42
1.105312167009532
% es.tEY (V/m) @ t=0.42
0
% es.tEZ (V/m) @ t=0.42
-2.524560742865308
% es.Ex (V/m) @ t=0.42
1.1053121670095387
% es.Ey (V/m) @ t=0.42
0.2922224752776641
% es.Ez (V/m) @ t=0.42
-2.5245607428653027
% es.tEx (V/m) @ t=0.42
1.105312167009532
% es.tEy (V/m) @ t=0.42
0
% es.tEz (V/m) @ t=0.42
-2.524560742865308
% V (V) @ t=0.42
0.013867418969329396
% es.normE (V/m) @ t=0.44
2.798779255924017
% es.EX (V/m) @ t=0.44
1.115419603818046
% es.EY (V/m) @ t=0.44
0.29489447113188927
% es.EZ (V/m) @ t=0.44
-2.547646617143439
% es.tEX (V/m) @ t=0.44
1.1154196038180393
% es.tEY (V/m) @ t=0.44
0
% es.tEZ (V/m) @ t=0.44
-2.5476466171434495
% es.Ex (V/m) @ t=0.44
1.115419603818046
% es.Ey (V/m) @ t=0.44
0.29489447113188927
% es.Ez (V/m) @ t=0.44
-2.547646617143439
% es.tEx (V/m) @ t=0.44
1.1154196038180393
% es.tEy (V/m) @ t=0.44
0
% es.tEz (V/m) @ t=0.44
-2.5476466171434495
% V (V) @ t=0.44
0.013994238898829876
% es.normE (V/m) @ t=0.46
2.824140748470952
% es.EX (V/m) @ t=0.46
1.125527040626546
% es.EY (V/m) @ t=0.46
0.29756646698608336
% es.EZ (V/m) @ t=0.46
-2.5707324914215626
% es.tEX (V/m) @ t=0.46
1.1255270406265465
% es.tEY (V/m) @ t=0.46
0
% es.tEZ (V/m) @ t=0.46
-2.5707324914215697
% es.Ex (V/m) @ t=0.46
1.125527040626546
% es.Ey (V/m) @ t=0.46
0.29756646698608336
% es.Ez (V/m) @ t=0.46
-2.5707324914215626
% es.tEx (V/m) @ t=0.46
1.1255270406265465
% es.tEy (V/m) @ t=0.46
0
% es.tEz (V/m) @ t=0.46
-2.5707324914215697
% V (V) @ t=0.46
0.014121058828330358
% es.normE (V/m) @ t=0.48
2.849502241017954
% es.EX (V/m) @ t=0.48
1.1356344774350684
% es.EY (V/m) @ t=0.48
0.30023846284028366
% es.EZ (V/m) @ t=0.48
-2.593818365699706
% es.tEX (V/m) @ t=0.48
1.1356344774350688
% es.tEY (V/m) @ t=0.48
0
% es.tEZ (V/m) @ t=0.48
-2.5938183656997076
% es.Ex (V/m) @ t=0.48
1.1356344774350684
% es.Ey (V/m) @ t=0.48
0.30023846284028366
% es.Ez (V/m) @ t=0.48
-2.593818365699706
% es.tEx (V/m) @ t=0.48
1.1356344774350688
% es.tEy (V/m) @ t=0.48
0
% es.tEz (V/m) @ t=0.48
-2.5938183656997076
% V (V) @ t=0.48
0.014247878757830842
% es.normE (V/m) @ t=0.5
2.874863733564977
% es.EX (V/m) @ t=0.5
1.1457419142435756
% es.EY (V/m) @ t=0.5
0.3029104586945195
% es.EZ (V/m) @ t=0.5
-2.6169042399778366
% es.tEX (V/m) @ t=0.5
1.145741914243576
% es.tEY (V/m) @ t=0.5
0
% es.tEZ (V/m) @ t=0.5
-2.616904239977842
% es.Ex (V/m) @ t=0.5
1.1457419142435756
% es.Ey (V/m) @ t=0.5
0.3029104586945195
% es.Ez (V/m) @ t=0.5
-2.6169042399778366
% es.tEx (V/m) @ t=0.5
1.145741914243576
% es.tEy (V/m) @ t=0.5
0
% es.tEz (V/m) @ t=0.5
-2.616904239977842
% V (V) @ t=0.5
0.014374698687331322
% es.normE (V/m) @ t=0.52
2.901511946809863
% es.EX (V/m) @ t=0.52
1.156362153683729
% es.EY (V/m) @ t=0.52
0.3057180179177701
% es.EZ (V/m) @ t=0.52
-2.641161381183027
% es.tEX (V/m) @ t=0.52
1.1563621536837223
% es.tEY (V/m) @ t=0.52
0
% es.tEZ (V/m) @ t=0.52
-2.6411613811830428
% es.Ex (V/m) @ t=0.52
1.156362153683729
% es.Ey (V/m) @ t=0.52
0.3057180179177701
% es.Ez (V/m) @ t=0.52
-2.641161381183027
% es.tEx (V/m) @ t=0.52
1.1563621536837223
% es.tEy (V/m) @ t=0.52
0
% es.tEz (V/m) @ t=0.52
-2.6411613811830428
% V (V) @ t=0.52
0.01450795288191085
% es.normE (V/m) @ t=0.54
2.9296058470060005
% es.EX (V/m) @ t=0.54
1.1675585492969973
% es.EY (V/m) @ t=0.54
0.30867788851209266
% es.EZ (V/m) @ t=0.54
-2.666734491981062
% es.tEX (V/m) @ t=0.54
1.1675585492969978
% es.tEY (V/m) @ t=0.54
0
% es.tEZ (V/m) @ t=0.54
-2.6667344919810674
% es.Ex (V/m) @ t=0.54
1.1675585492969973
% es.Ey (V/m) @ t=0.54
0.30867788851209266
% es.Ez (V/m) @ t=0.54
-2.666734491981062
% es.tEx (V/m) @ t=0.54
1.1675585492969978
% es.tEy (V/m) @ t=0.54
0
% es.tEz (V/m) @ t=0.54
-2.6667344919810674
% V (V) @ t=0.54
0.014648436254571628
% es.normE (V/m) @ t=0.56
2.9576997472021644
% es.EX (V/m) @ t=0.56
1.1787549449102444
% es.EY (V/m) @ t=0.56
0.3116377591064259
% es.EZ (V/m) @ t=0.56
-2.69230760277909
% es.tEX (V/m) @ t=0.56
1.1787549449102448
% es.tEY (V/m) @ t=0.56
0
% es.tEZ (V/m) @ t=0.56
-2.692307602779092
% es.Ex (V/m) @ t=0.56
1.1787549449102444
% es.Ey (V/m) @ t=0.56
0.3116377591064259
% es.Ez (V/m) @ t=0.56
-2.69230760277909
% es.tEx (V/m) @ t=0.56
1.1787549449102448
% es.tEy (V/m) @ t=0.56
0
% es.tEz (V/m) @ t=0.56
-2.692307602779092
% V (V) @ t=0.56
0.014788919627232413
% es.normE (V/m) @ t=0.58
2.9857936473983826
% es.EX (V/m) @ t=0.58
1.189951340523519
% es.EY (V/m) @ t=0.58
0.3145976297007502
% es.EZ (V/m) @ t=0.58
-2.717880713577122
% es.tEX (V/m) @ t=0.58
1.1899513405235194
% es.tEY (V/m) @ t=0.58
0
% es.tEZ (V/m) @ t=0.58
-2.7178807135771272
% es.Ex (V/m) @ t=0.58
1.189951340523519
% es.Ey (V/m) @ t=0.58
0.3145976297007502
% es.Ez (V/m) @ t=0.58
-2.717880713577122
% es.tEx (V/m) @ t=0.58
1.1899513405235194
% es.tEy (V/m) @ t=0.58
0
% es.tEz (V/m) @ t=0.58
-2.7178807135771272
% V (V) @ t=0.58
0.014929402999893197
% es.normE (V/m) @ t=0.6
3.0138875475946456
% es.EX (V/m) @ t=0.6
1.2011477361367944
% es.EY (V/m) @ t=0.6
0.317557500295063
% es.EZ (V/m) @ t=0.6
-2.7434538243751607
% es.tEX (V/m) @ t=0.6
1.2011477361367948
% es.tEY (V/m) @ t=0.6
0
% es.tEZ (V/m) @ t=0.6
-2.743453824375173
% es.Ex (V/m) @ t=0.6
1.2011477361367944
% es.Ey (V/m) @ t=0.6
0.317557500295063
% es.Ez (V/m) @ t=0.6
-2.7434538243751607
% es.tEx (V/m) @ t=0.6
1.2011477361367948
% es.tEy (V/m) @ t=0.6
0
% es.tEz (V/m) @ t=0.6
-2.743453824375173
% V (V) @ t=0.6
0.01506988637255398
% es.normE (V/m) @ t=0.62
3.041981447790937
% es.EX (V/m) @ t=0.62
1.2123441317500556
% es.EY (V/m) @ t=0.62
0.3205173708893927
% es.EZ (V/m) @ t=0.62
-2.7690269351731924
% es.tEX (V/m) @ t=0.62
1.212344131750056
% es.tEY (V/m) @ t=0.62
0
% es.tEZ (V/m) @ t=0.62
-2.769026935173194
% es.Ex (V/m) @ t=0.62
1.2123441317500556
% es.Ey (V/m) @ t=0.62
0.3205173708893927
% es.Ez (V/m) @ t=0.62
-2.7690269351731924
% es.tEx (V/m) @ t=0.62
1.212344131750056
% es.tEy (V/m) @ t=0.62
0
% es.tEz (V/m) @ t=0.62
-2.769026935173194
% V (V) @ t=0.62
0.015210369745214765
% es.normE (V/m) @ t=0.64
3.0700753479872835
% es.EX (V/m) @ t=0.64
1.2235405273633249
% es.EY (V/m) @ t=0.64
0.3234772414837366
% es.EZ (V/m) @ t=0.64
-2.7946000459712383
% es.tEX (V/m) @ t=0.64
1.2235405273633182
% es.tEY (V/m) @ t=0.64
0
% es.tEZ (V/m) @ t=0.64
-2.7946000459712437
% es.Ex (V/m) @ t=0.64
1.2235405273633249
% es.Ey (V/m) @ t=0.64
0.3234772414837366
% es.Ez (V/m) @ t=0.64
-2.7946000459712383
% es.tEx (V/m) @ t=0.64
1.2235405273633182
% es.tEy (V/m) @ t=0.64
0
% es.tEz (V/m) @ t=0.64
-2.7946000459712437
% V (V) @ t=0.64
0.015350853117875547
% es.normE (V/m) @ t=0.66
3.0981692481836354
% es.EX (V/m) @ t=0.66
1.234736922976578
% es.EY (V/m) @ t=0.66
0.3264371120780636
% es.EZ (V/m) @ t=0.66
-2.8201731567692594
% es.tEX (V/m) @ t=0.66
1.2347369229765786
% es.tEY (V/m) @ t=0.66
0
% es.tEZ (V/m) @ t=0.66
-2.8201731567692647
% es.Ex (V/m) @ t=0.66
1.234736922976578
% es.Ey (V/m) @ t=0.66
0.3264371120780636
% es.Ez (V/m) @ t=0.66
-2.8201731567692594
% es.tEx (V/m) @ t=0.66
1.2347369229765786
% es.tEy (V/m) @ t=0.66
0
% es.tEz (V/m) @ t=0.66
-2.8201731567692647
% V (V) @ t=0.66
0.015491336490536328
% es.normE (V/m) @ t=0.68
3.1262631483800383
% es.EX (V/m) @ t=0.68
1.2459333185898473
% es.EY (V/m) @ t=0.68
0.32939698267238526
% es.EZ (V/m) @ t=0.68
-2.845746267567291
% es.tEX (V/m) @ t=0.68
1.2459333185898407
% es.tEY (V/m) @ t=0.68
0
% es.tEZ (V/m) @ t=0.68
-2.845746267567307
% es.Ex (V/m) @ t=0.68
1.2459333185898473
% es.Ey (V/m) @ t=0.68
0.32939698267238526
% es.Ez (V/m) @ t=0.68
-2.845746267567291
% es.tEx (V/m) @ t=0.68
1.2459333185898407
% es.tEy (V/m) @ t=0.68
0
% es.tEz (V/m) @ t=0.68
-2.845746267567307
% V (V) @ t=0.68
0.015631819863197113
% es.normE (V/m) @ t=0.7
3.1543570485764776
% es.EX (V/m) @ t=0.7
1.2571297142031006
% es.EY (V/m) @ t=0.7
0.3323568532667309
% es.EZ (V/m) @ t=0.7
-2.87131937836533
% es.tEX (V/m) @ t=0.7
1.257129714203101
% es.tEY (V/m) @ t=0.7
0
% es.tEZ (V/m) @ t=0.7
-2.8713193783653352
% es.Ex (V/m) @ t=0.7
1.2571297142031006
% es.Ey (V/m) @ t=0.7
0.3323568532667309
% es.Ez (V/m) @ t=0.7
-2.87131937836533
% es.tEx (V/m) @ t=0.7
1.257129714203101
% es.tEy (V/m) @ t=0.7
0
% es.tEz (V/m) @ t=0.7
-2.8713193783653352
% V (V) @ t=0.7
0.015772303235857897
% es.normE (V/m) @ t=0.72
3.182450948772944
% es.EX (V/m) @ t=0.72
1.268326109816377
% es.EY (V/m) @ t=0.72
0.3353167238610526
% es.EZ (V/m) @ t=0.72
-2.8968924891633545
% es.tEX (V/m) @ t=0.72
1.2683261098163774
% es.tEY (V/m) @ t=0.72
0
% es.tEZ (V/m) @ t=0.72
-2.896892489163367
% es.Ex (V/m) @ t=0.72
1.268326109816377
% es.Ey (V/m) @ t=0.72
0.3353167238610526
% es.Ez (V/m) @ t=0.72
-2.8968924891633545
% es.tEx (V/m) @ t=0.72
1.2683261098163774
% es.tEy (V/m) @ t=0.72
0
% es.tEz (V/m) @ t=0.72
-2.896892489163367
% V (V) @ t=0.72
0.015912786608518678
% es.normE (V/m) @ t=0.74
3.2105448489694517
% es.EX (V/m) @ t=0.74
1.2795225054296506
% es.EY (V/m) @ t=0.74
0.3382765944553672
% es.EZ (V/m) @ t=0.74
-2.9224655999613898
% es.tEX (V/m) @ t=0.74
1.279522505429651
% es.tEY (V/m) @ t=0.74
0
% es.tEZ (V/m) @ t=0.74
-2.9224655999613987
% es.Ex (V/m) @ t=0.74
1.2795225054296506
% es.Ey (V/m) @ t=0.74
0.3382765944553672
% es.Ez (V/m) @ t=0.74
-2.9224655999613898
% es.tEx (V/m) @ t=0.74
1.279522505429651
% es.tEy (V/m) @ t=0.74
0
% es.tEz (V/m) @ t=0.74
-2.9224655999613987
% V (V) @ t=0.74
0.016053269981179463
% es.normE (V/m) @ t=0.76
3.2386387491659945
% es.EX (V/m) @ t=0.76
1.2907189010429265
% es.EY (V/m) @ t=0.76
0.3412364650496791
% es.EZ (V/m) @ t=0.76
-2.9480387107594286
% es.tEX (V/m) @ t=0.76
1.2907189010429274
% es.tEY (V/m) @ t=0.76
0
% es.tEZ (V/m) @ t=0.76
-2.948038710759434
% es.Ex (V/m) @ t=0.76
1.2907189010429265
% es.Ey (V/m) @ t=0.76
0.3412364650496791
% es.Ez (V/m) @ t=0.76
-2.9480387107594286
% es.tEx (V/m) @ t=0.76
1.2907189010429274
% es.tEy (V/m) @ t=0.76
0
% es.tEz (V/m) @ t=0.76
-2.948038710759434
% V (V) @ t=0.76
0.016193753353840247
% es.normE (V/m) @ t=0.78
3.2689150959878006
% es.EX (V/m) @ t=0.78
1.3027851000844657
% es.EY (V/m) @ t=0.78
0.34442633525136834
% es.EZ (V/m) @ t=0.78
-2.9755984283463786
% es.tEX (V/m) @ t=0.78
1.3027851000844661
% es.tEY (V/m) @ t=0.78
0
% es.tEZ (V/m) @ t=0.78
-2.975598428346391
% es.Ex (V/m) @ t=0.78
1.3027851000844657
% es.Ey (V/m) @ t=0.78
0.34442633525136834
% es.Ez (V/m) @ t=0.78
-2.9755984283463786
% es.tEx (V/m) @ t=0.78
1.3027851000844661
% es.tEy (V/m) @ t=0.78
0
% es.tEz (V/m) @ t=0.78
-2.975598428346391
% V (V) @ t=0.78
0.016345147369517376
% es.normE (V/m) @ t=0.8
3.3000851088593315
% es.EX (V/m) @ t=0.8
1.3152074653592725
% es.EY (V/m) @ t=0.8
0.34771038546100463
% es.EZ (V/m) @ t=0.8
-3.003971619683762
% es.tEX (V/m) @ t=0.8
1.3152074653592658
% es.tEY (V/m) @ t=0.8
0
% es.tEZ (V/m) @ t=0.8
-3.0039716196837674
% es.Ex (V/m) @ t=0.8
1.3152074653592725
% es.Ey (V/m) @ t=0.8
0.34771038546100463
% es.Ez (V/m) @ t=0.8
-3.003971619683762
% es.tEx (V/m) @ t=0.8
1.3152074653592658
% es.tEy (V/m) @ t=0.8
0
% es.tEz (V/m) @ t=0.8
-3.0039716196837674
% V (V) @ t=0.8
0.016501009064326364
% es.normE (V/m) @ t=0.82
3.3312551217308437
% es.EX (V/m) @ t=0.82
1.3276298306340508
% es.EY (V/m) @ t=0.82
0.3509944356706356
% es.EZ (V/m) @ t=0.82
-3.032344811021124
% es.tEX (V/m) @ t=0.82
1.3276298306340513
% es.tEY (V/m) @ t=0.82
0
% es.tEZ (V/m) @ t=0.82
-3.032344811021133
% es.Ex (V/m) @ t=0.82
1.3276298306340508
% es.Ey (V/m) @ t=0.82
0.3509944356706356
% es.Ez (V/m) @ t=0.82
-3.032344811021124
% es.tEx (V/m) @ t=0.82
1.3276298306340513
% es.tEy (V/m) @ t=0.82
0
% es.tEz (V/m) @ t=0.82
-3.032344811021133
% V (V) @ t=0.82
0.01665687075913536
% es.normE (V/m) @ t=0.84
3.362425134602392
% es.EX (V/m) @ t=0.84
1.3400521959088283
% es.EY (V/m) @ t=0.84
0.3542784858802843
% es.EZ (V/m) @ t=0.84
-3.0607180023585077
% es.tEX (V/m) @ t=0.84
1.3400521959088358
% es.tEY (V/m) @ t=0.84
0
% es.tEZ (V/m) @ t=0.84
-3.060718002358513
% es.Ex (V/m) @ t=0.84
1.3400521959088283
% es.Ey (V/m) @ t=0.84
0.3542784858802843
% es.Ez (V/m) @ t=0.84
-3.0607180023585077
% es.tEx (V/m) @ t=0.84
1.3400521959088358
% es.tEy (V/m) @ t=0.84
0
% es.tEz (V/m) @ t=0.84
-3.060718002358513
% V (V) @ t=0.84
0.01681273245394435
% es.normE (V/m) @ t=0.86
3.393595147473947
% es.EX (V/m) @ t=0.86
1.3524745611836217
% es.EY (V/m) @ t=0.86
0.35756253608991706
% es.EZ (V/m) @ t=0.86
-3.0890911936958805
% es.tEX (V/m) @ t=0.86
1.3524745611836222
% es.tEY (V/m) @ t=0.86
0
% es.tEZ (V/m) @ t=0.86
-3.0890911936958965
% es.Ex (V/m) @ t=0.86
1.3524745611836217
% es.Ey (V/m) @ t=0.86
0.35756253608991706
% es.Ez (V/m) @ t=0.86
-3.0890911936958805
% es.tEx (V/m) @ t=0.86
1.3524745611836222
% es.tEy (V/m) @ t=0.86
0
% es.tEz (V/m) @ t=0.86
-3.0890911936958965
% V (V) @ t=0.86
0.01696859414875334
% es.normE (V/m) @ t=0.88
3.424765160345528
% es.EX (V/m) @ t=0.88
1.3648969264584214
% es.EY (V/m) @ t=0.88
0.36084658629955424
% es.EZ (V/m) @ t=0.88
-3.117464385033264
% es.tEX (V/m) @ t=0.88
1.3648969264584219
% es.tEY (V/m) @ t=0.88
0
% es.tEZ (V/m) @ t=0.88
-3.117464385033262
% es.Ex (V/m) @ t=0.88
1.3648969264584214
% es.Ey (V/m) @ t=0.88
0.36084658629955424
% es.Ez (V/m) @ t=0.88
-3.117464385033264
% es.tEx (V/m) @ t=0.88
1.3648969264584219
% es.tEy (V/m) @ t=0.88
0
% es.tEz (V/m) @ t=0.88
-3.117464385033262
% V (V) @ t=0.88
0.017124455843562328
% es.normE (V/m) @ t=0.9
3.4559351732170924
% es.EX (V/m) @ t=0.9
1.3773192917331927
% es.EY (V/m) @ t=0.9
0.3641306365092243
% es.EZ (V/m) @ t=0.9
-3.1458375763706226
% es.tEX (V/m) @ t=0.9
1.3773192917331931
% es.tEY (V/m) @ t=0.9
0
% es.tEZ (V/m) @ t=0.9
-3.145837576370628
% es.Ex (V/m) @ t=0.9
1.3773192917331927
% es.Ey (V/m) @ t=0.9
0.3641306365092243
% es.Ez (V/m) @ t=0.9
-3.1458375763706226
% es.tEx (V/m) @ t=0.9
1.3773192917331931
% es.tEy (V/m) @ t=0.9
0
% es.tEz (V/m) @ t=0.9
-3.145837576370628
% V (V) @ t=0.9
0.01728031753837132
% es.normE (V/m) @ t=0.92
3.487105186088704
% es.EX (V/m) @ t=0.92
1.3897416570079852
% es.EY (V/m) @ t=0.92
0.36741468671881794
% es.EZ (V/m) @ t=0.92
-3.1742107677080202
% es.tEX (V/m) @ t=0.92
1.3897416570079786
% es.tEY (V/m) @ t=0.92
0
% es.tEZ (V/m) @ t=0.92
-3.1742107677080256
% es.Ex (V/m) @ t=0.92
1.3897416570079852
% es.Ey (V/m) @ t=0.92
0.36741468671881794
% es.Ez (V/m) @ t=0.92
-3.1742107677080202
% es.tEx (V/m) @ t=0.92
1.3897416570079786
% es.tEy (V/m) @ t=0.92
0
% es.tEz (V/m) @ t=0.92
-3.1742107677080256
% V (V) @ t=0.92
0.01743617923318031
% es.normE (V/m) @ t=0.94
3.518275198960315
% es.EX (V/m) @ t=0.94
1.402164022282785
% es.EY (V/m) @ t=0.94
0.370698736928488
% es.EZ (V/m) @ t=0.94
-3.202583959045393
% es.tEX (V/m) @ t=0.94
1.4021640222827783
% es.tEY (V/m) @ t=0.94
0
% es.tEZ (V/m) @ t=0.94
-3.2025839590454055
% es.Ex (V/m) @ t=0.94
1.402164022282785
% es.Ey (V/m) @ t=0.94
0.370698736928488
% es.Ez (V/m) @ t=0.94
-3.202583959045393
% es.tEx (V/m) @ t=0.94
1.4021640222827783
% es.tEy (V/m) @ t=0.94
0
% es.tEz (V/m) @ t=0.94
-3.2025839590454055
% V (V) @ t=0.94
0.017592040927989307
% es.normE (V/m) @ t=0.96
3.5494452118319293
% es.EX (V/m) @ t=0.96
1.4145863875575633
% es.EY (V/m) @ t=0.96
0.37398278713811717
% es.EZ (V/m) @ t=0.96
-3.2309571503827694
% es.tEX (V/m) @ t=0.96
1.4145863875575637
% es.tEY (V/m) @ t=0.96
0
% es.tEZ (V/m) @ t=0.96
-3.2309571503827748
% es.Ex (V/m) @ t=0.96
1.4145863875575633
% es.Ey (V/m) @ t=0.96
0.37398278713811717
% es.Ez (V/m) @ t=0.96
-3.2309571503827694
% es.tEx (V/m) @ t=0.96
1.4145863875575637
% es.tEy (V/m) @ t=0.96
0
% es.tEz (V/m) @ t=0.96
-3.2309571503827748
% V (V) @ t=0.96
0.01774790262279829
% es.normE (V/m) @ t=0.98
3.5806152247035294
% es.EX (V/m) @ t=0.98
1.4270087528323345
% es.EY (V/m) @ t=0.98
0.37726683734776234
% es.EZ (V/m) @ t=0.98
-3.259330341720121
% es.tEX (V/m) @ t=0.98
1.427008752832335
% es.tEY (V/m) @ t=0.98
0
% es.tEZ (V/m) @ t=0.98
-3.2593303417201263
% es.Ex (V/m) @ t=0.98
1.4270087528323345
% es.Ey (V/m) @ t=0.98
0.37726683734776234
% es.Ez (V/m) @ t=0.98
-3.259330341720121
% es.tEx (V/m) @ t=0.98
1.427008752832335
% es.tEy (V/m) @ t=0.98
0
% es.tEz (V/m) @ t=0.98
-3.2593303417201263
% V (V) @ t=0.98
0.017903764317607283
% es.normE (V/m) @ t=1
3.611785237575182
% es.EX (V/m) @ t=1
1.43943111810712
% es.EY (V/m) @ t=1
0.38055088755738886
% es.EZ (V/m) @ t=1
-3.2877035330575115
% es.tEX (V/m) @ t=1
1.4394311181071204
% es.tEY (V/m) @ t=1
0
% es.tEZ (V/m) @ t=1
-3.2877035330575097
% es.Ex (V/m) @ t=1
1.43943111810712
% es.Ey (V/m) @ t=1
0.38055088755738886
% es.Ez (V/m) @ t=1
-3.2877035330575115
% es.tEx (V/m) @ t=1
1.4394311181071204
% es.tEy (V/m) @ t=1
0
% es.tEz (V/m) @ t=1
-3.2877035330575097
% V (V) @ t=1
0.018059626012416275
% es.normE (V/m) @ t=1.02
3.6429552504468443
% es.EX (V/m) @ t=1.02
1.4518534833819268
% es.EY (V/m) @ t=1.02
0.38383493776703403
% es.EZ (V/m) @ t=1.02
-3.3160767243948914
% es.tEX (V/m) @ t=1.02
1.45185348338192
% es.tEY (V/m) @ t=1.02
0
% es.tEZ (V/m) @ t=1.02
-3.3160767243948968
% es.Ex (V/m) @ t=1.02
1.4518534833819268
% es.Ey (V/m) @ t=1.02
0.38383493776703403
% es.Ez (V/m) @ t=1.02
-3.3160767243948914
% es.tEx (V/m) @ t=1.02
1.45185348338192
% es.tEy (V/m) @ t=1.02
0
% es.tEz (V/m) @ t=1.02
-3.3160767243948968
% V (V) @ t=1.02
0.018215487707225263
% es.normE (V/m) @ t=1.04
3.6755674261798923
% es.EX (V/m) @ t=1.04
1.464850674629219
% es.EY (V/m) @ t=1.04
0.3872711417685606
% es.EZ (V/m) @ t=1.04
-3.345762628715585
% es.tEX (V/m) @ t=1.04
1.4648506746292194
% es.tEY (V/m) @ t=1.04
0
% es.tEZ (V/m) @ t=1.04
-3.345762628715594
% es.Ex (V/m) @ t=1.04
1.464850674629219
% es.Ey (V/m) @ t=1.04