% Model:              1 neuron.mph
% Version:            COMSOL 6.1.0.252
% Date:               Mar 22 2023, 17:56
% Dimension:          0
% Nodes:              14017
% Expressions:        14017
% Description:        Electric field norm, Electric field, X component, Electric field, Y component, Electric field, Z component, Tangential electric field, X component, Tangential electric field, Y component, Tangential electric field, Z component, Electric field, x component, Electric field, y component, Electric field, z component, Tangential electric field, x component, Tangential electric field, y component, Tangential electric field, z component, Electric potential
% Length unit:        mm
% x
1.3300000000000003
% y
12.200000000000001
% z
1.66
% es.normE (V/m) @ t=0
13.303779168327814
% es.EX (V/m) @ t=0
8.442571428427485
% es.EY (V/m) @ t=0
2.5246236409952623
% es.EZ (V/m) @ t=0
-9.247722683374734
% es.tEX (V/m) @ t=0
8.44257142842747
% es.tEY (V/m) @ t=0
0
% es.tEZ (V/m) @ t=0
-9.247722683374718
% es.Ex (V/m) @ t=0
8.442571428427485
% es.Ey (V/m) @ t=0
2.5246236409952623
% es.Ez (V/m) @ t=0
-9.247722683374734
% es.tEx (V/m) @ t=0
8.44257142842747
% es.tEy (V/m) @ t=0
0
% es.tEz (V/m) @ t=0
-9.247722683374718
% V (V) @ t=0
0.011395731937022943
% es.normE (V/m) @ t=0.02
11.490611148446007
% es.EX (V/m) @ t=0.02
7.291935939344034
% es.EY (V/m) @ t=0.02
2.1805434718538828
% es.EZ (V/m) @ t=0.02
-7.987353365642454
% es.tEX (V/m) @ t=0.02
7.291935939344016
% es.tEY (V/m) @ t=0.02
0
% es.tEZ (V/m) @ t=0.02
-7.98735336564244
% es.Ex (V/m) @ t=0.02
7.291935939344034
% es.Ey (V/m) @ t=0.02
2.1805434718538828
% es.Ez (V/m) @ t=0.02
-7.987353365642454
% es.tEx (V/m) @ t=0.02
7.291935939344016
% es.tEy (V/m) @ t=0.02
0
% es.tEz (V/m) @ t=0.02
-7.98735336564244
% V (V) @ t=0.02
0.00984261105228144
% es.normE (V/m) @ t=0.04
11.596318624439736
% es.EX (V/m) @ t=0.04
7.359017857291224
% es.EY (V/m) @ t=0.04
2.200603334766745
% es.EZ (V/m) @ t=0.04
-8.060832738616103
% es.tEX (V/m) @ t=0.04
7.3590178572912235
% es.tEY (V/m) @ t=0.04
0
% es.tEZ (V/m) @ t=0.04
-8.060832738616089
% es.Ex (V/m) @ t=0.04
7.359017857291224
% es.Ey (V/m) @ t=0.04
2.200603334766745
% es.Ez (V/m) @ t=0.04
-8.060832738616103
% es.tEx (V/m) @ t=0.04
7.3590178572912235
% es.tEy (V/m) @ t=0.04
0
% es.tEz (V/m) @ t=0.04
-8.060832738616089
% V (V) @ t=0.04
0.009933157745565786
% es.normE (V/m) @ t=0.06
11.702783944802384
% es.EX (V/m) @ t=0.06
7.426580680281827
% es.EY (V/m) @ t=0.06
2.220806926048665
% es.EZ (V/m) @ t=0.06
-8.134838919772369
% es.tEX (V/m) @ t=0.06
7.4265806802818055
% es.tEY (V/m) @ t=0.06
0
% es.tEZ (V/m) @ t=0.06
-8.134838919772362
% es.Ex (V/m) @ t=0.06
7.426580680281827
% es.Ey (V/m) @ t=0.06
2.220806926048665
% es.Ez (V/m) @ t=0.06
-8.134838919772369
% es.tEx (V/m) @ t=0.06
7.4265806802818055
% es.tEy (V/m) @ t=0.06
0
% es.tEz (V/m) @ t=0.06
-8.134838919772362
% V (V) @ t=0.06
0.010024353775261882
% es.normE (V/m) @ t=0.08
11.811317954541678
% es.EX (V/m) @ t=0.08
7.495456305198273
% es.EY (V/m) @ t=0.08
2.2414031363296254
% es.EZ (V/m) @ t=0.08
-8.2102830795484
% es.tEX (V/m) @ t=0.08
7.495456305198266
% es.tEY (V/m) @ t=0.08
0
% es.tEZ (V/m) @ t=0.08
-8.210283079548372
% es.Ex (V/m) @ t=0.08
7.495456305198273
% es.Ey (V/m) @ t=0.08
2.2414031363296254
% es.Ez (V/m) @ t=0.08
-8.2102830795484
% es.tEx (V/m) @ t=0.08
7.495456305198266
% es.tEy (V/m) @ t=0.08
0
% es.tEz (V/m) @ t=0.08
-8.210283079548372
% V (V) @ t=0.08
0.010117321695789666
% es.normE (V/m) @ t=0.1
11.920364373279996
% es.EX (V/m) @ t=0.1
7.564657107750527
% es.EY (V/m) @ t=0.1
2.262096597319415
% es.EZ (V/m) @ t=0.1
-8.286083422903033
% es.tEX (V/m) @ t=0.1
7.564657107750513
% es.tEY (V/m) @ t=0.1
0
% es.tEZ (V/m) @ t=0.1
-8.28608342290301
% es.Ex (V/m) @ t=0.1
7.564657107750527
% es.Ey (V/m) @ t=0.1
2.262096597319415
% es.Ez (V/m) @ t=0.1
-8.286083422903033
% es.tEx (V/m) @ t=0.1
7.564657107750513
% es.tEy (V/m) @ t=0.1
0
% es.tEz (V/m) @ t=0.1
-8.28608342290301
% V (V) @ t=0.1
0.010210728509085852
% es.normE (V/m) @ t=0.12
12.029410792018327
% es.EX (V/m) @ t=0.12
7.633857910302797
% es.EY (V/m) @ t=0.12
2.282790058309215
% es.EZ (V/m) @ t=0.12
-8.36188376625767
% es.tEX (V/m) @ t=0.12
7.633857910302789
% es.tEY (V/m) @ t=0.12
0
% es.tEZ (V/m) @ t=0.12
-8.361883766257655
% es.Ex (V/m) @ t=0.12
7.633857910302797
% es.Ey (V/m) @ t=0.12
2.282790058309215
% es.Ez (V/m) @ t=0.12
-8.36188376625767
% es.tEx (V/m) @ t=0.12
7.633857910302789
% es.tEy (V/m) @ t=0.12
0
% es.tEz (V/m) @ t=0.12
-8.361883766257655
% V (V) @ t=0.12
0.010304135322382037
% es.normE (V/m) @ t=0.14
12.141772198967633
% es.EX (V/m) @ t=0.14
7.705162403143234
% es.EY (V/m) @ t=0.14
2.3041125984870723
% es.EZ (V/m) @ t=0.14
-8.439988423797812
% es.tEX (V/m) @ t=0.14
7.705162403143201
% es.tEY (V/m) @ t=0.14
0
% es.tEZ (V/m) @ t=0.14
-8.43998842379779
% es.Ex (V/m) @ t=0.14
7.705162403143234
% es.Ey (V/m) @ t=0.14
2.3041125984870723
% es.Ez (V/m) @ t=0.14
-8.439988423797812
% es.tEx (V/m) @ t=0.14
7.705162403143201
% es.tEy (V/m) @ t=0.14
0
% es.tEz (V/m) @ t=0.14
-8.43998842379779
% V (V) @ t=0.14
0.010400381679046274
% es.normE (V/m) @ t=0.16
12.25626027098011
% es.EX (V/m) @ t=0.16
7.777816476843336
% es.EY (V/m) @ t=0.16
2.325838711964775
% es.EZ (V/m) @ t=0.16
-8.519571368487396
% es.tEX (V/m) @ t=0.16
7.777816476843311
% es.tEY (V/m) @ t=0.16
0
% es.tEZ (V/m) @ t=0.16
-8.51957136848738
% es.Ex (V/m) @ t=0.16
7.777816476843336
% es.Ey (V/m) @ t=0.16
2.325838711964775
% es.Ez (V/m) @ t=0.16
-8.519571368487396
% es.tEx (V/m) @ t=0.16
7.777816476843311
% es.tEy (V/m) @ t=0.16
0
% es.tEz (V/m) @ t=0.16
-8.51957136848738
% V (V) @ t=0.16
0.01049844968854666
% es.normE (V/m) @ t=0.18
12.370748342992602
% es.EX (V/m) @ t=0.18
7.850470550543429
% es.EY (V/m) @ t=0.18
2.3475648254425137
% es.EZ (V/m) @ t=0.18
-8.599154313177001
% es.tEX (V/m) @ t=0.18
7.850470550543407
% es.tEY (V/m) @ t=0.18
0
% es.tEZ (V/m) @ t=0.18
-8.59915431317698
% es.Ex (V/m) @ t=0.18
7.850470550543429
% es.Ey (V/m) @ t=0.18
2.3475648254425137
% es.Ez (V/m) @ t=0.18
-8.599154313177001
% es.tEx (V/m) @ t=0.18
7.850470550543407
% es.tEy (V/m) @ t=0.18
0
% es.tEz (V/m) @ t=0.18
-8.59915431317698
% V (V) @ t=0.18
0.010596517698047044
% es.normE (V/m) @ t=0.2
12.485236415005092
% es.EX (V/m) @ t=0.2
7.923124624243529
% es.EY (V/m) @ t=0.2
2.369290938920212
% es.EZ (V/m) @ t=0.2
-8.678737257866619
% es.tEX (V/m) @ t=0.2
7.923124624243512
% es.tEY (V/m) @ t=0.2
0
% es.tEZ (V/m) @ t=0.2
-8.678737257866596
% es.Ex (V/m) @ t=0.2
7.923124624243529
% es.Ey (V/m) @ t=0.2
2.369290938920212
% es.Ez (V/m) @ t=0.2
-8.678737257866619
% es.tEx (V/m) @ t=0.2
7.923124624243512
% es.tEy (V/m) @ t=0.2
0
% es.tEz (V/m) @ t=0.2
-8.678737257866596
% V (V) @ t=0.2
0.010694585707547426
% es.normE (V/m) @ t=0.22
12.599724487017593
% es.EX (V/m) @ t=0.22
7.995778697943647
% es.EY (V/m) @ t=0.22
2.3910170523979217
% es.EZ (V/m) @ t=0.22
-8.75832020255623
% es.tEX (V/m) @ t=0.22
7.995778697943643
% es.tEY (V/m) @ t=0.22
0
% es.tEZ (V/m) @ t=0.22
-8.75832020255621
% es.Ex (V/m) @ t=0.22
7.995778697943647
% es.Ey (V/m) @ t=0.22
2.3910170523979217
% es.Ez (V/m) @ t=0.22
-8.75832020255623
% es.tEx (V/m) @ t=0.22
7.995778697943643
% es.tEy (V/m) @ t=0.22
0
% es.tEz (V/m) @ t=0.22
-8.75832020255621
% V (V) @ t=0.22
0.010792653717047811
% es.normE (V/m) @ t=0.24
12.714212559030084
% es.EX (V/m) @ t=0.24
8.068432771643735
% es.EY (V/m) @ t=0.24
2.4127431658756597
% es.EZ (V/m) @ t=0.24
-8.837903147245843
% es.tEX (V/m) @ t=0.24
8.068432771643725
% es.tEY (V/m) @ t=0.24
0
% es.tEZ (V/m) @ t=0.24
-8.837903147245822
% es.Ex (V/m) @ t=0.24
8.068432771643735
% es.Ey (V/m) @ t=0.24
2.4127431658756597
% es.Ez (V/m) @ t=0.24
-8.837903147245843
% es.tEx (V/m) @ t=0.24
8.068432771643725
% es.tEy (V/m) @ t=0.24
0
% es.tEz (V/m) @ t=0.24
-8.837903147245822
% V (V) @ t=0.24
0.010890721726548192
% es.normE (V/m) @ t=0.26
12.831429235547589
% es.EX (V/m) @ t=0.26
8.142818413120825
% es.EY (V/m) @ t=0.26
2.4349870671875427
% es.EZ (V/m) @ t=0.26
-8.919382801671599
% es.tEX (V/m) @ t=0.26
8.142818413120802
% es.tEY (V/m) @ t=0.26
0
% es.tEZ (V/m) @ t=0.26
-8.91938280167157
% es.Ex (V/m) @ t=0.26
8.142818413120825
% es.Ey (V/m) @ t=0.26
2.4349870671875427
% es.Ez (V/m) @ t=0.26
-8.919382801671599
% es.tEx (V/m) @ t=0.26
8.142818413120802
% es.tEy (V/m) @ t=0.26
0
% es.tEz (V/m) @ t=0.26
-8.91938280167157
% V (V) @ t=0.26
0.010991127026571129
% es.normE (V/m) @ t=0.28
12.958065477849214
% es.EX (V/m) @ t=0.28
8.223181695019985
% es.EY (V/m) @ t=0.28
2.4590184523786363
% es.EZ (V/m) @ t=0.28
-9.007410192165437
% es.tEX (V/m) @ t=0.28
8.223181695019978
% es.tEY (V/m) @ t=0.28
0
% es.tEZ (V/m) @ t=0.28
-9.007410192165414
% es.Ex (V/m) @ t=0.28
8.223181695019985
% es.Ey (V/m) @ t=0.28
2.4590184523786363
% es.Ez (V/m) @ t=0.28
-9.007410192165437
% es.tEx (V/m) @ t=0.28
8.223181695019978
% es.tEy (V/m) @ t=0.28
0
% es.tEz (V/m) @ t=0.28
-9.007410192165414
% V (V) @ t=0.28
0.011099601015842914
% es.normE (V/m) @ t=0.3
13.08470172015084
% es.EX (V/m) @ t=0.3
8.303544976919168
% es.EY (V/m) @ t=0.3
2.48304983756974
% es.EZ (V/m) @ t=0.3
-9.095437582659274
% es.tEX (V/m) @ t=0.3
8.30354497691916
% es.tEY (V/m) @ t=0.3
0
% es.tEZ (V/m) @ t=0.3
-9.09543758265926
% es.Ex (V/m) @ t=0.3
8.303544976919168
% es.Ey (V/m) @ t=0.3
2.48304983756974
% es.Ez (V/m) @ t=0.3
-9.095437582659274
% es.tEx (V/m) @ t=0.3
8.30354497691916
% es.tEy (V/m) @ t=0.3
0
% es.tEz (V/m) @ t=0.3
-9.09543758265926
% V (V) @ t=0.3
0.0112080750051147
% es.normE (V/m) @ t=0.32
13.211337962452504
% es.EX (V/m) @ t=0.32
8.383908258818359
% es.EY (V/m) @ t=0.32
2.507081222760833
% es.EZ (V/m) @ t=0.32
-9.183464973153155
% es.tEX (V/m) @ t=0.32
8.383908258818337
% es.tEY (V/m) @ t=0.32
0
% es.tEZ (V/m) @ t=0.32
-9.183464973153127
% es.Ex (V/m) @ t=0.32
8.383908258818359
% es.Ey (V/m) @ t=0.32
2.507081222760833
% es.Ez (V/m) @ t=0.32
-9.183464973153155
% es.tEx (V/m) @ t=0.32
8.383908258818337
% es.tEy (V/m) @ t=0.32
0
% es.tEz (V/m) @ t=0.32
-9.183464973153127
% V (V) @ t=0.32
0.011316548994386484
% es.normE (V/m) @ t=0.34
13.337974204754133
% es.EX (V/m) @ t=0.34
8.46427154071755
% es.EY (V/m) @ t=0.34
2.5311126079519504
% es.EZ (V/m) @ t=0.34
-9.271492363646972
% es.tEX (V/m) @ t=0.34
8.464271540717528
% es.tEY (V/m) @ t=0.34
0
% es.tEZ (V/m) @ t=0.34
-9.27149236364695
% es.Ex (V/m) @ t=0.34
8.46427154071755
% es.Ey (V/m) @ t=0.34
2.5311126079519504
% es.Ez (V/m) @ t=0.34
-9.271492363646972
% es.tEx (V/m) @ t=0.34
8.464271540717528
% es.tEy (V/m) @ t=0.34
0
% es.tEz (V/m) @ t=0.34
-9.27149236364695
% V (V) @ t=0.34
0.011425022983658268
% es.normE (V/m) @ t=0.36
13.46461044705579
% es.EX (V/m) @ t=0.36
8.544634822616725
% es.EY (V/m) @ t=0.36
2.555143993143079
% es.EZ (V/m) @ t=0.36
-9.359519754140837
% es.tEX (V/m) @ t=0.36
8.544634822616704
% es.tEY (V/m) @ t=0.36
0
% es.tEZ (V/m) @ t=0.36
-9.359519754140823
% es.Ex (V/m) @ t=0.36
8.544634822616725
% es.Ey (V/m) @ t=0.36
2.555143993143079
% es.Ez (V/m) @ t=0.36
-9.359519754140837
% es.tEx (V/m) @ t=0.36
8.544634822616704
% es.tEy (V/m) @ t=0.36
0
% es.tEz (V/m) @ t=0.36
-9.359519754140823
% V (V) @ t=0.36
0.011533496972930053
% es.normE (V/m) @ t=0.38
13.591246689357405
% es.EX (V/m) @ t=0.38
8.624998104515917
% es.EY (V/m) @ t=0.38
2.5791753783341473
% es.EZ (V/m) @ t=0.38
-9.447547144634662
% es.tEX (V/m) @ t=0.38
8.624998104515889
% es.tEY (V/m) @ t=0.38
0
% es.tEZ (V/m) @ t=0.38
-9.44754714463464
% es.Ex (V/m) @ t=0.38
8.624998104515917
% es.Ey (V/m) @ t=0.38
2.5791753783341473
% es.Ez (V/m) @ t=0.38
-9.447547144634662
% es.tEx (V/m) @ t=0.38
8.624998104515889
% es.tEy (V/m) @ t=0.38
0
% es.tEz (V/m) @ t=0.38
-9.44754714463464
% V (V) @ t=0.38
0.011641970962201837
% es.normE (V/m) @ t=0.4
13.71788293165907
% es.EX (V/m) @ t=0.4
8.705361386415067
% es.EY (V/m) @ t=0.4
2.6032067635253044
% es.EZ (V/m) @ t=0.4
-9.535574535128543
% es.tEX (V/m) @ t=0.4
8.705361386415056
% es.tEY (V/m) @ t=0.4
0
% es.tEZ (V/m) @ t=0.4
-9.535574535128513
% es.Ex (V/m) @ t=0.4
8.705361386415067
% es.Ey (V/m) @ t=0.4
2.6032067635253044
% es.Ez (V/m) @ t=0.4
-9.535574535128543
% es.tEx (V/m) @ t=0.4
8.705361386415056
% es.tEy (V/m) @ t=0.4
0
% es.tEz (V/m) @ t=0.4
-9.535574535128513
% V (V) @ t=0.4
0.011750444951473617
% es.normE (V/m) @ t=0.42
13.844519173960695
% es.EX (V/m) @ t=0.42
8.78572466831426
% es.EY (V/m) @ t=0.42
2.6272381487163865
% es.EZ (V/m) @ t=0.42
-9.623601925622374
% es.tEX (V/m) @ t=0.42
8.785724668314247
% es.tEY (V/m) @ t=0.42
0
% es.tEZ (V/m) @ t=0.42
-9.623601925622358
% es.Ex (V/m) @ t=0.42
8.78572466831426
% es.Ey (V/m) @ t=0.42
2.6272381487163865
% es.Ez (V/m) @ t=0.42
-9.623601925622374
% es.tEx (V/m) @ t=0.42
8.785724668314247
% es.tEy (V/m) @ t=0.42
0
% es.tEz (V/m) @ t=0.42
-9.623601925622358
% V (V) @ t=0.42
0.011858918940745403
% es.normE (V/m) @ t=0.44
13.971155416262345
% es.EX (V/m) @ t=0.44
8.866087950213426
% es.EY (V/m) @ t=0.44
2.651269533907515
% es.EZ (V/m) @ t=0.44
-9.711629316116232
% es.tEX (V/m) @ t=0.44
8.866087950213416
% es.tEY (V/m) @ t=0.44
0
% es.tEZ (V/m) @ t=0.44
-9.711629316116218
% es.Ex (V/m) @ t=0.44
8.866087950213426
% es.Ey (V/m) @ t=0.44
2.651269533907515
% es.Ez (V/m) @ t=0.44
-9.711629316116232
% es.tEx (V/m) @ t=0.44
8.866087950213416
% es.tEy (V/m) @ t=0.44
0
% es.tEz (V/m) @ t=0.44
-9.711629316116218
% V (V) @ t=0.44
0.011967392930017187
% es.normE (V/m) @ t=0.46
14.097791658563963
% es.EX (V/m) @ t=0.46
8.946451232112604
% es.EY (V/m) @ t=0.46
2.6753009190986083
% es.EZ (V/m) @ t=0.46
-9.799656706610069
% es.tEX (V/m) @ t=0.46
8.946451232112587
% es.tEY (V/m) @ t=0.46
0
% es.tEZ (V/m) @ t=0.46
-9.799656706610048
% es.Ex (V/m) @ t=0.46
8.946451232112604
% es.Ey (V/m) @ t=0.46
2.6753009190986083
% es.Ez (V/m) @ t=0.46
-9.799656706610069
% es.tEx (V/m) @ t=0.46
8.946451232112587
% es.tEy (V/m) @ t=0.46
0
% es.tEz (V/m) @ t=0.46
-9.799656706610048
% V (V) @ t=0.46
0.012075866919288972
% es.normE (V/m) @ t=0.48
14.224427900865637
% es.EX (V/m) @ t=0.48
9.026814514011797
% es.EY (V/m) @ t=0.48
2.6993323042897153
% es.EZ (V/m) @ t=0.48
-9.887684097103936
% es.tEX (V/m) @ t=0.48
9.026814514011775
% es.tEY (V/m) @ t=0.48
0
% es.tEZ (V/m) @ t=0.48
-9.887684097103914
% es.Ex (V/m) @ t=0.48
9.026814514011797
% es.Ey (V/m) @ t=0.48
2.6993323042897153
% es.Ez (V/m) @ t=0.48
-9.887684097103936
% es.tEx (V/m) @ t=0.48
9.026814514011775
% es.tEy (V/m) @ t=0.48
0
% es.tEz (V/m) @ t=0.48
-9.887684097103914
% V (V) @ t=0.48
0.012184340908560756
% es.normE (V/m) @ t=0.5
14.351064143167243
% es.EX (V/m) @ t=0.5
9.107177795910953
% es.EY (V/m) @ t=0.5
2.723363689480826
% es.EZ (V/m) @ t=0.5
-9.975711487597767
% es.tEX (V/m) @ t=0.5
9.107177795910946
% es.tEY (V/m) @ t=0.5
0
% es.tEZ (V/m) @ t=0.5
-9.975711487597746
% es.Ex (V/m) @ t=0.5
9.107177795910953
% es.Ey (V/m) @ t=0.5
2.723363689480826
% es.Ez (V/m) @ t=0.5
-9.975711487597767
% es.tEx (V/m) @ t=0.5
9.107177795910946
% es.tEy (V/m) @ t=0.5
0
% es.tEz (V/m) @ t=0.5
-9.975711487597746
% V (V) @ t=0.5
0.01229281489783254
% es.normE (V/m) @ t=0.52
14.483919028948343
% es.EX (V/m) @ t=0.52
9.191487430934483
% es.EY (V/m) @ t=0.52
2.748575189541975
% es.EZ (V/m) @ t=0.52
-10.068061577870488
% es.tEX (V/m) @ t=0.52
9.191487430934457
% es.tEY (V/m) @ t=0.52
0
% es.tEZ (V/m) @ t=0.52
-10.068061577870466
% es.Ex (V/m) @ t=0.52
9.191487430934483
% es.Ey (V/m) @ t=0.52
2.748575189541975
% es.Ez (V/m) @ t=0.52
-10.068061577870488
% es.tEx (V/m) @ t=0.52
9.191487430934457
% es.tEy (V/m) @ t=0.52
0
% es.tEz (V/m) @ t=0.52
-10.068061577870466
% V (V) @ t=0.52
0.012406615602288264
% es.normE (V/m) @ t=0.54
14.624208948070457
% es.EX (V/m) @ t=0.54
9.280515340474306
% es.EY (V/m) @ t=0.54
2.775197639343829
% es.EZ (V/m) @ t=0.54
-10.165579904123522
% es.tEX (V/m) @ t=0.54
9.280515340474272
% es.tEY (V/m) @ t=0.54
0
% es.tEZ (V/m) @ t=0.54
-10.165579904123499
% es.Ex (V/m) @ t=0.54
9.280515340474306
% es.Ey (V/m) @ t=0.54
2.775197639343829
% es.Ez (V/m) @ t=0.54
-10.165579904123522
% es.tEx (V/m) @ t=0.54
9.280515340474272
% es.tEy (V/m) @ t=0.54
0
% es.tEz (V/m) @ t=0.54
-10.165579904123499
% V (V) @ t=0.54
0.012526784947287853
% es.normE (V/m) @ t=0.56
14.764498867192582
% es.EX (V/m) @ t=0.56
9.369543250014162
% es.EY (V/m) @ t=0.56
2.801820089145654
% es.EZ (V/m) @ t=0.56
-10.263098230376555
% es.tEX (V/m) @ t=0.56
9.36954325001415
% es.tEY (V/m) @ t=0.56
0
% es.tEZ (V/m) @ t=0.56
-10.263098230376526
% es.Ex (V/m) @ t=0.56
9.369543250014162
% es.Ey (V/m) @ t=0.56
2.801820089145654
% es.Ez (V/m) @ t=0.56
-10.263098230376555
% es.tEx (V/m) @ t=0.56
9.36954325001415
% es.tEy (V/m) @ t=0.56
0
% es.tEz (V/m) @ t=0.56
-10.263098230376526
% V (V) @ t=0.56
0.012646954292287448
% es.normE (V/m) @ t=0.58
14.904788786314729
% es.EX (V/m) @ t=0.58
9.458571159554008
% es.EY (V/m) @ t=0.58
2.828442538947451
% es.EZ (V/m) @ t=0.58
-10.36061655662961
% es.tEX (V/m) @ t=0.58
9.458571159553996
% es.tEY (V/m) @ t=0.58
0
% es.tEZ (V/m) @ t=0.58
-10.360616556629582
% es.Ex (V/m) @ t=0.58
9.458571159554008
% es.Ey (V/m) @ t=0.58
2.828442538947451
% es.Ez (V/m) @ t=0.58
-10.36061655662961
% es.tEx (V/m) @ t=0.58
9.458571159553996
% es.tEy (V/m) @ t=0.58
0
% es.tEz (V/m) @ t=0.58
-10.360616556629582
% V (V) @ t=0.58
0.01276712363728704
% es.normE (V/m) @ t=0.6
15.045078705436843
% es.EX (V/m) @ t=0.6
9.547599069093808
% es.EY (V/m) @ t=0.6
2.855064988749308
% es.EZ (V/m) @ t=0.6
-10.458134882882652
% es.tEX (V/m) @ t=0.6
9.547599069093788
% es.tEY (V/m) @ t=0.6
0
% es.tEZ (V/m) @ t=0.6
-10.458134882882643
% es.Ex (V/m) @ t=0.6
9.547599069093808
% es.Ey (V/m) @ t=0.6
2.855064988749308
% es.Ez (V/m) @ t=0.6
-10.458134882882652
% es.tEx (V/m) @ t=0.6
9.547599069093788
% es.tEy (V/m) @ t=0.6
0
% es.tEz (V/m) @ t=0.6
-10.458134882882643
% V (V) @ t=0.6
0.01288729298228663
% es.normE (V/m) @ t=0.62
15.185368624558974
% es.EX (V/m) @ t=0.62
9.636626978633668
% es.EY (V/m) @ t=0.62
2.881687438551123
% es.EZ (V/m) @ t=0.62
-10.555653209135677
% es.tEX (V/m) @ t=0.62
9.636626978633647
% es.tEY (V/m) @ t=0.62
0
% es.tEZ (V/m) @ t=0.62
-10.555653209135663
% es.Ex (V/m) @ t=0.62
9.636626978633668
% es.Ey (V/m) @ t=0.62
2.881687438551123
% es.Ez (V/m) @ t=0.62
-10.555653209135677
% es.tEx (V/m) @ t=0.62
9.636626978633647
% es.tEy (V/m) @ t=0.62
0
% es.tEz (V/m) @ t=0.62
-10.555653209135663
% V (V) @ t=0.62
0.013007462327286218
% es.normE (V/m) @ t=0.64
15.325658543681147
% es.EX (V/m) @ t=0.64
9.725654888173512
% es.EY (V/m) @ t=0.64
2.9083098883530045
% es.EZ (V/m) @ t=0.64
-10.653171535388768
% es.tEX (V/m) @ t=0.64
9.725654888173462
% es.tEY (V/m) @ t=0.64
0
% es.tEZ (V/m) @ t=0.64
-10.653171535388747
% es.Ex (V/m) @ t=0.64
9.725654888173512
% es.Ey (V/m) @ t=0.64
2.9083098883530045
% es.Ez (V/m) @ t=0.64
-10.653171535388768
% es.tEx (V/m) @ t=0.64
9.725654888173462
% es.tEy (V/m) @ t=0.64
0
% es.tEz (V/m) @ t=0.64
-10.653171535388747
% V (V) @ t=0.64
0.013127631672285811
% es.normE (V/m) @ t=0.66
15.465948462803254
% es.EX (V/m) @ t=0.66
9.81468279771332
% es.EY (V/m) @ t=0.66
2.9349323381548653
% es.EZ (V/m) @ t=0.66
-10.750689861641796
% es.tEX (V/m) @ t=0.66
9.8146827977133
% es.tEY (V/m) @ t=0.66
0
% es.tEZ (V/m) @ t=0.66
-10.750689861641767
% es.Ex (V/m) @ t=0.66
9.81468279771332
% es.Ey (V/m) @ t=0.66
2.9349323381548653
% es.Ez (V/m) @ t=0.66
-10.750689861641796
% es.tEx (V/m) @ t=0.66
9.8146827977133
% es.tEy (V/m) @ t=0.66
0
% es.tEz (V/m) @ t=0.66
-10.750689861641767
% V (V) @ t=0.66
0.013247801017285402
% es.normE (V/m) @ t=0.68
15.606238381925401
% es.EX (V/m) @ t=0.68
9.903710707253168
% es.EY (V/m) @ t=0.68
2.9615547879566875
% es.EZ (V/m) @ t=0.68
-10.848208187894844
% es.tEX (V/m) @ t=0.68
9.903710707253165
% es.tEY (V/m) @ t=0.68
0
% es.tEZ (V/m) @ t=0.68
-10.848208187894814
% es.Ex (V/m) @ t=0.68
9.903710707253168
% es.Ey (V/m) @ t=0.68
2.9615547879566875
% es.Ez (V/m) @ t=0.68
-10.848208187894844
% es.tEx (V/m) @ t=0.68
9.903710707253165
% es.tEy (V/m) @ t=0.68
0
% es.tEz (V/m) @ t=0.68
-10.848208187894814
% V (V) @ t=0.68
0.013367970362284994
% es.normE (V/m) @ t=0.7
15.74652830104752
% es.EX (V/m) @ t=0.7
9.992738616792984
% es.EY (V/m) @ t=0.7
2.9881772377585443
% es.EZ (V/m) @ t=0.7
-10.945726514147879
% es.tEX (V/m) @ t=0.7
9.992738616792964
% es.tEY (V/m) @ t=0.7
0
% es.tEZ (V/m) @ t=0.7
-10.945726514147855
% es.Ex (V/m) @ t=0.7
9.992738616792984
% es.Ey (V/m) @ t=0.7
2.9881772377585443
% es.Ez (V/m) @ t=0.7
-10.945726514147879
% es.tEx (V/m) @ t=0.7
9.992738616792964
% es.tEy (V/m) @ t=0.7
0
% es.tEz (V/m) @ t=0.7
-10.945726514147855
% V (V) @ t=0.7
0.013488139707284586
% es.normE (V/m) @ t=0.72
15.886818220169648
% es.EX (V/m) @ t=0.72
10.081766526332828
% es.EY (V/m) @ t=0.72
3.014799687560348
% es.EZ (V/m) @ t=0.72
-11.04324484040092
% es.tEX (V/m) @ t=0.72
10.081766526332796
% es.tEY (V/m) @ t=0.72
0
% es.tEZ (V/m) @ t=0.72
-11.043244840400904
% es.Ex (V/m) @ t=0.72
10.081766526332828
% es.Ey (V/m) @ t=0.72
3.014799687560348
% es.Ez (V/m) @ t=0.72
-11.04324484040092
% es.tEx (V/m) @ t=0.72
10.081766526332796
% es.tEy (V/m) @ t=0.72
0
% es.tEz (V/m) @ t=0.72
-11.043244840400904
% V (V) @ t=0.72
0.013608309052284174
% es.normE (V/m) @ t=0.74
16.02710813929181
% es.EX (V/m) @ t=0.74
10.17079443587268
% es.EY (V/m) @ t=0.74
3.041422137362177
% es.EZ (V/m) @ t=0.74
-11.140763166653988
% es.tEX (V/m) @ t=0.74
10.170794435872653
% es.tEY (V/m) @ t=0.74
0
% es.tEZ (V/m) @ t=0.74
-11.14076316665398
% es.Ex (V/m) @ t=0.74
10.17079443587268
% es.Ey (V/m) @ t=0.74
3.041422137362177
% es.Ez (V/m) @ t=0.74
-11.140763166653988
% es.tEx (V/m) @ t=0.74
10.170794435872653
% es.tEy (V/m) @ t=0.74
0
% es.tEz (V/m) @ t=0.74
-11.14076316665398
% V (V) @ t=0.74
0.013728478397283765
% es.normE (V/m) @ t=0.76
16.167398058413927
% es.EX (V/m) @ t=0.76
10.259822345412493
% es.EY (V/m) @ t=0.76
3.068044587164077
% es.EZ (V/m) @ t=0.76
-11.23828149290702
% es.tEX (V/m) @ t=0.76
10.259822345412474
% es.tEY (V/m) @ t=0.76
0
% es.tEZ (V/m) @ t=0.76
-11.238281492906992
% es.Ex (V/m) @ t=0.76
10.259822345412493
% es.Ey (V/m) @ t=0.76
3.068044587164077
% es.Ez (V/m) @ t=0.76
-11.23828149290702
% es.tEx (V/m) @ t=0.76
10.259822345412474
% es.tEy (V/m) @ t=0.76
0
% es.tEz (V/m) @ t=0.76
-11.238281492906992
% V (V) @ t=0.76
0.013848647742283358
% es.normE (V/m) @ t=0.78
16.318238546326068
% es.EX (V/m) @ t=0.78
10.355545640813602
% es.EY (V/m) @ t=0.78
3.096669192114462
% es.EZ (V/m) @ t=0.78
-11.343133730084357
% es.tEX (V/m) @ t=0.78
10.355545640813567
% es.tEY (V/m) @ t=0.78
0
% es.tEZ (V/m) @ t=0.78
-11.343133730084336
% es.Ex (V/m) @ t=0.78
10.355545640813602
% es.Ey (V/m) @ t=0.78
3.096669192114462
% es.Ez (V/m) @ t=0.78
-11.343133730084357
% es.tEx (V/m) @ t=0.78
10.355545640813567
% es.tEy (V/m) @ t=0.78
0
% es.tEz (V/m) @ t=0.78
-11.343133730084336
% V (V) @ t=0.78
0.01397785447574808
% es.normE (V/m) @ t=0.8
16.473901561142153
% es.EX (V/m) @ t=0.8
10.454329309460107
% es.EY (V/m) @ t=0.8
3.126208955978279
% es.EZ (V/m) @ t=0.8
-11.45133820195607
% es.tEX (V/m) @ t=0.8
10.454329309460075
% es.tEY (V/m) @ t=0.8
0
% es.tEZ (V/m) @ t=0.8
-11.451338201956041
% es.Ex (V/m) @ t=0.8
10.454329309460107
% es.Ey (V/m) @ t=0.8
3.126208955978279
% es.Ez (V/m) @ t=0.8
-11.45133820195607
% es.tEx (V/m) @ t=0.8
10.454329309460075
% es.tEy (V/m) @ t=0.8
0
% es.tEz (V/m) @ t=0.8
-11.451338201956041
% V (V) @ t=0.8
0.01411119208119536
% es.normE (V/m) @ t=0.82
16.62956457595826
% es.EX (V/m) @ t=0.82
10.553112978106611
% es.EY (V/m) @ t=0.82
3.1557487198420953
% es.EZ (V/m) @ t=0.82
-11.55954267382781
% es.tEX (V/m) @ t=0.82
10.553112978106576
% es.tEY (V/m) @ t=0.82
0
% es.tEZ (V/m) @ t=0.82
-11.559542673827787
% es.Ex (V/m) @ t=0.82
10.553112978106611
% es.Ey (V/m) @ t=0.82
3.1557487198420953
% es.Ez (V/m) @ t=0.82
-11.55954267382781
% es.tEx (V/m) @ t=0.82
10.553112978106576
% es.tEy (V/m) @ t=0.82
0
% es.tEz (V/m) @ t=0.82
-11.559542673827787
% V (V) @ t=0.82
0.014244529686642641
% es.normE (V/m) @ t=0.84
16.78522759077432
% es.EX (V/m) @ t=0.84
10.651896646753109
% es.EY (V/m) @ t=0.84
3.185288483705905
% es.EZ (V/m) @ t=0.84
-11.667747145699522
% es.tEX (V/m) @ t=0.84
10.65189664675309
% es.tEY (V/m) @ t=0.84
0
% es.tEZ (V/m) @ t=0.84
-11.667747145699492
% es.Ex (V/m) @ t=0.84
10.651896646753109
% es.Ey (V/m) @ t=0.84
3.185288483705905
% es.Ez (V/m) @ t=0.84
-11.667747145699522
% es.tEx (V/m) @ t=0.84
10.65189664675309
% es.tEy (V/m) @ t=0.84
0
% es.tEz (V/m) @ t=0.84
-11.667747145699492
% V (V) @ t=0.84
0.014377867292089917
% es.normE (V/m) @ t=0.86
16.94089060559044
% es.EX (V/m) @ t=0.86
10.750680315399586
% es.EY (V/m) @ t=0.86
3.214828247569743
% es.EZ (V/m) @ t=0.86
-11.775951617571268
% es.tEX (V/m) @ t=0.86
10.750680315399553
% es.tEY (V/m) @ t=0.86
0
% es.tEZ (V/m) @ t=0.86
-11.77595161757124
% es.Ex (V/m) @ t=0.86
10.750680315399586
% es.Ey (V/m) @ t=0.86
3.214828247569743
% es.Ez (V/m) @ t=0.86
-11.775951617571268
% es.tEx (V/m) @ t=0.86
10.750680315399553
% es.tEy (V/m) @ t=0.86
0
% es.tEz (V/m) @ t=0.86
-11.77595161757124
% V (V) @ t=0.86
0.014511204897537197
% es.normE (V/m) @ t=0.88
17.096553620406528
% es.EX (V/m) @ t=0.88
10.849463984046078
% es.EY (V/m) @ t=0.88
3.244368011433581
% es.EZ (V/m) @ t=0.88
-11.884156089442993
% es.tEX (V/m) @ t=0.88
10.849463984046047
% es.tEY (V/m) @ t=0.88
0
% es.tEZ (V/m) @ t=0.88
-11.88415608944295
% es.Ex (V/m) @ t=0.88
10.849463984046078
% es.Ey (V/m) @ t=0.88
3.244368011433581
% es.Ez (V/m) @ t=0.88
-11.884156089442993
% es.tEx (V/m) @ t=0.88
10.849463984046047
% es.tEy (V/m) @ t=0.88
0
% es.tEz (V/m) @ t=0.88
-11.88415608944295
% V (V) @ t=0.88
0.014644542502984479
% es.normE (V/m) @ t=0.9
17.25221663522262
% es.EX (V/m) @ t=0.9
10.948247652692583
% es.EY (V/m) @ t=0.9
3.273907775297383
% es.EZ (V/m) @ t=0.9
-11.992360561314719
% es.tEX (V/m) @ t=0.9
10.948247652692569
% es.tEY (V/m) @ t=0.9
0
% es.tEZ (V/m) @ t=0.9
-11.99236056131469
% es.Ex (V/m) @ t=0.9
10.948247652692583
% es.Ey (V/m) @ t=0.9
3.273907775297383
% es.Ez (V/m) @ t=0.9
-11.992360561314719
% es.tEx (V/m) @ t=0.9
10.948247652692569
% es.tEy (V/m) @ t=0.9
0
% es.tEz (V/m) @ t=0.9
-11.99236056131469
% V (V) @ t=0.9
0.014777880108431757
% es.normE (V/m) @ t=0.92
17.407879650038716
% es.EX (V/m) @ t=0.92
11.047031321339086
% es.EY (V/m) @ t=0.92
3.303447539161172
% es.EZ (V/m) @ t=0.92
-12.100565033186445
% es.tEX (V/m) @ t=0.92
11.047031321339052
% es.tEY (V/m) @ t=0.92
0
% es.tEZ (V/m) @ t=0.92
-12.100565033186417
% es.Ex (V/m) @ t=0.92
11.047031321339086
% es.Ey (V/m) @ t=0.92
3.303447539161172
% es.Ez (V/m) @ t=0.92
-12.100565033186445
% es.tEx (V/m) @ t=0.92
11.047031321339052
% es.tEy (V/m) @ t=0.92
0
% es.tEz (V/m) @ t=0.92
-12.100565033186417
% V (V) @ t=0.92
0.014911217713879037
% es.normE (V/m) @ t=0.94
17.5635426648548
% es.EX (V/m) @ t=0.94
11.145814989985572
% es.EY (V/m) @ t=0.94
3.332987303025032
% es.EZ (V/m) @ t=0.94
-12.208769505058171
% es.tEX (V/m) @ t=0.94
11.145814989985539
% es.tEY (V/m) @ t=0.94
0
% es.tEZ (V/m) @ t=0.94
-12.208769505058143
% es.Ex (V/m) @ t=0.94
11.145814989985572
% es.Ey (V/m) @ t=0.94
3.332987303025032
% es.Ez (V/m) @ t=0.94
-12.208769505058171
% es.tEx (V/m) @ t=0.94
11.145814989985539
% es.tEy (V/m) @ t=0.94
0
% es.tEz (V/m) @ t=0.94
-12.208769505058143
% V (V) @ t=0.94
0.015044555319326317
% es.normE (V/m) @ t=0.96
17.7192056796709
% es.EX (V/m) @ t=0.96
11.244598658632079
% es.EY (V/m) @ t=0.96
3.362527066888834
% es.EZ (V/m) @ t=0.96
-12.316973976929912
% es.tEX (V/m) @ t=0.96
11.244598658632054
% es.tEY (V/m) @ t=0.96
0
% es.tEZ (V/m) @ t=0.96
-12.316973976929868
% es.Ex (V/m) @ t=0.96
11.244598658632079
% es.Ey (V/m) @ t=0.96
3.362527066888834
% es.Ez (V/m) @ t=0.96
-12.316973976929912
% es.tEx (V/m) @ t=0.96
11.244598658632054
% es.tEy (V/m) @ t=0.96
0
% es.tEz (V/m) @ t=0.96
-12.316973976929868
% V (V) @ t=0.96
0.015177892924773593
% es.normE (V/m) @ t=0.98
17.874868694486977
% es.EX (V/m) @ t=0.98
11.343382327278551
% es.EY (V/m) @ t=0.98
3.3920668307526363
% es.EZ (V/m) @ t=0.98
-12.425178448801638
% es.tEX (V/m) @ t=0.98
11.343382327278533
% es.tEY (V/m) @ t=0.98
0
% es.tEZ (V/m) @ t=0.98
-12.425178448801608
% es.Ex (V/m) @ t=0.98
11.343382327278551
% es.Ey (V/m) @ t=0.98
3.3920668307526363
% es.Ez (V/m) @ t=0.98
-12.425178448801638
% es.tEx (V/m) @ t=0.98
11.343382327278533
% es.tEy (V/m) @ t=0.98
0
% es.tEz (V/m) @ t=0.98
-12.425178448801608
% V (V) @ t=0.98
0.015311230530220874
% es.normE (V/m) @ t=1
18.03053170930307
% es.EX (V/m) @ t=1
11.442165995925052
% es.EY (V/m) @ t=1
3.4216065946164953
% es.EZ (V/m) @ t=1
-12.533382920673356
% es.tEX (V/m) @ t=1
11.442165995925018
% es.tEY (V/m) @ t=1
0
% es.tEZ (V/m) @ t=1
-12.533382920673313
% es.Ex (V/m) @ t=1
11.442165995925052
% es.Ey (V/m) @ t=1
3.4216065946164953
% es.Ez (V/m) @ t=1
-12.533382920673356
% es.tEx (V/m) @ t=1
11.442165995925018
% es.tEy (V/m) @ t=1
0
% es.tEz (V/m) @ t=1
-12.533382920673313
% V (V) @ t=1
0.015444568135668154
% es.normE (V/m) @ t=1.02
18.186194724119176
% es.EX (V/m) @ t=1.02
11.540949664571544
% es.EY (V/m) @ t=1.02
3.4511463584803117
% es.EZ (V/m) @ t=1.02
-12.64158739254511
% es.tEX (V/m) @ t=1.02
11.54094966457151
% es.tEY (V/m) @ t=1.02
0
% es.tEZ (V/m) @ t=1.02
-12.641587392545095
% es.Ex (V/m) @ t=1.02
11.540949664571544
% es.Ey (V/m) @ t=1.02
3.4511463584803117
% es.Ez (V/m) @ t=1.02
-12.64158739254511
% es.tEx (V/m) @ t=1.02
11.54094966457151
% es.tEy (V/m) @ t=1.02
0
% es.tEz (V/m) @ t=1.02
-12.641587392545095
% V (V) @ t=1.02
0.015577905741115432
% es.normE (V/m) @ t=1.04
18.348816222089376
% es.EX (V/m) @ t=1.04
11.644149185438275
% es.EY (V/m) @ t=1.04
3.4820066242671714
% es.EZ (V/m) @ t=1.04
-12.754628843440434
% es.tEX (V/m) @ t=1.04
11.644149185438241
% es.tEY (V/m) @ t=1.04
0
% es.tEZ (V/m) @ t=1.04
-12.754628843440418
% es.Ex (V/m) @ t=1.04
11.644149185438275
% es.Ey (V/m) @ t=1.04
3.4820066242671714
% es.Ez (V/m) @ t=1.04
-12.754628843440434
% es.tEx (V/m) @ t=1.04
11.644149185438241
% es.tEy (V/m) @ t=1.04
0
% es.tEz (V/m) @ t=1.04
-12.754628843440418
% V (V) @ t=1.04
0.01571720381497864