% Model:              1 neuron.mph
% Version:            COMSOL 6.1.0.252
% Date:               Mar 22 2023, 18:25
% Dimension:          0
% Nodes:              14017
% Expressions:        14017
% Description:        Electric field norm, Electric field, X component, Electric field, Y component, Electric field, Z component, Tangential electric field, X component, Tangential electric field, Y component, Tangential electric field, Z component, Electric field, x component, Electric field, y component, Electric field, z component, Tangential electric field, x component, Tangential electric field, y component, Tangential electric field, z component, Electric potential
% Length unit:        mm
% x
1.66
% y
12.200000000000001
% z
1.66
% es.normE (V/m) @ t=0
37.58905074573043
% es.EX (V/m) @ t=0
-17.751716056837907
% es.EY (V/m) @ t=0
14.24236928336964
% es.EZ (V/m) @ t=0
17.073105023882242
% es.tEX (V/m) @ t=0
-17.75171605683788
% es.tEY (V/m) @ t=0
0
% es.tEZ (V/m) @ t=0
17.073105023882192
% es.Ex (V/m) @ t=0
-17.751716056837907
% es.Ey (V/m) @ t=0
14.24236928336964
% es.Ez (V/m) @ t=0
17.073105023882242
% es.tEx (V/m) @ t=0
-17.75171605683788
% es.tEy (V/m) @ t=0
0
% es.tEz (V/m) @ t=0
17.073105023882192
% V (V) @ t=0
0.011797161462787248
% es.normE (V/m) @ t=0.02
32.46610870055312
% es.EX (V/m) @ t=0.02
-15.332367708874457
% es.EY (V/m) @ t=0.02
12.301303209246456
% es.EZ (V/m) @ t=0.02
14.746243026208965
% es.tEX (V/m) @ t=0.02
-15.33236770887445
% es.tEY (V/m) @ t=0.02
0
% es.tEZ (V/m) @ t=0.02
14.746243026208958
% es.Ex (V/m) @ t=0.02
-15.332367708874457
% es.Ey (V/m) @ t=0.02
12.301303209246456
% es.Ez (V/m) @ t=0.02
14.746243026208965
% es.tEx (V/m) @ t=0.02
-15.33236770887445
% es.tEy (V/m) @ t=0.02
0
% es.tEz (V/m) @ t=0.02
14.746243026208958
% V (V) @ t=0.02
0.010189348165589779
% es.normE (V/m) @ t=0.04
32.764840355113996
% es.EX (V/m) @ t=0.04
-15.47344598331982
% es.EY (V/m) @ t=0.04
12.414491655558663
% es.EZ (V/m) @ t=0.04
14.881928238359446
% es.tEX (V/m) @ t=0.04
-15.473445983319827
% es.tEY (V/m) @ t=0.04
0
% es.tEZ (V/m) @ t=0.04
14.88192823835945
% es.Ex (V/m) @ t=0.04
-15.47344598331982
% es.Ey (V/m) @ t=0.04
12.414491655558663
% es.Ez (V/m) @ t=0.04
14.881928238359446
% es.tEx (V/m) @ t=0.04
-15.473445983319827
% es.tEy (V/m) @ t=0.04
0
% es.tEz (V/m) @ t=0.04
14.88192823835945
% V (V) @ t=0.04
0.010283103813917288
% es.normE (V/m) @ t=0.06
33.06574480926609
% es.EX (V/m) @ t=0.06
-15.615550324655601
% es.EY (V/m) @ t=0.06
12.528503353608393
% es.EZ (V/m) @ t=0.06
15.018600416492838
% es.tEX (V/m) @ t=0.06
-15.615550324655601
% es.tEY (V/m) @ t=0.06
0
% es.tEZ (V/m) @ t=0.06
15.018600416492887
% es.Ex (V/m) @ t=0.06
-15.615550324655601
% es.Ey (V/m) @ t=0.06
12.528503353608393
% es.Ez (V/m) @ t=0.06
15.018600416492838
% es.tEx (V/m) @ t=0.06
-15.615550324655601
% es.tEy (V/m) @ t=0.06
0
% es.tEz (V/m) @ t=0.06
15.018600416492887
% V (V) @ t=0.06
0.010377541399533476
% es.normE (V/m) @ t=0.08
33.37242742024751
% es.EX (V/m) @ t=0.08
-15.760383571546328
% es.EY (V/m) @ t=0.08
12.644704410994166
% es.EZ (V/m) @ t=0.08
15.157896892033058
% es.tEX (V/m) @ t=0.08
-15.760383571546342
% es.tEY (V/m) @ t=0.08
0
% es.tEZ (V/m) @ t=0.08
15.157896892033051
% es.Ex (V/m) @ t=0.08
-15.760383571546328
% es.Ey (V/m) @ t=0.08
12.644704410994166
% es.Ez (V/m) @ t=0.08
15.157896892033058
% es.tEx (V/m) @ t=0.08
-15.760383571546342
% es.tEy (V/m) @ t=0.08
0
% es.tEz (V/m) @ t=0.08
15.157896892033051
% V (V) @ t=0.08
0.010473792403666842
% es.normE (V/m) @ t=0.1
33.680656870698584
% es.EX (V/m) @ t=0.1
-15.90594735915208
% es.EY (V/m) @ t=0.1
12.761491570061445
% es.EZ (V/m) @ t=0.1
15.297895904200281
% es.tEX (V/m) @ t=0.1
-15.90594735915203
% es.tEY (V/m) @ t=0.1
0
% es.tEZ (V/m) @ t=0.1
15.297895904200288
% es.Ex (V/m) @ t=0.1
-15.90594735915208
% es.Ey (V/m) @ t=0.1
12.761491570061445
% es.Ez (V/m) @ t=0.1
15.297895904200281
% es.tEx (V/m) @ t=0.1
-15.90594735915203
% es.tEy (V/m) @ t=0.1
0
% es.tEz (V/m) @ t=0.1
15.297895904200288
% V (V) @ t=0.1
0.01057052886837527
% es.normE (V/m) @ t=0.12
33.988886321149565
% es.EX (V/m) @ t=0.12
-16.051511146757747
% es.EY (V/m) @ t=0.12
12.878278729128773
% es.EZ (V/m) @ t=0.12
15.437894916367348
% es.tEX (V/m) @ t=0.12
-16.051511146757754
% es.tEY (V/m) @ t=0.12
0
% es.tEZ (V/m) @ t=0.12
15.437894916367327
% es.Ex (V/m) @ t=0.12
-16.051511146757747
% es.Ey (V/m) @ t=0.12
12.878278729128773
% es.Ez (V/m) @ t=0.12
15.437894916367348
% es.tEx (V/m) @ t=0.12
-16.051511146757754
% es.tEy (V/m) @ t=0.12
0
% es.tEz (V/m) @ t=0.12
15.437894916367327
% V (V) @ t=0.12
0.010667265333083698
% es.normE (V/m) @ t=0.14
34.30613856479039
% es.EX (V/m) @ t=0.14
-16.201335735825396
% es.EY (V/m) @ t=0.14
12.998484518768464
% es.EZ (V/m) @ t=0.14
15.581992486654414
% es.tEX (V/m) @ t=0.14
-16.201335735825367
% es.tEY (V/m) @ t=0.14
0
% es.tEZ (V/m) @ t=0.14
15.581992486654428
% es.Ex (V/m) @ t=0.14
-16.201335735825396
% es.Ey (V/m) @ t=0.14
12.998484518768464
% es.Ez (V/m) @ t=0.14
15.581992486654414
% es.tEx (V/m) @ t=0.14
-16.201335735825367
% es.tEy (V/m) @ t=0.14
0
% es.tEz (V/m) @ t=0.14
15.581992486654428
% V (V) @ t=0.14
0.010766833631501159
% es.normE (V/m) @ t=0.16
34.629820275514625
% es.EX (V/m) @ t=0.16
-16.354196489212868
% es.EY (V/m) @ t=0.16
13.121126358118417
% es.EZ (V/m) @ t=0.16
15.729010609808725
% es.tEX (V/m) @ t=0.16
-16.35419648921288
% es.tEY (V/m) @ t=0.16
0
% es.tEZ (V/m) @ t=0.16
15.729010609808682
% es.Ex (V/m) @ t=0.16
-16.354196489212868
% es.Ey (V/m) @ t=0.16
13.121126358118417
% es.Ez (V/m) @ t=0.16
15.729010609808725
% es.tEx (V/m) @ t=0.16
-16.35419648921288
% es.tEy (V/m) @ t=0.16
0
% es.tEz (V/m) @ t=0.16
15.729010609808682
% V (V) @ t=0.16
0.01086841983958747
% es.normE (V/m) @ t=0.18
34.95350198623874
% es.EX (V/m) @ t=0.18
-16.50705724260031
% es.EY (V/m) @ t=0.18
13.243768197468285
% es.EZ (V/m) @ t=0.18
15.876028732962958
% es.tEX (V/m) @ t=0.18
-16.507057242600297
% es.tEY (V/m) @ t=0.18
0
% es.tEZ (V/m) @ t=0.18
15.876028732962936
% es.Ex (V/m) @ t=0.18
-16.50705724260031
% es.Ey (V/m) @ t=0.18
13.243768197468285
% es.Ez (V/m) @ t=0.18
15.876028732962958
% es.tEx (V/m) @ t=0.18
-16.507057242600297
% es.tEy (V/m) @ t=0.18
0
% es.tEz (V/m) @ t=0.18
15.876028732962936
% V (V) @ t=0.18
0.01097000604767378
% es.normE (V/m) @ t=0.2
35.277183696962965
% es.EX (V/m) @ t=0.2
-16.659917995987783
% es.EY (V/m) @ t=0.2
13.366410036818245
% es.EZ (V/m) @ t=0.2
16.023046856117247
% es.tEX (V/m) @ t=0.2
-16.659917995987755
% es.tEY (V/m) @ t=0.2
0
% es.tEZ (V/m) @ t=0.2
16.02304685611722
% es.Ex (V/m) @ t=0.2
-16.659917995987783
% es.Ey (V/m) @ t=0.2
13.366410036818245
% es.Ez (V/m) @ t=0.2
16.023046856117247
% es.tEx (V/m) @ t=0.2
-16.659917995987755
% es.tEy (V/m) @ t=0.2
0
% es.tEz (V/m) @ t=0.2
16.02304685611722
% V (V) @ t=0.2
0.011071592255760092
% es.normE (V/m) @ t=0.22
35.60086540768721
% es.EX (V/m) @ t=0.22
-16.812778749375255
% es.EY (V/m) @ t=0.22
13.489051876168183
% es.EZ (V/m) @ t=0.22
16.170064979271558
% es.tEX (V/m) @ t=0.22
-16.812778749375298
% es.tEY (V/m) @ t=0.22
0
% es.tEZ (V/m) @ t=0.22
16.1700649792715
% es.Ex (V/m) @ t=0.22
-16.812778749375255
% es.Ey (V/m) @ t=0.22
13.489051876168183
% es.Ez (V/m) @ t=0.22
16.170064979271558
% es.tEx (V/m) @ t=0.22
-16.812778749375298
% es.tEy (V/m) @ t=0.22
0
% es.tEz (V/m) @ t=0.22
16.1700649792715
% V (V) @ t=0.22
0.011173178463846401
% es.normE (V/m) @ t=0.24
35.92454711841145
% es.EX (V/m) @ t=0.24
-16.965639502762727
% es.EY (V/m) @ t=0.24
13.611693715518136
% es.EZ (V/m) @ t=0.24
16.31708310242582
% es.tEX (V/m) @ t=0.24
-16.965639502762713
% es.tEY (V/m) @ t=0.24
0
% es.tEZ (V/m) @ t=0.24
16.317083102425784
% es.Ex (V/m) @ t=0.24
-16.965639502762727
% es.Ey (V/m) @ t=0.24
13.611693715518136
% es.Ez (V/m) @ t=0.24
16.31708310242582
% es.tEx (V/m) @ t=0.24
-16.965639502762713
% es.tEy (V/m) @ t=0.24
0
% es.tEz (V/m) @ t=0.24
16.317083102425784
% V (V) @ t=0.24
0.011274764671932712
% es.normE (V/m) @ t=0.26
36.25423999536517
% es.EX (V/m) @ t=0.26
-17.121338402445033
% es.EY (V/m) @ t=0.26
13.736612985128552
% es.EZ (V/m) @ t=0.26
16.466832397322236
% es.tEX (V/m) @ t=0.26
-17.121338402445048
% es.tEY (V/m) @ t=0.26
0
% es.tEZ (V/m) @ t=0.26
16.466832397322264
% es.Ex (V/m) @ t=0.26
-17.121338402445033
% es.Ey (V/m) @ t=0.26
13.736612985128552
% es.Ez (V/m) @ t=0.26
16.466832397322236
% es.tEx (V/m) @ t=0.26
-17.121338402445048
% es.tEy (V/m) @ t=0.26
0
% es.tEz (V/m) @ t=0.26
16.466832397322264
% V (V) @ t=0.26
0.011378237622704193
% es.normE (V/m) @ t=0.28
36.61245120188491
% es.EX (V/m) @ t=0.28
-17.290502108838837
% es.EY (V/m) @ t=0.28
13.872336898006601
% es.EZ (V/m) @ t=0.28
16.629538987503402
% es.tEX (V/m) @ t=0.28
-17.29050210883888
% es.tEY (V/m) @ t=0.28
0
% es.tEZ (V/m) @ t=0.28
16.629538987503395
% es.Ex (V/m) @ t=0.28
-17.290502108838837
% es.Ey (V/m) @ t=0.28
13.872336898006601
% es.Ez (V/m) @ t=0.28
16.629538987503402
% es.tEx (V/m) @ t=0.28
-17.29050210883888
% es.tEy (V/m) @ t=0.28
0
% es.tEz (V/m) @ t=0.28
16.629538987503395
% V (V) @ t=0.28
0.01149066170669101
% es.normE (V/m) @ t=0.3
36.97066240840613
% es.EX (V/m) @ t=0.3
-17.459665815232697
% es.EY (V/m) @ t=0.3
14.008060810884707
% es.EZ (V/m) @ t=0.3
16.792245577684547
% es.tEX (V/m) @ t=0.3
-17.45966581523274
% es.tEY (V/m) @ t=0.3
0
% es.tEZ (V/m) @ t=0.3
16.792245577684525
% es.Ex (V/m) @ t=0.3
-17.459665815232697
% es.Ey (V/m) @ t=0.3
14.008060810884707
% es.Ez (V/m) @ t=0.3
16.792245577684547
% es.tEx (V/m) @ t=0.3
-17.45966581523274
% es.tEy (V/m) @ t=0.3
0
% es.tEz (V/m) @ t=0.3
16.792245577684525
% V (V) @ t=0.3
0.011603085790677828
% es.normE (V/m) @ t=0.32
37.32887361492874
% es.EX (V/m) @ t=0.32
-17.628829521626542
% es.EY (V/m) @ t=0.32
14.14378472376277
% es.EZ (V/m) @ t=0.32
16.954952167865784
% es.tEX (V/m) @ t=0.32
-17.62882952162655
% es.tEY (V/m) @ t=0.32
0
% es.tEZ (V/m) @ t=0.32
16.95495216786577
% es.Ex (V/m) @ t=0.32
-17.628829521626542
% es.Ey (V/m) @ t=0.32
14.14378472376277
% es.Ez (V/m) @ t=0.32
16.954952167865784
% es.tEx (V/m) @ t=0.32
-17.62882952162655
% es.tEy (V/m) @ t=0.32
0
% es.tEz (V/m) @ t=0.32
16.95495216786577
% V (V) @ t=0.32
0.011715509874664642
% es.normE (V/m) @ t=0.34
37.68708482145249
% es.EX (V/m) @ t=0.34
-17.797993228020417
% es.EY (V/m) @ t=0.34
14.279508636640827
% es.EZ (V/m) @ t=0.34
17.1176587580469
% es.tEX (V/m) @ t=0.34
-17.79799322802039
% es.tEY (V/m) @ t=0.34
0
% es.tEZ (V/m) @ t=0.34
17.117658758046844
% es.Ex (V/m) @ t=0.34
-17.797993228020417
% es.Ey (V/m) @ t=0.34
14.279508636640827
% es.Ez (V/m) @ t=0.34
17.1176587580469
% es.tEx (V/m) @ t=0.34
-17.79799322802039
% es.tEy (V/m) @ t=0.34
0
% es.tEz (V/m) @ t=0.34
17.117658758046844
% V (V) @ t=0.34
0.011827933958651459
% es.normE (V/m) @ t=0.36
38.04529602797773
% es.EX (V/m) @ t=0.36
-17.967156934414263
% es.EY (V/m) @ t=0.36
14.415232549518898
% es.EZ (V/m) @ t=0.36
17.280365348228123
% es.tEX (V/m) @ t=0.36
-17.967156934414263
% es.tEY (V/m) @ t=0.36
0
% es.tEZ (V/m) @ t=0.36
17.280365348228088
% es.Ex (V/m) @ t=0.36
-17.967156934414263
% es.Ey (V/m) @ t=0.36
14.415232549518898
% es.Ez (V/m) @ t=0.36
17.280365348228123
% es.tEx (V/m) @ t=0.36
-17.967156934414263
% es.tEy (V/m) @ t=0.36
0
% es.tEz (V/m) @ t=0.36
17.280365348228088
% V (V) @ t=0.36
0.011940358042638276
% es.normE (V/m) @ t=0.38
38.40350723450409
% es.EX (V/m) @ t=0.38
-18.136320640808094
% es.EY (V/m) @ t=0.38
14.550956462396954
% es.EZ (V/m) @ t=0.38
17.443071938409282
% es.tEX (V/m) @ t=0.38
-18.136320640808094
% es.tEY (V/m) @ t=0.38
0
% es.tEZ (V/m) @ t=0.38
17.443071938409332
% es.Ex (V/m) @ t=0.38
-18.136320640808094
% es.Ey (V/m) @ t=0.38
14.550956462396954
% es.Ez (V/m) @ t=0.38
17.443071938409282
% es.tEx (V/m) @ t=0.38
-18.136320640808094
% es.tEy (V/m) @ t=0.38
0
% es.tEz (V/m) @ t=0.38
17.443071938409332
% V (V) @ t=0.38
0.01205278212662509
% es.normE (V/m) @ t=0.4
38.761718441031704
% es.EX (V/m) @ t=0.4
-18.30548434720194
% es.EY (V/m) @ t=0.4
14.686680375275017
% es.EZ (V/m) @ t=0.4
17.60577852859047
% es.tEX (V/m) @ t=0.4
-18.30548434720192
% es.tEY (V/m) @ t=0.4
0
% es.tEZ (V/m) @ t=0.4
17.60577852859052
% es.Ex (V/m) @ t=0.4
-18.30548434720194
% es.Ey (V/m) @ t=0.4
14.686680375275017
% es.Ez (V/m) @ t=0.4
17.60577852859047
% es.tEx (V/m) @ t=0.4
-18.30548434720192
% es.tEy (V/m) @ t=0.4
0
% es.tEz (V/m) @ t=0.4
17.60577852859052
% V (V) @ t=0.4
0.012165206210611906
% es.normE (V/m) @ t=0.42
39.11992964756058
% es.EX (V/m) @ t=0.42
-18.4746480535958
% es.EY (V/m) @ t=0.42
14.822404288153109
% es.EZ (V/m) @ t=0.42
17.76848511877165
% es.tEX (V/m) @ t=0.42
-18.474648053595807
% es.tEY (V/m) @ t=0.42
0
% es.tEZ (V/m) @ t=0.42
17.76848511877165
% es.Ex (V/m) @ t=0.42
-18.4746480535958
% es.Ey (V/m) @ t=0.42
14.822404288153109
% es.Ez (V/m) @ t=0.42
17.76848511877165
% es.tEx (V/m) @ t=0.42
-18.474648053595807
% es.tEy (V/m) @ t=0.42
0
% es.tEz (V/m) @ t=0.42
17.76848511877165
% V (V) @ t=0.42
0.012277630294598723
% es.normE (V/m) @ t=0.44
39.478140854090555
% es.EX (V/m) @ t=0.44
-18.64381175998966
% es.EY (V/m) @ t=0.44
14.958128201031158
% es.EZ (V/m) @ t=0.44
17.931191708952866
% es.tEX (V/m) @ t=0.44
-18.643811759989617
% es.tEY (V/m) @ t=0.44
0
% es.tEZ (V/m) @ t=0.44
17.931191708952895
% es.Ex (V/m) @ t=0.44
-18.64381175998966
% es.Ey (V/m) @ t=0.44
14.958128201031158
% es.Ez (V/m) @ t=0.44
17.931191708952866
% es.tEx (V/m) @ t=0.44
-18.643811759989617
% es.tEy (V/m) @ t=0.44
0
% es.tEz (V/m) @ t=0.44
17.931191708952895
% V (V) @ t=0.44
0.012390054378585539
% es.normE (V/m) @ t=0.46
39.83635206062155
% es.EX (V/m) @ t=0.46
-18.81297546638342
% es.EY (V/m) @ t=0.46
15.093852113909236
% es.EZ (V/m) @ t=0.46
18.093898299134025
% es.tEX (V/m) @ t=0.46
-18.81297546638342
% es.tEY (V/m) @ t=0.46
0
% es.tEZ (V/m) @ t=0.46
18.09389829913397
% es.Ex (V/m) @ t=0.46
-18.81297546638342
% es.Ey (V/m) @ t=0.46
15.093852113909236
% es.Ez (V/m) @ t=0.46
18.093898299134025
% es.tEx (V/m) @ t=0.46
-18.81297546638342
% es.tEy (V/m) @ t=0.46
0
% es.tEz (V/m) @ t=0.46
18.09389829913397
% V (V) @ t=0.46
0.012502478462572353
% es.normE (V/m) @ t=0.48
40.194563267153725
% es.EX (V/m) @ t=0.48
-18.982139172777295
% es.EY (V/m) @ t=0.48
15.2295760267873
% es.EZ (V/m) @ t=0.48
18.256604889315156
% es.tEX (V/m) @ t=0.48
-18.98213917277728
% es.tEY (V/m) @ t=0.48
0
% es.tEZ (V/m) @ t=0.48
18.256604889315213
% es.Ex (V/m) @ t=0.48
-18.982139172777295
% es.Ey (V/m) @ t=0.48
15.2295760267873
% es.Ez (V/m) @ t=0.48
18.256604889315156
% es.tEx (V/m) @ t=0.48
-18.98213917277728
% es.tEy (V/m) @ t=0.48
0
% es.tEz (V/m) @ t=0.48
18.256604889315213
% V (V) @ t=0.48
0.01261490254655917
% es.normE (V/m) @ t=0.5
40.55277447368694
% es.EX (V/m) @ t=0.5
-19.15130287917117
% es.EY (V/m) @ t=0.5
15.365299939665363
% es.EZ (V/m) @ t=0.5
18.419311479496386
% es.tEX (V/m) @ t=0.5
-19.151302879171148
% es.tEY (V/m) @ t=0.5
0
% es.tEZ (V/m) @ t=0.5
18.419311479496344
% es.Ex (V/m) @ t=0.5
-19.15130287917117
% es.Ey (V/m) @ t=0.5
15.365299939665363
% es.Ez (V/m) @ t=0.5
18.419311479496386
% es.tEx (V/m) @ t=0.5
-19.151302879171148
% es.tEy (V/m) @ t=0.5
0
% es.tEz (V/m) @ t=0.5
18.419311479496344
% V (V) @ t=0.5
0.01272732663054599
% es.normE (V/m) @ t=0.52
40.92464181481983
% es.EX (V/m) @ t=0.52
-19.32692856869174
% es.EY (V/m) @ t=0.52
15.506201580662264
% es.EZ (V/m) @ t=0.52
18.58820408702306
% es.tEX (V/m) @ t=0.52
-19.326928568691784
% es.tEY (V/m) @ t=0.52
0
% es.tEZ (V/m) @ t=0.52
18.58820408702303
% es.Ex (V/m) @ t=0.52
-19.32692856869174
% es.Ey (V/m) @ t=0.52
15.506201580662264
% es.Ez (V/m) @ t=0.52
18.58820408702306
% es.tEx (V/m) @ t=0.52
-19.326928568691784
% es.tEy (V/m) @ t=0.52
0
% es.tEz (V/m) @ t=0.52
18.58820408702303
% V (V) @ t=0.52
0.012844033506853605
% es.normE (V/m) @ t=0.54
41.32138229187366
% es.EX (V/m) @ t=0.54
-19.514324044394968
% es.EY (V/m) @ t=0.54
15.656533879658987
% es.EZ (V/m) @ t=0.54
18.76836383964283
% es.tEX (V/m) @ t=0.54
-19.514324044394925
% es.tEY (V/m) @ t=0.54
0
% es.tEZ (V/m) @ t=0.54
18.76836383964286
% es.Ex (V/m) @ t=0.54
-19.514324044394968
% es.Ey (V/m) @ t=0.54
15.656533879658987
% es.Ez (V/m) @ t=0.54
18.76836383964283
% es.tEx (V/m) @ t=0.54
-19.514324044394925
% es.tEy (V/m) @ t=0.54
0
% es.tEz (V/m) @ t=0.54
18.76836383964286
% V (V) @ t=0.54
0.01296854101477718
% es.normE (V/m) @ t=0.56
41.71812276899947
% es.EX (V/m) @ t=0.56
-19.701719520098152
% es.EY (V/m) @ t=0.56
15.806866178655767
% es.EZ (V/m) @ t=0.56
18.94852359226249
% es.tEX (V/m) @ t=0.56
-19.701719520098123
% es.tEY (V/m) @ t=0.56
0
% es.tEZ (V/m) @ t=0.56
18.948523592262518
% es.Ex (V/m) @ t=0.56
-19.701719520098152
% es.Ey (V/m) @ t=0.56
15.806866178655767
% es.Ez (V/m) @ t=0.56
18.94852359226249
% es.tEx (V/m) @ t=0.56
-19.701719520098123
% es.tEy (V/m) @ t=0.56
0
% es.tEz (V/m) @ t=0.56
18.948523592262518
% V (V) @ t=0.56
0.013093048522700754
% es.normE (V/m) @ t=0.58
42.11486324619526
% es.EX (V/m) @ t=0.58
-19.88911499580135
% es.EY (V/m) @ t=0.58
15.957198477652533
% es.EZ (V/m) @ t=0.58
19.12868334488212
% es.tEX (V/m) @ t=0.58
-19.889114995801364
% es.tEY (V/m) @ t=0.58
0
% es.tEZ (V/m) @ t=0.58
19.128683344882177
% es.Ex (V/m) @ t=0.58
-19.88911499580135
% es.Ey (V/m) @ t=0.58
15.957198477652533
% es.Ez (V/m) @ t=0.58
19.12868334488212
% es.tEx (V/m) @ t=0.58
-19.889114995801364
% es.tEy (V/m) @ t=0.58
0
% es.tEz (V/m) @ t=0.58
19.128683344882177
% V (V) @ t=0.58
0.013217556030624331
% es.normE (V/m) @ t=0.6
42.51160372345923
% es.EX (V/m) @ t=0.6
-20.076510471504577
% es.EY (V/m) @ t=0.6
16.10753077664929
% es.EZ (V/m) @ t=0.6
19.30884309750192
% es.tEX (V/m) @ t=0.6
-20.076510471504562
% es.tEY (V/m) @ t=0.6
0
% es.tEZ (V/m) @ t=0.6
19.30884309750195
% es.Ex (V/m) @ t=0.6
-20.076510471504577
% es.Ey (V/m) @ t=0.6
16.10753077664929
% es.Ez (V/m) @ t=0.6
19.30884309750192
% es.tEx (V/m) @ t=0.6
-20.076510471504562
% es.tEy (V/m) @ t=0.6
0
% es.tEz (V/m) @ t=0.6
19.30884309750195
% V (V) @ t=0.6
0.01334206353854791
% es.normE (V/m) @ t=0.62
42.9083442007893
% es.EX (V/m) @ t=0.62
-20.26390594720776
% es.EY (V/m) @ t=0.62
16.25786307564602
% es.EZ (V/m) @ t=0.62
19.4890028501216
% es.tEX (V/m) @ t=0.62
-20.263905947207746
% es.tEY (V/m) @ t=0.62
0
% es.tEZ (V/m) @ t=0.62
19.489002850121608
% es.Ex (V/m) @ t=0.62
-20.26390594720776
% es.Ey (V/m) @ t=0.62
16.25786307564602
% es.Ez (V/m) @ t=0.62
19.4890028501216
% es.tEx (V/m) @ t=0.62
-20.263905947207746
% es.tEy (V/m) @ t=0.62
0
% es.tEz (V/m) @ t=0.62
19.489002850121608
% V (V) @ t=0.62
0.013466571046471486
% es.normE (V/m) @ t=0.64
43.30508467818387
% es.EX (V/m) @ t=0.64
-20.451301422910902
% es.EY (V/m) @ t=0.64
16.408195374642858
% es.EZ (V/m) @ t=0.64
19.66916260274138
% es.tEX (V/m) @ t=0.64
-20.45130142291096
% es.tEY (V/m) @ t=0.64
0
% es.tEZ (V/m) @ t=0.64
19.669162602741437
% es.Ex (V/m) @ t=0.64
-20.451301422910902
% es.Ey (V/m) @ t=0.64
16.408195374642858
% es.Ez (V/m) @ t=0.64
19.66916260274138
% es.tEx (V/m) @ t=0.64
-20.45130142291096
% es.tEy (V/m) @ t=0.64
0
% es.tEz (V/m) @ t=0.64
19.669162602741437
% V (V) @ t=0.64
0.01359107855439506
% es.normE (V/m) @ t=0.66
43.701825155640876
% es.EX (V/m) @ t=0.66
-20.638696898614114
% es.EY (V/m) @ t=0.66
16.558527673639603
% es.EZ (V/m) @ t=0.66
19.849322355361096
% es.tEX (V/m) @ t=0.66
-20.638696898614086
% es.tEY (V/m) @ t=0.66
0
% es.tEZ (V/m) @ t=0.66
19.84932235536104
% es.Ex (V/m) @ t=0.66
-20.638696898614114
% es.Ey (V/m) @ t=0.66
16.558527673639603
% es.Ez (V/m) @ t=0.66
19.849322355361096
% es.tEx (V/m) @ t=0.66
-20.638696898614086
% es.tEy (V/m) @ t=0.66
0
% es.tEz (V/m) @ t=0.66
19.84932235536104
% V (V) @ t=0.66
0.01371558606231864
% es.normE (V/m) @ t=0.68
44.098565633158955
% es.EX (V/m) @ t=0.68
-20.826092374317355
% es.EY (V/m) @ t=0.68
16.708859972636404
% es.EZ (V/m) @ t=0.68
20.02948210798086
% es.tEX (V/m) @ t=0.68
-20.826092374317348
% es.tEY (V/m) @ t=0.68
0
% es.tEZ (V/m) @ t=0.68
20.02948210798087
% es.Ex (V/m) @ t=0.68
-20.826092374317355
% es.Ey (V/m) @ t=0.68
16.708859972636404
% es.Ez (V/m) @ t=0.68
20.02948210798086
% es.tEx (V/m) @ t=0.68
-20.826092374317348
% es.tEy (V/m) @ t=0.68
0
% es.tEz (V/m) @ t=0.68
20.02948210798087
% V (V) @ t=0.68
0.013840093570242216
% es.normE (V/m) @ t=0.7
44.49530611073613
% es.EX (V/m) @ t=0.7
-21.01348785002054
% es.EY (V/m) @ t=0.7
16.85919227163309
% es.EZ (V/m) @ t=0.7
20.20964186060055
% es.tEX (V/m) @ t=0.7
-21.01348785002058
% es.tEY (V/m) @ t=0.7
0
% es.tEZ (V/m) @ t=0.7
20.209641860600527
% es.Ex (V/m) @ t=0.7
-21.01348785002054
% es.Ey (V/m) @ t=0.7
16.85919227163309
% es.Ez (V/m) @ t=0.7
20.20964186060055
% es.tEx (V/m) @ t=0.7
-21.01348785002058
% es.tEy (V/m) @ t=0.7
0
% es.tEz (V/m) @ t=0.7
20.209641860600527
% V (V) @ t=0.7
0.01396460107816579
% es.normE (V/m) @ t=0.72
44.892046588371215
% es.EX (V/m) @ t=0.72
-21.200883325723765
% es.EY (V/m) @ t=0.72
17.009524570629928
% es.EZ (V/m) @ t=0.72
20.3898016132203
% es.tEX (V/m) @ t=0.72
-21.20088332572373
% es.tEY (V/m) @ t=0.72
0
% es.tEZ (V/m) @ t=0.72
20.3898016132203
% es.Ex (V/m) @ t=0.72
-21.200883325723765
% es.Ey (V/m) @ t=0.72
17.009524570629928
% es.Ez (V/m) @ t=0.72
20.3898016132203
% es.tEx (V/m) @ t=0.72
-21.20088332572373
% es.tEy (V/m) @ t=0.72
0
% es.tEz (V/m) @ t=0.72
20.3898016132203
% V (V) @ t=0.72
0.014089108586089368
% es.normE (V/m) @ t=0.74
45.28878706606233
% es.EX (V/m) @ t=0.74
-21.388278801426935
% es.EY (V/m) @ t=0.74
17.15985686962668
% es.EZ (V/m) @ t=0.74
20.56996136583998
% es.tEX (V/m) @ t=0.74
-21.388278801426978
% es.tEY (V/m) @ t=0.74
0
% es.tEZ (V/m) @ t=0.74
20.569961365840015
% es.Ex (V/m) @ t=0.74
-21.388278801426935
% es.Ey (V/m) @ t=0.74
17.15985686962668
% es.Ez (V/m) @ t=0.74
20.56996136583998
% es.tEx (V/m) @ t=0.74
-21.388278801426978
% es.tEy (V/m) @ t=0.74
0
% es.tEz (V/m) @ t=0.74
20.569961365840015
% V (V) @ t=0.74
0.014213616094012945
% es.normE (V/m) @ t=0.76
45.68552754380825
% es.EX (V/m) @ t=0.76
-21.57567427713012
% es.EY (V/m) @ t=0.76
17.310189168623438
% es.EZ (V/m) @ t=0.76
20.750121118459695
% es.tEX (V/m) @ t=0.76
-21.575674277130105
% es.tEY (V/m) @ t=0.76
0
% es.tEZ (V/m) @ t=0.76
20.750121118459674
% es.Ex (V/m) @ t=0.76
-21.57567427713012
% es.Ey (V/m) @ t=0.76
17.310189168623438
% es.Ez (V/m) @ t=0.76
20.750121118459695
% es.tEx (V/m) @ t=0.76
-21.575674277130105
% es.tEy (V/m) @ t=0.76
0
% es.tEz (V/m) @ t=0.76
20.750121118459674
% V (V) @ t=0.76
0.014338123601936521
% es.normE (V/m) @ t=0.78
46.105939674807786
% es.EX (V/m) @ t=0.78
-21.774208375052865
% es.EY (V/m) @ t=0.78
17.469479567797123
% es.EZ (V/m) @ t=0.78
20.94108552410755
% es.tEX (V/m) @ t=0.78
-21.774208375052936
% es.tEY (V/m) @ t=0.78
0
% es.tEZ (V/m) @ t=0.78
20.941085524107564
% es.Ex (V/m) @ t=0.78
-21.774208375052865
% es.Ey (V/m) @ t=0.78
17.469479567797123
% es.Ez (V/m) @ t=0.78
20.94108552410755
% es.tEx (V/m) @ t=0.78
-21.774208375052936
% es.tEy (V/m) @ t=0.78
0
% es.tEz (V/m) @ t=0.78
20.941085524107564
% V (V) @ t=0.78
0.01447007028657484
% es.normE (V/m) @ t=0.8
46.54694420473919
% es.EX (V/m) @ t=0.8
-21.982432161694078
% es.EY (V/m) @ t=0.8
17.636562780167296
% es.EZ (V/m) @ t=0.8
21.141449092640002
% es.tEX (V/m) @ t=0.8
-21.982432161694064
% es.tEY (V/m) @ t=0.8
0
% es.tEZ (V/m) @ t=0.8
21.141449092640016
% es.Ex (V/m) @ t=0.8
-21.982432161694078
% es.Ey (V/m) @ t=0.8
17.636562780167296
% es.Ez (V/m) @ t=0.8
21.141449092640002
% es.tEx (V/m) @ t=0.8
-21.982432161694064
% es.tEy (V/m) @ t=0.8
0
% es.tEz (V/m) @ t=0.8
21.141449092640016
% V (V) @ t=0.8
0.014608488445446304
% es.normE (V/m) @ t=0.82
46.9879487348077
% es.EX (V/m) @ t=0.82
-22.19065594833522
% es.EY (V/m) @ t=0.82
17.803645992537383
% es.EZ (V/m) @ t=0.82
21.341812661172483
% es.tEX (V/m) @ t=0.82
-22.190655948335277
% es.tEY (V/m) @ t=0.82
0
% es.tEZ (V/m) @ t=0.82
21.34181266117247
% es.Ex (V/m) @ t=0.82
-22.19065594833522
% es.Ey (V/m) @ t=0.82
17.803645992537383
% es.Ez (V/m) @ t=0.82
21.341812661172483
% es.tEx (V/m) @ t=0.82
-22.190655948335277
% es.tEy (V/m) @ t=0.82
0
% es.tEz (V/m) @ t=0.82
21.34181266117247
% V (V) @ t=0.82
0.01474690660431777
% es.normE (V/m) @ t=0.84
47.42895326500942
% es.EX (V/m) @ t=0.84
-22.398879734976433
% es.EY (V/m) @ t=0.84
17.97072920490745
% es.EZ (V/m) @ t=0.84
21.542176229704893
% es.tEX (V/m) @ t=0.84
-22.398879734976433
% es.tEY (V/m) @ t=0.84
0
% es.tEZ (V/m) @ t=0.84
21.542176229704864
% es.Ex (V/m) @ t=0.84
-22.398879734976433
% es.Ey (V/m) @ t=0.84
17.97072920490745
% es.Ez (V/m) @ t=0.84
21.542176229704893
% es.tEx (V/m) @ t=0.84
-22.398879734976433
% es.tEy (V/m) @ t=0.84
0
% es.tEz (V/m) @ t=0.84
21.542176229704864
% V (V) @ t=0.84
0.01488532476318924
% es.normE (V/m) @ t=0.86
47.869957795340746
% es.EX (V/m) @ t=0.86
-22.60710352161759
% es.EY (V/m) @ t=0.86
18.137812417277537
% es.EZ (V/m) @ t=0.86
21.742539798237352
% es.tEX (V/m) @ t=0.86
-22.60710352161756
% es.tEY (V/m) @ t=0.86
0
% es.tEZ (V/m) @ t=0.86
21.742539798237374
% es.Ex (V/m) @ t=0.86
-22.60710352161759
% es.Ey (V/m) @ t=0.86
18.137812417277537
% es.Ez (V/m) @ t=0.86
21.742539798237352
% es.tEx (V/m) @ t=0.86
-22.60710352161756
% es.tEy (V/m) @ t=0.86
0
% es.tEz (V/m) @ t=0.86
21.742539798237374
% V (V) @ t=0.86
0.015023742922060707
% es.normE (V/m) @ t=0.88
48.31096232579798
% es.EX (V/m) @ t=0.88
-22.815327308258702
% es.EY (V/m) @ t=0.88
18.304895629647653
% es.EZ (V/m) @ t=0.88
21.942903366769777
% es.tEX (V/m) @ t=0.88
-22.815327308258716
% es.tEY (V/m) @ t=0.88
0
% es.tEZ (V/m) @ t=0.88
21.94290336676977
% es.Ex (V/m) @ t=0.88
-22.815327308258702
% es.Ey (V/m) @ t=0.88
18.304895629647653
% es.Ez (V/m) @ t=0.88
21.942903366769777
% es.tEx (V/m) @ t=0.88
-22.815327308258716
% es.tEy (V/m) @ t=0.88
0
% es.tEz (V/m) @ t=0.88
21.94290336676977
% V (V) @ t=0.88
0.015162161080932173
% es.normE (V/m) @ t=0.9
48.751966856378054
% es.EX (V/m) @ t=0.9
-23.023551094899943
% es.EY (V/m) @ t=0.9
18.47197884201777
% es.EZ (V/m) @ t=0.9
22.143266935302314
% es.tEX (V/m) @ t=0.9
-23.023551094899915
% es.tEY (V/m) @ t=0.9
0
% es.tEZ (V/m) @ t=0.9
22.143266935302393
% es.Ex (V/m) @ t=0.9
-23.023551094899943
% es.Ey (V/m) @ t=0.9
18.47197884201777
% es.Ez (V/m) @ t=0.9
22.143266935302314
% es.tEx (V/m) @ t=0.9
-23.023551094899915
% es.tEy (V/m) @ t=0.9
0
% es.tEz (V/m) @ t=0.9
22.143266935302393
% V (V) @ t=0.9
0.01530057923980364
% es.normE (V/m) @ t=0.92
49.19297138707722
% es.EX (V/m) @ t=0.92
-23.23177488154103
% es.EY (V/m) @ t=0.92
18.63906205438785
% es.EZ (V/m) @ t=0.92
22.34363050383473
% es.tEX (V/m) @ t=0.92
-23.2317748815411
% es.tEY (V/m) @ t=0.92
0
% es.tEZ (V/m) @ t=0.92
22.343630503834788
% es.Ex (V/m) @ t=0.92
-23.23177488154103
% es.Ey (V/m) @ t=0.92
18.63906205438785
% es.Ez (V/m) @ t=0.92
22.34363050383473
% es.tEx (V/m) @ t=0.92
-23.2317748815411
% es.tEy (V/m) @ t=0.92
0
% es.tEz (V/m) @ t=0.92
22.343630503834788
% V (V) @ t=0.92
0.015438997398675108
% es.normE (V/m) @ t=0.94
49.633975917892556
% es.EX (V/m) @ t=0.94
-23.439998668182184
% es.EY (V/m) @ t=0.94
18.806145266757923
% es.EZ (V/m) @ t=0.94
22.543994072367212
% es.tEX (V/m) @ t=0.94
-23.439998668182177
% es.tEY (V/m) @ t=0.94
0
% es.tEZ (V/m) @ t=0.94
22.543994072367184
% es.Ex (V/m) @ t=0.94
-23.439998668182184
% es.Ey (V/m) @ t=0.94
18.806145266757923
% es.Ez (V/m) @ t=0.94
22.543994072367212
% es.tEx (V/m) @ t=0.94
-23.439998668182177
% es.tEy (V/m) @ t=0.94
0
% es.tEz (V/m) @ t=0.94
22.543994072367184
% V (V) @ t=0.94
0.015577415557546572
% es.normE (V/m) @ t=0.96
50.07498044882097
% es.EX (V/m) @ t=0.96
-23.648222454823326
% es.EY (V/m) @ t=0.96
18.97322847912804
% es.EZ (V/m) @ t=0.96
22.744357640899693
% es.tEX (V/m) @ t=0.96
-23.64822245482334
% es.tEY (V/m) @ t=0.96
0
% es.tEZ (V/m) @ t=0.96
22.744357640899636
% es.Ex (V/m) @ t=0.96
-23.648222454823326
% es.Ey (V/m) @ t=0.96
18.97322847912804
% es.Ez (V/m) @ t=0.96
22.744357640899693
% es.tEx (V/m) @ t=0.96
-23.64822245482334
% es.tEy (V/m) @ t=0.96
0
% es.tEz (V/m) @ t=0.96
22.744357640899636
% V (V) @ t=0.96
0.015715833716418038
% es.normE (V/m) @ t=0.98
50.51598497985964
% es.EX (V/m) @ t=0.98
-23.856446241464624
% es.EY (V/m) @ t=0.98
19.140311691498212
% es.EZ (V/m) @ t=0.98
22.944721209432174
% es.tEX (V/m) @ t=0.98
-23.85644624146464
% es.tEY (V/m) @ t=0.98
0
% es.tEZ (V/m) @ t=0.98
22.944721209432146
% es.Ex (V/m) @ t=0.98
-23.856446241464624
% es.Ey (V/m) @ t=0.98
19.140311691498212
% es.Ez (V/m) @ t=0.98
22.944721209432174
% es.tEx (V/m) @ t=0.98
-23.85644624146464
% es.tEy (V/m) @ t=0.98
0
% es.tEz (V/m) @ t=0.98
22.944721209432146
% V (V) @ t=0.98
0.015854251875289507
% es.normE (V/m) @ t=1
50.9569895110053
% es.EX (V/m) @ t=1
-24.064670028105695
% es.EY (V/m) @ t=1
19.30739490386828
% es.EZ (V/m) @ t=1
23.14508477796454
% es.tEX (V/m) @ t=1
-24.06467002810568
% es.tEY (V/m) @ t=1
0
% es.tEZ (V/m) @ t=1
23.14508477796454
% es.Ex (V/m) @ t=1
-24.064670028105695
% es.Ey (V/m) @ t=1
19.30739490386828
% es.Ez (V/m) @ t=1
23.14508477796454
% es.tEx (V/m) @ t=1
-24.06467002810568
% es.tEy (V/m) @ t=1
0
% es.tEz (V/m) @ t=1
23.14508477796454
% V (V) @ t=1
0.015992670034160973
% es.normE (V/m) @ t=1.02
51.39799404225549
% es.EX (V/m) @ t=1.02
-24.272893814746823
% es.EY (V/m) @ t=1.02
19.474478116238387
% es.EZ (V/m) @ t=1.02
23.345448346497022
% es.tEX (V/m) @ t=1.02
-24.272893814746794
% es.tEY (V/m) @ t=1.02
0
% es.tEZ (V/m) @ t=1.02
23.34544834649705
% es.Ex (V/m) @ t=1.02
-24.272893814746823
% es.Ey (V/m) @ t=1.02
19.474478116238387
% es.Ez (V/m) @ t=1.02
23.345448346497022
% es.tEx (V/m) @ t=1.02
-24.272893814746794
% es.tEy (V/m) @ t=1.02
0
% es.tEz (V/m) @ t=1.02
23.34544834649705
% V (V) @ t=1.02
0.01613108819303244
% es.normE (V/m) @ t=1.04
51.85410387844597
% es.EX (V/m) @ t=1.04
-24.488264634617792
% es.EY (V/m) @ t=1.04
19.64728834071046
% es.EZ (V/m) @ t=1.04
23.552655244448154
% es.tEX (V/m) @ t=1.04
-24.488264634617828
% es.tEY (V/m) @ t=1.04
0
% es.tEZ (V/m) @ t=1.04
23.552655244448147
% es.Ex (V/m) @ t=1.04
-24.488264634617792
% es.Ey (V/m) @ t=1.04
19.64728834071046
% es.Ez (V/m) @ t=1.04
23.552655244448154
% es.tEx (V/m) @ t=1.04