% Model:              1 neuron.mph
% Version:            COMSOL 6.1.0.252
% Date:               Mar 22 2023, 17:58
% Dimension:          0
% Nodes:              14017
% Expressions:        14017
% Description:        Electric field norm, Electric field, X component, Electric field, Y component, Electric field, Z component, Tangential electric field, X component, Tangential electric field, Y component, Tangential electric field, Z component, Electric field, x component, Electric field, y component, Electric field, z component, Tangential electric field, x component, Tangential electric field, y component, Tangential electric field, z component, Electric potential
% Length unit:        mm
% x
1
% y
12.2
% z
1
% es.normE (V/m) @ t=0
1.4465296318611636
% es.EX (V/m) @ t=0
0.9822106940129771
% es.EY (V/m) @ t=0
0.2789609669263413
% es.EZ (V/m) @ t=0
0.9979733310907619
% es.tEX (V/m) @ t=0
0.9822106940129629
% es.tEY (V/m) @ t=0
0
% es.tEZ (V/m) @ t=0
0.9979733310907335
% es.Ex (V/m) @ t=0
0.9822106940129771
% es.Ey (V/m) @ t=0
0.2789609669263413
% es.Ez (V/m) @ t=0
0.9979733310907619
% es.tEx (V/m) @ t=0
0.9822106940129629
% es.tEy (V/m) @ t=0
0
% es.tEz (V/m) @ t=0
0.9979733310907335
% V (V) @ t=0
0.013564510005750763
% es.normE (V/m) @ t=0.02
1.2493808780134534
% es.EX (V/m) @ t=0.02
0.848344363119292
% es.EY (V/m) @ t=0.02
0.24094113949304585
% es.EZ (V/m) @ t=0.02
0.8619586969870694
% es.tEX (V/m) @ t=0.02
0.8483443631192671
% es.tEY (V/m) @ t=0.02
0
% es.tEZ (V/m) @ t=0.02
0.8619586969870596
% es.Ex (V/m) @ t=0.02
0.848344363119292
% es.Ey (V/m) @ t=0.02
0.24094113949304585
% es.Ez (V/m) @ t=0.02
0.8619586969870694
% es.tEx (V/m) @ t=0.02
0.8483443631192671
% es.tEy (V/m) @ t=0.02
0
% es.tEz (V/m) @ t=0.02
0.8619586969870596
% V (V) @ t=0.02
0.01171579140070687
% es.normE (V/m) @ t=0.04
1.2608728478394362
% es.EX (V/m) @ t=0.04
0.856147546270666
% es.EY (V/m) @ t=0.04
0.24315734783680654
% es.EZ (V/m) @ t=0.04
0.8698871065792844
% es.tEX (V/m) @ t=0.04
0.856147546270634
% es.tEY (V/m) @ t=0.04
0
% es.tEZ (V/m) @ t=0.04
0.8698871065792844
% es.Ex (V/m) @ t=0.04
0.856147546270666
% es.Ey (V/m) @ t=0.04
0.24315734783680654
% es.Ez (V/m) @ t=0.04
0.8698871065792844
% es.tEx (V/m) @ t=0.04
0.856147546270634
% es.tEy (V/m) @ t=0.04
0
% es.tEz (V/m) @ t=0.04
0.8698871065792844
% V (V) @ t=0.04
0.011823554793607013
% es.normE (V/m) @ t=0.06
1.272447539948342
% es.EX (V/m) @ t=0.06
0.864006898840838
% es.EY (V/m) @ t=0.06
0.2453895090073317
% es.EZ (V/m) @ t=0.06
0.8778725869861548
% es.tEX (V/m) @ t=0.06
0.8640068988408132
% es.tEY (V/m) @ t=0.06
0
% es.tEZ (V/m) @ t=0.06
0.8778725869861432
% es.Ex (V/m) @ t=0.06
0.864006898840838
% es.Ey (V/m) @ t=0.06
0.2453895090073317
% es.Ez (V/m) @ t=0.06
0.8778725869861548
% es.tEx (V/m) @ t=0.06
0.8640068988408132
% es.tEy (V/m) @ t=0.06
0
% es.tEz (V/m) @ t=0.06
0.8778725869861432
% V (V) @ t=0.06
0.011932093893770127
% es.normE (V/m) @ t=0.08
1.2842463503091381
% es.EX (V/m) @ t=0.08
0.8720184303464507
% es.EY (V/m) @ t=0.08
0.24766489103431688
% es.EZ (V/m) @ t=0.08
0.8860126885229338
% es.tEX (V/m) @ t=0.08
0.8720184303464293
% es.tEY (V/m) @ t=0.08
0
% es.tEZ (V/m) @ t=0.08
0.8860126885229107
% es.Ex (V/m) @ t=0.08
0.8720184303464507
% es.Ey (V/m) @ t=0.08
0.24766489103431688
% es.Ez (V/m) @ t=0.08
0.8860126885229338
% es.tEx (V/m) @ t=0.08
0.8720184303464293
% es.tEy (V/m) @ t=0.08
0
% es.tEz (V/m) @ t=0.08
0.8860126885229107
% V (V) @ t=0.08
0.012042734614263986
% es.normE (V/m) @ t=0.1
1.2961020092142275
% es.EX (V/m) @ t=0.1
0.8800685626838138
% es.EY (V/m) @ t=0.1
0.2499512362148213
% es.EZ (V/m) @ t=0.1
0.8941920103645575
% es.tEX (V/m) @ t=0.1
0.8800685626838316
% es.tEY (V/m) @ t=0.1
0
% es.tEZ (V/m) @ t=0.1
0.8941920103645487
% es.Ex (V/m) @ t=0.1
0.8800685626838138
% es.Ey (V/m) @ t=0.1
0.2499512362148213
% es.Ez (V/m) @ t=0.1
0.8941920103645575
% es.tEx (V/m) @ t=0.1
0.8800685626838316
% es.tEy (V/m) @ t=0.1
0
% es.tEz (V/m) @ t=0.1
0.8941920103645487
% V (V) @ t=0.1
0.012153908419661439
% es.normE (V/m) @ t=0.12
1.307957668119391
% es.EX (V/m) @ t=0.12
0.8881186950212658
% es.EY (V/m) @ t=0.12
0.2522375813953026
% es.EZ (V/m) @ t=0.12
0.9023713322062115
% es.tEX (V/m) @ t=0.12
0.8881186950212765
% es.tEY (V/m) @ t=0.12
0
% es.tEZ (V/m) @ t=0.12
0.9023713322062008
% es.Ex (V/m) @ t=0.12
0.8881186950212658
% es.Ey (V/m) @ t=0.12
0.2522375813953026
% es.Ez (V/m) @ t=0.12
0.9023713322062115
% es.tEx (V/m) @ t=0.12
0.8881186950212765
% es.tEy (V/m) @ t=0.12
0
% es.tEz (V/m) @ t=0.12
0.9023713322062008
% V (V) @ t=0.12
0.012265082225058892
% es.normE (V/m) @ t=0.14
1.320169673161105
% es.EX (V/m) @ t=0.14
0.8964107906090781
% es.EY (V/m) @ t=0.14
0.2545926473204503
% es.EZ (V/m) @ t=0.14
0.910796500324583
% es.tEX (V/m) @ t=0.14
0.8964107906090533
% es.tEY (V/m) @ t=0.14
0
% es.tEZ (V/m) @ t=0.14
0.9107965003245795
% es.Ex (V/m) @ t=0.14
0.8964107906090781
% es.Ey (V/m) @ t=0.14
0.2545926473204503
% es.Ez (V/m) @ t=0.14
0.910796500324583
% es.tEx (V/m) @ t=0.14
0.8964107906090533
% es.tEy (V/m) @ t=0.14
0
% es.tEz (V/m) @ t=0.14
0.9107965003245795
% V (V) @ t=0.14
0.012379597582197296
% es.normE (V/m) @ t=0.16
1.3326176838442767
% es.EX (V/m) @ t=0.16
0.9048631368247193
% es.EY (V/m) @ t=0.16
0.25699322653102463
% es.EZ (V/m) @ t=0.16
0.9193844907729307
% es.tEX (V/m) @ t=0.16
0.9048631368246873
% es.tEY (V/m) @ t=0.16
0
% es.tEZ (V/m) @ t=0.16
0.919384490772913
% es.Ex (V/m) @ t=0.16
0.9048631368247193
% es.Ey (V/m) @ t=0.16
0.25699322653102463
% es.Ez (V/m) @ t=0.16
0.9193844907729307
% es.tEx (V/m) @ t=0.16
0.9048631368246873
% es.tEy (V/m) @ t=0.16
0
% es.tEz (V/m) @ t=0.16
0.919384490772913
% V (V) @ t=0.16
0.012496326026502528
% es.normE (V/m) @ t=0.18
1.3450656945274388
% es.EX (V/m) @ t=0.18
0.9133154830403498
% es.EY (V/m) @ t=0.18
0.2593938057416221
% es.EZ (V/m) @ t=0.18
0.9279724812212713
% es.tEX (V/m) @ t=0.18
0.9133154830403214
% es.tEY (V/m) @ t=0.18
0
% es.tEZ (V/m) @ t=0.18
0.9279724812212535
% es.Ex (V/m) @ t=0.18
0.9133154830403498
% es.Ey (V/m) @ t=0.18
0.2593938057416221
% es.Ez (V/m) @ t=0.18
0.9279724812212713
% es.tEx (V/m) @ t=0.18
0.9133154830403214
% es.tEy (V/m) @ t=0.18
0
% es.tEz (V/m) @ t=0.18
0.9279724812212535
% V (V) @ t=0.18
0.01261305447080776
% es.normE (V/m) @ t=0.2
1.3575137052105544
% es.EX (V/m) @ t=0.2
0.9217678292559413
% es.EY (V/m) @ t=0.2
0.26179438495223195
% es.EZ (V/m) @ t=0.2
0.9365604716695888
% es.tEX (V/m) @ t=0.2
0.9217678292559128
% es.tEY (V/m) @ t=0.2
0
% es.tEZ (V/m) @ t=0.2
0.9365604716695799
% es.Ex (V/m) @ t=0.2
0.9217678292559413
% es.Ey (V/m) @ t=0.2
0.26179438495223195
% es.Ez (V/m) @ t=0.2
0.9365604716695888
% es.tEx (V/m) @ t=0.2
0.9217678292559128
% es.tEy (V/m) @ t=0.2
0
% es.tEz (V/m) @ t=0.2
0.9365604716695799
% V (V) @ t=0.2
0.012729782915112993
% es.normE (V/m) @ t=0.22
1.3699617158936697
% es.EX (V/m) @ t=0.22
0.9302201754715078
% es.EY (V/m) @ t=0.22
0.2641949641628525
% es.EZ (V/m) @ t=0.22
0.9451484621179134
% es.tEX (V/m) @ t=0.22
0.9302201754714758
% es.tEY (V/m) @ t=0.22
0
% es.tEZ (V/m) @ t=0.22
0.9451484621178992
% es.Ex (V/m) @ t=0.22
0.9302201754715078
% es.Ey (V/m) @ t=0.22
0.2641949641628525
% es.Ez (V/m) @ t=0.22
0.9451484621179134
% es.tEx (V/m) @ t=0.22
0.9302201754714758
% es.tEy (V/m) @ t=0.22
0
% es.tEz (V/m) @ t=0.22
0.9451484621178992
% V (V) @ t=0.22
0.012846511359418226
% es.normE (V/m) @ t=0.24
1.3824097265768027
% es.EX (V/m) @ t=0.24
0.9386725216871312
% es.EY (V/m) @ t=0.24
0.2665955433734055
% es.EZ (V/m) @ t=0.24
0.9537364525662451
% es.tEX (V/m) @ t=0.24
0.9386725216871099
% es.tEY (V/m) @ t=0.24
0
% es.tEZ (V/m) @ t=0.24
0.9537364525662326
% es.Ex (V/m) @ t=0.24
0.9386725216871312
% es.Ey (V/m) @ t=0.24
0.2665955433734055
% es.Ez (V/m) @ t=0.24
0.9537364525662451
% es.tEx (V/m) @ t=0.24
0.9386725216871099
% es.tEy (V/m) @ t=0.24
0
% es.tEz (V/m) @ t=0.24
0.9537364525662326
% V (V) @ t=0.24
0.012963239803723457
% es.normE (V/m) @ t=0.26
1.3951346774478477
% es.EX (V/m) @ t=0.26
0.9473129135525085
% es.EY (V/m) @ t=0.26
0.2690495301196485
% es.EZ (V/m) @ t=0.26
0.9625155064383399
% es.tEX (V/m) @ t=0.26
0.9473129135524943
% es.tEY (V/m) @ t=0.26
0
% es.tEZ (V/m) @ t=0.26
0.9625155064383222
% es.Ex (V/m) @ t=0.26
0.9473129135525085
% es.Ey (V/m) @ t=0.26
0.2690495301196485
% es.Ez (V/m) @ t=0.26
0.9625155064383399
% es.tEx (V/m) @ t=0.26
0.9473129135524943
% es.tEy (V/m) @ t=0.26
0
% es.tEz (V/m) @ t=0.26
0.9625155064383222
% V (V) @ t=0.26
0.013082565195511403
% es.normE (V/m) @ t=0.28
1.4089052327406506
% es.EX (V/m) @ t=0.28
0.9566632831367485
% es.EY (V/m) @ t=0.28
0.27170516024531643
% es.EZ (V/m) @ t=0.28
0.9720159318176709
% es.tEX (V/m) @ t=0.28
0.9566632831367343
% es.tEY (V/m) @ t=0.28
0
% es.tEZ (V/m) @ t=0.28
0.9720159318176513
% es.Ex (V/m) @ t=0.28
0.9566632831367485
% es.Ey (V/m) @ t=0.28
0.27170516024531643
% es.Ez (V/m) @ t=0.28
0.9720159318176709
% es.tEx (V/m) @ t=0.28
0.9566632831367343
% es.tEy (V/m) @ t=0.28
0
% es.tEz (V/m) @ t=0.28
0.9720159318176513
% V (V) @ t=0.28
0.013211695519519912
% es.normE (V/m) @ t=0.3
1.4226757880334895
% es.EX (V/m) @ t=0.3
0.9660136527210454
% es.EY (V/m) @ t=0.3
0.27436079037099503
% es.EZ (V/m) @ t=0.3
0.9815163571969947
% es.tEX (V/m) @ t=0.3
0.9660136527210312
% es.tEY (V/m) @ t=0.3
0
% es.tEZ (V/m) @ t=0.3
0.9815163571969876
% es.Ex (V/m) @ t=0.3
0.9660136527210454
% es.Ey (V/m) @ t=0.3
0.27436079037099503
% es.Ez (V/m) @ t=0.3
0.9815163571969947
% es.tEx (V/m) @ t=0.3
0.9660136527210312
% es.tEy (V/m) @ t=0.3
0
% es.tEz (V/m) @ t=0.3
0.9815163571969876
% V (V) @ t=0.3
0.013340825843528423
% es.normE (V/m) @ t=0.32
1.4364463433263357
% es.EX (V/m) @ t=0.32
0.9753640223053104
% es.EY (V/m) @ t=0.32
0.27701642049669317
% es.EZ (V/m) @ t=0.32
0.9910167825763452
% es.tEX (V/m) @ t=0.32
0.9753640223052997
% es.tEY (V/m) @ t=0.32
0
% es.tEZ (V/m) @ t=0.32
0.9910167825763168
% es.Ex (V/m) @ t=0.32
0.9753640223053104
% es.Ey (V/m) @ t=0.32
0.27701642049669317
% es.Ez (V/m) @ t=0.32
0.9910167825763452
% es.tEx (V/m) @ t=0.32
0.9753640223052997
% es.tEy (V/m) @ t=0.32
0
% es.tEz (V/m) @ t=0.32
0.9910167825763168
% V (V) @ t=0.32
0.013469956167536934
% es.normE (V/m) @ t=0.34
1.4502168986191641
% es.EX (V/m) @ t=0.34
0.9847143918895789
% es.EY (V/m) @ t=0.34
0.27967205062231315
% es.EZ (V/m) @ t=0.34
1.0005172079556992
% es.tEX (V/m) @ t=0.34
0.9847143918895966
% es.tEY (V/m) @ t=0.34
0
% es.tEZ (V/m) @ t=0.34
1.0005172079556814
% es.Ex (V/m) @ t=0.34
0.9847143918895789
% es.Ey (V/m) @ t=0.34
0.27967205062231315
% es.Ez (V/m) @ t=0.34
1.0005172079556992
% es.tEx (V/m) @ t=0.34
0.9847143918895966
% es.tEy (V/m) @ t=0.34
0
% es.tEz (V/m) @ t=0.34
1.0005172079556814
% V (V) @ t=0.34
0.013599086491545447
% es.normE (V/m) @ t=0.36
1.463987453912016
% es.EX (V/m) @ t=0.36
0.99406476147389
% es.EY (V/m) @ t=0.36
0.28232768074795445
% es.EZ (V/m) @ t=0.36
1.0100176333350372
% es.tEX (V/m) @ t=0.36
0.9940647614738651
% es.tEY (V/m) @ t=0.36
0
% es.tEZ (V/m) @ t=0.36
1.0100176333350248
% es.Ex (V/m) @ t=0.36
0.99406476147389
% es.Ey (V/m) @ t=0.36
0.28232768074795445
% es.Ez (V/m) @ t=0.36
1.0100176333350372
% es.tEx (V/m) @ t=0.36
0.9940647614738651
% es.tEy (V/m) @ t=0.36
0
% es.tEz (V/m) @ t=0.36
1.0100176333350248
% V (V) @ t=0.36
0.013728216815553956
% es.normE (V/m) @ t=0.38
1.4777580092048508
% es.EX (V/m) @ t=0.38
1.003415131058155
% es.EY (V/m) @ t=0.38
0.28498331087362416
% es.EZ (V/m) @ t=0.38
1.0195180587143842
% es.tEX (V/m) @ t=0.38
1.0034151310581336
% es.tEY (V/m) @ t=0.38
0
% es.tEZ (V/m) @ t=0.38
1.0195180587143682
% es.Ex (V/m) @ t=0.38
1.003415131058155
% es.Ey (V/m) @ t=0.38
0.28498331087362416
% es.Ez (V/m) @ t=0.38
1.0195180587143842
% es.tEx (V/m) @ t=0.38
1.0034151310581336
% es.tEy (V/m) @ t=0.38
0
% es.tEz (V/m) @ t=0.38
1.0195180587143682
% V (V) @ t=0.38
0.013857347139562467
% es.normE (V/m) @ t=0.4
1.491528564497719
% es.EX (V/m) @ t=0.4
1.0127655006424732
% es.EY (V/m) @ t=0.4
0.28763894099931875
% es.EZ (V/m) @ t=0.4
1.0290184840937187
% es.tEX (V/m) @ t=0.4
1.012765500642459
% es.tEY (V/m) @ t=0.4
0
% es.tEZ (V/m) @ t=0.4
1.0290184840937044
% es.Ex (V/m) @ t=0.4
1.0127655006424732
% es.Ey (V/m) @ t=0.4
0.28763894099931875
% es.Ez (V/m) @ t=0.4
1.0290184840937187
% es.tEx (V/m) @ t=0.4
1.012765500642459
% es.tEy (V/m) @ t=0.4
0
% es.tEz (V/m) @ t=0.4
1.0290184840937044
% V (V) @ t=0.4
0.013986477463570977
% es.normE (V/m) @ t=0.42
1.5052991197905257
% es.EX (V/m) @ t=0.42
1.0221158702267168
% es.EY (V/m) @ t=0.42
0.2902945711249707
% es.EZ (V/m) @ t=0.42
1.0385189094730531
% es.tEX (V/m) @ t=0.42
1.0221158702267132
% es.tEY (V/m) @ t=0.42
0
% es.tEZ (V/m) @ t=0.42
1.0385189094730336
% es.Ex (V/m) @ t=0.42
1.0221158702267168
% es.Ey (V/m) @ t=0.42
0.2902945711249707
% es.Ez (V/m) @ t=0.42
1.0385189094730531
% es.tEx (V/m) @ t=0.42
1.0221158702267132
% es.tEy (V/m) @ t=0.42
0
% es.tEz (V/m) @ t=0.42
1.0385189094730336
% V (V) @ t=0.42
0.01411560778757949
% es.normE (V/m) @ t=0.44
1.5190696750833341
% es.EX (V/m) @ t=0.44
1.0314662398109782
% es.EY (V/m) @ t=0.44
0.29295020125060844
% es.EZ (V/m) @ t=0.44
1.0480193348523859
% es.tEX (V/m) @ t=0.44
1.0314662398109675
% es.tEY (V/m) @ t=0.44
0
% es.tEZ (V/m) @ t=0.44
1.048019334852377
% es.Ex (V/m) @ t=0.44
1.0314662398109782
% es.Ey (V/m) @ t=0.44
0.29295020125060844
% es.Ez (V/m) @ t=0.44
1.0480193348523859
% es.tEx (V/m) @ t=0.44
1.0314662398109675
% es.tEy (V/m) @ t=0.44
0
% es.tEz (V/m) @ t=0.44
1.048019334852377
% V (V) @ t=0.44
0.014244738111587999
% es.normE (V/m) @ t=0.46
1.5328402303761894
% es.EX (V/m) @ t=0.46
1.0408166093952609
% es.EY (V/m) @ t=0.46
0.29560583137633856
% es.EZ (V/m) @ t=0.46
1.0575197602317221
% es.tEX (V/m) @ t=0.46
1.0408166093952502
% es.tEY (V/m) @ t=0.46
0
% es.tEZ (V/m) @ t=0.46
1.0575197602317061
% es.Ex (V/m) @ t=0.46
1.0408166093952609
% es.Ey (V/m) @ t=0.46
0.29560583137633856
% es.Ez (V/m) @ t=0.46
1.0575197602317221
% es.tEx (V/m) @ t=0.46
1.0408166093952502
% es.tEy (V/m) @ t=0.46
0
% es.tEz (V/m) @ t=0.46
1.0575197602317061
% V (V) @ t=0.46
0.014373868435596512
% es.normE (V/m) @ t=0.48
1.546610785669035
% es.EX (V/m) @ t=0.48
1.0501669789795507
% es.EY (V/m) @ t=0.48
0.2982614615019621
% es.EZ (V/m) @ t=0.48
1.0670201856110797
% es.tEX (V/m) @ t=0.48
1.050166978979533
% es.tEY (V/m) @ t=0.48
0
% es.tEZ (V/m) @ t=0.48
1.0670201856110637
% es.Ex (V/m) @ t=0.48
1.0501669789795507
% es.Ey (V/m) @ t=0.48
0.2982614615019621
% es.Ez (V/m) @ t=0.48
1.0670201856110797
% es.tEx (V/m) @ t=0.48
1.050166978979533
% es.tEy (V/m) @ t=0.48
0
% es.tEz (V/m) @ t=0.48
1.0670201856110637
% V (V) @ t=0.48
0.01450299875960502
% es.normE (V/m) @ t=0.5
1.5603813409618619
% es.EX (V/m) @ t=0.5
1.0595173485638156
% es.EY (V/m) @ t=0.5
0.3009170916276567
% es.EZ (V/m) @ t=0.5
1.076520610990407
% es.tEX (V/m) @ t=0.5
1.0595173485638014
% es.tEY (V/m) @ t=0.5
0
% es.tEZ (V/m) @ t=0.5
1.0765206109903858
% es.Ex (V/m) @ t=0.5
1.0595173485638156
% es.Ey (V/m) @ t=0.5
0.3009170916276567
% es.Ez (V/m) @ t=0.5
1.076520610990407
% es.tEx (V/m) @ t=0.5
1.0595173485638014
% es.tEy (V/m) @ t=0.5
0
% es.tEz (V/m) @ t=0.5
1.0765206109903858
% V (V) @ t=0.5
0.014632129083613533
% es.normE (V/m) @ t=0.52
1.5747838002247316
% es.EX (V/m) @ t=0.52
1.0692967884019282
% es.EY (V/m) @ t=0.52
0.30369458336456745
% es.EZ (V/m) @ t=0.52
1.0864569924299161
% es.tEX (V/m) @ t=0.52
1.069296788401914
% es.tEY (V/m) @ t=0.52
0
% es.tEZ (V/m) @ t=0.52
1.0864569924298948
% es.Ex (V/m) @ t=0.52
1.0692967884019282
% es.Ey (V/m) @ t=0.52
0.30369458336456745
% es.Ez (V/m) @ t=0.52
1.0864569924299161
% es.tEx (V/m) @ t=0.52
1.069296788401914
% es.tEy (V/m) @ t=0.52
0
% es.tEz (V/m) @ t=0.52
1.0864569924298948
% V (V) @ t=0.52
0.01476718494515332
% es.normE (V/m) @ t=0.54
1.5900410436573125
% es.EX (V/m) @ t=0.54
1.0796566367801042
% es.EY (V/m) @ t=0.54
0.3066369187820186
% es.EZ (V/m) @ t=0.54
1.0969830969232248
% es.tEX (V/m) @ t=0.54
1.0796566367801006
% es.tEY (V/m) @ t=0.54
0
% es.tEZ (V/m) @ t=0.54
1.0969830969232106
% es.Ex (V/m) @ t=0.54
1.0796566367801042
% es.Ey (V/m) @ t=0.54
0.3066369187820186
% es.Ez (V/m) @ t=0.54
1.0969830969232248
% es.tEx (V/m) @ t=0.54
1.0796566367801006
% es.tEy (V/m) @ t=0.54
0
% es.tEz (V/m) @ t=0.54
1.0969830969232106
% V (V) @ t=0.54
0.014910256353230358
% es.normE (V/m) @ t=0.56
1.6052982870899664
% es.EX (V/m) @ t=0.56
1.0900164851583511
% es.EY (V/m) @ t=0.56
0.30957925419951593
% es.EZ (V/m) @ t=0.56
1.1075092014165424
% es.tEX (V/m) @ t=0.56
1.0900164851583156
% es.tEY (V/m) @ t=0.56
0
% es.tEZ (V/m) @ t=0.56
1.1075092014165335
% es.Ex (V/m) @ t=0.56
1.0900164851583511
% es.Ey (V/m) @ t=0.56
0.30957925419951593
% es.Ez (V/m) @ t=0.56
1.1075092014165424
% es.tEx (V/m) @ t=0.56
1.0900164851583156
% es.tEy (V/m) @ t=0.56
0
% es.tEz (V/m) @ t=0.56
1.1075092014165335
% V (V) @ t=0.56
0.0150533277613074
% es.normE (V/m) @ t=0.58
1.6205555305225618
% es.EX (V/m) @ t=0.58
1.100376333536481
% es.EY (V/m) @ t=0.58
0.3125215896170275
% es.EZ (V/m) @ t=0.58
1.1180353059098884
% es.tEX (V/m) @ t=0.58
1.1003763335364454
% es.tEY (V/m) @ t=0.58
0
% es.tEZ (V/m) @ t=0.58
1.1180353059098707
% es.Ex (V/m) @ t=0.58
1.100376333536481
% es.Ey (V/m) @ t=0.58
0.3125215896170275
% es.Ez (V/m) @ t=0.58
1.1180353059098884
% es.tEx (V/m) @ t=0.58
1.1003763335364454
% es.tEy (V/m) @ t=0.58
0
% es.tEz (V/m) @ t=0.58
1.1180353059098707
% V (V) @ t=0.58
0.01519639916938444
% es.normE (V/m) @ t=0.6
1.6358127739551187
% es.EX (V/m) @ t=0.6
1.1107361819146462
% es.EY (V/m) @ t=0.6
0.31546392503452125
% es.EZ (V/m) @ t=0.6
1.128561410403158
% es.tEX (V/m) @ t=0.6
1.1107361819146604
% es.tEY (V/m) @ t=0.6
0
% es.tEZ (V/m) @ t=0.6
1.1285614104031367
% es.Ex (V/m) @ t=0.6
1.1107361819146462
% es.Ey (V/m) @ t=0.6
0.31546392503452125
% es.Ez (V/m) @ t=0.6
1.128561410403158
% es.tEx (V/m) @ t=0.6
1.1107361819146604
% es.tEy (V/m) @ t=0.6
0
% es.tEz (V/m) @ t=0.6
1.1285614104031367
% V (V) @ t=0.6
0.01533947057746148
% es.normE (V/m) @ t=0.62
1.6510700173878121
% es.EX (V/m) @ t=0.62
1.1210960302929251
% es.EY (V/m) @ t=0.62
0.3184062604519653
% es.EZ (V/m) @ t=0.62
1.1390875148965147
% es.tEX (V/m) @ t=0.62
1.1210960302929038
% es.tEY (V/m) @ t=0.62
0
% es.tEZ (V/m) @ t=0.62
1.1390875148964952
% es.Ex (V/m) @ t=0.62
1.1210960302929251
% es.Ey (V/m) @ t=0.62
0.3184062604519653
% es.Ez (V/m) @ t=0.62
1.1390875148965147
% es.tEx (V/m) @ t=0.62
1.1210960302929038
% es.tEy (V/m) @ t=0.62
0
% es.tEz (V/m) @ t=0.62
1.1390875148964952
% V (V) @ t=0.62
0.01548254198553852
% es.normE (V/m) @ t=0.64
1.6663272608204127
% es.EX (V/m) @ t=0.64
1.1314558786710762
% es.EY (V/m) @ t=0.64
0.32134859586948394
% es.EZ (V/m) @ t=0.64
1.1496136193898465
% es.tEX (V/m) @ t=0.64
1.131455878671062
% es.tEY (V/m) @ t=0.64
0
% es.tEZ (V/m) @ t=0.64
1.1496136193898323
% es.Ex (V/m) @ t=0.64
1.1314558786710762
% es.Ey (V/m) @ t=0.64
0.32134859586948394
% es.Ez (V/m) @ t=0.64
1.1496136193898465
% es.tEx (V/m) @ t=0.64
1.131455878671062
% es.tEy (V/m) @ t=0.64
0
% es.tEz (V/m) @ t=0.64
1.1496136193898323
% V (V) @ t=0.64
0.01562561339361556
% es.normE (V/m) @ t=0.66
1.6815845042530053
% es.EX (V/m) @ t=0.66
1.1418157270492344
% es.EY (V/m) @ t=0.66
0.32429093128695285
% es.EZ (V/m) @ t=0.66
1.1601397238831765
% es.tEX (V/m) @ t=0.66
1.1418157270492202
% es.tEY (V/m) @ t=0.66
0
% es.tEZ (V/m) @ t=0.66
1.1601397238831623
% es.Ex (V/m) @ t=0.66
1.1418157270492344
% es.Ey (V/m) @ t=0.66
0.32429093128695285
% es.Ez (V/m) @ t=0.66
1.1601397238831765
% es.tEx (V/m) @ t=0.66
1.1418157270492202
% es.tEy (V/m) @ t=0.66
0
% es.tEz (V/m) @ t=0.66
1.1601397238831623
% V (V) @ t=0.66
0.0157686848016926
% es.normE (V/m) @ t=0.68
1.6968417476856
% es.EX (V/m) @ t=0.68
1.1521755754273855
% es.EY (V/m) @ t=0.68
0.3272332667044964
% es.EZ (V/m) @ t=0.68
1.1706658283764853
% es.tEX (V/m) @ t=0.68
1.1521755754273784
% es.tEY (V/m) @ t=0.68
0
% es.tEZ (V/m) @ t=0.68
1.170665828376471
% es.Ex (V/m) @ t=0.68
1.1521755754273855
% es.Ey (V/m) @ t=0.68
0.3272332667044964
% es.Ez (V/m) @ t=0.68
1.1706658283764853
% es.tEx (V/m) @ t=0.68
1.1521755754273784
% es.tEy (V/m) @ t=0.68
0
% es.tEz (V/m) @ t=0.68
1.170665828376471
% V (V) @ t=0.68
0.01591175620976964
% es.normE (V/m) @ t=0.7
1.7120989911182258
% es.EX (V/m) @ t=0.7
1.1625354238056218
% es.EY (V/m) @ t=0.7
0.33017560212196884
% es.EZ (V/m) @ t=0.7
1.1811919328697869
% es.tEX (V/m) @ t=0.7
1.1625354238056218
% es.tEY (V/m) @ t=0.7
0
% es.tEZ (V/m) @ t=0.7
1.1811919328697726
% es.Ex (V/m) @ t=0.7
1.1625354238056218
% es.Ey (V/m) @ t=0.7
0.33017560212196884
% es.Ez (V/m) @ t=0.7
1.1811919328697869
% es.tEx (V/m) @ t=0.7
1.1625354238056218
% es.tEy (V/m) @ t=0.7
0
% es.tEz (V/m) @ t=0.7
1.1811919328697726
% V (V) @ t=0.7
0.01605482761784668
% es.normE (V/m) @ t=0.72
1.7273562345508329
% es.EX (V/m) @ t=0.72
1.1728952721838155
% es.EY (V/m) @ t=0.72
0.33311793753943064
% es.EZ (V/m) @ t=0.72
1.1917180373631133
% es.tEX (V/m) @ t=0.72
1.1728952721838084
% es.tEY (V/m) @ t=0.72
0
% es.tEZ (V/m) @ t=0.72
1.1917180373630956
% es.Ex (V/m) @ t=0.72
1.1728952721838155
% es.Ey (V/m) @ t=0.72
0.33311793753943064
% es.Ez (V/m) @ t=0.72
1.1917180373631133
% es.tEx (V/m) @ t=0.72
1.1728952721838084
% es.tEy (V/m) @ t=0.72
0
% es.tEz (V/m) @ t=0.72
1.1917180373630956
% V (V) @ t=0.72
0.016197899025923716
% es.normE (V/m) @ t=0.74
1.7426134779834674
% es.EX (V/m) @ t=0.74
1.1832551205620234
% es.EY (V/m) @ t=0.74
0.3360602729569315
% es.EZ (V/m) @ t=0.74
1.2022441418564416
% es.tEX (V/m) @ t=0.74
1.1832551205620234
% es.tEY (V/m) @ t=0.74
0
% es.tEZ (V/m) @ t=0.74
1.2022441418564256
% es.Ex (V/m) @ t=0.74
1.1832551205620234
% es.Ey (V/m) @ t=0.74
0.3360602729569315
% es.Ez (V/m) @ t=0.74
1.2022441418564416
% es.tEx (V/m) @ t=0.74
1.1832551205620234
% es.tEy (V/m) @ t=0.74
0
% es.tEz (V/m) @ t=0.74
1.2022441418564256
% V (V) @ t=0.74
0.01634097043400076
% es.normE (V/m) @ t=0.76
1.7578707214160358
% es.EX (V/m) @ t=0.76
1.193614968940146
% es.EY (V/m) @ t=0.76
0.3390026083744111
% es.EZ (V/m) @ t=0.76
1.2127702463497698
% es.tEX (V/m) @ t=0.76
1.1936149689401532
% es.tEY (V/m) @ t=0.76
0
% es.tEZ (V/m) @ t=0.76
1.2127702463497485
% es.Ex (V/m) @ t=0.76
1.193614968940146
% es.Ey (V/m) @ t=0.76
0.3390026083744111
% es.Ez (V/m) @ t=0.76
1.2127702463497698
% es.tEx (V/m) @ t=0.76
1.1936149689401532
% es.tEy (V/m) @ t=0.76
0
% es.tEz (V/m) @ t=0.76
1.2127702463497485
% V (V) @ t=0.76
0.016484041842077798
% es.normE (V/m) @ t=0.78
1.77420056870855
% es.EX (V/m) @ t=0.78
1.2047031279993803
% es.EY (V/m) @ t=0.78
0.34215179375369686
% es.EZ (V/m) @ t=0.78
1.2240363495469637
% es.tEX (V/m) @ t=0.78
1.2047031279993519
% es.tEY (V/m) @ t=0.78
0
% es.tEZ (V/m) @ t=0.78
1.2240363495469495
% es.Ex (V/m) @ t=0.78
1.2047031279993803
% es.Ey (V/m) @ t=0.78
0.34215179375369686
% es.Ez (V/m) @ t=0.78
1.2240363495469637
% es.tEx (V/m) @ t=0.78
1.2047031279993519
% es.tEy (V/m) @ t=0.78
0
% es.tEz (V/m) @ t=0.78
1.2240363495469495
% V (V) @ t=0.78
0.01663717135437449
% es.normE (V/m) @ t=0.8
1.7911319683990048
% es.EX (V/m) @ t=0.8
1.2161997482370452
% es.EY (V/m) @ t=0.8
0.3454169875638229
% es.EZ (V/m) @ t=0.8
1.235717468959761
% es.tEX (V/m) @ t=0.8
1.2161997482370168
% es.tEY (V/m) @ t=0.8
0
% es.tEZ (V/m) @ t=0.8
1.2357174689597414
% es.Ex (V/m) @ t=0.8
1.2161997482370452
% es.Ey (V/m) @ t=0.8
0.3454169875638229
% es.Ez (V/m) @ t=0.8
1.235717468959761
% es.tEx (V/m) @ t=0.8
1.2161997482370168
% es.tEy (V/m) @ t=0.8
0
% es.tEz (V/m) @ t=0.8
1.2357174689597414
% V (V) @ t=0.8
0.016795941790537613
% es.normE (V/m) @ t=0.82
1.8080633680894946
% es.EX (V/m) @ t=0.82
1.2276963684747955
% es.EY (V/m) @ t=0.82
0.348682181373853
% es.EZ (V/m) @ t=0.82
1.2473985883725582
% es.tEX (V/m) @ t=0.82
1.227696368474767
% es.tEY (V/m) @ t=0.82
0
% es.tEZ (V/m) @ t=0.82
1.2473985883725263
% es.Ex (V/m) @ t=0.82
1.2276963684747955
% es.Ey (V/m) @ t=0.82
0.348682181373853
% es.Ez (V/m) @ t=0.82
1.2473985883725582
% es.tEx (V/m) @ t=0.82
1.227696368474767
% es.tEy (V/m) @ t=0.82
0
% es.tEz (V/m) @ t=0.82
1.2473985883725263
% V (V) @ t=0.82
0.01695471222670073
% es.normE (V/m) @ t=0.84
1.8249947677799458
% es.EX (V/m) @ t=0.84
1.239192988712425
% es.EY (V/m) @ t=0.84
0.35194737518386887
% es.EZ (V/m) @ t=0.84
1.2590797077854141
% es.tEX (V/m) @ t=0.84
1.239192988712432
% es.tEY (V/m) @ t=0.84
0
% es.tEZ (V/m) @ t=0.84
1.2590797077853892
% es.Ex (V/m) @ t=0.84
1.239192988712425
% es.Ey (V/m) @ t=0.84
0.35194737518386887
% es.Ez (V/m) @ t=0.84
1.2590797077854141
% es.tEx (V/m) @ t=0.84
1.239192988712432
% es.tEy (V/m) @ t=0.84
0
% es.tEz (V/m) @ t=0.84
1.2590797077853892
% V (V) @ t=0.84
0.01711348266286385
% es.normE (V/m) @ t=0.86
1.8419261674704277
% es.EX (V/m) @ t=0.86
1.2506896089501112
% es.EY (V/m) @ t=0.86
0.35521256899397713
% es.EZ (V/m) @ t=0.86
1.270760827198231
% es.tEX (V/m) @ t=0.86
1.250689608950097
% es.tEY (V/m) @ t=0.86
0
% es.tEZ (V/m) @ t=0.86
1.2707608271982025
% es.Ex (V/m) @ t=0.86
1.2506896089501112
% es.Ey (V/m) @ t=0.86
0.35521256899397713
% es.Ez (V/m) @ t=0.86
1.270760827198231
% es.tEx (V/m) @ t=0.86
1.250689608950097
% es.tEy (V/m) @ t=0.86
0
% es.tEz (V/m) @ t=0.86
1.2707608271982025
% V (V) @ t=0.86
0.017272253099026972
% es.normE (V/m) @ t=0.88
1.858857567160897
% es.EX (V/m) @ t=0.88
1.2621862291878188
% es.EY (V/m) @ t=0.88
0.35847776280398236
% es.EZ (V/m) @ t=0.88
1.282441946611053
% es.tEX (V/m) @ t=0.88
1.2621862291878188
% es.tEY (V/m) @ t=0.88
0
% es.tEZ (V/m) @ t=0.88
1.2824419466110157
% es.Ex (V/m) @ t=0.88
1.2621862291878188
% es.Ey (V/m) @ t=0.88
0.35847776280398236
% es.Ez (V/m) @ t=0.88
1.282441946611053
% es.tEx (V/m) @ t=0.88
1.2621862291878188
% es.tEy (V/m) @ t=0.88
0
% es.tEz (V/m) @ t=0.88
1.2824419466110157
% V (V) @ t=0.88
0.017431023535190094
% es.normE (V/m) @ t=0.9
1.8757889668513736
% es.EX (V/m) @ t=0.9
1.2736828494254837
% es.EY (V/m) @ t=0.9
0.3617429566140231
% es.EZ (V/m) @ t=0.9
1.2941230660238876
% es.tEX (V/m) @ t=0.9
1.2736828494254837
% es.tEY (V/m) @ t=0.9
0
% es.tEZ (V/m) @ t=0.9
1.2941230660238716
% es.Ex (V/m) @ t=0.9
1.2736828494254837
% es.Ey (V/m) @ t=0.9
0.3617429566140231
% es.Ez (V/m) @ t=0.9
1.2941230660238876
% es.tEx (V/m) @ t=0.9
1.2736828494254837
% es.tEy (V/m) @ t=0.9
0
% es.tEz (V/m) @ t=0.9
1.2941230660238716
% V (V) @ t=0.9
0.017589793971353216
% es.normE (V/m) @ t=0.92
1.8927203665418553
% es.EX (V/m) @ t=0.92
1.2851794696632126
% es.EY (V/m) @ t=0.92
0.36500815042407453
% es.EZ (V/m) @ t=0.92
1.3058041854366813
% es.tEX (V/m) @ t=0.92
1.285179469663177
% es.tEY (V/m) @ t=0.92
0
% es.tEZ (V/m) @ t=0.92
1.3058041854366707
% es.Ex (V/m) @ t=0.92
1.2851794696632126
% es.Ey (V/m) @ t=0.92
0.36500815042407453
% es.Ez (V/m) @ t=0.92
1.3058041854366813
% es.tEx (V/m) @ t=0.92
1.285179469663177
% es.tEy (V/m) @ t=0.92
0
% es.tEz (V/m) @ t=0.92
1.3058041854366707
% V (V) @ t=0.92
0.017748564407516335
% es.normE (V/m) @ t=0.94
1.9096517662323718
% es.EX (V/m) @ t=0.94
1.2966760899009273
% es.EY (V/m) @ t=0.94
0.3682733442340904
% es.EZ (V/m) @ t=0.94
1.3174853048495514
% es.tEX (V/m) @ t=0.94
1.2966760899008989
% es.tEY (V/m) @ t=0.94
0
% es.tEZ (V/m) @ t=0.94
1.3174853048495265
% es.Ex (V/m) @ t=0.94
1.2966760899009273
% es.Ey (V/m) @ t=0.94
0.3682733442340904
% es.Ez (V/m) @ t=0.94
1.3174853048495514
% es.tEx (V/m) @ t=0.94
1.2966760899008989
% es.tEy (V/m) @ t=0.94
0
% es.tEz (V/m) @ t=0.94
1.3174853048495265
% V (V) @ t=0.94
0.017907334843679457
% es.normE (V/m) @ t=0.96
1.9265831659228034
% es.EX (V/m) @ t=0.96
1.308172710138571
% es.EY (V/m) @ t=0.96
0.37153853804414894
% es.EZ (V/m) @ t=0.96
1.3291664242623522
% es.tEX (V/m) @ t=0.96
1.3081727101385638
% es.tEY (V/m) @ t=0.96
0
% es.tEZ (V/m) @ t=0.96
1.3291664242623256
% es.Ex (V/m) @ t=0.96
1.308172710138571
% es.Ey (V/m) @ t=0.96
0.37153853804414894
% es.Ez (V/m) @ t=0.96
1.3291664242623522
% es.tEx (V/m) @ t=0.96
1.3081727101385638
% es.tEy (V/m) @ t=0.96
0
% es.tEz (V/m) @ t=0.96
1.3291664242623256
% V (V) @ t=0.96
0.01806610527984258
% es.normE (V/m) @ t=0.98
1.9435145656133321
% es.EX (V/m) @ t=0.98
1.3196693303763354
% es.EY (V/m) @ t=0.98
0.37480373185422877
% es.EZ (V/m) @ t=0.98
1.340847543675162
% es.tEX (V/m) @ t=0.98
1.319669330376314
% es.tEY (V/m) @ t=0.98
0
% es.tEZ (V/m) @ t=0.98
1.340847543675153
% es.Ex (V/m) @ t=0.98
1.3196693303763354
% es.Ey (V/m) @ t=0.98
0.37480373185422877
% es.Ez (V/m) @ t=0.98
1.340847543675162
% es.tEx (V/m) @ t=0.98
1.319669330376314
% es.tEy (V/m) @ t=0.98
0
% es.tEz (V/m) @ t=0.98
1.340847543675153
% V (V) @ t=0.98
0.0182248757160057
% es.normE (V/m) @ t=1
1.9604459653037862
% es.EX (V/m) @ t=1
1.3311659506139932
% es.EY (V/m) @ t=1
0.37806892566423755
% es.EZ (V/m) @ t=1
1.3525286630880107
% es.tEX (V/m) @ t=1
1.3311659506140074
% es.tEY (V/m) @ t=1
0
% es.tEZ (V/m) @ t=1
1.3525286630879947
% es.Ex (V/m) @ t=1
1.3311659506139932
% es.Ey (V/m) @ t=1
0.37806892566423755
% es.Ez (V/m) @ t=1
1.3525286630880107
% es.tEx (V/m) @ t=1
1.3311659506140074
% es.tEy (V/m) @ t=1
0
% es.tEz (V/m) @ t=1
1.3525286630879947
% V (V) @ t=1
0.018383646152168823
% es.normE (V/m) @ t=1.02
1.9773773649942608
% es.EX (V/m) @ t=1.02
1.3426625708516937
% es.EY (V/m) @ t=1.02
0.38133411947428897
% es.EZ (V/m) @ t=1.02
1.3642097825008186
% es.tEX (V/m) @ t=1.02
1.342662570851644
% es.tEY (V/m) @ t=1.02
0
% es.tEZ (V/m) @ t=1.02
1.364209782500808
% es.Ex (V/m) @ t=1.02
1.3426625708516937
% es.Ey (V/m) @ t=1.02
0.38133411947428897
% es.Ez (V/m) @ t=1.02
1.3642097825008186
% es.tEx (V/m) @ t=1.02
1.342662570851644
% es.tEy (V/m) @ t=1.02
0
% es.tEz (V/m) @ t=1.02
1.364209782500808
% V (V) @ t=1.02
0.018542416588331945
% es.normE (V/m) @ t=1.04
1.9950132535913228
% es.EX (V/m) @ t=1.04
1.3546375473646108
% es.EY (V/m) @ t=1.04
0.3847351728682753
% es.EZ (V/m) @ t=1.04
1.3763769349246182
% es.tEX (V/m) @ t=1.04
1.3546375473646037
% es.tEY (V/m) @ t=1.04
0
% es.tEZ (V/m) @ t=1.04
1.3763769349246076
% es.Ex (V/m) @ t=1.04
1.3546375473646108
% es.Ey (V/m) @ t=1.04
0.3847351728682753
% es.Ez (V/m) @ t=1.04
1.3763769349246182
% es.tEx (V/m) @ t=1.04
1.3546375473646037