% Model:              1 neuron.mph
% Version:            COMSOL 6.1.0.252
% Date:               Mar 22 2023, 18:00
% Dimension:          0
% Nodes:              14017
% Expressions:        14017
% Description:        Electric field norm, Electric field, X component, Electric field, Y component, Electric field, Z component, Tangential electric field, X component, Tangential electric field, Y component, Tangential electric field, Z component, Electric field, x component, Electric field, y component, Electric field, z component, Tangential electric field, x component, Tangential electric field, y component, Tangential electric field, z component, Electric potential
% Length unit:        mm
% x
1.33
% y
12.2
% z
1
% es.normE (V/m) @ t=0
2.837850595954867
% es.EX (V/m) @ t=0
0.87593883592003
% es.EY (V/m) @ t=0
0.21220874936242895
% es.EZ (V/m) @ t=0
2.690908764200916
% es.tEX (V/m) @ t=0
0.8759388359200386
% es.tEY (V/m) @ t=0
0
% es.tEZ (V/m) @ t=0
2.690908764200909
% es.Ex (V/m) @ t=0
0.87593883592003
% es.Ey (V/m) @ t=0
0.21220874936242895
% es.Ez (V/m) @ t=0
2.690908764200916
% es.tEx (V/m) @ t=0
0.8759388359200386
% es.tEy (V/m) @ t=0
0
% es.tEz (V/m) @ t=0
2.690908764200909
% V (V) @ t=0
0.013272695702348312
% es.normE (V/m) @ t=0.02
2.451079448256454
% es.EX (V/m) @ t=0.02
0.7565569810316106
% es.EY (V/m) @ t=0.02
0.18328678273054833
% es.EZ (V/m) @ t=0.02
2.3241643439918755
% es.tEX (V/m) @ t=0.02
0.7565569810316148
% es.tEY (V/m) @ t=0.02
0
% es.tEZ (V/m) @ t=0.02
2.3241643439918747
% es.Ex (V/m) @ t=0.02
0.7565569810316106
% es.Ey (V/m) @ t=0.02
0.18328678273054833
% es.Ez (V/m) @ t=0.02
2.3241643439918755
% es.tEx (V/m) @ t=0.02
0.7565569810316148
% es.tEy (V/m) @ t=0.02
0
% es.tEz (V/m) @ t=0.02
2.3241643439918747
% V (V) @ t=0.02
0.011463757692464858
% es.normE (V/m) @ t=0.04
2.473626720236135
% es.EX (V/m) @ t=0.04
0.7635164844688563
% es.EY (V/m) @ t=0.04
0.184972822113337
% es.EZ (V/m) @ t=0.04
2.345544134727817
% es.tEX (V/m) @ t=0.04
0.7635164844688589
% es.tEY (V/m) @ t=0.04
0
% es.tEZ (V/m) @ t=0.04
2.3455441347278256
% es.Ex (V/m) @ t=0.04
0.7635164844688563
% es.Ey (V/m) @ t=0.04
0.184972822113337
% es.Ez (V/m) @ t=0.04
2.345544134727817
% es.tEx (V/m) @ t=0.04
0.7635164844688589
% es.tEy (V/m) @ t=0.04
0
% es.tEz (V/m) @ t=0.04
2.3455441347278256
% V (V) @ t=0.04
0.011569211833623604
% es.normE (V/m) @ t=0.06
2.4963368799872065
% es.EX (V/m) @ t=0.06
0.77052626479593
% es.EY (V/m) @ t=0.06
0.1866710411224789
% es.EZ (V/m) @ t=0.06
2.3670783792482006
% es.tEX (V/m) @ t=0.06
0.770526264795933
% es.tEY (V/m) @ t=0.06
0
% es.tEZ (V/m) @ t=0.06
2.3670783792482
% es.Ex (V/m) @ t=0.06
0.77052626479593
% es.Ey (V/m) @ t=0.06
0.1866710411224789
% es.Ez (V/m) @ t=0.06
2.3670783792482006
% es.tEx (V/m) @ t=0.06
0.770526264795933
% es.tEy (V/m) @ t=0.06
0
% es.tEz (V/m) @ t=0.06
2.3670783792482
% V (V) @ t=0.06
0.011675427840695586
% es.normE (V/m) @ t=0.08
2.519485531005192
% es.EX (V/m) @ t=0.08
0.777671391248191
% es.EY (V/m) @ t=0.08
0.18840204986486098
% es.EZ (V/m) @ t=0.08
2.389028410196483
% es.tEX (V/m) @ t=0.08
0.7776713912481981
% es.tEY (V/m) @ t=0.08
0
% es.tEZ (V/m) @ t=0.08
2.3890284101964756
% es.Ex (V/m) @ t=0.08
0.777671391248191
% es.Ey (V/m) @ t=0.08
0.18840204986486098
% es.Ez (V/m) @ t=0.08
2.389028410196483
% es.tEx (V/m) @ t=0.08
0.7776713912481981
% es.tEy (V/m) @ t=0.08
0
% es.tEz (V/m) @ t=0.08
2.3890284101964756
% V (V) @ t=0.08
0.01178369466920158
% es.normE (V/m) @ t=0.1
2.5427475419294487
% es.EX (V/m) @ t=0.1
0.7848515077338463
% es.EY (V/m) @ t=0.1
0.1901415354946845
% es.EZ (V/m) @ t=0.1
2.4110859313368125
% es.tEX (V/m) @ t=0.1
0.7848515077338476
% es.tEY (V/m) @ t=0.1
0
% es.tEZ (V/m) @ t=0.1
2.41108593133683
% es.Ex (V/m) @ t=0.1
0.7848515077338463
% es.Ey (V/m) @ t=0.1
0.1901415354946845
% es.Ez (V/m) @ t=0.1
2.4110859313368125
% es.tEx (V/m) @ t=0.1
0.7848515077338476
% es.tEy (V/m) @ t=0.1
0
% es.tEz (V/m) @ t=0.1
2.41108593133683
% V (V) @ t=0.1
0.011892491681414897
% es.normE (V/m) @ t=0.12
2.5660095528537172
% es.EX (V/m) @ t=0.12
0.7920316242194914
% es.EY (V/m) @ t=0.12
0.19188102112445415
% es.EZ (V/m) @ t=0.12
2.4331434524771614
% es.tEX (V/m) @ t=0.12
0.7920316242195042
% es.tEY (V/m) @ t=0.12
0
% es.tEZ (V/m) @ t=0.12
2.43314345247717
% es.Ex (V/m) @ t=0.12
0.7920316242194914
% es.Ey (V/m) @ t=0.12
0.19188102112445415
% es.Ez (V/m) @ t=0.12
2.4331434524771614
% es.tEx (V/m) @ t=0.12
0.7920316242195042
% es.tEy (V/m) @ t=0.12
0
% es.tEz (V/m) @ t=0.12
2.43314345247717
% V (V) @ t=0.12
0.012001288693628211
% es.normE (V/m) @ t=0.14
2.5899643590216597
% es.EX (V/m) @ t=0.14
0.799425580993947
% es.EY (V/m) @ t=0.14
0.1936723129523895
% es.EZ (V/m) @ t=0.14
2.455857896340799
% es.tEX (V/m) @ t=0.14
0.7994255809939546
% es.tEY (V/m) @ t=0.14
0
% es.tEZ (V/m) @ t=0.14
2.45585789634082
% es.Ex (V/m) @ t=0.14
0.799425580993947
% es.Ey (V/m) @ t=0.14
0.1936723129523895
% es.Ez (V/m) @ t=0.14
2.455857896340799
% es.tEx (V/m) @ t=0.14
0.7994255809939546
% es.tEy (V/m) @ t=0.14
0
% es.tEz (V/m) @ t=0.14
2.45585789634082
% V (V) @ t=0.14
0.01211332591144159
% es.normE (V/m) @ t=0.16
2.614389923446115
% es.EX (V/m) @ t=0.16
0.8069648434448224
% es.EY (V/m) @ t=0.16
0.1954988073827144
% es.EZ (V/m) @ t=0.16
2.479018722882023
% es.tEX (V/m) @ t=0.16
0.806964843444824
% es.tEY (V/m) @ t=0.16
0
% es.tEZ (V/m) @ t=0.16
2.4790187228820244
% es.Ex (V/m) @ t=0.16
0.8069648434448224
% es.Ey (V/m) @ t=0.16
0.1954988073827144
% es.Ez (V/m) @ t=0.16
2.479018722882023
% es.tEx (V/m) @ t=0.16
0.806964843444824
% es.tEy (V/m) @ t=0.16
0
% es.tEz (V/m) @ t=0.16
2.4790187228820244
% V (V) @ t=0.16
0.012227564867146259
% es.normE (V/m) @ t=0.18
2.638815487870548
% es.EX (V/m) @ t=0.18
0.8145041058956994
% es.EY (V/m) @ t=0.18
0.19732530181304264
% es.EZ (V/m) @ t=0.18
2.5021795494232233
% es.tEX (V/m) @ t=0.18
0.8145041058957005
% es.tEY (V/m) @ t=0.18
0
% es.tEZ (V/m) @ t=0.18
2.5021795494232304
% es.Ex (V/m) @ t=0.18
0.8145041058956994
% es.Ey (V/m) @ t=0.18
0.19732530181304264
% es.Ez (V/m) @ t=0.18
2.5021795494232233
% es.tEx (V/m) @ t=0.18
0.8145041058957005
% es.tEy (V/m) @ t=0.18
0
% es.tEz (V/m) @ t=0.18
2.5021795494232304
% V (V) @ t=0.18
0.012341803822850928
% es.normE (V/m) @ t=0.2
2.6632410522949774
% es.EX (V/m) @ t=0.2
0.822043368346568
% es.EY (V/m) @ t=0.2
0.19915179624337864
% es.EZ (V/m) @ t=0.2
2.5253403759644213
% es.tEX (V/m) @ t=0.2
0.82204336834657
% es.tEY (V/m) @ t=0.2
0
% es.tEZ (V/m) @ t=0.2
2.5253403759644204
% es.Ex (V/m) @ t=0.2
0.822043368346568
% es.Ey (V/m) @ t=0.2
0.19915179624337864
% es.Ez (V/m) @ t=0.2
2.5253403759644213
% es.tEx (V/m) @ t=0.2
0.82204336834657
% es.tEy (V/m) @ t=0.2
0
% es.tEz (V/m) @ t=0.2
2.5253403759644204
% V (V) @ t=0.2
0.012456042778555599
% es.normE (V/m) @ t=0.22
2.68766661671945
% es.EX (V/m) @ t=0.22
0.829582630797453
% es.EY (V/m) @ t=0.22
0.20097829067369266
% es.EZ (V/m) @ t=0.22
2.5485012025056615
% es.tEX (V/m) @ t=0.22
0.8295826307974536
% es.tEY (V/m) @ t=0.22
0
% es.tEZ (V/m) @ t=0.22
2.5485012025056406
% es.Ex (V/m) @ t=0.22
0.829582630797453
% es.Ey (V/m) @ t=0.22
0.20097829067369266
% es.Ez (V/m) @ t=0.22
2.5485012025056615
% es.tEx (V/m) @ t=0.22
0.8295826307974536
% es.tEy (V/m) @ t=0.22
0
% es.tEz (V/m) @ t=0.22
2.5485012025056406
% V (V) @ t=0.22
0.012570281734260268
% es.normE (V/m) @ t=0.24
2.7120921811438854
% es.EX (V/m) @ t=0.24
0.8371218932483258
% es.EY (V/m) @ t=0.24
0.20280478510400324
% es.EZ (V/m) @ t=0.24
2.571662029046867
% es.tEX (V/m) @ t=0.24
0.8371218932483231
% es.tEY (V/m) @ t=0.24
0
% es.tEZ (V/m) @ t=0.24
2.571662029046859
% es.Ex (V/m) @ t=0.24
0.8371218932483258
% es.Ey (V/m) @ t=0.24
0.20280478510400324
% es.Ez (V/m) @ t=0.24
2.571662029046867
% es.tEx (V/m) @ t=0.24
0.8371218932483231
% es.tEy (V/m) @ t=0.24
0
% es.tEz (V/m) @ t=0.24
2.571662029046859
% V (V) @ t=0.24
0.012684520689964937
% es.normE (V/m) @ t=0.26
2.737029978397353
% es.EX (V/m) @ t=0.26
0.8448192452482399
% es.EY (V/m) @ t=0.26
0.20466954483318978
% es.EZ (V/m) @ t=0.26
2.5953085740174178
% es.tEX (V/m) @ t=0.26
0.8448192452482388
% es.tEY (V/m) @ t=0.26
0
% es.tEZ (V/m) @ t=0.26
2.5953085740174124
% es.Ex (V/m) @ t=0.26
0.8448192452482399
% es.Ey (V/m) @ t=0.26
0.20466954483318978
% es.Ez (V/m) @ t=0.26
2.5953085740174178
% es.tEx (V/m) @ t=0.26
0.8448192452482388
% es.tEy (V/m) @ t=0.26
0
% es.tEz (V/m) @ t=0.26
2.5953085740174124
% V (V) @ t=0.26
0.012801156811984429
% es.normE (V/m) @ t=0.28
2.7640547199052223
% es.EX (V/m) @ t=0.28
0.8531606873129347
% es.EY (V/m) @ t=0.28
0.20669020543611882
% es.EZ (V/m) @ t=0.28
2.62093403800277
% es.tEX (V/m) @ t=0.28
0.8531606873129363
% es.tEY (V/m) @ t=0.28
0
% es.tEZ (V/m) @ t=0.28
2.6209340380027903
% es.Ex (V/m) @ t=0.28
0.8531606873129347
% es.Ey (V/m) @ t=0.28
0.20669020543611882
% es.Ez (V/m) @ t=0.28
2.62093403800277
% es.tEx (V/m) @ t=0.28
0.8531606873129363
% es.tEy (V/m) @ t=0.28
0
% es.tEz (V/m) @ t=0.28
2.6209340380027903
% V (V) @ t=0.28
0.012927559493630458
% es.normE (V/m) @ t=0.3
2.791079461413111
% es.EX (V/m) @ t=0.3
0.8615021293776017
% es.EY (V/m) @ t=0.3
0.20871086603905487
% es.EZ (V/m) @ t=0.3
2.646559501988122
% es.tEX (V/m) @ t=0.3
0.8615021293776053
% es.tEY (V/m) @ t=0.3
0
% es.tEZ (V/m) @ t=0.3
2.646559501988147
% es.Ex (V/m) @ t=0.3
0.8615021293776017
% es.Ey (V/m) @ t=0.3
0.20871086603905487
% es.Ez (V/m) @ t=0.3
2.646559501988122
% es.tEx (V/m) @ t=0.3
0.8615021293776053
% es.tEy (V/m) @ t=0.3
0
% es.tEz (V/m) @ t=0.3
2.646559501988147
% V (V) @ t=0.3
0.013053962175276483
% es.normE (V/m) @ t=0.32
2.8181042029210595
% es.EX (V/m) @ t=0.32
0.8698435714422907
% es.EY (V/m) @ t=0.32
0.2107315266419698
% es.EZ (V/m) @ t=0.32
2.672184965973501
% es.tEX (V/m) @ t=0.32
0.8698435714422814
% es.tEY (V/m) @ t=0.32
0
% es.tEZ (V/m) @ t=0.32
2.6721849659734964
% es.Ex (V/m) @ t=0.32
0.8698435714422907
% es.Ey (V/m) @ t=0.32
0.2107315266419698
% es.Ez (V/m) @ t=0.32
2.672184965973501
% es.tEx (V/m) @ t=0.32
0.8698435714422814
% es.tEy (V/m) @ t=0.32
0
% es.tEz (V/m) @ t=0.32
2.6721849659734964
% V (V) @ t=0.32
0.013180364856922512
% es.normE (V/m) @ t=0.34
2.8451289444289984
% es.EX (V/m) @ t=0.34
0.8781850135069738
% es.EY (V/m) @ t=0.34
0.21275218724483058
% es.EZ (V/m) @ t=0.34
2.6978104299588477
% es.tEX (V/m) @ t=0.34
0.8781850135069789
% es.tEY (V/m) @ t=0.34
0
% es.tEZ (V/m) @ t=0.34
2.6978104299588708
% es.Ex (V/m) @ t=0.34
0.8781850135069738
% es.Ey (V/m) @ t=0.34
0.21275218724483058
% es.Ez (V/m) @ t=0.34
2.6978104299588477
% es.tEx (V/m) @ t=0.34
0.8781850135069789
% es.tEy (V/m) @ t=0.34
0
% es.tEz (V/m) @ t=0.34
2.6978104299588708
% V (V) @ t=0.34
0.013306767538568538
% es.normE (V/m) @ t=0.36
2.872153685936996
% es.EX (V/m) @ t=0.36
0.8865264555716397
% es.EY (V/m) @ t=0.36
0.21477284784777795
% es.EZ (V/m) @ t=0.36
2.7234358939442274
% es.tEX (V/m) @ t=0.36
0.8865264555716337
% es.tEY (V/m) @ t=0.36
0
% es.tEZ (V/m) @ t=0.36
2.7234358939442167
% es.Ex (V/m) @ t=0.36
0.8865264555716397
% es.Ey (V/m) @ t=0.36
0.21477284784777795
% es.Ez (V/m) @ t=0.36
2.7234358939442274
% es.tEx (V/m) @ t=0.36
0.8865264555716337
% es.tEy (V/m) @ t=0.36
0
% es.tEz (V/m) @ t=0.36
2.7234358939442167
% V (V) @ t=0.36
0.013433170220214563
% es.normE (V/m) @ t=0.38
2.8991784274449817
% es.EX (V/m) @ t=0.38
0.8948678976363242
% es.EY (V/m) @ t=0.38
0.2167935084506858
% es.EZ (V/m) @ t=0.38
2.7490613579295644
% es.tEX (V/m) @ t=0.38
0.894867897636324
% es.tEY (V/m) @ t=0.38
0
% es.tEZ (V/m) @ t=0.38
2.7490613579295804
% es.Ex (V/m) @ t=0.38
0.8948678976363242
% es.Ey (V/m) @ t=0.38
0.2167935084506858
% es.Ez (V/m) @ t=0.38
2.7490613579295644
% es.tEx (V/m) @ t=0.38
0.894867897636324
% es.tEy (V/m) @ t=0.38
0
% es.tEz (V/m) @ t=0.38
2.7490613579295804
% V (V) @ t=0.38
0.013559572901860592
% es.normE (V/m) @ t=0.4
2.926203168953019
% es.EX (V/m) @ t=0.4
0.9032093397009964
% es.EY (V/m) @ t=0.4
0.21881416905362117
% es.EZ (V/m) @ t=0.4
2.7746868219149317
% es.tEX (V/m) @ t=0.4
0.903209339700993
% es.tEY (V/m) @ t=0.4
0
% es.tEZ (V/m) @ t=0.4
2.7746868219149405
% es.Ex (V/m) @ t=0.4
0.9032093397009964
% es.Ey (V/m) @ t=0.4
0.21881416905362117
% es.Ez (V/m) @ t=0.4
2.7746868219149317
% es.tEx (V/m) @ t=0.4
0.903209339700993
% es.tEy (V/m) @ t=0.4
0
% es.tEz (V/m) @ t=0.4
2.7746868219149405
% V (V) @ t=0.4
0.013685975583506621
% es.normE (V/m) @ t=0.42
2.9532279104610706
% es.EX (V/m) @ t=0.42
0.9115507817656858
% es.EY (V/m) @ t=0.42
0.22083482965655743
% es.EZ (V/m) @ t=0.42
2.800312285900283
% es.tEX (V/m) @ t=0.42
0.9115507817656834
% es.tEY (V/m) @ t=0.42
0
% es.tEZ (V/m) @ t=0.42
2.8003122859002723
% es.Ex (V/m) @ t=0.42
0.9115507817656858
% es.Ey (V/m) @ t=0.42
0.22083482965655743
% es.Ez (V/m) @ t=0.42
2.800312285900283
% es.tEx (V/m) @ t=0.42
0.9115507817656834
% es.tEy (V/m) @ t=0.42
0
% es.tEz (V/m) @ t=0.42
2.8003122859002723
% V (V) @ t=0.42
0.013812378265152645
% es.normE (V/m) @ t=0.44
2.9802526519691357
% es.EX (V/m) @ t=0.44
0.9198922238303515
% es.EY (V/m) @ t=0.44
0.22285549025945062
% es.EZ (V/m) @ t=0.44
2.825937749885634
% es.tEX (V/m) @ t=0.44
0.9198922238303595
% es.tEY (V/m) @ t=0.44
0
% es.tEZ (V/m) @ t=0.44
2.825937749885636
% es.Ex (V/m) @ t=0.44
0.9198922238303515
% es.Ey (V/m) @ t=0.44
0.22285549025945062
% es.Ez (V/m) @ t=0.44
2.825937749885634
% es.tEx (V/m) @ t=0.44
0.9198922238303595
% es.tEy (V/m) @ t=0.44
0
% es.tEz (V/m) @ t=0.44
2.825937749885636
% V (V) @ t=0.44
0.013938780946798672
% es.normE (V/m) @ t=0.46
3.007277393477252
% es.EX (V/m) @ t=0.46
0.9282336658950547
% es.EY (V/m) @ t=0.46
0.2248761508623791
% es.EZ (V/m) @ t=0.46
2.8515632138710005
% es.tEX (V/m) @ t=0.46
0.9282336658950641
% es.tEY (V/m) @ t=0.46
0
% es.tEZ (V/m) @ t=0.46
2.8515632138710103
% es.Ex (V/m) @ t=0.46
0.9282336658950547
% es.Ey (V/m) @ t=0.46
0.2248761508623791
% es.Ez (V/m) @ t=0.46
2.8515632138710005
% es.tEx (V/m) @ t=0.46
0.9282336658950641
% es.tEy (V/m) @ t=0.46
0
% es.tEz (V/m) @ t=0.46
2.8515632138710103
% V (V) @ t=0.46
0.014065183628444701
% es.normE (V/m) @ t=0.48
3.0343021349853805
% es.EX (V/m) @ t=0.48
0.9365751079597242
% es.EY (V/m) @ t=0.48
0.22689681146531515
% es.EZ (V/m) @ t=0.48
2.877188677856367
% es.tEX (V/m) @ t=0.48
0.936575107959726
% es.tEY (V/m) @ t=0.48
0
% es.tEZ (V/m) @ t=0.48
2.8771886778563704
% es.Ex (V/m) @ t=0.48
0.9365751079597242
% es.Ey (V/m) @ t=0.48
0.22689681146531515
% es.Ez (V/m) @ t=0.48
2.877188677856367
% es.tEx (V/m) @ t=0.48
0.936575107959726
% es.tEy (V/m) @ t=0.48
0
% es.tEz (V/m) @ t=0.48
2.8771886778563704
% V (V) @ t=0.48
0.014191586310090728
% es.normE (V/m) @ t=0.5
3.06132687649354
% es.EX (V/m) @ t=0.5
0.9449165500244119
% es.EY (V/m) @ t=0.5
0.2289174720682301
% es.EZ (V/m) @ t=0.5
2.9028141418417386
% es.tEX (V/m) @ t=0.5
0.9449165500244163
% es.tEY (V/m) @ t=0.5
0
% es.tEZ (V/m) @ t=0.5
2.90281414184172
% es.Ex (V/m) @ t=0.5
0.9449165500244119
% es.Ey (V/m) @ t=0.5
0.2289174720682301
% es.Ez (V/m) @ t=0.5
2.9028141418417386
% es.tEx (V/m) @ t=0.5
0.9449165500244163
% es.tEy (V/m) @ t=0.5
0
% es.tEz (V/m) @ t=0.5
2.90281414184172
% V (V) @ t=0.5
0.014317988991736755
% es.normE (V/m) @ t=0.52
3.0895212278069577
% es.EX (V/m) @ t=0.52
0.9536189982254373
% es.EY (V/m) @ t=0.52
0.2310255729391748
% es.EZ (V/m) @ t=0.52
2.9295486585440855
% es.tEX (V/m) @ t=0.52
0.9536189982254228
% es.tEY (V/m) @ t=0.52
0
% es.tEZ (V/m) @ t=0.52
2.929548658544089
% es.Ex (V/m) @ t=0.52
0.9536189982254373
% es.Ey (V/m) @ t=0.52
0.2310255729391748
% es.Ez (V/m) @ t=0.52
2.9295486585440855
% es.tEx (V/m) @ t=0.52
0.9536189982254228
% es.tEy (V/m) @ t=0.52
0
% es.tEz (V/m) @ t=0.52
2.929548658544089
% V (V) @ t=0.52
0.014449862710239412
% es.normE (V/m) @ t=0.54
3.1194670845336576
% es.EX (V/m) @ t=0.54
0.962862057662089
% es.EY (V/m) @ t=0.54
0.23326461671271104
% es.EZ (V/m) @ t=0.54
2.9579439956573657
% es.tEX (V/m) @ t=0.54
0.9628620576620932
% es.tEY (V/m) @ t=0.54
0
% es.tEZ (V/m) @ t=0.54
2.95794399565737
% es.Ex (V/m) @ t=0.54
0.962862057662089
% es.Ey (V/m) @ t=0.54
0.23326461671271104
% es.Ez (V/m) @ t=0.54
2.9579439956573657
% es.tEx (V/m) @ t=0.54
0.9628620576620932
% es.tEy (V/m) @ t=0.54
0
% es.tEz (V/m) @ t=0.54
2.95794399565737
% V (V) @ t=0.54
0.014589929375336408
% es.normE (V/m) @ t=0.56
3.149412941260394
% es.EX (V/m) @ t=0.56
0.9721051170987467
% es.EY (V/m) @ t=0.56
0.23550366048622684
% es.EZ (V/m) @ t=0.56
2.9863393327706493
% es.tEX (V/m) @ t=0.56
0.9721051170987351
% es.tEY (V/m) @ t=0.56
0
% es.tEZ (V/m) @ t=0.56
2.9863393327706547
% es.Ex (V/m) @ t=0.56
0.9721051170987467
% es.Ey (V/m) @ t=0.56
0.23550366048622684
% es.Ez (V/m) @ t=0.56
2.9863393327706493
% es.tEx (V/m) @ t=0.56
0.9721051170987351
% es.tEy (V/m) @ t=0.56
0
% es.tEz (V/m) @ t=0.56
2.9863393327706547
% V (V) @ t=0.56
0.014729996040433402
% es.normE (V/m) @ t=0.58
3.17935879798715
% es.EX (V/m) @ t=0.58
0.9813481765353798
% es.EY (V/m) @ t=0.58
0.23774270425973776
% es.EZ (V/m) @ t=0.58
3.0147346698839277
% es.tEX (V/m) @ t=0.58
0.9813481765353913
% es.tEY (V/m) @ t=0.58
0
% es.tEZ (V/m) @ t=0.58
3.014734669883932
% es.Ex (V/m) @ t=0.58
0.9813481765353798
% es.Ey (V/m) @ t=0.58
0.23774270425973776
% es.Ez (V/m) @ t=0.58
3.0147346698839277
% es.tEx (V/m) @ t=0.58
0.9813481765353913
% es.tEy (V/m) @ t=0.58
0
% es.tEz (V/m) @ t=0.58
3.014734669883932
% V (V) @ t=0.58
0.014870062705530398
% es.normE (V/m) @ t=0.6
3.2093046547139705
% es.EX (V/m) @ t=0.6
0.9905912359720501
% es.EY (V/m) @ t=0.6
0.2399817480332751
% es.EZ (V/m) @ t=0.6
3.0431300069972282
% es.tEX (V/m) @ t=0.6
0.9905912359720617
% es.tEY (V/m) @ t=0.6
0
% es.tEZ (V/m) @ t=0.6
3.043130006997245
% es.Ex (V/m) @ t=0.6
0.9905912359720501
% es.Ey (V/m) @ t=0.6
0.2399817480332751
% es.Ez (V/m) @ t=0.6
3.0431300069972282
% es.tEx (V/m) @ t=0.6
0.9905912359720617
% es.tEy (V/m) @ t=0.6
0
% es.tEz (V/m) @ t=0.6
3.043130006997245
% V (V) @ t=0.6
0.015010129370627392
% es.normE (V/m) @ t=0.62
3.239250511440795
% es.EX (V/m) @ t=0.62
0.9998342954087045
% es.EY (V/m) @ t=0.62
0.24222079180680023
% es.EZ (V/m) @ t=0.62
3.0715253441105066
% es.tEX (V/m) @ t=0.62
0.9998342954087036
% es.tEY (V/m) @ t=0.62
0
% es.tEZ (V/m) @ t=0.62
3.071525344110512
% es.Ex (V/m) @ t=0.62
0.9998342954087045
% es.Ey (V/m) @ t=0.62
0.24222079180680023
% es.Ez (V/m) @ t=0.62
3.0715253441105066
% es.tEx (V/m) @ t=0.62
0.9998342954087036
% es.tEy (V/m) @ t=0.62
0
% es.tEz (V/m) @ t=0.62
3.071525344110512
% V (V) @ t=0.62
0.015150196035724386
% es.normE (V/m) @ t=0.64
3.2691963681676515
% es.EX (V/m) @ t=0.64
1.0090773548453489
% es.EY (V/m) @ t=0.64
0.24445983558037576
% es.EZ (V/m) @ t=0.64
3.0999206812237867
% es.tEX (V/m) @ t=0.64
1.0090773548453598
% es.tEY (V/m) @ t=0.64
0
% es.tEZ (V/m) @ t=0.64
3.099920681223793
% es.Ex (V/m) @ t=0.64
1.0090773548453489
% es.Ey (V/m) @ t=0.64
0.24445983558037576
% es.Ez (V/m) @ t=0.64
3.0999206812237867
% es.tEx (V/m) @ t=0.64
1.0090773548453598
% es.tEy (V/m) @ t=0.64
0
% es.tEz (V/m) @ t=0.64
3.099920681223793
% V (V) @ t=0.64
0.01529026270082138
% es.normE (V/m) @ t=0.66
3.299142224894565
% es.EX (V/m) @ t=0.66
1.0183204142820073
% es.EY (V/m) @ t=0.66
0.24669887935385915
% es.EZ (V/m) @ t=0.66
3.1283160183370997
% es.tEX (V/m) @ t=0.66
1.0183204142820017
% es.tEY (V/m) @ t=0.66
0
% es.tEZ (V/m) @ t=0.66
3.1283160183371166
% es.Ex (V/m) @ t=0.66
1.0183204142820073
% es.Ey (V/m) @ t=0.66
0.24669887935385915
% es.Ez (V/m) @ t=0.66
3.1283160183370997
% es.tEx (V/m) @ t=0.66
1.0183204142820017
% es.tEy (V/m) @ t=0.66
0
% es.tEz (V/m) @ t=0.66
3.1283160183371166
% V (V) @ t=0.66
0.015430329365918375
% es.normE (V/m) @ t=0.68
3.3290880816214825
% es.EX (V/m) @ t=0.68
1.0275634737186807
% es.EY (V/m) @ t=0.68
0.24893792312737673
% es.EZ (V/m) @ t=0.68
3.15671135545038
% es.tEX (V/m) @ t=0.68
1.0275634737186863
% es.tEY (V/m) @ t=0.68
0
% es.tEZ (V/m) @ t=0.68
3.156711355450401
% es.Ex (V/m) @ t=0.68
1.0275634737186807
% es.Ey (V/m) @ t=0.68
0.24893792312737673
% es.Ez (V/m) @ t=0.68
3.15671135545038
% es.tEx (V/m) @ t=0.68
1.0275634737186863
% es.tEy (V/m) @ t=0.68
0
% es.tEz (V/m) @ t=0.68
3.156711355450401
% V (V) @ t=0.68
0.015570396031015371
% es.normE (V/m) @ t=0.7
3.359033938348462
% es.EX (V/m) @ t=0.7
1.0368065331553282
% es.EY (V/m) @ t=0.7
0.25117696690087166
% es.EZ (V/m) @ t=0.7
3.185106692563707
% es.tEX (V/m) @ t=0.7
1.0368065331553282
% es.tEY (V/m) @ t=0.7
0
% es.tEZ (V/m) @ t=0.7
3.1851066925637106
% es.Ex (V/m) @ t=0.7
1.0368065331553282
% es.Ey (V/m) @ t=0.7
0.25117696690087166
% es.Ez (V/m) @ t=0.7
3.185106692563707
% es.tEx (V/m) @ t=0.7
1.0368065331553282
% es.tEy (V/m) @ t=0.7
0
% es.tEz (V/m) @ t=0.7
3.1851066925637106
% V (V) @ t=0.7
0.015710462696112367
% es.normE (V/m) @ t=0.72
3.388979795075396
% es.EX (V/m) @ t=0.72
1.0460495925919615
% es.EY (V/m) @ t=0.72
0.2534160106744081
% es.EZ (V/m) @ t=0.72
3.2135020296769596
% es.tEX (V/m) @ t=0.72
1.0460495925919702
% es.tEY (V/m) @ t=0.72
0
% es.tEZ (V/m) @ t=0.72
3.2135020296769774
% es.Ex (V/m) @ t=0.72
1.0460495925919615
% es.Ey (V/m) @ t=0.72
0.2534160106744081
% es.Ez (V/m) @ t=0.72
3.2135020296769596
% es.tEx (V/m) @ t=0.72
1.0460495925919702
% es.tEy (V/m) @ t=0.72
0
% es.tEz (V/m) @ t=0.72
3.2135020296769774
% V (V) @ t=0.72
0.01585052936120936
% es.normE (V/m) @ t=0.74
3.418925651802434
% es.EX (V/m) @ t=0.74
1.0552926520286448
% es.EY (V/m) @ t=0.74
0.25565505444794123
% es.EZ (V/m) @ t=0.74
3.241897366790279
% es.tEX (V/m) @ t=0.74
1.0552926520286405
% es.tEY (V/m) @ t=0.74
0
% es.tEZ (V/m) @ t=0.74
3.241897366790276
% es.Ex (V/m) @ t=0.74
1.0552926520286448
% es.Ey (V/m) @ t=0.74
0.25565505444794123
% es.Ez (V/m) @ t=0.74
3.241897366790279
% es.tEx (V/m) @ t=0.74
1.0552926520286405
% es.tEy (V/m) @ t=0.74
0
% es.tEz (V/m) @ t=0.74
3.241897366790276
% V (V) @ t=0.74
0.015990596026306356
% es.normE (V/m) @ t=0.76
3.4488715085294475
% es.EX (V/m) @ t=0.76
1.0645357114652823
% es.EY (V/m) @ t=0.76
0.2578940982215052
% es.EZ (V/m) @ t=0.76
3.270292703903558
% es.tEX (V/m) @ t=0.76
1.0645357114652825
% es.tEY (V/m) @ t=0.76
0
% es.tEZ (V/m) @ t=0.76
3.2702927039035536
% es.Ex (V/m) @ t=0.76
1.0645357114652823
% es.Ey (V/m) @ t=0.76
0.2578940982215052
% es.Ez (V/m) @ t=0.76
3.270292703903558
% es.tEx (V/m) @ t=0.76
1.0645357114652825
% es.tEy (V/m) @ t=0.76
0
% es.tEz (V/m) @ t=0.76
3.2702927039035536
% V (V) @ t=0.76
0.016130662691403348
% es.normE (V/m) @ t=0.78
3.4808032167460015
% es.EX (V/m) @ t=0.78
1.0743917396501868
% es.EY (V/m) @ t=0.78
0.2602816629228939
% es.EZ (V/m) @ t=0.78
3.300571061478519
% es.tEX (V/m) @ t=0.78
1.0743917396501956
% es.tEY (V/m) @ t=0.78
0
% es.tEZ (V/m) @ t=0.78
3.3005710614785286
% es.Ex (V/m) @ t=0.78
1.0743917396501868
% es.Ey (V/m) @ t=0.78
0.2602816629228939
% es.Ez (V/m) @ t=0.78
3.300571061478519
% es.tEx (V/m) @ t=0.78
1.0743917396501956
% es.tEy (V/m) @ t=0.78
0
% es.tEz (V/m) @ t=0.78
3.3005710614785286
% V (V) @ t=0.78
0.016280016383249545
% es.normE (V/m) @ t=0.8
3.5140384223401604
% es.EX (V/m) @ t=0.8
1.0846501157246586
% es.EY (V/m) @ t=0.8
0.26276671559912534
% es.EZ (V/m) @ t=0.8
3.3320854189491067
% es.tEX (V/m) @ t=0.8
1.0846501157246706
% es.tEY (V/m) @ t=0.8
0
% es.tEZ (V/m) @ t=0.8
3.332085418949106
% es.Ex (V/m) @ t=0.8
1.0846501157246586
% es.Ey (V/m) @ t=0.8
0.26276671559912534
% es.Ez (V/m) @ t=0.8
3.3320854189491067
% es.tEx (V/m) @ t=0.8
1.0846501157246706
% es.tEy (V/m) @ t=0.8
0
% es.tEz (V/m) @ t=0.8
3.332085418949106
% V (V) @ t=0.8
0.0164354660067793
% es.normE (V/m) @ t=0.82
3.5472736279343646
% es.EX (V/m) @ t=0.82
1.0949084917991658
% es.EY (V/m) @ t=0.82
0.2652517682754496
% es.EZ (V/m) @ t=0.82
3.3635997764197096
% es.tEX (V/m) @ t=0.82
1.094908491799174
% es.tEY (V/m) @ t=0.82
0
% es.tEZ (V/m) @ t=0.82
3.363599776419722
% es.Ex (V/m) @ t=0.82
1.0949084917991658
% es.Ey (V/m) @ t=0.82
0.2652517682754496
% es.Ez (V/m) @ t=0.82
3.3635997764197096
% es.tEx (V/m) @ t=0.82
1.094908491799174
% es.tEy (V/m) @ t=0.82
0
% es.tEz (V/m) @ t=0.82
3.363599776419722
% V (V) @ t=0.82
0.01659091563030905
% es.normE (V/m) @ t=0.84
3.5805088335285813
% es.EX (V/m) @ t=0.84
1.1051668678736688
% es.EY (V/m) @ t=0.84
0.2677368209516784
% es.EZ (V/m) @ t=0.84
3.395114133890319
% es.tEX (V/m) @ t=0.84
1.1051668678736775
% es.tEY (V/m) @ t=0.84
0
% es.tEZ (V/m) @ t=0.84
3.3951141338903312
% es.Ex (V/m) @ t=0.84
1.1051668678736688
% es.Ey (V/m) @ t=0.84
0.2677368209516784
% es.Ez (V/m) @ t=0.84
3.395114133890319
% es.tEx (V/m) @ t=0.84
1.1051668678736775
% es.tEy (V/m) @ t=0.84
0
% es.tEz (V/m) @ t=0.84
3.3951141338903312
% V (V) @ t=0.84
0.016746365253838803
% es.normE (V/m) @ t=0.86
3.6137440391228113
% es.EX (V/m) @ t=0.86
1.1154252439481656
% es.EY (V/m) @ t=0.86
0.27022187362801264
% es.EZ (V/m) @ t=0.86
3.4266284913609226
% es.tEX (V/m) @ t=0.86
1.1154252439481525
% es.tEY (V/m) @ t=0.86
0
% es.tEZ (V/m) @ t=0.86
3.4266284913609297
% es.Ex (V/m) @ t=0.86
1.1154252439481656
% es.Ey (V/m) @ t=0.86
0.27022187362801264
% es.Ez (V/m) @ t=0.86
3.4266284913609226
% es.tEx (V/m) @ t=0.86
1.1154252439481525
% es.tEy (V/m) @ t=0.86
0
% es.tEz (V/m) @ t=0.86
3.4266284913609297
% V (V) @ t=0.86
0.016901814877368557
% es.normE (V/m) @ t=0.88
3.646979244717051
% es.EX (V/m) @ t=0.88
1.125683620022677
% es.EY (V/m) @ t=0.88
0.27270692630425897
% es.EZ (V/m) @ t=0.88
3.4581428488315256
% es.tEX (V/m) @ t=0.88
1.1256836200226843
% es.tEY (V/m) @ t=0.88
0
% es.tEZ (V/m) @ t=0.88
3.458142848831532
% es.Ex (V/m) @ t=0.88
1.125683620022677
% es.Ey (V/m) @ t=0.88
0.27270692630425897
% es.Ez (V/m) @ t=0.88
3.4581428488315256
% es.tEx (V/m) @ t=0.88
1.1256836200226843
% es.tEy (V/m) @ t=0.88
0
% es.tEz (V/m) @ t=0.88
3.458142848831532
% V (V) @ t=0.88
0.01705726450089831
% es.normE (V/m) @ t=0.9
3.6802144503112766
% es.EX (V/m) @ t=0.9
1.1359419960971495
% es.EY (V/m) @ t=0.9
0.275191978980484
% es.EZ (V/m) @ t=0.9
3.4896572063021134
% es.tEX (V/m) @ t=0.9
1.1359419960971593
% es.tEY (V/m) @ t=0.9
0
% es.tEZ (V/m) @ t=0.9
3.489657206302123
% es.Ex (V/m) @ t=0.9
1.1359419960971495
% es.Ey (V/m) @ t=0.9
0.275191978980484
% es.Ez (V/m) @ t=0.9
3.4896572063021134
% es.tEx (V/m) @ t=0.9
1.1359419960971593
% es.tEy (V/m) @ t=0.9
0
% es.tEz (V/m) @ t=0.9
3.489657206302123
% V (V) @ t=0.9
0.017212714124428062
% es.normE (V/m) @ t=0.92
3.71344965590556
% es.EX (V/m) @ t=0.92
1.1462003721716751
% es.EY (V/m) @ t=0.92
0.27767703165674074
% es.EZ (V/m) @ t=0.92
3.5211715637727306
% es.tEX (V/m) @ t=0.92
1.146200372171677
% es.tEY (V/m) @ t=0.92
0
% es.tEZ (V/m) @ t=0.92
3.5211715637727536
% es.Ex (V/m) @ t=0.92
1.1462003721716751
% es.Ey (V/m) @ t=0.92
0.27767703165674074
% es.Ez (V/m) @ t=0.92
3.5211715637727306
% es.tEx (V/m) @ t=0.92
1.146200372171677
% es.tEy (V/m) @ t=0.92
0
% es.tEz (V/m) @ t=0.92
3.5211715637727536
% V (V) @ t=0.92
0.01736816374795782
% es.normE (V/m) @ t=0.94
3.7466848614998125
% es.EX (V/m) @ t=0.94
1.1564587482461566
% es.EY (V/m) @ t=0.94
0.28016208433307543
% es.EZ (V/m) @ t=0.94
3.5526859212433104
% es.tEX (V/m) @ t=0.94
1.156458748246152
% es.tEY (V/m) @ t=0.94
0
% es.tEZ (V/m) @ t=0.94
3.552685921243306
% es.Ex (V/m) @ t=0.94
1.1564587482461566
% es.Ey (V/m) @ t=0.94
0.28016208433307543
% es.Ez (V/m) @ t=0.94
3.5526859212433104
% es.tEx (V/m) @ t=0.94
1.156458748246152
% es.tEy (V/m) @ t=0.94
0
% es.tEz (V/m) @ t=0.94
3.552685921243306
% V (V) @ t=0.94
0.01752361337148757
% es.normE (V/m) @ t=0.96
3.7799200670941158
% es.EX (V/m) @ t=0.96
1.1667171243206638
% es.EY (V/m) @ t=0.96
0.28264713700933486
% es.EZ (V/m) @ t=0.96
3.5842002787139293
% es.tEX (V/m) @ t=0.96
1.1667171243206838
% es.tEY (V/m) @ t=0.96
0
% es.tEZ (V/m) @ t=0.96
3.584200278713947
% es.Ex (V/m) @ t=0.96
1.1667171243206638
% es.Ey (V/m) @ t=0.96
0.28264713700933486
% es.Ez (V/m) @ t=0.96
3.5842002787139293
% es.tEx (V/m) @ t=0.96
1.1667171243206838
% es.tEy (V/m) @ t=0.96
0
% es.tEz (V/m) @ t=0.96
3.584200278713947
% V (V) @ t=0.96
0.01767906299501732
% es.normE (V/m) @ t=0.98
3.8131552726884212
% es.EX (V/m) @ t=0.98
1.1769755003951892
% es.EY (V/m) @ t=0.98
0.2851321896856025
% es.EZ (V/m) @ t=0.98
3.6157146361845314
% es.tEX (V/m) @ t=0.98
1.1769755003951872
% es.tEY (V/m) @ t=0.98
0
% es.tEZ (V/m) @ t=0.98
3.6157146361845314
% es.Ex (V/m) @ t=0.98
1.1769755003951892
% es.Ey (V/m) @ t=0.98
0.2851321896856025
% es.Ez (V/m) @ t=0.98
3.6157146361845314
% es.tEx (V/m) @ t=0.98
1.1769755003951872
% es.tEy (V/m) @ t=0.98
0
% es.tEz (V/m) @ t=0.98
3.6157146361845314
% V (V) @ t=0.98
0.017834512618547075
% es.normE (V/m) @ t=1
3.846390478282715
% es.EX (V/m) @ t=1
1.1872338764696537
% es.EY (V/m) @ t=1
0.2876172423617991
% es.EZ (V/m) @ t=1
3.647228993655135
% es.tEX (V/m) @ t=1
1.187233876469648
% es.tEY (V/m) @ t=1
0
% es.tEZ (V/m) @ t=1
3.6472289936551263
% es.Ex (V/m) @ t=1
1.1872338764696537
% es.Ey (V/m) @ t=1
0.2876172423617991
% es.Ez (V/m) @ t=1
3.647228993655135
% es.tEx (V/m) @ t=1
1.187233876469648
% es.tEy (V/m) @ t=1
0
% es.tEz (V/m) @ t=1
3.6472289936551263
% V (V) @ t=1
0.01798996224207683
% es.normE (V/m) @ t=1.02
3.8796256838770393
% es.EX (V/m) @ t=1.02
1.1974922525441574
% es.EY (V/m) @ t=1.02
0.29010229503812
% es.EZ (V/m) @ t=1.02
3.678743351125738
% es.tEX (V/m) @ t=1.02
1.1974922525441656
% es.tEY (V/m) @ t=1.02
0
% es.tEZ (V/m) @ t=1.02
3.6787433511257426
% es.Ex (V/m) @ t=1.02
1.1974922525441574
% es.Ey (V/m) @ t=1.02
0.29010229503812
% es.Ez (V/m) @ t=1.02
3.678743351125738
% es.tEx (V/m) @ t=1.02
1.1974922525441656
% es.tEy (V/m) @ t=1.02
0
% es.tEz (V/m) @ t=1.02
3.6787433511257426
% V (V) @ t=1.02
0.018145411865606583
% es.normE (V/m) @ t=1.04
3.914160053686377
% es.EX (V/m) @ t=1.04
1.2081516992001318
% es.EY (V/m) @ t=1.04
0.29268464399381533
% es.EZ (V/m) @ t=1.04
3.7114895701442476
% es.tEX (V/m) @ t=1.04
1.2081516992001298
% es.tEY (V/m) @ t=1.04
0
% es.tEZ (V/m) @ t=1.04
3.7114895701442556
% es.Ex (V/m) @ t=1.04
1.2081516992001318
% es.Ey (V/m) @ t=1.04
0.29268464399381533
% es.Ez (V/m) @ t=1.04
3.7114895701442476
% es.tEx (V/m) @ t=1.04
1.2081516992001298
% es.tEy (V/m) @ t=1.04
0
% es.tEz (V/m) @ t=1.04
3.7114895701442556
% V (V) @ t=1.04