% Model:              1 neuron.mph
% Version:            COMSOL 6.1.0.252
% Date:               Mar 22 2023, 18:06
% Dimension:          0
% Nodes:              14017
% Expressions:        14017
% Description:        Electric field norm, Electric field, X component, Electric field, Y component, Electric field, Z component, Tangential electric field, X component, Tangential electric field, Y component, Tangential electric field, Z component, Electric field, x component, Electric field, y component, Electric field, z component, Tangential electric field, x component, Tangential electric field, y component, Tangential electric field, z component, Electric potential
% Length unit:        mm
% x
2
% y
12.2
% z
1.33
% es.normE (V/m) @ t=0
2.3803416421128594
% es.EX (V/m) @ t=0
-2.1893841317134175
% es.EY (V/m) @ t=0
0.17078709313324258
% es.EZ (V/m) @ t=0
0.9156420851904014
% es.tEX (V/m) @ t=0
-2.189384131713414
% es.tEY (V/m) @ t=0
0
% es.tEZ (V/m) @ t=0
0.9156420851904059
% es.Ex (V/m) @ t=0
-2.1893841317134175
% es.Ey (V/m) @ t=0
0.17078709313324258
% es.Ez (V/m) @ t=0
0.9156420851904014
% es.tEx (V/m) @ t=0
-2.189384131713414
% es.tEy (V/m) @ t=0
0
% es.tEz (V/m) @ t=0
0.9156420851904059
% V (V) @ t=0
0.01328991960883702
% es.normE (V/m) @ t=0.02
2.0559227404100064
% es.EX (V/m) @ t=0.02
-1.890991000627247
% es.EY (V/m) @ t=0.02
0.14751036688049446
% es.EZ (V/m) @ t=0.02
0.7908484026858443
% es.tEX (V/m) @ t=0.02
-1.8909910006272348
% es.tEY (V/m) @ t=0.02
0
% es.tEZ (V/m) @ t=0.02
0.790848402685846
% es.Ex (V/m) @ t=0.02
-1.890991000627247
% es.Ey (V/m) @ t=0.02
0.14751036688049446
% es.Ez (V/m) @ t=0.02
0.7908484026858443
% es.tEx (V/m) @ t=0.02
-1.8909910006272348
% es.tEy (V/m) @ t=0.02
0
% es.tEz (V/m) @ t=0.02
0.790848402685846
% V (V) @ t=0.02
0.01147862450510819
% es.normE (V/m) @ t=0.04
2.074833244581015
% es.EX (V/m) @ t=0.04
-1.9083844524650586
% es.EY (V/m) @ t=0.04
0.14886717636293656
% es.EZ (V/m) @ t=0.04
0.7981226751105039
% es.tEX (V/m) @ t=0.04
-1.9083844524650484
% es.tEY (V/m) @ t=0.04
0
% es.tEZ (V/m) @ t=0.04
0.798122675110502
% es.Ex (V/m) @ t=0.04
-1.9083844524650586
% es.Ey (V/m) @ t=0.04
0.14886717636293656
% es.Ez (V/m) @ t=0.04
0.7981226751105039
% es.tEx (V/m) @ t=0.04
-1.9083844524650484
% es.tEy (V/m) @ t=0.04
0
% es.tEz (V/m) @ t=0.04
0.798122675110502
% V (V) @ t=0.04
0.011584205598303384
% es.normE (V/m) @ t=0.06
2.0938802750187193
% es.EX (V/m) @ t=0.06
-1.9259034786392841
% es.EY (V/m) @ t=0.06
0.15023378047897074
% es.EZ (V/m) @ t=0.06
0.8054494636213321
% es.tEX (V/m) @ t=0.06
-1.9259034786392775
% es.tEY (V/m) @ t=0.06
0
% es.tEZ (V/m) @ t=0.06
0.8054494636213398
% es.Ex (V/m) @ t=0.06
-1.9259034786392841
% es.Ey (V/m) @ t=0.06
0.15023378047897074
% es.Ez (V/m) @ t=0.06
0.8054494636213321
% es.tEx (V/m) @ t=0.06
-1.9259034786392775
% es.tEy (V/m) @ t=0.06
0
% es.tEz (V/m) @ t=0.06
0.8054494636213398
% V (V) @ t=0.06
0.011690549042375167
% es.normE (V/m) @ t=0.08
2.1132952422992792
% es.EX (V/m) @ t=0.08
-1.9437609242676663
% es.EY (V/m) @ t=0.08
0.15162678452429357
% es.EZ (V/m) @ t=0.08
0.8129177868427739
% es.tEX (V/m) @ t=0.08
-1.9437609242676608
% es.tEY (V/m) @ t=0.08
0
% es.tEZ (V/m) @ t=0.08
0.8129177868427817
% es.Ex (V/m) @ t=0.08
-1.9437609242676663
% es.Ey (V/m) @ t=0.08
0.15162678452429357
% es.Ez (V/m) @ t=0.08
0.8129177868427739
% es.tEx (V/m) @ t=0.08
-1.9437609242676608
% es.tEy (V/m) @ t=0.08
0
% es.tEz (V/m) @ t=0.08
0.8129177868427817
% V (V) @ t=0.08
0.01179894666827087
% es.normE (V/m) @ t=0.1
2.1328049833348643
% es.EX (V/m) @ t=0.1
-1.9617055405153103
% es.EY (V/m) @ t=0.1
0.15302658870522157
% es.EZ (V/m) @ t=0.1
0.8204225667992755
% es.tEX (V/m) @ t=0.1
-1.9617055405153057
% es.tEY (V/m) @ t=0.1
0
% es.tEZ (V/m) @ t=0.1
0.8204225667992802
% es.Ex (V/m) @ t=0.1
-1.9617055405153103
% es.Ey (V/m) @ t=0.1
0.15302658870522157
% es.Ez (V/m) @ t=0.1
0.8204225667992755
% es.tEx (V/m) @ t=0.1
-1.9617055405153057
% es.tEy (V/m) @ t=0.1
0
% es.tEz (V/m) @ t=0.1
0.8204225667992802
% V (V) @ t=0.1
0.011907873413575992
% es.normE (V/m) @ t=0.12
2.152314724370455
% es.EX (V/m) @ t=0.12
-1.9796501567629632
% es.EY (V/m) @ t=0.12
0.15442639288614946
% es.EZ (V/m) @ t=0.12
0.8279273467557736
% es.tEX (V/m) @ t=0.12
-1.979650156762947
% es.tEY (V/m) @ t=0.12
0
% es.tEZ (V/m) @ t=0.12
0.8279273467557822
% es.Ex (V/m) @ t=0.12
-1.9796501567629632
% es.Ey (V/m) @ t=0.12
0.15442639288614946
% es.Ez (V/m) @ t=0.12
0.8279273467557736
% es.tEx (V/m) @ t=0.12
-1.979650156762947
% es.tEy (V/m) @ t=0.12
0
% es.tEz (V/m) @ t=0.12
0.8279273467557822
% V (V) @ t=0.12
0.012016800158881116
% es.normE (V/m) @ t=0.14
2.172406498941279
% es.EX (V/m) @ t=0.14
-1.9981301129471052
% es.EY (V/m) @ t=0.14
0.1558679595646213
% es.EZ (V/m) @ t=0.14
0.8356560193385106
% es.tEX (V/m) @ t=0.14
-1.9981301129471003
% es.tEY (V/m) @ t=0.14
0
% es.tEZ (V/m) @ t=0.14
0.8356560193385079
% es.Ex (V/m) @ t=0.14
-1.9981301129471052
% es.Ey (V/m) @ t=0.14
0.1558679595646213
% es.Ez (V/m) @ t=0.14
0.8356560193385106
% es.tEx (V/m) @ t=0.14
-1.9981301129471003
% es.tEy (V/m) @ t=0.14
0
% es.tEz (V/m) @ t=0.14
0.8356560193385079
% V (V) @ t=0.14
0.012128976297381975
% es.normE (V/m) @ t=0.16
2.192891822061834
% es.EX (V/m) @ t=0.16
-2.0169720452767246
% es.EY (V/m) @ t=0.16
0.1573377644275521
% es.EZ (V/m) @ t=0.16
0.8435360794496448
% es.tEX (V/m) @ t=0.16
-2.01697204527672
% es.tEY (V/m) @ t=0.16
0
% es.tEZ (V/m) @ t=0.16
0.843536079449656
% es.Ex (V/m) @ t=0.16
-2.0169720452767246
% es.Ey (V/m) @ t=0.16
0.1573377644275521
% es.Ez (V/m) @ t=0.16
0.8435360794496448
% es.tEx (V/m) @ t=0.16
-2.01697204527672
% es.tEy (V/m) @ t=0.16
0
% es.tEz (V/m) @ t=0.16
0.843536079449656
% V (V) @ t=0.16
0.012243349549798523
% es.normE (V/m) @ t=0.18
2.213377145182376
% es.EX (V/m) @ t=0.18
-2.035813977606333
% es.EY (V/m) @ t=0.18
0.15880756929048656
% es.EZ (V/m) @ t=0.18
0.8514161395607738
% es.tEX (V/m) @ t=0.18
-2.035813977606331
% es.tEY (V/m) @ t=0.18
0
% es.tEZ (V/m) @ t=0.18
0.8514161395607793
% es.Ex (V/m) @ t=0.18
-2.035813977606333
% es.Ey (V/m) @ t=0.18
0.15880756929048656
% es.Ez (V/m) @ t=0.18
0.8514161395607738
% es.tEx (V/m) @ t=0.18
-2.035813977606331
% es.tEy (V/m) @ t=0.18
0
% es.tEz (V/m) @ t=0.18
0.8514161395607793
% V (V) @ t=0.18
0.012357722802215075
% es.normE (V/m) @ t=0.2
2.2338624683029327
% es.EX (V/m) @ t=0.2
-2.054655909935951
% es.EY (V/m) @ t=0.2
0.16027737415342813
% es.EZ (V/m) @ t=0.2
0.8592961996719185
% es.tEX (V/m) @ t=0.2
-2.054655909935951
% es.tEY (V/m) @ t=0.2
0
% es.tEZ (V/m) @ t=0.2
0.8592961996719168
% es.Ex (V/m) @ t=0.2
-2.054655909935951
% es.Ey (V/m) @ t=0.2
0.16027737415342813
% es.Ez (V/m) @ t=0.2
0.8592961996719185
% es.tEx (V/m) @ t=0.2
-2.054655909935951
% es.tEy (V/m) @ t=0.2
0
% es.tEz (V/m) @ t=0.2
0.8592961996719168
% V (V) @ t=0.2
0.012472096054631628
% es.normE (V/m) @ t=0.22
2.2543477914234935
% es.EX (V/m) @ t=0.22
-2.073497842265575
% es.EY (V/m) @ t=0.22
0.16174717901637492
% es.EZ (V/m) @ t=0.22
0.8671762597830527
% es.tEX (V/m) @ t=0.22
-2.073497842265562
% es.tEY (V/m) @ t=0.22
0
% es.tEZ (V/m) @ t=0.22
0.8671762597830543
% es.Ex (V/m) @ t=0.22
-2.073497842265575
% es.Ey (V/m) @ t=0.22
0.16174717901637492
% es.Ez (V/m) @ t=0.22
0.8671762597830527
% es.tEx (V/m) @ t=0.22
-2.073497842265562
% es.tEy (V/m) @ t=0.22
0
% es.tEz (V/m) @ t=0.22
0.8671762597830543
% V (V) @ t=0.22
0.012586469307048178
% es.normE (V/m) @ t=0.24
2.274833114544033
% es.EX (V/m) @ t=0.24
-2.092339774595179
% es.EY (V/m) @ t=0.24
0.16321698387928096
% es.EZ (V/m) @ t=0.24
0.8750563198941904
% es.tEX (V/m) @ t=0.24
-2.092339774595171
% es.tEY (V/m) @ t=0.24
0
% es.tEZ (V/m) @ t=0.24
0.8750563198941848
% es.Ex (V/m) @ t=0.24
-2.092339774595179
% es.Ey (V/m) @ t=0.24
0.16321698387928096
% es.Ez (V/m) @ t=0.24
0.8750563198941904
% es.tEx (V/m) @ t=0.24
-2.092339774595171
% es.tEy (V/m) @ t=0.24
0
% es.tEz (V/m) @ t=0.24
0.8750563198941848
% V (V) @ t=0.24
0.01270084255946473
% es.normE (V/m) @ t=0.26
2.2957531703341694
% es.EX (V/m) @ t=0.26
-2.1115815779910694
% es.EY (V/m) @ t=0.26
0.1647179567113919
% es.EZ (V/m) @ t=0.26
0.8831035781522637
% es.tEX (V/m) @ t=0.26
-2.1115815779910587
% es.tEY (V/m) @ t=0.26
0
% es.tEZ (V/m) @ t=0.26
0.8831035781522587
% es.Ex (V/m) @ t=0.26
-2.1115815779910694
% es.Ey (V/m) @ t=0.26
0.1647179567113919
% es.Ez (V/m) @ t=0.26
0.8831035781522637
% es.tEx (V/m) @ t=0.26
-2.1115815779910587
% es.tEy (V/m) @ t=0.26
0
% es.tEz (V/m) @ t=0.26
0.8831035781522587
% V (V) @ t=0.26
0.0128176453457721
% es.normE (V/m) @ t=0.28
2.3184181529567462
% es.EX (V/m) @ t=0.28
-2.132428380969171
% es.EY (V/m) @ t=0.28
0.1663440313117852
% es.EZ (V/m) @ t=0.28
0.8918219351184381
% es.tEX (V/m) @ t=0.28
-2.1324283809691664
% es.tEY (V/m) @ t=0.28
0
% es.tEZ (V/m) @ t=0.28
0.8918219351184362
% es.Ex (V/m) @ t=0.28
-2.132428380969171
% es.Ey (V/m) @ t=0.28
0.1663440313117852
% es.Ez (V/m) @ t=0.28
0.8918219351184381
% es.tEx (V/m) @ t=0.28
-2.1324283809691664
% es.tEy (V/m) @ t=0.28
0
% es.tEz (V/m) @ t=0.28
0.8918219351184362
% V (V) @ t=0.28
0.012944199777568607
% es.normE (V/m) @ t=0.3
2.341083135579339
% es.EX (V/m) @ t=0.3
-2.1532751839472617
% es.EY (V/m) @ t=0.3
0.16797010591219275
% es.EZ (V/m) @ t=0.3
0.9005402920846252
% es.tEX (V/m) @ t=0.3
-2.15327518394726
% es.tEY (V/m) @ t=0.3
0
% es.tEZ (V/m) @ t=0.3
0.9005402920846208
% es.Ex (V/m) @ t=0.3
-2.1532751839472617
% es.Ey (V/m) @ t=0.3
0.16797010591219275
% es.Ez (V/m) @ t=0.3
0.9005402920846252
% es.tEx (V/m) @ t=0.3
-2.15327518394726
% es.tEy (V/m) @ t=0.3
0
% es.tEz (V/m) @ t=0.3
0.9005402920846208
% V (V) @ t=0.3
0.013070754209365114
% es.normE (V/m) @ t=0.32
2.3637481182019666
% es.EX (V/m) @ t=0.32
-2.1741219869253676
% es.EY (V/m) @ t=0.32
0.1695961805126145
% es.EZ (V/m) @ t=0.32
0.9092586490508209
% es.tEX (V/m) @ t=0.32
-2.174121986925364
% es.tEY (V/m) @ t=0.32
0
% es.tEZ (V/m) @ t=0.32
0.9092586490508268
% es.Ex (V/m) @ t=0.32
-2.1741219869253676
% es.Ey (V/m) @ t=0.32
0.1695961805126145
% es.Ez (V/m) @ t=0.32
0.9092586490508209
% es.tEx (V/m) @ t=0.32
-2.174121986925364
% es.tEy (V/m) @ t=0.32
0
% es.tEz (V/m) @ t=0.32
0.9092586490508268
% V (V) @ t=0.32
0.013197308641161622
% es.normE (V/m) @ t=0.34
2.3864131008245746
% es.EX (V/m) @ t=0.34
-2.194968789903448
% es.EY (V/m) @ t=0.34
0.1712222551130025
% es.EZ (V/m) @ t=0.34
0.9179770060169866
% es.tEX (V/m) @ t=0.34
-2.1949687899034362
% es.tEY (V/m) @ t=0.34
0
% es.tEZ (V/m) @ t=0.34
0.917977006016983
% es.Ex (V/m) @ t=0.34
-2.194968789903448
% es.Ey (V/m) @ t=0.34
0.1712222551130025
% es.Ez (V/m) @ t=0.34
0.9179770060169866
% es.tEx (V/m) @ t=0.34
-2.1949687899034362
% es.tEy (V/m) @ t=0.34
0
% es.tEz (V/m) @ t=0.34
0.917977006016983
% V (V) @ t=0.34
0.013323863072958131
% es.normE (V/m) @ t=0.36
2.4090780834472127
% es.EX (V/m) @ t=0.36
-2.215815592881537
% es.EY (V/m) @ t=0.36
0.17284832971342068
% es.EZ (V/m) @ t=0.36
0.9266953629831628
% es.tEX (V/m) @ t=0.36
-2.2158155928815315
% es.tEY (V/m) @ t=0.36
0
% es.tEZ (V/m) @ t=0.36
0.9266953629831676
% es.Ex (V/m) @ t=0.36
-2.215815592881537
% es.Ey (V/m) @ t=0.36
0.17284832971342068
% es.Ez (V/m) @ t=0.36
0.9266953629831628
% es.tEx (V/m) @ t=0.36
-2.2158155928815315
% es.tEy (V/m) @ t=0.36
0
% es.tEz (V/m) @ t=0.36
0.9266953629831676
% V (V) @ t=0.36
0.013450417504754638
% es.normE (V/m) @ t=0.38
2.4317430660698904
% es.EX (V/m) @ t=0.38
-2.2366623958596463
% es.EY (V/m) @ t=0.38
0.1744744043138211
% es.EZ (V/m) @ t=0.38
0.9354137199493532
% es.tEX (V/m) @ t=0.38
-2.236662395859641
% es.tEY (V/m) @ t=0.38
0
% es.tEZ (V/m) @ t=0.38
0.9354137199493593
% es.Ex (V/m) @ t=0.38
-2.2366623958596463
% es.Ey (V/m) @ t=0.38
0.1744744043138211
% es.Ez (V/m) @ t=0.38
0.9354137199493532
% es.tEx (V/m) @ t=0.38
-2.236662395859641
% es.tEy (V/m) @ t=0.38
0
% es.tEz (V/m) @ t=0.38
0.9354137199493593
% V (V) @ t=0.38
0.013576971936551146
% es.normE (V/m) @ t=0.4
2.4544080486925646
% es.EX (V/m) @ t=0.4
-2.257509198837737
% es.EY (V/m) @ t=0.4
0.17610047891423042
% es.EZ (V/m) @ t=0.4
0.9441320769155349
% es.tEX (V/m) @ t=0.4
-2.257509198837729
% es.tEY (V/m) @ t=0.4
0
% es.tEZ (V/m) @ t=0.4
0.9441320769155368
% es.Ex (V/m) @ t=0.4
-2.257509198837737
% es.Ey (V/m) @ t=0.4
0.17610047891423042
% es.Ez (V/m) @ t=0.4
0.9441320769155349
% es.tEx (V/m) @ t=0.4
-2.257509198837729
% es.tEy (V/m) @ t=0.4
0
% es.tEz (V/m) @ t=0.4
0.9441320769155368
% V (V) @ t=0.4
0.013703526368347652
% es.normE (V/m) @ t=0.42
2.477073031315257
% es.EX (V/m) @ t=0.42
-2.2783560018158324
% es.EY (V/m) @ t=0.42
0.1777265535146486
% es.EZ (V/m) @ t=0.42
0.9528504338817129
% es.tEX (V/m) @ t=0.42
-2.2783560018158227
% es.tEY (V/m) @ t=0.42
0
% es.tEZ (V/m) @ t=0.42
0.9528504338817214
% es.Ex (V/m) @ t=0.42
-2.2783560018158324
% es.Ey (V/m) @ t=0.42
0.1777265535146486
% es.Ez (V/m) @ t=0.42
0.9528504338817129
% es.tEx (V/m) @ t=0.42
-2.2783560018158227
% es.tEy (V/m) @ t=0.42
0
% es.tEz (V/m) @ t=0.42
0.9528504338817214
% V (V) @ t=0.42
0.013830080800144159
% es.normE (V/m) @ t=0.44
2.4997380139379572
% es.EX (V/m) @ t=0.44
-2.299202804793924
% es.EY (V/m) @ t=0.44
0.1793526281150295
% es.EZ (V/m) @ t=0.44
0.961568790847889
% es.tEX (V/m) @ t=0.44
-2.2992028047939197
% es.tEY (V/m) @ t=0.44
0
% es.tEZ (V/m) @ t=0.44
0.9615687908478918
% es.Ex (V/m) @ t=0.44
-2.299202804793924
% es.Ey (V/m) @ t=0.44
0.1793526281150295
% es.Ez (V/m) @ t=0.44
0.961568790847889
% es.tEx (V/m) @ t=0.44
-2.2992028047939197
% es.tEy (V/m) @ t=0.44
0
% es.tEz (V/m) @ t=0.44
0.9615687908478918
% V (V) @ t=0.44
0.013956635231940668
% es.normE (V/m) @ t=0.46
2.522402996560677
% es.EX (V/m) @ t=0.46
-2.3200496077720185
% es.EY (V/m) @ t=0.46
0.1809787027154388
% es.EZ (V/m) @ t=0.46
0.9702871478140634
% es.tEX (V/m) @ t=0.46
-2.320049607772008
% es.tEY (V/m) @ t=0.46
0
% es.tEZ (V/m) @ t=0.46
0.9702871478140622
% es.Ex (V/m) @ t=0.46
-2.3200496077720185
% es.Ey (V/m) @ t=0.46
0.1809787027154388
% es.Ez (V/m) @ t=0.46
0.9702871478140634
% es.tEx (V/m) @ t=0.46
-2.320049607772008
% es.tEy (V/m) @ t=0.46
0
% es.tEz (V/m) @ t=0.46
0.9702871478140622
% V (V) @ t=0.46
0.014083189663737176
% es.normE (V/m) @ t=0.48
2.545067979183425
% es.EX (V/m) @ t=0.48
-2.340896410750121
% es.EY (V/m) @ t=0.48
0.18260477731585167
% es.EZ (V/m) @ t=0.48
0.9790055047802576
% es.tEX (V/m) @ t=0.48
-2.3408964107501085
% es.tEY (V/m) @ t=0.48
0
% es.tEZ (V/m) @ t=0.48
0.9790055047802539
% es.Ex (V/m) @ t=0.48
-2.340896410750121
% es.Ey (V/m) @ t=0.48
0.18260477731585167
% es.Ez (V/m) @ t=0.48
0.9790055047802576
% es.tEx (V/m) @ t=0.48
-2.3408964107501085
% es.tEy (V/m) @ t=0.48
0
% es.tEz (V/m) @ t=0.48
0.9790055047802539
% V (V) @ t=0.48
0.014209744095533683
% es.normE (V/m) @ t=0.5
2.5677329618061684
% es.EX (V/m) @ t=0.5
-2.361743213728209
% es.EY (V/m) @ t=0.5
0.18423085191626098
% es.EZ (V/m) @ t=0.5
0.9877238617464373
% es.tEX (V/m) @ t=0.5
-2.3617432137281966
% es.tEY (V/m) @ t=0.5
0
% es.tEZ (V/m) @ t=0.5
0.9877238617464315
% es.Ex (V/m) @ t=0.5
-2.361743213728209
% es.Ey (V/m) @ t=0.5
0.18423085191626098
% es.Ez (V/m) @ t=0.5
0.9877238617464373
% es.tEx (V/m) @ t=0.5
-2.3617432137281966
% es.tEy (V/m) @ t=0.5
0
% es.tEz (V/m) @ t=0.5
0.9877238617464315
% V (V) @ t=0.5
0.01433629852733019
% es.normE (V/m) @ t=0.52
2.5913895840393026
% es.EX (V/m) @ t=0.52
-2.383502075429771
% es.EY (V/m) @ t=0.52
0.18592812500157874
% es.EZ (V/m) @ t=0.52
0.996823733093155
% es.tEX (V/m) @ t=0.52
-2.383502075429762
% es.tEY (V/m) @ t=0.52
0
% es.tEZ (V/m) @ t=0.52
0.9968237330931586
% es.Ex (V/m) @ t=0.52
-2.383502075429771
% es.Ey (V/m) @ t=0.52
0.18592812500157874
% es.Ez (V/m) @ t=0.52
0.996823733093155
% es.tEx (V/m) @ t=0.52
-2.383502075429762
% es.tEy (V/m) @ t=0.52
0
% es.tEz (V/m) @ t=0.52
0.9968237330931586
% V (V) @ t=0.52
0.014468384611487976
% es.normE (V/m) @ t=0.54
2.6165021721364914
% es.EX (V/m) @ t=0.54
-2.4066000590799677
% es.EY (V/m) @ t=0.54
0.1877299346166581
% es.EZ (V/m) @ t=0.54
1.006483759468853
% es.tEX (V/m) @ t=0.54
-2.406600059079958
% es.tEY (V/m) @ t=0.54
0
% es.tEZ (V/m) @ t=0.54
1.0064837594688498
% es.Ex (V/m) @ t=0.54
-2.4066000590799677
% es.Ey (V/m) @ t=0.54
0.1877299346166581
% es.Ez (V/m) @ t=0.54
1.006483759468853
% es.tEx (V/m) @ t=0.54
-2.406600059079958
% es.tEy (V/m) @ t=0.54
0
% es.tEz (V/m) @ t=0.54
1.0064837594688498
% V (V) @ t=0.54
0.014608592494054844
% es.normE (V/m) @ t=0.56
2.641614760233664
% es.EX (V/m) @ t=0.56
-2.429698042730145
% es.EY (V/m) @ t=0.56
0.18953174423170904
% es.EZ (V/m) @ t=0.56
1.0161437858445583
% es.tEX (V/m) @ t=0.56
-2.4296980427301307
% es.tEY (V/m) @ t=0.56
0
% es.tEZ (V/m) @ t=0.56
1.0161437858445623
% es.Ex (V/m) @ t=0.56
-2.429698042730145
% es.Ey (V/m) @ t=0.56
0.18953174423170904
% es.Ez (V/m) @ t=0.56
1.0161437858445583
% es.tEx (V/m) @ t=0.56
-2.4296980427301307
% es.tEy (V/m) @ t=0.56
0
% es.tEz (V/m) @ t=0.56
1.0161437858445623
% V (V) @ t=0.56
0.014748800376621709
% es.normE (V/m) @ t=0.58
2.6667273483308658
% es.EX (V/m) @ t=0.58
-2.452796026380345
% es.EY (V/m) @ t=0.58
0.1913335538467743
% es.EZ (V/m) @ t=0.58
1.0258038122202815
% es.tEX (V/m) @ t=0.58
-2.452796026380332
% es.tEY (V/m) @ t=0.58
0
% es.tEZ (V/m) @ t=0.58
1.025803812220282
% es.Ex (V/m) @ t=0.58
-2.452796026380345
% es.Ey (V/m) @ t=0.58
0.1913335538467743
% es.Ez (V/m) @ t=0.58
1.0258038122202815
% es.tEx (V/m) @ t=0.58
-2.452796026380332
% es.tEy (V/m) @ t=0.58
0
% es.tEz (V/m) @ t=0.58
1.025803812220282
% V (V) @ t=0.58
0.014889008259188576
% es.normE (V/m) @ t=0.6
2.6918399364280594
% es.EX (V/m) @ t=0.6
-2.475894010030541
% es.EY (V/m) @ t=0.6
0.1931353634618288
% es.EZ (V/m) @ t=0.6
1.0354638385959936
% es.tEX (V/m) @ t=0.6
-2.4758940100305313
% es.tEY (V/m) @ t=0.6
0
% es.tEZ (V/m) @ t=0.6
1.0354638385959944
% es.Ex (V/m) @ t=0.6
-2.475894010030541
% es.Ey (V/m) @ t=0.6
0.1931353634618288
% es.Ez (V/m) @ t=0.6
1.0354638385959936
% es.tEx (V/m) @ t=0.6
-2.4758940100305313
% es.tEy (V/m) @ t=0.6
0
% es.tEz (V/m) @ t=0.6
1.0354638385959944
% V (V) @ t=0.6
0.015029216141755442
% es.normE (V/m) @ t=0.62
2.7169525245252575
% es.EX (V/m) @ t=0.62
-2.498991993680744
% es.EY (V/m) @ t=0.62
0.19493717307691893
% es.EZ (V/m) @ t=0.62
1.0451238649716936
% es.tEX (V/m) @ t=0.62
-2.498991993680736
% es.tEY (V/m) @ t=0.62
0
% es.tEZ (V/m) @ t=0.62
1.0451238649716927
% es.Ex (V/m) @ t=0.62
-2.498991993680744
% es.Ey (V/m) @ t=0.62
0.19493717307691893
% es.Ez (V/m) @ t=0.62
1.0451238649716936
% es.tEx (V/m) @ t=0.62
-2.498991993680736
% es.tEy (V/m) @ t=0.62
0
% es.tEz (V/m) @ t=0.62
1.0451238649716927
% V (V) @ t=0.62
0.015169424024322309
% es.normE (V/m) @ t=0.64
2.7420651126224382
% es.EX (V/m) @ t=0.64
-2.5220899773309293
% es.EY (V/m) @ t=0.64
0.19673898269196277
% es.EZ (V/m) @ t=0.64
1.0547838913473973
% es.tEX (V/m) @ t=0.64
-2.5220899773309142
% es.tEY (V/m) @ t=0.64
0
% es.tEZ (V/m) @ t=0.64
1.054783891347391
% es.Ex (V/m) @ t=0.64
-2.5220899773309293
% es.Ey (V/m) @ t=0.64
0.19673898269196277
% es.Ez (V/m) @ t=0.64
1.0547838913473973
% es.tEx (V/m) @ t=0.64
-2.5220899773309142
% es.tEy (V/m) @ t=0.64
0
% es.tEz (V/m) @ t=0.64
1.054783891347391
% V (V) @ t=0.64
0.015309631906889174
% es.normE (V/m) @ t=0.66
2.7671777007196523
% es.EX (V/m) @ t=0.66
-2.5451879609811385
% es.EY (V/m) @ t=0.66
0.19854079230706
% es.EZ (V/m) @ t=0.66
1.0644439177231182
% es.tEX (V/m) @ t=0.66
-2.5451879609811154
% es.tEY (V/m) @ t=0.66
0
% es.tEZ (V/m) @ t=0.66
1.0644439177231249
% es.Ex (V/m) @ t=0.66
-2.5451879609811385
% es.Ey (V/m) @ t=0.66
0.19854079230706
% es.Ez (V/m) @ t=0.66
1.0644439177231182
% es.tEx (V/m) @ t=0.66
-2.5451879609811154
% es.tEy (V/m) @ t=0.66
0
% es.tEz (V/m) @ t=0.66
1.0644439177231249
% V (V) @ t=0.66
0.01544983978945604
% es.normE (V/m) @ t=0.68
2.7922902888168277
% es.EX (V/m) @ t=0.68
-2.5682859446313167
% es.EY (V/m) @ t=0.68
0.20034260192211795
% es.EZ (V/m) @ t=0.68
1.0741039440988218
% es.tEX (V/m) @ t=0.68
-2.5682859446312953
% es.tEY (V/m) @ t=0.68
0
% es.tEZ (V/m) @ t=0.68
1.074103944098816
% es.Ex (V/m) @ t=0.68
-2.5682859446313167
% es.Ey (V/m) @ t=0.68
0.20034260192211795
% es.Ez (V/m) @ t=0.68
1.0741039440988218
% es.tEx (V/m) @ t=0.68
-2.5682859446312953
% es.tEy (V/m) @ t=0.68
0
% es.tEz (V/m) @ t=0.68
1.074103944098816
% V (V) @ t=0.68
0.015590047672022909
% es.normE (V/m) @ t=0.7
2.8174028769140316
% es.EX (V/m) @ t=0.7
-2.591383928281516
% es.EY (V/m) @ t=0.7
0.20214441153716556
% es.EZ (V/m) @ t=0.7
1.0837639704745463
% es.tEX (V/m) @ t=0.7
-2.591383928281502
% es.tEY (V/m) @ t=0.7
0
% es.tEZ (V/m) @ t=0.7
1.0837639704745428
% es.Ex (V/m) @ t=0.7
-2.591383928281516
% es.Ey (V/m) @ t=0.7
0.20214441153716556
% es.Ez (V/m) @ t=0.7
1.0837639704745463
% es.tEx (V/m) @ t=0.7
-2.591383928281502
% es.tEy (V/m) @ t=0.7
0
% es.tEz (V/m) @ t=0.7
1.0837639704745428
% V (V) @ t=0.7
0.015730255554589775
% es.normE (V/m) @ t=0.72
2.842515465011213
% es.EX (V/m) @ t=0.72
-2.6144819119317004
% es.EY (V/m) @ t=0.72
0.2039462211522448
% es.EZ (V/m) @ t=0.72
1.0934239968502428
% es.tEX (V/m) @ t=0.72
-2.6144819119316853
% es.tEY (V/m) @ t=0.72
0
% es.tEZ (V/m) @ t=0.72
1.093423996850241
% es.Ex (V/m) @ t=0.72
-2.6144819119317004
% es.Ey (V/m) @ t=0.72
0.2039462211522448
% es.Ez (V/m) @ t=0.72
1.0934239968502428
% es.tEx (V/m) @ t=0.72
-2.6144819119316853
% es.tEy (V/m) @ t=0.72
0
% es.tEz (V/m) @ t=0.72
1.093423996850241
% V (V) @ t=0.72
0.01587046343715664
% es.normE (V/m) @ t=0.74
2.867628053108408
% es.EX (V/m) @ t=0.74
-2.6375798955818928
% es.EY (V/m) @ t=0.74
0.20574803076729586
% es.EZ (V/m) @ t=0.74
1.1030840232259602
% es.tEX (V/m) @ t=0.74
-2.6375798955818848
% es.tEY (V/m) @ t=0.74
0
% es.tEZ (V/m) @ t=0.74
1.1030840232259678
% es.Ex (V/m) @ t=0.74
-2.6375798955818928
% es.Ey (V/m) @ t=0.74
0.20574803076729586
% es.Ez (V/m) @ t=0.74
1.1030840232259602
% es.tEx (V/m) @ t=0.74
-2.6375798955818848
% es.tEy (V/m) @ t=0.74
0
% es.tEz (V/m) @ t=0.74
1.1030840232259678
% V (V) @ t=0.74
0.016010671319723505
% es.normE (V/m) @ t=0.76
2.8927406412056076
% es.EX (V/m) @ t=0.76
-2.6606778792320895
% es.EY (V/m) @ t=0.76
0.207549840382393
% es.EZ (V/m) @ t=0.76
1.1127440496016674
% es.tEX (V/m) @ t=0.76
-2.6606778792320718
% es.tEY (V/m) @ t=0.76
0
% es.tEZ (V/m) @ t=0.76
1.1127440496016732
% es.Ex (V/m) @ t=0.76
-2.6606778792320895
% es.Ey (V/m) @ t=0.76
0.207549840382393
% es.Ez (V/m) @ t=0.76
1.1127440496016674
% es.tEx (V/m) @ t=0.76
-2.6606778792320718
% es.tEy (V/m) @ t=0.76
0
% es.tEz (V/m) @ t=0.76
1.1127440496016732
% V (V) @ t=0.76
0.01615087920229037
% es.normE (V/m) @ t=0.78
2.919537864908965
% es.EX (V/m) @ t=0.78
-2.6853253463282485
% es.EY (V/m) @ t=0.78
0.20947253124009935
% es.EZ (V/m) @ t=0.78
1.1230521150683996
% es.tEX (V/m) @ t=0.78
-2.685325346328238
% es.tEY (V/m) @ t=0.78
0
% es.tEZ (V/m) @ t=0.78
1.123052115068404
% es.Ex (V/m) @ t=0.78
-2.6853253463282485
% es.Ey (V/m) @ t=0.78
0.20947253124009935
% es.Ez (V/m) @ t=0.78
1.1230521150683996
% es.tEx (V/m) @ t=0.78
-2.685325346328238
% es.tEy (V/m) @ t=0.78
0
% es.tEz (V/m) @ t=0.78
1.123052115068404
% V (V) @ t=0.78
0.016300491713820406
% es.normE (V/m) @ t=0.8
2.947408335525072
% es.EX (V/m) @ t=0.8
-2.710959957658236
% es.EY (V/m) @ t=0.8
0.21147223306688556
% es.EZ (V/m) @ t=0.8
1.1337730329948803
% es.tEX (V/m) @ t=0.8
-2.710959957658236
% es.tEY (V/m) @ t=0.8
0
% es.tEZ (V/m) @ t=0.8
1.133773032994874
% es.Ex (V/m) @ t=0.8
-2.710959957658236
% es.Ey (V/m) @ t=0.8
0.21147223306688556
% es.Ez (V/m) @ t=0.8
1.1337730329948803
% es.tEx (V/m) @ t=0.8
-2.710959957658236
% es.tEy (V/m) @ t=0.8
0
% es.tEz (V/m) @ t=0.8
1.133773032994874
% V (V) @ t=0.8
0.01645609572224321
% es.normE (V/m) @ t=0.82
2.9752788061411586
% es.EX (V/m) @ t=0.82
-2.736594568988214
% es.EY (V/m) @ t=0.82
0.21347193489364713
% es.EZ (V/m) @ t=0.82
1.1444939509213343
% es.tEX (V/m) @ t=0.82
-2.736594568988199
% es.tEY (V/m) @ t=0.82
0
% es.tEZ (V/m) @ t=0.82
1.1444939509213299
% es.Ex (V/m) @ t=0.82
-2.736594568988214
% es.Ey (V/m) @ t=0.82
0.21347193489364713
% es.Ez (V/m) @ t=0.82
1.1444939509213343
% es.tEx (V/m) @ t=0.82
-2.736594568988199
% es.tEy (V/m) @ t=0.82
0
% es.tEz (V/m) @ t=0.82
1.1444939509213299
% V (V) @ t=0.82
0.016611699730666018
% es.normE (V/m) @ t=0.84
3.00314927675727
% es.EX (V/m) @ t=0.84
-2.762229180318209
% es.EY (V/m) @ t=0.84
0.21547163672041214
% es.EZ (V/m) @ t=0.84
1.1552148688478083
% es.tEX (V/m) @ t=0.84
-2.7622291803181973
% es.tEY (V/m) @ t=0.84
0
% es.tEZ (V/m) @ t=0.84
1.155214868847807
% es.Ex (V/m) @ t=0.84
-2.762229180318209
% es.Ey (V/m) @ t=0.84
0.21547163672041214
% es.Ez (V/m) @ t=0.84
1.1552148688478083
% es.tEx (V/m) @ t=0.84
-2.7622291803181973
% es.tEy (V/m) @ t=0.84
0
% es.tEz (V/m) @ t=0.84
1.155214868847807
% V (V) @ t=0.84
0.016767303739088822
% es.normE (V/m) @ t=0.86
3.0310197473733664
% es.EX (V/m) @ t=0.86
-2.78786379164819
% es.EY (V/m) @ t=0.86
0.2174713385471736
% es.EZ (V/m) @ t=0.86
1.16593578677427
% es.tEX (V/m) @ t=0.86
-2.7878637916481743
% es.tEY (V/m) @ t=0.86
0
% es.tEZ (V/m) @ t=0.86
1.1659357867742628
% es.Ex (V/m) @ t=0.86
-2.78786379164819
% es.Ey (V/m) @ t=0.86
0.2174713385471736
% es.Ez (V/m) @ t=0.86
1.16593578677427
% es.tEx (V/m) @ t=0.86
-2.7878637916481743
% es.tEy (V/m) @ t=0.86
0
% es.tEz (V/m) @ t=0.86
1.1659357867742628
% V (V) @ t=0.86
0.01692290774751163
% es.normE (V/m) @ t=0.88
3.0588902179894664
% es.EX (V/m) @ t=0.88
-2.8134984029781727
% es.EY (V/m) @ t=0.88
0.21947104037392096
% es.EZ (V/m) @ t=0.88
1.1766567047007381
% es.tEX (V/m) @ t=0.88
-2.8134984029781656
% es.tEY (V/m) @ t=0.88
0
% es.tEZ (V/m) @ t=0.88
1.17665670470074
% es.Ex (V/m) @ t=0.88
-2.8134984029781727
% es.Ey (V/m) @ t=0.88
0.21947104037392096
% es.Ez (V/m) @ t=0.88
1.1766567047007381
% es.tEx (V/m) @ t=0.88
-2.8134984029781656
% es.tEy (V/m) @ t=0.88
0
% es.tEz (V/m) @ t=0.88
1.17665670470074
% V (V) @ t=0.88
0.01707851175593443
% es.normE (V/m) @ t=0.9
3.0867606886055787
% es.EX (V/m) @ t=0.9
-2.8391330143081612
% es.EY (V/m) @ t=0.9
0.22147074220070362
% es.EZ (V/m) @ t=0.9
1.187377622627214
% es.tEX (V/m) @ t=0.9
-2.839133014308139
% es.tEY (V/m) @ t=0.9
0
% es.tEZ (V/m) @ t=0.9
1.18737762262721
% es.Ex (V/m) @ t=0.9
-2.8391330143081612
% es.Ey (V/m) @ t=0.9
0.22147074220070362
% es.Ez (V/m) @ t=0.9
1.187377622627214
% es.tEx (V/m) @ t=0.9
-2.839133014308139
% es.tEy (V/m) @ t=0.9
0
% es.tEz (V/m) @ t=0.9
1.18737762262721
% V (V) @ t=0.9
0.01723411576435723
% es.normE (V/m) @ t=0.92
3.1146311592216773
% es.EX (V/m) @ t=0.92
-2.8647676256381396
% es.EY (V/m) @ t=0.92
0.2234704440274582
% es.EZ (V/m) @ t=0.92
1.1980985405536821
% es.tEX (V/m) @ t=0.92
-2.864767625638123
% es.tEY (V/m) @ t=0.92
0
% es.tEZ (V/m) @ t=0.92
1.19809854055368
% es.Ex (V/m) @ t=0.92
-2.8647676256381396
% es.Ey (V/m) @ t=0.92
0.2234704440274582
% es.Ez (V/m) @ t=0.92
1.1980985405536821
% es.tEx (V/m) @ t=0.92
-2.864767625638123
% es.tEy (V/m) @ t=0.92
0
% es.tEz (V/m) @ t=0.92
1.19809854055368
% V (V) @ t=0.92
0.01738971977278004
% es.normE (V/m) @ t=0.94
3.1425016298377777
% es.EX (V/m) @ t=0.94
-2.8904022369681233
% es.EY (V/m) @ t=0.94
0.22547014585421266
% es.EZ (V/m) @ t=0.94
1.2088194584801362
% es.tEX (V/m) @ t=0.94
-2.8904022369681073
% es.tEY (V/m) @ t=0.94
0
% es.tEZ (V/m) @ t=0.94
1.2088194584801286
% es.Ex (V/m) @ t=0.94
-2.8904022369681233
% es.Ey (V/m) @ t=0.94
0.22547014585421266
% es.Ez (V/m) @ t=0.94
1.2088194584801362
% es.tEx (V/m) @ t=0.94
-2.8904022369681073
% es.tEy (V/m) @ t=0.94
0
% es.tEz (V/m) @ t=0.94
1.2088194584801286
% V (V) @ t=0.94
0.017545323781202847
% es.normE (V/m) @ t=0.96
3.1703721004538803
% es.EX (V/m) @ t=0.96
-2.9160368482980963
% es.EY (V/m) @ t=0.96
0.22746984768098488
% es.EZ (V/m) @ t=0.96
1.219540376406615
% es.tEX (V/m) @ t=0.96
-2.9160368482980914
% es.tEY (V/m) @ t=0.96
0
% es.tEZ (V/m) @ t=0.96
1.21954037640662
% es.Ex (V/m) @ t=0.96
-2.9160368482980963
% es.Ey (V/m) @ t=0.96
0.22746984768098488
% es.Ez (V/m) @ t=0.96
1.219540376406615
% es.tEx (V/m) @ t=0.96
-2.9160368482980914
% es.tEy (V/m) @ t=0.96
0
% es.tEz (V/m) @ t=0.96
1.21954037640662
% V (V) @ t=0.96
0.017700927789625648
% es.normE (V/m) @ t=0.98
3.1982425710699913
% es.EX (V/m) @ t=0.98
-2.941671459628084
% es.EY (V/m) @ t=0.98
0.22946954950775333
% es.EZ (V/m) @ t=0.98
1.2302612943330802
% es.tEX (V/m) @ t=0.98
-2.9416714596280684
% es.tEY (V/m) @ t=0.98
0
% es.tEZ (V/m) @ t=0.98
1.23026129433309
% es.Ex (V/m) @ t=0.98
-2.941671459628084
% es.Ey (V/m) @ t=0.98
0.22946954950775333
% es.Ez (V/m) @ t=0.98
1.2302612943330802
% es.tEx (V/m) @ t=0.98
-2.9416714596280684
% es.tEy (V/m) @ t=0.98
0
% es.tEz (V/m) @ t=0.98
1.23026129433309
% V (V) @ t=0.98
0.017856531798048456
% es.normE (V/m) @ t=1
3.2261130416861103
% es.EX (V/m) @ t=1
-2.9673060709580783
% es.EY (V/m) @ t=1
0.23146925133453278
% es.EZ (V/m) @ t=1
1.2409822122595449
% es.tEX (V/m) @ t=1
-2.9673060709580525
% es.tEY (V/m) @ t=1
0
% es.tEZ (V/m) @ t=1
1.2409822122595386
% es.Ex (V/m) @ t=1
-2.9673060709580783
% es.Ey (V/m) @ t=1
0.23146925133453278
% es.Ez (V/m) @ t=1
1.2409822122595449
% es.tEx (V/m) @ t=1
-2.9673060709580525
% es.tEy (V/m) @ t=1
0
% es.tEz (V/m) @ t=1
1.2409822122595386
% V (V) @ t=1
0.01801213580647126
% es.normE (V/m) @ t=1.02
3.253983512302185
% es.EX (V/m) @ t=1.02
-2.9929406822880344
% es.EY (V/m) @ t=1.02
0.23346895316128347
% es.EZ (V/m) @ t=1.02
1.2517031301859882
% es.tEX (V/m) @ t=1.02
-2.9929406822880225
% es.tEY (V/m) @ t=1.02
0
% es.tEZ (V/m) @ t=1.02
1.2517031301859873
% es.Ex (V/m) @ t=1.02
-2.9929406822880344
% es.Ey (V/m) @ t=1.02
0.23346895316128347
% es.Ez (V/m) @ t=1.02
1.2517031301859882
% es.tEx (V/m) @ t=1.02
-2.9929406822880225
% es.tEy (V/m) @ t=1.02
0
% es.tEz (V/m) @ t=1.02
1.2517031301859873
% V (V) @ t=1.02
0.018167739814894064
% es.normE (V/m) @ t=1.04
3.2829574939393256
% es.EX (V/m) @ t=1.04
-3.0195902750487478
% es.EY (V/m) @ t=1.04
0.2355478357719888
% es.EZ (V/m) @ t=1.04
1.262848540152517
% es.tEX (V/m) @ t=1.04
-3.0195902750487384
% es.tEY (V/m) @ t=1.04
0
% es.tEZ (V/m) @ t=1.04
1.2628485401525182
% es.Ex (V/m) @ t=1.04
-3.0195902750487478