% Model:              1x1--2 - Copy1.mph
% Version:            COMSOL 6.1.0.252
% Date:               Mar 28 2023, 13:01
% Dimension:          0
% Nodes:              14017
% Expressions:        14017
% Description:        Electric field norm, Electric field, X component, Electric field, Y component, Electric field, Z component, Tangential electric field, X component, Tangential electric field, Y component, Tangential electric field, Z component, Electric field, x component, Electric field, y component, Electric field, z component, Tangential electric field, x component, Tangential electric field, y component, Tangential electric field, z component, Electric potential
% Length unit:        mm
% x
1.6599999999999997
% y
14.200000000000001
% z
1.3300000000000003
% es.normE (V/m) @ t=0
0.28481451232144356
% es.EX (V/m) @ t=0
0.19604306920637038
% es.EY (V/m) @ t=0
-0.008135146497384282
% es.EZ (V/m) @ t=0
-0.20644670216914118
% es.tEX (V/m) @ t=0
0.1960430692063717
% es.tEY (V/m) @ t=0
0
% es.tEZ (V/m) @ t=0
-0.20644670216914296
% es.Ex (V/m) @ t=0
0.19604306920637038
% es.Ey (V/m) @ t=0
-0.008135146497384282
% es.Ez (V/m) @ t=0
-0.20644670216914118
% es.tEx (V/m) @ t=0
0.1960430692063717
% es.tEy (V/m) @ t=0
0
% es.tEz (V/m) @ t=0
-0.20644670216914296
% V (V) @ t=0
0.01142110223918131
% es.normE (V/m) @ t=0.1
0.2984547786937211
% es.EX (V/m) @ t=0.1
0.20543191235923297
% es.EY (V/m) @ t=0.1
-0.008524753991919987
% es.EZ (V/m) @ t=0.1
-0.21633379966829902
% es.tEX (V/m) @ t=0.1
0.2054319123592352
% es.tEY (V/m) @ t=0.1
0
% es.tEZ (V/m) @ t=0.1
-0.2163337996682988
% es.Ex (V/m) @ t=0.1
0.20543191235923297
% es.Ey (V/m) @ t=0.1
-0.008524753991919987
% es.Ez (V/m) @ t=0.1
-0.21633379966829902
% es.tEx (V/m) @ t=0.1
0.2054319123592352
% es.tEy (V/m) @ t=0.1
0
% es.tEz (V/m) @ t=0.1
-0.2163337996682988
% V (V) @ t=0.1
0.01196808007406505
% es.normE (V/m) @ t=0.2
0.31801030989972434
% es.EX (V/m) @ t=0.2
0.21889230972311502
% es.EY (V/m) @ t=0.2
-0.009083349261444218
% es.EZ (V/m) @ t=0.2
-0.23050858273130137
% es.tEX (V/m) @ t=0.2
0.21889230972311546
% es.tEY (V/m) @ t=0.2
0
% es.tEZ (V/m) @ t=0.2
-0.23050858273130115
% es.Ex (V/m) @ t=0.2
0.21889230972311502
% es.Ey (V/m) @ t=0.2
-0.009083349261444218
% es.Ez (V/m) @ t=0.2
-0.23050858273130137
% es.tEx (V/m) @ t=0.2
0.21889230972311546
% es.tEy (V/m) @ t=0.2
0
% es.tEz (V/m) @ t=0.2
-0.23050858273130115
% V (V) @ t=0.2
0.01275229045679861
% es.normE (V/m) @ t=0.3
0.33868071616165113
% es.EX (V/m) @ t=0.3
0.23312000693759138
% es.EY (V/m) @ t=0.3
-0.009673875339081983
% es.EZ (V/m) @ t=0.3
-0.2454915599386467
% es.tEX (V/m) @ t=0.3
0.23312000693759183
% es.tEY (V/m) @ t=0.3
0
% es.tEZ (V/m) @ t=0.3
-0.24549155993865002
% es.Ex (V/m) @ t=0.3
0.23312000693759138
% es.Ey (V/m) @ t=0.3
-0.009673875339081983
% es.Ez (V/m) @ t=0.3
-0.2454915599386467
% es.tEx (V/m) @ t=0.3
0.23312000693759183
% es.tEy (V/m) @ t=0.3
0
% es.tEz (V/m) @ t=0.3
-0.24549155993865002
% V (V) @ t=0.3
0.013581292117218645
% es.normE (V/m) @ t=0.4
0.36159540470700746
% es.EX (V/m) @ t=0.4
0.24889313985004669
% es.EY (V/m) @ t=0.4
-0.01032786608523012
% es.EZ (V/m) @ t=0.4
-0.2621006997757449
% es.tEX (V/m) @ t=0.4
0.24889313985004535
% es.tEY (V/m) @ t=0.4
0
% es.tEZ (V/m) @ t=0.4
-0.2621006997757429
% es.Ex (V/m) @ t=0.4
0.24889313985004669
% es.Ey (V/m) @ t=0.4
-0.01032786608523012
% es.Ez (V/m) @ t=0.4
-0.2621006997757449
% es.tEx (V/m) @ t=0.4
0.24889313985004535
% es.tEy (V/m) @ t=0.4
0
% es.tEz (V/m) @ t=0.4
-0.2621006997757429
% V (V) @ t=0.4
0.014499666386912429
% es.normE (V/m) @ t=0.5
0.385212353229715
% es.EX (V/m) @ t=0.5
0.2651498834639008
% es.EY (V/m) @ t=0.5
-0.011001688988987401
% es.EZ (V/m) @ t=0.5
-0.27921865843679594
% es.tEX (V/m) @ t=0.5
0.2651498834639012
% es.tEY (V/m) @ t=0.5
0
% es.tEZ (V/m) @ t=0.5
-0.27921865843679394
% es.Ex (V/m) @ t=0.5
0.2651498834639008
% es.Ey (V/m) @ t=0.5
-0.011001688988987401
% es.Ez (V/m) @ t=0.5
-0.27921865843679594
% es.tEx (V/m) @ t=0.5
0.2651498834639012
% es.tEy (V/m) @ t=0.5
0
% es.tEz (V/m) @ t=0.5
-0.27921865843679394
% V (V) @ t=0.5
0.015445980320498764
% es.normE (V/m) @ t=0.6
0.41038347477892395
% es.EX (V/m) @ t=0.6
0.28247604985833075
% es.EY (V/m) @ t=0.6
-0.011720237774705877
% es.EZ (V/m) @ t=0.6
-0.29746346608375607
% es.tEX (V/m) @ t=0.6
0.28247604985833297
% es.tEY (V/m) @ t=0.6
0
% es.tEZ (V/m) @ t=0.6
-0.2974634660837556
% es.Ex (V/m) @ t=0.6
0.28247604985833075
% es.Ey (V/m) @ t=0.6
-0.011720237774705877
% es.Ez (V/m) @ t=0.6
-0.29746346608375607
% es.tEx (V/m) @ t=0.6
0.28247604985833297
% es.tEy (V/m) @ t=0.6
0
% es.tEz (V/m) @ t=0.6
-0.2974634660837556
% V (V) @ t=0.6
0.016454942954241658
% es.normE (V/m) @ t=0.7
0.4367127981173197
% es.EX (V/m) @ t=0.7
0.3005991721635688
% es.EY (V/m) @ t=0.7
-0.012472117210030331
% es.EZ (V/m) @ t=0.7
-0.3165480248340451
% es.tEX (V/m) @ t=0.7
0.3005991721635728
% es.tEY (V/m) @ t=0.7
0
% es.tEZ (V/m) @ t=0.7
-0.3165480248340464
% es.Ex (V/m) @ t=0.7
0.3005991721635688
% es.Ey (V/m) @ t=0.7
-0.012472117210030331
% es.Ez (V/m) @ t=0.7
-0.3165480248340451
% es.tEx (V/m) @ t=0.7
0.3005991721635728
% es.tEy (V/m) @ t=0.7
0
% es.tEz (V/m) @ t=0.7
-0.3165480248340464
% V (V) @ t=0.7
0.017510592691345986
% es.normE (V/m) @ t=0.8
0.46484955105083214
% es.EX (V/m) @ t=0.8
0.3199665236724232
% es.EY (V/m) @ t=0.8
-0.013275483160206325
% es.EZ (V/m) @ t=0.8
-0.3369425624464917
% es.tEX (V/m) @ t=0.8
0.31996652367242717
% es.tEY (V/m) @ t=0.8
0
% es.tEZ (V/m) @ t=0.8
-0.33694256244648946
% es.Ex (V/m) @ t=0.8
0.3199665236724232
% es.Ey (V/m) @ t=0.8
-0.013275483160206325
% es.Ez (V/m) @ t=0.8
-0.3369425624464917
% es.tEx (V/m) @ t=0.8
0.31996652367242717
% es.tEy (V/m) @ t=0.8
0
% es.tEz (V/m) @ t=0.8
-0.33694256244648946
% V (V) @ t=0.8
0.018638585008945233
% es.normE (V/m) @ t=0.9
0.49409571771673605
% es.EX (V/m) @ t=0.9
0.3400975923230378
% es.EY (V/m) @ t=0.9
-0.014110451916199473
% es.EZ (V/m) @ t=0.9
-0.3581411748302754
% es.tEX (V/m) @ t=0.9
0.3400975923230387
% es.tEY (V/m) @ t=0.9
0
% es.tEZ (V/m) @ t=0.9
-0.35814117483027674
% es.Ex (V/m) @ t=0.9
0.3400975923230378
% es.Ey (V/m) @ t=0.9
-0.014110451916199473
% es.Ez (V/m) @ t=0.9
-0.3581411748302754
% es.tEx (V/m) @ t=0.9
0.3400975923230387
% es.tEy (V/m) @ t=0.9
0
% es.tEz (V/m) @ t=0.9
-0.35814117483027674
% V (V) @ t=0.9
0.019810981740653825
% es.normE (V/m) @ t=1
0.5254187338662921
% es.EX (V/m) @ t=1
0.36165635734094304
% es.EY (V/m) @ t=1
-0.015006531527660849
% es.EZ (V/m) @ t=1
-0.3808468578103894
% es.tEX (V/m) @ t=1
0.3616563573409399
% es.tEY (V/m) @ t=1
0
% es.tEZ (V/m) @ t=1
-0.38084685781038585
% es.Ex (V/m) @ t=1
0.36165635734094304
% es.Ey (V/m) @ t=1
-0.015006531527660849
% es.Ez (V/m) @ t=1
-0.3808468578103894
% es.tEx (V/m) @ t=1
0.3616563573409399
% es.tEy (V/m) @ t=1
0
% es.tEz (V/m) @ t=1
-0.38084685781038585
% V (V) @ t=1
0.02106840770366242
% es.normE (V/m) @ t=1.1
0.5577818340586429
% es.EX (V/m) @ t=1.1
0.3839301111845477
% es.EY (V/m) @ t=1.1
-0.01593321539067255
% es.EZ (V/m) @ t=1.1
-0.4043072801458796
% es.tEX (V/m) @ t=1.1
0.38393011118455345
% es.tEY (V/m) @ t=1.1
0
% es.tEZ (V/m) @ t=1.1
-0.40430728014588446
% es.Ex (V/m) @ t=1.1
0.3839301111845477
% es.Ey (V/m) @ t=1.1
-0.01593321539067255
% es.Ez (V/m) @ t=1.1
-0.4043072801458796
% es.tEx (V/m) @ t=1.1
0.38393011118455345
% es.tEy (V/m) @ t=1.1
0
% es.tEz (V/m) @ t=1.1
-0.40430728014588446
% V (V) @ t=1.1
0.02236841621547494
% es.normE (V/m) @ t=1.2
0.5912910194264646
% es.EX (V/m) @ t=1.2
0.40699366823406136
% es.EY (V/m) @ t=1.2
-0.016891726847089616
% es.EZ (V/m) @ t=1.2
-0.42859758892916533
% es.tEX (V/m) @ t=1.2
0.40699366823406
% es.tEY (V/m) @ t=1.2
0
% es.tEZ (V/m) @ t=1.2
-0.4285975889291649
% es.Ex (V/m) @ t=1.2
0.40699366823406136
% es.Ey (V/m) @ t=1.2
-0.016891726847089616
% es.Ez (V/m) @ t=1.2
-0.42859758892916533
% es.tEx (V/m) @ t=1.2
0.40699366823406
% es.tEy (V/m) @ t=1.2
0
% es.tEz (V/m) @ t=1.2
-0.4285975889291649
% V (V) @ t=1.2
0.023713496513897418
% es.normE (V/m) @ t=1.3
0.6262943214026521
% es.EX (V/m) @ t=1.3
0.4310868678738893
% es.EY (V/m) @ t=1.3
-0.017891730975909126
% es.EZ (V/m) @ t=1.3
-0.45396979561483386
% es.tEX (V/m) @ t=1.3
0.4310868678738897
% es.tEY (V/m) @ t=1.3
0
% es.tEZ (V/m) @ t=1.3
-0.4539697956148281
% es.Ex (V/m) @ t=1.3
0.4310868678738893
% es.Ey (V/m) @ t=1.3
-0.017891730975909126
% es.Ez (V/m) @ t=1.3
-0.45396979561483386
% es.tEx (V/m) @ t=1.3
0.4310868678738897
% es.tEy (V/m) @ t=1.3
0
% es.tEz (V/m) @ t=1.3
-0.4539697956148281
% V (V) @ t=1.3
0.025117335539515815
% es.normE (V/m) @ t=1.4
0.6625033924236946
% es.EX (V/m) @ t=1.4
0.45601100076040435
% es.EY (V/m) @ t=1.4
-0.018925220161974066
% es.EZ (V/m) @ t=1.4
-0.48021510617661667
% es.tEX (V/m) @ t=1.4
0.45601100076040524
% es.tEY (V/m) @ t=1.4
0
% es.tEZ (V/m) @ t=1.4
-0.48021510617661267
% es.Ex (V/m) @ t=1.4
0.45601100076040435
% es.Ey (V/m) @ t=1.4
-0.018925220161974066
% es.Ez (V/m) @ t=1.4
-0.48021510617661667
% es.tEx (V/m) @ t=1.4
0.45601100076040524
% es.tEy (V/m) @ t=1.4
0
% es.tEz (V/m) @ t=1.4
-0.48021510617661267
% V (V) @ t=1.4
0.026568593524315526
% es.normE (V/m) @ t=1.5
0.6999182325003619
% es.EX (V/m) @ t=1.5
0.48176606689361723
% es.EY (V/m) @ t=1.5
-0.01999219440517752
% es.EZ (V/m) @ t=1.5
-0.5073335206145471
% es.tEX (V/m) @ t=1.5
0.4817660668936181
% es.tEY (V/m) @ t=1.5
0
% es.tEZ (V/m) @ t=1.5
-0.5073335206145466
% es.Ex (V/m) @ t=1.5
0.48176606689361723
% es.Ey (V/m) @ t=1.5
-0.01999219440517752
% es.Ez (V/m) @ t=1.5
-0.5073335206145471
% es.tEx (V/m) @ t=1.5
0.4817660668936181
% es.tEy (V/m) @ t=1.5
0
% es.tEz (V/m) @ t=1.5
-0.5073335206145466
% V (V) @ t=1.5
0.02806727046829656
% es.normE (V/m) @ t=1.6
0.738800981635634
% es.EX (V/m) @ t=1.6
0.508530414811077
% es.EY (V/m) @ t=1.6
-0.0211021749563306
% es.EZ (V/m) @ t=1.6
-0.5355169520098899
% es.tEX (V/m) @ t=1.6
0.508530414811085
% es.tEY (V/m) @ t=1.6
0
% es.tEZ (V/m) @ t=1.6
-0.5355169520098859
% es.Ex (V/m) @ t=1.6
0.508530414811077
% es.Ey (V/m) @ t=1.6
-0.0211021749563306
% es.Ez (V/m) @ t=1.6
-0.5355169520098899
% es.tEx (V/m) @ t=1.6
0.508530414811085
% es.tEy (V/m) @ t=1.6
0
% es.tEz (V/m) @ t=1.6
-0.5355169520098859
% V (V) @ t=1.6
0.02962586363812698
% es.normE (V/m) @ t=1.7
0.7790770837368538
% es.EX (V/m) @ t=1.7
0.5362533198281296
% es.EY (V/m) @ t=1.7
-0.02225245384563712
% es.EZ (V/m) @ t=1.7
-0.5647108177422124
% es.tEX (V/m) @ t=1.7
0.5362533198281447
% es.tEY (V/m) @ t=1.7
0
% es.tEZ (V/m) @ t=1.7
-0.5647108177422155
% es.Ex (V/m) @ t=1.7
0.5362533198281296
% es.Ey (V/m) @ t=1.7
-0.02225245384563712
% es.Ez (V/m) @ t=1.7
-0.5647108177422124
% es.tEx (V/m) @ t=1.7
0.5362533198281447
% es.tEy (V/m) @ t=1.7
0
% es.tEz (V/m) @ t=1.7
-0.5647108177422155
% V (V) @ t=1.7
0.031240818645756473
% es.normE (V/m) @ t=1.8
0.8206969226666492
% es.EX (V/m) @ t=1.8
0.5649010253045583
% es.EY (V/m) @ t=1.8
-0.02344122895330991
% es.EZ (V/m) @ t=1.8
-0.5948787937635069
% es.tEX (V/m) @ t=1.8
0.5649010253045734
% es.tEY (V/m) @ t=1.8
0
% es.tEZ (V/m) @ t=1.8
-0.5948787937635105
% es.Ex (V/m) @ t=1.8
0.5649010253045583
% es.Ey (V/m) @ t=1.8
-0.02344122895330991
% es.Ez (V/m) @ t=1.8
-0.5948787937635069
% es.tEx (V/m) @ t=1.8
0.5649010253045734
% es.tEy (V/m) @ t=1.8
0
% es.tEz (V/m) @ t=1.8
-0.5948787937635105
% V (V) @ t=1.8
0.03290977009060131
% es.normE (V/m) @ t=1.9
0.8636604984250191
% es.EX (V/m) @ t=1.9
0.5944735312403342
% es.EY (V/m) @ t=1.9
-0.024668500279352523
% es.EZ (V/m) @ t=1.9
-0.6260208800737939
% es.tEX (V/m) @ t=1.9
0.5944735312403422
% es.tEY (V/m) @ t=1.9
0
% es.tEZ (V/m) @ t=1.9
-0.6260208800737974
% es.Ex (V/m) @ t=1.9
0.5944735312403342
% es.Ey (V/m) @ t=1.9
-0.024668500279352523
% es.Ez (V/m) @ t=1.9
-0.6260208800737939
% es.tEx (V/m) @ t=1.9
0.5944735312403422
% es.tEy (V/m) @ t=1.9
0
% es.tEz (V/m) @ t=1.9
-0.6260208800737974
% V (V) @ t=1.9
0.034632717972661514
% es.normE (V/m) @ t=2
0.9071709498112953
% es.EX (V/m) @ t=2
0.6244230542783233
% es.EY (V/m) @ t=2
-0.02591081482313773
% es.EZ (V/m) @ t=2
-0.6575588271344692
% es.tEX (V/m) @ t=2
0.6244230542783313
% es.tEY (V/m) @ t=2
0
% es.tEZ (V/m) @ t=2
-0.6575588271344648
% es.Ex (V/m) @ t=2
0.6244230542783233
% es.Ey (V/m) @ t=2
-0.02591081482313773
% es.Ez (V/m) @ t=2
-0.6575588271344692
% es.tEx (V/m) @ t=2
0.6244230542783313
% es.tEy (V/m) @ t=2
0
% es.tEz (V/m) @ t=2
-0.6575588271344648
% V (V) @ t=2
0.036377032273629074
% es.normE (V/m) @ t=2.1
0.9515861185302517
% es.EX (V/m) @ t=2.1
0.6549955842213997
% es.EY (V/m) @ t=2.1
-0.027178704483602045
% es.EZ (V/m) @ t=2.1
-0.6897523060146522
% es.tEX (V/m) @ t=2.1
0.6549955842214006
% es.tEY (V/m) @ t=2.1
0
% es.tEZ (V/m) @ t=2.1
-0.6897523060146558
% es.Ex (V/m) @ t=2.1
0.6549955842213997
% es.Ey (V/m) @ t=2.1
-0.027178704483602045
% es.Ez (V/m) @ t=2.1
-0.6897523060146522
% es.tEx (V/m) @ t=2.1
0.6549955842214006
% es.tEy (V/m) @ t=2.1
0
% es.tEz (V/m) @ t=2.1
-0.6897523060146558
% V (V) @ t=2.1
0.03815736596108102
% es.normE (V/m) @ t=2.2
0.9969764288766026
% es.EX (V/m) @ t=2.2
0.6862395325820305
% es.EY (V/m) @ t=2.2
-0.028474241969307146
% es.EZ (V/m) @ t=2.2
-0.7226524207400216
% es.tEX (V/m) @ t=2.2
0.686239532582035
% es.tEY (V/m) @ t=2.2
0
% es.tEZ (V/m) @ t=2.2
-0.7226524207400171
% es.Ex (V/m) @ t=2.2
0.6862395325820305
% es.Ey (V/m) @ t=2.2
-0.028474241969307146
% es.Ez (V/m) @ t=2.2
-0.7226524207400216
% es.tEx (V/m) @ t=2.2
0.686239532582035
% es.tEy (V/m) @ t=2.2
0
% es.tEz (V/m) @ t=2.2
-0.7226524207400171
% V (V) @ t=2.2
0.03997660278188071
% es.normE (V/m) @ t=2.3
1.0433418808516328
% es.EX (V/m) @ t=2.3
0.7181548993602087
% es.EY (V/m) @ t=2.3
-0.029797427280270905
% es.EZ (V/m) @ t=2.3
-0.7562591713106217
% es.tEX (V/m) @ t=2.3
0.7181548993602034
% es.tEY (V/m) @ t=2.3
0
% es.tEZ (V/m) @ t=2.3
-0.7562591713106279
% es.Ex (V/m) @ t=2.3
0.7181548993602087
% es.Ey (V/m) @ t=2.3
-0.029797427280270905
% es.Ez (V/m) @ t=2.3
-0.7562591713106217
% es.tEx (V/m) @ t=2.3
0.7181548993602034
% es.tEy (V/m) @ t=2.3
0
% es.tEz (V/m) @ t=2.3
-0.7562591713106279
% V (V) @ t=2.3
0.04183474273602816
% es.normE (V/m) @ t=2.4
1.0890182922901044
% es.EX (V/m) @ t=2.4
0.7495961980583123
% es.EY (V/m) @ t=2.4
-0.03110072712420009
% es.EZ (V/m) @ t=2.4
-0.78936628099465
% es.tEX (V/m) @ t=2.4
0.7495961980583239
% es.tEY (V/m) @ t=2.4
0
% es.tEZ (V/m) @ t=2.4
-0.7893662809946536
% es.Ex (V/m) @ t=2.4
0.7495961980583123
% es.Ey (V/m) @ t=2.4
-0.03110072712420009
% es.Ez (V/m) @ t=2.4
-0.78936628099465
% es.tEx (V/m) @ t=2.4
0.7495961980583239
% es.tEy (V/m) @ t=2.4
0
% es.tEz (V/m) @ t=2.4
-0.7893662809946536
% V (V) @ t=2.4
0.04366505206626838
% es.normE (V/m) @ t=2.5
1.134976256518963
% es.EX (V/m) @ t=2.5
0.7812315055078871
% es.EY (V/m) @ t=2.5
-0.032411864124861633
% es.EZ (V/m) @ t=2.5
-0.8226772810328669
% es.tEX (V/m) @ t=2.5
0.781231505507888
% es.tEY (V/m) @ t=2.5
0
% es.tEZ (V/m) @ t=2.5
-0.8226772810328455
% es.Ex (V/m) @ t=2.5
0.7812315055078871
% es.Ey (V/m) @ t=2.5
-0.032411864124861633
% es.Ez (V/m) @ t=2.5
-0.8226772810328669
% es.tEx (V/m) @ t=2.5
0.781231505507888
% es.tEy (V/m) @ t=2.5
0
% es.tEz (V/m) @ t=2.5
-0.8226772810328455
% V (V) @ t=2.5
0.045506451595495934
% es.normE (V/m) @ t=2.6
1.181225210165094
% es.EX (V/m) @ t=2.6
0.813067317107774
% es.EY (V/m) @ t=2.6
-0.03373110781647659
% es.EZ (V/m) @ t=2.6
-0.8561990115307365
% es.tEX (V/m) @ t=2.6
0.8130673171077785
% es.tEY (V/m) @ t=2.6
0
% es.tEZ (V/m) @ t=2.6
-0.8561990115307498
% es.Ex (V/m) @ t=2.6
0.813067317107774
% es.Ey (V/m) @ t=2.6
-0.03373110781647659
% es.Ez (V/m) @ t=2.6
-0.8561990115307365
% es.tEx (V/m) @ t=2.6
0.8130673171077785
% es.tEy (V/m) @ t=2.6
0
% es.tEz (V/m) @ t=2.6
-0.8561990115307498
% V (V) @ t=2.6
0.04735931973268525
% es.normE (V/m) @ t=2.7
1.2276923925532863
% es.EX (V/m) @ t=2.7
0.845053393141451
% es.EY (V/m) @ t=2.7
-0.03505653312638657
% es.EZ (V/m) @ t=2.7
-0.8898788754423217
% es.tEX (V/m) @ t=2.7
0.845053393141467
% es.tEY (V/m) @ t=2.7
0
% es.tEZ (V/m) @ t=2.7
-0.8898788754423137
% es.Ex (V/m) @ t=2.7
0.845053393141451
% es.Ey (V/m) @ t=2.7
-0.03505653312638657
% es.Ez (V/m) @ t=2.7
-0.8898788754423217
% es.tEx (V/m) @ t=2.7
0.845053393141467
% es.tEy (V/m) @ t=2.7
0
% es.tEz (V/m) @ t=2.7
-0.8898788754423137
% V (V) @ t=2.7
0.0492208883267391
% es.normE (V/m) @ t=2.8
1.273305093592277
% es.EX (V/m) @ t=2.8
0.8764490498616357
% es.EY (V/m) @ t=2.8
-0.03635975872479991
% es.EZ (V/m) @ t=2.8
-0.9229414349297294
% es.tEX (V/m) @ t=2.8
0.8764490498616437
% es.tEY (V/m) @ t=2.8
0
% es.tEZ (V/m) @ t=2.8
-0.9229414349297427
% es.Ex (V/m) @ t=2.8
0.8764490498616357
% es.Ey (V/m) @ t=2.8
-0.03635975872479991
% es.Ez (V/m) @ t=2.8
-0.9229414349297294
% es.tEx (V/m) @ t=2.8
0.8764490498616437
% es.tEy (V/m) @ t=2.8
0
% es.tEz (V/m) @ t=2.8
-0.9229414349297427
% V (V) @ t=2.8
0.05105034654768516
% es.normE (V/m) @ t=2.9
1.3184075184095772
% es.EX (V/m) @ t=2.9
0.9074919536631283
% es.EY (V/m) @ t=2.9
-0.03764989145161035
% es.EZ (V/m) @ t=2.9
-0.955635508083108
% es.tEX (V/m) @ t=2.9
0.9074919536631372
% es.tEY (V/m) @ t=2.9
0
% es.tEZ (V/m) @ t=2.9
-0.9556355080831187
% es.Ex (V/m) @ t=2.9
0.9074919536631283
% es.Ey (V/m) @ t=2.9
-0.03764989145161035
% es.Ez (V/m) @ t=2.9
-0.955635508083108
% es.tEx (V/m) @ t=2.9
0.9074919536631372
% es.tEy (V/m) @ t=2.9
0
% es.tEz (V/m) @ t=2.9
-0.9556355080831187
% V (V) @ t=2.9
0.05286078954290037
% es.normE (V/m) @ t=3
1.3628391868502938
% es.EX (V/m) @ t=3
0.9380712963578546
% es.EY (V/m) @ t=3
-0.0389226853871365
% es.EZ (V/m) @ t=3
-0.9878450874132634
% es.tEX (V/m) @ t=3
0.9380712963578635
% es.tEY (V/m) @ t=3
0
% es.tEZ (V/m) @ t=3
-0.9878450874132554
% es.Ex (V/m) @ t=3
0.9380712963578546
% es.Ey (V/m) @ t=3
-0.0389226853871365
% es.Ez (V/m) @ t=3
-0.9878450874132634
% es.tEx (V/m) @ t=3
0.9380712963578635
% es.tEy (V/m) @ t=3
0
% es.tEz (V/m) @ t=3
-0.9878450874132554
% V (V) @ t=3
0.05464611190756009
% es.normE (V/m) @ t=3.1
1.4064591896703522
% es.EX (V/m) @ t=3.1
0.9680904145891356
% es.EY (V/m) @ t=3.1
-0.04017379709135516
% es.EZ (V/m) @ t=3.1
-1.0194677373100545
% es.tEX (V/m) @ t=3.1
0.9680904145891374
% es.tEY (V/m) @ t=3.1
0
% es.tEZ (V/m) @ t=3.1
-1.0194677373100465
% es.Ex (V/m) @ t=3.1
0.9680904145891356
% es.Ey (V/m) @ t=3.1
-0.04017379709135516
% es.Ez (V/m) @ t=3.1
-1.0194677373100545
% es.tEx (V/m) @ t=3.1
0.9680904145891374
% es.tEy (V/m) @ t=3.1
0
% es.tEz (V/m) @ t=3.1
-1.0194677373100465
% V (V) @ t=3.1
0.056400352078718206
% es.normE (V/m) @ t=3.2
1.4492283802271877
% es.EX (V/m) @ t=3.2
0.9975261938126758
% es.EY (V/m) @ t=3.2
-0.04139837604835872
% es.EZ (V/m) @ t=3.2
-1.0504715917977379
% es.tEX (V/m) @ t=3.2
0.9975261938126767
% es.tEY (V/m) @ t=3.2
0
% es.tEZ (V/m) @ t=3.2
-1.0504715917977299
% es.Ex (V/m) @ t=3.2
0.9975261938126758
% es.Ey (V/m) @ t=3.2
-0.04139837604835872
% es.Ez (V/m) @ t=3.2
-1.0504715917977379
% es.tEx (V/m) @ t=3.2
0.9975261938126767
% es.tEy (V/m) @ t=3.2
0
% es.tEz (V/m) @ t=3.2
-1.0504715917977299
% V (V) @ t=3.2
0.05811829642735718
% es.normE (V/m) @ t=3.3
1.4909472126947505
% es.EX (V/m) @ t=3.3
1.0262395912092082
% es.EY (V/m) @ t=3.3
-0.04259237099970026
% es.EZ (V/m) @ t=3.3
-1.080713552431738
% es.tEX (V/m) @ t=3.3
1.02623959120921
% es.tEY (V/m) @ t=3.3
0
% es.tEZ (V/m) @ t=3.3
-1.08071355243173
% es.Ex (V/m) @ t=3.3
1.0262395912092082
% es.Ey (V/m) @ t=3.3
-0.04259237099970026
% es.Ez (V/m) @ t=3.3
-1.080713552431738
% es.tEx (V/m) @ t=3.3
1.02623959120921
% es.tEy (V/m) @ t=3.3
0
% es.tEz (V/m) @ t=3.3
-1.08071355243173
% V (V) @ t=3.3
0.059793552424524714
% es.normE (V/m) @ t=3.4
1.5314752292812277
% es.EX (V/m) @ t=3.4
1.0541342697487739
% es.EY (V/m) @ t=3.4
-0.04375143625544209
% es.EZ (V/m) @ t=3.4
-1.1100914967104263
% es.tEX (V/m) @ t=3.4
1.0541342697487757
% es.tEY (V/m) @ t=3.4
0
% es.tEZ (V/m) @ t=3.4
-1.1100914967104183
% es.Ex (V/m) @ t=3.4
1.0541342697487739
% es.Ey (V/m) @ t=3.4
-0.04375143625544209
% es.Ez (V/m) @ t=3.4
-1.1100914967104263
% es.tEx (V/m) @ t=3.4
1.0541342697487757
% es.tEy (V/m) @ t=3.4
0
% es.tEz (V/m) @ t=3.4
-1.1100914967104183
% V (V) @ t=3.4
0.061420161825762626
% es.normE (V/m) @ t=3.5
1.5706719721964075
% es.EX (V/m) @ t=3.5
1.0811138924015236
% es.EY (V/m) @ t=3.5
-0.04487122612578953
% es.EZ (V/m) @ t=3.5
-1.138503302132123
% es.tEX (V/m) @ t=3.5
1.0811138924015111
% es.tEY (V/m) @ t=3.5
0
% es.tEZ (V/m) @ t=3.5
-1.1385033021321433
% es.Ex (V/m) @ t=3.5
1.0811138924015236
% es.Ey (V/m) @ t=3.5
-0.04487122612578953
% es.Ez (V/m) @ t=3.5
-1.138503302132123
% es.tEx (V/m) @ t=3.5
1.0811138924015111
% es.tEy (V/m) @ t=3.5
0
% es.tEz (V/m) @ t=3.5
-1.1385033021321433
% V (V) @ t=3.5
0.06299216638661273
% es.normE (V/m) @ t=3.6
1.6083969836578587
% es.EX (V/m) @ t=3.6
1.1070821221374167
% es.EY (V/m) @ t=3.6
-0.045947394920790696
% es.EZ (V/m) @ t=3.6
-1.1658468461952474
% es.tEX (V/m) @ t=3.6
1.1070821221374345
% es.tEY (V/m) @ t=3.6
0
% es.tEZ (V/m) @ t=3.6
-1.1658468461952385
% es.Ex (V/m) @ t=3.6
1.1070821221374167
% es.Ey (V/m) @ t=3.6
-0.045947394920790696
% es.Ez (V/m) @ t=3.6
-1.1658468461952474
% es.tEx (V/m) @ t=3.6
1.1070821221374345
% es.tEy (V/m) @ t=3.6
0
% es.tEz (V/m) @ t=3.6
-1.1658468461952385
% V (V) @ t=3.6
0.06450360786261687
% es.normE (V/m) @ t=3.7
1.6445098058984633
% es.EX (V/m) @ t=3.7
1.1319426219265782
% es.EY (V/m) @ t=3.7
-0.04697559695068576
% es.EZ (V/m) @ t=3.7
-1.192020006398094
% es.tEX (V/m) @ t=3.7
1.1319426219265818
% es.tEY (V/m) @ t=3.7
0
% es.tEZ (V/m) @ t=3.7
-1.1920200063980992
% es.Ex (V/m) @ t=3.7
1.1319426219265782
% es.Ey (V/m) @ t=3.7
-0.04697559695068576
% es.Ez (V/m) @ t=3.7
-1.192020006398094
% es.tEx (V/m) @ t=3.7
1.1319426219265818
% es.tEy (V/m) @ t=3.7
0
% es.tEz (V/m) @ t=3.7
-1.1920200063980992
% V (V) @ t=3.7
0.06594852800931691
% es.normE (V/m) @ t=3.8
1.6788699811750327
% es.EX (V/m) @ t=3.8
1.15559905473906
% es.EY (V/m) @ t=3.8
-0.04795148652553105
% es.EZ (V/m) @ t=3.8
-1.2169206602391291
% es.tEX (V/m) @ t=3.8
1.1555990547390778
% es.tEY (V/m) @ t=3.8
0
% es.tEZ (V/m) @ t=3.8
-1.2169206602391345
% es.Ex (V/m) @ t=3.8
1.15559905473906
% es.Ey (V/m) @ t=3.8
-0.04795148652553105
% es.Ez (V/m) @ t=3.8
-1.2169206602391291
% es.tEx (V/m) @ t=3.8
1.1555990547390778
% es.tEy (V/m) @ t=3.8
0
% es.tEz (V/m) @ t=3.8
-1.2169206602391345
% V (V) @ t=3.8
0.06732096858225461
% es.normE (V/m) @ t=3.9
1.711991520665273
% es.EX (V/m) @ t=3.9
1.1784026801773422
% es.EY (V/m) @ t=3.9
-0.048892221824405
% es.EZ (V/m) @ t=3.9
-1.2409237046755628
% es.tEX (V/m) @ t=3.9
1.1784026801773653
% es.tEY (V/m) @ t=3.9
0
% es.tEZ (V/m) @ t=3.9
-1.24092370467557
% es.Ex (V/m) @ t=3.9
1.1784026801773422
% es.Ey (V/m) @ t=3.9
-0.048892221824405
% es.Ez (V/m) @ t=3.9
-1.2409237046755628
% es.tEx (V/m) @ t=3.9
1.1784026801773653
% es.tEy (V/m) @ t=3.9
0
% es.tEz (V/m) @ t=3.9
-1.24092370467557
% V (V) @ t=3.9
0.06864396059891875
% es.normE (V/m) @ t=4
1.7447374487247076
% es.EX (V/m) @ t=4
1.2009434508709909
% es.EY (V/m) @ t=4
-0.04982642854677288
% es.EZ (V/m) @ t=4
-1.2646584202110667
% es.tEX (V/m) @ t=4
1.2009434508709855
% es.tEY (V/m) @ t=4
0
% es.tEZ (V/m) @ t=4
-1.2646584202110578
% es.Ex (V/m) @ t=4
1.2009434508709909
% es.Ey (V/m) @ t=4
-0.04982642854677288
% es.Ez (V/m) @ t=4
-1.2646584202110667
% es.tEx (V/m) @ t=4
1.2009434508709855
% es.tEy (V/m) @ t=4
0
% es.tEz (V/m) @ t=4
-1.2646584202110578
% V (V) @ t=4
0.06995599438588755
% es.normE (V/m) @ t=4.1
1.776163795084525
% es.EX (V/m) @ t=4.1
1.222575501035708
% es.EY (V/m) @ t=4.1
-0.05072336001262001
% es.EZ (V/m) @ t=4.1
-1.2874370322409483
% es.tEX (V/m) @ t=4.1
1.2225755010357098
% es.tEY (V/m) @ t=4.1
0
% es.tEZ (V/m) @ t=4.1
-1.2874370322409625
% es.Ex (V/m) @ t=4.1
1.222575501035708
% es.Ey (V/m) @ t=4.1
-0.05072336001262001
% es.Ez (V/m) @ t=4.1
-1.2874370322409483
% es.tEx (V/m) @ t=4.1
1.2225755010357098
% es.tEy (V/m) @ t=4.1
0
% es.tEz (V/m) @ t=4.1
-1.2874370322409625
% V (V) @ t=4.1
0.0712155206511977
% es.normE (V/m) @ t=4.2
1.8062385699414307
% es.EX (V/m) @ t=4.2
1.2432766757752383
% es.EY (V/m) @ t=4.2
-0.051582234461700294
% es.EZ (V/m) @ t=4.2
-1.3092364767700584
% es.tEX (V/m) @ t=4.2
1.2432766757752418
% es.tEY (V/m) @ t=4.2
0
% es.tEZ (V/m) @ t=4.2
-1.3092364767700637
% es.Ex (V/m) @ t=4.2
1.2432766757752383
% es.Ey (V/m) @ t=4.2
-0.051582234461700294
% es.Ez (V/m) @ t=4.2
-1.3092364767700584
% es.tEx (V/m) @ t=4.2
1.2432766757752418
% es.tEy (V/m) @ t=4.2
0
% es.tEz (V/m) @ t=4.2
-1.3092364767700637
% V (V) @ t=4.2
0.07242138566666341
% es.normE (V/m) @ t=4.3
1.834929783493218
% es.EX (V/m) @ t=4.3
1.263024820193209
% es.EY (V/m) @ t=4.3
-0.05240227013368126
% es.EZ (V/m) @ t=4.3
-1.3300336898030878
% es.tEX (V/m) @ t=4.3
1.2630248201931984
% es.tEY (V/m) @ t=4.3
0
% es.tEZ (V/m) @ t=4.3
-1.3300336898030949
% es.Ex (V/m) @ t=4.3
1.263024820193209
% es.Ey (V/m) @ t=4.3
-0.05240227013368126
% es.Ez (V/m) @ t=4.3
-1.3300336898030878
% es.tEx (V/m) @ t=4.3
1.2630248201931984
% es.tEy (V/m) @ t=4.3
0
% es.tEz (V/m) @ t=4.3
-1.3300336898030949
% V (V) @ t=4.3
0.07357243570409888
% es.normE (V/m) @ t=4.4
1.862205445940433
% es.EX (V/m) @ t=4.4
1.2817977793934006
% es.EY (V/m) @ t=4.4
-0.05318268526843095
% es.EZ (V/m) @ t=4.4
-1.3498056073449956
% es.tEX (V/m) @ t=4.4
1.2817977793934112
% es.tEY (V/m) @ t=4.4
0
% es.tEZ (V/m) @ t=4.4
-1.3498056073449867
% es.Ex (V/m) @ t=4.4
1.2817977793934006
% es.Ey (V/m) @ t=4.4
-0.05318268526843095
% es.Ez (V/m) @ t=4.4
-1.3498056073449956
% es.tEx (V/m) @ t=4.4
1.2817977793934112
% es.tEy (V/m) @ t=4.4
0
% es.tEz (V/m) @ t=4.4
-1.3498056073449867
% V (V) @ t=4.4
0.07466751703531847
% es.normE (V/m) @ t=4.5
1.888033567487184
% es.EX (V/m) @ t=4.5
1.2995733984794953
% es.EY (V/m) @ t=4.5
-0.05392269810546835
% es.EZ (V/m) @ t=4.5
-1.3685291654005276
% es.tEX (V/m) @ t=4.5
1.2995733984794828
% es.tEY (V/m) @ t=4.5
0
% es.tEZ (V/m) @ t=4.5
-1.3685291654005205
% es.Ex (V/m) @ t=4.5
1.2995733984794953
% es.Ey (V/m) @ t=4.5
-0.05392269810546835
% es.Ez (V/m) @ t=4.5
-1.3685291654005276
% es.tEx (V/m) @ t=4.5
1.2995733984794828
% es.tEy (V/m) @ t=4.5
0
% es.tEz (V/m) @ t=4.5
-1.3685291654005205
% V (V) @ t=4.5
0.07570547593213632
% es.normE (V/m) @ t=4.6
1.9123821583430576
% es.EX (V/m) @ t=4.6
1.3163295225552059
% es.EY (V/m) @ t=4.6
-0.054621526884476745
% es.EZ (V/m) @ t=4.6
-1.3861812999745897
% es.tEX (V/m) @ t=4.6
1.3163295225552076
% es.tEY (V/m) @ t=4.6
0
% es.tEZ (V/m) @ t=4.6
-1.3861812999745808
% es.Ex (V/m) @ t=4.6
1.3163295225552059
% es.Ey (V/m) @ t=4.6
-0.054621526884476745
% es.Ez (V/m) @ t=4.6
-1.3861812999745897
% es.tEx (V/m) @ t=4.6
1.3163295225552076
% es.tEy (V/m) @ t=4.6
0
% es.tEz (V/m) @ t=4.6
-1.3861812999745808
% V (V) @ t=4.6
0.07668515866636674
% es.normE (V/m) @ t=4.7
1.935635696484344
% es.EX (V/m) @ t=4.7
1.3323327134473253
% es.EY (V/m) @ t=4.7
-0.05528829658947099
% es.EZ (V/m) @ t=4.7
-1.4030389497240456
% es.tEX (V/m) @ t=4.7
1.332332713447327
% es.tEY (V/m) @ t=4.7
0
% es.tEZ (V/m) @ t=4.7
-1.4030389497240598
% es.Ex (V/m) @ t=4.7
1.3323327134473253
% es.Ey (V/m) @ t=4.7
-0.05528829658947099
% es.Ez (V/m) @ t=4.7
-1.4030389497240456
% es.tEx (V/m) @ t=4.7
1.332332713447327
% es.tEy (V/m) @ t=4.7
0
% es.tEz (V/m) @ t=4.7
-1.4030389497240598
% V (V) @ t=4.7
0.07762015868284924
% es.normE (V/m) @ t=4.8
1.9579033538498296
% es.EX (V/m) @ t=4.8
1.3476586767938237
% es.EY (V/m) @ t=4.8
-0.055925583351029484
% es.EZ (V/m) @ t=4.8
-1.4191807365538676
% es.tEX (V/m) @ t=4.8
1.3476586767938485
% es.tEY (V/m) @ t=4.8
0
% es.tEZ (V/m) @ t=4.8
-1.4191807365538658
% es.Ex (V/m) @ t=4.8
1.3476586767938237
% es.Ey (V/m) @ t=4.8
-0.055925583351029484
% es.Ez (V/m) @ t=4.8
-1.4191807365538676
% es.tEx (V/m) @ t=4.8
1.3476586767938485
% es.tEy (V/m) @ t=4.8
0
% es.tEz (V/m) @ t=4.8
-1.4191807365538658
% V (V) @ t=4.8
0.07851432080774533
% es.normE (V/m) @ t=4.9
1.9789082666082292
% es.EX (V/m) @ t=4.9
1.3621154985166175
% es.EY (V/m) @ t=4.9
-0.0565267804578915
% es.EZ (V/m) @ t=4.9
-1.4344072014049143
% es.tEX (V/m) @ t=4.9
1.3621154985166264
% es.tEY (V/m) @ t=4.9
0
% es.tEZ (V/m) @ t=4.9
-1.4344072014049196
% es.Ex (V/m) @ t=4.9
1.3621154985166175
% es.Ey (V/m) @ t=4.9
-0.0565267804578915
% es.Ez (V/m) @ t=4.9
-1.4344072014049143
% es.tEx (V/m) @ t=4.9
1.3621154985166264
% es.tEy (V/m) @ t=4.9
0
% es.tEz (V/m) @ t=4.9
-1.4344072014049196
% V (V) @ t=4.9
0.07935782029443864
% es.normE (V/m) @ t=5
1.9986518368913466
% es.EX (V/m) @ t=5
1.375704172712103
% es.EY (V/m) @ t=5
-0.05709190046161616
% es.EZ (V/m) @ t=5
-1.4487193341684037
% es.tEX (V/m) @ t=5
1.3757041727121138
% es.tEY (V/m) @ t=5
0
% es.tEZ (V/m) @ t=5
-1.4487193341683948
% es.Ex (V/m) @ t=5
1.375704172712103
% es.Ey (V/m) @ t=5
-0.05709190046161616
% es.Ez (V/m) @ t=5
-1.4487193341684037
% es.tEx (V/m) @ t=5
1.3757041727121138
% es.tEy (V/m) @ t=5
0
% es.tEz (V/m) @ t=5
-1.4487193341683948
% V (V) @ t=5
0.08015068582703205
% es.normE (V/m) @ t=5.1
2.0171354668307506
% es.EX (V/m) @ t=5.1
1.3884256934767532
% es.EY (V/m) @ t=5.1
-0.05762095591394112
% es.EZ (V/m) @ t=5.1
-1.462118124735369
% es.tEX (V/m) @ t=5.1
1.3884256934767638
% es.tEY (V/m) @ t=5.1
0
% es.tEZ (V/m) @ t=5.1
-1.4621181247353814
% es.Ex (V/m) @ t=5.1
1.3884256934767532
% es.Ey (V/m) @ t=5.1
-0.05762095591394112
% es.Ez (V/m) @ t=5.1
-1.462118124735369
% es.tEx (V/m) @ t=5.1
1.3884256934767638
% es.tEy (V/m) @ t=5.1
0
% es.tEz (V/m) @ t=5.1
-1.4621181247353814
% V (V) @ t=5.1
0.08089294608962841
% es.normE (V/m) @ t=5.2
2.0343605585578786
% es.EX (V/m) @ t=5.2
1.4002810549069995
% es.EY (V/m) @ t=5.2
-0.05811395936656605
% es.EZ (V/m) @ t=5.2
-1.4746045629968751
% es.tEX (V/m) @ t=5.2
1.4002810549069942
% es.tEY (V/m) @ t=5.2
0
% es.tEZ (V/m) @ t=5.2
-1.4746045629968663
% es.Ex (V/m) @ t=5.2
1.4002810549069995
% es.Ey (V/m) @ t=5.2
-0.05811395936656605
% es.Ez (V/m) @ t=5.2
-1.4746045629968751
% es.tEx (V/m) @ t=5.2
1.4002810549069942
% es.tEy (V/m) @ t=5.2
0
% es.tEz (V/m) @ t=5.2
-1.4746045629968663
% V (V) @ t=5.2
0.0815846297663306
% es.normE (V/m) @ t=5.3
2.050328514204075
% es.EX (V/m) @ t=5.3
1.41127125109929