% Model:              1x1--2 - Copy1.mph
% Version:            COMSOL 6.1.0.252
% Date:               Mar 28 2023, 13:02
% Dimension:          0
% Nodes:              14017
% Expressions:        14017
% Description:        Electric field norm, Electric field, X component, Electric field, Y component, Electric field, Z component, Tangential electric field, X component, Tangential electric field, Y component, Tangential electric field, Z component, Electric field, x component, Electric field, y component, Electric field, z component, Tangential electric field, x component, Tangential electric field, y component, Tangential electric field, z component, Electric potential
% Length unit:        mm
% x
1.66
% y
14.200000000000001
% z
1.66
% es.normE (V/m) @ t=0
0.2650298157086846
% es.EX (V/m) @ t=0
0.1678934547785058
% es.EY (V/m) @ t=0
-0.018514308087341336
% es.EZ (V/m) @ t=0
-0.2042298006001185
% es.tEX (V/m) @ t=0
0.1678934547785076
% es.tEY (V/m) @ t=0
0
% es.tEZ (V/m) @ t=0
-0.20422980060011753
% es.Ex (V/m) @ t=0
0.1678934547785058
% es.Ey (V/m) @ t=0
-0.018514308087341336
% es.Ez (V/m) @ t=0
-0.2042298006001185
% es.tEx (V/m) @ t=0
0.1678934547785076
% es.tEy (V/m) @ t=0
0
% es.tEz (V/m) @ t=0
-0.20422980060011753
% V (V) @ t=0
0.01149064243793389
% es.normE (V/m) @ t=0.1
0.27772255814410896
% es.EX (V/m) @ t=0.1
0.17593416370581583
% es.EY (V/m) @ t=0.1
-0.019400991119610578
% es.EZ (V/m) @ t=0.1
-0.21401072610226804
% es.tEX (V/m) @ t=0.1
0.17593416370581139
% es.tEY (V/m) @ t=0.1
0
% es.tEZ (V/m) @ t=0.1
-0.21401072610226546
% es.Ex (V/m) @ t=0.1
0.17593416370581583
% es.Ey (V/m) @ t=0.1
-0.019400991119610578
% es.Ez (V/m) @ t=0.1
-0.21401072610226804
% es.tEx (V/m) @ t=0.1
0.17593416370581139
% es.tEy (V/m) @ t=0.1
0
% es.tEz (V/m) @ t=0.1
-0.21401072610226546
% V (V) @ t=0.1
0.012040950675707054
% es.normE (V/m) @ t=0.2
0.29591965588146885
% es.EX (V/m) @ t=0.2
0.18746180296457204
% es.EY (V/m) @ t=0.2
-0.02067219442377133
% es.EZ (V/m) @ t=0.2
-0.22803327727326267
% es.tEX (V/m) @ t=0.2
0.18746180296457204
% es.tEY (V/m) @ t=0.2
0
% es.tEZ (V/m) @ t=0.2
-0.22803327727326028
% es.Ex (V/m) @ t=0.2
0.18746180296457204
% es.Ey (V/m) @ t=0.2
-0.02067219442377133
% es.Ez (V/m) @ t=0.2
-0.22803327727326267
% es.tEx (V/m) @ t=0.2
0.18746180296457204
% es.tEy (V/m) @ t=0.2
0
% es.tEz (V/m) @ t=0.2
-0.22803327727326028
% V (V) @ t=0.2
0.012829935735697368
% es.normE (V/m) @ t=0.3
0.3151541708466606
% es.EX (V/m) @ t=0.3
0.19964658431370363
% es.EY (V/m) @ t=0.3
-0.02201586899698127
% es.EZ (V/m) @ t=0.3
-0.2428552949520045
% es.tEX (V/m) @ t=0.3
0.19964658431370452
% es.tEY (V/m) @ t=0.3
0
% es.tEZ (V/m) @ t=0.3
-0.24285529495200286
% es.Ex (V/m) @ t=0.3
0.19964658431370363
% es.Ey (V/m) @ t=0.3
-0.02201586899698127
% es.Ez (V/m) @ t=0.3
-0.2428552949520045
% es.tEx (V/m) @ t=0.3
0.19964658431370452
% es.tEy (V/m) @ t=0.3
0
% es.tEz (V/m) @ t=0.3
-0.24285529495200286
% V (V) @ t=0.3
0.013663984296759713
% es.normE (V/m) @ t=0.4
0.3364771630811969
% es.EX (V/m) @ t=0.4
0.2131547606938602
% es.EY (V/m) @ t=0.4
-0.02350544005143307
% es.EZ (V/m) @ t=0.4
-0.25928637364254614
% es.tEX (V/m) @ t=0.4
0.21315476069386108
% es.tEY (V/m) @ t=0.4
0
% es.tEZ (V/m) @ t=0.4
-0.2592863736425439
% es.Ex (V/m) @ t=0.4
0.2131547606938602
% es.Ey (V/m) @ t=0.4
-0.02350544005143307
% es.Ez (V/m) @ t=0.4
-0.25928637364254614
% es.tEx (V/m) @ t=0.4
0.21315476069386108
% es.tEy (V/m) @ t=0.4
0
% es.tEz (V/m) @ t=0.4
-0.2592863736425439
% V (V) @ t=0.4
0.014587953313448596
% es.normE (V/m) @ t=0.5
0.3584536661692541
% es.EX (V/m) @ t=0.5
0.22707705940312728
% es.EY (V/m) @ t=0.5
-0.025040663982392353
% es.EZ (V/m) @ t=0.5
-0.27622093517749263
% es.tEX (V/m) @ t=0.5
0.22707705940312728
% es.tEY (V/m) @ t=0.5
0
% es.tEZ (V/m) @ t=0.5
-0.27622093517749136
% es.Ex (V/m) @ t=0.5
0.22707705940312728
% es.Ey (V/m) @ t=0.5
-0.025040663982392353
% es.Ez (V/m) @ t=0.5
-0.27622093517749263
% es.tEx (V/m) @ t=0.5
0.22707705940312728
% es.tEy (V/m) @ t=0.5
0
% es.tEz (V/m) @ t=0.5
-0.27622093517749136
% V (V) @ t=0.5
0.015540033416153431
% es.normE (V/m) @ t=0.6
0.381876331926935
% es.EX (V/m) @ t=0.6
0.24191529317262805
% es.EY (V/m) @ t=0.6
-0.026676912856033574
% es.EZ (V/m) @ t=0.6
-0.2942700564713366
% es.tEX (V/m) @ t=0.6
0.24191529317262805
% es.tEY (V/m) @ t=0.6
0
% es.tEZ (V/m) @ t=0.6
-0.29427005647133697
% es.Ex (V/m) @ t=0.6
0.24191529317262805
% es.Ey (V/m) @ t=0.6
-0.026676912856033574
% es.Ez (V/m) @ t=0.6
-0.2942700564713366
% es.tEx (V/m) @ t=0.6
0.24191529317262805
% es.tEy (V/m) @ t=0.6
0
% es.tEz (V/m) @ t=0.6
-0.29427005647133697
% V (V) @ t=0.6
0.01655514174651146
% es.normE (V/m) @ t=0.7
0.40637670792986635
% es.EX (V/m) @ t=0.7
0.257436100638353
% es.EY (V/m) @ t=0.7
-0.028388447600420808
% es.EZ (V/m) @ t=0.7
-0.31314977068309324
% es.tEX (V/m) @ t=0.7
0.2574361006383512
% es.tEY (V/m) @ t=0.7
0
% es.tEZ (V/m) @ t=0.7
-0.31314977068309524
% es.Ex (V/m) @ t=0.7
0.257436100638353
% es.Ey (V/m) @ t=0.7
-0.028388447600420808
% es.Ez (V/m) @ t=0.7
-0.31314977068309324
% es.tEx (V/m) @ t=0.7
0.2574361006383512
% es.tEy (V/m) @ t=0.7
0
% es.tEz (V/m) @ t=0.7
-0.31314977068309524
% V (V) @ t=0.7
0.017617220011948414
% es.normE (V/m) @ t=0.8
0.4325589805915538
% es.EX (V/m) @ t=0.8
0.2740224506446154
% es.EY (V/m) @ t=0.8
-0.0302174755980269
% es.EZ (V/m) @ t=0.8
-0.33332547517645
% es.tEX (V/m) @ t=0.8
0.2740224506446136
% es.tEY (V/m) @ t=0.8
0
% es.tEZ (V/m) @ t=0.8
-0.3333254751764496
% es.Ex (V/m) @ t=0.8
0.2740224506446154
% es.Ey (V/m) @ t=0.8
-0.0302174755980269
% es.Ez (V/m) @ t=0.8
-0.33332547517645
% es.tEx (V/m) @ t=0.8
0.2740224506446136
% es.tEy (V/m) @ t=0.8
0
% es.tEz (V/m) @ t=0.8
-0.3333254751764496
% V (V) @ t=0.8
0.018752082133883057
% es.normE (V/m) @ t=0.9
0.45977361393511856
% es.EX (V/m) @ t=0.9
0.29126283858949265
% es.EY (V/m) @ t=0.9
-0.032118621828580496
% es.EZ (V/m) @ t=0.9
-0.3542966681463195
% es.tEX (V/m) @ t=0.9
0.2912628385894891
% es.tEY (V/m) @ t=0.9
0
% es.tEZ (V/m) @ t=0.9
-0.3542966681463131
% es.Ex (V/m) @ t=0.9
0.29126283858949265
% es.Ey (V/m) @ t=0.9
-0.032118621828580496
% es.Ez (V/m) @ t=0.9
-0.3542966681463195
% es.tEx (V/m) @ t=0.9
0.2912628385894891
% es.tEy (V/m) @ t=0.9
0
% es.tEz (V/m) @ t=0.9
-0.3542966681463131
% V (V) @ t=0.9
0.019931619528420468
% es.normE (V/m) @ t=1
0.48892056324865724
% es.EX (V/m) @ t=1
0.3097262943839034
% es.EY (V/m) @ t=1
-0.03415475284394853
% es.EZ (V/m) @ t=1
-0.37675773726994466
% es.tEX (V/m) @ t=1
0.3097262943839034
% es.tEY (V/m) @ t=1
0
% es.tEZ (V/m) @ t=1
-0.37675773726994066
% es.Ex (V/m) @ t=1
0.3097262943839034
% es.Ey (V/m) @ t=1
-0.03415475284394853
% es.Ez (V/m) @ t=1
-0.37675773726994466
% es.tEx (V/m) @ t=1
0.3097262943839034
% es.tEy (V/m) @ t=1
0
% es.tEz (V/m) @ t=1
-0.37675773726994066
% V (V) @ t=1
0.02119669356474692
% es.normE (V/m) @ t=1.1
0.5190352143546354
% es.EX (V/m) @ t=1.1
0.32880226125948475
% es.EY (V/m) @ t=1.1
-0.03625848409631116
% es.EZ (V/m) @ t=1.1
-0.39996493479035056
% es.tEX (V/m) @ t=1.1
0.3288022612594883
% es.tEY (V/m) @ t=1.1
0
% es.tEZ (V/m) @ t=1.1
-0.39996493479034
% es.Ex (V/m) @ t=1.1
0.32880226125948475
% es.Ey (V/m) @ t=1.1
-0.03625848409631116
% es.Ez (V/m) @ t=1.1
-0.39996493479035056
% es.tEx (V/m) @ t=1.1
0.3288022612594883
% es.tEy (V/m) @ t=1.1
0
% es.tEz (V/m) @ t=1.1
-0.39996493479034
% V (V) @ t=1.1
0.022504604260511752
% es.normE (V/m) @ t=1.2
0.550216471934495
% es.EX (V/m) @ t=1.2
0.3485544351107759
% es.EY (V/m) @ t=1.2
-0.03843672679218435
% es.EZ (V/m) @ t=1.2
-0.423993619982841
% es.tEX (V/m) @ t=1.2
0.348554435110767
% es.tEY (V/m) @ t=1.2
0
% es.tEZ (V/m) @ t=1.2
-0.4239936199828378
% es.Ex (V/m) @ t=1.2
0.3485544351107759
% es.Ey (V/m) @ t=1.2
-0.03843672679218435
% es.Ez (V/m) @ t=1.2
-0.423993619982841
% es.tEx (V/m) @ t=1.2
0.348554435110767
% es.tEy (V/m) @ t=1.2
0
% es.tEz (V/m) @ t=1.2
-0.4239936199828378
% V (V) @ t=1.2
0.02385786640445099
% es.normE (V/m) @ t=1.3
0.5827882321610616
% es.EX (V/m) @ t=1.3
0.3691881595772504
% es.EY (V/m) @ t=1.3
-0.04071210780700185
% es.EZ (V/m) @ t=1.3
-0.44909325384744886
% es.tEX (V/m) @ t=1.3
0.3691881595772486
% es.tEY (V/m) @ t=1.3
0
% es.tEZ (V/m) @ t=1.3
-0.44909325384744747
% es.Ex (V/m) @ t=1.3
0.3691881595772504
% es.Ey (V/m) @ t=1.3
-0.04071210780700185
% es.Ez (V/m) @ t=1.3
-0.44909325384744886
% es.tEx (V/m) @ t=1.3
0.3691881595772486
% es.tEy (V/m) @ t=1.3
0
% es.tEz (V/m) @ t=1.3
-0.44909325384744747
% V (V) @ t=1.3
0.025270251861922922
% es.normE (V/m) @ t=1.4
0.6164821437917309
% es.EX (V/m) @ t=1.4
0.3905333053871285
% es.EY (V/m) @ t=1.4
-0.043065880546761415
% es.EZ (V/m) @ t=1.4
-0.47505715543520055
% es.tEX (V/m) @ t=1.4
0.3905333053871267
% es.tEY (V/m) @ t=1.4
0
% es.tEZ (V/m) @ t=1.4
-0.475057155435195
% es.Ex (V/m) @ t=1.4
0.3905333053871285
% es.Ey (V/m) @ t=1.4
-0.043065880546761415
% es.Ez (V/m) @ t=1.4
-0.47505715543520055
% es.tEx (V/m) @ t=1.4
0.3905333053871267
% es.tEy (V/m) @ t=1.4
0
% es.tEz (V/m) @ t=1.4
-0.475057155435195
% V (V) @ t=1.4
0.026730350503884438
% es.normE (V/m) @ t=1.5
0.651298206828668
% es.EX (V/m) @ t=1.5
0.41258987254039425
% es.EY (V/m) @ t=1.5
-0.045498045011481913
% es.EZ (V/m) @ t=1.5
-0.5018853247460746
% es.tEX (V/m) @ t=1.5
0.4125898725403907
% es.tEY (V/m) @ t=1.5
0
% es.tEZ (V/m) @ t=1.5
-0.5018853247460733
% es.Ex (V/m) @ t=1.5
0.41258987254039425
% es.Ey (V/m) @ t=1.5
-0.045498045011481913
% es.Ez (V/m) @ t=1.5
-0.5018853247460746
% es.tEx (V/m) @ t=1.5
0.4125898725403907
% es.tEy (V/m) @ t=1.5
0
% es.tEz (V/m) @ t=1.5
-0.5018853247460733
% V (V) @ t=1.5
0.02823816233033552
% es.normE (V/m) @ t=1.6
0.6874800507613837
% es.EX (V/m) @ t=1.6
0.43551102444845036
% es.EY (V/m) @ t=1.6
-0.04802561828985641
% es.EZ (V/m) @ t=1.6
-0.5297664653095863
% es.tEX (V/m) @ t=1.6
0.4355110244484415
% es.tEY (V/m) @ t=1.6
0
% es.tEZ (V/m) @ t=1.6
-0.5297664653095779
% es.Ex (V/m) @ t=1.6
0.43551102444845036
% es.Ey (V/m) @ t=1.6
-0.04802561828985641
% es.Ez (V/m) @ t=1.6
-0.5297664653095863
% es.tEx (V/m) @ t=1.6
0.4355110244484415
% es.tEy (V/m) @ t=1.6
0
% es.tEz (V/m) @ t=1.6
-0.5297664653095779
% V (V) @ t=1.6
0.02980624898418023
% es.normE (V/m) @ t=1.7
0.7249583841371867
% es.EX (V/m) @ t=1.7
0.45925319940988274
% es.EY (V/m) @ t=1.7
-0.05064376049665009
% es.EZ (V/m) @ t=1.7
-0.5586469073442949
% es.tEX (V/m) @ t=1.7
0.4592531994098792
% es.tEY (V/m) @ t=1.7
0
% es.tEZ (V/m) @ t=1.7
-0.5586469073442899
% es.Ex (V/m) @ t=1.7
0.45925319940988274
% es.Ey (V/m) @ t=1.7
-0.05064376049665009
% es.Ez (V/m) @ t=1.7
-0.5586469073442949
% es.tEx (V/m) @ t=1.7
0.4592531994098792
% es.tEy (V/m) @ t=1.7
0
% es.tEz (V/m) @ t=1.7
-0.5586469073442899
% V (V) @ t=1.7
0.03143103776791468
% es.normE (V/m) @ t=1.8
0.7636870943661406
% es.EX (V/m) @ t=1.8
0.48378740765977923
% es.EY (V/m) @ t=1.8
-0.05334925074898811
% es.EZ (V/m) @ t=1.8
-0.5884909342851006
% es.tEX (V/m) @ t=1.8
0.48378740765977213
% es.tEY (V/m) @ t=1.8
0
% es.tEZ (V/m) @ t=1.8
-0.588490934285101
% es.Ex (V/m) @ t=1.8
0.48378740765977923
% es.Ey (V/m) @ t=1.8
-0.05334925074898811
% es.Ez (V/m) @ t=1.8
-0.5884909342851006
% es.tEx (V/m) @ t=1.8
0.48378740765977213
% es.tEy (V/m) @ t=1.8
0
% es.tEz (V/m) @ t=1.8
-0.588490934285101
% V (V) @ t=1.8
0.033110151096243844
% es.normE (V/m) @ t=1.9
0.8036661814482217
% es.EX (V/m) @ t=1.9
0.5091136491981274
% es.EY (V/m) @ t=1.9
-0.056142089046898214
% es.EZ (V/m) @ t=1.9
-0.6192985461319784
% es.tEX (V/m) @ t=1.9
0.5091136491981203
% es.tEY (V/m) @ t=1.9
0
% es.tEZ (V/m) @ t=1.9
-0.6192985461319793
% es.Ex (V/m) @ t=1.9
0.5091136491981274
% es.Ey (V/m) @ t=1.9
-0.056142089046898214
% es.Ez (V/m) @ t=1.9
-0.6192985461319784
% es.tEx (V/m) @ t=1.9
0.5091136491981203
% es.tEy (V/m) @ t=1.9
0
% es.tEz (V/m) @ t=1.9
-0.6192985461319793
% V (V) @ t=1.9
0.03484358896916776
% es.normE (V/m) @ t=2
0.8441542407674713
% es.EX (V/m) @ t=2
0.5347626521382942
% es.EY (V/m) @ t=2
-0.05897048336153077
% es.EZ (V/m) @ t=2
-0.6504980939063779
% es.tEX (V/m) @ t=2
0.5347626521382907
% es.tEY (V/m) @ t=2
0
% es.tEZ (V/m) @ t=2
-0.6504980939063607
% es.Ex (V/m) @ t=2
0.5347626521382942
% es.Ey (V/m) @ t=2
-0.05897048336153077
% es.Ez (V/m) @ t=2
-0.6504980939063779
% es.tEx (V/m) @ t=2
0.5347626521382907
% es.tEy (V/m) @ t=2
0
% es.tEz (V/m) @ t=2
-0.6504980939063607
% V (V) @ t=2
0.03659852668024198
% es.normE (V/m) @ t=2.1
0.8854842104701223
% es.EX (V/m) @ t=2.1
0.5609451496056543
% es.EY (V/m) @ t=2.1
-0.06185769163021382
% es.EZ (V/m) @ t=2.1
-0.682346284603329
% es.tEX (V/m) @ t=2.1
0.5609451496056543
% es.tEY (V/m) @ t=2.1
0
% es.tEZ (V/m) @ t=2.1
-0.682346284603323
% es.Ex (V/m) @ t=2.1
0.5609451496056543
% es.Ey (V/m) @ t=2.1
-0.06185769163021382
% es.Ez (V/m) @ t=2.1
-0.682346284603329
% es.tEx (V/m) @ t=2.1
0.5609451496056543
% es.tEy (V/m) @ t=2.1
0
% es.tEz (V/m) @ t=2.1
-0.682346284603323
% V (V) @ t=2.1
0.038389704624483
% es.normE (V/m) @ t=2.2
0.9277216137570587
% es.EX (V/m) @ t=2.2
0.5877026144954698
% es.EY (V/m) @ t=2.2
-0.0648082910829455
% es.EZ (V/m) @ t=2.2
-0.714893638910082
% es.tEX (V/m) @ t=2.2
0.5877026144954698
% es.tEY (V/m) @ t=2.2
0
% es.tEZ (V/m) @ t=2.2
-0.7148936389100768
% es.Ex (V/m) @ t=2.2
0.5877026144954698
% es.Ey (V/m) @ t=2.2
-0.0648082910829455
% es.Ez (V/m) @ t=2.2
-0.714893638910082
% es.tEx (V/m) @ t=2.2
0.5877026144954698
% es.tEy (V/m) @ t=2.2
0
% es.tEz (V/m) @ t=2.2
-0.7148936389100768
% V (V) @ t=2.2
0.0402200237547299
% es.normE (V/m) @ t=2.3
0.9708664506285318
% es.EX (V/m) @ t=2.3
0.615035046807769
% es.EY (V/m) @ t=2.3
-0.06782228171978222
% es.EZ (V/m) @ t=2.3
-0.7481401568266012
% es.tEX (V/m) @ t=2.3
0.6150350468077654
% es.tEY (V/m) @ t=2.3
0
% es.tEZ (V/m) @ t=2.3
-0.7481401568265902
% es.Ex (V/m) @ t=2.3
0.615035046807769
% es.Ey (V/m) @ t=2.3
-0.06782228171978222
% es.Ez (V/m) @ t=2.3
-0.7481401568266012
% es.tEx (V/m) @ t=2.3
0.6150350468077654
% es.tEy (V/m) @ t=2.3
0
% es.tEz (V/m) @ t=2.3
-0.7481401568265902
% V (V) @ t=2.3
0.042089484070982695
% es.normE (V/m) @ t=2.4
1.013370141447222
% es.EX (V/m) @ t=2.4
0.6419614397627811
% es.EY (V/m) @ t=2.4
-0.07079148374040578
% es.EZ (V/m) @ t=2.4
-0.7808925145398002
% es.tEX (V/m) @ t=2.4
0.6419614397627846
% es.tEY (V/m) @ t=2.4
0
% es.tEZ (V/m) @ t=2.4
-0.7808925145398042
% es.Ex (V/m) @ t=2.4
0.6419614397627811
% es.Ey (V/m) @ t=2.4
-0.07079148374040578
% es.Ez (V/m) @ t=2.4
-0.7808925145398002
% es.tEx (V/m) @ t=2.4
0.6419614397627846
% es.tEy (V/m) @ t=2.4
0
% es.tEz (V/m) @ t=2.4
-0.7808925145398042
% V (V) @ t=2.4
0.04393094548959443
% es.normE (V/m) @ t=2.5
1.0561358572065347
% es.EX (V/m) @ t=2.5
0.6690539414412449
% es.EY (V/m) @ t=2.5
-0.07377899035313762
% es.EZ (V/m) @ t=2.5
-0.8138466888190852
% es.tEX (V/m) @ t=2.5
0.669053941441252
% es.tEY (V/m) @ t=2.5
0
% es.tEZ (V/m) @ t=2.5
-0.8138466888190834
% es.Ex (V/m) @ t=2.5
0.6690539414412449
% es.Ey (V/m) @ t=2.5
-0.07377899035313762
% es.Ez (V/m) @ t=2.5
-0.8138466888190852
% es.tEx (V/m) @ t=2.5
0.669053941441252
% es.tEy (V/m) @ t=2.5
0
% es.tEz (V/m) @ t=2.5
-0.8138466888190834
% V (V) @ t=2.5
0.04578356581333599
% es.normE (V/m) @ t=2.6
1.0991723790163528
% es.EX (V/m) @ t=2.6
0.6963181145716177
% es.EY (V/m) @ t=2.6
-0.07678541498373548
% es.EZ (V/m) @ t=2.6
-0.8470094463213925
% es.tEX (V/m) @ t=2.6
0.6963181145715893
% es.tEY (V/m) @ t=2.6
0
% es.tEZ (V/m) @ t=2.6
-0.8470094463213833
% es.Ex (V/m) @ t=2.6
0.6963181145716177
% es.Ey (V/m) @ t=2.6
-0.07678541498373548
% es.Ez (V/m) @ t=2.6
-0.8470094463213925
% es.tEx (V/m) @ t=2.6
0.6963181145715893
% es.tEy (V/m) @ t=2.6
0
% es.tEz (V/m) @ t=2.6
-0.8470094463213833
% V (V) @ t=2.6
0.04764772575522638
% es.normE (V/m) @ t=2.7
1.1424119778738495
% es.EX (V/m) @ t=2.7
0.7237109652212723
% es.EY (V/m) @ t=2.7
-0.07980602607621012
% es.EZ (V/m) @ t=2.7
-0.8803286682881903
% es.tEX (V/m) @ t=2.7
0.7237109652212617
% es.tEY (V/m) @ t=2.7
0
% es.tEZ (V/m) @ t=2.7
-0.8803286682881861
% es.Ex (V/m) @ t=2.7
0.7237109652212723
% es.Ey (V/m) @ t=2.7
-0.07980602607621012
% es.Ez (V/m) @ t=2.7
-0.8803286682881903
% es.tEx (V/m) @ t=2.7
0.7237109652212617
% es.tEy (V/m) @ t=2.7
0
% es.tEz (V/m) @ t=2.7
-0.8803286682881861
% V (V) @ t=2.7
0.04952063942698626
% es.normE (V/m) @ t=2.8
1.1848561256155468
% es.EX (V/m) @ t=2.8
0.7505986341790063
% es.EY (V/m) @ t=2.8
-0.08277106633609899
% es.EZ (V/m) @ t=2.8
-0.9130359682700786
% es.tEX (V/m) @ t=2.8
0.7505986341789992
% es.tEY (V/m) @ t=2.8
0
% es.tEZ (V/m) @ t=2.8
-0.9130359682700835
% es.Ex (V/m) @ t=2.8
0.7505986341790063
% es.Ey (V/m) @ t=2.8
-0.08277106633609899
% es.Ez (V/m) @ t=2.8
-0.9130359682700786
% es.tEx (V/m) @ t=2.8
0.7505986341789992
% es.tEy (V/m) @ t=2.8
0
% es.tEz (V/m) @ t=2.8
-0.9130359682700835
% V (V) @ t=2.8
0.05136123449950586
% es.normE (V/m) @ t=2.9
1.226825224289395
% es.EX (V/m) @ t=2.9
0.7771845105891053
% es.EY (V/m) @ t=2.9
-0.08570291908792038
% es.EZ (V/m) @ t=2.9
-0.9453779017477121
% es.tEX (V/m) @ t=2.9
0.777184510589116
% es.tEY (V/m) @ t=2.9
0
% es.tEZ (V/m) @ t=2.9
-0.9453779017477117
% es.Ex (V/m) @ t=2.9
0.7771845105891053
% es.Ey (V/m) @ t=2.9
-0.08570291908792038
% es.Ez (V/m) @ t=2.9
-0.9453779017477121
% es.tEx (V/m) @ t=2.9
0.777184510589116
% es.tEy (V/m) @ t=2.9
0
% es.tEz (V/m) @ t=2.9
-0.9453779017477117
% V (V) @ t=2.9
0.053182690028520434
% es.normE (V/m) @ t=3
1.268169891526608
% es.EX (V/m) @ t=3
0.8033737674880221
% es.EY (V/m) @ t=3
-0.08859114846163996
% es.EZ (V/m) @ t=3
-0.9772395161376548
% es.tEX (V/m) @ t=3
0.8033737674880257
% es.tEY (V/m) @ t=3
0
% es.tEZ (V/m) @ t=3
-0.9772395161376437
% es.Ex (V/m) @ t=3
0.8033737674880221
% es.Ey (V/m) @ t=3
-0.08859114846163996
% es.Ez (V/m) @ t=3
-0.9772395161376548
% es.tEx (V/m) @ t=3
0.8033737674880257
% es.tEy (V/m) @ t=3
0
% es.tEz (V/m) @ t=3
-0.9772395161376437
% V (V) @ t=3
0.05497886148826374
% es.normE (V/m) @ t=3.1
1.3087590534952014
% es.EX (V/m) @ t=3.1
0.8290835549305662
% es.EY (V/m) @ t=3.1
-0.09142659830303579
% es.EZ (V/m) @ t=3.1
-1.0085196558184106
% es.tEX (V/m) @ t=3.1
0.8290835549305484
% es.tEY (V/m) @ t=3.1
0
% es.tEZ (V/m) @ t=3.1
-1.0085196558183966
% es.Ex (V/m) @ t=3.1
0.8290835549305662
% es.Ey (V/m) @ t=3.1
-0.09142659830303579
% es.Ez (V/m) @ t=3.1
-1.0085196558184106
% es.tEx (V/m) @ t=3.1
0.8290835549305484
% es.tEy (V/m) @ t=3.1
0
% es.tEz (V/m) @ t=3.1
-1.0085196558183966
% V (V) @ t=3.1
0.05674375285309243
% es.normE (V/m) @ t=3.2
1.348556835139544
% es.EX (V/m) @ t=3.2
0.8542932998165611
% es.EY (V/m) @ t=3.2
-0.09420676659124716
% es.EZ (V/m) @ t=3.2
-1.0391889051652432
% es.tEX (V/m) @ t=3.2
0.8542932998165682
% es.tEY (V/m) @ t=3.2
0
% es.tEZ (V/m) @ t=3.2
-1.0391889051652328
% es.Ex (V/m) @ t=3.2
0.8542932998165611
% es.Ey (V/m) @ t=3.2
-0.09420676659124716
% es.Ez (V/m) @ t=3.2
-1.0391889051652432
% es.tEx (V/m) @ t=3.2
0.8542932998165682
% es.tEy (V/m) @ t=3.2
0
% es.tEz (V/m) @ t=3.2
-1.0391889051652328
% V (V) @ t=3.2
0.058472140252742354
% es.normE (V/m) @ t=3.3
1.3873773082499734
% es.EX (V/m) @ t=3.3
0.8788842677434339
% es.EY (V/m) @ t=3.3
-0.0969186630029184
% es.EZ (V/m) @ t=3.3
-1.0691047713492614
% es.tEX (V/m) @ t=3.3
0.8788842677434374
% es.tEY (V/m) @ t=3.3
0
% es.tEZ (V/m) @ t=3.3
-1.0691047713492523
% es.Ex (V/m) @ t=3.3
0.8788842677434339
% es.Ey (V/m) @ t=3.3
-0.0969186630029184
% es.Ez (V/m) @ t=3.3
-1.0691047713492614
% es.tEx (V/m) @ t=3.3
0.8788842677434374
% es.tEy (V/m) @ t=3.3
0
% es.tEz (V/m) @ t=3.3
-1.0691047713492523
% V (V) @ t=3.3
0.0601575827389543
% es.normE (V/m) @ t=3.4
1.4250898213680645
% es.EX (V/m) @ t=3.4
0.902773885080407
% es.EY (V/m) @ t=3.4
-0.09955316090756439
% es.EZ (V/m) @ t=3.4
-1.0981664170502587
% es.tEX (V/m) @ t=3.4
0.9027738850804141
% es.tEY (V/m) @ t=3.4
0
% es.tEZ (V/m) @ t=3.4
-1.098166417050244
% es.Ex (V/m) @ t=3.4
0.902773885080407
% es.Ey (V/m) @ t=3.4
-0.09955316090756439
% es.Ez (V/m) @ t=3.4
-1.0981664170502587
% es.tEx (V/m) @ t=3.4
0.9027738850804141
% es.tEy (V/m) @ t=3.4
0
% es.tEz (V/m) @ t=3.4
-1.098166417050244
% V (V) @ t=3.4
0.06179408771204036
% es.normE (V/m) @ t=3.5
1.461563723035721
% es.EX (V/m) @ t=3.5
0.9258795781967635
% es.EY (V/m) @ t=3.5
-0.10210113367452367
% es.EZ (V/m) @ t=3.5
-1.1262730049480003
% es.tEX (V/m) @ t=3.5
0.9258795781967564
% es.tEY (V/m) @ t=3.5
0
% es.tEZ (V/m) @ t=3.5
-1.126273004947997
% es.Ex (V/m) @ t=3.5
0.9258795781967635
% es.Ey (V/m) @ t=3.5
-0.10210113367452367
% es.Ez (V/m) @ t=3.5
-1.1262730049480003
% es.tEx (V/m) @ t=3.5
0.9258795781967564
% es.tEy (V/m) @ t=3.5
0
% es.tEz (V/m) @ t=3.5
-1.126273004947997
% V (V) @ t=3.5
0.06337566257231256
% es.normE (V/m) @ t=3.6
1.4966683617963568
% es.EX (V/m) @ t=3.6
0.9481187734616512
% es.EY (V/m) @ t=3.6
-0.10455345467321209
% es.EZ (V/m) @ t=3.6
-1.1533236977222228
% es.tEX (V/m) @ t=3.6
0.9481187734616512
% es.tEY (V/m) @ t=3.6
0
% es.tEZ (V/m) @ t=3.6
-1.1533236977222074
% es.Ex (V/m) @ t=3.6
0.9481187734616512
% es.Ey (V/m) @ t=3.6
-0.10455345467321209
% es.Ez (V/m) @ t=3.6
-1.1533236977222228
% es.tEx (V/m) @ t=3.6
0.9481187734616512
% es.tEy (V/m) @ t=3.6
0
% es.tEz (V/m) @ t=3.6
-1.1533236977222074
% V (V) @ t=3.6
0.06489631472008299
% es.normE (V/m) @ t=3.7
1.5302730861966636
% es.EX (V/m) @ t=3.7
0.9694088972444277
% es.EY (V/m) @ t=3.7
-0.10690099727316493
% es.EZ (V/m) @ t=3.7
-1.179217658052663
% es.tEX (V/m) @ t=3.7
0.9694088972444277
% es.tEY (V/m) @ t=3.7
0
% es.tEZ (V/m) @ t=3.7
-1.17921765805265
% es.Ex (V/m) @ t=3.7
0.9694088972444277
% es.Ey (V/m) @ t=3.7
-0.10690099727316493
% es.Ez (V/m) @ t=3.7
-1.179217658052663
% es.tEx (V/m) @ t=3.7
0.9694088972444277
% es.tEy (V/m) @ t=3.7
0
% es.tEz (V/m) @ t=3.7
-1.17921765805265
% V (V) @ t=3.7
0.06635005155566372
% es.normE (V/m) @ t=3.8
1.5622472447881584
% es.EX (V/m) @ t=3.8
0.9896673759142942
% es.EY (V/m) @ t=3.8
-0.10913463484372965
% es.EZ (V/m) @ t=3.8
-1.2038540486191143
% es.tEX (V/m) @ t=3.8
0.9896673759142942
% es.tEY (V/m) @ t=3.8
0
% es.tEZ (V/m) @ t=3.8
-1.203854048619121
% es.Ex (V/m) @ t=3.8
0.9896673759142942
% es.Ey (V/m) @ t=3.8
-0.10913463484372965
% es.Ez (V/m) @ t=3.8
-1.2038540486191143
% es.tEx (V/m) @ t=3.8
0.9896673759142942
% es.tEy (V/m) @ t=3.8
0
% es.tEz (V/m) @ t=3.8
-1.203854048619121
% V (V) @ t=3.8
0.06773088047936679
% es.normE (V/m) @ t=3.9
1.5930687767579272
% es.EX (V/m) @ t=3.9
1.0091955473230527
% es.EY (V/m) @ t=3.9
-0.11128775173626515
% es.EZ (V/m) @ t=3.9
-1.227602342396678
% es.tEX (V/m) @ t=3.9
1.0091955473230385
% es.tEY (V/m) @ t=3.9
0
% es.tEZ (V/m) @ t=3.9
-1.227602342396672
% es.Ex (V/m) @ t=3.9
1.0091955473230527
% es.Ey (V/m) @ t=3.9
-0.11128775173626515
% es.Ez (V/m) @ t=3.9
-1.227602342396678
% es.tEx (V/m) @ t=3.9
1.0091955473230385
% es.tEy (V/m) @ t=3.9
0
% es.tEz (V/m) @ t=3.9
-1.227602342396672
% V (V) @ t=3.9
0.0690619584634315
% es.normE (V/m) @ t=4
1.6235401687121385
% es.EX (V/m) @ t=4
1.0284994805185406
% es.EY (V/m) @ t=4
-0.11341640243475393
% es.EZ (V/m) @ t=4
-1.2510828180634923
% es.tEX (V/m) @ t=4
1.0284994805185477
% es.tEY (V/m) @ t=4
0
% es.tEZ (V/m) @ t=4
-1.2510828180634874
% es.Ex (V/m) @ t=4
1.0284994805185406
% es.Ey (V/m) @ t=4
-0.11341640243475393
% es.Ez (V/m) @ t=4
-1.2510828180634923
% es.tEx (V/m) @ t=4
1.0284994805185477
% es.tEy (V/m) @ t=4
0
% es.tEz (V/m) @ t=4
-1.2510828180634874
% V (V) @ t=4
0.07038198727882557
% es.normE (V/m) @ t=4.1
1.6527835829376634
% es.EX (V/m) @ t=4.1
1.047025261418554
% es.EY (V/m) @ t=4.1
-0.11545926821136643
% es.EZ (V/m) @ t=4.1
-1.2736172232518546
% es.tEX (V/m) @ t=4.1
1.047025261418554
% es.tEY (V/m) @ t=4.1
0
% es.tEZ (V/m) @ t=4.1
-1.2736172232518612
% es.Ex (V/m) @ t=4.1
1.047025261418554
% es.Ey (V/m) @ t=4.1
-0.11545926821136643
% es.Ez (V/m) @ t=4.1
-1.2736172232518546
% es.tEx (V/m) @ t=4.1
1.047025261418554
% es.tEy (V/m) @ t=4.1
0
% es.tEz (V/m) @ t=4.1
-1.2736172232518612
% V (V) @ t=4.1
0.07164918646064682
% es.normE (V/m) @ t=4.2
1.6807692323474213
% es.EX (V/m) @ t=4.2
1.0647539437095972
% es.EY (V/m) @ t=4.2
-0.11741426796510357
% es.EZ (V/m) @ t=4.2
-1.2951826672090772
% es.tEX (V/m) @ t=4.2
1.0647539437095972
% es.tEY (V/m) @ t=4.2
0
% es.tEZ (V/m) @ t=4.2
-1.2951826672090618
% es.Ex (V/m) @ t=4.2
1.0647539437095972
% es.Ey (V/m) @ t=4.2
-0.11741426796510357
% es.Ez (V/m) @ t=4.2
-1.2951826672090772
% es.tEx (V/m) @ t=4.2
1.0647539437095972
% es.tEy (V/m) @ t=4.2
0
% es.tEz (V/m) @ t=4.2
-1.2951826672090618
% V (V) @ t=4.2
0.07286239449434885
% es.normE (V/m) @ t=4.3
1.7074673298546537
% es.EX (V/m) @ t=4.3
1.0816665810779895
% es.EY (V/m) @ t=4.3
-0.11927932059506485
% es.EZ (V/m) @ t=4.3
-1.3157562591826852
% es.tEX (V/m) @ t=4.3
1.0816665810779682
% es.tEY (V/m) @ t=4.3
0
% es.tEZ (V/m) @ t=4.3
-1.3157562591826988
% es.Ex (V/m) @ t=4.3
1.0816665810779895
% es.Ey (V/m) @ t=4.3
-0.11927932059506485
% es.Ez (V/m) @ t=4.3
-1.3157562591826852
% es.tEx (V/m) @ t=4.3
1.0816665810779682
% es.tEy (V/m) @ t=4.3
0
% es.tEz (V/m) @ t=4.3
-1.3157562591826988
% V (V) @ t=4.3
0.07402044986538536
% es.normE (V/m) @ t=4.4
1.7328480883730055
% es.EX (V/m) @ t=4.4
1.0977442272102707
% es.EY (V/m) @ t=4.4
-0.12105234500033468
% es.EZ (V/m) @ t=4.4
-1.335315108419891
% es.tEX (V/m) @ t=4.4
1.0977442272102707
% es.tEY (V/m) @ t=4.4
0
% es.tEZ (V/m) @ t=4.4
-1.3353151084198913
% es.Ex (V/m) @ t=4.4
1.0977442272102707
% es.Ey (V/m) @ t=4.4
-0.12105234500033468
% es.Ez (V/m) @ t=4.4
-1.335315108419891
% es.tEx (V/m) @ t=4.4
1.0977442272102707
% es.tEy (V/m) @ t=4.4
0
% es.tEz (V/m) @ t=4.4
-1.3353151084198913
% V (V) @ t=4.4
0.07512219105921011
% es.normE (V/m) @ t=4.5
1.7568817208171381
% es.EX (V/m) @ t=4.5
1.1129679357928381
% es.EY (V/m) @ t=4.5
-0.12273126008017954
% es.EZ (V/m) @ t=4.5
-1.3538363241683053
% es.tEX (V/m) @ t=4.5
1.1129679357928381
% es.tEY (V/m) @ t=4.5
0
% es.tEZ (V/m) @ t=4.5
-1.3538363241683058
% es.Ex (V/m) @ t=4.5
1.1129679357928381
% es.Ey (V/m) @ t=4.5
-0.12273126008017954
% es.Ez (V/m) @ t=4.5
-1.3538363241683053
% es.tEx (V/m) @ t=4.5
1.1129679357928381
% es.tEy (V/m) @ t=4.5
0
% es.tEz (V/m) @ t=4.5
-1.3538363241683058
% V (V) @ t=4.5
0.07616645656127673
% es.normE (V/m) @ t=4.6
1.7795384401025693
% es.EX (V/m) @ t=4.6
1.1273187605122175
% es.EY (V/m) @ t=4.6
-0.12431398473324506
% es.EZ (V/m) @ t=4.6
-1.3712970156751694
% es.tEX (V/m) @ t=4.6
1.1273187605122104
% es.tEY (V/m) @ t=4.6
0
% es.tEZ (V/m) @ t=4.6
-1.371297015675161
% es.Ex (V/m) @ t=4.6
1.1273187605122175
% es.Ey (V/m) @ t=4.6
-0.12431398473324506
% es.Ez (V/m) @ t=4.6
-1.3712970156751694
% es.tEx (V/m) @ t=4.6
1.1273187605122104
% es.tEy (V/m) @ t=4.6
0
% es.tEz (V/m) @ t=4.6
-1.371297015675161
% V (V) @ t=4.6
0.07715208485703896
% es.normE (V/m) @ t=4.7
1.801176287533622
% es.EX (V/m) @ t=4.7
1.1410246057408315
% es.EY (V/m) @ t=4.7
-0.12582553828489917
% es.EZ (V/m) @ t=4.7
-1.387972190565321
% es.tEX (V/m) @ t=4.7
1.1410246057408315
% es.tEY (V/m) @ t=4.7
0
% es.tEZ (V/m) @ t=4.7
-1.387972190565307
% es.Ex (V/m) @ t=4.7
1.1410246057408315
% es.Ey (V/m) @ t=4.7
-0.12582553828489917
% es.Ez (V/m) @ t=4.7
-1.387972190565321
% es.tEx (V/m) @ t=4.7
1.1410246057408315
% es.tEy (V/m) @ t=4.7
0
% es.tEz (V/m) @ t=4.7
-1.387972190565307
% V (V) @ t=4.7
0.07809276292079204
% es.normE (V/m) @ t=4.8
1.8218969304551131
% es.EX (V/m) @ t=4.8
1.1541501952061282
% es.EY (V/m) @ t=4.8
-0.1272730253235821
% es.EZ (V/m) @ t=4.8
-1.403939930742196
% es.tEX (V/m) @ t=4.8
1.1541501952061353
% es.tEY (V/m) @ t=4.8
0
% es.tEZ (V/m) @ t=4.8
-1.403939930742176
% es.Ex (V/m) @ t=4.8
1.1541501952061282
% es.Ey (V/m) @ t=4.8
-0.1272730253235821
% es.Ez (V/m) @ t=4.8
-1.403939930742196
% es.tEx (V/m) @ t=4.8
1.1541501952061353
% es.tEy (V/m) @ t=4.8
0
% es.tEz (V/m) @ t=4.8
-1.403939930742176
% V (V) @ t=4.8
0.0789923621333334
% es.normE (V/m) @ t=4.9
1.8414425470850486
% es.EX (V/m) @ t=4.9
1.1665314397358912
% es.EY (V/m) @ t=4.9
-0.12863843028470257
% es.EZ (V/m) @ t=4.9
-1.4190021876574637
% es.tEX (V/m) @ t=4.9
1.1665314397358983
% es.tEY (V/m) @ t=4.9
0
% es.tEZ (V/m) @ t=4.9
-1.4190021876574548
% es.Ex (V/m) @ t=4.9
1.1665314397358912
% es.Ey (V/m) @ t=4.9
-0.12863843028470257
% es.Ez (V/m) @ t=4.9
-1.4190021876574637
% es.tEx (V/m) @ t=4.9
1.1665314397358983
% es.tEy (V/m) @ t=4.9
0
% es.tEz (V/m) @ t=4.9
-1.4190021876574548
% V (V) @ t=4.9
0.07984099039017963
% es.normE (V/m) @ t=5
1.8598144459951313
% es.EX (V/m) @ t=5
1.1781691852360723
% es.EY (V/m) @ t=5
-0.12992184495003478
% es.EZ (V/m) @ t=5
-1.433159955726201
% es.tEX (V/m) @ t=5
1.1781691852360865
% es.tEY (V/m) @ t=5
0
% es.tEZ (V/m) @ t=5
-1.4331599557261825
% es.Ex (V/m) @ t=5
1.1781691852360723
% es.Ey (V/m) @ t=5
-0.12992184495003478
% es.Ez (V/m) @ t=5
-1.433159955726201
% es.tEx (V/m) @ t=5
1.1781691852360865
% es.tEy (V/m) @ t=5
0
% es.tEz (V/m) @ t=5
-1.4331599557261825
% V (V) @ t=5
0.08063867671246508
% es.normE (V/m) @ t=5.1
1.8770139357571263
% es.EX (V/m) @ t=5.1
1.189064277612502
% es.EY (V/m) @ t=5.1
-0.13112336110126943
% es.EZ (V/m) @ t=5.1
-1.4464142293637126
% es.tEX (V/m) @ t=5.1
1.189064277612509
% es.tEY (V/m) @ t=5.1
0
% es.tEZ (V/m) @ t=5.1
-1.4464142293636968
% es.Ex (V/m) @ t=5.1
1.189064277612502
% es.Ey (V/m) @ t=5.1
-0.13112336110126943
% es.Ez (V/m) @ t=5.1
-1.4464142293637126
% es.tEx (V/m) @ t=5.1
1.189064277612509
% es.tEy (V/m) @ t=5.1
0
% es.tEz (V/m) @ t=5.1
-1.4464142293636968
% V (V) @ t=5.1
0.08138545012132394
% es.normE (V/m) @ t=5.2
1.8930423249426716
% es.EX (V/m) @ t=5.2
1.199217562771132
% es.EY (V/m) @ t=5.2
-0.13224307052004391
% es.EZ (V/m) @ t=5.2
-1.4587660029850753
% es.tEX (V/m) @ t=5.2
1.199217562771139
% es.tEY (V/m) @ t=5.2
0
% es.tEZ (V/m) @ t=5.2
-1.4587660029850582
% es.Ex (V/m) @ t=5.2
1.199217562771132
% es.Ey (V/m) @ t=5.2
-0.13224307052004391
% es.Ez (V/m) @ t=5.2
-1.4587660029850753
% es.tEx (V/m) @ t=5.2
1.199217562771139
% es.tEy (V/m) @ t=5.2
0
% es.tEz (V/m) @ t=5.2
-1.4587660029850582
% V (V) @ t=5.2
0.08208133963789041
% es.normE (V/m) @ t=5.3
1.907900922123472
% es.EX (V/m) @ t=5.3
1.20862988661775
% es.EY (V/m) @ t=5.3
-0.13328106498827452
% es.EZ (V/m) @ t=5.3