% Model:              1x1--2 - Copy1.mph
% Version:            COMSOL 6.1.0.252
% Date:               Mar 28 2023, 12:56
% Dimension:          0
% Nodes:              14017
% Expressions:        14017
% Description:        Electric field norm, Electric field, X component, Electric field, Y component, Electric field, Z component, Tangential electric field, X component, Tangential electric field, Y component, Tangential electric field, Z component, Electric field, x component, Electric field, y component, Electric field, z component, Tangential electric field, x component, Tangential electric field, y component, Tangential electric field, z component, Electric potential
% Length unit:        mm
% x
1
% y
14.200000000000001
% z
1.33
% es.normE (V/m) @ t=0
0.25201973166580166
% es.EX (V/m) @ t=0
0.2006406978946238
% es.EY (V/m) @ t=0
-0.006442396243449888
% es.EZ (V/m) @ t=0
-0.15236715862646832
% es.tEX (V/m) @ t=0
0.20064069789463
% es.tEY (V/m) @ t=0
0
% es.tEZ (V/m) @ t=0
-0.1523671586264701
% es.Ex (V/m) @ t=0
0.2006406978946238
% es.Ey (V/m) @ t=0
-0.006442396243449888
% es.Ez (V/m) @ t=0
-0.15236715862646832
% es.tEx (V/m) @ t=0
0.20064069789463
% es.tEy (V/m) @ t=0
0
% es.tEz (V/m) @ t=0
-0.1523671586264701
% V (V) @ t=0
0.011919046016682243
% es.normE (V/m) @ t=0.1
0.26401209193381087
% es.EX (V/m) @ t=0.1
0.2101881829323986
% es.EY (V/m) @ t=0.1
-0.006748957192885152
% es.EZ (V/m) @ t=0.1
-0.15961755548702072
% es.tEX (V/m) @ t=0.1
0.2101881829324019
% es.tEY (V/m) @ t=0.1
0
% es.tEZ (V/m) @ t=0.1
-0.1596175554870205
% es.Ex (V/m) @ t=0.1
0.2101881829323986
% es.Ey (V/m) @ t=0.1
-0.006748957192885152
% es.Ez (V/m) @ t=0.1
-0.15961755548702072
% es.tEx (V/m) @ t=0.1
0.2101881829324019
% es.tEy (V/m) @ t=0.1
0
% es.tEz (V/m) @ t=0.1
-0.1596175554870205
% V (V) @ t=0.1
0.012486210385849943
% es.normE (V/m) @ t=0.2
0.2812189632511456
% es.EX (V/m) @ t=0.2
0.22388708830007786
% es.EY (V/m) @ t=0.2
-0.007188815409921223
% es.EZ (V/m) @ t=0.2
-0.17002058086468352
% es.tEX (V/m) @ t=0.2
0.22388708830007864
% es.tEY (V/m) @ t=0.2
0
% es.tEZ (V/m) @ t=0.2
-0.17002058086468863
% es.Ex (V/m) @ t=0.2
0.22388708830007786
% es.Ey (V/m) @ t=0.2
-0.007188815409921223
% es.Ez (V/m) @ t=0.2
-0.17002058086468352
% es.tEx (V/m) @ t=0.2
0.22388708830007864
% es.tEy (V/m) @ t=0.2
0
% es.tEz (V/m) @ t=0.2
-0.17002058086468863
% V (V) @ t=0.2
0.013299963963230434
% es.normE (V/m) @ t=0.3
0.2994041941162753
% es.EX (V/m) @ t=0.3
0.238364913405821
% es.EY (V/m) @ t=0.3
-0.00765368560509494
% es.EZ (V/m) @ t=0.3
-0.1810150839242688
% es.tEX (V/m) @ t=0.3
0.23836491340581917
% es.tEY (V/m) @ t=0.3
0
% es.tEZ (V/m) @ t=0.3
-0.18101508392427051
% es.Ex (V/m) @ t=0.3
0.238364913405821
% es.Ey (V/m) @ t=0.3
-0.00765368560509494
% es.Ez (V/m) @ t=0.3
-0.1810150839242688
% es.tEx (V/m) @ t=0.3
0.23836491340581917
% es.tEy (V/m) @ t=0.3
0
% es.tEz (V/m) @ t=0.3
-0.18101508392427051
% V (V) @ t=0.3
0.014160024519531576
% es.normE (V/m) @ t=0.4
0.31961097415902456
% es.EX (V/m) @ t=0.4
0.2544526835418033
% es.EY (V/m) @ t=0.4
-0.008170296338512517
% es.EZ (V/m) @ t=0.4
-0.19323108678211298
% es.tEX (V/m) @ t=0.4
0.2544526835418082
% es.tEY (V/m) @ t=0.4
0
% es.tEZ (V/m) @ t=0.4
-0.1932310867821148
% es.Ex (V/m) @ t=0.4
0.2544526835418033
% es.Ey (V/m) @ t=0.4
-0.008170296338512517
% es.Ez (V/m) @ t=0.4
-0.19323108678211298
% es.tEx (V/m) @ t=0.4
0.2544526835418082
% es.tEy (V/m) @ t=0.4
0
% es.tEz (V/m) @ t=0.4
-0.1932310867821148
% V (V) @ t=0.4
0.015116772752066234
% es.normE (V/m) @ t=0.5
0.340329410306983
% es.EX (V/m) @ t=0.5
0.2709479423650585
% es.EY (V/m) @ t=0.5
-0.008700003858778782
% es.EZ (V/m) @ t=0.5
-0.20575623922714215
% es.tEX (V/m) @ t=0.5
0.2709479423650666
% es.tEY (V/m) @ t=0.5
0
% es.tEZ (V/m) @ t=0.5
-0.2057562392271432
% es.Ex (V/m) @ t=0.5
0.2709479423650585
% es.Ey (V/m) @ t=0.5
-0.008700003858778782
% es.Ez (V/m) @ t=0.5
-0.20575623922714215
% es.tEx (V/m) @ t=0.5
0.2709479423650666
% es.tEy (V/m) @ t=0.5
0
% es.tEz (V/m) @ t=0.5
-0.2057562392271432
% V (V) @ t=0.5
0.016098013202820498
% es.normE (V/m) @ t=0.6
0.3625328684417414
% es.EX (V/m) @ t=0.6
0.2886246794304981
% es.EY (V/m) @ t=0.6
-0.009267577401304239
% es.EZ (V/m) @ t=0.6
-0.2191802617330083
% es.tEX (V/m) @ t=0.6
0.28862467943049813
% es.tEY (V/m) @ t=0.6
0
% es.tEZ (V/m) @ t=0.6
-0.2191802617330028
% es.Ex (V/m) @ t=0.6
0.2886246794304981
% es.Ey (V/m) @ t=0.6
-0.009267577401304239
% es.Ez (V/m) @ t=0.6
-0.2191802617330083
% es.tEx (V/m) @ t=0.6
0.28862467943049813
% es.tEy (V/m) @ t=0.6
0
% es.tEz (V/m) @ t=0.6
-0.2191802617330028
% V (V) @ t=0.6
0.017147862461096786
% es.normE (V/m) @ t=0.7
0.38556230784422757
% es.EX (V/m) @ t=0.7
0.3069585642711381
% es.EY (V/m) @ t=0.7
-0.009856212332397973
% es.EZ (V/m) @ t=0.7
-0.23310424305281785
% es.tEX (V/m) @ t=0.7
0.30695856427114243
% es.tEY (V/m) @ t=0.7
0
% es.tEZ (V/m) @ t=0.7
-0.23310424305282296
% es.Ex (V/m) @ t=0.7
0.3069585642711381
% es.Ey (V/m) @ t=0.7
-0.009856212332397973
% es.Ez (V/m) @ t=0.7
-0.23310424305281785
% es.tEx (V/m) @ t=0.7
0.30695856427114243
% es.tEy (V/m) @ t=0.7
0
% es.tEz (V/m) @ t=0.7
-0.23310424305282296
% V (V) @ t=0.7
0.018235872494250172
% es.normE (V/m) @ t=0.8
0.4103995521734527
% es.EX (V/m) @ t=0.8
0.32673227937774385
% es.EY (V/m) @ t=0.8
-0.010491130275166238
% es.EZ (V/m) @ t=0.8
-0.2481204268542676
% es.tEX (V/m) @ t=0.8
0.3267322793777497
% es.tEY (V/m) @ t=0.8
0
% es.tEZ (V/m) @ t=0.8
-0.24812042685427116
% es.Ex (V/m) @ t=0.8
0.32673227937774385
% es.Ey (V/m) @ t=0.8
-0.010491130275166238
% es.Ez (V/m) @ t=0.8
-0.2481204268542676
% es.tEx (V/m) @ t=0.8
0.3267322793777497
% es.tEy (V/m) @ t=0.8
0
% es.tEz (V/m) @ t=0.8
-0.24812042685427116
% V (V) @ t=0.8
0.01941057073939452
% es.normE (V/m) @ t=0.9
0.4359598829930587
% es.EX (V/m) @ t=0.9
0.3470818983326893
% es.EY (V/m) @ t=0.9
-0.011144560514316337
% es.EZ (V/m) @ t=0.9
-0.26357347021284383
% es.tEX (V/m) @ t=0.9
0.3470818983326929
% es.tEY (V/m) @ t=0.9
0
% es.tEZ (V/m) @ t=0.9
-0.2635734702128491
% es.Ex (V/m) @ t=0.9
0.3470818983326893
% es.Ey (V/m) @ t=0.9
-0.011144560514316337
% es.Ez (V/m) @ t=0.9
-0.26357347021284383
% es.tEx (V/m) @ t=0.9
0.3470818983326929
% es.tEy (V/m) @ t=0.9
0
% es.tEz (V/m) @ t=0.9
-0.2635734702128491
% V (V) @ t=0.9
0.02061994256799562
% es.normE (V/m) @ t=1
0.46360619082336024
% es.EX (V/m) @ t=1
0.3690918212704588
% es.EY (V/m) @ t=1
-0.011851265733808347
% es.EZ (V/m) @ t=1
-0.2802882001467566
% es.tEX (V/m) @ t=1
0.36909182127046597
% es.tEY (V/m) @ t=1
0
% es.tEZ (V/m) @ t=1
-0.28028820014675493
% es.Ex (V/m) @ t=1
0.3690918212704588
% es.Ey (V/m) @ t=1
-0.011851265733808347
% es.Ez (V/m) @ t=1
-0.2802882001467566
% es.tEx (V/m) @ t=1
0.36909182127046597
% es.tEy (V/m) @ t=1
0
% es.tEz (V/m) @ t=1
-0.28028820014675493
% V (V) @ t=1
0.02192713763646141
% es.normE (V/m) @ t=1.1
0.49182042332877635
% es.EX (V/m) @ t=1.1
0.39155377584351214
% es.EY (V/m) @ t=1.1
-0.012572475511948289
% es.EZ (V/m) @ t=1.1
-0.29734643479531897
% es.tEX (V/m) @ t=1.1
0.39155377584352724
% es.tEY (V/m) @ t=1.1
0
% es.tEZ (V/m) @ t=1.1
-0.29734643479531486
% es.Ex (V/m) @ t=1.1
0.39155377584351214
% es.Ey (V/m) @ t=1.1
-0.012572475511948289
% es.Ez (V/m) @ t=1.1
-0.29734643479531897
% es.tEx (V/m) @ t=1.1
0.39155377584352724
% es.tEy (V/m) @ t=1.1
0
% es.tEz (V/m) @ t=1.1
-0.29734643479531486
% V (V) @ t=1.1
0.02326096589953507
% es.normE (V/m) @ t=1.2
0.5213158929071525
% es.EX (V/m) @ t=1.2
0.41503586797827907
% es.EY (V/m) @ t=1.2
-0.01332645027637791
% es.EZ (V/m) @ t=1.2
-0.315179146220256
% es.tEX (V/m) @ t=1.2
0.4150358679782871
% es.tEY (V/m) @ t=1.2
0
% es.tEZ (V/m) @ t=1.2
-0.31517914622025756
% es.Ex (V/m) @ t=1.2
0.41503586797827907
% es.Ey (V/m) @ t=1.2
-0.01332645027637791
% es.Ez (V/m) @ t=1.2
-0.315179146220256
% es.tEx (V/m) @ t=1.2
0.4150358679782871
% es.tEy (V/m) @ t=1.2
0
% es.tEz (V/m) @ t=1.2
-0.31517914622025756
% V (V) @ t=1.2
0.024655604657729414
% es.normE (V/m) @ t=1.3
0.5520199681883575
% es.EX (V/m) @ t=1.3
0.43948026763681725
% es.EY (V/m) @ t=1.3
-0.014111332630123208
% es.EZ (V/m) @ t=1.3
-0.33374243051783026
% es.tEX (V/m) @ t=1.3
0.43948026763682857
% es.tEY (V/m) @ t=1.3
0
% es.tEZ (V/m) @ t=1.3
-0.33374243051782726
% es.Ex (V/m) @ t=1.3
0.43948026763681725
% es.Ey (V/m) @ t=1.3
-0.014111332630123208
% es.Ez (V/m) @ t=1.3
-0.33374243051783026
% es.tEx (V/m) @ t=1.3
0.43948026763682857
% es.tEy (V/m) @ t=1.3
0
% es.tEz (V/m) @ t=1.3
-0.33374243051782726
% V (V) @ t=1.3
0.02610760665709903
% es.normE (V/m) @ t=1.4
0.5837963927816608
% es.EX (V/m) @ t=1.4
0.4647784857151045
% es.EY (V/m) @ t=1.4
-0.014923638098063297
% es.EZ (V/m) @ t=1.4
-0.3529539240002464
% es.tEX (V/m) @ t=1.4
0.46477848571510705
% es.tEY (V/m) @ t=1.4
0
% es.tEZ (V/m) @ t=1.4
-0.3529539240002446
% es.Ex (V/m) @ t=1.4
0.4647784857151045
% es.Ey (V/m) @ t=1.4
-0.014923638098063297
% es.Ez (V/m) @ t=1.4
-0.3529539240002464
% es.tEx (V/m) @ t=1.4
0.46477848571510705
% es.tEy (V/m) @ t=1.4
0
% es.tEz (V/m) @ t=1.4
-0.3529539240002446
% V (V) @ t=1.4
0.027610504852035755
% es.normE (V/m) @ t=1.5
0.6166454314277112
% es.EX (V/m) @ t=1.5
0.4909307327196011
% es.EY (V/m) @ t=1.5
-0.015763373416222137
% es.EZ (V/m) @ t=1.5
-0.37281378707151447
% es.tEX (V/m) @ t=1.5
0.4909307327196105
% es.tEY (V/m) @ t=1.5
0
% es.tEZ (V/m) @ t=1.5
-0.37281378707150714
% es.Ex (V/m) @ t=1.5
0.4909307327196011
% es.Ey (V/m) @ t=1.5
-0.015763373416222137
% es.Ez (V/m) @ t=1.5
-0.37281378707151447
% es.tEx (V/m) @ t=1.5
0.4909307327196105
% es.tEy (V/m) @ t=1.5
0
% es.tEz (V/m) @ t=1.5
-0.37281378707150714
% V (V) @ t=1.5
0.029164311227688106
% es.normE (V/m) @ t=1.6
0.6508620775657743
% es.EX (V/m) @ t=1.6
0.5181715704252206
% es.EY (V/m) @ t=1.6
-0.016638044430895338
% es.EZ (V/m) @ t=1.6
-0.3935007536127628
% es.tEX (V/m) @ t=1.6
0.5181715704252329
% es.tEY (V/m) @ t=1.6
0
% es.tEZ (V/m) @ t=1.6
-0.3935007536127604
% es.Ex (V/m) @ t=1.6
0.5181715704252206
% es.Ey (V/m) @ t=1.6
-0.016638044430895338
% es.Ez (V/m) @ t=1.6
-0.3935007536127628
% es.tEx (V/m) @ t=1.6
0.5181715704252329
% es.tEy (V/m) @ t=1.6
0
% es.tEz (V/m) @ t=1.6
-0.3935007536127604
% V (V) @ t=1.6
0.030782380512509554
% es.normE (V/m) @ t=1.7
0.6862727164122104
% es.EX (V/m) @ t=1.7
0.5463629503658147
% es.EY (V/m) @ t=1.7
-0.017543233667986602
% es.EZ (V/m) @ t=1.7
-0.4149096319824679
% es.tEX (V/m) @ t=1.7
0.5463629503658226
% es.tEY (V/m) @ t=1.7
0
% es.tEZ (V/m) @ t=1.7
-0.4149096319824652
% es.Ex (V/m) @ t=1.7
0.5463629503658147
% es.Ey (V/m) @ t=1.7
-0.017543233667986602
% es.Ez (V/m) @ t=1.7
-0.4149096319824679
% es.tEx (V/m) @ t=1.7
0.5463629503658226
% es.tEy (V/m) @ t=1.7
0
% es.tEz (V/m) @ t=1.7
-0.4149096319824652
% V (V) @ t=1.7
0.03245685294427039
% es.normE (V/m) @ t=1.8
0.722877347967053
% es.EX (V/m) @ t=1.8
0.575504872541373
% es.EY (V/m) @ t=1.8
-0.018478941127538562
% es.EZ (V/m) @ t=1.8
-0.43704042218062966
% es.tEX (V/m) @ t=1.8
0.5755048725413796
% es.tEY (V/m) @ t=1.8
0
% es.tEZ (V/m) @ t=1.8
-0.43704042218062866
% es.Ex (V/m) @ t=1.8
0.575504872541373
% es.Ey (V/m) @ t=1.8
-0.018478941127538562
% es.Ez (V/m) @ t=1.8
-0.43704042218062966
% es.tEx (V/m) @ t=1.8
0.5755048725413796
% es.tEy (V/m) @ t=1.8
0
% es.tEz (V/m) @ t=1.8
-0.43704042218062866
% V (V) @ t=1.8
0.034187728522970626
% es.normE (V/m) @ t=1.9
0.7605915283254777
% es.EX (V/m) @ t=1.9
0.605530113889273
% es.EY (V/m) @ t=1.9
-0.019443008807951134
% es.EZ (V/m) @ t=1.9
-0.4598420636938556
% es.tEX (V/m) @ t=1.9
0.6055301138892807
% es.tEY (V/m) @ t=1.9
0
% es.tEZ (V/m) @ t=1.9
-0.4598420636938566
% es.Ex (V/m) @ t=1.9
0.605530113889273
% es.Ey (V/m) @ t=1.9
-0.019443008807951134
% es.Ez (V/m) @ t=1.9
-0.4598420636938556
% es.tEx (V/m) @ t=1.9
0.6055301138892807
% es.tEy (V/m) @ t=1.9
0
% es.tEz (V/m) @ t=1.9
-0.4598420636938566
% V (V) @ t=1.9
0.03597102435104309
% es.normE (V/m) @ t=2
0.7988328233321487
% es.EX (V/m) @ t=2
0.6359750174082563
% es.EY (V/m) @ t=2
-0.02042055234563378
% es.EZ (V/m) @ t=2
-0.48296237732071745
% es.tEX (V/m) @ t=2
0.6359750174082488
% es.tEY (V/m) @ t=2
0
% es.tEZ (V/m) @ t=2
-0.4829623773207069
% es.Ex (V/m) @ t=2
0.6359750174082563
% es.Ey (V/m) @ t=2
-0.02042055234563378
% es.Ez (V/m) @ t=2
-0.48296237732071745
% es.tEx (V/m) @ t=2
0.6359750174082488
% es.tEy (V/m) @ t=2
0
% es.tEz (V/m) @ t=2
-0.4829623773207069
% V (V) @ t=2
0.03777926922637059
% es.normE (V/m) @ t=2.1
0.837976090169033
% es.EX (V/m) @ t=2.1
0.6671379947819389
% es.EY (V/m) @ t=2.1
-0.02142115138236278
% es.EZ (V/m) @ t=2.1
-0.5066280271429591
% es.tEX (V/m) @ t=2.1
0.667137994781933
% es.tEY (V/m) @ t=2.1
0
% es.tEZ (V/m) @ t=2.1
-0.5066280271429581
% es.Ex (V/m) @ t=2.1
0.6671379947819389
% es.Ey (V/m) @ t=2.1
-0.02142115138236278
% es.Ez (V/m) @ t=2.1
-0.5066280271429591
% es.tEx (V/m) @ t=2.1
0.667137994781933
% es.tEy (V/m) @ t=2.1
0
% es.tEz (V/m) @ t=2.1
-0.5066280271429581
% V (V) @ t=2.1
0.039630143735362375
% es.normE (V/m) @ t=2.2
0.8780213288361163
% es.EX (V/m) @ t=2.2
0.6990190460102852
% es.EY (V/m) @ t=2.2
-0.02244480591815945
% es.EZ (V/m) @ t=2.2
-0.5308390131605876
% es.tEX (V/m) @ t=2.2
0.6990190460102764
% es.tEY (V/m) @ t=2.2
0
% es.tEZ (V/m) @ t=2.2
-0.5308390131605886
% es.Ex (V/m) @ t=2.2
0.6990190460102852
% es.Ey (V/m) @ t=2.2
-0.02244480591815945
% es.Ez (V/m) @ t=2.2
-0.5308390131605876
% es.tEx (V/m) @ t=2.2
0.6990190460102764
% es.tEy (V/m) @ t=2.2
0
% es.tEz (V/m) @ t=2.2
-0.5308390131605886
% V (V) @ t=2.2
0.041523647878018446
% es.normE (V/m) @ t=2.3
0.9186275207357641
% es.EX (V/m) @ t=2.3
0.7313467059928485
% es.EY (V/m) @ t=2.3
-0.023482802138574232
% es.EZ (V/m) @ t=2.3
-0.55538912078854
% es.tEX (V/m) @ t=2.3
0.7313467059928619
% es.tEY (V/m) @ t=2.3
0
% es.tEZ (V/m) @ t=2.3
-0.5553891207885353
% es.Ex (V/m) @ t=2.3
0.7313467059928485
% es.Ey (V/m) @ t=2.3
-0.023482802138574232
% es.Ez (V/m) @ t=2.3
-0.55538912078854
% es.tEx (V/m) @ t=2.3
0.7313467059928619
% es.tEy (V/m) @ t=2.3
0
% es.tEz (V/m) @ t=2.3
-0.5553891207885353
% V (V) @ t=2.3
0.043443715196234536
% es.normE (V/m) @ t=2.4
0.9589244308601351
% es.EX (V/m) @ t=2.4
0.7634282311799296
% es.EY (V/m) @ t=2.4
-0.024512903524619212
% es.EZ (V/m) @ t=2.4
-0.579752117286958
% es.tEX (V/m) @ t=2.4
0.7634282311799417
% es.tEY (V/m) @ t=2.4
0
% es.tEZ (V/m) @ t=2.4
-0.57975211728696
% es.Ex (V/m) @ t=2.4
0.7634282311799296
% es.Ey (V/m) @ t=2.4
-0.024512903524619212
% es.Ez (V/m) @ t=2.4
-0.579752117286958
% es.tEx (V/m) @ t=2.4
0.7634282311799417
% es.tEy (V/m) @ t=2.4
0
% es.tEz (V/m) @ t=2.4
-0.57975211728696
% V (V) @ t=2.4
0.04534934618328372
% es.normE (V/m) @ t=2.5
0.9995518372055379
% es.EX (V/m) @ t=2.5
0.7957729116784691
% es.EY (V/m) @ t=2.5
-0.02555145788511215
% es.EZ (V/m) @ t=2.5
-0.6043148776090845
% es.tEX (V/m) @ t=2.5
0.7957729116785003
% es.tEY (V/m) @ t=2.5
0
% es.tEZ (V/m) @ t=2.5
-0.6043148776090812
% es.Ex (V/m) @ t=2.5
0.7957729116784691
% es.Ey (V/m) @ t=2.5
-0.02555145788511215
% es.Ez (V/m) @ t=2.5
-0.6043148776090845
% es.tEx (V/m) @ t=2.5
0.7957729116785003
% es.tEy (V/m) @ t=2.5
0
% es.tEz (V/m) @ t=2.5
-0.6043148776090812
% V (V) @ t=2.5
0.04727068279166374
% es.normE (V/m) @ t=2.6
1.0405097397720078
% es.EX (V/m) @ t=2.6
0.8283807474885165
% es.EY (V/m) @ t=2.6
-0.026598465220123657
% es.EZ (V/m) @ t=2.6
-0.6290774017549126
% es.tEX (V/m) @ t=2.6
0.8283807474885229
% es.tEY (V/m) @ t=2.6
0
% es.tEZ (V/m) @ t=2.6
-0.6290774017549055
% es.Ex (V/m) @ t=2.6
0.8283807474885165
% es.Ey (V/m) @ t=2.6
-0.026598465220123657
% es.Ez (V/m) @ t=2.6
-0.6290774017549126
% es.tEx (V/m) @ t=2.6
0.8283807474885229
% es.tEy (V/m) @ t=2.6
0
% es.tEz (V/m) @ t=2.6
-0.6290774017549055
% V (V) @ t=2.6
0.0492077250213746
% es.normE (V/m) @ t=2.7
1.081436976845132
% es.EX (V/m) @ t=2.7
0.8609642374429285
% es.EY (V/m) @ t=2.7
-0.027644696845561256
% es.EZ (V/m) @ t=2.7
-0.6538212962794745
% es.tEX (V/m) @ t=2.7
0.8609642374429513
% es.tEY (V/m) @ t=2.7
0
% es.tEZ (V/m) @ t=2.7
-0.6538212962794743
% es.Ex (V/m) @ t=2.7
0.8609642374429285
% es.Ey (V/m) @ t=2.7
-0.027644696845561256
% es.Ez (V/m) @ t=2.7
-0.6538212962794745
% es.tEx (V/m) @ t=2.7
0.8609642374429513
% es.tEy (V/m) @ t=2.7
0
% es.tEz (V/m) @ t=2.7
-0.6538212962794743
% V (V) @ t=2.7
0.05114345469660765
% es.normE (V/m) @ t=2.8
1.1217577091569622
% es.EX (V/m) @ t=2.8
0.8930649872684029
% es.EY (V/m) @ t=2.8
-0.028675438470418868
% es.EZ (V/m) @ t=2.8
-0.678198352841477
% es.tEX (V/m) @ t=2.8
0.8930649872683982
% es.tEY (V/m) @ t=2.8
0
% es.tEZ (V/m) @ t=2.8
-0.6781983528414799
% es.Ex (V/m) @ t=2.8
0.8930649872684029
% es.Ey (V/m) @ t=2.8
-0.028675438470418868
% es.Ez (V/m) @ t=2.8
-0.678198352841477
% es.tEx (V/m) @ t=2.8
0.8930649872683982
% es.tEy (V/m) @ t=2.8
0
% es.tEz (V/m) @ t=2.8
-0.6781983528414799
% V (V) @ t=2.8
0.053050737895039245
% es.normE (V/m) @ t=2.9
1.1616483200877314
% es.EX (V/m) @ t=2.9
0.9248234061655722
% es.EY (V/m) @ t=2.9
-0.02969519717939706
% es.EZ (V/m) @ t=2.9
-0.7023152299611866
% es.tEX (V/m) @ t=2.9
0.9248234061655888
% es.tEY (V/m) @ t=2.9
0
% es.tEZ (V/m) @ t=2.9
-0.7023152299611899
% es.Ex (V/m) @ t=2.9
0.9248234061655722
% es.Ey (V/m) @ t=2.9
-0.02969519717939706
% es.Ez (V/m) @ t=2.9
-0.7023152299611866
% es.tEx (V/m) @ t=2.9
0.9248234061655888
% es.tEy (V/m) @ t=2.9
0
% es.tEz (V/m) @ t=2.9
-0.7023152299611899
% V (V) @ t=2.9
0.05493788591672173
% es.normE (V/m) @ t=3
1.2009649701475729
% es.EX (V/m) @ t=3
0.9561249913518424
% es.EY (V/m) @ t=3
-0.030700297474373972
% es.EZ (V/m) @ t=3
-0.726084948314579
% es.tEX (V/m) @ t=3
0.9561249913518688
% es.tEY (V/m) @ t=3
0
% es.tEZ (V/m) @ t=3
-0.726084948314583
% es.Ex (V/m) @ t=3
0.9561249913518424
% es.Ey (V/m) @ t=3
-0.030700297474373972
% es.Ez (V/m) @ t=3
-0.726084948314579
% es.tEx (V/m) @ t=3
0.9561249913518688
% es.tEy (V/m) @ t=3
0
% es.tEz (V/m) @ t=3
-0.726084948314583
% V (V) @ t=3
0.05679812095095046
% es.normE (V/m) @ t=3.1
1.239622359592679
% es.EX (V/m) @ t=3.1
0.9869017353926708
% es.EY (V/m) @ t=3.1
-0.03168854707871649
% es.EZ (V/m) @ t=3.1
-0.7494560661340302
% es.tEX (V/m) @ t=3.1
0.98690173539269
% es.tEY (V/m) @ t=3.1
0
% es.tEZ (V/m) @ t=3.1
-0.7494560661340093
% es.Ex (V/m) @ t=3.1
0.9869017353926708
% es.Ey (V/m) @ t=3.1
-0.03168854707871649
% es.Ez (V/m) @ t=3.1
-0.7494560661340302
% es.tEx (V/m) @ t=3.1
0.98690173539269
% es.tEy (V/m) @ t=3.1
0
% es.tEz (V/m) @ t=3.1
-0.7494560661340093
% V (V) @ t=3.1
0.058627209031879415
% es.normE (V/m) @ t=3.2
1.2775213256519442
% es.EX (V/m) @ t=3.2
1.0170746201076426
% es.EY (V/m) @ t=3.2
-0.03265740246786386
% es.EZ (V/m) @ t=3.2
-0.7723687258637852
% es.tEX (V/m) @ t=3.2
1.0170746201076706
% es.tEY (V/m) @ t=3.2
0
% es.tEZ (V/m) @ t=3.2
-0.7723687258637841
% es.Ex (V/m) @ t=3.2
1.0170746201076426
% es.Ey (V/m) @ t=3.2
-0.03265740246786386
% es.Ez (V/m) @ t=3.2
-0.7723687258637852
% es.tEx (V/m) @ t=3.2
1.0170746201076706
% es.tEy (V/m) @ t=3.2
0
% es.tEz (V/m) @ t=3.2
-0.7723687258637841
% V (V) @ t=3.2
0.06042031377578477
% es.normE (V/m) @ t=3.3
1.3145051801853824
% es.EX (V/m) @ t=3.3
1.0465189376400446
% es.EY (V/m) @ t=3.3
-0.03360286259759615
% es.EZ (V/m) @ t=3.3
-0.7947281481866639
% es.tEX (V/m) @ t=3.3
1.0465189376400619
% es.tEY (V/m) @ t=3.3
0
% es.tEZ (V/m) @ t=3.3
-0.7947281481866644
% es.Ex (V/m) @ t=3.3
1.0465189376400446
% es.Ey (V/m) @ t=3.3
-0.03360286259759615
% es.Ez (V/m) @ t=3.3
-0.7947281481866639
% es.tEx (V/m) @ t=3.3
1.0465189376400619
% es.tEy (V/m) @ t=3.3
0
% es.tEz (V/m) @ t=3.3
-0.7947281481866644
% V (V) @ t=3.3
0.06217009903384242
% es.normE (V/m) @ t=3.4
1.3504467218060323
% es.EX (V/m) @ t=3.4
1.0751334000646935
% es.EY (V/m) @ t=3.4
-0.034521673529506636
% es.EZ (V/m) @ t=3.4
-0.8164574542244765
% es.tEX (V/m) @ t=3.4
1.0751334000646997
% es.tEY (V/m) @ t=3.4
0
% es.tEZ (V/m) @ t=3.4
-0.8164574542244876
% es.Ex (V/m) @ t=3.4
1.0751334000646935
% es.Ey (V/m) @ t=3.4
-0.034521673529506636
% es.Ez (V/m) @ t=3.4
-0.8164574542244765
% es.tEx (V/m) @ t=3.4
1.0751334000646997
% es.tEy (V/m) @ t=3.4
0
% es.tEz (V/m) @ t=3.4
-0.8164574542244876
% V (V) @ t=3.4
0.0638705100041849
% es.normE (V/m) @ t=3.5
1.3852187491269123
% es.EX (V/m) @ t=3.5
1.1028167194564134
% es.EY (V/m) @ t=3.5
-0.03541058132488484
% es.EZ (V/m) @ t=3.5
-0.8374797650990473
% es.tEX (V/m) @ t=3.5
1.102816719456434
% es.tEY (V/m) @ t=3.5
0
% es.tEZ (V/m) @ t=3.5
-0.8374797650990489
% es.Ex (V/m) @ t=3.5
1.1028167194564134
% es.Ey (V/m) @ t=3.5
-0.03541058132488484
% es.Ez (V/m) @ t=3.5
-0.8374797650990473
% es.tEx (V/m) @ t=3.5
1.102816719456434
% es.tEy (V/m) @ t=3.5
0
% es.tEz (V/m) @ t=3.5
-0.8374797650990489
% V (V) @ t=3.5
0.06551549188494468
% es.normE (V/m) @ t=3.6
1.4186940607611673
% es.EX (V/m) @ t=3.6
1.1294676078901915
% es.EY (V/m) @ t=3.6
-0.03626633204518992
% es.EZ (V/m) @ t=3.6
-0.8577182019322009
% es.tEX (V/m) @ t=3.6
1.1294676078902133
% es.tEY (V/m) @ t=3.6
0
% es.tEZ (V/m) @ t=3.6
-0.8577182019322267
% es.Ex (V/m) @ t=3.6
1.1294676078901915
% es.Ey (V/m) @ t=3.6
-0.03626633204518992
% es.Ez (V/m) @ t=3.6
-0.8577182019322009
% es.tEx (V/m) @ t=3.6
1.1294676078902133
% es.tEy (V/m) @ t=3.6
0
% es.tEz (V/m) @ t=3.6
-0.8577182019322267
% V (V) @ t=3.6
0.06709898987425433
% es.normE (V/m) @ t=3.7
1.4507454553217538
% es.EX (V/m) @ t=3.7
1.1549847774407453
% es.EY (V/m) @ t=3.7
-0.037085671751880156
% es.EZ (V/m) @ t=3.7
-0.877095885845776
% es.tEX (V/m) @ t=3.7
1.1549847774407596
% es.tEY (V/m) @ t=3.7
0
% es.tEZ (V/m) @ t=3.7
-0.87709588584576
% es.Ex (V/m) @ t=3.7
1.1549847774407453
% es.Ey (V/m) @ t=3.7
-0.037085671751880156
% es.Ez (V/m) @ t=3.7
-0.877095885845776
% es.tEx (V/m) @ t=3.7
1.1549847774407596
% es.tEy (V/m) @ t=3.7
0
% es.tEz (V/m) @ t=3.7
-0.87709588584576
% V (V) @ t=3.7
0.06861494917024637
% es.normE (V/m) @ t=3.8
1.4812457314219127
% es.EX (V/m) @ t=3.8
1.1792669401831404
% es.EY (V/m) @ t=3.8
-0.037865346506403164
% es.EZ (V/m) @ t=3.8
-0.8955359379615544
% es.tEX (V/m) @ t=3.8
1.1792669401831215
% es.tEY (V/m) @ t=3.8
0
% es.tEZ (V/m) @ t=3.8
-0.8955359379615568
% es.Ex (V/m) @ t=3.8
1.1792669401831404
% es.Ey (V/m) @ t=3.8
-0.037865346506403164
% es.Ez (V/m) @ t=3.8
-0.8955359379615544
% es.tEx (V/m) @ t=3.8
1.1792669401831215
% es.tEy (V/m) @ t=3.8
0
% es.tEz (V/m) @ t=3.8
-0.8955359379615568
% V (V) @ t=3.8
0.07005731497105325
% es.normE (V/m) @ t=3.9
1.511498332347226
% es.EX (V/m) @ t=3.9
1.203352259413947
% es.EY (V/m) @ t=3.9
-0.03863873066890733
% es.EZ (V/m) @ t=3.9
-0.9138258022971826
% es.tEX (V/m) @ t=3.9
1.2033522594139814
% es.tEY (V/m) @ t=3.9
0
% es.tEZ (V/m) @ t=3.9
-0.9138258022971792
% es.Ex (V/m) @ t=3.9
1.203352259413947
% es.Ey (V/m) @ t=3.9
-0.03863873066890733
% es.Ez (V/m) @ t=3.9
-0.9138258022971826
% es.tEx (V/m) @ t=3.9
1.2033522594139814
% es.tEy (V/m) @ t=3.9
0
% es.tEz (V/m) @ t=3.9
-0.9138258022971792
% V (V) @ t=3.9
0.07148865894957585
% es.normE (V/m) @ t=4
1.5408132949399789
% es.EX (V/m) @ t=4
1.2266912299813129
% es.EY (V/m) @ t=4
-0.0393881621064196
% es.EZ (V/m) @ t=4
-0.9315486078764792
% es.tEX (V/m) @ t=4
1.2266912299813262
% es.tEY (V/m) @ t=4
0
% es.tEZ (V/m) @ t=4
-0.9315486078764996
% es.Ex (V/m) @ t=4
1.2266912299813129
% es.Ey (V/m) @ t=4
-0.0393881621064196
% es.Ez (V/m) @ t=4
-0.9315486078764792
% es.tEx (V/m) @ t=4
1.2266912299813262
% es.tEy (V/m) @ t=4
0
% es.tEz (V/m) @ t=4
-0.9315486078764996
% V (V) @ t=4
0.0728759312315637
% es.normE (V/m) @ t=4.1
1.5689702416408278
% es.EX (V/m) @ t=4.1
1.2491083528678786
% es.EY (V/m) @ t=4.1
-0.040108001323533315
% es.EZ (V/m) @ t=4.1
-0.9485711835070703
% es.tEX (V/m) @ t=4.1
1.2491083528679077
% es.tEY (V/m) @ t=4.1
0
% es.tEZ (V/m) @ t=4.1
-0.9485711835070452
% es.Ex (V/m) @ t=4.1
1.2491083528678786
% es.Ey (V/m) @ t=4.1
-0.040108001323533315
% es.Ez (V/m) @ t=4.1
-0.9485711835070703
% es.tEx (V/m) @ t=4.1
1.2491083528679077
% es.tEy (V/m) @ t=4.1
0
% es.tEz (V/m) @ t=4.1
-0.9485711835070452
% V (V) @ t=4.1
0.07420860745510909
% es.normE (V/m) @ t=4.2
1.5959354300938486
% es.EX (V/m) @ t=4.2
1.2705767765258713
% es.EY (V/m) @ t=4.2
-0.04079738718071724
% es.EZ (V/m) @ t=4.2
-0.9648731135134767
% es.tEX (V/m) @ t=4.2
1.2705767765258758
% es.tEY (V/m) @ t=4.2
0
% es.tEZ (V/m) @ t=4.2
-0.9648731135134709
% es.Ex (V/m) @ t=4.2
1.2705767765258713
% es.Ey (V/m) @ t=4.2
-0.04079738718071724
% es.Ez (V/m) @ t=4.2
-0.9648731135134767
% es.tEx (V/m) @ t=4.2
1.2705767765258758
% es.tEy (V/m) @ t=4.2
0
% es.tEz (V/m) @ t=4.2
-0.9648731135134709
% V (V) @ t=4.2
0.0754851159467807
% es.normE (V/m) @ t=4.3
1.6216751179430375
% es.EX (V/m) @ t=4.3
1.2910696494073903
% es.EY (V/m) @ t=4.3
-0.04145545853820298
% es.EZ (V/m) @ t=4.3
-0.9804339822201342
% es.tEX (V/m) @ t=4.3
1.2910696494074372
% es.tEY (V/m) @ t=4.3
0
% es.tEZ (V/m) @ t=4.3
-0.9804339822201329
% es.Ex (V/m) @ t=4.3
1.2910696494073903
% es.Ey (V/m) @ t=4.3
-0.04145545853820298
% es.Ez (V/m) @ t=4.3
-0.9804339822201342
% es.tEx (V/m) @ t=4.3
1.2910696494074372
% es.tEy (V/m) @ t=4.3
0
% es.tEz (V/m) @ t=4.3
-0.9804339822201329
% V (V) @ t=4.3
0.07670388503314726
% es.normE (V/m) @ t=4.4
1.646155562832902
% es.EX (V/m) @ t=4.4
1.3105601199649612
% es.EY (V/m) @ t=4.4
-0.04208135425689097
% es.EZ (V/m) @ t=4.4
-0.995233373951578
% es.tEX (V/m) @ t=4.4
1.3105601199649695
% es.tEY (V/m) @ t=4.4
0
% es.tEZ (V/m) @ t=4.4
-0.9952333739515731
% es.Ex (V/m) @ t=4.4
1.3105601199649612
% es.Ey (V/m) @ t=4.4
-0.04208135425689097
% es.Ez (V/m) @ t=4.4
-0.995233373951578
% es.tEx (V/m) @ t=4.4
1.3105601199649695
% es.tEy (V/m) @ t=4.4
0
% es.tEz (V/m) @ t=4.4
-0.9952333739515731
% V (V) @ t=4.4
0.07786334304077759
% es.normE (V/m) @ t=4.5
1.669343022407726
% es.EX (V/m) @ t=4.5
1.3290213366507544
% es.EY (V/m) @ t=4.5
-0.04267421319719933
% es.EZ (V/m) @ t=4.5
-1.009250873032272
% es.tEX (V/m) @ t=4.5
1.3290213366508214
% es.tEY (V/m) @ t=4.5
0
% es.tEZ (V/m) @ t=4.5
-1.0092508730322751
% es.Ex (V/m) @ t=4.5
1.3290213366507544
% es.Ey (V/m) @ t=4.5
-0.04267421319719933
% es.Ez (V/m) @ t=4.5
-1.009250873032272
% es.tEx (V/m) @ t=4.5
1.3290213366508214
% es.tEy (V/m) @ t=4.5
0
% es.tEz (V/m) @ t=4.5
-1.0092508730322751
% V (V) @ t=4.5
0.07896191829624039
% es.normE (V/m) @ t=4.6
1.6913022288807964
% es.EX (V/m) @ t=4.6
1.3465046881540275
% es.EY (V/m) @ t=4.6
-0.043235672453828755
% es.EZ (V/m) @ t=4.6
-1.0225258093680765
% es.tEX (V/m) @ t=4.6
1.3465046881540625
% es.tEY (V/m) @ t=4.6
0
% es.tEZ (V/m) @ t=4.6
-1.0225258093680591
% es.Ex (V/m) @ t=4.6
1.3465046881540275
% es.Ey (V/m) @ t=4.6
-0.043235672453828755
% es.Ez (V/m) @ t=4.6
-1.0225258093680765
% es.tEx (V/m) @ t=4.6
1.3465046881540625
% es.tEy (V/m) @ t=4.6
0
% es.tEz (V/m) @ t=4.6
-1.0225258093680591
% V (V) @ t=4.6
0.08000237241272656
% es.normE (V/m) @ t=4.7
1.7126178362917026
% es.EX (V/m) @ t=4.7
1.3634746526297619
% es.EY (V/m) @ t=4.7
-0.043780559192011737
% es.EZ (V/m) @ t=4.7
-1.03541295503652
% es.tEX (V/m) @ t=4.7
1.3634746526297843
% es.tEY (V/m) @ t=4.7
0
% es.tEZ (V/m) @ t=4.7
-1.0354129550365165
% es.Ex (V/m) @ t=4.7
1.3634746526297619
% es.Ey (V/m) @ t=4.7
-0.043780559192011737
% es.Ez (V/m) @ t=4.7
-1.03541295503652
% es.tEx (V/m) @ t=4.7
1.3634746526297843
% es.tEy (V/m) @ t=4.7
0
% es.tEz (V/m) @ t=4.7
-1.0354129550365165
% V (V) @ t=4.7
0.08101034570523373
% es.normE (V/m) @ t=4.8
1.732827268434354
% es.EX (V/m) @ t=4.8
1.3795636604906178
% es.EY (V/m) @ t=4.8
-0.04429713304313143
% es.EZ (V/m) @ t=4.8
-1.0476317162474373
% es.tEX (V/m) @ t=4.8
1.379563660490646
% es.tEY (V/m) @ t=4.8
0
% es.tEZ (V/m) @ t=4.8
-1.0476317162474311
% es.Ex (V/m) @ t=4.8
1.3795636604906178
% es.Ey (V/m) @ t=4.8
-0.04429713304313143
% es.Ez (V/m) @ t=4.8
-1.0476317162474373
% es.tEx (V/m) @ t=4.8
1.379563660490646
% es.tEy (V/m) @ t=4.8
0
% es.tEz (V/m) @ t=4.8
-1.0476317162474311
% V (V) @ t=4.8
0.08196539604470897
% es.normE (V/m) @ t=4.9
1.7519292868204897
% es.EX (V/m) @ t=4.9
1.394770685234846
% es.EY (V/m) @ t=4.9
-0.044785357469340425
% es.EZ (V/m) @ t=4.9
-1.0591813977715105
% es.tEX (V/m) @ t=4.9
1.3947706852348816
% es.tEY (V/m) @ t=4.9
0
% es.tEZ (V/m) @ t=4.9
-1.059181397771516
% es.Ex (V/m) @ t=4.9
1.394770685234846
% es.Ey (V/m) @ t=4.9
-0.044785357469340425
% es.Ez (V/m) @ t=4.9
-1.0591813977715105
% es.tEx (V/m) @ t=4.9
1.3947706852348816
% es.tEy (V/m) @ t=4.9
0
% es.tEz (V/m) @ t=4.9
-1.059181397771516
% V (V) @ t=4.9
0.08286738206174075
% es.normE (V/m) @ t=5
1.7699226529621168
% es.EX (V/m) @ t=5
1.409094700360356
% es.EY (V/m) @ t=5
-0.0452451959323934
% es.EZ (V/m) @ t=5
-1.0700613043792657
% es.tEX (V/m) @ t=5
1.409094700360327
% es.tEY (V/m) @ t=5
0
% es.tEZ (V/m) @ t=5
-1.070061304379257
% es.Ex (V/m) @ t=5
1.409094700360356
% es.Ey (V/m) @ t=5
-0.0452451959323934
% es.Ez (V/m) @ t=5
-1.0700613043792657
% es.tEx (V/m) @ t=5
1.409094700360327
% es.tEy (V/m) @ t=5
0
% es.tEz (V/m) @ t=5
-1.070061304379257
% V (V) @ t=5
0.08371616238691765
% es.normE (V/m) @ t=5.1
1.7868061283724075
% es.EX (V/m) @ t=5.1
1.4225346793654126
% es.EY (V/m) @ t=5.1
-0.0456766118944385
% es.EZ (V/m) @ t=5.1
-1.0802707408412857
% es.tEX (V/m) @ t=5.1
1.4225346793654434
% es.tEY (V/m) @ t=5.1
0
% es.tEZ (V/m) @ t=5.1
-1.080270740841268
% es.Ex (V/m) @ t=5.1
1.4225346793654126
% es.Ey (V/m) @ t=5.1
-0.0456766118944385
% es.Ez (V/m) @ t=5.1
-1.0802707408412857
% es.tEx (V/m) @ t=5.1
1.4225346793654434
% es.tEy (V/m) @ t=5.1
0
% es.tEz (V/m) @ t=5.1
-1.080270740841268
% V (V) @ t=5.1
0.08451159565082812
% es.normE (V/m) @ t=5.2
1.8025784745653994
% es.EX (V/m) @ t=5.2
1.435089595748039
% es.EY (V/m) @ t=5.2
-0.04607956881747022
% es.EZ (V/m) @ t=5.2
-1.0898090119281676
% es.tEX (V/m) @ t=5.2
1.4350895957480676
% es.tEY (V/m) @ t=5.2
0
% es.tEZ (V/m) @ t=5.2
-1.0898090119281771
% es.Ex (V/m) @ t=5.2
1.435089595748039
% es.Ey (V/m) @ t=5.2
-0.04607956881747022
% es.Ez (V/m) @ t=5.2
-1.0898090119281676
% es.tEx (V/m) @ t=5.2
1.4350895957480676
% es.tEy (V/m) @ t=5.2
0
% es.tEz (V/m) @ t=5.2
-1.0898090119281771
% V (V) @ t=5.2
0.08525354048406067
% es.normE (V/m) @ t=5.3
1.8172224934017611
% es.EX (V/m) @ t=5.3
1.446746295455057