% Model:              1 neuron.mph
% Version:            COMSOL 6.1.0.252
% Date:               Mar 26 2023, 14:31
% Dimension:          0
% Nodes:              14017
% Expressions:        14017
% Description:        Electric field norm, Electric field, X component, Electric field, Y component, Electric field, Z component, Tangential electric field, X component, Tangential electric field, Y component, Tangential electric field, Z component, Electric field, x component, Electric field, y component, Electric field, z component, Tangential electric field, x component, Tangential electric field, y component, Tangential electric field, z component, Electric potential
% Length unit:        mm
% x
1.33
% y
14.200000000000003
% z
1.3300000000000003
% es.normE (V/m) @ t=0
0.01670587375961713
% es.EX (V/m) @ t=0
0.010519383943699667
% es.EY (V/m) @ t=0
0.007186858588569489
% es.EZ (V/m) @ t=0
0.010806379742781702
% es.tEX (V/m) @ t=0
0.010519383943700777
% es.tEY (V/m) @ t=0
0
% es.tEZ (V/m) @ t=0
0.010806379742782646
% es.Ex (V/m) @ t=0
0.010519383943699667
% es.Ey (V/m) @ t=0
0.007186858588569489
% es.Ez (V/m) @ t=0
0.010806379742781702
% es.tEx (V/m) @ t=0
0.010519383943700777
% es.tEy (V/m) @ t=0
0
% es.tEz (V/m) @ t=0
0.010806379742782646
% V (V) @ t=0
0.007236731785661087
% es.normE (V/m) @ t=0.02
0.015299099868968349
% es.EX (V/m) @ t=0.02
0.009633560540791564
% es.EY (V/m) @ t=0.02
0.006581665916393087
% es.EZ (V/m) @ t=0.02
0.009896395397949731
% es.tEX (V/m) @ t=0.02
0.009633560540793784
% es.tEY (V/m) @ t=0.02
0
% es.tEZ (V/m) @ t=0.02
0.009896395397952062
% es.Ex (V/m) @ t=0.02
0.009633560540791564
% es.Ey (V/m) @ t=0.02
0.006581665916393087
% es.Ez (V/m) @ t=0.02
0.009896395397949731
% es.tEx (V/m) @ t=0.02
0.009633560540793784
% es.tEy (V/m) @ t=0.02
0
% es.tEz (V/m) @ t=0.02
0.009896395397952062
% V (V) @ t=0.02
0.006627337579282403
% es.normE (V/m) @ t=0.04
0.015439498813313551
% es.EX (V/m) @ t=0.04
0.009721964221233836
% es.EY (V/m) @ t=0.04
0.006642066077771069
% es.EZ (V/m) @ t=0.04
0.009987216504406149
% es.tEX (V/m) @ t=0.04
0.009721964221236501
% es.tEY (V/m) @ t=0.04
0
% es.tEZ (V/m) @ t=0.04
0.009987216504408813
% es.Ex (V/m) @ t=0.04
0.009721964221233836
% es.Ey (V/m) @ t=0.04
0.006642066077771069
% es.Ez (V/m) @ t=0.04
0.009987216504406149
% es.tEx (V/m) @ t=0.04
0.009721964221236501
% es.tEy (V/m) @ t=0.04
0
% es.tEz (V/m) @ t=0.04
0.009987216504408813
% V (V) @ t=0.04
0.0066881553839302065
% es.normE (V/m) @ t=0.06
0.015581609313692684
% es.EX (V/m) @ t=0.06
0.009811458395578176
% es.EY (V/m) @ t=0.06
0.006703199809765081
% es.EZ (V/m) @ t=0.06
0.010079134152632285
% es.tEX (V/m) @ t=0.06
0.009811458395579953
% es.tEY (V/m) @ t=0.06
0
% es.tEZ (V/m) @ t=0.06
0.010079134152634062
% es.Ex (V/m) @ t=0.06
0.009811458395578176
% es.Ey (V/m) @ t=0.06
0.006703199809765081
% es.Ez (V/m) @ t=0.06
0.010079134152632285
% es.tEx (V/m) @ t=0.06
0.009811458395579953
% es.tEy (V/m) @ t=0.06
0
% es.tEz (V/m) @ t=0.06
0.010079134152634062
% V (V) @ t=0.06
0.006749718328306329
% es.normE (V/m) @ t=0.08
0.015724846686597214
% es.EX (V/m) @ t=0.08
0.009901650740198109
% es.EY (V/m) @ t=0.08
0.006764820852815934
% es.EZ (V/m) @ t=0.08
0.01017179014556574
% es.tEX (V/m) @ t=0.08
0.00990165074020144
% es.tEY (V/m) @ t=0.08
0
% es.tEZ (V/m) @ t=0.08
0.010171790145568238
% es.Ex (V/m) @ t=0.08
0.009901650740198109
% es.Ey (V/m) @ t=0.08
0.006764820852815934
% es.Ez (V/m) @ t=0.08
0.01017179014556574
% es.tEx (V/m) @ t=0.08
0.00990165074020144
% es.tEy (V/m) @ t=0.08
0
% es.tEz (V/m) @ t=0.08
0.010171790145568238
% V (V) @ t=0.08
0.006811766160780875
% es.normE (V/m) @ t=0.1
0.015871032777001498
% es.EX (V/m) @ t=0.1
0.009993670005645772
% es.EY (V/m) @ t=0.1
0.006827717055715832
% es.EZ (V/m) @ t=0.1
0.010266378184832226
% es.tEX (V/m) @ t=0.1
0.00999367000564888
% es.tEY (V/m) @ t=0.1
0
% es.tEZ (V/m) @ t=0.1
0.010266378184832448
% es.Ex (V/m) @ t=0.1
0.009993670005645772
% es.Ey (V/m) @ t=0.1
0.006827717055715832
% es.Ez (V/m) @ t=0.1
0.010266378184832226
% es.tEx (V/m) @ t=0.1
0.00999367000564888
% es.tEy (V/m) @ t=0.1
0
% es.tEz (V/m) @ t=0.1
0.010266378184832448
% V (V) @ t=0.1
0.006875082812899913
% es.normE (V/m) @ t=0.12
0.016017218867511895
% es.EX (V/m) @ t=0.12
0.010085689271096987
% es.EY (V/m) @ t=0.12
0.006890613258602851
% es.EZ (V/m) @ t=0.12
0.01036096622410404
% es.tEX (V/m) @ t=0.12
0.01008568927109943
% es.tEY (V/m) @ t=0.12
0
% es.tEZ (V/m) @ t=0.12
0.010360966224105539
% es.Ex (V/m) @ t=0.12
0.010085689271096987
% es.Ey (V/m) @ t=0.12
0.006890613258602851
% es.Ez (V/m) @ t=0.12
0.01036096622410404
% es.tEx (V/m) @ t=0.12
0.01008568927109943
% es.tEy (V/m) @ t=0.12
0
% es.tEz (V/m) @ t=0.12
0.010360966224105539
% V (V) @ t=0.12
0.006938399465018954
% es.normE (V/m) @ t=0.14
0.01616340495812096
% es.EX (V/m) @ t=0.14
0.010177708536541097
% es.EY (V/m) @ t=0.14
0.006953509461500751
% es.EZ (V/m) @ t=0.14
0.010455554263368694
% es.tEX (V/m) @ t=0.14
0.010177708536544428
% es.tEY (V/m) @ t=0.14
0
% es.tEZ (V/m) @ t=0.14
0.010455554263371525
% es.Ex (V/m) @ t=0.14
0.010177708536541097
% es.Ey (V/m) @ t=0.14
0.006953509461500751
% es.Ez (V/m) @ t=0.14
0.010455554263368694
% es.tEx (V/m) @ t=0.14
0.010177708536544428
% es.tEy (V/m) @ t=0.14
0
% es.tEz (V/m) @ t=0.14
0.010455554263371525
% V (V) @ t=0.14
0.007001716117137994
% es.normE (V/m) @ t=0.16
0.01631444715302232
% es.EX (V/m) @ t=0.16
0.010272818814002882
% es.EY (V/m) @ t=0.16
0.007018487313196875
% es.EZ (V/m) @ t=0.16
0.010553256149545553
% es.tEX (V/m) @ t=0.16
0.010272818814005547
% es.tEY (V/m) @ t=0.16
0
% es.tEZ (V/m) @ t=0.16
0.01055325614954672
% es.Ex (V/m) @ t=0.16
0.010272818814002882
% es.Ey (V/m) @ t=0.16
0.007018487313196875
% es.Ez (V/m) @ t=0.16
0.010553256149545553
% es.tEx (V/m) @ t=0.16
0.010272818814005547
% es.tEy (V/m) @ t=0.16
0
% es.tEz (V/m) @ t=0.16
0.01055325614954672
% V (V) @ t=0.16
0.007067145786463565
% es.normE (V/m) @ t=0.18
0.016469329197977188
% es.EX (V/m) @ t=0.18
0.010370373236394004
% es.EY (V/m) @ t=0.18
0.0070851111796084165
% es.EZ (V/m) @ t=0.18
0.010653420236797884
% es.tEX (V/m) @ t=0.18
0.010370373236395336
% es.tEY (V/m) @ t=0.18
0
% es.tEZ (V/m) @ t=0.18
0.010653420236798716
% es.Ex (V/m) @ t=0.18
0.010370373236394004
% es.Ey (V/m) @ t=0.18
0.0070851111796084165
% es.Ez (V/m) @ t=0.18
0.010653420236797884
% es.tEx (V/m) @ t=0.18
0.010370373236395336
% es.tEy (V/m) @ t=0.18
0
% es.tEz (V/m) @ t=0.18
0.010653420236798716
% V (V) @ t=0.18
0.007134246274368623
% es.normE (V/m) @ t=0.2
0.016624211243029745
% es.EX (V/m) @ t=0.2
0.010467927658783127
% es.EY (V/m) @ t=0.2
0.007151735046036833
% es.EZ (V/m) @ t=0.2
0.01075358432405904
% es.tEX (V/m) @ t=0.2
0.010467927658786902
% es.tEY (V/m) @ t=0.2
0
% es.tEZ (V/m) @ t=0.2
0.010753584324059595
% es.Ex (V/m) @ t=0.2
0.010467927658783127
% es.Ey (V/m) @ t=0.2
0.007151735046036833
% es.Ez (V/m) @ t=0.2
0.01075358432405904
% es.tEx (V/m) @ t=0.2
0.010467927658786902
% es.tEy (V/m) @ t=0.2
0
% es.tEz (V/m) @ t=0.2
0.010753584324059595
% V (V) @ t=0.2
0.007201346762273682
% es.normE (V/m) @ t=0.22
0.01677909328816156
% es.EX (V/m) @ t=0.22
0.010565482081177802
% es.EY (V/m) @ t=0.22
0.007218358912455036
% es.EZ (V/m) @ t=0.22
0.010853748411314867
% es.tEX (V/m) @ t=0.22
0.010565482081178246
% es.tEY (V/m) @ t=0.22
0
% es.tEZ (V/m) @ t=0.22
0.010853748411316033
% es.Ex (V/m) @ t=0.22
0.010565482081177802
% es.Ey (V/m) @ t=0.22
0.007218358912455036
% es.Ez (V/m) @ t=0.22
0.010853748411314867
% es.tEx (V/m) @ t=0.22
0.010565482081178246
% es.tEy (V/m) @ t=0.22
0
% es.tEz (V/m) @ t=0.22
0.010853748411316033
% V (V) @ t=0.22
0.00726844725017874
% es.normE (V/m) @ t=0.24
0.016933975333375248
% es.EX (V/m) @ t=0.24
0.010663036503567147
% es.EY (V/m) @ t=0.24
0.007284982778877014
% es.EZ (V/m) @ t=0.24
0.010953912498574248
% es.tEX (V/m) @ t=0.24
0.010663036503569812
% es.tEY (V/m) @ t=0.24
0
% es.tEZ (V/m) @ t=0.24
0.010953912498571583
% es.Ex (V/m) @ t=0.24
0.010663036503567147
% es.Ey (V/m) @ t=0.24
0.007284982778877014
% es.Ez (V/m) @ t=0.24
0.010953912498574248
% es.tEx (V/m) @ t=0.24
0.010663036503569812
% es.tEy (V/m) @ t=0.24
0
% es.tEz (V/m) @ t=0.24
0.010953912498571583
% V (V) @ t=0.24
0.007335547738083797
% es.normE (V/m) @ t=0.26
0.017088857378666902
% es.EX (V/m) @ t=0.26
0.010760590925958047
% es.EY (V/m) @ t=0.26
0.0073516066452994355
% es.EZ (V/m) @ t=0.26
0.011054076585830075
% es.tEX (V/m) @ t=0.26
0.010760590925960267
% es.tEY (V/m) @ t=0.26
0
% es.tEZ (V/m) @ t=0.26
0.011054076585831574
% es.Ex (V/m) @ t=0.26
0.010760590925958047
% es.Ey (V/m) @ t=0.26
0.0073516066452994355
% es.Ez (V/m) @ t=0.26
0.011054076585830075
% es.tEx (V/m) @ t=0.26
0.010760590925960267
% es.tEy (V/m) @ t=0.26
0
% es.tEz (V/m) @ t=0.26
0.011054076585831574
% V (V) @ t=0.26
0.007402648225988856
% es.normE (V/m) @ t=0.28
0.01724373942403279
% es.EX (V/m) @ t=0.28
0.010858145348349169
% es.EY (V/m) @ t=0.28
0.007418230511720525
% es.EZ (V/m) @ t=0.28
0.01115424067308235
% es.tEX (V/m) @ t=0.28
0.010858145348352721
% es.tEY (V/m) @ t=0.28
0
% es.tEZ (V/m) @ t=0.28
0.011154240673082683
% es.Ex (V/m) @ t=0.28
0.010858145348349169
% es.Ey (V/m) @ t=0.28
0.007418230511720525
% es.Ez (V/m) @ t=0.28
0.01115424067308235
% es.tEx (V/m) @ t=0.28
0.010858145348352721
% es.tEy (V/m) @ t=0.28
0
% es.tEz (V/m) @ t=0.28
0.011154240673082683
% V (V) @ t=0.28
0.007469748713893911
% es.normE (V/m) @ t=0.3
0.017399756251753266
% es.EX (V/m) @ t=0.3
0.010956407021860182
% es.EY (V/m) @ t=0.3
0.007485344203055799
% es.EZ (V/m) @ t=0.3
0.011255144821526675
% es.tEX (V/m) @ t=0.3
0.01095640702186107
% es.tEY (V/m) @ t=0.3
0
% es.tEZ (V/m) @ t=0.3
0.011255144821527452
% es.Ex (V/m) @ t=0.3
0.010956407021860182
% es.Ey (V/m) @ t=0.3
0.007485344203055799
% es.Ez (V/m) @ t=0.3
0.011255144821526675
% es.tEx (V/m) @ t=0.3
0.01095640702186107
% es.tEy (V/m) @ t=0.3
0
% es.tEz (V/m) @ t=0.3
0.011255144821527452
% V (V) @ t=0.3
0.007537338704801796
% es.normE (V/m) @ t=0.32
0.01756391609865689
% es.EX (V/m) @ t=0.32
0.011059743818109258
% es.EY (V/m) @ t=0.32
0.007555972800990185
% es.EZ (V/m) @ t=0.32
0.01136135953260653
% es.tEX (V/m) @ t=0.32
0.011059743818110812
% es.tEY (V/m) @ t=0.32
0
% es.tEZ (V/m) @ t=0.32
0.011361359532604531
% es.Ex (V/m) @ t=0.32
0.011059743818109258
% es.Ey (V/m) @ t=0.32
0.007555972800990185
% es.Ez (V/m) @ t=0.32
0.01136135953260653
% es.tEx (V/m) @ t=0.32
0.011059743818110812
% es.tEy (V/m) @ t=0.32
0
% es.tEz (V/m) @ t=0.32
0.011361359532604531
% V (V) @ t=0.32
0.00760844129223448
% es.normE (V/m) @ t=0.34
0.01772807594564958
% es.EX (V/m) @ t=0.34
0.011163080614351006
% es.EY (V/m) @ t=0.34
0.007626601398906585
% es.EZ (V/m) @ t=0.34
0.011467574243684497
% es.tEX (V/m) @ t=0.34
0.011163080614353671
% es.tEY (V/m) @ t=0.34
0
% es.tEZ (V/m) @ t=0.34
0.011467574243683387
% es.Ex (V/m) @ t=0.34
0.011163080614351006
% es.Ey (V/m) @ t=0.34
0.007626601398906585
% es.Ez (V/m) @ t=0.34
0.011467574243684497
% es.tEx (V/m) @ t=0.34
0.011163080614353671
% es.tEy (V/m) @ t=0.34
0
% es.tEz (V/m) @ t=0.34
0.011467574243683387
% V (V) @ t=0.34
0.007679543879667169
% es.normE (V/m) @ t=0.36
0.017892235792754292
% es.EX (V/m) @ t=0.36
0.011266417410601859
% es.EY (V/m) @ t=0.36
0.0076972299968298685
% es.EZ (V/m) @ t=0.36
0.011573788954767905
% es.tEX (V/m) @ t=0.36
0.011266417410602525
% es.tEY (V/m) @ t=0.36
0
% es.tEZ (V/m) @ t=0.36
0.011573788954765796
% es.Ex (V/m) @ t=0.36
0.011266417410601859
% es.Ey (V/m) @ t=0.36
0.0076972299968298685
% es.Ez (V/m) @ t=0.36
0.011573788954767905
% es.tEx (V/m) @ t=0.36
0.011266417410602525
% es.tEy (V/m) @ t=0.36
0
% es.tEz (V/m) @ t=0.36
0.011573788954765796
% V (V) @ t=0.36
0.007750646467099855
% es.normE (V/m) @ t=0.38
0.018056395639951803
% es.EX (V/m) @ t=0.38
0.011369754206847382
% es.EY (V/m) @ t=0.38
0.007767858594756483
% es.EZ (V/m) @ t=0.38
0.01168000366584765
% es.tEX (V/m) @ t=0.38
0.011369754206847382
% es.tEY (V/m) @ t=0.38
0
% es.tEZ (V/m) @ t=0.38
0.011680003665844652
% es.Ex (V/m) @ t=0.38
0.011369754206847382
% es.Ey (V/m) @ t=0.38
0.007767858594756483
% es.Ez (V/m) @ t=0.38
0.01168000366584765
% es.tEx (V/m) @ t=0.38
0.011369754206847382
% es.tEy (V/m) @ t=0.38
0
% es.tEz (V/m) @ t=0.38
0.011680003665844652
% V (V) @ t=0.38
0.00782174905453254
% es.normE (V/m) @ t=0.4
0.018220555487243585
% es.EX (V/m) @ t=0.4
0.01147309100309446
% es.EY (V/m) @ t=0.4
0.00783848719268021
% es.EZ (V/m) @ t=0.4
0.011786218376927504
% es.tEX (V/m) @ t=0.4
0.011473091003098457
% es.tEY (V/m) @ t=0.4
0
% es.tEZ (V/m) @ t=0.4
0.011786218376927948
% es.Ex (V/m) @ t=0.4
0.01147309100309446
% es.Ey (V/m) @ t=0.4
0.00783848719268021
% es.Ez (V/m) @ t=0.4
0.011786218376927504
% es.tEx (V/m) @ t=0.4
0.011473091003098457
% es.tEy (V/m) @ t=0.4
0
% es.tEz (V/m) @ t=0.4
0.011786218376927948
% V (V) @ t=0.4
0.007892851641965227
% es.normE (V/m) @ t=0.42
0.018384715334624574
% es.EX (V/m) @ t=0.42
0.011576427799339983
% es.EY (V/m) @ t=0.42
0.007909115790597276
% es.EZ (V/m) @ t=0.42
0.01189243308800908
% es.tEX (V/m) @ t=0.42
0.011576427799340872
% es.tEY (V/m) @ t=0.42
0
% es.tEZ (V/m) @ t=0.42
0.011892433088002363
% es.Ex (V/m) @ t=0.42
0.011576427799339983
% es.Ey (V/m) @ t=0.42
0.007909115790597276
% es.Ez (V/m) @ t=0.42
0.01189243308800908
% es.tEx (V/m) @ t=0.42
0.011576427799340872
% es.tEy (V/m) @ t=0.42
0
% es.tEz (V/m) @ t=0.42
0.011892433088002363
% V (V) @ t=0.42
0.007963954229397911
% es.normE (V/m) @ t=0.44
0.018548875182089922
% es.EX (V/m) @ t=0.44
0.011679764595585507
% es.EY (V/m) @ t=0.44
0.00797974438851301
% es.EZ (V/m) @ t=0.44
0.011998647799083606
% es.tEX (V/m) @ t=0.44
0.011679764595588837
% es.tEY (V/m) @ t=0.44
0
% es.tEZ (V/m) @ t=0.44
0.011998647799083884
% es.Ex (V/m) @ t=0.44
0.011679764595585507
% es.Ey (V/m) @ t=0.44
0.00797974438851301
% es.Ez (V/m) @ t=0.44
0.011998647799083606
% es.tEx (V/m) @ t=0.44
0.011679764595588837
% es.tEy (V/m) @ t=0.44
0
% es.tEz (V/m) @ t=0.44
0.011998647799083884
% V (V) @ t=0.44
0.008035056816830598
% es.normE (V/m) @ t=0.46
0.018727600783977463
% es.EX (V/m) @ t=0.46
0.011792363434550035
% es.EY (V/m) @ t=0.46
0.008056619075987648
% es.EZ (V/m) @ t=0.46
0.01211421003681018
% es.tEX (V/m) @ t=0.46
0.011792363434551145
% es.tEY (V/m) @ t=0.46
0
% es.tEZ (V/m) @ t=0.46
0.012114210036806128
% es.Ex (V/m) @ t=0.46
0.011792363434550035
% es.Ey (V/m) @ t=0.46
0.008056619075987648
% es.Ez (V/m) @ t=0.46
0.01211421003681018
% es.tEx (V/m) @ t=0.46
0.011792363434551145
% es.tEy (V/m) @ t=0.46
0
% es.tEz (V/m) @ t=0.46
0.012114210036806128
% V (V) @ t=0.46
0.008112494800111909
% es.normE (V/m) @ t=0.48
0.01891298761519947
% es.EX (V/m) @ t=0.48
0.011909198002180377
% es.EY (V/m) @ t=0.48
0.008136350232757383
% es.EZ (V/m) @ t=0.48
0.012234047096830236
% es.tEX (V/m) @ t=0.48
0.011909198002183707
% es.tEY (V/m) @ t=0.48
0
% es.tEZ (V/m) @ t=0.48
0.012234047096832512
% es.Ex (V/m) @ t=0.48
0.011909198002180377
% es.Ey (V/m) @ t=0.48
0.008136350232757383
% es.Ez (V/m) @ t=0.48
0.012234047096830236
% es.tEx (V/m) @ t=0.48
0.011909198002183707
% es.tEy (V/m) @ t=0.48
0
% es.tEz (V/m) @ t=0.48
0.012234047096832512
% V (V) @ t=0.48
0.008192830094349393
% es.normE (V/m) @ t=0.5
0.019098374447332873
% es.EX (V/m) @ t=0.5
0.012026032569817602
% es.EY (V/m) @ t=0.5
0.008216081389533336
% es.EZ (V/m) @ t=0.5
0.012353884156846684
% es.tEX (V/m) @ t=0.5
0.012026032569817824
% es.tEY (V/m) @ t=0.5
0
% es.tEZ (V/m) @ t=0.5
0.01235388415684291
% es.Ex (V/m) @ t=0.5
0.012026032569817602
% es.Ey (V/m) @ t=0.5
0.008216081389533336
% es.Ez (V/m) @ t=0.5
0.012353884156846684
% es.tEx (V/m) @ t=0.5
0.012026032569817824
% es.tEy (V/m) @ t=0.5
0
% es.tEz (V/m) @ t=0.5
0.01235388415684291
% V (V) @ t=0.5
0.00827316538858687
% es.normE (V/m) @ t=0.52
0.01928376128034854
% es.EX (V/m) @ t=0.52
0.012142867137447722
% es.EY (V/m) @ t=0.52
0.008295812546312842
% es.EZ (V/m) @ t=0.52
0.012473721216870293
% es.tEX (V/m) @ t=0.52
0.012142867137449498
% es.tEY (V/m) @ t=0.52
0
% es.tEZ (V/m) @ t=0.52
0.012473721216867517
% es.Ex (V/m) @ t=0.52
0.012142867137447722
% es.Ey (V/m) @ t=0.52
0.008295812546312842
% es.Ez (V/m) @ t=0.52
0.012473721216870293
% es.tEx (V/m) @ t=0.52
0.012142867137449498
% es.tEy (V/m) @ t=0.52
0
% es.tEz (V/m) @ t=0.52
0.012473721216867517
% V (V) @ t=0.52
0.008353500682824352
% es.normE (V/m) @ t=0.54
0.019469148114206424
% es.EX (V/m) @ t=0.54
0.012259701705077841
% es.EY (V/m) @ t=0.54
0.008375543703075028
% es.EZ (V/m) @ t=0.54
0.01259355827688502
% es.tEX (V/m) @ t=0.54
0.012259701705081172
% es.tEY (V/m) @ t=0.54
0
% es.tEZ (V/m) @ t=0.54
0.012593558276892125
% es.Ex (V/m) @ t=0.54
0.012259701705077841
% es.Ey (V/m) @ t=0.54
0.008375543703075028
% es.Ez (V/m) @ t=0.54
0.01259355827688502
% es.tEx (V/m) @ t=0.54
0.012259701705081172
% es.tEy (V/m) @ t=0.54
0
% es.tEz (V/m) @ t=0.54
0.012593558276892125
% V (V) @ t=0.54
0.008433835977061835
% es.normE (V/m) @ t=0.56
0.019654534948901924
% es.EX (V/m) @ t=0.56
0.012376536272711514
% es.EY (V/m) @ t=0.56
0.00845527485984432
% es.EZ (V/m) @ t=0.56
0.012713395336901467
% es.tEX (V/m) @ t=0.56
0.012376536272716399
% es.tEY (V/m) @ t=0.56
0
% es.tEZ (V/m) @ t=0.56
0.012713395336900746
% es.Ex (V/m) @ t=0.56
0.012376536272711514
% es.Ey (V/m) @ t=0.56
0.00845527485984432
% es.Ez (V/m) @ t=0.56
0.012713395336901467
% es.tEx (V/m) @ t=0.56
0.012376536272716399
% es.tEy (V/m) @ t=0.56
0
% es.tEz (V/m) @ t=0.56
0.012713395336900746
% V (V) @ t=0.56
0.008514171271299316
% es.normE (V/m) @ t=0.58
0.019839921784417878
% es.EX (V/m) @ t=0.58
0.012493370840349183
% es.EY (V/m) @ t=0.58
0.008535006016620716
% es.EZ (V/m) @ t=0.58
0.012833232396928684
% es.tEX (V/m) @ t=0.58
0.012493370840348295
% es.tEY (V/m) @ t=0.58
0
% es.tEZ (V/m) @ t=0.58
0.012833232396930683
% es.Ex (V/m) @ t=0.58
0.012493370840349183
% es.Ey (V/m) @ t=0.58
0.008535006016620716
% es.Ez (V/m) @ t=0.58
0.012833232396928684
% es.tEx (V/m) @ t=0.58
0.012493370840348295
% es.tEy (V/m) @ t=0.58
0
% es.tEz (V/m) @ t=0.58
0.012833232396930683
% V (V) @ t=0.58
0.008594506565536793
% es.normE (V/m) @ t=0.6
0.020025308620707484
% es.EX (V/m) @ t=0.6
0.012610205407979302
% es.EY (V/m) @ t=0.6
0.008614737173396891
% es.EZ (V/m) @ t=0.6
0.012953069456945132
% es.tEX (V/m) @ t=0.6
0.012610205407979747
% es.tEY (V/m) @ t=0.6
0
% es.tEZ (V/m) @ t=0.6
0.012953069456946409
% es.Ex (V/m) @ t=0.6
0.012610205407979302
% es.Ey (V/m) @ t=0.6
0.008614737173396891
% es.Ez (V/m) @ t=0.6
0.012953069456945132
% es.tEx (V/m) @ t=0.6
0.012610205407979747
% es.tEy (V/m) @ t=0.6
0
% es.tEz (V/m) @ t=0.6
0.012953069456946409
% V (V) @ t=0.6
0.008674841859774275
% es.normE (V/m) @ t=0.62
0.020210695457755366
% es.EX (V/m) @ t=0.62
0.0127270399756092
% es.EY (V/m) @ t=0.62
0.008694468330163074
% es.EZ (V/m) @ t=0.62
0.013072906516959804
% es.tEX (V/m) @ t=0.62
0.012727039975610754
% es.tEY (V/m) @ t=0.62
0
% es.tEZ (V/m) @ t=0.62
0.013072906516960359
% es.Ex (V/m) @ t=0.62
0.0127270399756092
% es.Ey (V/m) @ t=0.62
0.008694468330163074
% es.Ez (V/m) @ t=0.62
0.013072906516959804
% es.tEx (V/m) @ t=0.62
0.012727039975610754
% es.tEy (V/m) @ t=0.62
0
% es.tEz (V/m) @ t=0.62
0.013072906516960359
% V (V) @ t=0.62
0.008755177154011758
% es.normE (V/m) @ t=0.64
0.02039608229554948
% es.EX (V/m) @ t=0.64
0.01284387454323932
% es.EY (V/m) @ t=0.64
0.008774199486928369
% es.EZ (V/m) @ t=0.64
0.013192743576979804
% es.tEX (V/m) @ t=0.64
0.01284387454324043
% es.tEY (V/m) @ t=0.64
0
% es.tEZ (V/m) @ t=0.64
0.013192743576979638
% es.Ex (V/m) @ t=0.64
0.01284387454323932
% es.Ey (V/m) @ t=0.64
0.008774199486928369
% es.Ez (V/m) @ t=0.64
0.013192743576979804
% es.tEx (V/m) @ t=0.64
0.01284387454324043
% es.tEy (V/m) @ t=0.64
0
% es.tEz (V/m) @ t=0.64
0.013192743576979638
% V (V) @ t=0.64
0.00883551244824924
% es.normE (V/m) @ t=0.66
0.020581469134076037
% es.EX (V/m) @ t=0.66
0.012960709110873214
% es.EY (V/m) @ t=0.66
0.008853930643702101
% es.EZ (V/m) @ t=0.66
0.013312580637005189
% es.tEX (V/m) @ t=0.66
0.012960709110876545
% es.tEY (V/m) @ t=0.66
0
% es.tEZ (V/m) @ t=0.66
0.013312580637000693
% es.Ex (V/m) @ t=0.66
0.012960709110873214
% es.Ey (V/m) @ t=0.66
0.008853930643702101
% es.Ez (V/m) @ t=0.66
0.013312580637005189
% es.tEx (V/m) @ t=0.66
0.012960709110876545
% es.tEy (V/m) @ t=0.66
0
% es.tEz (V/m) @ t=0.66
0.013312580637000693
% V (V) @ t=0.66
0.008915847742486719
% es.normE (V/m) @ t=0.68
0.020766855973303255
% es.EX (V/m) @ t=0.68
0.013077543678506887
% es.EY (V/m) @ t=0.68
0.008933661800485382
% es.EZ (V/m) @ t=0.68
0.013432417697019916
% es.tEX (V/m) @ t=0.68
0.013077543678507997
% es.tEY (V/m) @ t=0.68
0
% es.tEZ (V/m) @ t=0.68
0.013432417697021748
% es.Ex (V/m) @ t=0.68
0.013077543678506887
% es.Ey (V/m) @ t=0.68
0.008933661800485382
% es.Ez (V/m) @ t=0.68
0.013432417697019916
% es.tEx (V/m) @ t=0.68
0.013077543678507997
% es.tEy (V/m) @ t=0.68
0
% es.tEz (V/m) @ t=0.68
0.013432417697021748
% V (V) @ t=0.68
0.0089961830367242
% es.normE (V/m) @ t=0.7
0.02095224281320767
% es.EX (V/m) @ t=0.7
0.013194378246137006
% es.EY (V/m) @ t=0.7
0.009013392957250677
% es.EZ (V/m) @ t=0.7
0.01355225475703814
% es.tEX (V/m) @ t=0.7
0.01319437824614278
% es.tEY (V/m) @ t=0.7
0
% es.tEZ (V/m) @ t=0.7
0.01355225475703925
% es.Ex (V/m) @ t=0.7
0.013194378246137006
% es.Ey (V/m) @ t=0.7
0.009013392957250677
% es.Ez (V/m) @ t=0.7
0.01355225475703814
% es.tEx (V/m) @ t=0.7
0.01319437824614278
% es.tEy (V/m) @ t=0.7
0
% es.tEz (V/m) @ t=0.7
0.01355225475703925
% V (V) @ t=0.7
0.00907651833096168
% es.normE (V/m) @ t=0.72
0.02113762965378382
% es.EX (V/m) @ t=0.72
0.013311212813774453
% es.EY (V/m) @ t=0.72
0.009093124114016415
% es.EZ (V/m) @ t=0.72
0.01367209181705642
% es.tEX (V/m) @ t=0.72
0.013311212813773565
% es.tEY (V/m) @ t=0.72
0
% es.tEZ (V/m) @ t=0.72
0.013672091817056753
% es.Ex (V/m) @ t=0.72
0.013311212813774453
% es.Ey (V/m) @ t=0.72
0.009093124114016415
% es.Ez (V/m) @ t=0.72
0.01367209181705642
% es.tEx (V/m) @ t=0.72
0.013311212813773565
% es.tEy (V/m) @ t=0.72
0
% es.tEz (V/m) @ t=0.72
0.013672091817056753
% V (V) @ t=0.72
0.009156853625199163
% es.normE (V/m) @ t=0.74
0.021323016495007653
% es.EX (V/m) @ t=0.74
0.01342804738140635
% es.EY (V/m) @ t=0.74
0.009172855270788816
% es.EZ (V/m) @ t=0.74
0.013791928877072868
% es.tEX (V/m) @ t=0.74
0.013428047381407682
% es.tEY (V/m) @ t=0.74
0
% es.tEZ (V/m) @ t=0.74
0.013791928877076032
% es.Ex (V/m) @ t=0.74
0.01342804738140635
% es.Ey (V/m) @ t=0.74
0.009172855270788816
% es.Ez (V/m) @ t=0.74
0.013791928877072868
% es.tEx (V/m) @ t=0.74
0.013428047381407682
% es.tEy (V/m) @ t=0.74
0
% es.tEz (V/m) @ t=0.74
0.013791928877076032
% V (V) @ t=0.74
0.009237188919436642
% es.normE (V/m) @ t=0.76
0.021526025110365575
% es.EX (V/m) @ t=0.76
0.01355581624370017
% es.EY (V/m) @ t=0.76
0.009260203235274655
% es.EZ (V/m) @ t=0.76
0.013923298426038733
% es.tEX (V/m) @ t=0.76
0.013555816243699947
% es.tEY (V/m) @ t=0.76
0
% es.tEZ (V/m) @ t=0.76
0.013923298426043118
% es.Ex (V/m) @ t=0.76
0.01355581624370017
% es.Ey (V/m) @ t=0.76
0.009260203235274655
% es.Ez (V/m) @ t=0.76
0.013923298426038733
% es.tEx (V/m) @ t=0.76
0.013555816243699947
% es.tEy (V/m) @ t=0.76
0
% es.tEz (V/m) @ t=0.76
0.013923298426043118
% V (V) @ t=0.76
0.00932511148666146
% es.normE (V/m) @ t=0.78
0.02173306169474572
% es.EX (V/m) @ t=0.78
0.013686084456568492
% es.EY (V/m) @ t=0.78
0.009349292242350815
% es.EZ (V/m) @ t=0.78
0.014057304060253406
% es.tEX (V/m) @ t=0.78
0.013686084456574044
% es.tEY (V/m) @ t=0.78
0
% es.tEZ (V/m) @ t=0.78
0.014057304060251852
% es.Ex (V/m) @ t=0.78
0.013686084456568492
% es.Ey (V/m) @ t=0.78
0.009349292242350815
% es.Ez (V/m) @ t=0.78
0.014057304060253406
% es.tEx (V/m) @ t=0.78
0.013686084456574044
% es.tEy (V/m) @ t=0.78
0
% es.tEz (V/m) @ t=0.78
0.014057304060251852
% V (V) @ t=0.78
0.009414768345463604
% es.normE (V/m) @ t=0.8
0.02194009828010966
% es.EX (V/m) @ t=0.8
0.01381635266944703
% es.EY (V/m) @ t=0.8
0.00943838124943741
% es.EZ (V/m) @ t=0.8
0.014191309694478627
% es.tEX (V/m) @ t=0.8
0.013816352669448806
% es.tEY (V/m) @ t=0.8
0
% es.tEZ (V/m) @ t=0.8
0.014191309694476573
% es.Ex (V/m) @ t=0.8
0.01381635266944703
% es.Ey (V/m) @ t=0.8
0.00943838124943741
% es.Ez (V/m) @ t=0.8
0.014191309694478627
% es.tEx (V/m) @ t=0.8
0.013816352669448806
% es.tEy (V/m) @ t=0.8
0
% es.tEz (V/m) @ t=0.8
0.014191309694476573
% V (V) @ t=0.8
0.009504425204265747
% es.normE (V/m) @ t=0.82
0.022147134866389237
% es.EX (V/m) @ t=0.82
0.013946620882318461
% es.EY (V/m) @ t=0.82
0.00952747025650158
% es.EZ (V/m) @ t=0.82
0.014325315328689636
% es.tEX (V/m) @ t=0.82
0.01394662088231935
% es.tEY (V/m) @ t=0.82
0
% es.tEZ (V/m) @ t=0.82
0.014325315328690635
% es.Ex (V/m) @ t=0.82
0.013946620882318461
% es.Ey (V/m) @ t=0.82
0.00952747025650158
% es.Ez (V/m) @ t=0.82
0.014325315328689636
% es.tEx (V/m) @ t=0.82
0.01394662088231935
% es.tEy (V/m) @ t=0.82
0
% es.tEz (V/m) @ t=0.82
0.014325315328690635
% V (V) @ t=0.82
0.009594082063067893
% es.normE (V/m) @ t=0.84
0.022354171453582563
% es.EX (V/m) @ t=0.84
0.014076889095182565
% es.EY (V/m) @ t=0.84
0.009616559263570412
% es.EZ (V/m) @ t=0.84
0.01445932096290603
% es.tEX (V/m) @ t=0.84
0.014076889095186562
% es.tEY (V/m) @ t=0.84
0
% es.tEZ (V/m) @ t=0.84
0.01445932096290825
% es.Ex (V/m) @ t=0.84
0.014076889095182565
% es.Ey (V/m) @ t=0.84
0.009616559263570412
% es.Ez (V/m) @ t=0.84
0.01445932096290603
% es.tEx (V/m) @ t=0.84
0.014076889095186562
% es.tEy (V/m) @ t=0.84
0
% es.tEz (V/m) @ t=0.84
0.01445932096290825
% V (V) @ t=0.84
0.009683738921870036
% es.normE (V/m) @ t=0.86
0.022561208041686556
% es.EX (V/m) @ t=0.86
0.014207157308061547
% es.EY (V/m) @ t=0.86
0.00970564827066811
% es.EZ (V/m) @ t=0.86
0.014593326597124201
% es.tEX (V/m) @ t=0.86
0.014207157308063767
% es.tEY (V/m) @ t=0.86
0
% es.tEZ (V/m) @ t=0.86
0.014593326597129419
% es.Ex (V/m) @ t=0.86
0.014207157308061547
% es.Ey (V/m) @ t=0.86
0.00970564827066811
% es.Ez (V/m) @ t=0.86
0.014593326597124201
% es.tEx (V/m) @ t=0.86
0.014207157308063767
% es.tEy (V/m) @ t=0.86
0
% es.tEz (V/m) @ t=0.86
0.014593326597129419
% V (V) @ t=0.86
0.009773395780672182
% es.normE (V/m) @ t=0.88
0.02276824463063708
% es.EX (V/m) @ t=0.88
0.014337425520932978
% es.EY (V/m) @ t=0.88
0.009794737277742716
% es.EZ (V/m) @ t=0.88
0.014727332231338819
% es.tEX (V/m) @ t=0.88
0.014337425520931868
% es.tEY (V/m) @ t=0.88
0
% es.tEZ (V/m) @ t=0.88
0.014727332231339929
% es.Ex (V/m) @ t=0.88
0.014337425520932978
% es.Ey (V/m) @ t=0.88
0.009794737277742716
% es.Ez (V/m) @ t=0.88
0.014727332231338819
% es.tEx (V/m) @ t=0.88
0.014337425520931868
% es.tEy (V/m) @ t=0.88
0
% es.tEz (V/m) @ t=0.88
0.014727332231339929
% V (V) @ t=0.88
0.009863052639474328
% es.normE (V/m) @ t=0.9
0.02297528122042685
% es.EX (V/m) @ t=0.9
0.014467693733800857
% es.EY (V/m) @ t=0.9
0.0098838262848151
% es.EZ (V/m) @ t=0.9
0.014861337865556934
% es.tEX (V/m) @ t=0.9
0.014467693733805964
% es.tEY (V/m) @ t=0.9
0
% es.tEZ (V/m) @ t=0.9
0.014861337865548663
% es.Ex (V/m) @ t=0.9
0.014467693733800857
% es.Ey (V/m) @ t=0.9
0.0098838262848151
% es.Ez (V/m) @ t=0.9
0.014861337865556934
% es.tEx (V/m) @ t=0.9
0.014467693733805964
% es.tEy (V/m) @ t=0.9
0
% es.tEz (V/m) @ t=0.9
0.014861337865548663
% V (V) @ t=0.9
0.009952709498276474
% es.normE (V/m) @ t=0.92
0.02318231781103722
% es.EX (V/m) @ t=0.92
0.014597961946675841
% es.EY (V/m) @ t=0.92
0.00997291529189459
% es.EZ (V/m) @ t=0.92
0.014995343499767944
% es.tEX (V/m) @ t=0.92
0.01459796194667784
% es.tEY (V/m) @ t=0.92
0
% es.tEZ (V/m) @ t=0.92
0.014995343499766278
% es.Ex (V/m) @ t=0.92
0.014597961946675841
% es.Ey (V/m) @ t=0.92
0.00997291529189459
% es.Ez (V/m) @ t=0.92
0.014995343499767944
% es.tEx (V/m) @ t=0.92
0.01459796194667784
% es.tEy (V/m) @ t=0.92
0
% es.tEz (V/m) @ t=0.92
0.014995343499766278
% V (V) @ t=0.92
0.010042366357078617
% es.normE (V/m) @ t=0.94
0.023389354402446404
% es.EX (V/m) @ t=0.94
0.014728230159551048
% es.EY (V/m) @ t=0.94
0.01006200429896964
% es.EZ (V/m) @ t=0.94
0.015129349133986114
% es.tEX (V/m) @ t=0.94
0.014728230159550382
% es.tEY (V/m) @ t=0.94
0
% es.tEZ (V/m) @ t=0.94
0.015129349133990999
% es.Ex (V/m) @ t=0.94
0.014728230159551048
% es.Ey (V/m) @ t=0.94
0.01006200429896964
% es.Ez (V/m) @ t=0.94
0.015129349133986114
% es.tEx (V/m) @ t=0.94
0.014728230159550382
% es.tEy (V/m) @ t=0.94
0
% es.tEz (V/m) @ t=0.94
0.015129349133990999
% V (V) @ t=0.94
0.010132023215880762
% es.normE (V/m) @ t=0.96
0.02359639099463157
% es.EX (V/m) @ t=0.96
0.014858498372418705
% es.EY (V/m) @ t=0.96
0.010151093306052683
% es.EZ (V/m) @ t=0.96
0.015263354768207837
% es.tEX (V/m) @ t=0.96
0.014858498372422702
% es.tEY (V/m) @ t=0.96
0
% es.tEZ (V/m) @ t=0.96
0.015263354768206838
% es.Ex (V/m) @ t=0.96
0.014858498372418705
% es.Ey (V/m) @ t=0.96
0.010151093306052683
% es.Ez (V/m) @ t=0.96
0.015263354768207837
% es.tEx (V/m) @ t=0.96
0.014858498372422702
% es.tEy (V/m) @ t=0.96
0
% es.tEz (V/m) @ t=0.96
0.015263354768206838
% V (V) @ t=0.96
0.010221680074682908
% es.normE (V/m) @ t=0.98
0.02380342758757307
% es.EX (V/m) @ t=0.98
0.014988766585293689
% es.EY (V/m) @ t=0.98
0.01024018231312862
% es.EZ (V/m) @ t=0.98
0.01539736040242956
% es.tEX (V/m) @ t=0.98
0.01498876658529702
% es.tEY (V/m) @ t=0.98
0
% es.tEZ (V/m) @ t=0.98
0.015397360402431559
% es.Ex (V/m) @ t=0.98
0.014988766585293689
% es.Ey (V/m) @ t=0.98
0.01024018231312862
% es.Ez (V/m) @ t=0.98
0.01539736040242956
% es.tEx (V/m) @ t=0.98
0.01498876658529702
% es.tEy (V/m) @ t=0.98
0
% es.tEz (V/m) @ t=0.98
0.015397360402431559
% V (V) @ t=0.98
0.010311336933485054
% es.normE (V/m) @ t=1
0.02401046418124308
% es.EX (V/m) @ t=1
0.015119034798165565
% es.EY (V/m) @ t=1
0.010329271320204114
% es.EZ (V/m) @ t=1
0.015531366036644179
% es.tEX (V/m) @ t=1
0.015119034798169118
% es.tEY (V/m) @ t=1
0
% es.tEZ (V/m) @ t=1
0.015531366036647398
% es.Ex (V/m) @ t=1
0.015119034798165565
% es.Ey (V/m) @ t=1
0.010329271320204114
% es.Ez (V/m) @ t=1
0.015531366036644179
% es.tEx (V/m) @ t=1
0.015119034798169118
% es.tEy (V/m) @ t=1
0