% Model:              1 neuron.mph
% Version:            COMSOL 6.1.0.252
% Date:               Mar 26 2023, 14:36
% Dimension:          0
% Nodes:              14017
% Expressions:        14017
% Description:        Electric field norm, Electric field, X component, Electric field, Y component, Electric field, Z component, Tangential electric field, X component, Tangential electric field, Y component, Tangential electric field, Z component, Electric field, x component, Electric field, y component, Electric field, z component, Tangential electric field, x component, Tangential electric field, y component, Tangential electric field, z component, Electric potential
% Length unit:        mm
% x
1.3300000000000003
% y
14.200000000000003
% z
1.33
% es.normE (V/m) @ t=0
0.01925388102658659
% es.EX (V/m) @ t=0
0.014722602296416198
% es.EY (V/m) @ t=0
-0.005244553789757411
% es.EZ (V/m) @ t=0
0.011245068774972111
% es.tEX (V/m) @ t=0
0.014722602296419307
% es.tEY (V/m) @ t=0
0
% es.tEZ (V/m) @ t=0
0.011245068774970335
% es.Ex (V/m) @ t=0
0.014722602296416198
% es.Ey (V/m) @ t=0
-0.005244553789757411
% es.Ez (V/m) @ t=0
0.011245068774972111
% es.tEx (V/m) @ t=0
0.014722602296419307
% es.tEy (V/m) @ t=0
0
% es.tEz (V/m) @ t=0
0.011245068774970335
% V (V) @ t=0
0.007034778822079448
% es.normE (V/m) @ t=0.02
0.017620285537680937
% es.EX (V/m) @ t=0.02
0.013473463138968356
% es.EY (V/m) @ t=0.02
-0.004799579637198459
% es.EZ (V/m) @ t=0.02
0.010290980943450379
% es.tEX (V/m) @ t=0.02
0.013473463138966801
% es.tEY (V/m) @ t=0.02
0
% es.tEZ (V/m) @ t=0.02
0.01029098094344949
% es.Ex (V/m) @ t=0.02
0.013473463138968356
% es.Ey (V/m) @ t=0.02
-0.004799579637198459
% es.Ez (V/m) @ t=0.02
0.010290980943450379
% es.tEx (V/m) @ t=0.02
0.013473463138966801
% es.tEy (V/m) @ t=0.02
0
% es.tEz (V/m) @ t=0.02
0.01029098094344949
% V (V) @ t=0.02
0.006437913029981488
% es.normE (V/m) @ t=0.04
0.017781940288318226
% es.EX (V/m) @ t=0.04
0.013597073776304924
% es.EY (V/m) @ t=0.04
-0.0048436123374746565
% es.EZ (V/m) @ t=0.04
0.010385393813587385
% es.tEX (V/m) @ t=0.04
0.013597073776307367
% es.tEY (V/m) @ t=0.04
0
% es.tEZ (V/m) @ t=0.04
0.010385393813585608
% es.Ex (V/m) @ t=0.04
0.013597073776304924
% es.Ey (V/m) @ t=0.04
-0.0048436123374746565
% es.Ez (V/m) @ t=0.04
0.010385393813587385
% es.tEx (V/m) @ t=0.04
0.013597073776307367
% es.tEy (V/m) @ t=0.04
0
% es.tEz (V/m) @ t=0.04
0.010385393813585608
% V (V) @ t=0.04
0.006496976646077966
% es.normE (V/m) @ t=0.06
0.017945575923435902
% es.EX (V/m) @ t=0.06
0.013722199055871798
% es.EY (V/m) @ t=0.06
-0.004888184670926776
% es.EZ (V/m) @ t=0.06
0.010480963644520003
% es.tEX (V/m) @ t=0.06
0.013722199055872464
% es.tEY (V/m) @ t=0.06
0
% es.tEZ (V/m) @ t=0.06
0.010480963644517338
% es.Ex (V/m) @ t=0.06
0.013722199055871798
% es.Ey (V/m) @ t=0.06
-0.004888184670926776
% es.Ez (V/m) @ t=0.06
0.010480963644520003
% es.tEx (V/m) @ t=0.06
0.013722199055872464
% es.tEy (V/m) @ t=0.06
0
% es.tEz (V/m) @ t=0.06
0.010480963644517338
% V (V) @ t=0.06
0.006556764031408116
% es.normE (V/m) @ t=0.08
0.018110479668314656
% es.EX (V/m) @ t=0.08
0.013848294507385006
% es.EY (V/m) @ t=0.08
-0.004933101856153588
% es.EZ (V/m) @ t=0.08
0.010577273709703405
% es.tEX (V/m) @ t=0.08
0.013848294507387449
% es.tEY (V/m) @ t=0.08
0
% es.tEZ (V/m) @ t=0.08
0.010577273709698964
% es.Ex (V/m) @ t=0.08
0.013848294507385006
% es.Ey (V/m) @ t=0.08
-0.004933101856153588
% es.Ez (V/m) @ t=0.08
0.010577273709703405
% es.tEx (V/m) @ t=0.08
0.013848294507387449
% es.tEy (V/m) @ t=0.08
0
% es.tEz (V/m) @ t=0.08
0.010577273709698964
% V (V) @ t=0.08
0.006617014610924429
% es.normE (V/m) @ t=0.1
0.018278826908508745
% es.EX (V/m) @ t=0.1
0.013977024417394901
% es.EY (V/m) @ t=0.1
-0.004978955470955615
% es.EZ (V/m) @ t=0.1
0.010675593847885523
% es.tEX (V/m) @ t=0.1
0.0139770244173969
% es.tEY (V/m) @ t=0.1
0
% es.tEZ (V/m) @ t=0.1
0.01067559384788197
% es.Ex (V/m) @ t=0.1
0.013977024417394901
% es.Ey (V/m) @ t=0.1
-0.004978955470955615
% es.Ez (V/m) @ t=0.1
0.010675593847885523
% es.tEx (V/m) @ t=0.1
0.0139770244173969
% es.tEy (V/m) @ t=0.1
0
% es.tEz (V/m) @ t=0.1
0.01067559384788197
% V (V) @ t=0.1
0.0066785229735352395
% es.normE (V/m) @ t=0.12
0.01844717414870447
% es.EX (V/m) @ t=0.12
0.014105754327406572
% es.EY (V/m) @ t=0.12
-0.005024809085752313
% es.EZ (V/m) @ t=0.12
0.010773913986069417
% es.tEX (V/m) @ t=0.12
0.014105754327409459
% es.tEY (V/m) @ t=0.12
0
% es.tEZ (V/m) @ t=0.12
0.010773913986064976
% es.Ex (V/m) @ t=0.12
0.014105754327406572
% es.Ey (V/m) @ t=0.12
-0.005024809085752313
% es.Ez (V/m) @ t=0.12
0.010773913986069417
% es.tEx (V/m) @ t=0.12
0.014105754327409459
% es.tEy (V/m) @ t=0.12
0
% es.tEz (V/m) @ t=0.12
0.010773913986064976
% V (V) @ t=0.12
0.006740031336146051
% es.normE (V/m) @ t=0.14
0.01861552138890283
% es.EX (V/m) @ t=0.14
0.01423448423742002
% es.EY (V/m) @ t=0.14
-0.005070662700551232
% es.EZ (V/m) @ t=0.14
0.01087223412425331
% es.tEX (V/m) @ t=0.14
0.014234484237422684
% es.tEY (V/m) @ t=0.14
0
% es.tEZ (V/m) @ t=0.14
0.010872234124244429
% es.Ex (V/m) @ t=0.14
0.01423448423742002
% es.Ey (V/m) @ t=0.14
-0.005070662700551232
% es.Ez (V/m) @ t=0.14
0.01087223412425331
% es.tEx (V/m) @ t=0.14
0.014234484237422684
% es.tEy (V/m) @ t=0.14
0
% es.tEz (V/m) @ t=0.14
0.010872234124244429
% V (V) @ t=0.14
0.00680153969875686
% es.normE (V/m) @ t=0.16
0.018789318237676485
% es.EX (V/m) @ t=0.16
0.01436738089757661
% es.EY (V/m) @ t=0.16
-0.005118001100219871
% es.EZ (V/m) @ t=0.16
0.010973737317740984
% es.tEX (V/m) @ t=0.16
0.014367380897579052
% es.tEY (V/m) @ t=0.16
0
% es.tEZ (V/m) @ t=0.16
0.010973737317733878
% es.Ex (V/m) @ t=0.16
0.01436738089757661
% es.Ey (V/m) @ t=0.16
-0.005118001100219871
% es.Ez (V/m) @ t=0.16
0.010973737317740984
% es.tEx (V/m) @ t=0.16
0.014367380897579052
% es.tEy (V/m) @ t=0.16
0
% es.tEz (V/m) @ t=0.16
0.010973737317733878
% V (V) @ t=0.16
0.0068650392687148575
% es.normE (V/m) @ t=0.18
0.018967687761911812
% es.EX (V/m) @ t=0.18
0.014503773808121068
% es.EY (V/m) @ t=0.18
-0.005166585358058473
% es.EZ (V/m) @ t=0.18
0.011077911359734571
% es.tEX (V/m) @ t=0.18
0.014503773808123954
% es.tEY (V/m) @ t=0.18
0
% es.tEZ (V/m) @ t=0.18
0.011077911359732795
% es.Ex (V/m) @ t=0.18
0.014503773808121068
% es.Ey (V/m) @ t=0.18
-0.005166585358058473
% es.Ez (V/m) @ t=0.18
0.011077911359734571
% es.tEx (V/m) @ t=0.18
0.014503773808123954
% es.tEy (V/m) @ t=0.18
0
% es.tEz (V/m) @ t=0.18
0.011077911359732795
% V (V) @ t=0.18
0.0069302096274730125
% es.normE (V/m) @ t=0.2
0.019146057286140324
% es.EX (V/m) @ t=0.2
0.014640166718665526
% es.EY (V/m) @ t=0.2
-0.00521516961588997
% es.EZ (V/m) @ t=0.2
0.011182085401719277
% es.tEX (V/m) @ t=0.2
0.014640166718667968
% es.tEY (V/m) @ t=0.2
0
% es.tEZ (V/m) @ t=0.2
0.011182085401713948
% es.Ex (V/m) @ t=0.2
0.014640166718665526
% es.Ey (V/m) @ t=0.2
-0.00521516961588997
% es.Ez (V/m) @ t=0.2
0.011182085401719277
% es.tEx (V/m) @ t=0.2
0.014640166718667968
% es.tEy (V/m) @ t=0.2
0
% es.tEz (V/m) @ t=0.2
0.011182085401713948
% V (V) @ t=0.2
0.006995379986231171
% es.normE (V/m) @ t=0.22
0.01932442681037568
% es.EX (V/m) @ t=0.22
0.01477655962921176
% es.EY (V/m) @ t=0.22
-0.005263753873721466
% es.EZ (V/m) @ t=0.22
0.011286259443712865
% es.tEX (V/m) @ t=0.22
0.014776559629214647
% es.tEY (V/m) @ t=0.22
0
% es.tEZ (V/m) @ t=0.22
0.011286259443707536
% es.Ex (V/m) @ t=0.22
0.01477655962921176
% es.Ey (V/m) @ t=0.22
-0.005263753873721466
% es.Ez (V/m) @ t=0.22
0.011286259443712865
% es.tEx (V/m) @ t=0.22
0.014776559629214647
% es.tEy (V/m) @ t=0.22
0
% es.tEz (V/m) @ t=0.22
0.011286259443707536
% V (V) @ t=0.22
0.0070605503449893275
% es.normE (V/m) @ t=0.24
0.019502796334607466
% es.EX (V/m) @ t=0.24
0.014912952539757995
% es.EY (V/m) @ t=0.24
-0.005312338131557848
% es.EZ (V/m) @ t=0.24
0.01139043348569757
% es.tEX (V/m) @ t=0.24
0.01491295253976066
% es.tEY (V/m) @ t=0.24
0
% es.tEZ (V/m) @ t=0.24
0.011390433485694018
% es.Ex (V/m) @ t=0.24
0.014912952539757995
% es.Ey (V/m) @ t=0.24
-0.005312338131557848
% es.Ez (V/m) @ t=0.24
0.01139043348569757
% es.tEx (V/m) @ t=0.24
0.01491295253976066
% es.tEy (V/m) @ t=0.24
0
% es.tEz (V/m) @ t=0.24
0.011390433485694018
% V (V) @ t=0.24
0.0071257207037474825
% es.normE (V/m) @ t=0.26
0.019681165858840766
% es.EX (V/m) @ t=0.26
0.01504934545030423
% es.EY (V/m) @ t=0.26
-0.005360922389391121
% es.EZ (V/m) @ t=0.26
0.01149460752768583
% es.tEX (V/m) @ t=0.26
0.01504934545030645
% es.tEY (V/m) @ t=0.26
0
% es.tEZ (V/m) @ t=0.26
0.0114946075276805
% es.Ex (V/m) @ t=0.26
0.01504934545030423
% es.Ey (V/m) @ t=0.26
-0.005360922389391121
% es.Ez (V/m) @ t=0.26
0.01149460752768583
% es.tEx (V/m) @ t=0.26
0.01504934545030645
% es.tEy (V/m) @ t=0.26
0
% es.tEz (V/m) @ t=0.26
0.0114946075276805
% V (V) @ t=0.26
0.007190891062505641
% es.normE (V/m) @ t=0.28
0.01985953538307298
% es.EX (V/m) @ t=0.28
0.015185738360848688
% es.EY (V/m) @ t=0.28
-0.0054095066472243936
% es.EZ (V/m) @ t=0.28
0.011598781569674088
% es.tEX (V/m) @ t=0.28
0.015185738360851353
% es.tEY (V/m) @ t=0.28
0
% es.tEZ (V/m) @ t=0.28
0.0115987815696732
% es.Ex (V/m) @ t=0.28
0.015185738360848688
% es.Ey (V/m) @ t=0.28
-0.0054095066472243936
% es.Ez (V/m) @ t=0.28
0.011598781569674088
% es.tEx (V/m) @ t=0.28
0.015185738360851353
% es.tEy (V/m) @ t=0.28
0
% es.tEz (V/m) @ t=0.28
0.0115987815696732
% V (V) @ t=0.28
0.007256061421263797
% es.normE (V/m) @ t=0.3
0.020038900366214647
% es.EX (V/m) @ t=0.3
0.015322892353347939
% es.EY (V/m) @ t=0.3
-0.005458362172580333
% es.EZ (V/m) @ t=0.3
0.011703537081059423
% es.tEX (V/m) @ t=0.3
0.015322892353350603
% es.tEY (V/m) @ t=0.3
0
% es.tEZ (V/m) @ t=0.3
0.011703537081054094
% es.Ex (V/m) @ t=0.3
0.015322892353347939
% es.Ey (V/m) @ t=0.3
-0.005458362172580333
% es.Ez (V/m) @ t=0.3
0.011703537081059423
% es.tEx (V/m) @ t=0.3
0.015322892353350603
% es.tEy (V/m) @ t=0.3
0
% es.tEz (V/m) @ t=0.3
0.011703537081054094
% V (V) @ t=0.3
0.0073215955174520285
% es.normE (V/m) @ t=0.32
0.020227978879101643
% es.EX (V/m) @ t=0.32
0.015467472862551901
% es.EY (V/m) @ t=0.32
-0.005509864683296506
% es.EZ (V/m) @ t=0.32
0.011813966478340987
% es.tEX (V/m) @ t=0.32
0.015467472862554343
% es.tEY (V/m) @ t=0.32
0
% es.tEZ (V/m) @ t=0.32
0.011813966478336546
% es.Ex (V/m) @ t=0.32
0.015467472862551901
% es.Ey (V/m) @ t=0.32
-0.005509864683296506
% es.Ez (V/m) @ t=0.32
0.011813966478340987
% es.tEx (V/m) @ t=0.32
0.015467472862554343
% es.tEy (V/m) @ t=0.32
0
% es.tEz (V/m) @ t=0.32
0.011813966478336546
% V (V) @ t=0.32
0.007390678905662513
% es.normE (V/m) @ t=0.34
0.020417057391990918
% es.EX (V/m) @ t=0.34
0.01561205337175764
% es.EY (V/m) @ t=0.34
-0.0055613671940122344
% es.EZ (V/m) @ t=0.34
0.011924395875624327
% es.tEX (V/m) @ t=0.34
0.01561205337175875
% es.tEY (V/m) @ t=0.34
0
% es.tEZ (V/m) @ t=0.34
0.011924395875621663
% es.Ex (V/m) @ t=0.34
0.01561205337175764
% es.Ey (V/m) @ t=0.34
-0.0055613671940122344
% es.Ez (V/m) @ t=0.34
0.011924395875624327
% es.tEx (V/m) @ t=0.34
0.01561205337175875
% es.tEy (V/m) @ t=0.34
0
% es.tEz (V/m) @ t=0.34
0.011924395875621663
% V (V) @ t=0.34
0.007459762293872996
% es.normE (V/m) @ t=0.36
0.020606135904881095
% es.EX (V/m) @ t=0.36
0.0157566338809616
% es.EY (V/m) @ t=0.36
-0.005612869704732404
% es.EZ (V/m) @ t=0.36
0.012034825272909444
% es.tEX (V/m) @ t=0.36
0.015756633880964044
% es.tEY (V/m) @ t=0.36
0
% es.tEZ (V/m) @ t=0.36
0.012034825272902339
% es.Ex (V/m) @ t=0.36
0.0157566338809616
% es.Ey (V/m) @ t=0.36
-0.005612869704732404
% es.Ez (V/m) @ t=0.36
0.012034825272909444
% es.tEx (V/m) @ t=0.36
0.015756633880964044
% es.tEy (V/m) @ t=0.36
0
% es.tEz (V/m) @ t=0.36
0.012034825272902339
% V (V) @ t=0.36
0.00752884568208348
% es.normE (V/m) @ t=0.38
0.020795214417765905
% es.EX (V/m) @ t=0.38
0.015901214390163787
% es.EY (V/m) @ t=0.38
-0.005664372215445468
% es.EZ (V/m) @ t=0.38
0.012145254670191008
% es.tEX (V/m) @ t=0.38
0.01590121439016645
% es.tEY (V/m) @ t=0.38
0
% es.tEZ (V/m) @ t=0.38
0.012145254670186567
% es.Ex (V/m) @ t=0.38
0.015901214390163787
% es.Ey (V/m) @ t=0.38
-0.005664372215445468
% es.Ez (V/m) @ t=0.38
0.012145254670191008
% es.tEx (V/m) @ t=0.38
0.01590121439016645
% es.tEy (V/m) @ t=0.38
0
% es.tEz (V/m) @ t=0.38
0.012145254670186567
% V (V) @ t=0.38
0.007597929070293967
% es.normE (V/m) @ t=0.4
0.020984292930653563
% es.EX (V/m) @ t=0.4
0.016045794899369525
% es.EY (V/m) @ t=0.4
-0.005715874726158976
% es.EZ (V/m) @ t=0.4
0.012255684067472572
% es.tEX (V/m) @ t=0.4
0.016045794899372634
% es.tEY (V/m) @ t=0.4
0
% es.tEZ (V/m) @ t=0.4
0.01225568406746902
% es.Ex (V/m) @ t=0.4
0.016045794899369525
% es.Ey (V/m) @ t=0.4
-0.005715874726158976
% es.Ez (V/m) @ t=0.4
0.012255684067472572
% es.tEx (V/m) @ t=0.4
0.016045794899372634
% es.tEy (V/m) @ t=0.4
0
% es.tEz (V/m) @ t=0.4
0.01225568406746902
% V (V) @ t=0.4
0.007667012458504449
% es.normE (V/m) @ t=0.42
0.021173371443544656
% es.EX (V/m) @ t=0.42
0.016190375408573487
% es.EY (V/m) @ t=0.42
-0.005767377236886251
% es.EZ (V/m) @ t=0.42
0.012366113464755912
% es.tEX (V/m) @ t=0.42
0.016190375408574376
% es.tEY (V/m) @ t=0.42
0
% es.tEZ (V/m) @ t=0.42
0.012366113464750583
% es.Ex (V/m) @ t=0.42
0.016190375408573487
% es.Ey (V/m) @ t=0.42
-0.005767377236886251
% es.Ez (V/m) @ t=0.42
0.012366113464755912
% es.tEx (V/m) @ t=0.42
0.016190375408574376
% es.tEy (V/m) @ t=0.42
0
% es.tEz (V/m) @ t=0.42
0.012366113464750583
% V (V) @ t=0.42
0.0077360958467149335
% es.normE (V/m) @ t=0.44
0.021362449956435024
% es.EX (V/m) @ t=0.44
0.016334955917779226
% es.EY (V/m) @ t=0.44
-0.00581887974759443
% es.EZ (V/m) @ t=0.44
0.012476542862044582
% es.tEX (V/m) @ t=0.44
0.01633495591778167
% es.tEY (V/m) @ t=0.44
0
% es.tEZ (V/m) @ t=0.44
0.012476542862037476
% es.Ex (V/m) @ t=0.44
0.016334955917779226
% es.Ey (V/m) @ t=0.44
-0.00581887974759443
% es.Ez (V/m) @ t=0.44
0.012476542862044582
% es.tEx (V/m) @ t=0.44
0.01633495591778167
% es.tEy (V/m) @ t=0.44
0
% es.tEz (V/m) @ t=0.44
0.012476542862037476
% V (V) @ t=0.44
0.007805179234925417
% es.normE (V/m) @ t=0.46
0.021567200196354844
% es.EX (V/m) @ t=0.46
0.016491502710701766
% es.EY (V/m) @ t=0.46
-0.005874670466722076
% es.EZ (V/m) @ t=0.46
0.012596138676594038
% es.tEX (V/m) @ t=0.46
0.016491502710703987
% es.tEY (V/m) @ t=0.46
0
% es.tEZ (V/m) @ t=0.46
0.012596138676586932
% es.Ex (V/m) @ t=0.46
0.016491502710701766
% es.Ey (V/m) @ t=0.46
-0.005874670466722076
% es.Ez (V/m) @ t=0.46
0.012596138676594038
% es.tEx (V/m) @ t=0.46
0.016491502710703987
% es.tEy (V/m) @ t=0.46
0
% es.tEz (V/m) @ t=0.46
0.012596138676586932
% V (V) @ t=0.46
0.007879993181060054
% es.normE (V/m) @ t=0.48
0.021780683350667317
% es.EX (V/m) @ t=0.48
0.01665471759643289
% es.EY (V/m) @ t=0.48
-0.00593285074743477
% es.EZ (V/m) @ t=0.48
0.01272084238616955
% es.tEX (V/m) @ t=0.48
0.01665471759643533
% es.tEY (V/m) @ t=0.48
0
% es.tEZ (V/m) @ t=0.48
0.012720842386165998
% es.Ex (V/m) @ t=0.48
0.01665471759643289
% es.Ey (V/m) @ t=0.48
-0.00593285074743477
% es.Ez (V/m) @ t=0.48
0.01272084238616955
% es.tEx (V/m) @ t=0.48
0.01665471759643533
% es.tEy (V/m) @ t=0.48
0
% es.tEz (V/m) @ t=0.48
0.012720842386165998
% V (V) @ t=0.48
0.007958000423708277
% es.normE (V/m) @ t=0.5
0.02199416650507429
% es.EX (V/m) @ t=0.5
0.016817932482167564
% es.EY (V/m) @ t=0.5
-0.005991031028124816
% es.EZ (V/m) @ t=0.5
0.012845546095757499
% es.tEX (V/m) @ t=0.5
0.016817932482169562
% es.tEY (V/m) @ t=0.5
0
% es.tEZ (V/m) @ t=0.5
0.012845546095748617
% es.Ex (V/m) @ t=0.5
0.016817932482167564
% es.Ey (V/m) @ t=0.5
-0.005991031028124816
% es.Ez (V/m) @ t=0.5
0.012845546095757499
% es.tEx (V/m) @ t=0.5
0.016817932482169562
% es.tEy (V/m) @ t=0.5
0
% es.tEz (V/m) @ t=0.5
0.012845546095748617
% V (V) @ t=0.5
0.008036007666356497
% es.normE (V/m) @ t=0.52
0.022207649659562005
% es.EX (V/m) @ t=0.52
0.016981147367898686
% es.EY (V/m) @ t=0.52
-0.006049211308832181
% es.EZ (V/m) @ t=0.52
0.012970249805329459
% es.tEX (V/m) @ t=0.52
0.016981147367902016
% es.tEY (V/m) @ t=0.52
0
% es.tEZ (V/m) @ t=0.52
0.012970249805329459
% es.Ex (V/m) @ t=0.52
0.016981147367898686
% es.Ey (V/m) @ t=0.52
-0.006049211308832181
% es.Ez (V/m) @ t=0.52
0.012970249805329459
% es.tEx (V/m) @ t=0.52
0.016981147367902016
% es.tEy (V/m) @ t=0.52
0
% es.tEz (V/m) @ t=0.52
0.012970249805329459
% V (V) @ t=0.52
0.008114014909004721
% es.normE (V/m) @ t=0.54
0.022421132814134964
% es.EX (V/m) @ t=0.54
0.017144362253631584
% es.EY (V/m) @ t=0.54
-0.006107391589525779
% es.EZ (V/m) @ t=0.54
0.013094953514904972
% es.tEX (V/m) @ t=0.54
0.01714436225363336
% es.tEY (V/m) @ t=0.54
0
% es.tEZ (V/m) @ t=0.54
0.013094953514906749
% es.Ex (V/m) @ t=0.54
0.017144362253631584
% es.Ey (V/m) @ t=0.54
-0.006107391589525779
% es.Ez (V/m) @ t=0.54
0.013094953514904972
% es.tEx (V/m) @ t=0.54
0.01714436225363336
% es.tEy (V/m) @ t=0.54
0
% es.tEz (V/m) @ t=0.54
0.013094953514906749
% V (V) @ t=0.54
0.008192022151652942
% es.normE (V/m) @ t=0.56
0.02263461596879169
% es.EX (V/m) @ t=0.56
0.01730757713936093
% es.EY (V/m) @ t=0.56
-0.006165571870227815
% es.EZ (V/m) @ t=0.56
0.013219657224482262
% es.tEX (V/m) @ t=0.56
0.017307577139365593
% es.tEY (V/m) @ t=0.56
0
% es.tEZ (V/m) @ t=0.56
0.01321965722447338
% es.Ex (V/m) @ t=0.56
0.01730757713936093
% es.Ey (V/m) @ t=0.56
-0.006165571870227815
% es.Ez (V/m) @ t=0.56
0.013219657224482262
% es.tEx (V/m) @ t=0.56
0.017307577139365593
% es.tEy (V/m) @ t=0.56
0
% es.tEz (V/m) @ t=0.56
0.01321965722447338
% V (V) @ t=0.56
0.008270029394301166
% es.normE (V/m) @ t=0.58
0.022848099123528608
% es.EX (V/m) @ t=0.58
0.017470792025095605
% es.EY (V/m) @ t=0.58
-0.006223752150924078
% es.EZ (V/m) @ t=0.58
0.013344360934054222
% es.tEX (V/m) @ t=0.58
0.017470792025098048
% es.tEY (V/m) @ t=0.58
0
% es.tEZ (V/m) @ t=0.58
0.01334436093405067
% es.Ex (V/m) @ t=0.58
0.017470792025095605
% es.Ey (V/m) @ t=0.58
-0.006223752150924078
% es.Ez (V/m) @ t=0.58
0.013344360934054222
% es.tEx (V/m) @ t=0.58
0.017470792025098048
% es.tEy (V/m) @ t=0.58
0
% es.tEz (V/m) @ t=0.58
0.01334436093405067
% V (V) @ t=0.58
0.008348036636949387
% es.normE (V/m) @ t=0.6
0.02306158227835418
% es.EX (V/m) @ t=0.6
0.017634006910828504
% es.EY (V/m) @ t=0.6
-0.006281932431631887
% es.EZ (V/m) @ t=0.6
0.013469064643640394
% es.tEX (V/m) @ t=0.6
0.017634006910831168
% es.tEY (V/m) @ t=0.6
0
% es.tEZ (V/m) @ t=0.6
0.013469064643636841
% es.Ex (V/m) @ t=0.6
0.017634006910828504
% es.Ey (V/m) @ t=0.6
-0.006281932431631887
% es.Ez (V/m) @ t=0.6
0.013469064643640394
% es.tEx (V/m) @ t=0.6
0.017634006910831168
% es.tEy (V/m) @ t=0.6
0
% es.tEz (V/m) @ t=0.6
0.013469064643636841
% V (V) @ t=0.6
0.00842604387959761
% es.normE (V/m) @ t=0.62
0.023275065433241416
% es.EX (V/m) @ t=0.62
0.017797221796564955
% es.EY (V/m) @ t=0.62
-0.006340112712317492
% es.EZ (V/m) @ t=0.62
0.013593768353207025
% es.tEX (V/m) @ t=0.62
0.017797221796566287
% es.tEY (V/m) @ t=0.62
0
% es.tEZ (V/m) @ t=0.62
0.013593768353203473
% es.Ex (V/m) @ t=0.62
0.017797221796564955
% es.Ey (V/m) @ t=0.62
-0.006340112712317492
% es.Ez (V/m) @ t=0.62
0.013593768353207025
% es.tEx (V/m) @ t=0.62
0.017797221796566287
% es.tEy (V/m) @ t=0.62
0
% es.tEz (V/m) @ t=0.62
0.013593768353203473
% V (V) @ t=0.62
0.00850405112224583
% es.normE (V/m) @ t=0.64
0.023488548588206516
% es.EX (V/m) @ t=0.64
0.017960436682292524
% es.EY (V/m) @ t=0.64
-0.006398292993018195
% es.EZ (V/m) @ t=0.64
0.013718472062784315
% es.tEX (V/m) @ t=0.64
0.017960436682294745
% es.tEY (V/m) @ t=0.64
0
% es.tEZ (V/m) @ t=0.64
0.013718472062782539
% es.Ex (V/m) @ t=0.64
0.017960436682292524
% es.Ey (V/m) @ t=0.64
-0.006398292993018195
% es.Ez (V/m) @ t=0.64
0.013718472062784315
% es.tEx (V/m) @ t=0.64
0.017960436682294745
% es.tEy (V/m) @ t=0.64
0
% es.tEz (V/m) @ t=0.64
0.013718472062782539
% V (V) @ t=0.64
0.008582058364894053
% es.normE (V/m) @ t=0.66
0.023702031743253606
% es.EX (V/m) @ t=0.66
0.018123651568025423
% es.EY (V/m) @ t=0.66
-0.006456473273724228
% es.EZ (V/m) @ t=0.66
0.01384317577236871
% es.tEX (V/m) @ t=0.66
0.01812365156802831
% es.tEY (V/m) @ t=0.66
0
% es.tEZ (V/m) @ t=0.66
0.013843175772361604
% es.Ex (V/m) @ t=0.66
0.018123651568025423
% es.Ey (V/m) @ t=0.66
-0.006456473273724228
% es.Ez (V/m) @ t=0.66
0.01384317577236871
% es.tEx (V/m) @ t=0.66
0.01812365156802831
% es.tEy (V/m) @ t=0.66
0
% es.tEz (V/m) @ t=0.66
0.013843175772361604
% V (V) @ t=0.66
0.008660065607542275
% es.normE (V/m) @ t=0.68
0.023915514898368424
% es.EX (V/m) @ t=0.68
0.018286866453760098
% es.EY (V/m) @ t=0.68
-0.006514653554423155
% es.EZ (V/m) @ t=0.68
0.013967879481949552
% es.tEX (V/m) @ t=0.68
0.018286866453760986
% es.tEY (V/m) @ t=0.68
0
% es.tEZ (V/m) @ t=0.68
0.013967879481947776
% es.Ex (V/m) @ t=0.68
0.018286866453760098
% es.Ey (V/m) @ t=0.68
-0.006514653554423155
% es.Ez (V/m) @ t=0.68
0.013967879481949552
% es.tEx (V/m) @ t=0.68
0.018286866453760986
% es.tEy (V/m) @ t=0.68
0
% es.tEz (V/m) @ t=0.68
0.013967879481947776
% V (V) @ t=0.68
0.008738072850190499
% es.normE (V/m) @ t=0.7
0.024128998053549754
% es.EX (V/m) @ t=0.7
0.01845008133949122
% es.EY (V/m) @ t=0.7
-0.006572833835124747
% es.EZ (V/m) @ t=0.7
0.014092583191530395
% es.tEX (V/m) @ t=0.7
0.01845008133949544
% es.tEY (V/m) @ t=0.7
0
% es.tEZ (V/m) @ t=0.7
0.014092583191526842
% es.Ex (V/m) @ t=0.7
0.01845008133949122
% es.Ey (V/m) @ t=0.7
-0.006572833835124747
% es.Ez (V/m) @ t=0.7
0.014092583191530395
% es.tEx (V/m) @ t=0.7
0.01845008133949544
% es.tEy (V/m) @ t=0.7
0
% es.tEz (V/m) @ t=0.7
0.014092583191526842
% V (V) @ t=0.7
0.008816080092838722
% es.normE (V/m) @ t=0.72
0.024342481208788905
% es.EX (V/m) @ t=0.72
0.018613296225222342
% es.EY (V/m) @ t=0.72
-0.006631014115816569
% es.EZ (V/m) @ t=0.72
0.014217286901100579
% es.tEX (V/m) @ t=0.72
0.018613296225225007
% es.tEY (V/m) @ t=0.72
0
% es.tEZ (V/m) @ t=0.72
0.01421728690108992
% es.Ex (V/m) @ t=0.72
0.018613296225222342
% es.Ey (V/m) @ t=0.72
-0.006631014115816569
% es.Ez (V/m) @ t=0.72
0.014217286901100579
% es.tEx (V/m) @ t=0.72
0.018613296225225007
% es.tEy (V/m) @ t=0.72
0
% es.tEz (V/m) @ t=0.72
0.01421728690108992
% V (V) @ t=0.72
0.008894087335486942
% es.normE (V/m) @ t=0.74
0.024555964364101582
% es.EX (V/m) @ t=0.74
0.018776511110957017
% es.EY (V/m) @ t=0.74
-0.006689194396514608
% es.EZ (V/m) @ t=0.74
0.014341990610677868
% es.tEX (V/m) @ t=0.74
0.018776511110961236
% es.tEY (V/m) @ t=0.74
0
% es.tEZ (V/m) @ t=0.74
0.014341990610665434
% es.Ex (V/m) @ t=0.74
0.018776511110957017
% es.Ey (V/m) @ t=0.74
-0.006689194396514608
% es.Ez (V/m) @ t=0.74
0.014341990610677868
% es.tEx (V/m) @ t=0.74
0.018776511110961236
% es.tEy (V/m) @ t=0.74
0
% es.tEz (V/m) @ t=0.74
0.014341990610665434
% V (V) @ t=0.74
0.008972094578135161
% es.normE (V/m) @ t=0.76
0.024788160790844022
% es.EX (V/m) @ t=0.76
0.018954102563450093
% es.EY (V/m) @ t=0.76
-0.006752396048381293
% es.EZ (V/m) @ t=0.76
0.01447757089475843
% es.tEX (V/m) @ t=0.76
0.01895410256345298
% es.tEY (V/m) @ t=0.76
0
% es.tEZ (V/m) @ t=0.76
0.014477570894754876
% es.Ex (V/m) @ t=0.76
0.018954102563450093
% es.Ey (V/m) @ t=0.76
-0.006752396048381293
% es.Ez (V/m) @ t=0.76
0.01447757089475843
% es.tEx (V/m) @ t=0.76
0.01895410256345298
% es.tEy (V/m) @ t=0.76
0
% es.tEz (V/m) @ t=0.76
0.014477570894754876
% V (V) @ t=0.76
0.009056921113719786
% es.normE (V/m) @ t=0.78
0.02502691254000292
% es.EX (V/m) @ t=0.78
0.019136730175679517
% es.EY (V/m) @ t=0.78
-0.006817356703450628
% es.EZ (V/m) @ t=0.78
0.01461696127948997
% es.tEX (V/m) @ t=0.78
0.019136730175682404
% es.tEY (V/m) @ t=0.78
0
% es.tEZ (V/m) @ t=0.78
0.014616961279491747
% es.Ex (V/m) @ t=0.78
0.019136730175679517
% es.Ey (V/m) @ t=0.78
-0.006817356703450628
% es.Ez (V/m) @ t=0.78
0.01461696127948997
% es.tEx (V/m) @ t=0.78
0.019136730175682404
% es.tEy (V/m) @ t=0.78
0
% es.tEz (V/m) @ t=0.78
0.014616961279491747
% V (V) @ t=0.78
0.009144136470576237
% es.normE (V/m) @ t=0.8
0.025265664289685796
% es.EX (V/m) @ t=0.8
0.019319357787910718
% es.EY (V/m) @ t=0.8
-0.006882317358529733
% es.EZ (V/m) @ t=0.8
0.014756351664225065
% es.tEX (V/m) @ t=0.8
0.019319357787912494
% es.tEY (V/m) @ t=0.8
0
% es.tEZ (V/m) @ t=0.8
0.014756351664207301
% es.Ex (V/m) @ t=0.8
0.019319357787910718
% es.Ey (V/m) @ t=0.8
-0.006882317358529733
% es.Ez (V/m) @ t=0.8
0.014756351664225065
% es.tEx (V/m) @ t=0.8
0.019319357787912494
% es.tEy (V/m) @ t=0.8
0
% es.tEz (V/m) @ t=0.8
0.014756351664207301
% V (V) @ t=0.8
0.009231351827432689
% es.normE (V/m) @ t=0.82
0.025504416039865536
% es.EX (V/m) @ t=0.82
0.019501985400138366
% es.EY (V/m) @ t=0.82
-0.00694727801360262
% es.EZ (V/m) @ t=0.82
0.014895742048956606
% es.tEX (V/m) @ t=0.82
0.019501985400141253
% es.tEY (V/m) @ t=0.82
0
% es.tEZ (V/m) @ t=0.82
0.014895742048944172
% es.Ex (V/m) @ t=0.82
0.019501985400138366
% es.Ey (V/m) @ t=0.82
-0.00694727801360262
% es.Ez (V/m) @ t=0.82
0.014895742048956606
% es.tEx (V/m) @ t=0.82
0.019501985400141253
% es.tEy (V/m) @ t=0.82
0
% es.tEz (V/m) @ t=0.82
0.014895742048944172
% V (V) @ t=0.82
0.009318567184289138
% es.normE (V/m) @ t=0.84
0.025743167790538875
% es.EX (V/m) @ t=0.84
0.01968461301236779
% es.EY (V/m) @ t=0.84
-0.007012238668686166
% es.EZ (V/m) @ t=0.84
0.015035132433688148
% es.tEX (V/m) @ t=0.84
0.019684613012367125
% es.tEY (V/m) @ t=0.84
0
% es.tEZ (V/m) @ t=0.84
0.015035132433681042
% es.Ex (V/m) @ t=0.84
0.01968461301236779
% es.Ey (V/m) @ t=0.84
-0.007012238668686166
% es.Ez (V/m) @ t=0.84
0.015035132433688148
% es.tEx (V/m) @ t=0.84
0.019684613012367125
% es.tEy (V/m) @ t=0.84
0
% es.tEz (V/m) @ t=0.84
0.015035132433681042
% V (V) @ t=0.84
0.009405782541145586
% es.normE (V/m) @ t=0.86
0.025981919541686986
% es.EX (V/m) @ t=0.86
0.01986724062459544
% es.EY (V/m) @ t=0.86
-0.007077199323755501
% es.EZ (V/m) @ t=0.86
0.015174522818426794
% es.tEX (V/m) @ t=0.86
0.01986724062460099
% es.tEY (V/m) @ t=0.86
0
% es.tEZ (V/m) @ t=0.86
0.015174522818419689
% es.Ex (V/m) @ t=0.86
0.01986724062459544
% es.Ey (V/m) @ t=0.86
-0.007077199323755501
% es.Ez (V/m) @ t=0.86
0.015174522818426794
% es.tEx (V/m) @ t=0.86
0.01986724062460099
% es.tEy (V/m) @ t=0.86
0
% es.tEz (V/m) @ t=0.86
0.015174522818419689
% V (V) @ t=0.86
0.009492997898002035
% es.normE (V/m) @ t=0.88
0.026220671293299507
% es.EX (V/m) @ t=0.88
0.020049868236823087
% es.EY (V/m) @ t=0.88
-0.0071421599788381585
% es.EZ (V/m) @ t=0.88
0.015313913203161889
% es.tEX (V/m) @ t=0.88
0.020049868236827306
% es.tEY (V/m) @ t=0.88
0
% es.tEZ (V/m) @ t=0.88
0.015313913203153007
% es.Ex (V/m) @ t=0.88
0.020049868236823087
% es.Ey (V/m) @ t=0.88
-0.0071421599788381585
% es.Ez (V/m) @ t=0.88
0.015313913203161889
% es.tEx (V/m) @ t=0.88
0.020049868236827306
% es.tEy (V/m) @ t=0.88
0
% es.tEz (V/m) @ t=0.88
0.015313913203153007
% V (V) @ t=0.88
0.009580213254858486
% es.normE (V/m) @ t=0.9
0.026459423045361634
% es.EX (V/m) @ t=0.9
0.020232495849052512
% es.EY (V/m) @ t=0.9
-0.007207120633920816
% es.EZ (V/m) @ t=0.9
0.01545330358789343
% es.tEX (V/m) @ t=0.9
0.020232495849053622
% es.tEY (V/m) @ t=0.9
0
% es.tEZ (V/m) @ t=0.9
0.015453303587884548
% es.Ex (V/m) @ t=0.9
0.020232495849052512
% es.Ey (V/m) @ t=0.9
-0.007207120633920816
% es.Ez (V/m) @ t=0.9
0.01545330358789343
% es.tEx (V/m) @ t=0.9
0.020232495849053622
% es.tEy (V/m) @ t=0.9
0
% es.tEz (V/m) @ t=0.9
0.015453303587884548
% V (V) @ t=0.9
0.009667428611714934
% es.normE (V/m) @ t=0.92
0.026698174797859228
% es.EX (V/m) @ t=0.92
0.02041512346128016
% es.EY (V/m) @ t=0.92
-0.0072720812889830455
% es.EZ (V/m) @ t=0.92
0.015592693972632077
% es.tEX (V/m) @ t=0.92
0.020415123461287044
% es.tEY (V/m) @ t=0.92
0
% es.tEZ (V/m) @ t=0.92
0.015592693972626748
% es.Ex (V/m) @ t=0.92
0.02041512346128016
% es.Ey (V/m) @ t=0.92
-0.0072720812889830455
% es.Ez (V/m) @ t=0.92
0.015592693972632077
% es.tEx (V/m) @ t=0.92
0.020415123461287044
% es.tEy (V/m) @ t=0.92
0
% es.tEz (V/m) @ t=0.92
0.015592693972626748
% V (V) @ t=0.92
0.009754643968571383
% es.normE (V/m) @ t=0.94
0.026936926550778416
% es.EX (V/m) @ t=0.94
0.02059775107351136
% es.EY (V/m) @ t=0.94
-0.007337041944055045
% es.EZ (V/m) @ t=0.94
0.01573208435735296
% es.tEX (V/m) @ t=0.94
0.020597751073513137
% es.tEY (V/m) @ t=0.94
0
% es.tEZ (V/m) @ t=0.94
0.015732084357345855
% es.Ex (V/m) @ t=0.94
0.02059775107351136
% es.Ey (V/m) @ t=0.94
-0.007337041944055045
% es.Ez (V/m) @ t=0.94
0.01573208435735296
% es.tEx (V/m) @ t=0.94
0.020597751073513137
% es.tEy (V/m) @ t=0.94
0
% es.tEz (V/m) @ t=0.94
0.015732084357345855
% V (V) @ t=0.94
0.009841859325427832
% es.normE (V/m) @ t=0.96
0.027175678304127048
% es.EX (V/m) @ t=0.96
0.020780378685740786
% es.EY (V/m) @ t=0.96
-0.007402002599145696
% es.EZ (V/m) @ t=0.96
0.015871474742091607
% es.tEX (V/m) @ t=0.96
0.02078037868574434
% es.tEY (V/m) @ t=0.96
0
% es.tEZ (V/m) @ t=0.96
0.015871474742082725
% es.Ex (V/m) @ t=0.96
0.020780378685740786
% es.Ey (V/m) @ t=0.96
-0.007402002599145696
% es.Ez (V/m) @ t=0.96
0.015871474742091607
% es.tEx (V/m) @ t=0.96
0.02078037868574434
% es.tEy (V/m) @ t=0.96
0
% es.tEz (V/m) @ t=0.96
0.015871474742082725
% V (V) @ t=0.96
0.00992907468228428
% es.normE (V/m) @ t=0.98
0.027414430057876225
% es.EX (V/m) @ t=0.98
0.020963006297963105
% es.EY (V/m) @ t=0.98
-0.007466963254226577
% es.EZ (V/m) @ t=0.98
0.01601086512683736
% es.tEX (V/m) @ t=0.98
0.020963006297969544
% es.tEY (V/m) @ t=0.98
0
% es.tEZ (V/m) @ t=0.98
0.01601086512683736
% es.Ex (V/m) @ t=0.98
0.020963006297963105
% es.Ey (V/m) @ t=0.98
-0.007466963254226577
% es.Ez (V/m) @ t=0.98
0.01601086512683736
% es.tEx (V/m) @ t=0.98
0.020963006297969544
% es.tEy (V/m) @ t=0.98
0
% es.tEz (V/m) @ t=0.98
0.01601086512683736
% V (V) @ t=0.98
0.010016290039140733
% es.normE (V/m) @ t=1
0.027653181812018212
% es.EX (V/m) @ t=1
0.02114563391019786
% es.EY (V/m) @ t=1
-0.007531923909298577
% es.EZ (V/m) @ t=1
0.0161502555115689
% es.tEX (V/m) @ t=1
0.021145633910198525
% es.tEY (V/m) @ t=1
0
% es.tEZ (V/m) @ t=1
0.016150255511551137
% es.Ex (V/m) @ t=1
0.02114563391019786
% es.Ey (V/m) @ t=1
-0.007531923909298577