% Model:              1 neuron.mph
% Version:            COMSOL 6.1.0.252
% Date:               Mar 26 2023, 14:31
% Dimension:          0
% Nodes:              14017
% Expressions:        14017
% Description:        Electric field norm, Electric field, X component, Electric field, Y component, Electric field, Z component, Tangential electric field, X component, Tangential electric field, Y component, Tangential electric field, Z component, Electric field, x component, Electric field, y component, Electric field, z component, Tangential electric field, x component, Tangential electric field, y component, Tangential electric field, z component, Electric potential
% Length unit:        mm
% x
1
% y
14.200000000000001
% z
1
% es.normE (V/m) @ t=0
0.04355763566148442
% es.EX (V/m) @ t=0
0.032339258491778544
% es.EY (V/m) @ t=0
-0.0029233039314600084
% es.EZ (V/m) @ t=0
0.029032641608108256
% es.tEX (V/m) @ t=0
0.03233925849177055
% es.tEY (V/m) @ t=0
0
% es.tEZ (V/m) @ t=0
0.029032641608108367
% es.Ex (V/m) @ t=0
0.032339258491778544
% es.Ey (V/m) @ t=0
-0.0029233039314600084
% es.Ez (V/m) @ t=0
0.029032641608108256
% es.tEx (V/m) @ t=0
0.03233925849177055
% es.tEy (V/m) @ t=0
0
% es.tEz (V/m) @ t=0
0.029032641608108367
% V (V) @ t=0
0.007250650543095184
% es.normE (V/m) @ t=0.02
0.0398897180331583
% es.EX (V/m) @ t=0.02
0.029616019772704227
% es.EY (V/m) @ t=0.02
-0.0026771374741918486
% es.EZ (V/m) @ t=0.02
0.02658785272510633
% es.tEX (V/m) @ t=0.02
0.02961601977269579
% es.tEY (V/m) @ t=0.02
0
% es.tEZ (V/m) @ t=0.02
0.026587852725106442
% es.Ex (V/m) @ t=0.02
0.029616019772704227
% es.Ey (V/m) @ t=0.02
-0.0026771374741918486
% es.Ez (V/m) @ t=0.02
0.02658785272510633
% es.tEx (V/m) @ t=0.02
0.02961601977269579
% es.tEy (V/m) @ t=0.02
0
% es.tEz (V/m) @ t=0.02
0.026587852725106442
% V (V) @ t=0.02
0.006640084260729581
% es.normE (V/m) @ t=0.04
0.04025578231052881
% es.EX (V/m) @ t=0.04
0.029887801267714842
% es.EY (V/m) @ t=0.04
-0.0027017054759692627
% es.EZ (V/m) @ t=0.04
0.02683184921572468
% es.tEX (V/m) @ t=0.04
0.029887801267706404
% es.tEY (V/m) @ t=0.04
0
% es.tEZ (V/m) @ t=0.04
0.02683184921572479
% es.Ex (V/m) @ t=0.04
0.029887801267714842
% es.Ey (V/m) @ t=0.04
-0.0027017054759692627
% es.Ez (V/m) @ t=0.04
0.02683184921572468
% es.tEx (V/m) @ t=0.04
0.029887801267706404
% es.tEy (V/m) @ t=0.04
0
% es.tEz (V/m) @ t=0.04
0.02683184921572479
% V (V) @ t=0.04
0.006701019040460241
% es.normE (V/m) @ t=0.06
0.04062631431094353
% es.EX (V/m) @ t=0.06
0.03016290835194546
% es.EY (V/m) @ t=0.06
-0.0027265725535134955
% es.EZ (V/m) @ t=0.06
0.027078814160781506
% es.tEX (V/m) @ t=0.06
0.030162908351942797
% es.tEY (V/m) @ t=0.06
0
% es.tEZ (V/m) @ t=0.06
0.027078814160780618
% es.Ex (V/m) @ t=0.06
0.03016290835194546
% es.Ey (V/m) @ t=0.06
-0.0027265725535134955
% es.Ez (V/m) @ t=0.06
0.027078814160781506
% es.tEx (V/m) @ t=0.06
0.030162908351942797
% es.tEy (V/m) @ t=0.06
0
% es.tEz (V/m) @ t=0.06
0.027078814160780618
% V (V) @ t=0.06
0.0067627003878341025
% es.normE (V/m) @ t=0.08
0.04099978020384645
% es.EX (V/m) @ t=0.08
0.030440186138521064
% es.EY (V/m) @ t=0.08
-0.00275163727153771
% es.EZ (V/m) @ t=0.08
0.02732774299026164
% es.tEX (V/m) @ t=0.08
0.0304401861385184
% es.tEY (V/m) @ t=0.08
0
% es.tEZ (V/m) @ t=0.08
0.02732774299026075
% es.Ex (V/m) @ t=0.08
0.030440186138521064
% es.Ey (V/m) @ t=0.08
-0.00275163727153771
% es.Ez (V/m) @ t=0.08
0.02732774299026164
% es.tEx (V/m) @ t=0.08
0.0304401861385184
% es.tEy (V/m) @ t=0.08
0
% es.tEz (V/m) @ t=0.08
0.02732774299026075
% V (V) @ t=0.08
0.006824867560544118
% es.normE (V/m) @ t=0.1
0.04138092329162631
% es.EX (V/m) @ t=0.1
0.030723144059930263
% es.EY (V/m) @ t=0.1
-0.002777219160635447
% es.EZ (V/m) @ t=0.1
0.027581810768585013
% es.tEX (V/m) @ t=0.1
0.030723144059925822
% es.tEY (V/m) @ t=0.1
0
% es.tEZ (V/m) @ t=0.1
0.027581810768584125
% es.Ex (V/m) @ t=0.1
0.030723144059930263
% es.Ey (V/m) @ t=0.1
-0.002777219160635447
% es.Ez (V/m) @ t=0.1
0.027581810768585013
% es.tEx (V/m) @ t=0.1
0.030723144059925822
% es.tEy (V/m) @ t=0.1
0
% es.tEz (V/m) @ t=0.1
0.027581810768584125
% V (V) @ t=0.1
0.0068883060053936416
% es.normE (V/m) @ t=0.12
0.04176206637942114
% es.EX (V/m) @ t=0.12
0.031006101981334133
% es.EY (V/m) @ t=0.12
-0.002802801049736292
% es.EZ (V/m) @ t=0.12
0.02783587854690206
% es.tEX (V/m) @ t=0.12
0.03100610198133147
% es.tEY (V/m) @ t=0.12
0
% es.tEZ (V/m) @ t=0.12
0.02783587854690217
% es.Ex (V/m) @ t=0.12
0.031006101981334133
% es.Ey (V/m) @ t=0.12
-0.002802801049736292
% es.Ez (V/m) @ t=0.12
0.02783587854690206
% es.tEx (V/m) @ t=0.12
0.03100610198133147
% es.tEy (V/m) @ t=0.12
0
% es.tEz (V/m) @ t=0.12
0.02783587854690217
% V (V) @ t=0.12
0.006951744450243167
% es.normE (V/m) @ t=0.14
0.042143209467241594
% es.EX (V/m) @ t=0.14
0.03128905990273978
% es.EY (V/m) @ t=0.14
-0.002828382938830476
% es.EZ (V/m) @ t=0.14
0.02808994632522277
% es.tEX (V/m) @ t=0.14
0.031289059902737115
% es.tEY (V/m) @ t=0.14
0
% es.tEZ (V/m) @ t=0.14
0.028089946325221105
% es.Ex (V/m) @ t=0.14
0.03128905990273978
% es.Ey (V/m) @ t=0.14
-0.002828382938830476
% es.Ez (V/m) @ t=0.14
0.02808994632522277
% es.tEx (V/m) @ t=0.14
0.031289059902737115
% es.tEy (V/m) @ t=0.14
0
% es.tEz (V/m) @ t=0.14
0.028089946325221105
% V (V) @ t=0.14
0.007015182895092691
% es.normE (V/m) @ t=0.16
0.04253702600230833
% es.EX (V/m) @ t=0.16
0.031581449151131036
% es.EY (V/m) @ t=0.16
-0.0028548131975165703
% es.EZ (V/m) @ t=0.16
0.028352437148204124
% es.tEX (V/m) @ t=0.16
0.03158144915112482
% es.tEY (V/m) @ t=0.16
0
% es.tEZ (V/m) @ t=0.16
0.028352437148205012
% es.Ex (V/m) @ t=0.16
0.031581449151131036
% es.Ey (V/m) @ t=0.16
-0.0028548131975165703
% es.Ez (V/m) @ t=0.16
0.028352437148204124
% es.tEx (V/m) @ t=0.16
0.03158144915112482
% es.tEy (V/m) @ t=0.16
0
% es.tEz (V/m) @ t=0.16
0.028352437148205012
% V (V) @ t=0.16
0.0070807384077861465
% es.normE (V/m) @ t=0.18
0.04294086376723033
% es.EX (V/m) @ t=0.18
0.031881295999150794
% es.EY (V/m) @ t=0.18
-0.002881914284464493
% es.EZ (V/m) @ t=0.18
0.028621588295329903
% es.tEX (V/m) @ t=0.18
0.03188129599914591
% es.tEY (V/m) @ t=0.18
0
% es.tEZ (V/m) @ t=0.18
0.028621588295329015
% es.Ex (V/m) @ t=0.18
0.031881295999150794
% es.Ey (V/m) @ t=0.18
-0.002881914284464493
% es.Ez (V/m) @ t=0.18
0.028621588295329903
% es.tEx (V/m) @ t=0.18
0.03188129599914591
% es.tEy (V/m) @ t=0.18
0
% es.tEz (V/m) @ t=0.18
0.028621588295329015
% V (V) @ t=0.18
0.00714796794200519
% es.normE (V/m) @ t=0.2
0.043344701532168926
% es.EX (V/m) @ t=0.2
0.032181142847171884
% es.EY (V/m) @ t=0.2
-0.00290901537140531
% es.EZ (V/m) @ t=0.2
0.028890739442452018
% es.tEX (V/m) @ t=0.2
0.032181142847167
% es.tEY (V/m) @ t=0.2
0
% es.tEZ (V/m) @ t=0.2
0.02889073944245124
% es.Ex (V/m) @ t=0.2
0.032181142847171884
% es.Ey (V/m) @ t=0.2
-0.00290901537140531
% es.Ez (V/m) @ t=0.2
0.028890739442452018
% es.tEx (V/m) @ t=0.2
0.032181142847167
% es.tEy (V/m) @ t=0.2
0
% es.tEz (V/m) @ t=0.2
0.02889073944245124
% V (V) @ t=0.2
0.007215197476224233
% es.normE (V/m) @ t=0.22
0.04374853929712657
% es.EX (V/m) @ t=0.22
0.032480989695190754
% es.EY (V/m) @ t=0.22
-0.00293611645834968
% es.EZ (V/m) @ t=0.22
0.029159890589577797
% es.tEX (V/m) @ t=0.22
0.03248098969518631
% es.tEY (V/m) @ t=0.22
0
% es.tEZ (V/m) @ t=0.22
0.02915989058957702
% es.Ex (V/m) @ t=0.22
0.032480989695190754
% es.Ey (V/m) @ t=0.22
-0.00293611645834968
% es.Ez (V/m) @ t=0.22
0.029159890589577797
% es.tEx (V/m) @ t=0.22
0.03248098969518631
% es.tEy (V/m) @ t=0.22
0
% es.tEz (V/m) @ t=0.22
0.02915989058957702
% V (V) @ t=0.22
0.007282427010443273
% es.normE (V/m) @ t=0.24
0.04415237706210052
% es.EX (V/m) @ t=0.24
0.03278083654321007
% es.EY (V/m) @ t=0.24
-0.002963217545288721
% es.EZ (V/m) @ t=0.24
0.0294290417367018
% es.tEX (V/m) @ t=0.24
0.03278083654320563
% es.tEY (V/m) @ t=0.24
0
% es.tEZ (V/m) @ t=0.24
0.029429041736700134
% es.Ex (V/m) @ t=0.24
0.03278083654321007
% es.Ey (V/m) @ t=0.24
-0.002963217545288721
% es.Ez (V/m) @ t=0.24
0.0294290417367018
% es.tEx (V/m) @ t=0.24
0.03278083654320563
% es.tEy (V/m) @ t=0.24
0
% es.tEz (V/m) @ t=0.24
0.029429041736700134
% V (V) @ t=0.24
0.0073496565446623165
% es.normE (V/m) @ t=0.26
0.044556214827093425
% es.EX (V/m) @ t=0.26
0.03308068339123116
% es.EY (V/m) @ t=0.26
-0.0029903186322366437
% es.EZ (V/m) @ t=0.26
0.029698192883825802
% es.tEX (V/m) @ t=0.26
0.033080683391223165
% es.tEY (V/m) @ t=0.26
0
% es.tEZ (V/m) @ t=0.26
0.029698192883825802
% es.Ex (V/m) @ t=0.26
0.03308068339123116
% es.Ey (V/m) @ t=0.26
-0.0029903186322366437
% es.Ez (V/m) @ t=0.26
0.029698192883825802
% es.tEx (V/m) @ t=0.26
0.033080683391223165
% es.tEy (V/m) @ t=0.26
0
% es.tEz (V/m) @ t=0.26
0.029698192883825802
% V (V) @ t=0.26
0.007416886078881358
% es.normE (V/m) @ t=0.28
0.044960052592106795
% es.EX (V/m) @ t=0.28
0.03338053023925358
% es.EY (V/m) @ t=0.28
-0.0030174197191756846
% es.EZ (V/m) @ t=0.28
0.029967344030955023
% es.tEX (V/m) @ t=0.28
0.03338053023924914
% es.tEY (V/m) @ t=0.28
0
% es.tEZ (V/m) @ t=0.28
0.029967344030953358
% es.Ex (V/m) @ t=0.28
0.03338053023925358
% es.Ey (V/m) @ t=0.28
-0.0030174197191756846
% es.Ez (V/m) @ t=0.28
0.029967344030955023
% es.tEx (V/m) @ t=0.28
0.03338053023924914
% es.tEy (V/m) @ t=0.28
0
% es.tEz (V/m) @ t=0.28
0.029967344030953358
% V (V) @ t=0.28
0.0074841156131004016
% es.normE (V/m) @ t=0.3
0.045366846488038196
% es.EX (V/m) @ t=0.3
0.03368256703735062
% es.EY (V/m) @ t=0.3
-0.0030447196868599313
% es.EZ (V/m) @ t=0.3
0.03023847086200049
% es.tEX (V/m) @ t=0.3
0.03368256703734618
% es.tEY (V/m) @ t=0.3
0
% es.tEZ (V/m) @ t=0.3
0.030238470861997935
% es.Ex (V/m) @ t=0.3
0.03368256703735062
% es.Ey (V/m) @ t=0.3
-0.0030447196868599313
% es.Ez (V/m) @ t=0.3
0.03023847086200049
% es.tEx (V/m) @ t=0.3
0.03368256703734618
% es.tEy (V/m) @ t=0.3
0
% es.tEz (V/m) @ t=0.3
0.030238470861997935
% V (V) @ t=0.3
0.007551835594755492
% es.normE (V/m) @ t=0.32
0.0457948531142496
% es.EX (V/m) @ t=0.32
0.03400031857262098
% es.EY (V/m) @ t=0.32
-0.003073446791469703
% es.EZ (V/m) @ t=0.32
0.03052377489000968
% es.tEX (V/m) @ t=0.32
0.034000318572612986
% es.tEY (V/m) @ t=0.32
0
% es.tEZ (V/m) @ t=0.32
0.03052377489000979
% es.Ex (V/m) @ t=0.32
0.03400031857262098
% es.Ey (V/m) @ t=0.32
-0.003073446791469703
% es.Ez (V/m) @ t=0.32
0.03052377489000968
% es.tEx (V/m) @ t=0.32
0.034000318572612986
% es.tEy (V/m) @ t=0.32
0
% es.tEz (V/m) @ t=0.32
0.03052377489000979
% V (V) @ t=0.32
0.007623074950039594
% es.normE (V/m) @ t=0.34
0.046222859740479925
% es.EX (V/m) @ t=0.34
0.03431807010788335
% es.EY (V/m) @ t=0.34
-0.0031021738960670397
% es.EZ (V/m) @ t=0.34
0.030809078918024202
% es.tEX (V/m) @ t=0.34
0.034318070107878906
% es.tEY (V/m) @ t=0.34
0
% es.tEZ (V/m) @ t=0.34
0.030809078918022537
% es.Ex (V/m) @ t=0.34
0.03431807010788335
% es.Ey (V/m) @ t=0.34
-0.0031021738960670397
% es.Ez (V/m) @ t=0.34
0.030809078918024202
% es.tEx (V/m) @ t=0.34
0.034318070107878906
% es.tEy (V/m) @ t=0.34
0
% es.tEz (V/m) @ t=0.34
0.030809078918022537
% V (V) @ t=0.34
0.007694314305323695
% es.normE (V/m) @ t=0.36
0.04665086636673272
% es.EX (V/m) @ t=0.36
0.034635821643151044
% es.EY (V/m) @ t=0.36
-0.00313090100067015
% es.EZ (V/m) @ t=0.36
0.031094382946033616
% es.tEX (V/m) @ t=0.36
0.0346358216431466
% es.tEY (V/m) @ t=0.36
0
% es.tEZ (V/m) @ t=0.36
0.031094382946033727
% es.Ex (V/m) @ t=0.36
0.034635821643151044
% es.Ey (V/m) @ t=0.36
-0.00313090100067015
% es.Ez (V/m) @ t=0.36
0.031094382946033616
% es.tEx (V/m) @ t=0.36
0.0346358216431466
% es.tEy (V/m) @ t=0.36
0
% es.tEz (V/m) @ t=0.36
0.031094382946033727
% V (V) @ t=0.36
0.007765553660607797
% es.normE (V/m) @ t=0.38
0.04707887299300417
% es.EX (V/m) @ t=0.38
0.03495357317841563
% es.EY (V/m) @ t=0.38
-0.0031596281052759245
% es.EZ (V/m) @ t=0.38
0.03137968697404281
% es.tEX (V/m) @ t=0.38
0.03495357317841119
% es.tEY (V/m) @ t=0.38
0
% es.tEZ (V/m) @ t=0.38
0.03137968697404292
% es.Ex (V/m) @ t=0.38
0.03495357317841563
% es.Ey (V/m) @ t=0.38
-0.0031596281052759245
% es.Ez (V/m) @ t=0.38
0.03137968697404281
% es.tEx (V/m) @ t=0.38
0.03495357317841119
% es.tEy (V/m) @ t=0.38
0
% es.tEz (V/m) @ t=0.38
0.03137968697404292
% V (V) @ t=0.38
0.007836793015891895
% es.normE (V/m) @ t=0.4
0.04750687961929769
% es.EX (V/m) @ t=0.4
0.03527132471368244
% es.EY (V/m) @ t=0.4
-0.0031883552098821433
% es.EZ (V/m) @ t=0.4
0.031664991002052
% es.tEX (V/m) @ t=0.4
0.035271324713678
% es.tEY (V/m) @ t=0.4
0
% es.tEZ (V/m) @ t=0.4
0.03166499100205211
% es.Ex (V/m) @ t=0.4
0.03527132471368244
% es.Ey (V/m) @ t=0.4
-0.0031883552098821433
% es.Ez (V/m) @ t=0.4
0.031664991002052
% es.tEx (V/m) @ t=0.4
0.035271324713678
% es.tEy (V/m) @ t=0.4
0
% es.tEz (V/m) @ t=0.4
0.03166499100205211
% V (V) @ t=0.4
0.007908032371175999
% es.normE (V/m) @ t=0.42
0.04793488624561599
% es.EX (V/m) @ t=0.42
0.0355890762489488
% es.EY (V/m) @ t=0.42
-0.003217082314477704
% es.EZ (V/m) @ t=0.42
0.031950295030070186
% es.tEX (V/m) @ t=0.42
0.03558907624894081
% es.tEY (V/m) @ t=0.42
0
% es.tEZ (V/m) @ t=0.42
0.03195029503006852
% es.Ex (V/m) @ t=0.42
0.0355890762489488
% es.Ey (V/m) @ t=0.42
-0.003217082314477704
% es.Ez (V/m) @ t=0.42
0.031950295030070186
% es.tEx (V/m) @ t=0.42
0.03558907624894081
% es.tEy (V/m) @ t=0.42
0
% es.tEz (V/m) @ t=0.42
0.03195029503006852
% V (V) @ t=0.42
0.007979271726460097
% es.normE (V/m) @ t=0.44
0.0483628928719414
% es.EX (V/m) @ t=0.44
0.03590682778421206
% es.EY (V/m) @ t=0.44
-0.0032458094190683795
% es.EZ (V/m) @ t=0.44
0.03223559905807405
% es.tEX (V/m) @ t=0.44
0.03590682778420762
% es.tEY (V/m) @ t=0.44
0
% es.tEZ (V/m) @ t=0.44
0.03223559905807594
% es.Ex (V/m) @ t=0.44
0.03590682778421206
% es.Ey (V/m) @ t=0.44
-0.0032458094190683795
% es.Ez (V/m) @ t=0.44
0.03223559905807405
% es.tEx (V/m) @ t=0.44
0.03590682778420762
% es.tEy (V/m) @ t=0.44
0
% es.tEz (V/m) @ t=0.44
0.03223559905807594
% V (V) @ t=0.44
0.0080505110817442
% es.normE (V/m) @ t=0.46
0.04882891039672372
% es.EX (V/m) @ t=0.46
0.03625286020867957
% es.EY (V/m) @ t=0.46
-0.0032770817019982523
% es.EZ (V/m) @ t=0.46
0.03254617262812387
% es.tEX (V/m) @ t=0.46
0.036252860208673354
% es.tEY (V/m) @ t=0.46
0
% es.tEZ (V/m) @ t=0.46
0.03254617262812398
% es.Ex (V/m) @ t=0.46
0.03625286020867957
% es.Ey (V/m) @ t=0.46
-0.0032770817019982523
% es.Ez (V/m) @ t=0.46
0.03254617262812387
% es.tEx (V/m) @ t=0.46
0.036252860208673354
% es.tEy (V/m) @ t=0.46
0
% es.tEz (V/m) @ t=0.46
0.03254617262812398
% V (V) @ t=0.46
0.008128097981447847
% es.normE (V/m) @ t=0.48
0.049312311112092194
% es.EX (V/m) @ t=0.48
0.036611826083877475
% es.EY (V/m) @ t=0.48
-0.003309517948959062
% es.EZ (V/m) @ t=0.48
0.03286830249594885
% es.tEX (V/m) @ t=0.48
0.03661182608387126
% es.tEY (V/m) @ t=0.48
0
% es.tEZ (V/m) @ t=0.48
0.03286830249594719
% es.Ex (V/m) @ t=0.48
0.036611826083877475
% es.Ey (V/m) @ t=0.48
-0.003309517948959062
% es.Ez (V/m) @ t=0.48
0.03286830249594885
% es.tEx (V/m) @ t=0.48
0.03661182608387126
% es.tEy (V/m) @ t=0.48
0
% es.tEz (V/m) @ t=0.48
0.03286830249594719
% V (V) @ t=0.48
0.008208587747906936
% es.normE (V/m) @ t=0.5
0.04979571182765687
% es.EX (V/m) @ t=0.5
0.03697079195907538
% es.EY (V/m) @ t=0.5
-0.0033419541959123222
% es.EZ (V/m) @ t=0.5
0.033190432363773725
% es.tEX (V/m) @ t=0.5
0.03697079195907005
% es.tEY (V/m) @ t=0.5
0
% es.tEZ (V/m) @ t=0.5
0.03319043236377206
% es.Ex (V/m) @ t=0.5
0.03697079195907538
% es.Ey (V/m) @ t=0.5
-0.0033419541959123222
% es.Ez (V/m) @ t=0.5
0.033190432363773725
% es.tEx (V/m) @ t=0.5
0.03697079195907005
% es.tEy (V/m) @ t=0.5
0
% es.tEz (V/m) @ t=0.5
0.03319043236377206
% V (V) @ t=0.5
0.008289077514366023
% es.normE (V/m) @ t=0.52
0.05027911254341382
% es.EX (V/m) @ t=0.52
0.037329757834275945
% es.EY (V/m) @ t=0.52
-0.0033743904428695792
% es.EZ (V/m) @ t=0.52
0.03351256223159693
% es.tEX (V/m) @ t=0.52
0.03732975783426973
% es.tEY (V/m) @ t=0.52
0
% es.tEZ (V/m) @ t=0.52
0.03351256223159704
% es.Ex (V/m) @ t=0.52
0.037329757834275945
% es.Ey (V/m) @ t=0.52
-0.0033743904428695792
% es.Ez (V/m) @ t=0.52
0.03351256223159693
% es.tEx (V/m) @ t=0.52
0.03732975783426973
% es.tEy (V/m) @ t=0.52
0
% es.tEz (V/m) @ t=0.52
0.03351256223159704
% V (V) @ t=0.52
0.008369567280825111
% es.normE (V/m) @ t=0.54
0.05076251325935842
% es.EX (V/m) @ t=0.54
0.037688723709475624
% es.EY (V/m) @ t=0.54
-0.0034068266898321653
% es.EZ (V/m) @ t=0.54
0.03383469209942358
% es.tEX (V/m) @ t=0.54
0.03768872370946941
% es.tEY (V/m) @ t=0.54
0
% es.tEZ (V/m) @ t=0.54
0.03383469209942369
% es.Ex (V/m) @ t=0.54
0.037688723709475624
% es.Ey (V/m) @ t=0.54
-0.0034068266898321653
% es.Ez (V/m) @ t=0.54
0.03383469209942358
% es.tEx (V/m) @ t=0.54
0.03768872370946941
% es.tEy (V/m) @ t=0.54
0
% es.tEz (V/m) @ t=0.54
0.03383469209942369
% V (V) @ t=0.54
0.008450057047284201
% es.normE (V/m) @ t=0.56
0.05124591397548531
% es.EX (V/m) @ t=0.56
0.03804768958467886
% es.EY (V/m) @ t=0.56
-0.0034392629368000804
% es.EZ (V/m) @ t=0.56
0.03415682196724856
% es.tEX (V/m) @ t=0.56
0.038047689584674416
% es.tEY (V/m) @ t=0.56
0
% es.tEZ (V/m) @ t=0.56
0.0341568219672469
% es.Ex (V/m) @ t=0.56
0.03804768958467886
% es.Ey (V/m) @ t=0.56
-0.0034392629368000804
% es.Ez (V/m) @ t=0.56
0.03415682196724856
% es.tEx (V/m) @ t=0.56
0.038047689584674416
% es.tEy (V/m) @ t=0.56
0
% es.tEz (V/m) @ t=0.56
0.0341568219672469
% V (V) @ t=0.56
0.008530546813743288
% es.normE (V/m) @ t=0.58
0.05172931469178311
% es.EX (V/m) @ t=0.58
0.03840665545987765
% es.EY (V/m) @ t=0.58
-0.0034716991837520084
% es.EZ (V/m) @ t=0.58
0.034478951835073435
% es.tEX (V/m) @ t=0.58
0.03840665545987143
% es.tEY (V/m) @ t=0.58
0
% es.tEZ (V/m) @ t=0.58
0.03447895183507177
% es.Ex (V/m) @ t=0.58
0.03840665545987765
% es.Ey (V/m) @ t=0.58
-0.0034716991837520084
% es.Ez (V/m) @ t=0.58
0.034478951835073435
% es.tEx (V/m) @ t=0.58
0.03840665545987143
% es.tEy (V/m) @ t=0.58
0
% es.tEz (V/m) @ t=0.58
0.03447895183507177
% V (V) @ t=0.58
0.008611036580202376
% es.normE (V/m) @ t=0.6
0.05221271540825162
% es.EX (V/m) @ t=0.6
0.038765621335073774
% es.EY (V/m) @ t=0.6
-0.003504135430718147
% es.EZ (V/m) @ t=0.6
0.034801081702900194
% es.tEX (V/m) @ t=0.6
0.038765621335069333
% es.tEY (V/m) @ t=0.6
0
% es.tEZ (V/m) @ t=0.6
0.034801081702900305
% es.Ex (V/m) @ t=0.6
0.038765621335073774
% es.Ey (V/m) @ t=0.6
-0.003504135430718147
% es.Ez (V/m) @ t=0.6
0.034801081702900194
% es.tEx (V/m) @ t=0.6
0.038765621335069333
% es.tEy (V/m) @ t=0.6
0
% es.tEz (V/m) @ t=0.6
0.034801081702900305
% V (V) @ t=0.6
0.008691526346661463
% es.normE (V/m) @ t=0.62
0.05269611612488658
% es.EX (V/m) @ t=0.62
0.039124587210277006
% es.EY (V/m) @ t=0.62
-0.003536571677669631
% es.EZ (V/m) @ t=0.62
0.03512321157072151
% es.tEX (V/m) @ t=0.62
0.03912458721026901
% es.tEY (V/m) @ t=0.62
0
% es.tEZ (V/m) @ t=0.62
0.035123211570721624
% es.Ex (V/m) @ t=0.62
0.039124587210277006
% es.Ey (V/m) @ t=0.62
-0.003536571677669631
% es.Ez (V/m) @ t=0.62
0.03512321157072151
% es.tEx (V/m) @ t=0.62
0.03912458721026901
% es.tEy (V/m) @ t=0.62
0
% es.tEz (V/m) @ t=0.62
0.035123211570721624
% V (V) @ t=0.62
0.008772016113120552
% es.normE (V/m) @ t=0.64
0.05317951684168255
% es.EX (V/m) @ t=0.64
0.03948355308547402
% es.EY (V/m) @ t=0.64
-0.003569007924630885
% es.EZ (V/m) @ t=0.64
0.03544534143854838
% es.tEX (V/m) @ t=0.64
0.03948355308547047
% es.tEY (V/m) @ t=0.64
0
% es.tEZ (V/m) @ t=0.64
0.035445341438548494
% es.Ex (V/m) @ t=0.64
0.03948355308547402
% es.Ey (V/m) @ t=0.64
-0.003569007924630885
% es.Ez (V/m) @ t=0.64
0.03544534143854838
% es.tEx (V/m) @ t=0.64
0.03948355308547047
% es.tEy (V/m) @ t=0.64
0
% es.tEz (V/m) @ t=0.64
0.035445341438548494
% V (V) @ t=0.64
0.00885250587957964
% es.normE (V/m) @ t=0.66
0.05366291755864038
% es.EX (V/m) @ t=0.66
0.03984251896067903
% es.EY (V/m) @ t=0.66
-0.003601444171598356
% es.EZ (V/m) @ t=0.66
0.035767471306373144
% es.tEX (V/m) @ t=0.66
0.039842518960671036
% es.tEY (V/m) @ t=0.66
0
% es.tEZ (V/m) @ t=0.66
0.035767471306373255
% es.Ex (V/m) @ t=0.66
0.03984251896067903
% es.Ey (V/m) @ t=0.66
-0.003601444171598356
% es.Ez (V/m) @ t=0.66
0.035767471306373144
% es.tEx (V/m) @ t=0.66
0.039842518960671036
% es.tEy (V/m) @ t=0.66
0
% es.tEz (V/m) @ t=0.66
0.035767471306373255
% V (V) @ t=0.66
0.008932995646038729
% es.normE (V/m) @ t=0.68
0.05414631827574436
% es.EX (V/m) @ t=0.68
0.04020148483587338
% es.EY (V/m) @ t=0.68
-0.0036338804185485074
% es.EZ (V/m) @ t=0.68
0.03608960117420168
% es.tEX (V/m) @ t=0.68
0.04020148483586716
% es.tEY (V/m) @ t=0.68
0
% es.tEZ (V/m) @ t=0.68
0.036089601174200014
% es.Ex (V/m) @ t=0.68
0.04020148483587338
% es.Ey (V/m) @ t=0.68
-0.0036338804185485074
% es.Ez (V/m) @ t=0.68
0.03608960117420168
% es.tEx (V/m) @ t=0.68
0.04020148483586716
% es.tEy (V/m) @ t=0.68
0
% es.tEz (V/m) @ t=0.68
0.036089601174200014
% V (V) @ t=0.68
0.009013485412497815
% es.normE (V/m) @ t=0.7
0.054629718993000315
% es.EX (V/m) @ t=0.7
0.0405604507110775
% es.EY (V/m) @ t=0.7
-0.003666316665509761
% es.EZ (V/m) @ t=0.7
0.03641173104202322
% es.tEX (V/m) @ t=0.7
0.04056045071107128
% es.tEY (V/m) @ t=0.7
0
% es.tEZ (V/m) @ t=0.7
0.036411731042021556
% es.Ex (V/m) @ t=0.7
0.0405604507110775
% es.Ey (V/m) @ t=0.7
-0.003666316665509761
% es.Ez (V/m) @ t=0.7
0.03641173104202322
% es.tEx (V/m) @ t=0.7
0.04056045071107128
% es.tEy (V/m) @ t=0.7
0
% es.tEz (V/m) @ t=0.7
0.036411731042021556
% V (V) @ t=0.7
0.009093975178956902
% es.normE (V/m) @ t=0.72
0.05511311971039949
% es.EX (V/m) @ t=0.72
0.04091941658627629
% es.EY (V/m) @ t=0.72
-0.0036987529124741236
% es.EZ (V/m) @ t=0.72
0.03673386090984809
% es.tEX (V/m) @ t=0.72
0.040919416586270074
% es.tEY (V/m) @ t=0.72
0
% es.tEZ (V/m) @ t=0.72
0.03673386090984643
% es.Ex (V/m) @ t=0.72
0.04091941658627629
% es.Ey (V/m) @ t=0.72
-0.0036987529124741236
% es.Ez (V/m) @ t=0.72
0.03673386090984809
% es.tEx (V/m) @ t=0.72
0.040919416586270074
% es.tEy (V/m) @ t=0.72
0
% es.tEz (V/m) @ t=0.72
0.03673386090984643
% V (V) @ t=0.72
0.009174464945415992
% es.normE (V/m) @ t=0.74
0.05559652042794281
% es.EX (V/m) @ t=0.74
0.04127838246147508
% es.EY (V/m) @ t=0.74
-0.003731189159434045
% es.EZ (V/m) @ t=0.74
0.03705599077767818
% es.tEX (V/m) @ t=0.74
0.04127838246147064
% es.tEY (V/m) @ t=0.74
0
% es.tEZ (V/m) @ t=0.74
0.03705599077767652
% es.Ex (V/m) @ t=0.74
0.04127838246147508
% es.Ey (V/m) @ t=0.74
-0.003731189159434045
% es.Ez (V/m) @ t=0.74
0.03705599077767818
% es.tEx (V/m) @ t=0.74
0.04127838246147064
% es.tEy (V/m) @ t=0.74
0
% es.tEz (V/m) @ t=0.74
0.03705599077767652
% V (V) @ t=0.74
0.00925495471187508
% es.normE (V/m) @ t=0.76
0.056125806810499834
% es.EX (V/m) @ t=0.76
0.04167130874021385
% es.EY (V/m) @ t=0.76
-0.0037667154075857745
% es.EZ (V/m) @ t=0.76
0.0374088234651343
% es.tEX (V/m) @ t=0.76
0.041671308740208524
% es.tEY (V/m) @ t=0.76
0
% es.tEZ (V/m) @ t=0.76
0.03740882346513441
% es.Ex (V/m) @ t=0.76
0.04167130874021385
% es.Ey (V/m) @ t=0.76
-0.0037667154075857745
% es.Ez (V/m) @ t=0.76
0.0374088234651343
% es.tEx (V/m) @ t=0.76
0.041671308740208524
% es.tEy (V/m) @ t=0.76
0
% es.tEz (V/m) @ t=0.76
0.03740882346513441
% V (V) @ t=0.76
0.009343046409998742
% es.normE (V/m) @ t=0.78
0.05666558169451181
% es.EX (V/m) @ t=0.78
0.04207199765540537
% es.EY (V/m) @ t=0.78
-0.00380294796521774
% es.EZ (V/m) @ t=0.78
0.037768674173642935
% es.tEX (V/m) @ t=0.78
0.0420719976553956
% es.tEY (V/m) @ t=0.78
0
% es.tEZ (V/m) @ t=0.78
0.0377686741736466
% es.Ex (V/m) @ t=0.78
0.04207199765540537
% es.Ey (V/m) @ t=0.78
-0.00380294796521774
% es.Ez (V/m) @ t=0.78
0.037768674173642935
% es.tEx (V/m) @ t=0.78
0.0420719976553956
% es.tEy (V/m) @ t=0.78
0
% es.tEz (V/m) @ t=0.78
0.0377686741736466
% V (V) @ t=0.78
0.009432875750366105
% es.normE (V/m) @ t=0.8
0.05720535657873223
% es.EX (V/m) @ t=0.8
0.04247268657059333
% es.EY (V/m) @ t=0.8
-0.003839180522871022
% es.EZ (V/m) @ t=0.8
0.03812852488215157
% es.tEX (V/m) @ t=0.8
0.04247268657058356
% es.tEY (V/m) @ t=0.8
0
% es.tEZ (V/m) @ t=0.8
0.038128524882155346
% es.Ex (V/m) @ t=0.8
0.04247268657059333
% es.Ey (V/m) @ t=0.8
-0.003839180522871022
% es.Ez (V/m) @ t=0.8
0.03812852488215157
% es.tEx (V/m) @ t=0.8
0.04247268657058356
% es.tEy (V/m) @ t=0.8
0
% es.tEz (V/m) @ t=0.8
0.038128524882155346
% V (V) @ t=0.8
0.00952270509073347
% es.normE (V/m) @ t=0.82
0.057745131463159245
% es.EX (V/m) @ t=0.82
0.04287337548578307
% es.EY (V/m) @ t=0.82
-0.003875413080510093
% es.EZ (V/m) @ t=0.82
0.03848837559066387
% es.tEX (V/m) @ t=0.82
0.04287337548577863
% es.tEY (V/m) @ t=0.82
0
% es.tEZ (V/m) @ t=0.82
0.038488375590662205
% es.Ex (V/m) @ t=0.82
0.04287337548578307
% es.Ey (V/m) @ t=0.82
-0.003875413080510093
% es.Ez (V/m) @ t=0.82
0.03848837559066387
% es.tEx (V/m) @ t=0.82
0.04287337548577863
% es.tEy (V/m) @ t=0.82
0
% es.tEz (V/m) @ t=0.82
0.038488375590662205
% V (V) @ t=0.82
0.009612534431100838
% es.normE (V/m) @ t=0.84
0.058284906347781815
% es.EX (V/m) @ t=0.84
0.04327406440097459
% es.EY (V/m) @ t=0.84
-0.0039116456381429465
% es.EZ (V/m) @ t=0.84
0.03884822629917095
% es.tEX (V/m) @ t=0.84
0.04327406440096393
% es.tEY (V/m) @ t=0.84
0
% es.tEZ (V/m) @ t=0.84
0.038848226299169175
% es.Ex (V/m) @ t=0.84
0.04327406440097459
% es.Ey (V/m) @ t=0.84
-0.0039116456381429465
% es.Ez (V/m) @ t=0.84
0.03884822629917095
% es.tEx (V/m) @ t=0.84
0.04327406440096393
% es.tEy (V/m) @ t=0.84
0
% es.tEz (V/m) @ t=0.84
0.038848226299169175
% V (V) @ t=0.84
0.009702363771468199
% es.normE (V/m) @ t=0.86
0.05882468123259374
% es.EX (V/m) @ t=0.86
0.043674753316155446
% es.EY (V/m) @ t=0.86
-0.003947878195792676
% es.EZ (V/m) @ t=0.86
0.03920807700768325
% es.tEX (V/m) @ t=0.86
0.043674753316151005
% es.tEY (V/m) @ t=0.86
0
% es.tEZ (V/m) @ t=0.86
0.039208077007681474
% es.Ex (V/m) @ t=0.86
0.043674753316155446
% es.Ey (V/m) @ t=0.86
-0.003947878195792676
% es.Ez (V/m) @ t=0.86
0.03920807700768325
% es.tEx (V/m) @ t=0.86
0.043674753316151005
% es.tEy (V/m) @ t=0.86
0
% es.tEz (V/m) @ t=0.86
0.039208077007681474
% V (V) @ t=0.86
0.009792193111835564
% es.normE (V/m) @ t=0.88
0.0593644561175922
% es.EX (V/m) @ t=0.88
0.04407544223134696
% es.EY (V/m) @ t=0.88
-0.003984110753437076
% es.EZ (V/m) @ t=0.88
0.039567927716182894
% es.tEX (V/m) @ t=0.88
0.04407544223133719
% es.tEY (V/m) @ t=0.88
0
% es.tEZ (V/m) @ t=0.88
0.039567927716183116
% es.Ex (V/m) @ t=0.88
0.04407544223134696
% es.Ey (V/m) @ t=0.88
-0.003984110753437076
% es.Ez (V/m) @ t=0.88
0.039567927716182894
% es.tEx (V/m) @ t=0.88
0.04407544223133719
% es.tEy (V/m) @ t=0.88
0
% es.tEz (V/m) @ t=0.88
0.039567927716183116
% V (V) @ t=0.88
0.009882022452202929
% es.normE (V/m) @ t=0.9
0.059904231002781486
% es.EX (V/m) @ t=0.9
0.044476131146539366
% es.EY (V/m) @ t=0.9
-0.004020343311069929
% es.EZ (V/m) @ t=0.9
0.039927778424695415
% es.tEX (V/m) @ t=0.9
0.04447613114653315
% es.tEY (V/m) @ t=0.9
0
% es.tEZ (V/m) @ t=0.9
0.03992777842469897
% es.Ex (V/m) @ t=0.9
0.044476131146539366
% es.Ey (V/m) @ t=0.9
-0.004020343311069929
% es.Ez (V/m) @ t=0.9
0.039927778424695415
% es.tEx (V/m) @ t=0.9
0.04447613114653315
% es.tEy (V/m) @ t=0.9
0
% es.tEz (V/m) @ t=0.9
0.03992777842469897
% V (V) @ t=0.9
0.009971851792570291
% es.normE (V/m) @ t=0.92
0.060444005888139966
% es.EX (V/m) @ t=0.92
0.04487682006172111
% es.EY (V/m) @ t=0.92
-0.0040565758687196585
% es.EZ (V/m) @ t=0.92
0.040287629133205716
% es.tEX (V/m) @ t=0.92
0.044876820061719336
% es.tEY (V/m) @ t=0.92
0
% es.tEZ (V/m) @ t=0.92
0.04028762913320594
% es.Ex (V/m) @ t=0.92
0.04487682006172111
% es.Ey (V/m) @ t=0.92
-0.0040565758687196585
% es.Ez (V/m) @ t=0.92
0.040287629133205716
% es.tEx (V/m) @ t=0.92
0.044876820061719336
% es.tEy (V/m) @ t=0.92
0
% es.tEz (V/m) @ t=0.92
0.04028762913320594
% V (V) @ t=0.92
0.010061681132937659
% es.normE (V/m) @ t=0.94
0.06098378077367983
% es.EX (V/m) @ t=0.94
0.04527750897691796
% es.EY (V/m) @ t=0.94
-0.0040928084263640585
% es.EZ (V/m) @ t=0.94
0.040647479841712686
% es.tEX (V/m) @ t=0.94
0.0452775089769073
% es.tEY (V/m) @ t=0.94
0
% es.tEZ (V/m) @ t=0.94
0.04064747984171113
% es.Ex (V/m) @ t=0.94
0.04527750897691796
% es.Ey (V/m) @ t=0.94
-0.0040928084263640585
% es.Ez (V/m) @ t=0.94
0.040647479841712686
% es.tEx (V/m) @ t=0.94
0.0452775089769073
% es.tEy (V/m) @ t=0.94
0
% es.tEz (V/m) @ t=0.94
0.04064747984171113
% V (V) @ t=0.94
0.010151510473305026
% es.normE (V/m) @ t=0.96
0.06152355565937711
% es.EX (V/m) @ t=0.96
0.04567819789210059
% es.EY (V/m) @ t=0.96
-0.004129040984004906
% es.EZ (V/m) @ t=0.96
0.041007330550219656
% es.tEX (V/m) @ t=0.96
0.04567819789209793
% es.tEY (V/m) @ t=0.96
0
% es.tEZ (V/m) @ t=0.96
0.04100733055021988
% es.Ex (V/m) @ t=0.96
0.04567819789210059
% es.Ey (V/m) @ t=0.96
-0.004129040984004906
% es.Ez (V/m) @ t=0.96
0.041007330550219656
% es.tEx (V/m) @ t=0.96
0.04567819789209793
% es.tEy (V/m) @ t=0.96
0
% es.tEz (V/m) @ t=0.96
0.04100733055021988
% V (V) @ t=0.96
0.010241339813672387
% es.normE (V/m) @ t=0.98
0.062063330545243746
% es.EX (V/m) @ t=0.98
0.046078886807292996
% es.EY (V/m) @ t=0.98
-0.004165273541655523
% es.EZ (V/m) @ t=0.98
0.041367181258723074
% es.tEX (V/m) @ t=0.98
0.046078886807283226
% es.tEY (V/m) @ t=0.98
0
% es.tEZ (V/m) @ t=0.98
0.041367181258723296
% es.Ex (V/m) @ t=0.98
0.046078886807292996
% es.Ey (V/m) @ t=0.98
-0.004165273541655523
% es.Ez (V/m) @ t=0.98
0.041367181258723074
% es.tEx (V/m) @ t=0.98
0.046078886807283226
% es.tEy (V/m) @ t=0.98
0
% es.tEz (V/m) @ t=0.98
0.041367181258723296
% V (V) @ t=0.98
0.01033116915403975
% es.normE (V/m) @ t=1
0.06260310543127735
% es.EX (V/m) @ t=1
0.04647957572248629
% es.EY (V/m) @ t=1
-0.004201506099298591
% es.EZ (V/m) @ t=1
0.04172703196723737
% es.tEX (V/m) @ t=1
0.04647957572248096
% es.tEY (V/m) @ t=1
0
% es.tEZ (V/m) @ t=1
0.04172703196723582
% es.Ex (V/m) @ t=1
0.04647957572248629
% es.Ey (V/m) @ t=1
-0.004201506099298591
% es.Ez (V/m) @ t=1
0.04172703196723737
% es.tEx (V/m) @ t=1
0.04647957572248096
% es.tEy (V/m) @ t=1
0
% es.tEz (V/m) @ t=1
0.04172703196723582
% V (V) @ t=1
0.010420998494407117