% Model:              1 neuron.mph
% Version:            COMSOL 6.1.0.252
% Date:               Mar 26 2023, 14:35
% Dimension:          0
% Nodes:              14017
% Expressions:        14017
% Description:        Electric field norm, Electric field, X component, Electric field, Y component, Electric field, Z component, Tangential electric field, X component, Tangential electric field, Y component, Tangential electric field, Z component, Electric field, x component, Electric field, y component, Electric field, z component, Tangential electric field, x component, Tangential electric field, y component, Tangential electric field, z component, Electric potential
% Length unit:        mm
% x
1
% y
14.200000000000001
% z
1.3300000000000003
% es.normE (V/m) @ t=0
0.0367796881277223
% es.EX (V/m) @ t=0
0.03256951763279492
% es.EY (V/m) @ t=0
-0.015767554187149813
% es.EZ (V/m) @ t=0
0.006584543636036777
% es.tEX (V/m) @ t=0
0.03256951763279403
% es.tEY (V/m) @ t=0
0
% es.tEZ (V/m) @ t=0
0.006584543636039886
% es.Ex (V/m) @ t=0
0.03256951763279492
% es.Ey (V/m) @ t=0
-0.015767554187149813
% es.Ez (V/m) @ t=0
0.006584543636036777
% es.tEx (V/m) @ t=0
0.03256951763279403
% es.tEy (V/m) @ t=0
0
% es.tEz (V/m) @ t=0
0.006584543636039886
% V (V) @ t=0
0.006991859686659207
% es.normE (V/m) @ t=0.02
0.03365914067770548
% es.EX (V/m) @ t=0.02
0.029806179242311437
% es.EY (V/m) @ t=0.02
-0.014429766824571644
% es.EZ (V/m) @ t=0.02
0.006025882468590149
% es.tEX (V/m) @ t=0.02
0.02980617924231499
% es.tEY (V/m) @ t=0.02
0
% es.tEZ (V/m) @ t=0.02
0.006025882468591037
% es.Ex (V/m) @ t=0.02
0.029806179242311437
% es.Ey (V/m) @ t=0.02
-0.014429766824571644
% es.Ez (V/m) @ t=0.02
0.006025882468590149
% es.tEx (V/m) @ t=0.02
0.02980617924231499
% es.tEy (V/m) @ t=0.02
0
% es.tEz (V/m) @ t=0.02
0.006025882468591037
% V (V) @ t=0.02
0.006398640103661178
% es.normE (V/m) @ t=0.04
0.033967966946892386
% es.EX (V/m) @ t=0.04
0.030079654121989208
% es.EY (V/m) @ t=0.04
-0.014562161555284447
% es.EZ (V/m) @ t=0.04
0.0060811707133139326
% es.tEX (V/m) @ t=0.04
0.030079654121986543
% es.tEY (V/m) @ t=0.04
0
% es.tEZ (V/m) @ t=0.04
0.006081170713317707
% es.Ex (V/m) @ t=0.04
0.030079654121989208
% es.Ey (V/m) @ t=0.04
-0.014562161555284447
% es.Ez (V/m) @ t=0.04
0.0060811707133139326
% es.tEx (V/m) @ t=0.04
0.030079654121986543
% es.tEy (V/m) @ t=0.04
0
% es.tEz (V/m) @ t=0.04
0.006081170713317707
% V (V) @ t=0.04
0.006457348395337979
% es.normE (V/m) @ t=0.06
0.03428056687984388
% es.EX (V/m) @ t=0.06
0.030356470869667085
% es.EY (V/m) @ t=0.06
-0.01469617386146993
% es.EZ (V/m) @ t=0.06
0.006137134166363856
% es.tEX (V/m) @ t=0.06
0.030356470869667085
% es.tEY (V/m) @ t=0.06
0
% es.tEZ (V/m) @ t=0.06
0.0061371341663643
% es.Ex (V/m) @ t=0.06
0.030356470869667085
% es.Ey (V/m) @ t=0.06
-0.01469617386146993
% es.Ez (V/m) @ t=0.06
0.006137134166363856
% es.tEx (V/m) @ t=0.06
0.030356470869667085
% es.tEy (V/m) @ t=0.06
0
% es.tEz (V/m) @ t=0.06
0.0061371341663643
% V (V) @ t=0.06
0.006516773782632216
% es.normE (V/m) @ t=0.08
0.0345956124483712
% es.EX (V/m) @ t=0.08
0.030635453183222694
% es.EY (V/m) @ t=0.08
-0.014831234759647316
% es.EZ (V/m) @ t=0.08
0.006193535697862407
% es.tEX (V/m) @ t=0.08
0.030635453183217365
% es.tEY (V/m) @ t=0.08
0
% es.tEZ (V/m) @ t=0.08
0.0061935356978712885
% es.Ex (V/m) @ t=0.08
0.030635453183222694
% es.Ey (V/m) @ t=0.08
-0.014831234759647316
% es.Ez (V/m) @ t=0.08
0.006193535697862407
% es.tEx (V/m) @ t=0.08
0.030635453183217365
% es.tEy (V/m) @ t=0.08
0
% es.tEz (V/m) @ t=0.08
0.0061935356978712885
% V (V) @ t=0.08
0.0065766642828225435
% es.normE (V/m) @ t=0.1
0.034917199012536926
% es.EX (V/m) @ t=0.1
0.030920227429569458
% es.EY (V/m) @ t=0.1
-0.014969100178591432
% es.EZ (V/m) @ t=0.1
0.006251108895876323
% es.tEX (V/m) @ t=0.1
0.03092022742956768
% es.tEY (V/m) @ t=0.1
0
% es.tEZ (V/m) @ t=0.1
0.006251108895878987
% es.Ex (V/m) @ t=0.1
0.030920227429569458
% es.Ey (V/m) @ t=0.1
-0.014969100178591432
% es.Ez (V/m) @ t=0.1
0.006251108895876323
% es.tEx (V/m) @ t=0.1
0.03092022742956768
% es.tEy (V/m) @ t=0.1
0
% es.tEz (V/m) @ t=0.1
0.006251108895878987
% V (V) @ t=0.1
0.006637798754705576
% es.normE (V/m) @ t=0.12
0.035238785576706226
% es.EX (V/m) @ t=0.12
0.031205001675924215
% es.EY (V/m) @ t=0.12
-0.015106965597528443
% es.EZ (V/m) @ t=0.12
0.006308682093887574
% es.tEX (V/m) @ t=0.12
0.031205001675923327
% es.tEY (V/m) @ t=0.12
0
% es.tEZ (V/m) @ t=0.12
0.006308682093887574
% es.Ex (V/m) @ t=0.12
0.031205001675924215
% es.Ey (V/m) @ t=0.12
-0.015106965597528443
% es.Ez (V/m) @ t=0.12
0.006308682093887574
% es.tEx (V/m) @ t=0.12
0.031205001675923327
% es.tEy (V/m) @ t=0.12
0
% es.tEz (V/m) @ t=0.12
0.006308682093887574
% V (V) @ t=0.12
0.006698933226588609
% es.normE (V/m) @ t=0.14
0.03556037214086586
% es.EX (V/m) @ t=0.14
0.03148977592227098
% es.EY (V/m) @ t=0.14
-0.015244831016458349
% es.EZ (V/m) @ t=0.14
0.006366255291901268
% es.tEX (V/m) @ t=0.14
0.03148977592227453
% es.tEY (V/m) @ t=0.14
0
% es.tEZ (V/m) @ t=0.14
0.006366255291905265
% es.Ex (V/m) @ t=0.14
0.03148977592227098
% es.Ey (V/m) @ t=0.14
-0.015244831016458349
% es.Ez (V/m) @ t=0.14
0.006366255291901268
% es.tEx (V/m) @ t=0.14
0.03148977592227453
% es.tEy (V/m) @ t=0.14
0
% es.tEz (V/m) @ t=0.14
0.006366255291905265
% V (V) @ t=0.14
0.006760067698471643
% es.normE (V/m) @ t=0.16
0.03589243084893279
% es.EX (V/m) @ t=0.16
0.03178382986807371
% es.EY (V/m) @ t=0.16
-0.01538717835358483
% es.EZ (V/m) @ t=0.16
0.006425690116846461
% es.tEX (V/m) @ t=0.16
0.03178382986806749
% es.tEY (V/m) @ t=0.16
0
% es.tEZ (V/m) @ t=0.16
0.006425690116847793
% es.Ex (V/m) @ t=0.16
0.03178382986807371
% es.Ey (V/m) @ t=0.16
-0.01538717835358483
% es.Ez (V/m) @ t=0.16
0.006425690116846461
% es.tEx (V/m) @ t=0.16
0.03178382986806749
% es.tEy (V/m) @ t=0.16
0
% es.tEz (V/m) @ t=0.16
0.006425690116847793
% V (V) @ t=0.16
0.006823182552776695
% es.normE (V/m) @ t=0.18
0.03623306682524512
% es.EX (V/m) @ t=0.18
0.03208548440377257
% es.EY (V/m) @ t=0.18
-0.015533196630974189
% es.EZ (V/m) @ t=0.18
0.006486649717800219
% es.tEX (V/m) @ t=0.18
0.032085484403769904
% es.tEY (V/m) @ t=0.18
0
% es.tEZ (V/m) @ t=0.18
0.006486649717800441
% es.Ex (V/m) @ t=0.18
0.03208548440377257
% es.Ey (V/m) @ t=0.18
-0.015533196630974189
% es.Ez (V/m) @ t=0.18
0.006486649717800219
% es.tEx (V/m) @ t=0.18
0.032085484403769904
% es.tEy (V/m) @ t=0.18
0
% es.tEz (V/m) @ t=0.18
0.006486649717800441
% V (V) @ t=0.18
0.006887919450419551
% es.normE (V/m) @ t=0.2
0.03657370280158372
% es.EX (V/m) @ t=0.2
0.03238713893948475
% es.EY (V/m) @ t=0.2
-0.015679214908349337
% es.EZ (V/m) @ t=0.2
0.006547609318742209
% es.tEX (V/m) @ t=0.2
0.032387138939482085
% es.tEY (V/m) @ t=0.2
0
% es.tEZ (V/m) @ t=0.2
0.006547609318741987
% es.Ex (V/m) @ t=0.2
0.03238713893948475
% es.Ey (V/m) @ t=0.2
-0.015679214908349337
% es.Ez (V/m) @ t=0.2
0.006547609318742209
% es.tEx (V/m) @ t=0.2
0.032387138939482085
% es.tEy (V/m) @ t=0.2
0
% es.tEz (V/m) @ t=0.2
0.006547609318741987
% V (V) @ t=0.2
0.006952656348062406
% es.normE (V/m) @ t=0.22
0.03691433877794277
% es.EX (V/m) @ t=0.22
0.03268879347519338
% es.EY (V/m) @ t=0.22
-0.015825233185728038
% es.EZ (V/m) @ t=0.22
0.006608568919684199
% es.tEX (V/m) @ t=0.22
0.032688793475190714
% es.tEY (V/m) @ t=0.22
0
% es.tEZ (V/m) @ t=0.22
0.006608568919683977
% es.Ex (V/m) @ t=0.22
0.03268879347519338
% es.Ey (V/m) @ t=0.22
-0.015825233185728038
% es.Ez (V/m) @ t=0.22
0.006608568919684199
% es.tEx (V/m) @ t=0.22
0.032688793475190714
% es.tEy (V/m) @ t=0.22
0
% es.tEz (V/m) @ t=0.22
0.006608568919683977
% V (V) @ t=0.22
0.007017393245705262
% es.normE (V/m) @ t=0.24
0.037254974754321026
% es.EX (V/m) @ t=0.24
0.03299044801089934
% es.EY (V/m) @ t=0.24
-0.015971251463108516
% es.EZ (V/m) @ t=0.24
0.006669528520622636
% es.tEX (V/m) @ t=0.24
0.03299044801089579
% es.tEY (V/m) @ t=0.24
0
% es.tEZ (V/m) @ t=0.24
0.00666952852062197
% es.Ex (V/m) @ t=0.24
0.03299044801089934
% es.Ey (V/m) @ t=0.24
-0.015971251463108516
% es.Ez (V/m) @ t=0.24
0.006669528520622636
% es.tEx (V/m) @ t=0.24
0.03299044801089579
% es.tEy (V/m) @ t=0.24
0
% es.tEz (V/m) @ t=0.24
0.00666952852062197
% V (V) @ t=0.24
0.007082130143348117
% es.normE (V/m) @ t=0.26
0.03759561073072292
% es.EX (V/m) @ t=0.26
0.03329210254660442
% es.EY (V/m) @ t=0.26
-0.016117269740494322
% es.EZ (V/m) @ t=0.26
0.006730488121568179
% es.tEX (V/m) @ t=0.26
0.03329210254659731
% es.tEY (V/m) @ t=0.26
0
% es.tEZ (V/m) @ t=0.26
0.0067304881215659584
% es.Ex (V/m) @ t=0.26
0.03329210254660442
% es.Ey (V/m) @ t=0.26
-0.016117269740494322
% es.Ez (V/m) @ t=0.26
0.006730488121568179
% es.tEx (V/m) @ t=0.26
0.03329210254659731
% es.tEy (V/m) @ t=0.26
0
% es.tEz (V/m) @ t=0.26
0.0067304881215659584
% V (V) @ t=0.26
0.007146867040990973
% es.normE (V/m) @ t=0.28
0.03793624670713712
% es.EX (V/m) @ t=0.28
0.033593757082309494
% es.EY (V/m) @ t=0.28
-0.01626328801786414
% es.EZ (V/m) @ t=0.28
0.006791447722507282
% es.tEX (V/m) @ t=0.28
0.03359375708230239
% es.tEY (V/m) @ t=0.28
0
% es.tEZ (V/m) @ t=0.28
0.0067914477225086145
% es.Ex (V/m) @ t=0.28
0.033593757082309494
% es.Ey (V/m) @ t=0.28
-0.01626328801786414
% es.Ez (V/m) @ t=0.28
0.006791447722507282
% es.tEx (V/m) @ t=0.28
0.03359375708230239
% es.tEy (V/m) @ t=0.28
0
% es.tEz (V/m) @ t=0.28
0.0067914477225086145
% V (V) @ t=0.28
0.0072116039386338265
% es.normE (V/m) @ t=0.3
0.03827904633865926
% es.EX (V/m) @ t=0.3
0.03389732506998655
% es.EY (V/m) @ t=0.3
-0.016410236877973716
% es.EZ (V/m) @ t=0.3
0.006852799961014178
% es.tEX (V/m) @ t=0.3
0.033897325069983886
% es.tEY (V/m) @ t=0.3
0
% es.tEZ (V/m) @ t=0.3
0.006852799961016398
% es.Ex (V/m) @ t=0.3
0.03389732506998655
% es.Ey (V/m) @ t=0.3
-0.016410236877973716
% es.Ez (V/m) @ t=0.3
0.006852799961014178
% es.tEx (V/m) @ t=0.3
0.033897325069983886
% es.tEy (V/m) @ t=0.3
0
% es.tEz (V/m) @ t=0.3
0.006852799961016398
% V (V) @ t=0.3
0.007276756317299784
% es.normE (V/m) @ t=0.32
0.038640303410886354
% es.EX (V/m) @ t=0.32
0.034217216096632974
% es.EY (V/m) @ t=0.32
-0.016565124237949647
% es.EZ (V/m) @ t=0.32
0.00691750166338756
% es.tEX (V/m) @ t=0.32
0.034217216096632974
% es.tEY (V/m) @ t=0.32
0
% es.tEZ (V/m) @ t=0.32
0.006917501663389336
% es.Ex (V/m) @ t=0.32
0.034217216096632974
% es.Ey (V/m) @ t=0.32
-0.016565124237949647
% es.Ez (V/m) @ t=0.32
0.00691750166338756
% es.tEx (V/m) @ t=0.32
0.034217216096632974
% es.tEy (V/m) @ t=0.32
0
% es.tEz (V/m) @ t=0.32
0.006917501663389336
% V (V) @ t=0.32
0.007345453029978673
% es.normE (V/m) @ t=0.34
0.03900156048314178
% es.EX (V/m) @ t=0.34
0.03453710712328473
% es.EY (V/m) @ t=0.34
-0.016720011597907813
% es.EZ (V/m) @ t=0.34
0.00698220336575428
% es.tEX (V/m) @ t=0.34
0.034537107123285615
% es.tEY (V/m) @ t=0.34
0
% es.tEZ (V/m) @ t=0.34
0.006982203365756057
% es.Ex (V/m) @ t=0.34
0.03453710712328473
% es.Ey (V/m) @ t=0.34
-0.016720011597907813
% es.Ez (V/m) @ t=0.34
0.00698220336575428
% es.tEx (V/m) @ t=0.34
0.034537107123285615
% es.tEy (V/m) @ t=0.34
0
% es.tEz (V/m) @ t=0.34
0.006982203365756057
% V (V) @ t=0.34
0.007414149742657564
% es.normE (V/m) @ t=0.36
0.03936281755542242
% es.EX (V/m) @ t=0.36
0.03485699814992582
% es.EY (V/m) @ t=0.36
-0.016874898957874862
% es.EZ (V/m) @ t=0.36
0.007046905068117004
% es.tEX (V/m) @ t=0.36
0.034856998149924934
% es.tEY (V/m) @ t=0.36
0
% es.tEZ (V/m) @ t=0.36
0.007046905068121001
% es.Ex (V/m) @ t=0.36
0.03485699814992582
% es.Ey (V/m) @ t=0.36
-0.016874898957874862
% es.Ez (V/m) @ t=0.36
0.007046905068117004
% es.tEx (V/m) @ t=0.36
0.034856998149924934
% es.tEy (V/m) @ t=0.36
0
% es.tEz (V/m) @ t=0.36
0.007046905068121001
% V (V) @ t=0.36
0.007482846455336452
% es.normE (V/m) @ t=0.38
0.03972407462774071
% es.EX (V/m) @ t=0.38
0.0351768891765758
% es.EY (V/m) @ t=0.38
-0.01702978631783658
% es.EZ (V/m) @ t=0.38
0.0071116067704875
% es.tEX (V/m) @ t=0.38
0.03517688917657047
% es.tEY (V/m) @ t=0.38
0
% es.tEZ (V/m) @ t=0.38
0.007111606770492385
% es.Ex (V/m) @ t=0.38
0.0351768891765758
% es.Ey (V/m) @ t=0.38
-0.01702978631783658
% es.Ez (V/m) @ t=0.38
0.0071116067704875
% es.tEx (V/m) @ t=0.38
0.03517688917657047
% es.tEy (V/m) @ t=0.38
0
% es.tEz (V/m) @ t=0.38
0.007111606770492385
% V (V) @ t=0.38
0.007551543168015342
% es.normE (V/m) @ t=0.4
0.04008533170007608
% es.EX (V/m) @ t=0.4
0.03549678020321334
% es.EY (V/m) @ t=0.4
-0.01718467367779475
% es.EZ (V/m) @ t=0.4
0.007176308472856663
% es.tEX (V/m) @ t=0.4
0.03549678020321689
% es.tEY (V/m) @ t=0.4
0
% es.tEZ (V/m) @ t=0.4
0.0071763084728597715
% es.Ex (V/m) @ t=0.4
0.03549678020321334
% es.Ey (V/m) @ t=0.4
-0.01718467367779475
% es.Ez (V/m) @ t=0.4
0.007176308472856663
% es.tEx (V/m) @ t=0.4
0.03549678020321689
% es.tEy (V/m) @ t=0.4
0
% es.tEz (V/m) @ t=0.4
0.0071763084728597715
% V (V) @ t=0.4
0.007620239880694231
% es.normE (V/m) @ t=0.42
0.040446588772454224
% es.EX (V/m) @ t=0.42
0.03581667122986243
% es.EY (V/m) @ t=0.42
-0.017339561037761797
% es.EZ (V/m) @ t=0.42
0.00724101017522405
% es.tEX (V/m) @ t=0.42
0.03581667122986065
% es.tEY (V/m) @ t=0.42
0
% es.tEZ (V/m) @ t=0.42
0.0072410101752280465
% es.Ex (V/m) @ t=0.42
0.03581667122986243
% es.Ey (V/m) @ t=0.42
-0.017339561037761797
% es.Ez (V/m) @ t=0.42
0.00724101017522405
% es.tEx (V/m) @ t=0.42
0.03581667122986065
% es.tEy (V/m) @ t=0.42
0
% es.tEz (V/m) @ t=0.42
0.0072410101752280465
% V (V) @ t=0.42
0.007688936593373122
% es.normE (V/m) @ t=0.44
0.040807845844854085
% es.EX (V/m) @ t=0.44
0.03613656225650441
% es.EY (V/m) @ t=0.44
-0.017494448397728846
% es.EZ (V/m) @ t=0.44
0.007305711877589882
% es.tEX (V/m) @ t=0.44
0.03613656225650441
% es.tEY (V/m) @ t=0.44
0
% es.tEZ (V/m) @ t=0.44
0.007305711877592103
% es.Ex (V/m) @ t=0.44
0.03613656225650441
% es.Ey (V/m) @ t=0.44
-0.017494448397728846
% es.Ez (V/m) @ t=0.44
0.007305711877589882
% es.tEx (V/m) @ t=0.44
0.03613656225650441
% es.tEy (V/m) @ t=0.44
0
% es.tEz (V/m) @ t=0.44
0.007305711877592103
% V (V) @ t=0.44
0.007757633306052012
% es.normE (V/m) @ t=0.46
0.04119982193389905
% es.EX (V/m) @ t=0.46
0.03648367232120098
% es.EY (V/m) @ t=0.46
-0.01766248549030003
% es.EZ (V/m) @ t=0.46
0.007375878771316957
% es.tEX (V/m) @ t=0.46
0.03648367232119565
% es.tEY (V/m) @ t=0.46
0
% es.tEZ (V/m) @ t=0.46
0.007375878771318289
% es.Ex (V/m) @ t=0.46
0.03648367232120098
% es.Ey (V/m) @ t=0.46
-0.01766248549030003
% es.Ez (V/m) @ t=0.46
0.007375878771316957
% es.tEx (V/m) @ t=0.46
0.03648367232119565
% es.tEy (V/m) @ t=0.46
0
% es.tEz (V/m) @ t=0.46
0.007375878771318289
% V (V) @ t=0.46
0.007832142675334811
% es.normE (V/m) @ t=0.48
0.04160761501058362
% es.EX (V/m) @ t=0.48
0.036844797261207596
% es.EY (V/m) @ t=0.48
-0.017837293280029698
% es.EZ (V/m) @ t=0.48
0.007448859650420303
% es.tEX (V/m) @ t=0.48
0.03684479726120582
% es.tEY (V/m) @ t=0.48
0
% es.tEZ (V/m) @ t=0.48
0.007448859650423412
% es.Ex (V/m) @ t=0.48
0.036844797261207596
% es.Ey (V/m) @ t=0.48
-0.017837293280029698
% es.Ez (V/m) @ t=0.48
0.007448859650420303
% es.tEx (V/m) @ t=0.48
0.03684479726120582
% es.tEy (V/m) @ t=0.48
0
% es.tEz (V/m) @ t=0.48
0.007448859650423412
% V (V) @ t=0.48
0.007909644937218
% es.normE (V/m) @ t=0.5
0.04201540808729431
% es.EX (V/m) @ t=0.5
0.0372059222012151
% es.EY (V/m) @ t=0.5
-0.018012101069759368
% es.EZ (V/m) @ t=0.5
0.007521840529536528
% es.tEX (V/m) @ t=0.5
0.037205922201213326
% es.tEY (V/m) @ t=0.5
0
% es.tEZ (V/m) @ t=0.5
0.007521840529538748
% es.Ex (V/m) @ t=0.5
0.0372059222012151
% es.Ey (V/m) @ t=0.5
-0.018012101069759368
% es.Ez (V/m) @ t=0.5
0.007521840529536528
% es.tEx (V/m) @ t=0.5
0.037205922201213326
% es.tEy (V/m) @ t=0.5
0
% es.tEz (V/m) @ t=0.5
0.007521840529538748
% V (V) @ t=0.5
0.007987147199101185
% es.normE (V/m) @ t=0.52
0.04242320116402196
% es.EX (V/m) @ t=0.52
0.03756704714121728
% es.EY (V/m) @ t=0.52
-0.01818690885948726
% es.EZ (V/m) @ t=0.52
0.007594821408653196
% es.tEX (V/m) @ t=0.52
0.03756704714121195
% es.tEY (V/m) @ t=0.52
0
% es.tEZ (V/m) @ t=0.52
0.007594821408657193
% es.Ex (V/m) @ t=0.52
0.03756704714121728
% es.Ey (V/m) @ t=0.52
-0.01818690885948726
% es.Ez (V/m) @ t=0.52
0.007594821408653196
% es.tEx (V/m) @ t=0.52
0.03756704714121195
% es.tEy (V/m) @ t=0.52
0
% es.tEz (V/m) @ t=0.52
0.007594821408657193
% V (V) @ t=0.52
0.00806464946098437
% es.normE (V/m) @ t=0.54
0.04283099424077836
% es.EX (V/m) @ t=0.54
0.03792817208122834
% es.EY (V/m) @ t=0.54
-0.018361716649218707
% es.EZ (V/m) @ t=0.54
0.007667802287756542
% es.tEX (V/m) @ t=0.54
0.03792817208122656
% es.tEY (V/m) @ t=0.54
0
% es.tEZ (V/m) @ t=0.54
0.0076678022877583185
% es.Ex (V/m) @ t=0.54
0.03792817208122834
% es.Ey (V/m) @ t=0.54
-0.018361716649218707
% es.Ez (V/m) @ t=0.54
0.007667802287756542
% es.tEx (V/m) @ t=0.54
0.03792817208122656
% es.tEy (V/m) @ t=0.54
0
% es.tEz (V/m) @ t=0.54
0.0076678022877583185
% V (V) @ t=0.54
0.008142151722867556
% es.normE (V/m) @ t=0.56
0.043238787317553144
% es.EX (V/m) @ t=0.56
0.03828929702123851
% es.EY (V/m) @ t=0.56
-0.018536524438943047
% es.EZ (V/m) @ t=0.56
0.007740783166866105
% es.tEX (V/m) @ t=0.56
0.03828929702123318
% es.tEY (V/m) @ t=0.56
0
% es.tEZ (V/m) @ t=0.56
0.007740783166869214
% es.Ex (V/m) @ t=0.56
0.03828929702123851
% es.Ey (V/m) @ t=0.56
-0.018536524438943047
% es.Ez (V/m) @ t=0.56
0.007740783166866105
% es.tEx (V/m) @ t=0.56
0.03828929702123318
% es.tEy (V/m) @ t=0.56
0
% es.tEz (V/m) @ t=0.56
0.007740783166869214
% V (V) @ t=0.56
0.008219653984750741
% es.normE (V/m) @ t=0.58
0.04364658039434332
% es.EX (V/m) @ t=0.58
0.03865042196124158
% es.EY (V/m) @ t=0.58
-0.018711332228667388
% es.EZ (V/m) @ t=0.58
0.007813764045982108
% es.tEX (V/m) @ t=0.58
0.0386504219612398
% es.tEY (V/m) @ t=0.58
0
% es.tEZ (V/m) @ t=0.58
0.00781376404598344
% es.Ex (V/m) @ t=0.58
0.03865042196124158
% es.Ey (V/m) @ t=0.58
-0.018711332228667388
% es.Ez (V/m) @ t=0.58
0.007813764045982108
% es.tEx (V/m) @ t=0.58
0.0386504219612398
% es.tEy (V/m) @ t=0.58
0
% es.tEz (V/m) @ t=0.58
0.00781376404598344
% V (V) @ t=0.58
0.008297156246633925
% es.normE (V/m) @ t=0.6
0.04405437347115698
% es.EX (V/m) @ t=0.6
0.03901154690124464
% es.EY (V/m) @ t=0.6
-0.018886140018402386
% es.EZ (V/m) @ t=0.6
0.007886744925092337
% es.tEX (V/m) @ t=0.6
0.03901154690124642
% es.tEY (V/m) @ t=0.6
0
% es.tEZ (V/m) @ t=0.6
0.007886744925095668
% es.Ex (V/m) @ t=0.6
0.03901154690124464
% es.Ey (V/m) @ t=0.6
-0.018886140018402386
% es.Ez (V/m) @ t=0.6
0.007886744925092337
% es.tEx (V/m) @ t=0.6
0.03901154690124642
% es.tEy (V/m) @ t=0.6
0
% es.tEz (V/m) @ t=0.6
0.007886744925095668
% V (V) @ t=0.6
0.008374658508517114
% es.normE (V/m) @ t=0.62
0.04446216654799107
% es.EX (V/m) @ t=0.62
0.039372671841259255
% es.EY (V/m) @ t=0.62
-0.019060947808117845
% es.EZ (V/m) @ t=0.62
0.007959725804197904
% es.tEX (V/m) @ t=0.62
0.03937267184125748
% es.tEY (V/m) @ t=0.62
0
% es.tEZ (V/m) @ t=0.62
0.0079597258042019
% es.Ex (V/m) @ t=0.62
0.039372671841259255
% es.Ey (V/m) @ t=0.62
-0.019060947808117845
% es.Ez (V/m) @ t=0.62
0.007959725804197904
% es.tEx (V/m) @ t=0.62
0.03937267184125748
% es.tEy (V/m) @ t=0.62
0
% es.tEz (V/m) @ t=0.62
0.0079597258042019
% V (V) @ t=0.62
0.0084521607704003
% es.normE (V/m) @ t=0.64
0.044869959624841284
% es.EX (V/m) @ t=0.64
0.039733796781264985
% es.EY (V/m) @ t=0.64
-0.019235755597842186
% es.EZ (V/m) @ t=0.64
0.008032706683310797
% es.tEX (V/m) @ t=0.64
0.039733796781259656
% es.tEY (V/m) @ t=0.64
0
% es.tEZ (V/m) @ t=0.64
0.008032706683313018
% es.Ex (V/m) @ t=0.64
0.039733796781264985
% es.Ey (V/m) @ t=0.64
-0.019235755597842186
% es.Ez (V/m) @ t=0.64
0.008032706683310797
% es.tEx (V/m) @ t=0.64
0.039733796781259656
% es.tEy (V/m) @ t=0.64
0
% es.tEz (V/m) @ t=0.64
0.008032706683313018
% V (V) @ t=0.64
0.008529663032283485
% es.normE (V/m) @ t=0.66
0.04527775270170983
% es.EX (V/m) @ t=0.66
0.040094921721265386
% es.EY (V/m) @ t=0.66
-0.019410563387577184
% es.EZ (V/m) @ t=0.66
0.008105687562424357
% es.tEX (V/m) @ t=0.66
0.04009492172126716
% es.tEY (V/m) @ t=0.66
0
% es.tEZ (V/m) @ t=0.66
0.008105687562429242
% es.Ex (V/m) @ t=0.66
0.040094921721265386
% es.Ey (V/m) @ t=0.66
-0.019410563387577184
% es.Ez (V/m) @ t=0.66
0.008105687562424357
% es.tEx (V/m) @ t=0.66
0.04009492172126716
% es.tEy (V/m) @ t=0.66
0
% es.tEz (V/m) @ t=0.66
0.008105687562429242
% V (V) @ t=0.66
0.00860716529416667
% es.normE (V/m) @ t=0.68
0.04568554577859827
% es.EX (V/m) @ t=0.68
0.04045604666127556
% es.EY (V/m) @ t=0.68
-0.019585371177301525
% es.EZ (V/m) @ t=0.68
0.008178668441526371
% es.tEX (V/m) @ t=0.68
0.04045604666127378
% es.tEY (V/m) @ t=0.68
0
% es.tEZ (V/m) @ t=0.68
0.008178668441533032
% es.Ex (V/m) @ t=0.68
0.04045604666127556
% es.Ey (V/m) @ t=0.68
-0.019585371177301525
% es.Ez (V/m) @ t=0.68
0.008178668441526371
% es.tEx (V/m) @ t=0.68
0.04045604666127378
% es.tEy (V/m) @ t=0.68
0
% es.tEz (V/m) @ t=0.68
0.008178668441533032
% V (V) @ t=0.68
0.008684667556049856
% es.normE (V/m) @ t=0.7
0.0460933388555097
% es.EX (V/m) @ t=0.7
0.04081717160128484
% es.EY (V/m) @ t=0.7
-0.01976017896703297
% es.EZ (V/m) @ t=0.7
0.008251649320647036
% es.tEX (V/m) @ t=0.7
0.04081717160128662
% es.tEY (V/m) @ t=0.7
0
% es.tEZ (V/m) @ t=0.7
0.008251649320647925
% es.Ex (V/m) @ t=0.7
0.04081717160128484
% es.Ey (V/m) @ t=0.7
-0.01976017896703297
% es.Ez (V/m) @ t=0.7
0.008251649320647036
% es.tEx (V/m) @ t=0.7
0.04081717160128662
% es.tEy (V/m) @ t=0.7
0
% es.tEz (V/m) @ t=0.7
0.008251649320647925
% V (V) @ t=0.7
0.008762169817933044
% es.normE (V/m) @ t=0.72
0.046501131932429954
% es.EX (V/m) @ t=0.72
0.04117829654129235
% es.EY (V/m) @ t=0.72
-0.01993498675675376
% es.EZ (V/m) @ t=0.72
0.0083246301997566
% es.tEX (V/m) @ t=0.72
0.041178296541294124
% es.tEY (V/m) @ t=0.72
0
% es.tEZ (V/m) @ t=0.72
0.008324630199755712
% es.Ex (V/m) @ t=0.72
0.04117829654129235
% es.Ey (V/m) @ t=0.72
-0.01993498675675376
% es.Ez (V/m) @ t=0.72
0.0083246301997566
% es.tEx (V/m) @ t=0.72
0.041178296541294124
% es.tEy (V/m) @ t=0.72
0
% es.tEz (V/m) @ t=0.72
0.008324630199755712
% V (V) @ t=0.72
0.00883967207981623
% es.normE (V/m) @ t=0.74
0.04690892500936868
% es.EX (V/m) @ t=0.74
0.0415394214812963
% es.EY (V/m) @ t=0.74
-0.020109794546485205
% es.EZ (V/m) @ t=0.74
0.008397611078869271
% es.tEX (V/m) @ t=0.74
0.04153942148129097
% es.tEY (V/m) @ t=0.74
0
% es.tEZ (V/m) @ t=0.74
0.008397611078876821
% es.Ex (V/m) @ t=0.74
0.0415394214812963
% es.Ey (V/m) @ t=0.74
-0.020109794546485205
% es.Ez (V/m) @ t=0.74
0.008397611078869271
% es.tEx (V/m) @ t=0.74
0.04153942148129097
% es.tEy (V/m) @ t=0.74
0
% es.tEz (V/m) @ t=0.74
0.008397611078876821
% V (V) @ t=0.74
0.008917174341699415
% es.normE (V/m) @ t=0.76
0.04735361477103681
% es.EX (V/m) @ t=0.76
0.041933203544198605
% es.EY (V/m) @ t=0.76
-0.020300439129604442
% es.EZ (V/m) @ t=0.76
0.008477230889258003
% es.tEX (V/m) @ t=0.76
0.04193320354419505
% es.tEY (V/m) @ t=0.76
0
% es.tEZ (V/m) @ t=0.76
0.008477230889265108
% es.Ex (V/m) @ t=0.76
0.041933203544198605
% es.Ey (V/m) @ t=0.76
-0.020300439129604442
% es.Ez (V/m) @ t=0.76
0.008477230889258003
% es.tEx (V/m) @ t=0.76
0.04193320354419505
% es.tEy (V/m) @ t=0.76
0
% es.tEz (V/m) @ t=0.76
0.008477230889265108
% V (V) @ t=0.76
0.00900171705970802
% es.normE (V/m) @ t=0.78
0.047809295147137845
% es.EX (V/m) @ t=0.78
0.042336713360383804
% es.EY (V/m) @ t=0.78
-0.02049580110375615
% es.EZ (V/m) @ t=0.78
0.008558828273899755
% es.tEX (V/m) @ t=0.78
0.04233671336038025
% es.tEY (V/m) @ t=0.78
0
% es.tEZ (V/m) @ t=0.78
0.008558828273898422
% es.Ex (V/m) @ t=0.78
0.042336713360383804
% es.Ey (V/m) @ t=0.78
-0.02049580110375615
% es.Ez (V/m) @ t=0.78
0.008558828273899755
% es.tEx (V/m) @ t=0.78
0.04233671336038025
% es.tEy (V/m) @ t=0.78
0
% es.tEz (V/m) @ t=0.78
0.008558828273898422
% V (V) @ t=0.78
0.009088356956342658
% es.normE (V/m) @ t=0.8
0.04826497552325021
% es.EX (V/m) @ t=0.8
0.04274022317655923
% es.EY (V/m) @ t=0.8
-0.02069116307791674
% es.EZ (V/m) @ t=0.8
0.008640425658548612
% es.tEX (V/m) @ t=0.8
0.04274022317655479
% es.tEY (V/m) @ t=0.8
0
% es.tEZ (V/m) @ t=0.8
0.008640425658548834
% es.Ex (V/m) @ t=0.8
0.04274022317655923
% es.Ey (V/m) @ t=0.8
-0.02069116307791674
% es.Ez (V/m) @ t=0.8
0.008640425658548612
% es.tEx (V/m) @ t=0.8
0.04274022317655479
% es.tEy (V/m) @ t=0.8
0
% es.tEz (V/m) @ t=0.8
0.008640425658548834
% V (V) @ t=0.8
0.0091749968529773
% es.normE (V/m) @ t=0.82
0.0487206558993784
% es.EX (V/m) @ t=0.82
0.043143732992738215
% es.EY (V/m) @ t=0.82
-0.02088652505207733
% es.EZ (V/m) @ t=0.82
0.008722023043187477
% es.tEX (V/m) @ t=0.82
0.04314373299273999
% es.tEY (V/m) @ t=0.82
0
% es.tEZ (V/m) @ t=0.82
0.008722023043194804
% es.Ex (V/m) @ t=0.82
0.043143732992738215
% es.Ey (V/m) @ t=0.82
-0.02088652505207733
% es.Ez (V/m) @ t=0.82
0.008722023043187477
% es.tEx (V/m) @ t=0.82
0.04314373299273999
% es.tEy (V/m) @ t=0.82
0
% es.tEz (V/m) @ t=0.82
0.008722023043194804
% V (V) @ t=0.82
0.009261636749611939
% es.normE (V/m) @ t=0.84
0.049176336275518095
% es.EX (V/m) @ t=0.84
0.04354724280892608
% es.EY (V/m) @ t=0.84
-0.021081887026207724
% es.EZ (V/m) @ t=0.84
0.00880362042784033
% es.tEX (V/m) @ t=0.84
0.0435472428089243
% es.tEY (V/m) @ t=0.84
0
% es.tEZ (V/m) @ t=0.84
0.008803620427844772
% es.Ex (V/m) @ t=0.84
0.04354724280892608
% es.Ey (V/m) @ t=0.84
-0.021081887026207724
% es.Ez (V/m) @ t=0.84
0.00880362042784033
% es.tEx (V/m) @ t=0.84
0.0435472428089243
% es.tEy (V/m) @ t=0.84
0
% es.tEz (V/m) @ t=0.84
0.008803620427844772
% V (V) @ t=0.84
0.00934827664624658
% es.normE (V/m) @ t=0.86
0.04963201665167726
% es.EX (V/m) @ t=0.86
0.04395075262511039
% es.EY (V/m) @ t=0.86
-0.021277249000366538
% es.EZ (V/m) @ t=0.86
0.008885217812474977
% es.tEX (V/m) @ t=0.86
0.04395075262510861
% es.tEY (V/m) @ t=0.86
0
% es.tEZ (V/m) @ t=0.86
0.008885217812474977
% es.Ex (V/m) @ t=0.86
0.04395075262511039
% es.Ey (V/m) @ t=0.86
-0.021277249000366538
% es.Ez (V/m) @ t=0.86
0.008885217812474977
% es.tEx (V/m) @ t=0.86
0.04395075262510861
% es.tEy (V/m) @ t=0.86
0
% es.tEz (V/m) @ t=0.86
0.008885217812474977
% V (V) @ t=0.86
0.009434916542881217
% es.normE (V/m) @ t=0.88
0.050087697027841514
% es.EX (V/m) @ t=0.88
0.044354262441287595
% es.EY (V/m) @ t=0.88
-0.02147261097451647
% es.EZ (V/m) @ t=0.88
0.00896681519712006
% es.tEX (V/m) @ t=0.88
0.04435426244128493
% es.tEY (V/m) @ t=0.88
0
% es.tEZ (V/m) @ t=0.88
0.008966815197119837
% es.Ex (V/m) @ t=0.88
0.044354262441287595
% es.Ey (V/m) @ t=0.88
-0.02147261097451647
% es.Ez (V/m) @ t=0.88
0.00896681519712006
% es.tEx (V/m) @ t=0.88
0.04435426244128493
% es.tEy (V/m) @ t=0.88
0
% es.tEz (V/m) @ t=0.88
0.008966815197119837
% V (V) @ t=0.88
0.009521556439515858
% es.normE (V/m) @ t=0.9
0.050543377404021074
% es.EX (V/m) @ t=0.9
0.04475777225746125
% es.EY (V/m) @ t=0.9
-0.021667972948680614
% es.EZ (V/m) @ t=0.9
0.009048412581761811
% es.tEX (V/m) @ t=0.9
0.044757772257462136
% es.tEY (V/m) @ t=0.9
0
% es.tEZ (V/m) @ t=0.9
0.009048412581770027
% es.Ex (V/m) @ t=0.9
0.04475777225746125
% es.Ey (V/m) @ t=0.9
-0.021667972948680614
% es.Ez (V/m) @ t=0.9
0.009048412581761811
% es.tEx (V/m) @ t=0.9
0.044757772257462136
% es.tEy (V/m) @ t=0.9
0
% es.tEz (V/m) @ t=0.9
0.009048412581770027
% V (V) @ t=0.9
0.009608196336150497
% es.normE (V/m) @ t=0.92
0.050999057780222075
% es.EX (V/m) @ t=0.92
0.04516128207365
% es.EY (V/m) @ t=0.92
-0.021863334922832323
% es.EZ (V/m) @ t=0.92
0.009130009966408004
% es.tEX (V/m) @ t=0.92
0.04516128207365
% es.tEY (V/m) @ t=0.92
0
% es.tEZ (V/m) @ t=0.92
0.00913000996640756
% es.Ex (V/m) @ t=0.92
0.04516128207365
% es.Ey (V/m) @ t=0.92
-0.021863334922832323
% es.Ez (V/m) @ t=0.92
0.009130009966408004
% es.tEx (V/m) @ t=0.92
0.04516128207365
% es.tEy (V/m) @ t=0.92
0
% es.tEz (V/m) @ t=0.92
0.00913000996640756
% V (V) @ t=0.92
0.009694836232785138
% es.normE (V/m) @ t=0.94
0.05145473815642656
% es.EX (V/m) @ t=0.94
0.045564791889828093
% es.EY (V/m) @ t=0.94
-0.022058696896985808
% es.EZ (V/m) @ t=0.94
0.00921160735105353
% es.tEX (V/m) @ t=0.94
0.045564791889831646
% es.tEY (V/m) @ t=0.94
0
% es.tEZ (V/m) @ t=0.94
0.009211607351050421
% es.Ex (V/m) @ t=0.94
0.045564791889828093
% es.Ey (V/m) @ t=0.94
-0.022058696896985808
% es.Ez (V/m) @ t=0.94
0.00921160735105353
% es.tEx (V/m) @ t=0.94
0.045564791889831646
% es.tEy (V/m) @ t=0.94
0
% es.tEz (V/m) @ t=0.94
0.009211607351050421
% V (V) @ t=0.94
0.009781476129419778
% es.normE (V/m) @ t=0.96
0.051910418532649535
% es.EX (V/m) @ t=0.96
0.04596830170601507
% es.EY (V/m) @ t=0.96
-0.022254058871139293
% es.EZ (V/m) @ t=0.96
0.009293204735691729
% es.tEX (V/m) @ t=0.96
0.04596830170601507
% es.tEY (V/m) @ t=0.96
0
% es.tEZ (V/m) @ t=0.96
0.009293204735703497
% es.Ex (V/m) @ t=0.96
0.04596830170601507
% es.Ey (V/m) @ t=0.96
-0.022254058871139293
% es.Ez (V/m) @ t=0.96
0.009293204735691729
% es.tEx (V/m) @ t=0.96
0.04596830170601507
% es.tEy (V/m) @ t=0.96
0
% es.tEz (V/m) @ t=0.96
0.009293204735703497
% V (V) @ t=0.96
0.009868116026054417
% es.normE (V/m) @ t=0.98
0.052366098908860896
% es.EX (V/m) @ t=0.98
0.046371811522186945
% es.EY (V/m) @ t=0.98
-0.02244942084527146
% es.EZ (V/m) @ t=0.98
0.00937480212032571
% es.tEX (V/m) @ t=0.98
0.046371811522192274
% es.tEY (V/m) @ t=0.98
0
% es.tEZ (V/m) @ t=0.98
0.009374802120339254
% es.Ex (V/m) @ t=0.98
0.046371811522186945
% es.Ey (V/m) @ t=0.98
-0.02244942084527146
% es.Ez (V/m) @ t=0.98
0.00937480212032571
% es.tEx (V/m) @ t=0.98
0.046371811522192274
% es.tEy (V/m) @ t=0.98
0
% es.tEz (V/m) @ t=0.98
0.009374802120339254
% V (V) @ t=0.98
0.009954755922689058
% es.normE (V/m) @ t=1
0.05282177928511146
% es.EX (V/m) @ t=1
0.046775321338367704
% es.EY (V/m) @ t=1
-0.022644782819440934
% es.EZ (V/m) @ t=1
0.009456399504982116
% es.tEX (V/m) @ t=1
0.04677532133835882
% es.tEY (V/m) @ t=1
0
% es.tEZ (V/m) @ t=1
0.009456399504983226
% es.Ex (V/m) @ t=1
0.046775321338367704
% es.Ey (V/m) @ t=1
-0.022644782819440934
% es.Ez (V/m) @ t=1
0.009456399504982116
% es.tEx (V/m) @ t=1
0.04677532133835882
% es.tEy (V/m) @ t=1
0
% es.tEz (V/m) @ t=1
0.009456399504983226
% V (V) @ t=1