% Model:              1 neuron.mph
% Version:            COMSOL 6.1.0.252
% Date:               Mar 26 2023, 14:38
% Dimension:          0
% Nodes:              14017
% Expressions:        14017
% Description:        Electric field norm, Electric field, X component, Electric field, Y component, Electric field, Z component, Tangential electric field, X component, Tangential electric field, Y component, Tangential electric field, Z component, Electric field, x component, Electric field, y component, Electric field, z component, Tangential electric field, x component, Tangential electric field, y component, Tangential electric field, z component, Electric potential
% Length unit:        mm
% x
1.66
% y
14.200000000000001
% z
1.66
% es.normE (V/m) @ t=0
0.015864993058237076
% es.EX (V/m) @ t=0
-0.009876073345643555
% es.EY (V/m) @ t=0
0.007016356406679858
% es.EZ (V/m) @ t=0
-0.010243628399342786
% es.tEX (V/m) @ t=0
-0.009876073345640002
% es.tEY (V/m) @ t=0
0
% es.tEZ (V/m) @ t=0
-0.010243628399341898
% es.Ex (V/m) @ t=0
-0.009876073345643555
% es.Ey (V/m) @ t=0
0.007016356406679858
% es.Ez (V/m) @ t=0
-0.010243628399342786
% es.tEx (V/m) @ t=0
-0.009876073345640002
% es.tEy (V/m) @ t=0
0
% es.tEz (V/m) @ t=0
-0.010243628399341898
% V (V) @ t=0
0.006975802640494693
% es.normE (V/m) @ t=0.02
0.01451894349900431
% es.EX (V/m) @ t=0.02
-0.009038147727672197
% es.EY (V/m) @ t=0.02
0.006421060630268816
% es.EZ (V/m) @ t=0.02
-0.00937451792693711
% es.tEX (V/m) @ t=0.02
-0.009038147727669532
% es.tEY (V/m) @ t=0.02
0
% es.tEZ (V/m) @ t=0.02
-0.009374517926936221
% es.Ex (V/m) @ t=0.02
-0.009038147727672197
% es.Ey (V/m) @ t=0.02
0.006421060630268816
% es.Ez (V/m) @ t=0.02
-0.00937451792693711
% es.tEx (V/m) @ t=0.02
-0.009038147727669532
% es.tEy (V/m) @ t=0.02
0
% es.tEz (V/m) @ t=0.02
-0.009374517926936221
% V (V) @ t=0.02
0.00638394758557947
% es.normE (V/m) @ t=0.04
0.014652163986110576
% es.EX (V/m) @ t=0.04
-0.00912107824858488
% es.EY (V/m) @ t=0.04
0.006479977621886235
% es.EZ (V/m) @ t=0.04
-0.009460535454133723
% es.tEX (V/m) @ t=0.04
-0.00912107824858488
% es.tEY (V/m) @ t=0.04
0
% es.tEZ (V/m) @ t=0.04
-0.009460535454134611
% es.Ex (V/m) @ t=0.04
-0.00912107824858488
% es.Ey (V/m) @ t=0.04
0.006479977621886235
% es.Ez (V/m) @ t=0.04
-0.009460535454133723
% es.tEx (V/m) @ t=0.04
-0.00912107824858488
% es.tEy (V/m) @ t=0.04
0
% es.tEz (V/m) @ t=0.04
-0.009460535454134611
% V (V) @ t=0.04
0.006442525284086168
% es.normE (V/m) @ t=0.06
0.014786989539790756
% es.EX (V/m) @ t=0.06
-0.009205007687190125
% es.EY (V/m) @ t=0.06
0.006539604089534912
% es.EZ (V/m) @ t=0.06
-0.009547589825751324
% es.tEX (V/m) @ t=0.06
-0.009205007687191014
% es.tEY (V/m) @ t=0.06
0
% es.tEZ (V/m) @ t=0.06
-0.009547589825750435
% es.Ex (V/m) @ t=0.06
-0.009205007687190125
% es.Ey (V/m) @ t=0.06
0.006539604089534912
% es.Ez (V/m) @ t=0.06
-0.009547589825751324
% es.tEx (V/m) @ t=0.06
-0.009205007687191014
% es.tEy (V/m) @ t=0.06
0
% es.tEz (V/m) @ t=0.06
-0.009547589825750435
% V (V) @ t=0.06
0.006501809890548624
% es.normE (V/m) @ t=0.08
0.014922922218825664
% es.EX (V/m) @ t=0.08
-0.009289625811959468
% es.EY (V/m) @ t=0.08
0.00659971942623816
% es.EZ (V/m) @ t=0.08
-0.009635360051281516
% es.tEX (V/m) @ t=0.08
-0.009289625811961244
% es.tEY (V/m) @ t=0.08
0
% es.tEZ (V/m) @ t=0.08
-0.00963536005127974
% es.Ex (V/m) @ t=0.08
-0.009289625811959468
% es.Ey (V/m) @ t=0.08
0.00659971942623816
% es.Ez (V/m) @ t=0.08
-0.009635360051281516
% es.tEx (V/m) @ t=0.08
-0.009289625811961244
% es.tEy (V/m) @ t=0.08
0
% es.tEz (V/m) @ t=0.08
-0.00963536005127974
% V (V) @ t=0.08
0.006561583690280979
% es.normE (V/m) @ t=0.1
0.015061594312151117
% es.EX (V/m) @ t=0.1
-0.009375947986537625
% es.EY (V/m) @ t=0.1
0.0066610443954431275
% es.EZ (V/m) @ t=0.1
-0.009724901549090337
% es.tEX (V/m) @ t=0.1
-0.009375947986537625
% es.tEY (V/m) @ t=0.1
0
% es.tEZ (V/m) @ t=0.1
-0.009724901549090337
% es.Ex (V/m) @ t=0.1
-0.009375947986537625
% es.Ey (V/m) @ t=0.1
0.0066610443954431275
% es.Ez (V/m) @ t=0.1
-0.009724901549090337
% es.tEx (V/m) @ t=0.1
-0.009375947986537625
% es.tEy (V/m) @ t=0.1
0
% es.tEz (V/m) @ t=0.1
-0.009724901549090337
% V (V) @ t=0.1
0.006622567924795719
% es.normE (V/m) @ t=0.12
0.015200266405474519
% es.EX (V/m) @ t=0.12
-0.0094622701611069
% es.EY (V/m) @ t=0.12
0.006722369364653424
% es.EZ (V/m) @ t=0.12
-0.009814443046897381
% es.tEX (V/m) @ t=0.12
-0.0094622701611069
% es.tEY (V/m) @ t=0.12
0
% es.tEZ (V/m) @ t=0.12
-0.009814443046896493
% es.Ex (V/m) @ t=0.12
-0.0094622701611069
% es.Ey (V/m) @ t=0.12
0.006722369364653424
% es.Ez (V/m) @ t=0.12
-0.009814443046897381
% es.tEx (V/m) @ t=0.12
-0.0094622701611069
% es.tEy (V/m) @ t=0.12
0
% es.tEz (V/m) @ t=0.12
-0.009814443046896493
% V (V) @ t=0.12
0.006683552159310459
% es.normE (V/m) @ t=0.14
0.015338938498806819
% es.EX (V/m) @ t=0.14
-0.009548592335680617
% es.EY (V/m) @ t=0.14
0.006783694333872603
% es.EZ (V/m) @ t=0.14
-0.009903984544704425
% es.tEX (V/m) @ t=0.14
-0.009548592335680617
% es.tEY (V/m) @ t=0.14
0
% es.tEZ (V/m) @ t=0.14
-0.009903984544704425
% es.Ex (V/m) @ t=0.14
-0.009548592335680617
% es.Ey (V/m) @ t=0.14
0.006783694333872603
% es.Ez (V/m) @ t=0.14
-0.009903984544704425
% es.tEx (V/m) @ t=0.14
-0.009548592335680617
% es.tEy (V/m) @ t=0.14
0
% es.tEz (V/m) @ t=0.14
-0.009903984544704425
% V (V) @ t=0.14
0.006744536393825198
% es.normE (V/m) @ t=0.16
0.015482391956895363
% es.EX (V/m) @ t=0.16
-0.009637892227607914
% es.EY (V/m) @ t=0.16
0.006847135825279516
% es.EZ (V/m) @ t=0.16
-0.009996610680932161
% es.tEX (V/m) @ t=0.16
-0.009637892227604361
% es.tEY (V/m) @ t=0.16
0
% es.tEZ (V/m) @ t=0.16
-0.009996610680931273
% es.Ex (V/m) @ t=0.16
-0.009637892227607914
% es.Ey (V/m) @ t=0.16
0.006847135825279516
% es.Ez (V/m) @ t=0.16
-0.009996610680932161
% es.tEx (V/m) @ t=0.16
-0.009637892227604361
% es.tEy (V/m) @ t=0.16
0
% es.tEz (V/m) @ t=0.16
-0.009996610680931273
% V (V) @ t=0.16
0.006807616860246984
% es.normE (V/m) @ t=0.18
0.01562929249969485
% es.EX (V/m) @ t=0.18
-0.00972933887981764
% es.EY (V/m) @ t=0.18
0.00691210320556257
% es.EZ (V/m) @ t=0.18
-0.010091460661288743
% es.tEX (V/m) @ t=0.18
-0.009729338879816751
% es.tEY (V/m) @ t=0.18
0
% es.tEZ (V/m) @ t=0.18
-0.010091460661286966
% es.Ex (V/m) @ t=0.18
-0.00972933887981764
% es.Ey (V/m) @ t=0.18
0.00691210320556257
% es.Ez (V/m) @ t=0.18
-0.010091460661288743
% es.tEx (V/m) @ t=0.18
-0.009729338879816751
% es.tEy (V/m) @ t=0.18
0
% es.tEz (V/m) @ t=0.18
-0.010091460661286966
% V (V) @ t=0.18
0.006872208587434714
% es.normE (V/m) @ t=0.2
0.0157761930424908
% es.EX (V/m) @ t=0.2
-0.009820785532027365
% es.EY (V/m) @ t=0.2
0.006977070585844736
% es.EZ (V/m) @ t=0.2
-0.01018631064164044
% es.tEX (V/m) @ t=0.2
-0.009820785532023812
% es.tEY (V/m) @ t=0.2
0
% es.tEZ (V/m) @ t=0.2
-0.010186310641639551
% es.Ex (V/m) @ t=0.2
-0.009820785532027365
% es.Ey (V/m) @ t=0.2
0.006977070585844736
% es.Ez (V/m) @ t=0.2
-0.01018631064164044
% es.tEx (V/m) @ t=0.2
-0.009820785532023812
% es.tEy (V/m) @ t=0.2
0
% es.tEz (V/m) @ t=0.2
-0.010186310641639551
% V (V) @ t=0.2
0.006936800314622445
% es.normE (V/m) @ t=0.22
0.015923093585291113
% es.EX (V/m) @ t=0.22
-0.009912232184238867
% es.EY (V/m) @ t=0.22
0.00704203796612779
% es.EZ (V/m) @ t=0.22
-0.010281160621996577
% es.tEX (V/m) @ t=0.22
-0.009912232184235314
% es.tEY (V/m) @ t=0.22
0
% es.tEZ (V/m) @ t=0.22
-0.010281160621998353
% es.Ex (V/m) @ t=0.22
-0.009912232184238867
% es.Ey (V/m) @ t=0.22
0.00704203796612779
% es.Ez (V/m) @ t=0.22
-0.010281160621996577
% es.tEx (V/m) @ t=0.22
-0.009912232184235314
% es.tEy (V/m) @ t=0.22
0
% es.tEz (V/m) @ t=0.22
-0.010281160621998353
% V (V) @ t=0.22
0.007001392041810174
% es.normE (V/m) @ t=0.24
0.01606999412808944
% es.EX (V/m) @ t=0.24
-0.010003678836446817
% es.EY (V/m) @ t=0.24
0.00710700534641262
% es.EZ (V/m) @ t=0.24
-0.010376010602351826
% es.tEX (V/m) @ t=0.24
-0.010003678836443264
% es.tEY (V/m) @ t=0.24
0
% es.tEZ (V/m) @ t=0.24
-0.010376010602350938
% es.Ex (V/m) @ t=0.24
-0.010003678836446817
% es.Ey (V/m) @ t=0.24
0.00710700534641262
% es.Ez (V/m) @ t=0.24
-0.010376010602351826
% es.tEx (V/m) @ t=0.24
-0.010003678836443264
% es.tEy (V/m) @ t=0.24
0
% es.tEz (V/m) @ t=0.24
-0.010376010602350938
% V (V) @ t=0.24
0.007065983768997905
% es.normE (V/m) @ t=0.26
0.01621689467088537
% es.EX (V/m) @ t=0.26
-0.010095125488661871
% es.EY (V/m) @ t=0.26
0.007171972726678799
% es.EZ (V/m) @ t=0.26
-0.010470860582709296
% es.tEX (V/m) @ t=0.26
-0.010095125488658319
% es.tEY (V/m) @ t=0.26
0
% es.tEZ (V/m) @ t=0.26
-0.010470860582710184
% es.Ex (V/m) @ t=0.26
-0.010095125488661871
% es.Ey (V/m) @ t=0.26
0.007171972726678799
% es.Ez (V/m) @ t=0.26
-0.010470860582709296
% es.tEx (V/m) @ t=0.26
-0.010095125488658319
% es.tEy (V/m) @ t=0.26
0
% es.tEz (V/m) @ t=0.26
-0.010470860582710184
% V (V) @ t=0.26
0.007130575496185636
% es.normE (V/m) @ t=0.28
0.01636379521368608
% es.EX (V/m) @ t=0.28
-0.010186572140868932
% es.EY (V/m) @ t=0.28
0.007236940106968959
% es.EZ (V/m) @ t=0.28
-0.010565710563065434
% es.tEX (V/m) @ t=0.28
-0.010186572140868932
% es.tEY (V/m) @ t=0.28
0
% es.tEZ (V/m) @ t=0.28
-0.010565710563064545
% es.Ex (V/m) @ t=0.28
-0.010186572140868932
% es.Ey (V/m) @ t=0.28
0.007236940106968959
% es.Ez (V/m) @ t=0.28
-0.010565710563065434
% es.tEx (V/m) @ t=0.28
-0.010186572140868932
% es.tEy (V/m) @ t=0.28
0
% es.tEz (V/m) @ t=0.28
-0.010565710563064545
% V (V) @ t=0.28
0.007195167223373367
% es.normE (V/m) @ t=0.3
0.01651217351801835
% es.EX (V/m) @ t=0.3
-0.010278939839180268
% es.EY (V/m) @ t=0.3
0.007302562716258176
% es.EZ (V/m) @ t=0.3
-0.010661512455874878
% es.tEX (V/m) @ t=0.3
-0.010278939839185597
% es.tEY (V/m) @ t=0.3
0
% es.tEZ (V/m) @ t=0.3
-0.010661512455874878
% es.Ex (V/m) @ t=0.3
-0.010278939839180268
% es.Ey (V/m) @ t=0.3
0.007302562716258176
% es.Ez (V/m) @ t=0.3
-0.010661512455874878
% es.tEx (V/m) @ t=0.3
-0.010278939839185597
% es.tEy (V/m) @ t=0.3
0
% es.tEz (V/m) @ t=0.3
-0.010661512455874878
% V (V) @ t=0.3
0.007260403440156086
% es.normE (V/m) @ t=0.32
0.01666789208002877
% es.EX (V/m) @ t=0.32
-0.010375882508172118
% es.EY (V/m) @ t=0.32
0.0073714399438857825
% es.EZ (V/m) @ t=0.32
-0.010762042637054492
% es.tEX (V/m) @ t=0.32
-0.010375882508172118
% es.tEY (V/m) @ t=0.32
0
% es.tEZ (V/m) @ t=0.32
-0.010762042637053604
% es.Ex (V/m) @ t=0.32
-0.010375882508172118
% es.Ey (V/m) @ t=0.32
0.0073714399438857825
% es.Ez (V/m) @ t=0.32
-0.010762042637054492
% es.tEx (V/m) @ t=0.32
-0.010375882508172118
% es.tEy (V/m) @ t=0.32
0
% es.tEz (V/m) @ t=0.32
-0.010762042637053604
% V (V) @ t=0.32
0.007328840930995517
% es.normE (V/m) @ t=0.34
0.016823610642056806
% es.EX (V/m) @ t=0.34
-0.010472825177163081
% es.EY (V/m) @ t=0.34
0.007440317171510724
% es.EZ (V/m) @ t=0.34
-0.010862572818233662
% es.tEX (V/m) @ t=0.34
-0.010472825177163081
% es.tEY (V/m) @ t=0.34
0
% es.tEZ (V/m) @ t=0.34
-0.010862572818233662
% es.Ex (V/m) @ t=0.34
-0.010472825177163081
% es.Ey (V/m) @ t=0.34
0.007440317171510724
% es.Ez (V/m) @ t=0.34
-0.010862572818233662
% es.tEx (V/m) @ t=0.34
-0.010472825177163081
% es.tEy (V/m) @ t=0.34
0
% es.tEz (V/m) @ t=0.34
-0.010862572818233662
% V (V) @ t=0.34
0.007397278421834947
% es.normE (V/m) @ t=0.36
0.01697932920409903
% es.EX (V/m) @ t=0.36
-0.010569767846152267
% es.EY (V/m) @ t=0.36
0.0075091943991290044
% es.EZ (V/m) @ t=0.36
-0.0109631029994115
% es.tEX (V/m) @ t=0.36
-0.010569767846148714
% es.tEY (V/m) @ t=0.36
0
% es.tEZ (V/m) @ t=0.36
-0.010963102999409724
% es.Ex (V/m) @ t=0.36
-0.010569767846152267
% es.Ey (V/m) @ t=0.36
0.0075091943991290044
% es.Ez (V/m) @ t=0.36
-0.0109631029994115
% es.tEx (V/m) @ t=0.36
-0.010569767846148714
% es.tEy (V/m) @ t=0.36
0
% es.tEz (V/m) @ t=0.36
-0.010963102999409724
% V (V) @ t=0.36
0.007465715912674378
% es.normE (V/m) @ t=0.38
0.01713504776615934
% es.EX (V/m) @ t=0.38
-0.010666710515141453
% es.EY (V/m) @ t=0.38
0.007578071626746841
% es.EZ (V/m) @ t=0.38
-0.011063633180588894
% es.tEX (V/m) @ t=0.38
-0.010666710515141453
% es.tEY (V/m) @ t=0.38
0
% es.tEZ (V/m) @ t=0.38
-0.011063633180588006
% es.Ex (V/m) @ t=0.38
-0.010666710515141453
% es.Ey (V/m) @ t=0.38
0.007578071626746841
% es.Ez (V/m) @ t=0.38
-0.011063633180588894
% es.tEx (V/m) @ t=0.38
-0.010666710515141453
% es.tEy (V/m) @ t=0.38
0
% es.tEz (V/m) @ t=0.38
-0.011063633180588006
% V (V) @ t=0.38
0.007534153403513809
% es.normE (V/m) @ t=0.4
0.0172907663282413
% es.EX (V/m) @ t=0.4
-0.010763653184129751
% es.EY (V/m) @ t=0.4
0.007646948854374003
% es.EZ (V/m) @ t=0.4
-0.011164163361766288
% es.tEX (V/m) @ t=0.4
-0.01076365318413064
% es.tEY (V/m) @ t=0.4
0
% es.tEZ (V/m) @ t=0.4
-0.011164163361764512
% es.Ex (V/m) @ t=0.4
-0.010763653184129751
% es.Ey (V/m) @ t=0.4
0.007646948854374003
% es.Ez (V/m) @ t=0.4
-0.011164163361766288
% es.tEx (V/m) @ t=0.4
-0.01076365318413064
% es.tEy (V/m) @ t=0.4
0
% es.tEz (V/m) @ t=0.4
-0.011164163361764512
% V (V) @ t=0.4
0.00760259089435324
% es.normE (V/m) @ t=0.42
0.01744648489034169
% es.EX (V/m) @ t=0.42
-0.01086059585312249
% es.EY (V/m) @ t=0.42
0.007715826081992283
% es.EZ (V/m) @ t=0.42
-0.011264693542946791
% es.tEX (V/m) @ t=0.42
-0.010860595853118937
% es.tEY (V/m) @ t=0.42
0
% es.tEZ (V/m) @ t=0.42
-0.011264693542945015
% es.Ex (V/m) @ t=0.42
-0.01086059585312249
% es.Ey (V/m) @ t=0.42
0.007715826081992283
% es.Ez (V/m) @ t=0.42
-0.011264693542946791
% es.tEx (V/m) @ t=0.42
-0.010860595853118937
% es.tEy (V/m) @ t=0.42
0
% es.tEz (V/m) @ t=0.42
-0.011264693542945015
% V (V) @ t=0.42
0.007671028385192669
% es.normE (V/m) @ t=0.44
0.017602203452459428
% es.EX (V/m) @ t=0.44
-0.010957538522111676
% es.EY (V/m) @ t=0.44
0.007784703309622554
% es.EZ (V/m) @ t=0.44
-0.011365223724122853
% es.tEX (V/m) @ t=0.44
-0.010957538522111676
% es.tEY (V/m) @ t=0.44
0
% es.tEZ (V/m) @ t=0.44
-0.011365223724121964
% es.Ex (V/m) @ t=0.44
-0.010957538522111676
% es.Ey (V/m) @ t=0.44
0.007784703309622554
% es.Ez (V/m) @ t=0.44
-0.011365223724122853
% es.tEx (V/m) @ t=0.44
-0.010957538522111676
% es.tEy (V/m) @ t=0.44
0
% es.tEz (V/m) @ t=0.44
-0.011365223724121964
% V (V) @ t=0.44
0.0077394658760321
% es.normE (V/m) @ t=0.46
0.017772797397755398
% es.EX (V/m) @ t=0.46
-0.01106370461265005
% es.EY (V/m) @ t=0.46
0.007860104573274018
% es.EZ (V/m) @ t=0.46
-0.011475431307052641
% es.tEX (V/m) @ t=0.46
-0.011063704612653602
% es.tEY (V/m) @ t=0.46
0
% es.tEZ (V/m) @ t=0.46
-0.011475431307051753
% es.Ex (V/m) @ t=0.46
-0.01106370461265005
% es.Ey (V/m) @ t=0.46
0.007860104573274018
% es.Ez (V/m) @ t=0.46
-0.011475431307052641
% es.tEx (V/m) @ t=0.46
-0.011063704612653602
% es.tEy (V/m) @ t=0.46
0
% es.tEz (V/m) @ t=0.46
-0.011475431307051753
% V (V) @ t=0.46
0.007814615559761519
% es.normE (V/m) @ t=0.48
0.017948242195582366
% es.EX (V/m) @ t=0.48
-0.01117287845442494
% es.EY (V/m) @ t=0.48
0.007937633320446391
% es.EZ (V/m) @ t=0.48
-0.011588794683834447
% es.tEX (V/m) @ t=0.48
-0.01117287845442494
% es.tEY (V/m) @ t=0.48
0
% es.tEZ (V/m) @ t=0.48
-0.011588794683833559
% es.Ex (V/m) @ t=0.48
-0.01117287845442494
% es.Ey (V/m) @ t=0.48
0.007937633320446391
% es.Ez (V/m) @ t=0.48
-0.011588794683834447
% es.tEx (V/m) @ t=0.48
-0.01117287845442494
% es.tEy (V/m) @ t=0.48
0
% es.tEz (V/m) @ t=0.48
-0.011588794683833559
% V (V) @ t=0.48
0.007891954084833572
% es.normE (V/m) @ t=0.5
0.01812368699409558
% es.EX (V/m) @ t=0.5
-0.011282052296197165
% es.EY (V/m) @ t=0.5
0.00801516206762276
% es.EZ (V/m) @ t=0.5
-0.0117021580606127
% es.tEX (V/m) @ t=0.5
-0.011282052296193612
% es.tEY (V/m) @ t=0.5
0
% es.tEZ (V/m) @ t=0.5
-0.011702158060610923
% es.Ex (V/m) @ t=0.5
-0.011282052296197165
% es.Ey (V/m) @ t=0.5
0.00801516206762276
% es.Ez (V/m) @ t=0.5
-0.0117021580606127
% es.tEx (V/m) @ t=0.5
-0.011282052296193612
% es.tEy (V/m) @ t=0.5
0
% es.tEz (V/m) @ t=0.5
-0.011702158060610923
% V (V) @ t=0.5
0.007969292609905627
% es.normE (V/m) @ t=0.52
0.018299131793285333
% es.EX (V/m) @ t=0.52
-0.011391226137971167
% es.EY (V/m) @ t=0.52
0.008092690814809345
% es.EZ (V/m) @ t=0.52
-0.011815521437394505
% es.tEX (V/m) @ t=0.52
-0.011391226137971167
% es.tEY (V/m) @ t=0.52
0
% es.tEZ (V/m) @ t=0.52
-0.011815521437393617
% es.Ex (V/m) @ t=0.52
-0.011391226137971167
% es.Ey (V/m) @ t=0.52
0.008092690814809345
% es.Ez (V/m) @ t=0.52
-0.011815521437394505
% es.tEx (V/m) @ t=0.52
-0.011391226137971167
% es.tEy (V/m) @ t=0.52
0
% es.tEz (V/m) @ t=0.52
-0.011815521437393617
% V (V) @ t=0.52
0.008046631134977684
% es.normE (V/m) @ t=0.54
0.01847457659312008
% es.EX (V/m) @ t=0.54
-0.01150039997974428
% es.EY (V/m) @ t=0.54
0.008170219561986158
% es.EZ (V/m) @ t=0.54
-0.011928884814176755
% es.tEX (V/m) @ t=0.54
-0.01150039997974428
% es.tEY (V/m) @ t=0.54
0
% es.tEZ (V/m) @ t=0.54
-0.011928884814175866
% es.Ex (V/m) @ t=0.54
-0.01150039997974428
% es.Ey (V/m) @ t=0.54
0.008170219561986158
% es.Ez (V/m) @ t=0.54
-0.011928884814176755
% es.tEx (V/m) @ t=0.54
-0.01150039997974428
% es.tEy (V/m) @ t=0.54
0
% es.tEz (V/m) @ t=0.54
-0.011928884814175866
% V (V) @ t=0.54
0.008123969660049737
% es.normE (V/m) @ t=0.56
0.01865002139358531
% es.EX (V/m) @ t=0.56
-0.011609573821516506
% es.EY (V/m) @ t=0.56
0.008247748309169634
% es.EZ (V/m) @ t=0.56
-0.012042248190954119
% es.tEX (V/m) @ t=0.56
-0.011609573821516506
% es.tEY (V/m) @ t=0.56
0
% es.tEZ (V/m) @ t=0.56
-0.01204224819095323
% es.Ex (V/m) @ t=0.56
-0.011609573821516506
% es.Ey (V/m) @ t=0.56
0.008247748309169634
% es.Ez (V/m) @ t=0.56
-0.012042248190954119
% es.tEx (V/m) @ t=0.56
-0.011609573821516506
% es.tEy (V/m) @ t=0.56
0
% es.tEz (V/m) @ t=0.56
-0.01204224819095323
% V (V) @ t=0.56
0.008201308185121792
% es.normE (V/m) @ t=0.58
0.018825466194652692
% es.EX (V/m) @ t=0.58
-0.011718747663282514
% es.EY (V/m) @ t=0.58
0.008325277056335345
% es.EZ (V/m) @ t=0.58
-0.012155611567731928
% es.tEX (V/m) @ t=0.58
-0.011718747663282514
% es.tEY (V/m) @ t=0.58
0
% es.tEZ (V/m) @ t=0.58
-0.01215561156773104
% es.Ex (V/m) @ t=0.58
-0.011718747663282514
% es.Ey (V/m) @ t=0.58
0.008325277056335345
% es.Ez (V/m) @ t=0.58
-0.012155611567731928
% es.tEx (V/m) @ t=0.58
-0.011718747663282514
% es.tEy (V/m) @ t=0.58
0
% es.tEz (V/m) @ t=0.58
-0.01215561156773104
% V (V) @ t=0.58
0.008278646710193849
% es.normE (V/m) @ t=0.6
0.01900091099633461
% es.EX (V/m) @ t=0.6
-0.011827921505060957
% es.EY (V/m) @ t=0.6
0.00840280580351438
% es.EZ (V/m) @ t=0.6
-0.012268974944516398
% es.tEX (V/m) @ t=0.6
-0.011827921505060957
% es.tEY (V/m) @ t=0.6
0
% es.tEZ (V/m) @ t=0.6
-0.012268974944514621
% es.Ex (V/m) @ t=0.6
-0.011827921505060957
% es.Ey (V/m) @ t=0.6
0.00840280580351438
% es.Ez (V/m) @ t=0.6
-0.012268974944516398
% es.tEx (V/m) @ t=0.6
-0.011827921505060957
% es.tEy (V/m) @ t=0.6
0
% es.tEz (V/m) @ t=0.6
-0.012268974944514621
% V (V) @ t=0.6
0.008355985235265902
% es.normE (V/m) @ t=0.62
0.019176355798586692
% es.EX (V/m) @ t=0.62
-0.011937095346828741
% es.EY (V/m) @ t=0.62
0.008480334550694746
% es.EZ (V/m) @ t=0.62
-0.01238233832129465
% es.tEX (V/m) @ t=0.62
-0.011937095346832294
% es.tEY (V/m) @ t=0.62
0
% es.tEZ (V/m) @ t=0.62
-0.012382338321293762
% es.Ex (V/m) @ t=0.62
-0.011937095346828741
% es.Ey (V/m) @ t=0.62
0.008480334550694746
% es.Ez (V/m) @ t=0.62
-0.01238233832129465
% es.tEx (V/m) @ t=0.62
-0.011937095346832294
% es.tEy (V/m) @ t=0.62
0
% es.tEz (V/m) @ t=0.62
-0.012382338321293762
% V (V) @ t=0.62
0.008433323760337955
% es.normE (V/m) @ t=0.64
0.019351800601403873
% es.EX (V/m) @ t=0.64
-0.012046269188600078
% es.EY (V/m) @ t=0.64
0.008557863297872892
% es.EZ (V/m) @ t=0.64
-0.012495701698072015
% es.tEX (V/m) @ t=0.64
-0.012046269188600078
% es.tEY (V/m) @ t=0.64
0
% es.tEZ (V/m) @ t=0.64
-0.012495701698072015
% es.Ex (V/m) @ t=0.64
-0.012046269188600078
% es.Ey (V/m) @ t=0.64
0.008557863297872892
% es.Ez (V/m) @ t=0.64
-0.012495701698072015
% es.tEx (V/m) @ t=0.64
-0.012046269188600078
% es.tEy (V/m) @ t=0.64
0
% es.tEz (V/m) @ t=0.64
-0.012495701698072015
% V (V) @ t=0.64
0.008510662285410014
% es.normE (V/m) @ t=0.66
0.019527245404774456
% es.EX (V/m) @ t=0.66
-0.012155443030374968
% es.EY (V/m) @ t=0.66
0.008635392045047041
% es.EZ (V/m) @ t=0.66
-0.012609065074855152
% es.tEX (V/m) @ t=0.66
-0.012155443030376745
% es.tEY (V/m) @ t=0.66
0
% es.tEZ (V/m) @ t=0.66
-0.012609065074853376
% es.Ex (V/m) @ t=0.66
-0.012155443030374968
% es.Ey (V/m) @ t=0.66
0.008635392045047041
% es.Ez (V/m) @ t=0.66
-0.012609065074855152
% es.tEx (V/m) @ t=0.66
-0.012155443030376745
% es.tEy (V/m) @ t=0.66
0
% es.tEz (V/m) @ t=0.66
-0.012609065074853376
% V (V) @ t=0.66
0.008588000810482069
% es.normE (V/m) @ t=0.68
0.01970269020867914
% es.EX (V/m) @ t=0.68
-0.012264616872146306
% es.EY (V/m) @ t=0.68
0.008712920792232293
% es.EZ (V/m) @ t=0.68
-0.012722428451633405
% es.tEX (V/m) @ t=0.68
-0.012264616872149858
% es.tEY (V/m) @ t=0.68
0
% es.tEZ (V/m) @ t=0.68
-0.012722428451633405
% es.Ex (V/m) @ t=0.68
-0.012264616872146306
% es.Ey (V/m) @ t=0.68
0.008712920792232293
% es.Ez (V/m) @ t=0.68
-0.012722428451633405
% es.tEx (V/m) @ t=0.68
-0.012264616872149858
% es.tEy (V/m) @ t=0.68
0
% es.tEz (V/m) @ t=0.68
-0.012722428451633405
% V (V) @ t=0.68
0.00866533933555412
% es.normE (V/m) @ t=0.7
0.019878135013103898
% es.EX (V/m) @ t=0.7
-0.012373790713922972
% es.EY (V/m) @ t=0.7
0.008790449539400225
% es.EZ (V/m) @ t=0.7
-0.012835791828417875
% es.tEX (V/m) @ t=0.7
-0.012373790713922972
% es.tEY (V/m) @ t=0.7
0
% es.tEZ (V/m) @ t=0.7
-0.012835791828416099
% es.Ex (V/m) @ t=0.7
-0.012373790713922972
% es.Ey (V/m) @ t=0.7
0.008790449539400225
% es.Ez (V/m) @ t=0.7
-0.012835791828417875
% es.tEx (V/m) @ t=0.7
-0.012373790713922972
% es.tEy (V/m) @ t=0.7
0
% es.tEz (V/m) @ t=0.7
-0.012835791828416099
% V (V) @ t=0.7
0.008742677860626177
% es.normE (V/m) @ t=0.72
0.020053579818035915
% es.EX (V/m) @ t=0.72
-0.012482964555696086
% es.EY (V/m) @ t=0.72
0.008867978286588585
% es.EZ (V/m) @ t=0.72
-0.012949155205192575
% es.tEX (V/m) @ t=0.72
-0.012482964555690756
% es.tEY (V/m) @ t=0.72
0
% es.tEZ (V/m) @ t=0.72
-0.012949155205194351
% es.Ex (V/m) @ t=0.72
-0.012482964555696086
% es.Ey (V/m) @ t=0.72
0.008867978286588585
% es.Ez (V/m) @ t=0.72
-0.012949155205192575
% es.tEx (V/m) @ t=0.72
-0.012482964555690756
% es.tEy (V/m) @ t=0.72
0
% es.tEz (V/m) @ t=0.72
-0.012949155205194351
% V (V) @ t=0.72
0.008820016385698232
% es.normE (V/m) @ t=0.74
0.02022902462345778
% es.EX (V/m) @ t=0.74
-0.012592138397465646
% es.EY (V/m) @ t=0.74
0.008945507033763178
% es.EZ (V/m) @ t=0.74
-0.01306251858197438
% es.tEX (V/m) @ t=0.74
-0.012592138397465646
% es.tEY (V/m) @ t=0.74
0
% es.tEZ (V/m) @ t=0.74
-0.013062518581976157
% es.Ex (V/m) @ t=0.74
-0.012592138397465646
% es.Ey (V/m) @ t=0.74
0.008945507033763178
% es.Ez (V/m) @ t=0.74
-0.01306251858197438
% es.tEx (V/m) @ t=0.74
-0.012592138397465646
% es.tEy (V/m) @ t=0.74
0
% es.tEz (V/m) @ t=0.74
-0.013062518581976157
% V (V) @ t=0.74
0.008897354910770287
% es.normE (V/m) @ t=0.76
0.020424092518625207
% es.EX (V/m) @ t=0.76
-0.012713629484505162
% es.EY (V/m) @ t=0.76
0.00903186615176832
% es.EZ (V/m) @ t=0.76
-0.013188349948216604
% es.tEX (V/m) @ t=0.76
-0.012713629484505162
% es.tEY (V/m) @ t=0.76
0
% es.tEZ (V/m) @ t=0.76
-0.013188349948216604
% es.Ex (V/m) @ t=0.76
-0.012713629484505162
% es.Ey (V/m) @ t=0.76
0.00903186615176832
% es.Ez (V/m) @ t=0.76
-0.013188349948216604
% es.tEx (V/m) @ t=0.76
-0.012713629484505162
% es.tEy (V/m) @ t=0.76
0
% es.tEz (V/m) @ t=0.76
-0.013188349948216604
% V (V) @ t=0.76
0.00898284472631228
% es.normE (V/m) @ t=0.78
0.020620703299767684
% es.EX (V/m) @ t=0.78
-0.012836089026730946
% es.EY (V/m) @ t=0.78
0.009118919566117878
% es.EZ (V/m) @ t=0.78
-0.013315161622059257
% es.tEX (V/m) @ t=0.78
-0.012836089026734498
% es.tEY (V/m) @ t=0.78
0
% es.tEZ (V/m) @ t=0.78
-0.013315161622061034
% es.Ex (V/m) @ t=0.78
-0.012836089026730946
% es.Ey (V/m) @ t=0.78
0.009118919566117878
% es.Ez (V/m) @ t=0.78
-0.013315161622059257
% es.tEx (V/m) @ t=0.78
-0.012836089026734498
% es.tEy (V/m) @ t=0.78
0
% es.tEz (V/m) @ t=0.78
-0.013315161622061034
% V (V) @ t=0.78
0.009068975444866706
% es.normE (V/m) @ t=0.8
0.020817314082732533
% es.EX (V/m) @ t=0.8
-0.012958548568963835
% es.EY (V/m) @ t=0.8
0.009205972980466548
% es.EZ (V/m) @ t=0.8
-0.013441973295906351
% es.tEX (V/m) @ t=0.8
-0.012958548568960282
% es.tEY (V/m) @ t=0.8
0
% es.tEZ (V/m) @ t=0.8
-0.013441973295904575
% es.Ex (V/m) @ t=0.8
-0.012958548568963835
% es.Ey (V/m) @ t=0.8
0.009205972980466548
% es.Ez (V/m) @ t=0.8
-0.013441973295906351
% es.tEx (V/m) @ t=0.8
-0.012958548568960282
% es.tEy (V/m) @ t=0.8
0
% es.tEz (V/m) @ t=0.8
-0.013441973295904575
% V (V) @ t=0.8
0.009155106163421132
% es.normE (V/m) @ t=0.82
0.02101392486745393
% es.EX (V/m) @ t=0.82
-0.013081008111187842
% es.EY (V/m) @ t=0.82
0.00929302639481877
% es.EZ (V/m) @ t=0.82
-0.013568784969747227
% es.tEX (V/m) @ t=0.82
-0.013081008111189618
% es.tEY (V/m) @ t=0.82
0
% es.tEZ (V/m) @ t=0.82
-0.013568784969747227
% es.Ex (V/m) @ t=0.82
-0.013081008111187842
% es.Ey (V/m) @ t=0.82
0.00929302639481877
% es.Ez (V/m) @ t=0.82
-0.013568784969747227
% es.tEx (V/m) @ t=0.82
-0.013081008111189618
% es.tEy (V/m) @ t=0.82
0
% es.tEz (V/m) @ t=0.82
-0.013568784969747227
% V (V) @ t=0.82
0.009241236881975557
% es.normE (V/m) @ t=0.84
0.021210535653896915
% es.EX (V/m) @ t=0.84
-0.013203467653422507
% es.EY (V/m) @ t=0.84
0.00938007980916078
% es.EZ (V/m) @ t=0.84
-0.013695596643594321
% es.tEX (V/m) @ t=0.84
-0.013203467653424283
% es.tEY (V/m) @ t=0.84
0
% es.tEZ (V/m) @ t=0.84
-0.013695596643592545
% es.Ex (V/m) @ t=0.84
-0.013203467653422507
% es.Ey (V/m) @ t=0.84
0.00938007980916078
% es.Ez (V/m) @ t=0.84
-0.013695596643594321
% es.tEx (V/m) @ t=0.84
-0.013203467653424283
% es.tEy (V/m) @ t=0.84
0
% es.tEz (V/m) @ t=0.84
-0.013695596643592545
% V (V) @ t=0.84
0.009327367600529983
% es.normE (V/m) @ t=0.86
0.021407146442014444
% es.EX (V/m) @ t=0.86
-0.013325927195657172
% es.EY (V/m) @ t=0.86
0.00946713322352366
% es.EZ (V/m) @ t=0.86
-0.013822408317436974
% es.tEX (V/m) @ t=0.86
-0.013325927195655396
% es.tEY (V/m) @ t=0.86
0
% es.tEZ (V/m) @ t=0.86
-0.013822408317435197
% es.Ex (V/m) @ t=0.86
-0.013325927195657172
% es.Ey (V/m) @ t=0.86
0.00946713322352366
% es.Ez (V/m) @ t=0.86
-0.013822408317436974
% es.tEx (V/m) @ t=0.86
-0.013325927195655396
% es.tEy (V/m) @ t=0.86
0
% es.tEz (V/m) @ t=0.86
-0.013822408317435197
% V (V) @ t=0.86
0.00941349831908441
% es.normE (V/m) @ t=0.88
0.021603757231745166
% es.EX (V/m) @ t=0.88
-0.013448386737886509
% es.EY (V/m) @ t=0.88
0.009554186637868778
% es.EZ (V/m) @ t=0.88
-0.013949219991282291
% es.tEX (V/m) @ t=0.88
-0.013448386737890061
% es.tEY (V/m) @ t=0.88
0
% es.tEZ (V/m) @ t=0.88
-0.013949219991280515
% es.Ex (V/m) @ t=0.88
-0.013448386737886509
% es.Ey (V/m) @ t=0.88
0.009554186637868778
% es.Ez (V/m) @ t=0.88
-0.013949219991282291
% es.tEx (V/m) @ t=0.88
-0.013448386737890061
% es.tEy (V/m) @ t=0.88
0
% es.tEz (V/m) @ t=0.88
-0.013949219991280515
% V (V) @ t=0.88
0.009499629037638839
% es.normE (V/m) @ t=0.9
0.021800368023065658
% es.EX (V/m) @ t=0.9
-0.013570846280119397
% es.EY (V/m) @ t=0.9
0.009641240052232547
% es.EZ (V/m) @ t=0.9
-0.014076031665128497
% es.tEX (V/m) @ t=0.9
-0.013570846280117621
% es.tEY (V/m) @ t=0.9
0
% es.tEZ (V/m) @ t=0.9
-0.014076031665124944
% es.Ex (V/m) @ t=0.9
-0.013570846280119397
% es.Ey (V/m) @ t=0.9
0.009641240052232547
% es.Ez (V/m) @ t=0.9
-0.014076031665128497
% es.tEx (V/m) @ t=0.9
-0.013570846280117621
% es.tEy (V/m) @ t=0.9
0
% es.tEz (V/m) @ t=0.9
-0.014076031665124944
% V (V) @ t=0.9
0.009585759756193262
% es.normE (V/m) @ t=0.92
0.021996978815910888
% es.EX (V/m) @ t=0.92
-0.013693305822346957
% es.EY (V/m) @ t=0.92
0.009728293466585214
% es.EZ (V/m) @ t=0.92
-0.014202843338969373
% es.tEX (V/m) @ t=0.92
-0.013693305822345181
% es.tEY (V/m) @ t=0.92
0
% es.tEZ (V/m) @ t=0.92
-0.014202843338967597
% es.Ex (V/m) @ t=0.92
-0.013693305822346957
% es.Ey (V/m) @ t=0.92
0.009728293466585214
% es.Ez (V/m) @ t=0.92
-0.014202843338969373
% es.tEx (V/m) @ t=0.92
-0.013693305822345181
% es.tEy (V/m) @ t=0.92
0
% es.tEz (V/m) @ t=0.92
-0.014202843338967597
% V (V) @ t=0.92
0.009671890474747688
% es.normE (V/m) @ t=0.94
0.02219358961025836
% es.EX (V/m) @ t=0.94
-0.013815765364581623
% es.EY (V/m) @ t=0.94
0.009815346880933884
% es.EZ (V/m) @ t=0.94
-0.014329655012816467
% es.tEX (V/m) @ t=0.94
-0.013815765364579846
% es.tEY (V/m) @ t=0.94
0
% es.tEZ (V/m) @ t=0.94
-0.01432965501281469
% es.Ex (V/m) @ t=0.94
-0.013815765364581623
% es.Ey (V/m) @ t=0.94
0.009815346880933884
% es.Ez (V/m) @ t=0.94
-0.014329655012816467
% es.tEx (V/m) @ t=0.94
-0.013815765364579846
% es.tEy (V/m) @ t=0.94
0
% es.tEz (V/m) @ t=0.94
-0.01432965501281469
% V (V) @ t=0.94
0.009758021193302114
% es.normE (V/m) @ t=0.96
0.02239020040605496
% es.EX (V/m) @ t=0.96
-0.013938224906809182
% es.EY (V/m) @ t=0.96
0.009902400295286995
% es.EZ (V/m) @ t=0.96
-0.014456466686656455
% es.tEX (V/m) @ t=0.96
-0.013938224906814511
% es.tEY (V/m) @ t=0.96
0
% es.tEZ (V/m) @ t=0.96
-0.014456466686656455
% es.Ex (V/m) @ t=0.96
-0.013938224906809182
% es.Ey (V/m) @ t=0.96
0.009902400295286995
% es.Ez (V/m) @ t=0.96
-0.014456466686656455
% es.tEx (V/m) @ t=0.96
-0.013938224906814511
% es.tEy (V/m) @ t=0.96
0
% es.tEz (V/m) @ t=0.96
-0.014456466686656455
% V (V) @ t=0.96
0.009844151911856539
% es.normE (V/m) @ t=0.98
0.022586811203266086
% es.EX (V/m) @ t=0.98
-0.014060684449034966
% es.EY (V/m) @ t=0.98
0.009989453709621454
% es.EZ (V/m) @ t=0.98
-0.014583278360505325
% es.tEX (V/m) @ t=0.98
-0.014060684449040295
% es.tEY (V/m) @ t=0.98
0
% es.tEZ (V/m) @ t=0.98
-0.014583278360503549
% es.Ex (V/m) @ t=0.98
-0.014060684449034966
% es.Ey (V/m) @ t=0.98
0.009989453709621454
% es.Ez (V/m) @ t=0.98
-0.014583278360505325
% es.tEx (V/m) @ t=0.98
-0.014060684449040295
% es.tEy (V/m) @ t=0.98
0
% es.tEz (V/m) @ t=0.98
-0.014583278360503549
% V (V) @ t=0.98
0.009930282630410967
% es.normE (V/m) @ t=1
0.02278342200187694
% es.EX (V/m) @ t=1