% Model:              1 neuron.mph
% Version:            COMSOL 6.1.0.252
% Date:               Mar 26 2023, 14:36
% Dimension:          0
% Nodes:              14017
% Expressions:        14017
% Description:        Electric field norm, Electric field, X component, Electric field, Y component, Electric field, Z component, Tangential electric field, X component, Tangential electric field, Y component, Tangential electric field, Z component, Electric field, x component, Electric field, y component, Electric field, z component, Tangential electric field, x component, Tangential electric field, y component, Tangential electric field, z component, Electric potential
% Length unit:        mm
% x
1
% y
14.200000000000001
% z
1.66
% es.normE (V/m) @ t=0
0.031153845694407933
% es.EX (V/m) @ t=0
0.030320964342672507
% es.EY (V/m) @ t=0
-0.0020749844789715866
% es.EZ (V/m) @ t=0
-0.00684804076312262
% es.tEX (V/m) @ t=0
0.030320964342677614
% es.tEY (V/m) @ t=0
0
% es.tEZ (V/m) @ t=0
-0.006848040763121066
% es.Ex (V/m) @ t=0
0.030320964342672507
% es.Ey (V/m) @ t=0
-0.0020749844789715866
% es.Ez (V/m) @ t=0
-0.00684804076312262
% es.tEx (V/m) @ t=0
0.030320964342677614
% es.tEy (V/m) @ t=0
0
% es.tEz (V/m) @ t=0
-0.006848040763121066
% V (V) @ t=0
0.007043059393747813
% es.normE (V/m) @ t=0.02
0.028510597734787917
% es.EX (V/m) @ t=0.02
0.027748382198602872
% es.EY (V/m) @ t=0.02
-0.001898932427030653
% es.EZ (V/m) @ t=0.02
-0.0062670187643507624
% es.tEX (V/m) @ t=0.02
0.027748382198606647
% es.tEY (V/m) @ t=0.02
0
% es.tEZ (V/m) @ t=0.02
-0.006267018764347654
% es.Ex (V/m) @ t=0.02
0.027748382198602872
% es.Ey (V/m) @ t=0.02
-0.001898932427030653
% es.Ez (V/m) @ t=0.02
-0.0062670187643507624
% es.tEx (V/m) @ t=0.02
0.027748382198606647
% es.tEy (V/m) @ t=0.02
0
% es.tEz (V/m) @ t=0.02
-0.006267018764347654
% V (V) @ t=0.02
0.006445491036567143
% es.normE (V/m) @ t=0.04
0.028772163013707157
% es.EX (V/m) @ t=0.04
0.028002954903765698
% es.EY (V/m) @ t=0.04
-0.0019163535992050562
% es.EZ (V/m) @ t=0.04
-0.00632451342221807
% es.tEX (V/m) @ t=0.04
0.028002954903766586
% es.tEY (V/m) @ t=0.04
0
% es.tEZ (V/m) @ t=0.04
-0.00632451342221696
% es.Ex (V/m) @ t=0.04
0.028002954903765698
% es.Ey (V/m) @ t=0.04
-0.0019163535992050562
% es.Ez (V/m) @ t=0.04
-0.00632451342221807
% es.tEx (V/m) @ t=0.04
0.028002954903766586
% es.tEy (V/m) @ t=0.04
0
% es.tEz (V/m) @ t=0.04
-0.00632451342221696
% V (V) @ t=0.04
0.006504624175719591
% es.normE (V/m) @ t=0.06
0.029036933660783273
% es.EX (V/m) @ t=0.06
0.02826064724199906
% es.EY (V/m) @ t=0.06
-0.0019339883047040374
% es.EZ (V/m) @ t=0.06
-0.006382712833998383
% es.tEX (V/m) @ t=0.06
0.028260647242005055
% es.tEY (V/m) @ t=0.06
0
% es.tEZ (V/m) @ t=0.06
-0.006382712833995496
% es.Ex (V/m) @ t=0.06
0.02826064724199906
% es.Ey (V/m) @ t=0.06
-0.0019339883047040374
% es.Ez (V/m) @ t=0.06
-0.006382712833998383
% es.tEx (V/m) @ t=0.06
0.028260647242005055
% es.tEy (V/m) @ t=0.06
0
% es.tEz (V/m) @ t=0.06
-0.006382712833995496
% V (V) @ t=0.06
0.0065644819360774894
% es.normE (V/m) @ t=0.08
0.029303754441462285
% es.EX (V/m) @ t=0.08
0.0285203352880794
% es.EY (V/m) @ t=0.08
-0.001951759168793421
% es.EZ (V/m) @ t=0.08
-0.006441361313269445
% es.tEX (V/m) @ t=0.08
0.028520335288084064
% es.tEY (V/m) @ t=0.08
0
% es.tEZ (V/m) @ t=0.08
-0.006441361313265892
% es.Ex (V/m) @ t=0.08
0.0285203352880794
% es.Ey (V/m) @ t=0.08
-0.001951759168793421
% es.Ez (V/m) @ t=0.08
-0.006441361313269445
% es.tEx (V/m) @ t=0.08
0.028520335288084064
% es.tEy (V/m) @ t=0.08
0
% es.tEz (V/m) @ t=0.08
-0.006441361313265892
% V (V) @ t=0.08
0.006624803435566883
% es.normE (V/m) @ t=0.1
0.029576142268223086
% es.EX (V/m) @ t=0.1
0.028785442589533083
% es.EY (V/m) @ t=0.1
-0.0019698997654393757
% es.EZ (V/m) @ t=0.1
-0.006501229215232218
% es.tEX (V/m) @ t=0.1
0.028785442589538635
% es.tEY (V/m) @ t=0.1
0
% es.tEZ (V/m) @ t=0.1
-0.006501229215231108
% es.Ex (V/m) @ t=0.1
0.028785442589533083
% es.Ey (V/m) @ t=0.1
-0.0019698997654393757
% es.Ez (V/m) @ t=0.1
-0.006501229215232218
% es.tEx (V/m) @ t=0.1
0.028785442589538635
% es.tEy (V/m) @ t=0.1
0
% es.tEz (V/m) @ t=0.1
-0.006501229215231108
% V (V) @ t=0.1
0.006686384197925442
% es.normE (V/m) @ t=0.12
0.02984853009498827
% es.EX (V/m) @ t=0.12
0.02905054989098943
% es.EY (V/m) @ t=0.12
-0.0019880403620855525
% es.EZ (V/m) @ t=0.12
-0.006561097117195658
% es.tEX (V/m) @ t=0.12
0.02905054989099365
% es.tEY (V/m) @ t=0.12
0
% es.tEZ (V/m) @ t=0.12
-0.006561097117192993
% es.Ex (V/m) @ t=0.12
0.02905054989098943
% es.Ey (V/m) @ t=0.12
-0.0019880403620855525
% es.Ez (V/m) @ t=0.12
-0.006561097117195658
% es.tEx (V/m) @ t=0.12
0.02905054989099365
% es.tEy (V/m) @ t=0.12
0
% es.tEz (V/m) @ t=0.12
-0.006561097117192993
% V (V) @ t=0.12
0.006747964960284
% es.normE (V/m) @ t=0.14
0.03012091792175507
% es.EX (V/m) @ t=0.14
0.029315657192445777
% es.EY (V/m) @ t=0.14
-0.0020061809587343937
% es.EZ (V/m) @ t=0.14
-0.006620965019158431
% es.tEX (V/m) @ t=0.14
0.02931565719245177
% es.tEY (V/m) @ t=0.14
0
% es.tEZ (V/m) @ t=0.14
-0.006620965019155545
% es.Ex (V/m) @ t=0.14
0.029315657192445777
% es.Ey (V/m) @ t=0.14
-0.0020061809587343937
% es.Ez (V/m) @ t=0.14
-0.006620965019158431
% es.tEx (V/m) @ t=0.14
0.02931565719245177
% es.tEy (V/m) @ t=0.14
0
% es.tEz (V/m) @ t=0.14
-0.006620965019155545
% V (V) @ t=0.14
0.006809545722642561
% es.normE (V/m) @ t=0.16
0.030402124646438634
% es.EX (V/m) @ t=0.16
0.02958934737411889
% es.EY (V/m) @ t=0.16
-0.002024909186354007
% es.EZ (V/m) @ t=0.16
-0.006682772461960251
% es.tEX (V/m) @ t=0.16
0.02958934737412311
% es.tEY (V/m) @ t=0.16
0
% es.tEZ (V/m) @ t=0.16
-0.006682772461958031
% es.Ex (V/m) @ t=0.16
0.02958934737411889
% es.Ey (V/m) @ t=0.16
-0.002024909186354007
% es.Ez (V/m) @ t=0.16
-0.006682772461960251
% es.tEx (V/m) @ t=0.16
0.02958934737412311
% es.tEy (V/m) @ t=0.16
0
% es.tEz (V/m) @ t=0.16
-0.006682772461958031
% V (V) @ t=0.16
0.006873120036359086
% es.normE (V/m) @ t=0.18
0.03069073116095632
% es.EX (V/m) @ t=0.18
0.029870239307121516
% es.EY (V/m) @ t=0.18
-0.002044130485293394
% es.EZ (V/m) @ t=0.18
-0.006746207341053356
% es.tEX (V/m) @ t=0.18
0.029870239307126623
% es.tEY (V/m) @ t=0.18
0
% es.tEZ (V/m) @ t=0.18
-0.006746207341050248
% es.Ex (V/m) @ t=0.18
0.029870239307121516
% es.Ey (V/m) @ t=0.18
-0.002044130485293394
% es.Ez (V/m) @ t=0.18
-0.006746207341053356
% es.tEx (V/m) @ t=0.18
0.029870239307126623
% es.tEy (V/m) @ t=0.18
0
% es.tEz (V/m) @ t=0.18
-0.006746207341050248
% V (V) @ t=0.18
0.006938367105696032
% es.normE (V/m) @ t=0.2
0.030979337675476056
% es.EX (V/m) @ t=0.2
0.03015113124012503
% es.EY (V/m) @ t=0.2
-0.0020633517842310045
% es.EZ (V/m) @ t=0.2
-0.006809642220149126
% es.tEX (V/m) @ t=0.2
0.03015113124012858
% es.tEY (V/m) @ t=0.2
0
% es.tEZ (V/m) @ t=0.2
-0.0068096422201473494
% es.Ex (V/m) @ t=0.2
0.03015113124012503
% es.Ey (V/m) @ t=0.2
-0.0020633517842310045
% es.Ez (V/m) @ t=0.2
-0.006809642220149126
% es.tEx (V/m) @ t=0.2
0.03015113124012858
% es.tEy (V/m) @ t=0.2
0
% es.tEz (V/m) @ t=0.2
-0.0068096422201473494
% V (V) @ t=0.2
0.00700361417503298
% es.normE (V/m) @ t=0.22
0.031267944189984444
% es.EX (V/m) @ t=0.22
0.03043202317311655
% es.EY (V/m) @ t=0.22
-0.0020825730831650624
% es.EZ (V/m) @ t=0.22
-0.006873077099244229
% es.tEX (V/m) @ t=0.22
0.030432023173123657
% es.tEY (V/m) @ t=0.22
0
% es.tEZ (V/m) @ t=0.22
-0.006873077099242675
% es.Ex (V/m) @ t=0.22
0.03043202317311655
% es.Ey (V/m) @ t=0.22
-0.0020825730831650624
% es.Ez (V/m) @ t=0.22
-0.006873077099244229
% es.tEx (V/m) @ t=0.22
0.030432023173123657
% es.tEy (V/m) @ t=0.22
0
% es.tEz (V/m) @ t=0.22
-0.006873077099242675
% V (V) @ t=0.22
0.007068861244369927
% es.normE (V/m) @ t=0.24
0.03155655070450907
% es.EX (V/m) @ t=0.24
0.030712915106124505
% es.EY (V/m) @ t=0.24
-0.002101794382108002
% es.EZ (V/m) @ t=0.24
-0.00693651197833467
% es.tEX (V/m) @ t=0.24
0.030712915106127614
% es.tEY (V/m) @ t=0.24
0
% es.tEZ (V/m) @ t=0.24
-0.0069365119783340035
% es.Ex (V/m) @ t=0.24
0.030712915106124505
% es.Ey (V/m) @ t=0.24
-0.002101794382108002
% es.Ez (V/m) @ t=0.24
-0.00693651197833467
% es.tEx (V/m) @ t=0.24
0.030712915106127614
% es.tEy (V/m) @ t=0.24
0
% es.tEz (V/m) @ t=0.24
-0.0069365119783340035
% V (V) @ t=0.24
0.007134108313706874
% es.normE (V/m) @ t=0.26
0.03184515721902621
% es.EX (V/m) @ t=0.26
0.030993807039123578
% es.EY (V/m) @ t=0.26
-0.002121015681052496
% es.EZ (V/m) @ t=0.26
-0.006999946857426886
% es.tEX (V/m) @ t=0.26
0.03099380703912935
% es.tEY (V/m) @ t=0.26
0
% es.tEZ (V/m) @ t=0.26
-0.006999946857423556
% es.Ex (V/m) @ t=0.26
0.030993807039123578
% es.Ey (V/m) @ t=0.26
-0.002121015681052496
% es.Ez (V/m) @ t=0.26
-0.006999946857426886
% es.tEx (V/m) @ t=0.26
0.03099380703912935
% es.tEy (V/m) @ t=0.26
0
% es.tEz (V/m) @ t=0.26
-0.006999946857423556
% V (V) @ t=0.26
0.007199355383043821
% es.normE (V/m) @ t=0.28
0.032133763733542625
% es.EX (V/m) @ t=0.28
0.03127469897212043
% es.EY (V/m) @ t=0.28
-0.002140236979991217
% es.EZ (V/m) @ t=0.28
-0.007063381736524432
% es.tEX (V/m) @ t=0.28
0.031274698972124204
% es.tEY (V/m) @ t=0.28
0
% es.tEZ (V/m) @ t=0.28
-0.007063381736521546
% es.Ex (V/m) @ t=0.28
0.03127469897212043
% es.Ey (V/m) @ t=0.28
-0.002140236979991217
% es.Ez (V/m) @ t=0.28
-0.007063381736524432
% es.tEx (V/m) @ t=0.28
0.031274698972124204
% es.tEy (V/m) @ t=0.28
0
% es.tEz (V/m) @ t=0.28
-0.007063381736521546
% V (V) @ t=0.28
0.007264602452380768
% es.normE (V/m) @ t=0.3
0.03242398130778362
% es.EX (V/m) @ t=0.3
0.03155715881635368
% es.EY (V/m) @ t=0.3
-0.0021595656615331915
% es.EZ (V/m) @ t=0.3
-0.007127171068555871
% es.tEX (V/m) @ t=0.3
0.0315571588163619
% es.tEY (V/m) @ t=0.3
0
% es.tEZ (V/m) @ t=0.3
-0.007127171068553206
% es.Ex (V/m) @ t=0.3
0.03155715881635368
% es.Ey (V/m) @ t=0.3
-0.0021595656615331915
% es.Ez (V/m) @ t=0.3
-0.007127171068555871
% es.tEx (V/m) @ t=0.3
0.0315571588163619
% es.tEy (V/m) @ t=0.3
0
% es.tEz (V/m) @ t=0.3
-0.007127171068553206
% V (V) @ t=0.3
0.007330213687355622
% es.normE (V/m) @ t=0.32
0.03272991934666701
% es.EX (V/m) @ t=0.32
0.031854918089138096
% es.EY (V/m) @ t=0.32
-0.00217994216537698
% es.EZ (V/m) @ t=0.32
-0.007194419096024474
% es.tEX (V/m) @ t=0.32
0.03185491808914276
% es.tEY (V/m) @ t=0.32
0
% es.tEZ (V/m) @ t=0.32
-0.007194419096022919
% es.Ex (V/m) @ t=0.32
0.031854918089138096
% es.Ey (V/m) @ t=0.32
-0.00217994216537698
% es.Ez (V/m) @ t=0.32
-0.007194419096024474
% es.tEx (V/m) @ t=0.32
0.03185491808914276
% es.tEy (V/m) @ t=0.32
0
% es.tEz (V/m) @ t=0.32
-0.007194419096022919
% V (V) @ t=0.32
0.007399378392736691
% es.normE (V/m) @ t=0.34
0.03303585738554685
% es.EX (V/m) @ t=0.34
0.03215267736191718
% es.EY (V/m) @ t=0.34
-0.0022003186692283183
% es.EZ (V/m) @ t=0.34
-0.007261667123498183
% es.tEX (V/m) @ t=0.34
0.032152677361920734
% es.tEY (V/m) @ t=0.34
0
% es.tEZ (V/m) @ t=0.34
-0.007261667123496629
% es.Ex (V/m) @ t=0.34
0.03215267736191718
% es.Ey (V/m) @ t=0.34
-0.0022003186692283183
% es.Ez (V/m) @ t=0.34
-0.007261667123498183
% es.tEx (V/m) @ t=0.34
0.032152677361920734
% es.tEy (V/m) @ t=0.34
0
% es.tEz (V/m) @ t=0.34
-0.007261667123496629
% V (V) @ t=0.34
0.007468543098117758
% es.normE (V/m) @ t=0.36
0.033341795424427306
% es.EX (V/m) @ t=0.36
0.03245043663469804
% es.EY (V/m) @ t=0.36
-0.002220695173077214
% es.EZ (V/m) @ t=0.36
-0.007328915150967452
% es.tEX (V/m) @ t=0.36
0.03245043663470337
% es.tEY (V/m) @ t=0.36
0
% es.tEZ (V/m) @ t=0.36
-0.007328915150963677
% es.Ex (V/m) @ t=0.36
0.03245043663469804
% es.Ey (V/m) @ t=0.36
-0.002220695173077214
% es.Ez (V/m) @ t=0.36
-0.007328915150967452
% es.tEx (V/m) @ t=0.36
0.03245043663470337
% es.tEy (V/m) @ t=0.36
0
% es.tEz (V/m) @ t=0.36
-0.007328915150963677
% V (V) @ t=0.36
0.007537707803498828
% es.normE (V/m) @ t=0.38
0.033647733463310334
% es.EX (V/m) @ t=0.38
0.03274819590748157
% es.EY (V/m) @ t=0.38
-0.0022410716769190042
% es.EZ (V/m) @ t=0.38
-0.007396163178438719
% es.tEX (V/m) @ t=0.38
0.0327481959074829
% es.tEY (V/m) @ t=0.38
0
% es.tEZ (V/m) @ t=0.38
-0.007396163178434723
% es.Ex (V/m) @ t=0.38
0.03274819590748157
% es.Ey (V/m) @ t=0.38
-0.0022410716769190042
% es.Ez (V/m) @ t=0.38
-0.007396163178438719
% es.tEx (V/m) @ t=0.38
0.0327481959074829
% es.tEy (V/m) @ t=0.38
0
% es.tEz (V/m) @ t=0.38
-0.007396163178434723
% V (V) @ t=0.38
0.007606872508879893
% es.normE (V/m) @ t=0.4
0.03395367150219102
% es.EX (V/m) @ t=0.4
0.03304595518026243
% es.EY (V/m) @ t=0.4
-0.0022614481807710085
% es.EZ (V/m) @ t=0.4
-0.007463411205907988
% es.tEX (V/m) @ t=0.4
0.03304595518026621
% es.tEY (V/m) @ t=0.4
0
% es.tEZ (V/m) @ t=0.4
-0.007463411205905324
% es.Ex (V/m) @ t=0.4
0.03304595518026243
% es.Ey (V/m) @ t=0.4
-0.0022614481807710085
% es.Ez (V/m) @ t=0.4
-0.007463411205907988
% es.tEx (V/m) @ t=0.4
0.03304595518026621
% es.tEy (V/m) @ t=0.4
0
% es.tEz (V/m) @ t=0.4
-0.007463411205905324
% V (V) @ t=0.4
0.007676037214260962
% es.normE (V/m) @ t=0.42
0.03425960954107501
% es.EX (V/m) @ t=0.42
0.03334371445304729
% es.EY (V/m) @ t=0.42
-0.002281824684613021
% es.EZ (V/m) @ t=0.42
-0.007530659233377479
% es.tEX (V/m) @ t=0.42
0.0333437144530504
% es.tEY (V/m) @ t=0.42
0
% es.tEZ (V/m) @ t=0.42
-0.0075306592333741484
% es.Ex (V/m) @ t=0.42
0.03334371445304729
% es.Ey (V/m) @ t=0.42
-0.002281824684613021
% es.Ez (V/m) @ t=0.42
-0.007530659233377479
% es.tEx (V/m) @ t=0.42
0.0333437144530504
% es.tEy (V/m) @ t=0.42
0
% es.tEz (V/m) @ t=0.42
-0.0075306592333741484
% V (V) @ t=0.42
0.007745201919642029
% es.normE (V/m) @ t=0.44
0.034565547579952456
% es.EX (V/m) @ t=0.44
0.033641473725824156
% es.EY (V/m) @ t=0.44
-0.002302201188465469
% es.EZ (V/m) @ t=0.44
-0.0075979072608494125
% es.tEX (V/m) @ t=0.44
0.03364147372582993
% es.tEY (V/m) @ t=0.44
0
% es.tEZ (V/m) @ t=0.44
-0.007597907260845638
% es.Ex (V/m) @ t=0.44
0.033641473725824156
% es.Ey (V/m) @ t=0.44
-0.002302201188465469
% es.Ez (V/m) @ t=0.44
-0.0075979072608494125
% es.tEx (V/m) @ t=0.44
0.03364147372582993
% es.tEy (V/m) @ t=0.44
0
% es.tEz (V/m) @ t=0.44
-0.007597907260845638
% V (V) @ t=0.44
0.007814366625023097
% es.normE (V/m) @ t=0.46
0.034896902706683795
% es.EX (V/m) @ t=0.46
0.03396395747809766
% es.EY (V/m) @ t=0.46
-0.0023242838810868527
% es.EZ (V/m) @ t=0.46
-0.007670796268044677
% es.tEX (V/m) @ t=0.46
0.03396395747810166
% es.tEY (V/m) @ t=0.46
0
% es.tEZ (V/m) @ t=0.46
-0.007670796268041791
% es.Ex (V/m) @ t=0.46
0.03396395747809766
% es.Ey (V/m) @ t=0.46
-0.0023242838810868527
% es.Ez (V/m) @ t=0.46
-0.007670796268044677
% es.tEx (V/m) @ t=0.46
0.03396395747810166
% es.tEy (V/m) @ t=0.46
0
% es.tEz (V/m) @ t=0.46
-0.007670796268041791
% V (V) @ t=0.46
0.007889268643145727
% es.normE (V/m) @ t=0.48
0.03524242125346482
% es.EX (V/m) @ t=0.48
0.034300218701108776
% es.EY (V/m) @ t=0.48
-0.002347317330479992
% es.EZ (V/m) @ t=0.48
-0.007746828655185611
% es.tEX (V/m) @ t=0.48
0.03430021870111255
% es.tEY (V/m) @ t=0.48
0
% es.tEZ (V/m) @ t=0.48
-0.007746828655182725
% es.Ex (V/m) @ t=0.48
0.034300218701108776
% es.Ey (V/m) @ t=0.48
-0.002347317330479992
% es.Ez (V/m) @ t=0.48
-0.007746828655185611
% es.tEx (V/m) @ t=0.48
0.03430021870111255
% es.tEy (V/m) @ t=0.48
0
% es.tEz (V/m) @ t=0.48
-0.007746828655182725
% V (V) @ t=0.48
0.007967367721836881
% es.normE (V/m) @ t=0.5
0.03558793980046915
% es.EX (V/m) @ t=0.5
0.03463647992412966
% es.EY (V/m) @ t=0.5
-0.0023703507798564782
% es.EZ (V/m) @ t=0.5
-0.007822861042330542
% es.tEX (V/m) @ t=0.5
0.034636479924133656
% es.tEY (V/m) @ t=0.5
0
% es.tEZ (V/m) @ t=0.5
-0.00782286104232588
% es.Ex (V/m) @ t=0.5
0.03463647992412966
% es.Ey (V/m) @ t=0.5
-0.0023703507798564782
% es.Ez (V/m) @ t=0.5
-0.007822861042330542
% es.tEx (V/m) @ t=0.5
0.034636479924133656
% es.tEy (V/m) @ t=0.5
0
% es.tEz (V/m) @ t=0.5
-0.00782286104232588
% V (V) @ t=0.5
0.008045466800528039
% es.normE (V/m) @ t=0.52
0.035933458347677395
% es.EX (V/m) @ t=0.52
0.034972741147147435
% es.EY (V/m) @ t=0.52
-0.002393384229245843
% es.EZ (V/m) @ t=0.52
-0.00789889342946748
% es.tEX (V/m) @ t=0.52
0.03497274114714988
% es.tEY (V/m) @ t=0.52
0
% es.tEZ (V/m) @ t=0.52
-0.007898893429464149
% es.Ex (V/m) @ t=0.52
0.034972741147147435
% es.Ey (V/m) @ t=0.52
-0.002393384229245843
% es.Ez (V/m) @ t=0.52
-0.00789889342946748
% es.tEx (V/m) @ t=0.52
0.03497274114714988
% es.tEy (V/m) @ t=0.52
0
% es.tEz (V/m) @ t=0.52
-0.007898893429464149
% V (V) @ t=0.52
0.008123565879219197
% es.normE (V/m) @ t=0.54
0.036278976895084136
% es.EX (V/m) @ t=0.54
0.03530900237015855
% es.EY (V/m) @ t=0.54
-0.0024164176786445335
% es.EZ (V/m) @ t=0.54
-0.007974925816615519
% es.tEX (V/m) @ t=0.54
0.035309002370162546
% es.tEY (V/m) @ t=0.54
0
% es.tEZ (V/m) @ t=0.54
-0.0079749258166113
% es.Ex (V/m) @ t=0.54
0.03530900237015855
% es.Ey (V/m) @ t=0.54
-0.0024164176786445335
% es.Ez (V/m) @ t=0.54
-0.007974925816615519
% es.tEx (V/m) @ t=0.54
0.035309002370162546
% es.tEy (V/m) @ t=0.54
0
% es.tEz (V/m) @ t=0.54
-0.0079749258166113
% V (V) @ t=0.54
0.008201664957910353
% es.normE (V/m) @ t=0.56
0.03662449544268646
% es.EX (V/m) @ t=0.56
0.03564526359317233
% es.EY (V/m) @ t=0.56
-0.002439451128028125
% es.EZ (V/m) @ t=0.56
-0.008050958203753567
% es.tEX (V/m) @ t=0.56
0.035645263593178544
% es.tEY (V/m) @ t=0.56
0
% es.tEZ (V/m) @ t=0.56
-0.008050958203750902
% es.Ex (V/m) @ t=0.56
0.03564526359317233
% es.Ey (V/m) @ t=0.56
-0.002439451128028125
% es.Ez (V/m) @ t=0.56
-0.008050958203753567
% es.tEx (V/m) @ t=0.56
0.035645263593178544
% es.tEy (V/m) @ t=0.56
0
% es.tEz (V/m) @ t=0.56
-0.008050958203750902
% V (V) @ t=0.56
0.008279764036601509
% es.normE (V/m) @ t=0.58
0.03697001399048394
% es.EX (V/m) @ t=0.58
0.0359815248161901
% es.EY (V/m) @ t=0.58
-0.002462484577407942
% es.EZ (V/m) @ t=0.58
-0.008126990590895389
% es.tEX (V/m) @ t=0.58
0.03598152481619632
% es.tEY (V/m) @ t=0.58
0
% es.tEZ (V/m) @ t=0.58
-0.008126990590891836
% es.Ex (V/m) @ t=0.58
0.0359815248161901
% es.Ey (V/m) @ t=0.58
-0.002462484577407942
% es.Ez (V/m) @ t=0.58
-0.008126990590895389
% es.tEx (V/m) @ t=0.58
0.03598152481619632
% es.tEy (V/m) @ t=0.58
0
% es.tEz (V/m) @ t=0.58
-0.008126990590891836
% V (V) @ t=0.58
0.008357863115292666
% es.normE (V/m) @ t=0.6
0.03731553253846495
% es.EX (V/m) @ t=0.6
0.03631778603920388
% es.EY (V/m) @ t=0.6
-0.002485518026804856
% es.EZ (V/m) @ t=0.6
-0.008203022978041208
% es.tEX (V/m) @ t=0.6
0.03631778603920832
% es.tEY (V/m) @ t=0.6
0
% es.tEZ (V/m) @ t=0.6
-0.008203022978038987
% es.Ex (V/m) @ t=0.6
0.03631778603920388
% es.Ey (V/m) @ t=0.6
-0.002485518026804856
% es.Ez (V/m) @ t=0.6
-0.008203022978041208
% es.tEx (V/m) @ t=0.6
0.03631778603920832
% es.tEy (V/m) @ t=0.6
0
% es.tEz (V/m) @ t=0.6
-0.008203022978038987
% V (V) @ t=0.6
0.008435962193983826
% es.normE (V/m) @ t=0.62
0.03766105108663104
% es.EX (V/m) @ t=0.62
0.03665404726222521
% es.EY (V/m) @ t=0.62
-0.002508551476180232
% es.EZ (V/m) @ t=0.62
-0.00827905536518192
% es.tEX (V/m) @ t=0.62
0.03665404726222832
% es.tEY (V/m) @ t=0.62
0
% es.tEZ (V/m) @ t=0.62
-0.00827905536517859
% es.Ex (V/m) @ t=0.62
0.03665404726222521
% es.Ey (V/m) @ t=0.62
-0.002508551476180232
% es.Ez (V/m) @ t=0.62
-0.00827905536518192
% es.tEx (V/m) @ t=0.62
0.03665404726222832
% es.tEy (V/m) @ t=0.62
0
% es.tEz (V/m) @ t=0.62
-0.00827905536517859
% V (V) @ t=0.62
0.008514061272674978
% es.normE (V/m) @ t=0.64
0.0380065696349679
% es.EX (V/m) @ t=0.64
0.036990308485239876
% es.EY (V/m) @ t=0.64
-0.0025315849255684864
% es.EZ (V/m) @ t=0.64
-0.008355087752327295
% es.tEX (V/m) @ t=0.64
0.03699030848524032
% es.tEY (V/m) @ t=0.64
0
% es.tEZ (V/m) @ t=0.64
-0.008355087752324852
% es.Ex (V/m) @ t=0.64
0.036990308485239876
% es.Ey (V/m) @ t=0.64
-0.0025315849255684864
% es.Ez (V/m) @ t=0.64
-0.008355087752327295
% es.tEx (V/m) @ t=0.64
0.03699030848524032
% es.tEy (V/m) @ t=0.64
0
% es.tEz (V/m) @ t=0.64
-0.008355087752324852
% V (V) @ t=0.64
0.008592160351366136
% es.normE (V/m) @ t=0.66
0.03835208818347158
% es.EX (V/m) @ t=0.66
0.037326569708252766
% es.EY (V/m) @ t=0.66
-0.002554618374957407
% es.EZ (V/m) @ t=0.66
-0.0084311201394629
% es.tEX (V/m) @ t=0.66
0.037326569708260315
% es.tEY (V/m) @ t=0.66
0
% es.tEZ (V/m) @ t=0.66
-0.008431120139460457
% es.Ex (V/m) @ t=0.66
0.037326569708252766
% es.Ey (V/m) @ t=0.66
-0.002554618374957407
% es.Ez (V/m) @ t=0.66
-0.0084311201394629
% es.tEx (V/m) @ t=0.66
0.037326569708260315
% es.tEy (V/m) @ t=0.66
0
% es.tEz (V/m) @ t=0.66
-0.008431120139460457
% V (V) @ t=0.66
0.008670259430057293
% es.normE (V/m) @ t=0.68
0.038697606732142155
% es.EX (V/m) @ t=0.68
0.03766283093126388
% es.EY (V/m) @ t=0.68
-0.0025776518243409985
% es.EZ (V/m) @ t=0.68
-0.008507152526611828
% es.tEX (V/m) @ t=0.68
0.03766283093127276
% es.tEY (V/m) @ t=0.68
0
% es.tEZ (V/m) @ t=0.68
-0.008507152526608497
% es.Ex (V/m) @ t=0.68
0.03766283093126388
% es.Ey (V/m) @ t=0.68
-0.0025776518243409985
% es.Ez (V/m) @ t=0.68
-0.008507152526611828
% es.tEx (V/m) @ t=0.68
0.03766283093127276
% es.tEy (V/m) @ t=0.68
0
% es.tEz (V/m) @ t=0.68
-0.008507152526608497
% V (V) @ t=0.68
0.00874835850874845
% es.normE (V/m) @ t=0.7
0.039043125280979446
% es.EX (V/m) @ t=0.7
0.037999092154281655
% es.EY (V/m) @ t=0.7
-0.0026006852737361363
% es.EZ (V/m) @ t=0.7
-0.008583184913750763
% es.tEX (V/m) @ t=0.7
0.037999092154289205
% es.tEY (V/m) @ t=0.7
0
% es.tEZ (V/m) @ t=0.7
-0.008583184913749431
% es.Ex (V/m) @ t=0.7
0.037999092154281655
% es.Ey (V/m) @ t=0.7
-0.0026006852737361363
% es.Ez (V/m) @ t=0.7
-0.008583184913750763
% es.tEx (V/m) @ t=0.7
0.037999092154289205
% es.tEy (V/m) @ t=0.7
0
% es.tEz (V/m) @ t=0.7
-0.008583184913749431
% V (V) @ t=0.7
0.008826457587439607
% es.normE (V/m) @ t=0.72
0.03938864382997418
% es.EX (V/m) @ t=0.72
0.038335353377299874
% es.EY (V/m) @ t=0.72
-0.002623718723109958
% es.EZ (V/m) @ t=0.72
-0.008659217300894362
% es.tEX (V/m) @ t=0.72
0.03833535337730831
% es.tEY (V/m) @ t=0.72
0
% es.tEZ (V/m) @ t=0.72
-0.008659217300893474
% es.Ex (V/m) @ t=0.72
0.038335353377299874
% es.Ey (V/m) @ t=0.72
-0.002623718723109958
% es.Ez (V/m) @ t=0.72
-0.008659217300894362
% es.tEx (V/m) @ t=0.72
0.03833535337730831
% es.tEy (V/m) @ t=0.72
0
% es.tEz (V/m) @ t=0.72
-0.008659217300893474
% V (V) @ t=0.72
0.008904556666130761
% es.normE (V/m) @ t=0.74
0.03973416237911879
% es.EX (V/m) @ t=0.74
0.03867161460031365
% es.EY (V/m) @ t=0.74
-0.0026467521725046517
% es.EZ (V/m) @ t=0.74
-0.00873524968803574
% es.tEX (V/m) @ t=0.74
0.038671614600320314
% es.tEY (V/m) @ t=0.74
0
% es.tEZ (V/m) @ t=0.74
-0.008735249688032631
% es.Ex (V/m) @ t=0.74
0.03867161460031365
% es.Ey (V/m) @ t=0.74
-0.0026467521725046517
% es.Ez (V/m) @ t=0.74
-0.00873524968803574
% es.tEx (V/m) @ t=0.74
0.038671614600320314
% es.tEy (V/m) @ t=0.74
0
% es.tEz (V/m) @ t=0.74
-0.008735249688032631
% V (V) @ t=0.74
0.00898265574482192
% es.normE (V/m) @ t=0.76
0.04010972763709684
% es.EX (V/m) @ t=0.76
0.039037170524290676
% es.EY (V/m) @ t=0.76
-0.002671734806638071
% es.EZ (V/m) @ t=0.76
-0.00881767552717494
% es.tEX (V/m) @ t=0.76
0.03903717052429734
% es.tEY (V/m) @ t=0.76
0
% es.tEZ (V/m) @ t=0.76
-0.008817675527169389
% es.Ex (V/m) @ t=0.76
0.039037170524290676
% es.Ey (V/m) @ t=0.76
-0.002671734806638071
% es.Ez (V/m) @ t=0.76
-0.00881767552717494
% es.tEx (V/m) @ t=0.76
0.03903717052429734
% es.tEy (V/m) @ t=0.76
0
% es.tEz (V/m) @ t=0.76
-0.008817675527169389
% V (V) @ t=0.76
0.009067582106455547
% es.normE (V/m) @ t=0.78
0.04049581835937778
% es.EX (V/m) @ t=0.78
0.039412988480625355
% es.EY (V/m) @ t=0.78
-0.0026974002467494707
% es.EZ (V/m) @ t=0.78
-0.008902341014061843
% es.tEX (V/m) @ t=0.78
0.03941298848063424
% es.tEY (V/m) @ t=0.78
0
% es.tEZ (V/m) @ t=0.78
-0.008902341014056514
% es.Ex (V/m) @ t=0.78
0.039412988480625355
% es.Ey (V/m) @ t=0.78
-0.0026974002467494707
% es.Ez (V/m) @ t=0.78
-0.008902341014061843
% es.tEx (V/m) @ t=0.78
0.03941298848063424
% es.tEy (V/m) @ t=0.78
0
% es.tEz (V/m) @ t=0.78
-0.008902341014056514
% V (V) @ t=0.78
0.009154900088287019
% es.normE (V/m) @ t=0.8
0.04088190908288126
% es.EX (V/m) @ t=0.8
0.03978880643696048
% es.EY (V/m) @ t=0.8
-0.0027230656868666436
% es.EZ (V/m) @ t=0.8
-0.008987006500947414
% es.tEX (V/m) @ t=0.8
0.03978880643696625
% es.tEY (V/m) @ t=0.8
0
% es.tEZ (V/m) @ t=0.8
-0.008987006500946748
% es.Ex (V/m) @ t=0.8
0.03978880643696048
% es.Ey (V/m) @ t=0.8
-0.0027230656868666436
% es.Ez (V/m) @ t=0.8
-0.008987006500947414
% es.tEx (V/m) @ t=0.8
0.03978880643696625
% es.tEy (V/m) @ t=0.8
0
% es.tEz (V/m) @ t=0.8
-0.008987006500946748
% V (V) @ t=0.8
0.009242218070118493
% es.normE (V/m) @ t=0.82
0.04126799980757154
% es.EX (V/m) @ t=0.82
0.04016462439329249
% es.EY (V/m) @ t=0.82
-0.0027487311269878134
% es.EZ (V/m) @ t=0.82
-0.009071671987841423
% es.tEX (V/m) @ t=0.82
0.0401646243932956
% es.tEY (V/m) @ t=0.82
0
% es.tEZ (V/m) @ t=0.82
-0.009071671987838759
% es.Ex (V/m) @ t=0.82
0.04016462439329249
% es.Ey (V/m) @ t=0.82
-0.0027487311269878134
% es.Ez (V/m) @ t=0.82
-0.009071671987841423
% es.tEx (V/m) @ t=0.82
0.0401646243932956
% es.tEy (V/m) @ t=0.82
0
% es.tEz (V/m) @ t=0.82
-0.009071671987838759
% V (V) @ t=0.82
0.009329536051949965
% es.normE (V/m) @ t=0.84
0.04165409053342544
% es.EX (V/m) @ t=0.84
0.040540442349635164
% es.EY (V/m) @ t=0.84
-0.002774396567103432
% es.EZ (V/m) @ t=0.84
-0.009156337474730547
% es.tEX (V/m) @ t=0.84
0.040540442349639605
% es.tEY (V/m) @ t=0.84
0
% es.tEZ (V/m) @ t=0.84
-0.009156337474726772
% es.Ex (V/m) @ t=0.84
0.040540442349635164
% es.Ey (V/m) @ t=0.84
-0.002774396567103432
% es.Ez (V/m) @ t=0.84
-0.009156337474730547
% es.tEx (V/m) @ t=0.84
0.040540442349639605
% es.tEy (V/m) @ t=0.84
0
% es.tEz (V/m) @ t=0.84
-0.009156337474726772
% V (V) @ t=0.84
0.009416854033781435
% es.normE (V/m) @ t=0.86
0.04204018126038721
% es.EX (V/m) @ t=0.86
0.04091626030596274
% es.EY (V/m) @ t=0.86
-0.0028000620072181626
% es.EZ (V/m) @ t=0.86
-0.00924100296161856
% es.tEX (V/m) @ t=0.86
0.0409162603059694
% es.tEY (V/m) @ t=0.86
0
% es.tEZ (V/m) @ t=0.86
-0.009241002961618339
% es.Ex (V/m) @ t=0.86
0.04091626030596274
% es.Ey (V/m) @ t=0.86
-0.0028000620072181626
% es.Ez (V/m) @ t=0.86
-0.00924100296161856
% es.tEx (V/m) @ t=0.86
0.0409162603059694
% es.tEy (V/m) @ t=0.86
0
% es.tEz (V/m) @ t=0.86
-0.009241002961618339
% V (V) @ t=0.86
0.00950417201561291
% es.normE (V/m) @ t=0.88
0.04242627198845259
% es.EX (V/m) @ t=0.88
0.04129207826230186
% es.EY (V/m) @ t=0.88
-0.002825727447327342
% es.EZ (V/m) @ t=0.88
-0.009325668448509017
% es.tEX (V/m) @ t=0.88
0.041292078262309406
% es.tEY (V/m) @ t=0.88
0
% es.tEZ (V/m) @ t=0.88
-0.0093256684485028
% es.Ex (V/m) @ t=0.88
0.04129207826230186
% es.Ey (V/m) @ t=0.88
-0.002825727447327342
% es.Ez (V/m) @ t=0.88
-0.009325668448509017
% es.tEx (V/m) @ t=0.88
0.041292078262309406
% es.tEy (V/m) @ t=0.88
0
% es.tEz (V/m) @ t=0.88
-0.0093256684485028
% V (V) @ t=0.88
0.00959148999744438
% es.normE (V/m) @ t=0.9
0.042812362717574916
% es.EX (V/m) @ t=0.9
0.04166789621863476
% es.EY (V/m) @ t=0.9
-0.002851392887439852
% es.EZ (V/m) @ t=0.9
-0.009410333935399917
% es.tEX (V/m) @ t=0.9
0.04166789621863609
% es.tEY (V/m) @ t=0.9
0
% es.tEZ (V/m) @ t=0.9
-0.009410333935395698
% es.Ex (V/m) @ t=0.9
0.04166789621863476
% es.Ey (V/m) @ t=0.9
-0.002851392887439852
% es.Ez (V/m) @ t=0.9
-0.009410333935399917
% es.tEx (V/m) @ t=0.9
0.04166789621863609
% es.tEy (V/m) @ t=0.9
0
% es.tEz (V/m) @ t=0.9
-0.009410333935395698
% V (V) @ t=0.9
0.009678807979275854
% es.normE (V/m) @ t=0.92
0.04319845344773689
% es.EX (V/m) @ t=0.92
0.04204371417497299
% es.EY (V/m) @ t=0.92
-0.0028770583275610218
% es.EZ (V/m) @ t=0.92
-0.009494999422289485
% es.tEX (V/m) @ t=0.92
0.0420437141749761
% es.tEY (V/m) @ t=0.92
0
% es.tEZ (V/m) @ t=0.92
-0.009494999422287265
% es.Ex (V/m) @ t=0.92
0.04204371417497299
% es.Ey (V/m) @ t=0.92
-0.0028770583275610218
% es.Ez (V/m) @ t=0.92
-0.009494999422289485
% es.tEx (V/m) @ t=0.92
0.0420437141749761
% es.tEy (V/m) @ t=0.92
0
% es.tEz (V/m) @ t=0.92
-0.009494999422287265
% V (V) @ t=0.92
0.009766125961107328
% es.normE (V/m) @ t=0.94
0.04358454417889827
% es.EX (V/m) @ t=0.94
0.042419532131305004
% es.EY (V/m) @ t=0.94
-0.002902723767674864
% es.EZ (V/m) @ t=0.94
-0.009579664909175722
% es.tEX (V/m) @ t=0.94
0.042419532131311666
% es.tEY (V/m) @ t=0.94
0
% es.tEZ (V/m) @ t=0.94
-0.009579664909173502
% es.Ex (V/m) @ t=0.94
0.042419532131305004
% es.Ey (V/m) @ t=0.94
-0.002902723767674864
% es.Ez (V/m) @ t=0.94
-0.009579664909175722
% es.tEx (V/m) @ t=0.94
0.042419532131311666
% es.tEy (V/m) @ t=0.94
0
% es.tEz (V/m) @ t=0.94
-0.009579664909173502
% V (V) @ t=0.94
0.009853443942938803
% es.normE (V/m) @ t=0.96
0.04397063491104038
% es.EX (V/m) @ t=0.96
0.04279535008763702
% es.EY (V/m) @ t=0.96
-0.002928389207786708
% es.EZ (V/m) @ t=0.96
-0.009664330396065068
% es.tEX (V/m) @ t=0.96
0.042795350087648565
% es.tEY (V/m) @ t=0.96
0
% es.tEZ (V/m) @ t=0.96
-0.009664330396060183
% es.Ex (V/m) @ t=0.96
0.04279535008763702
% es.Ey (V/m) @ t=0.96
-0.002928389207786708
% es.Ez (V/m) @ t=0.96
-0.009664330396065068
% es.tEx (V/m) @ t=0.96
0.042795350087648565
% es.tEy (V/m) @ t=0.96
0
% es.tEz (V/m) @ t=0.96
-0.009664330396060183
% V (V) @ t=0.96
0.009940761924770275
% es.normE (V/m) @ t=0.98
0.04435672564414565
% es.EX (V/m) @ t=0.98
0.04317116804397614
% es.EY (V/m) @ t=0.98
-0.0029540546479003282
% es.EZ (V/m) @ t=0.98
-0.00974899588296152
% es.tEX (V/m) @ t=0.98
0.04317116804398191
% es.tEY (V/m) @ t=0.98
0
% es.tEZ (V/m) @ t=0.98
-0.009748995882957967
% es.Ex (V/m) @ t=0.98
0.04317116804397614
% es.Ey (V/m) @ t=0.98
-0.0029540546479003282
% es.Ez (V/m) @ t=0.98
-0.00974899588296152
% es.tEx (V/m) @ t=0.98
0.04317116804398191
% es.tEy (V/m) @ t=0.98
0
% es.tEz (V/m) @ t=0.98
-0.009748995882957967
% V (V) @ t=0.98
0.010028079906601746
% es.normE (V/m) @ t=1
0.04474281637816843
% es.EX (V/m) @ t=1
0.04354698600030371
% es.EY (V/m) @ t=1
-0.0029797200880277153
% es.EZ (V/m) @ t=1
-0.009833661369848645
% es.tEX (V/m) @ t=1
0.04354698600031526
% es.tEY (V/m) @ t=1
0