% Model:              1 neuron.mph
% Version:            COMSOL 6.1.0.252
% Date:               Mar 26 2023, 14:29
% Dimension:          0
% Nodes:              14017
% Expressions:        14017
% Description:        Electric field norm, Electric field, X component, Electric field, Y component, Electric field, Z component, Tangential electric field, X component, Tangential electric field, Y component, Tangential electric field, Z component, Electric field, x component, Electric field, y component, Electric field, z component, Tangential electric field, x component, Tangential electric field, y component, Tangential electric field, z component, Electric potential
% Length unit:        mm
% x
1
% y
14.200000000000001
% z
1
% es.normE (V/m) @ t=0
0.04362022751877427
% es.EX (V/m) @ t=0
0.03238567297767414
% es.EY (V/m) @ t=0
-0.0029274983381428754
% es.EZ (V/m) @ t=0
0.02907442498232682
% es.tEX (V/m) @ t=0
0.0323856729776697
% es.tEY (V/m) @ t=0
0
% es.tEZ (V/m) @ t=0
0.02907442498232693
% es.Ex (V/m) @ t=0
0.03238567297767414
% es.Ey (V/m) @ t=0
-0.0029274983381428754
% es.Ez (V/m) @ t=0
0.02907442498232682
% es.tEx (V/m) @ t=0
0.0323856729776697
% es.tEy (V/m) @ t=0
0
% es.tEz (V/m) @ t=0
0.02907442498232693
% V (V) @ t=0
0.007261056826774919
% es.normE (V/m) @ t=0.02
0.039947065947186854
% es.EX (V/m) @ t=0.02
0.029658546579244938
% es.EY (V/m) @ t=0.02
-0.002680980472344885
% es.EZ (V/m) @ t=0.02
0.026626134460386086
% es.tEX (V/m) @ t=0.02
0.029658546579236944
% es.tEY (V/m) @ t=0.02
0
% es.tEZ (V/m) @ t=0.02
0.026626134460385198
% es.Ex (V/m) @ t=0.02
0.029658546579244938
% es.Ey (V/m) @ t=0.02
-0.002680980472344885
% es.Ez (V/m) @ t=0.02
0.026626134460386086
% es.tEx (V/m) @ t=0.02
0.029658546579236944
% es.tEy (V/m) @ t=0.02
0
% es.tEz (V/m) @ t=0.02
0.026626134460385198
% V (V) @ t=0.02
0.006649618790596207
% es.normE (V/m) @ t=0.04
0.04031368088872325
% es.EX (V/m) @ t=0.04
0.029930739402736606
% es.EY (V/m) @ t=0.04
-0.0027055850814683424
% es.EZ (V/m) @ t=0.04
0.026870495249812887
% es.tEX (V/m) @ t=0.04
0.029930739402732165
% es.tEY (V/m) @ t=0.04
0
% es.tEZ (V/m) @ t=0.04
0.026870495249812998
% es.Ex (V/m) @ t=0.04
0.029930739402736606
% es.Ey (V/m) @ t=0.04
-0.0027055850814683424
% es.Ez (V/m) @ t=0.04
0.026870495249812887
% es.tEx (V/m) @ t=0.04
0.029930739402732165
% es.tEy (V/m) @ t=0.04
0
% es.tEz (V/m) @ t=0.04
0.026870495249812998
% V (V) @ t=0.04
0.00671064626414643
% es.normE (V/m) @ t=0.06
0.04068481338791038
% es.EX (V/m) @ t=0.06
0.030206287094650452
% es.EY (V/m) @ t=0.06
-0.002730492724162037
% es.EZ (V/m) @ t=0.06
0.027117866248065003
% es.tEX (V/m) @ t=0.06
0.030206287094645567
% es.tEY (V/m) @ t=0.06
0
% es.tEZ (V/m) @ t=0.06
0.02711786624806678
% es.Ex (V/m) @ t=0.06
0.030206287094650452
% es.Ey (V/m) @ t=0.06
-0.002730492724162037
% es.Ez (V/m) @ t=0.06
0.027117866248065003
% es.tEx (V/m) @ t=0.06
0.030206287094645567
% es.tEy (V/m) @ t=0.06
0
% es.tEz (V/m) @ t=0.06
0.02711786624806678
% V (V) @ t=0.06
0.006772426193002744
% es.normE (V/m) @ t=0.08
0.0410587643457696
% es.EX (V/m) @ t=0.08
0.030483927046116577
% es.EY (V/m) @ t=0.08
-0.0027555895715534184
% es.EZ (V/m) @ t=0.08
0.027367116171815198
% es.tEX (V/m) @ t=0.08
0.030483927046108583
% es.tEY (V/m) @ t=0.08
0
% es.tEZ (V/m) @ t=0.08
0.02736711617181531
% es.Ex (V/m) @ t=0.08
0.030483927046116577
% es.Ey (V/m) @ t=0.08
-0.0027555895715534184
% es.Ez (V/m) @ t=0.08
0.027367116171815198
% es.tEx (V/m) @ t=0.08
0.030483927046108583
% es.tEy (V/m) @ t=0.08
0
% es.tEz (V/m) @ t=0.08
0.02736711617181531
% V (V) @ t=0.08
0.006834675130656514
% es.normE (V/m) @ t=0.1
0.04144058734264367
% es.EX (V/m) @ t=0.1
0.030767410740840884
% es.EY (V/m) @ t=0.1
-0.0027812148733028508
% es.EZ (V/m) @ t=0.1
0.027621613990427618
% es.tEX (V/m) @ t=0.1
0.03076741074083289
% es.tEY (V/m) @ t=0.1
0
% es.tEZ (V/m) @ t=0.1
0.02762161399042773
% es.Ex (V/m) @ t=0.1
0.030767410740840884
% es.Ey (V/m) @ t=0.1
-0.0027812148733028508
% es.Ez (V/m) @ t=0.1
0.027621613990427618
% es.tEx (V/m) @ t=0.1
0.03076741074083289
% es.tEy (V/m) @ t=0.1
0
% es.tEz (V/m) @ t=0.1
0.02762161399042773
% V (V) @ t=0.1
0.0068982340238490005
% es.normE (V/m) @ t=0.12
0.04182241033951645
% es.EX (V/m) @ t=0.12
0.031050894435561638
% es.EY (V/m) @ t=0.12
-0.0028068401750642735
% es.EZ (V/m) @ t=0.12
0.027876111809040816
% es.tEX (V/m) @ t=0.12
0.031050894435558973
% es.tEY (V/m) @ t=0.12
0
% es.tEZ (V/m) @ t=0.12
0.02787611180904004
% es.Ex (V/m) @ t=0.12
0.031050894435561638
% es.Ey (V/m) @ t=0.12
-0.0028068401750642735
% es.Ez (V/m) @ t=0.12
0.027876111809040816
% es.tEx (V/m) @ t=0.12
0.031050894435558973
% es.tEy (V/m) @ t=0.12
0
% es.tEz (V/m) @ t=0.12
0.02787611180904004
% V (V) @ t=0.12
0.006961792917041489
% es.normE (V/m) @ t=0.14
0.04220423333639368
% es.EX (V/m) @ t=0.14
0.03133437813028772
% es.EY (V/m) @ t=0.14
-0.00283246547682392
% es.EZ (V/m) @ t=0.14
0.0281306096276549
% es.tEX (V/m) @ t=0.14
0.03133437813028506
% es.tEY (V/m) @ t=0.14
0
% es.tEZ (V/m) @ t=0.14
0.028130609627652348
% es.Ex (V/m) @ t=0.14
0.03133437813028772
% es.Ey (V/m) @ t=0.14
-0.00283246547682392
% es.Ez (V/m) @ t=0.14
0.0281306096276549
% es.tEx (V/m) @ t=0.14
0.03133437813028506
% es.tEy (V/m) @ t=0.14
0
% es.tEz (V/m) @ t=0.14
0.028130609627652348
% V (V) @ t=0.14
0.007025351810233977
% es.normE (V/m) @ t=0.16
0.042598187341976505
% es.EX (V/m) @ t=0.16
0.031626866876951265
% es.EY (V/m) @ t=0.16
-0.0028589051975052016
% es.EZ (V/m) @ t=0.16
0.02839319491429959
% es.tEX (V/m) @ t=0.16
0.03162686687694283
% es.tEY (V/m) @ t=0.16
0
% es.tEZ (V/m) @ t=0.16
0.028393194914299702
% es.Ex (V/m) @ t=0.16
0.031626866876951265
% es.Ey (V/m) @ t=0.16
-0.0028589051975052016
% es.Ez (V/m) @ t=0.16
0.02839319491429959
% es.tEx (V/m) @ t=0.16
0.03162686687694283
% es.tEy (V/m) @ t=0.16
0
% es.tEz (V/m) @ t=0.16
0.028393194914299702
% V (V) @ t=0.16
0.007090929209095286
% es.normE (V/m) @ t=0.18
0.04300278096481275
% es.EX (V/m) @ t=0.18
0.03192725359057924
% es.EY (V/m) @ t=0.18
-0.002886059212084735
% es.EZ (V/m) @ t=0.18
0.02866287339215745
% es.tEX (V/m) @ t=0.18
0.0319272535905748
% es.tEY (V/m) @ t=0.18
0
% es.tEZ (V/m) @ t=0.18
0.028662873392157562
% es.Ex (V/m) @ t=0.18
0.03192725359057924
% es.Ey (V/m) @ t=0.18
-0.002886059212084735
% es.Ez (V/m) @ t=0.18
0.02866287339215745
% es.tEx (V/m) @ t=0.18
0.0319272535905748
% es.tEy (V/m) @ t=0.18
0
% es.tEz (V/m) @ t=0.18
0.028662873392157562
% V (V) @ t=0.18
0.007158276957665009
% es.normE (V/m) @ t=0.2
0.043407374587648144
% es.EX (V/m) @ t=0.2
0.032227640304204996
% es.EY (V/m) @ t=0.2
-0.0029132132266731503
% es.EZ (V/m) @ t=0.2
0.0289325518700152
% es.tEX (V/m) @ t=0.2
0.03222764030420233
% es.tEY (V/m) @ t=0.2
0
% es.tEZ (V/m) @ t=0.2
0.028932551870013534
% es.Ex (V/m) @ t=0.2
0.032227640304204996
% es.Ey (V/m) @ t=0.2
-0.0029132132266731503
% es.Ez (V/m) @ t=0.2
0.0289325518700152
% es.tEx (V/m) @ t=0.2
0.03222764030420233
% es.tEy (V/m) @ t=0.2
0
% es.tEz (V/m) @ t=0.2
0.028932551870013534
% V (V) @ t=0.2
0.007225624706234731
% es.normE (V/m) @ t=0.22
0.04381196821048722
% es.EX (V/m) @ t=0.22
0.032528027017833416
% es.EY (V/m) @ t=0.22
-0.00294036724126423
% es.EZ (V/m) @ t=0.22
0.029202230347874836
% es.tEX (V/m) @ t=0.22
0.0325280270178272
% es.tEY (V/m) @ t=0.22
0
% es.tEZ (V/m) @ t=0.22
0.02920223034787317
% es.Ex (V/m) @ t=0.22
0.032528027017833416
% es.Ey (V/m) @ t=0.22
-0.00294036724126423
% es.Ez (V/m) @ t=0.22
0.029202230347874836
% es.tEx (V/m) @ t=0.22
0.0325280270178272
% es.tEy (V/m) @ t=0.22
0
% es.tEz (V/m) @ t=0.22
0.02920223034787317
% V (V) @ t=0.22
0.007292972454804452
% es.normE (V/m) @ t=0.24
0.04421656183331929
% es.EX (V/m) @ t=0.24
0.03282841373145606
% es.EY (V/m) @ t=0.24
-0.0029675212558473163
% es.EZ (V/m) @ t=0.24
0.029471908825730808
% es.tEX (V/m) @ t=0.24
0.032828413731455175
% es.tEY (V/m) @ t=0.24
0
% es.tEZ (V/m) @ t=0.24
0.029471908825729143
% es.Ex (V/m) @ t=0.24
0.03282841373145606
% es.Ey (V/m) @ t=0.24
-0.0029675212558473163
% es.Ez (V/m) @ t=0.24
0.029471908825730808
% es.tEx (V/m) @ t=0.24
0.032828413731455175
% es.tEy (V/m) @ t=0.24
0
% es.tEz (V/m) @ t=0.24
0.029471908825729143
% V (V) @ t=0.24
0.007360320203374173
% es.normE (V/m) @ t=0.26
0.04462115545616543
% es.EX (V/m) @ t=0.26
0.03312880044509159
% es.EY (V/m) @ t=0.26
-0.0029946752704397284
% es.EZ (V/m) @ t=0.26
0.02974158730359222
% es.tEX (V/m) @ t=0.26
0.033128800445088924
% es.tEY (V/m) @ t=0.26
0
% es.tEZ (V/m) @ t=0.26
0.02974158730359233
% es.Ex (V/m) @ t=0.26
0.03312880044509159
% es.Ey (V/m) @ t=0.26
-0.0029946752704397284
% es.Ez (V/m) @ t=0.26
0.02974158730359222
% es.tEx (V/m) @ t=0.26
0.033128800445088924
% es.tEy (V/m) @ t=0.26
0
% es.tEz (V/m) @ t=0.26
0.02974158730359233
% V (V) @ t=0.26
0.007427667951943895
% es.normE (V/m) @ t=0.28
0.04502574907899913
% es.EX (V/m) @ t=0.28
0.03342918715871779
% es.EY (V/m) @ t=0.28
-0.0030218292850179296
% es.EZ (V/m) @ t=0.28
0.030011265781446417
% es.tEX (V/m) @ t=0.28
0.03342918715871335
% es.tEY (V/m) @ t=0.28
0
% es.tEZ (V/m) @ t=0.28
0.030011265781446528
% es.Ex (V/m) @ t=0.28
0.03342918715871779
% es.Ey (V/m) @ t=0.28
-0.0030218292850179296
% es.Ez (V/m) @ t=0.28
0.030011265781446417
% es.tEx (V/m) @ t=0.28
0.03342918715871335
% es.tEy (V/m) @ t=0.28
0
% es.tEz (V/m) @ t=0.28
0.030011265781446528
% V (V) @ t=0.28
0.007495015700513616
% es.normE (V/m) @ t=0.3
0.04543207097122169
% es.EX (V/m) @ t=0.3
0.033730857233534195
% es.EY (V/m) @ t=0.3
-0.003049099253217946
% es.EZ (V/m) @ t=0.3
0.03028209597714604
% es.tEX (V/m) @ t=0.3
0.033730857233529754
% es.tEY (V/m) @ t=0.3
0
% es.tEZ (V/m) @ t=0.3
0.03028209597714615
% es.Ex (V/m) @ t=0.3
0.033730857233534195
% es.Ey (V/m) @ t=0.3
-0.003049099253217946
% es.Ez (V/m) @ t=0.3
0.03028209597714604
% es.tEx (V/m) @ t=0.3
0.033730857233529754
% es.tEy (V/m) @ t=0.3
0
% es.tEz (V/m) @ t=0.3
0.03028209597714615
% V (V) @ t=0.3
0.007562651251445066
% es.normE (V/m) @ t=0.32
0.04586101963564482
% es.EX (V/m) @ t=0.32
0.03404932927309501
% es.EY (V/m) @ t=0.32
-0.0030778873042076604
% es.EZ (V/m) @ t=0.32
0.030568004642369973
% es.tEX (V/m) @ t=0.32
0.03404932927309012
% es.tEY (V/m) @ t=0.32
0
% es.tEZ (V/m) @ t=0.32
0.03056800464236742
% es.Ex (V/m) @ t=0.32
0.03404932927309501
% es.Ey (V/m) @ t=0.32
-0.0030778873042076604
% es.Ez (V/m) @ t=0.32
0.030568004642369973
% es.tEx (V/m) @ t=0.32
0.03404932927309012
% es.tEy (V/m) @ t=0.32
0
% es.tEz (V/m) @ t=0.32
0.03056800464236742
% V (V) @ t=0.32
0.007634054755760215
% es.normE (V/m) @ t=0.34
0.046289968300065716
% es.EX (V/m) @ t=0.34
0.03436780131265893
% es.EY (V/m) @ t=0.34
-0.003106675355209809
% es.EZ (V/m) @ t=0.34
0.0308539133075858
% es.tEX (V/m) @ t=0.34
0.034367801312650936
% es.tEY (V/m) @ t=0.34
0
% es.tEZ (V/m) @ t=0.34
0.030853913307585024
% es.Ex (V/m) @ t=0.34
0.03436780131265893
% es.Ey (V/m) @ t=0.34
-0.003106675355209809
% es.Ez (V/m) @ t=0.34
0.0308539133075858
% es.tEx (V/m) @ t=0.34
0.034367801312650936
% es.tEy (V/m) @ t=0.34
0
% es.tEz (V/m) @ t=0.34
0.030853913307585024
% V (V) @ t=0.34
0.007705458260075366
% es.normE (V/m) @ t=0.36
0.04671891696448137
% es.EX (V/m) @ t=0.36
0.034686273352215746
% es.EY (V/m) @ t=0.36
-0.003135463406203076
% es.EZ (V/m) @ t=0.36
0.031139821972802517
% es.tEX (V/m) @ t=0.36
0.034686273352211305
% es.tEY (V/m) @ t=0.36
0
% es.tEZ (V/m) @ t=0.36
0.03113982197280174
% es.Ex (V/m) @ t=0.36
0.034686273352215746
% es.Ey (V/m) @ t=0.36
-0.003135463406203076
% es.Ez (V/m) @ t=0.36
0.031139821972802517
% es.tEx (V/m) @ t=0.36
0.034686273352211305
% es.tEy (V/m) @ t=0.36
0
% es.tEz (V/m) @ t=0.36
0.03113982197280174
% V (V) @ t=0.36
0.007776861764390516
% es.normE (V/m) @ t=0.38
0.047147865628906355
% es.EX (V/m) @ t=0.38
0.03500474539178189
% es.EY (V/m) @ t=0.38
-0.003164251457205225
% es.EZ (V/m) @ t=0.38
0.0314257306380219
% es.tEX (V/m) @ t=0.38
0.03500474539177745
% es.tEY (V/m) @ t=0.38
0
% es.tEZ (V/m) @ t=0.38
0.03142573063802201
% es.Ex (V/m) @ t=0.38
0.03500474539178189
% es.Ey (V/m) @ t=0.38
-0.003164251457205225
% es.Ez (V/m) @ t=0.38
0.0314257306380219
% es.tEx (V/m) @ t=0.38
0.03500474539177745
% es.tEy (V/m) @ t=0.38
0
% es.tEz (V/m) @ t=0.38
0.03142573063802201
% V (V) @ t=0.38
0.007848265268705664
% es.normE (V/m) @ t=0.4
0.047576814293325206
% es.EX (V/m) @ t=0.4
0.03532321743134004
% es.EY (V/m) @ t=0.4
-0.0031930395082051533
% es.EZ (V/m) @ t=0.4
0.03171163930324117
% es.tEX (V/m) @ t=0.4
0.035323217431335596
% es.tEY (V/m) @ t=0.4
0
% es.tEZ (V/m) @ t=0.4
0.03171163930324139
% es.Ex (V/m) @ t=0.4
0.03532321743134004
% es.Ey (V/m) @ t=0.4
-0.0031930395082051533
% es.Ez (V/m) @ t=0.4
0.03171163930324117
% es.tEx (V/m) @ t=0.4
0.035323217431335596
% es.tEy (V/m) @ t=0.4
0
% es.tEz (V/m) @ t=0.4
0.03171163930324139
% V (V) @ t=0.4
0.007919668773020814
% es.normE (V/m) @ t=0.42
0.048005762957748485
% es.EX (V/m) @ t=0.42
0.03564168947090529
% es.EY (V/m) @ t=0.42
-0.0032218275591908707
% es.EZ (V/m) @ t=0.42
0.03199754796846055
% es.tEX (V/m) @ t=0.42
0.035641689470899074
% es.tEY (V/m) @ t=0.42
0
% es.tEZ (V/m) @ t=0.42
0.03199754796846066
% es.Ex (V/m) @ t=0.42
0.03564168947090529
% es.Ey (V/m) @ t=0.42
-0.0032218275591908707
% es.Ez (V/m) @ t=0.42
0.03199754796846055
% es.tEx (V/m) @ t=0.42
0.035641689470899074
% es.tEy (V/m) @ t=0.42
0
% es.tEz (V/m) @ t=0.42
0.03199754796846066
% V (V) @ t=0.42
0.007991072277335962
% es.normE (V/m) @ t=0.44
0.04843471162216906
% es.EX (V/m) @ t=0.44
0.035960161510462996
% es.EY (V/m) @ t=0.44
-0.003250615610200569
% es.EZ (V/m) @ t=0.44
0.03228345663368182
% es.tEX (V/m) @ t=0.44
0.035960161510458555
% es.tEY (V/m) @ t=0.44
0
% es.tEZ (V/m) @ t=0.44
0.032283456633678376
% es.Ex (V/m) @ t=0.44
0.035960161510462996
% es.Ey (V/m) @ t=0.44
-0.003250615610200569
% es.Ez (V/m) @ t=0.44
0.03228345663368182
% es.tEx (V/m) @ t=0.44
0.035960161510458555
% es.tEy (V/m) @ t=0.44
0
% es.tEz (V/m) @ t=0.44
0.032283456633678376
% V (V) @ t=0.44
0.008062475781651113
% es.normE (V/m) @ t=0.46
0.0488973753702152
% es.EX (V/m) @ t=0.46
0.03630360482508088
% es.EY (V/m) @ t=0.46
-0.0032816762737164495
% es.EZ (V/m) @ t=0.46
0.03259190383568622
% es.tEX (V/m) @ t=0.46
0.03630360482507644
% es.tEY (V/m) @ t=0.46
0
% es.tEZ (V/m) @ t=0.46
0.03259190383568633
% es.Ex (V/m) @ t=0.46
0.03630360482508088
% es.Ey (V/m) @ t=0.46
-0.0032816762737164495
% es.Ez (V/m) @ t=0.46
0.03259190383568622
% es.tEx (V/m) @ t=0.46
0.03630360482507644
% es.tEy (V/m) @ t=0.46
0
% es.tEz (V/m) @ t=0.46
0.03259190383568633
% V (V) @ t=0.46
0.008139460070893613
% es.normE (V/m) @ t=0.48
0.0493816695361312
% es.EX (V/m) @ t=0.48
0.0366630688356997
% es.EY (V/m) @ t=0.48
-0.0033141949658714864
% es.EZ (V/m) @ t=0.48
0.03291481097397653
% es.tEX (V/m) @ t=0.48
0.036663068835695256
% es.tEY (V/m) @ t=0.48
0
% es.tEZ (V/m) @ t=0.48
0.03291481097398019
% es.Ex (V/m) @ t=0.48
0.0366630688356997
% es.Ey (V/m) @ t=0.48
-0.0033141949658714864
% es.Ez (V/m) @ t=0.48
0.03291481097397653
% es.tEx (V/m) @ t=0.48
0.036663068835695256
% es.tEy (V/m) @ t=0.48
0
% es.tEz (V/m) @ t=0.48
0.03291481097398019
% V (V) @ t=0.48
0.008220024796400218
% es.normE (V/m) @ t=0.5
0.04986596370248048
% es.EX (V/m) @ t=0.5
0.03702253284632562
% es.EY (V/m) @ t=0.5
-0.003346713658035405
% es.EZ (V/m) @ t=0.5
0.033237718112273607
% es.tEX (V/m) @ t=0.5
0.0370225328463194
% es.tEY (V/m) @ t=0.5
0
% es.tEZ (V/m) @ t=0.5
0.03323771811227383
% es.Ex (V/m) @ t=0.5
0.03702253284632562
% es.Ey (V/m) @ t=0.5
-0.003346713658035405
% es.Ez (V/m) @ t=0.5
0.033237718112273607
% es.tEx (V/m) @ t=0.5
0.0370225328463194
% es.tEy (V/m) @ t=0.5
0
% es.tEz (V/m) @ t=0.5
0.03323771811227383
% V (V) @ t=0.5
0.008300589521906824
% es.normE (V/m) @ t=0.52
0.050350257869222384
% es.EX (V/m) @ t=0.52
0.03738199685693466
% es.EY (V/m) @ t=0.52
-0.0033792323502015442
% es.EZ (V/m) @ t=0.52
0.03356062525056214
% es.tEX (V/m) @ t=0.52
0.03738199685693022
% es.tEY (V/m) @ t=0.52
0
% es.tEZ (V/m) @ t=0.52
0.03356062525055692
% es.Ex (V/m) @ t=0.52
0.03738199685693466
% es.Ey (V/m) @ t=0.52
-0.0033792323502015442
% es.Ez (V/m) @ t=0.52
0.03356062525056214
% es.tEx (V/m) @ t=0.52
0.03738199685693022
% es.tEy (V/m) @ t=0.52
0
% es.tEz (V/m) @ t=0.52
0.03356062525055692
% V (V) @ t=0.52
0.008381154247413428
% es.normE (V/m) @ t=0.54
0.050834552036377205
% es.EX (V/m) @ t=0.54
0.03774146086756058
% es.EY (V/m) @ t=0.54
-0.0034117510423548048
% es.EZ (V/m) @ t=0.54
0.03388353238885411
% es.tEX (V/m) @ t=0.54
0.037741460867554366
% es.tEY (V/m) @ t=0.54
0
% es.tEZ (V/m) @ t=0.54
0.03388353238885422
% es.Ex (V/m) @ t=0.54
0.03774146086756058
% es.Ey (V/m) @ t=0.54
-0.0034117510423548048
% es.Ez (V/m) @ t=0.54
0.03388353238885411
% es.tEx (V/m) @ t=0.54
0.037741460867554366
% es.tEy (V/m) @ t=0.54
0
% es.tEz (V/m) @ t=0.54
0.03388353238885422
% V (V) @ t=0.54
0.008461718972920033
% es.normE (V/m) @ t=0.56
0.05131884620391726
% es.EX (V/m) @ t=0.56
0.03810092487818384
% es.EY (V/m) @ t=0.56
-0.0034442697345191675
% es.EZ (V/m) @ t=0.56
0.034206439527144306
% es.tEX (V/m) @ t=0.56
0.0381009248781794
% es.tEY (V/m) @ t=0.56
0
% es.tEZ (V/m) @ t=0.56
0.03420643952714808
% es.Ex (V/m) @ t=0.56
0.03810092487818384
% es.Ey (V/m) @ t=0.56
-0.0034442697345191675
% es.Ez (V/m) @ t=0.56
0.034206439527144306
% es.tEx (V/m) @ t=0.56
0.0381009248781794
% es.tEy (V/m) @ t=0.56
0
% es.tEz (V/m) @ t=0.56
0.03420643952714808
% V (V) @ t=0.56
0.008542283698426637
% es.normE (V/m) @ t=0.58
0.051803140371831945
% es.EX (V/m) @ t=0.58
0.03846038888880088
% es.EY (V/m) @ t=0.58
-0.0034767884266835303
% es.EZ (V/m) @ t=0.58
0.034529346665438165
% es.tEX (V/m) @ t=0.58
0.03846038888879111
% es.tEY (V/m) @ t=0.58
0
% es.tEZ (V/m) @ t=0.58
0.034529346665438276
% es.Ex (V/m) @ t=0.58
0.03846038888880088
% es.Ey (V/m) @ t=0.58
-0.0034767884266835303
% es.Ez (V/m) @ t=0.58
0.034529346665438165
% es.tEx (V/m) @ t=0.58
0.03846038888879111
% es.tEy (V/m) @ t=0.58
0
% es.tEz (V/m) @ t=0.58
0.034529346665438276
% V (V) @ t=0.58
0.008622848423933242
% es.normE (V/m) @ t=0.6
0.052287434540115175
% es.EX (V/m) @ t=0.6
0.03881985289942236
% es.EY (V/m) @ t=0.6
-0.003509307118833238
% es.EZ (V/m) @ t=0.6
0.034852253803731914
% es.tEX (V/m) @ t=0.6
0.03881985289941614
% es.tEY (V/m) @ t=0.6
0
% es.tEZ (V/m) @ t=0.6
0.03485225380373025
% es.Ex (V/m) @ t=0.6
0.03881985289942236
% es.Ey (V/m) @ t=0.6
-0.003509307118833238
% es.Ez (V/m) @ t=0.6
0.034852253803731914
% es.tEx (V/m) @ t=0.6
0.03881985289941614
% es.tEy (V/m) @ t=0.6
0
% es.tEz (V/m) @ t=0.6
0.03485225380373025
% V (V) @ t=0.6
0.008703413149439846
% es.normE (V/m) @ t=0.62
0.05277172870875184
% es.EX (V/m) @ t=0.62
0.03917931691004206
% es.EY (V/m) @ t=0.62
-0.0035418258109971568
% es.EZ (V/m) @ t=0.62
0.035175160942022
% es.tEX (V/m) @ t=0.62
0.03917931691003673
% es.tEY (V/m) @ t=0.62
0
% es.tEZ (V/m) @ t=0.62
0.03517516094202211
% es.Ex (V/m) @ t=0.62
0.03917931691004206
% es.Ey (V/m) @ t=0.62
-0.0035418258109971568
% es.Ez (V/m) @ t=0.62
0.035175160942022
% es.tEx (V/m) @ t=0.62
0.03917931691003673
% es.tEy (V/m) @ t=0.62
0
% es.tEz (V/m) @ t=0.62
0.03517516094202211
% V (V) @ t=0.62
0.008783977874946452
% es.normE (V/m) @ t=0.64
0.05325602287773628
% es.EX (V/m) @ t=0.64
0.039538780920661765
% es.EY (V/m) @ t=0.64
-0.0035743445031610754
% es.EZ (V/m) @ t=0.64
0.03549806808031397
% es.tEX (V/m) @ t=0.64
0.039538780920657324
% es.tEY (V/m) @ t=0.64
0
% es.tEZ (V/m) @ t=0.64
0.03549806808031408
% es.Ex (V/m) @ t=0.64
0.039538780920661765
% es.Ey (V/m) @ t=0.64
-0.0035743445031610754
% es.Ez (V/m) @ t=0.64
0.03549806808031397
% es.tEx (V/m) @ t=0.64
0.039538780920657324
% es.tEy (V/m) @ t=0.64
0
% es.tEz (V/m) @ t=0.64
0.03549806808031408
% V (V) @ t=0.64
0.008864542600453058
% es.normE (V/m) @ t=0.66
0.053740317047060115
% es.EX (V/m) @ t=0.66
0.039898244931283244
% es.EY (V/m) @ t=0.66
-0.003606863195320109
% es.EZ (V/m) @ t=0.66
0.03582097521860783
% es.tEX (V/m) @ t=0.66
0.039898244931273474
% es.tEY (V/m) @ t=0.66
0
% es.tEZ (V/m) @ t=0.66
0.03582097521860794
% es.Ex (V/m) @ t=0.66
0.039898244931283244
% es.Ey (V/m) @ t=0.66
-0.003606863195320109
% es.Ez (V/m) @ t=0.66
0.03582097521860783
% es.tEx (V/m) @ t=0.66
0.039898244931273474
% es.tEy (V/m) @ t=0.66
0
% es.tEz (V/m) @ t=0.66
0.03582097521860794
% V (V) @ t=0.66
0.008945107325959661
% es.normE (V/m) @ t=0.68
0.0542246112167075
% es.EX (V/m) @ t=0.68
0.04025770894189851
% es.EY (V/m) @ t=0.68
-0.003639381887480919
% es.EZ (V/m) @ t=0.68
0.03614388235690158
% es.tEX (V/m) @ t=0.68
0.04025770894189229
% es.tEY (V/m) @ t=0.68
0
% es.tEZ (V/m) @ t=0.68
0.036143882356899915
% es.Ex (V/m) @ t=0.68
0.04025770894189851
% es.Ey (V/m) @ t=0.68
-0.003639381887480919
% es.Ez (V/m) @ t=0.68
0.03614388235690158
% es.tEx (V/m) @ t=0.68
0.04025770894189229
% es.tEy (V/m) @ t=0.68
0
% es.tEz (V/m) @ t=0.68
0.036143882356899915
% V (V) @ t=0.68
0.009025672051466267
% es.normE (V/m) @ t=0.7
0.05470890538668057
% es.EX (V/m) @ t=0.7
0.040617172952525316
% es.EY (V/m) @ t=0.7
-0.0036719005796430615
% es.EZ (V/m) @ t=0.7
0.036466789495191776
% es.tEX (V/m) @ t=0.7
0.0406171729525191
% es.tEY (V/m) @ t=0.7
0
% es.tEZ (V/m) @ t=0.7
0.03646678949519189
% es.Ex (V/m) @ t=0.7
0.040617172952525316
% es.Ey (V/m) @ t=0.7
-0.0036719005796430615
% es.Ez (V/m) @ t=0.7
0.036466789495191776
% es.tEx (V/m) @ t=0.7
0.0406171729525191
% es.tEy (V/m) @ t=0.7
0
% es.tEz (V/m) @ t=0.7
0.03646678949519189
% V (V) @ t=0.7
0.00910623677697287
% es.normE (V/m) @ t=0.72
0.05519319955695804
% es.EX (V/m) @ t=0.72
0.0409766369631388
% es.EY (V/m) @ t=0.72
-0.003704419271800319
% es.EZ (V/m) @ t=0.72
0.03678969663348741
% es.tEX (V/m) @ t=0.72
0.040976636963132584
% es.tEY (V/m) @ t=0.72
0
% es.tEZ (V/m) @ t=0.72
0.036789696633482194
% es.Ex (V/m) @ t=0.72
0.0409766369631388
% es.Ey (V/m) @ t=0.72
-0.003704419271800319
% es.Ez (V/m) @ t=0.72
0.03678969663348741
% es.tEx (V/m) @ t=0.72
0.040976636963132584
% es.tEy (V/m) @ t=0.72
0
% es.tEz (V/m) @ t=0.72
0.036789696633482194
% V (V) @ t=0.72
0.009186801502479476
% es.normE (V/m) @ t=0.74
0.05567749372753592
% es.EX (V/m) @ t=0.74
0.04133610097375495
% es.EY (V/m) @ t=0.74
-0.0037369379639629052
% es.EZ (V/m) @ t=0.74
0.03711260377177583
% es.tEX (V/m) @ t=0.74
0.04133610097375229
% es.tEY (V/m) @ t=0.74
0
% es.tEZ (V/m) @ t=0.74
0.03711260377177594
% es.Ex (V/m) @ t=0.74
0.04133610097375495
% es.Ey (V/m) @ t=0.74
-0.0037369379639629052
% es.Ez (V/m) @ t=0.74
0.03711260377177583
% es.tEx (V/m) @ t=0.74
0.04133610097375229
% es.tEy (V/m) @ t=0.74
0
% es.tEz (V/m) @ t=0.74
0.03711260377177594
% V (V) @ t=0.74
0.009267366227986079
% es.normE (V/m) @ t=0.76
0.05620122653188617
% es.EX (V/m) @ t=0.76
0.04172498878296338
% es.EY (V/m) @ t=0.76
-0.003772080143589651
% es.EZ (V/m) @ t=0.76
0.03746164153024134
% es.tEX (V/m) @ t=0.76
0.04172498878295716
% es.tEY (V/m) @ t=0.76
0
% es.tEZ (V/m) @ t=0.76
0.03746164153024145
% es.Ex (V/m) @ t=0.76
0.04172498878296338
% es.Ey (V/m) @ t=0.76
-0.003772080143589651
% es.Ez (V/m) @ t=0.76
0.03746164153024134
% es.tEx (V/m) @ t=0.76
0.04172498878295716
% es.tEy (V/m) @ t=0.76
0
% es.tEz (V/m) @ t=0.76
0.03746164153024145
% V (V) @ t=0.76
0.009354570323402455
% es.normE (V/m) @ t=0.78
0.056743044845233445
% es.EX (V/m) @ t=0.78
0.04212736956367813
% es.EY (V/m) @ t=0.78
-0.0038084253847943117
% es.EZ (V/m) @ t=0.78
0.03782266209618135
% es.tEX (V/m) @ t=0.78
0.04212736956367191
% es.tEY (V/m) @ t=0.78
0
% es.tEZ (V/m) @ t=0.78
0.03782266209617802
% es.Ex (V/m) @ t=0.78
0.04212736956367813
% es.Ey (V/m) @ t=0.78
-0.0038084253847943117
% es.Ez (V/m) @ t=0.78
0.03782266209618135
% es.tEx (V/m) @ t=0.78
0.04212736956367191
% es.tEy (V/m) @ t=0.78
0
% es.tEz (V/m) @ t=0.78
0.03782266209617802
% V (V) @ t=0.78
0.00944481905728745
% es.normE (V/m) @ t=0.8
0.057284863159170134
% es.EX (V/m) @ t=0.8
0.04252975034439643
% es.EY (V/m) @ t=0.8
-0.003844770626002525
% es.EZ (V/m) @ t=0.8
0.038183682662121354
% es.tEX (V/m) @ t=0.8
0.04252975034439199
% es.tEY (V/m) @ t=0.8
0
% es.tEZ (V/m) @ t=0.8
0.038183682662121576
% es.Ex (V/m) @ t=0.8
0.04252975034439643
% es.Ey (V/m) @ t=0.8
-0.003844770626002525
% es.Ez (V/m) @ t=0.8
0.038183682662121354
% es.tEx (V/m) @ t=0.8
0.04252975034439199
% es.tEy (V/m) @ t=0.8
0
% es.tEz (V/m) @ t=0.8
0.038183682662121576
% V (V) @ t=0.8
0.009535067791172441
% es.normE (V/m) @ t=0.82
0.05782668147368199
% es.EX (V/m) @ t=0.82
0.04293213112512184
% es.EY (V/m) @ t=0.82
-0.0038811158672071855
% es.EZ (V/m) @ t=0.82
0.03854470322806147
% es.tEX (V/m) @ t=0.82
0.04293213112510852
% es.tEY (V/m) @ t=0.82
0
% es.tEZ (V/m) @ t=0.82
0.038544703228065025
% es.Ex (V/m) @ t=0.82
0.04293213112512184
% es.Ey (V/m) @ t=0.82
-0.0038811158672071855
% es.Ez (V/m) @ t=0.82
0.03854470322806147
% es.tEx (V/m) @ t=0.82
0.04293213112510852
% es.tEy (V/m) @ t=0.82
0
% es.tEz (V/m) @ t=0.82
0.038544703228065025
% V (V) @ t=0.82
0.009625316525057433
% es.normE (V/m) @ t=0.84
0.05836849978874507
% es.EX (V/m) @ t=0.84
0.04333451190583748
% es.EY (V/m) @ t=0.84
-0.003917461108422948
% es.EZ (V/m) @ t=0.84
0.03890572379400692
% es.tEX (V/m) @ t=0.84
0.04333451190583126
% es.tEY (V/m) @ t=0.84
0
% es.tEZ (V/m) @ t=0.84
0.038905723794005365
% es.Ex (V/m) @ t=0.84
0.04333451190583748
% es.Ey (V/m) @ t=0.84
-0.003917461108422948
% es.Ez (V/m) @ t=0.84
0.03890572379400692
% es.tEx (V/m) @ t=0.84
0.04333451190583126
% es.tEy (V/m) @ t=0.84
0
% es.tEz (V/m) @ t=0.84
0.038905723794005365
% V (V) @ t=0.84
0.009715565258942425
% es.normE (V/m) @ t=0.86
0.058910318104339214
% es.EX (V/m) @ t=0.86
0.04373689268654868
% es.EY (V/m) @ t=0.86
-0.00395380634964182
% es.EZ (V/m) @ t=0.86
0.03926674435994526
% es.tEX (V/m) @ t=0.86
0.04373689268654424
% es.tEY (V/m) @ t=0.86
0
% es.tEZ (V/m) @ t=0.86
0.039266744359943484
% es.Ex (V/m) @ t=0.86
0.04373689268654868
% es.Ey (V/m) @ t=0.86
-0.00395380634964182
% es.Ez (V/m) @ t=0.86
0.03926674435994526
% es.tEx (V/m) @ t=0.86
0.04373689268654424
% es.tEy (V/m) @ t=0.86
0
% es.tEz (V/m) @ t=0.86
0.039266744359943484
% V (V) @ t=0.86
0.00980581399282742
% es.normE (V/m) @ t=0.88
0.05945213642046407
% es.EX (V/m) @ t=0.88
0.04413927346726876
% es.EY (V/m) @ t=0.88
-0.003990151590844704
% es.EZ (V/m) @ t=0.88
0.039627764925885156
% es.tEX (V/m) @ t=0.88
0.044139273467255435
% es.tEY (V/m) @ t=0.88
0
% es.tEZ (V/m) @ t=0.88
0.0396277649258836
% es.Ex (V/m) @ t=0.88
0.04413927346726876
% es.Ey (V/m) @ t=0.88
-0.003990151590844704
% es.Ez (V/m) @ t=0.88
0.039627764925885156
% es.tEx (V/m) @ t=0.88
0.044139273467255435
% es.tEy (V/m) @ t=0.88
0
% es.tEz (V/m) @ t=0.88
0.0396277649258836
% V (V) @ t=0.88
0.009896062726712411
% es.normE (V/m) @ t=0.9
0.059993954737101875
% es.EX (V/m) @ t=0.9
0.04454165424798884
% es.EY (V/m) @ t=0.9
-0.0040264968320546934
% es.EZ (V/m) @ t=0.9
0.03998878549182883
% es.tEX (V/m) @ t=0.9
0.04454165424798262
% es.tEY (V/m) @ t=0.9
0
% es.tEZ (V/m) @ t=0.9
0.039988785491825274
% es.Ex (V/m) @ t=0.9
0.04454165424798884
% es.Ey (V/m) @ t=0.9
-0.0040264968320546934
% es.Ez (V/m) @ t=0.9
0.03998878549182883
% es.tEx (V/m) @ t=0.9
0.04454165424798262
% es.tEy (V/m) @ t=0.9
0
% es.tEz (V/m) @ t=0.9
0.039988785491825274
% V (V) @ t=0.9
0.009986311460597402
% es.normE (V/m) @ t=0.92
0.060535773054237345
% es.EX (V/m) @ t=0.92
0.044944035028709806
% es.EY (V/m) @ t=0.92
-0.004062842073275785
% es.EZ (V/m) @ t=0.92
0.0403498060577725
% es.tEX (V/m) @ t=0.92
0.04494403502869648
% es.tEY (V/m) @ t=0.92
0
% es.tEZ (V/m) @ t=0.92
0.04034980605777094
% es.Ex (V/m) @ t=0.92
0.044944035028709806
% es.Ey (V/m) @ t=0.92
-0.004062842073275785
% es.Ez (V/m) @ t=0.92
0.0403498060577725
% es.tEx (V/m) @ t=0.92
0.04494403502869648
% es.tEy (V/m) @ t=0.92
0
% es.tEz (V/m) @ t=0.92
0.04034980605777094
% V (V) @ t=0.92
0.010076560194482397
% es.normE (V/m) @ t=0.94
0.06107759137184719
% es.EX (V/m) @ t=0.94
0.045346415809424556
% es.EY (V/m) @ t=0.94
-0.004099187314489328
% es.EZ (V/m) @ t=0.94
0.04071082662371084
% es.tEX (V/m) @ t=0.94
0.045346415809411234
% es.tEY (V/m) @ t=0.94
0
% es.tEZ (V/m) @ t=0.94
0.04071082662371439
% es.Ex (V/m) @ t=0.94
0.045346415809424556
% es.Ey (V/m) @ t=0.94
-0.004099187314489328
% es.Ez (V/m) @ t=0.94
0.04071082662371084
% es.tEx (V/m) @ t=0.94
0.045346415809411234
% es.tEy (V/m) @ t=0.94
0
% es.tEz (V/m) @ t=0.94
0.04071082662371439
% V (V) @ t=0.94
0.01016680892836739
% es.normE (V/m) @ t=0.96
0.06161940968993041
% es.EX (V/m) @ t=0.96
0.045748796590140195
% es.EY (V/m) @ t=0.96
-0.004135532555703314
% es.EZ (V/m) @ t=0.96
0.04107184718965273
% es.tEX (V/m) @ t=0.96
0.04574879659013398
% es.tEY (V/m) @ t=0.96
0
% es.tEZ (V/m) @ t=0.96
0.04107184718965118
% es.Ex (V/m) @ t=0.96
0.045748796590140195
% es.Ey (V/m) @ t=0.96
-0.004135532555703314
% es.Ez (V/m) @ t=0.96
0.04107184718965273
% es.tEx (V/m) @ t=0.96
0.04574879659013398
% es.tEy (V/m) @ t=0.96
0
% es.tEz (V/m) @ t=0.96
0.04107184718965118
% V (V) @ t=0.96
0.010257057662252381
% es.normE (V/m) @ t=0.98
0.06216122800847191
% es.EX (V/m) @ t=0.98
0.04615117737085672
% es.EY (V/m) @ t=0.98
-0.004171877796893764
% es.EZ (V/m) @ t=0.98
0.0414328677555964
% es.tEX (V/m) @ t=0.98
0.046151177370850505
% es.tEY (V/m) @ t=0.98
0
% es.tEZ (V/m) @ t=0.98
0.0414328677555964
% es.Ex (V/m) @ t=0.98
0.04615117737085672
% es.Ey (V/m) @ t=0.98
-0.004171877796893764
% es.Ez (V/m) @ t=0.98
0.0414328677555964
% es.tEx (V/m) @ t=0.98
0.046151177370850505
% es.tEy (V/m) @ t=0.98
0
% es.tEz (V/m) @ t=0.98
0.0414328677555964
% V (V) @ t=0.98
0.010347306396137375
% es.normE (V/m) @ t=1
0.06270304632745982
% es.EX (V/m) @ t=1
0.04655355815157591
% es.EY (V/m) @ t=1
-0.004208223038111747
% es.EZ (V/m) @ t=1
0.041793888321534745
% es.tEX (V/m) @ t=1
0.04655355815157325
% es.tEY (V/m) @ t=1
0
% es.tEZ (V/m) @ t=1
0.04179388832153319
% es.Ex (V/m) @ t=1
0.04655355815157591
% es.Ey (V/m) @ t=1
-0.004208223038111747
% es.Ez (V/m) @ t=1
0.041793888321534745
% es.tEx (V/m) @ t=1
0.04655355815157325
% es.tEy (V/m) @ t=1
0
% es.tEz (V/m) @ t=1
0.04179388832153319
% V (V) @ t=1
0.010437555130022366
% es.normE (V/m) @ t=1.02