% Model:              1 neuron.mph
% Version:            COMSOL 6.1.0.252
% Date:               Mar 26 2023, 14:33
% Dimension:          0
% Nodes:              14017
% Expressions:        14017
% Description:        Electric field norm, Electric field, X component, Electric field, Y component, Electric field, Z component, Tangential electric field, X component, Tangential electric field, Y component, Tangential electric field, Z component, Electric field, x component, Electric field, y component, Electric field, z component, Tangential electric field, x component, Tangential electric field, y component, Tangential electric field, z component, Electric potential
% Length unit:        mm
% x
1.33
% y
14.200000000000001
% z
1.66
% es.normE (V/m) @ t=0
0.018522553943508838
% es.EX (V/m) @ t=0
0.015193215877159494
% es.EY (V/m) @ t=0
9.446177240651776E-4
% es.EZ (V/m) @ t=0
-0.010552672327690527
% es.tEX (V/m) @ t=0
0.015193215877160826
% es.tEY (V/m) @ t=0
0
% es.tEZ (V/m) @ t=0
-0.010552672327690749
% es.Ex (V/m) @ t=0
0.015193215877159494
% es.Ey (V/m) @ t=0
9.446177240651776E-4
% es.Ez (V/m) @ t=0
-0.010552672327690527
% es.tEx (V/m) @ t=0
0.015193215877160826
% es.tEy (V/m) @ t=0
0
% es.tEz (V/m) @ t=0
-0.010552672327690749
% V (V) @ t=0
0.007042151035511109
% es.normE (V/m) @ t=0.02
0.016951029341901926
% es.EX (V/m) @ t=0.02
0.01390416533631278
% es.EY (V/m) @ t=0.02
8.644724867197251E-4
% es.EZ (V/m) @ t=0.02
-0.009657342769634036
% es.tEX (V/m) @ t=0.02
0.013904165336312335
% es.tEY (V/m) @ t=0.02
0
% es.tEZ (V/m) @ t=0.02
-0.009657342769636035
% es.Ex (V/m) @ t=0.02
0.01390416533631278
% es.Ey (V/m) @ t=0.02
8.644724867197251E-4
% es.Ez (V/m) @ t=0.02
-0.009657342769634036
% es.tEx (V/m) @ t=0.02
0.013904165336312335
% es.tEy (V/m) @ t=0.02
0
% es.tEz (V/m) @ t=0.02
-0.009657342769636035
% V (V) @ t=0.02
0.006444667822256186
% es.normE (V/m) @ t=0.04
0.017106570160269723
% es.EX (V/m) @ t=0.04
0.01403174819499342
% es.EY (V/m) @ t=0.04
8.724050595019239E-4
% es.EZ (V/m) @ t=0.04
-0.009745957862246524
% es.tEX (V/m) @ t=0.04
0.014031748194992089
% es.tEY (V/m) @ t=0.04
0
% es.tEZ (V/m) @ t=0.04
-0.009745957862245858
% es.Ex (V/m) @ t=0.04
0.01403174819499342
% es.Ey (V/m) @ t=0.04
8.724050595019239E-4
% es.Ez (V/m) @ t=0.04
-0.009745957862246524
% es.tEx (V/m) @ t=0.04
0.014031748194992089
% es.tEy (V/m) @ t=0.04
0
% es.tEz (V/m) @ t=0.04
-0.009745957862245858
% V (V) @ t=0.04
0.0065038034832134725
% es.normE (V/m) @ t=0.06
0.017263986593950884
% es.EX (V/m) @ t=0.06
0.014160869087807004
% es.EY (V/m) @ t=0.06
8.804337474083157E-4
% es.EZ (V/m) @ t=0.06
-0.009835642135139544
% es.tEX (V/m) @ t=0.06
0.01416086908780656
% es.tEY (V/m) @ t=0.06
0
% es.tEZ (V/m) @ t=0.06
-0.009835642135142209
% es.Ex (V/m) @ t=0.06
0.014160869087807004
% es.Ey (V/m) @ t=0.06
8.804337474083157E-4
% es.Ez (V/m) @ t=0.06
-0.009835642135139544
% es.tEx (V/m) @ t=0.06
0.01416086908780656
% es.tEy (V/m) @ t=0.06
0
% es.tEz (V/m) @ t=0.06
-0.009835642135142209
% V (V) @ t=0.06
0.006563652388782036
% es.normE (V/m) @ t=0.08
0.017422697377787996
% es.EX (V/m) @ t=0.08
0.014291054574224527
% es.EY (V/m) @ t=0.08
8.885254952480937E-4
% es.EZ (V/m) @ t=0.08
-0.009926059919162844
% es.tEX (V/m) @ t=0.08
0.01429105457422608
% es.tEY (V/m) @ t=0.08
0
% es.tEZ (V/m) @ t=0.08
-0.009926059919163732
% es.Ex (V/m) @ t=0.08
0.014291054574224527
% es.Ey (V/m) @ t=0.08
8.885254952480937E-4
% es.Ez (V/m) @ t=0.08
-0.009926059919162844
% es.tEx (V/m) @ t=0.08
0.01429105457422608
% es.tEy (V/m) @ t=0.08
0
% es.tEz (V/m) @ t=0.08
-0.009926059919163732
% V (V) @ t=0.08
0.006623992462682137
% es.normE (V/m) @ t=0.1
0.017584602406149157
% es.EX (V/m) @ t=0.1
0.014423867303563931
% es.EY (V/m) @ t=0.1
8.967728646730455E-4
% es.EZ (V/m) @ t=0.1
-0.010018287888691968
% es.tEX (V/m) @ t=0.1
0.01442386730356171
% es.tEY (V/m) @ t=0.1
0
% es.tEZ (V/m) @ t=0.1
-0.010018287888693078
% es.Ex (V/m) @ t=0.1
0.014423867303563931
% es.Ey (V/m) @ t=0.1
8.967728646730455E-4
% es.Ez (V/m) @ t=0.1
-0.010018287888691968
% es.tEx (V/m) @ t=0.1
0.01442386730356171
% es.tEy (V/m) @ t=0.1
0
% es.tEz (V/m) @ t=0.1
-0.010018287888693078
% V (V) @ t=0.1
0.006685544659697967
% es.normE (V/m) @ t=0.12
0.017746507434526566
% es.EX (V/m) @ t=0.12
0.014556680032901337
% es.EY (V/m) @ t=0.12
9.050202341006619E-4
% es.EZ (V/m) @ t=0.12
-0.010110515858219427
% es.tEX (V/m) @ t=0.12
0.014556680032899338
% es.tEY (V/m) @ t=0.12
0
% es.tEZ (V/m) @ t=0.12
-0.010110515858220315
% es.Ex (V/m) @ t=0.12
0.014556680032901337
% es.Ey (V/m) @ t=0.12
9.050202341006619E-4
% es.Ez (V/m) @ t=0.12
-0.010110515858219427
% es.tEx (V/m) @ t=0.12
0.014556680032899338
% es.tEy (V/m) @ t=0.12
0
% es.tEz (V/m) @ t=0.12
-0.010110515858220315
% V (V) @ t=0.12
0.006747096856713795
% es.normE (V/m) @ t=0.14
0.017908412462922362
% es.EX (V/m) @ t=0.14
0.014689492762237188
% es.EY (V/m) @ t=0.14
9.132676035273901E-4
% es.EZ (V/m) @ t=0.14
-0.01020274382774955
% es.tEX (V/m) @ t=0.14
0.014689492762234968
% es.tEY (V/m) @ t=0.14
0
% es.tEZ (V/m) @ t=0.14
-0.010202743827749772
% es.Ex (V/m) @ t=0.14
0.014689492762237188
% es.Ey (V/m) @ t=0.14
9.132676035273901E-4
% es.Ez (V/m) @ t=0.14
-0.01020274382774955
% es.tEx (V/m) @ t=0.14
0.014689492762234968
% es.tEy (V/m) @ t=0.14
0
% es.tEz (V/m) @ t=0.14
-0.010202743827749772
% V (V) @ t=0.14
0.006808649053729624
% es.normE (V/m) @ t=0.16
0.01807590958422882
% es.EX (V/m) @ t=0.16
0.014826885741555218
% es.EY (V/m) @ t=0.16
9.218069731394829E-4
% es.EZ (V/m) @ t=0.16
-0.010298166749880933
% es.tEX (V/m) @ t=0.16
0.01482688574155655
% es.tEY (V/m) @ t=0.16
0
% es.tEZ (V/m) @ t=0.16
-0.010298166749883597
% es.Ex (V/m) @ t=0.16
0.014826885741555218
% es.Ey (V/m) @ t=0.16
9.218069731394829E-4
% es.Ez (V/m) @ t=0.16
-0.010298166749880933
% es.tEx (V/m) @ t=0.16
0.01482688574155655
% es.tEy (V/m) @ t=0.16
0
% es.tEz (V/m) @ t=0.16
-0.010298166749883597
% V (V) @ t=0.16
0.0068723294863546275
% es.normE (V/m) @ t=0.18
0.01824742042051184
% es.EX (V/m) @ t=0.18
0.014967566187350734
% es.EY (V/m) @ t=0.18
9.305559253858231E-4
% es.EZ (V/m) @ t=0.18
-0.010395882843699078
% es.tEX (V/m) @ t=0.18
0.014967566187352066
% es.tEY (V/m) @ t=0.18
0
% es.tEZ (V/m) @ t=0.18
-0.010395882843700188
% es.Ex (V/m) @ t=0.18
0.014967566187350734
% es.Ey (V/m) @ t=0.18
9.305559253858231E-4
% es.Ez (V/m) @ t=0.18
-0.010395882843699078
% es.tEx (V/m) @ t=0.18
0.014967566187352066
% es.tEy (V/m) @ t=0.18
0
% es.tEz (V/m) @ t=0.18
-0.010395882843700188
% V (V) @ t=0.18
0.00693753745639408
% es.normE (V/m) @ t=0.2
0.018418931256797177
% es.EX (V/m) @ t=0.2
0.01510824663314625
% es.EY (V/m) @ t=0.2
9.39304877620617E-4
% es.EZ (V/m) @ t=0.2
-0.01049359893752011
% es.tEX (V/m) @ t=0.2
0.015108246633147582
% es.tEY (V/m) @ t=0.2
0
% es.tEZ (V/m) @ t=0.2
-0.010493598937520998
% es.Ex (V/m) @ t=0.2
0.01510824663314625
% es.Ey (V/m) @ t=0.2
9.39304877620617E-4
% es.Ez (V/m) @ t=0.2
-0.01049359893752011
% es.tEx (V/m) @ t=0.2
0.015108246633147582
% es.tEy (V/m) @ t=0.2
0
% es.tEz (V/m) @ t=0.2
-0.010493598937520998
% V (V) @ t=0.2
0.00700274542643353
% es.normE (V/m) @ t=0.22
0.018590442093082513
% es.EX (V/m) @ t=0.22
0.015248927078941765
% es.EY (V/m) @ t=0.22
9.480538298598518E-4
% es.EZ (V/m) @ t=0.22
-0.010591315031338588
% es.tEX (V/m) @ t=0.22
0.015248927078941321
% es.tEY (V/m) @ t=0.22
0
% es.tEZ (V/m) @ t=0.22
-0.010591315031338588
% es.Ex (V/m) @ t=0.22
0.015248927078941765
% es.Ey (V/m) @ t=0.22
9.480538298598518E-4
% es.Ez (V/m) @ t=0.22
-0.010591315031338588
% es.tEx (V/m) @ t=0.22
0.015248927078941321
% es.tEy (V/m) @ t=0.22
0
% es.tEz (V/m) @ t=0.22
-0.010591315031338588
% V (V) @ t=0.22
0.007067953396472981
% es.normE (V/m) @ t=0.24
0.018761952929370603
% es.EX (V/m) @ t=0.24
0.015389607524738835
% es.EY (V/m) @ t=0.24
9.568027820998637E-4
% es.EZ (V/m) @ t=0.24
-0.010689031125157511
% es.tEX (V/m) @ t=0.24
0.015389607524738391
% es.tEY (V/m) @ t=0.24
0
% es.tEZ (V/m) @ t=0.24
-0.0106890311251584
% es.Ex (V/m) @ t=0.24
0.015389607524738835
% es.Ey (V/m) @ t=0.24
9.568027820998637E-4
% es.Ez (V/m) @ t=0.24
-0.010689031125157511
% es.tEx (V/m) @ t=0.24
0.015389607524738391
% es.tEy (V/m) @ t=0.24
0
% es.tEz (V/m) @ t=0.24
-0.0106890311251584
% V (V) @ t=0.24
0.007133161366512436
% es.normE (V/m) @ t=0.26
0.018933463765661178
% es.EX (V/m) @ t=0.26
0.015530287970537904
% es.EY (V/m) @ t=0.26
9.655517343311049E-4
% es.EZ (V/m) @ t=0.26
-0.010786747218976656
% es.tEX (V/m) @ t=0.26
0.015530287970535905
% es.tEY (V/m) @ t=0.26
0
% es.tEZ (V/m) @ t=0.26
-0.010786747218977544
% es.Ex (V/m) @ t=0.26
0.015530287970537904
% es.Ey (V/m) @ t=0.26
9.655517343311049E-4
% es.Ez (V/m) @ t=0.26
-0.010786747218976656
% es.tEx (V/m) @ t=0.26
0.015530287970535905
% es.tEy (V/m) @ t=0.26
0
% es.tEz (V/m) @ t=0.26
-0.010786747218977544
% V (V) @ t=0.26
0.0071983693365518875
% es.normE (V/m) @ t=0.28
0.019104974601947104
% es.EX (V/m) @ t=0.28
0.015670968416329867
% es.EY (V/m) @ t=0.28
9.74300686572116E-4
% es.EZ (V/m) @ t=0.28
-0.010884463312795023
% es.tEX (V/m) @ t=0.28
0.01567096841632787
% es.tEY (V/m) @ t=0.28
0
% es.tEZ (V/m) @ t=0.28
-0.010884463312795911
% es.Ex (V/m) @ t=0.28
0.015670968416329867
% es.Ey (V/m) @ t=0.28
9.74300686572116E-4
% es.Ez (V/m) @ t=0.28
-0.010884463312795023
% es.tEx (V/m) @ t=0.28
0.01567096841632787
% es.tEy (V/m) @ t=0.28
0
% es.tEz (V/m) @ t=0.28
-0.010884463312795911
% V (V) @ t=0.28
0.007263577306591339
% es.normE (V/m) @ t=0.3
0.019278224671430647
% es.EX (V/m) @ t=0.3
0.015813075138867205
% es.EY (V/m) @ t=0.3
9.831386799213915E-4
% es.EZ (V/m) @ t=0.3
-0.010983170738486203
% es.tEX (V/m) @ t=0.3
0.015813075138868538
% es.tEY (V/m) @ t=0.3
0
% es.tEZ (V/m) @ t=0.3
-0.010983170738487091
% es.Ex (V/m) @ t=0.3
0.015813075138867205
% es.Ey (V/m) @ t=0.3
9.831386799213915E-4
% es.Ez (V/m) @ t=0.3
-0.010983170738486203
% es.tEx (V/m) @ t=0.3
0.015813075138868538
% es.tEy (V/m) @ t=0.3
0
% es.tEz (V/m) @ t=0.3
-0.010983170738487091
% V (V) @ t=0.3
0.007329446629967241
% es.normE (V/m) @ t=0.32
0.019459981722440782
% es.EX (V/m) @ t=0.32
0.015962158102402757
% es.EY (V/m) @ t=0.32
9.924121934324903E-4
% es.EZ (V/m) @ t=0.32
-0.01108672699176605
% es.tEX (V/m) @ t=0.32
0.01596215810240409
% es.tEY (V/m) @ t=0.32
0
% es.tEZ (V/m) @ t=0.32
-0.011086726991766938
% es.Ex (V/m) @ t=0.32
0.015962158102402757
% es.Ey (V/m) @ t=0.32
9.924121934324903E-4
% es.Ez (V/m) @ t=0.32
-0.01108672699176605
% es.tEx (V/m) @ t=0.32
0.01596215810240409
% es.tEy (V/m) @ t=0.32
0
% es.tEz (V/m) @ t=0.32
-0.011086726991766938
% V (V) @ t=0.32
0.007398550781563505
% es.normE (V/m) @ t=0.34
0.019641738773461634
% es.EX (V/m) @ t=0.34
0.016111241065945858
% es.EY (V/m) @ t=0.34
0.0010016857069453655
% es.EZ (V/m) @ t=0.34
-0.011190283245047339
% es.tEX (V/m) @ t=0.34
0.016111241065943638
% es.tEY (V/m) @ t=0.34
0
% es.tEZ (V/m) @ t=0.34
-0.011190283245048227
% es.Ex (V/m) @ t=0.34
0.016111241065945858
% es.Ey (V/m) @ t=0.34
0.0010016857069453655
% es.Ez (V/m) @ t=0.34
-0.011190283245047339
% es.tEx (V/m) @ t=0.34
0.016111241065943638
% es.tEy (V/m) @ t=0.34
0
% es.tEz (V/m) @ t=0.34
-0.011190283245048227
% V (V) @ t=0.34
0.007467654933159768
% es.normE (V/m) @ t=0.36
0.019823495824478277
% es.EX (V/m) @ t=0.36
0.01626032402947919
% es.EY (V/m) @ t=0.36
0.0010109592204554652
% es.EZ (V/m) @ t=0.36
-0.011293839498329405
% es.tEX (V/m) @ t=0.36
0.016260324029475193
% es.tEY (V/m) @ t=0.36
0
% es.tEZ (V/m) @ t=0.36
-0.011293839498330516
% es.Ex (V/m) @ t=0.36
0.01626032402947919
% es.Ey (V/m) @ t=0.36
0.0010109592204554652
% es.Ez (V/m) @ t=0.36
-0.011293839498329405
% es.tEx (V/m) @ t=0.36
0.016260324029475193
% es.tEy (V/m) @ t=0.36
0
% es.tEz (V/m) @ t=0.36
-0.011293839498330516
% V (V) @ t=0.36
0.007536759084756031
% es.normE (V/m) @ t=0.38
0.02000525287550173
% es.EX (V/m) @ t=0.38
0.016409406993016518
% es.EY (V/m) @ t=0.38
0.0010202327339630113
% es.EZ (V/m) @ t=0.38
-0.011397395751611916
% es.tEX (V/m) @ t=0.38
0.016409406993014297
% es.tEY (V/m) @ t=0.38
0
% es.tEZ (V/m) @ t=0.38
-0.011397395751613026
% es.Ex (V/m) @ t=0.38
0.016409406993016518
% es.Ey (V/m) @ t=0.38
0.0010202327339630113
% es.Ez (V/m) @ t=0.38
-0.011397395751611916
% es.tEx (V/m) @ t=0.38
0.016409406993014297
% es.tEy (V/m) @ t=0.38
0
% es.tEz (V/m) @ t=0.38
-0.011397395751613026
% V (V) @ t=0.38
0.007605863236352294
% es.normE (V/m) @ t=0.4
0.020187009926530188
% es.EX (V/m) @ t=0.4
0.01655848995655429
% es.EY (V/m) @ t=0.4
0.0010295062474677819
% es.EZ (V/m) @ t=0.4
-0.01150095200489698
% es.tEX (V/m) @ t=0.4
0.01655848995655207
% es.tEY (V/m) @ t=0.4
0
% es.tEZ (V/m) @ t=0.4
-0.011500952004897869
% es.Ex (V/m) @ t=0.4
0.01655848995655429
% es.Ey (V/m) @ t=0.4
0.0010295062474677819
% es.Ez (V/m) @ t=0.4
-0.01150095200489698
% es.tEx (V/m) @ t=0.4
0.01655848995655207
% es.tEy (V/m) @ t=0.4
0
% es.tEz (V/m) @ t=0.4
-0.011500952004897869
% V (V) @ t=0.4
0.0076749673879485565
% es.normE (V/m) @ t=0.42
0.020368766977557184
% es.EX (V/m) @ t=0.42
0.016707572920088065
% es.EY (V/m) @ t=0.42
0.0010387797609833216
% es.EZ (V/m) @ t=0.42
-0.011604508258178603
% es.tEX (V/m) @ t=0.42
0.016707572920089397
% es.tEY (V/m) @ t=0.42
0
% es.tEZ (V/m) @ t=0.42
-0.011604508258179491
% es.Ex (V/m) @ t=0.42
0.016707572920088065
% es.Ey (V/m) @ t=0.42
0.0010387797609833216
% es.Ez (V/m) @ t=0.42
-0.011604508258178603
% es.tEx (V/m) @ t=0.42
0.016707572920089397
% es.tEy (V/m) @ t=0.42
0
% es.tEz (V/m) @ t=0.42
-0.011604508258179491
% V (V) @ t=0.42
0.007744071539544821
% es.normE (V/m) @ t=0.44
0.02055052402858971
% es.EX (V/m) @ t=0.44
0.016856655883623617
% es.EY (V/m) @ t=0.44
0.0010480532744997495
% es.EZ (V/m) @ t=0.44
-0.01170806451146178
% es.tEX (V/m) @ t=0.44
0.01685665588362495
% es.tEY (V/m) @ t=0.44
0
% es.tEZ (V/m) @ t=0.44
-0.011708064511462668
% es.Ex (V/m) @ t=0.44
0.016856655883623617
% es.Ey (V/m) @ t=0.44
0.0010480532744997495
% es.Ez (V/m) @ t=0.44
-0.01170806451146178
% es.tEx (V/m) @ t=0.44
0.01685665588362495
% es.tEy (V/m) @ t=0.44
0
% es.tEz (V/m) @ t=0.44
-0.011708064511462668
% V (V) @ t=0.44
0.007813175691141084
% es.normE (V/m) @ t=0.46
0.020749990746686445
% es.EX (V/m) @ t=0.46
0.017020268767518054
% es.EY (V/m) @ t=0.46
0.0010582264102311223
% es.EZ (V/m) @ t=0.46
-0.011821705627095946
% es.tEX (V/m) @ t=0.46
0.017020268767519386
% es.tEY (V/m) @ t=0.46
0
% es.tEZ (V/m) @ t=0.46
-0.011821705627098611
% es.Ex (V/m) @ t=0.46
0.017020268767518054
% es.Ey (V/m) @ t=0.46
0.0010582264102311223
% es.Ez (V/m) @ t=0.46
-0.011821705627095946
% es.tEx (V/m) @ t=0.46
0.017020268767519386
% es.tEy (V/m) @ t=0.46
0
% es.tEz (V/m) @ t=0.46
-0.011821705627098611
% V (V) @ t=0.46
0.007889011818686694
% es.normE (V/m) @ t=0.48
0.020955132129735793
% es.EX (V/m) @ t=0.48
0.01718853743796389
% es.EY (V/m) @ t=0.48
0.0010686878096930474
% es.EZ (V/m) @ t=0.48
-0.011938578210315187
% es.tEX (V/m) @ t=0.48
0.017188537437965223
% es.tEY (V/m) @ t=0.48
0
% es.tEZ (V/m) @ t=0.48
-0.011938578210316075
% es.Ex (V/m) @ t=0.48
0.01718853743796389
% es.Ey (V/m) @ t=0.48
0.0010686878096930474
% es.Ez (V/m) @ t=0.48
-0.011938578210315187
% es.tEx (V/m) @ t=0.48
0.017188537437965223
% es.tEy (V/m) @ t=0.48
0
% es.tEz (V/m) @ t=0.48
-0.011938578210316075
% V (V) @ t=0.48
0.007967005056685595
% es.normE (V/m) @ t=0.5
0.02116027351278245
% es.EX (V/m) @ t=0.5
0.017356806108409728
% es.EY (V/m) @ t=0.5
0.0010791492091655197
% es.EZ (V/m) @ t=0.5
-0.012055450793528655
% es.tEX (V/m) @ t=0.5
0.01735680610841106
% es.tEY (V/m) @ t=0.5
0
% es.tEZ (V/m) @ t=0.5
-0.01205545079353132
% es.Ex (V/m) @ t=0.5
0.017356806108409728
% es.Ey (V/m) @ t=0.5
0.0010791492091655197
% es.Ez (V/m) @ t=0.5
-0.012055450793528655
% es.tEx (V/m) @ t=0.5
0.01735680610841106
% es.tEy (V/m) @ t=0.5
0
% es.tEz (V/m) @ t=0.5
-0.01205545079353132
% V (V) @ t=0.5
0.008044998294684491
% es.normE (V/m) @ t=0.52
0.02136541489582946
% es.EX (V/m) @ t=0.52
0.017525074778854233
% es.EY (V/m) @ t=0.52
0.0010896106086255575
% es.EZ (V/m) @ t=0.52
-0.012172323376745675
% es.tEX (V/m) @ t=0.52
0.017525074778855565
% es.tEY (V/m) @ t=0.52
0
% es.tEZ (V/m) @ t=0.52
-0.012172323376748118
% es.Ex (V/m) @ t=0.52
0.017525074778854233
% es.Ey (V/m) @ t=0.52
0.0010896106086255575
% es.Ez (V/m) @ t=0.52
-0.012172323376745675
% es.tEx (V/m) @ t=0.52
0.017525074778855565
% es.tEy (V/m) @ t=0.52
0
% es.tEz (V/m) @ t=0.52
-0.012172323376748118
% V (V) @ t=0.52
0.008122991532683392
% es.normE (V/m) @ t=0.54
0.021570556278876957
% es.EX (V/m) @ t=0.54
0.01769334344930007
% es.EY (V/m) @ t=0.54
0.0011000720080900361
% es.EZ (V/m) @ t=0.54
-0.012289195959961141
% es.tEX (V/m) @ t=0.54
0.017693343449301402
% es.tEY (V/m) @ t=0.54
0
% es.tEZ (V/m) @ t=0.54
-0.01228919595996203
% es.Ex (V/m) @ t=0.54
0.01769334344930007
% es.Ey (V/m) @ t=0.54
0.0011000720080900361
% es.Ez (V/m) @ t=0.54
-0.012289195959961141
% es.tEx (V/m) @ t=0.54
0.017693343449301402
% es.tEy (V/m) @ t=0.54
0
% es.tEz (V/m) @ t=0.54
-0.01228919595996203
% V (V) @ t=0.54
0.00820098477068229
% es.normE (V/m) @ t=0.56
0.02177569766192413
% es.EX (V/m) @ t=0.56
0.01786161211974413
% es.EY (V/m) @ t=0.56
0.001110533407560732
% es.EZ (V/m) @ t=0.56
-0.01240606854317794
% es.tEX (V/m) @ t=0.56
0.017861612119745462
% es.tEY (V/m) @ t=0.56
0
% es.tEZ (V/m) @ t=0.56
-0.012406068543178828
% es.Ex (V/m) @ t=0.56
0.01786161211974413
% es.Ey (V/m) @ t=0.56
0.001110533407560732
% es.Ez (V/m) @ t=0.56
-0.01240606854317794
% es.tEx (V/m) @ t=0.56
0.017861612119745462
% es.tEy (V/m) @ t=0.56
0
% es.tEz (V/m) @ t=0.56
-0.012406068543178828
% V (V) @ t=0.56
0.008278978008681187
% es.normE (V/m) @ t=0.58
0.021980839044968597
% es.EX (V/m) @ t=0.58
0.018029880790186414
% es.EY (V/m) @ t=0.58
0.0011209948070207698
% es.EZ (V/m) @ t=0.58
-0.012522941126393405
% es.tEX (V/m) @ t=0.58
0.018029880790187747
% es.tEY (V/m) @ t=0.58
0
% es.tEZ (V/m) @ t=0.58
-0.01252294112639607
% es.Ex (V/m) @ t=0.58
0.018029880790186414
% es.Ey (V/m) @ t=0.58
0.0011209948070207698
% es.Ez (V/m) @ t=0.58
-0.012522941126393405
% es.tEx (V/m) @ t=0.58
0.018029880790187747
% es.tEy (V/m) @ t=0.58
0
% es.tEz (V/m) @ t=0.58
-0.01252294112639607
% V (V) @ t=0.58
0.008356971246680089
% es.normE (V/m) @ t=0.6
0.022185980428019322
% es.EX (V/m) @ t=0.6
0.018198149460634028
% es.EY (V/m) @ t=0.6
0.0011314562064994593
% es.EZ (V/m) @ t=0.6
-0.012639813709610426
% es.tEX (V/m) @ t=0.6
0.018198149460631807
% es.tEY (V/m) @ t=0.6
0
% es.tEZ (V/m) @ t=0.6
-0.012639813709611314
% es.Ex (V/m) @ t=0.6
0.018198149460634028
% es.Ey (V/m) @ t=0.6
0.0011314562064994593
% es.Ez (V/m) @ t=0.6
-0.012639813709610426
% es.tEx (V/m) @ t=0.6
0.018198149460631807
% es.tEy (V/m) @ t=0.6
0
% es.tEz (V/m) @ t=0.6
-0.012639813709611314
% V (V) @ t=0.6
0.008434964484678986
% es.normE (V/m) @ t=0.62
0.02239112181106777
% es.EX (V/m) @ t=0.62
0.01836641813107809
% es.EY (V/m) @ t=0.62
0.0011419176059648262
% es.EZ (V/m) @ t=0.62
-0.012756686292829666
% es.tEX (V/m) @ t=0.62
0.018366418131077644
% es.tEY (V/m) @ t=0.62
0
% es.tEZ (V/m) @ t=0.62
-0.012756686292830333
% es.Ex (V/m) @ t=0.62
0.01836641813107809
% es.Ey (V/m) @ t=0.62
0.0011419176059648262
% es.Ez (V/m) @ t=0.62
-0.012756686292829666
% es.tEx (V/m) @ t=0.62
0.018366418131077644
% es.tEy (V/m) @ t=0.62
0
% es.tEz (V/m) @ t=0.62
-0.012756686292830333
% V (V) @ t=0.62
0.008512957722677884
% es.normE (V/m) @ t=0.64
0.022596263194114667
% es.EX (V/m) @ t=0.64
0.01853468680152437
% es.EY (V/m) @ t=0.64
0.001152379005430193
% es.EZ (V/m) @ t=0.64
-0.012873558876042912
% es.tEX (V/m) @ t=0.64
0.01853468680152215
% es.tEY (V/m) @ t=0.64
0
% es.tEZ (V/m) @ t=0.64
-0.0128735588760438
% es.Ex (V/m) @ t=0.64
0.01853468680152437
% es.Ey (V/m) @ t=0.64
0.001152379005430193
% es.Ez (V/m) @ t=0.64
-0.012873558876042912
% es.tEx (V/m) @ t=0.64
0.01853468680152215
% es.tEy (V/m) @ t=0.64
0
% es.tEz (V/m) @ t=0.64
-0.0128735588760438
% V (V) @ t=0.64
0.008590950960676783
% es.normE (V/m) @ t=0.66
0.022801404577160005
% es.EX (V/m) @ t=0.66
0.01870295547196843
% es.EY (V/m) @ t=0.66
0.0011628404048947827
% es.EZ (V/m) @ t=0.66
-0.012990431459256602
% es.tEX (V/m) @ t=0.66
0.01870295547196621
% es.tEY (V/m) @ t=0.66
0
% es.tEZ (V/m) @ t=0.66
-0.012990431459259044
% es.Ex (V/m) @ t=0.66
0.01870295547196843
% es.Ey (V/m) @ t=0.66
0.0011628404048947827
% es.Ez (V/m) @ t=0.66
-0.012990431459256602
% es.tEx (V/m) @ t=0.66
0.01870295547196621
% es.tEy (V/m) @ t=0.66
0
% es.tEz (V/m) @ t=0.66
-0.012990431459259044
% V (V) @ t=0.66
0.008668944198675683
% es.normE (V/m) @ t=0.68
0.023006545960211348
% es.EX (V/m) @ t=0.68
0.018871224142416043
% es.EY (V/m) @ t=0.68
0.0011733018043619259
% es.EZ (V/m) @ t=0.68
-0.013107304042475398
% es.tEX (V/m) @ t=0.68
0.018871224142413823
% es.tEY (V/m) @ t=0.68
0
% es.tEZ (V/m) @ t=0.68
-0.013107304042474288
% es.Ex (V/m) @ t=0.68
0.018871224142416043
% es.Ey (V/m) @ t=0.68
0.0011733018043619259
% es.Ez (V/m) @ t=0.68
-0.013107304042475398
% es.tEx (V/m) @ t=0.68
0.018871224142413823
% es.tEy (V/m) @ t=0.68
0
% es.tEz (V/m) @ t=0.68
-0.013107304042474288
% V (V) @ t=0.68
0.008746937436674582
% es.normE (V/m) @ t=0.7
0.023211687343253955
% es.EX (V/m) @ t=0.7
0.019039492812854775
% es.EY (V/m) @ t=0.7
0.0011837632038370627
% es.EZ (V/m) @ t=0.7
-0.013224176625690864
% es.tEX (V/m) @ t=0.7
0.019039492812857883
% es.tEY (V/m) @ t=0.7
0
% es.tEZ (V/m) @ t=0.7
-0.013224176625691753
% es.Ex (V/m) @ t=0.7
0.019039492812854775
% es.Ey (V/m) @ t=0.7
0.0011837632038370627
% es.Ez (V/m) @ t=0.7
-0.013224176625690864
% es.tEx (V/m) @ t=0.7
0.019039492812857883
% es.tEy (V/m) @ t=0.7
0
% es.tEz (V/m) @ t=0.7
-0.013224176625691753
% V (V) @ t=0.7
0.00882493067467348
% es.normE (V/m) @ t=0.72
0.02341682872630212
% es.EX (V/m) @ t=0.72
0.019207761483302388
% es.EY (V/m) @ t=0.72
0.001194224603299765
% es.EZ (V/m) @ t=0.72
-0.013341049208904332
% es.tEX (V/m) @ t=0.72
0.019207761483300168
% es.tEY (V/m) @ t=0.72
0
% es.tEZ (V/m) @ t=0.72
-0.013341049208904998
% es.Ex (V/m) @ t=0.72
0.019207761483302388
% es.Ey (V/m) @ t=0.72
0.001194224603299765
% es.Ez (V/m) @ t=0.72
-0.013341049208904332
% es.tEx (V/m) @ t=0.72
0.019207761483300168
% es.tEy (V/m) @ t=0.72
0
% es.tEz (V/m) @ t=0.72
-0.013341049208904998
% V (V) @ t=0.72
0.008902923912672375
% es.normE (V/m) @ t=0.74
0.023621970109345358
% es.EX (V/m) @ t=0.74
0.019376030153741564
% es.EY (V/m) @ t=0.74
0.0012046860027784545
% es.EZ (V/m) @ t=0.74
-0.013457921792119798
% es.tEX (V/m) @ t=0.74
0.019376030153744228
% es.tEY (V/m) @ t=0.74
0
% es.tEZ (V/m) @ t=0.74
-0.013457921792120686
% es.Ex (V/m) @ t=0.74
0.019376030153741564
% es.Ey (V/m) @ t=0.74
0.0012046860027784545
% es.Ez (V/m) @ t=0.74
-0.013457921792119798
% es.tEx (V/m) @ t=0.74
0.019376030153744228
% es.tEy (V/m) @ t=0.74
0
% es.tEz (V/m) @ t=0.74
-0.013457921792120686
% V (V) @ t=0.74
0.008980917150671277
% es.normE (V/m) @ t=0.76
0.023849445884058972
% es.EX (V/m) @ t=0.76
0.019562578125102092
% es.EY (V/m) @ t=0.76
0.0012163277231284075
% es.EZ (V/m) @ t=0.76
-0.013587573475270842
% es.tEX (V/m) @ t=0.76
0.019562578125106977
% es.tEY (V/m) @ t=0.76
0
% es.tEZ (V/m) @ t=0.76
-0.013587573475268178
% es.Ex (V/m) @ t=0.76
0.019562578125102092
% es.Ey (V/m) @ t=0.76
0.0012163277231284075
% es.Ez (V/m) @ t=0.76
-0.013587573475270842
% es.tEx (V/m) @ t=0.76
0.019562578125106977
% es.tEy (V/m) @ t=0.76
0
% es.tEz (V/m) @ t=0.76
-0.013587573475268178
% V (V) @ t=0.76
0.009067414855281593
% es.normE (V/m) @ t=0.78
0.024078538268960354
% es.EX (V/m) @ t=0.78
0.019750449190437447
% es.EY (V/m) @ t=0.78
0.0012280548775901456
% es.EZ (V/m) @ t=0.78
-0.013718150136347251
% es.tEX (V/m) @ t=0.78
0.019750449190437003
% es.tEY (V/m) @ t=0.78
0
% es.tEZ (V/m) @ t=0.78
-0.013718150136349694
% es.Ex (V/m) @ t=0.78
0.019750449190437447
% es.Ey (V/m) @ t=0.78
0.0012280548775901456
% es.Ez (V/m) @ t=0.78
-0.013718150136347251
% es.tEx (V/m) @ t=0.78
0.019750449190437003
% es.tEy (V/m) @ t=0.78
0
% es.tEz (V/m) @ t=0.78
-0.013718150136349694
% V (V) @ t=0.78
0.009154528130944016
% es.normE (V/m) @ t=0.8
0.024307630654151098
% es.EX (V/m) @ t=0.8
0.01993832025577502
% es.EY (V/m) @ t=0.8
0.0012397820320519948
% es.EZ (V/m) @ t=0.8
-0.013848726797427213
% es.tEX (V/m) @ t=0.8
0.01993832025577591
% es.tEY (V/m) @ t=0.8
0
% es.tEZ (V/m) @ t=0.8
-0.013848726797431432
% es.Ex (V/m) @ t=0.8
0.01993832025577502
% es.Ey (V/m) @ t=0.8
0.0012397820320519948
% es.Ez (V/m) @ t=0.8
-0.013848726797427213
% es.tEx (V/m) @ t=0.8
0.01993832025577591
% es.tEy (V/m) @ t=0.8
0
% es.tEz (V/m) @ t=0.8
-0.013848726797431432
% V (V) @ t=0.8
0.009241641406606441
% es.normE (V/m) @ t=0.82
0.02453672303961454
% es.EX (V/m) @ t=0.82
0.020126191321105047
% es.EY (V/m) @ t=0.82
0.0012515091865210604
% es.EZ (V/m) @ t=0.82
-0.013979303458508952
% es.tEX (V/m) @ t=0.82
0.020126191321102826
% es.tEY (V/m) @ t=0.82
0
% es.tEZ (V/m) @ t=0.82
-0.013979303458511394
% es.Ex (V/m) @ t=0.82
0.020126191321105047
% es.Ey (V/m) @ t=0.82
0.0012515091865210604
% es.Ez (V/m) @ t=0.82
-0.013979303458508952
% es.tEx (V/m) @ t=0.82
0.020126191321102826
% es.tEy (V/m) @ t=0.82
0
% es.tEz (V/m) @ t=0.82
-0.013979303458511394
% V (V) @ t=0.82
0.009328754682268865
% es.normE (V/m) @ t=0.84
0.024765815425347358
% es.EX (V/m) @ t=0.84
0.020314062386433296
% es.EY (V/m) @ t=0.84
0.001263236340995233
% es.EZ (V/m) @ t=0.84
-0.014109880119592022
% es.tEX (V/m) @ t=0.84
0.020314062386434628
% es.tEY (V/m) @ t=0.84
0
% es.tEZ (V/m) @ t=0.84
-0.014109880119594687
% es.Ex (V/m) @ t=0.84
0.020314062386433296
% es.Ey (V/m) @ t=0.84
0.001263236340995233
% es.Ez (V/m) @ t=0.84
-0.014109880119592022
% es.tEx (V/m) @ t=0.84
0.020314062386434628
% es.tEy (V/m) @ t=0.84
0
% es.tEz (V/m) @ t=0.84
-0.014109880119594687
% V (V) @ t=0.84
0.009415867957931291
% es.normE (V/m) @ t=0.86
0.0249949078113456
% es.EX (V/m) @ t=0.86
0.020501933451767318
% es.EY (V/m) @ t=0.86
0.0012749634954483113
% es.EZ (V/m) @ t=0.86
-0.014240456780673982
% es.tEX (V/m) @ t=0.86
0.020501933451764653
% es.tEY (V/m) @ t=0.86
0
% es.tEZ (V/m) @ t=0.86
-0.014240456780674648
% es.Ex (V/m) @ t=0.86
0.020501933451767318
% es.Ey (V/m) @ t=0.86
0.0012749634954483113
% es.Ez (V/m) @ t=0.86
-0.014240456780673982
% es.tEx (V/m) @ t=0.86
0.020501933451764653
% es.tEy (V/m) @ t=0.86
0
% es.tEz (V/m) @ t=0.86
-0.014240456780674648
% V (V) @ t=0.86
0.009502981233593714
% es.normE (V/m) @ t=0.88
0.02522400019759187
% es.EX (V/m) @ t=0.88
0.020689804517093346
% es.EY (V/m) @ t=0.88
0.0012866906499133801
% es.EZ (V/m) @ t=0.88
-0.014371033441753722
% es.tEX (V/m) @ t=0.88
0.02068980451709823
% es.tEY (V/m) @ t=0.88
0
% es.tEZ (V/m) @ t=0.88
-0.014371033441756165
% es.Ex (V/m) @ t=0.88
0.020689804517093346
% es.Ey (V/m) @ t=0.88
0.0012866906499133801
% es.Ez (V/m) @ t=0.88
-0.014371033441753722
% es.tEx (V/m) @ t=0.88
0.02068980451709823
% es.tEy (V/m) @ t=0.88
0
% es.tEz (V/m) @ t=0.88
-0.014371033441756165
% V (V) @ t=0.88
0.00959009450925614
% es.normE (V/m) @ t=0.9
0.025453092584090762
% es.EX (V/m) @ t=0.9
0.020877675582425592
% es.EY (V/m) @ t=0.9
0.0012984178043771166
% es.EZ (V/m) @ t=0.9
-0.01450161010283213
% es.tEX (V/m) @ t=0.9
0.020877675582425148
% es.tEY (V/m) @ t=0.9
0
% es.tEZ (V/m) @ t=0.9
-0.01450161010283657
% es.Ex (V/m) @ t=0.9
0.020877675582425592
% es.Ey (V/m) @ t=0.9
0.0012984178043771166
% es.Ez (V/m) @ t=0.9
-0.01450161010283213
% es.tEx (V/m) @ t=0.9
0.020877675582425148
% es.tEy (V/m) @ t=0.9
0
% es.tEz (V/m) @ t=0.9
-0.01450161010283657
% V (V) @ t=0.9
0.009677207784918563
% es.normE (V/m) @ t=0.92
0.02568218497084071
% es.EX (V/m) @ t=0.92
0.02106554664776139
% es.EY (V/m) @ t=0.92
0.0013101449588479586
% es.EZ (V/m) @ t=0.92
-0.014632186763921196
% es.tEX (V/m) @ t=0.92
0.0210655466477645
% es.tEY (V/m) @ t=0.92
0
% es.tEZ (V/m) @ t=0.92
-0.014632186763920307
% es.Ex (V/m) @ t=0.92
0.02106554664776139
% es.Ey (V/m) @ t=0.92
0.0013101449588479586
% es.Ez (V/m) @ t=0.92
-0.014632186763921196
% es.tEx (V/m) @ t=0.92
0.0210655466477645
% es.tEy (V/m) @ t=0.92
0
% es.tEz (V/m) @ t=0.92
-0.014632186763920307
% V (V) @ t=0.92
0.00976432106058099
% es.normE (V/m) @ t=0.94
0.025911277357818403
% es.EX (V/m) @ t=0.94
0.021253417713094525
% es.EY (V/m) @ t=0.94
0.0013218721132954858
% es.EZ (V/m) @ t=0.94
-0.014762763425002934
% es.tEX (V/m) @ t=0.94
0.02125341771309941
% es.tEY (V/m) @ t=0.94
0
% es.tEZ (V/m) @ t=0.94
-0.014762763425005154
% es.Ex (V/m) @ t=0.94
0.021253417713094525
% es.Ey (V/m) @ t=0.94
0.0013218721132954858
% es.Ez (V/m) @ t=0.94
-0.014762763425002934
% es.tEx (V/m) @ t=0.94
0.02125341771309941
% es.tEy (V/m) @ t=0.94
0
% es.tEz (V/m) @ t=0.94
-0.014762763425005154
% V (V) @ t=0.94
0.009851434336243413
% es.normE (V/m) @ t=0.96
0.026140369745025576
% es.EX (V/m) @ t=0.96
0.021441288778428547
% es.EY (V/m) @ t=0.96
0.0013335992677607766
% es.EZ (V/m) @ t=0.96
-0.014893340086082452
% es.tEX (V/m) @ t=0.96
0.021441288778426326
% es.tEY (V/m) @ t=0.96
0
% es.tEZ (V/m) @ t=0.96
-0.014893340086085116
% es.Ex (V/m) @ t=0.96
0.021441288778428547
% es.Ey (V/m) @ t=0.96
0.0013335992677607766
% es.Ez (V/m) @ t=0.96
-0.014893340086082452
% es.tEx (V/m) @ t=0.96
0.021441288778426326
% es.tEy (V/m) @ t=0.96
0
% es.tEz (V/m) @ t=0.96
-0.014893340086085116
% V (V) @ t=0.96
0.00993854761190584
% es.normE (V/m) @ t=0.98
0.026369462132450207
% es.EX (V/m) @ t=0.98
0.021629159843756796
% es.EY (V/m) @ t=0.98
0.0013453264222225148
% es.EZ (V/m) @ t=0.98
-0.015023916747160637
% es.tEX (V/m) @ t=0.98
0.02162915984375635
% es.tEY (V/m) @ t=0.98
0
% es.tEZ (V/m) @ t=0.98
-0.015023916747162858
% es.Ex (V/m) @ t=0.98
0.021629159843756796
% es.Ey (V/m) @ t=0.98
0.0013453264222225148
% es.Ez (V/m) @ t=0.98
-0.015023916747160637
% es.tEx (V/m) @ t=0.98
0.02162915984375635
% es.tEy (V/m) @ t=0.98
0
% es.tEz (V/m) @ t=0.98
-0.015023916747162858
% V (V) @ t=0.98
0.010025660887568262
% es.normE (V/m) @ t=1
0.026598554520098898
% es.EX (V/m) @ t=1
0.021817030909088153
% es.EY (V/m) @ t=1
0.0013570535766860292
% es.EZ (V/m) @ t=1
-0.015154493408245928
% es.tEX (V/m) @ t=1
0.021817030909089485
% es.tEY (V/m) @ t=1
0