% Model:              1 neuron.mph
% Version:            COMSOL 6.1.0.252
% Date:               Mar 26 2023, 14:28
% Dimension:          0
% Nodes:              14017
% Expressions:        14017
% Description:        Electric field norm, Electric field, X component, Electric field, Y component, Electric field, Z component, Tangential electric field, X component, Tangential electric field, Y component, Tangential electric field, Z component, Electric field, x component, Electric field, y component, Electric field, z component, Tangential electric field, x component, Tangential electric field, y component, Tangential electric field, z component, Electric potential
% Length unit:        mm
% x
1.66
% y
14.200000000000001
% z
2
% es.normE (V/m) @ t=0
0.030969820010132067
% es.EX (V/m) @ t=0
-0.013525741093702415
% es.EY (V/m) @ t=0
0.005876118485144133
% es.EZ (V/m) @ t=0
-0.027233349240860072
% es.tEX (V/m) @ t=0
-0.013525741093704191
% es.tEY (V/m) @ t=0
0
% es.tEZ (V/m) @ t=0
-0.027233349240860072
% es.Ex (V/m) @ t=0
-0.013525741093702415
% es.Ey (V/m) @ t=0
0.005876118485144133
% es.Ez (V/m) @ t=0
-0.027233349240860072
% es.tEx (V/m) @ t=0
-0.013525741093704191
% es.tEy (V/m) @ t=0
0
% es.tEz (V/m) @ t=0
-0.027233349240860072
% V (V) @ t=0
0.00719033734518256
% es.normE (V/m) @ t=0.02
0.028361867710625766
% es.EX (V/m) @ t=0.02
-0.012386745440288394
% es.EY (V/m) @ t=0.02
0.005381293619151961
% es.EZ (V/m) @ t=0.02
-0.024940043232059672
% es.tEX (V/m) @ t=0.02
-0.012386745440287505
% es.tEY (V/m) @ t=0.02
0
% es.tEZ (V/m) @ t=0.02
-0.024940043232061004
% es.Ex (V/m) @ t=0.02
-0.012386745440288394
% es.Ey (V/m) @ t=0.02
0.005381293619151961
% es.Ez (V/m) @ t=0.02
-0.024940043232059672
% es.tEx (V/m) @ t=0.02
-0.012386745440287505
% es.tEy (V/m) @ t=0.02
0
% es.tEz (V/m) @ t=0.02
-0.024940043232061004
% V (V) @ t=0.02
0.006584842907520035
% es.normE (V/m) @ t=0.04
0.028622105606412474
% es.EX (V/m) @ t=0.04
-0.012500401451016607
% es.EY (V/m) @ t=0.04
0.005430670328047782
% es.EZ (V/m) @ t=0.04
-0.025168883819035592
% es.tEX (V/m) @ t=0.04
-0.012500401451016607
% es.tEY (V/m) @ t=0.04
0
% es.tEZ (V/m) @ t=0.04
-0.02516888381903648
% es.Ex (V/m) @ t=0.04
-0.012500401451016607
% es.Ey (V/m) @ t=0.04
0.005430670328047782
% es.Ez (V/m) @ t=0.04
-0.025168883819035592
% es.tEx (V/m) @ t=0.04
-0.012500401451016607
% es.tEy (V/m) @ t=0.04
0
% es.tEz (V/m) @ t=0.04
-0.02516888381903648
% V (V) @ t=0.04
0.00664526313494626
% es.normE (V/m) @ t=0.06
0.028885517241933903
% es.EX (V/m) @ t=0.06
-0.012615443354901501
% es.EY (V/m) @ t=0.06
0.00548064922150715
% es.EZ (V/m) @ t=0.06
-0.025400515337373086
% es.tEX (V/m) @ t=0.06
-0.01261544335490239
% es.tEY (V/m) @ t=0.06
0
% es.tEZ (V/m) @ t=0.06
-0.025400515337376195
% es.Ex (V/m) @ t=0.06
-0.012615443354901501
% es.Ey (V/m) @ t=0.06
0.00548064922150715
% es.Ez (V/m) @ t=0.06
-0.025400515337373086
% es.tEx (V/m) @ t=0.06
-0.01261544335490239
% es.tEy (V/m) @ t=0.06
0
% es.tEz (V/m) @ t=0.06
-0.025400515337376195
% V (V) @ t=0.06
0.00670642038821046
% es.normE (V/m) @ t=0.08
0.02915100906393365
% es.EX (V/m) @ t=0.08
-0.012731393404113334
% es.EY (V/m) @ t=0.08
0.005531022773189065
% es.EZ (V/m) @ t=0.08
-0.02563397625257746
% es.tEX (V/m) @ t=0.08
-0.012731393404116886
% es.tEY (V/m) @ t=0.08
0
% es.tEZ (V/m) @ t=0.08
-0.025633976252579238
% es.Ex (V/m) @ t=0.08
-0.012731393404113334
% es.Ey (V/m) @ t=0.08
0.005531022773189065
% es.Ez (V/m) @ t=0.08
-0.02563397625257746
% es.tEx (V/m) @ t=0.08
-0.012731393404116886
% es.tEy (V/m) @ t=0.08
0
% es.tEz (V/m) @ t=0.08
-0.025633976252579238
% V (V) @ t=0.08
0.006768060975027259
% es.normE (V/m) @ t=0.1
0.029421984697209625
% es.EX (V/m) @ t=0.1
-0.012849737516375193
% es.EY (V/m) @ t=0.1
0.005582436727337381
% es.EZ (V/m) @ t=0.1
-0.025872259844636147
% es.tEX (V/m) @ t=0.1
-0.012849737516377857
% es.tEY (V/m) @ t=0.1
0
% es.tEZ (V/m) @ t=0.1
-0.025872259844637924
% es.Ex (V/m) @ t=0.1
-0.012849737516375193
% es.Ey (V/m) @ t=0.1
0.005582436727337381
% es.Ez (V/m) @ t=0.1
-0.025872259844636147
% es.tEx (V/m) @ t=0.1
-0.012849737516377857
% es.tEy (V/m) @ t=0.1
0
% es.tEz (V/m) @ t=0.1
-0.025872259844637924
% V (V) @ t=0.1
0.00683097573125928
% es.normE (V/m) @ t=0.12
0.02969296033048265
% es.EX (V/m) @ t=0.12
-0.01296808162862817
% es.EY (V/m) @ t=0.12
0.005633850681510566
% es.EZ (V/m) @ t=0.12
-0.026110543436690392
% es.tEX (V/m) @ t=0.12
-0.012968081628629946
% es.tEY (V/m) @ t=0.12
0
% es.tEZ (V/m) @ t=0.12
-0.02611054343669217
% es.Ex (V/m) @ t=0.12
-0.01296808162862817
% es.Ey (V/m) @ t=0.12
0.005633850681510566
% es.Ez (V/m) @ t=0.12
-0.026110543436690392
% es.tEx (V/m) @ t=0.12
-0.012968081628629946
% es.tEy (V/m) @ t=0.12
0
% es.tEz (V/m) @ t=0.12
-0.02611054343669217
% V (V) @ t=0.12
0.0068938904874913005
% es.normE (V/m) @ t=0.14
0.02996393596375747
% es.EX (V/m) @ t=0.14
-0.013086425740885588
% es.EY (V/m) @ t=0.14
0.0056852646356659875
% es.EZ (V/m) @ t=0.14
-0.02634882702874819
% es.tEX (V/m) @ t=0.14
-0.01308642574088914
% es.tEY (V/m) @ t=0.14
0
% es.tEZ (V/m) @ t=0.14
-0.026348827028747746
% es.Ex (V/m) @ t=0.14
-0.013086425740885588
% es.Ey (V/m) @ t=0.14
0.0056852646356659875
% es.Ez (V/m) @ t=0.14
-0.02634882702874819
% es.tEx (V/m) @ t=0.14
-0.01308642574088914
% es.tEy (V/m) @ t=0.14
0
% es.tEz (V/m) @ t=0.14
-0.026348827028747746
% V (V) @ t=0.14
0.00695680524372332
% es.normE (V/m) @ t=0.16
0.030243852583125452
% es.EX (V/m) @ t=0.16
-0.013208668034818238
% es.EY (V/m) @ t=0.16
0.005738374461081719
% es.EZ (V/m) @ t=0.16
-0.026594976336898668
% es.tEX (V/m) @ t=0.16
-0.013208668034820903
% es.tEY (V/m) @ t=0.16
0
% es.tEZ (V/m) @ t=0.16
-0.02659497633690222
% es.Ex (V/m) @ t=0.16
-0.013208668034818238
% es.Ey (V/m) @ t=0.16
0.005738374461081719
% es.Ez (V/m) @ t=0.16
-0.026594976336898668
% es.tEx (V/m) @ t=0.16
-0.013208668034820903
% es.tEy (V/m) @ t=0.16
0
% es.tEz (V/m) @ t=0.16
-0.02659497633690222
% V (V) @ t=0.16
0.00702180286768236
% es.normE (V/m) @ t=0.18
0.030530924424607125
% es.EX (V/m) @ t=0.18
-0.013334029934957137
% es.EY (V/m) @ t=0.18
0.005792841445021679
% es.EZ (V/m) @ t=0.18
-0.026847420358529384
% es.tEX (V/m) @ t=0.18
-0.01333402993495536
% es.tEY (V/m) @ t=0.18
0
% es.tEZ (V/m) @ t=0.18
-0.02684742035853116
% es.Ex (V/m) @ t=0.18
-0.013334029934957137
% es.Ey (V/m) @ t=0.18
0.005792841445021679
% es.Ez (V/m) @ t=0.18
-0.026847420358529384
% es.tEx (V/m) @ t=0.18
-0.01333402993495536
% es.tEy (V/m) @ t=0.18
0
% es.tEz (V/m) @ t=0.18
-0.02684742035853116
% V (V) @ t=0.18
0.007088467352661071
% es.normE (V/m) @ t=0.2
0.03081799626609608
% es.EX (V/m) @ t=0.2
-0.013459391835094259
% es.EY (V/m) @ t=0.2
0.00584730842895631
% es.EZ (V/m) @ t=0.2
-0.027099864380161875
% es.tEX (V/m) @ t=0.2
-0.013459391835097811
% es.tEY (V/m) @ t=0.2
0
% es.tEZ (V/m) @ t=0.2
-0.027099864380163208
% es.Ex (V/m) @ t=0.2
-0.013459391835094259
% es.Ey (V/m) @ t=0.2
0.00584730842895631
% es.Ez (V/m) @ t=0.2
-0.027099864380161875
% es.tEx (V/m) @ t=0.2
-0.013459391835097811
% es.tEy (V/m) @ t=0.2
0
% es.tEz (V/m) @ t=0.2
-0.027099864380163208
% V (V) @ t=0.2
0.0071551318376397825
% es.normE (V/m) @ t=0.22
0.0311050681075915
% es.EX (V/m) @ t=0.22
-0.013584753735230493
% es.EY (V/m) @ t=0.22
0.005901775412892718
% es.EZ (V/m) @ t=0.22
-0.02735230840179348
% es.tEX (V/m) @ t=0.22
-0.013584753735233157
% es.tEY (V/m) @ t=0.22
0
% es.tEZ (V/m) @ t=0.22
-0.027352308401793923
% es.Ex (V/m) @ t=0.22
-0.013584753735230493
% es.Ey (V/m) @ t=0.22
0.005901775412892718
% es.Ez (V/m) @ t=0.22
-0.02735230840179348
% es.tEx (V/m) @ t=0.22
-0.013584753735233157
% es.tEy (V/m) @ t=0.22
0
% es.tEz (V/m) @ t=0.22
-0.027352308401793923
% V (V) @ t=0.22
0.0072217963226184935
% es.normE (V/m) @ t=0.24
0.03139213994909146
% es.EX (V/m) @ t=0.24
-0.013710115635368503
% es.EY (V/m) @ t=0.24
0.005956242396836231
% es.EZ (V/m) @ t=0.24
-0.027604752423419754
% es.tEX (V/m) @ t=0.24
-0.013710115635369391
% es.tEY (V/m) @ t=0.24
0
% es.tEZ (V/m) @ t=0.24
-0.027604752423420198
% es.Ex (V/m) @ t=0.24
-0.013710115635368503
% es.Ey (V/m) @ t=0.24
0.005956242396836231
% es.Ez (V/m) @ t=0.24
-0.027604752423419754
% es.tEx (V/m) @ t=0.24
-0.013710115635369391
% es.tEy (V/m) @ t=0.24
0
% es.tEz (V/m) @ t=0.24
-0.027604752423420198
% V (V) @ t=0.24
0.007288460807597205
% es.normE (V/m) @ t=0.26
0.03167921179059925
% es.EX (V/m) @ t=0.26
-0.013835477535505625
% es.EY (V/m) @ t=0.26
0.0060107093807619805
% es.EZ (V/m) @ t=0.26
-0.027857196445051358
% es.tEX (V/m) @ t=0.26
-0.013835477535507401
% es.tEY (V/m) @ t=0.26
0
% es.tEZ (V/m) @ t=0.26
-0.027857196445054022
% es.Ex (V/m) @ t=0.26
-0.013835477535505625
% es.Ey (V/m) @ t=0.26
0.0060107093807619805
% es.Ez (V/m) @ t=0.26
-0.027857196445051358
% es.tEx (V/m) @ t=0.26
-0.013835477535507401
% es.tEy (V/m) @ t=0.26
0
% es.tEz (V/m) @ t=0.26
-0.027857196445054022
% V (V) @ t=0.26
0.007355125292575916
% es.normE (V/m) @ t=0.28
0.031966283632114185
% es.EX (V/m) @ t=0.28
-0.013960839435640082
% es.EY (V/m) @ t=0.28
0.006065176364700164
% es.EZ (V/m) @ t=0.28
-0.028109640466682073
% es.tEX (V/m) @ t=0.28
-0.013960839435640082
% es.tEY (V/m) @ t=0.28
0
% es.tEZ (V/m) @ t=0.28
-0.02810964046668607
% es.Ex (V/m) @ t=0.28
-0.013960839435640082
% es.Ey (V/m) @ t=0.28
0.006065176364700164
% es.Ez (V/m) @ t=0.28
-0.028109640466682073
% es.tEx (V/m) @ t=0.28
-0.013960839435640082
% es.tEy (V/m) @ t=0.28
0
% es.tEz (V/m) @ t=0.28
-0.02810964046668607
% V (V) @ t=0.28
0.007421789777554626
% es.normE (V/m) @ t=0.3
0.0322553643323542
% es.EX (V/m) @ t=0.3
-0.014087082492092229
% es.EY (V/m) @ t=0.3
0.006120024820578607
% es.EZ (V/m) @ t=0.3
-0.028363849020705878
% es.tEX (V/m) @ t=0.3
-0.014087082492094893
% es.tEY (V/m) @ t=0.3
0
% es.tEZ (V/m) @ t=0.3
-0.0283638490207081
% es.Ex (V/m) @ t=0.3
-0.014087082492092229
% es.Ey (V/m) @ t=0.3
0.006120024820578607
% es.Ez (V/m) @ t=0.3
-0.028363849020705878
% es.tEx (V/m) @ t=0.3
-0.014087082492094893
% es.tEy (V/m) @ t=0.3
0
% es.tEz (V/m) @ t=0.3
-0.0283638490207081
% V (V) @ t=0.3
0.007488916679873471
% es.normE (V/m) @ t=0.32
0.03255969564221649
% es.EX (V/m) @ t=0.32
-0.014220015004014819
% es.EY (V/m) @ t=0.32
0.006177769288854051
% es.EZ (V/m) @ t=0.32
-0.02863145333742345
% es.tEX (V/m) @ t=0.32
-0.01422001500401926
% es.tEY (V/m) @ t=0.32
0
% es.tEZ (V/m) @ t=0.32
-0.028631453337424784
% es.Ex (V/m) @ t=0.32
-0.014220015004014819
% es.Ey (V/m) @ t=0.32
0.006177769288854051
% es.Ez (V/m) @ t=0.32
-0.02863145333742345
% es.tEx (V/m) @ t=0.32
-0.01422001500401926
% es.tEy (V/m) @ t=0.32
0
% es.tEz (V/m) @ t=0.32
-0.028631453337424784
% V (V) @ t=0.32
0.007559554105987923
% es.normE (V/m) @ t=0.34
0.03286402695210151
% es.EX (V/m) @ t=0.34
-0.014352947515944514
% es.EY (V/m) @ t=0.34
0.006235513757131272
% es.EZ (V/m) @ t=0.34
-0.028899057654145466
% es.tEX (V/m) @ t=0.34
-0.01435294751594629
% es.tEY (V/m) @ t=0.34
0
% es.tEZ (V/m) @ t=0.34
-0.028899057654146798
% es.Ex (V/m) @ t=0.34
-0.014352947515944514
% es.Ey (V/m) @ t=0.34
0.006235513757131272
% es.Ez (V/m) @ t=0.34
-0.028899057654145466
% es.tEx (V/m) @ t=0.34
-0.01435294751594629
% es.tEy (V/m) @ t=0.34
0
% es.tEz (V/m) @ t=0.34
-0.028899057654146798
% V (V) @ t=0.34
0.00763019153210237
% es.normE (V/m) @ t=0.36
0.033168358261996815
% es.EX (V/m) @ t=0.36
-0.014485880027872433
% es.EY (V/m) @ t=0.36
0.006293258225396059
% es.EZ (V/m) @ t=0.36
-0.029166661970865704
% es.tEX (V/m) @ t=0.36
-0.014485880027875986
% es.tEY (V/m) @ t=0.36
0
% es.tEZ (V/m) @ t=0.36
-0.02916666197086748
% es.Ex (V/m) @ t=0.36
-0.014485880027872433
% es.Ey (V/m) @ t=0.36
0.006293258225396059
% es.Ez (V/m) @ t=0.36
-0.029166661970865704
% es.tEx (V/m) @ t=0.36
-0.014485880027875986
% es.tEy (V/m) @ t=0.36
0
% es.tEz (V/m) @ t=0.36
-0.02916666197086748
% V (V) @ t=0.36
0.007700828958216818
% es.normE (V/m) @ t=0.38
0.03347268957190894
% es.EX (V/m) @ t=0.38
-0.014618812539800352
% es.EY (V/m) @ t=0.38
0.006351002693689267
% es.EZ (V/m) @ t=0.38
-0.02943426628758239
% es.tEX (V/m) @ t=0.38
-0.014618812539800352
% es.tEY (V/m) @ t=0.38
0
% es.tEZ (V/m) @ t=0.38
-0.02943426628758461
% es.Ex (V/m) @ t=0.38
-0.014618812539800352
% es.Ey (V/m) @ t=0.38
0.006351002693689267
% es.Ez (V/m) @ t=0.38
-0.02943426628758239
% es.tEx (V/m) @ t=0.38
-0.014618812539800352
% es.tEy (V/m) @ t=0.38
0
% es.tEz (V/m) @ t=0.38
-0.02943426628758461
% V (V) @ t=0.38
0.0077714663843312685
% es.normE (V/m) @ t=0.4
0.0337770208818381
% es.EX (V/m) @ t=0.4
-0.014751745051731824
% es.EY (V/m) @ t=0.4
0.006408747161964712
% es.EZ (V/m) @ t=0.4
-0.029701870604304403
% es.tEX (V/m) @ t=0.4
-0.014751745051731824
% es.tEY (V/m) @ t=0.4
0
% es.tEZ (V/m) @ t=0.4
-0.029701870604307512
% es.Ex (V/m) @ t=0.4
-0.014751745051731824
% es.Ey (V/m) @ t=0.4
0.006408747161964712
% es.Ez (V/m) @ t=0.4
-0.029701870604304403
% es.tEx (V/m) @ t=0.4
-0.014751745051731824
% es.tEy (V/m) @ t=0.4
0
% es.tEz (V/m) @ t=0.4
-0.029701870604307512
% V (V) @ t=0.4
0.007842103810445717
% es.normE (V/m) @ t=0.42
0.034081352191773814
% es.EX (V/m) @ t=0.42
-0.01488467756365619
% es.EY (V/m) @ t=0.42
0.006466491630234827
% es.EZ (V/m) @ t=0.42
-0.029969474921022865
% es.tEX (V/m) @ t=0.42
-0.01488467756365619
% es.tEY (V/m) @ t=0.42
0
% es.tEZ (V/m) @ t=0.42
-0.029969474921026418
% es.Ex (V/m) @ t=0.42
-0.01488467756365619
% es.Ey (V/m) @ t=0.42
0.006466491630234827
% es.Ez (V/m) @ t=0.42
-0.029969474921022865
% es.tEx (V/m) @ t=0.42
-0.01488467756365619
% es.tEy (V/m) @ t=0.42
0
% es.tEz (V/m) @ t=0.42
-0.029969474921026418
% V (V) @ t=0.42
0.007912741236560168
% es.normE (V/m) @ t=0.44
0.03438568350172853
% es.EX (V/m) @ t=0.44
-0.015017610075582333
% es.EY (V/m) @ t=0.44
0.006524236098513825
% es.EZ (V/m) @ t=0.44
-0.03023707923774488
% es.tEX (V/m) @ t=0.44
-0.015017610075584109
% es.tEY (V/m) @ t=0.44
0
% es.tEZ (V/m) @ t=0.44
-0.030237079237744435
% es.Ex (V/m) @ t=0.44
-0.015017610075582333
% es.Ey (V/m) @ t=0.44
0.006524236098513825
% es.Ez (V/m) @ t=0.44
-0.03023707923774488
% es.tEx (V/m) @ t=0.44
-0.015017610075584109
% es.tEy (V/m) @ t=0.44
0
% es.tEz (V/m) @ t=0.44
-0.030237079237744435
% V (V) @ t=0.44
0.007983378662674616
% es.normE (V/m) @ t=0.46
0.03471665899120765
% es.EX (V/m) @ t=0.46
-0.015162179340096671
% es.EY (V/m) @ t=0.46
0.00658703594929122
% es.EZ (V/m) @ t=0.46
-0.03052811305294334
% es.tEX (V/m) @ t=0.46
-0.015162179340097559
% es.tEY (V/m) @ t=0.46
0
% es.tEZ (V/m) @ t=0.46
-0.030528113052946892
% es.Ex (V/m) @ t=0.46
-0.015162179340096671
% es.Ey (V/m) @ t=0.46
0.00658703594929122
% es.Ez (V/m) @ t=0.46
-0.03052811305294334
% es.tEx (V/m) @ t=0.46
-0.015162179340097559
% es.tEy (V/m) @ t=0.46
0
% es.tEz (V/m) @ t=0.46
-0.030528113052946892
% V (V) @ t=0.46
0.008060201963717465
% es.normE (V/m) @ t=0.48
0.035060328430415726
% es.EX (V/m) @ t=0.48
-0.015312292642928327
% es.EY (V/m) @ t=0.48
0.006652244310012989
% es.EZ (V/m) @ t=0.48
-0.030830309263869538
% es.tEX (V/m) @ t=0.48
-0.015312292642929215
% es.tEY (V/m) @ t=0.48
0
% es.tEZ (V/m) @ t=0.48
-0.0308303092638762
% es.Ex (V/m) @ t=0.48
-0.015312292642928327
% es.Ey (V/m) @ t=0.48
0.006652244310012989
% es.Ez (V/m) @ t=0.48
-0.030830309263869538
% es.tEx (V/m) @ t=0.48
-0.015312292642929215
% es.tEy (V/m) @ t=0.48
0
% es.tEz (V/m) @ t=0.48
-0.0308303092638762
% V (V) @ t=0.48
0.008139972369408326
% es.normE (V/m) @ t=0.5
0.035403997869639214
% es.EX (V/m) @ t=0.5
-0.015462405945763535
% es.EY (V/m) @ t=0.5
0.006717452670732982
% es.EZ (V/m) @ t=0.5
-0.03113250547479751
% es.tEX (V/m) @ t=0.5
-0.015462405945767976
% es.tEY (V/m) @ t=0.5
0
% es.tEZ (V/m) @ t=0.5
-0.031132505474800176
% es.Ex (V/m) @ t=0.5
-0.015462405945763535
% es.Ey (V/m) @ t=0.5
0.006717452670732982
% es.Ez (V/m) @ t=0.5
-0.03113250547479751
% es.tEx (V/m) @ t=0.5
-0.015462405945767976
% es.tEy (V/m) @ t=0.5
0
% es.tEz (V/m) @ t=0.5
-0.031132505474800176
% V (V) @ t=0.5
0.008219742775099185
% es.normE (V/m) @ t=0.52
0.035747667308872785
% es.EX (V/m) @ t=0.52
-0.015612519248593415
% es.EY (V/m) @ t=0.52
0.006782661031461856
% es.EZ (V/m) @ t=0.52
-0.03143470168572371
% es.tEX (V/m) @ t=0.52
-0.015612519248594303
% es.tEY (V/m) @ t=0.52
0
% es.tEZ (V/m) @ t=0.52
-0.0314347016857246
% es.Ex (V/m) @ t=0.52
-0.015612519248593415
% es.Ey (V/m) @ t=0.52
0.006782661031461856
% es.Ez (V/m) @ t=0.52
-0.03143470168572371
% es.tEx (V/m) @ t=0.52
-0.015612519248594303
% es.tEy (V/m) @ t=0.52
0
% es.tEz (V/m) @ t=0.52
-0.0314347016857246
% V (V) @ t=0.52
0.008299513180790044
% es.normE (V/m) @ t=0.54
0.036091336748125306
% es.EX (V/m) @ t=0.54
-0.0157626325514304
% es.EY (V/m) @ t=0.54
0.006847869392203165
% es.EZ (V/m) @ t=0.54
-0.031736897896651683
% es.tEX (V/m) @ t=0.54
-0.015762632551433065
% es.tEY (V/m) @ t=0.54
0
% es.tEZ (V/m) @ t=0.54
-0.03173689789665568
% es.Ex (V/m) @ t=0.54
-0.0157626325514304
% es.Ey (V/m) @ t=0.54
0.006847869392203165
% es.Ez (V/m) @ t=0.54
-0.031736897896651683
% es.tEx (V/m) @ t=0.54
-0.015762632551433065
% es.tEy (V/m) @ t=0.54
0
% es.tEz (V/m) @ t=0.54
-0.03173689789665568
% V (V) @ t=0.54
0.008379283586480903
% es.normE (V/m) @ t=0.56
0.03643500618738081
% es.EX (V/m) @ t=0.56
-0.015912745854262056
% es.EY (V/m) @ t=0.56
0.006913077752919605
% es.EZ (V/m) @ t=0.56
-0.03203909410757788
% es.tEX (V/m) @ t=0.56
-0.01591274585426472
% es.tEY (V/m) @ t=0.56
0
% es.tEZ (V/m) @ t=0.56
-0.032039094107581434
% es.Ex (V/m) @ t=0.56
-0.015912745854262056
% es.Ey (V/m) @ t=0.56
0.006913077752919605
% es.Ez (V/m) @ t=0.56
-0.03203909410757788
% es.tEx (V/m) @ t=0.56
-0.01591274585426472
% es.tEy (V/m) @ t=0.56
0
% es.tEz (V/m) @ t=0.56
-0.032039094107581434
% V (V) @ t=0.56
0.008459053992171764
% es.normE (V/m) @ t=0.58
0.036778675626648924
% es.EX (V/m) @ t=0.58
-0.016062859157093712
% es.EY (V/m) @ t=0.58
0.006978286113643151
% es.EZ (V/m) @ t=0.58
-0.03234129031850408
% es.tEX (V/m) @ t=0.58
-0.016062859157096376
% es.tEY (V/m) @ t=0.58
0
% es.tEZ (V/m) @ t=0.58
-0.03234129031850541
% es.Ex (V/m) @ t=0.58
-0.016062859157093712
% es.Ey (V/m) @ t=0.58
0.006978286113643151
% es.Ez (V/m) @ t=0.58
-0.03234129031850408
% es.tEx (V/m) @ t=0.58
-0.016062859157096376
% es.tEy (V/m) @ t=0.58
0
% es.tEz (V/m) @ t=0.58
-0.03234129031850541
% V (V) @ t=0.58
0.008538824397862627
% es.normE (V/m) @ t=0.6
0.037122345065930894
% es.EX (V/m) @ t=0.6
-0.01621297245992892
% es.EY (V/m) @ t=0.6
0.0070434944743738015
% es.EZ (V/m) @ t=0.6
-0.03264348652943028
% es.tEX (V/m) @ t=0.6
-0.01621297245992981
% es.tEY (V/m) @ t=0.6
0
% es.tEZ (V/m) @ t=0.6
-0.03264348652943516
% es.Ex (V/m) @ t=0.6
-0.01621297245992892
% es.Ey (V/m) @ t=0.6
0.0070434944743738015
% es.Ez (V/m) @ t=0.6
-0.03264348652943028
% es.tEx (V/m) @ t=0.6
-0.01621297245992981
% es.tEy (V/m) @ t=0.6
0
% es.tEz (V/m) @ t=0.6
-0.03264348652943516
% V (V) @ t=0.6
0.008618594803553483
% es.normE (V/m) @ t=0.62
0.03746601450522373
% es.EX (V/m) @ t=0.62
-0.01636308576276413
% es.EY (V/m) @ t=0.62
0.007108702835097347
% es.EZ (V/m) @ t=0.62
-0.03294568274035825
% es.tEX (V/m) @ t=0.62
-0.016363085762765905
% es.tEY (V/m) @ t=0.62
0
% es.tEZ (V/m) @ t=0.62
-0.03294568274035958
% es.Ex (V/m) @ t=0.62
-0.01636308576276413
% es.Ey (V/m) @ t=0.62
0.007108702835097347
% es.Ez (V/m) @ t=0.62
-0.03294568274035825
% es.tEx (V/m) @ t=0.62
-0.016363085762765905
% es.tEy (V/m) @ t=0.62
0
% es.tEz (V/m) @ t=0.62
-0.03294568274035958
% V (V) @ t=0.62
0.008698365209244345
% es.normE (V/m) @ t=0.64
0.03780968394452348
% es.EX (V/m) @ t=0.64
-0.016513199065592232
% es.EY (V/m) @ t=0.64
0.007173911195819116
% es.EZ (V/m) @ t=0.64
-0.033247878951286225
% es.tEX (V/m) @ t=0.64
-0.016513199065590456
% es.tEY (V/m) @ t=0.64
0
% es.tEZ (V/m) @ t=0.64
-0.033247878951289334
% es.Ex (V/m) @ t=0.64
-0.016513199065592232
% es.Ey (V/m) @ t=0.64
0.007173911195819116
% es.Ez (V/m) @ t=0.64
-0.033247878951286225
% es.tEx (V/m) @ t=0.64
-0.016513199065590456
% es.tEy (V/m) @ t=0.64
0
% es.tEz (V/m) @ t=0.64
-0.033247878951289334
% V (V) @ t=0.64
0.008778135614935203
% es.normE (V/m) @ t=0.66
0.038153353383829844
% es.EX (V/m) @ t=0.66
-0.016663312368423888
% es.EY (V/m) @ t=0.66
0.007239119556539109
% es.EZ (V/m) @ t=0.66
-0.03355007516220887
% es.tEX (V/m) @ t=0.66
-0.016663312368426553
% es.tEY (V/m) @ t=0.66
0
% es.tEZ (V/m) @ t=0.66
-0.03355007516221242
% es.Ex (V/m) @ t=0.66
-0.016663312368423888
% es.Ey (V/m) @ t=0.66
0.007239119556539109
% es.Ez (V/m) @ t=0.66
-0.03355007516220887
% es.tEx (V/m) @ t=0.66
-0.016663312368426553
% es.tEy (V/m) @ t=0.66
0
% es.tEz (V/m) @ t=0.66
-0.03355007516221242
% V (V) @ t=0.66
0.008857906020626067
% es.normE (V/m) @ t=0.68
0.03849702282315976
% es.EX (V/m) @ t=0.68
-0.016813425671259097
% es.EY (V/m) @ t=0.68
0.007304327917282194
% es.EZ (V/m) @ t=0.68
-0.0338522713731404
% es.tEX (V/m) @ t=0.68
-0.01681342567126265
% es.tEY (V/m) @ t=0.68
0
% es.tEZ (V/m) @ t=0.68
-0.033852271373143505
% es.Ex (V/m) @ t=0.68
-0.016813425671259097
% es.Ey (V/m) @ t=0.68
0.007304327917282194
% es.Ez (V/m) @ t=0.68
-0.0338522713731404
% es.tEx (V/m) @ t=0.68
-0.01681342567126265
% es.tEy (V/m) @ t=0.68
0
% es.tEz (V/m) @ t=0.68
-0.033852271373143505
% V (V) @ t=0.68
0.008937676426316921
% es.normE (V/m) @ t=0.7
0.038840692262491164
% es.EX (V/m) @ t=0.7
-0.016963538974094305
% es.EY (V/m) @ t=0.7
0.007369536278007516
% es.EZ (V/m) @ t=0.7
-0.034154467584066595
% es.tEX (V/m) @ t=0.7
-0.016963538974099635
% es.tEY (V/m) @ t=0.7
0
% es.tEZ (V/m) @ t=0.7
-0.03415446758407015
% es.Ex (V/m) @ t=0.7
-0.016963538974094305
% es.Ey (V/m) @ t=0.7
0.007369536278007516
% es.Ez (V/m) @ t=0.7
-0.034154467584066595
% es.tEx (V/m) @ t=0.7
-0.016963538974099635
% es.tEy (V/m) @ t=0.7
0
% es.tEz (V/m) @ t=0.7
-0.03415446758407015
% V (V) @ t=0.7
0.009017446832007784
% es.normE (V/m) @ t=0.72
0.03918436170183054
% es.EX (V/m) @ t=0.72
-0.01711365227692596
% es.EY (V/m) @ t=0.72
0.007434744638725732
% es.EZ (V/m) @ t=0.72
-0.03445666379499457
% es.tEX (V/m) @ t=0.72
-0.017113652276929514
% es.tEY (V/m) @ t=0.72
0
% es.tEZ (V/m) @ t=0.72
-0.03445666379499368
% es.Ex (V/m) @ t=0.72
-0.01711365227692596
% es.Ey (V/m) @ t=0.72
0.007434744638725732
% es.Ez (V/m) @ t=0.72
-0.03445666379499457
% es.tEx (V/m) @ t=0.72
-0.017113652276929514
% es.tEy (V/m) @ t=0.72
0
% es.tEz (V/m) @ t=0.72
-0.03445666379499368
% V (V) @ t=0.72
0.009097217237698643
% es.normE (V/m) @ t=0.74
0.03952803114118246
% es.EX (V/m) @ t=0.74
-0.017263765579757617
% es.EY (V/m) @ t=0.74
0.007499952999470594
% es.EZ (V/m) @ t=0.74
-0.034758860005920766
% es.tEX (V/m) @ t=0.74
-0.017263765579759394
% es.tEY (V/m) @ t=0.74
0
% es.tEZ (V/m) @ t=0.74
-0.03475886000592121
% es.Ex (V/m) @ t=0.74
-0.017263765579757617
% es.Ey (V/m) @ t=0.74
0.007499952999470594
% es.Ez (V/m) @ t=0.74
-0.034758860005920766
% es.tEx (V/m) @ t=0.74
-0.017263765579759394
% es.tEy (V/m) @ t=0.74
0
% es.tEz (V/m) @ t=0.74
-0.03475886000592121
% V (V) @ t=0.74
0.009176987643389504
% es.normE (V/m) @ t=0.76
0.039903720734252725
% es.EX (V/m) @ t=0.76
-0.017427784880231556
% es.EY (V/m) @ t=0.76
0.007571230357379832
% es.EZ (V/m) @ t=0.76
-0.03508925353268566
% es.tEX (V/m) @ t=0.76
-0.017427784880236885
% es.tEY (V/m) @ t=0.76
0
% es.tEZ (V/m) @ t=0.76
-0.03508925353268877
% es.Ex (V/m) @ t=0.76
-0.017427784880231556
% es.Ey (V/m) @ t=0.76
0.007571230357379832
% es.Ez (V/m) @ t=0.76
-0.03508925353268566
% es.tEx (V/m) @ t=0.76
-0.017427784880236885
% es.tEy (V/m) @ t=0.76
0
% es.tEz (V/m) @ t=0.76
-0.03508925353268877
% V (V) @ t=0.76
0.009264274120338522
% es.normE (V/m) @ t=0.78
0.04028745783532811
% es.EX (V/m) @ t=0.78
-0.017595299124105068
% es.EY (V/m) @ t=0.78
0.007644033014100771
% es.EZ (V/m) @ t=0.78
-0.035426733787437215
% es.tEX (V/m) @ t=0.78
-0.01759529912410862
% es.tEY (V/m) @ t=0.78
0
% es.tEZ (V/m) @ t=0.78
-0.03542673378743988
% es.Ex (V/m) @ t=0.78
-0.017595299124105068
% es.Ey (V/m) @ t=0.78
0.007644033014100771
% es.Ez (V/m) @ t=0.78
-0.035426733787437215
% es.tEx (V/m) @ t=0.78
-0.01759529912410862
% es.tEy (V/m) @ t=0.78
0
% es.tEz (V/m) @ t=0.78
-0.03542673378743988
% V (V) @ t=0.78
0.00935344958391436
% es.normE (V/m) @ t=0.8
0.04067119493660612
% es.EX (V/m) @ t=0.8
-0.01776281336797858
% es.EY (V/m) @ t=0.8
0.007716835670818156
% es.EZ (V/m) @ t=0.8
-0.03576421404218699
% es.tEX (V/m) @ t=0.8
-0.01776281336797947
% es.tEY (V/m) @ t=0.8
0
% es.tEZ (V/m) @ t=0.8
-0.03576421404219143
% es.Ex (V/m) @ t=0.8
-0.01776281336797858
% es.Ey (V/m) @ t=0.8
0.007716835670818156
% es.Ez (V/m) @ t=0.8
-0.03576421404218699
% es.tEx (V/m) @ t=0.8
-0.01776281336797947
% es.tEy (V/m) @ t=0.8
0
% es.tEz (V/m) @ t=0.8
-0.03576421404219143
% V (V) @ t=0.8
0.0094426250474902
% es.normE (V/m) @ t=0.82
0.04105493203808403
% es.EX (V/m) @ t=0.82
-0.017930327611846764
% es.EY (V/m) @ t=0.82
0.007789638327535542
% es.EZ (V/m) @ t=0.82
-0.03610169429694032
% es.tEX (V/m) @ t=0.82
-0.017930327611847652
% es.tEY (V/m) @ t=0.82
0
% es.tEZ (V/m) @ t=0.82
-0.036101694296939435
% es.Ex (V/m) @ t=0.82
-0.017930327611846764
% es.Ey (V/m) @ t=0.82
0.007789638327535542
% es.Ez (V/m) @ t=0.82
-0.03610169429694032
% es.tEx (V/m) @ t=0.82
-0.017930327611847652
% es.tEy (V/m) @ t=0.82
0
% es.tEz (V/m) @ t=0.82
-0.036101694296939435
% V (V) @ t=0.82
0.009531800511066042
% es.normE (V/m) @ t=0.84
0.041438669139750396
% es.EX (V/m) @ t=0.84
-0.01809784185571317
% es.EY (V/m) @ t=0.84
0.007862440984254704
% es.EZ (V/m) @ t=0.84
-0.036439174551688325
% es.tEX (V/m) @ t=0.84
-0.0180978418557185
% es.tEY (V/m) @ t=0.84
0
% es.tEZ (V/m) @ t=0.84
-0.03643917455168788
% es.Ex (V/m) @ t=0.84
-0.01809784185571317
% es.Ey (V/m) @ t=0.84
0.007862440984254704
% es.Ez (V/m) @ t=0.84
-0.036439174551688325
% es.tEx (V/m) @ t=0.84
-0.0180978418557185
% es.tEy (V/m) @ t=0.84
0
% es.tEz (V/m) @ t=0.84
-0.03643917455168788
% V (V) @ t=0.84
0.009620975974641885
% es.normE (V/m) @ t=0.86
0.04182240624161132
% es.EX (V/m) @ t=0.86
-0.01826535609959201
% es.EY (V/m) @ t=0.86
0.007935243640970313
% es.EZ (V/m) @ t=0.86
-0.0367766548064381
% es.tEX (V/m) @ t=0.86
-0.018265356099591123
% es.tEY (V/m) @ t=0.86
0
% es.tEZ (V/m) @ t=0.86
-0.03677665480643899
% es.Ex (V/m) @ t=0.86
-0.01826535609959201
% es.Ey (V/m) @ t=0.86
0.007935243640970313
% es.Ez (V/m) @ t=0.86
-0.0367766548064381
% es.tEx (V/m) @ t=0.86
-0.018265356099591123
% es.tEy (V/m) @ t=0.86
0
% es.tEz (V/m) @ t=0.86
-0.03677665480643899
% V (V) @ t=0.86
0.009710151438217724
% es.normE (V/m) @ t=0.88
0.04220614334365329
% es.EX (V/m) @ t=0.88
-0.018432870343460195
% es.EY (V/m) @ t=0.88
0.008008046297691251
% es.EZ (V/m) @ t=0.88
-0.03711413506118966
% es.tEX (V/m) @ t=0.88
-0.01843287034346286
% es.tEY (V/m) @ t=0.88
0
% es.tEZ (V/m) @ t=0.88
-0.03711413506119232
% es.Ex (V/m) @ t=0.88
-0.018432870343460195
% es.Ey (V/m) @ t=0.88
0.008008046297691251
% es.Ez (V/m) @ t=0.88
-0.03711413506118966
% es.tEx (V/m) @ t=0.88
-0.01843287034346286
% es.tEy (V/m) @ t=0.88
0
% es.tEz (V/m) @ t=0.88
-0.03711413506119232
% V (V) @ t=0.88
0.009799326901793566
% es.normE (V/m) @ t=0.9
0.04258988044588033
% es.EX (V/m) @ t=0.9
-0.018600384587333707
% es.EY (V/m) @ t=0.9
0.008080848954428177
% es.EZ (V/m) @ t=0.9
-0.03745161531594299
% es.tEX (V/m) @ t=0.9
-0.01860038458733193
% es.tEY (V/m) @ t=0.9
0
% es.tEZ (V/m) @ t=0.9
-0.03745161531594521
% es.Ex (V/m) @ t=0.9
-0.018600384587333707
% es.Ey (V/m) @ t=0.9
0.008080848954428177
% es.Ez (V/m) @ t=0.9
-0.03745161531594299
% es.tEx (V/m) @ t=0.9
-0.01860038458733193
% es.tEy (V/m) @ t=0.9
0
% es.tEz (V/m) @ t=0.9
-0.03745161531594521
% V (V) @ t=0.9
0.009888502365369409
% es.normE (V/m) @ t=0.92
0.042973617548271024
% es.EX (V/m) @ t=0.92
-0.01876789883120722
% es.EY (V/m) @ t=0.92
0.008153651611138457
% es.EZ (V/m) @ t=0.92
-0.03778909557069099
% es.tEX (V/m) @ t=0.92
-0.018767898831210772
% es.tEY (V/m) @ t=0.92
0
% es.tEZ (V/m) @ t=0.92
-0.037789095570694986
% es.Ex (V/m) @ t=0.92
-0.01876789883120722
% es.Ey (V/m) @ t=0.92
0.008153651611138457
% es.Ez (V/m) @ t=0.92
-0.03778909557069099
% es.tEx (V/m) @ t=0.92
-0.018767898831210772
% es.tEy (V/m) @ t=0.92
0
% es.tEz (V/m) @ t=0.92
-0.037789095570694986
% V (V) @ t=0.92
0.009977677828945248
% es.normE (V/m) @ t=0.94
0.04335735465082654
% es.EX (V/m) @ t=0.94
-0.01893541307506652
% es.EY (V/m) @ t=0.94
0.00822645426785229
% es.EZ (V/m) @ t=0.94
-0.03812657582544077
% es.tEX (V/m) @ t=0.94
-0.018935413075068297
% es.tEY (V/m) @ t=0.94
0
% es.tEZ (V/m) @ t=0.94
-0.03812657582544032
% es.Ex (V/m) @ t=0.94
-0.01893541307506652
% es.Ey (V/m) @ t=0.94
0.00822645426785229
% es.Ez (V/m) @ t=0.94
-0.03812657582544077
% es.tEx (V/m) @ t=0.94
-0.018935413075068297
% es.tEy (V/m) @ t=0.94
0
% es.tEz (V/m) @ t=0.94
-0.03812657582544032
% V (V) @ t=0.94
0.010066853292521091
% es.normE (V/m) @ t=0.96
0.04374109175356277
% es.EX (V/m) @ t=0.96
-0.019102927318945362
% es.EY (V/m) @ t=0.96
0.008299256924590992
% es.EZ (V/m) @ t=0.96
-0.0384640560801941
% es.tEX (V/m) @ t=0.96
-0.01910292731894625
% es.tEY (V/m) @ t=0.96
0
% es.tEZ (V/m) @ t=0.96
-0.03846405608019854
% es.Ex (V/m) @ t=0.96
-0.019102927318945362
% es.Ey (V/m) @ t=0.96
0.008299256924590992
% es.Ez (V/m) @ t=0.96
-0.0384640560801941
% es.tEx (V/m) @ t=0.96
-0.01910292731894625
% es.tEy (V/m) @ t=0.96
0
% es.tEz (V/m) @ t=0.96
-0.03846405608019854
% V (V) @ t=0.96
0.01015602875609693
% es.normE (V/m) @ t=0.98
0.044124828856452906
% es.EX (V/m) @ t=0.98
-0.019270441562818874
% es.EY (V/m) @ t=0.98
0.008372059581301272
% es.EZ (V/m) @ t=0.98
-0.038801536334949205
% es.tEX (V/m) @ t=0.98
-0.019270441562817098
% es.tEY (V/m) @ t=0.98
0
% es.tEZ (V/m) @ t=0.98
-0.03880153633495054
% es.Ex (V/m) @ t=0.98
-0.019270441562818874
% es.Ey (V/m) @ t=0.98
0.008372059581301272
% es.Ez (V/m) @ t=0.98
-0.038801536334949205
% es.tEx (V/m) @ t=0.98
-0.019270441562817098
% es.tEy (V/m) @ t=0.98
0
% es.tEz (V/m) @ t=0.98
-0.03880153633495054
% V (V) @ t=0.98
0.01024520421967277
% es.normE (V/m) @ t=1
0.044508565959491514
% es.EX (V/m) @ t=1
-0.019437955806687057
% es.EY (V/m) @ t=1
0.008444862238025763
% es.EZ (V/m) @ t=1
-0.03913901658969543
% es.tEX (V/m) @ t=1