% Model:              1 neuron.mph
% Version:            COMSOL 6.1.0.252
% Date:               Mar 26 2023, 14:38
% Dimension:          0
% Nodes:              14017
% Expressions:        14017
% Description:        Electric field norm, Electric field, X component, Electric field, Y component, Electric field, Z component, Tangential electric field, X component, Tangential electric field, Y component, Tangential electric field, Z component, Electric field, x component, Electric field, y component, Electric field, z component, Tangential electric field, x component, Tangential electric field, y component, Tangential electric field, z component, Electric potential
% Length unit:        mm
% x
1.33
% y
14.200000000000001
% z
2.0000000000000004
% es.normE (V/m) @ t=0
0.03460917414280404
% es.EX (V/m) @ t=0
0.015269605529516284
% es.EY (V/m) @ t=0
0.0038750867596899496
% es.EZ (V/m) @ t=0
-0.03081586903568967
% es.tEX (V/m) @ t=0
0.015269605529507402
% es.tEY (V/m) @ t=0
0
% es.tEZ (V/m) @ t=0
-0.030815869035693222
% es.Ex (V/m) @ t=0
0.015269605529516284
% es.Ey (V/m) @ t=0
0.0038750867596899496
% es.Ez (V/m) @ t=0
-0.03081586903568967
% es.tEx (V/m) @ t=0
0.015269605529507402
% es.tEy (V/m) @ t=0
0
% es.tEz (V/m) @ t=0
-0.030815869035693222
% V (V) @ t=0
0.006983672687868986
% es.normE (V/m) @ t=0.02
0.0316727931300968
% es.EX (V/m) @ t=0.02
0.013974070981108255
% es.EY (V/m) @ t=0.02
0.003546308894049943
% es.EZ (V/m) @ t=0.02
-0.028201327240128915
% es.tEX (V/m) @ t=0.02
0.01397407098110115
% es.tEY (V/m) @ t=0.02
0
% es.tEZ (V/m) @ t=0.02
-0.02820132724013069
% es.Ex (V/m) @ t=0.02
0.013974070981108255
% es.Ey (V/m) @ t=0.02
0.003546308894049943
% es.Ez (V/m) @ t=0.02
-0.028201327240128915
% es.tEx (V/m) @ t=0.02
0.01397407098110115
% es.tEy (V/m) @ t=0.02
0
% es.tEz (V/m) @ t=0.02
-0.02820132724013069
% V (V) @ t=0.02
0.006391149906594689
% es.normE (V/m) @ t=0.04
0.03196341375987682
% es.EX (V/m) @ t=0.04
0.014102294795963921
% es.EY (V/m) @ t=0.04
0.00357884759137983
% es.EZ (V/m) @ t=0.04
-0.02846009400178584
% es.tEX (V/m) @ t=0.04
0.01410229479595504
% es.tEY (V/m) @ t=0.04
0
% es.tEZ (V/m) @ t=0.04
-0.028460094001789393
% es.Ex (V/m) @ t=0.04
0.014102294795963921
% es.Ey (V/m) @ t=0.04
0.00357884759137983
% es.Ez (V/m) @ t=0.04
-0.02846009400178584
% es.tEx (V/m) @ t=0.04
0.01410229479595504
% es.tEy (V/m) @ t=0.04
0
% es.tEz (V/m) @ t=0.04
-0.028460094001789393
% V (V) @ t=0.04
0.006449793691823993
% es.normE (V/m) @ t=0.06
0.032257539178348164
% es.EX (V/m) @ t=0.06
0.014232066995983672
% es.EY (V/m) @ t=0.06
0.0036117771841026602
% es.EZ (V/m) @ t=0.06
-0.028721980579982542
% es.tEX (V/m) @ t=0.06
0.014232066995975678
% es.tEY (V/m) @ t=0.06
0
% es.tEZ (V/m) @ t=0.06
-0.02872198057998787
% es.Ex (V/m) @ t=0.06
0.014232066995983672
% es.Ey (V/m) @ t=0.06
0.0036117771841026602
% es.Ez (V/m) @ t=0.06
-0.028721980579982542
% es.tEx (V/m) @ t=0.06
0.014232066995975678
% es.tEy (V/m) @ t=0.06
0
% es.tEz (V/m) @ t=0.06
-0.02872198057998787
% V (V) @ t=0.06
0.006509145182303551
% es.normE (V/m) @ t=0.08
0.03255408668893856
% es.EX (V/m) @ t=0.08
0.014362912077559464
% es.EY (V/m) @ t=0.08
0.003644974837321957
% es.EZ (V/m) @ t=0.08
-0.02898602206648082
% es.tEX (V/m) @ t=0.08
0.014362912077554135
% es.tEY (V/m) @ t=0.08
0
% es.tEZ (V/m) @ t=0.08
-0.028986022066484374
% es.Ex (V/m) @ t=0.08
0.014362912077559464
% es.Ey (V/m) @ t=0.08
0.003644974837321957
% es.Ez (V/m) @ t=0.08
-0.02898602206648082
% es.tEx (V/m) @ t=0.08
0.014362912077554135
% es.tEy (V/m) @ t=0.08
0
% es.tEz (V/m) @ t=0.08
-0.028986022066484374
% V (V) @ t=0.08
0.006568986417474821
% es.normE (V/m) @ t=0.1
0.0328566273002702
% es.EX (V/m) @ t=0.1
0.014496411842330303
% es.EY (V/m) @ t=0.1
0.0036788357657022708
% es.EZ (V/m) @ t=0.1
-0.029255395547751473
% es.tEX (V/m) @ t=0.1
0.014496411842321422
% es.tEY (V/m) @ t=0.1
0
% es.tEZ (V/m) @ t=0.1
-0.02925539554775325
% es.Ex (V/m) @ t=0.1
0.014496411842330303
% es.Ey (V/m) @ t=0.1
0.0036788357657022708
% es.Ez (V/m) @ t=0.1
-0.029255395547751473
% es.tEx (V/m) @ t=0.1
0.014496411842321422
% es.tEy (V/m) @ t=0.1
0
% es.tEz (V/m) @ t=0.1
-0.02925539554775325
% V (V) @ t=0.1
0.006630039451838389
% es.normE (V/m) @ t=0.12
0.033159167911622385
% es.EX (V/m) @ t=0.12
0.014629911607105583
% es.EY (V/m) @ t=0.12
0.0037126966940981276
% es.EZ (V/m) @ t=0.12
-0.02952476902902168
% es.tEX (V/m) @ t=0.12
0.014629911607096702
% es.tEY (V/m) @ t=0.12
0
% es.tEZ (V/m) @ t=0.12
-0.029524769029023457
% es.Ex (V/m) @ t=0.12
0.014629911607105583
% es.Ey (V/m) @ t=0.12
0.0037126966940981276
% es.Ez (V/m) @ t=0.12
-0.02952476902902168
% es.tEx (V/m) @ t=0.12
0.014629911607096702
% es.tEy (V/m) @ t=0.12
0
% es.tEz (V/m) @ t=0.12
-0.029524769029023457
% V (V) @ t=0.12
0.006691092486201954
% es.normE (V/m) @ t=0.14
0.0334617085229865
% es.EX (V/m) @ t=0.14
0.014763411371876423
% es.EY (V/m) @ t=0.14
0.003746557622482438
% es.EZ (V/m) @ t=0.14
-0.02979414251029011
% es.tEX (V/m) @ t=0.14
0.01476341137186754
% es.tEY (V/m) @ t=0.14
0
% es.tEZ (V/m) @ t=0.14
-0.029794142510291888
% es.Ex (V/m) @ t=0.14
0.014763411371876423
% es.Ey (V/m) @ t=0.14
0.003746557622482438
% es.Ez (V/m) @ t=0.14
-0.02979414251029011
% es.tEx (V/m) @ t=0.14
0.01476341137186754
% es.tEy (V/m) @ t=0.14
0
% es.tEz (V/m) @ t=0.14
-0.029794142510291888
% V (V) @ t=0.14
0.00675214552056552
% es.normE (V/m) @ t=0.16
0.033774661894525805
% es.EX (V/m) @ t=0.16
0.014901494380405111
% es.EY (V/m) @ t=0.16
0.0037815924526158895
% es.EZ (V/m) @ t=0.16
-0.030072791853145375
% es.tEX (V/m) @ t=0.16
0.01490149438039623
% es.tEY (V/m) @ t=0.16
0
% es.tEZ (V/m) @ t=0.16
-0.03007279185314715
% es.Ex (V/m) @ t=0.16
0.014901494380405111
% es.Ey (V/m) @ t=0.16
0.0037815924526158895
% es.Ez (V/m) @ t=0.16
-0.030072791853145375
% es.tEx (V/m) @ t=0.16
0.01490149438039623
% es.tEy (V/m) @ t=0.16
0
% es.tEz (V/m) @ t=0.16
-0.03007279185314715
% V (V) @ t=0.16
0.006815297153032988
% es.normE (V/m) @ t=0.18
0.03409512225793213
% es.EX (V/m) @ t=0.18
0.01504288163997014
% es.EY (V/m) @ t=0.18
0.003817473597331311
% es.EZ (V/m) @ t=0.18
-0.030358128550404206
% es.tEX (V/m) @ t=0.18
0.015042881639957706
% es.tEY (V/m) @ t=0.18
0
% es.tEZ (V/m) @ t=0.18
-0.03035812855040776
% es.Ex (V/m) @ t=0.18
0.01504288163997014
% es.Ey (V/m) @ t=0.18
0.003817473597331311
% es.Ez (V/m) @ t=0.18
-0.030358128550404206
% es.tEx (V/m) @ t=0.18
0.015042881639957706
% es.tEy (V/m) @ t=0.18
0
% es.tEz (V/m) @ t=0.18
-0.03035812855040776
% V (V) @ t=0.18
0.006879961752156126
% es.normE (V/m) @ t=0.2
0.034415582621337454
% es.EX (V/m) @ t=0.2
0.015184268899537834
% es.EY (V/m) @ t=0.2
0.003853354742037407
% es.EZ (V/m) @ t=0.2
-0.030643465247661705
% es.tEX (V/m) @ t=0.2
0.015184268899528952
% es.tEY (V/m) @ t=0.2
0
% es.tEZ (V/m) @ t=0.2
-0.03064346524766348
% es.Ex (V/m) @ t=0.2
0.015184268899537834
% es.Ey (V/m) @ t=0.2
0.003853354742037407
% es.Ez (V/m) @ t=0.2
-0.030643465247661705
% es.tEx (V/m) @ t=0.2
0.015184268899528952
% es.tEy (V/m) @ t=0.2
0
% es.tEz (V/m) @ t=0.2
-0.03064346524766348
% V (V) @ t=0.2
0.006944626351279266
% es.normE (V/m) @ t=0.22
0.03473604298474271
% es.EX (V/m) @ t=0.22
0.015325656159097534
% es.EY (V/m) @ t=0.22
0.003889235886759934
% es.EZ (V/m) @ t=0.22
-0.03092880194492098
% es.tEX (V/m) @ t=0.22
0.015325656159088652
% es.tEY (V/m) @ t=0.22
0
% es.tEZ (V/m) @ t=0.22
-0.030928801944924533
% es.Ex (V/m) @ t=0.22
0.015325656159097534
% es.Ey (V/m) @ t=0.22
0.003889235886759934
% es.Ez (V/m) @ t=0.22
-0.03092880194492098
% es.tEx (V/m) @ t=0.22
0.015325656159088652
% es.tEy (V/m) @ t=0.22
0
% es.tEz (V/m) @ t=0.22
-0.030928801944924533
% V (V) @ t=0.22
0.007009290950402403
% es.normE (V/m) @ t=0.24
0.03505650334814982
% es.EX (V/m) @ t=0.24
0.015467043418659898
% es.EY (V/m) @ t=0.24
0.003925117031466918
% es.EZ (V/m) @ t=0.24
-0.03121413864218292
% es.tEX (V/m) @ t=0.24
0.015467043418655457
% es.tEY (V/m) @ t=0.24
0
% es.tEZ (V/m) @ t=0.24
-0.031214138642184697
% es.Ex (V/m) @ t=0.24
0.015467043418659898
% es.Ey (V/m) @ t=0.24
0.003925117031466918
% es.Ez (V/m) @ t=0.24
-0.03121413864218292
% es.tEx (V/m) @ t=0.24
0.015467043418655457
% es.tEy (V/m) @ t=0.24
0
% es.tEz (V/m) @ t=0.24
-0.031214138642184697
% V (V) @ t=0.24
0.007073955549525541
% es.normE (V/m) @ t=0.26
0.035376963711552446
% es.EX (V/m) @ t=0.26
0.015608430678226703
% es.EY (V/m) @ t=0.26
0.003960998176183228
% es.EZ (V/m) @ t=0.26
-0.03149947533943642
% es.tEX (V/m) @ t=0.26
0.01560843067821871
% es.tEY (V/m) @ t=0.26
0
% es.tEZ (V/m) @ t=0.26
-0.031499475339439975
% es.Ex (V/m) @ t=0.26
0.015608430678226703
% es.Ey (V/m) @ t=0.26
0.003960998176183228
% es.Ez (V/m) @ t=0.26
-0.03149947533943642
% es.tEx (V/m) @ t=0.26
0.01560843067821871
% es.tEy (V/m) @ t=0.26
0
% es.tEz (V/m) @ t=0.26
-0.031499475339439975
% V (V) @ t=0.26
0.007138620148648679
% es.normE (V/m) @ t=0.28
0.03569742407496207
% es.EX (V/m) @ t=0.28
0.01574981793779706
% es.EY (V/m) @ t=0.28
0.003996879320894653
% es.EZ (V/m) @ t=0.28
-0.031784812036696586
% es.tEX (V/m) @ t=0.28
0.01574981793778818
% es.tEY (V/m) @ t=0.28
0
% es.tEZ (V/m) @ t=0.28
-0.03178481203670014
% es.Ex (V/m) @ t=0.28
0.01574981793779706
% es.Ey (V/m) @ t=0.28
0.003996879320894653
% es.Ez (V/m) @ t=0.28
-0.031784812036696586
% es.tEx (V/m) @ t=0.28
0.01574981793778818
% es.tEy (V/m) @ t=0.28
0
% es.tEz (V/m) @ t=0.28
-0.03178481203670014
% V (V) @ t=0.28
0.00720328474777182
% es.normE (V/m) @ t=0.3
0.03602109287006273
% es.EX (V/m) @ t=0.3
0.015892611377308796
% es.EY (V/m) @ t=0.3
0.004033126622105421
% es.EZ (V/m) @ t=0.3
-0.03207300928839674
% es.tEX (V/m) @ t=0.3
0.015892611377299914
% es.tEY (V/m) @ t=0.3
0
% es.tEZ (V/m) @ t=0.3
-0.03207300928840029
% es.Ex (V/m) @ t=0.3
0.015892611377308796
% es.Ey (V/m) @ t=0.3
0.004033126622105421
% es.Ez (V/m) @ t=0.3
-0.03207300928839674
% es.tEx (V/m) @ t=0.3
0.015892611377299914
% es.tEy (V/m) @ t=0.3
0
% es.tEz (V/m) @ t=0.3
-0.03207300928840029
% V (V) @ t=0.3
0.007268594564656406
% es.normE (V/m) @ t=0.32
0.03636069841464592
% es.EX (V/m) @ t=0.32
0.01604238951826087
% es.EY (V/m) @ t=0.32
0.004071192676133872
% es.EZ (V/m) @ t=0.32
-0.03237541533230148
% es.tEX (V/m) @ t=0.32
0.016042389518252875
% es.tEY (V/m) @ t=0.32
0
% es.tEZ (V/m) @ t=0.32
-0.032375415332305035
% es.Ex (V/m) @ t=0.32
0.01604238951826087
% es.Ey (V/m) @ t=0.32
0.004071192676133872
% es.Ez (V/m) @ t=0.32
-0.03237541533230148
% es.tEx (V/m) @ t=0.32
0.016042389518252875
% es.tEy (V/m) @ t=0.32
0
% es.tEz (V/m) @ t=0.32
-0.032375415332305035
% V (V) @ t=0.32
0.007337109272506972
% es.normE (V/m) @ t=0.34
0.03670030395936853
% es.EX (V/m) @ t=0.34
0.01619216765920406
% es.EY (V/m) @ t=0.34
0.0041092587301645445
% es.EZ (V/m) @ t=0.34
-0.03267782137620001
% es.tEX (V/m) @ t=0.34
0.01619216765919962
% es.tEY (V/m) @ t=0.34
0
% es.tEZ (V/m) @ t=0.34
-0.032677821376203564
% es.Ex (V/m) @ t=0.34
0.01619216765920406
% es.Ey (V/m) @ t=0.34
0.0041092587301645445
% es.Ez (V/m) @ t=0.34
-0.03267782137620001
% es.tEx (V/m) @ t=0.34
0.01619216765919962
% es.tEy (V/m) @ t=0.34
0
% es.tEz (V/m) @ t=0.34
-0.032677821376203564
% V (V) @ t=0.34
0.007405623980357538
% es.normE (V/m) @ t=0.36
0.03703990950423812
% es.EX (V/m) @ t=0.36
0.01634194580015702
% es.EY (V/m) @ t=0.36
0.004147324784185447
% es.EZ (V/m) @ t=0.36
-0.03298022742009765
% es.tEX (V/m) @ t=0.36
0.01634194580014814
% es.tEY (V/m) @ t=0.36
0
% es.tEZ (V/m) @ t=0.36
-0.032980227420101205
% es.Ex (V/m) @ t=0.36
0.01634194580015702
% es.Ey (V/m) @ t=0.36
0.004147324784185447
% es.Ez (V/m) @ t=0.36
-0.03298022742009765
% es.tEx (V/m) @ t=0.36
0.01634194580014814
% es.tEy (V/m) @ t=0.36
0
% es.tEz (V/m) @ t=0.36
-0.032980227420101205
% V (V) @ t=0.36
0.007474138688208107
% es.normE (V/m) @ t=0.38
0.03737951504924943
% es.EX (V/m) @ t=0.38
0.016491723941103764
% es.EY (V/m) @ t=0.38
0.004185390838216119
% es.EZ (V/m) @ t=0.38
-0.0332826334639984
% es.tEX (V/m) @ t=0.38
0.016491723941094882
% es.tEY (V/m) @ t=0.38
0
% es.tEZ (V/m) @ t=0.38
-0.033282633464001954
% es.Ex (V/m) @ t=0.38
0.016491723941103764
% es.Ey (V/m) @ t=0.38
0.004185390838216119
% es.Ez (V/m) @ t=0.38
-0.0332826334639984
% es.tEx (V/m) @ t=0.38
0.016491723941094882
% es.tEy (V/m) @ t=0.38
0
% es.tEz (V/m) @ t=0.38
-0.033282633464001954
% V (V) @ t=0.38
0.007542653396058672
% es.normE (V/m) @ t=0.4
0.037719120594393536
% es.EX (V/m) @ t=0.4
0.016641502082051396
% es.EY (V/m) @ t=0.4
0.004223456892242794
% es.EZ (V/m) @ t=0.4
-0.03358503950789471
% es.tEX (V/m) @ t=0.4
0.016641502082042514
% es.tEY (V/m) @ t=0.4
0
% es.tEZ (V/m) @ t=0.4
-0.03358503950789826
% es.Ex (V/m) @ t=0.4
0.016641502082051396
% es.Ey (V/m) @ t=0.4
0.004223456892242794
% es.Ez (V/m) @ t=0.4
-0.03358503950789471
% es.tEx (V/m) @ t=0.4
0.016641502082042514
% es.tEy (V/m) @ t=0.4
0
% es.tEz (V/m) @ t=0.4
-0.03358503950789826
% V (V) @ t=0.4
0.007611168103909239
% es.normE (V/m) @ t=0.42
0.03805872613967479
% es.EX (V/m) @ t=0.42
0.016791280223000804
% es.EY (V/m) @ t=0.42
0.004261522946269913
% es.EZ (V/m) @ t=0.42
-0.03388744555179457
% es.tEX (V/m) @ t=0.42
0.016791280222991922
% es.tEY (V/m) @ t=0.42
0
% es.tEZ (V/m) @ t=0.42
-0.03388744555179812
% es.Ex (V/m) @ t=0.42
0.016791280223000804
% es.Ey (V/m) @ t=0.42
0.004261522946269913
% es.Ez (V/m) @ t=0.42
-0.03388744555179457
% es.tEx (V/m) @ t=0.42
0.016791280222991922
% es.tEy (V/m) @ t=0.42
0
% es.tEz (V/m) @ t=0.42
-0.03388744555179812
% V (V) @ t=0.42
0.007679682811759805
% es.normE (V/m) @ t=0.44
0.03839833168508773
% es.EX (V/m) @ t=0.44
0.016941058363947548
% es.EY (V/m) @ t=0.44
0.004299589000301474
% es.EZ (V/m) @ t=0.44
-0.03418985159569754
% es.tEX (V/m) @ t=0.44
0.016941058363938666
% es.tEY (V/m) @ t=0.44
0
% es.tEZ (V/m) @ t=0.44
-0.03418985159570109
% es.Ex (V/m) @ t=0.44
0.016941058363947548
% es.Ey (V/m) @ t=0.44
0.004299589000301474
% es.Ez (V/m) @ t=0.44
-0.03418985159569754
% es.tEx (V/m) @ t=0.44
0.016941058363938666
% es.tEy (V/m) @ t=0.44
0
% es.tEz (V/m) @ t=0.44
-0.03418985159570109
% V (V) @ t=0.44
0.007748197519610373
% es.normE (V/m) @ t=0.46
0.038770883844321834
% es.EX (V/m) @ t=0.46
0.017105677435433897
% es.EY (V/m) @ t=0.46
0.004341119256582093
% es.EZ (V/m) @ t=0.46
-0.03452147037924247
% es.tEX (V/m) @ t=0.46
0.017105677435425015
% es.tEY (V/m) @ t=0.46
0
% es.tEZ (V/m) @ t=0.46
-0.03452147037924602
% es.Ex (V/m) @ t=0.46
0.017105677435433897
% es.Ey (V/m) @ t=0.46
0.004341119256582093
% es.Ez (V/m) @ t=0.46
-0.03452147037924247
% es.tEx (V/m) @ t=0.46
0.017105677435425015
% es.tEy (V/m) @ t=0.46
0
% es.tEz (V/m) @ t=0.46
-0.03452147037924602
% V (V) @ t=0.46
0.007823431958563947
% es.normE (V/m) @ t=0.48
0.0391541798756326
% es.EX (V/m) @ t=0.48
0.017275136123856782
% es.EY (V/m) @ t=0.48
0.004383779186754921
% es.EZ (V/m) @ t=0.48
-0.03486261541647995
% es.tEX (V/m) @ t=0.48
0.0172751361238479
% es.tEY (V/m) @ t=0.48
0
% es.tEZ (V/m) @ t=0.48
-0.0348626154164835
% es.Ex (V/m) @ t=0.48
0.017275136123856782
% es.Ey (V/m) @ t=0.48
0.004383779186754921
% es.Ez (V/m) @ t=0.48
-0.03486261541647995
% es.tEx (V/m) @ t=0.48
0.0172751361238479
% es.tEy (V/m) @ t=0.48
0
% es.tEz (V/m) @ t=0.48
-0.0348626154164835
% V (V) @ t=0.48
0.007900857697066081
% es.normE (V/m) @ t=0.5
0.039537475912136195
% es.EX (V/m) @ t=0.5
0.017444594812265457
% es.EY (V/m) @ t=0.5
0.00442643911693974
% es.EZ (V/m) @ t=0.5
-0.03520376045371654
% es.tEX (V/m) @ t=0.5
0.017444594812256575
% es.tEY (V/m) @ t=0.5
0
% es.tEZ (V/m) @ t=0.5
-0.03520376045372009
% es.Ex (V/m) @ t=0.5
0.017444594812265457
% es.Ey (V/m) @ t=0.5
0.00442643911693974
% es.Ez (V/m) @ t=0.5
-0.03520376045371654
% es.tEx (V/m) @ t=0.5
0.017444594812256575
% es.tEy (V/m) @ t=0.5
0
% es.tEz (V/m) @ t=0.5
-0.03520376045372009
% V (V) @ t=0.5
0.007978283435568214
% es.normE (V/m) @ t=0.52
0.03992077195368821
% es.EX (V/m) @ t=0.52
0.017614053500683013
% es.EY (V/m) @ t=0.52
0.00446909904712145
% es.EZ (V/m) @ t=0.52
-0.035544905490948686
% es.tEX (V/m) @ t=0.52
0.01761405350067413
% es.tEY (V/m) @ t=0.52
0
% es.tEZ (V/m) @ t=0.52
-0.03554490549095224
% es.Ex (V/m) @ t=0.52
0.017614053500683013
% es.Ey (V/m) @ t=0.52
0.00446909904712145
% es.Ez (V/m) @ t=0.52
-0.035544905490948686
% es.tEx (V/m) @ t=0.52
0.01761405350067413
% es.tEy (V/m) @ t=0.52
0
% es.tEz (V/m) @ t=0.52
-0.03554490549095224
% V (V) @ t=0.52
0.008055709174070348
% es.normE (V/m) @ t=0.54
0.04030406800014984
% es.EX (V/m) @ t=0.54
0.01778351218910057
% es.EY (V/m) @ t=0.54
0.00451175897729339
% es.EZ (V/m) @ t=0.54
-0.035886050528187496
% es.tEX (V/m) @ t=0.54
0.017783512189091688
% es.tEY (V/m) @ t=0.54
0
% es.tEZ (V/m) @ t=0.54
-0.03588605052819105
% es.Ex (V/m) @ t=0.54
0.01778351218910057
% es.Ey (V/m) @ t=0.54
0.00451175897729339
% es.Ez (V/m) @ t=0.54
-0.035886050528187496
% es.tEx (V/m) @ t=0.54
0.017783512189091688
% es.tEy (V/m) @ t=0.54
0
% es.tEz (V/m) @ t=0.54
-0.03588605052819105
% V (V) @ t=0.54
0.008133134912572485
% es.normE (V/m) @ t=0.56
0.04068736405137048
% es.EX (V/m) @ t=0.56
0.017952970877509244
% es.EY (V/m) @ t=0.56
0.004554418907468438
% es.EZ (V/m) @ t=0.56
-0.03622719556542231
% es.tEX (V/m) @ t=0.56
0.017952970877500363
% es.tEY (V/m) @ t=0.56
0
% es.tEZ (V/m) @ t=0.56
-0.03622719556542586
% es.Ex (V/m) @ t=0.56
0.017952970877509244
% es.Ey (V/m) @ t=0.56
0.004554418907468438
% es.Ez (V/m) @ t=0.56
-0.03622719556542231
% es.tEx (V/m) @ t=0.56
0.017952970877500363
% es.tEy (V/m) @ t=0.56
0
% es.tEz (V/m) @ t=0.56
-0.03622719556542586
% V (V) @ t=0.56
0.008210560651074617
% es.normE (V/m) @ t=0.58
0.04107066010722956
% es.EX (V/m) @ t=0.58
0.01812242956593213
% es.EY (V/m) @ t=0.58
0.004597078837652813
% es.EZ (V/m) @ t=0.58
-0.03656834060265535
% es.tEX (V/m) @ t=0.58
0.018122429565919695
% es.tEY (V/m) @ t=0.58
0
% es.tEZ (V/m) @ t=0.58
-0.0365683406026589
% es.Ex (V/m) @ t=0.58
0.01812242956593213
% es.Ey (V/m) @ t=0.58
0.004597078837652813
% es.Ez (V/m) @ t=0.58
-0.03656834060265535
% es.tEx (V/m) @ t=0.58
0.018122429565919695
% es.tEy (V/m) @ t=0.58
0
% es.tEz (V/m) @ t=0.58
-0.0365683406026589
% V (V) @ t=0.58
0.008287986389576752
% es.normE (V/m) @ t=0.6
0.041453956167588096
% es.EX (V/m) @ t=0.6
0.01829188825434347
% es.EY (V/m) @ t=0.6
0.004639738767826085
% es.EZ (V/m) @ t=0.6
-0.03690948563989016
% es.tEX (V/m) @ t=0.6
0.018291888254331035
% es.tEY (V/m) @ t=0.6
0
% es.tEZ (V/m) @ t=0.6
-0.03690948563989371
% es.Ex (V/m) @ t=0.6
0.01829188825434347
% es.Ey (V/m) @ t=0.6
0.004639738767826085
% es.Ez (V/m) @ t=0.6
-0.03690948563989016
% es.tEx (V/m) @ t=0.6
0.018291888254331035
% es.tEy (V/m) @ t=0.6
0
% es.tEz (V/m) @ t=0.6
-0.03690948563989371
% V (V) @ t=0.6
0.008365412128078883
% es.normE (V/m) @ t=0.62
0.041837252232333484
% es.EX (V/m) @ t=0.62
0.01846134694275925
% es.EY (V/m) @ t=0.62
0.004682398698000689
% es.EZ (V/m) @ t=0.62
-0.03725063067712986
% es.tEX (V/m) @ t=0.62
0.018461346942750367
% es.tEY (V/m) @ t=0.62
0
% es.tEZ (V/m) @ t=0.62
-0.037250630677131635
% es.Ex (V/m) @ t=0.62
0.01846134694275925
% es.Ey (V/m) @ t=0.62
0.004682398698000689
% es.Ez (V/m) @ t=0.62
-0.03725063067712986
% es.tEx (V/m) @ t=0.62
0.018461346942750367
% es.tEy (V/m) @ t=0.62
0
% es.tEz (V/m) @ t=0.62
-0.037250630677131635
% V (V) @ t=0.62
0.008442837866581015
% es.normE (V/m) @ t=0.64
0.04222054830133421
% es.EX (V/m) @ t=0.64
0.018630805631171476
% es.EY (V/m) @ t=0.64
0.0047250586281837315
% es.EZ (V/m) @ t=0.64
-0.037591775714363784
% es.tEX (V/m) @ t=0.64
0.018630805631162595
% es.tEY (V/m) @ t=0.64
0
% es.tEZ (V/m) @ t=0.64
-0.03759177571436911
% es.Ex (V/m) @ t=0.64
0.018630805631171476
% es.Ey (V/m) @ t=0.64
0.0047250586281837315
% es.Ez (V/m) @ t=0.64
-0.037591775714363784
% es.tEx (V/m) @ t=0.64
0.018630805631162595
% es.tEy (V/m) @ t=0.64
0
% es.tEz (V/m) @ t=0.64
-0.03759177571436911
% V (V) @ t=0.64
0.00852026360508315
% es.normE (V/m) @ t=0.66
0.04260384437448058
% es.EX (V/m) @ t=0.66
0.01880026431958548
% es.EY (V/m) @ t=0.66
0.004767718558362777
% es.EZ (V/m) @ t=0.66
-0.03793292075159682
% es.tEX (V/m) @ t=0.66
0.0188002643195766
% es.tEY (V/m) @ t=0.66
0
% es.tEZ (V/m) @ t=0.66
-0.03793292075160215
% es.Ex (V/m) @ t=0.66
0.01880026431958548
% es.Ey (V/m) @ t=0.66
0.004767718558362777
% es.Ez (V/m) @ t=0.66
-0.03793292075159682
% es.tEx (V/m) @ t=0.66
0.0188002643195766
% es.tEy (V/m) @ t=0.66
0
% es.tEz (V/m) @ t=0.66
-0.03793292075160215
% V (V) @ t=0.66
0.008597689343585284
% es.normE (V/m) @ t=0.68
0.04298714045166986
% es.EX (V/m) @ t=0.68
0.018969723008008366
% es.EY (V/m) @ t=0.68
0.00481037848854049
% es.EZ (V/m) @ t=0.68
-0.0382740657888343
% es.tEX (V/m) @ t=0.68
0.018969723007999484
% es.tEY (V/m) @ t=0.68
0
% es.tEZ (V/m) @ t=0.68
-0.03827406578883963
% es.Ex (V/m) @ t=0.68
0.018969723008008366
% es.Ey (V/m) @ t=0.68
0.00481037848854049
% es.Ez (V/m) @ t=0.68
-0.0382740657888343
% es.tEx (V/m) @ t=0.68
0.018969723007999484
% es.tEy (V/m) @ t=0.68
0
% es.tEz (V/m) @ t=0.68
-0.03827406578883963
% V (V) @ t=0.68
0.008675115082087417
% es.normE (V/m) @ t=0.7
0.0433704365327747
% es.EX (V/m) @ t=0.7
0.019139181696415264
% es.EY (V/m) @ t=0.7
0.004853038418714206
% es.EZ (V/m) @ t=0.7
-0.038615210826066004
% es.tEX (V/m) @ t=0.7
0.019139181696406382
% es.tEY (V/m) @ t=0.7
0
% es.tEZ (V/m) @ t=0.7
-0.03861521082607133
% es.Ex (V/m) @ t=0.7
0.019139181696415264
% es.Ey (V/m) @ t=0.7
0.004853038418714206
% es.Ez (V/m) @ t=0.7
-0.038615210826066004
% es.tEx (V/m) @ t=0.7
0.019139181696406382
% es.tEy (V/m) @ t=0.7
0
% es.tEz (V/m) @ t=0.7
-0.03861521082607133
% V (V) @ t=0.7
0.00875254082058955
% es.normE (V/m) @ t=0.72
0.04375373261771535
% es.EX (V/m) @ t=0.72
0.01930864038483282
% es.EY (V/m) @ t=0.72
0.00489569834890391
% es.EZ (V/m) @ t=0.72
-0.038956355863302594
% es.tEX (V/m) @ t=0.72
0.01930864038482305
% es.tEY (V/m) @ t=0.72
0
% es.tEZ (V/m) @ t=0.72
-0.03895635586330792
% es.Ex (V/m) @ t=0.72
0.01930864038483282
% es.Ey (V/m) @ t=0.72
0.00489569834890391
% es.Ez (V/m) @ t=0.72
-0.038956355863302594
% es.tEx (V/m) @ t=0.72
0.01930864038482305
% es.tEy (V/m) @ t=0.72
0
% es.tEz (V/m) @ t=0.72
-0.03895635586330792
% V (V) @ t=0.72
0.008829966559091684
% es.normE (V/m) @ t=0.74
0.04413702870637701
% es.EX (V/m) @ t=0.74
0.019478099073246824
% es.EY (V/m) @ t=0.74
0.004938358279076294
% es.EZ (V/m) @ t=0.74
-0.039297500900538296
% es.tEX (V/m) @ t=0.74
0.019478099073240607
% es.tEY (V/m) @ t=0.74
0
% es.tEZ (V/m) @ t=0.74
-0.039297500900543625
% es.Ex (V/m) @ t=0.74
0.019478099073246824
% es.Ey (V/m) @ t=0.74
0.004938358279076294
% es.Ez (V/m) @ t=0.74
-0.039297500900538296
% es.tEx (V/m) @ t=0.74
0.019478099073240607
% es.tEy (V/m) @ t=0.74
0
% es.tEz (V/m) @ t=0.74
-0.039297500900543625
% V (V) @ t=0.74
0.008907392297593818
% es.normE (V/m) @ t=0.76
0.04456175221303452
% es.EX (V/m) @ t=0.76
0.01966498797674099
% es.EY (V/m) @ t=0.76
0.0049862816232999485
% es.EZ (V/m) @ t=0.76
-0.03967587432866049
% es.tEX (V/m) @ t=0.76
0.019664987976732107
% es.tEY (V/m) @ t=0.76
0
% es.tEZ (V/m) @ t=0.76
-0.03967587432866582
% es.Ex (V/m) @ t=0.76
0.01966498797674099
% es.Ey (V/m) @ t=0.76
0.0049862816232999485
% es.Ez (V/m) @ t=0.76
-0.03967587432866049
% es.tEx (V/m) @ t=0.76
0.019664987976732107
% es.tEy (V/m) @ t=0.76
0
% es.tEz (V/m) @ t=0.76
-0.03967587432866582
% V (V) @ t=0.76
0.00899297861859057
% es.normE (V/m) @ t=0.78
0.04498973300351855
% es.EX (V/m) @ t=0.78
0.01985324734757654
% es.EY (V/m) @ t=0.78
0.005034618808457569
% es.EZ (V/m) @ t=0.78
-0.040057174874638335
% es.tEX (V/m) @ t=0.78
0.01985324734756766
% es.tEY (V/m) @ t=0.78
0
% es.tEZ (V/m) @ t=0.78
-0.04005717487464189
% es.Ex (V/m) @ t=0.78
0.01985324734757654
% es.Ey (V/m) @ t=0.78
0.005034618808457569
% es.Ez (V/m) @ t=0.78
-0.040057174874638335
% es.tEx (V/m) @ t=0.78
0.01985324734756766
% es.tEy (V/m) @ t=0.78
0
% es.tEz (V/m) @ t=0.78
-0.04005717487464189
% V (V) @ t=0.78
0.009079206573194082
% es.normE (V/m) @ t=0.8
0.04541771380772714
% es.EX (V/m) @ t=0.8
0.02004150671840499
% es.EY (V/m) @ t=0.8
0.005082955993618743
% es.EZ (V/m) @ t=0.8
-0.04043847542061485
% es.tEX (V/m) @ t=0.8
0.020041506718396107
% es.tEY (V/m) @ t=0.8
0
% es.tEZ (V/m) @ t=0.8
-0.0404384754206184
% es.Ex (V/m) @ t=0.8
0.02004150671840499
% es.Ey (V/m) @ t=0.8
0.005082955993618743
% es.Ez (V/m) @ t=0.8
-0.04043847542061485
% es.tEx (V/m) @ t=0.8
0.020041506718396107
% es.tEy (V/m) @ t=0.8
0
% es.tEz (V/m) @ t=0.8
-0.0404384754206184
% V (V) @ t=0.8
0.009165434527797599
% es.normE (V/m) @ t=0.82
0.04584569462528724
% es.EX (V/m) @ t=0.82
0.020229766089247647
% es.EY (V/m) @ t=0.82
0.005131293178787466
% es.EZ (V/m) @ t=0.82
-0.04081977596659181
% es.tEX (V/m) @ t=0.82
0.02022976608923166
% es.tEY (V/m) @ t=0.82
0
% es.tEZ (V/m) @ t=0.82
-0.04081977596659536
% es.Ex (V/m) @ t=0.82
0.020229766089247647
% es.Ey (V/m) @ t=0.82
0.005131293178787466
% es.Ez (V/m) @ t=0.82
-0.04081977596659181
% es.tEx (V/m) @ t=0.82
0.02022976608923166
% es.tEy (V/m) @ t=0.82
0
% es.tEz (V/m) @ t=0.82
-0.04081977596659536
% V (V) @ t=0.82
0.009251662482401113
% es.normE (V/m) @ t=0.84
0.046273675455815844
% es.EX (V/m) @ t=0.84
0.020418025460079647
% es.EY (V/m) @ t=0.84
0.005179630363961962
% es.EZ (V/m) @ t=0.84
-0.041201076512567436
% es.tEX (V/m) @ t=0.84
0.02041802546006366
% es.tEY (V/m) @ t=0.84
0
% es.tEZ (V/m) @ t=0.84
-0.04120107651257099
% es.Ex (V/m) @ t=0.84
0.020418025460079647
% es.Ey (V/m) @ t=0.84
0.005179630363961962
% es.Ez (V/m) @ t=0.84
-0.041201076512567436
% es.tEx (V/m) @ t=0.84
0.02041802546006366
% es.tEy (V/m) @ t=0.84
0
% es.tEz (V/m) @ t=0.84
-0.04120107651257099
% V (V) @ t=0.84
0.00933789043700463
% es.normE (V/m) @ t=0.86
0.046701656298958324
% es.EX (V/m) @ t=0.86
0.020606284830904542
% es.EY (V/m) @ t=0.86
0.005227967549128909
% es.EZ (V/m) @ t=0.86
-0.04158237705854395
% es.tEX (V/m) @ t=0.86
0.02060628483089566
% es.tEY (V/m) @ t=0.86
0
% es.tEZ (V/m) @ t=0.86
-0.041582377058547504
% es.Ex (V/m) @ t=0.86
0.020606284830904542
% es.Ey (V/m) @ t=0.86
0.005227967549128909
% es.Ez (V/m) @ t=0.86
-0.04158237705854395
% es.tEx (V/m) @ t=0.86
0.02060628483089566
% es.tEy (V/m) @ t=0.86
0
% es.tEz (V/m) @ t=0.86
-0.041582377058547504
% V (V) @ t=0.86
0.009424118391608142
% es.normE (V/m) @ t=0.88
0.04712963715437527
% es.EX (V/m) @ t=0.88
0.020794544201734766
% es.EY (V/m) @ t=0.88
0.005276304734295412
% es.EZ (V/m) @ t=0.88
-0.041963677604519134
% es.tEX (V/m) @ t=0.88
0.020794544201729437
% es.tEY (V/m) @ t=0.88
0
% es.tEZ (V/m) @ t=0.88
-0.04196367760452446
% es.Ex (V/m) @ t=0.88
0.020794544201734766
% es.Ey (V/m) @ t=0.88
0.005276304734295412
% es.Ez (V/m) @ t=0.88
-0.041963677604519134
% es.tEx (V/m) @ t=0.88
0.020794544201729437
% es.tEy (V/m) @ t=0.88
0
% es.tEz (V/m) @ t=0.88
-0.04196367760452446
% V (V) @ t=0.88
0.009510346346211658
% es.normE (V/m) @ t=0.9
0.04755761802174194
% es.EX (V/m) @ t=0.9
0.02098280357257387
% es.EY (V/m) @ t=0.9
0.00532464191947124
% es.EZ (V/m) @ t=0.9
-0.042344978150497425
% es.tEX (V/m) @ t=0.9
0.020982803572568542
% es.tEY (V/m) @ t=0.9
0
% es.tEZ (V/m) @ t=0.9
-0.042344978150502754
% es.Ex (V/m) @ t=0.9
0.02098280357257387
% es.Ey (V/m) @ t=0.9
0.00532464191947124
% es.Ez (V/m) @ t=0.9
-0.042344978150497425
% es.tEx (V/m) @ t=0.9
0.020982803572568542
% es.tEy (V/m) @ t=0.9
0
% es.tEz (V/m) @ t=0.9
-0.042344978150502754
% V (V) @ t=0.9
0.009596574300815175
% es.normE (V/m) @ t=0.92
0.04798559890072516
% es.EX (V/m) @ t=0.92
0.021171062943407648
% es.EY (V/m) @ t=0.92
0.005372979104643516
% es.EZ (V/m) @ t=0.92
-0.042726278696472164
% es.tEX (V/m) @ t=0.92
0.02117106294339699
% es.tEY (V/m) @ t=0.92
0
% es.tEZ (V/m) @ t=0.92
-0.04272627869647749
% es.Ex (V/m) @ t=0.92
0.021171062943407648
% es.Ey (V/m) @ t=0.92
0.005372979104643516
% es.Ez (V/m) @ t=0.92
-0.042726278696472164
% es.tEx (V/m) @ t=0.92
0.02117106294339699
% es.tEy (V/m) @ t=0.92
0
% es.tEz (V/m) @ t=0.92
-0.04272627869647749
% V (V) @ t=0.92
0.009682802255418689
% es.normE (V/m) @ t=0.94
0.04841357979102777
% es.EX (V/m) @ t=0.94
0.021359322314246754
% es.EY (V/m) @ t=0.94
0.005421316289798472
% es.EZ (V/m) @ t=0.94
-0.04310757924245223
% es.tEX (V/m) @ t=0.94
0.02135932231423432
% es.tEY (V/m) @ t=0.94
0
% es.tEZ (V/m) @ t=0.94
-0.04310757924245756
% es.Ex (V/m) @ t=0.94
0.021359322314246754
% es.Ey (V/m) @ t=0.94
0.005421316289798472
% es.Ez (V/m) @ t=0.94
-0.04310757924245223
% es.tEx (V/m) @ t=0.94
0.02135932231423432
% es.tEy (V/m) @ t=0.94
0
% es.tEz (V/m) @ t=0.94
-0.04310757924245756
% V (V) @ t=0.94
0.009769030210022202
% es.normE (V/m) @ t=0.96
0.04884156069233766
% es.EX (V/m) @ t=0.96
0.02154758168507165
% es.EY (V/m) @ t=0.96
0.005469653474973857
% es.EZ (V/m) @ t=0.96
-0.04348887978842608
% es.tEX (V/m) @ t=0.96
0.021547581685059214
% es.tEY (V/m) @ t=0.96
0
% es.tEZ (V/m) @ t=0.96
-0.04348887978843141
% es.Ex (V/m) @ t=0.96
0.02154758168507165
% es.Ey (V/m) @ t=0.96
0.005469653474973857
% es.Ez (V/m) @ t=0.96
-0.04348887978842608
% es.tEx (V/m) @ t=0.96
0.021547581685059214
% es.tEy (V/m) @ t=0.96
0
% es.tEz (V/m) @ t=0.96
-0.04348887978843141
% V (V) @ t=0.96
0.009855258164625718
% es.normE (V/m) @ t=0.98
0.0492695416043806
% es.EX (V/m) @ t=0.98
0.021735841055901872
% es.EY (V/m) @ t=0.98
0.005517990660136807
% es.EZ (V/m) @ t=0.98
-0.0438701803344026
% es.tEX (V/m) @ t=0.98
0.021735841055889438
% es.tEY (V/m) @ t=0.98
0
% es.tEZ (V/m) @ t=0.98
-0.04387018033440793
% es.Ex (V/m) @ t=0.98
0.021735841055901872
% es.Ey (V/m) @ t=0.98
0.005517990660136807
% es.Ez (V/m) @ t=0.98
-0.0438701803344026
% es.tEx (V/m) @ t=0.98
0.021735841055889438
% es.tEy (V/m) @ t=0.98
0
% es.tEz (V/m) @ t=0.98
-0.04387018033440793
% V (V) @ t=0.98
0.009941486119229235
% es.normE (V/m) @ t=1
0.049697522526882865
% es.EX (V/m) @ t=1
0.02192410042674453
% es.EY (V/m) @ t=1
0.005566327845297536
% es.EZ (V/m) @ t=1
-0.04425148088038089
% es.tEX (V/m) @ t=1
0.021924100426733872
% es.tEY (V/m) @ t=1
0
% es.tEZ (V/m) @ t=1
-0.04425148088038622
% es.Ex (V/m) @ t=1
0.02192410042674453
% es.Ey (V/m) @ t=1
0.005566327845297536
% es.Ez (V/m) @ t=1
-0.04425148088038089
% es.tEx (V/m) @ t=1