% Model:              1 neuron.mph
% Version:            COMSOL 6.1.0.252
% Date:               Mar 26 2023, 14:28
% Dimension:          0
% Nodes:              14017
% Expressions:        14017
% Description:        Electric field norm, Electric field, X component, Electric field, Y component, Electric field, Z component, Tangential electric field, X component, Tangential electric field, Y component, Tangential electric field, Z component, Electric field, x component, Electric field, y component, Electric field, z component, Tangential electric field, x component, Tangential electric field, y component, Tangential electric field, z component, Electric potential
% Length unit:        mm
% x
1.0000000000000002
% y
14.200000000000001
% z
2
% es.normE (V/m) @ t=0
0.038161824687140175
% es.EX (V/m) @ t=0
0.027095667031731496
% es.EY (V/m) @ t=0
-0.003930694158336356
% es.EZ (V/m) @ t=0
-0.026583817163665202
% es.tEX (V/m) @ t=0
0.02709566703173083
% es.tEY (V/m) @ t=0
0
% es.tEZ (V/m) @ t=0
-0.02658381716366831
% es.Ex (V/m) @ t=0
0.027095667031731496
% es.Ey (V/m) @ t=0
-0.003930694158336356
% es.Ez (V/m) @ t=0
-0.026583817163665202
% es.tEx (V/m) @ t=0
0.02709566703173083
% es.tEy (V/m) @ t=0
0
% es.tEz (V/m) @ t=0
-0.02658381716366831
% V (V) @ t=0
0.007196955142742423
% es.normE (V/m) @ t=0.02
0.03494823769495901
% es.EX (V/m) @ t=0.02
0.024813955366015217
% es.EY (V/m) @ t=0.02
-0.003599692485096284
% es.EZ (V/m) @ t=0.02
-0.02434520796973194
% es.tEX (V/m) @ t=0.02
0.024813955366014273
% es.tEY (V/m) @ t=0.02
0
% es.tEZ (V/m) @ t=0.02
-0.024345207969735494
% es.Ex (V/m) @ t=0.02
0.024813955366015217
% es.Ey (V/m) @ t=0.02
-0.003599692485096284
% es.Ez (V/m) @ t=0.02
-0.02434520796973194
% es.tEx (V/m) @ t=0.02
0.024813955366014273
% es.tEy (V/m) @ t=0.02
0
% es.tEz (V/m) @ t=0.02
-0.024345207969735494
% V (V) @ t=0.02
0.006590903423927183
% es.normE (V/m) @ t=0.04
0.03526891005783679
% es.EX (V/m) @ t=0.04
0.025041639319227704
% es.EY (V/m) @ t=0.04
-0.0036327219734302307
% es.EZ (V/m) @ t=0.04
-0.02456859067869477
% es.tEX (V/m) @ t=0.04
0.02504163931922676
% es.tEY (V/m) @ t=0.04
0
% es.tEZ (V/m) @ t=0.04
-0.02456859067869921
% es.Ex (V/m) @ t=0.04
0.025041639319227704
% es.Ey (V/m) @ t=0.04
-0.0036327219734302307
% es.Ez (V/m) @ t=0.04
-0.02456859067869477
% es.tEx (V/m) @ t=0.04
0.02504163931922676
% es.tEy (V/m) @ t=0.04
0
% es.tEz (V/m) @ t=0.04
-0.02456859067869921
% V (V) @ t=0.04
0.006651379260549071
% es.normE (V/m) @ t=0.06
0.035593493688424474
% es.EX (V/m) @ t=0.06
0.02527210051772749
% es.EY (V/m) @ t=0.06
-0.0036661542626963417
% es.EZ (V/m) @ t=0.06
-0.024794697846352243
% es.tEX (V/m) @ t=0.06
0.025272100517727658
% es.tEY (V/m) @ t=0.06
0
% es.tEZ (V/m) @ t=0.06
-0.024794697846354907
% es.Ex (V/m) @ t=0.06
0.02527210051772749
% es.Ey (V/m) @ t=0.06
-0.0036661542626963417
% es.Ez (V/m) @ t=0.06
-0.024794697846352243
% es.tEx (V/m) @ t=0.06
0.025272100517727658
% es.tEy (V/m) @ t=0.06
0
% es.tEz (V/m) @ t=0.06
-0.024794697846354907
% V (V) @ t=0.06
0.006712592801435605
% es.normE (V/m) @ t=0.08
0.03592064153868156
% es.EX (V/m) @ t=0.08
0.025504382631827804
% es.EY (V/m) @ t=0.08
-0.0036998506297567513
% es.EZ (V/m) @ t=0.08
-0.02502259100167814
% es.tEX (V/m) @ t=0.08
0.025504382631827305
% es.tEY (V/m) @ t=0.08
0
% es.tEZ (V/m) @ t=0.08
-0.025022591001678585
% es.Ex (V/m) @ t=0.08
0.025504382631827804
% es.Ey (V/m) @ t=0.08
-0.0036998506297567513
% es.Ez (V/m) @ t=0.08
-0.02502259100167814
% es.tEx (V/m) @ t=0.08
0.025504382631827305
% es.tEy (V/m) @ t=0.08
0
% es.tEz (V/m) @ t=0.08
-0.025022591001678585
% V (V) @ t=0.08
0.006774290120807836
% es.normE (V/m) @ t=0.1
0.03625454921400513
% es.EX (V/m) @ t=0.1
0.025741465064361313
% es.EY (V/m) @ t=0.1
-0.003734243161637618
% es.EZ (V/m) @ t=0.1
-0.02525519239801488
% es.tEX (V/m) @ t=0.1
0.02574146506436037
% es.tEY (V/m) @ t=0.1
0
% es.tEZ (V/m) @ t=0.1
-0.025255192398017545
% es.Ex (V/m) @ t=0.1
0.025741465064361313
% es.Ey (V/m) @ t=0.1
-0.003734243161637618
% es.Ez (V/m) @ t=0.1
-0.02525519239801488
% es.tEx (V/m) @ t=0.1
0.02574146506436037
% es.tEy (V/m) @ t=0.1
0
% es.tEz (V/m) @ t=0.1
-0.025255192398017545
% V (V) @ t=0.1
0.006837262782532978
% es.normE (V/m) @ t=0.12
0.036588456889325396
% es.EX (V/m) @ t=0.12
0.025978547496892213
% es.EY (V/m) @ t=0.12
-0.0037686356935155985
% es.EZ (V/m) @ t=0.12
-0.025487793794349844
% es.tEX (V/m) @ t=0.12
0.025978547496891657
% es.tEY (V/m) @ t=0.12
0
% es.tEZ (V/m) @ t=0.12
-0.025487793794352953
% es.Ex (V/m) @ t=0.12
0.025978547496892213
% es.Ey (V/m) @ t=0.12
-0.0037686356935155985
% es.Ez (V/m) @ t=0.12
-0.025487793794349844
% es.tEx (V/m) @ t=0.12
0.025978547496891657
% es.tEy (V/m) @ t=0.12
0
% es.tEz (V/m) @ t=0.12
-0.025487793794352953
% V (V) @ t=0.12
0.006900235444258119
% es.normE (V/m) @ t=0.14
0.0369223645646505
% es.EX (V/m) @ t=0.14
0.02621562992942572
% es.EY (V/m) @ t=0.14
-0.003803028225403793
% es.EZ (V/m) @ t=0.14
-0.025720395190687473
% es.tEX (V/m) @ t=0.14
0.026215629929424278
% es.tEY (V/m) @ t=0.14
0
% es.tEZ (V/m) @ t=0.14
-0.025720395190692358
% es.Ex (V/m) @ t=0.14
0.02621562992942572
% es.Ey (V/m) @ t=0.14
-0.003803028225403793
% es.Ez (V/m) @ t=0.14
-0.025720395190687473
% es.tEx (V/m) @ t=0.14
0.026215629929424278
% es.tEy (V/m) @ t=0.14
0
% es.tEz (V/m) @ t=0.14
-0.025720395190692358
% V (V) @ t=0.14
0.00696320810598326
% es.normE (V/m) @ t=0.16
0.037267307682195924
% es.EX (V/m) @ t=0.16
0.02646055280435322
% es.EY (V/m) @ t=0.16
-0.0038385566903829105
% es.EZ (V/m) @ t=0.16
-0.025960678914508595
% es.tEX (V/m) @ t=0.16
0.026460552804352666
% es.tEY (V/m) @ t=0.16
0
% es.tEZ (V/m) @ t=0.16
-0.02596067891451037
% es.Ex (V/m) @ t=0.16
0.02646055280435322
% es.Ey (V/m) @ t=0.16
-0.0038385566903829105
% es.Ez (V/m) @ t=0.16
-0.025960678914508595
% es.tEx (V/m) @ t=0.16
0.026460552804352666
% es.tEy (V/m) @ t=0.16
0
% es.tEz (V/m) @ t=0.16
-0.02596067891451037
% V (V) @ t=0.16
0.007028265554074365
% es.normE (V/m) @ t=0.18
0.03762108215674662
% es.EX (V/m) @ t=0.18
0.026711750166923398
% es.EY (V/m) @ t=0.18
-0.0038749942109577162
% es.EZ (V/m) @ t=0.18
-0.026207110591013105
% es.tEX (V/m) @ t=0.18
0.026711750166922066
% es.tEY (V/m) @ t=0.18
0
% es.tEZ (V/m) @ t=0.18
-0.026207110591016214
% es.Ex (V/m) @ t=0.18
0.026711750166923398
% es.Ey (V/m) @ t=0.18
-0.0038749942109577162
% es.Ez (V/m) @ t=0.18
-0.026207110591013105
% es.tEx (V/m) @ t=0.18
0.026711750166922066
% es.tEy (V/m) @ t=0.18
0
% es.tEz (V/m) @ t=0.18
-0.026207110591016214
% V (V) @ t=0.18
0.00709499139861844
% es.normE (V/m) @ t=0.2
0.037974856631306834
% es.EX (V/m) @ t=0.2
0.026962947529493575
% es.EY (V/m) @ t=0.2
-0.003911431731547399
% es.EZ (V/m) @ t=0.2
-0.02645354226752117
% es.tEX (V/m) @ t=0.2
0.02696294752949191
% es.tEY (V/m) @ t=0.2
0
% es.tEZ (V/m) @ t=0.2
-0.02645354226752472
% es.Ex (V/m) @ t=0.2
0.026962947529493575
% es.Ey (V/m) @ t=0.2
-0.003911431731547399
% es.Ez (V/m) @ t=0.2
-0.02645354226752117
% es.tEx (V/m) @ t=0.2
0.02696294752949191
% es.tEy (V/m) @ t=0.2
0
% es.tEz (V/m) @ t=0.2
-0.02645354226752472
% V (V) @ t=0.2
0.007161717243162514
% es.normE (V/m) @ t=0.22
0.03832863110586827
% es.EX (V/m) @ t=0.22
0.027214144892063752
% es.EY (V/m) @ t=0.22
-0.003947869252133085
% es.EZ (V/m) @ t=0.22
-0.026699973944023903
% es.tEX (V/m) @ t=0.22
0.02721414489206353
% es.tEY (V/m) @ t=0.22
0
% es.tEZ (V/m) @ t=0.22
-0.026699973944027455
% es.Ex (V/m) @ t=0.22
0.027214144892063752
% es.Ey (V/m) @ t=0.22
-0.003947869252133085
% es.Ez (V/m) @ t=0.22
-0.026699973944023903
% es.tEx (V/m) @ t=0.22
0.02721414489206353
% es.tEy (V/m) @ t=0.22
0
% es.tEz (V/m) @ t=0.22
-0.026699973944027455
% V (V) @ t=0.22
0.007228443087706588
% es.normE (V/m) @ t=0.24
0.038682405580434974
% es.EX (V/m) @ t=0.24
0.02746534225463304
% es.EY (V/m) @ t=0.24
-0.003984306772707447
% es.EZ (V/m) @ t=0.24
-0.0269464056205293
% es.tEX (V/m) @ t=0.24
0.02746534225463204
% es.tEY (V/m) @ t=0.24
0
% es.tEZ (V/m) @ t=0.24
-0.026946405620532854
% es.Ex (V/m) @ t=0.24
0.02746534225463304
% es.Ey (V/m) @ t=0.24
-0.003984306772707447
% es.Ez (V/m) @ t=0.24
-0.0269464056205293
% es.tEx (V/m) @ t=0.24
0.02746534225463204
% es.tEy (V/m) @ t=0.24
0
% es.tEz (V/m) @ t=0.24
-0.026946405620532854
% V (V) @ t=0.24
0.007295168932250662
% es.normE (V/m) @ t=0.26
0.03903618005501082
% es.EX (V/m) @ t=0.26
0.027716539617204106
% es.EY (V/m) @ t=0.26
-0.004020744293297129
% es.EZ (V/m) @ t=0.26
-0.027192837297036476
% es.tEX (V/m) @ t=0.26
0.027716539617201885
% es.tEY (V/m) @ t=0.26
0
% es.tEZ (V/m) @ t=0.26
-0.02719283729704136
% es.Ex (V/m) @ t=0.26
0.027716539617204106
% es.Ey (V/m) @ t=0.26
-0.004020744293297129
% es.Ez (V/m) @ t=0.26
-0.027192837297036476
% es.tEx (V/m) @ t=0.26
0.027716539617201885
% es.tEy (V/m) @ t=0.26
0
% es.tEz (V/m) @ t=0.26
-0.02719283729704136
% V (V) @ t=0.26
0.007361894776794736
% es.normE (V/m) @ t=0.28
0.0393899545295867
% es.EX (V/m) @ t=0.28
0.027967736979771562
% es.EY (V/m) @ t=0.28
-0.004057181813879263
% es.EZ (V/m) @ t=0.28
-0.02743926897354143
% es.tEX (V/m) @ t=0.28
0.02796773697977084
% es.tEY (V/m) @ t=0.28
0
% es.tEZ (V/m) @ t=0.28
-0.027439268973544095
% es.Ex (V/m) @ t=0.28
0.027967736979771562
% es.Ey (V/m) @ t=0.28
-0.004057181813879263
% es.Ez (V/m) @ t=0.28
-0.02743926897354143
% es.tEx (V/m) @ t=0.28
0.02796773697977084
% es.tEy (V/m) @ t=0.28
0
% es.tEz (V/m) @ t=0.28
-0.027439268973544095
% V (V) @ t=0.28
0.007428620621338812
% es.normE (V/m) @ t=0.3
0.03974619407475183
% es.EX (V/m) @ t=0.3
0.02822068171650427
% es.EY (V/m) @ t=0.3
-0.004093873656008551
% es.EZ (V/m) @ t=0.3
-0.02768742070638286
% es.tEX (V/m) @ t=0.3
0.028220681716502938
% es.tEY (V/m) @ t=0.3
0
% es.tEZ (V/m) @ t=0.3
-0.027687420706385968
% es.Ex (V/m) @ t=0.3
0.02822068171650427
% es.Ey (V/m) @ t=0.3
-0.004093873656008551
% es.Ez (V/m) @ t=0.3
-0.02768742070638286
% es.tEx (V/m) @ t=0.3
0.028220681716502938
% es.tEy (V/m) @ t=0.3
0
% es.tEz (V/m) @ t=0.3
-0.027687420706385968
% V (V) @ t=0.3
0.007495809307892674
% es.normE (V/m) @ t=0.32
0.040121147643321683
% es.EX (V/m) @ t=0.32
0.02848689195613774
% es.EY (V/m) @ t=0.32
-0.004132496225540905
% es.EZ (V/m) @ t=0.32
-0.027948630553972453
% es.tEX (V/m) @ t=0.32
0.028486891956136073
% es.tEY (V/m) @ t=0.32
0
% es.tEZ (V/m) @ t=0.32
-0.02794863055397645
% es.Ex (V/m) @ t=0.32
0.02848689195613774
% es.Ey (V/m) @ t=0.32
-0.004132496225540905
% es.Ez (V/m) @ t=0.32
-0.027948630553972453
% es.tEx (V/m) @ t=0.32
0.028486891956136073
% es.tEy (V/m) @ t=0.32
0
% es.tEz (V/m) @ t=0.32
-0.02794863055397645
% V (V) @ t=0.32
0.007566511742197638
% es.normE (V/m) @ t=0.34
0.04049610121190284
% es.EX (V/m) @ t=0.34
0.02875310219577032
% es.EY (V/m) @ t=0.34
-0.004171118795076367
% es.EZ (V/m) @ t=0.34
-0.02820984040156249
% es.tEX (V/m) @ t=0.34
0.028753102195769653
% es.tEY (V/m) @ t=0.34
0
% es.tEZ (V/m) @ t=0.34
-0.028209840401569153
% es.Ex (V/m) @ t=0.34
0.02875310219577032
% es.Ey (V/m) @ t=0.34
-0.004171118795076367
% es.Ez (V/m) @ t=0.34
-0.02820984040156249
% es.tEx (V/m) @ t=0.34
0.028753102195769653
% es.tEy (V/m) @ t=0.34
0
% es.tEz (V/m) @ t=0.34
-0.028209840401569153
% V (V) @ t=0.34
0.0076372141765026
% es.normE (V/m) @ t=0.36
0.040871054780497545
% es.EX (V/m) @ t=0.36
0.029019312435405675
% es.EY (V/m) @ t=0.36
-0.0042097413646056125
% es.EZ (V/m) @ t=0.36
-0.028471050249154306
% es.tEX (V/m) @ t=0.36
0.029019312435404565
% es.tEY (V/m) @ t=0.36
0
% es.tEZ (V/m) @ t=0.36
-0.028471050249158303
% es.Ex (V/m) @ t=0.36
0.029019312435405675
% es.Ey (V/m) @ t=0.36
-0.0042097413646056125
% es.Ez (V/m) @ t=0.36
-0.028471050249154306
% es.tEx (V/m) @ t=0.36
0.029019312435404565
% es.tEy (V/m) @ t=0.36
0
% es.tEz (V/m) @ t=0.36
-0.028471050249158303
% V (V) @ t=0.36
0.007707916610807565
% es.normE (V/m) @ t=0.38
0.041246008349103074
% es.EX (V/m) @ t=0.38
0.029285522675040976
% es.EY (V/m) @ t=0.38
-0.004248363934145516
% es.EZ (V/m) @ t=0.38
-0.02873226009674479
% es.tEX (V/m) @ t=0.38
0.029285522675039033
% es.tEY (V/m) @ t=0.38
0
% es.tEZ (V/m) @ t=0.38
-0.02873226009674834
% es.Ex (V/m) @ t=0.38
0.029285522675040976
% es.Ey (V/m) @ t=0.38
-0.004248363934145516
% es.Ez (V/m) @ t=0.38
-0.02873226009674479
% es.tEx (V/m) @ t=0.38
0.029285522675039033
% es.tEy (V/m) @ t=0.38
0
% es.tEz (V/m) @ t=0.38
-0.02873226009674834
% V (V) @ t=0.38
0.007778619045112528
% es.normE (V/m) @ t=0.4
0.04162096191771644
% es.EX (V/m) @ t=0.4
0.029551732914671724
% es.EY (V/m) @ t=0.4
-0.004286986503676982
% es.EZ (V/m) @ t=0.4
-0.02899346994433749
% es.tEX (V/m) @ t=0.4
0.02955173291467128
% es.tEY (V/m) @ t=0.4
0
% es.tEZ (V/m) @ t=0.4
-0.028993469944340156
% es.Ex (V/m) @ t=0.4
0.029551732914671724
% es.Ey (V/m) @ t=0.4
-0.004286986503676982
% es.Ez (V/m) @ t=0.4
-0.02899346994433749
% es.tEx (V/m) @ t=0.4
0.02955173291467128
% es.tEy (V/m) @ t=0.4
0
% es.tEz (V/m) @ t=0.4
-0.028993469944340156
% V (V) @ t=0.4
0.007849321479417491
% es.normE (V/m) @ t=0.42
0.041995915486342655
% es.EX (V/m) @ t=0.42
0.029817943154307913
% es.EY (V/m) @ t=0.42
-0.004325609073212444
% es.EZ (V/m) @ t=0.42
-0.029254679791927973
% es.tEX (V/m) @ t=0.42
0.02981794315430708
% es.tEY (V/m) @ t=0.42
0
% es.tEZ (V/m) @ t=0.42
-0.029254679791930194
% es.Ex (V/m) @ t=0.42
0.029817943154307913
% es.Ey (V/m) @ t=0.42
-0.004325609073212444
% es.Ez (V/m) @ t=0.42
-0.029254679791927973
% es.tEx (V/m) @ t=0.42
0.02981794315430708
% es.tEy (V/m) @ t=0.42
0
% es.tEz (V/m) @ t=0.42
-0.029254679791930194
% V (V) @ t=0.42
0.007920023913722455
% es.normE (V/m) @ t=0.44
0.04237086905497591
% es.EX (V/m) @ t=0.44
0.03008415339394227
% es.EY (V/m) @ t=0.44
-0.004364231642745242
% es.EZ (V/m) @ t=0.44
-0.02951588963951668
% es.tEX (V/m) @ t=0.44
0.030084153393941104
% es.tEY (V/m) @ t=0.44
0
% es.tEZ (V/m) @ t=0.44
-0.029515889639522896
% es.Ex (V/m) @ t=0.44
0.03008415339394227
% es.Ey (V/m) @ t=0.44
-0.004364231642745242
% es.Ez (V/m) @ t=0.44
-0.02951588963951668
% es.tEx (V/m) @ t=0.44
0.030084153393941104
% es.tEy (V/m) @ t=0.44
0
% es.tEz (V/m) @ t=0.44
-0.029515889639522896
% V (V) @ t=0.44
0.007990726348027418
% es.normE (V/m) @ t=0.46
0.04277865380386054
% es.EX (V/m) @ t=0.46
0.03037367428447768
% es.EY (V/m) @ t=0.46
-0.004406235894570898
% es.EZ (V/m) @ t=0.46
-0.029799970083414618
% es.tEX (V/m) @ t=0.46
0.03037367428447757
% es.tEY (V/m) @ t=0.46
0
% es.tEZ (V/m) @ t=0.46
-0.029799970083423943
% es.Ex (V/m) @ t=0.46
0.03037367428447768
% es.Ey (V/m) @ t=0.46
-0.004406235894570898
% es.Ez (V/m) @ t=0.46
-0.029799970083414618
% es.tEx (V/m) @ t=0.46
0.03037367428447757
% es.tEy (V/m) @ t=0.46
0
% es.tEz (V/m) @ t=0.46
-0.029799970083423943
% V (V) @ t=0.46
0.008067620350505247
% es.normE (V/m) @ t=0.48
0.043202080143475347
% es.EX (V/m) @ t=0.48
0.03067430094879603
% es.EY (V/m) @ t=0.48
-0.004449851263922611
% es.EZ (V/m) @ t=0.48
-0.030094946648148824
% es.tEX (V/m) @ t=0.48
0.03067430094879464
% es.tEY (V/m) @ t=0.48
0
% es.tEZ (V/m) @ t=0.48
-0.03009494664815282
% es.Ex (V/m) @ t=0.48
0.03067430094879603
% es.Ey (V/m) @ t=0.48
-0.004449851263922611
% es.Ez (V/m) @ t=0.48
-0.030094946648148824
% es.tEx (V/m) @ t=0.48
0.03067430094879464
% es.tEy (V/m) @ t=0.48
0
% es.tEz (V/m) @ t=0.48
-0.03009494664815282
% V (V) @ t=0.48
0.008147464170034327
% es.normE (V/m) @ t=0.5
0.043625506483097015
% es.EX (V/m) @ t=0.5
0.030974927613112546
% es.EY (V/m) @ t=0.5
-0.00449346663327832
% es.EZ (V/m) @ t=0.5
-0.03038992321288081
% es.tEX (V/m) @ t=0.5
0.030974927613110825
% es.tEY (V/m) @ t=0.5
0
% es.tEZ (V/m) @ t=0.5
-0.030389923212882586
% es.Ex (V/m) @ t=0.5
0.030974927613112546
% es.Ey (V/m) @ t=0.5
-0.00449346663327832
% es.Ez (V/m) @ t=0.5
-0.03038992321288081
% es.tEx (V/m) @ t=0.5
0.030974927613110825
% es.tEy (V/m) @ t=0.5
0
% es.tEz (V/m) @ t=0.5
-0.030389923212882586
% V (V) @ t=0.5
0.00822730798956341
% es.normE (V/m) @ t=0.52
0.04404893282272666
% es.EX (V/m) @ t=0.52
0.031275554277430895
% es.EY (V/m) @ t=0.52
-0.004537082002641135
% es.EZ (V/m) @ t=0.52
-0.030684899777608354
% es.tEX (V/m) @ t=0.52
0.03127555427743056
% es.tEY (V/m) @ t=0.52
0
% es.tEZ (V/m) @ t=0.52
-0.030684899777610575
% es.Ex (V/m) @ t=0.52
0.031275554277430895
% es.Ey (V/m) @ t=0.52
-0.004537082002641135
% es.Ez (V/m) @ t=0.52
-0.030684899777608354
% es.tEx (V/m) @ t=0.52
0.03127555427743056
% es.tEy (V/m) @ t=0.52
0
% es.tEz (V/m) @ t=0.52
-0.030684899777610575
% V (V) @ t=0.52
0.008307151809092493
% es.normE (V/m) @ t=0.54
0.044472359162366845
% es.EX (V/m) @ t=0.54
0.03157618094175002
% es.EY (V/m) @ t=0.54
-0.004580697371988851
% es.EZ (V/m) @ t=0.54
-0.030979876342339896
% es.tEX (V/m) @ t=0.54
0.03157618094174852
% es.tEY (V/m) @ t=0.54
0
% es.tEZ (V/m) @ t=0.54
-0.030979876342342116
% es.Ex (V/m) @ t=0.54
0.03157618094175002
% es.Ey (V/m) @ t=0.54
-0.004580697371988851
% es.Ez (V/m) @ t=0.54
-0.030979876342339896
% es.tEx (V/m) @ t=0.54
0.03157618094174852
% es.tEy (V/m) @ t=0.54
0
% es.tEz (V/m) @ t=0.54
-0.030979876342342116
% V (V) @ t=0.54
0.008386995628621578
% es.normE (V/m) @ t=0.56
0.04489578550201385
% es.EX (V/m) @ t=0.56
0.03187680760606826
% es.EY (V/m) @ t=0.56
-0.0046243127413441165
% es.EZ (V/m) @ t=0.56
-0.03127485290706877
% es.tEX (V/m) @ t=0.56
0.03187680760606604
% es.tEY (V/m) @ t=0.56
0
% es.tEZ (V/m) @ t=0.56
-0.031274852907074546
% es.Ex (V/m) @ t=0.56
0.03187680760606826
% es.Ey (V/m) @ t=0.56
-0.0046243127413441165
% es.Ez (V/m) @ t=0.56
-0.03127485290706877
% es.tEx (V/m) @ t=0.56
0.03187680760606604
% es.tEy (V/m) @ t=0.56
0
% es.tEz (V/m) @ t=0.56
-0.031274852907074546
% V (V) @ t=0.56
0.008466839448150661
% es.normE (V/m) @ t=0.58
0.0453192118416712
% es.EX (V/m) @ t=0.58
0.032177434270385774
% es.EY (V/m) @ t=0.58
-0.004667928110703379
% es.EZ (V/m) @ t=0.58
-0.03156982947180076
% es.tEX (V/m) @ t=0.58
0.032177434270384886
% es.tEY (V/m) @ t=0.58
0
% es.tEZ (V/m) @ t=0.58
-0.0315698294718052
% es.Ex (V/m) @ t=0.58
0.032177434270385774
% es.Ey (V/m) @ t=0.58
-0.004667928110703379
% es.Ez (V/m) @ t=0.58
-0.03156982947180076
% es.tEx (V/m) @ t=0.58
0.032177434270384886
% es.tEy (V/m) @ t=0.58
0
% es.tEz (V/m) @ t=0.58
-0.0315698294718052
% V (V) @ t=0.58
0.00854668326767974
% es.normE (V/m) @ t=0.6
0.045742638181336844
% es.EX (V/m) @ t=0.6
0.03247806093470412
% es.EY (V/m) @ t=0.6
-0.004711543480059088
% es.EZ (V/m) @ t=0.6
-0.031864806036532745
% es.tEX (V/m) @ t=0.6
0.032478060934702846
% es.tEY (V/m) @ t=0.6
0
% es.tEZ (V/m) @ t=0.6
-0.03186480603653585
% es.Ex (V/m) @ t=0.6
0.03247806093470412
% es.Ey (V/m) @ t=0.6
-0.004711543480059088
% es.Ez (V/m) @ t=0.6
-0.031864806036532745
% es.tEx (V/m) @ t=0.6
0.032478060934702846
% es.tEy (V/m) @ t=0.6
0
% es.tEz (V/m) @ t=0.6
-0.03186480603653585
% V (V) @ t=0.6
0.008626527087208825
% es.normE (V/m) @ t=0.62
0.046166064521007785
% es.EX (V/m) @ t=0.62
0.03277868759902325
% es.EY (V/m) @ t=0.62
-0.0047551588494179065
% es.EZ (V/m) @ t=0.62
-0.032159782601259845
% es.tEX (V/m) @ t=0.62
0.03277868759902258
% es.tEY (V/m) @ t=0.62
0
% es.tEZ (V/m) @ t=0.62
-0.03215978260126828
% es.Ex (V/m) @ t=0.62
0.03277868759902325
% es.Ey (V/m) @ t=0.62
-0.0047551588494179065
% es.Ez (V/m) @ t=0.62
-0.032159782601259845
% es.tEx (V/m) @ t=0.62
0.03277868759902258
% es.tEy (V/m) @ t=0.62
0
% es.tEz (V/m) @ t=0.62
-0.03215978260126828
% V (V) @ t=0.62
0.008706370906737907
% es.normE (V/m) @ t=0.64
0.04658949086068811
% es.EX (V/m) @ t=0.64
0.03307931426334337
% es.EY (V/m) @ t=0.64
-0.004798774218762958
% es.EZ (V/m) @ t=0.64
-0.0324547591659905
% es.tEX (V/m) @ t=0.64
0.03307931426334232
% es.tEY (V/m) @ t=0.64
0
% es.tEZ (V/m) @ t=0.64
-0.03245475916599716
% es.Ex (V/m) @ t=0.64
0.03307931426334337
% es.Ey (V/m) @ t=0.64
-0.004798774218762958
% es.Ez (V/m) @ t=0.64
-0.0324547591659905
% es.tEx (V/m) @ t=0.64
0.03307931426334232
% es.tEy (V/m) @ t=0.64
0
% es.tEz (V/m) @ t=0.64
-0.03245475916599716
% V (V) @ t=0.64
0.008786214726266988
% es.normE (V/m) @ t=0.66
0.047012917200378285
% es.EX (V/m) @ t=0.66
0.03337994092766167
% es.EY (V/m) @ t=0.66
-0.0048423895881293255
% es.EZ (V/m) @ t=0.66
-0.03274973573072337
% es.tEX (V/m) @ t=0.66
0.03337994092766028
% es.tEY (V/m) @ t=0.66
0
% es.tEZ (V/m) @ t=0.66
-0.032749735730727814
% es.Ex (V/m) @ t=0.66
0.03337994092766167
% es.Ey (V/m) @ t=0.66
-0.0048423895881293255
% es.Ez (V/m) @ t=0.66
-0.03274973573072337
% es.tEx (V/m) @ t=0.66
0.03337994092766028
% es.tEy (V/m) @ t=0.66
0
% es.tEz (V/m) @ t=0.66
-0.032749735730727814
% V (V) @ t=0.66
0.008866058545796073
% es.normE (V/m) @ t=0.68
0.047436343540068635
% es.EX (V/m) @ t=0.68
0.03368056759197913
% es.EY (V/m) @ t=0.68
-0.004886004957481038
% es.EZ (V/m) @ t=0.68
-0.03304471229544914
% es.tEX (V/m) @ t=0.68
0.033680567591977795
% es.tEY (V/m) @ t=0.68
0
% es.tEZ (V/m) @ t=0.68
-0.03304471229545669
% es.Ex (V/m) @ t=0.68
0.03368056759197913
% es.Ey (V/m) @ t=0.68
-0.004886004957481038
% es.Ez (V/m) @ t=0.68
-0.03304471229544914
% es.tEx (V/m) @ t=0.68
0.033680567591977795
% es.tEy (V/m) @ t=0.68
0
% es.tEz (V/m) @ t=0.68
-0.03304471229545669
% V (V) @ t=0.68
0.008945902365325154
% es.normE (V/m) @ t=0.7
0.04785976987977246
% es.EX (V/m) @ t=0.7
0.033981194256298364
% es.EY (V/m) @ t=0.7
-0.00492962032682609
% es.EZ (V/m) @ t=0.7
-0.03333968886018335
% es.tEX (V/m) @ t=0.7
0.03398119425629531
% es.tEY (V/m) @ t=0.7
0
% es.tEZ (V/m) @ t=0.7
-0.033339688860187344
% es.Ex (V/m) @ t=0.7
0.033981194256298364
% es.Ey (V/m) @ t=0.7
-0.00492962032682609
% es.Ez (V/m) @ t=0.7
-0.03333968886018335
% es.tEx (V/m) @ t=0.7
0.03398119425629531
% es.tEy (V/m) @ t=0.7
0
% es.tEz (V/m) @ t=0.7
-0.033339688860187344
% V (V) @ t=0.7
0.009025746184854236
% es.normE (V/m) @ t=0.72
0.048283196219479324
% es.EX (V/m) @ t=0.72
0.034281820920614825
% es.EY (V/m) @ t=0.72
-0.004973235696177358
% es.EZ (V/m) @ t=0.72
-0.033634665424914
% es.tEX (V/m) @ t=0.72
0.03428182092061416
% es.tEY (V/m) @ t=0.72
0
% es.tEZ (V/m) @ t=0.72
-0.033634665424914445
% es.Ex (V/m) @ t=0.72
0.034281820920614825
% es.Ey (V/m) @ t=0.72
-0.004973235696177358
% es.Ez (V/m) @ t=0.72
-0.033634665424914
% es.tEx (V/m) @ t=0.72
0.03428182092061416
% es.tEy (V/m) @ t=0.72
0
% es.tEz (V/m) @ t=0.72
-0.033634665424914445
% V (V) @ t=0.72
0.009105590004383319
% es.normE (V/m) @ t=0.74
0.04870662255919753
% es.EX (V/m) @ t=0.74
0.03458244758493578
% es.EY (V/m) @ t=0.74
-0.005016851065540173
% es.EZ (V/m) @ t=0.74
-0.0339296419896451
% es.tEX (V/m) @ t=0.74
0.03458244758493478
% es.tEY (V/m) @ t=0.74
0
% es.tEZ (V/m) @ t=0.74
-0.033929641989646875
% es.Ex (V/m) @ t=0.74
0.03458244758493578
% es.Ey (V/m) @ t=0.74
-0.005016851065540173
% es.Ez (V/m) @ t=0.74
-0.0339296419896451
% es.tEx (V/m) @ t=0.74
0.03458244758493478
% es.tEy (V/m) @ t=0.74
0
% es.tEz (V/m) @ t=0.74
-0.033929641989646875
% V (V) @ t=0.74
0.009185433823912402
% es.normE (V/m) @ t=0.76
0.04916971689174991
% es.EX (V/m) @ t=0.76
0.03491129863328668
% es.EY (V/m) @ t=0.76
-0.005064543467290239
% es.EZ (V/m) @ t=0.76
-0.03425219243231359
% es.tEX (V/m) @ t=0.76
0.034911298633282684
% es.tEY (V/m) @ t=0.76
0
% es.tEZ (V/m) @ t=0.76
-0.03425219243231936
% es.Ex (V/m) @ t=0.76
0.03491129863328668
% es.Ey (V/m) @ t=0.76
-0.005064543467290239
% es.Ez (V/m) @ t=0.76
-0.03425219243231359
% es.tEx (V/m) @ t=0.76
0.034911298633282684
% es.tEy (V/m) @ t=0.76
0
% es.tEz (V/m) @ t=0.76
-0.03425219243231936
% V (V) @ t=0.76
0.009272800651581052
% es.normE (V/m) @ t=0.78
0.049642780835609746
% es.EX (V/m) @ t=0.78
0.03524724321257339
% es.EY (V/m) @ t=0.78
-0.00511326053461536
% es.EZ (V/m) @ t=0.78
-0.03458167291660752
% es.tEX (V/m) @ t=0.78
0.035247243212572776
% es.tEY (V/m) @ t=0.78
0
% es.tEZ (V/m) @ t=0.78
-0.03458167291661063
% es.Ex (V/m) @ t=0.78
0.03524724321257339
% es.Ey (V/m) @ t=0.78
-0.00511326053461536
% es.Ez (V/m) @ t=0.78
-0.03458167291660752
% es.tEx (V/m) @ t=0.78
0.035247243212572776
% es.tEy (V/m) @ t=0.78
0
% es.tEz (V/m) @ t=0.78
-0.03458167291661063
% V (V) @ t=0.78
0.009362058209297497
% es.normE (V/m) @ t=0.8
0.05011584477962246
% es.EX (V/m) @ t=0.8
0.03558318779186198
% es.EY (V/m) @ t=0.8
-0.005161977601976009
% es.EZ (V/m) @ t=0.8
-0.034911153400897454
% es.tEX (V/m) @ t=0.8
0.03558318779186198
% es.tEY (V/m) @ t=0.8
0
% es.tEZ (V/m) @ t=0.8
-0.034911153400901895
% es.Ex (V/m) @ t=0.8
0.03558318779186198
% es.Ey (V/m) @ t=0.8
-0.005161977601976009
% es.Ez (V/m) @ t=0.8
-0.034911153400897454
% es.tEx (V/m) @ t=0.8
0.03558318779186198
% es.tEy (V/m) @ t=0.8
0
% es.tEz (V/m) @ t=0.8
-0.034911153400901895
% V (V) @ t=0.8
0.009451315767013944
% es.normE (V/m) @ t=0.82
0.050588908723779184
% es.EX (V/m) @ t=0.82
0.035919132371148854
% es.EY (V/m) @ t=0.82
-0.005210694669318894
% es.EZ (V/m) @ t=0.82
-0.03524063388518828
% es.tEX (V/m) @ t=0.82
0.035919132371146745
% es.tEY (V/m) @ t=0.82
0
% es.tEZ (V/m) @ t=0.82
-0.035240633885192274
% es.Ex (V/m) @ t=0.82
0.035919132371148854
% es.Ey (V/m) @ t=0.82
-0.005210694669318894
% es.Ez (V/m) @ t=0.82
-0.03524063388518828
% es.tEx (V/m) @ t=0.82
0.035919132371146745
% es.tEy (V/m) @ t=0.82
0
% es.tEz (V/m) @ t=0.82
-0.035240633885192274
% V (V) @ t=0.82
0.00954057332473039
% es.normE (V/m) @ t=0.84
0.051061972668079075
% es.EX (V/m) @ t=0.84
0.03625507695043573
% es.EY (V/m) @ t=0.84
-0.005259411736669328
% es.EZ (V/m) @ t=0.84
-0.0355701143694791
% es.tEX (V/m) @ t=0.84
0.03625507695043417
% es.tEY (V/m) @ t=0.84
0
% es.tEZ (V/m) @ t=0.84
-0.03557011436947999
% es.Ex (V/m) @ t=0.84
0.03625507695043573
% es.Ey (V/m) @ t=0.84
-0.005259411736669328
% es.Ez (V/m) @ t=0.84
-0.0355701143694791
% es.tEx (V/m) @ t=0.84
0.03625507695043417
% es.tEy (V/m) @ t=0.84
0
% es.tEz (V/m) @ t=0.84
-0.03557011436947999
% V (V) @ t=0.84
0.009629830882446835
% es.normE (V/m) @ t=0.86
0.051535036612519326
% es.EX (V/m) @ t=0.86
0.0365910215297226
% es.EY (V/m) @ t=0.86
-0.005308128804008216
% es.EZ (V/m) @ t=0.86
-0.035899594853774364
% es.tEX (V/m) @ t=0.86
0.03659102152972338
% es.tEY (V/m) @ t=0.86
0
% es.tEZ (V/m) @ t=0.86
-0.03589959485377481
% es.Ex (V/m) @ t=0.86
0.0365910215297226
% es.Ey (V/m) @ t=0.86
-0.005308128804008216
% es.Ez (V/m) @ t=0.86
-0.035899594853774364
% es.tEx (V/m) @ t=0.86
0.03659102152972338
% es.tEy (V/m) @ t=0.86
0
% es.tEz (V/m) @ t=0.86
-0.03589959485377481
% V (V) @ t=0.86
0.00971908844016328
% es.normE (V/m) @ t=0.88
0.05200810055709067
% es.EX (V/m) @ t=0.88
0.03692696610901125
% es.EY (V/m) @ t=0.88
-0.005356845871351101
% es.EZ (V/m) @ t=0.88
-0.03622907533806208
% es.tEX (V/m) @ t=0.88
0.036926966109010806
% es.tEY (V/m) @ t=0.88
0
% es.tEZ (V/m) @ t=0.88
-0.036229075338070515
% es.Ex (V/m) @ t=0.88
0.03692696610901125
% es.Ey (V/m) @ t=0.88
-0.005356845871351101
% es.Ez (V/m) @ t=0.88
-0.03622907533806208
% es.tEx (V/m) @ t=0.88
0.036926966109010806
% es.tEy (V/m) @ t=0.88
0
% es.tEz (V/m) @ t=0.88
-0.036229075338070515
% V (V) @ t=0.88
0.009808345997879726
% es.normE (V/m) @ t=0.9
0.05248116450179584
% es.EX (V/m) @ t=0.9
0.03726291068829801
% es.EY (V/m) @ t=0.9
-0.005405562938701092
% es.EZ (V/m) @ t=0.9
-0.03655855582235468
% es.tEX (V/m) @ t=0.9
0.037262910688297346
% es.tEY (V/m) @ t=0.9
0
% es.tEZ (V/m) @ t=0.9
-0.03655855582235823
% es.Ex (V/m) @ t=0.9
0.03726291068829801
% es.Ey (V/m) @ t=0.9
-0.005405562938701092
% es.Ez (V/m) @ t=0.9
-0.03655855582235468
% es.tEx (V/m) @ t=0.9
0.037262910688297346
% es.tEy (V/m) @ t=0.9
0
% es.tEz (V/m) @ t=0.9
-0.03655855582235823
% V (V) @ t=0.9
0.009897603555596171
% es.normE (V/m) @ t=0.92
0.05295422844662508
% es.EX (V/m) @ t=0.92
0.03759885526758322
% es.EY (V/m) @ t=0.92
-0.005454280006034207
% es.EZ (V/m) @ t=0.92
-0.03688803630664639
% es.tEX (V/m) @ t=0.92
0.037598855267583886
% es.tEY (V/m) @ t=0.92
0
% es.tEZ (V/m) @ t=0.92
-0.03688803630664683
% es.Ex (V/m) @ t=0.92
0.03759885526758322
% es.Ey (V/m) @ t=0.92
-0.005454280006034207
% es.Ez (V/m) @ t=0.92
-0.03688803630664639
% es.tEx (V/m) @ t=0.92
0.037598855267583886
% es.tEy (V/m) @ t=0.92
0
% es.tEz (V/m) @ t=0.92
-0.03688803630664683
% V (V) @ t=0.92
0.009986861113312618
% es.normE (V/m) @ t=0.94
0.05342729239157997
% es.EX (V/m) @ t=0.94
0.037934799846873535
% es.EY (V/m) @ t=0.94
-0.005502997073394855
% es.EZ (V/m) @ t=0.94
-0.03721751679093099
% es.tEX (V/m) @ t=0.94
0.0379347998468722
% es.tEY (V/m) @ t=0.94
0
% es.tEZ (V/m) @ t=0.94
-0.037217516790939875
% es.Ex (V/m) @ t=0.94
0.037934799846873535
% es.Ey (V/m) @ t=0.94
-0.005502997073394855
% es.Ez (V/m) @ t=0.94
-0.03721751679093099
% es.tEx (V/m) @ t=0.94
0.0379347998468722
% es.tEy (V/m) @ t=0.94
0
% es.tEz (V/m) @ t=0.94
-0.037217516790939875
% V (V) @ t=0.94
0.010076118671029062
% es.normE (V/m) @ t=0.96
0.05390035633665847
% es.EX (V/m) @ t=0.96
0.03827074442616041
% es.EY (V/m) @ t=0.96
-0.005551714140733743
% es.EZ (V/m) @ t=0.96
-0.03754699727522626
% es.tEX (V/m) @ t=0.96
0.038270744426157854
% es.tEY (V/m) @ t=0.96
0
% es.tEZ (V/m) @ t=0.96
-0.037546997275230254
% es.Ex (V/m) @ t=0.96
0.03827074442616041
% es.Ey (V/m) @ t=0.96
-0.005551714140733743
% es.Ez (V/m) @ t=0.96
-0.03754699727522626
% es.tEx (V/m) @ t=0.96
0.038270744426157854
% es.tEy (V/m) @ t=0.96
0
% es.tEz (V/m) @ t=0.96
-0.037546997275230254
% V (V) @ t=0.96
0.010165376228745507
% es.normE (V/m) @ t=0.98
0.05437342028185116
% es.EX (V/m) @ t=0.98
0.03860668900544728
% es.EY (V/m) @ t=0.98
-0.005600431208074408
% es.EZ (V/m) @ t=0.98
-0.03787647775951619
% es.tEX (V/m) @ t=0.98
0.03860668900544795
% es.tEY (V/m) @ t=0.98
0
% es.tEZ (V/m) @ t=0.98
-0.03787647775952063
% es.Ex (V/m) @ t=0.98
0.03860668900544728
% es.Ey (V/m) @ t=0.98
-0.005600431208074408
% es.Ez (V/m) @ t=0.98
-0.03787647775951619
% es.tEx (V/m) @ t=0.98
0.03860668900544795
% es.tEy (V/m) @ t=0.98
0
% es.tEz (V/m) @ t=0.98
-0.03787647775952063
% V (V) @ t=0.98
0.010254633786461955
% es.normE (V/m) @ t=1
0.05484648422716042
% es.EX (V/m) @ t=1
0.03894263358473404
% es.EY (V/m) @ t=1
-0.005649148275416405
% es.EZ (V/m) @ t=1
-0.03820595824380879
% es.tEX (V/m) @ t=1
0.03894263358473271
% es.tEY (V/m) @ t=1
0
% es.tEZ (V/m) @ t=1
-0.03820595824381545
% es.Ex (V/m) @ t=1
0.03894263358473404