% Model:              1 neuron.mph
% Version:            COMSOL 6.1.0.252
% Date:               Mar 26 2023, 14:28
% Dimension:          0
% Nodes:              14017
% Expressions:        14017
% Description:        Electric field norm, Electric field, X component, Electric field, Y component, Electric field, Z component, Tangential electric field, X component, Tangential electric field, Y component, Tangential electric field, Z component, Electric field, x component, Electric field, y component, Electric field, z component, Tangential electric field, x component, Tangential electric field, y component, Tangential electric field, z component, Electric potential
% Length unit:        mm
% x
2
% y
14.200000000000001
% z
2
% es.normE (V/m) @ t=0
0.03463117703546984
% es.EX (V/m) @ t=0
-0.022946253331589617
% es.EY (V/m) @ t=0
0.011245924076859204
% es.EZ (V/m) @ t=0
-0.023373426632868455
% es.tEX (V/m) @ t=0
-0.022946253331589506
% es.tEY (V/m) @ t=0
0
% es.tEZ (V/m) @ t=0
-0.023373426632868677
% es.Ex (V/m) @ t=0
-0.022946253331589617
% es.Ey (V/m) @ t=0
0.011245924076859204
% es.Ez (V/m) @ t=0
-0.023373426632868455
% es.tEx (V/m) @ t=0
-0.022946253331589506
% es.tEy (V/m) @ t=0
0
% es.tEz (V/m) @ t=0
-0.023373426632868677
% V (V) @ t=0
0.007196537584234857
% es.normE (V/m) @ t=0.02
0.03171490382119192
% es.EX (V/m) @ t=0.02
-0.021013961388569147
% es.EY (V/m) @ t=0.02
0.010298910756457502
% es.EZ (V/m) @ t=0.02
-0.02140516265711856
% es.tEX (V/m) @ t=0.02
-0.02101396138856859
% es.tEY (V/m) @ t=0.02
0
% es.tEZ (V/m) @ t=0.02
-0.02140516265711956
% es.Ex (V/m) @ t=0.02
-0.021013961388569147
% es.Ey (V/m) @ t=0.02
0.010298910756457502
% es.Ez (V/m) @ t=0.02
-0.02140516265711856
% es.tEx (V/m) @ t=0.02
-0.02101396138856859
% es.tEy (V/m) @ t=0.02
0
% es.tEz (V/m) @ t=0.02
-0.02140516265711956
% V (V) @ t=0.02
0.006590521027680939
% es.normE (V/m) @ t=0.04
0.03200590799906362
% es.EX (V/m) @ t=0.04
-0.021206777683635103
% es.EY (V/m) @ t=0.04
0.01039340978748271
% es.EZ (V/m) @ t=0.04
-0.02160156846413841
% es.tEX (V/m) @ t=0.04
-0.021206777683635103
% es.tEY (V/m) @ t=0.04
0
% es.tEZ (V/m) @ t=0.04
-0.0216015684641378
% es.Ex (V/m) @ t=0.04
-0.021206777683635103
% es.Ey (V/m) @ t=0.04
0.01039340978748271
% es.Ez (V/m) @ t=0.04
-0.02160156846413841
% es.tEx (V/m) @ t=0.04
-0.021206777683635103
% es.tEy (V/m) @ t=0.04
0
% es.tEz (V/m) @ t=0.04
-0.0216015684641378
% V (V) @ t=0.04
0.006650993355399148
% es.normE (V/m) @ t=0.06
0.03230046117979543
% es.EX (V/m) @ t=0.06
-0.021401945465062244
% es.EY (V/m) @ t=0.06
0.010489061380146936
% es.EZ (V/m) @ t=0.06
-0.021800369586350676
% es.tEX (V/m) @ t=0.06
-0.021401945465063132
% es.tEY (V/m) @ t=0.06
0
% es.tEZ (V/m) @ t=0.06
-0.021800369586350288
% es.Ex (V/m) @ t=0.06
-0.021401945465062244
% es.Ey (V/m) @ t=0.06
0.010489061380146936
% es.Ez (V/m) @ t=0.06
-0.021800369586350676
% es.tEx (V/m) @ t=0.06
-0.021401945465063132
% es.tEy (V/m) @ t=0.06
0
% es.tEz (V/m) @ t=0.06
-0.021800369586350288
% V (V) @ t=0.06
0.006712203344309851
% es.normE (V/m) @ t=0.08
0.03259734061851584
% es.EX (V/m) @ t=0.08
-0.021598654548801388
% es.EY (V/m) @ t=0.08
0.010585468525047048
% es.EZ (V/m) @ t=0.08
-0.02200074074176417
% es.tEX (V/m) @ t=0.08
-0.02159865454880061
% es.tEY (V/m) @ t=0.08
0
% es.tEZ (V/m) @ t=0.08
-0.022000740741763725
% es.Ex (V/m) @ t=0.08
-0.021598654548801388
% es.Ey (V/m) @ t=0.08
0.010585468525047048
% es.Ez (V/m) @ t=0.08
-0.02200074074176417
% es.tEx (V/m) @ t=0.08
-0.02159865454880061
% es.tEy (V/m) @ t=0.08
0
% es.tEz (V/m) @ t=0.08
-0.022000740741763725
% V (V) @ t=0.08
0.006773897083179253
% es.normE (V/m) @ t=0.1
0.032900352565037407
% es.EX (V/m) @ t=0.1
-0.02179942683124203
% es.EY (V/m) @ t=0.1
0.010683867465367314
% es.EZ (V/m) @ t=0.1
-0.022205250836582646
% es.tEX (V/m) @ t=0.1
-0.021799426831241364
% es.tEY (V/m) @ t=0.1
0
% es.tEZ (V/m) @ t=0.1
-0.022205250836583423
% es.Ex (V/m) @ t=0.1
-0.02179942683124203
% es.Ey (V/m) @ t=0.1
0.010683867465367314
% es.Ez (V/m) @ t=0.1
-0.022205250836582646
% es.tEx (V/m) @ t=0.1
-0.021799426831241364
% es.tEy (V/m) @ t=0.1
0
% es.tEz (V/m) @ t=0.1
-0.022205250836583423
% V (V) @ t=0.1
0.006836866089198371
% es.normE (V/m) @ t=0.12
0.033203364511554534
% es.EX (V/m) @ t=0.12
-0.02200019911368223
% es.EY (V/m) @ t=0.12
0.010782266405684915
% es.EZ (V/m) @ t=0.12
-0.02240976093139624
% es.tEX (V/m) @ t=0.12
-0.02200019911368234
% es.tEY (V/m) @ t=0.12
0
% es.tEZ (V/m) @ t=0.12
-0.022409760931397904
% es.Ex (V/m) @ t=0.12
-0.02200019911368223
% es.Ey (V/m) @ t=0.12
0.010782266405684915
% es.Ez (V/m) @ t=0.12
-0.02240976093139624
% es.tEx (V/m) @ t=0.12
-0.02200019911368234
% es.tEy (V/m) @ t=0.12
0
% es.tEz (V/m) @ t=0.12
-0.022409760931397904
% V (V) @ t=0.12
0.00689983509521749
% es.normE (V/m) @ t=0.14
0.03350637645807381
% es.EX (V/m) @ t=0.14
-0.022200971396121538
% es.EY (V/m) @ t=0.14
0.010880665345999851
% es.EZ (V/m) @ t=0.14
-0.02261427102621516
% es.tEX (V/m) @ t=0.14
-0.02220097139612076
% es.tEY (V/m) @ t=0.14
0
% es.tEZ (V/m) @ t=0.14
-0.02261427102621416
% es.Ex (V/m) @ t=0.14
-0.022200971396121538
% es.Ey (V/m) @ t=0.14
0.010880665345999851
% es.Ez (V/m) @ t=0.14
-0.02261427102621516
% es.tEx (V/m) @ t=0.14
-0.02220097139612076
% es.tEy (V/m) @ t=0.14
0
% es.tEz (V/m) @ t=0.14
-0.02261427102621416
% V (V) @ t=0.14
0.006962804101236608
% es.normE (V/m) @ t=0.16
0.033819389157686036
% es.EX (V/m) @ t=0.16
-0.022408369085126445
% es.EY (V/m) @ t=0.16
0.010982314457780085
% es.EZ (V/m) @ t=0.16
-0.022825530598305832
% es.tEX (V/m) @ t=0.16
-0.022408369085127777
% es.tEY (V/m) @ t=0.16
0
% es.tEZ (V/m) @ t=0.16
-0.02282553059830489
% es.Ex (V/m) @ t=0.16
-0.022408369085126445
% es.Ey (V/m) @ t=0.16
0.010982314457780085
% es.Ez (V/m) @ t=0.16
-0.022825530598305832
% es.tEx (V/m) @ t=0.16
-0.022408369085127777
% es.tEy (V/m) @ t=0.16
0
% es.tEz (V/m) @ t=0.16
-0.02282553059830489
% V (V) @ t=0.16
0.007027857763992749
% es.normE (V/m) @ t=0.18
0.03414040518141513
% es.EX (V/m) @ t=0.18
-0.022621068902446417
% es.EY (V/m) @ t=0.18
0.011086564591240133
% es.EZ (V/m) @ t=0.18
-0.023042191589044414
% es.tEX (V/m) @ t=0.18
-0.02262106890244553
% es.tEY (V/m) @ t=0.18
0
% es.tEZ (V/m) @ t=0.18
-0.02304219158904286
% es.Ex (V/m) @ t=0.18
-0.022621068902446417
% es.Ey (V/m) @ t=0.18
0.011086564591240133
% es.Ez (V/m) @ t=0.18
-0.023042191589044414
% es.tEx (V/m) @ t=0.18
-0.02262106890244553
% es.tEy (V/m) @ t=0.18
0
% es.tEz (V/m) @ t=0.18
-0.02304219158904286
% V (V) @ t=0.18
0.0070945797194634265
% es.normE (V/m) @ t=0.2
0.03446142120514014
% es.EX (V/m) @ t=0.2
-0.0228337687197655
% es.EY (V/m) @ t=0.2
0.011190814724693077
% es.EZ (V/m) @ t=0.2
-0.023258852579779887
% es.tEX (V/m) @ t=0.2
-0.022833768719763503
% es.tEY (V/m) @ t=0.2
0
% es.tEZ (V/m) @ t=0.2
-0.023258852579780886
% es.Ex (V/m) @ t=0.2
-0.0228337687197655
% es.Ey (V/m) @ t=0.2
0.011190814724693077
% es.Ez (V/m) @ t=0.2
-0.023258852579779887
% es.tEx (V/m) @ t=0.2
-0.022833768719763503
% es.tEy (V/m) @ t=0.2
0
% es.tEz (V/m) @ t=0.2
-0.023258852579780886
% V (V) @ t=0.2
0.007161301674934106
% es.normE (V/m) @ t=0.22
0.03478243722886863
% es.EX (V/m) @ t=0.22
-0.023046468537081477
% es.EY (V/m) @ t=0.22
0.011295064858156678
% es.EZ (V/m) @ t=0.22
-0.023475513570517137
% es.tEX (V/m) @ t=0.22
-0.023046468537081477
% es.tEY (V/m) @ t=0.22
0
% es.tEZ (V/m) @ t=0.22
-0.023475513570515305
% es.Ex (V/m) @ t=0.22
-0.023046468537081477
% es.Ey (V/m) @ t=0.22
0.011295064858156678
% es.Ez (V/m) @ t=0.22
-0.023475513570517137
% es.tEx (V/m) @ t=0.22
-0.023046468537081477
% es.tEy (V/m) @ t=0.22
0
% es.tEz (V/m) @ t=0.22
-0.023475513570515305
% V (V) @ t=0.22
0.007228023630404783
% es.normE (V/m) @ t=0.24
0.0351034532525942
% es.EX (V/m) @ t=0.24
-0.023259168354399673
% es.EY (V/m) @ t=0.24
0.011399314991609621
% es.EZ (V/m) @ t=0.24
-0.023692174561251722
% es.tEX (V/m) @ t=0.24
-0.02325916835439945
% es.tEY (V/m) @ t=0.24
0
% es.tEZ (V/m) @ t=0.24
-0.02369217456124978
% es.Ex (V/m) @ t=0.24
-0.023259168354399673
% es.Ey (V/m) @ t=0.24
0.011399314991609621
% es.Ez (V/m) @ t=0.24
-0.023692174561251722
% es.tEx (V/m) @ t=0.24
-0.02325916835439945
% es.tEy (V/m) @ t=0.24
0
% es.tEz (V/m) @ t=0.24
-0.02369217456124978
% V (V) @ t=0.24
0.007294745585875463
% es.normE (V/m) @ t=0.26
0.03542446927632414
% es.EX (V/m) @ t=0.26
-0.0234718681717192
% es.EY (V/m) @ t=0.26
0.011503565125066118
% es.EZ (V/m) @ t=0.26
-0.023908835551988528
% es.tEX (V/m) @ t=0.26
-0.02347186817171909
% es.tEY (V/m) @ t=0.26
0
% es.tEZ (V/m) @ t=0.26
-0.023908835551989527
% es.Ex (V/m) @ t=0.26
-0.0234718681717192
% es.Ey (V/m) @ t=0.26
0.011503565125066118
% es.Ez (V/m) @ t=0.26
-0.023908835551988528
% es.tEx (V/m) @ t=0.26
-0.02347186817171909
% es.tEy (V/m) @ t=0.26
0
% es.tEz (V/m) @ t=0.26
-0.023908835551989527
% V (V) @ t=0.26
0.007361467541346141
% es.normE (V/m) @ t=0.28
0.03574548530005108
% es.EX (V/m) @ t=0.28
-0.02368456798903651
% es.EY (V/m) @ t=0.28
0.011607815258518173
% es.EZ (V/m) @ t=0.28
-0.024125496542724
% es.tEX (V/m) @ t=0.28
-0.023684567989037175
% es.tEY (V/m) @ t=0.28
0
% es.tEZ (V/m) @ t=0.28
-0.024125496542724
% es.Ex (V/m) @ t=0.28
-0.02368456798903651
% es.Ey (V/m) @ t=0.28
0.011607815258518173
% es.Ez (V/m) @ t=0.28
-0.024125496542724
% es.tEx (V/m) @ t=0.28
-0.023684567989037175
% es.tEy (V/m) @ t=0.28
0
% es.tEz (V/m) @ t=0.28
-0.024125496542724
% V (V) @ t=0.28
0.00742818949681682
% es.normE (V/m) @ t=0.3
0.03606874612649601
% es.EX (V/m) @ t=0.3
-0.02389875575197209
% es.EY (V/m) @ t=0.3
0.011712792885675505
% es.EZ (V/m) @ t=0.3
-0.024343672760338997
% es.tEX (V/m) @ t=0.3
-0.023898755751971312
% es.tEY (V/m) @ t=0.3
0
% es.tEZ (V/m) @ t=0.3
-0.024343672760339607
% es.Ex (V/m) @ t=0.3
-0.02389875575197209
% es.Ey (V/m) @ t=0.3
0.011712792885675505
% es.Ez (V/m) @ t=0.3
-0.024343672760338997
% es.tEx (V/m) @ t=0.3
-0.023898755751971312
% es.tEy (V/m) @ t=0.3
0
% es.tEz (V/m) @ t=0.3
-0.024343672760339607
% V (V) @ t=0.3
0.00749537427237496
% es.normE (V/m) @ t=0.32
0.03640904877352195
% es.EX (V/m) @ t=0.32
-0.02412423951971565
% es.EY (V/m) @ t=0.32
0.011823293411132418
% es.EZ (V/m) @ t=0.32
-0.024573352093321787
% es.tEX (V/m) @ t=0.32
-0.024124239519715984
% es.tEY (V/m) @ t=0.32
0
% es.tEZ (V/m) @ t=0.32
-0.024573352093322065
% es.Ex (V/m) @ t=0.32
-0.02412423951971565
% es.Ey (V/m) @ t=0.32
0.011823293411132418
% es.Ez (V/m) @ t=0.32
-0.024573352093321787
% es.tEx (V/m) @ t=0.32
-0.024124239519715984
% es.tEy (V/m) @ t=0.32
0
% es.tEz (V/m) @ t=0.32
-0.024573352093322065
% V (V) @ t=0.32
0.007566072629256951
% es.normE (V/m) @ t=0.34
0.036749351420554216
% es.EX (V/m) @ t=0.34
-0.02434972328746232
% es.EY (V/m) @ t=0.34
0.011933793936589332
% es.EZ (V/m) @ t=0.34
-0.02480303142630813
% es.tEX (V/m) @ t=0.34
-0.024349723287460656
% es.tEY (V/m) @ t=0.34
0
% es.tEZ (V/m) @ t=0.34
-0.0248030314263063
% es.Ex (V/m) @ t=0.34
-0.02434972328746232
% es.Ey (V/m) @ t=0.34
0.011933793936589332
% es.Ez (V/m) @ t=0.34
-0.02480303142630813
% es.tEx (V/m) @ t=0.34
-0.024349723287460656
% es.tEy (V/m) @ t=0.34
0
% es.tEz (V/m) @ t=0.34
-0.0248030314263063
% V (V) @ t=0.34
0.007636770986138946
% es.normE (V/m) @ t=0.36
0.03708965406758623
% es.EX (V/m) @ t=0.36
-0.024575207055208992
% es.EY (V/m) @ t=0.36
0.012044294462043581
% es.EZ (V/m) @ t=0.36
-0.025032710759292698
% es.tEX (V/m) @ t=0.36
-0.02457520705520788
% es.tEY (V/m) @ t=0.36
0
% es.tEZ (V/m) @ t=0.36
-0.02503271075929403
% es.Ex (V/m) @ t=0.36
-0.024575207055208992
% es.Ey (V/m) @ t=0.36
0.012044294462043581
% es.Ez (V/m) @ t=0.36
-0.025032710759292698
% es.tEx (V/m) @ t=0.36
-0.02457520705520788
% es.tEy (V/m) @ t=0.36
0
% es.tEz (V/m) @ t=0.36
-0.02503271075929403
% V (V) @ t=0.36
0.0077074693430209396
% es.normE (V/m) @ t=0.38
0.03742995671462059
% es.EX (V/m) @ t=0.38
-0.024800690822953886
% es.EY (V/m) @ t=0.38
0.012154794987501383
% es.EZ (V/m) @ t=0.38
-0.025262390092278153
% es.tEX (V/m) @ t=0.38
-0.02480069082295433
% es.tEY (V/m) @ t=0.38
0
% es.tEZ (V/m) @ t=0.38
-0.025262390092278264
% es.Ex (V/m) @ t=0.38
-0.024800690822953886
% es.Ey (V/m) @ t=0.38
0.012154794987501383
% es.Ez (V/m) @ t=0.38
-0.025262390092278153
% es.tEx (V/m) @ t=0.38
-0.02480069082295433
% es.tEy (V/m) @ t=0.38
0
% es.tEz (V/m) @ t=0.38
-0.025262390092278264
% V (V) @ t=0.38
0.007778167699902934
% es.normE (V/m) @ t=0.4
0.037770259361658134
% es.EX (V/m) @ t=0.4
-0.02502617459070189
% es.EY (V/m) @ t=0.4
0.012265295512959185
% es.EZ (V/m) @ t=0.4
-0.02549206942526272
% es.tEX (V/m) @ t=0.4
-0.02502617459070089
% es.tEY (V/m) @ t=0.4
0
% es.tEZ (V/m) @ t=0.4
-0.025492069425264274
% es.Ex (V/m) @ t=0.4
-0.02502617459070189
% es.Ey (V/m) @ t=0.4
0.012265295512959185
% es.Ez (V/m) @ t=0.4
-0.02549206942526272
% es.tEx (V/m) @ t=0.4
-0.02502617459070089
% es.tEy (V/m) @ t=0.4
0
% es.tEz (V/m) @ t=0.4
-0.025492069425264274
% V (V) @ t=0.4
0.007848866056784929
% es.normE (V/m) @ t=0.42
0.03811056200869527
% es.EX (V/m) @ t=0.42
-0.025251658358445006
% es.EY (V/m) @ t=0.42
0.012375796038420539
% es.EZ (V/m) @ t=0.42
-0.025721748758247287
% es.tEX (V/m) @ t=0.42
-0.025251658358443563
% es.tEY (V/m) @ t=0.42
0
% es.tEZ (V/m) @ t=0.42
-0.0257217487582449
% es.Ex (V/m) @ t=0.42
-0.025251658358445006
% es.Ey (V/m) @ t=0.42
0.012375796038420539
% es.Ez (V/m) @ t=0.42
-0.025721748758247287
% es.tEx (V/m) @ t=0.42
-0.025251658358443563
% es.tEy (V/m) @ t=0.42
0
% es.tEz (V/m) @ t=0.42
-0.0257217487582449
% V (V) @ t=0.42
0.00791956441366692
% es.normE (V/m) @ t=0.44
0.03845086465573293
% es.EX (V/m) @ t=0.44
-0.02547714212619212
% es.EY (V/m) @ t=0.44
0.012486296563870347
% es.EZ (V/m) @ t=0.44
-0.025951428091231854
% es.tEX (V/m) @ t=0.44
-0.02547714212619112
% es.tEY (V/m) @ t=0.44
0
% es.tEZ (V/m) @ t=0.44
-0.025951428091230966
% es.Ex (V/m) @ t=0.44
-0.02547714212619212
% es.Ey (V/m) @ t=0.44
0.012486296563870347
% es.Ez (V/m) @ t=0.44
-0.025951428091231854
% es.tEx (V/m) @ t=0.44
-0.02547714212619112
% es.tEy (V/m) @ t=0.44
0
% es.tEz (V/m) @ t=0.44
-0.025951428091230966
% V (V) @ t=0.44
0.007990262770548914
% es.normE (V/m) @ t=0.46
0.03882096139131846
% es.EX (V/m) @ t=0.46
-0.02572236718196752
% es.EY (V/m) @ t=0.46
0.012606472172587146
% es.EZ (V/m) @ t=0.46
-0.026201216179102538
% es.tEX (V/m) @ t=0.46
-0.02572236718196741
% es.tEY (V/m) @ t=0.46
0
% es.tEZ (V/m) @ t=0.46
-0.02620121617910165
% es.Ex (V/m) @ t=0.46
-0.02572236718196752
% es.Ey (V/m) @ t=0.46
0.012606472172587146
% es.Ez (V/m) @ t=0.46
-0.026201216179102538
% es.tEx (V/m) @ t=0.46
-0.02572236718196741
% es.tEy (V/m) @ t=0.46
0
% es.tEz (V/m) @ t=0.46
-0.02620121617910165
% V (V) @ t=0.46
0.008067152336626212
% es.normE (V/m) @ t=0.48
0.03920525277161045
% es.EX (V/m) @ t=0.48
-0.02597699747829374
% es.EY (V/m) @ t=0.48
0.012731257231559212
% es.EZ (V/m) @ t=0.48
-0.026460584577867152
% es.tEX (V/m) @ t=0.48
-0.02597699747829396
% es.tEY (V/m) @ t=0.48
0
% es.tEZ (V/m) @ t=0.48
-0.02646058457786815
% es.Ex (V/m) @ t=0.48
-0.02597699747829374
% es.Ey (V/m) @ t=0.48
0.012731257231559212
% es.Ez (V/m) @ t=0.48
-0.026460584577867152
% es.tEx (V/m) @ t=0.48
-0.02597699747829396
% es.tEy (V/m) @ t=0.48
0
% es.tEz (V/m) @ t=0.48
-0.02646058457786815
% V (V) @ t=0.48
0.00814699154872893
% es.normE (V/m) @ t=0.5
0.03958954415190278
% es.EX (V/m) @ t=0.5
-0.026231627774618183
% es.EY (V/m) @ t=0.5
0.012856042290533054
% es.EZ (V/m) @ t=0.5
-0.02671995297663088
% es.tEX (V/m) @ t=0.5
-0.026231627774618738
% es.tEY (V/m) @ t=0.5
0
% es.tEZ (V/m) @ t=0.5
-0.026719952976631156
% es.Ex (V/m) @ t=0.5
-0.026231627774618183
% es.Ey (V/m) @ t=0.5
0.012856042290533054
% es.Ez (V/m) @ t=0.5
-0.02671995297663088
% es.tEx (V/m) @ t=0.5
-0.026231627774618738
% es.tEy (V/m) @ t=0.5
0
% es.tEz (V/m) @ t=0.5
-0.026719952976631156
% V (V) @ t=0.5
0.008226830760831647
% es.normE (V/m) @ t=0.52
0.03997383553220079
% es.EX (V/m) @ t=0.52
-0.02648625807094529
% es.EY (V/m) @ t=0.52
0.01298082734950512
% es.EZ (V/m) @ t=0.52
-0.026979321375399046
% es.tEX (V/m) @ t=0.52
-0.026486258070943403
% es.tEY (V/m) @ t=0.52
0
% es.tEZ (V/m) @ t=0.52
-0.026979321375397658
% es.Ex (V/m) @ t=0.52
-0.02648625807094529
% es.Ey (V/m) @ t=0.52
0.01298082734950512
% es.Ez (V/m) @ t=0.52
-0.026979321375399046
% es.tEx (V/m) @ t=0.52
-0.026486258070943403
% es.tEy (V/m) @ t=0.52
0
% es.tEz (V/m) @ t=0.52
-0.026979321375397658
% V (V) @ t=0.52
0.008306669972934364
% es.normE (V/m) @ t=0.54
0.04035812691250134
% es.EX (V/m) @ t=0.54
-0.026740888367272397
% es.EY (V/m) @ t=0.54
0.013105612408486067
% es.EZ (V/m) @ t=0.54
-0.02723868977416455
% es.tEX (V/m) @ t=0.54
-0.02674088836727173
% es.tEY (V/m) @ t=0.54
0
% es.tEZ (V/m) @ t=0.54
-0.027238689774164215
% es.Ex (V/m) @ t=0.54
-0.026740888367272397
% es.Ey (V/m) @ t=0.54
0.013105612408486067
% es.Ez (V/m) @ t=0.54
-0.02723868977416455
% es.tEx (V/m) @ t=0.54
-0.02674088836727173
% es.tEy (V/m) @ t=0.54
0
% es.tEz (V/m) @ t=0.54
-0.027238689774164215
% V (V) @ t=0.54
0.008386509185037081
% es.normE (V/m) @ t=0.56
0.0407424182927995
% es.EX (V/m) @ t=0.56
-0.026995518663598617
% es.EY (V/m) @ t=0.56
0.01323039746745902
% es.EZ (V/m) @ t=0.56
-0.027498058172929163
% es.tEX (V/m) @ t=0.56
-0.026995518663599172
% es.tEY (V/m) @ t=0.56
0
% es.tEZ (V/m) @ t=0.56
-0.02749805817292894
% es.Ex (V/m) @ t=0.56
-0.026995518663598617
% es.Ey (V/m) @ t=0.56
0.01323039746745902
% es.Ez (V/m) @ t=0.56
-0.027498058172929163
% es.tEx (V/m) @ t=0.56
-0.026995518663599172
% es.tEy (V/m) @ t=0.56
0
% es.tEz (V/m) @ t=0.56
-0.02749805817292894
% V (V) @ t=0.56
0.008466348397139799
% es.normE (V/m) @ t=0.58
0.041126709673096715
% es.EX (V/m) @ t=0.58
-0.02725014895992306
% es.EY (V/m) @ t=0.58
0.013355182526428422
% es.EZ (V/m) @ t=0.58
-0.027757426571693777
% es.tEX (V/m) @ t=0.58
-0.02725014895992217
% es.tEY (V/m) @ t=0.58
0
% es.tEZ (V/m) @ t=0.58
-0.027757426571695498
% es.Ex (V/m) @ t=0.58
-0.02725014895992306
% es.Ey (V/m) @ t=0.58
0.013355182526428422
% es.Ez (V/m) @ t=0.58
-0.027757426571693777
% es.tEx (V/m) @ t=0.58
-0.02725014895992217
% es.tEy (V/m) @ t=0.58
0
% es.tEz (V/m) @ t=0.58
-0.027757426571695498
% V (V) @ t=0.58
0.008546187609242514
% es.normE (V/m) @ t=0.6
0.041511001053400845
% es.EX (V/m) @ t=0.6
-0.027504779256251055
% es.EY (V/m) @ t=0.6
0.013479967585402264
% es.EZ (V/m) @ t=0.6
-0.028016794970461056
% es.tEX (V/m) @ t=0.6
-0.027504779256247724
% es.tEY (V/m) @ t=0.6
0
% es.tEZ (V/m) @ t=0.6
-0.028016794970460224
% es.Ex (V/m) @ t=0.6
-0.027504779256251055
% es.Ey (V/m) @ t=0.6
0.013479967585402264
% es.Ez (V/m) @ t=0.6
-0.028016794970461056
% es.tEx (V/m) @ t=0.6
-0.027504779256247724
% es.tEy (V/m) @ t=0.6
0
% es.tEz (V/m) @ t=0.6
-0.028016794970460224
% V (V) @ t=0.6
0.00862602682134523
% es.normE (V/m) @ t=0.62
0.04189529243370087
% es.EX (V/m) @ t=0.62
-0.02775940955257461
% es.EY (V/m) @ t=0.62
0.013604752644381435
% es.EZ (V/m) @ t=0.62
-0.028276163369222118
% es.tEX (V/m) @ t=0.62
-0.027759409552575942
% es.tEY (V/m) @ t=0.62
0
% es.tEZ (V/m) @ t=0.62
-0.028276163369223117
% es.Ex (V/m) @ t=0.62
-0.02775940955257461
% es.Ey (V/m) @ t=0.62
0.013604752644381435
% es.Ez (V/m) @ t=0.62
-0.028276163369222118
% es.tEx (V/m) @ t=0.62
-0.027759409552575942
% es.tEy (V/m) @ t=0.62
0
% es.tEz (V/m) @ t=0.62
-0.028276163369223117
% V (V) @ t=0.62
0.008705866033447949
% es.normE (V/m) @ t=0.64
0.042279583814007274
% es.EX (V/m) @ t=0.64
-0.028014039848901717
% es.EY (V/m) @ t=0.64
0.013729537703354389
% es.EZ (V/m) @ t=0.64
-0.028535531767990285
% es.tEX (V/m) @ t=0.64
-0.02801403984889983
% es.tEY (V/m) @ t=0.64
0
% es.tEZ (V/m) @ t=0.64
-0.02853553176799145
% es.Ex (V/m) @ t=0.64
-0.028014039848901717
% es.Ey (V/m) @ t=0.64
0.013729537703354389
% es.Ez (V/m) @ t=0.64
-0.028535531767990285
% es.tEx (V/m) @ t=0.64
-0.02801403984889983
% es.tEy (V/m) @ t=0.64
0
% es.tEz (V/m) @ t=0.64
-0.02853553176799145
% V (V) @ t=0.64
0.008785705245550664
% es.normE (V/m) @ t=0.66
0.042663875194309565
% es.EX (V/m) @ t=0.66
-0.02826867014522616
% es.EY (V/m) @ t=0.66
0.013854322762325566
% es.EZ (V/m) @ t=0.66
-0.02879490016675401
% es.tEX (V/m) @ t=0.66
-0.02826867014522738
% es.tEY (V/m) @ t=0.66
0
% es.tEZ (V/m) @ t=0.66
-0.028794900166754456
% es.Ex (V/m) @ t=0.66
-0.02826867014522616
% es.Ey (V/m) @ t=0.66
0.013854322762325566
% es.Ez (V/m) @ t=0.66
-0.02879490016675401
% es.tEx (V/m) @ t=0.66
-0.02826867014522738
% es.tEy (V/m) @ t=0.66
0
% es.tEz (V/m) @ t=0.66
-0.028794900166754456
% V (V) @ t=0.66
0.008865544457653382
% es.normE (V/m) @ t=0.68
0.043048166574623875
% es.EX (V/m) @ t=0.68
-0.028523300441553268
% es.EY (V/m) @ t=0.68
0.013979107821315395
% es.EZ (V/m) @ t=0.68
-0.02905426856552218
% es.tEX (V/m) @ t=0.68
-0.028523300441551935
% es.tEY (V/m) @ t=0.68
0
% es.tEZ (V/m) @ t=0.68
-0.029054268565520902
% es.Ex (V/m) @ t=0.68
-0.028523300441553268
% es.Ey (V/m) @ t=0.68
0.013979107821315395
% es.Ez (V/m) @ t=0.68
-0.02905426856552218
% es.tEx (V/m) @ t=0.68
-0.028523300441551935
% es.tEy (V/m) @ t=0.68
0
% es.tEz (V/m) @ t=0.68
-0.029054268565520902
% V (V) @ t=0.68
0.008945383669756097
% es.normE (V/m) @ t=0.7
0.04343245795493356
% es.EX (V/m) @ t=0.7
-0.02877793073788215
% es.EY (V/m) @ t=0.7
0.01410389288028746
% es.EZ (V/m) @ t=0.7
-0.02931363696428857
% es.tEX (V/m) @ t=0.7
-0.028777930737879376
% es.tEY (V/m) @ t=0.7
0
% es.tEZ (V/m) @ t=0.7
-0.029313636964289236
% es.Ex (V/m) @ t=0.7
-0.02877793073788215
% es.Ey (V/m) @ t=0.7
0.01410389288028746
% es.Ez (V/m) @ t=0.7
-0.02931363696428857
% es.tEx (V/m) @ t=0.7
-0.028777930737879376
% es.tEy (V/m) @ t=0.7
0
% es.tEz (V/m) @ t=0.7
-0.029313636964289236
% V (V) @ t=0.7
0.009025222881858815
% es.normE (V/m) @ t=0.72
0.043816749335235584
% es.EX (V/m) @ t=0.72
-0.029032561034206594
% es.EY (V/m) @ t=0.72
0.014228677939247092
% es.EZ (V/m) @ t=0.72
-0.029573005363052296
% es.tEX (V/m) @ t=0.72
-0.029032561034207705
% es.tEY (V/m) @ t=0.72
0
% es.tEZ (V/m) @ t=0.72
-0.02957300536305396
% es.Ex (V/m) @ t=0.72
-0.029032561034206594
% es.Ey (V/m) @ t=0.72
0.014228677939247092
% es.Ez (V/m) @ t=0.72
-0.029573005363052296
% es.tEx (V/m) @ t=0.72
-0.029032561034207705
% es.tEy (V/m) @ t=0.72
0
% es.tEz (V/m) @ t=0.72
-0.02957300536305396
% V (V) @ t=0.72
0.009105062093961532
% es.normE (V/m) @ t=0.74
0.04420104071555211
% es.EX (V/m) @ t=0.74
-0.029287191330531925
% es.EY (V/m) @ t=0.74
0.014353462998236921
% es.EZ (V/m) @ t=0.74
-0.029832373761820463
% es.tEX (V/m) @ t=0.74
-0.02928719133053237
% es.tEY (V/m) @ t=0.74
0
% es.tEZ (V/m) @ t=0.74
-0.02983237376182052
% es.Ex (V/m) @ t=0.74
-0.029287191330531925
% es.Ey (V/m) @ t=0.74
0.014353462998236921
% es.Ez (V/m) @ t=0.74
-0.029832373761820463
% es.tEx (V/m) @ t=0.74
-0.02928719133053237
% es.tEy (V/m) @ t=0.74
0
% es.tEz (V/m) @ t=0.74
-0.02983237376182052
% V (V) @ t=0.74
0.009184901306064249
% es.normE (V/m) @ t=0.76
0.04462116957024903
% es.EX (V/m) @ t=0.76
-0.029565555486618322
% es.EY (V/m) @ t=0.76
0.014489916001402037
% es.EZ (V/m) @ t=0.76
-0.030115926631218315
% es.tEX (V/m) @ t=0.76
-0.02956555548661799
% es.tEY (V/m) @ t=0.76
0
% es.tEZ (V/m) @ t=0.76
-0.03011592663122087
% es.Ex (V/m) @ t=0.76
-0.029565555486618322
% es.Ey (V/m) @ t=0.76
0.014489916001402037
% es.Ez (V/m) @ t=0.76
-0.030115926631218315
% es.tEx (V/m) @ t=0.76
-0.02956555548661799
% es.tEy (V/m) @ t=0.76
0
% es.tEz (V/m) @ t=0.76
-0.03011592663122087
% V (V) @ t=0.76
0.00927226298820088
% es.normE (V/m) @ t=0.78
0.04505030532598985
% es.EX (V/m) @ t=0.78
-0.029849884586647057
% es.EY (V/m) @ t=0.78
0.014629301466183797
% es.EZ (V/m) @ t=0.78
-0.030405557694939134
% es.tEX (V/m) @ t=0.78
-0.02984988458664417
% es.tEY (V/m) @ t=0.78
0
% es.tEZ (V/m) @ t=0.78
-0.03040555769493891
% es.Ex (V/m) @ t=0.78
-0.029849884586647057
% es.Ey (V/m) @ t=0.78
0.014629301466183797
% es.Ez (V/m) @ t=0.78
-0.030405557694939134
% es.tEx (V/m) @ t=0.78
-0.02984988458664417
% es.tEy (V/m) @ t=0.78
0
% es.tEz (V/m) @ t=0.78
-0.03040555769493891
% V (V) @ t=0.78
0.009361515265145186
% es.normE (V/m) @ t=0.8
0.04547944108175904
% es.EX (V/m) @ t=0.8
-0.03013421368667668
% es.EY (V/m) @ t=0.8
0.01476868693097444
% es.EZ (V/m) @ t=0.8
-0.030695188758659953
% es.tEX (V/m) @ t=0.8
-0.030134213686673905
% es.tEY (V/m) @ t=0.8
0
% es.tEZ (V/m) @ t=0.8
-0.030695188758660452
% es.Ex (V/m) @ t=0.8
-0.03013421368667668
% es.Ey (V/m) @ t=0.8
0.01476868693097444
% es.Ez (V/m) @ t=0.8
-0.030695188758659953
% es.tEx (V/m) @ t=0.8
-0.030134213686673905
% es.tEy (V/m) @ t=0.8
0
% es.tEz (V/m) @ t=0.8
-0.030695188758660452
% V (V) @ t=0.8
0.009450767542089488
% es.normE (V/m) @ t=0.82
0.04590857683755177
% es.EX (V/m) @ t=0.82
-0.030418542786701863
% es.EY (V/m) @ t=0.82
0.014908072395773964
% es.EZ (V/m) @ t=0.82
-0.030984819822379883
% es.tEX (V/m) @ t=0.82
-0.030418542786700087
% es.tEY (V/m) @ t=0.82
0
% es.tEZ (V/m) @ t=0.82
-0.03098481982237844
% es.Ex (V/m) @ t=0.82
-0.030418542786701863
% es.Ey (V/m) @ t=0.82
0.014908072395773964
% es.Ez (V/m) @ t=0.82
-0.030984819822379883
% es.tEx (V/m) @ t=0.82
-0.030418542786700087
% es.tEy (V/m) @ t=0.82
0
% es.tEz (V/m) @ t=0.82
-0.03098481982237844
% V (V) @ t=0.82
0.009540019819033792
% es.normE (V/m) @ t=0.84
0.04633771259336511
% es.EX (V/m) @ t=0.84
-0.030702871886726157
% es.EY (V/m) @ t=0.84
0.015047457860568159
% es.EZ (V/m) @ t=0.84
-0.031274450886098926
% es.tEX (V/m) @ t=0.84
-0.030702871886727934
% es.tEY (V/m) @ t=0.84
0
% es.tEZ (V/m) @ t=0.84
-0.03127445088609987
% es.Ex (V/m) @ t=0.84
-0.030702871886726157
% es.Ey (V/m) @ t=0.84
0.015047457860568159
% es.Ez (V/m) @ t=0.84
-0.031274450886098926
% es.tEx (V/m) @ t=0.84
-0.030702871886727934
% es.tEy (V/m) @ t=0.84
0
% es.tEz (V/m) @ t=0.84
-0.03127445088609987
% V (V) @ t=0.84
0.009629272095978096
% es.normE (V/m) @ t=0.86
0.0467668483492058
% es.EX (V/m) @ t=0.86
-0.030987200986757557
% es.EY (V/m) @ t=0.86
0.015186843325357913
% es.EZ (V/m) @ t=0.86
-0.031564081949819744
% es.tEX (V/m) @ t=0.86
-0.03098720098675678
% es.tEY (V/m) @ t=0.86
0
% es.tEZ (V/m) @ t=0.86
-0.03156408194981963
% es.Ex (V/m) @ t=0.86
-0.030987200986757557
% es.Ey (V/m) @ t=0.86
0.015186843325357913
% es.Ez (V/m) @ t=0.86
-0.031564081949819744
% es.tEx (V/m) @ t=0.86
-0.03098720098675678
% es.tEy (V/m) @ t=0.86
0
% es.tEz (V/m) @ t=0.86
-0.03156408194981963
% V (V) @ t=0.86
0.009718524372922399
% es.normE (V/m) @ t=0.88
0.0471959841050664
% es.EX (V/m) @ t=0.88
-0.031271530086784516
% es.EY (V/m) @ t=0.88
0.015326228790147667
% es.EZ (V/m) @ t=0.88
-0.03185371301354145
% es.tEX (V/m) @ t=0.88
-0.03127153008678474
% es.tEY (V/m) @ t=0.88
0
% es.tEZ (V/m) @ t=0.88
-0.0318537130135394
% es.Ex (V/m) @ t=0.88
-0.031271530086784516
% es.Ey (V/m) @ t=0.88
0.015326228790147667
% es.Ez (V/m) @ t=0.88
-0.03185371301354145
% es.tEx (V/m) @ t=0.88
-0.03127153008678474
% es.tEy (V/m) @ t=0.88
0
% es.tEz (V/m) @ t=0.88
-0.0318537130135394
% V (V) @ t=0.88
0.009807776649866705
% es.normE (V/m) @ t=0.9
0.047625119860949514
% es.EX (V/m) @ t=0.9
-0.03155585918681236
% es.EY (V/m) @ t=0.9
0.015465614254940085
% es.EZ (V/m) @ t=0.9
-0.03214334407726227
% es.tEX (V/m) @ t=0.9
-0.03155585918681336
% es.tEY (V/m) @ t=0.9
0
% es.tEZ (V/m) @ t=0.9
-0.03214334407726088
% es.Ex (V/m) @ t=0.9
-0.03155585918681236
% es.Ey (V/m) @ t=0.9
0.015465614254940085
% es.Ez (V/m) @ t=0.9
-0.03214334407726227
% es.tEx (V/m) @ t=0.9
-0.03155585918681336
% es.tEy (V/m) @ t=0.9
0
% es.tEz (V/m) @ t=0.9
-0.03214334407726088
% V (V) @ t=0.9
0.009897028926811009
% es.normE (V/m) @ t=0.92
0.04805425561685452
% es.EX (V/m) @ t=0.92
-0.031840188286842874
% es.EY (V/m) @ t=0.92
0.015604999719735169
% es.EZ (V/m) @ t=0.92
-0.032432975140980425
% es.tEX (V/m) @ t=0.92
-0.03184018828684321
% es.tEY (V/m) @ t=0.92
0
% es.tEZ (V/m) @ t=0.92
-0.0324329751409807
% es.Ex (V/m) @ t=0.92
-0.031840188286842874
% es.Ey (V/m) @ t=0.92
0.015604999719735169
% es.Ez (V/m) @ t=0.92
-0.032432975140980425
% es.tEx (V/m) @ t=0.92
-0.03184018828684321
% es.tEy (V/m) @ t=0.92
0
% es.tEz (V/m) @ t=0.92
-0.0324329751409807
% V (V) @ t=0.92
0.009986281203755313
% es.normE (V/m) @ t=0.94
0.04848339137277156
% es.EX (V/m) @ t=0.94
-0.032124517386864504
% es.EY (V/m) @ t=0.94
0.015744385184524035
% es.EZ (V/m) @ t=0.94
-0.03272260620469769
% es.tEX (V/m) @ t=0.94
-0.03212451738686373
% es.tEY (V/m) @ t=0.94
0
% es.tEZ (V/m) @ t=0.94
-0.03272260620469858
% es.Ex (V/m) @ t=0.94
-0.032124517386864504
% es.Ey (V/m) @ t=0.94
0.015744385184524035
% es.Ez (V/m) @ t=0.94
-0.03272260620469769
% es.tEx (V/m) @ t=0.94
-0.03212451738686373
% es.tEy (V/m) @ t=0.94
0
% es.tEz (V/m) @ t=0.94
-0.03272260620469858
% V (V) @ t=0.94
0.010075533480699617
% es.normE (V/m) @ t=0.96
0.048912527128722655
% es.EX (V/m) @ t=0.96
-0.03240884648689324
% es.EY (V/m) @ t=0.96
0.015883770649328888
% es.EZ (V/m) @ t=0.96
-0.033012237268421174
% es.tEX (V/m) @ t=0.96
-0.03240884648689368
% es.tEY (V/m) @ t=0.96
0
% es.tEZ (V/m) @ t=0.96
-0.0330122372684184
% es.Ex (V/m) @ t=0.96
-0.03240884648689324
% es.Ey (V/m) @ t=0.96
0.015883770649328888
% es.Ez (V/m) @ t=0.96
-0.033012237268421174
% es.tEx (V/m) @ t=0.96
-0.03240884648689368
% es.tEy (V/m) @ t=0.96
0
% es.tEz (V/m) @ t=0.96
-0.0330122372684184
% V (V) @ t=0.96
0.010164785757643919
% es.normE (V/m) @ t=0.98
0.04934166288468535
% es.EX (V/m) @ t=0.98
-0.03269317558692286
% es.EY (V/m) @ t=0.98
0.01602315611411509
% es.EZ (V/m) @ t=0.98
-0.033301868332141105
% es.tEX (V/m) @ t=0.98
-0.03269317558692497
% es.tEY (V/m) @ t=0.98
0
% es.tEZ (V/m) @ t=0.98
-0.03330186833214166
% es.Ex (V/m) @ t=0.98
-0.03269317558692286
% es.Ey (V/m) @ t=0.98
0.01602315611411509
% es.Ez (V/m) @ t=0.98
-0.033301868332141105
% es.tEx (V/m) @ t=0.98
-0.03269317558692497
% es.tEy (V/m) @ t=0.98
0
% es.tEz (V/m) @ t=0.98
-0.03330186833214166
% V (V) @ t=0.98
0.010254038034588221
% es.normE (V/m) @ t=1
0.04977079864066747
% es.EX (V/m) @ t=1
-0.03297750468695071
% es.EY (V/m) @ t=1
0.01616254157891195
% es.EZ (V/m) @ t=1
-0.03359149939585837
% es.tEX (V/m) @ t=1
-0.03297750468695204
% es.tEY (V/m) @ t=1
0
% es.tEZ (V/m) @ t=1