% Model:              1 neuron.mph
% Version:            COMSOL 6.1.0.252
% Date:               Mar 26 2023, 14:33
% Dimension:          0
% Nodes:              14017
% Expressions:        14017
% Description:        Electric field norm, Electric field, X component, Electric field, Y component, Electric field, Z component, Tangential electric field, X component, Tangential electric field, Y component, Tangential electric field, Z component, Electric field, x component, Electric field, y component, Electric field, z component, Tangential electric field, x component, Tangential electric field, y component, Tangential electric field, z component, Electric potential
% Length unit:        mm
% x
1.33
% y
14.200000000000001
% z
2.0000000000000004
% es.normE (V/m) @ t=0
0.03493373958041707
% es.EX (V/m) @ t=0
0.015412949195805936
% es.EY (V/m) @ t=0
0.003911456383352885
% es.EZ (V/m) @ t=0
-0.03110478527688354
% es.tEX (V/m) @ t=0
0.015412949195797943
% es.tEY (V/m) @ t=0
0
% es.tEZ (V/m) @ t=0
-0.031104785276885316
% es.Ex (V/m) @ t=0
0.015412949195805936
% es.Ey (V/m) @ t=0
0.003911456383352885
% es.Ez (V/m) @ t=0
-0.03110478527688354
% es.tEx (V/m) @ t=0
0.015412949195797943
% es.tEy (V/m) @ t=0
0
% es.tEz (V/m) @ t=0
-0.031104785276885316
% V (V) @ t=0
0.007049232803303886
% es.normE (V/m) @ t=0.02
0.03196982682271304
% es.EX (V/m) @ t=0.02
0.014105255581945642
% es.EY (V/m) @ t=0.02
0.003579593134482195
% es.EZ (V/m) @ t=0.02
-0.028465735631348466
% es.tEX (V/m) @ t=0.02
0.014105255581943865
% es.tEY (V/m) @ t=0.02
0
% es.tEZ (V/m) @ t=0.02
-0.028465735631350242
% es.Ex (V/m) @ t=0.02
0.014105255581945642
% es.Ey (V/m) @ t=0.02
0.003579593134482195
% es.Ez (V/m) @ t=0.02
-0.028465735631348466
% es.tEx (V/m) @ t=0.02
0.014105255581943865
% es.tEy (V/m) @ t=0.02
0
% es.tEz (V/m) @ t=0.02
-0.028465735631350242
% V (V) @ t=0.02
0.006451148745584354
% es.normE (V/m) @ t=0.04
0.03226317866884805
% es.EX (V/m) @ t=0.04
0.014234683681866755
% es.EY (V/m) @ t=0.04
0.003612439390584754
% es.EZ (V/m) @ t=0.04
-0.028726934398653814
% es.tEX (V/m) @ t=0.04
0.014234683681862315
% es.tEY (V/m) @ t=0.04
0
% es.tEZ (V/m) @ t=0.04
-0.02872693439865559
% es.Ex (V/m) @ t=0.04
0.014234683681866755
% es.Ey (V/m) @ t=0.04
0.003612439390584754
% es.Ez (V/m) @ t=0.04
-0.028726934398653814
% es.tEx (V/m) @ t=0.04
0.014234683681862315
% es.tEy (V/m) @ t=0.04
0
% es.tEz (V/m) @ t=0.04
-0.02872693439865559
% V (V) @ t=0.04
0.006510343874897826
% es.normE (V/m) @ t=0.06
0.03256006822909706
% es.EX (V/m) @ t=0.06
0.014365672170037591
% es.EY (V/m) @ t=0.06
0.00364568223902495
% es.EZ (V/m) @ t=0.06
-0.028991283296855297
% es.tEX (V/m) @ t=0.06
0.01436567217002871
% es.tEY (V/m) @ t=0.06
0
% es.tEZ (V/m) @ t=0.06
-0.02899128329685885
% es.Ex (V/m) @ t=0.06
0.014365672170037591
% es.Ey (V/m) @ t=0.06
0.00364568223902495
% es.Ez (V/m) @ t=0.06
-0.028991283296855297
% es.tEx (V/m) @ t=0.06
0.01436567217002871
% es.tEy (V/m) @ t=0.06
0
% es.tEz (V/m) @ t=0.06
-0.02899128329685885
% V (V) @ t=0.06
0.006570252966105475
% es.normE (V/m) @ t=0.08
0.032859397155519963
% es.EX (V/m) @ t=0.08
0.014497739950709132
% es.EY (V/m) @ t=0.08
0.003679195144866032
% es.EZ (V/m) @ t=0.08
-0.029257803075962485
% es.tEX (V/m) @ t=0.08
0.01449773995070025
% es.tEY (V/m) @ t=0.08
0
% es.tEZ (V/m) @ t=0.08
-0.02925780307596426
% es.Ex (V/m) @ t=0.08
0.014497739950709132
% es.Ey (V/m) @ t=0.08
0.003679195144866032
% es.Ez (V/m) @ t=0.08
-0.029257803075962485
% es.tEx (V/m) @ t=0.08
0.01449773995070025
% es.tEy (V/m) @ t=0.08
0
% es.tEz (V/m) @ t=0.08
-0.02925780307596426
% V (V) @ t=0.08
0.006630653719391309
% es.normE (V/m) @ t=0.1
0.033164746038739916
% es.EX (V/m) @ t=0.1
0.014632471248765988
% es.EY (V/m) @ t=0.1
0.0037133745082535974
% es.EZ (V/m) @ t=0.1
-0.029529680234123834
% es.tEX (V/m) @ t=0.1
0.014632471248760659
% es.tEY (V/m) @ t=0.1
0
% es.tEZ (V/m) @ t=0.1
-0.029529680234127387
% es.Ex (V/m) @ t=0.1
0.014632471248765988
% es.Ey (V/m) @ t=0.1
0.0037133745082535974
% es.Ez (V/m) @ t=0.1
-0.029529680234123834
% es.tEx (V/m) @ t=0.1
0.014632471248760659
% es.tEy (V/m) @ t=0.1
0
% es.tEz (V/m) @ t=0.1
-0.029529680234127387
% V (V) @ t=0.1
0.006692267814278846
% es.normE (V/m) @ t=0.12
0.03347009492196802
% es.EX (V/m) @ t=0.12
0.01476720254682462
% es.EY (V/m) @ t=0.12
0.003747553871638498
% es.EZ (V/m) @ t=0.12
-0.02980155739228696
% es.tEX (V/m) @ t=0.12
0.014767202546819291
% es.tEY (V/m) @ t=0.12
0
% es.tEZ (V/m) @ t=0.12
-0.02980155739229229
% es.Ex (V/m) @ t=0.12
0.01476720254682462
% es.Ey (V/m) @ t=0.12
0.003747553871638498
% es.Ez (V/m) @ t=0.12
-0.02980155739228696
% es.tEx (V/m) @ t=0.12
0.014767202546819291
% es.tEy (V/m) @ t=0.12
0
% es.tEz (V/m) @ t=0.12
-0.02980155739229229
% V (V) @ t=0.12
0.006753881909166383
% es.normE (V/m) @ t=0.14
0.03377544380520009
% es.EX (V/m) @ t=0.14
0.014901933844883253
% es.EY (V/m) @ t=0.14
0.0037817332350305044
% es.EZ (V/m) @ t=0.14
-0.030073434550446976
% es.tEX (V/m) @ t=0.14
0.01490193384487526
% es.tEY (V/m) @ t=0.14
0
% es.tEZ (V/m) @ t=0.14
-0.03007343455045053
% es.Ex (V/m) @ t=0.14
0.014901933844883253
% es.Ey (V/m) @ t=0.14
0.0037817332350305044
% es.Ez (V/m) @ t=0.14
-0.030073434550446976
% es.tEx (V/m) @ t=0.14
0.01490193384487526
% es.tEy (V/m) @ t=0.14
0
% es.tEz (V/m) @ t=0.14
-0.03007343455045053
% V (V) @ t=0.14
0.0068154960040539185
% es.normE (V/m) @ t=0.16
0.034091343576849426
% es.EX (V/m) @ t=0.16
0.01504131324709057
% es.EY (V/m) @ t=0.16
0.003817101057444816
% es.EZ (V/m) @ t=0.16
-0.03035470873184165
% es.tEX (V/m) @ t=0.16
0.015041313247082577
% es.tEY (V/m) @ t=0.16
0
% es.tEZ (V/m) @ t=0.16
-0.030354708731845204
% es.Ex (V/m) @ t=0.16
0.01504131324709057
% es.Ey (V/m) @ t=0.16
0.003817101057444816
% es.Ez (V/m) @ t=0.16
-0.03035470873184165
% es.tEx (V/m) @ t=0.16
0.015041313247082577
% es.tEy (V/m) @ t=0.16
0
% es.tEz (V/m) @ t=0.16
-0.030354708731845204
% V (V) @ t=0.16
0.00687924047518652
% es.normE (V/m) @ t=0.18
0.034414816230335626
% es.EX (V/m) @ t=0.18
0.015184028817975204
% es.EY (V/m) @ t=0.18
0.003853321894270234
% es.EZ (V/m) @ t=0.18
-0.030642727610345144
% es.tEX (V/m) @ t=0.18
0.015184028817966322
% es.tEY (V/m) @ t=0.18
0
% es.tEZ (V/m) @ t=0.18
-0.030642727610350473
% es.Ex (V/m) @ t=0.18
0.015184028817975204
% es.Ey (V/m) @ t=0.18
0.003853321894270234
% es.Ez (V/m) @ t=0.18
-0.030642727610345144
% es.tEx (V/m) @ t=0.18
0.015184028817966322
% es.tEy (V/m) @ t=0.18
0
% es.tEz (V/m) @ t=0.18
-0.030642727610350473
% V (V) @ t=0.18
0.006944514020171269
% es.normE (V/m) @ t=0.2
0.034738288883831715
% es.EX (V/m) @ t=0.2
0.015326744388872271
% es.EY (V/m) @ t=0.2
0.0038895427310783326
% es.EZ (V/m) @ t=0.2
-0.0309307464888553
% es.tEX (V/m) @ t=0.2
0.01532674438886339
% es.tEY (V/m) @ t=0.2
0
% es.tEZ (V/m) @ t=0.2
-0.03093074648885885
% es.Ex (V/m) @ t=0.2
0.015326744388872271
% es.Ey (V/m) @ t=0.2
0.0038895427310783326
% es.Ez (V/m) @ t=0.2
-0.0309307464888553
% es.tEx (V/m) @ t=0.2
0.01532674438886339
% es.tEy (V/m) @ t=0.2
0
% es.tEz (V/m) @ t=0.2
-0.03093074648885885
% V (V) @ t=0.2
0.0070097875651560166
% es.normE (V/m) @ t=0.22
0.03506176153731774
% es.EX (V/m) @ t=0.22
0.015469459959755127
% es.EY (V/m) @ t=0.22
0.003925763567894869
% es.EZ (V/m) @ t=0.22
-0.03121876536735968
% es.tEX (V/m) @ t=0.22
0.015469459959753351
% es.tEY (V/m) @ t=0.22
0
% es.tEZ (V/m) @ t=0.22
-0.03121876536736501
% es.Ex (V/m) @ t=0.22
0.015469459959755127
% es.Ey (V/m) @ t=0.22
0.003925763567894869
% es.Ez (V/m) @ t=0.22
-0.03121876536735968
% es.tEx (V/m) @ t=0.22
0.015469459959753351
% es.tEy (V/m) @ t=0.22
0
% es.tEz (V/m) @ t=0.22
-0.03121876536736501
% V (V) @ t=0.22
0.007075061110140763
% es.normE (V/m) @ t=0.24
0.035385234190812416
% es.EX (V/m) @ t=0.24
0.015612175530648642
% es.EY (V/m) @ t=0.24
0.003961984404700747
% es.EZ (V/m) @ t=0.24
-0.03150678424586939
% es.tEX (V/m) @ t=0.24
0.015612175530644201
% es.tEY (V/m) @ t=0.24
0
% es.tEZ (V/m) @ t=0.24
-0.03150678424587294
% es.Ex (V/m) @ t=0.24
0.015612175530648642
% es.Ey (V/m) @ t=0.24
0.003961984404700747
% es.Ez (V/m) @ t=0.24
-0.03150678424586939
% es.tEx (V/m) @ t=0.24
0.015612175530644201
% es.tEy (V/m) @ t=0.24
0
% es.tEz (V/m) @ t=0.24
-0.03150678424587294
% V (V) @ t=0.24
0.00714033465512551
% es.normE (V/m) @ t=0.26
0.03570870684430784
% es.EX (V/m) @ t=0.26
0.015754891101538604
% es.EY (V/m) @ t=0.26
0.00399820524153105
% es.EZ (V/m) @ t=0.26
-0.03179480312437821
% es.tEX (V/m) @ t=0.26
0.015754891101529722
% es.tEY (V/m) @ t=0.26
0
% es.tEZ (V/m) @ t=0.26
-0.03179480312437999
% es.Ex (V/m) @ t=0.26
0.015754891101538604
% es.Ey (V/m) @ t=0.26
0.00399820524153105
% es.Ez (V/m) @ t=0.26
-0.03179480312437821
% es.tEx (V/m) @ t=0.26
0.015754891101529722
% es.tEy (V/m) @ t=0.26
0
% es.tEz (V/m) @ t=0.26
-0.03179480312437999
% V (V) @ t=0.26
0.007205608200110257
% es.normE (V/m) @ t=0.28
0.0360321794978009
% es.EX (V/m) @ t=0.28
0.015897606672428566
% es.EY (V/m) @ t=0.28
0.0040344260783546915
% es.EZ (V/m) @ t=0.28
-0.032082822002884814
% es.tEX (V/m) @ t=0.28
0.015897606672419684
% es.tEY (V/m) @ t=0.28
0
% es.tEZ (V/m) @ t=0.28
-0.03208282200288659
% es.Ex (V/m) @ t=0.28
0.015897606672428566
% es.Ey (V/m) @ t=0.28
0.0040344260783546915
% es.Ez (V/m) @ t=0.28
-0.032082822002884814
% es.tEx (V/m) @ t=0.28
0.015897606672419684
% es.tEy (V/m) @ t=0.28
0
% es.tEz (V/m) @ t=0.28
-0.03208282200288659
% V (V) @ t=0.28
0.007270881745095005
% es.normE (V/m) @ t=0.3
0.03635893257235928
% es.EX (V/m) @ t=0.3
0.01604176922882239
% es.EY (V/m) @ t=0.3
0.004071014574469345
% es.EZ (V/m) @ t=0.3
-0.032373761878178975
% es.tEX (V/m) @ t=0.3
0.016041769228813507
% es.tEY (V/m) @ t=0.3
0
% es.tEZ (V/m) @ t=0.3
-0.03237376187818253
% es.Ex (V/m) @ t=0.3
0.01604176922882239
% es.Ey (V/m) @ t=0.3
0.004071014574469345
% es.Ez (V/m) @ t=0.3
-0.032373761878178975
% es.tEx (V/m) @ t=0.3
0.016041769228813507
% es.tEy (V/m) @ t=0.3
0
% es.tEz (V/m) @ t=0.3
-0.03237376187818253
% V (V) @ t=0.3
0.007336817308512073
% es.normE (V/m) @ t=0.32
0.036701730925694794
% es.EX (V/m) @ t=0.32
0.016193009317441387
% es.EY (V/m) @ t=0.32
0.0041094013752185354
% es.EZ (V/m) @ t=0.32
-0.032678989007077774
% es.tEX (V/m) @ t=0.32
0.016193009317432505
% es.tEY (V/m) @ t=0.32
0
% es.tEZ (V/m) @ t=0.32
-0.03267898900708133
% es.Ex (V/m) @ t=0.32
0.016193009317441387
% es.Ey (V/m) @ t=0.32
0.0041094013752185354
% es.Ez (V/m) @ t=0.32
-0.032678989007077774
% es.tEx (V/m) @ t=0.32
0.016193009317432505
% es.tEy (V/m) @ t=0.32
0
% es.tEz (V/m) @ t=0.32
-0.03267898900708133
% V (V) @ t=0.32
0.007405990953283309
% es.normE (V/m) @ t=0.34
0.03704452927903635
% es.EX (V/m) @ t=0.34
0.016344249406063938
% es.EY (V/m) @ t=0.34
0.0041477881759584
% es.EZ (V/m) @ t=0.34
-0.03298421613598146
% es.tEX (V/m) @ t=0.34
0.016344249406055056
% es.tEY (V/m) @ t=0.34
0
% es.tEZ (V/m) @ t=0.34
-0.03298421613598501
% es.Ex (V/m) @ t=0.34
0.016344249406063938
% es.Ey (V/m) @ t=0.34
0.0041477881759584
% es.Ez (V/m) @ t=0.34
-0.03298421613598146
% es.tEx (V/m) @ t=0.34
0.016344249406055056
% es.tEy (V/m) @ t=0.34
0
% es.tEz (V/m) @ t=0.34
-0.03298421613598501
% V (V) @ t=0.34
0.007475164598054544
% es.normE (V/m) @ t=0.36
0.03738732763237383
% es.EX (V/m) @ t=0.36
0.016495489494679383
% es.EY (V/m) @ t=0.36
0.004186174976693824
% es.EZ (V/m) @ t=0.36
-0.03328944326488337
% es.tEX (V/m) @ t=0.36
0.0164954894946705
% es.tEY (V/m) @ t=0.36
0
% es.tEZ (V/m) @ t=0.36
-0.03328944326488692
% es.Ex (V/m) @ t=0.36
0.016495489494679383
% es.Ey (V/m) @ t=0.36
0.004186174976693824
% es.Ez (V/m) @ t=0.36
-0.03328944326488337
% es.tEx (V/m) @ t=0.36
0.0164954894946705
% es.tEy (V/m) @ t=0.36
0
% es.tEz (V/m) @ t=0.36
-0.03328944326488692
% V (V) @ t=0.36
0.007544338242825777
% es.normE (V/m) @ t=0.38
0.03773012598571247
% es.EX (V/m) @ t=0.38
0.016646729583296604
% es.EY (V/m) @ t=0.38
0.004224561777436797
% es.EZ (V/m) @ t=0.38
-0.0335946703937835
% es.tEX (V/m) @ t=0.38
0.016646729583291275
% es.tEY (V/m) @ t=0.38
0
% es.tEZ (V/m) @ t=0.38
-0.03359467039378705
% es.Ex (V/m) @ t=0.38
0.016646729583296604
% es.Ey (V/m) @ t=0.38
0.004224561777436797
% es.Ez (V/m) @ t=0.38
-0.0335946703937835
% es.tEx (V/m) @ t=0.38
0.016646729583291275
% es.tEy (V/m) @ t=0.38
0
% es.tEz (V/m) @ t=0.38
-0.03359467039378705
% V (V) @ t=0.38
0.007613511887597011
% es.normE (V/m) @ t=0.4
0.03807292433904893
% es.EX (V/m) @ t=0.4
0.016797969671913826
% es.EY (V/m) @ t=0.4
0.004262948578168224
% es.EZ (V/m) @ t=0.4
-0.03389989752268141
% es.tEX (V/m) @ t=0.4
0.016797969671904944
% es.tEY (V/m) @ t=0.4
0
% es.tEZ (V/m) @ t=0.4
-0.03389989752268496
% es.Ex (V/m) @ t=0.4
0.016797969671913826
% es.Ey (V/m) @ t=0.4
0.004262948578168224
% es.Ez (V/m) @ t=0.4
-0.03389989752268141
% es.tEx (V/m) @ t=0.4
0.016797969671904944
% es.tEy (V/m) @ t=0.4
0
% es.tEz (V/m) @ t=0.4
-0.03389989752268496
% V (V) @ t=0.4
0.007682685532368246
% es.normE (V/m) @ t=0.42
0.03841572269239169
% es.EX (V/m) @ t=0.42
0.016949209760528383
% es.EY (V/m) @ t=0.42
0.00430133537891475
% es.EZ (V/m) @ t=0.42
-0.03420512465158465
% es.tEX (V/m) @ t=0.42
0.0169492097605195
% es.tEY (V/m) @ t=0.42
0
% es.tEZ (V/m) @ t=0.42
-0.034205124651588203
% es.Ex (V/m) @ t=0.42
0.016949209760528383
% es.Ey (V/m) @ t=0.42
0.00430133537891475
% es.Ez (V/m) @ t=0.42
-0.03420512465158465
% es.tEx (V/m) @ t=0.42
0.0169492097605195
% es.tEy (V/m) @ t=0.42
0
% es.tEz (V/m) @ t=0.42
-0.034205124651588203
% V (V) @ t=0.42
0.00775185917713948
% es.normE (V/m) @ t=0.44
0.03875852104573693
% es.EX (V/m) @ t=0.44
0.017100449849150934
% es.EY (V/m) @ t=0.44
0.0043397221796532826
% es.EZ (V/m) @ t=0.44
-0.03451035178048656
% es.tEX (V/m) @ t=0.44
0.017100449849142052
% es.tEY (V/m) @ t=0.44
0
% es.tEZ (V/m) @ t=0.44
-0.03451035178049011
% es.Ex (V/m) @ t=0.44
0.017100449849150934
% es.Ey (V/m) @ t=0.44
0.0043397221796532826
% es.Ez (V/m) @ t=0.44
-0.03451035178048656
% es.tEx (V/m) @ t=0.44
0.017100449849142052
% es.tEy (V/m) @ t=0.44
0
% es.tEz (V/m) @ t=0.44
-0.03451035178049011
% V (V) @ t=0.44
0.007821032821910715
% es.normE (V/m) @ t=0.46
0.03913471787540339
% es.EX (V/m) @ t=0.46
0.01726642916140353
% es.EY (V/m) @ t=0.46
0.004381844849010275
% es.EZ (V/m) @ t=0.46
-0.03484531536549573
% es.tEX (V/m) @ t=0.46
0.017266429161394647
% es.tEY (V/m) @ t=0.46
0
% es.tEZ (V/m) @ t=0.46
-0.034845315365499285
% es.Ex (V/m) @ t=0.46
0.01726642916140353
% es.Ey (V/m) @ t=0.46
0.004381844849010275
% es.Ez (V/m) @ t=0.46
-0.03484531536549573
% es.tEx (V/m) @ t=0.46
0.017266429161394647
% es.tEy (V/m) @ t=0.46
0
% es.tEz (V/m) @ t=0.46
-0.034845315365499285
% V (V) @ t=0.46
0.007896945212255438
% es.normE (V/m) @ t=0.48
0.03952161649649285
% es.EX (V/m) @ t=0.48
0.017437131326744293
% es.EY (V/m) @ t=0.48
0.004425164593540032
% es.EZ (V/m) @ t=0.48
-0.035189807329819356
% es.tEX (V/m) @ t=0.48
0.01743713132673541
% es.tEY (V/m) @ t=0.48
0
% es.tEZ (V/m) @ t=0.48
-0.03518980732982291
% es.Ex (V/m) @ t=0.48
0.017437131326744293
% es.Ey (V/m) @ t=0.48
0.004425164593540032
% es.Ez (V/m) @ t=0.48
-0.035189807329819356
% es.tEx (V/m) @ t=0.48
0.01743713132673541
% es.tEy (V/m) @ t=0.48
0
% es.tEz (V/m) @ t=0.48
-0.03518980732982291
% V (V) @ t=0.48
0.007975016882227418
% es.normE (V/m) @ t=0.5
0.03990851511758096
% es.EX (V/m) @ t=0.5
0.01760783349208328
% es.EY (V/m) @ t=0.5
0.004468484338078671
% es.EZ (V/m) @ t=0.5
-0.0355342992941412
% es.tEX (V/m) @ t=0.5
0.01760783349207795
% es.tEY (V/m) @ t=0.5
0
% es.tEZ (V/m) @ t=0.5
-0.035534299294144756
% es.Ex (V/m) @ t=0.5
0.01760783349208328
% es.Ey (V/m) @ t=0.5
0.004468484338078671
% es.Ez (V/m) @ t=0.5
-0.0355342992941412
% es.tEx (V/m) @ t=0.5
0.01760783349207795
% es.tEy (V/m) @ t=0.5
0
% es.tEz (V/m) @ t=0.5
-0.035534299294144756
% V (V) @ t=0.5
0.008053088552199397
% es.normE (V/m) @ t=0.52
0.0402954137386702
% es.EX (V/m) @ t=0.52
0.017778535657427597
% es.EY (V/m) @ t=0.52
0.004511804082599102
% es.EZ (V/m) @ t=0.52
-0.03587879125846394
% es.tEX (V/m) @ t=0.52
0.017778535657418715
% es.tEY (V/m) @ t=0.52
0
% es.tEZ (V/m) @ t=0.52
-0.03587879125846749
% es.Ex (V/m) @ t=0.52
0.017778535657427597
% es.Ey (V/m) @ t=0.52
0.004511804082599102
% es.Ez (V/m) @ t=0.52
-0.03587879125846394
% es.tEx (V/m) @ t=0.52
0.017778535657418715
% es.tEy (V/m) @ t=0.52
0
% es.tEz (V/m) @ t=0.52
-0.03587879125846749
% V (V) @ t=0.52
0.008131160222171377
% es.normE (V/m) @ t=0.54
0.04068231235975716
% es.EX (V/m) @ t=0.54
0.017949237822766584
% es.EY (V/m) @ t=0.54
0.004555123827134189
% es.EZ (V/m) @ t=0.54
-0.0362232832227849
% es.tEX (V/m) @ t=0.54
0.017949237822757702
% es.tEY (V/m) @ t=0.54
0
% es.tEZ (V/m) @ t=0.54
-0.03622328322278845
% es.Ex (V/m) @ t=0.54
0.017949237822766584
% es.Ey (V/m) @ t=0.54
0.004555123827134189
% es.Ez (V/m) @ t=0.54
-0.0362232832227849
% es.tEx (V/m) @ t=0.54
0.017949237822757702
% es.tEy (V/m) @ t=0.54
0
% es.tEz (V/m) @ t=0.54
-0.03622328322278845
% V (V) @ t=0.54
0.008209231892143358
% es.normE (V/m) @ t=0.56
0.04106921098084703
% es.EX (V/m) @ t=0.56
0.0181199399881109
% es.EY (V/m) @ t=0.56
0.00459844357167416
% es.EZ (V/m) @ t=0.56
-0.036567775187105855
% es.tEX (V/m) @ t=0.56
0.01811993998810202
% es.tEY (V/m) @ t=0.56
0
% es.tEZ (V/m) @ t=0.56
-0.03656777518710941
% es.Ex (V/m) @ t=0.56
0.0181199399881109
% es.Ey (V/m) @ t=0.56
0.00459844357167416
% es.Ez (V/m) @ t=0.56
-0.036567775187105855
% es.tEx (V/m) @ t=0.56
0.01811993998810202
% es.tEy (V/m) @ t=0.56
0
% es.tEz (V/m) @ t=0.56
-0.03656777518710941
% V (V) @ t=0.56
0.008287303562115336
% es.normE (V/m) @ t=0.58
0.04145610960193333
% es.EX (V/m) @ t=0.58
0.018290642153449888
% es.EY (V/m) @ t=0.58
0.004641763316195924
% es.EZ (V/m) @ t=0.58
-0.0369122671514277
% es.tEX (V/m) @ t=0.58
0.018290642153437453
% es.tEY (V/m) @ t=0.58
0
% es.tEZ (V/m) @ t=0.58
-0.036912267151431255
% es.Ex (V/m) @ t=0.58
0.018290642153449888
% es.Ey (V/m) @ t=0.58
0.004641763316195924
% es.Ez (V/m) @ t=0.58
-0.0369122671514277
% es.tEx (V/m) @ t=0.58
0.018290642153437453
% es.tEy (V/m) @ t=0.58
0
% es.tEz (V/m) @ t=0.58
-0.036912267151431255
% V (V) @ t=0.58
0.008365375232087318
% es.normE (V/m) @ t=0.6
0.04184300822302143
% es.EX (V/m) @ t=0.6
0.01846134431879065
% es.EY (V/m) @ t=0.6
0.00468508306074078
% es.EZ (V/m) @ t=0.6
-0.03725675911574777
% es.tEX (V/m) @ t=0.6
0.018461344318785322
% es.tEY (V/m) @ t=0.6
0
% es.tEZ (V/m) @ t=0.6
-0.0372567591157531
% es.Ex (V/m) @ t=0.6
0.01846134431879065
% es.Ey (V/m) @ t=0.6
0.00468508306074078
% es.Ez (V/m) @ t=0.6
-0.03725675911574777
% es.tEx (V/m) @ t=0.6
0.018461344318785322
% es.tEy (V/m) @ t=0.6
0
% es.tEz (V/m) @ t=0.6
-0.0372567591157531
% V (V) @ t=0.6
0.008443446902059296
% es.normE (V/m) @ t=0.62
0.04222990684410582
% es.EX (V/m) @ t=0.62
0.01863204648413319
% es.EY (V/m) @ t=0.62
0.0047284028052665406
% es.EZ (V/m) @ t=0.62
-0.03760125108006518
% es.tEX (V/m) @ t=0.62
0.01863204648412431
% es.tEY (V/m) @ t=0.62
0
% es.tEZ (V/m) @ t=0.62
-0.03760125108007051
% es.Ex (V/m) @ t=0.62
0.01863204648413319
% es.Ey (V/m) @ t=0.62
0.0047284028052665406
% es.Ez (V/m) @ t=0.62
-0.03760125108006518
% es.tEx (V/m) @ t=0.62
0.01863204648412431
% es.tEy (V/m) @ t=0.62
0
% es.tEz (V/m) @ t=0.62
-0.03760125108007051
% V (V) @ t=0.62
0.008521518572031277
% es.normE (V/m) @ t=0.64
0.04261680546519751
% es.EX (V/m) @ t=0.64
0.01880274864947218
% es.EY (V/m) @ t=0.64
0.004771722549807844
% es.EZ (V/m) @ t=0.64
-0.03794574304439058
% es.tEX (V/m) @ t=0.64
0.018802748649459744
% es.tEY (V/m) @ t=0.64
0
% es.tEZ (V/m) @ t=0.64
-0.03794574304439591
% es.Ex (V/m) @ t=0.64
0.01880274864947218
% es.Ey (V/m) @ t=0.64
0.004771722549807844
% es.Ez (V/m) @ t=0.64
-0.03794574304439058
% es.tEx (V/m) @ t=0.64
0.018802748649459744
% es.tEy (V/m) @ t=0.64
0
% es.tEz (V/m) @ t=0.64
-0.03794574304439591
% V (V) @ t=0.64
0.008599590242003257
% es.normE (V/m) @ t=0.66
0.04300370408627982
% es.EX (V/m) @ t=0.66
0.01897345081480939
% es.EY (V/m) @ t=0.66
0.00481504229432872
% es.EZ (V/m) @ t=0.66
-0.03829023500870887
% es.tEX (V/m) @ t=0.66
0.018973450814800508
% es.tEY (V/m) @ t=0.66
0
% es.tEZ (V/m) @ t=0.66
-0.03829023500871065
% es.Ex (V/m) @ t=0.66
0.01897345081480939
% es.Ey (V/m) @ t=0.66
0.00481504229432872
% es.Ez (V/m) @ t=0.66
-0.03829023500870887
% es.tEx (V/m) @ t=0.66
0.018973450814800508
% es.tEy (V/m) @ t=0.66
0
% es.tEz (V/m) @ t=0.66
-0.03829023500871065
% V (V) @ t=0.66
0.008677661911975238
% es.normE (V/m) @ t=0.68
0.04339060270737137
% es.EX (V/m) @ t=0.68
0.019144152980155482
% es.EY (V/m) @ t=0.68
0.004858362038868691
% es.EZ (V/m) @ t=0.68
-0.03863472697303072
% es.tEX (V/m) @ t=0.68
0.0191441529801466
% es.tEY (V/m) @ t=0.68
0
% es.tEZ (V/m) @ t=0.68
-0.03863472697303427
% es.Ex (V/m) @ t=0.68
0.019144152980155482
% es.Ey (V/m) @ t=0.68
0.004858362038868691
% es.Ez (V/m) @ t=0.68
-0.03863472697303072
% es.tEx (V/m) @ t=0.68
0.0191441529801466
% es.tEy (V/m) @ t=0.68
0
% es.tEz (V/m) @ t=0.68
-0.03863472697303427
% V (V) @ t=0.68
0.008755733581947218
% es.normE (V/m) @ t=0.7
0.04377750132845984
% es.EX (V/m) @ t=0.7
0.01931485514549447
% es.EY (V/m) @ t=0.7
0.004901681783394896
% es.EZ (V/m) @ t=0.7
-0.03897921893735434
% es.tEX (V/m) @ t=0.7
0.019314855145482035
% es.tEY (V/m) @ t=0.7
0
% es.tEZ (V/m) @ t=0.7
-0.038979218937357896
% es.Ex (V/m) @ t=0.7
0.01931485514549447
% es.Ey (V/m) @ t=0.7
0.004901681783394896
% es.Ez (V/m) @ t=0.7
-0.03897921893735434
% es.tEx (V/m) @ t=0.7
0.019314855145482035
% es.tEy (V/m) @ t=0.7
0
% es.tEz (V/m) @ t=0.7
-0.038979218937357896
% V (V) @ t=0.7
0.008833805251919197
% es.normE (V/m) @ t=0.72
0.04416439994954597
% es.EX (V/m) @ t=0.72
0.01948555731083168
% es.EY (V/m) @ t=0.72
0.004945001527938864
% es.EZ (V/m) @ t=0.72
-0.03932371090167397
% es.tEX (V/m) @ t=0.72
0.019485557310819246
% es.tEY (V/m) @ t=0.72
0
% es.tEZ (V/m) @ t=0.72
-0.03932371090167752
% es.Ex (V/m) @ t=0.72
0.01948555731083168
% es.Ey (V/m) @ t=0.72
0.004945001527938864
% es.Ez (V/m) @ t=0.72
-0.03932371090167397
% es.tEx (V/m) @ t=0.72
0.019485557310819246
% es.tEy (V/m) @ t=0.72
0
% es.tEz (V/m) @ t=0.72
-0.03932371090167752
% V (V) @ t=0.72
0.008911876921891175
% es.normE (V/m) @ t=0.74
0.04455129857063118
% es.EX (V/m) @ t=0.74
0.019656259476167115
% es.EY (V/m) @ t=0.74
0.004988321272477947
% es.EZ (V/m) @ t=0.74
-0.03966820286599404
% es.tEX (V/m) @ t=0.74
0.019656259476158233
% es.tEY (V/m) @ t=0.74
0
% es.tEZ (V/m) @ t=0.74
-0.03966820286599759
% es.Ex (V/m) @ t=0.74
0.019656259476167115
% es.Ey (V/m) @ t=0.74
0.004988321272477947
% es.Ez (V/m) @ t=0.74
-0.03966820286599404
% es.tEx (V/m) @ t=0.74
0.019656259476158233
% es.tEy (V/m) @ t=0.74
0
% es.tEz (V/m) @ t=0.74
-0.03966820286599759
% V (V) @ t=0.74
0.008989948591863157
% es.normE (V/m) @ t=0.76
0.04498034518251586
% es.EX (V/m) @ t=0.76
0.01984551507625909
% es.EY (V/m) @ t=0.76
0.005036403270240353
% es.EZ (V/m) @ t=0.76
-0.04005023877826153
% es.tEX (V/m) @ t=0.76
0.01984551507625021
% es.tEY (V/m) @ t=0.76
0
% es.tEZ (V/m) @ t=0.76
-0.04005023877826508
% es.Ex (V/m) @ t=0.76
0.01984551507625909
% es.Ey (V/m) @ t=0.76
0.005036403270240353
% es.Ez (V/m) @ t=0.76
-0.04005023877826153
% es.tEx (V/m) @ t=0.76
0.01984551507625021
% es.tEy (V/m) @ t=0.76
0
% es.tEz (V/m) @ t=0.76
-0.04005023877826508
% V (V) @ t=0.76
0.009076533283364694
% es.normE (V/m) @ t=0.78
0.04541244255407046
% es.EX (V/m) @ t=0.78
0.020036113612686535
% es.EY (V/m) @ t=0.78
0.00508482996984938
% es.EZ (V/m) @ t=0.78
-0.04043499219987545
% es.tEX (V/m) @ t=0.78
0.0200361136126741
% es.tEY (V/m) @ t=0.78
0
% es.tEZ (V/m) @ t=0.78
-0.040434992199879005
% es.Ex (V/m) @ t=0.78
0.020036113612686535
% es.Ey (V/m) @ t=0.78
0.00508482996984938
% es.Ez (V/m) @ t=0.78
-0.04043499219987545
% es.tEx (V/m) @ t=0.78
0.0200361136126741
% es.tEy (V/m) @ t=0.78
0
% es.tEz (V/m) @ t=0.78
-0.040434992199879005
% V (V) @ t=0.78
0.009163734165141175
% es.normE (V/m) @ t=0.8
0.04584453992571948
% es.EX (V/m) @ t=0.8
0.02022671214911398
% es.EY (V/m) @ t=0.8
0.0051332566694606285
% es.EZ (V/m) @ t=0.8
-0.04081974562149071
% es.tEX (V/m) @ t=0.8
0.020226712149105097
% es.tEY (V/m) @ t=0.8
0
% es.tEZ (V/m) @ t=0.8
-0.04081974562149604
% es.Ex (V/m) @ t=0.8
0.02022671214911398
% es.Ey (V/m) @ t=0.8
0.0051332566694606285
% es.Ez (V/m) @ t=0.8
-0.04081974562149071
% es.tEx (V/m) @ t=0.8
0.020226712149105097
% es.tEy (V/m) @ t=0.8
0
% es.tEz (V/m) @ t=0.8
-0.04081974562149604
% V (V) @ t=0.8
0.009250935046917659
% es.normE (V/m) @ t=0.82
0.046276637297461086
% es.EX (V/m) @ t=0.82
0.0204173106855432
% es.EY (V/m) @ t=0.82
0.00518168336907765
% es.EZ (V/m) @ t=0.82
-0.04120449904310686
% es.tEX (V/m) @ t=0.82
0.020417310685530765
% es.tEY (V/m) @ t=0.82
0
% es.tEZ (V/m) @ t=0.82
-0.04120449904311041
% es.Ex (V/m) @ t=0.82
0.0204173106855432
% es.Ey (V/m) @ t=0.82
0.00518168336907765
% es.Ez (V/m) @ t=0.82
-0.04120449904310686
% es.tEx (V/m) @ t=0.82
0.020417310685530765
% es.tEy (V/m) @ t=0.82
0
% es.tEz (V/m) @ t=0.82
-0.04120449904311041
% V (V) @ t=0.82
0.009338135928694142
% es.normE (V/m) @ t=0.84
0.046708734669296086
% es.EX (V/m) @ t=0.84
0.020607909221974197
% es.EY (V/m) @ t=0.84
0.005230110068698224
% es.EZ (V/m) @ t=0.84
-0.04158925246472789
% es.tEX (V/m) @ t=0.84
0.020607909221965315
% es.tEY (V/m) @ t=0.84
0
% es.tEZ (V/m) @ t=0.84
-0.041589252464729665
% es.Ex (V/m) @ t=0.84
0.020607909221974197
% es.Ey (V/m) @ t=0.84
0.005230110068698224
% es.Ez (V/m) @ t=0.84
-0.04158925246472789
% es.tEx (V/m) @ t=0.84
0.020607909221965315
% es.tEy (V/m) @ t=0.84
0
% es.tEz (V/m) @ t=0.84
-0.041589252464729665
% V (V) @ t=0.84
0.009425336810470622
% es.normE (V/m) @ t=0.86
0.04714083204120621
% es.EX (V/m) @ t=0.86
0.02079850775840164
% es.EY (V/m) @ t=0.86
0.005278536768304143
% es.EZ (V/m) @ t=0.86
-0.041974005886340926
% es.tEX (V/m) @ t=0.86
0.02079850775839276
% es.tEY (V/m) @ t=0.86
0
% es.tEZ (V/m) @ t=0.86
-0.04197400588634448
% es.Ex (V/m) @ t=0.86
0.02079850775840164
% es.Ey (V/m) @ t=0.86
0.005278536768304143
% es.Ez (V/m) @ t=0.86
-0.041974005886340926
% es.tEx (V/m) @ t=0.86
0.02079850775839276
% es.tEy (V/m) @ t=0.86
0
% es.tEz (V/m) @ t=0.86
-0.04197400588634448
% V (V) @ t=0.86
0.009512537692247107
% es.normE (V/m) @ t=0.88
0.04757292941320379
% es.EX (V/m) @ t=0.88
0.020989106294825532
% es.EY (V/m) @ t=0.88
0.005326963467930934
% es.EZ (V/m) @ t=0.88
-0.04235875930795796
% es.tEX (V/m) @ t=0.88
0.02098910629481665
% es.tEY (V/m) @ t=0.88
0
% es.tEZ (V/m) @ t=0.88
-0.04235875930796151
% es.Ex (V/m) @ t=0.88
0.020989106294825532
% es.Ey (V/m) @ t=0.88
0.005326963467930934
% es.Ez (V/m) @ t=0.88
-0.04235875930795796
% es.tEx (V/m) @ t=0.88
0.02098910629481665
% es.tEy (V/m) @ t=0.88
0
% es.tEz (V/m) @ t=0.88
-0.04235875930796151
% V (V) @ t=0.88
0.00959973857402359
% es.normE (V/m) @ t=0.9
0.04800502678527641
% es.EX (V/m) @ t=0.9
0.021179704831249424
% es.EY (V/m) @ t=0.9
0.005375390167547955
% es.EZ (V/m) @ t=0.9
-0.042743512729569666
% es.tEX (V/m) @ t=0.9
0.021179704831240542
% es.tEY (V/m) @ t=0.9
0
% es.tEZ (V/m) @ t=0.9
-0.04274351272957144
% es.Ex (V/m) @ t=0.9
0.021179704831249424
% es.Ey (V/m) @ t=0.9
0.005375390167547955
% es.Ez (V/m) @ t=0.9
-0.042743512729569666
% es.tEx (V/m) @ t=0.9
0.021179704831240542
% es.tEy (V/m) @ t=0.9
0
% es.tEz (V/m) @ t=0.9
-0.04274351272957144
% V (V) @ t=0.9
0.009686939455800073
% es.normE (V/m) @ t=0.92
0.048437124157441586
% es.EX (V/m) @ t=0.92
0.021370303367682197
% es.EY (V/m) @ t=0.92
0.005423816867154763
% es.EZ (V/m) @ t=0.92
-0.043128266151193806
% es.tEX (V/m) @ t=0.92
0.021370303367673316
% es.tEY (V/m) @ t=0.92
0
% es.tEZ (V/m) @ t=0.92
-0.04312826615119558
% es.Ex (V/m) @ t=0.92
0.021370303367682197
% es.Ey (V/m) @ t=0.92
0.005423816867154763
% es.Ez (V/m) @ t=0.92
-0.043128266151193806
% es.tEx (V/m) @ t=0.92
0.021370303367673316
% es.tEy (V/m) @ t=0.92
0
% es.tEz (V/m) @ t=0.92
-0.04312826615119558
% V (V) @ t=0.92
0.009774140337576558
% es.normE (V/m) @ t=0.94
0.04886922152967471
% es.EX (V/m) @ t=0.94
0.0215609019041203
% es.EY (V/m) @ t=0.94
0.005472243566769119
% es.EZ (V/m) @ t=0.94
-0.04351301957280462
% es.tEX (V/m) @ t=0.94
0.021560901904107865
% es.tEY (V/m) @ t=0.94
0
% es.tEZ (V/m) @ t=0.94
-0.043513019572808176
% es.Ex (V/m) @ t=0.94
0.0215609019041203
% es.Ey (V/m) @ t=0.94
0.005472243566769119
% es.Ez (V/m) @ t=0.94
-0.04351301957280462
% es.tEx (V/m) @ t=0.94
0.021560901904107865
% es.tEy (V/m) @ t=0.94
0
% es.tEz (V/m) @ t=0.94
-0.043513019572808176
% V (V) @ t=0.94
0.00986134121935304
% es.normE (V/m) @ t=0.96
0.04930131890198083
% es.EX (V/m) @ t=0.96
0.021751500440545968
% es.EY (V/m) @ t=0.96
0.005520670266389693
% es.EZ (V/m) @ t=0.96
-0.04389777299441899
% es.tEX (V/m) @ t=0.96
0.021751500440537086
% es.tEY (V/m) @ t=0.96
0
% es.tEZ (V/m) @ t=0.96
-0.043897772994422546
% es.Ex (V/m) @ t=0.96
0.021751500440545968
% es.Ey (V/m) @ t=0.96
0.005520670266389693
% es.Ez (V/m) @ t=0.96
-0.04389777299441899
% es.tEx (V/m) @ t=0.96
0.021751500440537086
% es.tEy (V/m) @ t=0.96
0
% es.tEz (V/m) @ t=0.96
-0.043897772994422546
% V (V) @ t=0.96
0.009948542101129523
% es.normE (V/m) @ t=0.98
0.04973341627436108
% es.EX (V/m) @ t=0.98
0.021942098976971636
% es.EY (V/m) @ t=0.98
0.005569096965988063
% es.EZ (V/m) @ t=0.98
-0.044282526416037804
% es.tEX (V/m) @ t=0.98
0.021942098976960978
% es.tEY (V/m) @ t=0.98
0
% es.tEZ (V/m) @ t=0.98
-0.04428252641603958
% es.Ex (V/m) @ t=0.98
0.021942098976971636
% es.Ey (V/m) @ t=0.98
0.005569096965988063
% es.Ez (V/m) @ t=0.98
-0.044282526416037804
% es.tEx (V/m) @ t=0.98
0.021942098976960978
% es.tEy (V/m) @ t=0.98
0
% es.tEz (V/m) @ t=0.98
-0.04428252641603958
% V (V) @ t=0.98
0.010035742982906009
% es.normE (V/m) @ t=1
0.05016551364680828
% es.EX (V/m) @ t=1
0.022132697513395527
% es.EY (V/m) @ t=1
0.005617523665615742
% es.EZ (V/m) @ t=1
-0.04466727983764951
% es.tEX (V/m) @ t=1
0.022132697513383093
% es.tEY (V/m) @ t=1
0
% es.tEZ (V/m) @ t=1
-0.04466727983765306
% es.Ex (V/m) @ t=1
0.022132697513395527
% es.Ey (V/m) @ t=1
0.005617523665615742
% es.Ez (V/m) @ t=1
-0.04466727983764951
% es.tEx (V/m) @ t=1
0.022132697513383093