% Model:              1 neuron.mph
% Version:            COMSOL 6.1.0.252
% Date:               Mar 26 2023, 14:35
% Dimension:          0
% Nodes:              14017
% Expressions:        14017
% Description:        Electric field norm, Electric field, X component, Electric field, Y component, Electric field, Z component, Tangential electric field, X component, Tangential electric field, Y component, Tangential electric field, Z component, Electric field, x component, Electric field, y component, Electric field, z component, Tangential electric field, x component, Tangential electric field, y component, Tangential electric field, z component, Electric potential
% Length unit:        mm
% x
1.6599999999999997
% y
14.200000000000001
% z
1.3300000000000003
% es.normE (V/m) @ t=0
0.01449499388222741
% es.EX (V/m) @ t=0
-0.010097175836834893
% es.EY (V/m) @ t=0
0.004167608954902313
% es.EZ (V/m) @ t=0
0.009528007313434728
% es.tEX (V/m) @ t=0
-0.010097175836838446
% es.tEY (V/m) @ t=0
0
% es.tEZ (V/m) @ t=0
0.009528007313436504
% es.Ex (V/m) @ t=0
-0.010097175836834893
% es.Ey (V/m) @ t=0
0.004167608954902313
% es.Ez (V/m) @ t=0
0.009528007313434728
% es.tEx (V/m) @ t=0
-0.010097175836838446
% es.tEy (V/m) @ t=0
0
% es.tEz (V/m) @ t=0
0.009528007313436504
% V (V) @ t=0
0.006982471934914292
% es.normE (V/m) @ t=0.02
0.01326517605192088
% es.EX (V/m) @ t=0.02
-0.009240488049012896
% es.EY (V/m) @ t=0.02
0.0038140110636519786
% es.EZ (V/m) @ t=0.02
0.00871960984854514
% es.tEX (V/m) @ t=0.02
-0.009240488049012896
% es.tEY (V/m) @ t=0.02
0
% es.tEZ (V/m) @ t=0.02
0.008719609848546916
% es.Ex (V/m) @ t=0.02
-0.009240488049012896
% es.Ey (V/m) @ t=0.02
0.0038140110636519786
% es.Ez (V/m) @ t=0.02
0.00871960984854514
% es.tEx (V/m) @ t=0.02
-0.009240488049012896
% es.tEy (V/m) @ t=0.02
0
% es.tEz (V/m) @ t=0.02
0.008719609848546916
% V (V) @ t=0.02
0.006390048849384305
% es.normE (V/m) @ t=0.04
0.013386885478884138
% es.EX (V/m) @ t=0.04
-0.009325270182706902
% es.EY (V/m) @ t=0.04
0.003849004960783109
% es.EZ (V/m) @ t=0.04
0.00879961360834347
% es.tEX (V/m) @ t=0.04
-0.009325270182708678
% es.tEY (V/m) @ t=0.04
0
% es.tEZ (V/m) @ t=0.04
0.008799613608341694
% es.Ex (V/m) @ t=0.04
-0.009325270182706902
% es.Ey (V/m) @ t=0.04
0.003849004960783109
% es.Ez (V/m) @ t=0.04
0.00879961360834347
% es.tEx (V/m) @ t=0.04
-0.009325270182708678
% es.tEy (V/m) @ t=0.04
0
% es.tEz (V/m) @ t=0.04
0.008799613608341694
% V (V) @ t=0.04
0.006448678315171937
% es.normE (V/m) @ t=0.06
0.013510082146915361
% es.EX (V/m) @ t=0.06
-0.009411089563254649
% es.EY (V/m) @ t=0.06
0.003884426706278976
% es.EZ (V/m) @ t=0.06
0.00888059356193871
% es.tEX (V/m) @ t=0.06
-0.009411089563256425
% es.tEY (V/m) @ t=0.06
0
% es.tEZ (V/m) @ t=0.06
0.008880593561936934
% es.Ex (V/m) @ t=0.06
-0.009411089563254649
% es.Ey (V/m) @ t=0.06
0.003884426706278976
% es.Ez (V/m) @ t=0.06
0.00888059356193871
% es.tEx (V/m) @ t=0.06
-0.009411089563256425
% es.tEy (V/m) @ t=0.06
0
% es.tEz (V/m) @ t=0.06
0.008880593561936934
% V (V) @ t=0.06
0.006508023914112006
% es.normE (V/m) @ t=0.08
0.01363424262516536
% es.EX (V/m) @ t=0.08
-0.009497579492991903
% es.EY (V/m) @ t=0.08
0.003920125408692687
% es.EZ (V/m) @ t=0.08
0.008962208015678819
% es.tEX (V/m) @ t=0.08
-0.00949757949299368
% es.tEY (V/m) @ t=0.08
0
% es.tEZ (V/m) @ t=0.08
0.00896220801567349
% es.Ex (V/m) @ t=0.08
-0.009497579492991903
% es.Ey (V/m) @ t=0.08
0.003920125408692687
% es.Ez (V/m) @ t=0.08
0.008962208015678819
% es.tEx (V/m) @ t=0.08
-0.00949757949299368
% es.tEy (V/m) @ t=0.08
0
% es.tEz (V/m) @ t=0.08
0.00896220801567349
% V (V) @ t=0.08
0.006567834001213907
% es.normE (V/m) @ t=0.1
0.013760980870337983
% es.EX (V/m) @ t=0.1
-0.009585862845831628
% es.EY (V/m) @ t=0.1
0.0039565648486528104
% es.EZ (V/m) @ t=0.1
0.009045519477239417
% es.tEX (V/m) @ t=0.1
-0.009585862845829851
% es.tEY (V/m) @ t=0.1
0
% es.tEZ (V/m) @ t=0.1
0.009045519477239417
% es.Ex (V/m) @ t=0.1
-0.009585862845831628
% es.Ey (V/m) @ t=0.1
0.0039565648486528104
% es.Ez (V/m) @ t=0.1
0.009045519477239417
% es.tEx (V/m) @ t=0.1
-0.009585862845829851
% es.tEy (V/m) @ t=0.1
0
% es.tEz (V/m) @ t=0.1
0.009045519477239417
% V (V) @ t=0.1
0.006628886389120134
% es.normE (V/m) @ t=0.12
0.013887719115502396
% es.EX (V/m) @ t=0.12
-0.00967414619866247
% es.EY (V/m) @ t=0.12
0.00399300428860716
% es.EZ (V/m) @ t=0.12
0.009128830938798238
% es.tEX (V/m) @ t=0.12
-0.009674146198666023
% es.tEY (V/m) @ t=0.12
0
% es.tEZ (V/m) @ t=0.12
0.009128830938798238
% es.Ex (V/m) @ t=0.12
-0.00967414619866247
% es.Ey (V/m) @ t=0.12
0.00399300428860716
% es.Ez (V/m) @ t=0.12
0.009128830938798238
% es.tEx (V/m) @ t=0.12
-0.009674146198666023
% es.tEy (V/m) @ t=0.12
0
% es.tEz (V/m) @ t=0.12
0.009128830938798238
% V (V) @ t=0.12
0.006689938777026362
% es.normE (V/m) @ t=0.14
0.014014457360675895
% es.EX (V/m) @ t=0.14
-0.009762429551500418
% es.EY (V/m) @ t=0.14
0.004029443728565063
% es.EZ (V/m) @ t=0.14
0.009212142400360612
% es.tEX (V/m) @ t=0.14
-0.009762429551502194
% es.tEY (V/m) @ t=0.14
0
% es.tEZ (V/m) @ t=0.14
0.009212142400358836
% es.Ex (V/m) @ t=0.14
-0.009762429551500418
% es.Ey (V/m) @ t=0.14
0.004029443728565063
% es.Ez (V/m) @ t=0.14
0.009212142400360612
% es.tEx (V/m) @ t=0.14
-0.009762429551502194
% es.tEy (V/m) @ t=0.14
0
% es.tEz (V/m) @ t=0.14
0.009212142400358836
% V (V) @ t=0.14
0.006750991164932589
% es.normE (V/m) @ t=0.16
0.014145323880021708
% es.EX (V/m) @ t=0.16
-0.009853633422743258
% es.EY (V/m) @ t=0.16
0.004067078599469198
% es.EZ (V/m) @ t=0.16
0.009298116352608687
% es.tEX (V/m) @ t=0.16
-0.009853633422745034
% es.tEY (V/m) @ t=0.16
0
% es.tEZ (V/m) @ t=0.16
0.009298116352605135
% es.Ex (V/m) @ t=0.16
-0.009853633422743258
% es.Ey (V/m) @ t=0.16
0.004067078599469198
% es.Ez (V/m) @ t=0.16
0.009298116352608687
% es.tEx (V/m) @ t=0.16
-0.009853633422745034
% es.tEy (V/m) @ t=0.16
0
% es.tEz (V/m) @ t=0.16
0.009298116352605135
% V (V) @ t=0.16
0.0068140212891501595
% es.normE (V/m) @ t=0.18
0.014279571686302643
% es.EX (V/m) @ t=0.18
-0.009947229360983911
% es.EY (V/m) @ t=0.18
0.004105692594805532
% es.EZ (V/m) @ t=0.18
0.009386271032800764
% es.tEX (V/m) @ t=0.18
-0.009947229360983911
% es.tEY (V/m) @ t=0.18
0
% es.tEZ (V/m) @ t=0.18
0.009386271032797211
% es.Ex (V/m) @ t=0.18
-0.009947229360983911
% es.Ey (V/m) @ t=0.18
0.004105692594805532
% es.Ez (V/m) @ t=0.18
0.009386271032800764
% es.tEx (V/m) @ t=0.18
-0.009947229360983911
% es.tEy (V/m) @ t=0.18
0
% es.tEz (V/m) @ t=0.18
0.009386271032797211
% V (V) @ t=0.18
0.006878671289393729
% es.normE (V/m) @ t=0.2
0.01441381949357843
% es.EX (V/m) @ t=0.2
-0.010040825299222789
% es.EY (V/m) @ t=0.2
0.004144306590138314
% es.EZ (V/m) @ t=0.2
0.009474425712985735
% es.tEX (V/m) @ t=0.2
-0.010040825299224565
% es.tEY (V/m) @ t=0.2
0
% es.tEZ (V/m) @ t=0.2
0.009474425712985735
% es.Ex (V/m) @ t=0.2
-0.010040825299222789
% es.Ey (V/m) @ t=0.2
0.004144306590138314
% es.Ez (V/m) @ t=0.2
0.009474425712985735
% es.tEx (V/m) @ t=0.2
-0.010040825299224565
% es.tEy (V/m) @ t=0.2
0
% es.tEz (V/m) @ t=0.2
0.009474425712985735
% V (V) @ t=0.2
0.006943321289637299
% es.normE (V/m) @ t=0.22
0.014548067301833082
% es.EX (V/m) @ t=0.22
-0.01013442123745989
% es.EY (V/m) @ t=0.22
0.004182920585479977
% es.EZ (V/m) @ t=0.22
0.009562580393176034
% es.tEX (V/m) @ t=0.22
-0.01013442123745989
% es.tEY (V/m) @ t=0.22
0
% es.tEZ (V/m) @ t=0.22
0.009562580393170705
% es.Ex (V/m) @ t=0.22
-0.01013442123745989
% es.Ey (V/m) @ t=0.22
0.004182920585479977
% es.Ez (V/m) @ t=0.22
0.009562580393176034
% es.tEx (V/m) @ t=0.22
-0.01013442123745989
% es.tEy (V/m) @ t=0.22
0
% es.tEz (V/m) @ t=0.22
0.009562580393170705
% V (V) @ t=0.22
0.007007971289880869
% es.normE (V/m) @ t=0.24
0.014682315111032984
% es.EX (V/m) @ t=0.24
-0.010228017175698767
% es.EY (V/m) @ t=0.24
0.004221534580824304
% es.EZ (V/m) @ t=0.24
0.009650735073360117
% es.tEX (V/m) @ t=0.24
-0.010228017175698767
% es.tEY (V/m) @ t=0.24
0
% es.tEZ (V/m) @ t=0.24
0.009650735073360117
% es.Ex (V/m) @ t=0.24
-0.010228017175698767
% es.Ey (V/m) @ t=0.24
0.004221534580824304
% es.Ez (V/m) @ t=0.24
0.009650735073360117
% es.tEx (V/m) @ t=0.24
-0.010228017175698767
% es.tEy (V/m) @ t=0.24
0
% es.tEz (V/m) @ t=0.24
0.009650735073360117
% V (V) @ t=0.24
0.0070726212901244395
% es.normE (V/m) @ t=0.26
0.014816562921156325
% es.EX (V/m) @ t=0.26
-0.01032161311393942
% es.EY (V/m) @ t=0.26
0.004260148576160638
% es.EZ (V/m) @ t=0.26
0.00973888975354864
% es.tEX (V/m) @ t=0.26
-0.010321613113941197
% es.tEY (V/m) @ t=0.26
0
% es.tEZ (V/m) @ t=0.26
0.009738889753550417
% es.Ex (V/m) @ t=0.26
-0.01032161311393942
% es.Ey (V/m) @ t=0.26
0.004260148576160638
% es.Ez (V/m) @ t=0.26
0.00973888975354864
% es.tEx (V/m) @ t=0.26
-0.010321613113941197
% es.tEy (V/m) @ t=0.26
0
% es.tEz (V/m) @ t=0.26
0.009738889753550417
% V (V) @ t=0.26
0.007137271290368011
% es.normE (V/m) @ t=0.28
0.014950810732171763
% es.EX (V/m) @ t=0.28
-0.010415209052172969
% es.EY (V/m) @ t=0.28
0.004298762571489867
% es.EZ (V/m) @ t=0.28
0.009827044433740717
% es.tEX (V/m) @ t=0.28
-0.010415209052176522
% es.tEY (V/m) @ t=0.28
0
% es.tEZ (V/m) @ t=0.28
0.009827044433742493
% es.Ex (V/m) @ t=0.28
-0.010415209052172969
% es.Ey (V/m) @ t=0.28
0.004298762571489867
% es.Ez (V/m) @ t=0.28
0.009827044433740717
% es.tEx (V/m) @ t=0.28
-0.010415209052176522
% es.tEy (V/m) @ t=0.28
0
% es.tEz (V/m) @ t=0.28
0.009827044433742493
% V (V) @ t=0.28
0.0072019212906115826
% es.normE (V/m) @ t=0.3
0.015085910777333431
% es.EX (V/m) @ t=0.3
-0.010509380683402014
% es.EY (V/m) @ t=0.3
0.004337618203096305
% es.EZ (V/m) @ t=0.3
0.00991577984614267
% es.tEX (V/m) @ t=0.3
-0.01050938068340379
% es.tEY (V/m) @ t=0.3
0
% es.tEZ (V/m) @ t=0.3
0.00991577984614267
% es.Ex (V/m) @ t=0.3
-0.010509380683402014
% es.Ey (V/m) @ t=0.3
0.004337618203096305
% es.Ez (V/m) @ t=0.3
0.00991577984614267
% es.tEx (V/m) @ t=0.3
-0.01050938068340379
% es.tEy (V/m) @ t=0.3
0
% es.tEz (V/m) @ t=0.3
0.00991577984614267
% V (V) @ t=0.3
0.007266986208852258
% es.normE (V/m) @ t=0.32
0.015228280949579755
% es.EX (V/m) @ t=0.32
-0.01060846336501342
% es.EY (V/m) @ t=0.32
0.00437853515533515
% es.EZ (V/m) @ t=0.32
0.010009469296920592
% es.tEX (V/m) @ t=0.32
-0.01060846336501342
% es.tEY (V/m) @ t=0.32
0
% es.tEZ (V/m) @ t=0.32
0.010009469296918816
% es.Ex (V/m) @ t=0.32
-0.01060846336501342
% es.Ey (V/m) @ t=0.32
0.00437853515533515
% es.Ez (V/m) @ t=0.32
0.010009469296920592
% es.tEx (V/m) @ t=0.32
-0.01060846336501342
% es.tEy (V/m) @ t=0.32
0
% es.tEz (V/m) @ t=0.32
0.010009469296918816
% V (V) @ t=0.32
0.007335590658113468
% es.normE (V/m) @ t=0.34
0.01537065112324823
% es.EX (V/m) @ t=0.34
-0.010707546046623051
% es.EY (V/m) @ t=0.34
0.00441945210756689
% es.EZ (V/m) @ t=0.34
0.010103158747687857
% es.tEX (V/m) @ t=0.34
-0.010707546046624827
% es.tEY (V/m) @ t=0.34
0
% es.tEZ (V/m) @ t=0.34
0.010103158747684304
% es.Ex (V/m) @ t=0.34
-0.010707546046623051
% es.Ey (V/m) @ t=0.34
0.00441945210756689
% es.Ez (V/m) @ t=0.34
0.010103158747687857
% es.tEx (V/m) @ t=0.34
-0.010707546046624827
% es.tEy (V/m) @ t=0.34
0
% es.tEz (V/m) @ t=0.34
0.010103158747684304
% V (V) @ t=0.34
0.0074041951073746766
% es.normE (V/m) @ t=0.36
0.01551302129832181
% es.EX (V/m) @ t=0.36
-0.010806628728232681
% es.EY (V/m) @ t=0.36
0.004460369059816394
% es.EZ (V/m) @ t=0.36
0.01019684819846578
% es.tEX (V/m) @ t=0.36
-0.010806628728234458
% es.tEY (V/m) @ t=0.36
0
% es.tEZ (V/m) @ t=0.36
0.010196848198464004
% es.Ex (V/m) @ t=0.36
-0.010806628728232681
% es.Ey (V/m) @ t=0.36
0.004460369059816394
% es.Ez (V/m) @ t=0.36
0.01019684819846578
% es.tEx (V/m) @ t=0.36
-0.010806628728234458
% es.tEy (V/m) @ t=0.36
0
% es.tEz (V/m) @ t=0.36
0.010196848198464004
% V (V) @ t=0.36
0.007472799556635887
% es.normE (V/m) @ t=0.38
0.015655391474745824
% es.EX (V/m) @ t=0.38
-0.010905711409842311
% es.EY (V/m) @ t=0.38
0.004501286012056127
% es.EZ (V/m) @ t=0.38
0.010290537649241038
% es.tEX (V/m) @ t=0.38
-0.010905711409844088
% es.tEY (V/m) @ t=0.38
0
% es.tEZ (V/m) @ t=0.38
0.010290537649241038
% es.Ex (V/m) @ t=0.38
-0.010905711409842311
% es.Ey (V/m) @ t=0.38
0.004501286012056127
% es.Ez (V/m) @ t=0.38
0.010290537649241038
% es.tEx (V/m) @ t=0.38
-0.010905711409844088
% es.tEy (V/m) @ t=0.38
0
% es.tEz (V/m) @ t=0.38
0.010290537649241038
% V (V) @ t=0.38
0.007541404005897099
% es.normE (V/m) @ t=0.4
0.01579776165249253
% es.EX (V/m) @ t=0.4
-0.011004794091455494
% es.EY (V/m) @ t=0.4
0.0045422029643003015
% es.EZ (V/m) @ t=0.4
0.010384227100017185
% es.tEX (V/m) @ t=0.4
-0.01100479409145727
% es.tEY (V/m) @ t=0.4
0
% es.tEZ (V/m) @ t=0.4
0.010384227100018961
% es.Ex (V/m) @ t=0.4
-0.011004794091455494
% es.Ey (V/m) @ t=0.4
0.0045422029643003015
% es.Ez (V/m) @ t=0.4
0.010384227100017185
% es.tEx (V/m) @ t=0.4
-0.01100479409145727
% es.tEy (V/m) @ t=0.4
0
% es.tEz (V/m) @ t=0.4
0.010384227100018961
% V (V) @ t=0.4
0.007610008455158307
% es.normE (V/m) @ t=0.42
0.01594013183151585
% es.EX (V/m) @ t=0.42
-0.0111038767730669
% es.EY (V/m) @ t=0.42
0.0045831199165426995
% es.EZ (V/m) @ t=0.42
0.010477916550786226
% es.tEX (V/m) @ t=0.42
-0.011103876773068677
% es.tEY (V/m) @ t=0.42
0
% es.tEZ (V/m) @ t=0.42
0.010477916550786226
% es.Ex (V/m) @ t=0.42
-0.0111038767730669
% es.Ey (V/m) @ t=0.42
0.0045831199165426995
% es.Ez (V/m) @ t=0.42
0.010477916550786226
% es.tEx (V/m) @ t=0.42
-0.011103876773068677
% es.tEy (V/m) @ t=0.42
0
% es.tEz (V/m) @ t=0.42
0.010477916550786226
% V (V) @ t=0.42
0.007678612904419518
% es.normE (V/m) @ t=0.44
0.016082502011790147
% es.EX (V/m) @ t=0.44
-0.011202959454672978
% es.EY (V/m) @ t=0.44
0.0046240368687806566
% es.EZ (V/m) @ t=0.44
0.010571606001565925
% es.tEX (V/m) @ t=0.44
-0.011202959454674755
% es.tEY (V/m) @ t=0.44
0
% es.tEZ (V/m) @ t=0.44
0.010571606001564149
% es.Ex (V/m) @ t=0.44
-0.011202959454672978
% es.Ey (V/m) @ t=0.44
0.0046240368687806566
% es.Ez (V/m) @ t=0.44
0.010571606001565925
% es.tEx (V/m) @ t=0.44
-0.011202959454674755
% es.tEy (V/m) @ t=0.44
0
% es.tEz (V/m) @ t=0.44
0.010571606001564149
% V (V) @ t=0.44
0.007747217353680728
% es.normE (V/m) @ t=0.46
0.016236981695960814
% es.EX (V/m) @ t=0.46
-0.011310594290922182
% es.EY (V/m) @ t=0.46
0.004668457624513955
% es.EZ (V/m) @ t=0.46
0.010673122073191266
% es.tEX (V/m) @ t=0.46
-0.011310594290923959
% es.tEY (V/m) @ t=0.46
0
% es.tEZ (V/m) @ t=0.46
0.010673122073191266
% es.Ex (V/m) @ t=0.46
-0.011310594290922182
% es.Ey (V/m) @ t=0.46
0.004668457624513955
% es.Ez (V/m) @ t=0.46
0.010673122073191266
% es.tEx (V/m) @ t=0.46
-0.011310594290923959
% es.tEy (V/m) @ t=0.46
0
% es.tEz (V/m) @ t=0.46
0.010673122073191266
% V (V) @ t=0.46
0.007821626688662974
% es.normE (V/m) @ t=0.48
0.01639769647186787
% es.EX (V/m) @ t=0.48
-0.011422632566430835
% es.EY (V/m) @ t=0.48
0.004714682461956166
% es.EZ (V/m) @ t=0.48
0.010778668012270565
% es.tEX (V/m) @ t=0.48
-0.011422632566432611
% es.tEY (V/m) @ t=0.48
0
% es.tEZ (V/m) @ t=0.48
0.010778668012270565
% es.Ex (V/m) @ t=0.48
-0.011422632566430835
% es.Ey (V/m) @ t=0.48
0.004714682461956166
% es.Ez (V/m) @ t=0.48
0.010778668012270565
% es.tEx (V/m) @ t=0.48
-0.011422632566432611
% es.tEy (V/m) @ t=0.48
0
% es.tEz (V/m) @ t=0.48
0.010778668012270565
% V (V) @ t=0.48
0.007899024915077216
% es.normE (V/m) @ t=0.5
0.01655841124878674
% es.EX (V/m) @ t=0.5
-0.011534670841939487
% es.EY (V/m) @ t=0.5
0.004760907299399264
% es.EZ (V/m) @ t=0.5
0.01088421395134187
% es.tEX (V/m) @ t=0.5
-0.011534670841941264
% es.tEY (V/m) @ t=0.5
0
% es.tEZ (V/m) @ t=0.5
0.010884213951343646
% es.Ex (V/m) @ t=0.5
-0.011534670841939487
% es.Ey (V/m) @ t=0.5
0.004760907299399264
% es.Ez (V/m) @ t=0.5
0.01088421395134187
% es.tEx (V/m) @ t=0.5
-0.011534670841941264
% es.tEy (V/m) @ t=0.5
0
% es.tEz (V/m) @ t=0.5
0.010884213951343646
% V (V) @ t=0.5
0.00797642314149146
% es.normE (V/m) @ t=0.52
0.0167191260267017
% es.EX (V/m) @ t=0.52
-0.011646709117451692
% es.EY (V/m) @ t=0.52
0.004807132136849468
% es.EZ (V/m) @ t=0.52
0.010989759890419393
% es.tEX (V/m) @ t=0.52
-0.011646709117453469
% es.tEY (V/m) @ t=0.52
0
% es.tEZ (V/m) @ t=0.52
0.010989759890419393
% es.Ex (V/m) @ t=0.52
-0.011646709117451692
% es.Ey (V/m) @ t=0.52
0.004807132136849468
% es.Ez (V/m) @ t=0.52
0.010989759890419393
% es.tEx (V/m) @ t=0.52
-0.011646709117453469
% es.tEy (V/m) @ t=0.52
0
% es.tEz (V/m) @ t=0.52
0.010989759890419393
% V (V) @ t=0.52
0.008053821367905702
% es.normE (V/m) @ t=0.54
0.016879840805572817
% es.EX (V/m) @ t=0.54
-0.011758747392958568
% es.EY (V/m) @ t=0.54
0.004853356974299672
% es.EZ (V/m) @ t=0.54
0.011095305829497804
% es.tEX (V/m) @ t=0.54
-0.011758747392963897
% es.tEY (V/m) @ t=0.54
0
% es.tEZ (V/m) @ t=0.54
0.011095305829496027
% es.Ex (V/m) @ t=0.54
-0.011758747392958568
% es.Ey (V/m) @ t=0.54
0.004853356974299672
% es.Ez (V/m) @ t=0.54
0.011095305829497804
% es.tEx (V/m) @ t=0.54
-0.011758747392963897
% es.tEy (V/m) @ t=0.54
0
% es.tEz (V/m) @ t=0.54
0.011095305829496027
% V (V) @ t=0.54
0.008131219594319944
% es.normE (V/m) @ t=0.56
0.017040555585378946
% es.EX (V/m) @ t=0.56
-0.011870785668470774
% es.EY (V/m) @ t=0.56
0.0048995818117489875
% es.EZ (V/m) @ t=0.56
0.011200851768575326
% es.tEX (V/m) @ t=0.56
-0.01187078566847255
% es.tEY (V/m) @ t=0.56
0
% es.tEZ (V/m) @ t=0.56
0.011200851768575326
% es.Ex (V/m) @ t=0.56
-0.011870785668470774
% es.Ey (V/m) @ t=0.56
0.0048995818117489875
% es.Ez (V/m) @ t=0.56
0.011200851768575326
% es.tEx (V/m) @ t=0.56
-0.01187078566847255
% es.tEy (V/m) @ t=0.56
0
% es.tEz (V/m) @ t=0.56
0.011200851768575326
% V (V) @ t=0.56
0.008208617820734189
% es.normE (V/m) @ t=0.58
0.017201270366091197
% es.EX (V/m) @ t=0.58
-0.011982823943984755
% es.EY (V/m) @ t=0.58
0.00494580664919031
% es.EZ (V/m) @ t=0.58
0.011306397707654625
% es.tEX (V/m) @ t=0.58
-0.011982823943986531
% es.tEY (V/m) @ t=0.58
0
% es.tEZ (V/m) @ t=0.58
0.011306397707652849
% es.Ex (V/m) @ t=0.58
-0.011982823943984755
% es.Ey (V/m) @ t=0.58
0.00494580664919031
% es.Ez (V/m) @ t=0.58
0.011306397707654625
% es.tEx (V/m) @ t=0.58
-0.011982823943986531
% es.tEy (V/m) @ t=0.58
0
% es.tEz (V/m) @ t=0.58
0.011306397707652849
% V (V) @ t=0.58
0.008286016047148433
% es.normE (V/m) @ t=0.6
0.017361985147673155
% es.EX (V/m) @ t=0.6
-0.012094862219488078
% es.EY (V/m) @ t=0.6
0.004992031486636961
% es.EZ (V/m) @ t=0.6
0.01141194364672593
% es.tEX (V/m) @ t=0.6
-0.012094862219488078
% es.tEY (V/m) @ t=0.6
0
% es.tEZ (V/m) @ t=0.6
0.011411943646727707
% es.Ex (V/m) @ t=0.6
-0.012094862219488078
% es.Ey (V/m) @ t=0.6
0.004992031486636961
% es.Ez (V/m) @ t=0.6
0.01141194364672593
% es.tEx (V/m) @ t=0.6
-0.012094862219488078
% es.tEy (V/m) @ t=0.6
0
% es.tEz (V/m) @ t=0.6
0.011411943646727707
% V (V) @ t=0.6
0.008363414273562674
% es.normE (V/m) @ t=0.62
0.017522699930126055
% es.EX (V/m) @ t=0.62
-0.012206900495000284
% es.EY (V/m) @ t=0.62
0.005038256324091606
% es.EZ (V/m) @ t=0.62
0.011517489585806118
% es.tEX (V/m) @ t=0.62
-0.01220690049500206
% es.tEY (V/m) @ t=0.62
0
% es.tEZ (V/m) @ t=0.62
0.011517489585804341
% es.Ex (V/m) @ t=0.62
-0.012206900495000284
% es.Ey (V/m) @ t=0.62
0.005038256324091606
% es.Ez (V/m) @ t=0.62
0.011517489585806118
% es.tEx (V/m) @ t=0.62
-0.01220690049500206
% es.tEy (V/m) @ t=0.62
0
% es.tEz (V/m) @ t=0.62
0.011517489585804341
% V (V) @ t=0.62
0.008440812499976916
% es.normE (V/m) @ t=0.64
0.017683414713407883
% es.EX (V/m) @ t=0.64
-0.012318938770505383
% es.EY (V/m) @ t=0.64
0.005084481161538257
% es.EZ (V/m) @ t=0.64
0.011623035524890746
% es.tEX (V/m) @ t=0.64
-0.012318938770505383
% es.tEY (V/m) @ t=0.64
0
% es.tEZ (V/m) @ t=0.64
0.011623035524890746
% es.Ex (V/m) @ t=0.64
-0.012318938770505383
% es.Ey (V/m) @ t=0.64
0.005084481161538257
% es.Ez (V/m) @ t=0.64
0.011623035524890746
% es.tEx (V/m) @ t=0.64
-0.012318938770505383
% es.tEy (V/m) @ t=0.64
0
% es.tEz (V/m) @ t=0.64
0.011623035524890746
% V (V) @ t=0.64
0.008518210726391163
% es.normE (V/m) @ t=0.66
0.01784412949749818
% es.EX (V/m) @ t=0.66
-0.012430977046021141
% es.EY (V/m) @ t=0.66
0.005130705998979579
% es.EZ (V/m) @ t=0.66
0.01172858146396294
% es.tEX (V/m) @ t=0.66
-0.012430977046021141
% es.tEY (V/m) @ t=0.66
0
% es.tEZ (V/m) @ t=0.66
0.011728581463959387
% es.Ex (V/m) @ t=0.66
-0.012430977046021141
% es.Ey (V/m) @ t=0.66
0.005130705998979579
% es.Ez (V/m) @ t=0.66
0.01172858146396294
% es.tEx (V/m) @ t=0.66
-0.012430977046021141
% es.tEy (V/m) @ t=0.66
0
% es.tEz (V/m) @ t=0.66
0.011728581463959387
% V (V) @ t=0.66
0.008595608952805405
% es.normE (V/m) @ t=0.68
0.018004844282378984
% es.EX (V/m) @ t=0.68
-0.012543015321528017
% es.EY (V/m) @ t=0.68
0.0051769308364333355
% es.EZ (V/m) @ t=0.68
0.01183412740304135
% es.tEX (V/m) @ t=0.68
-0.012543015321528017
% es.tEY (V/m) @ t=0.68
0
% es.tEZ (V/m) @ t=0.68
0.01183412740304135
% es.Ex (V/m) @ t=0.68
-0.012543015321528017
% es.Ey (V/m) @ t=0.68
0.0051769308364333355
% es.Ez (V/m) @ t=0.68
0.01183412740304135
% es.tEx (V/m) @ t=0.68
-0.012543015321528017
% es.tEy (V/m) @ t=0.68
0
% es.tEz (V/m) @ t=0.68
0.01183412740304135
% V (V) @ t=0.68
0.008673007179219648
% es.normE (V/m) @ t=0.7
0.018165559068027037
% es.EX (V/m) @ t=0.7
-0.012655053597038446
% es.EY (V/m) @ t=0.7
0.005223155673875546
% es.EZ (V/m) @ t=0.7
0.011939673342119761
% es.tEX (V/m) @ t=0.7
-0.01265505359703667
% es.tEY (V/m) @ t=0.7
0
% es.tEZ (V/m) @ t=0.7
0.011939673342116208
% es.Ex (V/m) @ t=0.7
-0.012655053597038446
% es.Ey (V/m) @ t=0.7
0.005223155673875546
% es.Ez (V/m) @ t=0.7
0.011939673342119761
% es.tEx (V/m) @ t=0.7
-0.01265505359703667
% es.tEy (V/m) @ t=0.7
0
% es.tEz (V/m) @ t=0.7
0.011939673342116208
% V (V) @ t=0.7
0.00875040540563389
% es.normE (V/m) @ t=0.72
0.018326273854423043
% es.EX (V/m) @ t=0.72
-0.012767091872550651
% es.EY (V/m) @ t=0.72
0.005269380511317756
% es.EZ (V/m) @ t=0.72
0.012045219281196395
% es.tEX (V/m) @ t=0.72
-0.012767091872552427
% es.tEY (V/m) @ t=0.72
0
% es.tEZ (V/m) @ t=0.72
0.012045219281192843
% es.Ex (V/m) @ t=0.72
-0.012767091872550651
% es.Ey (V/m) @ t=0.72
0.005269380511317756
% es.Ez (V/m) @ t=0.72
0.012045219281196395
% es.tEx (V/m) @ t=0.72
-0.012767091872552427
% es.tEy (V/m) @ t=0.72
0
% es.tEz (V/m) @ t=0.72
0.012045219281192843
% V (V) @ t=0.72
0.008827803632048133
% es.normE (V/m) @ t=0.74
0.018486988641545247
% es.EX (V/m) @ t=0.74
-0.01287913014806108
% es.EY (V/m) @ t=0.74
0.005315605348768848
% es.EZ (V/m) @ t=0.74
0.0121507652202677
% es.tEX (V/m) @ t=0.74
-0.012879130148062856
% es.tEY (V/m) @ t=0.74
0
% es.tEZ (V/m) @ t=0.74
0.0121507652202677
% es.Ex (V/m) @ t=0.74
-0.01287913014806108
% es.Ey (V/m) @ t=0.74
0.005315605348768848
% es.Ez (V/m) @ t=0.74
0.0121507652202677
% es.tEx (V/m) @ t=0.74
-0.012879130148062856
% es.tEy (V/m) @ t=0.74
0
% es.tEz (V/m) @ t=0.74
0.0121507652202677
% V (V) @ t=0.74
0.008905201858462376
% es.normE (V/m) @ t=0.76
0.018662241556159736
% es.EX (V/m) @ t=0.76
-0.013001181994962252
% es.EY (V/m) @ t=0.76
0.005365988704576274
% es.EZ (V/m) @ t=0.76
0.012265997385320304
% es.tEX (V/m) @ t=0.76
-0.013001181994964028
% es.tEY (V/m) @ t=0.76
0
% es.tEZ (V/m) @ t=0.76
0.012265997385316751
% es.Ex (V/m) @ t=0.76
-0.013001181994962252
% es.Ey (V/m) @ t=0.76
0.005365988704576274
% es.Ez (V/m) @ t=0.76
0.012265997385320304
% es.tEx (V/m) @ t=0.76
-0.013001181994964028
% es.tEy (V/m) @ t=0.76
0
% es.tEz (V/m) @ t=0.76
0.012265997385316751
% V (V) @ t=0.76
0.008989631055287443
% es.normE (V/m) @ t=0.78
0.018841825021662106
% es.EX (V/m) @ t=0.78
-0.013126216638372767
% es.EY (V/m) @ t=0.78
0.005417610780666493
% es.EZ (V/m) @ t=0.78
0.012384114838721594
% es.tEX (V/m) @ t=0.78
-0.013126216638374544
% es.tEY (V/m) @ t=0.78
0
% es.tEZ (V/m) @ t=0.78
0.012384114838718041
% es.Ex (V/m) @ t=0.78
-0.013126216638372767
% es.Ey (V/m) @ t=0.78
0.005417610780666493
% es.Ez (V/m) @ t=0.78
0.012384114838721594
% es.tEx (V/m) @ t=0.78
-0.013126216638374544
% es.tEy (V/m) @ t=0.78
0
% es.tEz (V/m) @ t=0.78
0.012384114838718041
% V (V) @ t=0.78
0.009076154605177592
% es.normE (V/m) @ t=0.8
0.019021408487824545
% es.EX (V/m) @ t=0.8
-0.01325125128177973
% es.EY (V/m) @ t=0.8
0.0054692328567576
% es.EZ (V/m) @ t=0.8
0.012502232292129989
% es.tEX (V/m) @ t=0.8
-0.01325125128177973
% es.tEY (V/m) @ t=0.8
0
% es.tEZ (V/m) @ t=0.8
0.012502232292126436
% es.Ex (V/m) @ t=0.8
-0.01325125128177973
% es.Ey (V/m) @ t=0.8
0.0054692328567576
% es.Ez (V/m) @ t=0.8
0.012502232292129989
% es.tEx (V/m) @ t=0.8
-0.01325125128177973
% es.tEy (V/m) @ t=0.8
0
% es.tEz (V/m) @ t=0.8
0.012502232292126436
% V (V) @ t=0.8
0.00916267815506774
% es.normE (V/m) @ t=0.82
0.01920099195462451
% es.EX (V/m) @ t=0.82
-0.01337628592518847
% es.EY (V/m) @ t=0.82
0.005520854932854924
% es.EZ (V/m) @ t=0.82
0.012620349745531279
% es.tEX (V/m) @ t=0.82
-0.01337628592518847
% es.tEY (V/m) @ t=0.82
0
% es.tEZ (V/m) @ t=0.82
0.012620349745527726
% es.Ex (V/m) @ t=0.82
-0.01337628592518847
% es.Ey (V/m) @ t=0.82
0.005520854932854924
% es.Ez (V/m) @ t=0.82
0.012620349745531279
% es.tEx (V/m) @ t=0.82
-0.01337628592518847
% es.tEy (V/m) @ t=0.82
0
% es.tEz (V/m) @ t=0.82
0.012620349745527726
% V (V) @ t=0.82
0.00924920170495789
% es.normE (V/m) @ t=0.84
0.019380575422035622
% es.EX (V/m) @ t=0.84
-0.013501320568593655
% es.EY (V/m) @ t=0.84
0.005572477008935373
% es.EZ (V/m) @ t=0.84
0.012738467198928127
% es.tEX (V/m) @ t=0.84
-0.013501320568598985
% es.tEY (V/m) @ t=0.84
0
% es.tEZ (V/m) @ t=0.84
0.012738467198924575
% es.Ex (V/m) @ t=0.84
-0.013501320568593655
% es.Ey (V/m) @ t=0.84
0.005572477008935373
% es.Ez (V/m) @ t=0.84
0.012738467198928127
% es.tEx (V/m) @ t=0.84
-0.013501320568598985
% es.tEy (V/m) @ t=0.84
0
% es.tEz (V/m) @ t=0.84
0.012738467198924575
% V (V) @ t=0.84
0.009335725254848036
% es.normE (V/m) @ t=0.86
0.019560158890059
% es.EX (V/m) @ t=0.86
-0.013626355212004171
% es.EY (V/m) @ t=0.86
0.005624099085018486
% es.EZ (V/m) @ t=0.86
0.012856584652330305
% es.tEX (V/m) @ t=0.86
-0.013626355212004171
% es.tEY (V/m) @ t=0.86
0
% es.tEZ (V/m) @ t=0.86
0.012856584652330305
% es.Ex (V/m) @ t=0.86
-0.013626355212004171
% es.Ey (V/m) @ t=0.86
0.005624099085018486
% es.Ez (V/m) @ t=0.86
0.012856584652330305
% es.tEx (V/m) @ t=0.86
-0.013626355212004171
% es.tEy (V/m) @ t=0.86
0
% es.tEz (V/m) @ t=0.86
0.012856584652330305
% V (V) @ t=0.86
0.009422248804738185
% es.normE (V/m) @ t=0.88
0.01973974235867116
% es.EX (V/m) @ t=0.88
-0.013751389855411134
% es.EY (V/m) @ t=0.88
0.005675721161109593
% es.EZ (V/m) @ t=0.88
0.01297470210573426
% es.tEX (V/m) @ t=0.88
-0.013751389855414686
% es.tEY (V/m) @ t=0.88
0
% es.tEZ (V/m) @ t=0.88
0.01297470210573426
% es.Ex (V/m) @ t=0.88
-0.013751389855411134
% es.Ey (V/m) @ t=0.88
0.005675721161109593
% es.Ez (V/m) @ t=0.88
0.01297470210573426
% es.tEx (V/m) @ t=0.88
-0.013751389855414686
% es.tEy (V/m) @ t=0.88
0
% es.tEz (V/m) @ t=0.88
0.01297470210573426
% V (V) @ t=0.88
0.009508772354628334
% es.normE (V/m) @ t=0.9
0.019919325827854738
% es.EX (V/m) @ t=0.9
-0.013876424498819873
% es.EY (V/m) @ t=0.9
0.005727343237206917
% es.EZ (V/m) @ t=0.9
0.013092819559132884
% es.tEX (V/m) @ t=0.9
-0.013876424498823425
% es.tEY (V/m) @ t=0.9
0
% es.tEZ (V/m) @ t=0.9
0.013092819559132884
% es.Ex (V/m) @ t=0.9
-0.013876424498819873
% es.Ey (V/m) @ t=0.9
0.005727343237206917
% es.Ez (V/m) @ t=0.9
0.013092819559132884
% es.tEx (V/m) @ t=0.9
-0.013876424498823425
% es.tEy (V/m) @ t=0.9
0
% es.tEz (V/m) @ t=0.9
0.013092819559132884
% V (V) @ t=0.9
0.009595295904518483
% es.normE (V/m) @ t=0.92
0.020098909297591887
% es.EX (V/m) @ t=0.92
-0.014001459142226835
% es.EY (V/m) @ t=0.92
0.00577896531329003
% es.EZ (V/m) @ t=0.92
0.013210937012535062
% es.tEX (V/m) @ t=0.92
-0.014001459142232164
% es.tEY (V/m) @ t=0.92
0
% es.tEZ (V/m) @ t=0.92
0.013210937012538615
% es.Ex (V/m) @ t=0.92
-0.014001459142226835
% es.Ey (V/m) @ t=0.92
0.00577896531329003
% es.Ez (V/m) @ t=0.92
0.013210937012535062
% es.tEx (V/m) @ t=0.92
-0.014001459142232164
% es.tEy (V/m) @ t=0.92
0
% es.tEz (V/m) @ t=0.92
0.013210937012538615
% V (V) @ t=0.92
0.009681819454408632
% es.normE (V/m) @ t=0.94
0.020278492767880036
% es.EX (V/m) @ t=0.94
-0.014126493785639127
% es.EY (V/m) @ t=0.94
0.005830587389388242
% es.EZ (V/m) @ t=0.94
0.013329054465939016
% es.tEX (V/m) @ t=0.94
-0.014126493785639127
% es.tEY (V/m) @ t=0.94
0
% es.tEZ (V/m) @ t=0.94
0.013329054465939016
% es.Ex (V/m) @ t=0.94
-0.014126493785639127
% es.Ey (V/m) @ t=0.94
0.005830587389388242
% es.Ez (V/m) @ t=0.94
0.013329054465939016
% es.tEx (V/m) @ t=0.94
-0.014126493785639127
% es.tEy (V/m) @ t=0.94
0
% es.tEz (V/m) @ t=0.94
0.013329054465939016
% V (V) @ t=0.94
0.00976834300429878
% es.normE (V/m) @ t=0.96
0.020458076238686985
% es.EX (V/m) @ t=0.96
-0.014251528429044313
% es.EY (V/m) @ t=0.96
0.005882209465471355
% es.EZ (V/m) @ t=0.96
0.013447171919343859
% es.tEX (V/m) @ t=0.96
-0.014251528429047866
% es.tEY (V/m) @ t=0.96
0
% es.tEZ (V/m) @ t=0.96
0.013447171919343859
% es.Ex (V/m) @ t=0.96
-0.014251528429044313
% es.Ey (V/m) @ t=0.96
0.005882209465471355
% es.Ez (V/m) @ t=0.96
0.013447171919343859
% es.tEx (V/m) @ t=0.96
-0.014251528429047866
% es.tEy (V/m) @ t=0.96
0
% es.tEz (V/m) @ t=0.96
0.013447171919343859
% V (V) @ t=0.96
0.00985486655418893
% es.normE (V/m) @ t=0.98
0.02063765971000402
% es.EX (V/m) @ t=0.98
-0.014376563072453052
% es.EY (V/m) @ t=0.98
0.005933831541547363
% es.EZ (V/m) @ t=0.98
0.013565289372742484
% es.tEX (V/m) @ t=0.98
-0.014376563072458381
% es.tEY (V/m) @ t=0.98
0
% es.tEZ (V/m) @ t=0.98
0.013565289372746037
% es.Ex (V/m) @ t=0.98
-0.014376563072453052
% es.Ey (V/m) @ t=0.98
0.005933831541547363
% es.Ez (V/m) @ t=0.98
0.013565289372742484
% es.tEx (V/m) @ t=0.98
-0.014376563072458381
% es.tEy (V/m) @ t=0.98
0
% es.tEz (V/m) @ t=0.98
0.013565289372746037
% V (V) @ t=0.98
0.009941390104079077
% es.normE (V/m) @ t=1
0.02081724318182461
% es.EX (V/m) @ t=1
-0.014501597715856462
% es.EY (V/m) @ t=1
0.005985453617634917
% es.EZ (V/m) @ t=1
0.013683406826146438
% es.tEX (V/m) @ t=1
-0.014501597715860015
% es.tEY (V/m) @ t=1
0