% Model:              1 neuron.mph
% Version:            COMSOL 6.0.0.405
% Date:               Mar 16 2023, 20:21
% Dimension:          0
% Nodes:              14017
% Expressions:        14017
% Description:        Electric field norm, Electric field, X component, Electric field, Y component, Electric field, Z component, Tangential electric field, X component, Tangential electric field, Y component, Tangential electric field, Z component, Electric field, x component, Electric field, y component, Electric field, z component, Tangential electric field, x component, Tangential electric field, y component, Tangential electric field, z component, Electric potential
% Length unit:        mm
% x
1.0000000000000002
% y
12.2
% z
2
% es.normE (V/m) @ t=0
1.3057950678638321
% es.EX (V/m) @ t=0
0.9070153613666243
% es.EY (V/m) @ t=0
0.1358145299225772
% es.EZ (V/m) @ t=0
-0.9056924125998758
% es.tEX (V/m) @ t=0
0.907015361366629
% es.tEY (V/m) @ t=0
0
% es.tEZ (V/m) @ t=0
-0.9056924125998647
% es.Ex (V/m) @ t=0
0.9070153613666243
% es.Ey (V/m) @ t=0
0.1358145299225772
% es.Ez (V/m) @ t=0
-0.9056924125998758
% es.tEx (V/m) @ t=0
0.907015361366629
% es.tEy (V/m) @ t=0
0
% es.tEz (V/m) @ t=0
-0.9056924125998647
% V (V) @ t=0
0.013983374467335271
% es.normE (V/m) @ t=0.02
1.1315537851563786
% es.EX (V/m) @ t=0.02
0.7859860200272271
% es.EY (V/m) @ t=0.02
0.1176918602655544
% es.EZ (V/m) @ t=0.02
-0.7848395957481951
% es.tEX (V/m) @ t=0.02
0.7859860200272286
% es.tEY (V/m) @ t=0.02
0
% es.tEZ (V/m) @ t=0.02
-0.7848395957481804
% es.Ex (V/m) @ t=0.02
0.7859860200272271
% es.Ey (V/m) @ t=0.02
0.1176918602655544
% es.Ez (V/m) @ t=0.02
-0.7848395957481951
% es.tEx (V/m) @ t=0.02
0.7859860200272286
% es.tEy (V/m) @ t=0.02
0
% es.tEz (V/m) @ t=0.02
-0.7848395957481804
% V (V) @ t=0.02
0.01211747557613829
% es.normE (V/m) @ t=0.04
1.1457579937536102
% es.EX (V/m) @ t=0.04
0.7958523677921199
% es.EY (V/m) @ t=0.04
0.11916924559038983
% es.EZ (V/m) @ t=0.04
-0.7946915581688203
% es.tEX (V/m) @ t=0.04
0.7958523677921248
% es.tEY (V/m) @ t=0.04
0
% es.tEZ (V/m) @ t=0.04
-0.7946915581688092
% es.Ex (V/m) @ t=0.04
0.7958523677921199
% es.Ey (V/m) @ t=0.04
0.11916924559038983
% es.Ez (V/m) @ t=0.04
-0.7946915581688203
% es.tEx (V/m) @ t=0.04
0.7958523677921248
% es.tEy (V/m) @ t=0.04
0
% es.tEz (V/m) @ t=0.04
-0.7946915581688092
% V (V) @ t=0.04
0.01226958269819108
% es.normE (V/m) @ t=0.06
1.1600916145366935
% es.EX (V/m) @ t=0.06
0.8058085731224187
% es.EY (V/m) @ t=0.06
0.12066013685132332
% es.EZ (V/m) @ t=0.06
-0.8046333006679824
% es.tEX (V/m) @ t=0.06
0.8058085731224218
% es.tEY (V/m) @ t=0.06
0
% es.tEZ (V/m) @ t=0.06
-0.8046333006679713
% es.Ex (V/m) @ t=0.06
0.8058085731224187
% es.Ey (V/m) @ t=0.06
0.12066013685132332
% es.Ez (V/m) @ t=0.06
-0.8046333006679824
% es.tEx (V/m) @ t=0.06
0.8058085731224218
% es.tEy (V/m) @ t=0.06
0
% es.tEz (V/m) @ t=0.06
-0.8046333006679713
% V (V) @ t=0.06
0.012423071388539465
% es.normE (V/m) @ t=0.08
1.1748779365152562
% es.EX (V/m) @ t=0.08
0.8160792652106597
% es.EY (V/m) @ t=0.08
0.12219805702550429
% es.EZ (V/m) @ t=0.08
-0.8148890131533948
% es.tEX (V/m) @ t=0.08
0.8160792652106599
% es.tEY (V/m) @ t=0.08
0
% es.tEZ (V/m) @ t=0.08
-0.8148890131533806
% es.Ex (V/m) @ t=0.08
0.8160792652106597
% es.Ey (V/m) @ t=0.08
0.12219805702550429
% es.Ez (V/m) @ t=0.08
-0.8148890131533948
% es.tEx (V/m) @ t=0.08
0.8160792652106599
% es.tEy (V/m) @ t=0.08
0
% es.tEz (V/m) @ t=0.08
-0.8148890131533806
% V (V) @ t=0.08
0.012581412901244796
% es.normE (V/m) @ t=0.1
1.1897040318755558
% es.EX (V/m) @ t=0.1
0.8263775874487689
% es.EY (V/m) @ t=0.1
0.1237401090618298
% es.EZ (V/m) @ t=0.1
-0.8251723103861845
% es.tEX (V/m) @ t=0.1
0.8263775874487709
% es.tEY (V/m) @ t=0.1
0
% es.tEZ (V/m) @ t=0.1
-0.8251723103861703
% es.Ex (V/m) @ t=0.1
0.8263775874487689
% es.Ey (V/m) @ t=0.1
0.1237401090618298
% es.Ez (V/m) @ t=0.1
-0.8251723103861845
% es.tEx (V/m) @ t=0.1
0.8263775874487709
% es.tEy (V/m) @ t=0.1
0
% es.tEz (V/m) @ t=0.1
-0.8251723103861703
% V (V) @ t=0.1
0.012740180772789152
% es.normE (V/m) @ t=0.12
1.2045301272358655
% es.EX (V/m) @ t=0.12
0.836675909686875
% es.EY (V/m) @ t=0.12
0.1252821610981466
% es.EZ (V/m) @ t=0.12
-0.8354556076189925
% es.tEX (V/m) @ t=0.12
0.836675909686877
% es.tEY (V/m) @ t=0.12
0
% es.tEZ (V/m) @ t=0.12
-0.8354556076189814
% es.Ex (V/m) @ t=0.12
0.836675909686875
% es.Ey (V/m) @ t=0.12
0.1252821610981466
% es.Ez (V/m) @ t=0.12
-0.8354556076189925
% es.tEx (V/m) @ t=0.12
0.836675909686877
% es.tEy (V/m) @ t=0.12
0
% es.tEz (V/m) @ t=0.12
-0.8354556076189814
% V (V) @ t=0.12
0.01289894864433351
% es.normE (V/m) @ t=0.14
1.2202489349423389
% es.EX (V/m) @ t=0.14
0.8475942785426402
% es.EY (V/m) @ t=0.14
0.12691712587969123
% es.EZ (V/m) @ t=0.14
-0.8463581057007397
% es.tEX (V/m) @ t=0.14
0.8475942785426418
% es.tEY (V/m) @ t=0.14
0
% es.tEZ (V/m) @ t=0.14
-0.8463581057007357
% es.Ex (V/m) @ t=0.14
0.8475942785426402
% es.Ey (V/m) @ t=0.14
0.12691712587969123
% es.Ez (V/m) @ t=0.14
-0.8463581057007397
% es.tEx (V/m) @ t=0.14
0.8475942785426418
% es.tEy (V/m) @ t=0.14
0
% es.tEz (V/m) @ t=0.14
-0.8463581057007357
% V (V) @ t=0.14
0.013067270876058645
% es.normE (V/m) @ t=0.16
1.2361284096538028
% es.EX (V/m) @ t=0.16
0.858624241052764
% es.EY (V/m) @ t=0.16
0.12856881274707332
% es.EZ (V/m) @ t=0.16
-0.8573720452186051
% es.tEX (V/m) @ t=0.16
0.8586242410527745
% es.tEY (V/m) @ t=0.16
0
% es.tEZ (V/m) @ t=0.16
-0.8573720452185905
% es.Ex (V/m) @ t=0.16
0.858624241052764
% es.Ey (V/m) @ t=0.16
0.12856881274707332
% es.Ez (V/m) @ t=0.16
-0.8573720452186051
% es.tEx (V/m) @ t=0.16
0.8586242410527745
% es.tEy (V/m) @ t=0.16
0
% es.tEz (V/m) @ t=0.16
-0.8573720452185905
% V (V) @ t=0.16
0.013237312665535237
% es.normE (V/m) @ t=0.18
1.252007884365271
% es.EX (V/m) @ t=0.18
0.8696542035628936
% es.EY (V/m) @ t=0.18
0.13022049961446008
% es.EZ (V/m) @ t=0.18
-0.8683859847364555
% es.tEX (V/m) @ t=0.18
0.8696542035628934
% es.tEY (V/m) @ t=0.18
0
% es.tEZ (V/m) @ t=0.18
-0.8683859847364515
% es.Ex (V/m) @ t=0.18
0.8696542035628936
% es.Ey (V/m) @ t=0.18
0.13022049961446008
% es.Ez (V/m) @ t=0.18
-0.8683859847364555
% es.tEx (V/m) @ t=0.18
0.8696542035628934
% es.tEy (V/m) @ t=0.18
0
% es.tEz (V/m) @ t=0.18
-0.8683859847364515
% V (V) @ t=0.18
0.01340735445501183
% es.normE (V/m) @ t=0.2
1.26788735907675
% es.EX (V/m) @ t=0.2
0.8806841660730209
% es.EY (V/m) @ t=0.2
0.1318721864818479
% es.EZ (V/m) @ t=0.2
-0.879399924254316
% es.tEX (V/m) @ t=0.2
0.8806841660730242
% es.tEY (V/m) @ t=0.2
0
% es.tEZ (V/m) @ t=0.2
-0.8793999242542982
% es.Ex (V/m) @ t=0.2
0.8806841660730209
% es.Ey (V/m) @ t=0.2
0.1318721864818479
% es.Ez (V/m) @ t=0.2
-0.879399924254316
% es.tEx (V/m) @ t=0.2
0.8806841660730242
% es.tEy (V/m) @ t=0.2
0
% es.tEz (V/m) @ t=0.2
-0.8793999242542982
% V (V) @ t=0.2
0.013577396244488423
% es.normE (V/m) @ t=0.22
1.2837668337882384
% es.EX (V/m) @ t=0.22
0.8917141285831549
% es.EY (V/m) @ t=0.22
0.13352387334925486
% es.EZ (V/m) @ t=0.22
-0.8904138637721739
% es.tEX (V/m) @ t=0.22
0.8917141285831525
% es.tEY (V/m) @ t=0.22
0
% es.tEZ (V/m) @ t=0.22
-0.8904138637721664
% es.Ex (V/m) @ t=0.22
0.8917141285831549
% es.Ey (V/m) @ t=0.22
0.13352387334925486
% es.Ez (V/m) @ t=0.22
-0.8904138637721739
% es.tEx (V/m) @ t=0.22
0.8917141285831525
% es.tEy (V/m) @ t=0.22
0
% es.tEz (V/m) @ t=0.22
-0.8904138637721664
% V (V) @ t=0.22
0.013747438033965016
% es.normE (V/m) @ t=0.24
1.2996463084997254
% es.EX (V/m) @ t=0.24
0.9027440910932747
% es.EY (V/m) @ t=0.24
0.1351755602166505
% es.EZ (V/m) @ t=0.24
-0.9014278032900318
% es.tEX (V/m) @ t=0.24
0.9027440910932794
% es.tEY (V/m) @ t=0.24
0
% es.tEZ (V/m) @ t=0.24
-0.901427803290014
% es.Ex (V/m) @ t=0.24
0.9027440910932747
% es.Ey (V/m) @ t=0.24
0.1351755602166505
% es.Ez (V/m) @ t=0.24
-0.9014278032900318
% es.tEx (V/m) @ t=0.24
0.9027440910932794
% es.tEy (V/m) @ t=0.24
0
% es.tEz (V/m) @ t=0.24
-0.901427803290014
% V (V) @ t=0.24
0.013917479823441605
% es.normE (V/m) @ t=0.26
1.3163251577125874
% es.EX (V/m) @ t=0.26
0.9143303803223921
% es.EY (V/m) @ t=0.26
0.1369087126619507
% es.EZ (V/m) @ t=0.26
-0.9129955861143944
% es.tEX (V/m) @ t=0.26
0.9143303803223932
% es.tEY (V/m) @ t=0.26
0
% es.tEZ (V/m) @ t=0.26
-0.9129955861143868
% es.Ex (V/m) @ t=0.26
0.9143303803223921
% es.Ey (V/m) @ t=0.26
0.1369087126619507
% es.Ez (V/m) @ t=0.26
-0.9129955861143944
% es.tEx (V/m) @ t=0.26
0.9143303803223932
% es.tEy (V/m) @ t=0.26
0
% es.tEz (V/m) @ t=0.26
-0.9129955861143868
% V (V) @ t=0.26
0.014096229482815324
% es.normE (V/m) @ t=0.28
1.3333401903229798
% es.EX (V/m) @ t=0.28
0.9261506372384074
% es.EY (V/m) @ t=0.28
0.13867612611282132
% es.EZ (V/m) @ t=0.28
-0.9247962922065418
% es.tEX (V/m) @ t=0.28
0.9261506372384103
% es.tEY (V/m) @ t=0.28
0
% es.tEZ (V/m) @ t=0.28
-0.9247962922065236
% es.Ex (V/m) @ t=0.28
0.9261506372384074
% es.Ey (V/m) @ t=0.28
0.13867612611282132
% es.Ez (V/m) @ t=0.28
-0.9247962922065418
% es.tEx (V/m) @ t=0.28
0.9261506372384103
% es.tEy (V/m) @ t=0.28
0
% es.tEz (V/m) @ t=0.28
-0.9247962922065236
% V (V) @ t=0.28
0.014278641307079353
% es.normE (V/m) @ t=0.3
1.3503552229404194
% es.EX (V/m) @ t=0.3
0.9379708941544298
% es.EY (V/m) @ t=0.3
0.14044353956368616
% es.EZ (V/m) @ t=0.3
-0.9365969982986715
% es.tEX (V/m) @ t=0.3
0.93797089415443
% es.tEY (V/m) @ t=0.3
0
% es.tEZ (V/m) @ t=0.3
-0.9365969982986533
% es.Ex (V/m) @ t=0.3
0.9379708941544298
% es.Ey (V/m) @ t=0.3
0.14044353956368616
% es.Ez (V/m) @ t=0.3
-0.9365969982986715
% es.tEx (V/m) @ t=0.3
0.93797089415443
% es.tEy (V/m) @ t=0.3
0
% es.tEz (V/m) @ t=0.3
-0.9365969982986533
% V (V) @ t=0.3
0.014461053131343384
% es.normE (V/m) @ t=0.32
1.3673702555646714
% es.EX (V/m) @ t=0.32
0.94979115107045
% es.EY (V/m) @ t=0.32
0.14221095301457254
% es.EZ (V/m) @ t=0.32
-0.9483977043908216
% es.tEX (V/m) @ t=0.32
0.9497911510704502
% es.tEY (V/m) @ t=0.32
0
% es.tEZ (V/m) @ t=0.32
-0.9483977043908105
% es.Ex (V/m) @ t=0.32
0.94979115107045
% es.Ey (V/m) @ t=0.32
0.14221095301457254
% es.Ez (V/m) @ t=0.32
-0.9483977043908216
% es.tEx (V/m) @ t=0.32
0.9497911510704502
% es.tEy (V/m) @ t=0.32
0
% es.tEz (V/m) @ t=0.32
-0.9483977043908105
% V (V) @ t=0.32
0.014643464955607413
% es.normE (V/m) @ t=0.34
1.3843852881954675
% es.EX (V/m) @ t=0.34
0.9616114079864782
% es.EY (V/m) @ t=0.34
0.1439783664654431
% es.EZ (V/m) @ t=0.34
-0.9601984104829655
% es.tEX (V/m) @ t=0.34
0.9616114079864824
% es.tEY (V/m) @ t=0.34
0
% es.tEZ (V/m) @ t=0.34
-0.9601984104829473
% es.Ex (V/m) @ t=0.34
0.9616114079864782
% es.Ey (V/m) @ t=0.34
0.1439783664654431
% es.Ez (V/m) @ t=0.34
-0.9601984104829655
% es.tEx (V/m) @ t=0.34
0.9616114079864824
% es.tEy (V/m) @ t=0.34
0
% es.tEz (V/m) @ t=0.34
-0.9601984104829473
% V (V) @ t=0.34
0.014825876779871443
% es.normE (V/m) @ t=0.36
1.401400320832578
% es.EX (V/m) @ t=0.36
0.9734316649024948
% es.EY (V/m) @ t=0.36
0.14574577991633303
% es.EZ (V/m) @ t=0.36
-0.9719991165751192
% es.tEX (V/m) @ t=0.36
0.973431664902499
% es.tEY (V/m) @ t=0.36
0
% es.tEZ (V/m) @ t=0.36
-0.9719991165751045
% es.Ex (V/m) @ t=0.36
0.9734316649024948
% es.Ey (V/m) @ t=0.36
0.14574577991633303
% es.Ez (V/m) @ t=0.36
-0.9719991165751192
% es.tEx (V/m) @ t=0.36
0.973431664902499
% es.tEy (V/m) @ t=0.36
0
% es.tEz (V/m) @ t=0.36
-0.9719991165751045
% V (V) @ t=0.36
0.015008288604135476
% es.normE (V/m) @ t=0.38
1.4190779024152032
% es.EX (V/m) @ t=0.38
0.9857105009710072
% es.EY (V/m) @ t=0.38
0.1475846535068598
% es.EZ (V/m) @ t=0.38
-0.984260271114644
% es.tEX (V/m) @ t=0.38
0.985710500971011
% es.tEY (V/m) @ t=0.38
0
% es.tEZ (V/m) @ t=0.38
-0.9842602711146293
% es.Ex (V/m) @ t=0.38
0.9857105009710072
% es.Ey (V/m) @ t=0.38
0.1475846535068598
% es.Ez (V/m) @ t=0.38
-0.984260271114644
% es.tEx (V/m) @ t=0.38
0.985710500971011
% es.tEy (V/m) @ t=0.38
0
% es.tEz (V/m) @ t=0.38
-0.9842602711146293
% V (V) @ t=0.38
0.015197571097500697
% es.normE (V/m) @ t=0.4
1.4372751657952576
% es.EX (V/m) @ t=0.4
0.9983490315779708
% es.EY (V/m) @ t=0.4
0.1494795781014922
% es.EZ (V/m) @ t=0.4
-0.9968825864066191
% es.tEX (V/m) @ t=0.4
0.9983490315779764
% es.tEY (V/m) @ t=0.4
0
% es.tEZ (V/m) @ t=0.4
-0.9968825864066009
% es.Ex (V/m) @ t=0.4
0.9983490315779708
% es.Ey (V/m) @ t=0.4
0.1494795781014922
% es.Ez (V/m) @ t=0.4
-0.9968825864066191
% es.tEx (V/m) @ t=0.4
0.9983490315779764
% es.tEy (V/m) @ t=0.4
0
% es.tEz (V/m) @ t=0.4
-0.9968825864066009
% V (V) @ t=0.4
0.015392242719738694
% es.normE (V/m) @ t=0.42
1.4554724291824668
% es.EX (V/m) @ t=0.42
1.0109875621849194
% es.EY (V/m) @ t=0.42
0.151374502696125
% es.EZ (V/m) @ t=0.42
-1.0095049016985995
% es.tEX (V/m) @ t=0.42
1.0109875621849214
% es.tEY (V/m) @ t=0.42
0
% es.tEZ (V/m) @ t=0.42
-1.0095049016985849
% es.Ex (V/m) @ t=0.42
1.0109875621849194
% es.Ey (V/m) @ t=0.42
0.151374502696125
% es.Ez (V/m) @ t=0.42
-1.0095049016985995
% es.tEx (V/m) @ t=0.42
1.0109875621849214
% es.tEy (V/m) @ t=0.42
0
% es.tEz (V/m) @ t=0.42
-1.0095049016985849
% V (V) @ t=0.42
0.01558691434197669
% es.normE (V/m) @ t=0.44
1.4736696925765822
% es.EX (V/m) @ t=0.44
1.023626092791882
% es.EY (V/m) @ t=0.44
0.15326942729073878
% es.EZ (V/m) @ t=0.44
-1.0221272169905915
% es.tEX (V/m) @ t=0.44
1.023626092791884
% es.tEY (V/m) @ t=0.44
0
% es.tEZ (V/m) @ t=0.44
-1.0221272169905697
% es.Ex (V/m) @ t=0.44
1.023626092791882
% es.Ey (V/m) @ t=0.44
0.15326942729073878
% es.Ez (V/m) @ t=0.44
-1.0221272169905915
% es.tEx (V/m) @ t=0.44
1.023626092791884
% es.tEy (V/m) @ t=0.44
0
% es.tEz (V/m) @ t=0.44
-1.0221272169905697
% V (V) @ t=0.44
0.015781585964214688
% es.normE (V/m) @ t=0.46
1.4918669559773359
% es.EX (V/m) @ t=0.46
1.0362646233988364
% es.EY (V/m) @ t=0.46
0.15516435188538275
% es.EZ (V/m) @ t=0.46
-1.0347495322825835
% es.tEX (V/m) @ t=0.46
1.0362646233988415
% es.tEY (V/m) @ t=0.46
0
% es.tEZ (V/m) @ t=0.46
-1.0347495322825617
% es.Ex (V/m) @ t=0.46
1.0362646233988364
% es.Ey (V/m) @ t=0.46
0.15516435188538275
% es.Ez (V/m) @ t=0.46
-1.0347495322825835
% es.tEx (V/m) @ t=0.46
1.0362646233988415
% es.tEy (V/m) @ t=0.46
0
% es.tEz (V/m) @ t=0.46
-1.0347495322825617
% V (V) @ t=0.46
0.01597625758645268
% es.normE (V/m) @ t=0.48
1.51006421938447
% es.EX (V/m) @ t=0.48
1.0489031540057991
% es.EY (V/m) @ t=0.48
0.1570592764800332
% es.EZ (V/m) @ t=0.48
-1.0473718475745266
% es.tEX (V/m) @ t=0.48
1.0489031540058043
% es.tEY (V/m) @ t=0.48
0
% es.tEZ (V/m) @ t=0.48
-1.0473718475745049
% es.Ex (V/m) @ t=0.48
1.0489031540057991
% es.Ey (V/m) @ t=0.48
0.1570592764800332
% es.Ez (V/m) @ t=0.48
-1.0473718475745266
% es.tEx (V/m) @ t=0.48
1.0489031540058043
% es.tEy (V/m) @ t=0.48
0
% es.tEz (V/m) @ t=0.48
-1.0473718475745049
% V (V) @ t=0.48
0.01617092920869068
% es.normE (V/m) @ t=0.5
1.5284877654821996
% es.EX (V/m) @ t=0.5
1.0616991058057808
% es.EY (V/m) @ t=0.5
0.1589773563778729
% es.EZ (V/m) @ t=0.5
-1.0601509758893513
% es.tEX (V/m) @ t=0.5
1.0616991058057899
% es.tEY (V/m) @ t=0.5
0
% es.tEZ (V/m) @ t=0.5
-1.0601509758893295
% es.Ex (V/m) @ t=0.5
1.0616991058057808
% es.Ey (V/m) @ t=0.5
0.1589773563778729
% es.Ez (V/m) @ t=0.5
-1.0601509758893513
% es.tEx (V/m) @ t=0.5
1.0616991058057899
% es.tEy (V/m) @ t=0.5
0
% es.tEz (V/m) @ t=0.5
-1.0601509758893295
% V (V) @ t=0.5
0.016368057474960302
% es.normE (V/m) @ t=0.52
1.5473450351042515
% es.EX (V/m) @ t=0.52
1.074796792024187
% es.EY (V/m) @ t=0.52
0.1609398188129193
% es.EZ (V/m) @ t=0.52
-1.073230672922572
% es.tEX (V/m) @ t=0.52
1.074796792024188
% es.tEY (V/m) @ t=0.52
0
% es.tEZ (V/m) @ t=0.52
-1.0732306729225503
% es.Ex (V/m) @ t=0.52
1.074796792024187
% es.Ey (V/m) @ t=0.52
0.1609398188129193
% es.Ez (V/m) @ t=0.52
-1.073230672922572
% es.tEx (V/m) @ t=0.52
1.074796792024188
% es.tEy (V/m) @ t=0.52
0
% es.tEz (V/m) @ t=0.52
-1.0732306729225503
% V (V) @ t=0.52
0.0165698944722708
% es.normE (V/m) @ t=0.54
1.5663677754002212
% es.EX (V/m) @ t=0.54
1.088009593505783
% es.EY (V/m) @ t=0.54
0.16291921371286205
% es.EZ (V/m) @ t=0.54
-1.0864250404905875
% es.tEX (V/m) @ t=0.54
1.088009593505784
% es.tEY (V/m) @ t=0.54
0
% es.tEZ (V/m) @ t=0.54
-1.0864250404905658
% es.Ex (V/m) @ t=0.54
1.088009593505783
% es.Ey (V/m) @ t=0.54
0.16291921371286205
% es.Ez (V/m) @ t=0.54
-1.0864250404905875
% es.tEx (V/m) @ t=0.54
1.088009593505784
% es.tEy (V/m) @ t=0.54
0
% es.tEz (V/m) @ t=0.54
-1.0864250404905658
% V (V) @ t=0.54
0.016773527906381237
% es.normE (V/m) @ t=0.56
1.5855559863692679
% es.EX (V/m) @ t=0.56
1.1013375102505412
% es.EY (V/m) @ t=0.56
0.1649155410777245
% es.EZ (V/m) @ t=0.56
-1.0997340785934155
% es.tEX (V/m) @ t=0.56
1.1013375102505463
% es.tEY (V/m) @ t=0.56
0
% es.tEZ (V/m) @ t=0.56
-1.0997340785933938
% es.Ex (V/m) @ t=0.56
1.1013375102505412
% es.Ey (V/m) @ t=0.56
0.1649155410777245
% es.Ez (V/m) @ t=0.56
-1.0997340785934155
% es.tEx (V/m) @ t=0.56
1.1013375102505463
% es.tEy (V/m) @ t=0.56
0
% es.tEz (V/m) @ t=0.56
-1.0997340785933938
% V (V) @ t=0.56
0.01697895777729162
% es.normE (V/m) @ t=0.58
1.6049096680108632
% es.EX (V/m) @ t=0.58
1.1147805422584878
% es.EY (V/m) @ t=0.58
0.166928800907457
% es.EZ (V/m) @ t=0.58
-1.1131577872310507
% es.tEX (V/m) @ t=0.58
1.1147805422584924
% es.tEY (V/m) @ t=0.58
0
% es.tEZ (V/m) @ t=0.58
-1.113157787231029
% es.Ex (V/m) @ t=0.58
1.1147805422584878
% es.Ey (V/m) @ t=0.58
0.166928800907457
% es.Ez (V/m) @ t=0.58
-1.1131577872310507
% es.tEx (V/m) @ t=0.58
1.1147805422584924
% es.tEy (V/m) @ t=0.58
0
% es.tEz (V/m) @ t=0.58
-1.113157787231029
% V (V) @ t=0.58
0.01718618408500194
% es.normE (V/m) @ t=0.6
1.624428820324768
% es.EX (V/m) @ t=0.6
1.1283386895296448
% es.EY (V/m) @ t=0.6
0.1689589932020829
% es.EZ (V/m) @ t=0.6
-1.1266961664034851
% es.tEX (V/m) @ t=0.6
1.1283386895296568
% es.tEY (V/m) @ t=0.6
0
% es.tEZ (V/m) @ t=0.6
-1.1266961664034634
% es.Ex (V/m) @ t=0.6
1.1283386895296448
% es.Ey (V/m) @ t=0.6
0.1689589932020829
% es.Ez (V/m) @ t=0.6
-1.1266961664034851
% es.tEx (V/m) @ t=0.6
1.1283386895296568
% es.tEy (V/m) @ t=0.6
0
% es.tEz (V/m) @ t=0.6
-1.1266961664034634
% V (V) @ t=0.6
0.017395206829512205
% es.normE (V/m) @ t=0.62
1.6441134433109639
% es.EX (V/m) @ t=0.62
1.1420119520639715
% es.EY (V/m) @ t=0.62
0.1710061179616168
% es.EZ (V/m) @ t=0.62
-1.140349216110708
% es.tEX (V/m) @ t=0.62
1.1420119520639798
% es.tEY (V/m) @ t=0.62
0
% es.tEZ (V/m) @ t=0.62
-1.1403492161106792
% es.Ex (V/m) @ t=0.62
1.1420119520639715
% es.Ey (V/m) @ t=0.62
0.1710061179616168
% es.Ez (V/m) @ t=0.62
-1.140349216110708
% es.tEx (V/m) @ t=0.62
1.1420119520639798
% es.tEy (V/m) @ t=0.62
0
% es.tEz (V/m) @ t=0.62
-1.1403492161106792
% V (V) @ t=0.62
0.017606026010822413
% es.normE (V/m) @ t=0.64
1.6639635369697507
% es.EX (V/m) @ t=0.64
1.1558003298614967
% es.EY (V/m) @ t=0.64
0.17307017518606554
% es.EZ (V/m) @ t=0.64
-1.1541169363527222
% es.tEX (V/m) @ t=0.64
1.1558003298614978
% es.tEY (V/m) @ t=0.64
0
% es.tEZ (V/m) @ t=0.64
-1.1541169363527075
% es.Ex (V/m) @ t=0.64
1.1558003298614967
% es.Ey (V/m) @ t=0.64
0.17307017518606554
% es.Ez (V/m) @ t=0.64
-1.1541169363527222
% es.tEx (V/m) @ t=0.64
1.1558003298614978
% es.tEy (V/m) @ t=0.64
0
% es.tEz (V/m) @ t=0.64
-1.1541169363527075
% V (V) @ t=0.64
0.01781864162893256
% es.normE (V/m) @ t=0.66
1.6839791013016487
% es.EX (V/m) @ t=0.66
1.1697038229222014
% es.EY (V/m) @ t=0.66
0.17515116487543142
% es.EZ (V/m) @ t=0.66
-1.1679993271295595
% es.tEX (V/m) @ t=0.66
1.169703822922202
% es.tEY (V/m) @ t=0.66
0
% es.tEZ (V/m) @ t=0.66
-1.1679993271295377
% es.Ex (V/m) @ t=0.66
1.1697038229222014
% es.Ey (V/m) @ t=0.66
0.17515116487543142
% es.Ez (V/m) @ t=0.66
-1.1679993271295595
% es.tEx (V/m) @ t=0.66
1.169703822922202
% es.tEy (V/m) @ t=0.66
0
% es.tEz (V/m) @ t=0.66
-1.1679993271295377
% V (V) @ t=0.66
0.01803305368384265
% es.normE (V/m) @ t=0.68
1.7041601363073835
% es.EX (V/m) @ t=0.68
1.1837224312460735
% es.EY (V/m) @ t=0.68
0.17724908702965175
% es.EZ (V/m) @ t=0.68
-1.181996388441188
% es.tEX (V/m) @ t=0.68
1.1837224312460775
% es.tEY (V/m) @ t=0.68
0
% es.tEZ (V/m) @ t=0.68
-1.1819963884411662
% es.Ex (V/m) @ t=0.68
1.1837224312460735
% es.Ey (V/m) @ t=0.68
0.17724908702965175
% es.Ez (V/m) @ t=0.68
-1.181996388441188
% es.tEx (V/m) @ t=0.68
1.1837224312460775
% es.tEy (V/m) @ t=0.68
0
% es.tEz (V/m) @ t=0.68
-1.1819963884411662
% V (V) @ t=0.68
0.018249262175552686
% es.normE (V/m) @ t=0.7
1.7245066419879422
% es.EX (V/m) @ t=0.7
1.1978561548331603
% es.EY (V/m) @ t=0.7
0.17936394164877884
% es.EZ (V/m) @ t=0.7
-1.1961081202876227
% es.tEX (V/m) @ t=0.7
1.1978561548331648
% es.tEY (V/m) @ t=0.7
0
% es.tEZ (V/m) @ t=0.7
-1.196108120287608
% es.Ex (V/m) @ t=0.7
1.1978561548331603
% es.Ey (V/m) @ t=0.7
0.17936394164877884
% es.Ez (V/m) @ t=0.7
-1.1961081202876227
% es.tEx (V/m) @ t=0.7
1.1978561548331648
% es.tEy (V/m) @ t=0.7
0
% es.tEz (V/m) @ t=0.7
-1.196108120287608
% V (V) @ t=0.7
0.01846726710406266
% es.normE (V/m) @ t=0.72
1.7450186183444363
% es.EX (V/m) @ t=0.72
1.2121049936834205
% es.EY (V/m) @ t=0.72
0.1814957287328306
% es.EZ (V/m) @ t=0.72
-1.2103345226688433
% es.tEX (V/m) @ t=0.72
1.2121049936834245
% es.tEY (V/m) @ t=0.72
0
% es.tEZ (V/m) @ t=0.72
-1.2103345226688074
% es.Ex (V/m) @ t=0.72
1.2121049936834205
% es.Ey (V/m) @ t=0.72
0.1814957287328306
% es.Ez (V/m) @ t=0.72
-1.2103345226688433
% es.tEx (V/m) @ t=0.72
1.2121049936834245
% es.tEy (V/m) @ t=0.72
0
% es.tEz (V/m) @ t=0.72
-1.2103345226688074
% V (V) @ t=0.72
0.01868706846937258
% es.normE (V/m) @ t=0.74
1.7657328795973082
% es.EX (V/m) @ t=0.74
1.22649436117808
% es.EY (V/m) @ t=0.74
0.1836485240978457
% es.EZ (V/m) @ t=0.74
-1.2247012176448115
% es.tEX (V/m) @ t=0.74
1.2264943611780836
% es.tEY (V/m) @ t=0.74
0
% es.tEZ (V/m) @ t=0.74
-1.224701217644797
% es.Ex (V/m) @ t=0.74
1.22649436117808
% es.Ey (V/m) @ t=0.74
0.1836485240978457
% es.Ez (V/m) @ t=0.74
-1.2247012176448115
% es.tEx (V/m) @ t=0.74
1.2264943611780836
% es.tEy (V/m) @ t=0.74
0
% es.tEz (V/m) @ t=0.74
-1.224701217644797
% V (V) @ t=0.74
0.018909038781170603
% es.normE (V/m) @ t=0.76
1.786885120944771
% es.EX (V/m) @ t=0.76
1.241186961079436
% es.EY (V/m) @ t=0.76
0.18584842228864362
% es.EZ (V/m) @ t=0.76
-1.239372244999064
% es.tEX (V/m) @ t=0.76
1.2411869610794364
% es.tEY (V/m) @ t=0.76
0
% es.tEZ (V/m) @ t=0.76
-1.2393722449990348
% es.Ex (V/m) @ t=0.76
1.241186961079436
% es.Ey (V/m) @ t=0.76
0.18584842228864362
% es.Ez (V/m) @ t=0.76
-1.239372244999064
% es.tEx (V/m) @ t=0.76
1.2411869610794364
% es.tEy (V/m) @ t=0.76
0
% es.tEz (V/m) @ t=0.76
-1.2393722449990348
% V (V) @ t=0.76
0.01913556295342019
% es.normE (V/m) @ t=0.78
1.8082485005746318
% es.EX (V/m) @ t=0.78
1.2560262012459202
% es.EY (V/m) @ t=0.78
0.18807030894642185
% es.EZ (V/m) @ t=0.78
-1.2541897267535878
% es.tEX (V/m) @ t=0.78
1.2560262012459171
% es.tEY (V/m) @ t=0.78
0
% es.tEZ (V/m) @ t=0.78
-1.254189726753566
% es.Ex (V/m) @ t=0.78
1.2560262012459202
% es.Ey (V/m) @ t=0.78
0.18807030894642185
% es.Ez (V/m) @ t=0.78
-1.2541897267535878
% es.tEx (V/m) @ t=0.78
1.2560262012459171
% es.tEy (V/m) @ t=0.78
0
% es.tEz (V/m) @ t=0.78
-1.254189726753566
% V (V) @ t=0.78
0.019364345656377676
% es.normE (V/m) @ t=0.8
1.8298230184869007
% es.EX (V/m) @ t=0.8
1.2710120816775174
% es.EY (V/m) @ t=0.8
0.19031418407126033
% es.EZ (V/m) @ t=0.8
-1.2691536629083902
% es.tEX (V/m) @ t=0.8
1.2710120816775285
% es.tEY (V/m) @ t=0.8
0
% es.tEZ (V/m) @ t=0.8
-1.2691536629083613
% es.Ex (V/m) @ t=0.8
1.2710120816775174
% es.Ey (V/m) @ t=0.8
0.19031418407126033
% es.Ez (V/m) @ t=0.8
-1.2691536629083902
% es.tEx (V/m) @ t=0.8
1.2710120816775285
% es.tEy (V/m) @ t=0.8
0
% es.tEz (V/m) @ t=0.8
-1.2691536629083613
% V (V) @ t=0.8
0.019595386890043066
% es.normE (V/m) @ t=0.82
1.8516086746815852
% es.EX (V/m) @ t=0.82
1.2861446023742604
% es.EY (V/m) @ t=0.82
0.19258004766318282
% es.EZ (V/m) @ t=0.82
-1.2842640534634597
% es.tEX (V/m) @ t=0.82
1.2861446023742564
% es.tEY (V/m) @ t=0.82
0
% es.tEZ (V/m) @ t=0.82
-1.2842640534634304
% es.Ex (V/m) @ t=0.82
1.2861446023742604
% es.Ey (V/m) @ t=0.82
0.19258004766318282
% es.Ez (V/m) @ t=0.82
-1.2842640534634597
% es.tEx (V/m) @ t=0.82
1.2861446023742564
% es.tEy (V/m) @ t=0.82
0
% es.tEz (V/m) @ t=0.82
-1.2842640534634304
% V (V) @ t=0.82
0.019828686654416366
% es.normE (V/m) @ t=0.84
1.8736054691586896
% es.EX (V/m) @ t=0.84
1.3014237633361208
% es.EY (V/m) @ t=0.84
0.1948678997221287
% es.EZ (V/m) @ t=0.84
-1.2995208984188444
% es.tEX (V/m) @ t=0.84
1.3014237633361345
% es.tEY (V/m) @ t=0.84
0
% es.tEZ (V/m) @ t=0.84
-1.2995208984188222
% es.Ex (V/m) @ t=0.84
1.3014237633361208
% es.Ey (V/m) @ t=0.84
0.1948678997221287
% es.Ez (V/m) @ t=0.84
-1.2995208984188444
% es.tEx (V/m) @ t=0.84
1.3014237633361345
% es.tEy (V/m) @ t=0.84
0
% es.tEz (V/m) @ t=0.84
-1.2995208984188222
% V (V) @ t=0.84
0.020064244949497562
% es.normE (V/m) @ t=0.86
1.8958134019182222
% es.EX (V/m) @ t=0.86
1.3168495645631362
% es.EY (V/m) @ t=0.86
0.1971777402481414
% es.EZ (V/m) @ t=0.86
-1.314924197774507
% es.tEX (V/m) @ t=0.86
1.3168495645631424
% es.tEY (V/m) @ t=0.86
0
% es.tEZ (V/m) @ t=0.86
-1.3149241977744923
% es.Ex (V/m) @ t=0.86
1.3168495645631362
% es.Ey (V/m) @ t=0.86
0.1971777402481414
% es.Ez (V/m) @ t=0.86
-1.314924197774507
% es.tEx (V/m) @ t=0.86
1.3168495645631424
% es.tEy (V/m) @ t=0.86
0
% es.tEz (V/m) @ t=0.86
-1.3149241977744923
% V (V) @ t=0.86
0.020302061775286664
% es.normE (V/m) @ t=0.88
1.9182324729601858
% es.EX (V/m) @ t=0.88
1.3324220060552863
% es.EY (V/m) @ t=0.88
0.19950956924125662
% es.EZ (V/m) @ t=0.88
-1.330473951530458
% es.tEX (V/m) @ t=0.88
1.3324220060552818
% es.tEY (V/m) @ t=0.88
0
% es.tEZ (V/m) @ t=0.88
-1.3304739515304504
% es.Ex (V/m) @ t=0.88
1.3324220060552863
% es.Ey (V/m) @ t=0.88
0.19950956924125662
% es.Ez (V/m) @ t=0.88
-1.330473951530458
% es.tEx (V/m) @ t=0.88
1.3324220060552818
% es.tEy (V/m) @ t=0.88
0
% es.tEz (V/m) @ t=0.88
-1.3304739515304504
% V (V) @ t=0.88
0.02054213713178368
% es.normE (V/m) @ t=0.9
1.9408626822845614
% es.EX (V/m) @ t=0.9
1.3481410878125675
% es.EY (V/m) @ t=0.9
0.20186338670135184
% es.EZ (V/m) @ t=0.9
-1.3461701596866806
% es.tEX (V/m) @ t=0.9
1.3481410878125661
% es.tEY (V/m) @ t=0.9
0
% es.tEZ (V/m) @ t=0.9
-1.3461701596866584
% es.Ex (V/m) @ t=0.9
1.3481410878125675
% es.Ey (V/m) @ t=0.9
0.20186338670135184
% es.Ez (V/m) @ t=0.9
-1.3461701596866806
% es.tEx (V/m) @ t=0.9
1.3481410878125661
% es.tEy (V/m) @ t=0.9
0
% es.tEz (V/m) @ t=0.9
-1.3461701596866584
% V (V) @ t=0.9
0.020784471018988584
% es.normE (V/m) @ t=0.92
1.9637040298913637
% es.EX (V/m) @ t=0.92
1.3640068098349718
% es.EY (V/m) @ t=0.92
0.20423919262851187
% es.EZ (V/m) @ t=0.92
-1.3620128222431864
% es.tEX (V/m) @ t=0.92
1.3640068098349678
% es.tEY (V/m) @ t=0.92
0
% es.tEZ (V/m) @ t=0.92
-1.3620128222431571
% es.Ex (V/m) @ t=0.92
1.3640068098349718
% es.Ey (V/m) @ t=0.92
0.20423919262851187
% es.Ez (V/m) @ t=0.92
-1.3620128222431864
% es.tEx (V/m) @ t=0.92
1.3640068098349678
% es.tEy (V/m) @ t=0.92
0
% es.tEz (V/m) @ t=0.92
-1.3620128222431571
% V (V) @ t=0.92
0.0210290634369014
% es.normE (V/m) @ t=0.94
1.9867565157806295
% es.EX (V/m) @ t=0.94
1.380019172122513
% es.EY (V/m) @ t=0.94
0.20663698702276234
% es.EZ (V/m) @ t=0.94
-1.3780019391999843
% es.tEX (V/m) @ t=0.94
1.3800191721225108
% es.tEY (V/m) @ t=0.94
0
% es.tEZ (V/m) @ t=0.94
-1.3780019391999625
% es.Ex (V/m) @ t=0.94
1.380019172122513
% es.Ey (V/m) @ t=0.94
0.20663698702276234
% es.Ez (V/m) @ t=0.94
-1.3780019391999843
% es.tEx (V/m) @ t=0.94
1.3800191721225108
% es.tEy (V/m) @ t=0.94
0
% es.tEz (V/m) @ t=0.94
-1.3780019391999625
% V (V) @ t=0.94
0.02127591438552212
% es.normE (V/m) @ t=0.96
2.0100201399523643
% es.EX (V/m) @ t=0.96
1.3961781746751978
% es.EY (V/m) @ t=0.96
0.2090567698840824
% es.EZ (V/m) @ t=0.96
-1.394137510557067
% es.tEX (V/m) @ t=0.96
1.3961781746752147
% es.tEY (V/m) @ t=0.96
0
% es.tEZ (V/m) @ t=0.96
-1.394137510557031
% es.Ex (V/m) @ t=0.96
1.3961781746751978
% es.Ey (V/m) @ t=0.96
0.2090567698840824
% es.Ez (V/m) @ t=0.96
-1.394137510557067
% es.tEx (V/m) @ t=0.96
1.3961781746752147
% es.tEy (V/m) @ t=0.96
0
% es.tEz (V/m) @ t=0.96
-1.394137510557031
% V (V) @ t=0.96
0.021525023864850737
% es.normE (V/m) @ t=0.98
2.0334949024065625
% es.EX (V/m) @ t=0.98
1.41248381749301
% es.EY (V/m) @ t=0.98
0.21149854121243772
% es.EZ (V/m) @ t=0.98
-1.4104195363144267
% es.tEX (V/m) @ t=0.98
1.412483817493018
% es.tEY (V/m) @ t=0.98
0
% es.tEZ (V/m) @ t=0.98
-1.4104195363144054
% es.Ex (V/m) @ t=0.98
1.41248381749301
% es.Ey (V/m) @ t=0.98
0.21149854121243772
% es.Ez (V/m) @ t=0.98
-1.4104195363144267
% es.tEx (V/m) @ t=0.98
1.412483817493018
% es.tEy (V/m) @ t=0.98
0
% es.tEz (V/m) @ t=0.98
-1.4104195363144054
% V (V) @ t=0.98
0.021776391874887266
% es.normE (V/m) @ t=1
2.0573210172857856
% es.EX (V/m) @ t=1
1.4290334111382994
% es.EY (V/m) @ t=1
0.21397702396094576
% es.EZ (V/m) @ t=1
-1.4269453112648414
% es.tEX (V/m) @ t=1
1.429033411138306
% es.tEY (V/m) @ t=1
0
% es.tEZ (V/m) @ t=1
-1.42694531126482
% es.Ex (V/m) @ t=1
1.4290334111382994
% es.Ey (V/m) @ t=1
0.21397702396094576
% es.Ez (V/m) @ t=1
-1.4269453112648414
% es.tEx (V/m) @ t=1
1.429033411138306
% es.tEy (V/m) @ t=1
0
% es.tEz (V/m) @ t=1
-1.42694531126482
% V (V) @ t=1
0.022031508021202198
% es.normE (V/m) @ t=1.02
2.0814077748418756
% es.EX (V/m) @ t=1.02
1.4457640017859021
% es.EY (V/m) @ t=1.02
0.21648269330318048
% es.EZ (V/m) @ t=1.02
-1.4436518917850707
% es.tEX (V/m) @ t=1.02
1.4457640017859141
% es.tEY (V/m) @ t=1.02
0
% es.tEZ (V/m) @ t=1.02
-1.4436518917850414
% es.Ex (V/m) @ t=1.02
1.4457640017859021
% es.Ey (V/m) @ t=1.02
0.21648269330318048
% es.Ez (V/m) @ t=1.02
-1.4436518917850707
% es.tEx (V/m) @ t=1.02
1.4457640017859141
% es.tEy (V/m) @ t=1.02
0
% es.tEz (V/m) @ t=1.02
-1.4436518917850414
% V (V) @ t=1.02
0.022289408622501294
% es.normE (V/m) @ t=1.04
2.1057310127137625
% es.EX (V/m) @ t=1.04
1.4626588204215936
% es.EY (V/m) @ t=1.04
0.21901301211057134
% es.EZ (V/m) @ t=1.04
-1.4605225115783762
% es.tEX (V/m) @ t=1.04
1.462658820421602
% es.tEY (V/m) @ t=1.04
0