% Model:              1 neuron.mph
% Version:            COMSOL 6.0.0.405
% Date:               Mar 16 2023, 20:08
% Dimension:          0
% Nodes:              14017
% Expressions:        14017
% Description:        Electric field norm, Electric field, X component, Electric field, Y component, Electric field, Z component, Tangential electric field, X component, Tangential electric field, Y component, Tangential electric field, Z component, Electric field, x component, Electric field, y component, Electric field, z component, Tangential electric field, x component, Tangential electric field, y component, Tangential electric field, z component, Electric potential
% Length unit:        mm
% x
1.33
% y
12.2
% z
1.33
% es.normE (V/m) @ t=0
14.277104307322668
% es.EX (V/m) @ t=0
11.063102098118804
% es.EY (V/m) @ t=0
-1.69519473120193
% es.EZ (V/m) @ t=0
8.838217345217132
% es.tEX (V/m) @ t=0
11.063102098118847
% es.tEY (V/m) @ t=0
0
% es.tEZ (V/m) @ t=0
8.838217345217128
% es.Ex (V/m) @ t=0
11.063102098118804
% es.Ey (V/m) @ t=0
-1.69519473120193
% es.Ez (V/m) @ t=0
8.838217345217132
% es.tEx (V/m) @ t=0
11.063102098118847
% es.tEy (V/m) @ t=0
0
% es.tEz (V/m) @ t=0
8.838217345217128
% V (V) @ t=0
0.011790500743470893
% es.normE (V/m) @ t=0.02
12.372197209942822
% es.EX (V/m) @ t=0.02
9.587019679168788
% es.EY (V/m) @ t=0.02
-1.4690156722767753
% es.EZ (V/m) @ t=0.02
7.658987784960281
% es.tEX (V/m) @ t=0.02
9.587019679168858
% es.tEY (V/m) @ t=0.02
0
% es.tEZ (V/m) @ t=0.02
7.658987784960287
% es.Ex (V/m) @ t=0.02
9.587019679168788
% es.Ey (V/m) @ t=0.02
-1.4690156722767753
% es.Ez (V/m) @ t=0.02
7.658987784960281
% es.tEx (V/m) @ t=0.02
9.587019679168858
% es.tEy (V/m) @ t=0.02
0
% es.tEz (V/m) @ t=0.02
7.658987784960287
% V (V) @ t=0.02
0.01021736659763449
% es.normE (V/m) @ t=0.04
12.527696812052744
% es.EX (V/m) @ t=0.04
9.707513195487055
% es.EY (V/m) @ t=0.04
-1.4874836379530354
% es.EZ (V/m) @ t=0.04
7.755249160892422
% es.tEX (V/m) @ t=0.04
9.707513195487056
% es.tEY (V/m) @ t=0.04
0
% es.tEZ (V/m) @ t=0.04
7.755249160892439
% es.Ex (V/m) @ t=0.04
9.707513195487055
% es.Ey (V/m) @ t=0.04
-1.4874836379530354
% es.Ez (V/m) @ t=0.04
7.755249160892422
% es.tEx (V/m) @ t=0.04
9.707513195487056
% es.tEy (V/m) @ t=0.04
0
% es.tEz (V/m) @ t=0.04
7.755249160892439
% V (V) @ t=0.04
0.010345789257677443
% es.normE (V/m) @ t=0.06
12.684665137033218
% es.EX (V/m) @ t=0.06
9.829143800941907
% es.EY (V/m) @ t=0.06
-1.506133104288386
% es.EZ (V/m) @ t=0.06
7.852419148770342
% es.tEX (V/m) @ t=0.06
9.829143800941962
% es.tEY (V/m) @ t=0.06
0
% es.tEZ (V/m) @ t=0.06
7.852419148770344
% es.Ex (V/m) @ t=0.06
9.829143800941907
% es.Ey (V/m) @ t=0.06
-1.506133104288386
% es.Ez (V/m) @ t=0.06
7.852419148770342
% es.tEx (V/m) @ t=0.06
9.829143800941962
% es.tEy (V/m) @ t=0.06
0
% es.tEz (V/m) @ t=0.06
7.852419148770344
% V (V) @ t=0.06
0.010475433923341552
% es.normE (V/m) @ t=0.08
12.846474097810054
% es.EX (V/m) @ t=0.08
9.954529639686744
% es.EY (V/m) @ t=0.08
-1.525326769823696
% es.EZ (V/m) @ t=0.08
7.952588294833417
% es.tEX (V/m) @ t=0.08
9.954529639686776
% es.tEY (V/m) @ t=0.08
0
% es.tEZ (V/m) @ t=0.08
7.952588294833413
% es.Ex (V/m) @ t=0.08
9.954529639686744
% es.Ey (V/m) @ t=0.08
-1.525326769823696
% es.Ez (V/m) @ t=0.08
7.952588294833417
% es.tEx (V/m) @ t=0.08
9.954529639686776
% es.tEy (V/m) @ t=0.08
0
% es.tEz (V/m) @ t=0.08
7.952588294833413
% V (V) @ t=0.08
0.010609037139645441
% es.normE (V/m) @ t=0.1
13.008839847070341
% es.EX (V/m) @ t=0.1
10.080347419707843
% es.EY (V/m) @ t=0.1
-1.5445830312296494
% es.EZ (V/m) @ t=0.1
8.053102415526343
% es.tEX (V/m) @ t=0.1
10.08034741970784
% es.tEY (V/m) @ t=0.1
0
% es.tEZ (V/m) @ t=0.1
8.053102415526347
% es.Ex (V/m) @ t=0.1
10.080347419707843
% es.Ey (V/m) @ t=0.1
-1.5445830312296494
% es.Ez (V/m) @ t=0.1
8.053102415526343
% es.tEx (V/m) @ t=0.1
10.08034741970784
% es.tEy (V/m) @ t=0.1
0
% es.tEz (V/m) @ t=0.1
8.053102415526347
% V (V) @ t=0.1
0.01074309568356378
% es.normE (V/m) @ t=0.12
13.171205596398202
% es.EX (V/m) @ t=0.12
10.20616519972903
% es.EY (V/m) @ t=0.12
-1.563839292635544
% es.EZ (V/m) @ t=0.12
8.153616536219278
% es.tEX (V/m) @ t=0.12
10.206165199729075
% es.tEY (V/m) @ t=0.12
0
% es.tEZ (V/m) @ t=0.12
8.153616536219264
% es.Ex (V/m) @ t=0.12
10.20616519972903
% es.Ey (V/m) @ t=0.12
-1.563839292635544
% es.Ez (V/m) @ t=0.12
8.153616536219278
% es.tEx (V/m) @ t=0.12
10.206165199729075
% es.tEy (V/m) @ t=0.12
0
% es.tEz (V/m) @ t=0.12
8.153616536219264
% V (V) @ t=0.12
0.01087715422748212
% es.normE (V/m) @ t=0.14
13.342931458239587
% es.EX (V/m) @ t=0.14
10.33923430825327
% es.EY (V/m) @ t=0.14
-1.5842188224251998
% es.EZ (V/m) @ t=0.14
8.259924018497403
% es.tEX (V/m) @ t=0.14
10.339234308253328
% es.tEY (V/m) @ t=0.14
0
% es.tEZ (V/m) @ t=0.14
8.259924018497394
% es.Ex (V/m) @ t=0.14
10.33923430825327
% es.Ey (V/m) @ t=0.14
-1.5842188224251998
% es.Ez (V/m) @ t=0.14
8.259924018497403
% es.tEx (V/m) @ t=0.14
10.339234308253328
% es.tEy (V/m) @ t=0.14
0
% es.tEz (V/m) @ t=0.14
8.259924018497394
% V (V) @ t=0.14
0.011018957849756492
% es.normE (V/m) @ t=0.16
13.516957290255792
% es.EX (V/m) @ t=0.16
10.474085215798755
% es.EY (V/m) @ t=0.16
-1.604874362121981
% es.EZ (V/m) @ t=0.16
8.36765504764658
% es.tEX (V/m) @ t=0.16
10.474085215798802
% es.tEY (V/m) @ t=0.16
0
% es.tEZ (V/m) @ t=0.16
8.367655047646576
% es.Ex (V/m) @ t=0.16
10.474085215798755
% es.Ey (V/m) @ t=0.16
-1.604874362121981
% es.Ez (V/m) @ t=0.16
8.36765504764658
% es.tEx (V/m) @ t=0.16
10.474085215798802
% es.tEy (V/m) @ t=0.16
0
% es.tEz (V/m) @ t=0.16
8.367655047646576
% V (V) @ t=0.16
0.011162664595441666
% es.normE (V/m) @ t=0.18
13.690983122277874
% es.EX (V/m) @ t=0.18
10.60893612334417
% es.EY (V/m) @ t=0.18
-1.6255299018187426
% es.EZ (V/m) @ t=0.18
8.475386076795775
% es.tEX (V/m) @ t=0.18
10.608936123344218
% es.tEY (V/m) @ t=0.18
0
% es.tEZ (V/m) @ t=0.18
8.475386076795765
% es.Ex (V/m) @ t=0.18
10.60893612334417
% es.Ey (V/m) @ t=0.18
-1.6255299018187426
% es.Ez (V/m) @ t=0.18
8.475386076795775
% es.tEx (V/m) @ t=0.18
10.608936123344218
% es.tEy (V/m) @ t=0.18
0
% es.tEz (V/m) @ t=0.18
8.475386076795765
% V (V) @ t=0.18
0.011306371341126838
% es.normE (V/m) @ t=0.2
13.865008954305717
% es.EX (V/m) @ t=0.2
10.743787030889678
% es.EY (V/m) @ t=0.2
-1.6461854415155397
% es.EZ (V/m) @ t=0.2
8.583117105944973
% es.tEX (V/m) @ t=0.2
10.743787030889692
% es.tEY (V/m) @ t=0.2
0
% es.tEZ (V/m) @ t=0.2
8.583117105944966
% es.Ex (V/m) @ t=0.2
10.743787030889678
% es.Ey (V/m) @ t=0.2
-1.6461854415155397
% es.Ez (V/m) @ t=0.2
8.583117105944973
% es.tEx (V/m) @ t=0.2
10.743787030889692
% es.tEy (V/m) @ t=0.2
0
% es.tEz (V/m) @ t=0.2
8.583117105944966
% V (V) @ t=0.2
0.01145007808681201
% es.normE (V/m) @ t=0.22
14.039034786339013
% es.EX (V/m) @ t=0.22
10.878637938435157
% es.EY (V/m) @ t=0.22
-1.666840981212296
% es.EZ (V/m) @ t=0.22
8.690848135094175
% es.tEX (V/m) @ t=0.22
10.878637938435194
% es.tEY (V/m) @ t=0.22
0
% es.tEZ (V/m) @ t=0.22
8.690848135094171
% es.Ex (V/m) @ t=0.22
10.878637938435157
% es.Ey (V/m) @ t=0.22
-1.666840981212296
% es.Ez (V/m) @ t=0.22
8.690848135094175
% es.tEx (V/m) @ t=0.22
10.878637938435194
% es.tEy (V/m) @ t=0.22
0
% es.tEz (V/m) @ t=0.22
8.690848135094171
% V (V) @ t=0.22
0.011593784832497185
% es.normE (V/m) @ t=0.24
14.213060618377524
% es.EX (V/m) @ t=0.24
11.013488845980593
% es.EY (V/m) @ t=0.24
-1.6874965209090291
% es.EZ (V/m) @ t=0.24
8.798579164243344
% es.tEX (V/m) @ t=0.24
11.01348884598061
% es.tEY (V/m) @ t=0.24
0
% es.tEZ (V/m) @ t=0.24
8.798579164243337
% es.Ex (V/m) @ t=0.24
11.013488845980593
% es.Ey (V/m) @ t=0.24
-1.6874965209090291
% es.Ez (V/m) @ t=0.24
8.798579164243344
% es.tEx (V/m) @ t=0.24
11.01348884598061
% es.tEy (V/m) @ t=0.24
0
% es.tEz (V/m) @ t=0.24
8.798579164243337
% V (V) @ t=0.24
0.011737491578182359
% es.normE (V/m) @ t=0.26
14.394624537380004
% es.EX (V/m) @ t=0.26
11.154194920399375
% es.EY (V/m) @ t=0.26
-1.7089475214365422
% es.EZ (V/m) @ t=0.26
8.910985003300867
% es.tEX (V/m) @ t=0.26
11.154194920399402
% es.tEY (V/m) @ t=0.26
0
% es.tEZ (V/m) @ t=0.26
8.910985003300866
% es.Ex (V/m) @ t=0.26
11.154194920399375
% es.Ey (V/m) @ t=0.26
-1.7089475214365422
% es.Ez (V/m) @ t=0.26
8.910985003300867
% es.tEx (V/m) @ t=0.26
11.154194920399402
% es.tEy (V/m) @ t=0.26
0
% es.tEz (V/m) @ t=0.26
8.910985003300866
% V (V) @ t=0.26
0.011887296602725764
% es.normE (V/m) @ t=0.28
14.580916170020283
% es.EX (V/m) @ t=0.28
11.298573217739134
% es.EY (V/m) @ t=0.28
-1.730897416283991
% es.EZ (V/m) @ t=0.28
9.026322773158618
% es.tEX (V/m) @ t=0.28
11.298573217739165
% es.tEY (V/m) @ t=0.28
0
% es.tEZ (V/m) @ t=0.28
9.026322773158626
% es.Ex (V/m) @ t=0.28
11.298573217739134
% es.Ey (V/m) @ t=0.28
-1.730897416283991
% es.Ez (V/m) @ t=0.28
9.026322773158618
% es.tEx (V/m) @ t=0.28
11.298573217739165
% es.tEy (V/m) @ t=0.28
0
% es.tEz (V/m) @ t=0.28
9.026322773158626
% V (V) @ t=0.28
0.0120409263243079
% es.normE (V/m) @ t=0.3
14.767207806048955
% es.EX (V/m) @ t=0.3
11.442951515078844
% es.EY (V/m) @ t=0.3
-1.7528473111314664
% es.EZ (V/m) @ t=0.3
9.141660543016386
% es.tEX (V/m) @ t=0.3
11.442951515078873
% es.tEY (V/m) @ t=0.3
0
% es.tEZ (V/m) @ t=0.3
9.141660543016371
% es.Ex (V/m) @ t=0.3
11.442951515078844
% es.Ey (V/m) @ t=0.3
-1.7528473111314664
% es.Ez (V/m) @ t=0.3
9.141660543016386
% es.tEx (V/m) @ t=0.3
11.442951515078873
% es.tEy (V/m) @ t=0.3
0
% es.tEz (V/m) @ t=0.3
9.141660543016371
% V (V) @ t=0.3
0.012194556045890042
% es.normE (V/m) @ t=0.32
14.953499445339396
% es.EX (V/m) @ t=0.32
11.587329812418549
% es.EY (V/m) @ t=0.32
-1.7747972059789028
% es.EZ (V/m) @ t=0.32
9.256998312874124
% es.tEX (V/m) @ t=0.32
11.58732981241858
% es.tEY (V/m) @ t=0.32
0
% es.tEZ (V/m) @ t=0.32
9.25699831287413
% es.Ex (V/m) @ t=0.32
11.587329812418549
% es.Ey (V/m) @ t=0.32
-1.7747972059789028
% es.Ez (V/m) @ t=0.32
9.256998312874124
% es.tEx (V/m) @ t=0.32
11.58732981241858
% es.tEy (V/m) @ t=0.32
0
% es.tEz (V/m) @ t=0.32
9.25699831287413
% V (V) @ t=0.32
0.01234818576747218
% es.normE (V/m) @ t=0.34
15.13979108777134
% es.EX (V/m) @ t=0.34
11.731708109758358
% es.EY (V/m) @ t=0.34
-1.7967471008263391
% es.EZ (V/m) @ t=0.34
9.372336082731877
% es.tEX (V/m) @ t=0.34
11.731708109758372
% es.tEY (V/m) @ t=0.34
0
% es.tEZ (V/m) @ t=0.34
9.372336082731874
% es.Ex (V/m) @ t=0.34
11.731708109758358
% es.Ey (V/m) @ t=0.34
-1.7967471008263391
% es.Ez (V/m) @ t=0.34
9.372336082731877
% es.tEx (V/m) @ t=0.34
11.731708109758372
% es.tEy (V/m) @ t=0.34
0
% es.tEz (V/m) @ t=0.34
9.372336082731874
% V (V) @ t=0.34
0.01250181548905432
% es.normE (V/m) @ t=0.36
15.326082733230097
% es.EX (V/m) @ t=0.36
11.87608640709809
% es.EY (V/m) @ t=0.36
-1.8186969956737737
% es.EZ (V/m) @ t=0.36
9.487673852589644
% es.tEX (V/m) @ t=0.36
11.876086407098136
% es.tEY (V/m) @ t=0.36
0
% es.tEZ (V/m) @ t=0.36
9.487673852589648
% es.Ex (V/m) @ t=0.36
11.87608640709809
% es.Ey (V/m) @ t=0.36
-1.8186969956737737
% es.Ez (V/m) @ t=0.36
9.487673852589644
% es.tEx (V/m) @ t=0.36
11.876086407098136
% es.tEy (V/m) @ t=0.36
0
% es.tEz (V/m) @ t=0.36
9.487673852589648
% V (V) @ t=0.36
0.01265544521063646
% es.normE (V/m) @ t=0.38
15.518162896876436
% es.EX (V/m) @ t=0.38
12.024934312591808
% es.EY (V/m) @ t=0.38
-1.8414466062106811
% es.EZ (V/m) @ t=0.38
9.606585552662565
% es.tEX (V/m) @ t=0.38
12.024934312591823
% es.tEY (V/m) @ t=0.38
0
% es.tEZ (V/m) @ t=0.38
9.606585552662548
% es.Ex (V/m) @ t=0.38
12.024934312591808
% es.Ey (V/m) @ t=0.38
-1.8414466062106811
% es.Ez (V/m) @ t=0.38
9.606585552662565
% es.tEx (V/m) @ t=0.38
12.024934312591823
% es.tEy (V/m) @ t=0.38
0
% es.tEz (V/m) @ t=0.38
9.606585552662548
% V (V) @ t=0.38
0.012813998574543996
% es.normE (V/m) @ t=0.4
15.718030673017672
% es.EX (V/m) @ t=0.4
12.179795429877068
% es.EY (V/m) @ t=0.4
-1.8652721186271677
% es.EZ (V/m) @ t=0.4
9.730305459310141
% es.tEX (V/m) @ t=0.4
12.179795429877132
% es.tEY (V/m) @ t=0.4
0
% es.tEZ (V/m) @ t=0.4
9.730305459310134
% es.Ex (V/m) @ t=0.4
12.179795429877068
% es.Ey (V/m) @ t=0.4
-1.8652721186271677
% es.Ez (V/m) @ t=0.4
9.730305459310141
% es.tEx (V/m) @ t=0.4
12.179795429877132
% es.tEy (V/m) @ t=0.4
0
% es.tEz (V/m) @ t=0.4
9.730305459310134
% V (V) @ t=0.4
0.012979175987600476
% es.normE (V/m) @ t=0.42
15.917898450485707
% es.EX (V/m) @ t=0.42
12.334656547162375
% es.EY (V/m) @ t=0.42
-1.8890976310435796
% es.EZ (V/m) @ t=0.42
9.854025365957746
% es.tEX (V/m) @ t=0.42
12.33465654716241
% es.tEY (V/m) @ t=0.42
0
% es.tEZ (V/m) @ t=0.42
9.854025365957737
% es.Ex (V/m) @ t=0.42
12.334656547162375
% es.Ey (V/m) @ t=0.42
-1.8890976310435796
% es.Ez (V/m) @ t=0.42
9.854025365957746
% es.tEx (V/m) @ t=0.42
12.33465654716241
% es.tEy (V/m) @ t=0.42
0
% es.tEz (V/m) @ t=0.42
9.854025365957737
% V (V) @ t=0.42
0.013144353400656962
% es.normE (V/m) @ t=0.44
16.1177662292311
% es.EX (V/m) @ t=0.44
12.489517664447668
% es.EY (V/m) @ t=0.44
-1.9129231434600555
% es.EZ (V/m) @ t=0.44
9.977745272605315
% es.tEX (V/m) @ t=0.44
12.489517664447717
% es.tEY (V/m) @ t=0.44
0
% es.tEZ (V/m) @ t=0.44
9.977745272605297
% es.Ex (V/m) @ t=0.44
12.489517664447668
% es.Ey (V/m) @ t=0.44
-1.9129231434600555
% es.Ez (V/m) @ t=0.44
9.977745272605315
% es.tEx (V/m) @ t=0.44
12.489517664447717
% es.tEy (V/m) @ t=0.44
0
% es.tEz (V/m) @ t=0.44
9.977745272605297
% V (V) @ t=0.44
0.01330953081371344
% es.normE (V/m) @ t=0.46
16.31763400920702
% es.EX (V/m) @ t=0.46
12.644378781733039
% es.EY (V/m) @ t=0.46
-1.936748655876542
% es.EZ (V/m) @ t=0.46
10.101465179252912
% es.tEX (V/m) @ t=0.46
12.644378781733055
% es.tEY (V/m) @ t=0.46
0
% es.tEZ (V/m) @ t=0.46
10.101465179252896
% es.Ex (V/m) @ t=0.46
12.644378781733039
% es.Ey (V/m) @ t=0.46
-1.936748655876542
% es.Ez (V/m) @ t=0.46
10.101465179252912
% es.tEx (V/m) @ t=0.46
12.644378781733055
% es.tEy (V/m) @ t=0.46
0
% es.tEz (V/m) @ t=0.46
10.101465179252896
% V (V) @ t=0.46
0.013474708226769926
% es.normE (V/m) @ t=0.48
16.51750179036861
% es.EX (V/m) @ t=0.48
12.799239899018332
% es.EY (V/m) @ t=0.48
-1.9605741682929896
% es.EZ (V/m) @ t=0.48
10.225185085900454
% es.tEX (V/m) @ t=0.48
12.799239899018392
% es.tEY (V/m) @ t=0.48
0
% es.tEZ (V/m) @ t=0.48
10.22518508590047
% es.Ex (V/m) @ t=0.48
12.799239899018332
% es.Ey (V/m) @ t=0.48
-1.9605741682929896
% es.Ez (V/m) @ t=0.48
10.225185085900454
% es.tEx (V/m) @ t=0.48
12.799239899018392
% es.tEy (V/m) @ t=0.48
0
% es.tEz (V/m) @ t=0.48
10.22518508590047
% V (V) @ t=0.48
0.013639885639826408
% es.normE (V/m) @ t=0.5
16.71874807121751
% es.EX (V/m) @ t=0.5
12.95516960191527
% es.EY (V/m) @ t=0.5
-1.984560451610692
% es.EZ (V/m) @ t=0.5
10.34975859406157
% es.tEX (V/m) @ t=0.5
12.955169601915323
% es.tEY (V/m) @ t=0.5
0
% es.tEZ (V/m) @ t=0.5
10.349758594061564
% es.Ex (V/m) @ t=0.5
12.95516960191527
% es.Ey (V/m) @ t=0.5
-1.984560451610692
% es.Ez (V/m) @ t=0.5
10.34975859406157
% es.tEx (V/m) @ t=0.5
12.955169601915323
% es.tEy (V/m) @ t=0.5
0
% es.tEz (V/m) @ t=0.5
10.349758594061564
% V (V) @ t=0.5
0.013806197757827572
% es.normE (V/m) @ t=0.52
16.925518384215387
% es.EX (V/m) @ t=0.52
13.115381427782069
% es.EY (V/m) @ t=0.52
-2.0091909891289674
% es.EZ (V/m) @ t=0.52
10.477752723470179
% es.tEX (V/m) @ t=0.52
13.115381427782141
% es.tEY (V/m) @ t=0.52
0
% es.tEZ (V/m) @ t=0.52
10.477752723470177
% es.Ex (V/m) @ t=0.52
13.115381427782069
% es.Ey (V/m) @ t=0.52
-2.0091909891289674
% es.Ez (V/m) @ t=0.52
10.477752723470179
% es.tEx (V/m) @ t=0.52
13.115381427782141
% es.tEy (V/m) @ t=0.52
0
% es.tEz (V/m) @ t=0.52
10.477752723470177
% V (V) @ t=0.52
0.01397705695755489
% es.normE (V/m) @ t=0.54
17.134089852250284
% es.EX (V/m) @ t=0.54
13.276989473906966
% es.EY (V/m) @ t=0.54
-2.0340315908543225
% es.EZ (V/m) @ t=0.54
10.606862173647214
% es.tEX (V/m) @ t=0.54
13.276989473906966
% es.tEY (V/m) @ t=0.54
0
% es.tEZ (V/m) @ t=0.54
10.606862173647222
% es.Ex (V/m) @ t=0.54
13.276989473906966
% es.Ey (V/m) @ t=0.54
-2.0340315908543225
% es.Ez (V/m) @ t=0.54
10.606862173647214
% es.tEx (V/m) @ t=0.54
13.276989473906966
% es.tEy (V/m) @ t=0.54
0
% es.tEz (V/m) @ t=0.54
10.606862173647222
% V (V) @ t=0.54
0.01414939876945051
% es.normE (V/m) @ t=0.56
17.34446247519886
% es.EX (V/m) @ t=0.56
13.439993740289957
% es.EY (V/m) @ t=0.56
-2.059082256786759
% es.EZ (V/m) @ t=0.56
10.737086944592633
% es.tEX (V/m) @ t=0.56
13.439993740290022
% es.tEY (V/m) @ t=0.56
0
% es.tEZ (V/m) @ t=0.56
10.737086944592631
% es.Ex (V/m) @ t=0.56
13.439993740289957
% es.Ey (V/m) @ t=0.56
-2.059082256786759
% es.Ez (V/m) @ t=0.56
10.737086944592633
% es.tEx (V/m) @ t=0.56
13.439993740290022
% es.tEy (V/m) @ t=0.56
0
% es.tEz (V/m) @ t=0.56
10.737086944592631
% V (V) @ t=0.56
0.01432322319351444
% es.normE (V/m) @ t=0.58
17.556636252947676
% es.EX (V/m) @ t=0.58
13.604394226931039
% es.EY (V/m) @ t=0.58
-2.084342986926263
% es.EZ (V/m) @ t=0.58
10.868427036306453
% es.tEX (V/m) @ t=0.58
13.604394226931085
% es.tEY (V/m) @ t=0.58
0
% es.tEZ (V/m) @ t=0.58
10.868427036306462
% es.Ex (V/m) @ t=0.58
13.604394226931039
% es.Ey (V/m) @ t=0.58
-2.084342986926263
% es.Ez (V/m) @ t=0.58
10.868427036306453
% es.tEx (V/m) @ t=0.58
13.604394226931085
% es.tEy (V/m) @ t=0.58
0
% es.tEz (V/m) @ t=0.58
10.868427036306462
% V (V) @ t=0.58
0.014498530229746679
% es.normE (V/m) @ t=0.6
17.770611185392813
% es.EX (V/m) @ t=0.6
13.770190933830364
% es.EY (V/m) @ t=0.6
-2.1098137812728126
% es.EZ (V/m) @ t=0.6
11.000882448788714
% es.tEX (V/m) @ t=0.6
13.770190933830435
% es.tEY (V/m) @ t=0.6
0
% es.tEZ (V/m) @ t=0.6
11.000882448788696
% es.Ex (V/m) @ t=0.6
13.770190933830364
% es.Ey (V/m) @ t=0.6
-2.1098137812728126
% es.Ez (V/m) @ t=0.6
11.000882448788714
% es.tEx (V/m) @ t=0.6
13.770190933830435
% es.tEy (V/m) @ t=0.6
0
% es.tEz (V/m) @ t=0.6
11.000882448788696
% V (V) @ t=0.6
0.014675319878147228
% es.normE (V/m) @ t=0.62
17.986387272438808
% es.EX (V/m) @ t=0.62
13.937383860987527
% es.EY (V/m) @ t=0.62
-2.1354946398265007
% es.EZ (V/m) @ t=0.62
11.134453182039323
% es.tEX (V/m) @ t=0.62
13.937383860987563
% es.tEY (V/m) @ t=0.62
0
% es.tEZ (V/m) @ t=0.62
11.13445318203932
% es.Ex (V/m) @ t=0.62
13.937383860987527
% es.Ey (V/m) @ t=0.62
-2.1354946398265007
% es.Ez (V/m) @ t=0.62
11.134453182039323
% es.tEx (V/m) @ t=0.62
13.937383860987563
% es.tEy (V/m) @ t=0.62
0
% es.tEz (V/m) @ t=0.62
11.13445318203932
% V (V) @ t=0.62
0.014853592138716086
% es.normE (V/m) @ t=0.64
18.20396451399943
% es.EX (V/m) @ t=0.64
14.105973008402987
% es.EY (V/m) @ t=0.64
-2.1613855625872063
% es.EZ (V/m) @ t=0.64
11.26913923605831
% es.tEX (V/m) @ t=0.64
14.105973008403035
% es.tEY (V/m) @ t=0.64
0
% es.tEZ (V/m) @ t=0.64
11.269139236058294
% es.Ex (V/m) @ t=0.64
14.105973008402987
% es.Ey (V/m) @ t=0.64
-2.1613855625872063
% es.Ez (V/m) @ t=0.64
11.26913923605831
% es.tEx (V/m) @ t=0.64
14.105973008403035
% es.tEy (V/m) @ t=0.64
0
% es.tEz (V/m) @ t=0.64
11.269139236058294
% V (V) @ t=0.64
0.01503334701145325
% es.normE (V/m) @ t=0.66
18.423342909996038
% es.EX (V/m) @ t=0.66
14.275958376076472
% es.EY (V/m) @ t=0.66
-2.187486549554958
% es.EZ (V/m) @ t=0.66
11.40494061084575
% es.tEX (V/m) @ t=0.66
14.275958376076456
% es.tEY (V/m) @ t=0.66
0
% es.tEZ (V/m) @ t=0.66
11.404940610845756
% es.Ex (V/m) @ t=0.66
14.275958376076472
% es.Ey (V/m) @ t=0.66
-2.187486549554958
% es.Ez (V/m) @ t=0.66
11.40494061084575
% es.tEx (V/m) @ t=0.66
14.275958376076456
% es.tEy (V/m) @ t=0.66
0
% es.tEz (V/m) @ t=0.66
11.404940610845756
% V (V) @ t=0.66
0.015214584496358725
% es.normE (V/m) @ t=0.68
18.644522460357816
% es.EX (V/m) @ t=0.68
14.447339964008023
% es.EY (V/m) @ t=0.68
-2.2137976007298477
% es.EZ (V/m) @ t=0.68
11.541857306401543
% es.tEX (V/m) @ t=0.68
14.447339964008082
% es.tEY (V/m) @ t=0.68
0
% es.tEZ (V/m) @ t=0.68
11.541857306401543
% es.Ex (V/m) @ t=0.68
14.447339964008023
% es.Ey (V/m) @ t=0.68
-2.2137976007298477
% es.Ez (V/m) @ t=0.68
11.541857306401543
% es.tEx (V/m) @ t=0.68
14.447339964008082
% es.tEy (V/m) @ t=0.68
0
% es.tEz (V/m) @ t=0.68
11.541857306401543
% V (V) @ t=0.68
0.015397304593432505
% es.normE (V/m) @ t=0.7
18.867503165021443
% es.EX (V/m) @ t=0.7
14.620117772197741
% es.EY (V/m) @ t=0.7
-2.2403187161118225
% es.EZ (V/m) @ t=0.7
11.679889322725789
% es.tEX (V/m) @ t=0.7
14.620117772197796
% es.tEY (V/m) @ t=0.7
0
% es.tEZ (V/m) @ t=0.7
11.679889322725789
% es.Ex (V/m) @ t=0.7
14.620117772197741
% es.Ey (V/m) @ t=0.7
-2.2403187161118225
% es.Ez (V/m) @ t=0.7
11.679889322725789
% es.tEx (V/m) @ t=0.7
14.620117772197796
% es.tEy (V/m) @ t=0.7
0
% es.tEz (V/m) @ t=0.7
11.679889322725789
% V (V) @ t=0.7
0.015581507302674595
% es.normE (V/m) @ t=0.72
19.092285023930238
% es.EX (V/m) @ t=0.72
14.79429180064547
% es.EY (V/m) @ t=0.72
-2.267049895700783
% es.EZ (V/m) @ t=0.72
11.819036659818405
% es.tEX (V/m) @ t=0.72
14.794291800645544
% es.tEY (V/m) @ t=0.72
0
% es.tEZ (V/m) @ t=0.72
11.819036659818384
% es.Ex (V/m) @ t=0.72
14.79429180064547
% es.Ey (V/m) @ t=0.72
-2.267049895700783
% es.Ez (V/m) @ t=0.72
11.819036659818405
% es.tEx (V/m) @ t=0.72
14.794291800645544
% es.tEy (V/m) @ t=0.72
0
% es.tEz (V/m) @ t=0.72
11.819036659818384
% V (V) @ t=0.72
0.01576719262408499
% es.normE (V/m) @ t=0.74
19.318868037034505
% es.EX (V/m) @ t=0.74
14.969862049351422
% es.EY (V/m) @ t=0.74
-2.293991139496878
% es.EZ (V/m) @ t=0.74
11.959299317679413
% es.tEX (V/m) @ t=0.74
14.969862049351438
% es.tEY (V/m) @ t=0.74
0
% es.tEZ (V/m) @ t=0.74
11.959299317679442
% es.Ex (V/m) @ t=0.74
14.969862049351422
% es.Ey (V/m) @ t=0.74
-2.293991139496878
% es.Ez (V/m) @ t=0.74
11.959299317679413
% es.tEx (V/m) @ t=0.74
14.969862049351438
% es.tEy (V/m) @ t=0.74
0
% es.tEz (V/m) @ t=0.74
11.959299317679442
% V (V) @ t=0.74
0.0159543605576637
% es.normE (V/m) @ t=0.76
19.550180881931723
% es.EX (V/m) @ t=0.76
15.149099380795333
% es.EY (V/m) @ t=0.76
-2.321479706668864
% es.EZ (V/m) @ t=0.76
12.102491169430776
% es.tEX (V/m) @ t=0.76
15.149099380795404
% es.tEY (V/m) @ t=0.76
0
% es.tEZ (V/m) @ t=0.76
12.102491169430785
% es.Ex (V/m) @ t=0.76
15.149099380795333
% es.Ey (V/m) @ t=0.76
-2.321479706668864
% es.Ez (V/m) @ t=0.76
12.102491169430776
% es.tEx (V/m) @ t=0.76
15.149099380795404
% es.tEy (V/m) @ t=0.76
0
% es.tEz (V/m) @ t=0.76
12.102491169430785
% V (V) @ t=0.76
0.016145416351655423
% es.normE (V/m) @ t=0.78
19.784242406348106
% es.EX (V/m) @ t=0.78
15.330467632680232
% es.EY (V/m) @ t=0.78
-2.3492874527015495
% es.EZ (V/m) @ t=0.78
12.24738519074754
% es.tEX (V/m) @ t=0.78
15.330467632680282
% es.tEY (V/m) @ t=0.78
0
% es.tEZ (V/m) @ t=0.78
12.247385190747526
% es.Ex (V/m) @ t=0.78
15.330467632680232
% es.Ey (V/m) @ t=0.78
-2.3492874527015495
% es.Ez (V/m) @ t=0.78
12.24738519074754
% es.tEx (V/m) @ t=0.78
15.330467632680282
% es.tEy (V/m) @ t=0.78
0
% es.tEz (V/m) @ t=0.78
12.247385190747526
% V (V) @ t=0.78
0.016338732936300823
% es.normE (V/m) @ t=0.8
20.020618489132353
% es.EX (V/m) @ t=0.8
15.51363019255015
% es.EY (V/m) @ t=0.8
-2.377364385295497
% es.EZ (V/m) @ t=0.8
12.393712509211387
% es.tEX (V/m) @ t=0.8
15.513630192550204
% es.tEY (V/m) @ t=0.8
0
% es.tEZ (V/m) @ t=0.8
12.393712509211342
% es.Ex (V/m) @ t=0.8
15.51363019255015
% es.Ey (V/m) @ t=0.8
-2.377364385295497
% es.Ez (V/m) @ t=0.8
12.393712509211387
% es.tEx (V/m) @ t=0.8
15.513630192550204
% es.tEy (V/m) @ t=0.8
0
% es.tEz (V/m) @ t=0.8
12.393712509211342
% V (V) @ t=0.8
0.016533953778993433
% es.normE (V/m) @ t=0.82
20.25930913027117
% es.EX (V/m) @ t=0.82
15.698587060404904
% es.EY (V/m) @ t=0.82
-2.4057105044507097
% es.EZ (V/m) @ t=0.82
12.541473124822355
% es.tEX (V/m) @ t=0.82
15.698587060404947
% es.tEY (V/m) @ t=0.82
0
% es.tEZ (V/m) @ t=0.82
12.541473124822332
% es.Ex (V/m) @ t=0.82
15.698587060404904
% es.Ey (V/m) @ t=0.82
-2.4057105044507097
% es.Ez (V/m) @ t=0.82
12.541473124822355
% es.tEx (V/m) @ t=0.82
15.698587060404947
% es.tEy (V/m) @ t=0.82
0
% es.tEz (V/m) @ t=0.82
12.541473124822332
% V (V) @ t=0.82
0.01673107887973325
% es.normE (V/m) @ t=0.84
20.500314329760535
% es.EX (V/m) @ t=0.84
15.885338236244593
% es.EY (V/m) @ t=0.84
-2.434325810167092
% es.EZ (V/m) @ t=0.84
12.690667037580399
% es.tEX (V/m) @ t=0.84
15.885338236244621
% es.tEY (V/m) @ t=0.84
0
% es.tEZ (V/m) @ t=0.84
12.690667037580369
% es.Ex (V/m) @ t=0.84
15.885338236244593
% es.Ey (V/m) @ t=0.84
-2.434325810167092
% es.Ez (V/m) @ t=0.84
12.690667037580399
% es.tEx (V/m) @ t=0.84
15.885338236244621
% es.tEy (V/m) @ t=0.84
0
% es.tEz (V/m) @ t=0.84
12.690667037580369
% V (V) @ t=0.84
0.016930108238520272
% es.normE (V/m) @ t=0.86
20.74363408760508
% es.EX (V/m) @ t=0.86
16.073883720069258
% es.EY (V/m) @ t=0.86
-2.4632103024448853
% es.EZ (V/m) @ t=0.86
12.841294247485537
% es.tEX (V/m) @ t=0.86
16.07388372006931
% es.tEY (V/m) @ t=0.86
0
% es.tEZ (V/m) @ t=0.86
12.841294247485536
% es.Ex (V/m) @ t=0.86
16.073883720069258
% es.Ey (V/m) @ t=0.86
-2.4632103024448853
% es.Ez (V/m) @ t=0.86
12.841294247485537
% es.tEx (V/m) @ t=0.86
16.07388372006931
% es.tEy (V/m) @ t=0.86
0
% es.tEz (V/m) @ t=0.86
12.841294247485536
% V (V) @ t=0.86
0.017131041855354506
% es.normE (V/m) @ t=0.88
20.989268403817537
% es.EX (V/m) @ t=0.88
16.264223511878974
% es.EY (V/m) @ t=0.88
-2.492363981283848
% es.EZ (V/m) @ t=0.88
12.9933547545378
% es.tEX (V/m) @ t=0.88
16.264223511879024
% es.tEY (V/m) @ t=0.88
0
% es.tEZ (V/m) @ t=0.88
12.993354754537762
% es.Ex (V/m) @ t=0.88
16.264223511878974
% es.Ey (V/m) @ t=0.88
-2.492363981283848
% es.Ez (V/m) @ t=0.88
12.9933547545378
% es.tEx (V/m) @ t=0.88
16.264223511879024
% es.tEy (V/m) @ t=0.88
0
% es.tEz (V/m) @ t=0.88
12.993354754537762
% V (V) @ t=0.88
0.017333879730235945
% es.normE (V/m) @ t=0.9
21.237217278418065
% es.EX (V/m) @ t=0.9
16.456357611673567
% es.EY (V/m) @ t=0.9
-2.521786846684172
% es.EZ (V/m) @ t=0.9
13.146848558737135
% es.tEX (V/m) @ t=0.9
16.456357611673607
% es.tEY (V/m) @ t=0.9
0
% es.tEZ (V/m) @ t=0.9
13.146848558737133
% es.Ex (V/m) @ t=0.9
16.456357611673567
% es.Ey (V/m) @ t=0.9
-2.521786846684172
% es.Ez (V/m) @ t=0.9
13.146848558737135
% es.tEx (V/m) @ t=0.9
16.456357611673607
% es.tEy (V/m) @ t=0.9
0
% es.tEz (V/m) @ t=0.9
13.146848558737133
% V (V) @ t=0.9
0.017538621863164586
% es.normE (V/m) @ t=0.92
21.487480711434195
% es.EX (V/m) @ t=0.92
16.650286019453063
% es.EY (V/m) @ t=0.92
-2.551478898645719
% es.EZ (V/m) @ t=0.92
13.301775660083596
% es.tEX (V/m) @ t=0.92
16.650286019453127
% es.tEY (V/m) @ t=0.92
0
% es.tEZ (V/m) @ t=0.92
13.301775660083608
% es.Ex (V/m) @ t=0.92
16.650286019453063
% es.Ey (V/m) @ t=0.92
-2.551478898645719
% es.Ez (V/m) @ t=0.92
13.301775660083596
% es.tEx (V/m) @ t=0.92
16.650286019453127
% es.tEy (V/m) @ t=0.92
0
% es.tEz (V/m) @ t=0.92
13.301775660083608
% V (V) @ t=0.92
0.01774526825414044
% es.normE (V/m) @ t=0.94
21.740058702900086
% es.EX (V/m) @ t=0.94
16.846008735217413
% es.EY (V/m) @ t=0.94
-2.581440137168496
% es.EZ (V/m) @ t=0.94
13.458136058577164
% es.tEX (V/m) @ t=0.94
16.84600873521746
% es.tEY (V/m) @ t=0.94
0
% es.tEZ (V/m) @ t=0.94
13.45813605857713
% es.Ex (V/m) @ t=0.94
16.846008735217413
% es.Ey (V/m) @ t=0.94
-2.581440137168496
% es.Ez (V/m) @ t=0.94
13.458136058577164
% es.tEx (V/m) @ t=0.94
16.84600873521746
% es.tEy (V/m) @ t=0.94
0
% es.tEz (V/m) @ t=0.94
13.45813605857713
% V (V) @ t=0.94
0.017953818903163495
% es.normE (V/m) @ t=0.96
21.99495125285651
% es.EX (V/m) @ t=0.96
17.04352575896691
% es.EY (V/m) @ t=0.96
-2.611670562252506
% es.EZ (V/m) @ t=0.96
13.615929754217794
% es.tEX (V/m) @ t=0.96
17.043525758966958
% es.tEY (V/m) @ t=0.96
0
% es.tEZ (V/m) @ t=0.96
13.615929754217781
% es.Ex (V/m) @ t=0.96
17.04352575896691
% es.Ey (V/m) @ t=0.96
-2.611670562252506
% es.Ez (V/m) @ t=0.96
13.615929754217794
% es.tEx (V/m) @ t=0.96
17.043525758966958
% es.tEy (V/m) @ t=0.96
0
% es.tEz (V/m) @ t=0.96
13.615929754217781
% V (V) @ t=0.96
0.01816427381023376
% es.normE (V/m) @ t=0.98
22.252158361349778
% es.EX (V/m) @ t=0.98
17.242837090701315
% es.EY (V/m) @ t=0.98
-2.6421701738978918
% es.EZ (V/m) @ t=0.98
13.775156747005568
% es.tEX (V/m) @ t=0.98
17.242837090701386
% es.tEY (V/m) @ t=0.98
0
% es.tEZ (V/m) @ t=0.98
13.775156747005578
% es.Ex (V/m) @ t=0.98
17.242837090701315
% es.Ey (V/m) @ t=0.98
-2.6421701738978918
% es.Ez (V/m) @ t=0.98
13.775156747005568
% es.tEx (V/m) @ t=0.98
17.242837090701386
% es.tEy (V/m) @ t=0.98
0
% es.tEz (V/m) @ t=0.98
13.775156747005578
% V (V) @ t=0.98
0.018376632975351238
% es.normE (V/m) @ t=1
22.512567693655985
% es.EX (V/m) @ t=1
17.444628404545085
% es.EY (V/m) @ t=1
-2.6730597312788937
% es.EZ (V/m) @ t=1
13.93636525316342
% es.tEX (V/m) @ t=1
17.44462840454517
% es.tEY (V/m) @ t=1
0
% es.tEZ (V/m) @ t=1
13.936365253163403
% es.Ex (V/m) @ t=1
17.444628404545085
% es.Ey (V/m) @ t=1
-2.6730597312788937
% es.Ez (V/m) @ t=1
13.93636525316342
% es.tEx (V/m) @ t=1
17.44462840454517
% es.tEy (V/m) @ t=1
0
% es.tEz (V/m) @ t=1
13.936365253163403
% V (V) @ t=1
0.018591649045767863
% es.normE (V/m) @ t=1.02
22.776443684013582
% es.EX (V/m) @ t=1.02
17.649103961929832
% es.EY (V/m) @ t=1.02
-2.704375208396897
% es.EZ (V/m) @ t=1.02
14.09971858559241
% es.tEX (V/m) @ t=1.02
17.64910396192992
% es.tEY (V/m) @ t=1.02
0
% es.tEZ (V/m) @ t=1.02
14.099718585592404
% es.Ex (V/m) @ t=1.02
17.649103961929832
% es.Ey (V/m) @ t=1.02
-2.704375208396897
% es.Ez (V/m) @ t=1.02
14.09971858559241
% es.tEx (V/m) @ t=1.02
17.64910396192992
% es.tEy (V/m) @ t=1.02
0
% es.tEz (V/m) @ t=1.02
14.099718585592404
% V (V) @ t=1.02
0.0188095462341229
% es.normE (V/m) @ t=1.04
23.04291857502746
% es.EX (V/m) @ t=1.04
17.85559346649649
% es.EY (V/m) @ t=1.04
-2.7359985543702265
% es.EZ (V/m) @ t=1.04
14.264680823036208
% es.tEX (V/m) @ t=1.04
17.85559346649661
% es.tEY (V/m) @ t=1.04
0
% es.tEZ (V/m) @ t=1.04
14.2646808230362
% es.Ex (V/m) @ t=1.04
17.85559346649649
% es.Ey (V/m) @ t=1.04
-2.7359985543702265
% es.Ez (V/m) @ t=1.04
14.264680823036208
% es.tEx (V/m) @ t=1.04
17.85559346649661
% es.tEy (V/m) @ t=1.04
0
% es.tEz (V/m) @ t=1.04
14.2646808230362
% V (V) @ t=1.04
0.019029588772950908