% Model:              1 neuron.mph
% Version:            COMSOL 6.0.0.405
% Date:               Mar 16 2023, 20:24
% Dimension:          0
% Nodes:              14017
% Expressions:        14017
% Description:        Electric field norm, Electric field, X component, Electric field, Y component, Electric field, Z component, Tangential electric field, X component, Tangential electric field, Y component, Tangential electric field, Z component, Electric field, x component, Electric field, y component, Electric field, z component, Tangential electric field, x component, Tangential electric field, y component, Tangential electric field, z component, Electric potential
% Length unit:        mm
% x
1.3300000000000003
% y
12.200000000000001
% z
1.66
% es.normE (V/m) @ t=0
13.783556466779846
% es.EX (V/m) @ t=0
8.747037816480457
% es.EY (V/m) @ t=0
2.61566974884472
% es.EZ (V/m) @ t=0
-9.5812255591946
% es.tEX (V/m) @ t=0
8.747037816480454
% es.tEY (V/m) @ t=0
0
% es.tEZ (V/m) @ t=0
-9.581225559194577
% es.Ex (V/m) @ t=0
8.747037816480457
% es.Ey (V/m) @ t=0
2.61566974884472
% es.Ez (V/m) @ t=0
-9.5812255591946
% es.tEx (V/m) @ t=0
8.747037816480454
% es.tEy (V/m) @ t=0
0
% es.tEz (V/m) @ t=0
-9.581225559194577
% V (V) @ t=0
0.0118066987954956
% es.normE (V/m) @ t=0.02
11.944850870959357
% es.EX (V/m) @ t=0.02
7.580196245423794
% es.EY (V/m) @ t=0.02
2.2667434219447733
% es.EZ (V/m) @ t=0.02
-8.303104515813546
% es.tEX (V/m) @ t=0.02
7.580196245423793
% es.tEY (V/m) @ t=0.02
0
% es.tEZ (V/m) @ t=0.02
-8.303104515813525
% es.Ex (V/m) @ t=0.02
7.580196245423794
% es.Ey (V/m) @ t=0.02
2.2667434219447733
% es.Ez (V/m) @ t=0.02
-8.303104515813546
% es.tEx (V/m) @ t=0.02
7.580196245423793
% es.tEy (V/m) @ t=0.02
0
% es.tEz (V/m) @ t=0.02
-8.303104515813525
% V (V) @ t=0.02
0.010231702819162088
% es.normE (V/m) @ t=0.04
12.09533130355319
% es.EX (V/m) @ t=0.04
7.675691654915719
% es.EY (V/m) @ t=0.04
2.2953005516538907
% es.EZ (V/m) @ t=0.04
-8.40770603227554
% es.tEX (V/m) @ t=0.04
7.675691654915696
% es.tEY (V/m) @ t=0.04
0
% es.tEZ (V/m) @ t=0.04
-8.407706032275533
% es.Ex (V/m) @ t=0.04
7.675691654915719
% es.Ey (V/m) @ t=0.04
2.2953005516538907
% es.Ez (V/m) @ t=0.04
-8.40770603227554
% es.tEx (V/m) @ t=0.04
7.675691654915696
% es.tEy (V/m) @ t=0.04
0
% es.tEz (V/m) @ t=0.04
-8.407706032275533
% V (V) @ t=0.04
0.0103605983565895
% es.normE (V/m) @ t=0.06
12.247208517365626
% es.EX (V/m) @ t=0.06
7.772074546504782
% es.EY (V/m) @ t=0.06
2.3241243006525574
% es.EZ (V/m) @ t=0.06
-8.513277691373304
% es.tEX (V/m) @ t=0.06
7.772074546504774
% es.tEY (V/m) @ t=0.06
0
% es.tEZ (V/m) @ t=0.06
-8.51327769137328
% es.Ex (V/m) @ t=0.06
7.772074546504782
% es.Ey (V/m) @ t=0.06
2.3241243006525574
% es.Ez (V/m) @ t=0.06
-8.513277691373304
% es.tEx (V/m) @ t=0.06
7.772074546504774
% es.tEy (V/m) @ t=0.06
0
% es.tEz (V/m) @ t=0.06
-8.51327769137328
% V (V) @ t=0.06
0.01049068530219026
% es.normE (V/m) @ t=0.08
12.403853308502242
% es.EX (V/m) @ t=0.08
7.871481133302596
% es.EY (V/m) @ t=0.08
2.3538501961652245
% es.EZ (V/m) @ t=0.08
-8.622164699980594
% es.tEX (V/m) @ t=0.08
7.871481133302574
% es.tEY (V/m) @ t=0.08
0
% es.tEZ (V/m) @ t=0.08
-8.62216469998058
% es.Ex (V/m) @ t=0.08
7.871481133302596
% es.Ey (V/m) @ t=0.08
2.3538501961652245
% es.Ez (V/m) @ t=0.08
-8.622164699980594
% es.tEx (V/m) @ t=0.08
7.871481133302574
% es.tEy (V/m) @ t=0.08
0
% es.tEz (V/m) @ t=0.08
-8.62216469998058
% V (V) @ t=0.08
0.010624864450891862
% es.normE (V/m) @ t=0.1
12.560989280337436
% es.EX (V/m) @ t=0.1
7.971199236961927
% es.EY (V/m) @ t=0.1
2.383669035520147
% es.EZ (V/m) @ t=0.1
-8.731393273197629
% es.tEX (V/m) @ t=0.1
7.9711992369619225
% es.tEY (V/m) @ t=0.1
0
% es.tEZ (V/m) @ t=0.1
-8.731393273197614
% es.Ex (V/m) @ t=0.1
7.971199236961927
% es.Ey (V/m) @ t=0.1
2.383669035520147
% es.Ez (V/m) @ t=0.1
-8.731393273197629
% es.tEx (V/m) @ t=0.1
7.9711992369619225
% es.tEy (V/m) @ t=0.1
0
% es.tEz (V/m) @ t=0.1
-8.731393273197614
% V (V) @ t=0.1
0.010759465199714706
% es.normE (V/m) @ t=0.12
12.718125252172673
% es.EX (V/m) @ t=0.12
8.070917340621257
% es.EY (V/m) @ t=0.12
2.4134878748751194
% es.EZ (V/m) @ t=0.12
-8.840621846414678
% es.tEX (V/m) @ t=0.12
8.070917340621243
% es.tEY (V/m) @ t=0.12
0
% es.tEZ (V/m) @ t=0.12
-8.840621846414656
% es.Ex (V/m) @ t=0.12
8.070917340621257
% es.Ey (V/m) @ t=0.12
2.4134878748751194
% es.Ez (V/m) @ t=0.12
-8.840621846414678
% es.tEx (V/m) @ t=0.12
8.070917340621243
% es.tEy (V/m) @ t=0.12
0
% es.tEz (V/m) @ t=0.12
-8.840621846414656
% V (V) @ t=0.12
0.010894065948537552
% es.normE (V/m) @ t=0.14
12.884503195162056
% es.EX (V/m) @ t=0.14
8.176503531539073
% es.EY (V/m) @ t=0.14
2.4450650210263474
% es.EZ (V/m) @ t=0.14
-8.956272422188018
% es.tEX (V/m) @ t=0.14
8.17650353153904
% es.tEY (V/m) @ t=0.14
0
% es.tEZ (V/m) @ t=0.14
-8.956272422188004
% es.Ex (V/m) @ t=0.14
8.176503531539073
% es.Ey (V/m) @ t=0.14
2.4450650210263474
% es.Ez (V/m) @ t=0.14
-8.956272422188018
% es.tEx (V/m) @ t=0.14
8.17650353153904
% es.tEy (V/m) @ t=0.14
0
% es.tEz (V/m) @ t=0.14
-8.956272422188004
% V (V) @ t=0.14
0.011036568608572226
% es.normE (V/m) @ t=0.16
13.052879276735151
% es.EX (V/m) @ t=0.16
8.283358418424468
% es.EY (V/m) @ t=0.16
2.477022317752019
% es.EZ (V/m) @ t=0.16
-9.073311451879679
% es.tEX (V/m) @ t=0.16
8.283358418424463
% es.tEY (V/m) @ t=0.16
0
% es.tEZ (V/m) @ t=0.16
-9.073311451879665
% es.Ex (V/m) @ t=0.16
8.283358418424468
% es.Ey (V/m) @ t=0.16
2.477022317752019
% es.Ez (V/m) @ t=0.16
-9.073311451879679
% es.tEx (V/m) @ t=0.16
8.283358418424463
% es.tEy (V/m) @ t=0.16
0
% es.tEz (V/m) @ t=0.16
-9.073311451879665
% V (V) @ t=0.16
0.011180779682686185
% es.normE (V/m) @ t=0.18
13.221255358313318
% es.EX (V/m) @ t=0.18
8.390213305309878
% es.EY (V/m) @ t=0.18
2.508979614477677
% es.EZ (V/m) @ t=0.18
-9.190350481571354
% es.tEX (V/m) @ t=0.18
8.390213305309844
% es.tEY (V/m) @ t=0.18
0
% es.tEZ (V/m) @ t=0.18
-9.19035048157134
% es.Ex (V/m) @ t=0.18
8.390213305309878
% es.Ey (V/m) @ t=0.18
2.508979614477677
% es.Ez (V/m) @ t=0.18
-9.190350481571354
% es.tEx (V/m) @ t=0.18
8.390213305309844
% es.tEy (V/m) @ t=0.18
0
% es.tEz (V/m) @ t=0.18
-9.19035048157134
% V (V) @ t=0.18
0.011324990756800147
% es.normE (V/m) @ t=0.2
13.389631439896348
% es.EX (V/m) @ t=0.2
8.49706819219529
% es.EY (V/m) @ t=0.2
2.5409369112033526
% es.EZ (V/m) @ t=0.2
-9.307389511263029
% es.tEX (V/m) @ t=0.2
8.497068192195274
% es.tEY (V/m) @ t=0.2
0
% es.tEZ (V/m) @ t=0.2
-9.307389511263013
% es.Ex (V/m) @ t=0.2
8.49706819219529
% es.Ey (V/m) @ t=0.2
2.5409369112033526
% es.Ez (V/m) @ t=0.2
-9.307389511263029
% es.tEx (V/m) @ t=0.2
8.497068192195274
% es.tEy (V/m) @ t=0.2
0
% es.tEz (V/m) @ t=0.2
-9.307389511263013
% V (V) @ t=0.2
0.011469201830914107
% es.normE (V/m) @ t=0.22
13.558007521484058
% es.EX (V/m) @ t=0.22
8.603923079080719
% es.EY (V/m) @ t=0.22
2.5728942079289925
% es.EZ (V/m) @ t=0.22
-9.424428540954683
% es.tEX (V/m) @ t=0.22
8.603923079080683
% es.tEY (V/m) @ t=0.22
0
% es.tEZ (V/m) @ t=0.22
-9.424428540954667
% es.Ex (V/m) @ t=0.22
8.603923079080719
% es.Ey (V/m) @ t=0.22
2.5728942079289925
% es.Ez (V/m) @ t=0.22
-9.424428540954683
% es.tEx (V/m) @ t=0.22
8.603923079080683
% es.tEy (V/m) @ t=0.22
0
% es.tEz (V/m) @ t=0.22
-9.424428540954667
% V (V) @ t=0.22
0.01161341290502807
% es.normE (V/m) @ t=0.24
13.726383603076275
% es.EX (V/m) @ t=0.24
8.710777965966098
% es.EY (V/m) @ t=0.24
2.6048515046546536
% es.EZ (V/m) @ t=0.24
-9.541467570646386
% es.tEX (V/m) @ t=0.24
8.710777965966077
% es.tEY (V/m) @ t=0.24
0
% es.tEZ (V/m) @ t=0.24
-9.541467570646377
% es.Ex (V/m) @ t=0.24
8.710777965966098
% es.Ey (V/m) @ t=0.24
2.6048515046546536
% es.Ez (V/m) @ t=0.24
-9.541467570646386
% es.tEx (V/m) @ t=0.24
8.710777965966077
% es.tEy (V/m) @ t=0.24
0
% es.tEz (V/m) @ t=0.24
-9.541467570646377
% V (V) @ t=0.24
0.011757623979142033
% es.normE (V/m) @ t=0.26
13.902631290111445
% es.EX (V/m) @ t=0.26
8.822623726366352
% es.EY (V/m) @ t=0.26
2.6382962407930703
% es.EZ (V/m) @ t=0.26
-9.663981533444225
% es.tEX (V/m) @ t=0.26
8.822623726366338
% es.tEY (V/m) @ t=0.26
0
% es.tEZ (V/m) @ t=0.26
-9.663981533444211
% es.Ex (V/m) @ t=0.26
8.822623726366352
% es.Ey (V/m) @ t=0.26
2.6382962407930703
% es.Ez (V/m) @ t=0.26
-9.663981533444225
% es.tEx (V/m) @ t=0.26
8.822623726366338
% es.tEy (V/m) @ t=0.26
0
% es.tEz (V/m) @ t=0.26
-9.663981533444211
% V (V) @ t=0.26
0.011908598314560086
% es.normE (V/m) @ t=0.28
14.08305269252526
% es.EX (V/m) @ t=0.28
8.937115768478638
% es.EY (V/m) @ t=0.28
2.672529653243127
% es.EZ (V/m) @ t=0.28
-9.78939843804389
% es.tEX (V/m) @ t=0.28
8.937115768478634
% es.tEY (V/m) @ t=0.28
0
% es.tEZ (V/m) @ t=0.28
-9.789398438043868
% es.Ex (V/m) @ t=0.28
8.937115768478638
% es.Ey (V/m) @ t=0.28
2.672529653243127
% es.Ez (V/m) @ t=0.28
-9.78939843804389
% es.tEx (V/m) @ t=0.28
8.937115768478634
% es.tEy (V/m) @ t=0.28
0
% es.tEz (V/m) @ t=0.28
-9.789398438043868
% V (V) @ t=0.28
0.012063158694515163
% es.normE (V/m) @ t=0.3
14.263474094944058
% es.EX (V/m) @ t=0.3
9.051607810590937
% es.EY (V/m) @ t=0.3
2.70676306569323
% es.EZ (V/m) @ t=0.3
-9.914815342643497
% es.tEX (V/m) @ t=0.3
9.051607810590914
% es.tEY (V/m) @ t=0.3
0
% es.tEZ (V/m) @ t=0.3
-9.914815342643475
% es.Ex (V/m) @ t=0.3
9.051607810590937
% es.Ey (V/m) @ t=0.3
2.70676306569323
% es.Ez (V/m) @ t=0.3
-9.914815342643497
% es.tEx (V/m) @ t=0.3
9.051607810590914
% es.tEy (V/m) @ t=0.3
0
% es.tEz (V/m) @ t=0.3
-9.914815342643475
% V (V) @ t=0.3
0.01221771907447024
% es.normE (V/m) @ t=0.32
14.443895497367652
% es.EX (V/m) @ t=0.32
9.166099852703248
% es.EY (V/m) @ t=0.32
2.7409964781433014
% es.EZ (V/m) @ t=0.32
-10.040232247243127
% es.tEX (V/m) @ t=0.32
9.166099852703223
% es.tEY (V/m) @ t=0.32
0
% es.tEZ (V/m) @ t=0.32
-10.040232247243104
% es.Ex (V/m) @ t=0.32
9.166099852703248
% es.Ey (V/m) @ t=0.32
2.7409964781433014
% es.Ez (V/m) @ t=0.32
-10.040232247243127
% es.tEx (V/m) @ t=0.32
9.166099852703223
% es.tEy (V/m) @ t=0.32
0
% es.tEz (V/m) @ t=0.32
-10.040232247243104
% V (V) @ t=0.32
0.012372279454425318
% es.normE (V/m) @ t=0.34
14.624316899795904
% es.EX (V/m) @ t=0.34
9.280591894815531
% es.EY (V/m) @ t=0.34
2.7752298905934403
% es.EZ (V/m) @ t=0.34
-10.165649151842798
% es.tEX (V/m) @ t=0.34
9.280591894815494
% es.tEY (V/m) @ t=0.34
0
% es.tEZ (V/m) @ t=0.34
-10.165649151842775
% es.Ex (V/m) @ t=0.34
9.280591894815531
% es.Ey (V/m) @ t=0.34
2.7752298905934403
% es.Ez (V/m) @ t=0.34
-10.165649151842798
% es.tEx (V/m) @ t=0.34
9.280591894815494
% es.tEy (V/m) @ t=0.34
0
% es.tEz (V/m) @ t=0.34
-10.165649151842775
% V (V) @ t=0.34
0.01252683983438039
% es.normE (V/m) @ t=0.36
14.804738302228564
% es.EX (V/m) @ t=0.36
9.395083936927815
% es.EY (V/m) @ t=0.36
2.8094633030435183
% es.EZ (V/m) @ t=0.36
-10.291066056442434
% es.tEX (V/m) @ t=0.36
9.39508393692779
% es.tEY (V/m) @ t=0.36
0
% es.tEZ (V/m) @ t=0.36
-10.291066056442412
% es.Ex (V/m) @ t=0.36
9.395083936927815
% es.Ey (V/m) @ t=0.36
2.8094633030435183
% es.Ez (V/m) @ t=0.36
-10.291066056442434
% es.tEx (V/m) @ t=0.36
9.39508393692779
% es.tEy (V/m) @ t=0.36
0
% es.tEz (V/m) @ t=0.36
-10.291066056442412
% V (V) @ t=0.36
0.01268140021433547
% es.normE (V/m) @ t=0.38
14.991368788233633
% es.EX (V/m) @ t=0.38
9.513519972370478
% es.EY (V/m) @ t=0.38
2.8448802771402004
% es.EZ (V/m) @ t=0.38
-10.4207963268137
% es.tEX (V/m) @ t=0.38
9.513519972370446
% es.tEY (V/m) @ t=0.38
0
% es.tEZ (V/m) @ t=0.38
-10.42079632681368
% es.Ex (V/m) @ t=0.38
9.513519972370478
% es.Ey (V/m) @ t=0.38
2.8448802771402004
% es.Ez (V/m) @ t=0.38
-10.4207963268137
% es.tEx (V/m) @ t=0.38
9.513519972370446
% es.tEy (V/m) @ t=0.38
0
% es.tEz (V/m) @ t=0.38
-10.42079632681368
% V (V) @ t=0.38
0.012841261958700109
% es.normE (V/m) @ t=0.4
15.184598587234362
% es.EX (V/m) @ t=0.4
9.636147873831634
% es.EY (V/m) @ t=0.4
2.88155519754453
% es.EZ (V/m) @ t=0.4
-10.55511105001975
% es.tEX (V/m) @ t=0.4
9.6361478738316
% es.tEY (V/m) @ t=0.4
0
% es.tEZ (V/m) @ t=0.4
-10.555111050019722
% es.Ex (V/m) @ t=0.4
9.636147873831634
% es.Ey (V/m) @ t=0.4
2.88155519754453
% es.Ez (V/m) @ t=0.4
-10.55511105001975
% es.tEx (V/m) @ t=0.4
9.6361478738316
% es.tEy (V/m) @ t=0.4
0
% es.tEz (V/m) @ t=0.4
-10.555111050019722
% V (V) @ t=0.4
0.01300675824842493
% es.normE (V/m) @ t=0.42
15.3778283862418
% es.EX (V/m) @ t=0.42
9.758775775292762
% es.EY (V/m) @ t=0.42
2.9182301179488843
% es.EZ (V/m) @ t=0.42
-10.6894257732258
% es.tEX (V/m) @ t=0.42
9.758775775292744
% es.tEY (V/m) @ t=0.42
0
% es.tEZ (V/m) @ t=0.42
-10.68942577322577
% es.Ex (V/m) @ t=0.42
9.758775775292762
% es.Ey (V/m) @ t=0.42
2.9182301179488843
% es.Ez (V/m) @ t=0.42
-10.6894257732258
% es.tEx (V/m) @ t=0.42
9.758775775292744
% es.tEy (V/m) @ t=0.42
0
% es.tEz (V/m) @ t=0.42
-10.68942577322577
% V (V) @ t=0.42
0.013172254538149752
% es.normE (V/m) @ t=0.44
15.571058185255708
% es.EX (V/m) @ t=0.44
9.88140367675389
% es.EY (V/m) @ t=0.44
2.9549050383532567
% es.EZ (V/m) @ t=0.44
-10.823740496431855
% es.tEX (V/m) @ t=0.44
9.88140367675385
% es.tEY (V/m) @ t=0.44
0
% es.tEZ (V/m) @ t=0.44
-10.823740496431824
% es.Ex (V/m) @ t=0.44
9.88140367675389
% es.Ey (V/m) @ t=0.44
2.9549050383532567
% es.Ez (V/m) @ t=0.44
-10.823740496431855
% es.tEx (V/m) @ t=0.44
9.88140367675385
% es.tEy (V/m) @ t=0.44
0
% es.tEz (V/m) @ t=0.44
-10.823740496431824
% V (V) @ t=0.44
0.013337750827874572
% es.normE (V/m) @ t=0.46
15.764287984275835
% es.EX (V/m) @ t=0.46
10.004031578215038
% es.EY (V/m) @ t=0.46
2.9915799587576006
% es.EZ (V/m) @ t=0.46
-10.958055219637888
% es.tEX (V/m) @ t=0.46
10.004031578215006
% es.tEY (V/m) @ t=0.46
0
% es.tEZ (V/m) @ t=0.46
-10.95805521963786
% es.Ex (V/m) @ t=0.46
10.004031578215038
% es.Ey (V/m) @ t=0.46
2.9915799587576006
% es.Ez (V/m) @ t=0.46
-10.958055219637888
% es.tEx (V/m) @ t=0.46
10.004031578215006
% es.tEy (V/m) @ t=0.46
0
% es.tEz (V/m) @ t=0.46
-10.95805521963786
% V (V) @ t=0.46
0.013503247117599393
% es.normE (V/m) @ t=0.48
15.95751778330198
% es.EX (V/m) @ t=0.48
10.126659479676182
% es.EY (V/m) @ t=0.48
3.0282548791619797
% es.EZ (V/m) @ t=0.48
-11.092369942843938
% es.tEX (V/m) @ t=0.48
10.126659479676155
% es.tEY (V/m) @ t=0.48
0
% es.tEZ (V/m) @ t=0.48
-11.09236994284391
% es.Ex (V/m) @ t=0.48
10.126659479676182
% es.Ey (V/m) @ t=0.48
3.0282548791619797
% es.Ez (V/m) @ t=0.48
-11.092369942843938
% es.tEx (V/m) @ t=0.48
10.126659479676155
% es.tEy (V/m) @ t=0.48
0
% es.tEz (V/m) @ t=0.48
-11.09236994284391
% V (V) @ t=0.48
0.013668743407324215
% es.normE (V/m) @ t=0.5
16.152539006680968
% es.EX (V/m) @ t=0.5
10.250424723111788
% es.EY (V/m) @ t=0.5
3.065270470845181
% es.EZ (V/m) @ t=0.5
-11.227929554645996
% es.tEX (V/m) @ t=0.5
10.250424723111763
% es.tEY (V/m) @ t=0.5
0
% es.tEZ (V/m) @ t=0.5
-11.227929554645975
% es.Ex (V/m) @ t=0.5
10.250424723111788
% es.Ey (V/m) @ t=0.5
3.065270470845181
% es.Ez (V/m) @ t=0.5
-11.227929554645996
% es.tEx (V/m) @ t=0.5
10.250424723111763
% es.tEy (V/m) @ t=0.5
0
% es.tEz (V/m) @ t=0.5
-11.227929554645975
% V (V) @ t=0.5
0.013835771853690601
% es.normE (V/m) @ t=0.52
16.352587623992022
% es.EX (V/m) @ t=0.52
10.377381765374686
% es.EY (V/m) @ t=0.52
3.103242111115734
% es.EZ (V/m) @ t=0.52
-11.366982780550028
% es.tEX (V/m) @ t=0.52
10.377381765374668
% es.tEY (V/m) @ t=0.52
0
% es.tEZ (V/m) @ t=0.52
-11.36698278055
% es.Ex (V/m) @ t=0.52
10.377381765374686
% es.Ey (V/m) @ t=0.52
3.103242111115734
% es.Ez (V/m) @ t=0.52
-11.366982780550028
% es.tEx (V/m) @ t=0.52
10.377381765374668
% es.tEy (V/m) @ t=0.52
0
% es.tEz (V/m) @ t=0.52
-11.36698278055
% V (V) @ t=0.52
0.014007100093682332
% es.normE (V/m) @ t=0.54
16.55438447674074
% es.EX (V/m) @ t=0.54
10.50544872976861
% es.EY (V/m) @ t=0.54
3.1415462095214046
% es.EZ (V/m) @ t=0.54
-11.507250882396727
% es.tEX (V/m) @ t=0.54
10.505448729768576
% es.tEY (V/m) @ t=0.54
0
% es.tEZ (V/m) @ t=0.54
-11.507250882396699
% es.Ex (V/m) @ t=0.54
10.50544872976861
% es.Ey (V/m) @ t=0.54
3.1415462095214046
% es.Ez (V/m) @ t=0.54
-11.507250882396727
% es.tEx (V/m) @ t=0.54
10.505448729768576
% es.tEy (V/m) @ t=0.54
0
% es.tEz (V/m) @ t=0.54
-11.507250882396699
% V (V) @ t=0.54
0.014179923552001386
% es.normE (V/m) @ t=0.56
16.757929564929803
% es.EX (V/m) @ t=0.56
10.634625616293528
% es.EY (V/m) @ t=0.56
3.1801827660621083
% es.EZ (V/m) @ t=0.56
-11.648733860186129
% es.tEX (V/m) @ t=0.56
10.634625616293501
% es.tEY (V/m) @ t=0.56
0
% es.tEZ (V/m) @ t=0.56
-11.648733860186107
% es.Ex (V/m) @ t=0.56
10.634625616293528
% es.Ey (V/m) @ t=0.56
3.1801827660621083
% es.Ez (V/m) @ t=0.56
-11.648733860186129
% es.tEx (V/m) @ t=0.56
10.634625616293501
% es.tEy (V/m) @ t=0.56
0
% es.tEz (V/m) @ t=0.56
-11.648733860186107
% V (V) @ t=0.56
0.014354242228647758
% es.normE (V/m) @ t=0.58
16.96322288856195
% es.EX (V/m) @ t=0.58
10.764912424949472
% es.EY (V/m) @ t=0.58
3.2191517807378593
% es.EZ (V/m) @ t=0.58
-11.791431713918154
% es.tEX (V/m) @ t=0.58
10.764912424949454
% es.tEY (V/m) @ t=0.58
0
% es.tEZ (V/m) @ t=0.58
-11.791431713918112
% es.Ex (V/m) @ t=0.58
10.764912424949472
% es.Ey (V/m) @ t=0.58
3.2191517807378593
% es.Ez (V/m) @ t=0.58
-11.791431713918154
% es.tEx (V/m) @ t=0.58
10.764912424949454
% es.tEy (V/m) @ t=0.58
0
% es.tEz (V/m) @ t=0.58
-11.791431713918112
% V (V) @ t=0.58
0.014530056123621442
% es.normE (V/m) @ t=0.6
17.170264447640115
% es.EX (V/m) @ t=0.6
10.896309155736475
% es.EY (V/m) @ t=0.6
3.2584532535486934
% es.EZ (V/m) @ t=0.6
-11.935344443592896
% es.tEX (V/m) @ t=0.6
10.896309155736457
% es.tEY (V/m) @ t=0.6
0
% es.tEZ (V/m) @ t=0.6
-11.935344443592868
% es.Ex (V/m) @ t=0.6
10.896309155736475
% es.Ey (V/m) @ t=0.6
3.2584532535486934
% es.Ez (V/m) @ t=0.6
-11.935344443592896
% es.tEx (V/m) @ t=0.6
10.896309155736457
% es.tEy (V/m) @ t=0.6
0
% es.tEz (V/m) @ t=0.6
-11.935344443592868
% V (V) @ t=0.6
0.01470736523692245
% es.normE (V/m) @ t=0.62
17.379054242167143
% es.EX (V/m) @ t=0.62
11.028815808654526
% es.EY (V/m) @ t=0.62
3.2980871844945305
% es.EZ (V/m) @ t=0.62
-12.080472049210243
% es.tEX (V/m) @ t=0.62
11.028815808654493
% es.tEY (V/m) @ t=0.62
0
% es.tEZ (V/m) @ t=0.62
-12.080472049210229
% es.Ex (V/m) @ t=0.62
11.028815808654526
% es.Ey (V/m) @ t=0.62
3.2980871844945305
% es.Ez (V/m) @ t=0.62
-12.080472049210243
% es.tEx (V/m) @ t=0.62
11.028815808654493
% es.tEy (V/m) @ t=0.62
0
% es.tEz (V/m) @ t=0.62
-12.080472049210229
% V (V) @ t=0.62
0.01488616956855077
% es.normE (V/m) @ t=0.64
17.589592272146096
% es.EX (V/m) @ t=0.64
11.162432383703585
% es.EY (V/m) @ t=0.64
3.3380535735754098
% es.EZ (V/m) @ t=0.64
-12.226814530770284
% es.tEX (V/m) @ t=0.64
11.162432383703553
% es.tEY (V/m) @ t=0.64
0
% es.tEZ (V/m) @ t=0.64
-12.22681453077026
% es.Ex (V/m) @ t=0.64
11.162432383703585
% es.Ey (V/m) @ t=0.64
3.3380535735754098
% es.Ez (V/m) @ t=0.64
-12.226814530770284
% es.tEx (V/m) @ t=0.64
11.162432383703553
% es.tEy (V/m) @ t=0.64
0
% es.tEz (V/m) @ t=0.64
-12.22681453077026
% V (V) @ t=0.64
0.015066469118506414
% es.normE (V/m) @ t=0.66
17.801878537580045
% es.EX (V/m) @ t=0.66
11.29715888088365
% es.EY (V/m) @ t=0.66
3.378352420791371
% es.EZ (V/m) @ t=0.66
-12.374371888272977
% es.tEX (V/m) @ t=0.66
11.297158880883625
% es.tEY (V/m) @ t=0.66
0
% es.tEZ (V/m) @ t=0.66
-12.374371888272947
% es.Ex (V/m) @ t=0.66
11.29715888088365
% es.Ey (V/m) @ t=0.66
3.378352420791371
% es.Ez (V/m) @ t=0.66
-12.374371888272977
% es.tEx (V/m) @ t=0.66
11.297158880883625
% es.tEy (V/m) @ t=0.66
0
% es.tEz (V/m) @ t=0.66
-12.374371888272947
% V (V) @ t=0.66
0.01524826388678937
% es.normE (V/m) @ t=0.68
18.01591303847216
% es.EX (V/m) @ t=0.68
11.432995300194769
% es.EY (V/m) @ t=0.68
3.4189837261423657
% es.EZ (V/m) @ t=0.68
-12.523144121718364
% es.tEX (V/m) @ t=0.68
11.432995300194719
% es.tEY (V/m) @ t=0.68
0
% es.tEZ (V/m) @ t=0.68
-12.523144121718335
% es.Ex (V/m) @ t=0.68
11.432995300194769
% es.Ey (V/m) @ t=0.68
3.4189837261423657
% es.Ez (V/m) @ t=0.68
-12.523144121718364
% es.tEx (V/m) @ t=0.68
11.432995300194719
% es.tEy (V/m) @ t=0.68
0
% es.tEz (V/m) @ t=0.68
-12.523144121718335
% V (V) @ t=0.68
0.015431553873399648
% es.normE (V/m) @ t=0.7
18.23169577482563
% es.EX (V/m) @ t=0.7
11.569941641636886
% es.EY (V/m) @ t=0.7
3.459947489628414
% es.EZ (V/m) @ t=0.7
-12.673131231106428
% es.tEX (V/m) @ t=0.7
11.569941641636838
% es.tEY (V/m) @ t=0.7
0
% es.tEZ (V/m) @ t=0.7
-12.673131231106398
% es.Ex (V/m) @ t=0.7
11.569941641636886
% es.Ey (V/m) @ t=0.7
3.459947489628414
% es.Ez (V/m) @ t=0.7
-12.673131231106428
% es.tEx (V/m) @ t=0.7
11.569941641636838
% es.tEy (V/m) @ t=0.7
0
% es.tEz (V/m) @ t=0.7
-12.673131231106398
% V (V) @ t=0.7
0.015616339078337241
% es.normE (V/m) @ t=0.72
18.449226746643696
% es.EX (V/m) @ t=0.72
11.707997905210064
% es.EY (V/m) @ t=0.72
3.5012437112495167
% es.EZ (V/m) @ t=0.72
-12.824333216437115
% es.tEX (V/m) @ t=0.72
11.707997905210043
% es.tEY (V/m) @ t=0.72
0
% es.tEZ (V/m) @ t=0.72
-12.824333216437086
% es.Ex (V/m) @ t=0.72
11.707997905210064
% es.Ey (V/m) @ t=0.72
3.5012437112495167
% es.Ez (V/m) @ t=0.72
-12.824333216437115
% es.tEx (V/m) @ t=0.72
11.707997905210043
% es.tEy (V/m) @ t=0.72
0
% es.tEz (V/m) @ t=0.72
-12.824333216437086
% V (V) @ t=0.72
0.015802619501602153
% es.normE (V/m) @ t=0.74
18.668505953929685
% es.EX (V/m) @ t=0.74
11.847164090914234
% es.EY (V/m) @ t=0.74
3.5428723910056465
% es.EZ (V/m) @ t=0.74
-12.976750077710497
% es.tEX (V/m) @ t=0.74
11.84716409091421
% es.tEY (V/m) @ t=0.74
0
% es.tEZ (V/m) @ t=0.74
-12.976750077710468
% es.Ex (V/m) @ t=0.74
11.847164090914234
% es.Ey (V/m) @ t=0.74
3.5428723910056465
% es.Ez (V/m) @ t=0.74
-12.976750077710497
% es.tEx (V/m) @ t=0.74
11.84716409091421
% es.tEy (V/m) @ t=0.74
0
% es.tEz (V/m) @ t=0.74
-12.976750077710468
% V (V) @ t=0.74
0.015990395143194384
% es.normE (V/m) @ t=0.76
18.892822168596222
% es.EX (V/m) @ t=0.76
11.989513212547719
% es.EY (V/m) @ t=0.76
3.5854376675503046
% es.EZ (V/m) @ t=0.76
-13.13267808831619
% es.tEX (V/m) @ t=0.76
11.989513212547692
% es.tEY (V/m) @ t=0.76
0
% es.tEZ (V/m) @ t=0.76
-13.132678088316162
% es.Ex (V/m) @ t=0.76
11.989513212547719
% es.Ey (V/m) @ t=0.76
3.5854376675503046
% es.Ez (V/m) @ t=0.76
-13.13267808831619
% es.tEx (V/m) @ t=0.76
11.989513212547692
% es.tEy (V/m) @ t=0.76
0
% es.tEz (V/m) @ t=0.76
-13.132678088316162
% V (V) @ t=0.76
0.016182548159285874
% es.normE (V/m) @ t=0.78
19.119458007529513
% es.EX (V/m) @ t=0.78
12.133332420207445
% es.EY (V/m) @ t=0.78
3.62844036483599
% es.EZ (V/m) @ t=0.78
-13.290219927717319
% es.tEX (V/m) @ t=0.78
12.13333242020742
% es.tEY (V/m) @ t=0.78
0
% es.tEZ (V/m) @ t=0.78
-13.29021992771729
% es.Ex (V/m) @ t=0.78
12.133332420207445
% es.Ey (V/m) @ t=0.78
3.62844036483599
% es.Ez (V/m) @ t=0.78
-13.290219927717319
% es.tEx (V/m) @ t=0.78
12.13333242020742
% es.tEy (V/m) @ t=0.78
0
% es.tEz (V/m) @ t=0.78
-13.29021992771729
% V (V) @ t=0.78
0.016376697137401818
% es.normE (V/m) @ t=0.8
19.34834685612298
% es.EX (V/m) @ t=0.8
12.278579724659197
% es.EY (V/m) @ t=0.8
3.6718682459354612
% es.EZ (V/m) @ t=0.8
-13.44932908451995
% es.tEX (V/m) @ t=0.8
12.278579724659181
% es.tEY (V/m) @ t=0.8
0
% es.tEZ (V/m) @ t=0.8
-13.449329084519922
% es.Ex (V/m) @ t=0.8
12.278579724659197
% es.Ey (V/m) @ t=0.8
3.6718682459354612
% es.Ez (V/m) @ t=0.8
-13.44932908451995
% es.tEx (V/m) @ t=0.8
12.278579724659181
% es.tEy (V/m) @ t=0.8
0
% es.tEz (V/m) @ t=0.8
-13.449329084519922
% V (V) @ t=0.8
0.01657278369899657
% es.normE (V/m) @ t=0.82
19.579488714386436
% es.EX (V/m) @ t=0.82
12.425255125902925
% es.EY (V/m) @ t=0.82
3.7157213108484974
% es.EZ (V/m) @ t=0.82
-13.610005558724081
% es.tEX (V/m) @ t=0.82
12.425255125902888
% es.tEY (V/m) @ t=0.82
0
% es.tEZ (V/m) @ t=0.82
-13.610005558724065
% es.Ex (V/m) @ t=0.82
12.425255125902925
% es.Ey (V/m) @ t=0.82
3.7157213108484974
% es.Ez (V/m) @ t=0.82
-13.610005558724081
% es.tEx (V/m) @ t=0.82
12.425255125902888
% es.tEy (V/m) @ t=0.82
0
% es.tEz (V/m) @ t=0.82
-13.610005558724065
% V (V) @ t=0.82
0.01677080784407013
% es.normE (V/m) @ t=0.84
19.812883582331736
% es.EX (V/m) @ t=0.84
12.573358623938669
% es.EY (V/m) @ t=0.84
3.759999559575262
% es.EZ (V/m) @ t=0.84
-13.77224935032977
% es.tEX (V/m) @ t=0.84
12.573358623938631
% es.tEY (V/m) @ t=0.84
0
% es.tEZ (V/m) @ t=0.84
-13.772249350329753
% es.Ex (V/m) @ t=0.84
12.573358623938669
% es.Ey (V/m) @ t=0.84
3.759999559575262
% es.Ez (V/m) @ t=0.84
-13.77224935032977
% es.tEx (V/m) @ t=0.84
12.573358623938631
% es.tEy (V/m) @ t=0.84
0
% es.tEz (V/m) @ t=0.84
-13.772249350329753
% V (V) @ t=0.84
0.016970769572622488
% es.normE (V/m) @ t=0.86
20.048531459972537
% es.EX (V/m) @ t=0.86
12.72289021876648
% es.EY (V/m) @ t=0.86
3.804702992115663
% es.EZ (V/m) @ t=0.86
-13.936060459336968
% es.tEX (V/m) @ t=0.86
12.722890218766429
% es.tEY (V/m) @ t=0.86
0
% es.tEZ (V/m) @ t=0.86
-13.936060459336938
% es.Ex (V/m) @ t=0.86
12.72289021876648
% es.Ey (V/m) @ t=0.86
3.804702992115663
% es.Ez (V/m) @ t=0.86
-13.936060459336968
% es.tEx (V/m) @ t=0.86
12.722890218766429
% es.tEy (V/m) @ t=0.86
0
% es.tEz (V/m) @ t=0.86
-13.936060459336938
% V (V) @ t=0.86
0.017172668884653644
% es.normE (V/m) @ t=0.88
20.286432347323988
% es.EX (V/m) @ t=0.88
12.873849910386216
% es.EY (V/m) @ t=0.88
3.849831608469785
% es.EZ (V/m) @ t=0.88
-14.101438885745637
% es.tEX (V/m) @ t=0.88
12.873849910386188
% es.tEY (V/m) @ t=0.88
0
% es.tEZ (V/m) @ t=0.88
-14.101438885745607
% es.Ex (V/m) @ t=0.88
12.873849910386216
% es.Ey (V/m) @ t=0.88
3.849831608469785
% es.Ez (V/m) @ t=0.88
-14.101438885745637
% es.tEx (V/m) @ t=0.88
12.873849910386188
% es.tEy (V/m) @ t=0.88
0
% es.tEz (V/m) @ t=0.88
-14.101438885745607
% V (V) @ t=0.88
0.01737650578016361
% es.normE (V/m) @ t=0.9
20.526586244403134
% es.EX (V/m) @ t=0.9
13.026237698797996
% es.EY (V/m) @ t=0.9
3.8953854086374715
% es.EZ (V/m) @ t=0.9
-14.268384629555854
% es.tEX (V/m) @ t=0.9
13.026237698797944
% es.tEY (V/m) @ t=0.9
0
% es.tEZ (V/m) @ t=0.9
-14.268384629555825
% es.Ex (V/m) @ t=0.9
13.026237698797996
% es.Ey (V/m) @ t=0.9
3.8953854086374715
% es.Ez (V/m) @ t=0.9
-14.268384629555854
% es.tEx (V/m) @ t=0.9
13.026237698797944
% es.tEy (V/m) @ t=0.9
0
% es.tEz (V/m) @ t=0.9
-14.268384629555825
% V (V) @ t=0.9
0.017582280259152375
% es.normE (V/m) @ t=0.92
20.76899315122826
% es.EX (V/m) @ t=0.92
13.180053584001735
% es.EY (V/m) @ t=0.92
3.941364392618979
% es.EZ (V/m) @ t=0.92
-14.436897690767605
% es.tEX (V/m) @ t=0.92
13.180053584001719
% es.tEY (V/m) @ t=0.92
0
% es.tEZ (V/m) @ t=0.92
-14.436897690767577
% es.Ex (V/m) @ t=0.92
13.180053584001735
% es.Ey (V/m) @ t=0.92
3.941364392618979
% es.Ez (V/m) @ t=0.92
-14.436897690767605
% es.tEx (V/m) @ t=0.92
13.180053584001719
% es.tEy (V/m) @ t=0.92
0
% es.tEz (V/m) @ t=0.92
-14.436897690767577
% V (V) @ t=0.92
0.01778999232161995
% es.normE (V/m) @ t=0.94
21.013653067819146
% es.EX (V/m) @ t=0.94
13.33529756599755
% es.EY (V/m) @ t=0.94
3.987768560414059
% es.EZ (V/m) @ t=0.94
-14.606978069380848
% es.tEX (V/m) @ t=0.94
13.335297565997534
% es.tEY (V/m) @ t=0.94
0
% es.tEZ (V/m) @ t=0.94
-14.606978069380805
% es.Ex (V/m) @ t=0.94
13.33529756599755
% es.Ey (V/m) @ t=0.94
3.987768560414059
% es.Ez (V/m) @ t=0.94
-14.606978069380848
% es.tEx (V/m) @ t=0.94
13.335297565997534
% es.tEy (V/m) @ t=0.94
0
% es.tEz (V/m) @ t=0.94
-14.606978069380805
% V (V) @ t=0.94
0.017999641967566326
% es.normE (V/m) @ t=0.96
21.260565994196764
% es.EX (V/m) @ t=0.96
13.49196964478531
% es.EY (V/m) @ t=0.96
4.034597912022868
% es.EZ (V/m) @ t=0.96
-14.778625765395633
% es.tEX (V/m) @ t=0.96
13.491969644785302
% es.tEY (V/m) @ t=0.96
0
% es.tEZ (V/m) @ t=0.96
-14.778625765395603
% es.Ex (V/m) @ t=0.96
13.49196964478531
% es.Ey (V/m) @ t=0.96
4.034597912022868
% es.Ez (V/m) @ t=0.96
-14.778625765395633
% es.tEx (V/m) @ t=0.96
13.491969644785302
% es.tEy (V/m) @ t=0.96
0
% es.tEz (V/m) @ t=0.96
-14.778625765395603
% V (V) @ t=0.96
0.018211229196991502
% es.normE (V/m) @ t=0.98
21.50973193038326
% es.EX (V/m) @ t=0.98
13.65006982036509
% es.EY (V/m) @ t=0.98
4.081852447445334
% es.EZ (V/m) @ t=0.98
-14.951840778811901
% es.tEX (V/m) @ t=0.98
13.65006982036506
% es.tEY (V/m) @ t=0.98
0
% es.tEZ (V/m) @ t=0.98
-14.951840778811885
% es.Ex (V/m) @ t=0.98
13.65006982036509
% es.Ey (V/m) @ t=0.98
4.081852447445334
% es.Ez (V/m) @ t=0.98
-14.951840778811901
% es.tEx (V/m) @ t=0.98
13.65006982036506
% es.tEy (V/m) @ t=0.98
0
% es.tEz (V/m) @ t=0.98
-14.951840778811885
% V (V) @ t=0.98
0.018424754009895485
% es.normE (V/m) @ t=1
21.76224437525577
% es.EX (V/m) @ t=1
13.810303717914014
% es.EY (V/m) @ t=1
4.129756306493071
% es.EZ (V/m) @ t=1
-15.127374743454116
% es.tEX (V/m) @ t=1
13.810303717913957
% es.tEY (V/m) @ t=1
0
% es.tEZ (V/m) @ t=1
-15.127374743454087
% es.Ex (V/m) @ t=1
13.810303717914014
% es.Ey (V/m) @ t=1
4.129756306493071
% es.Ez (V/m) @ t=1
-15.127374743454116
% es.tEx (V/m) @ t=1
13.810303717913957
% es.tEy (V/m) @ t=1
0
% es.tEz (V/m) @ t=1
-15.127374743454087
% V (V) @ t=1
0.018641098886968705
% es.normE (V/m) @ t=1.02
22.01783765310706
% es.EX (V/m) @ t=1.02
13.97249989929427
% es.EY (V/m) @ t=1.02
4.1782550323340555
% es.EZ (V/m) @ t=1.02
-15.305045042959852
% es.tEX (V/m) @ t=1.02
13.97249989929424
% es.tEY (V/m) @ t=1.02
0
% es.tEZ (V/m) @ t=1.02
-15.305045042959808
% es.Ex (V/m) @ t=1.02
13.97249989929427
% es.Ey (V/m) @ t=1.02
4.1782550323340555
% es.Ez (V/m) @ t=1.02
-15.305045042959852
% es.tEx (V/m) @ t=1.02
13.97249989929424
% es.tEy (V/m) @ t=1.02
0
% es.tEz (V/m) @ t=1.02
-15.305045042959808
% V (V) @ t=1.02
0.018860049421397202
% es.normE (V/m) @ t=1.04
22.27594678129431
% es.EX (V/m) @ t=1.04
14.136293786199019
% es.EY (V/m) @ t=1.04
4.227232817715568
% es.EZ (V/m) @ t=1.04
-15.484463327542185
% es.tEX (V/m) @ t=1.04
14.136293786198989
% es.tEY (V/m) @ t=1.04
0
% es.tEZ (V/m) @ t=1.04
-15.48446332754217
% es.Ex (V/m) @ t=1.04
14.136293786199019
% es.Ey (V/m) @ t=1.04
4.227232817715568
% es.Ez (V/m) @ t=1.04
-15.484463327542185
% es.tEx (V/m) @ t=1.04
14.136293786198989
% es.tEy (V/m) @ t=1.04
0
% es.tEz (V/m) @ t=1.04