% Model:              1 neuron.mph
% Version:            COMSOL 6.0.0.405
% Date:               Mar 16 2023, 20:06
% Dimension:          0
% Nodes:              14017
% Expressions:        14017
% Description:        Electric field norm, Electric field, X component, Electric field, Y component, Electric field, Z component, Tangential electric field, X component, Tangential electric field, Y component, Tangential electric field, Z component, Electric field, x component, Electric field, y component, Electric field, z component, Tangential electric field, x component, Tangential electric field, y component, Tangential electric field, z component, Electric potential
% Length unit:        mm
% x
1.66
% y
12.2
% z
1.33
% es.normE (V/m) @ t=0
14.183125075018799
% es.EX (V/m) @ t=0
-7.880717852139011
% es.EY (V/m) @ t=0
-0.8506550274816345
% es.EZ (V/m) @ t=0
10.55222904255087
% es.tEX (V/m) @ t=0
-7.880717852139023
% es.tEY (V/m) @ t=0
0
% es.tEZ (V/m) @ t=0
10.55222904255086
% es.Ex (V/m) @ t=0
-7.880717852139011
% es.Ey (V/m) @ t=0
-0.8506550274816345
% es.Ez (V/m) @ t=0
10.55222904255087
% es.tEx (V/m) @ t=0
-7.880717852139023
% es.tEy (V/m) @ t=0
0
% es.tEz (V/m) @ t=0
10.55222904255086
% V (V) @ t=0
0.011648104740529956
% es.normE (V/m) @ t=0.02
12.291170605434706
% es.EX (V/m) @ t=0.02
-6.829471601338351
% es.EY (V/m) @ t=0.02
-0.7371819959012864
% es.EZ (V/m) @ t=0.02
9.14461700916252
% es.tEX (V/m) @ t=0.02
-6.829471601338361
% es.tEY (V/m) @ t=0.02
0
% es.tEZ (V/m) @ t=0.02
9.144617009162513
% es.Ex (V/m) @ t=0.02
-6.829471601338351
% es.Ey (V/m) @ t=0.02
-0.7371819959012864
% es.Ez (V/m) @ t=0.02
9.14461700916252
% es.tEx (V/m) @ t=0.02
-6.829471601338361
% es.tEy (V/m) @ t=0.02
0
% es.tEz (V/m) @ t=0.02
9.144617009162513
% V (V) @ t=0.02
0.010094308560673471
% es.normE (V/m) @ t=0.04
12.446071608127186
% es.EX (V/m) @ t=0.04
-6.915539188042278
% es.EY (V/m) @ t=0.04
-0.7464735907004476
% es.EZ (V/m) @ t=0.04
9.259863652194646
% es.tEX (V/m) @ t=0.04
-6.9155391880422865
% es.tEY (V/m) @ t=0.04
0
% es.tEZ (V/m) @ t=0.04
9.259863652194639
% es.Ex (V/m) @ t=0.04
-6.915539188042278
% es.Ey (V/m) @ t=0.04
-0.7464735907004476
% es.Ez (V/m) @ t=0.04
9.259863652194646
% es.tEx (V/m) @ t=0.04
-6.9155391880422865
% es.tEy (V/m) @ t=0.04
0
% es.tEz (V/m) @ t=0.04
9.259863652194639
% V (V) @ t=0.04
0.010221524553788011
% es.normE (V/m) @ t=0.06
12.602416991601588
% es.EX (V/m) @ t=0.06
-7.002407666441286
% es.EY (V/m) @ t=0.06
-0.7558529752321737
% es.EZ (V/m) @ t=0.06
9.376185380787156
% es.tEX (V/m) @ t=0.06
-7.002407666441304
% es.tEY (V/m) @ t=0.06
0
% es.tEZ (V/m) @ t=0.06
9.376185380787135
% es.Ex (V/m) @ t=0.06
-7.002407666441286
% es.Ey (V/m) @ t=0.06
-0.7558529752321737
% es.Ez (V/m) @ t=0.06
9.376185380787156
% es.tEx (V/m) @ t=0.06
-7.002407666441304
% es.tEy (V/m) @ t=0.06
0
% es.tEz (V/m) @ t=0.06
9.376185380787135
% V (V) @ t=0.06
0.010349927976912789
% es.normE (V/m) @ t=0.08
12.763655528673768
% es.EX (V/m) @ t=0.08
-7.092000671290867
% es.EY (V/m) @ t=0.08
-0.7655218659470402
% es.EZ (V/m) @ t=0.08
9.496146010277924
% es.tEX (V/m) @ t=0.08
-7.0920006712908865
% es.tEY (V/m) @ t=0.08
0
% es.tEZ (V/m) @ t=0.08
9.496146010277915
% es.Ex (V/m) @ t=0.08
-7.092000671290867
% es.Ey (V/m) @ t=0.08
-0.7655218659470402
% es.Ez (V/m) @ t=0.08
9.496146010277924
% es.tEx (V/m) @ t=0.08
-7.0920006712908865
% es.tEy (V/m) @ t=0.08
0
% es.tEz (V/m) @ t=0.08
9.496146010277915
% V (V) @ t=0.08
0.010482345833443289
% es.normE (V/m) @ t=0.1
12.925399732453378
% es.EX (V/m) @ t=0.1
-7.1818752332770455
% es.EY (V/m) @ t=0.1
-0.7752206747168826
% es.EZ (V/m) @ t=0.1
9.616482689895497
% es.tEX (V/m) @ t=0.1
-7.181875233277079
% es.tEY (V/m) @ t=0.1
0
% es.tEZ (V/m) @ t=0.1
9.616482689895477
% es.Ex (V/m) @ t=0.1
-7.1818752332770455
% es.Ey (V/m) @ t=0.1
-0.7752206747168826
% es.Ez (V/m) @ t=0.1
9.616482689895497
% es.tEx (V/m) @ t=0.1
-7.181875233277079
% es.tEy (V/m) @ t=0.1
0
% es.tEz (V/m) @ t=0.1
9.616482689895477
% V (V) @ t=0.1
0.010615178548260235
% es.normE (V/m) @ t=0.12
13.087143936234385
% es.EX (V/m) @ t=0.12
-7.2717497952632115
% es.EY (V/m) @ t=0.12
-0.7849194834866466
% es.EZ (V/m) @ t=0.12
9.736819369513057
% es.tEX (V/m) @ t=0.12
-7.271749795263217
% es.tEY (V/m) @ t=0.12
0
% es.tEZ (V/m) @ t=0.12
9.73681936951305
% es.Ex (V/m) @ t=0.12
-7.2717497952632115
% es.Ey (V/m) @ t=0.12
-0.7849194834866466
% es.Ez (V/m) @ t=0.12
9.736819369513057
% es.tEx (V/m) @ t=0.12
-7.271749795263217
% es.tEy (V/m) @ t=0.12
0
% es.tEz (V/m) @ t=0.12
9.73681936951305
% V (V) @ t=0.12
0.010748011263077183
% es.normE (V/m) @ t=0.14
13.258413440416856
% es.EX (V/m) @ t=0.14
-7.366914744743122
% es.EY (V/m) @ t=0.14
-0.7951911582934681
% es.EZ (V/m) @ t=0.14
9.864243495363956
% es.tEX (V/m) @ t=0.14
-7.366914744743136
% es.tEY (V/m) @ t=0.14
0
% es.tEZ (V/m) @ t=0.14
9.86424349536395
% es.Ex (V/m) @ t=0.14
-7.366914744743122
% es.Ey (V/m) @ t=0.14
-0.7951911582934681
% es.Ez (V/m) @ t=0.14
9.864243495363956
% es.tEx (V/m) @ t=0.14
-7.366914744743136
% es.tEy (V/m) @ t=0.14
0
% es.tEz (V/m) @ t=0.14
9.86424349536395
% V (V) @ t=0.14
0.010888668413895526
% es.normE (V/m) @ t=0.16
13.431749660916516
% es.EX (V/m) @ t=0.16
-7.4632275562008985
% es.EY (V/m) @ t=0.16
-0.8055871285593446
% es.EZ (V/m) @ t=0.16
9.993205393270499
% es.tEX (V/m) @ t=0.16
-7.463227556200904
% es.tEY (V/m) @ t=0.16
0
% es.tEZ (V/m) @ t=0.16
9.993205393270479
% es.Ex (V/m) @ t=0.16
-7.4632275562008985
% es.Ey (V/m) @ t=0.16
-0.8055871285593446
% es.Ez (V/m) @ t=0.16
9.993205393270499
% es.tEx (V/m) @ t=0.16
-7.463227556200904
% es.tEy (V/m) @ t=0.16
0
% es.tEz (V/m) @ t=0.16
9.993205393270479
% V (V) @ t=0.16
0.011031023242359338
% es.normE (V/m) @ t=0.18
13.605085881416182
% es.EX (V/m) @ t=0.18
-7.559540367658654
% es.EY (V/m) @ t=0.18
-0.8159830988252428
% es.EZ (V/m) @ t=0.18
10.122167291177023
% es.tEX (V/m) @ t=0.18
-7.559540367658661
% es.tEY (V/m) @ t=0.18
0
% es.tEZ (V/m) @ t=0.18
10.12216729117701
% es.Ex (V/m) @ t=0.18
-7.559540367658654
% es.Ey (V/m) @ t=0.18
-0.8159830988252428
% es.Ez (V/m) @ t=0.18
10.122167291177023
% es.tEx (V/m) @ t=0.18
-7.559540367658661
% es.tEy (V/m) @ t=0.18
0
% es.tEz (V/m) @ t=0.18
10.12216729117701
% V (V) @ t=0.18
0.011173378070823156
% es.normE (V/m) @ t=0.2
13.7784221019158
% es.EX (V/m) @ t=0.2
-7.6558531791164075
% es.EY (V/m) @ t=0.2
-0.8263790690911232
% es.EZ (V/m) @ t=0.2
10.251129189083512
% es.tEX (V/m) @ t=0.2
-7.655853179116427
% es.tEY (V/m) @ t=0.2
0
% es.tEZ (V/m) @ t=0.2
10.251129189083507
% es.Ex (V/m) @ t=0.2
-7.6558531791164075
% es.Ey (V/m) @ t=0.2
-0.8263790690911232
% es.Ez (V/m) @ t=0.2
10.251129189083512
% es.tEx (V/m) @ t=0.2
-7.655853179116427
% es.tEy (V/m) @ t=0.2
0
% es.tEz (V/m) @ t=0.2
10.251129189083507
% V (V) @ t=0.2
0.011315732899286968
% es.normE (V/m) @ t=0.22
13.951758322415435
% es.EX (V/m) @ t=0.22
-7.752165990574156
% es.EY (V/m) @ t=0.22
-0.8367750393569753
% es.EZ (V/m) @ t=0.22
10.380091086990031
% es.tEX (V/m) @ t=0.22
-7.752165990574168
% es.tEY (V/m) @ t=0.22
0
% es.tEZ (V/m) @ t=0.22
10.380091086990017
% es.Ex (V/m) @ t=0.22
-7.752165990574156
% es.Ey (V/m) @ t=0.22
-0.8367750393569753
% es.Ez (V/m) @ t=0.22
10.380091086990031
% es.tEx (V/m) @ t=0.22
-7.752165990574168
% es.tEy (V/m) @ t=0.22
0
% es.tEz (V/m) @ t=0.22
10.380091086990017
% V (V) @ t=0.22
0.011458087727750785
% es.normE (V/m) @ t=0.24
14.125094542915143
% es.EX (V/m) @ t=0.24
-7.848478802031938
% es.EY (V/m) @ t=0.24
-0.8471710096228522
% es.EZ (V/m) @ t=0.24
10.509052984896593
% es.tEX (V/m) @ t=0.24
-7.848478802031952
% es.tEY (V/m) @ t=0.24
0
% es.tEZ (V/m) @ t=0.24
10.50905298489657
% es.Ex (V/m) @ t=0.24
-7.848478802031938
% es.Ey (V/m) @ t=0.24
-0.8471710096228522
% es.Ez (V/m) @ t=0.24
10.509052984896593
% es.tEx (V/m) @ t=0.24
-7.848478802031952
% es.tEy (V/m) @ t=0.24
0
% es.tEz (V/m) @ t=0.24
10.50905298489657
% V (V) @ t=0.24
0.011600442556214596
% es.normE (V/m) @ t=0.26
14.306513483699062
% es.EX (V/m) @ t=0.26
-7.949282110415947
% es.EY (V/m) @ t=0.26
-0.8580521647100796
% es.EZ (V/m) @ t=0.26
10.644028584200637
% es.tEX (V/m) @ t=0.26
-7.949282110415966
% es.tEY (V/m) @ t=0.26
0
% es.tEZ (V/m) @ t=0.26
10.644028584200626
% es.Ex (V/m) @ t=0.26
-7.949282110415947
% es.Ey (V/m) @ t=0.26
-0.8580521647100796
% es.Ez (V/m) @ t=0.26
10.644028584200637
% es.tEx (V/m) @ t=0.26
-7.949282110415966
% es.tEy (V/m) @ t=0.26
0
% es.tEz (V/m) @ t=0.26
10.644028584200626
% V (V) @ t=0.26
0.011749435869815665
% es.normE (V/m) @ t=0.28
14.492237751832118
% es.EX (V/m) @ t=0.28
-8.052477318871645
% es.EY (V/m) @ t=0.28
-0.869191757477513
% es.EZ (V/m) @ t=0.28
10.782207430949288
% es.tEX (V/m) @ t=0.28
-8.052477318871672
% es.tEY (V/m) @ t=0.28
0
% es.tEZ (V/m) @ t=0.28
10.78220743094927
% es.Ex (V/m) @ t=0.28
-8.052477318871645
% es.Ey (V/m) @ t=0.28
-0.869191757477513
% es.Ez (V/m) @ t=0.28
10.782207430949288
% es.tEx (V/m) @ t=0.28
-8.052477318871672
% es.tEy (V/m) @ t=0.28
0
% es.tEz (V/m) @ t=0.28
10.78220743094927
% V (V) @ t=0.28
0.011901965227052133
% es.normE (V/m) @ t=0.3
14.677962019965278
% es.EX (V/m) @ t=0.3
-8.15567252732735
% es.EY (V/m) @ t=0.3
-0.8803313502449539
% es.EZ (V/m) @ t=0.3
10.920386277697938
% es.tEX (V/m) @ t=0.3
-8.155672527327356
% es.tEY (V/m) @ t=0.3
0
% es.tEZ (V/m) @ t=0.3
10.920386277697927
% es.Ex (V/m) @ t=0.3
-8.15567252732735
% es.Ey (V/m) @ t=0.3
-0.8803313502449539
% es.Ez (V/m) @ t=0.3
10.920386277697938
% es.tEx (V/m) @ t=0.3
-8.155672527327356
% es.tEy (V/m) @ t=0.3
0
% es.tEz (V/m) @ t=0.3
10.920386277697927
% V (V) @ t=0.3
0.012054494584288599
% es.normE (V/m) @ t=0.32
14.863686288098512
% es.EX (V/m) @ t=0.32
-8.258867735783058
% es.EY (V/m) @ t=0.32
-0.8914709430124264
% es.EZ (V/m) @ t=0.32
11.058565124446597
% es.tEX (V/m) @ t=0.32
-8.258867735783056
% es.tEY (V/m) @ t=0.32
0
% es.tEZ (V/m) @ t=0.32
11.058565124446579
% es.Ex (V/m) @ t=0.32
-8.258867735783058
% es.Ey (V/m) @ t=0.32
-0.8914709430124264
% es.Ez (V/m) @ t=0.32
11.058565124446597
% es.tEx (V/m) @ t=0.32
-8.258867735783056
% es.tEy (V/m) @ t=0.32
0
% es.tEz (V/m) @ t=0.32
11.058565124446579
% V (V) @ t=0.32
0.012207023941525067
% es.normE (V/m) @ t=0.34
15.04941055623183
% es.EX (V/m) @ t=0.34
-8.362062944238765
% es.EY (V/m) @ t=0.34
-0.9026105357798597
% es.EZ (V/m) @ t=0.34
11.196743971195271
% es.tEX (V/m) @ t=0.34
-8.362062944238778
% es.tEY (V/m) @ t=0.34
0
% es.tEZ (V/m) @ t=0.34
11.196743971195255
% es.Ex (V/m) @ t=0.34
-8.362062944238765
% es.Ey (V/m) @ t=0.34
-0.9026105357798597
% es.Ez (V/m) @ t=0.34
11.196743971195271
% es.tEx (V/m) @ t=0.34
-8.362062944238778
% es.tEy (V/m) @ t=0.34
0
% es.tEz (V/m) @ t=0.34
11.196743971195255
% V (V) @ t=0.34
0.012359553298761535
% es.normE (V/m) @ t=0.36
15.23513482436523
% es.EX (V/m) @ t=0.36
-8.465258152694485
% es.EY (V/m) @ t=0.36
-0.9137501285473073
% es.EZ (V/m) @ t=0.36
11.334922817943914
% es.tEX (V/m) @ t=0.36
-8.465258152694512
% es.tEY (V/m) @ t=0.36
0
% es.tEZ (V/m) @ t=0.36
11.334922817943896
% es.Ex (V/m) @ t=0.36
-8.465258152694485
% es.Ey (V/m) @ t=0.36
-0.9137501285473073
% es.Ez (V/m) @ t=0.36
11.334922817943914
% es.tEx (V/m) @ t=0.36
-8.465258152694512
% es.tEy (V/m) @ t=0.36
0
% es.tEz (V/m) @ t=0.36
11.334922817943896
% V (V) @ t=0.36
0.012512082655998
% es.normE (V/m) @ t=0.38
15.427244367705821
% es.EX (V/m) @ t=0.38
-8.57200036707223
% es.EY (V/m) @ t=0.38
-0.92527332375131
% es.EZ (V/m) @ t=0.38
11.477852559453552
% es.tEX (V/m) @ t=0.38
-8.572000367072235
% es.tEY (V/m) @ t=0.38
0
% es.tEZ (V/m) @ t=0.38
11.477852559453542
% es.Ex (V/m) @ t=0.38
-8.57200036707223
% es.Ey (V/m) @ t=0.38
-0.92527332375131
% es.Ez (V/m) @ t=0.38
11.477852559453552
% es.tEx (V/m) @ t=0.38
-8.572000367072235
% es.tEy (V/m) @ t=0.38
0
% es.tEz (V/m) @ t=0.38
11.477852559453542
% V (V) @ t=0.38
0.012669856680546529
% es.normE (V/m) @ t=0.4
15.62618291439859
% es.EX (V/m) @ t=0.4
-8.682536077351616
% es.EY (V/m) @ t=0.4
-0.9372067788484828
% es.EZ (V/m) @ t=0.4
11.625863346837178
% es.tEX (V/m) @ t=0.4
-8.682536077351621
% es.tEY (V/m) @ t=0.4
0
% es.tEZ (V/m) @ t=0.4
11.625863346837164
% es.Ex (V/m) @ t=0.4
-8.682536077351616
% es.Ey (V/m) @ t=0.4
-0.9372067788484828
% es.Ez (V/m) @ t=0.4
11.625863346837178
% es.tEx (V/m) @ t=0.4
-8.682536077351621
% es.tEy (V/m) @ t=0.4
0
% es.tEz (V/m) @ t=0.4
11.625863346837164
% V (V) @ t=0.4
0.012833239836963248
% es.normE (V/m) @ t=0.42
15.825121461092277
% es.EX (V/m) @ t=0.42
-8.793071787631002
% es.EY (V/m) @ t=0.42
-0.9491402339457453
% es.EZ (V/m) @ t=0.42
11.773874134220797
% es.tEX (V/m) @ t=0.42
-8.793071787631007
% es.tEY (V/m) @ t=0.42
0
% es.tEZ (V/m) @ t=0.42
11.773874134220776
% es.Ex (V/m) @ t=0.42
-8.793071787631002
% es.Ey (V/m) @ t=0.42
-0.9491402339457453
% es.Ez (V/m) @ t=0.42
11.773874134220797
% es.tEx (V/m) @ t=0.42
-8.793071787631007
% es.tEy (V/m) @ t=0.42
0
% es.tEz (V/m) @ t=0.42
11.773874134220776
% V (V) @ t=0.42
0.012996622993379963
% es.normE (V/m) @ t=0.44
16.024060007786826
% es.EX (V/m) @ t=0.44
-8.903607497910386
% es.EY (V/m) @ t=0.44
-0.9610736890429745
% es.EZ (V/m) @ t=0.44
11.92188492160442
% es.tEX (V/m) @ t=0.44
-8.9036074979104
% es.tEY (V/m) @ t=0.44
0
% es.tEZ (V/m) @ t=0.44
11.92188492160441
% es.Ex (V/m) @ t=0.44
-8.903607497910386
% es.Ey (V/m) @ t=0.44
-0.9610736890429745
% es.Ez (V/m) @ t=0.44
11.92188492160442
% es.tEx (V/m) @ t=0.44
-8.9036074979104
% es.tEy (V/m) @ t=0.44
0
% es.tEz (V/m) @ t=0.44
11.92188492160441
% V (V) @ t=0.44
0.013160006149796675
% es.normE (V/m) @ t=0.46
16.22299855448219
% es.EX (V/m) @ t=0.46
-9.014143208189765
% es.EY (V/m) @ t=0.46
-0.9730071441401837
% es.EZ (V/m) @ t=0.46
12.069895708988033
% es.tEX (V/m) @ t=0.46
-9.014143208189777
% es.tEY (V/m) @ t=0.46
0
% es.tEZ (V/m) @ t=0.46
12.069895708988021
% es.Ex (V/m) @ t=0.46
-9.014143208189765
% es.Ey (V/m) @ t=0.46
-0.9730071441401837
% es.Ez (V/m) @ t=0.46
12.069895708988033
% es.tEx (V/m) @ t=0.46
-9.014143208189777
% es.tEy (V/m) @ t=0.46
0
% es.tEz (V/m) @ t=0.46
12.069895708988021
% V (V) @ t=0.46
0.013323389306213393
% es.normE (V/m) @ t=0.48
16.42193710117837
% es.EX (V/m) @ t=0.48
-9.124678918469145
% es.EY (V/m) @ t=0.48
-0.984940599237424
% es.EZ (V/m) @ t=0.48
12.217906496371638
% es.tEX (V/m) @ t=0.48
-9.124678918469165
% es.tEY (V/m) @ t=0.48
0
% es.tEZ (V/m) @ t=0.48
12.21790649637163
% es.Ex (V/m) @ t=0.48
-9.124678918469145
% es.Ey (V/m) @ t=0.48
-0.984940599237424
% es.Ez (V/m) @ t=0.48
12.217906496371638
% es.tEx (V/m) @ t=0.48
-9.124678918469165
% es.tEy (V/m) @ t=0.48
0
% es.tEz (V/m) @ t=0.48
12.21790649637163
% V (V) @ t=0.48
0.013486772462630107
% es.normE (V/m) @ t=0.5
16.622707899487565
% es.EX (V/m) @ t=0.5
-9.236233333133935
% es.EY (V/m) @ t=0.5
-0.9969835058653169
% es.EZ (V/m) @ t=0.5
12.367280298609591
% es.tEX (V/m) @ t=0.5
-9.236233333133955
% es.tEY (V/m) @ t=0.5
0
% es.tEZ (V/m) @ t=0.5
12.367280298609582
% es.Ex (V/m) @ t=0.5
-9.236233333133935
% es.Ey (V/m) @ t=0.5
-0.9969835058653169
% es.Ez (V/m) @ t=0.5
12.367280298609591
% es.tEx (V/m) @ t=0.5
-9.236233333133955
% es.tEy (V/m) @ t=0.5
0
% es.tEz (V/m) @ t=0.5
12.367280298609582
% V (V) @ t=0.5
0.013651659922729511
% es.normE (V/m) @ t=0.52
16.828665176322303
% es.EX (V/m) @ t=0.52
-9.350671351984474
% es.EY (V/m) @ t=0.52
-1.009336232394396
% es.EZ (V/m) @ t=0.52
12.520512330374824
% es.tEX (V/m) @ t=0.52
-9.350671351984479
% es.tEY (V/m) @ t=0.52
0
% es.tEZ (V/m) @ t=0.52
12.520512330374812
% es.Ex (V/m) @ t=0.52
-9.350671351984474
% es.Ey (V/m) @ t=0.52
-1.009336232394396
% es.Ez (V/m) @ t=0.52
12.520512330374824
% es.tEx (V/m) @ t=0.52
-9.350671351984479
% es.tEy (V/m) @ t=0.52
0
% es.tEz (V/m) @ t=0.52
12.520512330374812
% V (V) @ t=0.52
0.013820805552773345
% es.normE (V/m) @ t=0.54
17.03642278082949
% es.EX (V/m) @ t=0.54
-9.466110325989176
% es.EY (V/m) @ t=0.54
-1.0217965034431304
% es.EZ (V/m) @ t=0.54
12.67508362872533
% es.tEX (V/m) @ t=0.54
-9.466110325989188
% es.tEY (V/m) @ t=0.54
0
% es.tEZ (V/m) @ t=0.54
12.67508362872531
% es.Ex (V/m) @ t=0.54
-9.466110325989176
% es.Ey (V/m) @ t=0.54
-1.0217965034431304
% es.Ez (V/m) @ t=0.54
12.67508362872533
% es.tEx (V/m) @ t=0.54
-9.466110325989188
% es.tEy (V/m) @ t=0.54
0
% es.tEz (V/m) @ t=0.54
12.67508362872531
% V (V) @ t=0.54
0.013991429276507763
% es.normE (V/m) @ t=0.56
17.24598071300916
% es.EX (V/m) @ t=0.56
-9.582550255148023
% es.EY (V/m) @ t=0.56
-1.034364319011476
% es.EZ (V/m) @ t=0.56
12.830994193661093
% es.tEX (V/m) @ t=0.56
-9.582550255148021
% es.tEY (V/m) @ t=0.56
0
% es.tEZ (V/m) @ t=0.56
12.830994193661088
% es.Ex (V/m) @ t=0.56
-9.582550255148023
% es.Ey (V/m) @ t=0.56
-1.034364319011476
% es.Ez (V/m) @ t=0.56
12.830994193661093
% es.tEx (V/m) @ t=0.56
-9.582550255148021
% es.tEy (V/m) @ t=0.56
0
% es.tEz (V/m) @ t=0.56
12.830994193661088
% V (V) @ t=0.56
0.014163531093932763
% es.normE (V/m) @ t=0.58
17.4573389728617
% es.EX (V/m) @ t=0.58
-9.699991139460984
% es.EY (V/m) @ t=0.58
-1.0470396790994458
% es.EZ (V/m) @ t=0.58
12.988244025182171
% es.tEX (V/m) @ t=0.58
-9.699991139460996
% es.tEY (V/m) @ t=0.58
0
% es.tEZ (V/m) @ t=0.58
12.988244025182155
% es.Ex (V/m) @ t=0.58
-9.699991139460984
% es.Ey (V/m) @ t=0.58
-1.0470396790994458
% es.Ez (V/m) @ t=0.58
12.988244025182171
% es.tEx (V/m) @ t=0.58
-9.699991139460996
% es.tEy (V/m) @ t=0.58
0
% es.tEz (V/m) @ t=0.58
12.988244025182155
% V (V) @ t=0.58
0.01433711100504835
% es.normE (V/m) @ t=0.6
17.670497560387517
% es.EX (V/m) @ t=0.6
-9.818432978928149
% es.EY (V/m) @ t=0.6
-1.0598225837070343
% es.EZ (V/m) @ t=0.6
13.14683312328853
% es.tEX (V/m) @ t=0.6
-9.818432978928161
% es.tEY (V/m) @ t=0.6
0
% es.tEZ (V/m) @ t=0.6
13.14683312328851
% es.Ex (V/m) @ t=0.6
-9.818432978928149
% es.Ey (V/m) @ t=0.6
-1.0598225837070343
% es.Ez (V/m) @ t=0.6
13.14683312328853
% es.tEx (V/m) @ t=0.6
-9.818432978928161
% es.tEy (V/m) @ t=0.6
0
% es.tEz (V/m) @ t=0.6
13.14683312328851
% V (V) @ t=0.6
0.014512169009854522
% es.normE (V/m) @ t=0.62
17.88545647558719
% es.EX (V/m) @ t=0.62
-9.937875773549463
% es.EY (V/m) @ t=0.62
-1.0727130328343208
% es.EZ (V/m) @ t=0.62
13.306761487980236
% es.tEX (V/m) @ t=0.62
-9.93787577354949
% es.tEY (V/m) @ t=0.62
0
% es.tEZ (V/m) @ t=0.62
13.306761487980214
% es.Ex (V/m) @ t=0.62
-9.937875773549463
% es.Ey (V/m) @ t=0.62
-1.0727130328343208
% es.Ez (V/m) @ t=0.62
13.306761487980236
% es.tEx (V/m) @ t=0.62
-9.93787577354949
% es.tEy (V/m) @ t=0.62
0
% es.tEz (V/m) @ t=0.62
13.306761487980214
% V (V) @ t=0.62
0.014688705108351274
% es.normE (V/m) @ t=0.64
18.10221571846122
% es.EX (V/m) @ t=0.64
-10.058319523324903
% es.EY (V/m) @ t=0.64
-1.0857110264811771
% es.EZ (V/m) @ t=0.64
13.468029119257189
% es.tEX (V/m) @ t=0.64
-10.05831952332493
% es.tEY (V/m) @ t=0.64
0
% es.tEZ (V/m) @ t=0.64
13.468029119257158
% es.Ex (V/m) @ t=0.64
-10.058319523324903
% es.Ey (V/m) @ t=0.64
-1.0857110264811771
% es.Ez (V/m) @ t=0.64
13.468029119257189
% es.tEx (V/m) @ t=0.64
-10.05831952332493
% es.tEy (V/m) @ t=0.64
0
% es.tEz (V/m) @ t=0.64
13.468029119257158
% V (V) @ t=0.64
0.014866719300538619
% es.normE (V/m) @ t=0.66
18.320775289010463
% es.EX (V/m) @ t=0.66
-10.179764228254534
% es.EY (V/m) @ t=0.66
-1.098816564647624
% es.EZ (V/m) @ t=0.66
13.63063601711944
% es.tEX (V/m) @ t=0.66
-10.179764228254554
% es.tEY (V/m) @ t=0.66
0
% es.tEZ (V/m) @ t=0.66
13.630636017119421
% es.Ex (V/m) @ t=0.66
-10.179764228254534
% es.Ey (V/m) @ t=0.66
-1.098816564647624
% es.Ez (V/m) @ t=0.66
13.63063601711944
% es.tEx (V/m) @ t=0.66
-10.179764228254554
% es.tEy (V/m) @ t=0.66
0
% es.tEz (V/m) @ t=0.66
13.630636017119421
% V (V) @ t=0.66
0.015046211586416539
% es.normE (V/m) @ t=0.68
18.54113518723572
% es.EX (V/m) @ t=0.68
-10.302209888338263
% es.EY (V/m) @ t=0.68
-1.1120296473337432
% es.EZ (V/m) @ t=0.68
13.794582181566945
% es.tEX (V/m) @ t=0.68
-10.30220988833829
% es.tEY (V/m) @ t=0.68
0
% es.tEZ (V/m) @ t=0.68
13.794582181566929
% es.Ex (V/m) @ t=0.68
-10.302209888338263
% es.Ey (V/m) @ t=0.68
-1.1120296473337432
% es.Ez (V/m) @ t=0.68
13.794582181566945
% es.tEx (V/m) @ t=0.68
-10.30220988833829
% es.tEy (V/m) @ t=0.68
0
% es.tEz (V/m) @ t=0.68
13.794582181566929
% V (V) @ t=0.68
0.01522718196598505
% es.normE (V/m) @ t=0.7
18.76329541313805
% es.EX (V/m) @ t=0.7
-10.425656503576187
% es.EY (V/m) @ t=0.7
-1.1253502745394854
% es.EZ (V/m) @ t=0.7
13.959867612599815
% es.tEX (V/m) @ t=0.7
-10.425656503576198
% es.tEY (V/m) @ t=0.7
0
% es.tEZ (V/m) @ t=0.7
13.9598676125998
% es.Ex (V/m) @ t=0.7
-10.425656503576187
% es.Ey (V/m) @ t=0.7
-1.1253502745394854
% es.Ez (V/m) @ t=0.7
13.959867612599815
% es.tEx (V/m) @ t=0.7
-10.425656503576198
% es.tEy (V/m) @ t=0.7
0
% es.tEz (V/m) @ t=0.7
13.9598676125998
% V (V) @ t=0.7
0.01540963043924414
% es.normE (V/m) @ t=0.72
18.987255966718358
% es.EX (V/m) @ t=0.72
-10.550104073968265
% es.EY (V/m) @ t=0.72
-1.1387784462649333
% es.EZ (V/m) @ t=0.72
14.126492310217941
% es.tEX (V/m) @ t=0.72
-10.550104073968264
% es.tEY (V/m) @ t=0.72
0
% es.tEZ (V/m) @ t=0.72
14.126492310217918
% es.Ex (V/m) @ t=0.72
-10.550104073968265
% es.Ey (V/m) @ t=0.72
-1.1387784462649333
% es.Ez (V/m) @ t=0.72
14.126492310217941
% es.tEx (V/m) @ t=0.72
-10.550104073968264
% es.tEy (V/m) @ t=0.72
0
% es.tEz (V/m) @ t=0.72
14.126492310217918
% V (V) @ t=0.72
0.015593557006193824
% es.normE (V/m) @ t=0.74
19.213016847977755
% es.EX (V/m) @ t=0.74
-10.675552599514468
% es.EY (V/m) @ t=0.74
-1.1523141625098718
% es.EZ (V/m) @ t=0.74
14.294456274421348
% es.tEX (V/m) @ t=0.74
-10.67555259951448
% es.tEY (V/m) @ t=0.74
0
% es.tEZ (V/m) @ t=0.74
14.294456274421325
% es.Ex (V/m) @ t=0.74
-10.675552599514468
% es.Ey (V/m) @ t=0.74
-1.1523141625098718
% es.Ez (V/m) @ t=0.74
14.294456274421348
% es.tEx (V/m) @ t=0.74
-10.67555259951448
% es.tEy (V/m) @ t=0.74
0
% es.tEz (V/m) @ t=0.74
14.294456274421325
% V (V) @ t=0.74
0.015778961666834082
% es.normE (V/m) @ t=0.76
19.443921557810945
% es.EX (V/m) @ t=0.76
-10.803857328177598
% es.EY (V/m) @ t=0.76
-1.166159723239256
% es.EZ (V/m) @ t=0.76
14.46624778132486
% es.tEX (V/m) @ t=0.76
-10.803857328177624
% es.tEY (V/m) @ t=0.76
0
% es.tEZ (V/m) @ t=0.76
14.466247781324844
% es.Ex (V/m) @ t=0.76
-10.803857328177598
% es.Ey (V/m) @ t=0.76
-1.166159723239256
% es.Ez (V/m) @ t=0.76
14.46624778132486
% es.tEx (V/m) @ t=0.76
-10.803857328177624
% es.tEy (V/m) @ t=0.76
0
% es.tEz (V/m) @ t=0.76
14.466247781324844
% V (V) @ t=0.76
0.015968592169819423
% es.normE (V/m) @ t=0.78
19.677219290902737
% es.EX (V/m) @ t=0.78
-10.933491888015467
% es.EY (V/m) @ t=0.78
-1.1801486897901423
% es.EZ (V/m) @ t=0.78
14.63981964644304
% es.tEX (V/m) @ t=0.78
-10.933491888015501
% es.tEY (V/m) @ t=0.78
0
% es.tEZ (V/m) @ t=0.78
14.639819646443023
% es.Ex (V/m) @ t=0.78
-10.933491888015467
% es.Ey (V/m) @ t=0.78
-1.1801486897901423
% es.Ez (V/m) @ t=0.78
14.63981964644304
% es.tEx (V/m) @ t=0.78
-10.933491888015501
% es.tEy (V/m) @ t=0.78
0
% es.tEz (V/m) @ t=0.78
14.639819646443023
% V (V) @ t=0.78
0.016160187854292404
% es.normE (V/m) @ t=0.8
19.912832243312774
% es.EX (V/m) @ t=0.8
-11.064413107033555
% es.EY (V/m) @ t=0.8
-1.1942763546016568
% es.EZ (V/m) @ t=0.8
14.815113967088498
% es.tEX (V/m) @ t=0.8
-11.064413107033582
% es.tEY (V/m) @ t=0.8
0
% es.tEZ (V/m) @ t=0.8
14.815113967088479
% es.Ex (V/m) @ t=0.8
-11.064413107033555
% es.Ey (V/m) @ t=0.8
-1.1942763546016568
% es.Ez (V/m) @ t=0.8
14.815113967088498
% es.tEx (V/m) @ t=0.8
-11.064413107033582
% es.tEy (V/m) @ t=0.8
0
% es.tEz (V/m) @ t=0.8
14.815113967088479
% V (V) @ t=0.8
0.016353684779587183
% es.normE (V/m) @ t=0.82
20.15076041504126
% es.EX (V/m) @ t=0.82
-11.19662098523185
% es.EY (V/m) @ t=0.82
-1.2085427176737151
% es.EZ (V/m) @ t=0.82
14.992130743261152
% es.tEX (V/m) @ t=0.82
-11.196620985231862
% es.tEY (V/m) @ t=0.82
0
% es.tEZ (V/m) @ t=0.82
14.99213074326113
% es.Ex (V/m) @ t=0.82
-11.19662098523185
% es.Ey (V/m) @ t=0.82
-1.2085427176737151
% es.Ez (V/m) @ t=0.82
14.992130743261152
% es.tEx (V/m) @ t=0.82
-11.196620985231862
% es.tEy (V/m) @ t=0.82
0
% es.tEz (V/m) @ t=0.82
14.99213074326113
% V (V) @ t=0.82
0.016549082945703758
% es.normE (V/m) @ t=0.84
20.391003806088428
% es.EX (V/m) @ t=0.84
-11.330115522610273
% es.EY (V/m) @ t=0.84
-1.222947779006367
% es.EZ (V/m) @ t=0.84
15.170869974961057
% es.tEX (V/m) @ t=0.84
-11.3301155226103
% es.tEY (V/m) @ t=0.84
0
% es.tEZ (V/m) @ t=0.84
15.170869974961033
% es.Ex (V/m) @ t=0.84
-11.330115522610273
% es.Ey (V/m) @ t=0.84
-1.222947779006367
% es.Ez (V/m) @ t=0.84
15.170869974961057
% es.tEx (V/m) @ t=0.84
-11.3301155226103
% es.tEy (V/m) @ t=0.84
0
% es.tEz (V/m) @ t=0.84
15.170869974961033
% V (V) @ t=0.84
0.016746382352642135
% es.normE (V/m) @ t=0.86
20.633562416454552
% es.EX (V/m) @ t=0.86
-11.464896719168951
% es.EY (V/m) @ t=0.86
-1.2374915385995386
% es.EZ (V/m) @ t=0.86
15.35133166218815
% es.tEX (V/m) @ t=0.86
-11.464896719168957
% es.tEY (V/m) @ t=0.86
0
% es.tEZ (V/m) @ t=0.86
15.351331662188116
% es.Ex (V/m) @ t=0.86
-11.464896719168951
% es.Ey (V/m) @ t=0.86
-1.2374915385995386
% es.Ez (V/m) @ t=0.86
15.35133166218815
% es.tEx (V/m) @ t=0.86
-11.464896719168957
% es.tEy (V/m) @ t=0.86
0
% es.tEz (V/m) @ t=0.86
15.351331662188116
% V (V) @ t=0.86
0.016945583000402314
% es.normE (V/m) @ t=0.88
20.878436246140005
% es.EX (V/m) @ t=0.88
-11.600964574907785
% es.EY (V/m) @ t=0.88
-1.2521739964532417
% es.EZ (V/m) @ t=0.88
15.533515804942565
% es.tEX (V/m) @ t=0.88
-11.600964574907797
% es.tEY (V/m) @ t=0.88
0
% es.tEZ (V/m) @ t=0.88
15.533515804942544
% es.Ex (V/m) @ t=0.88
-11.600964574907785
% es.Ey (V/m) @ t=0.88
-1.2521739964532417
% es.Ez (V/m) @ t=0.88
15.533515804942565
% es.tEx (V/m) @ t=0.88
-11.600964574907797
% es.tEy (V/m) @ t=0.88
0
% es.tEz (V/m) @ t=0.88
15.533515804942544
% V (V) @ t=0.88
0.017146684888984284
% es.normE (V/m) @ t=0.9
21.125625295144935
% es.EX (V/m) @ t=0.9
-11.738319089826819
% es.EY (V/m) @ t=0.9
-1.2669951525675747
% es.EZ (V/m) @ t=0.9
15.717422403224177
% es.tEX (V/m) @ t=0.9
-11.738319089826831
% es.tEY (V/m) @ t=0.9
0
% es.tEZ (V/m) @ t=0.9
15.717422403224155
% es.Ex (V/m) @ t=0.9
-11.738319089826819
% es.Ey (V/m) @ t=0.9
-1.2669951525675747
% es.Ez (V/m) @ t=0.9
15.717422403224177
% es.tEx (V/m) @ t=0.9
-11.738319089826831
% es.tEy (V/m) @ t=0.9
0
% es.tEz (V/m) @ t=0.9
15.717422403224155
% V (V) @ t=0.9
0.01734968801838805
% es.normE (V/m) @ t=0.92
21.3751295634696
% es.EX (V/m) @ t=0.92
-11.876960263926009
% es.EY (V/m) @ t=0.92
-1.2819550069424146
% es.EZ (V/m) @ t=0.92
15.903051457032998
% es.tEX (V/m) @ t=0.92
-11.876960263926048
% es.tEY (V/m) @ t=0.92
0
% es.tEZ (V/m) @ t=0.92
15.90305145703298
% es.Ex (V/m) @ t=0.92
-11.876960263926009
% es.Ey (V/m) @ t=0.92
-1.2819550069424146
% es.Ez (V/m) @ t=0.92
15.903051457032998
% es.tEx (V/m) @ t=0.92
-11.876960263926048
% es.tEy (V/m) @ t=0.92
0
% es.tEz (V/m) @ t=0.92
15.90305145703298
% V (V) @ t=0.92
0.017554592388613618
% es.normE (V/m) @ t=0.94
21.626949051114373
% es.EX (V/m) @ t=0.94
-12.016888097205404
% es.EY (V/m) @ t=0.94
-1.2970535595778152
% es.EZ (V/m) @ t=0.94
16.090402966369094
% es.tEX (V/m) @ t=0.94
-12.016888097205422
% es.tEY (V/m) @ t=0.94
0
% es.tEZ (V/m) @ t=0.94
16.09040296636909
% es.Ex (V/m) @ t=0.94
-12.016888097205404
% es.Ey (V/m) @ t=0.94
-1.2970535595778152
% es.Ez (V/m) @ t=0.94
16.090402966369094
% es.tEx (V/m) @ t=0.94
-12.016888097205422
% es.tEy (V/m) @ t=0.94
0
% es.tEz (V/m) @ t=0.94
16.09040296636909
% V (V) @ t=0.94
0.017761397999660984
% es.normE (V/m) @ t=0.96
21.881083758079434
% es.EX (V/m) @ t=0.96
-12.158102589665004
% es.EY (V/m) @ t=0.96
-1.312290810473792
% es.EZ (V/m) @ t=0.96
16.279476931232374
% es.tEX (V/m) @ t=0.96
-12.158102589665024
% es.tEY (V/m) @ t=0.96
0
% es.tEZ (V/m) @ t=0.96
16.279476931232367
% es.Ex (V/m) @ t=0.96
-12.158102589665004
% es.Ey (V/m) @ t=0.96
-1.312290810473792
% es.Ez (V/m) @ t=0.96
16.279476931232374
% es.tEx (V/m) @ t=0.96
-12.158102589665024
% es.tEy (V/m) @ t=0.96
0
% es.tEz (V/m) @ t=0.96
16.279476931232367
% V (V) @ t=0.96
0.017970104851530146
% es.normE (V/m) @ t=0.98
22.1375336843651
% es.EX (V/m) @ t=0.98
-12.300603741304789
% es.EY (V/m) @ t=0.98
-1.3276667596302794
% es.EZ (V/m) @ t=0.98
16.47027335162295
% es.tEX (V/m) @ t=0.98
-12.300603741304801
% es.tEY (V/m) @ t=0.98
0
% es.tEZ (V/m) @ t=0.98
16.47027335162292
% es.Ex (V/m) @ t=0.98
-12.300603741304789
% es.Ey (V/m) @ t=0.98
-1.3276667596302794
% es.Ez (V/m) @ t=0.98
16.47027335162295
% es.tEx (V/m) @ t=0.98
-12.300603741304801
% es.tEy (V/m) @ t=0.98
0
% es.tEz (V/m) @ t=0.98
16.47027335162292
% V (V) @ t=0.98
0.0181807129442211
% es.normE (V/m) @ t=1
22.397451240085832
% es.EX (V/m) @ t=1
-12.445029831480253
% es.EY (V/m) @ t=1
-1.3432519563618546
% es.EZ (V/m) @ t=1
16.66365020031747
% es.tEX (V/m) @ t=1
-12.445029831480287
% es.tEY (V/m) @ t=1
0
% es.tEZ (V/m) @ t=1
16.66365020031743
% es.Ex (V/m) @ t=1
-12.445029831480253
% es.Ey (V/m) @ t=1
-1.3432519563618546
% es.Ez (V/m) @ t=1
16.66365020031747
% es.tEx (V/m) @ t=1
-12.445029831480287
% es.tEy (V/m) @ t=1
0
% es.tEz (V/m) @ t=1
16.66365020031743
% V (V) @ t=1
0.018394170207428742
% es.normE (V/m) @ t=1.02
22.66056910250898
% es.EX (V/m) @ t=1.02
-12.591232799550536
% es.EY (V/m) @ t=1.02
-1.3590300354568887
% es.EZ (V/m) @ t=1.02
16.85940845474369
% es.tEX (V/m) @ t=1.02
-12.591232799550562
% es.tEY (V/m) @ t=1.02
0
% es.tEZ (V/m) @ t=1.02
16.85940845474368
% es.Ex (V/m) @ t=1.02
-12.591232799550536
% es.Ey (V/m) @ t=1.02
-1.3590300354568887
% es.Ez (V/m) @ t=1.02
16.85940845474369
% es.tEx (V/m) @ t=1.02
-12.591232799550562
% es.tEy (V/m) @ t=1.02
0
% es.tEz (V/m) @ t=1.02
16.85940845474368
% V (V) @ t=1.02
0.01861025675141838
% es.normE (V/m) @ t=1.04
22.92628105639264
% es.EX (V/m) @ t=1.04
-12.738876884254339
% es.EY (V/m) @ t=1.04
-1.3749638850667023
% es.EZ (V/m) @ t=1.04
17.057096785841445
% es.tEX (V/m) @ t=1.04
-12.738876884254363
% es.tEY (V/m) @ t=1.04
0
% es.tEZ (V/m) @ t=1.04
17.057096785841424
% es.Ex (V/m) @ t=1.04
-12.738876884254339
% es.Ey (V/m) @ t=1.04
-1.3749638850667023