% Model:              1 neuron.mph
% Version:            COMSOL 6.0.0.405
% Date:               Mar 16 2023, 19:58
% Dimension:          0
% Nodes:              14017
% Expressions:        14017
% Description:        Electric field norm, Electric field, X component, Electric field, Y component, Electric field, Z component, Tangential electric field, X component, Tangential electric field, Y component, Tangential electric field, Z component, Electric field, x component, Electric field, y component, Electric field, z component, Tangential electric field, x component, Tangential electric field, y component, Tangential electric field, z component, Electric potential
% Length unit:        mm
% x
2
% y
12.2
% z
1
% es.normE (V/m) @ t=0
1.4463197661284033
% es.EX (V/m) @ t=0
-0.9340133655458724
% es.EY (V/m) @ t=0
0.20751569894994237
% es.EZ (V/m) @ t=0
1.065206833413047
% es.tEX (V/m) @ t=0
-0.934013365545876
% es.tEY (V/m) @ t=0
0
% es.tEZ (V/m) @ t=0
1.0652068334130549
% es.Ex (V/m) @ t=0
-0.9340133655458724
% es.Ey (V/m) @ t=0
0.20751569894994237
% es.Ez (V/m) @ t=0
1.065206833413047
% es.tEx (V/m) @ t=0
-0.934013365545876
% es.tEy (V/m) @ t=0
0
% es.tEz (V/m) @ t=0
1.0652068334130549
% V (V) @ t=0
0.013997544803431778
% es.normE (V/m) @ t=0.02
1.2533900848616286
% es.EX (V/m) @ t=0.02
-0.8094220377798003
% es.EY (V/m) @ t=0.02
0.17983445150301958
% es.EZ (V/m) @ t=0.02
0.9231151457727709
% es.tEX (V/m) @ t=0.02
-0.8094220377798012
% es.tEY (V/m) @ t=0.02
0
% es.tEZ (V/m) @ t=0.02
0.9231151457727931
% es.Ex (V/m) @ t=0.02
-0.8094220377798003
% es.Ey (V/m) @ t=0.02
0.17983445150301958
% es.Ez (V/m) @ t=0.02
0.9231151457727709
% es.tEx (V/m) @ t=0.02
-0.8094220377798012
% es.tEy (V/m) @ t=0.02
0
% es.tEz (V/m) @ t=0.02
0.9231151457727931
% V (V) @ t=0.02
0.012130362992436042
% es.normE (V/m) @ t=0.04
1.2691876056294413
% es.EX (V/m) @ t=0.04
-0.8196238595271303
% es.EY (V/m) @ t=0.04
0.18210105672183996
% es.EZ (V/m) @ t=0.04
0.9347499348761996
% es.tEX (V/m) @ t=0.04
-0.8196238595271312
% es.tEY (V/m) @ t=0.04
0
% es.tEZ (V/m) @ t=0.04
0.9347499348761934
% es.Ex (V/m) @ t=0.04
-0.8196238595271303
% es.Ey (V/m) @ t=0.04
0.18210105672183996
% es.Ez (V/m) @ t=0.04
0.9347499348761996
% es.tEx (V/m) @ t=0.04
-0.8196238595271312
% es.tEy (V/m) @ t=0.04
0
% es.tEz (V/m) @ t=0.04
0.9347499348761934
% V (V) @ t=0.04
0.01228325200731379
% es.normE (V/m) @ t=0.06
1.2851309621945186
% es.EX (V/m) @ t=0.06
-0.8299198600441415
% es.EY (V/m) @ t=0.06
0.18438858642482747
% es.EZ (V/m) @ t=0.06
0.9464921311787551
% es.tEX (V/m) @ t=0.06
-0.8299198600441384
% es.tEY (V/m) @ t=0.06
0
% es.tEZ (V/m) @ t=0.06
0.9464921311787631
% es.Ex (V/m) @ t=0.06
-0.8299198600441415
% es.Ey (V/m) @ t=0.06
0.18438858642482747
% es.Ez (V/m) @ t=0.06
0.9464921311787551
% es.tEx (V/m) @ t=0.06
-0.8299198600441384
% es.tEy (V/m) @ t=0.06
0
% es.tEz (V/m) @ t=0.06
0.9464921311787631
% V (V) @ t=0.06
0.01243755241742021
% es.normE (V/m) @ t=0.08
1.3015772955205618
% es.EX (V/m) @ t=0.08
-0.8405406761254675
% es.EY (V/m) @ t=0.08
0.1867482828170588
% es.EZ (V/m) @ t=0.08
0.9586047670543012
% es.tEX (V/m) @ t=0.08
-0.8405406761254683
% es.tEY (V/m) @ t=0.08
0
% es.tEZ (V/m) @ t=0.08
0.9586047670543083
% es.Ex (V/m) @ t=0.08
-0.8405406761254675
% es.Ey (V/m) @ t=0.08
0.1867482828170588
% es.Ez (V/m) @ t=0.08
0.9586047670543012
% es.tEx (V/m) @ t=0.08
-0.8405406761254683
% es.tEy (V/m) @ t=0.08
0
% es.tEz (V/m) @ t=0.08
0.9586047670543083
% V (V) @ t=0.08
0.01259672075693136
% es.normE (V/m) @ t=0.1
1.318071591045873
% es.EX (V/m) @ t=0.1
-0.8511924655439942
% es.EY (V/m) @ t=0.1
0.18911486078592454
% es.EZ (V/m) @ t=0.1
0.9707527268215186
% es.tEX (V/m) @ t=0.1
-0.8511924655439915
% es.tEY (V/m) @ t=0.1
0
% es.tEZ (V/m) @ t=0.1
0.9707527268215301
% es.Ex (V/m) @ t=0.1
-0.8511924655439942
% es.Ey (V/m) @ t=0.1
0.18911486078592454
% es.Ez (V/m) @ t=0.1
0.9707527268215186
% es.tEx (V/m) @ t=0.1
-0.8511924655439915
% es.tEy (V/m) @ t=0.1
0
% es.tEz (V/m) @ t=0.1
0.9707527268215301
% V (V) @ t=0.1
0.012756353286079457
% es.normE (V/m) @ t=0.12
1.3345658865711854
% es.EX (V/m) @ t=0.12
-0.8618442549625143
% es.EY (V/m) @ t=0.12
0.19148143875481516
% es.EZ (V/m) @ t=0.12
0.982900686588736
% es.tEX (V/m) @ t=0.12
-0.8618442549625112
% es.tEY (V/m) @ t=0.12
0
% es.tEZ (V/m) @ t=0.12
0.982900686588744
% es.Ex (V/m) @ t=0.12
-0.8618442549625143
% es.Ey (V/m) @ t=0.12
0.19148143875481516
% es.Ez (V/m) @ t=0.12
0.982900686588736
% es.tEx (V/m) @ t=0.12
-0.8618442549625112
% es.tEy (V/m) @ t=0.12
0
% es.tEz (V/m) @ t=0.12
0.982900686588744
% V (V) @ t=0.12
0.012915985815227553
% es.normE (V/m) @ t=0.14
1.3520446868265195
% es.EX (V/m) @ t=0.14
-0.8731318239295609
% es.EY (V/m) @ t=0.14
0.19398927169091273
% es.EZ (V/m) @ t=0.14
0.9957737288700246
% es.tEX (V/m) @ t=0.14
-0.8731318239295613
% es.tEY (V/m) @ t=0.14
0
% es.tEZ (V/m) @ t=0.14
0.995773728870029
% es.Ex (V/m) @ t=0.14
-0.8731318239295609
% es.Ey (V/m) @ t=0.14
0.19398927169091273
% es.Ez (V/m) @ t=0.14
0.9957737288700246
% es.tEx (V/m) @ t=0.14
-0.8731318239295613
% es.tEy (V/m) @ t=0.14
0
% es.tEz (V/m) @ t=0.14
0.995773728870029
% V (V) @ t=0.14
0.013085146262791576
% es.normE (V/m) @ t=0.16
1.369718161360732
% es.EX (V/m) @ t=0.16
-0.884545110855457
% es.EY (V/m) @ t=0.16
0.19652503614225159
% es.EZ (V/m) @ t=0.16
1.0087901477255992
% es.tEX (V/m) @ t=0.16
-0.8845451108554574
% es.tEY (V/m) @ t=0.16
0
% es.tEZ (V/m) @ t=0.16
1.0087901477256107
% es.Ex (V/m) @ t=0.16
-0.884545110855457
% es.Ey (V/m) @ t=0.16
0.19652503614225159
% es.Ez (V/m) @ t=0.16
1.0087901477255992
% es.tEx (V/m) @ t=0.16
-0.8845451108554574
% es.tEy (V/m) @ t=0.16
0
% es.tEz (V/m) @ t=0.16
1.0087901477256107
% V (V) @ t=0.16
0.013256190744622047
% es.normE (V/m) @ t=0.18
1.3873916358949383
% es.EX (V/m) @ t=0.18
-0.8959583977813499
% es.EY (V/m) @ t=0.18
0.1990608005936101
% es.EZ (V/m) @ t=0.18
1.021806566581163
% es.tEX (V/m) @ t=0.18
-0.8959583977813534
% es.tEY (V/m) @ t=0.18
0
% es.tEZ (V/m) @ t=0.18
1.021806566581164
% es.Ex (V/m) @ t=0.18
-0.8959583977813499
% es.Ey (V/m) @ t=0.18
0.1990608005936101
% es.Ez (V/m) @ t=0.18
1.021806566581163
% es.tEx (V/m) @ t=0.18
-0.8959583977813534
% es.tEy (V/m) @ t=0.18
0
% es.tEz (V/m) @ t=0.18
1.021806566581164
% V (V) @ t=0.18
0.013427235226452517
% es.normE (V/m) @ t=0.2
1.4050651104291438
% es.EX (V/m) @ t=0.2
-0.9073716847072455
% es.EY (V/m) @ t=0.2
0.2015965650449525
% es.EZ (V/m) @ t=0.2
1.0348229854367244
% es.tEX (V/m) @ t=0.2
-0.9073716847072459
% es.tEY (V/m) @ t=0.2
0
% es.tEZ (V/m) @ t=0.2
1.0348229854367323
% es.Ex (V/m) @ t=0.2
-0.9073716847072455
% es.Ey (V/m) @ t=0.2
0.2015965650449525
% es.Ez (V/m) @ t=0.2
1.0348229854367244
% es.tEx (V/m) @ t=0.2
-0.9073716847072459
% es.tEy (V/m) @ t=0.2
0
% es.tEz (V/m) @ t=0.2
1.0348229854367323
% V (V) @ t=0.2
0.013598279708282989
% es.normE (V/m) @ t=0.22
1.4227385849633645
% es.EX (V/m) @ t=0.22
-0.9187849716331447
% es.EY (V/m) @ t=0.22
0.20413232949631632
% es.EZ (V/m) @ t=0.22
1.047839404292299
% es.tEX (V/m) @ t=0.22
-0.9187849716331451
% es.tEY (V/m) @ t=0.22
0
% es.tEZ (V/m) @ t=0.22
1.047839404292307
% es.Ex (V/m) @ t=0.22
-0.9187849716331447
% es.Ey (V/m) @ t=0.22
0.20413232949631632
% es.Ez (V/m) @ t=0.22
1.047839404292299
% es.tEx (V/m) @ t=0.22
-0.9187849716331451
% es.tEy (V/m) @ t=0.22
0
% es.tEz (V/m) @ t=0.22
1.047839404292307
% V (V) @ t=0.22
0.013769324190113457
% es.normE (V/m) @ t=0.24
1.440412059497576
% es.EX (V/m) @ t=0.24
-0.9301982585590332
% es.EY (V/m) @ t=0.24
0.2066680939476765
% es.EZ (V/m) @ t=0.24
1.0608558231478717
% es.tEX (V/m) @ t=0.24
-0.9301982585590367
% es.tEY (V/m) @ t=0.24
0
% es.tEZ (V/m) @ t=0.24
1.0608558231478833
% es.Ex (V/m) @ t=0.24
-0.9301982585590332
% es.Ey (V/m) @ t=0.24
0.2066680939476765
% es.Ez (V/m) @ t=0.24
1.0608558231478717
% es.tEx (V/m) @ t=0.24
-0.9301982585590367
% es.tEy (V/m) @ t=0.24
0
% es.tEz (V/m) @ t=0.24
1.0608558231478833
% V (V) @ t=0.24
0.01394036867194393
% es.normE (V/m) @ t=0.26
1.4589410179179745
% es.EX (V/m) @ t=0.26
-0.9421640052784963
% es.EY (V/m) @ t=0.26
0.2093266021242598
% es.EZ (V/m) @ t=0.26
1.0745023012108232
% es.tEX (V/m) @ t=0.26
-0.9421640052784963
% es.tEY (V/m) @ t=0.26
0
% es.tEZ (V/m) @ t=0.26
1.0745023012108383
% es.Ex (V/m) @ t=0.26
-0.9421640052784963
% es.Ey (V/m) @ t=0.26
0.2093266021242598
% es.Ez (V/m) @ t=0.26
1.0745023012108232
% es.tEx (V/m) @ t=0.26
-0.9421640052784963
% es.tEy (V/m) @ t=0.26
0
% es.tEz (V/m) @ t=0.26
1.0745023012108383
% V (V) @ t=0.26
0.01411969260654991
% es.normE (V/m) @ t=0.28
1.4778747224458106
% es.EX (V/m) @ t=0.28
-0.9543911314985869
% es.EY (V/m) @ t=0.28
0.21204318275063228
% es.EZ (V/m) @ t=0.28
1.0884468725701533
% es.tEX (V/m) @ t=0.28
-0.9543911314985838
% es.tEY (V/m) @ t=0.28
0
% es.tEZ (V/m) @ t=0.28
1.0884468725701684
% es.Ex (V/m) @ t=0.28
-0.9543911314985869
% es.Ey (V/m) @ t=0.28
0.21204318275063228
% es.Ez (V/m) @ t=0.28
1.0884468725701533
% es.tEx (V/m) @ t=0.28
-0.9543911314985838
% es.tEy (V/m) @ t=0.28
0
% es.tEz (V/m) @ t=0.28
1.0884468725701684
% V (V) @ t=0.28
0.014302933711703342
% es.normE (V/m) @ t=0.3
1.4968084269736557
% es.EX (V/m) @ t=0.3
-0.9666182577186717
% es.EY (V/m) @ t=0.3
0.214759763376987
% es.EZ (V/m) @ t=0.3
1.1023914439295046
% es.tEX (V/m) @ t=0.3
-0.9666182577186717
% es.tEY (V/m) @ t=0.3
0
% es.tEZ (V/m) @ t=0.3
1.1023914439295197
% es.Ex (V/m) @ t=0.3
-0.9666182577186717
% es.Ey (V/m) @ t=0.3
0.214759763376987
% es.Ez (V/m) @ t=0.3
1.1023914439295046
% es.tEx (V/m) @ t=0.3
-0.9666182577186717
% es.tEy (V/m) @ t=0.3
0
% es.tEz (V/m) @ t=0.3
1.1023914439295197
% V (V) @ t=0.3
0.014486174816856772
% es.normE (V/m) @ t=0.32
1.5157421315015087
% es.EX (V/m) @ t=0.32
-0.9788453839387548
% es.EY (V/m) @ t=0.32
0.21747634400335414
% es.EZ (V/m) @ t=0.32
1.116336015288864
% es.tEX (V/m) @ t=0.32
-0.9788453839387512
% es.tEY (V/m) @ t=0.32
0
% es.tEZ (V/m) @ t=0.32
1.116336015288879
% es.Ex (V/m) @ t=0.32
-0.9788453839387548
% es.Ey (V/m) @ t=0.32
0.21747634400335414
% es.Ez (V/m) @ t=0.32
1.116336015288864
% es.tEx (V/m) @ t=0.32
-0.9788453839387512
% es.tEy (V/m) @ t=0.32
0
% es.tEz (V/m) @ t=0.32
1.116336015288879
% V (V) @ t=0.32
0.014669415922010208
% es.normE (V/m) @ t=0.34
1.5346758360293542
% es.EX (V/m) @ t=0.34
-0.9910725101588431
% es.EY (V/m) @ t=0.34
0.2201929246297215
% es.EZ (V/m) @ t=0.34
1.1302805866482108
% es.tEX (V/m) @ t=0.34
-0.99107251015884
% es.tEY (V/m) @ t=0.34
0
% es.tEZ (V/m) @ t=0.34
1.1302805866482224
% es.Ex (V/m) @ t=0.34
-0.9910725101588431
% es.Ey (V/m) @ t=0.34
0.2201929246297215
% es.Ez (V/m) @ t=0.34
1.1302805866482108
% es.tEx (V/m) @ t=0.34
-0.99107251015884
% es.tEy (V/m) @ t=0.34
0
% es.tEz (V/m) @ t=0.34
1.1302805866482224
% V (V) @ t=0.34
0.014852657027163638
% es.normE (V/m) @ t=0.36
1.5536095405572028
% es.EX (V/m) @ t=0.36
-1.003299636378927
% es.EY (V/m) @ t=0.36
0.22290950525607622
% es.EZ (V/m) @ t=0.36
1.1442251580075666
% es.tEX (V/m) @ t=0.36
-1.003299636378927
% es.tEY (V/m) @ t=0.36
0
% es.tEZ (V/m) @ t=0.36
1.1442251580075817
% es.Ex (V/m) @ t=0.36
-1.003299636378927
% es.Ey (V/m) @ t=0.36
0.22290950525607622
% es.Ez (V/m) @ t=0.36
1.1442251580075666
% es.tEx (V/m) @ t=0.36
-1.003299636378927
% es.tEy (V/m) @ t=0.36
0
% es.tEz (V/m) @ t=0.36
1.1442251580075817
% V (V) @ t=0.36
0.01503589813231707
% es.normE (V/m) @ t=0.38
1.5732458058591363
% es.EX (V/m) @ t=0.38
-1.0159804667160586
% es.EY (V/m) @ t=0.38
0.22572688836949228
% es.EZ (V/m) @ t=0.38
1.1586871615422565
% es.tEX (V/m) @ t=0.38
-1.0159804667160586
% es.tEY (V/m) @ t=0.38
0
% es.tEZ (V/m) @ t=0.38
1.1586871615422574
% es.Ex (V/m) @ t=0.38
-1.0159804667160586
% es.Ey (V/m) @ t=0.38
0.22572688836949228
% es.Ez (V/m) @ t=0.38
1.1586871615422565
% es.tEx (V/m) @ t=0.38
-1.0159804667160586
% es.tEy (V/m) @ t=0.38
0
% es.tEz (V/m) @ t=0.38
1.1586871615422574
% V (V) @ t=0.38
0.015225938643004106
% es.normE (V/m) @ t=0.4
1.593523465380522
% es.EX (V/m) @ t=0.4
-1.029075500647739
% es.EY (V/m) @ t=0.4
0.2286362978739207
% es.EZ (V/m) @ t=0.4
1.1736215484186516
% es.tEX (V/m) @ t=0.4
-1.029075500647739
% es.tEY (V/m) @ t=0.4
0
% es.tEZ (V/m) @ t=0.4
1.1736215484186632
% es.Ex (V/m) @ t=0.4
-1.029075500647739
% es.Ey (V/m) @ t=0.4
0.2286362978739207
% es.Ez (V/m) @ t=0.4
1.1736215484186516
% es.tEx (V/m) @ t=0.4
-1.029075500647739
% es.tEy (V/m) @ t=0.4
0
% es.tEz (V/m) @ t=0.4
1.1736215484186632
% V (V) @ t=0.4
0.0154221865873622
% es.normE (V/m) @ t=0.42
1.613801124901912
% es.EX (V/m) @ t=0.42
-1.0421705345794199
% es.EY (V/m) @ t=0.42
0.23154570737834201
% es.EZ (V/m) @ t=0.42
1.1885559352950539
% es.tEX (V/m) @ t=0.42
-1.0421705345794163
% es.tEY (V/m) @ t=0.42
0
% es.tEZ (V/m) @ t=0.42
1.188555935295069
% es.Ex (V/m) @ t=0.42
-1.0421705345794199
% es.Ey (V/m) @ t=0.42
0.23154570737834201
% es.Ez (V/m) @ t=0.42
1.1885559352950539
% es.tEx (V/m) @ t=0.42
-1.0421705345794163
% es.tEy (V/m) @ t=0.42
0
% es.tEz (V/m) @ t=0.42
1.188555935295069
% V (V) @ t=0.42
0.015618434531720293
% es.normE (V/m) @ t=0.44
1.6340787844232998
% es.EX (V/m) @ t=0.44
-1.0552655685110968
% es.EY (V/m) @ t=0.44
0.2344551168827793
% es.EZ (V/m) @ t=0.44
1.2034903221714526
% es.tEX (V/m) @ t=0.44
-1.0552655685110968
% es.tEY (V/m) @ t=0.44
0
% es.tEZ (V/m) @ t=0.44
1.2034903221714677
% es.Ex (V/m) @ t=0.44
-1.0552655685110968
% es.Ey (V/m) @ t=0.44
0.2344551168827793
% es.Ez (V/m) @ t=0.44
1.2034903221714526
% es.tEx (V/m) @ t=0.44
-1.0552655685110968
% es.tEy (V/m) @ t=0.44
0
% es.tEz (V/m) @ t=0.44
1.2034903221714677
% V (V) @ t=0.44
0.015814682476078385
% es.normE (V/m) @ t=0.46
1.654356443944704
% es.EX (V/m) @ t=0.46
-1.0683606024427776
% es.EY (V/m) @ t=0.46
0.23736452638722016
% es.EZ (V/m) @ t=0.46
1.2184247090478726
% es.tEX (V/m) @ t=0.46
-1.0683606024427772
% es.tEY (V/m) @ t=0.46
0
% es.tEZ (V/m) @ t=0.46
1.2184247090478735
% es.Ex (V/m) @ t=0.46
-1.0683606024427776
% es.Ey (V/m) @ t=0.46
0.23736452638722016
% es.Ez (V/m) @ t=0.46
1.2184247090478726
% es.tEx (V/m) @ t=0.46
-1.0683606024427772
% es.tEy (V/m) @ t=0.46
0
% es.tEz (V/m) @ t=0.46
1.2184247090478735
% V (V) @ t=0.46
0.016010930420436473
% es.normE (V/m) @ t=0.48
1.6746341034660968
% es.EX (V/m) @ t=0.48
-1.0814556363744616
% es.EY (V/m) @ t=0.48
0.24027393589162904
% es.EZ (V/m) @ t=0.48
1.2333590959242784
% es.tEX (V/m) @ t=0.48
-1.0814556363744616
% es.tEY (V/m) @ t=0.48
0
% es.tEZ (V/m) @ t=0.48
1.2333590959242873
% es.Ex (V/m) @ t=0.48
-1.0814556363744616
% es.Ey (V/m) @ t=0.48
0.24027393589162904
% es.Ez (V/m) @ t=0.48
1.2333590959242784
% es.tEx (V/m) @ t=0.48
-1.0814556363744616
% es.tEy (V/m) @ t=0.48
0
% es.tEz (V/m) @ t=0.48
1.2333590959242873
% V (V) @ t=0.48
0.016207178364794565
% es.normE (V/m) @ t=0.5
1.6951313058240887
% es.EX (V/m) @ t=0.5
-1.0946924480572533
% es.EY (V/m) @ t=0.5
0.2432148450458792
% es.EZ (V/m) @ t=0.5
1.2484551749314683
% es.tEX (V/m) @ t=0.5
-1.0946924480572533
% es.tEY (V/m) @ t=0.5
0
% es.tEZ (V/m) @ t=0.5
1.2484551749314683
% es.Ex (V/m) @ t=0.5
-1.0946924480572533
% es.Ey (V/m) @ t=0.5
0.2432148450458792
% es.Ez (V/m) @ t=0.5
1.2484551749314683
% es.tEx (V/m) @ t=0.5
-1.0946924480572533
% es.tEy (V/m) @ t=0.5
0
% es.tEz (V/m) @ t=0.5
1.2484551749314683
% V (V) @ t=0.5
0.01640555106114743
% es.normE (V/m) @ t=0.52
1.7161331444161658
% es.EX (V/m) @ t=0.52
-1.1082551468950137
% es.EY (V/m) @ t=0.52
0.24622815858773783
% es.EZ (V/m) @ t=0.52
1.2639229158394585
% es.tEX (V/m) @ t=0.52
-1.1082551468950097
% es.tEY (V/m) @ t=0.52
0
% es.tEZ (V/m) @ t=0.52
1.263922915839478
% es.Ex (V/m) @ t=0.52
-1.1082551468950137
% es.Ey (V/m) @ t=0.52
0.24622815858773783
% es.Ez (V/m) @ t=0.52
1.2639229158394585
% es.tEx (V/m) @ t=0.52
-1.1082551468950097
% es.tEy (V/m) @ t=0.52
0
% es.tEz (V/m) @ t=0.52
1.263922915839478
% V (V) @ t=0.52
0.01660880766472217
% es.normE (V/m) @ t=0.54
1.7373185649477618
% es.EX (V/m) @ t=0.54
-1.1219364004300303
% es.EY (V/m) @ t=0.54
0.24926781216823002
% es.EZ (V/m) @ t=0.54
1.2795258638689315
% es.tEX (V/m) @ t=0.54
-1.1219364004300267
% es.tEY (V/m) @ t=0.54
0
% es.tEZ (V/m) @ t=0.54
1.2795258638689386
% es.Ex (V/m) @ t=0.54
-1.1219364004300303
% es.Ey (V/m) @ t=0.54
0.24926781216823002
% es.Ez (V/m) @ t=0.54
1.2795258638689315
% es.tEx (V/m) @ t=0.54
-1.1219364004300267
% es.tEy (V/m) @ t=0.54
0
% es.tEz (V/m) @ t=0.54
1.2795258638689386
% V (V) @ t=0.54
0.01681384098803971
% es.normE (V/m) @ t=0.56
1.7586875674188258
% es.EX (V/m) @ t=0.56
-1.1357362086623062
% es.EY (V/m) @ t=0.56
0.2523338057873996
% es.EZ (V/m) @ t=0.56
1.2952640190198021
% es.tEX (V/m) @ t=0.56
-1.1357362086623022
% es.tEY (V/m) @ t=0.56
0
% es.tEZ (V/m) @ t=0.56
1.2952640190198128
% es.Ex (V/m) @ t=0.56
-1.1357362086623062
% es.Ey (V/m) @ t=0.56
0.2523338057873996
% es.Ez (V/m) @ t=0.56
1.2952640190198021
% es.tEx (V/m) @ t=0.56
-1.1357362086623022
% es.tEy (V/m) @ t=0.56
0
% es.tEz (V/m) @ t=0.56
1.2952640190198128
% V (V) @ t=0.56
0.01702065103110004
% es.normE (V/m) @ t=0.58
1.7802401518293802
% es.EX (V/m) @ t=0.58
-1.1496545715918285
% es.EY (V/m) @ t=0.58
0.2554261394452151
% es.EZ (V/m) @ t=0.58
1.311137381292136
% es.tEX (V/m) @ t=0.58
-1.1496545715918316
% es.tEY (V/m) @ t=0.58
0
% es.tEZ (V/m) @ t=0.58
1.3111373812921485
% es.Ex (V/m) @ t=0.58
-1.1496545715918285
% es.Ey (V/m) @ t=0.58
0.2554261394452151
% es.Ez (V/m) @ t=0.58
1.311137381292136
% es.tEx (V/m) @ t=0.58
-1.1496545715918316
% es.tEy (V/m) @ t=0.58
0
% es.tEz (V/m) @ t=0.58
1.3111373812921485
% V (V) @ t=0.58
0.017229237793903174
% es.normE (V/m) @ t=0.6
1.8019763181794697
% es.EX (V/m) @ t=0.6
-1.1636914892186376
% es.EY (V/m) @ t=0.6
0.25854481314169564
% es.EZ (V/m) @ t=0.6
1.3271459506859369
% es.tEX (V/m) @ t=0.6
-1.1636914892186336
% es.tEY (V/m) @ t=0.6
0
% es.tEZ (V/m) @ t=0.6
1.3271459506859458
% es.Ex (V/m) @ t=0.6
-1.1636914892186376
% es.Ey (V/m) @ t=0.6
0.25854481314169564
% es.Ez (V/m) @ t=0.6
1.3271459506859369
% es.tEx (V/m) @ t=0.6
-1.1636914892186336
% es.tEy (V/m) @ t=0.6
0
% es.tEz (V/m) @ t=0.6
1.3271459506859458
% V (V) @ t=0.6
0.0174396012764491
% es.normE (V/m) @ t=0.62
1.8238960664689934
% es.EX (V/m) @ t=0.62
-1.1778469615426732
% es.EY (V/m) @ t=0.62
0.26168982687680964
% es.EZ (V/m) @ t=0.62
1.3432897272011441
% es.tEX (V/m) @ t=0.62
-1.1778469615426688
% es.tEY (V/m) @ t=0.62
0
% es.tEZ (V/m) @ t=0.62
1.343289727201153
% es.Ex (V/m) @ t=0.62
-1.1778469615426732
% es.Ey (V/m) @ t=0.62
0.26168982687680964
% es.Ez (V/m) @ t=0.62
1.3432897272011441
% es.tEx (V/m) @ t=0.62
-1.1778469615426688
% es.tEy (V/m) @ t=0.62
0
% es.tEz (V/m) @ t=0.62
1.343289727201153
% V (V) @ t=0.62
0.01765174147873782
% es.normE (V/m) @ t=0.64
1.84599939669803
% es.EX (V/m) @ t=0.64
-1.1921209885640023
% es.EY (V/m) @ t=0.64
0.26486118065060305
% es.EZ (V/m) @ t=0.64
1.3595687108377774
% es.tEX (V/m) @ t=0.64
-1.1921209885639912
% es.tEY (V/m) @ t=0.64
0
% es.tEZ (V/m) @ t=0.64
1.359568710837772
% es.Ex (V/m) @ t=0.64
-1.1921209885640023
% es.Ey (V/m) @ t=0.64
0.26486118065060305
% es.Ez (V/m) @ t=0.64
1.3595687108377774
% es.tEx (V/m) @ t=0.64
-1.1921209885639912
% es.tEy (V/m) @ t=0.64
0
% es.tEz (V/m) @ t=0.64
1.359568710837772
% V (V) @ t=0.64
0.017865658400769344
% es.normE (V/m) @ t=0.66
1.8682863088665336
% es.EX (V/m) @ t=0.66
-1.206513570282556
% es.EY (V/m) @ t=0.66
0.2680588744630137
% es.EZ (V/m) @ t=0.66
1.375982901595867
% es.tEX (V/m) @ t=0.66
-1.2065135702825591
% es.tEY (V/m) @ t=0.66
0
% es.tEZ (V/m) @ t=0.66
1.3759829015958545
% es.Ex (V/m) @ t=0.66
-1.206513570282556
% es.Ey (V/m) @ t=0.66
0.2680588744630137
% es.Ez (V/m) @ t=0.66
1.375982901595867
% es.tEx (V/m) @ t=0.66
-1.2065135702825591
% es.tEy (V/m) @ t=0.66
0
% es.tEz (V/m) @ t=0.66
1.3759829015958545
% V (V) @ t=0.66
0.018081352042543658
% es.normE (V/m) @ t=0.68
1.890756802974562
% es.EX (V/m) @ t=0.68
-1.2210247066983966
% es.EY (V/m) @ t=0.68
0.27128290831410173
% es.EZ (V/m) @ t=0.68
1.3925322994754108
% es.tEX (V/m) @ t=0.68
-1.2210247066983997
% es.tEY (V/m) @ t=0.68
0
% es.tEZ (V/m) @ t=0.68
1.3925322994754108
% es.Ex (V/m) @ t=0.68
-1.2210247066983966
% es.Ey (V/m) @ t=0.68
0.27128290831410173
% es.Ez (V/m) @ t=0.68
1.3925322994754108
% es.tEx (V/m) @ t=0.68
-1.2210247066983997
% es.tEy (V/m) @ t=0.68
0
% es.tEz (V/m) @ t=0.68
1.3925322994754108
% V (V) @ t=0.68
0.01829882240406077
% es.normE (V/m) @ t=0.7
1.9134108790220663
% es.EX (V/m) @ t=0.7
-1.2356543978114987
% es.EY (V/m) @ t=0.7
0.2745332822038393
% es.EZ (V/m) @ t=0.7
1.4092169044763718
% es.tEX (V/m) @ t=0.7
-1.2356543978114947
% es.tEY (V/m) @ t=0.7
0
% es.tEZ (V/m) @ t=0.7
1.4092169044763931
% es.Ex (V/m) @ t=0.7
-1.2356543978114987
% es.Ey (V/m) @ t=0.7
0.2745332822038393
% es.Ez (V/m) @ t=0.7
1.4092169044763718
% es.tEx (V/m) @ t=0.7
-1.2356543978114947
% es.tEy (V/m) @ t=0.7
0
% es.tEz (V/m) @ t=0.7
1.4092169044763931
% V (V) @ t=0.7
0.018518069485320678
% es.normE (V/m) @ t=0.72
1.9362485370090579
% es.EX (V/m) @ t=0.72
-1.2504026436218534
% es.EY (V/m) @ t=0.72
0.2778099961322138
% es.EZ (V/m) @ t=0.72
1.4260367165987855
% es.tEX (V/m) @ t=0.72
-1.250402643621849
% es.tEY (V/m) @ t=0.72
0
% es.tEZ (V/m) @ t=0.72
1.4260367165987926
% es.Ex (V/m) @ t=0.72
-1.2504026436218534
% es.Ey (V/m) @ t=0.72
0.2778099961322138
% es.Ez (V/m) @ t=0.72
1.4260367165987855
% es.tEx (V/m) @ t=0.72
-1.250402643621849
% es.tEy (V/m) @ t=0.72
0
% es.tEz (V/m) @ t=0.72
1.4260367165987926
% V (V) @ t=0.72
0.018739093286323383
% es.normE (V/m) @ t=0.74
1.95928746260099
% es.EX (V/m) @ t=0.74
-1.265280865288771
% es.EY (V/m) @ t=0.74
0.2811155876037672
% es.EZ (V/m) @ t=0.74
1.4430047612439498
% es.tEX (V/m) @ t=0.74
-1.2652808652887737
% es.tEY (V/m) @ t=0.74
0
% es.tEZ (V/m) @ t=0.74
1.4430047612439658
% es.Ex (V/m) @ t=0.74
-1.265280865288771
% es.Ey (V/m) @ t=0.74
0.2811155876037672
% es.Ez (V/m) @ t=0.74
1.4430047612439498
% es.tEx (V/m) @ t=0.74
-1.2652808652887737
% es.tEy (V/m) @ t=0.74
0
% es.tEz (V/m) @ t=0.74
1.4430047612439658
% V (V) @ t=0.74
0.01896206497002895
% es.normE (V/m) @ t=0.76
1.9828442694386348
% es.EX (V/m) @ t=0.76
-1.2804935275432592
% es.EY (V/m) @ t=0.76
0.2844954837214606
% es.EZ (V/m) @ t=0.76
1.4603542227240212
% es.tEX (V/m) @ t=0.76
-1.2804935275432547
% es.tEY (V/m) @ t=0.76
0
% es.tEZ (V/m) @ t=0.76
1.4603542227240354
% es.Ex (V/m) @ t=0.76
-1.2804935275432592
% es.Ey (V/m) @ t=0.76
0.2844954837214606
% es.Ez (V/m) @ t=0.76
1.4603542227240212
% es.tEx (V/m) @ t=0.76
-1.2804935275432547
% es.tEy (V/m) @ t=0.76
0
% es.tEz (V/m) @ t=0.76
1.4603542227240354
% V (V) @ t=0.76
0.019190048742764983
% es.normE (V/m) @ t=0.78
2.0066371102599194
% es.EX (V/m) @ t=0.78
-1.2958586173031055
% es.EY (V/m) @ t=0.78
0.2879092455940824
% es.EZ (V/m) @ t=0.78
1.4778775219853042
% es.tEX (V/m) @ t=0.78
-1.2958586173031081
% es.tEY (V/m) @ t=0.78
0
% es.tEZ (V/m) @ t=0.78
1.4778775219853273
% es.Ex (V/m) @ t=0.78
-1.2958586173031055
% es.Ey (V/m) @ t=0.78
0.2879092455940824
% es.Ez (V/m) @ t=0.78
1.4778775219853042
% es.tEx (V/m) @ t=0.78
-1.2958586173031081
% es.tEy (V/m) @ t=0.78
0
% es.tEz (V/m) @ t=0.78
1.4778775219853273
% V (V) @ t=0.78
0.01942031686935943
% es.normE (V/m) @ t=0.8
2.03066598506482
% es.EX (V/m) @ t=0.8
-1.3113761345683028
% es.EY (V/m) @ t=0.8
0.291356873221547
% es.EZ (V/m) @ t=0.8
1.4955746590277883
% es.tEX (V/m) @ t=0.8
-1.3113761345682984
% es.tEY (V/m) @ t=0.8
0
% es.tEZ (V/m) @ t=0.8
1.4955746590277972
% es.Ex (V/m) @ t=0.8
-1.3113761345683028
% es.Ey (V/m) @ t=0.8
0.291356873221547
% es.Ez (V/m) @ t=0.8
1.4955746590277883
% es.tEx (V/m) @ t=0.8
-1.3113761345682984
% es.tEy (V/m) @ t=0.8
0
% es.tEz (V/m) @ t=0.8
1.4955746590277972
% V (V) @ t=0.8
0.019652869349812294
% es.normE (V/m) @ t=0.82
2.0549308938533244
% es.EX (V/m) @ t=0.82
-1.3270460793388703
% es.EY (V/m) @ t=0.82
0.2948383666038483
% es.EZ (V/m) @ t=0.82
1.5134456338514362
% es.tEX (V/m) @ t=0.82
-1.3270460793388588
% es.tEY (V/m) @ t=0.82
0
% es.tEZ (V/m) @ t=0.82
1.5134456338514788
% es.Ex (V/m) @ t=0.82
-1.3270460793388703
% es.Ey (V/m) @ t=0.82
0.2948383666038483
% es.Ez (V/m) @ t=0.82
1.5134456338514362
% es.tEx (V/m) @ t=0.82
-1.3270460793388588
% es.tEy (V/m) @ t=0.82
0
% es.tEz (V/m) @ t=0.82
1.5134456338514788
% V (V) @ t=0.82
0.019887706184123572
% es.normE (V/m) @ t=0.84
2.079431836625486
% es.EX (V/m) @ t=0.84
-1.3428684516147786
% es.EY (V/m) @ t=0.84
0.2983537257410225
% es.EZ (V/m) @ t=0.84
1.5314904464563437
% es.tEX (V/m) @ t=0.84
-1.3428684516147809
% es.tEY (V/m) @ t=0.84
0
% es.tEZ (V/m) @ t=0.84
1.531490446456388
% es.Ex (V/m) @ t=0.84
-1.3428684516147786
% es.Ey (V/m) @ t=0.84
0.2983537257410225
% es.Ez (V/m) @ t=0.84
1.5314904464563437
% es.tEx (V/m) @ t=0.84
-1.3428684516147809
% es.tEy (V/m) @ t=0.84
0
% es.tEz (V/m) @ t=0.84
1.531490446456388
% V (V) @ t=0.84
0.020124827372293264
% es.normE (V/m) @ t=0.86
2.104168813381289
% es.EX (V/m) @ t=0.86
-1.3588432513960633
% es.EY (V/m) @ t=0.86
0.30190295063309747
% es.EZ (V/m) @ t=0.86
1.5497090968424505
% es.tEX (V/m) @ t=0.86
-1.3588432513960655
% es.tEY (V/m) @ t=0.86
0
% es.tEZ (V/m) @ t=0.86
1.5497090968424665
% es.Ex (V/m) @ t=0.86
-1.3588432513960633
% es.Ey (V/m) @ t=0.86
0.30190295063309747
% es.Ez (V/m) @ t=0.86
1.5497090968424505
% es.tEx (V/m) @ t=0.86
-1.3588432513960655
% es.tEy (V/m) @ t=0.86
0
% es.tEz (V/m) @ t=0.86
1.5497090968424665
% V (V) @ t=0.86
0.02036423291432136
% es.normE (V/m) @ t=0.88
2.129141824120655
% es.EX (V/m) @ t=0.88
-1.3749704786826915
% es.EY (V/m) @ t=0.88
0.3054860412800009
% es.EZ (V/m) @ t=0.88
1.5681015850096944
% es.tEX (V/m) @ t=0.88
-1.3749704786826866
% es.tEY (V/m) @ t=0.88
0
% es.tEZ (V/m) @ t=0.88
1.5681015850097104
% es.Ex (V/m) @ t=0.88
-1.3749704786826915
% es.Ey (V/m) @ t=0.88
0.3054860412800009
% es.Ez (V/m) @ t=0.88
1.5681015850096944
% es.tEx (V/m) @ t=0.88
-1.3749704786826866
% es.tEy (V/m) @ t=0.88
0
% es.tEz (V/m) @ t=0.88
1.5681015850097104
% V (V) @ t=0.88
0.02060592281020788
% es.normE (V/m) @ t=0.9
2.1543508688437214
% es.EX (V/m) @ t=0.9
-1.3912501334746863
% es.EY (V/m) @ t=0.9
0.3091029976818205
% es.EZ (V/m) @ t=0.9
1.5866679109582265
% es.tEX (V/m) @ t=0.9
-1.3912501334746814
% es.tEY (V/m) @ t=0.9
0
% es.tEZ (V/m) @ t=0.9
1.5866679109582282
% es.Ex (V/m) @ t=0.9
-1.3912501334746863
% es.Ey (V/m) @ t=0.9
0.3091029976818205
% es.Ez (V/m) @ t=0.9
1.5866679109582265
% es.tEx (V/m) @ t=0.9
-1.3912501334746814
% es.tEy (V/m) @ t=0.9
0
% es.tEz (V/m) @ t=0.9
1.5866679109582282
% V (V) @ t=0.9
0.02084989705995281
% es.normE (V/m) @ t=0.92
2.1797959475503728
% es.EX (V/m) @ t=0.92
-1.4076822157720401
% es.EY (V/m) @ t=0.92
0.3127538198384623
% es.EZ (V/m) @ t=0.92
1.6054080746879063
% es.tEX (V/m) @ t=0.92
-1.4076822157720352
% es.tEY (V/m) @ t=0.92
0
% es.tEZ (V/m) @ t=0.92
1.605408074687908
% es.Ex (V/m) @ t=0.92
-1.4076822157720401
% es.Ey (V/m) @ t=0.92
0.3127538198384623
% es.Ez (V/m) @ t=0.92
1.6054080746879063
% es.tEx (V/m) @ t=0.92
-1.4076822157720352
% es.tEy (V/m) @ t=0.92
0
% es.tEz (V/m) @ t=0.92
1.605408074687908
% V (V) @ t=0.92
0.02109615566355616
% es.normE (V/m) @ t=0.94
2.2054770602406544
% es.EX (V/m) @ t=0.94
-1.4242667255747459
% es.EY (V/m) @ t=0.94
0.3164385077499967
% es.EZ (V/m) @ t=0.94
1.6243220761987995
% es.tEX (V/m) @ t=0.94
-1.424266725574741
% es.tEY (V/m) @ t=0.94
0
% es.tEZ (V/m) @ t=0.94
1.6243220761988066
% es.Ex (V/m) @ t=0.94
-1.4242667255747459
% es.Ey (V/m) @ t=0.94
0.3164385077499967
% es.Ez (V/m) @ t=0.94
1.6243220761987995
% es.tEx (V/m) @ t=0.94
-1.424266725574741
% es.tEy (V/m) @ t=0.94
0
% es.tEz (V/m) @ t=0.94
1.6243220761988066
% V (V) @ t=0.94
0.021344698621017913
% es.normE (V/m) @ t=0.96
2.2313942069145476
% es.EX (V/m) @ t=0.96
-1.441003662882797
% es.EY (V/m) @ t=0.96
0.32015706141641354
% es.EZ (V/m) @ t=0.96
1.6434099154908832
% es.tEX (V/m) @ t=0.96
-1.4410036628827987
% es.tEY (V/m) @ t=0.96
0
% es.tEZ (V/m) @ t=0.96
1.6434099154909116
% es.Ex (V/m) @ t=0.96
-1.441003662882797
% es.Ey (V/m) @ t=0.96
0.32015706141641354
% es.Ez (V/m) @ t=0.96
1.6434099154908832
% es.tEx (V/m) @ t=0.96
-1.4410036628827987
% es.tEy (V/m) @ t=0.96
0
% es.tEz (V/m) @ t=0.96
1.6434099154909116
% V (V) @ t=0.96
0.021595525932338076
% es.normE (V/m) @ t=0.98
2.25754738757208
% es.EX (V/m) @ t=0.98
-1.457893027696214
% es.EY (V/m) @ t=0.98
0.32390948083766635
% es.EZ (V/m) @ t=0.98
1.662671592564184
% es.tEX (V/m) @ t=0.98
-1.4578930276962163
% es.tEY (V/m) @ t=0.98
0
% es.tEZ (V/m) @ t=0.98
1.662671592564207
% es.Ex (V/m) @ t=0.98
-1.457893027696214
% es.Ey (V/m) @ t=0.98
0.32390948083766635
% es.Ez (V/m) @ t=0.98
1.662671592564184
% es.tEx (V/m) @ t=0.98
-1.4578930276962163
% es.tEy (V/m) @ t=0.98
0
% es.tEz (V/m) @ t=0.98
1.662671592564207
% V (V) @ t=0.98
0.021848637597516665
% es.normE (V/m) @ t=1
2.2840739496161566
% es.EX (V/m) @ t=1
-1.4750235171887631
% es.EY (V/m) @ t=1
0.3277154740836097
% es.EZ (V/m) @ t=1
1.6822082622565837
% es.tEX (V/m) @ t=1
-1.475023517188765
% es.tEY (V/m) @ t=1
0
% es.tEZ (V/m) @ t=1
1.6822082622565766
% es.Ex (V/m) @ t=1
-1.4750235171887631
% es.Ey (V/m) @ t=1
0.3277154740836097
% es.Ez (V/m) @ t=1
1.6822082622565837
% es.tEx (V/m) @ t=1
-1.475023517188765
% es.tEy (V/m) @ t=1
0
% es.tEz (V/m) @ t=1
1.6822082622565766
% V (V) @ t=1
0.02210536266141213
% es.normE (V/m) @ t=1.02
2.3109089011122723
% es.EX (V/m) @ t=1.02
-1.4923531604109912
% es.EY (V/m) @ t=1.02
0.33156571541850033
% es.EZ (V/m) @ t=1.02
1.7019720587296003
% es.tEX (V/m) @ t=1.02
-1.4923531604109863
% es.tEY (V/m) @ t=1.02
0
% es.tEZ (V/m) @ t=1.02
1.701972058729602
% es.Ex (V/m) @ t=1.02
-1.4923531604109912
% es.Ey (V/m) @ t=1.02
0.33156571541850033
% es.Ez (V/m) @ t=1.02
1.7019720587296003
% es.tEx (V/m) @ t=1.02
-1.4923531604109863
% es.tEy (V/m) @ t=1.02
0
% es.tEz (V/m) @ t=1.02
1.701972058729602
% V (V) @ t=1.02
0.022365072228286098
% es.normE (V/m) @ t=1.04
2.3380082307369268
% es.EX (V/m) @ t=1.04
-1.5098535354202385
% es.EY (V/m) @ t=1.04
0.3354538896284107
% es.EZ (V/m) @ t=1.04
1.7219305681319579
% es.tEX (V/m) @ t=1.04
-1.5098535354202403
% es.tEY (V/m) @ t=1.04
0
% es.tEZ (V/m) @ t=1.04