% Model:              1 neuron.mph
% Version:            COMSOL 6.0.0.405
% Date:               Mar 16 2023, 20:19
% Dimension:          0
% Nodes:              14017
% Expressions:        14017
% Description:        Electric field norm, Electric field, X component, Electric field, Y component, Electric field, Z component, Tangential electric field, X component, Tangential electric field, Y component, Tangential electric field, Z component, Electric field, x component, Electric field, y component, Electric field, z component, Tangential electric field, x component, Tangential electric field, y component, Tangential electric field, z component, Electric potential
% Length unit:        mm
% x
1.3300000000000003
% y
12.200000000000001
% z
1.66
% es.normE (V/m) @ t=0
13.602688915687146
% es.EX (V/m) @ t=0
8.632259557859763
% es.EY (V/m) @ t=0
2.581346970326323
% es.EZ (V/m) @ t=0
-9.455500765794593
% es.tEX (V/m) @ t=0
8.63225955785974
% es.tEY (V/m) @ t=0
0
% es.tEZ (V/m) @ t=0
-9.455500765794564
% es.Ex (V/m) @ t=0
8.632259557859763
% es.Ey (V/m) @ t=0
2.581346970326323
% es.Ez (V/m) @ t=0
-9.455500765794593
% es.tEx (V/m) @ t=0
8.63225955785974
% es.tEy (V/m) @ t=0
0
% es.tEz (V/m) @ t=0
-9.455500765794564
% V (V) @ t=0
0.011651771407649007
% es.normE (V/m) @ t=0.02
11.788155932548847
% es.EX (V/m) @ t=0.02
7.480757783177063
% es.EY (V/m) @ t=0.02
2.2370077655172125
% es.EZ (V/m) @ t=0.02
-8.194182692702507
% es.tEX (V/m) @ t=0.02
7.480757783177041
% es.tEY (V/m) @ t=0.02
0
% es.tEZ (V/m) @ t=0.02
-8.194182692702478
% es.Ex (V/m) @ t=0.02
7.480757783177063
% es.Ey (V/m) @ t=0.02
2.2370077655172125
% es.Ez (V/m) @ t=0.02
-8.194182692702507
% es.tEx (V/m) @ t=0.02
7.480757783177041
% es.tEy (V/m) @ t=0.02
0
% es.tEz (V/m) @ t=0.02
-8.194182692702478
% V (V) @ t=0.02
0.010097481627142251
% es.normE (V/m) @ t=0.04
11.936709100755492
% es.EX (V/m) @ t=0.04
7.575029423046063
% es.EY (V/m) @ t=0.04
2.2651983364568986
% es.EZ (V/m) @ t=0.04
-8.297445076520862
% es.tEX (V/m) @ t=0.04
7.575029423046041
% es.tEY (V/m) @ t=0.04
0
% es.tEZ (V/m) @ t=0.04
-8.297445076520841
% es.Ex (V/m) @ t=0.04
7.575029423046063
% es.Ey (V/m) @ t=0.04
2.2651983364568986
% es.Ez (V/m) @ t=0.04
-8.297445076520862
% es.tEx (V/m) @ t=0.04
7.575029423046041
% es.tEy (V/m) @ t=0.04
0
% es.tEz (V/m) @ t=0.04
-8.297445076520841
% V (V) @ t=0.04
0.010224729597102142
% es.normE (V/m) @ t=0.06
12.086649678551549
% es.EX (V/m) @ t=0.06
7.67018160837568
% es.EY (V/m) @ t=0.06
2.2936521785898467
% es.EZ (V/m) @ t=0.06
-8.401671792793094
% es.tEX (V/m) @ t=0.06
7.670181608375658
% es.tEY (V/m) @ t=0.06
0
% es.tEZ (V/m) @ t=0.06
-8.401671792793072
% es.Ex (V/m) @ t=0.06
7.67018160837568
% es.Ey (V/m) @ t=0.06
2.2936521785898467
% es.Ez (V/m) @ t=0.06
-8.401671792793094
% es.tEx (V/m) @ t=0.06
7.670181608375658
% es.tEy (V/m) @ t=0.06
0
% es.tEz (V/m) @ t=0.06
-8.401671792793072
% V (V) @ t=0.06
0.010353165618733727
% es.normE (V/m) @ t=0.08
12.241282046343407
% es.EX (V/m) @ t=0.08
7.768311534877059
% es.EY (V/m) @ t=0.08
2.3229963133353957
% es.EZ (V/m) @ t=0.08
-8.50915957545633
% es.tEX (V/m) @ t=0.08
7.768311534877059
% es.tEY (V/m) @ t=0.08
0
% es.tEZ (V/m) @ t=0.08
-8.509159575456314
% es.Ex (V/m) @ t=0.08
7.768311534877059
% es.Ey (V/m) @ t=0.08
2.3229963133353957
% es.Ez (V/m) @ t=0.08
-8.50915957545633
% es.tEx (V/m) @ t=0.08
7.768311534877059
% es.tEy (V/m) @ t=0.08
0
% es.tEz (V/m) @ t=0.08
-8.509159575456314
% V (V) @ t=0.08
0.01048561922265864
% es.normE (V/m) @ t=0.1
12.396416930828419
% es.EX (V/m) @ t=0.1
7.866760393949543
% es.EY (V/m) @ t=0.1
2.352435803350519
% es.EZ (V/m) @ t=0.1
-8.616996636390851
% es.tEX (V/m) @ t=0.1
7.8667603939495425
% es.tEY (V/m) @ t=0.1
0
% es.tEZ (V/m) @ t=0.1
-8.616996636390823
% es.Ex (V/m) @ t=0.1
7.866760393949543
% es.Ey (V/m) @ t=0.1
2.352435803350519
% es.Ez (V/m) @ t=0.1
-8.616996636390851
% es.tEx (V/m) @ t=0.1
7.8667603939495425
% es.tEy (V/m) @ t=0.1
0
% es.tEz (V/m) @ t=0.1
-8.616996636390823
% V (V) @ t=0.1
0.010618503131897786
% es.normE (V/m) @ t=0.12
12.55155181531345
% es.EX (V/m) @ t=0.12
7.965209253022088
% es.EY (V/m) @ t=0.12
2.381875293365585
% es.EZ (V/m) @ t=0.12
-8.724833697325359
% es.tEX (V/m) @ t=0.12
7.9652092530220555
% es.tEY (V/m) @ t=0.12
0
% es.tEZ (V/m) @ t=0.12
-8.724833697325336
% es.Ex (V/m) @ t=0.12
7.965209253022088
% es.Ey (V/m) @ t=0.12
2.381875293365585
% es.Ez (V/m) @ t=0.12
-8.724833697325359
% es.tEx (V/m) @ t=0.12
7.9652092530220555
% es.tEy (V/m) @ t=0.12
0
% es.tEz (V/m) @ t=0.12
-8.724833697325336
% V (V) @ t=0.12
0.010751387041136932
% es.normE (V/m) @ t=0.14
12.715759578047368
% es.EX (V/m) @ t=0.14
8.069415384309838
% es.EY (V/m) @ t=0.14
2.413036580385648
% es.EZ (V/m) @ t=0.14
-8.838977820928953
% es.tEX (V/m) @ t=0.14
8.06941538430981
% es.tEY (V/m) @ t=0.14
0
% es.tEZ (V/m) @ t=0.14
-8.838977820928939
% es.Ex (V/m) @ t=0.14
8.069415384309838
% es.Ey (V/m) @ t=0.14
2.413036580385648
% es.Ez (V/m) @ t=0.14
-8.838977820928953
% es.tEx (V/m) @ t=0.14
8.06941538430981
% es.tEy (V/m) @ t=0.14
0
% es.tEz (V/m) @ t=0.14
-8.838977820928939
% V (V) @ t=0.14
0.010892044038295917
% es.normE (V/m) @ t=0.16
12.882019205028364
% es.EX (V/m) @ t=0.16
8.174923543542329
% es.EY (V/m) @ t=0.16
2.4445872580287924
% es.EZ (V/m) @ t=0.16
-8.954548309577875
% es.tEX (V/m) @ t=0.16
8.174923543542313
% es.tEY (V/m) @ t=0.16
0
% es.tEZ (V/m) @ t=0.16
-8.954548309577861
% es.Ex (V/m) @ t=0.16
8.174923543542329
% es.Ey (V/m) @ t=0.16
2.4445872580287924
% es.Ez (V/m) @ t=0.16
-8.954548309577875
% es.tEx (V/m) @ t=0.16
8.174923543542313
% es.tEy (V/m) @ t=0.16
0
% es.tEz (V/m) @ t=0.16
-8.954548309577861
% V (V) @ t=0.16
0.011034458947415641
% es.normE (V/m) @ t=0.18
13.048278832009363
% es.EX (V/m) @ t=0.18
8.280431702774816
% es.EY (V/m) @ t=0.18
2.476137935671979
% es.EZ (V/m) @ t=0.18
-9.070118798226797
% es.tEX (V/m) @ t=0.18
8.280431702774806
% es.tEY (V/m) @ t=0.18
0
% es.tEZ (V/m) @ t=0.18
-9.070118798226776
% es.Ex (V/m) @ t=0.18
8.280431702774816
% es.Ey (V/m) @ t=0.18
2.476137935671979
% es.Ez (V/m) @ t=0.18
-9.070118798226797
% es.tEx (V/m) @ t=0.18
8.280431702774806
% es.tEy (V/m) @ t=0.18
0
% es.tEz (V/m) @ t=0.18
-9.070118798226776
% V (V) @ t=0.18
0.011176873856535367
% es.normE (V/m) @ t=0.2
13.214538458990337
% es.EX (V/m) @ t=0.2
8.385939862007287
% es.EY (V/m) @ t=0.2
2.507688613315155
% es.EZ (V/m) @ t=0.2
-9.18568928687571
% es.tEX (V/m) @ t=0.2
8.385939862007275
% es.tEY (V/m) @ t=0.2
0
% es.tEZ (V/m) @ t=0.2
-9.18568928687569
% es.Ex (V/m) @ t=0.2
8.385939862007287
% es.Ey (V/m) @ t=0.2
2.507688613315155
% es.Ez (V/m) @ t=0.2
-9.18568928687571
% es.tEx (V/m) @ t=0.2
8.385939862007275
% es.tEy (V/m) @ t=0.2
0
% es.tEz (V/m) @ t=0.2
-9.18568928687569
% V (V) @ t=0.2
0.011319288765655092
% es.normE (V/m) @ t=0.22
13.380798085971342
% es.EX (V/m) @ t=0.22
8.491448021239798
% es.EY (V/m) @ t=0.22
2.5392392909583275
% es.EZ (V/m) @ t=0.22
-9.30125977552462
% es.tEX (V/m) @ t=0.22
8.491448021239766
% es.tEY (V/m) @ t=0.22
0
% es.tEZ (V/m) @ t=0.22
-9.30125977552459
% es.Ex (V/m) @ t=0.22
8.491448021239798
% es.Ey (V/m) @ t=0.22
2.5392392909583275
% es.Ez (V/m) @ t=0.22
-9.30125977552462
% es.tEx (V/m) @ t=0.22
8.491448021239766
% es.tEy (V/m) @ t=0.22
0
% es.tEz (V/m) @ t=0.22
-9.30125977552459
% V (V) @ t=0.22
0.01146170367477482
% es.normE (V/m) @ t=0.24
13.547057712952338
% es.EX (V/m) @ t=0.24
8.596956180472269
% es.EY (V/m) @ t=0.24
2.570789968601532
% es.EZ (V/m) @ t=0.24
-9.41683026417354
% es.tEX (V/m) @ t=0.24
8.59695618047225
% es.tEY (V/m) @ t=0.24
0
% es.tEZ (V/m) @ t=0.24
-9.416830264173527
% es.Ex (V/m) @ t=0.24
8.596956180472269
% es.Ey (V/m) @ t=0.24
2.570789968601532
% es.Ez (V/m) @ t=0.24
-9.41683026417354
% es.tEx (V/m) @ t=0.24
8.59695618047225
% es.tEy (V/m) @ t=0.24
0
% es.tEz (V/m) @ t=0.24
-9.416830264173527
% V (V) @ t=0.24
0.011604118583894544
% es.normE (V/m) @ t=0.26
13.720930749448229
% es.EX (V/m) @ t=0.26
8.70729583663661
% es.EY (V/m) @ t=0.26
2.6037854182899403
% es.EZ (V/m) @ t=0.26
-9.537692958742527
% es.tEX (V/m) @ t=0.26
8.707295836636582
% es.tEY (V/m) @ t=0.26
0
% es.tEZ (V/m) @ t=0.26
-9.537692958742513
% es.Ex (V/m) @ t=0.26
8.70729583663661
% es.Ey (V/m) @ t=0.26
2.6037854182899403
% es.Ez (V/m) @ t=0.26
-9.537692958742527
% es.tEx (V/m) @ t=0.26
8.707295836636582
% es.tEy (V/m) @ t=0.26
0
% es.tEz (V/m) @ t=0.26
-9.537692958742513
% V (V) @ t=0.26
0.01175305485687433
% es.normE (V/m) @ t=0.28
13.89908330019226
% es.EX (V/m) @ t=0.28
8.820351287862184
% es.EY (V/m) @ t=0.28
2.637592977525414
% es.EZ (V/m) @ t=0.28
-9.66153041390921
% es.tEX (V/m) @ t=0.28
8.820351287862174
% es.tEY (V/m) @ t=0.28
0
% es.tEZ (V/m) @ t=0.28
-9.661530413909196
% es.Ex (V/m) @ t=0.28
8.820351287862184
% es.Ey (V/m) @ t=0.28
2.637592977525414
% es.Ez (V/m) @ t=0.28
-9.66153041390921
% es.tEx (V/m) @ t=0.28
8.820351287862174
% es.tEy (V/m) @ t=0.28
0
% es.tEz (V/m) @ t=0.28
-9.661530413909196
% V (V) @ t=0.28
0.011905656802835738
% es.normE (V/m) @ t=0.3
14.0772358509363
% es.EX (V/m) @ t=0.3
8.933406739087765
% es.EY (V/m) @ t=0.3
2.671400536760923
% es.EZ (V/m) @ t=0.3
-9.785367869075902
% es.tEX (V/m) @ t=0.3
8.933406739087747
% es.tEY (V/m) @ t=0.3
0
% es.tEZ (V/m) @ t=0.3
-9.785367869075886
% es.Ex (V/m) @ t=0.3
8.933406739087765
% es.Ey (V/m) @ t=0.3
2.671400536760923
% es.Ez (V/m) @ t=0.3
-9.785367869075902
% es.tEx (V/m) @ t=0.3
8.933406739087747
% es.tEy (V/m) @ t=0.3
0
% es.tEz (V/m) @ t=0.3
-9.785367869075886
% V (V) @ t=0.3
0.01205825874879714
% es.normE (V/m) @ t=0.32
14.255388401680367
% es.EX (V/m) @ t=0.32
9.04646219031334
% es.EY (V/m) @ t=0.32
2.7052080959964506
% es.EZ (V/m) @ t=0.32
-9.909205324242627
% es.tEX (V/m) @ t=0.32
9.046462190313331
% es.tEY (V/m) @ t=0.32
0
% es.tEZ (V/m) @ t=0.32
-9.909205324242604
% es.Ex (V/m) @ t=0.32
9.04646219031334
% es.Ey (V/m) @ t=0.32
2.7052080959964506
% es.Ez (V/m) @ t=0.32
-9.909205324242627
% es.tEx (V/m) @ t=0.32
9.046462190313331
% es.tEy (V/m) @ t=0.32
0
% es.tEz (V/m) @ t=0.32
-9.909205324242604
% V (V) @ t=0.32
0.012210860694758545
% es.normE (V/m) @ t=0.34
14.433540952424416
% es.EX (V/m) @ t=0.34
9.159517641538919
% es.EY (V/m) @ t=0.34
2.7390156552319245
% es.EZ (V/m) @ t=0.34
-10.033042779409318
% es.tEX (V/m) @ t=0.34
9.159517641538898
% es.tEY (V/m) @ t=0.34
0
% es.tEZ (V/m) @ t=0.34
-10.033042779409287
% es.Ex (V/m) @ t=0.34
9.159517641538919
% es.Ey (V/m) @ t=0.34
2.7390156552319245
% es.Ez (V/m) @ t=0.34
-10.033042779409318
% es.tEx (V/m) @ t=0.34
9.159517641538898
% es.tEy (V/m) @ t=0.34
0
% es.tEz (V/m) @ t=0.34
-10.033042779409287
% V (V) @ t=0.34
0.012363462640719951
% es.normE (V/m) @ t=0.36
14.611693503168485
% es.EX (V/m) @ t=0.36
9.27257309276451
% es.EY (V/m) @ t=0.36
2.7728232144674334
% es.EZ (V/m) @ t=0.36
-10.156880234576043
% es.tEX (V/m) @ t=0.36
9.272573092764476
% es.tEY (V/m) @ t=0.36
0
% es.tEZ (V/m) @ t=0.36
-10.156880234576022
% es.Ex (V/m) @ t=0.36
9.27257309276451
% es.Ey (V/m) @ t=0.36
2.7728232144674334
% es.Ez (V/m) @ t=0.36
-10.156880234576043
% es.tEx (V/m) @ t=0.36
9.272573092764476
% es.tEy (V/m) @ t=0.36
0
% es.tEz (V/m) @ t=0.36
-10.156880234576022
% V (V) @ t=0.36
0.012516064586681353
% es.normE (V/m) @ t=0.38
14.795741891569499
% es.EX (V/m) @ t=0.38
9.389369994185861
% es.EY (V/m) @ t=0.38
2.8077496188055293
% es.EZ (V/m) @ t=0.38
-10.284816043801852
% es.tEX (V/m) @ t=0.38
9.389369994185863
% es.tEY (V/m) @ t=0.38
0
% es.tEZ (V/m) @ t=0.38
-10.284816043801822
% es.Ex (V/m) @ t=0.38
9.389369994185861
% es.Ey (V/m) @ t=0.38
2.8077496188055293
% es.Ez (V/m) @ t=0.38
-10.284816043801852
% es.tEx (V/m) @ t=0.38
9.389369994185863
% es.tEy (V/m) @ t=0.38
0
% es.tEz (V/m) @ t=0.38
-10.284816043801822
% V (V) @ t=0.38
0.012673716959619278
% es.normE (V/m) @ t=0.4
14.986580006832352
% es.EX (V/m) @ t=0.4
9.510475600557191
% es.EY (V/m) @ t=0.4
2.8439645003862526
% es.EZ (V/m) @ t=0.4
-10.417471573322464
% es.tEX (V/m) @ t=0.4
9.510475600557186
% es.tEY (V/m) @ t=0.4
0
% es.tEZ (V/m) @ t=0.4
-10.41747157332245
% es.Ex (V/m) @ t=0.4
9.510475600557191
% es.Ey (V/m) @ t=0.4
2.8439645003862526
% es.Ez (V/m) @ t=0.4
-10.417471573322464
% es.tEx (V/m) @ t=0.4
9.510475600557186
% es.tEy (V/m) @ t=0.4
0
% es.tEz (V/m) @ t=0.4
-10.41747157332245
% V (V) @ t=0.4
0.012837185472977151
% es.normE (V/m) @ t=0.42
15.177418122095238
% es.EX (V/m) @ t=0.42
9.631581206928498
% es.EY (V/m) @ t=0.42
2.8801793819669865
% es.EZ (V/m) @ t=0.42
-10.550127102843119
% es.tEX (V/m) @ t=0.42
9.631581206928473
% es.tEY (V/m) @ t=0.42
0
% es.tEZ (V/m) @ t=0.42
-10.55012710284309
% es.Ex (V/m) @ t=0.42
9.631581206928498
% es.Ey (V/m) @ t=0.42
2.8801793819669865
% es.Ez (V/m) @ t=0.42
-10.550127102843119
% es.tEx (V/m) @ t=0.42
9.631581206928473
% es.tEy (V/m) @ t=0.42
0
% es.tEz (V/m) @ t=0.42
-10.55012710284309
% V (V) @ t=0.42
0.013000653986335025
% es.normE (V/m) @ t=0.44
15.3682562373581
% es.EX (V/m) @ t=0.44
9.752686813299812
% es.EY (V/m) @ t=0.44
2.9163942635477134
% es.EZ (V/m) @ t=0.44
-10.68278263236374
% es.tEX (V/m) @ t=0.44
9.752686813299803
% es.tEY (V/m) @ t=0.44
0
% es.tEZ (V/m) @ t=0.44
-10.682782632363717
% es.Ex (V/m) @ t=0.44
9.752686813299812
% es.Ey (V/m) @ t=0.44
2.9163942635477134
% es.Ez (V/m) @ t=0.44
-10.68278263236374
% es.tEx (V/m) @ t=0.44
9.752686813299803
% es.tEy (V/m) @ t=0.44
0
% es.tEz (V/m) @ t=0.44
-10.682782632363717
% V (V) @ t=0.44
0.0131641224996929
% es.normE (V/m) @ t=0.46
15.559094352620967
% es.EX (V/m) @ t=0.46
9.873792419671101
% es.EY (V/m) @ t=0.46
2.952609145128483
% es.EZ (V/m) @ t=0.46
-10.815438161884373
% es.tEX (V/m) @ t=0.46
9.873792419671084
% es.tEY (V/m) @ t=0.46
0
% es.tEZ (V/m) @ t=0.46
-10.815438161884343
% es.Ex (V/m) @ t=0.46
9.873792419671101
% es.Ey (V/m) @ t=0.46
2.952609145128483
% es.Ez (V/m) @ t=0.46
-10.815438161884373
% es.tEx (V/m) @ t=0.46
9.873792419671084
% es.tEy (V/m) @ t=0.46
0
% es.tEz (V/m) @ t=0.46
-10.815438161884343
% V (V) @ t=0.46
0.013327591013050775
% es.normE (V/m) @ t=0.48
15.749932467883841
% es.EX (V/m) @ t=0.48
9.994898026042431
% es.EY (V/m) @ t=0.48
2.9888240267091994
% es.EZ (V/m) @ t=0.48
-10.948093691404997
% es.tEX (V/m) @ t=0.48
9.9948980260424
% es.tEY (V/m) @ t=0.48
0
% es.tEZ (V/m) @ t=0.48
-10.948093691404976
% es.Ex (V/m) @ t=0.48
9.994898026042431
% es.Ey (V/m) @ t=0.48
2.9888240267091994
% es.Ez (V/m) @ t=0.48
-10.948093691404997
% es.tEx (V/m) @ t=0.48
9.9948980260424
% es.tEy (V/m) @ t=0.48
0
% es.tEz (V/m) @ t=0.48
-10.948093691404976
% V (V) @ t=0.48
0.013491059526408649
% es.normE (V/m) @ t=0.5
15.942386931874939
% es.EX (V/m) @ t=0.5
10.117029406980517
% es.EY (V/m) @ t=0.5
3.025345632177006
% es.EZ (V/m) @ t=0.5
-11.081872741940856
% es.tEX (V/m) @ t=0.5
10.117029406980492
% es.tEY (V/m) @ t=0.5
0
% es.tEZ (V/m) @ t=0.5
-11.081872741940826
% es.Ex (V/m) @ t=0.5
10.117029406980517
% es.Ey (V/m) @ t=0.5
3.025345632177006
% es.Ez (V/m) @ t=0.5
-11.081872741940856
% es.tEx (V/m) @ t=0.5
10.117029406980492
% es.tEy (V/m) @ t=0.5
0
% es.tEz (V/m) @ t=0.5
-11.081872741940826
% V (V) @ t=0.5
0.013655912411776825
% es.normE (V/m) @ t=0.52
16.13992480848878
% es.EX (V/m) @ t=0.52
10.242386846311716
% es.EY (V/m) @ t=0.52
3.06283188348634
% es.EZ (V/m) @ t=0.52
-11.219185263200623
% es.tEX (V/m) @ t=0.52
10.242386846311678
% es.tEY (V/m) @ t=0.52
0
% es.tEZ (V/m) @ t=0.52
-11.219185263200595
% es.Ex (V/m) @ t=0.52
10.242386846311716
% es.Ey (V/m) @ t=0.52
3.06283188348634
% es.Ez (V/m) @ t=0.52
-11.219185263200623
% es.tEx (V/m) @ t=0.52
10.242386846311678
% es.tEy (V/m) @ t=0.52
0
% es.tEz (V/m) @ t=0.52
-11.219185263200595
% V (V) @ t=0.52
0.01382511914358233
% es.normE (V/m) @ t=0.54
16.3391907327927
% es.EX (V/m) @ t=0.54
10.368840947111913
% es.EY (V/m) @ t=0.54
3.100646055061375
% es.EZ (V/m) @ t=0.54
-11.357698947217642
% es.tEX (V/m) @ t=0.54
10.368840947111881
% es.tEY (V/m) @ t=0.54
0
% es.tEZ (V/m) @ t=0.54
-11.357698947217612
% es.Ex (V/m) @ t=0.54
10.368840947111913
% es.Ey (V/m) @ t=0.54
3.100646055061375
% es.Ez (V/m) @ t=0.54
-11.357698947217642
% es.tEx (V/m) @ t=0.54
10.368840947111881
% es.tEy (V/m) @ t=0.54
0
% es.tEz (V/m) @ t=0.54
-11.357698947217612
% V (V) @ t=0.54
0.013995805915439101
% es.normE (V/m) @ t=0.56
16.54018470478659
% es.EX (V/m) @ t=0.56
10.496391709381022
% es.EY (V/m) @ t=0.56
3.138788146902123
% es.EZ (V/m) @ t=0.56
-11.497413793991889
% es.tEX (V/m) @ t=0.56
10.496391709381017
% es.tEY (V/m) @ t=0.56
0
% es.tEZ (V/m) @ t=0.56
-11.497413793991868
% es.Ex (V/m) @ t=0.56
10.496391709381022
% es.Ey (V/m) @ t=0.56
3.138788146902123
% es.Ez (V/m) @ t=0.56
-11.497413793991889
% es.tEx (V/m) @ t=0.56
10.496391709381017
% es.tEy (V/m) @ t=0.56
0
% es.tEz (V/m) @ t=0.56
-11.497413793991868
% V (V) @ t=0.56
0.014167972727347138
% es.normE (V/m) @ t=0.58
16.74290672447053
% es.EX (V/m) @ t=0.58
10.625039133119078
% es.EY (V/m) @ t=0.58
3.1772581590087454
% es.EZ (V/m) @ t=0.58
-11.638329803523387
% es.tEX (V/m) @ t=0.58
10.62503913311906
% es.tEY (V/m) @ t=0.58
0
% es.tEZ (V/m) @ t=0.58
-11.638329803523359
% es.Ex (V/m) @ t=0.58
10.625039133119078
% es.Ey (V/m) @ t=0.58
3.1772581590087454
% es.Ez (V/m) @ t=0.58
-11.638329803523387
% es.tEx (V/m) @ t=0.58
10.62503913311906
% es.tEy (V/m) @ t=0.58
0
% es.tEz (V/m) @ t=0.58
-11.638329803523359
% V (V) @ t=0.58
0.014341619579306436
% es.normE (V/m) @ t=0.6
16.947356791844523
% es.EX (V/m) @ t=0.6
10.754783218326127
% es.EY (V/m) @ t=0.6
3.2160560913810077
% es.EZ (V/m) @ t=0.6
-11.780446975812144
% es.tEX (V/m) @ t=0.6
10.754783218326107
% es.tEY (V/m) @ t=0.6
0
% es.tEZ (V/m) @ t=0.6
-11.78044697581212
% es.Ex (V/m) @ t=0.6
10.754783218326127
% es.Ey (V/m) @ t=0.6
3.2160560913810077
% es.Ez (V/m) @ t=0.6
-11.780446975812144
% es.tEx (V/m) @ t=0.6
10.754783218326107
% es.tEy (V/m) @ t=0.6
0
% es.tEz (V/m) @ t=0.6
-11.78044697581212
% V (V) @ t=0.6
0.014516746471316995
% es.normE (V/m) @ t=0.62
17.15353490690859
% es.EX (V/m) @ t=0.62
10.885623965002125
% es.EY (V/m) @ t=0.62
3.255181944019072
% es.EZ (V/m) @ t=0.62
-11.923765310858204
% es.tEX (V/m) @ t=0.62
10.8856239650021
% es.tEY (V/m) @ t=0.62
0
% es.tEZ (V/m) @ t=0.62
-11.923765310858176
% es.Ex (V/m) @ t=0.62
10.885623965002125
% es.Ey (V/m) @ t=0.62
3.255181944019072
% es.Ez (V/m) @ t=0.62
-11.923765310858204
% es.tEx (V/m) @ t=0.62
10.8856239650021
% es.tEy (V/m) @ t=0.62
0
% es.tEz (V/m) @ t=0.62
-11.923765310858176
% V (V) @ t=0.62
0.01469335340337882
% es.normE (V/m) @ t=0.64
17.361441069662664
% es.EX (V/m) @ t=0.64
11.017561373147043
% es.EY (V/m) @ t=0.64
3.2946357169228975
% es.EZ (V/m) @ t=0.64
-12.068284808661488
% es.tEX (V/m) @ t=0.64
11.017561373147025
% es.tEY (V/m) @ t=0.64
0
% es.tEZ (V/m) @ t=0.64
-12.06828480866146
% es.Ex (V/m) @ t=0.64
11.017561373147043
% es.Ey (V/m) @ t=0.64
3.2946357169228975
% es.Ez (V/m) @ t=0.64
-12.068284808661488
% es.tEx (V/m) @ t=0.64
11.017561373147025
% es.tEy (V/m) @ t=0.64
0
% es.tEz (V/m) @ t=0.64
-12.06828480866146
% V (V) @ t=0.64
0.014871440375491908
% es.normE (V/m) @ t=0.66
17.57107528010677
% es.EX (V/m) @ t=0.66
11.150595442760947
% es.EY (V/m) @ t=0.66
3.3344174100923905
% es.EZ (V/m) @ t=0.66
-12.214005469221995
% es.tEX (V/m) @ t=0.66
11.150595442760913
% es.tEY (V/m) @ t=0.66
0
% es.tEZ (V/m) @ t=0.66
-12.214005469221966
% es.Ex (V/m) @ t=0.66
11.150595442760947
% es.Ey (V/m) @ t=0.66
3.3344174100923905
% es.Ez (V/m) @ t=0.66
-12.214005469221995
% es.tEx (V/m) @ t=0.66
11.150595442760913
% es.tEy (V/m) @ t=0.66
0
% es.tEz (V/m) @ t=0.66
-12.214005469221966
% V (V) @ t=0.66
0.015051007387656258
% es.normE (V/m) @ t=0.68
17.78243753824097
% es.EX (V/m) @ t=0.68
11.284726173843772
% es.EY (V/m) @ t=0.68
3.374527023527694
% es.EZ (V/m) @ t=0.68
-12.36092729253981
% es.tEX (V/m) @ t=0.68
11.284726173843753
% es.tEY (V/m) @ t=0.68
0
% es.tEZ (V/m) @ t=0.68
-12.360927292539781
% es.Ex (V/m) @ t=0.68
11.284726173843772
% es.Ey (V/m) @ t=0.68
3.374527023527694
% es.Ez (V/m) @ t=0.68
-12.36092729253981
% es.tEx (V/m) @ t=0.68
11.284726173843753
% es.tEy (V/m) @ t=0.68
0
% es.tEz (V/m) @ t=0.68
-12.360927292539781
% V (V) @ t=0.68
0.01523205443987187
% es.normE (V/m) @ t=0.7
17.99552784406517
% es.EX (V/m) @ t=0.7
11.419953566395575
% es.EY (V/m) @ t=0.7
3.4149645572286786
% es.EZ (V/m) @ t=0.7
-12.50905027861481
% es.tEX (V/m) @ t=0.7
11.419953566395556
% es.tEY (V/m) @ t=0.7
0
% es.tEZ (V/m) @ t=0.7
-12.509050278614781
% es.Ex (V/m) @ t=0.7
11.419953566395575
% es.Ey (V/m) @ t=0.7
3.4149645572286786
% es.Ez (V/m) @ t=0.7
-12.50905027861481
% es.tEx (V/m) @ t=0.7
11.419953566395556
% es.tEy (V/m) @ t=0.7
0
% es.tEz (V/m) @ t=0.7
-12.509050278614781
% V (V) @ t=0.7
0.015414581532138748
% es.normE (V/m) @ t=0.72
18.210346197579483
% es.EX (V/m) @ t=0.72
11.556277620416312
% es.EY (V/m) @ t=0.72
3.455730011195497
% es.EZ (V/m) @ t=0.72
-12.658374427447153
% es.tEX (V/m) @ t=0.72
11.556277620416278
% es.tEY (V/m) @ t=0.72
0
% es.tEZ (V/m) @ t=0.72
-12.658374427447123
% es.Ex (V/m) @ t=0.72
11.556277620416312
% es.Ey (V/m) @ t=0.72
3.455730011195497
% es.Ez (V/m) @ t=0.72
-12.658374427447153
% es.tEx (V/m) @ t=0.72
11.556277620416278
% es.tEy (V/m) @ t=0.72
0
% es.tEz (V/m) @ t=0.72
-12.658374427447123
% V (V) @ t=0.72
0.015598588664456887
% es.normE (V/m) @ t=0.74
18.426892598783844
% es.EX (V/m) @ t=0.74
11.69369833590601
% es.EY (V/m) @ t=0.74
3.496823385427988
% es.EZ (V/m) @ t=0.74
-12.808899739036718
% es.tEX (V/m) @ t=0.74
11.693698335905987
% es.tEY (V/m) @ t=0.74
0
% es.tEZ (V/m) @ t=0.74
-12.808899739036702
% es.Ex (V/m) @ t=0.74
11.69369833590601
% es.Ey (V/m) @ t=0.74
3.496823385427988
% es.Ez (V/m) @ t=0.74
-12.808899739036718
% es.tEx (V/m) @ t=0.74
11.693698335905987
% es.tEy (V/m) @ t=0.74
0
% es.tEz (V/m) @ t=0.74
-12.808899739036702
% V (V) @ t=0.74
0.01578407583682629
% es.normE (V/m) @ t=0.76
18.64824472097386
% es.EX (V/m) @ t=0.76
11.834168211151812
% es.EY (V/m) @ t=0.76
3.5388288160769825
% es.EZ (V/m) @ t=0.76
-12.962766080987588
% es.tEX (V/m) @ t=0.76
11.834168211151784
% es.tEY (V/m) @ t=0.76
0
% es.tEZ (V/m) @ t=0.76
-12.96276608098756
% es.Ex (V/m) @ t=0.76
11.834168211151812
% es.Ey (V/m) @ t=0.76
3.5388288160769825
% es.Ez (V/m) @ t=0.76
-12.962766080987588
% es.tEx (V/m) @ t=0.76
11.834168211151784
% es.tEy (V/m) @ t=0.76
0
% es.tEz (V/m) @ t=0.76
-12.96276608098756
% V (V) @ t=0.76
0.015973681629366954
% es.normE (V/m) @ t=0.78
18.872004621292888
% es.EX (V/m) @ t=0.78
11.976165973792874
% es.EY (V/m) @ t=0.78
3.58129117845072
% es.EZ (V/m) @ t=0.78
-13.118306193736341
% es.tEX (V/m) @ t=0.78
11.976165973792842
% es.tEY (V/m) @ t=0.78
0
% es.tEZ (V/m) @ t=0.78
-13.118306193736299
% es.Ex (V/m) @ t=0.78
11.976165973792874
% es.Ey (V/m) @ t=0.78
3.58129117845072
% es.Ez (V/m) @ t=0.78
-13.118306193736341
% es.tEx (V/m) @ t=0.78
11.976165973792842
% es.tEy (V/m) @ t=0.78
0
% es.tEz (V/m) @ t=0.78
-13.118306193736299
% V (V) @ t=0.78
0.016165350214918994
% es.normE (V/m) @ t=0.8
19.097986057004142
% es.EX (V/m) @ t=0.8
12.119573470084616
% es.EY (V/m) @ t=0.8
3.6241751240553537
% es.EZ (V/m) @ t=0.8
-13.275390585046221
% es.tEX (V/m) @ t=0.8
12.1195734700846
% es.tEY (V/m) @ t=0.8
0
% es.tEZ (V/m) @ t=0.8
-13.275390585046178
% es.Ex (V/m) @ t=0.8
12.119573470084616
% es.Ey (V/m) @ t=0.8
3.6241751240553537
% es.Ez (V/m) @ t=0.8
-13.275390585046221
% es.tEx (V/m) @ t=0.8
12.1195734700846
% es.tEy (V/m) @ t=0.8
0
% es.tEz (V/m) @ t=0.8
-13.275390585046178
% V (V) @ t=0.8
0.016358921922089216
% es.normE (V/m) @ t=0.82
19.326189028107546
% es.EX (V/m) @ t=0.82
12.264390700026933
% es.EY (V/m) @ t=0.82
3.6674806528909976
% es.EZ (V/m) @ t=0.82
-13.434019254917189
% es.tEX (V/m) @ t=0.82
12.264390700026881
% es.tEY (V/m) @ t=0.82
0
% es.tEZ (V/m) @ t=0.82
-13.434019254917144
% es.Ex (V/m) @ t=0.82
12.264390700026933
% es.Ey (V/m) @ t=0.82
3.6674806528909976
% es.Ez (V/m) @ t=0.82
-13.434019254917189
% es.tEx (V/m) @ t=0.82
12.264390700026881
% es.tEy (V/m) @ t=0.82
0
% es.tEz (V/m) @ t=0.82
-13.434019254917144
% V (V) @ t=0.82
0.016554396750877613
% es.normE (V/m) @ t=0.84
19.556613534603184
% es.EX (V/m) @ t=0.84
12.410617663619947
% es.EY (V/m) @ t=0.84
3.711207764957517
% es.EZ (V/m) @ t=0.84
-13.594192203349273
% es.tEX (V/m) @ t=0.84
12.41061766361991
% es.tEY (V/m) @ t=0.84
0
% es.tEZ (V/m) @ t=0.84
-13.59419220334923
% es.Ex (V/m) @ t=0.84
12.410617663619947
% es.Ey (V/m) @ t=0.84
3.711207764957517
% es.Ez (V/m) @ t=0.84
-13.594192203349273
% es.tEx (V/m) @ t=0.84
12.41061766361991
% es.tEy (V/m) @ t=0.84
0
% es.tEz (V/m) @ t=0.84
-13.59419220334923
% V (V) @ t=0.84
0.016751774701284198
% es.normE (V/m) @ t=0.86
19.78925957649103
% es.EX (V/m) @ t=0.86
12.558254360863579
% es.EY (V/m) @ t=0.86
3.7553564602549754
% es.EZ (V/m) @ t=0.86
-13.755909430342491
% es.tEX (V/m) @ t=0.86
12.558254360863558
% es.tEY (V/m) @ t=0.86
0
% es.tEZ (V/m) @ t=0.86
-13.755909430342463
% es.Ex (V/m) @ t=0.86
12.558254360863579
% es.Ey (V/m) @ t=0.86
3.7553564602549754
% es.Ez (V/m) @ t=0.86
-13.755909430342491
% es.tEx (V/m) @ t=0.86
12.558254360863558
% es.tEy (V/m) @ t=0.86
0
% es.tEz (V/m) @ t=0.86
-13.755909430342463
% V (V) @ t=0.86
0.016951055773308965
% es.normE (V/m) @ t=0.88
20.024127153771126
% es.EX (V/m) @ t=0.88
12.707300791757838
% es.EY (V/m) @ t=0.88
3.7999267387834514
% es.EZ (V/m) @ t=0.88
-13.919170935896858
% es.tEX (V/m) @ t=0.88
12.707300791757824
% es.tEY (V/m) @ t=0.88
0
% es.tEZ (V/m) @ t=0.88
-13.91917093589683
% es.Ex (V/m) @ t=0.88
12.707300791757838
% es.Ey (V/m) @ t=0.88
3.7999267387834514
% es.Ez (V/m) @ t=0.88
-13.919170935896858
% es.tEx (V/m) @ t=0.88
12.707300791757824
% es.tEy (V/m) @ t=0.88
0
% es.tEz (V/m) @ t=0.88
-13.91917093589683
% V (V) @ t=0.88
0.01715223996695191
% es.normE (V/m) @ t=0.9
20.261216266443398
% es.EX (V/m) @ t=0.9
12.857756956302797
% es.EY (V/m) @ t=0.9
3.844918600542817
% es.EZ (V/m) @ t=0.9
-14.083976720012268
% es.tEX (V/m) @ t=0.9
12.857756956302767
% es.tEY (V/m) @ t=0.9
0
% es.tEZ (V/m) @ t=0.9
-14.083976720012238
% es.Ex (V/m) @ t=0.9
12.857756956302797
% es.Ey (V/m) @ t=0.9
3.844918600542817
% es.Ez (V/m) @ t=0.9
-14.083976720012268
% es.tEx (V/m) @ t=0.9
12.857756956302767
% es.tEy (V/m) @ t=0.9
0
% es.tEz (V/m) @ t=0.9
-14.083976720012238
% V (V) @ t=0.9
0.01735532728221305
% es.normE (V/m) @ t=0.92
20.50052691450793
% es.EX (V/m) @ t=0.92
13.009622854498348
% es.EY (V/m) @ t=0.92
3.8903320455331
% es.EZ (V/m) @ t=0.92
-14.250326782688827
% es.tEX (V/m) @ t=0.92
13.009622854498332
% es.tEY (V/m) @ t=0.92
0
% es.tEZ (V/m) @ t=0.92
-14.250326782688797
% es.Ex (V/m) @ t=0.92
13.009622854498348
% es.Ey (V/m) @ t=0.92
3.8903320455331
% es.Ez (V/m) @ t=0.92
-14.250326782688827
% es.tEx (V/m) @ t=0.92
13.009622854498332
% es.tEy (V/m) @ t=0.92
0
% es.tEz (V/m) @ t=0.92
-14.250326782688797
% V (V) @ t=0.92
0.017560317719092357
% es.normE (V/m) @ t=0.94
20.742059097964734
% es.EX (V/m) @ t=0.94
13.162898486344567
% es.EY (V/m) @ t=0.94
3.9361670737543077
% es.EZ (V/m) @ t=0.94
-14.418221123926553
% es.tEX (V/m) @ t=0.94
13.162898486344545
% es.tEY (V/m) @ t=0.94
0
% es.tEZ (V/m) @ t=0.94
-14.418221123926523
% es.Ex (V/m) @ t=0.94
13.162898486344567
% es.Ey (V/m) @ t=0.94
3.9361670737543077
% es.Ez (V/m) @ t=0.94
-14.418221123926553
% es.tEx (V/m) @ t=0.94
13.162898486344545
% es.tEy (V/m) @ t=0.94
0
% es.tEz (V/m) @ t=0.94
-14.418221123926523
% V (V) @ t=0.94
0.017767211277589855
% es.normE (V/m) @ t=0.96
20.98581281681372
% es.EX (V/m) @ t=0.96
13.317583851841405
% es.EY (V/m) @ t=0.96
3.9824236852064985
% es.EZ (V/m) @ t=0.96
-14.587659743725336
% es.tEX (V/m) @ t=0.96
13.317583851841375
% es.tEY (V/m) @ t=0.96
0
% es.tEZ (V/m) @ t=0.96
-14.587659743725306
% es.Ex (V/m) @ t=0.96
13.317583851841405
% es.Ey (V/m) @ t=0.96
3.9824236852064985
% es.Ez (V/m) @ t=0.96
-14.587659743725336
% es.tEx (V/m) @ t=0.96
13.317583851841375
% es.tEy (V/m) @ t=0.96
0
% es.tEz (V/m) @ t=0.96
-14.587659743725306
% V (V) @ t=0.96
0.01797600795770553
% es.normE (V/m) @ t=0.98
21.231788071055007
% es.EX (V/m) @ t=0.98
13.473678950988917
% es.EY (V/m) @ t=0.98
4.029101879889598
% es.EZ (V/m) @ t=0.98
-14.75864264208531
% es.tEX (V/m) @ t=0.98
13.473678950988887
% es.tEY (V/m) @ t=0.98
0
% es.tEZ (V/m) @ t=0.98
-14.758642642085281
% es.Ex (V/m) @ t=0.98
13.473678950988917
% es.Ey (V/m) @ t=0.98
4.029101879889598
% es.Ez (V/m) @ t=0.98
-14.75864264208531
% es.tEx (V/m) @ t=0.98
13.473678950988887
% es.tEy (V/m) @ t=0.98
0
% es.tEz (V/m) @ t=0.98
-14.758642642085281
% V (V) @ t=0.98
0.018186707759439393
% es.normE (V/m) @ t=1
21.480998163431767
% es.EX (V/m) @ t=1
13.631827211456887
% es.EY (V/m) @ t=1
4.076393888289502
% es.EZ (V/m) @ t=1
-14.931873849469996
% es.tEX (V/m) @ t=1
13.631827211456873
% es.tEY (V/m) @ t=1
0
% es.tEZ (V/m) @ t=1
-14.931873849469952
% es.Ex (V/m) @ t=1
13.631827211456887
% es.Ey (V/m) @ t=1
4.076393888289502
% es.Ez (V/m) @ t=1
-14.931873849469996
% es.tEx (V/m) @ t=1
13.631827211456873
% es.tEy (V/m) @ t=1
0
% es.tEz (V/m) @ t=1
-14.931873849469952
% V (V) @ t=1
0.018400177148048112
% es.normE (V/m) @ t=1.02
21.733351963554206
% es.EX (V/m) @ t=1.02
13.791970767208099
% es.EY (V/m) @ t=1.02
4.124282422345605
% es.EZ (V/m) @ t=1.02
-15.107290049589167
% es.tEX (V/m) @ t=1.02
13.791970767208083
% es.tEY (V/m) @ t=1.02
0
% es.tEZ (V/m) @ t=1.02
-15.107290049589137
% es.Ex (V/m) @ t=1.02
13.791970767208099
% es.Ey (V/m) @ t=1.02
4.124282422345605
% es.Ez (V/m) @ t=1.02
-15.107290049589167
% es.tEx (V/m) @ t=1.02
13.791970767208083
% es.tEy (V/m) @ t=1.02
0
% es.tEz (V/m) @ t=1.02
-15.107290049589137
% V (V) @ t=1.02
0.018616338198827513
% es.normE (V/m) @ t=1.04
21.988193776515004
% es.EX (V/m) @ t=1.04
13.95369326464115
% es.EY (V/m) @ t=1.04
4.172643092233297
% es.EZ (V/m) @ t=1.04
-15.284435673569082
% es.tEX (V/m) @ t=1.04
13.953693264641133
% es.tEY (V/m) @ t=1.04
0
% es.tEZ (V/m) @ t=1.04
-15.284435673569051
% es.Ex (V/m) @ t=1.04
13.95369326464115
% es.Ey (V/m) @ t=1.04
4.172643092233297
% es.Ez (V/m) @ t=1.04
-15.284435673569082
% es.tEx (V/m) @ t=1.04
13.953693264641133
% es.tEy (V/m) @ t=1.04
0
% es.tEz (V/m) @ t=1.04