% Model:              1 neuron.mph
% Version:            COMSOL 6.0.0.405
% Date:               Mar 16 2023, 19:59
% Dimension:          0
% Nodes:              14017
% Expressions:        14017
% Description:        Electric field norm, Electric field, X component, Electric field, Y component, Electric field, Z component, Tangential electric field, X component, Tangential electric field, Y component, Tangential electric field, Z component, Electric field, x component, Electric field, y component, Electric field, z component, Tangential electric field, x component, Tangential electric field, y component, Tangential electric field, z component, Electric potential
% Length unit:        mm
% x
1.3300000000000003
% y
12.200000000000001
% z
1.66
% es.normE (V/m) @ t=0
13.653993160808849
% es.EX (V/m) @ t=0
8.664818019105429
% es.EY (V/m) @ t=0
2.5910827881413554
% es.EZ (V/m) @ t=0
-9.491162781921368
% es.tEX (V/m) @ t=0
8.664818019105397
% es.tEY (V/m) @ t=0
0
% es.tEZ (V/m) @ t=0
-9.491162781921346
% es.Ex (V/m) @ t=0
8.664818019105429
% es.Ey (V/m) @ t=0
2.5910827881413554
% es.Ez (V/m) @ t=0
-9.491162781921368
% es.tEx (V/m) @ t=0
8.664818019105397
% es.tEy (V/m) @ t=0
0
% es.tEz (V/m) @ t=0
-9.491162781921346
% V (V) @ t=0
0.011695716980022045
% es.normE (V/m) @ t=0.02
11.832638899368312
% es.EX (V/m) @ t=0.02
7.508987409094676
% es.EY (V/m) @ t=0.02
2.2454491249480153
% es.EZ (V/m) @ t=0.02
-8.225103133613072
% es.tEX (V/m) @ t=0.02
7.508987409094647
% es.tEY (V/m) @ t=0.02
0
% es.tEZ (V/m) @ t=0.02
-8.225103133613057
% es.Ex (V/m) @ t=0.02
7.508987409094676
% es.Ey (V/m) @ t=0.02
2.2454491249480153
% es.Ez (V/m) @ t=0.02
-8.225103133613072
% es.tEx (V/m) @ t=0.02
7.508987409094647
% es.tEy (V/m) @ t=0.02
0
% es.tEz (V/m) @ t=0.02
-8.225103133613057
% V (V) @ t=0.02
0.010135584084263308
% es.normE (V/m) @ t=0.04
11.981775433041719
% es.EX (V/m) @ t=0.04
7.603629385520028
% es.EY (V/m) @ t=0.04
2.273750376166289
% es.EZ (V/m) @ t=0.04
-8.328770910749848
% es.tEX (V/m) @ t=0.04
7.603629385520007
% es.tEY (V/m) @ t=0.04
0
% es.tEZ (V/m) @ t=0.04
-8.328770910749832
% es.Ex (V/m) @ t=0.04
7.603629385520028
% es.Ey (V/m) @ t=0.04
2.273750376166289
% es.Ez (V/m) @ t=0.04
-8.328770910749848
% es.tEx (V/m) @ t=0.04
7.603629385520007
% es.tEy (V/m) @ t=0.04
0
% es.tEz (V/m) @ t=0.04
-8.328770910749832
% V (V) @ t=0.04
0.010263331241630268
% es.normE (V/m) @ t=0.06
12.132288725945926
% es.EX (V/m) @ t=0.06
7.699145052988005
% es.EY (V/m) @ t=0.06
2.302312893831024
% es.EZ (V/m) @ t=0.06
-8.433395700625407
% es.tEX (V/m) @ t=0.06
7.699145052987983
% es.tEY (V/m) @ t=0.06
0
% es.tEZ (V/m) @ t=0.06
-8.433395700625393
% es.Ex (V/m) @ t=0.06
7.699145052988005
% es.Ey (V/m) @ t=0.06
2.302312893831024
% es.Ez (V/m) @ t=0.06
-8.433395700625407
% es.tEx (V/m) @ t=0.06
7.699145052987983
% es.tEy (V/m) @ t=0.06
0
% es.tEz (V/m) @ t=0.06
-8.433395700625393
% V (V) @ t=0.06
0.010392257695882572
% es.normE (V/m) @ t=0.08
12.287550379246802
% es.EX (V/m) @ t=0.08
7.797674018321667
% es.EY (V/m) @ t=0.08
2.3317764562691927
% es.EZ (V/m) @ t=0.08
-8.54132117648864
% es.tEX (V/m) @ t=0.08
7.797674018321645
% es.tEY (V/m) @ t=0.08
0
% es.tEZ (V/m) @ t=0.08
-8.541321176488617
% es.Ex (V/m) @ t=0.08
7.797674018321667
% es.Ey (V/m) @ t=0.08
2.3317764562691927
% es.Ez (V/m) @ t=0.08
-8.54132117648864
% es.tEx (V/m) @ t=0.08
7.797674018321645
% es.tEy (V/m) @ t=0.08
0
% es.tEz (V/m) @ t=0.08
-8.541321176488617
% V (V) @ t=0.08
0.010525251593113216
% es.normE (V/m) @ t=0.1
12.443264820479783
% es.EX (V/m) @ t=0.1
7.896490321766883
% es.EY (V/m) @ t=0.1
2.3613259393548507
% es.EZ (V/m) @ t=0.1
-8.649561394843625
% es.tEX (V/m) @ t=0.1
7.896490321766861
% es.tEY (V/m) @ t=0.1
0
% es.tEZ (V/m) @ t=0.1
-8.649561394843609
% es.Ex (V/m) @ t=0.1
7.896490321766883
% es.Ey (V/m) @ t=0.1
2.3613259393548507
% es.Ez (V/m) @ t=0.1
-8.649561394843625
% es.tEx (V/m) @ t=0.1
7.896490321766861
% es.tEy (V/m) @ t=0.1
0
% es.tEz (V/m) @ t=0.1
-8.649561394843609
% V (V) @ t=0.1
0.010658633348244512
% es.normE (V/m) @ t=0.12
12.598979261712763
% es.EX (V/m) @ t=0.12
7.99530662521206
% es.EY (V/m) @ t=0.12
2.3908754224405264
% es.EZ (V/m) @ t=0.12
-8.757801613198637
% es.tEX (V/m) @ t=0.12
7.9953066252120415
% es.tEY (V/m) @ t=0.12
0
% es.tEZ (V/m) @ t=0.12
-8.757801613198616
% es.Ex (V/m) @ t=0.12
7.99530662521206
% es.Ey (V/m) @ t=0.12
2.3908754224405264
% es.Ez (V/m) @ t=0.12
-8.757801613198637
% es.tEx (V/m) @ t=0.12
7.9953066252120415
% es.tEy (V/m) @ t=0.12
0
% es.tEz (V/m) @ t=0.12
-8.757801613198616
% V (V) @ t=0.12
0.010792015103375803
% es.normE (V/m) @ t=0.14
12.763987908213903
% es.EX (V/m) @ t=0.14
8.100021042902187
% es.EY (V/m) @ t=0.14
2.4221887001508087
% es.EZ (V/m) @ t=0.14
-8.872502408433057
% es.tEX (V/m) @ t=0.14
8.100021042902164
% es.tEY (V/m) @ t=0.14
0
% es.tEZ (V/m) @ t=0.14
-8.872502408433036
% es.Ex (V/m) @ t=0.14
8.100021042902187
% es.Ey (V/m) @ t=0.14
2.4221887001508087
% es.Ez (V/m) @ t=0.14
-8.872502408433057
% es.tEx (V/m) @ t=0.14
8.100021042902164
% es.tEy (V/m) @ t=0.14
0
% es.tEz (V/m) @ t=0.14
-8.872502408433036
% V (V) @ t=0.14
0.010933357924540376
% es.normE (V/m) @ t=0.16
12.930834374943974
% es.EX (V/m) @ t=0.16
8.20590174359979
% es.EY (V/m) @ t=0.16
2.4538507475887803
% es.EZ (V/m) @ t=0.16
-8.988480707072762
% es.tEX (V/m) @ t=0.16
8.205901743599767
% es.tEY (V/m) @ t=0.16
0
% es.tEZ (V/m) @ t=0.16
-8.988480707072732
% es.Ex (V/m) @ t=0.16
8.20590174359979
% es.Ey (V/m) @ t=0.16
2.4538507475887803
% es.Ez (V/m) @ t=0.16
-8.988480707072762
% es.tEx (V/m) @ t=0.16
8.205901743599767
% es.tEy (V/m) @ t=0.16
0
% es.tEz (V/m) @ t=0.16
-8.988480707072732
% V (V) @ t=0.16
0.011076274953265235
% es.normE (V/m) @ t=0.18
13.097680841674059
% es.EX (V/m) @ t=0.18
8.311782444297355
% es.EY (V/m) @ t=0.18
2.485512795026805
% es.EZ (V/m) @ t=0.18
-9.104459005712487
% es.tEX (V/m) @ t=0.18
8.31178244429735
% es.tEY (V/m) @ t=0.18
0
% es.tEZ (V/m) @ t=0.18
-9.104459005712464
% es.Ex (V/m) @ t=0.18
8.311782444297355
% es.Ey (V/m) @ t=0.18
2.485512795026805
% es.Ez (V/m) @ t=0.18
-9.104459005712487
% es.tEx (V/m) @ t=0.18
8.31178244429735
% es.tEy (V/m) @ t=0.18
0
% es.tEz (V/m) @ t=0.18
-9.104459005712464
% V (V) @ t=0.18
0.01121919198199009
% es.normE (V/m) @ t=0.2
13.264527308404142
% es.EX (V/m) @ t=0.2
8.417663144994943
% es.EY (V/m) @ t=0.2
2.5171748424647977
% es.EZ (V/m) @ t=0.2
-9.220437304352219
% es.tEX (V/m) @ t=0.2
8.417663144994906
% es.tEY (V/m) @ t=0.2
0
% es.tEZ (V/m) @ t=0.2
-9.220437304352197
% es.Ex (V/m) @ t=0.2
8.417663144994943
% es.Ey (V/m) @ t=0.2
2.5171748424647977
% es.Ez (V/m) @ t=0.2
-9.220437304352219
% es.tEx (V/m) @ t=0.2
8.417663144994906
% es.tEy (V/m) @ t=0.2
0
% es.tEz (V/m) @ t=0.2
-9.220437304352197
% V (V) @ t=0.2
0.011362109010714948
% es.normE (V/m) @ t=0.22
13.43137377513423
% es.EX (V/m) @ t=0.22
8.523543845692501
% es.EY (V/m) @ t=0.22
2.54883688990283
% es.EZ (V/m) @ t=0.22
-9.336415602991957
% es.tEX (V/m) @ t=0.22
8.523543845692489
% es.tEY (V/m) @ t=0.22
0
% es.tEZ (V/m) @ t=0.22
-9.336415602991936
% es.Ex (V/m) @ t=0.22
8.523543845692501
% es.Ey (V/m) @ t=0.22
2.54883688990283
% es.Ez (V/m) @ t=0.22
-9.336415602991957
% es.tEx (V/m) @ t=0.22
8.523543845692489
% es.tEy (V/m) @ t=0.22
0
% es.tEz (V/m) @ t=0.22
-9.336415602991936
% V (V) @ t=0.22
0.011505026039439807
% es.normE (V/m) @ t=0.24
13.598220241864306
% es.EX (V/m) @ t=0.24
8.62942454639008
% es.EY (V/m) @ t=0.24
2.5804989373408014
% es.EZ (V/m) @ t=0.24
-9.452393901631675
% es.tEX (V/m) @ t=0.24
8.629424546390057
% es.tEY (V/m) @ t=0.24
0
% es.tEZ (V/m) @ t=0.24
-9.452393901631668
% es.Ex (V/m) @ t=0.24
8.62942454639008
% es.Ey (V/m) @ t=0.24
2.5804989373408014
% es.Ez (V/m) @ t=0.24
-9.452393901631675
% es.tEx (V/m) @ t=0.24
8.629424546390057
% es.tEy (V/m) @ t=0.24
0
% es.tEz (V/m) @ t=0.24
-9.452393901631668
% V (V) @ t=0.24
0.011647943068164664
% es.normE (V/m) @ t=0.26
13.773142904524345
% es.EX (V/m) @ t=0.26
8.74043039145366
% es.EY (V/m) @ t=0.26
2.6136935652123596
% es.EZ (V/m) @ t=0.26
-9.573986128916763
% es.tEX (V/m) @ t=0.26
8.740430391453664
% es.tEY (V/m) @ t=0.26
0
% es.tEZ (V/m) @ t=0.26
-9.573986128916747
% es.Ex (V/m) @ t=0.26
8.74043039145366
% es.Ey (V/m) @ t=0.26
2.6136935652123596
% es.Ez (V/m) @ t=0.26
-9.573986128916763
% es.tEx (V/m) @ t=0.26
8.740430391453664
% es.tEy (V/m) @ t=0.26
0
% es.tEz (V/m) @ t=0.26
-9.573986128916747
% V (V) @ t=0.26
0.01179777804396304
% es.normE (V/m) @ t=0.28
13.95188657295498
% es.EX (V/m) @ t=0.28
8.853861042250891
% es.EY (V/m) @ t=0.28
2.6476132867705258
% es.EZ (V/m) @ t=0.28
-9.698234415308868
% es.tEX (V/m) @ t=0.28
8.853861042250887
% es.tEY (V/m) @ t=0.28
0
% es.tEZ (V/m) @ t=0.28
-9.698234415308853
% es.Ex (V/m) @ t=0.28
8.853861042250891
% es.Ey (V/m) @ t=0.28
2.6476132867705258
% es.Ez (V/m) @ t=0.28
-9.698234415308868
% es.tEx (V/m) @ t=0.28
8.853861042250887
% es.tEy (V/m) @ t=0.28
0
% es.tEz (V/m) @ t=0.28
-9.698234415308853
% V (V) @ t=0.28
0.011950886035413532
% es.normE (V/m) @ t=0.3
14.130630241385612
% es.EX (V/m) @ t=0.3
8.967291693048146
% es.EY (V/m) @ t=0.3
2.6815330083286955
% es.EZ (V/m) @ t=0.3
-9.822482701700958
% es.tEX (V/m) @ t=0.3
8.967291693048125
% es.tEY (V/m) @ t=0.3
0
% es.tEZ (V/m) @ t=0.3
-9.822482701700936
% es.Ex (V/m) @ t=0.3
8.967291693048146
% es.Ey (V/m) @ t=0.3
2.6815330083286955
% es.Ez (V/m) @ t=0.3
-9.822482701700958
% es.tEx (V/m) @ t=0.3
8.967291693048125
% es.tEy (V/m) @ t=0.3
0
% es.tEz (V/m) @ t=0.3
-9.822482701700936
% V (V) @ t=0.3
0.012103994026864023
% es.normE (V/m) @ t=0.32
14.309373909816243
% es.EX (V/m) @ t=0.32
9.080722343845373
% es.EY (V/m) @ t=0.32
2.7154527298868576
% es.EZ (V/m) @ t=0.32
-9.94673098809307
% es.tEX (V/m) @ t=0.32
9.080722343845363
% es.tEY (V/m) @ t=0.32
0
% es.tEZ (V/m) @ t=0.32
-9.94673098809304
% es.Ex (V/m) @ t=0.32
9.080722343845373
% es.Ey (V/m) @ t=0.32
2.7154527298868576
% es.Ez (V/m) @ t=0.32
-9.94673098809307
% es.tEx (V/m) @ t=0.32
9.080722343845363
% es.tEy (V/m) @ t=0.32
0
% es.tEz (V/m) @ t=0.32
-9.94673098809304
% V (V) @ t=0.32
0.012257102018314515
% es.normE (V/m) @ t=0.34
14.488117578246875
% es.EX (V/m) @ t=0.34
9.194152994642618
% es.EY (V/m) @ t=0.34
2.7493724514450237
% es.EZ (V/m) @ t=0.34
-10.070979274485168
% es.tEX (V/m) @ t=0.34
9.194152994642614
% es.tEY (V/m) @ t=0.34
0
% es.tEZ (V/m) @ t=0.34
-10.070979274485138
% es.Ex (V/m) @ t=0.34
9.194152994642618
% es.Ey (V/m) @ t=0.34
2.7493724514450237
% es.Ez (V/m) @ t=0.34
-10.070979274485168
% es.tEx (V/m) @ t=0.34
9.194152994642614
% es.tEy (V/m) @ t=0.34
0
% es.tEz (V/m) @ t=0.34
-10.070979274485138
% V (V) @ t=0.34
0.012410210009765006
% es.normE (V/m) @ t=0.36
14.666861246677495
% es.EX (V/m) @ t=0.36
9.307583645439875
% es.EY (V/m) @ t=0.36
2.7832921730032
% es.EZ (V/m) @ t=0.36
-10.195227560877242
% es.tEX (V/m) @ t=0.36
9.307583645439859
% es.tEY (V/m) @ t=0.36
0
% es.tEZ (V/m) @ t=0.36
-10.195227560877214
% es.Ex (V/m) @ t=0.36
9.307583645439875
% es.Ey (V/m) @ t=0.36
2.7832921730032
% es.Ez (V/m) @ t=0.36
-10.195227560877242
% es.tEx (V/m) @ t=0.36
9.307583645439859
% es.tEy (V/m) @ t=0.36
0
% es.tEz (V/m) @ t=0.36
-10.195227560877214
% V (V) @ t=0.36
0.012563318001215497
% es.normE (V/m) @ t=0.38
14.852237437761879
% es.EX (V/m) @ t=0.38
9.425223292126192
% es.EY (V/m) @ t=0.38
2.818470531602205
% es.EZ (V/m) @ t=0.38
-10.324086245922636
% es.tEX (V/m) @ t=0.38
9.425223292126187
% es.tEY (V/m) @ t=0.38
0
% es.tEZ (V/m) @ t=0.38
-10.324086245922613
% es.Ex (V/m) @ t=0.38
9.425223292126192
% es.Ey (V/m) @ t=0.38
2.818470531602205
% es.Ez (V/m) @ t=0.38
-10.324086245922636
% es.tEx (V/m) @ t=0.38
9.425223292126187
% es.tEy (V/m) @ t=0.38
0
% es.tEz (V/m) @ t=0.38
-10.324086245922613
% V (V) @ t=0.38
0.01272210726835748
% es.normE (V/m) @ t=0.4
15.043668708844262
% es.EX (V/m) @ t=0.4
9.546705489852313
% es.EY (V/m) @ t=0.4
2.8547979474105825
% es.EZ (V/m) @ t=0.4
-10.457153937725366
% es.tEX (V/m) @ t=0.4
9.546705489852311
% es.tEY (V/m) @ t=0.4
0
% es.tEZ (V/m) @ t=0.4
-10.457153937725343
% es.Ex (V/m) @ t=0.4
9.546705489852313
% es.Ey (V/m) @ t=0.4
2.8547979474105825
% es.Ez (V/m) @ t=0.4
-10.457153937725366
% es.tEx (V/m) @ t=0.4
9.546705489852311
% es.tEy (V/m) @ t=0.4
0
% es.tEz (V/m) @ t=0.4
-10.457153937725343
% V (V) @ t=0.4
0.012886083186280557
% es.normE (V/m) @ t=0.42
15.235099979926641
% es.EX (V/m) @ t=0.42
9.668187687578444
% es.EY (V/m) @ t=0.42
2.891125363218857
% es.EZ (V/m) @ t=0.42
-10.59022162952813
% es.tEX (V/m) @ t=0.42
9.668187687578435
% es.tEY (V/m) @ t=0.42
0
% es.tEZ (V/m) @ t=0.42
-10.590221629528122
% es.Ex (V/m) @ t=0.42
9.668187687578444
% es.Ey (V/m) @ t=0.42
2.891125363218857
% es.Ez (V/m) @ t=0.42
-10.59022162952813
% es.tEx (V/m) @ t=0.42
9.668187687578435
% es.tEy (V/m) @ t=0.42
0
% es.tEz (V/m) @ t=0.42
-10.590221629528122
% V (V) @ t=0.42
0.013050059104203636
% es.normE (V/m) @ t=0.44
15.426531251009067
% es.EX (V/m) @ t=0.44
9.789669885304614
% es.EY (V/m) @ t=0.44
2.9274527790271523
% es.EZ (V/m) @ t=0.44
-10.723289321330896
% es.tEX (V/m) @ t=0.44
9.789669885304601
% es.tEY (V/m) @ t=0.44
0
% es.tEZ (V/m) @ t=0.44
-10.72328932133088
% es.Ex (V/m) @ t=0.44
9.789669885304614
% es.Ey (V/m) @ t=0.44
2.9274527790271523
% es.Ez (V/m) @ t=0.44
-10.723289321330896
% es.tEx (V/m) @ t=0.44
9.789669885304601
% es.tEy (V/m) @ t=0.44
0
% es.tEz (V/m) @ t=0.44
-10.72328932133088
% V (V) @ t=0.44
0.013214035022126716
% es.normE (V/m) @ t=0.46
15.617962522091467
% es.EX (V/m) @ t=0.46
9.91115208303074
% es.EY (V/m) @ t=0.46
2.963780194835505
% es.EZ (V/m) @ t=0.46
-10.856357013133675
% es.tEX (V/m) @ t=0.46
9.911152083030727
% es.tEY (V/m) @ t=0.46
0
% es.tEZ (V/m) @ t=0.46
-10.856357013133644
% es.Ex (V/m) @ t=0.46
9.91115208303074
% es.Ey (V/m) @ t=0.46
2.963780194835505
% es.Ez (V/m) @ t=0.46
-10.856357013133675
% es.tEx (V/m) @ t=0.46
9.911152083030727
% es.tEy (V/m) @ t=0.46
0
% es.tEz (V/m) @ t=0.46
-10.856357013133644
% V (V) @ t=0.46
0.013378010940049798
% es.normE (V/m) @ t=0.48
15.809393793173859
% es.EX (V/m) @ t=0.48
10.032634280756893
% es.EY (V/m) @ t=0.48
3.0001076106437794
% es.EZ (V/m) @ t=0.48
-10.989424704936425
% es.tEX (V/m) @ t=0.48
10.032634280756856
% es.tEY (V/m) @ t=0.48
0
% es.tEZ (V/m) @ t=0.48
-10.989424704936402
% es.Ex (V/m) @ t=0.48
10.032634280756893
% es.Ey (V/m) @ t=0.48
3.0001076106437794
% es.Ez (V/m) @ t=0.48
-10.989424704936425
% es.tEx (V/m) @ t=0.48
10.032634280756856
% es.tEy (V/m) @ t=0.48
0
% es.tEz (V/m) @ t=0.48
-10.989424704936402
% V (V) @ t=0.48
0.013541986857972876
% es.normE (V/m) @ t=0.5
16.002897659249665
% es.EX (V/m) @ t=0.5
10.155431745473726
% es.EY (V/m) @ t=0.5
3.036828334577729
% es.EZ (V/m) @ t=0.5
-11.123933099330308
% es.tEX (V/m) @ t=0.5
10.155431745473699
% es.tEY (V/m) @ t=0.5
0
% es.tEZ (V/m) @ t=0.5
-11.123933099330293
% es.Ex (V/m) @ t=0.5
10.155431745473726
% es.Ey (V/m) @ t=0.5
3.036828334577729
% es.Ez (V/m) @ t=0.5
-11.123933099330308
% es.tEx (V/m) @ t=0.5
10.155431745473699
% es.tEy (V/m) @ t=0.5
0
% es.tEz (V/m) @ t=0.5
-11.123933099330293
% V (V) @ t=0.5
0.01370773812424816
% es.normE (V/m) @ t=0.52
16.201165545635334
% es.EX (V/m) @ t=0.52
10.281252453359901
% es.EY (V/m) @ t=0.52
3.0744531077371726
% es.EZ (V/m) @ t=0.52
-11.261753060347871
% es.tEX (V/m) @ t=0.52
10.281252453359881
% es.tEY (V/m) @ t=0.52
0
% es.tEZ (V/m) @ t=0.52
-11.261753060347843
% es.Ex (V/m) @ t=0.52
10.281252453359901
% es.Ey (V/m) @ t=0.52
3.0744531077371726
% es.Ez (V/m) @ t=0.52
-11.261753060347871
% es.tEx (V/m) @ t=0.52
10.281252453359881
% es.tEy (V/m) @ t=0.52
0
% es.tEz (V/m) @ t=0.52
-11.261753060347843
% V (V) @ t=0.52
0.013877570166378717
% es.normE (V/m) @ t=0.54
16.40116653802711
% es.EX (V/m) @ t=0.54
10.408172988819006
% es.EY (V/m) @ t=0.54
3.1124067655445726
% es.EZ (V/m) @ t=0.54
-11.40077773831284
% es.tEX (V/m) @ t=0.54
10.408172988818976
% es.tEY (V/m) @ t=0.54
0
% es.tEZ (V/m) @ t=0.54
-11.400777738312811
% es.Ex (V/m) @ t=0.54
10.408172988819006
% es.Ey (V/m) @ t=0.54
3.1124067655445726
% es.Ez (V/m) @ t=0.54
-11.40077773831284
% es.tEx (V/m) @ t=0.54
10.408172988818976
% es.tEy (V/m) @ t=0.54
0
% es.tEz (V/m) @ t=0.54
-11.400777738312811
% V (V) @ t=0.54
0.014048886756576751
% es.normE (V/m) @ t=0.56
16.60290063642502
% es.EX (V/m) @ t=0.56
10.536193351851047
% es.EY (V/m) @ t=0.56
3.150689307999971
% es.EZ (V/m) @ t=0.56
-11.541007133225229
% es.tEX (V/m) @ t=0.56
10.536193351851
% es.tEY (V/m) @ t=0.56
0
% es.tEZ (V/m) @ t=0.56
-11.541007133225214
% es.Ex (V/m) @ t=0.56
10.536193351851047
% es.Ey (V/m) @ t=0.56
3.150689307999971
% es.Ez (V/m) @ t=0.56
-11.541007133225229
% es.tEx (V/m) @ t=0.56
10.536193351851
% es.tEy (V/m) @ t=0.56
0
% es.tEz (V/m) @ t=0.56
-11.541007133225214
% V (V) @ t=0.56
0.014221687894842266
% es.normE (V/m) @ t=0.58
16.806367840828994
% es.EX (V/m) @ t=0.58
10.66531354245593
% es.EY (V/m) @ t=0.58
3.189300735103325
% es.EZ (V/m) @ t=0.58
-11.682441245085037
% es.tEX (V/m) @ t=0.58
10.66531354245591
% es.tEY (V/m) @ t=0.58
0
% es.tEZ (V/m) @ t=0.58
-11.682441245085009
% es.Ex (V/m) @ t=0.58
10.66531354245593
% es.Ey (V/m) @ t=0.58
3.189300735103325
% es.Ez (V/m) @ t=0.58
-11.682441245085037
% es.tEx (V/m) @ t=0.58
10.66531354245591
% es.tEy (V/m) @ t=0.58
0
% es.tEz (V/m) @ t=0.58
-11.682441245085009
% V (V) @ t=0.58
0.014395973581175253
% es.normE (V/m) @ t=0.6
17.011568151239146
% es.EX (V/m) @ t=0.6
10.795533560633801
% es.EY (V/m) @ t=0.6
3.228241046854613
% es.EZ (V/m) @ t=0.6
-11.82508007389228
% es.tEX (V/m) @ t=0.6
10.795533560633775
% es.tEY (V/m) @ t=0.6
0
% es.tEZ (V/m) @ t=0.6
-11.825080073892265
% es.Ex (V/m) @ t=0.6
10.795533560633801
% es.Ey (V/m) @ t=0.6
3.228241046854613
% es.Ez (V/m) @ t=0.6
-11.82508007389228
% es.tEx (V/m) @ t=0.6
10.795533560633775
% es.tEy (V/m) @ t=0.6
0
% es.tEz (V/m) @ t=0.6
-11.825080073892265
% V (V) @ t=0.6
0.014571743815575723
% es.normE (V/m) @ t=0.62
17.21850156765538
% es.EX (V/m) @ t=0.62
10.926853406384575
% es.EY (V/m) @ t=0.62
3.267510243253886
% es.EZ (V/m) @ t=0.62
-11.968923619646905
% es.tEX (V/m) @ t=0.62
10.926853406384549
% es.tEY (V/m) @ t=0.62
0
% es.tEZ (V/m) @ t=0.62
-11.968923619646876
% es.Ex (V/m) @ t=0.62
10.926853406384575
% es.Ey (V/m) @ t=0.62
3.267510243253886
% es.Ez (V/m) @ t=0.62
-11.968923619646905
% es.tEx (V/m) @ t=0.62
10.926853406384549
% es.tEy (V/m) @ t=0.62
0
% es.tEz (V/m) @ t=0.62
-11.968923619646876
% V (V) @ t=0.62
0.014748998598043673
% es.normE (V/m) @ t=0.64
17.427168090077757
% es.EX (V/m) @ t=0.64
11.05927307970829
% es.EY (V/m) @ t=0.64
3.3071083243011508
% es.EZ (V/m) @ t=0.64
-12.11397188234898
% es.tEX (V/m) @ t=0.64
11.059273079708273
% es.tEY (V/m) @ t=0.64
0
% es.tEZ (V/m) @ t=0.64
-12.113971882348965
% es.Ex (V/m) @ t=0.64
11.05927307970829
% es.Ey (V/m) @ t=0.64
3.3071083243011508
% es.Ez (V/m) @ t=0.64
-12.11397188234898
% es.tEx (V/m) @ t=0.64
11.059273079708273
% es.tEy (V/m) @ t=0.64
0
% es.tEz (V/m) @ t=0.64
-12.113971882348965
% V (V) @ t=0.64
0.014927737928579104
% es.normE (V/m) @ t=0.66
17.637567718506247
% es.EX (V/m) @ t=0.66
11.192792580604898
% es.EY (V/m) @ t=0.66
3.347035289996323
% es.EZ (V/m) @ t=0.66
-12.260224861998493
% es.tEX (V/m) @ t=0.66
11.19279258060487
% es.tEY (V/m) @ t=0.66
0
% es.tEZ (V/m) @ t=0.66
-12.26022486199845
% es.Ex (V/m) @ t=0.66
11.192792580604898
% es.Ey (V/m) @ t=0.66
3.347035289996323
% es.Ez (V/m) @ t=0.66
-12.260224861998493
% es.tEx (V/m) @ t=0.66
11.19279258060487
% es.tEy (V/m) @ t=0.66
0
% es.tEz (V/m) @ t=0.66
-12.26022486199845
% V (V) @ t=0.66
0.015107961807182007
% es.normE (V/m) @ t=0.68
17.84970045294085
% es.EX (V/m) @ t=0.68
11.327411909074417
% es.EY (V/m) @ t=0.68
3.387291140339549
% es.EZ (V/m) @ t=0.68
-12.407682558595408
% es.tEX (V/m) @ t=0.68
11.327411909074385
% es.tEY (V/m) @ t=0.68
0
% es.tEZ (V/m) @ t=0.68
-12.407682558595363
% es.Ex (V/m) @ t=0.68
11.327411909074417
% es.Ey (V/m) @ t=0.68
3.387291140339549
% es.Ez (V/m) @ t=0.68
-12.407682558595408
% es.tEx (V/m) @ t=0.68
11.327411909074385
% es.tEy (V/m) @ t=0.68
0
% es.tEz (V/m) @ t=0.68
-12.407682558595363
% V (V) @ t=0.68
0.015289670233852389
% es.normE (V/m) @ t=0.7
18.06356629338155
% es.EX (V/m) @ t=0.7
11.463131065116878
% es.EY (V/m) @ t=0.7
3.4278758753307024
% es.EZ (V/m) @ t=0.7
-12.556344972139726
% es.tEX (V/m) @ t=0.7
11.463131065116855
% es.tEY (V/m) @ t=0.7
0
% es.tEZ (V/m) @ t=0.7
-12.556344972139696
% es.Ex (V/m) @ t=0.7
11.463131065116878
% es.Ey (V/m) @ t=0.7
3.4278758753307024
% es.Ez (V/m) @ t=0.7
-12.556344972139726
% es.tEx (V/m) @ t=0.7
11.463131065116855
% es.tEy (V/m) @ t=0.7
0
% es.tEz (V/m) @ t=0.7
-12.556344972139696
% V (V) @ t=0.7
0.015472863208590253
% es.normE (V/m) @ t=0.72
18.279165239828366
% es.EX (V/m) @ t=0.72
11.59995004873223
% es.EY (V/m) @ t=0.72
3.468789494969819
% es.EZ (V/m) @ t=0.72
-12.706212102631449
% es.tEX (V/m) @ t=0.72
11.599950048732204
% es.tEY (V/m) @ t=0.72
0
% es.tEZ (V/m) @ t=0.72
-12.70621210263142
% es.Ex (V/m) @ t=0.72
11.59995004873223
% es.Ey (V/m) @ t=0.72
3.468789494969819
% es.Ez (V/m) @ t=0.72
-12.706212102631449
% es.tEx (V/m) @ t=0.72
11.599950048732204
% es.tEy (V/m) @ t=0.72
0
% es.tEz (V/m) @ t=0.72
-12.70621210263142
% V (V) @ t=0.72
0.015657540731395584
% es.normE (V/m) @ t=0.74
18.496664254032815
% es.EX (V/m) @ t=0.74
11.737974813791645
% es.EY (V/m) @ t=0.74
3.51006368303623
% es.EZ (V/m) @ t=0.74
-12.857400008484412
% es.tEX (V/m) @ t=0.74
11.737974813791624
% es.tEY (V/m) @ t=0.74
0
% es.tEZ (V/m) @ t=0.74
-12.85740000848441
% es.Ex (V/m) @ t=0.74
11.737974813791645
% es.Ey (V/m) @ t=0.74
3.51006368303623
% es.Ez (V/m) @ t=0.74
-12.857400008484412
% es.tEx (V/m) @ t=0.74
11.737974813791624
% es.tEy (V/m) @ t=0.74
0
% es.tEz (V/m) @ t=0.74
-12.85740000848441
% V (V) @ t=0.74
0.015843845818348683
% es.normE (V/m) @ t=0.76
18.719052331132275
% es.EX (V/m) @ t=0.76
11.879102175600126
% es.EY (V/m) @ t=0.76
3.552265651249636
% es.EZ (V/m) @ t=0.76
-13.011986399302202
% es.tEX (V/m) @ t=0.76
11.879102175600096
% es.tEY (V/m) @ t=0.76
0
% es.tEZ (V/m) @ t=0.76
-13.011986399302158
% es.Ex (V/m) @ t=0.76
11.879102175600126
% es.Ey (V/m) @ t=0.76
3.552265651249636
% es.Ez (V/m) @ t=0.76
-13.011986399302202
% es.tEx (V/m) @ t=0.76
11.879102175600096
% es.tEy (V/m) @ t=0.76
0
% es.tEz (V/m) @ t=0.76
-13.011986399302158
% V (V) @ t=0.76
0.016034338782603602
% es.normE (V/m) @ t=0.78
18.943668688433327
% es.EX (V/m) @ t=0.78
12.021643602358857
% es.EY (V/m) @ t=0.78
3.5948904716800723
% es.EZ (V/m) @ t=0.78
-13.168121712438749
% es.tEX (V/m) @ t=0.78
12.021643602358825
% es.tEY (V/m) @ t=0.78
0
% es.tEZ (V/m) @ t=0.78
-13.168121712438733
% es.Ex (V/m) @ t=0.78
12.021643602358857
% es.Ey (V/m) @ t=0.78
3.5948904716800723
% es.Ez (V/m) @ t=0.78
-13.168121712438749
% es.tEx (V/m) @ t=0.78
12.021643602358825
% es.tEy (V/m) @ t=0.78
0
% es.tEz (V/m) @ t=0.78
-13.168121712438733
% V (V) @ t=0.78
0.016226740451188566
% es.normE (V/m) @ t=0.8
19.170513325936028
% es.EX (V/m) @ t=0.8
12.165599094067737
% es.EY (V/m) @ t=0.8
3.6379381443275616
% es.EZ (V/m) @ t=0.8
-13.325805947894194
% es.tEX (V/m) @ t=0.8
12.16559909406771
% es.tEY (V/m) @ t=0.8
0
% es.tEZ (V/m) @ t=0.8
-13.325805947894164
% es.Ex (V/m) @ t=0.8
12.165599094067737
% es.Ey (V/m) @ t=0.8
3.6379381443275616
% es.Ez (V/m) @ t=0.8
-13.325805947894194
% es.tEx (V/m) @ t=0.8
12.16559909406771
% es.tEy (V/m) @ t=0.8
0
% es.tEz (V/m) @ t=0.8
-13.325805947894164
% V (V) @ t=0.8
0.01642105082410358
% es.normE (V/m) @ t=0.82
19.399586243640346
% es.EX (V/m) @ t=0.82
12.310968650726878
% es.EY (V/m) @ t=0.82
3.681408669192095
% es.EZ (V/m) @ t=0.82
-13.485039105668445
% es.tEX (V/m) @ t=0.82
12.31096865072685
% es.tEY (V/m) @ t=0.82
0
% es.tEZ (V/m) @ t=0.82
-13.485039105668431
% es.Ex (V/m) @ t=0.82
12.310968650726878
% es.Ey (V/m) @ t=0.82
3.681408669192095
% es.Ez (V/m) @ t=0.82
-13.485039105668445
% es.tEx (V/m) @ t=0.82
12.31096865072685
% es.tEy (V/m) @ t=0.82
0
% es.tEz (V/m) @ t=0.82
-13.485039105668431
% V (V) @ t=0.82
0.016617269901348642
% es.normE (V/m) @ t=0.84
19.630887441546314
% es.EX (V/m) @ t=0.84
12.457752272336228
% es.EY (V/m) @ t=0.84
3.725302046273745
% es.EZ (V/m) @ t=0.84
-13.645821185761573
% es.tEX (V/m) @ t=0.84
12.457752272336204
% es.tEY (V/m) @ t=0.84
0
% es.tEZ (V/m) @ t=0.84
-13.645821185761559
% es.Ex (V/m) @ t=0.84
12.457752272336228
% es.Ey (V/m) @ t=0.84
3.725302046273745
% es.Ez (V/m) @ t=0.84
-13.645821185761573
% es.tEx (V/m) @ t=0.84
12.457752272336204
% es.tEy (V/m) @ t=0.84
0
% es.tEz (V/m) @ t=0.84
-13.645821185761559
% V (V) @ t=0.84
0.01681539768292376
% es.normE (V/m) @ t=0.86
19.864416919653905
% es.EX (V/m) @ t=0.86
12.605949958895765
% es.EY (V/m) @ t=0.86
3.7696182755723404
% es.EZ (V/m) @ t=0.86
-13.808152188173556
% es.tEX (V/m) @ t=0.86
12.605949958895742
% es.tEY (V/m) @ t=0.86
0
% es.tEZ (V/m) @ t=0.86
-13.808152188173526
% es.Ex (V/m) @ t=0.86
12.605949958895765
% es.Ey (V/m) @ t=0.86
3.7696182755723404
% es.Ez (V/m) @ t=0.86
-13.808152188173556
% es.tEx (V/m) @ t=0.86
12.605949958895742
% es.tEy (V/m) @ t=0.86
0
% es.tEz (V/m) @ t=0.86
-13.808152188173526
% V (V) @ t=0.86
0.01701543416882892
% es.normE (V/m) @ t=0.88
20.100174677963153
% es.EX (V/m) @ t=0.88
12.755561710405559
% es.EY (V/m) @ t=0.88
3.8143573570879603
% es.EZ (V/m) @ t=0.88
-13.97203211290438
% es.tEX (V/m) @ t=0.88
12.755561710405516
% es.tEY (V/m) @ t=0.88
0
% es.tEZ (V/m) @ t=0.88
-13.972032112904337
% es.Ex (V/m) @ t=0.88
12.755561710405559
% es.Ey (V/m) @ t=0.88
3.8143573570879603
% es.Ez (V/m) @ t=0.88
-13.97203211290438
% es.tEx (V/m) @ t=0.88
12.755561710405516
% es.tEy (V/m) @ t=0.88
0
% es.tEz (V/m) @ t=0.88
-13.972032112904337
% V (V) @ t=0.88
0.017217379359064134
% es.normE (V/m) @ t=0.9
20.33816071647404
% es.EX (V/m) @ t=0.9
12.906587526865557
% es.EY (V/m) @ t=0.9
3.859519290820703
% es.EZ (V/m) @ t=0.9
-14.137460959954051
% es.tEX (V/m) @ t=0.9
12.906587526865529
% es.tEY (V/m) @ t=0.9
0
% es.tEZ (V/m) @ t=0.9
-14.137460959954023
% es.Ex (V/m) @ t=0.9
12.906587526865557
% es.Ey (V/m) @ t=0.9
3.859519290820703
% es.Ez (V/m) @ t=0.9
-14.137460959954051
% es.tEx (V/m) @ t=0.9
12.906587526865529
% es.tEy (V/m) @ t=0.9
0
% es.tEz (V/m) @ t=0.9
-14.137460959954023
% V (V) @ t=0.9
0.017421233253629393
% es.normE (V/m) @ t=0.92
20.578375035186504
% es.EX (V/m) @ t=0.92
13.05902740827567
% es.EY (V/m) @ t=0.92
3.9051040767704546
% es.EZ (V/m) @ t=0.92
-14.304438729322559
% es.tEX (V/m) @ t=0.92
13.05902740827564
% es.tEY (V/m) @ t=0.92
0
% es.tEZ (V/m) @ t=0.92
-14.30443872932253
% es.Ex (V/m) @ t=0.92
13.05902740827567
% es.Ey (V/m) @ t=0.92
3.9051040767704546
% es.Ez (V/m) @ t=0.92
-14.304438729322559
% es.tEx (V/m) @ t=0.92
13.05902740827564
% es.tEy (V/m) @ t=0.92
0
% es.tEz (V/m) @ t=0.92
-14.30443872932253
% V (V) @ t=0.92
0.017626995852524703
% es.normE (V/m) @ t=0.94
20.820817634100642
% es.EX (V/m) @ t=0.94
13.212881354636096
% es.EY (V/m) @ t=0.94
3.951111714937202
% es.EZ (V/m) @ t=0.94
-14.472965421009901
% es.tEX (V/m) @ t=0.94
13.212881354636059
% es.tEY (V/m) @ t=0.94
0
% es.tEZ (V/m) @ t=0.94
-14.472965421009873
% es.Ex (V/m) @ t=0.94
13.212881354636096
% es.Ey (V/m) @ t=0.94
3.951111714937202
% es.Ez (V/m) @ t=0.94
-14.472965421009901
% es.tEx (V/m) @ t=0.94
13.212881354636059
% es.tEy (V/m) @ t=0.94
0
% es.tEz (V/m) @ t=0.94
-14.472965421009873
% V (V) @ t=0.94
0.017834667155750064
% es.normE (V/m) @ t=0.96
21.065488513216415
% es.EX (V/m) @ t=0.96
13.368149365946675
% es.EY (V/m) @ t=0.96
3.9975422053211
% es.EZ (V/m) @ t=0.96
-14.643041035016134
% es.tEX (V/m) @ t=0.96
13.36814936594666
% es.tEY (V/m) @ t=0.96
0
% es.tEZ (V/m) @ t=0.96
-14.64304103501609
% es.Ex (V/m) @ t=0.96
13.368149365946675
% es.Ey (V/m) @ t=0.96
3.9975422053211
% es.Ez (V/m) @ t=0.96
-14.643041035016134
% es.tEx (V/m) @ t=0.96
13.36814936594666
% es.tEy (V/m) @ t=0.96
0
% es.tEz (V/m) @ t=0.96
-14.64304103501609
% V (V) @ t=0.96
0.018044247163305476
% es.normE (V/m) @ t=0.98
21.31238767253383
% es.EX (V/m) @ t=0.98
13.52483144220757
% es.EY (V/m) @ t=0.98
4.044395547921937
% es.EZ (V/m) @ t=0.98
-14.814665571341152
% es.tEX (V/m) @ t=0.98
13.524831442207514
% es.tEY (V/m) @ t=0.98
0
% es.tEZ (V/m) @ t=0.98
-14.814665571341108
% es.Ex (V/m) @ t=0.98
13.52483144220757
% es.Ey (V/m) @ t=0.98
4.044395547921937
% es.Ez (V/m) @ t=0.98
-14.814665571341152
% es.tEx (V/m) @ t=0.98
13.524831442207514
% es.tEy (V/m) @ t=0.98
0
% es.tEz (V/m) @ t=0.98
-14.814665571341108
% V (V) @ t=0.98
0.018255735875190932
% es.normE (V/m) @ t=1
21.562811697035137
% es.EX (V/m) @ t=1
13.683750411580315
% es.EY (V/m) @ t=1
4.091917856984487
% es.EZ (V/m) @ t=1
-14.988740303171973
% es.tEX (V/m) @ t=1
13.683750411580256
% es.tEY (V/m) @ t=1
0
% es.tEZ (V/m) @ t=1
-14.988740303171944
% es.Ex (V/m) @ t=1
13.683750411580315
% es.Ey (V/m) @ t=1
4.091917856984487
% es.Ez (V/m) @ t=1
-14.988740303171973
% es.tEx (V/m) @ t=1
13.683750411580256
% es.tEy (V/m) @ t=1
0
% es.tEz (V/m) @ t=1
-14.988740303171944
% V (V) @ t=1
0.018470243745409568
% es.normE (V/m) @ t=1.02
21.816147050793063
% es.EX (V/m) @ t=1.02
13.844516916910461
% es.EY (V/m) @ t=1.02
4.139992672783095
% es.EZ (V/m) @ t=1.02
-15.164838753657456
% es.tEX (V/m) @ t=1.02
13.844516916910447
% es.tEY (V/m) @ t=1.02
0
% es.tEZ (V/m) @ t=1.02
-15.164838753657428
% es.Ex (V/m) @ t=1.02
13.844516916910461
% es.Ey (V/m) @ t=1.02
4.139992672783095
% es.Ez (V/m) @ t=1.02
-15.164838753657456
% es.tEx (V/m) @ t=1.02
13.844516916910447
% es.tEy (V/m) @ t=1.02
0
% es.tEz (V/m) @ t=1.02
-15.164838753657428
% V (V) @ t=1.02
0.01868724531405249
% es.normE (V/m) @ t=1.04
22.07197825874298
% es.EX (V/m) @ t=1.04
14.006867292809247
% es.EY (V/m) @ t=1.04
4.188541130967824
% es.EZ (V/m) @ t=1.04
-15.342672120643613
% es.tEX (V/m) @ t=1.04
14.006867292809188
% es.tEY (V/m) @ t=1.04
0
% es.tEZ (V/m) @ t=1.04
-15.34267212064357
% es.Ex (V/m) @ t=1.04
14.006867292809247
% es.Ey (V/m) @ t=1.04
4.188541130967824
% es.Ez (V/m) @ t=1.04
-15.342672120643613
% es.tEx (V/m) @ t=1.04
14.006867292809188
% es.tEy (V/m) @ t=1.04
0