% Model:              1 neuron.mph
% Version:            COMSOL 6.0.0.405
% Date:               Mar 16 2023, 20:01
% Dimension:          0
% Nodes:              14017
% Expressions:        14017
% Description:        Electric field norm, Electric field, X component, Electric field, Y component, Electric field, Z component, Tangential electric field, X component, Tangential electric field, Y component, Tangential electric field, Z component, Electric field, x component, Electric field, y component, Electric field, z component, Tangential electric field, x component, Tangential electric field, y component, Tangential electric field, z component, Electric potential
% Length unit:        mm
% x
1.3300000000000003
% y
12.200000000000001
% z
1.66
% es.normE (V/m) @ t=0
13.634482217012991
% es.EX (V/m) @ t=0
8.652436291534208
% es.EY (V/m) @ t=0
2.5873802529307866
% es.EZ (V/m) @ t=0
-9.477600403151706
% es.tEX (V/m) @ t=0
8.652436291534201
% es.tEY (V/m) @ t=0
0
% es.tEZ (V/m) @ t=0
-9.477600403151683
% es.Ex (V/m) @ t=0
8.652436291534208
% es.Ey (V/m) @ t=0
2.5873802529307866
% es.Ez (V/m) @ t=0
-9.477600403151706
% es.tEx (V/m) @ t=0
8.652436291534201
% es.tEy (V/m) @ t=0
0
% es.tEz (V/m) @ t=0
-9.477600403151683
% V (V) @ t=0
0.011679004382417014
% es.normE (V/m) @ t=0.02
11.815444489452698
% es.EX (V/m) @ t=0.02
7.498075780381598
% es.EY (V/m) @ t=0.02
2.242186255660127
% es.EZ (V/m) @ t=0.02
-8.213151005547456
% es.tEX (V/m) @ t=0.02
7.498075780381572
% es.tEY (V/m) @ t=0.02
0
% es.tEZ (V/m) @ t=0.02
-8.213151005547441
% es.Ex (V/m) @ t=0.02
7.498075780381598
% es.Ey (V/m) @ t=0.02
2.242186255660127
% es.Ez (V/m) @ t=0.02
-8.213151005547456
% es.tEx (V/m) @ t=0.02
7.498075780381572
% es.tEy (V/m) @ t=0.02
0
% es.tEz (V/m) @ t=0.02
-8.213151005547441
% V (V) @ t=0.02
0.010120855600378495
% es.normE (V/m) @ t=0.04
11.964072688784992
% es.EX (V/m) @ t=0.04
7.592395193608562
% es.EY (V/m) @ t=0.04
2.270391155104036
% es.EZ (V/m) @ t=0.04
-8.316465414180062
% es.tEX (V/m) @ t=0.04
7.59239519360854
% es.tEY (V/m) @ t=0.04
0
% es.tEZ (V/m) @ t=0.04
-8.316465414180055
% es.Ex (V/m) @ t=0.04
7.592395193608562
% es.Ey (V/m) @ t=0.04
2.270391155104036
% es.Ez (V/m) @ t=0.04
-8.316465414180062
% es.tEx (V/m) @ t=0.04
7.59239519360854
% es.tEy (V/m) @ t=0.04
0
% es.tEz (V/m) @ t=0.04
-8.316465414180055
% V (V) @ t=0.04
0.010248167026946357
% es.normE (V/m) @ t=0.06
12.114074799261068
% es.EX (V/m) @ t=0.06
7.687586510877937
% es.EY (V/m) @ t=0.06
2.2988568688516153
% es.EZ (V/m) @ t=0.06
-8.42073484351812
% es.tEX (V/m) @ t=0.06
7.687586510877918
% es.tEY (V/m) @ t=0.06
0
% es.tEZ (V/m) @ t=0.06
-8.4207348435181
% es.Ex (V/m) @ t=0.06
7.687586510877937
% es.Ey (V/m) @ t=0.06
2.2988568688516153
% es.Ez (V/m) @ t=0.06
-8.42073484351812
% es.tEx (V/m) @ t=0.06
7.687586510877918
% es.tEy (V/m) @ t=0.06
0
% es.tEz (V/m) @ t=0.06
-8.4207348435181
% V (V) @ t=0.06
0.010376655074004416
% es.normE (V/m) @ t=0.08
12.268788961174877
% es.EX (V/m) @ t=0.08
7.785768012681901
% es.EY (V/m) @ t=0.08
2.32821642028549
% es.EZ (V/m) @ t=0.08
-8.528279762090367
% es.tEX (V/m) @ t=0.08
7.785768012681875
% es.tEY (V/m) @ t=0.08
0
% es.tEZ (V/m) @ t=0.08
-8.528279762090346
% es.Ex (V/m) @ t=0.08
7.785768012681901
% es.Ey (V/m) @ t=0.08
2.32821642028549
% es.Ez (V/m) @ t=0.08
-8.528279762090367
% es.tEx (V/m) @ t=0.08
7.785768012681875
% es.tEy (V/m) @ t=0.08
0
% es.tEz (V/m) @ t=0.08
-8.528279762090346
% V (V) @ t=0.08
0.010509180314526544
% es.normE (V/m) @ t=0.1
12.42396693121471
% es.EX (V/m) @ t=0.1
7.884243838922615
% es.EY (V/m) @ t=0.1
2.3576639523340925
% es.EZ (V/m) @ t=0.1
-8.636147087695665
% es.tEX (V/m) @ t=0.1
7.884243838922614
% es.tEY (V/m) @ t=0.1
0
% es.tEZ (V/m) @ t=0.1
-8.636147087695637
% es.Ex (V/m) @ t=0.1
7.884243838922615
% es.Ey (V/m) @ t=0.1
2.3576639523340925
% es.Ez (V/m) @ t=0.1
-8.636147087695665
% es.tEx (V/m) @ t=0.1
7.884243838922614
% es.tEy (V/m) @ t=0.1
0
% es.tEz (V/m) @ t=0.1
-8.636147087695637
% V (V) @ t=0.1
0.01064210293677499
% es.normE (V/m) @ t=0.12
12.579144901254542
% es.EX (V/m) @ t=0.12
7.982719665163337
% es.EY (V/m) @ t=0.12
2.3871114843827343
% es.EZ (V/m) @ t=0.12
-8.74401441330095
% es.tEX (V/m) @ t=0.12
7.9827196651633185
% es.tEY (V/m) @ t=0.12
0
% es.tEZ (V/m) @ t=0.12
-8.744014413300942
% es.Ex (V/m) @ t=0.12
7.982719665163337
% es.Ey (V/m) @ t=0.12
2.3871114843827343
% es.Ez (V/m) @ t=0.12
-8.74401441330095
% es.tEx (V/m) @ t=0.12
7.9827196651633185
% es.tEy (V/m) @ t=0.12
0
% es.tEz (V/m) @ t=0.12
-8.744014413300942
% V (V) @ t=0.12
0.010775025559023441
% es.normE (V/m) @ t=0.14
12.743521361836851
% es.EX (V/m) @ t=0.14
8.087032664699915
% es.EY (V/m) @ t=0.14
2.4183037780133736
% es.EZ (V/m) @ t=0.14
-8.858275902774828
% es.tEX (V/m) @ t=0.14
8.087032664699915
% es.tEY (V/m) @ t=0.14
0
% es.tEZ (V/m) @ t=0.14
-8.858275902774807
% es.Ex (V/m) @ t=0.14
8.087032664699915
% es.Ey (V/m) @ t=0.14
2.4183037780133736
% es.Ez (V/m) @ t=0.14
-8.858275902774828
% es.tEx (V/m) @ t=0.14
8.087032664699915
% es.tEy (V/m) @ t=0.14
0
% es.tEz (V/m) @ t=0.14
-8.858275902774807
% V (V) @ t=0.14
0.01091582958005808
% es.normE (V/m) @ t=0.16
12.909784449574879
% es.EX (V/m) @ t=0.16
8.192542879105698
% es.EY (V/m) @ t=0.16
2.449853925420796
% es.EZ (V/m) @ t=0.16
-8.973848846898356
% es.tEX (V/m) @ t=0.16
8.192542879105682
% es.tEY (V/m) @ t=0.16
0
% es.tEZ (V/m) @ t=0.16
-8.973848846898335
% es.Ex (V/m) @ t=0.16
8.192542879105698
% es.Ey (V/m) @ t=0.16
2.449853925420796
% es.Ez (V/m) @ t=0.16
-8.973848846898356
% es.tEx (V/m) @ t=0.16
8.192542879105682
% es.tEy (V/m) @ t=0.16
0
% es.tEz (V/m) @ t=0.16
-8.973848846898335
% V (V) @ t=0.16
0.011058250090331345
% es.normE (V/m) @ t=0.18
13.076047537313066
% es.EX (V/m) @ t=0.18
8.298053093511463
% es.EY (V/m) @ t=0.18
2.481404072828194
% es.EZ (V/m) @ t=0.18
-9.089421791021849
% es.tEX (V/m) @ t=0.18
8.298053093511436
% es.tEY (V/m) @ t=0.18
0
% es.tEZ (V/m) @ t=0.18
-9.08942179102182
% es.Ex (V/m) @ t=0.18
8.298053093511463
% es.Ey (V/m) @ t=0.18
2.481404072828194
% es.Ez (V/m) @ t=0.18
-9.089421791021849
% es.tEx (V/m) @ t=0.18
8.298053093511436
% es.tEy (V/m) @ t=0.18
0
% es.tEz (V/m) @ t=0.18
-9.08942179102182
% V (V) @ t=0.18
0.01120067060060461
% es.normE (V/m) @ t=0.2
13.24231062505141
% es.EX (V/m) @ t=0.2
8.403563307917238
% es.EY (V/m) @ t=0.2
2.5129542202355424
% es.EZ (V/m) @ t=0.2
-9.204994735145332
% es.tEX (V/m) @ t=0.2
8.403563307917224
% es.tEY (V/m) @ t=0.2
0
% es.tEZ (V/m) @ t=0.2
-9.204994735145311
% es.Ex (V/m) @ t=0.2
8.403563307917238
% es.Ey (V/m) @ t=0.2
2.5129542202355424
% es.Ez (V/m) @ t=0.2
-9.204994735145332
% es.tEx (V/m) @ t=0.2
8.403563307917224
% es.tEy (V/m) @ t=0.2
0
% es.tEz (V/m) @ t=0.2
-9.204994735145311
% V (V) @ t=0.2
0.011343091110877876
% es.normE (V/m) @ t=0.22
13.408573712789982
% es.EX (V/m) @ t=0.22
8.509073522323014
% es.EY (V/m) @ t=0.22
2.5445043676429333
% es.EZ (V/m) @ t=0.22
-9.32056767926886
% es.tEX (V/m) @ t=0.22
8.509073522323007
% es.tEY (V/m) @ t=0.22
0
% es.tEZ (V/m) @ t=0.22
-9.320567679268839
% es.Ex (V/m) @ t=0.22
8.509073522323014
% es.Ey (V/m) @ t=0.22
2.5445043676429333
% es.Ez (V/m) @ t=0.22
-9.32056767926886
% es.tEx (V/m) @ t=0.22
8.509073522323007
% es.tEy (V/m) @ t=0.22
0
% es.tEz (V/m) @ t=0.22
-9.320567679268839
% V (V) @ t=0.22
0.011485511621151141
% es.normE (V/m) @ t=0.24
13.574836800528658
% es.EX (V/m) @ t=0.24
8.614583736728772
% es.EY (V/m) @ t=0.24
2.5760545150503456
% es.EZ (V/m) @ t=0.24
-9.436140623392351
% es.tEX (V/m) @ t=0.24
8.61458373672876
% es.tEY (V/m) @ t=0.24
0
% es.tEZ (V/m) @ t=0.24
-9.436140623392337
% es.Ex (V/m) @ t=0.24
8.614583736728772
% es.Ey (V/m) @ t=0.24
2.5760545150503456
% es.Ez (V/m) @ t=0.24
-9.436140623392351
% es.tEx (V/m) @ t=0.24
8.61458373672876
% es.tEy (V/m) @ t=0.24
0
% es.tEz (V/m) @ t=0.24
-9.436140623392337
% V (V) @ t=0.24
0.011627932131424407
% es.normE (V/m) @ t=0.26
13.74901958402608
% es.EX (V/m) @ t=0.26
8.72511992391945
% es.EY (V/m) @ t=0.26
2.609108167607496
% es.EZ (V/m) @ t=0.26
-9.557218624080434
% es.tEX (V/m) @ t=0.26
8.72511992391944
% es.tEY (V/m) @ t=0.26
0
% es.tEZ (V/m) @ t=0.26
-9.557218624080425
% es.Ex (V/m) @ t=0.26
8.72511992391945
% es.Ey (V/m) @ t=0.26
2.609108167607496
% es.Ez (V/m) @ t=0.26
-9.557218624080434
% es.tEx (V/m) @ t=0.26
8.72511992391944
% es.tEy (V/m) @ t=0.26
0
% es.tEz (V/m) @ t=0.26
-9.557218624080425
% V (V) @ t=0.26
0.011777134867586716
% es.normE (V/m) @ t=0.28
13.927127227409239
% es.EX (V/m) @ t=0.28
8.838146893530446
% es.EY (V/m) @ t=0.28
2.642906930485788
% es.EZ (V/m) @ t=0.28
-9.681024832560567
% es.tEX (V/m) @ t=0.28
8.838146893530416
% es.tEY (V/m) @ t=0.28
0
% es.tEZ (V/m) @ t=0.28
-9.681024832560546
% es.Ex (V/m) @ t=0.28
8.838146893530446
% es.Ey (V/m) @ t=0.28
2.642906930485788
% es.Ez (V/m) @ t=0.28
-9.681024832560567
% es.tEx (V/m) @ t=0.28
8.838146893530416
% es.tEy (V/m) @ t=0.28
0
% es.tEz (V/m) @ t=0.28
-9.681024832560546
% V (V) @ t=0.28
0.011929698753866291
% es.normE (V/m) @ t=0.3
14.10523487079238
% es.EX (V/m) @ t=0.3
8.95117386314145
% es.EY (V/m) @ t=0.3
2.676705693364127
% es.EZ (V/m) @ t=0.3
-9.80483104104065
% es.tEX (V/m) @ t=0.3
8.951173863141435
% es.tEY (V/m) @ t=0.3
0
% es.tEZ (V/m) @ t=0.3
-9.804831041040629
% es.Ex (V/m) @ t=0.3
8.95117386314145
% es.Ey (V/m) @ t=0.3
2.676705693364127
% es.Ez (V/m) @ t=0.3
-9.80483104104065
% es.tEx (V/m) @ t=0.3
8.951173863141435
% es.tEy (V/m) @ t=0.3
0
% es.tEz (V/m) @ t=0.3
-9.804831041040629
% V (V) @ t=0.3
0.012082262640145868
% es.normE (V/m) @ t=0.32
14.283342514175516
% es.EX (V/m) @ t=0.32
9.064200832752459
% es.EY (V/m) @ t=0.32
2.710504456242466
% es.EZ (V/m) @ t=0.32
-9.928637249520747
% es.tEX (V/m) @ t=0.32
9.064200832752434
% es.tEY (V/m) @ t=0.32
0
% es.tEZ (V/m) @ t=0.32
-9.928637249520726
% es.Ex (V/m) @ t=0.32
9.064200832752459
% es.Ey (V/m) @ t=0.32
2.710504456242466
% es.Ez (V/m) @ t=0.32
-9.928637249520747
% es.tEx (V/m) @ t=0.32
9.064200832752434
% es.tEy (V/m) @ t=0.32
0
% es.tEz (V/m) @ t=0.32
-9.928637249520726
% V (V) @ t=0.32
0.012234826526425447
% es.normE (V/m) @ t=0.34
14.461450157558653
% es.EX (V/m) @ t=0.34
9.177227802363475
% es.EY (V/m) @ t=0.34
2.744303219120755
% es.EZ (V/m) @ t=0.34
-10.052443458000823
% es.tEX (V/m) @ t=0.34
9.177227802363461
% es.tEY (V/m) @ t=0.34
0
% es.tEZ (V/m) @ t=0.34
-10.052443458000795
% es.Ex (V/m) @ t=0.34
9.177227802363475
% es.Ey (V/m) @ t=0.34
2.744303219120755
% es.Ez (V/m) @ t=0.34
-10.052443458000823
% es.tEx (V/m) @ t=0.34
9.177227802363461
% es.tEy (V/m) @ t=0.34
0
% es.tEz (V/m) @ t=0.34
-10.052443458000795
% V (V) @ t=0.34
0.012387390412705023
% es.normE (V/m) @ t=0.36
14.639557800941796
% es.EX (V/m) @ t=0.36
9.290254771974464
% es.EY (V/m) @ t=0.36
2.7781019819990758
% es.EZ (V/m) @ t=0.36
-10.176249666480928
% es.tEX (V/m) @ t=0.36
9.290254771974459
% es.tEY (V/m) @ t=0.36
0
% es.tEZ (V/m) @ t=0.36
-10.176249666480906
% es.Ex (V/m) @ t=0.36
9.290254771974464
% es.Ey (V/m) @ t=0.36
2.7781019819990758
% es.Ez (V/m) @ t=0.36
-10.176249666480928
% es.tEx (V/m) @ t=0.36
9.290254771974459
% es.tEy (V/m) @ t=0.36
0
% es.tEz (V/m) @ t=0.36
-10.176249666480906
% V (V) @ t=0.36
0.012539954298984598
% es.normE (V/m) @ t=0.38
14.82407605067632
% es.EX (V/m) @ t=0.38
9.407349932957622
% es.EY (V/m) @ t=0.38
2.8131173721330796
% es.EZ (V/m) @ t=0.38
-10.304512001156207
% es.tEX (V/m) @ t=0.38
9.407349932957622
% es.tEY (V/m) @ t=0.38
0
% es.tEZ (V/m) @ t=0.38
-10.304512001156178
% es.Ex (V/m) @ t=0.38
9.407349932957622
% es.Ey (V/m) @ t=0.38
2.8131173721330796
% es.Ez (V/m) @ t=0.38
-10.304512001156207
% es.tEx (V/m) @ t=0.38
9.407349932957622
% es.tEy (V/m) @ t=0.38
0
% es.tEz (V/m) @ t=0.38
-10.304512001156178
% V (V) @ t=0.38
0.01269800909773046
% es.normE (V/m) @ t=0.4
15.01481626444389
% es.EX (V/m) @ t=0.4
9.52839357229206
% es.EY (V/m) @ t=0.4
2.849313588324964
% es.EZ (V/m) @ t=0.4
-10.437099333404838
% es.tEX (V/m) @ t=0.4
9.528393572292057
% es.tEY (V/m) @ t=0.4
0
% es.tEZ (V/m) @ t=0.4
-10.43709933340481
% es.Ex (V/m) @ t=0.4
9.52839357229206
% es.Ey (V/m) @ t=0.4
2.849313588324964
% es.Ez (V/m) @ t=0.4
-10.437099333404838
% es.tEx (V/m) @ t=0.4
9.528393572292057
% es.tEy (V/m) @ t=0.4
0
% es.tEz (V/m) @ t=0.4
-10.43709933340481
% V (V) @ t=0.4
0.012861393230084006
% es.normE (V/m) @ t=0.42
15.205556478211495
% es.EX (V/m) @ t=0.42
9.649437211626497
% es.EY (V/m) @ t=0.42
2.8855098045168477
% es.EZ (V/m) @ t=0.42
-10.569686665653498
% es.tEX (V/m) @ t=0.42
9.649437211626477
% es.tEY (V/m) @ t=0.42
0
% es.tEZ (V/m) @ t=0.42
-10.569686665653467
% es.Ex (V/m) @ t=0.42
9.649437211626497
% es.Ey (V/m) @ t=0.42
2.8855098045168477
% es.Ez (V/m) @ t=0.42
-10.569686665653498
% es.tEx (V/m) @ t=0.42
9.649437211626477
% es.tEy (V/m) @ t=0.42
0
% es.tEz (V/m) @ t=0.42
-10.569686665653467
% V (V) @ t=0.42
0.013024777362437548
% es.normE (V/m) @ t=0.44
15.396296691979082
% es.EX (V/m) @ t=0.44
9.770480850960926
% es.EY (V/m) @ t=0.44
2.9217060207087813
% es.EZ (V/m) @ t=0.44
-10.702273997902143
% es.tEX (V/m) @ t=0.44
9.770480850960913
% es.tEY (V/m) @ t=0.44
0
% es.tEZ (V/m) @ t=0.44
-10.702273997902113
% es.Ex (V/m) @ t=0.44
9.770480850960926
% es.Ey (V/m) @ t=0.44
2.9217060207087813
% es.Ez (V/m) @ t=0.44
-10.702273997902143
% es.tEx (V/m) @ t=0.44
9.770480850960913
% es.tEy (V/m) @ t=0.44
0
% es.tEz (V/m) @ t=0.44
-10.702273997902113
% V (V) @ t=0.44
0.013188161494791092
% es.normE (V/m) @ t=0.46
15.587036905746668
% es.EX (V/m) @ t=0.46
9.891524490295375
% es.EY (V/m) @ t=0.46
2.95790223690063
% es.EZ (V/m) @ t=0.46
-10.834861330150773
% es.tEX (V/m) @ t=0.46
9.891524490295357
% es.tEY (V/m) @ t=0.46
0
% es.tEZ (V/m) @ t=0.46
-10.834861330150751
% es.Ex (V/m) @ t=0.46
9.891524490295375
% es.Ey (V/m) @ t=0.46
2.95790223690063
% es.Ez (V/m) @ t=0.46
-10.834861330150773
% es.tEx (V/m) @ t=0.46
9.891524490295357
% es.tEy (V/m) @ t=0.46
0
% es.tEz (V/m) @ t=0.46
-10.834861330150751
% V (V) @ t=0.46
0.013351545627144634
% es.normE (V/m) @ t=0.48
15.777777119514276
% es.EX (V/m) @ t=0.48
10.01256812962983
% es.EY (V/m) @ t=0.48
2.9940984530925174
% es.EZ (V/m) @ t=0.48
-10.967448662399418
% es.tEX (V/m) @ t=0.48
10.012568129629805
% es.tEY (V/m) @ t=0.48
0
% es.tEZ (V/m) @ t=0.48
-10.967448662399388
% es.Ex (V/m) @ t=0.48
10.01256812962983
% es.Ey (V/m) @ t=0.48
2.9940984530925174
% es.Ez (V/m) @ t=0.48
-10.967448662399418
% es.tEx (V/m) @ t=0.48
10.012568129629805
% es.tEy (V/m) @ t=0.48
0
% es.tEz (V/m) @ t=0.48
-10.967448662399388
% V (V) @ t=0.48
0.013514929759498178
% es.normE (V/m) @ t=0.5
15.970460369838502
% es.EX (V/m) @ t=0.5
10.134844846828765
% es.EY (V/m) @ t=0.5
3.030663516338309
% es.EZ (V/m) @ t=0.5
-11.101386621559158
% es.tEX (V/m) @ t=0.5
10.13484484682873
% es.tEY (V/m) @ t=0.5
0
% es.tEZ (V/m) @ t=0.5
-11.101386621559136
% es.Ex (V/m) @ t=0.5
10.134844846828765
% es.Ey (V/m) @ t=0.5
3.030663516338309
% es.Ez (V/m) @ t=0.5
-11.101386621559158
% es.tEx (V/m) @ t=0.5
10.13484484682873
% es.tEy (V/m) @ t=0.5
0
% es.tEz (V/m) @ t=0.5
-11.101386621559136
% V (V) @ t=0.5
0.013679977929350332
% es.normE (V/m) @ t=0.52
16.167972288929185
% es.EX (V/m) @ t=0.52
10.260185903991097
% es.EY (V/m) @ t=0.52
3.0681452068306823
% es.EZ (V/m) @ t=0.52
-11.238681043549406
% es.tEX (V/m) @ t=0.52
10.260185903991072
% es.tEY (V/m) @ t=0.52
0
% es.tEZ (V/m) @ t=0.52
-11.238681043549382
% es.Ex (V/m) @ t=0.52
10.260185903991097
% es.Ey (V/m) @ t=0.52
3.0681452068306823
% es.Ez (V/m) @ t=0.52
-11.238681043549406
% es.tEx (V/m) @ t=0.52
10.260185903991072
% es.tEy (V/m) @ t=0.52
0
% es.tEz (V/m) @ t=0.52
-11.238681043549382
% V (V) @ t=0.52
0.01384916142330029
% es.normE (V/m) @ t=0.54
16.367208656500804
% es.EX (V/m) @ t=0.54
10.386621320002707
% es.EY (V/m) @ t=0.54
3.105954249754774
% es.EZ (V/m) @ t=0.54
-11.377174149381782
% es.tEX (V/m) @ t=0.54
10.386621320002682
% es.tEY (V/m) @ t=0.54
0
% es.tEZ (V/m) @ t=0.54
-11.377174149381753
% es.Ex (V/m) @ t=0.54
10.386621320002707
% es.Ey (V/m) @ t=0.54
3.105954249754774
% es.Ez (V/m) @ t=0.54
-11.377174149381782
% es.tEx (V/m) @ t=0.54
10.386621320002682
% es.tEy (V/m) @ t=0.54
0
% es.tEz (V/m) @ t=0.54
-11.377174149381753
% V (V) @ t=0.54
0.01401982175355923
% es.normE (V/m) @ t=0.56
16.568169472553297
% es.EX (V/m) @ t=0.56
10.514151094863564
% es.EY (V/m) @ t=0.56
3.1440906451106376
% es.EZ (V/m) @ t=0.56
-11.516865939056224
% es.tEX (V/m) @ t=0.56
10.514151094863537
% es.tEY (V/m) @ t=0.56
0
% es.tEZ (V/m) @ t=0.56
-11.516865939056203
% es.Ex (V/m) @ t=0.56
10.514151094863564
% es.Ey (V/m) @ t=0.56
3.1440906451106376
% es.Ez (V/m) @ t=0.56
-11.516865939056224
% es.tEx (V/m) @ t=0.56
10.514151094863537
% es.tEy (V/m) @ t=0.56
0
% es.tEz (V/m) @ t=0.56
-11.516865939056203
% V (V) @ t=0.56
0.014191958920127158
% es.normE (V/m) @ t=0.58
16.77085473708671
% es.EX (V/m) @ t=0.58
10.642775228573676
% es.EY (V/m) @ t=0.58
3.1825543928982234
% es.EZ (V/m) @ t=0.58
-11.657756412572734
% es.tEX (V/m) @ t=0.58
10.642775228573672
% es.tEY (V/m) @ t=0.58
0
% es.tEZ (V/m) @ t=0.58
-11.657756412572704
% es.Ex (V/m) @ t=0.58
10.642775228573676
% es.Ey (V/m) @ t=0.58
3.1825543928982234
% es.Ez (V/m) @ t=0.58
-11.657756412572734
% es.tEx (V/m) @ t=0.58
10.642775228573672
% es.tEy (V/m) @ t=0.58
0
% es.tEz (V/m) @ t=0.58
-11.657756412572704
% V (V) @ t=0.58
0.014365572923004066
% es.normE (V/m) @ t=0.6
16.975264450101122
% es.EX (V/m) @ t=0.6
10.772493721133056
% es.EY (V/m) @ t=0.6
3.22134549311761
% es.EZ (V/m) @ t=0.6
-11.799845569931371
% es.tEX (V/m) @ t=0.6
10.772493721133024
% es.tEY (V/m) @ t=0.6
0
% es.tEZ (V/m) @ t=0.6
-11.799845569931362
% es.Ex (V/m) @ t=0.6
10.772493721133056
% es.Ey (V/m) @ t=0.6
3.22134549311761
% es.Ez (V/m) @ t=0.6
-11.799845569931371
% es.tEx (V/m) @ t=0.6
10.772493721133024
% es.tEy (V/m) @ t=0.6
0
% es.tEz (V/m) @ t=0.6
-11.799845569931362
% V (V) @ t=0.6
0.01454066376218996
% es.normE (V/m) @ t=0.62
17.181398611596514
% es.EX (V/m) @ t=0.62
10.903306572541693
% es.EY (V/m) @ t=0.62
3.2604639457686835
% es.EZ (V/m) @ t=0.62
-11.94313341113211
% es.tEX (V/m) @ t=0.62
10.903306572541673
% es.tEY (V/m) @ t=0.62
0
% es.tEZ (V/m) @ t=0.62
-11.943133411132093
% es.Ex (V/m) @ t=0.62
10.903306572541693
% es.Ey (V/m) @ t=0.62
3.2604639457686835
% es.Ez (V/m) @ t=0.62
-11.94313341113211
% es.tEx (V/m) @ t=0.62
10.903306572541673
% es.tEy (V/m) @ t=0.62
0
% es.tEz (V/m) @ t=0.62
-11.943133411132093
% V (V) @ t=0.62
0.014717231437684835
% es.normE (V/m) @ t=0.64
17.389257221572926
% es.EX (V/m) @ t=0.64
11.035213782799609
% es.EY (V/m) @ t=0.64
3.2999097508515494
% es.EZ (V/m) @ t=0.64
-12.087619936174907
% es.tEX (V/m) @ t=0.64
11.035213782799596
% es.tEY (V/m) @ t=0.64
0
% es.tEZ (V/m) @ t=0.64
-12.087619936174878
% es.Ex (V/m) @ t=0.64
11.035213782799609
% es.Ey (V/m) @ t=0.64
3.2999097508515494
% es.Ez (V/m) @ t=0.64
-12.087619936174907
% es.tEx (V/m) @ t=0.64
11.035213782799596
% es.tEy (V/m) @ t=0.64
0
% es.tEz (V/m) @ t=0.64
-12.087619936174878
% V (V) @ t=0.64
0.014895275949488692
% es.normE (V/m) @ t=0.66
17.598840280030384
% es.EX (V/m) @ t=0.66
11.168215351906776
% es.EY (V/m) @ t=0.66
3.339682908366166
% es.EZ (V/m) @ t=0.66
-12.233305145059798
% es.tEX (V/m) @ t=0.66
11.168215351906742
% es.tEY (V/m) @ t=0.66
0
% es.tEZ (V/m) @ t=0.66
-12.233305145059783
% es.Ex (V/m) @ t=0.66
11.168215351906776
% es.Ey (V/m) @ t=0.66
3.339682908366166
% es.Ez (V/m) @ t=0.66
-12.233305145059798
% es.tEx (V/m) @ t=0.66
11.168215351906742
% es.tEy (V/m) @ t=0.66
0
% es.tEz (V/m) @ t=0.66
-12.233305145059783
% V (V) @ t=0.66
0.015074797297601535
% es.normE (V/m) @ t=0.68
17.81014778696894
% es.EX (V/m) @ t=0.68
11.302311279863208
% es.EY (V/m) @ t=0.68
3.379783418312563
% es.EZ (V/m) @ t=0.68
-12.380189037786796
% es.tEX (V/m) @ t=0.68
11.3023112798632
% es.tEY (V/m) @ t=0.68
0
% es.tEZ (V/m) @ t=0.68
-12.380189037786781
% es.Ex (V/m) @ t=0.68
11.302311279863208
% es.Ey (V/m) @ t=0.68
3.379783418312563
% es.Ez (V/m) @ t=0.68
-12.380189037786796
% es.tEx (V/m) @ t=0.68
11.3023112798632
% es.tEy (V/m) @ t=0.68
0
% es.tEz (V/m) @ t=0.68
-12.380189037786781
% V (V) @ t=0.68
0.015255795482023363
% es.normE (V/m) @ t=0.7
18.023179742388646
% es.EX (V/m) @ t=0.7
11.437501566668912
% es.EY (V/m) @ t=0.7
3.4202112806906673
% es.EZ (V/m) @ t=0.7
-12.528271614355933
% es.tEX (V/m) @ t=0.7
11.437501566668885
% es.tEY (V/m) @ t=0.7
0
% es.tEZ (V/m) @ t=0.7
-12.528271614355889
% es.Ex (V/m) @ t=0.7
11.437501566668912
% es.Ey (V/m) @ t=0.7
3.4202112806906673
% es.Ez (V/m) @ t=0.7
-12.528271614355933
% es.tEx (V/m) @ t=0.7
11.437501566668885
% es.tEy (V/m) @ t=0.7
0
% es.tEz (V/m) @ t=0.7
-12.528271614355889
% V (V) @ t=0.7
0.015438270502754177
% es.normE (V/m) @ t=0.72
18.237936146289442
% es.EX (V/m) @ t=0.72
11.57378621232386
% es.EY (V/m) @ t=0.72
3.4609664955005215
% es.EZ (V/m) @ t=0.72
-12.677552874767049
% es.tEX (V/m) @ t=0.72
11.573786212323842
% es.tEY (V/m) @ t=0.72
0
% es.tEZ (V/m) @ t=0.72
-12.677552874767049
% es.Ex (V/m) @ t=0.72
11.57378621232386
% es.Ey (V/m) @ t=0.72
3.4609664955005215
% es.Ez (V/m) @ t=0.72
-12.677552874767049
% es.tEx (V/m) @ t=0.72
11.573786212323842
% es.tEy (V/m) @ t=0.72
0
% es.tEz (V/m) @ t=0.72
-12.677552874767049
% V (V) @ t=0.72
0.015622222359793967
% es.normE (V/m) @ t=0.74
18.45448991152916
% es.EX (V/m) @ t=0.74
11.71121147094155
% es.EY (V/m) @ t=0.74
3.5020628274466574
% es.EZ (V/m) @ t=0.74
-12.828083511946023
% es.tEX (V/m) @ t=0.74
11.71121147094152
% es.tEY (V/m) @ t=0.74
0
% es.tEZ (V/m) @ t=0.74
-12.828083511945994
% es.Ex (V/m) @ t=0.74
11.71121147094155
% es.Ey (V/m) @ t=0.74
3.5020628274466574
% es.Ez (V/m) @ t=0.74
-12.828083511946023
% es.tEx (V/m) @ t=0.74
11.71121147094152
% es.tEy (V/m) @ t=0.74
0
% es.tEz (V/m) @ t=0.74
-12.828083511945994
% V (V) @ t=0.74
0.015807713700481018
% es.normE (V/m) @ t=0.76
18.675990957359943
% es.EX (V/m) @ t=0.76
11.851775573385012
% es.EY (V/m) @ t=0.76
3.5440949275850073
% es.EZ (V/m) @ t=0.76
-12.982053518545916
% es.tEX (V/m) @ t=0.76
11.851775573384995
% es.tEY (V/m) @ t=0.76
0
% es.tEZ (V/m) @ t=0.76
-12.982053518545888
% es.Ex (V/m) @ t=0.76
11.851775573385012
% es.Ey (V/m) @ t=0.76
3.5440949275850073
% es.Ez (V/m) @ t=0.76
-12.982053518545916
% es.tEx (V/m) @ t=0.76
11.851775573384995
% es.tEy (V/m) @ t=0.76
0
% es.tEz (V/m) @ t=0.76
-12.982053518545888
% V (V) @ t=0.76
0.01599745096183158
% es.normE (V/m) @ t=0.78
18.899709448239975
% es.EX (V/m) @ t=0.78
11.993746779506607
% es.EY (V/m) @ t=0.78
3.586547449502679
% es.EZ (V/m) @ t=0.78
-13.137564966619134
% es.tEX (V/m) @ t=0.78
11.993746779506584
% es.tEY (V/m) @ t=0.78
0
% es.tEZ (V/m) @ t=0.78
-13.13756496661912
% es.Ex (V/m) @ t=0.78
11.993746779506607
% es.Ey (V/m) @ t=0.78
3.586547449502679
% es.Ez (V/m) @ t=0.78
-13.137564966619134
% es.tEx (V/m) @ t=0.78
11.993746779506584
% es.tEy (V/m) @ t=0.78
0
% es.tEz (V/m) @ t=0.78
-13.13756496661912
% V (V) @ t=0.78
0.016189088646273317
% es.normE (V/m) @ t=0.8
19.125645384169445
% es.EX (V/m) @ t=0.8
12.137125089306215
% es.EY (V/m) @ t=0.8
3.629420393199659
% es.EZ (V/m) @ t=0.8
-13.294617856165807
% es.tEX (V/m) @ t=0.8
12.137125089306188
% es.tEY (V/m) @ t=0.8
0
% es.tEZ (V/m) @ t=0.8
-13.294617856165791
% es.Ex (V/m) @ t=0.8
12.137125089306215
% es.Ey (V/m) @ t=0.8
3.629420393199659
% es.Ez (V/m) @ t=0.8
-13.294617856165807
% es.tEx (V/m) @ t=0.8
12.137125089306188
% es.tEy (V/m) @ t=0.8
0
% es.tEz (V/m) @ t=0.8
-13.294617856165791
% V (V) @ t=0.8
0.016382626753806223
% es.normE (V/m) @ t=0.82
19.353798765148568
% es.EX (V/m) @ t=0.82
12.281910502783928
% es.EY (V/m) @ t=0.82
3.6727137586758687
% es.EZ (V/m) @ t=0.82
-13.45321218718583
% es.tEX (V/m) @ t=0.82
12.281910502783912
% es.tEY (V/m) @ t=0.82
0
% es.tEZ (V/m) @ t=0.82
-13.453212187185802
% es.Ex (V/m) @ t=0.82
12.281910502783928
% es.Ey (V/m) @ t=0.82
3.6727137586758687
% es.Ez (V/m) @ t=0.82
-13.45321218718583
% es.tEx (V/m) @ t=0.82
12.281910502783912
% es.tEy (V/m) @ t=0.82
0
% es.tEz (V/m) @ t=0.82
-13.453212187185802
% V (V) @ t=0.82
0.0165780652844303
% es.normE (V/m) @ t=0.84
19.58416959117764
% es.EX (V/m) @ t=0.84
12.428103019939774
% es.EY (V/m) @ t=0.84
3.7164275459313725
% es.EZ (V/m) @ t=0.84
-13.613347959679224
% es.tEX (V/m) @ t=0.84
12.428103019939744
% es.tEY (V/m) @ t=0.84
0
% es.tEZ (V/m) @ t=0.84
-13.613347959679196
% es.Ex (V/m) @ t=0.84
12.428103019939774
% es.Ey (V/m) @ t=0.84
3.7164275459313725
% es.Ez (V/m) @ t=0.84
-13.613347959679224
% es.tEx (V/m) @ t=0.84
12.428103019939744
% es.tEy (V/m) @ t=0.84
0
% es.tEz (V/m) @ t=0.84
-13.613347959679196
% V (V) @ t=0.84
0.016775404238145556
% es.normE (V/m) @ t=0.86
19.81675786225694
% es.EX (V/m) @ t=0.86
12.575702640773619
% es.EY (V/m) @ t=0.86
3.760561754966327
% es.EZ (V/m) @ t=0.86
-13.775025173646071
% es.tEX (V/m) @ t=0.86
12.575702640773589
% es.tEY (V/m) @ t=0.86
0
% es.tEZ (V/m) @ t=0.86
-13.775025173646055
% es.Ex (V/m) @ t=0.86
12.575702640773619
% es.Ey (V/m) @ t=0.86
3.760561754966327
% es.Ez (V/m) @ t=0.86
-13.775025173646071
% es.tEx (V/m) @ t=0.86
12.575702640773589
% es.tEy (V/m) @ t=0.86
0
% es.tEz (V/m) @ t=0.86
-13.775025173646055
% V (V) @ t=0.86
0.01697464361495198
% es.normE (V/m) @ t=0.88
20.051563578386745
% es.EX (V/m) @ t=0.88
12.724709365285614
% es.EY (V/m) @ t=0.88
3.8051163857804617
% es.EZ (V/m) @ t=0.88
-13.938243829086243
% es.tEX (V/m) @ t=0.88
12.724709365285591
% es.tEY (V/m) @ t=0.88
0
% es.tEZ (V/m) @ t=0.88
-13.938243829086213
% es.Ex (V/m) @ t=0.88
12.724709365285614
% es.Ey (V/m) @ t=0.88
3.8051163857804617
% es.Ez (V/m) @ t=0.88
-13.938243829086243
% es.tEx (V/m) @ t=0.88
12.724709365285591
% es.tEy (V/m) @ t=0.88
0
% es.tEz (V/m) @ t=0.88
-13.938243829086213
% V (V) @ t=0.88
0.017175783414849575
% es.normE (V/m) @ t=0.9
20.288586739567442
% es.EX (V/m) @ t=0.9
12.875123193475686
% es.EY (V/m) @ t=0.9
3.8500914383739255
% es.EZ (V/m) @ t=0.9
-14.103003925999836
% es.tEX (V/m) @ t=0.9
12.875123193475634
% es.tEY (V/m) @ t=0.9
0
% es.tEZ (V/m) @ t=0.9
-14.103003925999793
% es.Ex (V/m) @ t=0.9
12.875123193475686
% es.Ey (V/m) @ t=0.9
3.8500914383739255
% es.Ez (V/m) @ t=0.9
-14.103003925999836
% es.tEx (V/m) @ t=0.9
12.875123193475634
% es.tEy (V/m) @ t=0.9
0
% es.tEz (V/m) @ t=0.9
-14.103003925999793
% V (V) @ t=0.9
0.01737882363783834
% es.normE (V/m) @ t=0.92
20.52782734579933
% es.EX (V/m) @ t=0.92
13.026944125343794
% es.EY (V/m) @ t=0.92
3.8954869127466907
% es.EZ (V/m) @ t=0.92
-14.269305464386829
% es.tEX (V/m) @ t=0.92
13.026944125343778
% es.tEY (V/m) @ t=0.92
0
% es.tEZ (V/m) @ t=0.92
-14.269305464386772
% es.Ex (V/m) @ t=0.92
13.026944125343794
% es.Ey (V/m) @ t=0.92
3.8954869127466907
% es.Ez (V/m) @ t=0.92
-14.269305464386829
% es.tEx (V/m) @ t=0.92
13.026944125343778
% es.tEy (V/m) @ t=0.92
0
% es.tEz (V/m) @ t=0.92
-14.269305464386772
% V (V) @ t=0.92
0.01758376428391828
% es.normE (V/m) @ t=0.94
20.769285397082832
% es.EX (V/m) @ t=0.94
13.180172160890017
% es.EY (V/m) @ t=0.94
3.941302808898806
% es.EZ (V/m) @ t=0.94
-14.437148444247203
% es.tEX (V/m) @ t=0.94
13.180172160889994
% es.tEY (V/m) @ t=0.94
0
% es.tEZ (V/m) @ t=0.94
-14.437148444247189
% es.Ex (V/m) @ t=0.94
13.180172160890017
% es.Ey (V/m) @ t=0.94
3.941302808898806
% es.Ez (V/m) @ t=0.94
-14.437148444247203
% es.tEx (V/m) @ t=0.94
13.180172160889994
% es.tEy (V/m) @ t=0.94
0
% es.tEz (V/m) @ t=0.94
-14.437148444247189
% V (V) @ t=0.94
0.01779060535308939
% es.normE (V/m) @ t=0.96
21.012960893418313
% es.EX (V/m) @ t=0.96
13.334807300114356
% es.EY (V/m) @ t=0.96
3.987539126830166
% es.EZ (V/m) @ t=0.96
-14.60653286558096
% es.tEX (V/m) @ t=0.96
13.334807300114335
% es.tEY (V/m) @ t=0.96
0
% es.tEZ (V/m) @ t=0.96
-14.606532865580931
% es.Ex (V/m) @ t=0.96
13.334807300114356
% es.Ey (V/m) @ t=0.96
3.987539126830166
% es.Ez (V/m) @ t=0.96
-14.60653286558096
% es.tEx (V/m) @ t=0.96
13.334807300114335
% es.tEy (V/m) @ t=0.96
0
% es.tEz (V/m) @ t=0.96
-14.606532865580931
% V (V) @ t=0.96
0.01799934684535167
% es.normE (V/m) @ t=0.98
21.25885383480621
% es.EX (V/m) @ t=0.98
13.490849543016727
% es.EY (V/m) @ t=0.98
4.034195866540912
% es.EZ (V/m) @ t=0.98
-14.777458728388154
% es.tEX (V/m) @ t=0.98
13.490849543016704
% es.tEY (V/m) @ t=0.98
0
% es.tEZ (V/m) @ t=0.98
-14.777458728388112
% es.Ex (V/m) @ t=0.98
13.490849543016727
% es.Ey (V/m) @ t=0.98
4.034195866540912
% es.Ez (V/m) @ t=0.98
-14.777458728388154
% es.tEx (V/m) @ t=0.98
13.490849543016704
% es.tEy (V/m) @ t=0.98
0
% es.tEz (V/m) @ t=0.98
-14.777458728388112
% V (V) @ t=0.98
0.018209988760705124
% es.normE (V/m) @ t=1
21.508173007023153
% es.EX (V/m) @ t=1
13.649067515104704
% es.EY (V/m) @ t=1
4.081509128411481
% es.EZ (V/m) @ t=1
-14.950765371025899
% es.tEX (V/m) @ t=1
13.649067515104667
% es.tEY (V/m) @ t=1
0
% es.tEZ (V/m) @ t=1
-14.95076537102587
% es.Ex (V/m) @ t=1
13.649067515104704
% es.Ey (V/m) @ t=1
4.081509128411481
% es.Ez (V/m) @ t=1
-14.950765371025899
% es.tEx (V/m) @ t=1
13.649067515104667
% es.tEy (V/m) @ t=1
0
% es.tEz (V/m) @ t=1
-14.95076537102587
% V (V) @ t=1
0.01842354858611307
% es.normE (V/m) @ t=1.02
21.76044878569469
% es.EX (V/m) @ t=1.02
13.809162598310454
% es.EY (V/m) @ t=1.02
4.129387185275995
% es.EZ (V/m) @ t=1.02
-15.12612670283503
% es.tEX (V/m) @ t=1.02
13.809162598310426
% es.tEY (V/m) @ t=1.02
0
% es.tEZ (V/m) @ t=1.02
-15.126126702835002
% es.Ex (V/m) @ t=1.02
13.809162598310454
% es.Ey (V/m) @ t=1.02
4.129387185275995
% es.Ez (V/m) @ t=1.02
-15.12612670283503
% es.tEx (V/m) @ t=1.02
13.809162598310426
% es.tEy (V/m) @ t=1.02
0
% es.tEz (V/m) @ t=1.02
-15.126126702835002
% V (V) @ t=1.02
0.018639631018546855
% es.normE (V/m) @ t=1.04
22.015206575911293
% es.EX (V/m) @ t=1.04
13.970833013972271
% es.EY (V/m) @ t=1.04
4.177737339121851
% es.EZ (V/m) @ t=1.04
-15.303213181790387
% es.tEX (V/m) @ t=1.04
13.970833013972257
% es.tEY (V/m) @ t=1.04
0
% es.tEZ (V/m) @ t=1.04
-15.303213181790369
% es.Ex (V/m) @ t=1.04
13.970833013972271
% es.Ey (V/m) @ t=1.04
4.177737339121851
% es.Ez (V/m) @ t=1.04
-15.303213181790387
% es.tEx (V/m) @ t=1.04
13.970833013972257
% es.tEy (V/m) @ t=1.04
0