% Model:              1 neuron.mph
% Version:            COMSOL 6.0.0.405
% Date:               Mar 16 2023, 20:11
% Dimension:          0
% Nodes:              14017
% Expressions:        14017
% Description:        Electric field norm, Electric field, X component, Electric field, Y component, Electric field, Z component, Tangential electric field, X component, Tangential electric field, Y component, Tangential electric field, Z component, Electric field, x component, Electric field, y component, Electric field, z component, Tangential electric field, x component, Tangential electric field, y component, Tangential electric field, z component, Electric potential
% Length unit:        mm
% x
1.0000000000000002
% y
12.2
% z
2
% es.normE (V/m) @ t=0
1.2971114782717048
% es.EX (V/m) @ t=0
0.9009839868241032
% es.EY (V/m) @ t=0
0.13491146990193553
% es.EZ (V/m) @ t=0
-0.8996691758096289
% es.tEX (V/m) @ t=0
0.9009839868241079
% es.tEY (V/m) @ t=0
0
% es.tEZ (V/m) @ t=0
-0.8996691758096107
% es.Ex (V/m) @ t=0
0.9009839868241032
% es.Ey (V/m) @ t=0
0.13491146990193553
% es.Ez (V/m) @ t=0
-0.8996691758096289
% es.tEx (V/m) @ t=0
0.9009839868241079
% es.tEy (V/m) @ t=0
0
% es.tEz (V/m) @ t=0
-0.8996691758096107
% V (V) @ t=0
0.0138903799907887
% es.normE (V/m) @ t=0.02
1.1240943203692355
% es.EX (V/m) @ t=0.02
0.7808048906561031
% es.EY (V/m) @ t=0.02
0.11691609965195493
% es.EZ (V/m) @ t=0.02
-0.7796654525821478
% es.tEX (V/m) @ t=0.02
0.7808048906561091
% es.tEY (V/m) @ t=0.02
0
% es.tEZ (V/m) @ t=0.02
-0.7796654525821367
% es.Ex (V/m) @ t=0.02
0.7808048906561031
% es.Ey (V/m) @ t=0.02
0.11691609965195493
% es.Ez (V/m) @ t=0.02
-0.7796654525821478
% es.tEx (V/m) @ t=0.02
0.7808048906561091
% es.tEy (V/m) @ t=0.02
0
% es.tEz (V/m) @ t=0.02
-0.7796654525821367
% V (V) @ t=0.02
0.01203759092997577
% es.normE (V/m) @ t=0.04
1.1382714230532591
% es.EX (V/m) @ t=0.04
0.7906524222478024
% es.EY (V/m) @ t=0.04
0.11839064495681367
% es.EZ (V/m) @ t=0.04
-0.7894986086951516
% es.tEX (V/m) @ t=0.04
0.7906524222478004
% es.tEY (V/m) @ t=0.04
0
% es.tEZ (V/m) @ t=0.04
-0.7894986086951334
% es.Ex (V/m) @ t=0.04
0.7906524222478024
% es.Ey (V/m) @ t=0.04
0.11839064495681367
% es.Ez (V/m) @ t=0.04
-0.7894986086951516
% es.tEx (V/m) @ t=0.04
0.7906524222478004
% es.tEy (V/m) @ t=0.04
0
% es.tEz (V/m) @ t=0.04
-0.7894986086951334
% V (V) @ t=0.04
0.012189409478863399
% es.normE (V/m) @ t=0.06
1.1525827200536876
% es.EX (V/m) @ t=0.06
0.800593166276587
% es.EY (V/m) @ t=0.06
0.11987914727927762
% es.EZ (V/m) @ t=0.06
-0.7994248413486447
% es.tEX (V/m) @ t=0.06
0.8005931662765855
% es.tEY (V/m) @ t=0.06
0
% es.tEZ (V/m) @ t=0.06
-0.7994248413486265
% es.Ex (V/m) @ t=0.06
0.800593166276587
% es.Ey (V/m) @ t=0.06
0.11987914727927762
% es.Ez (V/m) @ t=0.06
-0.7994248413486447
% es.tEx (V/m) @ t=0.06
0.8005931662765855
% es.tEy (V/m) @ t=0.06
0
% es.tEz (V/m) @ t=0.06
-0.7994248413486265
% V (V) @ t=0.06
0.01234266508804067
% es.normE (V/m) @ t=0.08
1.1673385547657862
% es.EX (V/m) @ t=0.08
0.8108426897802203
% es.EY (V/m) @ t=0.08
0.121413889374407
% es.EZ (V/m) @ t=0.08
-0.8096594017962442
% es.tEX (V/m) @ t=0.08
0.8108426897802263
% es.tEY (V/m) @ t=0.08
0
% es.tEZ (V/m) @ t=0.08
-0.8096594017962335
% es.Ex (V/m) @ t=0.08
0.8108426897802203
% es.Ey (V/m) @ t=0.08
0.121413889374407
% es.Ez (V/m) @ t=0.08
-0.8096594017962442
% es.tEx (V/m) @ t=0.08
0.8108426897802263
% es.tEy (V/m) @ t=0.08
0
% es.tEz (V/m) @ t=0.08
-0.8096594017962335
% V (V) @ t=0.08
0.012500680893694086
% es.normE (V/m) @ t=0.1
1.1821474997238663
% es.EX (V/m) @ t=0.1
0.8211291040884763
% es.EY (V/m) @ t=0.1
0.12295415587304798
% es.EZ (V/m) @ t=0.1
-0.819930799084803
% es.tEX (V/m) @ t=0.1
0.8211291040884747
% es.tEY (V/m) @ t=0.1
0
% es.tEZ (V/m) @ t=0.1
-0.8199307990847853
% es.Ex (V/m) @ t=0.1
0.8211291040884763
% es.Ey (V/m) @ t=0.1
0.12295415587304798
% es.Ez (V/m) @ t=0.1
-0.819930799084803
% es.tEx (V/m) @ t=0.1
0.8211291040884747
% es.tEy (V/m) @ t=0.1
0
% es.tEz (V/m) @ t=0.1
-0.8199307990847853
% V (V) @ t=0.1
0.012659265414215016
% es.normE (V/m) @ t=0.12
1.1969564446819592
% es.EX (V/m) @ t=0.12
0.8314155183967269
% es.EY (V/m) @ t=0.12
0.12449442237168984
% es.EZ (V/m) @ t=0.12
-0.8302021963733801
% es.tEX (V/m) @ t=0.12
0.8314155183967364
% es.tEY (V/m) @ t=0.12
0
% es.tEZ (V/m) @ t=0.12
-0.8302021963733655
% es.Ex (V/m) @ t=0.12
0.8314155183967269
% es.Ey (V/m) @ t=0.12
0.12449442237168984
% es.Ez (V/m) @ t=0.12
-0.8302021963733801
% es.tEx (V/m) @ t=0.12
0.8314155183967364
% es.tEy (V/m) @ t=0.12
0
% es.tEz (V/m) @ t=0.12
-0.8302021963733655
% V (V) @ t=0.12
0.012817849934735948
% es.normE (V/m) @ t=0.14
1.2126137260963241
% es.EX (V/m) @ t=0.14
0.8422911943884464
% es.EY (V/m) @ t=0.14
0.1261229226588963
% es.EZ (V/m) @ t=0.14
-0.8410619948725393
% es.tEX (V/m) @ t=0.14
0.8422911943884501
% es.tEY (V/m) @ t=0.14
0
% es.tEZ (V/m) @ t=0.14
-0.8410619948725246
% es.Ex (V/m) @ t=0.14
0.8422911943884464
% es.Ey (V/m) @ t=0.14
0.1261229226588963
% es.Ez (V/m) @ t=0.14
-0.8410619948725393
% es.tEx (V/m) @ t=0.14
0.8422911943884501
% es.tEy (V/m) @ t=0.14
0
% es.tEz (V/m) @ t=0.14
-0.8410619948725246
% V (V) @ t=0.14
0.012985519099876091
% es.normE (V/m) @ t=0.16
1.2284889158653574
% es.EX (V/m) @ t=0.16
0.8533182313678596
% es.EY (V/m) @ t=0.16
0.12777408716094574
% es.EZ (V/m) @ t=0.16
-0.8520729333335972
% es.tEX (V/m) @ t=0.16
0.8533182313678611
% es.tEY (V/m) @ t=0.16
0
% es.tEZ (V/m) @ t=0.16
-0.8520729333335897
% es.Ex (V/m) @ t=0.16
0.8533182313678596
% es.Ey (V/m) @ t=0.16
0.12777408716094574
% es.Ez (V/m) @ t=0.16
-0.8520729333335972
% es.tEx (V/m) @ t=0.16
0.8533182313678611
% es.tEy (V/m) @ t=0.16
0
% es.tEz (V/m) @ t=0.16
-0.8520729333335897
% V (V) @ t=0.16
0.013155521796655852
% es.normE (V/m) @ t=0.18
1.2443641056343857
% es.EX (V/m) @ t=0.18
0.8643452683472646
% es.EY (V/m) @ t=0.18
0.12942525166297603
% es.EZ (V/m) @ t=0.18
-0.8630838717946587
% es.tEX (V/m) @ t=0.18
0.8643452683472659
% es.tEY (V/m) @ t=0.18
0
% es.tEZ (V/m) @ t=0.18
-0.8630838717946405
% es.Ex (V/m) @ t=0.18
0.8643452683472646
% es.Ey (V/m) @ t=0.18
0.12942525166297603
% es.Ez (V/m) @ t=0.18
-0.8630838717946587
% es.tEx (V/m) @ t=0.18
0.8643452683472659
% es.tEy (V/m) @ t=0.18
0
% es.tEz (V/m) @ t=0.18
-0.8630838717946405
% V (V) @ t=0.18
0.013325524493435612
% es.normE (V/m) @ t=0.2
1.2602392954034236
% es.EX (V/m) @ t=0.2
0.8753723053266762
% es.EY (V/m) @ t=0.2
0.1310764161650152
% es.EZ (V/m) @ t=0.2
-0.8740948102557229
% es.tEX (V/m) @ t=0.2
0.8753723053266809
% es.tEY (V/m) @ t=0.2
0
% es.tEZ (V/m) @ t=0.2
-0.8740948102557189
% es.Ex (V/m) @ t=0.2
0.8753723053266762
% es.Ey (V/m) @ t=0.2
0.1310764161650152
% es.Ez (V/m) @ t=0.2
-0.8740948102557229
% es.tEx (V/m) @ t=0.2
0.8753723053266809
% es.tEy (V/m) @ t=0.2
0
% es.tEz (V/m) @ t=0.2
-0.8740948102557189
% V (V) @ t=0.2
0.013495527190215371
% es.normE (V/m) @ t=0.22
1.2761144851724575
% es.EX (V/m) @ t=0.22
0.8863993423060863
% es.EY (V/m) @ t=0.22
0.13272758066706214
% es.EZ (V/m) @ t=0.22
-0.8851057487167875
% es.tEX (V/m) @ t=0.22
0.8863993423060896
% es.tEY (V/m) @ t=0.22
0
% es.tEZ (V/m) @ t=0.22
-0.8851057487167697
% es.Ex (V/m) @ t=0.22
0.8863993423060863
% es.Ey (V/m) @ t=0.22
0.13272758066706214
% es.Ez (V/m) @ t=0.22
-0.8851057487167875
% es.tEx (V/m) @ t=0.22
0.8863993423060896
% es.tEy (V/m) @ t=0.22
0
% es.tEz (V/m) @ t=0.22
-0.8851057487167697
% V (V) @ t=0.22
0.013665529886995135
% es.normE (V/m) @ t=0.24
1.2919896749414927
% es.EX (V/m) @ t=0.24
0.8974263792854937
% es.EY (V/m) @ t=0.24
0.1343787451691109
% es.EZ (V/m) @ t=0.24
-0.896116687177853
% es.tEX (V/m) @ t=0.24
0.8974263792854966
% es.tEY (V/m) @ t=0.24
0
% es.tEZ (V/m) @ t=0.24
-0.8961166871778348
% es.Ex (V/m) @ t=0.24
0.8974263792854937
% es.Ey (V/m) @ t=0.24
0.1343787451691109
% es.Ez (V/m) @ t=0.24
-0.896116687177853
% es.tEx (V/m) @ t=0.24
0.8974263792854966
% es.tEy (V/m) @ t=0.24
0
% es.tEz (V/m) @ t=0.24
-0.8961166871778348
% V (V) @ t=0.24
0.013835532583774894
% es.normE (V/m) @ t=0.26
1.3085493622323585
% es.EX (V/m) @ t=0.26
0.9089288739063466
% es.EY (V/m) @ t=0.26
0.13610110341091458
% es.EZ (V/m) @ t=0.26
-0.9076023891259353
% es.tEX (V/m) @ t=0.26
0.9089288739063508
% es.tEY (V/m) @ t=0.26
0
% es.tEZ (V/m) @ t=0.26
-0.9076023891259206
% es.Ex (V/m) @ t=0.26
0.9089288739063466
% es.Ey (V/m) @ t=0.26
0.13610110341091458
% es.Ez (V/m) @ t=0.26
-0.9076023891259353
% es.tEx (V/m) @ t=0.26
0.9089288739063508
% es.tEy (V/m) @ t=0.26
0
% es.tEz (V/m) @ t=0.26
-0.9076023891259206
% V (V) @ t=0.26
0.014012865368512286
% es.normE (V/m) @ t=0.28
1.3255647439864862
% es.EX (V/m) @ t=0.28
0.9207478976712968
% es.EY (V/m) @ t=0.28
0.1378708578696688
% es.EZ (V/m) @ t=0.28
-0.9194041580947059
% es.tEX (V/m) @ t=0.28
0.9207478976712955
% es.tEY (V/m) @ t=0.28
0
% es.tEZ (V/m) @ t=0.28
-0.9194041580946948
% es.Ex (V/m) @ t=0.28
0.9207478976712968
% es.Ey (V/m) @ t=0.28
0.1378708578696688
% es.Ez (V/m) @ t=0.28
-0.9194041580947059
% es.tEx (V/m) @ t=0.28
0.9207478976712955
% es.tEy (V/m) @ t=0.28
0
% es.tEz (V/m) @ t=0.28
-0.9194041580946948
% V (V) @ t=0.28
0.014195078054769984
% es.normE (V/m) @ t=0.3
1.3425801257406182
% es.EX (V/m) @ t=0.3
0.9325669214362382
% es.EY (V/m) @ t=0.3
0.13964061232838215
% es.EZ (V/m) @ t=0.3
-0.9312059270634951
% es.tEX (V/m) @ t=0.3
0.9325669214362438
% es.tEY (V/m) @ t=0.3
0
% es.tEZ (V/m) @ t=0.3
-0.9312059270634769
% es.Ex (V/m) @ t=0.3
0.9325669214362382
% es.Ey (V/m) @ t=0.3
0.13964061232838215
% es.Ez (V/m) @ t=0.3
-0.9312059270634951
% es.tEx (V/m) @ t=0.3
0.9325669214362438
% es.tEy (V/m) @ t=0.3
0
% es.tEz (V/m) @ t=0.3
-0.9312059270634769
% V (V) @ t=0.3
0.014377290741027676
% es.normE (V/m) @ t=0.32
1.3595955074947441
% es.EX (V/m) @ t=0.32
0.9443859452011776
% es.EY (V/m) @ t=0.32
0.14141036678714342
% es.EZ (V/m) @ t=0.32
-0.9430076960322693
% es.tEX (V/m) @ t=0.32
0.9443859452011822
% es.tEY (V/m) @ t=0.32
0
% es.tEZ (V/m) @ t=0.32
-0.9430076960322511
% es.Ex (V/m) @ t=0.32
0.9443859452011776
% es.Ey (V/m) @ t=0.32
0.14141036678714342
% es.Ez (V/m) @ t=0.32
-0.9430076960322693
% es.tEx (V/m) @ t=0.32
0.9443859452011822
% es.tEy (V/m) @ t=0.32
0
% es.tEz (V/m) @ t=0.32
-0.9430076960322511
% V (V) @ t=0.32
0.014559503427285375
% es.normE (V/m) @ t=0.34
1.3766108892488487
% es.EX (V/m) @ t=0.34
0.9562049689661201
% es.EY (V/m) @ t=0.34
0.14318012124586493
% es.EZ (V/m) @ t=0.34
-0.954809465001015
% es.tEX (V/m) @ t=0.34
0.9562049689661238
% es.tEY (V/m) @ t=0.34
0
% es.tEZ (V/m) @ t=0.34
-0.9548094650009968
% es.Ex (V/m) @ t=0.34
0.9562049689661201
% es.Ey (V/m) @ t=0.34
0.14318012124586493
% es.Ez (V/m) @ t=0.34
-0.954809465001015
% es.tEx (V/m) @ t=0.34
0.9562049689661238
% es.tEy (V/m) @ t=0.34
0
% es.tEz (V/m) @ t=0.34
-0.9548094650009968
% V (V) @ t=0.34
0.014741716113543068
% es.normE (V/m) @ t=0.36
1.3936262710029905
% es.EX (V/m) @ t=0.36
0.9680239927310679
% es.EY (V/m) @ t=0.36
0.1449498757046147
% es.EZ (V/m) @ t=0.36
-0.9666112339698114
% es.tEX (V/m) @ t=0.36
0.9680239927310725
% es.tEY (V/m) @ t=0.36
0
% es.tEZ (V/m) @ t=0.36
-0.9666112339697932
% es.Ex (V/m) @ t=0.36
0.9680239927310679
% es.Ey (V/m) @ t=0.36
0.1449498757046147
% es.Ez (V/m) @ t=0.36
-0.9666112339698114
% es.tEx (V/m) @ t=0.36
0.9680239927310725
% es.tEy (V/m) @ t=0.36
0
% es.tEz (V/m) @ t=0.36
-0.9666112339697932
% V (V) @ t=0.36
0.014923928799800763
% es.normE (V/m) @ t=0.38
1.411134344957131
% es.EX (V/m) @ t=0.38
0.9801852446146493
% es.EY (V/m) @ t=0.38
0.14677087461136118
% es.EZ (V/m) @ t=0.38
-0.9787547312906697
% es.tEX (V/m) @ t=0.38
0.9801852446146513
% es.tEY (V/m) @ t=0.38
0
% es.tEZ (V/m) @ t=0.38
-0.9787547312906515
% es.Ex (V/m) @ t=0.38
0.9801852446146493
% es.Ey (V/m) @ t=0.38
0.14677087461136118
% es.Ez (V/m) @ t=0.38
-0.9787547312906697
% es.tEx (V/m) @ t=0.38
0.9801852446146513
% es.tEy (V/m) @ t=0.38
0
% es.tEz (V/m) @ t=0.38
-0.9787547312906515
% V (V) @ t=0.38
0.015111417581722889
% es.normE (V/m) @ t=0.4
1.42936612886691
% es.EX (V/m) @ t=0.4
0.9928491914801085
% es.EY (V/m) @ t=0.4
0.1486671459036112
% es.EZ (V/m) @ t=0.4
-0.9914001894920053
% es.tEX (V/m) @ t=0.4
0.9928491914801123
% es.tEY (V/m) @ t=0.4
0
% es.tEZ (V/m) @ t=0.4
-0.9914001894919942
% es.Ex (V/m) @ t=0.4
0.9928491914801085
% es.Ey (V/m) @ t=0.4
0.1486671459036112
% es.Ez (V/m) @ t=0.4
-0.9914001894920053
% es.tEx (V/m) @ t=0.4
0.9928491914801123
% es.tEy (V/m) @ t=0.4
0
% es.tEz (V/m) @ t=0.4
-0.9914001894919942
% V (V) @ t=0.4
0.015306656360416445
% es.normE (V/m) @ t=0.42
1.4475979127767107
% es.EX (V/m) @ t=0.42
1.005513138345581
% es.EY (V/m) @ t=0.42
0.15056341719586208
% es.EZ (V/m) @ t=0.42
-1.0040456476933621
% es.tEX (V/m) @ t=0.42
1.0055131383455866
% es.tEY (V/m) @ t=0.42
0
% es.tEZ (V/m) @ t=0.42
-1.004045647693344
% es.Ex (V/m) @ t=0.42
1.005513138345581
% es.Ey (V/m) @ t=0.42
0.15056341719586208
% es.Ez (V/m) @ t=0.42
-1.0040456476933621
% es.tEx (V/m) @ t=0.42
1.0055131383455866
% es.tEy (V/m) @ t=0.42
0
% es.tEz (V/m) @ t=0.42
-1.004045647693344
% V (V) @ t=0.42
0.015501895139109998
% es.normE (V/m) @ t=0.44
1.4658296966865096
% es.EX (V/m) @ t=0.44
1.0181770852110448
% es.EY (V/m) @ t=0.44
0.15245968848811303
% es.EZ (V/m) @ t=0.44
-1.0166911058947234
% es.tEX (V/m) @ t=0.44
1.0181770852110503
% es.tEY (V/m) @ t=0.44
0
% es.tEZ (V/m) @ t=0.44
-1.0166911058947017
% es.Ex (V/m) @ t=0.44
1.0181770852110448
% es.Ey (V/m) @ t=0.44
0.15245968848811303
% es.Ez (V/m) @ t=0.44
-1.0166911058947234
% es.tEx (V/m) @ t=0.44
1.0181770852110503
% es.tEy (V/m) @ t=0.44
0
% es.tEz (V/m) @ t=0.44
-1.0166911058947017
% V (V) @ t=0.44
0.01569713391780355
% es.normE (V/m) @ t=0.46
1.4840614805963082
% es.EX (V/m) @ t=0.46
1.0308410320765165
% es.EY (V/m) @ t=0.46
0.1543559597803575
% es.EZ (V/m) @ t=0.46
-1.0293365640960803
% es.tEX (V/m) @ t=0.46
1.0308410320765184
% es.tEY (V/m) @ t=0.46
0
% es.tEZ (V/m) @ t=0.46
-1.0293365640960586
% es.Ex (V/m) @ t=0.46
1.0308410320765165
% es.Ey (V/m) @ t=0.46
0.1543559597803575
% es.Ez (V/m) @ t=0.46
-1.0293365640960803
% es.tEx (V/m) @ t=0.46
1.0308410320765184
% es.tEy (V/m) @ t=0.46
0
% es.tEz (V/m) @ t=0.46
-1.0293365640960586
% V (V) @ t=0.46
0.015892372696497105
% es.normE (V/m) @ t=0.48
1.5022932645060825
% es.EX (V/m) @ t=0.48
1.043504978941973
% es.EY (V/m) @ t=0.48
0.15625223107258607
% es.EZ (V/m) @ t=0.48
-1.0419820222974168
% es.tEX (V/m) @ t=0.48
1.0435049789419821
% es.tEY (V/m) @ t=0.48
0
% es.tEZ (V/m) @ t=0.48
-1.041982022297395
% es.Ex (V/m) @ t=0.48
1.043504978941973
% es.Ey (V/m) @ t=0.48
0.15625223107258607
% es.Ez (V/m) @ t=0.48
-1.0419820222974168
% es.tEx (V/m) @ t=0.48
1.0435049789419821
% es.tEy (V/m) @ t=0.48
0
% es.tEz (V/m) @ t=0.48
-1.041982022297395
% V (V) @ t=0.48
0.016087611475190656
% es.normE (V/m) @ t=0.5
1.5206360245799582
% es.EX (V/m) @ t=0.5
1.0562460107843321
% es.EY (V/m) @ t=0.5
0.15816004483403434
% es.EZ (V/m) @ t=0.5
-1.0547044529092093
% es.tEX (V/m) @ t=0.5
1.0562460107843368
% es.tEY (V/m) @ t=0.5
0
% es.tEZ (V/m) @ t=0.5
-1.0547044529091876
% es.Ex (V/m) @ t=0.5
1.0562460107843321
% es.Ey (V/m) @ t=0.5
0.15816004483403434
% es.Ez (V/m) @ t=0.5
-1.0547044529092093
% es.tEx (V/m) @ t=0.5
1.0562460107843368
% es.tEy (V/m) @ t=0.5
0
% es.tEz (V/m) @ t=0.5
-1.0547044529091876
% V (V) @ t=0.5
0.01628403866851831
% es.normE (V/m) @ t=0.52
1.5394968398709077
% es.EX (V/m) @ t=0.52
1.0693468881373336
% es.EY (V/m) @ t=0.52
0.16012174076396218
% es.EZ (V/m) @ t=0.52
-1.0677862035527972
% es.tEX (V/m) @ t=0.52
1.0693468881373387
% es.tEY (V/m) @ t=0.52
0
% es.tEZ (V/m) @ t=0.52
-1.0677862035527754
% es.Ex (V/m) @ t=0.52
1.0693468881373336
% es.Ey (V/m) @ t=0.52
0.16012174076396218
% es.Ez (V/m) @ t=0.52
-1.0677862035527972
% es.tEx (V/m) @ t=0.52
1.0693468881373387
% es.tEy (V/m) @ t=0.52
0
% es.tEz (V/m) @ t=0.52
-1.0677862035527754
% V (V) @ t=0.52
0.016486013579290158
% es.normE (V/m) @ t=0.54
1.5585228683021046
% es.EX (V/m) @ t=0.54
1.082562523927009
% es.EY (V/m) @ t=0.54
0.16210062027195998
% es.EZ (V/m) @ t=0.54
-1.0809825450524273
% es.tEX (V/m) @ t=0.54
1.0825625239270136
% es.tEY (V/m) @ t=0.54
0
% es.tEZ (V/m) @ t=0.54
-1.0809825450524055
% es.Ex (V/m) @ t=0.54
1.082562523927009
% es.Ey (V/m) @ t=0.54
0.16210062027195998
% es.Ez (V/m) @ t=0.54
-1.0809825450524273
% es.tEx (V/m) @ t=0.54
1.0825625239270136
% es.tEy (V/m) @ t=0.54
0
% es.tEz (V/m) @ t=0.54
-1.0809825450524055
% V (V) @ t=0.54
0.01668975771424863
% es.normE (V/m) @ t=0.56
1.5777141098735585
% es.EX (V/m) @ t=0.56
1.0958929181533505
% es.EY (V/m) @ t=0.56
0.16409668335803457
% es.EZ (V/m) @ t=0.56
-1.0942934774081157
% es.tEX (V/m) @ t=0.56
1.0958929181533446
% es.tEY (V/m) @ t=0.56
0
% es.tEZ (V/m) @ t=0.56
-1.094293477408094
% es.Ex (V/m) @ t=0.56
1.0958929181533505
% es.Ey (V/m) @ t=0.56
0.16409668335803457
% es.Ez (V/m) @ t=0.56
-1.0942934774081157
% es.tEx (V/m) @ t=0.56
1.0958929181533446
% es.tEy (V/m) @ t=0.56
0
% es.tEz (V/m) @ t=0.56
-1.094293477408094
% V (V) @ t=0.56
0.016895271073393718
% es.normE (V/m) @ t=0.58
1.5970705645852221
% es.EX (V/m) @ t=0.58
1.1093380708163465
% es.EY (V/m) @ t=0.58
0.16610993002218583
% es.EZ (V/m) @ t=0.58
-1.1077190006198152
% es.tEX (V/m) @ t=0.58
1.1093380708163507
% es.tEY (V/m) @ t=0.58
0
% es.tEZ (V/m) @ t=0.58
-1.107719000619797
% es.Ex (V/m) @ t=0.58
1.1093380708163465
% es.Ey (V/m) @ t=0.58
0.16610993002218583
% es.Ez (V/m) @ t=0.58
-1.1077190006198152
% es.tEx (V/m) @ t=0.58
1.1093380708163507
% es.tEy (V/m) @ t=0.58
0
% es.tEz (V/m) @ t=0.58
-1.107719000619797
% V (V) @ t=0.58
0.017102553656725427
% es.normE (V/m) @ t=0.6
1.6165922324371156
% es.EX (V/m) @ t=0.6
1.1228979819159888
% es.EY (V/m) @ t=0.6
0.1681403602643886
% es.EZ (V/m) @ t=0.6
-1.1212591146875526
% es.tEX (V/m) @ t=0.6
1.122897981915997
% es.tEY (V/m) @ t=0.6
0
% es.tEZ (V/m) @ t=0.6
-1.1212591146875308
% es.Ex (V/m) @ t=0.6
1.1228979819159888
% es.Ey (V/m) @ t=0.6
0.1681403602643886
% es.Ez (V/m) @ t=0.6
-1.1212591146875526
% es.tEx (V/m) @ t=0.6
1.122897981915997
% es.tEy (V/m) @ t=0.6
0
% es.tEz (V/m) @ t=0.6
-1.1212591146875308
% V (V) @ t=0.6
0.017311605464243755
% es.normE (V/m) @ t=0.62
1.636279113429264
% es.EX (V/m) @ t=0.62
1.1365726514523162
% es.EY (V/m) @ t=0.62
0.1701879740846325
% es.EZ (V/m) @ t=0.62
-1.1349138196113433
% es.tEX (V/m) @ t=0.62
1.1365726514523207
% es.tEY (V/m) @ t=0.62
0
% es.tEZ (V/m) @ t=0.62
-1.1349138196113069
% es.Ex (V/m) @ t=0.62
1.1365726514523162
% es.Ey (V/m) @ t=0.62
0.1701879740846325
% es.Ez (V/m) @ t=0.62
-1.1349138196113433
% es.tEx (V/m) @ t=0.62
1.1365726514523207
% es.tEy (V/m) @ t=0.62
0
% es.tEz (V/m) @ t=0.62
-1.1349138196113069
% V (V) @ t=0.62
0.017522426495948706
% es.normE (V/m) @ t=0.64
1.6561312075616232
% es.EX (V/m) @ t=0.64
1.1503620794252776
% es.EY (V/m) @ t=0.64
0.17225277148294155
% es.EZ (V/m) @ t=0.64
-1.1486831153911488
% es.tEX (V/m) @ t=0.64
1.1503620794252787
% es.tEY (V/m) @ t=0.64
0
% es.tEZ (V/m) @ t=0.64
-1.14868311539112
% es.Ex (V/m) @ t=0.64
1.1503620794252776
% es.Ey (V/m) @ t=0.64
0.17225277148294155
% es.Ez (V/m) @ t=0.64
-1.1486831153911488
% es.tEx (V/m) @ t=0.64
1.1503620794252787
% es.tEy (V/m) @ t=0.64
0
% es.tEz (V/m) @ t=0.64
-1.14868311539112
% V (V) @ t=0.64
0.017735016751840284
% es.normE (V/m) @ t=0.66
1.6761485148342716
% es.EX (V/m) @ t=0.66
1.1642662658349365
% es.EY (V/m) @ t=0.66
0.17433475245933983
% es.EZ (V/m) @ t=0.66
-1.1625670020270347
% es.tEX (V/m) @ t=0.66
1.1642662658349372
% es.tEY (V/m) @ t=0.66
0
% es.tEZ (V/m) @ t=0.66
-1.1625670020270196
% es.Ex (V/m) @ t=0.66
1.1642662658349365
% es.Ey (V/m) @ t=0.66
0.17433475245933983
% es.Ez (V/m) @ t=0.66
-1.1625670020270347
% es.tEx (V/m) @ t=0.66
1.1642662658349372
% es.tEy (V/m) @ t=0.66
0
% es.tEz (V/m) @ t=0.66
-1.1625670020270196
% V (V) @ t=0.66
0.01794937623191848
% es.normE (V/m) @ t=0.68
1.6963310352471215
% es.EX (V/m) @ t=0.68
1.1782852106812234
% es.EY (V/m) @ t=0.68
0.17643391701376238
% es.EZ (V/m) @ t=0.68
-1.1765654795189495
% es.tEX (V/m) @ t=0.68
1.1782852106812243
% es.tEY (V/m) @ t=0.68
0
% es.tEZ (V/m) @ t=0.68
-1.1765654795189349
% es.Ex (V/m) @ t=0.68
1.1782852106812234
% es.Ey (V/m) @ t=0.68
0.17643391701376238
% es.Ez (V/m) @ t=0.68
-1.1765654795189495
% es.tEx (V/m) @ t=0.68
1.1782852106812243
% es.tEy (V/m) @ t=0.68
0
% es.tEz (V/m) @ t=0.68
-1.1765654795189349
% V (V) @ t=0.68
0.018165504936183293
% es.normE (V/m) @ t=0.7
1.7166787688001803
% es.EX (V/m) @ t=0.7
1.1924189139641599
% es.EY (V/m) @ t=0.7
0.1785502651462847
% es.EZ (V/m) @ t=0.7
-1.1906785478668716
% es.tEX (V/m) @ t=0.7
1.1924189139641737
% es.tEY (V/m) @ t=0.7
0
% es.tEZ (V/m) @ t=0.7
-1.1906785478668498
% es.Ex (V/m) @ t=0.7
1.1924189139641599
% es.Ey (V/m) @ t=0.7
0.1785502651462847
% es.Ez (V/m) @ t=0.7
-1.1906785478668716
% es.tEx (V/m) @ t=0.7
1.1924189139641737
% es.tEy (V/m) @ t=0.7
0
% es.tEz (V/m) @ t=0.7
-1.1906785478668498
% V (V) @ t=0.7
0.01838340286463473
% es.normE (V/m) @ t=0.72
1.737191715493529
% es.EX (V/m) @ t=0.72
1.206667375683793
% es.EY (V/m) @ t=0.72
0.18068379685685187
% es.EZ (V/m) @ t=0.72
-1.204906207070867
% es.tEX (V/m) @ t=0.72
1.206667375683801
% es.tEY (V/m) @ t=0.72
0
% es.tEZ (V/m) @ t=0.72
-1.2049062070708523
% es.Ex (V/m) @ t=0.72
1.206667375683793
% es.Ey (V/m) @ t=0.72
0.18068379685685187
% es.Ez (V/m) @ t=0.72
-1.204906207070867
% es.tEx (V/m) @ t=0.72
1.206667375683801
% es.tEy (V/m) @ t=0.72
0
% es.tEz (V/m) @ t=0.72
-1.2049062070708523
% V (V) @ t=0.72
0.018603070017272783
% es.normE (V/m) @ t=0.74
1.7578698753270943
% es.EX (V/m) @ t=0.74
1.2210305958400687
% es.EY (V/m) @ t=0.74
0.18283451214552193
% es.EZ (V/m) @ t=0.74
-1.2192484571308912
% es.tEX (V/m) @ t=0.74
1.2210305958400767
% es.tEY (V/m) @ t=0.74
0
% es.tEZ (V/m) @ t=0.74
-1.2192484571308553
% es.Ex (V/m) @ t=0.74
1.2210305958400687
% es.Ey (V/m) @ t=0.74
0.18283451214552193
% es.Ez (V/m) @ t=0.74
-1.2192484571308912
% es.tEx (V/m) @ t=0.74
1.2210305958400767
% es.tEy (V/m) @ t=0.74
0
% es.tEz (V/m) @ t=0.74
-1.2192484571308553
% V (V) @ t=0.74
0.018824506394097464
% es.normE (V/m) @ t=0.76
1.7789684330962405
% es.EX (V/m) @ t=0.76
1.2356858279429335
% es.EY (V/m) @ t=0.76
0.18502895138054065
% es.EZ (V/m) @ t=0.76
-1.2338822929848976
% es.tEX (V/m) @ t=0.76
1.2356858279429384
% es.tEY (V/m) @ t=0.76
0
% es.tEZ (V/m) @ t=0.76
-1.2338822929848687
% es.Ex (V/m) @ t=0.76
1.2356858279429335
% es.Ey (V/m) @ t=0.76
0.18502895138054065
% es.Ez (V/m) @ t=0.76
-1.2338822929848976
% es.tEx (V/m) @ t=0.76
1.2356858279429384
% es.tEy (V/m) @ t=0.76
0
% es.tEz (V/m) @ t=0.76
-1.2338822929848687
% V (V) @ t=0.76
0.019050444765445606
% es.normE (V/m) @ t=0.78
1.8003314413497455
% es.EX (V/m) @ t=0.78
1.2505247495782164
% es.EY (V/m) @ t=0.78
0.1872508953244406
% es.EZ (V/m) @ t=0.78
-1.2486995502361116
% es.tEX (V/m) @ t=0.78
1.2505247495782212
% es.tEY (V/m) @ t=0.78
0
% es.tEZ (V/m) @ t=0.78
-1.248699550236104
% es.Ex (V/m) @ t=0.78
1.2505247495782164
% es.Ey (V/m) @ t=0.78
0.1872508953244406
% es.Ez (V/m) @ t=0.78
-1.2486995502361116
% es.tEx (V/m) @ t=0.78
1.2505247495782212
% es.tEy (V/m) @ t=0.78
0
% es.tEz (V/m) @ t=0.78
-1.248699550236104
% V (V) @ t=0.78
0.01927921509228395
% es.normE (V/m) @ t=0.8
1.8219068281503474
% es.EX (V/m) @ t=0.8
1.2655111911393502
% es.EY (V/m) @ t=0.8
0.18949492826122982
% es.EZ (V/m) @ t=0.8
-1.263664112041091
% es.tEX (V/m) @ t=0.8
1.2655111911393577
% es.tEY (V/m) @ t=0.8
0
% es.tEZ (V/m) @ t=0.8
-1.2636641120410763
% es.Ex (V/m) @ t=0.8
1.2655111911393502
% es.Ey (V/m) @ t=0.8
0.18949492826122982
% es.Ez (V/m) @ t=0.8
-1.263664112041091
% es.tEx (V/m) @ t=0.8
1.2655111911393577
% es.tEy (V/m) @ t=0.8
0
% es.tEz (V/m) @ t=0.8
-1.2636641120410763
% V (V) @ t=0.8
0.01951025973697902
% es.normE (V/m) @ t=0.82
1.843694593498069
% es.EX (V/m) @ t=0.82
1.2806451526263398
% es.EY (V/m) @ t=0.82
0.1917610501908178
% es.EZ (V/m) @ t=0.82
-1.2787759783998656
% es.tEX (V/m) @ t=0.82
1.2806451526263425
% es.tEY (V/m) @ t=0.82
0
% es.tEZ (V/m) @ t=0.82
-1.2787759783998434
% es.Ex (V/m) @ t=0.82
1.2806451526263398
% es.Ey (V/m) @ t=0.82
0.1917610501908178
% es.Ez (V/m) @ t=0.82
-1.2787759783998656
% es.tEx (V/m) @ t=0.82
1.2806451526263425
% es.tEy (V/m) @ t=0.82
0
% es.tEz (V/m) @ t=0.82
-1.2787759783998434
% V (V) @ t=0.82
0.019743578699530834
% es.normE (V/m) @ t=0.84
1.86569473739295
% es.EX (V/m) @ t=0.84
1.2959266340392035
% es.EY (V/m) @ t=0.84
0.19404926111329768
% es.EZ (V/m) @ t=0.84
-1.2940351493124562
% es.tEX (V/m) @ t=0.84
1.295926634039203
% es.tEY (V/m) @ t=0.84
0
% es.tEZ (V/m) @ t=0.84
-1.2940351493124345
% es.Ex (V/m) @ t=0.84
1.2959266340392035
% es.Ey (V/m) @ t=0.84
0.19404926111329768
% es.Ez (V/m) @ t=0.84
-1.2940351493124562
% es.tEx (V/m) @ t=0.84
1.295926634039203
% es.tEy (V/m) @ t=0.84
0
% es.tEz (V/m) @ t=0.84
-1.2940351493124345
% V (V) @ t=0.84
0.019979171979939377
% es.normE (V/m) @ t=0.86
1.8879072598348883
% es.EX (V/m) @ t=0.86
1.3113556353779043
% es.EY (V/m) @ t=0.86
0.19635956102859342
% es.EZ (V/m) @ t=0.86
-1.3094416247787986
% es.tEX (V/m) @ t=0.86
1.3113556353779217
% es.tEY (V/m) @ t=0.86
0
% es.tEZ (V/m) @ t=0.86
-1.3094416247787768
% es.Ex (V/m) @ t=0.86
1.3113556353779043
% es.Ey (V/m) @ t=0.86
0.19635956102859342
% es.Ez (V/m) @ t=0.86
-1.3094416247787986
% es.tEx (V/m) @ t=0.86
1.3113556353779217
% es.tEy (V/m) @ t=0.86
0
% es.tEz (V/m) @ t=0.86
-1.3094416247787768
% V (V) @ t=0.86
0.02021703957820466
% es.normE (V/m) @ t=0.88
1.9103321608239539
% es.EX (V/m) @ t=0.88
1.3269321566424779
% es.EY (V/m) @ t=0.88
0.1986919499368036
% es.EZ (V/m) @ t=0.88
-1.3249954047988948
% es.tEX (V/m) @ t=0.88
1.3269321566424832
% es.tEY (V/m) @ t=0.88
0
% es.tEZ (V/m) @ t=0.88
-1.324995404798873
% es.Ex (V/m) @ t=0.88
1.3269321566424779
% es.Ey (V/m) @ t=0.88
0.1986919499368036
% es.Ez (V/m) @ t=0.88
-1.3249954047988948
% es.tEx (V/m) @ t=0.88
1.3269321566424832
% es.tEy (V/m) @ t=0.88
0
% es.tEz (V/m) @ t=0.88
-1.324995404798873
% V (V) @ t=0.88
0.020457181494326675
% es.normE (V/m) @ t=0.9
1.9329694403601523
% es.EX (V/m) @ t=0.9
1.3426561978329228
% es.EY (V/m) @ t=0.9
0.2010464278378381
% es.EZ (V/m) @ t=0.9
-1.3406964893727982
% es.tEX (V/m) @ t=0.9
1.3426561978329365
% es.tEY (V/m) @ t=0.9
0
% es.tEZ (V/m) @ t=0.9
-1.3406964893727906
% es.Ex (V/m) @ t=0.9
1.3426561978329228
% es.Ey (V/m) @ t=0.9
0.2010464278378381
% es.Ez (V/m) @ t=0.9
-1.3406964893727982
% es.tEx (V/m) @ t=0.9
1.3426561978329365
% es.tEy (V/m) @ t=0.9
0
% es.tEz (V/m) @ t=0.9
-1.3406964893727906
% V (V) @ t=0.9
0.020699597728305423
% es.normE (V/m) @ t=0.92
1.9558190984434896
% es.EX (V/m) @ t=0.92
1.3585277589492306
% es.EY (V/m) @ t=0.92
0.203422994731713
% es.EZ (V/m) @ t=0.92
-1.3565448785005114
% es.tEX (V/m) @ t=0.92
1.3585277589492302
% es.tEY (V/m) @ t=0.92
0
% es.tEZ (V/m) @ t=0.92
-1.3565448785005039
% es.Ex (V/m) @ t=0.92
1.3585277589492306
% es.Ey (V/m) @ t=0.92
0.203422994731713
% es.Ez (V/m) @ t=0.92
-1.3565448785005114
% es.tEx (V/m) @ t=0.92
1.3585277589492302
% es.tEy (V/m) @ t=0.92
0
% es.tEz (V/m) @ t=0.92
-1.3565448785005039
% V (V) @ t=0.92
0.020944288280140912
% es.normE (V/m) @ t=0.94
1.9788811350739284
% es.EX (V/m) @ t=0.94
1.374546839991389
% es.EY (V/m) @ t=0.94
0.20582165061844293
% es.EZ (V/m) @ t=0.94
-1.3725405721819959
% es.tEX (V/m) @ t=0.94
1.3745468399913916
% es.tEY (V/m) @ t=0.94
0
% es.tEZ (V/m) @ t=0.94
-1.3725405721819808
% es.Ex (V/m) @ t=0.94
1.374546839991389
% es.Ey (V/m) @ t=0.94
0.20582165061844293
% es.Ez (V/m) @ t=0.94
-1.3725405721819959
% es.tEx (V/m) @ t=0.94
1.3745468399913916
% es.tEy (V/m) @ t=0.94
0
% es.tEz (V/m) @ t=0.94
-1.3725405721819808
% V (V) @ t=0.94
0.021191253149833132
% es.normE (V/m) @ t=0.96
2.002155550251489
% es.EX (V/m) @ t=0.96
1.3907134409594093
% es.EY (V/m) @ t=0.96
0.20824239549806578
% es.EZ (V/m) @ t=0.96
-1.3886835704172706
% es.tEX (V/m) @ t=0.96
1.3907134409594102
% es.tEY (V/m) @ t=0.96
0
% es.tEZ (V/m) @ t=0.96
-1.388683570417256
% es.Ex (V/m) @ t=0.96
1.3907134409594093
% es.Ey (V/m) @ t=0.96
0.20824239549806578
% es.Ez (V/m) @ t=0.96
-1.3886835704172706
% es.tEx (V/m) @ t=0.96
1.3907134409594102
% es.tEy (V/m) @ t=0.96
0
% es.tEz (V/m) @ t=0.96
-1.388683570417256
% V (V) @ t=0.96
0.021440492337382083
% es.normE (V/m) @ t=0.98
2.0256423439761617
% es.EX (V/m) @ t=0.98
1.4070275618532913
% es.EY (V/m) @ t=0.98
0.2106852293705348
% es.EZ (V/m) @ t=0.98
-1.404973873206317
% es.tEX (V/m) @ t=0.98
1.4070275618532886
% es.tEY (V/m) @ t=0.98
0
% es.tEZ (V/m) @ t=0.98
-1.4049738732062949
% es.Ex (V/m) @ t=0.98
1.4070275618532913
% es.Ey (V/m) @ t=0.98
0.2106852293705348
% es.Ez (V/m) @ t=0.98
-1.404973873206317
% es.tEx (V/m) @ t=0.98
1.4070275618532886
% es.tEy (V/m) @ t=0.98
0
% es.tEz (V/m) @ t=0.98
-1.4049738732062949
% V (V) @ t=0.98
0.021692005842787777
% es.normE (V/m) @ t=1
2.0494114646534434
% es.EX (V/m) @ t=1
1.423537789527808
% es.EY (V/m) @ t=1
0.21315742929573445
% es.EZ (V/m) @ t=1
-1.421459995740407
% es.tEX (V/m) @ t=1
1.4235377895278196
% es.tEY (V/m) @ t=1
0
% es.tEZ (V/m) @ t=1
-1.4214599957403777
% es.Ex (V/m) @ t=1
1.423537789527808
% es.Ey (V/m) @ t=1
0.21315742929573445
% es.Ez (V/m) @ t=1
-1.421459995740407
% es.tEx (V/m) @ t=1
1.4235377895278196
% es.tEy (V/m) @ t=1
0
% es.tEz (V/m) @ t=1
-1.4214599957403777
% V (V) @ t=1
0.021946542625548144
% es.normE (V/m) @ t=1.02
2.073504418868919
% es.EX (V/m) @ t=1.02
1.4402729548681386
% es.EY (V/m) @ t=1.02
0.21566331339806433
% es.EZ (V/m) @ t=1.02
-1.4381707263803403
% es.tEX (V/m) @ t=1.02
1.4402729548681465
% es.tEY (V/m) @ t=1.02
0
% es.tEZ (V/m) @ t=1.02
-1.438170726380319
% es.Ex (V/m) @ t=1.02
1.4402729548681386
% es.Ey (V/m) @ t=1.02
0.21566331339806433
% es.Ez (V/m) @ t=1.02
-1.4381707263803403
% es.tEx (V/m) @ t=1.02
1.4402729548681465
% es.tEy (V/m) @ t=1.02
0
% es.tEz (V/m) @ t=1.02
-1.438170726380319
% V (V) @ t=1.02
0.0222045471096824
% es.normE (V/m) @ t=1.04
2.097835215826338
% es.EX (V/m) @ t=1.04
1.457173327816077
% es.EY (V/m) @ t=1.04
0.21819393565261047
% es.EZ (V/m) @ t=1.04
-1.4550464231672606
% es.tEX (V/m) @ t=1.04