% Model:              1 neuron.mph
% Version:            COMSOL 6.0.0.405
% Date:               Mar 16 2023, 19:59
% Dimension:          0
% Nodes:              14017
% Expressions:        14017
% Description:        Electric field norm, Electric field, X component, Electric field, Y component, Electric field, Z component, Tangential electric field, X component, Tangential electric field, Y component, Tangential electric field, Z component, Electric field, x component, Electric field, y component, Electric field, z component, Tangential electric field, x component, Tangential electric field, y component, Tangential electric field, z component, Electric potential
% Length unit:        mm
% x
1.66
% y
12.200000000000001
% z
1.66
% es.normE (V/m) @ t=0
38.55419905167416
% es.EX (V/m) @ t=0
-18.20751288677171
% es.EY (V/m) @ t=0
14.60806068996056
% es.EZ (V/m) @ t=0
17.511481430444306
% es.tEX (V/m) @ t=0
-18.207512886771738
% es.tEY (V/m) @ t=0
0
% es.tEZ (V/m) @ t=0
17.51148143044429
% es.Ex (V/m) @ t=0
-18.20751288677171
% es.Ey (V/m) @ t=0
14.60806068996056
% es.Ez (V/m) @ t=0
17.511481430444306
% es.tEx (V/m) @ t=0
-18.207512886771738
% es.tEy (V/m) @ t=0
0
% es.tEz (V/m) @ t=0
17.51148143044429
% V (V) @ t=0
0.012100068774628648
% es.normE (V/m) @ t=0.02
33.41131861411081
% es.EX (V/m) @ t=0.02
-15.77874860131206
% es.EY (V/m) @ t=0.02
12.659440008170954
% es.EZ (V/m) @ t=0.02
15.175563232758101
% es.tEX (V/m) @ t=0.02
-15.77874860131206
% es.tEY (V/m) @ t=0.02
0
% es.tEZ (V/m) @ t=0.02
15.175563232758066
% es.Ex (V/m) @ t=0.02
-15.77874860131206
% es.Ey (V/m) @ t=0.02
12.659440008170954
% es.Ez (V/m) @ t=0.02
15.175563232758101
% es.tEx (V/m) @ t=0.02
-15.77874860131206
% es.tEy (V/m) @ t=0.02
0
% es.tEz (V/m) @ t=0.02
15.175563232758066
% V (V) @ t=0.02
0.010485997970611574
% es.normE (V/m) @ t=0.04
33.83242913501995
% es.EX (V/m) @ t=0.04
-15.977621239651938
% es.EY (V/m) @ t=0.04
12.818997412539467
% es.EZ (V/m) @ t=0.04
15.366833431305928
% es.tEX (V/m) @ t=0.04
-15.977621239651953
% es.tEY (V/m) @ t=0.04
0
% es.tEZ (V/m) @ t=0.04
15.366833431305935
% es.Ex (V/m) @ t=0.04
-15.977621239651938
% es.Ey (V/m) @ t=0.04
12.818997412539467
% es.Ez (V/m) @ t=0.04
15.366833431305928
% es.tEx (V/m) @ t=0.04
-15.977621239651953
% es.tEy (V/m) @ t=0.04
0
% es.tEz (V/m) @ t=0.04
15.366833431305935
% V (V) @ t=0.04
0.010618161686676165
% es.normE (V/m) @ t=0.06
34.257427136598395
% es.EX (V/m) @ t=0.06
-16.178329773946075
% es.EY (V/m) @ t=0.06
12.980027771727038
% es.EZ (V/m) @ t=0.06
15.559869335132241
% es.tEX (V/m) @ t=0.06
-16.178329773946118
% es.tEY (V/m) @ t=0.06
0
% es.tEZ (V/m) @ t=0.06
15.559869335132248
% es.Ex (V/m) @ t=0.06
-16.178329773946075
% es.Ey (V/m) @ t=0.06
12.980027771727038
% es.Ez (V/m) @ t=0.06
15.559869335132241
% es.tEx (V/m) @ t=0.06
-16.178329773946118
% es.tEy (V/m) @ t=0.06
0
% es.tEz (V/m) @ t=0.06
15.559869335132248
% V (V) @ t=0.06
0.010751545470880891
% es.normE (V/m) @ t=0.08
34.69583316553977
% es.EX (V/m) @ t=0.08
-16.385370283650303
% es.EY (V/m) @ t=0.08
13.146138371295663
% es.EZ (V/m) @ t=0.08
15.758995306534814
% es.tEX (V/m) @ t=0.08
-16.385370283650282
% es.tEY (V/m) @ t=0.08
0
% es.tEZ (V/m) @ t=0.08
15.758995306534814
% es.Ex (V/m) @ t=0.08
-16.385370283650303
% es.Ey (V/m) @ t=0.08
13.146138371295663
% es.Ez (V/m) @ t=0.08
15.758995306534814
% es.tEx (V/m) @ t=0.08
-16.385370283650282
% es.tEy (V/m) @ t=0.08
0
% es.tEz (V/m) @ t=0.08
15.758995306534814
% V (V) @ t=0.08
0.010889137322264122
% es.normE (V/m) @ t=0.1
35.13551773959474
% es.EX (V/m) @ t=0.1
-16.593014589573073
% es.EY (V/m) @ t=0.1
13.312733405773145
% es.EZ (V/m) @ t=0.1
15.9587020066256
% es.tEX (V/m) @ t=0.1
-16.593014589573066
% es.tEY (V/m) @ t=0.1
0
% es.tEZ (V/m) @ t=0.1
15.958702006625572
% es.Ex (V/m) @ t=0.1
-16.593014589573073
% es.Ey (V/m) @ t=0.1
13.312733405773145
% es.Ez (V/m) @ t=0.1
15.9587020066256
% es.tEx (V/m) @ t=0.1
-16.593014589573066
% es.tEy (V/m) @ t=0.1
0
% es.tEz (V/m) @ t=0.1
15.958702006625572
% V (V) @ t=0.1
0.011027130441006311
% es.normE (V/m) @ t=0.12
35.57520231364981
% es.EX (V/m) @ t=0.12
-16.800658895495843
% es.EY (V/m) @ t=0.12
13.479328440250725
% es.EZ (V/m) @ t=0.12
16.158408706716443
% es.tEX (V/m) @ t=0.12
-16.80065889549583
% es.tEY (V/m) @ t=0.12
0
% es.tEZ (V/m) @ t=0.12
16.158408706716443
% es.Ex (V/m) @ t=0.12
-16.800658895495843
% es.Ey (V/m) @ t=0.12
13.479328440250725
% es.Ez (V/m) @ t=0.12
16.158408706716443
% es.tEx (V/m) @ t=0.12
-16.80065889549583
% es.tEy (V/m) @ t=0.12
0
% es.tEz (V/m) @ t=0.12
16.158408706716443
% V (V) @ t=0.12
0.0111651235597485
% es.normE (V/m) @ t=0.14
36.041130112140664
% es.EX (V/m) @ t=0.14
-17.02069686443525
% es.EY (V/m) @ t=0.14
13.655866973136597
% es.EZ (V/m) @ t=0.14
16.370035064129382
% es.tEX (V/m) @ t=0.14
-17.020696864435237
% es.tEY (V/m) @ t=0.14
0
% es.tEZ (V/m) @ t=0.14
16.37003506412941
% es.Ex (V/m) @ t=0.14
-17.02069686443525
% es.Ey (V/m) @ t=0.14
13.655866973136597
% es.Ez (V/m) @ t=0.14
16.370035064129382
% es.tEx (V/m) @ t=0.14
-17.020696864435237
% es.tEy (V/m) @ t=0.14
0
% es.tEz (V/m) @ t=0.14
16.37003506412941
% V (V) @ t=0.14
0.011311352977407034
% es.normE (V/m) @ t=0.16
36.51224720087757
% es.EX (V/m) @ t=0.16
-17.24318553506953
% es.EY (V/m) @ t=0.16
13.83437171636475
% es.EZ (V/m) @ t=0.16
16.584018394163238
% es.tEX (V/m) @ t=0.16
-17.243185535069507
% es.tEY (V/m) @ t=0.16
0
% es.tEZ (V/m) @ t=0.16
16.58401839416325
% es.Ex (V/m) @ t=0.16
-17.24318553506953
% es.Ey (V/m) @ t=0.16
13.83437171636475
% es.Ez (V/m) @ t=0.16
16.584018394163238
% es.tEx (V/m) @ t=0.16
-17.243185535069507
% es.tEy (V/m) @ t=0.16
0
% es.tEz (V/m) @ t=0.16
16.58401839416325
% V (V) @ t=0.16
0.011459211026704682
% es.normE (V/m) @ t=0.18
36.98336428961447
% es.EX (V/m) @ t=0.18
-17.46567420570382
% es.EY (V/m) @ t=0.18
14.012876459592917
% es.EZ (V/m) @ t=0.18
16.79800172419712
% es.tEX (V/m) @ t=0.18
-17.4656742057038
% es.tEY (V/m) @ t=0.18
0
% es.tEZ (V/m) @ t=0.18
16.79800172419715
% es.Ex (V/m) @ t=0.18
-17.46567420570382
% es.Ey (V/m) @ t=0.18
14.012876459592917
% es.Ez (V/m) @ t=0.18
16.79800172419712
% es.tEx (V/m) @ t=0.18
-17.4656742057038
% es.tEy (V/m) @ t=0.18
0
% es.tEz (V/m) @ t=0.18
16.79800172419715
% V (V) @ t=0.18
0.01160706907600233
% es.normE (V/m) @ t=0.2
37.4544813783513
% es.EX (V/m) @ t=0.2
-17.68816287633811
% es.EY (V/m) @ t=0.2
14.191381202821013
% es.EZ (V/m) @ t=0.2
17.01198505423094
% es.tEX (V/m) @ t=0.2
-17.688162876338083
% es.tEY (V/m) @ t=0.2
0
% es.tEZ (V/m) @ t=0.2
17.011985054230934
% es.Ex (V/m) @ t=0.2
-17.68816287633811
% es.Ey (V/m) @ t=0.2
14.191381202821013
% es.Ez (V/m) @ t=0.2
17.01198505423094
% es.tEx (V/m) @ t=0.2
-17.688162876338083
% es.tEy (V/m) @ t=0.2
0
% es.tEz (V/m) @ t=0.2
17.011985054230934
% V (V) @ t=0.2
0.011754927125299977
% es.normE (V/m) @ t=0.22
37.92559846708818
% es.EX (V/m) @ t=0.22
-17.910651546972375
% es.EY (V/m) @ t=0.22
14.369885946049173
% es.EZ (V/m) @ t=0.22
17.225968384264817
% es.tEX (V/m) @ t=0.22
-17.910651546972375
% es.tEY (V/m) @ t=0.22
0
% es.tEZ (V/m) @ t=0.22
17.22596838426483
% es.Ex (V/m) @ t=0.22
-17.910651546972375
% es.Ey (V/m) @ t=0.22
14.369885946049173
% es.Ez (V/m) @ t=0.22
17.225968384264817
% es.tEx (V/m) @ t=0.22
-17.910651546972375
% es.tEy (V/m) @ t=0.22
0
% es.tEz (V/m) @ t=0.22
17.22596838426483
% V (V) @ t=0.22
0.011902785174597625
% es.normE (V/m) @ t=0.24
38.39671555582508
% es.EX (V/m) @ t=0.24
-18.133140217606652
% es.EY (V/m) @ t=0.24
14.548390689277326
% es.EZ (V/m) @ t=0.24
17.439951714298623
% es.tEX (V/m) @ t=0.24
-18.13314021760668
% es.tEY (V/m) @ t=0.24
0
% es.tEZ (V/m) @ t=0.24
17.439951714298616
% es.Ex (V/m) @ t=0.24
-18.133140217606652
% es.Ey (V/m) @ t=0.24
14.548390689277326
% es.Ez (V/m) @ t=0.24
17.439951714298623
% es.tEx (V/m) @ t=0.24
-18.13314021760668
% es.tEy (V/m) @ t=0.24
0
% es.tEz (V/m) @ t=0.24
17.439951714298616
% V (V) @ t=0.24
0.012050643223895275
% es.normE (V/m) @ t=0.26
38.89063720384414
% es.EX (V/m) @ t=0.26
-18.366398481574976
% es.EY (V/m) @ t=0.26
14.735535996984524
% es.EZ (V/m) @ t=0.26
17.66429301516707
% es.tEX (V/m) @ t=0.26
-18.366398481574983
% es.tEY (V/m) @ t=0.26
0
% es.tEZ (V/m) @ t=0.26
17.664293015167118
% es.Ex (V/m) @ t=0.26
-18.366398481574976
% es.Ey (V/m) @ t=0.26
14.735535996984524
% es.Ez (V/m) @ t=0.26
17.66429301516707
% es.tEx (V/m) @ t=0.26
-18.366398481574983
% es.tEy (V/m) @ t=0.26
0
% es.tEz (V/m) @ t=0.26
17.664293015167118
% V (V) @ t=0.26
0.012205658392940228
% es.normE (V/m) @ t=0.28
39.395348133521274
% es.EX (V/m) @ t=0.28
-18.604752050143873
% es.EY (V/m) @ t=0.28
14.9267693242274
% es.EZ (V/m) @ t=0.28
17.893534874005496
% es.tEX (V/m) @ t=0.28
-18.604752050143887
% es.tEY (V/m) @ t=0.28
0
% es.tEZ (V/m) @ t=0.28
17.893534874005525
% es.Ex (V/m) @ t=0.28
-18.604752050143873
% es.Ey (V/m) @ t=0.28
14.9267693242274
% es.Ez (V/m) @ t=0.28
17.893534874005496
% es.tEx (V/m) @ t=0.28
-18.604752050143887
% es.tEy (V/m) @ t=0.28
0
% es.tEz (V/m) @ t=0.28
17.893534874005525
% V (V) @ t=0.28
0.012364059734892845
% es.normE (V/m) @ t=0.3
39.90005906319813
% es.EX (V/m) @ t=0.3
-18.8431056187126
% es.EY (V/m) @ t=0.3
15.118002651470292
% es.EZ (V/m) @ t=0.3
18.122776732843683
% es.tEX (V/m) @ t=0.3
-18.843105618712592
% es.tEY (V/m) @ t=0.3
0
% es.tEZ (V/m) @ t=0.3
18.122776732843647
% es.Ex (V/m) @ t=0.3
-18.8431056187126
% es.Ey (V/m) @ t=0.3
15.118002651470292
% es.Ez (V/m) @ t=0.3
18.122776732843683
% es.tEx (V/m) @ t=0.3
-18.843105618712592
% es.tEy (V/m) @ t=0.3
0
% es.tEz (V/m) @ t=0.3
18.122776732843647
% V (V) @ t=0.3
0.012522461076845463
% es.normE (V/m) @ t=0.32
40.404769992875266
% es.EX (V/m) @ t=0.32
-19.081459187281496
% es.EY (V/m) @ t=0.32
15.309235978713083
% es.EZ (V/m) @ t=0.32
18.35201859168204
% es.tEX (V/m) @ t=0.32
-19.08145918728148
% es.tEY (V/m) @ t=0.32
0
% es.tEZ (V/m) @ t=0.32
18.352018591681997
% es.Ex (V/m) @ t=0.32
-19.081459187281496
% es.Ey (V/m) @ t=0.32
15.309235978713083
% es.Ez (V/m) @ t=0.32
18.35201859168204
% es.tEx (V/m) @ t=0.32
-19.08145918728148
% es.tEy (V/m) @ t=0.32
0
% es.tEz (V/m) @ t=0.32
18.352018591681997
% V (V) @ t=0.32
0.012680862418798077
% es.normE (V/m) @ t=0.34
40.909480922552234
% es.EX (V/m) @ t=0.34
-19.319812755850265
% es.EY (V/m) @ t=0.34
15.500469305955932
% es.EZ (V/m) @ t=0.34
18.581260450520375
% es.tEX (V/m) @ t=0.34
-19.319812755850236
% es.tEY (V/m) @ t=0.34
0
% es.tEZ (V/m) @ t=0.34
18.581260450520404
% es.Ex (V/m) @ t=0.34
-19.319812755850265
% es.Ey (V/m) @ t=0.34
15.500469305955932
% es.Ez (V/m) @ t=0.34
18.581260450520375
% es.tEx (V/m) @ t=0.34
-19.319812755850236
% es.tEy (V/m) @ t=0.34
0
% es.tEz (V/m) @ t=0.34
18.581260450520404
% V (V) @ t=0.34
0.012839263760750697
% es.normE (V/m) @ t=0.36
41.414191852229344
% es.EX (V/m) @ t=0.36
-19.558166324419176
% es.EY (V/m) @ t=0.36
15.691702633198851
% es.EZ (V/m) @ t=0.36
18.81050230935869
% es.tEX (V/m) @ t=0.36
-19.558166324419133
% es.tEY (V/m) @ t=0.36
0
% es.tEZ (V/m) @ t=0.36
18.810502309358696
% es.Ex (V/m) @ t=0.36
-19.558166324419176
% es.Ey (V/m) @ t=0.36
15.691702633198851
% es.Ez (V/m) @ t=0.36
18.81050230935869
% es.tEx (V/m) @ t=0.36
-19.558166324419133
% es.tEy (V/m) @ t=0.36
0
% es.tEz (V/m) @ t=0.36
18.810502309358696
% V (V) @ t=0.36
0.012997665102703313
% es.normE (V/m) @ t=0.38
41.93763075320556
% es.EX (V/m) @ t=0.38
-19.80536432046759
% es.EY (V/m) @ t=0.38
15.890031927878923
% es.EZ (V/m) @ t=0.38
19.04825049184487
% es.tEX (V/m) @ t=0.38
-19.805364320467582
% es.tEY (V/m) @ t=0.38
0
% es.tEZ (V/m) @ t=0.38
19.04825049184484
% es.Ex (V/m) @ t=0.38
-19.80536432046759
% es.Ey (V/m) @ t=0.38
15.890031927878923
% es.Ez (V/m) @ t=0.38
19.04825049184487
% es.tEx (V/m) @ t=0.38
-19.805364320467582
% es.tEy (V/m) @ t=0.38
0
% es.tEz (V/m) @ t=0.38
19.04825049184484
% V (V) @ t=0.38
0.013161944137212896
% es.normE (V/m) @ t=0.4
42.47816712528542
% es.EX (V/m) @ t=0.4
-20.060636727825596
% es.EY (V/m) @ t=0.4
16.094839398773154
% es.EZ (V/m) @ t=0.4
19.293764417904825
% es.tEX (V/m) @ t=0.4
-20.06063672782558
% es.tEY (V/m) @ t=0.4
0
% es.tEZ (V/m) @ t=0.4
19.29376441790481
% es.Ex (V/m) @ t=0.4
-20.060636727825596
% es.Ey (V/m) @ t=0.4
16.094839398773154
% es.Ez (V/m) @ t=0.4
19.293764417904825
% es.tEx (V/m) @ t=0.4
-20.06063672782558
% es.tEy (V/m) @ t=0.4
0
% es.tEz (V/m) @ t=0.4
19.29376441790481
% V (V) @ t=0.4
0.013331589138865625
% es.normE (V/m) @ t=0.42
43.01870349736551
% es.EX (V/m) @ t=0.42
-20.315909135183645
% es.EY (V/m) @ t=0.42
16.299646869667534
% es.EZ (V/m) @ t=0.42
19.539278343964952
% es.tEX (V/m) @ t=0.42
-20.31590913518363
% es.tEY (V/m) @ t=0.42
0
% es.tEZ (V/m) @ t=0.42
19.539278343964952
% es.Ex (V/m) @ t=0.42
-20.315909135183645
% es.Ey (V/m) @ t=0.42
16.299646869667534
% es.Ez (V/m) @ t=0.42
19.539278343964952
% es.tEx (V/m) @ t=0.42
-20.31590913518363
% es.tEy (V/m) @ t=0.42
0
% es.tEz (V/m) @ t=0.42
19.539278343964952
% V (V) @ t=0.42
0.01350123414051835
% es.normE (V/m) @ t=0.44
43.559239869445335
% es.EX (V/m) @ t=0.44
-20.571181542541567
% es.EY (V/m) @ t=0.44
16.504454340561857
% es.EZ (V/m) @ t=0.44
19.78479227002496
% es.tEX (V/m) @ t=0.44
-20.571181542541552
% es.tEY (V/m) @ t=0.44
0
% es.tEZ (V/m) @ t=0.44
19.78479227002498
% es.Ex (V/m) @ t=0.44
-20.571181542541567
% es.Ey (V/m) @ t=0.44
16.504454340561857
% es.Ez (V/m) @ t=0.44
19.78479227002496
% es.tEx (V/m) @ t=0.44
-20.571181542541552
% es.tEy (V/m) @ t=0.44
0
% es.tEz (V/m) @ t=0.44
19.78479227002498
% V (V) @ t=0.44
0.013670879142171077
% es.normE (V/m) @ t=0.46
44.09977624152532
% es.EX (V/m) @ t=0.46
-20.8264539498996
% es.EY (V/m) @ t=0.46
16.709261811456187
% es.EZ (V/m) @ t=0.46
20.030306196084943
% es.tEX (V/m) @ t=0.46
-20.826453949899587
% es.tEY (V/m) @ t=0.46
0
% es.tEZ (V/m) @ t=0.46
20.030306196084894
% es.Ex (V/m) @ t=0.46
-20.8264539498996
% es.Ey (V/m) @ t=0.46
16.709261811456187
% es.Ez (V/m) @ t=0.46
20.030306196084943
% es.tEx (V/m) @ t=0.46
-20.826453949899587
% es.tEy (V/m) @ t=0.46
0
% es.tEz (V/m) @ t=0.46
20.030306196084894
% V (V) @ t=0.46
0.013840524143823803
% es.normE (V/m) @ t=0.48
44.64031261360522
% es.EX (V/m) @ t=0.48
-21.08172635725758
% es.EY (V/m) @ t=0.48
16.91406928235051
% es.EZ (V/m) @ t=0.48
20.27582012214487
% es.tEX (V/m) @ t=0.48
-21.081726357257565
% es.tEY (V/m) @ t=0.48
0
% es.tEZ (V/m) @ t=0.48
20.275820122144864
% es.Ex (V/m) @ t=0.48
-21.08172635725758
% es.Ey (V/m) @ t=0.48
16.91406928235051
% es.Ez (V/m) @ t=0.48
20.27582012214487
% es.tEx (V/m) @ t=0.48
-21.081726357257565
% es.tEy (V/m) @ t=0.48
0
% es.tEz (V/m) @ t=0.48
20.275820122144864
% V (V) @ t=0.48
0.014010169145476531
% es.normE (V/m) @ t=0.5
45.18670130766263
% es.EX (V/m) @ t=0.5
-21.339762563068362
% es.EY (V/m) @ t=0.5
17.121094177590777
% es.EZ (V/m) @ t=0.5
20.523992204594194
% es.tEX (V/m) @ t=0.5
-21.339762563068405
% es.tEY (V/m) @ t=0.5
0
% es.tEZ (V/m) @ t=0.5
20.523992204594265
% es.Ex (V/m) @ t=0.5
-21.339762563068362
% es.Ey (V/m) @ t=0.5
17.121094177590777
% es.Ez (V/m) @ t=0.5
20.523992204594194
% es.tEx (V/m) @ t=0.5
-21.339762563068405
% es.tEy (V/m) @ t=0.5
0
% es.tEz (V/m) @ t=0.5
20.523992204594265
% V (V) @ t=0.5
0.014181650874167414
% es.normE (V/m) @ t=0.52
45.746542017598166
% es.EX (V/m) @ t=0.52
-21.60415157393915
% es.EY (V/m) @ t=0.52
17.33321599463799
% es.EZ (V/m) @ t=0.52
20.77827426562863
% es.tEX (V/m) @ t=0.52
-21.604151573939134
% es.tEY (V/m) @ t=0.52
0
% es.tEZ (V/m) @ t=0.52
20.778274265628625
% es.Ex (V/m) @ t=0.52
-21.60415157393915
% es.Ey (V/m) @ t=0.52
17.33321599463799
% es.Ez (V/m) @ t=0.52
20.77827426562863
% es.tEx (V/m) @ t=0.52
-21.604151573939134
% es.tEy (V/m) @ t=0.52
0
% es.tEz (V/m) @ t=0.52
20.778274265628625
% V (V) @ t=0.52
0.014357354462382788
% es.normE (V/m) @ t=0.54
46.31127644502365
% es.EX (V/m) @ t=0.54
-21.870851675840058
% es.EY (V/m) @ t=0.54
17.5471920241407
% es.EZ (V/m) @ t=0.54
21.034779079693898
% es.tEX (V/m) @ t=0.54
-21.87085167584003
% es.tEY (V/m) @ t=0.54
0
% es.tEZ (V/m) @ t=0.54
21.034779079693976
% es.Ex (V/m) @ t=0.54
-21.870851675840058
% es.Ey (V/m) @ t=0.54
17.5471920241407
% es.Ez (V/m) @ t=0.54
21.034779079693898
% es.tEx (V/m) @ t=0.54
-21.87085167584003
% es.tEy (V/m) @ t=0.54
0
% es.tEz (V/m) @ t=0.54
21.034779079693976
% V (V) @ t=0.54
0.014534593923584211
% es.normE (V/m) @ t=0.56
46.880904589939256
% es.EX (V/m) @ t=0.56
-22.13986286877109
% es.EY (V/m) @ t=0.56
17.76302226609902
% es.EZ (V/m) @ t=0.56
21.29350664679024
% es.tEX (V/m) @ t=0.56
-22.13986286877106
% es.tEY (V/m) @ t=0.56
0
% es.tEZ (V/m) @ t=0.56
21.293506646790263
% es.Ex (V/m) @ t=0.56
-22.13986286877109
% es.Ey (V/m) @ t=0.56
17.76302226609902
% es.Ez (V/m) @ t=0.56
21.29350664679024
% es.tEx (V/m) @ t=0.56
-22.13986286877106
% es.tEy (V/m) @ t=0.56
0
% es.tEz (V/m) @ t=0.56
21.293506646790263
% V (V) @ t=0.56
0.01471336925777169
% es.normE (V/m) @ t=0.58
47.4554264523445
% es.EX (V/m) @ t=0.58
-22.411185152732088
% es.EY (V/m) @ t=0.58
17.980706720512643
% es.EZ (V/m) @ t=0.58
21.554456966917293
% es.tEX (V/m) @ t=0.58
-22.41118515273208
% es.tEY (V/m) @ t=0.58
0
% es.tEZ (V/m) @ t=0.58
21.554456966917314
% es.Ex (V/m) @ t=0.58
-22.411185152732088
% es.Ey (V/m) @ t=0.58
17.980706720512643
% es.Ez (V/m) @ t=0.58
21.554456966917293
% es.tEx (V/m) @ t=0.58
-22.41118515273208
% es.tEy (V/m) @ t=0.58
0
% es.tEz (V/m) @ t=0.58
21.554456966917314
% V (V) @ t=0.58
0.014893680464945214
% es.normE (V/m) @ t=0.6
48.034842032239865
% es.EX (V/m) @ t=0.6
-22.684818527723166
% es.EY (V/m) @ t=0.6
18.200245387381848
% es.EZ (V/m) @ t=0.6
21.817630040075358
% es.tEX (V/m) @ t=0.6
-22.684818527723138
% es.tEY (V/m) @ t=0.6
0
% es.tEZ (V/m) @ t=0.6
21.817630040075358
% es.Ex (V/m) @ t=0.6
-22.684818527723166
% es.Ey (V/m) @ t=0.6
18.200245387381848
% es.Ez (V/m) @ t=0.6
21.817630040075358
% es.tEx (V/m) @ t=0.6
-22.684818527723138
% es.tEy (V/m) @ t=0.6
0
% es.tEz (V/m) @ t=0.6
21.817630040075358
% V (V) @ t=0.6
0.015075527545104793
% es.normE (V/m) @ t=0.62
48.6191513296252
% es.EX (V/m) @ t=0.62
-22.960762993744325
% es.EY (V/m) @ t=0.62
18.421638266706502
% es.EZ (V/m) @ t=0.62
22.08302586626432
% es.tEX (V/m) @ t=0.62
-22.960762993744282
% es.tEY (V/m) @ t=0.62
0
% es.tEZ (V/m) @ t=0.62
22.083025866264336
% es.Ex (V/m) @ t=0.62
-22.960762993744325
% es.Ey (V/m) @ t=0.62
18.421638266706502
% es.Ez (V/m) @ t=0.62
22.08302586626432
% es.tEx (V/m) @ t=0.62
-22.960762993744282
% es.tEy (V/m) @ t=0.62
0
% es.tEz (V/m) @ t=0.62
22.083025866264336
% V (V) @ t=0.62
0.015258910498250422
% es.normE (V/m) @ t=0.64
49.20835434450042
% es.EX (V/m) @ t=0.64
-23.23901855079562
% es.EY (V/m) @ t=0.64
18.64488535848652
% es.EZ (V/m) @ t=0.64
22.350644445484214
% es.tEX (V/m) @ t=0.64
-23.239018550795592
% es.tEY (V/m) @ t=0.64
0
% es.tEZ (V/m) @ t=0.64
22.350644445484193
% es.Ex (V/m) @ t=0.64
-23.23901855079562
% es.Ey (V/m) @ t=0.64
18.64488535848652
% es.Ez (V/m) @ t=0.64
22.350644445484214
% es.tEx (V/m) @ t=0.64
-23.239018550795592
% es.tEy (V/m) @ t=0.64
0
% es.tEz (V/m) @ t=0.64
22.350644445484193
% V (V) @ t=0.64
0.015443829324382104
% es.normE (V/m) @ t=0.66
49.80245107686575
% es.EX (V/m) @ t=0.66
-23.519585198876953
% es.EY (V/m) @ t=0.66
18.86998666272219
% es.EZ (V/m) @ t=0.66
22.62048577773517
% es.tEX (V/m) @ t=0.66
-23.51958519887694
% es.tEY (V/m) @ t=0.66
0
% es.tEZ (V/m) @ t=0.66
22.620485777735098
% es.Ex (V/m) @ t=0.66
-23.519585198876953
% es.Ey (V/m) @ t=0.66
18.86998666272219
% es.Ez (V/m) @ t=0.66
22.62048577773517
% es.tEx (V/m) @ t=0.66
-23.51958519887694
% es.tEy (V/m) @ t=0.66
0
% es.tEz (V/m) @ t=0.66
22.620485777735098
% V (V) @ t=0.66
0.01563028402349984
% es.normE (V/m) @ t=0.68
50.40144152672094
% es.EX (V/m) @ t=0.68
-23.802462937988352
% es.EY (V/m) @ t=0.68
19.096942179413197
% es.EZ (V/m) @ t=0.68
22.892549863016946
% es.tEX (V/m) @ t=0.68
-23.80246293798836
% es.tEY (V/m) @ t=0.68
0
% es.tEZ (V/m) @ t=0.68
22.89254986301694
% es.Ex (V/m) @ t=0.68
-23.802462937988352
% es.Ey (V/m) @ t=0.68
19.096942179413197
% es.Ez (V/m) @ t=0.68
22.892549863016946
% es.tEx (V/m) @ t=0.68
-23.80246293798836
% es.tEy (V/m) @ t=0.68
0
% es.tEz (V/m) @ t=0.68
22.89254986301694
% V (V) @ t=0.68
0.015818274595603622
% es.normE (V/m) @ t=0.7
51.005325694065924
% es.EX (V/m) @ t=0.7
-24.087651768129803
% es.EY (V/m) @ t=0.7
19.32575190855963
% es.EZ (V/m) @ t=0.7
23.166836701329473
% es.tEX (V/m) @ t=0.7
-24.087651768129774
% es.tEY (V/m) @ t=0.7
0
% es.tEZ (V/m) @ t=0.7
23.166836701329487
% es.Ex (V/m) @ t=0.7
-24.087651768129803
% es.Ey (V/m) @ t=0.7
19.32575190855963
% es.Ez (V/m) @ t=0.7
23.166836701329473
% es.tEx (V/m) @ t=0.7
-24.087651768129774
% es.tEy (V/m) @ t=0.7
0
% es.tEz (V/m) @ t=0.7
23.166836701329487
% V (V) @ t=0.7
0.016007801040693458
% es.normE (V/m) @ t=0.72
51.614103578901116
% es.EX (V/m) @ t=0.72
-24.37515168930136
% es.EY (V/m) @ t=0.72
19.556415850161613
% es.EZ (V/m) @ t=0.72
23.443346292673155
% es.tEX (V/m) @ t=0.72
-24.37515168930134
% es.tEY (V/m) @ t=0.72
0
% es.tEZ (V/m) @ t=0.72
23.44334629267314
% es.Ex (V/m) @ t=0.72
-24.37515168930136
% es.Ey (V/m) @ t=0.72
19.556415850161613
% es.Ez (V/m) @ t=0.72
23.443346292673155
% es.tEx (V/m) @ t=0.72
-24.37515168930134
% es.tEy (V/m) @ t=0.72
0
% es.tEz (V/m) @ t=0.72
23.44334629267314
% V (V) @ t=0.72
0.016198863358769345
% es.normE (V/m) @ t=0.74
52.228246624761084
% es.EX (V/m) @ t=0.74
-24.665185344118797
% es.EY (V/m) @ t=0.74
19.789112632601416
% es.EZ (V/m) @ t=0.74
23.722292768932107
% es.tEX (V/m) @ t=0.74
-24.665185344118782
% es.tEY (V/m) @ t=0.74
0
% es.tEZ (V/m) @ t=0.74
23.722292768932164
% es.Ex (V/m) @ t=0.74
-24.665185344118797
% es.Ey (V/m) @ t=0.74
19.789112632601416
% es.Ez (V/m) @ t=0.74
23.722292768932107
% es.tEx (V/m) @ t=0.74
-24.665185344118782
% es.tEy (V/m) @ t=0.74
0
% es.tEz (V/m) @ t=0.74
23.722292768932164
% V (V) @ t=0.74
0.016391609510374973
% es.normE (V/m) @ t=0.76
52.85619474330899
% es.EX (V/m) @ t=0.76
-24.961738541846216
% es.EY (V/m) @ t=0.76
20.02704011024727
% es.EZ (V/m) @ t=0.76
24.007509577921475
% es.tEX (V/m) @ t=0.76
-24.961738541846188
% es.tEY (V/m) @ t=0.76
0
% es.tEZ (V/m) @ t=0.76
24.007509577921496
% es.Ex (V/m) @ t=0.76
-24.961738541846216
% es.Ey (V/m) @ t=0.76
20.02704011024727
% es.Ez (V/m) @ t=0.76
24.007509577921475
% es.tEx (V/m) @ t=0.76
-24.961738541846188
% es.tEy (V/m) @ t=0.76
0
% es.tEz (V/m) @ t=0.76
24.007509577921496
% V (V) @ t=0.76
0.01658868832580656
% es.normE (V/m) @ t=0.78
53.49043478385238
% es.EX (V/m) @ t=0.78
-25.261263142783918
% es.EY (V/m) @ t=0.78
20.267351575370434
% es.EZ (V/m) @ t=0.78
24.295584211044556
% es.tEX (V/m) @ t=0.78
-25.261263142783918
% es.tEY (V/m) @ t=0.78
0
% es.tEZ (V/m) @ t=0.78
24.295584211044513
% es.Ex (V/m) @ t=0.78
-25.261263142783918
% es.Ey (V/m) @ t=0.78
20.267351575370434
% es.Ez (V/m) @ t=0.78
24.295584211044556
% es.tEx (V/m) @ t=0.78
-25.261263142783918
% es.tEy (V/m) @ t=0.78
0
% es.tEz (V/m) @ t=0.78
24.295584211044513
% V (V) @ t=0.78
0.016787741834747717
% es.normE (V/m) @ t=0.8
54.130966746391444
% es.EX (V/m) @ t=0.8
-25.563759146932114
% es.EY (V/m) @ t=0.8
20.51004702797082
% es.EZ (V/m) @ t=0.8
24.586516668301357
% es.tEX (V/m) @ t=0.8
-25.563759146932128
% es.tEY (V/m) @ t=0.8
0
% es.tEZ (V/m) @ t=0.8
24.58651666830133
% es.Ex (V/m) @ t=0.8
-25.563759146932114
% es.Ey (V/m) @ t=0.8
20.51004702797082
% es.Ez (V/m) @ t=0.8
24.586516668301357
% es.tEx (V/m) @ t=0.8
-25.563759146932128
% es.tEy (V/m) @ t=0.8
0
% es.tEz (V/m) @ t=0.8
24.58651666830133
% V (V) @ t=0.8
0.016988770037198443
% es.normE (V/m) @ t=0.82
54.777790630925416
% es.EX (V/m) @ t=0.82
-25.86922655429038
% es.EY (V/m) @ t=0.82
20.75512646804856
% es.EZ (V/m) @ t=0.82
24.880306949691473
% es.tEX (V/m) @ t=0.82
-25.869226554290336
% es.tEY (V/m) @ t=0.82
0
% es.tEZ (V/m) @ t=0.82
24.880306949691544
% es.Ex (V/m) @ t=0.82
-25.86922655429038
% es.Ey (V/m) @ t=0.82
20.75512646804856
% es.Ez (V/m) @ t=0.82
24.880306949691473
% es.tEx (V/m) @ t=0.82
-25.869226554290336
% es.tEy (V/m) @ t=0.82
0
% es.tEz (V/m) @ t=0.82
24.880306949691544
% V (V) @ t=0.82
0.01719177293315874
% es.normE (V/m) @ t=0.84
55.43090643745507
% es.EX (V/m) @ t=0.84
-26.17766536485901
% es.EY (V/m) @ t=0.84
21.002589895603613
% es.EZ (V/m) @ t=0.84
25.17695505521538
% es.tEX (V/m) @ t=0.84
-26.177665364858996
% es.tEY (V/m) @ t=0.84
0
% es.tEZ (V/m) @ t=0.84
25.17695505521533
% es.Ex (V/m) @ t=0.84
-26.17766536485901
% es.Ey (V/m) @ t=0.84
21.002589895603613
% es.Ez (V/m) @ t=0.84
25.17695505521538
% es.tEx (V/m) @ t=0.84
-26.177665364858996
% es.tEy (V/m) @ t=0.84
0
% es.tEz (V/m) @ t=0.84
25.17695505521533
% V (V) @ t=0.84
0.017396750522628596
% es.normE (V/m) @ t=0.86
56.09031416598016
% es.EX (V/m) @ t=0.86
-26.48907557863801
% es.EY (V/m) @ t=0.86
21.252437310635948
% es.EZ (V/m) @ t=0.86
25.47646098487285
% es.tEX (V/m) @ t=0.86
-26.489075578638023
% es.tEY (V/m) @ t=0.86
0
% es.tEZ (V/m) @ t=0.86
25.47646098487286
% es.Ex (V/m) @ t=0.86
-26.48907557863801
% es.Ey (V/m) @ t=0.86
21.252437310635948
% es.Ez (V/m) @ t=0.86
25.47646098487285
% es.tEx (V/m) @ t=0.86
-26.489075578638023
% es.tEy (V/m) @ t=0.86
0
% es.tEz (V/m) @ t=0.86
25.47646098487286
% V (V) @ t=0.86
0.01760370280560802
% es.normE (V/m) @ t=0.88
56.75601381650064
% es.EX (V/m) @ t=0.88
-26.803457195627175
% es.EY (V/m) @ t=0.88
21.504668713145577
% es.EZ (V/m) @ t=0.88
25.778824738663978
% es.tEX (V/m) @ t=0.88
-26.80345719562726
% es.tEY (V/m) @ t=0.88
0
% es.tEZ (V/m) @ t=0.88
25.778824738664014
% es.Ex (V/m) @ t=0.88
-26.803457195627175
% es.Ey (V/m) @ t=0.88
21.504668713145577
% es.Ez (V/m) @ t=0.88
25.778824738663978
% es.tEx (V/m) @ t=0.88
-26.80345719562726
% es.tEy (V/m) @ t=0.88
0
% es.tEz (V/m) @ t=0.88
25.778824738664014
% V (V) @ t=0.88
0.017812629782097016
% es.normE (V/m) @ t=0.9
57.42800538901656
% es.EX (V/m) @ t=0.9
-27.120810215826864
% es.EY (V/m) @ t=0.9
21.759284103132522
% es.EZ (V/m) @ t=0.9
26.084046316588704
% es.tEX (V/m) @ t=0.9
-27.120810215826808
% es.tEY (V/m) @ t=0.9
0
% es.tEZ (V/m) @ t=0.9
26.084046316588683
% es.Ex (V/m) @ t=0.9
-27.120810215826864
% es.Ey (V/m) @ t=0.9
21.759284103132522
% es.Ez (V/m) @ t=0.9
26.084046316588704
% es.tEx (V/m) @ t=0.9
-27.120810215826808
% es.tEy (V/m) @ t=0.9
0
% es.tEz (V/m) @ t=0.9
26.084046316588683
% V (V) @ t=0.9
0.01802353145209558
% es.normE (V/m) @ t=0.92
58.10628888352766
% es.EX (V/m) @ t=0.92
-27.441134639236594
% es.EY (V/m) @ t=0.92
22.016283480596556
% es.EZ (V/m) @ t=0.92
26.392125718646916
% es.tEX (V/m) @ t=0.92
-27.441134639236594
% es.tEY (V/m) @ t=0.92
0
% es.tEZ (V/m) @ t=0.92
26.392125718646923
% es.Ex (V/m) @ t=0.92
-27.441134639236594
% es.Ey (V/m) @ t=0.92
22.016283480596556
% es.Ez (V/m) @ t=0.92
26.392125718646916
% es.tEx (V/m) @ t=0.92
-27.441134639236594
% es.tEy (V/m) @ t=0.92
0
% es.tEz (V/m) @ t=0.92
26.392125718646923
% V (V) @ t=0.92
0.01823640781560371
% es.normE (V/m) @ t=0.94
58.79086430003453
% es.EX (V/m) @ t=0.94
-27.764430465856833
% es.EY (V/m) @ t=0.94
22.275666845538126
% es.EZ (V/m) @ t=0.94
26.703062944839047
% es.tEX (V/m) @ t=0.94
-27.764430465856904
% es.tEY (V/m) @ t=0.94
0
% es.tEZ (V/m) @ t=0.94
26.703062944838962
% es.Ex (V/m) @ t=0.94
-27.764430465856833
% es.Ey (V/m) @ t=0.94
22.275666845538126
% es.Ez (V/m) @ t=0.94
26.703062944839047
% es.tEx (V/m) @ t=0.94
-27.764430465856904
% es.tEy (V/m) @ t=0.94
0
% es.tEz (V/m) @ t=0.94
26.703062944838962
% V (V) @ t=0.94
0.018451258872621404
% es.normE (V/m) @ t=0.96
59.48173163853677
% es.EX (V/m) @ t=0.96
-28.090697695687396
% es.EY (V/m) @ t=0.96
22.53743419795687
% es.EZ (V/m) @ t=0.96
27.016857995164585
% es.tEX (V/m) @ t=0.96
-28.090697695687354
% es.tEY (V/m) @ t=0.96
0
% es.tEZ (V/m) @ t=0.96
27.016857995164628
% es.Ex (V/m) @ t=0.96
-28.090697695687396
% es.Ey (V/m) @ t=0.96
22.53743419795687
% es.Ez (V/m) @ t=0.96
27.016857995164585
% es.tEx (V/m) @ t=0.96
-28.090697695687354
% es.tEy (V/m) @ t=0.96
0
% es.tEz (V/m) @ t=0.96
27.016857995164628
% V (V) @ t=0.96
0.018668084623148666
% es.normE (V/m) @ t=0.98
60.178890899034236
% es.EX (V/m) @ t=0.98
-28.419936328728156
% es.EY (V/m) @ t=0.98
22.801585537852915
% es.EZ (V/m) @ t=0.98
27.3335108696237
% es.tEX (V/m) @ t=0.98
-28.419936328728113
% es.tEY (V/m) @ t=0.98
0
% es.tEZ (V/m) @ t=0.98
27.333510869623694
% es.Ex (V/m) @ t=0.98
-28.419936328728156
% es.Ey (V/m) @ t=0.98
22.801585537852915
% es.Ez (V/m) @ t=0.98
27.3335108696237
% es.tEx (V/m) @ t=0.98
-28.419936328728113
% es.tEy (V/m) @ t=0.98
0
% es.tEz (V/m) @ t=0.98
27.333510869623694
% V (V) @ t=0.98
0.0188868850671855
% es.normE (V/m) @ t=1
60.8860026906961
% es.EX (V/m) @ t=1
-28.75387522869751
% es.EY (V/m) @ t=1
23.069507887894233
% es.EZ (V/m) @ t=1
27.65468408364496
% es.tEX (V/m) @ t=1
-28.753875228697538
% es.tEY (V/m) @ t=1
0
% es.tEZ (V/m) @ t=1
27.654684083644895
% es.Ex (V/m) @ t=1
-28.75387522869751
% es.Ey (V/m) @ t=1
23.069507887894233
% es.Ez (V/m) @ t=1
27.65468408364496
% es.tEx (V/m) @ t=1
-28.753875228697538
% es.tEy (V/m) @ t=1
0
% es.tEz (V/m) @ t=1
27.654684083644895
% V (V) @ t=1
0.019108809046328654
% es.normE (V/m) @ t=1.02
61.601334836093116
% es.EX (V/m) @ t=1.02
-29.09169630806616
% es.EY (V/m) @ t=1.02
23.340544917604547
% es.EZ (V/m) @ t=1.02
27.97959094529591
% es.tEX (V/m) @ t=1.02
-29.091696308066105
% es.tEY (V/m) @ t=1.02
0
% es.tEZ (V/m) @ t=1.02
27.97959094529591
% es.Ex (V/m) @ t=1.02
-29.09169630806616
% es.Ey (V/m) @ t=1.02
23.340544917604547
% es.Ez (V/m) @ t=1.02
27.97959094529591
% es.tEx (V/m) @ t=1.02
-29.091696308066105
% es.tEy (V/m) @ t=1.02
0
% es.tEz (V/m) @ t=1.02
27.97959094529591
% V (V) @ t=1.02
0.019333312935899363
% es.normE (V/m) @ t=1.04
62.32371433704063
% es.EX (V/m) @ t=1.04
-29.432845573247235
% es.EY (V/m) @ t=1.04
23.61425217225056
% es.EZ (V/m) @ t=1.04
28.307698721501524
% es.tEX (V/m) @ t=1.04
-29.432845573247263
% es.tEY (V/m) @ t=1.04
0
% es.tEZ (V/m) @ t=1.04
28.30769872150148
% es.Ex (V/m) @ t=1.04
-29.432845573247235
% es.Ey (V/m) @ t=1.04
23.61425217225056
% es.Ez (V/m) @ t=1.04
28.307698721501524