% Model:              1 neuron.mph
% Version:            COMSOL 6.0.0.405
% Date:               Mar 16 2023, 20:13
% Dimension:          0
% Nodes:              14017
% Expressions:        14017
% Description:        Electric field norm, Electric field, X component, Electric field, Y component, Electric field, Z component, Tangential electric field, X component, Tangential electric field, Y component, Tangential electric field, Z component, Electric field, x component, Electric field, y component, Electric field, z component, Tangential electric field, x component, Tangential electric field, y component, Tangential electric field, z component, Electric potential
% Length unit:        mm
% x
2
% y
12.199999999999998
% z
2
% es.normE (V/m) @ t=0
1.3598560895279703
% es.EX (V/m) @ t=0
-0.9735323805355913
% es.EY (V/m) @ t=0
0.37075460615881806
% es.EZ (V/m) @ t=0
-0.8687273906932118
% es.tEX (V/m) @ t=0
-0.973532380535592
% es.tEY (V/m) @ t=0
0
% es.tEZ (V/m) @ t=0
-0.8687273906932145
% es.Ex (V/m) @ t=0
-0.9735323805355913
% es.Ey (V/m) @ t=0
0.37075460615881806
% es.Ez (V/m) @ t=0
-0.8687273906932118
% es.tEx (V/m) @ t=0
-0.973532380535592
% es.tEy (V/m) @ t=0
0
% es.tEz (V/m) @ t=0
-0.8687273906932145
% V (V) @ t=0
0.013838992668213358
% es.normE (V/m) @ t=0.02
1.1784276191977798
% es.EX (V/m) @ t=0.02
-0.8436462188043168
% es.EY (V/m) @ t=0.02
0.32128949249951244
% es.EZ (V/m) @ t=0.02
-0.7528240327613185
% es.tEX (V/m) @ t=0.02
-0.8436462188043152
% es.tEY (V/m) @ t=0.02
0
% es.tEZ (V/m) @ t=0.02
-0.7528240327613283
% es.Ex (V/m) @ t=0.02
-0.8436462188043168
% es.Ey (V/m) @ t=0.02
0.32128949249951244
% es.Ez (V/m) @ t=0.02
-0.7528240327613185
% es.tEx (V/m) @ t=0.02
-0.8436462188043152
% es.tEy (V/m) @ t=0.02
0
% es.tEz (V/m) @ t=0.02
-0.7528240327613283
% V (V) @ t=0.02
0.011992630061721679
% es.normE (V/m) @ t=0.04
1.193247107759995
% es.EX (V/m) @ t=0.04
-0.8542556167544113
% es.EY (V/m) @ t=0.04
0.3253299294440737
% es.EZ (V/m) @ t=0.04
-0.7622912720832149
% es.tEX (V/m) @ t=0.04
-0.854255616754406
% es.tEY (V/m) @ t=0.04
0
% es.tEZ (V/m) @ t=0.04
-0.7622912720832122
% es.Ex (V/m) @ t=0.04
-0.8542556167544113
% es.Ey (V/m) @ t=0.04
0.3253299294440737
% es.Ez (V/m) @ t=0.04
-0.7622912720832149
% es.tEx (V/m) @ t=0.04
-0.854255616754406
% es.tEy (V/m) @ t=0.04
0
% es.tEz (V/m) @ t=0.04
-0.7622912720832122
% V (V) @ t=0.04
0.012143444593234257
% es.normE (V/m) @ t=0.06
1.2082078548228994
% es.EX (V/m) @ t=0.06
-0.8649661425403719
% es.EY (V/m) @ t=0.06
0.3294088854485837
% es.EZ (V/m) @ t=0.06
-0.7718487498654163
% es.tEX (V/m) @ t=0.06
-0.8649661425403745
% es.tEY (V/m) @ t=0.06
0
% es.tEZ (V/m) @ t=0.06
-0.7718487498654216
% es.Ex (V/m) @ t=0.06
-0.8649661425403719
% es.Ey (V/m) @ t=0.06
0.3294088854485837
% es.Ez (V/m) @ t=0.06
-0.7718487498654163
% es.tEx (V/m) @ t=0.06
-0.8649661425403745
% es.tEy (V/m) @ t=0.06
0
% es.tEz (V/m) @ t=0.06
-0.7718487498654216
% V (V) @ t=0.06
0.01229569645106025
% es.normE (V/m) @ t=0.08
1.2236293285684177
% es.EX (V/m) @ t=0.08
-0.876006507315026
% es.EY (V/m) @ t=0.08
0.33361343084517214
% es.EZ (V/m) @ t=0.08
-0.7817005689735046
% es.tEX (V/m) @ t=0.08
-0.876006507315017
% es.tEY (V/m) @ t=0.08
0
% es.tEZ (V/m) @ t=0.08
-0.7817005689735037
% es.Ex (V/m) @ t=0.08
-0.876006507315026
% es.Ey (V/m) @ t=0.08
0.33361343084517214
% es.Ez (V/m) @ t=0.08
-0.7817005689735046
% es.tEx (V/m) @ t=0.08
-0.876006507315017
% es.tEy (V/m) @ t=0.08
0
% es.tEz (V/m) @ t=0.08
-0.7817005689735037
% V (V) @ t=0.08
0.012452638021508138
% es.normE (V/m) @ t=0.1
1.2391104575252712
% es.EX (V/m) @ t=0.1
-0.8870895798713818
% es.EY (V/m) @ t=0.1
0.33783423764360654
% es.EZ (V/m) @ t=0.1
-0.7915904996011855
% es.tEX (V/m) @ t=0.1
-0.8870895798713763
% es.tEY (V/m) @ t=0.1
0
% es.tEZ (V/m) @ t=0.1
-0.7915904996011971
% es.Ex (V/m) @ t=0.1
-0.8870895798713818
% es.Ey (V/m) @ t=0.1
0.33783423764360654
% es.Ez (V/m) @ t=0.1
-0.7915904996011855
% es.tEx (V/m) @ t=0.1
-0.8870895798713763
% es.tEy (V/m) @ t=0.1
0
% es.tEz (V/m) @ t=0.1
-0.7915904996011971
% V (V) @ t=0.1
0.012610186819208644
% es.normE (V/m) @ t=0.12
1.2545915864821469
% es.EX (V/m) @ t=0.12
-0.8981726524277449
% es.EY (V/m) @ t=0.12
0.34205504444202806
% es.EZ (V/m) @ t=0.12
-0.8014804302288985
% es.tEX (V/m) @ t=0.12
-0.898172652427736
% es.tEY (V/m) @ t=0.12
0
% es.tEZ (V/m) @ t=0.12
-0.8014804302288994
% es.Ex (V/m) @ t=0.12
-0.8981726524277449
% es.Ey (V/m) @ t=0.12
0.34205504444202806
% es.Ez (V/m) @ t=0.12
-0.8014804302288985
% es.tEx (V/m) @ t=0.12
-0.898172652427736
% es.tEy (V/m) @ t=0.12
0
% es.tEz (V/m) @ t=0.12
-0.8014804302288994
% V (V) @ t=0.12
0.012767735616909156
% es.normE (V/m) @ t=0.14
1.2709421157950502
% es.EX (V/m) @ t=0.14
-0.9098781360391539
% es.EY (V/m) @ t=0.14
0.3465128916281497
% es.EZ (V/m) @ t=0.14
-0.8119257640182189
% es.tEX (V/m) @ t=0.14
-0.9098781360391475
% es.tEY (V/m) @ t=0.14
0
% es.tEZ (V/m) @ t=0.14
-0.8119257640182163
% es.Ex (V/m) @ t=0.14
-0.9098781360391539
% es.Ey (V/m) @ t=0.14
0.3465128916281497
% es.Ez (V/m) @ t=0.14
-0.8119257640182189
% es.tEx (V/m) @ t=0.14
-0.9098781360391475
% es.tEy (V/m) @ t=0.14
0
% es.tEz (V/m) @ t=0.14
-0.8119257640182163
% V (V) @ t=0.14
0.012934131937765624
% es.normE (V/m) @ t=0.16
1.2875381128383334
% es.EX (V/m) @ t=0.16
-0.9217593520711695
% es.EY (V/m) @ t=0.16
0.35103766513377055
% es.EZ (V/m) @ t=0.16
-0.8225279111244088
% es.tEX (V/m) @ t=0.16
-0.9217593520711711
% es.tEY (V/m) @ t=0.16
0
% es.tEZ (V/m) @ t=0.16
-0.8225279111244106
% es.Ex (V/m) @ t=0.16
-0.9217593520711695
% es.Ey (V/m) @ t=0.16
0.35103766513377055
% es.Ez (V/m) @ t=0.16
-0.8225279111244088
% es.tEx (V/m) @ t=0.16
-0.9217593520711711
% es.tEy (V/m) @ t=0.16
0
% es.tEz (V/m) @ t=0.16
-0.8225279111244106
% V (V) @ t=0.16
0.01310302628086651
% es.normE (V/m) @ t=0.18
1.3041341098816304
% es.EX (V/m) @ t=0.18
-0.9336405681032036
% es.EY (V/m) @ t=0.18
0.355562438639363
% es.EZ (V/m) @ t=0.18
-0.8331300582306165
% es.tEX (V/m) @ t=0.18
-0.9336405681032081
% es.tEY (V/m) @ t=0.18
0
% es.tEZ (V/m) @ t=0.18
-0.8331300582306209
% es.Ex (V/m) @ t=0.18
-0.9336405681032036
% es.Ey (V/m) @ t=0.18
0.355562438639363
% es.Ez (V/m) @ t=0.18
-0.8331300582306165
% es.tEx (V/m) @ t=0.18
-0.9336405681032081
% es.tEy (V/m) @ t=0.18
0
% es.tEz (V/m) @ t=0.18
-0.8331300582306209
% V (V) @ t=0.18
0.013271920623967407
% es.normE (V/m) @ t=0.2
1.3207301069249282
% es.EX (V/m) @ t=0.2
-0.9455217841352406
% es.EY (V/m) @ t=0.2
0.3600872121449803
% es.EZ (V/m) @ t=0.2
-0.8437322053368108
% es.tEX (V/m) @ t=0.2
-0.9455217841352388
% es.tEY (V/m) @ t=0.2
0
% es.tEZ (V/m) @ t=0.2
-0.8437322053368153
% es.Ex (V/m) @ t=0.2
-0.9455217841352406
% es.Ey (V/m) @ t=0.2
0.3600872121449803
% es.Ez (V/m) @ t=0.2
-0.8437322053368108
% es.tEx (V/m) @ t=0.2
-0.9455217841352388
% es.tEy (V/m) @ t=0.2
0
% es.tEz (V/m) @ t=0.2
-0.8437322053368153
% V (V) @ t=0.2
0.0134408149670683
% es.normE (V/m) @ t=0.22
1.3373261039682243
% es.EX (V/m) @ t=0.22
-0.9574030001672795
% es.EY (V/m) @ t=0.22
0.3646119856505763
% es.EZ (V/m) @ t=0.22
-0.8543343524430078
% es.tEX (V/m) @ t=0.22
-0.9574030001672793
% es.tEY (V/m) @ t=0.22
0
% es.tEZ (V/m) @ t=0.22
-0.8543343524430114
% es.Ex (V/m) @ t=0.22
-0.9574030001672795
% es.Ey (V/m) @ t=0.22
0.3646119856505763
% es.Ez (V/m) @ t=0.22
-0.8543343524430078
% es.tEx (V/m) @ t=0.22
-0.9574030001672793
% es.tEy (V/m) @ t=0.22
0
% es.tEz (V/m) @ t=0.22
-0.8543343524430114
% V (V) @ t=0.22
0.01360970931016919
% es.normE (V/m) @ t=0.24
1.3539221010115328
% es.EX (V/m) @ t=0.24
-0.9692842161993205
% es.EY (V/m) @ t=0.24
0.36913675915618827
% es.EZ (V/m) @ t=0.24
-0.8649364995492164
% es.tEX (V/m) @ t=0.24
-0.9692842161993167
% es.tEY (V/m) @ t=0.24
0
% es.tEZ (V/m) @ t=0.24
-0.8649364995492146
% es.Ex (V/m) @ t=0.24
-0.9692842161993205
% es.Ey (V/m) @ t=0.24
0.36913675915618827
% es.Ez (V/m) @ t=0.24
-0.8649364995492164
% es.tEx (V/m) @ t=0.24
-0.9692842161993167
% es.tEy (V/m) @ t=0.24
0
% es.tEz (V/m) @ t=0.24
-0.8649364995492146
% V (V) @ t=0.24
0.013778603653270084
% es.normE (V/m) @ t=0.26
1.3711961924276888
% es.EX (V/m) @ t=0.26
-0.9816508859760409
% es.EY (V/m) @ t=0.26
0.37384640458364027
% es.EZ (V/m) @ t=0.26
-0.8759718414568418
% es.tEX (V/m) @ t=0.26
-0.9816508859760398
% es.tEY (V/m) @ t=0.26
0
% es.tEZ (V/m) @ t=0.26
-0.8759718414568507
% es.Ex (V/m) @ t=0.26
-0.9816508859760409
% es.Ey (V/m) @ t=0.26
0.37384640458364027
% es.Ez (V/m) @ t=0.26
-0.8759718414568418
% es.tEx (V/m) @ t=0.26
-0.9816508859760398
% es.tEy (V/m) @ t=0.26
0
% es.tEz (V/m) @ t=0.26
-0.8759718414568507
% V (V) @ t=0.26
0.013954399054055391
% es.normE (V/m) @ t=0.28
1.3889844531657796
% es.EX (V/m) @ t=0.28
-0.9943856541071197
% es.EY (V/m) @ t=0.28
0.3786962303082486
% es.EZ (V/m) @ t=0.28
-0.8873356560464742
% es.tEX (V/m) @ t=0.28
-0.9943856541071177
% es.tEY (V/m) @ t=0.28
0
% es.tEZ (V/m) @ t=0.28
-0.8873356560464707
% es.Ex (V/m) @ t=0.28
-0.9943856541071197
% es.Ey (V/m) @ t=0.28
0.3786962303082486
% es.Ez (V/m) @ t=0.28
-0.8873356560464742
% es.tEx (V/m) @ t=0.28
-0.9943856541071177
% es.tEy (V/m) @ t=0.28
0
% es.tEz (V/m) @ t=0.28
-0.8873356560464707
% V (V) @ t=0.28
0.014135427225222057
% es.normE (V/m) @ t=0.3
1.4067727139038717
% es.EX (V/m) @ t=0.3
-1.0071204222381944
% es.EY (V/m) @ t=0.3
0.38354605603286274
% es.EZ (V/m) @ t=0.3
-0.898699470636112
% es.tEX (V/m) @ t=0.3
-1.0071204222381906
% es.tEY (V/m) @ t=0.3
0
% es.tEZ (V/m) @ t=0.3
-0.8986994706361084
% es.Ex (V/m) @ t=0.3
-1.0071204222381944
% es.Ey (V/m) @ t=0.3
0.38354605603286274
% es.Ez (V/m) @ t=0.3
-0.898699470636112
% es.tEx (V/m) @ t=0.3
-1.0071204222381906
% es.tEy (V/m) @ t=0.3
0
% es.tEz (V/m) @ t=0.3
-0.8986994706361084
% V (V) @ t=0.3
0.01431645539638871
% es.normE (V/m) @ t=0.32
1.424560974641953
% es.EX (V/m) @ t=0.32
-1.019855190369259
% es.EY (V/m) @ t=0.32
0.3883958817574733
% es.EZ (V/m) @ t=0.32
-0.9100632852257462
% es.tEX (V/m) @ t=0.32
-1.0198551903692619
% es.tEY (V/m) @ t=0.32
0
% es.tEZ (V/m) @ t=0.32
-0.9100632852257515
% es.Ex (V/m) @ t=0.32
-1.019855190369259
% es.Ey (V/m) @ t=0.32
0.3883958817574733
% es.Ez (V/m) @ t=0.32
-0.9100632852257462
% es.tEx (V/m) @ t=0.32
-1.0198551903692619
% es.tEy (V/m) @ t=0.32
0
% es.tEz (V/m) @ t=0.32
-0.9100632852257515
% V (V) @ t=0.32
0.014497483567555373
% es.normE (V/m) @ t=0.34
1.4423492353800484
% es.EX (V/m) @ t=0.34
-1.0325899585003315
% es.EY (V/m) @ t=0.34
0.3932457074820985
% es.EZ (V/m) @ t=0.34
-0.9214270998153857
% es.tEX (V/m) @ t=0.34
-1.032589958500334
% es.tEY (V/m) @ t=0.34
0
% es.tEZ (V/m) @ t=0.34
-0.9214270998153875
% es.Ex (V/m) @ t=0.34
-1.0325899585003315
% es.Ey (V/m) @ t=0.34
0.3932457074820985
% es.Ez (V/m) @ t=0.34
-0.9214270998153857
% es.tEx (V/m) @ t=0.34
-1.032589958500334
% es.tEy (V/m) @ t=0.34
0
% es.tEz (V/m) @ t=0.34
-0.9214270998153875
% V (V) @ t=0.34
0.01467851173872203
% es.normE (V/m) @ t=0.36
1.460137496118136
% es.EX (V/m) @ t=0.36
-1.045324726631404
% es.EY (V/m) @ t=0.36
0.398095533206706
% es.EZ (V/m) @ t=0.36
-0.932790914405019
% es.tEX (V/m) @ t=0.36
-1.045324726631402
% es.tEY (V/m) @ t=0.36
0
% es.tEZ (V/m) @ t=0.36
-0.9327909144050235
% es.Ex (V/m) @ t=0.36
-1.045324726631404
% es.Ey (V/m) @ t=0.36
0.398095533206706
% es.Ez (V/m) @ t=0.36
-0.932790914405019
% es.tEx (V/m) @ t=0.36
-1.045324726631402
% es.tEy (V/m) @ t=0.36
0
% es.tEz (V/m) @ t=0.36
-0.9327909144050235
% V (V) @ t=0.36
0.014859539909888688
% es.normE (V/m) @ t=0.38
1.4783807355076524
% es.EX (V/m) @ t=0.38
-1.0583852179635815
% es.EY (V/m) @ t=0.38
0.40306940302900296
% es.EZ (V/m) @ t=0.38
-0.9444453876176171
% es.tEX (V/m) @ t=0.38
-1.0583852179635858
% es.tEY (V/m) @ t=0.38
0
% es.tEZ (V/m) @ t=0.38
-0.9444453876176144
% es.Ex (V/m) @ t=0.38
-1.0583852179635815
% es.Ey (V/m) @ t=0.38
0.40306940302900296
% es.Ez (V/m) @ t=0.38
-0.9444453876176171
% es.tEx (V/m) @ t=0.38
-1.0583852179635858
% es.tEy (V/m) @ t=0.38
0
% es.tEz (V/m) @ t=0.38
-0.9444453876176144
% V (V) @ t=0.38
0.015045198410942543
% es.normE (V/m) @ t=0.4
1.4974410692915274
% es.EX (V/m) @ t=0.4
-1.0720306743285277
% es.EY (V/m) @ t=0.4
0.4082660431649092
% es.EZ (V/m) @ t=0.4
-0.9566218535231705
% es.tEX (V/m) @ t=0.4
-1.0720306743285257
% es.tEY (V/m) @ t=0.4
0
% es.tEZ (V/m) @ t=0.4
-0.956621853523167
% es.Ex (V/m) @ t=0.4
-1.0720306743285277
% es.Ey (V/m) @ t=0.4
0.4082660431649092
% es.Ez (V/m) @ t=0.4
-0.9566218535231705
% es.tEx (V/m) @ t=0.4
-1.0720306743285257
% es.tEy (V/m) @ t=0.4
0
% es.tEz (V/m) @ t=0.4
-0.956621853523167
% V (V) @ t=0.4
0.015239172503470844
% es.normE (V/m) @ t=0.42
1.5165014030754138
% es.EX (V/m) @ t=0.42
-1.085676130693501
% es.EY (V/m) @ t=0.42
0.41346268330082303
% es.EZ (V/m) @ t=0.42
-0.9687983194287053
% es.tEX (V/m) @ t=0.42
-1.0856761306934946
% es.tEY (V/m) @ t=0.42
0
% es.tEZ (V/m) @ t=0.42
-0.9687983194287231
% es.Ex (V/m) @ t=0.42
-1.085676130693501
% es.Ey (V/m) @ t=0.42
0.41346268330082303
% es.Ez (V/m) @ t=0.42
-0.9687983194287053
% es.tEx (V/m) @ t=0.42
-1.0856761306934946
% es.tEy (V/m) @ t=0.42
0
% es.tEz (V/m) @ t=0.42
-0.9687983194287231
% V (V) @ t=0.42
0.015433146595999144
% es.normE (V/m) @ t=0.44
1.5355617368592984
% es.EX (V/m) @ t=0.44
-1.0993215870584419
% es.EY (V/m) @ t=0.44
0.41865932343672796
% es.EZ (V/m) @ t=0.44
-0.9809747853342792
% es.tEX (V/m) @ t=0.44
-1.0993215870584363
% es.tEY (V/m) @ t=0.44
0
% es.tEZ (V/m) @ t=0.44
-0.9809747853342756
% es.Ex (V/m) @ t=0.44
-1.0993215870584419
% es.Ey (V/m) @ t=0.44
0.41865932343672796
% es.Ez (V/m) @ t=0.44
-0.9809747853342792
% es.tEx (V/m) @ t=0.44
-1.0993215870584363
% es.tEy (V/m) @ t=0.44
0
% es.tEz (V/m) @ t=0.44
-0.9809747853342756
% V (V) @ t=0.44
0.015627120688527445
% es.normE (V/m) @ t=0.46
1.5546220706431622
% es.EX (V/m) @ t=0.46
-1.1129670434233894
% es.EY (V/m) @ t=0.46
0.4238559635726298
% es.EZ (V/m) @ t=0.46
-0.9931512512398095
% es.tEX (V/m) @ t=0.46
-1.112967043423391
% es.tEY (V/m) @ t=0.46
0
% es.tEZ (V/m) @ t=0.46
-0.9931512512398335
% es.Ex (V/m) @ t=0.46
-1.1129670434233894
% es.Ey (V/m) @ t=0.46
0.4238559635726298
% es.Ez (V/m) @ t=0.46
-0.9931512512398095
% es.tEx (V/m) @ t=0.46
-1.112967043423391
% es.tEy (V/m) @ t=0.46
0
% es.tEz (V/m) @ t=0.46
-0.9931512512398335
% V (V) @ t=0.46
0.015821094781055745
% es.normE (V/m) @ t=0.48
1.5736824044270499
% es.EX (V/m) @ t=0.48
-1.126612499788347
% es.EY (V/m) @ t=0.48
0.4290526037085556
% es.EZ (V/m) @ t=0.48
-1.0053277171453576
% es.tEX (V/m) @ t=0.48
-1.1266124997883482
% es.tEY (V/m) @ t=0.48
0
% es.tEZ (V/m) @ t=0.48
-1.0053277171453523
% es.Ex (V/m) @ t=0.48
-1.126612499788347
% es.Ey (V/m) @ t=0.48
0.4290526037085556
% es.Ez (V/m) @ t=0.48
-1.0053277171453576
% es.tEx (V/m) @ t=0.48
-1.1266124997883482
% es.tEy (V/m) @ t=0.48
0
% es.tEz (V/m) @ t=0.48
-1.0053277171453523
% V (V) @ t=0.48
0.01601506887358405
% es.normE (V/m) @ t=0.5
1.5928230484048158
% es.EX (V/m) @ t=0.5
-1.1403154508685802
% es.EY (V/m) @ t=0.5
0.4342711424395804
% es.EZ (V/m) @ t=0.5
-1.0175554868941568
% es.tEX (V/m) @ t=0.5
-1.1403154508685809
% es.tEY (V/m) @ t=0.5
0
% es.tEZ (V/m) @ t=0.5
-1.0175554868941674
% es.Ex (V/m) @ t=0.5
-1.1403154508685802
% es.Ey (V/m) @ t=0.5
0.4342711424395804
% es.Ez (V/m) @ t=0.5
-1.0175554868941568
% es.tEx (V/m) @ t=0.5
-1.1403154508685809
% es.tEy (V/m) @ t=0.5
0
% es.tEz (V/m) @ t=0.5
-1.0175554868941674
% V (V) @ t=0.5
0.016209860162241324
% es.normE (V/m) @ t=0.52
1.6125300474991195
% es.EX (V/m) @ t=0.52
-1.1544238601427816
% es.EY (V/m) @ t=0.52
0.43964411214373955
% es.EZ (V/m) @ t=0.52
-1.0301450562192969
% es.tEX (V/m) @ t=0.52
-1.1544238601427832
% es.tEY (V/m) @ t=0.52
0
% es.tEZ (V/m) @ t=0.52
-1.0301450562192986
% es.Ex (V/m) @ t=0.52
-1.1544238601427816
% es.Ey (V/m) @ t=0.52
0.43964411214373955
% es.Ez (V/m) @ t=0.52
-1.0301450562192969
% es.tEx (V/m) @ t=0.52
-1.1544238601427832
% es.tEy (V/m) @ t=0.52
0
% es.tEz (V/m) @ t=0.52
-1.0301450562192986
% V (V) @ t=0.52
0.016410414395632747
% es.normE (V/m) @ t=0.54
1.6324093928768275
% es.EX (V/m) @ t=0.54
-1.168655653510758
% es.EY (V/m) @ t=0.54
0.44506407639864465
% es.EZ (V/m) @ t=0.54
-1.0428447239800196
% es.tEX (V/m) @ t=0.54
-1.1686556535107595
% es.tEY (V/m) @ t=0.54
0
% es.tEZ (V/m) @ t=0.54
-1.042844723980016
% es.Ex (V/m) @ t=0.54
-1.168655653510758
% es.Ey (V/m) @ t=0.54
0.44506407639864465
% es.Ez (V/m) @ t=0.54
-1.0428447239800196
% es.tEx (V/m) @ t=0.54
-1.1686556535107595
% es.tEy (V/m) @ t=0.54
0
% es.tEz (V/m) @ t=0.54
-1.042844723980016
% V (V) @ t=0.54
0.016612722338097165
% es.normE (V/m) @ t=0.56
1.6524610845379577
% es.EX (V/m) @ t=0.56
-1.183010830972535
% es.EY (V/m) @ t=0.56
0.45053103520429394
% es.EZ (V/m) @ t=0.56
-1.0556544901763285
% es.tEX (V/m) @ t=0.56
-1.1830108309725356
% es.tEY (V/m) @ t=0.56
0
% es.tEZ (V/m) @ t=0.56
-1.0556544901763232
% es.Ex (V/m) @ t=0.56
-1.183010830972535
% es.Ey (V/m) @ t=0.56
0.45053103520429394
% es.Ez (V/m) @ t=0.56
-1.0556544901763285
% es.tEx (V/m) @ t=0.56
-1.1830108309725356
% es.tEy (V/m) @ t=0.56
0
% es.tEz (V/m) @ t=0.56
-1.0556544901763232
% V (V) @ t=0.56
0.016816783989634588
% es.normE (V/m) @ t=0.58
1.6726851224824868
% es.EX (V/m) @ t=0.58
-1.1974893925280672
% es.EY (V/m) @ t=0.58
0.45604498856067455
% es.EZ (V/m) @ t=0.58
-1.0685743548082343
% es.tEX (V/m) @ t=0.58
-1.197489392528066
% es.tEY (V/m) @ t=0.58
0
% es.tEZ (V/m) @ t=0.58
-1.0685743548082325
% es.Ex (V/m) @ t=0.58
-1.1974893925280672
% es.Ey (V/m) @ t=0.58
0.45604498856067455
% es.Ez (V/m) @ t=0.58
-1.0685743548082343
% es.tEx (V/m) @ t=0.58
-1.197489392528066
% es.tEy (V/m) @ t=0.58
0
% es.tEz (V/m) @ t=0.58
-1.0685743548082325
% V (V) @ t=0.58
0.017022599350245003
% es.normE (V/m) @ t=0.6
1.6930815067104277
% es.EX (V/m) @ t=0.6
-1.2120913381773957
% es.EY (V/m) @ t=0.6
0.46160593646780423
% es.EZ (V/m) @ t=0.6
-1.0816043178757164
% es.tEX (V/m) @ t=0.6
-1.2120913381773928
% es.tEY (V/m) @ t=0.6
0
% es.tEZ (V/m) @ t=0.6
-1.0816043178757102
% es.Ex (V/m) @ t=0.6
-1.2120913381773957
% es.Ey (V/m) @ t=0.6
0.46160593646780423
% es.Ez (V/m) @ t=0.6
-1.0816043178757164
% es.tEx (V/m) @ t=0.6
-1.2120913381773928
% es.tEy (V/m) @ t=0.6
0
% es.tEz (V/m) @ t=0.6
-1.0816043178757102
% V (V) @ t=0.6
0.017230168419928412
% es.normE (V/m) @ t=0.62
1.713650237221798
% es.EX (V/m) @ t=0.62
-1.2268166679204915
% es.EY (V/m) @ t=0.62
0.46721387892567146
% es.EZ (V/m) @ t=0.62
-1.0947443793788274
% es.tEX (V/m) @ t=0.62
-1.2268166679204846
% es.tEY (V/m) @ t=0.62
0
% es.tEZ (V/m) @ t=0.62
-1.094744379378831
% es.Ex (V/m) @ t=0.62
-1.2268166679204915
% es.Ey (V/m) @ t=0.62
0.46721387892567146
% es.Ez (V/m) @ t=0.62
-1.0947443793788274
% es.tEx (V/m) @ t=0.62
-1.2268166679204846
% es.tEy (V/m) @ t=0.62
0
% es.tEz (V/m) @ t=0.62
-1.094744379378831
% V (V) @ t=0.62
0.017439491198684823
% es.normE (V/m) @ t=0.64
1.7343913140165617
% es.EX (V/m) @ t=0.64
-1.241665381757359
% es.EY (V/m) @ t=0.64
0.47286881593430063
% es.EZ (V/m) @ t=0.64
-1.1079945393175006
% es.tEX (V/m) @ t=0.64
-1.241665381757361
% es.tEY (V/m) @ t=0.64
0
% es.tEZ (V/m) @ t=0.64
-1.1079945393174917
% es.Ex (V/m) @ t=0.64
-1.241665381757359
% es.Ey (V/m) @ t=0.64
0.47286881593430063
% es.Ez (V/m) @ t=0.64
-1.1079945393175006
% es.tEx (V/m) @ t=0.64
-1.241665381757361
% es.tEy (V/m) @ t=0.64
0
% es.tEz (V/m) @ t=0.64
-1.1079945393174917
% V (V) @ t=0.64
0.017650567686514226
% es.normE (V/m) @ t=0.66
1.7553047370947747
% es.EX (V/m) @ t=0.66
-1.2566374796880446
% es.EY (V/m) @ t=0.66
0.4785707474936647
% es.EZ (V/m) @ t=0.66
-1.1213547976917786
% es.tEX (V/m) @ t=0.66
-1.256637479688043
% es.tEY (V/m) @ t=0.66
0
% es.tEZ (V/m) @ t=0.66
-1.1213547976917955
% es.Ex (V/m) @ t=0.66
-1.2566374796880446
% es.Ey (V/m) @ t=0.66
0.4785707474936647
% es.Ez (V/m) @ t=0.66
-1.1213547976917786
% es.tEx (V/m) @ t=0.66
-1.256637479688043
% es.tEy (V/m) @ t=0.66
0
% es.tEz (V/m) @ t=0.66
-1.1213547976917955
% V (V) @ t=0.66
0.01786339788341663
% es.normE (V/m) @ t=0.68
1.7763905064563428
% es.EX (V/m) @ t=0.68
-1.2717329617124433
% es.EY (V/m) @ t=0.68
0.4843196736037414
% es.EZ (V/m) @ t=0.68
-1.1348251545016401
% es.tEX (V/m) @ t=0.68
-1.2717329617124422
% es.tEY (V/m) @ t=0.68
0
% es.tEZ (V/m) @ t=0.68
-1.1348251545016375
% es.Ex (V/m) @ t=0.68
-1.2717329617124433
% es.Ey (V/m) @ t=0.68
0.4843196736037414
% es.Ez (V/m) @ t=0.68
-1.1348251545016401
% es.tEx (V/m) @ t=0.68
-1.2717329617124422
% es.tEy (V/m) @ t=0.68
0
% es.tEz (V/m) @ t=0.68
-1.1348251545016375
% V (V) @ t=0.68
0.01807798178939203
% es.normE (V/m) @ t=0.7
1.7976486221013683
% es.EX (V/m) @ t=0.7
-1.2869518278306564
% es.EY (V/m) @ t=0.7
0.49011559426459206
% es.EZ (V/m) @ t=0.7
-1.1484056097471056
% es.tEX (V/m) @ t=0.7
-1.286951827830658
% es.tEY (V/m) @ t=0.7
0
% es.tEZ (V/m) @ t=0.7
-1.1484056097471118
% es.Ex (V/m) @ t=0.7
-1.2869518278306564
% es.Ey (V/m) @ t=0.7
0.49011559426459206
% es.Ez (V/m) @ t=0.7
-1.1484056097471056
% es.tEx (V/m) @ t=0.7
-1.286951827830658
% es.tEy (V/m) @ t=0.7
0
% es.tEz (V/m) @ t=0.7
-1.1484056097471118
% V (V) @ t=0.7
0.01829431940444043
% es.normE (V/m) @ t=0.72
1.8190790840298061
% es.EX (V/m) @ t=0.72
-1.3022940780426462
% es.EY (V/m) @ t=0.72
0.49595850947620557
% es.EZ (V/m) @ t=0.72
-1.1620961634281475
% es.tEX (V/m) @ t=0.72
-1.3022940780426366
% es.tEY (V/m) @ t=0.72
0
% es.tEZ (V/m) @ t=0.72
-1.1620961634281404
% es.Ex (V/m) @ t=0.72
-1.3022940780426462
% es.Ey (V/m) @ t=0.72
0.49595850947620557
% es.Ez (V/m) @ t=0.72
-1.1620961634281475
% es.tEx (V/m) @ t=0.72
-1.3022940780426366
% es.tEy (V/m) @ t=0.72
0
% es.tEz (V/m) @ t=0.72
-1.1620961634281404
% V (V) @ t=0.72
0.018512410728561822
% es.normE (V/m) @ t=0.74
1.8406818922416348
% es.EX (V/m) @ t=0.74
-1.3177597123483902
% es.EY (V/m) @ t=0.74
0.5018484192385091
% es.EZ (V/m) @ t=0.74
-1.175896815544796
% es.tEX (V/m) @ t=0.74
-1.3177597123483915
% es.tEY (V/m) @ t=0.74
0
% es.tEZ (V/m) @ t=0.74
-1.1758968155447906
% es.Ex (V/m) @ t=0.74
-1.3177597123483902
% es.Ey (V/m) @ t=0.74
0.5018484192385091
% es.Ez (V/m) @ t=0.74
-1.175896815544796
% es.tEx (V/m) @ t=0.74
-1.3177597123483915
% es.tEy (V/m) @ t=0.74
0
% es.tEz (V/m) @ t=0.74
-1.1758968155447906
% V (V) @ t=0.74
0.018732255761756217
% es.normE (V/m) @ t=0.76
1.8626915148128336
% es.EX (V/m) @ t=0.76
-1.3335165910616458
% es.EY (V/m) @ t=0.76
0.5078491116133246
% es.EZ (V/m) @ t=0.76
-1.1899574222788338
% es.tEX (V/m) @ t=0.76
-1.3335165910616391
% es.tEY (V/m) @ t=0.76
0
% es.tEZ (V/m) @ t=0.76
-1.1899574222788463
% es.Ex (V/m) @ t=0.76
-1.3335165910616458
% es.Ey (V/m) @ t=0.76
0.5078491116133246
% es.Ez (V/m) @ t=0.76
-1.1899574222788338
% es.tEx (V/m) @ t=0.76
-1.3335165910616391
% es.tEy (V/m) @ t=0.76
0
% es.tEz (V/m) @ t=0.76
-1.1899574222788463
% V (V) @ t=0.76
0.01895624619628031
% es.normE (V/m) @ t=0.78
1.8850051272481152
% es.EX (V/m) @ t=0.78
-1.3494911001008627
% es.EY (V/m) @ t=0.78
0.513932612748643
% es.EZ (V/m) @ t=0.78
-1.2042122651473717
% es.tEX (V/m) @ t=0.78
-1.3494911001008676
% es.tEY (V/m) @ t=0.78
0
% es.tEZ (V/m) @ t=0.78
-1.2042122651473637
% es.Ex (V/m) @ t=0.78
-1.3494911001008627
% es.Ey (V/m) @ t=0.78
0.513932612748643
% es.Ez (V/m) @ t=0.78
-1.2042122651473717
% es.tEx (V/m) @ t=0.78
-1.3494911001008676
% es.tEy (V/m) @ t=0.78
0
% es.tEz (V/m) @ t=0.78
-1.2042122651473637
% V (V) @ t=0.78
0.01918333317058595
% es.normE (V/m) @ t=0.8
1.9075403242336453
% es.EX (V/m) @ t=0.8
-1.365624243878889
% es.EY (V/m) @ t=0.8
0.5200765039197313
% es.EZ (V/m) @ t=0.8
-1.2186086762310442
% es.tEX (V/m) @ t=0.8
-1.3656242438788864
% es.tEY (V/m) @ t=0.8
0
% es.tEZ (V/m) @ t=0.8
-1.2186086762310424
% es.Ex (V/m) @ t=0.8
-1.365624243878889
% es.Ey (V/m) @ t=0.8
0.5200765039197313
% es.Ez (V/m) @ t=0.8
-1.2186086762310442
% es.tEx (V/m) @ t=0.8
-1.3656242438788864
% es.tEy (V/m) @ t=0.8
0
% es.tEz (V/m) @ t=0.8
-1.2186086762310424
% V (V) @ t=0.8
0.019412676109041155
% es.normE (V/m) @ t=0.82
1.930297105769403
% es.EX (V/m) @ t=0.82
-1.3819160223956768
% es.EY (V/m) @ t=0.82
0.5262807851265947
% es.EZ (V/m) @ t=0.82
-1.2331466555298585
% es.tEX (V/m) @ t=0.82
-1.3819160223956768
% es.tEY (V/m) @ t=0.82
0
% es.tEZ (V/m) @ t=0.82
-1.2331466555298842
% es.Ex (V/m) @ t=0.82
-1.3819160223956768
% es.Ey (V/m) @ t=0.82
0.5262807851265947
% es.Ez (V/m) @ t=0.82
-1.2331466555298585
% es.tEx (V/m) @ t=0.82
-1.3819160223956768
% es.tEy (V/m) @ t=0.82
0
% es.tEz (V/m) @ t=0.82
-1.2331466555298842
% V (V) @ t=0.82
0.01964427501164592
% es.normE (V/m) @ t=0.84
1.9532754718554446
% es.EX (V/m) @ t=0.84
-1.3983664356512722
% es.EY (V/m) @ t=0.84
0.5325454563692515
% es.EZ (V/m) @ t=0.84
-1.2478262030438163
% es.tEX (V/m) @ t=0.84
-1.3983664356512655
% es.tEY (V/m) @ t=0.84
0
% es.tEZ (V/m) @ t=0.84
-1.2478262030438234
% es.Ex (V/m) @ t=0.84
-1.3983664356512722
% es.Ey (V/m) @ t=0.84
0.5325454563692515
% es.Ez (V/m) @ t=0.84
-1.2478262030438163
% es.tEx (V/m) @ t=0.84
-1.3983664356512655
% es.tEy (V/m) @ t=0.84
0
% es.tEz (V/m) @ t=0.84
-1.2478262030438234
% V (V) @ t=0.84
0.019878129878400257
% es.normE (V/m) @ t=0.86
1.9764754224917467
% es.EX (V/m) @ t=0.86
-1.4149754836456219
% es.EY (V/m) @ t=0.86
0.5388705176476618
% es.EZ (V/m) @ t=0.86
-1.2626473187729497
% es.tEX (V/m) @ t=0.86
-1.4149754836456268
% es.tEY (V/m) @ t=0.86
0
% es.tEZ (V/m) @ t=0.86
-1.26264731877294
% es.Ex (V/m) @ t=0.86
-1.4149754836456219
% es.Ey (V/m) @ t=0.86
0.5388705176476618
% es.Ez (V/m) @ t=0.86
-1.2626473187729497
% es.tEx (V/m) @ t=0.86
-1.4149754836456268
% es.tEy (V/m) @ t=0.86
0
% es.tEz (V/m) @ t=0.86
-1.26264731877294
% V (V) @ t=0.86
0.020114240709304156
% es.normE (V/m) @ t=0.88
1.9998969576782983
% es.EX (V/m) @ t=0.88
-1.4317431663787468
% es.EY (V/m) @ t=0.88
0.5452559689618481
% es.EZ (V/m) @ t=0.88
-1.277610002717175
% es.tEX (V/m) @ t=0.88
-1.4317431663787357
% es.tEY (V/m) @ t=0.88
0
% es.tEZ (V/m) @ t=0.88
-1.2776100027171893
% es.Ex (V/m) @ t=0.88
-1.4317431663787468
% es.Ey (V/m) @ t=0.88
0.5452559689618481
% es.Ez (V/m) @ t=0.88
-1.277610002717175
% es.tEx (V/m) @ t=0.88
-1.4317431663787357
% es.tEy (V/m) @ t=0.88
0
% es.tEz (V/m) @ t=0.88
-1.2776100027171893
% V (V) @ t=0.88
0.020352607504357616
% es.normE (V/m) @ t=0.9
2.023540077415191
% es.EX (V/m) @ t=0.9
-1.4486694838506495
% es.EY (V/m) @ t=0.9
0.5517018103118541
% es.EZ (V/m) @ t=0.9
-1.2927142548765929
% es.tEX (V/m) @ t=0.9
-1.4486694838506509
% es.tEY (V/m) @ t=0.9
0
% es.tEZ (V/m) @ t=0.9
-1.2927142548766106
% es.Ex (V/m) @ t=0.9
-1.4486694838506495
% es.Ey (V/m) @ t=0.9
0.5517018103118541
% es.Ez (V/m) @ t=0.9
-1.2927142548765929
% es.tEx (V/m) @ t=0.9
-1.4486694838506509
% es.tEy (V/m) @ t=0.9
0
% es.tEz (V/m) @ t=0.9
-1.2927142548766106
% V (V) @ t=0.9
0.02059323026356065
% es.normE (V/m) @ t=0.92
2.047404781702411
% es.EX (V/m) @ t=0.92
-1.4657544360613346
% es.EY (V/m) @ t=0.92
0.5582080416976054
% es.EZ (V/m) @ t=0.92
-1.3079600752511862
% es.tEX (V/m) @ t=0.92
-1.4657544360613315
% es.tEY (V/m) @ t=0.92
0
% es.tEZ (V/m) @ t=0.92
-1.3079600752511844
% es.Ex (V/m) @ t=0.92
-1.4657544360613346
% es.Ey (V/m) @ t=0.92
0.5582080416976054
% es.Ez (V/m) @ t=0.92
-1.3079600752511862
% es.tEx (V/m) @ t=0.92
-1.4657544360613315
% es.tEy (V/m) @ t=0.92
0
% es.tEz (V/m) @ t=0.92
-1.3079600752511844
% V (V) @ t=0.92
0.02083610898691324
% es.normE (V/m) @ t=0.94
2.0714910705399303
% es.EX (V/m) @ t=0.94
-1.4829980230107815
% es.EY (V/m) @ t=0.94
0.5647746631190977
% es.EZ (V/m) @ t=0.94
-1.3233474638409124
% es.tEX (V/m) @ t=0.94
-1.4829980230107829
% es.tEY (V/m) @ t=0.94
0
% es.tEZ (V/m) @ t=0.94
-1.3233474638408964
% es.Ex (V/m) @ t=0.94
-1.4829980230107815
% es.Ey (V/m) @ t=0.94
0.5647746631190977
% es.Ez (V/m) @ t=0.94
-1.3233474638409124
% es.tEx (V/m) @ t=0.94
-1.4829980230107829
% es.tEy (V/m) @ t=0.94
0
% es.tEz (V/m) @ t=0.94
-1.3233474638408964
% V (V) @ t=0.94
0.021081243674415398
% es.normE (V/m) @ t=0.96
2.0957989439278224
% es.EX (V/m) @ t=0.96
-1.5004002446990374
% es.EY (V/m) @ t=0.96
0.5714016745764492
% es.EZ (V/m) @ t=0.96
-1.3388764206457502
% es.tEX (V/m) @ t=0.96
-1.5004002446990317
% es.tEY (V/m) @ t=0.96
0
% es.tEZ (V/m) @ t=0.96
-1.338876420645743
% es.Ex (V/m) @ t=0.96
-1.5004002446990374
% es.Ey (V/m) @ t=0.96
0.5714016745764492
% es.Ez (V/m) @ t=0.96
-1.3388764206457502
% es.tEx (V/m) @ t=0.96
-1.5004002446990317
% es.tEy (V/m) @ t=0.96
0
% es.tEz (V/m) @ t=0.96
-1.338876420645743
% V (V) @ t=0.96
0.02132863432606713
% es.normE (V/m) @ t=0.98
2.1203284018660713
% es.EX (V/m) @ t=0.98
-1.5179611011260579
% es.EY (V/m) @ t=0.98
0.5780890760695283
% es.EZ (V/m) @ t=0.98
-1.3545469456657617
% es.tEX (V/m) @ t=0.98
-1.5179611011260574
% es.tEY (V/m) @ t=0.98
0
% es.tEZ (V/m) @ t=0.98
-1.354546945665767
% es.Ex (V/m) @ t=0.98
-1.5179611011260579
% es.Ey (V/m) @ t=0.98
0.5780890760695283
% es.Ez (V/m) @ t=0.98
-1.3545469456657617
% es.tEx (V/m) @ t=0.98
-1.5179611011260574
% es.tEy (V/m) @ t=0.98
0
% es.tEz (V/m) @ t=0.98
-1.354546945665767
% V (V) @ t=0.98
0.02157828094186842
% es.normE (V/m) @ t=1
2.1451305113761627
% es.EX (V/m) @ t=1
-1.535717149930877
% es.EY (V/m) @ t=1
0.5848508812370685
% es.EZ (V/m) @ t=1
-1.3703916169539845
% es.tEX (V/m) @ t=1
-1.535717149930881
% es.tEY (V/m) @ t=1
0
% es.tEZ (V/m) @ t=1
-1.3703916169539916
% es.Ex (V/m) @ t=1
-1.535717149930877
% es.Ey (V/m) @ t=1
0.5848508812370685
% es.Ez (V/m) @ t=1
-1.3703916169539845
% es.tEx (V/m) @ t=1
-1.535717149930881
% es.tEy (V/m) @ t=1
0
% es.tEz (V/m) @ t=1
-1.3703916169539916
% V (V) @ t=1
0.021830699571525787
% es.normE (V/m) @ t=1.02
2.170289370387281
% es.EX (V/m) @ t=1.02
-1.5537285947763144
% es.EY (V/m) @ t=1.02
0.5917101679474186
% es.EZ (V/m) @ t=1.02
-1.3864640845319176
% es.tEX (V/m) @ t=1.02
-1.5537285947763122
% es.tEY (V/m) @ t=1.02
0
% es.tEZ (V/m) @ t=1.02
-1.386464084531923
% es.Ex (V/m) @ t=1.02
-1.5537285947763144
% es.Ey (V/m) @ t=1.02
0.5917101679474186
% es.Ez (V/m) @ t=1.02
-1.3864640845319176
% es.tEx (V/m) @ t=1.02
-1.5537285947763122
% es.tEy (V/m) @ t=1.02
0
% es.tEz (V/m) @ t=1.02
-1.386464084531923
% V (V) @ t=1.02
0.022086740053358794
% es.normE (V/m) @ t=1.04
2.1956963678581363