% Model:              1 neuron.mph
% Version:            COMSOL 6.1.0.252
% Date:               Mar 18 2023, 13:37
% Dimension:          0
% Nodes:              14017
% Expressions:        14017
% Description:        Electric field norm, Electric field, X component, Electric field, Y component, Electric field, Z component, Tangential electric field, X component, Tangential electric field, Y component, Tangential electric field, Z component, Electric field, x component, Electric field, y component, Electric field, z component, Tangential electric field, x component, Tangential electric field, y component, Tangential electric field, z component, Electric potential
% Length unit:        mm
% x
2
% y
12.2
% z
1.6599999999999997
% es.normE (V/m) @ t=0
3.6089936437443333
% es.EX (V/m) @ t=0
-3.487242659135653
% es.EY (V/m) @ t=0
0.26864488618122806
% es.EZ (V/m) @ t=0
-0.8888022555340154
% es.tEX (V/m) @ t=0
-3.4872426591356493
% es.tEY (V/m) @ t=0
0
% es.tEZ (V/m) @ t=0
-0.888802255534042
% es.Ex (V/m) @ t=0
-3.487242659135653
% es.Ey (V/m) @ t=0
0.26864488618122806
% es.Ez (V/m) @ t=0
-0.8888022555340154
% es.tEx (V/m) @ t=0
-3.4872426591356493
% es.tEy (V/m) @ t=0
0
% es.tEz (V/m) @ t=0
-0.888802255534042
% V (V) @ t=0
0.020914866416553556
% es.normE (V/m) @ t=0.02
3.311776720007658
% es.EX (V/m) @ t=0.02
-3.2000524970902493
% es.EY (V/m) @ t=0.02
0.24652073093345384
% es.EZ (V/m) @ t=0.02
-0.8156053129337568
% es.tEX (V/m) @ t=0.02
-3.200052497090244
% es.tEY (V/m) @ t=0.02
0
% es.tEZ (V/m) @ t=0.02
-0.8156053129337621
% es.Ex (V/m) @ t=0.02
-3.2000524970902493
% es.Ey (V/m) @ t=0.02
0.24652073093345384
% es.Ez (V/m) @ t=0.02
-0.8156053129337568
% es.tEx (V/m) @ t=0.02
-3.200052497090244
% es.tEy (V/m) @ t=0.02
0
% es.tEz (V/m) @ t=0.02
-0.8156053129337621
% V (V) @ t=0.02
0.019192433757836337
% es.normE (V/m) @ t=0.04
3.3554828324041237
% es.EX (V/m) @ t=0.04
-3.2422841611990805
% es.EY (V/m) @ t=0.04
0.2497741249646115
% es.EZ (V/m) @ t=0.04
-0.8263690116022842
% es.tEX (V/m) @ t=0.04
-3.242284161199091
% es.tEY (V/m) @ t=0.04
0
% es.tEZ (V/m) @ t=0.04
-0.8263690116022993
% es.Ex (V/m) @ t=0.04
-3.2422841611990805
% es.Ey (V/m) @ t=0.04
0.2497741249646115
% es.Ez (V/m) @ t=0.04
-0.8263690116022842
% es.tEx (V/m) @ t=0.04
-3.242284161199091
% es.tEy (V/m) @ t=0.04
0
% es.tEz (V/m) @ t=0.04
-0.8263690116022993
% V (V) @ t=0.04
0.019445718221607816
% es.normE (V/m) @ t=0.06
3.4000715213702617
% es.EX (V/m) @ t=0.06
-3.285368627098082
% es.EY (V/m) @ t=0.06
0.25309322064143647
% es.EZ (V/m) @ t=0.06
-0.8373500672794867
% es.tEX (V/m) @ t=0.06
-3.2853686270980837
% es.tEY (V/m) @ t=0.06
0
% es.tEZ (V/m) @ t=0.06
-0.8373500672794769
% es.Ex (V/m) @ t=0.06
-3.285368627098082
% es.Ey (V/m) @ t=0.06
0.25309322064143647
% es.Ez (V/m) @ t=0.06
-0.8373500672794867
% es.tEx (V/m) @ t=0.06
-3.2853686270980837
% es.tEy (V/m) @ t=0.06
0
% es.tEz (V/m) @ t=0.06
-0.8373500672794769
% V (V) @ t=0.06
0.01970411688613789
% es.normE (V/m) @ t=0.08
3.4447957264401294
% es.EX (V/m) @ t=0.08
-3.3285840373731688
% es.EY (V/m) @ t=0.08
0.25642240428564333
% es.EZ (V/m) @ t=0.08
-0.848364497065857
% es.tEX (V/m) @ t=0.08
-3.328584037373183
% es.tEY (V/m) @ t=0.08
0
% es.tEZ (V/m) @ t=0.08
-0.8483644970658624
% es.Ex (V/m) @ t=0.08
-3.3285840373731688
% es.Ey (V/m) @ t=0.08
0.25642240428564333
% es.Ez (V/m) @ t=0.08
-0.848364497065857
% es.tEx (V/m) @ t=0.08
-3.328584037373183
% es.tEy (V/m) @ t=0.08
0
% es.tEz (V/m) @ t=0.08
-0.8483644970658624
% V (V) @ t=0.08
0.01996330083863241
% es.normE (V/m) @ t=0.1
3.4909911172119887
% es.EX (V/m) @ t=0.1
-3.3732209795770167
% es.EY (V/m) @ t=0.1
0.2598611931749857
% es.EZ (V/m) @ t=0.1
-0.8597413000115797
% es.tEX (V/m) @ t=0.1
-3.3732209795770167
% es.tEY (V/m) @ t=0.1
0
% es.tEZ (V/m) @ t=0.1
-0.859741300011585
% es.Ex (V/m) @ t=0.1
-3.3732209795770167
% es.Ey (V/m) @ t=0.1
0.2598611931749857
% es.Ez (V/m) @ t=0.1
-0.8597413000115797
% es.tEx (V/m) @ t=0.1
-3.3732209795770167
% es.tEy (V/m) @ t=0.1
0
% es.tEz (V/m) @ t=0.1
-0.859741300011585
% V (V) @ t=0.1
0.02023100236813775
% es.normE (V/m) @ t=0.12
3.5377317415466494
% es.EX (V/m) @ t=0.12
-3.4183847532455136
% es.EY (V/m) @ t=0.12
0.2633406026726901
% es.EZ (V/m) @ t=0.12
-0.8712524014408034
% es.tEX (V/m) @ t=0.12
-3.4183847532455083
% es.tEY (V/m) @ t=0.12
0
% es.tEZ (V/m) @ t=0.12
-0.871252401440799
% es.Ex (V/m) @ t=0.12
-3.4183847532455136
% es.Ey (V/m) @ t=0.12
0.2633406026726901
% es.Ez (V/m) @ t=0.12
-0.8712524014408034
% es.tEx (V/m) @ t=0.12
-3.4183847532455083
% es.tEy (V/m) @ t=0.12
0
% es.tEz (V/m) @ t=0.12
-0.871252401440799
% V (V) @ t=0.12
0.02050186058197874
% es.normE (V/m) @ t=0.14
3.584472365881305
% es.EX (V/m) @ t=0.14
-3.4635485269139927
% es.EY (V/m) @ t=0.14
0.2668200121704516
% es.EZ (V/m) @ t=0.14
-0.882763502870012
% es.tEX (V/m) @ t=0.14
-3.4635485269140247
% es.tEY (V/m) @ t=0.14
0
% es.tEZ (V/m) @ t=0.14
-0.8827635028700023
% es.Ex (V/m) @ t=0.14
-3.4635485269139927
% es.Ey (V/m) @ t=0.14
0.2668200121704516
% es.Ez (V/m) @ t=0.14
-0.882763502870012
% es.tEx (V/m) @ t=0.14
-3.4635485269140247
% es.tEy (V/m) @ t=0.14
0
% es.tEz (V/m) @ t=0.14
-0.8827635028700023
% V (V) @ t=0.14
0.020772718795819736
% es.normE (V/m) @ t=0.16
3.6312129902159707
% es.EX (V/m) @ t=0.16
-3.508712300582463
% es.EY (V/m) @ t=0.16
0.270299421668156
% es.EZ (V/m) @ t=0.16
-0.8942746042992731
% es.tEX (V/m) @ t=0.16
-3.508712300582477
% es.tEY (V/m) @ t=0.16
0
% es.tEZ (V/m) @ t=0.16
-0.8942746042992518
% es.Ex (V/m) @ t=0.16
-3.508712300582463
% es.Ey (V/m) @ t=0.16
0.270299421668156
% es.Ez (V/m) @ t=0.16
-0.8942746042992731
% es.tEx (V/m) @ t=0.16
-3.508712300582477
% es.tEy (V/m) @ t=0.16
0
% es.tEz (V/m) @ t=0.16
-0.8942746042992518
% V (V) @ t=0.16
0.02104357700966073
% es.normE (V/m) @ t=0.18
3.6798958320785884
% es.EX (V/m) @ t=0.18
-3.5557528427815708
% es.EY (V/m) @ t=0.18
0.27392310780165197
% es.EZ (V/m) @ t=0.18
-0.9062638378250858
% es.tEX (V/m) @ t=0.18
-3.5557528427815797
% es.tEY (V/m) @ t=0.18
0
% es.tEZ (V/m) @ t=0.18
-0.9062638378250796
% es.Ex (V/m) @ t=0.18
-3.5557528427815708
% es.Ey (V/m) @ t=0.18
0.27392310780165197
% es.Ez (V/m) @ t=0.18
-0.9062638378250858
% es.tEx (V/m) @ t=0.18
-3.5557528427815797
% es.tEy (V/m) @ t=0.18
0
% es.tEz (V/m) @ t=0.18
-0.9062638378250796
% V (V) @ t=0.18
0.02132571748350688
% es.normE (V/m) @ t=0.2
3.7308185504471876
% es.EX (V/m) @ t=0.2
-3.604957781953873
% es.EY (V/m) @ t=0.2
0.27771318201578876
% es.EZ (V/m) @ t=0.2
-0.9188044806726996
% es.tEX (V/m) @ t=0.2
-3.60495778195385
% es.tEY (V/m) @ t=0.2
0
% es.tEZ (V/m) @ t=0.2
-0.9188044806727014
% es.Ex (V/m) @ t=0.2
-3.604957781953873
% es.Ey (V/m) @ t=0.2
0.27771318201578876
% es.Ez (V/m) @ t=0.2
-0.9188044806726996
% es.tEx (V/m) @ t=0.2
-3.60495778195385
% es.tEy (V/m) @ t=0.2
0
% es.tEz (V/m) @ t=0.2
-0.9188044806727014
% V (V) @ t=0.2
0.02162086930585405
% es.normE (V/m) @ t=0.22
3.78174126881594
% es.EX (V/m) @ t=0.22
-3.6541627211262018
% es.EY (V/m) @ t=0.22
0.2815032562299451
% es.EZ (V/m) @ t=0.22
-0.9313451235203418
% es.tEX (V/m) @ t=0.22
-3.6541627211262195
% es.tEY (V/m) @ t=0.22
0
% es.tEZ (V/m) @ t=0.22
-0.931345123520348
% es.Ex (V/m) @ t=0.22
-3.6541627211262018
% es.Ey (V/m) @ t=0.22
0.2815032562299451
% es.Ez (V/m) @ t=0.22
-0.9313451235203418
% es.tEx (V/m) @ t=0.22
-3.6541627211262195
% es.tEy (V/m) @ t=0.22
0
% es.tEz (V/m) @ t=0.22
-0.931345123520348
% V (V) @ t=0.22
0.021916021128201228
% es.normE (V/m) @ t=0.24
3.8326639871847803
% es.EX (V/m) @ t=0.24
-3.703367660298502
% es.EY (V/m) @ t=0.24
0.2852933304440515
% es.EZ (V/m) @ t=0.24
-0.9438857663680134
% es.tEX (V/m) @ t=0.24
-3.703367660298486
% es.tEY (V/m) @ t=0.24
0
% es.tEZ (V/m) @ t=0.24
-0.9438857663680302
% es.Ex (V/m) @ t=0.24
-3.703367660298502
% es.Ey (V/m) @ t=0.24
0.2852933304440515
% es.Ez (V/m) @ t=0.24
-0.9438857663680134
% es.tEx (V/m) @ t=0.24
-3.703367660298486
% es.tEy (V/m) @ t=0.24
0
% es.tEz (V/m) @ t=0.24
-0.9438857663680302
% V (V) @ t=0.24
0.022211172950548398
% es.normE (V/m) @ t=0.26
3.8835867055537605
% es.EX (V/m) @ t=0.26
-3.7525725994708345
% es.EY (V/m) @ t=0.26
0.28908340465824156
% es.EZ (V/m) @ t=0.26
-0.9564264092156565
% es.tEX (V/m) @ t=0.26
-3.752572599470845
% es.tEY (V/m) @ t=0.26
0
% es.tEZ (V/m) @ t=0.26
-0.9564264092156307
% es.Ex (V/m) @ t=0.26
-3.7525725994708345
% es.Ey (V/m) @ t=0.26
0.28908340465824156
% es.Ez (V/m) @ t=0.26
-0.9564264092156565
% es.tEx (V/m) @ t=0.26
-3.752572599470845
% es.tEy (V/m) @ t=0.26
0
% es.tEz (V/m) @ t=0.26
-0.9564264092156307
% V (V) @ t=0.26
0.022506324772895575
% es.normE (V/m) @ t=0.28
3.9345094239228846
% es.EX (V/m) @ t=0.28
-3.8017775386432113
% es.EY (V/m) @ t=0.28
0.2928734788723446
% es.EZ (V/m) @ t=0.28
-0.9689670520633147
% es.tEX (V/m) @ t=0.28
-3.801777538643229
% es.tEY (V/m) @ t=0.28
0
% es.tEZ (V/m) @ t=0.28
-0.9689670520633094
% es.Ex (V/m) @ t=0.28
-3.8017775386432113
% es.Ey (V/m) @ t=0.28
0.2928734788723446
% es.Ez (V/m) @ t=0.28
-0.9689670520633147
% es.tEx (V/m) @ t=0.28
-3.801777538643229
% es.tEy (V/m) @ t=0.28
0
% es.tEz (V/m) @ t=0.28
-0.9689670520633094
% V (V) @ t=0.28
0.02280147659524275
% es.normE (V/m) @ t=0.3
3.9854321422920482
% es.EX (V/m) @ t=0.3
-3.8509824778155277
% es.EY (V/m) @ t=0.3
0.2966635530865114
% es.EZ (V/m) @ t=0.3
-0.9815076949109436
% es.tEX (V/m) @ t=0.3
-3.8509824778154993
% es.tEY (V/m) @ t=0.3
0
% es.tEZ (V/m) @ t=0.3
-0.981507694910956
% es.Ex (V/m) @ t=0.3
-3.8509824778155277
% es.Ey (V/m) @ t=0.3
0.2966635530865114
% es.Ez (V/m) @ t=0.3
-0.9815076949109436
% es.tEx (V/m) @ t=0.3
-3.8509824778154993
% es.tEy (V/m) @ t=0.3
0
% es.tEz (V/m) @ t=0.3
-0.981507694910956
% V (V) @ t=0.3
0.02309662841758992
% es.normE (V/m) @ t=0.32
4.036354860661268
% es.EX (V/m) @ t=0.32
-3.9001874169878032
% es.EY (V/m) @ t=0.32
0.30045362730061975
% es.EZ (V/m) @ t=0.32
-0.9940483377585876
% es.tEX (V/m) @ t=0.32
-3.9001874169878263
% es.tEY (V/m) @ t=0.32
0
% es.tEZ (V/m) @ t=0.32
-0.9940483377585636
% es.Ex (V/m) @ t=0.32
-3.9001874169878032
% es.Ey (V/m) @ t=0.32
0.30045362730061975
% es.Ez (V/m) @ t=0.32
-0.9940483377585876
% es.tEx (V/m) @ t=0.32
-3.9001874169878263
% es.tEy (V/m) @ t=0.32
0
% es.tEz (V/m) @ t=0.32
-0.9940483377585636
% V (V) @ t=0.32
0.023391780239937092
% es.normE (V/m) @ t=0.34
4.087277579030628
% es.EX (V/m) @ t=0.34
-3.949392356160118
% es.EY (V/m) @ t=0.34
0.3042437015147619
% es.EZ (V/m) @ t=0.34
-1.0065889806062591
% es.tEX (V/m) @ t=0.34
-3.9493923561601534
% es.tEY (V/m) @ t=0.34
0
% es.tEZ (V/m) @ t=0.34
-1.0065889806062707
% es.Ex (V/m) @ t=0.34
-3.949392356160118
% es.Ey (V/m) @ t=0.34
0.3042437015147619
% es.Ez (V/m) @ t=0.34
-1.0065889806062591
% es.tEx (V/m) @ t=0.34
-3.9493923561601534
% es.tEy (V/m) @ t=0.34
0
% es.tEz (V/m) @ t=0.34
-1.0065889806062707
% V (V) @ t=0.34
0.023686932062284262
% es.normE (V/m) @ t=0.36
4.142077192067838
% es.EX (V/m) @ t=0.36
-4.002343879530178
% es.EY (V/m) @ t=0.36
0.3083203862896926
% es.EZ (V/m) @ t=0.36
-1.0200831803996184
% es.tEX (V/m) @ t=0.36
-4.002343879530173
% es.tEY (V/m) @ t=0.36
0
% es.tEZ (V/m) @ t=0.36
-1.0200831803995918
% es.Ex (V/m) @ t=0.36
-4.002343879530178
% es.Ey (V/m) @ t=0.36
0.3083203862896926
% es.Ez (V/m) @ t=0.36
-1.0200831803996184
% es.tEx (V/m) @ t=0.36
-4.002343879530173
% es.tEy (V/m) @ t=0.36
0
% es.tEz (V/m) @ t=0.36
-1.0200831803995918
% V (V) @ t=0.36
0.024004728080824347
% es.normE (V/m) @ t=0.38
4.197150619473852
% es.EX (V/m) @ t=0.38
-4.05556001379766
% es.EY (V/m) @ t=0.38
0.31241731357717084
% es.EZ (V/m) @ t=0.38
-1.0336447272872196
% es.tEX (V/m) @ t=0.38
-4.055560013797692
% es.tEY (V/m) @ t=0.38
0
% es.tEZ (V/m) @ t=0.38
-1.0336447272872356
% es.Ex (V/m) @ t=0.38
-4.05556001379766
% es.Ey (V/m) @ t=0.38
0.31241731357717084
% es.Ez (V/m) @ t=0.38
-1.0336447272872196
% es.tEx (V/m) @ t=0.38
-4.055560013797692
% es.tEy (V/m) @ t=0.38
0
% es.tEz (V/m) @ t=0.38
-1.0336447272872356
% V (V) @ t=0.38
0.024324123396420677
% es.normE (V/m) @ t=0.4
4.252224046882596
% es.EX (V/m) @ t=0.4
-4.108776148065187
% es.EY (V/m) @ t=0.4
0.3165142408646513
% es.EZ (V/m) @ t=0.4
-1.0472062741748775
% es.tEX (V/m) @ t=0.4
-4.1087761480652105
% es.tEY (V/m) @ t=0.4
0
% es.tEZ (V/m) @ t=0.4
-1.04720627417489
% es.Ex (V/m) @ t=0.4
-4.108776148065187
% es.Ey (V/m) @ t=0.4
0.3165142408646513
% es.Ez (V/m) @ t=0.4
-1.0472062741748775
% es.tEx (V/m) @ t=0.4
-4.1087761480652105
% es.tEy (V/m) @ t=0.4
0
% es.tEz (V/m) @ t=0.4
-1.04720627417489
% V (V) @ t=0.4
0.024643518712017018
% es.normE (V/m) @ t=0.42
4.307297474293922
% es.EX (V/m) @ t=0.42
-4.161992282332738
% es.EY (V/m) @ t=0.42
0.3206111681521209
% es.EZ (V/m) @ t=0.42
-1.0607678210625062
% es.tEX (V/m) @ t=0.42
-4.161992282332761
% es.tEY (V/m) @ t=0.42
0
% es.tEZ (V/m) @ t=0.42
-1.0607678210625018
% es.Ex (V/m) @ t=0.42
-4.161992282332738
% es.Ey (V/m) @ t=0.42
0.3206111681521209
% es.Ez (V/m) @ t=0.42
-1.0607678210625062
% es.tEx (V/m) @ t=0.42
-4.161992282332761
% es.tEy (V/m) @ t=0.42
0
% es.tEz (V/m) @ t=0.42
-1.0607678210625018
% V (V) @ t=0.42
0.024962914027613352
% es.normE (V/m) @ t=0.44
4.362370901707703
% es.EX (V/m) @ t=0.44
-4.215208416600271
% es.EY (V/m) @ t=0.44
0.32470809543960644
% es.EZ (V/m) @ t=0.44
-1.0743293679501358
% es.tEX (V/m) @ t=0.44
-4.215208416600305
% es.tEY (V/m) @ t=0.44
0
% es.tEZ (V/m) @ t=0.44
-1.074329367950174
% es.Ex (V/m) @ t=0.44
-4.215208416600271
% es.Ey (V/m) @ t=0.44
0.32470809543960644
% es.Ez (V/m) @ t=0.44
-1.0743293679501358
% es.tEx (V/m) @ t=0.44
-4.215208416600305
% es.tEy (V/m) @ t=0.44
0
% es.tEz (V/m) @ t=0.44
-1.074329367950174
% V (V) @ t=0.44
0.02528230934320969
% es.normE (V/m) @ t=0.46
4.417444329123865
% es.EX (V/m) @ t=0.46
-4.268424550867806
% es.EY (V/m) @ t=0.46
0.32880502272704404
% es.EZ (V/m) @ t=0.46
-1.0878909148377893
% es.tEX (V/m) @ t=0.46
-4.2684245508678345
% es.tEY (V/m) @ t=0.46
0
% es.tEZ (V/m) @ t=0.46
-1.0878909148378142
% es.Ex (V/m) @ t=0.46
-4.268424550867806
% es.Ey (V/m) @ t=0.46
0.32880502272704404
% es.Ez (V/m) @ t=0.46
-1.0878909148377893
% es.tEx (V/m) @ t=0.46
-4.2684245508678345
% es.tEy (V/m) @ t=0.46
0
% es.tEz (V/m) @ t=0.46
-1.0878909148378142
% V (V) @ t=0.46
0.02560170465880603
% es.normE (V/m) @ t=0.48
4.47251775654232
% es.EX (V/m) @ t=0.48
-4.321640685135343
% es.EY (V/m) @ t=0.48
0.3329019500145367
% es.EZ (V/m) @ t=0.48
-1.1014524617254269
% es.tEX (V/m) @ t=0.48
-4.32164068513535
% es.tEY (V/m) @ t=0.48
0
% es.tEZ (V/m) @ t=0.48
-1.101452461725458
% es.Ex (V/m) @ t=0.48
-4.321640685135343
% es.Ey (V/m) @ t=0.48
0.3329019500145367
% es.Ez (V/m) @ t=0.48
-1.1014524617254269
% es.tEx (V/m) @ t=0.48
-4.32164068513535
% es.tEy (V/m) @ t=0.48
0
% es.tEz (V/m) @ t=0.48
-1.101452461725458
% V (V) @ t=0.48
0.02592109997440236
% es.normE (V/m) @ t=0.5
4.5275911839629845
% es.EX (V/m) @ t=0.5
-4.374856819402877
% es.EY (V/m) @ t=0.5
0.33699887730200273
% es.EZ (V/m) @ t=0.5
-1.1150140086130893
% es.tEX (V/m) @ t=0.5
-4.374856819402844
% es.tEY (V/m) @ t=0.5
0
% es.tEZ (V/m) @ t=0.5
-1.1150140086130662
% es.Ex (V/m) @ t=0.5
-4.374856819402877
% es.Ey (V/m) @ t=0.5
0.33699887730200273
% es.Ez (V/m) @ t=0.5
-1.1150140086130893
% es.tEx (V/m) @ t=0.5
-4.374856819402844
% es.tEy (V/m) @ t=0.5
0
% es.tEz (V/m) @ t=0.5
-1.1150140086130662
% V (V) @ t=0.5
0.026240495289998698
% es.normE (V/m) @ t=0.52
4.584250190018906
% es.EX (V/m) @ t=0.52
-4.429604648901876
% es.EY (V/m) @ t=0.52
0.3412154536691454
% es.EZ (V/m) @ t=0.52
-1.1289670482486684
% es.tEX (V/m) @ t=0.52
-4.429604648901893
% es.tEY (V/m) @ t=0.52
0
% es.tEZ (V/m) @ t=0.52
-1.1289670482486471
% es.Ex (V/m) @ t=0.52
-4.429604648901876
% es.Ey (V/m) @ t=0.52
0.3412154536691454
% es.Ez (V/m) @ t=0.52
-1.1289670482486684
% es.tEx (V/m) @ t=0.52
-4.429604648901893
% es.tEy (V/m) @ t=0.52
0
% es.tEz (V/m) @ t=0.52
-1.1289670482486471
% V (V) @ t=0.52
0.02656893389891319
% es.normE (V/m) @ t=0.54
4.643251709153923
% es.EX (V/m) @ t=0.54
-4.486615384847616
% es.EY (V/m) @ t=0.54
0.3456087980171001
% es.EZ (V/m) @ t=0.54
-1.1434984741355496
% es.tEX (V/m) @ t=0.54
-4.48661538484766
% es.tEY (V/m) @ t=0.54
0
% es.tEZ (V/m) @ t=0.54
-1.1434984741355692
% es.Ex (V/m) @ t=0.54
-4.486615384847616
% es.Ey (V/m) @ t=0.54
0.3456087980171001
% es.Ez (V/m) @ t=0.54
-1.1434984741355496
% es.tEx (V/m) @ t=0.54
-4.48661538484766
% es.tEy (V/m) @ t=0.54
0
% es.tEz (V/m) @ t=0.54
-1.1434984741355692
% V (V) @ t=0.54
0.026910732950773272
% es.normE (V/m) @ t=0.56
4.702253228290122
% es.EX (V/m) @ t=0.56
-4.543626120793382
% es.EY (V/m) @ t=0.56
0.35000214236509386
% es.EZ (V/m) @ t=0.56
-1.158029900022477
% es.tEX (V/m) @ t=0.56
-4.543626120793391
% es.tEY (V/m) @ t=0.56
0
% es.tEZ (V/m) @ t=0.56
-1.1580299000224912
% es.Ex (V/m) @ t=0.56
-4.543626120793382
% es.Ey (V/m) @ t=0.56
0.35000214236509386
% es.Ez (V/m) @ t=0.56
-1.158029900022477
% es.tEx (V/m) @ t=0.56
-4.543626120793391
% es.tEy (V/m) @ t=0.56
0
% es.tEz (V/m) @ t=0.56
-1.1580299000224912
% V (V) @ t=0.56
0.02725253200263335
% es.normE (V/m) @ t=0.58
4.761254747427438
% es.EX (V/m) @ t=0.58
-4.600636856739172
% es.EY (V/m) @ t=0.58
0.3543954867130663
% es.EZ (V/m) @ t=0.58
-1.17256132590939
% es.tEX (V/m) @ t=0.58
-4.600636856739179
% es.tEY (V/m) @ t=0.58
0
% es.tEZ (V/m) @ t=0.58
-1.1725613259093635
% es.Ex (V/m) @ t=0.58
-4.600636856739172
% es.Ey (V/m) @ t=0.58
0.3543954867130663
% es.Ez (V/m) @ t=0.58
-1.17256132590939
% es.tEx (V/m) @ t=0.58
-4.600636856739179
% es.tEy (V/m) @ t=0.58
0
% es.tEz (V/m) @ t=0.58
-1.1725613259093635
% V (V) @ t=0.58
0.02759433105449343
% es.normE (V/m) @ t=0.6
4.820256266565812
% es.EX (V/m) @ t=0.6
-4.657647592684942
% es.EY (V/m) @ t=0.6
0.35878883106112025
% es.EZ (V/m) @ t=0.6
-1.1870927517963468
% es.tEX (V/m) @ t=0.6
-4.657647592684931
% es.tEY (V/m) @ t=0.6
0
% es.tEZ (V/m) @ t=0.6
-1.1870927517963494
% es.Ex (V/m) @ t=0.6
-4.657647592684942
% es.Ey (V/m) @ t=0.6
0.35878883106112025
% es.Ez (V/m) @ t=0.6
-1.1870927517963468
% es.tEx (V/m) @ t=0.6
-4.657647592684931
% es.tEy (V/m) @ t=0.6
0
% es.tEz (V/m) @ t=0.6
-1.1870927517963494
% V (V) @ t=0.6
0.02793613010635351
% es.normE (V/m) @ t=0.62
4.879257785705152
% es.EX (V/m) @ t=0.62
-4.714658328630675
% es.EY (V/m) @ t=0.62
0.36318217540908915
% es.EZ (V/m) @ t=0.62
-1.2016241776832528
% es.tEX (V/m) @ t=0.62
-4.714658328630712
% es.tEY (V/m) @ t=0.62
0
% es.tEZ (V/m) @ t=0.62
-1.201624177683236
% es.Ex (V/m) @ t=0.62
-4.714658328630675
% es.Ey (V/m) @ t=0.62
0.36318217540908915
% es.Ez (V/m) @ t=0.62
-1.2016241776832528
% es.tEx (V/m) @ t=0.62
-4.714658328630712
% es.tEy (V/m) @ t=0.62
0
% es.tEz (V/m) @ t=0.62
-1.201624177683236
% V (V) @ t=0.62
0.028277929158213595
% es.normE (V/m) @ t=0.64
4.938259304845539
% es.EX (V/m) @ t=0.64
-4.771669064576454
% es.EY (V/m) @ t=0.64
0.3675755197571291
% es.EZ (V/m) @ t=0.64
-1.2161556035702157
% es.tEX (V/m) @ t=0.64
-4.771669064576471
% es.tEY (V/m) @ t=0.64
0
% es.tEZ (V/m) @ t=0.64
-1.216155603570165
% es.Ex (V/m) @ t=0.64
-4.771669064576454
% es.Ey (V/m) @ t=0.64
0.3675755197571291
% es.Ez (V/m) @ t=0.64
-1.2161556035702157
% es.tEx (V/m) @ t=0.64
-4.771669064576471
% es.tEy (V/m) @ t=0.64
0
% es.tEz (V/m) @ t=0.64
-1.216155603570165
% V (V) @ t=0.64
0.028619728210073674
% es.normE (V/m) @ t=0.66
4.997260823986849
% es.EX (V/m) @ t=0.66
-4.828679800522224
% es.EY (V/m) @ t=0.66
0.3719688641051513
% es.EZ (V/m) @ t=0.66
-1.2306870294571102
% es.tEX (V/m) @ t=0.66
-4.828679800522238
% es.tEY (V/m) @ t=0.66
0
% es.tEZ (V/m) @ t=0.66
-1.2306870294571013
% es.Ex (V/m) @ t=0.66
-4.828679800522224
% es.Ey (V/m) @ t=0.66
0.3719688641051513
% es.Ez (V/m) @ t=0.66
-1.2306870294571102
% es.tEx (V/m) @ t=0.66
-4.828679800522238
% es.tEy (V/m) @ t=0.66
0
% es.tEz (V/m) @ t=0.66
-1.2306870294571013
% V (V) @ t=0.66
0.028961527261933753
% es.normE (V/m) @ t=0.68
5.056262343129073
% es.EX (V/m) @ t=0.68
-4.88569053646798
% es.EY (V/m) @ t=0.68
0.3763622084531837
% es.EZ (V/m) @ t=0.68
-1.2452184553440429
% es.tEX (V/m) @ t=0.68
-4.885690536468026
% es.tEY (V/m) @ t=0.68
0
% es.tEZ (V/m) @ t=0.68
-1.245218455343995
% es.Ex (V/m) @ t=0.68
-4.88569053646798
% es.Ey (V/m) @ t=0.68
0.3763622084531837
% es.Ez (V/m) @ t=0.68
-1.2452184553440429
% es.tEx (V/m) @ t=0.68
-4.885690536468026
% es.tEy (V/m) @ t=0.68
0
% es.tEz (V/m) @ t=0.68
-1.245218455343995
% V (V) @ t=0.68
0.029303326313793836
% es.normE (V/m) @ t=0.7
5.116381537087418
% es.EX (V/m) @ t=0.7
-4.943781202605074
% es.EY (V/m) @ t=0.7
0.380838910694814
% es.EZ (V/m) @ t=0.7
-1.260025236939101
% es.tEX (V/m) @ t=0.7
-4.9437812026050665
% es.tEY (V/m) @ t=0.7
0
% es.tEZ (V/m) @ t=0.7
-1.2600252369390716
% es.Ex (V/m) @ t=0.7
-4.943781202605074
% es.Ey (V/m) @ t=0.7
0.380838910694814
% es.Ez (V/m) @ t=0.7
-1.260025236939101
% es.tEx (V/m) @ t=0.7
-4.9437812026050665
% es.tEy (V/m) @ t=0.7
0
% es.tEz (V/m) @ t=0.7
-1.2600252369390716
% V (V) @ t=0.7
0.02965158816069233
% es.normE (V/m) @ t=0.72
5.176917888077389
% es.EX (V/m) @ t=0.72
-5.002274938101586
% es.EY (V/m) @ t=0.72
0.3853467251444689
% es.EZ (V/m) @ t=0.72
-1.2749347913335294
% es.tEX (V/m) @ t=0.72
-5.002274938101593
% es.tEY (V/m) @ t=0.72
0
% es.tEZ (V/m) @ t=0.72
-1.274934791333557
% es.Ex (V/m) @ t=0.72
-5.002274938101586
% es.Ey (V/m) @ t=0.72
0.3853467251444689
% es.Ez (V/m) @ t=0.72
-1.2749347913335294
% es.tEx (V/m) @ t=0.72
-5.002274938101593
% es.tEy (V/m) @ t=0.72
0
% es.tEz (V/m) @ t=0.72
-1.274934791333557
% V (V) @ t=0.72
0.030002262158558248
% es.normE (V/m) @ t=0.74
5.237726446665369
% es.EX (V/m) @ t=0.74
-5.061031688562885
% es.EY (V/m) @ t=0.74
0.3898748412521431
% es.EZ (V/m) @ t=0.74
-1.2899114080922578
% es.tEX (V/m) @ t=0.74
-5.061031688562913
% es.tEY (V/m) @ t=0.74
0
% es.tEZ (V/m) @ t=0.74
-1.2899114080922018
% es.Ex (V/m) @ t=0.74
-5.061031688562885
% es.Ey (V/m) @ t=0.74
0.3898748412521431
% es.Ez (V/m) @ t=0.74
-1.2899114080922578
% es.tEx (V/m) @ t=0.74
-5.061031688562913
% es.tEy (V/m) @ t=0.74
0
% es.tEz (V/m) @ t=0.74
-1.2899114080922018
% V (V) @ t=0.74
0.03035451015798704
% es.normE (V/m) @ t=0.76
5.29880721285122
% es.EX (V/m) @ t=0.76
-5.120051453988808
% es.EY (V/m) @ t=0.76
0.39442325901788267
% es.EZ (V/m) @ t=0.76
-1.304955087215225
% es.tEX (V/m) @ t=0.76
-5.120051453988843
% es.tEY (V/m) @ t=0.76
0
% es.tEZ (V/m) @ t=0.76
-1.3049550872152338
% es.Ex (V/m) @ t=0.76
-5.120051453988808
% es.Ey (V/m) @ t=0.76
0.39442325901788267
% es.Ez (V/m) @ t=0.76
-1.304955087215225
% es.tEx (V/m) @ t=0.76
-5.120051453988843
% es.tEy (V/m) @ t=0.76
0
% es.tEz (V/m) @ t=0.76
-1.3049550872152338
% V (V) @ t=0.76
0.030708332158978724
% es.normE (V/m) @ t=0.78
5.3601601866350075
% es.EX (V/m) @ t=0.78
-5.179334234379372
% es.EY (V/m) @ t=0.78
0.39899197844167933
% es.EZ (V/m) @ t=0.78
-1.320065828702477
% es.tEX (V/m) @ t=0.78
-5.17933423437939
% es.tEY (V/m) @ t=0.78
0
% es.tEZ (V/m) @ t=0.78
-1.3200658287024538
% es.Ex (V/m) @ t=0.78
-5.179334234379372
% es.Ey (V/m) @ t=0.78
0.39899197844167933
% es.Ez (V/m) @ t=0.78
-1.320065828702477
% es.tEx (V/m) @ t=0.78
-5.17933423437939
% es.tEy (V/m) @ t=0.78
0
% es.tEz (V/m) @ t=0.78
-1.3200658287024538
% V (V) @ t=0.78
0.031063728161533303
% es.normE (V/m) @ t=0.8
5.4217853680168915
% es.EX (V/m) @ t=0.8
-5.238880029734741
% es.EY (V/m) @ t=0.8
0.40358099952347737
% es.EZ (V/m) @ t=0.8
-1.3352436325539037
% es.tEX (V/m) @ t=0.8
-5.23888002973473
% es.tEY (V/m) @ t=0.8
0
% es.tEZ (V/m) @ t=0.8
-1.335243632553933
% es.Ex (V/m) @ t=0.8
-5.238880029734741
% es.Ey (V/m) @ t=0.8
0.40358099952347737
% es.Ez (V/m) @ t=0.8
-1.3352436325539037
% es.tEx (V/m) @ t=0.8
-5.23888002973473
% es.tEy (V/m) @ t=0.8
0
% es.tEz (V/m) @ t=0.8
-1.335243632553933
% V (V) @ t=0.8
0.03142069816565077
% es.normE (V/m) @ t=0.82
5.483682756996961
% es.EX (V/m) @ t=0.82
-5.298688840054922
% es.EY (V/m) @ t=0.82
0.40819032226330454
% es.EZ (V/m) @ t=0.82
-1.3504884987696917
% es.tEX (V/m) @ t=0.82
-5.298688840054908
% es.tEY (V/m) @ t=0.82
0
% es.tEZ (V/m) @ t=0.82
-1.3504884987696926
% es.Ex (V/m) @ t=0.82
-5.298688840054922
% es.Ey (V/m) @ t=0.82
0.40819032226330454
% es.Ez (V/m) @ t=0.82
-1.3504884987696917
% es.tEx (V/m) @ t=0.82
-5.298688840054908
% es.tEy (V/m) @ t=0.82
0
% es.tEz (V/m) @ t=0.82
-1.3504884987696926
% V (V) @ t=0.82
0.03177924217133112
% es.normE (V/m) @ t=0.84
5.545852353574981
% es.EX (V/m) @ t=0.84
-5.358760665339663
% es.EY (V/m) @ t=0.84
0.4128199466612188
% es.EZ (V/m) @ t=0.84
-1.365800427349714
% es.tEX (V/m) @ t=0.84
-5.358760665339702
% es.tEY (V/m) @ t=0.84
0
% es.tEZ (V/m) @ t=0.84
-1.36580042734969
% es.Ex (V/m) @ t=0.84
-5.358760665339663
% es.Ey (V/m) @ t=0.84
0.4128199466612188
% es.Ez (V/m) @ t=0.84
-1.365800427349714
% es.tEx (V/m) @ t=0.84
-5.358760665339702
% es.tEy (V/m) @ t=0.84
0
% es.tEz (V/m) @ t=0.84
-1.36580042734969
% V (V) @ t=0.84
0.032139360178574376
% es.normE (V/m) @ t=0.86
5.608294157751159
% es.EX (V/m) @ t=0.86
-5.419095505589166
% es.EY (V/m) @ t=0.86
0.41746987271711156
% es.EZ (V/m) @ t=0.86
-1.3811794182939225
% es.tEX (V/m) @ t=0.86
-5.419095505589176
% es.tEY (V/m) @ t=0.86
0
% es.tEZ (V/m) @ t=0.86
-1.3811794182939252
% es.Ex (V/m) @ t=0.86
-5.419095505589166
% es.Ey (V/m) @ t=0.86
0.41746987271711156
% es.Ez (V/m) @ t=0.86
-1.3811794182939225
% es.tEx (V/m) @ t=0.86
-5.419095505589176
% es.tEy (V/m) @ t=0.86
0
% es.tEz (V/m) @ t=0.86
-1.3811794182939252
% V (V) @ t=0.86
0.03250105218738051
% es.normE (V/m) @ t=0.88
5.671008169525569
% es.EX (V/m) @ t=0.88
-5.479693360803402
% es.EY (V/m) @ t=0.88
0.42214010043116224
% es.EZ (V/m) @ t=0.88
-1.3966254716025395
% es.tEX (V/m) @ t=0.88
-5.479693360803402
% es.tEY (V/m) @ t=0.88
0
% es.tEZ (V/m) @ t=0.88
-1.3966254716025333
% es.Ex (V/m) @ t=0.88
-5.479693360803402
% es.Ey (V/m) @ t=0.88
0.42214010043116224
% es.Ez (V/m) @ t=0.88
-1.3966254716025395
% es.tEx (V/m) @ t=0.88
-5.479693360803402
% es.tEy (V/m) @ t=0.88
0
% es.tEz (V/m) @ t=0.88
-1.3966254716025333
% V (V) @ t=0.88
0.032864318197749535
% es.normE (V/m) @ t=0.9
5.733994388898102
% es.EX (V/m) @ t=0.9
-5.540554230982316
% es.EY (V/m) @ t=0.9
0.4268306298031288
% es.EZ (V/m) @ t=0.9
-1.4121385872752814
% es.tEX (V/m) @ t=0.9
-5.5405542309823375
% es.tEY (V/m) @ t=0.9
0
% es.tEZ (V/m) @ t=0.9
-1.4121385872752867
% es.Ex (V/m) @ t=0.9
-5.540554230982316
% es.Ey (V/m) @ t=0.9
0.4268306298031288
% es.Ez (V/m) @ t=0.9
-1.4121385872752814
% es.tEx (V/m) @ t=0.9
-5.5405542309823375
% es.tEy (V/m) @ t=0.9
0
% es.tEz (V/m) @ t=0.9
-1.4121385872752867
% V (V) @ t=0.9
0.03322915820968145
% es.normE (V/m) @ t=0.92
5.797252815869021
% es.EX (V/m) @ t=0.92
-5.601678116126067
% es.EY (V/m) @ t=0.92
0.4315414608331851
% es.EZ (V/m) @ t=0.92
-1.4277187653123944
% es.tEX (V/m) @ t=0.92
-5.601678116126088
% es.tEY (V/m) @ t=0.92
0
% es.tEZ (V/m) @ t=0.92
-1.4277187653123988
% es.Ex (V/m) @ t=0.92
-5.601678116126067
% es.Ey (V/m) @ t=0.92
0.4315414608331851
% es.Ez (V/m) @ t=0.92
-1.4277187653123944
% es.tEx (V/m) @ t=0.92
-5.601678116126088
% es.tEy (V/m) @ t=0.92
0
% es.tEz (V/m) @ t=0.92
-1.4277187653123988
% V (V) @ t=0.92
0.03359557222317625
% es.normE (V/m) @ t=0.94
5.860783450438115
% es.EX (V/m) @ t=0.94
-5.6630650162344764
% es.EY (V/m) @ t=0.94
0.4362725935212035
% es.EZ (V/m) @ t=0.94
-1.4433660057136484
% es.tEX (V/m) @ t=0.94
-5.663065016234434
% es.tEY (V/m) @ t=0.94
0
% es.tEZ (V/m) @ t=0.94
-1.443366005713628
% es.Ex (V/m) @ t=0.94
-5.6630650162344764
% es.Ey (V/m) @ t=0.94
0.4362725935212035
% es.Ez (V/m) @ t=0.94
-1.4433660057136484
% es.tEx (V/m) @ t=0.94
-5.663065016234434
% es.tEy (V/m) @ t=0.94
0
% es.tEz (V/m) @ t=0.94
-1.443366005713628
% V (V) @ t=0.94
0.03396356023823395
% es.normE (V/m) @ t=0.96
5.9245862926055
% es.EX (V/m) @ t=0.96
-5.724714931307563
% es.EY (V/m) @ t=0.96
0.4410240278673818
% es.EZ (V/m) @ t=0.96
-1.459080308479237
% es.tEX (V/m) @ t=0.96
-5.724714931307545
% es.tEY (V/m) @ t=0.96
0
% es.tEZ (V/m) @ t=0.96
-1.4590803084792299
% es.Ex (V/m) @ t=0.96
-5.724714931307563
% es.Ey (V/m) @ t=0.96
0.4410240278673818
% es.Ez (V/m) @ t=0.96
-1.459080308479237
% es.tEx (V/m) @ t=0.96
-5.724714931307545
% es.tEy (V/m) @ t=0.96
0
% es.tEz (V/m) @ t=0.96
-1.4590803084792299
% V (V) @ t=0.96
0.034333122254854534
% es.normE (V/m) @ t=0.98
5.98866134237112
% es.EX (V/m) @ t=0.98
-5.786627861345281
% es.EY (V/m) @ t=0.98
0.44579576387153375
% es.EZ (V/m) @ t=0.98
-1.4748616736090483
% es.tEX (V/m) @ t=0.98
-5.786627861345316
% es.tEY (V/m) @ t=0.98
0
% es.tEZ (V/m) @ t=0.98
-1.4748616736090412
% es.Ex (V/m) @ t=0.98
-5.786627861345281
% es.Ey (V/m) @ t=0.98
0.44579576387153375
% es.Ez (V/m) @ t=0.98
-1.4748616736090483
% es.tEx (V/m) @ t=0.98
-5.786627861345316
% es.tEy (V/m) @ t=0.98
0
% es.tEz (V/m) @ t=0.98
-1.4748616736090412
% V (V) @ t=0.98
0.03470425827303801
% es.normE (V/m) @ t=1
6.053008599735318
% es.EX (V/m) @ t=1
-5.848803806347906
% es.EY (V/m) @ t=1
0.4505878015337681
% es.EZ (V/m) @ t=1
-1.4907101011032307
% es.tEX (V/m) @ t=1
-5.848803806347881
% es.tEY (V/m) @ t=1
0
% es.tEZ (V/m) @ t=1
-1.4907101011031898
% es.Ex (V/m) @ t=1
-5.848803806347906
% es.Ey (V/m) @ t=1
0.4505878015337681
% es.Ez (V/m) @ t=1
-1.4907101011032307
% es.tEx (V/m) @ t=1
-5.848803806347881
% es.tEy (V/m) @ t=1
0
% es.tEz (V/m) @ t=1
-1.4907101011031898
% V (V) @ t=1
0.03507696829278438
% es.normE (V/m) @ t=1.02
6.11762806469778
% es.EX (V/m) @ t=1.02
-5.911242766315162
% es.EY (V/m) @ t=1.02
0.4554001408540067
% es.EZ (V/m) @ t=1.02
-1.50662559096149
% es.tEX (V/m) @ t=1.02
-5.911242766315141
% es.tEY (V/m) @ t=1.02
0
% es.tEZ (V/m) @ t=1.02
-1.5066255909614839
% es.Ex (V/m) @ t=1.02
-5.911242766315162
% es.Ey (V/m) @ t=1.02
0.4554001408540067
% es.Ez (V/m) @ t=1.02
-1.50662559096149
% es.tEx (V/m) @ t=1.02
-5.911242766315141
% es.tEy (V/m) @ t=1.02
0
% es.tEz (V/m) @ t=1.02
-1.5066255909614839
% V (V) @ t=1.02
0.035451252314093636
% es.normE (V/m) @ t=1.04
6.182090541710277
% es.EX (V/m) @ t=1.04
-5.973530451309362
% es.EY (V/m) @ t=1.04
0.4601990803638991
% es.EZ (V/m) @ t=1.04
-1.5225013508658591
% es.tEX (V/m) @ t=1.04
-5.973530451309379
% es.tEY (V/m) @ t=1.04
0