% Model:              1 neuron.mph
% Version:            COMSOL 6.0.0.405
% Date:               Mar 16 2023, 20:08
% Dimension:          0
% Nodes:              14017
% Expressions:        14017
% Description:        Electric field norm, Electric field, X component, Electric field, Y component, Electric field, Z component, Tangential electric field, X component, Tangential electric field, Y component, Tangential electric field, Z component, Electric field, x component, Electric field, y component, Electric field, z component, Tangential electric field, x component, Tangential electric field, y component, Tangential electric field, z component, Electric potential
% Length unit:        mm
% x
1.33
% y
12.2
% z
1
% es.normE (V/m) @ t=0
2.883634401958243
% es.EX (V/m) @ t=0
0.8900723375625899
% es.EY (V/m) @ t=0
0.2156322948068905
% es.EZ (V/m) @ t=0
2.734321355475819
% es.tEX (V/m) @ t=0
0.890072337562593
% es.tEY (V/m) @ t=0
0
% es.tEZ (V/m) @ t=0
2.7343213554758385
% es.Ex (V/m) @ t=0
0.8900723375625899
% es.Ey (V/m) @ t=0
0.2156322948068905
% es.Ez (V/m) @ t=0
2.734321355475819
% es.tEx (V/m) @ t=0
0.890072337562593
% es.tEy (V/m) @ t=0
0
% es.tEz (V/m) @ t=0
2.7343213554758385
% V (V) @ t=0
0.013486829236266895
% es.normE (V/m) @ t=0.02
2.4988886066668803
% es.EX (V/m) @ t=0.02
0.7713154032499664
% es.EY (V/m) @ t=0.02
0.18686179163261396
% es.EZ (V/m) @ t=0.02
2.369497490522205
% es.tEX (V/m) @ t=0.02
0.7713154032499645
% es.tEY (V/m) @ t=0.02
0
% es.tEZ (V/m) @ t=0.02
2.369497490522221
% es.Ex (V/m) @ t=0.02
0.7713154032499664
% es.Ey (V/m) @ t=0.02
0.18686179163261396
% es.Ez (V/m) @ t=0.02
2.369497490522205
% es.tEx (V/m) @ t=0.02
0.7713154032499645
% es.tEy (V/m) @ t=0.02
0
% es.tEz (V/m) @ t=0.02
2.369497490522221
% V (V) @ t=0.02
0.011687364294388077
% es.normE (V/m) @ t=0.04
2.530295624632299
% es.EX (V/m) @ t=0.04
0.7810096571203754
% es.EY (V/m) @ t=0.04
0.18921035321833934
% es.EZ (V/m) @ t=0.04
2.399278250328698
% es.tEX (V/m) @ t=0.04
0.7810096571203857
% es.tEY (V/m) @ t=0.04
0
% es.tEZ (V/m) @ t=0.04
2.399278250328681
% es.Ex (V/m) @ t=0.04
0.7810096571203754
% es.Ey (V/m) @ t=0.04
0.18921035321833934
% es.Ez (V/m) @ t=0.04
2.399278250328698
% es.tEx (V/m) @ t=0.04
0.7810096571203857
% es.tEy (V/m) @ t=0.04
0
% es.tEz (V/m) @ t=0.04
2.399278250328681
% V (V) @ t=0.04
0.011834262420542328
% es.normE (V/m) @ t=0.06
2.561998993630894
% es.EX (V/m) @ t=0.06
0.7907954749505887
% es.EY (V/m) @ t=0.06
0.19158108816383823
% es.EZ (V/m) @ t=0.06
2.429339985359971
% es.tEX (V/m) @ t=0.06
0.7907954749505848
% es.tEY (V/m) @ t=0.06
0
% es.tEZ (V/m) @ t=0.06
2.4293399853599666
% es.Ex (V/m) @ t=0.06
0.7907954749505887
% es.Ey (V/m) @ t=0.06
0.19158108816383823
% es.Ez (V/m) @ t=0.06
2.429339985359971
% es.tEx (V/m) @ t=0.06
0.7907954749505848
% es.tEy (V/m) @ t=0.06
0
% es.tEz (V/m) @ t=0.06
2.4293399853599666
% V (V) @ t=0.06
0.011982556816962982
% es.normE (V/m) @ t=0.08
2.594681331386767
% es.EX (V/m) @ t=0.08
0.8008830625437819
% es.EY (V/m) @ t=0.08
0.19402499054484545
% es.EZ (V/m) @ t=0.08
2.4603301334192937
% es.tEX (V/m) @ t=0.08
0.8008830625437895
% es.tEY (V/m) @ t=0.08
0
% es.tEZ (V/m) @ t=0.08
2.4603301334192818
% es.Ex (V/m) @ t=0.08
0.8008830625437819
% es.Ey (V/m) @ t=0.08
0.19402499054484545
% es.Ez (V/m) @ t=0.08
2.4603301334192937
% es.tEx (V/m) @ t=0.08
0.8008830625437895
% es.tEy (V/m) @ t=0.08
0
% es.tEz (V/m) @ t=0.08
2.4603301334192818
% V (V) @ t=0.08
0.012135385939057176
% es.normE (V/m) @ t=0.1
2.627476273868341
% es.EX (V/m) @ t=0.1
0.8110053608477421
% es.EY (V/m) @ t=0.1
0.19647730892369952
% es.EZ (V/m) @ t=0.1
2.4914270710911963
% es.tEX (V/m) @ t=0.1
0.8110053608477514
% es.tEY (V/m) @ t=0.1
0
% es.tEZ (V/m) @ t=0.1
2.491427071091209
% es.Ex (V/m) @ t=0.1
0.8110053608477421
% es.Ey (V/m) @ t=0.1
0.19647730892369952
% es.Ez (V/m) @ t=0.1
2.4914270710911963
% es.tEx (V/m) @ t=0.1
0.8110053608477514
% es.tEy (V/m) @ t=0.1
0
% es.tEz (V/m) @ t=0.1
2.491427071091209
% V (V) @ t=0.1
0.012288736662618925
% es.normE (V/m) @ t=0.12
2.660271216349978
% es.EX (V/m) @ t=0.12
0.821127659151704
% es.EY (V/m) @ t=0.12
0.19892962730256447
% es.EZ (V/m) @ t=0.12
2.5225240087631122
% es.tEX (V/m) @ t=0.12
0.8211276591517134
% es.tEY (V/m) @ t=0.12
0
% es.tEZ (V/m) @ t=0.12
2.5225240087631082
% es.Ex (V/m) @ t=0.12
0.821127659151704
% es.Ey (V/m) @ t=0.12
0.19892962730256447
% es.Ez (V/m) @ t=0.12
2.5225240087631122
% es.tEx (V/m) @ t=0.12
0.8211276591517134
% es.tEy (V/m) @ t=0.12
0
% es.tEz (V/m) @ t=0.12
2.5225240087631082
% V (V) @ t=0.12
0.012442087386180675
% es.normE (V/m) @ t=0.14
2.6949561829985296
% es.EX (V/m) @ t=0.14
0.8318334926262052
% es.EY (V/m) @ t=0.14
0.201523296580281
% es.EZ (V/m) @ t=0.14
2.5554130542430498
% es.tEX (V/m) @ t=0.14
0.8318334926262025
% es.tEY (V/m) @ t=0.14
0
% es.tEZ (V/m) @ t=0.14
2.5554130542430595
% es.Ex (V/m) @ t=0.14
0.8318334926262052
% es.Ey (V/m) @ t=0.14
0.201523296580281
% es.Ez (V/m) @ t=0.14
2.5554130542430498
% es.tEx (V/m) @ t=0.14
0.8318334926262025
% es.tEy (V/m) @ t=0.14
0
% es.tEz (V/m) @ t=0.14
2.5554130542430595
% V (V) @ t=0.14
0.012604294902963973
% es.normE (V/m) @ t=0.16
2.7301055670581755
% es.EX (V/m) @ t=0.16
0.842682712570527
% es.EY (V/m) @ t=0.16
0.2041516986512083
% es.EZ (V/m) @ t=0.16
2.5887424570915223
% es.tEX (V/m) @ t=0.16
0.8426827125705216
% es.tEY (V/m) @ t=0.16
0
% es.tEZ (V/m) @ t=0.16
2.588742457091522
% es.Ex (V/m) @ t=0.16
0.842682712570527
% es.Ey (V/m) @ t=0.16
0.2041516986512083
% es.Ez (V/m) @ t=0.16
2.5887424570915223
% es.tEx (V/m) @ t=0.16
0.8426827125705216
% es.tEy (V/m) @ t=0.16
0
% es.tEz (V/m) @ t=0.16
2.588742457091522
% V (V) @ t=0.16
0.012768678714130583
% es.normE (V/m) @ t=0.18
2.765254951117835
% es.EX (V/m) @ t=0.18
0.8535319325148563
% es.EY (V/m) @ t=0.18
0.20678010072208908
% es.EZ (V/m) @ t=0.18
2.6220718599400046
% es.tEX (V/m) @ t=0.18
0.853531932514862
% es.tEY (V/m) @ t=0.18
0
% es.tEZ (V/m) @ t=0.18
2.6220718599400143
% es.Ex (V/m) @ t=0.18
0.8535319325148563
% es.Ey (V/m) @ t=0.18
0.20678010072208908
% es.Ez (V/m) @ t=0.18
2.6220718599400046
% es.tEx (V/m) @ t=0.18
0.853531932514862
% es.tEy (V/m) @ t=0.18
0
% es.tEz (V/m) @ t=0.18
2.6220718599400143
% V (V) @ t=0.18
0.012933062525297195
% es.normE (V/m) @ t=0.2
2.800404335177526
% es.EX (V/m) @ t=0.2
0.8643811524591887
% es.EY (V/m) @ t=0.2
0.2094085027930066
% es.EZ (V/m) @ t=0.2
2.6554012627885113
% es.tEX (V/m) @ t=0.2
0.8643811524591882
% es.tEY (V/m) @ t=0.2
0
% es.tEZ (V/m) @ t=0.2
2.655401262788491
% es.Ex (V/m) @ t=0.2
0.8643811524591887
% es.Ey (V/m) @ t=0.2
0.2094085027930066
% es.Ez (V/m) @ t=0.2
2.6554012627885113
% es.tEx (V/m) @ t=0.2
0.8643811524591882
% es.tEy (V/m) @ t=0.2
0
% es.tEz (V/m) @ t=0.2
2.655401262788491
% V (V) @ t=0.2
0.013097446336463802
% es.normE (V/m) @ t=0.22
2.835553719237181
% es.EX (V/m) @ t=0.22
0.8752303724035135
% es.EY (V/m) @ t=0.22
0.212036904863941
% es.EZ (V/m) @ t=0.22
2.6887306656369754
% es.tEX (V/m) @ t=0.22
0.8752303724035215
% es.tEY (V/m) @ t=0.22
0
% es.tEZ (V/m) @ t=0.22
2.6887306656369816
% es.Ex (V/m) @ t=0.22
0.8752303724035135
% es.Ey (V/m) @ t=0.22
0.212036904863941
% es.Ez (V/m) @ t=0.22
2.6887306656369754
% es.tEx (V/m) @ t=0.22
0.8752303724035215
% es.tEy (V/m) @ t=0.22
0
% es.tEz (V/m) @ t=0.22
2.6887306656369816
% V (V) @ t=0.22
0.013261830147630414
% es.normE (V/m) @ t=0.24
2.870703103296856
% es.EX (V/m) @ t=0.24
0.8860795923478499
% es.EY (V/m) @ t=0.24
0.21466530693484676
% es.EZ (V/m) @ t=0.24
2.7220600684854555
% es.tEX (V/m) @ t=0.24
0.8860795923478548
% es.tEY (V/m) @ t=0.24
0
% es.tEZ (V/m) @ t=0.24
2.7220600684854617
% es.Ex (V/m) @ t=0.24
0.8860795923478499
% es.Ey (V/m) @ t=0.24
0.21466530693484676
% es.Ez (V/m) @ t=0.24
2.7220600684854555
% es.tEx (V/m) @ t=0.24
0.8860795923478548
% es.tEy (V/m) @ t=0.24
0
% es.tEz (V/m) @ t=0.24
2.7220600684854617
% V (V) @ t=0.24
0.013426213958797025
% es.normE (V/m) @ t=0.26
2.907379181795518
% es.EX (V/m) @ t=0.26
0.8973986797652156
% es.EY (V/m) @ t=0.26
0.21740785051338385
% es.EZ (V/m) @ t=0.26
2.7568375643217475
% es.tEX (V/m) @ t=0.26
0.8973986797652174
% es.tEY (V/m) @ t=0.26
0
% es.tEZ (V/m) @ t=0.26
2.7568375643217564
% es.Ex (V/m) @ t=0.26
0.8973986797652156
% es.Ey (V/m) @ t=0.26
0.21740785051338385
% es.Ez (V/m) @ t=0.26
2.7568375643217475
% es.tEx (V/m) @ t=0.26
0.8973986797652174
% es.tEy (V/m) @ t=0.26
0
% es.tEz (V/m) @ t=0.26
2.7568375643217564
% V (V) @ t=0.26
0.013597595067048012
% es.normE (V/m) @ t=0.28
2.9450127671332162
% es.EX (V/m) @ t=0.28
0.9090124570081051
% es.EY (V/m) @ t=0.28
0.22022198096033452
% es.EZ (V/m) @ t=0.28
2.792523270013813
% es.tEX (V/m) @ t=0.28
0.9090124570081031
% es.tEY (V/m) @ t=0.28
0
% es.tEZ (V/m) @ t=0.28
2.7925232700138167
% es.Ex (V/m) @ t=0.28
0.9090124570081051
% es.Ey (V/m) @ t=0.28
0.22022198096033452
% es.Ez (V/m) @ t=0.28
2.792523270013813
% es.tEx (V/m) @ t=0.28
0.9090124570081031
% es.tEy (V/m) @ t=0.28
0
% es.tEz (V/m) @ t=0.28
2.7925232700138167
% V (V) @ t=0.28
0.013773364715419897
% es.normE (V/m) @ t=0.3
2.9826463524735143
% es.EX (V/m) @ t=0.3
0.9206262342509908
% es.EY (V/m) @ t=0.3
0.2230361114073136
% es.EZ (V/m) @ t=0.3
2.828208975705871
% es.tEX (V/m) @ t=0.3
0.920626234251003
% es.tEY (V/m) @ t=0.3
0
% es.tEZ (V/m) @ t=0.3
2.8282089757058877
% es.Ex (V/m) @ t=0.3
0.9206262342509908
% es.Ey (V/m) @ t=0.3
0.2230361114073136
% es.Ez (V/m) @ t=0.3
2.828208975705871
% es.tEx (V/m) @ t=0.3
0.920626234251003
% es.tEy (V/m) @ t=0.3
0
% es.tEz (V/m) @ t=0.3
2.8282089757058877
% V (V) @ t=0.3
0.013949134363791783
% es.normE (V/m) @ t=0.32
3.020279937816346
% es.EX (V/m) @ t=0.32
0.9322400114938838
% es.EY (V/m) @ t=0.32
0.22585024185431757
% es.EZ (V/m) @ t=0.32
2.8638946813979507
% es.tEX (V/m) @ t=0.32
0.9322400114938745
% es.tEY (V/m) @ t=0.32
0
% es.tEZ (V/m) @ t=0.32
2.8638946813979658
% es.Ex (V/m) @ t=0.32
0.9322400114938838
% es.Ey (V/m) @ t=0.32
0.22585024185431757
% es.Ez (V/m) @ t=0.32
2.8638946813979507
% es.tEx (V/m) @ t=0.32
0.9322400114938745
% es.tEy (V/m) @ t=0.32
0
% es.tEz (V/m) @ t=0.32
2.8638946813979658
% V (V) @ t=0.32
0.01412490401216367
% es.normE (V/m) @ t=0.34
3.057913523161579
% es.EX (V/m) @ t=0.34
0.943853788736758
% es.EY (V/m) @ t=0.34
0.2286643723013142
% es.EZ (V/m) @ t=0.34
2.8995803870900216
% es.tEX (V/m) @ t=0.34
0.943853788736746
% es.tEY (V/m) @ t=0.34
0
% es.tEZ (V/m) @ t=0.34
2.8995803870900225
% es.Ex (V/m) @ t=0.34
0.943853788736758
% es.Ey (V/m) @ t=0.34
0.2286643723013142
% es.Ez (V/m) @ t=0.34
2.8995803870900216
% es.tEx (V/m) @ t=0.34
0.943853788736746
% es.tEy (V/m) @ t=0.34
0
% es.tEz (V/m) @ t=0.34
2.8995803870900225
% V (V) @ t=0.34
0.014300673660535555
% es.normE (V/m) @ t=0.36
3.095547108509135
% es.EX (V/m) @ t=0.36
0.9554675659796361
% es.EY (V/m) @ t=0.36
0.23147850274827952
% es.EZ (V/m) @ t=0.36
2.9352660927820873
% es.tEX (V/m) @ t=0.36
0.9554675659796459
% es.tEY (V/m) @ t=0.36
0
% es.tEZ (V/m) @ t=0.36
2.9352660927820793
% es.Ex (V/m) @ t=0.36
0.9554675659796361
% es.Ey (V/m) @ t=0.36
0.23147850274827952
% es.Ez (V/m) @ t=0.36
2.9352660927820873
% es.tEx (V/m) @ t=0.36
0.9554675659796459
% es.tEy (V/m) @ t=0.36
0
% es.tEz (V/m) @ t=0.36
2.9352660927820793
% V (V) @ t=0.36
0.01447644330890744
% es.normE (V/m) @ t=0.38
3.1343451196304954
% es.EX (V/m) @ t=0.38
0.9674423011732192
% es.EY (V/m) @ t=0.38
0.23437973212187524
% es.EZ (V/m) @ t=0.38
2.972055423199275
% es.tEX (V/m) @ t=0.38
0.9674423011732358
% es.tEY (V/m) @ t=0.38
0
% es.tEZ (V/m) @ t=0.38
2.9720554231992935
% es.Ex (V/m) @ t=0.38
0.9674423011732192
% es.Ey (V/m) @ t=0.38
0.23437973212187524
% es.Ez (V/m) @ t=0.38
2.972055423199275
% es.tEx (V/m) @ t=0.38
0.9674423011732358
% es.tEy (V/m) @ t=0.38
0
% es.tEz (V/m) @ t=0.38
2.9720554231992935
% V (V) @ t=0.38
0.0146578205420125
% es.normE (V/m) @ t=0.4
3.1747096973377866
% es.EX (V/m) @ t=0.4
0.9799026531212442
% es.EY (V/m) @ t=0.4
0.2373981405130423
% es.EZ (V/m) @ t=0.4
3.0103295211804495
% es.tEX (V/m) @ t=0.4
0.9799026531212434
% es.tEY (V/m) @ t=0.4
0
% es.tEZ (V/m) @ t=0.4
3.0103295211804593
% es.Ex (V/m) @ t=0.4
0.9799026531212442
% es.Ey (V/m) @ t=0.4
0.2373981405130423
% es.Ez (V/m) @ t=0.4
3.0103295211804495
% es.tEx (V/m) @ t=0.4
0.9799026531212434
% es.tEy (V/m) @ t=0.4
0
% es.tEz (V/m) @ t=0.4
3.0103295211804593
% V (V) @ t=0.4
0.014846741969927933
% es.normE (V/m) @ t=0.42
3.215074275046087
% es.EX (V/m) @ t=0.42
0.9923630050692775
% es.EY (V/m) @ t=0.42
0.2404165489042125
% es.EZ (V/m) @ t=0.42
3.048603619161624
% es.tEX (V/m) @ t=0.42
0.9923630050692793
% es.tEY (V/m) @ t=0.42
0
% es.tEZ (V/m) @ t=0.42
3.0486036191616357
% es.Ex (V/m) @ t=0.42
0.9923630050692775
% es.Ey (V/m) @ t=0.42
0.2404165489042125
% es.Ez (V/m) @ t=0.42
3.048603619161624
% es.tEx (V/m) @ t=0.42
0.9923630050692793
% es.tEy (V/m) @ t=0.42
0
% es.tEz (V/m) @ t=0.42
3.0486036191616357
% V (V) @ t=0.42
0.01503566339784337
% es.normE (V/m) @ t=0.44
3.2554388527553475
% es.EX (V/m) @ t=0.44
1.0048233570173006
% es.EY (V/m) @ t=0.44
0.24343495729539755
% es.EZ (V/m) @ t=0.44
3.0868777171427935
% es.tEX (V/m) @ t=0.44
1.004823357017301
% es.tEY (V/m) @ t=0.44
0
% es.tEZ (V/m) @ t=0.44
3.0868777171428015
% es.Ex (V/m) @ t=0.44
1.0048233570173006
% es.Ey (V/m) @ t=0.44
0.24343495729539755
% es.Ez (V/m) @ t=0.44
3.0868777171427935
% es.tEx (V/m) @ t=0.44
1.004823357017301
% es.tEy (V/m) @ t=0.44
0
% es.tEz (V/m) @ t=0.44
3.0868777171428015
% V (V) @ t=0.44
0.015224584825758804
% es.normE (V/m) @ t=0.46
3.295803430465534
% es.EX (V/m) @ t=0.46
1.0172837089653115
% es.EY (V/m) @ t=0.46
0.2464533656865786
% es.EZ (V/m) @ t=0.46
3.12515181512396
% es.tEX (V/m) @ t=0.46
1.0172837089653086
% es.tEY (V/m) @ t=0.46
0
% es.tEZ (V/m) @ t=0.46
3.1251518151239637
% es.Ex (V/m) @ t=0.46
1.0172837089653115
% es.Ey (V/m) @ t=0.46
0.2464533656865786
% es.Ez (V/m) @ t=0.46
3.12515181512396
% es.tEx (V/m) @ t=0.46
1.0172837089653086
% es.tEy (V/m) @ t=0.46
0
% es.tEz (V/m) @ t=0.46
3.1251518151239637
% V (V) @ t=0.46
0.015413506253674242
% es.normE (V/m) @ t=0.48
3.336168008176621
% es.EX (V/m) @ t=0.48
1.029744060913342
% es.EY (V/m) @ t=0.48
0.24947177407776366
% es.EZ (V/m) @ t=0.48
3.1634259131051214
% es.tEX (V/m) @ t=0.48
1.0297440609133446
% es.tEY (V/m) @ t=0.48
0
% es.tEZ (V/m) @ t=0.48
3.163425913105133
% es.Ex (V/m) @ t=0.48
1.029744060913342
% es.Ey (V/m) @ t=0.48
0.24947177407776366
% es.Ez (V/m) @ t=0.48
3.1634259131051214
% es.tEx (V/m) @ t=0.48
1.0297440609133446
% es.tEy (V/m) @ t=0.48
0
% es.tEz (V/m) @ t=0.48
3.163425913105133
% V (V) @ t=0.48
0.015602427681589677
% es.normE (V/m) @ t=0.5
3.3768111316216425
% es.EX (V/m) @ t=0.5
1.0422903501256793
% es.EY (V/m) @ t=0.5
0.25251101036580925
% es.EZ (V/m) @ t=0.5
3.201964146947411
% es.tEX (V/m) @ t=0.5
1.0422903501256968
% es.tEY (V/m) @ t=0.5
0
% es.tEZ (V/m) @ t=0.5
3.201964146947411
% es.Ex (V/m) @ t=0.5
1.0422903501256793
% es.Ey (V/m) @ t=0.5
0.25251101036580925
% es.Ez (V/m) @ t=0.5
3.201964146947411
% es.tEx (V/m) @ t=0.5
1.0422903501256968
% es.tEy (V/m) @ t=0.5
0
% es.tEz (V/m) @ t=0.5
3.201964146947411
% V (V) @ t=0.5
0.015792647698913698
% es.normE (V/m) @ t=0.52
3.4185704661304452
% es.EX (V/m) @ t=0.52
1.0551810141167197
% es.EY (V/m) @ t=0.52
0.2556337098924555
% es.EZ (V/m) @ t=0.52
3.2415608474446405
% es.tEX (V/m) @ t=0.52
1.0551810141167266
% es.tEY (V/m) @ t=0.52
0
% es.tEZ (V/m) @ t=0.52
3.241560847444646
% es.Ex (V/m) @ t=0.52
1.0551810141167197
% es.Ey (V/m) @ t=0.52
0.2556337098924555
% es.Ez (V/m) @ t=0.52
3.2415608474446405
% es.tEx (V/m) @ t=0.52
1.0551810141167266
% es.tEy (V/m) @ t=0.52
0
% es.tEz (V/m) @ t=0.52
3.241560847444646
% V (V) @ t=0.52
0.01598807152908547
% es.normE (V/m) @ t=0.54
3.4606937501363024
% es.EX (V/m) @ t=0.54
1.068183964243827
% es.EY (V/m) @ t=0.54
0.2587836232719489
% es.EZ (V/m) @ t=0.54
3.2815026694147624
% es.tEX (V/m) @ t=0.54
1.068183964243829
% es.tEY (V/m) @ t=0.54
0
% es.tEZ (V/m) @ t=0.54
3.2815026694147633
% es.Ex (V/m) @ t=0.54
1.068183964243827
% es.Ey (V/m) @ t=0.54
0.2587836232719489
% es.Ez (V/m) @ t=0.54
3.2815026694147624
% es.tEx (V/m) @ t=0.54
1.068183964243829
% es.tEy (V/m) @ t=0.54
0
% es.tEz (V/m) @ t=0.54
3.2815026694147633
% V (V) @ t=0.54
0.016185192103831965
% es.normE (V/m) @ t=0.56
3.5031809836390395
% es.EX (V/m) @ t=0.56
1.0812992005069582
% es.EY (V/m) @ t=0.56
0.2619607505042658
% es.EZ (V/m) @ t=0.56
3.3217896128577067
% es.tEX (V/m) @ t=0.56
1.0812992005069475
% es.tEY (V/m) @ t=0.56
0
% es.tEZ (V/m) @ t=0.56
3.321789612857714
% es.Ex (V/m) @ t=0.56
1.0812992005069582
% es.Ey (V/m) @ t=0.56
0.2619607505042658
% es.Ez (V/m) @ t=0.56
3.3217896128577067
% es.tEx (V/m) @ t=0.56
1.0812992005069475
% es.tEy (V/m) @ t=0.56
0
% es.tEz (V/m) @ t=0.56
3.321789612857714
% V (V) @ t=0.56
0.016384009423153184
% es.normE (V/m) @ t=0.58
3.5460321666386103
% es.EX (V/m) @ t=0.58
1.0945267229061542
% es.EY (V/m) @ t=0.58
0.2651650915894874
% es.EZ (V/m) @ t=0.58
3.3624216777734954
% es.tEX (V/m) @ t=0.58
1.094526722906167
% es.tEY (V/m) @ t=0.58
0
% es.tEZ (V/m) @ t=0.58
3.362421677773497
% es.Ex (V/m) @ t=0.58
1.0945267229061542
% es.Ey (V/m) @ t=0.58
0.2651650915894874
% es.Ez (V/m) @ t=0.58
3.3624216777734954
% es.tEx (V/m) @ t=0.58
1.094526722906167
% es.tEy (V/m) @ t=0.58
0
% es.tEz (V/m) @ t=0.58
3.362421677773497
% V (V) @ t=0.58
0.01658452348704913
% es.normE (V/m) @ t=0.6
3.5892472991349527
% es.EX (V/m) @ t=0.6
1.1078665314414398
% es.EY (V/m) @ t=0.6
0.268396646527554
% es.EZ (V/m) @ t=0.6
3.403398864162143
% es.tEX (V/m) @ t=0.6
1.1078665314414309
% es.tEY (V/m) @ t=0.6
0
% es.tEZ (V/m) @ t=0.6
3.4033988641621384
% es.Ex (V/m) @ t=0.6
1.1078665314414398
% es.Ey (V/m) @ t=0.6
0.268396646527554
% es.Ez (V/m) @ t=0.6
3.403398864162143
% es.tEx (V/m) @ t=0.6
1.1078665314414309
% es.tEy (V/m) @ t=0.6
0
% es.tEz (V/m) @ t=0.6
3.4033988641621384
% V (V) @ t=0.6
0.0167867342955198
% es.normE (V/m) @ t=0.62
3.6328263811279378
% es.EX (V/m) @ t=0.62
1.1213186261127361
% es.EY (V/m) @ t=0.62
0.27165541531844517
% es.EZ (V/m) @ t=0.62
3.444721172023616
% es.tEX (V/m) @ t=0.62
1.1213186261127532
% es.tEY (V/m) @ t=0.62
0
% es.tEZ (V/m) @ t=0.62
3.4447211720236126
% es.Ex (V/m) @ t=0.62
1.1213186261127361
% es.Ey (V/m) @ t=0.62
0.27165541531844517
% es.Ez (V/m) @ t=0.62
3.444721172023616
% es.tEx (V/m) @ t=0.62
1.1213186261127532
% es.tEy (V/m) @ t=0.62
0
% es.tEz (V/m) @ t=0.62
3.4447211720236126
% V (V) @ t=0.62
0.016990641848565198
% es.normE (V/m) @ t=0.64
3.676769412617503
% es.EX (V/m) @ t=0.64
1.134883006920101
% es.EY (V/m) @ t=0.64
0.27494139796225325
% es.EZ (V/m) @ t=0.64
3.486388601357892
% es.tEX (V/m) @ t=0.64
1.1348830069201057
% es.tEY (V/m) @ t=0.64
0
% es.tEZ (V/m) @ t=0.64
3.486388601357902
% es.Ex (V/m) @ t=0.64
1.134883006920101
% es.Ey (V/m) @ t=0.64
0.27494139796225325
% es.Ez (V/m) @ t=0.64
3.486388601357892
% es.tEx (V/m) @ t=0.64
1.1348830069201057
% es.tEy (V/m) @ t=0.64
0
% es.tEz (V/m) @ t=0.64
3.486388601357902
% V (V) @ t=0.64
0.017196246146185316
% es.normE (V/m) @ t=0.66
3.7210763936036733
% es.EX (V/m) @ t=0.66
1.1485596738635382
% es.EY (V/m) @ t=0.66
0.2782545944588579
% es.EZ (V/m) @ t=0.66
3.5284011521650687
% es.tEX (V/m) @ t=0.66
1.148559673863545
% es.tEY (V/m) @ t=0.66
0
% es.tEZ (V/m) @ t=0.66
3.5284011521650704
% es.Ex (V/m) @ t=0.66
1.1485596738635382
% es.Ey (V/m) @ t=0.66
0.2782545944588579
% es.Ez (V/m) @ t=0.66
3.5284011521650687
% es.tEx (V/m) @ t=0.66
1.148559673863545
% es.tEy (V/m) @ t=0.66
0
% es.tEz (V/m) @ t=0.66
3.5284011521650704
% V (V) @ t=0.66
0.017403547188380164
% es.normE (V/m) @ t=0.68
3.7657473240862913
% es.EX (V/m) @ t=0.68
1.1623486269429766
% es.EY (V/m) @ t=0.68
0.28159500480838595
% es.EZ (V/m) @ t=0.68
3.5707588244450488
% es.tEX (V/m) @ t=0.68
1.1623486269429861
% es.tEY (V/m) @ t=0.68
0
% es.tEZ (V/m) @ t=0.68
3.5707588244450648
% es.Ex (V/m) @ t=0.68
1.1623486269429766
% es.Ey (V/m) @ t=0.68
0.28159500480838595
% es.Ez (V/m) @ t=0.68
3.5707588244450488
% es.tEx (V/m) @ t=0.68
1.1623486269429861
% es.tEy (V/m) @ t=0.68
0
% es.tEz (V/m) @ t=0.68
3.5707588244450648
% V (V) @ t=0.68
0.017612544975149736
% es.normE (V/m) @ t=0.7
3.810782204065416
% es.EX (V/m) @ t=0.7
1.1762498661585385
% es.EY (V/m) @ t=0.7
0.28496262901074165
% es.EZ (V/m) @ t=0.7
3.6134616181979133
% es.tEX (V/m) @ t=0.7
1.1762498661585568
% es.tEY (V/m) @ t=0.7
0
% es.tEZ (V/m) @ t=0.7
3.6134616181979347
% es.Ex (V/m) @ t=0.7
1.1762498661585385
% es.Ey (V/m) @ t=0.7
0.28496262901074165
% es.Ez (V/m) @ t=0.7
3.6134616181979133
% es.tEx (V/m) @ t=0.7
1.1762498661585568
% es.tEy (V/m) @ t=0.7
0
% es.tEz (V/m) @ t=0.7
3.6134616181979347
% V (V) @ t=0.7
0.017823239506494032
% es.normE (V/m) @ t=0.72
3.856181033540895
% es.EX (V/m) @ t=0.72
1.1902633915101104
% es.EY (V/m) @ t=0.72
0.2883574670660032
% es.EZ (V/m) @ t=0.72
3.656509533423578
% es.tEX (V/m) @ t=0.72
1.190263391510129
% es.tEY (V/m) @ t=0.72
0
% es.tEZ (V/m) @ t=0.72
3.656509533423595
% es.Ex (V/m) @ t=0.72
1.1902633915101104
% es.Ey (V/m) @ t=0.72
0.2883574670660032
% es.Ez (V/m) @ t=0.72
3.656509533423578
% es.tEx (V/m) @ t=0.72
1.190263391510129
% es.tEy (V/m) @ t=0.72
0
% es.tEz (V/m) @ t=0.72
3.656509533423595
% V (V) @ t=0.72
0.01803563078241305
% es.normE (V/m) @ t=0.74
3.9019438125127532
% es.EX (V/m) @ t=0.74
1.2043892029977243
% es.EY (V/m) @ t=0.74
0.29177951897406595
% es.EZ (V/m) @ t=0.74
3.6999025701221067
% es.tEX (V/m) @ t=0.74
1.2043892029977314
% es.tEY (V/m) @ t=0.74
0
% es.tEZ (V/m) @ t=0.74
3.6999025701221058
% es.Ex (V/m) @ t=0.74
1.2043892029977243
% es.Ey (V/m) @ t=0.74
0.29177951897406595
% es.Ez (V/m) @ t=0.74
3.6999025701221067
% es.tEx (V/m) @ t=0.74
1.2043892029977314
% es.tEy (V/m) @ t=0.74
0
% es.tEz (V/m) @ t=0.74
3.6999025701221058
% V (V) @ t=0.74
0.018249718802906798
% es.normE (V/m) @ t=0.76
3.94866250443828
% es.EX (V/m) @ t=0.76
1.218809872220406
% es.EY (V/m) @ t=0.76
0.2952730514719428
% es.EZ (V/m) @ t=0.76
3.7442020879507405
% es.tEX (V/m) @ t=0.76
1.2188098722204188
% es.tEY (V/m) @ t=0.76
0
% es.tEZ (V/m) @ t=0.76
3.7442020879507467
% es.Ex (V/m) @ t=0.76
1.218809872220406
% es.Ey (V/m) @ t=0.76
0.2952730514719428
% es.Ez (V/m) @ t=0.76
3.7442020879507405
% es.tEx (V/m) @ t=0.76
1.2188098722204188
% es.tEy (V/m) @ t=0.76
0
% es.tEz (V/m) @ t=0.76
3.7442020879507467
% V (V) @ t=0.76
0.018468257142094217
% es.normE (V/m) @ t=0.78
3.9959366658944973
% es.EX (V/m) @ t=0.78
1.2334018956153125
% es.EY (V/m) @ t=0.78
0.29880811959692477
% es.EZ (V/m) @ t=0.78
3.7890283459307934
% es.tEX (V/m) @ t=0.78
1.2334018956153159
% es.tEY (V/m) @ t=0.78
0
% es.tEZ (V/m) @ t=0.78
3.7890283459308094
% es.Ex (V/m) @ t=0.78
1.2334018956153125
% es.Ey (V/m) @ t=0.78
0.29880811959692477
% es.Ez (V/m) @ t=0.78
3.7890283459307934
% es.tEx (V/m) @ t=0.78
1.2334018956153159
% es.tEy (V/m) @ t=0.78
0
% es.tEz (V/m) @ t=0.78
3.7890283459308094
% V (V) @ t=0.78
0.0186893830994458
% es.normE (V/m) @ t=0.8
4.043678549483641
% es.EX (V/m) @ t=0.8
1.2481382103924754
% es.EY (V/m) @ t=0.8
0.3023781616415795
% es.EZ (V/m) @ t=0.8
3.834298133099648
% es.tEX (V/m) @ t=0.8
1.248138210392483
% es.tEY (V/m) @ t=0.8
0
% es.tEZ (V/m) @ t=0.8
3.8342981330996544
% es.Ex (V/m) @ t=0.8
1.2481382103924754
% es.Ey (V/m) @ t=0.8
0.3023781616415795
% es.Ez (V/m) @ t=0.8
3.834298133099648
% es.tEx (V/m) @ t=0.8
1.248138210392483
% es.tEy (V/m) @ t=0.8
0
% es.tEz (V/m) @ t=0.8
3.8342981330996544
% V (V) @ t=0.8
0.01891268850962563
% es.normE (V/m) @ t=0.82
4.091888155205737
% es.EX (V/m) @ t=0.82
1.263018816551967
% es.EY (V/m) @ t=0.82
0.3059831776060329
% es.EZ (V/m) @ t=0.82
3.8800114494573075
% es.tEX (V/m) @ t=0.82
1.2630188165519627
% es.tEY (V/m) @ t=0.82
0
% es.tEZ (V/m) @ t=0.82
3.8800114494573243
% es.Ex (V/m) @ t=0.82
1.263018816551967
% es.Ey (V/m) @ t=0.82
0.3059831776060329
% es.Ez (V/m) @ t=0.82
3.8800114494573075
% es.tEx (V/m) @ t=0.82
1.2630188165519627
% es.tEy (V/m) @ t=0.82
0
% es.tEz (V/m) @ t=0.82
3.8800114494573243
% V (V) @ t=0.82
0.019138173372633713
% es.normE (V/m) @ t=0.84
4.140565483060762
% es.EX (V/m) @ t=0.84
1.2780437140937004
% es.EY (V/m) @ t=0.84
0.30962316749019014
% es.EZ (V/m) @ t=0.84
3.9261682950037864
% es.tEX (V/m) @ t=0.84
1.2780437140936982
% es.tEY (V/m) @ t=0.84
0
% es.tEZ (V/m) @ t=0.84
3.9261682950037944
% es.Ex (V/m) @ t=0.84
1.2780437140937004
% es.Ey (V/m) @ t=0.84
0.30962316749019014
% es.Ez (V/m) @ t=0.84
3.9261682950037864
% es.tEx (V/m) @ t=0.84
1.2780437140936982
% es.tEy (V/m) @ t=0.84
0
% es.tEz (V/m) @ t=0.84
3.9261682950037944
% V (V) @ t=0.84
0.01936583768847004
% es.normE (V/m) @ t=0.86
4.1897105330486895
% es.EX (V/m) @ t=0.86
1.2932129030177524
% es.EY (V/m) @ t=0.86
0.31329813129407325
% es.EZ (V/m) @ t=0.86
3.972768669739028
% es.tEX (V/m) @ t=0.86
1.2932129030177606
% es.tEY (V/m) @ t=0.86
0
% es.tEZ (V/m) @ t=0.86
3.972768669739022
% es.Ex (V/m) @ t=0.86
1.2932129030177524
% es.Ey (V/m) @ t=0.86
0.31329813129407325
% es.Ez (V/m) @ t=0.86
3.972768669739028
% es.tEx (V/m) @ t=0.86
1.2932129030177606
% es.tEy (V/m) @ t=0.86
0
% es.tEz (V/m) @ t=0.86
3.972768669739022
% V (V) @ t=0.86
0.019595681457134626
% es.normE (V/m) @ t=0.88
4.2393233051695836
% es.EX (V/m) @ t=0.88
1.3085263833240763
% es.EY (V/m) @ t=0.88
0.3170080690176271
% es.EZ (V/m) @ t=0.88
4.019812573663106
% es.tEX (V/m) @ t=0.88
1.3085263833240788
% es.tEY (V/m) @ t=0.88
0
% es.tEZ (V/m) @ t=0.88
4.019812573663113
% es.Ex (V/m) @ t=0.88
1.3085263833240763
% es.Ey (V/m) @ t=0.88
0.3170080690176271
% es.Ez (V/m) @ t=0.88
4.019812573663106
% es.tEx (V/m) @ t=0.88
1.3085263833240788
% es.tEy (V/m) @ t=0.88
0
% es.tEz (V/m) @ t=0.88
4.019812573663113
% V (V) @ t=0.88
0.019827704678627454
% es.normE (V/m) @ t=0.9
4.289403799423378
% es.EX (V/m) @ t=0.9
1.3239841550126314
% es.EY (V/m) @ t=0.9
0.320752980660981
% es.EZ (V/m) @ t=0.9
4.06730000677594
% es.tEX (V/m) @ t=0.9
1.3239841550126386
% es.tEY (V/m) @ t=0.9
0
% es.tEZ (V/m) @ t=0.9
4.067300006775962
% es.Ex (V/m) @ t=0.9
1.3239841550126314
% es.Ey (V/m) @ t=0.9
0.320752980660981
% es.Ez (V/m) @ t=0.9
4.06730000677594
% es.tEx (V/m) @ t=0.9
1.3239841550126386
% es.tEy (V/m) @ t=0.9
0
% es.tEz (V/m) @ t=0.9
4.067300006775962
% V (V) @ t=0.9
0.020061907352948535
% es.normE (V/m) @ t=0.92
4.339952015810194
% es.EX (V/m) @ t=0.92
1.3395862180835512
% es.EY (V/m) @ t=0.92
0.3245328662239797
% es.EZ (V/m) @ t=0.92
4.115230969077603
% es.tEX (V/m) @ t=0.92
1.3395862180835536
% es.tEY (V/m) @ t=0.92
0
% es.tEZ (V/m) @ t=0.92
4.115230969077608
% es.Ex (V/m) @ t=0.92
1.3395862180835512
% es.Ey (V/m) @ t=0.92
0.3245328662239797
% es.Ez (V/m) @ t=0.92
4.115230969077603
% es.tEx (V/m) @ t=0.92
1.3395862180835536
% es.tEy (V/m) @ t=0.92
0
% es.tEz (V/m) @ t=0.92
4.115230969077608
% V (V) @ t=0.92
0.02029828948009787
% es.normE (V/m) @ t=0.94
4.390967954329976
% es.EX (V/m) @ t=0.94
1.355332572536686
% es.EY (V/m) @ t=0.94
0.32834772570675486
% es.EZ (V/m) @ t=0.94
4.163605460568047
% es.tEX (V/m) @ t=0.94
1.355332572536696
% es.tEY (V/m) @ t=0.94
0
% es.tEZ (V/m) @ t=0.94
4.163605460568043
% es.Ex (V/m) @ t=0.94
1.355332572536686
% es.Ey (V/m) @ t=0.94
0.32834772570675486
% es.Ez (V/m) @ t=0.94
4.163605460568047
% es.tEx (V/m) @ t=0.94
1.355332572536696
% es.tEy (V/m) @ t=0.94
0
% es.tEz (V/m) @ t=0.94
4.163605460568043
% V (V) @ t=0.94
0.020536851060075453
% es.normE (V/m) @ t=0.96
4.442451614982824
% es.EX (V/m) @ t=0.96
1.371223218372166
% es.EY (V/m) @ t=0.96
0.33219755910921434
% es.EZ (V/m) @ t=0.96
4.21242348124731
% es.tEX (V/m) @ t=0.96
1.3712232183721653
% es.tEY (V/m) @ t=0.96
0
% es.tEZ (V/m) @ t=0.96
4.212423481247345
% es.Ex (V/m) @ t=0.96
1.371223218372166
% es.Ey (V/m) @ t=0.96
0.33219755910921434
% es.Ez (V/m) @ t=0.96
4.21242348124731
% es.tEx (V/m) @ t=0.96
1.3712232183721653
% es.tEy (V/m) @ t=0.96
0
% es.tEz (V/m) @ t=0.96
4.212423481247345
% V (V) @ t=0.96
0.02077759209288128
% es.normE (V/m) @ t=0.98
4.494402997768713
% es.EX (V/m) @ t=0.98
1.3872581555898438
% es.EY (V/m) @ t=0.98
0.3360823664314372
% es.EZ (V/m) @ t=0.98
4.261685031115371
% es.tEX (V/m) @ t=0.98
1.3872581555898478
% es.tEY (V/m) @ t=0.98
0
% es.tEZ (V/m) @ t=0.98
4.261685031115398
% es.Ex (V/m) @ t=0.98
1.3872581555898438
% es.Ey (V/m) @ t=0.98
0.3360823664314372
% es.Ez (V/m) @ t=0.98
4.261685031115371
% es.tEx (V/m) @ t=0.98
1.3872581555898478
% es.tEy (V/m) @ t=0.98
0
% es.tEz (V/m) @ t=0.98
4.261685031115398
% V (V) @ t=0.98
0.021020512578515362
% es.normE (V/m) @ t=1
4.547000745532348
% es.EX (V/m) @ t=1
1.4034927344571837
% es.EY (V/m) @ t=1
0.34001551157166876
% es.EZ (V/m) @ t=1
4.311559433791116
% es.tEX (V/m) @ t=1
1.4034927344571884
% es.tEY (V/m) @ t=1
0
% es.tEZ (V/m) @ t=1
4.311559433791103
% es.Ex (V/m) @ t=1
1.4034927344571837
% es.Ey (V/m) @ t=1
0.34001551157166876
% es.Ez (V/m) @ t=1
4.311559433791116
% es.tEx (V/m) @ t=1
1.4034927344571884
% es.tEy (V/m) @ t=1
0
% es.tEz (V/m) @ t=1
4.311559433791103
% V (V) @ t=1
0.021266470109972558
% es.normE (V/m) @ t=1.02
4.600298075745112
% es.EX (V/m) @ t=1.02
1.4199434437469636
% es.EY (V/m) @ t=1.02
0.3440009756178619
% es.EZ (V/m) @ t=1.02
4.3620971305607394
% es.tEX (V/m) @ t=1.02
1.4199434437469591
% es.tEY (V/m) @ t=1.02
0
% es.tEZ (V/m) @ t=1.02
4.362097130560745
% es.Ex (V/m) @ t=1.02
1.4199434437469636
% es.Ey (V/m) @ t=1.02
0.3440009756178619
% es.Ez (V/m) @ t=1.02
4.3620971305607394
% es.tEx (V/m) @ t=1.02
1.4199434437469591
% es.tEy (V/m) @ t=1.02
0
% es.tEz (V/m) @ t=1.02
4.362097130560745
% V (V) @ t=1.02
0.0215157201630927
% es.normE (V/m) @ t=1.04
4.654120352025023
% es.EX (V/m) @ t=1.04
1.4365561745444513
% es.EY (V/m) @ t=1.04
0.34802569438678543
% es.EZ (V/m) @ t=1.04
4.4131325952637255
% es.tEX (V/m) @ t=1.04
1.4365561745444637
% es.tEY (V/m) @ t=1.04
0
% es.tEZ (V/m) @ t=1.04
4.413132595263733
% es.Ex (V/m) @ t=1.04
1.4365561745444513
% es.Ey (V/m) @ t=1.04
0.34802569438678543
% es.Ez (V/m) @ t=1.04
4.4131325952637255
% es.tEx (V/m) @ t=1.04
1.4365561745444637
% es.tEy (V/m) @ t=1.04
0
% es.tEz (V/m) @ t=1.04
4.413132595263733
% V (V) @ t=1.04
0.021767424378308826