% Model:              1 neuron.mph
% Version:            COMSOL 6.0.0.405
% Date:               Mar 16 2023, 20:18
% Dimension:          0
% Nodes:              14017
% Expressions:        14017
% Description:        Electric field norm, Electric field, X component, Electric field, Y component, Electric field, Z component, Tangential electric field, X component, Tangential electric field, Y component, Tangential electric field, Z component, Electric field, x component, Electric field, y component, Electric field, z component, Tangential electric field, x component, Tangential electric field, y component, Tangential electric field, z component, Electric potential
% Length unit:        mm
% x
1.33
% y
12.2
% z
1
% es.normE (V/m) @ t=0
2.907905391163605
% es.EX (V/m) @ t=0
0.8975632637500641
% es.EY (V/m) @ t=0
0.21744718335988322
% es.EZ (V/m) @ t=0
2.757335817414792
% es.tEX (V/m) @ t=0
0.8975632637500652
% es.tEY (V/m) @ t=0
0
% es.tEZ (V/m) @ t=0
2.757335817414795
% es.Ex (V/m) @ t=0
0.8975632637500641
% es.Ey (V/m) @ t=0
0.21744718335988322
% es.Ez (V/m) @ t=0
2.757335817414792
% es.tEx (V/m) @ t=0
0.8975632637500652
% es.tEy (V/m) @ t=0
0
% es.tEz (V/m) @ t=0
2.757335817414795
% V (V) @ t=0
0.013600346201175988
% es.normE (V/m) @ t=0.02
2.52000487053919
% es.EX (V/m) @ t=0.02
0.77783266473652
% es.EY (V/m) @ t=0.02
0.18844078455830582
% es.EZ (V/m) @ t=0.02
2.389520549343702
% es.tEX (V/m) @ t=0.02
0.777832664736529
% es.tEY (V/m) @ t=0.02
0
% es.tEZ (V/m) @ t=0.02
2.389520549343704
% es.Ex (V/m) @ t=0.02
0.77783266473652
% es.Ey (V/m) @ t=0.02
0.18844078455830582
% es.Ez (V/m) @ t=0.02
2.389520549343702
% es.tEx (V/m) @ t=0.02
0.777832664736529
% es.tEy (V/m) @ t=0.02
0
% es.tEz (V/m) @ t=0.02
2.389520549343704
% V (V) @ t=0.02
0.011786125951312223
% es.normE (V/m) @ t=0.04
2.5517617343100056
% es.EX (V/m) @ t=0.04
0.787634838174295
% es.EY (V/m) @ t=0.04
0.19081550547316128
% es.EZ (V/m) @ t=0.04
2.4196330615622577
% es.tEX (V/m) @ t=0.04
0.7876348381742986
% es.tEY (V/m) @ t=0.04
0
% es.tEZ (V/m) @ t=0.04
2.4196330615622603
% es.Ex (V/m) @ t=0.04
0.787634838174295
% es.Ey (V/m) @ t=0.04
0.19081550547316128
% es.Ez (V/m) @ t=0.04
2.4196330615622577
% es.tEx (V/m) @ t=0.04
0.7876348381742986
% es.tEy (V/m) @ t=0.04
0
% es.tEz (V/m) @ t=0.04
2.4196330615622603
% V (V) @ t=0.04
0.011934654031456592
% es.normE (V/m) @ t=0.06
2.5838151848444193
% es.EX (V/m) @ t=0.06
0.7975285589862277
% es.EY (V/m) @ t=0.06
0.1932123996955979
% es.EZ (V/m) @ t=0.06
2.450026803183067
% es.tEX (V/m) @ t=0.06
0.7975285589862295
% es.tEY (V/m) @ t=0.06
0
% es.tEZ (V/m) @ t=0.06
2.4500268031830714
% es.Ex (V/m) @ t=0.06
0.7975285589862277
% es.Ey (V/m) @ t=0.06
0.1932123996955979
% es.Ez (V/m) @ t=0.06
2.450026803183067
% es.tEx (V/m) @ t=0.06
0.7975285589862295
% es.tEy (V/m) @ t=0.06
0
% es.tEz (V/m) @ t=0.06
2.4500268031830714
% V (V) @ t=0.06
0.012084568924626029
% es.normE (V/m) @ t=0.08
2.6168716032624877
% es.EX (V/m) @ t=0.08
0.8077318666504438
% es.EY (V/m) @ t=0.08
0.19568427678036027
% es.EZ (V/m) @ t=0.08
2.4813715784124897
% es.tEX (V/m) @ t=0.08
0.8077318666504496
% es.tEY (V/m) @ t=0.08
0
% es.tEZ (V/m) @ t=0.08
2.481371578412503
% es.Ex (V/m) @ t=0.08
0.8077318666504438
% es.Ey (V/m) @ t=0.08
0.19568427678036027
% es.Ez (V/m) @ t=0.08
2.4813715784124897
% es.tEx (V/m) @ t=0.08
0.8077318666504496
% es.tEy (V/m) @ t=0.08
0
% es.tEz (V/m) @ t=0.08
2.481371578412503
% V (V) @ t=0.08
0.012239173550440893
% es.normE (V/m) @ t=0.1
2.65003544509563
% es.EX (V/m) @ t=0.1
0.8179683327811194
% es.EY (V/m) @ t=0.1
0.19816418494493937
% es.EZ (V/m) @ t=0.1
2.5128182146085036
% es.tEX (V/m) @ t=0.1
0.8179683327811205
% es.tEY (V/m) @ t=0.1
0
% es.tEZ (V/m) @ t=0.1
2.512818214608508
% es.Ex (V/m) @ t=0.1
0.8179683327811194
% es.Ey (V/m) @ t=0.1
0.19816418494493937
% es.Ez (V/m) @ t=0.1
2.5128182146085036
% es.tEx (V/m) @ t=0.1
0.8179683327811205
% es.tEy (V/m) @ t=0.1
0
% es.tEz (V/m) @ t=0.1
2.512818214608508
% V (V) @ t=0.1
0.01239428047259528
% es.normE (V/m) @ t=0.12
2.6831992869287697
% es.EX (V/m) @ t=0.12
0.8282047989117993
% es.EY (V/m) @ t=0.12
0.20064409310956455
% es.EZ (V/m) @ t=0.12
2.5442648508045096
% es.tEX (V/m) @ t=0.12
0.8282047989118126
% es.tEY (V/m) @ t=0.12
0
% es.tEZ (V/m) @ t=0.12
2.544264850804531
% es.Ex (V/m) @ t=0.12
0.8282047989117993
% es.Ey (V/m) @ t=0.12
0.20064409310956455
% es.Ez (V/m) @ t=0.12
2.5442648508045096
% es.tEx (V/m) @ t=0.12
0.8282047989118126
% es.tEy (V/m) @ t=0.12
0
% es.tEz (V/m) @ t=0.12
2.544264850804531
% V (V) @ t=0.12
0.012549387394749662
% es.normE (V/m) @ t=0.14
2.7183026976822826
% es.EX (V/m) @ t=0.14
0.8390399306239418
% es.EY (V/m) @ t=0.14
0.2032690573866489
% es.EZ (V/m) @ t=0.14
2.577550627358928
% es.tEX (V/m) @ t=0.14
0.8390399306239402
% es.tEY (V/m) @ t=0.14
0
% es.tEZ (V/m) @ t=0.14
2.5775506273589546
% es.Ex (V/m) @ t=0.14
0.8390399306239418
% es.Ey (V/m) @ t=0.14
0.2032690573866489
% es.Ez (V/m) @ t=0.14
2.577550627358928
% es.tEx (V/m) @ t=0.14
0.8390399306239402
% es.tEy (V/m) @ t=0.14
0
% es.tEz (V/m) @ t=0.14
2.5775506273589546
% V (V) @ t=0.14
0.012713567026758188
% es.normE (V/m) @ t=0.16
2.7538447489656823
% es.EX (V/m) @ t=0.16
0.8500104527236676
% es.EY (V/m) @ t=0.16
0.2059268266285017
% es.EZ (V/m) @ t=0.16
2.6112523321605314
% es.tEX (V/m) @ t=0.16
0.85001045272368
% es.tEY (V/m) @ t=0.16
0
% es.tEZ (V/m) @ t=0.16
2.611252332160543
% es.Ex (V/m) @ t=0.16
0.8500104527236676
% es.Ey (V/m) @ t=0.16
0.2059268266285017
% es.Ez (V/m) @ t=0.16
2.6112523321605314
% es.tEx (V/m) @ t=0.16
0.85001045272368
% es.tEy (V/m) @ t=0.16
0
% es.tEz (V/m) @ t=0.16
2.611252332160543
% V (V) @ t=0.16
0.012879798484930701
% es.normE (V/m) @ t=0.18
2.7893868002490585
% es.EX (V/m) @ t=0.18
0.8609809748233854
% es.EY (V/m) @ t=0.18
0.2085845958703476
% es.EZ (V/m) @ t=0.18
2.6449540369621136
% es.tEX (V/m) @ t=0.18
0.8609809748233914
% es.tEY (V/m) @ t=0.18
0
% es.tEZ (V/m) @ t=0.18
2.6449540369621154
% es.Ex (V/m) @ t=0.18
0.8609809748233854
% es.Ey (V/m) @ t=0.18
0.2085845958703476
% es.Ez (V/m) @ t=0.18
2.6449540369621136
% es.tEx (V/m) @ t=0.18
0.8609809748233914
% es.tEy (V/m) @ t=0.18
0
% es.tEz (V/m) @ t=0.18
2.6449540369621154
% V (V) @ t=0.18
0.013046029943103216
% es.normE (V/m) @ t=0.2
2.824928851532436
% es.EX (V/m) @ t=0.2
0.8719514969231053
% es.EY (V/m) @ t=0.2
0.2112423651121762
% es.EZ (V/m) @ t=0.2
2.6786557417636976
% es.tEX (V/m) @ t=0.2
0.8719514969231099
% es.tEY (V/m) @ t=0.2
0
% es.tEZ (V/m) @ t=0.2
2.678655741763702
% es.Ex (V/m) @ t=0.2
0.8719514969231053
% es.Ey (V/m) @ t=0.2
0.2112423651121762
% es.Ez (V/m) @ t=0.2
2.6786557417636976
% es.tEx (V/m) @ t=0.2
0.8719514969231099
% es.tEy (V/m) @ t=0.2
0
% es.tEz (V/m) @ t=0.2
2.678655741763702
% V (V) @ t=0.2
0.013212261401275729
% es.normE (V/m) @ t=0.22
2.8604709028158117
% es.EX (V/m) @ t=0.22
0.8829220190228289
% es.EY (V/m) @ t=0.22
0.2139001343539937
% es.EZ (V/m) @ t=0.22
2.7123574465652798
% es.tEX (V/m) @ t=0.22
0.8829220190228284
% es.tEY (V/m) @ t=0.22
0
% es.tEZ (V/m) @ t=0.22
2.7123574465652887
% es.Ex (V/m) @ t=0.22
0.8829220190228289
% es.Ey (V/m) @ t=0.22
0.2139001343539937
% es.Ez (V/m) @ t=0.22
2.7123574465652798
% es.tEx (V/m) @ t=0.22
0.8829220190228284
% es.tEy (V/m) @ t=0.22
0
% es.tEz (V/m) @ t=0.22
2.7123574465652887
% V (V) @ t=0.22
0.013378492859448244
% es.normE (V/m) @ t=0.24
2.8960129540991932
% es.EX (V/m) @ t=0.24
0.893892541122536
% es.EY (V/m) @ t=0.24
0.21655790359584315
% es.EZ (V/m) @ t=0.24
2.74605915136687
% es.tEX (V/m) @ t=0.24
0.8938925411225469
% es.tEY (V/m) @ t=0.24
0
% es.tEZ (V/m) @ t=0.24
2.7460591513668753
% es.Ex (V/m) @ t=0.24
0.893892541122536
% es.Ey (V/m) @ t=0.24
0.21655790359584315
% es.Ez (V/m) @ t=0.24
2.74605915136687
% es.tEx (V/m) @ t=0.24
0.8938925411225469
% es.tEy (V/m) @ t=0.24
0
% es.tEz (V/m) @ t=0.24
2.7460591513668753
% V (V) @ t=0.24
0.013544724317620757
% es.normE (V/m) @ t=0.26
2.9331825557301485
% es.EX (V/m) @ t=0.26
0.9053654289102824
% es.EY (V/m) @ t=0.26
0.21933737626602579
% es.EZ (V/m) @ t=0.26
2.7813041327769845
% es.tEX (V/m) @ t=0.26
0.9053654289102724
% es.tEY (V/m) @ t=0.26
0
% es.tEZ (V/m) @ t=0.26
2.7813041327769596
% es.Ex (V/m) @ t=0.26
0.9053654289102824
% es.Ey (V/m) @ t=0.26
0.21933737626602579
% es.Ez (V/m) @ t=0.26
2.7813041327769845
% es.tEx (V/m) @ t=0.26
0.9053654289102724
% es.tEy (V/m) @ t=0.26
0
% es.tEz (V/m) @ t=0.26
2.7813041327769596
% V (V) @ t=0.26
0.013718567760155871
% es.normE (V/m) @ t=0.28
2.9712670069942977
% es.EX (V/m) @ t=0.28
0.9171206975571666
% es.EY (V/m) @ t=0.28
0.22218525870117722
% es.EZ (V/m) @ t=0.28
2.8174165933660564
% es.tEX (V/m) @ t=0.28
0.9171206975571664
% es.tEY (V/m) @ t=0.28
0
% es.tEZ (V/m) @ t=0.28
2.8174165933660724
% es.Ex (V/m) @ t=0.28
0.9171206975571666
% es.Ey (V/m) @ t=0.28
0.22218525870117722
% es.Ez (V/m) @ t=0.28
2.8174165933660564
% es.tEx (V/m) @ t=0.28
0.9171206975571664
% es.tEy (V/m) @ t=0.28
0
% es.tEz (V/m) @ t=0.28
2.8174165933660724
% V (V) @ t=0.28
0.013896689915857928
% es.normE (V/m) @ t=0.3
3.009351458258469
% es.EX (V/m) @ t=0.3
0.9288759662040529
% es.EY (V/m) @ t=0.3
0.22503314113634354
% es.EZ (V/m) @ t=0.3
2.8535290539551497
% es.tEX (V/m) @ t=0.3
0.9288759662040604
% es.tEY (V/m) @ t=0.3
0
% es.tEZ (V/m) @ t=0.3
2.8535290539551568
% es.Ex (V/m) @ t=0.3
0.9288759662040529
% es.Ey (V/m) @ t=0.3
0.22503314113634354
% es.Ez (V/m) @ t=0.3
2.8535290539551497
% es.tEx (V/m) @ t=0.3
0.9288759662040604
% es.tEy (V/m) @ t=0.3
0
% es.tEz (V/m) @ t=0.3
2.8535290539551568
% V (V) @ t=0.3
0.014074812071559983
% es.normE (V/m) @ t=0.32
3.0474359095226484
% es.EX (V/m) @ t=0.32
0.9406312348509487
% es.EY (V/m) @ t=0.32
0.22788102357148432
% es.EZ (V/m) @ t=0.32
2.88964151454425
% es.tEX (V/m) @ t=0.32
0.9406312348509545
% es.tEY (V/m) @ t=0.32
0
% es.tEZ (V/m) @ t=0.32
2.889641514544259
% es.Ex (V/m) @ t=0.32
0.9406312348509487
% es.Ey (V/m) @ t=0.32
0.22788102357148432
% es.Ez (V/m) @ t=0.32
2.88964151454425
% es.tEx (V/m) @ t=0.32
0.9406312348509545
% es.tEy (V/m) @ t=0.32
0
% es.tEz (V/m) @ t=0.32
2.889641514544259
% V (V) @ t=0.32
0.014252934227262041
% es.normE (V/m) @ t=0.34
3.0855203607867923
% es.EX (V/m) @ t=0.34
0.9523865034978356
% es.EY (V/m) @ t=0.34
0.23072890600665064
% es.EZ (V/m) @ t=0.34
2.925753975133314
% es.tEX (V/m) @ t=0.34
0.9523865034978343
% es.tEY (V/m) @ t=0.34
0
% es.tEZ (V/m) @ t=0.34
2.925753975133315
% es.Ex (V/m) @ t=0.34
0.9523865034978356
% es.Ey (V/m) @ t=0.34
0.23072890600665064
% es.Ez (V/m) @ t=0.34
2.925753975133314
% es.tEx (V/m) @ t=0.34
0.9523865034978343
% es.tEy (V/m) @ t=0.34
0
% es.tEz (V/m) @ t=0.34
2.925753975133315
% V (V) @ t=0.34
0.014431056382964097
% es.normE (V/m) @ t=0.36
3.1236048120509614
% es.EX (V/m) @ t=0.36
0.9641417721447081
% es.EY (V/m) @ t=0.36
0.23357678844183094
% es.EZ (V/m) @ t=0.36
2.961866435722408
% es.tEX (V/m) @ t=0.36
0.9641417721446999
% es.tEY (V/m) @ t=0.36
0
% es.tEZ (V/m) @ t=0.36
2.961866435722399
% es.Ex (V/m) @ t=0.36
0.9641417721447081
% es.Ey (V/m) @ t=0.36
0.23357678844183094
% es.Ez (V/m) @ t=0.36
2.961866435722408
% es.tEx (V/m) @ t=0.36
0.9641417721446999
% es.tEy (V/m) @ t=0.36
0
% es.tEz (V/m) @ t=0.36
2.961866435722399
% V (V) @ t=0.36
0.014609178538666154
% es.normE (V/m) @ t=0.38
3.1629496449652645
% es.EX (V/m) @ t=0.38
0.9762860733200232
% es.EY (V/m) @ t=0.38
0.23651892204915126
% es.EZ (V/m) @ t=0.38
2.999174016262403
% es.tEX (V/m) @ t=0.38
0.9762860733200256
% es.tEY (V/m) @ t=0.38
0
% es.tEZ (V/m) @ t=0.38
2.999174016262419
% es.Ex (V/m) @ t=0.38
0.9762860733200232
% es.Ey (V/m) @ t=0.38
0.23651892204915126
% es.Ez (V/m) @ t=0.38
2.999174016262403
% es.tEx (V/m) @ t=0.38
0.9762860733200256
% es.tEy (V/m) @ t=0.38
0
% es.tEz (V/m) @ t=0.38
2.999174016262419
% V (V) @ t=0.38
0.01479319568829774
% es.normE (V/m) @ t=0.4
3.2037459505360113
% es.EX (V/m) @ t=0.4
0.9888783896480293
% es.EY (V/m) @ t=0.4
0.2395695965886595
% es.EZ (V/m) @ t=0.4
3.0378579131981027
% es.tEX (V/m) @ t=0.4
0.9888783896480362
% es.tEY (V/m) @ t=0.4
0
% es.tEZ (V/m) @ t=0.4
3.0378579131981063
% es.Ex (V/m) @ t=0.4
0.9888783896480293
% es.Ey (V/m) @ t=0.4
0.2395695965886595
% es.Ez (V/m) @ t=0.4
3.0378579131981027
% es.tEx (V/m) @ t=0.4
0.9888783896480362
% es.tEy (V/m) @ t=0.4
0
% es.tEz (V/m) @ t=0.4
3.0378579131981063
% V (V) @ t=0.4
0.014984001593143156
% es.normE (V/m) @ t=0.42
3.2445422561068025
% es.EX (V/m) @ t=0.42
1.00147070597605
% es.EY (V/m) @ t=0.42
0.24262027112814977
% es.EZ (V/m) @ t=0.42
3.076541810133845
% es.tEX (V/m) @ t=0.42
1.001470705976061
% es.tEY (V/m) @ t=0.42
0
% es.tEZ (V/m) @ t=0.42
3.076541810133854
% es.Ex (V/m) @ t=0.42
1.00147070597605
% es.Ey (V/m) @ t=0.42
0.24262027112814977
% es.Ez (V/m) @ t=0.42
3.076541810133845
% es.tEx (V/m) @ t=0.42
1.001470705976061
% es.tEy (V/m) @ t=0.42
0
% es.tEz (V/m) @ t=0.42
3.076541810133854
% V (V) @ t=0.42
0.015174807497988569
% es.normE (V/m) @ t=0.44
3.285338561677552
% es.EX (V/m) @ t=0.44
1.0140630223040743
% es.EY (V/m) @ t=0.44
0.2456709456676638
% es.EZ (V/m) @ t=0.44
3.1152257070695404
% es.tEX (V/m) @ t=0.44
1.0140630223040858
% es.tEY (V/m) @ t=0.44
0
% es.tEZ (V/m) @ t=0.44
3.1152257070695555
% es.Ex (V/m) @ t=0.44
1.0140630223040743
% es.Ey (V/m) @ t=0.44
0.2456709456676638
% es.Ez (V/m) @ t=0.44
3.1152257070695404
% es.tEx (V/m) @ t=0.44
1.0140630223040858
% es.tEy (V/m) @ t=0.44
0
% es.tEz (V/m) @ t=0.44
3.1152257070695555
% V (V) @ t=0.44
0.015365613402833983
% es.normE (V/m) @ t=0.46
3.3261348672483217
% es.EX (V/m) @ t=0.46
1.0266553386320982
% es.EY (V/m) @ t=0.46
0.2487216202072038
% es.EZ (V/m) @ t=0.46
3.153909604005255
% es.tEX (V/m) @ t=0.46
1.0266553386320965
% es.tEY (V/m) @ t=0.46
0
% es.tEZ (V/m) @ t=0.46
3.1539096040052748
% es.Ex (V/m) @ t=0.46
1.0266553386320982
% es.Ey (V/m) @ t=0.46
0.2487216202072038
% es.Ez (V/m) @ t=0.46
3.153909604005255
% es.tEx (V/m) @ t=0.46
1.0266553386320965
% es.tEy (V/m) @ t=0.46
0
% es.tEz (V/m) @ t=0.46
3.1539096040052748
% V (V) @ t=0.46
0.0155564193076794
% es.normE (V/m) @ t=0.48
3.3669311728190836
% es.EX (V/m) @ t=0.48
1.0392476549601213
% es.EY (V/m) @ t=0.48
0.25177229474673246
% es.EZ (V/m) @ t=0.48
3.192593500940963
% es.tEX (V/m) @ t=0.48
1.0392476549601355
% es.tEY (V/m) @ t=0.48
0
% es.tEZ (V/m) @ t=0.48
3.1925935009409763
% es.Ex (V/m) @ t=0.48
1.0392476549601213
% es.Ey (V/m) @ t=0.48
0.25177229474673246
% es.Ez (V/m) @ t=0.48
3.192593500940963
% es.tEx (V/m) @ t=0.48
1.0392476549601355
% es.tEy (V/m) @ t=0.48
0
% es.tEz (V/m) @ t=0.48
3.1925935009409763
% V (V) @ t=0.48
0.01574722521252481
% es.normE (V/m) @ t=0.5
3.4080730101254337
% es.EX (V/m) @ t=0.5
1.0519466251700684
% es.EY (V/m) @ t=0.5
0.2548488054112432
% es.EZ (V/m) @ t=0.5
3.2316050380264425
% es.tEX (V/m) @ t=0.5
1.0519466251700749
% es.tEY (V/m) @ t=0.5
0
% es.tEZ (V/m) @ t=0.5
3.2316050380264407
% es.Ex (V/m) @ t=0.5
1.0519466251700684
% es.Ey (V/m) @ t=0.5
0.2548488054112432
% es.Ez (V/m) @ t=0.5
3.2316050380264425
% es.tEx (V/m) @ t=0.5
1.0519466251700749
% es.tEy (V/m) @ t=0.5
0
% es.tEz (V/m) @ t=0.5
3.2316050380264407
% V (V) @ t=0.5
0.01593964703687004
% es.normE (V/m) @ t=0.52
3.450301543857875
% es.EX (V/m) @ t=0.52
1.0649810215663384
% es.EY (V/m) @ t=0.52
0.25800657062319265
% es.EZ (V/m) @ t=0.52
3.2716470025462767
% es.tEX (V/m) @ t=0.52
1.0649810215663393
% es.tEY (V/m) @ t=0.52
0
% es.tEZ (V/m) @ t=0.52
3.2716470025462705
% es.Ex (V/m) @ t=0.52
1.0649810215663384
% es.Ey (V/m) @ t=0.52
0.25800657062319265
% es.Ez (V/m) @ t=0.52
3.2716470025462767
% es.tEx (V/m) @ t=0.52
1.0649810215663393
% es.tEy (V/m) @ t=0.52
0
% es.tEz (V/m) @ t=0.52
3.2716470025462705
% V (V) @ t=0.52
0.016137150923915836
% es.normE (V/m) @ t=0.54
3.4928994875493298
% es.EX (V/m) @ t=0.54
1.0781294422391132
% es.EY (V/m) @ t=0.54
0.26119195738450895
% es.EZ (V/m) @ t=0.54
3.3120392490281656
% es.tEX (V/m) @ t=0.54
1.078129442239117
% es.tEY (V/m) @ t=0.54
0
% es.tEZ (V/m) @ t=0.54
3.3120392490281745
% es.Ex (V/m) @ t=0.54
1.0781294422391132
% es.Ey (V/m) @ t=0.54
0.26119195738450895
% es.Ez (V/m) @ t=0.54
3.3120392490281656
% es.tEx (V/m) @ t=0.54
1.078129442239117
% es.tEy (V/m) @ t=0.54
0
% es.tEz (V/m) @ t=0.54
3.3120392490281745
% V (V) @ t=0.54
0.016336382399761134
% es.normE (V/m) @ t=0.56
3.535866841199873
% es.EX (V/m) @ t=0.56
1.0913918871883794
% es.EY (V/m) @ t=0.56
0.26440496569526006
% es.EZ (V/m) @ t=0.56
3.3527817774721855
% es.tEX (V/m) @ t=0.56
1.0913918871883794
% es.tEY (V/m) @ t=0.56
0
% es.tEZ (V/m) @ t=0.56
3.3527817774721953
% es.Ex (V/m) @ t=0.56
1.0913918871883794
% es.Ey (V/m) @ t=0.56
0.26440496569526006
% es.Ez (V/m) @ t=0.56
3.3527817774721855
% es.tEx (V/m) @ t=0.56
1.0913918871883794
% es.tEy (V/m) @ t=0.56
0
% es.tEz (V/m) @ t=0.56
3.3527817774721953
% V (V) @ t=0.56
0.01653734146440593
% es.normE (V/m) @ t=0.58
3.579203604809472
% es.EX (V/m) @ t=0.58
1.1047683564141422
% es.EY (V/m) @ t=0.58
0.26764559555538203
% es.EZ (V/m) @ t=0.58
3.393874587878307
% es.tEX (V/m) @ t=0.58
1.1047683564141408
% es.tEY (V/m) @ t=0.58
0
% es.tEZ (V/m) @ t=0.58
3.393874587878315
% es.Ex (V/m) @ t=0.58
1.1047683564141422
% es.Ey (V/m) @ t=0.58
0.26764559555538203
% es.Ez (V/m) @ t=0.58
3.393874587878307
% es.tEx (V/m) @ t=0.58
1.1047683564141408
% es.tEy (V/m) @ t=0.58
0
% es.tEz (V/m) @ t=0.58
3.393874587878315
% V (V) @ t=0.58
0.016740028117850227
% es.normE (V/m) @ t=0.6
3.6229097783780784
% es.EX (V/m) @ t=0.6
1.1182588499163728
% es.EY (V/m) @ t=0.6
0.2709138469648984
% es.EZ (V/m) @ t=0.6
3.4353176802464853
% es.tEX (V/m) @ t=0.6
1.1182588499163728
% es.tEY (V/m) @ t=0.6
0
% es.tEZ (V/m) @ t=0.6
3.435317680246481
% es.Ex (V/m) @ t=0.6
1.1182588499163728
% es.Ey (V/m) @ t=0.6
0.2709138469648984
% es.Ez (V/m) @ t=0.6
3.4353176802464853
% es.tEx (V/m) @ t=0.6
1.1182588499163728
% es.tEy (V/m) @ t=0.6
0
% es.tEz (V/m) @ t=0.6
3.435317680246481
% V (V) @ t=0.6
0.01694444236009402
% es.normE (V/m) @ t=0.62
3.666985361905785
% es.EX (V/m) @ t=0.62
1.1318633676951528
% es.EY (V/m) @ t=0.62
0.27420971992381027
% es.EZ (V/m) @ t=0.62
3.4771110545767927
% es.tEX (V/m) @ t=0.62
1.1318633676951464
% es.tEY (V/m) @ t=0.62
0
% es.tEZ (V/m) @ t=0.62
3.477111054576824
% es.Ex (V/m) @ t=0.62
1.1318633676951528
% es.Ey (V/m) @ t=0.62
0.27420971992381027
% es.Ez (V/m) @ t=0.62
3.4771110545767927
% es.tEx (V/m) @ t=0.62
1.1318633676951464
% es.tEy (V/m) @ t=0.62
0
% es.tEz (V/m) @ t=0.62
3.477111054576824
% V (V) @ t=0.62
0.017150584191137318
% es.normE (V/m) @ t=0.64
3.711430355392557
% es.EX (V/m) @ t=0.64
1.145581909750372
% es.EY (V/m) @ t=0.64
0.27753321443213985
% es.EZ (V/m) @ t=0.64
3.519254710869226
% es.tEX (V/m) @ t=0.64
1.1455819097503763
% es.tEY (V/m) @ t=0.64
0
% es.tEZ (V/m) @ t=0.64
3.5192547108692125
% es.Ex (V/m) @ t=0.64
1.145581909750372
% es.Ey (V/m) @ t=0.64
0.27753321443213985
% es.Ez (V/m) @ t=0.64
3.519254710869226
% es.tEx (V/m) @ t=0.64
1.1455819097503763
% es.tEy (V/m) @ t=0.64
0
% es.tEz (V/m) @ t=0.64
3.5192547108692125
% V (V) @ t=0.64
0.017358453610980117
% es.normE (V/m) @ t=0.66
3.756244758838357
% es.EX (V/m) @ t=0.66
1.159414476082134
% es.EY (V/m) @ t=0.66
0.28088433048986317
% es.EZ (V/m) @ t=0.66
3.5617486491237127
% es.tEX (V/m) @ t=0.66
1.1594144760821479
% es.tEY (V/m) @ t=0.66
0
% es.tEZ (V/m) @ t=0.66
3.5617486491237287
% es.Ex (V/m) @ t=0.66
1.159414476082134
% es.Ey (V/m) @ t=0.66
0.28088433048986317
% es.Ez (V/m) @ t=0.66
3.5617486491237127
% es.tEx (V/m) @ t=0.66
1.1594144760821479
% es.tEy (V/m) @ t=0.66
0
% es.tEz (V/m) @ t=0.66
3.5617486491237287
% V (V) @ t=0.66
0.01756805061962241
% es.normE (V/m) @ t=0.68
3.80142857224326
% es.EX (V/m) @ t=0.68
1.1733610666903602
% es.EY (V/m) @ t=0.68
0.28426306809694646
% es.EZ (V/m) @ t=0.68
3.6045928693403617
% es.tEX (V/m) @ t=0.68
1.1733610666903616
% es.tEY (V/m) @ t=0.68
0
% es.tEZ (V/m) @ t=0.68
3.6045928693403653
% es.Ex (V/m) @ t=0.68
1.1733610666903602
% es.Ey (V/m) @ t=0.68
0.28426306809694646
% es.Ez (V/m) @ t=0.68
3.6045928693403617
% es.tEx (V/m) @ t=0.68
1.1733610666903616
% es.tEy (V/m) @ t=0.68
0
% es.tEz (V/m) @ t=0.68
3.6045928693403653
% V (V) @ t=0.68
0.017779375217064207
% es.normE (V/m) @ t=0.7
3.84698179560717
% es.EX (V/m) @ t=0.7
1.1874216815751244
% es.EY (V/m) @ t=0.7
0.2876694272534708
% es.EZ (V/m) @ t=0.7
3.6477873715190414
% es.tEX (V/m) @ t=0.7
1.187421681575131
% es.tEY (V/m) @ t=0.7
0
% es.tEZ (V/m) @ t=0.7
3.6477873715190476
% es.Ex (V/m) @ t=0.7
1.1874216815751244
% es.Ey (V/m) @ t=0.7
0.2876694272534708
% es.Ez (V/m) @ t=0.7
3.6477873715190414
% es.tEx (V/m) @ t=0.7
1.187421681575131
% es.tEy (V/m) @ t=0.7
0
% es.tEz (V/m) @ t=0.7
3.6477873715190476
% V (V) @ t=0.7
0.0179924274033055
% es.normE (V/m) @ t=0.72
3.8929044289301458
% es.EX (V/m) @ t=0.72
1.2015963207363516
% es.EY (V/m) @ t=0.72
0.2911034079593451
% es.EZ (V/m) @ t=0.72
3.691332155659844
% es.tEX (V/m) @ t=0.72
1.2015963207363711
% es.tEY (V/m) @ t=0.72
0
% es.tEZ (V/m) @ t=0.72
3.6913321556598646
% es.Ex (V/m) @ t=0.72
1.2015963207363516
% es.Ey (V/m) @ t=0.72
0.2911034079593451
% es.Ez (V/m) @ t=0.72
3.691332155659844
% es.tEx (V/m) @ t=0.72
1.2015963207363711
% es.tEy (V/m) @ t=0.72
0
% es.tEz (V/m) @ t=0.72
3.6913321556598646
% V (V) @ t=0.72
0.018207207178346296
% es.normE (V/m) @ t=0.74
3.9391964722121813
% es.EX (V/m) @ t=0.74
1.2158849841740798
% es.EY (V/m) @ t=0.74
0.294565010214628
% es.EZ (V/m) @ t=0.74
3.735227221762747
% es.tEX (V/m) @ t=0.74
1.2158849841740818
% es.tEY (V/m) @ t=0.74
0
% es.tEZ (V/m) @ t=0.74
3.7352272217627593
% es.Ex (V/m) @ t=0.74
1.2158849841740798
% es.Ey (V/m) @ t=0.74
0.294565010214628
% es.Ez (V/m) @ t=0.74
3.735227221762747
% es.tEx (V/m) @ t=0.74
1.2158849841740818
% es.tEy (V/m) @ t=0.74
0
% es.tEz (V/m) @ t=0.74
3.7352272217627593
% V (V) @ t=0.74
0.018423714542186588
% es.normE (V/m) @ t=0.76
3.9865158859292276
% es.EX (V/m) @ t=0.76
1.230490746741548
% es.EY (V/m) @ t=0.76
0.2981034651030756
% es.EZ (V/m) @ t=0.76
3.780096463588059
% es.tEX (V/m) @ t=0.76
1.230490746741566
% es.tEY (V/m) @ t=0.76
0
% es.tEZ (V/m) @ t=0.76
3.7800964635880696
% es.Ex (V/m) @ t=0.76
1.230490746741548
% es.Ey (V/m) @ t=0.76
0.2981034651030756
% es.Ez (V/m) @ t=0.76
3.780096463588059
% es.tEx (V/m) @ t=0.76
1.230490746741566
% es.tEy (V/m) @ t=0.76
0
% es.tEz (V/m) @ t=0.76
3.7800964635880696
% V (V) @ t=0.76
0.018645028851415515
% es.normE (V/m) @ t=0.78
4.034350025797358
% es.EX (V/m) @ t=0.78
1.245255384401747
% es.EY (V/m) @ t=0.78
0.30168041464634965
% es.EZ (V/m) @ t=0.78
3.825453779642305
% es.tEX (V/m) @ t=0.78
1.2452553844017586
% es.tEY (V/m) @ t=0.78
0
% es.tEZ (V/m) @ t=0.78
3.8254537796422845
% es.Ex (V/m) @ t=0.78
1.245255384401747
% es.Ey (V/m) @ t=0.78
0.30168041464634965
% es.Ez (V/m) @ t=0.78
3.825453779642305
% es.tEx (V/m) @ t=0.78
1.2452553844017586
% es.tEy (V/m) @ t=0.78
0
% es.tEz (V/m) @ t=0.78
3.8254537796422845
% V (V) @ t=0.78
0.01886875085165269
% es.normE (V/m) @ t=0.8
4.082659075907348
% es.EX (V/m) @ t=0.8
1.26016660825553
% es.EY (V/m) @ t=0.8
0.30529287966802854
% es.EZ (V/m) @ t=0.8
3.8712614155340983
% es.tEX (V/m) @ t=0.8
1.2601666082555454
% es.tEY (V/m) @ t=0.8
0
% es.tEZ (V/m) @ t=0.8
3.871261415534086
% es.Ex (V/m) @ t=0.8
1.26016660825553
% es.Ey (V/m) @ t=0.8
0.30529287966802854
% es.Ez (V/m) @ t=0.8
3.8712614155340983
% es.tEx (V/m) @ t=0.8
1.2601666082555454
% es.tEy (V/m) @ t=0.8
0
% es.tEz (V/m) @ t=0.8
3.871261415534086
% V (V) @ t=0.8
0.019094694198298214
% es.normE (V/m) @ t=0.82
4.131443036259318
% es.EX (V/m) @ t=0.82
1.2752244183028647
% es.EY (V/m) @ t=0.82
0.3089408601680086
% es.EZ (V/m) @ t=0.82
3.9175193712635883
% es.tEX (V/m) @ t=0.82
1.2752244183028694
% es.tEY (V/m) @ t=0.82
0
% es.tEZ (V/m) @ t=0.82
3.917519371263605
% es.Ex (V/m) @ t=0.82
1.2752244183028647
% es.Ey (V/m) @ t=0.82
0.3089408601680086
% es.Ez (V/m) @ t=0.82
3.9175193712635883
% es.tEx (V/m) @ t=0.82
1.2752244183028694
% es.tEy (V/m) @ t=0.82
0
% es.tEz (V/m) @ t=0.82
3.917519371263605
% V (V) @ t=0.82
0.0193228588913521
% es.normE (V/m) @ t=0.84
4.180701906853345
% es.EX (V/m) @ t=0.84
1.2904288145438387
% es.EY (V/m) @ t=0.84
0.31262435614634
% es.EZ (V/m) @ t=0.84
3.9642276468308184
% es.tEX (V/m) @ t=0.84
1.2904288145438443
% es.tEY (V/m) @ t=0.84
0
% es.tEZ (V/m) @ t=0.84
3.9642276468308175
% es.Ex (V/m) @ t=0.84
1.2904288145438387
% es.Ey (V/m) @ t=0.84
0.31262435614634
% es.Ez (V/m) @ t=0.84
3.9642276468308184
% es.tEx (V/m) @ t=0.84
1.2904288145438443
% es.tEy (V/m) @ t=0.84
0
% es.tEz (V/m) @ t=0.84
3.9642276468308175
% V (V) @ t=0.84
0.019553244930814347
% es.normE (V/m) @ t=0.86
4.230435687689333
% es.EX (V/m) @ t=0.86
1.3057797969784184
% es.EY (V/m) @ t=0.86
0.31634336760311466
% es.EZ (V/m) @ t=0.86
4.011386242235694
% es.tEX (V/m) @ t=0.86
1.3057797969784275
% es.tEY (V/m) @ t=0.86
0
% es.tEZ (V/m) @ t=0.86
4.011386242235709
% es.Ex (V/m) @ t=0.86
1.3057797969784184
% es.Ey (V/m) @ t=0.86
0.31634336760311466
% es.Ez (V/m) @ t=0.86
4.011386242235694
% es.tEx (V/m) @ t=0.86
1.3057797969784275
% es.tEy (V/m) @ t=0.86
0
% es.tEz (V/m) @ t=0.86
4.011386242235709
% V (V) @ t=0.86
0.01978585231668495
% es.normE (V/m) @ t=0.88
4.280644378767261
% es.EX (V/m) @ t=0.88
1.321277365606587
% es.EY (V/m) @ t=0.88
0.3200978945381938
% es.EZ (V/m) @ t=0.88
4.0589951574782095
% es.tEX (V/m) @ t=0.88
1.3212773656065906
% es.tEY (V/m) @ t=0.88
0
% es.tEZ (V/m) @ t=0.88
4.058995157478222
% es.Ex (V/m) @ t=0.88
1.321277365606587
% es.Ey (V/m) @ t=0.88
0.3200978945381938
% es.Ez (V/m) @ t=0.88
4.0589951574782095
% es.tEx (V/m) @ t=0.88
1.3212773656065906
% es.tEy (V/m) @ t=0.88
0
% es.tEz (V/m) @ t=0.88
4.058995157478222
% V (V) @ t=0.88
0.020020681048963915
% es.normE (V/m) @ t=0.9
4.331327980087151
% es.EX (V/m) @ t=0.9
1.3369215204283071
% es.EY (V/m) @ t=0.9
0.3238879369516823
% es.EZ (V/m) @ t=0.9
4.107054392558391
% es.tEX (V/m) @ t=0.9
1.3369215204283051
% es.tEY (V/m) @ t=0.9
0
% es.tEZ (V/m) @ t=0.9
4.107054392558407
% es.Ex (V/m) @ t=0.9
1.3369215204283071
% es.Ey (V/m) @ t=0.9
0.3238879369516823
% es.Ez (V/m) @ t=0.9
4.107054392558391
% es.tEx (V/m) @ t=0.9
1.3369215204283051
% es.tEy (V/m) @ t=0.9
0
% es.tEz (V/m) @ t=0.9
4.107054392558407
% V (V) @ t=0.9
0.02025773112765124
% es.normE (V/m) @ t=0.92
4.382486491649054
% es.EX (V/m) @ t=0.92
1.3527122614436606
% es.EY (V/m) @ t=0.92
0.327713494843499
% es.EZ (V/m) @ t=0.92
4.155563947476272
% es.tEX (V/m) @ t=0.92
1.3527122614436564
% es.tEY (V/m) @ t=0.92
0
% es.tEZ (V/m) @ t=0.92
4.155563947476278
% es.Ex (V/m) @ t=0.92
1.3527122614436606
% es.Ey (V/m) @ t=0.92
0.327713494843499
% es.Ez (V/m) @ t=0.92
4.155563947476272
% es.tEx (V/m) @ t=0.92
1.3527122614436564
% es.tEy (V/m) @ t=0.92
0
% es.tEz (V/m) @ t=0.92
4.155563947476278
% V (V) @ t=0.92
0.02049700255274692
% es.normE (V/m) @ t=0.94
4.434119913452882
% es.EX (V/m) @ t=0.94
1.3686495886526096
% es.EY (V/m) @ t=0.94
0.33157456821376385
% es.EZ (V/m) @ t=0.94
4.204523822231762
% es.tEX (V/m) @ t=0.94
1.368649588652616
% es.tEY (V/m) @ t=0.94
0
% es.tEZ (V/m) @ t=0.94
4.2045238222317955
% es.Ex (V/m) @ t=0.94
1.3686495886526096
% es.Ey (V/m) @ t=0.94
0.33157456821376385
% es.Ez (V/m) @ t=0.94
4.204523822231762
% es.tEx (V/m) @ t=0.94
1.368649588652616
% es.tEy (V/m) @ t=0.94
0
% es.tEz (V/m) @ t=0.94
4.2045238222317955
% V (V) @ t=0.94
0.020738495324250962
% es.normE (V/m) @ t=0.96
4.486228245498793
% es.EX (V/m) @ t=0.96
1.3847335020551748
% es.EY (V/m) @ t=0.96
0.3354711570623823
% es.EZ (V/m) @ t=0.96
4.2539340168250295
% es.tEX (V/m) @ t=0.96
1.3847335020551839
% es.tEY (V/m) @ t=0.96
0
% es.tEZ (V/m) @ t=0.96
4.253934016825028
% es.Ex (V/m) @ t=0.96
1.3847335020551748
% es.Ey (V/m) @ t=0.96
0.3354711570623823
% es.Ez (V/m) @ t=0.96
4.2539340168250295
% es.tEx (V/m) @ t=0.96
1.3847335020551839
% es.tEy (V/m) @ t=0.96
0
% es.tEz (V/m) @ t=0.96
4.253934016825028
% V (V) @ t=0.96
0.02098220944216336
% es.normE (V/m) @ t=0.98
4.538811487786563
% es.EX (V/m) @ t=0.98
1.4009640016513145
% es.EY (V/m) @ t=0.98
0.339403261389311
% es.EZ (V/m) @ t=0.98
4.303794531255854
% es.tEX (V/m) @ t=0.98
1.4009640016513032
% es.tEY (V/m) @ t=0.98
0
% es.tEZ (V/m) @ t=0.98
4.303794531255875
% es.Ex (V/m) @ t=0.98
1.4009640016513145
% es.Ey (V/m) @ t=0.98
0.339403261389311
% es.Ez (V/m) @ t=0.98
4.303794531255854
% es.tEx (V/m) @ t=0.98
1.4009640016513032
% es.tEy (V/m) @ t=0.98
0
% es.tEz (V/m) @ t=0.98
4.303794531255875
% V (V) @ t=0.98
0.021228144906484114
% es.normE (V/m) @ t=1
4.592086237094397
% es.EX (V/m) @ t=1
1.4174079516597944
% es.EY (V/m) @ t=1
0.3433870582255729
% es.EZ (V/m) @ t=1
4.354310745664191
% es.tEX (V/m) @ t=1
1.417407951659797
% es.tEY (V/m) @ t=1
0
% es.tEZ (V/m) @ t=1
4.354310745664197
% es.Ex (V/m) @ t=1
1.4174079516597944
% es.Ey (V/m) @ t=1
0.3433870582255729
% es.Ez (V/m) @ t=1
4.354310745664191
% es.tEx (V/m) @ t=1
1.417407951659797
% es.tEy (V/m) @ t=1
0
% es.tEz (V/m) @ t=1
4.354310745664197
% V (V) @ t=1
0.021477313401332833
% es.normE (V/m) @ t=1.02
4.646033014003139
% es.EX (V/m) @ t=1.02
1.4340593387126381
% es.EY (V/m) @ t=1.02
0.34742109270574595
% es.EZ (V/m) @ t=1.02
4.405464189388239
% es.tEX (V/m) @ t=1.02
1.4340593387126574
% es.tEY (V/m) @ t=1.02
0
% es.tEZ (V/m) @ t=1.02
4.405464189388248
% es.Ex (V/m) @ t=1.02
1.4340593387126381
% es.Ey (V/m) @ t=1.02
0.34742109270574595
% es.Ez (V/m) @ t=1.02
4.405464189388239
% es.tEx (V/m) @ t=1.02
1.4340593387126574
% es.tEy (V/m) @ t=1.02
0
% es.tEz (V/m) @ t=1.02
4.405464189388248
% V (V) @ t=1.02
0.02172962394188914
% es.normE (V/m) @ t=1.04
4.700511661580201
% es.EX (V/m) @ t=1.04
1.450874895851323
% es.EY (V/m) @ t=1.04
0.35149489688531355
% es.EZ (V/m) @ t=1.04
4.457121963634846
% es.tEX (V/m) @ t=1.04
1.450874895851328
% es.tEY (V/m) @ t=1.04
0
% es.tEZ (V/m) @ t=1.04
4.45712196363484
% es.Ex (V/m) @ t=1.04
1.450874895851323
% es.Ey (V/m) @ t=1.04
0.35149489688531355
% es.Ez (V/m) @ t=1.04
4.457121963634846
% es.tEx (V/m) @ t=1.04
1.450874895851328
% es.tEy (V/m) @ t=1.04
0
% es.tEz (V/m) @ t=1.04
4.45712196363484
% V (V) @ t=1.04
0.021984421880635718