% Model:              1 neuron.mph
% Version:            COMSOL 6.0.0.405
% Date:               Mar 16 2023, 20:24
% Dimension:          0
% Nodes:              14017
% Expressions:        14017
% Description:        Electric field norm, Electric field, X component, Electric field, Y component, Electric field, Z component, Tangential electric field, X component, Tangential electric field, Y component, Tangential electric field, Z component, Electric field, x component, Electric field, y component, Electric field, z component, Tangential electric field, x component, Tangential electric field, y component, Tangential electric field, z component, Electric potential
% Length unit:        mm
% x
1.66
% y
12.2
% z
1
% es.normE (V/m) @ t=0
2.821359625343292
% es.EX (V/m) @ t=0
-1.0056383713871808
% es.EY (V/m) @ t=0
0.3194867186691226
% es.EZ (V/m) @ t=0
2.608513591033395
% es.tEX (V/m) @ t=0
-1.005638371387195
% es.tEY (V/m) @ t=0
0
% es.tEZ (V/m) @ t=0
2.6085135910333985
% es.Ex (V/m) @ t=0
-1.0056383713871808
% es.Ey (V/m) @ t=0
0.3194867186691226
% es.Ez (V/m) @ t=0
2.608513591033395
% es.tEx (V/m) @ t=0
-1.005638371387195
% es.tEy (V/m) @ t=0
0
% es.tEz (V/m) @ t=0
2.6085135910333985
% V (V) @ t=0
0.013736607377370362
% es.normE (V/m) @ t=0.02
2.4449945288148096
% es.EX (V/m) @ t=0.02
-0.8714877274575756
% es.EY (V/m) @ t=0.02
0.276867677534119
% es.EZ (V/m) @ t=0.02
2.2605418362937213
% es.tEX (V/m) @ t=0.02
-0.8714877274575898
% es.tEY (V/m) @ t=0.02
0
% es.tEZ (V/m) @ t=0.02
2.260541836293724
% es.Ex (V/m) @ t=0.02
-0.8714877274575756
% es.Ey (V/m) @ t=0.02
0.276867677534119
% es.Ez (V/m) @ t=0.02
2.2605418362937213
% es.tEx (V/m) @ t=0.02
-0.8714877274575898
% es.tEy (V/m) @ t=0.02
0
% es.tEz (V/m) @ t=0.02
2.260541836293724
% V (V) @ t=0.02
0.011904164521938914
% es.normE (V/m) @ t=0.04
2.4757965519487715
% es.EX (V/m) @ t=0.04
-0.8824666876386926
% es.EY (V/m) @ t=0.04
0.2803556852008764
% es.EZ (V/m) @ t=0.04
2.289020135768425
% es.tEX (V/m) @ t=0.04
-0.8824666876386997
% es.tEY (V/m) @ t=0.04
0
% es.tEZ (V/m) @ t=0.04
2.289020135768432
% es.Ex (V/m) @ t=0.04
-0.8824666876386926
% es.Ey (V/m) @ t=0.04
0.2803556852008764
% es.Ez (V/m) @ t=0.04
2.289020135768425
% es.tEx (V/m) @ t=0.04
-0.8824666876386997
% es.tEy (V/m) @ t=0.04
0
% es.tEz (V/m) @ t=0.04
2.289020135768432
% V (V) @ t=0.04
0.01205412971312706
% es.normE (V/m) @ t=0.06
2.506884736602915
% es.EX (V/m) @ t=0.06
-0.8935475929160341
% es.EY (V/m) @ t=0.06
0.2838761512419481
% es.EZ (V/m) @ t=0.06
2.3177630222986423
% es.tEX (V/m) @ t=0.06
-0.8935475929160412
% es.tEY (V/m) @ t=0.06
0
% es.tEZ (V/m) @ t=0.06
2.3177630222986476
% es.Ex (V/m) @ t=0.06
-0.8935475929160341
% es.Ey (V/m) @ t=0.06
0.2838761512419481
% es.Ez (V/m) @ t=0.06
2.3177630222986423
% es.tEx (V/m) @ t=0.06
-0.8935475929160412
% es.tEy (V/m) @ t=0.06
0
% es.tEz (V/m) @ t=0.06
2.3177630222986476
% V (V) @ t=0.06
0.012205482052004193
% es.normE (V/m) @ t=0.08
2.538948372149852
% es.EX (V/m) @ t=0.08
-0.904976273123572
% es.EY (V/m) @ t=0.08
0.28750698639516337
% es.EZ (V/m) @ t=0.08
2.3474077483664937
% es.tEX (V/m) @ t=0.08
-0.9049762731235791
% es.tEY (V/m) @ t=0.08
0
% es.tEZ (V/m) @ t=0.08
2.3474077483664946
% es.Ex (V/m) @ t=0.08
-0.904976273123572
% es.Ey (V/m) @ t=0.08
0.28750698639516337
% es.Ez (V/m) @ t=0.08
2.3474077483664937
% es.tEx (V/m) @ t=0.08
-0.9049762731235791
% es.tEy (V/m) @ t=0.08
0
% es.tEz (V/m) @ t=0.08
2.3474077483664946
% V (V) @ t=0.08
0.01236159384743943
% es.normE (V/m) @ t=0.1
2.5711125037387763
% es.EX (V/m) @ t=0.1
-0.9164407829194996
% es.EY (V/m) @ t=0.1
0.2911491923503271
% es.EZ (V/m) @ t=0.1
2.3771453866503407
% es.tEX (V/m) @ t=0.1
-0.9164407829195067
% es.tEY (V/m) @ t=0.1
0
% es.tEZ (V/m) @ t=0.1
2.3771453866503442
% es.Ex (V/m) @ t=0.1
-0.9164407829194996
% es.Ey (V/m) @ t=0.1
0.2911491923503271
% es.Ez (V/m) @ t=0.1
2.3771453866503407
% es.tEx (V/m) @ t=0.1
-0.9164407829195067
% es.tEy (V/m) @ t=0.1
0
% es.tEz (V/m) @ t=0.1
2.3771453866503442
% V (V) @ t=0.1
0.012518195986929562
% es.normE (V/m) @ t=0.12
2.6032766353277026
% es.EX (V/m) @ t=0.12
-0.9279052927154341
% es.EY (V/m) @ t=0.12
0.29479139830553147
% es.EZ (V/m) @ t=0.12
2.4068830249341833
% es.tEX (V/m) @ t=0.12
-0.9279052927154412
% es.tEY (V/m) @ t=0.12
0
% es.tEZ (V/m) @ t=0.12
2.4068830249341904
% es.Ex (V/m) @ t=0.12
-0.9279052927154341
% es.Ey (V/m) @ t=0.12
0.29479139830553147
% es.Ez (V/m) @ t=0.12
2.4068830249341833
% es.tEx (V/m) @ t=0.12
-0.9279052927154412
% es.tEy (V/m) @ t=0.12
0
% es.tEz (V/m) @ t=0.12
2.4068830249341904
% V (V) @ t=0.12
0.012674798126419695
% es.normE (V/m) @ t=0.14
2.6373332473630837
% es.EX (V/m) @ t=0.14
-0.9400442002977538
% es.EY (V/m) @ t=0.14
0.2986480627654782
% es.EZ (V/m) @ t=0.14
2.438370412397422
% es.tEX (V/m) @ t=0.14
-0.940044200297768
% es.tEY (V/m) @ t=0.14
0
% es.tEZ (V/m) @ t=0.14
2.4383704123974272
% es.Ex (V/m) @ t=0.14
-0.9400442002977538
% es.Ey (V/m) @ t=0.14
0.2986480627654782
% es.Ez (V/m) @ t=0.14
2.438370412397422
% es.tEx (V/m) @ t=0.14
-0.940044200297768
% es.tEy (V/m) @ t=0.14
0
% es.tEz (V/m) @ t=0.14
2.4383704123974272
% V (V) @ t=0.14
0.012840596680069621
% es.normE (V/m) @ t=0.16
2.671799018670579
% es.EX (V/m) @ t=0.16
-0.9523289144631222
% es.EY (V/m) @ t=0.16
0.30255109372068145
% es.EZ (V/m) @ t=0.16
2.4702361002557485
% es.tEX (V/m) @ t=0.16
-0.9523289144631364
% es.tEY (V/m) @ t=0.16
0
% es.tEZ (V/m) @ t=0.16
2.470236100255754
% es.Ex (V/m) @ t=0.16
-0.9523289144631222
% es.Ey (V/m) @ t=0.16
0.30255109372068145
% es.Ez (V/m) @ t=0.16
2.4702361002557485
% es.tEx (V/m) @ t=0.16
-0.9523289144631364
% es.tEy (V/m) @ t=0.16
0
% es.tEz (V/m) @ t=0.16
2.470236100255754
% V (V) @ t=0.16
0.013008383522756012
% es.normE (V/m) @ t=0.18
2.706264789978097
% es.EX (V/m) @ t=0.18
-0.9646136286284941
% es.EY (V/m) @ t=0.18
0.30645412467590716
% es.EZ (V/m) @ t=0.18
2.5021017881140715
% es.tEX (V/m) @ t=0.18
-0.9646136286285119
% es.tEY (V/m) @ t=0.18
0
% es.tEZ (V/m) @ t=0.18
2.502101788114077
% es.Ex (V/m) @ t=0.18
-0.9646136286284941
% es.Ey (V/m) @ t=0.18
0.30645412467590716
% es.Ez (V/m) @ t=0.18
2.5021017881140715
% es.tEx (V/m) @ t=0.18
-0.9646136286285119
% es.tEy (V/m) @ t=0.18
0
% es.tEz (V/m) @ t=0.18
2.502101788114077
% V (V) @ t=0.18
0.013176170365442398
% es.normE (V/m) @ t=0.2
2.740730561285645
% es.EX (V/m) @ t=0.2
-0.9768983427938802
% es.EY (V/m) @ t=0.2
0.3103571556311133
% es.EZ (V/m) @ t=0.2
2.533967475972399
% es.tEX (V/m) @ t=0.2
-0.9768983427938944
% es.tEY (V/m) @ t=0.2
0
% es.tEZ (V/m) @ t=0.2
2.5339674759723962
% es.Ex (V/m) @ t=0.2
-0.9768983427938802
% es.Ey (V/m) @ t=0.2
0.3103571556311133
% es.Ez (V/m) @ t=0.2
2.533967475972399
% es.tEx (V/m) @ t=0.2
-0.9768983427938944
% es.tEy (V/m) @ t=0.2
0
% es.tEz (V/m) @ t=0.2
2.5339674759723962
% V (V) @ t=0.2
0.013343957208128785
% es.normE (V/m) @ t=0.22
2.775196332593202
% es.EX (V/m) @ t=0.22
-0.989183056959263
% es.EY (V/m) @ t=0.22
0.3142601865863124
% es.EZ (V/m) @ t=0.22
2.5658331638307157
% es.tEX (V/m) @ t=0.22
-0.9891830569592772
% es.tEY (V/m) @ t=0.22
0
% es.tEZ (V/m) @ t=0.22
2.5658331638307104
% es.Ex (V/m) @ t=0.22
-0.989183056959263
% es.Ey (V/m) @ t=0.22
0.3142601865863124
% es.Ez (V/m) @ t=0.22
2.5658331638307157
% es.tEx (V/m) @ t=0.22
-0.9891830569592772
% es.tEy (V/m) @ t=0.22
0
% es.tEz (V/m) @ t=0.22
2.5658331638307104
% V (V) @ t=0.22
0.01351174405081517
% es.normE (V/m) @ t=0.24
2.809662103900795
% es.EX (V/m) @ t=0.24
-1.001467771124635
% es.EY (V/m) @ t=0.24
0.318163217541545
% es.EZ (V/m) @ t=0.24
2.5976988516890485
% es.tEX (V/m) @ t=0.24
-1.0014677711246527
% es.tEY (V/m) @ t=0.24
0
% es.tEZ (V/m) @ t=0.24
2.597698851689046
% es.Ex (V/m) @ t=0.24
-1.001467771124635
% es.Ey (V/m) @ t=0.24
0.318163217541545
% es.Ez (V/m) @ t=0.24
2.5976988516890485
% es.tEx (V/m) @ t=0.24
-1.0014677711246527
% es.tEy (V/m) @ t=0.24
0
% es.tEz (V/m) @ t=0.24
2.597698851689046
% V (V) @ t=0.24
0.01367953089350156
% es.normE (V/m) @ t=0.26
2.8457380650994297
% es.EX (V/m) @ t=0.26
-1.0143266301597378
% es.EY (V/m) @ t=0.26
0.3222483609211646
% es.EZ (V/m) @ t=0.26
2.631053201324403
% es.tEX (V/m) @ t=0.26
-1.0143266301597555
% es.tEY (V/m) @ t=0.26
0
% es.tEZ (V/m) @ t=0.26
2.6310532013244146
% es.Ex (V/m) @ t=0.26
-1.0143266301597378
% es.Ey (V/m) @ t=0.26
0.3222483609211646
% es.Ez (V/m) @ t=0.26
2.631053201324403
% es.tEx (V/m) @ t=0.26
-1.0143266301597555
% es.tEy (V/m) @ t=0.26
0
% es.tEz (V/m) @ t=0.26
2.6310532013244146
% V (V) @ t=0.26
0.013855182456979184
% es.normE (V/m) @ t=0.28
2.8826677878789164
% es.EX (V/m) @ t=0.28
-1.0274899146755472
% es.EY (V/m) @ t=0.28
0.3264300647078795
% es.EZ (V/m) @ t=0.28
2.6651968753985393
% es.tEX (V/m) @ t=0.28
-1.027489914675565
% es.tEY (V/m) @ t=0.28
0
% es.tEZ (V/m) @ t=0.28
2.6651968753985393
% es.Ex (V/m) @ t=0.28
-1.0274899146755472
% es.Ey (V/m) @ t=0.28
0.3264300647078795
% es.Ez (V/m) @ t=0.28
2.6651968753985393
% es.tEx (V/m) @ t=0.28
-1.027489914675565
% es.tEy (V/m) @ t=0.28
0
% es.tEz (V/m) @ t=0.28
2.6651968753985393
% V (V) @ t=0.28
0.01403500408542407
% es.normE (V/m) @ t=0.3
2.919597510658421
% es.EX (V/m) @ t=0.3
-1.040653199191346
% es.EY (V/m) @ t=0.3
0.3306117684945995
% es.EZ (V/m) @ t=0.3
2.6993405494726783
% es.tEX (V/m) @ t=0.3
-1.040653199191353
% es.tEY (V/m) @ t=0.3
0
% es.tEZ (V/m) @ t=0.3
2.6993405494726748
% es.Ex (V/m) @ t=0.3
-1.040653199191346
% es.Ey (V/m) @ t=0.3
0.3306117684945995
% es.Ez (V/m) @ t=0.3
2.6993405494726783
% es.tEx (V/m) @ t=0.3
-1.040653199191353
% es.tEy (V/m) @ t=0.3
0
% es.tEz (V/m) @ t=0.3
2.6993405494726748
% V (V) @ t=0.3
0.014214825713868954
% es.normE (V/m) @ t=0.32
2.956527233437939
% es.EX (V/m) @ t=0.32
-1.0538164837071695
% es.EY (V/m) @ t=0.32
0.3347934722813011
% es.EZ (V/m) @ t=0.32
2.7334842235468058
% es.tEX (V/m) @ t=0.32
-1.0538164837071837
% es.tEY (V/m) @ t=0.32
0
% es.tEZ (V/m) @ t=0.32
2.73348422354681
% es.Ex (V/m) @ t=0.32
-1.0538164837071695
% es.Ey (V/m) @ t=0.32
0.3347934722813011
% es.Ez (V/m) @ t=0.32
2.7334842235468058
% es.tEx (V/m) @ t=0.32
-1.0538164837071837
% es.tEy (V/m) @ t=0.32
0
% es.tEz (V/m) @ t=0.32
2.73348422354681
% V (V) @ t=0.32
0.014394647342313837
% es.normE (V/m) @ t=0.34
2.9934569562174778
% es.EX (V/m) @ t=0.34
-1.0669797682229756
% es.EY (V/m) @ t=0.34
0.33897517606801686
% es.EZ (V/m) @ t=0.34
2.7676278976209376
% es.tEX (V/m) @ t=0.34
-1.0669797682230004
% es.tEY (V/m) @ t=0.34
0
% es.tEZ (V/m) @ t=0.34
2.7676278976209385
% es.Ex (V/m) @ t=0.34
-1.0669797682229756
% es.Ey (V/m) @ t=0.34
0.33897517606801686
% es.Ez (V/m) @ t=0.34
2.7676278976209376
% es.tEx (V/m) @ t=0.34
-1.0669797682230004
% es.tEy (V/m) @ t=0.34
0
% es.tEz (V/m) @ t=0.34
2.7676278976209385
% V (V) @ t=0.34
0.014574468970758729
% es.normE (V/m) @ t=0.36
3.0303866789970346
% es.EX (V/m) @ t=0.36
-1.0801430527387885
% es.EY (V/m) @ t=0.36
0.34315687985472554
% es.EZ (V/m) @ t=0.36
2.8017715716950695
% es.tEX (V/m) @ t=0.36
-1.0801430527388027
% es.tEY (V/m) @ t=0.36
0
% es.tEZ (V/m) @ t=0.36
2.801771571695067
% es.Ex (V/m) @ t=0.36
-1.0801430527387885
% es.Ey (V/m) @ t=0.36
0.34315687985472554
% es.Ez (V/m) @ t=0.36
2.8017715716950695
% es.tEx (V/m) @ t=0.36
-1.0801430527388027
% es.tEy (V/m) @ t=0.36
0
% es.tEz (V/m) @ t=0.36
2.801771571695067
% V (V) @ t=0.36
0.014754290599203612
% es.normE (V/m) @ t=0.38
3.068588221926496
% es.EX (V/m) @ t=0.38
-1.0937594839717137
% es.EY (V/m) @ t=0.38
0.34748278964061474
% es.EZ (V/m) @ t=0.38
2.8370911635349367
% es.tEX (V/m) @ t=0.38
-1.093759483971728
% es.tEY (V/m) @ t=0.38
0
% es.tEZ (V/m) @ t=0.38
2.8370911635349376
% es.Ex (V/m) @ t=0.38
-1.0937594839717137
% es.Ey (V/m) @ t=0.38
0.34748278964061474
% es.Ez (V/m) @ t=0.38
2.8370911635349367
% es.tEx (V/m) @ t=0.38
-1.093759483971728
% es.tEy (V/m) @ t=0.38
0
% es.tEz (V/m) @ t=0.38
2.8370911635349376
% V (V) @ t=0.38
0.014940283530111505
% es.normE (V/m) @ t=0.4
3.10814151655063
% es.EX (V/m) @ t=0.4
-1.107857541355031
% es.EY (V/m) @ t=0.4
0.3519619685060893
% es.EZ (V/m) @ t=0.4
2.873660577397785
% es.tEX (V/m) @ t=0.4
-1.107857541355038
% es.tEY (V/m) @ t=0.4
0
% es.tEZ (V/m) @ t=0.4
2.8736605773977892
% es.Ex (V/m) @ t=0.4
-1.107857541355031
% es.Ey (V/m) @ t=0.4
0.3519619685060893
% es.Ez (V/m) @ t=0.4
2.873660577397785
% es.tEx (V/m) @ t=0.4
-1.107857541355038
% es.tEy (V/m) @ t=0.4
0
% es.tEz (V/m) @ t=0.4
2.8736605773977892
% V (V) @ t=0.4
0.015132835618431133
% es.normE (V/m) @ t=0.42
3.1476948111747993
% es.EX (V/m) @ t=0.42
-1.1219555987383478
% es.EY (V/m) @ t=0.42
0.3564411473715803
% es.EZ (V/m) @ t=0.42
2.9102299912606364
% es.tEX (V/m) @ t=0.42
-1.121955598738362
% es.tEY (V/m) @ t=0.42
0
% es.tEZ (V/m) @ t=0.42
2.9102299912606355
% es.Ex (V/m) @ t=0.42
-1.1219555987383478
% es.Ey (V/m) @ t=0.42
0.3564411473715803
% es.Ez (V/m) @ t=0.42
2.9102299912606364
% es.tEx (V/m) @ t=0.42
-1.121955598738362
% es.tEy (V/m) @ t=0.42
0
% es.tEz (V/m) @ t=0.42
2.9102299912606355
% V (V) @ t=0.42
0.015325387706750754
% es.normE (V/m) @ t=0.44
3.1872481057989837
% es.EX (V/m) @ t=0.44
-1.1360536561216645
% es.EY (V/m) @ t=0.44
0.3609203262370497
% es.EZ (V/m) @ t=0.44
2.9467994051234747
% es.tEX (V/m) @ t=0.44
-1.1360536561216716
% es.tEY (V/m) @ t=0.44
0
% es.tEZ (V/m) @ t=0.44
2.9467994051234783
% es.Ex (V/m) @ t=0.44
-1.1360536561216645
% es.Ey (V/m) @ t=0.44
0.3609203262370497
% es.Ez (V/m) @ t=0.44
2.9467994051234747
% es.tEx (V/m) @ t=0.44
-1.1360536561216716
% es.tEy (V/m) @ t=0.44
0
% es.tEz (V/m) @ t=0.44
2.9467994051234783
% V (V) @ t=0.44
0.015517939795070382
% es.normE (V/m) @ t=0.46
3.226801400423214
% es.EX (V/m) @ t=0.46
-1.1501517135049886
% es.EY (V/m) @ t=0.46
0.3653995051025116
% es.EZ (V/m) @ t=0.46
2.9833688189863308
% es.tEX (V/m) @ t=0.46
-1.1501517135050099
% es.tEY (V/m) @ t=0.46
0
% es.tEZ (V/m) @ t=0.46
2.983368818986323
% es.Ex (V/m) @ t=0.46
-1.1501517135049886
% es.Ey (V/m) @ t=0.46
0.3653995051025116
% es.Ez (V/m) @ t=0.46
2.9833688189863308
% es.tEx (V/m) @ t=0.46
-1.1501517135050099
% es.tEy (V/m) @ t=0.46
0
% es.tEz (V/m) @ t=0.46
2.983368818986323
% V (V) @ t=0.46
0.015710491883390004
% es.normE (V/m) @ t=0.48
3.266354695047466
% es.EX (V/m) @ t=0.48
-1.1642497708882913
% es.EY (V/m) @ t=0.48
0.3698786839680064
% es.EZ (V/m) @ t=0.48
3.019938232849184
% es.tEX (V/m) @ t=0.48
-1.1642497708883055
% es.tEY (V/m) @ t=0.48
0
% es.tEZ (V/m) @ t=0.48
3.0199382328491797
% es.Ex (V/m) @ t=0.48
-1.1642497708882913
% es.Ey (V/m) @ t=0.48
0.3698786839680064
% es.Ez (V/m) @ t=0.48
3.019938232849184
% es.tEx (V/m) @ t=0.48
-1.1642497708883055
% es.tEy (V/m) @ t=0.48
0
% es.tEz (V/m) @ t=0.48
3.0199382328491797
% V (V) @ t=0.48
0.015903043971709625
% es.normE (V/m) @ t=0.5
3.306274796898903
% es.EX (V/m) @ t=0.5
-1.1784785479580895
% es.EY (V/m) @ t=0.5
0.37439942501117884
% es.EZ (V/m) @ t=0.5
3.0568467877629883
% es.tEX (V/m) @ t=0.5
-1.1784785479581037
% es.tEY (V/m) @ t=0.5
0
% es.tEZ (V/m) @ t=0.5
3.0568467877629875
% es.Ex (V/m) @ t=0.5
-1.1784785479580895
% es.Ey (V/m) @ t=0.5
0.37439942501117884
% es.Ez (V/m) @ t=0.5
3.0568467877629883
% es.tEx (V/m) @ t=0.5
-1.1784785479581037
% es.tEy (V/m) @ t=0.5
0
% es.tEz (V/m) @ t=0.5
3.0568467877629875
% V (V) @ t=0.5
0.01609737912109961
% es.normE (V/m) @ t=0.52
3.347224294397239
% es.EX (V/m) @ t=0.52
-1.1930741724242482
% es.EY (V/m) @ t=0.52
0.379036804772489
% es.EZ (V/m) @ t=0.52
3.0947070968835435
% es.tEX (V/m) @ t=0.52
-1.1930741724242624
% es.tEY (V/m) @ t=0.52
0
% es.tEZ (V/m) @ t=0.52
3.0947070968835426
% es.Ex (V/m) @ t=0.52
-1.1930741724242482
% es.Ey (V/m) @ t=0.52
0.379036804772489
% es.Ez (V/m) @ t=0.52
3.0947070968835435
% es.tEx (V/m) @ t=0.52
-1.1930741724242624
% es.tEy (V/m) @ t=0.52
0
% es.tEz (V/m) @ t=0.52
3.0947070968835426
% V (V) @ t=0.52
0.01629671819398931
% es.normE (V/m) @ t=0.54
3.3885317558751638
% es.EX (V/m) @ t=0.54
-1.2077973650943954
% es.EY (V/m) @ t=0.54
0.3837147447011886
% es.EZ (V/m) @ t=0.54
3.132898370803127
% es.tEX (V/m) @ t=0.54
-1.2077973650944096
% es.tEY (V/m) @ t=0.54
0
% es.tEZ (V/m) @ t=0.54
3.1328983708031206
% es.Ex (V/m) @ t=0.54
-1.2077973650943954
% es.Ey (V/m) @ t=0.54
0.3837147447011886
% es.Ez (V/m) @ t=0.54
3.132898370803127
% es.tEx (V/m) @ t=0.54
-1.2077973650944096
% es.tEy (V/m) @ t=0.54
0
% es.tEz (V/m) @ t=0.54
3.1328983708031206
% V (V) @ t=0.54
0.01649779734065398
% es.normE (V/m) @ t=0.56
3.430197181332658
% es.EX (V/m) @ t=0.56
-1.222648125968546
% es.EY (V/m) @ t=0.56
0.3884332447971992
% es.EZ (V/m) @ t=0.56
3.1714206095217117
% es.tEX (V/m) @ t=0.56
-1.2226481259685602
% es.tEY (V/m) @ t=0.56
0
% es.tEZ (V/m) @ t=0.56
3.171420609521718
% es.Ex (V/m) @ t=0.56
-1.222648125968546
% es.Ey (V/m) @ t=0.56
0.3884332447971992
% es.Ez (V/m) @ t=0.56
3.1714206095217117
% es.tEx (V/m) @ t=0.56
-1.2226481259685602
% es.tEy (V/m) @ t=0.56
0
% es.tEz (V/m) @ t=0.56
3.171420609521718
% V (V) @ t=0.56
0.016700616561093614
% es.normE (V/m) @ t=0.58
3.47222057076977
% es.EX (V/m) @ t=0.58
-1.2376264550466847
% es.EY (V/m) @ t=0.58
0.3931923050605943
% es.EZ (V/m) @ t=0.58
3.2102738130393282
% es.tEX (V/m) @ t=0.58
-1.2376264550466989
% es.tEY (V/m) @ t=0.58
0
% es.tEZ (V/m) @ t=0.58
3.210273813039329
% es.Ex (V/m) @ t=0.58
-1.2376264550466847
% es.Ey (V/m) @ t=0.58
0.3931923050605943
% es.Ez (V/m) @ t=0.58
3.2102738130393282
% es.tEx (V/m) @ t=0.58
-1.2376264550466989
% es.tEy (V/m) @ t=0.58
0
% es.tEz (V/m) @ t=0.58
3.210273813039329
% V (V) @ t=0.58
0.01690517585530823
% es.normE (V/m) @ t=0.6
3.5146019241864765
% es.EX (V/m) @ t=0.6
-1.2527323523287988
% es.EY (V/m) @ t=0.6
0.3979919254913622
% es.EZ (V/m) @ t=0.6
3.24945798135595
% es.tEX (V/m) @ t=0.6
-1.2527323523288272
% es.tEY (V/m) @ t=0.6
0
% es.tEZ (V/m) @ t=0.6
3.2494579813559525
% es.Ex (V/m) @ t=0.6
-1.2527323523287988
% es.Ey (V/m) @ t=0.6
0.3979919254913622
% es.Ez (V/m) @ t=0.6
3.24945798135595
% es.tEx (V/m) @ t=0.6
-1.2527323523288272
% es.tEy (V/m) @ t=0.6
0
% es.tEz (V/m) @ t=0.6
3.2494579813559525
% V (V) @ t=0.6
0.017111475223297812
% es.normE (V/m) @ t=0.62
3.5573412415828196
% es.EX (V/m) @ t=0.62
-1.2679658178149016
% es.EY (V/m) @ t=0.62
0.40283210608946884
% es.EZ (V/m) @ t=0.62
3.2889731144716086
% es.tEX (V/m) @ t=0.62
-1.2679658178149158
% es.tEY (V/m) @ t=0.62
0
% es.tEZ (V/m) @ t=0.62
3.288973114471599
% es.Ex (V/m) @ t=0.62
-1.2679658178149016
% es.Ey (V/m) @ t=0.62
0.40283210608946884
% es.Ez (V/m) @ t=0.62
3.2889731144716086
% es.tEx (V/m) @ t=0.62
-1.2679658178149158
% es.tEy (V/m) @ t=0.62
0
% es.tEz (V/m) @ t=0.62
3.288973114471599
% V (V) @ t=0.62
0.017319514665062364
% es.normE (V/m) @ t=0.64
3.6004385229588
% es.EX (V/m) @ t=0.64
-1.283326851505021
% es.EY (V/m) @ t=0.64
0.4077128468549427
% es.EZ (V/m) @ t=0.64
3.3288192123862688
% es.tEX (V/m) @ t=0.64
-1.2833268515050351
% es.tEY (V/m) @ t=0.64
0
% es.tEZ (V/m) @ t=0.64
3.3288192123862714
% es.Ex (V/m) @ t=0.64
-1.283326851505021
% es.Ey (V/m) @ t=0.64
0.4077128468549427
% es.Ez (V/m) @ t=0.64
3.3288192123862688
% es.tEx (V/m) @ t=0.64
-1.2833268515050351
% es.tEy (V/m) @ t=0.64
0
% es.tEz (V/m) @ t=0.64
3.3288192123862714
% V (V) @ t=0.64
0.017529294180601892
% es.normE (V/m) @ t=0.66
3.6438937683144346
% es.EX (V/m) @ t=0.66
-1.2988154533991296
% es.EY (V/m) @ t=0.66
0.41263414778778884
% es.EZ (V/m) @ t=0.66
3.3689962750999536
% es.tEX (V/m) @ t=0.66
-1.2988154533991438
% es.tEY (V/m) @ t=0.66
0
% es.tEZ (V/m) @ t=0.66
3.368996275099958
% es.Ex (V/m) @ t=0.66
-1.2988154533991296
% es.Ey (V/m) @ t=0.66
0.41263414778778884
% es.Ez (V/m) @ t=0.66
3.3689962750999536
% es.tEx (V/m) @ t=0.66
-1.2988154533991438
% es.tEy (V/m) @ t=0.66
0
% es.tEz (V/m) @ t=0.66
3.368996275099958
% V (V) @ t=0.66
0.017740813769916392
% es.normE (V/m) @ t=0.68
3.6877069776497535
% es.EX (V/m) @ t=0.68
-1.3144316234972553
% es.EY (V/m) @ t=0.68
0.41759600888795667
% es.EZ (V/m) @ t=0.68
3.4095043026126683
% es.tEX (V/m) @ t=0.68
-1.3144316234972695
% es.tEY (V/m) @ t=0.68
0
% es.tEZ (V/m) @ t=0.68
3.409504302612678
% es.Ex (V/m) @ t=0.68
-1.3144316234972553
% es.Ey (V/m) @ t=0.68
0.41759600888795667
% es.Ez (V/m) @ t=0.68
3.4095043026126683
% es.tEx (V/m) @ t=0.68
-1.3144316234972695
% es.tEy (V/m) @ t=0.68
0
% es.tEz (V/m) @ t=0.68
3.409504302612678
% V (V) @ t=0.68
0.017954073433005865
% es.normE (V/m) @ t=0.7
3.7318781509647097
% es.EX (V/m) @ t=0.7
-1.3301753617993128
% es.EY (V/m) @ t=0.7
0.4225984301555328
% es.EZ (V/m) @ t=0.7
3.4503432949243775
% es.tEX (V/m) @ t=0.7
-1.330175361799327
% es.tEY (V/m) @ t=0.7
0
% es.tEZ (V/m) @ t=0.7
3.4503432949243837
% es.Ex (V/m) @ t=0.7
-1.3301753617993128
% es.Ey (V/m) @ t=0.7
0.4225984301555328
% es.Ez (V/m) @ t=0.7
3.4503432949243775
% es.tEx (V/m) @ t=0.7
-1.330175361799327
% es.tEy (V/m) @ t=0.7
0
% es.tEz (V/m) @ t=0.7
3.4503432949243837
% V (V) @ t=0.7
0.01816907316987031
% es.normE (V/m) @ t=0.72
3.7764072882593833
% es.EX (V/m) @ t=0.72
-1.3460466683053947
% es.EY (V/m) @ t=0.72
0.4276414115904421
% es.EZ (V/m) @ t=0.72
3.4915132520351166
% es.tEX (V/m) @ t=0.72
-1.346046668305416
% es.tEY (V/m) @ t=0.72
0
% es.tEZ (V/m) @ t=0.72
3.4915132520351193
% es.Ex (V/m) @ t=0.72
-1.3460466683053947
% es.Ey (V/m) @ t=0.72
0.4276414115904421
% es.Ez (V/m) @ t=0.72
3.4915132520351166
% es.tEx (V/m) @ t=0.72
-1.346046668305416
% es.tEy (V/m) @ t=0.72
0
% es.tEz (V/m) @ t=0.72
3.4915132520351193
% V (V) @ t=0.72
0.01838581298050972
% es.normE (V/m) @ t=0.74
3.8212943895337763
% es.EX (V/m) @ t=0.74
-1.3620455430154939
% es.EY (V/m) @ t=0.74
0.4327249531926922
% es.EZ (V/m) @ t=0.74
3.533014173944885
% es.tEX (V/m) @ t=0.74
-1.3620455430155223
% es.tEY (V/m) @ t=0.74
0
% es.tEZ (V/m) @ t=0.74
3.533014173944885
% es.Ex (V/m) @ t=0.74
-1.3620455430154939
% es.Ey (V/m) @ t=0.74
0.4327249531926922
% es.Ez (V/m) @ t=0.74
3.533014173944885
% es.tEx (V/m) @ t=0.74
-1.3620455430155223
% es.tEy (V/m) @ t=0.74
0
% es.tEz (V/m) @ t=0.74
3.533014173944885
% V (V) @ t=0.74
0.01860429286492411
% es.normE (V/m) @ t=0.76
3.867209299090557
% es.EX (V/m) @ t=0.76
-1.3784114118692425
% es.EY (V/m) @ t=0.76
0.4379242001036219
% es.EZ (V/m) @ t=0.76
3.5754652028046863
% es.tEX (V/m) @ t=0.76
-1.378411411869278
% es.tEY (V/m) @ t=0.76
0
% es.tEZ (V/m) @ t=0.76
3.5754652028046863
% es.Ex (V/m) @ t=0.76
-1.3784114118692425
% es.Ey (V/m) @ t=0.76
0.4379242001036219
% es.Ez (V/m) @ t=0.76
3.5754652028046863
% es.tEx (V/m) @ t=0.76
-1.378411411869278
% es.tEy (V/m) @ t=0.76
0
% es.tEz (V/m) @ t=0.76
3.5754652028046863
% V (V) @ t=0.76
0.018827853297706105
% es.normE (V/m) @ t=0.78
3.913598550884321
% es.EX (V/m) @ t=0.78
-1.394946446613981
% es.EY (V/m) @ t=0.78
0.44317706284359826
% es.EZ (V/m) @ t=0.78
3.618354765766254
% es.tEX (V/m) @ t=0.78
-1.3949464466140093
% es.tEY (V/m) @ t=0.78
0
% es.tEZ (V/m) @ t=0.78
3.618354765766263
% es.Ex (V/m) @ t=0.78
-1.394946446613981
% es.Ey (V/m) @ t=0.78
0.44317706284359826
% es.Ez (V/m) @ t=0.78
3.618354765766254
% es.tEx (V/m) @ t=0.78
-1.3949464466140093
% es.tEy (V/m) @ t=0.78
0
% es.tEz (V/m) @ t=0.78
3.618354765766263
% V (V) @ t=0.78
0.01905373417586612
% es.normE (V/m) @ t=0.8
3.9604485771089206
% es.EX (V/m) @ t=0.8
-1.4116457976379972
% es.EY (V/m) @ t=0.8
0.4484820193354291
% es.EZ (V/m) @ t=0.8
3.66167032200382
% es.tEX (V/m) @ t=0.8
-1.4116457976380115
% es.tEY (V/m) @ t=0.8
0
% es.tEZ (V/m) @ t=0.8
3.6616703220038183
% es.Ex (V/m) @ t=0.8
-1.4116457976379972
% es.Ey (V/m) @ t=0.8
0.4484820193354291
% es.Ez (V/m) @ t=0.8
3.66167032200382
% es.tEx (V/m) @ t=0.8
-1.4116457976380115
% es.tEy (V/m) @ t=0.8
0
% es.tEz (V/m) @ t=0.8
3.6616703220038183
% V (V) @ t=0.8
0.01928186783754376
% es.normE (V/m) @ t=0.82
4.007759377764393
% es.EX (V/m) @ t=0.82
-1.428509464941334
% es.EY (V/m) @ t=0.82
0.45383906957913744
% es.EZ (V/m) @ t=0.82
3.7054118715173647
% es.tEX (V/m) @ t=0.82
-1.428509464941341
% es.tEY (V/m) @ t=0.82
0
% es.tEZ (V/m) @ t=0.82
3.705411871517377
% es.Ex (V/m) @ t=0.82
-1.428509464941334
% es.Ey (V/m) @ t=0.82
0.45383906957913744
% es.Ez (V/m) @ t=0.82
3.7054118715173647
% es.tEx (V/m) @ t=0.82
-1.428509464941341
% es.tEy (V/m) @ t=0.82
0
% es.tEz (V/m) @ t=0.82
3.705411871517377
% V (V) @ t=0.82
0.019512254282739026
% es.normE (V/m) @ t=0.84
4.055530952850825
% es.EX (V/m) @ t=0.84
-1.4455374485239696
% es.EY (V/m) @ t=0.84
0.4592482135747664
% es.EZ (V/m) @ t=0.84
3.7495794143069325
% es.tEX (V/m) @ t=0.84
-1.4455374485239838
% es.tEY (V/m) @ t=0.84
0
% es.tEZ (V/m) @ t=0.84
3.7495794143069254
% es.Ex (V/m) @ t=0.84
-1.4455374485239696
% es.Ey (V/m) @ t=0.84
0.4592482135747664
% es.Ez (V/m) @ t=0.84
3.7495794143069325
% es.tEx (V/m) @ t=0.84
-1.4455374485239838
% es.tEy (V/m) @ t=0.84
0
% es.tEz (V/m) @ t=0.84
3.7495794143069254
% V (V) @ t=0.84
0.019744893511451922
% es.normE (V/m) @ t=0.86
4.103763302368217
% es.EX (V/m) @ t=0.86
-1.462729748385905
% es.EY (V/m) @ t=0.86
0.4647094513222805
% es.EZ (V/m) @ t=0.86
3.7941729503724613
% es.tEX (V/m) @ t=0.86
-1.4627297483859405
% es.tEY (V/m) @ t=0.86
0
% es.tEZ (V/m) @ t=0.86
3.7941729503724666
% es.Ex (V/m) @ t=0.86
-1.462729748385905
% es.Ey (V/m) @ t=0.86
0.4647094513222805
% es.Ez (V/m) @ t=0.86
3.7941729503724613
% es.tEx (V/m) @ t=0.86
-1.4627297483859405
% es.tEy (V/m) @ t=0.86
0
% es.tEz (V/m) @ t=0.86
3.7941729503724666
% V (V) @ t=0.86
0.019979785523682448
% es.normE (V/m) @ t=0.88
4.152456426316692
% es.EX (V/m) @ t=0.88
-1.4800863645271614
% es.EY (V/m) @ t=0.88
0.47022278282160457
% es.EZ (V/m) @ t=0.88
3.839192479714013
% es.tEX (V/m) @ t=0.88
-1.4800863645271827
% es.tEY (V/m) @ t=0.88
0
% es.tEZ (V/m) @ t=0.88
3.8391924797140113
% es.Ex (V/m) @ t=0.88
-1.4800863645271614
% es.Ey (V/m) @ t=0.88
0.47022278282160457
% es.Ez (V/m) @ t=0.88
3.839192479714013
% es.tEx (V/m) @ t=0.88
-1.4800863645271827
% es.tEy (V/m) @ t=0.88
0
% es.tEz (V/m) @ t=0.88
3.8391924797140113
% V (V) @ t=0.88
0.020216930319430594
% es.normE (V/m) @ t=0.9
4.201610324696292
% es.EX (V/m) @ t=0.9
-1.4976072969477376
% es.EY (V/m) @ t=0.9
0.4757882080728657
% es.EZ (V/m) @ t=0.9
3.884638002331547
% es.tEX (V/m) @ t=0.9
-1.4976072969477519
% es.tEY (V/m) @ t=0.9
0
% es.tEZ (V/m) @ t=0.9
3.884638002331535
% es.Ex (V/m) @ t=0.9
-1.4976072969477376
% es.Ey (V/m) @ t=0.9
0.4757882080728657
% es.Ez (V/m) @ t=0.9
3.884638002331547
% es.tEx (V/m) @ t=0.9
-1.4976072969477519
% es.tEy (V/m) @ t=0.9
0
% es.tEz (V/m) @ t=0.9
3.884638002331535
% V (V) @ t=0.9
0.020456327898696367
% es.normE (V/m) @ t=0.92
4.25122499750713
% es.EX (V/m) @ t=0.92
-1.515292545647635
% es.EY (V/m) @ t=0.92
0.48140572707599194
% es.EZ (V/m) @ t=0.92
3.930509518225108
% es.tEX (V/m) @ t=0.92
-1.5152925456476491
% es.tEY (V/m) @ t=0.92
0
% es.tEZ (V/m) @ t=0.92
3.9305095182251115
% es.Ex (V/m) @ t=0.92
-1.515292545647635
% es.Ey (V/m) @ t=0.92
0.48140572707599194
% es.Ez (V/m) @ t=0.92
3.930509518225108
% es.tEx (V/m) @ t=0.92
-1.5152925456476491
% es.tEy (V/m) @ t=0.92
0
% es.tEz (V/m) @ t=0.92
3.9305095182251115
% V (V) @ t=0.92
0.02069797826147977
% es.normE (V/m) @ t=0.94
4.301300444749206
% es.EX (V/m) @ t=0.94
-1.5331421106267888
% es.EY (V/m) @ t=0.94
0.48707533983102946
% es.EZ (V/m) @ t=0.94
3.9768070273946243
% es.tEX (V/m) @ t=0.94
-1.5331421106268173
% es.tEY (V/m) @ t=0.94
0
% es.tEZ (V/m) @ t=0.94
3.9768070273946208
% es.Ex (V/m) @ t=0.94
-1.5331421106267888
% es.Ey (V/m) @ t=0.94
0.48707533983102946
% es.Ez (V/m) @ t=0.94
3.9768070273946243
% es.tEx (V/m) @ t=0.94
-1.5331421106268173
% es.tEy (V/m) @ t=0.94
0
% es.tEz (V/m) @ t=0.94
3.9768070273946208
% V (V) @ t=0.94
0.020941881407780805
% es.normE (V/m) @ t=0.96
4.351836666422692
% es.EX (V/m) @ t=0.96
-1.5511559918852984
% es.EY (V/m) @ t=0.96
0.49279704633788457
% es.EZ (V/m) @ t=0.96
4.023530529840157
% es.tEX (V/m) @ t=0.96
-1.5511559918853268
% es.tEY (V/m) @ t=0.96
0
% es.tEZ (V/m) @ t=0.96
4.023530529840155
% es.Ex (V/m) @ t=0.96
-1.5511559918852984
% es.Ey (V/m) @ t=0.96
0.49279704633788457
% es.Ez (V/m) @ t=0.96
4.023530529840157
% es.tEx (V/m) @ t=0.96
-1.5511559918853268
% es.tEy (V/m) @ t=0.96
0
% es.tEz (V/m) @ t=0.96
4.023530529840155
% V (V) @ t=0.96
0.02118803733759946
% es.normE (V/m) @ t=0.98
4.402833662527655
% es.EX (V/m) @ t=0.98
-1.5693341894231148
% es.EY (V/m) @ t=0.98
0.49857084659664785
% es.EZ (V/m) @ t=0.98
4.070680025561691
% es.tEX (V/m) @ t=0.98
-1.5693341894231503
% es.tEY (V/m) @ t=0.98
0
% es.tEZ (V/m) @ t=0.98
4.070680025561689
% es.Ex (V/m) @ t=0.98
-1.5693341894231148
% es.Ey (V/m) @ t=0.98
0.49857084659664785
% es.Ez (V/m) @ t=0.98
4.070680025561691
% es.tEx (V/m) @ t=0.98
-1.5693341894231503
% es.tEy (V/m) @ t=0.98
0
% es.tEz (V/m) @ t=0.98
4.070680025561689
% V (V) @ t=0.98
0.021436446050935743
% es.normE (V/m) @ t=1
4.454518037671386
% es.EX (V/m) @ t=1
-1.5877569160981637
% es.EY (V/m) @ t=1
0.5044229896518115
% es.EZ (V/m) @ t=1
4.1184651645908055
% es.tEX (V/m) @ t=1
-1.587756916098178
% es.tEY (V/m) @ t=1
0
% es.tEZ (V/m) @ t=1
4.118465164590809
% es.Ex (V/m) @ t=1
-1.5877569160981637
% es.Ey (V/m) @ t=1
0.5044229896518115
% es.Ez (V/m) @ t=1
4.1184651645908055
% es.tEx (V/m) @ t=1
-1.587756916098178
% es.tEy (V/m) @ t=1
0
% es.tEz (V/m) @ t=1
4.118465164590809
% V (V) @ t=1
0.021688144934472114
% es.normE (V/m) @ t=1.02
4.5068347361764935
% es.EX (V/m) @ t=1.02
-1.6064046834576573
% es.EY (V/m) @ t=1.02
0.5103470980560618
% es.EZ (V/m) @ t=1.02
4.166835010520817
% es.tEX (V/m) @ t=1.02
-1.6064046834576928
% es.tEY (V/m) @ t=1.02
0
% es.tEZ (V/m) @ t=1.02
4.1668350105208205
% es.Ex (V/m) @ t=1.02
-1.6064046834576573
% es.Ey (V/m) @ t=1.02
0.5103470980560618
% es.Ez (V/m) @ t=1.02
4.166835010520817
% es.tEx (V/m) @ t=1.02
-1.6064046834576928
% es.tEy (V/m) @ t=1.02
0
% es.tEz (V/m) @ t=1.02
4.1668350105208205
% V (V) @ t=1.02
0.02194288194555672
% es.normE (V/m) @ t=1.04
4.559666677294183
% es.EX (V/m) @ t=1.04
-1.6252360475892698
% es.EY (V/m) @ t=1.04
0.5163296096061192
% es.EZ (V/m) @ t=1.04
4.2156812425944175
% es.tEX (V/m) @ t=1.04
-1.625236047589284
% es.tEY (V/m) @ t=1.04
0
% es.tEZ (V/m) @ t=1.04
4.215681242594432
% es.Ex (V/m) @ t=1.04
-1.6252360475892698
% es.Ey (V/m) @ t=1.04