% Model:              1 neuron.mph
% Version:            COMSOL 6.0.0.405
% Date:               Mar 16 2023, 20:01
% Dimension:          0
% Nodes:              14017
% Expressions:        14017
% Description:        Electric field norm, Electric field, X component, Electric field, Y component, Electric field, Z component, Tangential electric field, X component, Tangential electric field, Y component, Tangential electric field, Z component, Electric field, x component, Electric field, y component, Electric field, z component, Tangential electric field, x component, Tangential electric field, y component, Tangential electric field, z component, Electric potential
% Length unit:        mm
% x
1.33
% y
12.2
% z
1.33
% es.normE (V/m) @ t=0
14.43092306825478
% es.EX (V/m) @ t=0
11.182294040378723
% es.EY (V/m) @ t=0
-1.7134583413839266
% es.EZ (V/m) @ t=0
8.933438336437975
% es.tEX (V/m) @ t=0
11.182294040378782
% es.tEY (V/m) @ t=0
0
% es.tEZ (V/m) @ t=0
8.933438336437973
% es.Ex (V/m) @ t=0
11.182294040378723
% es.Ey (V/m) @ t=0
-1.7134583413839266
% es.Ez (V/m) @ t=0
8.933438336437975
% es.tEx (V/m) @ t=0
11.182294040378782
% es.tEy (V/m) @ t=0
0
% es.tEz (V/m) @ t=0
8.933438336437973
% V (V) @ t=0
0.01191752906651785
% es.normE (V/m) @ t=0.02
12.505628582710493
% es.EX (V/m) @ t=0.02
9.69041380653781
% es.EY (V/m) @ t=0.02
-1.484858015161107
% es.EZ (V/m) @ t=0.02
7.741588083824412
% es.tEX (V/m) @ t=0.02
9.69041380653783
% es.tEY (V/m) @ t=0.02
0
% es.tEZ (V/m) @ t=0.02
7.741588083824398
% es.Ex (V/m) @ t=0.02
9.69041380653781
% es.Ey (V/m) @ t=0.02
-1.484858015161107
% es.Ez (V/m) @ t=0.02
7.741588083824412
% es.tEx (V/m) @ t=0.02
9.69041380653783
% es.tEy (V/m) @ t=0.02
0
% es.tEz (V/m) @ t=0.02
7.741588083824398
% V (V) @ t=0.02
0.010327557636110476
% es.normE (V/m) @ t=0.04
12.662938713431727
% es.EX (V/m) @ t=0.04
9.81231096280628
% es.EY (V/m) @ t=0.04
-1.5035360416210448
% es.EZ (V/m) @ t=0.04
7.838970679629103
% es.tEX (V/m) @ t=0.04
9.812310962806308
% es.tEY (V/m) @ t=0.04
0
% es.tEZ (V/m) @ t=0.04
7.838970679629106
% es.Ex (V/m) @ t=0.04
9.81231096280628
% es.Ey (V/m) @ t=0.04
-1.5035360416210448
% es.Ez (V/m) @ t=0.04
7.838970679629103
% es.tEx (V/m) @ t=0.04
9.812310962806308
% es.tEy (V/m) @ t=0.04
0
% es.tEz (V/m) @ t=0.04
7.838970679629106
% V (V) @ t=0.04
0.010457469204738971
% es.normE (V/m) @ t=0.06
12.821703008916973
% es.EX (V/m) @ t=0.06
9.935334951805862
% es.EY (V/m) @ t=0.06
-1.5223865490799984
% es.EZ (V/m) @ t=0.06
7.937253490973192
% es.tEX (V/m) @ t=0.06
9.93533495180591
% es.tEY (V/m) @ t=0.06
0
% es.tEZ (V/m) @ t=0.06
7.937253490973191
% es.Ex (V/m) @ t=0.06
9.935334951805862
% es.Ey (V/m) @ t=0.06
-1.5223865490799984
% es.Ez (V/m) @ t=0.06
7.937253490973192
% es.tEx (V/m) @ t=0.06
9.93533495180591
% es.tEy (V/m) @ t=0.06
0
% es.tEz (V/m) @ t=0.06
7.937253490973191
% V (V) @ t=0.06
0.010588581433494025
% es.normE (V/m) @ t=0.08
12.985454611685313
% es.EX (V/m) @ t=0.08
10.062223433650349
% es.EY (V/m) @ t=0.08
-1.5418299299894223
% es.EZ (V/m) @ t=0.08
8.03862361920893
% es.tEX (V/m) @ t=0.08
10.062223433650383
% es.tEY (V/m) @ t=0.08
0
% es.tEZ (V/m) @ t=0.08
8.038623619208924
% es.Ex (V/m) @ t=0.08
10.062223433650349
% es.Ey (V/m) @ t=0.08
-1.5418299299894223
% es.Ez (V/m) @ t=0.08
8.03862361920893
% es.tEx (V/m) @ t=0.08
10.062223433650383
% es.tEy (V/m) @ t=0.08
0
% es.tEz (V/m) @ t=0.08
8.038623619208924
% V (V) @ t=0.08
0.010723813273437799
% es.normE (V/m) @ t=0.1
13.14969711606526
% es.EX (V/m) @ t=0.1
10.1894922982661
% es.EY (V/m) @ t=0.1
-1.5613316675461633
% es.EZ (V/m) @ t=0.1
8.140297632637962
% es.tEX (V/m) @ t=0.1
10.18949229826614
% es.tEY (V/m) @ t=0.1
0
% es.tEZ (V/m) @ t=0.1
8.140297632637953
% es.Ex (V/m) @ t=0.1
10.1894922982661
% es.Ey (V/m) @ t=0.1
-1.5613316675461633
% es.Ez (V/m) @ t=0.1
8.140297632637962
% es.tEx (V/m) @ t=0.1
10.18949229826614
% es.tEy (V/m) @ t=0.1
0
% es.tEz (V/m) @ t=0.1
8.140297632637953
% V (V) @ t=0.1
0.010859450607500327
% es.normE (V/m) @ t=0.12
13.313939620445273
% es.EX (V/m) @ t=0.12
10.316761162881892
% es.EY (V/m) @ t=0.12
-1.580833405102954
% es.EZ (V/m) @ t=0.12
8.241971646067
% es.tEX (V/m) @ t=0.12
10.316761162881953
% es.tEY (V/m) @ t=0.12
0
% es.tEZ (V/m) @ t=0.12
8.241971646066986
% es.Ex (V/m) @ t=0.12
10.316761162881892
% es.Ey (V/m) @ t=0.12
-1.580833405102954
% es.Ez (V/m) @ t=0.12
8.241971646067
% es.tEx (V/m) @ t=0.12
10.316761162881953
% es.tEy (V/m) @ t=0.12
0
% es.tEz (V/m) @ t=0.12
8.241971646066986
% V (V) @ t=0.12
0.010995087941562854
% es.normE (V/m) @ t=0.14
13.487917949965826
% es.EX (V/m) @ t=0.14
10.451573952596416
% es.EY (V/m) @ t=0.14
-1.601492734076368
% es.EZ (V/m) @ t=0.14
8.349672452901828
% es.tEX (V/m) @ t=0.14
10.451573952596412
% es.tEY (V/m) @ t=0.14
0
% es.tEZ (V/m) @ t=0.14
8.349672452901824
% es.Ex (V/m) @ t=0.14
10.451573952596416
% es.Ey (V/m) @ t=0.14
-1.601492734076368
% es.Ez (V/m) @ t=0.14
8.349672452901828
% es.tEx (V/m) @ t=0.14
10.451573952596412
% es.tEy (V/m) @ t=0.14
0
% es.tEz (V/m) @ t=0.14
8.349672452901824
% V (V) @ t=0.14
0.011138767558812462
% es.normE (V/m) @ t=0.16
13.663893114946735
% es.EX (V/m) @ t=0.16
10.587934015081874
% es.EY (V/m) @ t=0.16
-1.622389487156628
% es.EZ (V/m) @ t=0.16
8.458609366035557
% es.tEX (V/m) @ t=0.16
10.587934015081924
% es.tEY (V/m) @ t=0.16
0
% es.tEZ (V/m) @ t=0.16
8.458609366035551
% es.Ex (V/m) @ t=0.16
10.587934015081874
% es.Ey (V/m) @ t=0.16
-1.622389487156628
% es.Ez (V/m) @ t=0.16
8.458609366035557
% es.tEx (V/m) @ t=0.16
10.587934015081924
% es.tEy (V/m) @ t=0.16
0
% es.tEz (V/m) @ t=0.16
8.458609366035551
% V (V) @ t=0.16
0.011284096662984203
% es.normE (V/m) @ t=0.18
13.839868279928403
% es.EX (V/m) @ t=0.18
10.72429407756742
% es.EY (V/m) @ t=0.18
-1.6432862402368809
% es.EZ (V/m) @ t=0.18
8.567546279169317
% es.tEX (V/m) @ t=0.18
10.72429407756746
% es.tEY (V/m) @ t=0.18
0
% es.tEZ (V/m) @ t=0.18
8.56754627916932
% es.Ex (V/m) @ t=0.18
10.72429407756742
% es.Ey (V/m) @ t=0.18
-1.6432862402368809
% es.Ez (V/m) @ t=0.18
8.567546279169317
% es.tEx (V/m) @ t=0.18
10.72429407756746
% es.tEy (V/m) @ t=0.18
0
% es.tEz (V/m) @ t=0.18
8.56754627916932
% V (V) @ t=0.18
0.011429425767155943
% es.normE (V/m) @ t=0.2
14.01584344491068
% es.EX (V/m) @ t=0.2
10.860654140052915
% es.EY (V/m) @ t=0.2
-1.664182993317139
% es.EZ (V/m) @ t=0.2
8.67648319230308
% es.tEX (V/m) @ t=0.2
10.86065414005297
% es.tEY (V/m) @ t=0.2
0
% es.tEZ (V/m) @ t=0.2
8.676483192303102
% es.Ex (V/m) @ t=0.2
10.860654140052915
% es.Ey (V/m) @ t=0.2
-1.664182993317139
% es.Ez (V/m) @ t=0.2
8.67648319230308
% es.tEx (V/m) @ t=0.2
10.86065414005297
% es.tEy (V/m) @ t=0.2
0
% es.tEz (V/m) @ t=0.2
8.676483192303102
% V (V) @ t=0.2
0.01157475487132768
% es.normE (V/m) @ t=0.22
14.191818609893575
% es.EX (V/m) @ t=0.22
10.997014202538402
% es.EY (V/m) @ t=0.22
-1.685079746397438
% es.EZ (V/m) @ t=0.22
8.78542010543684
% es.tEX (V/m) @ t=0.22
10.997014202538423
% es.tEY (V/m) @ t=0.22
0
% es.tEZ (V/m) @ t=0.22
8.78542010543683
% es.Ex (V/m) @ t=0.22
10.997014202538402
% es.Ey (V/m) @ t=0.22
-1.685079746397438
% es.Ez (V/m) @ t=0.22
8.78542010543684
% es.tEx (V/m) @ t=0.22
10.997014202538423
% es.tEy (V/m) @ t=0.22
0
% es.tEz (V/m) @ t=0.22
8.78542010543683
% V (V) @ t=0.22
0.011720083975499418
% es.normE (V/m) @ t=0.24
14.36779377487703
% es.EX (V/m) @ t=0.24
11.13337426502386
% es.EY (V/m) @ t=0.24
-1.7059764994777122
% es.EZ (V/m) @ t=0.24
8.894357018570581
% es.tEX (V/m) @ t=0.24
11.133374265023905
% es.tEY (V/m) @ t=0.24
0
% es.tEZ (V/m) @ t=0.24
8.894357018570584
% es.Ex (V/m) @ t=0.24
11.13337426502386
% es.Ey (V/m) @ t=0.24
-1.7059764994777122
% es.Ez (V/m) @ t=0.24
8.894357018570581
% es.tEx (V/m) @ t=0.24
11.133374265023905
% es.tEy (V/m) @ t=0.24
0
% es.tEz (V/m) @ t=0.24
8.894357018570584
% V (V) @ t=0.24
0.011865413079671157
% es.normE (V/m) @ t=0.26
14.552151243643916
% es.EX (V/m) @ t=0.26
11.276229798966025
% es.EY (V/m) @ t=0.26
-1.727867330235128
% es.EZ (V/m) @ t=0.26
9.008483097441765
% es.tEX (V/m) @ t=0.26
11.276229798966096
% es.tEY (V/m) @ t=0.26
0
% es.tEZ (V/m) @ t=0.26
9.008483097441761
% es.Ex (V/m) @ t=0.26
11.276229798966025
% es.Ey (V/m) @ t=0.26
-1.727867330235128
% es.Ez (V/m) @ t=0.26
9.008483097441765
% es.tEx (V/m) @ t=0.26
11.276229798966096
% es.tEy (V/m) @ t=0.26
0
% es.tEz (V/m) @ t=0.26
9.008483097441761
% V (V) @ t=0.26
0.012017662985919674
% es.normE (V/m) @ t=0.28
14.740662832577776
% es.EX (V/m) @ t=0.28
11.422304372645963
% es.EY (V/m) @ t=0.28
-1.7502508081493744
% es.EZ (V/m) @ t=0.28
9.125180834248317
% es.tEX (V/m) @ t=0.28
11.422304372646014
% es.tEY (V/m) @ t=0.28
0
% es.tEZ (V/m) @ t=0.28
9.125180834248305
% es.Ex (V/m) @ t=0.28
11.422304372645963
% es.Ey (V/m) @ t=0.28
-1.7502508081493744
% es.Ez (V/m) @ t=0.28
9.125180834248317
% es.tEx (V/m) @ t=0.28
11.422304372646014
% es.tEy (V/m) @ t=0.28
0
% es.tEz (V/m) @ t=0.28
9.125180834248305
% V (V) @ t=0.28
0.012173342718171118
% es.normE (V/m) @ t=0.3
14.929174421511643
% es.EX (V/m) @ t=0.3
11.568378946325915
% es.EY (V/m) @ t=0.3
-1.7726342860636084
% es.EZ (V/m) @ t=0.3
9.24187857105484
% es.tEX (V/m) @ t=0.3
11.568378946325936
% es.tEY (V/m) @ t=0.3
0
% es.tEZ (V/m) @ t=0.3
9.241878571054837
% es.Ex (V/m) @ t=0.3
11.568378946325915
% es.Ey (V/m) @ t=0.3
-1.7726342860636084
% es.Ez (V/m) @ t=0.3
9.24187857105484
% es.tEx (V/m) @ t=0.3
11.568378946325936
% es.tEy (V/m) @ t=0.3
0
% es.tEz (V/m) @ t=0.3
9.241878571054837
% V (V) @ t=0.3
0.01232902245042256
% es.normE (V/m) @ t=0.32
15.117686010445627
% es.EX (V/m) @ t=0.32
11.714453520005979
% es.EY (V/m) @ t=0.32
-1.795017763977846
% es.EZ (V/m) @ t=0.32
9.35857630786139
% es.tEX (V/m) @ t=0.32
11.714453520005996
% es.tEY (V/m) @ t=0.32
0
% es.tEZ (V/m) @ t=0.32
9.358576307861382
% es.Ex (V/m) @ t=0.32
11.714453520005979
% es.Ey (V/m) @ t=0.32
-1.795017763977846
% es.Ez (V/m) @ t=0.32
9.35857630786139
% es.tEx (V/m) @ t=0.32
11.714453520005996
% es.tEy (V/m) @ t=0.32
0
% es.tEz (V/m) @ t=0.32
9.358576307861382
% V (V) @ t=0.32
0.012484702182674005
% es.normE (V/m) @ t=0.34
15.306197599379534
% es.EX (V/m) @ t=0.34
11.860528093685929
% es.EY (V/m) @ t=0.34
-1.8174012418921208
% es.EZ (V/m) @ t=0.34
9.475274044667936
% es.tEX (V/m) @ t=0.34
11.860528093685947
% es.tEY (V/m) @ t=0.34
0
% es.tEZ (V/m) @ t=0.34
9.475274044667913
% es.Ex (V/m) @ t=0.34
11.860528093685929
% es.Ey (V/m) @ t=0.34
-1.8174012418921208
% es.Ez (V/m) @ t=0.34
9.475274044667936
% es.tEx (V/m) @ t=0.34
11.860528093685947
% es.tEy (V/m) @ t=0.34
0
% es.tEz (V/m) @ t=0.34
9.475274044667913
% V (V) @ t=0.34
0.012640381914925452
% es.normE (V/m) @ t=0.36
15.494709188313426
% es.EX (V/m) @ t=0.36
12.006602667365867
% es.EY (V/m) @ t=0.36
-1.8397847198063513
% es.EZ (V/m) @ t=0.36
9.59197178147446
% es.tEX (V/m) @ t=0.36
12.00660266736595
% es.tEY (V/m) @ t=0.36
0
% es.tEZ (V/m) @ t=0.36
9.591971781474458
% es.Ex (V/m) @ t=0.36
12.006602667365867
% es.Ey (V/m) @ t=0.36
-1.8397847198063513
% es.Ez (V/m) @ t=0.36
9.59197178147446
% es.tEx (V/m) @ t=0.36
12.00660266736595
% es.tEy (V/m) @ t=0.36
0
% es.tEz (V/m) @ t=0.36
9.591971781474458
% V (V) @ t=0.36
0.012796061647176896
% es.normE (V/m) @ t=0.38
15.690005849551154
% es.EX (V/m) @ t=0.38
12.157934912591184
% es.EY (V/m) @ t=0.38
-1.8629736204972893
% es.EZ (V/m) @ t=0.38
9.712869825824377
% es.tEX (V/m) @ t=0.38
12.15793491259124
% es.tEY (V/m) @ t=0.38
0
% es.tEZ (V/m) @ t=0.38
9.712869825824367
% es.Ex (V/m) @ t=0.38
12.157934912591184
% es.Ey (V/m) @ t=0.38
-1.8629736204972893
% es.Ez (V/m) @ t=0.38
9.712869825824377
% es.tEx (V/m) @ t=0.38
12.15793491259124
% es.tEy (V/m) @ t=0.38
0
% es.tEz (V/m) @ t=0.38
9.712869825824367
% V (V) @ t=0.38
0.012957344445311266
% es.normE (V/m) @ t=0.4
15.891887921516375
% es.EX (V/m) @ t=0.4
12.314370113989398
% es.EY (V/m) @ t=0.4
-1.8869442431148649
% es.EZ (V/m) @ t=0.4
9.837844576967775
% es.tEX (V/m) @ t=0.4
12.314370113989424
% es.tEY (V/m) @ t=0.4
0
% es.tEZ (V/m) @ t=0.4
9.837844576967763
% es.Ex (V/m) @ t=0.4
12.314370113989398
% es.Ey (V/m) @ t=0.4
-1.8869442431148649
% es.Ez (V/m) @ t=0.4
9.837844576967775
% es.tEx (V/m) @ t=0.4
12.314370113989424
% es.tEy (V/m) @ t=0.4
0
% es.tEz (V/m) @ t=0.4
9.837844576967763
% V (V) @ t=0.4
0.013124065430176761
% es.normE (V/m) @ t=0.42
16.093769993481544
% es.EX (V/m) @ t=0.42
12.470805315387587
% es.EY (V/m) @ t=0.42
-1.9109148657324475
% es.EZ (V/m) @ t=0.42
9.962819328111122
% es.tEX (V/m) @ t=0.42
12.470805315387667
% es.tEY (V/m) @ t=0.42
0
% es.tEZ (V/m) @ t=0.42
9.962819328111118
% es.Ex (V/m) @ t=0.42
12.470805315387587
% es.Ey (V/m) @ t=0.42
-1.9109148657324475
% es.Ez (V/m) @ t=0.42
9.962819328111122
% es.tEx (V/m) @ t=0.42
12.470805315387667
% es.tEy (V/m) @ t=0.42
0
% es.tEz (V/m) @ t=0.42
9.962819328111118
% V (V) @ t=0.42
0.01329078641504226
% es.normE (V/m) @ t=0.44
16.295652065446724
% es.EX (V/m) @ t=0.44
12.627240516785756
% es.EY (V/m) @ t=0.44
-1.9348854883499644
% es.EZ (V/m) @ t=0.44
10.087794079254513
% es.tEX (V/m) @ t=0.44
12.627240516785795
% es.tEY (V/m) @ t=0.44
0
% es.tEZ (V/m) @ t=0.44
10.087794079254502
% es.Ex (V/m) @ t=0.44
12.627240516785756
% es.Ey (V/m) @ t=0.44
-1.9348854883499644
% es.Ez (V/m) @ t=0.44
10.087794079254513
% es.tEx (V/m) @ t=0.44
12.627240516785795
% es.tEy (V/m) @ t=0.44
0
% es.tEz (V/m) @ t=0.44
10.087794079254502
% V (V) @ t=0.44
0.013457507399907755
% es.normE (V/m) @ t=0.46
16.497534137411918
% es.EX (V/m) @ t=0.46
12.78367571818396
% es.EY (V/m) @ t=0.46
-1.9588561109675187
% es.EZ (V/m) @ t=0.46
10.212768830397884
% es.tEX (V/m) @ t=0.46
12.783675718184007
% es.tEY (V/m) @ t=0.46
0
% es.tEZ (V/m) @ t=0.46
10.212768830397886
% es.Ex (V/m) @ t=0.46
12.78367571818396
% es.Ey (V/m) @ t=0.46
-1.9588561109675187
% es.Ez (V/m) @ t=0.46
10.212768830397884
% es.tEx (V/m) @ t=0.46
12.783675718184007
% es.tEy (V/m) @ t=0.46
0
% es.tEz (V/m) @ t=0.46
10.212768830397886
% V (V) @ t=0.46
0.01362422838477325
% es.normE (V/m) @ t=0.48
16.699416209377084
% es.EX (V/m) @ t=0.48
12.94011091958213
% es.EY (V/m) @ t=0.48
-1.9828267335851262
% es.EZ (V/m) @ t=0.48
10.33774358154124
% es.tEX (V/m) @ t=0.48
12.940110919582192
% es.tEY (V/m) @ t=0.48
0
% es.tEZ (V/m) @ t=0.48
10.337743581541243
% es.Ex (V/m) @ t=0.48
12.94011091958213
% es.Ey (V/m) @ t=0.48
-1.9828267335851262
% es.Ez (V/m) @ t=0.48
10.33774358154124
% es.tEx (V/m) @ t=0.48
12.940110919582192
% es.tEy (V/m) @ t=0.48
0
% es.tEz (V/m) @ t=0.48
10.337743581541243
% V (V) @ t=0.48
0.013790949369638747
% es.normE (V/m) @ t=0.5
16.90335481572356
% es.EX (V/m) @ t=0.5
13.098139728542998
% es.EY (V/m) @ t=0.5
-2.0070412977669907
% es.EZ (V/m) @ t=0.5
10.463991450014383
% es.tEX (V/m) @ t=0.5
13.098139728543023
% es.tEY (V/m) @ t=0.5
0
% es.tEZ (V/m) @ t=0.5
10.463991450014387
% es.Ex (V/m) @ t=0.5
13.098139728542998
% es.Ey (V/m) @ t=0.5
-2.0070412977669907
% es.Ez (V/m) @ t=0.5
10.463991450014383
% es.tEx (V/m) @ t=0.5
13.098139728543023
% es.tEy (V/m) @ t=0.5
0
% es.tEz (V/m) @ t=0.5
10.463991450014387
% V (V) @ t=0.5
0.01395936838944054
% es.normE (V/m) @ t=0.52
17.11240414595208
% es.EX (V/m) @ t=0.52
13.260128835130372
% es.EY (V/m) @ t=0.52
-2.0318620847232793
% es.EZ (V/m) @ t=0.52
10.59340316111578
% es.tEX (V/m) @ t=0.52
13.260128835130443
% es.tEY (V/m) @ t=0.52
0
% es.tEZ (V/m) @ t=0.52
10.593403161115782
% es.Ex (V/m) @ t=0.52
13.260128835130372
% es.Ey (V/m) @ t=0.52
-2.0318620847232793
% es.Ez (V/m) @ t=0.52
10.59340316111578
% es.tEx (V/m) @ t=0.52
13.260128835130443
% es.tEy (V/m) @ t=0.52
0
% es.tEz (V/m) @ t=0.52
10.593403161115782
% V (V) @ t=0.52
0.014132007220873297
% es.normE (V/m) @ t=0.54
17.323278654187526
% es.EX (V/m) @ t=0.54
13.423532271330386
% es.EY (V/m) @ t=0.54
-2.056899370261892
% es.EZ (V/m) @ t=0.54
10.723944766164735
% es.tEX (V/m) @ t=0.54
13.423532271330412
% es.tEY (V/m) @ t=0.54
0
% es.tEZ (V/m) @ t=0.54
10.723944766164717
% es.Ex (V/m) @ t=0.54
13.423532271330386
% es.Ey (V/m) @ t=0.54
-2.056899370261892
% es.Ez (V/m) @ t=0.54
10.723944766164735
% es.tEx (V/m) @ t=0.54
13.423532271330412
% es.tEy (V/m) @ t=0.54
0
% es.tEz (V/m) @ t=0.54
10.723944766164717
% V (V) @ t=0.54
0.014306153061402866
% es.normE (V/m) @ t=0.56
17.53597834042987
% es.EX (V/m) @ t=0.56
13.588350037142916
% es.EY (V/m) @ t=0.56
-2.0821531543828655
% es.EZ (V/m) @ t=0.56
10.855616265161228
% es.tEX (V/m) @ t=0.56
13.588350037142959
% es.tEY (V/m) @ t=0.56
0
% es.tEZ (V/m) @ t=0.56
10.855616265161222
% es.Ex (V/m) @ t=0.56
13.588350037142916
% es.Ey (V/m) @ t=0.56
-2.0821531543828655
% es.Ez (V/m) @ t=0.56
10.855616265161228
% es.tEx (V/m) @ t=0.56
13.588350037142959
% es.tEy (V/m) @ t=0.56
0
% es.tEz (V/m) @ t=0.56
10.855616265161222
% V (V) @ t=0.56
0.014481805911029245
% es.normE (V/m) @ t=0.58
17.750503204679408
% es.EX (V/m) @ t=0.58
13.754582132568185
% es.EY (V/m) @ t=0.58
-2.1076234370862608
% es.EZ (V/m) @ t=0.58
10.988417658105318
% es.tEX (V/m) @ t=0.58
13.754582132568196
% es.tEY (V/m) @ t=0.58
0
% es.tEZ (V/m) @ t=0.58
10.988417658105313
% es.Ex (V/m) @ t=0.58
13.754582132568185
% es.Ey (V/m) @ t=0.58
-2.1076234370862608
% es.Ez (V/m) @ t=0.58
10.988417658105318
% es.tEx (V/m) @ t=0.58
13.754582132568196
% es.tEy (V/m) @ t=0.58
0
% es.tEz (V/m) @ t=0.58
10.988417658105313
% V (V) @ t=0.58
0.014658965769752447
% es.normE (V/m) @ t=0.6
17.966853246936026
% es.EX (V/m) @ t=0.6
13.922228557606015
% es.EY (V/m) @ t=0.6
-2.1333102183718573
% es.EZ (V/m) @ t=0.6
11.12234894499693
% es.tEX (V/m) @ t=0.6
13.92222855760604
% es.tEY (V/m) @ t=0.6
0
% es.tEZ (V/m) @ t=0.6
11.122348944996942
% es.Ex (V/m) @ t=0.6
13.922228557606015
% es.Ey (V/m) @ t=0.6
-2.1333102183718573
% es.Ez (V/m) @ t=0.6
11.12234894499693
% es.tEx (V/m) @ t=0.6
13.92222855760604
% es.tEy (V/m) @ t=0.6
0
% es.tEz (V/m) @ t=0.6
11.122348944996942
% V (V) @ t=0.6
0.014837632637572458
% es.normE (V/m) @ t=0.62
18.18502846719991
% es.EX (V/m) @ t=0.62
14.091289312256434
% es.EY (V/m) @ t=0.62
-2.1592134982398186
% es.EZ (V/m) @ t=0.62
11.257410125836131
% es.tEX (V/m) @ t=0.62
14.091289312256489
% es.tEY (V/m) @ t=0.62
0
% es.tEZ (V/m) @ t=0.62
11.257410125836126
% es.Ex (V/m) @ t=0.62
14.091289312256434
% es.Ey (V/m) @ t=0.62
-2.1592134982398186
% es.Ez (V/m) @ t=0.62
11.257410125836131
% es.tEx (V/m) @ t=0.62
14.091289312256489
% es.tEy (V/m) @ t=0.62
0
% es.tEz (V/m) @ t=0.62
11.257410125836126
% V (V) @ t=0.62
0.01501780651448929
% es.normE (V/m) @ t=0.64
18.405028865471163
% es.EX (V/m) @ t=0.64
14.261764396519471
% es.EY (V/m) @ t=0.64
-2.1853332766901197
% es.EZ (V/m) @ t=0.64
11.393601200622868
% es.tEX (V/m) @ t=0.64
14.261764396519517
% es.tEY (V/m) @ t=0.64
0
% es.tEZ (V/m) @ t=0.64
11.393601200622866
% es.Ex (V/m) @ t=0.64
14.261764396519471
% es.Ey (V/m) @ t=0.64
-2.1853332766901197
% es.Ez (V/m) @ t=0.64
11.393601200622868
% es.tEx (V/m) @ t=0.64
14.261764396519517
% es.tEy (V/m) @ t=0.64
0
% es.tEz (V/m) @ t=0.64
11.393601200622866
% V (V) @ t=0.64
0.015199487400502934
% es.normE (V/m) @ t=0.66
18.6268544417499
% es.EX (V/m) @ t=0.66
14.433653810395096
% es.EY (V/m) @ t=0.66
-2.211669553722782
% es.EZ (V/m) @ t=0.66
11.530922169357181
% es.tEX (V/m) @ t=0.66
14.43365381039515
% es.tEY (V/m) @ t=0.66
0
% es.tEZ (V/m) @ t=0.66
11.53092216935719
% es.Ex (V/m) @ t=0.66
14.433653810395096
% es.Ey (V/m) @ t=0.66
-2.211669553722782
% es.Ez (V/m) @ t=0.66
11.530922169357181
% es.tEx (V/m) @ t=0.66
14.43365381039515
% es.tEy (V/m) @ t=0.66
0
% es.tEz (V/m) @ t=0.66
11.53092216935719
% V (V) @ t=0.66
0.015382675295613392
% es.normE (V/m) @ t=0.68
18.850505196036252
% es.EX (V/m) @ t=0.68
14.606957553883325
% es.EY (V/m) @ t=0.68
-2.2382223293377876
% es.EZ (V/m) @ t=0.68
11.669373032039069
% es.tEX (V/m) @ t=0.68
14.606957553883387
% es.tEY (V/m) @ t=0.68
0
% es.tEZ (V/m) @ t=0.68
11.669373032039056
% es.Ex (V/m) @ t=0.68
14.606957553883325
% es.Ey (V/m) @ t=0.68
-2.2382223293377876
% es.Ez (V/m) @ t=0.68
11.669373032039069
% es.tEx (V/m) @ t=0.68
14.606957553883387
% es.tEy (V/m) @ t=0.68
0
% es.tEz (V/m) @ t=0.68
11.669373032039056
% V (V) @ t=0.68
0.015567370199820671
% es.normE (V/m) @ t=0.7
19.07598112833049
% es.EX (V/m) @ t=0.7
14.781675626984313
% es.EY (V/m) @ t=0.7
-2.2649916035350515
% es.EZ (V/m) @ t=0.7
11.808953788668527
% es.tEX (V/m) @ t=0.7
14.781675626984374
% es.tEY (V/m) @ t=0.7
0
% es.tEZ (V/m) @ t=0.7
11.808953788668504
% es.Ex (V/m) @ t=0.7
14.781675626984313
% es.Ey (V/m) @ t=0.7
-2.2649916035350515
% es.Ez (V/m) @ t=0.7
11.808953788668527
% es.tEx (V/m) @ t=0.7
14.781675626984374
% es.tEy (V/m) @ t=0.7
0
% es.tEz (V/m) @ t=0.7
11.808953788668504
% V (V) @ t=0.7
0.015753572113124756
% es.normE (V/m) @ t=0.72
19.303282238632477
% es.EX (V/m) @ t=0.72
14.957808029697777
% es.EY (V/m) @ t=0.72
-2.291977376314712
% es.EZ (V/m) @ t=0.72
11.94966443924549
% es.tEX (V/m) @ t=0.72
14.957808029697851
% es.tEY (V/m) @ t=0.72
0
% es.tEZ (V/m) @ t=0.72
11.949664439245495
% es.Ex (V/m) @ t=0.72
14.957808029697777
% es.Ey (V/m) @ t=0.72
-2.291977376314712
% es.Ez (V/m) @ t=0.72
11.94966443924549
% es.tEx (V/m) @ t=0.72
14.957808029697851
% es.tEy (V/m) @ t=0.72
0
% es.tEz (V/m) @ t=0.72
11.949664439245495
% V (V) @ t=0.72
0.015941281035525664
% es.normE (V/m) @ t=0.74
19.532485700312712
% es.EX (V/m) @ t=0.74
15.135414543807801
% es.EY (V/m) @ t=0.74
-2.31918895289623
% es.EZ (V/m) @ t=0.74
12.091552744217102
% es.tEX (V/m) @ t=0.74
15.135414543807862
% es.tEY (V/m) @ t=0.74
0
% es.tEZ (V/m) @ t=0.74
12.09155274421709
% es.Ex (V/m) @ t=0.74
15.135414543807801
% es.Ey (V/m) @ t=0.74
-2.31918895289623
% es.Ez (V/m) @ t=0.74
12.091552744217102
% es.tEx (V/m) @ t=0.74
15.135414543807862
% es.tEy (V/m) @ t=0.74
0
% es.tEz (V/m) @ t=0.74
12.09155274421709
% V (V) @ t=0.74
0.016130560886682303
% es.normE (V/m) @ t=0.76
19.766925491659876
% es.EX (V/m) @ t=0.76
15.317077811089671
% es.EY (V/m) @ t=0.76
-2.3470283294581087
% es.EZ (V/m) @ t=0.76
12.236682009787216
% es.tEX (V/m) @ t=0.76
15.31707781108971
% es.tEY (V/m) @ t=0.76
0
% es.tEZ (V/m) @ t=0.76
12.236682009787215
% es.Ex (V/m) @ t=0.76
15.317077811089671
% es.Ey (V/m) @ t=0.76
-2.3470283294581087
% es.Ez (V/m) @ t=0.76
12.236682009787216
% es.tEx (V/m) @ t=0.76
15.31707781108971
% es.tEy (V/m) @ t=0.76
0
% es.tEz (V/m) @ t=0.76
12.236682009787215
% V (V) @ t=0.76
0.016324173069325102
% es.normE (V/m) @ t=0.78
20.00371226482141
% es.EX (V/m) @ t=0.78
15.500559619466856
% es.EY (V/m) @ t=0.78
-2.3751471213695403
% es.EZ (V/m) @ t=0.78
12.383264099131113
% es.tEX (V/m) @ t=0.78
15.500559619466912
% es.tEY (V/m) @ t=0.78
0
% es.tEZ (V/m) @ t=0.78
12.383264099131111
% es.Ex (V/m) @ t=0.78
15.500559619466856
% es.Ey (V/m) @ t=0.78
-2.3751471213695403
% es.Ez (V/m) @ t=0.78
12.383264099131113
% es.tEx (V/m) @ t=0.78
15.500559619466912
% es.tEy (V/m) @ t=0.78
0
% es.tEz (V/m) @ t=0.78
12.383264099131111
% V (V) @ t=0.78
0.016519724450578043
% es.normE (V/m) @ t=0.8
20.242846019798197
% es.EX (V/m) @ t=0.8
15.68585996893944
% es.EY (V/m) @ t=0.8
-2.4035453286305675
% es.EZ (V/m) @ t=0.8
12.531299012248937
% es.tEX (V/m) @ t=0.8
15.685859968939496
% es.tEY (V/m) @ t=0.8
0
% es.tEZ (V/m) @ t=0.8
12.531299012248962
% es.Ex (V/m) @ t=0.8
15.68585996893944
% es.Ey (V/m) @ t=0.8
-2.4035453286305675
% es.Ez (V/m) @ t=0.8
12.531299012248937
% es.tEx (V/m) @ t=0.8
15.685859968939496
% es.tEy (V/m) @ t=0.8
0
% es.tEz (V/m) @ t=0.8
12.531299012248962
% V (V) @ t=0.8
0.01671721503044113
% es.normE (V/m) @ t=0.82
20.484326756590924
% es.EX (V/m) @ t=0.82
15.872978859507281
% es.EY (V/m) @ t=0.82
-2.432222951241066
% es.EZ (V/m) @ t=0.82
12.68078674914059
% es.tEX (V/m) @ t=0.82
15.872978859507407
% es.tEY (V/m) @ t=0.82
0
% es.tEZ (V/m) @ t=0.82
12.680786749140612
% es.Ex (V/m) @ t=0.82
15.872978859507281
% es.Ey (V/m) @ t=0.82
-2.432222951241066
% es.Ez (V/m) @ t=0.82
12.68078674914059
% es.tEx (V/m) @ t=0.82
15.872978859507407
% es.tEy (V/m) @ t=0.82
0
% es.tEz (V/m) @ t=0.82
12.680786749140612
% V (V) @ t=0.82
0.016916644808914357
% es.normE (V/m) @ t=0.84
20.72815447520066
% es.EX (V/m) @ t=0.84
16.06191629117041
% es.EY (V/m) @ t=0.84
-2.461179989201181
% es.EZ (V/m) @ t=0.84
12.83172730980621
% es.tEX (V/m) @ t=0.84
16.06191629117053
% es.tEY (V/m) @ t=0.84
0
% es.tEZ (V/m) @ t=0.84
12.831727309806205
% es.Ex (V/m) @ t=0.84
16.06191629117041
% es.Ey (V/m) @ t=0.84
-2.461179989201181
% es.Ez (V/m) @ t=0.84
12.83172730980621
% es.tEx (V/m) @ t=0.84
16.06191629117053
% es.tEy (V/m) @ t=0.84
0
% es.tEz (V/m) @ t=0.84
12.831727309806205
% V (V) @ t=0.84
0.017118013785997723
% es.normE (V/m) @ t=0.86
20.974329175628306
% es.EX (V/m) @ t=0.86
16.25267226392878
% es.EY (V/m) @ t=0.86
-2.4904164425107425
% es.EZ (V/m) @ t=0.86
12.984120694245643
% es.tEX (V/m) @ t=0.86
16.252672263928837
% es.tEY (V/m) @ t=0.86
0
% es.tEZ (V/m) @ t=0.86
12.984120694245636
% es.Ex (V/m) @ t=0.86
16.25267226392878
% es.Ey (V/m) @ t=0.86
-2.4904164425107425
% es.Ez (V/m) @ t=0.86
12.984120694245643
% es.tEx (V/m) @ t=0.86
16.252672263928837
% es.tEy (V/m) @ t=0.86
0
% es.tEz (V/m) @ t=0.86
12.984120694245636
% V (V) @ t=0.86
0.017321321961691238
% es.normE (V/m) @ t=0.88
21.2228508578752
% es.EX (V/m) @ t=0.88
16.44524677778254
% es.EY (V/m) @ t=0.88
-2.5199323111699385
% es.EZ (V/m) @ t=0.88
13.137966902458977
% es.tEX (V/m) @ t=0.88
16.445246777782607
% es.tEY (V/m) @ t=0.88
0
% es.tEZ (V/m) @ t=0.88
13.137966902458968
% es.Ex (V/m) @ t=0.88
16.44524677778254
% es.Ey (V/m) @ t=0.88
-2.5199323111699385
% es.Ez (V/m) @ t=0.88
13.137966902458977
% es.tEx (V/m) @ t=0.88
16.445246777782607
% es.tEy (V/m) @ t=0.88
0
% es.tEz (V/m) @ t=0.88
13.137966902458968
% V (V) @ t=0.88
0.017526569335994894
% es.normE (V/m) @ t=0.9
21.47371952194259
% es.EX (V/m) @ t=0.9
16.63963983273174
% es.EY (V/m) @ t=0.9
-2.549727595178716
% es.EZ (V/m) @ t=0.9
13.2932659344462
% es.tEX (V/m) @ t=0.9
16.63963983273185
% es.tEY (V/m) @ t=0.9
0
% es.tEZ (V/m) @ t=0.9
13.293265934446156
% es.Ex (V/m) @ t=0.9
16.63963983273174
% es.Ey (V/m) @ t=0.9
-2.549727595178716
% es.Ez (V/m) @ t=0.9
13.2932659344462
% es.tEx (V/m) @ t=0.9
16.63963983273185
% es.tEy (V/m) @ t=0.9
0
% es.tEz (V/m) @ t=0.9
13.293265934446156
% V (V) @ t=0.9
0.017733755908908695
% es.normE (V/m) @ t=0.92
21.72693516783138
% es.EX (V/m) @ t=0.92
16.83585142877597
% es.EY (V/m) @ t=0.92
-2.5798022945369112
% es.EZ (V/m) @ t=0.92
13.450017790207193
% es.tEX (V/m) @ t=0.92
16.835851428776017
% es.tEY (V/m) @ t=0.92
0
% es.tEZ (V/m) @ t=0.92
13.450017790207212
% es.Ex (V/m) @ t=0.92
16.83585142877597
% es.Ey (V/m) @ t=0.92
-2.5798022945369112
% es.Ez (V/m) @ t=0.92
13.450017790207193
% es.tEx (V/m) @ t=0.92
16.835851428776017
% es.tEy (V/m) @ t=0.92
0
% es.tEz (V/m) @ t=0.92
13.450017790207212
% V (V) @ t=0.92
0.017942881680432635
% es.normE (V/m) @ t=0.94
21.9824977955435
% es.EX (V/m) @ t=0.94
17.0338815659158
% es.EY (V/m) @ t=0.94
-2.6101564092447056
% es.EZ (V/m) @ t=0.94
13.608222469742124
% es.tEX (V/m) @ t=0.94
17.03388156591588
% es.tEY (V/m) @ t=0.94
0
% es.tEZ (V/m) @ t=0.94
13.608222469742113
% es.Ex (V/m) @ t=0.94
17.0338815659158
% es.Ey (V/m) @ t=0.94
-2.6101564092447056
% es.Ez (V/m) @ t=0.94
13.608222469742124
% es.tEx (V/m) @ t=0.94
17.03388156591588
% es.tEy (V/m) @ t=0.94
0
% es.tEz (V/m) @ t=0.94
13.608222469742113
% V (V) @ t=0.94
0.01815394665056672
% es.normE (V/m) @ t=0.96
22.24040740508004
% es.EX (V/m) @ t=0.96
17.233730244150745
% es.EY (V/m) @ t=0.96
-2.6407899393020955
% es.EZ (V/m) @ t=0.96
13.767879973050997
% es.tEX (V/m) @ t=0.96
17.233730244150784
% es.tEY (V/m) @ t=0.96
0
% es.tEZ (V/m) @ t=0.96
13.76787997305098
% es.Ex (V/m) @ t=0.96
17.233730244150745
% es.Ey (V/m) @ t=0.96
-2.6407899393020955
% es.Ez (V/m) @ t=0.96
13.767879973050997
% es.tEx (V/m) @ t=0.96
17.233730244150784
% es.tEy (V/m) @ t=0.96
0
% es.tEz (V/m) @ t=0.96
13.76787997305098
% V (V) @ t=0.96
0.01836695081931095
% es.normE (V/m) @ t=0.98
22.500663996442405
% es.EX (V/m) @ t=0.98
17.43539746348085
% es.EY (V/m) @ t=0.98
-2.671702884709031
% es.EZ (V/m) @ t=0.98
13.928990300133623
% es.tEX (V/m) @ t=0.98
17.435397463480903
% es.tEY (V/m) @ t=0.98
0
% es.tEZ (V/m) @ t=0.98
13.928990300133622
% es.Ex (V/m) @ t=0.98
17.43539746348085
% es.Ey (V/m) @ t=0.98
-2.671702884709031
% es.Ez (V/m) @ t=0.98
13.928990300133623
% es.tEx (V/m) @ t=0.98
17.435397463480903
% es.tEy (V/m) @ t=0.98
0
% es.tEz (V/m) @ t=0.98
13.928990300133622
% V (V) @ t=0.98
0.018581894186665313
% es.normE (V/m) @ t=1
22.76454683390258
% es.EX (V/m) @ t=1
17.639876247132435
% es.EY (V/m) @ t=1
-2.7030338565800562
% es.EZ (V/m) @ t=1
14.09234665116318
% es.tEX (V/m) @ t=1
17.639876247132495
% es.tEY (V/m) @ t=1
0
% es.tEZ (V/m) @ t=1
14.092346651163156
% es.Ex (V/m) @ t=1
17.639876247132435
% es.Ey (V/m) @ t=1
-2.7030338565800562
% es.Ez (V/m) @ t=1
14.09234665116318
% es.tEx (V/m) @ t=1
17.639876247132495
% es.tEy (V/m) @ t=1
0
% es.tEz (V/m) @ t=1
14.092346651163156
% V (V) @ t=1
0.018799815689761336
% es.normE (V/m) @ t=1.02
23.031558911542724
% es.EX (V/m) @ t=1.02
17.84678079646313
% es.EY (V/m) @ t=1.02
-2.734729003224526
% es.EZ (V/m) @ t=1.02
14.257640860588545
% es.tEX (V/m) @ t=1.02
17.84678079646322
% es.tEY (V/m) @ t=1.02
0
% es.tEZ (V/m) @ t=1.02
14.257640860588564
% es.Ex (V/m) @ t=1.02
17.84678079646313
% es.Ey (V/m) @ t=1.02
-2.734729003224526
% es.Ez (V/m) @ t=1.02
14.257640860588545
% es.tEx (V/m) @ t=1.02
17.84678079646322
% es.tEy (V/m) @ t=1.02
0
% es.tEz (V/m) @ t=1.02
14.257640860588564
% V (V) @ t=1.02
0.019020311691983028
% es.normE (V/m) @ t=1.04
23.3011979631061
% es.EX (V/m) @ t=1.04
18.055721229511807
% es.EY (V/m) @ t=1.04
-2.766733902981496
% es.EZ (V/m) @ t=1.04
14.42456150121354
% es.tEX (V/m) @ t=1.04
18.055721229511885
% es.tEY (V/m) @ t=1.04
0
% es.tEZ (V/m) @ t=1.04
14.424561501213532
% es.Ex (V/m) @ t=1.04
18.055721229511807
% es.Ey (V/m) @ t=1.04
-2.766733902981496
% es.Ez (V/m) @ t=1.04
14.42456150121354
% es.tEx (V/m) @ t=1.04
18.055721229511885
% es.tEy (V/m) @ t=1.04
0
% es.tEz (V/m) @ t=1.04
14.424561501213532
% V (V) @ t=1.04
0.01924297428459698
% es.normE (V/m) @ t=1.06