% Model:              1 neuron.mph
% Version:            COMSOL 6.0.0.405
% Date:               Mar 16 2023, 20:01
% Dimension:          0
% Nodes:              14017
% Expressions:        14017
% Description:        Electric field norm, Electric field, X component, Electric field, Y component, Electric field, Z component, Tangential electric field, X component, Tangential electric field, Y component, Tangential electric field, Z component, Electric field, x component, Electric field, y component, Electric field, z component, Tangential electric field, x component, Tangential electric field, y component, Tangential electric field, z component, Electric potential
% Length unit:        mm
% x
2
% y
12.2
% z
1.6599999999999997
% es.normE (V/m) @ t=0
2.350252661730474
% es.EX (V/m) @ t=0
-2.2709655421265875
% es.EY (V/m) @ t=0
0.17494709900148964
% es.EZ (V/m) @ t=0
-0.5788080036484624
% es.tEX (V/m) @ t=0
-2.270965542126568
% es.tEY (V/m) @ t=0
0
% es.tEZ (V/m) @ t=0
-0.5788080036484686
% es.Ex (V/m) @ t=0
-2.2709655421265875
% es.Ey (V/m) @ t=0
0.17494709900148964
% es.Ez (V/m) @ t=0
-0.5788080036484624
% es.tEx (V/m) @ t=0
-2.270965542126568
% es.tEy (V/m) @ t=0
0
% es.tEz (V/m) @ t=0
-0.5788080036484686
% V (V) @ t=0
0.013620204469010603
% es.normE (V/m) @ t=0.02
2.036694877964729
% es.EX (V/m) @ t=0.02
-1.9679858115516522
% es.EY (V/m) @ t=0.02
0.1516066242614198
% es.EZ (V/m) @ t=0.02
-0.5015866149549231
% es.tEX (V/m) @ t=0.02
-1.9679858115516495
% es.tEY (V/m) @ t=0.02
0
% es.tEZ (V/m) @ t=0.02
-0.5015866149549275
% es.Ex (V/m) @ t=0.02
-1.9679858115516522
% es.Ey (V/m) @ t=0.02
0.1516066242614198
% es.Ez (V/m) @ t=0.02
-0.5015866149549231
% es.tEx (V/m) @ t=0.02
-1.9679858115516495
% es.tEy (V/m) @ t=0.02
0
% es.tEz (V/m) @ t=0.02
-0.5015866149549275
% V (V) @ t=0.02
0.011803071445726012
% es.normE (V/m) @ t=0.04
2.0623147863228377
% es.EX (V/m) @ t=0.04
-1.992741419590497
% es.EY (V/m) @ t=0.04
0.153513716387917
% es.EZ (V/m) @ t=0.04
-0.507896142806108
% es.tEX (V/m) @ t=0.04
-1.9927414195904891
% es.tEY (V/m) @ t=0.04
0
% es.tEZ (V/m) @ t=0.04
-0.5078961428061
% es.Ex (V/m) @ t=0.04
-1.992741419590497
% es.Ey (V/m) @ t=0.04
0.153513716387917
% es.Ez (V/m) @ t=0.04
-0.507896142806108
% es.tEx (V/m) @ t=0.04
-1.9927414195904891
% es.tEy (V/m) @ t=0.04
0
% es.tEz (V/m) @ t=0.04
-0.5078961428061
% V (V) @ t=0.04
0.011951543728101961
% es.normE (V/m) @ t=0.06
2.088171541339415
% es.EX (V/m) @ t=0.06
-2.0177258844225108
% es.EY (V/m) @ t=0.06
0.1554384451849471
% es.EZ (V/m) @ t=0.06
-0.5142639971434595
% es.tEX (V/m) @ t=0.06
-2.017725884422502
% es.tEY (V/m) @ t=0.06
0
% es.tEZ (V/m) @ t=0.06
-0.5142639971434484
% es.Ex (V/m) @ t=0.06
-2.0177258844225108
% es.Ey (V/m) @ t=0.06
0.1554384451849471
% es.Ez (V/m) @ t=0.06
-0.5142639971434595
% es.tEx (V/m) @ t=0.06
-2.017725884422502
% es.tEy (V/m) @ t=0.06
0
% es.tEz (V/m) @ t=0.06
-0.5142639971434484
% V (V) @ t=0.06
0.012101388251034377
% es.normE (V/m) @ t=0.08
2.114840469831121
% es.EX (V/m) @ t=0.08
-2.043495122656309
% es.EY (V/m) @ t=0.08
0.1574236052295721
% es.EZ (V/m) @ t=0.08
-0.5208318797881164
% es.tEX (V/m) @ t=0.08
-2.043495122656301
% es.tEY (V/m) @ t=0.08
0
% es.tEZ (V/m) @ t=0.08
-0.5208318797881191
% es.Ex (V/m) @ t=0.08
-2.043495122656309
% es.Ey (V/m) @ t=0.08
0.1574236052295721
% es.Ez (V/m) @ t=0.08
-0.5208318797881164
% es.tEx (V/m) @ t=0.08
-2.043495122656301
% es.tEy (V/m) @ t=0.08
0
% es.tEz (V/m) @ t=0.08
-0.5208318797881191
% V (V) @ t=0.08
0.012255940802301732
% es.normE (V/m) @ t=0.1
2.1415893407135824
% es.EX (V/m) @ t=0.1
-2.069341606286385
% es.EY (V/m) @ t=0.1
0.159414713533495
% es.EZ (V/m) @ t=0.1
-0.5274194512574129
% es.tEX (V/m) @ t=0.1
-2.0693416062863825
% es.tEY (V/m) @ t=0.1
0
% es.tEZ (V/m) @ t=0.1
-0.5274194512573871
% es.Ex (V/m) @ t=0.1
-2.069341606286385
% es.Ey (V/m) @ t=0.1
0.159414713533495
% es.Ez (V/m) @ t=0.1
-0.5274194512574129
% es.tEx (V/m) @ t=0.1
-2.0693416062863825
% es.tEy (V/m) @ t=0.1
0
% es.tEz (V/m) @ t=0.1
-0.5274194512573871
% V (V) @ t=0.1
0.012410956765700292
% es.normE (V/m) @ t=0.12
2.168338211596047
% es.EX (V/m) @ t=0.12
-2.095188089916477
% es.EY (V/m) @ t=0.12
0.16140582183739682
% es.EZ (V/m) @ t=0.12
-0.5340070227266644
% es.tEX (V/m) @ t=0.12
-2.095188089916487
% es.tEY (V/m) @ t=0.12
0
% es.tEZ (V/m) @ t=0.12
-0.5340070227266747
% es.Ex (V/m) @ t=0.12
-2.095188089916477
% es.Ey (V/m) @ t=0.12
0.16140582183739682
% es.Ez (V/m) @ t=0.12
-0.5340070227266644
% es.tEx (V/m) @ t=0.12
-2.095188089916487
% es.tEy (V/m) @ t=0.12
0
% es.tEz (V/m) @ t=0.12
-0.5340070227266747
% V (V) @ t=0.12
0.012565972729098856
% es.normE (V/m) @ t=0.14
2.196672519330817
% es.EX (V/m) @ t=0.14
-2.1225665226888086
% es.EY (V/m) @ t=0.14
0.16351488932511604
% es.EZ (V/m) @ t=0.14
-0.5409850709826358
% es.tEX (V/m) @ t=0.14
-2.1225665226888175
% es.tEY (V/m) @ t=0.14
0
% es.tEZ (V/m) @ t=0.14
-0.5409850709826252
% es.Ex (V/m) @ t=0.14
-2.1225665226888086
% es.Ey (V/m) @ t=0.14
0.16351488932511604
% es.Ez (V/m) @ t=0.14
-0.5409850709826358
% es.tEx (V/m) @ t=0.14
-2.1225665226888175
% es.tEy (V/m) @ t=0.14
0
% es.tEz (V/m) @ t=0.14
-0.5409850709826252
% V (V) @ t=0.14
0.012730179628357112
% es.normE (V/m) @ t=0.16
2.2253320030501484
% es.EX (V/m) @ t=0.16
-2.150259161018994
% es.EY (V/m) @ t=0.16
0.1656481504561791
% es.EZ (V/m) @ t=0.16
-0.5480432067383858
% es.tEX (V/m) @ t=0.16
-2.150259161019001
% es.tEY (V/m) @ t=0.16
0
% es.tEZ (V/m) @ t=0.16
-0.5480432067383862
% es.Ex (V/m) @ t=0.16
-2.150259161018994
% es.Ey (V/m) @ t=0.16
0.1656481504561791
% es.Ez (V/m) @ t=0.16
-0.5480432067383858
% es.tEx (V/m) @ t=0.16
-2.150259161019001
% es.tEy (V/m) @ t=0.16
0
% es.tEz (V/m) @ t=0.16
-0.5480432067383862
% V (V) @ t=0.16
0.012896271605291694
% es.normE (V/m) @ t=0.18
2.253991486769504
% es.EX (V/m) @ t=0.18
-2.1779517993492012
% es.EY (V/m) @ t=0.18
0.1677814115872448
% es.EZ (V/m) @ t=0.18
-0.5551013424941296
% es.tEX (V/m) @ t=0.18
-2.1779517993491844
% es.tEY (V/m) @ t=0.18
0
% es.tEZ (V/m) @ t=0.18
-0.5551013424941296
% es.Ex (V/m) @ t=0.18
-2.1779517993492012
% es.Ey (V/m) @ t=0.18
0.1677814115872448
% es.Ez (V/m) @ t=0.18
-0.5551013424941296
% es.tEx (V/m) @ t=0.18
-2.1779517993491844
% es.tEy (V/m) @ t=0.18
0
% es.tEz (V/m) @ t=0.18
-0.5551013424941296
% V (V) @ t=0.18
0.013062363582226282
% es.normE (V/m) @ t=0.2
2.282650970488837
% es.EX (V/m) @ t=0.2
-2.2056444376793793
% es.EY (V/m) @ t=0.2
0.16991467271830962
% es.EZ (V/m) @ t=0.2
-0.5621594782498813
% es.tEX (V/m) @ t=0.2
-2.2056444376793785
% es.tEY (V/m) @ t=0.2
0
% es.tEZ (V/m) @ t=0.2
-0.5621594782498711
% es.Ex (V/m) @ t=0.2
-2.2056444376793793
% es.Ey (V/m) @ t=0.2
0.16991467271830962
% es.Ez (V/m) @ t=0.2
-0.5621594782498813
% es.tEx (V/m) @ t=0.2
-2.2056444376793785
% es.tEy (V/m) @ t=0.2
0
% es.tEz (V/m) @ t=0.2
-0.5621594782498711
% V (V) @ t=0.2
0.01322845555916086
% es.normE (V/m) @ t=0.22
2.311310454208182
% es.EX (V/m) @ t=0.22
-2.233337076009567
% es.EY (V/m) @ t=0.22
0.1720479338493709
% es.EZ (V/m) @ t=0.22
-0.569217614005626
% es.tEX (V/m) @ t=0.22
-2.2333370760095654
% es.tEY (V/m) @ t=0.22
0
% es.tEZ (V/m) @ t=0.22
-0.5692176140056198
% es.Ex (V/m) @ t=0.22
-2.233337076009567
% es.Ey (V/m) @ t=0.22
0.1720479338493709
% es.Ez (V/m) @ t=0.22
-0.569217614005626
% es.tEx (V/m) @ t=0.22
-2.2333370760095654
% es.tEy (V/m) @ t=0.22
0
% es.tEz (V/m) @ t=0.22
-0.5692176140056198
% V (V) @ t=0.22
0.013394547536095446
% es.normE (V/m) @ t=0.24
2.3399699379275565
% es.EX (V/m) @ t=0.24
-2.2610297143397826
% es.EY (V/m) @ t=0.24
0.17418119498043572
% es.EZ (V/m) @ t=0.24
-0.5762757497613689
% es.tEX (V/m) @ t=0.24
-2.2610297143397915
% es.tEY (V/m) @ t=0.24
0
% es.tEZ (V/m) @ t=0.24
-0.5762757497613791
% es.Ex (V/m) @ t=0.24
-2.2610297143397826
% es.Ey (V/m) @ t=0.24
0.17418119498043572
% es.Ez (V/m) @ t=0.24
-0.5762757497613689
% es.tEx (V/m) @ t=0.24
-2.2610297143397915
% es.tEy (V/m) @ t=0.24
0
% es.tEz (V/m) @ t=0.24
-0.5762757497613791
% V (V) @ t=0.24
0.013560639513030028
% es.normE (V/m) @ t=0.26
2.3699947035605113
% es.EX (V/m) @ t=0.26
-2.290041577890646
% es.EY (V/m) @ t=0.26
0.17641612686195118
% es.EZ (V/m) @ t=0.26
-0.5836701011647252
% es.tEX (V/m) @ t=0.26
-2.2900415778906584
% es.tEY (V/m) @ t=0.26
0
% es.tEZ (V/m) @ t=0.26
-0.5836701011647278
% es.Ex (V/m) @ t=0.26
-2.290041577890646
% es.Ey (V/m) @ t=0.26
0.17641612686195118
% es.Ez (V/m) @ t=0.26
-0.5836701011647252
% es.tEx (V/m) @ t=0.26
-2.2900415778906584
% es.tEy (V/m) @ t=0.26
0
% es.tEz (V/m) @ t=0.26
-0.5836701011647278
% V (V) @ t=0.26
0.013734641346378952
% es.normE (V/m) @ t=0.28
2.400696078545524
% es.EX (V/m) @ t=0.28
-2.31970722591847
% es.EY (V/m) @ t=0.28
0.17870144495301843
% es.EZ (V/m) @ t=0.28
-0.5912310750430252
% es.tEX (V/m) @ t=0.28
-2.3197072259184743
% es.tEY (V/m) @ t=0.28
0
% es.tEZ (V/m) @ t=0.28
-0.5912310750430265
% es.Ex (V/m) @ t=0.28
-2.31970722591847
% es.Ey (V/m) @ t=0.28
0.17870144495301843
% es.Ez (V/m) @ t=0.28
-0.5912310750430252
% es.tEx (V/m) @ t=0.28
-2.3197072259184743
% es.tEy (V/m) @ t=0.28
0
% es.tEz (V/m) @ t=0.28
-0.5912310750430265
% V (V) @ t=0.28
0.013912563163410167
% es.normE (V/m) @ t=0.3
2.431397453530514
% es.EX (V/m) @ t=0.3
-2.349372873946268
% es.EY (V/m) @ t=0.3
0.18098676304410188
% es.EZ (V/m) @ t=0.3
-0.5987920489213332
% es.tEX (V/m) @ t=0.3
-2.3493728739462725
% es.tEY (V/m) @ t=0.3
0
% es.tEZ (V/m) @ t=0.3
-0.5987920489213394
% es.Ex (V/m) @ t=0.3
-2.349372873946268
% es.Ey (V/m) @ t=0.3
0.18098676304410188
% es.Ez (V/m) @ t=0.3
-0.5987920489213332
% es.tEx (V/m) @ t=0.3
-2.3493728739462725
% es.tEy (V/m) @ t=0.3
0
% es.tEz (V/m) @ t=0.3
-0.5987920489213394
% V (V) @ t=0.3
0.014090484980441381
% es.normE (V/m) @ t=0.32
2.462098828515546
% es.EX (V/m) @ t=0.32
-2.3790385219741115
% es.EY (V/m) @ t=0.32
0.18327208113517446
% es.EZ (V/m) @ t=0.32
-0.6063530227996337
% es.tEX (V/m) @ t=0.32
-2.379038521974117
% es.tEY (V/m) @ t=0.32
0
% es.tEZ (V/m) @ t=0.32
-0.6063530227996239
% es.Ex (V/m) @ t=0.32
-2.3790385219741115
% es.Ey (V/m) @ t=0.32
0.18327208113517446
% es.Ez (V/m) @ t=0.32
-0.6063530227996337
% es.tEx (V/m) @ t=0.32
-2.379038521974117
% es.tEy (V/m) @ t=0.32
0
% es.tEz (V/m) @ t=0.32
-0.6063530227996239
% V (V) @ t=0.32
0.014268406797472596
% es.normE (V/m) @ t=0.34
2.4928002035005274
% es.EX (V/m) @ t=0.34
-2.4087041700019043
% es.EY (V/m) @ t=0.34
0.18555739922624193
% es.EZ (V/m) @ t=0.34
-0.6139139966779292
% es.tEX (V/m) @ t=0.34
-2.4087041700019043
% es.tEY (V/m) @ t=0.34
0
% es.tEZ (V/m) @ t=0.34
-0.6139139966779297
% es.Ex (V/m) @ t=0.34
-2.4087041700019043
% es.Ey (V/m) @ t=0.34
0.18555739922624193
% es.Ez (V/m) @ t=0.34
-0.6139139966779292
% es.tEx (V/m) @ t=0.34
-2.4087041700019043
% es.tEy (V/m) @ t=0.34
0
% es.tEz (V/m) @ t=0.34
-0.6139139966779297
% V (V) @ t=0.34
0.014446328614503809
% es.normE (V/m) @ t=0.36
2.523501578485539
% es.EX (V/m) @ t=0.36
-2.4383698180297255
% es.EY (V/m) @ t=0.36
0.18784271731730384
% es.EZ (V/m) @ t=0.36
-0.6214749705562381
% es.tEX (V/m) @ t=0.36
-2.43836981802972
% es.tEY (V/m) @ t=0.36
0
% es.tEZ (V/m) @ t=0.36
-0.6214749705562284
% es.Ex (V/m) @ t=0.36
-2.4383698180297255
% es.Ey (V/m) @ t=0.36
0.18784271731730384
% es.Ez (V/m) @ t=0.36
-0.6214749705562381
% es.tEx (V/m) @ t=0.36
-2.43836981802972
% es.tEy (V/m) @ t=0.36
0
% es.tEz (V/m) @ t=0.36
-0.6214749705562284
% V (V) @ t=0.36
0.014624250431535025
% es.normE (V/m) @ t=0.38
2.5553080064690663
% es.EX (V/m) @ t=0.38
-2.469103239895947
% es.EY (V/m) @ t=0.38
0.19021030015477125
% es.EZ (V/m) @ t=0.38
-0.6293080874569004
% es.tEX (V/m) @ t=0.38
-2.4691032398959436
% es.tEY (V/m) @ t=0.38
0
% es.tEZ (V/m) @ t=0.38
-0.6293080874569057
% es.Ex (V/m) @ t=0.38
-2.469103239895947
% es.Ey (V/m) @ t=0.38
0.19021030015477125
% es.Ez (V/m) @ t=0.38
-0.6293080874569004
% es.tEx (V/m) @ t=0.38
-2.4691032398959436
% es.tEy (V/m) @ t=0.38
0
% es.tEz (V/m) @ t=0.38
-0.6293080874569057
% V (V) @ t=0.38
0.014808575878866522
% es.normE (V/m) @ t=0.4
2.588186969503828
% es.EX (V/m) @ t=0.4
-2.500873014652038
% es.EY (V/m) @ t=0.4
0.1926577269671923
% es.EZ (V/m) @ t=0.4
-0.637405339137397
% es.tEX (V/m) @ t=0.4
-2.50087301465204
% es.tEY (V/m) @ t=0.4
0
% es.tEZ (V/m) @ t=0.4
-0.6374053391373913
% es.Ex (V/m) @ t=0.4
-2.500873014652038
% es.Ey (V/m) @ t=0.4
0.1926577269671923
% es.Ez (V/m) @ t=0.4
-0.637405339137397
% es.tEx (V/m) @ t=0.4
-2.50087301465204
% es.tEy (V/m) @ t=0.4
0
% es.tEz (V/m) @ t=0.4
-0.6374053391373913
% V (V) @ t=0.4
0.014999116519461437
% es.normE (V/m) @ t=0.42
2.62106593253864
% es.EX (V/m) @ t=0.42
-2.5326427894081878
% es.EY (V/m) @ t=0.42
0.19510515377959747
% es.EZ (V/m) @ t=0.42
-0.6455025908178698
% es.tEX (V/m) @ t=0.42
-2.532642789408193
% es.tEY (V/m) @ t=0.42
0
% es.tEZ (V/m) @ t=0.42
-0.6455025908178662
% es.Ex (V/m) @ t=0.42
-2.5326427894081878
% es.Ey (V/m) @ t=0.42
0.19510515377959747
% es.Ez (V/m) @ t=0.42
-0.6455025908178698
% es.tEx (V/m) @ t=0.42
-2.532642789408193
% es.tEy (V/m) @ t=0.42
0
% es.tEz (V/m) @ t=0.42
-0.6455025908178662
% V (V) @ t=0.42
0.015189657160056352
% es.normE (V/m) @ t=0.44
2.6539448955734137
% es.EX (V/m) @ t=0.44
-2.5644125641642983
% es.EY (V/m) @ t=0.44
0.1975525805920023
% es.EZ (V/m) @ t=0.44
-0.6535998424983456
% es.tEX (V/m) @ t=0.44
-2.5644125641643036
% es.tEY (V/m) @ t=0.44
0
% es.tEZ (V/m) @ t=0.44
-0.6535998424983482
% es.Ex (V/m) @ t=0.44
-2.5644125641642983
% es.Ey (V/m) @ t=0.44
0.1975525805920023
% es.Ez (V/m) @ t=0.44
-0.6535998424983456
% es.tEx (V/m) @ t=0.44
-2.5644125641643036
% es.tEy (V/m) @ t=0.44
0
% es.tEz (V/m) @ t=0.44
-0.6535998424983482
% V (V) @ t=0.44
0.01538019780065127
% es.normE (V/m) @ t=0.46
2.686823858608209
% es.EX (V/m) @ t=0.46
-2.596182338920432
% es.EY (V/m) @ t=0.46
0.20000000740439872
% es.EZ (V/m) @ t=0.46
-0.6616970941788161
% es.tEX (V/m) @ t=0.46
-2.5961823389204284
% es.tEY (V/m) @ t=0.46
0
% es.tEZ (V/m) @ t=0.46
-0.6616970941788125
% es.Ex (V/m) @ t=0.46
-2.596182338920432
% es.Ey (V/m) @ t=0.46
0.20000000740439872
% es.Ez (V/m) @ t=0.46
-0.6616970941788161
% es.tEx (V/m) @ t=0.46
-2.5961823389204284
% es.tEy (V/m) @ t=0.46
0
% es.tEz (V/m) @ t=0.46
-0.6616970941788125
% V (V) @ t=0.46
0.01557073844124618
% es.normE (V/m) @ t=0.48
2.719702821642984
% es.EX (V/m) @ t=0.48
-2.6279521136765425
% es.EY (V/m) @ t=0.48
0.20244743421682154
% es.EZ (V/m) @ t=0.48
-0.6697943458592897
% es.tEX (V/m) @ t=0.48
-2.6279521136765496
% es.tEY (V/m) @ t=0.48
0
% es.tEZ (V/m) @ t=0.48
-0.6697943458592803
% es.Ex (V/m) @ t=0.48
-2.6279521136765425
% es.Ey (V/m) @ t=0.48
0.20244743421682154
% es.Ez (V/m) @ t=0.48
-0.6697943458592897
% es.tEx (V/m) @ t=0.48
-2.6279521136765496
% es.tEy (V/m) @ t=0.48
0
% es.tEz (V/m) @ t=0.48
-0.6697943458592803
% V (V) @ t=0.48
0.015761279081841096
% es.normE (V/m) @ t=0.5
2.752916740925029
% es.EX (V/m) @ t=0.5
-2.660045545126655
% es.EY (V/m) @ t=0.5
0.20491980293307
% es.EZ (V/m) @ t=0.5
-0.6779740849753981
% es.tEX (V/m) @ t=0.5
-2.6600455451266605
% es.tEY (V/m) @ t=0.5
0
% es.tEZ (V/m) @ t=0.5
-0.6779740849753964
% es.Ex (V/m) @ t=0.5
-2.660045545126655
% es.Ey (V/m) @ t=0.5
0.20491980293307
% es.Ez (V/m) @ t=0.5
-0.6779740849753981
% es.tEx (V/m) @ t=0.5
-2.6600455451266605
% es.tEy (V/m) @ t=0.5
0
% es.tEz (V/m) @ t=0.5
-0.6779740849753964
% V (V) @ t=0.5
0.015953760412432853
% es.normE (V/m) @ t=0.52
2.7869630649107062
% es.EX (V/m) @ t=0.52
-2.692943300594134
% es.EY (V/m) @ t=0.52
0.2074541551419229
% es.EZ (V/m) @ t=0.52
-0.6863588148327895
% es.tEX (V/m) @ t=0.52
-2.692943300594152
% es.tEY (V/m) @ t=0.52
0
% es.tEZ (V/m) @ t=0.52
-0.6863588148327864
% es.Ex (V/m) @ t=0.52
-2.692943300594134
% es.Ey (V/m) @ t=0.52
0.2074541551419229
% es.Ez (V/m) @ t=0.52
-0.6863588148327895
% es.tEx (V/m) @ t=0.52
-2.692943300594152
% es.tEy (V/m) @ t=0.52
0
% es.tEz (V/m) @ t=0.52
-0.6863588148327864
% V (V) @ t=0.52
0.016151064580320652
% es.normE (V/m) @ t=0.54
2.82130666317556
% es.EX (V/m) @ t=0.54
-2.7261283019666873
% es.EY (V/m) @ t=0.54
0.21001064333582242
% es.EZ (V/m) @ t=0.54
-0.6948167524394924
% es.tEX (V/m) @ t=0.54
-2.7261283019667033
% es.tEY (V/m) @ t=0.54
0
% es.tEZ (V/m) @ t=0.54
-0.6948167524394968
% es.Ex (V/m) @ t=0.54
-2.7261283019666873
% es.Ey (V/m) @ t=0.54
0.21001064333582242
% es.Ez (V/m) @ t=0.54
-0.6948167524394924
% es.tEx (V/m) @ t=0.54
-2.7261283019667033
% es.tEy (V/m) @ t=0.54
0
% es.tEz (V/m) @ t=0.54
-0.6948167524394968
% V (V) @ t=0.54
0.0163500911141132
% es.normE (V/m) @ t=0.56
2.8559475357194786
% es.EX (V/m) @ t=0.56
-2.7596005492442046
% es.EY (V/m) @ t=0.56
0.21258926751481566
% es.EZ (V/m) @ t=0.56
-0.7033478977954664
% es.tEX (V/m) @ t=0.56
-2.759600549244208
% es.tEY (V/m) @ t=0.56
0
% es.tEZ (V/m) @ t=0.56
-0.7033478977954672
% es.Ex (V/m) @ t=0.56
-2.7596005492442046
% es.Ey (V/m) @ t=0.56
0.21258926751481566
% es.Ez (V/m) @ t=0.56
-0.7033478977954664
% es.tEx (V/m) @ t=0.56
-2.759600549244208
% es.tEy (V/m) @ t=0.56
0
% es.tEz (V/m) @ t=0.56
-0.7033478977954672
% V (V) @ t=0.56
0.016550840013810478
% es.normE (V/m) @ t=0.58
2.890885682542605
% es.EX (V/m) @ t=0.58
-2.7933600424268406
% es.EY (V/m) @ t=0.58
0.21519002767880524
% es.EZ (V/m) @ t=0.58
-0.7119522509007128
% es.tEX (V/m) @ t=0.58
-2.793360042426862
% es.tEY (V/m) @ t=0.58
0
% es.tEZ (V/m) @ t=0.58
-0.7119522509007083
% es.Ex (V/m) @ t=0.58
-2.7933600424268406
% es.Ey (V/m) @ t=0.58
0.21519002767880524
% es.Ez (V/m) @ t=0.58
-0.7119522509007128
% es.tEx (V/m) @ t=0.58
-2.793360042426862
% es.tEy (V/m) @ t=0.58
0
% es.tEz (V/m) @ t=0.58
-0.7119522509007083
% V (V) @ t=0.58
0.016753311279412507
% es.normE (V/m) @ t=0.6
2.9261211036448946
% es.EX (V/m) @ t=0.6
-2.8274067815145294
% es.EY (V/m) @ t=0.6
0.21781292382790496
% es.EZ (V/m) @ t=0.6
-0.7206298117552752
% es.tEX (V/m) @ t=0.6
-2.827406781514508
% es.tEY (V/m) @ t=0.6
0
% es.tEZ (V/m) @ t=0.6
-0.7206298117552628
% es.Ex (V/m) @ t=0.6
-2.8274067815145294
% es.Ey (V/m) @ t=0.6
0.21781292382790496
% es.Ez (V/m) @ t=0.6
-0.7206298117552752
% es.tEx (V/m) @ t=0.6
-2.827406781514508
% es.tEy (V/m) @ t=0.6
0
% es.tEz (V/m) @ t=0.6
-0.7206298117552628
% V (V) @ t=0.6
0.016957504910919276
% es.normE (V/m) @ t=0.62
2.96165379902626
% es.EX (V/m) @ t=0.62
-2.861740766507209
% es.EY (V/m) @ t=0.62
0.2204579559620523
% es.EZ (V/m) @ t=0.62
-0.7293805803590558
% es.tEX (V/m) @ t=0.62
-2.8617407665071966
% es.tEY (V/m) @ t=0.62
0
% es.tEZ (V/m) @ t=0.62
-0.7293805803590665
% es.Ex (V/m) @ t=0.62
-2.861740766507209
% es.Ey (V/m) @ t=0.62
0.2204579559620523
% es.Ez (V/m) @ t=0.62
-0.7293805803590558
% es.tEx (V/m) @ t=0.62
-2.8617407665071966
% es.tEy (V/m) @ t=0.62
0
% es.tEz (V/m) @ t=0.62
-0.7293805803590665
% V (V) @ t=0.62
0.01716342090833078
% es.normE (V/m) @ t=0.64
2.9974837686866915
% es.EX (V/m) @ t=0.64
-2.8963619974048473
% es.EY (V/m) @ t=0.64
0.22312512408124097
% es.EZ (V/m) @ t=0.64
-0.7382045567121405
% es.tEX (V/m) @ t=0.64
-2.8963619974048633
% es.tEY (V/m) @ t=0.64
0
% es.tEZ (V/m) @ t=0.64
-0.7382045567121445
% es.Ex (V/m) @ t=0.64
-2.8963619974048473
% es.Ey (V/m) @ t=0.64
0.22312512408124097
% es.Ez (V/m) @ t=0.64
-0.7382045567121405
% es.tEx (V/m) @ t=0.64
-2.8963619974048633
% es.tEy (V/m) @ t=0.64
0
% es.tEz (V/m) @ t=0.64
-0.7382045567121445
% V (V) @ t=0.64
0.01737105927164703
% es.normE (V/m) @ t=0.66
3.033611012626365
% es.EX (V/m) @ t=0.66
-2.931270474207622
% es.EY (V/m) @ t=0.66
0.22581442818552167
% es.EZ (V/m) @ t=0.66
-0.7471017408145264
% es.tEX (V/m) @ t=0.66
-2.9312704742076363
% es.tEY (V/m) @ t=0.66
0
% es.tEZ (V/m) @ t=0.66
-0.747101740814518
% es.Ex (V/m) @ t=0.66
-2.931270474207622
% es.Ey (V/m) @ t=0.66
0.22581442818552167
% es.Ez (V/m) @ t=0.66
-0.7471017408145264
% es.tEx (V/m) @ t=0.66
-2.9312704742076363
% es.tEy (V/m) @ t=0.66
0
% es.tEz (V/m) @ t=0.66
-0.747101740814518
% V (V) @ t=0.66
0.017580420000868024
% es.normE (V/m) @ t=0.68
3.0700355308451632
% es.EX (V/m) @ t=0.68
-2.9664661969154142
% es.EY (V/m) @ t=0.68
0.22852586827488208
% es.EZ (V/m) @ t=0.68
-0.7560721326662021
% es.tEX (V/m) @ t=0.68
-2.9664661969154373
% es.tEY (V/m) @ t=0.68
0
% es.tEZ (V/m) @ t=0.68
-0.7560721326661977
% es.Ex (V/m) @ t=0.68
-2.9664661969154142
% es.Ey (V/m) @ t=0.68
0.22852586827488208
% es.Ez (V/m) @ t=0.68
-0.7560721326662021
% es.tEx (V/m) @ t=0.68
-2.9664661969154373
% es.tEy (V/m) @ t=0.68
0
% es.tEz (V/m) @ t=0.68
-0.7560721326661977
% V (V) @ t=0.68
0.017791503095993758
% es.normE (V/m) @ t=0.7
3.1067573233431087
% es.EX (V/m) @ t=0.7
-3.001949165528268
% es.EY (V/m) @ t=0.7
0.2312594443492051
% es.EZ (V/m) @ t=0.7
-0.7651157322671223
% es.tEX (V/m) @ t=0.7
-3.001949165528263
% es.tEY (V/m) @ t=0.7
0
% es.tEZ (V/m) @ t=0.7
-0.7651157322671231
% es.Ex (V/m) @ t=0.7
-3.001949165528268
% es.Ey (V/m) @ t=0.7
0.2312594443492051
% es.Ez (V/m) @ t=0.7
-0.7651157322671223
% es.tEx (V/m) @ t=0.7
-3.001949165528263
% es.tEy (V/m) @ t=0.7
0
% es.tEz (V/m) @ t=0.7
-0.7651157322671231
% V (V) @ t=0.7
0.018004308557024232
% es.normE (V/m) @ t=0.72
3.143776390120201
% es.EX (V/m) @ t=0.72
-3.037719380046161
% es.EY (V/m) @ t=0.72
0.23401515640865245
% es.EZ (V/m) @ t=0.72
-0.7742325396173193
% es.tEX (V/m) @ t=0.72
-3.037719380046127
% es.tEY (V/m) @ t=0.72
0
% es.tEZ (V/m) @ t=0.72
-0.7742325396173158
% es.Ex (V/m) @ t=0.72
-3.037719380046161
% es.Ey (V/m) @ t=0.72
0.23401515640865245
% es.Ez (V/m) @ t=0.72
-0.7742325396173193
% es.tEx (V/m) @ t=0.72
-3.037719380046127
% es.tEy (V/m) @ t=0.72
0
% es.tEz (V/m) @ t=0.72
-0.7742325396173158
% V (V) @ t=0.72
0.018218836383959453
% es.normE (V/m) @ t=0.74
3.181105285514974
% es.EX (V/m) @ t=0.74
-3.0737889710748885
% es.EY (V/m) @ t=0.74
0.23679393392973902
% es.EZ (V/m) @ t=0.74
-0.7834256487048838
% es.tEX (V/m) @ t=0.74
-3.073788971074922
% es.tEY (V/m) @ t=0.74
0
% es.tEZ (V/m) @ t=0.74
-0.7834256487048954
% es.Ex (V/m) @ t=0.74
-3.0737889710748885
% es.Ey (V/m) @ t=0.74
0.23679393392973902
% es.Ez (V/m) @ t=0.74
-0.7834256487048838
% es.tEx (V/m) @ t=0.74
-3.073788971074922
% es.tEy (V/m) @ t=0.74
0
% es.tEz (V/m) @ t=0.74
-0.7834256487048954
% V (V) @ t=0.74
0.01843515959689486
% es.normE (V/m) @ t=0.76
3.2192863713831303
% es.EX (V/m) @ t=0.76
-3.1106819947288926
% es.EY (V/m) @ t=0.76
0.23963593137023675
% es.EZ (V/m) @ t=0.76
-0.7928287233704792
% es.tEX (V/m) @ t=0.76
-3.1106819947288784
% es.tEY (V/m) @ t=0.76
0
% es.tEZ (V/m) @ t=0.76
-0.7928287233704872
% es.Ex (V/m) @ t=0.76
-3.1106819947288926
% es.Ey (V/m) @ t=0.76
0.23963593137023675
% es.Ez (V/m) @ t=0.76
-0.7928287233704792
% es.tEx (V/m) @ t=0.76
-3.1106819947288784
% es.tEy (V/m) @ t=0.76
0
% es.tEz (V/m) @ t=0.76
-0.7928287233704872
% V (V) @ t=0.76
0.01865643274787854
% es.normE (V/m) @ t=0.78
3.257849617050402
% es.EX (V/m) @ t=0.78
-3.1479442847606283
% es.EY (V/m) @ t=0.78
0.24250634940440574
% es.EZ (V/m) @ t=0.78
-0.8023259256278443
% es.tEX (V/m) @ t=0.78
-3.147944284760623
% es.tEY (V/m) @ t=0.78
0
% es.tEZ (V/m) @ t=0.78
-0.8023259256278585
% es.Ex (V/m) @ t=0.78
-3.1479442847606283
% es.Ey (V/m) @ t=0.78
0.24250634940440574
% es.Ez (V/m) @ t=0.78
-0.8023259256278443
% es.tEx (V/m) @ t=0.78
-3.147944284760623
% es.tEy (V/m) @ t=0.78
0
% es.tEz (V/m) @ t=0.78
-0.8023259256278585
% V (V) @ t=0.78
0.018879921986417695
% es.normE (V/m) @ t=0.8
3.296795022516661
% es.EX (V/m) @ t=0.8
-3.185575841169948
% es.EY (V/m) @ t=0.8
0.24540518803231604
% es.EZ (V/m) @ t=0.8
-0.8119172554769998
% es.tEX (V/m) @ t=0.8
-3.1855758411699675
% es.tEY (V/m) @ t=0.8
0
% es.tEZ (V/m) @ t=0.8
-0.8119172554770309
% es.Ex (V/m) @ t=0.8
-3.185575841169948
% es.Ey (V/m) @ t=0.8
0.24540518803231604
% es.Ez (V/m) @ t=0.8
-0.8119172554769998
% es.tEx (V/m) @ t=0.8
-3.1855758411699675
% es.tEy (V/m) @ t=0.8
0
% es.tEz (V/m) @ t=0.8
-0.8119172554770309
% V (V) @ t=0.8
0.01910562731251234
% es.normE (V/m) @ t=0.82
3.336122587782033
% es.EX (V/m) @ t=0.82
-3.2235766639569654
% es.EY (V/m) @ t=0.82
0.24833244725394543
% es.EZ (V/m) @ t=0.82
-0.8216027129179917
% es.tEX (V/m) @ t=0.82
-3.2235766639569334
% es.tEY (V/m) @ t=0.82
0
% es.tEZ (V/m) @ t=0.82
-0.8216027129180077
% es.Ex (V/m) @ t=0.82
-3.2235766639569654
% es.Ey (V/m) @ t=0.82
0.24833244725394543
% es.Ez (V/m) @ t=0.82
-0.8216027129179917
% es.tEx (V/m) @ t=0.82
-3.2235766639569334
% es.tEy (V/m) @ t=0.82
0
% es.tEz (V/m) @ t=0.82
-0.8216027129180077
% V (V) @ t=0.82
0.01933354872616246
% es.normE (V/m) @ t=0.84
3.3758323128464935
% es.EX (V/m) @ t=0.84
-3.2619467531216646
% es.EY (V/m) @ t=0.84
0.25128812706931747
% es.EZ (V/m) @ t=0.84
-0.8313822979507526
% es.tEX (V/m) @ t=0.84
-3.2619467531216735
% es.tEY (V/m) @ t=0.84
0
% es.tEZ (V/m) @ t=0.84
-0.8313822979507393
% es.Ex (V/m) @ t=0.84
-3.2619467531216646
% es.Ey (V/m) @ t=0.84
0.25128812706931747
% es.Ez (V/m) @ t=0.84
-0.8313822979507526
% es.tEx (V/m) @ t=0.84
-3.2619467531216735
% es.tEy (V/m) @ t=0.84
0
% es.tEz (V/m) @ t=0.84
-0.8313822979507393
% V (V) @ t=0.84
0.019563686227368066
% es.normE (V/m) @ t=0.86
3.4159241977099652
% es.EX (V/m) @ t=0.86
-3.3006861086639567
% es.EY (V/m) @ t=0.86
0.2542722274783913
% es.EZ (V/m) @ t=0.86
-0.841256010575294
% es.tEX (V/m) @ t=0.86
-3.3006861086639567
% es.tEY (V/m) @ t=0.86
0
% es.tEZ (V/m) @ t=0.86
-0.8412560105753109
% es.Ex (V/m) @ t=0.86
-3.3006861086639567
% es.Ey (V/m) @ t=0.86
0.2542722274783913
% es.Ez (V/m) @ t=0.86
-0.841256010575294
% es.tEx (V/m) @ t=0.86
-3.3006861086639567
% es.tEy (V/m) @ t=0.86
0
% es.tEz (V/m) @ t=0.86
-0.8412560105753109
% V (V) @ t=0.86
0.019796039816129152
% es.normE (V/m) @ t=0.88
3.45639824237254
% es.EX (V/m) @ t=0.88
-3.3397947305839235
% es.EY (V/m) @ t=0.88
0.25728474848118643
% es.EZ (V/m) @ t=0.88
-0.8512238507916408
% es.tEX (V/m) @ t=0.88
-3.3397947305839573
% es.tEY (V/m) @ t=0.88
0
% es.tEZ (V/m) @ t=0.88
-0.8512238507916514
% es.Ex (V/m) @ t=0.88
-3.3397947305839235
% es.Ey (V/m) @ t=0.88
0.25728474848118643
% es.Ez (V/m) @ t=0.88
-0.8512238507916408
% es.tEx (V/m) @ t=0.88
-3.3397947305839573
% es.tEy (V/m) @ t=0.88
0
% es.tEz (V/m) @ t=0.88
-0.8512238507916514
% V (V) @ t=0.88
0.020030609492445724
% es.normE (V/m) @ t=0.9
3.4972544468342357
% es.EX (V/m) @ t=0.9
-3.379272618881574
% es.EY (V/m) @ t=0.9
0.26032569007771356
% es.EZ (V/m) @ t=0.9
-0.8612858185997876
% es.tEX (V/m) @ t=0.9
-3.379272618881604
% es.tEY (V/m) @ t=0.9
0
% es.tEZ (V/m) @ t=0.9
-0.8612858185997716
% es.Ex (V/m) @ t=0.9
-3.379272618881574
% es.Ey (V/m) @ t=0.9
0.26032569007771356
% es.Ez (V/m) @ t=0.9
-0.8612858185997876
% es.tEx (V/m) @ t=0.9
-3.379272618881604
% es.tEy (V/m) @ t=0.9
0
% es.tEz (V/m) @ t=0.9
-0.8612858185997716
% V (V) @ t=0.9
0.02026739525631777
% es.normE (V/m) @ t=0.92
3.538492811095014
% es.EX (V/m) @ t=0.92
-3.419119773556856
% es.EY (V/m) @ t=0.92
0.26339505226800797
% es.EZ (V/m) @ t=0.92
-0.8714419139997345
% es.tEX (V/m) @ t=0.92
-3.419119773556858
% es.tEY (V/m) @ t=0.92
0
% es.tEZ (V/m) @ t=0.92
-0.8714419139997389
% es.Ex (V/m) @ t=0.92
-3.419119773556856
% es.Ey (V/m) @ t=0.92
0.26339505226800797
% es.Ez (V/m) @ t=0.92
-0.8714419139997345
% es.tEx (V/m) @ t=0.92
-3.419119773556858
% es.tEy (V/m) @ t=0.92
0
% es.tEz (V/m) @ t=0.92
-0.8714419139997389
% V (V) @ t=0.92
0.0205063971077453
% es.normE (V/m) @ t=0.94
3.5801133351549774
% es.EX (V/m) @ t=0.94
-3.4593361946098735
% es.EY (V/m) @ t=0.94
0.26649283505196175
% es.EZ (V/m) @ t=0.94
-0.8816921369914876
% es.tEX (V/m) @ t=0.94
-3.459336194609886
% es.tEY (V/m) @ t=0.94
0
% es.tEZ (V/m) @ t=0.94
-0.8816921369915072
% es.Ex (V/m) @ t=0.94
-3.4593361946098735
% es.Ey (V/m) @ t=0.94
0.26649283505196175
% es.Ez (V/m) @ t=0.94
-0.8816921369914876
% es.tEx (V/m) @ t=0.94
-3.459336194609886
% es.tEy (V/m) @ t=0.94
0
% es.tEz (V/m) @ t=0.94
-0.8816921369915072
% V (V) @ t=0.94
0.02074761504672831
% es.normE (V/m) @ t=0.96
3.6221160190139563
% es.EX (V/m) @ t=0.96
-3.4999218820404394
% es.EY (V/m) @ t=0.96
0.2696190384296615
% es.EZ (V/m) @ t=0.96
-0.8920364875750275
% es.tEX (V/m) @ t=0.96
-3.4999218820404394
% es.tEY (V/m) @ t=0.96
0
% es.tEZ (V/m) @ t=0.96
-0.8920364875750124
% es.Ex (V/m) @ t=0.96
-3.4999218820404394
% es.Ey (V/m) @ t=0.96
0.2696190384296615
% es.Ez (V/m) @ t=0.96
-0.8920364875750275
% es.tEx (V/m) @ t=0.96
-3.4999218820404394
% es.tEy (V/m) @ t=0.96
0
% es.tEz (V/m) @ t=0.96
-0.8920364875750124
% V (V) @ t=0.96
0.020991049073266807
% es.normE (V/m) @ t=0.98
3.664500862672127
% es.EX (V/m) @ t=0.98
-3.540876835848726
% es.EY (V/m) @ t=0.98
0.2727736624011041
% es.EZ (V/m) @ t=0.98
-0.9024749657503506
% es.tEX (V/m) @ t=0.98
-3.5408768358486995
% es.tEY (V/m) @ t=0.98
0
% es.tEZ (V/m) @ t=0.98
-0.9024749657503328
% es.Ex (V/m) @ t=0.98
-3.540876835848726
% es.Ey (V/m) @ t=0.98
0.2727736624011041
% es.Ez (V/m) @ t=0.98
-0.9024749657503506
% es.tEx (V/m) @ t=0.98
-3.5408768358486995
% es.tEy (V/m) @ t=0.98
0
% es.tEz (V/m) @ t=0.98
-0.9024749657503328
% V (V) @ t=0.98
0.021236699187360784
% es.normE (V/m) @ t=1
3.7074775460317557
% es.EX (V/m) @ t=1
-3.582403681723129
% es.EY (V/m) @ t=1
0.27597278635390166
% es.EZ (V/m) @ t=1
-0.9130590062069635
% es.tEX (V/m) @ t=1
-3.582403681723136
% es.tEY (V/m) @ t=1
0
% es.tEZ (V/m) @ t=1
-0.9130590062069537
% es.Ex (V/m) @ t=1
-3.582403681723129
% es.Ey (V/m) @ t=1
0.27597278635390166
% es.Ez (V/m) @ t=1
-0.9130590062069635
% es.tEx (V/m) @ t=1
-3.582403681723136
% es.tEy (V/m) @ t=1
0
% es.tEz (V/m) @ t=1
-0.9130590062069537
% V (V) @ t=1
0.02148575573991295
% es.normE (V/m) @ t=1.02
3.7509646065252547
% es.EX (V/m) @ t=1.02
-3.6244236977229125
% es.EY (V/m) @ t=1.02
0.2792101632982893
% es.EZ (V/m) @ t=1.02
-0.9237686260957423
% es.tEX (V/m) @ t=1.02
-3.624423697722893
% es.tEY (V/m) @ t=1.02
0
% es.tEZ (V/m) @ t=1.02
-0.9237686260957041
% es.Ex (V/m) @ t=1.02
-3.6244236977229125
% es.Ey (V/m) @ t=1.02
0.2792101632982893
% es.Ez (V/m) @ t=1.02
-0.9237686260957423
% es.tEx (V/m) @ t=1.02
-3.624423697722893
% es.tEy (V/m) @ t=1.02
0
% es.tEz (V/m) @ t=1.02
-0.9237686260957041
% V (V) @ t=1.02
0.021737756268666805
% es.normE (V/m) @ t=1.04
3.794879719379909
% es.EX (V/m) @ t=1.04
-3.6668573287092006