% Model:              1 neuron.mph
% Version:            COMSOL 6.0.0.405
% Date:               Mar 16 2023, 20:11
% Dimension:          0
% Nodes:              14017
% Expressions:        14017
% Description:        Electric field norm, Electric field, X component, Electric field, Y component, Electric field, Z component, Tangential electric field, X component, Tangential electric field, Y component, Tangential electric field, Z component, Electric field, x component, Electric field, y component, Electric field, z component, Tangential electric field, x component, Tangential electric field, y component, Tangential electric field, z component, Electric potential
% Length unit:        mm
% x
1.66
% y
12.2
% z
2
% es.normE (V/m) @ t=0
2.694565224350157
% es.EX (V/m) @ t=0
-0.8038446350512992
% es.EY (V/m) @ t=0
0.06004350883322525
% es.EZ (V/m) @ t=0
-2.5668425970623643
% es.tEX (V/m) @ t=0
-0.8038446350512984
% es.tEY (V/m) @ t=0
0
% es.tEZ (V/m) @ t=0
-2.566842597062413
% es.Ex (V/m) @ t=0
-0.8038446350512992
% es.Ey (V/m) @ t=0
0.06004350883322525
% es.Ez (V/m) @ t=0
-2.5668425970623643
% es.tEx (V/m) @ t=0
-0.8038446350512984
% es.tEy (V/m) @ t=0
0
% es.tEz (V/m) @ t=0
-2.566842597062413
% V (V) @ t=0
0.013544009865251866
% es.normE (V/m) @ t=0.02
2.335146606688368
% es.EX (V/m) @ t=0.02
-0.6966226152675875
% es.EY (V/m) @ t=0.02
0.05203451300836753
% es.EZ (V/m) @ t=0.02
-2.224460453276204
% es.tEX (V/m) @ t=0.02
-0.6966226152675965
% es.tEY (V/m) @ t=0.02
0
% es.tEZ (V/m) @ t=0.02
-2.2244604532762233
% es.Ex (V/m) @ t=0.02
-0.6966226152675875
% es.Ey (V/m) @ t=0.02
0.05203451300836753
% es.Ez (V/m) @ t=0.02
-2.224460453276204
% es.tEx (V/m) @ t=0.02
-0.6966226152675965
% es.tEy (V/m) @ t=0.02
0
% es.tEz (V/m) @ t=0.02
-2.2244604532762233
% V (V) @ t=0.02
0.01173742190144404
% es.normE (V/m) @ t=0.04
2.364597528504186
% es.EX (V/m) @ t=0.04
-0.7054084348812885
% es.EY (V/m) @ t=0.04
0.052690768892391104
% es.EZ (V/m) @ t=0.04
-2.2525153992955236
% es.tEX (V/m) @ t=0.04
-0.7054084348812992
% es.tEY (V/m) @ t=0.04
0
% es.tEZ (V/m) @ t=0.04
-2.252515399295544
% es.Ex (V/m) @ t=0.04
-0.7054084348812885
% es.Ey (V/m) @ t=0.04
0.052690768892391104
% es.Ez (V/m) @ t=0.04
-2.2525153992955236
% es.tEx (V/m) @ t=0.04
-0.7054084348812992
% es.tEy (V/m) @ t=0.04
0
% es.tEz (V/m) @ t=0.04
-2.252515399295544
% V (V) @ t=0.04
0.011885454710570913
% es.normE (V/m) @ t=0.06
2.3943272202885755
% es.EX (V/m) @ t=0.06
-0.7142774172380691
% es.EY (V/m) @ t=0.06
0.053353236258196754
% es.EZ (V/m) @ t=0.06
-2.280835901623922
% es.tEX (V/m) @ t=0.06
-0.7142774172380761
% es.tEY (V/m) @ t=0.06
0
% es.tEZ (V/m) @ t=0.06
-2.280835901623947
% es.Ex (V/m) @ t=0.06
-0.7142774172380691
% es.Ey (V/m) @ t=0.06
0.053353236258196754
% es.Ez (V/m) @ t=0.06
-2.280835901623922
% es.tEx (V/m) @ t=0.06
-0.7142774172380761
% es.tEy (V/m) @ t=0.06
0
% es.tEz (V/m) @ t=0.06
-2.280835901623947
% V (V) @ t=0.06
0.01203488874575458
% es.normE (V/m) @ t=0.08
2.424980379553178
% es.EX (V/m) @ t=0.08
-0.7234218922985011
% es.EY (V/m) @ t=0.08
0.054036286769461817
% es.EZ (V/m) @ t=0.08
-2.3100360976446783
% es.tEX (V/m) @ t=0.08
-0.7234218922985107
% es.tEY (V/m) @ t=0.08
0
% es.tEZ (V/m) @ t=0.08
-2.310036097644704
% es.Ex (V/m) @ t=0.08
-0.7234218922985011
% es.Ey (V/m) @ t=0.08
0.054036286769461817
% es.Ez (V/m) @ t=0.08
-2.3100360976446783
% es.tEx (V/m) @ t=0.08
-0.7234218922985107
% es.tEy (V/m) @ t=0.08
0
% es.tEz (V/m) @ t=0.08
-2.310036097644704
% V (V) @ t=0.08
0.012188964271984369
% es.normE (V/m) @ t=0.1
2.4557438682313406
% es.EX (V/m) @ t=0.1
-0.7325992812937321
% es.EY (V/m) @ t=0.1
0.0547217964104669
% es.EZ (V/m) @ t=0.1
-2.3393413932940312
% es.tEX (V/m) @ t=0.1
-0.7325992812937443
% es.tEY (V/m) @ t=0.1
0
% es.tEZ (V/m) @ t=0.1
-2.3393413932940454
% es.Ex (V/m) @ t=0.1
-0.7325992812937321
% es.Ey (V/m) @ t=0.1
0.0547217964104669
% es.Ez (V/m) @ t=0.1
-2.3393413932940312
% es.tEx (V/m) @ t=0.1
-0.7325992812937443
% es.tEy (V/m) @ t=0.1
0
% es.tEz (V/m) @ t=0.1
-2.3393413932940454
% V (V) @ t=0.1
0.012343594330989981
% es.normE (V/m) @ t=0.12
2.4865073569095073
% es.EX (V/m) @ t=0.12
-0.7417766702889719
% es.EY (V/m) @ t=0.12
0.0554073060514822
% es.EZ (V/m) @ t=0.12
-2.368646688943385
% es.tEX (V/m) @ t=0.12
-0.7417766702889814
% es.tEY (V/m) @ t=0.12
0
% es.tEZ (V/m) @ t=0.12
-2.368646688943395
% es.Ex (V/m) @ t=0.12
-0.7417766702889719
% es.Ey (V/m) @ t=0.12
0.0554073060514822
% es.Ez (V/m) @ t=0.12
-2.368646688943385
% es.tEx (V/m) @ t=0.12
-0.7417766702889814
% es.tEy (V/m) @ t=0.12
0
% es.tEz (V/m) @ t=0.12
-2.368646688943395
% V (V) @ t=0.12
0.012498224389995594
% es.normE (V/m) @ t=0.14
2.51903314345524
% es.EX (V/m) @ t=0.14
-0.7514797884441986
% es.EY (V/m) @ t=0.14
0.05613208377758738
% es.EZ (V/m) @ t=0.14
-2.399630749741516
% es.tEX (V/m) @ t=0.14
-0.7514797884442004
% es.tEY (V/m) @ t=0.14
0
% es.tEZ (V/m) @ t=0.14
-2.3996307497415303
% es.Ex (V/m) @ t=0.14
-0.7514797884441986
% es.Ey (V/m) @ t=0.14
0.05613208377758738
% es.Ez (V/m) @ t=0.14
-2.399630749741516
% es.tEx (V/m) @ t=0.14
-0.7514797884442004
% es.tEy (V/m) @ t=0.14
0
% es.tEz (V/m) @ t=0.14
-2.3996307497415303
% V (V) @ t=0.14
0.012661712560490233
% es.normE (V/m) @ t=0.16
2.5520116034961715
% es.EX (V/m) @ t=0.16
-0.7613179482747114
% es.EY (V/m) @ t=0.16
0.05686694811939563
% es.EZ (V/m) @ t=0.16
-2.4310460273625782
% es.tEX (V/m) @ t=0.16
-0.7613179482747228
% es.tEY (V/m) @ t=0.16
0
% es.tEZ (V/m) @ t=0.16
-2.4310460273625862
% es.Ex (V/m) @ t=0.16
-0.7613179482747114
% es.Ey (V/m) @ t=0.16
0.05686694811939563
% es.Ez (V/m) @ t=0.16
-2.4310460273625782
% es.tEx (V/m) @ t=0.16
-0.7613179482747228
% es.tEy (V/m) @ t=0.16
0
% es.tEz (V/m) @ t=0.16
-2.4310460273625862
% V (V) @ t=0.16
0.0128274760740823
% es.normE (V/m) @ t=0.18
2.584990063537099
% es.EX (V/m) @ t=0.18
-0.7711561081052396
% es.EY (V/m) @ t=0.18
0.057601812461214486
% es.EZ (V/m) @ t=0.18
-2.4624613049836324
% es.tEX (V/m) @ t=0.18
-0.7711561081052452
% es.tEY (V/m) @ t=0.18
0
% es.tEZ (V/m) @ t=0.18
-2.4624613049836643
% es.Ex (V/m) @ t=0.18
-0.7711561081052396
% es.Ey (V/m) @ t=0.18
0.057601812461214486
% es.Ez (V/m) @ t=0.18
-2.4624613049836324
% es.tEx (V/m) @ t=0.18
-0.7711561081052452
% es.tEy (V/m) @ t=0.18
0
% es.tEz (V/m) @ t=0.18
-2.4624613049836643
% V (V) @ t=0.18
0.012993239587674366
% es.normE (V/m) @ t=0.2
2.6179685235780186
% es.EX (V/m) @ t=0.2
-0.780994267935743
% es.EY (V/m) @ t=0.2
0.0583366768030336
% es.EZ (V/m) @ t=0.2
-2.4938765826046865
% es.tEX (V/m) @ t=0.2
-0.7809942679357533
% es.tEY (V/m) @ t=0.2
0
% es.tEZ (V/m) @ t=0.2
-2.493876582604713
% es.Ex (V/m) @ t=0.2
-0.780994267935743
% es.Ey (V/m) @ t=0.2
0.0583366768030336
% es.Ez (V/m) @ t=0.2
-2.4938765826046865
% es.tEx (V/m) @ t=0.2
-0.7809942679357533
% es.tEy (V/m) @ t=0.2
0
% es.tEz (V/m) @ t=0.2
-2.493876582604713
% V (V) @ t=0.2
0.013159003101266433
% es.normE (V/m) @ t=0.22
2.6509469836189634
% es.EX (V/m) @ t=0.22
-0.7908324277662587
% es.EY (V/m) @ t=0.22
0.05907154114482427
% es.EZ (V/m) @ t=0.22
-2.525291860225762
% es.tEX (V/m) @ t=0.22
-0.7908324277662686
% es.tEY (V/m) @ t=0.22
0
% es.tEZ (V/m) @ t=0.22
-2.525291860225762
% es.Ex (V/m) @ t=0.22
-0.7908324277662587
% es.Ey (V/m) @ t=0.22
0.05907154114482427
% es.Ez (V/m) @ t=0.22
-2.525291860225762
% es.tEx (V/m) @ t=0.22
-0.7908324277662686
% es.tEy (V/m) @ t=0.22
0
% es.tEz (V/m) @ t=0.22
-2.525291860225762
% V (V) @ t=0.22
0.013324766614858501
% es.normE (V/m) @ t=0.24
2.683925443659885
% es.EX (V/m) @ t=0.24
-0.8006705875967637
% es.EY (V/m) @ t=0.24
0.05980640548665005
% es.EZ (V/m) @ t=0.24
-2.556707137846817
% es.tEX (V/m) @ t=0.24
-0.8006705875967768
% es.tEY (V/m) @ t=0.24
0
% es.tEZ (V/m) @ t=0.24
-2.556707137846825
% es.Ex (V/m) @ t=0.24
-0.8006705875967637
% es.Ey (V/m) @ t=0.24
0.05980640548665005
% es.Ez (V/m) @ t=0.24
-2.556707137846817
% es.tEx (V/m) @ t=0.24
-0.8006705875967768
% es.tEy (V/m) @ t=0.24
0
% es.tEz (V/m) @ t=0.24
-2.556707137846825
% V (V) @ t=0.24
0.013490530128450568
% es.normE (V/m) @ t=0.26
2.7183258508590686
% es.EX (V/m) @ t=0.26
-0.8109329439749045
% es.EY (V/m) @ t=0.26
0.0605729551376165
% es.EZ (V/m) @ t=0.26
-2.5894769621393268
% es.tEX (V/m) @ t=0.26
-0.8109329439749189
% es.tEY (V/m) @ t=0.26
0
% es.tEZ (V/m) @ t=0.26
-2.589476962139365
% es.Ex (V/m) @ t=0.26
-0.8109329439749045
% es.Ey (V/m) @ t=0.26
0.0605729551376165
% es.Ez (V/m) @ t=0.26
-2.5894769621393268
% es.tEx (V/m) @ t=0.26
-0.8109329439749189
% es.tEy (V/m) @ t=0.26
0
% es.tEz (V/m) @ t=0.26
-2.589476962139365
% V (V) @ t=0.26
0.013663440947260417
% es.normE (V/m) @ t=0.28
2.7536728990998736
% es.EX (V/m) @ t=0.28
-0.8214777031549672
% es.EY (V/m) @ t=0.28
0.06136059883127026
% es.EZ (V/m) @ t=0.28
-2.6231485565606
% es.tEX (V/m) @ t=0.28
-0.8214777031549829
% es.tEY (V/m) @ t=0.28
0
% es.tEZ (V/m) @ t=0.28
-2.6231485565606416
% es.Ex (V/m) @ t=0.28
-0.8214777031549672
% es.Ey (V/m) @ t=0.28
0.06136059883127026
% es.Ez (V/m) @ t=0.28
-2.6231485565606
% es.tEx (V/m) @ t=0.28
-0.8214777031549829
% es.tEy (V/m) @ t=0.28
0
% es.tEz (V/m) @ t=0.28
-2.6231485565606416
% V (V) @ t=0.28
0.013841109982588251
% es.normE (V/m) @ t=0.3
2.789019947340697
% es.EX (V/m) @ t=0.3
-0.8320224623350245
% es.EY (V/m) @ t=0.3
0.06214824252493274
% es.EZ (V/m) @ t=0.3
-2.6568201509818943
% es.tEX (V/m) @ t=0.3
-0.8320224623350398
% es.tEY (V/m) @ t=0.3
0
% es.tEZ (V/m) @ t=0.3
-2.6568201509819183
% es.Ex (V/m) @ t=0.3
-0.8320224623350245
% es.Ey (V/m) @ t=0.3
0.06214824252493274
% es.Ez (V/m) @ t=0.3
-2.6568201509818943
% es.tEx (V/m) @ t=0.3
-0.8320224623350398
% es.tEy (V/m) @ t=0.3
0
% es.tEz (V/m) @ t=0.3
-2.6568201509819183
% V (V) @ t=0.3
0.014018779017916084
% es.normE (V/m) @ t=0.32
2.824366995581517
% es.EX (V/m) @ t=0.32
-0.8425672215150873
% es.EY (V/m) @ t=0.32
0.06293588621862005
% es.EZ (V/m) @ t=0.32
-2.6904917454031816
% es.tEX (V/m) @ t=0.32
-0.8425672215150968
% es.tEY (V/m) @ t=0.32
0
% es.tEZ (V/m) @ t=0.32
-2.6904917454032233
% es.Ex (V/m) @ t=0.32
-0.8425672215150873
% es.Ey (V/m) @ t=0.32
0.06293588621862005
% es.Ez (V/m) @ t=0.32
-2.6904917454031816
% es.tEx (V/m) @ t=0.32
-0.8425672215150968
% es.tEy (V/m) @ t=0.32
0
% es.tEz (V/m) @ t=0.32
-2.6904917454032233
% V (V) @ t=0.32
0.01419644805324392
% es.normE (V/m) @ t=0.34
2.859714043822364
% es.EX (V/m) @ t=0.34
-0.8531119806951555
% es.EY (V/m) @ t=0.34
0.06372352991227714
% es.EZ (V/m) @ t=0.34
-2.7241633398244973
% es.tEX (V/m) @ t=0.34
-0.8531119806951679
% es.tEY (V/m) @ t=0.34
0
% es.tEZ (V/m) @ t=0.34
-2.724163339824514
% es.Ex (V/m) @ t=0.34
-0.8531119806951555
% es.Ey (V/m) @ t=0.34
0.06372352991227714
% es.Ez (V/m) @ t=0.34
-2.7241633398244973
% es.tEx (V/m) @ t=0.34
-0.8531119806951679
% es.tEy (V/m) @ t=0.34
0
% es.tEz (V/m) @ t=0.34
-2.724163339824514
% V (V) @ t=0.34
0.014374117088571751
% es.normE (V/m) @ t=0.36
2.8950610920631883
% es.EX (V/m) @ t=0.36
-0.8636567398752164
% es.EY (V/m) @ t=0.36
0.06451117360594498
% es.EZ (V/m) @ t=0.36
-2.7578349342457917
% es.tEX (V/m) @ t=0.36
-0.8636567398752248
% es.tEY (V/m) @ t=0.36
0
% es.tEZ (V/m) @ t=0.36
-2.757834934245807
% es.Ex (V/m) @ t=0.36
-0.8636567398752164
% es.Ey (V/m) @ t=0.36
0.06451117360594498
% es.Ez (V/m) @ t=0.36
-2.7578349342457917
% es.tEx (V/m) @ t=0.36
-0.8636567398752248
% es.tEy (V/m) @ t=0.36
0
% es.tEz (V/m) @ t=0.36
-2.757834934245807
% V (V) @ t=0.36
0.014551786123899586
% es.normE (V/m) @ t=0.38
2.9314316387400945
% es.EX (V/m) @ t=0.38
-0.8745068299607854
% es.EY (V/m) @ t=0.38
0.06532162404656806
% es.EZ (V/m) @ t=0.38
-2.792481513155729
% es.tEX (V/m) @ t=0.38
-0.8745068299607937
% es.tEY (V/m) @ t=0.38
0
% es.tEZ (V/m) @ t=0.38
-2.792481513155739
% es.Ex (V/m) @ t=0.38
-0.8745068299607854
% es.Ey (V/m) @ t=0.38
0.06532162404656806
% es.Ez (V/m) @ t=0.38
-2.792481513155729
% es.tEx (V/m) @ t=0.38
-0.8745068299607937
% es.tEy (V/m) @ t=0.38
0
% es.tEz (V/m) @ t=0.38
-2.792481513155739
% V (V) @ t=0.38
0.014734599690294368
% es.normE (V/m) @ t=0.4
2.9693055906013726
% es.EX (V/m) @ t=0.4
-0.8858054171325305
% es.EY (V/m) @ t=0.4
0.0661655750578118
% es.EZ (V/m) @ t=0.4
-2.8285602356657327
% es.tEX (V/m) @ t=0.4
-0.8858054171325449
% es.tEY (V/m) @ t=0.4
0
% es.tEZ (V/m) @ t=0.4
-2.828560235665769
% es.Ex (V/m) @ t=0.4
-0.8858054171325305
% es.Ey (V/m) @ t=0.4
0.0661655750578118
% es.Ez (V/m) @ t=0.4
-2.8285602356657327
% es.tEx (V/m) @ t=0.4
-0.8858054171325449
% es.tEy (V/m) @ t=0.4
0
% es.tEz (V/m) @ t=0.4
-2.828560235665769
% V (V) @ t=0.4
0.014924969999723231
% es.normE (V/m) @ t=0.42
3.0071795424626906
% es.EX (V/m) @ t=0.42
-0.897104004304272
% es.EY (V/m) @ t=0.42
0.06700952606904623
% es.EZ (V/m) @ t=0.42
-2.864638958175779
% es.tEX (V/m) @ t=0.42
-0.8971040043042819
% es.tEY (V/m) @ t=0.42
0
% es.tEZ (V/m) @ t=0.42
-2.8646389581758296
% es.Ex (V/m) @ t=0.42
-0.897104004304272
% es.Ey (V/m) @ t=0.42
0.06700952606904623
% es.Ez (V/m) @ t=0.42
-2.864638958175779
% es.tEx (V/m) @ t=0.42
-0.8971040043042819
% es.tEy (V/m) @ t=0.42
0
% es.tEz (V/m) @ t=0.42
-2.8646389581758296
% V (V) @ t=0.42
0.015115340309152094
% es.normE (V/m) @ t=0.44
3.0450534943240086
% es.EX (V/m) @ t=0.44
-0.9084025914760097
% es.EY (V/m) @ t=0.44
0.06785347708027577
% es.EZ (V/m) @ t=0.44
-2.9007176806858253
% es.tEX (V/m) @ t=0.44
-0.9084025914760119
% es.tEY (V/m) @ t=0.44
0
% es.tEZ (V/m) @ t=0.44
-2.9007176806858457
% es.Ex (V/m) @ t=0.44
-0.9084025914760097
% es.Ey (V/m) @ t=0.44
0.06785347708027577
% es.Ez (V/m) @ t=0.44
-2.9007176806858253
% es.tEx (V/m) @ t=0.44
-0.9084025914760119
% es.tEy (V/m) @ t=0.44
0
% es.tEz (V/m) @ t=0.44
-2.9007176806858457
% V (V) @ t=0.44
0.015305710618580957
% es.normE (V/m) @ t=0.46
3.0829274461853116
% es.EX (V/m) @ t=0.46
-0.9197011786477474
% es.EY (V/m) @ t=0.46
0.0686974280915209
% es.EZ (V/m) @ t=0.46
-2.9367964031958573
% es.tEX (V/m) @ t=0.46
-0.919701178647756
% es.tEY (V/m) @ t=0.46
0
% es.tEZ (V/m) @ t=0.46
-2.9367964031958884
% es.Ex (V/m) @ t=0.46
-0.9197011786477474
% es.Ey (V/m) @ t=0.46
0.0686974280915209
% es.Ez (V/m) @ t=0.46
-2.9367964031958573
% es.tEx (V/m) @ t=0.46
-0.919701178647756
% es.tEy (V/m) @ t=0.46
0
% es.tEz (V/m) @ t=0.46
-2.9367964031958884
% V (V) @ t=0.46
0.015496080928009824
% es.normE (V/m) @ t=0.48
3.120801398046606
% es.EX (V/m) @ t=0.48
-0.9309997658194955
% es.EY (V/m) @ t=0.48
0.06954137910277583
% es.EZ (V/m) @ t=0.48
-2.972875125705877
% es.tEX (V/m) @ t=0.48
-0.9309997658195073
% es.tEY (V/m) @ t=0.48
0
% es.tEZ (V/m) @ t=0.48
-2.9728751257059063
% es.Ex (V/m) @ t=0.48
-0.9309997658194955
% es.Ey (V/m) @ t=0.48
0.06954137910277583
% es.Ez (V/m) @ t=0.48
-2.972875125705877
% es.tEx (V/m) @ t=0.48
-0.9309997658195073
% es.tEy (V/m) @ t=0.48
0
% es.tEz (V/m) @ t=0.48
-2.9728751257059063
% V (V) @ t=0.48
0.015686451237438684
% es.normE (V/m) @ t=0.5
3.158905887136967
% es.EX (V/m) @ t=0.5
-0.9423671269952754
% es.EY (V/m) @ t=0.5
0.07039046711677752
% es.EZ (V/m) @ t=0.5
-3.0091734579755878
% es.tEX (V/m) @ t=0.5
-0.9423671269952933
% es.tEY (V/m) @ t=0.5
0
% es.tEZ (V/m) @ t=0.5
-3.0091734579756224
% es.Ex (V/m) @ t=0.5
-0.9423671269952754
% es.Ey (V/m) @ t=0.5
0.07039046711677752
% es.Ez (V/m) @ t=0.5
-3.0091734579755878
% es.tEx (V/m) @ t=0.5
-0.9423671269952933
% es.tEy (V/m) @ t=0.5
0
% es.tEz (V/m) @ t=0.5
-3.0091734579756224
% V (V) @ t=0.5
0.015877980327305596
% es.normE (V/m) @ t=0.52
3.198086562408929
% es.EX (V/m) @ t=0.52
-0.9540555366763284
% es.EY (V/m) @ t=0.52
0.07126353551536448
% es.EZ (V/m) @ t=0.52
-3.0464969651798617
% es.tEX (V/m) @ t=0.52
-0.9540555366763357
% es.tEY (V/m) @ t=0.52
0
% es.tEZ (V/m) @ t=0.52
-3.046496965179889
% es.Ex (V/m) @ t=0.52
-0.9540555366763284
% es.Ey (V/m) @ t=0.52
0.07126353551536448
% es.Ez (V/m) @ t=0.52
-3.0464969651798617
% es.tEx (V/m) @ t=0.52
-0.9540555366763357
% es.tEy (V/m) @ t=0.52
0
% es.tEz (V/m) @ t=0.52
-3.046496965179889
% V (V) @ t=0.52
0.016074918797253944
% es.normE (V/m) @ t=0.54
3.2376104445296177
% es.EX (V/m) @ t=0.54
-0.9658463320297321
% es.EY (V/m) @ t=0.54
0.07214425150537361
% es.EZ (V/m) @ t=0.54
-3.0841474112212053
% es.tEX (V/m) @ t=0.54
-0.9658463320297344
% es.tEY (V/m) @ t=0.54
0
% es.tEZ (V/m) @ t=0.54
-3.084147411221238
% es.Ex (V/m) @ t=0.54
-0.9658463320297321
% es.Ey (V/m) @ t=0.54
0.07214425150537361
% es.Ez (V/m) @ t=0.54
-3.0841474112212053
% es.tEx (V/m) @ t=0.54
-0.9658463320297344
% es.tEy (V/m) @ t=0.54
0
% es.tEz (V/m) @ t=0.54
-3.084147411221238
% V (V) @ t=0.54
0.016273582374180237
% es.normE (V/m) @ t=0.56
3.277477533499093
% es.EX (V/m) @ t=0.56
-0.9777395130555204
% es.EY (V/m) @ t=0.56
0.07303261508682189
% es.EZ (V/m) @ t=0.56
-3.122124796099677
% es.tEX (V/m) @ t=0.56
-0.977739513055532
% es.tEY (V/m) @ t=0.56
0
% es.tEZ (V/m) @ t=0.56
-3.1221247960996976
% es.Ex (V/m) @ t=0.56
-0.9777395130555204
% es.Ey (V/m) @ t=0.56
0.07303261508682189
% es.Ez (V/m) @ t=0.56
-3.122124796099677
% es.tEx (V/m) @ t=0.56
-0.977739513055532
% es.tEy (V/m) @ t=0.56
0
% es.tEz (V/m) @ t=0.56
-3.1221247960996976
% V (V) @ t=0.56
0.016473971058084482
% es.normE (V/m) @ t=0.58
3.317687829317234
% es.EX (V/m) @ t=0.58
-0.9897350797536384
% es.EY (V/m) @ t=0.58
0.07392862625970376
% es.EZ (V/m) @ t=0.58
-3.160429119815161
% es.tEX (V/m) @ t=0.58
-0.9897350797536433
% es.tEY (V/m) @ t=0.58
0
% es.tEZ (V/m) @ t=0.58
-3.160429119815195
% es.Ex (V/m) @ t=0.58
-0.9897350797536384
% es.Ey (V/m) @ t=0.58
0.07392862625970376
% es.Ez (V/m) @ t=0.58
-3.160429119815161
% es.tEx (V/m) @ t=0.58
-0.9897350797536433
% es.tEy (V/m) @ t=0.58
0
% es.tEz (V/m) @ t=0.58
-3.160429119815195
% V (V) @ t=0.58
0.01667608484896668
% es.normE (V/m) @ t=0.6
3.3582413319842175
% es.EX (V/m) @ t=0.6
-1.0018330321241333
% es.EY (V/m) @ t=0.6
0.07483228502398846
% es.EZ (V/m) @ t=0.6
-3.199060382367831
% es.tEX (V/m) @ t=0.6
-1.0018330321241393
% es.tEY (V/m) @ t=0.6
0
% es.tEZ (V/m) @ t=0.6
-3.199060382367845
% es.Ex (V/m) @ t=0.6
-1.0018330321241333
% es.Ey (V/m) @ t=0.6
0.07483228502398846
% es.Ez (V/m) @ t=0.6
-3.199060382367831
% es.tEx (V/m) @ t=0.6
-1.0018330321241393
% es.tEy (V/m) @ t=0.6
0
% es.tEz (V/m) @ t=0.6
-3.199060382367845
% V (V) @ t=0.6
0.016879923746826835
% es.normE (V/m) @ t=0.62
3.3991380414999
% es.EX (V/m) @ t=0.62
-1.0140333701669952
% es.EY (V/m) @ t=0.62
0.07574359137970242
% es.EZ (V/m) @ t=0.62
-3.238018583757542
% es.tEX (V/m) @ t=0.62
-1.0140333701669988
% es.tEY (V/m) @ t=0.62
0
% es.tEZ (V/m) @ t=0.62
-3.2380185837575635
% es.Ex (V/m) @ t=0.62
-1.0140333701669952
% es.Ey (V/m) @ t=0.62
0.07574359137970242
% es.Ez (V/m) @ t=0.62
-3.238018583757542
% es.tEx (V/m) @ t=0.62
-1.0140333701669988
% es.tEy (V/m) @ t=0.62
0
% es.tEz (V/m) @ t=0.62
-3.2380185837575635
% V (V) @ t=0.62
0.017085487751664935
% es.normE (V/m) @ t=0.64
3.4403779578642935
% es.EX (V/m) @ t=0.64
-1.0263360938821977
% es.EY (V/m) @ t=0.64
0.07666254532686029
% es.EZ (V/m) @ t=0.64
-3.277303723984309
% es.tEX (V/m) @ t=0.64
-1.0263360938822075
% es.tEY (V/m) @ t=0.64
0
% es.tEZ (V/m) @ t=0.64
-3.2773037239843337
% es.Ex (V/m) @ t=0.64
-1.0263360938821977
% es.Ey (V/m) @ t=0.64
0.07666254532686029
% es.Ez (V/m) @ t=0.64
-3.277303723984309
% es.tEx (V/m) @ t=0.64
-1.0263360938822075
% es.tEy (V/m) @ t=0.64
0
% es.tEz (V/m) @ t=0.64
-3.2773037239843337
% V (V) @ t=0.64
0.01729277686348099
% es.normE (V/m) @ t=0.66
3.48196108107749
% es.EX (V/m) @ t=0.66
-1.0387412032697858
% es.EY (V/m) @ t=0.66
0.07758914686543197
% es.EZ (V/m) @ t=0.66
-3.316915803048219
% es.tEX (V/m) @ t=0.66
-1.038741203269801
% es.tEY (V/m) @ t=0.66
0
% es.tEZ (V/m) @ t=0.66
-3.3169158030482446
% es.Ex (V/m) @ t=0.66
-1.0387412032697858
% es.Ey (V/m) @ t=0.66
0.07758914686543197
% es.Ez (V/m) @ t=0.66
-3.316915803048219
% es.tEx (V/m) @ t=0.66
-1.038741203269801
% es.tEy (V/m) @ t=0.66
0
% es.tEz (V/m) @ t=0.66
-3.3169158030482446
% V (V) @ t=0.66
0.017501791082275
% es.normE (V/m) @ t=0.68
3.523887411139408
% es.EX (V/m) @ t=0.68
-1.0512486983297125
% es.EY (V/m) @ t=0.68
0.07852339599545112
% es.EZ (V/m) @ t=0.68
-3.3568548209491986
% es.tEX (V/m) @ t=0.68
-1.0512486983297151
% es.tEY (V/m) @ t=0.68
0
% es.tEZ (V/m) @ t=0.68
-3.35685482094922
% es.Ex (V/m) @ t=0.68
-1.0512486983297125
% es.Ey (V/m) @ t=0.68
0.07852339599545112
% es.Ez (V/m) @ t=0.68
-3.3568548209491986
% es.tEx (V/m) @ t=0.68
-1.0512486983297151
% es.tEy (V/m) @ t=0.68
0
% es.tEz (V/m) @ t=0.68
-3.35685482094922
% V (V) @ t=0.68
0.01771253040804696
% es.normE (V/m) @ t=0.7
3.5661569480500717
% es.EX (V/m) @ t=0.7
-1.0638585790620223
% es.EY (V/m) @ t=0.7
0.07946529271688849
% es.EZ (V/m) @ t=0.7
-3.3971207776872614
% es.tEX (V/m) @ t=0.7
-1.0638585790620283
% es.tEY (V/m) @ t=0.7
0
% es.tEZ (V/m) @ t=0.7
-3.397120777687295
% es.Ex (V/m) @ t=0.7
-1.0638585790620223
% es.Ey (V/m) @ t=0.7
0.07946529271688849
% es.Ez (V/m) @ t=0.7
-3.3971207776872614
% es.tEx (V/m) @ t=0.7
-1.0638585790620283
% es.tEy (V/m) @ t=0.7
0
% es.tEz (V/m) @ t=0.7
-3.397120777687295
% V (V) @ t=0.7
0.017924994840796873
% es.normE (V/m) @ t=0.72
3.608769691809501
% es.EX (V/m) @ t=0.72
-1.0765708454666822
% es.EY (V/m) @ t=0.72
0.08041483702974722
% es.EZ (V/m) @ t=0.72
-3.437713673262439
% es.tEX (V/m) @ t=0.72
-1.0765708454666907
% es.tEY (V/m) @ t=0.72
0
% es.tEZ (V/m) @ t=0.72
-3.437713673262447
% es.Ex (V/m) @ t=0.72
-1.0765708454666822
% es.Ey (V/m) @ t=0.72
0.08041483702974722
% es.Ez (V/m) @ t=0.72
-3.437713673262439
% es.tEx (V/m) @ t=0.72
-1.0765708454666907
% es.tEy (V/m) @ t=0.72
0
% es.tEz (V/m) @ t=0.72
-3.437713673262447
% V (V) @ t=0.72
0.018139184380524736
% es.normE (V/m) @ t=0.74
3.651725642417634
% es.EX (V/m) @ t=0.74
-1.0893854975437005
% es.EY (V/m) @ t=0.74
0.08137202893404985
% es.EZ (V/m) @ t=0.74
-3.478633507674659
% es.tEX (V/m) @ t=0.74
-1.0893854975437094
% es.tEY (V/m) @ t=0.74
0
% es.tEZ (V/m) @ t=0.74
-3.478633507674683
% es.Ex (V/m) @ t=0.74
-1.0893854975437005
% es.Ey (V/m) @ t=0.74
0.08137202893404985
% es.Ez (V/m) @ t=0.74
-3.478633507674659
% es.tEx (V/m) @ t=0.74
-1.0893854975437094
% es.tEy (V/m) @ t=0.74
0
% es.tEz (V/m) @ t=0.74
-3.478633507674683
% V (V) @ t=0.74
0.01835509902723055
% es.normE (V/m) @ t=0.76
3.6955549092375746
% es.EX (V/m) @ t=0.76
-1.1024606771302348
% es.EY (V/m) @ t=0.76
0.08234867931685111
% es.EZ (V/m) @ t=0.76
-3.5203852633996213
% es.tEX (V/m) @ t=0.76
-1.1024606771302459
% es.tEY (V/m) @ t=0.76
0
% es.tEZ (V/m) @ t=0.76
-3.5203852633996444
% es.Ex (V/m) @ t=0.76
-1.1024606771302348
% es.Ey (V/m) @ t=0.76
0.08234867931685111
% es.Ez (V/m) @ t=0.76
-3.5203852633996213
% es.tEx (V/m) @ t=0.76
-1.1024606771302459
% es.tEy (V/m) @ t=0.76
0
% es.tEz (V/m) @ t=0.76
-3.5203852633996444
% V (V) @ t=0.76
0.01857540340868562
% es.normE (V/m) @ t=0.78
3.739933534080676
% es.EX (V/m) @ t=0.78
-1.1156997412566132
% es.EY (V/m) @ t=0.78
0.08333757035887532
% es.EZ (V/m) @ t=0.78
-3.5626603376856742
% es.tEX (V/m) @ t=0.78
-1.115699741256627
% es.tEY (V/m) @ t=0.78
0
% es.tEZ (V/m) @ t=0.78
-3.5626603376857116
% es.Ex (V/m) @ t=0.78
-1.1156997412566132
% es.Ey (V/m) @ t=0.78
0.08333757035887532
% es.Ez (V/m) @ t=0.78
-3.5626603376856742
% es.tEx (V/m) @ t=0.78
-1.115699741256627
% es.tEy (V/m) @ t=0.78
0
% es.tEz (V/m) @ t=0.78
-3.5626603376857116
% V (V) @ t=0.78
0.018798469128852698
% es.normE (V/m) @ t=0.8
3.784753345057584
% es.EX (V/m) @ t=0.8
-1.129070420163944
% es.EY (V/m) @ t=0.8
0.084336291980146
% es.EZ (V/m) @ t=0.8
-3.605355685930551
% es.tEX (V/m) @ t=0.8
-1.1290704201639556
% es.tEY (V/m) @ t=0.8
0
% es.tEZ (V/m) @ t=0.8
-3.6053556859305864
% es.Ex (V/m) @ t=0.8
-1.129070420163944
% es.Ey (V/m) @ t=0.8
0.084336291980146
% es.Ez (V/m) @ t=0.8
-3.605355685930551
% es.tEx (V/m) @ t=0.8
-1.1290704201639556
% es.tEy (V/m) @ t=0.8
0
% es.tEz (V/m) @ t=0.8
-3.6053556859305864
% V (V) @ t=0.8
0.019023752454983955
% es.normE (V/m) @ t=0.82
3.830014342168229
% es.EX (V/m) @ t=0.82
-1.14257271385222
% es.EY (V/m) @ t=0.82
0.08534484418063296
% es.EZ (V/m) @ t=0.82
-3.648471308134182
% es.tEX (V/m) @ t=0.82
-1.142572713852239
% es.tEY (V/m) @ t=0.82
0
% es.tEZ (V/m) @ t=0.82
-3.648471308134221
% es.Ex (V/m) @ t=0.82
-1.14257271385222
% es.Ey (V/m) @ t=0.82
0.08534484418063296
% es.Ez (V/m) @ t=0.82
-3.648471308134182
% es.tEx (V/m) @ t=0.82
-1.142572713852239
% es.tEy (V/m) @ t=0.82
0
% es.tEz (V/m) @ t=0.82
-3.648471308134221
% V (V) @ t=0.82
0.019251253387079396
% es.normE (V/m) @ t=0.84
3.875716525412672
% es.EX (V/m) @ t=0.84
-1.1562066223214584
% es.EY (V/m) @ t=0.84
0.08636322696035187
% es.EZ (V/m) @ t=0.84
-3.6920072042966225
% es.tEX (V/m) @ t=0.84
-1.1562066223214629
% es.tEY (V/m) @ t=0.84
0
% es.tEZ (V/m) @ t=0.84
-3.6920072042966634
% es.Ex (V/m) @ t=0.84
-1.1562066223214584
% es.Ey (V/m) @ t=0.84
0.08636322696035187
% es.Ez (V/m) @ t=0.84
-3.6920072042966225
% es.tEx (V/m) @ t=0.84
-1.1562066223214629
% es.tEy (V/m) @ t=0.84
0
% es.tEz (V/m) @ t=0.84
-3.6920072042966634
% V (V) @ t=0.84
0.019480971925139014
% es.normE (V/m) @ t=0.86
3.921859894790882
% es.EX (V/m) @ t=0.86
-1.1699721455716507
% es.EY (V/m) @ t=0.86
0.08739144031930382
% es.EZ (V/m) @ t=0.86
-3.735963374417844
% es.tEX (V/m) @ t=0.86
-1.1699721455716556
% es.tEY (V/m) @ t=0.86
0
% es.tEZ (V/m) @ t=0.86
-3.735963374417869
% es.Ex (V/m) @ t=0.86
-1.1699721455716507
% es.Ey (V/m) @ t=0.86
0.08739144031930382
% es.Ez (V/m) @ t=0.86
-3.735963374417844
% es.tEx (V/m) @ t=0.86
-1.1699721455716556
% es.tEy (V/m) @ t=0.86
0
% es.tEz (V/m) @ t=0.86
-3.735963374417869
% V (V) @ t=0.86
0.01971290806916282
% es.normE (V/m) @ t=0.88
3.968444450302822
% es.EX (V/m) @ t=0.88
-1.1838692836027702
% es.EY (V/m) @ t=0.88
0.08842948425747571
% es.EZ (V/m) @ t=0.88
-3.780339818497822
% es.tEX (V/m) @ t=0.88
-1.1838692836027889
% es.tEY (V/m) @ t=0.88
0
% es.tEZ (V/m) @ t=0.88
-3.7803398184978523
% es.Ex (V/m) @ t=0.88
-1.1838692836027702
% es.Ey (V/m) @ t=0.88
0.08842948425747571
% es.Ez (V/m) @ t=0.88
-3.780339818497822
% es.tEx (V/m) @ t=0.88
-1.1838692836027889
% es.tEy (V/m) @ t=0.88
0
% es.tEz (V/m) @ t=0.88
-3.7803398184978523
% V (V) @ t=0.88
0.019947061819150798
% es.normE (V/m) @ t=0.9
4.0154701919485625
% es.EX (V/m) @ t=0.9
-1.1978980364148615
% es.EY (V/m) @ t=0.9
0.08947735877486879
% es.EZ (V/m) @ t=0.9
-3.8251365365366077
% es.tEX (V/m) @ t=0.9
-1.1978980364148697
% es.tEY (V/m) @ t=0.9
0
% es.tEZ (V/m) @ t=0.9
-3.825136536536654
% es.Ex (V/m) @ t=0.9
-1.1978980364148615
% es.Ey (V/m) @ t=0.9
0.08947735877486879
% es.Ez (V/m) @ t=0.9
-3.8251365365366077
% es.tEx (V/m) @ t=0.9
-1.1978980364148697
% es.tEy (V/m) @ t=0.9
0
% es.tEz (V/m) @ t=0.9
-3.825136536536654
% V (V) @ t=0.9
0.02018343317510296
% es.normE (V/m) @ t=0.92
4.062937119728061
% es.EX (V/m) @ t=0.92
-1.2120584040079065
% es.EY (V/m) @ t=0.92
0.09053506387150614
% es.EZ (V/m) @ t=0.92
-3.870353528534163
% es.tEX (V/m) @ t=0.92
-1.2120584040079194
% es.tEY (V/m) @ t=0.92
0
% es.tEZ (V/m) @ t=0.92
-3.8703535285341673
% es.Ex (V/m) @ t=0.92
-1.2120584040079065
% es.Ey (V/m) @ t=0.92
0.09053506387150614
% es.Ez (V/m) @ t=0.92
-3.870353528534163
% es.tEx (V/m) @ t=0.92
-1.2120584040079194
% es.tEy (V/m) @ t=0.92
0
% es.tEz (V/m) @ t=0.92
-3.8703535285341673
% V (V) @ t=0.92
0.020422022137019307
% es.normE (V/m) @ t=0.94
4.1108452336413475
% es.EX (V/m) @ t=0.94
-1.2263503863819074
% es.EY (V/m) @ t=0.94
0.0916025995473898
% es.EZ (V/m) @ t=0.94
-3.915990794490525
% es.tEX (V/m) @ t=0.94
-1.2263503863819238
% es.tEY (V/m) @ t=0.94
0
% es.tEZ (V/m) @ t=0.94
-3.9159907944905505
% es.Ex (V/m) @ t=0.94
-1.2263503863819074
% es.Ey (V/m) @ t=0.94
0.0916025995473898
% es.Ez (V/m) @ t=0.94
-3.915990794490525
% es.tEx (V/m) @ t=0.94
-1.2263503863819238
% es.tEy (V/m) @ t=0.94
0
% es.tEz (V/m) @ t=0.94
-3.9159907944905505
% V (V) @ t=0.94
0.02066282870489983
% es.normE (V/m) @ t=0.96
4.1591945336883756
% es.EX (V/m) @ t=0.96
-1.2407739835368532
% es.EY (V/m) @ t=0.96
0.0926799658024505
% es.EZ (V/m) @ t=0.96
-3.962048334405644
% es.tEX (V/m) @ t=0.96
-1.2407739835368616
% es.tEY (V/m) @ t=0.96
0
% es.tEZ (V/m) @ t=0.96
-3.962048334405676
% es.Ex (V/m) @ t=0.96
-1.2407739835368532
% es.Ey (V/m) @ t=0.96
0.0926799658024505
% es.Ez (V/m) @ t=0.96
-3.962048334405644
% es.tEx (V/m) @ t=0.96
-1.2407739835368616
% es.tEy (V/m) @ t=0.96
0
% es.tEz (V/m) @ t=0.96
-3.962048334405676
% V (V) @ t=0.96
0.020905852878744535
% es.normE (V/m) @ t=0.98
4.207985019869157
% es.EX (V/m) @ t=0.98
-1.2553291954727546
% es.EY (V/m) @ t=0.98
0.09376716263677928
% es.EZ (V/m) @ t=0.98
-4.008526148279528
% es.tEX (V/m) @ t=0.98
-1.2553291954727754
% es.tEY (V/m) @ t=0.98
0
% es.tEZ (V/m) @ t=0.98
-4.008526148279559
% es.Ex (V/m) @ t=0.98
-1.2553291954727546
% es.Ey (V/m) @ t=0.98
0.09376716263677928
% es.Ez (V/m) @ t=0.98
-4.008526148279528
% es.tEx (V/m) @ t=0.98
-1.2553291954727754
% es.tEy (V/m) @ t=0.98
0
% es.tEz (V/m) @ t=0.98
-4.008526148279559
% V (V) @ t=0.98
0.021151094658553426
% es.normE (V/m) @ t=1
4.25736200063759
% es.EX (V/m) @ t=1
-1.270059371470094
% es.EY (V/m) @ t=1
0.09486743010273418
% es.EZ (V/m) @ t=1
-4.05556265657135
% es.tEX (V/m) @ t=1
-1.2700593714701114
% es.tEY (V/m) @ t=1
0
% es.tEZ (V/m) @ t=1
-4.055562656571395
% es.Ex (V/m) @ t=1
-1.270059371470094
% es.Ey (V/m) @ t=1
0.09486743010273418
% es.Ez (V/m) @ t=1
-4.05556265657135
% es.tEx (V/m) @ t=1
-1.2700593714701114
% es.tEy (V/m) @ t=1
0
% es.tEz (V/m) @ t=1
-4.055562656571395
% V (V) @ t=1
0.021399284325365062
% es.normE (V/m) @ t=1.02
4.307411700371921
% es.EX (V/m) @ t=1.02
-1.2849902344972342
% es.EY (V/m) @ t=1.02
0.0959826908103901
% es.EZ (V/m) @ t=1.02
-4.103239996401882
% es.tEX (V/m) @ t=1.02
-1.2849902344972364
% es.tEY (V/m) @ t=1.02
0
% es.tEZ (V/m) @ t=1.02
-4.103239996401912
% es.Ex (V/m) @ t=1.02
-1.2849902344972342
% es.Ey (V/m) @ t=1.02
0.0959826908103901
% es.Ez (V/m) @ t=1.02
-4.103239996401882
% es.tEx (V/m) @ t=1.02
-1.2849902344972364
% es.tEy (V/m) @ t=1.02
0
% es.tEz (V/m) @ t=1.02
-4.103239996401912
% V (V) @ t=1.02
0.021650855219614018
% es.normE (V/m) @ t=1.04
4.3579554846978645
% es.EX (V/m) @ t=1.04
-1.3000684932872688