% Model:              1 neuron.mph
% Version:            COMSOL 6.1.0.252
% Date:               Mar 18 2023, 13:42
% Dimension:          0
% Nodes:              14017
% Expressions:        14017
% Description:        Electric field norm, Electric field, X component, Electric field, Y component, Electric field, Z component, Tangential electric field, X component, Tangential electric field, Y component, Tangential electric field, Z component, Electric field, x component, Electric field, y component, Electric field, z component, Tangential electric field, x component, Tangential electric field, y component, Tangential electric field, z component, Electric potential
% Length unit:        mm
% x
1.33
% y
12.2
% z
2
% es.normE (V/m) @ t=0
4.224403250380025
% es.EX (V/m) @ t=0
1.6835876011709785
% es.EY (V/m) @ t=0
0.4451090567773761
% es.EZ (V/m) @ t=0
-3.8453488267844946
% es.tEX (V/m) @ t=0
1.683587601170979
% es.tEY (V/m) @ t=0
0
% es.tEZ (V/m) @ t=0
-3.8453488267845053
% es.Ex (V/m) @ t=0
1.6835876011709785
% es.Ey (V/m) @ t=0
0.4451090567773761
% es.Ez (V/m) @ t=0
-3.8453488267844946
% es.tEx (V/m) @ t=0
1.683587601170979
% es.tEy (V/m) @ t=0
0
% es.tEz (V/m) @ t=0
-3.8453488267845053
% V (V) @ t=0
0.02112239895014604
% es.normE (V/m) @ t=0.02
3.8799790157871685
% es.EX (V/m) @ t=0.02
1.5463214607862321
% es.EY (V/m) @ t=0.02
0.40881839055003866
% es.EZ (V/m) @ t=0.02
-3.531829588439704
% es.tEX (V/m) @ t=0.02
1.546321460786233
% es.tEY (V/m) @ t=0.02
0
% es.tEZ (V/m) @ t=0.02
-3.531829588439706
% es.Ex (V/m) @ t=0.02
1.5463214607862321
% es.Ey (V/m) @ t=0.02
0.40881839055003866
% es.Ez (V/m) @ t=0.02
-3.531829588439704
% es.tEx (V/m) @ t=0.02
1.546321460786233
% es.tEy (V/m) @ t=0.02
0
% es.tEz (V/m) @ t=0.02
-3.531829588439706
% V (V) @ t=0.02
0.0194002467489635
% es.normE (V/m) @ t=0.04
3.9314171712352337
% es.EX (V/m) @ t=0.04
1.5668215750910206
% es.EY (V/m) @ t=0.04
0.4142384424673011
% es.EZ (V/m) @ t=0.04
-3.5786521856134623
% es.tEX (V/m) @ t=0.04
1.566821575091021
% es.tEY (V/m) @ t=0.04
0
% es.tEZ (V/m) @ t=0.04
-3.578652185613457
% es.Ex (V/m) @ t=0.04
1.5668215750910206
% es.Ey (V/m) @ t=0.04
0.4142384424673011
% es.Ez (V/m) @ t=0.04
-3.5786521856134623
% es.tEx (V/m) @ t=0.04
1.566821575091021
% es.tEy (V/m) @ t=0.04
0
% es.tEz (V/m) @ t=0.04
-3.578652185613457
% V (V) @ t=0.04
0.01965743654654764
% es.normE (V/m) @ t=0.06
3.9838843264419044
% es.EX (V/m) @ t=0.06
1.5877317814781975
% es.EY (V/m) @ t=0.06
0.4197667221406203
% es.EZ (V/m) @ t=0.06
-3.626411467887559
% es.tEX (V/m) @ t=0.06
1.5877317814781984
% es.tEY (V/m) @ t=0.06
0
% es.tEZ (V/m) @ t=0.06
-3.6264114678875607
% es.Ex (V/m) @ t=0.06
1.5877317814781975
% es.Ey (V/m) @ t=0.06
0.4197667221406203
% es.Ez (V/m) @ t=0.06
-3.626411467887559
% es.tEx (V/m) @ t=0.06
1.5877317814781984
% es.tEy (V/m) @ t=0.06
0
% es.tEz (V/m) @ t=0.06
-3.6264114678875607
% V (V) @ t=0.06
0.01991977633729785
% es.normE (V/m) @ t=0.08
4.036552616634468
% es.EX (V/m) @ t=0.08
1.6087221468282014
% es.EY (V/m) @ t=0.08
0.4253161500767657
% es.EZ (V/m) @ t=0.08
-3.674353841385562
% es.tEX (V/m) @ t=0.08
1.6087221468282022
% es.tEY (V/m) @ t=0.08
0
% es.tEZ (V/m) @ t=0.08
-3.6743538413855674
% es.Ex (V/m) @ t=0.08
1.6087221468282014
% es.Ey (V/m) @ t=0.08
0.4253161500767657
% es.Ez (V/m) @ t=0.08
-3.674353841385562
% es.tEx (V/m) @ t=0.08
1.6087221468282022
% es.tEy (V/m) @ t=0.08
0
% es.tEz (V/m) @ t=0.08
-3.6743538413855674
% V (V) @ t=0.08
0.020183122954323306
% es.normE (V/m) @ t=0.1
4.090824799341219
% es.EX (V/m) @ t=0.1
1.6303517881305765
% es.EY (V/m) @ t=0.1
0.43103644632936167
% es.EZ (V/m) @ t=0.1
-3.7237560140658292
% es.tEX (V/m) @ t=0.1
1.630351788130577
% es.tEY (V/m) @ t=0.1
0
% es.tEZ (V/m) @ t=0.1
-3.723756014065817
% es.Ex (V/m) @ t=0.1
1.6303517881305765
% es.Ey (V/m) @ t=0.1
0.43103644632936167
% es.Ez (V/m) @ t=0.1
-3.7237560140658292
% es.tEx (V/m) @ t=0.1
1.630351788130577
% es.tEy (V/m) @ t=0.1
0
% es.tEz (V/m) @ t=0.1
-3.723756014065817
% V (V) @ t=0.1
0.02045444090355177
% es.normE (V/m) @ t=0.12
4.145908225362667
% es.EX (V/m) @ t=0.12
1.6523047730088787
% es.EY (V/m) @ t=0.12
0.436843167188119
% es.EZ (V/m) @ t=0.12
-3.7738965481468494
% es.tEX (V/m) @ t=0.12
1.6523047730088791
% es.tEY (V/m) @ t=0.12
0
% es.tEZ (V/m) @ t=0.12
-3.773896548146851
% es.Ex (V/m) @ t=0.12
1.6523047730088787
% es.Ey (V/m) @ t=0.12
0.436843167188119
% es.Ez (V/m) @ t=0.12
-3.7738965481468494
% es.tEx (V/m) @ t=0.12
1.6523047730088791
% es.tEy (V/m) @ t=0.12
0
% es.tEz (V/m) @ t=0.12
-3.773896548146851
% V (V) @ t=0.12
0.02072979072516575
% es.normE (V/m) @ t=0.14
4.200991651387265
% es.EX (V/m) @ t=0.14
1.6742577578871796
% es.EY (V/m) @ t=0.14
0.44264988804688876
% es.EZ (V/m) @ t=0.14
-3.8240370822278713
% es.tEX (V/m) @ t=0.14
1.6742577578871805
% es.tEY (V/m) @ t=0.14
0
% es.tEZ (V/m) @ t=0.14
-3.8240370822278784
% es.Ex (V/m) @ t=0.14
1.6742577578871796
% es.Ey (V/m) @ t=0.14
0.44264988804688876
% es.Ez (V/m) @ t=0.14
-3.8240370822278713
% es.tEx (V/m) @ t=0.14
1.6742577578871805
% es.tEy (V/m) @ t=0.14
0
% es.tEz (V/m) @ t=0.14
-3.8240370822278784
% V (V) @ t=0.14
0.02100514054677972
% es.normE (V/m) @ t=0.16
4.256075077414891
% es.EX (V/m) @ t=0.16
1.6962107427654947
% es.EY (V/m) @ t=0.16
0.44845660890566386
% es.EZ (V/m) @ t=0.16
-3.874177616308888
% es.tEX (V/m) @ t=0.16
1.696210742765495
% es.tEY (V/m) @ t=0.16
0
% es.tEZ (V/m) @ t=0.16
-3.874177616308895
% es.Ex (V/m) @ t=0.16
1.6962107427654947
% es.Ey (V/m) @ t=0.16
0.44845660890566386
% es.Ez (V/m) @ t=0.16
-3.874177616308888
% es.tEx (V/m) @ t=0.16
1.696210742765495
% es.tEy (V/m) @ t=0.16
0
% es.tEz (V/m) @ t=0.16
-3.874177616308895
% V (V) @ t=0.16
0.021280490368393697
% es.normE (V/m) @ t=0.18
4.3128263593412255
% es.EX (V/m) @ t=0.18
1.7188282548057034
% es.EY (V/m) @ t=0.18
0.45444426097385815
% es.EZ (V/m) @ t=0.18
-3.9258360168662936
% es.tEX (V/m) @ t=0.18
1.718828254805704
% es.tEY (V/m) @ t=0.18
0
% es.tEZ (V/m) @ t=0.18
-3.9258360168662954
% es.Ex (V/m) @ t=0.18
1.7188282548057034
% es.Ey (V/m) @ t=0.18
0.45444426097385815
% es.Ez (V/m) @ t=0.18
-3.9258360168662936
% es.tEx (V/m) @ t=0.18
1.718828254805704
% es.tEy (V/m) @ t=0.18
0
% es.tEz (V/m) @ t=0.18
-3.9258360168662954
% V (V) @ t=0.18
0.021564061775769312
% es.normE (V/m) @ t=0.2
4.372911046583194
% es.EX (V/m) @ t=0.2
1.742773902160332
% es.EY (V/m) @ t=0.2
0.46079352524159845
% es.EZ (V/m) @ t=0.2
-3.9805280512390766
% es.tEX (V/m) @ t=0.2
1.7427739021603328
% es.tEY (V/m) @ t=0.2
0
% es.tEZ (V/m) @ t=0.2
-3.980528051239098
% es.Ex (V/m) @ t=0.2
1.742773902160332
% es.Ey (V/m) @ t=0.2
0.46079352524159845
% es.Ez (V/m) @ t=0.2
-3.9805280512390766
% es.tEx (V/m) @ t=0.2
1.7427739021603328
% es.tEy (V/m) @ t=0.2
0
% es.tEz (V/m) @ t=0.2
-3.980528051239098
% V (V) @ t=0.2
0.021864064984604824
% es.normE (V/m) @ t=0.22
4.432995733953935
% es.EX (V/m) @ t=0.22
1.7667195495149328
% es.EY (V/m) @ t=0.22
0.4671427895093849
% es.EZ (V/m) @ t=0.22
-4.035220085611861
% es.tEX (V/m) @ t=0.22
1.7667195495149333
% es.tEY (V/m) @ t=0.22
0
% es.tEZ (V/m) @ t=0.22
-4.035220085611876
% es.Ex (V/m) @ t=0.22
1.7667195495149328
% es.Ey (V/m) @ t=0.22
0.4671427895093849
% es.Ez (V/m) @ t=0.22
-4.035220085611861
% es.tEx (V/m) @ t=0.22
1.7667195495149333
% es.tEy (V/m) @ t=0.22
0
% es.tEz (V/m) @ t=0.22
-4.035220085611876
% V (V) @ t=0.22
0.022164068193440335
% es.normE (V/m) @ t=0.24
4.493080421448291
% es.EX (V/m) @ t=0.24
1.7906651968695266
% es.EY (V/m) @ t=0.24
0.4734920537772016
% es.EZ (V/m) @ t=0.24
-4.089912119984648
% es.tEX (V/m) @ t=0.24
1.7906651968695204
% es.tEY (V/m) @ t=0.24
0
% es.tEZ (V/m) @ t=0.24
-4.089912119984675
% es.Ex (V/m) @ t=0.24
1.7906651968695266
% es.Ey (V/m) @ t=0.24
0.4734920537772016
% es.Ez (V/m) @ t=0.24
-4.089912119984648
% es.tEx (V/m) @ t=0.24
1.7906651968695204
% es.tEy (V/m) @ t=0.24
0
% es.tEz (V/m) @ t=0.24
-4.089912119984675
% V (V) @ t=0.24
0.022464071402275847
% es.normE (V/m) @ t=0.26
4.553165109061376
% es.EX (V/m) @ t=0.26
1.814610844224163
% es.EY (V/m) @ t=0.26
0.4798413180449561
% es.EZ (V/m) @ t=0.26
-4.144604154357433
% es.tEX (V/m) @ t=0.26
1.8146108442241635
% es.tEY (V/m) @ t=0.26
0
% es.tEZ (V/m) @ t=0.26
-4.144604154357445
% es.Ex (V/m) @ t=0.26
1.814610844224163
% es.Ey (V/m) @ t=0.26
0.4798413180449561
% es.Ez (V/m) @ t=0.26
-4.144604154357433
% es.tEx (V/m) @ t=0.26
1.8146108442241635
% es.tEy (V/m) @ t=0.26
0
% es.tEz (V/m) @ t=0.26
-4.144604154357445
% V (V) @ t=0.26
0.022764074611111358
% es.normE (V/m) @ t=0.28
4.61324979678853
% es.EX (V/m) @ t=0.28
1.8385564915787511
% es.EY (V/m) @ t=0.28
0.4861905823127213
% es.EZ (V/m) @ t=0.28
-4.199296188730228
% es.tEX (V/m) @ t=0.28
1.8385564915787516
% es.tEY (V/m) @ t=0.28
0
% es.tEZ (V/m) @ t=0.28
-4.199296188730248
% es.Ex (V/m) @ t=0.28
1.8385564915787511
% es.Ey (V/m) @ t=0.28
0.4861905823127213
% es.Ez (V/m) @ t=0.28
-4.199296188730228
% es.tEx (V/m) @ t=0.28
1.8385564915787516
% es.tEy (V/m) @ t=0.28
0
% es.tEz (V/m) @ t=0.28
-4.199296188730248
% V (V) @ t=0.28
0.02306407781994687
% es.normE (V/m) @ t=0.3
4.673334484625364
% es.EX (V/m) @ t=0.3
1.862502138933352
% es.EY (V/m) @ t=0.3
0.4925398465805042
% es.EZ (V/m) @ t=0.3
-4.253988223103013
% es.tEX (V/m) @ t=0.3
1.862502138933353
% es.tEY (V/m) @ t=0.3
0
% es.tEZ (V/m) @ t=0.3
-4.2539882231030255
% es.Ex (V/m) @ t=0.3
1.862502138933352
% es.Ey (V/m) @ t=0.3
0.4925398465805042
% es.Ez (V/m) @ t=0.3
-4.253988223103013
% es.tEx (V/m) @ t=0.3
1.862502138933353
% es.tEy (V/m) @ t=0.3
0
% es.tEz (V/m) @ t=0.3
-4.2539882231030255
% V (V) @ t=0.3
0.023364081028782378
% es.normE (V/m) @ t=0.32
4.733419172567697
% es.EX (V/m) @ t=0.32
1.8864477862879454
% es.EY (V/m) @ t=0.32
0.4988891108482676
% es.EZ (V/m) @ t=0.32
-4.3086802574758
% es.tEX (V/m) @ t=0.32
1.8864477862879392
% es.tEY (V/m) @ t=0.32
0
% es.tEZ (V/m) @ t=0.32
-4.308680257475821
% es.Ex (V/m) @ t=0.32
1.8864477862879454
% es.Ey (V/m) @ t=0.32
0.4988891108482676
% es.Ez (V/m) @ t=0.32
-4.3086802574758
% es.tEx (V/m) @ t=0.32
1.8864477862879392
% es.tEy (V/m) @ t=0.32
0
% es.tEz (V/m) @ t=0.32
-4.308680257475821
% V (V) @ t=0.32
0.023664084237617886
% es.normE (V/m) @ t=0.34
4.79350386061157
% es.EX (V/m) @ t=0.34
1.9103934336425539
% es.EY (V/m) @ t=0.34
0.505238375116086
% es.EZ (V/m) @ t=0.34
-4.363372291848577
% es.tEX (V/m) @ t=0.34
1.9103934336425548
% es.tEY (V/m) @ t=0.34
0
% es.tEZ (V/m) @ t=0.34
-4.3633722918485915
% es.Ex (V/m) @ t=0.34
1.9103934336425539
% es.Ey (V/m) @ t=0.34
0.505238375116086
% es.Ez (V/m) @ t=0.34
-4.363372291848577
% es.tEx (V/m) @ t=0.34
1.9103934336425548
% es.tEy (V/m) @ t=0.34
0
% es.tEz (V/m) @ t=0.34
-4.3633722918485915
% V (V) @ t=0.34
0.02396408744645339
% es.normE (V/m) @ t=0.36
4.856951793548214
% es.EX (V/m) @ t=0.36
1.9356799222012908
% es.EY (V/m) @ t=0.36
0.5119068242193556
% es.EZ (V/m) @ t=0.36
-4.421128378360962
% es.tEX (V/m) @ t=0.36
1.9356799222012917
% es.tEY (V/m) @ t=0.36
0
% es.tEZ (V/m) @ t=0.36
-4.421128378360969
% es.Ex (V/m) @ t=0.36
1.9356799222012908
% es.Ey (V/m) @ t=0.36
0.5119068242193556
% es.Ez (V/m) @ t=0.36
-4.421128378360962
% es.tEx (V/m) @ t=0.36
1.9356799222012917
% es.tEy (V/m) @ t=0.36
0
% es.tEz (V/m) @ t=0.36
-4.421128378360969
% V (V) @ t=0.36
0.024281739880819875
% es.normE (V/m) @ t=0.38
4.922039371114303
% es.EX (V/m) @ t=0.38
1.961620095718847
% es.EY (V/m) @ t=0.38
0.5187308818506491
% es.EZ (V/m) @ t=0.38
-4.480378247127685
% es.tEX (V/m) @ t=0.38
1.9616200957188479
% es.tEY (V/m) @ t=0.38
0
% es.tEZ (V/m) @ t=0.38
-4.48037824712771
% es.Ex (V/m) @ t=0.38
1.961620095718847
% es.Ey (V/m) @ t=0.38
0.5187308818506491
% es.Ez (V/m) @ t=0.38
-4.480378247127685
% es.tEx (V/m) @ t=0.38
1.9616200957188479
% es.tEy (V/m) @ t=0.38
0
% es.tEz (V/m) @ t=0.38
-4.48037824712771
% V (V) @ t=0.38
0.02460799664001507
% es.normE (V/m) @ t=0.4
4.987126949130529
% es.EX (V/m) @ t=0.4
1.9875602692363463
% es.EY (V/m) @ t=0.4
0.5255549394819372
% es.EZ (V/m) @ t=0.4
-4.53962811589442
% es.tEX (V/m) @ t=0.4
1.9875602692363472
% es.tEY (V/m) @ t=0.4
0
% es.tEZ (V/m) @ t=0.4
-4.5396281158944305
% es.Ex (V/m) @ t=0.4
1.9875602692363463
% es.Ey (V/m) @ t=0.4
0.5255549394819372
% es.Ez (V/m) @ t=0.4
-4.53962811589442
% es.tEx (V/m) @ t=0.4
1.9875602692363472
% es.tEy (V/m) @ t=0.4
0
% es.tEz (V/m) @ t=0.4
-4.5396281158944305
% V (V) @ t=0.4
0.02493425339921026
% es.normE (V/m) @ t=0.42
5.052214527579515
% es.EX (V/m) @ t=0.42
2.0135004427538865
% es.EY (V/m) @ t=0.42
0.5323789971131969
% es.EZ (V/m) @ t=0.42
-4.598877984661147
% es.tEX (V/m) @ t=0.42
2.013500442753873
% es.tEY (V/m) @ t=0.42
0
% es.tEZ (V/m) @ t=0.42
-4.598877984661151
% es.Ex (V/m) @ t=0.42
2.0135004427538865
% es.Ey (V/m) @ t=0.42
0.5323789971131969
% es.Ez (V/m) @ t=0.42
-4.598877984661147
% es.tEx (V/m) @ t=0.42
2.013500442753873
% es.tEy (V/m) @ t=0.42
0
% es.tEz (V/m) @ t=0.42
-4.598877984661151
% V (V) @ t=0.42
0.025260510158405445
% es.normE (V/m) @ t=0.44
5.117302106444763
% es.EX (V/m) @ t=0.44
2.0394406162714285
% es.EY (V/m) @ t=0.44
0.5392030547444904
% es.EZ (V/m) @ t=0.44
-4.658127853427896
% es.tEX (V/m) @ t=0.44
2.039440616271415
% es.tEY (V/m) @ t=0.44
0
% es.tEZ (V/m) @ t=0.44
-4.6581278534279065
% es.Ex (V/m) @ t=0.44
2.0394406162714285
% es.Ey (V/m) @ t=0.44
0.5392030547444904
% es.Ez (V/m) @ t=0.44
-4.658127853427896
% es.tEx (V/m) @ t=0.44
2.039440616271415
% es.tEy (V/m) @ t=0.44
0
% es.tEz (V/m) @ t=0.44
-4.6581278534279065
% V (V) @ t=0.44
0.025586766917600635
% es.normE (V/m) @ t=0.46
5.182389685710524
% es.EX (V/m) @ t=0.46
2.065380789788928
% es.EY (V/m) @ t=0.46
0.5460271123758087
% es.EZ (V/m) @ t=0.46
-4.717377722194609
% es.tEX (V/m) @ t=0.46
2.0653807897889287
% es.tEY (V/m) @ t=0.46
0
% es.tEZ (V/m) @ t=0.46
-4.71737772219462
% es.Ex (V/m) @ t=0.46
2.065380789788928
% es.Ey (V/m) @ t=0.46
0.5460271123758087
% es.Ez (V/m) @ t=0.46
-4.717377722194609
% es.tEx (V/m) @ t=0.46
2.0653807897889287
% es.tEy (V/m) @ t=0.46
0
% es.tEz (V/m) @ t=0.46
-4.71737772219462
% V (V) @ t=0.46
0.025913023676795825
% es.normE (V/m) @ t=0.48
5.247477265361962
% es.EX (V/m) @ t=0.48
2.0913209633064698
% es.EY (V/m) @ t=0.48
0.5528511700070826
% es.EZ (V/m) @ t=0.48
-4.776627590961336
% es.tEX (V/m) @ t=0.48
2.0913209633064707
% es.tEY (V/m) @ t=0.48
0
% es.tEZ (V/m) @ t=0.48
-4.776627590961347
% es.Ex (V/m) @ t=0.48
2.0913209633064698
% es.Ey (V/m) @ t=0.48
0.5528511700070826
% es.Ez (V/m) @ t=0.48
-4.776627590961336
% es.tEx (V/m) @ t=0.48
2.0913209633064707
% es.tEy (V/m) @ t=0.48
0
% es.tEz (V/m) @ t=0.48
-4.776627590961347
% V (V) @ t=0.48
0.026239280435991018
% es.normE (V/m) @ t=0.5
5.312564845384907
% es.EX (V/m) @ t=0.5
2.11726113682404
% es.EY (V/m) @ t=0.5
0.5596752276384134
% es.EZ (V/m) @ t=0.5
-4.835877459728078
% es.tEX (V/m) @ t=0.5
2.117261136824041
% es.tEY (V/m) @ t=0.5
0
% es.tEZ (V/m) @ t=0.5
-4.8358774597280885
% es.Ex (V/m) @ t=0.5
2.11726113682404
% es.Ey (V/m) @ t=0.5
0.5596752276384134
% es.Ez (V/m) @ t=0.5
-4.835877459728078
% es.tEx (V/m) @ t=0.5
2.117261136824041
% es.tEy (V/m) @ t=0.5
0
% es.tEz (V/m) @ t=0.5
-4.8358774597280885
% V (V) @ t=0.5
0.026565537195186204
% es.normE (V/m) @ t=0.52
5.3777038083433695
% es.EX (V/m) @ t=0.52
2.143221793097303
% es.EY (V/m) @ t=0.52
0.5665050157205531
% es.EZ (V/m) @ t=0.52
-4.895174073291262
% es.tEX (V/m) @ t=0.52
2.143221793097304
% es.tEY (V/m) @ t=0.52
0
% es.tEZ (V/m) @ t=0.52
-4.89517407329128
% es.Ex (V/m) @ t=0.52
2.143221793097303
% es.Ey (V/m) @ t=0.52
0.5665050157205531
% es.Ez (V/m) @ t=0.52
-4.895174073291262
% es.tEx (V/m) @ t=0.52
2.143221793097304
% es.tEy (V/m) @ t=0.52
0
% es.tEz (V/m) @ t=0.52
-4.89517407329128
% V (V) @ t=0.52
0.026892042972803086
% es.normE (V/m) @ t=0.54
5.447448145853384
% es.EX (V/m) @ t=0.54
2.1710183004120562
% es.EY (V/m) @ t=0.54
0.5738484189803774
% es.EZ (V/m) @ t=0.54
-4.958660381066
% es.tEX (V/m) @ t=0.54
2.1710183004120562
% es.tEY (V/m) @ t=0.54
0
% es.tEZ (V/m) @ t=0.54
-4.958660381066011
% es.Ex (V/m) @ t=0.54
2.1710183004120562
% es.Ey (V/m) @ t=0.54
0.5738484189803774
% es.Ez (V/m) @ t=0.54
-4.958660381066
% es.tEx (V/m) @ t=0.54
2.1710183004120562
% es.tEy (V/m) @ t=0.54
0
% es.tEz (V/m) @ t=0.54
-4.958660381066011
% V (V) @ t=0.54
0.027240868048375454
% es.normE (V/m) @ t=0.56
5.517192483367886
% es.EX (V/m) @ t=0.56
2.1988148077268095
% es.EY (V/m) @ t=0.56
0.5811918222402443
% es.EZ (V/m) @ t=0.56
-5.022146688840717
% es.tEX (V/m) @ t=0.56
2.1988148077268104
% es.tEY (V/m) @ t=0.56
0
% es.tEZ (V/m) @ t=0.56
-5.022146688840735
% es.Ex (V/m) @ t=0.56
2.1988148077268095
% es.Ey (V/m) @ t=0.56
0.5811918222402443
% es.Ez (V/m) @ t=0.56
-5.022146688840717
% es.tEx (V/m) @ t=0.56
2.1988148077268104
% es.tEy (V/m) @ t=0.56
0
% es.tEz (V/m) @ t=0.56
-5.022146688840735
% V (V) @ t=0.56
0.02758969312394782
% es.normE (V/m) @ t=0.58
5.586936820886686
% es.EX (V/m) @ t=0.58
2.2266113150415023
% es.EY (V/m) @ t=0.58
0.5885352255001148
% es.EZ (V/m) @ t=0.58
-5.0856329966154235
% es.tEX (V/m) @ t=0.58
2.2266113150415023
% es.tEY (V/m) @ t=0.58
0
% es.tEZ (V/m) @ t=0.58
-5.0856329966154235
% es.Ex (V/m) @ t=0.58
2.2266113150415023
% es.Ey (V/m) @ t=0.58
0.5885352255001148
% es.Ez (V/m) @ t=0.58
-5.0856329966154235
% es.tEx (V/m) @ t=0.58
2.2266113150415023
% es.tEy (V/m) @ t=0.58
0
% es.tEz (V/m) @ t=0.58
-5.0856329966154235
% V (V) @ t=0.58
0.02793851819952019
% es.normE (V/m) @ t=0.6
5.656681158409695
% es.EX (V/m) @ t=0.6
2.254407822356227
% es.EY (V/m) @ t=0.6
0.59587862875998
% es.EZ (V/m) @ t=0.6
-5.149119304390158
% es.tEX (V/m) @ t=0.6
2.254407822356228
% es.tEY (V/m) @ t=0.6
0
% es.tEZ (V/m) @ t=0.6
-5.149119304390155
% es.Ex (V/m) @ t=0.6
2.254407822356227
% es.Ey (V/m) @ t=0.6
0.59587862875998
% es.Ez (V/m) @ t=0.6
-5.149119304390158
% es.tEx (V/m) @ t=0.6
2.254407822356228
% es.tEy (V/m) @ t=0.6
0
% es.tEz (V/m) @ t=0.6
-5.149119304390155
% V (V) @ t=0.6
0.028287343275092556
% es.normE (V/m) @ t=0.62
5.726425495936699
% es.EX (V/m) @ t=0.62
2.2822043296709227
% es.EY (V/m) @ t=0.62
0.6032220320198327
% es.EZ (V/m) @ t=0.62
-5.212605612164879
% es.tEX (V/m) @ t=0.62
2.2822043296709236
% es.tEY (V/m) @ t=0.62
0
% es.tEZ (V/m) @ t=0.62
-5.212605612164879
% es.Ex (V/m) @ t=0.62
2.2822043296709227
% es.Ey (V/m) @ t=0.62
0.6032220320198327
% es.Ez (V/m) @ t=0.62
-5.212605612164879
% es.tEx (V/m) @ t=0.62
2.2822043296709236
% es.tEy (V/m) @ t=0.62
0
% es.tEz (V/m) @ t=0.62
-5.212605612164879
% V (V) @ t=0.62
0.02863616835066492
% es.normE (V/m) @ t=0.64
5.796169833467564
% es.EX (V/m) @ t=0.64
2.3100008369856466
% es.EY (V/m) @ t=0.64
0.6105654352797139
% es.EZ (V/m) @ t=0.64
-5.276091919939571
% es.tEX (V/m) @ t=0.64
2.3100008369856475
% es.tEY (V/m) @ t=0.64
0
% es.tEZ (V/m) @ t=0.64
-5.2760919199395815
% es.Ex (V/m) @ t=0.64
2.3100008369856466
% es.Ey (V/m) @ t=0.64
0.6105654352797139
% es.Ez (V/m) @ t=0.64
-5.276091919939571
% es.tEx (V/m) @ t=0.64
2.3100008369856475
% es.tEy (V/m) @ t=0.64
0
% es.tEz (V/m) @ t=0.64
-5.2760919199395815
% V (V) @ t=0.64
0.02898499342623729
% es.normE (V/m) @ t=0.66
5.865914171002208
% es.EX (V/m) @ t=0.66
2.337797344300369
% es.EY (V/m) @ t=0.66
0.6179088385395684
% es.EZ (V/m) @ t=0.66
-5.339578227714316
% es.tEX (V/m) @ t=0.66
2.3377973443003697
% es.tEY (V/m) @ t=0.66
0
% es.tEZ (V/m) @ t=0.66
-5.339578227714334
% es.Ex (V/m) @ t=0.66
2.337797344300369
% es.Ey (V/m) @ t=0.66
0.6179088385395684
% es.Ez (V/m) @ t=0.66
-5.339578227714316
% es.tEx (V/m) @ t=0.66
2.3377973443003697
% es.tEy (V/m) @ t=0.66
0
% es.tEz (V/m) @ t=0.66
-5.339578227714334
% V (V) @ t=0.66
0.029333818501809654
% es.normE (V/m) @ t=0.68
5.935658508540415
% es.EX (V/m) @ t=0.68
2.3655938516150643
% es.EY (V/m) @ t=0.68
0.6252522417993944
% es.EZ (V/m) @ t=0.68
-5.403064535489026
% es.tEX (V/m) @ t=0.68
2.365593851615065
% es.tEY (V/m) @ t=0.68
0
% es.tEZ (V/m) @ t=0.68
-5.403064535489044
% es.Ex (V/m) @ t=0.68
2.3655938516150643
% es.Ey (V/m) @ t=0.68
0.6252522417993944
% es.Ez (V/m) @ t=0.68
-5.403064535489026
% es.tEx (V/m) @ t=0.68
2.365593851615065
% es.tEy (V/m) @ t=0.68
0
% es.tEz (V/m) @ t=0.68
-5.403064535489044
% V (V) @ t=0.68
0.029682643577382022
% es.normE (V/m) @ t=0.7
6.005895234694256
% es.EX (V/m) @ t=0.7
2.393586495131678
% es.EY (V/m) @ t=0.7
0.6326483305726622
% es.EZ (V/m) @ t=0.7
-5.466999030531358
% es.tEX (V/m) @ t=0.7
2.3935864951316788
% es.tEY (V/m) @ t=0.7
0
% es.tEZ (V/m) @ t=0.7
-5.466999030531369
% es.Ex (V/m) @ t=0.7
2.393586495131678
% es.Ey (V/m) @ t=0.7
0.6326483305726622
% es.Ez (V/m) @ t=0.7
-5.466999030531358
% es.tEx (V/m) @ t=0.7
2.3935864951316788
% es.tEy (V/m) @ t=0.7
0
% es.tEz (V/m) @ t=0.7
-5.466999030531369
% V (V) @ t=0.7
0.03003391572970067
% es.normE (V/m) @ t=0.72
6.077258022490204
% es.EX (V/m) @ t=0.72
2.42202768974784
% es.EY (V/m) @ t=0.72
0.6401649077856302
% es.EZ (V/m) @ t=0.72
-5.531958501532753
% es.tEX (V/m) @ t=0.72
2.422027689747841
% es.tEY (V/m) @ t=0.72
0
% es.tEZ (V/m) @ t=0.72
-5.5319585015327775
% es.Ex (V/m) @ t=0.72
2.42202768974784
% es.Ey (V/m) @ t=0.72
0.6401649077856302
% es.Ez (V/m) @ t=0.72
-5.531958501532753
% es.tEx (V/m) @ t=0.72
2.422027689747841
% es.tEy (V/m) @ t=0.72
0
% es.tEz (V/m) @ t=0.72
-5.5319585015327775
% V (V) @ t=0.72
0.03039078419190202
% es.normE (V/m) @ t=0.74
6.148933227045912
% es.EX (V/m) @ t=0.74
2.450593331264481
% es.EY (V/m) @ t=0.74
0.6477149135487643
% es.EZ (V/m) @ t=0.74
-5.597202343883236
% es.tEX (V/m) @ t=0.74
2.450593331264482
% es.tEY (V/m) @ t=0.74
0
% es.tEZ (V/m) @ t=0.74
-5.5972023438832466
% es.Ex (V/m) @ t=0.74
2.450593331264481
% es.Ey (V/m) @ t=0.74
0.6477149135487643
% es.Ez (V/m) @ t=0.74
-5.597202343883236
% es.tEx (V/m) @ t=0.74
2.450593331264482
% es.tEy (V/m) @ t=0.74
0
% es.tEz (V/m) @ t=0.74
-5.5972023438832466
% V (V) @ t=0.74
0.030749205305340668
% es.normE (V/m) @ t=0.76
6.220920848361299
% es.EX (V/m) @ t=0.76
2.4792834196817433
% es.EY (V/m) @ t=0.76
0.6552983478619101
% es.EZ (V/m) @ t=0.76
-5.6627305575827585
% es.tEX (V/m) @ t=0.76
2.479283419681744
% es.tEY (V/m) @ t=0.76
0
% es.tEZ (V/m) @ t=0.76
-5.662730557582783
% es.Ex (V/m) @ t=0.76
2.4792834196817433
% es.Ey (V/m) @ t=0.76
0.6552983478619101
% es.Ez (V/m) @ t=0.76
-5.6627305575827585
% es.tEx (V/m) @ t=0.76
2.479283419681744
% es.tEy (V/m) @ t=0.76
0
% es.tEz (V/m) @ t=0.76
-5.662730557582783
% V (V) @ t=0.76
0.031109179070016618
% es.normE (V/m) @ t=0.78
6.293220886436569
% es.EX (V/m) @ t=0.78
2.5080979549995943
% es.EY (V/m) @ t=0.78
0.6629152107251013
% es.EZ (V/m) @ t=0.78
-5.728543142631356
% es.tEX (V/m) @ t=0.78
2.508097954999595
% es.tEY (V/m) @ t=0.78
0
% es.tEZ (V/m) @ t=0.78
-5.728543142631366
% es.Ex (V/m) @ t=0.78
2.5080979549995943
% es.Ey (V/m) @ t=0.78
0.6629152107251013
% es.Ez (V/m) @ t=0.78
-5.728543142631356
% es.tEx (V/m) @ t=0.78
2.508097954999595
% es.tEy (V/m) @ t=0.78
0
% es.tEz (V/m) @ t=0.78
-5.728543142631366
% V (V) @ t=0.78
0.031470705485929874
% es.normE (V/m) @ t=0.8
6.3658333412721
% es.EX (V/m) @ t=0.8
2.5370369372180255
% es.EY (V/m) @ t=0.8
0.6705655021383592
% es.EZ (V/m) @ t=0.8
-5.794640099029014
% es.tEX (V/m) @ t=0.8
2.537036937218012
% es.tEY (V/m) @ t=0.8
0
% es.tEZ (V/m) @ t=0.8
-5.794640099029024
% es.Ex (V/m) @ t=0.8
2.5370369372180255
% es.Ey (V/m) @ t=0.8
0.6705655021383592
% es.Ez (V/m) @ t=0.8
-5.794640099029014
% es.tEx (V/m) @ t=0.8
2.537036937218012
% es.tEy (V/m) @ t=0.8
0
% es.tEz (V/m) @ t=0.8
-5.794640099029024
% V (V) @ t=0.8
0.03183378455308043
% es.normE (V/m) @ t=0.82
6.438758212868487
% es.EX (V/m) @ t=0.82
2.5661003663370616
% es.EY (V/m) @ t=0.82
0.6782492221017513
% es.EZ (V/m) @ t=0.82
-5.861021426775711
% es.tEX (V/m) @ t=0.82
2.5661003663370483
% es.tEY (V/m) @ t=0.82
0
% es.tEZ (V/m) @ t=0.82
-5.8610214267757215
% es.Ex (V/m) @ t=0.82
2.5661003663370616
% es.Ey (V/m) @ t=0.82
0.6782492221017513
% es.Ez (V/m) @ t=0.82
-5.861021426775711
% es.tEx (V/m) @ t=0.82
2.5661003663370483
% es.tEy (V/m) @ t=0.82
0
% es.tEz (V/m) @ t=0.82
-5.8610214267757215
% V (V) @ t=0.82
0.032198416271468286
% es.normE (V/m) @ t=0.84
6.511995501226501
% es.EX (V/m) @ t=0.84
2.5952882423566432
% es.EY (V/m) @ t=0.84
0.6859663706151675
% es.EZ (V/m) @ t=0.84
-5.927687125871447
% es.tEX (V/m) @ t=0.84
2.595288242356645
% es.tEY (V/m) @ t=0.84
0
% es.tEZ (V/m) @ t=0.84
-5.927687125871458
% es.Ex (V/m) @ t=0.84
2.5952882423566432
% es.Ey (V/m) @ t=0.84
0.6859663706151675
% es.Ez (V/m) @ t=0.84
-5.927687125871447
% es.tEx (V/m) @ t=0.84
2.595288242356645
% es.tEy (V/m) @ t=0.84
0
% es.tEz (V/m) @ t=0.84
-5.927687125871458
% V (V) @ t=0.84
0.03256460064109343
% es.normE (V/m) @ t=0.86
6.58554520634716
% es.EX (V/m) @ t=0.86
2.6246005652768014
% es.EY (V/m) @ t=0.86
0.6937169476786647
% es.EZ (V/m) @ t=0.86
-5.994637196316251
% es.tEX (V/m) @ t=0.86
2.6246005652768023
% es.tEY (V/m) @ t=0.86
0
% es.tEZ (V/m) @ t=0.86
-5.994637196316262
% es.Ex (V/m) @ t=0.86
2.6246005652768014
% es.Ey (V/m) @ t=0.86
0.6937169476786647
% es.Ez (V/m) @ t=0.86
-5.994637196316251
% es.tEx (V/m) @ t=0.86
2.6246005652768023
% es.tEy (V/m) @ t=0.86
0
% es.tEz (V/m) @ t=0.86
-5.994637196316262
% V (V) @ t=0.86
0.0329323376619559
% es.normE (V/m) @ t=0.88
6.659407328231655
% es.EX (V/m) @ t=0.88
2.654037335097553
% es.EY (V/m) @ t=0.88
0.7015009532921983
% es.EZ (V/m) @ t=0.88
-6.061871638110151
% es.tEX (V/m) @ t=0.88
2.654037335097554
% es.tEY (V/m) @ t=0.88
0
% es.tEZ (V/m) @ t=0.88
-6.061871638110155
% es.Ex (V/m) @ t=0.88
2.654037335097553
% es.Ey (V/m) @ t=0.88
0.7015009532921983
% es.Ez (V/m) @ t=0.88
-6.061871638110151
% es.tEx (V/m) @ t=0.88
2.654037335097554
% es.tEy (V/m) @ t=0.88
0
% es.tEz (V/m) @ t=0.88
-6.061871638110155
% V (V) @ t=0.88
0.03330162733405565
% es.normE (V/m) @ t=0.9
6.7335818668812575
% es.EX (V/m) @ t=0.9
2.6835985518189256
% es.EY (V/m) @ t=0.9
0.7093183874558431
% es.EZ (V/m) @ t=0.9
-6.1293904512530695
% es.tEX (V/m) @ t=0.9
2.6835985518189265
% es.tEY (V/m) @ t=0.9
0
% es.tEZ (V/m) @ t=0.9
-6.129390451253094
% es.Ex (V/m) @ t=0.9
2.6835985518189256
% es.Ey (V/m) @ t=0.9
0.7093183874558431
% es.Ez (V/m) @ t=0.9
-6.1293904512530695
% es.tEx (V/m) @ t=0.9
2.6835985518189265
% es.tEy (V/m) @ t=0.9
0
% es.tEz (V/m) @ t=0.9
-6.129390451253094
% V (V) @ t=0.9
0.03367246965739272
% es.normE (V/m) @ t=0.92
6.808068822297445
% es.EX (V/m) @ t=0.92
2.7132842154407895
% es.EY (V/m) @ t=0.92
0.7171692501694995
% es.EZ (V/m) @ t=0.92
-6.1971936357450765
% es.tEX (V/m) @ t=0.92
2.713284215440776
% es.tEY (V/m) @ t=0.92
0
% es.tEZ (V/m) @ t=0.92
-6.197193635745094
% es.Ex (V/m) @ t=0.92
2.7132842154407895
% es.Ey (V/m) @ t=0.92
0.7171692501694995
% es.Ez (V/m) @ t=0.92
-6.1971936357450765
% es.tEx (V/m) @ t=0.92
2.713284215440776
% es.tEy (V/m) @ t=0.92
0
% es.tEz (V/m) @ t=0.92
-6.197193635745094
% V (V) @ t=0.92
0.03404486463196708
% es.normE (V/m) @ t=0.94
6.882868194481908
% es.EX (V/m) @ t=0.94
2.743094325963356
% es.EY (V/m) @ t=0.94
0.7250535414332493
% es.EZ (V/m) @ t=0.94
-6.265281191586144
% es.tEX (V/m) @ t=0.94
2.743094325963357
% es.tEY (V/m) @ t=0.94
0
% es.tEZ (V/m) @ t=0.94
-6.265281191586155
% es.Ex (V/m) @ t=0.94
2.743094325963356
% es.Ey (V/m) @ t=0.94
0.7250535414332493
% es.Ez (V/m) @ t=0.94
-6.265281191586144
% es.tEx (V/m) @ t=0.94
2.743094325963357
% es.tEy (V/m) @ t=0.94
0
% es.tEz (V/m) @ t=0.94
-6.265281191586155
% V (V) @ t=0.94
0.03441881225777875
% es.normE (V/m) @ t=0.96
6.9579799834362905
% es.EX (V/m) @ t=0.96
2.7730288833864014
% es.EY (V/m) @ t=0.96
0.7329712612471528
% es.EZ (V/m) @ t=0.96
-6.33365311877623
% es.tEX (V/m) @ t=0.96
2.773028883386388
% es.tEY (V/m) @ t=0.96
0
% es.tEZ (V/m) @ t=0.96
-6.333653118776226
% es.Ex (V/m) @ t=0.96
2.7730288833864014
% es.Ey (V/m) @ t=0.96
0.7329712612471528
% es.Ez (V/m) @ t=0.96
-6.33365311877623
% es.tEx (V/m) @ t=0.96
2.773028883386388
% es.tEy (V/m) @ t=0.96
0
% es.tEz (V/m) @ t=0.96
-6.333653118776226
% V (V) @ t=0.96
0.034794312534827704
% es.normE (V/m) @ t=0.98
7.0334041891626065
% es.EX (V/m) @ t=0.98
2.8030878877101477
% es.EY (V/m) @ t=0.98
0.7409224096110041
% es.EZ (V/m) @ t=0.98
-6.402309417315397
% es.tEX (V/m) @ t=0.98
2.8030878877101486
% es.tEY (V/m) @ t=0.98
0
% es.tEZ (V/m) @ t=0.98
-6.402309417315422
% es.Ex (V/m) @ t=0.98
2.8030878877101477
% es.Ey (V/m) @ t=0.98
0.7409224096110041
% es.Ez (V/m) @ t=0.98
-6.402309417315397
% es.tEx (V/m) @ t=0.98
2.8030878877101486
% es.tEy (V/m) @ t=0.98
0
% es.tEz (V/m) @ t=0.98
-6.402309417315422
% V (V) @ t=0.98
0.03517136546311396
% es.normE (V/m) @ t=1
7.109140811662803
% es.EX (V/m) @ t=1
2.8332713389343915
% es.EY (V/m) @ t=1
0.7489069865249061
% es.EZ (V/m) @ t=1
-6.471250087203654
% es.tEX (V/m) @ t=1
2.8332713389343933
% es.tEY (V/m) @ t=1
0
% es.tEZ (V/m) @ t=1
-6.471250087203657
% es.Ex (V/m) @ t=1
2.8332713389343915
% es.Ey (V/m) @ t=1
0.7489069865249061
% es.Ez (V/m) @ t=1
-6.471250087203654
% es.tEx (V/m) @ t=1
2.8332713389343933
% es.tEy (V/m) @ t=1
0
% es.tEz (V/m) @ t=1
-6.471250087203657
% V (V) @ t=1
0.03554997104263753
% es.normE (V/m) @ t=1.02
7.185189850938968
% es.EX (V/m) @ t=1.02
2.8635792370591933
% es.EY (V/m) @ t=1.02
0.7569249919889725
% es.EZ (V/m) @ t=1.02
-6.540475128440914
% es.tEX (V/m) @ t=1.02
2.863579237059195
% es.tEY (V/m) @ t=1.02
0
% es.tEZ (V/m) @ t=1.02
-6.540475128440917
% es.Ex (V/m) @ t=1.02
2.8635792370591933
% es.Ey (V/m) @ t=1.02
0.7569249919889725
% es.Ez (V/m) @ t=1.02
-6.540475128440914
% es.tEx (V/m) @ t=1.02
2.863579237059195
% es.tEy (V/m) @ t=1.02
0
% es.tEz (V/m) @ t=1.02
-6.540475128440917
% V (V) @ t=1.02
0.0359301292733984
% es.normE (V/m) @ t=1.04
7.261532715520381
% es.EX (V/m) @ t=1.04
2.89400418700627
% es.EY (V/m) @ t=1.04
0.7649744429153493
% es.EZ (V/m) @ t=1.04
-6.609967613301311
% es.tEX (V/m) @ t=1.04
2.8940041870062707
% es.tEY (V/m) @ t=1.04
0
% es.tEZ (V/m) @ t=1.04
-6.609967613301336
% es.Ex (V/m) @ t=1.04
2.89400418700627
% es.Ey (V/m) @ t=1.04
0.7649744429153493
% es.Ez (V/m) @ t=1.04
-6.609967613301311
% es.tEx (V/m) @ t=1.04
2.8940041870062707
% es.tEy (V/m) @ t=1.04
0
% es.tEz (V/m) @ t=1.04
-6.609967613301336
% V (V) @ t=1.04