% Model:              1 neuron.mph
% Version:            COMSOL 6.0.0.405
% Date:               Mar 16 2023, 20:21
% Dimension:          0
% Nodes:              14017
% Expressions:        14017
% Description:        Electric field norm, Electric field, X component, Electric field, Y component, Electric field, Z component, Tangential electric field, X component, Tangential electric field, Y component, Tangential electric field, Z component, Electric field, x component, Electric field, y component, Electric field, z component, Tangential electric field, x component, Tangential electric field, y component, Tangential electric field, z component, Electric potential
% Length unit:        mm
% x
1.66
% y
12.200000000000001
% z
1.66
% es.normE (V/m) @ t=0
38.50755759544124
% es.EX (V/m) @ t=0
-18.185487219553778
% es.EY (V/m) @ t=0
14.590388156366458
% es.EZ (V/m) @ t=0
17.49029632122479
% es.tEX (V/m) @ t=0
-18.185487219553792
% es.tEY (V/m) @ t=0
0
% es.tEZ (V/m) @ t=0
17.490296321224832
% es.Ex (V/m) @ t=0
-18.185487219553778
% es.Ey (V/m) @ t=0
14.590388156366458
% es.Ez (V/m) @ t=0
17.49029632122479
% es.tEx (V/m) @ t=0
-18.185487219553792
% es.tEy (V/m) @ t=0
0
% es.tEz (V/m) @ t=0
17.490296321224832
% V (V) @ t=0
0.012085430448403147
% es.normE (V/m) @ t=0.02
33.369226359007705
% es.EX (V/m) @ t=0.02
-15.75887135304906
% es.EY (V/m) @ t=0.02
12.643491239575752
% es.EZ (V/m) @ t=0.02
15.156444211559347
% es.tEX (V/m) @ t=0.02
-15.758871353049074
% es.tEY (V/m) @ t=0.02
0
% es.tEZ (V/m) @ t=0.02
15.156444211559318
% es.Ex (V/m) @ t=0.02
-15.75887135304906
% es.Ey (V/m) @ t=0.02
12.643491239575752
% es.Ez (V/m) @ t=0.02
15.156444211559347
% es.tEx (V/m) @ t=0.02
-15.758871353049074
% es.tEy (V/m) @ t=0.02
0
% es.tEz (V/m) @ t=0.02
15.156444211559318
% V (V) @ t=0.02
0.010472787362365763
% es.normE (V/m) @ t=0.04
33.788100237039544
% es.EX (V/m) @ t=0.04
-15.956688511196461
% es.EY (V/m) @ t=0.04
12.802201420380385
% es.EZ (V/m) @ t=0.04
15.346697511941905
% es.tEX (V/m) @ t=0.04
-15.956688511196454
% es.tEY (V/m) @ t=0.04
0
% es.tEZ (V/m) @ t=0.04
15.346697511941898
% es.Ex (V/m) @ t=0.04
-15.956688511196461
% es.Ey (V/m) @ t=0.04
12.802201420380385
% es.Ez (V/m) @ t=0.04
15.346697511941905
% es.tEx (V/m) @ t=0.04
-15.956688511196454
% es.tEy (V/m) @ t=0.04
0
% es.tEz (V/m) @ t=0.04
15.346697511941898
% V (V) @ t=0.04
0.010604248926316574
% es.normE (V/m) @ t=0.06
34.21077805557447
% es.EX (V/m) @ t=0.06
-16.156304284620916
% es.EY (V/m) @ t=0.06
12.962353554309061
% es.EZ (V/m) @ t=0.06
15.538675831099688
% es.tEX (V/m) @ t=0.06
-16.15630428462088
% es.tEY (V/m) @ t=0.06
0
% es.tEZ (V/m) @ t=0.06
15.538675831099653
% es.Ex (V/m) @ t=0.06
-16.156304284620916
% es.Ey (V/m) @ t=0.06
12.962353554309061
% es.Ez (V/m) @ t=0.06
15.538675831099688
% es.tEx (V/m) @ t=0.06
-16.15630428462088
% es.tEy (V/m) @ t=0.06
0
% es.tEz (V/m) @ t=0.06
15.538675831099653
% V (V) @ t=0.06
0.010736903807894192
% es.normE (V/m) @ t=0.08
34.64682038391887
% es.EX (V/m) @ t=0.08
-16.36222902496722
% es.EY (V/m) @ t=0.08
13.127568703294784
% es.EZ (V/m) @ t=0.08
15.736727567651272
% es.tEX (V/m) @ t=0.08
-16.36222902496722
% es.tEY (V/m) @ t=0.08
0
% es.tEZ (V/m) @ t=0.08
15.736727567651315
% es.Ex (V/m) @ t=0.08
-16.36222902496722
% es.Ey (V/m) @ t=0.08
13.127568703294784
% es.Ez (V/m) @ t=0.08
15.736727567651272
% es.tEx (V/m) @ t=0.08
-16.36222902496722
% es.tEy (V/m) @ t=0.08
0
% es.tEz (V/m) @ t=0.08
15.736727567651315
% V (V) @ t=0.08
0.010873753698667617
% es.normE (V/m) @ t=0.1
35.08403689018841
% es.EX (V/m) @ t=0.1
-16.56870805797344
% es.EY (V/m) @ t=0.1
13.293228678211214
% es.EZ (V/m) @ t=0.1
15.935312901973091
% es.tEX (V/m) @ t=0.1
-16.568708057973446
% es.tEY (V/m) @ t=0.1
0
% es.tEZ (V/m) @ t=0.1
15.935312901973134
% es.Ex (V/m) @ t=0.1
-16.56870805797344
% es.Ey (V/m) @ t=0.1
13.293228678211214
% es.Ez (V/m) @ t=0.1
15.935312901973091
% es.tEx (V/m) @ t=0.1
-16.568708057973446
% es.tEy (V/m) @ t=0.1
0
% es.tEz (V/m) @ t=0.1
15.935312901973134
% V (V) @ t=0.1
0.011010972154189327
% es.normE (V/m) @ t=0.12
35.521253396457965
% es.EX (V/m) @ t=0.12
-16.775187090979642
% es.EY (V/m) @ t=0.12
13.45888865312763
% es.EZ (V/m) @ t=0.12
16.133898236294904
% es.tEX (V/m) @ t=0.12
-16.77518709097965
% es.tEY (V/m) @ t=0.12
0
% es.tEZ (V/m) @ t=0.12
16.133898236294954
% es.Ex (V/m) @ t=0.12
-16.775187090979642
% es.Ey (V/m) @ t=0.12
13.45888865312763
% es.Ez (V/m) @ t=0.12
16.133898236294904
% es.tEx (V/m) @ t=0.12
-16.77518709097965
% es.tEy (V/m) @ t=0.12
0
% es.tEz (V/m) @ t=0.12
16.133898236294954
% V (V) @ t=0.12
0.011148190609711034
% es.normE (V/m) @ t=0.14
35.984779958439134
% es.EX (V/m) @ t=0.14
-16.994093995195797
% es.EY (V/m) @ t=0.14
13.634518241110626
% es.EZ (V/m) @ t=0.14
16.344430221688725
% es.tEX (V/m) @ t=0.14
-16.99409399519582
% es.tEY (V/m) @ t=0.14
0
% es.tEZ (V/m) @ t=0.14
16.344430221688697
% es.Ex (V/m) @ t=0.14
-16.994093995195797
% es.Ey (V/m) @ t=0.14
13.634518241110626
% es.Ez (V/m) @ t=0.14
16.344430221688725
% es.tEx (V/m) @ t=0.14
-16.99409399519582
% es.tEy (V/m) @ t=0.14
0
% es.tEz (V/m) @ t=0.14
16.344430221688697
% V (V) @ t=0.14
0.011293665693637307
% es.normE (V/m) @ t=0.16
36.45304170513085
% es.EX (V/m) @ t=0.16
-17.215237620853145
% es.EY (V/m) @ t=0.16
13.81194212249499
% es.EZ (V/m) @ t=0.16
16.557112320336223
% es.tEX (V/m) @ t=0.16
-17.215237620853173
% es.tEY (V/m) @ t=0.16
0
% es.tEZ (V/m) @ t=0.16
16.557112320336216
% es.Ex (V/m) @ t=0.16
-17.215237620853145
% es.Ey (V/m) @ t=0.16
13.81194212249499
% es.Ez (V/m) @ t=0.16
16.557112320336223
% es.tEx (V/m) @ t=0.16
-17.215237620853173
% es.tEy (V/m) @ t=0.16
0
% es.tEz (V/m) @ t=0.16
16.557112320336216
% V (V) @ t=0.16
0.011440626774438866
% es.normE (V/m) @ t=0.18
36.92130345182342
% es.EX (V/m) @ t=0.18
-17.436381246510564
% es.EY (V/m) @ t=0.18
13.989366003879454
% es.EZ (V/m) @ t=0.18
16.769794418983636
% es.tEX (V/m) @ t=0.18
-17.436381246510557
% es.tEY (V/m) @ t=0.18
0
% es.tEZ (V/m) @ t=0.18
16.769794418983565
% es.Ex (V/m) @ t=0.18
-17.436381246510564
% es.Ey (V/m) @ t=0.18
13.989366003879454
% es.Ez (V/m) @ t=0.18
16.769794418983636
% es.tEx (V/m) @ t=0.18
-17.436381246510557
% es.tEy (V/m) @ t=0.18
0
% es.tEz (V/m) @ t=0.18
16.769794418983565
% V (V) @ t=0.18
0.011587587855240427
% es.normE (V/m) @ t=0.2
37.389565198516834
% es.EX (V/m) @ t=0.2
-17.657524872167897
% es.EY (V/m) @ t=0.2
14.166789885263874
% es.EZ (V/m) @ t=0.2
16.982476517631078
% es.tEX (V/m) @ t=0.2
-17.657524872167848
% es.tEY (V/m) @ t=0.2
0
% es.tEZ (V/m) @ t=0.2
16.982476517631085
% es.Ex (V/m) @ t=0.2
-17.657524872167897
% es.Ey (V/m) @ t=0.2
14.166789885263874
% es.Ez (V/m) @ t=0.2
16.982476517631078
% es.tEx (V/m) @ t=0.2
-17.657524872167848
% es.tEy (V/m) @ t=0.2
0
% es.tEz (V/m) @ t=0.2
16.982476517631085
% V (V) @ t=0.2
0.011734548936041986
% es.normE (V/m) @ t=0.22
37.85782694521107
% es.EX (V/m) @ t=0.22
-17.878668497825288
% es.EY (V/m) @ t=0.22
14.34421376664833
% es.EZ (V/m) @ t=0.22
17.19515861627857
% es.tEX (V/m) @ t=0.22
-17.878668497825245
% es.tEY (V/m) @ t=0.22
0
% es.tEZ (V/m) @ t=0.22
17.195158616278604
% es.Ex (V/m) @ t=0.22
-17.878668497825288
% es.Ey (V/m) @ t=0.22
14.34421376664833
% es.Ez (V/m) @ t=0.22
17.19515861627857
% es.tEx (V/m) @ t=0.22
-17.878668497825245
% es.tEy (V/m) @ t=0.22
0
% es.tEz (V/m) @ t=0.22
17.195158616278604
% V (V) @ t=0.22
0.011881510016843547
% es.normE (V/m) @ t=0.24
38.32608869190609
% es.EX (V/m) @ t=0.24
-18.09981212348262
% es.EY (V/m) @ t=0.24
14.521637648032836
% es.EZ (V/m) @ t=0.24
17.407840714926017
% es.tEX (V/m) @ t=0.24
-18.099812123482593
% es.tEY (V/m) @ t=0.24
0
% es.tEZ (V/m) @ t=0.24
17.407840714925953
% es.Ex (V/m) @ t=0.24
-18.09981212348262
% es.Ey (V/m) @ t=0.24
14.521637648032836
% es.Ez (V/m) @ t=0.24
17.407840714926017
% es.tEx (V/m) @ t=0.24
-18.099812123482593
% es.tEy (V/m) @ t=0.24
0
% es.tEz (V/m) @ t=0.24
17.407840714925953
% V (V) @ t=0.24
0.012028471097645108
% es.normE (V/m) @ t=0.26
38.81835285837161
% es.EX (V/m) @ t=0.26
-18.332216313793793
% es.EY (V/m) @ t=0.26
14.708133672803271
% es.EZ (V/m) @ t=0.26
17.631519621157615
% es.tEX (V/m) @ t=0.26
-18.332216313793765
% es.tEY (V/m) @ t=0.26
0
% es.tEZ (V/m) @ t=0.26
17.631519621157622
% es.Ex (V/m) @ t=0.26
-18.332216313793793
% es.Ey (V/m) @ t=0.26
14.708133672803271
% es.Ez (V/m) @ t=0.26
17.631519621157615
% es.tEx (V/m) @ t=0.26
-18.332216313793765
% es.tEy (V/m) @ t=0.26
0
% es.tEz (V/m) @ t=0.26
17.631519621157622
% V (V) @ t=0.26
0.012182983448795958
% es.normE (V/m) @ t=0.28
39.32071143663225
% es.EX (V/m) @ t=0.28
-18.56935622535562
% es.EY (V/m) @ t=0.28
14.898445060616595
% es.EZ (V/m) @ t=0.28
17.859823323477755
% es.tEX (V/m) @ t=0.28
-18.569356225355634
% es.tEY (V/m) @ t=0.28
0
% es.tEZ (V/m) @ t=0.28
17.859823323477713
% es.Ex (V/m) @ t=0.28
-18.56935622535562
% es.Ey (V/m) @ t=0.28
14.898445060616595
% es.Ez (V/m) @ t=0.28
17.859823323477755
% es.tEx (V/m) @ t=0.28
-18.569356225355634
% es.tEy (V/m) @ t=0.28
0
% es.tEz (V/m) @ t=0.28
17.859823323477713
% V (V) @ t=0.28
0.012340671547572483
% es.normE (V/m) @ t=0.3
39.82307001562655
% es.EX (V/m) @ t=0.3
-18.806496136917517
% es.EY (V/m) @ t=0.3
15.088756448429933
% es.EZ (V/m) @ t=0.3
18.08812702579793
% es.tEX (V/m) @ t=0.3
-18.806496136917524
% es.tEY (V/m) @ t=0.3
0
% es.tEZ (V/m) @ t=0.3
18.088127025797917
% es.Ex (V/m) @ t=0.3
-18.806496136917517
% es.Ey (V/m) @ t=0.3
15.088756448429933
% es.Ez (V/m) @ t=0.3
18.08812702579793
% es.tEx (V/m) @ t=0.3
-18.806496136917524
% es.tEy (V/m) @ t=0.3
0
% es.tEz (V/m) @ t=0.3
18.088127025797917
% V (V) @ t=0.3
0.012498359646349008
% es.normE (V/m) @ t=0.32
40.32542859532711
% es.EX (V/m) @ t=0.32
-19.043636048479385
% es.EY (V/m) @ t=0.32
15.279067836243293
% es.EZ (V/m) @ t=0.32
18.316430728118085
% es.tEX (V/m) @ t=0.32
-19.043636048479456
% es.tEY (V/m) @ t=0.32
0
% es.tEZ (V/m) @ t=0.32
18.316430728118064
% es.Ex (V/m) @ t=0.32
-19.043636048479385
% es.Ey (V/m) @ t=0.32
15.279067836243293
% es.Ez (V/m) @ t=0.32
18.316430728118085
% es.tEx (V/m) @ t=0.32
-19.043636048479456
% es.tEy (V/m) @ t=0.32
0
% es.tEz (V/m) @ t=0.32
18.316430728118064
% V (V) @ t=0.32
0.01265604774512553
% es.normE (V/m) @ t=0.34
40.82778717570785
% es.EX (V/m) @ t=0.34
-19.280775960041296
% es.EY (V/m) @ t=0.34
15.469379224056667
% es.EZ (V/m) @ t=0.34
18.544734430438268
% es.tEX (V/m) @ t=0.34
-19.280775960041282
% es.tEY (V/m) @ t=0.34
0
% es.tEZ (V/m) @ t=0.34
18.544734430438268
% es.Ex (V/m) @ t=0.34
-19.280775960041296
% es.Ey (V/m) @ t=0.34
15.469379224056667
% es.Ez (V/m) @ t=0.34
18.544734430438268
% es.tEx (V/m) @ t=0.34
-19.280775960041282
% es.tEy (V/m) @ t=0.34
0
% es.tEz (V/m) @ t=0.34
18.544734430438268
% V (V) @ t=0.34
0.012813735843902056
% es.normE (V/m) @ t=0.36
41.33014575674382
% es.EX (V/m) @ t=0.36
-19.517915871603122
% es.EY (V/m) @ t=0.36
15.659690611869948
% es.EZ (V/m) @ t=0.36
18.773038132758337
% es.tEX (V/m) @ t=0.36
-19.517915871603115
% es.tEY (V/m) @ t=0.36
0
% es.tEZ (V/m) @ t=0.36
18.77303813275836
% es.Ex (V/m) @ t=0.36
-19.517915871603122
% es.Ey (V/m) @ t=0.36
15.659690611869948
% es.Ez (V/m) @ t=0.36
18.773038132758337
% es.tEx (V/m) @ t=0.36
-19.517915871603115
% es.tEy (V/m) @ t=0.36
0
% es.tEz (V/m) @ t=0.36
18.77303813275836
% V (V) @ t=0.36
0.01297142394267858
% es.normE (V/m) @ t=0.38
41.85139049434647
% es.EX (V/m) @ t=0.38
-19.76408855682142
% es.EY (V/m) @ t=0.38
15.857191794428118
% es.EZ (V/m) @ t=0.38
19.00977589604834
% es.tEX (V/m) @ t=0.38
-19.76408855682142
% es.tEY (V/m) @ t=0.38
0
% es.tEZ (V/m) @ t=0.38
19.009775896048325
% es.Ex (V/m) @ t=0.38
-19.76408855682142
% es.Ey (V/m) @ t=0.38
15.857191794428118
% es.Ez (V/m) @ t=0.38
19.00977589604834
% es.tEx (V/m) @ t=0.38
-19.76408855682142
% es.tEy (V/m) @ t=0.38
0
% es.tEz (V/m) @ t=0.38
19.009775896048325
% V (V) @ t=0.38
0.013135011693722455
% es.normE (V/m) @ t=0.4
42.38744891775243
% es.EX (V/m) @ t=0.4
-20.017346255245272
% es.EY (V/m) @ t=0.4
16.060332417611065
% es.EZ (V/m) @ t=0.4
19.25312906182944
% es.tEX (V/m) @ t=0.4
-20.017346255245258
% es.tEY (V/m) @ t=0.4
0
% es.tEZ (V/m) @ t=0.4
19.25312906182944
% es.Ex (V/m) @ t=0.4
-20.017346255245272
% es.Ey (V/m) @ t=0.4
16.060332417611065
% es.Ez (V/m) @ t=0.4
19.25312906182944
% es.tEx (V/m) @ t=0.4
-20.017346255245258
% es.tEy (V/m) @ t=0.4
0
% es.tEz (V/m) @ t=0.4
19.25312906182944
% V (V) @ t=0.4
0.013303226939687869
% es.normE (V/m) @ t=0.42
42.92350734190617
% es.EX (V/m) @ t=0.42
-20.270603953669124
% es.EY (V/m) @ t=0.42
16.26347304079396
% es.EZ (V/m) @ t=0.42
19.496482227610656
% es.tEX (V/m) @ t=0.42
-20.270603953669102
% es.tEY (V/m) @ t=0.42
0
% es.tEZ (V/m) @ t=0.42
19.49648222761067
% es.Ex (V/m) @ t=0.42
-20.270603953669124
% es.Ey (V/m) @ t=0.42
16.26347304079396
% es.Ez (V/m) @ t=0.42
19.496482227610656
% es.tEx (V/m) @ t=0.42
-20.270603953669102
% es.tEy (V/m) @ t=0.42
0
% es.tEz (V/m) @ t=0.42
19.49648222761067
% V (V) @ t=0.42
0.013471442185653278
% es.normE (V/m) @ t=0.44
43.4595657667799
% es.EX (V/m) @ t=0.44
-20.52386165209292
% es.EY (V/m) @ t=0.44
16.466613663976858
% es.EZ (V/m) @ t=0.44
19.73983539339175
% es.tEX (V/m) @ t=0.44
-20.52386165209292
% es.tEY (V/m) @ t=0.44
0
% es.tEZ (V/m) @ t=0.44
19.73983539339173
% es.Ex (V/m) @ t=0.44
-20.52386165209292
% es.Ey (V/m) @ t=0.44
16.466613663976858
% es.Ez (V/m) @ t=0.44
19.73983539339175
% es.tEx (V/m) @ t=0.44
-20.52386165209292
% es.tEy (V/m) @ t=0.44
0
% es.tEz (V/m) @ t=0.44
19.73983539339173
% V (V) @ t=0.44
0.013639657431618692
% es.normE (V/m) @ t=0.46
43.995624192347414
% es.EX (V/m) @ t=0.46
-20.777119350516685
% es.EY (V/m) @ t=0.46
16.669754287159755
% es.EZ (V/m) @ t=0.46
19.98318855917286
% es.tEX (V/m) @ t=0.46
-20.77711935051674
% es.tEY (V/m) @ t=0.46
0
% es.tEZ (V/m) @ t=0.46
19.983188559172845
% es.Ex (V/m) @ t=0.46
-20.777119350516685
% es.Ey (V/m) @ t=0.46
16.669754287159755
% es.Ez (V/m) @ t=0.46
19.98318855917286
% es.tEx (V/m) @ t=0.46
-20.77711935051674
% es.tEy (V/m) @ t=0.46
0
% es.tEz (V/m) @ t=0.46
19.983188559172845
% V (V) @ t=0.46
0.013807872677584104
% es.normE (V/m) @ t=0.48
44.53168261858367
% es.EX (V/m) @ t=0.48
-21.030377048940537
% es.EY (V/m) @ t=0.48
16.872894910342687
% es.EZ (V/m) @ t=0.48
20.226541724953925
% es.tEX (V/m) @ t=0.48
-21.03037704894053
% es.tEY (V/m) @ t=0.48
0
% es.tEZ (V/m) @ t=0.48
20.226541724953904
% es.Ex (V/m) @ t=0.48
-21.030377048940537
% es.Ey (V/m) @ t=0.48
16.872894910342687
% es.Ez (V/m) @ t=0.48
20.226541724953925
% es.tEx (V/m) @ t=0.48
-21.03037704894053
% es.tEy (V/m) @ t=0.48
0
% es.tEz (V/m) @ t=0.48
20.226541724953904
% V (V) @ t=0.48
0.013976087923549516
% es.normE (V/m) @ t=0.5
45.07451129930378
% es.EX (V/m) @ t=0.5
-21.286815110274446
% es.EY (V/m) @ t=0.5
17.078595708683878
% es.EZ (V/m) @ t=0.5
20.47299145329432
% es.tEX (V/m) @ t=0.5
-21.286815110274446
% es.tEY (V/m) @ t=0.5
0
% es.tEZ (V/m) @ t=0.5
20.4729914532943
% es.Ex (V/m) @ t=0.5
-21.286815110274446
% es.Ey (V/m) @ t=0.5
17.078595708683878
% es.Ez (V/m) @ t=0.5
20.47299145329432
% es.tEx (V/m) @ t=0.5
-21.286815110274446
% es.tEy (V/m) @ t=0.5
0
% es.tEz (V/m) @ t=0.5
20.4729914532943
% V (V) @ t=0.5
0.014146432111731354
% es.normE (V/m) @ t=0.52
45.63031675026967
% es.EX (V/m) @ t=0.52
-21.54934907861103
% es.EY (V/m) @ t=0.52
17.289203679607745
% es.EZ (V/m) @ t=0.52
20.725376465727322
% es.tEX (V/m) @ t=0.52
-21.549349078611016
% es.tEY (V/m) @ t=0.52
0
% es.tEZ (V/m) @ t=0.52
20.725376465727322
% es.Ex (V/m) @ t=0.52
-21.54934907861103
% es.Ey (V/m) @ t=0.52
17.289203679607745
% es.Ez (V/m) @ t=0.52
20.725376465727322
% es.tEx (V/m) @ t=0.52
-21.549349078611016
% es.tEy (V/m) @ t=0.52
0
% es.tEz (V/m) @ t=0.52
20.725376465727322
% V (V) @ t=0.52
0.0143208569140232
% es.normE (V/m) @ t=0.54
46.19107299312891
% es.EX (V/m) @ t=0.54
-21.81420870784727
% es.EY (V/m) @ t=0.54
17.50168379513611
% es.EZ (V/m) @ t=0.54
20.98002585951273
% es.tEX (V/m) @ t=0.54
-21.81420870784732
% es.tEY (V/m) @ t=0.54
0
% es.tEZ (V/m) @ t=0.54
20.98002585951275
% es.Ex (V/m) @ t=0.54
-21.81420870784727
% es.Ey (V/m) @ t=0.54
17.50168379513611
% es.Ez (V/m) @ t=0.54
20.98002585951273
% es.tEx (V/m) @ t=0.54
-21.81420870784732
% es.tEy (V/m) @ t=0.54
0
% es.tEz (V/m) @ t=0.54
20.98002585951275
% V (V) @ t=0.54
0.014496838519048087
% es.normE (V/m) @ t=0.56
46.756780027793155
% es.EX (V/m) @ t=0.56
-22.081393997983184
% es.EY (V/m) @ t=0.56
17.71603605526861
% es.EZ (V/m) @ t=0.56
21.236939634650547
% es.tEX (V/m) @ t=0.56
-22.081393997983177
% es.tEY (V/m) @ t=0.56
0
% es.tEZ (V/m) @ t=0.56
21.236939634650582
% es.Ex (V/m) @ t=0.56
-22.081393997983184
% es.Ey (V/m) @ t=0.56
17.71603605526861
% es.Ez (V/m) @ t=0.56
21.236939634650547
% es.tEx (V/m) @ t=0.56
-22.081393997983177
% es.tEy (V/m) @ t=0.56
0
% es.tEz (V/m) @ t=0.56
21.236939634650582
% V (V) @ t=0.56
0.014674376926806013
% es.normE (V/m) @ t=0.58
47.32743785420604
% es.EX (V/m) @ t=0.58
-22.350904949018727
% es.EY (V/m) @ t=0.58
17.9322604600055
% es.EZ (V/m) @ t=0.58
21.496117791140684
% es.tEX (V/m) @ t=0.58
-22.350904949018727
% es.tEY (V/m) @ t=0.58
0
% es.tEZ (V/m) @ t=0.58
21.496117791140705
% es.Ex (V/m) @ t=0.58
-22.350904949018727
% es.Ey (V/m) @ t=0.58
17.9322604600055
% es.Ez (V/m) @ t=0.58
21.496117791140684
% es.tEx (V/m) @ t=0.58
-22.350904949018727
% es.tEy (V/m) @ t=0.58
0
% es.tEz (V/m) @ t=0.58
21.496117791140705
% V (V) @ t=0.58
0.014853472137296975
% es.normE (V/m) @ t=0.6
47.90304647234117
% es.EX (V/m) @ t=0.6
-22.622741560953955
% es.EY (V/m) @ t=0.6
18.15035700934667
% es.EZ (V/m) @ t=0.6
21.75756032898324
% es.tEX (V/m) @ t=0.6
-22.622741560953983
% es.tEY (V/m) @ t=0.6
0
% es.tEZ (V/m) @ t=0.6
21.75756032898323
% es.Ex (V/m) @ t=0.6
-22.622741560953955
% es.Ey (V/m) @ t=0.6
18.15035700934667
% es.Ez (V/m) @ t=0.6
21.75756032898324
% es.tEx (V/m) @ t=0.6
-22.622741560953983
% es.tEy (V/m) @ t=0.6
0
% es.tEz (V/m) @ t=0.6
21.75756032898323
% V (V) @ t=0.6
0.01503412415052098
% es.normE (V/m) @ t=0.62
48.48360588220039
% es.EX (V/m) @ t=0.62
-22.89690383378884
% es.EY (V/m) @ t=0.62
18.370325703292266
% es.EZ (V/m) @ t=0.62
22.02126724817807
% es.tEX (V/m) @ t=0.62
-22.896903833788826
% es.tEY (V/m) @ t=0.62
0
% es.tEZ (V/m) @ t=0.62
22.02126724817805
% es.Ex (V/m) @ t=0.62
-22.89690383378884
% es.Ey (V/m) @ t=0.62
18.370325703292266
% es.Ez (V/m) @ t=0.62
22.02126724817807
% es.tEx (V/m) @ t=0.62
-22.896903833788826
% es.tEy (V/m) @ t=0.62
0
% es.tEz (V/m) @ t=0.62
22.02126724817805
% V (V) @ t=0.62
0.015216332966478029
% es.normE (V/m) @ t=0.64
49.069116083812084
% es.EX (V/m) @ t=0.64
-23.173391767523356
% es.EY (V/m) @ t=0.64
18.592166541842097
% es.EZ (V/m) @ t=0.64
22.287238548725384
% es.tEX (V/m) @ t=0.64
-23.173391767523327
% es.tEY (V/m) @ t=0.64
0
% es.tEZ (V/m) @ t=0.64
22.287238548725327
% es.Ex (V/m) @ t=0.64
-23.173391767523356
% es.Ey (V/m) @ t=0.64
18.592166541842097
% es.Ez (V/m) @ t=0.64
22.287238548725384
% es.tEx (V/m) @ t=0.64
-23.173391767523327
% es.tEy (V/m) @ t=0.64
0
% es.tEz (V/m) @ t=0.64
22.287238548725327
% V (V) @ t=0.64
0.015400098585168111
% es.normE (V/m) @ t=0.66
49.6595770772298
% es.EX (V/m) @ t=0.66
-23.452205362157585
% es.EY (V/m) @ t=0.66
18.815879524996284
% es.EZ (V/m) @ t=0.66
22.555474230625002
% es.tEX (V/m) @ t=0.66
-23.452205362157585
% es.tEY (V/m) @ t=0.66
0
% es.tEZ (V/m) @ t=0.66
22.555474230624952
% es.Ex (V/m) @ t=0.66
-23.452205362157585
% es.Ey (V/m) @ t=0.66
18.815879524996284
% es.Ez (V/m) @ t=0.66
22.555474230625002
% es.tEx (V/m) @ t=0.66
-23.452205362157585
% es.tEy (V/m) @ t=0.66
0
% es.tEz (V/m) @ t=0.66
22.555474230624952
% V (V) @ t=0.66
0.015585421006591237
% es.normE (V/m) @ t=0.68
50.25498886253042
% es.EX (V/m) @ t=0.68
-23.733344617691415
% es.EY (V/m) @ t=0.68
19.04146465275486
% es.EZ (V/m) @ t=0.68
22.825974293877017
% es.tEX (V/m) @ t=0.68
-23.73334461769143
% es.tEY (V/m) @ t=0.68
0
% es.tEZ (V/m) @ t=0.68
22.825974293876982
% es.Ex (V/m) @ t=0.68
-23.733344617691415
% es.Ey (V/m) @ t=0.68
19.04146465275486
% es.Ez (V/m) @ t=0.68
22.825974293877017
% es.tEx (V/m) @ t=0.68
-23.73334461769143
% es.tEy (V/m) @ t=0.68
0
% es.tEz (V/m) @ t=0.68
22.825974293876982
% V (V) @ t=0.68
0.0157723002307474
% es.normE (V/m) @ t=0.7
50.855351439812964
% es.EX (V/m) @ t=0.7
-24.016809534124945
% es.EY (V/m) @ t=0.7
19.268921925117617
% es.EZ (V/m) @ t=0.7
23.098738738481487
% es.tEX (V/m) @ t=0.7
-24.01680953412496
% es.tEY (V/m) @ t=0.7
0
% es.tEZ (V/m) @ t=0.7
23.09873873848153
% es.Ex (V/m) @ t=0.7
-24.016809534124945
% es.Ey (V/m) @ t=0.7
19.268921925117617
% es.Ez (V/m) @ t=0.7
23.098738738481487
% es.tEx (V/m) @ t=0.7
-24.01680953412496
% es.tEy (V/m) @ t=0.7
0
% es.tEz (V/m) @ t=0.7
23.09873873848153
% V (V) @ t=0.7
0.015960736257636603
% es.normE (V/m) @ t=0.72
51.460664809196984
% es.EX (V/m) @ t=0.72
-24.302600111458062
% es.EY (V/m) @ t=0.72
19.498251342084792
% es.EZ (V/m) @ t=0.72
23.37376756443814
% es.tEX (V/m) @ t=0.72
-24.302600111458034
% es.tEY (V/m) @ t=0.72
0
% es.tEZ (V/m) @ t=0.72
23.37376756443814
% es.Ex (V/m) @ t=0.72
-24.302600111458062
% es.Ey (V/m) @ t=0.72
19.498251342084792
% es.Ez (V/m) @ t=0.72
23.37376756443814
% es.tEx (V/m) @ t=0.72
-24.302600111458034
% es.tEy (V/m) @ t=0.72
0
% es.tEz (V/m) @ t=0.72
23.37376756443814
% V (V) @ t=0.72
0.01615072908725885
% es.normE (V/m) @ t=0.74
52.07195146523138
% es.EX (V/m) @ t=0.74
-24.591210232715113
% es.EY (V/m) @ t=0.74
19.729843604576132
% es.EZ (V/m) @ t=0.74
23.65151124055327
% es.tEX (V/m) @ t=0.74
-24.591210232715113
% es.tEY (V/m) @ t=0.74
0
% es.tEZ (V/m) @ t=0.74
23.651511240553248
% es.Ex (V/m) @ t=0.74
-24.591210232715113
% es.Ey (V/m) @ t=0.74
19.729843604576132
% es.Ez (V/m) @ t=0.74
23.65151124055327
% es.tEx (V/m) @ t=0.74
-24.591210232715113
% es.tEy (V/m) @ t=0.74
0
% es.tEz (V/m) @ t=0.74
23.651511240553248
% V (V) @ t=0.74
0.01634259694451968
% es.normE (V/m) @ t=0.76
52.695757710542686
% es.EX (V/m) @ t=0.76
-24.88580187880072
% es.EY (V/m) @ t=0.76
19.966200092042754
% es.EZ (V/m) @ t=0.76
23.93485379744297
% es.tEX (V/m) @ t=0.76
-24.88580187880072
% es.tEY (V/m) @ t=0.76
0
% es.tEZ (V/m) @ t=0.76
23.93485379744294
% es.Ex (V/m) @ t=0.76
-24.88580187880072
% es.Ey (V/m) @ t=0.76
19.966200092042754
% es.Ez (V/m) @ t=0.76
23.93485379744297
% es.tEx (V/m) @ t=0.76
-24.88580187880072
% es.tEy (V/m) @ t=0.76
0
% es.tEz (V/m) @ t=0.76
23.93485379744294
% V (V) @ t=0.76
0.0165383771966202
% es.normE (V/m) @ t=0.78
53.32578314015487
% es.EX (V/m) @ t=0.78
-25.18333184189646
% es.EY (V/m) @ t=0.78
20.20491338403152
% es.EZ (V/m) @ t=0.78
24.221019536965954
% es.tEX (V/m) @ t=0.78
-25.18333184189649
% es.tEY (V/m) @ t=0.78
0
% es.tEZ (V/m) @ t=0.78
24.22101953696597
% es.Ex (V/m) @ t=0.78
-25.18333184189646
% es.Ey (V/m) @ t=0.78
20.20491338403152
% es.Ez (V/m) @ t=0.78
24.221019536965954
% es.tEx (V/m) @ t=0.78
-25.18333184189649
% es.tEy (V/m) @ t=0.78
0
% es.tEz (V/m) @ t=0.78
24.22101953696597
% V (V) @ t=0.78
0.016736109005724285
% es.normE (V/m) @ t=0.8
53.96202775406793
% es.EX (V/m) @ t=0.8
-25.483800122002663
% es.EY (V/m) @ t=0.8
20.445983480542694
% es.EZ (V/m) @ t=0.8
24.51000845912248
% es.tEX (V/m) @ t=0.8
-25.48380012200265
% es.tEY (V/m) @ t=0.8
0
% es.tEZ (V/m) @ t=0.8
24.51000845912256
% es.Ex (V/m) @ t=0.8
-25.483800122002663
% es.Ey (V/m) @ t=0.8
20.445983480542694
% es.Ez (V/m) @ t=0.8
24.51000845912248
% es.tEx (V/m) @ t=0.8
-25.48380012200265
% es.tEy (V/m) @ t=0.8
0
% es.tEz (V/m) @ t=0.8
24.51000845912256
% V (V) @ t=0.8
0.01693579237183194
% es.normE (V/m) @ t=0.82
54.60449155228155
% es.EX (V/m) @ t=0.82
-25.787206719119155
% es.EY (V/m) @ t=0.82
20.689410381576145
% es.EZ (V/m) @ t=0.82
24.801820563912607
% es.tEX (V/m) @ t=0.82
-25.78720671911917
% es.tEY (V/m) @ t=0.82
0
% es.tEZ (V/m) @ t=0.82
24.801820563912543
% es.Ex (V/m) @ t=0.82
-25.787206719119155
% es.Ey (V/m) @ t=0.82
20.689410381576145
% es.Ez (V/m) @ t=0.82
24.801820563912607
% es.tEx (V/m) @ t=0.82
-25.78720671911917
% es.tEy (V/m) @ t=0.82
0
% es.tEz (V/m) @ t=0.82
24.801820563912543
% V (V) @ t=0.82
0.017137427294943157
% es.normE (V/m) @ t=0.84
55.25317453479582
% es.EX (V/m) @ t=0.84
-26.093551633246094
% es.EY (V/m) @ t=0.84
20.93519408713184
% es.EZ (V/m) @ t=0.84
25.096455851336103
% es.tEX (V/m) @ t=0.84
-26.093551633246094
% es.tEY (V/m) @ t=0.84
0
% es.tEZ (V/m) @ t=0.84
25.09645585133609
% es.Ex (V/m) @ t=0.84
-26.093551633246094
% es.Ey (V/m) @ t=0.84
20.93519408713184
% es.Ez (V/m) @ t=0.84
25.096455851336103
% es.tEx (V/m) @ t=0.84
-26.093551633246094
% es.tEy (V/m) @ t=0.84
0
% es.tEz (V/m) @ t=0.84
25.09645585133609
% V (V) @ t=0.84
0.017341013775057944
% es.normE (V/m) @ t=0.86
55.908076701610696
% es.EX (V/m) @ t=0.86
-26.40283486438311
% es.EY (V/m) @ t=0.86
21.183334597209715
% es.EZ (V/m) @ t=0.86
25.39391432139309
% es.tEX (V/m) @ t=0.86
-26.40283486438308
% es.tEY (V/m) @ t=0.86
0
% es.tEZ (V/m) @ t=0.86
25.39391432139314
% es.Ex (V/m) @ t=0.86
-26.40283486438311
% es.Ey (V/m) @ t=0.86
21.183334597209715
% es.Ez (V/m) @ t=0.86
25.39391432139309
% es.tEx (V/m) @ t=0.86
-26.40283486438308
% es.tEy (V/m) @ t=0.86
0
% es.tEz (V/m) @ t=0.86
25.39391432139314
% V (V) @ t=0.86
0.017546551812176292
% es.normE (V/m) @ t=0.88
56.56919805272709
% es.EX (V/m) @ t=0.88
-26.715056412530615
% es.EY (V/m) @ t=0.88
21.433831911809925
% es.EZ (V/m) @ t=0.88
25.694195974083527
% es.tEX (V/m) @ t=0.88
-26.715056412530615
% es.tEY (V/m) @ t=0.88
0
% es.tEZ (V/m) @ t=0.88
25.694195974083527
% es.Ex (V/m) @ t=0.88
-26.715056412530615
% es.Ey (V/m) @ t=0.88
21.433831911809925
% es.Ez (V/m) @ t=0.88
25.694195974083527
% es.tEx (V/m) @ t=0.88
-26.715056412530615
% es.tEy (V/m) @ t=0.88
0
% es.tEz (V/m) @ t=0.88
25.694195974083527
% V (V) @ t=0.88
0.01775404140629821
% es.normE (V/m) @ t=0.9
57.23653858814552
% es.EX (V/m) @ t=0.9
-27.03021627768834
% es.EY (V/m) @ t=0.9
21.68668603093242
% es.EZ (V/m) @ t=0.9
25.99730080940745
% es.tEX (V/m) @ t=0.9
-27.03021627768831
% es.tEY (V/m) @ t=0.9
0
% es.tEZ (V/m) @ t=0.9
25.997300809407534
% es.Ex (V/m) @ t=0.9
-27.03021627768834
% es.Ey (V/m) @ t=0.9
21.68668603093242
% es.Ez (V/m) @ t=0.9
25.99730080940745
% es.tEx (V/m) @ t=0.9
-27.03021627768831
% es.tEy (V/m) @ t=0.9
0
% es.tEz (V/m) @ t=0.9
25.997300809407534
% V (V) @ t=0.9
0.01796348255742369
% es.normE (V/m) @ t=0.92
57.9100983078672
% es.EX (V/m) @ t=0.92
-27.348314459856454
% es.EY (V/m) @ t=0.92
21.941896954577217
% es.EZ (V/m) @ t=0.92
26.30322882736487
% es.tEX (V/m) @ t=0.92
-27.348314459856496
% es.tEY (V/m) @ t=0.92
0
% es.tEZ (V/m) @ t=0.92
26.30322882736482
% es.Ex (V/m) @ t=0.92
-27.348314459856454
% es.Ey (V/m) @ t=0.92
21.941896954577217
% es.Ez (V/m) @ t=0.92
26.30322882736487
% es.tEx (V/m) @ t=0.92
-27.348314459856496
% es.tEy (V/m) @ t=0.92
0
% es.tEz (V/m) @ t=0.92
26.30322882736482
% V (V) @ t=0.92
0.01817487526555274
% es.normE (V/m) @ t=0.94
58.589877211893004
% es.EX (V/m) @ t=0.94
-27.669350959034844
% es.EY (V/m) @ t=0.94
22.199464682744228
% es.EZ (V/m) @ t=0.94
26.61198002795571
% es.tEX (V/m) @ t=0.94
-27.669350959034844
% es.tEY (V/m) @ t=0.94
0
% es.tEZ (V/m) @ t=0.94
26.611980027955667
% es.Ex (V/m) @ t=0.94
-27.669350959034844
% es.Ey (V/m) @ t=0.94
22.199464682744228
% es.Ez (V/m) @ t=0.94
26.61198002795571
% es.tEx (V/m) @ t=0.94
-27.669350959034844
% es.tEy (V/m) @ t=0.94
0
% es.tEz (V/m) @ t=0.94
26.611980027955667
% V (V) @ t=0.94
0.018388219530685347
% es.normE (V/m) @ t=0.96
59.27587530022471
% es.EX (V/m) @ t=0.96
-27.993325775223653
% es.EY (V/m) @ t=0.96
22.45938921543356
% es.EZ (V/m) @ t=0.96
26.92355441118014
% es.tEX (V/m) @ t=0.96
-27.99332577522361
% es.tEY (V/m) @ t=0.96
0
% es.tEZ (V/m) @ t=0.96
26.92355441118019
% es.Ex (V/m) @ t=0.96
-27.993325775223653
% es.Ey (V/m) @ t=0.96
22.45938921543356
% es.Ez (V/m) @ t=0.96
26.92355441118014
% es.tEx (V/m) @ t=0.96
-27.99332577522361
% es.tEy (V/m) @ t=0.96
0
% es.tEz (V/m) @ t=0.96
26.92355441118019
% V (V) @ t=0.96
0.01860351535282153
% es.normE (V/m) @ t=0.98
59.968092572863405
% es.EX (V/m) @ t=0.98
-28.320238908422738
% es.EY (V/m) @ t=0.98
22.72167055264518
% es.EZ (V/m) @ t=0.98
27.23795197703806
% es.tEX (V/m) @ t=0.98
-28.320238908422738
% es.tEY (V/m) @ t=0.98
0
% es.tEZ (V/m) @ t=0.98
27.237951977038108
% es.Ex (V/m) @ t=0.98
-28.320238908422738
% es.Ey (V/m) @ t=0.98
22.72167055264518
% es.Ez (V/m) @ t=0.98
27.23795197703806
% es.tEx (V/m) @ t=0.98
-28.320238908422738
% es.tEy (V/m) @ t=0.98
0
% es.tEz (V/m) @ t=0.98
27.237951977038108
% V (V) @ t=0.98
0.018820762731961274
% es.normE (V/m) @ t=1
60.67062926968728
% es.EX (V/m) @ t=1
-28.652032737261308
% es.EY (V/m) @ t=1
22.987864049854494
% es.EZ (V/m) @ t=1
27.55702743045898
% es.tEX (V/m) @ t=1
-28.65203273726135
% es.tEY (V/m) @ t=1
0
% es.tEZ (V/m) @ t=1
27.55702743045896
% es.Ex (V/m) @ t=1
-28.652032737261308
% es.Ey (V/m) @ t=1
22.987864049854494
% es.Ez (V/m) @ t=1
27.55702743045898
% es.tEx (V/m) @ t=1
-28.65203273726135
% es.tEy (V/m) @ t=1
0
% es.tEz (V/m) @ t=1
27.55702743045896
% V (V) @ t=1
0.01904124705051497
% es.normE (V/m) @ t=1.02
61.38083279290154
% es.EX (V/m) @ t=1.02
-28.987450664698926
% es.EY (V/m) @ t=1.02
23.256963489706493
% es.EZ (V/m) @ t=1.02
27.879580893782943
% es.tEX (V/m) @ t=1.02
-28.987450664698926
% es.tEY (V/m) @ t=1.02
0
% es.tEZ (V/m) @ t=1.02
27.87958089378293
% es.Ex (V/m) @ t=1.02
-28.987450664698926
% es.Ey (V/m) @ t=1.02
23.256963489706493
% es.Ez (V/m) @ t=1.02
27.879580893782943
% es.tEx (V/m) @ t=1.02
-28.987450664698926
% es.tEy (V/m) @ t=1.02
0
% es.tEz (V/m) @ t=1.02
27.87958089378293
% V (V) @ t=1.02
0.01926413674675287
% es.normE (V/m) @ t=1.04
62.09799656987443
% es.EX (V/m) @ t=1.04
-29.32615797090625
% es.EY (V/m) @ t=1.04
23.528700846023355
% es.EZ (V/m) @ t=1.04
28.20529275552449
% es.tEX (V/m) @ t=1.04
-29.32615797090621
% es.tEY (V/m) @ t=1.04
0
% es.tEZ (V/m) @ t=1.04
28.20529275552451
% es.Ex (V/m) @ t=1.04
-29.32615797090625
% es.Ey (V/m) @ t=1.04
23.528700846023355
% es.Ez (V/m) @ t=1.04
28.20529275552449
% es.tEx (V/m) @ t=1.04