% Model:              1 neuron.mph
% Version:            COMSOL 6.0.0.405
% Date:               Mar 16 2023, 20:16
% Dimension:          0
% Nodes:              14017
% Expressions:        14017
% Description:        Electric field norm, Electric field, X component, Electric field, Y component, Electric field, Z component, Tangential electric field, X component, Tangential electric field, Y component, Tangential electric field, Z component, Electric field, x component, Electric field, y component, Electric field, z component, Tangential electric field, x component, Tangential electric field, y component, Tangential electric field, z component, Electric potential
% Length unit:        mm
% x
1
% y
12.2
% z
1.33
% es.normE (V/m) @ t=0
2.7417972080043134
% es.EX (V/m) @ t=0
2.5337792685866596
% es.EY (V/m) @ t=0
0.15954207102115125
% es.EZ (V/m) @ t=0
1.0243130099551192
% es.tEX (V/m) @ t=0
2.5337792685866596
% es.tEY (V/m) @ t=0
0
% es.tEZ (V/m) @ t=0
1.024313009955117
% es.Ex (V/m) @ t=0
2.5337792685866596
% es.Ey (V/m) @ t=0
0.15954207102115125
% es.Ez (V/m) @ t=0
1.0243130099551192
% es.tEx (V/m) @ t=0
2.5337792685866596
% es.tEy (V/m) @ t=0
0
% es.tEz (V/m) @ t=0
1.024313009955117
% V (V) @ t=0
0.013676533660416358
% es.normE (V/m) @ t=0.02
2.3760741563644796
% es.EX (V/m) @ t=0.02
2.195803334192039
% es.EY (V/m) @ t=0.02
0.13826104168761078
% es.EZ (V/m) @ t=0.02
0.8876818580469072
% es.tEX (V/m) @ t=0.02
2.195803334192039
% es.tEY (V/m) @ t=0.02
0
% es.tEZ (V/m) @ t=0.02
0.8876818580469141
% es.Ex (V/m) @ t=0.02
2.195803334192039
% es.Ey (V/m) @ t=0.02
0.13826104168761078
% es.Ez (V/m) @ t=0.02
0.8876818580469072
% es.tEx (V/m) @ t=0.02
2.195803334192039
% es.tEy (V/m) @ t=0.02
0
% es.tEz (V/m) @ t=0.02
0.8876818580469141
% V (V) @ t=0.02
0.011852247688807643
% es.normE (V/m) @ t=0.04
2.4060390230039173
% es.EX (V/m) @ t=0.04
2.2234949424969344
% es.EY (V/m) @ t=0.04
0.14000416700129148
% es.EZ (V/m) @ t=0.04
0.8988761196824722
% es.tEX (V/m) @ t=0.04
2.2234949424969326
% es.tEY (V/m) @ t=0.04
0
% es.tEZ (V/m) @ t=0.04
0.8988761196824795
% es.Ex (V/m) @ t=0.04
2.2234949424969344
% es.Ey (V/m) @ t=0.04
0.14000416700129148
% es.Ez (V/m) @ t=0.04
0.8988761196824722
% es.tEx (V/m) @ t=0.04
2.2234949424969326
% es.tEy (V/m) @ t=0.04
0
% es.tEz (V/m) @ t=0.04
0.8988761196824795
% V (V) @ t=0.04
0.012001730594861874
% es.normE (V/m) @ t=0.06
2.4362885646772714
% es.EX (V/m) @ t=0.06
2.2514498347650616
% es.EY (V/m) @ t=0.06
0.14176318693242795
% es.EZ (V/m) @ t=0.06
0.9101762325984255
% es.tEX (V/m) @ t=0.06
2.2514498347650562
% es.tEY (V/m) @ t=0.06
0
% es.tEZ (V/m) @ t=0.06
0.910176232598416
% es.Ex (V/m) @ t=0.06
2.2514498347650616
% es.Ey (V/m) @ t=0.06
0.14176318693242795
% es.Ez (V/m) @ t=0.06
0.9101762325984255
% es.tEx (V/m) @ t=0.06
2.2514498347650562
% es.tEy (V/m) @ t=0.06
0
% es.tEz (V/m) @ t=0.06
0.910176232598416
% V (V) @ t=0.06
0.01215265138877983
% es.normE (V/m) @ t=0.08
2.467470510250874
% es.EX (V/m) @ t=0.08
2.280265617181538
% es.EY (V/m) @ t=0.08
0.1435789640182502
% es.EZ (V/m) @ t=0.08
0.9218265549137472
% es.tEX (V/m) @ t=0.08
2.2802656171815343
% es.tEY (V/m) @ t=0.08
0
% es.tEZ (V/m) @ t=0.08
0.9218265549137481
% es.Ex (V/m) @ t=0.08
2.280265617181538
% es.Ey (V/m) @ t=0.08
0.1435789640182502
% es.Ez (V/m) @ t=0.08
0.9218265549137472
% es.tEx (V/m) @ t=0.08
2.2802656171815343
% es.tEy (V/m) @ t=0.08
0
% es.tEz (V/m) @ t=0.08
0.9218265549137481
% V (V) @ t=0.08
0.012308156422132763
% es.normE (V/m) @ t=0.1
2.498757831372317
% es.EX (V/m) @ t=0.1
2.3091786930229263
% es.EY (V/m) @ t=0.1
0.14540115550895494
% es.EZ (V/m) @ t=0.1
0.9335164561137566
% es.tEX (V/m) @ t=0.1
2.3091786930229325
% es.tEY (V/m) @ t=0.1
0
% es.tEZ (V/m) @ t=0.1
0.9335164561137548
% es.Ex (V/m) @ t=0.1
2.3091786930229263
% es.Ey (V/m) @ t=0.1
0.14540115550895494
% es.Ez (V/m) @ t=0.1
0.9335164561137566
% es.tEx (V/m) @ t=0.1
2.3091786930229325
% es.tEy (V/m) @ t=0.1
0
% es.tEz (V/m) @ t=0.1
0.9335164561137548
% V (V) @ t=0.1
0.012464179542904939
% es.normE (V/m) @ t=0.12
2.530045152496371
% es.EX (V/m) @ t=0.12
2.338091768864306
% es.EY (V/m) @ t=0.12
0.14722334699965278
% es.EZ (V/m) @ t=0.12
0.9452063573137472
% es.tEX (V/m) @ t=0.12
2.3380917688643112
% es.tEY (V/m) @ t=0.12
0
% es.tEZ (V/m) @ t=0.12
0.9452063573137597
% es.Ex (V/m) @ t=0.12
2.338091768864306
% es.Ey (V/m) @ t=0.12
0.14722334699965278
% es.Ez (V/m) @ t=0.12
0.9452063573137472
% es.tEx (V/m) @ t=0.12
2.3380917688643112
% es.tEy (V/m) @ t=0.12
0
% es.tEz (V/m) @ t=0.12
0.9452063573137597
% V (V) @ t=0.12
0.012620202663677117
% es.normE (V/m) @ t=0.14
2.5631325758734764
% es.EX (V/m) @ t=0.14
2.3686674873083895
% es.EY (V/m) @ t=0.14
0.14915315024969344
% es.EZ (V/m) @ t=0.14
0.9575709097766465
% es.tEX (V/m) @ t=0.14
2.3686674873083877
% es.tEY (V/m) @ t=0.14
0
% es.tEZ (V/m) @ t=0.14
0.9575709097766465
% es.Ex (V/m) @ t=0.14
2.3686674873083895
% es.Ey (V/m) @ t=0.14
0.14915315024969344
% es.Ez (V/m) @ t=0.14
0.9575709097766465
% es.tEx (V/m) @ t=0.14
2.3686674873083877
% es.tEy (V/m) @ t=0.14
0
% es.tEz (V/m) @ t=0.14
0.9575709097766465
% V (V) @ t=0.14
0.012785128528625338
% es.normE (V/m) @ t=0.16
2.596653326834983
% es.EX (V/m) @ t=0.16
2.399643443496558
% es.EY (V/m) @ t=0.16
0.15110885821773345
% es.EZ (V/m) @ t=0.16
0.9700978668952489
% es.tEX (V/m) @ t=0.16
2.3996434434965686
% es.tEY (V/m) @ t=0.16
0
% es.tEZ (V/m) @ t=0.16
0.970097866895256
% es.Ex (V/m) @ t=0.16
2.399643443496558
% es.Ey (V/m) @ t=0.16
0.15110885821773345
% es.Ez (V/m) @ t=0.16
0.9700978668952489
% es.tEx (V/m) @ t=0.16
2.3996434434965686
% es.tEy (V/m) @ t=0.16
0
% es.tEz (V/m) @ t=0.16
0.970097866895256
% V (V) @ t=0.16
0.01295219749651077
% es.normE (V/m) @ t=0.18
2.630174077821237
% es.EX (V/m) @ t=0.18
2.430619399684735
% es.EY (V/m) @ t=0.18
0.15306456618578257
% es.EZ (V/m) @ t=0.18
0.9826248240138749
% es.tEX (V/m) @ t=0.18
2.4306193996847316
% es.tEY (V/m) @ t=0.18
0
% es.tEZ (V/m) @ t=0.18
0.982624824013878
% es.Ex (V/m) @ t=0.18
2.430619399684735
% es.Ey (V/m) @ t=0.18
0.15306456618578257
% es.Ez (V/m) @ t=0.18
0.9826248240138749
% es.tEx (V/m) @ t=0.18
2.4306193996847316
% es.tEy (V/m) @ t=0.18
0
% es.tEz (V/m) @ t=0.18
0.982624824013878
% V (V) @ t=0.18
0.013119266464396201
% es.normE (V/m) @ t=0.2
2.663694828831291
% es.EX (V/m) @ t=0.2
2.4615953558729196
% es.EY (V/m) @ t=0.2
0.15502027415380848
% es.EZ (V/m) @ t=0.2
0.9951517811324999
% es.tEX (V/m) @ t=0.2
2.4615953558729142
% es.tEY (V/m) @ t=0.2
0
% es.tEZ (V/m) @ t=0.2
0.9951517811325106
% es.Ex (V/m) @ t=0.2
2.4615953558729196
% es.Ey (V/m) @ t=0.2
0.15502027415380848
% es.Ez (V/m) @ t=0.2
0.9951517811324999
% es.tEx (V/m) @ t=0.2
2.4615953558729142
% es.tEy (V/m) @ t=0.2
0
% es.tEz (V/m) @ t=0.2
0.9951517811325106
% V (V) @ t=0.2
0.013286335432281634
% es.normE (V/m) @ t=0.22
2.6972155798642365
% es.EX (V/m) @ t=0.22
2.492571312061086
% es.EY (V/m) @ t=0.22
0.15697598212184694
% es.EZ (V/m) @ t=0.22
1.00767873825112
% es.tEX (V/m) @ t=0.22
2.492571312061088
% es.tEY (V/m) @ t=0.22
0
% es.tEZ (V/m) @ t=0.22
1.0076787382511272
% es.Ex (V/m) @ t=0.22
2.492571312061086
% es.Ey (V/m) @ t=0.22
0.15697598212184694
% es.Ez (V/m) @ t=0.22
1.00767873825112
% es.tEx (V/m) @ t=0.22
2.492571312061088
% es.tEy (V/m) @ t=0.22
0
% es.tEz (V/m) @ t=0.22
1.0076787382511272
% V (V) @ t=0.22
0.013453404400167067
% es.normE (V/m) @ t=0.24
2.730736330919269
% es.EX (V/m) @ t=0.24
2.523547268249274
% es.EY (V/m) @ t=0.24
0.15893169008989072
% es.EZ (V/m) @ t=0.24
1.020205695369742
% es.tEX (V/m) @ t=0.24
2.5235472682492848
% es.tEY (V/m) @ t=0.24
0
% es.tEZ (V/m) @ t=0.24
1.0202056953697536
% es.Ex (V/m) @ t=0.24
2.523547268249274
% es.Ey (V/m) @ t=0.24
0.15893169008989072
% es.Ez (V/m) @ t=0.24
1.020205695369742
% es.tEx (V/m) @ t=0.24
2.5235472682492848
% es.tEy (V/m) @ t=0.24
0
% es.tEz (V/m) @ t=0.24
1.0202056953697536
% V (V) @ t=0.24
0.013620473368052497
% es.normE (V/m) @ t=0.26
2.765768192535361
% es.EX (V/m) @ t=0.26
2.555920954833156
% es.EY (V/m) @ t=0.26
0.16097123525829882
% es.EZ (V/m) @ t=0.26
1.0332941257202055
% es.tEX (V/m) @ t=0.26
2.555920954833157
% es.tEY (V/m) @ t=0.26
0
% es.tEZ (V/m) @ t=0.26
1.0332941257202064
% es.Ex (V/m) @ t=0.26
2.555920954833156
% es.Ey (V/m) @ t=0.26
0.16097123525829882
% es.Ez (V/m) @ t=0.26
1.0332941257202055
% es.tEx (V/m) @ t=0.26
2.555920954833157
% es.tEy (V/m) @ t=0.26
0
% es.tEz (V/m) @ t=0.26
1.0332941257202064
% V (V) @ t=0.26
0.013795189213102674
% es.normE (V/m) @ t=0.28
2.801722206823917
% es.EX (V/m) @ t=0.28
2.589147604040665
% es.EY (V/m) @ t=0.28
0.16306194193726975
% es.EZ (V/m) @ t=0.28
1.0467251941662763
% es.tEX (V/m) @ t=0.28
2.589147604040665
% es.tEY (V/m) @ t=0.28
0
% es.tEZ (V/m) @ t=0.28
1.0467251941662745
% es.Ex (V/m) @ t=0.28
2.589147604040665
% es.Ey (V/m) @ t=0.28
0.16306194193726975
% es.Ez (V/m) @ t=0.28
1.0467251941662763
% es.tEx (V/m) @ t=0.28
2.589147604040665
% es.tEy (V/m) @ t=0.28
0
% es.tEz (V/m) @ t=0.28
1.0467251941662745
% V (V) @ t=0.28
0.013974571552084087
% es.normE (V/m) @ t=0.3
2.8376762211155757
% es.EX (V/m) @ t=0.3
2.6223742532482
% es.EY (V/m) @ t=0.3
0.16515264861624612
% es.EZ (V/m) @ t=0.3
1.0601562626123453
% es.tEX (V/m) @ t=0.3
2.622374253248198
% es.tEY (V/m) @ t=0.3
0
% es.tEZ (V/m) @ t=0.3
1.0601562626123533
% es.Ex (V/m) @ t=0.3
2.6223742532482
% es.Ey (V/m) @ t=0.3
0.16515264861624612
% es.Ez (V/m) @ t=0.3
1.0601562626123453
% es.tEx (V/m) @ t=0.3
2.622374253248198
% es.tEy (V/m) @ t=0.3
0
% es.tEz (V/m) @ t=0.3
1.0601562626123533
% V (V) @ t=0.3
0.0141539538910655
% es.normE (V/m) @ t=0.32
2.8736302354101664
% es.EX (V/m) @ t=0.32
2.6556009024556992
% es.EY (V/m) @ t=0.32
0.16724335529519774
% es.EZ (V/m) @ t=0.32
1.0735873310584223
% es.tEX (V/m) @ t=0.32
2.6556009024556975
% es.tEY (V/m) @ t=0.32
0
% es.tEZ (V/m) @ t=0.32
1.0735873310584259
% es.Ex (V/m) @ t=0.32
2.6556009024556992
% es.Ey (V/m) @ t=0.32
0.16724335529519774
% es.Ez (V/m) @ t=0.32
1.0735873310584223
% es.tEx (V/m) @ t=0.32
2.6556009024556975
% es.tEy (V/m) @ t=0.32
0
% es.tEz (V/m) @ t=0.32
1.0735873310584259
% V (V) @ t=0.32
0.014333336230046912
% es.normE (V/m) @ t=0.34
2.909584249707633
% es.EX (V/m) @ t=0.34
2.68882755166322
% es.EY (V/m) @ t=0.34
0.16933406197419187
% es.EZ (V/m) @ t=0.34
1.0870183995045002
% es.tEX (V/m) @ t=0.34
2.6888275516632163
% es.tEY (V/m) @ t=0.34
0
% es.tEZ (V/m) @ t=0.34
1.0870183995045002
% es.Ex (V/m) @ t=0.34
2.68882755166322
% es.Ey (V/m) @ t=0.34
0.16933406197419187
% es.Ez (V/m) @ t=0.34
1.0870183995045002
% es.tEx (V/m) @ t=0.34
2.6888275516632163
% es.tEy (V/m) @ t=0.34
0
% es.tEz (V/m) @ t=0.34
1.0870183995045002
% V (V) @ t=0.34
0.014512718569028322
% es.normE (V/m) @ t=0.36
2.9455382640078334
% es.EX (V/m) @ t=0.36
2.7220542008707316
% es.EY (V/m) @ t=0.36
0.17142476865315215
% es.EZ (V/m) @ t=0.36
1.1004494679505612
% es.tEX (V/m) @ t=0.36
2.722054200870746
% es.tEY (V/m) @ t=0.36
0
% es.tEZ (V/m) @ t=0.36
1.1004494679505559
% es.Ex (V/m) @ t=0.36
2.7220542008707316
% es.Ey (V/m) @ t=0.36
0.17142476865315215
% es.Ez (V/m) @ t=0.36
1.1004494679505612
% es.tEx (V/m) @ t=0.36
2.722054200870746
% es.tEy (V/m) @ t=0.36
0
% es.tEz (V/m) @ t=0.36
1.1004494679505559
% V (V) @ t=0.36
0.014692100908009736
% es.normE (V/m) @ t=0.38
2.9826128806193895
% es.EX (V/m) @ t=0.38
2.7563165827006397
% es.EY (V/m) @ t=0.38
0.17358019706863514
% es.EZ (V/m) @ t=0.38
1.1142988224325654
% es.tEX (V/m) @ t=0.38
2.756316582700654
% es.tEY (V/m) @ t=0.38
0
% es.tEZ (V/m) @ t=0.38
1.1142988224325618
% es.Ex (V/m) @ t=0.38
2.7563165827006397
% es.Ey (V/m) @ t=0.38
0.17358019706863514
% es.Ez (V/m) @ t=0.38
1.1142988224325654
% es.tEx (V/m) @ t=0.38
2.756316582700654
% es.tEy (V/m) @ t=0.38
0
% es.tEz (V/m) @ t=0.38
1.1142988224325618
% V (V) @ t=0.38
0.014877085912134366
% es.normE (V/m) @ t=0.4
3.021136710362873
% es.EX (V/m) @ t=0.4
2.7919184203749463
% es.EY (V/m) @ t=0.4
0.17581932653435006
% es.EZ (V/m) @ t=0.4
1.1286891231620233
% es.tEX (V/m) @ t=0.4
2.7919184203749303
% es.tEY (V/m) @ t=0.4
0
% es.tEZ (V/m) @ t=0.4
1.128689123162025
% es.Ex (V/m) @ t=0.4
2.7919184203749463
% es.Ey (V/m) @ t=0.4
0.17581932653435006
% es.Ez (V/m) @ t=0.4
1.1286891231620233
% es.tEx (V/m) @ t=0.4
2.7919184203749303
% es.tEy (V/m) @ t=0.4
0
% es.tEz (V/m) @ t=0.4
1.128689123162025
% V (V) @ t=0.4
0.01506931653390972
% es.normE (V/m) @ t=0.42
3.0596605401130406
% es.EX (V/m) @ t=0.42
2.827520258049221
% es.EY (V/m) @ t=0.42
0.17805845600007164
% es.EZ (V/m) @ t=0.42
1.143079423891482
% es.tEX (V/m) @ t=0.42
2.827520258049228
% es.tEY (V/m) @ t=0.42
0
% es.tEZ (V/m) @ t=0.42
1.1430794238914839
% es.Ex (V/m) @ t=0.42
2.827520258049221
% es.Ey (V/m) @ t=0.42
0.17805845600007164
% es.Ez (V/m) @ t=0.42
1.143079423891482
% es.tEx (V/m) @ t=0.42
2.827520258049228
% es.tEy (V/m) @ t=0.42
0
% es.tEz (V/m) @ t=0.42
1.1430794238914839
% V (V) @ t=0.42
0.01526154715568508
% es.normE (V/m) @ t=0.44
3.098184369869682
% es.EX (V/m) @ t=0.44
2.8631220957235106
% es.EY (V/m) @ t=0.44
0.18029758546579888
% es.EZ (V/m) @ t=0.44
1.1574697246209391
% es.tEX (V/m) @ t=0.44
2.863122095723508
% es.tEY (V/m) @ t=0.44
0
% es.tEZ (V/m) @ t=0.44
1.1574697246209373
% es.Ex (V/m) @ t=0.44
2.8631220957235106
% es.Ey (V/m) @ t=0.44
0.18029758546579888
% es.Ez (V/m) @ t=0.44
1.1574697246209391
% es.tEx (V/m) @ t=0.44
2.863122095723508
% es.tEy (V/m) @ t=0.44
0
% es.tEz (V/m) @ t=0.44
1.1574697246209373
% V (V) @ t=0.44
0.015453777777460435
% es.normE (V/m) @ t=0.46
3.1367081996325448
% es.EX (V/m) @ t=0.46
2.8987239333977968
% es.EY (V/m) @ t=0.46
0.1825367149315119
% es.EZ (V/m) @ t=0.46
1.171860025350397
% es.tEX (V/m) @ t=0.46
2.898723933397804
% es.tEY (V/m) @ t=0.46
0
% es.tEZ (V/m) @ t=0.46
1.1718600253504006
% es.Ex (V/m) @ t=0.46
2.8987239333977968
% es.Ey (V/m) @ t=0.46
0.1825367149315119
% es.Ez (V/m) @ t=0.46
1.171860025350397
% es.tEx (V/m) @ t=0.46
2.898723933397804
% es.tEy (V/m) @ t=0.46
0
% es.tEz (V/m) @ t=0.46
1.1718600253504006
% V (V) @ t=0.46
0.01564600839923579
% es.normE (V/m) @ t=0.48
3.175232029401419
% es.EX (V/m) @ t=0.48
2.9343257710720962
% es.EY (V/m) @ t=0.48
0.1847758443972587
% es.EZ (V/m) @ t=0.48
1.1862503260798611
% es.tEX (V/m) @ t=0.48
2.9343257710720803
% es.tEY (V/m) @ t=0.48
0
% es.tEZ (V/m) @ t=0.48
1.186250326079863
% es.Ex (V/m) @ t=0.48
2.9343257710720962
% es.Ey (V/m) @ t=0.48
0.1847758443972587
% es.Ez (V/m) @ t=0.48
1.1862503260798611
% es.tEx (V/m) @ t=0.48
2.9343257710720803
% es.tEy (V/m) @ t=0.48
0
% es.tEz (V/m) @ t=0.48
1.186250326079863
% V (V) @ t=0.48
0.01583823902101115
% es.normE (V/m) @ t=0.5
3.214036993734208
% es.EX (V/m) @ t=0.5
2.9701873552842937
% es.EY (V/m) @ t=0.5
0.18703152211862373
% es.EZ (V/m) @ t=0.5
1.2007457981385343
% es.tEX (V/m) @ t=0.5
2.970187355284292
% es.tEY (V/m) @ t=0.5
0
% es.tEZ (V/m) @ t=0.5
1.2007457981385343
% es.Ex (V/m) @ t=0.5
2.9701873552842937
% es.Ey (V/m) @ t=0.5
0.18703152211862373
% es.Ez (V/m) @ t=0.5
1.2007457981385343
% es.tEx (V/m) @ t=0.5
2.970187355284292
% es.tEy (V/m) @ t=0.5
0
% es.tEz (V/m) @ t=0.5
1.2007457981385343
% V (V) @ t=0.5
0.016031866937947514
% es.normE (V/m) @ t=0.52
3.2538980527550874
% es.EX (V/m) @ t=0.52
3.007024689115454
% es.EY (V/m) @ t=0.52
0.18934936411091174
% es.EZ (V/m) @ t=0.52
1.2156363510525274
% es.tEX (V/m) @ t=0.52
3.0070246891154664
% es.tEY (V/m) @ t=0.52
0
% es.tEZ (V/m) @ t=0.52
1.2156363510525239
% es.Ex (V/m) @ t=0.52
3.007024689115454
% es.Ey (V/m) @ t=0.52
0.18934936411091174
% es.Ez (V/m) @ t=0.52
1.2156363510525274
% es.tEx (V/m) @ t=0.52
3.0070246891154664
% es.tEy (V/m) @ t=0.52
0
% es.tEz (V/m) @ t=0.52
1.2156363510525239
% V (V) @ t=0.52
0.016230743857361132
% es.normE (V/m) @ t=0.54
3.294107023850846
% es.EX (V/m) @ t=0.54
3.044183466731723
% es.EY (V/m) @ t=0.54
0.19168768504385902
% es.EZ (V/m) @ t=0.54
1.2306570565006112
% es.tEX (V/m) @ t=0.54
3.0441834667317202
% es.tEY (V/m) @ t=0.54
0
% es.tEZ (V/m) @ t=0.54
1.230657056500613
% es.Ex (V/m) @ t=0.54
3.044183466731723
% es.Ey (V/m) @ t=0.54
0.19168768504385902
% es.Ez (V/m) @ t=0.54
1.2306570565006112
% es.tEx (V/m) @ t=0.54
3.0441834667317202
% es.tEy (V/m) @ t=0.54
0
% es.tEz (V/m) @ t=0.54
1.230657056500613
% V (V) @ t=0.54
0.01643134996958333
% es.normE (V/m) @ t=0.56
3.3346639070205573
% es.EX (V/m) @ t=0.56
3.081663688133034
% es.EY (V/m) @ t=0.56
0.1940464849174499
% es.EZ (V/m) @ t=0.56
1.245807914482822
% es.tEX (V/m) @ t=0.56
3.0816636881330375
% es.tEY (V/m) @ t=0.56
0
% es.tEZ (V/m) @ t=0.56
1.2458079144828238
% es.Ex (V/m) @ t=0.56
3.081663688133034
% es.Ey (V/m) @ t=0.56
0.1940464849174499
% es.Ez (V/m) @ t=0.56
1.245807914482822
% es.tEx (V/m) @ t=0.56
3.0816636881330375
% es.tEy (V/m) @ t=0.56
0
% es.tEz (V/m) @ t=0.56
1.2458079144828238
% V (V) @ t=0.56
0.016633685274614098
% es.normE (V/m) @ t=0.58
3.375568702263508
% es.EX (V/m) @ t=0.58
3.1194653533194217
% es.EY (V/m) @ t=0.58
0.1964257637317055
% es.EZ (V/m) @ t=0.58
1.2610889249990769
% es.tEX (V/m) @ t=0.58
3.1194653533194288
% es.tEY (V/m) @ t=0.58
0
% es.tEZ (V/m) @ t=0.58
1.2610889249990764
% es.Ex (V/m) @ t=0.58
3.1194653533194217
% es.Ey (V/m) @ t=0.58
0.1964257637317055
% es.Ez (V/m) @ t=0.58
1.2610889249990769
% es.tEx (V/m) @ t=0.58
3.1194653533194288
% es.tEy (V/m) @ t=0.58
0
% es.tEz (V/m) @ t=0.58
1.2610889249990764
% V (V) @ t=0.58
0.016837749772453444
% es.normE (V/m) @ t=0.6
3.416821409579158
% es.EX (V/m) @ t=0.6
3.1575884622908514
% es.EY (V/m) @ t=0.6
0.19882552148661037
% es.EZ (V/m) @ t=0.6
1.2765000880495103
% es.tEX (V/m) @ t=0.6
3.1575884622908443
% es.tEY (V/m) @ t=0.6
0
% es.tEZ (V/m) @ t=0.6
1.2765000880495103
% es.Ex (V/m) @ t=0.6
3.1575884622908514
% es.Ey (V/m) @ t=0.6
0.19882552148661037
% es.Ez (V/m) @ t=0.6
1.2765000880495103
% es.tEx (V/m) @ t=0.6
3.1575884622908443
% es.tEy (V/m) @ t=0.6
0
% es.tEz (V/m) @ t=0.6
1.2765000880495103
% V (V) @ t=0.6
0.017043543463101364
% es.normE (V/m) @ t=0.62
3.4584220289670826
% es.EX (V/m) @ t=0.62
3.1960330150473766
% es.EY (V/m) @ t=0.62
0.20124575818216672
% es.EZ (V/m) @ t=0.62
1.2920414036339523
% es.tEX (V/m) @ t=0.62
3.19603301504738
% es.tEY (V/m) @ t=0.62
0
% es.tEZ (V/m) @ t=0.62
1.2920414036339576
% es.Ex (V/m) @ t=0.62
3.1960330150473766
% es.Ey (V/m) @ t=0.62
0.20124575818216672
% es.Ez (V/m) @ t=0.62
1.2920414036339523
% es.tEx (V/m) @ t=0.62
3.19603301504738
% es.tEy (V/m) @ t=0.62
0
% es.tEz (V/m) @ t=0.62
1.2920414036339576
% V (V) @ t=0.62
0.01725106634655786
% es.normE (V/m) @ t=0.64
3.5003705604270343
% es.EX (V/m) @ t=0.64
3.234799011588958
% es.EY (V/m) @ t=0.64
0.20368647381836213
% es.EZ (V/m) @ t=0.64
1.307712871752571
% es.tEX (V/m) @ t=0.64
3.234799011588965
% es.tEY (V/m) @ t=0.64
0
% es.tEZ (V/m) @ t=0.64
1.3077128717525817
% es.Ex (V/m) @ t=0.64
3.234799011588958
% es.Ey (V/m) @ t=0.64
0.20368647381836213
% es.Ez (V/m) @ t=0.64
1.307712871752571
% es.tEx (V/m) @ t=0.64
3.234799011588965
% es.tEy (V/m) @ t=0.64
0
% es.tEz (V/m) @ t=0.64
1.3077128717525817
% V (V) @ t=0.64
0.017460318422822925
% es.normE (V/m) @ t=0.66
3.542667003958834
% es.EX (V/m) @ t=0.66
3.273886451915609
% es.EY (V/m) @ t=0.66
0.20614766839521348
% es.EZ (V/m) @ t=0.66
1.3235144924052227
% es.tEX (V/m) @ t=0.66
3.2738864519155992
% es.tEY (V/m) @ t=0.66
0
% es.tEZ (V/m) @ t=0.66
1.3235144924052262
% es.Ex (V/m) @ t=0.66
3.273886451915609
% es.Ey (V/m) @ t=0.66
0.20614766839521348
% es.Ez (V/m) @ t=0.66
1.3235144924052227
% es.tEx (V/m) @ t=0.66
3.2738864519155992
% es.tEy (V/m) @ t=0.66
0
% es.tEz (V/m) @ t=0.66
1.3235144924052262
% V (V) @ t=0.66
0.017671299691896573
% es.normE (V/m) @ t=0.68
3.5853113595624944
% es.EX (V/m) @ t=0.68
3.313295336027325
% es.EY (V/m) @ t=0.68
0.20862934191271654
% es.EZ (V/m) @ t=0.68
1.3394462655919996
% es.tEX (V/m) @ t=0.68
3.3132953360273216
% es.tEY (V/m) @ t=0.68
0
% es.tEZ (V/m) @ t=0.68
1.339446265591996
% es.Ex (V/m) @ t=0.68
3.313295336027325
% es.Ey (V/m) @ t=0.68
0.20862934191271654
% es.Ez (V/m) @ t=0.68
1.3394462655919996
% es.tEx (V/m) @ t=0.68
3.3132953360273216
% es.tEy (V/m) @ t=0.68
0
% es.tEz (V/m) @ t=0.68
1.339446265591996
% V (V) @ t=0.68
0.017884010153778784
% es.normE (V/m) @ t=0.7
3.628303627238101
% es.EX (V/m) @ t=0.7
3.3530256639241127
% es.EY (V/m) @ t=0.7
0.21113149437088286
% es.EZ (V/m) @ t=0.7
1.355508191312857
% es.tEX (V/m) @ t=0.7
3.3530256639241127
% es.tEY (V/m) @ t=0.7
0
% es.tEZ (V/m) @ t=0.7
1.3555081913128522
% es.Ex (V/m) @ t=0.7
3.3530256639241127
% es.Ey (V/m) @ t=0.7
0.21113149437088286
% es.Ez (V/m) @ t=0.7
1.355508191312857
% es.tEx (V/m) @ t=0.7
3.3530256639241127
% es.tEy (V/m) @ t=0.7
0
% es.tEz (V/m) @ t=0.7
1.3555081913128522
% V (V) @ t=0.7
0.018098449808469582
% es.normE (V/m) @ t=0.72
3.6716438069858377
% es.EX (V/m) @ t=0.72
3.3930774356059272
% es.EY (V/m) @ t=0.72
0.21365412576968779
% es.EZ (V/m) @ t=0.72
1.3717002695678326
% es.tEX (V/m) @ t=0.72
3.3930774356059388
% es.tEY (V/m) @ t=0.72
0
% es.tEZ (V/m) @ t=0.72
1.3717002695678309
% es.Ex (V/m) @ t=0.72
3.3930774356059272
% es.Ey (V/m) @ t=0.72
0.21365412576968779
% es.Ez (V/m) @ t=0.72
1.3717002695678326
% es.tEx (V/m) @ t=0.72
3.3930774356059388
% es.tEy (V/m) @ t=0.72
0
% es.tEz (V/m) @ t=0.72
1.3717002695678309
% V (V) @ t=0.72
0.018314618655968937
% es.normE (V/m) @ t=0.74
3.715331898806081
% es.EX (V/m) @ t=0.74
3.4334506510728584
% es.EY (V/m) @ t=0.74
0.21619723610916797
% es.EZ (V/m) @ t=0.74
1.3880225003568762
% es.tEX (V/m) @ t=0.74
3.433450651072846
% es.tEY (V/m) @ t=0.74
0
% es.tEZ (V/m) @ t=0.74
1.3880225003568727
% es.Ex (V/m) @ t=0.74
3.4334506510728584
% es.Ey (V/m) @ t=0.74
0.21619723610916797
% es.Ez (V/m) @ t=0.74
1.3880225003568762
% es.tEx (V/m) @ t=0.74
3.433450651072846
% es.tEy (V/m) @ t=0.74
0
% es.tEz (V/m) @ t=0.74
1.3880225003568727
% V (V) @ t=0.74
0.01853251669627688
% es.normE (V/m) @ t=0.76
3.759953871811911
% es.EX (V/m) @ t=0.76
3.4746871395839545
% es.EY (V/m) @ t=0.76
0.21879389598196464
% es.EZ (V/m) @ t=0.76
1.4046930293411566
% es.tEX (V/m) @ t=0.76
3.4746871395839527
% es.tEY (V/m) @ t=0.76
0
% es.tEZ (V/m) @ t=0.76
1.4046930293411553
% es.Ex (V/m) @ t=0.76
3.4746871395839545
% es.Ey (V/m) @ t=0.76
0.21879389598196464
% es.Ez (V/m) @ t=0.76
1.4046930293411566
% es.tEx (V/m) @ t=0.76
3.4746871395839527
% es.tEy (V/m) @ t=0.76
0
% es.tEz (V/m) @ t=0.76
1.4046930293411553
% V (V) @ t=0.76
0.018755094204079514
% es.normE (V/m) @ t=0.78
3.8050971682228703
% es.EX (V/m) @ t=0.78
3.5164054204922657
% es.EY (V/m) @ t=0.78
0.22142082168595767
% es.EZ (V/m) @ t=0.78
1.4215582687500534
% es.tEX (V/m) @ t=0.78
3.516405420492287
% es.tEY (V/m) @ t=0.78
0
% es.tEZ (V/m) @ t=0.78
1.421558268750048
% es.Ex (V/m) @ t=0.78
3.5164054204922657
% es.Ey (V/m) @ t=0.78
0.22142082168595767
% es.Ez (V/m) @ t=0.78
1.4215582687500534
% es.tEx (V/m) @ t=0.78
3.516405420492287
% es.tEy (V/m) @ t=0.78
0
% es.tEz (V/m) @ t=0.78
1.421558268750048
% V (V) @ t=0.78
0.018980274007136616
% es.normE (V/m) @ t=0.8
3.850688742267259
% es.EX (V/m) @ t=0.8
3.5585379504145607
% es.EY (V/m) @ t=0.8
0.22407389070524775
% es.EZ (V/m) @ t=0.8
1.438591024969127
% es.tEX (V/m) @ t=0.8
3.5585379504145465
% es.tEY (V/m) @ t=0.8
0
% es.tEZ (V/m) @ t=0.8
1.4385910249691252
% es.Ex (V/m) @ t=0.8
3.5585379504145607
% es.Ey (V/m) @ t=0.8
0.22407389070524775
% es.Ez (V/m) @ t=0.8
1.438591024969127
% es.tEx (V/m) @ t=0.8
3.5585379504145465
% es.tEy (V/m) @ t=0.8
0
% es.tEz (V/m) @ t=0.8
1.4385910249691252
% V (V) @ t=0.8
0.019207688329934827
% es.normE (V/m) @ t=0.82
3.8967285939449634
% es.EX (V/m) @ t=0.82
3.6010847293507293
% es.EY (V/m) @ t=0.82
0.22675310303983953
% es.EZ (V/m) @ t=0.82
1.4557912979983034
% es.tEX (V/m) @ t=0.82
3.6010847293507453
% es.tEY (V/m) @ t=0.82
0
% es.tEZ (V/m) @ t=0.82
1.4557912979983056
% es.Ex (V/m) @ t=0.82
3.6010847293507293
% es.Ey (V/m) @ t=0.82
0.22675310303983953
% es.Ez (V/m) @ t=0.82
1.4557912979983034
% es.tEx (V/m) @ t=0.82
3.6010847293507453
% es.tEy (V/m) @ t=0.82
0
% es.tEz (V/m) @ t=0.82
1.4557912979983056
% V (V) @ t=0.82
0.01943733717247414
% es.normE (V/m) @ t=0.84
3.9432167232560884
% es.EX (V/m) @ t=0.84
3.644045757300857
% es.EY (V/m) @ t=0.84
0.2294584586897519
% es.EZ (V/m) @ t=0.84
1.4731590878376242
% es.tEX (V/m) @ t=0.84
3.644045757300848
% es.tEY (V/m) @ t=0.84
0
% es.tEZ (V/m) @ t=0.84
1.473159087837626
% es.Ex (V/m) @ t=0.84
3.644045757300857
% es.Ey (V/m) @ t=0.84
0.2294584586897519
% es.Ez (V/m) @ t=0.84
1.4731590878376242
% es.tEx (V/m) @ t=0.84
3.644045757300848
% es.tEy (V/m) @ t=0.84
0
% es.tEz (V/m) @ t=0.84
1.473159087837626
% V (V) @ t=0.84
0.019669220534754554
% es.normE (V/m) @ t=0.86
3.990153130200633
% es.EX (V/m) @ t=0.86
3.687421034264899
% es.EY (V/m) @ t=0.86
0.23218995765497197
% es.EZ (V/m) @ t=0.86
1.4906943944871527
% es.tEX (V/m) @ t=0.86
3.6874210342649008
% es.tEY (V/m) @ t=0.86
0
% es.tEZ (V/m) @ t=0.86
1.4906943944871527
% es.Ex (V/m) @ t=0.86
3.687421034264899
% es.Ey (V/m) @ t=0.86
0.23218995765497197
% es.Ez (V/m) @ t=0.86
1.4906943944871527
% es.tEx (V/m) @ t=0.86
3.6874210342649008
% es.tEy (V/m) @ t=0.86
0
% es.tEz (V/m) @ t=0.86
1.4906943944871527
% V (V) @ t=0.86
0.01990333841677608
% es.normE (V/m) @ t=0.88
4.037537814778576
% es.EX (V/m) @ t=0.88
3.7312105602428662
% es.EY (V/m) @ t=0.88
0.2349475999354813
% es.EZ (V/m) @ t=0.88
1.5083972179467202
% es.tEX (V/m) @ t=0.88
3.731210560242875
% es.tEY (V/m) @ t=0.88
0
% es.tEZ (V/m) @ t=0.88
1.5083972179467366
% es.Ex (V/m) @ t=0.88
3.7312105602428662
% es.Ey (V/m) @ t=0.88
0.2349475999354813
% es.Ez (V/m) @ t=0.88
1.5083972179467202
% es.tEx (V/m) @ t=0.88
3.731210560242875
% es.tEy (V/m) @ t=0.88
0
% es.tEz (V/m) @ t=0.88
1.5083972179467366
% V (V) @ t=0.88
0.020139690818538707
% es.normE (V/m) @ t=0.9
4.085370776990068
% es.EX (V/m) @ t=0.9
3.7754143352348315
% es.EY (V/m) @ t=0.9
0.2377313855313259
% es.EZ (V/m) @ t=0.9
1.5262675582164795
% es.tEX (V/m) @ t=0.9
3.77541433523481
% es.tEY (V/m) @ t=0.9
0
% es.tEZ (V/m) @ t=0.9
1.526267558216479
% es.Ex (V/m) @ t=0.9
3.7754143352348315
% es.Ey (V/m) @ t=0.9
0.2377313855313259
% es.Ez (V/m) @ t=0.9
1.5262675582164795
% es.tEx (V/m) @ t=0.9
3.77541433523481
% es.tEy (V/m) @ t=0.9
0
% es.tEz (V/m) @ t=0.9
1.526267558216479
% V (V) @ t=0.9
0.020378277740042437
% es.normE (V/m) @ t=0.92
4.133652016835
% es.EX (V/m) @ t=0.92
3.8200323592406633
% es.EY (V/m) @ t=0.92
0.24054131444248128
% es.EZ (V/m) @ t=0.92
1.5443054152963644
% es.tEX (V/m) @ t=0.92
3.8200323592406633
% es.tEY (V/m) @ t=0.92
0
% es.tEZ (V/m) @ t=0.92
1.5443054152963542
% es.Ex (V/m) @ t=0.92
3.8200323592406633
% es.Ey (V/m) @ t=0.92
0.24054131444248128
% es.Ez (V/m) @ t=0.92
1.5443054152963644
% es.tEx (V/m) @ t=0.92
3.8200323592406633
% es.tEy (V/m) @ t=0.92
0
% es.tEz (V/m) @ t=0.92
1.5443054152963542
% V (V) @ t=0.92
0.02061909918128728
% es.normE (V/m) @ t=0.94
4.182381534313497
% es.EX (V/m) @ t=0.94
3.86506463226044
% es.EY (V/m) @ t=0.94
0.24337738666893505
% es.EZ (V/m) @ t=0.94
1.5625107891864207
% es.tEX (V/m) @ t=0.94
3.865064632260456
% es.tEY (V/m) @ t=0.94
0
% es.tEZ (V/m) @ t=0.94
1.5625107891864243
% es.Ex (V/m) @ t=0.94
3.86506463226044
% es.Ey (V/m) @ t=0.94
0.24337738666893505
% es.Ez (V/m) @ t=0.94
1.5625107891864207
% es.tEx (V/m) @ t=0.94
3.865064632260456
% es.tEy (V/m) @ t=0.94
0
% es.tEz (V/m) @ t=0.94
1.5625107891864243
% V (V) @ t=0.94
0.02086215514227322
% es.normE (V/m) @ t=0.96
4.231559329425594
% es.EX (V/m) @ t=0.96
3.910511154294177
% es.EY (V/m) @ t=0.96
0.24623960221068675
% es.EZ (V/m) @ t=0.96
1.5808836798865786
% es.tEX (V/m) @ t=0.96
3.9105111542941913
% es.tEY (V/m) @ t=0.96
0
% es.tEZ (V/m) @ t=0.96
1.58088367988658
% es.Ex (V/m) @ t=0.96
3.910511154294177
% es.Ey (V/m) @ t=0.96
0.24623960221068675
% es.Ez (V/m) @ t=0.96
1.5808836798865786
% es.tEx (V/m) @ t=0.96
3.9105111542941913
% es.tEy (V/m) @ t=0.96
0
% es.tEz (V/m) @ t=0.96
1.58088367988658
% V (V) @ t=0.96
0.021107445623000272
% es.normE (V/m) @ t=0.98
4.281185402171307
% es.EX (V/m) @ t=0.98
3.9563719253418235
% es.EY (V/m) @ t=0.98
0.24912796106776924
% es.EZ (V/m) @ t=0.98
1.5994240873968661
% es.tEX (V/m) @ t=0.98
3.9563719253418377
% es.tEY (V/m) @ t=0.98
0
% es.tEZ (V/m) @ t=0.98
1.5994240873968604
% es.Ex (V/m) @ t=0.98
3.9563719253418235
% es.Ey (V/m) @ t=0.98
0.24912796106776924
% es.Ez (V/m) @ t=0.98
1.5994240873968661
% es.tEx (V/m) @ t=0.98
3.9563719253418377
% es.tEy (V/m) @ t=0.98
0
% es.tEz (V/m) @ t=0.98
1.5994240873968604
% V (V) @ t=0.98
0.02135497062346842
% es.normE (V/m) @ t=1
4.3314397048346605
% es.EX (V/m) @ t=1
4.002813439930838
% es.EY (V/m) @ t=1
0.2520523041147229
% es.EZ (V/m) @ t=1
1.6181987682597696
% es.tEX (V/m) @ t=1
4.002813439930847
% es.tEY (V/m) @ t=1
0
% es.tEZ (V/m) @ t=1
1.6181987682597692
% es.Ex (V/m) @ t=1
4.002813439930838
% es.Ey (V/m) @ t=1
0.2520523041147229
% es.Ez (V/m) @ t=1
1.6181987682597696
% es.tEx (V/m) @ t=1
4.002813439930847
% es.tEy (V/m) @ t=1
0
% es.tEz (V/m) @ t=1
1.6181987682597692
% V (V) @ t=1
0.021605644595871498
% es.normE (V/m) @ t=1.02
4.3823555993918095
% es.EX (V/m) @ t=1.02
4.049866565057281
% es.EY (V/m) @ t=1.02
0.25501445578533266
% es.EZ (V/m) @ t=1.02
1.6372200987014724
% es.tEX (V/m) @ t=1.02
4.049866565057286
% es.tEY (V/m) @ t=1.02
0
% es.tEZ (V/m) @ t=1.02
1.637220098701473
% es.Ex (V/m) @ t=1.02
4.049866565057281
% es.Ey (V/m) @ t=1.02
0.25501445578533266
% es.Ez (V/m) @ t=1.02
1.6372200987014724
% es.tEx (V/m) @ t=1.02
4.049866565057286
% es.tEy (V/m) @ t=1.02
0
% es.tEz (V/m) @ t=1.02
1.637220098701473
% V (V) @ t=1.02
0.0218596370736631
% es.normE (V/m) @ t=1.04
4.433774420567691
% es.EX (V/m) @ t=1.04
4.097384501250563
% es.EY (V/m) @ t=1.04
0.25800573930683246
% es.EZ (V/m) @ t=1.04
1.6564292189789804
% es.tEX (V/m) @ t=1.04
4.097384501250559
% es.tEY (V/m) @ t=1.04
0
% es.tEZ (V/m) @ t=1.04
1.656429218978972
% es.Ex (V/m) @ t=1.04
4.097384501250563
% es.Ey (V/m) @ t=1.04
0.25800573930683246
% es.Ez (V/m) @ t=1.04
1.6564292189789804
% es.tEx (V/m) @ t=1.04
4.097384501250559
% es.tEy (V/m) @ t=1.04
0
% es.tEz (V/m) @ t=1.04
1.656429218978972
% V (V) @ t=1.04