% Model:              1 neuron.mph
% Version:            COMSOL 6.1.0.252
% Date:               Mar 18 2023, 13:34
% Dimension:          0
% Nodes:              14017
% Expressions:        14017
% Description:        Electric field norm, Electric field, X component, Electric field, Y component, Electric field, Z component, Tangential electric field, X component, Tangential electric field, Y component, Tangential electric field, Z component, Electric field, x component, Electric field, y component, Electric field, z component, Tangential electric field, x component, Tangential electric field, y component, Tangential electric field, z component, Electric potential
% Length unit:        mm
% x
1.33
% y
12.2
% z
1
% es.normE (V/m) @ t=0
4.480750153238647
% es.EX (V/m) @ t=0
1.3830417229617695
% es.EY (V/m) @ t=0
0.3350617479707447
% es.EZ (V/m) @ t=0
4.248739851122005
% es.tEX (V/m) @ t=0
1.3830417229617495
% es.tEY (V/m) @ t=0
0
% es.tEZ (V/m) @ t=0
4.248739851122039
% es.Ex (V/m) @ t=0
1.3830417229617695
% es.Ey (V/m) @ t=0
0.3350617479707447
% es.Ez (V/m) @ t=0
4.248739851122005
% es.tEx (V/m) @ t=0
1.3830417229617495
% es.tEy (V/m) @ t=0
0
% es.tEz (V/m) @ t=0
4.248739851122039
% V (V) @ t=0
0.02095657065718913
% es.normE (V/m) @ t=0.02
4.112983769626152
% es.EX (V/m) @ t=0.02
1.2695259598536035
% es.EY (V/m) @ t=0.02
0.30756092218014475
% es.EZ (V/m) @ t=0.02
3.9000161326751623
% es.tEX (V/m) @ t=0.02
1.2695259598536097
% es.tEY (V/m) @ t=0.02
0
% es.tEZ (V/m) @ t=0.02
3.9000161326751766
% es.Ex (V/m) @ t=0.02
1.2695259598536035
% es.Ey (V/m) @ t=0.02
0.30756092218014475
% es.Ez (V/m) @ t=0.02
3.9000161326751623
% es.tEx (V/m) @ t=0.02
1.2695259598536097
% es.tEy (V/m) @ t=0.02
0
% es.tEz (V/m) @ t=0.02
3.9000161326751766
% V (V) @ t=0.02
0.01923651837459609
% es.normE (V/m) @ t=0.04
4.167343939483206
% es.EX (V/m) @ t=0.04
1.2863049404283629
% es.EY (V/m) @ t=0.04
0.3116258721097871
% es.EZ (V/m) @ t=0.04
3.9515615657506267
% es.tEX (V/m) @ t=0.04
1.28630494042838
% es.tEY (V/m) @ t=0.04
0
% es.tEZ (V/m) @ t=0.04
3.9515615657506586
% es.Ex (V/m) @ t=0.04
1.2863049404283629
% es.Ey (V/m) @ t=0.04
0.3116258721097871
% es.Ez (V/m) @ t=0.04
3.9515615657506267
% es.tEx (V/m) @ t=0.04
1.28630494042838
% es.tEy (V/m) @ t=0.04
0
% es.tEz (V/m) @ t=0.04
3.9515615657506586
% V (V) @ t=0.04
0.01949076204240412
% es.normE (V/m) @ t=0.06
4.22280232730094
% es.EX (V/m) @ t=0.06
1.303422900855789
% es.EY (V/m) @ t=0.06
0.315772943361748
% es.EZ (V/m) @ t=0.06
4.00414835167899
% es.tEX (V/m) @ t=0.06
1.303422900855793
% es.tEY (V/m) @ t=0.06
0
% es.tEZ (V/m) @ t=0.06
4.004148351678989
% es.Ex (V/m) @ t=0.06
1.303422900855789
% es.Ey (V/m) @ t=0.06
0.315772943361748
% es.Ez (V/m) @ t=0.06
4.00414835167899
% es.tEx (V/m) @ t=0.06
1.303422900855793
% es.tEy (V/m) @ t=0.06
0
% es.tEz (V/m) @ t=0.06
4.004148351678989
% V (V) @ t=0.06
0.019750142221956243
% es.normE (V/m) @ t=0.08
4.278431442257682
% es.EX (V/m) @ t=0.08
1.320593558531534
% es.EY (V/m) @ t=0.08
0.31993278102998013
% es.EZ (V/m) @ t=0.08
4.0568970245921285
% es.tEX (V/m) @ t=0.08
1.3205935585315274
% es.tEY (V/m) @ t=0.08
0
% es.tEZ (V/m) @ t=0.08
4.056897024592164
% es.Ex (V/m) @ t=0.08
1.320593558531534
% es.Ey (V/m) @ t=0.08
0.31993278102998013
% es.Ez (V/m) @ t=0.08
4.0568970245921285
% es.tEx (V/m) @ t=0.08
1.3205935585315274
% es.tEy (V/m) @ t=0.08
0
% es.tEz (V/m) @ t=0.08
4.056897024592164
% V (V) @ t=0.08
0.020010320917429297
% es.normE (V/m) @ t=0.1
4.335885340342248
% es.EX (V/m) @ t=0.1
1.3383274583820743
% es.EY (V/m) @ t=0.1
0.3242290764372817
% es.EZ (V/m) @ t=0.1
4.111375994521674
% es.tEX (V/m) @ t=0.1
1.3383274583820821
% es.tEY (V/m) @ t=0.1
0
% es.tEZ (V/m) @ t=0.1
4.111375994521708
% es.Ex (V/m) @ t=0.1
1.3383274583820743
% es.Ey (V/m) @ t=0.1
0.3242290764372817
% es.Ez (V/m) @ t=0.1
4.111375994521674
% es.tEx (V/m) @ t=0.1
1.3383274583820821
% es.tEy (V/m) @ t=0.1
0
% es.tEz (V/m) @ t=0.1
4.111375994521708
% V (V) @ t=0.1
0.020279033806751605
% es.normE (V/m) @ t=0.12
4.39402608264608
% es.EX (V/m) @ t=0.12
1.3562733613062465
% es.EY (V/m) @ t=0.12
0.3285767342273094
% es.EZ (V/m) @ t=0.12
4.166506244313028
% es.tEX (V/m) @ t=0.12
1.3562733613062505
% es.tEY (V/m) @ t=0.12
0
% es.tEZ (V/m) @ t=0.12
4.16650624431302
% es.Ex (V/m) @ t=0.12
1.3562733613062465
% es.Ey (V/m) @ t=0.12
0.3285767342273094
% es.Ez (V/m) @ t=0.12
4.166506244313028
% es.tEx (V/m) @ t=0.12
1.3562733613062505
% es.tEy (V/m) @ t=0.12
0
% es.tEz (V/m) @ t=0.12
4.16650624431302
% V (V) @ t=0.12
0.020550958947229067
% es.normE (V/m) @ t=0.14
4.452166824949844
% es.EX (V/m) @ t=0.14
1.3742192642304025
% es.EY (V/m) @ t=0.14
0.3329243920173697
% es.EZ (V/m) @ t=0.14
4.2216364941043105
% es.tEX (V/m) @ t=0.14
1.3742192642304047
% es.tEY (V/m) @ t=0.14
0
% es.tEZ (V/m) @ t=0.14
4.22163649410431
% es.Ex (V/m) @ t=0.14
1.3742192642304025
% es.Ey (V/m) @ t=0.14
0.3329243920173697
% es.Ez (V/m) @ t=0.14
4.2216364941043105
% es.tEx (V/m) @ t=0.14
1.3742192642304047
% es.tEy (V/m) @ t=0.14
0
% es.tEz (V/m) @ t=0.14
4.22163649410431
% V (V) @ t=0.14
0.020822884087706533
% es.normE (V/m) @ t=0.16
4.510307567253628
% es.EX (V/m) @ t=0.16
1.392165167154553
% es.EY (V/m) @ t=0.16
0.33727204980737246
% es.EZ (V/m) @ t=0.16
4.276766743895621
% es.tEX (V/m) @ t=0.16
1.3921651671545447
% es.tEY (V/m) @ t=0.16
0
% es.tEZ (V/m) @ t=0.16
4.276766743895603
% es.Ex (V/m) @ t=0.16
1.392165167154553
% es.Ey (V/m) @ t=0.16
0.33727204980737246
% es.Ez (V/m) @ t=0.16
4.276766743895621
% es.tEx (V/m) @ t=0.16
1.3921651671545447
% es.tEy (V/m) @ t=0.16
0
% es.tEz (V/m) @ t=0.16
4.276766743895603
% V (V) @ t=0.16
0.02109480922818399
% es.normE (V/m) @ t=0.18
4.570838703230924
% es.EX (V/m) @ t=0.18
1.410848973643872
% es.EY (V/m) @ t=0.18
0.341798226402934
% es.EZ (V/m) @ t=0.18
4.334163606916046
% es.tEX (V/m) @ t=0.18
1.4108489736438798
% es.tEY (V/m) @ t=0.18
0
% es.tEZ (V/m) @ t=0.18
4.3341636069160465
% es.Ex (V/m) @ t=0.18
1.410848973643872
% es.Ey (V/m) @ t=0.18
0.341798226402934
% es.Ez (V/m) @ t=0.18
4.334163606916046
% es.tEx (V/m) @ t=0.18
1.4108489736438798
% es.tEy (V/m) @ t=0.18
0
% es.tEz (V/m) @ t=0.18
4.3341636069160465
% V (V) @ t=0.18
0.021377935919804227
% es.normE (V/m) @ t=0.2
4.63419547231117
% es.EX (V/m) @ t=0.2
1.4304050401142945
% es.EY (V/m) @ t=0.2
0.346535426250449
% es.EZ (V/m) @ t=0.2
4.394239784830342
% es.tEX (V/m) @ t=0.2
1.4304050401143087
% es.tEY (V/m) @ t=0.2
0
% es.tEZ (V/m) @ t=0.2
4.394239784830358
% es.Ex (V/m) @ t=0.2
1.4304050401142945
% es.Ey (V/m) @ t=0.2
0.346535426250449
% es.Ez (V/m) @ t=0.2
4.394239784830342
% es.tEx (V/m) @ t=0.2
1.4304050401143087
% es.tEy (V/m) @ t=0.2
0
% es.tEz (V/m) @ t=0.2
4.394239784830358
% V (V) @ t=0.2
0.02167430372482935
% es.normE (V/m) @ t=0.22
4.697552241391493
% es.EX (V/m) @ t=0.22
1.4499611065847284
% es.EY (V/m) @ t=0.22
0.3512726260979744
% es.EZ (V/m) @ t=0.22
4.454315962744648
% es.tEX (V/m) @ t=0.22
1.4499611065847375
% es.tEY (V/m) @ t=0.22
0
% es.tEZ (V/m) @ t=0.22
4.4543159627446975
% es.Ex (V/m) @ t=0.22
1.4499611065847284
% es.Ey (V/m) @ t=0.22
0.3512726260979744
% es.Ez (V/m) @ t=0.22
4.454315962744648
% es.tEx (V/m) @ t=0.22
1.4499611065847375
% es.tEy (V/m) @ t=0.22
0
% es.tEz (V/m) @ t=0.22
4.4543159627446975
% V (V) @ t=0.22
0.021970671529854477
% es.normE (V/m) @ t=0.24
4.760909010471897
% es.EX (V/m) @ t=0.24
1.4695171730551226
% es.EY (V/m) @ t=0.24
0.3560098259454645
% es.EZ (V/m) @ t=0.24
4.514392140658987
% es.tEX (V/m) @ t=0.24
1.469517173055138
% es.tEY (V/m) @ t=0.24
0
% es.tEZ (V/m) @ t=0.24
4.514392140659005
% es.Ex (V/m) @ t=0.24
1.4695171730551226
% es.Ey (V/m) @ t=0.24
0.3560098259454645
% es.Ez (V/m) @ t=0.24
4.514392140658987
% es.tEx (V/m) @ t=0.24
1.469517173055138
% es.tEy (V/m) @ t=0.24
0
% es.tEz (V/m) @ t=0.24
4.514392140659005
% V (V) @ t=0.24
0.0222670393348796
% es.normE (V/m) @ t=0.26
4.824265779552398
% es.EX (V/m) @ t=0.26
1.4890732395255757
% es.EY (V/m) @ t=0.26
0.3607470257930352
% es.EZ (V/m) @ t=0.26
4.574468318573341
% es.tEX (V/m) @ t=0.26
1.4890732395255952
% es.tEY (V/m) @ t=0.26
0
% es.tEZ (V/m) @ t=0.26
4.574468318573345
% es.Ex (V/m) @ t=0.26
1.4890732395255757
% es.Ey (V/m) @ t=0.26
0.3607470257930352
% es.Ez (V/m) @ t=0.26
4.574468318573341
% es.tEx (V/m) @ t=0.26
1.4890732395255952
% es.tEy (V/m) @ t=0.26
0
% es.tEz (V/m) @ t=0.26
4.574468318573345
% V (V) @ t=0.26
0.02256340713990472
% es.normE (V/m) @ t=0.28
4.887622548632866
% es.EX (V/m) @ t=0.28
1.5086293059959843
% es.EY (V/m) @ t=0.28
0.36548422564054284
% es.EZ (V/m) @ t=0.28
4.634544496487616
% es.tEX (V/m) @ t=0.28
1.5086293059959814
% es.tEY (V/m) @ t=0.28
0
% es.tEZ (V/m) @ t=0.28
4.634544496487656
% es.Ex (V/m) @ t=0.28
1.5086293059959843
% es.Ey (V/m) @ t=0.28
0.36548422564054284
% es.Ez (V/m) @ t=0.28
4.634544496487616
% es.tEx (V/m) @ t=0.28
1.5086293059959814
% es.tEy (V/m) @ t=0.28
0
% es.tEz (V/m) @ t=0.28
4.634544496487656
% V (V) @ t=0.28
0.022859774944929846
% es.normE (V/m) @ t=0.3
4.9509793177134735
% es.EX (V/m) @ t=0.3
1.5281853724664356
% es.EY (V/m) @ t=0.3
0.3702214254880889
% es.EZ (V/m) @ t=0.3
4.694620674401965
% es.tEX (V/m) @ t=0.3
1.5281853724664245
% es.tEY (V/m) @ t=0.3
0
% es.tEZ (V/m) @ t=0.3
4.694620674401996
% es.Ex (V/m) @ t=0.3
1.5281853724664356
% es.Ey (V/m) @ t=0.3
0.3702214254880889
% es.Ez (V/m) @ t=0.3
4.694620674401965
% es.tEx (V/m) @ t=0.3
1.5281853724664245
% es.tEy (V/m) @ t=0.3
0
% es.tEz (V/m) @ t=0.3
4.694620674401996
% V (V) @ t=0.3
0.023156142749954967
% es.normE (V/m) @ t=0.32
5.0143360867940885
% es.EX (V/m) @ t=0.32
1.5477414389368445
% es.EY (V/m) @ t=0.32
0.37495862533556035
% es.EZ (V/m) @ t=0.32
4.754696852316283
% es.tEX (V/m) @ t=0.32
1.5477414389368391
% es.tEY (V/m) @ t=0.32
0
% es.tEZ (V/m) @ t=0.32
4.754696852316329
% es.Ex (V/m) @ t=0.32
1.5477414389368445
% es.Ey (V/m) @ t=0.32
0.37495862533556035
% es.Ez (V/m) @ t=0.32
4.754696852316283
% es.tEx (V/m) @ t=0.32
1.5477414389368391
% es.tEy (V/m) @ t=0.32
0
% es.tEz (V/m) @ t=0.32
4.754696852316329
% V (V) @ t=0.32
0.023452510554980092
% es.normE (V/m) @ t=0.34
5.077692855874768
% es.EX (V/m) @ t=0.34
1.5672975054072673
% es.EY (V/m) @ t=0.34
0.3796958251830904
% es.EZ (V/m) @ t=0.34
4.814773030230606
% es.tEX (V/m) @ t=0.34
1.567297505407268
% es.tEY (V/m) @ t=0.34
0
% es.tEZ (V/m) @ t=0.34
4.81477303023064
% es.Ex (V/m) @ t=0.34
1.5672975054072673
% es.Ey (V/m) @ t=0.34
0.3796958251830904
% es.Ez (V/m) @ t=0.34
4.814773030230606
% es.tEx (V/m) @ t=0.34
1.567297505407268
% es.tEy (V/m) @ t=0.34
0
% es.tEz (V/m) @ t=0.34
4.81477303023064
% V (V) @ t=0.34
0.02374887836000521
% es.normE (V/m) @ t=0.36
5.145797477402994
% es.EX (V/m) @ t=0.36
1.5883186652243992
% es.EY (V/m) @ t=0.36
0.38478923856995295
% es.EZ (V/m) @ t=0.36
4.879351256679353
% es.tEX (V/m) @ t=0.36
1.5883186652244063
% es.tEY (V/m) @ t=0.36
0
% es.tEZ (V/m) @ t=0.36
4.87935125667936
% es.Ex (V/m) @ t=0.36
1.5883186652243992
% es.Ey (V/m) @ t=0.36
0.38478923856995295
% es.Ez (V/m) @ t=0.36
4.879351256679353
% es.tEx (V/m) @ t=0.36
1.5883186652244063
% es.tEy (V/m) @ t=0.36
0
% es.tEz (V/m) @ t=0.36
4.87935125667936
% V (V) @ t=0.36
0.024067341280896538
% es.normE (V/m) @ t=0.38
5.2143050596153016
% es.EX (V/m) @ t=0.38
1.6094641707375024
% es.EY (V/m) @ t=0.38
0.38991288458368834
% es.EZ (V/m) @ t=0.38
4.944311581893074
% es.tEX (V/m) @ t=0.38
1.6094641707374961
% es.tEY (V/m) @ t=0.38
0
% es.tEZ (V/m) @ t=0.38
4.944311581893068
% es.Ex (V/m) @ t=0.38
1.6094641707375024
% es.Ey (V/m) @ t=0.38
0.38991288458368834
% es.Ez (V/m) @ t=0.38
4.944311581893074
% es.tEx (V/m) @ t=0.38
1.6094641707374961
% es.tEy (V/m) @ t=0.38
0
% es.tEz (V/m) @ t=0.38
4.944311581893068
% V (V) @ t=0.38
0.024387679462887474
% es.normE (V/m) @ t=0.4
5.2828126418277845
% es.EX (V/m) @ t=0.4
1.6306096762506375
% es.EY (V/m) @ t=0.4
0.3950365305973478
% es.EZ (V/m) @ t=0.4
5.009271907106805
% es.tEX (V/m) @ t=0.4
1.6306096762506286
% es.tEY (V/m) @ t=0.4
0
% es.tEZ (V/m) @ t=0.4
5.009271907106832
% es.Ex (V/m) @ t=0.4
1.6306096762506375
% es.Ey (V/m) @ t=0.4
0.3950365305973478
% es.Ez (V/m) @ t=0.4
5.009271907106805
% es.tEx (V/m) @ t=0.4
1.6306096762506286
% es.tEy (V/m) @ t=0.4
0
% es.tEz (V/m) @ t=0.4
5.009271907106832
% V (V) @ t=0.4
0.02470801764487841
% es.normE (V/m) @ t=0.42
5.351320224040425
% es.EX (V/m) @ t=0.42
1.6517551817637615
% es.EY (V/m) @ t=0.42
0.40016017661106296
% es.EZ (V/m) @ t=0.42
5.0742322323205356
% es.tEX (V/m) @ t=0.42
1.6517551817637752
% es.tEY (V/m) @ t=0.42
0
% es.tEZ (V/m) @ t=0.42
5.07423223232054
% es.Ex (V/m) @ t=0.42
1.6517551817637615
% es.Ey (V/m) @ t=0.42
0.40016017661106296
% es.Ez (V/m) @ t=0.42
5.0742322323205356
% es.tEx (V/m) @ t=0.42
1.6517551817637752
% es.tEy (V/m) @ t=0.42
0
% es.tEz (V/m) @ t=0.42
5.07423223232054
% V (V) @ t=0.42
0.025028355826869346
% es.normE (V/m) @ t=0.44
5.419827806253241
% es.EX (V/m) @ t=0.44
1.6729006872768966
% es.EY (V/m) @ t=0.44
0.4052838226248068
% es.EZ (V/m) @ t=0.44
5.1391925575342885
% es.tEX (V/m) @ t=0.44
1.6729006872769077
% es.tEY (V/m) @ t=0.44
0
% es.tEZ (V/m) @ t=0.44
5.13919255753428
% es.Ex (V/m) @ t=0.44
1.6729006872768966
% es.Ey (V/m) @ t=0.44
0.4052838226248068
% es.Ez (V/m) @ t=0.44
5.1391925575342885
% es.tEx (V/m) @ t=0.44
1.6729006872769077
% es.tEy (V/m) @ t=0.44
0
% es.tEz (V/m) @ t=0.44
5.13919255753428
% V (V) @ t=0.44
0.025348694008860282
% es.normE (V/m) @ t=0.46
5.488335388466165
% es.EX (V/m) @ t=0.46
1.6940461927900339
% es.EY (V/m) @ t=0.46
0.41040746863851685
% es.EZ (V/m) @ t=0.46
5.204152882748005
% es.tEX (V/m) @ t=0.46
1.6940461927900259
% es.tEY (V/m) @ t=0.46
0
% es.tEZ (V/m) @ t=0.46
5.204152882748016
% es.Ex (V/m) @ t=0.46
1.6940461927900339
% es.Ey (V/m) @ t=0.46
0.41040746863851685
% es.Ez (V/m) @ t=0.46
5.204152882748005
% es.tEx (V/m) @ t=0.46
1.6940461927900259
% es.tEy (V/m) @ t=0.46
0
% es.tEz (V/m) @ t=0.46
5.204152882748016
% V (V) @ t=0.46
0.025669032190851218
% es.normE (V/m) @ t=0.48
5.55684297067927
% es.EX (V/m) @ t=0.48
1.715191698303152
% es.EY (V/m) @ t=0.48
0.41553111465226067
% es.EZ (V/m) @ t=0.48
5.269113207961768
% es.tEX (V/m) @ t=0.48
1.715191698303144
% es.tEY (V/m) @ t=0.48
0
% es.tEZ (V/m) @ t=0.48
5.26911320796178
% es.Ex (V/m) @ t=0.48
1.715191698303152
% es.Ey (V/m) @ t=0.48
0.41553111465226067
% es.Ez (V/m) @ t=0.48
5.269113207961768
% es.tEx (V/m) @ t=0.48
1.715191698303144
% es.tEy (V/m) @ t=0.48
0
% es.tEz (V/m) @ t=0.48
5.26911320796178
% V (V) @ t=0.48
0.025989370372842154
% es.normE (V/m) @ t=0.5
5.625350552892455
% es.EX (V/m) @ t=0.5
1.7363372038162805
% es.EY (V/m) @ t=0.5
0.42065476066596874
% es.EZ (V/m) @ t=0.5
5.334073533175472
% es.tEX (V/m) @ t=0.5
1.7363372038162765
% es.tEY (V/m) @ t=0.5
0
% es.tEZ (V/m) @ t=0.5
5.334073533175456
% es.Ex (V/m) @ t=0.5
1.7363372038162805
% es.Ey (V/m) @ t=0.5
0.42065476066596874
% es.Ez (V/m) @ t=0.5
5.334073533175472
% es.tEx (V/m) @ t=0.5
1.7363372038162765
% es.tEy (V/m) @ t=0.5
0
% es.tEz (V/m) @ t=0.5
5.334073533175456
% V (V) @ t=0.5
0.02630970855483309
% es.normE (V/m) @ t=0.52
5.6957505582369645
% es.EX (V/m) @ t=0.52
1.7580670182214657
% es.EY (V/m) @ t=0.52
0.4259193575800011
% es.EZ (V/m) @ t=0.52
5.400828275301318
% es.tEX (V/m) @ t=0.52
1.7580670182214675
% es.tEY (V/m) @ t=0.52
0
% es.tEZ (V/m) @ t=0.52
5.400828275301336
% es.Ex (V/m) @ t=0.52
1.7580670182214657
% es.Ey (V/m) @ t=0.52
0.4259193575800011
% es.Ez (V/m) @ t=0.52
5.400828275301318
% es.tEx (V/m) @ t=0.52
1.7580670182214675
% es.tEy (V/m) @ t=0.52
0
% es.tEz (V/m) @ t=0.52
5.400828275301336
% V (V) @ t=0.52
0.026638950348328437
% es.normE (V/m) @ t=0.54
5.769170252909534
% es.EX (V/m) @ t=0.54
1.7807291988065868
% es.EY (V/m) @ t=0.54
0.4314088661020148
% es.EZ (V/m) @ t=0.54
5.470446320834382
% es.tEX (V/m) @ t=0.54
1.7807291988065828
% es.tEY (V/m) @ t=0.54
0
% es.tEZ (V/m) @ t=0.54
5.470446320834391
% es.Ex (V/m) @ t=0.54
1.7807291988065868
% es.Ey (V/m) @ t=0.54
0.4314088661020148
% es.Ez (V/m) @ t=0.54
5.470446320834382
% es.tEx (V/m) @ t=0.54
1.7807291988065828
% es.tEy (V/m) @ t=0.54
0
% es.tEz (V/m) @ t=0.54
5.470446320834391
% V (V) @ t=0.54
0.026982399398223035
% es.normE (V/m) @ t=0.56
5.842589947582178
% es.EX (V/m) @ t=0.56
1.8033913793917145
% es.EY (V/m) @ t=0.56
0.4368983746241204
% es.EZ (V/m) @ t=0.56
5.540064366367403
% es.tEX (V/m) @ t=0.56
1.8033913793917407
% es.tEY (V/m) @ t=0.56
0
% es.tEZ (V/m) @ t=0.56
5.540064366367467
% es.Ex (V/m) @ t=0.56
1.8033913793917145
% es.Ey (V/m) @ t=0.56
0.4368983746241204
% es.Ez (V/m) @ t=0.56
5.540064366367403
% es.tEx (V/m) @ t=0.56
1.8033913793917407
% es.tEy (V/m) @ t=0.56
0
% es.tEz (V/m) @ t=0.56
5.540064366367467
% V (V) @ t=0.56
0.02732584844811764
% es.normE (V/m) @ t=0.58
5.916009642255023
% es.EX (V/m) @ t=0.58
1.8260535599768244
% es.EY (V/m) @ t=0.58
0.4423878831461394
% es.EZ (V/m) @ t=0.58
5.60968241190054
% es.tEX (V/m) @ t=0.58
1.8260535599768275
% es.tEY (V/m) @ t=0.58
0
% es.tEZ (V/m) @ t=0.58
5.609682411900515
% es.Ex (V/m) @ t=0.58
1.8260535599768244
% es.Ey (V/m) @ t=0.58
0.4423878831461394
% es.Ez (V/m) @ t=0.58
5.60968241190054
% es.tEx (V/m) @ t=0.58
1.8260535599768275
% es.tEy (V/m) @ t=0.58
0
% es.tEz (V/m) @ t=0.58
5.609682411900515
% V (V) @ t=0.58
0.027669297498012245
% es.normE (V/m) @ t=0.6
5.9894293369279055
% es.EX (V/m) @ t=0.6
1.8487157405619579
% es.EY (V/m) @ t=0.6
0.44787739166814466
% es.EZ (V/m) @ t=0.6
5.679300457433605
% es.tEX (V/m) @ t=0.6
1.8487157405619712
% es.tEY (V/m) @ t=0.6
0
% es.tEZ (V/m) @ t=0.6
5.679300457433591
% es.Ex (V/m) @ t=0.6
1.8487157405619579
% es.Ey (V/m) @ t=0.6
0.44787739166814466
% es.Ez (V/m) @ t=0.6
5.679300457433605
% es.tEx (V/m) @ t=0.6
1.8487157405619712
% es.tEy (V/m) @ t=0.6
0
% es.tEz (V/m) @ t=0.6
5.679300457433591
% V (V) @ t=0.6
0.028012746547906843
% es.normE (V/m) @ t=0.62
6.0628490316008845
% es.EX (V/m) @ t=0.62
1.8713779211470896
% es.EY (V/m) @ t=0.62
0.45336690019022896
% es.EZ (V/m) @ t=0.62
5.748918502966667
% es.tEX (V/m) @ t=0.62
1.8713779211470865
% es.tEY (V/m) @ t=0.62
0
% es.tEZ (V/m) @ t=0.62
5.748918502966667
% es.Ex (V/m) @ t=0.62
1.8713779211470896
% es.Ey (V/m) @ t=0.62
0.45336690019022896
% es.Ez (V/m) @ t=0.62
5.748918502966667
% es.tEx (V/m) @ t=0.62
1.8713779211470865
% es.tEy (V/m) @ t=0.62
0
% es.tEz (V/m) @ t=0.62
5.748918502966667
% V (V) @ t=0.62
0.028356195597801455
% es.normE (V/m) @ t=0.64
6.13626872627401
% es.EX (V/m) @ t=0.64
1.894040101732227
% es.EY (V/m) @ t=0.64
0.45885640871228484
% es.EZ (V/m) @ t=0.64
5.818536548499788
% es.tEX (V/m) @ t=0.64
1.8940401017322017
% es.tEY (V/m) @ t=0.64
0
% es.tEZ (V/m) @ t=0.64
5.818536548499772
% es.Ex (V/m) @ t=0.64
1.894040101732227
% es.Ey (V/m) @ t=0.64
0.45885640871228484
% es.Ez (V/m) @ t=0.64
5.818536548499788
% es.tEx (V/m) @ t=0.64
1.8940401017322017
% es.tEy (V/m) @ t=0.64
0
% es.tEz (V/m) @ t=0.64
5.818536548499772
% V (V) @ t=0.64
0.02869964464769605
% es.normE (V/m) @ t=0.66
6.209688420947133
% es.EX (V/m) @ t=0.66
1.9167022823173334
% es.EY (V/m) @ t=0.66
0.46434591723433183
% es.EZ (V/m) @ t=0.66
5.888154594032823
% es.tEX (V/m) @ t=0.66
1.9167022823173454
% es.tEY (V/m) @ t=0.66
0
% es.tEZ (V/m) @ t=0.66
5.888154594032827
% es.Ex (V/m) @ t=0.66
1.9167022823173334
% es.Ey (V/m) @ t=0.66
0.46434591723433183
% es.Ez (V/m) @ t=0.66
5.888154594032823
% es.tEx (V/m) @ t=0.66
1.9167022823173454
% es.tEy (V/m) @ t=0.66
0
% es.tEz (V/m) @ t=0.66
5.888154594032827
% V (V) @ t=0.66
0.029043093697590658
% es.normE (V/m) @ t=0.68
6.28310811562039
% es.EX (V/m) @ t=0.68
1.9393644629024664
% es.EY (V/m) @ t=0.68
0.46983542575636017
% es.EZ (V/m) @ t=0.68
5.957772639565903
% es.tEX (V/m) @ t=0.68
1.939364462902489
% es.tEY (V/m) @ t=0.68
0
% es.tEZ (V/m) @ t=0.68
5.957772639565903
% es.Ex (V/m) @ t=0.68
1.9393644629024664
% es.Ey (V/m) @ t=0.68
0.46983542575636017
% es.Ez (V/m) @ t=0.68
5.957772639565903
% es.tEx (V/m) @ t=0.68
1.939364462902489
% es.tEy (V/m) @ t=0.68
0
% es.tEz (V/m) @ t=0.68
5.957772639565903
% V (V) @ t=0.68
0.029386542747485263
% es.normE (V/m) @ t=0.7
6.357870401010537
% es.EX (V/m) @ t=0.7
1.9624409698029797
% es.EY (V/m) @ t=0.7
0.47542557516920114
% es.EZ (V/m) @ t=0.7
6.028663765041081
% es.tEX (V/m) @ t=0.7
1.9624409698029979
% es.tEY (V/m) @ t=0.7
0
% es.tEZ (V/m) @ t=0.7
6.028663765041117
% es.Ex (V/m) @ t=0.7
1.9624409698029797
% es.Ey (V/m) @ t=0.7
0.47542557516920114
% es.Ez (V/m) @ t=0.7
6.028663765041081
% es.tEx (V/m) @ t=0.7
1.9624409698029979
% es.tEy (V/m) @ t=0.7
0
% es.tEz (V/m) @ t=0.7
6.028663765041117
% V (V) @ t=0.7
0.029736248139951058
% es.normE (V/m) @ t=0.72
6.4331835488063005
% es.EX (V/m) @ t=0.72
1.985687473998961
% es.EY (V/m) @ t=0.72
0.48105701734709294
% es.EZ (V/m) @ t=0.72
6.100077232783827
% es.tEX (V/m) @ t=0.72
1.9856874739989792
% es.tEY (V/m) @ t=0.72
0
% es.tEZ (V/m) @ t=0.72
6.100077232783839
% es.Ex (V/m) @ t=0.72
1.985687473998961
% es.Ey (V/m) @ t=0.72
0.48105701734709294
% es.Ez (V/m) @ t=0.72
6.100077232783827
% es.tEx (V/m) @ t=0.72
1.9856874739989792
% es.tEy (V/m) @ t=0.72
0
% es.tEz (V/m) @ t=0.72
6.100077232783839
% V (V) @ t=0.72
0.030088520497818665
% es.normE (V/m) @ t=0.74
6.508833789856029
% es.EX (V/m) @ t=0.74
2.0090380058812625
% es.EY (V/m) @ t=0.74
0.4867137281082492
% es.EZ (V/m) @ t=0.74
6.171810341244198
% es.tEX (V/m) @ t=0.74
2.00903800588128
% es.tEY (V/m) @ t=0.74
0
% es.tEZ (V/m) @ t=0.74
6.171810341244203
% es.Ex (V/m) @ t=0.74
2.0090380058812625
% es.Ey (V/m) @ t=0.74
0.4867137281082492
% es.Ez (V/m) @ t=0.74
6.171810341244198
% es.tEx (V/m) @ t=0.74
2.00903800588128
% es.tEy (V/m) @ t=0.74
0
% es.tEz (V/m) @ t=0.74
6.171810341244203
% V (V) @ t=0.74
0.030442363677567582
% es.normE (V/m) @ t=0.76
6.584821124159829
% es.EX (V/m) @ t=0.76
2.0324925654497634
% es.EY (V/m) @ t=0.76
0.4923957074527503
% es.EZ (V/m) @ t=0.76
6.2438630904223515
% es.tEX (V/m) @ t=0.76
2.0324925654497576
% es.tEY (V/m) @ t=0.76
0
% es.tEZ (V/m) @ t=0.76
6.243863090422366
% es.Ex (V/m) @ t=0.76
2.0324925654497634
% es.Ey (V/m) @ t=0.76
0.4923957074527503
% es.Ez (V/m) @ t=0.76
6.2438630904223515
% es.tEx (V/m) @ t=0.76
2.0324925654497576
% es.tEy (V/m) @ t=0.76
0
% es.tEz (V/m) @ t=0.76
6.243863090422366
% V (V) @ t=0.76
0.03079777767919782
% es.normE (V/m) @ t=0.78
6.661145551717635
% es.EX (V/m) @ t=0.78
2.0560511527045775
% es.EY (V/m) @ t=0.78
0.4981029553806233
% es.EZ (V/m) @ t=0.78
6.316235480318182
% es.tEX (V/m) @ t=0.78
2.0560511527045833
% es.tEY (V/m) @ t=0.78
0
% es.tEZ (V/m) @ t=0.78
6.316235480318198
% es.Ex (V/m) @ t=0.78
2.0560511527045775
% es.Ey (V/m) @ t=0.78
0.4981029553806233
% es.Ez (V/m) @ t=0.78
6.316235480318182
% es.tEx (V/m) @ t=0.78
2.0560511527045833
% es.tEy (V/m) @ t=0.78
0
% es.tEz (V/m) @ t=0.78
6.316235480318198
% V (V) @ t=0.78
0.031154762502709363
% es.normE (V/m) @ t=0.8
6.737807072529423
% es.EX (V/m) @ t=0.8
2.0797137676456394
% es.EY (V/m) @ t=0.8
0.5038354718916884
% es.EZ (V/m) @ t=0.8
6.388927510931705
% es.tEX (V/m) @ t=0.8
2.0797137676456714
% es.tEY (V/m) @ t=0.8
0
% es.tEZ (V/m) @ t=0.8
6.3889275109317225
% es.Ex (V/m) @ t=0.8
2.0797137676456394
% es.Ey (V/m) @ t=0.8
0.5038354718916884
% es.Ez (V/m) @ t=0.8
6.388927510931705
% es.tEx (V/m) @ t=0.8
2.0797137676456714
% es.tEy (V/m) @ t=0.8
0
% es.tEz (V/m) @ t=0.8
6.3889275109317225
% V (V) @ t=0.8
0.03151331814810222
% es.normE (V/m) @ t=0.82
6.814805686595296
% es.EX (V/m) @ t=0.82
2.103480410272978
% es.EY (V/m) @ t=0.82
0.5095932569859674
% es.EZ (V/m) @ t=0.82
6.46193918226302
% es.tEX (V/m) @ t=0.82
2.103480410272965
% es.tEY (V/m) @ t=0.82
0
% es.tEZ (V/m) @ t=0.82
6.461939182263052
% es.Ex (V/m) @ t=0.82
2.103480410272978
% es.Ey (V/m) @ t=0.82
0.5095932569859674
% es.Ez (V/m) @ t=0.82
6.46193918226302
% es.tEx (V/m) @ t=0.82
2.103480410272965
% es.tEy (V/m) @ t=0.82
0
% es.tEz (V/m) @ t=0.82
6.461939182263052
% V (V) @ t=0.82
0.031873444615376396
% es.normE (V/m) @ t=0.84
6.892141393915171
% es.EX (V/m) @ t=0.84
2.1273510805866427
% es.EY (V/m) @ t=0.84
0.5153763106636053
% es.EZ (V/m) @ t=0.84
6.535270494312009
% es.tEX (V/m) @ t=0.84
2.127351080586635
% es.tEY (V/m) @ t=0.84
0
% es.tEZ (V/m) @ t=0.84
6.535270494312023
% es.Ex (V/m) @ t=0.84
2.1273510805866427
% es.Ey (V/m) @ t=0.84
0.5153763106636053
% es.Ez (V/m) @ t=0.84
6.535270494312009
% es.tEx (V/m) @ t=0.84
2.127351080586635
% es.tEy (V/m) @ t=0.84
0
% es.tEz (V/m) @ t=0.84
6.535270494312023
% V (V) @ t=0.84
0.032235141904531875
% es.normE (V/m) @ t=0.86
6.969814194489038
% es.EX (V/m) @ t=0.86
2.151325778586499
% es.EY (V/m) @ t=0.86
0.5211846329244749
% es.EZ (V/m) @ t=0.86
6.6089214470787105
% es.tEX (V/m) @ t=0.86
2.1513257785865108
% es.tEY (V/m) @ t=0.86
0
% es.tEZ (V/m) @ t=0.86
6.608921447078735
% es.Ex (V/m) @ t=0.86
2.151325778586499
% es.Ey (V/m) @ t=0.86
0.5211846329244749
% es.Ez (V/m) @ t=0.86
6.6089214470787105
% es.tEx (V/m) @ t=0.86
2.1513257785865108
% es.tEy (V/m) @ t=0.86
0
% es.tEz (V/m) @ t=0.86
6.608921447078735
% V (V) @ t=0.86
0.03259841001556867
% es.normE (V/m) @ t=0.88
7.047824088316878
% es.EX (V/m) @ t=0.88
2.175404504272665
% es.EY (V/m) @ t=0.88
0.5270182237686734
% es.EZ (V/m) @ t=0.88
6.682892040563058
% es.tEX (V/m) @ t=0.88
2.1754045042726773
% es.tEY (V/m) @ t=0.88
0
% es.tEZ (V/m) @ t=0.88
6.682892040563104
% es.Ex (V/m) @ t=0.88
2.175404504272665
% es.Ey (V/m) @ t=0.88
0.5270182237686734
% es.Ez (V/m) @ t=0.88
6.682892040563058
% es.tEx (V/m) @ t=0.88
2.1754045042726773
% es.tEy (V/m) @ t=0.88
0
% es.tEz (V/m) @ t=0.88
6.682892040563104
% V (V) @ t=0.88
0.032963248948486776
% es.normE (V/m) @ t=0.9
7.126171075398817
% es.EX (V/m) @ t=0.9
2.1995872576451188
% es.EY (V/m) @ t=0.9
0.5328770831962468
% es.EZ (V/m) @ t=0.9
6.757182274765178
% es.tEX (V/m) @ t=0.9
2.1995872576451347
% es.tEY (V/m) @ t=0.9
0
% es.tEZ (V/m) @ t=0.9
6.757182274765178
% es.Ex (V/m) @ t=0.9
2.1995872576451188
% es.Ey (V/m) @ t=0.9
0.5328770831962468
% es.Ez (V/m) @ t=0.9
6.757182274765178
% es.tEx (V/m) @ t=0.9
2.1995872576451347
% es.tEy (V/m) @ t=0.9
0
% es.tEz (V/m) @ t=0.9
6.757182274765178
% V (V) @ t=0.9
0.03332965870328619
% es.normE (V/m) @ t=0.92
7.204855155734844
% es.EX (V/m) @ t=0.92
2.2238740387038405
% es.EY (V/m) @ t=0.92
0.53876121120694
% es.EZ (V/m) @ t=0.92
6.831792149685075
% es.tEX (V/m) @ t=0.92
2.2238740387038547
% es.tEY (V/m) @ t=0.92
0
% es.tEZ (V/m) @ t=0.92
6.831792149685057
% es.Ex (V/m) @ t=0.92
2.2238740387038405
% es.Ey (V/m) @ t=0.92
0.53876121120694
% es.Ez (V/m) @ t=0.92
6.831792149685075
% es.tEx (V/m) @ t=0.92
2.2238740387038547
% es.tEy (V/m) @ t=0.92
0
% es.tEz (V/m) @ t=0.92
6.831792149685057
% V (V) @ t=0.92
0.033697639279966926
% es.normE (V/m) @ t=0.94
7.283876329324805
% es.EX (V/m) @ t=0.94
2.2482648474488016
% es.EY (V/m) @ t=0.94
0.54467060780095
% es.EZ (V/m) @ t=0.94
6.906721665322573
% es.tEX (V/m) @ t=0.94
2.2482648474488087
% es.tEY (V/m) @ t=0.94
0
% es.tEZ (V/m) @ t=0.94
6.9067216653226
% es.Ex (V/m) @ t=0.94
2.2482648474488016
% es.Ey (V/m) @ t=0.94
0.54467060780095
% es.Ez (V/m) @ t=0.94
6.906721665322573
% es.tEx (V/m) @ t=0.94
2.2482648474488087
% es.tEy (V/m) @ t=0.94
0
% es.tEz (V/m) @ t=0.94
6.9067216653226
% V (V) @ t=0.94
0.03406719067852897
% es.normE (V/m) @ t=0.96
7.36323459616885
% es.EX (V/m) @ t=0.96
2.272759683880064
% es.EY (V/m) @ t=0.96
0.5506052729783684
% es.EZ (V/m) @ t=0.96
6.981970821677788
% es.tEX (V/m) @ t=0.96
2.2727596838800537
% es.tEY (V/m) @ t=0.96
0
% es.tEZ (V/m) @ t=0.96
6.981970821677805
% es.Ex (V/m) @ t=0.96
2.272759683880064
% es.Ey (V/m) @ t=0.96
0.5506052729783684
% es.Ez (V/m) @ t=0.96
6.981970821677788
% es.tEx (V/m) @ t=0.96
2.2727596838800537
% es.tEy (V/m) @ t=0.96
0
% es.tEz (V/m) @ t=0.96
6.981970821677805
% V (V) @ t=0.96
0.03443831289897231
% es.normE (V/m) @ t=0.98
7.442929956267092
% es.EX (V/m) @ t=0.98
2.297358547997671
% es.EY (V/m) @ t=0.98
0.5565652067390099
% es.EZ (V/m) @ t=0.98
7.057539618750827
% es.tEX (V/m) @ t=0.98
2.297358547997675
% es.tEY (V/m) @ t=0.98
0
% es.tEZ (V/m) @ t=0.98
7.057539618750845
% es.Ex (V/m) @ t=0.98
2.297358547997671
% es.Ey (V/m) @ t=0.98
0.5565652067390099
% es.Ez (V/m) @ t=0.98
7.057539618750827
% es.tEx (V/m) @ t=0.98
2.297358547997675
% es.tEy (V/m) @ t=0.98
0
% es.tEz (V/m) @ t=0.98
7.057539618750845
% V (V) @ t=0.98
0.034811005941296984
% es.normE (V/m) @ t=1
7.522962409619366
% es.EX (V/m) @ t=1
2.3220614398014665
% es.EY (V/m) @ t=1
0.5625504090828946
% es.EZ (V/m) @ t=1
7.133428056541549
% es.tEX (V/m) @ t=1
2.322061439801473
% es.tEY (V/m) @ t=1
0
% es.tEZ (V/m) @ t=1
7.133428056541554
% es.Ex (V/m) @ t=1
2.3220614398014665
% es.Ey (V/m) @ t=1
0.5625504090828946
% es.Ez (V/m) @ t=1
7.133428056541549
% es.tEx (V/m) @ t=1
2.322061439801473
% es.tEy (V/m) @ t=1
0
% es.tEz (V/m) @ t=1
7.133428056541554
% V (V) @ t=1
0.03518526980550297
% es.normE (V/m) @ t=1.02
7.60333195622561
% es.EX (V/m) @ t=1.02
2.3468683592915136
% es.EY (V/m) @ t=1.02
0.5685608800100463
% es.EZ (V/m) @ t=1.02
7.20963613504985
% es.tEX (V/m) @ t=1.02
2.3468683592915056
% es.tEY (V/m) @ t=1.02
0
% es.tEZ (V/m) @ t=1.02
7.209636135049834
% es.Ex (V/m) @ t=1.02
2.3468683592915136
% es.Ey (V/m) @ t=1.02
0.5685608800100463
% es.Ez (V/m) @ t=1.02
7.20963613504985
% es.tEx (V/m) @ t=1.02
2.3468683592915056
% es.tEy (V/m) @ t=1.02
0
% es.tEz (V/m) @ t=1.02
7.209636135049834
% V (V) @ t=1.02
0.03556110449159025
% es.normE (V/m) @ t=1.04
7.683526758910018
% es.EX (V/m) @ t=1.04
2.3716214829922766
% es.EY (V/m) @ t=1.04
0.5745578602216925
% es.EZ (V/m) @ t=1.04
7.285678504574667
% es.tEX (V/m) @ t=1.04
2.371621482992282
% es.tEY (V/m) @ t=1.04
0
% es.tEZ (V/m) @ t=1.04
7.285678504574733
% es.Ex (V/m) @ t=1.04
2.3716214829922766
% es.Ey (V/m) @ t=1.04
0.5745578602216925
% es.Ez (V/m) @ t=1.04
7.285678504574667
% es.tEx (V/m) @ t=1.04
2.371621482992282
% es.tEy (V/m) @ t=1.04
0
% es.tEz (V/m) @ t=1.04
7.285678504574733
% V (V) @ t=1.04
0.035936161708529216
% es.normE (V/m) @ t=1.06
7.763845029062378
% es.EX (V/m) @ t=1.06
2.396412763501611
% es.EY (V/m) @ t=1.06
0.5805639320252096
% es.EZ (V/m) @ t=1.06
7.361837944124135