% Model:              1 neuron.mph
% Version:            COMSOL 6.0.0.405
% Date:               Mar 16 2023, 19:59
% Dimension:          0
% Nodes:              14017
% Expressions:        14017
% Description:        Electric field norm, Electric field, X component, Electric field, Y component, Electric field, Z component, Tangential electric field, X component, Tangential electric field, Y component, Tangential electric field, Z component, Electric field, x component, Electric field, y component, Electric field, z component, Tangential electric field, x component, Tangential electric field, y component, Tangential electric field, z component, Electric potential
% Length unit:        mm
% x
1.66
% y
12.2
% z
2
% es.normE (V/m) @ t=0
2.715890507010034
% es.EX (V/m) @ t=0
-0.8102056233283086
% es.EY (V/m) @ t=0
0.06051864999785388
% es.EZ (V/m) @ t=0
-2.587157308809161
% es.tEX (V/m) @ t=0
-0.810205623328315
% es.tEY (V/m) @ t=0
0
% es.tEZ (V/m) @ t=0
-2.5871573088092
% es.Ex (V/m) @ t=0
-0.8102056233283086
% es.Ey (V/m) @ t=0
0.06051864999785388
% es.Ez (V/m) @ t=0
-2.587157308809161
% es.tEx (V/m) @ t=0
-0.810205623328315
% es.tEy (V/m) @ t=0
0
% es.tEz (V/m) @ t=0
-2.5871573088092
% V (V) @ t=0
0.013651200759457397
% es.normE (V/m) @ t=0.02
2.353608300989192
% es.EX (V/m) @ t=0.02
-0.7021294473966885
% es.EY (V/m) @ t=0.02
0.05244585327766528
% es.EZ (V/m) @ t=0.02
-2.242047275485894
% es.tEX (V/m) @ t=0.02
-0.7021294473966968
% es.tEY (V/m) @ t=0.02
0
% es.tEZ (V/m) @ t=0.02
-2.2420472754859047
% es.Ex (V/m) @ t=0.02
-0.7021294473966885
% es.Ey (V/m) @ t=0.02
0.05244585327766528
% es.Ez (V/m) @ t=0.02
-2.242047275485894
% es.tEx (V/m) @ t=0.02
-0.7021294473966968
% es.tEy (V/m) @ t=0.02
0
% es.tEz (V/m) @ t=0.02
-2.2420472754859047
% V (V) @ t=0.02
0.011830218993247125
% es.normE (V/m) @ t=0.04
2.3832727714178596
% es.EX (V/m) @ t=0.04
-0.7109789725836185
% es.EY (V/m) @ t=0.04
0.0531068709097578
% es.EZ (V/m) @ t=0.04
-2.2703056478143235
% es.tEX (V/m) @ t=0.04
-0.7109789725836286
% es.tEY (V/m) @ t=0.04
0
% es.tEZ (V/m) @ t=0.04
-2.270305647814345
% es.Ex (V/m) @ t=0.04
-0.7109789725836185
% es.Ey (V/m) @ t=0.04
0.0531068709097578
% es.Ez (V/m) @ t=0.04
-2.2703056478143235
% es.tEx (V/m) @ t=0.04
-0.7109789725836286
% es.tEy (V/m) @ t=0.04
0
% es.tEz (V/m) @ t=0.04
-2.270305647814345
% V (V) @ t=0.04
0.011979325037341606
% es.normE (V/m) @ t=0.06
2.4132110912748814
% es.EX (V/m) @ t=0.06
-0.7199101928458447
% es.EY (V/m) @ t=0.06
0.053773990946348355
% es.EZ (V/m) @ t=0.06
-2.2988248890410627
% es.tEX (V/m) @ t=0.06
-0.7199101928458589
% es.tEY (V/m) @ t=0.06
0
% es.tEZ (V/m) @ t=0.06
-2.2988248890410725
% es.Ex (V/m) @ t=0.06
-0.7199101928458447
% es.Ey (V/m) @ t=0.06
0.053773990946348355
% es.Ez (V/m) @ t=0.06
-2.2988248890410627
% es.tEx (V/m) @ t=0.06
-0.7199101928458589
% es.tEy (V/m) @ t=0.06
0
% es.tEz (V/m) @ t=0.06
-2.2988248890410725
% V (V) @ t=0.06
0.012129807553888343
% es.normE (V/m) @ t=0.08
2.4440938890737565
% es.EX (V/m) @ t=0.08
-0.7291231681827443
% es.EY (V/m) @ t=0.08
0.0544621560613322
% es.EZ (V/m) @ t=0.08
-2.3282438405437
% es.tEX (V/m) @ t=0.08
-0.7291231681827561
% es.tEY (V/m) @ t=0.08
0
% es.tEZ (V/m) @ t=0.08
-2.328243840543731
% es.Ex (V/m) @ t=0.08
-0.7291231681827443
% es.Ey (V/m) @ t=0.08
0.0544621560613322
% es.Ez (V/m) @ t=0.08
-2.3282438405437
% es.tEx (V/m) @ t=0.08
-0.7291231681827561
% es.tEy (V/m) @ t=0.08
0
% es.tEz (V/m) @ t=0.08
-2.328243840543731
% V (V) @ t=0.08
0.012285037556220273
% es.normE (V/m) @ t=0.1
2.475066749163335
% es.EX (V/m) @ t=0.1
-0.7383630107510624
% es.EY (V/m) @ t=0.1
0.055152327965333536
% es.EZ (V/m) @ t=0.1
-2.3577485854405804
% es.tEX (V/m) @ t=0.1
-0.7383630107510761
% es.tEY (V/m) @ t=0.1
0
% es.tEZ (V/m) @ t=0.1
-2.3577485854406133
% es.Ex (V/m) @ t=0.1
-0.7383630107510624
% es.Ey (V/m) @ t=0.1
0.055152327965333536
% es.Ez (V/m) @ t=0.1
-2.3577485854405804
% es.tEx (V/m) @ t=0.1
-0.7383630107510761
% es.tEy (V/m) @ t=0.1
0
% es.tEz (V/m) @ t=0.1
-2.3577485854406133
% V (V) @ t=0.1
0.012440720263084213
% es.normE (V/m) @ t=0.12
2.506039609252901
% es.EX (V/m) @ t=0.12
-0.7476028533193795
% es.EY (V/m) @ t=0.12
0.05584249986932244
% es.EZ (V/m) @ t=0.12
-2.3872533303374475
% es.tEX (V/m) @ t=0.12
-0.747602853319389
% es.tEY (V/m) @ t=0.12
0
% es.tEZ (V/m) @ t=0.12
-2.387253330337466
% es.Ex (V/m) @ t=0.12
-0.7476028533193795
% es.Ey (V/m) @ t=0.12
0.05584249986932244
% es.Ez (V/m) @ t=0.12
-2.3872533303374475
% es.tEx (V/m) @ t=0.12
-0.747602853319389
% es.tEy (V/m) @ t=0.12
0
% es.tEz (V/m) @ t=0.12
-2.387253330337466
% V (V) @ t=0.12
0.012596402969948154
% es.normE (V/m) @ t=0.14
2.53886117606031
% es.EX (V/m) @ t=0.14
-0.757394207470524
% es.EY (V/m) @ t=0.14
0.056573868122625076
% es.EZ (V/m) @ t=0.14
-2.4185191518770024
% es.tEX (V/m) @ t=0.14
-0.7573942074705258
% es.tEY (V/m) @ t=0.14
0
% es.tEZ (V/m) @ t=0.14
-2.4185191518770264
% es.Ex (V/m) @ t=0.14
-0.757394207470524
% es.Ey (V/m) @ t=0.14
0.056573868122625076
% es.Ez (V/m) @ t=0.14
-2.4185191518770024
% es.tEx (V/m) @ t=0.14
-0.7573942074705258
% es.tEy (V/m) @ t=0.14
0
% es.tEz (V/m) @ t=0.14
-2.4185191518770264
% V (V) @ t=0.14
0.012761377835831585
% es.normE (V/m) @ t=0.16
2.5720483029673447
% es.EX (V/m) @ t=0.16
-0.7672946165773409
% es.EY (V/m) @ t=0.16
0.05731338247145078
% es.EZ (V/m) @ t=0.16
-2.450133205695229
% es.tEX (V/m) @ t=0.16
-0.7672946165773453
% es.tEY (V/m) @ t=0.16
0
% es.tEZ (V/m) @ t=0.16
-2.450133205695259
% es.Ex (V/m) @ t=0.16
-0.7672946165773409
% es.Ey (V/m) @ t=0.16
0.05731338247145078
% es.Ez (V/m) @ t=0.16
-2.450133205695229
% es.tEx (V/m) @ t=0.16
-0.7672946165773453
% es.tEy (V/m) @ t=0.16
0
% es.tEz (V/m) @ t=0.16
-2.450133205695259
% V (V) @ t=0.16
0.012928190117322253
% es.normE (V/m) @ t=0.18
2.6052354298743787
% es.EX (V/m) @ t=0.18
-0.7771950256841533
% es.EY (V/m) @ t=0.18
0.058052896820292466
% es.EZ (V/m) @ t=0.18
-2.4817472595134555
% es.tEX (V/m) @ t=0.18
-0.7771950256841578
% es.tEY (V/m) @ t=0.18
0
% es.tEZ (V/m) @ t=0.18
-2.4817472595134777
% es.Ex (V/m) @ t=0.18
-0.7771950256841533
% es.Ey (V/m) @ t=0.18
0.058052896820292466
% es.Ez (V/m) @ t=0.18
-2.4817472595134555
% es.tEx (V/m) @ t=0.18
-0.7771950256841578
% es.tEy (V/m) @ t=0.18
0
% es.tEz (V/m) @ t=0.18
-2.4817472595134777
% V (V) @ t=0.18
0.013095002398812925
% es.normE (V/m) @ t=0.2
2.6384225567814044
% es.EX (V/m) @ t=0.2
-0.7870954347909641
% es.EY (V/m) @ t=0.2
0.058792411169112796
% es.EZ (V/m) @ t=0.2
-2.513361313331674
% es.tEX (V/m) @ t=0.2
-0.7870954347909702
% es.tEY (V/m) @ t=0.2
0
% es.tEZ (V/m) @ t=0.2
-2.513361313331682
% es.Ex (V/m) @ t=0.2
-0.7870954347909641
% es.Ey (V/m) @ t=0.2
0.058792411169112796
% es.Ez (V/m) @ t=0.2
-2.513361313331674
% es.tEx (V/m) @ t=0.2
-0.7870954347909702
% es.tEy (V/m) @ t=0.2
0
% es.tEz (V/m) @ t=0.2
-2.513361313331682
% V (V) @ t=0.2
0.013261814680303595
% es.normE (V/m) @ t=0.22
2.6716096836884216
% es.EX (V/m) @ t=0.22
-0.7969958438977871
% es.EY (V/m) @ t=0.22
0.0595319255179563
% es.EZ (V/m) @ t=0.22
-2.5449753671498803
% es.tEX (V/m) @ t=0.22
-0.7969958438977898
% es.tEY (V/m) @ t=0.22
0
% es.tEZ (V/m) @ t=0.22
-2.5449753671499007
% es.Ex (V/m) @ t=0.22
-0.7969958438977871
% es.Ey (V/m) @ t=0.22
0.0595319255179563
% es.Ez (V/m) @ t=0.22
-2.5449753671498803
% es.tEx (V/m) @ t=0.22
-0.7969958438977898
% es.tEy (V/m) @ t=0.22
0
% es.tEz (V/m) @ t=0.22
-2.5449753671499007
% V (V) @ t=0.22
0.013428626961794263
% es.normE (V/m) @ t=0.24
2.7047968105954494
% es.EX (V/m) @ t=0.24
-0.8068962530046033
% es.EY (V/m) @ t=0.24
0.060271439866785514
% es.EZ (V/m) @ t=0.24
-2.576589420968099
% es.tEX (V/m) @ t=0.24
-0.8068962530046093
% es.tEY (V/m) @ t=0.24
0
% es.tEZ (V/m) @ t=0.24
-2.5765894209681193
% es.Ex (V/m) @ t=0.24
-0.8068962530046033
% es.Ey (V/m) @ t=0.24
0.060271439866785514
% es.Ez (V/m) @ t=0.24
-2.576589420968099
% es.tEx (V/m) @ t=0.24
-0.8068962530046093
% es.tEy (V/m) @ t=0.24
0
% es.tEz (V/m) @ t=0.24
-2.5765894209681193
% V (V) @ t=0.24
0.013595439243284933
% es.normE (V/m) @ t=0.26
2.7395903541768396
% es.EX (V/m) @ t=0.26
-0.8172758886556392
% es.EY (V/m) @ t=0.26
0.06104674961955725
% es.EZ (V/m) @ t=0.26
-2.609733747432129
% es.tEX (V/m) @ t=0.26
-0.8172758886556437
% es.tEY (V/m) @ t=0.26
0
% es.tEZ (V/m) @ t=0.26
-2.609733747432127
% es.Ex (V/m) @ t=0.26
-0.8172758886556392
% es.Ey (V/m) @ t=0.26
0.06104674961955725
% es.Ez (V/m) @ t=0.26
-2.609733747432129
% es.tEx (V/m) @ t=0.26
-0.8172758886556437
% es.tEy (V/m) @ t=0.26
0
% es.tEz (V/m) @ t=0.26
-2.609733747432127
% V (V) @ t=0.26
0.01377032611892109
% es.normE (V/m) @ t=0.28
2.7751439248100556
% es.EX (V/m) @ t=0.28
-0.8278822557290886
% es.EY (V/m) @ t=0.28
0.061838994875901734
% es.EZ (V/m) @ t=0.28
-2.643602075723358
% es.tEX (V/m) @ t=0.28
-0.8278822557290937
% es.tEY (V/m) @ t=0.28
0
% es.tEZ (V/m) @ t=0.28
-2.6436020757233774
% es.Ex (V/m) @ t=0.28
-0.8278822557290886
% es.Ey (V/m) @ t=0.28
0.061838994875901734
% es.Ez (V/m) @ t=0.28
-2.643602075723358
% es.tEx (V/m) @ t=0.28
-0.8278822557290937
% es.tEy (V/m) @ t=0.28
0
% es.tEz (V/m) @ t=0.28
-2.6436020757233774
% V (V) @ t=0.28
0.01394903324249233
% es.normE (V/m) @ t=0.3
2.8106974954432618
% es.EX (V/m) @ t=0.3
-0.8384886228025487
% es.EY (V/m) @ t=0.3
0.06263124013225466
% es.EZ (V/m) @ t=0.3
-2.6774704040145725
% es.tEX (V/m) @ t=0.3
-0.8384886228025508
% es.tEY (V/m) @ t=0.3
0
% es.tEZ (V/m) @ t=0.3
-2.677470404014601
% es.Ex (V/m) @ t=0.3
-0.8384886228025487
% es.Ey (V/m) @ t=0.3
0.06263124013225466
% es.Ez (V/m) @ t=0.3
-2.6774704040145725
% es.tEx (V/m) @ t=0.3
-0.8384886228025508
% es.tEy (V/m) @ t=0.3
0
% es.tEz (V/m) @ t=0.3
-2.677470404014601
% V (V) @ t=0.3
0.014127740366063568
% es.normE (V/m) @ t=0.32
2.8462510660764853
% es.EX (V/m) @ t=0.32
-0.8490949898759999
% es.EY (V/m) @ t=0.32
0.06342348538860448
% es.EZ (V/m) @ t=0.32
-2.7113387323058085
% es.tEX (V/m) @ t=0.32
-0.8490949898760078
% es.tEY (V/m) @ t=0.32
0
% es.tEZ (V/m) @ t=0.32
-2.7113387323058227
% es.Ex (V/m) @ t=0.32
-0.8490949898759999
% es.Ey (V/m) @ t=0.32
0.06342348538860448
% es.Ez (V/m) @ t=0.32
-2.7113387323058085
% es.tEx (V/m) @ t=0.32
-0.8490949898760078
% es.tEy (V/m) @ t=0.32
0
% es.tEz (V/m) @ t=0.32
-2.7113387323058227
% V (V) @ t=0.32
0.014306447489634815
% es.normE (V/m) @ t=0.34
2.8818046367096866
% es.EX (V/m) @ t=0.34
-0.8597013569494476
% es.EY (V/m) @ t=0.34
0.06421573064494893
% es.EZ (V/m) @ t=0.34
-2.7452070605970222
% es.tEX (V/m) @ t=0.34
-0.8597013569494507
% es.tEY (V/m) @ t=0.34
0
% es.tEZ (V/m) @ t=0.34
-2.7452070605970462
% es.Ex (V/m) @ t=0.34
-0.8597013569494476
% es.Ey (V/m) @ t=0.34
0.06421573064494893
% es.Ez (V/m) @ t=0.34
-2.7452070605970222
% es.tEx (V/m) @ t=0.34
-0.8597013569494507
% es.tEy (V/m) @ t=0.34
0
% es.tEz (V/m) @ t=0.34
-2.7452070605970462
% V (V) @ t=0.34
0.014485154613206054
% es.normE (V/m) @ t=0.36
2.9173582073428914
% es.EX (V/m) @ t=0.36
-0.8703077240229022
% es.EY (V/m) @ t=0.36
0.06500797590129478
% es.EZ (V/m) @ t=0.36
-2.779075388888238
% es.tEX (V/m) @ t=0.36
-0.8703077240229078
% es.tEY (V/m) @ t=0.36
0
% es.tEZ (V/m) @ t=0.36
-2.7790753888882804
% es.Ex (V/m) @ t=0.36
-0.8703077240229022
% es.Ey (V/m) @ t=0.36
0.06500797590129478
% es.Ez (V/m) @ t=0.36
-2.779075388888238
% es.tEx (V/m) @ t=0.36
-0.8703077240229078
% es.tEy (V/m) @ t=0.36
0
% es.tEz (V/m) @ t=0.36
-2.7790753888882804
% V (V) @ t=0.36
0.014663861736777296
% es.normE (V/m) @ t=0.38
2.9542310408185033
% es.EX (V/m) @ t=0.38
-0.8813076548364684
% es.EY (V/m) @ t=0.38
0.06582961848457282
% es.EZ (V/m) @ t=0.38
-2.8142004467585524
% es.tEX (V/m) @ t=0.38
-0.8813076548364691
% es.tEY (V/m) @ t=0.38
0
% es.tEZ (V/m) @ t=0.38
-2.814200446758573
% es.Ex (V/m) @ t=0.38
-0.8813076548364684
% es.Ey (V/m) @ t=0.38
0.06582961848457282
% es.Ez (V/m) @ t=0.38
-2.8142004467585524
% es.tEx (V/m) @ t=0.38
-0.8813076548364691
% es.tEy (V/m) @ t=0.38
0
% es.tEz (V/m) @ t=0.38
-2.814200446758573
% V (V) @ t=0.38
0.014849200026140473
% es.normE (V/m) @ t=0.4
2.9923082790833386
% es.EX (V/m) @ t=0.4
-0.8926668848269959
% es.EY (V/m) @ t=0.4
0.06667809899598387
% es.EZ (V/m) @ t=0.4
-2.8504728204443124
% es.tEX (V/m) @ t=0.4
-0.8926668848269941
% es.tEY (V/m) @ t=0.4
0
% es.tEZ (V/m) @ t=0.4
-2.8504728204443204
% es.Ex (V/m) @ t=0.4
-0.8926668848269959
% es.Ey (V/m) @ t=0.4
0.06667809899598387
% es.Ez (V/m) @ t=0.4
-2.8504728204443124
% es.tEx (V/m) @ t=0.4
-0.8926668848269941
% es.tEy (V/m) @ t=0.4
0
% es.tEz (V/m) @ t=0.4
-2.8504728204443204
% V (V) @ t=0.4
0.015040592156771362
% es.normE (V/m) @ t=0.42
3.0303855173481598
% es.EX (V/m) @ t=0.42
-0.9040261148175179
% es.EY (V/m) @ t=0.42
0.06752657950737362
% es.EZ (V/m) @ t=0.42
-2.886745194130059
% es.tEX (V/m) @ t=0.42
-0.9040261148175261
% es.tEY (V/m) @ t=0.42
0
% es.tEZ (V/m) @ t=0.42
-2.8867451941300946
% es.Ex (V/m) @ t=0.42
-0.9040261148175179
% es.Ey (V/m) @ t=0.42
0.06752657950737362
% es.Ez (V/m) @ t=0.42
-2.886745194130059
% es.tEx (V/m) @ t=0.42
-0.9040261148175261
% es.tEy (V/m) @ t=0.42
0
% es.tEz (V/m) @ t=0.42
-2.8867451941300946
% V (V) @ t=0.42
0.015231984287402247
% es.normE (V/m) @ t=0.44
3.068462755612999
% es.EX (V/m) @ t=0.44
-0.9153853448080524
% es.EY (V/m) @ t=0.44
0.06837506001878067
% es.EZ (V/m) @ t=0.44
-2.92301756781582
% es.tEX (V/m) @ t=0.44
-0.9153853448080582
% es.tEY (V/m) @ t=0.44
0
% es.tEZ (V/m) @ t=0.44
-2.923017567815842
% es.Ex (V/m) @ t=0.44
-0.9153853448080524
% es.Ey (V/m) @ t=0.44
0.06837506001878067
% es.Ez (V/m) @ t=0.44
-2.92301756781582
% es.tEx (V/m) @ t=0.44
-0.9153853448080582
% es.tEy (V/m) @ t=0.44
0
% es.tEz (V/m) @ t=0.44
-2.923017567815842
% V (V) @ t=0.44
0.015423376418033133
% es.normE (V/m) @ t=0.46
3.1065399938778357
% es.EX (V/m) @ t=0.46
-0.9267445747985867
% es.EY (V/m) @ t=0.46
0.06922354053018293
% es.EZ (V/m) @ t=0.46
-2.9592899415015808
% es.tEX (V/m) @ t=0.46
-0.9267445747985974
% es.tEY (V/m) @ t=0.46
0
% es.tEZ (V/m) @ t=0.46
-2.9592899415016163
% es.Ex (V/m) @ t=0.46
-0.9267445747985867
% es.Ey (V/m) @ t=0.46
0.06922354053018293
% es.Ez (V/m) @ t=0.46
-2.9592899415015808
% es.tEx (V/m) @ t=0.46
-0.9267445747985974
% es.tEy (V/m) @ t=0.46
0
% es.tEz (V/m) @ t=0.46
-2.9592899415016163
% V (V) @ t=0.46
0.01561476854866402
% es.normE (V/m) @ t=0.48
3.1446172321426724
% es.EX (V/m) @ t=0.48
-0.9381038047891068
% es.EY (V/m) @ t=0.48
0.07007202104157989
% es.EZ (V/m) @ t=0.48
-2.9955623151873425
% es.tEX (V/m) @ t=0.48
-0.9381038047891224
% es.tEY (V/m) @ t=0.48
0
% es.tEZ (V/m) @ t=0.48
-2.995562315187362
% es.Ex (V/m) @ t=0.48
-0.9381038047891068
% es.Ey (V/m) @ t=0.48
0.07007202104157989
% es.Ez (V/m) @ t=0.48
-2.9955623151873425
% es.tEx (V/m) @ t=0.48
-0.9381038047891224
% es.tEy (V/m) @ t=0.48
0
% es.tEz (V/m) @ t=0.48
-2.995562315187362
% V (V) @ t=0.48
0.015806160679294905
% es.normE (V/m) @ t=0.5
3.1831067256317525
% es.EX (V/m) @ t=0.5
-0.9495860189935124
% es.EY (V/m) @ t=0.5
0.07092968773700396
% es.EZ (V/m) @ t=0.5
-3.032227403188302
% es.tEX (V/m) @ t=0.5
-0.9495860189935215
% es.tEY (V/m) @ t=0.5
0
% es.tEZ (V/m) @ t=0.5
-3.032227403188319
% es.Ex (V/m) @ t=0.5
-0.9495860189935124
% es.Ey (V/m) @ t=0.5
0.07092968773700396
% es.Ez (V/m) @ t=0.5
-3.032227403188302
% es.tEx (V/m) @ t=0.5
-0.9495860189935215
% es.tEy (V/m) @ t=0.5
0
% es.tEz (V/m) @ t=0.5
-3.032227403188319
% V (V) @ t=0.5
0.015999624988878372
% es.normE (V/m) @ t=0.52
3.2225438197216265
% es.EX (V/m) @ t=0.52
-0.9613509219502137
% es.EY (V/m) @ t=0.52
0.07180846958864012
% es.EZ (V/m) @ t=0.52
-3.069795175495331
% es.tEX (V/m) @ t=0.52
-0.9613509219502205
% es.tEY (V/m) @ t=0.52
0
% es.tEZ (V/m) @ t=0.52
-3.06979517549534
% es.Ex (V/m) @ t=0.52
-0.9613509219502137
% es.Ey (V/m) @ t=0.52
0.07180846958864012
% es.Ez (V/m) @ t=0.52
-3.069795175495331
% es.tEx (V/m) @ t=0.52
-0.9613509219502205
% es.tEy (V/m) @ t=0.52
0
% es.tEz (V/m) @ t=0.52
-3.06979517549534
% V (V) @ t=0.52
0.016197852362469515
% es.normE (V/m) @ t=0.54
3.2623256420422333
% es.EX (V/m) @ t=0.54
-0.9732186644295224
% es.EY (V/m) @ t=0.54
0.07269493293650771
% es.EZ (V/m) @ t=0.54
-3.1076913359054146
% es.tEX (V/m) @ t=0.54
-0.973218664429524
% es.tEY (V/m) @ t=0.54
0
% es.tEZ (V/m) @ t=0.54
-3.1076913359054448
% es.Ex (V/m) @ t=0.54
-0.9732186644295224
% es.Ey (V/m) @ t=0.54
0.07269493293650771
% es.Ez (V/m) @ t=0.54
-3.1076913359054146
% es.tEx (V/m) @ t=0.54
-0.973218664429524
% es.tEy (V/m) @ t=0.54
0
% es.tEz (V/m) @ t=0.54
-3.1076913359054448
% V (V) @ t=0.54
0.016397812494173006
% es.normE (V/m) @ t=0.56
3.302452192593611
% es.EX (V/m) @ t=0.56
-0.9851892464314689
% es.EY (V/m) @ t=0.56
0.07358907778062582
% es.EZ (V/m) @ t=0.56
-3.1459158844185815
% es.tEX (V/m) @ t=0.56
-0.9851892464314815
% es.tEY (V/m) @ t=0.56
0
% es.tEZ (V/m) @ t=0.56
-3.1459158844186224
% es.Ex (V/m) @ t=0.56
-0.9851892464314689
% es.Ey (V/m) @ t=0.56
0.07358907778062582
% es.Ez (V/m) @ t=0.56
-3.1459158844185815
% es.tEx (V/m) @ t=0.56
-0.9851892464314815
% es.tEy (V/m) @ t=0.56
0
% es.tEz (V/m) @ t=0.56
-3.1459158844186224
% V (V) @ t=0.56
0.016599505383988838
% es.normE (V/m) @ t=0.58
3.342923471375782
% es.EX (V/m) @ t=0.58
-0.9972626679560421
% es.EY (V/m) @ t=0.58
0.07449090412100381
% es.EZ (V/m) @ t=0.58
-3.1844688210348613
% es.tEX (V/m) @ t=0.58
-0.9972626679560506
% es.tEY (V/m) @ t=0.58
0
% es.tEZ (V/m) @ t=0.58
-3.18446882103488
% es.Ex (V/m) @ t=0.58
-0.9972626679560421
% es.Ey (V/m) @ t=0.58
0.07449090412100381
% es.Ez (V/m) @ t=0.58
-3.1844688210348613
% es.tEx (V/m) @ t=0.58
-0.9972626679560506
% es.tEy (V/m) @ t=0.58
0
% es.tEz (V/m) @ t=0.58
-3.18446882103488
% V (V) @ t=0.58
0.01680293103191701
% es.normE (V/m) @ t=0.6
3.383739478388603
% es.EX (V/m) @ t=0.6
-1.0094389290032453
% es.EY (V/m) @ t=0.6
0.07540041195758858
% es.EZ (V/m) @ t=0.6
-3.2233501457540985
% es.tEX (V/m) @ t=0.6
-1.0094389290032524
% es.tEY (V/m) @ t=0.6
0
% es.tEZ (V/m) @ t=0.6
-3.223350145754143
% es.Ex (V/m) @ t=0.6
-1.0094389290032453
% es.Ey (V/m) @ t=0.6
0.07540041195758858
% es.Ez (V/m) @ t=0.6
-3.2233501457540985
% es.tEx (V/m) @ t=0.6
-1.0094389290032524
% es.tEy (V/m) @ t=0.6
0
% es.tEz (V/m) @ t=0.6
-3.223350145754143
% V (V) @ t=0.6
0.017008089437957532
% es.normE (V/m) @ t=0.62
3.4249002136322435
% es.EX (V/m) @ t=0.62
-1.0217180295730834
% es.EY (V/m) @ t=0.62
0.07631760129043472
% es.EZ (V/m) @ t=0.62
-3.2625598585764735
% es.tEX (V/m) @ t=0.62
-1.021718029573087
% es.tEY (V/m) @ t=0.62
0
% es.tEZ (V/m) @ t=0.62
-3.2625598585764983
% es.Ex (V/m) @ t=0.62
-1.0217180295730834
% es.Ey (V/m) @ t=0.62
0.07631760129043472
% es.Ez (V/m) @ t=0.62
-3.2625598585764735
% es.tEx (V/m) @ t=0.62
-1.021718029573087
% es.tEy (V/m) @ t=0.62
0
% es.tEz (V/m) @ t=0.62
-3.2625598585764983
% V (V) @ t=0.62
0.017214980602110394
% es.normE (V/m) @ t=0.64
3.466405677106618
% es.EX (V/m) @ t=0.64
-1.0340999696655269
% es.EY (V/m) @ t=0.64
0.07724247211949022
% es.EZ (V/m) @ t=0.64
-3.3020979595019035
% es.tEX (V/m) @ t=0.64
-1.034099969665533
% es.tEY (V/m) @ t=0.64
0
% es.tEZ (V/m) @ t=0.64
-3.302097959501941
% es.Ex (V/m) @ t=0.64
-1.0340999696655269
% es.Ey (V/m) @ t=0.64
0.07724247211949022
% es.Ez (V/m) @ t=0.64
-3.3020979595019035
% es.tEx (V/m) @ t=0.64
-1.034099969665533
% es.tEy (V/m) @ t=0.64
0
% es.tEz (V/m) @ t=0.64
-3.302097959501941
% V (V) @ t=0.64
0.0174236045243756
% es.normE (V/m) @ t=0.66
3.508255868811779
% es.EX (V/m) @ t=0.66
-1.0465847492806217
% es.EY (V/m) @ t=0.66
0.07817502444480914
% es.EZ (V/m) @ t=0.66
-3.3419644485304323
% es.tEX (V/m) @ t=0.66
-1.0465847492806262
% es.tEY (V/m) @ t=0.66
0
% es.tEZ (V/m) @ t=0.66
-3.3419644485304527
% es.Ex (V/m) @ t=0.66
-1.0465847492806217
% es.Ey (V/m) @ t=0.66
0.07817502444480914
% es.Ez (V/m) @ t=0.66
-3.3419644485304323
% es.tEx (V/m) @ t=0.66
-1.0465847492806262
% es.tEy (V/m) @ t=0.66
0
% es.tEz (V/m) @ t=0.66
-3.3419644485304527
% V (V) @ t=0.66
0.017633961204753145
% es.normE (V/m) @ t=0.68
3.550450788747624
% es.EX (V/m) @ t=0.68
-1.0591723684183187
% es.EY (V/m) @ t=0.68
0.07911525826639734
% es.EZ (V/m) @ t=0.68
-3.38215932566196
% es.tEX (V/m) @ t=0.68
-1.0591723684183307
% es.tEY (V/m) @ t=0.68
0
% es.tEZ (V/m) @ t=0.68
-3.382159325661993
% es.Ex (V/m) @ t=0.68
-1.0591723684183187
% es.Ey (V/m) @ t=0.68
0.07911525826639734
% es.Ez (V/m) @ t=0.68
-3.38215932566196
% es.tEx (V/m) @ t=0.68
-1.0591723684183307
% es.tEy (V/m) @ t=0.68
0
% es.tEz (V/m) @ t=0.68
-3.382159325661993
% V (V) @ t=0.68
0.01784605064324304
% es.normE (V/m) @ t=0.7
3.592990436914306
% es.EX (V/m) @ t=0.7
-1.071862827078677
% es.EY (V/m) @ t=0.7
0.08006317358419765
% es.EZ (V/m) @ t=0.7
-3.42268259089664
% es.tEX (V/m) @ t=0.7
-1.0718628270786965
% es.tEY (V/m) @ t=0.7
0
% es.tEZ (V/m) @ t=0.7
-3.4226825908966596
% es.Ex (V/m) @ t=0.7
-1.071862827078677
% es.Ey (V/m) @ t=0.7
0.08006317358419765
% es.Ez (V/m) @ t=0.7
-3.42268259089664
% es.tEx (V/m) @ t=0.7
-1.0718628270786965
% es.tEy (V/m) @ t=0.7
0
% es.tEz (V/m) @ t=0.7
-3.4226825908966596
% V (V) @ t=0.7
0.01805987283984528
% es.normE (V/m) @ t=0.72
3.6358748133116703
% es.EX (V/m) @ t=0.72
-1.0846561252616405
% es.EY (V/m) @ t=0.72
0.08101877039823002
% es.EZ (V/m) @ t=0.72
-3.463534244234319
% es.tEX (V/m) @ t=0.72
-1.0846561252616524
% es.tEY (V/m) @ t=0.72
0
% es.tEZ (V/m) @ t=0.72
-3.463534244234353
% es.Ex (V/m) @ t=0.72
-1.0846561252616405
% es.Ey (V/m) @ t=0.72
0.08101877039823002
% es.Ez (V/m) @ t=0.72
-3.463534244234319
% es.tEx (V/m) @ t=0.72
-1.0846561252616524
% es.tEy (V/m) @ t=0.72
0
% es.tEz (V/m) @ t=0.72
-3.463534244234353
% V (V) @ t=0.72
0.018275427794559856
% es.normE (V/m) @ t=0.74
3.6791371279400336
% es.EX (V/m) @ t=0.74
-1.0975621702056442
% es.EY (V/m) @ t=0.74
0.0819827887221693
% es.EZ (V/m) @ t=0.74
-3.5047459215166237
% es.tEX (V/m) @ t=0.74
-1.0975621702056557
% es.tEY (V/m) @ t=0.74
0
% es.tEZ (V/m) @ t=0.74
-3.5047459215166494
% es.Ex (V/m) @ t=0.74
-1.0975621702056442
% es.Ey (V/m) @ t=0.74
0.0819827887221693
% es.Ez (V/m) @ t=0.74
-3.5047459215166237
% es.tEx (V/m) @ t=0.74
-1.0975621702056557
% es.tEy (V/m) @ t=0.74
0
% es.tEz (V/m) @ t=0.74
-3.5047459215166494
% V (V) @ t=0.74
0.018492882435219668
% es.normE (V/m) @ t=0.76
3.7233719153460134
% es.EX (V/m) @ t=0.76
-1.110758324014299
% es.EY (V/m) @ t=0.76
0.08296847648371142
% es.EZ (V/m) @ t=0.76
-3.5468839762688926
% es.tEX (V/m) @ t=0.76
-1.1107583240142986
% es.tEY (V/m) @ t=0.76
0
% es.tEZ (V/m) @ t=0.76
-3.5468839762689175
% es.Ex (V/m) @ t=0.76
-1.110758324014299
% es.Ey (V/m) @ t=0.76
0.08296847648371142
% es.Ez (V/m) @ t=0.76
-3.5468839762688926
% es.tEx (V/m) @ t=0.76
-1.1107583240142986
% es.tEy (V/m) @ t=0.76
0
% es.tEz (V/m) @ t=0.76
-3.5468839762689175
% V (V) @ t=0.76
0.018715225149742203
% es.normE (V/m) @ t=0.78
3.7680499250091097
% es.EX (V/m) @ t=0.78
-1.1240867001758925
% es.EY (V/m) @ t=0.78
0.08396404046969502
% es.EZ (V/m) @ t=0.78
-3.5894442445198713
% es.tEX (V/m) @ t=0.78
-1.1240867001759014
% es.tEY (V/m) @ t=0.78
0
% es.tEZ (V/m) @ t=0.78
-3.589444244519905
% es.Ex (V/m) @ t=0.78
-1.1240867001758925
% es.Ey (V/m) @ t=0.78
0.08396404046969502
% es.Ez (V/m) @ t=0.78
-3.5894442445198713
% es.tEx (V/m) @ t=0.78
-1.1240867001759014
% es.tEy (V/m) @ t=0.78
0
% es.tEz (V/m) @ t=0.78
-3.589444244519905
% V (V) @ t=0.78
0.01893979569597704
% es.normE (V/m) @ t=0.8
3.8131711569292985
% es.EX (V/m) @ t=0.8
-1.137547298690432
% es.EY (V/m) @ t=0.8
0.08496948068010321
% es.EZ (V/m) @ t=0.8
-3.632426726269533
% es.tEX (V/m) @ t=0.8
-1.1375472986904356
% es.tEY (V/m) @ t=0.8
0
% es.tEZ (V/m) @ t=0.8
-3.632426726269566
% es.Ex (V/m) @ t=0.8
-1.137547298690432
% es.Ey (V/m) @ t=0.8
0.08496948068010321
% es.Ez (V/m) @ t=0.8
-3.632426726269533
% es.tEx (V/m) @ t=0.8
-1.1375472986904356
% es.tEy (V/m) @ t=0.8
0
% es.tEz (V/m) @ t=0.8
-3.632426726269566
% V (V) @ t=0.8
0.019166594073924174
% es.normE (V/m) @ t=0.82
3.8587356111065665
% es.EX (V/m) @ t=0.82
-1.1511401195579207
% es.EY (V/m) @ t=0.82
0.08598479711500764
% es.EZ (V/m) @ t=0.82
-3.675831421517863
% es.tEX (V/m) @ t=0.82
-1.1511401195579367
% es.tEY (V/m) @ t=0.82
0
% es.tEZ (V/m) @ t=0.82
-3.675831421517895
% es.Ex (V/m) @ t=0.82
-1.1511401195579207
% es.Ey (V/m) @ t=0.82
0.08598479711500764
% es.Ez (V/m) @ t=0.82
-3.675831421517863
% es.tEx (V/m) @ t=0.82
-1.1511401195579367
% es.tEy (V/m) @ t=0.82
0
% es.tEz (V/m) @ t=0.82
-3.675831421517895
% V (V) @ t=0.82
0.019395620283583617
% es.normE (V/m) @ t=0.84
3.904743287540973
% es.EX (V/m) @ t=0.84
-1.1648651627783764
% es.EY (V/m) @ t=0.84
0.08700998977434743
% es.EZ (V/m) @ t=0.84
-3.7196583302649193
% es.tEX (V/m) @ t=0.84
-1.1648651627783835
% es.tEY (V/m) @ t=0.84
0
% es.tEZ (V/m) @ t=0.84
-3.7196583302649504
% es.Ex (V/m) @ t=0.84
-1.1648651627783764
% es.Ey (V/m) @ t=0.84
0.08700998977434743
% es.Ez (V/m) @ t=0.84
-3.7196583302649193
% es.tEx (V/m) @ t=0.84
-1.1648651627783835
% es.tEy (V/m) @ t=0.84
0
% es.tEz (V/m) @ t=0.84
-3.7196583302649504
% V (V) @ t=0.84
0.01962687432495535
% es.normE (V/m) @ t=0.86
3.9511941862324864
% es.EX (V/m) @ t=0.86
-1.1787224283517834
% es.EY (V/m) @ t=0.86
0.08804505865808959
% es.EZ (V/m) @ t=0.86
-3.763907452510672
% es.tEX (V/m) @ t=0.86
-1.1787224283517972
% es.tEY (V/m) @ t=0.86
0
% es.tEZ (V/m) @ t=0.86
-3.7639074525107024
% es.Ex (V/m) @ t=0.86
-1.1787224283517834
% es.Ey (V/m) @ t=0.86
0.08804505865808959
% es.Ez (V/m) @ t=0.86
-3.763907452510672
% es.tEx (V/m) @ t=0.86
-1.1787224283517972
% es.tEy (V/m) @ t=0.86
0
% es.tEz (V/m) @ t=0.86
-3.7639074525107024
% V (V) @ t=0.86
0.01986035619803939
% es.normE (V/m) @ t=0.88
3.9980883071810744
% es.EX (V/m) @ t=0.88
-1.1927119162781228
% es.EY (V/m) @ t=0.88
0.08909000376629933
% es.EZ (V/m) @ t=0.88
-3.8085787882550903
% es.tEX (V/m) @ t=0.88
-1.1927119162781281
% es.tEY (V/m) @ t=0.88
0
% es.tEZ (V/m) @ t=0.88
-3.8085787882551383
% es.Ex (V/m) @ t=0.88
-1.1927119162781228
% es.Ey (V/m) @ t=0.88
0.08909000376629933
% es.Ez (V/m) @ t=0.88
-3.8085787882550903
% es.tEx (V/m) @ t=0.88
-1.1927119162781281
% es.tEy (V/m) @ t=0.88
0
% es.tEz (V/m) @ t=0.88
-3.8085787882551383
% V (V) @ t=0.88
0.02009606590283573
% es.normE (V/m) @ t=0.9
4.045425650386791
% es.EX (V/m) @ t=0.9
-1.2068336265574295
% es.EY (V/m) @ t=0.9
0.09014482509900101
% es.EZ (V/m) @ t=0.9
-3.8536723374982245
% es.tEX (V/m) @ t=0.9
-1.2068336265574402
% es.tEY (V/m) @ t=0.9
0
% es.tEZ (V/m) @ t=0.9
-3.8536723374982564
% es.Ex (V/m) @ t=0.9
-1.2068336265574295
% es.Ey (V/m) @ t=0.9
0.09014482509900101
% es.Ez (V/m) @ t=0.9
-3.8536723374982245
% es.tEx (V/m) @ t=0.9
-1.2068336265574402
% es.tEy (V/m) @ t=0.9
0
% es.tEz (V/m) @ t=0.9
-3.8536723374982564
% V (V) @ t=0.9
0.020334003439344373
% es.normE (V/m) @ t=0.92
4.093206215849591
% es.EX (V/m) @ t=0.92
-1.2210875591896673
% es.EY (V/m) @ t=0.92
0.0912095226561267
% es.EZ (V/m) @ t=0.92
-3.8991881002400373
% es.tEX (V/m) @ t=0.92
-1.2210875591896837
% es.tEY (V/m) @ t=0.92
0
% es.tEZ (V/m) @ t=0.92
-3.899188100240085
% es.Ex (V/m) @ t=0.92
-1.2210875591896673
% es.Ey (V/m) @ t=0.92
0.0912095226561267
% es.Ez (V/m) @ t=0.92
-3.8991881002400373
% es.tEx (V/m) @ t=0.92
-1.2210875591896837
% es.tEy (V/m) @ t=0.92
0
% es.tEz (V/m) @ t=0.92
-3.899188100240085
% V (V) @ t=0.92
0.020574168807565317
% es.normE (V/m) @ t=0.94
4.1414300035695
% es.EX (V/m) @ t=0.94
-1.2354737141748542
% es.EY (V/m) @ t=0.94
0.0922840964376633
% es.EZ (V/m) @ t=0.94
-3.9451260764805482
% es.tEX (V/m) @ t=0.94
-1.2354737141748657
% es.tEY (V/m) @ t=0.94
0
% es.tEZ (V/m) @ t=0.94
-3.945126076480596
% es.Ex (V/m) @ t=0.94
-1.2354737141748542
% es.Ey (V/m) @ t=0.94
0.0922840964376633
% es.Ez (V/m) @ t=0.94
-3.9451260764805482
% es.tEx (V/m) @ t=0.94
-1.2354737141748657
% es.tEy (V/m) @ t=0.94
0
% es.tEz (V/m) @ t=0.94
-3.945126076480596
% V (V) @ t=0.94
0.020816562007498558
% es.normE (V/m) @ t=0.96
4.1900970135465085
% es.EX (V/m) @ t=0.96
-1.2499920915130094
% es.EY (V/m) @ t=0.96
0.09336854644371037
% es.EZ (V/m) @ t=0.96
-3.9914862662197423
% es.tEX (V/m) @ t=0.96
-1.2499920915130218
% es.tEY (V/m) @ t=0.96
0
% es.tEZ (V/m) @ t=0.96
-3.9914862662197788
% es.Ex (V/m) @ t=0.96
-1.2499920915130094
% es.Ey (V/m) @ t=0.96
0.09336854644371037
% es.Ez (V/m) @ t=0.96
-3.9914862662197423
% es.tEx (V/m) @ t=0.96
-1.2499920915130218
% es.tEy (V/m) @ t=0.96
0
% es.tEz (V/m) @ t=0.96
-3.9914862662197788
% V (V) @ t=0.96
0.021061183039144095
% es.normE (V/m) @ t=0.98
4.239207245780619
% es.EX (V/m) @ t=0.98
-1.264642691204107
% es.EY (V/m) @ t=0.98
0.09446287267418069
% es.EZ (V/m) @ t=0.98
-4.038268669457633
% es.tEX (V/m) @ t=0.98
-1.2646426912041235
% es.tEY (V/m) @ t=0.98
0
% es.tEZ (V/m) @ t=0.98
-4.03826866945767
% es.Ex (V/m) @ t=0.98
-1.264642691204107
% es.Ey (V/m) @ t=0.98
0.09446287267418069
% es.Ez (V/m) @ t=0.98
-4.038268669457633
% es.tEx (V/m) @ t=0.98
-1.2646426912041235
% es.tEy (V/m) @ t=0.98
0
% es.tEz (V/m) @ t=0.98
-4.03826866945767
% V (V) @ t=0.98
0.021308031902501943
% es.normE (V/m) @ t=1
4.289018620140647
% es.EX (V/m) @ t=1
-1.2795024592079434
% es.EY (V/m) @ t=1
0.09557282582627599
% es.EZ (V/m) @ t=1
-4.085718979578483
% es.tEX (V/m) @ t=1
-1.2795024592079471
% es.tEY (V/m) @ t=1
0
% es.tEZ (V/m) @ t=1
-4.085718979578511
% es.Ex (V/m) @ t=1
-1.2795024592079434
% es.Ey (V/m) @ t=1
0.09557282582627599
% es.Ez (V/m) @ t=1
-4.085718979578483
% es.tEx (V/m) @ t=1
-1.2795024592079471
% es.tEy (V/m) @ t=1
0
% es.tEz (V/m) @ t=1
-4.085718979578511
% V (V) @ t=1
0.021558404750377125
% es.normE (V/m) @ t=1.02
4.339409090553206
% es.EX (V/m) @ t=1.02
-1.2945349851762318
% es.EY (V/m) @ t=1.02
0.09669568470596629
% es.EZ (V/m) @ t=1.02
-4.133720936005151
% es.tEX (V/m) @ t=1.02
-1.2945349851762344
% es.tEY (V/m) @ t=1.02
0
% es.tEZ (V/m) @ t=1.02
-4.133720936005215
% es.Ex (V/m) @ t=1.02
-1.2945349851762318
% es.Ey (V/m) @ t=1.02
0.09669568470596629
% es.Ez (V/m) @ t=1.02
-4.133720936005151
% es.tEx (V/m) @ t=1.02
-1.2945349851762344
% es.tEy (V/m) @ t=1.02
0
% es.tEz (V/m) @ t=1.02
-4.133720936005215
% V (V) @ t=1.02
0.02181168825134583
% es.normE (V/m) @ t=1.04
4.39029600969821
% es.EX (V/m) @ t=1.04