% Model:              1 neuron.mph
% Version:            COMSOL 6.0.0.405
% Date:               Mar 16 2023, 20:14
% Dimension:          0
% Nodes:              14017
% Expressions:        14017
% Description:        Electric field norm, Electric field, X component, Electric field, Y component, Electric field, Z component, Tangential electric field, X component, Tangential electric field, Y component, Tangential electric field, Z component, Electric field, x component, Electric field, y component, Electric field, z component, Tangential electric field, x component, Tangential electric field, y component, Tangential electric field, z component, Electric potential
% Length unit:        mm
% x
1.66
% y
12.200000000000001
% z
1.66
% es.normE (V/m) @ t=0
38.18667020974999
% es.EX (V/m) @ t=0
-18.033945329712225
% es.EY (V/m) @ t=0
14.468805048043976
% es.EZ (V/m) @ t=0
17.344548040031206
% es.tEX (V/m) @ t=0
-18.03394532971224
% es.tEY (V/m) @ t=0
0
% es.tEZ (V/m) @ t=0
17.344548040031214
% es.Ex (V/m) @ t=0
-18.033945329712225
% es.Ey (V/m) @ t=0
14.468805048043976
% es.Ez (V/m) @ t=0
17.344548040031206
% es.tEx (V/m) @ t=0
-18.03394532971224
% es.tEy (V/m) @ t=0
0
% es.tEz (V/m) @ t=0
17.344548040031214
% V (V) @ t=0
0.01198472136237659
% es.normE (V/m) @ t=0.02
33.09190339687151
% es.EX (V/m) @ t=0.02
-15.62790305850308
% es.EY (V/m) @ t=0.02
12.538414501502949
% es.EZ (V/m) @ t=0.02
15.03048315745491
% es.tEX (V/m) @ t=0.02
-15.627903058503058
% es.tEY (V/m) @ t=0.02
0
% es.tEZ (V/m) @ t=0.02
15.030483157454881
% es.Ex (V/m) @ t=0.02
-15.62790305850308
% es.Ey (V/m) @ t=0.02
12.538414501502949
% es.Ez (V/m) @ t=0.02
15.03048315745491
% es.tEx (V/m) @ t=0.02
-15.627903058503058
% es.tEy (V/m) @ t=0.02
0
% es.tEz (V/m) @ t=0.02
15.030483157454881
% V (V) @ t=0.02
0.010385750808390918
% es.normE (V/m) @ t=0.04
33.50805378628848
% es.EX (V/m) @ t=0.04
-15.824433572040263
% es.EY (V/m) @ t=0.04
12.696092589496828
% es.EZ (V/m) @ t=0.04
15.21949997422346
% es.tEX (V/m) @ t=0.04
-15.824433572040263
% es.tEY (V/m) @ t=0.04
0
% es.tEZ (V/m) @ t=0.04
15.219499974223396
% es.Ex (V/m) @ t=0.04
-15.824433572040263
% es.Ey (V/m) @ t=0.04
12.696092589496828
% es.Ez (V/m) @ t=0.04
15.21949997422346
% es.tEx (V/m) @ t=0.04
-15.824433572040263
% es.tEy (V/m) @ t=0.04
0
% es.tEz (V/m) @ t=0.04
15.219499974223396
% V (V) @ t=0.04
0.010516357759424465
% es.normE (V/m) @ t=0.06
33.92817018580898
% es.EX (V/m) @ t=0.06
-16.022837195413203
% es.EY (V/m) @ t=0.06
12.855273412115793
% es.EZ (V/m) @ t=0.06
15.410317980555433
% es.tEX (V/m) @ t=0.06
-16.022837195413175
% es.tEY (V/m) @ t=0.06
0
% es.tEZ (V/m) @ t=0.06
15.41031798055542
% es.Ex (V/m) @ t=0.06
-16.022837195413203
% es.Ey (V/m) @ t=0.06
12.855273412115793
% es.Ez (V/m) @ t=0.06
15.410317980555433
% es.tEx (V/m) @ t=0.06
-16.022837195413175
% es.tEy (V/m) @ t=0.06
0
% es.tEz (V/m) @ t=0.06
15.41031798055542
% V (V) @ t=0.06
0.01064820940654294
% es.normE (V/m) @ t=0.08
34.36122749419265
% es.EX (V/m) @ t=0.08
-16.227351707723244
% es.EY (V/m) @ t=0.08
13.019357398821974
% es.EZ (V/m) @ t=0.08
15.607014586331907
% es.tEX (V/m) @ t=0.08
-16.22735170772326
% es.tEY (V/m) @ t=0.08
0
% es.tEZ (V/m) @ t=0.08
15.6070145863319
% es.Ex (V/m) @ t=0.08
-16.227351707723244
% es.Ey (V/m) @ t=0.08
13.019357398821974
% es.Ez (V/m) @ t=0.08
15.607014586331907
% es.tEx (V/m) @ t=0.08
-16.22735170772326
% es.tEy (V/m) @ t=0.08
0
% es.tEz (V/m) @ t=0.08
15.6070145863319
% V (V) @ t=0.08
0.01078412258242253
% es.normE (V/m) @ t=0.1
34.7959604004581
% es.EX (V/m) @ t=0.1
-16.43265746218374
% es.EY (V/m) @ t=0.1
13.18407625062509
% es.EZ (V/m) @ t=0.1
15.804472357253808
% es.tEX (V/m) @ t=0.1
-16.432657462183727
% es.tEY (V/m) @ t=0.1
0
% es.tEZ (V/m) @ t=0.1
15.804472357253815
% es.Ex (V/m) @ t=0.1
-16.43265746218374
% es.Ey (V/m) @ t=0.1
13.18407625062509
% es.Ez (V/m) @ t=0.1
15.804472357253808
% es.tEx (V/m) @ t=0.1
-16.432657462183727
% es.tEy (V/m) @ t=0.1
0
% es.tEz (V/m) @ t=0.1
15.804472357253815
% V (V) @ t=0.1
0.010920561647871465
% es.normE (V/m) @ t=0.12
35.23069330672349
% es.EX (V/m) @ t=0.12
-16.63796321664418
% es.EY (V/m) @ t=0.12
13.348795102428141
% es.EZ (V/m) @ t=0.12
16.001930128175665
% es.tEX (V/m) @ t=0.12
-16.637963216644195
% es.tEY (V/m) @ t=0.12
0
% es.tEZ (V/m) @ t=0.12
16.001930128175673
% es.Ex (V/m) @ t=0.12
-16.63796321664418
% es.Ey (V/m) @ t=0.12
13.348795102428141
% es.Ez (V/m) @ t=0.12
16.001930128175665
% es.tEx (V/m) @ t=0.12
-16.637963216644195
% es.tEy (V/m) @ t=0.12
0
% es.tEz (V/m) @ t=0.12
16.001930128175673
% V (V) @ t=0.12
0.0110570007133204
% es.normE (V/m) @ t=0.14
35.68983958770332
% es.EX (V/m) @ t=0.14
-16.854798485463505
% es.EY (V/m) @ t=0.14
13.522764123185837
% es.EZ (V/m) @ t=0.14
16.210476398939235
% es.tEX (V/m) @ t=0.14
-16.854798485463505
% es.tEY (V/m) @ t=0.14
0
% es.tEZ (V/m) @ t=0.14
16.210476398939193
% es.Ex (V/m) @ t=0.14
-16.854798485463505
% es.Ey (V/m) @ t=0.14
13.522764123185837
% es.Ez (V/m) @ t=0.14
16.210476398939235
% es.tEx (V/m) @ t=0.14
-16.854798485463505
% es.tEy (V/m) @ t=0.14
0
% es.tEz (V/m) @ t=0.14
16.210476398939193
% V (V) @ t=0.14
0.011201101794509612
% es.normE (V/m) @ t=0.16
36.1558787755478
% es.EX (V/m) @ t=0.16
-17.07488901372976
% es.EY (V/m) @ t=0.16
13.699344849774121
% es.EZ (V/m) @ t=0.16
16.42215341248506
% es.tEX (V/m) @ t=0.16
-17.074889013729745
% es.tEY (V/m) @ t=0.16
0
% es.tEZ (V/m) @ t=0.16
16.422153412485045
% es.Ex (V/m) @ t=0.16
-17.07488901372976
% es.Ey (V/m) @ t=0.16
13.699344849774121
% es.Ez (V/m) @ t=0.16
16.42215341248506
% es.tEx (V/m) @ t=0.16
-17.074889013729745
% es.tEy (V/m) @ t=0.16
0
% es.tEz (V/m) @ t=0.16
16.422153412485045
% V (V) @ t=0.16
0.011347366180097011
% es.normE (V/m) @ t=0.18
36.62191796339236
% es.EX (V/m) @ t=0.18
-17.29497954199593
% es.EY (V/m) @ t=0.18
13.87592557636247
% es.EZ (V/m) @ t=0.18
16.633830426031004
% es.tEX (V/m) @ t=0.18
-17.294979541995943
% es.tEY (V/m) @ t=0.18
0
% es.tEZ (V/m) @ t=0.18
16.633830426031068
% es.Ex (V/m) @ t=0.18
-17.29497954199593
% es.Ey (V/m) @ t=0.18
13.87592557636247
% es.Ez (V/m) @ t=0.18
16.633830426031004
% es.tEx (V/m) @ t=0.18
-17.294979541995943
% es.tEy (V/m) @ t=0.18
0
% es.tEz (V/m) @ t=0.18
16.633830426031068
% V (V) @ t=0.18
0.011493630565684412
% es.normE (V/m) @ t=0.2
37.08795715123685
% es.EX (V/m) @ t=0.2
-17.51507007026217
% es.EY (V/m) @ t=0.2
14.052506302950654
% es.EZ (V/m) @ t=0.2
16.845507439576913
% es.tEX (V/m) @ t=0.2
-17.515070070262198
% es.tEY (V/m) @ t=0.2
0
% es.tEZ (V/m) @ t=0.2
16.845507439576977
% es.Ex (V/m) @ t=0.2
-17.51507007026217
% es.Ey (V/m) @ t=0.2
14.052506302950654
% es.Ez (V/m) @ t=0.2
16.845507439576913
% es.tEx (V/m) @ t=0.2
-17.515070070262198
% es.tEy (V/m) @ t=0.2
0
% es.tEz (V/m) @ t=0.2
16.845507439576977
% V (V) @ t=0.2
0.011639894951271814
% es.normE (V/m) @ t=0.22
37.55399633908143
% es.EX (V/m) @ t=0.22
-17.735160598528367
% es.EY (V/m) @ t=0.22
14.229087029539052
% es.EZ (V/m) @ t=0.22
17.0571844531228
% es.tEX (V/m) @ t=0.22
-17.73516059852834
% es.tEY (V/m) @ t=0.22
0
% es.tEZ (V/m) @ t=0.22
17.05718445312283
% es.Ex (V/m) @ t=0.22
-17.735160598528367
% es.Ey (V/m) @ t=0.22
14.229087029539052
% es.Ez (V/m) @ t=0.22
17.0571844531228
% es.tEx (V/m) @ t=0.22
-17.73516059852834
% es.tEy (V/m) @ t=0.22
0
% es.tEz (V/m) @ t=0.22
17.05718445312283
% V (V) @ t=0.22
0.011786159336859213
% es.normE (V/m) @ t=0.24
38.020035526925994
% es.EX (V/m) @ t=0.24
-17.955251126794593
% es.EY (V/m) @ t=0.24
14.40566775612735
% es.EZ (V/m) @ t=0.24
17.268861466668724
% es.tEX (V/m) @ t=0.24
-17.955251126794593
% es.tEY (V/m) @ t=0.24
0
% es.tEZ (V/m) @ t=0.24
17.268861466668625
% es.Ex (V/m) @ t=0.24
-17.955251126794593
% es.Ey (V/m) @ t=0.24
14.40566775612735
% es.Ez (V/m) @ t=0.24
17.268861466668724
% es.tEx (V/m) @ t=0.24
-17.955251126794593
% es.tEy (V/m) @ t=0.24
0
% es.tEz (V/m) @ t=0.24
17.268861466668625
% V (V) @ t=0.24
0.011932423722446614
% es.normE (V/m) @ t=0.26
38.50511724558204
% es.EX (V/m) @ t=0.26
-18.184334511302836
% es.EY (V/m) @ t=0.26
14.58946361229652
% es.EZ (V/m) @ t=0.26
17.489187853509463
% es.tEX (V/m) @ t=0.26
-18.18433451130285
% es.tEY (V/m) @ t=0.26
0
% es.tEZ (V/m) @ t=0.26
17.48918785350952
% es.Ex (V/m) @ t=0.26
-18.184334511302836
% es.Ey (V/m) @ t=0.26
14.58946361229652
% es.Ez (V/m) @ t=0.26
17.489187853509463
% es.tEx (V/m) @ t=0.26
-18.18433451130285
% es.tEy (V/m) @ t=0.26
0
% es.tEz (V/m) @ t=0.26
17.48918785350952
% V (V) @ t=0.26
0.012084664542059661
% es.normE (V/m) @ t=0.28
39.00463808296061
% es.EX (V/m) @ t=0.28
-18.420236785601432
% es.EY (V/m) @ t=0.28
14.778730385837349
% es.EZ (V/m) @ t=0.28
17.716072682036142
% es.tEX (V/m) @ t=0.28
-18.420236785601467
% es.tEY (V/m) @ t=0.28
0
% es.tEZ (V/m) @ t=0.28
17.7160726820361
% es.Ex (V/m) @ t=0.28
-18.420236785601432
% es.Ey (V/m) @ t=0.28
14.778730385837349
% es.Ez (V/m) @ t=0.28
17.716072682036142
% es.tEx (V/m) @ t=0.28
-18.420236785601467
% es.tEy (V/m) @ t=0.28
0
% es.tEz (V/m) @ t=0.28
17.7160726820361
% V (V) @ t=0.28
0.01224143703035098
% es.normE (V/m) @ t=0.3
39.50415892033924
% es.EX (V/m) @ t=0.3
-18.6561390599001
% es.EY (V/m) @ t=0.3
14.967997159378179
% es.EZ (V/m) @ t=0.3
17.942957510562763
% es.tEX (V/m) @ t=0.3
-18.65613905990007
% es.tEY (V/m) @ t=0.3
0
% es.tEZ (V/m) @ t=0.3
17.942957510562792
% es.Ex (V/m) @ t=0.3
-18.6561390599001
% es.Ey (V/m) @ t=0.3
14.967997159378179
% es.Ez (V/m) @ t=0.3
17.942957510562763
% es.tEx (V/m) @ t=0.3
-18.65613905990007
% es.tEy (V/m) @ t=0.3
0
% es.tEz (V/m) @ t=0.3
17.942957510562792
% V (V) @ t=0.3
0.012398209518642298
% es.normE (V/m) @ t=0.32
40.00367975771783
% es.EX (V/m) @ t=0.32
-18.892041334198694
% es.EY (V/m) @ t=0.32
15.157263932919008
% es.EZ (V/m) @ t=0.32
18.169842339089456
% es.tEX (V/m) @ t=0.32
-18.89204133419868
% es.tEY (V/m) @ t=0.32
0
% es.tEZ (V/m) @ t=0.32
18.169842339089428
% es.Ex (V/m) @ t=0.32
-18.892041334198694
% es.Ey (V/m) @ t=0.32
15.157263932919008
% es.Ez (V/m) @ t=0.32
18.169842339089456
% es.tEx (V/m) @ t=0.32
-18.89204133419868
% es.tEy (V/m) @ t=0.32
0
% es.tEz (V/m) @ t=0.32
18.169842339089428
% V (V) @ t=0.32
0.012554982006933618
% es.normE (V/m) @ t=0.34
40.503200595096416
% es.EX (V/m) @ t=0.34
-19.127943608497247
% es.EY (V/m) @ t=0.34
15.34653070645988
% es.EZ (V/m) @ t=0.34
18.396727167616064
% es.tEX (V/m) @ t=0.34
-19.127943608497226
% es.tEY (V/m) @ t=0.34
0
% es.tEZ (V/m) @ t=0.34
18.396727167616064
% es.Ex (V/m) @ t=0.34
-19.127943608497247
% es.Ey (V/m) @ t=0.34
15.34653070645988
% es.Ez (V/m) @ t=0.34
18.396727167616064
% es.tEx (V/m) @ t=0.34
-19.127943608497226
% es.tEy (V/m) @ t=0.34
0
% es.tEz (V/m) @ t=0.34
18.396727167616064
% V (V) @ t=0.34
0.012711754495224936
% es.normE (V/m) @ t=0.36
41.002721432475035
% es.EX (V/m) @ t=0.36
-19.3638458827959
% es.EY (V/m) @ t=0.36
15.535797480000682
% es.EZ (V/m) @ t=0.36
18.623611996142728
% es.tEX (V/m) @ t=0.36
-19.36384588279587
% es.tEY (V/m) @ t=0.36
0
% es.tEZ (V/m) @ t=0.36
18.623611996142756
% es.Ex (V/m) @ t=0.36
-19.3638458827959
% es.Ey (V/m) @ t=0.36
15.535797480000682
% es.Ez (V/m) @ t=0.36
18.623611996142728
% es.tEx (V/m) @ t=0.36
-19.36384588279587
% es.tEy (V/m) @ t=0.36
0
% es.tEz (V/m) @ t=0.36
18.623611996142756
% V (V) @ t=0.36
0.012868526983516254
% es.normE (V/m) @ t=0.38
41.51501901933375
% es.EX (V/m) @ t=0.38
-19.60578201887337
% es.EY (V/m) @ t=0.38
15.729905311883783
% es.EZ (V/m) @ t=0.38
18.85630015676123
% es.tEX (V/m) @ t=0.38
-19.605782018873356
% es.tEY (V/m) @ t=0.38
0
% es.tEZ (V/m) @ t=0.38
18.856300156761222
% es.Ex (V/m) @ t=0.38
-19.60578201887337
% es.Ey (V/m) @ t=0.38
15.729905311883783
% es.Ez (V/m) @ t=0.38
18.85630015676123
% es.tEx (V/m) @ t=0.38
-19.605782018873356
% es.tEy (V/m) @ t=0.38
0
% es.tEz (V/m) @ t=0.38
18.856300156761222
% V (V) @ t=0.38
0.013029309407447384
% es.normE (V/m) @ t=0.4
42.05026232099784
% es.EX (V/m) @ t=0.4
-19.85855434390261
% es.EY (V/m) @ t=0.4
15.93270718165585
% es.EZ (V/m) @ t=0.4
19.099410498960857
% es.tEX (V/m) @ t=0.4
-19.858554343902583
% es.tEY (V/m) @ t=0.4
0
% es.tEZ (V/m) @ t=0.4
19.09941049896088
% es.Ex (V/m) @ t=0.4
-19.85855434390261
% es.Ey (V/m) @ t=0.4
15.93270718165585
% es.Ez (V/m) @ t=0.4
19.099410498960857
% es.tEx (V/m) @ t=0.4
-19.858554343902583
% es.tEy (V/m) @ t=0.4
0
% es.tEz (V/m) @ t=0.4
19.09941049896088
% V (V) @ t=0.4
0.013197293259231788
% es.normE (V/m) @ t=0.42
42.585505622661955
% es.EX (V/m) @ t=0.42
-20.111326668931852
% es.EY (V/m) @ t=0.42
16.135509051427846
% es.EZ (V/m) @ t=0.42
19.342520841160507
% es.tEX (V/m) @ t=0.42
-20.111326668931838
% es.tEY (V/m) @ t=0.42
0
% es.tEZ (V/m) @ t=0.42
19.34252084116048
% es.Ex (V/m) @ t=0.42
-20.111326668931852
% es.Ey (V/m) @ t=0.42
16.135509051427846
% es.Ez (V/m) @ t=0.42
19.342520841160507
% es.tEx (V/m) @ t=0.42
-20.111326668931838
% es.tEy (V/m) @ t=0.42
0
% es.tEz (V/m) @ t=0.42
19.34252084116048
% V (V) @ t=0.42
0.013365277111016195
% es.normE (V/m) @ t=0.44
43.12074892432603
% es.EX (V/m) @ t=0.44
-20.364098993961008
% es.EY (V/m) @ t=0.44
16.338310921199984
% es.EZ (V/m) @ t=0.44
19.58563118336017
% es.tEX (V/m) @ t=0.44
-20.364098993961008
% es.tEY (V/m) @ t=0.44
0
% es.tEZ (V/m) @ t=0.44
19.585631183360192
% es.Ex (V/m) @ t=0.44
-20.364098993961008
% es.Ey (V/m) @ t=0.44
16.338310921199984
% es.Ez (V/m) @ t=0.44
19.58563118336017
% es.tEx (V/m) @ t=0.44
-20.364098993961008
% es.tEy (V/m) @ t=0.44
0
% es.tEz (V/m) @ t=0.44
19.585631183360192
% V (V) @ t=0.44
0.013533260962800601
% es.normE (V/m) @ t=0.46
43.65599222599024
% es.EX (V/m) @ t=0.46
-20.616871318990235
% es.EY (V/m) @ t=0.46
16.541112790972008
% es.EZ (V/m) @ t=0.46
19.828741525559856
% es.tEX (V/m) @ t=0.46
-20.61687131899022
% es.tEY (V/m) @ t=0.46
0
% es.tEZ (V/m) @ t=0.46
19.82874152555985
% es.Ex (V/m) @ t=0.46
-20.616871318990235
% es.Ey (V/m) @ t=0.46
16.541112790972008
% es.Ez (V/m) @ t=0.46
19.828741525559856
% es.tEx (V/m) @ t=0.46
-20.61687131899022
% es.tEy (V/m) @ t=0.46
0
% es.tEz (V/m) @ t=0.46
19.82874152555985
% V (V) @ t=0.46
0.013701244814585007
% es.normE (V/m) @ t=0.48
44.191235527654364
% es.EX (V/m) @ t=0.48
-20.86964364401942
% es.EY (V/m) @ t=0.48
16.74391466074414
% es.EZ (V/m) @ t=0.48
20.071851867759513
% es.tEX (V/m) @ t=0.48
-20.86964364401942
% es.tEY (V/m) @ t=0.48
0
% es.tEZ (V/m) @ t=0.48
20.07185186775945
% es.Ex (V/m) @ t=0.48
-20.86964364401942
% es.Ey (V/m) @ t=0.48
16.74391466074414
% es.Ez (V/m) @ t=0.48
20.071851867759513
% es.tEx (V/m) @ t=0.48
-20.86964364401942
% es.tEy (V/m) @ t=0.48
0
% es.tEz (V/m) @ t=0.48
20.07185186775945
% V (V) @ t=0.48
0.01386922866636941
% es.normE (V/m) @ t=0.5
44.72873372669979
% es.EX (V/m) @ t=0.5
-21.123480921324813
% es.EY (V/m) @ t=0.5
16.94757091505452
% es.EZ (V/m) @ t=0.5
20.315986309515786
% es.tEX (V/m) @ t=0.5
-21.1234809213248
% es.tEY (V/m) @ t=0.5
0
% es.tEZ (V/m) @ t=0.5
20.31598630951578
% es.Ex (V/m) @ t=0.5
-21.123480921324813
% es.Ey (V/m) @ t=0.5
16.94757091505452
% es.Ez (V/m) @ t=0.5
20.315986309515786
% es.tEx (V/m) @ t=0.5
-21.1234809213248
% es.tEy (V/m) @ t=0.5
0
% es.tEz (V/m) @ t=0.5
20.31598630951578
% V (V) @ t=0.5
0.014037920199115036
% es.normE (V/m) @ t=0.52
45.28213367629037
% es.EX (V/m) @ t=0.52
-21.384828343251257
% es.EY (V/m) @ t=0.52
17.15725237029458
% es.EZ (V/m) @ t=0.52
20.567342798633497
% es.tEX (V/m) @ t=0.52
-21.384828343251243
% es.tEY (V/m) @ t=0.52
0
% es.tEZ (V/m) @ t=0.52
20.567342798633433
% es.Ex (V/m) @ t=0.52
-21.384828343251257
% es.Ey (V/m) @ t=0.52
17.15725237029458
% es.Ez (V/m) @ t=0.52
20.567342798633497
% es.tEx (V/m) @ t=0.52
-21.384828343251243
% es.tEy (V/m) @ t=0.52
0
% es.tEz (V/m) @ t=0.52
20.567342798633433
% V (V) @ t=0.52
0.014211602365228025
% es.normE (V/m) @ t=0.54
45.84037265271441
% es.EX (V/m) @ t=0.54
-21.64846116081638
% es.EY (V/m) @ t=0.54
17.36876734121539
% es.EZ (V/m) @ t=0.54
20.82089701314473
% es.tEX (V/m) @ t=0.54
-21.64846116081638
% es.tEY (V/m) @ t=0.54
0
% es.tEZ (V/m) @ t=0.54
20.82089701314476
% es.Ex (V/m) @ t=0.54
-21.64846116081638
% es.Ey (V/m) @ t=0.54
17.36876734121539
% es.Ez (V/m) @ t=0.54
20.82089701314473
% es.tEx (V/m) @ t=0.54
-21.64846116081638
% es.tEy (V/m) @ t=0.54
0
% es.tEz (V/m) @ t=0.54
20.82089701314476
% V (V) @ t=0.54
0.014386803220035783
% es.normE (V/m) @ t=0.56
46.403450655971724
% es.EX (V/m) @ t=0.56
-21.914379374020186
% es.EY (V/m) @ t=0.56
17.582115827816843
% es.EZ (V/m) @ t=0.56
21.07664895304942
% es.tEX (V/m) @ t=0.56
-21.914379374020157
% es.tEY (V/m) @ t=0.56
0
% es.tEZ (V/m) @ t=0.56
21.076648953049414
% es.Ex (V/m) @ t=0.56
-21.914379374020186
% es.Ey (V/m) @ t=0.56
17.582115827816843
% es.Ez (V/m) @ t=0.56
21.07664895304942
% es.tEx (V/m) @ t=0.56
-21.914379374020157
% es.tEy (V/m) @ t=0.56
0
% es.tEz (V/m) @ t=0.56
21.076648953049414
% V (V) @ t=0.56
0.014563522763538311
% es.normE (V/m) @ t=0.58
46.97136768606255
% es.EX (V/m) @ t=0.58
-22.18258298286264
% es.EY (V/m) @ t=0.58
17.79729783009904
% es.EZ (V/m) @ t=0.58
21.334598618347677
% es.tEX (V/m) @ t=0.58
-22.182582982862684
% es.tEY (V/m) @ t=0.58
0
% es.tEZ (V/m) @ t=0.58
21.334598618347684
% es.Ex (V/m) @ t=0.58
-22.18258298286264
% es.Ey (V/m) @ t=0.58
17.79729783009904
% es.Ez (V/m) @ t=0.58
21.334598618347677
% es.tEx (V/m) @ t=0.58
-22.182582982862684
% es.tEy (V/m) @ t=0.58
0
% es.tEz (V/m) @ t=0.58
21.334598618347684
% V (V) @ t=0.58
0.014741760995735612
% es.normE (V/m) @ t=0.6
47.544123742986784
% es.EX (V/m) @ t=0.6
-22.453071987343876
% es.EY (V/m) @ t=0.6
18.01431334806189
% es.EZ (V/m) @ t=0.6
21.594746009039405
% es.tEX (V/m) @ t=0.6
-22.45307198734386
% es.tEY (V/m) @ t=0.6
0
% es.tEZ (V/m) @ t=0.6
21.594746009039454
% es.Ex (V/m) @ t=0.6
-22.453071987343876
% es.Ey (V/m) @ t=0.6
18.01431334806189
% es.Ez (V/m) @ t=0.6
21.594746009039405
% es.tEx (V/m) @ t=0.6
-22.45307198734386
% es.tEy (V/m) @ t=0.6
0
% es.tEz (V/m) @ t=0.6
21.594746009039454
% V (V) @ t=0.6
0.014921517916627682
% es.normE (V/m) @ t=0.62
48.121718826744356
% es.EX (V/m) @ t=0.62
-22.725846387463747
% es.EY (V/m) @ t=0.62
18.233162381705476
% es.EZ (V/m) @ t=0.62
21.857091125124597
% es.tEX (V/m) @ t=0.62
-22.725846387463747
% es.tEY (V/m) @ t=0.62
0
% es.tEZ (V/m) @ t=0.62
21.85709112512461
% es.Ex (V/m) @ t=0.62
-22.725846387463747
% es.Ey (V/m) @ t=0.62
18.233162381705476
% es.Ez (V/m) @ t=0.62
21.857091125124597
% es.tEx (V/m) @ t=0.62
-22.725846387463747
% es.tEy (V/m) @ t=0.62
0
% es.tEz (V/m) @ t=0.62
21.85709112512461
% V (V) @ t=0.62
0.015102793526214521
% es.normE (V/m) @ t=0.64
48.70415293733533
% es.EX (V/m) @ t=0.64
-23.000906183222355
% es.EY (V/m) @ t=0.64
18.453844931029735
% es.EZ (V/m) @ t=0.64
22.12163396660315
% es.tEX (V/m) @ t=0.64
-23.00090618322234
% es.tEY (V/m) @ t=0.64
0
% es.tEZ (V/m) @ t=0.64
22.121633966603156
% es.Ex (V/m) @ t=0.64
-23.000906183222355
% es.Ey (V/m) @ t=0.64
18.453844931029735
% es.Ez (V/m) @ t=0.64
22.12163396660315
% es.tEx (V/m) @ t=0.64
-23.00090618322234
% es.tEy (V/m) @ t=0.64
0
% es.tEz (V/m) @ t=0.64
22.121633966603156
% V (V) @ t=0.64
0.015285587824496136
% es.normE (V/m) @ t=0.66
49.29142607475974
% es.EX (V/m) @ t=0.66
-23.2782513746195
% es.EY (V/m) @ t=0.66
18.676360996034695
% es.EZ (V/m) @ t=0.66
22.38837453347523
% es.tEX (V/m) @ t=0.66
-23.278251374619522
% es.tEY (V/m) @ t=0.66
0
% es.tEZ (V/m) @ t=0.66
22.388374533475258
% es.Ex (V/m) @ t=0.66
-23.2782513746195
% es.Ey (V/m) @ t=0.66
18.676360996034695
% es.Ez (V/m) @ t=0.66
22.38837453347523
% es.tEx (V/m) @ t=0.66
-23.278251374619522
% es.tEy (V/m) @ t=0.66
0
% es.tEz (V/m) @ t=0.66
22.388374533475258
% V (V) @ t=0.66
0.01546990081147252
% es.normE (V/m) @ t=0.68
49.88353823901781
% es.EX (V/m) @ t=0.68
-23.557881961655454
% es.EY (V/m) @ t=0.68
18.9007105767204
% es.EZ (V/m) @ t=0.68
22.65731282574096
% es.tEX (V/m) @ t=0.68
-23.557881961655454
% es.tEY (V/m) @ t=0.68
0
% es.tEZ (V/m) @ t=0.68
22.657312825740973
% es.Ex (V/m) @ t=0.68
-23.557881961655454
% es.Ey (V/m) @ t=0.68
18.9007105767204
% es.Ez (V/m) @ t=0.68
22.65731282574096
% es.tEx (V/m) @ t=0.68
-23.557881961655454
% es.tEy (V/m) @ t=0.68
0
% es.tEz (V/m) @ t=0.68
22.657312825740973
% V (V) @ t=0.68
0.015655732487143675
% es.normE (V/m) @ t=0.7
50.48048943010919
% es.EX (V/m) @ t=0.7
-23.83979794433013
% es.EY (V/m) @ t=0.7
19.12689367308677
% es.EZ (V/m) @ t=0.7
22.92844884339995
% es.tEX (V/m) @ t=0.7
-23.83979794433011
% es.tEY (V/m) @ t=0.7
0
% es.tEZ (V/m) @ t=0.7
22.928448843399963
% es.Ex (V/m) @ t=0.7
-23.83979794433013
% es.Ey (V/m) @ t=0.7
19.12689367308677
% es.Ez (V/m) @ t=0.7
22.92844884339995
% es.tEx (V/m) @ t=0.7
-23.83979794433011
% es.tEy (V/m) @ t=0.7
0
% es.tEz (V/m) @ t=0.7
22.928448843399963
% V (V) @ t=0.7
0.0158430828515096
% es.normE (V/m) @ t=0.72
51.082279648033975
% es.EX (V/m) @ t=0.72
-24.1239993226433
% es.EY (V/m) @ t=0.72
19.354910285133847
% es.EZ (V/m) @ t=0.72
23.20178258645246
% es.tEX (V/m) @ t=0.72
-24.12399932264333
% es.tEY (V/m) @ t=0.72
0
% es.tEZ (V/m) @ t=0.72
23.20178258645251
% es.Ex (V/m) @ t=0.72
-24.1239993226433
% es.Ey (V/m) @ t=0.72
19.354910285133847
% es.Ez (V/m) @ t=0.72
23.20178258645246
% es.tEx (V/m) @ t=0.72
-24.12399932264333
% es.tEy (V/m) @ t=0.72
0
% es.tEz (V/m) @ t=0.72
23.20178258645251
% V (V) @ t=0.72
0.016031951904570296
% es.normE (V/m) @ t=0.74
51.68890889279261
% es.EX (V/m) @ t=0.74
-24.410486096595378
% es.EY (V/m) @ t=0.74
19.584760412861534
% es.EZ (V/m) @ t=0.74
23.477314054898564
% es.tEX (V/m) @ t=0.74
-24.41048609659535
% es.tEY (V/m) @ t=0.74
0
% es.tEZ (V/m) @ t=0.74
23.477314054898557
% es.Ex (V/m) @ t=0.74
-24.410486096595378
% es.Ey (V/m) @ t=0.74
19.584760412861534
% es.Ez (V/m) @ t=0.74
23.477314054898564
% es.tEx (V/m) @ t=0.74
-24.41048609659535
% es.tEy (V/m) @ t=0.74
0
% es.tEz (V/m) @ t=0.74
23.477314054898557
% V (V) @ t=0.74
0.016222339646325766
% es.normE (V/m) @ t=0.76
52.30697855849896
% es.EX (V/m) @ t=0.76
-24.702372678654484
% es.EY (V/m) @ t=0.76
19.818944710550007
% es.EZ (V/m) @ t=0.76
23.75804606990082
% es.tEX (V/m) @ t=0.76
-24.70237267865447
% es.tEY (V/m) @ t=0.76
0
% es.tEZ (V/m) @ t=0.76
23.758046069900843
% es.Ex (V/m) @ t=0.76
-24.702372678654484
% es.Ey (V/m) @ t=0.76
19.818944710550007
% es.Ez (V/m) @ t=0.76
23.75804606990082
% es.tEx (V/m) @ t=0.76
-24.70237267865447
% es.tEy (V/m) @ t=0.76
0
% es.tEz (V/m) @ t=0.76
23.758046069900843
% V (V) @ t=0.76
0.016416318359124965
% es.normE (V/m) @ t=0.78
52.93359364541802
% es.EX (V/m) @ t=0.78
-24.998293262884033
% es.EY (V/m) @ t=0.78
20.056366532043157
% es.EZ (V/m) @ t=0.78
24.042661763185365
% es.tEX (V/m) @ t=0.78
-24.998293262884033
% es.tEY (V/m) @ t=0.78
0
% es.tEZ (V/m) @ t=0.78
24.04266176318538
% es.Ex (V/m) @ t=0.78
-24.998293262884033
% es.Ey (V/m) @ t=0.78
20.056366532043157
% es.Ez (V/m) @ t=0.78
24.042661763185365
% es.tEx (V/m) @ t=0.78
-24.998293262884033
% es.tEy (V/m) @ t=0.78
0
% es.tEz (V/m) @ t=0.78
24.04266176318538
% V (V) @ t=0.78
0.016612979256619385
% es.normE (V/m) @ t=0.8
53.56643405111483
% es.EX (V/m) @ t=0.8
-25.297153268983465
% es.EY (V/m) @ t=0.8
20.296147006304913
% es.EZ (V/m) @ t=0.8
24.330105773934385
% es.tEX (V/m) @ t=0.8
-25.297153268983422
% es.tEY (V/m) @ t=0.8
0
% es.tEZ (V/m) @ t=0.8
24.33010577393435
% es.Ex (V/m) @ t=0.8
-25.297153268983465
% es.Ey (V/m) @ t=0.8
20.296147006304913
% es.Ez (V/m) @ t=0.8
24.330105773934385
% es.tEx (V/m) @ t=0.8
-25.297153268983422
% es.tEy (V/m) @ t=0.8
0
% es.tEz (V/m) @ t=0.8
24.33010577393435
% V (V) @ t=0.8
0.016811594021844234
% es.normE (V/m) @ t=0.82
54.20549977558953
% es.EX (V/m) @ t=0.82
-25.598952696952765
% es.EY (V/m) @ t=0.82
20.538286133335205
% es.EZ (V/m) @ t=0.82
24.620378102147704
% es.tEX (V/m) @ t=0.82
-25.598952696952793
% es.tEY (V/m) @ t=0.82
0
% es.tEZ (V/m) @ t=0.82
24.620378102147697
% es.Ex (V/m) @ t=0.82
-25.598952696952765
% es.Ey (V/m) @ t=0.82
20.538286133335205
% es.Ez (V/m) @ t=0.82
24.620378102147704
% es.tEx (V/m) @ t=0.82
-25.598952696952793
% es.tEy (V/m) @ t=0.82
0
% es.tEz (V/m) @ t=0.82
24.620378102147697
% V (V) @ t=0.82
0.017012162654799497
% es.normE (V/m) @ t=0.84
54.85079081884256
% es.EX (V/m) @ t=0.84
-25.903691546791975
% es.EY (V/m) @ t=0.84
20.78278391313414
% es.EZ (V/m) @ t=0.84
24.913478747825316
% es.tEX (V/m) @ t=0.84
-25.903691546792004
% es.tEY (V/m) @ t=0.84
0
% es.tEZ (V/m) @ t=0.84
24.91347874782531
% es.Ex (V/m) @ t=0.84
-25.903691546791975
% es.Ey (V/m) @ t=0.84
20.78278391313414
% es.Ez (V/m) @ t=0.84
24.913478747825316
% es.tEx (V/m) @ t=0.84
-25.903691546792004
% es.tEy (V/m) @ t=0.84
0
% es.tEz (V/m) @ t=0.84
24.91347874782531
% V (V) @ t=0.84
0.01721468515548519
% es.normE (V/m) @ t=0.86
55.50230718087424
% es.EX (V/m) @ t=0.86
-26.211369818501055
% es.EY (V/m) @ t=0.86
21.029640345701637
% es.EZ (V/m) @ t=0.86
25.209407710967135
% es.tEX (V/m) @ t=0.86
-26.21136981850107
% es.tEY (V/m) @ t=0.86
0
% es.tEZ (V/m) @ t=0.86
25.209407710967128
% es.Ex (V/m) @ t=0.86
-26.211369818501055
% es.Ey (V/m) @ t=0.86
21.029640345701637
% es.Ez (V/m) @ t=0.86
25.209407710967135
% es.tEx (V/m) @ t=0.86
-26.21136981850107
% es.tEy (V/m) @ t=0.86
0
% es.tEz (V/m) @ t=0.86
25.209407710967128
% V (V) @ t=0.86
0.017419161523901307
% es.normE (V/m) @ t=0.88
56.16004886168517
% es.EX (V/m) @ t=0.88
-26.521987512080017
% es.EY (V/m) @ t=0.88
21.278855431037854
% es.EZ (V/m) @ t=0.88
25.508164991573494
% es.tEX (V/m) @ t=0.88
-26.521987512080045
% es.tEY (V/m) @ t=0.88
0
% es.tEZ (V/m) @ t=0.88
25.508164991573494
% es.Ex (V/m) @ t=0.88
-26.521987512080017
% es.Ey (V/m) @ t=0.88
21.278855431037854
% es.Ez (V/m) @ t=0.88
25.508164991573494
% es.tEx (V/m) @ t=0.88
-26.521987512080045
% es.tEy (V/m) @ t=0.88
0
% es.tEz (V/m) @ t=0.88
25.508164991573494
% V (V) @ t=0.88
0.01762559176004784
% es.normE (V/m) @ t=0.9
56.82401586127563
% es.EX (V/m) @ t=0.9
-26.835544627528904
% es.EY (V/m) @ t=0.9
21.530429169142515
% es.EZ (V/m) @ t=0.9
25.809750589644082
% es.tEX (V/m) @ t=0.9
-26.835544627528904
% es.tEY (V/m) @ t=0.9
0
% es.tEZ (V/m) @ t=0.9
25.809750589644125
% es.Ex (V/m) @ t=0.9
-26.835544627528904
% es.Ey (V/m) @ t=0.9
21.530429169142515
% es.Ez (V/m) @ t=0.9
25.809750589644082
% es.tEx (V/m) @ t=0.9
-26.835544627528904
% es.tEy (V/m) @ t=0.9
0
% es.tEz (V/m) @ t=0.9
25.809750589644125
% V (V) @ t=0.9
0.0178339758639248
% es.normE (V/m) @ t=0.92
57.49420817964618
% es.EX (V/m) @ t=0.92
-27.152041164847617
% es.EY (V/m) @ t=0.92
21.784361560015853
% es.EZ (V/m) @ t=0.92
26.114164505179076
% es.tEX (V/m) @ t=0.92
-27.152041164847617
% es.tEY (V/m) @ t=0.92
0
% es.tEZ (V/m) @ t=0.92
26.114164505179076
% es.Ex (V/m) @ t=0.92
-27.152041164847617
% es.Ey (V/m) @ t=0.92
21.784361560015853
% es.Ez (V/m) @ t=0.92
26.114164505179076
% es.tEx (V/m) @ t=0.92
-27.152041164847617
% es.tEy (V/m) @ t=0.92
0
% es.tEz (V/m) @ t=0.92
26.114164505179076
% V (V) @ t=0.92
0.01804431383553219
% es.normE (V/m) @ t=0.94
58.17062581679732
% es.EX (V/m) @ t=0.94
-27.47147712403624
% es.EY (V/m) @ t=0.94
22.040652603657797
% es.EZ (V/m) @ t=0.94
26.421406738178327
% es.tEX (V/m) @ t=0.94
-27.47147712403624
% es.tEY (V/m) @ t=0.94
0
% es.tEZ (V/m) @ t=0.94
26.42140673817829
% es.Ex (V/m) @ t=0.94
-27.47147712403624
% es.Ey (V/m) @ t=0.94
22.040652603657797
% es.Ez (V/m) @ t=0.94
26.421406738178327
% es.tEx (V/m) @ t=0.94
-27.47147712403624
% es.tEy (V/m) @ t=0.94
0
% es.tEz (V/m) @ t=0.94
26.42140673817829
% V (V) @ t=0.94
0.01825660567487
% es.normE (V/m) @ t=0.96
58.853268772729464
% es.EX (V/m) @ t=0.96
-27.793852505094847
% es.EY (V/m) @ t=0.96
22.29930230006829
% es.EZ (V/m) @ t=0.96
26.731477288641948
% es.tEX (V/m) @ t=0.96
-27.79385250509486
% es.tEY (V/m) @ t=0.96
0
% es.tEZ (V/m) @ t=0.96
26.731477288641997
% es.Ex (V/m) @ t=0.96
-27.793852505094847
% es.Ey (V/m) @ t=0.96
22.29930230006829
% es.Ez (V/m) @ t=0.96
26.731477288641948
% es.tEx (V/m) @ t=0.96
-27.79385250509486
% es.tEy (V/m) @ t=0.96
0
% es.tEz (V/m) @ t=0.96
26.731477288641997
% V (V) @ t=0.96
0.01847085138193823
% es.normE (V/m) @ t=0.98
59.54213704744329
% es.EX (V/m) @ t=0.98
-28.11916730802318
% es.EY (V/m) @ t=0.98
22.56031064924744
% es.EZ (V/m) @ t=0.98
27.04437615656999
% es.tEX (V/m) @ t=0.98
-28.119167308023208
% es.tEY (V/m) @ t=0.98
0
% es.tEZ (V/m) @ t=0.98
27.044376156570024
% es.Ex (V/m) @ t=0.98
-28.11916730802318
% es.Ey (V/m) @ t=0.98
22.56031064924744
% es.Ez (V/m) @ t=0.98
27.04437615656999
% es.tEx (V/m) @ t=0.98
-28.119167308023208
% es.tEy (V/m) @ t=0.98
0
% es.tEz (V/m) @ t=0.98
27.044376156570024
% V (V) @ t=0.98
0.018687050956736888
% es.normE (V/m) @ t=1
60.23865337596687
% es.EX (V/m) @ t=1
-28.448095497637382
% es.EY (V/m) @ t=1
22.82421711019525
% es.EZ (V/m) @ t=1
27.360746636858046
% es.tEX (V/m) @ t=1
-28.44809549763744
% es.tEY (V/m) @ t=1
0
% es.tEZ (V/m) @ t=1
27.36074663685804
% es.Ex (V/m) @ t=1
-28.448095497637382
% es.Ey (V/m) @ t=1
22.82421711019525
% es.Ez (V/m) @ t=1
27.360746636858046
% es.tEx (V/m) @ t=1
-28.44809549763744
% es.tEy (V/m) @ t=1
0
% es.tEz (V/m) @ t=1
27.36074663685804
% V (V) @ t=1
0.018905650613951417
% es.normE (V/m) @ t=1.02
60.945160739467894
% es.EX (V/m) @ t=1.02
-28.781746969204193
% es.EY (V/m) @ t=1.02
23.091910072003486
% es.EZ (V/m) @ t=1.02
27.681648117092912
% es.tEX (V/m) @ t=1.02
-28.781746969204136
% es.tEY (V/m) @ t=1.02
0
% es.tEZ (V/m) @ t=1.02
27.681648117092834
% es.Ex (V/m) @ t=1.02
-28.781746969204193
% es.Ey (V/m) @ t=1.02
23.091910072003486
% es.Ez (V/m) @ t=1.02
27.681648117092912
% es.tEx (V/m) @ t=1.02
-28.781746969204136
% es.tEy (V/m) @ t=1.02
0
% es.tEz (V/m) @ t=1.02
27.681648117092834
% V (V) @ t=1.02
0.019127385186551715
% es.normE (V/m) @ t=1.04
61.65863321772567
% es.EX (V/m) @ t=1.04
-29.118688311916557
% es.EY (V/m) @ t=1.04
23.36224219531229
% es.EZ (V/m) @ t=1.04
28.005712416275138
% es.tEX (V/m) @ t=1.04
-29.1186883119165
% es.tEY (V/m) @ t=1.04
0
% es.tEZ (V/m) @ t=1.04
28.005712416275117
% es.Ex (V/m) @ t=1.04
-29.118688311916557
% es.Ey (V/m) @ t=1.04
23.36224219531229
% es.Ez (V/m) @ t=1.04
28.005712416275138
% es.tEx (V/m) @ t=1.04
-29.1186883119165