% Model:              1 neuron.mph
% Version:            COMSOL 6.0.0.405
% Date:               Mar 16 2023, 20:16
% Dimension:          0
% Nodes:              14017
% Expressions:        14017
% Description:        Electric field norm, Electric field, X component, Electric field, Y component, Electric field, Z component, Tangential electric field, X component, Tangential electric field, Y component, Tangential electric field, Z component, Electric field, x component, Electric field, y component, Electric field, z component, Tangential electric field, x component, Tangential electric field, y component, Tangential electric field, z component, Electric potential
% Length unit:        mm
% x
1.33
% y
12.2
% z
1
% es.normE (V/m) @ t=0
2.924853969079635
% es.EX (V/m) @ t=0
0.9027948247894384
% es.EY (V/m) @ t=0
0.2187145768960237
% es.EZ (V/m) @ t=0
2.773406755347696
% es.tEX (V/m) @ t=0
0.9027948247894386
% es.tEY (V/m) @ t=0
0
% es.tEZ (V/m) @ t=0
2.7734067553476898
% es.Ex (V/m) @ t=0
0.9027948247894384
% es.Ey (V/m) @ t=0
0.2187145768960237
% es.Ez (V/m) @ t=0
2.773406755347696
% es.tEx (V/m) @ t=0
0.9027948247894386
% es.tEy (V/m) @ t=0
0
% es.tEz (V/m) @ t=0
2.7734067553476898
% V (V) @ t=0
0.013679614841152826
% es.normE (V/m) @ t=0.02
2.5347133334305303
% es.EX (V/m) @ t=0.02
0.7823727614660827
% es.EY (V/m) @ t=0.02
0.18954065703699907
% es.EZ (V/m) @ t=0.02
2.403467372382922
% es.tEX (V/m) @ t=0.02
0.7823727614660854
% es.tEY (V/m) @ t=0.02
0
% es.tEZ (V/m) @ t=0.02
2.4034673723829147
% es.Ex (V/m) @ t=0.02
0.7823727614660827
% es.Ey (V/m) @ t=0.02
0.18954065703699907
% es.Ez (V/m) @ t=0.02
2.403467372382922
% es.tEx (V/m) @ t=0.02
0.7823727614660854
% es.tEy (V/m) @ t=0.02
0
% es.tEz (V/m) @ t=0.02
2.4034673723829147
% V (V) @ t=0.02
0.011854917874251174
% es.normE (V/m) @ t=0.04
2.566678908085118
% es.EX (V/m) @ t=0.04
0.7922393084486538
% es.EY (V/m) @ t=0.04
0.19193085745662697
% es.EZ (V/m) @ t=0.04
2.4337778138066732
% es.tEX (V/m) @ t=0.04
0.7922393084486572
% es.tEY (V/m) @ t=0.04
0
% es.tEZ (V/m) @ t=0.04
2.4337778138066923
% es.Ex (V/m) @ t=0.04
0.7922393084486538
% es.Ey (V/m) @ t=0.04
0.19193085745662697
% es.Ez (V/m) @ t=0.04
2.4337778138066732
% es.tEx (V/m) @ t=0.04
0.7922393084486572
% es.tEy (V/m) @ t=0.04
0
% es.tEz (V/m) @ t=0.04
2.4337778138066923
% V (V) @ t=0.04
0.01200443437260215
% es.normE (V/m) @ t=0.06
2.5989482927730636
% es.EX (V/m) @ t=0.06
0.8021995612945552
% es.EY (V/m) @ t=0.06
0.19434361330538164
% es.EZ (V/m) @ t=0.06
2.464376369035966
% es.tEX (V/m) @ t=0.06
0.8021995612945503
% es.tEY (V/m) @ t=0.06
0
% es.tEZ (V/m) @ t=0.06
2.4643763690359766
% es.Ex (V/m) @ t=0.06
0.8021995612945552
% es.Ey (V/m) @ t=0.06
0.19434361330538164
% es.Ez (V/m) @ t=0.06
2.464376369035966
% es.tEx (V/m) @ t=0.06
0.8021995612945503
% es.tEy (V/m) @ t=0.06
0
% es.tEz (V/m) @ t=0.06
2.4643763690359766
% V (V) @ t=0.06
0.012155388967427738
% es.normE (V/m) @ t=0.08
2.6322118539155
% es.EX (V/m) @ t=0.08
0.8124669377556477
% es.EY (V/m) @ t=0.08
0.19683131939753207
% es.EZ (V/m) @ t=0.08
2.4959174927017456
% es.tEX (V/m) @ t=0.08
0.8124669377556515
% es.tEY (V/m) @ t=0.08
0
% es.tEZ (V/m) @ t=0.08
2.495917492701743
% es.Ex (V/m) @ t=0.08
0.8124669377556477
% es.Ey (V/m) @ t=0.08
0.19683131939753207
% es.Ez (V/m) @ t=0.08
2.4959174927017456
% es.tEx (V/m) @ t=0.08
0.8124669377556515
% es.tEy (V/m) @ t=0.08
0
% es.tEz (V/m) @ t=0.08
2.495917492701743
% V (V) @ t=0.08
0.012310929265272507
% es.normE (V/m) @ t=0.1
2.6655877718232093
% es.EX (V/m) @ t=0.1
0.82276902376528
% es.EY (V/m) @ t=0.1
0.19932749598490385
% es.EZ (V/m) @ t=0.1
2.527565140657054
% es.tEX (V/m) @ t=0.1
0.8227690237652752
% es.tEY (V/m) @ t=0.1
0
% es.tEZ (V/m) @ t=0.1
2.527565140657039
% es.Ex (V/m) @ t=0.1
0.82276902376528
% es.Ey (V/m) @ t=0.1
0.19932749598490385
% es.Ez (V/m) @ t=0.1
2.527565140657054
% es.tEx (V/m) @ t=0.1
0.8227690237652752
% es.tEy (V/m) @ t=0.1
0
% es.tEz (V/m) @ t=0.1
2.527565140657039
% V (V) @ t=0.1
0.012466987815943359
% es.normE (V/m) @ t=0.12
2.698963689730985
% es.EX (V/m) @ t=0.12
0.8330711097749042
% es.EY (V/m) @ t=0.12
0.2018236725722362
% es.EZ (V/m) @ t=0.12
2.559212788612331
% es.tEX (V/m) @ t=0.12
0.833071109774906
% es.tEY (V/m) @ t=0.12
0
% es.tEZ (V/m) @ t=0.12
2.559212788612335
% es.Ex (V/m) @ t=0.12
0.8330711097749042
% es.Ey (V/m) @ t=0.12
0.2018236725722362
% es.Ez (V/m) @ t=0.12
2.559212788612331
% es.tEx (V/m) @ t=0.12
0.833071109774906
% es.tEy (V/m) @ t=0.12
0
% es.tEz (V/m) @ t=0.12
2.559212788612335
% V (V) @ t=0.12
0.01262304636661421
% es.normE (V/m) @ t=0.14
2.734259344749379
% es.EX (V/m) @ t=0.14
0.8439660451053157
% es.EY (V/m) @ t=0.14
0.20446410044884722
% es.EZ (V/m) @ t=0.14
2.592680621118984
% es.tEX (V/m) @ t=0.14
0.8439660451053257
% es.tEY (V/m) @ t=0.14
0
% es.tEZ (V/m) @ t=0.14
2.5926806211189923
% es.Ex (V/m) @ t=0.14
0.8439660451053157
% es.Ey (V/m) @ t=0.14
0.20446410044884722
% es.Ez (V/m) @ t=0.14
2.592680621118984
% es.tEx (V/m) @ t=0.14
0.8439660451053257
% es.tEy (V/m) @ t=0.14
0
% es.tEz (V/m) @ t=0.14
2.5926806211189923
% V (V) @ t=0.14
0.012788010161631818
% es.normE (V/m) @ t=0.16
2.7700171262949542
% es.EX (V/m) @ t=0.16
0.8550036934122858
% es.EY (V/m) @ t=0.16
0.20713925305254532
% es.EZ (V/m) @ t=0.16
2.6265866154756496
% es.tEX (V/m) @ t=0.16
0.8550036934122858
% es.tEY (V/m) @ t=0.16
0
% es.tEZ (V/m) @ t=0.16
2.6265866154756683
% es.Ex (V/m) @ t=0.16
0.8550036934122858
% es.Ey (V/m) @ t=0.16
0.20713925305254532
% es.Ez (V/m) @ t=0.16
2.6265866154756496
% es.tEx (V/m) @ t=0.16
0.8550036934122858
% es.tEy (V/m) @ t=0.16
0
% es.tEz (V/m) @ t=0.16
2.6265866154756683
% V (V) @ t=0.16
0.012955117661437376
% es.normE (V/m) @ t=0.18
2.805774907841447
% es.EX (V/m) @ t=0.18
0.8660413417192361
% es.EY (V/m) @ t=0.18
0.20981440565623743
% es.EZ (V/m) @ t=0.18
2.6604926098322723
% es.tEX (V/m) @ t=0.18
0.8660413417192387
% es.tEY (V/m) @ t=0.18
0
% es.tEZ (V/m) @ t=0.18
2.6604926098322856
% es.Ex (V/m) @ t=0.18
0.8660413417192361
% es.Ey (V/m) @ t=0.18
0.20981440565623743
% es.Ez (V/m) @ t=0.18
2.6604926098322723
% es.tEx (V/m) @ t=0.18
0.8660413417192387
% es.tEy (V/m) @ t=0.18
0
% es.tEz (V/m) @ t=0.18
2.6604926098322856
% V (V) @ t=0.18
0.013122225161242935
% es.normE (V/m) @ t=0.2
2.8415326893889117
% es.EX (V/m) @ t=0.2
0.8770789900261948
% es.EY (V/m) @ t=0.2
0.2124895582599462
% es.EZ (V/m) @ t=0.2
2.6943986041889376
% es.tEX (V/m) @ t=0.2
0.8770789900261988
% es.tEY (V/m) @ t=0.2
0
% es.tEZ (V/m) @ t=0.2
2.6943986041889474
% es.Ex (V/m) @ t=0.2
0.8770789900261948
% es.Ey (V/m) @ t=0.2
0.2124895582599462
% es.Ez (V/m) @ t=0.2
2.6943986041889376
% es.tEx (V/m) @ t=0.2
0.8770789900261988
% es.tEy (V/m) @ t=0.2
0
% es.tEz (V/m) @ t=0.2
2.6943986041889474
% V (V) @ t=0.2
0.013289332661048491
% es.normE (V/m) @ t=0.22
2.877290470937252
% es.EX (V/m) @ t=0.22
0.8881166383331511
% es.EY (V/m) @ t=0.22
0.215164710863609
% es.EZ (V/m) @ t=0.22
2.7283045985455887
% es.tEX (V/m) @ t=0.22
0.8881166383331518
% es.tEY (V/m) @ t=0.22
0
% es.tEZ (V/m) @ t=0.22
2.728304598545609
% es.Ex (V/m) @ t=0.22
0.8881166383331511
% es.Ey (V/m) @ t=0.22
0.215164710863609
% es.Ez (V/m) @ t=0.22
2.7283045985455887
% es.tEx (V/m) @ t=0.22
0.8881166383331518
% es.tEy (V/m) @ t=0.22
0
% es.tEz (V/m) @ t=0.22
2.728304598545609
% V (V) @ t=0.22
0.013456440160854052
% es.normE (V/m) @ t=0.24
2.913048252486462
% es.EX (V/m) @ t=0.24
0.899154286640107
% es.EY (V/m) @ t=0.24
0.21783986346728956
% es.EZ (V/m) @ t=0.24
2.762210592902247
% es.tEX (V/m) @ t=0.24
0.8991542866401048
% es.tEY (V/m) @ t=0.24
0
% es.tEZ (V/m) @ t=0.24
2.7622105929022567
% es.Ex (V/m) @ t=0.24
0.899154286640107
% es.Ey (V/m) @ t=0.24
0.21783986346728956
% es.Ez (V/m) @ t=0.24
2.762210592902247
% es.tEx (V/m) @ t=0.24
0.8991542866401048
% es.tEy (V/m) @ t=0.24
0
% es.tEz (V/m) @ t=0.24
2.7622105929022567
% V (V) @ t=0.24
0.013623547660659612
% es.normE (V/m) @ t=0.26
2.9504188193352086
% es.EX (V/m) @ t=0.26
0.9106893191498062
% es.EY (V/m) @ t=0.26
0.2206346220806772
% es.EZ (V/m) @ t=0.26
2.797646076883404
% es.tEX (V/m) @ t=0.26
0.9106893191498102
% es.tEY (V/m) @ t=0.26
0
% es.tEZ (V/m) @ t=0.26
2.7976460768834066
% es.Ex (V/m) @ t=0.26
0.9106893191498062
% es.Ey (V/m) @ t=0.26
0.2206346220806772
% es.Ez (V/m) @ t=0.26
2.797646076883404
% es.tEx (V/m) @ t=0.26
0.9106893191498102
% es.tEy (V/m) @ t=0.26
0
% es.tEz (V/m) @ t=0.26
2.7976460768834066
% V (V) @ t=0.26
0.013798303054514825
% es.normE (V/m) @ t=0.28
2.988773585700771
% es.EX (V/m) @ t=0.28
0.9225278795328506
% es.EY (V/m) @ t=0.28
0.2235023700602774
% es.EZ (V/m) @ t=0.28
2.8340149293360097
% es.tEX (V/m) @ t=0.28
0.9225278795328506
% es.tEY (V/m) @ t=0.28
0
% es.tEZ (V/m) @ t=0.28
2.8340149293360106
% es.Ex (V/m) @ t=0.28
0.9225278795328506
% es.Ey (V/m) @ t=0.28
0.2235023700602774
% es.Ez (V/m) @ t=0.28
2.8340149293360097
% es.tEx (V/m) @ t=0.28
0.9225278795328506
% es.tEy (V/m) @ t=0.28
0
% es.tEz (V/m) @ t=0.28
2.8340149293360106
% V (V) @ t=0.28
0.01397772556285358
% es.normE (V/m) @ t=0.3
3.0271283520664616
% es.EX (V/m) @ t=0.3
0.934366439915906
% es.EY (V/m) @ t=0.3
0.22637011803990892
% es.EZ (V/m) @ t=0.3
2.870383781788619
% es.tEX (V/m) @ t=0.3
0.9343664399159195
% es.tEY (V/m) @ t=0.3
0
% es.tEZ (V/m) @ t=0.3
2.8703837817886253
% es.Ex (V/m) @ t=0.3
0.934366439915906
% es.Ey (V/m) @ t=0.3
0.22637011803990892
% es.Ez (V/m) @ t=0.3
2.870383781788619
% es.tEx (V/m) @ t=0.3
0.9343664399159195
% es.tEy (V/m) @ t=0.3
0
% es.tEz (V/m) @ t=0.3
2.8703837817886253
% V (V) @ t=0.3
0.014157148071192335
% es.normE (V/m) @ t=0.32
3.0654831184322813
% es.EX (V/m) @ t=0.32
0.9462050002989466
% es.EY (V/m) @ t=0.32
0.22923786601955087
% es.EZ (V/m) @ t=0.32
2.906752634241248
% es.tEX (V/m) @ t=0.32
0.9462050002989457
% es.tEY (V/m) @ t=0.32
0
% es.tEZ (V/m) @ t=0.32
2.906752634241254
% es.Ex (V/m) @ t=0.32
0.9462050002989466
% es.Ey (V/m) @ t=0.32
0.22923786601955087
% es.Ez (V/m) @ t=0.32
2.906752634241248
% es.tEx (V/m) @ t=0.32
0.9462050002989457
% es.tEy (V/m) @ t=0.32
0
% es.tEz (V/m) @ t=0.32
2.906752634241254
% V (V) @ t=0.32
0.014336570579531088
% es.normE (V/m) @ t=0.34
3.1038378847981924
% es.EX (V/m) @ t=0.34
0.9580435606819984
% es.EY (V/m) @ t=0.34
0.23210561399915797
% es.EZ (V/m) @ t=0.34
2.9431214866938564
% es.tEX (V/m) @ t=0.34
0.9580435606820146
% es.tEY (V/m) @ t=0.34
0
% es.tEZ (V/m) @ t=0.34
2.943121486693858
% es.Ex (V/m) @ t=0.34
0.9580435606819984
% es.Ey (V/m) @ t=0.34
0.23210561399915797
% es.Ez (V/m) @ t=0.34
2.9431214866938564
% es.tEx (V/m) @ t=0.34
0.9580435606820146
% es.tEy (V/m) @ t=0.34
0
% es.tEz (V/m) @ t=0.34
2.943121486693858
% V (V) @ t=0.34
0.014515993087869843
% es.normE (V/m) @ t=0.36
3.1421926511642146
% es.EX (V/m) @ t=0.36
0.9698821210650355
% es.EY (V/m) @ t=0.36
0.23497336197881102
% es.EZ (V/m) @ t=0.36
2.979490339146471
% es.tEX (V/m) @ t=0.36
0.9698821210650408
% es.tEY (V/m) @ t=0.36
0
% es.tEZ (V/m) @ t=0.36
2.9794903391464764
% es.Ex (V/m) @ t=0.36
0.9698821210650355
% es.Ey (V/m) @ t=0.36
0.23497336197881102
% es.Ez (V/m) @ t=0.36
2.979490339146471
% es.tEx (V/m) @ t=0.36
0.9698821210650408
% es.tEy (V/m) @ t=0.36
0
% es.tEz (V/m) @ t=0.36
2.9794903391464764
% V (V) @ t=0.36
0.014695415596208596
% es.normE (V/m) @ t=0.38
3.1817429300606452
% es.EX (V/m) @ t=0.38
0.9820896421491798
% es.EY (V/m) @ t=0.38
0.2379303897937055
% es.EZ (V/m) @ t=0.38
3.0169928264622445
% es.tEX (V/m) @ t=0.38
0.9820896421491909
% es.tEY (V/m) @ t=0.38
0
% es.tEZ (V/m) @ t=0.38
3.0169928264622357
% es.Ex (V/m) @ t=0.38
0.9820896421491798
% es.Ey (V/m) @ t=0.38
0.2379303897937055
% es.Ez (V/m) @ t=0.38
3.0169928264622445
% es.tEx (V/m) @ t=0.38
0.9820896421491909
% es.tEy (V/m) @ t=0.38
0
% es.tEz (V/m) @ t=0.38
3.0169928264622357
% V (V) @ t=0.38
0.01488044194869466
% es.normE (V/m) @ t=0.4
3.2228392993392627
% es.EX (V/m) @ t=0.4
0.9947743197472072
% es.EY (V/m) @ t=0.4
0.24100287829274492
% es.EZ (V/m) @ t=0.4
3.055961381187741
% es.tEX (V/m) @ t=0.4
0.9947743197472079
% es.tEY (V/m) @ t=0.4
0
% es.tEZ (V/m) @ t=0.4
3.0559613811877497
% es.Ex (V/m) @ t=0.4
0.9947743197472072
% es.Ey (V/m) @ t=0.4
0.24100287829274492
% es.Ez (V/m) @ t=0.4
3.055961381187741
% es.tEx (V/m) @ t=0.4
0.9947743197472079
% es.tEy (V/m) @ t=0.4
0
% es.tEz (V/m) @ t=0.4
3.0559613811877497
% V (V) @ t=0.4
0.01507271544357238
% es.normE (V/m) @ t=0.42
3.2639356686181644
% es.EX (V/m) @ t=0.42
1.0074589973452541
% es.EY (V/m) @ t=0.42
0.2440753667917961
% es.EZ (V/m) @ t=0.42
3.094929935913255
% es.tEX (V/m) @ t=0.42
1.007458997345239
% es.tEY (V/m) @ t=0.42
0
% es.tEZ (V/m) @ t=0.42
3.094929935913264
% es.Ex (V/m) @ t=0.42
1.0074589973452541
% es.Ey (V/m) @ t=0.42
0.2440753667917961
% es.Ez (V/m) @ t=0.42
3.094929935913255
% es.tEx (V/m) @ t=0.42
1.007458997345239
% es.tEy (V/m) @ t=0.42
0
% es.tEz (V/m) @ t=0.42
3.094929935913264
% V (V) @ t=0.42
0.015264988938450096
% es.normE (V/m) @ t=0.44
3.305032037897301
% es.EX (V/m) @ t=0.44
1.020143674943274
% es.EY (V/m) @ t=0.44
0.24714785529079375
% es.EZ (V/m) @ t=0.44
3.1338984906387655
% es.tEX (V/m) @ t=0.44
1.0201436749432986
% es.tEY (V/m) @ t=0.44
0
% es.tEZ (V/m) @ t=0.44
3.1338984906387637
% es.Ex (V/m) @ t=0.44
1.020143674943274
% es.Ey (V/m) @ t=0.44
0.24714785529079375
% es.Ez (V/m) @ t=0.44
3.1338984906387655
% es.tEx (V/m) @ t=0.44
1.0201436749432986
% es.tEy (V/m) @ t=0.44
0
% es.tEz (V/m) @ t=0.44
3.1338984906387637
% V (V) @ t=0.44
0.015457262433327814
% es.normE (V/m) @ t=0.46
3.346128407176687
% es.EX (V/m) @ t=0.46
1.032828352541314
% es.EY (V/m) @ t=0.46
0.25022034378984404
% es.EZ (V/m) @ t=0.46
3.1728670453642733
% es.tEX (V/m) @ t=0.46
1.0328283525413156
% es.tEY (V/m) @ t=0.46
0
% es.tEZ (V/m) @ t=0.46
3.1728670453642778
% es.Ex (V/m) @ t=0.46
1.032828352541314
% es.Ey (V/m) @ t=0.46
0.25022034378984404
% es.Ez (V/m) @ t=0.46
3.1728670453642733
% es.tEx (V/m) @ t=0.46
1.0328283525413156
% es.tEy (V/m) @ t=0.46
0
% es.tEz (V/m) @ t=0.46
3.1728670453642778
% V (V) @ t=0.46
0.015649535928205532
% es.normE (V/m) @ t=0.48
3.3872247764562693
% es.EX (V/m) @ t=0.48
1.0455130301393367
% es.EY (V/m) @ t=0.48
0.2532928322889165
% es.EZ (V/m) @ t=0.48
3.2118356000897474
% es.tEX (V/m) @ t=0.48
1.0455130301393325
% es.tEY (V/m) @ t=0.48
0
% es.tEZ (V/m) @ t=0.48
3.21183560008976
% es.Ex (V/m) @ t=0.48
1.0455130301393367
% es.Ey (V/m) @ t=0.48
0.2532928322889165
% es.Ez (V/m) @ t=0.48
3.2118356000897474
% es.tEx (V/m) @ t=0.48
1.0455130301393325
% es.tEy (V/m) @ t=0.48
0
% es.tEz (V/m) @ t=0.48
3.21183560008976
% V (V) @ t=0.48
0.01584180942308325
% es.normE (V/m) @ t=0.5
3.428621014041749
% es.EX (V/m) @ t=0.5
1.0582902856484004
% es.EY (V/m) @ t=0.5
0.2563877904179723
% es.EZ (V/m) @ t=0.5
3.251088486234873
% es.tEX (V/m) @ t=0.5
1.058290285648411
% es.tEY (V/m) @ t=0.5
0
% es.tEZ (V/m) @ t=0.5
3.251088486234874
% es.Ex (V/m) @ t=0.5
1.0582902856484004
% es.Ey (V/m) @ t=0.5
0.2563877904179723
% es.Ez (V/m) @ t=0.5
3.251088486234873
% es.tEx (V/m) @ t=0.5
1.058290285648411
% es.tEy (V/m) @ t=0.5
0
% es.tEz (V/m) @ t=0.5
3.251088486234874
% V (V) @ t=0.5
0.01603548056054791
% es.normE (V/m) @ t=0.52
3.47114372048149
% es.EX (V/m) @ t=0.52
1.0714153142678144
% es.EY (V/m) @ t=0.52
0.25956715672849917
% es.EZ (V/m) @ t=0.52
3.291409476219007
% es.tEX (V/m) @ t=0.52
1.07141531426781
% es.tEY (V/m) @ t=0.52
0
% es.tEZ (V/m) @ t=0.52
3.2914094762190267
% es.Ex (V/m) @ t=0.52
1.0714153142678144
% es.Ey (V/m) @ t=0.52
0.25956715672849917
% es.Ez (V/m) @ t=0.52
3.291409476219007
% es.tEx (V/m) @ t=0.52
1.07141531426781
% es.tEy (V/m) @ t=0.52
0
% es.tEz (V/m) @ t=0.52
3.2914094762190267
% V (V) @ t=0.52
0.01623440200561107
% es.normE (V/m) @ t=0.54
3.5140375225438087
% es.EX (V/m) @ t=0.54
1.0846549107054146
% es.EY (V/m) @ t=0.54
0.2627743298502059
% es.EZ (V/m) @ t=0.54
3.3320823344839097
% es.tEX (V/m) @ t=0.54
1.0846549107054244
% es.tEY (V/m) @ t=0.54
0
% es.tEZ (V/m) @ t=0.54
3.332082334483914
% es.Ex (V/m) @ t=0.54
1.0846549107054146
% es.Ey (V/m) @ t=0.54
0.2627743298502059
% es.Ez (V/m) @ t=0.54
3.3320823344839097
% es.tEx (V/m) @ t=0.54
1.0846549107054244
% es.tEy (V/m) @ t=0.54
0
% es.tEz (V/m) @ t=0.54
3.332082334483914
% V (V) @ t=0.54
0.016435053073432352
% es.normE (V/m) @ t=0.56
3.557302420228601
% es.EX (V/m) @ t=0.56
1.0980090749611973
% es.EY (V/m) @ t=0.56
0.26600930978303516
% es.EZ (V/m) @ t=0.56
3.373107061029513
% es.tEX (V/m) @ t=0.56
1.0980090749611975
% es.tEY (V/m) @ t=0.56
0
% es.tEZ (V/m) @ t=0.56
3.373107061029529
% es.Ex (V/m) @ t=0.56
1.0980090749611973
% es.Ey (V/m) @ t=0.56
0.26600930978303516
% es.Ez (V/m) @ t=0.56
3.373107061029513
% es.tEx (V/m) @ t=0.56
1.0980090749611975
% es.tEy (V/m) @ t=0.56
0
% es.tEz (V/m) @ t=0.56
3.373107061029529
% V (V) @ t=0.56
0.016637433764011764
% es.normE (V/m) @ t=0.58
3.600938413535949
% es.EX (V/m) @ t=0.58
1.111477807035171
% es.EY (V/m) @ t=0.58
0.2692720965270001
% es.EZ (V/m) @ t=0.58
3.4144836558559284
% es.tEX (V/m) @ t=0.58
1.111477807035186
% es.tEY (V/m) @ t=0.58
0
% es.tEZ (V/m) @ t=0.58
3.414483655855925
% es.Ex (V/m) @ t=0.58
1.111477807035171
% es.Ey (V/m) @ t=0.58
0.2692720965270001
% es.Ez (V/m) @ t=0.58
3.4144836558559284
% es.tEx (V/m) @ t=0.58
1.111477807035186
% es.tEy (V/m) @ t=0.58
0
% es.tEz (V/m) @ t=0.58
3.414483655855925
% V (V) @ t=0.58
0.0168415440773493
% es.normE (V/m) @ t=0.6
3.6449455024657
% es.EX (V/m) @ t=0.6
1.1250611069273173
% es.EY (V/m) @ t=0.6
0.2725626900820528
% es.EZ (V/m) @ t=0.6
3.4562121189630277
% es.tEX (V/m) @ t=0.6
1.1250611069273333
% es.tEY (V/m) @ t=0.6
0
% es.tEZ (V/m) @ t=0.6
3.4562121189630446
% es.Ex (V/m) @ t=0.6
1.1250611069273173
% es.Ey (V/m) @ t=0.6
0.2725626900820528
% es.Ez (V/m) @ t=0.6
3.4562121189630277
% es.tEx (V/m) @ t=0.6
1.1250611069273333
% es.tEy (V/m) @ t=0.6
0
% es.tEz (V/m) @ t=0.6
3.4562121189630446
% V (V) @ t=0.6
0.01704738401344496
% es.normE (V/m) @ t=0.62
3.689323687017936
% es.EX (V/m) @ t=0.62
1.1387589746376459
% es.EY (V/m) @ t=0.62
0.27588109044826115
% es.EZ (V/m) @ t=0.62
3.498292450350905
% es.tEX (V/m) @ t=0.62
1.1387589746376392
% es.tEY (V/m) @ t=0.62
0
% es.tEZ (V/m) @ t=0.62
3.498292450350899
% es.Ex (V/m) @ t=0.62
1.1387589746376459
% es.Ey (V/m) @ t=0.62
0.27588109044826115
% es.Ez (V/m) @ t=0.62
3.498292450350905
% es.tEx (V/m) @ t=0.62
1.1387589746376392
% es.tEy (V/m) @ t=0.62
0
% es.tEz (V/m) @ t=0.62
3.498292450350899
% V (V) @ t=0.62
0.017254953572298747
% es.normE (V/m) @ t=0.64
3.7340729671925805
% es.EX (V/m) @ t=0.64
1.1525714101661726
% es.EY (V/m) @ t=0.64
0.2792272976255443
% es.EZ (V/m) @ t=0.64
3.5407246500194933
% es.tEX (V/m) @ t=0.64
1.1525714101661748
% es.tEY (V/m) @ t=0.64
0
% es.tEZ (V/m) @ t=0.64
3.5407246500194987
% es.Ex (V/m) @ t=0.64
1.1525714101661726
% es.Ey (V/m) @ t=0.64
0.2792272976255443
% es.Ez (V/m) @ t=0.64
3.5407246500194933
% es.tEx (V/m) @ t=0.64
1.1525714101661748
% es.tEy (V/m) @ t=0.64
0
% es.tEz (V/m) @ t=0.64
3.5407246500194987
% V (V) @ t=0.64
0.017464252753910663
% es.normE (V/m) @ t=0.66
3.7791933429896427
% es.EX (V/m) @ t=0.66
1.1664984135128729
% es.EY (V/m) @ t=0.66
0.2826013116140511
% es.EZ (V/m) @ t=0.66
3.5835087179688037
% es.tEX (V/m) @ t=0.66
1.166498413512869
% es.tEY (V/m) @ t=0.66
0
% es.tEZ (V/m) @ t=0.66
3.583508717968815
% es.Ex (V/m) @ t=0.66
1.1664984135128729
% es.Ey (V/m) @ t=0.66
0.2826013116140511
% es.Ez (V/m) @ t=0.66
3.5835087179688037
% es.tEx (V/m) @ t=0.66
1.166498413512869
% es.tEy (V/m) @ t=0.66
0
% es.tEz (V/m) @ t=0.66
3.583508717968815
% V (V) @ t=0.66
0.017675281558280704
% es.normE (V/m) @ t=0.68
3.824684814409194
% es.EX (V/m) @ t=0.68
1.180539984677743
% es.EY (V/m) @ t=0.68
0.28600313241358566
% es.EZ (V/m) @ t=0.68
3.6266446541989277
% es.tEX (V/m) @ t=0.68
1.1805399846777505
% es.tEY (V/m) @ t=0.68
0
% es.tEZ (V/m) @ t=0.68
3.6266446541989374
% es.Ex (V/m) @ t=0.68
1.180539984677743
% es.Ey (V/m) @ t=0.68
0.28600313241358566
% es.Ez (V/m) @ t=0.68
3.6266446541989277
% es.tEx (V/m) @ t=0.68
1.1805399846777505
% es.tEy (V/m) @ t=0.68
0
% es.tEz (V/m) @ t=0.68
3.6266446541989374
% V (V) @ t=0.68
0.017888039985408867
% es.normE (V/m) @ t=0.7
3.870547381451157
% es.EX (V/m) @ t=0.7
1.1946961236608376
% es.EY (V/m) @ t=0.7
0.2894327600242175
% es.EZ (V/m) @ t=0.7
3.670132458709758
% es.tEX (V/m) @ t=0.7
1.1946961236608473
% es.tEY (V/m) @ t=0.7
0
% es.tEZ (V/m) @ t=0.7
3.6701324587097766
% es.Ex (V/m) @ t=0.7
1.1946961236608376
% es.Ey (V/m) @ t=0.7
0.2894327600242175
% es.Ez (V/m) @ t=0.7
3.670132458709758
% es.tEx (V/m) @ t=0.7
1.1946961236608473
% es.tEy (V/m) @ t=0.7
0
% es.tEz (V/m) @ t=0.7
3.6701324587097766
% V (V) @ t=0.7
0.018102528035295155
% es.normE (V/m) @ t=0.72
3.9167810441155453
% es.EX (V/m) @ t=0.72
1.2089668304620698
% es.EY (V/m) @ t=0.72
0.29289019444607
% es.EZ (V/m) @ t=0.72
3.7139721315013166
% es.tEX (V/m) @ t=0.72
1.2089668304620744
% es.tEY (V/m) @ t=0.72
0
% es.tEZ (V/m) @ t=0.72
3.7139721315013254
% es.Ex (V/m) @ t=0.72
1.2089668304620698
% es.Ey (V/m) @ t=0.72
0.29289019444607
% es.Ez (V/m) @ t=0.72
3.7139721315013166
% es.tEx (V/m) @ t=0.72
1.2089668304620744
% es.tEy (V/m) @ t=0.72
0
% es.tEz (V/m) @ t=0.72
3.7139721315013254
% V (V) @ t=0.72
0.018318745707939576
% es.normE (V/m) @ t=0.74
3.963385802402432
% es.EX (V/m) @ t=0.74
1.223352105081515
% es.EY (V/m) @ t=0.74
0.296375435679034
% es.EZ (V/m) @ t=0.74
3.7581636725736542
% es.tEX (V/m) @ t=0.74
1.2233521050815312
% es.tEY (V/m) @ t=0.74
0
% es.tEZ (V/m) @ t=0.74
3.758163672573648
% es.Ex (V/m) @ t=0.74
1.223352105081515
% es.Ey (V/m) @ t=0.74
0.296375435679034
% es.Ez (V/m) @ t=0.74
3.7581636725736542
% es.tEx (V/m) @ t=0.74
1.2233521050815312
% es.tEy (V/m) @ t=0.74
0
% es.tEz (V/m) @ t=0.74
3.758163672573648
% V (V) @ t=0.74
0.018536693003342118
% es.normE (V/m) @ t=0.76
4.010986944458335
% es.EX (V/m) @ t=0.76
1.2380448449355412
% es.EY (V/m) @ t=0.76
0.2999349916486551
% es.EZ (V/m) @ t=0.76
3.8033000465247264
% es.tEX (V/m) @ t=0.76
1.2380448449355441
% es.tEY (V/m) @ t=0.76
0
% es.tEZ (V/m) @ t=0.76
3.8033000465247326
% es.Ex (V/m) @ t=0.76
1.2380448449355412
% es.Ey (V/m) @ t=0.76
0.2999349916486551
% es.Ez (V/m) @ t=0.76
3.8033000465247264
% es.tEx (V/m) @ t=0.76
1.2380448449355441
% es.tEy (V/m) @ t=0.76
0
% es.tEz (V/m) @ t=0.76
3.8033000465247326
% V (V) @ t=0.76
0.01875932068418556
% es.normE (V/m) @ t=0.78
4.0591442295198075
% es.EX (V/m) @ t=0.78
1.252909238548542
% es.EY (V/m) @ t=0.78
0.3035361179559559
% es.EZ (V/m) @ t=0.78
3.848963770328904
% es.tEX (V/m) @ t=0.78
1.2529092385485399
% es.tEY (V/m) @ t=0.78
0
% es.tEZ (V/m) @ t=0.78
3.8489637703289006
% es.Ex (V/m) @ t=0.78
1.252909238548542
% es.Ey (V/m) @ t=0.78
0.3035361179559559
% es.Ez (V/m) @ t=0.78
3.848963770328904
% es.tEx (V/m) @ t=0.78
1.2529092385485399
% es.tEy (V/m) @ t=0.78
0
% es.tEz (V/m) @ t=0.78
3.8489637703289006
% V (V) @ t=0.78
0.018984551234650447
% es.normE (V/m) @ t=0.8
4.107779710380715
% es.EX (V/m) @ t=0.8
1.2679212397031936
% es.EY (V/m) @ t=0.8
0.3071730170130236
% es.EZ (V/m) @ t=0.8
3.8950809261708583
% es.tEX (V/m) @ t=0.8
1.2679212397031847
% es.tEY (V/m) @ t=0.8
0
% es.tEZ (V/m) @ t=0.8
3.8950809261708628
% es.Ex (V/m) @ t=0.8
1.2679212397031936
% es.Ey (V/m) @ t=0.8
0.3071730170130236
% es.Ez (V/m) @ t=0.8
3.8950809261708583
% es.tEx (V/m) @ t=0.8
1.2679212397031847
% es.tEy (V/m) @ t=0.8
0
% es.tEz (V/m) @ t=0.8
3.8950809261708628
% V (V) @ t=0.8
0.019212016818390697
% es.normE (V/m) @ t=0.82
4.15689338704107
% es.EX (V/m) @ t=0.82
1.283080848399448
% es.EY (V/m) @ t=0.82
0.31084568881993113
% es.EZ (V/m) @ t=0.82
3.9416515140506094
% es.tEX (V/m) @ t=0.82
1.2830808483994645
% es.tEY (V/m) @ t=0.82
0
% es.tEZ (V/m) @ t=0.82
3.941651514050612
% es.Ex (V/m) @ t=0.82
1.283080848399448
% es.Ey (V/m) @ t=0.82
0.31084568881993113
% es.Ez (V/m) @ t=0.82
3.9416515140506094
% es.tEx (V/m) @ t=0.82
1.2830808483994645
% es.tEy (V/m) @ t=0.82
0
% es.tEz (V/m) @ t=0.82
3.941651514050612
% V (V) @ t=0.82
0.019441717435406316
% es.normE (V/m) @ t=0.84
4.206485259500862
% es.EX (V/m) @ t=0.84
1.2983880646373416
% es.EY (V/m) @ t=0.84
0.31455413337675964
% es.EZ (V/m) @ t=0.84
3.98867553396813
% es.tEX (V/m) @ t=0.84
1.2983880646373507
% es.tEY (V/m) @ t=0.84
0
% es.tEZ (V/m) @ t=0.84
3.988675533968145
% es.Ex (V/m) @ t=0.84
1.2983880646373416
% es.Ey (V/m) @ t=0.84
0.31455413337675964
% es.Ez (V/m) @ t=0.84
3.98867553396813
% es.tEx (V/m) @ t=0.84
1.2983880646373507
% es.tEy (V/m) @ t=0.84
0
% es.tEz (V/m) @ t=0.84
3.988675533968145
% V (V) @ t=0.84
0.0196736530856973
% es.normE (V/m) @ t=0.86
4.25655532776006
% es.EX (V/m) @ t=0.86
1.3138428884168536
% es.EY (V/m) @ t=0.86
0.3182983506833428
% es.EZ (V/m) @ t=0.86
4.036152985923404
% es.tEX (V/m) @ t=0.86
1.3138428884168576
% es.tEY (V/m) @ t=0.86
0
% es.tEZ (V/m) @ t=0.86
4.036152985923437
% es.Ex (V/m) @ t=0.86
1.3138428884168536
% es.Ey (V/m) @ t=0.86
0.3182983506833428
% es.Ez (V/m) @ t=0.86
4.036152985923404
% es.tEx (V/m) @ t=0.86
1.3138428884168576
% es.tEy (V/m) @ t=0.86
0
% es.tEz (V/m) @ t=0.86
4.036152985923437
% V (V) @ t=0.86
0.019907823769263644
% es.normE (V/m) @ t=0.88
4.307103591818716
% es.EX (V/m) @ t=0.88
1.3294453197380032
% es.EY (V/m) @ t=0.88
0.3220783407398611
% es.EZ (V/m) @ t=0.88
4.0840838699164665
% es.tEX (V/m) @ t=0.88
1.3294453197379852
% es.tEY (V/m) @ t=0.88
0
% es.tEZ (V/m) @ t=0.88
4.084083869916469
% es.Ex (V/m) @ t=0.88
1.3294453197380032
% es.Ey (V/m) @ t=0.88
0.3220783407398611
% es.Ez (V/m) @ t=0.88
4.0840838699164665
% es.tEx (V/m) @ t=0.88
1.3294453197379852
% es.tEy (V/m) @ t=0.88
0
% es.tEz (V/m) @ t=0.88
4.084083869916469
% V (V) @ t=0.88
0.020144229486105364
% es.normE (V/m) @ t=0.9
4.358130051676815
% es.EX (V/m) @ t=0.9
1.3451953586007837
% es.EY (V/m) @ t=0.9
0.3258941035461811
% es.EZ (V/m) @ t=0.9
4.132468185947311
% es.tEX (V/m) @ t=0.9
1.3451953586007903
% es.tEY (V/m) @ t=0.9
0
% es.tEZ (V/m) @ t=0.9
4.132468185947321
% es.Ex (V/m) @ t=0.9
1.3451953586007837
% es.Ey (V/m) @ t=0.9
0.3258941035461811
% es.Ez (V/m) @ t=0.9
4.132468185947311
% es.tEx (V/m) @ t=0.9
1.3451953586007903
% es.tEy (V/m) @ t=0.9
0
% es.tEz (V/m) @ t=0.9
4.132468185947321
% V (V) @ t=0.9
0.020382870236222442
% es.normE (V/m) @ t=0.92
4.409634707334394
% es.EX (V/m) @ t=0.92
1.3610930050052232
% es.EY (V/m) @ t=0.92
0.3297456391023623
% es.EZ (V/m) @ t=0.92
4.181305934015965
% es.tEX (V/m) @ t=0.92
1.361093005005202
% es.tEY (V/m) @ t=0.92
0
% es.tEZ (V/m) @ t=0.92
4.181305934015956
% es.Ex (V/m) @ t=0.92
1.3610930050052232
% es.Ey (V/m) @ t=0.92
0.3297456391023623
% es.Ez (V/m) @ t=0.92
4.181305934015965
% es.tEx (V/m) @ t=0.92
1.361093005005202
% es.tEy (V/m) @ t=0.92
0
% es.tEz (V/m) @ t=0.92
4.181305934015956
% V (V) @ t=0.92
0.020623746019614888
% es.normE (V/m) @ t=0.94
4.461617558791319
% es.EX (V/m) @ t=0.94
1.3771382589512378
% es.EY (V/m) @ t=0.94
0.33363294740841454
% es.EZ (V/m) @ t=0.94
4.230597114122309
% es.tEX (V/m) @ t=0.94
1.3771382589512342
% es.tEY (V/m) @ t=0.94
0
% es.tEZ (V/m) @ t=0.94
4.230597114122347
% es.Ex (V/m) @ t=0.94
1.3771382589512378
% es.Ey (V/m) @ t=0.94
0.33363294740841454
% es.Ez (V/m) @ t=0.94
4.230597114122309
% es.tEx (V/m) @ t=0.94
1.3771382589512342
% es.tEy (V/m) @ t=0.94
0
% es.tEz (V/m) @ t=0.94
4.230597114122347
% V (V) @ t=0.94
0.0208668568362827
% es.normE (V/m) @ t=0.96
4.5140786060477875
% es.EX (V/m) @ t=0.96
1.393331120438933
% es.EY (V/m) @ t=0.96
0.3375560284643777
% es.EZ (V/m) @ t=0.96
4.2803417262665135
% es.tEX (V/m) @ t=0.96
1.3933311204389298
% es.tEY (V/m) @ t=0.96
0
% es.tEZ (V/m) @ t=0.96
4.280341726266535
% es.Ex (V/m) @ t=0.96
1.393331120438933
% es.Ey (V/m) @ t=0.96
0.3375560284643777
% es.Ez (V/m) @ t=0.96
4.2803417262665135
% es.tEx (V/m) @ t=0.96
1.3933311204389298
% es.tEy (V/m) @ t=0.96
0
% es.tEz (V/m) @ t=0.96
4.280341726266535
% V (V) @ t=0.96
0.021112202686225875
% es.normE (V/m) @ t=0.98
4.567017849103724
% es.EX (V/m) @ t=0.98
1.4096715894682532
% es.EY (V/m) @ t=0.98
0.34151488227014903
% es.EZ (V/m) @ t=0.98
4.330539770448523
% es.tEX (V/m) @ t=0.98
1.4096715894682603
% es.tEY (V/m) @ t=0.98
0
% es.tEZ (V/m) @ t=0.98
4.330539770448496
% es.Ex (V/m) @ t=0.98
1.4096715894682532
% es.Ey (V/m) @ t=0.98
0.34151488227014903
% es.Ez (V/m) @ t=0.98
4.330539770448523
% es.tEx (V/m) @ t=0.98
1.4096715894682603
% es.tEy (V/m) @ t=0.98
0
% es.tEz (V/m) @ t=0.98
4.330539770448496
% V (V) @ t=0.98
0.021359783569444415
% es.normE (V/m) @ t=1
4.620627375710112
% es.EX (V/m) @ t=1
1.4262188912335378
% es.EY (V/m) @ t=1
0.3455237195893457
% es.EZ (V/m) @ t=1
4.38137342110258
% es.tEX (V/m) @ t=1
1.426218891233546
% es.tEY (V/m) @ t=1
0
% es.tEZ (V/m) @ t=1
4.381373421102577
% es.Ex (V/m) @ t=1
1.4262188912335378
% es.Ey (V/m) @ t=1
0.3455237195893457
% es.Ez (V/m) @ t=1
4.38137342110258
% es.tEx (V/m) @ t=1
1.426218891233546
% es.tEy (V/m) @ t=1
0
% es.tEz (V/m) @ t=1
4.381373421102577
% V (V) @ t=1
0.021610514035417493
% es.normE (V/m) @ t=1.02
4.674942797679364
% es.EX (V/m) @ t=1.02
1.4429840056983316
% es.EY (V/m) @ t=1.02
0.34958517500466013
% es.EZ (V/m) @ t=1.02
4.432876452177034
% es.tEX (V/m) @ t=1.02
1.4429840056983352
% es.tEY (V/m) @ t=1.02
0
% es.tEZ (V/m) @ t=1.02
4.43287645217703
% es.Ex (V/m) @ t=1.02
1.4429840056983316
% es.Ey (V/m) @ t=1.02
0.34958517500466013
% es.Ez (V/m) @ t=1.02
4.432876452177034
% es.tEx (V/m) @ t=1.02
1.4429840056983352
% es.tEy (V/m) @ t=1.02
0
% es.tEz (V/m) @ t=1.02
4.43287645217703
% V (V) @ t=1.02
0.021864563635634725
% es.normE (V/m) @ t=1.04
4.72979474980405
% es.EX (V/m) @ t=1.04
1.4599147135656279
% es.EY (V/m) @ t=1.04
0.3536867187793953
% es.EZ (V/m) @ t=1.04
4.484888239109993
% es.tEX (V/m) @ t=1.04
1.4599147135656523
% es.tEY (V/m) @ t=1.04
0
% es.tEZ (V/m) @ t=1.04
4.484888239110031
% es.Ex (V/m) @ t=1.04
1.4599147135656279
% es.Ey (V/m) @ t=1.04
0.3536867187793953
% es.Ez (V/m) @ t=1.04
4.484888239109993
% es.tEx (V/m) @ t=1.04
1.4599147135656523
% es.tEy (V/m) @ t=1.04
0
% es.tEz (V/m) @ t=1.04
4.484888239110031
% V (V) @ t=1.04
0.022121126004977867
% es.normE (V/m) @ t=1.06