% Model:              1 neuron.mph
% Version:            COMSOL 6.1.0.252
% Date:               Mar 18 2023, 13:42
% Dimension:          0
% Nodes:              14017
% Expressions:        14017
% Description:        Electric field norm, Electric field, X component, Electric field, Y component, Electric field, Z component, Tangential electric field, X component, Tangential electric field, Y component, Tangential electric field, Z component, Electric field, x component, Electric field, y component, Electric field, z component, Tangential electric field, x component, Tangential electric field, y component, Tangential electric field, z component, Electric potential
% Length unit:        mm
% x
2
% y
12.2
% z
1
% es.normE (V/m) @ t=0
2.2398751360552422
% es.EX (V/m) @ t=0
-1.446480034389364
% es.EY (V/m) @ t=0
0.32137451955625695
% es.EZ (V/m) @ t=0
1.6496562476819427
% es.tEX (V/m) @ t=0
-1.4464800343893662
% es.tEY (V/m) @ t=0
0
% es.tEZ (V/m) @ t=0
1.6496562476819658
% es.Ex (V/m) @ t=0
-1.446480034389364
% es.Ey (V/m) @ t=0
0.32137451955625695
% es.Ez (V/m) @ t=0
1.6496562476819427
% es.tEx (V/m) @ t=0
-1.4464800343893662
% es.tEy (V/m) @ t=0
0
% es.tEz (V/m) @ t=0
1.6496562476819658
% V (V) @ t=0
0.02167756522373801
% es.normE (V/m) @ t=0.02
2.0572534944588172
% es.EX (V/m) @ t=0.02
-1.3285453931658529
% es.EY (V/m) @ t=0.02
0.29517217493569436
% es.EZ (V/m) @ t=0.02
1.51515649774527
% es.tEX (V/m) @ t=0.02
-1.3285453931658555
% es.tEY (V/m) @ t=0.02
0
% es.tEZ (V/m) @ t=0.02
1.5151564977452718
% es.Ex (V/m) @ t=0.02
-1.3285453931658529
% es.Ey (V/m) @ t=0.02
0.29517217493569436
% es.Ez (V/m) @ t=0.02
1.51515649774527
% es.tEx (V/m) @ t=0.02
-1.3285453931658555
% es.tEy (V/m) @ t=0.02
0
% es.tEz (V/m) @ t=0.02
1.5151564977452718
% V (V) @ t=0.02
0.019910149148762376
% es.normE (V/m) @ t=0.04
2.084526934960163
% es.EX (V/m) @ t=0.04
-1.3461581536983074
% es.EY (V/m) @ t=0.04
0.29908539597959316
% es.EZ (V/m) @ t=0.04
1.5352432590582428
% es.tEX (V/m) @ t=0.04
-1.346158153698303
% es.tEY (V/m) @ t=0.04
0
% es.tEZ (V/m) @ t=0.04
1.5352432590582712
% es.Ex (V/m) @ t=0.04
-1.3461581536983074
% es.Ey (V/m) @ t=0.04
0.29908539597959316
% es.Ez (V/m) @ t=0.04
1.5352432590582428
% es.tEx (V/m) @ t=0.04
-1.346158153698303
% es.tEy (V/m) @ t=0.04
0
% es.tEz (V/m) @ t=0.04
1.5352432590582712
% V (V) @ t=0.04
0.02017409890542997
% es.normE (V/m) @ t=0.06
2.112346178509099
% es.EX (V/m) @ t=0.06
-1.3641234151044097
% es.EY (V/m) @ t=0.06
0.303076864971638
% es.EZ (V/m) @ t=0.06
1.5557320006352455
% es.tEX (V/m) @ t=0.06
-1.3641234151044048
% es.tEY (V/m) @ t=0.06
0
% es.tEZ (V/m) @ t=0.06
1.5557320006352686
% es.Ex (V/m) @ t=0.06
-1.3641234151044097
% es.Ey (V/m) @ t=0.06
0.303076864971638
% es.Ez (V/m) @ t=0.06
1.5557320006352455
% es.tEx (V/m) @ t=0.06
-1.3641234151044048
% es.tEy (V/m) @ t=0.06
0
% es.tEz (V/m) @ t=0.06
1.5557320006352686
% V (V) @ t=0.06
0.020443333869283344
% es.normE (V/m) @ t=0.08
2.140272115745417
% es.EX (V/m) @ t=0.08
-1.382157584533064
% es.EY (V/m) @ t=0.08
0.3070836279190272
% es.EZ (V/m) @ t=0.08
1.576299321218805
% es.tEX (V/m) @ t=0.08
-1.3821575845330596
% es.tEY (V/m) @ t=0.08
0
% es.tEZ (V/m) @ t=0.08
1.576299321218821
% es.Ex (V/m) @ t=0.08
-1.382157584533064
% es.Ey (V/m) @ t=0.08
0.3070836279190272
% es.Ez (V/m) @ t=0.08
1.576299321218805
% es.tEx (V/m) @ t=0.08
-1.3821575845330596
% es.tEy (V/m) @ t=0.08
0
% es.tEz (V/m) @ t=0.08
1.576299321218821
% V (V) @ t=0.08
0.020713602088674704
% es.normE (V/m) @ t=0.1
2.1690464265990297
% es.EX (V/m) @ t=0.1
-1.400739327407809
% es.EY (V/m) @ t=0.1
0.3112126883860473
% es.EZ (V/m) @ t=0.1
1.5974914981597657
% es.tEX (V/m) @ t=0.1
-1.4007393274078113
% es.tEY (V/m) @ t=0.1
0
% es.tEZ (V/m) @ t=0.1
1.5974914981597959
% es.Ex (V/m) @ t=0.1
-1.400739327407809
% es.Ey (V/m) @ t=0.1
0.3112126883860473
% es.Ez (V/m) @ t=0.1
1.5974914981597657
% es.tEx (V/m) @ t=0.1
-1.4007393274078113
% es.tEy (V/m) @ t=0.1
0
% es.tEz (V/m) @ t=0.1
1.5974914981597959
% V (V) @ t=0.1
0.020992052575628892
% es.normE (V/m) @ t=0.12
2.1982498419081966
% es.EX (V/m) @ t=0.12
-1.4195980310464784
% es.EY (V/m) @ t=0.12
0.31540360651740085
% es.EZ (V/m) @ t=0.12
1.6189997252951063
% es.tEX (V/m) @ t=0.12
-1.4195980310464735
% es.tEY (V/m) @ t=0.12
0
% es.tEZ (V/m) @ t=0.12
1.6189997252951507
% es.Ex (V/m) @ t=0.12
-1.4195980310464784
% es.Ey (V/m) @ t=0.12
0.31540360651740085
% es.Ez (V/m) @ t=0.12
1.6189997252951063
% es.tEx (V/m) @ t=0.12
-1.4195980310464735
% es.tEy (V/m) @ t=0.12
0
% es.tEz (V/m) @ t=0.12
1.6189997252951507
% V (V) @ t=0.12
0.021274641625347403
% es.normE (V/m) @ t=0.14
2.227453257218103
% es.EX (V/m) @ t=0.14
-1.4384567346851393
% es.EY (V/m) @ t=0.14
0.31959452464880034
% es.EZ (V/m) @ t=0.14
1.6405079524304753
% es.tEX (V/m) @ t=0.14
-1.4384567346851345
% es.tEY (V/m) @ t=0.14
0
% es.tEZ (V/m) @ t=0.14
1.6405079524304913
% es.Ex (V/m) @ t=0.14
-1.4384567346851393
% es.Ey (V/m) @ t=0.14
0.31959452464880034
% es.Ez (V/m) @ t=0.14
1.6405079524304753
% es.tEx (V/m) @ t=0.14
-1.4384567346851345
% es.tEy (V/m) @ t=0.14
0
% es.tEz (V/m) @ t=0.14
1.6405079524304913
% V (V) @ t=0.14
0.021557230675065917
% es.normE (V/m) @ t=0.16
2.25665667252865
% es.EX (V/m) @ t=0.16
-1.4573154383238092
% es.EY (V/m) @ t=0.16
0.32378544278015386
% es.EZ (V/m) @ t=0.16
1.6620161795657928
% es.tEX (V/m) @ t=0.16
-1.457315438323811
% es.tEY (V/m) @ t=0.16
0
% es.tEZ (V/m) @ t=0.16
1.662016179565816
% es.Ex (V/m) @ t=0.16
-1.4573154383238092
% es.Ey (V/m) @ t=0.16
0.32378544278015386
% es.Ez (V/m) @ t=0.16
1.6620161795657928
% es.tEx (V/m) @ t=0.16
-1.457315438323811
% es.tEy (V/m) @ t=0.16
0
% es.tEz (V/m) @ t=0.16
1.662016179565816
% V (V) @ t=0.16
0.021839819724784434
% es.normE (V/m) @ t=0.18
2.2867397740492454
% es.EX (V/m) @ t=0.18
-1.4767416015580976
% es.EY (V/m) @ t=0.18
0.328104547008631
% es.EZ (V/m) @ t=0.18
1.6841720943926948
% es.tEX (V/m) @ t=0.18
-1.4767416015580923
% es.tEY (V/m) @ t=0.18
0
% es.tEZ (V/m) @ t=0.18
1.684172094392709
% es.Ex (V/m) @ t=0.18
-1.4767416015580976
% es.Ey (V/m) @ t=0.18
0.328104547008631
% es.Ez (V/m) @ t=0.18
1.6841720943926948
% es.tEx (V/m) @ t=0.18
-1.4767416015580923
% es.tEy (V/m) @ t=0.18
0
% es.tEz (V/m) @ t=0.18
1.684172094392709
% V (V) @ t=0.18
0.022130849964712006
% es.normE (V/m) @ t=0.2
2.3185810314502664
% es.EX (V/m) @ t=0.2
-1.4973018992138893
% es.EY (V/m) @ t=0.2
0.3326798461560052
% es.EZ (V/m) @ t=0.2
1.707622488881288
% es.tEX (V/m) @ t=0.2
-1.4973018992138911
% es.tEY (V/m) @ t=0.2
0
% es.tEZ (V/m) @ t=0.2
1.7076224888813183
% es.Ex (V/m) @ t=0.2
-1.4973018992138893
% es.Ey (V/m) @ t=0.2
0.3326798461560052
% es.Ez (V/m) @ t=0.2
1.707622488881288
% es.tEx (V/m) @ t=0.2
-1.4973018992138911
% es.tEy (V/m) @ t=0.2
0
% es.tEz (V/m) @ t=0.2
1.7076224888813183
% V (V) @ t=0.2
0.02243875091129176
% es.normE (V/m) @ t=0.22
2.3504222888888586
% es.EX (V/m) @ t=0.22
-1.5178621968696882
% es.EY (V/m) @ t=0.22
0.337255145303351
% es.EZ (V/m) @ t=0.22
1.7310728833699098
% es.tEX (V/m) @ t=0.22
-1.51786219686969
% es.tEY (V/m) @ t=0.22
0
% es.tEZ (V/m) @ t=0.22
1.7310728833699258
% es.Ex (V/m) @ t=0.22
-1.5178621968696882
% es.Ey (V/m) @ t=0.22
0.337255145303351
% es.Ez (V/m) @ t=0.22
1.7310728833699098
% es.tEx (V/m) @ t=0.22
-1.51786219686969
% es.tEy (V/m) @ t=0.22
0
% es.tEz (V/m) @ t=0.22
1.7310728833699258
% V (V) @ t=0.22
0.022746651857871506
% es.normE (V/m) @ t=0.24
2.382263546363471
% es.EX (V/m) @ t=0.24
-1.5384224945254794
% es.EY (V/m) @ t=0.24
0.34183044445068944
% es.EZ (V/m) @ t=0.24
1.7545232778585031
% es.tEX (V/m) @ t=0.24
-1.5384224945254745
% es.tEY (V/m) @ t=0.24
0
% es.tEZ (V/m) @ t=0.24
1.7545232778585191
% es.Ex (V/m) @ t=0.24
-1.5384224945254794
% es.Ey (V/m) @ t=0.24
0.34183044445068944
% es.Ez (V/m) @ t=0.24
1.7545232778585031
% es.tEx (V/m) @ t=0.24
-1.5384224945254745
% es.tEy (V/m) @ t=0.24
0
% es.tEz (V/m) @ t=0.24
1.7545232778585191
% V (V) @ t=0.24
0.02305455280445127
% es.normE (V/m) @ t=0.26
2.4141048038726964
% es.EX (V/m) @ t=0.26
-1.5589827921812867
% es.EY (V/m) @ t=0.26
0.3464057435980461
% es.EZ (V/m) @ t=0.26
1.7779736723470823
% es.tEX (V/m) @ t=0.26
-1.5589827921812742
% es.tEY (V/m) @ t=0.26
0
% es.tEZ (V/m) @ t=0.26
1.7779736723471107
% es.Ex (V/m) @ t=0.26
-1.5589827921812867
% es.Ey (V/m) @ t=0.26
0.3464057435980461
% es.Ez (V/m) @ t=0.26
1.7779736723470823
% es.tEx (V/m) @ t=0.26
-1.5589827921812742
% es.tEy (V/m) @ t=0.26
0
% es.tEz (V/m) @ t=0.26
1.7779736723471107
% V (V) @ t=0.26
0.02336245375103102
% es.normE (V/m) @ t=0.28
2.445946061415202
% es.EX (V/m) @ t=0.28
-1.5795430898370846
% es.EY (V/m) @ t=0.28
0.3509810427453879
% es.EZ (V/m) @ t=0.28
1.8014240668356916
% es.tEX (V/m) @ t=0.28
-1.5795430898370864
% es.tEY (V/m) @ t=0.28
0
% es.tEZ (V/m) @ t=0.28
1.8014240668356933
% es.Ex (V/m) @ t=0.28
-1.5795430898370846
% es.Ey (V/m) @ t=0.28
0.3509810427453879
% es.Ez (V/m) @ t=0.28
1.8014240668356916
% es.tEx (V/m) @ t=0.28
-1.5795430898370864
% es.tEy (V/m) @ t=0.28
0
% es.tEz (V/m) @ t=0.28
1.8014240668356933
% V (V) @ t=0.28
0.023670354697610772
% es.normE (V/m) @ t=0.3
2.477787318989688
% es.EX (V/m) @ t=0.3
-1.6001033874928758
% es.EY (V/m) @ t=0.3
0.3555563418927159
% es.EZ (V/m) @ t=0.3
1.824874461324299
% es.tEX (V/m) @ t=0.3
-1.6001033874928776
% es.tEY (V/m) @ t=0.3
0
% es.tEZ (V/m) @ t=0.3
1.8248744613243009
% es.Ex (V/m) @ t=0.3
-1.6001033874928758
% es.Ey (V/m) @ t=0.3
0.3555563418927159
% es.Ez (V/m) @ t=0.3
1.824874461324299
% es.tEx (V/m) @ t=0.3
-1.6001033874928776
% es.tEy (V/m) @ t=0.3
0
% es.tEz (V/m) @ t=0.3
1.8248744613243009
% V (V) @ t=0.3
0.023978255644190528
% es.normE (V/m) @ t=0.32
2.509628576594926
% es.EX (V/m) @ t=0.32
-1.6206636851486742
% es.EY (V/m) @ t=0.32
0.36013164104008677
% es.EZ (V/m) @ t=0.32
1.8483248558128764
% es.tEX (V/m) @ t=0.32
-1.6206636851486689
% es.tEY (V/m) @ t=0.32
0
% es.tEZ (V/m) @ t=0.32
1.8483248558128924
% es.Ex (V/m) @ t=0.32
-1.6206636851486742
% es.Ey (V/m) @ t=0.32
0.36013164104008677
% es.Ez (V/m) @ t=0.32
1.8483248558128764
% es.tEx (V/m) @ t=0.32
-1.6206636851486689
% es.tEy (V/m) @ t=0.32
0
% es.tEz (V/m) @ t=0.32
1.8483248558128924
% V (V) @ t=0.32
0.024286156590770287
% es.normE (V/m) @ t=0.34
2.5414698342298108
% es.EX (V/m) @ t=0.34
-1.6412239828044797
% es.EY (V/m) @ t=0.34
0.3647069401874321
% es.EZ (V/m) @ t=0.34
1.8717752503015
% es.tEX (V/m) @ t=0.34
-1.6412239828044743
% es.tEY (V/m) @ t=0.34
0
% es.tEZ (V/m) @ t=0.34
1.8717752503015301
% es.Ex (V/m) @ t=0.34
-1.6412239828044797
% es.Ey (V/m) @ t=0.34
0.3647069401874321
% es.Ez (V/m) @ t=0.34
1.8717752503015
% es.tEx (V/m) @ t=0.34
-1.6412239828044743
% es.tEy (V/m) @ t=0.34
0
% es.tEz (V/m) @ t=0.34
1.8717752503015301
% V (V) @ t=0.34
0.024594057537350035
% es.normE (V/m) @ t=0.36
2.57512806025193
% es.EX (V/m) @ t=0.36
-1.6629623120541028
% es.EY (V/m) @ t=0.36
0.3695304070746901
% es.EZ (V/m) @ t=0.36
1.8965645467765526
% es.tEX (V/m) @ t=0.36
-1.6629623120540975
% es.tEY (V/m) @ t=0.36
0
% es.tEZ (V/m) @ t=0.36
1.8965645467765686
% es.Ex (V/m) @ t=0.36
-1.6629623120541028
% es.Ey (V/m) @ t=0.36
0.3695304070746901
% es.Ez (V/m) @ t=0.36
1.8965645467765526
% es.tEx (V/m) @ t=0.36
-1.6629623120540975
% es.tEy (V/m) @ t=0.36
0
% es.tEz (V/m) @ t=0.36
1.8965645467765686
% V (V) @ t=0.36
0.024920046859364
% es.normE (V/m) @ t=0.38
2.6096720921630663
% es.EX (V/m) @ t=0.38
-1.6852749535574967
% es.EY (V/m) @ t=0.38
0.3744748603385435
% es.EZ (V/m) @ t=0.38
1.9220065828058317
% es.tEX (V/m) @ t=0.38
-1.6852749535574914
% es.tEY (V/m) @ t=0.38
0
% es.tEZ (V/m) @ t=0.38
1.922006582805846
% es.Ex (V/m) @ t=0.38
-1.6852749535574967
% es.Ey (V/m) @ t=0.38
0.3744748603385435
% es.Ez (V/m) @ t=0.38
1.9220065828058317
% es.tEx (V/m) @ t=0.38
-1.6852749535574914
% es.tEy (V/m) @ t=0.38
0
% es.tEz (V/m) @ t=0.38
1.922006582805846
% V (V) @ t=0.38
0.02525485459993046
% es.normE (V/m) @ t=0.4
2.6442161241963715
% es.EX (V/m) @ t=0.4
-1.7075875950608674
% es.EY (V/m) @ t=0.4
0.3794193136023716
% es.EZ (V/m) @ t=0.4
1.9474486188351179
% es.tEX (V/m) @ t=0.4
-1.7075875950608683
% es.tEY (V/m) @ t=0.4
0
% es.tEZ (V/m) @ t=0.4
1.947448618835141
% es.Ex (V/m) @ t=0.4
-1.7075875950608674
% es.Ey (V/m) @ t=0.4
0.3794193136023716
% es.Ez (V/m) @ t=0.4
1.9474486188351179
% es.tEx (V/m) @ t=0.4
-1.7075875950608683
% es.tEy (V/m) @ t=0.4
0
% es.tEz (V/m) @ t=0.4
1.947448618835141
% V (V) @ t=0.4
0.025589662340496925
% es.normE (V/m) @ t=0.42
2.678760156347165
% es.EX (V/m) @ t=0.42
-1.7299002365642728
% es.EY (V/m) @ t=0.42
0.38436376686619633
% es.EZ (V/m) @ t=0.42
1.9728906548644183
% es.tEX (V/m) @ t=0.42
-1.7299002365642675
% es.tEY (V/m) @ t=0.42
0
% es.tEZ (V/m) @ t=0.42
1.97289065486442
% es.Ex (V/m) @ t=0.42
-1.7299002365642728
% es.Ey (V/m) @ t=0.42
0.38436376686619633
% es.Ez (V/m) @ t=0.42
1.9728906548644183
% es.tEx (V/m) @ t=0.42
-1.7299002365642675
% es.tEy (V/m) @ t=0.42
0
% es.tEz (V/m) @ t=0.42
1.97289065486442
% V (V) @ t=0.42
0.02592447008106338
% es.normE (V/m) @ t=0.44
2.7133041886109073
% es.EX (V/m) @ t=0.44
-1.7522128780676578
% es.EY (V/m) @ t=0.44
0.3893082201300775
% es.EZ (V/m) @ t=0.44
1.9983326908936991
% es.tEX (V/m) @ t=0.44
-1.7522128780676516
% es.tEY (V/m) @ t=0.44
0
% es.tEZ (V/m) @ t=0.44
1.9983326908937435
% es.Ex (V/m) @ t=0.44
-1.7522128780676578
% es.Ey (V/m) @ t=0.44
0.3893082201300775
% es.Ez (V/m) @ t=0.44
1.9983326908936991
% es.tEx (V/m) @ t=0.44
-1.7522128780676516
% es.tEy (V/m) @ t=0.44
0
% es.tEz (V/m) @ t=0.44
1.9983326908937435
% V (V) @ t=0.44
0.02625927782162984
% es.normE (V/m) @ t=0.46
2.7478482209833572
% es.EX (V/m) @ t=0.46
-1.7745255195710348
% es.EY (V/m) @ t=0.46
0.3942526733938987
% es.EZ (V/m) @ t=0.46
2.0237747269230013
% es.tEX (V/m) @ t=0.46
-1.7745255195710365
% es.tEY (V/m) @ t=0.46
0
% es.tEZ (V/m) @ t=0.46
2.0237747269230226
% es.Ex (V/m) @ t=0.46
-1.7745255195710348
% es.Ey (V/m) @ t=0.46
0.3942526733938987
% es.Ez (V/m) @ t=0.46
2.0237747269230013
% es.tEx (V/m) @ t=0.46
-1.7745255195710365
% es.tEy (V/m) @ t=0.46
0
% es.tEz (V/m) @ t=0.46
2.0237747269230226
% V (V) @ t=0.46
0.0265940855621963
% es.normE (V/m) @ t=0.48
2.7823922534604755
% es.EX (V/m) @ t=0.48
-1.7968381610744348
% es.EY (V/m) @ t=0.48
0.39919712665775875
% es.EZ (V/m) @ t=0.48
2.0492167629522733
% es.tEX (V/m) @ t=0.48
-1.7968381610744295
% es.tEY (V/m) @ t=0.48
0
% es.tEZ (V/m) @ t=0.48
2.0492167629523035
% es.Ex (V/m) @ t=0.48
-1.7968381610744348
% es.Ey (V/m) @ t=0.48
0.39919712665775875
% es.Ez (V/m) @ t=0.48
2.0492167629522733
% es.tEx (V/m) @ t=0.48
-1.7968381610744295
% es.tEy (V/m) @ t=0.48
0
% es.tEz (V/m) @ t=0.48
2.0492167629523035
% V (V) @ t=0.48
0.02692889330276276
% es.normE (V/m) @ t=0.5
2.816936286038411
% es.EX (V/m) @ t=0.5
-1.8191508025778216
% es.EY (V/m) @ t=0.5
0.4041415799216157
% es.EZ (V/m) @ t=0.5
2.074658798981572
% es.tEX (V/m) @ t=0.5
-1.8191508025778145
% es.tEY (V/m) @ t=0.5
0
% es.tEZ (V/m) @ t=0.5
2.074658798981581
% es.Ex (V/m) @ t=0.5
-1.8191508025778216
% es.Ey (V/m) @ t=0.5
0.4041415799216157
% es.Ez (V/m) @ t=0.5
2.074658798981572
% es.tEx (V/m) @ t=0.5
-1.8191508025778145
% es.tEy (V/m) @ t=0.5
0
% es.tEz (V/m) @ t=0.5
2.074658798981581
% V (V) @ t=0.5
0.02726370104332922
% es.normE (V/m) @ t=0.52
2.8515072335638987
% es.EX (V/m) @ t=0.52
-1.8414807786587595
% es.EY (V/m) @ t=0.52
0.4090899979399947
% es.EZ (V/m) @ t=0.52
2.1001206586239576
% es.tEX (V/m) @ t=0.52
-1.8414807786587595
% es.tEY (V/m) @ t=0.52
0
% es.tEZ (V/m) @ t=0.52
2.1001206586239736
% es.Ex (V/m) @ t=0.52
-1.8414807786587595
% es.Ey (V/m) @ t=0.52
0.4090899979399947
% es.Ez (V/m) @ t=0.52
2.1001206586239576
% es.tEx (V/m) @ t=0.52
-1.8414807786587595
% es.tEy (V/m) @ t=0.52
0
% es.tEz (V/m) @ t=0.52
2.1001206586239736
% V (V) @ t=0.52
0.027598764580786715
% es.normE (V/m) @ t=0.54
2.8884905350607477
% es.EX (V/m) @ t=0.54
-1.8653644373913059
% es.EY (V/m) @ t=0.54
0.4143937733578471
% es.EZ (V/m) @ t=0.54
2.127359290942744
% es.tEX (V/m) @ t=0.54
-1.8653644373912988
% es.tEY (V/m) @ t=0.54
0
% es.tEZ (V/m) @ t=0.54
2.1273592909427457
% es.Ex (V/m) @ t=0.54
-1.8653644373913059
% es.Ey (V/m) @ t=0.54
0.4143937733578471
% es.Ez (V/m) @ t=0.54
2.127359290942744
% es.tEx (V/m) @ t=0.54
-1.8653644373912988
% es.tEy (V/m) @ t=0.54
0
% es.tEz (V/m) @ t=0.54
2.1273592909427457
% V (V) @ t=0.54
0.02795675496433116
% es.normE (V/m) @ t=0.56
2.9254738365600366
% es.EX (V/m) @ t=0.56
-1.8892480961238238
% es.EY (V/m) @ t=0.56
0.41969754877564647
% es.EZ (V/m) @ t=0.56
2.1545979232614663
% es.tEX (V/m) @ t=0.56
-1.8892480961238247
% es.tEY (V/m) @ t=0.56
0
% es.tEZ (V/m) @ t=0.56
2.1545979232614894
% es.Ex (V/m) @ t=0.56
-1.8892480961238238
% es.Ey (V/m) @ t=0.56
0.41969754877564647
% es.Ez (V/m) @ t=0.56
2.1545979232614663
% es.tEx (V/m) @ t=0.56
-1.8892480961238247
% es.tEy (V/m) @ t=0.56
0
% es.tEz (V/m) @ t=0.56
2.1545979232614894
% V (V) @ t=0.56
0.02831474534787561
% es.normE (V/m) @ t=0.58
2.962457138061791
% es.EX (V/m) @ t=0.58
-1.9131317548563764
% es.EY (V/m) @ t=0.58
0.4250013241934385
% es.EZ (V/m) @ t=0.58
2.181836555580233
% es.tEX (V/m) @ t=0.58
-1.9131317548563702
% es.tEY (V/m) @ t=0.58
0
% es.tEZ (V/m) @ t=0.58
2.1818365555802632
% es.Ex (V/m) @ t=0.58
-1.9131317548563764
% es.Ey (V/m) @ t=0.58
0.4250013241934385
% es.Ez (V/m) @ t=0.58
2.181836555580233
% es.tEx (V/m) @ t=0.58
-1.9131317548563702
% es.tEy (V/m) @ t=0.58
0
% es.tEz (V/m) @ t=0.58
2.1818365555802632
% V (V) @ t=0.58
0.02867273573142005
% es.normE (V/m) @ t=0.6
2.9994404395658623
% es.EX (V/m) @ t=0.6
-1.9370154135889166
% es.EY (V/m) @ t=0.6
0.43030509961129826
% es.EZ (V/m) @ t=0.6
2.2090751878989696
% es.tEX (V/m) @ t=0.6
-1.9370154135889104
% es.tEY (V/m) @ t=0.6
0
% es.tEZ (V/m) @ t=0.6
2.2090751878989785
% es.Ex (V/m) @ t=0.6
-1.9370154135889166
% es.Ey (V/m) @ t=0.6
0.43030509961129826
% es.Ez (V/m) @ t=0.6
2.2090751878989696
% es.tEx (V/m) @ t=0.6
-1.9370154135889104
% es.tEy (V/m) @ t=0.6
0
% es.tEz (V/m) @ t=0.6
2.2090751878989785
% V (V) @ t=0.6
0.029030726114964496
% es.normE (V/m) @ t=0.62
3.036423741072187
% es.EX (V/m) @ t=0.62
-1.9608990723214497
% es.EY (V/m) @ t=0.62
0.4356088750291156
% es.EZ (V/m) @ t=0.62
2.2363138202177346
% es.tEX (V/m) @ t=0.62
-1.9608990723214434
% es.tEY (V/m) @ t=0.62
0
% es.tEZ (V/m) @ t=0.62
2.2363138202177506
% es.Ex (V/m) @ t=0.62
-1.9608990723214497
% es.Ey (V/m) @ t=0.62
0.4356088750291156
% es.Ez (V/m) @ t=0.62
2.2363138202177346
% es.tEx (V/m) @ t=0.62
-1.9608990723214434
% es.tEy (V/m) @ t=0.62
0
% es.tEz (V/m) @ t=0.62
2.2363138202177506
% V (V) @ t=0.62
0.029388716498508938
% es.normE (V/m) @ t=0.64
3.073407042580674
% es.EX (V/m) @ t=0.64
-1.984782731053988
% es.EY (V/m) @ t=0.64
0.4409126504469254
% es.EZ (V/m) @ t=0.64
2.2635524525364943
% es.tEX (V/m) @ t=0.64
-1.9847827310539818
% es.tEY (V/m) @ t=0.64
0
% es.tEZ (V/m) @ t=0.64
2.2635524525365245
% es.Ex (V/m) @ t=0.64
-1.984782731053988
% es.Ey (V/m) @ t=0.64
0.4409126504469254
% es.Ez (V/m) @ t=0.64
2.2635524525364943
% es.tEx (V/m) @ t=0.64
-1.9847827310539818
% es.tEy (V/m) @ t=0.64
0
% es.tEz (V/m) @ t=0.64
2.2635524525365245
% V (V) @ t=0.64
0.029746706882053383
% es.normE (V/m) @ t=0.66
3.1103903440912455
% es.EX (V/m) @ t=0.66
-2.0086663897865202
% es.EY (V/m) @ t=0.66
0.4462164258647494
% es.EZ (V/m) @ t=0.66
2.2907910848552593
% es.tEX (V/m) @ t=0.66
-2.008666389786514
% es.tEY (V/m) @ t=0.66
0
% es.tEZ (V/m) @ t=0.66
2.2907910848552824
% es.Ex (V/m) @ t=0.66
-2.0086663897865202
% es.Ey (V/m) @ t=0.66
0.4462164258647494
% es.Ez (V/m) @ t=0.66
2.2907910848552593
% es.tEx (V/m) @ t=0.66
-2.008666389786514
% es.tEy (V/m) @ t=0.66
0
% es.tEz (V/m) @ t=0.66
2.2907910848552824
% V (V) @ t=0.66
0.030104697265597825
% es.normE (V/m) @ t=0.68
3.147373645603822
% es.EX (V/m) @ t=0.68
-2.0325500485190595
% es.EY (V/m) @ t=0.68
0.4515202012825559
% es.EZ (V/m) @ t=0.68
2.31802971717401
% es.tEX (V/m) @ t=0.68
-2.0325500485190533
% es.tEY (V/m) @ t=0.68
0
% es.tEZ (V/m) @ t=0.68
2.318029717174026
% es.Ex (V/m) @ t=0.68
-2.0325500485190595
% es.Ey (V/m) @ t=0.68
0.4515202012825559
% es.Ez (V/m) @ t=0.68
2.31802971717401
% es.tEx (V/m) @ t=0.68
-2.0325500485190533
% es.tEy (V/m) @ t=0.68
0
% es.tEz (V/m) @ t=0.68
2.318029717174026
% V (V) @ t=0.68
0.03046268764914227
% es.normE (V/m) @ t=0.7
3.18461751691608
% es.EX (V/m) @ t=0.7
-2.0566019206726454
% es.EY (V/m) @ t=0.7
0.4568617462262481
% es.EZ (V/m) @ t=0.7
2.3454601674769684
% es.tEX (V/m) @ t=0.7
-2.0566019206726383
% es.tEY (V/m) @ t=0.7
0
% es.tEZ (V/m) @ t=0.7
2.3454601674769844
% es.Ex (V/m) @ t=0.7
-2.0566019206726454
% es.Ey (V/m) @ t=0.7
0.4568617462262481
% es.Ez (V/m) @ t=0.7
2.3454601674769684
% es.tEx (V/m) @ t=0.7
-2.0566019206726383
% es.tEy (V/m) @ t=0.7
0
% es.tEz (V/m) @ t=0.7
2.3454601674769844
% V (V) @ t=0.7
0.030823189880998574
% es.normE (V/m) @ t=0.72
3.2224572948905763
% es.EX (V/m) @ t=0.72
-2.0810384862904563
% es.EY (V/m) @ t=0.72
0.46228966768867163
% es.EZ (V/m) @ t=0.72
2.373329293388421
% es.tEX (V/m) @ t=0.72
-2.081038486290449
% es.tEY (V/m) @ t=0.72
0
% es.tEZ (V/m) @ t=0.72
2.373329293388437
% es.Ex (V/m) @ t=0.72
-2.0810384862904563
% es.Ey (V/m) @ t=0.72
0.46228966768867163
% es.Ez (V/m) @ t=0.72
2.373329293388421
% es.tEx (V/m) @ t=0.72
-2.081038486290449
% es.tEy (V/m) @ t=0.72
0
% es.tEz (V/m) @ t=0.72
2.373329293388437
% V (V) @ t=0.72
0.031189436551215012
% es.normE (V/m) @ t=0.74
3.260462402383099
% es.EX (V/m) @ t=0.74
-2.1055817820207263
% es.EY (V/m) @ t=0.74
0.467741553622679
% es.EZ (V/m) @ t=0.74
2.4013201263247925
% es.tEX (V/m) @ t=0.74
-2.1055817820207183
% es.tEY (V/m) @ t=0.74
0
% es.tEZ (V/m) @ t=0.74
2.4013201263248014
% es.Ex (V/m) @ t=0.74
-2.1055817820207263
% es.Ey (V/m) @ t=0.74
0.467741553622679
% es.Ez (V/m) @ t=0.74
2.4013201263247925
% es.tEx (V/m) @ t=0.74
-2.1055817820207183
% es.tEy (V/m) @ t=0.74
0
% es.tEz (V/m) @ t=0.74
2.4013201263248014
% V (V) @ t=0.74
0.0315572769697253
% es.normE (V/m) @ t=0.76
3.2986328393935
% es.EX (V/m) @ t=0.76
-2.130231807863476
% es.EY (V/m) @ t=0.76
0.47321740402822954
% es.EZ (V/m) @ t=0.76
2.4294326662860115
% es.tEX (V/m) @ t=0.76
-2.1302318078634688
% es.tEY (V/m) @ t=0.76
0
% es.tEZ (V/m) @ t=0.76
2.429432666286006
% es.Ex (V/m) @ t=0.76
-2.130231807863476
% es.Ey (V/m) @ t=0.76
0.47321740402822954
% es.Ez (V/m) @ t=0.76
2.4294326662860115
% es.tEx (V/m) @ t=0.76
-2.1302318078634688
% es.tEy (V/m) @ t=0.76
0
% es.tEz (V/m) @ t=0.76
2.429432666286006
% V (V) @ t=0.76
0.03192671113652947
% es.normE (V/m) @ t=0.78
3.336968605921805
% es.EX (V/m) @ t=0.78
-2.1549885638186392
% es.EY (V/m) @ t=0.78
0.4787172189053044
% es.EZ (V/m) @ t=0.78
2.4576669132721918
% es.tEX (V/m) @ t=0.78
-2.1549885638186383
% es.tEY (V/m) @ t=0.78
0
% es.tEZ (V/m) @ t=0.78
2.457666913272213
% es.Ex (V/m) @ t=0.78
-2.1549885638186392
% es.Ey (V/m) @ t=0.78
0.4787172189053044
% es.Ez (V/m) @ t=0.78
2.4576669132721918
% es.tEx (V/m) @ t=0.78
-2.1549885638186383
% es.tEy (V/m) @ t=0.78
0
% es.tEz (V/m) @ t=0.78
2.457666913272213
% V (V) @ t=0.78
0.03229773905162748
% es.normE (V/m) @ t=0.8
3.3754697019680737
% es.EX (V/m) @ t=0.8
-2.179852049886308
% es.EY (V/m) @ t=0.8
0.48424099825386446
% es.EZ (V/m) @ t=0.8
2.486022867283218
% es.tEX (V/m) @ t=0.8
-2.179852049886307
% es.tEY (V/m) @ t=0.8
0
% es.tEZ (V/m) @ t=0.8
2.486022867283239
% es.Ex (V/m) @ t=0.8
-2.179852049886308
% es.Ey (V/m) @ t=0.8
0.48424099825386446
% es.Ez (V/m) @ t=0.8
2.486022867283218
% es.tEx (V/m) @ t=0.8
-2.179852049886307
% es.tEy (V/m) @ t=0.8
0
% es.tEz (V/m) @ t=0.8
2.486022867283239
% V (V) @ t=0.8
0.032670360715019345
% es.normE (V/m) @ t=0.82
3.414136127532576
% es.EX (V/m) @ t=0.82
-2.20482226606641
% es.EY (V/m) @ t=0.82
0.4897887420740521
% es.EZ (V/m) @ t=0.82
2.514500528319221
% es.tEX (V/m) @ t=0.82
-2.20482226606641
% es.tEY (V/m) @ t=0.82
0
% es.tEZ (V/m) @ t=0.82
2.5145005283192567
% es.Ex (V/m) @ t=0.82
-2.20482226606641
% es.Ey (V/m) @ t=0.82
0.4897887420740521
% es.Ez (V/m) @ t=0.82
2.514500528319221
% es.tEx (V/m) @ t=0.82
-2.20482226606641
% es.tEy (V/m) @ t=0.82
0
% es.tEz (V/m) @ t=0.82
2.5145005283192567
% V (V) @ t=0.82
0.033044576126705076
% es.normE (V/m) @ t=0.84
3.4529678826155066
% es.EX (V/m) @ t=0.84
-2.2298992123590313
% es.EY (V/m) @ t=0.84
0.495360450365643
% es.EZ (V/m) @ t=0.84
2.543099896380067
% es.tEX (V/m) @ t=0.84
-2.2298992123590304
% es.tEY (V/m) @ t=0.84
0
% es.tEZ (V/m) @ t=0.84
2.543099896380081
% es.Ex (V/m) @ t=0.84
-2.2298992123590313
% es.Ey (V/m) @ t=0.84
0.495360450365643
% es.Ez (V/m) @ t=0.84
2.543099896380067
% es.tEx (V/m) @ t=0.84
-2.2298992123590304
% es.tEy (V/m) @ t=0.84
0
% es.tEz (V/m) @ t=0.84
2.543099896380081
% V (V) @ t=0.84
0.03342038528668466
% es.normE (V/m) @ t=0.86
3.49196496721728
% es.EX (V/m) @ t=0.86
-2.255082888764079
% es.EY (V/m) @ t=0.86
0.5009561231288224
% es.EZ (V/m) @ t=0.86
2.571820971465865
% es.tEX (V/m) @ t=0.86
-2.2550828887640852
% es.tEY (V/m) @ t=0.86
0
% es.tEZ (V/m) @ t=0.86
2.571820971465865
% es.Ex (V/m) @ t=0.86
-2.255082888764079
% es.Ey (V/m) @ t=0.86
0.5009561231288224
% es.Ez (V/m) @ t=0.86
2.571820971465865
% es.tEx (V/m) @ t=0.86
-2.2550828887640852
% es.tEy (V/m) @ t=0.86
0
% es.tEz (V/m) @ t=0.86
2.571820971465865
% V (V) @ t=0.86
0.03379778819495811
% es.normE (V/m) @ t=0.88
3.531127381338292
% es.EX (V/m) @ t=0.88
-2.2803732952815983
% es.EY (V/m) @ t=0.88
0.506575760363466
% es.EZ (V/m) @ t=0.88
2.600663753576516
% es.tEX (V/m) @ t=0.88
-2.2803732952815903
% es.tEY (V/m) @ t=0.88
0
% es.tEZ (V/m) @ t=0.88
2.600663753576523
% es.Ex (V/m) @ t=0.88
-2.2803732952815983
% es.Ey (V/m) @ t=0.88
0.506575760363466
% es.Ez (V/m) @ t=0.88
2.600663753576516
% es.tEx (V/m) @ t=0.88
-2.2803732952815903
% es.tEy (V/m) @ t=0.88
0
% es.tEz (V/m) @ t=0.88
2.600663753576523
% V (V) @ t=0.88
0.034176784851525414
% es.normE (V/m) @ t=0.9
3.570455124979131
% es.EX (V/m) @ t=0.9
-2.305770431911588
% es.EY (V/m) @ t=0.9
0.5122193620697337
% es.EZ (V/m) @ t=0.9
2.6296282427121085
% es.tEX (V/m) @ t=0.9
-2.3057704319115944
% es.tEY (V/m) @ t=0.9
0
% es.tEZ (V/m) @ t=0.9
2.6296282427121547
% es.Ex (V/m) @ t=0.9
-2.305770431911588
% es.Ey (V/m) @ t=0.9
0.5122193620697337
% es.Ez (V/m) @ t=0.9
2.6296282427121085
% es.tEx (V/m) @ t=0.9
-2.3057704319115944
% es.tEy (V/m) @ t=0.9
0
% es.tEz (V/m) @ t=0.9
2.6296282427121547
% V (V) @ t=0.9
0.034557375256386566
% es.normE (V/m) @ t=0.92
3.60994819814034
% es.EX (V/m) @ t=0.92
-2.331274298654048
% es.EY (V/m) @ t=0.92
0.5178869282474723
% es.EZ (V/m) @ t=0.92
2.658714438872604
% es.tEX (V/m) @ t=0.92
-2.33127429865404
% es.tEY (V/m) @ t=0.92
0
% es.tEZ (V/m) @ t=0.92
2.6587144388726216
% es.Ex (V/m) @ t=0.92
-2.331274298654048
% es.Ey (V/m) @ t=0.92
0.5178869282474723
% es.Ez (V/m) @ t=0.92
2.658714438872604
% es.tEx (V/m) @ t=0.92
-2.33127429865404
% es.tEy (V/m) @ t=0.92
0
% es.tEz (V/m) @ t=0.92
2.6587144388726216
% V (V) @ t=0.92
0.03493955940954159
% es.normE (V/m) @ t=0.94
3.6496066008225707
% es.EX (V/m) @ t=0.94
-2.356884895508962
% es.EY (V/m) @ t=0.94
0.5235784588967498
% es.EZ (V/m) @ t=0.94
2.6879223420579805
% es.tEX (V/m) @ t=0.94
-2.3568848955089674
% es.tEY (V/m) @ t=0.94
0
% es.tEZ (V/m) @ t=0.94
2.687922342058016
% es.Ex (V/m) @ t=0.94
-2.356884895508962
% es.Ey (V/m) @ t=0.94
0.5235784588967498
% es.Ez (V/m) @ t=0.94
2.6879223420579805
% es.tEx (V/m) @ t=0.94
-2.3568848955089674
% es.tEy (V/m) @ t=0.94
0
% es.tEz (V/m) @ t=0.94
2.687922342058016
% V (V) @ t=0.94
0.035323337310990466
% es.normE (V/m) @ t=0.96
3.6894303330265883
% es.EX (V/m) @ t=0.96
-2.3826022224763603
% es.EY (V/m) @ t=0.96
0.5292939540175443
% es.EZ (V/m) @ t=0.96
2.7172519522683025
% es.tEX (V/m) @ t=0.96
-2.3826022224763657
% es.tEY (V/m) @ t=0.96
0
% es.tEZ (V/m) @ t=0.96
2.7172519522683345
% es.Ex (V/m) @ t=0.96
-2.3826022224763603
% es.Ey (V/m) @ t=0.96
0.5292939540175443
% es.Ez (V/m) @ t=0.96
2.7172519522683025
% es.tEx (V/m) @ t=0.96
-2.3826022224763657
% es.tEy (V/m) @ t=0.96
0
% es.tEz (V/m) @ t=0.96
2.7172519522683345
% V (V) @ t=0.96
0.035708708960733214
% es.normE (V/m) @ t=0.98
3.729419394753112
% es.EX (V/m) @ t=0.98
-2.408426279556185
% es.EY (V/m) @ t=0.98
0.5350334136098454
% es.EZ (V/m) @ t=0.98
2.7467032695035414
% es.tEX (V/m) @ t=0.98
-2.408426279556177
% es.tEY (V/m) @ t=0.98
0
% es.tEZ (V/m) @ t=0.98
2.7467032695035556
% es.Ex (V/m) @ t=0.98
-2.408426279556185
% es.Ey (V/m) @ t=0.98
0.5350334136098454
% es.Ez (V/m) @ t=0.98
2.7467032695035414
% es.tEx (V/m) @ t=0.98
-2.408426279556177
% es.tEy (V/m) @ t=0.98
0
% es.tEz (V/m) @ t=0.98
2.7467032695035556
% V (V) @ t=0.98
0.0360956743587698
% es.normE (V/m) @ t=1
3.769573786003029
% es.EX (V/m) @ t=1
-2.4343570667485226
% es.EY (V/m) @ t=1
0.540796837673728
% es.EZ (V/m) @ t=1
2.7762762937636474
% es.tEX (V/m) @ t=1
-2.4343570667485137
% es.tEY (V/m) @ t=1
0
% es.tEZ (V/m) @ t=1
2.7762762937637078
% es.Ex (V/m) @ t=1
-2.4343570667485226
% es.Ey (V/m) @ t=1
0.540796837673728
% es.Ez (V/m) @ t=1
2.7762762937636474
% es.tEx (V/m) @ t=1
-2.4343570667485137
% es.tEy (V/m) @ t=1
0
% es.tEz (V/m) @ t=1
2.7762762937637078
% V (V) @ t=1
0.03648423350510026
% es.normE (V/m) @ t=1.02
3.809893506777179
% es.EX (V/m) @ t=1.02
-2.4603945840533026
% es.EY (V/m) @ t=1.02
0.5465842262090783
% es.EZ (V/m) @ t=1.02
2.805971025048663
% es.tEX (V/m) @ t=1.02
-2.4603945840532937
% es.tEY (V/m) @ t=1.02
0
% es.tEZ (V/m) @ t=1.02
2.8059710250487058
% es.Ex (V/m) @ t=1.02
-2.4603945840533026
% es.Ey (V/m) @ t=1.02
0.5465842262090783
% es.Ez (V/m) @ t=1.02
2.805971025048663
% es.tEx (V/m) @ t=1.02
-2.4603945840532937
% es.tEy (V/m) @ t=1.02
0
% es.tEz (V/m) @ t=1.02
2.8059710250487058
% V (V) @ t=1.02
0.036874386399724575
% es.normE (V/m) @ t=1.04
3.8503686808842748
% es.EX (V/m) @ t=1.04
-2.4865324492818504
% es.EY (V/m) @ t=1.04
0.5523941383054845
% es.EZ (V/m) @ t=1.04
2.8357802017349556
% es.tEX (V/m) @ t=1.04
-2.4865324492818424
% es.tEY (V/m) @ t=1.04
0
% es.tEZ (V/m) @ t=1.04
2.835780201734984
% es.Ex (V/m) @ t=1.04
-2.4865324492818504
% es.Ey (V/m) @ t=1.04
0.5523941383054845