% Model:              1 neuron.mph
% Version:            COMSOL 6.0.0.405
% Date:               Mar 16 2023, 20:03
% Dimension:          0
% Nodes:              14017
% Expressions:        14017
% Description:        Electric field norm, Electric field, X component, Electric field, Y component, Electric field, Z component, Tangential electric field, X component, Tangential electric field, Y component, Tangential electric field, Z component, Electric field, x component, Electric field, y component, Electric field, z component, Tangential electric field, x component, Tangential electric field, y component, Tangential electric field, z component, Electric potential
% Length unit:        mm
% x
1
% y
12.2
% z
1
% es.normE (V/m) @ t=0
1.4848013984116069
% es.EX (V/m) @ t=0
1.0081985493085135
% es.EY (V/m) @ t=0
0.2863416434413253
% es.EZ (V/m) @ t=0
1.0243764944713831
% es.tEX (V/m) @ t=0
1.0081985493085028
% es.tEY (V/m) @ t=0
0
% es.tEZ (V/m) @ t=0
1.024376494471369
% es.Ex (V/m) @ t=0
1.0081985493085135
% es.Ey (V/m) @ t=0
0.2863416434413253
% es.Ez (V/m) @ t=0
1.0243764944713831
% es.tEx (V/m) @ t=0
1.0081985493085028
% es.tEy (V/m) @ t=0
0
% es.tEz (V/m) @ t=0
1.024376494471369
% V (V) @ t=0
0.013923394144790144
% es.normE (V/m) @ t=0.02
1.2867546964691754
% es.EX (V/m) @ t=0.02
0.8737223798755238
% es.EY (V/m) @ t=0.02
0.24814864513706247
% es.EZ (V/m) @ t=0.02
0.8877424771457623
% es.tEX (V/m) @ t=0.02
0.8737223798755025
% es.tEY (V/m) @ t=0.02
0
% es.tEZ (V/m) @ t=0.02
0.8877424771457569
% es.Ex (V/m) @ t=0.02
0.8737223798755238
% es.Ey (V/m) @ t=0.02
0.24814864513706247
% es.Ez (V/m) @ t=0.02
0.8877424771457623
% es.tEx (V/m) @ t=0.02
0.8737223798755025
% es.tEy (V/m) @ t=0.02
0
% es.tEz (V/m) @ t=0.02
0.8877424771457569
% V (V) @ t=0.02
0.012066255313195185
% es.normE (V/m) @ t=0.04
1.3029891405919054
% es.EX (V/m) @ t=0.04
0.8847457638119316
% es.EY (V/m) @ t=0.04
0.2512794329989738
% es.EZ (V/m) @ t=0.04
0.8989427558968694
% es.tEX (V/m) @ t=0.04
0.8847457638119351
% es.tEY (V/m) @ t=0.04
0
% es.tEZ (V/m) @ t=0.04
0.8989427558968472
% es.Ex (V/m) @ t=0.04
0.8847457638119316
% es.Ey (V/m) @ t=0.04
0.2512794329989738
% es.Ez (V/m) @ t=0.04
0.8989427558968694
% es.tEx (V/m) @ t=0.04
0.8847457638119351
% es.tEy (V/m) @ t=0.04
0
% es.tEz (V/m) @ t=0.04
0.8989427558968472
% V (V) @ t=0.04
0.012218490162506219
% es.normE (V/m) @ t=0.06
1.3193750436378127
% es.EX (V/m) @ t=0.06
0.8958719910615365
% es.EY (V/m) @ t=0.06
0.25443942784674434
% es.EZ (V/m) @ t=0.06
0.9102475274025963
% es.tEX (V/m) @ t=0.06
0.8958719910615542
% es.tEY (V/m) @ t=0.06
0
% es.tEZ (V/m) @ t=0.06
0.9102475274025821
% es.Ex (V/m) @ t=0.06
0.8958719910615365
% es.Ey (V/m) @ t=0.06
0.25443942784674434
% es.Ez (V/m) @ t=0.06
0.9102475274025963
% es.tEx (V/m) @ t=0.06
0.8958719910615542
% es.tEy (V/m) @ t=0.06
0
% es.tEz (V/m) @ t=0.06
0.9102475274025821
% V (V) @ t=0.06
0.012372145347847321
% es.normE (V/m) @ t=0.08
1.3362748152075756
% es.EX (V/m) @ t=0.08
0.9073471406943234
% es.EY (V/m) @ t=0.08
0.25769852248358127
% es.EZ (V/m) @ t=0.08
0.9219068211213788
% es.tEX (V/m) @ t=0.08
0.9073471406943128
% es.tEY (V/m) @ t=0.08
0
% es.tEZ (V/m) @ t=0.08
0.921906821121361
% es.Ex (V/m) @ t=0.08
0.9073471406943234
% es.Ey (V/m) @ t=0.08
0.25769852248358127
% es.Ez (V/m) @ t=0.08
0.9219068211213788
% es.tEx (V/m) @ t=0.08
0.9073471406943128
% es.tEy (V/m) @ t=0.08
0
% es.tEz (V/m) @ t=0.08
0.921906821121361
% V (V) @ t=0.08
0.012530619188852472
% es.normE (V/m) @ t=0.1
1.3532284567052577
% es.EX (V/m) @ t=0.1
0.9188588686010313
% es.EY (V/m) @ t=0.1
0.2609680059616206
% es.EZ (V/m) @ t=0.1
0.9336032801561736
% es.tEX (V/m) @ t=0.1
0.9188588686010348
% es.tEY (V/m) @ t=0.1
0
% es.tEZ (V/m) @ t=0.1
0.9336032801561558
% es.Ex (V/m) @ t=0.1
0.9188588686010313
% es.Ey (V/m) @ t=0.1
0.2609680059616206
% es.Ez (V/m) @ t=0.1
0.9336032801561736
% es.tEx (V/m) @ t=0.1
0.9188588686010348
% es.tEy (V/m) @ t=0.1
0
% es.tEz (V/m) @ t=0.1
0.9336032801561558
% V (V) @ t=0.1
0.012689598179758243
% es.normE (V/m) @ t=0.12
1.3701820982029937
% es.EX (V/m) @ t=0.12
0.9303705965077853
% es.EY (V/m) @ t=0.12
0.26423748943963155
% es.EZ (V/m) @ t=0.12
0.9452997391909985
% es.tEX (V/m) @ t=0.12
0.9303705965077711
% es.tEY (V/m) @ t=0.12
0
% es.tEZ (V/m) @ t=0.12
0.945299739190979
% es.Ex (V/m) @ t=0.12
0.9303705965077853
% es.Ey (V/m) @ t=0.12
0.26423748943963155
% es.Ez (V/m) @ t=0.12
0.9452997391909985
% es.tEx (V/m) @ t=0.12
0.9303705965077711
% es.tEy (V/m) @ t=0.12
0
% es.tEz (V/m) @ t=0.12
0.945299739190979
% V (V) @ t=0.12
0.012848577170664014
% es.normE (V/m) @ t=0.14
1.3881319929305427
% es.EX (V/m) @ t=0.14
0.9425587902959087
% es.EY (V/m) @ t=0.14
0.26769910434090427
% es.EZ (V/m) @ t=0.14
0.9576835211159818
% es.tEX (V/m) @ t=0.14
0.9425587902959336
% es.tEY (V/m) @ t=0.14
0
% es.tEZ (V/m) @ t=0.14
0.9576835211159747
% es.Ex (V/m) @ t=0.14
0.9425587902959087
% es.Ey (V/m) @ t=0.14
0.26769910434090427
% es.Ez (V/m) @ t=0.14
0.9576835211159818
% es.tEx (V/m) @ t=0.14
0.9425587902959336
% es.tEy (V/m) @ t=0.14
0
% es.tEz (V/m) @ t=0.14
0.9576835211159747
% V (V) @ t=0.14
0.013016898146501478
% es.normE (V/m) @ t=0.16
1.4063016594592423
% es.EX (V/m) @ t=0.16
0.9548962113294124
% es.EY (V/m) @ t=0.16
0.2712031031137432
% es.EZ (V/m) @ t=0.16
0.9702189253243372
% es.tEX (V/m) @ t=0.16
0.9548962113294266
% es.tEY (V/m) @ t=0.16
0
% es.tEZ (V/m) @ t=0.16
0.9702189253243176
% es.Ex (V/m) @ t=0.16
0.9548962113294124
% es.Ey (V/m) @ t=0.16
0.2712031031137432
% es.Ez (V/m) @ t=0.16
0.9702189253243372
% es.tEx (V/m) @ t=0.16
0.9548962113294266
% es.tEy (V/m) @ t=0.16
0
% es.tEz (V/m) @ t=0.16
0.9702189253243176
% V (V) @ t=0.16
0.013187279948635626
% es.normE (V/m) @ t=0.18
1.4244713259879016
% es.EX (V/m) @ t=0.18
0.9672336323628805
% es.EY (V/m) @ t=0.18
0.2747071018865892
% es.EZ (V/m) @ t=0.18
0.9827543295326819
% es.tEX (V/m) @ t=0.18
0.9672336323628912
% es.tEY (V/m) @ t=0.18
0
% es.tEZ (V/m) @ t=0.18
0.9827543295326677
% es.Ex (V/m) @ t=0.18
0.9672336323628805
% es.Ey (V/m) @ t=0.18
0.2747071018865892
% es.Ez (V/m) @ t=0.18
0.9827543295326819
% es.tEx (V/m) @ t=0.18
0.9672336323628912
% es.tEy (V/m) @ t=0.18
0
% es.tEz (V/m) @ t=0.18
0.9827543295326677
% V (V) @ t=0.18
0.013357661750769773
% es.normE (V/m) @ t=0.2
1.442640992516611
% es.EX (V/m) @ t=0.2
0.9795710533963948
% es.EY (V/m) @ t=0.2
0.27821110065944943
% es.EZ (V/m) @ t=0.2
0.995289733741032
% es.tEX (V/m) @ t=0.2
0.97957105339637
% es.tEY (V/m) @ t=0.2
0
% es.tEZ (V/m) @ t=0.2
0.9952897337410249
% es.Ex (V/m) @ t=0.2
0.9795710533963948
% es.Ey (V/m) @ t=0.2
0.27821110065944943
% es.Ez (V/m) @ t=0.2
0.995289733741032
% es.tEx (V/m) @ t=0.2
0.97957105339637
% es.tEy (V/m) @ t=0.2
0
% es.tEz (V/m) @ t=0.2
0.9952897337410249
% V (V) @ t=0.2
0.01352804355290392
% es.normE (V/m) @ t=0.22
1.460810659045296
% es.EX (V/m) @ t=0.22
0.9919084744298985
% es.EY (V/m) @ t=0.22
0.28171509943226347
% es.EZ (V/m) @ t=0.22
1.007825137949382
% es.tEX (V/m) @ t=0.22
0.9919084744298772
% es.tEY (V/m) @ t=0.22
0
% es.tEZ (V/m) @ t=0.22
1.0078251379493608
% es.Ex (V/m) @ t=0.22
0.9919084744298985
% es.Ey (V/m) @ t=0.22
0.28171509943226347
% es.Ez (V/m) @ t=0.22
1.007825137949382
% es.tEx (V/m) @ t=0.22
0.9919084744298772
% es.tEy (V/m) @ t=0.22
0
% es.tEz (V/m) @ t=0.22
1.0078251379493608
% V (V) @ t=0.22
0.013698425355038069
% es.normE (V/m) @ t=0.24
1.4789803255739509
% es.EX (V/m) @ t=0.24
1.004245895463356
% es.EY (V/m) @ t=0.24
0.28521909820510416
% es.EZ (V/m) @ t=0.24
1.0203605421577162
% es.tEX (V/m) @ t=0.24
1.0042458954633418
% es.tEY (V/m) @ t=0.24
0
% es.tEZ (V/m) @ t=0.24
1.0203605421577038
% es.Ex (V/m) @ t=0.24
1.004245895463356
% es.Ey (V/m) @ t=0.24
0.28521909820510416
% es.Ez (V/m) @ t=0.24
1.0203605421577162
% es.tEx (V/m) @ t=0.24
1.0042458954633418
% es.tEy (V/m) @ t=0.24
0
% es.tEz (V/m) @ t=0.24
1.0203605421577038
% V (V) @ t=0.24
0.013868807157172217
% es.normE (V/m) @ t=0.26
1.4979918649228006
% es.EX (V/m) @ t=0.26
1.0171549589761
% es.EY (V/m) @ t=0.26
0.2888854483634944
% es.EZ (V/m) @ t=0.26
1.0334767620210545
% es.tEX (V/m) @ t=0.26
1.0171549589760929
% es.tEY (V/m) @ t=0.26
0
% es.tEZ (V/m) @ t=0.26
1.0334767620210528
% es.Ex (V/m) @ t=0.26
1.0171549589761
% es.Ey (V/m) @ t=0.26
0.2888854483634944
% es.Ez (V/m) @ t=0.26
1.0334767620210545
% es.tEx (V/m) @ t=0.26
1.0171549589760929
% es.tEy (V/m) @ t=0.26
0
% es.tEz (V/m) @ t=0.26
1.0334767620210528
% V (V) @ t=0.26
0.014047083502446232
% es.normE (V/m) @ t=0.28
1.5174615580594228
% es.EX (V/m) @ t=0.28
1.0303751148069011
% es.EY (V/m) @ t=0.28
0.29264015141851374
% es.EZ (V/m) @ t=0.28
1.0469090663165517
% es.tEX (V/m) @ t=0.28
1.0303751148069011
% es.tEY (V/m) @ t=0.28
0
% es.tEZ (V/m) @ t=0.28
1.0469090663165446
% es.Ex (V/m) @ t=0.28
1.0303751148069011
% es.Ey (V/m) @ t=0.28
0.29264015141851374
% es.Ez (V/m) @ t=0.28
1.0469090663165517
% es.tEx (V/m) @ t=0.28
1.0303751148069011
% es.tEy (V/m) @ t=0.28
0
% es.tEz (V/m) @ t=0.28
1.0469090663165446
% V (V) @ t=0.28
0.014229656119977917
% es.normE (V/m) @ t=0.3
1.536931251196021
% es.EX (V/m) @ t=0.3
1.0435952706377165
% es.EY (V/m) @ t=0.3
0.29639485447355085
% es.EZ (V/m) @ t=0.3
1.0603413706120062
% es.tEX (V/m) @ t=0.3
1.0435952706376952
% es.tEY (V/m) @ t=0.3
0
% es.tEZ (V/m) @ t=0.3
1.0603413706119866
% es.Ex (V/m) @ t=0.3
1.0435952706377165
% es.Ey (V/m) @ t=0.3
0.29639485447355085
% es.Ez (V/m) @ t=0.3
1.0603413706120062
% es.tEx (V/m) @ t=0.3
1.0435952706376952
% es.tEy (V/m) @ t=0.3
0
% es.tEz (V/m) @ t=0.3
1.0603413706119866
% V (V) @ t=0.3
0.014412228737509601
% es.normE (V/m) @ t=0.32
1.5564009443326174
% es.EX (V/m) @ t=0.32
1.0568154264684821
% es.EY (V/m) @ t=0.32
0.3001495575286057
% es.EZ (V/m) @ t=0.32
1.0737736749074802
% es.tEX (V/m) @ t=0.32
1.0568154264684608
% es.tEY (V/m) @ t=0.32
0
% es.tEZ (V/m) @ t=0.32
1.0737736749074642
% es.Ex (V/m) @ t=0.32
1.0568154264684821
% es.Ey (V/m) @ t=0.32
0.3001495575286057
% es.Ez (V/m) @ t=0.32
1.0737736749074802
% es.tEx (V/m) @ t=0.32
1.0568154264684608
% es.tEy (V/m) @ t=0.32
0
% es.tEz (V/m) @ t=0.32
1.0737736749074642
% V (V) @ t=0.32
0.014594801355041286
% es.normE (V/m) @ t=0.34
1.5758706374692162
% es.EX (V/m) @ t=0.34
1.0700355822992478
% es.EY (V/m) @ t=0.34
0.3039042605836748
% es.EZ (V/m) @ t=0.34
1.0872059792029596
% es.tEX (V/m) @ t=0.34
1.0700355822992549
% es.tEY (V/m) @ t=0.34
0
% es.tEZ (V/m) @ t=0.34
1.087205979202949
% es.Ex (V/m) @ t=0.34
1.0700355822992478
% es.Ey (V/m) @ t=0.34
0.3039042605836748
% es.Ez (V/m) @ t=0.34
1.0872059792029596
% es.tEx (V/m) @ t=0.34
1.0700355822992549
% es.tEy (V/m) @ t=0.34
0
% es.tEz (V/m) @ t=0.34
1.087205979202949
% V (V) @ t=0.34
0.014777373972572973
% es.normE (V/m) @ t=0.36
1.5953403306058136
% es.EX (V/m) @ t=0.36
1.083255738130056
% es.EY (V/m) @ t=0.36
0.30765896363865153
% es.EZ (V/m) @ t=0.36
1.1006382834984336
% es.tEX (V/m) @ t=0.36
1.083255738130049
% es.tEY (V/m) @ t=0.36
0
% es.tEZ (V/m) @ t=0.36
1.1006382834984123
% es.Ex (V/m) @ t=0.36
1.083255738130056
% es.Ey (V/m) @ t=0.36
0.30765896363865153
% es.Ez (V/m) @ t=0.36
1.1006382834984336
% es.tEx (V/m) @ t=0.36
1.083255738130049
% es.tEy (V/m) @ t=0.36
0
% es.tEz (V/m) @ t=0.36
1.1006382834984123
% V (V) @ t=0.36
0.014959946590104654
% es.normE (V/m) @ t=0.38
1.6154698980016984
% es.EX (V/m) @ t=0.38
1.096923956305389
% es.EY (V/m) @ t=0.38
0.3115409227364907
% es.EZ (V/m) @ t=0.38
1.1145258406770306
% es.tEX (V/m) @ t=0.38
1.0969239563053748
% es.tEY (V/m) @ t=0.38
0
% es.tEZ (V/m) @ t=0.38
1.114525840677004
% es.Ex (V/m) @ t=0.38
1.096923956305389
% es.Ey (V/m) @ t=0.38
0.3115409227364907
% es.Ez (V/m) @ t=0.38
1.1145258406770306
% es.tEx (V/m) @ t=0.38
1.0969239563053748
% es.tEy (V/m) @ t=0.38
0
% es.tEz (V/m) @ t=0.38
1.114525840677004
% V (V) @ t=0.38
0.015148707021941581
% es.normE (V/m) @ t=0.4
1.6363261958745892
% es.EX (V/m) @ t=0.4
1.1110856329795737
% es.EY (V/m) @ t=0.4
0.31556303102691174
% es.EZ (V/m) @ t=0.4
1.1289147754138895
% es.tEX (V/m) @ t=0.4
1.1110856329795524
% es.tEY (V/m) @ t=0.4
0
% es.tEZ (V/m) @ t=0.4
1.1289147754138824
% es.Ex (V/m) @ t=0.4
1.1110856329795737
% es.Ey (V/m) @ t=0.4
0.31556303102691174
% es.Ez (V/m) @ t=0.4
1.1289147754138895
% es.tEx (V/m) @ t=0.4
1.1110856329795524
% es.tEy (V/m) @ t=0.4
0
% es.tEz (V/m) @ t=0.4
1.1289147754138824
% V (V) @ t=0.4
0.015344282196403106
% es.normE (V/m) @ t=0.42
1.6571824937474169
% es.EX (V/m) @ t=0.42
1.1252473096536448
% es.EY (V/m) @ t=0.42
0.31958513931741805
% es.EZ (V/m) @ t=0.42
1.1433037101507502
% es.tEX (V/m) @ t=0.42
1.1252473096536448
% es.tEY (V/m) @ t=0.42
0
% es.tEZ (V/m) @ t=0.42
1.1433037101507324
% es.Ex (V/m) @ t=0.42
1.1252473096536448
% es.Ey (V/m) @ t=0.42
0.31958513931741805
% es.Ez (V/m) @ t=0.42
1.1433037101507502
% es.tEx (V/m) @ t=0.42
1.1252473096536448
% es.tEy (V/m) @ t=0.42
0
% es.tEz (V/m) @ t=0.42
1.1433037101507324
% V (V) @ t=0.42
0.015539857370864624
% es.normE (V/m) @ t=0.44
1.6780387916202582
% es.EX (V/m) @ t=0.44
1.1394089863277657
% es.EY (V/m) @ t=0.44
0.3236072476078178
% es.EZ (V/m) @ t=0.44
1.1576926448876126
% es.tEX (V/m) @ t=0.44
1.1394089863277657
% es.tEY (V/m) @ t=0.44
0
% es.tEZ (V/m) @ t=0.44
1.1576926448876037
% es.Ex (V/m) @ t=0.44
1.1394089863277657
% es.Ey (V/m) @ t=0.44
0.3236072476078178
% es.Ez (V/m) @ t=0.44
1.1576926448876126
% es.tEx (V/m) @ t=0.44
1.1394089863277657
% es.tEy (V/m) @ t=0.44
0
% es.tEz (V/m) @ t=0.44
1.1576926448876037
% V (V) @ t=0.44
0.01573543254532615
% es.normE (V/m) @ t=0.46
1.6988950894931636
% es.EX (V/m) @ t=0.46
1.1535706630019718
% es.EY (V/m) @ t=0.46
0.32762935589820685
% es.EZ (V/m) @ t=0.46
1.1720815796244874
% es.tEX (V/m) @ t=0.46
1.1535706630019718
% es.tEY (V/m) @ t=0.46
0
% es.tEZ (V/m) @ t=0.46
1.172081579624475
% es.Ex (V/m) @ t=0.46
1.1535706630019718
% es.Ey (V/m) @ t=0.46
0.32762935589820685
% es.Ez (V/m) @ t=0.46
1.1720815796244874
% es.tEx (V/m) @ t=0.46
1.1535706630019718
% es.tEy (V/m) @ t=0.46
0
% es.tEz (V/m) @ t=0.46
1.172081579624475
% V (V) @ t=0.46
0.015931007719787674
% es.normE (V/m) @ t=0.48
1.7197513873660226
% es.EX (V/m) @ t=0.48
1.1677323396760357
% es.EY (V/m) @ t=0.48
0.3316514641887949
% es.EZ (V/m) @ t=0.48
1.1864705143613676
% es.tEX (V/m) @ t=0.48
1.1677323396760073
% es.tEY (V/m) @ t=0.48
0
% es.tEZ (V/m) @ t=0.48
1.1864705143613534
% es.Ex (V/m) @ t=0.48
1.1677323396760357
% es.Ey (V/m) @ t=0.48
0.3316514641887949
% es.Ez (V/m) @ t=0.48
1.1864705143613676
% es.tEx (V/m) @ t=0.48
1.1677323396760073
% es.tEy (V/m) @ t=0.48
0
% es.tEz (V/m) @ t=0.48
1.1864705143613534
% V (V) @ t=0.48
0.016126582894249196
% es.normE (V/m) @ t=0.5
1.7407938577008433
% es.EX (V/m) @ t=0.5
1.182020430064263
% es.EY (V/m) @ t=0.5
0.335709474306757
% es.EZ (V/m) @ t=0.5
1.200987891276709
% es.tEX (V/m) @ t=0.5
1.1820204300642558
% es.tEY (V/m) @ t=0.5
0
% es.tEZ (V/m) @ t=0.5
1.2009878912766965
% es.Ex (V/m) @ t=0.5
1.182020430064263
% es.Ey (V/m) @ t=0.5
0.335709474306757
% es.Ez (V/m) @ t=0.5
1.200987891276709
% es.tEx (V/m) @ t=0.5
1.1820204300642558
% es.tEy (V/m) @ t=0.5
0
% es.tEz (V/m) @ t=0.5
1.2009878912766965
% V (V) @ t=0.5
0.016323903893539885
% es.normE (V/m) @ t=0.52
1.76238540931526
% es.EX (V/m) @ t=0.52
1.1966813543460617
% es.EY (V/m) @ t=0.52
0.3398733702322261
% es.EZ (V/m) @ t=0.52
1.2158840846666799
% es.tEX (V/m) @ t=0.52
1.1966813543460262
% es.tEY (V/m) @ t=0.52
0
% es.tEZ (V/m) @ t=0.52
1.2158840846666692
% es.Ex (V/m) @ t=0.52
1.1966813543460617
% es.Ey (V/m) @ t=0.52
0.3398733702322261
% es.Ez (V/m) @ t=0.52
1.2158840846666799
% es.tEx (V/m) @ t=0.52
1.1966813543460262
% es.tEy (V/m) @ t=0.52
0
% es.tEz (V/m) @ t=0.52
1.2158840846666692
% V (V) @ t=0.52
0.016526373880608063
% es.normE (V/m) @ t=0.54
1.7841659698634236
% es.EX (V/m) @ t=0.54
1.2114706183461053
% es.EY (V/m) @ t=0.54
0.3440737149754689
% es.EZ (V/m) @ t=0.54
1.2309106771443954
% es.tEX (V/m) @ t=0.54
1.211470618346084
% es.tEY (V/m) @ t=0.54
0
% es.tEZ (V/m) @ t=0.54
1.2309106771443723
% es.Ex (V/m) @ t=0.54
1.2114706183461053
% es.Ey (V/m) @ t=0.54
0.3440737149754689
% es.Ez (V/m) @ t=0.54
1.2309106771443954
% es.tEx (V/m) @ t=0.54
1.211470618346084
% es.tEy (V/m) @ t=0.54
0
% es.tEz (V/m) @ t=0.54
1.2309106771443723
% V (V) @ t=0.54
0.01673061629140649
% es.normE (V/m) @ t=0.56
1.8061355393452918
% es.EX (V/m) @ t=0.56
1.2263882220642728
% es.EY (V/m) @ t=0.56
0.34831050853671996
% es.EZ (V/m) @ t=0.56
1.246067668709827
% es.tEX (V/m) @ t=0.56
1.226388222064287
% es.tEY (V/m) @ t=0.56
0
% es.tEZ (V/m) @ t=0.56
1.2460676687098058
% es.Ex (V/m) @ t=0.56
1.2263882220642728
% es.Ey (V/m) @ t=0.56
0.34831050853671996
% es.Ez (V/m) @ t=0.56
1.246067668709827
% es.tEx (V/m) @ t=0.56
1.226388222064287
% es.tEy (V/m) @ t=0.56
0
% es.tEz (V/m) @ t=0.56
1.2460676687098058
% V (V) @ t=0.56
0.016936631125935152
% es.normE (V/m) @ t=0.58
1.8282941177609717
% es.EX (V/m) @ t=0.58
1.2414341655006993
% es.EY (V/m) @ t=0.58
0.3525837509157803
% es.EZ (V/m) @ t=0.58
1.2613550593630531
% es.tEX (V/m) @ t=0.58
1.2414341655006922
% es.tEY (V/m) @ t=0.58
0
% es.tEZ (V/m) @ t=0.58
1.2613550593630265
% es.Ex (V/m) @ t=0.58
1.2414341655006993
% es.Ey (V/m) @ t=0.58
0.3525837509157803
% es.Ez (V/m) @ t=0.58
1.2613550593630531
% es.tEx (V/m) @ t=0.58
1.2414341655006922
% es.tEy (V/m) @ t=0.58
0
% es.tEz (V/m) @ t=0.58
1.2613550593630265
% V (V) @ t=0.58
0.017144418384194057
% es.normE (V/m) @ t=0.6
1.850641705110398
% es.EX (V/m) @ t=0.6
1.2566084486553706
% es.EY (V/m) @ t=0.6
0.3568934421125505
% es.EZ (V/m) @ t=0.6
1.2767728491040593
% es.tEX (V/m) @ t=0.6
1.2566084486553564
% es.tEY (V/m) @ t=0.6
0
% es.tEZ (V/m) @ t=0.6
1.2767728491040344
% es.Ex (V/m) @ t=0.6
1.2566084486553706
% es.Ey (V/m) @ t=0.6
0.3568934421125505
% es.Ez (V/m) @ t=0.6
1.2767728491040593
% es.tEx (V/m) @ t=0.6
1.2566084486553564
% es.tEy (V/m) @ t=0.6
0
% es.tEz (V/m) @ t=0.6
1.2767728491040344
% V (V) @ t=0.6
0.017353978066183204
% es.normE (V/m) @ t=0.62
1.8731783013935686
% es.EX (V/m) @ t=0.62
1.271911071528244
% es.EY (V/m) @ t=0.62
0.36123958212737506
% es.EZ (V/m) @ t=0.62
1.2923210379327301
% es.tEX (V/m) @ t=0.62
1.2719110715282227
% es.tEY (V/m) @ t=0.62
0
% es.tEZ (V/m) @ t=0.62
1.2923210379327088
% es.Ex (V/m) @ t=0.62
1.271911071528244
% es.Ey (V/m) @ t=0.62
0.36123958212737506
% es.Ez (V/m) @ t=0.62
1.2923210379327301
% es.tEx (V/m) @ t=0.62
1.2719110715282227
% es.tEy (V/m) @ t=0.62
0
% es.tEz (V/m) @ t=0.62
1.2923210379327088
% V (V) @ t=0.62
0.01756531017190259
% es.normE (V/m) @ t=0.64
1.8959039066104753
% es.EX (V/m) @ t=0.64
1.2873420341192627
% es.EY (V/m) @ t=0.64
0.3656221709600338
% es.EZ (V/m) @ t=0.64
1.3079996258492024
% es.tEX (V/m) @ t=0.64
1.287342034119206
% es.tEY (V/m) @ t=0.64
0
% es.tEZ (V/m) @ t=0.64
1.3079996258491917
% es.Ex (V/m) @ t=0.64
1.2873420341192627
% es.Ey (V/m) @ t=0.64
0.3656221709600338
% es.Ez (V/m) @ t=0.64
1.3079996258492024
% es.tEx (V/m) @ t=0.64
1.287342034119206
% es.tEy (V/m) @ t=0.64
0
% es.tEz (V/m) @ t=0.64
1.3079996258491917
% V (V) @ t=0.64
0.017778414701352212
% es.normE (V/m) @ t=0.66
1.9188185207611579
% es.EX (V/m) @ t=0.66
1.3029013364285618
% es.EY (V/m) @ t=0.66
0.37004120861053735
% es.EZ (V/m) @ t=0.66
1.3238086128533944
% es.tEX (V/m) @ t=0.66
1.3029013364285333
% es.tEY (V/m) @ t=0.66
0
% es.tEZ (V/m) @ t=0.66
1.3238086128533837
% es.Ex (V/m) @ t=0.66
1.3029013364285618
% es.Ey (V/m) @ t=0.66
0.37004120861053735
% es.Ez (V/m) @ t=0.66
1.3238086128533944
% es.tEx (V/m) @ t=0.66
1.3029013364285333
% es.tEy (V/m) @ t=0.66
0
% es.tEz (V/m) @ t=0.66
1.3238086128533837
% V (V) @ t=0.66
0.01799329165453208
% es.normE (V/m) @ t=0.68
1.9419221438455279
% es.EX (V/m) @ t=0.68
1.3185889784559706
% es.EY (V/m) @ t=0.68
0.3744966950789568
% es.EZ (V/m) @ t=0.68
1.3397479989453132
% es.tEX (V/m) @ t=0.68
1.3185889784559492
% es.tEY (V/m) @ t=0.68
0
% es.tEZ (V/m) @ t=0.68
1.3397479989452847
% es.Ex (V/m) @ t=0.68
1.3185889784559706
% es.Ey (V/m) @ t=0.68
0.3744966950789568
% es.Ez (V/m) @ t=0.68
1.3397479989453132
% es.tEx (V/m) @ t=0.68
1.3185889784559492
% es.tEy (V/m) @ t=0.68
0
% es.tEz (V/m) @ t=0.68
1.3397479989452847
% V (V) @ t=0.68
0.018209941031442183
% es.normE (V/m) @ t=0.7
1.9652147758636969
% es.EX (V/m) @ t=0.7
1.3344049602016383
% es.EY (V/m) @ t=0.7
0.37898863036527075
% es.EZ (V/m) @ t=0.7
1.3558177841250032
% es.tEX (V/m) @ t=0.7
1.3344049602015957
% es.tEY (V/m) @ t=0.7
0
% es.tEZ (V/m) @ t=0.7
1.3558177841249943
% es.Ex (V/m) @ t=0.7
1.3344049602016383
% es.Ey (V/m) @ t=0.7
0.37898863036527075
% es.Ez (V/m) @ t=0.7
1.3558177841250032
% es.tEx (V/m) @ t=0.7
1.3344049602015957
% es.tEy (V/m) @ t=0.7
0
% es.tEz (V/m) @ t=0.7
1.3558177841249943
% V (V) @ t=0.7
0.01842836283208253
% es.normE (V/m) @ t=0.72
1.9886964168157344
% es.EX (V/m) @ t=0.72
1.3503492816656433
% es.EY (V/m) @ t=0.72
0.383517014469291
% es.EZ (V/m) @ t=0.72
1.3720179683925213
% es.tEX (V/m) @ t=0.72
1.3503492816655864
% es.tEY (V/m) @ t=0.72
0
% es.tEZ (V/m) @ t=0.72
1.3720179683925124
% es.Ex (V/m) @ t=0.72
1.3503492816656433
% es.Ey (V/m) @ t=0.72
0.383517014469291
% es.Ez (V/m) @ t=0.72
1.3720179683925213
% es.tEx (V/m) @ t=0.72
1.3503492816655864
% es.tEy (V/m) @ t=0.72
0
% es.tEz (V/m) @ t=0.72
1.3720179683925124
% V (V) @ t=0.72
0.018648557056453123
% es.normE (V/m) @ t=0.74
2.0123670667013807
% es.EX (V/m) @ t=0.74
1.366421942847694
% es.EY (V/m) @ t=0.74
0.3880818473912804
% es.EZ (V/m) @ t=0.74
1.3883485517477148
% es.tEX (V/m) @ t=0.74
1.3664219428477224
% es.tEY (V/m) @ t=0.74
0
% es.tEZ (V/m) @ t=0.74
1.3883485517476828
% es.Ex (V/m) @ t=0.74
1.366421942847694
% es.Ey (V/m) @ t=0.74
0.3880818473912804
% es.Ez (V/m) @ t=0.74
1.3883485517477148
% es.tEx (V/m) @ t=0.74
1.3664219428477224
% es.tEy (V/m) @ t=0.74
0
% es.tEz (V/m) @ t=0.74
1.3883485517476828
% V (V) @ t=0.74
0.01887052370455395
% es.normE (V/m) @ t=0.76
2.036571487707243
% es.EX (V/m) @ t=0.76
1.3828570352431555
% es.EY (V/m) @ t=0.76
0.3927496344102188
% es.EZ (V/m) @ t=0.76
1.405047385820339
% es.tEX (V/m) @ t=0.76
1.38285703524312
% es.tEY (V/m) @ t=0.76
0
% es.tEZ (V/m) @ t=0.76
1.4050473858202963
% es.Ex (V/m) @ t=0.76
1.3828570352431555
% es.Ey (V/m) @ t=0.76
0.3927496344102188
% es.Ez (V/m) @ t=0.76
1.405047385820339
% es.tEx (V/m) @ t=0.76
1.38285703524312
% es.tEy (V/m) @ t=0.76
0
% es.tEz (V/m) @ t=0.76
1.4050473858202963
% V (V) @ t=0.76
0.019097495193382497
% es.normE (V/m) @ t=0.78
2.061031858585653
% es.EX (V/m) @ t=0.78
1.399465919860262
% es.EY (V/m) @ t=0.78
0.39746678328094376
% es.EZ (V/m) @ t=0.78
1.42192280157267
% es.tEX (V/m) @ t=0.78
1.3994659198602335
% es.tEY (V/m) @ t=0.78
0
% es.tEZ (V/m) @ t=0.78
1.4219228015726486
% es.Ex (V/m) @ t=0.78
1.399465919860262
% es.Ey (V/m) @ t=0.78
0.39746678328094376
% es.Ez (V/m) @ t=0.78
1.42192280157267
% es.tEx (V/m) @ t=0.78
1.3994659198602335
% es.tEy (V/m) @ t=0.78
0
% es.tEz (V/m) @ t=0.78
1.4219228015726486
% V (V) @ t=0.78
0.019326866729958262
% es.normE (V/m) @ t=0.8
2.085735179095589
% es.EX (V/m) @ t=0.8
1.4162397696117637
% es.EY (V/m) @ t=0.8
0.4022307862324048
% es.EZ (V/m) @ t=0.8
1.4389658301310622
% es.tEX (V/m) @ t=0.8
1.4162397696117637
% es.tEY (V/m) @ t=0.8
0
% es.tEZ (V/m) @ t=0.8
1.438965830131039
% es.Ex (V/m) @ t=0.8
1.4162397696117637
% es.Ey (V/m) @ t=0.8
0.4022307862324048
% es.Ez (V/m) @ t=0.8
1.4389658301310622
% es.tEx (V/m) @ t=0.8
1.4162397696117637
% es.tEy (V/m) @ t=0.8
0
% es.tEz (V/m) @ t=0.8
1.438965830131039
% V (V) @ t=0.8
0.019558516426783926
% es.normE (V/m) @ t=0.82
2.1106814492370445
% es.EX (V/m) @ t=0.82
1.4331785844977603
% es.EY (V/m) @ t=0.82
0.4070416432645523
% es.EZ (V/m) @ t=0.82
1.456176471495418
% es.tEX (V/m) @ t=0.82
1.433178584497739
% es.tEY (V/m) @ t=0.82
0
% es.tEZ (V/m) @ t=0.82
1.4561764714953966
% es.Ex (V/m) @ t=0.82
1.4331785844977603
% es.Ey (V/m) @ t=0.82
0.4070416432645523
% es.Ez (V/m) @ t=0.82
1.456176471495418
% es.tEx (V/m) @ t=0.82
1.433178584497739
% es.tEy (V/m) @ t=0.82
0
% es.tEz (V/m) @ t=0.82
1.4561764714953966
% V (V) @ t=0.82
0.019792444283859487
% es.normE (V/m) @ t=0.84
2.135870669010001
% es.EX (V/m) @ t=0.84
1.4502823645182303
% es.EY (V/m) @ t=0.84
0.4118993543772618
% es.EZ (V/m) @ t=0.84
1.4735547256657995
% es.tEX (V/m) @ t=0.84
1.4502823645182161
% es.tEY (V/m) @ t=0.84
0
% es.tEZ (V/m) @ t=0.84
1.473554725665764
% es.Ex (V/m) @ t=0.84
1.4502823645182303
% es.Ey (V/m) @ t=0.84
0.4118993543772618
% es.Ez (V/m) @ t=0.84
1.4735547256657995
% es.tEx (V/m) @ t=0.84
1.4502823645182161
% es.tEy (V/m) @ t=0.84
0
% es.tEz (V/m) @ t=0.84
1.473554725665764
% V (V) @ t=0.84
0.020028650301184947
% es.normE (V/m) @ t=0.86
2.1613028384144344
% es.EX (V/m) @ t=0.86
1.4675511096731029
% es.EY (V/m) @ t=0.86
0.41680391957086727
% es.EZ (V/m) @ t=0.86
1.4911005926421108
% es.tEX (V/m) @ t=0.86
1.4675511096730816
% es.tEY (V/m) @ t=0.86
0
% es.tEZ (V/m) @ t=0.86
1.49110059264207
% es.Ex (V/m) @ t=0.86
1.4675511096731029
% es.Ey (V/m) @ t=0.86
0.41680391957086727
% es.Ez (V/m) @ t=0.86
1.4911005926421108
% es.tEx (V/m) @ t=0.86
1.4675511096730816
% es.tEy (V/m) @ t=0.86
0
% es.tEz (V/m) @ t=0.86
1.49110059264207
% V (V) @ t=0.86
0.02026713447876031
% es.normE (V/m) @ t=0.88
2.186977957450507
% es.EX (V/m) @ t=0.88
1.4849848199625981
% es.EY (V/m) @ t=0.88
0.4217553388450064
% es.EZ (V/m) @ t=0.88
1.5088140724245047
% es.tEX (V/m) @ t=0.88
1.4849848199625626
% es.tEY (V/m) @ t=0.88
0
% es.tEZ (V/m) @ t=0.88
1.5088140724244852
% es.Ex (V/m) @ t=0.88
1.4849848199625981
% es.Ey (V/m) @ t=0.88
0.4217553388450064
% es.Ez (V/m) @ t=0.88
1.5088140724245047
% es.tEx (V/m) @ t=0.88
1.4849848199625626
% es.tEy (V/m) @ t=0.88
0
% es.tEz (V/m) @ t=0.88
1.5088140724244852
% V (V) @ t=0.88
0.020507896816585575
% es.normE (V/m) @ t=0.9
2.2128960261180124
% es.EX (V/m) @ t=0.9
1.5025834953864745
% es.EY (V/m) @ t=0.9
0.426753612199839
% es.EZ (V/m) @ t=0.9
1.526695165012848
% es.tEX (V/m) @ t=0.9
1.5025834953864035
% es.tEY (V/m) @ t=0.9
0
% es.tEZ (V/m) @ t=0.9
1.526695165012839
% es.Ex (V/m) @ t=0.9
1.5025834953864745
% es.Ey (V/m) @ t=0.9
0.426753612199839
% es.Ez (V/m) @ t=0.9
1.526695165012848
% es.tEx (V/m) @ t=0.9
1.5025834953864035
% es.tEy (V/m) @ t=0.9
0
% es.tEz (V/m) @ t=0.9
1.526695165012839
% V (V) @ t=0.9
0.020750937314660736
% es.normE (V/m) @ t=0.92
2.239057044416975
% es.EX (V/m) @ t=0.92
1.5203471359447818
% es.EY (V/m) @ t=0.92
0.4317987396354006
% es.EZ (V/m) @ t=0.92
1.5447438704071583
% es.tEX (V/m) @ t=0.92
1.5203471359447747
% es.tEY (V/m) @ t=0.92
0
% es.tEZ (V/m) @ t=0.92
1.5447438704071317
% es.Ex (V/m) @ t=0.92
1.5203471359447818
% es.Ey (V/m) @ t=0.92
0.4317987396354006
% es.Ez (V/m) @ t=0.92
1.5447438704071583
% es.tEx (V/m) @ t=0.92
1.5203471359447747
% es.tEy (V/m) @ t=0.92
0
% es.tEz (V/m) @ t=0.92
1.5447438704071317
% V (V) @ t=0.92
0.02099625597298579
% es.normE (V/m) @ t=0.94
2.265461012347484
% es.EX (V/m) @ t=0.94
1.5382757416375483
% es.EY (V/m) @ t=0.94
0.43689072115166994
% es.EZ (V/m) @ t=0.94
1.562960188607489
% es.tEX (V/m) @ t=0.94
1.5382757416375625
% es.tEY (V/m) @ t=0.94
0
% es.tEZ (V/m) @ t=0.94
1.5629601886074482
% es.Ex (V/m) @ t=0.94
1.5382757416375483
% es.Ey (V/m) @ t=0.94
0.43689072115166994
% es.Ez (V/m) @ t=0.94
1.562960188607489
% es.tEx (V/m) @ t=0.94
1.5382757416375625
% es.tEy (V/m) @ t=0.94
0
% es.tEz (V/m) @ t=0.94
1.5629601886074482
% V (V) @ t=0.94
0.02124385279156075
% es.normE (V/m) @ t=0.96
2.2921079299095
% es.EX (V/m) @ t=0.96
1.5563693124647884
% es.EY (V/m) @ t=0.96
0.44202955674855104
% es.EZ (V/m) @ t=0.96
1.581344119613826
% es.tEX (V/m) @ t=0.96
1.5563693124647955
% es.tEY (V/m) @ t=0.96
0
% es.tEZ (V/m) @ t=0.96
1.581344119613803
% es.Ex (V/m) @ t=0.96
1.5563693124647884
% es.Ey (V/m) @ t=0.96
0.44202955674855104
% es.Ez (V/m) @ t=0.96
1.581344119613826
% es.tEx (V/m) @ t=0.96
1.5563693124647955
% es.tEy (V/m) @ t=0.96
0
% es.tEz (V/m) @ t=0.96
1.581344119613803
% V (V) @ t=0.96
0.021493727770385607
% es.normE (V/m) @ t=0.98
2.318997797103032
% es.EX (V/m) @ t=0.98
1.5746278484265375
% es.EY (V/m) @ t=0.98
0.44721524642613986
% es.EZ (V/m) @ t=0.98
1.599895663426123
% es.tEX (V/m) @ t=0.98
1.5746278484264735
% es.tEY (V/m) @ t=0.98
0
% es.tEZ (V/m) @ t=0.98
1.5998956634260963
% es.Ex (V/m) @ t=0.98
1.5746278484265375
% es.Ey (V/m) @ t=0.98
0.44721524642613986
% es.Ez (V/m) @ t=0.98
1.599895663426123
% es.tEx (V/m) @ t=0.98
1.5746278484264735
% es.tEy (V/m) @ t=0.98
0
% es.tEz (V/m) @ t=0.98
1.5998956634260963
% V (V) @ t=0.98
0.02174588090946037
% es.normE (V/m) @ t=1
2.3462473003806776
% es.EX (V/m) @ t=1
1.5931305855125402
% es.EY (V/m) @ t=1
0.4524702797671232
% es.EZ (V/m) @ t=1
1.6186953249168017
% es.tEX (V/m) @ t=1
1.5931305855125402
% es.tEY (V/m) @ t=1
0
% es.tEZ (V/m) @ t=1
1.6186953249167715
% es.Ex (V/m) @ t=1
1.5931305855125402
% es.Ey (V/m) @ t=1
0.4524702797671232
% es.Ez (V/m) @ t=1
1.6186953249168017
% es.tEx (V/m) @ t=1
1.5931305855125402
% es.tEy (V/m) @ t=1
0
% es.tEz (V/m) @ t=1
1.6186953249167715
% V (V) @ t=1
0.022001406783913935
% es.normE (V/m) @ t=1.02
2.373835633152586
% es.EX (V/m) @ t=1.02
1.6118633949984655
% es.EY (V/m) @ t=1.02
0.4577906466096877
% es.EZ (V/m) @ t=1.02
1.6377287491043422
% es.tEX (V/m) @ t=1.02
1.6118633949985224
% es.tEY (V/m) @ t=1.02
0
% es.tEZ (V/m) @ t=1.02
1.6377287491043262
% es.Ex (V/m) @ t=1.02
1.6118633949984655
% es.Ey (V/m) @ t=1.02
0.4577906466096877
% es.Ez (V/m) @ t=1.02
1.6377287491043422
% es.tEx (V/m) @ t=1.02
1.6118633949985224
% es.tEy (V/m) @ t=1.02
0
% es.tEz (V/m) @ t=1.02
1.6377287491043262
% V (V) @ t=1.02
0.022260110217909912
% es.normE (V/m) @ t=1.04
2.4016960776301293
% es.EX (V/m) @ t=1.04
1.6307809721388722
% es.EY (V/m) @ t=1.04
0.46316348809016006
% es.EZ (V/m) @ t=1.04
1.656949905734722
% es.tEX (V/m) @ t=1.04
1.6307809721388367
% es.tEY (V/m) @ t=1.04
0
% es.tEZ (V/m) @ t=1.04
1.6569499057346917
% es.Ex (V/m) @ t=1.04
1.6307809721388722
% es.Ey (V/m) @ t=1.04
0.46316348809016006
% es.Ez (V/m) @ t=1.04
1.656949905734722
% es.tEx (V/m) @ t=1.04
1.6307809721388367
% es.tEy (V/m) @ t=1.04
0