% Model:              1 neuron.mph
% Version:            COMSOL 6.0.0.405
% Date:               Mar 16 2023, 20:06
% Dimension:          0
% Nodes:              14017
% Expressions:        14017
% Description:        Electric field norm, Electric field, X component, Electric field, Y component, Electric field, Z component, Tangential electric field, X component, Tangential electric field, Y component, Tangential electric field, Z component, Electric field, x component, Electric field, y component, Electric field, z component, Tangential electric field, x component, Tangential electric field, y component, Tangential electric field, z component, Electric potential
% Length unit:        mm
% x
1.66
% y
12.2
% z
2
% es.normE (V/m) @ t=0
2.702132661440969
% es.EX (V/m) @ t=0
-0.8061018436065479
% es.EY (V/m) @ t=0
0.06021211395273471
% es.EZ (V/m) @ t=0
-2.5740514368807537
% es.tEX (V/m) @ t=0
-0.8061018436065552
% es.tEY (V/m) @ t=0
0
% es.tEZ (V/m) @ t=0
-2.574051436880781
% es.Ex (V/m) @ t=0
-0.8061018436065479
% es.Ey (V/m) @ t=0
0.06021211395273471
% es.Ez (V/m) @ t=0
-2.5740514368807537
% es.tEx (V/m) @ t=0
-0.8061018436065552
% es.tEy (V/m) @ t=0
0
% es.tEz (V/m) @ t=0
-2.574051436880781
% V (V) @ t=0
0.013582047408960837
% es.normE (V/m) @ t=0.02
2.3416823940764195
% es.EX (V/m) @ t=0.02
-0.6985721116273689
% es.EY (V/m) @ t=0.02
0.05218014490167536
% es.EZ (V/m) @ t=0.02
-2.230686526852602
% es.tEX (V/m) @ t=0.02
-0.6985721116273744
% es.tEY (V/m) @ t=0.02
0
% es.tEZ (V/m) @ t=0.02
-2.2306865268526197
% es.Ex (V/m) @ t=0.02
-0.6985721116273689
% es.Ey (V/m) @ t=0.02
0.05218014490167536
% es.Ez (V/m) @ t=0.02
-2.230686526852602
% es.tEx (V/m) @ t=0.02
-0.6985721116273744
% es.tEy (V/m) @ t=0.02
0
% es.tEz (V/m) @ t=0.02
-2.2306865268526197
% V (V) @ t=0.02
0.011770273426762377
% es.normE (V/m) @ t=0.04
2.3711931373821633
% es.EX (V/m) @ t=0.04
-0.7073757284524531
% es.EY (V/m) @ t=0.04
0.0528376198530803
% es.EZ (V/m) @ t=0.04
-2.258798482422425
% es.tEX (V/m) @ t=0.04
-0.7073757284524653
% es.tEY (V/m) @ t=0.04
0
% es.tEZ (V/m) @ t=0.04
-2.2587984824224483
% es.Ex (V/m) @ t=0.04
-0.7073757284524531
% es.Ey (V/m) @ t=0.04
0.0528376198530803
% es.Ez (V/m) @ t=0.04
-2.258798482422425
% es.tEx (V/m) @ t=0.04
-0.7073757284524653
% es.tEy (V/m) @ t=0.04
0
% es.tEz (V/m) @ t=0.04
-2.2587984824224483
% V (V) @ t=0.04
0.011918610894988746
% es.normE (V/m) @ t=0.06
2.400978469028421
% es.EX (V/m) @ t=0.06
-0.7162612111537826
% es.EY (V/m) @ t=0.06
0.053501095578632904
% es.EZ (V/m) @ t=0.06
-2.2871720348990756
% es.tEX (V/m) @ t=0.06
-0.7162612111537889
% es.tEY (V/m) @ t=0.06
0
% es.tEZ (V/m) @ t=0.06
-2.287172034899096
% es.Ex (V/m) @ t=0.06
-0.7162612111537826
% es.Ey (V/m) @ t=0.06
0.053501095578632904
% es.Ez (V/m) @ t=0.06
-2.2871720348990756
% es.tEx (V/m) @ t=0.06
-0.7162612111537889
% es.tEy (V/m) @ t=0.06
0
% es.tEz (V/m) @ t=0.06
-2.287172034899096
% V (V) @ t=0.06
0.012068332666527893
% es.normE (V/m) @ t=0.08
2.4316980520070857
% es.EX (V/m) @ t=0.08
-0.7254255702341148
% es.EY (V/m) @ t=0.08
0.05418579079918985
% es.EZ (V/m) @ t=0.08
-2.3164354727246526
% es.tEX (V/m) @ t=0.08
-0.7254255702341226
% es.tEY (V/m) @ t=0.08
0
% es.tEZ (V/m) @ t=0.08
-2.3164354727246685
% es.Ex (V/m) @ t=0.08
-0.7254255702341148
% es.Ey (V/m) @ t=0.08
0.05418579079918985
% es.Ez (V/m) @ t=0.08
-2.3164354727246526
% es.tEx (V/m) @ t=0.08
-0.7254255702341226
% es.tEy (V/m) @ t=0.08
0
% es.tEz (V/m) @ t=0.08
-2.3164354727246685
% V (V) @ t=0.08
0.012222736335485613
% es.normE (V/m) @ t=0.1
2.462514182086586
% es.EX (V/m) @ t=0.1
-0.7346187488675447
% es.EY (V/m) @ t=0.1
0.05487267887793937
% es.EZ (V/m) @ t=0.1
-2.3457908727958303
% es.tEX (V/m) @ t=0.1
-0.7346187488675504
% es.tEY (V/m) @ t=0.1
0
% es.tEZ (V/m) @ t=0.1
-2.345790872795848
% es.Ex (V/m) @ t=0.1
-0.7346187488675447
% es.Ey (V/m) @ t=0.1
0.05487267887793937
% es.Ez (V/m) @ t=0.1
-2.3457908727958303
% es.tEx (V/m) @ t=0.1
-0.7346187488675504
% es.tEy (V/m) @ t=0.1
0
% es.tEz (V/m) @ t=0.1
-2.345790872795848
% V (V) @ t=0.1
0.012377623839581221
% es.normE (V/m) @ t=0.12
2.4933303121661474
% es.EX (V/m) @ t=0.12
-0.7438119275009777
% es.EY (V/m) @ t=0.12
0.05555956695671678
% es.EZ (V/m) @ t=0.12
-2.3751462728670365
% es.tEX (V/m) @ t=0.12
-0.7438119275009818
% es.tEY (V/m) @ t=0.12
0
% es.tEZ (V/m) @ t=0.12
-2.375146272867049
% es.Ex (V/m) @ t=0.12
-0.7438119275009777
% es.Ey (V/m) @ t=0.12
0.05555956695671678
% es.Ez (V/m) @ t=0.12
-2.3751462728670365
% es.tEx (V/m) @ t=0.12
-0.7438119275009818
% es.tEy (V/m) @ t=0.12
0
% es.tEz (V/m) @ t=0.12
-2.375146272867049
% V (V) @ t=0.12
0.01253251134367683
% es.normE (V/m) @ t=0.14
2.5259603773914074
% es.EX (V/m) @ t=0.14
-0.7535461735296292
% es.EY (V/m) @ t=0.14
0.05628671670258921
% es.EZ (V/m) @ t=0.14
-2.406229659933886
% es.tEX (V/m) @ t=0.14
-0.7535461735296352
% es.tEY (V/m) @ t=0.14
0
% es.tEZ (V/m) @ t=0.14
-2.4062296599338966
% es.Ex (V/m) @ t=0.14
-0.7535461735296292
% es.Ey (V/m) @ t=0.14
0.05628671670258921
% es.Ez (V/m) @ t=0.14
-2.406229659933886
% es.tEx (V/m) @ t=0.14
-0.7535461735296352
% es.tEy (V/m) @ t=0.14
0
% es.tEz (V/m) @ t=0.14
-2.4062296599338966
% V (V) @ t=0.14
0.012696522005587244
% es.normE (V/m) @ t=0.16
2.558984014389341
% es.EX (V/m) @ t=0.16
-0.7633978156263671
% es.EY (V/m) @ t=0.16
0.05702260207260962
% es.EZ (V/m) @ t=0.16
-2.437687970496018
% es.tEX (V/m) @ t=0.16
-0.7633978156263623
% es.tEY (V/m) @ t=0.16
0
% es.tEZ (V/m) @ t=0.16
-2.437687970496043
% es.Ex (V/m) @ t=0.16
-0.7633978156263671
% es.Ey (V/m) @ t=0.16
0.05702260207260962
% es.Ez (V/m) @ t=0.16
-2.437687970496018
% es.tEx (V/m) @ t=0.16
-0.7633978156263623
% es.tEy (V/m) @ t=0.16
0
% es.tEz (V/m) @ t=0.16
-2.437687970496043
% V (V) @ t=0.16
0.012862512130436016
% es.normE (V/m) @ t=0.18
2.592007651387286
% es.EX (V/m) @ t=0.18
-0.7732494577231042
% es.EY (V/m) @ t=0.18
0.05775848744264779
% es.EZ (V/m) @ t=0.18
-2.4691462810581637
% es.tEX (V/m) @ t=0.18
-0.7732494577231108
% es.tEY (V/m) @ t=0.18
0
% es.tEZ (V/m) @ t=0.18
-2.469146281058176
% es.Ex (V/m) @ t=0.18
-0.7732494577231042
% es.Ey (V/m) @ t=0.18
0.05775848744264779
% es.Ez (V/m) @ t=0.18
-2.4691462810581637
% es.tEx (V/m) @ t=0.18
-0.7732494577231108
% es.tEy (V/m) @ t=0.18
0
% es.tEz (V/m) @ t=0.18
-2.469146281058176
% V (V) @ t=0.18
0.013028502255284789
% es.normE (V/m) @ t=0.2
2.625031288385218
% es.EX (V/m) @ t=0.2
-0.7831010998198376
% es.EY (V/m) @ t=0.2
0.05849437281268759
% es.EZ (V/m) @ t=0.2
-2.500604591620295
% es.tEX (V/m) @ t=0.2
-0.7831010998198522
% es.tEY (V/m) @ t=0.2
0
% es.tEZ (V/m) @ t=0.2
-2.5006045916203252
% es.Ex (V/m) @ t=0.2
-0.7831010998198376
% es.Ey (V/m) @ t=0.2
0.05849437281268759
% es.Ez (V/m) @ t=0.2
-2.500604591620295
% es.tEx (V/m) @ t=0.2
-0.7831010998198522
% es.tEy (V/m) @ t=0.2
0
% es.tEz (V/m) @ t=0.2
-2.5006045916203252
% V (V) @ t=0.2
0.013194492380133564
% es.normE (V/m) @ t=0.22
2.6580549253831496
% es.EX (V/m) @ t=0.22
-0.7929527419165692
% es.EY (V/m) @ t=0.22
0.05923025818272225
% es.EZ (V/m) @ t=0.22
-2.5320629021824272
% es.tEX (V/m) @ t=0.22
-0.7929527419165794
% es.tEY (V/m) @ t=0.22
0
% es.tEZ (V/m) @ t=0.22
-2.5320629021824423
% es.Ex (V/m) @ t=0.22
-0.7929527419165692
% es.Ey (V/m) @ t=0.22
0.05923025818272225
% es.Ez (V/m) @ t=0.22
-2.5320629021824272
% es.tEx (V/m) @ t=0.22
-0.7929527419165794
% es.tEy (V/m) @ t=0.22
0
% es.tEz (V/m) @ t=0.22
-2.5320629021824423
% V (V) @ t=0.22
0.013360482504982337
% es.normE (V/m) @ t=0.24
2.6910785623810853
% es.EX (V/m) @ t=0.24
-0.8028043840133151
% es.EY (V/m) @ t=0.24
0.059966143552760226
% es.EZ (V/m) @ t=0.24
-2.5635212127445586
% es.tEX (V/m) @ t=0.24
-0.8028043840133137
% es.tEY (V/m) @ t=0.24
0
% es.tEZ (V/m) @ t=0.24
-2.5635212127445772
% es.Ex (V/m) @ t=0.24
-0.8028043840133151
% es.Ey (V/m) @ t=0.24
0.059966143552760226
% es.Ez (V/m) @ t=0.24
-2.5635212127445586
% es.tEx (V/m) @ t=0.24
-0.8028043840133137
% es.tEy (V/m) @ t=0.24
0
% es.tEz (V/m) @ t=0.24
-2.5635212127445772
% V (V) @ t=0.24
0.013526472629831112
% es.normE (V/m) @ t=0.26
2.7256418884640476
% es.EX (V/m) @ t=0.26
-0.8131153300943947
% es.EY (V/m) @ t=0.26
0.06073629540546831
% es.EZ (V/m) @ t=0.26
-2.5964462394683947
% es.tEX (V/m) @ t=0.26
-0.8131153300943978
% es.tEY (V/m) @ t=0.26
0
% es.tEZ (V/m) @ t=0.26
-2.596446239468417
% es.Ex (V/m) @ t=0.26
-0.8131153300943947
% es.Ey (V/m) @ t=0.26
0.06073629540546831
% es.Ez (V/m) @ t=0.26
-2.5964462394683947
% es.tEx (V/m) @ t=0.26
-0.8131153300943978
% es.tEy (V/m) @ t=0.26
0
% es.tEz (V/m) @ t=0.26
-2.596446239468417
% V (V) @ t=0.26
0.013700203333154738
% es.normE (V/m) @ t=0.28
2.761025342584805
% es.EX (V/m) @ t=0.28
-0.8236709282153685
% es.EY (V/m) @ t=0.28
0.061524699581593706
% es.EZ (V/m) @ t=0.28
-2.6301525246030266
% es.tEX (V/m) @ t=0.28
-0.8236709282153782
% es.tEY (V/m) @ t=0.28
0
% es.tEZ (V/m) @ t=0.28
-2.6301525246030657
% es.Ex (V/m) @ t=0.28
-0.8236709282153685
% es.Ey (V/m) @ t=0.28
0.061524699581593706
% es.Ez (V/m) @ t=0.28
-2.6301525246030266
% es.tEx (V/m) @ t=0.28
-0.8236709282153782
% es.tEy (V/m) @ t=0.28
0
% es.tEz (V/m) @ t=0.28
-2.6301525246030657
% V (V) @ t=0.28
0.013878057119182385
% es.normE (V/m) @ t=0.3
2.796408796705598
% es.EX (V/m) @ t=0.3
-0.8342265263363369
% es.EY (V/m) @ t=0.3
0.06231310375775713
% es.EZ (V/m) @ t=0.3
-2.663858809737696
% es.tEX (V/m) @ t=0.3
-0.8342265263363373
% es.tEY (V/m) @ t=0.3
0
% es.tEZ (V/m) @ t=0.3
-2.6638588097377145
% es.Ex (V/m) @ t=0.3
-0.8342265263363369
% es.Ey (V/m) @ t=0.3
0.06231310375775713
% es.Ez (V/m) @ t=0.3
-2.663858809737696
% es.tEx (V/m) @ t=0.3
-0.8342265263363373
% es.tEy (V/m) @ t=0.3
0
% es.tEz (V/m) @ t=0.3
-2.6638588097377145
% V (V) @ t=0.3
0.014055910905210033
% es.normE (V/m) @ t=0.32
2.8317922508263593
% es.EX (V/m) @ t=0.32
-0.8447821244573086
% es.EY (V/m) @ t=0.32
0.06310150793390547
% es.EZ (V/m) @ t=0.32
-2.6975650948723287
% es.tEX (V/m) @ t=0.32
-0.8447821244573106
% es.tEY (V/m) @ t=0.32
0
% es.tEZ (V/m) @ t=0.32
-2.697565094872365
% es.Ex (V/m) @ t=0.32
-0.8447821244573086
% es.Ey (V/m) @ t=0.32
0.06310150793390547
% es.Ez (V/m) @ t=0.32
-2.6975650948723287
% es.tEx (V/m) @ t=0.32
-0.8447821244573106
% es.tEy (V/m) @ t=0.32
0
% es.tEz (V/m) @ t=0.32
-2.697565094872365
% V (V) @ t=0.32
0.014233764691237683
% es.normE (V/m) @ t=0.34
2.8671757049471402
% es.EX (V/m) @ t=0.34
-0.8553377225782699
% es.EY (V/m) @ t=0.34
0.0638899121100547
% es.EZ (V/m) @ t=0.34
-2.7312713800069828
% es.tEX (V/m) @ t=0.34
-0.8553377225782768
% es.tEY (V/m) @ t=0.34
0
% es.tEZ (V/m) @ t=0.34
-2.731271380006998
% es.Ex (V/m) @ t=0.34
-0.8553377225782699
% es.Ey (V/m) @ t=0.34
0.0638899121100547
% es.Ez (V/m) @ t=0.34
-2.7312713800069828
% es.tEx (V/m) @ t=0.34
-0.8553377225782768
% es.tEy (V/m) @ t=0.34
0
% es.tEz (V/m) @ t=0.34
-2.731271380006998
% V (V) @ t=0.34
0.014411618477265329
% es.normE (V/m) @ t=0.36
2.9025591590679136
% es.EX (V/m) @ t=0.36
-0.865893320699247
% es.EY (V/m) @ t=0.36
0.06467831628621724
% es.EZ (V/m) @ t=0.36
-2.7649776651416227
% es.tEX (V/m) @ t=0.36
-0.8658933206992572
% es.tEY (V/m) @ t=0.36
0
% es.tEZ (V/m) @ t=0.36
-2.764977665141661
% es.Ex (V/m) @ t=0.36
-0.865893320699247
% es.Ey (V/m) @ t=0.36
0.06467831628621724
% es.Ez (V/m) @ t=0.36
-2.7649776651416227
% es.tEx (V/m) @ t=0.36
-0.8658933206992572
% es.tEy (V/m) @ t=0.36
0
% es.tEz (V/m) @ t=0.36
-2.764977665141661
% V (V) @ t=0.36
0.014589472263292979
% es.normE (V/m) @ t=0.38
2.9391587951368177
% es.EX (V/m) @ t=0.38
-0.8768117043182002
% es.EY (V/m) @ t=0.38
0.06549375524632235
% es.EZ (V/m) @ t=0.38
-2.7998424982415298
% es.tEX (V/m) @ t=0.38
-0.8768117043182073
% es.tEY (V/m) @ t=0.38
0
% es.tEZ (V/m) @ t=0.38
-2.7998424982415564
% es.Ex (V/m) @ t=0.38
-0.8768117043182002
% es.Ey (V/m) @ t=0.38
0.06549375524632235
% es.Ez (V/m) @ t=0.38
-2.7998424982415298
% es.tEx (V/m) @ t=0.38
-0.8768117043182073
% es.tEy (V/m) @ t=0.38
0
% es.tEz (V/m) @ t=0.38
-2.7998424982415564
% V (V) @ t=0.38
0.014773441339982632
% es.normE (V/m) @ t=0.4
2.9770591285649566
% es.EX (V/m) @ t=0.4
-0.8881180842726575
% es.EY (V/m) @ t=0.4
0.06633810770263482
% es.EZ (V/m) @ t=0.4
-2.835946389593591
% es.tEX (V/m) @ t=0.4
-0.8881180842726621
% es.tEY (V/m) @ t=0.4
0
% es.tEZ (V/m) @ t=0.4
-2.8359463895936248
% es.Ex (V/m) @ t=0.4
-0.8881180842726575
% es.Ey (V/m) @ t=0.4
0.06633810770263482
% es.Ez (V/m) @ t=0.4
-2.835946389593591
% es.tEx (V/m) @ t=0.4
-0.8881180842726621
% es.tEy (V/m) @ t=0.4
0
% es.tEz (V/m) @ t=0.4
-2.8359463895936248
% V (V) @ t=0.4
0.014963950673602714
% es.normE (V/m) @ t=0.42
3.0149594619931346
% es.EX (V/m) @ t=0.42
-0.8994244642271307
% es.EY (V/m) @ t=0.42
0.06718246015894551
% es.EZ (V/m) @ t=0.42
-2.8720502809456665
% es.tEX (V/m) @ t=0.42
-0.8994244642271383
% es.tEY (V/m) @ t=0.42
0
% es.tEZ (V/m) @ t=0.42
-2.872050280945693
% es.Ex (V/m) @ t=0.42
-0.8994244642271307
% es.Ey (V/m) @ t=0.42
0.06718246015894551
% es.Ez (V/m) @ t=0.42
-2.8720502809456665
% es.tEx (V/m) @ t=0.42
-0.8994244642271383
% es.tEy (V/m) @ t=0.42
0
% es.tEz (V/m) @ t=0.42
-2.872050280945693
% V (V) @ t=0.42
0.01515446000722279
% es.normE (V/m) @ t=0.44
3.0528597954213317
% es.EX (V/m) @ t=0.44
-0.9107308441815933
% es.EY (V/m) @ t=0.44
0.06802681261525803
% es.EZ (V/m) @ t=0.44
-2.908154172297743
% es.tEX (V/m) @ t=0.44
-0.9107308441816073
% es.tEY (V/m) @ t=0.44
0
% es.tEZ (V/m) @ t=0.44
-2.9081541722977615
% es.Ex (V/m) @ t=0.44
-0.9107308441815933
% es.Ey (V/m) @ t=0.44
0.06802681261525803
% es.Ez (V/m) @ t=0.44
-2.908154172297743
% es.tEx (V/m) @ t=0.44
-0.9107308441816073
% es.tEy (V/m) @ t=0.44
0
% es.tEz (V/m) @ t=0.44
-2.9081541722977615
% V (V) @ t=0.44
0.01534496934084287
% es.normE (V/m) @ t=0.46
3.090760128849527
% es.EX (V/m) @ t=0.46
-0.9220372241360753
% es.EY (V/m) @ t=0.46
0.06887116507154614
% es.EZ (V/m) @ t=0.46
-2.944258063649791
% es.tEX (V/m) @ t=0.46
-0.9220372241360835
% es.tEY (V/m) @ t=0.46
0
% es.tEZ (V/m) @ t=0.46
-2.9442580636498317
% es.Ex (V/m) @ t=0.46
-0.9220372241360753
% es.Ey (V/m) @ t=0.46
0.06887116507154614
% es.Ez (V/m) @ t=0.46
-2.944258063649791
% es.tEx (V/m) @ t=0.46
-0.9220372241360835
% es.tEy (V/m) @ t=0.46
0
% es.tEz (V/m) @ t=0.46
-2.9442580636498317
% V (V) @ t=0.46
0.01553547867446295
% es.normE (V/m) @ t=0.48
3.12866046227776
% es.EX (V/m) @ t=0.48
-0.9333436040905307
% es.EY (V/m) @ t=0.48
0.06971551752786444
% es.EZ (V/m) @ t=0.48
-2.9803619550018663
% es.tEX (V/m) @ t=0.48
-0.9333436040905312
% es.tEY (V/m) @ t=0.48
0
% es.tEZ (V/m) @ t=0.48
-2.9803619550018983
% es.Ex (V/m) @ t=0.48
-0.9333436040905307
% es.Ey (V/m) @ t=0.48
0.06971551752786444
% es.Ez (V/m) @ t=0.48
-2.9803619550018663
% es.tEx (V/m) @ t=0.48
-0.9333436040905312
% es.tEy (V/m) @ t=0.48
0
% es.tEz (V/m) @ t=0.48
-2.9803619550018983
% V (V) @ t=0.48
0.015725988008083027
% es.normE (V/m) @ t=0.5
3.1669100960048104
% es.EX (V/m) @ t=0.5
-0.9447542062370187
% es.EY (V/m) @ t=0.5
0.07056769921065166
% es.EZ (V/m) @ t=0.5
-3.0167985806245143
% es.tEX (V/m) @ t=0.5
-0.9447542062370289
% es.tEY (V/m) @ t=0.5
0
% es.tEZ (V/m) @ t=0.5
-3.016798580624542
% es.Ex (V/m) @ t=0.5
-0.9447542062370187
% es.Ey (V/m) @ t=0.5
0.07056769921065166
% es.Ez (V/m) @ t=0.5
-3.0167985806245143
% es.tEx (V/m) @ t=0.5
-0.9447542062370289
% es.tEy (V/m) @ t=0.5
0
% es.tEz (V/m) @ t=0.5
-3.016798580624542
% V (V) @ t=0.5
0.0159182515112728
% es.normE (V/m) @ t=0.52
3.2061484795774327
% es.EX (V/m) @ t=0.52
-0.9564598258129624
% es.EY (V/m) @ t=0.52
0.07144204275969705
% es.EZ (V/m) @ t=0.52
-3.054177063324812
% es.tEX (V/m) @ t=0.52
-0.9564598258129706
% es.tEY (V/m) @ t=0.52
0
% es.tEZ (V/m) @ t=0.52
-3.054177063324852
% es.Ex (V/m) @ t=0.52
-0.9564598258129624
% es.Ey (V/m) @ t=0.52
0.07144204275969705
% es.Ez (V/m) @ t=0.52
-3.054177063324812
% es.tEx (V/m) @ t=0.52
-0.9564598258129706
% es.tEy (V/m) @ t=0.52
0
% es.tEz (V/m) @ t=0.52
-3.054177063324852
% V (V) @ t=0.52
0.0161154804693937
% es.normE (V/m) @ t=0.54
3.2457300774715687
% es.EX (V/m) @ t=0.54
-0.968267851682391
% es.EY (V/m) @ t=0.54
0.07232407912397551
% es.EZ (V/m) @ t=0.54
-3.0918824829539204
% es.tEX (V/m) @ t=0.54
-0.9682678516823984
% es.tEY (V/m) @ t=0.54
0
% es.tEZ (V/m) @ t=0.54
-3.0918824829539435
% es.Ex (V/m) @ t=0.54
-0.968267851682391
% es.Ey (V/m) @ t=0.54
0.07232407912397551
% es.Ez (V/m) @ t=0.54
-3.0918824829539204
% es.tEx (V/m) @ t=0.54
-0.9682678516823984
% es.tEy (V/m) @ t=0.54
0
% es.tEz (V/m) @ t=0.54
-3.0918824829539435
% V (V) @ t=0.54
0.016314433033594287
% es.normE (V/m) @ t=0.56
3.285654889687141
% es.EX (V/m) @ t=0.56
-0.9801782838453121
% es.EY (V/m) @ t=0.56
0.07321380830353008
% es.EZ (V/m) @ t=0.56
-3.129914839511752
% es.tEX (V/m) @ t=0.56
-0.9801782838453263
% es.tEY (V/m) @ t=0.56
0
% es.tEZ (V/m) @ t=0.56
-3.1299148395117893
% es.Ex (V/m) @ t=0.56
-0.9801782838453121
% es.Ey (V/m) @ t=0.56
0.07321380830353008
% es.Ez (V/m) @ t=0.56
-3.129914839511752
% es.tEx (V/m) @ t=0.56
-0.9801782838453263
% es.tEy (V/m) @ t=0.56
0
% es.tEz (V/m) @ t=0.56
-3.1299148395117893
% V (V) @ t=0.56
0.016515109203874567
% es.normE (V/m) @ t=0.58
3.3259229162242985
% es.EX (V/m) @ t=0.58
-0.9921911223017483
% es.EY (V/m) @ t=0.58
0.07411123029830965
% es.EZ (V/m) @ t=0.58
-3.16827413299845
% es.tEX (V/m) @ t=0.58
-0.9921911223017617
% es.tEY (V/m) @ t=0.58
0
% es.tEZ (V/m) @ t=0.58
-3.168274132998473
% es.Ex (V/m) @ t=0.58
-0.9921911223017483
% es.Ey (V/m) @ t=0.58
0.07411123029830965
% es.Ez (V/m) @ t=0.58
-3.16827413299845
% es.tEx (V/m) @ t=0.58
-0.9921911223017617
% es.tEy (V/m) @ t=0.58
0
% es.tEz (V/m) @ t=0.58
-3.168274132998473
% V (V) @ t=0.58
0.01671750898023454
% es.normE (V/m) @ t=0.6
3.3665341570829357
% es.EX (V/m) @ t=0.6
-1.004306367051675
% es.EY (V/m) @ t=0.6
0.07501634510829075
% es.EZ (V/m) @ t=0.6
-3.2069603634139012
% es.tEX (V/m) @ t=0.6
-1.004306367051683
% es.tEY (V/m) @ t=0.6
0
% es.tEZ (V/m) @ t=0.6
-3.2069603634139128
% es.Ex (V/m) @ t=0.6
-1.004306367051675
% es.Ey (V/m) @ t=0.6
0.07501634510829075
% es.Ez (V/m) @ t=0.6
-3.2069603634139012
% es.tEx (V/m) @ t=0.6
-1.004306367051683
% es.tEy (V/m) @ t=0.6
0
% es.tEz (V/m) @ t=0.6
-3.2069603634139128
% V (V) @ t=0.6
0.0169216323626742
% es.normE (V/m) @ t=0.62
3.4074886122630907
% es.EX (V/m) @ t=0.62
-1.016524018095085
% es.EY (V/m) @ t=0.62
0.0759291527335581
% es.EZ (V/m) @ t=0.62
-3.245973530758132
% es.tEX (V/m) @ t=0.62
-1.0165240180950974
% es.tEY (V/m) @ t=0.62
0
% es.tEZ (V/m) @ t=0.62
-3.2459735307581603
% es.Ex (V/m) @ t=0.62
-1.016524018095085
% es.Ey (V/m) @ t=0.62
0.0759291527335581
% es.Ez (V/m) @ t=0.62
-3.245973530758132
% es.tEx (V/m) @ t=0.62
-1.0165240180950974
% es.tEy (V/m) @ t=0.62
0
% es.tEz (V/m) @ t=0.62
-3.2459735307581603
% V (V) @ t=0.62
0.017127479351193554
% es.normE (V/m) @ t=0.64
3.448786281764815
% es.EX (V/m) @ t=0.64
-1.028844075432006
% es.EY (V/m) @ t=0.64
0.07684965317404
% es.EZ (V/m) @ t=0.64
-3.285313635031174
% es.tEX (V/m) @ t=0.64
-1.028844075432012
% es.tEY (V/m) @ t=0.64
0
% es.tEZ (V/m) @ t=0.64
-3.2853136350312067
% es.Ex (V/m) @ t=0.64
-1.028844075432006
% es.Ey (V/m) @ t=0.64
0.07684965317404
% es.Ez (V/m) @ t=0.64
-3.285313635031174
% es.tEx (V/m) @ t=0.64
-1.028844075432012
% es.tEy (V/m) @ t=0.64
0
% es.tEz (V/m) @ t=0.64
-3.2853136350312067
% V (V) @ t=0.64
0.0173350499457926
% es.normE (V/m) @ t=0.66
3.490427165588098
% es.EX (V/m) @ t=0.66
-1.0412665390624234
% es.EY (V/m) @ t=0.66
0.07777784642980588
% es.EZ (V/m) @ t=0.66
-3.3249806762329968
% es.tEX (V/m) @ t=0.66
-1.0412665390624198
% es.tEY (V/m) @ t=0.66
0
% es.tEZ (V/m) @ t=0.66
-3.32498067623302
% es.Ex (V/m) @ t=0.66
-1.0412665390624234
% es.Ey (V/m) @ t=0.66
0.07777784642980588
% es.Ez (V/m) @ t=0.66
-3.3249806762329968
% es.tEx (V/m) @ t=0.66
-1.0412665390624198
% es.tEy (V/m) @ t=0.66
0
% es.tEz (V/m) @ t=0.66
-3.32498067623302
% V (V) @ t=0.66
0.01754434414647133
% es.normE (V/m) @ t=0.68
3.532411263732952
% es.EX (V/m) @ t=0.68
-1.0537914089863198
% es.EY (V/m) @ t=0.68
0.07871373250077915
% es.EZ (V/m) @ t=0.68
-3.3649746543636017
% es.tEX (V/m) @ t=0.68
-1.0537914089863207
% es.tEY (V/m) @ t=0.68
0
% es.tEZ (V/m) @ t=0.68
-3.3649746543636407
% es.Ex (V/m) @ t=0.68
-1.0537914089863198
% es.Ey (V/m) @ t=0.68
0.07871373250077915
% es.Ez (V/m) @ t=0.68
-3.3649746543636017
% es.tEx (V/m) @ t=0.68
-1.0537914089863207
% es.tEy (V/m) @ t=0.68
0
% es.tEz (V/m) @ t=0.68
-3.3649746543636407
% V (V) @ t=0.68
0.01775536195322976
% es.normE (V/m) @ t=0.7
3.5747385761994446
% es.EX (V/m) @ t=0.7
-1.0664186852037143
% es.EY (V/m) @ t=0.7
0.07965731138699908
% es.EZ (V/m) @ t=0.7
-3.4052955694230276
% es.tEX (V/m) @ t=0.7
-1.066418685203729
% es.tEY (V/m) @ t=0.7
0
% es.tEZ (V/m) @ t=0.7
-3.4052955694230462
% es.Ex (V/m) @ t=0.7
-1.0664186852037143
% es.Ey (V/m) @ t=0.7
0.07965731138699908
% es.Ez (V/m) @ t=0.7
-3.4052955694230276
% es.tEx (V/m) @ t=0.7
-1.066418685203729
% es.tEy (V/m) @ t=0.7
0
% es.tEz (V/m) @ t=0.7
-3.4052955694230462
% V (V) @ t=0.7
0.017968103366067877
% es.normE (V/m) @ t=0.72
3.617409102987531
% es.EX (V/m) @ t=0.72
-1.0791483677146252
% es.EY (V/m) @ t=0.72
0.0806085830884527
% es.EZ (V/m) @ t=0.72
-3.4459434214111955
% es.tEX (V/m) @ t=0.72
-1.0791483677146303
% es.tEY (V/m) @ t=0.72
0
% es.tEZ (V/m) @ t=0.72
-3.4459434214112346
% es.Ex (V/m) @ t=0.72
-1.0791483677146252
% es.Ey (V/m) @ t=0.72
0.0806085830884527
% es.Ez (V/m) @ t=0.72
-3.4459434214111955
% es.tEx (V/m) @ t=0.72
-1.0791483677146303
% es.tEy (V/m) @ t=0.72
0
% es.tEz (V/m) @ t=0.72
-3.4459434214112346
% V (V) @ t=0.72
0.018182568384985682
% es.normE (V/m) @ t=0.74
3.6604228440972895
% es.EX (V/m) @ t=0.74
-1.0919804565190074
% es.EY (V/m) @ t=0.74
0.08156754760514318
% es.EZ (V/m) @ t=0.74
-3.48691821032817
% es.tEX (V/m) @ t=0.74
-1.0919804565190177
% es.tEY (V/m) @ t=0.74
0
% es.tEZ (V/m) @ t=0.74
-3.486918210328202
% es.Ex (V/m) @ t=0.74
-1.0919804565190074
% es.Ey (V/m) @ t=0.74
0.08156754760514318
% es.Ez (V/m) @ t=0.74
-3.48691821032817
% es.tEx (V/m) @ t=0.74
-1.0919804565190177
% es.tEy (V/m) @ t=0.74
0
% es.tEz (V/m) @ t=0.74
-3.486918210328202
% V (V) @ t=0.74
0.01839875700998319
% es.normE (V/m) @ t=0.76
3.7044158935216283
% es.EX (V/m) @ t=0.76
-1.1051046365090724
% es.EY (V/m) @ t=0.76
0.08254819814036685
% es.EZ (V/m) @ t=0.76
-3.528825915925932
% es.tEX (V/m) @ t=0.76
-1.1051046365090826
% es.tEY (V/m) @ t=0.76
0
% es.tEZ (V/m) @ t=0.76
-3.52882591592598
% es.Ex (V/m) @ t=0.76
-1.1051046365090724
% es.Ey (V/m) @ t=0.76
0.08254819814036685
% es.Ez (V/m) @ t=0.76
-3.528825915925932
% es.tEx (V/m) @ t=0.76
-1.1051046365090826
% es.tEy (V/m) @ t=0.76
0
% es.tEz (V/m) @ t=0.76
-3.52882591592598
% V (V) @ t=0.76
0.018619872777608737
% es.normE (V/m) @ t=0.78
3.748864916351725
% es.EX (V/m) @ t=0.78
-1.1183648478463872
% es.EY (V/m) @ t=0.78
0.0835390220374421
% es.EZ (V/m) @ t=0.78
-3.5711679792465816
% es.tEX (V/m) @ t=0.78
-1.1183648478464008
% es.tEY (V/m) @ t=0.78
0
% es.tEZ (V/m) @ t=0.78
-3.571167979246601
% es.Ex (V/m) @ t=0.78
-1.1183648478463872
% es.Ey (V/m) @ t=0.78
0.0835390220374421
% es.Ez (V/m) @ t=0.78
-3.5711679792465816
% es.tEx (V/m) @ t=0.78
-1.1183648478464008
% es.tEy (V/m) @ t=0.78
0
% es.tEz (V/m) @ t=0.78
-3.571167979246601
% V (V) @ t=0.78
0.018843280035700922
% es.normE (V/m) @ t=0.8
3.7937551105519467
% es.EX (V/m) @ t=0.8
-1.13175667652524
% es.EY (V/m) @ t=0.8
0.08453969367166389
% es.EZ (V/m) @ t=0.8
-3.613930299018941
% es.tEX (V/m) @ t=0.8
-1.1317566765252494
% es.tEY (V/m) @ t=0.8
0
% es.tEZ (V/m) @ t=0.8
-3.6139302990189694
% es.Ex (V/m) @ t=0.8
-1.13175667652524
% es.Ey (V/m) @ t=0.8
0.08453969367166389
% es.Ez (V/m) @ t=0.8
-3.613930299018941
% es.tEx (V/m) @ t=0.8
-1.1317566765252494
% es.tEy (V/m) @ t=0.8
0
% es.tEz (V/m) @ t=0.8
-3.6139302990189694
% V (V) @ t=0.8
0.01906890423731761
% es.normE (V/m) @ t=0.82
3.839086476122315
% es.EX (V/m) @ t=0.82
-1.145280122545599
% es.EY (V/m) @ t=0.82
0.08555021304304394
% es.EZ (V/m) @ t=0.82
-3.6571128752430306
% es.tEX (V/m) @ t=0.82
-1.1452801225456
% es.tEY (V/m) @ t=0.82
0
% es.tEZ (V/m) @ t=0.82
-3.6571128752430653
% es.Ex (V/m) @ t=0.82
-1.145280122545599
% es.Ey (V/m) @ t=0.82
0.08555021304304394
% es.Ez (V/m) @ t=0.82
-3.6571128752430306
% es.tEx (V/m) @ t=0.82
-1.1452801225456
% es.tEy (V/m) @ t=0.82
0
% es.tEz (V/m) @ t=0.82
-3.6571128752430653
% V (V) @ t=0.82
0.019296745382458798
% es.normE (V/m) @ t=0.84
3.884859013062867
% es.EX (V/m) @ t=0.84
-1.158935185907508
% es.EY (V/m) @ t=0.84
0.0865705801516106
% es.EZ (V/m) @ t=0.84
-3.7007157079188753
% es.tEX (V/m) @ t=0.84
-1.1589351859075236
% es.tEY (V/m) @ t=0.84
0
% es.tEZ (V/m) @ t=0.84
-3.7007157079188975
% es.Ex (V/m) @ t=0.84
-1.158935185907508
% es.Ey (V/m) @ t=0.84
0.0865705801516106
% es.Ez (V/m) @ t=0.84
-3.7007157079188753
% es.tEx (V/m) @ t=0.84
-1.1589351859075236
% es.tEy (V/m) @ t=0.84
0
% es.tEz (V/m) @ t=0.84
-3.7007157079188975
% V (V) @ t=0.84
0.019526803471124475
% es.normE (V/m) @ t=0.86
3.9310727213735888
% es.EX (V/m) @ t=0.86
-1.172721866610976
% es.EY (V/m) @ t=0.86
0.08760079499735882
% es.EZ (V/m) @ t=0.86
-3.7447387970464456
% es.tEX (V/m) @ t=0.86
-1.172721866610992
% es.tEY (V/m) @ t=0.86
0
% es.tEZ (V/m) @ t=0.86
-3.7447387970464927
% es.Ex (V/m) @ t=0.86
-1.172721866610976
% es.Ey (V/m) @ t=0.86
0.08760079499735882
% es.Ez (V/m) @ t=0.86
-3.7447387970464456
% es.tEx (V/m) @ t=0.86
-1.172721866610992
% es.tEy (V/m) @ t=0.86
0
% es.tEz (V/m) @ t=0.86
-3.7447387970464927
% V (V) @ t=0.86
0.019759078503314657
% es.normE (V/m) @ t=0.88
3.9777276010545033
% es.EX (V/m) @ t=0.88
-1.1866401646559646
% es.EY (V/m) @ t=0.88
0.08864085758023385
% es.EZ (V/m) @ t=0.88
-3.7891821426257746
% es.tEX (V/m) @ t=0.88
-1.1866401646559837
% es.tEY (V/m) @ t=0.88
0
% es.tEZ (V/m) @ t=0.88
-3.789182142625817
% es.Ex (V/m) @ t=0.88
-1.1866401646559646
% es.Ey (V/m) @ t=0.88
0.08864085758023385
% es.Ez (V/m) @ t=0.88
-3.7891821426257746
% es.tEx (V/m) @ t=0.88
-1.1866401646559837
% es.tEy (V/m) @ t=0.88
0
% es.tEz (V/m) @ t=0.88
-3.789182142625817
% V (V) @ t=0.88
0.019993570479029332
% es.normE (V/m) @ t=0.9
4.024823652105635
% es.EX (V/m) @ t=0.9
-1.200690080042489
% es.EY (V/m) @ t=0.9
0.08969076790029054
% es.EZ (V/m) @ t=0.9
-3.8340457446568728
% es.tEX (V/m) @ t=0.9
-1.2006900800424987
% es.tEY (V/m) @ t=0.9
0
% es.tEZ (V/m) @ t=0.9
-3.8340457446568887
% es.Ex (V/m) @ t=0.9
-1.200690080042489
% es.Ey (V/m) @ t=0.9
0.08969076790029054
% es.Ez (V/m) @ t=0.9
-3.8340457446568728
% es.tEx (V/m) @ t=0.9
-1.2006900800424987
% es.tEy (V/m) @ t=0.9
0
% es.tEz (V/m) @ t=0.9
-3.8340457446568887
% V (V) @ t=0.9
0.02023027939826851
% es.normE (V/m) @ t=0.92
4.072360874526892
% es.EX (V/m) @ t=0.92
-1.2148716127705446
% es.EY (V/m) @ t=0.92
0.09075052595753477
% es.EZ (V/m) @ t=0.92
-3.8793296031396416
% es.tEX (V/m) @ t=0.92
-1.2148716127705583
% es.tEY (V/m) @ t=0.92
0
% es.tEZ (V/m) @ t=0.92
-3.879329603139663
% es.Ex (V/m) @ t=0.92
-1.2148716127705446
% es.Ey (V/m) @ t=0.92
0.09075052595753477
% es.Ez (V/m) @ t=0.92
-3.8793296031396416
% es.tEx (V/m) @ t=0.92
-1.2148716127705583
% es.tEy (V/m) @ t=0.92
0
% es.tEz (V/m) @ t=0.92
-3.879329603139663
% V (V) @ t=0.92
0.02046920526103217
% es.normE (V/m) @ t=0.94
4.1203392683183715
% es.EX (V/m) @ t=0.94
-1.2291847628401418
% es.EY (V/m) @ t=0.94
0.09182013175190684
% es.EZ (V/m) @ t=0.94
-3.9250337180741655
% es.tEX (V/m) @ t=0.94
-1.2291847628401484
% es.tEY (V/m) @ t=0.94
0
% es.tEZ (V/m) @ t=0.94
-3.9250337180742125
% es.Ex (V/m) @ t=0.94
-1.2291847628401418
% es.Ey (V/m) @ t=0.94
0.09182013175190684
% es.Ez (V/m) @ t=0.94
-3.9250337180741655
% es.tEx (V/m) @ t=0.94
-1.2291847628401484
% es.tEy (V/m) @ t=0.94
0
% es.tEz (V/m) @ t=0.94
-3.9250337180742125
% V (V) @ t=0.94
0.020710348067320344
% es.normE (V/m) @ t=0.96
4.168758833480087
% es.EX (V/m) @ t=0.96
-1.2436295302512828
% es.EY (V/m) @ t=0.96
0.09289958528349102
% es.EZ (V/m) @ t=0.96
-3.9711580894604603
% es.tEX (V/m) @ t=0.96
-1.2436295302512974
% es.tEY (V/m) @ t=0.96
0
% es.tEZ (V/m) @ t=0.96
-3.9711580894605074
% es.Ex (V/m) @ t=0.96
-1.2436295302512828
% es.Ey (V/m) @ t=0.96
0.09289958528349102
% es.Ez (V/m) @ t=0.96
-3.9711580894604603
% es.tEx (V/m) @ t=0.96
-1.2436295302512974
% es.tEy (V/m) @ t=0.96
0
% es.tEz (V/m) @ t=0.96
-3.9711580894605074
% V (V) @ t=0.96
0.02095370781713301
% es.normE (V/m) @ t=0.98
4.217619570011992
% es.EX (V/m) @ t=0.98
-1.2582059150039506
% es.EY (V/m) @ t=0.98
0.0939888865522438
% es.EZ (V/m) @ t=0.98
-4.017702717298467
% es.tEX (V/m) @ t=0.98
-1.2582059150039555
% es.tEY (V/m) @ t=0.98
0
% es.tEZ (V/m) @ t=0.98
-4.017702717298494
% es.Ex (V/m) @ t=0.98
-1.2582059150039506
% es.Ey (V/m) @ t=0.98
0.0939888865522438
% es.Ez (V/m) @ t=0.98
-4.017702717298467
% es.tEx (V/m) @ t=0.98
-1.2582059150039555
% es.tEy (V/m) @ t=0.98
0
% es.tEz (V/m) @ t=0.98
-4.017702717298494
% V (V) @ t=0.98
0.021199284510470165
% es.normE (V/m) @ t=1
4.267140302030635
% es.EX (V/m) @ t=1
-1.2729791374682118
% es.EY (V/m) @ t=1
0.09509275755772897
% es.EZ (V/m) @ t=1
-4.064876083168443
% es.tEX (V/m) @ t=1
-1.2729791374682122
% es.tEY (V/m) @ t=1
0
% es.tEZ (V/m) @ t=1
-4.064876083168464
% es.Ex (V/m) @ t=1
-1.2729791374682118
% es.Ey (V/m) @ t=1
0.09509275755772897
% es.Ez (V/m) @ t=1
-4.064876083168443
% es.tEx (V/m) @ t=1
-1.2729791374682122
% es.tEy (V/m) @ t=1
0
% es.tEz (V/m) @ t=1
-4.064876083168464
% V (V) @ t=1
0.021448183118303092
% es.normE (V/m) @ t=1.02
4.317270269255708
% es.EX (V/m) @ t=1.02
-1.2879340685791432
% es.EY (V/m) @ t=1.02
0.09621010294536217
% es.EZ (V/m) @ t=1.02
-4.1126298259317355
% es.tEX (V/m) @ t=1.02
-1.2879340685791476
% es.tEY (V/m) @ t=1.02
0
% es.tEZ (V/m) @ t=1.02
-4.112629825931782
% es.Ex (V/m) @ t=1.02
-1.2879340685791432
% es.Ey (V/m) @ t=1.02
0.09621010294536217
% es.Ez (V/m) @ t=1.02
-4.1126298259317355
% es.tEx (V/m) @ t=1.02
-1.2879340685791476
% es.tEy (V/m) @ t=1.02
0
% es.tEz (V/m) @ t=1.02
-4.112629825931782
% V (V) @ t=1.02
0.02170014732228346
% es.normE (V/m) @ t=1.04
4.367894361178527
% es.EX (V/m) @ t=1.04
-1.303036399732691