% Model:              1 neuron.mph
% Version:            COMSOL 6.0.0.405
% Date:               Mar 16 2023, 10:10
% Dimension:          0
% Nodes:              14017
% Expressions:        14017
% Description:        Electric field norm, Electric field, X component, Electric field, Y component, Electric field, Z component, Tangential electric field, X component, Tangential electric field, Y component, Tangential electric field, Z component, Electric field, x component, Electric field, y component, Electric field, z component, Tangential electric field, x component, Tangential electric field, y component, Tangential electric field, z component, Electric potential
% Length unit:        mm
% x
1.33
% y
12.2
% z
1
% es.normE (V/m) @ t=0
1.5546745677328773
% es.EX (V/m) @ t=0
0.4798707100022487
% es.EY (V/m) @ t=0
0.11625537272944864
% es.EZ (V/m) @ t=0
1.4741744803346797
% es.tEX (V/m) @ t=0
0.47987071000225257
% es.tEY (V/m) @ t=0
0
% es.tEZ (V/m) @ t=0
1.4741744803346837
% es.Ex (V/m) @ t=0
0.4798707100022487
% es.Ey (V/m) @ t=0
0.11625537272944864
% es.Ez (V/m) @ t=0
1.4741744803346797
% es.tEx (V/m) @ t=0
0.47987071000225257
% es.tEy (V/m) @ t=0
0
% es.tEz (V/m) @ t=0
1.4741744803346837
% V (V) @ t=0
0.007271251669810848
% es.normE (V/m) @ t=0.02
1.3428022403821083
% es.EX (V/m) @ t=0.02
0.4144735366448258
% es.EY (V/m) @ t=0.02
0.10041199565029679
% es.EZ (V/m) @ t=0.02
1.2732727705797586
% es.tEX (V/m) @ t=0.02
0.4144735366448309
% es.tEY (V/m) @ t=0.02
0
% es.tEZ (V/m) @ t=0.02
1.2732727705797542
% es.Ex (V/m) @ t=0.02
0.4144735366448258
% es.Ey (V/m) @ t=0.02
0.10041199565029679
% es.Ez (V/m) @ t=0.02
1.2732727705797586
% es.tEx (V/m) @ t=0.02
0.4144735366448309
% es.tEy (V/m) @ t=0.02
0
% es.tEz (V/m) @ t=0.02
1.2732727705797542
% V (V) @ t=0.02
0.006280319292603812
% es.normE (V/m) @ t=0.04
1.3551534362184459
% es.EX (V/m) @ t=0.04
0.41828589746083655
% es.EY (V/m) @ t=0.04
0.10133559375548484
% es.EZ (V/m) @ t=0.04
1.2849844283729708
% es.tEX (V/m) @ t=0.04
0.4182858974608372
% es.tEY (V/m) @ t=0.04
0
% es.tEZ (V/m) @ t=0.04
1.2849844283729759
% es.Ex (V/m) @ t=0.04
0.41828589746083655
% es.Ey (V/m) @ t=0.04
0.10133559375548484
% es.Ez (V/m) @ t=0.04
1.2849844283729708
% es.tEx (V/m) @ t=0.04
0.4182858974608372
% es.tEy (V/m) @ t=0.04
0
% es.tEz (V/m) @ t=0.04
1.2849844283729759
% V (V) @ t=0.04
0.0063380857600227065
% es.normE (V/m) @ t=0.06
1.3676156893572669
% es.EX (V/m) @ t=0.06
0.4221325343756944
% es.EY (V/m) @ t=0.06
0.10226749484730557
% es.EZ (V/m) @ t=0.06
1.2968013941497483
% es.tEX (V/m) @ t=0.06
0.42213253437569875
% es.tEY (V/m) @ t=0.06
0
% es.tEZ (V/m) @ t=0.06
1.2968013941497611
% es.Ex (V/m) @ t=0.06
0.4221325343756944
% es.Ey (V/m) @ t=0.06
0.10226749484730557
% es.Ez (V/m) @ t=0.06
1.2968013941497483
% es.tEx (V/m) @ t=0.06
0.42213253437569875
% es.tEy (V/m) @ t=0.06
0
% es.tEz (V/m) @ t=0.06
1.2968013941497611
% V (V) @ t=0.06
0.006396372225212674
% es.normE (V/m) @ t=0.08
1.3802690432318139
% es.EX (V/m) @ t=0.08
0.42603815637914644
% es.EY (V/m) @ t=0.08
0.10321368575058243
% es.EZ (V/m) @ t=0.08
1.3087995658219713
% es.tEX (V/m) @ t=0.08
0.42603815637914977
% es.tEY (V/m) @ t=0.08
0
% es.tEZ (V/m) @ t=0.08
1.3087995658219764
% es.Ex (V/m) @ t=0.08
0.42603815637914644
% es.Ey (V/m) @ t=0.08
0.10321368575058243
% es.Ez (V/m) @ t=0.08
1.3087995658219713
% es.tEx (V/m) @ t=0.08
0.42603815637914977
% es.tEy (V/m) @ t=0.08
0
% es.tEz (V/m) @ t=0.08
1.3087995658219764
% V (V) @ t=0.08
0.006455552592859614
% es.normE (V/m) @ t=0.1
1.3930534371855527
% es.EX (V/m) @ t=0.1
0.4299842251692052
% es.EY (V/m) @ t=0.1
0.10416967534994981
% es.EZ (V/m) @ t=0.1
1.3209219925620737
% es.tEX (V/m) @ t=0.1
0.4299842251692034
% es.tEY (V/m) @ t=0.1
0
% es.tEZ (V/m) @ t=0.1
1.3209219925620692
% es.Ex (V/m) @ t=0.1
0.4299842251692052
% es.Ey (V/m) @ t=0.1
0.10416967534994981
% es.Ez (V/m) @ t=0.1
1.3209219925620737
% es.tEx (V/m) @ t=0.1
0.4299842251692034
% es.tEy (V/m) @ t=0.1
0
% es.tEz (V/m) @ t=0.1
1.3209219925620692
% V (V) @ t=0.1
0.006515345920202052
% es.normE (V/m) @ t=0.12
1.4058378311392878
% es.EX (V/m) @ t=0.12
0.4339302939592623
% es.EY (V/m) @ t=0.12
0.10512566494930631
% es.EZ (V/m) @ t=0.12
1.333044419302173
% es.tEX (V/m) @ t=0.12
0.4339302939592642
% es.tEY (V/m) @ t=0.12
0
% es.tEZ (V/m) @ t=0.12
1.3330444193021744
% es.Ex (V/m) @ t=0.12
0.4339302939592623
% es.Ey (V/m) @ t=0.12
0.10512566494930631
% es.Ez (V/m) @ t=0.12
1.333044419302173
% es.tEx (V/m) @ t=0.12
0.4339302939592642
% es.tEy (V/m) @ t=0.12
0
% es.tEz (V/m) @ t=0.12
1.3330444193021744
% V (V) @ t=0.12
0.006575139247544491
% es.normE (V/m) @ t=0.14
1.418756095058542
% es.EX (V/m) @ t=0.14
0.4379176826948218
% es.EY (V/m) @ t=0.14
0.10609166466541697
% es.EZ (V/m) @ t=0.14
1.3452937845857842
% es.tEX (V/m) @ t=0.14
0.43791768269482034
% es.tEY (V/m) @ t=0.14
0
% es.tEZ (V/m) @ t=0.14
1.345293784585781
% es.Ex (V/m) @ t=0.14
0.4379176826948218
% es.Ey (V/m) @ t=0.14
0.10609166466541697
% es.Ez (V/m) @ t=0.14
1.3452937845857842
% es.tEx (V/m) @ t=0.14
0.43791768269482034
% es.tEy (V/m) @ t=0.14
0
% es.tEz (V/m) @ t=0.14
1.345293784585781
% V (V) @ t=0.14
0.006635558830020793
% es.normE (V/m) @ t=0.16
1.4322221291991548
% es.EX (V/m) @ t=0.16
0.44207414472178463
% es.EY (V/m) @ t=0.16
0.10709862385930269
% es.EZ (V/m) @ t=0.16
1.358062558041417
% es.tEX (V/m) @ t=0.16
0.4420741447217864
% es.tEY (V/m) @ t=0.16
0
% es.tEZ (V/m) @ t=0.16
1.358062558041425
% es.Ex (V/m) @ t=0.16
0.44207414472178463
% es.Ey (V/m) @ t=0.16
0.10709862385930269
% es.Ez (V/m) @ t=0.16
1.358062558041417
% es.tEx (V/m) @ t=0.16
0.4420741447217864
% es.tEy (V/m) @ t=0.16
0
% es.tEz (V/m) @ t=0.16
1.358062558041425
% V (V) @ t=0.16
0.006698540928383076
% es.normE (V/m) @ t=0.18
1.4456881633397494
% es.EX (V/m) @ t=0.18
0.4462306067487455
% es.EY (V/m) @ t=0.18
0.10810558305317819
% es.EZ (V/m) @ t=0.18
1.370831331497032
% es.tEX (V/m) @ t=0.18
0.4462306067487454
% es.tEY (V/m) @ t=0.18
0
% es.tEZ (V/m) @ t=0.18
1.3708313314970475
% es.Ex (V/m) @ t=0.18
0.4462306067487455
% es.Ey (V/m) @ t=0.18
0.10810558305317819
% es.Ez (V/m) @ t=0.18
1.370831331497032
% es.tEx (V/m) @ t=0.18
0.4462306067487454
% es.tEy (V/m) @ t=0.18
0
% es.tEz (V/m) @ t=0.18
1.3708313314970475
% V (V) @ t=0.18
0.00676152302674536
% es.normE (V/m) @ t=0.2
1.459154197480363
% es.EX (V/m) @ t=0.2
0.45038706877570467
% es.EY (V/m) @ t=0.2
0.10911254224707989
% es.EZ (V/m) @ t=0.2
1.3836001049526652
% es.tEX (V/m) @ t=0.2
0.45038706877571144
% es.tEY (V/m) @ t=0.2
0
% es.tEZ (V/m) @ t=0.2
1.38360010495267
% es.Ex (V/m) @ t=0.2
0.45038706877570467
% es.Ey (V/m) @ t=0.2
0.10911254224707989
% es.Ez (V/m) @ t=0.2
1.3836001049526652
% es.tEx (V/m) @ t=0.2
0.45038706877571144
% es.tEy (V/m) @ t=0.2
0
% es.tEz (V/m) @ t=0.2
1.38360010495267
% V (V) @ t=0.2
0.006824505125107643
% es.normE (V/m) @ t=0.22
1.4726202316209651
% es.EX (V/m) @ t=0.22
0.4545435308026713
% es.EY (V/m) @ t=0.22
0.11011950144093718
% es.EZ (V/m) @ t=0.22
1.3963688784082877
% es.tEX (V/m) @ t=0.22
0.45454353080267396
% es.tEY (V/m) @ t=0.22
0
% es.tEZ (V/m) @ t=0.22
1.3963688784082944
% es.Ex (V/m) @ t=0.22
0.4545435308026713
% es.Ey (V/m) @ t=0.22
0.11011950144093718
% es.Ez (V/m) @ t=0.22
1.3963688784082877
% es.tEx (V/m) @ t=0.22
0.45454353080267396
% es.tEy (V/m) @ t=0.22
0
% es.tEz (V/m) @ t=0.22
1.3963688784082944
% V (V) @ t=0.22
0.006887487223469926
% es.normE (V/m) @ t=0.24
1.4860862657615783
% es.EX (V/m) @ t=0.24
0.4586999928296266
% es.EY (V/m) @ t=0.24
0.11112646063482134
% es.EZ (V/m) @ t=0.24
1.4091376518639231
% es.tEX (V/m) @ t=0.24
0.45869999282962937
% es.tEY (V/m) @ t=0.24
0
% es.tEZ (V/m) @ t=0.24
1.4091376518639223
% es.Ex (V/m) @ t=0.24
0.4586999928296266
% es.Ey (V/m) @ t=0.24
0.11112646063482134
% es.Ez (V/m) @ t=0.24
1.4091376518639231
% es.tEx (V/m) @ t=0.24
0.45869999282962937
% es.tEy (V/m) @ t=0.24
0
% es.tEz (V/m) @ t=0.24
1.4091376518639223
% V (V) @ t=0.24
0.006950469321832209
% es.normE (V/m) @ t=0.26
1.4995522999021924
% es.EX (V/m) @ t=0.26
0.4628564548565933
% es.EY (V/m) @ t=0.26
0.11213341982869995
% es.EZ (V/m) @ t=0.26
1.4219064253195564
% es.tEX (V/m) @ t=0.26
0.4628564548565919
% es.tEY (V/m) @ t=0.26
0
% es.tEZ (V/m) @ t=0.26
1.4219064253195537
% es.Ex (V/m) @ t=0.26
0.4628564548565933
% es.Ey (V/m) @ t=0.26
0.11213341982869995
% es.Ez (V/m) @ t=0.26
1.4219064253195564
% es.tEx (V/m) @ t=0.26
0.4628564548565919
% es.tEy (V/m) @ t=0.26
0
% es.tEz (V/m) @ t=0.26
1.4219064253195537
% V (V) @ t=0.26
0.0070134514201944925
% es.normE (V/m) @ t=0.28
1.513636977340949
% es.EX (V/m) @ t=0.28
0.46720381297111224
% es.EY (V/m) @ t=0.28
0.11318660876321618
% es.EZ (V/m) @ t=0.28
1.4352618296904547
% es.tEX (V/m) @ t=0.28
0.4672038129711211
% es.tEY (V/m) @ t=0.28
0
% es.tEZ (V/m) @ t=0.28
1.435261829690452
% es.Ex (V/m) @ t=0.28
0.46720381297111224
% es.Ey (V/m) @ t=0.28
0.11318660876321618
% es.Ez (V/m) @ t=0.28
1.4352618296904547
% es.tEx (V/m) @ t=0.28
0.4672038129711211
% es.tEy (V/m) @ t=0.28
0
% es.tEz (V/m) @ t=0.28
1.435261829690452
% V (V) @ t=0.28
0.007079337153729768
% es.normE (V/m) @ t=0.3
1.52863909976733
% es.EX (V/m) @ t=0.3
0.4718342690505213
% es.EY (V/m) @ t=0.3
0.11430835617717516
% es.EZ (V/m) @ t=0.3
1.4494872048415939
% es.tEX (V/m) @ t=0.3
0.4718342690505182
% es.tEY (V/m) @ t=0.3
0
% es.tEZ (V/m) @ t=0.3
1.4494872048416028
% es.Ex (V/m) @ t=0.3
0.4718342690505213
% es.Ey (V/m) @ t=0.3
0.11430835617717516
% es.Ez (V/m) @ t=0.3
1.4494872048415939
% es.tEx (V/m) @ t=0.3
0.4718342690505182
% es.tEy (V/m) @ t=0.3
0
% es.tEz (V/m) @ t=0.3
1.4494872048416028
% V (V) @ t=0.3
0.007149528964035313
% es.normE (V/m) @ t=0.32
1.5436412221937301
% es.EX (V/m) @ t=0.32
0.4764647251299089
% es.EY (V/m) @ t=0.32
0.11543010359111505
% es.EZ (V/m) @ t=0.32
1.46371257999273
% es.tEX (V/m) @ t=0.32
0.4764647251299152
% es.tEY (V/m) @ t=0.32
0
% es.tEZ (V/m) @ t=0.32
1.4637125799927393
% es.Ex (V/m) @ t=0.32
0.4764647251299089
% es.Ey (V/m) @ t=0.32
0.11543010359111505
% es.Ez (V/m) @ t=0.32
1.46371257999273
% es.tEx (V/m) @ t=0.32
0.4764647251299152
% es.tEy (V/m) @ t=0.32
0
% es.tEz (V/m) @ t=0.32
1.4637125799927393
% V (V) @ t=0.32
0.0072197207743408594
% es.normE (V/m) @ t=0.34
1.558643344620165
% es.EX (V/m) @ t=0.34
0.4810951812093073
% es.EY (V/m) @ t=0.34
0.11655185100507959
% es.EZ (V/m) @ t=0.34
1.477937955143866
% es.tEX (V/m) @ t=0.34
0.4810951812093123
% es.tEY (V/m) @ t=0.34
0
% es.tEZ (V/m) @ t=0.34
1.4779379551438705
% es.Ex (V/m) @ t=0.34
0.4810951812093073
% es.Ey (V/m) @ t=0.34
0.11655185100507959
% es.Ez (V/m) @ t=0.34
1.477937955143866
% es.tEx (V/m) @ t=0.34
0.4810951812093123
% es.tEy (V/m) @ t=0.34
0
% es.tEz (V/m) @ t=0.34
1.4779379551438705
% V (V) @ t=0.34
0.007289912584646405
% es.normE (V/m) @ t=0.36
1.5736454670466204
% es.EX (V/m) @ t=0.36
0.485725637288705
% es.EY (V/m) @ t=0.36
0.11767359841902614
% es.EZ (V/m) @ t=0.36
1.492163330294995
% es.tEX (V/m) @ t=0.36
0.4857256372887164
% es.tEY (V/m) @ t=0.36
0
% es.tEZ (V/m) @ t=0.36
1.4921633302949946
% es.Ex (V/m) @ t=0.36
0.485725637288705
% es.Ey (V/m) @ t=0.36
0.11767359841902614
% es.Ez (V/m) @ t=0.36
1.492163330294995
% es.tEx (V/m) @ t=0.36
0.4857256372887164
% es.tEy (V/m) @ t=0.36
0
% es.tEz (V/m) @ t=0.36
1.4921633302949946
% V (V) @ t=0.36
0.007360104394951951
% es.normE (V/m) @ t=0.38
1.5886475894731245
% es.EX (V/m) @ t=0.38
0.49035609336810526
% es.EY (V/m) @ t=0.38
0.11879534583298357
% es.EZ (V/m) @ t=0.38
1.5063887054461444
% es.tEX (V/m) @ t=0.38
0.49035609336809927
% es.tEY (V/m) @ t=0.38
0
% es.tEZ (V/m) @ t=0.38
1.5063887054461507
% es.Ex (V/m) @ t=0.38
0.49035609336810526
% es.Ey (V/m) @ t=0.38
0.11879534583298357
% es.Ez (V/m) @ t=0.38
1.5063887054461444
% es.tEx (V/m) @ t=0.38
0.49035609336809927
% es.tEy (V/m) @ t=0.38
0
% es.tEz (V/m) @ t=0.38
1.5063887054461507
% V (V) @ t=0.38
0.007430296205257495
% es.normE (V/m) @ t=0.4
1.6036497118996458
% es.EX (V/m) @ t=0.4
0.4949865494475021
% es.EY (V/m) @ t=0.4
0.119917093246939
% es.EZ (V/m) @ t=0.4
1.520614080597285
% es.tEX (V/m) @ t=0.4
0.4949865494475105
% es.tEY (V/m) @ t=0.4
0
% es.tEZ (V/m) @ t=0.4
1.5206140805972819
% es.Ex (V/m) @ t=0.4
0.4949865494475021
% es.Ey (V/m) @ t=0.4
0.119917093246939
% es.Ez (V/m) @ t=0.4
1.520614080597285
% es.tEx (V/m) @ t=0.4
0.4949865494475105
% es.tEy (V/m) @ t=0.4
0
% es.tEz (V/m) @ t=0.4
1.5206140805972819
% V (V) @ t=0.4
0.00750048801556304
% es.normE (V/m) @ t=0.42
1.6186518343261909
% es.EX (V/m) @ t=0.42
0.4996170055268969
% es.EY (V/m) @ t=0.42
0.12103884066088932
% es.EZ (V/m) @ t=0.42
1.5348394557484242
% es.tEX (V/m) @ t=0.42
0.49961700552690047
% es.tEY (V/m) @ t=0.42
0
% es.tEZ (V/m) @ t=0.42
1.5348394557484326
% es.Ex (V/m) @ t=0.42
0.4996170055268969
% es.Ey (V/m) @ t=0.42
0.12103884066088932
% es.Ez (V/m) @ t=0.42
1.5348394557484242
% es.tEx (V/m) @ t=0.42
0.49961700552690047
% es.tEy (V/m) @ t=0.42
0
% es.tEz (V/m) @ t=0.42
1.5348394557484326
% V (V) @ t=0.42
0.007570679825868586
% es.normE (V/m) @ t=0.44
1.6336539567527533
% es.EX (V/m) @ t=0.44
0.5042474616062858
% es.EY (V/m) @ t=0.44
0.12216058807483843
% es.EZ (V/m) @ t=0.44
1.5490648308995563
% es.tEX (V/m) @ t=0.44
0.5042474616062904
% es.tEY (V/m) @ t=0.44
0
% es.tEZ (V/m) @ t=0.44
1.549064830899562
% es.Ex (V/m) @ t=0.44
0.5042474616062858
% es.Ey (V/m) @ t=0.44
0.12216058807483843
% es.Ez (V/m) @ t=0.44
1.5490648308995563
% es.tEx (V/m) @ t=0.44
0.5042474616062904
% es.tEy (V/m) @ t=0.44
0
% es.tEz (V/m) @ t=0.44
1.549064830899562
% V (V) @ t=0.44
0.007640871636174131
% es.normE (V/m) @ t=0.46
1.6486560791793499
% es.EX (V/m) @ t=0.46
0.5088779176856892
% es.EY (V/m) @ t=0.46
0.12328233548880074
% es.EZ (V/m) @ t=0.46
1.5632902060506928
% es.tEX (V/m) @ t=0.46
0.5088779176856875
% es.tEY (V/m) @ t=0.46
0
% es.tEZ (V/m) @ t=0.46
1.5632902060506915
% es.Ex (V/m) @ t=0.46
0.5088779176856892
% es.Ey (V/m) @ t=0.46
0.12328233548880074
% es.Ez (V/m) @ t=0.46
1.5632902060506928
% es.tEx (V/m) @ t=0.46
0.5088779176856875
% es.tEy (V/m) @ t=0.46
0
% es.tEz (V/m) @ t=0.46
1.5632902060506915
% V (V) @ t=0.46
0.007711063446479677
% es.normE (V/m) @ t=0.48
1.6636582016059753
% es.EX (V/m) @ t=0.48
0.5135083737650877
% es.EY (V/m) @ t=0.48
0.12440408290276528
% es.EZ (V/m) @ t=0.48
1.5775155812018355
% es.tEX (V/m) @ t=0.48
0.5135083737650916
% es.tEY (V/m) @ t=0.48
0
% es.tEZ (V/m) @ t=0.48
1.5775155812018493
% es.Ex (V/m) @ t=0.48
0.5135083737650877
% es.Ey (V/m) @ t=0.48
0.12440408290276528
% es.Ez (V/m) @ t=0.48
1.5775155812018355
% es.tEx (V/m) @ t=0.48
0.5135083737650916
% es.tEy (V/m) @ t=0.48
0
% es.tEz (V/m) @ t=0.48
1.5775155812018493
% V (V) @ t=0.48
0.007781255256785222
% es.normE (V/m) @ t=0.5
1.678660324032623
% es.EX (V/m) @ t=0.5
0.5181388298444863
% es.EY (V/m) @ t=0.5
0.12552583031669584
% es.EZ (V/m) @ t=0.5
1.5917409563529796
% es.tEX (V/m) @ t=0.5
0.5181388298444887
% es.tEY (V/m) @ t=0.5
0
% es.tEZ (V/m) @ t=0.5
1.5917409563529876
% es.Ex (V/m) @ t=0.5
0.5181388298444863
% es.Ey (V/m) @ t=0.5
0.12552583031669584
% es.Ez (V/m) @ t=0.5
1.5917409563529796
% es.tEx (V/m) @ t=0.5
0.5181388298444887
% es.tEy (V/m) @ t=0.5
0
% es.tEz (V/m) @ t=0.5
1.5917409563529876
% V (V) @ t=0.5
0.007851447067090768
% es.normE (V/m) @ t=0.52
1.693662446459288
% es.EX (V/m) @ t=0.52
0.5227692859238778
% es.EY (V/m) @ t=0.52
0.12664757773065505
% es.EZ (V/m) @ t=0.52
1.605966331504118
% es.tEX (V/m) @ t=0.52
0.5227692859238786
% es.tEY (V/m) @ t=0.52
0
% es.tEZ (V/m) @ t=0.52
1.605966331504117
% es.Ex (V/m) @ t=0.52
0.5227692859238778
% es.Ey (V/m) @ t=0.52
0.12664757773065505
% es.Ez (V/m) @ t=0.52
1.605966331504118
% es.tEx (V/m) @ t=0.52
0.5227692859238786
% es.tEy (V/m) @ t=0.52
0
% es.tEz (V/m) @ t=0.52
1.605966331504117
% V (V) @ t=0.52
0.007921638877396314
% es.normE (V/m) @ t=0.54
1.7086645688859843
% es.EX (V/m) @ t=0.54
0.5273997420032707
% es.EY (V/m) @ t=0.54
0.12776932514462358
% es.EZ (V/m) @ t=0.54
1.6201917066552647
% es.tEX (V/m) @ t=0.54
0.5273997420032686
% es.tEY (V/m) @ t=0.54
0
% es.tEZ (V/m) @ t=0.54
1.620191706655266
% es.Ex (V/m) @ t=0.54
0.5273997420032707
% es.Ey (V/m) @ t=0.54
0.12776932514462358
% es.Ez (V/m) @ t=0.54
1.6201917066552647
% es.tEx (V/m) @ t=0.54
0.5273997420032686
% es.tEy (V/m) @ t=0.54
0
% es.tEz (V/m) @ t=0.54
1.620191706655266
% V (V) @ t=0.54
0.007991830687701859
% es.normE (V/m) @ t=0.56
1.725079113181956
% es.EX (V/m) @ t=0.56
0.5324663436497439
% es.EY (V/m) @ t=0.56
0.12899679156994193
% es.EZ (V/m) @ t=0.56
1.635756302431239
% es.tEX (V/m) @ t=0.56
0.5324663436497445
% es.tEY (V/m) @ t=0.56
0
% es.tEZ (V/m) @ t=0.56
1.6357563024312451
% es.Ex (V/m) @ t=0.56
0.5324663436497439
% es.Ey (V/m) @ t=0.56
0.12899679156994193
% es.Ez (V/m) @ t=0.56
1.635756302431239
% es.tEx (V/m) @ t=0.56
0.5324663436497445
% es.tEy (V/m) @ t=0.56
0
% es.tEz (V/m) @ t=0.56
1.6357563024312451
% V (V) @ t=0.56
0.008068595182788808
% es.normE (V/m) @ t=0.58
1.7418133536935487
% es.EX (V/m) @ t=0.58
0.5376316651548374
% es.EY (V/m) @ t=0.58
0.1302481870837121
% es.EZ (V/m) @ t=0.58
1.651624025604872
% es.tEX (V/m) @ t=0.58
0.5376316651548407
% es.tEY (V/m) @ t=0.58
0
% es.tEZ (V/m) @ t=0.58
1.6516240256048746
% es.Ex (V/m) @ t=0.58
0.5376316651548374
% es.Ey (V/m) @ t=0.58
0.1302481870837121
% es.Ez (V/m) @ t=0.58
1.651624025604872
% es.tEx (V/m) @ t=0.58
0.5376316651548407
% es.tEy (V/m) @ t=0.58
0
% es.tEz (V/m) @ t=0.58
1.6516240256048746
% V (V) @ t=0.58
0.008146847379600418
% es.normE (V/m) @ t=0.6
1.758547594205151
% es.EX (V/m) @ t=0.6
0.5427969866599285
% es.EY (V/m) @ t=0.6
0.13149958259752292
% es.EZ (V/m) @ t=0.6
1.6674917487784997
% es.tEX (V/m) @ t=0.6
0.5427969866599298
% es.tEY (V/m) @ t=0.6
0
% es.tEZ (V/m) @ t=0.6
1.6674917487785113
% es.Ex (V/m) @ t=0.6
0.5427969866599285
% es.Ey (V/m) @ t=0.6
0.13149958259752292
% es.Ez (V/m) @ t=0.6
1.6674917487784997
% es.tEx (V/m) @ t=0.6
0.5427969866599298
% es.tEy (V/m) @ t=0.6
0
% es.tEz (V/m) @ t=0.6
1.6674917487785113
% V (V) @ t=0.6
0.008225099576412025
% es.normE (V/m) @ t=0.62
1.7752818347167603
% es.EX (V/m) @ t=0.62
0.5479623081650113
% es.EY (V/m) @ t=0.62
0.13275097811129843
% es.EZ (V/m) @ t=0.62
1.6833594719521283
% es.tEX (V/m) @ t=0.62
0.5479623081650118
% es.tEY (V/m) @ t=0.62
0
% es.tEZ (V/m) @ t=0.62
1.6833594719521248
% es.Ex (V/m) @ t=0.62
0.5479623081650113
% es.Ey (V/m) @ t=0.62
0.13275097811129843
% es.Ez (V/m) @ t=0.62
1.6833594719521283
% es.tEx (V/m) @ t=0.62
0.5479623081650118
% es.tEy (V/m) @ t=0.62
0
% es.tEz (V/m) @ t=0.62
1.6833594719521248
% V (V) @ t=0.62
0.008303351773223633
% es.normE (V/m) @ t=0.64
1.7920160752283876
% es.EX (V/m) @ t=0.64
0.5531276296701082
% es.EY (V/m) @ t=0.64
0.13400237362510192
% es.EZ (V/m) @ t=0.64
1.699227195125757
% es.tEX (V/m) @ t=0.64
0.553127629670108
% es.tEY (V/m) @ t=0.64
0
% es.tEZ (V/m) @ t=0.64
1.6992271951257614
% es.Ex (V/m) @ t=0.64
0.5531276296701082
% es.Ey (V/m) @ t=0.64
0.13400237362510192
% es.Ez (V/m) @ t=0.64
1.699227195125757
% es.tEx (V/m) @ t=0.64
0.553127629670108
% es.tEy (V/m) @ t=0.64
0
% es.tEz (V/m) @ t=0.64
1.6992271951257614
% V (V) @ t=0.64
0.008381603970035243
% es.normE (V/m) @ t=0.66
1.8087503157400424
% es.EX (V/m) @ t=0.66
0.5582929511752056
% es.EY (V/m) @ t=0.66
0.13525376913889697
% es.EZ (V/m) @ t=0.66
1.7150949182994033
% es.tEX (V/m) @ t=0.66
0.5582929511752113
% es.tEY (V/m) @ t=0.66
0
% es.tEZ (V/m) @ t=0.66
1.715094918299405
% es.Ex (V/m) @ t=0.66
0.5582929511752056
% es.Ey (V/m) @ t=0.66
0.13525376913889697
% es.Ez (V/m) @ t=0.66
1.7150949182994033
% es.tEx (V/m) @ t=0.66
0.5582929511752113
% es.tEy (V/m) @ t=0.66
0
% es.tEz (V/m) @ t=0.66
1.715094918299405
% V (V) @ t=0.66
0.00845985616684685
% es.normE (V/m) @ t=0.68
1.8254845562516722
% es.EX (V/m) @ t=0.68
0.5634582726802897
% es.EY (V/m) @ t=0.68
0.13650516465268514
% es.EZ (V/m) @ t=0.68
1.7309626414730168
% es.tEX (V/m) @ t=0.68
0.5634582726802861
% es.tEY (V/m) @ t=0.68
0
% es.tEZ (V/m) @ t=0.68
1.7309626414730133
% es.Ex (V/m) @ t=0.68
0.5634582726802897
% es.Ey (V/m) @ t=0.68
0.13650516465268514
% es.Ez (V/m) @ t=0.68
1.7309626414730168
% es.tEx (V/m) @ t=0.68
0.5634582726802861
% es.tEy (V/m) @ t=0.68
0
% es.tEz (V/m) @ t=0.68
1.7309626414730133
% V (V) @ t=0.68
0.00853810836365846
% es.normE (V/m) @ t=0.7
1.8422187967633326
% es.EX (V/m) @ t=0.7
0.5686235941853763
% es.EY (V/m) @ t=0.7
0.13775656016644466
% es.EZ (V/m) @ t=0.7
1.746830364646653
% es.tEX (V/m) @ t=0.7
0.5686235941853823
% es.tEY (V/m) @ t=0.7
0
% es.tEZ (V/m) @ t=0.7
1.7468303646466463
% es.Ex (V/m) @ t=0.7
0.5686235941853763
% es.Ey (V/m) @ t=0.7
0.13775656016644466
% es.Ez (V/m) @ t=0.7
1.746830364646653
% es.tEx (V/m) @ t=0.7
0.5686235941853823
% es.tEy (V/m) @ t=0.7
0
% es.tEz (V/m) @ t=0.7
1.7468303646466463
% V (V) @ t=0.7
0.008616360560470068
% es.normE (V/m) @ t=0.72
1.8589530372749983
% es.EX (V/m) @ t=0.72
0.5737889156904693
% es.EY (V/m) @ t=0.72
0.13900795568026558
% es.EZ (V/m) @ t=0.72
1.7626980878202771
% es.tEX (V/m) @ t=0.72
0.5737889156904714
% es.tEY (V/m) @ t=0.72
0
% es.tEZ (V/m) @ t=0.72
1.762698087820283
% es.Ex (V/m) @ t=0.72
0.5737889156904693
% es.Ey (V/m) @ t=0.72
0.13900795568026558
% es.Ez (V/m) @ t=0.72
1.7626980878202771
% es.tEx (V/m) @ t=0.72
0.5737889156904714
% es.tEy (V/m) @ t=0.72
0
% es.tEz (V/m) @ t=0.72
1.762698087820283
% V (V) @ t=0.72
0.008694612757281676
% es.normE (V/m) @ t=0.74
1.875687277786674
% es.EX (V/m) @ t=0.74
0.578954237195561
% es.EY (V/m) @ t=0.74
0.14025935119403043
% es.EZ (V/m) @ t=0.74
1.7785658109939062
% es.tEX (V/m) @ t=0.74
0.5789542371955605
% es.tEY (V/m) @ t=0.74
0
% es.tEZ (V/m) @ t=0.74
1.7785658109939195
% es.Ex (V/m) @ t=0.74
0.578954237195561
% es.Ey (V/m) @ t=0.74
0.14025935119403043
% es.Ez (V/m) @ t=0.74
1.7785658109939062
% es.tEx (V/m) @ t=0.74
0.5789542371955605
% es.tEy (V/m) @ t=0.74
0
% es.tEz (V/m) @ t=0.74
1.7785658109939195
% V (V) @ t=0.74
0.008772864954093285
% es.normE (V/m) @ t=0.76
1.8924215182983768
% es.EX (V/m) @ t=0.76
0.5841195587006565
% es.EY (V/m) @ t=0.76
0.14151074670784503
% es.EZ (V/m) @ t=0.76
1.7944335341675486
% es.tEX (V/m) @ t=0.76
0.5841195587006567
% es.tEY (V/m) @ t=0.76
0
% es.tEZ (V/m) @ t=0.76
1.7944335341675473
% es.Ex (V/m) @ t=0.76
0.5841195587006565
% es.Ey (V/m) @ t=0.76
0.14151074670784503
% es.Ez (V/m) @ t=0.76
1.7944335341675486
% es.tEx (V/m) @ t=0.76
0.5841195587006567
% es.tEy (V/m) @ t=0.76
0
% es.tEz (V/m) @ t=0.76
1.7944335341675473
% V (V) @ t=0.76
0.008851117150904893
% es.normE (V/m) @ t=0.78
1.909155758810063
% es.EX (V/m) @ t=0.78
0.5892848802057444
% es.EY (V/m) @ t=0.78
0.14276214222160777
% es.EZ (V/m) @ t=0.78
1.8103012573411696
% es.tEX (V/m) @ t=0.78
0.5892848802057387
% es.tEY (V/m) @ t=0.78
0
% es.tEZ (V/m) @ t=0.78
1.8103012573411696
% es.Ex (V/m) @ t=0.78
0.5892848802057444
% es.Ey (V/m) @ t=0.78
0.14276214222160777
% es.Ez (V/m) @ t=0.78
1.8103012573411696
% es.tEx (V/m) @ t=0.78
0.5892848802057387
% es.tEy (V/m) @ t=0.78
0
% es.tEz (V/m) @ t=0.78
1.8103012573411696
% V (V) @ t=0.78
0.008929369347716501
% es.normE (V/m) @ t=0.8
1.9258899993217766
% es.EX (V/m) @ t=0.8
0.5944502017108362
% es.EY (V/m) @ t=0.8
0.1440135377354117
% es.EZ (V/m) @ t=0.8
1.8261689805148058
% es.tEX (V/m) @ t=0.8
0.594450201710842
% es.tEY (V/m) @ t=0.8
0
% es.tEZ (V/m) @ t=0.8
1.8261689805148063
% es.Ex (V/m) @ t=0.8
0.5944502017108362
% es.Ey (V/m) @ t=0.8
0.1440135377354117
% es.Ez (V/m) @ t=0.8
1.8261689805148058
% es.tEx (V/m) @ t=0.8
0.594450201710842
% es.tEy (V/m) @ t=0.8
0
% es.tEz (V/m) @ t=0.8
1.8261689805148063
% V (V) @ t=0.8
0.00900762154452811
% es.normE (V/m) @ t=0.82
1.9430741649764696
% es.EX (V/m) @ t=0.82
0.5997544006240895
% es.EY (V/m) @ t=0.82
0.14529857883852548
% es.EZ (V/m) @ t=0.82
1.8424633312193914
% es.tEX (V/m) @ t=0.82
0.5997544006240929
% es.tEY (V/m) @ t=0.82
0
% es.tEZ (V/m) @ t=0.82
1.8424633312193954
% es.Ex (V/m) @ t=0.82
0.5997544006240895
% es.Ey (V/m) @ t=0.82
0.14529857883852548
% es.Ez (V/m) @ t=0.82
1.8424633312193914
% es.tEx (V/m) @ t=0.82
0.5997544006240929
% es.tEy (V/m) @ t=0.82
0
% es.tEz (V/m) @ t=0.82
1.8424633312193954
% V (V) @ t=0.82
0.009087977665203898
% es.normE (V/m) @ t=0.84
1.9617807100823554
% es.EX (V/m) @ t=0.84
0.6055285090672567
% es.EY (V/m) @ t=0.84
0.14669746411028095
% es.EZ (V/m) @ t=0.84
1.8602012309155485
% es.tEX (V/m) @ t=0.84
0.6055285090672626
% es.tEY (V/m) @ t=0.84
0
% es.tEZ (V/m) @ t=0.84
1.8602012309155587
% es.Ex (V/m) @ t=0.84
0.6055285090672567
% es.Ey (V/m) @ t=0.84
0.14669746411028095
% es.Ez (V/m) @ t=0.84
1.8602012309155485
% es.tEx (V/m) @ t=0.84
0.6055285090672626
% es.tEy (V/m) @ t=0.84
0
% es.tEz (V/m) @ t=0.84
1.8602012309155587
% V (V) @ t=0.84
0.009175452682228377
% es.normE (V/m) @ t=0.86
1.9804872551882289
% es.EX (V/m) @ t=0.86
0.6113026175104114
% es.EY (V/m) @ t=0.86
0.1480963493820172
% es.EZ (V/m) @ t=0.86
1.8779391306116868
% es.tEX (V/m) @ t=0.86
0.611302617510411
% es.tEY (V/m) @ t=0.86
0
% es.tEZ (V/m) @ t=0.86
1.8779391306116935
% es.Ex (V/m) @ t=0.86
0.6113026175104114
% es.Ey (V/m) @ t=0.86
0.1480963493820172
% es.Ez (V/m) @ t=0.86
1.8779391306116868
% es.tEx (V/m) @ t=0.86
0.611302617510411
% es.tEy (V/m) @ t=0.86
0
% es.tEz (V/m) @ t=0.86
1.8779391306116935
% V (V) @ t=0.86
0.009262927699252856
% es.normE (V/m) @ t=0.88
1.9991938002941305
% es.EX (V/m) @ t=0.88
0.6170767259535734
% es.EY (V/m) @ t=0.88
0.14949523465374293
% es.EZ (V/m) @ t=0.88
1.8956770303078425
% es.tEX (V/m) @ t=0.88
0.6170767259535737
% es.tEY (V/m) @ t=0.88
0
% es.tEZ (V/m) @ t=0.88
1.895677030307846
% es.Ex (V/m) @ t=0.88
0.6170767259535734
% es.Ey (V/m) @ t=0.88
0.14949523465374293
% es.Ez (V/m) @ t=0.88
1.8956770303078425
% es.tEx (V/m) @ t=0.88
0.6170767259535737
% es.tEy (V/m) @ t=0.88
0
% es.tEz (V/m) @ t=0.88
1.895677030307846
% V (V) @ t=0.88
0.009350402716277333
% es.normE (V/m) @ t=0.9
2.0179003454000384
% es.EX (V/m) @ t=0.9
0.622850834396734
% es.EY (V/m) @ t=0.9
0.1508941199254984
% es.EZ (V/m) @ t=0.9
1.9134149300039929
% es.tEX (V/m) @ t=0.9
0.6228508343967292
% es.tEY (V/m) @ t=0.9
0
% es.tEZ (V/m) @ t=0.9
1.913414930003995
% es.Ex (V/m) @ t=0.9
0.622850834396734
% es.Ey (V/m) @ t=0.9
0.1508941199254984
% es.Ez (V/m) @ t=0.9
1.9134149300039929
% es.tEx (V/m) @ t=0.9
0.6228508343967292
% es.tEy (V/m) @ t=0.9
0
% es.tEz (V/m) @ t=0.9
1.913414930003995
% V (V) @ t=0.9
0.009437877733301814
% es.normE (V/m) @ t=0.92
2.036606890505957
% es.EX (V/m) @ t=0.92
0.6286249428398906
% es.EY (V/m) @ t=0.92
0.15229300519721478
% es.EZ (V/m) @ t=0.92
1.9311528297001486
% es.tEX (V/m) @ t=0.92
0.6286249428398989
% es.tEY (V/m) @ t=0.92
0
% es.tEZ (V/m) @ t=0.92
1.9311528297001512
% es.Ex (V/m) @ t=0.92
0.6286249428398906
% es.Ey (V/m) @ t=0.92
0.15229300519721478
% es.Ez (V/m) @ t=0.92
1.9311528297001486
% es.tEx (V/m) @ t=0.92
0.6286249428398989
% es.tEy (V/m) @ t=0.92
0
% es.tEz (V/m) @ t=0.92
1.9311528297001512
% V (V) @ t=0.92
0.009525352750326292
% es.normE (V/m) @ t=0.94
2.0553134356118763
% es.EX (V/m) @ t=0.94
0.6343990512830543
% es.EY (V/m) @ t=0.94
0.1536918904689547
% es.EZ (V/m) @ t=0.94
1.9488907293962905
% es.tEX (V/m) @ t=0.94
0.6343990512830615
% es.tEY (V/m) @ t=0.94
0
% es.tEZ (V/m) @ t=0.94
1.9488907293962896
% es.Ex (V/m) @ t=0.94
0.6343990512830543
% es.Ey (V/m) @ t=0.94
0.1536918904689547
% es.Ez (V/m) @ t=0.94
1.9488907293962905
% es.tEx (V/m) @ t=0.94
0.6343990512830615
% es.tEy (V/m) @ t=0.94
0
% es.tEz (V/m) @ t=0.94
1.9488907293962896
% V (V) @ t=0.94
0.00961282776735077
% es.normE (V/m) @ t=0.96
2.074019980717793
% es.EX (V/m) @ t=0.96
0.640173159726205
% es.EY (V/m) @ t=0.96
0.15509077574069075
% es.EZ (V/m) @ t=0.96
1.9666286290924249
% es.tEX (V/m) @ t=0.96
0.6401731597262028
% es.tEY (V/m) @ t=0.96
0
% es.tEZ (V/m) @ t=0.96
1.9666286290924369
% es.Ex (V/m) @ t=0.96
0.640173159726205
% es.Ey (V/m) @ t=0.96
0.15509077574069075
% es.Ez (V/m) @ t=0.96
1.9666286290924249
% es.tEx (V/m) @ t=0.96
0.6401731597262028
% es.tEy (V/m) @ t=0.96
0
% es.tEz (V/m) @ t=0.96
1.9666286290924369
% V (V) @ t=0.96
0.00970030278437525
% es.normE (V/m) @ t=0.98
2.0927265258237373
% es.EX (V/m) @ t=0.98
0.6459472681693669
% es.EY (V/m) @ t=0.98
0.15648966101242712
% es.EZ (V/m) @ t=0.98
1.9843665287885748
% es.tEX (V/m) @ t=0.98
0.6459472681693725
% es.tEY (V/m) @ t=0.98
0
% es.tEZ (V/m) @ t=0.98
1.9843665287885877
% es.Ex (V/m) @ t=0.98
0.6459472681693669
% es.Ey (V/m) @ t=0.98
0.15648966101242712
% es.Ez (V/m) @ t=0.98
1.9843665287885748
% es.tEx (V/m) @ t=0.98
0.6459472681693725
% es.tEy (V/m) @ t=0.98
0
% es.tEz (V/m) @ t=0.98
1.9843665287885877
% V (V) @ t=0.98
0.009787777801399729
% es.normE (V/m) @ t=1
2.111433070929695
% es.EX (V/m) @ t=1
0.6517213766125383
% es.EY (V/m) @ t=1
0.15788854628415772
% es.EZ (V/m) @ t=1
2.0021044284847274
% es.tEX (V/m) @ t=1
0.6517213766125352
% es.tEY (V/m) @ t=1
0
% es.tEZ (V/m) @ t=1
2.0021044284847296
% es.Ex (V/m) @ t=1
0.6517213766125383
% es.Ey (V/m) @ t=1
0.15788854628415772
% es.Ez (V/m) @ t=1
2.0021044284847274
% es.tEx (V/m) @ t=1
0.6517213766125352
% es.tEy (V/m) @ t=1
0
% es.tEz (V/m) @ t=1
2.0021044284847296
% V (V) @ t=1
0.009875252818424206
% es.normE (V/m) @ t=1.02
2.1301396160356507
% es.EX (V/m) @ t=1.02
0.657495485055691
% es.EY (V/m) @ t=1.02
0.15928743155587455
% es.EZ (V/m) @ t=1.02
2.0198423281808764
% es.tEX (V/m) @ t=1.02
0.6574954850556978
% es.tEY (V/m) @ t=1.02
0
% es.tEZ (V/m) @ t=1.02
2.019842328180882
% es.Ex (V/m) @ t=1.02
0.657495485055691
% es.Ey (V/m) @ t=1.02
0.15928743155587455
% es.Ez (V/m) @ t=1.02
2.0198423281808764
% es.tEx (V/m) @ t=1.02
0.6574954850556978
% es.tEy (V/m) @ t=1.02
0
% es.tEz (V/m) @ t=1.02
2.019842328180882
% V (V) @ t=1.02
0.009962727835448687
% es.normE (V/m) @ t=1.04
2.148846161141626
% es.EX (V/m) @ t=1.04
0.6632695934988496
% es.EY (V/m) @ t=1.04
0.16068631682762158
% es.EZ (V/m) @ t=1.04
2.037580227877033
% es.tEX (V/m) @ t=1.04
0.6632695934988533
% es.tEY (V/m) @ t=1.04
0
% es.tEZ (V/m) @ t=1.04
2.037580227877024
% es.Ex (V/m) @ t=1.04
0.6632695934988496
% es.Ey (V/m) @ t=1.04
0.16068631682762158
% es.Ez (V/m) @ t=1.04