% Model:              1 neuron.mph
% Version:            COMSOL 6.0.0.405
% Date:               Mar 16 2023, 10:11
% Dimension:          0
% Nodes:              14017
% Expressions:        14017
% Description:        Electric field norm, Electric field, X component, Electric field, Y component, Electric field, Z component, Tangential electric field, X component, Tangential electric field, Y component, Tangential electric field, Z component, Electric field, x component, Electric field, y component, Electric field, z component, Tangential electric field, x component, Tangential electric field, y component, Tangential electric field, z component, Electric potential
% Length unit:        mm
% x
2
% y
12.2
% z
1.6599999999999997
% es.normE (V/m) @ t=0
1.2536032639366201
% es.EX (V/m) @ t=0
-1.211312285605361
% es.EY (V/m) @ t=0
0.09331529078787987
% es.EZ (V/m) @ t=0
-0.30873068776419044
% es.tEX (V/m) @ t=0
-1.2113122856053646
% es.tEY (V/m) @ t=0
0
% es.tEZ (V/m) @ t=0
-0.3087306877642
% es.Ex (V/m) @ t=0
-1.211312285605361
% es.Ey (V/m) @ t=0
0.09331529078787987
% es.Ez (V/m) @ t=0
-0.30873068776419044
% es.tEx (V/m) @ t=0
-1.2113122856053646
% es.tEy (V/m) @ t=0
0
% es.tEz (V/m) @ t=0
-0.3087306877642
% V (V) @ t=0
0.007264889299251273
% es.normE (V/m) @ t=0.02
1.0827611942272188
% es.EX (V/m) @ t=0.02
-1.0462336603652842
% es.EY (V/m) @ t=0.02
0.08059821829703445
% es.EZ (V/m) @ t=0.02
-0.2666566328043496
% es.tEX (V/m) @ t=0.02
-1.0462336603652886
% es.tEY (V/m) @ t=0.02
0
% es.tEZ (V/m) @ t=0.02
-0.26665663280433893
% es.Ex (V/m) @ t=0.02
-1.0462336603652842
% es.Ey (V/m) @ t=0.02
0.08059821829703445
% es.Ez (V/m) @ t=0.02
-0.2666566328043496
% es.tEx (V/m) @ t=0.02
-1.0462336603652886
% es.tEy (V/m) @ t=0.02
0
% es.tEz (V/m) @ t=0.02
-0.26665663280433893
% V (V) @ t=0.02
0.006274823986551649
% es.normE (V/m) @ t=0.04
1.092720535042802
% es.EX (V/m) @ t=0.04
-1.05585701007046
% es.EY (V/m) @ t=0.04
0.08133958702593919
% es.EZ (V/m) @ t=0.04
-0.26910938893798253
% es.tEX (V/m) @ t=0.04
-1.0558570100704578
% es.tEY (V/m) @ t=0.04
0
% es.tEZ (V/m) @ t=0.04
-0.26910938893798164
% es.Ex (V/m) @ t=0.04
-1.05585701007046
% es.Ey (V/m) @ t=0.04
0.08133958702593919
% es.Ez (V/m) @ t=0.04
-0.26910938893798253
% es.tEx (V/m) @ t=0.04
-1.0558570100704578
% es.tEy (V/m) @ t=0.04
0
% es.tEz (V/m) @ t=0.04
-0.26910938893798164
% V (V) @ t=0.04
0.006332539899990512
% es.normE (V/m) @ t=0.06
1.1027693930208549
% es.EX (V/m) @ t=0.06
-1.0655668682233808
% es.EY (V/m) @ t=0.06
0.08208759088451112
% es.EZ (V/m) @ t=0.06
-0.27158415597268304
% es.tEX (V/m) @ t=0.06
-1.0655668682233888
% es.tEY (V/m) @ t=0.06
0
% es.tEZ (V/m) @ t=0.06
-0.27158415597267993
% es.Ex (V/m) @ t=0.06
-1.0655668682233808
% es.Ey (V/m) @ t=0.06
0.08208759088451112
% es.Ez (V/m) @ t=0.06
-0.27158415597268304
% es.tEx (V/m) @ t=0.06
-1.0655668682233888
% es.tEy (V/m) @ t=0.06
0
% es.tEz (V/m) @ t=0.06
-0.27158415597267993
% V (V) @ t=0.06
0.006390775368445258
% es.normE (V/m) @ t=0.08
1.112972337051871
% es.EX (V/m) @ t=0.08
-1.0754256165695222
% es.EY (V/m) @ t=0.08
0.08284705869562353
% es.EZ (V/m) @ t=0.08
-0.27409686327297345
% es.tEX (V/m) @ t=0.08
-1.0754256165695235
% es.tEY (V/m) @ t=0.08
0
% es.tEZ (V/m) @ t=0.08
-0.2740968632729759
% es.Ex (V/m) @ t=0.08
-1.0754256165695222
% es.Ey (V/m) @ t=0.08
0.08284705869562353
% es.Ez (V/m) @ t=0.08
-0.27409686327297345
% es.tEx (V/m) @ t=0.08
-1.0754256165695235
% es.tEy (V/m) @ t=0.08
0
% es.tEz (V/m) @ t=0.08
-0.2740968632729759
% V (V) @ t=0.08
0.006449903959732467
% es.normE (V/m) @ t=0.1
1.1232809397477101
% es.EX (V/m) @ t=0.1
-1.0853864607167925
% es.EY (V/m) @ t=0.1
0.08361438747726879
% es.EZ (V/m) @ t=0.1
-0.2766355866709622
% es.tEX (V/m) @ t=0.1
-1.0853864607168031
% es.tEY (V/m) @ t=0.1
0
% es.tEZ (V/m) @ t=0.1
-0.27663558667096755
% es.Ex (V/m) @ t=0.1
-1.0853864607167925
% es.Ey (V/m) @ t=0.1
0.08361438747726879
% es.Ez (V/m) @ t=0.1
-0.2766355866709622
% es.tEx (V/m) @ t=0.1
-1.0853864607168031
% es.tEy (V/m) @ t=0.1
0
% es.tEz (V/m) @ t=0.1
-0.27663558667096755
% V (V) @ t=0.1
0.006509644976117241
% es.normE (V/m) @ t=0.12
1.1335895424435691
% es.EX (V/m) @ t=0.12
-1.095347304864085
% es.EY (V/m) @ t=0.12
0.08438171625891222
% es.EZ (V/m) @ t=0.12
-0.27917431006894167
% es.tEX (V/m) @ t=0.12
-1.0953473048640774
% es.tEY (V/m) @ t=0.12
0
% es.tEZ (V/m) @ t=0.12
-0.2791743100689441
% es.Ex (V/m) @ t=0.12
-1.095347304864085
% es.Ey (V/m) @ t=0.12
0.08438171625891222
% es.Ez (V/m) @ t=0.12
-0.27917431006894167
% es.tEx (V/m) @ t=0.12
-1.0953473048640774
% es.tEy (V/m) @ t=0.12
0
% es.tEz (V/m) @ t=0.12
-0.2791743100689441
% V (V) @ t=0.12
0.0065693859925020125
% es.normE (V/m) @ t=0.14
1.1440060823011882
% es.EX (V/m) @ t=0.14
-1.1054124475963163
% es.EY (V/m) @ t=0.14
0.0851570726949421
% es.EZ (V/m) @ t=0.14
-0.28173960710521784
% es.tEX (V/m) @ t=0.14
-1.1054124475963114
% es.tEY (V/m) @ t=0.14
0
% es.tEZ (V/m) @ t=0.14
-0.2817396071052283
% es.Ex (V/m) @ t=0.14
-1.1054124475963163
% es.Ey (V/m) @ t=0.14
0.0851570726949421
% es.Ez (V/m) @ t=0.14
-0.28173960710521784
% es.tEx (V/m) @ t=0.14
-1.1054124475963114
% es.tEy (V/m) @ t=0.14
0
% es.tEz (V/m) @ t=0.14
-0.2817396071052283
% V (V) @ t=0.14
0.006629752719041708
% es.normE (V/m) @ t=0.16
1.1548642803212694
% es.EX (V/m) @ t=0.16
-1.115904360132563
% es.EY (V/m) @ t=0.16
0.08596527675302457
% es.EZ (V/m) @ t=0.16
-0.2844136383723177
% es.tEX (V/m) @ t=0.16
-1.1159043601325678
% es.tEY (V/m) @ t=0.16
0
% es.tEZ (V/m) @ t=0.16
-0.28441363837232636
% es.Ex (V/m) @ t=0.16
-1.115904360132563
% es.Ey (V/m) @ t=0.16
0.08596527675302457
% es.Ez (V/m) @ t=0.16
-0.2844136383723177
% es.tEx (V/m) @ t=0.16
-1.1159043601325678
% es.tEy (V/m) @ t=0.16
0
% es.tEz (V/m) @ t=0.16
-0.28441363837232636
% V (V) @ t=0.16
0.0066926797315180675
% es.normE (V/m) @ t=0.18
1.165722478341374
% es.EX (V/m) @ t=0.18
-1.1263962726688237
% es.EY (V/m) @ t=0.18
0.08677348081109815
% es.EZ (V/m) @ t=0.18
-0.2870876696394311
% es.tEX (V/m) @ t=0.18
-1.1263962726688224
% es.tEY (V/m) @ t=0.18
0
% es.tEZ (V/m) @ t=0.18
-0.28708766963944043
% es.Ex (V/m) @ t=0.18
-1.1263962726688237
% es.Ey (V/m) @ t=0.18
0.08677348081109815
% es.Ez (V/m) @ t=0.18
-0.2870876696394311
% es.tEx (V/m) @ t=0.18
-1.1263962726688224
% es.tEy (V/m) @ t=0.18
0
% es.tEz (V/m) @ t=0.18
-0.28708766963944043
% V (V) @ t=0.18
0.006755606743994428
% es.normE (V/m) @ t=0.2
1.1765806763614892
% es.EX (V/m) @ t=0.2
-1.1368881852050854
% es.EY (V/m) @ t=0.2
0.08758168486919832
% es.EZ (V/m) @ t=0.2
-0.28976170090654785
% es.tEX (V/m) @ t=0.2
-1.136888185205084
% es.tEY (V/m) @ t=0.2
0
% es.tEZ (V/m) @ t=0.2
-0.28976170090655806
% es.Ex (V/m) @ t=0.2
-1.1368881852050854
% es.Ey (V/m) @ t=0.2
0.08758168486919832
% es.Ez (V/m) @ t=0.2
-0.28976170090654785
% es.tEx (V/m) @ t=0.2
-1.136888185205084
% es.tEy (V/m) @ t=0.2
0
% es.tEz (V/m) @ t=0.2
-0.28976170090655806
% V (V) @ t=0.2
0.006818533756470787
% es.normE (V/m) @ t=0.22
1.1874388743815891
% es.EX (V/m) @ t=0.22
-1.147380097741331
% es.EY (V/m) @ t=0.22
0.0883898889272684
% es.EZ (V/m) @ t=0.22
-0.2924357321736486
% es.tEX (V/m) @ t=0.22
-1.1473800977413458
% es.tEY (V/m) @ t=0.22
0
% es.tEZ (V/m) @ t=0.22
-0.2924357321736579
% es.Ex (V/m) @ t=0.22
-1.147380097741331
% es.Ey (V/m) @ t=0.22
0.0883898889272684
% es.Ez (V/m) @ t=0.22
-0.2924357321736486
% es.tEx (V/m) @ t=0.22
-1.1473800977413458
% es.tEy (V/m) @ t=0.22
0
% es.tEz (V/m) @ t=0.22
-0.2924357321736579
% V (V) @ t=0.22
0.006881460768947147
% es.normE (V/m) @ t=0.24
1.1982970724017248
% es.EX (V/m) @ t=0.24
-1.1578720102776034
% es.EY (V/m) @ t=0.24
0.08919809298534548
% es.EZ (V/m) @ t=0.24
-0.295109763440762
% es.tEX (V/m) @ t=0.24
-1.157872010277604
% es.tEY (V/m) @ t=0.24
0
% es.tEZ (V/m) @ t=0.24
-0.2951097634407702
% es.Ex (V/m) @ t=0.24
-1.1578720102776034
% es.Ey (V/m) @ t=0.24
0.08919809298534548
% es.Ez (V/m) @ t=0.24
-0.295109763440762
% es.tEx (V/m) @ t=0.24
-1.157872010277604
% es.tEy (V/m) @ t=0.24
0
% es.tEz (V/m) @ t=0.24
-0.2951097634407702
% V (V) @ t=0.24
0.006944387781423507
% es.normE (V/m) @ t=0.26
1.20915527042186
% es.EX (V/m) @ t=0.26
-1.1683639228138682
% es.EY (V/m) @ t=0.26
0.09000629704343954
% es.EZ (V/m) @ t=0.26
-0.2977837947078714
% es.tEX (V/m) @ t=0.26
-1.1683639228138656
% es.tEY (V/m) @ t=0.26
0
% es.tEZ (V/m) @ t=0.26
-0.29778379470787364
% es.Ex (V/m) @ t=0.26
-1.1683639228138682
% es.Ey (V/m) @ t=0.26
0.09000629704343954
% es.Ez (V/m) @ t=0.26
-0.2977837947078714
% es.tEx (V/m) @ t=0.26
-1.1683639228138656
% es.tEy (V/m) @ t=0.26
0
% es.tEz (V/m) @ t=0.26
-0.29778379470787364
% V (V) @ t=0.26
0.007007314793899868
% es.normE (V/m) @ t=0.28
1.2205117282583247
% es.EX (V/m) @ t=0.28
-1.1793374829565213
% es.EY (V/m) @ t=0.28
0.09085109204616615
% es.EZ (V/m) @ t=0.28
-0.3005799209440987
% es.tEX (V/m) @ t=0.28
-1.1793374829565249
% es.tEY (V/m) @ t=0.28
0
% es.tEZ (V/m) @ t=0.28
-0.3005799209440987
% es.Ex (V/m) @ t=0.28
-1.1793374829565213
% es.Ey (V/m) @ t=0.28
0.09085109204616615
% es.Ez (V/m) @ t=0.28
-0.3005799209440987
% es.tEx (V/m) @ t=0.28
-1.1793374829565249
% es.tEy (V/m) @ t=0.28
0
% es.tEz (V/m) @ t=0.28
-0.3005799209440987
% V (V) @ t=0.28
0.0070731431155564425
% es.normE (V/m) @ t=0.3
1.2326071029698484
% es.EX (V/m) @ t=0.3
-1.191025324145465
% es.EY (V/m) @ t=0.3
0.09175015124101815
% es.EZ (V/m) @ t=0.3
-0.30355711342281144
% es.tEX (V/m) @ t=0.3
-1.1910253241454658
% es.tEY (V/m) @ t=0.3
0
% es.tEZ (V/m) @ t=0.3
-0.30355711342281566
% es.Ex (V/m) @ t=0.3
-1.191025324145465
% es.Ey (V/m) @ t=0.3
0.09175015124101815
% es.Ez (V/m) @ t=0.3
-0.30355711342281144
% es.tEx (V/m) @ t=0.3
-1.1910253241454658
% es.tEy (V/m) @ t=0.3
0
% es.tEz (V/m) @ t=0.3
-0.30355711342281566
% V (V) @ t=0.3
0.007143274064547367
% es.normE (V/m) @ t=0.32
1.244702477684989
% es.EX (V/m) @ t=0.32
-1.2027131653343837
% es.EY (V/m) @ t=0.32
0.0926492104358595
% es.EZ (V/m) @ t=0.32
-0.3065343059015251
% es.tEX (V/m) @ t=0.32
-1.2027131653343872
% es.tEY (V/m) @ t=0.32
0
% es.tEZ (V/m) @ t=0.32
-0.30653430590152553
% es.Ex (V/m) @ t=0.32
-1.2027131653343837
% es.Ey (V/m) @ t=0.32
0.0926492104358595
% es.Ez (V/m) @ t=0.32
-0.3065343059015251
% es.tEx (V/m) @ t=0.32
-1.2027131653343872
% es.tEy (V/m) @ t=0.32
0
% es.tEz (V/m) @ t=0.32
-0.30653430590152553
% V (V) @ t=0.32
0.007213405013538294
% es.normE (V/m) @ t=0.34
1.2567978524036745
% es.EX (V/m) @ t=0.34
-1.214401006523306
% es.EY (V/m) @ t=0.34
0.09354826963072038
% es.EZ (V/m) @ t=0.34
-0.3095114983802496
% es.tEX (V/m) @ t=0.34
-1.2144010065233086
% es.tEY (V/m) @ t=0.34
0
% es.tEZ (V/m) @ t=0.34
-0.3095114983802514
% es.Ex (V/m) @ t=0.34
-1.214401006523306
% es.Ey (V/m) @ t=0.34
0.09354826963072038
% es.Ez (V/m) @ t=0.34
-0.3095114983802496
% es.tEx (V/m) @ t=0.34
-1.2144010065233086
% es.tEy (V/m) @ t=0.34
0
% es.tEz (V/m) @ t=0.34
-0.3095114983802514
% V (V) @ t=0.34
0.007283535962529219
% es.normE (V/m) @ t=0.36
1.268893227125802
% es.EX (V/m) @ t=0.36
-1.2260888477122416
% es.EY (V/m) @ t=0.36
0.0944473288255599
% es.EZ (V/m) @ t=0.36
-0.3124886908589566
% es.tEX (V/m) @ t=0.36
-1.2260888477122371
% es.tEY (V/m) @ t=0.36
0
% es.tEZ (V/m) @ t=0.36
-0.3124886908589559
% es.Ex (V/m) @ t=0.36
-1.2260888477122416
% es.Ey (V/m) @ t=0.36
0.0944473288255599
% es.Ez (V/m) @ t=0.36
-0.3124886908589566
% es.tEx (V/m) @ t=0.36
-1.2260888477122371
% es.tEy (V/m) @ t=0.36
0
% es.tEz (V/m) @ t=0.36
-0.3124886908589559
% V (V) @ t=0.36
0.007353666911520146
% es.normE (V/m) @ t=0.38
1.280988601851248
% es.EX (V/m) @ t=0.38
-1.2377766889011523
% es.EY (V/m) @ t=0.38
0.09534638802040923
% es.EZ (V/m) @ t=0.38
-0.31546588333767556
% es.tEX (V/m) @ t=0.38
-1.2377766889011568
% es.tEY (V/m) @ t=0.38
0
% es.tEZ (V/m) @ t=0.38
-0.3154658833376711
% es.Ex (V/m) @ t=0.38
-1.2377766889011523
% es.Ey (V/m) @ t=0.38
0.09534638802040923
% es.Ez (V/m) @ t=0.38
-0.31546588333767556
% es.tEx (V/m) @ t=0.38
-1.2377766889011568
% es.tEy (V/m) @ t=0.38
0
% es.tEz (V/m) @ t=0.38
-0.3154658833376711
% V (V) @ t=0.38
0.007423797860511068
% es.normE (V/m) @ t=0.4
1.2930839765799478
% es.EX (V/m) @ t=0.4
-1.2494645300900755
% es.EY (V/m) @ t=0.4
0.09624544721524703
% es.EZ (V/m) @ t=0.4
-0.3184430758163892
% es.tEX (V/m) @ t=0.4
-1.249464530090071
% es.tEY (V/m) @ t=0.4
0
% es.tEZ (V/m) @ t=0.4
-0.31844307581637743
% es.Ex (V/m) @ t=0.4
-1.2494645300900755
% es.Ey (V/m) @ t=0.4
0.09624544721524703
% es.Ez (V/m) @ t=0.4
-0.3184430758163892
% es.tEx (V/m) @ t=0.4
-1.249464530090071
% es.tEy (V/m) @ t=0.4
0
% es.tEz (V/m) @ t=0.4
-0.31844307581637743
% V (V) @ t=0.4
0.007493928809501996
% es.normE (V/m) @ t=0.42
1.3051793513118266
% es.EX (V/m) @ t=0.42
-1.2611523712790236
% es.EY (V/m) @ t=0.42
0.09714450641009897
% es.EZ (V/m) @ t=0.42
-0.3214202682950995
% es.tEX (V/m) @ t=0.42
-1.261152371279021
% es.tEY (V/m) @ t=0.42
0
% es.tEZ (V/m) @ t=0.42
-0.32142026829509796
% es.Ex (V/m) @ t=0.42
-1.2611523712790236
% es.Ey (V/m) @ t=0.42
0.09714450641009897
% es.Ez (V/m) @ t=0.42
-0.3214202682950995
% es.tEx (V/m) @ t=0.42
-1.261152371279021
% es.tEy (V/m) @ t=0.42
0
% es.tEz (V/m) @ t=0.42
-0.32142026829509796
% V (V) @ t=0.42
0.007564059758492921
% es.normE (V/m) @ t=0.44
1.3172747260467377
% es.EX (V/m) @ t=0.44
-1.2728402124679352
% es.EY (V/m) @ t=0.44
0.0980435656049457
% es.EZ (V/m) @ t=0.44
-0.32439746077381115
% es.tEX (V/m) @ t=0.44
-1.2728402124679352
% es.tEY (V/m) @ t=0.44
0
% es.tEZ (V/m) @ t=0.44
-0.32439746077381315
% es.Ex (V/m) @ t=0.44
-1.2728402124679352
% es.Ey (V/m) @ t=0.44
0.0980435656049457
% es.Ez (V/m) @ t=0.44
-0.32439746077381115
% es.tEx (V/m) @ t=0.44
-1.2728402124679352
% es.tEy (V/m) @ t=0.44
0
% es.tEz (V/m) @ t=0.44
-0.32439746077381315
% V (V) @ t=0.44
0.007634190707483847
% es.normE (V/m) @ t=0.46
1.32937010078465
% es.EX (V/m) @ t=0.46
-1.284528053656862
% es.EY (V/m) @ t=0.46
0.09894262479978966
% es.EZ (V/m) @ t=0.46
-0.3273746532525357
% es.tEX (V/m) @ t=0.46
-1.2845280536568708
% es.tEY (V/m) @ t=0.46
0
% es.tEZ (V/m) @ t=0.46
-0.32737465325253545
% es.Ex (V/m) @ t=0.46
-1.284528053656862
% es.Ey (V/m) @ t=0.46
0.09894262479978966
% es.Ez (V/m) @ t=0.46
-0.3273746532525357
% es.tEx (V/m) @ t=0.46
-1.2845280536568708
% es.tEy (V/m) @ t=0.46
0
% es.tEz (V/m) @ t=0.46
-0.32737465325253545
% V (V) @ t=0.46
0.007704321656474771
% es.normE (V/m) @ t=0.48
1.3414654755254505
% es.EX (V/m) @ t=0.48
-1.2962158948457798
% es.EY (V/m) @ t=0.48
0.09984168399464172
% es.EZ (V/m) @ t=0.48
-0.33035184573123244
% es.tEX (V/m) @ t=0.48
-1.2962158948457763
% es.tEY (V/m) @ t=0.48
0
% es.tEZ (V/m) @ t=0.48
-0.33035184573123466
% es.Ex (V/m) @ t=0.48
-1.2962158948457798
% es.Ey (V/m) @ t=0.48
0.09984168399464172
% es.Ez (V/m) @ t=0.48
-0.33035184573123244
% es.tEx (V/m) @ t=0.48
-1.2962158948457763
% es.tEy (V/m) @ t=0.48
0
% es.tEz (V/m) @ t=0.48
-0.33035184573123466
% V (V) @ t=0.48
0.007774452605465698
% es.normE (V/m) @ t=0.5
1.3535608502690941
% es.EX (V/m) @ t=0.5
-1.30790373603471
% es.EY (V/m) @ t=0.5
0.10074074318948123
% es.EZ (V/m) @ t=0.5
-0.33332903820995785
% es.tEX (V/m) @ t=0.5
-1.3079037360347119
% es.tEY (V/m) @ t=0.5
0
% es.tEZ (V/m) @ t=0.5
-0.33332903820995696
% es.Ex (V/m) @ t=0.5
-1.30790373603471
% es.Ey (V/m) @ t=0.5
0.10074074318948123
% es.Ez (V/m) @ t=0.5
-0.33332903820995785
% es.tEx (V/m) @ t=0.5
-1.3079037360347119
% es.tEy (V/m) @ t=0.5
0
% es.tEz (V/m) @ t=0.5
-0.33332903820995696
% V (V) @ t=0.5
0.007844583554456622
% es.normE (V/m) @ t=0.52
1.3656562250154922
% es.EX (V/m) @ t=0.52
-1.3195915772236448
% es.EY (V/m) @ t=0.52
0.10163980238431986
% es.EZ (V/m) @ t=0.52
-0.3363062306886815
% es.tEX (V/m) @ t=0.52
-1.3195915772236475
% es.tEY (V/m) @ t=0.52
0
% es.tEZ (V/m) @ t=0.52
-0.3363062306886757
% es.Ex (V/m) @ t=0.52
-1.3195915772236448
% es.Ey (V/m) @ t=0.52
0.10163980238431986
% es.Ez (V/m) @ t=0.52
-0.3363062306886815
% es.tEx (V/m) @ t=0.52
-1.3195915772236475
% es.tEy (V/m) @ t=0.52
0
% es.tEz (V/m) @ t=0.52
-0.3363062306886757
% V (V) @ t=0.52
0.007914714503447549
% es.normE (V/m) @ t=0.54
1.3777515997645433
% es.EX (V/m) @ t=0.54
-1.331279418412561
% es.EY (V/m) @ t=0.54
0.10253886157916026
% es.EZ (V/m) @ t=0.54
-0.3392834231673785
% es.tEX (V/m) @ t=0.54
-1.3312794184125547
% es.tEY (V/m) @ t=0.54
0
% es.tEZ (V/m) @ t=0.54
-0.3392834231673749
% es.Ex (V/m) @ t=0.54
-1.331279418412561
% es.Ey (V/m) @ t=0.54
0.10253886157916026
% es.Ez (V/m) @ t=0.54
-0.3392834231673785
% es.tEx (V/m) @ t=0.54
-1.3312794184125547
% es.tEy (V/m) @ t=0.54
0
% es.tEz (V/m) @ t=0.54
-0.3392834231673749
% V (V) @ t=0.54
0.007984845452438475
% es.normE (V/m) @ t=0.56
1.390987758848315
% es.EX (V/m) @ t=0.56
-1.3440689189021366
% es.EY (V/m) @ t=0.56
0.10352445847622255
% es.EZ (V/m) @ t=0.56
-0.34254355781246715
% es.tEX (V/m) @ t=0.56
-1.3440689189021402
% es.tEY (V/m) @ t=0.56
0
% es.tEZ (V/m) @ t=0.56
-0.3425435578124638
% es.Ex (V/m) @ t=0.56
-1.3440689189021366
% es.Ey (V/m) @ t=0.56
0.10352445847622255
% es.Ez (V/m) @ t=0.56
-0.34254355781246715
% es.tEx (V/m) @ t=0.56
-1.3440689189021402
% es.tEy (V/m) @ t=0.56
0
% es.tEz (V/m) @ t=0.56
-0.3425435578124638
% V (V) @ t=0.56
0.008061542636884935
% es.normE (V/m) @ t=0.58
1.4044821300455934
% es.EX (V/m) @ t=0.58
-1.3571077757044083
% es.EY (V/m) @ t=0.58
0.10452964284673927
% es.EZ (V/m) @ t=0.58
-0.34586773532024195
% es.tEX (V/m) @ t=0.58
-1.357107775704396
% es.tEY (V/m) @ t=0.58
0
% es.tEZ (V/m) @ t=0.58
-0.34586773532024395
% es.Ex (V/m) @ t=0.58
-1.3571077757044083
% es.Ey (V/m) @ t=0.58
0.10452964284673927
% es.Ez (V/m) @ t=0.58
-0.34586773532024195
% es.tEx (V/m) @ t=0.58
-1.357107775704396
% es.tEy (V/m) @ t=0.58
0
% es.tEz (V/m) @ t=0.58
-0.34586773532024395
% V (V) @ t=0.58
0.008139726063276141
% es.normE (V/m) @ t=0.6
1.4179765012443108
% es.EX (V/m) @ t=0.6
-1.3701466325066667
% es.EY (V/m) @ t=0.6
0.10553482721725777
% es.EZ (V/m) @ t=0.6
-0.3491919128280221
% es.tEX (V/m) @ t=0.6
-1.3701466325066658
% es.tEY (V/m) @ t=0.6
0
% es.tEZ (V/m) @ t=0.6
-0.34919191282801876
% es.Ex (V/m) @ t=0.6
-1.3701466325066667
% es.Ey (V/m) @ t=0.6
0.10553482721725777
% es.Ez (V/m) @ t=0.6
-0.3491919128280221
% es.tEx (V/m) @ t=0.6
-1.3701466325066658
% es.tEy (V/m) @ t=0.6
0
% es.tEz (V/m) @ t=0.6
-0.34919191282801876
% V (V) @ t=0.6
0.008217909489667347
% es.normE (V/m) @ t=0.62
1.4314708724444483
% es.EX (V/m) @ t=0.62
-1.3831854893089393
% es.EY (V/m) @ t=0.62
0.10654001158776744
% es.EZ (V/m) @ t=0.62
-0.3525160903357911
% es.tEX (V/m) @ t=0.62
-1.3831854893089393
% es.tEY (V/m) @ t=0.62
0
% es.tEZ (V/m) @ t=0.62
-0.3525160903357971
% es.Ex (V/m) @ t=0.62
-1.3831854893089393
% es.Ey (V/m) @ t=0.62
0.10654001158776744
% es.Ez (V/m) @ t=0.62
-0.3525160903357911
% es.tEx (V/m) @ t=0.62
-1.3831854893089393
% es.tEy (V/m) @ t=0.62
0
% es.tEz (V/m) @ t=0.62
-0.3525160903357971
% V (V) @ t=0.62
0.008296092916058553
% es.normE (V/m) @ t=0.64
1.4449652436459295
% es.EX (V/m) @ t=0.64
-1.3962243461111816
% es.EY (V/m) @ t=0.64
0.10754519595829665
% es.EZ (V/m) @ t=0.64
-0.35584026784356815
% es.tEX (V/m) @ t=0.64
-1.3962243461111878
% es.tEY (V/m) @ t=0.64
0
% es.tEZ (V/m) @ t=0.64
-0.3558402678435719
% es.Ex (V/m) @ t=0.64
-1.3962243461111816
% es.Ey (V/m) @ t=0.64
0.10754519595829665
% es.Ez (V/m) @ t=0.64
-0.35584026784356815
% es.tEx (V/m) @ t=0.64
-1.3962243461111878
% es.tEy (V/m) @ t=0.64
0
% es.tEz (V/m) @ t=0.64
-0.3558402678435719
% V (V) @ t=0.64
0.00837427634244976
% es.normE (V/m) @ t=0.66
1.4584596148487738
% es.EX (V/m) @ t=0.66
-1.4092632029134533
% es.EY (V/m) @ t=0.66
0.10855038032882319
% es.EZ (V/m) @ t=0.66
-0.35916444535135583
% es.tEX (V/m) @ t=0.66
-1.4092632029134577
% es.tEY (V/m) @ t=0.66
0
% es.tEZ (V/m) @ t=0.66
-0.35916444535135206
% es.Ex (V/m) @ t=0.66
-1.4092632029134533
% es.Ey (V/m) @ t=0.66
0.10855038032882319
% es.Ez (V/m) @ t=0.66
-0.35916444535135583
% es.tEx (V/m) @ t=0.66
-1.4092632029134577
% es.tEy (V/m) @ t=0.66
0
% es.tEz (V/m) @ t=0.66
-0.35916444535135206
% V (V) @ t=0.66
0.008452459768840966
% es.normE (V/m) @ t=0.68
1.471953986052894
% es.EX (V/m) @ t=0.68
-1.4223020597157126
% es.EY (V/m) @ t=0.68
0.10955556469932837
% es.EZ (V/m) @ t=0.68
-0.36248862285912087
% es.tEX (V/m) @ t=0.68
-1.4223020597157134
% es.tEY (V/m) @ t=0.68
0
% es.tEZ (V/m) @ t=0.68
-0.362488622859118
% es.Ex (V/m) @ t=0.68
-1.4223020597157126
% es.Ey (V/m) @ t=0.68
0.10955556469932837
% es.Ez (V/m) @ t=0.68
-0.36248862285912087
% es.tEx (V/m) @ t=0.68
-1.4223020597157134
% es.tEy (V/m) @ t=0.68
0
% es.tEz (V/m) @ t=0.68
-0.362488622859118
% V (V) @ t=0.68
0.008530643195232172
% es.normE (V/m) @ t=0.7
1.485448357258273
% es.EX (V/m) @ t=0.7
-1.4353409165179656
% es.EY (V/m) @ t=0.7
0.11056074906986646
% es.EZ (V/m) @ t=0.7
-0.3658128003668961
% es.tEX (V/m) @ t=0.7
-1.4353409165179638
% es.tEY (V/m) @ t=0.7
0
% es.tEZ (V/m) @ t=0.7
-0.36581280036689634
% es.Ex (V/m) @ t=0.7
-1.4353409165179656
% es.Ey (V/m) @ t=0.7
0.11056074906986646
% es.Ez (V/m) @ t=0.7
-0.3658128003668961
% es.tEx (V/m) @ t=0.7
-1.4353409165179638
% es.tEy (V/m) @ t=0.7
0
% es.tEz (V/m) @ t=0.7
-0.36581280036689634
% V (V) @ t=0.7
0.008608826621623378
% es.normE (V/m) @ t=0.72
1.4989427284648875
% es.EX (V/m) @ t=0.72
-1.4483797733202337
% es.EY (V/m) @ t=0.72
0.11156593344036897
% es.EZ (V/m) @ t=0.72
-0.36913697787466293
% es.tEX (V/m) @ t=0.72
-1.4483797733202337
% es.tEY (V/m) @ t=0.72
0
% es.tEZ (V/m) @ t=0.72
-0.36913697787465516
% es.Ex (V/m) @ t=0.72
-1.4483797733202337
% es.Ey (V/m) @ t=0.72
0.11156593344036897
% es.Ez (V/m) @ t=0.72
-0.36913697787466293
% es.tEx (V/m) @ t=0.72
-1.4483797733202337
% es.tEy (V/m) @ t=0.72
0
% es.tEz (V/m) @ t=0.72
-0.36913697787465516
% V (V) @ t=0.72
0.008687010048014584
% es.normE (V/m) @ t=0.74
1.5124370996727001
% es.EX (V/m) @ t=0.74
-1.4614186301225018
% es.EY (V/m) @ t=0.74
0.1125711178109044
% es.EZ (V/m) @ t=0.74
-0.3724611553824382
% es.tEX (V/m) @ t=0.74
-1.4614186301225107
% es.tEY (V/m) @ t=0.74
0
% es.tEZ (V/m) @ t=0.74
-0.3724611553824406
% es.Ex (V/m) @ t=0.74
-1.4614186301225018
% es.Ey (V/m) @ t=0.74
0.1125711178109044
% es.Ez (V/m) @ t=0.74
-0.3724611553824382
% es.tEx (V/m) @ t=0.74
-1.4614186301225107
% es.tEy (V/m) @ t=0.74
0
% es.tEz (V/m) @ t=0.74
-0.3724611553824406
% V (V) @ t=0.74
0.00876519347440579
% es.normE (V/m) @ t=0.76
1.5259314708816576
% es.EX (V/m) @ t=0.76
-1.4744574869247522
% es.EY (V/m) @ t=0.76
0.11357630218144155
% es.EZ (V/m) @ t=0.76
-0.37578533289021654
% es.tEX (V/m) @ t=0.76
-1.4744574869247593
% es.tEY (V/m) @ t=0.76
0
% es.tEZ (V/m) @ t=0.76
-0.37578533289021365
% es.Ex (V/m) @ t=0.76
-1.4744574869247522
% es.Ey (V/m) @ t=0.76
0.11357630218144155
% es.Ez (V/m) @ t=0.76
-0.37578533289021654
% es.tEx (V/m) @ t=0.76
-1.4744574869247593
% es.tEy (V/m) @ t=0.76
0
% es.tEz (V/m) @ t=0.76
-0.37578533289021365
% V (V) @ t=0.76
0.008843376900796996
% es.normE (V/m) @ t=0.78
1.539425842091776
% es.EX (V/m) @ t=0.78
-1.487496343727039
% es.EY (V/m) @ t=0.78
0.11458148655194855
% es.EZ (V/m) @ t=0.78
-0.3791095103979818
% es.tEX (V/m) @ t=0.78
-1.4874963437270328
% es.tEY (V/m) @ t=0.78
0
% es.tEZ (V/m) @ t=0.78
-0.37910951039798313
% es.Ex (V/m) @ t=0.78
-1.487496343727039
% es.Ey (V/m) @ t=0.78
0.11458148655194855
% es.Ez (V/m) @ t=0.78
-0.3791095103979818
% es.tEx (V/m) @ t=0.78
-1.4874963437270328
% es.tEy (V/m) @ t=0.78
0
% es.tEz (V/m) @ t=0.78
-0.37910951039798313
% V (V) @ t=0.78
0.008921560327188202
% es.normE (V/m) @ t=0.8
1.5529202133029874
% es.EX (V/m) @ t=0.8
-1.5005352005293116
% es.EY (V/m) @ t=0.8
0.11558667092246794
% es.EZ (V/m) @ t=0.8
-0.3824336879057664
% es.tEX (V/m) @ t=0.8
-1.5005352005293027
% es.tEY (V/m) @ t=0.8
0
% es.tEZ (V/m) @ t=0.8
-0.38243368790577037
% es.Ex (V/m) @ t=0.8
-1.5005352005293116
% es.Ey (V/m) @ t=0.8
0.11558667092246794
% es.Ez (V/m) @ t=0.8
-0.3824336879057664
% es.tEx (V/m) @ t=0.8
-1.5005352005293027
% es.tEy (V/m) @ t=0.8
0
% es.tEz (V/m) @ t=0.8
-0.38243368790577037
% V (V) @ t=0.8
0.00899974375357941
% es.normE (V/m) @ t=0.82
1.5667774015339142
% es.EX (V/m) @ t=0.82
-1.5139246270320772
% es.EY (V/m) @ t=0.82
0.11661888155293909
% es.EZ (V/m) @ t=0.82
-0.3858472413856875
% es.tEX (V/m) @ t=0.82
-1.5139246270320754
% es.tEY (V/m) @ t=0.82
0
% es.tEZ (V/m) @ t=0.82
-0.3858472413856866
% es.Ex (V/m) @ t=0.82
-1.5139246270320772
% es.Ey (V/m) @ t=0.82
0.11661888155293909
% es.Ez (V/m) @ t=0.82
-0.3858472413856875
% es.tEx (V/m) @ t=0.82
-1.5139246270320754
% es.tEy (V/m) @ t=0.82
0
% es.tEz (V/m) @ t=0.82
-0.3858472413856866
% V (V) @ t=0.82
0.009080029254701378
% es.normE (V/m) @ t=0.84
1.5818622277017236
% es.EX (V/m) @ t=0.84
-1.5285002510980892
% es.EY (V/m) @ t=0.84
0.11774253900176873
% es.EZ (V/m) @ t=0.84
-0.38956320993521887
% es.tEX (V/m) @ t=0.84
-1.528500251098075
% es.tEY (V/m) @ t=0.84
0
% es.tEZ (V/m) @ t=0.84
-0.3895632099352202
% es.Ex (V/m) @ t=0.84
-1.5285002510980892
% es.Ey (V/m) @ t=0.84
0.11774253900176873
% es.Ez (V/m) @ t=0.84
-0.38956320993521887
% es.tEx (V/m) @ t=0.84
-1.528500251098075
% es.tEy (V/m) @ t=0.84
0
% es.tEz (V/m) @ t=0.84
-0.3895632099352202
% V (V) @ t=0.84
0.009167427395391859
% es.normE (V/m) @ t=0.86
1.5969470538708048
% es.EX (V/m) @ t=0.86
-1.5430758751641092
% es.EY (V/m) @ t=0.86
0.11886619645054763
% es.EZ (V/m) @ t=0.86
-0.39327917848473337
% es.tEX (V/m) @ t=0.86
-1.5430758751641172
% es.tEY (V/m) @ t=0.86
0
% es.tEZ (V/m) @ t=0.86
-0.39327917848472715
% es.Ex (V/m) @ t=0.86
-1.5430758751641092
% es.Ey (V/m) @ t=0.86
0.11886619645054763
% es.Ez (V/m) @ t=0.86
-0.39327917848473337
% es.tEx (V/m) @ t=0.86
-1.5430758751641172
% es.tEy (V/m) @ t=0.86
0
% es.tEz (V/m) @ t=0.86
-0.39327917848472715
% V (V) @ t=0.86
0.00925482553608234
% es.normE (V/m) @ t=0.88
1.612031880041135
% es.EX (V/m) @ t=0.88
-1.5576514992301362
% es.EY (V/m) @ t=0.88
0.11998985389937372
% es.EZ (V/m) @ t=0.88
-0.39699514703425676
% es.tEX (V/m) @ t=0.88
-1.5576514992301291
% es.tEY (V/m) @ t=0.88
0
% es.tEZ (V/m) @ t=0.88
-0.3969951470342554
% es.Ex (V/m) @ t=0.88
-1.5576514992301362
% es.Ey (V/m) @ t=0.88
0.11998985389937372
% es.Ez (V/m) @ t=0.88
-0.39699514703425676
% es.tEx (V/m) @ t=0.88
-1.5576514992301291
% es.tEy (V/m) @ t=0.88
0
% es.tEz (V/m) @ t=0.88
-0.3969951470342554
% V (V) @ t=0.88
0.009342223676772819
% es.normE (V/m) @ t=0.9
1.627116706212655
% es.EX (V/m) @ t=0.9
-1.5722271232961527
% es.EY (V/m) @ t=0.9
0.12111351134815973
% es.EZ (V/m) @ t=0.9
-0.4007111155837819
% es.tEX (V/m) @ t=0.9
-1.572227123296157
% es.tEY (V/m) @ t=0.9
0
% es.tEZ (V/m) @ t=0.9
-0.4007111155837837
% es.Ex (V/m) @ t=0.9
-1.5722271232961527
% es.Ey (V/m) @ t=0.9
0.12111351134815973
% es.Ez (V/m) @ t=0.9
-0.4007111155837819
% es.tEx (V/m) @ t=0.9
-1.572227123296157
% es.tEy (V/m) @ t=0.9
0
% es.tEz (V/m) @ t=0.9
-0.4007111155837837
% V (V) @ t=0.9
0.009429621817463298
% es.normE (V/m) @ t=0.92
1.6422015323853496
% es.EX (V/m) @ t=0.92
-1.5868027473621753
% es.EY (V/m) @ t=0.92
0.12223716879695645
% es.EZ (V/m) @ t=0.92
-0.40442708413330264
% es.tEX (V/m) @ t=0.92
-1.5868027473621602
% es.tEY (V/m) @ t=0.92
0
% es.tEZ (V/m) @ t=0.92
-0.40442708413329953
% es.Ex (V/m) @ t=0.92
-1.5868027473621753
% es.Ey (V/m) @ t=0.92
0.12223716879695645
% es.Ez (V/m) @ t=0.92
-0.40442708413330264
% es.tEx (V/m) @ t=0.92
-1.5868027473621602
% es.tEy (V/m) @ t=0.92
0
% es.tEz (V/m) @ t=0.92
-0.40442708413329953
% V (V) @ t=0.92
0.009517019958153778
% es.normE (V/m) @ t=0.94
1.6572863585591586
% es.EX (V/m) @ t=0.94
-1.6013783714281704
% es.EY (V/m) @ t=0.94
0.12336082624575762
% es.EZ (V/m) @ t=0.94
-0.40814305268283846
% es.tEX (V/m) @ t=0.94
-1.601378371428181
% es.tEY (V/m) @ t=0.94
0
% es.tEZ (V/m) @ t=0.94
-0.4081430526828349
% es.Ex (V/m) @ t=0.94
-1.6013783714281704
% es.Ey (V/m) @ t=0.94
0.12336082624575762
% es.Ez (V/m) @ t=0.94
-0.40814305268283846
% es.tEx (V/m) @ t=0.94
-1.601378371428181
% es.tEy (V/m) @ t=0.94
0
% es.tEz (V/m) @ t=0.94
-0.4081430526828349
% V (V) @ t=0.94
0.00960441809884426
% es.normE (V/m) @ t=0.96
1.6723711847341192
% es.EX (V/m) @ t=0.96
-1.6159539954942197
% es.EY (V/m) @ t=0.96
0.12448448369454457
% es.EZ (V/m) @ t=0.96
-0.4118590212323485
% es.tEX (V/m) @ t=0.96
-1.6159539954942357
% es.tEY (V/m) @ t=0.96
0
% es.tEZ (V/m) @ t=0.96
-0.41185902123234897
% es.Ex (V/m) @ t=0.96
-1.6159539954942197
% es.Ey (V/m) @ t=0.96
0.12448448369454457
% es.Ez (V/m) @ t=0.96
-0.4118590212323485
% es.tEx (V/m) @ t=0.96
-1.6159539954942357
% es.tEy (V/m) @ t=0.96
0
% es.tEz (V/m) @ t=0.96
-0.41185902123234897
% V (V) @ t=0.96
0.009691816239534738
% es.normE (V/m) @ t=0.98
1.687456010910132
% es.EX (V/m) @ t=0.98
-1.6305296195602388
% es.EY (V/m) @ t=0.98
0.12560814114335994
% es.EZ (V/m) @ t=0.98
-0.4155749897818679
% es.tEX (V/m) @ t=0.98
-1.6305296195602423
% es.tEY (V/m) @ t=0.98
0
% es.tEZ (V/m) @ t=0.98
-0.41557498978187546
% es.Ex (V/m) @ t=0.98
-1.6305296195602388
% es.Ey (V/m) @ t=0.98
0.12560814114335994
% es.Ez (V/m) @ t=0.98
-0.4155749897818679
% es.tEx (V/m) @ t=0.98
-1.6305296195602423
% es.tEy (V/m) @ t=0.98
0
% es.tEz (V/m) @ t=0.98
-0.41557498978187546
% V (V) @ t=0.98
0.009779214380225219
% es.normE (V/m) @ t=1
1.7025408370871862
% es.EX (V/m) @ t=1
-1.645105243626249
% es.EY (V/m) @ t=1
0.1267317985921531
% es.EZ (V/m) @ t=1
-0.4192909583314042
% es.tEX (V/m) @ t=1
-1.645105243626256
% es.tEY (V/m) @ t=1
0
% es.tEZ (V/m) @ t=1
-0.41929095833141083
% es.Ex (V/m) @ t=1
-1.645105243626249
% es.Ey (V/m) @ t=1
0.1267317985921531
% es.Ez (V/m) @ t=1
-0.4192909583314042
% es.tEx (V/m) @ t=1
-1.645105243626256
% es.tEy (V/m) @ t=1
0
% es.tEz (V/m) @ t=1
-0.41929095833141083
% V (V) @ t=1
0.009866612520915698
% es.normE (V/m) @ t=1.02
1.7176256632652653
% es.EX (V/m) @ t=1.02
-1.659680867692269
% es.EY (V/m) @ t=1.02
0.12785545604095427
% es.EZ (V/m) @ t=1.02
-0.4230069268809151
% es.tEX (V/m) @ t=1.02
-1.6596808676922823
% es.tEY (V/m) @ t=1.02
0
% es.tEZ (V/m) @ t=1.02
-0.4230069268809178
% es.Ex (V/m) @ t=1.02
-1.659680867692269
% es.Ey (V/m) @ t=1.02
0.12785545604095427
% es.Ez (V/m) @ t=1.02
-0.4230069268809151
% es.tEx (V/m) @ t=1.02