% Model:              1 neuron.mph
% Version:            COMSOL 6.0.0.405
% Date:               Mar 16 2023, 10:14
% Dimension:          0
% Nodes:              14017
% Expressions:        14017
% Description:        Electric field norm, Electric field, X component, Electric field, Y component, Electric field, Z component, Tangential electric field, X component, Tangential electric field, Y component, Tangential electric field, Z component, Electric field, x component, Electric field, y component, Electric field, z component, Tangential electric field, x component, Tangential electric field, y component, Tangential electric field, z component, Electric potential
% Length unit:        mm
% x
1
% y
12.2
% z
1.6599999999999997
% es.normE (V/m) @ t=0
1.635377764099918
% es.EX (V/m) @ t=0
1.4640056986274343
% es.EY (V/m) @ t=0
0.05632815048583989
% es.EZ (V/m) @ t=0
-0.7266187784301321
% es.tEX (V/m) @ t=0
1.4640056986274326
% es.tEY (V/m) @ t=0
0
% es.tEZ (V/m) @ t=0
-0.7266187784301223
% es.Ex (V/m) @ t=0
1.4640056986274343
% es.Ey (V/m) @ t=0
0.05632815048583989
% es.Ez (V/m) @ t=0
-0.7266187784301321
% es.tEx (V/m) @ t=0
1.4640056986274326
% es.tEy (V/m) @ t=0
0
% es.tEz (V/m) @ t=0
-0.7266187784301223
% V (V) @ t=0
0.00741969612136976
% es.normE (V/m) @ t=0.02
1.412508620334732
% es.EX (V/m) @ t=0.02
1.2644911271561554
% es.EY (V/m) @ t=0.02
0.04865175750226472
% es.EZ (V/m) @ t=0.02
-0.6275952290311919
% es.tEX (V/m) @ t=0.02
1.2644911271561519
% es.tEY (V/m) @ t=0.02
0
% es.tEZ (V/m) @ t=0.02
-0.627595229031197
% es.Ex (V/m) @ t=0.02
1.2644911271561554
% es.Ey (V/m) @ t=0.02
0.04865175750226472
% es.Ez (V/m) @ t=0.02
-0.6275952290311919
% es.tEx (V/m) @ t=0.02
1.2644911271561519
% es.tEy (V/m) @ t=0.02
0
% es.tEz (V/m) @ t=0.02
-0.627595229031197
% V (V) @ t=0.02
0.006408540444201306
% es.normE (V/m) @ t=0.04
1.425502527233102
% es.EX (V/m) @ t=0.04
1.276123396087229
% es.EY (V/m) @ t=0.04
0.049099313642924775
% es.EZ (V/m) @ t=0.04
-0.6333685839680288
% es.tEX (V/m) @ t=0.04
1.2761233960872298
% es.tEY (V/m) @ t=0.04
0
% es.tEZ (V/m) @ t=0.04
-0.6333685839680214
% es.Ex (V/m) @ t=0.04
1.276123396087229
% es.Ey (V/m) @ t=0.04
0.049099313642924775
% es.Ez (V/m) @ t=0.04
-0.6333685839680288
% es.tEx (V/m) @ t=0.04
1.2761233960872298
% es.tEy (V/m) @ t=0.04
0
% es.tEz (V/m) @ t=0.04
-0.6333685839680214
% V (V) @ t=0.04
0.006467493685296866
% es.normE (V/m) @ t=0.06
1.4386130951816132
% es.EX (V/m) @ t=0.06
1.2878600997479945
% es.EY (V/m) @ t=0.06
0.04955088552180173
% es.EZ (V/m) @ t=0.06
-0.6391937757793666
% es.tEX (V/m) @ t=0.06
1.2878600997479959
% es.tEY (V/m) @ t=0.06
0
% es.tEZ (V/m) @ t=0.06
-0.6391937757793578
% es.Ex (V/m) @ t=0.06
1.2878600997479945
% es.Ey (V/m) @ t=0.06
0.04955088552180173
% es.Ez (V/m) @ t=0.06
-0.6391937757793666
% es.tEx (V/m) @ t=0.06
1.2878600997479959
% es.tEy (V/m) @ t=0.06
0
% es.tEz (V/m) @ t=0.06
-0.6391937757793578
% V (V) @ t=0.06
0.0065269763181863985
% es.normE (V/m) @ t=0.08
1.4519248411819272
% es.EX (V/m) @ t=0.08
1.2997769156847838
% es.EY (V/m) @ t=0.08
0.05000941339499912
% es.EZ (V/m) @ t=0.08
-0.6451083196575859
% es.tEX (V/m) @ t=0.08
1.2997769156847854
% es.tEY (V/m) @ t=0.08
0
% es.tEZ (V/m) @ t=0.08
-0.6451083196575773
% es.Ex (V/m) @ t=0.08
1.2997769156847838
% es.Ey (V/m) @ t=0.08
0.05000941339499912
% es.Ez (V/m) @ t=0.08
-0.6451083196575859
% es.tEx (V/m) @ t=0.08
1.2997769156847854
% es.tEy (V/m) @ t=0.08
0
% es.tEz (V/m) @ t=0.08
-0.6451083196575773
% V (V) @ t=0.08
0.006587370556199769
% es.normE (V/m) @ t=0.1
1.4653740604319287
% es.EX (V/m) @ t=0.1
1.3118168097589358
% es.EY (V/m) @ t=0.1
0.050472694585648153
% es.EZ (V/m) @ t=0.1
-0.6510839214836668
% es.tEX (V/m) @ t=0.1
1.3118168097589327
% es.tEY (V/m) @ t=0.1
0
% es.tEZ (V/m) @ t=0.1
-0.6510839214836572
% es.Ex (V/m) @ t=0.1
1.3118168097589358
% es.Ey (V/m) @ t=0.1
0.050472694585648153
% es.Ez (V/m) @ t=0.1
-0.6510839214836668
% es.tEx (V/m) @ t=0.1
1.3118168097589327
% es.tEy (V/m) @ t=0.1
0
% es.tEz (V/m) @ t=0.1
-0.6510839214836572
% V (V) @ t=0.1
0.006648387731544932
% es.normE (V/m) @ t=0.12
1.4788232796819476
% es.EX (V/m) @ t=0.12
1.323856703833091
% es.EY (V/m) @ t=0.12
0.05093597577630962
% es.EZ (V/m) @ t=0.12
-0.6570595233097708
% es.tEX (V/m) @ t=0.12
1.3238567038330933
% es.tEY (V/m) @ t=0.12
0
% es.tEZ (V/m) @ t=0.12
-0.6570595233097656
% es.Ex (V/m) @ t=0.12
1.323856703833091
% es.Ey (V/m) @ t=0.12
0.05093597577630962
% es.Ez (V/m) @ t=0.12
-0.6570595233097708
% es.tEx (V/m) @ t=0.12
1.3238567038330933
% es.tEy (V/m) @ t=0.12
0
% es.tEz (V/m) @ t=0.12
-0.6570595233097656
% V (V) @ t=0.12
0.006709404906890095
% es.normE (V/m) @ t=0.14
1.4924145055061457
% es.EX (V/m) @ t=0.14
1.3360237160410926
% es.EY (V/m) @ t=0.14
0.05140413547030118
% es.EZ (V/m) @ t=0.14
-0.6630982365271094
% es.tEX (V/m) @ t=0.14
1.3360237160410873
% es.tEY (V/m) @ t=0.14
0
% es.tEZ (V/m) @ t=0.14
-0.6630982365271016
% es.Ex (V/m) @ t=0.14
1.3360237160410926
% es.Ey (V/m) @ t=0.14
0.05140413547030118
% es.Ez (V/m) @ t=0.14
-0.6630982365271094
% es.tEx (V/m) @ t=0.14
1.3360237160410873
% es.tEy (V/m) @ t=0.14
0
% es.tEz (V/m) @ t=0.14
-0.6630982365271016
% V (V) @ t=0.14
0.006771066906058994
% es.normE (V/m) @ t=0.16
1.5065807034769447
% es.EX (V/m) @ t=0.16
1.348705418408406
% es.EY (V/m) @ t=0.16
0.05189204779580556
% es.EZ (V/m) @ t=0.16
-0.6693924822246218
% es.tEX (V/m) @ t=0.16
1.3487054184084095
% es.tEY (V/m) @ t=0.16
0
% es.tEZ (V/m) @ t=0.16
-0.669392482224616
% es.Ex (V/m) @ t=0.16
1.348705418408406
% es.Ey (V/m) @ t=0.16
0.05189204779580556
% es.Ez (V/m) @ t=0.16
-0.6693924822246218
% es.tEx (V/m) @ t=0.16
1.3487054184084095
% es.tEy (V/m) @ t=0.16
0
% es.tEz (V/m) @ t=0.16
-0.669392482224616
% V (V) @ t=0.16
0.00683533974025612
% es.normE (V/m) @ t=0.18
1.5207469014477462
% es.EX (V/m) @ t=0.18
1.3613871207757227
% es.EY (V/m) @ t=0.18
0.05237996012129442
% es.EZ (V/m) @ t=0.18
-0.6756867279221322
% es.tEX (V/m) @ t=0.18
1.3613871207757202
% es.tEY (V/m) @ t=0.18
0
% es.tEZ (V/m) @ t=0.18
-0.6756867279221304
% es.Ex (V/m) @ t=0.18
1.3613871207757227
% es.Ey (V/m) @ t=0.18
0.05237996012129442
% es.Ez (V/m) @ t=0.18
-0.6756867279221322
% es.tEx (V/m) @ t=0.18
1.3613871207757202
% es.tEy (V/m) @ t=0.18
0
% es.tEz (V/m) @ t=0.18
-0.6756867279221304
% V (V) @ t=0.18
0.006899612574453245
% es.normE (V/m) @ t=0.2
1.5349130994185525
% es.EX (V/m) @ t=0.2
1.3740688231430416
% es.EY (V/m) @ t=0.2
0.05286787244678687
% es.EZ (V/m) @ t=0.2
-0.6819809736196464
% es.tEX (V/m) @ t=0.2
1.3740688231430345
% es.tEY (V/m) @ t=0.2
0
% es.tEZ (V/m) @ t=0.2
-0.6819809736196376
% es.Ex (V/m) @ t=0.2
1.3740688231430416
% es.Ey (V/m) @ t=0.2
0.05286787244678687
% es.Ez (V/m) @ t=0.2
-0.6819809736196464
% es.tEx (V/m) @ t=0.2
1.3740688231430345
% es.tEy (V/m) @ t=0.2
0
% es.tEz (V/m) @ t=0.2
-0.6819809736196376
% V (V) @ t=0.2
0.00696388540865037
% es.normE (V/m) @ t=0.22
1.5490792973893641
% es.EX (V/m) @ t=0.22
1.386750525510362
% es.EY (V/m) @ t=0.22
0.05335578477229924
% es.EZ (V/m) @ t=0.22
-0.6882752193171657
% es.tEX (V/m) @ t=0.22
1.3867505255103598
% es.tEY (V/m) @ t=0.22
0
% es.tEZ (V/m) @ t=0.22
-0.6882752193171626
% es.Ex (V/m) @ t=0.22
1.386750525510362
% es.Ey (V/m) @ t=0.22
0.05335578477229924
% es.Ez (V/m) @ t=0.22
-0.6882752193171657
% es.tEx (V/m) @ t=0.22
1.3867505255103598
% es.tEy (V/m) @ t=0.22
0
% es.tEz (V/m) @ t=0.22
-0.6882752193171626
% V (V) @ t=0.22
0.007028158242847494
% es.normE (V/m) @ t=0.24
1.5632454953601744
% es.EX (V/m) @ t=0.24
1.399432227877682
% es.EY (V/m) @ t=0.24
0.053843697097794324
% es.EZ (V/m) @ t=0.24
-0.6945694650146816
% es.tEX (V/m) @ t=0.24
1.3994322278776816
% es.tEY (V/m) @ t=0.24
0
% es.tEZ (V/m) @ t=0.24
-0.694569465014677
% es.Ex (V/m) @ t=0.24
1.399432227877682
% es.Ey (V/m) @ t=0.24
0.053843697097794324
% es.Ez (V/m) @ t=0.24
-0.6945694650146816
% es.tEx (V/m) @ t=0.24
1.3994322278776816
% es.tEy (V/m) @ t=0.24
0
% es.tEz (V/m) @ t=0.24
-0.694569465014677
% V (V) @ t=0.24
0.00709243107704462
% es.normE (V/m) @ t=0.26
1.5774116933309819
% es.EX (V/m) @ t=0.26
1.412113930244999
% es.EY (V/m) @ t=0.26
0.054331609423294264
% es.EZ (V/m) @ t=0.26
-0.7008637107121958
% es.tEX (V/m) @ t=0.26
1.4121139302449954
% es.tEY (V/m) @ t=0.26
0
% es.tEZ (V/m) @ t=0.26
-0.7008637107121913
% es.Ex (V/m) @ t=0.26
1.412113930244999
% es.Ey (V/m) @ t=0.26
0.054331609423294264
% es.Ez (V/m) @ t=0.26
-0.7008637107121958
% es.tEx (V/m) @ t=0.26
1.4121139302449954
% es.tEy (V/m) @ t=0.26
0
% es.tEz (V/m) @ t=0.26
-0.7008637107121913
% V (V) @ t=0.26
0.007156703911241746
% es.normE (V/m) @ t=0.28
1.5922331455787275
% es.EX (V/m) @ t=0.28
1.4253819114007187
% es.EY (V/m) @ t=0.28
0.05484155593328982
% es.EZ (V/m) @ t=0.28
-0.7074497623294453
% es.tEX (V/m) @ t=0.28
1.425381911400712
% es.tEY (V/m) @ t=0.28
0
% es.tEZ (V/m) @ t=0.28
-0.7074497623294356
% es.Ex (V/m) @ t=0.28
1.4253819114007187
% es.Ey (V/m) @ t=0.28
0.05484155593328982
% es.Ez (V/m) @ t=0.28
-0.7074497623294453
% es.tEx (V/m) @ t=0.28
1.425381911400712
% es.tEy (V/m) @ t=0.28
0
% es.tEz (V/m) @ t=0.28
-0.7074497623294356
% V (V) @ t=0.28
0.007223972214950456
% es.normE (V/m) @ t=0.3
1.6080129756933756
% es.EX (V/m) @ t=0.3
1.4395073865599741
% es.EY (V/m) @ t=0.3
0.05538372974101205
% es.EZ (V/m) @ t=0.3
-0.714462610602681
% es.tEX (V/m) @ t=0.3
1.4395073865599768
% es.tEY (V/m) @ t=0.3
0
% es.tEZ (V/m) @ t=0.3
-0.714462610602677
% es.Ex (V/m) @ t=0.3
1.4395073865599741
% es.Ey (V/m) @ t=0.3
0.05538372974101205
% es.Ez (V/m) @ t=0.3
-0.714462610602681
% es.tEx (V/m) @ t=0.3
1.4395073865599768
% es.tEy (V/m) @ t=0.3
0
% es.tEz (V/m) @ t=0.3
-0.714462610602677
% V (V) @ t=0.3
0.00729562170589431
% es.normE (V/m) @ t=0.32
1.6237928058112967
% es.EX (V/m) @ t=0.32
1.4536328617192402
% es.EY (V/m) @ t=0.32
0.05592590354876578
% es.EZ (V/m) @ t=0.32
-0.7214754588759185
% es.tEX (V/m) @ t=0.32
1.453632861719238
% es.tEY (V/m) @ t=0.32
0
% es.tEZ (V/m) @ t=0.32
-0.7214754588759149
% es.Ex (V/m) @ t=0.32
1.4536328617192402
% es.Ey (V/m) @ t=0.32
0.05592590354876578
% es.Ez (V/m) @ t=0.32
-0.7214754588759185
% es.tEx (V/m) @ t=0.32
1.453632861719238
% es.tEy (V/m) @ t=0.32
0
% es.tEz (V/m) @ t=0.32
-0.7214754588759149
% V (V) @ t=0.32
0.007367271196838166
% es.normE (V/m) @ t=0.34
1.639572635932372
% es.EX (V/m) @ t=0.34
1.4677583368784957
% es.EY (V/m) @ t=0.34
0.05646807735649331
% es.EZ (V/m) @ t=0.34
-0.7284883071491488
% es.tEX (V/m) @ t=0.34
1.4677583368784957
% es.tEY (V/m) @ t=0.34
0
% es.tEZ (V/m) @ t=0.34
-0.7284883071491457
% es.Ex (V/m) @ t=0.34
1.4677583368784957
% es.Ey (V/m) @ t=0.34
0.05646807735649331
% es.Ez (V/m) @ t=0.34
-0.7284883071491488
% es.tEx (V/m) @ t=0.34
1.4677583368784957
% es.tEy (V/m) @ t=0.34
0
% es.tEz (V/m) @ t=0.34
-0.7284883071491457
% V (V) @ t=0.34
0.007438920687782022
% es.normE (V/m) @ t=0.36
1.6553524660565375
% es.EX (V/m) @ t=0.36
1.481883812037762
% es.EY (V/m) @ t=0.36
0.0570102511642262
% es.EZ (V/m) @ t=0.36
-0.735501155422388
% es.tEX (V/m) @ t=0.36
1.4818838120377595
% es.tEY (V/m) @ t=0.36
0
% es.tEZ (V/m) @ t=0.36
-0.7355011554223907
% es.Ex (V/m) @ t=0.36
1.481883812037762
% es.Ey (V/m) @ t=0.36
0.0570102511642262
% es.Ez (V/m) @ t=0.36
-0.735501155422388
% es.tEx (V/m) @ t=0.36
1.4818838120377595
% es.tEy (V/m) @ t=0.36
0
% es.tEz (V/m) @ t=0.36
-0.7355011554223907
% V (V) @ t=0.36
0.007510570178725877
% es.normE (V/m) @ t=0.38
1.6711322961836856
% es.EX (V/m) @ t=0.38
1.4960092871970228
% es.EY (V/m) @ t=0.38
0.05755242497195859
% es.EZ (V/m) @ t=0.38
-0.7425140036956219
% es.tEX (V/m) @ t=0.38
1.4960092871970172
% es.tEY (V/m) @ t=0.38
0
% es.tEZ (V/m) @ t=0.38
-0.7425140036956215
% es.Ex (V/m) @ t=0.38
1.4960092871970228
% es.Ey (V/m) @ t=0.38
0.05755242497195859
% es.Ez (V/m) @ t=0.38
-0.7425140036956219
% es.tEx (V/m) @ t=0.38
1.4960092871970172
% es.tEy (V/m) @ t=0.38
0
% es.tEz (V/m) @ t=0.38
-0.7425140036956215
% V (V) @ t=0.38
0.007582219669669733
% es.normE (V/m) @ t=0.4
1.6869121263137337
% es.EX (V/m) @ t=0.4
1.5101347623562762
% es.EY (V/m) @ t=0.4
0.05809459877969106
% es.EZ (V/m) @ t=0.4
-0.7495268519688577
% es.tEX (V/m) @ t=0.4
1.510134762356274
% es.tEY (V/m) @ t=0.4
0
% es.tEZ (V/m) @ t=0.4
-0.7495268519688558
% es.Ex (V/m) @ t=0.4
1.5101347623562762
% es.Ey (V/m) @ t=0.4
0.05809459877969106
% es.Ez (V/m) @ t=0.4
-0.7495268519688577
% es.tEx (V/m) @ t=0.4
1.510134762356274
% es.tEy (V/m) @ t=0.4
0
% es.tEz (V/m) @ t=0.4
-0.7495268519688558
% V (V) @ t=0.4
0.007653869160613589
% es.normE (V/m) @ t=0.42
1.7026919564466079
% es.EX (V/m) @ t=0.42
1.5242602375155299
% es.EY (V/m) @ t=0.42
0.05863677258742078
% es.EZ (V/m) @ t=0.42
-0.7565397002420952
% es.tEX (V/m) @ t=0.42
1.524260237515528
% es.tEY (V/m) @ t=0.42
0
% es.tEZ (V/m) @ t=0.42
-0.7565397002420902
% es.Ex (V/m) @ t=0.42
1.5242602375155299
% es.Ey (V/m) @ t=0.42
0.05863677258742078
% es.Ez (V/m) @ t=0.42
-0.7565397002420952
% es.tEx (V/m) @ t=0.42
1.524260237515528
% es.tEy (V/m) @ t=0.42
0
% es.tEz (V/m) @ t=0.42
-0.7565397002420902
% V (V) @ t=0.42
0.007725518651557444
% es.normE (V/m) @ t=0.44
1.7184717865822416
% es.EX (V/m) @ t=0.44
1.5383857126747977
% es.EY (V/m) @ t=0.44
0.059178946395163856
% es.EZ (V/m) @ t=0.44
-0.7635525485153308
% es.tEX (V/m) @ t=0.44
1.5383857126747964
% es.tEY (V/m) @ t=0.44
0
% es.tEZ (V/m) @ t=0.44
-0.7635525485153281
% es.Ex (V/m) @ t=0.44
1.5383857126747977
% es.Ey (V/m) @ t=0.44
0.059178946395163856
% es.Ez (V/m) @ t=0.44
-0.7635525485153308
% es.tEx (V/m) @ t=0.44
1.5383857126747964
% es.tEy (V/m) @ t=0.44
0
% es.tEz (V/m) @ t=0.44
-0.7635525485153281
% V (V) @ t=0.44
0.0077971681425013
% es.normE (V/m) @ t=0.46
1.7342516167205355
% es.EX (V/m) @ t=0.46
1.5525111878340527
% es.EY (V/m) @ t=0.46
0.05972112020288786
% es.EZ (V/m) @ t=0.46
-0.7705653967885665
% es.tEX (V/m) @ t=0.46
1.5525111878340532
% es.tEY (V/m) @ t=0.46
0
% es.tEZ (V/m) @ t=0.46
-0.7705653967885588
% es.Ex (V/m) @ t=0.46
1.5525111878340527
% es.Ey (V/m) @ t=0.46
0.05972112020288786
% es.Ez (V/m) @ t=0.46
-0.7705653967885665
% es.tEx (V/m) @ t=0.46
1.5525111878340532
% es.tEy (V/m) @ t=0.46
0
% es.tEz (V/m) @ t=0.46
-0.7705653967885588
% V (V) @ t=0.46
0.007868817633445154
% es.normE (V/m) @ t=0.48
1.7500314468614395
% es.EX (V/m) @ t=0.48
1.5666366629933155
% es.EY (V/m) @ t=0.48
0.06026329401062516
% es.EZ (V/m) @ t=0.48
-0.7775782450618094
% es.tEX (V/m) @ t=0.48
1.5666366629933108
% es.tEY (V/m) @ t=0.48
0
% es.tEZ (V/m) @ t=0.48
-0.7775782450618074
% es.Ex (V/m) @ t=0.48
1.5666366629933155
% es.Ey (V/m) @ t=0.48
0.06026329401062516
% es.Ez (V/m) @ t=0.48
-0.7775782450618094
% es.tEx (V/m) @ t=0.48
1.5666366629933108
% es.tEy (V/m) @ t=0.48
0
% es.tEz (V/m) @ t=0.48
-0.7775782450618074
% V (V) @ t=0.48
0.007940467124389011
% es.normE (V/m) @ t=0.5
1.765811277004877
% es.EX (V/m) @ t=0.5
1.580762138152587
% es.EY (V/m) @ t=0.5
0.06080546781836113
% es.EZ (V/m) @ t=0.5
-0.7845910933350415
% es.tEX (V/m) @ t=0.5
1.5807621381525827
% es.tEY (V/m) @ t=0.5
0
% es.tEZ (V/m) @ t=0.5
-0.7845910933350382
% es.Ex (V/m) @ t=0.5
1.580762138152587
% es.Ey (V/m) @ t=0.5
0.06080546781836113
% es.Ez (V/m) @ t=0.5
-0.7845910933350415
% es.tEx (V/m) @ t=0.5
1.5807621381525827
% es.tEy (V/m) @ t=0.5
0
% es.tEz (V/m) @ t=0.5
-0.7845910933350382
% V (V) @ t=0.5
0.008012116615332868
% es.normE (V/m) @ t=0.52
1.7815911071507506
% es.EX (V/m) @ t=0.52
1.5948876133118262
% es.EY (V/m) @ t=0.52
0.06134764162610293
% es.EZ (V/m) @ t=0.52
-0.7916039416082772
% es.tEX (V/m) @ t=0.52
1.5948876133118253
% es.tEY (V/m) @ t=0.52
0
% es.tEZ (V/m) @ t=0.52
-0.7916039416082725
% es.Ex (V/m) @ t=0.52
1.5948876133118262
% es.Ey (V/m) @ t=0.52
0.06134764162610293
% es.Ez (V/m) @ t=0.52
-0.7916039416082772
% es.tEx (V/m) @ t=0.52
1.5948876133118253
% es.tEy (V/m) @ t=0.52
0
% es.tEz (V/m) @ t=0.52
-0.7916039416082725
% V (V) @ t=0.52
0.008083766106276723
% es.normE (V/m) @ t=0.54
1.7973709372990414
% es.EX (V/m) @ t=0.54
1.6090130884710852
% es.EY (V/m) @ t=0.54
0.06188981543382377
% es.EZ (V/m) @ t=0.54
-0.7986167898815182
% es.tEX (V/m) @ t=0.54
1.609013088471083
% es.tEY (V/m) @ t=0.54
0
% es.tEZ (V/m) @ t=0.54
-0.798616789881514
% es.Ex (V/m) @ t=0.54
1.6090130884710852
% es.Ey (V/m) @ t=0.54
0.06188981543382377
% es.Ez (V/m) @ t=0.54
-0.7986167898815182
% es.tEx (V/m) @ t=0.54
1.609013088471083
% es.tEy (V/m) @ t=0.54
0
% es.tEz (V/m) @ t=0.54
-0.798616789881514
% V (V) @ t=0.54
0.008155415597220578
% es.normE (V/m) @ t=0.56
1.8146504364068918
% es.EX (V/m) @ t=0.56
1.6244823904727468
% es.EY (V/m) @ t=0.56
0.062485893437647405
% es.EZ (V/m) @ t=0.56
-0.8062931480154427
% es.tEX (V/m) @ t=0.56
1.6244823904727488
% es.tEY (V/m) @ t=0.56
0
% es.tEZ (V/m) @ t=0.56
-0.8062931480154383
% es.Ex (V/m) @ t=0.56
1.6244823904727468
% es.Ey (V/m) @ t=0.56
0.062485893437647405
% es.Ez (V/m) @ t=0.56
-0.8062931480154427
% es.tEx (V/m) @ t=0.56
1.6244823904727488
% es.tEy (V/m) @ t=0.56
0
% es.tEz (V/m) @ t=0.56
-0.8062931480154383
% V (V) @ t=0.56
0.008233774071041774
% es.normE (V/m) @ t=0.58
1.8322544650378079
% es.EX (V/m) @ t=0.58
1.6402424976397185
% es.EY (V/m) @ t=0.58
0.06309363635107784
% es.EZ (V/m) @ t=0.58
-0.8141130901950431
% es.tEX (V/m) @ t=0.58
1.6402424976397176
% es.tEY (V/m) @ t=0.58
0
% es.tEZ (V/m) @ t=0.58
-0.8141130901950397
% es.Ex (V/m) @ t=0.58
1.6402424976397185
% es.Ey (V/m) @ t=0.58
0.06309363635107784
% es.Ez (V/m) @ t=0.58
-0.8141130901950431
% es.tEx (V/m) @ t=0.58
1.6402424976397176
% es.tEy (V/m) @ t=0.58
0
% es.tEz (V/m) @ t=0.58
-0.8141130901950397
% V (V) @ t=0.58
0.008313584373932956
% es.normE (V/m) @ t=0.6
1.8498584936726714
% es.EX (V/m) @ t=0.6
1.6560026048066927
% es.EY (V/m) @ t=0.6
0.06370137926450739
% es.EZ (V/m) @ t=0.6
-0.8219330323746576
% es.tEX (V/m) @ t=0.6
1.6560026048066847
% es.tEY (V/m) @ t=0.6
0
% es.tEZ (V/m) @ t=0.6
-0.8219330323746519
% es.Ex (V/m) @ t=0.6
1.6560026048066927
% es.Ey (V/m) @ t=0.6
0.06370137926450739
% es.Ez (V/m) @ t=0.6
-0.8219330323746576
% es.tEx (V/m) @ t=0.6
1.6560026048066847
% es.tEy (V/m) @ t=0.6
0
% es.tEz (V/m) @ t=0.6
-0.8219330323746519
% V (V) @ t=0.6
0.008393394676824142
% es.normE (V/m) @ t=0.62
1.867462522311366
% es.EX (V/m) @ t=0.62
1.671762711973671
% es.EY (V/m) @ t=0.62
0.06430912217795073
% es.EZ (V/m) @ t=0.62
-0.8297529745542688
% es.tEX (V/m) @ t=0.62
1.6717627119736669
% es.tEY (V/m) @ t=0.62
0
% es.tEZ (V/m) @ t=0.62
-0.829752974554264
% es.Ex (V/m) @ t=0.62
1.671762711973671
% es.Ey (V/m) @ t=0.62
0.06430912217795073
% es.Ez (V/m) @ t=0.62
-0.8297529745542688
% es.tEx (V/m) @ t=0.62
1.6717627119736669
% es.tEy (V/m) @ t=0.62
0
% es.tEz (V/m) @ t=0.62
-0.829752974554264
% V (V) @ t=0.62
0.008473204979715324
% es.normE (V/m) @ t=0.64
1.885066550953757
% es.EX (V/m) @ t=0.64
1.6875228191406315
% es.EY (V/m) @ t=0.64
0.06491686509136516
% es.EZ (V/m) @ t=0.64
-0.8375729167338638
% es.tEX (V/m) @ t=0.64
1.6875228191406277
% es.tEY (V/m) @ t=0.64
0
% es.tEZ (V/m) @ t=0.64
-0.8375729167338619
% es.Ex (V/m) @ t=0.64
1.6875228191406315
% es.Ey (V/m) @ t=0.64
0.06491686509136516
% es.Ez (V/m) @ t=0.64
-0.8375729167338638
% es.tEx (V/m) @ t=0.64
1.6875228191406277
% es.tEy (V/m) @ t=0.64
0
% es.tEz (V/m) @ t=0.64
-0.8375729167338619
% V (V) @ t=0.64
0.008553015282606508
% es.normE (V/m) @ t=0.66
1.902670579599807
% es.EX (V/m) @ t=0.66
1.7032829263076201
% es.EY (V/m) @ t=0.66
0.06552460800481694
% es.EZ (V/m) @ t=0.66
-0.8453928589134926
% es.tEX (V/m) @ t=0.66
1.7032829263076161
% es.tEY (V/m) @ t=0.66
0
% es.tEZ (V/m) @ t=0.66
-0.8453928589134883
% es.Ex (V/m) @ t=0.66
1.7032829263076201
% es.Ey (V/m) @ t=0.66
0.06552460800481694
% es.Ez (V/m) @ t=0.66
-0.8453928589134926
% es.tEx (V/m) @ t=0.66
1.7032829263076161
% es.tEy (V/m) @ t=0.66
0
% es.tEz (V/m) @ t=0.66
-0.8453928589134883
% V (V) @ t=0.66
0.008632825585497694
% es.normE (V/m) @ t=0.68
1.9202746082493318
% es.EX (V/m) @ t=0.68
1.719043033474581
% es.EY (V/m) @ t=0.68
0.06613235091823852
% es.EZ (V/m) @ t=0.68
-0.8532128010930824
% es.tEX (V/m) @ t=0.68
1.7190430334745779
% es.tEY (V/m) @ t=0.68
0
% es.tEZ (V/m) @ t=0.68
-0.8532128010930791
% es.Ex (V/m) @ t=0.68
1.719043033474581
% es.Ey (V/m) @ t=0.68
0.06613235091823852
% es.Ez (V/m) @ t=0.68
-0.8532128010930824
% es.tEx (V/m) @ t=0.68
1.7190430334745779
% es.tEy (V/m) @ t=0.68
0
% es.tEz (V/m) @ t=0.68
-0.8532128010930791
% V (V) @ t=0.68
0.008712635888388876
% es.normE (V/m) @ t=0.7
1.9378786369022953
% es.EX (V/m) @ t=0.7
1.7348031406415523
% es.EY (V/m) @ t=0.7
0.06674009383166982
% es.EZ (V/m) @ t=0.7
-0.8610327432726881
% es.tEX (V/m) @ t=0.7
1.734803140641553
% es.tEY (V/m) @ t=0.7
0
% es.tEZ (V/m) @ t=0.7
-0.8610327432726734
% es.Ex (V/m) @ t=0.7
1.7348031406415523
% es.Ey (V/m) @ t=0.7
0.06674009383166982
% es.Ez (V/m) @ t=0.7
-0.8610327432726881
% es.tEx (V/m) @ t=0.7
1.734803140641553
% es.tEy (V/m) @ t=0.7
0
% es.tEz (V/m) @ t=0.7
-0.8610327432726734
% V (V) @ t=0.7
0.008792446191280062
% es.normE (V/m) @ t=0.72
1.9554826655585995
% es.EX (V/m) @ t=0.72
1.7505632478085307
% es.EY (V/m) @ t=0.72
0.06734783674509229
% es.EZ (V/m) @ t=0.72
-0.8688526854523044
% es.tEX (V/m) @ t=0.72
1.7505632478085342
% es.tEY (V/m) @ t=0.72
0
% es.tEZ (V/m) @ t=0.72
-0.8688526854523033
% es.Ex (V/m) @ t=0.72
1.7505632478085307
% es.Ey (V/m) @ t=0.72
0.06734783674509229
% es.Ez (V/m) @ t=0.72
-0.8688526854523044
% es.tEx (V/m) @ t=0.72
1.7505632478085342
% es.tEy (V/m) @ t=0.72
0
% es.tEz (V/m) @ t=0.72
-0.8688526854523033
% V (V) @ t=0.72
0.008872256494171246
% es.normE (V/m) @ t=0.74
1.9730866942181526
% es.EX (V/m) @ t=0.74
1.766323354975512
% es.EY (V/m) @ t=0.74
0.0679555796585414
% es.EZ (V/m) @ t=0.74
-0.8766726276319314
% es.tEX (V/m) @ t=0.74
1.7663233549755164
% es.tEY (V/m) @ t=0.74
0
% es.tEZ (V/m) @ t=0.74
-0.8766726276319261
% es.Ex (V/m) @ t=0.74
1.766323354975512
% es.Ey (V/m) @ t=0.74
0.0679555796585414
% es.Ez (V/m) @ t=0.74
-0.8766726276319314
% es.tEx (V/m) @ t=0.74
1.7663233549755164
% es.tEy (V/m) @ t=0.74
0
% es.tEz (V/m) @ t=0.74
-0.8766726276319261
% V (V) @ t=0.74
0.00895206679706243
% es.normE (V/m) @ t=0.76
1.9906907228808413
% es.EX (V/m) @ t=0.76
1.782083462142483
% es.EY (V/m) @ t=0.76
0.06856332257197625
% es.EZ (V/m) @ t=0.76
-0.8844925698115371
% es.tEX (V/m) @ t=0.76
1.7820834621424844
% es.tEY (V/m) @ t=0.76
0
% es.tEZ (V/m) @ t=0.76
-0.8844925698115347
% es.Ex (V/m) @ t=0.76
1.782083462142483
% es.Ey (V/m) @ t=0.76
0.06856332257197625
% es.Ez (V/m) @ t=0.76
-0.8844925698115371
% es.tEx (V/m) @ t=0.76
1.7820834621424844
% es.tEy (V/m) @ t=0.76
0
% es.tEz (V/m) @ t=0.76
-0.8844925698115347
% V (V) @ t=0.76
0.009031877099953615
% es.normE (V/m) @ t=0.78
2.008294751546606
% es.EX (V/m) @ t=0.78
1.7978435693094617
% es.EY (V/m) @ t=0.78
0.06917106548540272
% es.EZ (V/m) @ t=0.78
-0.8923125119911394
% es.tEX (V/m) @ t=0.78
1.7978435693094585
% es.tEY (V/m) @ t=0.78
0
% es.tEZ (V/m) @ t=0.78
-0.8923125119911504
% es.Ex (V/m) @ t=0.78
1.7978435693094617
% es.Ey (V/m) @ t=0.78
0.06917106548540272
% es.Ez (V/m) @ t=0.78
-0.8923125119911394
% es.tEx (V/m) @ t=0.78
1.7978435693094585
% es.tEy (V/m) @ t=0.78
0
% es.tEz (V/m) @ t=0.78
-0.8923125119911504
% V (V) @ t=0.78
0.009111687402844798
% es.normE (V/m) @ t=0.8
2.0258987802153703
% es.EX (V/m) @ t=0.8
1.8136036764764394
% es.EY (V/m) @ t=0.8
0.06977880839883718
% es.EZ (V/m) @ t=0.8
-0.9001324541707593
% es.tEX (V/m) @ t=0.8
1.8136036764764336
% es.tEY (V/m) @ t=0.8
0
% es.tEZ (V/m) @ t=0.8
-0.9001324541707376
% es.Ex (V/m) @ t=0.8
1.8136036764764394
% es.Ey (V/m) @ t=0.8
0.06977880839883718
% es.Ez (V/m) @ t=0.8
-0.9001324541707593
% es.tEx (V/m) @ t=0.8
1.8136036764764336
% es.tEy (V/m) @ t=0.8
0
% es.tEz (V/m) @ t=0.8
-0.9001324541707376
% V (V) @ t=0.8
0.009191497705735983
% es.normE (V/m) @ t=0.82
2.0439971826282664
% es.EX (V/m) @ t=0.82
1.829806141983167
% es.EY (V/m) @ t=0.82
0.07040321898441679
% es.EZ (V/m) @ t=0.82
-0.9081725033052725
% es.tEX (V/m) @ t=0.82
1.8298061419831742
% es.tEY (V/m) @ t=0.82
0
% es.tEZ (V/m) @ t=0.82
-0.9081725033052734
% es.Ex (V/m) @ t=0.82
1.829806141983167
% es.Ey (V/m) @ t=0.82
0.07040321898441679
% es.Ez (V/m) @ t=0.82
-0.9081725033052725
% es.tEx (V/m) @ t=0.82
1.8298061419831742
% es.tEy (V/m) @ t=0.82
0
% es.tEz (V/m) @ t=0.82
-0.9081725033052734
% V (V) @ t=0.82
0.009273566190172208
% es.normE (V/m) @ t=0.84
2.063677358032553
% es.EX (V/m) @ t=0.84
1.8474239546564002
% es.EY (V/m) @ t=0.84
0.07108095860303032
% es.EZ (V/m) @ t=0.84
-0.9169167954187936
% es.tEX (V/m) @ t=0.84
1.8474239546563993
% es.tEY (V/m) @ t=0.84
0
% es.tEZ (V/m) @ t=0.84
-0.9169167954187927
% es.Ex (V/m) @ t=0.84
1.8474239546564002
% es.Ey (V/m) @ t=0.84
0.07108095860303032
% es.Ez (V/m) @ t=0.84
-0.9169167954187936
% es.tEx (V/m) @ t=0.84
1.8474239546563993
% es.tEy (V/m) @ t=0.84
0
% es.tEz (V/m) @ t=0.84
-0.9169167954187927
% V (V) @ t=0.84
0.009362859837025382
% es.normE (V/m) @ t=0.86
2.083357533436895
% es.EX (V/m) @ t=0.86
1.8650417673296622
% es.EY (V/m) @ t=0.86
0.07175869822166167
% es.EZ (V/m) @ t=0.86
-0.9256610875323288
% es.tEX (V/m) @ t=0.86
1.8650417673296529
% es.tEY (V/m) @ t=0.86
0
% es.tEZ (V/m) @ t=0.86
-0.9256610875323261
% es.Ex (V/m) @ t=0.86
1.8650417673296622
% es.Ey (V/m) @ t=0.86
0.07175869822166167
% es.Ez (V/m) @ t=0.86
-0.9256610875323288
% es.tEx (V/m) @ t=0.86
1.8650417673296529
% es.tEy (V/m) @ t=0.86
0
% es.tEz (V/m) @ t=0.86
-0.9256610875323261
% V (V) @ t=0.86
0.009452153483878557
% es.normE (V/m) @ t=0.88
2.103037708841215
% es.EX (V/m) @ t=0.88
1.8826595800028882
% es.EY (V/m) @ t=0.88
0.07243643784028231
% es.EZ (V/m) @ t=0.88
-0.9344053796458409
% es.tEX (V/m) @ t=0.88
1.882659580002886
% es.tEY (V/m) @ t=0.88
0
% es.tEZ (V/m) @ t=0.88
-0.9344053796458383
% es.Ex (V/m) @ t=0.88
1.8826595800028882
% es.Ey (V/m) @ t=0.88
0.07243643784028231
% es.Ez (V/m) @ t=0.88
-0.9344053796458409
% es.tEx (V/m) @ t=0.88
1.882659580002886
% es.tEy (V/m) @ t=0.88
0
% es.tEz (V/m) @ t=0.88
-0.9344053796458383
% V (V) @ t=0.88
0.00954144713073173
% es.normE (V/m) @ t=0.9
2.1227178842455747
% es.EX (V/m) @ t=0.9
1.9002773926761325
% es.EY (V/m) @ t=0.9
0.07311417745890253
% es.EZ (V/m) @ t=0.9
-0.9431496717593603
% es.tEX (V/m) @ t=0.9
1.9002773926761263
% es.tEY (V/m) @ t=0.9
0
% es.tEZ (V/m) @ t=0.9
-0.9431496717593646
% es.Ex (V/m) @ t=0.9
1.9002773926761325
% es.Ey (V/m) @ t=0.9
0.07311417745890253
% es.Ez (V/m) @ t=0.9
-0.9431496717593603
% es.tEx (V/m) @ t=0.9
1.9002773926761263
% es.tEy (V/m) @ t=0.9
0
% es.tEz (V/m) @ t=0.9
-0.9431496717593646
% V (V) @ t=0.9
0.009630740777584905
% es.normE (V/m) @ t=0.92
2.1423980596499446
% es.EX (V/m) @ t=0.92
1.917895205349366
% es.EY (V/m) @ t=0.92
0.07379191707752719
% es.EZ (V/m) @ t=0.92
-0.9518939638728795
% es.tEX (V/m) @ t=0.92
1.9178952053493727
% es.tEY (V/m) @ t=0.92
0
% es.tEZ (V/m) @ t=0.92
-0.9518939638728696
% es.Ex (V/m) @ t=0.92
1.917895205349366
% es.Ey (V/m) @ t=0.92
0.07379191707752719
% es.Ez (V/m) @ t=0.92
-0.9518939638728795
% es.tEx (V/m) @ t=0.92
1.9178952053493727
% es.tEy (V/m) @ t=0.92
0
% es.tEz (V/m) @ t=0.92
-0.9518939638728696
% V (V) @ t=0.92
0.009720034424438077
% es.normE (V/m) @ t=0.94
2.162078235054346
% es.EX (V/m) @ t=0.94
1.9355130180226108
% es.EY (V/m) @ t=0.94
0.0744696566961652
% es.EZ (V/m) @ t=0.94
-0.9606382559864024
% es.tEX (V/m) @ t=0.94
1.935513018022613
% es.tEY (V/m) @ t=0.94
0
% es.tEZ (V/m) @ t=0.94
-0.9606382559864031
% es.Ex (V/m) @ t=0.94
1.9355130180226108
% es.Ey (V/m) @ t=0.94
0.0744696566961652
% es.Ez (V/m) @ t=0.94
-0.9606382559864024
% es.tEx (V/m) @ t=0.94
1.935513018022613
% es.tEy (V/m) @ t=0.94
0
% es.tEz (V/m) @ t=0.94
-0.9606382559864031
% V (V) @ t=0.94
0.009809328071291252
% es.normE (V/m) @ t=0.96
2.181758410458766
% es.EX (V/m) @ t=0.96
1.9531308306958508
% es.EY (V/m) @ t=0.96
0.07514739631478537
% es.EZ (V/m) @ t=0.96
-0.9693825480999358
% es.tEX (V/m) @ t=0.96
1.9531308306958532
% es.tEY (V/m) @ t=0.96
0
% es.tEZ (V/m) @ t=0.96
-0.9693825480999365
% es.Ex (V/m) @ t=0.96
1.9531308306958508
% es.Ey (V/m) @ t=0.96
0.07514739631478537
% es.Ez (V/m) @ t=0.96
-0.9693825480999358
% es.tEx (V/m) @ t=0.96
1.9531308306958532
% es.tEy (V/m) @ t=0.96
0
% es.tEz (V/m) @ t=0.96
-0.9693825480999365
% V (V) @ t=0.96
0.009898621718144426
% es.normE (V/m) @ t=0.98
2.2014385858631975
% es.EX (V/m) @ t=0.98
1.9707486433690922
% es.EY (V/m) @ t=0.98
0.0758251359334145
% es.EZ (V/m) @ t=0.98
-0.9781268402134515
% es.tEX (V/m) @ t=0.98
1.9707486433690944
% es.tEY (V/m) @ t=0.98
0
% es.tEZ (V/m) @ t=0.98
-0.9781268402134344
% es.Ex (V/m) @ t=0.98
1.9707486433690922
% es.Ey (V/m) @ t=0.98
0.0758251359334145
% es.Ez (V/m) @ t=0.98
-0.9781268402134515
% es.tEx (V/m) @ t=0.98
1.9707486433690944
% es.tEy (V/m) @ t=0.98
0
% es.tEz (V/m) @ t=0.98
-0.9781268402134344
% V (V) @ t=0.98
0.0099879153649976
% es.normE (V/m) @ t=1
2.2211187612676504
% es.EX (V/m) @ t=1
1.988366456042336
% es.EY (V/m) @ t=1
0.07650287555203206
% es.EZ (V/m) @ t=1
-0.9868711323269708
% es.tEX (V/m) @ t=1
1.9883664560423187
% es.tEY (V/m) @ t=1
0
% es.tEZ (V/m) @ t=1
-0.9868711323269608
% es.Ex (V/m) @ t=1
1.988366456042336
% es.Ey (V/m) @ t=1
0.07650287555203206
% es.Ez (V/m) @ t=1
-0.9868711323269708
% es.tEx (V/m) @ t=1
1.9883664560423187
% es.tEy (V/m) @ t=1
0
% es.tEz (V/m) @ t=1
-0.9868711323269608
% V (V) @ t=1
0.010077209011850774
% es.normE (V/m) @ t=1.02
2.240798936672125
% es.EX (V/m) @ t=1.02
2.0059842687155838
% es.EY (V/m) @ t=1.02
0.07718061517068245
% es.EZ (V/m) @ t=1.02
-0.9956154244404901
% es.tEX (V/m) @ t=1.02
2.005984268715573
% es.tEY (V/m) @ t=1.02
0
% es.tEZ (V/m) @ t=1.02
-0.9956154244404871
% es.Ex (V/m) @ t=1.02
2.0059842687155838
% es.Ey (V/m) @ t=1.02
0.07718061517068245
% es.Ez (V/m) @ t=1.02
-0.9956154244404901
% es.tEx (V/m) @ t=1.02
2.005984268715573
% es.tEy (V/m) @ t=1.02
0
% es.tEz (V/m) @ t=1.02
-0.9956154244404871
% V (V) @ t=1.02
0.010166502658703948
% es.normE (V/m) @ t=1.04
2.2604791120766032
% es.EX (V/m) @ t=1.04
2.0236020813888174
% es.EY (V/m) @ t=1.04
0.07785835478930178
% es.EZ (V/m) @ t=1.04
-1.0043597165540095