% Model:              1 neuron.mph
% Version:            COMSOL 6.0.0.405
% Date:               Mar 16 2023, 10:21
% Dimension:          0
% Nodes:              14017
% Expressions:        14017
% Description:        Electric field norm, Electric field, X component, Electric field, Y component, Electric field, Z component, Tangential electric field, X component, Tangential electric field, Y component, Tangential electric field, Z component, Electric field, x component, Electric field, y component, Electric field, z component, Tangential electric field, x component, Tangential electric field, y component, Tangential electric field, z component, Electric potential
% Length unit:        mm
% x
1.33
% y
12.2
% z
1.33
% es.normE (V/m) @ t=0
7.658952785310797
% es.EX (V/m) @ t=0
5.934801917359988
% es.EY (V/m) @ t=0
-0.9093875896310237
% es.EZ (V/m) @ t=0
4.741260897291513
% es.tEX (V/m) @ t=0
5.934801917360007
% es.tEY (V/m) @ t=0
0
% es.tEZ (V/m) @ t=0
4.741260897291513
% es.Ex (V/m) @ t=0
5.934801917359988
% es.Ey (V/m) @ t=0
-0.9093875896310237
% es.Ez (V/m) @ t=0
4.741260897291513
% es.tEx (V/m) @ t=0
5.934801917360007
% es.tEy (V/m) @ t=0
0
% es.tEz (V/m) @ t=0
4.741260897291513
% V (V) @ t=0
0.006325015103903252
% es.normE (V/m) @ t=0.02
6.615175504215559
% es.EX (V/m) @ t=0.02
5.1259953391934445
% es.EY (V/m) @ t=0.02
-0.7854542829010791
% es.EZ (V/m) @ t=0.02
4.095112494953325
% es.tEX (V/m) @ t=0.02
5.1259953391934445
% es.tEY (V/m) @ t=0.02
0
% es.tEZ (V/m) @ t=0.02
4.095112494953314
% es.Ex (V/m) @ t=0.02
5.1259953391934445
% es.Ey (V/m) @ t=0.02
-0.7854542829010791
% es.Ez (V/m) @ t=0.02
4.095112494953325
% es.tEx (V/m) @ t=0.02
5.1259953391934445
% es.tEy (V/m) @ t=0.02
0
% es.tEz (V/m) @ t=0.02
4.095112494953314
% V (V) @ t=0.02
0.005463029283701022
% es.normE (V/m) @ t=0.04
6.6760135060385135
% es.EX (V/m) @ t=0.04
5.1731377562290195
% es.EY (V/m) @ t=0.04
-0.7926772885652342
% es.EZ (V/m) @ t=0.04
4.132774298610123
% es.tEX (V/m) @ t=0.04
5.173137756229043
% es.tEY (V/m) @ t=0.04
0
% es.tEZ (V/m) @ t=0.04
4.132774298610116
% es.Ex (V/m) @ t=0.04
5.1731377562290195
% es.Ey (V/m) @ t=0.04
-0.7926772885652342
% es.Ez (V/m) @ t=0.04
4.132774298610123
% es.tEx (V/m) @ t=0.04
5.173137756229043
% es.tEy (V/m) @ t=0.04
0
% es.tEz (V/m) @ t=0.04
4.132774298610116
% V (V) @ t=0.04
0.005513270502967073
% es.normE (V/m) @ t=0.06
6.737401155548035
% es.EX (V/m) @ t=0.06
5.220706081565062
% es.EY (V/m) @ t=0.06
-0.799965967167382
% es.EZ (V/m) @ t=0.06
4.1707762607325805
% es.tEX (V/m) @ t=0.06
5.220706081565061
% es.tEY (V/m) @ t=0.06
0
% es.tEZ (V/m) @ t=0.06
4.170776260732579
% es.Ex (V/m) @ t=0.06
5.220706081565062
% es.Ey (V/m) @ t=0.06
-0.799965967167382
% es.Ez (V/m) @ t=0.06
4.1707762607325805
% es.tEx (V/m) @ t=0.06
5.220706081565061
% es.tEy (V/m) @ t=0.06
0
% es.tEz (V/m) @ t=0.06
4.170776260732579
% V (V) @ t=0.06
0.005563966181624449
% es.normE (V/m) @ t=0.08
6.799723302889598
% es.EX (V/m) @ t=0.08
5.268998541962194
% es.EY (V/m) @ t=0.08
-0.8073649792782867
% es.EZ (V/m) @ t=0.08
4.209356874379067
% es.tEX (V/m) @ t=0.08
5.268998541962219
% es.tEY (V/m) @ t=0.08
0
% es.tEZ (V/m) @ t=0.08
4.209356874379058
% es.Ex (V/m) @ t=0.08
5.268998541962194
% es.Ey (V/m) @ t=0.08
-0.8073649792782867
% es.Ez (V/m) @ t=0.08
4.209356874379067
% es.tEx (V/m) @ t=0.08
5.268998541962219
% es.tEy (V/m) @ t=0.08
0
% es.tEz (V/m) @ t=0.08
4.209356874379058
% V (V) @ t=0.08
0.005615432777012521
% es.normE (V/m) @ t=0.1
6.862697727193183
% es.EX (V/m) @ t=0.1
5.317796446675311
% es.EY (V/m) @ t=0.1
-0.8148410038801908
% es.EZ (V/m) @ t=0.1
4.24834138522578
% es.tEX (V/m) @ t=0.1
5.317796446675327
% es.tEY (V/m) @ t=0.1
0
% es.tEZ (V/m) @ t=0.1
4.248341385225773
% es.Ex (V/m) @ t=0.1
5.317796446675311
% es.Ey (V/m) @ t=0.1
-0.8148410038801908
% es.Ez (V/m) @ t=0.1
4.24834138522578
% es.tEx (V/m) @ t=0.1
5.317796446675327
% es.tEy (V/m) @ t=0.1
0
% es.tEz (V/m) @ t=0.1
4.248341385225773
% V (V) @ t=0.1
0.0056674374701955145
% es.normE (V/m) @ t=0.12
6.925672151497148
% es.EX (V/m) @ t=0.12
5.366594351388417
% es.EY (V/m) @ t=0.12
-0.8223170284820833
% es.EZ (V/m) @ t=0.12
4.287325896072475
% es.tEX (V/m) @ t=0.12
5.366594351388448
% es.tEY (V/m) @ t=0.12
0
% es.tEZ (V/m) @ t=0.12
4.2873258960724785
% es.Ex (V/m) @ t=0.12
5.366594351388417
% es.Ey (V/m) @ t=0.12
-0.8223170284820833
% es.Ez (V/m) @ t=0.12
4.287325896072475
% es.tEx (V/m) @ t=0.12
5.366594351388448
% es.tEy (V/m) @ t=0.12
0
% es.tEz (V/m) @ t=0.12
4.2873258960724785
% V (V) @ t=0.12
0.005719442163378508
% es.normE (V/m) @ t=0.14
6.989278937583992
% es.EX (V/m) @ t=0.14
5.4158822560627
% es.EY (V/m) @ t=0.14
-0.8298687404426639
% es.EZ (V/m) @ t=0.14
4.32670172210677
% es.tEX (V/m) @ t=0.14
5.415882256062713
% es.tEY (V/m) @ t=0.14
0
% es.tEZ (V/m) @ t=0.14
4.326701722106759
% es.Ex (V/m) @ t=0.14
5.4158822560627
% es.Ey (V/m) @ t=0.14
-0.8298687404426639
% es.Ez (V/m) @ t=0.14
4.32670172210677
% es.tEx (V/m) @ t=0.14
5.415882256062713
% es.tEy (V/m) @ t=0.14
0
% es.tEz (V/m) @ t=0.14
4.326701722106759
% V (V) @ t=0.14
0.0057719698775911855
% es.normE (V/m) @ t=0.16
7.055620169742218
% es.EX (V/m) @ t=0.16
5.467289008690056
% es.EY (V/m) @ t=0.16
-0.8377477381538663
% es.EZ (V/m) @ t=0.16
4.367769665385872
% es.tEX (V/m) @ t=0.16
5.467289008690059
% es.tEY (V/m) @ t=0.16
0
% es.tEZ (V/m) @ t=0.16
4.367769665385868
% es.Ex (V/m) @ t=0.16
5.467289008690056
% es.Ey (V/m) @ t=0.16
-0.8377477381538663
% es.Ez (V/m) @ t=0.16
4.367769665385872
% es.tEx (V/m) @ t=0.16
5.467289008690059
% es.tEy (V/m) @ t=0.16
0
% es.tEz (V/m) @ t=0.16
4.367769665385868
% V (V) @ t=0.16
0.005826759228795699
% es.normE (V/m) @ t=0.18
7.121961401901451
% es.EX (V/m) @ t=0.18
5.518695761317401
% es.EY (V/m) @ t=0.18
-0.8456267358650464
% es.EZ (V/m) @ t=0.18
4.408837608664978
% es.tEX (V/m) @ t=0.18
5.518695761317421
% es.tEY (V/m) @ t=0.18
0
% es.tEZ (V/m) @ t=0.18
4.408837608664976
% es.Ex (V/m) @ t=0.18
5.518695761317401
% es.Ey (V/m) @ t=0.18
-0.8456267358650464
% es.Ez (V/m) @ t=0.18
4.408837608664978
% es.tEx (V/m) @ t=0.18
5.518695761317421
% es.tEy (V/m) @ t=0.18
0
% es.tEz (V/m) @ t=0.18
4.408837608664976
% V (V) @ t=0.18
0.005881548580000216
% es.normE (V/m) @ t=0.2
7.188302634061678
% es.EX (V/m) @ t=0.2
5.5701025139447715
% es.EY (V/m) @ t=0.2
-0.8535057335762097
% es.EZ (V/m) @ t=0.2
4.449905551944071
% es.tEX (V/m) @ t=0.2
5.570102513944781
% es.tEY (V/m) @ t=0.2
0
% es.tEZ (V/m) @ t=0.2
4.449905551944063
% es.Ex (V/m) @ t=0.2
5.5701025139447715
% es.Ey (V/m) @ t=0.2
-0.8535057335762097
% es.Ez (V/m) @ t=0.2
4.449905551944071
% es.tEx (V/m) @ t=0.2
5.570102513944781
% es.tEy (V/m) @ t=0.2
0
% es.tEz (V/m) @ t=0.2
4.449905551944063
% V (V) @ t=0.2
0.0059363379312047295
% es.normE (V/m) @ t=0.22
7.254643866222855
% es.EX (V/m) @ t=0.22
5.621509266572134
% es.EY (V/m) @ t=0.22
-0.8613847312873713
% es.EZ (V/m) @ t=0.22
4.490973495223157
% es.tEX (V/m) @ t=0.22
5.621509266572156
% es.tEY (V/m) @ t=0.22
0
% es.tEZ (V/m) @ t=0.22
4.4909734952231615
% es.Ex (V/m) @ t=0.22
5.621509266572134
% es.Ey (V/m) @ t=0.22
-0.8613847312873713
% es.Ez (V/m) @ t=0.22
4.490973495223157
% es.tEx (V/m) @ t=0.22
5.621509266572156
% es.tEy (V/m) @ t=0.22
0
% es.tEz (V/m) @ t=0.22
4.4909734952231615
% V (V) @ t=0.22
0.005991127282409244
% es.normE (V/m) @ t=0.24
7.320985098384963
% es.EX (V/m) @ t=0.24
5.672916019199472
% es.EY (V/m) @ t=0.24
-0.8692637289985807
% es.EZ (V/m) @ t=0.24
4.532041438502262
% es.tEX (V/m) @ t=0.24
5.672916019199489
% es.tEY (V/m) @ t=0.24
0
% es.tEZ (V/m) @ t=0.24
4.532041438502253
% es.Ex (V/m) @ t=0.24
5.672916019199472
% es.Ey (V/m) @ t=0.24
-0.8692637289985807
% es.Ez (V/m) @ t=0.24
4.532041438502262
% es.tEx (V/m) @ t=0.24
5.672916019199489
% es.tEy (V/m) @ t=0.24
0
% es.tEz (V/m) @ t=0.24
4.532041438502253
% V (V) @ t=0.24
0.00604591663361376
% es.normE (V/m) @ t=0.26
7.387326330548002
% es.EX (V/m) @ t=0.26
5.724322771826849
% es.EY (V/m) @ t=0.26
-0.8771427267097627
% es.EZ (V/m) @ t=0.26
4.573109381781362
% es.tEX (V/m) @ t=0.26
5.724322771826878
% es.tEY (V/m) @ t=0.26
0
% es.tEZ (V/m) @ t=0.26
4.57310938178135
% es.Ex (V/m) @ t=0.26
5.724322771826849
% es.Ey (V/m) @ t=0.26
-0.8771427267097627
% es.Ez (V/m) @ t=0.26
4.573109381781362
% es.tEx (V/m) @ t=0.26
5.724322771826878
% es.tEy (V/m) @ t=0.26
0
% es.tEz (V/m) @ t=0.26
4.57310938178135
% V (V) @ t=0.26
0.006100705984818275
% es.normE (V/m) @ t=0.28
7.456558030204219
% es.EX (V/m) @ t=0.28
5.777969505438181
% es.EY (V/m) @ t=0.28
-0.8853483224269851
% es.EZ (V/m) @ t=0.28
4.615970707667267
% es.tEX (V/m) @ t=0.28
5.777969505438211
% es.tEY (V/m) @ t=0.28
0
% es.tEZ (V/m) @ t=0.28
4.615970707667266
% es.Ex (V/m) @ t=0.28
5.777969505438181
% es.Ey (V/m) @ t=0.28
-0.8853483224269851
% es.Ez (V/m) @ t=0.28
4.615970707667267
% es.tEx (V/m) @ t=0.28
5.777969505438211
% es.tEy (V/m) @ t=0.28
0
% es.tEz (V/m) @ t=0.28
4.615970707667266
% V (V) @ t=0.28
0.006157860446319057
% es.normE (V/m) @ t=0.3
7.530395115460072
% es.EX (V/m) @ t=0.3
5.835185203433545
% es.EY (V/m) @ t=0.3
-0.8940742871383582
% es.EZ (V/m) @ t=0.3
4.661689432208113
% es.tEX (V/m) @ t=0.3
5.835185203433559
% es.tEY (V/m) @ t=0.3
0
% es.tEZ (V/m) @ t=0.3
4.661689432208103
% es.Ex (V/m) @ t=0.3
5.835185203433545
% es.Ey (V/m) @ t=0.3
-0.8940742871383582
% es.Ez (V/m) @ t=0.3
4.661689432208113
% es.tEx (V/m) @ t=0.3
5.835185203433559
% es.tEy (V/m) @ t=0.3
0
% es.tEz (V/m) @ t=0.3
4.661689432208103
% V (V) @ t=0.3
0.006218783240887028
% es.normE (V/m) @ t=0.32
7.604232201114483
% es.EX (V/m) @ t=0.32
5.892400901428896
% es.EY (V/m) @ t=0.32
-0.902800251849718
% es.EZ (V/m) @ t=0.32
4.707408156748991
% es.tEX (V/m) @ t=0.32
5.892400901428907
% es.tEY (V/m) @ t=0.32
0
% es.tEZ (V/m) @ t=0.32
4.707408156748983
% es.Ex (V/m) @ t=0.32
5.892400901428896
% es.Ey (V/m) @ t=0.32
-0.902800251849718
% es.Ez (V/m) @ t=0.32
4.707408156748991
% es.tEx (V/m) @ t=0.32
5.892400901428907
% es.tEy (V/m) @ t=0.32
0
% es.tEz (V/m) @ t=0.32
4.707408156748983
% V (V) @ t=0.32
0.006279706035454998
% es.normE (V/m) @ t=0.34
7.67806928715596
% es.EX (V/m) @ t=0.34
5.949616599424297
% es.EY (V/m) @ t=0.34
-0.9115262165610787
% es.EZ (V/m) @ t=0.34
4.753126881289829
% es.tEX (V/m) @ t=0.34
5.9496165994242975
% es.tEY (V/m) @ t=0.34
0
% es.tEZ (V/m) @ t=0.34
4.753126881289827
% es.Ex (V/m) @ t=0.34
5.949616599424297
% es.Ey (V/m) @ t=0.34
-0.9115262165610787
% es.Ez (V/m) @ t=0.34
4.753126881289829
% es.tEx (V/m) @ t=0.34
5.9496165994242975
% es.tEy (V/m) @ t=0.34
0
% es.tEz (V/m) @ t=0.34
4.753126881289827
% V (V) @ t=0.34
0.006340628830022968
% es.normE (V/m) @ t=0.36
7.751906373573382
% es.EX (V/m) @ t=0.36
6.006832297419622
% es.EY (V/m) @ t=0.36
-0.9202521812724438
% es.EZ (V/m) @ t=0.36
4.7988456058306825
% es.tEX (V/m) @ t=0.36
6.0068322974196455
% es.tEY (V/m) @ t=0.36
0
% es.tEZ (V/m) @ t=0.36
4.798845605830685
% es.Ex (V/m) @ t=0.36
6.006832297419622
% es.Ey (V/m) @ t=0.36
-0.9202521812724438
% es.Ez (V/m) @ t=0.36
4.7988456058306825
% es.tEx (V/m) @ t=0.36
6.0068322974196455
% es.tEy (V/m) @ t=0.36
0
% es.tEz (V/m) @ t=0.36
4.798845605830685
% V (V) @ t=0.36
0.006401551624590938
% es.normE (V/m) @ t=0.38
7.825743460356174
% es.EX (V/m) @ t=0.38
6.064047995414966
% es.EY (V/m) @ t=0.38
-0.9289781459838204
% es.EZ (V/m) @ t=0.38
4.844564330371542
% es.tEX (V/m) @ t=0.38
6.064047995414994
% es.tEY (V/m) @ t=0.38
0
% es.tEZ (V/m) @ t=0.38
4.844564330371536
% es.Ex (V/m) @ t=0.38
6.064047995414966
% es.Ey (V/m) @ t=0.38
-0.9289781459838204
% es.Ez (V/m) @ t=0.38
4.844564330371542
% es.tEx (V/m) @ t=0.38
6.064047995414994
% es.tEy (V/m) @ t=0.38
0
% es.tEz (V/m) @ t=0.38
4.844564330371536
% V (V) @ t=0.38
0.00646247441915891
% es.normE (V/m) @ t=0.4
7.8995805474940965
% es.EX (V/m) @ t=0.4
6.121263693410352
% es.EY (V/m) @ t=0.4
-0.9377041106952024
% es.EZ (V/m) @ t=0.4
4.890283054912388
% es.tEX (V/m) @ t=0.4
6.121263693410386
% es.tEY (V/m) @ t=0.4
0
% es.tEZ (V/m) @ t=0.4
4.890283054912401
% es.Ex (V/m) @ t=0.4
6.121263693410352
% es.Ey (V/m) @ t=0.4
-0.9377041106952024
% es.Ez (V/m) @ t=0.4
4.890283054912388
% es.tEx (V/m) @ t=0.4
6.121263693410386
% es.tEy (V/m) @ t=0.4
0
% es.tEz (V/m) @ t=0.4
4.890283054912401
% V (V) @ t=0.4
0.006523397213726879
% es.normE (V/m) @ t=0.42
7.973417634977254
% es.EX (V/m) @ t=0.42
6.178479391405711
% es.EY (V/m) @ t=0.42
-0.9464300754065729
% es.EZ (V/m) @ t=0.42
4.936001779453255
% es.tEX (V/m) @ t=0.42
6.17847939140572
% es.tEY (V/m) @ t=0.42
0
% es.tEZ (V/m) @ t=0.42
4.936001779453246
% es.Ex (V/m) @ t=0.42
6.178479391405711
% es.Ey (V/m) @ t=0.42
-0.9464300754065729
% es.Ez (V/m) @ t=0.42
4.936001779453255
% es.tEx (V/m) @ t=0.42
6.17847939140572
% es.tEy (V/m) @ t=0.42
0
% es.tEz (V/m) @ t=0.42
4.936001779453246
% V (V) @ t=0.42
0.006584320008294849
% es.normE (V/m) @ t=0.44
8.047254722796147
% es.EX (V/m) @ t=0.44
6.235695089401076
% es.EY (V/m) @ t=0.44
-0.9551560401179451
% es.EZ (V/m) @ t=0.44
4.981720503994108
% es.tEX (V/m) @ t=0.44
6.235695089401082
% es.tEY (V/m) @ t=0.44
0
% es.tEZ (V/m) @ t=0.44
4.981720503994111
% es.Ex (V/m) @ t=0.44
6.235695089401076
% es.Ey (V/m) @ t=0.44
-0.9551560401179451
% es.Ez (V/m) @ t=0.44
4.981720503994108
% es.tEx (V/m) @ t=0.44
6.235695089401082
% es.tEy (V/m) @ t=0.44
0
% es.tEz (V/m) @ t=0.44
4.981720503994111
% V (V) @ t=0.44
0.00664524280286282
% es.normE (V/m) @ t=0.46
8.121091810941639
% es.EX (V/m) @ t=0.46
6.292910787396458
% es.EY (V/m) @ t=0.46
-0.9638820048292933
% es.EZ (V/m) @ t=0.46
5.027439228534968
% es.tEX (V/m) @ t=0.46
6.292910787396458
% es.tEY (V/m) @ t=0.46
0
% es.tEZ (V/m) @ t=0.46
5.027439228534962
% es.Ex (V/m) @ t=0.46
6.292910787396458
% es.Ey (V/m) @ t=0.46
-0.9638820048292933
% es.Ez (V/m) @ t=0.46
5.027439228534968
% es.tEx (V/m) @ t=0.46
6.292910787396458
% es.tEy (V/m) @ t=0.46
0
% es.tEz (V/m) @ t=0.46
5.027439228534962
% V (V) @ t=0.46
0.006706165597430791
% es.normE (V/m) @ t=0.48
8.194928899404854
% es.EX (V/m) @ t=0.48
6.3501264853918125
% es.EY (V/m) @ t=0.48
-0.9726079695406744
% es.EZ (V/m) @ t=0.48
5.073157953075807
% es.tEX (V/m) @ t=0.48
6.350126485391835
% es.tEY (V/m) @ t=0.48
0
% es.tEZ (V/m) @ t=0.48
5.073157953075813
% es.Ex (V/m) @ t=0.48
6.3501264853918125
% es.Ey (V/m) @ t=0.48
-0.9726079695406744
% es.Ez (V/m) @ t=0.48
5.073157953075807
% es.tEx (V/m) @ t=0.48
6.350126485391835
% es.tEy (V/m) @ t=0.48
0
% es.tEz (V/m) @ t=0.48
5.073157953075813
% V (V) @ t=0.48
0.006767088391998762
% es.normE (V/m) @ t=0.5
8.268765988177327
% es.EX (V/m) @ t=0.5
6.407342183387167
% es.EY (V/m) @ t=0.5
-0.9813339342520369
% es.EZ (V/m) @ t=0.5
5.1188766776166705
% es.tEX (V/m) @ t=0.5
6.407342183387198
% es.tEY (V/m) @ t=0.5
0
% es.tEZ (V/m) @ t=0.5
5.118876677616664
% es.Ex (V/m) @ t=0.5
6.407342183387167
% es.Ey (V/m) @ t=0.5
-0.9813339342520369
% es.Ez (V/m) @ t=0.5
5.1188766776166705
% es.tEx (V/m) @ t=0.5
6.407342183387198
% es.tEy (V/m) @ t=0.5
0
% es.tEz (V/m) @ t=0.5
5.118876677616664
% V (V) @ t=0.5
0.006828011186566731
% es.normE (V/m) @ t=0.52
8.342603077250832
% es.EX (V/m) @ t=0.52
6.46455788138251
% es.EY (V/m) @ t=0.52
-0.9900598989634197
% es.EZ (V/m) @ t=0.52
5.164595402157538
% es.tEX (V/m) @ t=0.52
6.46455788138256
% es.tEY (V/m) @ t=0.52
0
% es.tEZ (V/m) @ t=0.52
5.164595402157537
% es.Ex (V/m) @ t=0.52
6.46455788138251
% es.Ey (V/m) @ t=0.52
-0.9900598989634197
% es.Ez (V/m) @ t=0.52
5.164595402157538
% es.tEx (V/m) @ t=0.52
6.46455788138256
% es.tEy (V/m) @ t=0.52
0
% es.tEz (V/m) @ t=0.52
5.164595402157537
% V (V) @ t=0.52
0.006888933981134701
% es.normE (V/m) @ t=0.54
8.416440166617438
% es.EX (V/m) @ t=0.54
6.521773579377862
% es.EY (V/m) @ t=0.54
-0.9987858636747688
% es.EZ (V/m) @ t=0.54
5.210314126698384
% es.tEX (V/m) @ t=0.54
6.521773579377895
% es.tEY (V/m) @ t=0.54
0
% es.tEZ (V/m) @ t=0.54
5.21031412669838
% es.Ex (V/m) @ t=0.54
6.521773579377862
% es.Ey (V/m) @ t=0.54
-0.9987858636747688
% es.Ez (V/m) @ t=0.54
5.210314126698384
% es.tEx (V/m) @ t=0.54
6.521773579377895
% es.tEy (V/m) @ t=0.54
0
% es.tEz (V/m) @ t=0.54
5.21031412669838
% V (V) @ t=0.54
0.006949856775702672
% es.normE (V/m) @ t=0.56
8.497086808574801
% es.EX (V/m) @ t=0.56
6.5842650041956645
% es.EY (V/m) @ t=0.56
-1.0083933930447273
% es.EZ (V/m) @ t=0.56
5.260230510112336
% es.tEX (V/m) @ t=0.56
6.584265004195666
% es.tEY (V/m) @ t=0.56
0
% es.tEZ (V/m) @ t=0.56
5.260230510112335
% es.Ex (V/m) @ t=0.56
6.5842650041956645
% es.Ey (V/m) @ t=0.56
-1.0083933930447273
% es.Ez (V/m) @ t=0.56
5.260230510112336
% es.tEx (V/m) @ t=0.56
6.584265004195666
% es.tEy (V/m) @ t=0.56
0
% es.tEz (V/m) @ t=0.56
5.260230510112335
% V (V) @ t=0.56
0.007016499614295139
% es.normE (V/m) @ t=0.58
8.579640884975484
% es.EX (V/m) @ t=0.58
6.648234220671403
% es.EY (V/m) @ t=0.58
-1.0182478587974924
% es.EZ (V/m) @ t=0.58
5.3113227059734385
% es.tEX (V/m) @ t=0.58
6.648234220671444
% es.tEY (V/m) @ t=0.58
0
% es.tEZ (V/m) @ t=0.58
5.3113227059734305
% es.Ex (V/m) @ t=0.58
6.648234220671403
% es.Ey (V/m) @ t=0.58
-1.0182478587974924
% es.Ez (V/m) @ t=0.58
5.3113227059734385
% es.tEx (V/m) @ t=0.58
6.648234220671444
% es.tEy (V/m) @ t=0.58
0
% es.tEz (V/m) @ t=0.58
5.3113227059734305
% V (V) @ t=0.58
0.00708474470289544
% es.normE (V/m) @ t=0.6
8.662194962059992
% es.EX (V/m) @ t=0.6
6.712203437147098
% es.EY (V/m) @ t=0.6
-1.028102324550277
% es.EZ (V/m) @ t=0.6
5.362414901834545
% es.tEX (V/m) @ t=0.6
6.712203437147123
% es.tEY (V/m) @ t=0.6
0
% es.tEZ (V/m) @ t=0.6
5.362414901834541
% es.Ex (V/m) @ t=0.6
6.712203437147098
% es.Ey (V/m) @ t=0.6
-1.028102324550277
% es.Ez (V/m) @ t=0.6
5.362414901834545
% es.tEx (V/m) @ t=0.6
6.712203437147123
% es.tEy (V/m) @ t=0.6
0
% es.tEz (V/m) @ t=0.6
5.362414901834541
% V (V) @ t=0.6
0.007152989791495743
% es.normE (V/m) @ t=0.62
8.74474903980903
% es.EX (V/m) @ t=0.62
6.776172653622847
% es.EY (V/m) @ t=0.62
-1.0379567903030456
% es.EZ (V/m) @ t=0.62
5.413507097695659
% es.tEX (V/m) @ t=0.62
6.776172653622871
% es.tEY (V/m) @ t=0.62
0
% es.tEZ (V/m) @ t=0.62
5.413507097695652
% es.Ex (V/m) @ t=0.62
6.776172653622847
% es.Ey (V/m) @ t=0.62
-1.0379567903030456
% es.Ez (V/m) @ t=0.62
5.413507097695659
% es.tEx (V/m) @ t=0.62
6.776172653622871
% es.tEy (V/m) @ t=0.62
0
% es.tEz (V/m) @ t=0.62
5.413507097695652
% V (V) @ t=0.62
0.007221234880096045
% es.normE (V/m) @ t=0.64
8.8273031182039
% es.EX (V/m) @ t=0.64
6.840141870098584
% es.EY (V/m) @ t=0.64
-1.0478112560558213
% es.EZ (V/m) @ t=0.64
5.464599293556775
% es.tEX (V/m) @ t=0.64
6.840141870098607
% es.tEY (V/m) @ t=0.64
0
% es.tEZ (V/m) @ t=0.64
5.464599293556761
% es.Ex (V/m) @ t=0.64
6.840141870098584
% es.Ey (V/m) @ t=0.64
-1.0478112560558213
% es.Ez (V/m) @ t=0.64
5.464599293556775
% es.tEx (V/m) @ t=0.64
6.840141870098607
% es.tEy (V/m) @ t=0.64
0
% es.tEz (V/m) @ t=0.64
5.464599293556761
% V (V) @ t=0.64
0.007289479968696349
% es.normE (V/m) @ t=0.66
8.909857197226641
% es.EX (V/m) @ t=0.66
6.904111086574308
% es.EY (V/m) @ t=0.66
-1.0576657218085934
% es.EZ (V/m) @ t=0.66
5.515691489417882
% es.tEX (V/m) @ t=0.66
6.904111086574328
% es.tEY (V/m) @ t=0.66
0
% es.tEZ (V/m) @ t=0.66
5.515691489417879
% es.Ex (V/m) @ t=0.66
6.904111086574308
% es.Ey (V/m) @ t=0.66
-1.0576657218085934
% es.Ez (V/m) @ t=0.66
5.515691489417882
% es.tEx (V/m) @ t=0.66
6.904111086574328
% es.tEy (V/m) @ t=0.66
0
% es.tEz (V/m) @ t=0.66
5.515691489417879
% V (V) @ t=0.66
0.007357725057296651
% es.normE (V/m) @ t=0.68
8.992411276859968
% es.EX (V/m) @ t=0.68
6.968080303050018
% es.EY (V/m) @ t=0.68
-1.0675201875613762
% es.EZ (V/m) @ t=0.68
5.5667836852789945
% es.tEX (V/m) @ t=0.68
6.968080303050063
% es.tEY (V/m) @ t=0.68
0
% es.tEZ (V/m) @ t=0.68
5.566783685278982
% es.Ex (V/m) @ t=0.68
6.968080303050018
% es.Ey (V/m) @ t=0.68
-1.0675201875613762
% es.Ez (V/m) @ t=0.68
5.5667836852789945
% es.tEx (V/m) @ t=0.68
6.968080303050063
% es.tEy (V/m) @ t=0.68
0
% es.tEz (V/m) @ t=0.68
5.566783685278982
% V (V) @ t=0.68
0.007425970145896953
% es.normE (V/m) @ t=0.7
9.074965357087262
% es.EX (V/m) @ t=0.7
7.032049519525791
% es.EY (V/m) @ t=0.7
-1.0773746533141448
% es.EZ (V/m) @ t=0.7
5.617875881140094
% es.tEX (V/m) @ t=0.7
7.03204951952577
% es.tEY (V/m) @ t=0.7
0
% es.tEZ (V/m) @ t=0.7
5.617875881140092
% es.Ex (V/m) @ t=0.7
7.032049519525791
% es.Ey (V/m) @ t=0.7
-1.0773746533141448
% es.Ez (V/m) @ t=0.7
5.617875881140094
% es.tEx (V/m) @ t=0.7
7.03204951952577
% es.tEy (V/m) @ t=0.7
0
% es.tEz (V/m) @ t=0.7
5.617875881140092
% V (V) @ t=0.7
0.007494215234497256
% es.normE (V/m) @ t=0.72
9.15751943789237
% es.EX (V/m) @ t=0.72
7.096018736001486
% es.EY (V/m) @ t=0.72
-1.08722911906694
% es.EZ (V/m) @ t=0.72
5.66896807700121
% es.tEX (V/m) @ t=0.72
7.096018736001491
% es.tEY (V/m) @ t=0.72
0
% es.tEZ (V/m) @ t=0.72
5.668968077001195
% es.Ex (V/m) @ t=0.72
7.096018736001486
% es.Ey (V/m) @ t=0.72
-1.08722911906694
% es.Ez (V/m) @ t=0.72
5.66896807700121
% es.tEx (V/m) @ t=0.72
7.096018736001491
% es.tEy (V/m) @ t=0.72
0
% es.tEz (V/m) @ t=0.72
5.668968077001195
% V (V) @ t=0.72
0.007562460323097559
% es.normE (V/m) @ t=0.74
9.240073519259875
% es.EX (V/m) @ t=0.74
7.159987952477224
% es.EY (V/m) @ t=0.74
-1.0970835848197034
% es.EZ (V/m) @ t=0.74
5.720060272862317
% es.tEX (V/m) @ t=0.74
7.1599879524772545
% es.tEY (V/m) @ t=0.74
0
% es.tEZ (V/m) @ t=0.74
5.7200602728623124
% es.Ex (V/m) @ t=0.74
7.159987952477224
% es.Ey (V/m) @ t=0.74
-1.0970835848197034
% es.Ez (V/m) @ t=0.74
5.720060272862317
% es.tEx (V/m) @ t=0.74
7.1599879524772545
% es.tEy (V/m) @ t=0.74
0
% es.tEz (V/m) @ t=0.74
5.7200602728623124
% V (V) @ t=0.74
0.007630705411697862
% es.normE (V/m) @ t=0.76
9.32262760117479
% es.EX (V/m) @ t=0.76
7.223957168952941
% es.EY (V/m) @ t=0.76
-1.1069380505724578
% es.EZ (V/m) @ t=0.76
5.7711524687234235
% es.tEX (V/m) @ t=0.76
7.223957168952975
% es.tEY (V/m) @ t=0.76
0
% es.tEZ (V/m) @ t=0.76
5.771152468723409
% es.Ex (V/m) @ t=0.76
7.223957168952941
% es.Ey (V/m) @ t=0.76
-1.1069380505724578
% es.Ez (V/m) @ t=0.76
5.7711524687234235
% es.tEx (V/m) @ t=0.76
7.223957168952975
% es.tEy (V/m) @ t=0.76
0
% es.tEz (V/m) @ t=0.76
5.771152468723409
% V (V) @ t=0.76
0.007698950500298167
% es.normE (V/m) @ t=0.78
9.40518168362277
% es.EX (V/m) @ t=0.78
7.287926385428714
% es.EY (V/m) @ t=0.78
-1.1167925163252352
% es.EZ (V/m) @ t=0.78
5.822244664584526
% es.tEX (V/m) @ t=0.78
7.287926385428738
% es.tEY (V/m) @ t=0.78
0
% es.tEZ (V/m) @ t=0.78
5.822244664584533
% es.Ex (V/m) @ t=0.78
7.287926385428714
% es.Ey (V/m) @ t=0.78
-1.1167925163252352
% es.Ez (V/m) @ t=0.78
5.822244664584526
% es.tEx (V/m) @ t=0.78
7.287926385428738
% es.tEy (V/m) @ t=0.78
0
% es.tEz (V/m) @ t=0.78
5.822244664584533
% V (V) @ t=0.78
0.0077671955888984675
% es.normE (V/m) @ t=0.8
9.487735766589804
% es.EX (V/m) @ t=0.8
7.351895601904417
% es.EY (V/m) @ t=0.8
-1.1266469820780483
% es.EZ (V/m) @ t=0.8
5.873336860445643
% es.tEX (V/m) @ t=0.8
7.351895601904431
% es.tEY (V/m) @ t=0.8
0
% es.tEZ (V/m) @ t=0.8
5.8733368604456295
% es.Ex (V/m) @ t=0.8
7.351895601904417
% es.Ey (V/m) @ t=0.8
-1.1266469820780483
% es.Ez (V/m) @ t=0.8
5.873336860445643
% es.tEx (V/m) @ t=0.8
7.351895601904431
% es.tEy (V/m) @ t=0.8
0
% es.tEz (V/m) @ t=0.8
5.8733368604456295
% V (V) @ t=0.8
0.007835440677498771
% es.normE (V/m) @ t=0.82
9.571988560669455
% es.EX (V/m) @ t=0.82
7.417181295633767
% es.EY (V/m) @ t=0.82
-1.1366890345900202
% es.EZ (V/m) @ t=0.82
5.925484077095282
% es.tEX (V/m) @ t=0.82
7.417181295633794
% es.tEY (V/m) @ t=0.82
0
% es.tEZ (V/m) @ t=0.82
5.925484077095279
% es.Ex (V/m) @ t=0.82
7.417181295633767
% es.Ey (V/m) @ t=0.82
-1.1366890345900202
% es.Ez (V/m) @ t=0.82
5.925484077095282
% es.tEx (V/m) @ t=0.82
7.417181295633794
% es.tEy (V/m) @ t=0.82
0
% es.tEz (V/m) @ t=0.82
5.925484077095279
% V (V) @ t=0.82
0.007905069976248107
% es.normE (V/m) @ t=0.84
9.664153180371411
% es.EX (V/m) @ t=0.84
7.488598544691955
% es.EY (V/m) @ t=0.84
-1.14760478134178
% es.EZ (V/m) @ t=0.84
5.982545103171085
% es.tEX (V/m) @ t=0.84
7.488598544691985
% es.tEY (V/m) @ t=0.84
0
% es.tEZ (V/m) @ t=0.84
5.982545103171084
% es.Ex (V/m) @ t=0.84
7.488598544691955
% es.Ey (V/m) @ t=0.84
-1.14760478134178
% es.Ez (V/m) @ t=0.84
5.982545103171085
% es.tEx (V/m) @ t=0.84
7.488598544691985
% es.tEy (V/m) @ t=0.84
0
% es.tEz (V/m) @ t=0.84
5.982545103171084
% V (V) @ t=0.84
0.007981146299503654
% es.normE (V/m) @ t=0.86
9.756317800228132
% es.EX (V/m) @ t=0.86
7.5600157937501375
% es.EY (V/m) @ t=0.86
-1.158520528093515
% es.EZ (V/m) @ t=0.86
6.039606129246919
% es.tEX (V/m) @ t=0.86
7.560015793750164
% es.tEY (V/m) @ t=0.86
0
% es.tEZ (V/m) @ t=0.86
6.039606129246902
% es.Ex (V/m) @ t=0.86
7.5600157937501375
% es.Ey (V/m) @ t=0.86
-1.158520528093515
% es.Ez (V/m) @ t=0.86
6.039606129246919
% es.tEx (V/m) @ t=0.86
7.560015793750164
% es.tEy (V/m) @ t=0.86
0
% es.tEz (V/m) @ t=0.86
6.039606129246902
% V (V) @ t=0.86
0.0080572226227592
% es.normE (V/m) @ t=0.88
9.848482420235271
% es.EX (V/m) @ t=0.88
7.6314330428083545
% es.EY (V/m) @ t=0.88
-1.169436274845273
% es.EZ (V/m) @ t=0.88
6.096667155322718
% es.tEX (V/m) @ t=0.88
7.631433042808398
% es.tEY (V/m) @ t=0.88
0
% es.tEZ (V/m) @ t=0.88
6.096667155322715
% es.Ex (V/m) @ t=0.88
7.6314330428083545
% es.Ey (V/m) @ t=0.88
-1.169436274845273
% es.Ez (V/m) @ t=0.88
6.096667155322718
% es.tEx (V/m) @ t=0.88
7.631433042808398
% es.tEy (V/m) @ t=0.88
0
% es.tEz (V/m) @ t=0.88
6.096667155322715
% V (V) @ t=0.88
0.008133298946014746
% es.normE (V/m) @ t=0.9
9.940647040388658
% es.EX (V/m) @ t=0.9
7.7028502918666
% es.EY (V/m) @ t=0.9
-1.180352021597006
% es.EZ (V/m) @ t=0.9
6.15372818139852
% es.tEX (V/m) @ t=0.9
7.702850291866619
% es.tEY (V/m) @ t=0.9
0
% es.tEZ (V/m) @ t=0.9
6.153728181398534
% es.Ex (V/m) @ t=0.9
7.7028502918666
% es.Ey (V/m) @ t=0.9
-1.180352021597006
% es.Ez (V/m) @ t=0.9
6.15372818139852
% es.tEx (V/m) @ t=0.9
7.702850291866619
% es.tEy (V/m) @ t=0.9
0
% es.tEz (V/m) @ t=0.9
6.153728181398534
% V (V) @ t=0.9
0.008209375269270295
% es.normE (V/m) @ t=0.92
10.032811660684231
% es.EX (V/m) @ t=0.92
7.774267540924804
% es.EY (V/m) @ t=0.92
-1.191267768348796
% es.EZ (V/m) @ t=0.92
6.210789207474348
% es.tEX (V/m) @ t=0.92
7.774267540924811
% es.tEY (V/m) @ t=0.92
0
% es.tEZ (V/m) @ t=0.92
6.210789207474331
% es.Ex (V/m) @ t=0.92
7.774267540924804
% es.Ey (V/m) @ t=0.92
-1.191267768348796
% es.Ez (V/m) @ t=0.92
6.210789207474348
% es.tEx (V/m) @ t=0.92
7.774267540924811
% es.tEy (V/m) @ t=0.92
0
% es.tEz (V/m) @ t=0.92
6.210789207474331
% V (V) @ t=0.92
0.00828545159252584
% es.normE (V/m) @ t=0.94
10.124976281118105
% es.EX (V/m) @ t=0.94
7.845684789982992
% es.EY (V/m) @ t=0.94
-1.2021835151005202
% es.EZ (V/m) @ t=0.94
6.267850233550186
% es.tEX (V/m) @ t=0.94
7.845684789983059
% es.tEY (V/m) @ t=0.94
0
% es.tEZ (V/m) @ t=0.94
6.2678502335501705
% es.Ex (V/m) @ t=0.94
7.845684789982992
% es.Ey (V/m) @ t=0.94
-1.2021835151005202
% es.Ez (V/m) @ t=0.94
6.267850233550186
% es.tEx (V/m) @ t=0.94
7.845684789983059
% es.tEy (V/m) @ t=0.94
0
% es.tEz (V/m) @ t=0.94
6.2678502335501705
% V (V) @ t=0.94
0.008361527915781385
% es.normE (V/m) @ t=0.96
10.217140901686566
% es.EX (V/m) @ t=0.96
7.917102039041238
% es.EY (V/m) @ t=0.96
-1.2130992618522534
% es.EZ (V/m) @ t=0.96
6.324911259625974
% es.tEX (V/m) @ t=0.96
7.917102039041264
% es.tEY (V/m) @ t=0.96
0
% es.tEZ (V/m) @ t=0.96
6.324911259625983
% es.Ex (V/m) @ t=0.96
7.917102039041238
% es.Ey (V/m) @ t=0.96
-1.2130992618522534
% es.Ez (V/m) @ t=0.96
6.324911259625974
% es.tEx (V/m) @ t=0.96
7.917102039041264
% es.tEy (V/m) @ t=0.96
0
% es.tEz (V/m) @ t=0.96
6.324911259625983
% V (V) @ t=0.96
0.00843760423903693
% es.normE (V/m) @ t=0.98
10.309305522385987
% es.EX (V/m) @ t=0.98
7.988519288099448
% es.EY (V/m) @ t=0.98
-1.2240150086040043
% es.EZ (V/m) @ t=0.98
6.381972285701805
% es.tEX (V/m) @ t=0.98
7.988519288099485
% es.tEY (V/m) @ t=0.98
0
% es.tEZ (V/m) @ t=0.98
6.381972285701802
% es.Ex (V/m) @ t=0.98
7.988519288099448
% es.Ey (V/m) @ t=0.98
-1.2240150086040043
% es.Ez (V/m) @ t=0.98
6.381972285701805
% es.tEx (V/m) @ t=0.98
7.988519288099485
% es.tEy (V/m) @ t=0.98
0
% es.tEz (V/m) @ t=0.98
6.381972285701802
% V (V) @ t=0.98
0.008513680562292477
% es.normE (V/m) @ t=1
10.40147014321289
% es.EX (V/m) @ t=1
8.059936537157679
% es.EY (V/m) @ t=1
-1.2349307553557658
% es.EZ (V/m) @ t=1
6.439033311777607
% es.tEX (V/m) @ t=1
8.059936537157734
% es.tEY (V/m) @ t=1
0
% es.tEZ (V/m) @ t=1
6.439033311777599
% es.Ex (V/m) @ t=1
8.059936537157679
% es.Ey (V/m) @ t=1
-1.2349307553557658
% es.Ez (V/m) @ t=1
6.439033311777607
% es.tEx (V/m) @ t=1
8.059936537157734
% es.tEy (V/m) @ t=1
0
% es.tEz (V/m) @ t=1
6.439033311777599
% V (V) @ t=1
0.008589756885548024
% es.normE (V/m) @ t=1.02
10.493634764163922
% es.EX (V/m) @ t=1.02
8.131353786215897
% es.EY (V/m) @ t=1.02
-1.2458465021075096
% es.EZ (V/m) @ t=1.02
6.496094337853438
% es.tEX (V/m) @ t=1.02
8.13135378621591
% es.tEY (V/m) @ t=1.02
0
% es.tEZ (V/m) @ t=1.02
6.496094337853432
% es.Ex (V/m) @ t=1.02
8.131353786215897
% es.Ey (V/m) @ t=1.02
-1.2458465021075096
% es.Ez (V/m) @ t=1.02
6.496094337853438
% es.tEx (V/m) @ t=1.02
8.13135378621591
% es.tEy (V/m) @ t=1.02
0
% es.tEz (V/m) @ t=1.02
6.496094337853432
% V (V) @ t=1.02
0.00866583320880357
% es.normE (V/m) @ t=1.04
10.585799385235777
% es.EX (V/m) @ t=1.04
8.202771035274065
% es.EY (V/m) @ t=1.04
-1.256762248859232
% es.EZ (V/m) @ t=1.04
6.553155363929248
% es.tEX (V/m) @ t=1.04
8.20277103527409
% es.tEY (V/m) @ t=1.04
0
% es.tEZ (V/m) @ t=1.04
6.553155363929238
% es.Ex (V/m) @ t=1.04
8.202771035274065
% es.Ey (V/m) @ t=1.04
-1.256762248859232
% es.Ez (V/m) @ t=1.04
6.553155363929248
% es.tEx (V/m) @ t=1.04
8.20277103527409
% es.tEy (V/m) @ t=1.04
0
% es.tEz (V/m) @ t=1.04
6.553155363929238
% V (V) @ t=1.04
0.008741909532059118
% es.normE (V/m) @ t=1.06
10.67796400642542
% es.EX (V/m) @ t=1.06
8.274188284332283
% es.EY (V/m) @ t=1.06
-1.267677995610974
% es.EZ (V/m) @ t=1.06
6.61021639000505
% es.tEX (V/m) @ t=1.06
8.27418828433231
% es.tEY (V/m) @ t=1.06
0