% Model:              1 neuron.mph
% Version:            COMSOL 6.1.0.252
% Date:               Mar 18 2023, 12:09
% Dimension:          0
% Nodes:              14017
% Expressions:        14017
% Description:        Electric field norm, Electric field, X component, Electric field, Y component, Electric field, Z component, Tangential electric field, X component, Tangential electric field, Y component, Tangential electric field, Z component, Electric field, x component, Electric field, y component, Electric field, z component, Tangential electric field, x component, Tangential electric field, y component, Tangential electric field, z component, Electric potential
% Length unit:        mm
% x
1.33
% y
12.2
% z
2
% es.normE (V/m) @ t=0
1.456495629192104
% es.EX (V/m) @ t=0
0.5804683790702472
% es.EY (V/m) @ t=0
0.15346582233716077
% es.EZ (V/m) @ t=0
-1.3258052621664378
% es.tEX (V/m) @ t=0
0.5804683790702438
% es.tEY (V/m) @ t=0
0
% es.tEZ (V/m) @ t=0
-1.3258052621664387
% es.Ex (V/m) @ t=0
0.5804683790702472
% es.Ey (V/m) @ t=0
0.15346582233716077
% es.Ez (V/m) @ t=0
-1.3258052621664378
% es.tEx (V/m) @ t=0
0.5804683790702438
% es.tEy (V/m) @ t=0
0
% es.tEz (V/m) @ t=0
-1.3258052621664387
% V (V) @ t=0
0.0072825986691686505
% es.normE (V/m) @ t=0.02
1.2579953856632815
% es.EX (V/m) @ t=0.02
0.5013585544962582
% es.EY (V/m) @ t=0.02
0.13255055071187183
% es.EZ (V/m) @ t=0.02
-1.1451163108137266
% es.tEX (V/m) @ t=0.02
0.5013585544962549
% es.tEY (V/m) @ t=0.02
0
% es.tEZ (V/m) @ t=0.02
-1.1451163108137319
% es.Ex (V/m) @ t=0.02
0.5013585544962582
% es.Ey (V/m) @ t=0.02
0.13255055071187183
% es.Ez (V/m) @ t=0.02
-1.1451163108137266
% es.tEx (V/m) @ t=0.02
0.5013585544962549
% es.tEy (V/m) @ t=0.02
0
% es.tEz (V/m) @ t=0.02
-1.1451163108137319
% V (V) @ t=0.02
0.006290080992347701
% es.normE (V/m) @ t=0.04
1.2695708916503567
% es.EX (V/m) @ t=0.04
0.5059718316987831
% es.EY (V/m) @ t=0.04
0.13377022422828455
% es.EZ (V/m) @ t=0.04
-1.15565315341685
% es.tEX (V/m) @ t=0.04
0.5059718316987833
% es.tEY (V/m) @ t=0.04
0
% es.tEZ (V/m) @ t=0.04
-1.15565315341685
% es.Ex (V/m) @ t=0.04
0.5059718316987831
% es.Ey (V/m) @ t=0.04
0.13377022422828455
% es.Ez (V/m) @ t=0.04
-1.15565315341685
% es.tEx (V/m) @ t=0.04
0.5059718316987833
% es.tEy (V/m) @ t=0.04
0
% es.tEz (V/m) @ t=0.04
-1.15565315341685
% V (V) @ t=0.04
0.0063479593706417935
% es.normE (V/m) @ t=0.06
1.2812532583144178
% es.EX (V/m) @ t=0.06
0.5106276968968284
% es.EY (V/m) @ t=0.06
0.1350011573234804
% es.EZ (V/m) @ t=0.06
-1.1662872681602243
% es.tEX (V/m) @ t=0.06
0.5106276968968286
% es.tEY (V/m) @ t=0.06
0
% es.tEZ (V/m) @ t=0.06
-1.1662872681602288
% es.Ex (V/m) @ t=0.06
0.5106276968968284
% es.Ey (V/m) @ t=0.06
0.1350011573234804
% es.Ez (V/m) @ t=0.06
-1.1662872681602243
% es.tEx (V/m) @ t=0.06
0.5106276968968286
% es.tEy (V/m) @ t=0.06
0
% es.tEz (V/m) @ t=0.06
-1.1662872681602288
% V (V) @ t=0.06
0.006406372060615492
% es.normE (V/m) @ t=0.08
1.293108066326262
% es.EX (V/m) @ t=0.08
0.515352281495358
% es.EY (V/m) @ t=0.08
0.13625025215522157
% es.EZ (V/m) @ t=0.08
-1.1770783538708036
% es.tEX (V/m) @ t=0.08
0.5153522814953582
% es.tEY (V/m) @ t=0.08
0
% es.tEZ (V/m) @ t=0.08
-1.1770783538708045
% es.Ex (V/m) @ t=0.08
0.515352281495358
% es.Ey (V/m) @ t=0.08
0.13625025215522157
% es.Ez (V/m) @ t=0.08
-1.1770783538708036
% es.tEx (V/m) @ t=0.08
0.5153522814953582
% es.tEy (V/m) @ t=0.08
0
% es.tEz (V/m) @ t=0.08
-1.1770783538708045
% V (V) @ t=0.08
0.006465647244283047
% es.normE (V/m) @ t=0.1
1.3050949140102335
% es.EX (V/m) @ t=0.1
0.5201294850696885
% es.EY (V/m) @ t=0.1
0.13751325356895538
% es.EZ (V/m) @ t=0.1
-1.1879896334635953
% es.tEX (V/m) @ t=0.1
0.5201294850696887
% es.tEY (V/m) @ t=0.1
0
% es.tEZ (V/m) @ t=0.1
-1.1879896334635962
% es.Ex (V/m) @ t=0.1
0.5201294850696885
% es.Ey (V/m) @ t=0.1
0.13751325356895538
% es.Ez (V/m) @ t=0.1
-1.1879896334635953
% es.tEx (V/m) @ t=0.1
0.5201294850696887
% es.tEy (V/m) @ t=0.1
0
% es.tEz (V/m) @ t=0.1
-1.1879896334635962
% V (V) @ t=0.1
0.006525582846034873
% es.normE (V/m) @ t=0.12
1.3170817616941992
% es.EX (V/m) @ t=0.12
0.524906688644023
% es.EY (V/m) @ t=0.12
0.13877625498268475
% es.EZ (V/m) @ t=0.12
-1.19890091305638
% es.tEX (V/m) @ t=0.12
0.5249066886440197
% es.tEY (V/m) @ t=0.12
0
% es.tEZ (V/m) @ t=0.12
-1.1989009130563844
% es.Ex (V/m) @ t=0.12
0.524906688644023
% es.Ey (V/m) @ t=0.12
0.13877625498268475
% es.Ez (V/m) @ t=0.12
-1.19890091305638
% es.tEx (V/m) @ t=0.12
0.5249066886440197
% es.tEy (V/m) @ t=0.12
0
% es.tEz (V/m) @ t=0.12
-1.1989009130563844
% V (V) @ t=0.12
0.0065855184477867
% es.normE (V/m) @ t=0.14
1.3291605839439207
% es.EX (V/m) @ t=0.14
0.529720548711931
% es.EY (V/m) @ t=0.14
0.1400489493124364
% es.EZ (V/m) @ t=0.14
-1.209895913770482
% es.tEX (V/m) @ t=0.14
0.5297205487119312
% es.tEY (V/m) @ t=0.14
0
% es.tEZ (V/m) @ t=0.14
-1.209895913770488
% es.Ex (V/m) @ t=0.14
0.529720548711931
% es.Ey (V/m) @ t=0.14
0.1400489493124364
% es.Ez (V/m) @ t=0.14
-1.209895913770482
% es.tEx (V/m) @ t=0.14
0.5297205487119312
% es.tEy (V/m) @ t=0.14
0
% es.tEz (V/m) @ t=0.14
-1.209895913770488
% V (V) @ t=0.14
0.0066459138652433716
% es.normE (V/m) @ t=0.16
1.3417918702499034
% es.EX (V/m) @ t=0.16
0.5347545935120199
% es.EY (V/m) @ t=0.16
0.14137986612633568
% es.EZ (V/m) @ t=0.16
-1.221393802537369
% es.tEX (V/m) @ t=0.16
0.5347545935120164
% es.tEY (V/m) @ t=0.16
0
% es.tEZ (V/m) @ t=0.16
-1.2213938025373725
% es.Ex (V/m) @ t=0.16
0.5347545935120199
% es.Ey (V/m) @ t=0.16
0.14137986612633568
% es.Ez (V/m) @ t=0.16
-1.221393802537369
% es.tEx (V/m) @ t=0.16
0.5347545935120164
% es.tEy (V/m) @ t=0.16
0
% es.tEz (V/m) @ t=0.16
-1.2213938025373725
% V (V) @ t=0.16
0.006709071259855237
% es.normE (V/m) @ t=0.18
1.3544231565558775
% es.EX (V/m) @ t=0.18
0.5397886383120947
% es.EY (V/m) @ t=0.18
0.14271078294023676
% es.EZ (V/m) @ t=0.18
-1.2328916913042525
% es.tEX (V/m) @ t=0.18
0.5397886383120949
% es.tEY (V/m) @ t=0.18
0
% es.tEZ (V/m) @ t=0.18
-1.2328916913042534
% es.Ex (V/m) @ t=0.18
0.5397886383120947
% es.Ey (V/m) @ t=0.18
0.14271078294023676
% es.Ez (V/m) @ t=0.18
-1.2328916913042525
% es.tEx (V/m) @ t=0.18
0.5397886383120949
% es.tEy (V/m) @ t=0.18
0
% es.tEz (V/m) @ t=0.18
-1.2328916913042534
% V (V) @ t=0.18
0.006772228654467099
% es.normE (V/m) @ t=0.2
1.3670544428618605
% es.EX (V/m) @ t=0.2
0.5448226831121834
% es.EY (V/m) @ t=0.2
0.14404169975413783
% es.EZ (V/m) @ t=0.2
-1.2443895800711404
% es.tEX (V/m) @ t=0.2
0.5448226831121801
% es.tEY (V/m) @ t=0.2
0
% es.tEZ (V/m) @ t=0.2
-1.2443895800711413
% es.Ex (V/m) @ t=0.2
0.5448226831121834
% es.Ey (V/m) @ t=0.2
0.14404169975413783
% es.Ez (V/m) @ t=0.2
-1.2443895800711404
% es.tEx (V/m) @ t=0.2
0.5448226831121801
% es.tEy (V/m) @ t=0.2
0
% es.tEz (V/m) @ t=0.2
-1.2443895800711413
% V (V) @ t=0.2
0.006835386049078965
% es.normE (V/m) @ t=0.22
1.3796857291678464
% es.EX (V/m) @ t=0.22
0.5498567279122726
% es.EY (V/m) @ t=0.22
0.1453726165680389
% es.EZ (V/m) @ t=0.22
-1.2558874688380302
% es.tEX (V/m) @ t=0.22
0.5498567279122728
% es.tEY (V/m) @ t=0.22
0
% es.tEZ (V/m) @ t=0.22
-1.2558874688380328
% es.Ex (V/m) @ t=0.22
0.5498567279122726
% es.Ey (V/m) @ t=0.22
0.1453726165680389
% es.Ez (V/m) @ t=0.22
-1.2558874688380302
% es.tEx (V/m) @ t=0.22
0.5498567279122728
% es.tEy (V/m) @ t=0.22
0
% es.tEz (V/m) @ t=0.22
-1.2558874688380328
% V (V) @ t=0.22
0.00689854344369083
% es.normE (V/m) @ t=0.24
1.3923170154738214
% es.EX (V/m) @ t=0.24
0.5548907727123507
% es.EY (V/m) @ t=0.24
0.1467035333819311
% es.EZ (V/m) @ t=0.24
-1.2673853576049146
% es.tEX (V/m) @ t=0.24
0.5548907727123509
% es.tEY (V/m) @ t=0.24
0
% es.tEZ (V/m) @ t=0.24
-1.2673853576049172
% es.Ex (V/m) @ t=0.24
0.5548907727123507
% es.Ey (V/m) @ t=0.24
0.1467035333819311
% es.Ez (V/m) @ t=0.24
-1.2673853576049146
% es.tEx (V/m) @ t=0.24
0.5548907727123509
% es.tEy (V/m) @ t=0.24
0
% es.tEz (V/m) @ t=0.24
-1.2673853576049172
% V (V) @ t=0.24
0.006961700838302695
% es.normE (V/m) @ t=0.26
1.4049483017798046
% es.EX (V/m) @ t=0.26
0.5599248175124403
% es.EY (V/m) @ t=0.26
0.14803445019584416
% es.EZ (V/m) @ t=0.26
-1.2788832463718007
% es.tEX (V/m) @ t=0.26
0.559924817512437
% es.tEY (V/m) @ t=0.26
0
% es.tEZ (V/m) @ t=0.26
-1.2788832463718052
% es.Ex (V/m) @ t=0.26
0.5599248175124403
% es.Ey (V/m) @ t=0.26
0.14803445019584416
% es.Ez (V/m) @ t=0.26
-1.2788832463718007
% es.tEx (V/m) @ t=0.26
0.559924817512437
% es.tEy (V/m) @ t=0.26
0
% es.tEz (V/m) @ t=0.26
-1.2788832463718052
% V (V) @ t=0.26
0.0070248582329145584
% es.normE (V/m) @ t=0.28
1.4180093828540503
% es.EX (V/m) @ t=0.28
0.5651298722724227
% es.EY (V/m) @ t=0.28
0.1494102303423448
% es.EZ (V/m) @ t=0.28
-1.2907725129345762
% es.tEX (V/m) @ t=0.28
0.565129872272423
% es.tEY (V/m) @ t=0.28
0
% es.tEZ (V/m) @ t=0.28
-1.2907725129345788
% es.Ex (V/m) @ t=0.28
0.5651298722724227
% es.Ey (V/m) @ t=0.28
0.1494102303423448
% es.Ez (V/m) @ t=0.28
-1.2907725129345762
% es.tEx (V/m) @ t=0.28
0.565129872272423
% es.tEy (V/m) @ t=0.28
0
% es.tEz (V/m) @ t=0.28
-1.2907725129345788
% V (V) @ t=0.28
0.007090179683986027
% es.normE (V/m) @ t=0.3
1.432095277955878
% es.EX (V/m) @ t=0.3
0.5707426877084101
% es.EY (V/m) @ t=0.3
0.1508929838069113
% es.EZ (V/m) @ t=0.3
-1.3035949910758946
% es.tEX (V/m) @ t=0.3
0.5707426877084103
% es.tEY (V/m) @ t=0.3
0
% es.tEZ (V/m) @ t=0.3
-1.3035949910758955
% es.Ex (V/m) @ t=0.3
0.5707426877084101
% es.Ey (V/m) @ t=0.3
0.1508929838069113
% es.Ez (V/m) @ t=0.3
-1.3035949910758946
% es.tEx (V/m) @ t=0.3
0.5707426877084103
% es.tEy (V/m) @ t=0.3
0
% es.tEz (V/m) @ t=0.3
-1.3035949910758955
% V (V) @ t=0.3
0.007160661168574712
% es.normE (V/m) @ t=0.32
1.4461811730621867
% es.EX (V/m) @ t=0.32
0.5763555031443901
% es.EY (V/m) @ t=0.32
0.1523757372715009
% es.EZ (V/m) @ t=0.32
-1.3164174692171935
% es.tEX (V/m) @ t=0.32
0.5763555031443901
% es.tEY (V/m) @ t=0.32
0
% es.tEZ (V/m) @ t=0.32
-1.3164174692171962
% es.Ex (V/m) @ t=0.32
0.5763555031443901
% es.Ey (V/m) @ t=0.32
0.1523757372715009
% es.Ez (V/m) @ t=0.32
-1.3164174692171935
% es.tEx (V/m) @ t=0.32
0.5763555031443901
% es.tEy (V/m) @ t=0.32
0
% es.tEz (V/m) @ t=0.32
-1.3164174692171962
% V (V) @ t=0.32
0.007231142653163398
% es.normE (V/m) @ t=0.34
1.460267068172878
% es.EX (V/m) @ t=0.34
0.5819683185803772
% es.EY (V/m) @ t=0.34
0.1538584907360745
% es.EZ (V/m) @ t=0.34
-1.3292399473585048
% es.tEX (V/m) @ t=0.34
0.5819683185803775
% es.tEY (V/m) @ t=0.34
0
% es.tEZ (V/m) @ t=0.34
-1.3292399473585093
% es.Ex (V/m) @ t=0.34
0.5819683185803772
% es.Ey (V/m) @ t=0.34
0.1538584907360745
% es.Ez (V/m) @ t=0.34
-1.3292399473585048
% es.tEx (V/m) @ t=0.34
0.5819683185803775
% es.tEy (V/m) @ t=0.34
0
% es.tEz (V/m) @ t=0.34
-1.3292399473585093
% V (V) @ t=0.34
0.007301624137752083
% es.normE (V/m) @ t=0.36
1.47435296328781
% es.EX (V/m) @ t=0.36
0.5875811340163641
% es.EY (V/m) @ t=0.36
0.15534124420064988
% es.EZ (V/m) @ t=0.36
-1.3420624254998126
% es.tEX (V/m) @ t=0.36
0.5875811340163644
% es.tEY (V/m) @ t=0.36
0
% es.tEZ (V/m) @ t=0.36
-1.3420624254998188
% es.Ex (V/m) @ t=0.36
0.5875811340163641
% es.Ey (V/m) @ t=0.36
0.15534124420064988
% es.Ez (V/m) @ t=0.36
-1.3420624254998126
% es.tEx (V/m) @ t=0.36
0.5875811340163644
% es.tEy (V/m) @ t=0.36
0
% es.tEz (V/m) @ t=0.36
-1.3420624254998188
% V (V) @ t=0.36
0.007372105622340768
% es.normE (V/m) @ t=0.38
1.4884388584068726
% es.EX (V/m) @ t=0.38
0.5931939494523581
% es.EY (V/m) @ t=0.38
0.15682399766522703
% es.EZ (V/m) @ t=0.38
-1.354884903641124
% es.tEX (V/m) @ t=0.38
0.5931939494523584
% es.tEY (V/m) @ t=0.38
0
% es.tEZ (V/m) @ t=0.38
-1.3548849036411266
% es.Ex (V/m) @ t=0.38
0.5931939494523581
% es.Ey (V/m) @ t=0.38
0.15682399766522703
% es.Ez (V/m) @ t=0.38
-1.354884903641124
% es.tEx (V/m) @ t=0.38
0.5931939494523584
% es.tEy (V/m) @ t=0.38
0
% es.tEz (V/m) @ t=0.38
-1.3548849036411266
% V (V) @ t=0.38
0.007442587106929453
% es.normE (V/m) @ t=0.4
1.5025247535299395
% es.EX (V/m) @ t=0.4
0.5988067648883455
% es.EY (V/m) @ t=0.4
0.15830675112980064
% es.EZ (V/m) @ t=0.4
-1.3677073817824352
% es.tEX (V/m) @ t=0.4
0.5988067648883457
% es.tEY (V/m) @ t=0.4
0
% es.tEZ (V/m) @ t=0.4
-1.3677073817824432
% es.Ex (V/m) @ t=0.4
0.5988067648883455
% es.Ey (V/m) @ t=0.4
0.15830675112980064
% es.Ez (V/m) @ t=0.4
-1.3677073817824352
% es.tEx (V/m) @ t=0.4
0.5988067648883457
% es.tEy (V/m) @ t=0.4
0
% es.tEz (V/m) @ t=0.4
-1.3677073817824432
% V (V) @ t=0.4
0.007513068591518138
% es.normE (V/m) @ t=0.42
1.5166106486568953
% es.EX (V/m) @ t=0.42
0.6044195803243253
% es.EY (V/m) @ t=0.42
0.1597895045943778
% es.EZ (V/m) @ t=0.42
-1.3805298599237412
% es.tEX (V/m) @ t=0.42
0.6044195803243255
% es.tEY (V/m) @ t=0.42
0
% es.tEZ (V/m) @ t=0.42
-1.380529859923742
% es.Ex (V/m) @ t=0.42
0.6044195803243253
% es.Ey (V/m) @ t=0.42
0.1597895045943778
% es.Ez (V/m) @ t=0.42
-1.3805298599237412
% es.tEx (V/m) @ t=0.42
0.6044195803243255
% es.tEy (V/m) @ t=0.42
0
% es.tEz (V/m) @ t=0.42
-1.380529859923742
% V (V) @ t=0.42
0.007583550076106825
% es.normE (V/m) @ t=0.44
1.5306965437876454
% es.EX (V/m) @ t=0.44
0.6100323957603158
% es.EY (V/m) @ t=0.44
0.16127225805895007
% es.EZ (V/m) @ t=0.44
-1.393352338065049
% es.tEX (V/m) @ t=0.44
0.6100323957603124
% es.tEY (V/m) @ t=0.44
0
% es.tEZ (V/m) @ t=0.44
-1.3933523380650517
% es.Ex (V/m) @ t=0.44
0.6100323957603158
% es.Ey (V/m) @ t=0.44
0.16127225805895007
% es.Ez (V/m) @ t=0.44
-1.393352338065049
% es.tEx (V/m) @ t=0.44
0.6100323957603124
% es.tEy (V/m) @ t=0.44
0
% es.tEz (V/m) @ t=0.44
-1.3933523380650517
% V (V) @ t=0.44
0.007654031560695509
% es.normE (V/m) @ t=0.46
1.5447824389220766
% es.EX (V/m) @ t=0.46
0.615645211196292
% es.EY (V/m) @ t=0.46
0.16275501152352367
% es.EZ (V/m) @ t=0.46
-1.4061748162063585
% es.tEX (V/m) @ t=0.46
0.6156452111962922
% es.tEY (V/m) @ t=0.46
0
% es.tEZ (V/m) @ t=0.46
-1.4061748162063612
% es.Ex (V/m) @ t=0.46
0.615645211196292
% es.Ey (V/m) @ t=0.46
0.16275501152352367
% es.Ez (V/m) @ t=0.46
-1.4061748162063585
% es.tEx (V/m) @ t=0.46
0.6156452111962922
% es.tEy (V/m) @ t=0.46
0
% es.tEz (V/m) @ t=0.46
-1.4061748162063612
% V (V) @ t=0.46
0.007724513045284195
% es.normE (V/m) @ t=0.48
1.5588683340600955
% es.EX (V/m) @ t=0.48
0.6212580266322794
% es.EY (V/m) @ t=0.48
0.16423776498809728
% es.EZ (V/m) @ t=0.48
-1.4189972943476663
% es.tEX (V/m) @ t=0.48
0.6212580266322796
% es.tEY (V/m) @ t=0.48
0
% es.tEZ (V/m) @ t=0.48
-1.418997294347669
% es.Ex (V/m) @ t=0.48
0.6212580266322794
% es.Ey (V/m) @ t=0.48
0.16423776498809728
% es.Ez (V/m) @ t=0.48
-1.4189972943476663
% es.tEx (V/m) @ t=0.48
0.6212580266322796
% es.tEy (V/m) @ t=0.48
0
% es.tEz (V/m) @ t=0.48
-1.418997294347669
% V (V) @ t=0.48
0.00779499452987288
% es.normE (V/m) @ t=0.5
1.5729542292016099
% es.EX (V/m) @ t=0.5
0.6268708420682698
% es.EY (V/m) @ t=0.5
0.1657205184526762
% es.EZ (V/m) @ t=0.5
-1.4318197724889794
% es.tEX (V/m) @ t=0.5
0.6268708420682665
% es.tEY (V/m) @ t=0.5
0
% es.tEZ (V/m) @ t=0.5
-1.431819772488982
% es.Ex (V/m) @ t=0.5
0.6268708420682698
% es.Ey (V/m) @ t=0.5
0.1657205184526762
% es.Ez (V/m) @ t=0.5
-1.4318197724889794
% es.tEx (V/m) @ t=0.5
0.6268708420682665
% es.tEy (V/m) @ t=0.5
0
% es.tEz (V/m) @ t=0.5
-1.431819772488982
% V (V) @ t=0.5
0.007865476014461565
% es.normE (V/m) @ t=0.52
1.5870401243465173
% es.EX (V/m) @ t=0.52
0.6324836575042678
% es.EY (V/m) @ t=0.52
0.16720327191724937
% es.EZ (V/m) @ t=0.52
-1.4446422506302872
% es.tEX (V/m) @ t=0.52
0.632483657504268
% es.tEY (V/m) @ t=0.52
0
% es.tEZ (V/m) @ t=0.52
-1.4446422506302898
% es.Ex (V/m) @ t=0.52
0.6324836575042678
% es.Ey (V/m) @ t=0.52
0.16720327191724937
% es.Ez (V/m) @ t=0.52
-1.4446422506302872
% es.tEx (V/m) @ t=0.52
0.632483657504268
% es.tEy (V/m) @ t=0.52
0
% es.tEz (V/m) @ t=0.52
-1.4446422506302898
% V (V) @ t=0.52
0.007935957499050251
% es.normE (V/m) @ t=0.54
1.6011260194947203
% es.EX (V/m) @ t=0.54
0.6380964729402405
% es.EY (V/m) @ t=0.54
0.16868602538182875
% es.EZ (V/m) @ t=0.54
-1.4574647287715932
% es.tEX (V/m) @ t=0.54
0.6380964729402407
% es.tEY (V/m) @ t=0.54
0
% es.tEZ (V/m) @ t=0.54
-1.4574647287715923
% es.Ex (V/m) @ t=0.54
0.6380964729402405
% es.Ey (V/m) @ t=0.54
0.16868602538182875
% es.Ez (V/m) @ t=0.54
-1.4574647287715932
% es.tEx (V/m) @ t=0.54
0.6380964729402407
% es.tEy (V/m) @ t=0.54
0
% es.tEz (V/m) @ t=0.54
-1.4574647287715923
% V (V) @ t=0.54
0.008006438983638937
% es.normE (V/m) @ t=0.56
1.616196071765676
% es.EX (V/m) @ t=0.56
0.644102884877259
% es.EY (V/m) @ t=0.56
0.17027454974292722
% es.EZ (V/m) @ t=0.56
-1.4711823284530512
% es.tEX (V/m) @ t=0.56
0.6441028848772592
% es.tEY (V/m) @ t=0.56
0
% es.tEZ (V/m) @ t=0.56
-1.4711823284530574
% es.Ex (V/m) @ t=0.56
0.644102884877259
% es.Ey (V/m) @ t=0.56
0.17027454974292722
% es.Ez (V/m) @ t=0.56
-1.4711823284530512
% es.tEx (V/m) @ t=0.56
0.6441028848772592
% es.tEy (V/m) @ t=0.56
0
% es.tEz (V/m) @ t=0.56
-1.4711823284530574
% V (V) @ t=0.56
0.008081767458944048
% es.normE (V/m) @ t=0.58
1.6319195752538678
% es.EX (V/m) @ t=0.58
0.6503706332455266
% es.EY (V/m) @ t=0.58
0.17193330284983732
% es.EZ (V/m) @ t=0.58
-1.4854942623529572
% es.tEX (V/m) @ t=0.58
0.6503706332455268
% es.tEY (V/m) @ t=0.58
0
% es.tEZ (V/m) @ t=0.58
-1.4854942623529617
% es.Ex (V/m) @ t=0.58
0.6503706332455266
% es.Ey (V/m) @ t=0.58
0.17193330284983732
% es.Ez (V/m) @ t=0.58
-1.4854942623529572
% es.tEx (V/m) @ t=0.58
0.6503706332455268
% es.tEy (V/m) @ t=0.58
0
% es.tEz (V/m) @ t=0.58
-1.4854942623529617
% V (V) @ t=0.58
0.008160314192675532
% es.normE (V/m) @ t=0.6
1.6476430787515068
% es.EX (V/m) @ t=0.6
0.6566383816137717
% es.EY (V/m) @ t=0.6
0.1735920559567563
% es.EZ (V/m) @ t=0.6
-1.499806196252858
% es.tEX (V/m) @ t=0.6
0.6566383816137722
% es.tEY (V/m) @ t=0.6
0
% es.tEZ (V/m) @ t=0.6
-1.4998061962528588
% es.Ex (V/m) @ t=0.6
0.6566383816137717
% es.Ey (V/m) @ t=0.6
0.1735920559567563
% es.Ez (V/m) @ t=0.6
-1.499806196252858
% es.tEx (V/m) @ t=0.6
0.6566383816137722
% es.tEy (V/m) @ t=0.6
0
% es.tEz (V/m) @ t=0.6
-1.4998061962528588
% V (V) @ t=0.6
0.008238860926407016
% es.normE (V/m) @ t=0.62
1.6633665822583348
% es.EX (V/m) @ t=0.62
0.662906129982032
% es.EY (V/m) @ t=0.62
0.1752508090636682
% es.EZ (V/m) @ t=0.62
-1.5141181301527515
% es.tEX (V/m) @ t=0.62
0.6629061299820322
% es.tEY (V/m) @ t=0.62
0
% es.tEZ (V/m) @ t=0.62
-1.5141181301527542
% es.Ex (V/m) @ t=0.62
0.662906129982032
% es.Ey (V/m) @ t=0.62
0.1752508090636682
% es.Ez (V/m) @ t=0.62
-1.5141181301527515
% es.tEx (V/m) @ t=0.62
0.6629061299820322
% es.tEy (V/m) @ t=0.62
0
% es.tEz (V/m) @ t=0.62
-1.5141181301527542
% V (V) @ t=0.62
0.008317407660138502
% es.normE (V/m) @ t=0.64
1.6790900857741062
% es.EX (V/m) @ t=0.64
0.6691738783502992
% es.EY (V/m) @ t=0.64
0.1769095621705814
% es.EZ (V/m) @ t=0.64
-1.528430064052654
% es.tEX (V/m) @ t=0.64
0.6691738783502994
% es.tEY (V/m) @ t=0.64
0
% es.tEZ (V/m) @ t=0.64
-1.528430064052655
% es.Ex (V/m) @ t=0.64
0.6691738783502992
% es.Ey (V/m) @ t=0.64
0.1769095621705814
% es.Ez (V/m) @ t=0.64
-1.528430064052654
% es.tEx (V/m) @ t=0.64
0.6691738783502994
% es.tEy (V/m) @ t=0.64
0
% es.tEz (V/m) @ t=0.64
-1.528430064052655
% V (V) @ t=0.64
0.008395954393869986
% es.normE (V/m) @ t=0.66
1.694813589298561
% es.EX (V/m) @ t=0.66
0.6754416267185592
% es.EY (V/m) @ t=0.66
0.17856831527750883
% es.EZ (V/m) @ t=0.66
-1.5427419979525565
% es.tEX (V/m) @ t=0.66
0.6754416267185595
% es.tEY (V/m) @ t=0.66
0
% es.tEZ (V/m) @ t=0.66
-1.5427419979525574
% es.Ex (V/m) @ t=0.66
0.6754416267185592
% es.Ey (V/m) @ t=0.66
0.17856831527750883
% es.Ez (V/m) @ t=0.66
-1.5427419979525565
% es.tEx (V/m) @ t=0.66
0.6754416267185595
% es.tEy (V/m) @ t=0.66
0
% es.tEz (V/m) @ t=0.66
-1.5427419979525574
% V (V) @ t=0.66
0.00847450112760147
% es.normE (V/m) @ t=0.68
1.7105370928314527
% es.EX (V/m) @ t=0.68
0.6817093750868122
% es.EY (V/m) @ t=0.68
0.18022706838440783
% es.EZ (V/m) @ t=0.68
-1.5570539318524572
% es.tEX (V/m) @ t=0.68
0.6817093750868124
% es.tEY (V/m) @ t=0.68
0
% es.tEZ (V/m) @ t=0.68
-1.557053931852458
% es.Ex (V/m) @ t=0.68
0.6817093750868122
% es.Ey (V/m) @ t=0.68
0.18022706838440783
% es.Ez (V/m) @ t=0.68
-1.5570539318524572
% es.tEx (V/m) @ t=0.68
0.6817093750868124
% es.tEy (V/m) @ t=0.68
0
% es.tEz (V/m) @ t=0.68
-1.557053931852458
% V (V) @ t=0.68
0.008553047861332954
% es.normE (V/m) @ t=0.7
1.7262605963725621
% es.EX (V/m) @ t=0.7
0.6879771234550722
% es.EY (V/m) @ t=0.7
0.18188582149133214
% es.EZ (V/m) @ t=0.7
-1.5713658657523562
% es.tEX (V/m) @ t=0.7
0.6879771234550724
% es.tEY (V/m) @ t=0.7
0
% es.tEZ (V/m) @ t=0.7
-1.5713658657523606
% es.Ex (V/m) @ t=0.7
0.6879771234550722
% es.Ey (V/m) @ t=0.7
0.18188582149133214
% es.Ez (V/m) @ t=0.7
-1.5713658657523562
% es.tEx (V/m) @ t=0.7
0.6879771234550724
% es.tEy (V/m) @ t=0.7
0
% es.tEz (V/m) @ t=0.7
-1.5713658657523606
% V (V) @ t=0.7
0.00863159459506444
% es.normE (V/m) @ t=0.72
1.741984099921661
% es.EX (V/m) @ t=0.72
0.6942448718233254
% es.EY (V/m) @ t=0.72
0.18354457459824536
% es.EZ (V/m) @ t=0.72
-1.5856777996522569
% es.tEX (V/m) @ t=0.72
0.6942448718233258
% es.tEY (V/m) @ t=0.72
0
% es.tEZ (V/m) @ t=0.72
-1.5856777996522613
% es.Ex (V/m) @ t=0.72
0.6942448718233254
% es.Ey (V/m) @ t=0.72
0.18354457459824536
% es.Ez (V/m) @ t=0.72
-1.5856777996522569
% es.tEx (V/m) @ t=0.72
0.6942448718233258
% es.tEy (V/m) @ t=0.72
0
% es.tEz (V/m) @ t=0.72
-1.5856777996522613
% V (V) @ t=0.72
0.008710141328795922
% es.normE (V/m) @ t=0.74
1.7577076034785415
% es.EX (V/m) @ t=0.74
0.7005126201915928
% es.EY (V/m) @ t=0.74
0.1852033277051497
% es.EZ (V/m) @ t=0.74
-1.5999897335521585
% es.tEX (V/m) @ t=0.74
0.700512620191593
% es.tEY (V/m) @ t=0.74
0
% es.tEZ (V/m) @ t=0.74
-1.599989733552162
% es.Ex (V/m) @ t=0.74
0.7005126201915928
% es.Ey (V/m) @ t=0.74
0.1852033277051497
% es.Ez (V/m) @ t=0.74
-1.5999897335521585
% es.tEx (V/m) @ t=0.74
0.700512620191593
% es.tEy (V/m) @ t=0.74
0
% es.tEz (V/m) @ t=0.74
-1.599989733552162
% V (V) @ t=0.74
0.008788688062527408
% es.normE (V/m) @ t=0.76
1.7734311070429825
% es.EX (V/m) @ t=0.76
0.7067803685598457
% es.EY (V/m) @ t=0.76
0.18686208081207223
% es.EZ (V/m) @ t=0.76
-1.614301667452053
% es.tEX (V/m) @ t=0.76
0.7067803685598459
% es.tEY (V/m) @ t=0.76
0
% es.tEZ (V/m) @ t=0.76
-1.614301667452061
% es.Ex (V/m) @ t=0.76
0.7067803685598457
% es.Ey (V/m) @ t=0.76
0.18686208081207223
% es.Ez (V/m) @ t=0.76
-1.614301667452053
% es.tEx (V/m) @ t=0.76
0.7067803685598459
% es.tEy (V/m) @ t=0.76
0
% es.tEz (V/m) @ t=0.76
-1.614301667452061
% V (V) @ t=0.76
0.00886723479625889
% es.normE (V/m) @ t=0.78
1.7891546106148035
% es.EX (V/m) @ t=0.78
0.7130481169281058
% es.EY (V/m) @ t=0.78
0.18852083391898367
% es.EZ (V/m) @ t=0.78
-1.6286136013519563
% es.tEX (V/m) @ t=0.78
0.713048116928106
% es.tEY (V/m) @ t=0.78
0
% es.tEZ (V/m) @ t=0.78
-1.6286136013519616
% es.Ex (V/m) @ t=0.78
0.7130481169281058
% es.Ey (V/m) @ t=0.78
0.18852083391898367
% es.Ez (V/m) @ t=0.78
-1.6286136013519563
% es.tEx (V/m) @ t=0.78
0.713048116928106
% es.tEy (V/m) @ t=0.78
0
% es.tEz (V/m) @ t=0.78
-1.6286136013519616
% V (V) @ t=0.78
0.008945781529990374
% es.normE (V/m) @ t=0.8
1.8048781141938088
% es.EX (V/m) @ t=0.8
0.7193158652963765
% es.EY (V/m) @ t=0.8
0.1901795870258951
% es.EZ (V/m) @ t=0.8
-1.6429255352518632
% es.tEX (V/m) @ t=0.8
0.7193158652963731
% es.tEY (V/m) @ t=0.8
0
% es.tEZ (V/m) @ t=0.8
-1.6429255352518641
% es.Ex (V/m) @ t=0.8
0.7193158652963765
% es.Ey (V/m) @ t=0.8
0.1901795870258951
% es.Ez (V/m) @ t=0.8
-1.6429255352518632
% es.tEx (V/m) @ t=0.8
0.7193158652963731
% es.tEy (V/m) @ t=0.8
0
% es.tEz (V/m) @ t=0.8
-1.6429255352518641
% V (V) @ t=0.8
0.00902432826372186
% es.normE (V/m) @ t=0.82
1.8206016177797972
% es.EX (V/m) @ t=0.82
0.7255836136646332
% es.EY (V/m) @ t=0.82
0.19183834013281897
% es.EZ (V/m) @ t=0.82
-1.657237469151763
% es.tEX (V/m) @ t=0.82
0.7255836136646336
% es.tEY (V/m) @ t=0.82
0
% es.tEZ (V/m) @ t=0.82
-1.6572374691517613
% es.Ex (V/m) @ t=0.82
0.7255836136646332
% es.Ey (V/m) @ t=0.82
0.19183834013281897
% es.Ez (V/m) @ t=0.82
-1.657237469151763
% es.tEx (V/m) @ t=0.82
0.7255836136646336
% es.tEy (V/m) @ t=0.82
0
% es.tEz (V/m) @ t=0.82
-1.6572374691517613
% V (V) @ t=0.82
0.009102874997453343
% es.normE (V/m) @ t=0.84
1.8380293412807802
% es.EX (V/m) @ t=0.84
0.732528460359833
% es.EY (V/m) @ t=0.84
0.193673496014803
% es.EZ (V/m) @ t=0.84
-1.6731018163458051
% es.tEX (V/m) @ t=0.84
0.7325284603598332
% es.tEY (V/m) @ t=0.84
0
% es.tEZ (V/m) @ t=0.84
-1.6731018163458078
% es.Ex (V/m) @ t=0.84
0.732528460359833
% es.Ey (V/m) @ t=0.84
0.193673496014803
% es.Ez (V/m) @ t=0.84
-1.6731018163458051
% es.tEx (V/m) @ t=0.84
0.7325284603598332
% es.tEy (V/m) @ t=0.84
0
% es.tEz (V/m) @ t=0.84
-1.6731018163458078
% V (V) @ t=0.84
0.009190055790217552
% es.normE (V/m) @ t=0.86
1.8556328999201184
% es.EX (V/m) @ t=0.86
0.7395431675668844
% es.EY (V/m) @ t=0.86
0.19552685248549562
% es.EZ (V/m) @ t=0.86
-1.6891263358265354
% es.tEX (V/m) @ t=0.86
0.7395431675668811
% es.tEY (V/m) @ t=0.86
0
% es.tEZ (V/m) @ t=0.86
-1.6891263358265398
% es.Ex (V/m) @ t=0.86
0.7395431675668844
% es.Ey (V/m) @ t=0.86
0.19552685248549562
% es.Ez (V/m) @ t=0.86
-1.6891263358265354
% es.tEx (V/m) @ t=0.86
0.7395431675668811
% es.tEy (V/m) @ t=0.86
0
% es.tEz (V/m) @ t=0.86
-1.6891263358265398
% V (V) @ t=0.86
0.009278127413396533
% es.normE (V/m) @ t=0.88
1.8732364585635142
% es.EX (V/m) @ t=0.88
0.7465578747739421
% es.EY (V/m) @ t=0.88
0.19738020895618025
% es.EZ (V/m) @ t=0.88
-1.7051508553072763
% es.tEX (V/m) @ t=0.88
0.7465578747739423
% es.tEY (V/m) @ t=0.88
0
% es.tEZ (V/m) @ t=0.88
-1.7051508553072772
% es.Ex (V/m) @ t=0.88
0.7465578747739421
% es.Ey (V/m) @ t=0.88
0.19738020895618025
% es.Ez (V/m) @ t=0.88
-1.7051508553072763
% es.tEx (V/m) @ t=0.88
0.7465578747739423
% es.tEy (V/m) @ t=0.88
0
% es.tEz (V/m) @ t=0.88
-1.7051508553072772
% V (V) @ t=0.88
0.009366199036575516
% es.normE (V/m) @ t=0.9
1.8908400172108308
% es.EX (V/m) @ t=0.9
0.7535725819810011
% es.EY (V/m) @ t=0.9
0.1992335654268702
% es.EZ (V/m) @ t=0.9
-1.721175374788003
% es.tEX (V/m) @ t=0.9
0.7535725819809977
% es.tEY (V/m) @ t=0.9
0
% es.tEZ (V/m) @ t=0.9
-1.7211753747880039
% es.Ex (V/m) @ t=0.9
0.7535725819810011
% es.Ey (V/m) @ t=0.9
0.1992335654268702
% es.Ez (V/m) @ t=0.9
-1.721175374788003
% es.tEx (V/m) @ t=0.9
0.7535725819809977
% es.tEy (V/m) @ t=0.9
0
% es.tEz (V/m) @ t=0.9
-1.7211753747880039
% V (V) @ t=0.9
0.009454270659754498
% es.normE (V/m) @ t=0.92
1.9084435758619818
% es.EX (V/m) @ t=0.92
0.7605872891880596
% es.EY (V/m) @ t=0.92
0.20108692189755928
% es.EZ (V/m) @ t=0.92
-1.737199894268742
% es.tEX (V/m) @ t=0.92
0.7605872891880598
% es.tEY (V/m) @ t=0.92
0
% es.tEZ (V/m) @ t=0.92
-1.737199894268743
% es.Ex (V/m) @ t=0.92
0.7605872891880596
% es.Ey (V/m) @ t=0.92
0.20108692189755928
% es.Ez (V/m) @ t=0.92
-1.737199894268742
% es.tEx (V/m) @ t=0.92
0.7605872891880598
% es.tEy (V/m) @ t=0.92
0
% es.tEz (V/m) @ t=0.92
-1.737199894268743
% V (V) @ t=0.92
0.009542342282933481
% es.normE (V/m) @ t=0.94
1.9260471345168615
% es.EX (V/m) @ t=0.94
0.7676019963951215
% es.EY (V/m) @ t=0.94
0.20294027836825368
% es.EZ (V/m) @ t=0.94
-1.7532244137494883
% es.tEX (V/m) @ t=0.94
0.7676019963951219
% es.tEY (V/m) @ t=0.94
0
% es.tEZ (V/m) @ t=0.94
-1.7532244137494892
% es.Ex (V/m) @ t=0.94
0.7676019963951215
% es.Ey (V/m) @ t=0.94
0.20294027836825368
% es.Ez (V/m) @ t=0.94
-1.7532244137494883
% es.tEx (V/m) @ t=0.94
0.7676019963951219
% es.tEy (V/m) @ t=0.94
0
% es.tEz (V/m) @ t=0.94
-1.7532244137494892
% V (V) @ t=0.94
0.009630413906112465
% es.normE (V/m) @ t=0.96
1.9436506931753361
% es.EX (V/m) @ t=0.96
0.7746167036021692
% es.EY (V/m) @ t=0.96
0.20479363483892765
% es.EZ (V/m) @ t=0.96
-1.7692489332302177
% es.tEX (V/m) @ t=0.96
0.7746167036021694
% es.tEY (V/m) @ t=0.96
0
% es.tEZ (V/m) @ t=0.96
-1.7692489332302248
% es.Ex (V/m) @ t=0.96
0.7746167036021692
% es.Ey (V/m) @ t=0.96
0.20479363483892765
% es.Ez (V/m) @ t=0.96
-1.7692489332302177
% es.tEx (V/m) @ t=0.96
0.7746167036021694
% es.tEy (V/m) @ t=0.96
0
% es.tEz (V/m) @ t=0.96
-1.7692489332302248
% V (V) @ t=0.96
0.009718485529291446
% es.normE (V/m) @ t=0.98
1.9612542518373348
% es.EX (V/m) @ t=0.98
0.7816314108092199
% es.EY (V/m) @ t=0.98
0.20664699130960873
% es.EZ (V/m) @ t=0.98
-1.7852734527109488
% es.tEX (V/m) @ t=0.98
0.7816314108092168
% es.tEY (V/m) @ t=0.98
0
% es.tEZ (V/m) @ t=0.98
-1.7852734527109497
% es.Ex (V/m) @ t=0.98
0.7816314108092199
% es.Ey (V/m) @ t=0.98
0.20664699130960873
% es.Ez (V/m) @ t=0.98
-1.7852734527109488
% es.tEx (V/m) @ t=0.98
0.7816314108092168
% es.tEy (V/m) @ t=0.98
0
% es.tEz (V/m) @ t=0.98
-1.7852734527109497
% V (V) @ t=0.98
0.009806557152470433
% es.normE (V/m) @ t=1
1.9788578105027756
% es.EX (V/m) @ t=1
0.788646118016286
% es.EY (V/m) @ t=1
0.20850034778029514
% es.EZ (V/m) @ t=1
-1.8012979721916889
% es.tEX (V/m) @ t=1
0.7886461180162865
% es.tEY (V/m) @ t=1
0
% es.tEZ (V/m) @ t=1
-1.8012979721916924
% es.Ex (V/m) @ t=1
0.788646118016286
% es.Ey (V/m) @ t=1
0.20850034778029514
% es.Ez (V/m) @ t=1
-1.8012979721916889
% es.tEx (V/m) @ t=1
0.7886461180162865
% es.tEy (V/m) @ t=1
0
% es.tEz (V/m) @ t=1
-1.8012979721916924
% V (V) @ t=1
0.009894628775649415
% es.normE (V/m) @ t=1.02
1.9964613691715454
% es.EX (V/m) @ t=1.02
0.7956608252233444
% es.EY (V/m) @ t=1.02
0.21035370425098066
% es.EZ (V/m) @ t=1.02
-1.8173224916724244
% es.tEX (V/m) @ t=1.02
0.7956608252233481
% es.tEY (V/m) @ t=1.02
0
% es.tEZ (V/m) @ t=1.02
-1.817322491672435
% es.Ex (V/m) @ t=1.02
0.7956608252233444
% es.Ey (V/m) @ t=1.02
0.21035370425098066
% es.Ez (V/m) @ t=1.02
-1.8173224916724244
% es.tEx (V/m) @ t=1.02
0.7956608252233481
% es.tEy (V/m) @ t=1.02
0
% es.tEz (V/m) @ t=1.02
-1.817322491672435
% V (V) @ t=1.02
0.009982700398828396
% es.normE (V/m) @ t=1.04
2.014064927843563
% es.EX (V/m) @ t=1.04
0.8026755324304022
% es.EY (V/m) @ t=1.04
0.21220706072166706
% es.EZ (V/m) @ t=1.04
-1.8333470111531591
% es.tEX (V/m) @ t=1.04
0.8026755324304027