% Model:              1 neuron.mph
% Version:            COMSOL 6.1.0.252
% Date:               Mar 18 2023, 12:04
% Dimension:          0
% Nodes:              14017
% Expressions:        14017
% Description:        Electric field norm, Electric field, X component, Electric field, Y component, Electric field, Z component, Tangential electric field, X component, Tangential electric field, Y component, Tangential electric field, Z component, Electric field, x component, Electric field, y component, Electric field, z component, Tangential electric field, x component, Tangential electric field, y component, Tangential electric field, z component, Electric potential
% Length unit:        mm
% x
1.66
% y
12.2
% z
1.33
% es.normE (V/m) @ t=0
7.62478349028414
% es.EX (V/m) @ t=0
-4.236639365679468
% es.EY (V/m) @ t=0
-0.4573084220026633
% es.EZ (V/m) @ t=0
5.672829124153113
% es.tEX (V/m) @ t=0
-4.2366393656794745
% es.tEY (V/m) @ t=0
0
% es.tEZ (V/m) @ t=0
5.6728291241530995
% es.Ex (V/m) @ t=0
-4.236639365679468
% es.Ey (V/m) @ t=0
-0.4573084220026633
% es.Ez (V/m) @ t=0
5.672829124153113
% es.tEx (V/m) @ t=0
-4.2366393656794745
% es.tEy (V/m) @ t=0
0
% es.tEz (V/m) @ t=0
5.6728291241530995
% V (V) @ t=0
0.006261968641754167
% es.normE (V/m) @ t=0.02
6.585609474636781
% es.EX (V/m) @ t=0.02
-3.659232118283012
% es.EY (V/m) @ t=0.02
-0.3949823001477797
% es.EZ (V/m) @ t=0.02
4.899684978335734
% es.tEX (V/m) @ t=0.02
-3.6592321182830148
% es.tEY (V/m) @ t=0.02
0
% es.tEZ (V/m) @ t=0.02
4.899684978335726
% es.Ex (V/m) @ t=0.02
-3.659232118283012
% es.Ey (V/m) @ t=0.02
-0.3949823001477797
% es.Ez (V/m) @ t=0.02
4.899684978335734
% es.tEx (V/m) @ t=0.02
-3.6592321182830148
% es.tEy (V/m) @ t=0.02
0
% es.tEz (V/m) @ t=0.02
4.899684978335726
% V (V) @ t=0.02
0.005408531213796067
% es.normE (V/m) @ t=0.04
6.646187533374897
% es.EX (V/m) @ t=0.04
-3.6928918326819833
% es.EY (V/m) @ t=0.04
-0.3986155201521451
% es.EZ (V/m) @ t=0.04
4.944754947973814
% es.tEX (V/m) @ t=0.04
-3.6928918326819895
% es.tEY (V/m) @ t=0.04
0
% es.tEZ (V/m) @ t=0.04
4.944754947973811
% es.Ex (V/m) @ t=0.04
-3.6928918326819833
% es.Ey (V/m) @ t=0.04
-0.3986155201521451
% es.Ez (V/m) @ t=0.04
4.944754947973814
% es.tEx (V/m) @ t=0.04
-3.6928918326819895
% es.tEy (V/m) @ t=0.04
0
% es.tEz (V/m) @ t=0.04
4.944754947973811
% V (V) @ t=0.04
0.005458281713772028
% es.normE (V/m) @ t=0.06
6.707317247624922
% es.EX (V/m) @ t=0.06
-3.7268579811306815
% es.EY (V/m) @ t=0.06
-0.4022818729655828
% es.EZ (V/m) @ t=0.06
4.990235378030378
% es.tEX (V/m) @ t=0.06
-3.7268579811306886
% es.tEY (V/m) @ t=0.06
0
% es.tEZ (V/m) @ t=0.06
4.99023537803037
% es.Ex (V/m) @ t=0.06
-3.7268579811306815
% es.Ey (V/m) @ t=0.06
-0.4022818729655828
% es.Ez (V/m) @ t=0.06
4.990235378030378
% es.tEx (V/m) @ t=0.06
-3.7268579811306886
% es.tEy (V/m) @ t=0.06
0
% es.tEz (V/m) @ t=0.06
4.99023537803037
% V (V) @ t=0.06
0.005508485421016957
% es.normE (V/m) @ t=0.08
6.769365748521535
% es.EX (V/m) @ t=0.08
-3.7613354177778895
% es.EY (V/m) @ t=0.08
-0.4060029242658325
% es.EZ (V/m) @ t=0.08
5.036399127264455
% es.tEX (V/m) @ t=0.08
-3.7613354177778993
% es.tEY (V/m) @ t=0.08
0
% es.tEZ (V/m) @ t=0.08
5.0363991272644455
% es.Ex (V/m) @ t=0.08
-3.7613354177778895
% es.Ey (V/m) @ t=0.08
-0.4060029242658325
% es.Ez (V/m) @ t=0.08
5.036399127264455
% es.tEx (V/m) @ t=0.08
-3.7613354177778993
% es.tEy (V/m) @ t=0.08
0
% es.tEz (V/m) @ t=0.08
5.0363991272644455
% V (V) @ t=0.08
0.00555944236159757
% es.normE (V/m) @ t=0.1
6.832078939286221
% es.EX (V/m) @ t=0.1
-3.796182742348777
% es.EY (V/m) @ t=0.1
-0.4097635468094609
% es.EZ (V/m) @ t=0.1
5.0830572190484204
% es.tEX (V/m) @ t=0.1
-3.7961827423487833
% es.tEY (V/m) @ t=0.1
0
% es.tEZ (V/m) @ t=0.1
5.083057219048418
% es.Ex (V/m) @ t=0.1
-3.796182742348777
% es.Ey (V/m) @ t=0.1
-0.4097635468094609
% es.Ez (V/m) @ t=0.1
5.0830572190484204
% es.tEx (V/m) @ t=0.1
-3.7961827423487833
% es.tEy (V/m) @ t=0.1
0
% es.tEz (V/m) @ t=0.1
5.083057219048418
% V (V) @ t=0.1
0.0056109442236439945
% es.normE (V/m) @ t=0.12
6.894792130051398
% es.EX (V/m) @ t=0.12
-3.8310300669196726
% es.EY (V/m) @ t=0.12
-0.4135241693530769
% es.EZ (V/m) @ t=0.12
5.129715310832399
% es.tEX (V/m) @ t=0.12
-3.831030066919679
% es.tEY (V/m) @ t=0.12
0
% es.tEZ (V/m) @ t=0.12
5.12971531083239
% es.Ex (V/m) @ t=0.12
-3.8310300669196726
% es.Ey (V/m) @ t=0.12
-0.4135241693530769
% es.Ez (V/m) @ t=0.12
5.129715310832399
% es.tEx (V/m) @ t=0.12
-3.831030066919679
% es.tEy (V/m) @ t=0.12
0
% es.tEz (V/m) @ t=0.12
5.12971531083239
% V (V) @ t=0.12
0.005662446085690418
% es.normE (V/m) @ t=0.14
6.958078213287003
% es.EX (V/m) @ t=0.14
-3.86619537015231
% es.EY (V/m) @ t=0.14
-0.41731933306732394
% es.EZ (V/m) @ t=0.14
5.176799748080297
% es.tEX (V/m) @ t=0.14
-3.8661953701523126
% es.tEY (V/m) @ t=0.14
0
% es.tEZ (V/m) @ t=0.14
5.17679974808029
% es.Ex (V/m) @ t=0.14
-3.86619537015231
% es.Ey (V/m) @ t=0.14
-0.41731933306732394
% es.Ez (V/m) @ t=0.14
5.176799748080297
% es.tEx (V/m) @ t=0.14
-3.8661953701523126
% es.tEy (V/m) @ t=0.14
0
% es.tEz (V/m) @ t=0.14
5.17679974808029
% V (V) @ t=0.14
0.005714419037429827
% es.normE (V/m) @ t=0.16
7.024152319984148
% es.EX (V/m) @ t=0.16
-3.9029081399962475
% es.EY (V/m) @ t=0.16
-0.4212825939361129
% es.EZ (V/m) @ t=0.16
5.225959026975325
% es.tEX (V/m) @ t=0.16
-3.9029081399962537
% es.tEY (V/m) @ t=0.16
0
% es.tEZ (V/m) @ t=0.16
5.225959026975321
% es.Ex (V/m) @ t=0.16
-3.9029081399962475
% es.Ey (V/m) @ t=0.16
-0.4212825939361129
% es.Ez (V/m) @ t=0.16
5.225959026975325
% es.tEx (V/m) @ t=0.16
-3.9029081399962537
% es.tEy (V/m) @ t=0.16
0
% es.tEz (V/m) @ t=0.16
5.225959026975321
% V (V) @ t=0.16
0.005768684581907395
% es.normE (V/m) @ t=0.18
7.090226426681436
% es.EX (V/m) @ t=0.18
-3.93962090984017
% es.EY (V/m) @ t=0.18
-0.4252458548049325
% es.EZ (V/m) @ t=0.18
5.275118305870364
% es.tEX (V/m) @ t=0.18
-3.9396209098401798
% es.tEY (V/m) @ t=0.18
0
% es.tEZ (V/m) @ t=0.18
5.275118305870359
% es.Ex (V/m) @ t=0.18
-3.93962090984017
% es.Ey (V/m) @ t=0.18
-0.4252458548049325
% es.Ez (V/m) @ t=0.18
5.275118305870364
% es.tEx (V/m) @ t=0.18
-3.9396209098401798
% es.tEy (V/m) @ t=0.18
0
% es.tEz (V/m) @ t=0.18
5.275118305870359
% V (V) @ t=0.18
0.005822950126384963
% es.normE (V/m) @ t=0.2
7.156300533378866
% es.EX (V/m) @ t=0.2
-3.9763336796841173
% es.EY (V/m) @ t=0.2
-0.42920911567371234
% es.EZ (V/m) @ t=0.2
5.324277584765399
% es.tEX (V/m) @ t=0.2
-3.9763336796841235
% es.tEY (V/m) @ t=0.2
0
% es.tEZ (V/m) @ t=0.2
5.324277584765387
% es.Ex (V/m) @ t=0.2
-3.9763336796841173
% es.Ey (V/m) @ t=0.2
-0.42920911567371234
% es.Ez (V/m) @ t=0.2
5.324277584765399
% es.tEx (V/m) @ t=0.2
-3.9763336796841235
% es.tEy (V/m) @ t=0.2
0
% es.tEz (V/m) @ t=0.2
5.324277584765387
% V (V) @ t=0.2
0.005877215670862531
% es.normE (V/m) @ t=0.22
7.222374640076422
% es.EX (V/m) @ t=0.22
-4.013046449528047
% es.EY (V/m) @ t=0.22
-0.4331723765424964
% es.EZ (V/m) @ t=0.22
5.373436863660435
% es.tEX (V/m) @ t=0.22
-4.01304644952806
% es.tEY (V/m) @ t=0.22
0
% es.tEZ (V/m) @ t=0.22
5.373436863660428
% es.Ex (V/m) @ t=0.22
-4.013046449528047
% es.Ey (V/m) @ t=0.22
-0.4331723765424964
% es.Ez (V/m) @ t=0.22
5.373436863660435
% es.tEx (V/m) @ t=0.22
-4.01304644952806
% es.tEy (V/m) @ t=0.22
0
% es.tEz (V/m) @ t=0.22
5.373436863660428
% V (V) @ t=0.22
0.0059314812153401
% es.normE (V/m) @ t=0.24
7.288448746774106
% es.EX (V/m) @ t=0.24
-4.049759219371977
% es.EY (V/m) @ t=0.24
-0.4371356374112907
% es.EZ (V/m) @ t=0.24
5.42259614255547
% es.tEX (V/m) @ t=0.24
-4.04975921937198
% es.tEY (V/m) @ t=0.24
0
% es.tEZ (V/m) @ t=0.24
5.4225961425554665
% es.Ex (V/m) @ t=0.24
-4.049759219371977
% es.Ey (V/m) @ t=0.24
-0.4371356374112907
% es.Ez (V/m) @ t=0.24
5.42259614255547
% es.tEx (V/m) @ t=0.24
-4.04975921937198
% es.tEy (V/m) @ t=0.24
0
% es.tEz (V/m) @ t=0.24
5.4225961425554665
% V (V) @ t=0.24
0.005985746759817668
% es.normE (V/m) @ t=0.26
7.3545228534719245
% es.EX (V/m) @ t=0.26
-4.086471989215917
% es.EY (V/m) @ t=0.26
-0.4410988982800905
% es.EZ (V/m) @ t=0.26
5.471755421450492
% es.tEX (V/m) @ t=0.26
-4.08647198921593
% es.tEY (V/m) @ t=0.26
0
% es.tEZ (V/m) @ t=0.26
5.471755421450481
% es.Ex (V/m) @ t=0.26
-4.086471989215917
% es.Ey (V/m) @ t=0.26
-0.4410988982800905
% es.Ez (V/m) @ t=0.26
5.471755421450492
% es.tEx (V/m) @ t=0.26
-4.08647198921593
% es.tEy (V/m) @ t=0.26
0
% es.tEz (V/m) @ t=0.26
5.471755421450481
% V (V) @ t=0.26
0.006040012304295236
% es.normE (V/m) @ t=0.28
7.423253183427866
% es.EX (V/m) @ t=0.28
-4.12465763700001
% es.EY (V/m) @ t=0.28
-0.44522306465644257
% es.EZ (V/m) @ t=0.28
5.522891934626672
% es.tEX (V/m) @ t=0.28
-4.124657637000013
% es.tEY (V/m) @ t=0.28
0
% es.tEZ (V/m) @ t=0.28
5.522891934626663
% es.Ex (V/m) @ t=0.28
-4.12465763700001
% es.Ey (V/m) @ t=0.28
-0.44522306465644257
% es.Ez (V/m) @ t=0.28
5.522891934626672
% es.tEx (V/m) @ t=0.28
-4.124657637000013
% es.tEy (V/m) @ t=0.28
0
% es.tEz (V/m) @ t=0.28
5.522891934626663
% V (V) @ t=0.28
0.006096464536221864
% es.normE (V/m) @ t=0.3
7.496896946601785
% es.EX (V/m) @ t=0.3
-4.1655677874604695
% es.EY (V/m) @ t=0.3
-0.44964487109782203
% es.EZ (V/m) @ t=0.3
5.577685899614545
% es.tEX (V/m) @ t=0.3
-4.165567787460476
% es.tEY (V/m) @ t=0.3
0
% es.tEZ (V/m) @ t=0.3
5.577685899614536
% es.Ex (V/m) @ t=0.3
-4.1655677874604695
% es.Ey (V/m) @ t=0.3
-0.44964487109782203
% es.Ez (V/m) @ t=0.3
5.577685899614545
% es.tEx (V/m) @ t=0.3
-4.165567787460476
% es.tEy (V/m) @ t=0.3
0
% es.tEz (V/m) @ t=0.3
5.577685899614536
% V (V) @ t=0.3
0.006156961662599577
% es.normE (V/m) @ t=0.32
7.570540709797184
% es.EX (V/m) @ t=0.32
-4.2064779379209325
% es.EY (V/m) @ t=0.32
-0.45406667753923546
% es.EZ (V/m) @ t=0.32
5.632479864602435
% es.tEX (V/m) @ t=0.32
-4.206477937920935
% es.tEY (V/m) @ t=0.32
0
% es.tEZ (V/m) @ t=0.32
5.632479864602425
% es.Ex (V/m) @ t=0.32
-4.2064779379209325
% es.Ey (V/m) @ t=0.32
-0.45406667753923546
% es.Ez (V/m) @ t=0.32
5.632479864602435
% es.tEx (V/m) @ t=0.32
-4.206477937920935
% es.tEy (V/m) @ t=0.32
0
% es.tEz (V/m) @ t=0.32
5.632479864602425
% V (V) @ t=0.32
0.006217458788977291
% es.normE (V/m) @ t=0.34
7.644184473013396
% es.EX (V/m) @ t=0.34
-4.247388088381392
% es.EY (V/m) @ t=0.34
-0.4584884839806129
% es.EZ (V/m) @ t=0.34
5.687273829590312
% es.tEX (V/m) @ t=0.34
-4.247388088381395
% es.tEY (V/m) @ t=0.34
0
% es.tEZ (V/m) @ t=0.34
5.687273829590305
% es.Ex (V/m) @ t=0.34
-4.247388088381392
% es.Ey (V/m) @ t=0.34
-0.4584884839806129
% es.Ez (V/m) @ t=0.34
5.687273829590312
% es.tEx (V/m) @ t=0.34
-4.247388088381395
% es.tEy (V/m) @ t=0.34
0
% es.tEz (V/m) @ t=0.34
5.687273829590305
% V (V) @ t=0.34
0.006277955915355005
% es.normE (V/m) @ t=0.36
7.717828236249854
% es.EX (V/m) @ t=0.36
-4.288298238841848
% es.EY (V/m) @ t=0.36
-0.4629102904220195
% es.EZ (V/m) @ t=0.36
5.7420677945781975
% es.tEX (V/m) @ t=0.36
-4.288298238841854
% es.tEY (V/m) @ t=0.36
0
% es.tEZ (V/m) @ t=0.36
5.74206779457819
% es.Ex (V/m) @ t=0.36
-4.288298238841848
% es.Ey (V/m) @ t=0.36
-0.4629102904220195
% es.Ez (V/m) @ t=0.36
5.7420677945781975
% es.tEx (V/m) @ t=0.36
-4.288298238841854
% es.tEy (V/m) @ t=0.36
0
% es.tEz (V/m) @ t=0.36
5.74206779457819
% V (V) @ t=0.36
0.006338453041732717
% es.normE (V/m) @ t=0.38
7.791471999505961
% es.EX (V/m) @ t=0.38
-4.329208389302304
% es.EY (V/m) @ t=0.38
-0.46733209686339516
% es.EZ (V/m) @ t=0.38
5.79686175956608
% es.tEX (V/m) @ t=0.38
-4.329208389302317
% es.tEY (V/m) @ t=0.38
0
% es.tEZ (V/m) @ t=0.38
5.796861759566073
% es.Ex (V/m) @ t=0.38
-4.329208389302304
% es.Ey (V/m) @ t=0.38
-0.46733209686339516
% es.Ez (V/m) @ t=0.38
5.79686175956608
% es.tEx (V/m) @ t=0.38
-4.329208389302317
% es.tEy (V/m) @ t=0.38
0
% es.tEz (V/m) @ t=0.38
5.796861759566073
% V (V) @ t=0.38
0.006398950168110432
% es.normE (V/m) @ t=0.4
7.865115762781194
% es.EX (V/m) @ t=0.4
-4.370118539762773
% es.EY (V/m) @ t=0.4
-0.47175390330480504
% es.EZ (V/m) @ t=0.4
5.851655724553961
% es.tEX (V/m) @ t=0.4
-4.370118539762783
% es.tEY (V/m) @ t=0.4
0
% es.tEZ (V/m) @ t=0.4
5.851655724553951
% es.Ex (V/m) @ t=0.4
-4.370118539762773
% es.Ey (V/m) @ t=0.4
-0.47175390330480504
% es.Ez (V/m) @ t=0.4
5.851655724553961
% es.tEx (V/m) @ t=0.4
-4.370118539762783
% es.tEy (V/m) @ t=0.4
0
% es.tEz (V/m) @ t=0.4
5.851655724553951
% V (V) @ t=0.4
0.006459447294488147
% es.normE (V/m) @ t=0.42
7.938759526074987
% es.EX (V/m) @ t=0.42
-4.411028690223225
% es.EY (V/m) @ t=0.42
-0.4761757097461934
% es.EZ (V/m) @ t=0.42
5.906449689541838
% es.tEX (V/m) @ t=0.42
-4.411028690223235
% es.tEY (V/m) @ t=0.42
0
% es.tEZ (V/m) @ t=0.42
5.906449689541837
% es.Ex (V/m) @ t=0.42
-4.411028690223225
% es.Ey (V/m) @ t=0.42
-0.4761757097461934
% es.Ez (V/m) @ t=0.42
5.906449689541838
% es.tEx (V/m) @ t=0.42
-4.411028690223235
% es.tEy (V/m) @ t=0.42
0
% es.tEz (V/m) @ t=0.42
5.906449689541837
% V (V) @ t=0.42
0.006519944420865859
% es.normE (V/m) @ t=0.44
8.01240328938687
% es.EX (V/m) @ t=0.44
-4.451938840683688
% es.EY (V/m) @ t=0.44
-0.48059751618758906
% es.EZ (V/m) @ t=0.44
5.9612436545297305
% es.tEX (V/m) @ t=0.44
-4.451938840683694
% es.tEY (V/m) @ t=0.44
0
% es.tEZ (V/m) @ t=0.44
5.961243654529726
% es.Ex (V/m) @ t=0.44
-4.451938840683688
% es.Ey (V/m) @ t=0.44
-0.48059751618758906
% es.Ez (V/m) @ t=0.44
5.9612436545297305
% es.tEx (V/m) @ t=0.44
-4.451938840683694
% es.tEy (V/m) @ t=0.44
0
% es.tEz (V/m) @ t=0.44
5.961243654529726
% V (V) @ t=0.44
0.006580441547243574
% es.normE (V/m) @ t=0.46
8.086047052716296
% es.EX (V/m) @ t=0.46
-4.492848991144136
% es.EY (V/m) @ t=0.46
-0.4850193226289772
% es.EZ (V/m) @ t=0.46
6.016037619517602
% es.tEX (V/m) @ t=0.46
-4.492848991144149
% es.tEY (V/m) @ t=0.46
0
% es.tEZ (V/m) @ t=0.46
6.016037619517596
% es.Ex (V/m) @ t=0.46
-4.492848991144136
% es.Ey (V/m) @ t=0.46
-0.4850193226289772
% es.Ez (V/m) @ t=0.46
6.016037619517602
% es.tEx (V/m) @ t=0.46
-4.492848991144149
% es.tEy (V/m) @ t=0.46
0
% es.tEz (V/m) @ t=0.46
6.016037619517596
% V (V) @ t=0.46
0.006640938673621287
% es.normE (V/m) @ t=0.48
8.159690816062845
% es.EX (V/m) @ t=0.48
-4.533759141604603
% es.EY (V/m) @ t=0.48
-0.48944112907038706
% es.EZ (V/m) @ t=0.48
6.0708315845054885
% es.tEX (V/m) @ t=0.48
-4.53375914160461
% es.tEY (V/m) @ t=0.48
0
% es.tEZ (V/m) @ t=0.48
6.070831584505488
% es.Ex (V/m) @ t=0.48
-4.533759141604603
% es.Ey (V/m) @ t=0.48
-0.48944112907038706
% es.Ez (V/m) @ t=0.48
6.0708315845054885
% es.tEx (V/m) @ t=0.48
-4.53375914160461
% es.tEy (V/m) @ t=0.48
0
% es.tEz (V/m) @ t=0.48
6.070831584505488
% V (V) @ t=0.48
0.006701435799999
% es.normE (V/m) @ t=0.5
8.233334579426039
% es.EX (V/m) @ t=0.5
-4.574669292065059
% es.EY (V/m) @ t=0.5
-0.4938629355117823
% es.EZ (V/m) @ t=0.5
6.125625549493392
% es.tEX (V/m) @ t=0.5
-4.574669292065062
% es.tEY (V/m) @ t=0.5
0
% es.tEZ (V/m) @ t=0.5
6.125625549493384
% es.Ex (V/m) @ t=0.5
-4.574669292065059
% es.Ey (V/m) @ t=0.5
-0.4938629355117823
% es.Ez (V/m) @ t=0.5
6.125625549493392
% es.tEx (V/m) @ t=0.5
-4.574669292065062
% es.tEy (V/m) @ t=0.5
0
% es.tEz (V/m) @ t=0.5
6.125625549493384
% V (V) @ t=0.5
0.006761932926376715
% es.normE (V/m) @ t=0.52
8.306978342805401
% es.EX (V/m) @ t=0.52
-4.615579442525525
% es.EY (V/m) @ t=0.52
-0.49828474195318173
% es.EZ (V/m) @ t=0.52
6.18041951448126
% es.tEX (V/m) @ t=0.52
-4.615579442525531
% es.tEY (V/m) @ t=0.52
0
% es.tEZ (V/m) @ t=0.52
6.180419514481256
% es.Ex (V/m) @ t=0.52
-4.615579442525525
% es.Ey (V/m) @ t=0.52
-0.49828474195318173
% es.Ez (V/m) @ t=0.52
6.18041951448126
% es.tEx (V/m) @ t=0.52
-4.615579442525531
% es.tEy (V/m) @ t=0.52
0
% es.tEz (V/m) @ t=0.52
6.180419514481256
% V (V) @ t=0.52
0.006822430052754428
% es.normE (V/m) @ t=0.54
8.38062210620055
% es.EX (V/m) @ t=0.54
-4.656489592985981
% es.EY (V/m) @ t=0.54
-0.5027065483945734
% es.EZ (V/m) @ t=0.54
6.23521347946915
% es.tEX (V/m) @ t=0.54
-4.656489592985994
% es.tEY (V/m) @ t=0.54
0
% es.tEZ (V/m) @ t=0.54
6.235213479469141
% es.Ex (V/m) @ t=0.54
-4.656489592985981
% es.Ey (V/m) @ t=0.54
-0.5027065483945734
% es.Ez (V/m) @ t=0.54
6.23521347946915
% es.tEx (V/m) @ t=0.54
-4.656489592985994
% es.tEy (V/m) @ t=0.54
0
% es.tEz (V/m) @ t=0.54
6.235213479469141
% V (V) @ t=0.54
0.006882927179132141
% es.normE (V/m) @ t=0.56
8.460330118257328
% es.EX (V/m) @ t=0.56
-4.700787808457626
% es.EY (V/m) @ t=0.56
-0.5074823134545139
% es.EZ (V/m) @ t=0.56
6.2945130750790454
% es.tEX (V/m) @ t=0.56
-4.700787808457632
% es.tEY (V/m) @ t=0.56
0
% es.tEZ (V/m) @ t=0.56
6.294513075079041
% es.Ex (V/m) @ t=0.56
-4.700787808457626
% es.Ey (V/m) @ t=0.56
-0.5074823134545139
% es.Ez (V/m) @ t=0.56
6.2945130750790454
% es.tEx (V/m) @ t=0.56
-4.700787808457632
% es.tEy (V/m) @ t=0.56
0
% es.tEz (V/m) @ t=0.56
6.294513075079041
% V (V) @ t=0.56
0.006948372702366629
% es.normE (V/m) @ t=0.58
8.542493505331006
% es.EX (V/m) @ t=0.58
-4.746457829482617
% es.EY (V/m) @ t=0.58
-0.5124013940639003
% es.EZ (V/m) @ t=0.58
6.355636971311357
% es.tEX (V/m) @ t=0.58
-4.746457829482623
% es.tEY (V/m) @ t=0.58
0
% es.tEZ (V/m) @ t=0.58
6.35563697131135
% es.Ex (V/m) @ t=0.58
-4.746457829482617
% es.Ey (V/m) @ t=0.58
-0.5124013940639003
% es.Ez (V/m) @ t=0.58
6.355636971311357
% es.tEx (V/m) @ t=0.58
-4.746457829482623
% es.tEy (V/m) @ t=0.58
0
% es.tEz (V/m) @ t=0.58
6.35563697131135
% V (V) @ t=0.58
0.007015821799400892
% es.normE (V/m) @ t=0.6
8.62465689247414
% es.EX (V/m) @ t=0.6
-4.792127850507611
% es.EY (V/m) @ t=0.6
-0.5173204746732849
% es.EZ (V/m) @ t=0.6
6.416760867543673
% es.tEX (V/m) @ t=0.6
-4.7921278505076135
% es.tEY (V/m) @ t=0.6
0
% es.tEZ (V/m) @ t=0.6
6.416760867543666
% es.Ex (V/m) @ t=0.6
-4.792127850507611
% es.Ey (V/m) @ t=0.6
-0.5173204746732849
% es.Ez (V/m) @ t=0.6
6.416760867543673
% es.tEx (V/m) @ t=0.6
-4.7921278505076135
% es.tEy (V/m) @ t=0.6
0
% es.tEz (V/m) @ t=0.6
6.416760867543666
% V (V) @ t=0.6
0.007083270896435155
% es.normE (V/m) @ t=0.62
8.706820279684775
% es.EX (V/m) @ t=0.62
-4.837797871532607
% es.EY (V/m) @ t=0.62
-0.5222395552826786
% es.EZ (V/m) @ t=0.62
6.477884763775985
% es.tEX (V/m) @ t=0.62
-4.837797871532617
% es.tEY (V/m) @ t=0.62
0
% es.tEZ (V/m) @ t=0.62
6.477884763775977
% es.Ex (V/m) @ t=0.62
-4.837797871532607
% es.Ey (V/m) @ t=0.62
-0.5222395552826786
% es.Ez (V/m) @ t=0.62
6.477884763775985
% es.tEx (V/m) @ t=0.62
-4.837797871532617
% es.tEy (V/m) @ t=0.62
0
% es.tEz (V/m) @ t=0.62
6.477884763775977
% V (V) @ t=0.62
0.007150719993469417
% es.normE (V/m) @ t=0.64
8.788983666960995
% es.EX (V/m) @ t=0.64
-4.883467892557598
% es.EY (V/m) @ t=0.64
-0.5271586358920526
% es.EZ (V/m) @ t=0.64
6.539008660008301
% es.tEX (V/m) @ t=0.64
-4.883467892557608
% es.tEY (V/m) @ t=0.64
0
% es.tEZ (V/m) @ t=0.64
6.539008660008296
% es.Ex (V/m) @ t=0.64
-4.883467892557598
% es.Ey (V/m) @ t=0.64
-0.5271586358920526
% es.Ez (V/m) @ t=0.64
6.539008660008301
% es.tEx (V/m) @ t=0.64
-4.883467892557608
% es.tEy (V/m) @ t=0.64
0
% es.tEz (V/m) @ t=0.64
6.539008660008296
% V (V) @ t=0.64
0.00721816909050368
% es.normE (V/m) @ t=0.66
8.871147054300987
% es.EX (V/m) @ t=0.66
-4.929137913582584
% es.EY (V/m) @ t=0.66
-0.5320777165014245
% es.EZ (V/m) @ t=0.66
6.600132556240618
% es.tEX (V/m) @ t=0.66
-4.9291379135825935
% es.tEY (V/m) @ t=0.66
0
% es.tEZ (V/m) @ t=0.66
6.600132556240607
% es.Ex (V/m) @ t=0.66
-4.929137913582584
% es.Ey (V/m) @ t=0.66
-0.5320777165014245
% es.Ez (V/m) @ t=0.66
6.600132556240618
% es.tEx (V/m) @ t=0.66
-4.9291379135825935
% es.tEy (V/m) @ t=0.66
0
% es.tEz (V/m) @ t=0.66
6.600132556240607
% V (V) @ t=0.66
0.0072856181875379416
% es.normE (V/m) @ t=0.68
8.95331044170302
% es.EX (V/m) @ t=0.68
-4.974807934607581
% es.EY (V/m) @ t=0.68
-0.5369967971108469
% es.EZ (V/m) @ t=0.68
6.661256452472938
% es.tEX (V/m) @ t=0.68
-4.974807934607591
% es.tEY (V/m) @ t=0.68
0
% es.tEZ (V/m) @ t=0.68
6.661256452472934
% es.Ex (V/m) @ t=0.68
-4.974807934607581
% es.Ey (V/m) @ t=0.68
-0.5369967971108469
% es.Ez (V/m) @ t=0.68
6.661256452472938
% es.tEx (V/m) @ t=0.68
-4.974807934607591
% es.tEy (V/m) @ t=0.68
0
% es.tEz (V/m) @ t=0.68
6.661256452472934
% V (V) @ t=0.68
0.007353067284572205
% es.normE (V/m) @ t=0.7
9.035473829165365
% es.EX (V/m) @ t=0.7
-5.020477955632574
% es.EY (V/m) @ t=0.7
-0.54191587772021
% es.EZ (V/m) @ t=0.7
6.722380348705255
% es.tEX (V/m) @ t=0.7
-5.0204779556325905
% es.tEY (V/m) @ t=0.7
0
% es.tEZ (V/m) @ t=0.7
6.722380348705241
% es.Ex (V/m) @ t=0.7
-5.020477955632574
% es.Ey (V/m) @ t=0.7
-0.54191587772021
% es.Ez (V/m) @ t=0.7
6.722380348705255
% es.tEx (V/m) @ t=0.7
-5.0204779556325905
% es.tEy (V/m) @ t=0.7
0
% es.tEz (V/m) @ t=0.7
6.722380348705241
% V (V) @ t=0.7
0.007420516381606466
% es.normE (V/m) @ t=0.72
9.117637216686404
% es.EX (V/m) @ t=0.72
-5.066147976657561
% es.EY (V/m) @ t=0.72
-0.546834958329607
% es.EZ (V/m) @ t=0.72
6.783504244937569
% es.tEX (V/m) @ t=0.72
-5.066147976657574
% es.tEY (V/m) @ t=0.72
0
% es.tEZ (V/m) @ t=0.72
6.783504244937568
% es.Ex (V/m) @ t=0.72
-5.066147976657561
% es.Ey (V/m) @ t=0.72
-0.546834958329607
% es.Ez (V/m) @ t=0.72
6.783504244937569
% es.tEx (V/m) @ t=0.72
-5.066147976657574
% es.tEy (V/m) @ t=0.72
0
% es.tEz (V/m) @ t=0.72
6.783504244937568
% V (V) @ t=0.72
0.007487965478640732
% es.normE (V/m) @ t=0.74
9.199800604264585
% es.EX (V/m) @ t=0.74
-5.111817997682558
% es.EY (V/m) @ t=0.74
-0.5517540389389919
% es.EZ (V/m) @ t=0.74
6.844628141169899
% es.tEX (V/m) @ t=0.74
-5.111817997682568
% es.tEY (V/m) @ t=0.74
0
% es.tEZ (V/m) @ t=0.74
6.8446281411698875
% es.Ex (V/m) @ t=0.74
-5.111817997682558
% es.Ey (V/m) @ t=0.74
-0.5517540389389919
% es.Ez (V/m) @ t=0.74
6.844628141169899
% es.tEx (V/m) @ t=0.74
-5.111817997682568
% es.tEy (V/m) @ t=0.74
0
% es.tEz (V/m) @ t=0.74
6.8446281411698875
% V (V) @ t=0.74
0.007555414575674994
% es.normE (V/m) @ t=0.76
9.281963991898358
% es.EX (V/m) @ t=0.76
-5.157488018707569
% es.EY (V/m) @ t=0.76
-0.5566731195483641
% es.EZ (V/m) @ t=0.76
6.905752037402209
% es.tEX (V/m) @ t=0.76
-5.157488018707571
% es.tEY (V/m) @ t=0.76
0
% es.tEZ (V/m) @ t=0.76
6.905752037402198
% es.Ex (V/m) @ t=0.76
-5.157488018707569
% es.Ey (V/m) @ t=0.76
-0.5566731195483641
% es.Ez (V/m) @ t=0.76
6.905752037402209
% es.tEx (V/m) @ t=0.76
-5.157488018707571
% es.tEy (V/m) @ t=0.76
0
% es.tEz (V/m) @ t=0.76
6.905752037402198
% V (V) @ t=0.76
0.007622863672709254
% es.normE (V/m) @ t=0.78
9.364127379586268
% es.EX (V/m) @ t=0.78
-5.203158039732555
% es.EY (V/m) @ t=0.78
-0.56159220015777
% es.EZ (V/m) @ t=0.78
6.966875933634521
% es.tEX (V/m) @ t=0.78
-5.203158039732557
% es.tEY (V/m) @ t=0.78
0
% es.tEZ (V/m) @ t=0.78
6.966875933634511
% es.Ex (V/m) @ t=0.78
-5.203158039732555
% es.Ey (V/m) @ t=0.78
-0.56159220015777
% es.Ez (V/m) @ t=0.78
6.966875933634521
% es.tEx (V/m) @ t=0.78
-5.203158039732557
% es.tEy (V/m) @ t=0.78
0
% es.tEz (V/m) @ t=0.78
6.966875933634511
% V (V) @ t=0.78
0.0076903127697435176
% es.normE (V/m) @ t=0.8
9.446290767326929
% es.EX (V/m) @ t=0.8
-5.248828060757548
% es.EY (V/m) @ t=0.8
-0.5665112807671437
% es.EZ (V/m) @ t=0.8
7.027999829866842
% es.tEX (V/m) @ t=0.8
-5.248828060757558
% es.tEY (V/m) @ t=0.8
0
% es.tEZ (V/m) @ t=0.8
7.027999829866836
% es.Ex (V/m) @ t=0.8
-5.248828060757548
% es.Ey (V/m) @ t=0.8
-0.5665112807671437
% es.Ez (V/m) @ t=0.8
7.027999829866842
% es.tEx (V/m) @ t=0.8
-5.248828060757558
% es.tEy (V/m) @ t=0.8
0
% es.tEz (V/m) @ t=0.8
7.027999829866836
% V (V) @ t=0.8
0.007757761866777779
% es.normE (V/m) @ t=0.82
9.529165789131657
% es.EX (V/m) @ t=0.82
-5.294891121810841
% es.EY (V/m) @ t=0.82
-0.5714742923984355
% es.EZ (V/m) @ t=0.82
7.089653970339862
% es.tEX (V/m) @ t=0.82
-5.2948911218108465
% es.tEY (V/m) @ t=0.82
0
% es.tEZ (V/m) @ t=0.82
7.089653970339854
% es.Ex (V/m) @ t=0.82
-5.294891121810841
% es.Ey (V/m) @ t=0.82
-0.5714742923984355
% es.Ez (V/m) @ t=0.82
7.089653970339862
% es.tEx (V/m) @ t=0.82
-5.2948911218108465
% es.tEy (V/m) @ t=0.82
0
% es.tEz (V/m) @ t=0.82
7.089653970339854
% V (V) @ t=0.82
0.007825799498226805
% es.normE (V/m) @ t=0.84
9.621118977696408
% es.EX (V/m) @ t=0.84
-5.3459681125462115
% es.EY (V/m) @ t=0.84
-0.5769977229153167
% es.EZ (V/m) @ t=0.84
7.158072326022045
% es.tEX (V/m) @ t=0.84
-5.345968112546221
% es.tEY (V/m) @ t=0.84
0
% es.tEZ (V/m) @ t=0.84
7.158072326022036
% es.Ex (V/m) @ t=0.84
-5.3459681125462115
% es.Ey (V/m) @ t=0.84
-0.5769977229153167
% es.Ez (V/m) @ t=0.84
7.158072326022045
% es.tEx (V/m) @ t=0.84
-5.345968112546221
% es.tEy (V/m) @ t=0.84
0
% es.tEz (V/m) @ t=0.84
7.158072326022036
% V (V) @ t=0.84
0.007901344940480282
% es.normE (V/m) @ t=0.86
9.713072166316596
% es.EX (V/m) @ t=0.86
-5.397045103281578
% es.EY (V/m) @ t=0.86
-0.5825211534322305
% es.EZ (V/m) @ t=0.86
7.226490681704245
% es.tEX (V/m) @ t=0.86
-5.3970451032815845
% es.tEY (V/m) @ t=0.86
0
% es.tEZ (V/m) @ t=0.86
7.226490681704236
% es.Ex (V/m) @ t=0.86
-5.397045103281578
% es.Ey (V/m) @ t=0.86
-0.5825211534322305
% es.Ez (V/m) @ t=0.86
7.226490681704245
% es.tEx (V/m) @ t=0.86
-5.3970451032815845
% es.tEy (V/m) @ t=0.86
0
% es.tEz (V/m) @ t=0.86
7.226490681704236
% V (V) @ t=0.86
0.007976890382733762
% es.normE (V/m) @ t=0.88
9.805025354990645
% es.EX (V/m) @ t=0.88
-5.448122094016942
% es.EY (V/m) @ t=0.88
-0.5880445839491193
% es.EZ (V/m) @ t=0.88
7.2949090373864465
% es.tEX (V/m) @ t=0.88
-5.448122094016951
% es.tEY (V/m) @ t=0.88
0
% es.tEZ (V/m) @ t=0.88
7.294909037386432
% es.Ex (V/m) @ t=0.88
-5.448122094016942
% es.Ey (V/m) @ t=0.88
-0.5880445839491193
% es.Ez (V/m) @ t=0.88
7.2949090373864465
% es.tEx (V/m) @ t=0.88
-5.448122094016951
% es.tEy (V/m) @ t=0.88
0
% es.tEz (V/m) @ t=0.88
7.294909037386432
% V (V) @ t=0.88
0.008052435824987238
% es.normE (V/m) @ t=0.9
9.896978543717054
% es.EX (V/m) @ t=0.9
-5.499199084752306
% es.EY (V/m) @ t=0.9
-0.5935680144660238
% es.EZ (V/m) @ t=0.9
7.363327393068629
% es.tEX (V/m) @ t=0.9
-5.499199084752319
% es.tEY (V/m) @ t=0.9
0
% es.tEZ (V/m) @ t=0.9
7.363327393068621
% es.Ex (V/m) @ t=0.9
-5.499199084752306
% es.Ey (V/m) @ t=0.9
-0.5935680144660238
% es.Ez (V/m) @ t=0.9
7.363327393068629
% es.tEx (V/m) @ t=0.9
-5.499199084752319
% es.tEy (V/m) @ t=0.9
0
% es.tEz (V/m) @ t=0.9
7.363327393068621
% V (V) @ t=0.9
0.008127981267240715
% es.normE (V/m) @ t=0.92
9.988931732494375
% es.EX (V/m) @ t=0.92
-5.550276075487672
% es.EY (V/m) @ t=0.92
-0.5990914449829323
% es.EZ (V/m) @ t=0.92
7.431745748750809
% es.tEX (V/m) @ t=0.92
-5.5502760754876785
% es.tEY (V/m) @ t=0.92
0
% es.tEZ (V/m) @ t=0.92
7.431745748750794
% es.Ex (V/m) @ t=0.92
-5.550276075487672
% es.Ey (V/m) @ t=0.92
-0.5990914449829323
% es.Ez (V/m) @ t=0.92
7.431745748750809
% es.tEx (V/m) @ t=0.92
-5.5502760754876785
% es.tEy (V/m) @ t=0.92
0
% es.tEz (V/m) @ t=0.92
7.431745748750794
% V (V) @ t=0.92
0.008203526709494195
% es.normE (V/m) @ t=0.94
10.080884921321237
% es.EX (V/m) @ t=0.94
-5.6013530662230435
% es.EY (V/m) @ t=0.94
-0.6046148754998248
% es.EZ (V/m) @ t=0.94
7.500164104433009
% es.tEX (V/m) @ t=0.94
-5.601353066223049
% es.tEY (V/m) @ t=0.94
0
% es.tEZ (V/m) @ t=0.94
7.500164104432994
% es.Ex (V/m) @ t=0.94
-5.6013530662230435
% es.Ey (V/m) @ t=0.94
-0.6046148754998248
% es.Ez (V/m) @ t=0.94
7.500164104433009
% es.tEx (V/m) @ t=0.94
-5.601353066223049
% es.tEy (V/m) @ t=0.94
0
% es.tEz (V/m) @ t=0.94
7.500164104432994
% V (V) @ t=0.94
0.008279072151747672
% es.normE (V/m) @ t=0.96
10.172838110196302
% es.EX (V/m) @ t=0.96
-5.65243005695841
% es.EY (V/m) @ t=0.96
-0.6101383060167598
% es.EZ (V/m) @ t=0.96
7.568582460115224
% es.tEX (V/m) @ t=0.96
-5.6524300569584165
% es.tEY (V/m) @ t=0.96
0
% es.tEZ (V/m) @ t=0.96
7.568582460115211
% es.Ex (V/m) @ t=0.96
-5.65243005695841
% es.Ey (V/m) @ t=0.96
-0.6101383060167598
% es.Ez (V/m) @ t=0.96
7.568582460115224
% es.tEx (V/m) @ t=0.96
-5.6524300569584165
% es.tEy (V/m) @ t=0.96
0
% es.tEz (V/m) @ t=0.96
7.568582460115211
% V (V) @ t=0.96
0.008354617594001152
% es.normE (V/m) @ t=0.98
10.264791299118203
% es.EX (V/m) @ t=0.98
-5.703507047693766
% es.EY (V/m) @ t=0.98
-0.6156617365336465
% es.EZ (V/m) @ t=0.98
7.637000815797392
% es.tEX (V/m) @ t=0.98
-5.703507047693776
% es.tEY (V/m) @ t=0.98
0
% es.tEZ (V/m) @ t=0.98
7.637000815797385
% es.Ex (V/m) @ t=0.98
-5.703507047693766
% es.Ey (V/m) @ t=0.98
-0.6156617365336465
% es.Ez (V/m) @ t=0.98
7.637000815797392
% es.tEx (V/m) @ t=0.98
-5.703507047693776
% es.tEy (V/m) @ t=0.98
0
% es.tEz (V/m) @ t=0.98
7.637000815797385
% V (V) @ t=0.98
0.008430163036254629
% es.normE (V/m) @ t=1
10.356744488085765
% es.EX (V/m) @ t=1
-5.754584038429127
% es.EY (V/m) @ t=1
-0.62118516705053
% es.EZ (V/m) @ t=1
7.7054191714795826
% es.tEX (V/m) @ t=1
-5.754584038429129
% es.tEY (V/m) @ t=1
0
% es.tEZ (V/m) @ t=1
7.705419171479574
% es.Ex (V/m) @ t=1
-5.754584038429127
% es.Ey (V/m) @ t=1
-0.62118516705053
% es.Ez (V/m) @ t=1
7.7054191714795826
% es.tEx (V/m) @ t=1
-5.754584038429129
% es.tEy (V/m) @ t=1
0
% es.tEz (V/m) @ t=1
7.705419171479574
% V (V) @ t=1
0.008505708478508107
% es.normE (V/m) @ t=1.02
10.448697677097766
% es.EX (V/m) @ t=1.02
-5.805661029164501
% es.EY (V/m) @ t=1.02
-0.6267085975674327
% es.EZ (V/m) @ t=1.02
7.773837527161782
% es.tEX (V/m) @ t=1.02
-5.8056610291645105
% es.tEY (V/m) @ t=1.02
0
% es.tEZ (V/m) @ t=1.02
7.773837527161773
% es.Ex (V/m) @ t=1.02
-5.805661029164501
% es.Ey (V/m) @ t=1.02
-0.6267085975674327
% es.Ez (V/m) @ t=1.02
7.773837527161782
% es.tEx (V/m) @ t=1.02
-5.8056610291645105
% es.tEy (V/m) @ t=1.02
0
% es.tEz (V/m) @ t=1.02
7.773837527161773
% V (V) @ t=1.02
0.008581253920761586
% es.normE (V/m) @ t=1.04
10.540650866153026
% es.EX (V/m) @ t=1.04
-5.856738019899864
% es.EY (V/m) @ t=1.04
-0.6322320280843483
% es.EZ (V/m) @ t=1.04
7.842255882843955
% es.tEX (V/m) @ t=1.04
-5.856738019899877
% es.tEY (V/m) @ t=1.04
0
% es.tEZ (V/m) @ t=1.04
7.842255882843953
% es.Ex (V/m) @ t=1.04
-5.856738019899864
% es.Ey (V/m) @ t=1.04
-0.6322320280843483
% es.Ez (V/m) @ t=1.04
7.842255882843955
% es.tEx (V/m) @ t=1.04
-5.856738019899877
% es.tEy (V/m) @ t=1.04
0
% es.tEz (V/m) @ t=1.04
7.842255882843953