% Model:              1 neuron.mph
% Version:            COMSOL 6.1.0.252
% Date:               Mar 18 2023, 12:06
% Dimension:          0
% Nodes:              14017
% Expressions:        14017
% Description:        Electric field norm, Electric field, X component, Electric field, Y component, Electric field, Z component, Tangential electric field, X component, Tangential electric field, Y component, Tangential electric field, Z component, Electric field, x component, Electric field, y component, Electric field, z component, Tangential electric field, x component, Tangential electric field, y component, Tangential electric field, z component, Electric potential
% Length unit:        mm
% x
1.33
% y
12.2
% z
2
% es.normE (V/m) @ t=0
1.4760015247843605
% es.EX (V/m) @ t=0
0.5882423544718038
% es.EY (V/m) @ t=0
0.1555209782710043
% es.EZ (V/m) @ t=0
-1.3435608515084771
% es.tEX (V/m) @ t=0
0.5882423544718076
% es.tEY (V/m) @ t=0
0
% es.tEZ (V/m) @ t=0
-1.3435608515084798
% es.Ex (V/m) @ t=0
0.5882423544718038
% es.Ey (V/m) @ t=0
0.1555209782710043
% es.Ez (V/m) @ t=0
-1.3435608515084771
% es.tEx (V/m) @ t=0
0.5882423544718076
% es.tEy (V/m) @ t=0
0
% es.tEz (V/m) @ t=0
-1.3435608515084798
% V (V) @ t=0
0.007380131297668163
% es.normE (V/m) @ t=0.02
1.2748397405066247
% es.EX (V/m) @ t=0.02
0.5080717865448763
% es.EY (V/m) @ t=0.02
0.13432528516023812
% es.EZ (V/m) @ t=0.02
-1.160449185113964
% es.tEX (V/m) @ t=0.02
0.508071786544873
% es.tEY (V/m) @ t=0.02
0
% es.tEZ (V/m) @ t=0.02
-1.1604491851139649
% es.Ex (V/m) @ t=0.02
0.5080717865448763
% es.Ey (V/m) @ t=0.02
0.13432528516023812
% es.Ez (V/m) @ t=0.02
-1.160449185113964
% es.tEx (V/m) @ t=0.02
0.508071786544873
% es.tEy (V/m) @ t=0.02
0
% es.tEz (V/m) @ t=0.02
-1.1604491851139649
% V (V) @ t=0.02
0.006374305475473156
% es.normE (V/m) @ t=0.04
1.2865667978248703
% es.EX (V/m) @ t=0.04
0.5127454623470613
% es.EY (V/m) @ t=0.04
0.13556092533594022
% es.EZ (V/m) @ t=0.04
-1.1711239806778062
% es.tEX (V/m) @ t=0.04
0.5127454623470649
% es.tEY (V/m) @ t=0.04
0
% es.tEZ (V/m) @ t=0.04
-1.1711239806778089
% es.Ex (V/m) @ t=0.04
0.5127454623470613
% es.Ey (V/m) @ t=0.04
0.13556092533594022
% es.Ez (V/m) @ t=0.04
-1.1711239806778062
% es.tEx (V/m) @ t=0.04
0.5127454623470649
% es.tEy (V/m) @ t=0.04
0
% es.tEz (V/m) @ t=0.04
-1.1711239806778089
% V (V) @ t=0.04
0.006432941691152691
% es.normE (V/m) @ t=0.06
1.2984056507051174
% es.EX (V/m) @ t=0.06
0.5174636928157754
% es.EY (V/m) @ t=0.06
0.1368083442268655
% es.EZ (V/m) @ t=0.06
-1.1819005405539889
% es.tEX (V/m) @ t=0.06
0.5174636928157721
% es.tEY (V/m) @ t=0.06
0
% es.tEZ (V/m) @ t=0.06
-1.181900540553988
% es.Ex (V/m) @ t=0.06
0.5174636928157754
% es.Ey (V/m) @ t=0.06
0.1368083442268655
% es.Ez (V/m) @ t=0.06
-1.1819005405539889
% es.tEx (V/m) @ t=0.06
0.5174636928157721
% es.tEy (V/m) @ t=0.06
0
% es.tEz (V/m) @ t=0.06
-1.181900540553988
% V (V) @ t=0.06
0.006492136909641827
% es.normE (V/m) @ t=0.08
1.310410772832157
% es.EX (V/m) @ t=0.08
0.5222481873901448
% es.EY (V/m) @ t=0.08
0.13807328085563775
% es.EZ (V/m) @ t=0.08
-1.1928284507498264
% es.tEX (V/m) @ t=0.08
0.5222481873901414
% es.tEY (V/m) @ t=0.08
0
% es.tEZ (V/m) @ t=0.08
-1.1928284507498308
% es.Ex (V/m) @ t=0.08
0.5222481873901448
% es.Ey (V/m) @ t=0.08
0.13807328085563775
% es.Ez (V/m) @ t=0.08
-1.1928284507498264
% es.tEx (V/m) @ t=0.08
0.5222481873901414
% es.tEy (V/m) @ t=0.08
0
% es.tEz (V/m) @ t=0.08
-1.1928284507498308
% V (V) @ t=0.08
0.006552163525794016
% es.normE (V/m) @ t=0.1
1.322561154420681
% es.EX (V/m) @ t=0.1
0.5270905729364561
% es.EY (V/m) @ t=0.1
0.13935352168054882
% es.EZ (V/m) @ t=0.1
-1.2038885866359452
% es.tEX (V/m) @ t=0.1
0.5270905729364563
% es.tEY (V/m) @ t=0.1
0
% es.tEZ (V/m) @ t=0.1
-1.2038885866359479
% es.Ex (V/m) @ t=0.1
0.5270905729364561
% es.Ey (V/m) @ t=0.1
0.13935352168054882
% es.Ez (V/m) @ t=0.1
-1.2038885866359452
% es.tEx (V/m) @ t=0.1
0.5270905729364563
% es.tEy (V/m) @ t=0.1
0
% es.tEz (V/m) @ t=0.1
-1.2038885866359479
% V (V) @ t=0.1
0.006612916484184153
% es.normE (V/m) @ t=0.12
1.3347115360092068
% es.EX (V/m) @ t=0.12
0.5319329584827703
% es.EY (V/m) @ t=0.12
0.14063376250547588
% es.EZ (V/m) @ t=0.12
-1.2149487225220623
% es.tEX (V/m) @ t=0.12
0.5319329584827703
% es.tEY (V/m) @ t=0.12
0
% es.tEZ (V/m) @ t=0.12
-1.214948722522065
% es.Ex (V/m) @ t=0.12
0.5319329584827703
% es.Ey (V/m) @ t=0.12
0.14063376250547588
% es.Ez (V/m) @ t=0.12
-1.2149487225220623
% es.tEx (V/m) @ t=0.12
0.5319329584827703
% es.tEy (V/m) @ t=0.12
0
% es.tEz (V/m) @ t=0.12
-1.214948722522065
% V (V) @ t=0.12
0.006673669442574291
% es.normE (V/m) @ t=0.14
1.346913095745725
% es.EX (V/m) @ t=0.14
0.5367957404264463
% es.EY (V/m) @ t=0.14
0.14191939578521895
% es.EZ (V/m) @ t=0.14
-1.2260554443856853
% es.tEX (V/m) @ t=0.14
0.5367957404264465
% es.tEY (V/m) @ t=0.14
0
% es.tEZ (V/m) @ t=0.14
-1.2260554443856897
% es.Ex (V/m) @ t=0.14
0.5367957404264463
% es.Ey (V/m) @ t=0.14
0.14191939578521895
% es.Ez (V/m) @ t=0.14
-1.2260554443856853
% es.tEx (V/m) @ t=0.14
0.5367957404264465
% es.tEy (V/m) @ t=0.14
0
% es.tEz (V/m) @ t=0.14
-1.2260554443856897
% V (V) @ t=0.14
0.006734678296809393
% es.normE (V/m) @ t=0.16
1.3597232754081658
% es.EX (V/m) @ t=0.16
0.541901080069892
% es.EY (V/m) @ t=0.16
0.14326915712713673
% es.EZ (V/m) @ t=0.16
-1.2377161752411991
% es.tEX (V/m) @ t=0.16
0.5419010800698922
% es.tEY (V/m) @ t=0.16
0
% es.tEZ (V/m) @ t=0.16
-1.2377161752412018
% es.Ex (V/m) @ t=0.16
0.541901080069892
% es.Ey (V/m) @ t=0.16
0.14326915712713673
% es.Ez (V/m) @ t=0.16
-1.2377161752411991
% es.tEx (V/m) @ t=0.16
0.5419010800698922
% es.tEy (V/m) @ t=0.16
0
% es.tEz (V/m) @ t=0.16
-1.2377161752412018
% V (V) @ t=0.16
0.006798730311383629
% es.normE (V/m) @ t=0.18
1.3725334550706063
% es.EX (V/m) @ t=0.18
0.5470064197133311
% es.EY (V/m) @ t=0.18
0.14461891846904829
% es.EZ (V/m) @ t=0.18
-1.2493769060967166
% es.tEX (V/m) @ t=0.18
0.5470064197133313
% es.tEY (V/m) @ t=0.18
0
% es.tEZ (V/m) @ t=0.18
-1.2493769060967193
% es.Ex (V/m) @ t=0.18
0.5470064197133311
% es.Ey (V/m) @ t=0.18
0.14461891846904829
% es.Ez (V/m) @ t=0.18
-1.2493769060967166
% es.tEx (V/m) @ t=0.18
0.5470064197133313
% es.tEy (V/m) @ t=0.18
0
% es.tEz (V/m) @ t=0.18
-1.2493769060967193
% V (V) @ t=0.18
0.0068627823259578636
% es.normE (V/m) @ t=0.2
1.3853436347330388
% es.EX (V/m) @ t=0.2
0.5521117593567701
% es.EY (V/m) @ t=0.2
0.14596867981097406
% es.EZ (V/m) @ t=0.2
-1.2610376369522234
% es.tEX (V/m) @ t=0.2
0.5521117593567704
% es.tEY (V/m) @ t=0.2
0
% es.tEZ (V/m) @ t=0.2
-1.2610376369522296
% es.Ex (V/m) @ t=0.2
0.5521117593567701
% es.Ey (V/m) @ t=0.2
0.14596867981097406
% es.Ez (V/m) @ t=0.2
-1.2610376369522234
% es.tEx (V/m) @ t=0.2
0.5521117593567704
% es.tEy (V/m) @ t=0.2
0
% es.tEz (V/m) @ t=0.2
-1.2610376369522296
% V (V) @ t=0.2
0.006926834340532099
% es.normE (V/m) @ t=0.22
1.3981538143954713
% es.EX (V/m) @ t=0.22
0.5572170990002021
% es.EY (V/m) @ t=0.22
0.14731844115289672
% es.EZ (V/m) @ t=0.22
-1.2726983678077337
% es.tEX (V/m) @ t=0.22
0.5572170990002023
% es.tEY (V/m) @ t=0.22
0
% es.tEZ (V/m) @ t=0.22
-1.27269836780774
% es.Ex (V/m) @ t=0.22
0.5572170990002021
% es.Ey (V/m) @ t=0.22
0.14731844115289672
% es.Ez (V/m) @ t=0.22
-1.2726983678077337
% es.tEx (V/m) @ t=0.22
0.5572170990002023
% es.tEy (V/m) @ t=0.22
0
% es.tEz (V/m) @ t=0.22
-1.27269836780774
% V (V) @ t=0.22
0.006990886355106333
% es.normE (V/m) @ t=0.24
1.4109639940579122
% es.EX (V/m) @ t=0.24
0.5623224386436483
% es.EY (V/m) @ t=0.24
0.14866820249480472
% es.EZ (V/m) @ t=0.24
-1.2843590986632494
% es.tEX (V/m) @ t=0.24
0.5623224386436485
% es.tEY (V/m) @ t=0.24
0
% es.tEZ (V/m) @ t=0.24
-1.2843590986632503
% es.Ex (V/m) @ t=0.24
0.5623224386436483
% es.Ey (V/m) @ t=0.24
0.14866820249480472
% es.Ez (V/m) @ t=0.24
-1.2843590986632494
% es.tEx (V/m) @ t=0.24
0.5623224386436485
% es.tEy (V/m) @ t=0.24
0
% es.tEz (V/m) @ t=0.24
-1.2843590986632503
% V (V) @ t=0.24
0.007054938369680571
% es.normE (V/m) @ t=0.26
1.423774173720357
% es.EX (V/m) @ t=0.26
0.567427778287094
% es.EY (V/m) @ t=0.26
0.1500179638367256
% es.EZ (V/m) @ t=0.26
-1.2960198295187668
% es.tEX (V/m) @ t=0.26
0.5674277782870942
% es.tEY (V/m) @ t=0.26
0
% es.tEZ (V/m) @ t=0.26
-1.296019829518773
% es.Ex (V/m) @ t=0.26
0.567427778287094
% es.Ey (V/m) @ t=0.26
0.1500179638367256
% es.Ez (V/m) @ t=0.26
-1.2960198295187668
% es.tEx (V/m) @ t=0.26
0.5674277782870942
% es.tEy (V/m) @ t=0.26
0
% es.tEz (V/m) @ t=0.26
-1.296019829518773
% V (V) @ t=0.26
0.007118990384254806
% es.normE (V/m) @ t=0.28
1.4368301692054597
% es.EX (V/m) @ t=0.28
0.5726310850381704
% es.EY (V/m) @ t=0.28
0.1513936260951727
% es.EZ (V/m) @ t=0.28
-1.3079043191932405
% es.tEX (V/m) @ t=0.28
0.5726310850381706
% es.tEY (V/m) @ t=0.28
0
% es.tEZ (V/m) @ t=0.28
-1.3079043191932431
% es.Ex (V/m) @ t=0.28
0.5726310850381704
% es.Ey (V/m) @ t=0.28
0.1513936260951727
% es.Ez (V/m) @ t=0.28
-1.3079043191932405
% es.tEx (V/m) @ t=0.28
0.5726310850381706
% es.tEy (V/m) @ t=0.28
0
% es.tEz (V/m) @ t=0.28
-1.3079043191932431
% V (V) @ t=0.28
0.007184271489321047
% es.normE (V/m) @ t=0.3
1.4511278139756474
% es.EX (V/m) @ t=0.3
0.5783292370268198
% es.EY (V/m) @ t=0.3
0.15290011741959386
% es.EZ (V/m) @ t=0.3
-1.3209190452153168
% es.tEX (V/m) @ t=0.3
0.57832923702682
% es.tEY (V/m) @ t=0.3
0
% es.tEZ (V/m) @ t=0.3
-1.3209190452153177
% es.Ex (V/m) @ t=0.3
0.5783292370268198
% es.Ey (V/m) @ t=0.3
0.15290011741959386
% es.Ez (V/m) @ t=0.3
-1.3209190452153168
% es.tEx (V/m) @ t=0.3
0.57832923702682
% es.tEy (V/m) @ t=0.3
0
% es.tEz (V/m) @ t=0.3
-1.3209190452153177
% V (V) @ t=0.3
0.007255760898287941
% es.normE (V/m) @ t=0.32
1.4654254587458277
% es.EX (V/m) @ t=0.32
0.5840273890154615
% es.EY (V/m) @ t=0.32
0.1544066087440168
% es.EZ (V/m) @ t=0.32
-1.3339337712373878
% es.tEX (V/m) @ t=0.32
0.5840273890154615
% es.tEY (V/m) @ t=0.32
0
% es.tEZ (V/m) @ t=0.32
-1.333933771237394
% es.Ex (V/m) @ t=0.32
0.5840273890154615
% es.Ey (V/m) @ t=0.32
0.1544066087440168
% es.Ez (V/m) @ t=0.32
-1.3339337712373878
% es.tEx (V/m) @ t=0.32
0.5840273890154615
% es.tEy (V/m) @ t=0.32
0
% es.tEz (V/m) @ t=0.32
-1.333933771237394
% V (V) @ t=0.32
0.007327250307254836
% es.normE (V/m) @ t=0.34
1.4797231035160219
% es.EX (V/m) @ t=0.34
0.5897255410041182
% es.EY (V/m) @ t=0.34
0.15591310006845438
% es.EZ (V/m) @ t=0.34
-1.3469484972594659
% es.tEX (V/m) @ t=0.34
0.5897255410041184
% es.tEY (V/m) @ t=0.34
0
% es.tEZ (V/m) @ t=0.34
-1.3469484972594703
% es.Ex (V/m) @ t=0.34
0.5897255410041182
% es.Ey (V/m) @ t=0.34
0.15591310006845438
% es.Ez (V/m) @ t=0.34
-1.3469484972594659
% es.tEx (V/m) @ t=0.34
0.5897255410041184
% es.tEy (V/m) @ t=0.34
0
% es.tEz (V/m) @ t=0.34
-1.3469484972594703
% V (V) @ t=0.34
0.00739873971622173
% es.normE (V/m) @ t=0.36
1.494020748286212
% es.EX (V/m) @ t=0.36
0.5954236929927748
% es.EY (V/m) @ t=0.36
0.15741959139288753
% es.EZ (V/m) @ t=0.36
-1.3599632232815404
% es.tEX (V/m) @ t=0.36
0.595423692992775
% es.tEY (V/m) @ t=0.36
0
% es.tEZ (V/m) @ t=0.36
-1.3599632232815466
% es.Ex (V/m) @ t=0.36
0.5954236929927748
% es.Ey (V/m) @ t=0.36
0.15741959139288753
% es.Ez (V/m) @ t=0.36
-1.3599632232815404
% es.tEx (V/m) @ t=0.36
0.595423692992775
% es.tEy (V/m) @ t=0.36
0
% es.tEz (V/m) @ t=0.36
-1.3599632232815466
% V (V) @ t=0.36
0.007470229125188624
% es.normE (V/m) @ t=0.38
1.5083183930564026
% es.EX (V/m) @ t=0.38
0.6011218449814308
% es.EY (V/m) @ t=0.38
0.15892608271732067
% es.EZ (V/m) @ t=0.38
-1.372977949303615
% es.tEX (V/m) @ t=0.38
0.6011218449814311
% es.tEY (V/m) @ t=0.38
0
% es.tEZ (V/m) @ t=0.38
-1.3729779493036176
% es.Ex (V/m) @ t=0.38
0.6011218449814308
% es.Ey (V/m) @ t=0.38
0.15892608271732067
% es.Ez (V/m) @ t=0.38
-1.372977949303615
% es.tEx (V/m) @ t=0.38
0.6011218449814311
% es.tEy (V/m) @ t=0.38
0
% es.tEz (V/m) @ t=0.38
-1.3729779493036176
% V (V) @ t=0.38
0.0075417185341555195
% es.normE (V/m) @ t=0.4
1.5226160378265852
% es.EX (V/m) @ t=0.4
0.6068199969700732
% es.EY (V/m) @ t=0.4
0.16043257404174893
% es.EZ (V/m) @ t=0.4
-1.3859926753256877
% es.tEX (V/m) @ t=0.4
0.6068199969700734
% es.tEY (V/m) @ t=0.4
0
% es.tEZ (V/m) @ t=0.4
-1.3859926753256904
% es.Ex (V/m) @ t=0.4
0.6068199969700732
% es.Ey (V/m) @ t=0.4
0.16043257404174893
% es.Ez (V/m) @ t=0.4
-1.3859926753256877
% es.tEx (V/m) @ t=0.4
0.6068199969700734
% es.tEy (V/m) @ t=0.4
0
% es.tEz (V/m) @ t=0.4
-1.3859926753256904
% V (V) @ t=0.4
0.007613207943122412
% es.normE (V/m) @ t=0.42
1.5369136825967775
% es.EX (V/m) @ t=0.42
0.6125181489587364
% es.EY (V/m) @ t=0.42
0.16193906536617497
% es.EZ (V/m) @ t=0.42
-1.3990074013477622
% es.tEX (V/m) @ t=0.42
0.6125181489587366
% es.tEY (V/m) @ t=0.42
0
% es.tEZ (V/m) @ t=0.42
-1.399007401347765
% es.Ex (V/m) @ t=0.42
0.6125181489587364
% es.Ey (V/m) @ t=0.42
0.16193906536617497
% es.Ez (V/m) @ t=0.42
-1.3990074013477622
% es.tEx (V/m) @ t=0.42
0.6125181489587366
% es.tEy (V/m) @ t=0.42
0
% es.tEz (V/m) @ t=0.42
-1.399007401347765
% V (V) @ t=0.42
0.007684697352089306
% es.normE (V/m) @ t=0.44
1.551211327366972
% es.EX (V/m) @ t=0.44
0.6182163009473929
% es.EY (V/m) @ t=0.44
0.16344555669060457
% es.EZ (V/m) @ t=0.44
-1.4120221273698421
% es.tEX (V/m) @ t=0.44
0.6182163009473931
% es.tEY (V/m) @ t=0.44
0
% es.tEZ (V/m) @ t=0.44
-1.4120221273698466
% es.Ex (V/m) @ t=0.44
0.6182163009473929
% es.Ey (V/m) @ t=0.44
0.16344555669060457
% es.Ez (V/m) @ t=0.44
-1.4120221273698421
% es.tEx (V/m) @ t=0.44
0.6182163009473931
% es.tEy (V/m) @ t=0.44
0
% es.tEz (V/m) @ t=0.44
-1.4120221273698466
% V (V) @ t=0.44
0.007756186761056201
% es.normE (V/m) @ t=0.46
1.5655089721371551
% es.EX (V/m) @ t=0.46
0.6239144529360388
% es.EY (V/m) @ t=0.46
0.1649520480150355
% es.EZ (V/m) @ t=0.46
-1.425036853391913
% es.tEX (V/m) @ t=0.46
0.6239144529360354
% es.tEY (V/m) @ t=0.46
0
% es.tEZ (V/m) @ t=0.46
-1.4250368533919175
% es.Ex (V/m) @ t=0.46
0.6239144529360388
% es.Ey (V/m) @ t=0.46
0.1649520480150355
% es.Ez (V/m) @ t=0.46
-1.425036853391913
% es.tEx (V/m) @ t=0.46
0.6239144529360354
% es.tEy (V/m) @ t=0.46
0
% es.tEz (V/m) @ t=0.46
-1.4250368533919175
% V (V) @ t=0.46
0.007827676170023095
% es.normE (V/m) @ t=0.48
1.5798066169073475
% es.EX (V/m) @ t=0.48
0.6296126049246917
% es.EY (V/m) @ t=0.48
0.16645853933945443
% es.EZ (V/m) @ t=0.48
-1.438051579413993
% es.tEX (V/m) @ t=0.48
0.629612604924692
% es.tEY (V/m) @ t=0.48
0
% es.tEZ (V/m) @ t=0.48
-1.4380515794139956
% es.Ex (V/m) @ t=0.48
0.6296126049246917
% es.Ey (V/m) @ t=0.48
0.16645853933945443
% es.Ez (V/m) @ t=0.48
-1.438051579413993
% es.tEx (V/m) @ t=0.48
0.629612604924692
% es.tEy (V/m) @ t=0.48
0
% es.tEz (V/m) @ t=0.48
-1.4380515794139956
% V (V) @ t=0.48
0.007899165578989988
% es.normE (V/m) @ t=0.5
1.5941042616775323
% es.EX (V/m) @ t=0.5
0.6353107569133407
% es.EY (V/m) @ t=0.5
0.16796503066389468
% es.EZ (V/m) @ t=0.5
-1.451066305436064
% es.tEX (V/m) @ t=0.5
0.6353107569133409
% es.tEY (V/m) @ t=0.5
0
% es.tEZ (V/m) @ t=0.5
-1.451066305436063
% es.Ex (V/m) @ t=0.5
0.6353107569133407
% es.Ey (V/m) @ t=0.5
0.16796503066389468
% es.Ez (V/m) @ t=0.5
-1.451066305436064
% es.tEx (V/m) @ t=0.5
0.6353107569133409
% es.tEy (V/m) @ t=0.5
0
% es.tEz (V/m) @ t=0.5
-1.451066305436063
% V (V) @ t=0.5
0.007970654987956882
% es.normE (V/m) @ t=0.52
1.608401906447721
% es.EX (V/m) @ t=0.52
0.6410089089019972
% es.EY (V/m) @ t=0.52
0.1694715219883136
% es.EZ (V/m) @ t=0.52
-1.4640810314581385
% es.tEX (V/m) @ t=0.52
0.6410089089019975
% es.tEY (V/m) @ t=0.52
0
% es.tEZ (V/m) @ t=0.52
-1.4640810314581394
% es.Ex (V/m) @ t=0.52
0.6410089089019972
% es.Ey (V/m) @ t=0.52
0.1694715219883136
% es.Ez (V/m) @ t=0.52
-1.4640810314581385
% es.tEx (V/m) @ t=0.52
0.6410089089019975
% es.tEy (V/m) @ t=0.52
0
% es.tEz (V/m) @ t=0.52
-1.4640810314581394
% V (V) @ t=0.52
0.008042144396923776
% es.normE (V/m) @ t=0.54
1.6226995512179037
% es.EX (V/m) @ t=0.54
0.6467070608906356
% es.EY (V/m) @ t=0.54
0.17097801331275386
% es.EZ (V/m) @ t=0.54
-1.4770957574802113
% es.tEX (V/m) @ t=0.54
0.6467070608906322
% es.tEY (V/m) @ t=0.54
0
% es.tEZ (V/m) @ t=0.54
-1.477095757480214
% es.Ex (V/m) @ t=0.54
0.6467070608906356
% es.Ey (V/m) @ t=0.54
0.17097801331275386
% es.Ez (V/m) @ t=0.54
-1.4770957574802113
% es.tEx (V/m) @ t=0.54
0.6467070608906322
% es.tEy (V/m) @ t=0.54
0
% es.tEz (V/m) @ t=0.54
-1.477095757480214
% V (V) @ t=0.54
0.00811363380589067
% es.normE (V/m) @ t=0.56
1.6375728042443023
% es.EX (V/m) @ t=0.56
0.6526346143473738
% es.EY (V/m) @ t=0.56
0.17254515451722163
% es.EZ (V/m) @ t=0.56
-1.4906344428596237
% es.tEX (V/m) @ t=0.56
0.6526346143473742
% es.tEY (V/m) @ t=0.56
0
% es.tEZ (V/m) @ t=0.56
-1.4906344428596263
% es.Ex (V/m) @ t=0.56
0.6526346143473738
% es.Ey (V/m) @ t=0.56
0.17254515451722163
% es.Ez (V/m) @ t=0.56
-1.4906344428596237
% es.tEx (V/m) @ t=0.56
0.6526346143473742
% es.tEy (V/m) @ t=0.56
0
% es.tEz (V/m) @ t=0.56
-1.4906344428596263
% V (V) @ t=0.56
0.008188001307097842
% es.normE (V/m) @ t=0.58
1.6535602244092387
% es.EX (V/m) @ t=0.58
0.6590062051758792
% es.EY (V/m) @ t=0.58
0.1742296917155599
% es.EZ (V/m) @ t=0.58
-1.5051873219924827
% es.tEX (V/m) @ t=0.58
0.6590062051758796
% es.tEY (V/m) @ t=0.58
0
% es.tEZ (V/m) @ t=0.58
-1.5051873219924854
% es.Ex (V/m) @ t=0.58
0.6590062051758792
% es.Ey (V/m) @ t=0.58
0.1742296917155599
% es.Ez (V/m) @ t=0.58
-1.5051873219924827
% es.tEx (V/m) @ t=0.58
0.6590062051758796
% es.tEy (V/m) @ t=0.58
0
% es.tEz (V/m) @ t=0.58
-1.5051873219924854
% V (V) @ t=0.58
0.008267939742636225
% es.normE (V/m) @ t=0.6
1.66954764457418
% es.EX (V/m) @ t=0.6
0.6653777960043887
% es.EY (V/m) @ t=0.6
0.17591422891390485
% es.EZ (V/m) @ t=0.6
-1.5197402011253436
% es.tEX (V/m) @ t=0.6
0.6653777960043854
% es.tEY (V/m) @ t=0.6
0
% es.tEZ (V/m) @ t=0.6
-1.5197402011253498
% es.Ex (V/m) @ t=0.6
0.6653777960043887
% es.Ey (V/m) @ t=0.6
0.17591422891390485
% es.Ez (V/m) @ t=0.6
-1.5197402011253436
% es.tEx (V/m) @ t=0.6
0.6653777960043854
% es.tEy (V/m) @ t=0.6
0
% es.tEz (V/m) @ t=0.6
-1.5197402011253498
% V (V) @ t=0.6
0.008347878178174612
% es.normE (V/m) @ t=0.62
1.6855350647391076
% es.EX (V/m) @ t=0.62
0.6717493868328905
% es.EY (V/m) @ t=0.62
0.1775987661122418
% es.EZ (V/m) @ t=0.62
-1.5342930802581938
% es.tEX (V/m) @ t=0.62
0.6717493868328908
% es.tEY (V/m) @ t=0.62
0
% es.tEZ (V/m) @ t=0.62
-1.5342930802582
% es.Ex (V/m) @ t=0.62
0.6717493868328905
% es.Ey (V/m) @ t=0.62
0.1775987661122418
% es.Ez (V/m) @ t=0.62
-1.5342930802581938
% es.tEx (V/m) @ t=0.62
0.6717493868328908
% es.tEy (V/m) @ t=0.62
0
% es.tEz (V/m) @ t=0.62
-1.5342930802582
% V (V) @ t=0.62
0.008427816613712997
% es.normE (V/m) @ t=0.64
1.7015224849040502
% es.EX (V/m) @ t=0.64
0.6781209776614034
% es.EY (V/m) @ t=0.64
0.1792833033105672
% es.EZ (V/m) @ t=0.64
-1.5488459593910582
% es.tEX (V/m) @ t=0.64
0.6781209776614037
% es.tEY (V/m) @ t=0.64
0
% es.tEZ (V/m) @ t=0.64
-1.5488459593910644
% es.Ex (V/m) @ t=0.64
0.6781209776614034
% es.Ey (V/m) @ t=0.64
0.1792833033105672
% es.Ez (V/m) @ t=0.64
-1.5488459593910582
% es.tEx (V/m) @ t=0.64
0.6781209776614037
% es.tEy (V/m) @ t=0.64
0
% es.tEz (V/m) @ t=0.64
-1.5488459593910644
% V (V) @ t=0.64
0.008507755049251383
% es.normE (V/m) @ t=0.66
1.7175099050689857
% es.EX (V/m) @ t=0.66
0.6844925684899088
% es.EY (V/m) @ t=0.66
0.18096784050889303
% es.EZ (V/m) @ t=0.66
-1.5633988385239173
% es.tEX (V/m) @ t=0.66
0.684492568489909
% es.tEY (V/m) @ t=0.66
0
% es.tEZ (V/m) @ t=0.66
-1.5633988385239235
% es.Ex (V/m) @ t=0.66
0.6844925684899088
% es.Ey (V/m) @ t=0.66
0.18096784050889303
% es.Ez (V/m) @ t=0.66
-1.5633988385239173
% es.tEx (V/m) @ t=0.66
0.684492568489909
% es.tEy (V/m) @ t=0.66
0
% es.tEz (V/m) @ t=0.66
-1.5633988385239235
% V (V) @ t=0.66
0.008587693484789768
% es.normE (V/m) @ t=0.68
1.7334973252339316
% es.EX (V/m) @ t=0.68
0.6908641593184253
% es.EY (V/m) @ t=0.68
0.18265237770722553
% es.EZ (V/m) @ t=0.68
-1.5779517176567817
% es.tEX (V/m) @ t=0.68
0.6908641593184219
% es.tEY (V/m) @ t=0.68
0
% es.tEZ (V/m) @ t=0.68
-1.5779517176567843
% es.Ex (V/m) @ t=0.68
0.6908641593184253
% es.Ey (V/m) @ t=0.68
0.18265237770722553
% es.Ez (V/m) @ t=0.68
-1.5779517176567817
% es.tEx (V/m) @ t=0.68
0.6908641593184219
% es.tEy (V/m) @ t=0.68
0
% es.tEz (V/m) @ t=0.68
-1.5779517176567843
% V (V) @ t=0.68
0.00866763192032815
% es.normE (V/m) @ t=0.7
1.7494847453988682
% es.EX (V/m) @ t=0.7
0.6972357501469377
% es.EY (V/m) @ t=0.7
0.18433691490555892
% es.EZ (V/m) @ t=0.7
-1.592504596789638
% es.tEX (V/m) @ t=0.7
0.6972357501469344
% es.tEY (V/m) @ t=0.7
0
% es.tEZ (V/m) @ t=0.7
-1.5925045967896398
% es.Ex (V/m) @ t=0.7
0.6972357501469377
% es.Ey (V/m) @ t=0.7
0.18433691490555892
% es.Ez (V/m) @ t=0.7
-1.592504596789638
% es.tEx (V/m) @ t=0.7
0.6972357501469344
% es.tEy (V/m) @ t=0.7
0
% es.tEz (V/m) @ t=0.7
-1.5925045967896398
% V (V) @ t=0.7
0.008747570355866539
% es.normE (V/m) @ t=0.72
1.7654721655638042
% es.EX (V/m) @ t=0.72
0.7036073409754537
% es.EY (V/m) @ t=0.72
0.186021452103883
% es.EZ (V/m) @ t=0.72
-1.6070574759224927
% es.tEX (V/m) @ t=0.72
0.703607340975454
% es.tEY (V/m) @ t=0.72
0
% es.tEZ (V/m) @ t=0.72
-1.6070574759225007
% es.Ex (V/m) @ t=0.72
0.7036073409754537
% es.Ey (V/m) @ t=0.72
0.186021452103883
% es.Ez (V/m) @ t=0.72
-1.6070574759224927
% es.tEx (V/m) @ t=0.72
0.703607340975454
% es.tEy (V/m) @ t=0.72
0
% es.tEz (V/m) @ t=0.72
-1.6070574759225007
% V (V) @ t=0.72
0.008827508791404922
% es.normE (V/m) @ t=0.74
1.7814595857287427
% es.EX (V/m) @ t=0.74
0.7099789318039493
% es.EY (V/m) @ t=0.74
0.18770598930222437
% es.EZ (V/m) @ t=0.74
-1.6216103550553571
% es.tEX (V/m) @ t=0.74
0.709978931803946
% es.tEY (V/m) @ t=0.74
0
% es.tEZ (V/m) @ t=0.74
-1.6216103550553616
% es.Ex (V/m) @ t=0.74
0.7099789318039493
% es.Ey (V/m) @ t=0.74
0.18770598930222437
% es.Ez (V/m) @ t=0.74
-1.6216103550553571
% es.tEx (V/m) @ t=0.74
0.709978931803946
% es.tEy (V/m) @ t=0.74
0
% es.tEz (V/m) @ t=0.74
-1.6216103550553616
% V (V) @ t=0.74
0.008907447226943305
% es.normE (V/m) @ t=0.76
1.7974470058936869
% es.EX (V/m) @ t=0.76
0.7163505226324658
% es.EY (V/m) @ t=0.76
0.18939052650054622
% es.EZ (V/m) @ t=0.76
-1.6361632341882215
% es.tEX (V/m) @ t=0.76
0.716350522632466
% es.tEY (V/m) @ t=0.76
0
% es.tEZ (V/m) @ t=0.76
-1.6361632341882295
% es.Ex (V/m) @ t=0.76
0.7163505226324658
% es.Ey (V/m) @ t=0.76
0.18939052650054622
% es.Ez (V/m) @ t=0.76
-1.6361632341882215
% es.tEx (V/m) @ t=0.76
0.716350522632466
% es.tEy (V/m) @ t=0.76
0
% es.tEz (V/m) @ t=0.76
-1.6361632341882295
% V (V) @ t=0.76
0.008987385662481693
% es.normE (V/m) @ t=0.78
1.8134344260586155
% es.EX (V/m) @ t=0.78
0.7227221134609676
% es.EY (V/m) @ t=0.78
0.19107506369888494
% es.EZ (V/m) @ t=0.78
-1.6507161133210735
% es.tEX (V/m) @ t=0.78
0.7227221134609643
% es.tEY (V/m) @ t=0.78
0
% es.tEZ (V/m) @ t=0.78
-1.650716113321078
% es.Ex (V/m) @ t=0.78
0.7227221134609676
% es.Ey (V/m) @ t=0.78
0.19107506369888494
% es.Ez (V/m) @ t=0.78
-1.6507161133210735
% es.tEx (V/m) @ t=0.78
0.7227221134609643
% es.tEy (V/m) @ t=0.78
0
% es.tEz (V/m) @ t=0.78
-1.650716113321078
% V (V) @ t=0.78
0.009067324098020078
% es.normE (V/m) @ t=0.8
1.8294218462235567
% es.EX (V/m) @ t=0.8
0.7290937042894801
% es.EY (V/m) @ t=0.8
0.19275960089721966
% es.EZ (V/m) @ t=0.8
-1.6652689924539343
% es.tEX (V/m) @ t=0.8
0.7290937042894767
% es.tEY (V/m) @ t=0.8
0
% es.tEZ (V/m) @ t=0.8
-1.6652689924539388
% es.Ex (V/m) @ t=0.8
0.7290937042894801
% es.Ey (V/m) @ t=0.8
0.19275960089721966
% es.Ez (V/m) @ t=0.8
-1.6652689924539343
% es.tEx (V/m) @ t=0.8
0.7290937042894767
% es.tEy (V/m) @ t=0.8
0
% es.tEz (V/m) @ t=0.8
-1.6652689924539388
% V (V) @ t=0.8
0.009147262533558463
% es.normE (V/m) @ t=0.82
1.8454092663885007
% es.EX (V/m) @ t=0.82
0.7354652951179965
% es.EY (V/m) @ t=0.82
0.19444413809555394
% es.EZ (V/m) @ t=0.82
-1.679821871586797
% es.tEX (V/m) @ t=0.82
0.7354652951179967
% es.tEY (V/m) @ t=0.82
0
% es.tEZ (V/m) @ t=0.82
-1.679821871586796
% es.Ex (V/m) @ t=0.82
0.7354652951179965
% es.Ey (V/m) @ t=0.82
0.19444413809555394
% es.Ez (V/m) @ t=0.82
-1.679821871586797
% es.tEx (V/m) @ t=0.82
0.7354652951179967
% es.tEy (V/m) @ t=0.82
0
% es.tEz (V/m) @ t=0.82
-1.679821871586796
% V (V) @ t=0.82
0.00922720096909685
% es.normE (V/m) @ t=0.84
1.8623892031307143
% es.EX (V/m) @ t=0.84
0.7422324409228327
% es.EY (V/m) @ t=0.84
0.19623325232960465
% es.EZ (V/m) @ t=0.84
-1.6952782096389756
% es.tEX (V/m) @ t=0.84
0.7422324409228329
% es.tEY (V/m) @ t=0.84
0
% es.tEZ (V/m) @ t=0.84
-1.69527820963898
% es.Ex (V/m) @ t=0.84
0.7422324409228327
% es.Ey (V/m) @ t=0.84
0.19623325232960465
% es.Ez (V/m) @ t=0.84
-1.6952782096389756
% es.tEx (V/m) @ t=0.84
0.7422324409228329
% es.tEy (V/m) @ t=0.84
0
% es.tEz (V/m) @ t=0.84
-1.69527820963898
% V (V) @ t=0.84
0.009312102095979437
% es.normE (V/m) @ t=0.86
1.8803000098496283
% es.EX (V/m) @ t=0.86
0.7493705732280862
% es.EY (V/m) @ t=0.86
0.198120448172598
% es.EZ (V/m) @ t=0.86
-1.7115818915062881
% es.tEX (V/m) @ t=0.86
0.7493705732280866
% es.tEY (V/m) @ t=0.86
0
% es.tEZ (V/m) @ t=0.86
-1.7115818915062917
% es.Ex (V/m) @ t=0.86
0.7493705732280862
% es.Ey (V/m) @ t=0.86
0.198120448172598
% es.Ez (V/m) @ t=0.86
-1.7115818915062881
% es.tEx (V/m) @ t=0.86
0.7493705732280866
% es.tEy (V/m) @ t=0.86
0
% es.tEz (V/m) @ t=0.86
-1.7115818915062917
% V (V) @ t=0.86
0.009401657674466896
% es.normE (V/m) @ t=0.88
1.8982108165685452
% es.EX (V/m) @ t=0.88
0.7565087055333397
% es.EY (V/m) @ t=0.88
0.20000764401559845
% es.EZ (V/m) @ t=0.88
-1.7278855733736025
% es.tEX (V/m) @ t=0.88
0.7565087055333399
% es.tEY (V/m) @ t=0.88
0
% es.tEZ (V/m) @ t=0.88
-1.7278855733736052
% es.Ex (V/m) @ t=0.88
0.7565087055333397
% es.Ey (V/m) @ t=0.88
0.20000764401559845
% es.Ez (V/m) @ t=0.88
-1.7278855733736025
% es.tEx (V/m) @ t=0.88
0.7565087055333399
% es.tEy (V/m) @ t=0.88
0
% es.tEz (V/m) @ t=0.88
-1.7278855733736052
% V (V) @ t=0.88
0.009491213252954357
% es.normE (V/m) @ t=0.9
1.9161216232874672
% es.EX (V/m) @ t=0.9
0.7636468378386074
% es.EY (V/m) @ t=0.9
0.20189483985857937
% es.EZ (V/m) @ t=0.9
-1.7441892552409186
% es.tEX (V/m) @ t=0.9
0.7636468378386079
% es.tEY (V/m) @ t=0.9
0
% es.tEZ (V/m) @ t=0.9
-1.7441892552409204
% es.Ex (V/m) @ t=0.9
0.7636468378386074
% es.Ey (V/m) @ t=0.9
0.20189483985857937
% es.Ez (V/m) @ t=0.9
-1.7441892552409186
% es.tEx (V/m) @ t=0.9
0.7636468378386079
% es.tEy (V/m) @ t=0.9
0
% es.tEz (V/m) @ t=0.9
-1.7441892552409204
% V (V) @ t=0.9
0.009580768831441816
% es.normE (V/m) @ t=0.92
1.9340324300063907
% es.EX (V/m) @ t=0.92
0.7707849701438614
% es.EY (V/m) @ t=0.92
0.2037820357015825
% es.EZ (V/m) @ t=0.92
-1.76049293710824
% es.tEX (V/m) @ t=0.92
0.7707849701438616
% es.tEY (V/m) @ t=0.92
0
% es.tEZ (V/m) @ t=0.92
-1.7604929371082463
% es.Ex (V/m) @ t=0.92
0.7707849701438614
% es.Ey (V/m) @ t=0.92
0.2037820357015825
% es.Ez (V/m) @ t=0.92
-1.76049293710824
% es.tEx (V/m) @ t=0.92
0.7707849701438616
% es.tEy (V/m) @ t=0.92
0
% es.tEz (V/m) @ t=0.92
-1.7604929371082463
% V (V) @ t=0.92
0.009670324409929276
% es.normE (V/m) @ t=0.94
1.951943236725302
% es.EX (V/m) @ t=0.94
0.7779231024491113
% es.EY (V/m) @ t=0.94
0.20566923154456695
% es.EZ (V/m) @ t=0.94
-1.7767966189755517
% es.tEX (V/m) @ t=0.94
0.7779231024491082
% es.tEY (V/m) @ t=0.94
0
% es.tEZ (V/m) @ t=0.94
-1.7767966189755509
% es.Ex (V/m) @ t=0.94
0.7779231024491113
% es.Ey (V/m) @ t=0.94
0.20566923154456695
% es.Ez (V/m) @ t=0.94
-1.7767966189755517
% es.tEx (V/m) @ t=0.94
0.7779231024491082
% es.tEy (V/m) @ t=0.94
0
% es.tEz (V/m) @ t=0.94
-1.7767966189755509
% V (V) @ t=0.94
0.009759879988416731
% es.normE (V/m) @ t=0.96
1.9698540434442227
% es.EX (V/m) @ t=0.96
0.7850612347543755
% es.EY (V/m) @ t=0.96
0.20755642738757274
% es.EZ (V/m) @ t=0.96
-1.7931003008428652
% es.tEX (V/m) @ t=0.96
0.7850612347543757
% es.tEY (V/m) @ t=0.96
0
% es.tEZ (V/m) @ t=0.96
-1.7931003008428714
% es.Ex (V/m) @ t=0.96
0.7850612347543755
% es.Ey (V/m) @ t=0.96
0.20755642738757274
% es.Ez (V/m) @ t=0.96
-1.7931003008428652
% es.tEx (V/m) @ t=0.96
0.7850612347543757
% es.tEy (V/m) @ t=0.96
0
% es.tEz (V/m) @ t=0.96
-1.7931003008428714
% V (V) @ t=0.96
0.009849435566904194
% es.normE (V/m) @ t=0.98
1.9877648501631353
% es.EX (V/m) @ t=0.98
0.7921993670596224
% es.EY (V/m) @ t=0.98
0.20944362323055454
% es.EZ (V/m) @ t=0.98
-1.8094039827101804
% es.tEX (V/m) @ t=0.98
0.7921993670596228
% es.tEY (V/m) @ t=0.98
0
% es.tEZ (V/m) @ t=0.98
-1.8094039827101813
% es.Ex (V/m) @ t=0.98
0.7921993670596224
% es.Ey (V/m) @ t=0.98
0.20944362323055454
% es.Ez (V/m) @ t=0.98
-1.8094039827101804
% es.tEx (V/m) @ t=0.98
0.7921993670596228
% es.tEy (V/m) @ t=0.98
0
% es.tEz (V/m) @ t=0.98
-1.8094039827101813
% V (V) @ t=0.98
0.009938991145391651
% es.normE (V/m) @ t=1
2.0056756568820613
% es.EX (V/m) @ t=1
0.7993374993648901
% es.EY (V/m) @ t=1
0.21133081907354612
% es.EZ (V/m) @ t=1
-1.8257076645774992
% es.tEX (V/m) @ t=1
0.7993374993648903
% es.tEY (V/m) @ t=1
0
% es.tEZ (V/m) @ t=1
-1.8257076645775054
% es.Ex (V/m) @ t=1
0.7993374993648901
% es.Ey (V/m) @ t=1
0.21133081907354612
% es.Ez (V/m) @ t=1
-1.8257076645774992
% es.tEx (V/m) @ t=1
0.7993374993648903
% es.tEy (V/m) @ t=1
0
% es.tEz (V/m) @ t=1
-1.8257076645775054
% V (V) @ t=1
0.01002854672387911
% es.normE (V/m) @ t=1.02
2.023586463600979
% es.EX (V/m) @ t=1.02
0.8064756316701542
% es.EY (V/m) @ t=1.02
0.21321801491654124
% es.EZ (V/m) @ t=1.02
-1.842011346444811
% es.tEX (V/m) @ t=1.02
0.8064756316701511
% es.tEY (V/m) @ t=1.02
0
% es.tEZ (V/m) @ t=1.02
-1.8420113464448136
% es.Ex (V/m) @ t=1.02
0.8064756316701542
% es.Ey (V/m) @ t=1.02
0.21321801491654124
% es.Ez (V/m) @ t=1.02
-1.842011346444811
% es.tEx (V/m) @ t=1.02
0.8064756316701511
% es.tEy (V/m) @ t=1.02
0
% es.tEz (V/m) @ t=1.02
-1.8420113464448136
% V (V) @ t=1.02
0.01011810230236657
% es.normE (V/m) @ t=1.04
2.041497270319892
% es.EX (V/m) @ t=1.04
0.8136137639753971
% es.EY (V/m) @ t=1.04
0.2151052107595417
% es.EZ (V/m) @ t=1.04
-1.8583150283121261
% es.tEX (V/m) @ t=1.04
0.8136137639753973