% Model:              1 neuron.mph
% Version:            COMSOL 6.0.0.405
% Date:               Mar 16 2023, 10:09
% Dimension:          0
% Nodes:              14017
% Expressions:        14017
% Description:        Electric field norm, Electric field, X component, Electric field, Y component, Electric field, Z component, Tangential electric field, X component, Tangential electric field, Y component, Tangential electric field, Z component, Electric field, x component, Electric field, y component, Electric field, z component, Tangential electric field, x component, Tangential electric field, y component, Tangential electric field, z component, Electric potential
% Length unit:        mm
% x
1
% y
12.2
% z
1.33
% es.normE (V/m) @ t=0
1.4827957983912534
% es.EX (V/m) @ t=0
1.3702971327943745
% es.EY (V/m) @ t=0
0.08628220389536212
% es.EZ (V/m) @ t=0
0.5539607442573153
% es.tEX (V/m) @ t=0
1.37029713279437
% es.tEY (V/m) @ t=0
0
% es.tEZ (V/m) @ t=0
0.5539607442573171
% es.Ex (V/m) @ t=0
1.3702971327943745
% es.Ey (V/m) @ t=0
0.08628220389536212
% es.Ez (V/m) @ t=0
0.5539607442573153
% es.tEx (V/m) @ t=0
1.37029713279437
% es.tEy (V/m) @ t=0
0
% es.tEz (V/m) @ t=0
0.5539607442573171
% V (V) @ t=0
0.007396428243600366
% es.normE (V/m) @ t=0.02
1.2807185733391266
% es.EX (V/m) @ t=0.02
1.183551361256809
% es.EY (V/m) @ t=0.02
0.07452356512763936
% es.EZ (V/m) @ t=0.02
0.4784663018911326
% es.tEX (V/m) @ t=0.02
1.183551361256808
% es.tEY (V/m) @ t=0.02
0
% es.tEZ (V/m) @ t=0.02
0.4784663018911304
% es.Ex (V/m) @ t=0.02
1.183551361256809
% es.Ey (V/m) @ t=0.02
0.07452356512763936
% es.Ez (V/m) @ t=0.02
0.4784663018911326
% es.tEx (V/m) @ t=0.02
1.183551361256808
% es.tEy (V/m) @ t=0.02
0
% es.tEz (V/m) @ t=0.02
0.4784663018911304
% V (V) @ t=0.02
0.006388433694893628
% es.normE (V/m) @ t=0.04
1.2924981401360727
% es.EX (V/m) @ t=0.04
1.1944372194981323
% es.EY (V/m) @ t=0.04
0.07520900767555444
% es.EZ (V/m) @ t=0.04
0.482867057435568
% es.tEX (V/m) @ t=0.04
1.194437219498134
% es.tEY (V/m) @ t=0.04
0
% es.tEZ (V/m) @ t=0.04
0.48286705743556846
% es.Ex (V/m) @ t=0.04
1.1944372194981323
% es.Ey (V/m) @ t=0.04
0.07520900767555444
% es.Ez (V/m) @ t=0.04
0.482867057435568
% es.tEx (V/m) @ t=0.04
1.194437219498134
% es.tEy (V/m) @ t=0.04
0
% es.tEz (V/m) @ t=0.04
0.48286705743556846
% V (V) @ t=0.04
0.006447191964693139
% es.normE (V/m) @ t=0.06
1.3043834009030923
% es.EX (V/m) @ t=0.06
1.2054207556766627
% es.EY (V/m) @ t=0.06
0.07590059326015358
% es.EZ (V/m) @ t=0.06
0.4873072923770194
% es.tEX (V/m) @ t=0.06
1.2054207556766663
% es.tEY (V/m) @ t=0.06
0
% es.tEZ (V/m) @ t=0.06
0.4873072923770203
% es.Ex (V/m) @ t=0.06
1.2054207556766627
% es.Ey (V/m) @ t=0.06
0.07590059326015358
% es.Ez (V/m) @ t=0.06
0.4873072923770194
% es.tEx (V/m) @ t=0.06
1.2054207556766663
% es.tEy (V/m) @ t=0.06
0
% es.tEz (V/m) @ t=0.06
0.4873072923770203
% V (V) @ t=0.06
0.0065064777922906976
% es.normE (V/m) @ t=0.08
1.316451351317209
% es.EX (V/m) @ t=0.08
1.2165731219461744
% es.EY (V/m) @ t=0.08
0.07660280693658017
% es.EZ (V/m) @ t=0.08
0.4918157763446165
% es.tEX (V/m) @ t=0.08
1.2165731219461762
% es.tEY (V/m) @ t=0.08
0
% es.tEZ (V/m) @ t=0.08
0.49181577634461426
% es.Ex (V/m) @ t=0.08
1.2165731219461744
% es.Ey (V/m) @ t=0.08
0.07660280693658017
% es.Ez (V/m) @ t=0.08
0.4918157763446165
% es.tEx (V/m) @ t=0.08
1.2165731219461762
% es.tEy (V/m) @ t=0.08
0
% es.tEz (V/m) @ t=0.08
0.49181577634461426
% V (V) @ t=0.08
0.006566675019816274
% es.normE (V/m) @ t=0.1
1.3286436705434754
% es.EX (V/m) @ t=0.1
1.2278404219199404
% es.EY (V/m) @ t=0.1
0.07731225585143531
% es.EZ (V/m) @ t=0.1
0.49637072189582643
% es.tEX (V/m) @ t=0.1
1.2278404219199386
% es.tEY (V/m) @ t=0.1
0
% es.tEZ (V/m) @ t=0.1
0.4963707218958242
% es.Ex (V/m) @ t=0.1
1.2278404219199404
% es.Ey (V/m) @ t=0.1
0.07731225585143531
% es.Ez (V/m) @ t=0.1
0.49637072189582643
% es.tEx (V/m) @ t=0.1
1.2278404219199386
% es.tEy (V/m) @ t=0.1
0
% es.tEz (V/m) @ t=0.1
0.4963707218958242
% V (V) @ t=0.1
0.006627492696985566
% es.normE (V/m) @ t=0.12
1.3408359897697473
% es.EX (V/m) @ t=0.12
1.2391077218937108
% es.EY (V/m) @ t=0.12
0.07802170476629133
% es.EZ (V/m) @ t=0.12
0.5009256674470393
% es.tEX (V/m) @ t=0.12
1.239107721893708
% es.tEY (V/m) @ t=0.12
0
% es.tEZ (V/m) @ t=0.12
0.5009256674470395
% es.Ex (V/m) @ t=0.12
1.2391077218937108
% es.Ey (V/m) @ t=0.12
0.07802170476629133
% es.Ez (V/m) @ t=0.12
0.5009256674470393
% es.tEx (V/m) @ t=0.12
1.239107721893708
% es.tEy (V/m) @ t=0.12
0
% es.tEz (V/m) @ t=0.12
0.5009256674470395
% V (V) @ t=0.12
0.006688310374154857
% es.normE (V/m) @ t=0.14
1.3531581490696791
% es.EX (V/m) @ t=0.14
1.250495010740913
% es.EY (V/m) @ t=0.14
0.07873870973283886
% es.EZ (V/m) @ t=0.14
0.5055291210115243
% es.tEX (V/m) @ t=0.14
1.250495010740912
% es.tEY (V/m) @ t=0.14
0
% es.tEZ (V/m) @ t=0.14
0.5055291210115227
% es.Ex (V/m) @ t=0.14
1.250495010740913
% es.Ey (V/m) @ t=0.14
0.07873870973283886
% es.Ez (V/m) @ t=0.14
0.5055291210115243
% es.tEx (V/m) @ t=0.14
1.250495010740912
% es.tEy (V/m) @ t=0.14
0
% es.tEz (V/m) @ t=0.14
0.5055291210115227
% V (V) @ t=0.14
0.006749775676793925
% es.normE (V/m) @ t=0.16
1.3660000567240553
% es.EX (V/m) @ t=0.16
1.2623626136988477
% es.EY (V/m) @ t=0.16
0.07948596148931242
% es.EZ (V/m) @ t=0.16
0.5103267516075327
% es.tEX (V/m) @ t=0.16
1.262362613698846
% es.tEY (V/m) @ t=0.16
0
% es.tEZ (V/m) @ t=0.16
0.5103267516075336
% es.Ex (V/m) @ t=0.16
1.2623626136988477
% es.Ey (V/m) @ t=0.16
0.07948596148931242
% es.Ez (V/m) @ t=0.16
0.5103267516075327
% es.tEx (V/m) @ t=0.16
1.262362613698846
% es.tEy (V/m) @ t=0.16
0
% es.tEz (V/m) @ t=0.16
0.5103267516075336
% V (V) @ t=0.16
0.0068138334169041935
% es.normE (V/m) @ t=0.18
1.3788419643784429
% es.EX (V/m) @ t=0.18
1.274230216656794
% es.EY (V/m) @ t=0.18
0.08023321324578697
% es.EZ (V/m) @ t=0.18
0.5151243822035432
% es.tEX (V/m) @ t=0.18
1.2742302166567931
% es.tEY (V/m) @ t=0.18
0
% es.tEZ (V/m) @ t=0.18
0.5151243822035476
% es.Ex (V/m) @ t=0.18
1.274230216656794
% es.Ey (V/m) @ t=0.18
0.08023321324578697
% es.Ez (V/m) @ t=0.18
0.5151243822035432
% es.tEx (V/m) @ t=0.18
1.2742302166567931
% es.tEy (V/m) @ t=0.18
0
% es.tEz (V/m) @ t=0.18
0.5151243822035476
% V (V) @ t=0.18
0.006877891157014459
% es.normE (V/m) @ t=0.2
1.3916838720328277
% es.EX (V/m) @ t=0.2
1.286097819614735
% es.EY (V/m) @ t=0.2
0.08098046500225442
% es.EZ (V/m) @ t=0.2
0.5199220127995601
% es.tEX (V/m) @ t=0.2
1.2860978196147368
% es.tEY (V/m) @ t=0.2
0
% es.tEZ (V/m) @ t=0.2
0.5199220127995607
% es.Ex (V/m) @ t=0.2
1.286097819614735
% es.Ey (V/m) @ t=0.2
0.08098046500225442
% es.Ez (V/m) @ t=0.2
0.5199220127995601
% es.tEx (V/m) @ t=0.2
1.2860978196147368
% es.tEy (V/m) @ t=0.2
0
% es.tEz (V/m) @ t=0.2
0.5199220127995607
% V (V) @ t=0.2
0.006941948897124725
% es.normE (V/m) @ t=0.22
1.4045257796872055
% es.EX (V/m) @ t=0.22
1.2979654225726716
% es.EY (V/m) @ t=0.22
0.08172771675872087
% es.EZ (V/m) @ t=0.22
0.5247196433955705
% es.tEX (V/m) @ t=0.22
1.2979654225726778
% es.tEY (V/m) @ t=0.22
0
% es.tEZ (V/m) @ t=0.22
0.5247196433955712
% es.Ex (V/m) @ t=0.22
1.2979654225726716
% es.Ey (V/m) @ t=0.22
0.08172771675872087
% es.Ez (V/m) @ t=0.22
0.5247196433955705
% es.tEx (V/m) @ t=0.22
1.2979654225726778
% es.tEy (V/m) @ t=0.22
0
% es.tEz (V/m) @ t=0.22
0.5247196433955712
% V (V) @ t=0.22
0.007006006637234992
% es.normE (V/m) @ t=0.24
1.4173676873415997
% es.EX (V/m) @ t=0.24
1.3098330255306232
% es.EY (V/m) @ t=0.24
0.08247496851520153
% es.EZ (V/m) @ t=0.24
0.5295172739915852
% es.tEX (V/m) @ t=0.24
1.3098330255306214
% es.tEY (V/m) @ t=0.24
0
% es.tEZ (V/m) @ t=0.24
0.5295172739915834
% es.Ex (V/m) @ t=0.24
1.3098330255306232
% es.Ey (V/m) @ t=0.24
0.08247496851520153
% es.Ez (V/m) @ t=0.24
0.5295172739915852
% es.tEx (V/m) @ t=0.24
1.3098330255306214
% es.tEy (V/m) @ t=0.24
0
% es.tEz (V/m) @ t=0.24
0.5295172739915834
% V (V) @ t=0.24
0.007070064377345258
% es.normE (V/m) @ t=0.26
1.4302095949959721
% es.EX (V/m) @ t=0.26
1.321700628488553
% es.EY (V/m) @ t=0.26
0.08322222027166454
% es.EZ (V/m) @ t=0.26
0.534314904587597
% es.tEX (V/m) @ t=0.26
1.3217006284885535
% es.tEY (V/m) @ t=0.26
0
% es.tEZ (V/m) @ t=0.26
0.5343149045875966
% es.Ex (V/m) @ t=0.26
1.321700628488553
% es.Ey (V/m) @ t=0.26
0.08322222027166454
% es.Ez (V/m) @ t=0.26
0.534314904587597
% es.tEx (V/m) @ t=0.26
1.3217006284885535
% es.tEy (V/m) @ t=0.26
0
% es.tEz (V/m) @ t=0.26
0.5343149045875966
% V (V) @ t=0.26
0.007134122117455524
% es.normE (V/m) @ t=0.28
1.443651146846789
% es.EX (V/m) @ t=0.28
1.3341224591789365
% es.EY (V/m) @ t=0.28
0.08400417169286584
% es.EZ (V/m) @ t=0.28
0.5393363676792617
% es.tEX (V/m) @ t=0.28
1.3341224591789382
% es.tEY (V/m) @ t=0.28
0
% es.tEZ (V/m) @ t=0.28
0.5393363676792626
% es.Ex (V/m) @ t=0.28
1.3341224591789365
% es.Ey (V/m) @ t=0.28
0.08400417169286584
% es.Ez (V/m) @ t=0.28
0.5393363676792617
% es.tEx (V/m) @ t=0.28
1.3341224591789382
% es.tEy (V/m) @ t=0.28
0
% es.tEz (V/m) @ t=0.28
0.5393363676792626
% V (V) @ t=0.28
0.00720118010774778
% es.normE (V/m) @ t=0.3
1.4579566451654955
% es.EX (V/m) @ t=0.3
1.3473428018778009
% es.EY (V/m) @ t=0.3
0.08483611718213113
% es.EZ (V/m) @ t=0.3
0.5446803208326911
% es.tEX (V/m) @ t=0.3
1.347342801877799
% es.tEY (V/m) @ t=0.3
0
% es.tEZ (V/m) @ t=0.3
0.5446803208326929
% es.Ex (V/m) @ t=0.3
1.3473428018778009
% es.Ey (V/m) @ t=0.3
0.08483611718213113
% es.Ez (V/m) @ t=0.3
0.5446803208326911
% es.tEx (V/m) @ t=0.3
1.347342801877799
% es.tEy (V/m) @ t=0.3
0
% es.tEz (V/m) @ t=0.3
0.5446803208326929
% V (V) @ t=0.3
0.007272560753978235
% es.normE (V/m) @ t=0.32
1.4722621434846497
% es.EX (V/m) @ t=0.32
1.3605631445766635
% es.EY (V/m) @ t=0.32
0.08566806267138205
% es.EZ (V/m) @ t=0.32
0.550024273986113
% es.tEX (V/m) @ t=0.32
1.3605631445766582
% es.tEY (V/m) @ t=0.32
0
% es.tEZ (V/m) @ t=0.32
0.5500242739861121
% es.Ex (V/m) @ t=0.32
1.3605631445766635
% es.Ey (V/m) @ t=0.32
0.08566806267138205
% es.Ez (V/m) @ t=0.32
0.550024273986113
% es.tEx (V/m) @ t=0.32
1.3605631445766582
% es.tEy (V/m) @ t=0.32
0
% es.tEz (V/m) @ t=0.32
0.5500242739861121
% V (V) @ t=0.32
0.00734394140020869
% es.normE (V/m) @ t=0.34
1.486567641804248
% es.EX (V/m) @ t=0.34
1.373783487275527
% es.EY (V/m) @ t=0.34
0.08650000816064296
% es.EZ (V/m) @ t=0.34
0.5553682271395424
% es.tEX (V/m) @ t=0.34
1.3737834872755252
% es.tEY (V/m) @ t=0.34
0
% es.tEZ (V/m) @ t=0.34
0.5553682271395424
% es.Ex (V/m) @ t=0.34
1.373783487275527
% es.Ey (V/m) @ t=0.34
0.08650000816064296
% es.Ez (V/m) @ t=0.34
0.5553682271395424
% es.tEx (V/m) @ t=0.34
1.3737834872755252
% es.tEy (V/m) @ t=0.34
0
% es.tEz (V/m) @ t=0.34
0.5553682271395424
% V (V) @ t=0.34
0.007415322046439144
% es.normE (V/m) @ t=0.36
1.5008731401242752
% es.EX (V/m) @ t=0.36
1.3870038299743888
% es.EY (V/m) @ t=0.36
0.0873319536499011
% es.EZ (V/m) @ t=0.36
0.5607121802929815
% es.tEX (V/m) @ t=0.36
1.3870038299743879
% es.tEY (V/m) @ t=0.36
0
% es.tEZ (V/m) @ t=0.36
0.5607121802929815
% es.Ex (V/m) @ t=0.36
1.3870038299743888
% es.Ey (V/m) @ t=0.36
0.0873319536499011
% es.Ez (V/m) @ t=0.36
0.5607121802929815
% es.tEx (V/m) @ t=0.36
1.3870038299743879
% es.tEy (V/m) @ t=0.36
0
% es.tEz (V/m) @ t=0.36
0.5607121802929815
% V (V) @ t=0.36
0.007486702692669599
% es.normE (V/m) @ t=0.38
1.515178638444708
% es.EX (V/m) @ t=0.38
1.4002241726732434
% es.EY (V/m) @ t=0.38
0.08816389913916794
% es.EZ (V/m) @ t=0.38
0.5660561334464087
% es.tEX (V/m) @ t=0.38
1.4002241726732425
% es.tEY (V/m) @ t=0.38
0
% es.tEZ (V/m) @ t=0.38
0.5660561334464078
% es.Ex (V/m) @ t=0.38
1.4002241726732434
% es.Ey (V/m) @ t=0.38
0.08816389913916794
% es.Ez (V/m) @ t=0.38
0.5660561334464087
% es.tEx (V/m) @ t=0.38
1.4002241726732425
% es.tEy (V/m) @ t=0.38
0
% es.tEz (V/m) @ t=0.38
0.5660561334464078
% V (V) @ t=0.38
0.007558083338900054
% es.normE (V/m) @ t=0.4
1.5294841367655512
% es.EX (V/m) @ t=0.4
1.4134445153721087
% es.EY (V/m) @ t=0.4
0.08899584462842353
% es.EZ (V/m) @ t=0.4
0.5714000865998319
% es.tEX (V/m) @ t=0.4
1.4134445153721122
% es.tEY (V/m) @ t=0.4
0
% es.tEZ (V/m) @ t=0.4
0.5714000865998328
% es.Ex (V/m) @ t=0.4
1.4134445153721087
% es.Ey (V/m) @ t=0.4
0.08899584462842353
% es.Ez (V/m) @ t=0.4
0.5714000865998319
% es.tEx (V/m) @ t=0.4
1.4134445153721122
% es.tEy (V/m) @ t=0.4
0
% es.tEz (V/m) @ t=0.4
0.5714000865998328
% V (V) @ t=0.4
0.007629463985130509
% es.normE (V/m) @ t=0.42
1.5437896350867812
% es.EX (V/m) @ t=0.42
1.426664858070966
% es.EY (V/m) @ t=0.42
0.08982779011767805
% es.EZ (V/m) @ t=0.42
0.5767440397532577
% es.tEX (V/m) @ t=0.42
1.426664858070966
% es.tEY (V/m) @ t=0.42
0
% es.tEZ (V/m) @ t=0.42
0.5767440397532559
% es.Ex (V/m) @ t=0.42
1.426664858070966
% es.Ey (V/m) @ t=0.42
0.08982779011767805
% es.Ez (V/m) @ t=0.42
0.5767440397532577
% es.tEx (V/m) @ t=0.42
1.426664858070966
% es.tEy (V/m) @ t=0.42
0
% es.tEz (V/m) @ t=0.42
0.5767440397532559
% V (V) @ t=0.42
0.007700844631360962
% es.normE (V/m) @ t=0.44
1.5580951334084023
% es.EX (V/m) @ t=0.44
1.4398852007698384
% es.EY (V/m) @ t=0.44
0.09065973560694501
% es.EZ (V/m) @ t=0.44
0.5820879929066707
% es.tEX (V/m) @ t=0.44
1.439885200769841
% es.tEY (V/m) @ t=0.44
0
% es.tEZ (V/m) @ t=0.44
0.5820879929066716
% es.Ex (V/m) @ t=0.44
1.4398852007698384
% es.Ey (V/m) @ t=0.44
0.09065973560694501
% es.Ez (V/m) @ t=0.44
0.5820879929066707
% es.tEx (V/m) @ t=0.44
1.439885200769841
% es.tEy (V/m) @ t=0.44
0
% es.tEz (V/m) @ t=0.44
0.5820879929066716
% V (V) @ t=0.44
0.007772225277591416
% es.normE (V/m) @ t=0.46
1.5724006317303862
% es.EX (V/m) @ t=0.46
1.4531055434686913
% es.EY (V/m) @ t=0.46
0.09149168109620237
% es.EZ (V/m) @ t=0.46
0.5874319460601112
% es.tEX (V/m) @ t=0.46
1.4531055434686913
% es.tEY (V/m) @ t=0.46
0
% es.tEZ (V/m) @ t=0.46
0.587431946060113
% es.Ex (V/m) @ t=0.46
1.4531055434686913
% es.Ey (V/m) @ t=0.46
0.09149168109620237
% es.Ez (V/m) @ t=0.46
0.5874319460601112
% es.tEx (V/m) @ t=0.46
1.4531055434686913
% es.tEy (V/m) @ t=0.46
0
% es.tEz (V/m) @ t=0.46
0.587431946060113
% V (V) @ t=0.46
0.007843605923821871
% es.normE (V/m) @ t=0.48
1.586706130052732
% es.EX (V/m) @ t=0.48
1.4663258861675512
% es.EY (V/m) @ t=0.48
0.09232362658545606
% es.EZ (V/m) @ t=0.48
0.5927758992135379
% es.tEX (V/m) @ t=0.48
1.4663258861675503
% es.tEY (V/m) @ t=0.48
0
% es.tEZ (V/m) @ t=0.48
0.5927758992135379
% es.Ex (V/m) @ t=0.48
1.4663258861675512
% es.Ey (V/m) @ t=0.48
0.09232362658545606
% es.Ez (V/m) @ t=0.48
0.5927758992135379
% es.tEx (V/m) @ t=0.48
1.4663258861675503
% es.tEy (V/m) @ t=0.48
0
% es.tEz (V/m) @ t=0.48
0.5927758992135379
% V (V) @ t=0.48
0.007914986570052327
% es.normE (V/m) @ t=0.5
1.6010116283754345
% es.EX (V/m) @ t=0.5
1.4795462288664165
% es.EY (V/m) @ t=0.5
0.09315557207472569
% es.EZ (V/m) @ t=0.5
0.5981198523669615
% es.tEX (V/m) @ t=0.5
1.4795462288664156
% es.tEY (V/m) @ t=0.5
0
% es.tEZ (V/m) @ t=0.5
0.5981198523669642
% es.Ex (V/m) @ t=0.5
1.4795462288664165
% es.Ey (V/m) @ t=0.5
0.09315557207472569
% es.Ez (V/m) @ t=0.5
0.5981198523669615
% es.tEx (V/m) @ t=0.5
1.4795462288664156
% es.tEy (V/m) @ t=0.5
0
% es.tEz (V/m) @ t=0.5
0.5981198523669642
% V (V) @ t=0.5
0.007986367216282781
% es.normE (V/m) @ t=0.52
1.6153171266984772
% es.EX (V/m) @ t=0.52
1.4927665715652765
% es.EY (V/m) @ t=0.52
0.09398751756398382
% es.EZ (V/m) @ t=0.52
0.6034638055203945
% es.tEX (V/m) @ t=0.52
1.4927665715652783
% es.tEY (V/m) @ t=0.52
0
% es.tEZ (V/m) @ t=0.52
0.6034638055203945
% es.Ex (V/m) @ t=0.52
1.4927665715652765
% es.Ey (V/m) @ t=0.52
0.09398751756398382
% es.Ez (V/m) @ t=0.52
0.6034638055203945
% es.tEx (V/m) @ t=0.52
1.4927665715652783
% es.tEy (V/m) @ t=0.52
0
% es.tEz (V/m) @ t=0.52
0.6034638055203945
% V (V) @ t=0.52
0.008057747862513235
% es.normE (V/m) @ t=0.54
1.6296226250218562
% es.EX (V/m) @ t=0.54
1.5059869142641409
% es.EY (V/m) @ t=0.54
0.09481946305324113
% es.EZ (V/m) @ t=0.54
0.6088077586738256
% es.tEX (V/m) @ t=0.54
1.505986914264139
% es.tEY (V/m) @ t=0.54
0
% es.tEZ (V/m) @ t=0.54
0.6088077586738248
% es.Ex (V/m) @ t=0.54
1.5059869142641409
% es.Ey (V/m) @ t=0.54
0.09481946305324113
% es.Ez (V/m) @ t=0.54
0.6088077586738256
% es.tEx (V/m) @ t=0.54
1.505986914264139
% es.tEy (V/m) @ t=0.54
0
% es.tEz (V/m) @ t=0.54
0.6088077586738248
% V (V) @ t=0.54
0.00812912850874369
% es.normE (V/m) @ t=0.56
1.6452973483137079
% es.EX (V/m) @ t=0.56
1.5204723167188163
% es.EY (V/m) @ t=0.56
0.09573178103394614
% es.EZ (V/m) @ t=0.56
0.6146639313351505
% es.tEX (V/m) @ t=0.56
1.520472316718819
% es.tEY (V/m) @ t=0.56
0
% es.tEZ (V/m) @ t=0.56
0.6146639313351514
% es.Ex (V/m) @ t=0.56
1.5204723167188163
% es.Ey (V/m) @ t=0.56
0.09573178103394614
% es.Ez (V/m) @ t=0.56
0.6146639313351505
% es.tEx (V/m) @ t=0.56
1.520472316718819
% es.tEy (V/m) @ t=0.56
0
% es.tEz (V/m) @ t=0.56
0.6146639313351514
% V (V) @ t=0.56
0.00820730601629637
% es.normE (V/m) @ t=0.58
1.6612537848804574
% es.EX (V/m) @ t=0.58
1.5352180008179372
% es.EY (V/m) @ t=0.58
0.09666063537519887
% es.EZ (V/m) @ t=0.58
0.6206254913785594
% es.tEX (V/m) @ t=0.58
1.5352180008179364
% es.tEY (V/m) @ t=0.58
0
% es.tEZ (V/m) @ t=0.58
0.6206254913785632
% es.Ex (V/m) @ t=0.58
1.5352180008179372
% es.Ey (V/m) @ t=0.58
0.09666063537519887
% es.Ez (V/m) @ t=0.58
0.6206254913785594
% es.tEx (V/m) @ t=0.58
1.5352180008179364
% es.tEy (V/m) @ t=0.58
0
% es.tEz (V/m) @ t=0.58
0.6206254913785632
% V (V) @ t=0.58
0.008286881954424225
% es.normE (V/m) @ t=0.6
1.6772102214475333
% es.EX (V/m) @ t=0.6
1.5499636849170582
% es.EY (V/m) @ t=0.6
0.09758948971645454
% es.EZ (V/m) @ t=0.6
0.6265870514219689
% es.tEX (V/m) @ t=0.6
1.5499636849170608
% es.tEY (V/m) @ t=0.6
0
% es.tEZ (V/m) @ t=0.6
0.6265870514219678
% es.Ex (V/m) @ t=0.6
1.5499636849170582
% es.Ey (V/m) @ t=0.6
0.09758948971645454
% es.Ez (V/m) @ t=0.6
0.6265870514219689
% es.tEx (V/m) @ t=0.6
1.5499636849170608
% es.tEy (V/m) @ t=0.6
0
% es.tEz (V/m) @ t=0.6
0.6265870514219678
% V (V) @ t=0.6
0.008366457892552082
% es.normE (V/m) @ t=0.62
1.693166658014915
% es.EX (V/m) @ t=0.62
1.5647093690161724
% es.EY (V/m) @ t=0.62
0.09851834405771254
% es.EZ (V/m) @ t=0.62
0.6325486114653645
% es.tEX (V/m) @ t=0.62
1.5647093690161684
% es.tEY (V/m) @ t=0.62
0
% es.tEZ (V/m) @ t=0.62
0.6325486114653636
% es.Ex (V/m) @ t=0.62
1.5647093690161724
% es.Ey (V/m) @ t=0.62
0.09851834405771254
% es.Ez (V/m) @ t=0.62
0.6325486114653645
% es.tEx (V/m) @ t=0.62
1.5647093690161684
% es.tEy (V/m) @ t=0.62
0
% es.tEz (V/m) @ t=0.62
0.6325486114653636
% V (V) @ t=0.62
0.008446033830679938
% es.normE (V/m) @ t=0.64
1.7091230945826124
% es.EX (V/m) @ t=0.64
1.579455053115288
% es.EY (V/m) @ t=0.64
0.09944719839897076
% es.EZ (V/m) @ t=0.64
0.6385101715087793
% es.tEX (V/m) @ t=0.64
1.5794550531152884
% es.tEY (V/m) @ t=0.64
0
% es.tEZ (V/m) @ t=0.64
0.6385101715087793
% es.Ex (V/m) @ t=0.64
1.579455053115288
% es.Ey (V/m) @ t=0.64
0.09944719839897076
% es.Ez (V/m) @ t=0.64
0.6385101715087793
% es.tEx (V/m) @ t=0.64
1.5794550531152884
% es.tEy (V/m) @ t=0.64
0
% es.tEz (V/m) @ t=0.64
0.6385101715087793
% V (V) @ t=0.64
0.008525609768807795
% es.normE (V/m) @ t=0.66
1.725079531150613
% es.EX (V/m) @ t=0.66
1.5942007372144102
% es.EY (V/m) @ t=0.66
0.10037605274021544
% es.EZ (V/m) @ t=0.66
0.6444717315521913
% es.tEX (V/m) @ t=0.66
1.5942007372144102
% es.tEY (V/m) @ t=0.66
0
% es.tEZ (V/m) @ t=0.66
0.6444717315521902
% es.Ex (V/m) @ t=0.66
1.5942007372144102
% es.Ey (V/m) @ t=0.66
0.10037605274021544
% es.Ez (V/m) @ t=0.66
0.6444717315521913
% es.tEx (V/m) @ t=0.66
1.5942007372144102
% es.tEy (V/m) @ t=0.66
0
% es.tEz (V/m) @ t=0.66
0.6444717315521902
% V (V) @ t=0.66
0.00860518570693565
% es.normE (V/m) @ t=0.68
1.7410359677189007
% es.EX (V/m) @ t=0.68
1.6089464213135294
% es.EY (V/m) @ t=0.68
0.10130490708148265
% es.EZ (V/m) @ t=0.68
0.6504332915955946
% es.tEX (V/m) @ t=0.68
1.608946421313533
% es.tEY (V/m) @ t=0.68
0
% es.tEZ (V/m) @ t=0.68
0.6504332915955935
% es.Ex (V/m) @ t=0.68
1.6089464213135294
% es.Ey (V/m) @ t=0.68
0.10130490708148265
% es.Ez (V/m) @ t=0.68
0.6504332915955946
% es.tEx (V/m) @ t=0.68
1.608946421313533
% es.tEy (V/m) @ t=0.68
0
% es.tEz (V/m) @ t=0.68
0.6504332915955935
% V (V) @ t=0.68
0.008684761645063509
% es.normE (V/m) @ t=0.7
1.7569924042874752
% es.EX (V/m) @ t=0.7
1.6236921054126499
% es.EY (V/m) @ t=0.7
0.10223376142274165
% es.EZ (V/m) @ t=0.7
0.6563948516390115
% es.tEX (V/m) @ t=0.7
1.6236921054126539
% es.tEY (V/m) @ t=0.7
0
% es.tEZ (V/m) @ t=0.7
0.6563948516390106
% es.Ex (V/m) @ t=0.7
1.6236921054126499
% es.Ey (V/m) @ t=0.7
0.10223376142274165
% es.Ez (V/m) @ t=0.7
0.6563948516390115
% es.tEx (V/m) @ t=0.7
1.6236921054126539
% es.tEy (V/m) @ t=0.7
0
% es.tEz (V/m) @ t=0.7
0.6563948516390106
% V (V) @ t=0.7
0.008764337583191364
% es.normE (V/m) @ t=0.72
1.7729488408563179
% es.EX (V/m) @ t=0.72
1.6384377895117703
% es.EY (V/m) @ t=0.72
0.10316261576399166
% es.EZ (V/m) @ t=0.72
0.6623564116824054
% es.tEX (V/m) @ t=0.72
1.6384377895117703
% es.tEY (V/m) @ t=0.72
0
% es.tEZ (V/m) @ t=0.72
0.6623564116824099
% es.Ex (V/m) @ t=0.72
1.6384377895117703
% es.Ey (V/m) @ t=0.72
0.10316261576399166
% es.Ez (V/m) @ t=0.72
0.6623564116824054
% es.tEx (V/m) @ t=0.72
1.6384377895117703
% es.tEy (V/m) @ t=0.72
0
% es.tEz (V/m) @ t=0.72
0.6623564116824099
% V (V) @ t=0.72
0.00884391352131922
% es.normE (V/m) @ t=0.74
1.7889052774254388
% es.EX (V/m) @ t=0.74
1.6531834736108966
% es.EY (V/m) @ t=0.74
0.10409147010524389
% es.EZ (V/m) @ t=0.74
0.6683179717258148
% es.tEX (V/m) @ t=0.74
1.6531834736108895
% es.tEY (V/m) @ t=0.74
0
% es.tEZ (V/m) @ t=0.74
0.6683179717258114
% es.Ex (V/m) @ t=0.74
1.6531834736108966
% es.Ey (V/m) @ t=0.74
0.10409147010524389
% es.Ez (V/m) @ t=0.74
0.6683179717258148
% es.tEx (V/m) @ t=0.74
1.6531834736108895
% es.tEy (V/m) @ t=0.74
0
% es.tEz (V/m) @ t=0.74
0.6683179717258114
% V (V) @ t=0.74
0.008923489459447077
% es.normE (V/m) @ t=0.76
1.804861713994807
% es.EX (V/m) @ t=0.76
1.667929157710005
% es.EY (V/m) @ t=0.76
0.10502032444650633
% es.EZ (V/m) @ t=0.76
0.6742795317692307
% es.tEX (V/m) @ t=0.76
1.6679291577100068
% es.tEY (V/m) @ t=0.76
0
% es.tEZ (V/m) @ t=0.76
0.6742795317692298
% es.Ex (V/m) @ t=0.76
1.667929157710005
% es.Ey (V/m) @ t=0.76
0.10502032444650633
% es.Ez (V/m) @ t=0.76
0.6742795317692307
% es.tEx (V/m) @ t=0.76
1.6679291577100068
% es.tEy (V/m) @ t=0.76
0
% es.tEz (V/m) @ t=0.76
0.6742795317692298
% V (V) @ t=0.76
0.009003065397574932
% es.normE (V/m) @ t=0.78
1.8208181505644392
% es.EX (V/m) @ t=0.78
1.6826748418091255
% es.EY (V/m) @ t=0.78
0.10594917878776078
% es.EZ (V/m) @ t=0.78
0.6802410918126434
% es.tEX (V/m) @ t=0.78
1.6826748418091206
% es.tEY (V/m) @ t=0.78
0
% es.tEZ (V/m) @ t=0.78
0.6802410918126416
% es.Ex (V/m) @ t=0.78
1.6826748418091255
% es.Ey (V/m) @ t=0.78
0.10594917878776078
% es.Ez (V/m) @ t=0.78
0.6802410918126434
% es.tEx (V/m) @ t=0.78
1.6826748418091206
% es.tEy (V/m) @ t=0.78
0
% es.tEz (V/m) @ t=0.78
0.6802410918126416
% V (V) @ t=0.78
0.009082641335702791
% es.normE (V/m) @ t=0.8
1.8367745871343146
% es.EX (V/m) @ t=0.8
1.6974205259082478
% es.EY (V/m) @ t=0.8
0.106878033129012
% es.EZ (V/m) @ t=0.8
0.6862026518560425
% es.tEX (V/m) @ t=0.8
1.697420525908237
% es.tEY (V/m) @ t=0.8
0
% es.tEZ (V/m) @ t=0.8
0.6862026518560373
% es.Ex (V/m) @ t=0.8
1.6974205259082478
% es.Ey (V/m) @ t=0.8
0.106878033129012
% es.Ez (V/m) @ t=0.8
0.6862026518560425
% es.tEx (V/m) @ t=0.8
1.697420525908237
% es.tEy (V/m) @ t=0.8
0
% es.tEz (V/m) @ t=0.8
0.6862026518560373
% V (V) @ t=0.8
0.009162217273830646
% es.normE (V/m) @ t=0.82
1.8532008449351214
% es.EX (V/m) @ t=0.82
1.7126005175564254
% es.EY (V/m) @ t=0.82
0.10783390170117402
% es.EZ (V/m) @ t=0.82
0.6923394142619892
% es.tEX (V/m) @ t=0.82
1.7126005175564156
% es.tEY (V/m) @ t=0.82
0
% es.tEZ (V/m) @ t=0.82
0.6923394142619901
% es.Ex (V/m) @ t=0.82
1.7126005175564254
% es.Ey (V/m) @ t=0.82
0.10783390170117402
% es.Ez (V/m) @ t=0.82
0.6923394142619892
% es.tEx (V/m) @ t=0.82
1.7126005175564156
% es.tEy (V/m) @ t=0.82
0
% es.tEz (V/m) @ t=0.82
0.6923394142619901
% V (V) @ t=0.82
0.009244152089930418
% es.normE (V/m) @ t=0.84
1.8710439937365195
% es.EX (V/m) @ t=0.84
1.729090297730841
% es.EY (V/m) @ t=0.84
0.10887124002848425
% es.EZ (V/m) @ t=0.84
0.6990045534938341
% es.tEX (V/m) @ t=0.84
1.7290902977308331
% es.tEY (V/m) @ t=0.84
0
% es.tEZ (V/m) @ t=0.84
0.699004553493833
% es.Ex (V/m) @ t=0.84
1.729090297730841
% es.Ey (V/m) @ t=0.84
0.10887124002848425
% es.Ez (V/m) @ t=0.84
0.6990045534938341
% es.tEx (V/m) @ t=0.84
1.7290902977308331
% es.tEy (V/m) @ t=0.84
0
% es.tEz (V/m) @ t=0.84
0.699004553493833
% V (V) @ t=0.84
0.009333200830964594
% es.normE (V/m) @ t=0.86
1.888887142539243
% es.EX (V/m) @ t=0.86
1.745580077905255
% es.EY (V/m) @ t=0.86
0.1099085783557866
% es.EZ (V/m) @ t=0.86
0.7056696927256709
% es.tEX (V/m) @ t=0.86
1.7455800779052488
% es.tEY (V/m) @ t=0.86
0
% es.tEZ (V/m) @ t=0.86
0.7056696927256709
% es.Ex (V/m) @ t=0.86
1.745580077905255
% es.Ey (V/m) @ t=0.86
0.1099085783557866
% es.Ez (V/m) @ t=0.86
0.7056696927256709
% es.tEx (V/m) @ t=0.86
1.7455800779052488
% es.tEy (V/m) @ t=0.86
0
% es.tEz (V/m) @ t=0.86
0.7056696927256709
% V (V) @ t=0.86
0.009422249571998767
% es.normE (V/m) @ t=0.88
1.9067302913432567
% es.EX (V/m) @ t=0.88
1.7620698580796645
% es.EY (V/m) @ t=0.88
0.11094591668308806
% es.EZ (V/m) @ t=0.88
0.7123348319575076
% es.tEX (V/m) @ t=0.88
1.7620698580796628
% es.tEY (V/m) @ t=0.88
0
% es.tEZ (V/m) @ t=0.88
0.7123348319575049
% es.Ex (V/m) @ t=0.88
1.7620698580796645
% es.Ey (V/m) @ t=0.88
0.11094591668308806
% es.Ez (V/m) @ t=0.88
0.7123348319575076
% es.tEx (V/m) @ t=0.88
1.7620698580796628
% es.tEy (V/m) @ t=0.88
0
% es.tEz (V/m) @ t=0.88
0.7123348319575049
% V (V) @ t=0.88
0.009511298313032938
% es.normE (V/m) @ t=0.9
1.9245734401485453
% es.EX (V/m) @ t=0.9
1.77855963825409
% es.EY (V/m) @ t=0.9
0.11198325501039907
% es.EZ (V/m) @ t=0.9
0.7189999711893511
% es.tEX (V/m) @ t=0.9
1.7785596382540891
% es.tEY (V/m) @ t=0.9
0
% es.tEZ (V/m) @ t=0.9
0.7189999711893451
% es.Ex (V/m) @ t=0.9
1.77855963825409
% es.Ey (V/m) @ t=0.9
0.11198325501039907
% es.Ez (V/m) @ t=0.9
0.7189999711893511
% es.tEx (V/m) @ t=0.9
1.7785596382540891
% es.tEy (V/m) @ t=0.9
0
% es.tEz (V/m) @ t=0.9
0.7189999711893451
% V (V) @ t=0.9
0.009600347054067112
% es.normE (V/m) @ t=0.92
1.9424165889550462
% es.EX (V/m) @ t=0.92
1.7950494184285075
% es.EY (V/m) @ t=0.92
0.11302059333770498
% es.EZ (V/m) @ t=0.92
0.7256651104211862
% es.tEX (V/m) @ t=0.92
1.7950494184285084
% es.tEY (V/m) @ t=0.92
0
% es.tEZ (V/m) @ t=0.92
0.7256651104211862
% es.Ex (V/m) @ t=0.92
1.7950494184285075
% es.Ey (V/m) @ t=0.92
0.11302059333770498
% es.Ez (V/m) @ t=0.92
0.7256651104211862
% es.tEx (V/m) @ t=0.92
1.7950494184285084
% es.tEy (V/m) @ t=0.92
0
% es.tEz (V/m) @ t=0.92
0.7256651104211862
% V (V) @ t=0.92
0.009689395795101283
% es.normE (V/m) @ t=0.94
1.96025973776273
% es.EX (V/m) @ t=0.94
1.8115391986029152
% es.EY (V/m) @ t=0.94
0.11405793166500999
% es.EZ (V/m) @ t=0.94
0.7323302496530284
% es.tEX (V/m) @ t=0.94
1.8115391986029152
% es.tEY (V/m) @ t=0.94
0
% es.tEZ (V/m) @ t=0.94
0.7323302496530273
% es.Ex (V/m) @ t=0.94
1.8115391986029152
% es.Ey (V/m) @ t=0.94
0.11405793166500999
% es.Ez (V/m) @ t=0.94
0.7323302496530284
% es.tEx (V/m) @ t=0.94
1.8115391986029152
% es.tEy (V/m) @ t=0.94
0
% es.tEz (V/m) @ t=0.94
0.7323302496530273
% V (V) @ t=0.94
0.009778444536135458
% es.normE (V/m) @ t=0.96
1.978102886571577
% es.EX (V/m) @ t=0.96
1.82802897877733
% es.EY (V/m) @ t=0.96
0.11509526999232289
% es.EZ (V/m) @ t=0.96
0.7389953888848686
% es.tEX (V/m) @ t=0.96
1.8280289787773327
% es.tEY (V/m) @ t=0.96
0
% es.tEZ (V/m) @ t=0.96
0.7389953888848653
% es.Ex (V/m) @ t=0.96
1.82802897877733
% es.Ey (V/m) @ t=0.96
0.11509526999232289
% es.Ez (V/m) @ t=0.96
0.7389953888848686
% es.tEx (V/m) @ t=0.96
1.8280289787773327
% es.tEy (V/m) @ t=0.96
0
% es.tEz (V/m) @ t=0.96
0.7389953888848653
% V (V) @ t=0.96
0.009867493277169634
% es.normE (V/m) @ t=0.98
1.9959460353815475
% es.EX (V/m) @ t=0.98
1.844518758951744
% es.EY (V/m) @ t=0.98
0.1161326083196279
% es.EZ (V/m) @ t=0.98
0.7456605281167035
% es.tEX (V/m) @ t=0.98
1.8445187589517449
% es.tEY (V/m) @ t=0.98
0
% es.tEZ (V/m) @ t=0.98
0.7456605281167064
% es.Ex (V/m) @ t=0.98
1.844518758951744
% es.Ey (V/m) @ t=0.98
0.1161326083196279
% es.Ez (V/m) @ t=0.98
0.7456605281167035
% es.tEx (V/m) @ t=0.98
1.8445187589517449
% es.tEy (V/m) @ t=0.98
0
% es.tEz (V/m) @ t=0.98
0.7456605281167064
% V (V) @ t=0.98
0.009956542018203805
% es.normE (V/m) @ t=1
2.0137891841926185
% es.EX (V/m) @ t=1
1.8610085391261606
% es.EY (V/m) @ t=1
0.11716994664693303
% es.EZ (V/m) @ t=1
0.7523256673485419
% es.tEX (V/m) @ t=1
1.8610085391261642
% es.tEY (V/m) @ t=1
0
% es.tEZ (V/m) @ t=1
0.752325667348539
% es.Ex (V/m) @ t=1
1.8610085391261606
% es.Ey (V/m) @ t=1
0.11716994664693303
% es.Ez (V/m) @ t=1
0.7523256673485419
% es.tEx (V/m) @ t=1
1.8610085391261642
% es.tEy (V/m) @ t=1
0
% es.tEz (V/m) @ t=1
0.752325667348539
% V (V) @ t=1
0.010045590759237978
% es.normE (V/m) @ t=1.02
2.0316323330047705
% es.EX (V/m) @ t=1.02
1.8774983193005896
% es.EY (V/m) @ t=1.02
0.1182072849742477
% es.EZ (V/m) @ t=1.02
0.7589908065803856
% es.tEX (V/m) @ t=1.02
1.8774983193005852
% es.tEY (V/m) @ t=1.02
0
% es.tEZ (V/m) @ t=1.02
0.7589908065803876
% es.Ex (V/m) @ t=1.02
1.8774983193005896
% es.Ey (V/m) @ t=1.02
0.1182072849742477
% es.Ez (V/m) @ t=1.02
0.7589908065803856
% es.tEx (V/m) @ t=1.02
1.8774983193005852
% es.tEy (V/m) @ t=1.02
0
% es.tEz (V/m) @ t=1.02
0.7589908065803876
% V (V) @ t=1.02
0.010134639500272151
% es.normE (V/m) @ t=1.04
2.0494754818179377
% es.EX (V/m) @ t=1.04
1.8939880994749965
% es.EY (V/m) @ t=1.04
0.11924462330154917
% es.EZ (V/m) @ t=1.04
0.7656559458122225
% es.tEX (V/m) @ t=1.04
1.8939880994750045
% es.tEY (V/m) @ t=1.04
0
% es.tEZ (V/m) @ t=1.04
0.7656559458122216
% es.Ex (V/m) @ t=1.04
1.8939880994749965
% es.Ey (V/m) @ t=1.04
0.11924462330154917
% es.Ez (V/m) @ t=1.04
0.7656559458122225