% Model:              1 neuron.mph
% Version:            COMSOL 6.1.0.252
% Date:               Mar 18 2023, 12:09
% Dimension:          0
% Nodes:              14017
% Expressions:        14017
% Description:        Electric field norm, Electric field, X component, Electric field, Y component, Electric field, Z component, Tangential electric field, X component, Tangential electric field, Y component, Tangential electric field, Z component, Electric field, x component, Electric field, y component, Electric field, z component, Tangential electric field, x component, Tangential electric field, y component, Tangential electric field, z component, Electric potential
% Length unit:        mm
% x
1.33
% y
12.2
% z
1
% es.normE (V/m) @ t=0
1.558533595566138
% es.EX (V/m) @ t=0
0.48106225635373956
% es.EY (V/m) @ t=0
0.11654357396460446
% es.EZ (V/m) @ t=0
1.4778335847739004
% es.tEX (V/m) @ t=0
0.481062256353745
% es.tEY (V/m) @ t=0
0
% es.tEZ (V/m) @ t=0
1.4778335847739008
% es.Ex (V/m) @ t=0
0.48106225635373956
% es.Ey (V/m) @ t=0
0.11654357396460446
% es.Ez (V/m) @ t=0
1.4778335847739004
% es.tEx (V/m) @ t=0
0.481062256353745
% es.tEy (V/m) @ t=0
0
% es.tEz (V/m) @ t=0
1.4778335847739008
% V (V) @ t=0
0.0072893096118528495
% es.normE (V/m) @ t=0.02
1.3461269850732536
% es.EX (V/m) @ t=0.02
0.415500113129159
% es.EY (V/m) @ t=0.02
0.1006602938322742
% es.EZ (V/m) @ t=0.02
1.2764252714369744
% es.tEX (V/m) @ t=0.02
0.41550011312915913
% es.tEY (V/m) @ t=0.02
0
% es.tEZ (V/m) @ t=0.02
1.2764252714369864
% es.Ex (V/m) @ t=0.02
0.415500113129159
% es.Ey (V/m) @ t=0.02
0.1006602938322742
% es.Ez (V/m) @ t=0.02
1.2764252714369744
% es.tEx (V/m) @ t=0.02
0.41550011312915913
% es.tEy (V/m) @ t=0.02
0
% es.tEz (V/m) @ t=0.02
1.2764252714369864
% V (V) @ t=0.02
0.006295877326488044
% es.normE (V/m) @ t=0.04
1.3585134349387997
% es.EX (V/m) @ t=0.04
0.41932335772450924
% es.EY (V/m) @ t=0.04
0.10158652383986677
% es.EZ (V/m) @ t=0.04
1.288170357442224
% es.tEX (V/m) @ t=0.04
0.41932335772451523
% es.tEY (V/m) @ t=0.04
0
% es.tEZ (V/m) @ t=0.04
1.2881703574422279
% es.Ex (V/m) @ t=0.04
0.41932335772450924
% es.Ey (V/m) @ t=0.04
0.10158652383986677
% es.Ez (V/m) @ t=0.04
1.288170357442224
% es.tEx (V/m) @ t=0.04
0.41932335772451523
% es.tEy (V/m) @ t=0.04
0
% es.tEz (V/m) @ t=0.04
1.2881703574422279
% V (V) @ t=0.04
0.006353809040948814
% es.normE (V/m) @ t=0.06
1.3710142319648455
% es.EX (V/m) @ t=0.06
0.42318189711577314
% es.EY (V/m) @ t=0.06
0.10252130448237479
% es.EZ (V/m) @ t=0.06
1.300023869769201
% es.tEX (V/m) @ t=0.06
0.42318189711577503
% es.tEY (V/m) @ t=0.06
0
% es.tEZ (V/m) @ t=0.06
1.3000238697691966
% es.Ex (V/m) @ t=0.06
0.42318189711577314
% es.Ey (V/m) @ t=0.06
0.10252130448237479
% es.Ez (V/m) @ t=0.06
1.300023869769201
% es.tEx (V/m) @ t=0.06
0.42318189711577503
% es.tEy (V/m) @ t=0.06
0
% es.tEz (V/m) @ t=0.06
1.3000238697691966
% V (V) @ t=0.06
0.006412275559458554
% es.normE (V/m) @ t=0.08
1.3836995597271837
% es.EX (V/m) @ t=0.08
0.427097391811457
% es.EY (V/m) @ t=0.08
0.10346988483105213
% es.EZ (V/m) @ t=0.08
1.3120523586990087
% es.tEX (V/m) @ t=0.08
0.4270973918114578
% es.tEY (V/m) @ t=0.08
0
% es.tEZ (V/m) @ t=0.08
1.312052358699015
% es.Ex (V/m) @ t=0.08
0.427097391811457
% es.Ey (V/m) @ t=0.08
0.10346988483105213
% es.Ez (V/m) @ t=0.08
1.3120523586990087
% es.tEx (V/m) @ t=0.08
0.4270973918114578
% es.tEy (V/m) @ t=0.08
0
% es.tEz (V/m) @ t=0.08
1.312052358699015
% V (V) @ t=0.08
0.006471605363904265
% es.normE (V/m) @ t=0.1
1.3965261840998449
% es.EX (V/m) @ t=0.1
0.43105649762372344
% es.EY (V/m) @ t=0.1
0.10442903172135864
% es.EZ (V/m) @ t=0.1
1.3242148285653412
% es.tEX (V/m) @ t=0.1
0.4310564976237288
% es.tEY (V/m) @ t=0.1
0
% es.tEZ (V/m) @ t=0.1
1.3242148285653528
% es.Ex (V/m) @ t=0.1
0.43105649762372344
% es.Ey (V/m) @ t=0.1
0.10442903172135864
% es.Ez (V/m) @ t=0.1
1.3242148285653412
% es.tEx (V/m) @ t=0.1
0.4310564976237288
% es.tEy (V/m) @ t=0.1
0
% es.tEz (V/m) @ t=0.1
1.3242148285653528
% V (V) @ t=0.1
0.006531596193060157
% es.normE (V/m) @ t=0.12
1.4093528084725153
% es.EX (V/m) @ t=0.12
0.43501560343599543
% es.EY (V/m) @ t=0.12
0.10538817861165994
% es.EZ (V/m) @ t=0.12
1.3363772984316817
% es.tEX (V/m) @ t=0.12
0.4350156034359962
% es.tEY (V/m) @ t=0.12
0
% es.tEZ (V/m) @ t=0.12
1.3363772984316782
% es.Ex (V/m) @ t=0.12
0.43501560343599543
% es.Ey (V/m) @ t=0.12
0.10538817861165994
% es.Ez (V/m) @ t=0.12
1.3363772984316817
% es.tEx (V/m) @ t=0.12
0.4350156034359962
% es.tEy (V/m) @ t=0.12
0
% es.tEz (V/m) @ t=0.12
1.3363772984316782
% V (V) @ t=0.12
0.006591587022216048
% es.normE (V/m) @ t=0.14
1.422277848956131
% es.EX (V/m) @ t=0.14
0.43900508731838384
% es.EY (V/m) @ t=0.14
0.10635468463063391
% es.EZ (V/m) @ t=0.14
1.3486330882911877
% es.tEX (V/m) @ t=0.14
0.4390050873183853
% es.tEY (V/m) @ t=0.14
0
% es.tEZ (V/m) @ t=0.14
1.3486330882911872
% es.Ex (V/m) @ t=0.14
0.43900508731838384
% es.Ey (V/m) @ t=0.14
0.10635468463063391
% es.Ez (V/m) @ t=0.14
1.3486330882911877
% es.tEx (V/m) @ t=0.14
0.4390050873183853
% es.tEy (V/m) @ t=0.14
0
% es.tEz (V/m) @ t=0.14
1.3486330882911872
% V (V) @ t=0.14
0.006652038091398619
% es.normE (V/m) @ t=0.16
1.4357940459558474
% es.EX (V/m) @ t=0.16
0.44317704329727736
% es.EY (V/m) @ t=0.16
0.10736539476236562
% es.EZ (V/m) @ t=0.16
1.3614494237921848
% es.tEX (V/m) @ t=0.16
0.4431770432972826
% es.tEY (V/m) @ t=0.16
0
% es.tEZ (V/m) @ t=0.16
1.3614494237921928
% es.Ex (V/m) @ t=0.16
0.44317704329727736
% es.Ey (V/m) @ t=0.16
0.10736539476236562
% es.Ez (V/m) @ t=0.16
1.3614494237921848
% es.tEx (V/m) @ t=0.16
0.4431770432972826
% es.tEy (V/m) @ t=0.16
0
% es.tEz (V/m) @ t=0.16
1.3614494237921928
% V (V) @ t=0.16
0.006715253686512351
% es.normE (V/m) @ t=0.18
1.4493102429555915
% es.EX (V/m) @ t=0.18
0.44734899927618776
% es.EY (V/m) @ t=0.18
0.10837610489410565
% es.EZ (V/m) @ t=0.18
1.374265759293205
% es.tEX (V/m) @ t=0.18
0.44734899927618343
% es.tEY (V/m) @ t=0.18
0
% es.tEZ (V/m) @ t=0.18
1.374265759293218
% es.Ex (V/m) @ t=0.18
0.44734899927618776
% es.Ey (V/m) @ t=0.18
0.10837610489410565
% es.Ez (V/m) @ t=0.18
1.374265759293205
% es.tEx (V/m) @ t=0.18
0.44734899927618343
% es.tEy (V/m) @ t=0.18
0
% es.tEz (V/m) @ t=0.18
1.374265759293218
% V (V) @ t=0.18
0.006778469281626083
% es.normE (V/m) @ t=0.2
1.4628264399553295
% es.EX (V/m) @ t=0.2
0.4515209552550945
% es.EY (V/m) @ t=0.2
0.10938681502584247
% es.EZ (V/m) @ t=0.2
1.38708209479422
% es.tEX (V/m) @ t=0.2
0.4515209552550985
% es.tEY (V/m) @ t=0.2
0
% es.tEZ (V/m) @ t=0.2
1.387082094794227
% es.Ex (V/m) @ t=0.2
0.4515209552550945
% es.Ey (V/m) @ t=0.2
0.10938681502584247
% es.Ez (V/m) @ t=0.2
1.38708209479422
% es.tEx (V/m) @ t=0.2
0.4515209552550985
% es.tEy (V/m) @ t=0.2
0
% es.tEz (V/m) @ t=0.2
1.387082094794227
% V (V) @ t=0.2
0.006841684876739815
% es.normE (V/m) @ t=0.22
1.4763426369550658
% es.EX (V/m) @ t=0.22
0.45569291123399935
% es.EY (V/m) @ t=0.22
0.11039752515758083
% es.EZ (V/m) @ t=0.22
1.399898430295234
% es.tEX (V/m) @ t=0.22
0.4556929112340029
% es.tEY (V/m) @ t=0.22
0
% es.tEZ (V/m) @ t=0.22
1.3998984302952344
% es.Ex (V/m) @ t=0.22
0.45569291123399935
% es.Ey (V/m) @ t=0.22
0.11039752515758083
% es.Ez (V/m) @ t=0.22
1.399898430295234
% es.tEx (V/m) @ t=0.22
0.4556929112340029
% es.tEy (V/m) @ t=0.22
0
% es.tEz (V/m) @ t=0.22
1.3998984302952344
% V (V) @ t=0.22
0.006904900471853547
% es.normE (V/m) @ t=0.24
1.489858833954795
% es.EX (V/m) @ t=0.24
0.4598648672129031
% es.EY (V/m) @ t=0.24
0.1114082352893142
% es.EZ (V/m) @ t=0.24
1.412714765796241
% es.tEX (V/m) @ t=0.24
0.4598648672129073
% es.tEY (V/m) @ t=0.24
0
% es.tEZ (V/m) @ t=0.24
1.4127147657962436
% es.Ex (V/m) @ t=0.24
0.4598648672129031
% es.Ey (V/m) @ t=0.24
0.1114082352893142
% es.Ez (V/m) @ t=0.24
1.412714765796241
% es.tEx (V/m) @ t=0.24
0.4598648672129073
% es.tEy (V/m) @ t=0.24
0
% es.tEz (V/m) @ t=0.24
1.4127147657962436
% V (V) @ t=0.24
0.006968116066967281
% es.normE (V/m) @ t=0.26
1.5033750309545186
% es.EX (V/m) @ t=0.26
0.46403682319180706
% es.EY (V/m) @ t=0.26
0.11241894542105457
% es.EZ (V/m) @ t=0.26
1.4255311012972416
% es.tEX (V/m) @ t=0.26
0.4640368231917975
% es.tEY (V/m) @ t=0.26
0
% es.tEZ (V/m) @ t=0.26
1.4255311012972456
% es.Ex (V/m) @ t=0.26
0.46403682319180706
% es.Ey (V/m) @ t=0.26
0.11241894542105457
% es.Ez (V/m) @ t=0.26
1.4255311012972416
% es.tEx (V/m) @ t=0.26
0.4640368231917975
% es.tEy (V/m) @ t=0.26
0
% es.tEz (V/m) @ t=0.26
1.4255311012972456
% V (V) @ t=0.26
0.0070313316620810124
% es.normE (V/m) @ t=0.28
1.5173516457015044
% es.EX (V/m) @ t=0.28
0.4683507534667627
% es.EY (V/m) @ t=0.28
0.11346413998574878
% es.EZ (V/m) @ t=0.28
1.4387840555231115
% es.tEX (V/m) @ t=0.28
0.46835075346675836
% es.tEY (V/m) @ t=0.28
0
% es.tEZ (V/m) @ t=0.28
1.4387840555231097
% es.Ex (V/m) @ t=0.28
0.4683507534667627
% es.Ey (V/m) @ t=0.28
0.11346413998574878
% es.Ez (V/m) @ t=0.28
1.4387840555231115
% es.tEx (V/m) @ t=0.28
0.46835075346675836
% es.tEy (V/m) @ t=0.28
0
% es.tEz (V/m) @ t=0.28
1.4387840555231097
% V (V) @ t=0.28
0.007096713165630629
% es.normE (V/m) @ t=0.3
1.5324260927150108
% es.EX (V/m) @ t=0.3
0.4730032110120852
% es.EY (V/m) @ t=0.3
0.11459156014543526
% es.EZ (V/m) @ t=0.3
1.453078094996291
% es.tEX (V/m) @ t=0.3
0.47300321101208453
% es.tEY (V/m) @ t=0.3
0
% es.tEZ (V/m) @ t=0.3
1.453078094996286
% es.Ex (V/m) @ t=0.3
0.4730032110120852
% es.Ey (V/m) @ t=0.3
0.11459156014543526
% es.Ez (V/m) @ t=0.3
1.453078094996291
% es.tEx (V/m) @ t=0.3
0.47300321101208453
% es.tEy (V/m) @ t=0.3
0
% es.tEz (V/m) @ t=0.3
1.453078094996286
% V (V) @ t=0.3
0.007167259118598745
% es.normE (V/m) @ t=0.32
1.5475005397286756
% es.EX (V/m) @ t=0.32
0.47765566855740005
% es.EY (V/m) @ t=0.32
0.11571898030509542
% es.EZ (V/m) @ t=0.32
1.4673721344694552
% es.tEX (V/m) @ t=0.32
0.4776556685573965
% es.tEY (V/m) @ t=0.32
0
% es.tEZ (V/m) @ t=0.32
1.4673721344694624
% es.Ex (V/m) @ t=0.32
0.47765566855740005
% es.Ey (V/m) @ t=0.32
0.11571898030509542
% es.Ez (V/m) @ t=0.32
1.4673721344694552
% es.tEx (V/m) @ t=0.32
0.4776556685573965
% es.tEy (V/m) @ t=0.32
0
% es.tEz (V/m) @ t=0.32
1.4673721344694624
% V (V) @ t=0.32
0.007237805071566861
% es.normE (V/m) @ t=0.34
1.5625749867425198
% es.EX (V/m) @ t=0.34
0.482308126102725
% es.EY (V/m) @ t=0.34
0.11684640046477102
% es.EZ (V/m) @ t=0.34
1.4816661739426231
% es.tEX (V/m) @ t=0.34
0.4823081261027298
% es.tEY (V/m) @ t=0.34
0
% es.tEZ (V/m) @ t=0.34
1.4816661739426333
% es.Ex (V/m) @ t=0.34
0.482308126102725
% es.Ey (V/m) @ t=0.34
0.11684640046477102
% es.Ez (V/m) @ t=0.34
1.4816661739426231
% es.tEx (V/m) @ t=0.34
0.4823081261027298
% es.tEy (V/m) @ t=0.34
0
% es.tEz (V/m) @ t=0.34
1.4816661739426333
% V (V) @ t=0.34
0.007308351024534977
% es.normE (V/m) @ t=0.36
1.5776494337565334
% es.EX (V/m) @ t=0.36
0.4869605836480394
% es.EY (V/m) @ t=0.36
0.11797382062443085
% es.EZ (V/m) @ t=0.36
1.495960213415799
% es.tEX (V/m) @ t=0.36
0.48696058364804173
% es.tEY (V/m) @ t=0.36
0
% es.tEZ (V/m) @ t=0.36
1.4959602134158025
% es.Ex (V/m) @ t=0.36
0.4869605836480394
% es.Ey (V/m) @ t=0.36
0.11797382062443085
% es.Ez (V/m) @ t=0.36
1.495960213415799
% es.tEx (V/m) @ t=0.36
0.48696058364804173
% es.tEy (V/m) @ t=0.36
0
% es.tEz (V/m) @ t=0.36
1.4959602134158025
% V (V) @ t=0.36
0.007378896977503093
% es.normE (V/m) @ t=0.38
1.5927238807707083
% es.EX (V/m) @ t=0.38
0.491613041193361
% es.EY (V/m) @ t=0.38
0.1191012407841
% es.EZ (V/m) @ t=0.38
1.5102542528889709
% es.tEX (V/m) @ t=0.38
0.4916130411933608
% es.tEY (V/m) @ t=0.38
0
% es.tEZ (V/m) @ t=0.38
1.5102542528889717
% es.Ex (V/m) @ t=0.38
0.491613041193361
% es.Ey (V/m) @ t=0.38
0.1191012407841
% es.Ez (V/m) @ t=0.38
1.5102542528889709
% es.tEx (V/m) @ t=0.38
0.4916130411933608
% es.tEy (V/m) @ t=0.38
0
% es.tEz (V/m) @ t=0.38
1.5102542528889717
% V (V) @ t=0.38
0.0074494429304712085
% es.normE (V/m) @ t=0.4
1.60779832778504
% es.EX (V/m) @ t=0.4
0.496265498738684
% es.EY (V/m) @ t=0.4
0.1202286609437706
% es.EZ (V/m) @ t=0.4
1.5245482923621418
% es.tEX (V/m) @ t=0.4
0.49626549873868697
% es.tEY (V/m) @ t=0.4
0
% es.tEZ (V/m) @ t=0.4
1.5245482923621427
% es.Ex (V/m) @ t=0.4
0.496265498738684
% es.Ey (V/m) @ t=0.4
0.1202286609437706
% es.Ez (V/m) @ t=0.4
1.5245482923621418
% es.tEx (V/m) @ t=0.4
0.49626549873868697
% es.tEy (V/m) @ t=0.4
0
% es.tEz (V/m) @ t=0.4
1.5245482923621427
% V (V) @ t=0.4
0.0075199888834393235
% es.normE (V/m) @ t=0.42
1.622872774799525
% es.EX (V/m) @ t=0.42
0.5009179562840093
% es.EY (V/m) @ t=0.42
0.12135608110346063
% es.EZ (V/m) @ t=0.42
1.5388423318353106
% es.tEX (V/m) @ t=0.42
0.5009179562840131
% es.tEY (V/m) @ t=0.42
0
% es.tEZ (V/m) @ t=0.42
1.538842331835319
% es.Ex (V/m) @ t=0.42
0.5009179562840093
% es.Ey (V/m) @ t=0.42
0.12135608110346063
% es.Ez (V/m) @ t=0.42
1.5388423318353106
% es.tEx (V/m) @ t=0.42
0.5009179562840131
% es.tEy (V/m) @ t=0.42
0
% es.tEz (V/m) @ t=0.42
1.538842331835319
% V (V) @ t=0.42
0.007590534836407441
% es.normE (V/m) @ t=0.44
1.6379472218141584
% es.EX (V/m) @ t=0.44
0.5055704138293197
% es.EY (V/m) @ t=0.44
0.12248350126312069
% es.EZ (V/m) @ t=0.44
1.553136371308486
% es.tEX (V/m) @ t=0.44
0.5055704138293251
% es.tEY (V/m) @ t=0.44
0
% es.tEZ (V/m) @ t=0.44
1.5531363713084883
% es.Ex (V/m) @ t=0.44
0.5055704138293197
% es.Ey (V/m) @ t=0.44
0.12248350126312069
% es.Ez (V/m) @ t=0.44
1.553136371308486
% es.tEx (V/m) @ t=0.44
0.5055704138293251
% es.tEy (V/m) @ t=0.44
0
% es.tEz (V/m) @ t=0.44
1.5531363713084883
% V (V) @ t=0.44
0.007661080789375555
% es.normE (V/m) @ t=0.46
1.6530216688289525
% es.EX (V/m) @ t=0.46
0.5102228713746482
% es.EY (V/m) @ t=0.46
0.12361092142279306
% es.EZ (V/m) @ t=0.46
1.5674304107816717
% es.tEX (V/m) @ t=0.46
0.5102228713746442
% es.tEY (V/m) @ t=0.46
0
% es.tEZ (V/m) @ t=0.46
1.5674304107816734
% es.Ex (V/m) @ t=0.46
0.5102228713746482
% es.Ey (V/m) @ t=0.46
0.12361092142279306
% es.Ez (V/m) @ t=0.46
1.5674304107816717
% es.tEx (V/m) @ t=0.46
0.5102228713746442
% es.tEy (V/m) @ t=0.46
0
% es.tEz (V/m) @ t=0.46
1.5674304107816734
% V (V) @ t=0.46
0.007731626742343673
% es.normE (V/m) @ t=0.48
1.6680961158438539
% es.EX (V/m) @ t=0.48
0.5148753289199647
% es.EY (V/m) @ t=0.48
0.124738341582464
% es.EZ (V/m) @ t=0.48
1.5817244502548262
% es.tEX (V/m) @ t=0.48
0.5148753289199632
% es.tEY (V/m) @ t=0.48
0
% es.tEZ (V/m) @ t=0.48
1.5817244502548284
% es.Ex (V/m) @ t=0.48
0.5148753289199647
% es.Ey (V/m) @ t=0.48
0.124738341582464
% es.Ez (V/m) @ t=0.48
1.5817244502548262
% es.tEx (V/m) @ t=0.48
0.5148753289199632
% es.tEy (V/m) @ t=0.48
0
% es.tEz (V/m) @ t=0.48
1.5817244502548284
% V (V) @ t=0.48
0.007802172695311789
% es.normE (V/m) @ t=0.5
1.6831705628589262
% es.EX (V/m) @ t=0.5
0.5195277864652824
% es.EY (V/m) @ t=0.5
0.1258657617421337
% es.EZ (V/m) @ t=0.5
1.5960184897280159
% es.tEX (V/m) @ t=0.5
0.5195277864652823
% es.tEY (V/m) @ t=0.5
0
% es.tEZ (V/m) @ t=0.5
1.596018489728019
% es.Ex (V/m) @ t=0.5
0.5195277864652824
% es.Ey (V/m) @ t=0.5
0.1258657617421337
% es.Ez (V/m) @ t=0.5
1.5960184897280159
% es.tEx (V/m) @ t=0.5
0.5195277864652823
% es.tEy (V/m) @ t=0.5
0
% es.tEz (V/m) @ t=0.5
1.596018489728019
% V (V) @ t=0.5
0.007872718648279904
% es.normE (V/m) @ t=0.52
1.698245009874101
% es.EX (V/m) @ t=0.52
0.5241802440106018
% es.EY (V/m) @ t=0.52
0.12699318190179765
% es.EZ (V/m) @ t=0.52
1.610312529201173
% es.tEX (V/m) @ t=0.52
0.5241802440106085
% es.tEY (V/m) @ t=0.52
0
% es.tEZ (V/m) @ t=0.52
1.6103125292011757
% es.Ex (V/m) @ t=0.52
0.5241802440106018
% es.Ey (V/m) @ t=0.52
0.12699318190179765
% es.Ez (V/m) @ t=0.52
1.610312529201173
% es.tEx (V/m) @ t=0.52
0.5241802440106085
% es.tEy (V/m) @ t=0.52
0
% es.tEz (V/m) @ t=0.52
1.6103125292011757
% V (V) @ t=0.52
0.007943264601248019
% es.normE (V/m) @ t=0.54
1.7133194568894328
% es.EX (V/m) @ t=0.54
0.5288327015559257
% es.EY (V/m) @ t=0.54
0.1281206020614699
% es.EZ (V/m) @ t=0.54
1.6246065686743565
% es.tEX (V/m) @ t=0.54
0.5288327015559204
% es.tEY (V/m) @ t=0.54
0
% es.tEZ (V/m) @ t=0.54
1.6246065686743592
% es.Ex (V/m) @ t=0.54
0.5288327015559257
% es.Ey (V/m) @ t=0.54
0.1281206020614699
% es.Ez (V/m) @ t=0.54
1.6246065686743565
% es.tEx (V/m) @ t=0.54
0.5288327015559204
% es.tEy (V/m) @ t=0.54
0
% es.tEz (V/m) @ t=0.54
1.6246065686743592
% V (V) @ t=0.54
0.008013810554216134
% es.normE (V/m) @ t=0.56
1.7294444852208266
% es.EX (V/m) @ t=0.56
0.5338101210981737
% es.EY (V/m) @ t=0.56
0.12932630931085798
% es.EZ (V/m) @ t=0.56
1.639896589068694
% es.tEX (V/m) @ t=0.56
0.5338101210981776
% es.tEY (V/m) @ t=0.56
0
% es.tEZ (V/m) @ t=0.56
1.6398965890686945
% es.Ex (V/m) @ t=0.56
0.5338101210981737
% es.Ey (V/m) @ t=0.56
0.12932630931085798
% es.Ez (V/m) @ t=0.56
1.639896589068694
% es.tEx (V/m) @ t=0.56
0.5338101210981776
% es.tEy (V/m) @ t=0.56
0
% es.tEz (V/m) @ t=0.56
1.6398965890686945
% V (V) @ t=0.56
0.008089208662873897
% es.normE (V/m) @ t=0.58
1.746267068462493
% es.EX (V/m) @ t=0.58
0.5390033057916351
% es.EY (V/m) @ t=0.58
0.1305839968715572
% es.EZ (V/m) @ t=0.58
1.6558479113263145
% es.tEX (V/m) @ t=0.58
0.5390033057916312
% es.tEY (V/m) @ t=0.58
0
% es.tEZ (V/m) @ t=0.58
1.655847911326319
% es.Ex (V/m) @ t=0.58
0.5390033057916351
% es.Ey (V/m) @ t=0.58
0.1305839968715572
% es.Ez (V/m) @ t=0.58
1.6558479113263145
% es.tEx (V/m) @ t=0.58
0.5390033057916312
% es.tEy (V/m) @ t=0.58
0
% es.tEz (V/m) @ t=0.58
1.655847911326319
% V (V) @ t=0.58
0.00816782845934743
% es.normE (V/m) @ t=0.6
1.76308965170454
% es.EX (V/m) @ t=0.6
0.5441964904850991
% es.EY (V/m) @ t=0.6
0.13184168443226807
% es.EZ (V/m) @ t=0.6
1.671799233583943
% es.tEX (V/m) @ t=0.6
0.5441964904850991
% es.tEY (V/m) @ t=0.6
0
% es.tEZ (V/m) @ t=0.6
1.6717992335839433
% es.Ex (V/m) @ t=0.6
0.5441964904850991
% es.Ey (V/m) @ t=0.6
0.13184168443226807
% es.Ez (V/m) @ t=0.6
1.671799233583943
% es.tEx (V/m) @ t=0.6
0.5441964904850991
% es.tEy (V/m) @ t=0.6
0
% es.tEz (V/m) @ t=0.6
1.6717992335839433
% V (V) @ t=0.6
0.008246448255820965
% es.normE (V/m) @ t=0.62
1.77991223494694
% es.EX (V/m) @ t=0.62
0.5493896751785706
% es.EY (V/m) @ t=0.62
0.13309937199294253
% es.EZ (V/m) @ t=0.62
1.6877505558415633
% es.tEX (V/m) @ t=0.62
0.5493896751785741
% es.tEY (V/m) @ t=0.62
0
% es.tEZ (V/m) @ t=0.62
1.6877505558415695
% es.Ex (V/m) @ t=0.62
0.5493896751785706
% es.Ey (V/m) @ t=0.62
0.13309937199294253
% es.Ez (V/m) @ t=0.62
1.6877505558415633
% es.tEx (V/m) @ t=0.62
0.5493896751785741
% es.tEy (V/m) @ t=0.62
0
% es.tEz (V/m) @ t=0.62
1.6877505558415695
% V (V) @ t=0.62
0.008325068052294498
% es.normE (V/m) @ t=0.64
1.7967348181896972
% es.EX (V/m) @ t=0.64
0.554582859872038
% es.EY (V/m) @ t=0.64
0.1343570595536342
% es.EZ (V/m) @ t=0.64
1.7037018780991908
% es.tEX (V/m) @ t=0.64
0.5545828598720348
% es.tEY (V/m) @ t=0.64
0
% es.tEZ (V/m) @ t=0.64
1.7037018780991957
% es.Ex (V/m) @ t=0.64
0.554582859872038
% es.Ey (V/m) @ t=0.64
0.1343570595536342
% es.Ez (V/m) @ t=0.64
1.7037018780991908
% es.tEx (V/m) @ t=0.64
0.5545828598720348
% es.tEy (V/m) @ t=0.64
0
% es.tEz (V/m) @ t=0.64
1.7037018780991957
% V (V) @ t=0.64
0.008403687848768033
% es.normE (V/m) @ t=0.66
1.8135574014327933
% es.EX (V/m) @ t=0.66
0.5597760445654937
% es.EY (V/m) @ t=0.66
0.1356147471143091
% es.EZ (V/m) @ t=0.66
1.719653200356821
% es.tEX (V/m) @ t=0.66
0.5597760445654956
% es.tEY (V/m) @ t=0.66
0
% es.tEZ (V/m) @ t=0.66
1.7196532003568272
% es.Ex (V/m) @ t=0.66
0.5597760445654937
% es.Ey (V/m) @ t=0.66
0.1356147471143091
% es.Ez (V/m) @ t=0.66
1.719653200356821
% es.tEx (V/m) @ t=0.66
0.5597760445654956
% es.tEy (V/m) @ t=0.66
0
% es.tEz (V/m) @ t=0.66
1.7196532003568272
% V (V) @ t=0.66
0.008482307645241566
% es.normE (V/m) @ t=0.68
1.8303799846762177
% es.EX (V/m) @ t=0.68
0.5649692292589614
% es.EY (V/m) @ t=0.68
0.13687243467500043
% es.EZ (V/m) @ t=0.68
1.7356045226144428
% es.tEX (V/m) @ t=0.68
0.5649692292589705
% es.tEY (V/m) @ t=0.68
0
% es.tEZ (V/m) @ t=0.68
1.7356045226144392
% es.Ex (V/m) @ t=0.68
0.5649692292589614
% es.Ey (V/m) @ t=0.68
0.13687243467500043
% es.Ez (V/m) @ t=0.68
1.7356045226144428
% es.tEx (V/m) @ t=0.68
0.5649692292589705
% es.tEy (V/m) @ t=0.68
0
% es.tEz (V/m) @ t=0.68
1.7356045226144392
% V (V) @ t=0.68
0.0085609274417151
% es.normE (V/m) @ t=0.7
1.8472025679199755
% es.EX (V/m) @ t=0.7
0.5701624139524272
% es.EY (V/m) @ t=0.7
0.13813012223567667
% es.EZ (V/m) @ t=0.7
1.7515558448720778
% es.tEX (V/m) @ t=0.7
0.5701624139524242
% es.tEY (V/m) @ t=0.7
0
% es.tEZ (V/m) @ t=0.7
1.7515558448720707
% es.Ex (V/m) @ t=0.7
0.5701624139524272
% es.Ey (V/m) @ t=0.7
0.13813012223567667
% es.Ez (V/m) @ t=0.7
1.7515558448720778
% es.tEx (V/m) @ t=0.7
0.5701624139524242
% es.tEy (V/m) @ t=0.7
0
% es.tEz (V/m) @ t=0.7
1.7515558448720707
% V (V) @ t=0.7
0.008639547238188635
% es.normE (V/m) @ t=0.72
1.8640251511640185
% es.EX (V/m) @ t=0.72
0.5753555986458915
% es.EY (V/m) @ t=0.72
0.1393878097963932
% es.EZ (V/m) @ t=0.72
1.76750716712968
% es.tEX (V/m) @ t=0.72
0.575355598645892
% es.tEY (V/m) @ t=0.72
0
% es.tEZ (V/m) @ t=0.72
1.7675071671296827
% es.Ex (V/m) @ t=0.72
0.5753555986458915
% es.Ey (V/m) @ t=0.72
0.1393878097963932
% es.Ez (V/m) @ t=0.72
1.76750716712968
% es.tEx (V/m) @ t=0.72
0.575355598645892
% es.tEy (V/m) @ t=0.72
0
% es.tEz (V/m) @ t=0.72
1.7675071671296827
% V (V) @ t=0.72
0.00871816703466217
% es.normE (V/m) @ t=0.74
1.8808477344083885
% es.EX (V/m) @ t=0.74
0.5805487833393488
% es.EY (V/m) @ t=0.74
0.14064549735705878
% es.EZ (V/m) @ t=0.74
1.7834584893873116
% es.tEX (V/m) @ t=0.74
0.5805487833393457
% es.tEY (V/m) @ t=0.74
0
% es.tEZ (V/m) @ t=0.74
1.7834584893873142
% es.Ex (V/m) @ t=0.74
0.5805487833393488
% es.Ey (V/m) @ t=0.74
0.14064549735705878
% es.Ez (V/m) @ t=0.74
1.7834584893873116
% es.tEx (V/m) @ t=0.74
0.5805487833393457
% es.tEy (V/m) @ t=0.74
0
% es.tEz (V/m) @ t=0.74
1.7834584893873142
% V (V) @ t=0.74
0.008796786831135703
% es.normE (V/m) @ t=0.76
1.8976703176530463
% es.EX (V/m) @ t=0.76
0.5857419680328128
% es.EY (V/m) @ t=0.76
0.14190318491775766
% es.EZ (V/m) @ t=0.76
1.799409811644928
% es.tEX (V/m) @ t=0.76
0.5857419680328206
% es.tEY (V/m) @ t=0.76
0
% es.tEZ (V/m) @ t=0.76
1.7994098116449333
% es.Ex (V/m) @ t=0.76
0.5857419680328128
% es.Ey (V/m) @ t=0.76
0.14190318491775766
% es.Ez (V/m) @ t=0.76
1.799409811644928
% es.tEx (V/m) @ t=0.76
0.5857419680328206
% es.tEy (V/m) @ t=0.76
0
% es.tEz (V/m) @ t=0.76
1.7994098116449333
% V (V) @ t=0.76
0.008875406627609236
% es.normE (V/m) @ t=0.78
1.9144929008979945
% es.EX (V/m) @ t=0.78
0.5909351527262808
% es.EY (V/m) @ t=0.78
0.1431608724784459
% es.EZ (V/m) @ t=0.78
1.8153611339025453
% es.tEX (V/m) @ t=0.78
0.5909351527262885
% es.tEY (V/m) @ t=0.78
0
% es.tEZ (V/m) @ t=0.78
1.8153611339025595
% es.Ex (V/m) @ t=0.78
0.5909351527262808
% es.Ey (V/m) @ t=0.78
0.1431608724784459
% es.Ez (V/m) @ t=0.78
1.8153611339025453
% es.tEx (V/m) @ t=0.78
0.5909351527262885
% es.tEy (V/m) @ t=0.78
0
% es.tEz (V/m) @ t=0.78
1.8153611339025595
% V (V) @ t=0.78
0.008954026424082771
% es.normE (V/m) @ t=0.8
1.9313154841432385
% es.EX (V/m) @ t=0.8
0.5961283374197486
% es.EY (V/m) @ t=0.8
0.14441856003914866
% es.EZ (V/m) @ t=0.8
1.8313124561601763
% es.tEX (V/m) @ t=0.8
0.5961283374197421
% es.tEY (V/m) @ t=0.8
0
% es.tEZ (V/m) @ t=0.8
1.8313124561601768
% es.Ex (V/m) @ t=0.8
0.5961283374197486
% es.Ey (V/m) @ t=0.8
0.14441856003914866
% es.Ez (V/m) @ t=0.8
1.8313124561601763
% es.tEx (V/m) @ t=0.8
0.5961283374197421
% es.tEy (V/m) @ t=0.8
0
% es.tEz (V/m) @ t=0.8
1.8313124561601768
% V (V) @ t=0.8
0.009032646220556304
% es.normE (V/m) @ t=0.82
1.948138067388744
% es.EX (V/m) @ t=0.82
0.6013215221132019
% es.EY (V/m) @ t=0.82
0.1456762475998249
% es.EZ (V/m) @ t=0.82
1.8472637784178003
% es.tEX (V/m) @ t=0.82
0.6013215221132029
% es.tEY (V/m) @ t=0.82
0
% es.tEZ (V/m) @ t=0.82
1.8472637784178012
% es.Ex (V/m) @ t=0.82
0.6013215221132019
% es.Ey (V/m) @ t=0.82
0.1456762475998249
% es.Ez (V/m) @ t=0.82
1.8472637784178003
% es.tEx (V/m) @ t=0.82
0.6013215221132029
% es.tEy (V/m) @ t=0.82
0
% es.tEz (V/m) @ t=0.82
1.8472637784178012
% V (V) @ t=0.82
0.00911126601702984
% es.normE (V/m) @ t=0.84
1.9667881247654497
% es.EX (V/m) @ t=0.84
0.6070777341284096
% es.EY (V/m) @ t=0.84
0.1470710074597018
% es.EZ (V/m) @ t=0.84
1.8649482572203553
% es.tEX (V/m) @ t=0.84
0.6070777341284028
% es.tEY (V/m) @ t=0.84
0
% es.tEZ (V/m) @ t=0.84
1.8649482572203588
% es.Ex (V/m) @ t=0.84
0.6070777341284096
% es.Ey (V/m) @ t=0.84
0.1470710074597018
% es.Ez (V/m) @ t=0.84
1.8649482572203553
% es.tEx (V/m) @ t=0.84
0.6070777341284028
% es.tEy (V/m) @ t=0.84
0
% es.tEz (V/m) @ t=0.84
1.8649482572203588
% V (V) @ t=0.84
0.009198526761885959
% es.normE (V/m) @ t=0.86
1.9856267341932066
% es.EX (V/m) @ t=0.86
0.6128920372292399
% es.EY (V/m) @ t=0.86
0.14847990993459925
% es.EZ (V/m) @ t=0.86
1.8828115567326118
% es.tEX (V/m) @ t=0.86
0.6128920372292441
% es.tEY (V/m) @ t=0.86
0
% es.tEZ (V/m) @ t=0.86
1.8828115567326034
% es.Ex (V/m) @ t=0.86
0.6128920372292399
% es.Ey (V/m) @ t=0.86
0.14847990993459925
% es.Ez (V/m) @ t=0.86
1.8828115567326118
% es.tEx (V/m) @ t=0.86
0.6128920372292441
% es.tEy (V/m) @ t=0.86
0
% es.tEz (V/m) @ t=0.86
1.8828115567326034
% V (V) @ t=0.86
0.009286679047974606
% es.normE (V/m) @ t=0.88
2.004465343621101
% es.EX (V/m) @ t=0.88
0.6187063403300647
% es.EY (V/m) @ t=0.88
0.1498888124095369
% es.EZ (V/m) @ t=0.88
1.9006748562448448
% es.tEX (V/m) @ t=0.88
0.6187063403300712
% es.tEY (V/m) @ t=0.88
0
% es.tEZ (V/m) @ t=0.88
1.900674856244855
% es.Ex (V/m) @ t=0.88
0.6187063403300647
% es.Ey (V/m) @ t=0.88
0.1498888124095369
% es.Ez (V/m) @ t=0.88
1.9006748562448448
% es.tEx (V/m) @ t=0.88
0.6187063403300712
% es.tEy (V/m) @ t=0.88
0
% es.tEz (V/m) @ t=0.88
1.900674856244855
% V (V) @ t=0.88
0.009374831334063255
% es.normE (V/m) @ t=0.9
2.0233039530491683
% es.EX (V/m) @ t=0.9
0.6245206434308863
% es.EY (V/m) @ t=0.9
0.151297714884422
% es.EZ (V/m) @ t=0.9
1.9185381557571017
% es.tEX (V/m) @ t=0.9
0.6245206434308841
% es.tEY (V/m) @ t=0.9
0
% es.tEZ (V/m) @ t=0.9
1.9185381557570924
% es.Ex (V/m) @ t=0.9
0.6245206434308863
% es.Ey (V/m) @ t=0.9
0.151297714884422
% es.Ez (V/m) @ t=0.9
1.9185381557571017
% es.tEx (V/m) @ t=0.9
0.6245206434308841
% es.tEy (V/m) @ t=0.9
0
% es.tEz (V/m) @ t=0.9
1.9185381557570924
% V (V) @ t=0.9
0.0094629836201519
% es.normE (V/m) @ t=0.92
2.042142562477381
% es.EX (V/m) @ t=0.92
0.6303349465317133
% es.EY (V/m) @ t=0.92
0.1527066173593381
% es.EZ (V/m) @ t=0.92
1.9364014552693498
% es.tEX (V/m) @ t=0.92
0.6303349465317183
% es.tEY (V/m) @ t=0.92
0
% es.tEZ (V/m) @ t=0.92
1.936401455269344
% es.Ex (V/m) @ t=0.92
0.6303349465317133
% es.Ey (V/m) @ t=0.92
0.1527066173593381
% es.Ez (V/m) @ t=0.92
1.9364014552693498
% es.tEx (V/m) @ t=0.92
0.6303349465317183
% es.tEy (V/m) @ t=0.92
0
% es.tEz (V/m) @ t=0.92
1.936401455269344
% V (V) @ t=0.92
0.009551135906240547
% es.normE (V/m) @ t=0.94
2.0609811719057314
% es.EX (V/m) @ t=0.94
0.6361492496325343
% es.EY (V/m) @ t=0.94
0.15411551983425886
% es.EZ (V/m) @ t=0.94
1.9542647547815912
% es.tEX (V/m) @ t=0.94
0.6361492496325383
% es.tEY (V/m) @ t=0.94
0
% es.tEZ (V/m) @ t=0.94
1.954264754781594
% es.Ex (V/m) @ t=0.94
0.6361492496325343
% es.Ey (V/m) @ t=0.94
0.15411551983425886
% es.Ez (V/m) @ t=0.94
1.9542647547815912
% es.tEx (V/m) @ t=0.94
0.6361492496325383
% es.tEy (V/m) @ t=0.94
0
% es.tEz (V/m) @ t=0.94
1.954264754781594
% V (V) @ t=0.94
0.009639288192329195
% es.normE (V/m) @ t=0.96
2.0798197813342467
% es.EX (V/m) @ t=0.96
0.6419635527333701
% es.EY (V/m) @ t=0.96
0.15552442230918517
% es.EZ (V/m) @ t=0.96
1.9721280542938504
% es.tEX (V/m) @ t=0.96
0.6419635527333796
% es.tEY (V/m) @ t=0.96
0
% es.tEZ (V/m) @ t=0.96
1.9721280542938526
% es.Ex (V/m) @ t=0.96
0.6419635527333701
% es.Ey (V/m) @ t=0.96
0.15552442230918517
% es.Ez (V/m) @ t=0.96
1.9721280542938504
% es.tEx (V/m) @ t=0.96
0.6419635527333796
% es.tEy (V/m) @ t=0.96
0
% es.tEz (V/m) @ t=0.96
1.9721280542938526
% V (V) @ t=0.96
0.00972744047841784
% es.normE (V/m) @ t=0.98
2.0986583907628846
% es.EX (V/m) @ t=0.98
0.6477778558341967
% es.EY (V/m) @ t=0.98
0.15693332478409172
% es.EZ (V/m) @ t=0.98
1.989991353806099
% es.tEX (V/m) @ t=0.98
0.6477778558341996
% es.tEY (V/m) @ t=0.98
0
% es.tEZ (V/m) @ t=0.98
1.9899913538061043
% es.Ex (V/m) @ t=0.98
0.6477778558341967
% es.Ey (V/m) @ t=0.98
0.15693332478409172
% es.Ez (V/m) @ t=0.98
1.989991353806099
% es.tEx (V/m) @ t=0.98
0.6477778558341996
% es.tEy (V/m) @ t=0.98
0
% es.tEz (V/m) @ t=0.98
1.9899913538061043
% V (V) @ t=0.98
0.009815592764506487
% es.normE (V/m) @ t=1
2.117497000191651
% es.EX (V/m) @ t=1
0.6535921589350112
% es.EY (V/m) @ t=1
0.1583422272589896
% es.EZ (V/m) @ t=1
2.007854653318345
% es.tEX (V/m) @ t=1
0.6535921589350124
% es.tEY (V/m) @ t=1
0
% es.tEZ (V/m) @ t=1
2.00785465331834
% es.Ex (V/m) @ t=1
0.6535921589350112
% es.Ey (V/m) @ t=1
0.1583422272589896
% es.Ez (V/m) @ t=1
2.007854653318345
% es.tEx (V/m) @ t=1
0.6535921589350124
% es.tEy (V/m) @ t=1
0
% es.tEz (V/m) @ t=1
2.00785465331834
% V (V) @ t=1
0.009903745050595134
% es.normE (V/m) @ t=1.02
2.1363356096205655
% es.EX (V/m) @ t=1.02
0.6594064620358417
% es.EY (V/m) @ t=1.02
0.15975112973393024
% es.EZ (V/m) @ t=1.02
2.0257179528306004
% es.tEX (V/m) @ t=1.02
0.6594064620358466
% es.tEY (V/m) @ t=1.02
0
% es.tEZ (V/m) @ t=1.02
2.0257179528305915
% es.Ex (V/m) @ t=1.02
0.6594064620358417
% es.Ey (V/m) @ t=1.02
0.15975112973393024
% es.Ez (V/m) @ t=1.02
2.0257179528306004
% es.tEx (V/m) @ t=1.02
0.6594064620358466
% es.tEy (V/m) @ t=1.02
0
% es.tEz (V/m) @ t=1.02
2.0257179528305915
% V (V) @ t=1.02
0.009991897336683781
% es.normE (V/m) @ t=1.04
2.1551742190496004
% es.EX (V/m) @ t=1.04
0.6652207651366681
% es.EY (V/m) @ t=1.04
0.16116003220884068
% es.EZ (V/m) @ t=1.04
2.043581252342853
% es.tEX (V/m) @ t=1.04
0.6652207651366737
% es.tEY (V/m) @ t=1.04
0
% es.tEZ (V/m) @ t=1.04
2.043581252342859
% es.Ex (V/m) @ t=1.04
0.6652207651366681
% es.Ey (V/m) @ t=1.04
0.16116003220884068
% es.Ez (V/m) @ t=1.04
2.043581252342853